ITEM: TIMESTEP
220000
ITEM: NUMBER OF ATOMS
1005
ITEM: BOX BOUNDS mm mm mm
0 0.1
0 0.1
0 1.1
ITEM: ATOMS id type x y z ix iy iz vx vy vz fx fy fz omegax omegay omegaz radius f_Temp[0] f_heatFlux[0] f_speciesC[0] f_speciesCFlux[0] 
152 1 0.0254471 0.0104911 0.0102219 0 0 0 -3.31459e-06 -2.16766e-06 -4.68991e-06 -8.64989e-07 2.13612e-06 1.05536e-06 8.18726e-05 0.000251039 -0.000143494 0.011 591.853 -2.27815 0.99985 -3.00952e-06 
97 1 0.010096 0.0228961 0.0166306 0 0 0 -5.08318e-08 -1.3912e-06 4.5132e-07 -3.53019e-06 3.44119e-06 -2.55873e-06 0.000372476 7.41609e-06 -0.000156765 0.011 591.89 -2.25117 0.99985 -3.00952e-06 
231 1 0.0360322 0.0295065 0.0103017 0 0 0 5.68076e-07 -5.29465e-06 3.39437e-06 -9.18657e-06 1.22036e-05 -4.15963e-06 0.000601233 -8.90941e-05 -0.000283066 0.011 591.862 -2.2711 0.99985 -3.00951e-06 
89 1 0.0620409 0.0171549 0.0104267 0 0 0 -1.23372e-05 -2.56873e-06 9.26715e-06 -3.96357e-06 9.49105e-06 -4.03779e-07 -2.98728e-05 -0.000821849 -0.00162857 0.011 590.715 -2.57282 0.999825 -3.52212e-06 
216 1 0.0812366 0.0269588 0.00999773 0 0 0 -7.81459e-06 -1.03134e-05 2.41357e-05 -1.04927e-05 1.15737e-05 2.95638e-06 0.00176125 -0.00127964 0.00119541 0.011 590.657 -2.59785 0.999825 -3.52211e-06 
155 1 0.0150044 0.0423283 0.0103381 0 0 0 3.43409e-07 1.9974e-07 1.42886e-06 -1.66817e-05 5.02777e-06 1.05737e-06 -9.36247e-05 4.66404e-05 0.000124574 0.011 591.896 -2.25436 0.99985 -3.00951e-06 
79 1 0.0644508 0.0460878 0.0105439 0 0 0 -1.73941e-05 -1.046e-05 -9.88044e-06 -9.14247e-06 2.02213e-05 5.76756e-06 0.000512643 -0.0002999 0.00369341 0.011 590.917 -2.467 0.999825 -3.52213e-06 
180 1 0.033923 0.0582285 0.0104706 0 0 0 -1.74191e-06 4.18855e-08 -2.66235e-07 -1.56121e-05 5.315e-06 -2.78642e-07 -1.61572e-05 -0.000190019 -0.000221148 0.011 592.332 -2.13689 0.99986 -2.81354e-06 
33 1 0.0814148 0.0599216 0.0102632 0 0 0 -4.45355e-05 -5.04165e-05 2.64519e-05 7.70387e-06 1.69395e-05 -9.15336e-06 0.00387512 -0.00483487 -0.00724182 0.011 592.853 -2.01203 0.999872 -2.56382e-06 
2 1 0.0105506 0.0718176 0.00973647 0 0 0 -4.12605e-07 6.54774e-07 -3.16397e-07 -4.90363e-06 3.92334e-06 -1.46444e-06 -8.52176e-05 -1.63151e-05 -6.41384e-06 0.011 592.336 -2.13393 0.99986 -2.81354e-06 
30 1 0.0423262 0.0807624 0.0100002 0 0 0 1.15537e-07 2.71371e-07 -6.51424e-07 -2.77173e-06 2.30525e-06 9.82133e-07 -2.54673e-05 2.52578e-05 0.000192839 0.011 592.369 -2.11918 0.99986 -2.81354e-06 
253 1 0.060119 0.0675846 0.0106247 0 0 0 -9.65644e-06 -8.94199e-06 3.92826e-06 -1.18998e-06 2.13594e-05 -9.08418e-06 0.000639038 -0.000403838 -0.00176777 0.011 592.866 -2.00536 0.999872 -2.56383e-06 
25 1 0.0890675 0.080156 0.00996875 0 0 0 6.03303e-06 -2.94724e-05 1.75523e-05 6.7976e-07 9.86549e-06 -5.93701e-06 0.000173581 0.00142993 0.0033626 0.011 592.931 -1.96963 0.999872 -2.56383e-06 
233 1 0.0222916 0.0895166 0.0118686 0 0 0 -2.37327e-07 7.97504e-08 -4.24174e-07 -2.51724e-06 1.67843e-06 -1.04171e-06 3.57697e-05 -7.08563e-05 -4.84875e-05 0.011 592.324 -2.14335 0.99986 -2.81354e-06 
192 1 0.0689573 0.0890005 0.0109517 0 0 0 1.90817e-06 -2.03255e-05 6.47187e-06 -2.35888e-06 9.47724e-06 -8.54119e-06 0.00182362 -0.000530497 -0.00455915 0.011 592.92 -1.97762 0.999872 -2.56383e-06 
166 1 0.0440592 0.0107332 0.0202807 0 0 0 -1.8595e-05 -4.73523e-06 -5.47648e-06 -1.26133e-06 2.26155e-06 1.17683e-07 0.000808497 -0.00155804 0.000993843 0.011 591.724 -2.33848 0.99985 -3.00952e-06 
203 1 0.0627289 0.0103234 0.0310024 0 0 0 -3.28439e-05 2.86726e-06 1.11306e-05 -4.87111e-06 9.13323e-06 1.2398e-06 0.00121645 -0.000205289 0.00219005 0.011 590.747 -2.54888 0.999825 -3.52212e-06 
234 1 0.088845 0.0102819 0.020733 0 0 0 -1.95099e-05 -1.44949e-05 1.9076e-05 -1.21672e-05 1.11884e-05 1.54971e-05 0.00250076 -0.00632256 0.00222025 0.011 590.65 -2.60427 0.999825 -3.52212e-06 
22 1 0.0674543 0.0308918 0.0259847 0 0 0 -3.61647e-06 5.09604e-06 5.92911e-06 -1.6893e-05 1.69466e-05 5.23675e-06 -0.0032521 -0.000146327 -0.00165607 0.011 590.763 -2.53807 0.999825 -3.52212e-06 
104 1 0.0246176 0.0349091 0.0292672 0 0 0 -2.6951e-06 -6.57303e-06 1.70661e-06 -2.28829e-05 1.92209e-05 -4.41219e-06 -0.000792956 -0.000611976 0.000345007 0.011 591.913 -2.2379 0.99985 -3.00951e-06 
35 1 0.0463015 0.0343863 0.0280733 0 0 0 -9.73867e-07 7.61197e-06 7.08161e-06 -2.19956e-05 1.80802e-05 -1.3478e-06 -0.00105838 0.000151937 0.00182683 0.011 591.92 -2.23815 0.99985 -3.00951e-06 
147 1 0.0896086 0.0357648 0.0270772 0 0 0 7.42601e-06 -5.48466e-05 7.06485e-05 -1.06412e-05 2.16322e-05 -8.92678e-06 0.00485926 0.00621993 0.00310849 0.011 590.856 -2.49588 0.999825 -3.52208e-06 
8 1 0.0158777 0.0580095 0.0245511 0 0 0 -4.46003e-07 1.90196e-06 1.64846e-07 -2.64006e-05 1.23299e-05 1.57518e-06 -0.000121068 9.4099e-05 5.90899e-05 0.011 592.275 -2.16098 0.99986 -2.81354e-06 
63 1 0.0362746 0.0531948 0.031192 0 0 0 -8.34221e-06 5.69934e-07 2.57798e-07 -2.5253e-05 1.19598e-05 3.11649e-07 -4.26257e-05 -0.000194981 -0.000386747 0.011 592.468 -2.07617 0.99986 -2.81354e-06 
99 1 0.0576215 0.0556965 0.0284733 0 0 0 -1.55024e-05 -2.67494e-05 1.81726e-06 -2.0237e-05 3.12304e-05 -4.87999e-06 0.00114823 0.00116596 -0.00202383 0.011 592.88 -1.99965 0.999872 -2.56383e-06 
224 1 0.0871999 0.0564714 0.0302935 0 0 0 -1.68771e-05 -6.70237e-05 6.49701e-05 -1.43876e-06 2.70507e-05 -2.01572e-05 -0.00627952 0.0105306 0.00531411 0.011 592.809 -2.02517 0.999872 -2.5638e-06 
126 1 0.0103593 0.0787913 0.0293285 0 0 0 3.54379e-07 1.12815e-07 6.47083e-08 -7.603e-06 8.31952e-06 -3.12782e-06 0.000241264 8.67631e-05 3.03478e-05 0.011 592.571 -2.0238 0.99986 -2.81354e-06 
163 1 0.0308221 0.0731114 0.0256597 0 0 0 -7.50651e-07 3.30157e-07 -1.26627e-06 -1.33167e-05 6.86093e-06 -1.27259e-06 -3.65591e-05 -0.000117806 -0.000167593 0.011 592.376 -2.10651 0.99986 -2.81354e-06 
12 1 0.0744996 0.0734406 0.0257569 0 0 0 -2.30355e-05 -4.18228e-05 2.7727e-05 6.74327e-06 2.25612e-05 -1.92719e-05 -0.00175908 -0.00356456 -0.00530748 0.011 592.928 -1.97204 0.999872 -2.56382e-06 
257 1 0.053155 0.0892636 0.0262312 0 0 0 -8.17198e-07 -2.03651e-06 1.0642e-07 4.70082e-06 5.85396e-06 -8.72645e-06 0.000256415 -0.000154373 -0.000291576 0.011 592.889 -1.99046 0.999872 -2.56383e-06 
243 1 0.0892875 0.0891904 0.0286319 0 0 0 9.53682e-07 -1.93621e-05 9.65289e-06 1.4046e-06 8.27327e-06 -4.74774e-06 -0.00155139 0.000449457 0.0016424 0.011 593.095 -1.89194 0.999872 -2.56383e-06 
223 1 0.0366962 0.010692 0.0405211 0 0 0 -5.59208e-05 -1.59487e-05 -3.4521e-05 8.89398e-06 8.57122e-06 1.70061e-05 -0.00260135 -0.00109132 0.00513763 0.011 591.973 -2.21127 0.99985 -3.00953e-06 
70 1 0.0104573 0.0206617 0.0372909 0 0 0 -3.21846e-06 -3.32001e-06 2.00882e-06 -4.31702e-06 2.73407e-06 -7.46559e-06 -0.000296811 -0.000258928 -0.00024545 0.011 592.28 -2.06925 0.99985 -3.00951e-06 
45 1 0.0533439 0.0234863 0.0450382 0 0 0 -8.28365e-05 -2.72201e-05 2.98e-05 -1.57791e-07 2.22946e-05 -1.34835e-05 0.0046138 -0.00847687 -0.00473799 0.011 591.263 -2.31266 0.999825 -3.52211e-06 
108 1 0.0809212 0.019436 0.0384448 0 0 0 -4.72884e-05 -0.000102297 3.17531e-05 -1.64716e-05 4.59478e-05 1.85261e-05 0.00879929 -0.00208151 -0.0106552 0.011 590.911 -2.4786 0.999825 -3.52211e-06 
96 1 0.0118127 0.0470098 0.0420245 0 0 0 -4.37242e-06 -9.97899e-07 -2.06274e-06 -2.02766e-05 1.46698e-05 6.18755e-06 0.000662939 -9.61458e-05 -0.000822179 0.011 592.163 -2.12041 0.99985 -3.00951e-06 
9 1 0.0408217 0.0409412 0.047864 0 0 0 -2.23617e-05 5.25573e-06 -9.29773e-08 -1.72106e-05 1.11523e-05 9.52768e-07 3.995e-05 -0.00103984 -0.00077218 0.011 594.334 -1.67888 0.99991 -1.81534e-06 
80 1 0.0755029 0.0427478 0.0417282 0 0 0 -4.64153e-05 -0.000113745 8.79792e-05 -1.81237e-07 4.90351e-05 -1.35077e-05 0.010529 -0.0150654 -0.012241 0.011 591.39 -2.26228 0.999825 -3.52207e-06 
146 1 0.0234892 0.0652287 0.0441929 0 0 0 7.36344e-07 4.18561e-07 1.93611e-06 -2.14782e-05 1.33743e-05 -3.75801e-06 -0.000243249 0.000309139 0.000378114 0.011 592.698 -1.9599 0.99986 -2.81354e-06 
182 1 0.0584024 0.0528219 0.0495943 0 0 0 -1.07263e-05 -3.50439e-05 1.34003e-05 -1.96015e-05 2.61475e-05 -8.49044e-06 -0.000969172 0.000209 -0.00387227 0.011 594.485 -1.6336 0.999912 -1.76718e-06 
240 1 0.0106828 0.0818064 0.0498461 0 0 0 2.2637e-06 -1.11494e-06 6.87632e-07 -9.2516e-06 7.27821e-06 -3.27649e-06 -0.000107534 -1.58475e-05 -0.000265123 0.011 594.724 -1.56616 0.999918 -1.65407e-06 
204 1 0.0466079 0.0738911 0.0406832 0 0 0 -2.61654e-06 -2.55121e-05 7.52367e-08 -3.07605e-05 -1.61021e-05 1.42465e-05 -0.00164327 -0.000192158 -0.00455091 0.011 592.482 -2.0598 0.99986 -2.81354e-06 
78 1 0.0692246 0.0708968 0.048367 0 0 0 7.86252e-06 -3.35023e-05 7.24928e-07 -1.79656e-05 2.2848e-05 -1.98139e-05 0.00100636 0.000158296 0.00211578 0.011 594.755 -1.50998 0.999912 -1.76718e-06 
212 1 0.0899728 0.0687316 0.0468711 0 0 0 1.16724e-05 -3.29918e-06 2.51253e-06 -1.0561e-05 7.86753e-06 -9.25364e-06 -0.000310665 -0.000509674 0.000831008 0.011 594.712 -1.53537 0.999912 -1.76718e-06 
32 1 0.0268327 0.0897763 0.0377094 0 0 0 2.41937e-06 -7.05425e-07 -1.39143e-06 -7.36134e-06 5.63461e-06 -1.03309e-06 0.000183777 0.000571325 0.000133272 0.011 592.653 -1.98117 0.99986 -2.81354e-06 
34 1 0.0702595 0.0898161 0.0390875 0 0 0 -3.08575e-06 -1.20636e-05 5.16567e-06 -2.8116e-07 9.05223e-06 -1.51131e-05 -0.000318839 -0.000380092 -0.000514765 0.011 593.164 -1.86 0.999872 -2.56383e-06 
217 1 0.0892415 0.0898424 0.0494501 0 0 0 8.84788e-07 -2.65902e-06 3.22519e-06 -1.77777e-06 2.58677e-06 -2.14848e-06 -0.000104584 6.19588e-05 0.000311144 0.011 594.664 -1.54755 0.999912 -1.76718e-06 
258 1 0.0129913 0.0100017 0.0550999 0 0 0 1.3789e-06 -6.00781e-07 3.66222e-06 -9.62596e-06 -2.90647e-06 -1.06571e-05 0.000209759 0.00091053 -0.000172376 0.011 594.56 -1.5736 0.99991 -1.81534e-06 
164 1 0.0340188 0.0103401 0.0619125 0 0 0 3.16456e-05 9.74253e-06 -2.16177e-05 -4.65953e-05 -6.05652e-06 1.60827e-05 -0.00167338 0.00942331 -0.00283057 0.011 594.624 -1.54835 0.99991 -1.81535e-06 
15 1 0.0686444 0.0109518 0.0545436 0 0 0 -6.67791e-05 -4.30557e-05 1.09155e-05 -5.15465e-05 2.64213e-05 1.40458e-05 -0.00150035 0.00595338 0.00401627 0.011 593.696 -1.79322 0.99989 -2.22346e-06 
64 1 0.0256322 0.0267078 0.0511059 0 0 0 -8.89352e-06 4.29838e-06 -1.58768e-06 -1.37663e-05 -2.91749e-07 -2.19195e-06 -0.00038375 0.000430645 0.00115272 0.011 594.586 -1.56873 0.99991 -1.81534e-06 
191 1 0.0895755 0.0318792 0.0533694 0 0 0 1.41981e-05 -0.000160079 4.67783e-05 -1.62317e-05 6.71979e-05 2.10254e-06 0.00259954 0.0253814 0.0287959 0.011 593.429 -1.91118 0.99989 -2.22345e-06 
199 1 0.0102991 0.0380888 0.0609956 0 0 0 -9.60491e-07 -2.01852e-06 -3.05189e-07 -6.87396e-06 1.27842e-07 -1.82936e-06 -0.000627679 0.000614115 0.000534679 0.011 594.576 -1.56506 0.99991 -1.81534e-06 
123 1 0.0652331 0.0343309 0.0585773 0 0 0 -3.51537e-05 -8.27521e-05 2.95445e-05 -9.86712e-06 3.43144e-05 -5.09258e-06 -0.00211674 0.014203 -0.00111069 0.011 593.511 -1.86424 0.99989 -2.22345e-06 
43 1 0.0106011 0.0604897 0.0611541 0 0 0 5.01206e-08 2.27221e-07 7.42307e-07 -1.08533e-05 2.97914e-06 -7.49738e-06 0.000453656 -0.000166059 -0.000175489 0.011 595.072 -1.40576 0.999918 -1.65407e-06 
161 1 0.0394498 0.0598851 0.0574872 0 0 0 -2.5893e-06 -1.04403e-05 8.6666e-06 -1.94635e-05 2.15556e-05 -7.35912e-06 0.00141819 -0.00105159 -0.000991337 0.011 594.917 -1.48135 0.999918 -1.65407e-06 
92 1 0.089438 0.0558508 0.0648097 0 0 0 4.34803e-05 -2.07647e-05 -6.50326e-05 -4.90945e-05 -5.21223e-05 3.42378e-05 0.0187447 -0.00486612 0.00613487 0.011 594.861 -1.45294 0.999912 -1.76719e-06 
54 1 0.0259865 0.075681 0.0637102 0 0 0 8.20911e-06 -3.43259e-06 -3.54795e-06 -2.04363e-05 8.71104e-06 2.31355e-06 -0.00051843 0.0009002 -0.00037691 0.011 595.155 -1.37265 0.999918 -1.65407e-06 
185 1 0.0534572 0.0751308 0.0613742 0 0 0 6.78905e-06 -1.92922e-05 -3.74529e-06 -1.26025e-05 1.22876e-05 5.36055e-07 -0.00170365 0.000241569 -0.00312983 0.011 594.85 -1.46534 0.999912 -1.76718e-06 
4 1 0.0399269 0.0897066 0.0543673 0 0 0 1.3168e-05 -1.6065e-06 -7.63186e-06 -1.32475e-05 3.0752e-06 4.50577e-06 0.000599141 0.000280769 0.000969467 0.011 594.922 -1.47681 0.999918 -1.65407e-06 
103 1 0.0884317 0.0163967 0.0675927 0 0 0 0.0121861 -4.90983e-05 0.00110543 -0.00192493 0.000308325 -2.20701e-05 -0.287738 -2.06263 3.34984 0.011 593.809 -1.73844 0.99989 -2.22329e-06 
52 1 0.014078 0.0209839 0.0728815 0 0 0 3.8452e-05 -1.39441e-06 3.14146e-06 -5.69118e-05 -6.21368e-06 -1.02055e-05 5.94352e-05 0.00264474 -0.00039273 0.011 594.781 -1.47052 0.99991 -1.81534e-06 
28 1 0.0400645 0.0320452 0.0674231 0 0 0 3.04182e-05 3.49181e-05 -4.52698e-06 -6.42063e-05 -3.34496e-05 -7.59366e-06 -0.00218534 0.00303804 0.00596452 0.011 594.736 -1.49096 0.99991 -1.81534e-06 
232 1 0.0333582 0.0175481 0.0819462 0 0 0 0.000107772 9.58607e-06 -1.68987e-05 -0.000114206 3.70681e-06 9.18877e-06 0.0021163 -0.00147005 0.0039539 0.011 594.748 -1.48104 0.99991 -1.81535e-06 
153 1 0.0266105 0.0487987 0.0697448 0 0 0 -7.49369e-06 -4.65517e-06 -4.97048e-06 -7.86204e-06 1.89167e-05 4.11124e-06 -1.95212e-05 0.000103514 -0.000557647 0.011 594.849 -1.43999 0.99991 -1.81534e-06 
140 1 0.0580446 0.0362355 0.0784968 0 0 0 2.03649e-05 -6.76173e-05 5.74203e-05 -5.80536e-05 3.14818e-05 -2.82043e-05 0.00515489 -0.00920274 -0.0158017 0.011 594.016 -1.63814 0.99989 -2.22345e-06 
189 1 0.0810399 0.0375947 0.0723369 0 0 0 3.50899e-05 5.16631e-05 -5.21078e-05 -1.99604e-05 -7.81831e-05 6.22819e-05 -0.028925 -0.0107006 -0.01002 0.011 593.922 -1.68418 0.99989 -2.22347e-06 
200 1 0.0104474 0.051329 0.0831928 0 0 0 3.59144e-06 2.78326e-06 -6.33903e-06 -1.38053e-05 -6.05838e-06 5.38244e-06 -0.00195185 0.00041986 0.00138858 0.011 595.142 -1.36922 0.999918 -1.65407e-06 
157 1 0.0560392 0.0559521 0.0707429 0 0 0 4.96577e-05 1.21275e-05 1.9122e-05 -8.24942e-05 -2.85737e-05 -1.53556e-05 -0.00383899 0.00392115 0.00943743 0.011 594.868 -1.45475 0.999912 -1.76718e-06 
14 1 0.0104601 0.0722665 0.0801951 0 0 0 3.14073e-07 -3.11151e-06 -9.85403e-06 -5.30177e-06 6.17044e-06 2.16782e-05 0.00118826 0.00105634 -0.000767815 0.011 595.185 -1.35093 0.999918 -1.65407e-06 
69 1 0.0401964 0.0684183 0.0785537 0 0 0 -2.92917e-06 -1.81076e-05 -8.30237e-06 -2.70594e-05 1.37256e-05 6.83721e-06 0.000506461 -0.0034567 -0.00177959 0.011 595.178 -1.35375 0.999918 -1.65407e-06 
85 1 0.0738096 0.0698979 0.0696568 0 0 0 3.96696e-06 -4.76276e-05 9.48435e-06 -7.19592e-05 -4.04895e-05 -4.18029e-05 -0.00138528 -0.00121389 -0.00525634 0.011 594.925 -1.4218 0.999912 -1.76718e-06 
209 1 0.0105736 0.0898516 0.0690399 0 0 0 2.58221e-06 5.41073e-07 -3.53265e-07 -6.27498e-06 -1.86117e-07 -7.68642e-07 1.45886e-05 -8.6471e-05 0.000160995 0.011 595.163 -1.36723 0.999918 -1.65407e-06 
127 1 0.0374782 0.0896609 0.0753388 0 0 0 9.48055e-06 -4.73412e-06 -6.45224e-06 -1.79727e-05 4.09858e-06 2.80975e-06 0.000182133 -0.000471485 0.000476156 0.011 595.16 -1.36458 0.999918 -1.65407e-06 
183 1 0.065324 0.0896839 0.0712199 0 0 0 2.02397e-05 -1.51343e-05 -8.34508e-06 -1.56032e-05 -2.71856e-06 7.69336e-06 0.000613957 -0.00143654 0.00191773 0.011 594.931 -1.41815 0.999912 -1.76718e-06 
194 1 0.0893171 0.0897646 0.0700226 0 0 0 -2.80281e-06 3.49058e-07 2.00952e-06 1.56071e-06 8.18496e-07 -3.6637e-06 -0.000190257 -0.000290202 -0.000286863 0.011 594.913 -1.43109 0.999912 -1.76718e-06 
187 1 0.0105542 0.0103441 0.0908406 0 0 0 2.08111e-05 1.94029e-06 4.8051e-07 -2.88492e-05 -3.70514e-06 -4.99083e-06 -0.000132663 -0.000644268 -0.00109931 0.011 594.817 -1.4463 0.99991 -1.81534e-06 
229 1 0.0868409 0.00985447 0.0875499 0 0 0 0.000594986 3.67072e-05 0.000179926 -0.000418194 -2.27811e-05 -9.00164e-05 0.0181179 -0.127453 -0.0569497 0.011 593.926 -1.67513 0.99989 -2.22342e-06 
58 1 0.0107817 0.0316266 0.0910428 0 0 0 3.2167e-05 2.32728e-06 1.00429e-05 -5.00567e-05 -7.07746e-06 -2.56465e-05 0.000400267 -0.00246267 0.000119692 0.011 594.842 -1.43513 0.99991 -1.81534e-06 
53 1 0.0528299 0.0187605 0.0909094 0 0 0 0.000196996 -0.000220601 -1.13359e-06 -0.000180209 0.000192359 2.88248e-06 -0.0115167 -0.000967102 -0.0331123 0.011 593.987 -1.64276 0.99989 -2.22346e-06 
167 1 0.0729641 0.0255417 0.0880434 0 0 0 0.000281385 -1.78151e-05 -0.000123729 -0.000223304 2.30898e-05 0.000104059 0.0260878 0.0146767 0.0522212 0.011 593.885 -1.68473 0.99989 -2.22348e-06 
49 1 0.0307645 0.0381406 0.0876059 0 0 0 5.72945e-05 1.22146e-06 -1.56077e-05 -9.55802e-05 7.94782e-06 1.49417e-05 -0.000460681 0.00695882 0.00138806 0.011 594.826 -1.44307 0.99991 -1.81535e-06 
39 1 0.0897517 0.0377434 0.0918747 0 0 0 -6.91272e-06 0.000132608 -2.24657e-05 -7.46188e-06 -0.000101287 2.78153e-05 0.0113689 0.000528302 -0.012337 0.011 594.018 -1.6308 0.99989 -2.22346e-06 
102 1 0.028414 0.0591567 0.0943165 0 0 0 1.45589e-05 -5.59859e-06 -1.93171e-05 -4.57528e-05 1.67491e-05 2.6504e-05 -0.00158135 0.0047202 0.00216497 0.011 595.177 -1.3546 0.999918 -1.65407e-06 
47 1 0.0478049 0.0509482 0.0901429 0 0 0 4.16081e-05 7.9789e-06 -1.02836e-06 -8.47212e-05 -1.27402e-05 -5.07018e-06 -0.000422826 -0.00761259 -0.000484048 0.011 595.069 -1.40456 0.999918 -1.65407e-06 
255 1 0.0724705 0.053301 0.08432 0 0 0 5.81028e-05 5.34555e-05 -6.9893e-05 -6.74069e-05 -6.19533e-05 4.53138e-05 0.0231897 0.00100313 0.00664937 0.011 594.844 -1.46046 0.999912 -1.76719e-06 
260 1 0.0897782 0.0584199 0.0958578 0 0 0 2.61608e-05 1.99925e-05 1.54858e-05 -2.80832e-05 -1.52133e-05 -2.2715e-05 -0.00210166 -0.00205847 0.00251107 0.011 594.872 -1.44565 0.999912 -1.76718e-06 
93 1 0.0702563 0.0726111 0.0941227 0 0 0 5.33402e-06 -7.04293e-06 1.77933e-05 -1.90541e-05 -7.00354e-07 -2.80078e-05 -0.00610626 -2.53617e-05 0.000118944 0.011 594.931 -1.41689 0.999912 -1.76718e-06 
133 1 0.0892942 0.0761732 0.0853094 0 0 0 9.5175e-07 -2.24029e-06 1.8201e-06 -6.46547e-06 -2.09839e-06 -1.16188e-05 0.000380297 0.000215524 0.00137149 0.011 594.928 -1.41959 0.999912 -1.76718e-06 
256 1 0.0207011 0.0893779 0.0883465 0 0 0 7.47238e-06 -7.33461e-06 -5.12404e-06 -1.36771e-05 1.37661e-05 4.6038e-06 0.000374059 0.000495804 0.000398109 0.011 595.189 -1.34853 0.999918 -1.65407e-06 
6 1 0.0531529 0.0837563 0.0878213 0 0 0 9.61825e-06 -7.13279e-06 -9.07388e-06 -1.96541e-05 5.41808e-06 -2.12225e-06 -0.00183049 0.00107649 -0.00180131 0.011 594.96 -1.40383 0.999912 -1.76718e-06 
246 1 0.0105983 0.0104833 0.11218 0 0 0 1.03626e-05 8.26812e-06 -4.97924e-06 -1.20445e-05 -6.02367e-06 4.29689e-08 9.5157e-05 2.05344e-05 0.000656069 0.011 594.909 -1.42475 0.999911 -1.7863e-06 
149 1 0.0295207 0.0106071 0.101696 0 0 0 4.91616e-05 -2.71792e-06 -2.24456e-05 -5.06326e-05 6.22322e-06 1.92235e-05 -0.0025828 -0.000533872 -0.00428705 0.011 594.819 -1.4459 0.99991 -1.81535e-06 
156 1 0.0493619 0.0107069 0.110756 0 0 0 9.0876e-06 -9.73606e-06 1.87301e-05 -2.65464e-05 1.26212e-05 -1.80853e-05 -0.000892289 -0.00548231 -0.00111512 0.011 594.89 -1.4346 0.999911 -1.7863e-06 
91 1 0.0702339 0.0100953 0.101847 0 0 0 0.000208243 -6.06082e-05 -0.000155143 -0.000170635 3.38441e-05 0.000119313 -0.0180113 -0.0500158 -0.0209303 0.011 594.029 -1.62485 0.99989 -2.22349e-06 
241 1 0.0900972 0.0104263 0.108621 0 0 0 -7.369e-05 -7.77458e-05 0.000141532 2.22118e-05 5.23259e-05 -8.84816e-05 -0.00320704 0.0245409 0.00738973 0.011 595.098 -1.40918 0.999919 -1.61784e-06 
139 1 0.0164453 0.031048 0.111084 0 0 0 2.06943e-06 3.13473e-06 8.78043e-06 -1.33539e-05 5.75761e-06 -2.29616e-05 0.000210349 -0.000463019 0.000149092 0.011 594.912 -1.42369 0.999911 -1.7863e-06 
249 1 0.0399663 0.0294894 0.104759 0 0 0 0.000108726 3.20264e-06 -3.29504e-05 -0.000134068 4.71081e-06 2.61043e-05 0.00311878 -0.0090946 0.00493357 0.011 594.784 -1.46112 0.99991 -1.81535e-06 
5 1 0.0298513 0.0496359 0.113929 0 0 0 8.53646e-06 -1.53255e-06 -1.75002e-05 -2.3164e-05 2.6747e-05 3.15697e-05 0.00245439 -0.00484729 8.36635e-05 0.011 594.955 -1.40278 0.999911 -1.7863e-06 
148 1 0.0510921 0.0484016 0.11152 0 0 0 1.35451e-05 -1.472e-06 -2.07898e-05 -2.69892e-05 5.50382e-06 2.24345e-06 0.00174662 0.00509497 -0.00126117 0.011 595.167 -1.37817 0.999919 -1.61785e-06 
122 1 0.0693583 0.0412461 0.102364 0 0 0 1.17454e-05 -9.90997e-05 -9.34194e-06 -1.34027e-05 7.279e-05 2.25696e-05 -0.015618 -0.00276984 -0.00417606 0.011 594.029 -1.62268 0.99989 -2.22346e-06 
254 1 0.0886878 0.0446668 0.111892 0 0 0 2.51158e-05 -1.16104e-05 1.91818e-05 -2.62469e-05 1.40643e-05 -1.38801e-05 0.0016328 -0.00112118 0.00390093 0.011 595.108 -1.40312 0.999919 -1.61785e-06 
251 1 0.0105112 0.0513847 0.10502 0 0 0 1.18936e-05 8.44543e-06 -2.63138e-05 -2.13061e-05 7.06377e-06 3.92316e-05 0.00179158 0.00244008 0.000839975 0.011 595.177 -1.35251 0.999918 -1.65407e-06 
23 1 0.0687603 0.0608119 0.111979 0 0 0 1.41027e-05 -6.31406e-06 -2.26457e-05 -2.5691e-05 1.08046e-05 1.06239e-05 0.00599952 0.000195775 0.0017237 0.011 594.925 -1.41682 0.999911 -1.78996e-06 
84 1 0.0135717 0.0732806 0.100604 0 0 0 8.50273e-06 -1.06531e-05 -5.94909e-06 -2.55595e-05 2.46658e-05 1.15939e-05 -0.000570223 -0.000643043 7.9368e-05 0.011 595.095 -1.38927 0.999918 -1.65407e-06 
219 1 0.0316307 0.0712553 0.112523 0 0 0 6.08507e-06 9.93521e-07 1.02128e-06 -1.46213e-05 7.40058e-06 -7.86538e-06 -0.000862763 -0.00027095 0.000289827 0.011 594.664 -1.47 0.999903 -1.93744e-06 
59 1 0.0506531 0.0683152 0.102675 0 0 0 3.83181e-06 7.16091e-06 7.76835e-06 -1.99861e-05 -7.38393e-07 -2.09354e-05 0.000616333 -0.000158305 0.000131011 0.011 594.938 -1.41405 0.999912 -1.76718e-06 
158 1 0.0876349 0.071154 0.112628 0 0 0 -2.79384e-06 6.01069e-06 4.28582e-06 -6.79046e-06 -3.15469e-06 -1.42831e-05 0.00137046 0.000444102 0.000222849 0.011 594.92 -1.41947 0.999911 -1.78996e-06 
176 1 0.0106114 0.0894531 0.114739 0 0 0 2.49046e-06 -2.09915e-06 -4.68594e-06 -9.99272e-07 5.06842e-06 6.66543e-06 0.000309964 0.000354122 4.01959e-05 0.011 594.604 -1.49997 0.999903 -1.93744e-06 
128 1 0.0375955 0.0892799 0.102109 0 0 0 7.84199e-06 1.51312e-06 -4.32464e-06 -1.69744e-05 1.44332e-06 -2.82105e-06 0.000388771 -0.000786486 0.000900013 0.011 595.157 -1.36218 0.999918 -1.65407e-06 
37 1 0.0633725 0.0898713 0.105256 0 0 0 5.25396e-06 -3.26606e-06 -1.14774e-05 -5.87335e-06 4.75792e-06 -2.95508e-06 0.00163028 -0.00126132 0.000576832 0.011 594.919 -1.42189 0.999912 -1.76718e-06 
211 1 0.0861895 0.0895474 0.101445 0 0 0 -3.42989e-06 -8.25987e-08 4.71535e-06 -6.72859e-06 -7.71635e-07 -8.53458e-06 -0.000561547 0.000150923 -0.000378178 0.011 594.932 -1.41628 0.999912 -1.76718e-06 
250 1 0.0102782 0.0141813 0.133064 0 0 0 -3.89407e-07 -1.02531e-07 -1.90011e-06 -1.13617e-06 -3.12354e-06 -9.25366e-07 0.00126832 -0.000369906 0.000344247 0.011 594.923 -1.41765 0.999911 -1.7863e-06 
87 1 0.0293522 0.0106176 0.123274 0 0 0 6.65683e-06 8.36539e-06 -4.18963e-06 -1.21736e-05 -7.20793e-06 -1.87878e-06 0.000492842 -0.0013655 -0.000365547 0.011 594.918 -1.4202 0.999911 -1.7863e-06 
48 1 0.0483697 0.0154428 0.131909 0 0 0 -1.21485e-05 -4.38297e-06 2.18021e-05 2.92049e-08 7.65802e-06 -2.42288e-05 -0.000776661 -0.00193007 -0.00146091 0.011 594.96 -1.40172 0.999911 -1.7863e-06 
215 1 0.0672482 0.0102581 0.12315 0 0 0 -3.9797e-05 1.48339e-05 -4.19424e-05 1.61259e-05 -5.62193e-06 2.74984e-05 0.00370788 0.0116413 0.00213311 0.011 595.184 -1.369 0.999919 -1.61785e-06 
242 1 0.0894653 0.0110428 0.1296 0 0 0 6.25897e-05 -1.69096e-05 6.15694e-05 -4.12318e-05 2.07189e-05 -4.22112e-05 -0.00304379 -0.003807 0.00173839 0.011 595.285 -1.32421 0.999919 -1.61784e-06 
175 1 0.0589635 0.0291889 0.117544 0 0 0 -1.86537e-05 5.60825e-06 -1.76946e-05 -1.16241e-06 2.80563e-06 1.56967e-06 -0.00418859 0.00177174 -0.00150408 0.011 595.243 -1.34401 0.999919 -1.61785e-06 
72 1 0.0799084 0.0263664 0.116909 0 0 0 -1.19368e-05 -2.85231e-05 4.52881e-05 -3.34673e-06 2.72027e-05 -2.82313e-05 -0.0075477 -0.00981291 -0.00484381 0.011 595.266 -1.33703 0.999919 -1.61784e-06 
82 1 0.0108148 0.0371685 0.130156 0 0 0 -1.5761e-06 7.31712e-07 2.46441e-06 -2.3537e-06 -2.09688e-06 -7.15877e-06 -7.99507e-05 6.486e-07 -4.97073e-05 0.011 594.897 -1.42996 0.999911 -1.7863e-06 
227 1 0.040191 0.034546 0.125453 0 0 0 -9.06396e-06 -1.57113e-06 -1.07809e-05 -5.27162e-06 7.42908e-06 4.46119e-06 -0.00102847 0.000307154 0.00237668 0.011 594.939 -1.41171 0.999911 -1.7863e-06 
67 1 0.0717979 0.0446654 0.125603 0 0 0 -4.113e-06 -6.71893e-06 -3.31445e-05 -8.93699e-06 1.20948e-05 2.0655e-05 -0.00202495 -0.00347922 -0.00102897 0.011 595.264 -1.33347 0.999919 -1.61785e-06 
24 1 0.089571 0.0350321 0.13329 0 0 0 -1.90269e-05 2.50017e-06 1.51646e-05 7.43998e-06 4.25463e-06 -1.36428e-05 -0.000693001 0.00232788 -0.000924285 0.011 595.292 -1.31878 0.999919 -1.61785e-06 
151 1 0.0511765 0.0661474 0.124509 0 0 0 4.66379e-06 -7.0561e-06 5.1585e-06 -5.57493e-05 1.81858e-05 -1.955e-05 0.000475512 -0.00055521 0.0058814 0.011 594.919 -1.41942 0.999911 -1.78996e-06 
205 1 0.0897512 0.0571854 0.128851 0 0 0 -1.46846e-06 -6.45648e-07 8.59554e-06 -3.89104e-06 4.40271e-06 -1.29975e-05 -0.00195318 0.000489224 -4.01651e-05 0.011 594.955 -1.40371 0.999911 -1.78996e-06 
66 1 0.0105907 0.0685175 0.120378 0 0 0 1.16441e-06 -1.07659e-06 -2.3047e-06 -5.4917e-06 3.13427e-06 7.02309e-08 -0.000414423 1.97902e-05 -8.93144e-05 0.011 594.631 -1.4876 0.999903 -1.93744e-06 
154 1 0.0700189 0.0798268 0.122025 0 0 0 -3.94414e-06 -5.90774e-06 4.6239e-07 -2.42376e-06 9.22806e-06 -1.03755e-05 -0.00177767 -0.000487244 0.000407526 0.011 594.922 -1.41791 0.999911 -1.78996e-06 
113 1 0.0279081 0.089259 0.127595 0 0 0 3.30595e-06 6.45822e-07 8.88987e-07 1.76644e-07 2.59499e-06 4.17141e-06 -0.000240953 -0.00078222 0.000306886 0.011 594.576 -1.51318 0.999903 -1.93744e-06 
57 1 0.0486658 0.0879568 0.121139 0 0 0 4.40812e-06 -8.44422e-06 -7.6433e-06 8.87619e-06 -5.41241e-06 1.98648e-06 -0.000856472 0.00158597 -0.000810373 0.011 594.603 -1.49997 0.999903 -1.93744e-06 
226 1 0.0894242 0.0898459 0.122583 0 0 0 -2.40612e-06 1.65819e-06 4.01086e-06 5.68013e-07 -1.28754e-06 -8.14528e-06 -0.000335284 -0.000120064 -0.000152086 0.011 594.92 -1.41875 0.999911 -1.78996e-06 
115 1 0.0349097 0.00967729 0.147787 0 0 0 -7.99786e-06 1.08601e-06 7.45958e-06 4.44529e-06 -9.46834e-08 -6.30584e-06 0.000565364 0.0010414 0.000653529 0.011 594.932 -1.4115 0.999911 -1.7863e-06 
137 1 0.08073 0.0101884 0.148471 0 0 0 7.69856e-06 8.43524e-07 1.43334e-05 -9.39969e-06 1.13677e-06 -1.36414e-05 0.000590451 -0.0017674 -0.000639723 0.011 595.278 -1.32535 0.999919 -1.61785e-06 
134 1 0.026302 0.0262739 0.139305 0 0 0 -5.39488e-06 -8.97662e-07 5.09436e-06 -4.51647e-07 -1.04564e-06 -4.52762e-06 -0.000942077 -8.39264e-05 -0.000599398 0.011 594.925 -1.41681 0.999911 -1.7863e-06 
129 1 0.0507486 0.0308357 0.146556 0 0 0 -4.95173e-06 -4.21114e-06 -2.76883e-06 -4.22033e-06 7.82434e-06 -5.23698e-06 -0.00117776 0.00102414 -0.000720161 0.011 595.234 -1.34364 0.999919 -1.61785e-06 
75 1 0.0700297 0.0264402 0.137485 0 0 0 -3.38517e-06 -6.86272e-06 -5.57366e-06 -7.88779e-06 1.39404e-05 -2.69704e-06 0.00115813 -0.00105242 0.00192062 0.011 595.292 -1.31858 0.999919 -1.61785e-06 
198 1 0.0289123 0.0475846 0.137646 0 0 0 -5.63711e-06 -2.47982e-06 -6.87143e-06 3.25633e-06 3.48098e-06 6.08536e-06 -0.000306253 0.00125145 -0.000345691 0.011 594.872 -1.43941 0.999911 -1.7863e-06 
244 1 0.0620009 0.0485665 0.14429 0 0 0 -3.85213e-06 -5.49335e-06 -1.83684e-05 -7.47744e-06 8.82197e-06 6.11227e-06 0.00212869 0.00269146 -0.000310739 0.011 595.239 -1.34339 0.999919 -1.61785e-06 
135 1 0.0847491 0.0491533 0.148406 0 0 0 -1.46717e-06 4.38342e-06 1.26812e-05 8.94336e-06 3.82203e-06 -1.14433e-05 0.000414084 -0.000705794 2.28746e-05 0.011 595.251 -1.33757 0.999919 -1.61785e-06 
71 1 0.00991287 0.0567029 0.137456 0 0 0 -7.97423e-07 1.00854e-06 6.74341e-07 1.15039e-06 5.65896e-07 -5.5372e-06 -8.51984e-06 -6.24625e-05 -5.70146e-05 0.011 594.634 -1.48455 0.999903 -1.93744e-06 
10 1 0.0453629 0.0626078 0.145417 0 0 0 4.6915e-07 -2.09892e-06 3.88594e-06 -4.70647e-06 2.20007e-06 -5.49524e-06 -0.00143795 -0.000291923 -0.000278827 0.011 594.636 -1.48363 0.999903 -1.93744e-06 
17 1 0.0720908 0.0654356 0.136839 0 0 0 -5.01087e-06 4.04318e-06 1.76822e-06 -4.36304e-06 2.67007e-06 -1.08214e-05 0.000793285 -0.00038404 -1.34882e-05 0.011 594.945 -1.40775 0.999911 -1.78996e-06 
29 1 0.0105465 0.0805232 0.137848 0 0 0 1.12041e-06 9.06963e-07 -1.78791e-06 -1.08577e-06 -1.00563e-06 -1.61837e-07 0.00011158 2.82749e-05 7.70631e-05 0.011 594.581 -1.5096 0.999903 -1.93744e-06 
132 1 0.028052 0.0685317 0.133568 0 0 0 1.06391e-06 -2.14107e-07 -2.10709e-06 1.72755e-06 4.30959e-06 9.56456e-07 0.000628283 -0.000156093 -0.00029843 0.011 594.601 -1.50039 0.999903 -1.93744e-06 
170 1 0.0351469 0.0822766 0.148399 0 0 0 6.31357e-06 -4.64395e-06 -1.10247e-06 1.32405e-05 1.036e-05 -1.14668e-05 -4.27796e-05 0.000997393 0.000465523 0.011 594.581 -1.51088 0.999903 -1.93744e-06 
173 1 0.0556911 0.0812713 0.14068 0 0 0 7.53359e-06 -3.14844e-06 -4.26403e-06 1.10309e-05 -2.42706e-05 -8.85231e-06 -9.36626e-05 -0.00103318 2.01975e-05 0.011 594.888 -1.43509 0.999911 -1.78996e-06 
50 1 0.079964 0.0848753 0.140416 0 0 0 -3.49405e-06 3.1084e-06 3.63831e-06 8.16199e-08 9.93025e-07 -9.59958e-06 0.00023806 0.000304364 -0.000169977 0.011 594.918 -1.41985 0.999911 -1.78996e-06 
252 1 0.0113794 0.0114782 0.154228 0 0 0 -0.000343222 -0.000164188 -3.37959e-06 -3.13468e-06 -1.64767e-06 5.52873e-08 -0.0188127 0.0488353 -0.626704 0.011 594.953 -1.40234 0.999911 -1.7863e-06 
101 1 0.0483182 0.0164208 0.161939 0 0 0 -2.77626e-06 2.58646e-06 1.43991e-06 3.07187e-06 -1.01034e-06 -8.1454e-06 0.000192233 -6.05739e-05 7.46134e-05 0.011 595.024 -1.37284 0.999911 -1.7863e-06 
171 1 0.0681592 0.0101685 0.164894 0 0 0 -2.80471e-06 2.8151e-06 2.11548e-06 2.32174e-06 -1.96895e-06 -5.32003e-06 -0.000163155 -0.000137673 -1.38468e-05 0.011 595.221 -1.34838 0.999919 -1.61785e-06 
248 1 0.0894613 0.0287929 0.153385 0 0 0 2.53093e-06 5.85713e-07 1.10916e-05 -4.61233e-06 3.88849e-06 -1.28235e-05 -0.000176236 0.000321888 0.00056325 0.011 595.273 -1.3271 0.999919 -1.61785e-06 
136 1 0.0107574 0.0375703 0.151743 0 0 0 -5.92632e-07 2.35728e-06 -3.74206e-07 3.32118e-06 -1.86446e-05 -4.40255e-06 -2.36069e-05 9.15787e-05 0.000226461 0.011 594.947 -1.40605 0.999911 -1.7863e-06 