ITEM: TIMESTEP
260000
ITEM: NUMBER OF ATOMS
1005
ITEM: BOX BOUNDS mm mm mm
0 0.1
0 0.1
0 1.1
ITEM: ATOMS id type x y z ix iy iz vx vy vz fx fy fz omegax omegay omegaz radius f_Temp[0] f_heatFlux[0] f_speciesC[0] f_speciesCFlux[0] 
152 1 0.0254473 0.0104913 0.0102224 0 0 0 -5.63289e-08 -1.64003e-07 -4.80504e-07 -3.21651e-08 -1.16239e-07 -2.72224e-07 5.16175e-05 5.72833e-05 -8.21699e-05 0.011 591.857 -2.27689 0.999764 -3.01948e-06 
97 1 0.0100959 0.0228963 0.0166305 0 0 0 2.0882e-07 -2.1127e-08 2.81075e-07 6.83331e-08 -7.56185e-08 1.26822e-07 4.42387e-05 -3.4311e-05 1.1899e-05 0.011 591.894 -2.24999 0.999764 -3.01947e-06 
231 1 0.0360309 0.0295068 0.0103013 0 0 0 3.32724e-06 4.38518e-07 2.07769e-07 1.77231e-06 3.07027e-07 1.42788e-07 -2.53659e-05 0.000288698 -0.000104774 0.011 591.867 -2.26987 0.999764 -3.01947e-06 
89 1 0.0620427 0.0171542 0.0104252 0 0 0 -2.71562e-06 2.3062e-06 2.55727e-06 -1.6055e-06 1.64469e-06 1.54062e-06 -0.000286662 -0.000230821 1.71214e-05 0.011 590.721 -2.57115 0.999724 -3.53294e-06 
216 1 0.0812385 0.0269583 0.00999431 0 0 0 -3.71484e-06 4.69538e-06 4.34104e-06 -2.38663e-06 3.07925e-06 2.61514e-06 -0.000337435 -0.000456363 0.000575947 0.011 590.663 -2.59615 0.999724 -3.53294e-06 
155 1 0.0150045 0.0423282 0.0103379 0 0 0 -2.42209e-07 1.85014e-07 2.88086e-07 -3.19116e-07 7.98758e-08 2.8537e-07 -2.35464e-05 -2.00496e-05 5.42372e-05 0.011 591.9 -2.25314 0.999764 -3.01947e-06 
79 1 0.0644541 0.0460882 0.0105447 0 0 0 -6.03721e-06 6.34032e-07 -4.96268e-07 -3.63017e-06 1.04493e-06 -1.22912e-08 -0.00033311 -0.000274806 0.00101308 0.011 590.921 -2.46652 0.999724 -3.53294e-06 
180 1 0.0339235 0.0582287 0.0104705 0 0 0 -1.10263e-06 -2.69552e-07 2.46553e-07 -1.15882e-06 -1.00126e-07 9.23439e-08 1.70136e-05 -0.000107779 -1.79658e-05 0.011 592.336 -2.13587 0.999779 -2.82463e-06 
33 1 0.0814218 0.0599295 0.0102589 0 0 0 -1.13342e-05 -1.40409e-05 7.65904e-06 -6.36799e-06 -7.77529e-06 4.22963e-06 0.00110613 -0.00122841 -0.00211099 0.011 592.86 -2.00958 0.999798 -2.5757e-06 
2 1 0.0105507 0.0718176 0.00973639 0 0 0 -3.49211e-07 1.44666e-07 1.5466e-07 -2.6046e-07 5.707e-08 8.91459e-08 -2.80884e-05 -3.20854e-05 -1.16733e-05 0.011 592.34 -2.13292 0.999779 -2.82463e-06 
30 1 0.0423265 0.0807625 0.0100002 0 0 0 -6.38776e-07 -1.88522e-07 1.01126e-07 -5.11384e-07 -1.11525e-07 9.1263e-08 2.49255e-05 -7.05545e-05 6.55308e-05 0.011 592.373 -2.1181 0.999779 -2.82464e-06 
253 1 0.0601206 0.0675848 0.0106241 0 0 0 -2.54276e-06 5.53557e-07 1.16985e-06 -1.43832e-06 1.06896e-06 4.39616e-07 -4.81145e-05 -9.41543e-05 -0.000803873 0.011 592.872 -2.00388 0.999798 -2.57571e-06 
25 1 0.0890665 0.0801605 0.00996589 0 0 0 2.04968e-06 -7.86614e-06 5.04729e-06 1.15414e-06 -4.29573e-06 2.81191e-06 3.434e-05 0.000415957 0.00095353 0.011 592.936 -1.96817 0.999798 -2.5757e-06 
233 1 0.0222917 0.0895166 0.0118686 0 0 0 -2.49363e-07 -5.84466e-08 -6.60202e-08 -1.64028e-07 -4.80096e-08 -1.01591e-08 5.36354e-06 3.40274e-05 -2.75415e-05 0.011 592.327 -2.14231 0.999779 -2.82464e-06 
192 1 0.0689578 0.089003 0.0109509 0 0 0 -1.78302e-06 -4.00403e-06 1.21729e-06 -1.03656e-06 -1.85845e-06 5.00477e-07 0.000206888 -0.000262031 -0.00064304 0.011 592.926 -1.97612 0.999798 -2.57571e-06 
166 1 0.0440615 0.0107335 0.020281 0 0 0 -3.32401e-06 -4.02344e-07 -3.46477e-07 -1.87989e-06 -1.04006e-07 -1.17737e-07 0.000165677 -0.000351294 0.000292923 0.011 591.729 -2.33716 0.999764 -3.01947e-06 
203 1 0.0627322 0.0103224 0.0310006 0 0 0 -5.19821e-06 2.50977e-06 3.91474e-06 -2.76595e-06 1.79146e-06 2.3233e-06 0.000243731 -0.000102502 0.000307737 0.011 590.753 -2.54728 0.999724 -3.53294e-06 
234 1 0.0888476 0.0102834 0.0207304 0 0 0 -4.18341e-06 -1.52375e-06 5.10567e-06 -2.5759e-06 -5.5932e-07 3.10649e-06 0.00109404 -0.00150449 0.000464733 0.011 590.656 -2.60264 0.999724 -3.53294e-06 
22 1 0.067454 0.0308906 0.0259826 0 0 0 1.17197e-06 2.28786e-06 5.06383e-06 4.21019e-07 1.84458e-06 3.0918e-06 0.000405699 0.00065976 -0.000576722 0.011 590.769 -2.53654 0.999724 -3.53294e-06 
104 1 0.0246183 0.0349097 0.0292671 0 0 0 -1.88341e-06 -4.00545e-07 -4.77658e-07 -1.4917e-06 -8.22265e-08 -4.15364e-07 9.2745e-05 0.000245356 1.99239e-05 0.011 591.917 -2.23675 0.999764 -3.01948e-06 
35 1 0.0463013 0.0343851 0.0280716 0 0 0 -2.16268e-07 2.78331e-06 3.58579e-06 -5.06614e-07 1.79753e-06 2.24114e-06 9.92918e-05 -0.000720307 0.000425044 0.011 591.924 -2.23708 0.999764 -3.01947e-06 
147 1 0.0896072 0.0357717 0.0270663 0 0 0 2.26088e-06 -8.95602e-06 1.66192e-05 1.19843e-06 -4.64385e-06 9.58418e-06 0.00298798 0.00187864 0.000302243 0.011 590.861 -2.49437 0.999724 -3.53293e-06 
8 1 0.0158782 0.0580095 0.0245508 0 0 0 -1.16368e-06 1.02003e-07 4.38965e-07 -1.25531e-06 1.69944e-07 4.00832e-07 2.05645e-05 -1.68663e-05 2.44416e-05 0.011 592.279 -2.15997 0.999779 -2.82463e-06 
63 1 0.0362762 0.0531947 0.0311916 0 0 0 -3.70388e-06 2.9673e-07 9.63583e-07 -2.62543e-06 3.72784e-07 4.4882e-07 -5.04387e-05 -0.000110408 -6.69684e-05 0.011 592.471 -2.07534 0.999779 -2.82463e-06 
99 1 0.0576247 0.0557 0.0284729 0 0 0 -6.62161e-06 -6.2972e-06 6.36354e-07 -4.27608e-06 -2.49504e-06 4.00517e-07 0.000909209 0.000327781 -0.000599798 0.011 592.885 -1.99846 0.999798 -2.57571e-06 
224 1 0.0872024 0.0564811 0.0302824 0 0 0 -3.85479e-06 -1.59083e-05 2.11763e-05 -2.24753e-06 -8.48836e-06 1.18357e-05 -0.00222876 0.00257795 0.00160343 0.011 592.812 -2.02428 0.999798 -2.5757e-06 
126 1 0.0103594 0.0787913 0.0293284 0 0 0 -2.16641e-07 2.20236e-07 2.1379e-07 -2.5717e-07 2.36525e-07 1.14166e-07 4.50905e-05 2.19555e-05 9.29927e-06 0.011 592.574 -2.02309 0.999779 -2.82463e-06 
163 1 0.0308226 0.0731115 0.0256597 0 0 0 -1.12383e-06 -1.22488e-07 -1.33371e-07 -9.47798e-07 -2.80635e-08 -3.77399e-08 -5.58576e-05 1.33473e-05 -6.6582e-05 0.011 592.379 -2.10557 0.999779 -2.82464e-06 
12 1 0.0745032 0.0734468 0.0257525 0 0 0 -5.45843e-06 -1.08379e-05 7.49299e-06 -3.08934e-06 -5.63354e-06 3.87107e-06 -0.000358971 -0.00101321 -0.00146604 0.011 592.933 -1.97057 0.999798 -2.5757e-06 
257 1 0.0531554 0.0892639 0.0262309 0 0 0 -7.96861e-07 -7.05854e-07 6.97889e-07 -3.5335e-07 -2.53562e-07 1.77616e-07 1.48876e-05 2.65883e-05 -0.000130434 0.011 592.894 -1.98907 0.999798 -2.57571e-06 
243 1 0.0892873 0.0891934 0.0286302 0 0 0 5.25263e-07 -5.18066e-06 3.0466e-06 3.27588e-07 -2.81415e-06 1.72782e-06 -0.000424996 0.000130007 0.000459038 0.011 593.099 -1.89094 0.999798 -2.5757e-06 
223 1 0.0367021 0.0106941 0.0405246 0 0 0 -9.19387e-06 -3.47537e-06 -5.08429e-06 -4.6667e-06 -1.84737e-06 -2.46085e-06 -0.000438205 6.71105e-05 0.00078351 0.011 591.977 -2.21014 0.999764 -3.01948e-06 
70 1 0.0104579 0.0206621 0.0372907 0 0 0 -1.12657e-06 -6.30616e-07 4.16139e-07 -7.15464e-07 -4.96279e-07 8.99691e-08 -1.2309e-05 -8.68897e-05 -2.49234e-05 0.011 592.283 -2.06867 0.999764 -3.01947e-06 
45 1 0.0533552 0.023489 0.0450339 0 0 0 -2.03804e-05 -2.90117e-06 6.73696e-06 -1.15934e-05 -1.1642e-06 4.03323e-06 0.00081353 -0.00185626 -0.000116662 0.011 591.268 -2.31143 0.999724 -3.53294e-06 
108 1 0.080925 0.019447 0.0384424 0 0 0 -2.32045e-06 -9.09051e-06 -3.12989e-06 -1.30438e-06 -4.55569e-06 -1.29293e-06 -0.000701732 0.000634799 -0.00194276 0.011 590.915 -2.47774 0.999724 -3.53294e-06 
96 1 0.0118132 0.0470101 0.0420242 0 0 0 -1.08012e-06 -7.70995e-07 5.75607e-07 -9.89621e-07 -3.64029e-07 5.99432e-07 1.67024e-05 -5.70292e-05 8.59812e-05 0.011 592.167 -2.11958 0.999764 -3.01947e-06 
9 1 0.0408259 0.0409406 0.0478633 0 0 0 -8.48919e-06 9.44097e-07 2.2429e-06 -5.61855e-06 1.03907e-06 1.25269e-06 3.85691e-05 -8.40137e-05 -0.000484902 0.011 594.331 -1.67927 0.999858 -1.81057e-06 
80 1 0.0755095 0.0427637 0.0417106 0 0 0 -1.09974e-05 -2.49526e-05 3.56193e-05 -6.38985e-06 -1.3369e-05 2.02952e-05 0.00122869 -0.00468754 -0.00207491 0.011 591.393 -2.26168 0.999724 -3.53293e-06 
146 1 0.0234896 0.0652285 0.0441924 0 0 0 -1.32509e-06 5.37052e-07 8.55311e-07 -1.18571e-06 5.91519e-07 5.10338e-07 -3.27708e-05 3.11869e-05 -3.73069e-05 0.011 592.701 -1.95946 0.999779 -2.82463e-06 
182 1 0.0584047 0.0528267 0.0495924 0 0 0 -5.04392e-06 -8.25701e-06 2.55879e-06 -3.51609e-06 -4.09158e-06 1.66339e-06 -0.000999025 0.000105644 -0.000700045 0.011 594.482 -1.63425 0.999862 -1.76014e-06 
240 1 0.0106826 0.0818064 0.0498459 0 0 0 4.23111e-07 1.04074e-07 2.9363e-07 3.19993e-09 1.71947e-07 1.33897e-07 -2.75713e-05 -3.60043e-06 -5.38688e-05 0.011 594.721 -1.56674 0.99987 -1.64933e-06 
204 1 0.0466083 0.0738939 0.0406829 0 0 0 -1.0219e-06 -5.65062e-06 6.36677e-07 -7.93126e-07 -2.86513e-06 6.12491e-07 -0.000427843 -7.00745e-05 -0.00113169 0.011 592.485 -2.05881 0.999779 -2.82463e-06 
78 1 0.069224 0.0709014 0.0483674 0 0 0 1.14194e-06 -8.48398e-06 -2.3447e-06 -3.74408e-08 -4.24924e-06 -1.56322e-06 0.00081873 -8.98765e-05 0.000389574 0.011 594.751 -1.51098 0.999862 -1.76014e-06 
212 1 0.0899714 0.0687316 0.0468707 0 0 0 2.27306e-06 5.27639e-07 7.49078e-07 9.44921e-07 5.97158e-07 1.98983e-07 0.000194705 -0.000162921 0.000180356 0.011 594.708 -1.53617 0.999862 -1.76014e-06 
32 1 0.0268324 0.0897765 0.0377095 0 0 0 7.26251e-07 -2.77377e-07 -2.5717e-07 2.5224e-07 -1.09578e-07 -4.27107e-08 7.03162e-05 0.00019191 -2.45443e-06 0.011 592.656 -1.98057 0.999779 -2.82464e-06 
34 1 0.0702599 0.0898176 0.0390865 0 0 0 -4.74735e-07 -2.56528e-06 2.05117e-06 -3.67305e-07 -1.20687e-06 8.52405e-07 -0.000212247 -9.38932e-05 -0.000113654 0.011 593.169 -1.85907 0.999798 -2.5757e-06 
217 1 0.0892414 0.0898426 0.0494493 0 0 0 2.70616e-07 -9.62826e-08 1.4603e-06 8.41113e-08 2.64533e-08 8.74197e-07 -0.000107539 1.55431e-05 4.08818e-05 0.011 594.661 -1.54826 0.999862 -1.76014e-06 
258 1 0.0129912 0.0100021 0.0550996 0 0 0 -5.16756e-07 -6.24769e-07 5.87602e-07 7.43136e-08 -5.25223e-07 1.40069e-07 3.22646e-05 0.000136641 1.65073e-05 0.011 594.556 -1.57449 0.999858 -1.81057e-06 
164 1 0.0340164 0.0103393 0.0619145 0 0 0 2.04749e-06 1.13439e-06 -2.60277e-06 8.77762e-07 7.12765e-07 -1.27844e-06 -0.00016163 0.000902677 -0.00022191 0.011 594.62 -1.54935 0.999858 -1.81057e-06 
15 1 0.0686513 0.0109553 0.0545415 0 0 0 -1.08845e-05 -4.4162e-07 5.57329e-06 -6.68325e-06 3.71025e-07 3.63116e-06 0.000515563 0.000349493 0.00107986 0.011 593.693 -1.79413 0.999826 -2.21797e-06 
64 1 0.0256341 0.0267072 0.051106 0 0 0 -4.40761e-06 1.03462e-06 7.33382e-07 -2.6847e-06 6.68296e-07 6.44564e-08 0.000116425 7.07941e-05 0.000412409 0.011 594.582 -1.56956 0.999858 -1.81057e-06 
191 1 0.0895719 0.0319056 0.0533616 0 0 0 7.38533e-06 -5.32219e-05 1.16246e-05 4.06515e-06 -2.93387e-05 6.91423e-06 0.0104281 0.00649807 0.00922428 0.011 593.426 -1.91187 0.999826 -2.21797e-06 
199 1 0.0102995 0.0380895 0.0609952 0 0 0 -1.18304e-06 -9.02547e-07 8.05437e-07 -7.63294e-07 -8.50582e-07 5.21662e-07 -5.88099e-05 4.44342e-05 -9.09389e-05 0.011 594.572 -1.56596 0.999858 -1.81057e-06 
123 1 0.0652396 0.0343441 0.0585715 0 0 0 -1.38451e-05 -2.55992e-05 1.16163e-05 -8.04519e-06 -1.36768e-05 6.84199e-06 0.00101182 0.00300341 -0.00165615 0.011 593.511 -1.86369 0.999826 -2.21797e-06 
43 1 0.0106013 0.06049 0.061154 0 0 0 -5.85339e-07 -1.38799e-07 1.77892e-07 -6.92747e-07 -1.35617e-07 -1.08295e-07 0.000272461 -6.79663e-06 -2.96685e-05 0.011 595.068 -1.40682 0.99987 -1.64933e-06 
161 1 0.0394507 0.0598861 0.0574857 0 0 0 -2.09868e-06 -7.55553e-07 2.52859e-06 -1.83229e-06 -3.89668e-08 1.58828e-06 0.000230628 -0.00011506 -1.80387e-05 0.011 594.913 -1.48237 0.99987 -1.64933e-06 
92 1 0.0894349 0.055865 0.0648166 0 0 0 2.30273e-06 -4.29231e-05 -1.35074e-05 1.02864e-06 -2.4768e-05 -8.16535e-06 0.00542413 -0.0010543 0.0051609 0.011 594.857 -1.45411 0.999862 -1.76014e-06 
54 1 0.0259858 0.0756816 0.06371 0 0 0 1.25828e-06 -6.88158e-07 1.24421e-07 1.26622e-07 -2.68625e-07 5.26585e-07 -0.000187746 0.000134042 -0.000187056 0.011 595.151 -1.37384 0.99987 -1.64933e-06 
185 1 0.0534557 0.0751336 0.0613743 0 0 0 4.62928e-06 -4.98969e-06 -1.20392e-06 1.9552e-06 -2.66191e-06 -2.12634e-07 -0.000402327 0.000454451 -0.00113893 0.011 594.846 -1.46653 0.999862 -1.76014e-06 
4 1 0.039925 0.0897068 0.0543679 0 0 0 4.15668e-06 -9.07981e-08 -1.32893e-06 1.8564e-06 -7.2671e-08 -4.42518e-07 8.42132e-05 -5.62584e-06 0.000391142 0.011 594.918 -1.47786 0.99987 -1.64933e-06 
52 1 0.0140751 0.0209844 0.0728813 0 0 0 2.96793e-06 -6.10178e-07 8.76954e-07 1.11355e-06 -6.71132e-07 2.56381e-07 -4.11649e-06 0.00029805 5.68319e-05 0.011 594.776 -1.47169 0.999858 -1.81057e-06 
28 1 0.0400629 0.032043 0.0674232 0 0 0 3.8804e-07 1.95986e-06 8.42984e-07 -1.26334e-06 1.01263e-06 1.89233e-07 1.75381e-05 0.000661624 0.000287767 0.011 594.731 -1.49212 0.999858 -1.81057e-06 
232 1 0.0333495 0.0175473 0.0819477 0 0 0 1.02931e-05 9.17519e-07 -1.92819e-06 4.56441e-06 1.1776e-06 -8.91609e-07 0.000177803 -8.34111e-06 0.000332412 0.011 594.744 -1.48228 0.999858 -1.81057e-06 
103 1 0.0863311 0.016747 0.0676188 0 0 0 0.00366202 -0.0012839 -0.000478595 0.00201097 -0.000671265 -0.000240823 -0.0995144 -0.708298 1.11351 0.011 593.805 -1.73942 0.999826 -2.21806e-06 
153 1 0.0266114 0.0487993 0.0697446 0 0 0 -1.86199e-06 -5.87912e-07 5.85244e-07 -1.48646e-06 1.40198e-07 6.06954e-07 -0.000214694 -0.000145517 3.89449e-05 0.011 594.844 -1.4412 0.999858 -1.81057e-06 
140 1 0.058043 0.0362439 0.07849 0 0 0 -6.40673e-07 -1.16064e-05 1.33484e-05 -2.09227e-06 -6.90756e-06 7.71508e-06 -0.000592675 -0.00178439 -0.00201128 0.011 594.013 -1.63879 0.999826 -2.21797e-06 
189 1 0.0810333 0.0376031 0.0723375 0 0 0 1.10563e-05 -3.62495e-05 2.08417e-06 5.79192e-06 -2.01587e-05 1.66565e-06 -0.00922062 -0.00282767 -0.0049232 0.011 593.919 -1.68507 0.999826 -2.21797e-06 
200 1 0.0104472 0.0513289 0.0831931 0 0 0 -2.46352e-07 2.97379e-07 -5.82963e-07 -4.70625e-07 -9.11747e-09 1.57639e-08 -0.000151265 0.00010306 0.000147553 0.011 595.138 -1.37042 0.99987 -1.64933e-06 
157 1 0.0560351 0.0559521 0.0707413 0 0 0 5.62703e-06 -6.91805e-07 9.21163e-08 1.27026e-06 -8.57803e-07 5.63086e-07 -0.000128364 0.000753307 0.00106338 0.011 594.863 -1.45617 0.999862 -1.76014e-06 
14 1 0.0104601 0.0722668 0.0801957 0 0 0 8.06652e-08 -3.75309e-07 -9.30246e-07 -1.38057e-07 -3.77526e-08 3.80688e-07 7.8988e-05 8.98391e-05 -0.000128043 0.011 595.181 -1.3521 0.99987 -1.64933e-06 
69 1 0.0401961 0.0684199 0.0785536 0 0 0 1.33942e-06 -1.81977e-06 1.85705e-07 -1.15927e-08 -3.77166e-07 9.94431e-07 -0.000287491 -0.000241303 -0.000358332 0.011 595.173 -1.35502 0.99987 -1.64933e-06 
85 1 0.0738153 0.0699127 0.069655 0 0 0 -1.91242e-05 -3.97602e-05 3.70107e-06 -1.19329e-05 -2.34009e-05 9.09106e-07 0.000446009 -0.0021417 -0.0052238 0.011 594.92 -1.42319 0.999862 -1.76014e-06 
209 1 0.0105733 0.0898516 0.0690399 0 0 0 6.31076e-07 1.7993e-07 -6.58376e-08 2.13186e-07 3.10619e-08 1.12026e-08 2.5126e-05 -1.98506e-06 5.71221e-05 0.011 595.159 -1.3684 0.99987 -1.64933e-06 
127 1 0.0374768 0.0896615 0.0753395 0 0 0 2.67963e-06 -8.83547e-07 -1.70815e-06 1.11856e-06 -3.01496e-07 -7.66713e-07 8.60465e-05 7.18521e-06 0.000136349 0.011 595.155 -1.36581 0.99987 -1.64933e-06 
183 1 0.0653197 0.0896869 0.0712208 0 0 0 1.12098e-05 -6.93232e-06 -2.12407e-06 5.86349e-06 -4.09683e-06 -8.37659e-07 0.000164063 -0.000688874 0.000838564 0.011 594.926 -1.41952 0.999862 -1.76014e-06 
194 1 0.0893174 0.0897644 0.0700223 0 0 0 -5.86955e-07 3.69717e-07 4.28308e-07 -4.34427e-07 2.61087e-07 2.20719e-07 2.11735e-05 -6.68996e-05 -7.06632e-05 0.011 594.908 -1.43239 0.999862 -1.76014e-06 
187 1 0.0105525 0.010344 0.0908406 0 0 0 1.9734e-06 8.45235e-08 3.82968e-07 6.51396e-07 -7.07576e-08 3.15343e-08 5.48688e-06 -6.50428e-05 -9.28651e-05 0.011 594.813 -1.44727 0.999858 -1.81057e-06 
229 1 0.0867762 0.00985453 0.0875224 0 0 0 9.09457e-05 -5.92678e-06 3.49718e-05 5.02977e-05 -2.96486e-06 1.94616e-05 0.00144119 -0.0182176 -0.00899697 0.011 593.922 -1.67646 0.999826 -2.21797e-06 
58 1 0.0107792 0.0316268 0.0910421 0 0 0 2.85113e-06 1.12518e-07 1.40812e-06 5.47506e-07 -4.05683e-07 2.54736e-08 -9.32601e-06 -0.000281002 -1.91646e-05 0.011 594.838 -1.43607 0.999858 -1.81057e-06 
53 1 0.0528128 0.0187821 0.0909103 0 0 0 2.08236e-05 -3.07278e-05 -1.65509e-06 1.0344e-05 -1.62522e-05 -6.22126e-07 -0.00147913 -0.000172989 -0.00432794 0.011 593.985 -1.64312 0.999826 -2.21797e-06 
167 1 0.0729393 0.0255424 0.08805 0 0 0 2.93748e-05 -1.12072e-06 -6.12555e-06 1.54565e-05 -3.4715e-07 -2.88485e-06 0.00492162 0.00144227 0.00704118 0.011 593.882 -1.68559 0.999826 -2.21797e-06 
49 1 0.03076 0.0381404 0.0876067 0 0 0 5.29217e-06 1.09704e-06 -1.12297e-06 1.01085e-06 1.20629e-06 9.41887e-08 9.45322e-05 0.000840803 0.000315821 0.011 594.822 -1.4443 0.999858 -1.81057e-06 
39 1 0.0897532 0.0377306 0.0918726 0 0 0 -3.04392e-06 1.62068e-05 5.96577e-06 -2.17165e-06 8.94391e-06 3.57396e-06 0.000826602 0.000879633 -0.00178709 0.011 594.015 -1.63177 0.999826 -2.21797e-06 
102 1 0.0284126 0.0591565 0.0943177 0 0 0 2.26481e-06 1.20184e-06 -1.90696e-06 1.38172e-07 1.65375e-06 1.58208e-07 9.48178e-05 0.000281089 0.000352538 0.011 595.173 -1.35567 0.99987 -1.64933e-06 
47 1 0.0478012 0.0509478 0.0901428 0 0 0 4.5179e-06 1.9914e-06 -1.54251e-06 5.6168e-07 1.09244e-06 -2.51578e-07 -1.88892e-05 -0.000628462 -0.000354297 0.011 595.065 -1.40564 0.99987 -1.64933e-06 
255 1 0.0724638 0.0532981 0.0843293 0 0 0 1.36873e-05 5.22797e-07 -2.02506e-05 6.29669e-06 -2.59065e-07 -1.07093e-05 0.00472989 0.000142948 0.00219414 0.011 594.837 -1.46281 0.999862 -1.76014e-06 
260 1 0.0897754 0.0584181 0.0958565 0 0 0 3.90479e-06 1.73285e-06 3.35809e-07 1.75193e-06 9.58217e-07 -3.72512e-08 -0.000621691 -0.000523131 0.000441742 0.011 594.869 -1.44644 0.999862 -1.76014e-06 
93 1 0.070256 0.0726131 0.0941211 0 0 0 1.61872e-07 -5.31267e-06 9.56704e-07 -6.38368e-07 -3.07902e-06 6.07462e-07 -0.00150577 0.000381818 -0.00028061 0.011 594.927 -1.4181 0.999862 -1.76014e-06 
133 1 0.0892944 0.0761741 0.0853098 0 0 0 -5.88258e-07 -2.561e-06 -2.01123e-06 -7.44399e-07 -1.59879e-06 -1.33235e-06 0.000319007 -0.000289358 0.000568125 0.011 594.923 -1.42086 0.999862 -1.76014e-06 
256 1 0.0207002 0.0893785 0.088347 0 0 0 1.68141e-06 -1.00499e-06 -9.40038e-07 6.13466e-07 -1.66077e-07 -2.74669e-07 2.14025e-05 6.74075e-05 1.58493e-05 0.011 595.184 -1.34971 0.99987 -1.64933e-06 
6 1 0.0531513 0.0837576 0.0878227 0 0 0 3.52169e-06 -2.81325e-06 -3.55985e-06 1.46919e-06 -1.39738e-06 -1.76566e-06 -0.000606785 0.000223686 -0.000663801 0.011 594.955 -1.40509 0.999862 -1.76014e-06 
246 1 0.0105978 0.0104829 0.112181 0 0 0 1.72647e-06 1.16104e-06 -1.71348e-07 3.97452e-07 4.30877e-07 -2.71775e-07 -4.47801e-05 6.87033e-05 3.92515e-05 0.011 594.912 -1.42423 0.999859 -1.79254e-06 
149 1 0.0295165 0.0106074 0.101698 0 0 0 5.18884e-06 -2.23097e-07 -2.2548e-06 2.40078e-06 1.43546e-07 -1.04515e-06 -0.000277278 -7.68083e-05 -0.000466103 0.011 594.816 -1.44663 0.999858 -1.81057e-06 
156 1 0.0493607 0.0107078 0.110755 0 0 0 1.42331e-06 -1.31606e-06 4.79165e-07 8.3824e-08 -4.63765e-07 2.84357e-07 -0.000254504 -0.000310224 -0.000167316 0.011 594.893 -1.43392 0.999859 -1.79254e-06 
91 1 0.070219 0.0100987 0.101861 0 0 0 1.73071e-05 -4.1938e-06 -2.31681e-05 9.30979e-06 -2.51408e-06 -1.29296e-05 -0.00181741 -0.00341451 -0.00210079 0.011 594.027 -1.62517 0.999826 -2.21798e-06 
241 1 0.0901049 0.0104338 0.108608 0 0 0 -1.02317e-05 -8.20779e-06 1.42809e-05 -6.00409e-06 -4.54214e-06 7.92305e-06 -0.000577758 0.00243044 0.000712536 0.011 595.102 -1.40791 0.999873 -1.62449e-06 
139 1 0.0164452 0.0310478 0.111084 0 0 0 3.6237e-07 1.5903e-07 1.231e-06 -3.9234e-07 5.81311e-07 -1.11456e-07 0.000119358 3.60444e-05 8.41466e-05 0.011 594.915 -1.42308 0.999859 -1.79254e-06 
249 1 0.0399567 0.0294893 0.104762 0 0 0 1.31602e-05 3.21214e-07 -5.00722e-06 5.29459e-06 6.35284e-07 -2.09181e-06 0.000339681 -0.000914677 0.000491048 0.011 594.779 -1.46234 0.999858 -1.81057e-06 
5 1 0.0298506 0.0496364 0.113931 0 0 0 1.27828e-06 -7.74769e-07 -2.73365e-06 -2.84446e-08 3.49607e-07 9.34681e-08 0.000278914 -0.000420174 0.000111058 0.011 594.958 -1.40226 0.999859 -1.79254e-06 
148 1 0.0510908 0.0484009 0.111522 0 0 0 2.42022e-06 1.93199e-06 -3.64195e-06 6.39651e-07 1.27013e-06 -2.02626e-06 0.000147142 0.000514151 3.37547e-05 0.011 595.168 -1.37785 0.999873 -1.62449e-06 
122 1 0.0693585 0.0412554 0.102363 0 0 0 2.78056e-07 -1.57291e-05 3.93636e-06 -2.12507e-07 -8.6773e-06 3.03137e-06 -0.00359571 -0.000285096 -0.00113586 0.011 594.023 -1.6249 0.999826 -2.21797e-06 
254 1 0.0886853 0.0446666 0.111889 0 0 0 3.87792e-06 1.31168e-06 5.06522e-06 1.84613e-06 8.73131e-07 2.91453e-06 0.000202337 -0.000405473 0.000754683 0.011 595.109 -1.40309 0.999873 -1.62449e-06 
251 1 0.0105104 0.0513846 0.105022 0 0 0 1.19835e-06 1.02758e-07 -2.65304e-06 5.17077e-08 7.32859e-08 3.5464e-08 0.000189233 0.000251125 1.33207e-05 0.011 595.173 -1.35346 0.99987 -1.64933e-06 
23 1 0.068759 0.0608119 0.111981 0 0 0 2.42361e-06 1.99743e-07 -3.16833e-06 7.98477e-07 4.45555e-07 -1.39189e-06 0.00111917 4.18461e-05 0.000202979 0.011 594.926 -1.4169 0.999859 -1.79691e-06 
84 1 0.0135712 0.0732812 0.100604 0 0 0 6.99549e-07 -6.56594e-07 -6.6435e-07 -5.25797e-07 4.90649e-07 3.02579e-07 -7.52342e-05 -7.27296e-05 -5.42178e-05 0.011 595.092 -1.38988 0.99987 -1.64933e-06 
219 1 0.0316302 0.0712555 0.112523 0 0 0 9.16198e-07 -3.62612e-07 -1.31052e-06 -1.61388e-07 -3.48807e-08 -6.65216e-07 -0.000147818 7.92599e-05 -0.000124118 0.011 594.667 -1.46951 0.999848 -1.94445e-06 
59 1 0.0506528 0.0683145 0.102675 0 0 0 4.67805e-07 1.55517e-06 5.85939e-07 -4.25093e-07 1.136e-06 4.23129e-07 0.000136862 -0.00027913 0.000228883 0.011 594.934 -1.41488 0.999862 -1.76014e-06 
158 1 0.0876353 0.0711531 0.112628 0 0 0 -7.26457e-07 1.35602e-06 -5.51612e-07 -6.54866e-07 7.91715e-07 -4.97192e-07 0.000272175 0.000330628 9.75197e-05 0.011 594.921 -1.4192 0.999859 -1.79691e-06 
176 1 0.0106112 0.0894532 0.11474 0 0 0 2.72323e-07 -7.06297e-08 -3.88428e-07 4.04462e-08 2.10828e-07 2.1259e-07 3.94154e-05 2.3769e-05 7.97747e-06 0.011 594.607 -1.49908 0.999848 -1.94445e-06 
128 1 0.0375945 0.0892798 0.10211 0 0 0 2.35588e-06 4.27121e-07 -1.83975e-06 7.1879e-07 2.84624e-07 -9.94765e-07 0.000203633 -0.000114168 0.000256532 0.011 595.153 -1.36324 0.99987 -1.64933e-06 
37 1 0.0633713 0.0898718 0.105257 0 0 0 2.7514e-06 -1.17905e-06 -4.11167e-06 1.56949e-06 -5.11523e-07 -2.29879e-06 0.000430969 -0.000284897 0.000287853 0.011 594.915 -1.42275 0.999862 -1.76014e-06 
211 1 0.0861905 0.0895477 0.101445 0 0 0 -2.73414e-06 -1.01732e-06 2.27522e-07 -2.00229e-06 -6.22816e-07 9.33309e-08 -0.000185166 0.000303581 -0.000263102 0.011 594.928 -1.41721 0.999862 -1.76014e-06 
250 1 0.0102777 0.0141805 0.133065 0 0 0 -4.89358e-07 -1.15236e-06 1.23794e-06 1.74188e-07 1.24267e-07 -2.30347e-07 0.000454268 -0.000452029 -9.39981e-05 0.011 594.927 -1.41673 0.999859 -1.79254e-06 
87 1 0.0293517 0.0106168 0.123275 0 0 0 1.42571e-06 5.74252e-07 6.16641e-08 2.73261e-07 4.23832e-07 -4.52484e-07 0.000111709 3.13411e-06 -7.20305e-05 0.011 594.921 -1.41945 0.999859 -1.79254e-06 
48 1 0.0483703 0.0154429 0.131908 0 0 0 1.46723e-07 -2.49647e-07 8.41546e-08 -3.9647e-07 9.46942e-08 5.57843e-08 -6.07774e-07 -8.16563e-05 -8.12655e-06 0.011 594.964 -1.40085 0.999859 -1.79254e-06 
215 1 0.0672508 0.0102567 0.123154 0 0 0 -2.14103e-06 2.53821e-06 -6.27412e-06 -1.61613e-06 1.53861e-06 -3.61381e-06 0.000287606 0.000815052 0.000218017 0.011 595.186 -1.36851 0.999873 -1.62449e-06 
242 1 0.0894602 0.0110433 0.129594 0 0 0 5.38109e-06 -6.43451e-07 6.30248e-06 2.9526e-06 -4.25641e-07 3.3825e-06 -0.000174921 -0.000268533 7.48142e-05 0.011 595.287 -1.32341 0.999873 -1.62449e-06 
175 1 0.0589643 0.029188 0.117546 0 0 0 -2.76447e-07 1.62473e-06 -3.32975e-06 -6.38571e-07 1.06259e-06 -2.25506e-06 -0.000192629 0.000107991 -0.00010135 0.011 595.251 -1.34054 0.999873 -1.62449e-06 
72 1 0.0799091 0.0263685 0.116905 0 0 0 -4.03691e-08 -1.95797e-06 4.03188e-06 -4.16359e-07 -9.71878e-07 2.27613e-06 -0.000610631 -0.00096059 -0.000614516 0.011 595.269 -1.33611 0.999873 -1.62449e-06 
82 1 0.0108146 0.0371677 0.130156 0 0 0 -5.12582e-07 -8.34598e-07 7.87882e-07 6.5928e-08 1.87176e-07 7.98277e-09 -4.99098e-05 -0.000145148 -0.00011924 0.011 594.9 -1.42901 0.999859 -1.79254e-06 
227 1 0.0401908 0.0345457 0.125454 0 0 0 -8.6179e-07 -8.64775e-07 -2.64205e-06 -5.63308e-08 2.87859e-07 -7.46471e-07 -3.45393e-05 -0.000140237 0.000231315 0.011 594.942 -1.41081 0.999859 -1.79254e-06 
67 1 0.071798 0.0446659 0.125605 0 0 0 4.54863e-07 -5.37209e-07 -4.69186e-06 -3.56648e-07 -2.30836e-07 -2.59257e-06 -0.000436282 -0.000360196 -9.17902e-05 0.011 595.266 -1.33266 0.999873 -1.62449e-06 
24 1 0.0895722 0.0350318 0.133289 0 0 0 -1.20866e-06 5.03691e-07 1.4709e-06 -1.0427e-06 3.79524e-07 8.12636e-07 -0.00012852 0.000184343 -0.000103525 0.011 595.295 -1.31805 0.999873 -1.62449e-06 
151 1 0.0511769 0.0661471 0.124509 0 0 0 -5.60074e-07 5.8609e-07 -1.94408e-07 -1.76377e-06 6.7674e-07 3.48597e-07 1.21535e-05 8.22371e-05 0.000720623 0.011 594.922 -1.4187 0.999859 -1.79691e-06 
205 1 0.0897515 0.0571845 0.12885 0 0 0 -3.3853e-07 2.02051e-06 1.60109e-06 -3.302e-07 1.25978e-06 7.27956e-07 -0.000358671 9.90883e-05 -0.000239345 0.011 594.958 -1.40308 0.999859 -1.79691e-06 
66 1 0.0105907 0.0685174 0.120378 0 0 0 1.12585e-07 -2.47129e-08 -5.19735e-07 -1.69405e-07 2.30707e-07 -6.47687e-08 6.9916e-06 3.44349e-05 -2.59437e-06 0.011 594.634 -1.48686 0.999848 -1.94445e-06 
154 1 0.0700192 0.079827 0.122025 0 0 0 -3.47051e-07 -3.13746e-07 -6.88734e-07 -9.07671e-08 1.5229e-07 -3.9441e-07 -0.000508711 -0.000252871 6.08482e-06 0.011 594.923 -1.41754 0.999859 -1.79691e-06 
113 1 0.0279077 0.0892588 0.127595 0 0 0 9.236e-07 9.61486e-08 -4.53837e-07 3.77631e-07 1.63494e-07 -6.82773e-08 7.97959e-06 6.75681e-06 5.58238e-05 0.011 594.58 -1.51212 0.999848 -1.94445e-06 
57 1 0.0486653 0.087958 0.121141 0 0 0 1.27162e-06 -2.84113e-06 -3.41032e-06 8.90098e-07 -1.94591e-06 -1.72781e-06 -0.000280363 0.000237502 -0.000250011 0.011 594.607 -1.4991 0.999848 -1.94445e-06 
226 1 0.0894243 0.0898457 0.122582 0 0 0 -1.88846e-07 3.00547e-07 2.14223e-07 -6.81287e-08 1.50746e-07 9.02167e-08 -4.68504e-05 -5.3193e-05 -2.0182e-05 0.011 594.922 -1.4183 0.999859 -1.79691e-06 
115 1 0.0349105 0.00967711 0.147787 0 0 0 8.1127e-07 1.2349e-07 6.86847e-08 -1.63802e-07 1.07909e-07 1.1725e-07 -7.60708e-06 0.000168416 -6.32461e-05 0.011 594.936 -1.4106 0.999859 -1.79254e-06 
137 1 0.0807293 0.0101882 0.14847 0 0 0 9.17645e-07 1.66263e-07 1.64521e-06 3.92343e-07 1.11088e-07 7.11407e-07 6.82088e-05 -0.000166913 -5.86195e-05 0.011 595.28 -1.32481 0.999873 -1.62449e-06 
134 1 0.0263018 0.0262733 0.139306 0 0 0 -2.75419e-07 -9.79284e-07 1.00148e-06 3.33096e-08 1.34711e-07 -3.29897e-08 -0.00024044 0.000377758 8.89683e-06 0.011 594.928 -1.41589 0.999859 -1.79254e-06 
129 1 0.050749 0.0308358 0.146556 0 0 0 6.44858e-07 -7.50014e-08 -1.39869e-06 -4.58935e-07 6.08534e-08 -5.63147e-07 -0.00012332 0.000156994 -4.5258e-05 0.011 595.237 -1.34294 0.999873 -1.62449e-06 
75 1 0.0700301 0.0264404 0.137485 0 0 0 7.78965e-08 7.35904e-08 -1.68899e-06 -6.67745e-07 1.77556e-07 -9.19468e-07 0.00025237 -0.000104304 0.000118751 0.011 595.295 -1.31788 0.999873 -1.62449e-06 
198 1 0.0289122 0.0475844 0.137646 0 0 0 -5.36898e-07 -8.03848e-07 -1.99153e-06 1.64519e-07 1.70924e-07 -8.70898e-08 -4.52779e-05 0.000249612 -6.67346e-05 0.011 594.876 -1.43849 0.999859 -1.79254e-06 
244 1 0.0620009 0.0485665 0.144291 0 0 0 8.50672e-07 2.30368e-07 -2.69057e-06 -1.60425e-07 2.21297e-07 -1.50065e-06 0.000325974 0.000301928 -8.19144e-05 0.011 595.242 -1.34266 0.999873 -1.62449e-06 
135 1 0.0847496 0.0491527 0.148405 0 0 0 -7.90118e-07 9.63114e-07 1.49462e-06 -1.40767e-07 7.80035e-07 9.03249e-07 0.000147759 -0.000121458 9.82238e-05 0.011 595.254 -1.33689 0.999873 -1.62449e-06 
71 1 0.0099129 0.0567027 0.137455 0 0 0 1.88503e-07 -1.35008e-07 -2.45714e-07 1.34308e-07 1.92982e-07 -1.02807e-07 -3.7233e-05 1.72553e-05 -2.19266e-05 0.011 594.638 -1.48358 0.999848 -1.94445e-06 
10 1 0.0453629 0.0626076 0.145416 0 0 0 5.19862e-07 8.28241e-09 7.07078e-08 1.93815e-07 4.4977e-07 5.94291e-07 -0.000103401 -0.000107481 0.000115829 0.011 594.639 -1.48272 0.999848 -1.94445e-06 
17 1 0.0720912 0.0654343 0.136838 0 0 0 -6.03717e-07 2.55588e-06 7.55062e-07 -6.70004e-07 1.57764e-06 2.54936e-07 0.00015776 -2.6823e-05 0.000217106 0.011 594.947 -1.40711 0.999859 -1.79691e-06 
29 1 0.0105463 0.080523 0.137848 0 0 0 5.0377e-07 2.49978e-08 -4.15181e-07 1.18455e-07 -3.0765e-08 6.34577e-08 -8.67e-06 2.28242e-05 1.00985e-05 0.011 594.585 -1.50858 0.999848 -1.94445e-06 
132 1 0.0280517 0.0685316 0.133568 0 0 0 7.27348e-07 -2.46319e-07 -1.12058e-06 4.60884e-07 2.9007e-07 -9.19149e-08 0.000100045 -1.73018e-05 -5.97369e-05 0.011 594.605 -1.49938 0.999848 -1.94445e-06 
170 1 0.0351466 0.0822767 0.148399 0 0 0 6.22261e-07 -8.03397e-07 -4.43592e-07 5.68773e-07 3.12988e-07 -2.68627e-07 6.44831e-05 0.000160957 0.000239226 0.011 594.585 -1.50982 0.999848 -1.94445e-06 
173 1 0.0556907 0.0812712 0.14068 0 0 0 9.89128e-07 4.33429e-08 -1.25953e-06 7.66868e-07 -4.31986e-07 -5.95256e-07 -0.000164903 -0.000155002 -9.65772e-05 0.011 594.891 -1.43434 0.999859 -1.79691e-06 
50 1 0.0799644 0.0848744 0.140416 0 0 0 -7.20699e-07 1.66107e-06 3.81231e-07 -3.74269e-07 1.03501e-06 2.4765e-07 3.86666e-05 9.07556e-05 -0.000197933 0.011 594.921 -1.41921 0.999859 -1.79691e-06 
252 1 0.011214 0.0114163 0.154229 0 0 0 -0.000440672 -0.000128627 5.09737e-06 1.00514e-06 2.98057e-06 1.55756e-07 -0.0219938 0.058116 -0.75138 0.011 594.956 -1.40164 0.999859 -1.79254e-06 
101 1 0.0483188 0.0164205 0.161939 0 0 0 7.53224e-07 3.376e-07 -8.85209e-07 1.91436e-08 3.27241e-07 -1.31262e-07 3.47951e-05 -0.00013586 1.29654e-06 0.011 595.026 -1.37252 0.999859 -1.79254e-06 
171 1 0.0681596 0.0101683 0.164894 0 0 0 -4.59291e-09 2.87073e-07 3.56827e-07 -8.59368e-08 2.88325e-07 -6.32806e-09 -2.19644e-05 -3.55064e-05 -2.25183e-05 0.011 595.223 -1.34818 0.999873 -1.62449e-06 
248 1 0.0894611 0.0287927 0.153384 0 0 0 4.25007e-07 3.32216e-07 1.0197e-06 6.60859e-08 2.63657e-07 4.37523e-07 -1.79997e-05 2.95194e-05 5.12716e-05 0.011 595.276 -1.32658 0.999873 -1.62449e-06 