ITEM: TIMESTEP
200000
ITEM: NUMBER OF ATOMS
1005
ITEM: BOX BOUNDS mm mm mm
0 0.1
0 0.1
0 1.1
ITEM: ATOMS id type x y z ix iy iz vx vy vz fx fy fz omegax omegay omegaz radius f_Temp[0] f_heatFlux[0] f_speciesC[0] f_speciesCFlux[0] 
152 1 0.0254473 0.0104913 0.0102224 0 0 0 2.81206e-08 -3.39309e-07 -1.77225e-06 -5.1453e-06 -4.66766e-06 -8.7758e-06 -7.60908e-05 0.000250148 -7.54911e-06 0.011 591.857 -2.27691 0.999893 -3.0139e-06 
97 1 0.0100959 0.0228963 0.0166305 0 0 0 4.21889e-07 6.25736e-08 1.97514e-07 -1.45286e-07 -1.06288e-06 5.35901e-07 4.44453e-05 -1.19612e-05 1.06093e-05 0.011 591.894 -2.25 0.999893 -3.0139e-06 
231 1 0.0360308 0.0295069 0.0103013 0 0 0 -1.15942e-06 -4.38586e-06 -1.52403e-06 -6.78082e-06 -1.44431e-05 -8.32043e-06 0.000401401 -9.03534e-05 -0.000151265 0.011 591.867 -2.2699 0.999893 -3.0139e-06 
89 1 0.0620427 0.0171542 0.0104252 0 0 0 3.11351e-06 -6.30912e-06 2.8391e-06 -1.24982e-05 -1.90853e-05 1.99671e-06 0.000622266 0.000232741 -0.00079461 0.011 590.718 -2.57193 0.999875 -3.52234e-06 
216 1 0.0812386 0.0269582 0.00999414 0 0 0 5.51172e-06 -1.19264e-05 1.21831e-06 1.03525e-05 -2.08548e-05 -6.83252e-06 0.00167509 0.000728436 6.79758e-05 0.011 590.66 -2.59701 0.999875 -3.52234e-06 
155 1 0.0150045 0.0423282 0.0103379 0 0 0 -5.82768e-07 5.48805e-07 -1.56955e-07 -5.81889e-06 4.81335e-07 -1.48708e-06 -7.88847e-05 -5.13246e-05 0.000114658 0.011 591.9 -2.25327 0.999893 -3.0139e-06 
79 1 0.0644542 0.0460882 0.0105447 0 0 0 -4.75255e-06 -7.73064e-06 -6.39541e-06 -2.57617e-05 -1.7466e-05 -1.88171e-05 0.000522491 0.000252626 0.00130204 0.011 590.918 -2.46746 0.999875 -3.52234e-06 
180 1 0.0339235 0.0582287 0.0104705 0 0 0 2.51972e-06 1.95938e-06 -1.3479e-06 9.49443e-06 3.81455e-06 -5.01188e-06 -0.00011968 0.000246028 4.40183e-05 0.011 592.332 -2.13674 0.9999 -2.82075e-06 
33 1 0.0814221 0.0599299 0.0102587 0 0 0 -1.98344e-05 -2.28904e-05 9.20376e-06 -7.61102e-05 -5.98648e-05 2.23115e-05 0.00188762 -0.00213924 -0.00253706 0.011 592.856 -2.01053 0.999909 -2.56724e-06 
2 1 0.0105507 0.0718176 0.00973638 0 0 0 -3.58471e-07 6.76961e-07 -3.49469e-07 -1.87332e-06 3.21085e-06 -4.85062e-06 -6.06266e-05 -1.03658e-05 2.04448e-05 0.011 592.337 -2.13376 0.9999 -2.82075e-06 
30 1 0.0423265 0.0807625 0.0100002 0 0 0 1.03224e-06 1.53579e-06 -3.16642e-07 4.39874e-06 5.65838e-06 -7.8835e-07 -0.000176722 0.000159027 0.000304703 0.011 592.37 -2.119 0.9999 -2.82075e-06 
253 1 0.0601207 0.0675848 0.0106241 0 0 0 -6.52459e-06 -6.28363e-06 -1.97204e-06 -3.64253e-05 -1.6614e-05 8.65892e-06 0.000592675 -0.000675573 -0.000665466 0.011 592.868 -2.00489 0.999909 -2.56724e-06 
25 1 0.0890664 0.0801607 0.00996577 0 0 0 2.05569e-06 -1.11557e-05 7.06199e-06 7.81753e-06 -4.44203e-05 2.23957e-05 -6.39299e-05 0.000592802 0.000924234 0.011 592.933 -1.96917 0.999909 -2.56724e-06 
233 1 0.0222917 0.0895166 0.0118686 0 0 0 -3.09561e-07 1.1844e-07 -1.30677e-07 -1.35676e-06 6.34342e-07 -2.22715e-06 1.65766e-05 -6.82743e-05 -5.29277e-05 0.011 592.324 -2.14321 0.9999 -2.82075e-06 
192 1 0.0689579 0.0890031 0.0109509 0 0 0 -1.82973e-06 -2.46119e-06 7.33291e-07 -1.0824e-05 -1.57646e-05 9.15717e-06 4.3681e-05 -0.000352819 -0.000774049 0.011 592.922 -1.97716 0.999909 -2.56724e-06 
166 1 0.0440616 0.0107335 0.020281 0 0 0 -1.24935e-06 -3.51921e-06 -4.19281e-06 -2.95654e-05 -1.2458e-05 -1.63452e-05 0.000255137 -0.000351534 -0.000139853 0.011 591.729 -2.33735 0.999893 -3.0139e-06 
203 1 0.0627323 0.0103224 0.0310005 0 0 0 -1.06426e-05 -1.8838e-06 4.73912e-06 -5.86702e-05 -9.28545e-06 8.65103e-06 0.000236897 -0.00163639 0.00103343 0.011 590.751 -2.54801 0.999875 -3.52234e-06 
234 1 0.0888476 0.0102834 0.0207303 0 0 0 -1.16946e-05 -1.47406e-05 -7.17258e-06 -1.50748e-05 -3.08046e-05 1.31822e-05 0.000289353 -0.00611609 0.00140272 0.011 590.653 -2.6035 0.999875 -3.52234e-06 
22 1 0.0674539 0.0308906 0.0259824 0 0 0 3.57184e-07 -2.17143e-06 9.20321e-07 -7.35592e-06 -2.51605e-05 -5.10497e-06 -0.00242252 -0.00125526 7.58133e-05 0.011 590.766 -2.53728 0.999875 -3.52234e-06 
104 1 0.0246183 0.0349097 0.0292671 0 0 0 -3.80537e-06 -4.81068e-06 -3.4778e-06 -2.2177e-05 -1.48797e-05 -1.19894e-05 -0.000918831 0.000185802 0.000107254 0.011 591.917 -2.23682 0.999893 -3.0139e-06 
35 1 0.0463013 0.0343851 0.0280715 0 0 0 -3.45661e-06 -3.50295e-06 -4.71249e-06 -2.14585e-05 -8.63346e-06 -1.31595e-05 -0.000419228 0.000174598 0.000527509 0.011 591.923 -2.23724 0.999893 -3.0139e-06 
147 1 0.0896071 0.035772 0.0270658 0 0 0 8.27721e-06 -3.35557e-05 1.58379e-05 -6.89774e-07 -5.87886e-05 9.67505e-06 0.00206758 0.00125521 0.00234136 0.011 590.858 -2.4952 0.999875 -3.52234e-06 
8 1 0.0158783 0.0580095 0.0245508 0 0 0 1.28599e-06 1.6061e-06 -1.5605e-06 -2.47452e-06 1.04174e-05 -9.74863e-06 -5.1928e-05 0.00036931 -9.0587e-05 0.011 592.276 -2.16063 0.9999 -2.82075e-06 
63 1 0.0362763 0.0531948 0.0311915 0 0 0 -4.3521e-06 -3.80586e-06 -4.58505e-06 -9.22257e-06 -1.21023e-05 -3.31848e-06 0.000697105 -0.0007384 -0.000545221 0.011 592.469 -2.0759 0.9999 -2.82075e-06 
99 1 0.0576248 0.0557002 0.0284729 0 0 0 -3.49093e-06 -3.96729e-06 -3.59181e-06 -2.99331e-06 -7.6496e-05 8.45392e-06 -0.00109621 0.000932743 0.000759967 0.011 592.881 -1.99921 0.999909 -2.56724e-06 
224 1 0.0872026 0.0564815 0.0302819 0 0 0 -3.88871e-06 -3.80208e-05 1.91083e-05 -4.7086e-05 -8.40451e-05 4.17563e-05 -0.00204126 0.00518841 0.00185731 0.011 592.809 -2.02497 0.999909 -2.56724e-06 
126 1 0.0103594 0.0787913 0.0293284 0 0 0 3.59521e-07 5.75458e-08 -1.04755e-07 1.50947e-06 2.37955e-06 -4.1774e-06 0.000179887 7.63208e-05 -6.53851e-06 0.011 592.571 -2.02365 0.9999 -2.82075e-06 
163 1 0.0308226 0.0731115 0.0256597 0 0 0 1.42776e-06 5.16307e-07 -5.26522e-07 5.79118e-06 1.89652e-06 -5.37598e-06 0.00010373 -0.000405618 3.7752e-05 0.011 592.376 -2.10634 0.9999 -2.82075e-06 
12 1 0.0745033 0.0734471 0.0257523 0 0 0 -9.77588e-06 -2.1344e-05 1.10921e-05 -4.55344e-05 -6.30084e-05 3.63134e-05 -0.00106764 -0.0011285 -0.0023114 0.011 592.929 -1.97155 0.999909 -2.56724e-06 
257 1 0.0531554 0.0892639 0.0262309 0 0 0 6.04844e-07 -5.53469e-07 -1.84414e-06 -4.9012e-06 -7.23393e-07 8.14234e-07 0.00042337 6.5196e-05 -0.000105129 0.011 592.891 -1.99006 0.999909 -2.56724e-06 
243 1 0.0892873 0.0891935 0.0286301 0 0 0 1.12103e-06 -7.93496e-06 2.40261e-06 -1.42849e-07 -3.16223e-05 1.00512e-05 -0.000535474 8.2779e-05 0.000754218 0.011 593.096 -1.89167 0.999909 -2.56724e-06 
223 1 0.0367023 0.0106942 0.0405247 0 0 0 -1.60798e-05 -5.26849e-06 -1.14263e-05 -7.4223e-05 -2.84913e-05 -4.42755e-05 -0.000952902 -0.00033255 0.00149793 0.011 591.977 -2.21013 0.999893 -3.0139e-06 
70 1 0.0104579 0.0206621 0.0372906 0 0 0 -1.44281e-06 -2.89432e-07 7.83099e-07 -1.66891e-05 6.92699e-06 5.08456e-06 -1.36972e-05 -0.000162654 1.71385e-05 0.011 592.284 -2.06849 0.999893 -3.0139e-06 
45 1 0.0533556 0.0234891 0.0450337 0 0 0 -2.33555e-05 -1.73801e-05 -1.91255e-06 -0.000125813 -3.11517e-05 -4.32366e-06 0.00183517 -0.00156014 -0.00199424 0.011 591.266 -2.31172 0.999875 -3.52234e-06 
108 1 0.0809251 0.0194475 0.0384423 0 0 0 9.58209e-06 -5.95509e-05 -8.19151e-06 -6.85389e-05 -7.7352e-05 -6.02148e-05 0.00504564 0.00503866 -0.00657444 0.011 590.913 -2.47836 0.999875 -3.52234e-06 
96 1 0.0118132 0.0470101 0.0420241 0 0 0 -2.20804e-06 5.39445e-07 -3.729e-06 -2.11387e-05 4.33559e-07 -2.54006e-05 0.000415086 -0.000361007 -0.000496965 0.011 592.166 -2.11963 0.999893 -3.0139e-06 
9 1 0.040826 0.0409407 0.0478632 0 0 0 -8.47437e-06 -7.65737e-07 -7.20537e-06 -1.88636e-05 -1.33636e-05 -4.46193e-06 -0.000850477 0.000456745 0.00066725 0.011 594.333 -1.6788 0.999936 -1.81395e-06 
80 1 0.0755096 0.0427644 0.0417097 0 0 0 -1.33237e-05 -5.74619e-05 2.56317e-05 1.36317e-05 -0.000152305 8.10854e-05 0.00541041 -0.00459428 -0.0070833 0.011 591.391 -2.26204 0.999875 -3.52234e-06 
146 1 0.0234896 0.0652285 0.0441924 0 0 0 -7.0041e-07 8.35888e-07 -1.15268e-06 4.56422e-06 2.48761e-06 -7.76809e-06 -0.000335145 0.000349354 0.000285787 0.011 592.699 -1.95976 0.9999 -2.82075e-06 
182 1 0.0584047 0.052827 0.0495923 0 0 0 -8.69442e-06 -1.42124e-05 -2.54118e-06 5.78449e-05 -9.4539e-05 3.66834e-05 0.00174693 -0.00151634 -0.00234199 0.011 594.484 -1.63367 0.999938 -1.76669e-06 
240 1 0.0106826 0.0818064 0.0498459 0 0 0 1.72249e-06 -2.30171e-07 4.21872e-07 1.18786e-05 8.56348e-06 -3.13929e-06 -8.872e-05 -6.74283e-06 -0.000135514 0.011 594.725 -1.56599 0.999941 -1.65209e-06 
204 1 0.0466083 0.0738941 0.0406829 0 0 0 3.62294e-06 -7.95907e-06 4.72601e-06 1.68226e-05 -1.67206e-05 1.53028e-05 -0.000721135 0.000354742 -0.00173321 0.011 592.482 -2.05947 0.9999 -2.82075e-06 
78 1 0.0692239 0.0709016 0.0483674 0 0 0 8.71815e-06 -2.15161e-05 3.24641e-07 3.45908e-05 -5.39392e-05 3.0206e-06 1.84508e-05 0.00138209 0.000475592 0.011 594.754 -1.51026 0.999938 -1.76669e-06 
212 1 0.0899713 0.0687316 0.0468707 0 0 0 7.89019e-06 -8.45793e-06 -4.54144e-06 1.93104e-05 -1.19424e-05 -7.38837e-06 -0.000430723 -0.00082102 0.000904808 0.011 594.711 -1.53553 0.999938 -1.76669e-06 
32 1 0.0268323 0.0897765 0.0377095 0 0 0 2.89761e-06 -1.72961e-06 -1.50875e-07 1.1498e-05 -2.49332e-06 -5.00875e-06 0.000206086 0.000525198 -3.15523e-05 0.011 592.654 -1.98101 0.9999 -2.82075e-06 
34 1 0.0702599 0.0898177 0.0390865 0 0 0 -6.72773e-08 -8.00109e-06 9.1093e-08 -6.55316e-06 -2.61999e-05 4.51934e-06 0.000111849 -0.000190772 -4.48261e-05 0.011 593.166 -1.85966 0.999909 -2.56724e-06 
217 1 0.0892414 0.0898426 0.0494493 0 0 0 1.72983e-07 -2.68496e-06 -1.66449e-06 2.50212e-06 -8.92325e-06 -1.12453e-06 9.62175e-05 4.87892e-05 8.83189e-05 0.011 594.663 -1.54772 0.999938 -1.76669e-06 
258 1 0.0129912 0.0100021 0.0550995 0 0 0 -3.49529e-06 7.24554e-07 6.70015e-07 -1.6439e-05 1.18058e-05 5.73554e-06 -3.37688e-05 -0.000232406 0.000335257 0.011 594.559 -1.57384 0.999936 -1.81395e-06 
164 1 0.0340164 0.0103392 0.0619145 0 0 0 4.10334e-07 1.36928e-06 -4.20349e-06 -2.38369e-07 1.27063e-05 -2.98737e-05 -0.000213033 0.00170803 -1.66635e-05 0.011 594.622 -1.54868 0.999936 -1.81395e-06 
15 1 0.0686516 0.0109554 0.0545414 0 0 0 -1.11385e-05 -2.29269e-05 -2.07198e-06 -7.86695e-05 -4.25837e-05 7.98015e-06 -0.00127954 -0.0011316 0.00061515 0.011 593.696 -1.79329 0.999921 -2.22345e-06 
64 1 0.0256343 0.0267072 0.0511059 0 0 0 -3.7024e-06 -2.79381e-07 1.94045e-06 -3.692e-05 1.92237e-05 2.08389e-06 -0.00015305 -0.00012475 -0.000361802 0.011 594.585 -1.56891 0.999936 -1.81395e-06 
191 1 0.0895719 0.0319071 0.0533608 0 0 0 3.27758e-05 -8.91155e-05 2.03185e-06 -3.07929e-05 -0.000259021 -1.24264e-05 0.00235998 0.00429471 0.0169638 0.011 593.429 -1.91128 0.999921 -2.22345e-06 
199 1 0.0102995 0.0380895 0.0609951 0 0 0 -5.06944e-06 2.31858e-06 -1.96513e-06 -1.8997e-05 1.28874e-05 -8.11151e-06 -0.000550408 -6.11232e-07 0.000662197 0.011 594.574 -1.56531 0.999936 -1.81395e-06 
123 1 0.0652398 0.0343448 0.0585712 0 0 0 -4.59099e-05 -2.18637e-05 -6.96681e-08 -3.48356e-05 -0.000219066 2.47202e-05 -0.00262728 0.000868591 0.00276575 0.011 593.513 -1.86306 0.999921 -2.22345e-06 
43 1 0.0106013 0.06049 0.061154 0 0 0 -1.40261e-06 3.90457e-06 1.80059e-06 2.17023e-06 2.44308e-05 -1.1319e-06 -0.000364875 -0.000292411 8.70637e-05 0.011 595.073 -1.40563 0.999941 -1.65209e-06 
161 1 0.0394508 0.0598861 0.0574857 0 0 0 -3.03635e-06 -2.63601e-06 -7.57963e-07 2.39701e-05 -1.96002e-05 -1.67044e-06 0.00103981 -0.000571142 -0.000693528 0.011 594.917 -1.48144 0.999941 -1.65209e-06 
92 1 0.0894349 0.0558658 0.0648168 0 0 0 4.35992e-06 -0.000105191 -9.90472e-06 -7.91251e-05 -0.00012205 -0.000101519 0.00887637 -0.000591319 0.0125097 0.011 594.861 -1.45311 0.999938 -1.76669e-06 
54 1 0.0259857 0.0756816 0.06371 0 0 0 5.51761e-06 -1.03595e-06 -6.87691e-07 2.82152e-05 7.78087e-06 -1.67868e-05 -8.68936e-05 0.000402304 -0.000317928 0.011 595.156 -1.37255 0.999941 -1.65209e-06 
185 1 0.0534556 0.0751337 0.0613743 0 0 0 1.8093e-05 -1.5758e-05 4.97311e-06 4.88171e-05 -3.85436e-05 1.69374e-05 0.000440519 0.000591117 -0.00191077 0.011 594.849 -1.4656 0.999938 -1.76669e-06 
4 1 0.0399249 0.0897068 0.054368 0 0 0 1.12746e-05 -1.57738e-06 6.48135e-07 4.57079e-05 2.10555e-06 -3.94812e-06 -9.13592e-05 -0.000440816 0.000908683 0.011 594.922 -1.47689 0.999941 -1.65209e-06 
52 1 0.014075 0.0209844 0.0728811 0 0 0 1.66199e-06 1.73502e-06 8.58561e-07 1.1929e-05 2.35052e-05 8.1353e-06 0.000152194 0.000549537 -0.000607841 0.011 594.779 -1.47097 0.999936 -1.81395e-06 
28 1 0.0400629 0.032043 0.0674231 0 0 0 -7.58248e-06 1.35223e-05 -3.56721e-06 2.33749e-05 1.17998e-05 -8.06884e-06 -0.000674537 -0.00184999 0.00290248 0.011 594.734 -1.49133 0.999936 -1.81395e-06 
232 1 0.0333493 0.0175473 0.0819477 0 0 0 1.36838e-05 1.67751e-06 -4.29923e-06 6.26294e-05 1.10301e-05 -3.36688e-05 0.000308146 0.000107679 0.00113876 0.011 594.746 -1.48154 0.999936 -1.81395e-06 
103 1 0.0862822 0.0167714 0.0676297 0 0 0 0.00132269 -0.000289864 2.15389e-05 0.000649286 -0.000360728 0.000137912 -0.032624 -0.151187 0.266455 0.011 593.81 -1.73799 0.999921 -2.22345e-06 
153 1 0.0266115 0.0487993 0.0697446 0 0 0 -9.56824e-06 -1.17648e-06 -6.96564e-06 -5.23657e-06 1.35931e-05 -2.07884e-05 0.000627096 0.000914584 -0.00116444 0.011 594.847 -1.44029 0.999936 -1.81395e-06 
140 1 0.0580431 0.036244 0.0784896 0 0 0 -2.16804e-05 -3.41363e-05 1.06954e-05 9.22829e-05 -0.000127571 8.66156e-06 0.00276136 0.000124541 -0.00687549 0.011 594.016 -1.63782 0.999921 -2.22345e-06 
189 1 0.081033 0.0376039 0.0723373 0 0 0 -2.87644e-05 -7.61877e-05 -4.08179e-05 7.03338e-05 -0.000143226 -5.07935e-05 -0.00644288 0.00111384 -0.0207824 0.011 593.922 -1.68453 0.999921 -2.22345e-06 
200 1 0.0104473 0.0513289 0.0831931 0 0 0 -5.52409e-07 1.96386e-06 -4.52849e-07 -2.77785e-08 1.48773e-05 -1.94164e-06 -0.000447208 -3.43027e-05 0.000371589 0.011 595.142 -1.36922 0.999941 -1.65209e-06 
157 1 0.056035 0.0559521 0.0707413 0 0 0 1.79762e-05 -1.60692e-05 -4.40449e-07 7.82094e-05 -1.86441e-05 1.15255e-05 -0.00165201 0.0036766 -6.11769e-05 0.011 594.867 -1.45515 0.999938 -1.76669e-06 
14 1 0.0104601 0.0722668 0.0801956 0 0 0 5.80265e-07 -1.01204e-06 -2.46246e-06 -8.96102e-08 4.38819e-06 -1.15086e-07 0.000221355 0.000260474 -0.000344666 0.011 595.186 -1.35081 0.999941 -1.65209e-06 
69 1 0.0401961 0.0684199 0.0785536 0 0 0 1.24326e-05 -8.27697e-07 2.06097e-06 2.16638e-05 -7.37307e-06 -6.74337e-06 -0.000486555 -0.00159693 0.000297337 0.011 595.178 -1.35369 0.999941 -1.65209e-06 
85 1 0.0738157 0.0699135 0.0696549 0 0 0 -4.62513e-05 -9.74687e-05 1.5353e-05 -0.000141931 -0.000199323 3.56557e-05 0.00292007 -0.00730115 -0.0131079 0.011 594.924 -1.42218 0.999938 -1.76669e-06 
209 1 0.0105732 0.0898516 0.0690399 0 0 0 2.18555e-06 2.39176e-07 -9.26809e-08 9.92832e-06 5.95587e-06 -3.99397e-06 4.06639e-05 -8.2581e-06 0.000147449 0.011 595.164 -1.36709 0.999941 -1.65209e-06 
127 1 0.0374768 0.0896615 0.0753396 0 0 0 7.23679e-06 -1.25947e-06 -2.34756e-06 2.6741e-05 1.80604e-06 -1.13713e-05 0.000174093 0.000296582 0.000408086 0.011 595.16 -1.36453 0.999941 -1.65209e-06 
183 1 0.0653195 0.089687 0.0712208 0 0 0 2.91205e-05 -1.66584e-05 3.47486e-06 6.04288e-05 -4.49202e-05 3.74881e-05 -0.000562109 -0.000975057 0.0021758 0.011 594.929 -1.4185 0.999938 -1.76669e-06 
194 1 0.0893174 0.0897644 0.0700223 0 0 0 -1.20957e-06 -2.3962e-06 -3.4348e-06 -3.13578e-06 5.32673e-06 2.48859e-08 0.000245701 -0.000280276 1.52854e-06 0.011 594.911 -1.43143 0.999938 -1.76669e-06 
187 1 0.0105525 0.010344 0.0908405 0 0 0 1.85123e-06 9.15735e-07 -3.13501e-07 1.37904e-05 1.01183e-05 1.08576e-06 -4.70053e-06 7.77844e-05 -6.5414e-05 0.011 594.815 -1.44671 0.999936 -1.81395e-06 
229 1 0.0867749 0.00985429 0.0875225 0 0 0 0.000201935 6.10812e-06 0.00010522 0.000331476 2.17225e-05 0.000210927 0.00937023 -0.033233 -0.0140496 0.011 593.925 -1.67567 0.999921 -2.22345e-06 
58 1 0.0107792 0.0316266 0.091042 0 0 0 3.82347e-06 1.2704e-06 2.54143e-06 2.53162e-05 1.85307e-05 1.07087e-05 0.000175052 -0.000501456 1.24646e-05 0.011 594.84 -1.43547 0.999936 -1.81395e-06 
53 1 0.0528124 0.0187827 0.0909103 0 0 0 3.09655e-05 -7.06157e-05 1.71698e-06 0.000153991 -0.000179692 -6.00847e-05 -0.00332915 -0.000624072 -0.0101057 0.011 593.988 -1.64233 0.999921 -2.22345e-06 
167 1 0.0729389 0.0255424 0.0880501 0 0 0 4.52643e-05 -2.52123e-05 -2.05953e-05 0.000205465 -4.0239e-05 1.59038e-05 0.0025385 0.00222063 0.0151047 0.011 593.885 -1.68472 0.999921 -2.22345e-06 
49 1 0.0307598 0.0381403 0.0876067 0 0 0 8.37595e-06 1.61583e-07 -8.36219e-06 6.57902e-05 1.4812e-05 -4.63597e-05 -0.000743696 0.00171074 8.08188e-05 0.011 594.825 -1.44351 0.999936 -1.81395e-06 
39 1 0.0897532 0.0377303 0.0918725 0 0 0 -1.68665e-05 7.7351e-06 -2.01155e-05 2.0134e-05 0.000113921 1.39394e-05 -0.00317886 -0.00157728 -0.00279267 0.011 594.018 -1.63107 0.999921 -2.22345e-06 
102 1 0.0284125 0.0591565 0.0943177 0 0 0 5.54582e-06 4.50005e-07 -8.36327e-06 1.56354e-05 1.81616e-05 -5.07604e-05 0.000409615 0.00101375 0.000372534 0.011 595.178 -1.35449 0.999941 -1.65209e-06 
47 1 0.0478012 0.0509478 0.0901428 0 0 0 1.18417e-05 -4.16706e-09 4.6716e-06 7.86173e-05 1.33997e-06 -6.77388e-06 -0.000535338 -0.00349938 -0.00056395 0.011 595.069 -1.4046 0.999941 -1.65209e-06 
255 1 0.0724636 0.0532982 0.0843297 0 0 0 4.71317e-05 1.38696e-06 -4.14065e-05 6.01932e-05 -4.46472e-06 -0.000119729 0.00516628 -0.00170779 0.00609099 0.011 594.841 -1.4619 0.999938 -1.76669e-06 
260 1 0.0897754 0.0584181 0.0958564 0 0 0 3.06456e-06 7.48297e-06 -1.22855e-05 2.77792e-05 7.0067e-06 -1.87284e-05 0.00166725 -0.00134764 -0.000601285 0.011 594.871 -1.44587 0.999938 -1.76669e-06 
93 1 0.070256 0.0726132 0.0941211 0 0 0 -1.24761e-06 -8.78993e-06 -1.29616e-06 9.62752e-06 -1.078e-05 -6.60319e-06 -0.000806709 0.000587381 -0.000519841 0.011 594.93 -1.4173 0.999938 -1.76669e-06 
133 1 0.0892945 0.0761741 0.0853098 0 0 0 1.23276e-06 3.70663e-07 -2.83519e-06 -5.78631e-06 9.13753e-07 -1.81027e-05 -0.000689299 -0.000406472 0.0012408 0.011 594.927 -1.41993 0.999938 -1.76669e-06 
256 1 0.0207002 0.0893786 0.088347 0 0 0 3.478e-06 -2.41652e-06 -9.71825e-07 1.00829e-05 -2.32903e-07 -7.23666e-06 2.25898e-05 -0.000201412 7.18135e-05 0.011 595.189 -1.3484 0.999941 -1.65209e-06 
6 1 0.0531513 0.0837577 0.0878227 0 0 0 8.55835e-06 -4.96076e-06 -3.16598e-06 1.29102e-05 -3.38812e-07 -6.7107e-06 -0.000871411 -0.000402236 -0.0011263 0.011 594.959 -1.40409 0.999938 -1.76669e-06 
246 1 0.0105974 0.0104825 0.112181 0 0 0 1.49689e-06 1.61816e-06 -6.71095e-07 8.9168e-06 1.19588e-05 -5.311e-06 4.36124e-05 3.42514e-05 0.000133471 0.011 594.91 -1.42476 0.999936 -1.78629e-06 
149 1 0.0295164 0.0106074 0.101698 0 0 0 7.52881e-06 -4.96779e-07 -4.07637e-06 4.13881e-05 7.31874e-06 -3.45598e-05 -0.00056703 -0.000225867 -0.000818944 0.011 594.818 -1.44625 0.999936 -1.81395e-06 
156 1 0.0493607 0.0107078 0.110755 0 0 0 -2.09712e-06 -4.25784e-06 4.17862e-06 2.31988e-05 -4.57357e-07 -2.46882e-05 -0.000305497 -0.000193855 -0.000151215 0.011 594.89 -1.43447 0.999936 -1.78629e-06 
91 1 0.0702186 0.0100989 0.101861 0 0 0 3.87602e-05 -7.15722e-06 -2.77095e-05 0.00012823 -6.37056e-06 -3.37556e-05 -0.00197715 -0.00657344 -0.00493561 0.011 594.03 -1.62468 0.999921 -2.22345e-06 
241 1 0.090105 0.0104338 0.108608 0 0 0 -1.44824e-05 -2.43729e-05 3.67911e-05 1.84336e-05 -4.91149e-05 9.05855e-05 -0.00201298 0.00438077 0.00182262 0.011 595.099 -1.40857 0.999942 -1.61611e-06 
139 1 0.0164451 0.0310478 0.111083 0 0 0 -7.68764e-07 4.24438e-07 1.59173e-06 3.00114e-06 1.42001e-05 8.76864e-06 2.2726e-05 6.93527e-05 6.39247e-05 0.011 594.912 -1.42367 0.999936 -1.78629e-06 
249 1 0.0399563 0.0294893 0.104762 0 0 0 1.83354e-05 1.90895e-06 -7.72009e-06 0.000106259 2.1753e-05 -7.04466e-05 0.000791236 -0.00224825 0.00102021 0.011 594.781 -1.46187 0.999936 -1.81395e-06 
5 1 0.0298506 0.0496365 0.113931 0 0 0 -8.84861e-07 -3.06854e-06 -2.38207e-06 -4.37265e-07 3.46986e-06 -1.79905e-05 0.000138176 -0.00157902 -9.1944e-06 0.011 594.956 -1.40272 0.999936 -1.78629e-06 
148 1 0.0510909 0.0484009 0.111522 0 0 0 -1.22679e-07 -7.3747e-07 -6.18707e-06 -2.18857e-06 2.68885e-05 -1.54033e-05 0.000980401 0.00225488 -5.71485e-06 0.011 595.165 -1.37844 0.999942 -1.61611e-06 
122 1 0.0693585 0.0412558 0.102363 0 0 0 -1.4786e-05 -2.53435e-05 -1.81084e-05 -5.59739e-05 -2.75843e-05 -7.35095e-05 -0.00335863 -0.00127873 -0.00338996 0.011 594.026 -1.62427 0.999921 -2.22345e-06 
254 1 0.0886852 0.0446666 0.111889 0 0 0 -4.13404e-06 -1.62153e-06 -2.12474e-05 1.74992e-05 1.21186e-05 4.92801e-06 0.000904784 0.00175163 0.0013093 0.011 595.106 -1.40364 0.999942 -1.61611e-06 
251 1 0.0105104 0.0513846 0.105022 0 0 0 1.84042e-06 1.38874e-07 -6.36837e-06 8.34568e-06 -5.93562e-06 -3.10997e-05 0.000762826 0.000663462 4.55913e-05 0.011 595.177 -1.35238 0.999941 -1.65209e-06 
23 1 0.0687589 0.0608119 0.111981 0 0 0 2.7089e-06 -5.47362e-06 -1.11466e-05 1.29243e-06 3.6648e-06 -3.55917e-05 0.0013532 8.66693e-05 0.000286251 0.011 594.924 -1.41738 0.999936 -1.78826e-06 
84 1 0.0135712 0.0732812 0.100604 0 0 0 2.19013e-06 -2.87401e-06 -1.96189e-06 6.39056e-07 9.79457e-06 1.31322e-06 -0.000136187 -0.000213141 0.000125098 0.011 595.096 -1.38918 0.999941 -1.65209e-06 
219 1 0.0316303 0.0712555 0.112523 0 0 0 1.18144e-06 -1.29161e-06 -3.57059e-07 -1.58513e-05 1.75296e-05 2.55066e-07 -5.07231e-05 -0.00020862 -5.88832e-05 0.011 594.664 -1.47002 0.999931 -1.93847e-06 
59 1 0.0506528 0.0683145 0.102675 0 0 0 -1.79936e-06 8.33296e-07 2.73268e-06 -9.71958e-06 2.7267e-05 9.91806e-06 0.0001881 0.000191312 -0.000201673 0.011 594.937 -1.41434 0.999938 -1.76669e-06 
158 1 0.0876353 0.071153 0.112628 0 0 0 4.10535e-07 -3.84038e-06 -4.79801e-06 -1.83725e-05 6.52042e-06 -2.15554e-05 -8.37888e-06 0.000188388 -0.000143594 0.011 594.919 -1.41968 0.999936 -1.78826e-06 
176 1 0.0106112 0.0894532 0.11474 0 0 0 3.64859e-07 -6.35262e-07 -1.90705e-06 -3.52801e-07 3.66256e-06 2.08821e-06 8.49611e-05 0.000185672 4.59436e-06 0.011 594.604 -1.49998 0.999931 -1.93847e-06 
128 1 0.0375945 0.0892798 0.10211 0 0 0 3.66317e-06 5.06244e-07 -2.22557e-06 1.49617e-06 1.15866e-05 -2.67274e-06 0.000233951 0.00017847 0.000361643 0.011 595.157 -1.36212 0.999941 -1.65209e-06 
37 1 0.0633713 0.0898718 0.105257 0 0 0 3.25566e-06 -2.62426e-06 -2.71606e-06 4.60857e-06 -4.46086e-06 -6.45826e-06 0.000263497 -0.000326238 0.000253933 0.011 594.918 -1.4222 0.999938 -1.76669e-06 
211 1 0.0861905 0.0895477 0.101445 0 0 0 -2.91955e-06 5.71114e-07 -2.81381e-06 -1.52839e-05 -1.84822e-06 3.83323e-07 0.000324932 0.000743552 -0.000200633 0.011 594.931 -1.41659 0.999938 -1.76669e-06 
250 1 0.0102781 0.0141815 0.133064 0 0 0 -6.55138e-07 -4.80606e-07 4.4237e-07 4.75428e-06 4.87026e-06 -3.41279e-06 0.000322827 -0.000236345 -2.3953e-05 0.011 594.924 -1.41754 0.999936 -1.78629e-06 
87 1 0.0293515 0.0106169 0.123275 0 0 0 2.05132e-07 1.86597e-06 -1.01772e-07 1.13771e-05 1.24618e-05 -1.4159e-05 0.000144306 -0.000143248 5.05724e-05 0.011 594.918 -1.42015 0.999936 -1.78629e-06 
48 1 0.0483702 0.015443 0.131908 0 0 0 -2.21151e-06 -1.08188e-06 2.73011e-06 -2.40265e-06 3.39554e-06 -1.89079e-05 -0.000206534 -0.000263954 -0.000498791 0.011 594.96 -1.40172 0.999936 -1.78629e-06 
215 1 0.0672508 0.0102566 0.123154 0 0 0 -5.82821e-06 9.71379e-07 -5.13368e-06 -1.20074e-05 9.3352e-06 -3.54647e-05 0.000740956 0.0010658 0.000457823 0.011 595.182 -1.36943 0.999942 -1.61611e-06 
242 1 0.0894602 0.0110433 0.129594 0 0 0 1.15327e-05 4.06863e-08 1.6529e-05 3.56457e-05 8.39518e-06 4.79976e-05 -0.000319195 -0.000369427 2.3239e-05 0.011 595.283 -1.32449 0.999942 -1.61611e-06 
175 1 0.0589644 0.029188 0.117545 0 0 0 -2.72204e-06 -1.12972e-06 -7.92528e-06 -1.93236e-06 6.09911e-06 -6.20332e-05 -0.00115839 -7.92574e-05 -0.000334996 0.011 595.247 -1.34158 0.999942 -1.61611e-06 
72 1 0.079909 0.0263685 0.116905 0 0 0 -1.85929e-06 -8.65864e-06 3.6995e-06 1.21866e-05 -1.24e-05 -1.35872e-05 -0.00226032 -0.00102585 -0.000940618 0.011 595.265 -1.33714 0.999942 -1.61611e-06 
82 1 0.0108149 0.0371685 0.130156 0 0 0 2.5846e-08 -2.57801e-07 6.74686e-07 4.87411e-06 1.59479e-06 7.20408e-06 6.65872e-06 5.22881e-06 4.83405e-06 0.011 594.897 -1.42987 0.999936 -1.78629e-06 
227 1 0.0401914 0.0345463 0.125454 0 0 0 -2.77278e-06 -1.22231e-06 -2.15695e-06 -4.89848e-08 4.98055e-06 -2.78246e-05 -0.000159633 0.000745304 0.000557859 0.011 594.939 -1.41152 0.999936 -1.78629e-06 
67 1 0.071798 0.0446658 0.125605 0 0 0 5.57675e-07 -4.76158e-06 -1.22382e-05 -1.30967e-05 -7.15108e-06 -6.0625e-05 -0.000442198 -0.000622526 -0.000195365 0.011 595.262 -1.33372 0.999942 -1.61611e-06 
24 1 0.0895722 0.0350318 0.133289 0 0 0 -2.53427e-06 -1.13825e-06 -1.36069e-06 -1.49292e-05 -1.57738e-06 -1.19756e-05 0.000322245 -4.47637e-05 6.88764e-05 0.011 595.291 -1.31917 0.999942 -1.61611e-06 
151 1 0.0511769 0.0661471 0.124509 0 0 0 5.9281e-07 -2.40382e-06 -1.72729e-06 -3.12484e-06 8.02168e-06 3.865e-05 -0.00028188 -0.000205705 0.000852255 0.011 594.918 -1.41952 0.999936 -1.78826e-06 
205 1 0.0897515 0.0571845 0.12885 0 0 0 -9.82007e-07 -6.60189e-06 -7.9869e-06 -1.29541e-05 -1.76097e-06 -8.23362e-06 0.000267332 -0.00046456 0.000375738 0.011 594.954 -1.40394 0.999936 -1.78826e-06 
66 1 0.0105907 0.0685175 0.120378 0 0 0 -1.49674e-07 -9.18946e-07 -1.25598e-06 -2.18511e-06 2.72447e-06 2.24997e-07 -8.8321e-05 2.38798e-05 -6.90887e-05 0.011 594.631 -1.48761 0.999931 -1.93847e-06 
154 1 0.0700192 0.079827 0.122025 0 0 0 2.37731e-06 -4.80584e-06 -2.80073e-06 -7.34653e-07 -4.69518e-06 3.53393e-06 -0.000145132 0.000124234 -2.19795e-05 0.011 594.921 -1.41812 0.999936 -1.78826e-06 
113 1 0.0279077 0.0892589 0.127595 0 0 0 1.20279e-06 -3.57043e-07 -2.3033e-06 -5.34244e-06 2.55216e-06 8.19698e-06 0.00013544 -0.000136985 0.000108528 0.011 594.576 -1.51321 0.999931 -1.93847e-06 
57 1 0.0486653 0.0879581 0.121141 0 0 0 1.80275e-06 -2.20408e-06 -3.48626e-06 -3.10429e-06 -9.23554e-06 3.81713e-06 -0.000192233 0.00019587 -0.000316875 0.011 594.603 -1.50003 0.999931 -1.93847e-06 
226 1 0.0894243 0.0898456 0.122582 0 0 0 1.59546e-06 -1.99255e-06 -2.57954e-06 -6.33104e-07 -1.06427e-06 1.09949e-08 7.77449e-05 -0.000179901 0.000149352 0.011 594.92 -1.41893 0.999936 -1.78826e-06 
115 1 0.03491 0.00967718 0.147787 0 0 0 -1.90103e-06 -8.42317e-08 3.14543e-06 4.89835e-06 4.32394e-08 -6.38286e-06 0.000292089 0.000375543 0.000191674 0.011 594.933 -1.41139 0.999936 -1.78629e-06 
137 1 0.0807293 0.0101882 0.14847 0 0 0 1.72515e-06 3.18128e-07 5.12828e-06 1.02826e-05 -1.94854e-06 1.5881e-05 0.000289662 -0.000570772 -0.000144076 0.011 595.277 -1.32561 0.999942 -1.61611e-06 
134 1 0.0263022 0.026274 0.139305 0 0 0 -1.39729e-06 -7.10906e-07 3.72623e-06 8.78091e-06 1.59025e-06 -3.76092e-06 -0.000309578 -0.000278116 -0.000171358 0.011 594.925 -1.4167 0.999936 -1.78629e-06 
129 1 0.0507487 0.0308358 0.146557 0 0 0 -6.99526e-07 -8.88915e-07 -2.09255e-07 1.5937e-07 -7.63567e-06 -1.86983e-05 -0.000116334 0.000107482 5.17632e-05 0.011 595.233 -1.3439 0.999942 -1.61611e-06 
75 1 0.0700299 0.0264403 0.137485 0 0 0 -1.35932e-06 -1.89196e-06 -1.95332e-06 -8.31701e-06 -7.87534e-06 -4.39123e-05 -0.000251632 0.000195122 6.12148e-05 0.011 595.291 -1.31901 0.999942 -1.61611e-06 
198 1 0.0289126 0.0475849 0.137647 0 0 0 -7.78876e-07 -1.06734e-06 2.7774e-07 5.48612e-06 1.76411e-07 -4.39694e-06 -0.000156454 5.83274e-05 -2.45571e-05 0.011 594.873 -1.43933 0.999936 -1.78629e-06 
244 1 0.0620007 0.0485665 0.144291 0 0 0 -1.98603e-06 -1.06966e-06 -6.4013e-06 -1.8521e-06 -1.28513e-05 -3.83606e-05 -5.16373e-05 0.000506539 2.57027e-05 0.011 595.238 -1.34373 0.999942 -1.61611e-06 
135 1 0.0847496 0.0491527 0.148405 0 0 0 1.005e-06 -1.43596e-06 -3.40874e-06 2.80966e-06 -3.36989e-06 -8.31337e-06 -0.000423922 0.000516626 -0.00022196 0.011 595.25 -1.33794 0.999942 -1.61611e-06 
71 1 0.00991285 0.0567029 0.137455 0 0 0 -2.25498e-07 -7.14004e-08 -1.52311e-07 1.36525e-06 6.34736e-07 -1.24737e-06 -6.23419e-05 5.18067e-06 -1.50448e-05 0.011 594.634 -1.48453 0.999931 -1.93847e-06 
10 1 0.0453628 0.0626077 0.145416 0 0 0 -1.11376e-06 -9.65652e-07 -2.18743e-06 -2.3308e-07 -6.79208e-06 2.75201e-06 5.81992e-05 1.99643e-06 4.82576e-05 0.011 594.636 -1.48368 0.999931 -1.93847e-06 
17 1 0.0720912 0.0654342 0.136838 0 0 0 -2.45371e-07 -4.48097e-06 -5.56332e-06 -2.10682e-06 -2.61914e-06 -8.76269e-06 0.00033257 0.000251771 -0.000694759 0.011 594.944 -1.40793 0.999936 -1.78826e-06 
29 1 0.0105463 0.0805231 0.137848 0 0 0 1.04333e-06 4.30669e-07 -1.96871e-06 -5.34333e-06 5.99465e-07 3.2628e-06 -8.69221e-05 0.000157481 2.48001e-05 0.011 594.581 -1.50962 0.999931 -1.93847e-06 
132 1 0.0280517 0.0685318 0.133569 0 0 0 -6.41678e-08 -8.01965e-07 -1.9736e-06 -6.05233e-06 2.03238e-06 -1.82799e-07 -8.67879e-05 3.06139e-05 -0.000122118 0.011 594.601 -1.5004 0.999931 -1.93847e-06 
170 1 0.0351466 0.0822769 0.148399 0 0 0 -2.04992e-07 -5.62606e-07 -2.10291e-06 -2.936e-06 1.26381e-07 -3.09735e-06 0.000199867 0.000209417 0.000437592 0.011 594.581 -1.5109 0.999931 -1.93847e-06 
173 1 0.0556907 0.0812712 0.14068 0 0 0 1.05418e-08 -5.26199e-07 -2.37346e-06 5.52749e-06 -1.25974e-05 1.2401e-06 -0.000174016 -0.00020465 -0.000214156 0.011 594.888 -1.43524 0.999936 -1.78826e-06 
50 1 0.0799644 0.0848744 0.140416 0 0 0 1.33275e-06 -2.94617e-06 -2.93122e-06 5.03124e-06 -5.70943e-06 3.6751e-06 -0.000150552 -0.000128122 0.000371985 0.011 594.918 -1.42 0.999936 -1.78826e-06 
252 1 0.011437 0.0115072 0.154228 0 0 0 -0.000227055 -0.000120118 -1.73564e-06 -6.01784e-06 -1.38252e-06 8.05692e-08 -0.0125282 0.0330143 -0.423995 0.011 594.954 -1.40222 0.999936 -1.78629e-06 
101 1 0.0483183 0.0164206 0.161939 0 0 0 -5.80575e-07 -2.81965e-08 9.08767e-07 6.57357e-06 2.29376e-06 -7.60224e-06 -6.02098e-05 -5.05404e-05 -2.81849e-05 0.011 595.025 -1.37273 0.999936 -1.78629e-06 
171 1 0.0681594 0.0101683 0.164894 0 0 0 -1.2023e-06 5.92295e-08 1.129e-06 2.15124e-06 3.25498e-08 5.41277e-07 -3.13021e-05 -5.61606e-06 3.96896e-05 0.011 595.221 -1.34834 0.999942 -1.61611e-06 
248 1 0.089461 0.0287927 0.153384 0 0 0 1.98021e-07 -4.46932e-08 1.83417e-06 1.08951e-06 -3.39697e-06 -1.00848e-06 -0.000489661 0.00018848 6.11213e-05 0.011 595.272 -1.32737 0.999942 -1.61611e-06 