ITEM: TIMESTEP
180000
ITEM: NUMBER OF ATOMS
1005
ITEM: BOX BOUNDS mm mm mm
0 0.1
0 0.1
0 1.1
ITEM: ATOMS id type x y z ix iy iz vx vy vz fx fy fz omegax omegay omegaz radius f_Temp[0] f_heatFlux[0] f_speciesC[0] f_speciesCFlux[0] 
152 1 0.0254471 0.0104911 0.0102219 0 0 0 2.09628e-06 1.82113e-06 3.25421e-06 -8.16032e-07 2.14587e-07 -4.03789e-07 -0.000116364 -0.000237682 0.000156559 0.011 591.855 -2.27758 0.999937 -3.01698e-06 
97 1 0.010096 0.0228961 0.0166306 0 0 0 -1.64263e-07 1.0061e-06 -4.93135e-07 -5.38042e-07 5.88764e-07 -9.67083e-08 -0.00015123 2.15726e-05 8.99973e-05 0.011 591.892 -2.25062 0.999937 -3.01698e-06 
231 1 0.0360321 0.0295064 0.0103018 0 0 0 -3.61464e-06 4.1589e-06 -3.12108e-06 -5.23061e-06 2.99642e-06 -1.23534e-06 -0.000480615 -0.000209979 0.000352101 0.011 591.864 -2.27055 0.999937 -3.01698e-06 
89 1 0.0620408 0.0171549 0.0104267 0 0 0 1.17033e-05 -7.16833e-07 -9.17111e-06 -1.40993e-06 -1.517e-07 -1.83e-07 7.57437e-05 0.00058399 0.0010463 0.011 590.712 -2.57369 0.999926 -3.53242e-06 
216 1 0.0812366 0.0269588 0.00999757 0 0 0 9.5822e-06 9.8832e-06 -2.70184e-05 -8.53581e-07 -5.91151e-07 -1.06832e-06 -0.00177237 0.00171517 0.00016471 0.011 590.654 -2.59888 0.999926 -3.53243e-06 
155 1 0.0150044 0.0423283 0.0103381 0 0 0 1.00201e-06 -6.7648e-09 -1.17752e-06 -2.07117e-06 1.22752e-06 4.97111e-07 6.22402e-06 8.60833e-05 -0.000254633 0.011 591.898 -2.25373 0.999937 -3.01698e-06 
79 1 0.0644509 0.0460878 0.0105439 0 0 0 1.75042e-05 6.3238e-06 6.99023e-06 -2.46474e-06 7.38497e-07 -9.93472e-07 -7.79504e-05 0.000381968 -0.0031245 0.011 590.914 -2.4678 0.999926 -3.53241e-06 
180 1 0.0339228 0.0582286 0.0104706 0 0 0 2.10199e-06 1.01715e-06 -6.89924e-07 -7.93787e-07 1.55908e-06 4.80424e-07 -6.9331e-05 0.000204981 7.15062e-05 0.011 592.335 -2.13608 0.999941 -2.82326e-06 
33 1 0.0814149 0.0599215 0.0102632 0 0 0 4.2927e-05 4.41885e-05 -2.40204e-05 -8.80858e-08 1.59219e-06 -1.53859e-06 -0.00344257 0.00460733 0.00636461 0.011 592.852 -2.01206 0.999946 -2.57733e-06 
2 1 0.0105505 0.0718176 0.00973647 0 0 0 7.43199e-07 -1.78495e-07 -4.00777e-07 -5.62157e-07 1.06761e-06 -3.17083e-07 4.53056e-05 7.01277e-05 1.92891e-05 0.011 592.339 -2.13313 0.999941 -2.82326e-06 
30 1 0.0423262 0.0807624 0.0100002 0 0 0 1.50515e-06 3.62096e-07 -2.23282e-07 -1.63046e-06 8.43887e-07 -1.15376e-07 -3.88558e-05 0.000144978 -0.000229611 0.011 592.372 -2.11845 0.999941 -2.82326e-06 
253 1 0.0601191 0.0675845 0.0106248 0 0 0 1.11213e-05 4.58061e-06 -2.55812e-06 -1.51552e-06 5.15184e-07 -7.0829e-07 -0.000324554 0.000605034 0.00155156 0.011 592.866 -2.00537 0.999946 -2.57732e-06 
25 1 0.0890675 0.080156 0.00996876 0 0 0 -4.80284e-06 2.51667e-05 -1.59055e-05 2.32836e-07 -9.8037e-08 -6.53245e-07 -8.51844e-05 -0.0012444 -0.00265781 0.011 592.931 -1.9696 0.999946 -2.57733e-06 
233 1 0.0222916 0.0895166 0.0118686 0 0 0 6.1388e-07 2.42704e-07 5.65605e-08 -8.3951e-07 6.04982e-07 -9.3953e-07 -3.25631e-06 -8.53418e-05 7.11694e-05 0.011 592.327 -2.14251 0.999941 -2.82326e-06 
192 1 0.0689574 0.0890005 0.0109518 0 0 0 2.38808e-06 1.4572e-05 -4.31006e-06 -1.64786e-06 -2.70147e-06 -2.37373e-07 -0.00109545 0.000660166 0.00278978 0.011 592.92 -1.97759 0.999946 -2.57732e-06 
166 1 0.0440592 0.0107331 0.0202806 0 0 0 1.56112e-05 2.49931e-06 1.39363e-06 -2.01851e-06 -1.28749e-06 -2.17097e-06 -0.00056865 0.00155313 -0.000972071 0.011 591.726 -2.33824 0.999937 -3.01698e-06 
203 1 0.0627286 0.0103235 0.0310024 0 0 0 2.02801e-05 -2.95099e-06 -7.36716e-06 -9.0333e-06 1.157e-06 1.75254e-06 -0.000975489 -0.00108796 -0.00112504 0.011 590.744 -2.54972 0.999926 -3.53242e-06 
234 1 0.0888449 0.0102819 0.020733 0 0 0 1.52033e-05 1.19478e-05 -1.43872e-05 -7.03188e-06 -2.36797e-07 5.01787e-06 -0.00151959 0.00125198 -0.00169623 0.011 590.646 -2.60532 0.999926 -3.53242e-06 
22 1 0.0674542 0.0308918 0.0259845 0 0 0 -5.49908e-07 -5.76777e-06 -1.04375e-05 -7.17159e-06 3.0252e-06 -1.10765e-06 0.00233258 -0.000385695 0.000995817 0.011 590.76 -2.5389 0.999926 -3.53242e-06 
104 1 0.0246176 0.0349091 0.0292673 0 0 0 2.10828e-06 4.74008e-06 -2.53012e-06 -6.25321e-06 3.71556e-06 7.45483e-08 0.000379832 0.000225079 -4.36052e-05 0.011 591.915 -2.23737 0.999937 -3.01698e-06 
35 1 0.0463014 0.0343864 0.0280734 0 0 0 -1.42914e-06 -4.41728e-06 -8.44373e-06 -7.88301e-06 5.48722e-06 -2.02856e-06 0.000603776 0.000352976 -0.00150089 0.011 591.921 -2.23797 0.999937 -3.01699e-06 
147 1 0.0896084 0.0357648 0.027077 0 0 0 -9.17666e-06 5.00494e-05 -7.25979e-05 -3.32901e-06 4.77101e-07 -5.51092e-06 -0.00318723 -0.00641169 -0.0030444 0.011 590.852 -2.49676 0.999926 -3.53246e-06 
8 1 0.0158777 0.0580096 0.0245511 0 0 0 3.0877e-06 -2.88972e-07 -1.62846e-06 -3.96613e-06 2.91602e-06 4.39377e-07 4.51058e-05 1.18715e-05 8.31572e-05 0.011 592.278 -2.16024 0.999941 -2.82326e-06 
63 1 0.0362745 0.0531949 0.0311919 0 0 0 7.23305e-06 7.66743e-07 -2.34974e-06 -4.64549e-06 2.98384e-06 1.27192e-06 6.18508e-05 0.00022347 0.00018238 0.011 592.47 -2.07568 0.999941 -2.82326e-06 
99 1 0.0576214 0.0556965 0.0284733 0 0 0 1.46803e-05 1.88907e-05 -1.92027e-06 -2.43347e-06 1.16581e-06 -2.74059e-07 -0.00110696 -0.00130092 0.00144852 0.011 592.88 -1.99958 0.999946 -2.57732e-06 
224 1 0.0871998 0.0564714 0.0302937 0 0 0 1.60451e-05 5.82756e-05 -5.76636e-05 -1.32666e-06 1.11077e-06 -4.55256e-06 0.00564002 -0.0099457 -0.00524144 0.011 592.808 -2.02521 0.999946 -2.57735e-06 
126 1 0.0103593 0.0787914 0.0293285 0 0 0 4.18842e-07 -5.24587e-08 -6.06489e-07 -9.78556e-07 1.36416e-06 -1.96026e-07 -9.8584e-05 -4.05565e-05 1.57166e-05 0.011 592.573 -2.02332 0.999941 -2.82326e-06 
163 1 0.030822 0.0731114 0.0256597 0 0 0 2.01833e-06 9.9003e-07 -8.99261e-08 -2.11542e-06 2.02759e-06 -3.1583e-07 0.000104308 -2.04508e-05 0.000122268 0.011 592.378 -2.1058 0.999941 -2.82326e-06 
12 1 0.0744996 0.0734405 0.0257569 0 0 0 2.36649e-05 3.52902e-05 -2.498e-05 4.92556e-07 6.67965e-07 -1.5105e-06 0.00158676 0.00321467 0.00516714 0.011 592.928 -1.97201 0.999946 -2.57733e-06 
257 1 0.053155 0.0892636 0.0262312 0 0 0 1.99765e-06 1.41809e-06 -8.83014e-07 -1.51234e-06 7.85531e-07 -2.52834e-07 -7.56294e-05 -0.000104695 0.000303793 0.011 592.889 -1.9903 0.999946 -2.57732e-06 
243 1 0.0892875 0.0891904 0.0286319 0 0 0 -1.04162e-06 1.66445e-05 -8.74159e-06 -4.89006e-07 2.297e-07 -6.57595e-07 0.00136788 -0.000378298 -0.00145089 0.011 593.095 -1.89172 0.999946 -2.57733e-06 
223 1 0.0366958 0.0106919 0.0405208 0 0 0 3.45922e-05 1.13297e-05 1.96561e-05 -9.85733e-06 -4.80615e-07 -2.95058e-06 0.00166517 -0.000560363 -0.00308689 0.011 591.974 -2.21104 0.999937 -3.01697e-06 
70 1 0.0104573 0.0206616 0.0372909 0 0 0 2.84423e-06 2.39936e-06 -1.56879e-06 -1.80126e-06 1.08103e-06 -1.63422e-07 8.13324e-05 0.000227994 0.000120422 0.011 592.281 -2.06913 0.999937 -3.01698e-06 
45 1 0.0533434 0.0234861 0.0450385 0 0 0 5.99383e-05 1.97122e-05 -2.61368e-05 -1.0606e-05 6.91064e-07 -4.58802e-06 -0.0034944 0.00711803 0.00240153 0.011 591.26 -2.31309 0.999926 -3.53243e-06 
108 1 0.080921 0.0194363 0.0384442 0 0 0 3.63533e-05 9.77744e-05 -4.39279e-05 -1.11645e-05 4.0076e-06 -1.48628e-07 -0.00968671 0.00487295 0.00838238 0.011 590.908 -2.47953 0.999926 -3.53244e-06 
96 1 0.0118126 0.0470098 0.0420245 0 0 0 1.95869e-06 1.08606e-06 -2.52986e-06 -5.00918e-06 4.40096e-06 1.11674e-06 -0.000200769 -0.000239422 0.000135786 0.011 592.165 -2.12007 0.999937 -3.01698e-06 
9 1 0.0408215 0.0409414 0.0478639 0 0 0 1.88558e-05 -2.07932e-06 -2.51438e-06 -2.30008e-06 1.494e-06 9.11608e-08 -3.2018e-05 0.000710747 0.000952141 0.011 594.33 -1.6795 0.999962 -1.81369e-06 
80 1 0.0755023 0.0427478 0.0417279 0 0 0 3.47895e-05 9.93768e-05 -8.65037e-05 2.06665e-07 2.68573e-06 -6.63755e-06 -0.00912434 0.0134997 0.0112912 0.011 591.387 -2.26268 0.999926 -3.53246e-06 
146 1 0.0234892 0.0652287 0.044193 0 0 0 1.05498e-06 -3.90776e-07 -2.54264e-06 -2.04672e-06 2.31679e-06 -6.59899e-08 0.000155609 -0.000140561 -0.000113302 0.011 592.7 -1.95961 0.999941 -2.82326e-06 
182 1 0.0584021 0.0528218 0.0495944 0 0 0 8.27018e-06 2.58832e-05 -1.2016e-05 -4.05691e-07 1.26815e-07 -2.01262e-07 0.000978334 0.000124145 0.00240688 0.011 594.488 -1.63314 0.999963 -1.76197e-06 
240 1 0.0106828 0.0818064 0.0498461 0 0 0 -9.2347e-07 8.63731e-07 -1.09912e-06 -5.84982e-07 1.17322e-06 -1.01056e-07 4.69301e-06 2.18659e-05 0.000172513 0.011 594.72 -1.56705 0.999965 -1.65085e-06 
204 1 0.0466078 0.0738908 0.0406832 0 0 0 1.35554e-06 1.35542e-05 -1.28229e-06 5.93914e-07 2.23349e-06 -2.20567e-06 0.00049989 8.55298e-05 0.00205717 0.011 592.484 -2.05904 0.999941 -2.82326e-06 
78 1 0.0692246 0.0708966 0.048367 0 0 0 -3.69512e-06 2.26159e-05 -2.05536e-06 1.0301e-06 1.45214e-08 2.97929e-07 -0.000686382 -0.000348507 -0.00133578 0.011 594.759 -1.509 0.999963 -1.76197e-06 
212 1 0.0899728 0.0687316 0.0468712 0 0 0 -9.00367e-06 2.01774e-06 -1.94168e-06 -3.10402e-08 -3.16629e-07 -2.13475e-06 0.000156035 0.000536371 -0.000707209 0.011 594.716 -1.53437 0.999963 -1.76197e-06 
32 1 0.0268327 0.0897763 0.0377094 0 0 0 -9.9257e-07 9.15006e-07 2.34731e-07 -8.88552e-07 1.08454e-06 -1.23786e-07 -0.000107035 -0.000309988 -1.29361e-05 0.011 592.655 -1.98079 0.999941 -2.82326e-06 
34 1 0.0702594 0.089816 0.0390876 0 0 0 2.55263e-06 8.60841e-06 -4.04575e-06 -7.45647e-07 -2.96074e-07 -1.03704e-06 0.000320932 0.000381583 0.000454333 0.011 593.165 -1.85972 0.999946 -2.57732e-06 
217 1 0.0892415 0.0898424 0.0494501 0 0 0 -4.23476e-07 1.9338e-06 -3.20876e-06 -1.0777e-07 -1.12336e-07 -7.43041e-07 9.25528e-05 -3.83828e-05 -0.000206383 0.011 594.668 -1.54657 0.999963 -1.76197e-06 
258 1 0.0129915 0.0100017 0.0551 0 0 0 -6.13662e-07 2.0013e-06 -1.98889e-06 -3.71445e-06 5.01318e-07 -5.0946e-07 -0.000160203 -0.000636233 0.000120181 0.011 594.556 -1.57463 0.999962 -1.81369e-06 
164 1 0.0340194 0.0103403 0.0619122 0 0 0 -1.3984e-05 -4.69869e-06 1.09471e-05 -6.08126e-06 -2.36531e-07 -3.59591e-07 0.000782652 -0.00394101 0.00126765 0.011 594.619 -1.54945 0.999962 -1.81369e-06 
15 1 0.068644 0.0109518 0.0545437 0 0 0 4.35414e-05 3.88493e-05 -5.83436e-06 -2.31638e-05 1.35673e-06 3.74337e-06 0.00200075 -0.00756741 -0.00138612 0.011 593.7 -1.79226 0.999953 -2.22097e-06 
64 1 0.0256323 0.0267078 0.0511058 0 0 0 8.44495e-06 -2.06817e-06 5.22473e-07 -3.64563e-06 6.66535e-07 1.84859e-06 -9.12327e-05 -0.000447595 -0.0010451 0.011 594.582 -1.56977 0.999962 -1.81369e-06 
191 1 0.0895754 0.031879 0.0533683 0 0 0 -1.66882e-05 0.000125824 -6.25086e-05 -3.23768e-06 2.16682e-06 -7.22844e-06 0.00256366 -0.0258756 -0.0250526 0.011 593.431 -1.91077 0.999953 -2.22098e-06 
199 1 0.0102991 0.0380888 0.0609956 0 0 0 7.25506e-07 3.7108e-06 -2.6024e-06 -1.35402e-06 1.94029e-06 1.61998e-07 -5.80926e-05 -8.59495e-05 0.000214052 0.011 594.571 -1.5661 0.999962 -1.81369e-06 
123 1 0.0652331 0.0343307 0.0585774 0 0 0 2.98353e-05 6.39294e-05 -2.72294e-05 -4.45247e-06 -2.74028e-06 -3.10737e-06 0.00182579 -0.0106291 0.00280262 0.011 593.513 -1.86375 0.999953 -2.22097e-06 
43 1 0.010601 0.0604898 0.0611542 0 0 0 8.98546e-07 2.26651e-06 -1.02646e-06 -7.02324e-07 1.28362e-06 4.76989e-08 -0.000734109 0.000109444 0.000260131 0.011 595.067 -1.40713 0.999965 -1.65085e-06 
161 1 0.0394497 0.059885 0.0574874 0 0 0 3.59573e-06 7.01498e-06 -7.27099e-06 -1.39495e-06 1.43333e-06 -1.32303e-06 -0.000912488 0.00058017 0.000586904 0.011 594.914 -1.48198 0.999965 -1.65085e-06 
92 1 0.089439 0.0558515 0.064808 0 0 0 -1.99603e-05 2.65215e-05 2.13686e-05 -7.11344e-06 -2.76531e-06 5.56084e-06 -0.00737512 0.00137903 -0.00461169 0.011 594.866 -1.45174 0.999963 -1.76197e-06 
54 1 0.0259865 0.075681 0.0637102 0 0 0 -3.41344e-06 3.55389e-06 -1.47936e-06 -5.47071e-07 1.16525e-06 -6.09632e-07 0.000444969 -0.000318632 0.000278102 0.011 595.15 -1.37404 0.999965 -1.65085e-06 
185 1 0.0534571 0.0751306 0.0613742 0 0 0 -2.75163e-06 1.36439e-05 -1.96662e-06 1.6519e-07 -8.08398e-08 -1.27538e-07 0.00103233 1.13243e-05 0.00191315 0.011 594.853 -1.46473 0.999963 -1.76197e-06 
4 1 0.0399269 0.0897065 0.0543672 0 0 0 -6.74248e-06 2.24883e-06 2.96404e-06 2.61962e-07 1.94647e-08 -4.98441e-07 -0.000229042 -0.000131642 -0.000497706 0.011 594.918 -1.47761 0.999965 -1.65085e-06 
103 1 0.0884368 0.0164017 0.0675953 0 0 0 -0.0120908 -8.62687e-07 -0.00114106 -0.00133356 0.000300912 7.17818e-05 0.29104 2.17309 -3.44443 0.011 593.811 -1.73778 0.999953 -2.22117e-06 
52 1 0.0140788 0.0209839 0.0728815 0 0 0 -1.62299e-05 2.82239e-06 -1.57e-06 -4.64425e-06 -5.31018e-08 -8.21644e-07 8.69829e-05 -0.00115984 -0.000259037 0.011 594.776 -1.47172 0.999962 -1.81369e-06 
28 1 0.040065 0.0320459 0.0674228 0 0 0 -1.31376e-05 -1.3096e-05 1.92144e-06 -4.16319e-06 -1.88846e-06 -2.38044e-07 0.000607721 -0.00285156 -0.00176917 0.011 594.732 -1.49202 0.999962 -1.81369e-06 
232 1 0.0333604 0.0175484 0.081946 0 0 0 -4.77628e-05 -4.18096e-06 8.20517e-06 -5.84498e-06 -7.4103e-07 -6.21637e-07 -0.000973271 0.000545237 -0.00152423 0.011 594.744 -1.48204 0.999962 -1.81369e-06 
153 1 0.0266103 0.0487987 0.0697447 0 0 0 3.04185e-06 3.16792e-06 -1.65554e-06 -8.37521e-07 1.78513e-06 2.06789e-07 0.000717853 6.02788e-05 -0.000312466 0.011 594.844 -1.44126 0.999962 -1.81369e-06 
140 1 0.0580442 0.0362344 0.0784982 0 0 0 -2.30226e-05 4.68416e-05 -2.32197e-05 -5.71802e-06 6.10965e-07 -2.15552e-06 -0.00375448 0.00456542 0.00676147 0.011 594.018 -1.63769 0.999953 -2.22097e-06 
189 1 0.0810396 0.0375974 0.0723347 0 0 0 -4.19899e-05 -2.72085e-06 -5.79674e-06 -6.20396e-06 -7.92337e-06 -4.31349e-06 0.0161962 0.00934077 0.002605 0.011 593.926 -1.68323 0.999953 -2.22097e-06 
200 1 0.0104475 0.051329 0.0831928 0 0 0 -1.28999e-06 -4.89102e-07 1.38397e-06 -8.24124e-07 1.84389e-07 3.15662e-07 0.000719125 -0.000152435 -0.000548078 0.011 595.137 -1.37065 0.999965 -1.65085e-06 
157 1 0.0560399 0.0559524 0.0707434 0 0 0 -2.17586e-05 -2.59456e-07 -1.38001e-05 -5.49143e-06 -3.92504e-06 -2.24308e-06 0.00170326 -0.00194207 -0.00504204 0.011 594.871 -1.45419 0.999963 -1.76197e-06 
14 1 0.0104601 0.0722665 0.080195 0 0 0 -4.58745e-07 1.77882e-06 3.18359e-06 -4.54215e-07 3.37548e-07 2.48198e-07 -0.000441808 -0.000401549 0.000345091 0.011 595.18 -1.35237 0.999965 -1.65085e-06 
69 1 0.0401962 0.0684182 0.0785537 0 0 0 -6.05541e-07 9.84059e-06 -1.64086e-06 -1.47055e-06 2.05817e-07 -1.46432e-07 0.000499004 0.000810767 0.00127195 0.011 595.173 -1.35502 0.999965 -1.65085e-06 
85 1 0.0738101 0.0698978 0.0696568 0 0 0 2.97282e-06 3.41299e-05 -7.06173e-06 -1.34353e-05 -7.49845e-06 4.24181e-06 0.000592057 0.00118587 0.00381894 0.011 594.93 -1.42054 0.999963 -1.76197e-06 
209 1 0.0105736 0.0898516 0.0690399 0 0 0 -1.43445e-06 2.02015e-07 -2.71825e-07 -3.76824e-07 3.75543e-07 -1.40276e-07 1.81098e-05 1.79604e-05 -7.26848e-05 0.011 595.158 -1.36871 0.999965 -1.65085e-06 
127 1 0.0374782 0.0896609 0.0753387 0 0 0 -5.90321e-06 3.06972e-06 2.71969e-06 -9.08691e-07 3.07411e-07 -1.06257e-07 -8.93875e-05 2.53e-05 -0.000340294 0.011 595.155 -1.36569 0.999965 -1.65085e-06 
183 1 0.0653241 0.0896837 0.0712198 0 0 0 -1.25164e-05 9.68369e-06 3.07393e-06 -2.30758e-06 -1.21467e-06 1.86221e-06 -0.0001361 0.00043552 -0.00113298 0.011 594.935 -1.41698 0.999963 -1.76197e-06 
194 1 0.089317 0.0897646 0.0700226 0 0 0 1.39788e-06 -8.94921e-07 -2.4694e-06 3.09396e-07 -1.46103e-07 -9.52021e-07 0.000241877 9.86913e-05 0.000179 0.011 594.917 -1.42986 0.999963 -1.76197e-06 
187 1 0.0105545 0.0103441 0.0908405 0 0 0 -9.36262e-06 -4.56329e-07 -4.60617e-07 -1.61598e-06 3.14792e-08 -3.71423e-07 0.000121828 0.000316981 0.000473641 0.011 594.813 -1.44718 0.999962 -1.81369e-06 
229 1 0.0868505 0.00985546 0.0875498 0 0 0 -0.000358578 -1.10111e-05 -0.000193639 -3.82045e-05 1.24733e-07 -1.80936e-05 -0.0193342 0.0716655 0.033598 0.011 593.929 -1.67444 0.999953 -2.221e-06 
58 1 0.0107822 0.0316264 0.0910428 0 0 0 -1.36187e-05 1.19788e-07 -4.1668e-06 -2.41566e-06 1.00785e-07 -9.82984e-07 -0.000189406 0.000997173 -1.53604e-05 0.011 594.838 -1.43599 0.999962 -1.81369e-06 
53 1 0.0528341 0.018756 0.0909099 0 0 0 -9.16997e-05 0.000107003 9.05489e-06 -1.11822e-05 1.19771e-05 1.10297e-06 0.00552944 -0.00010769 0.0156873 0.011 593.989 -1.64228 0.999953 -2.22096e-06 
167 1 0.0729701 0.0255409 0.0880394 0 0 0 -0.00013667 -2.27683e-06 2.46665e-05 -1.55618e-05 -1.65688e-06 4.3323e-06 -0.00858344 -0.000601053 -0.0267202 0.011 593.888 -1.68394 0.999953 -2.22096e-06 
49 1 0.0307654 0.0381407 0.0876057 0 0 0 -2.63549e-05 3.45793e-07 2.87959e-06 -5.17359e-06 -3.77927e-07 -8.10652e-08 -0.000430587 -0.00287179 -0.000526422 0.011 594.822 -1.44424 0.999962 -1.81369e-06 
39 1 0.0897517 0.0377458 0.0918731 0 0 0 6.59755e-06 -7.31049e-05 -1.67177e-05 -6.97645e-08 -8.75896e-06 -3.78201e-06 -0.00447777 -0.0026265 0.00724986 0.011 594.021 -1.62996 0.999953 -2.22097e-06 
102 1 0.0284141 0.0591568 0.0943163 0 0 0 -8.72933e-06 2.99532e-06 6.09111e-06 -3.27996e-06 -1.18241e-06 -6.22025e-07 -0.000155224 -0.00126242 -0.000735067 0.011 595.172 -1.35581 0.999965 -1.65085e-06 
47 1 0.0478052 0.0509485 0.0901428 0 0 0 -2.45478e-05 5.94225e-06 -5.67698e-06 -4.66517e-06 -1.38536e-06 -2.15881e-06 0.00066531 0.00329152 0.000669694 0.011 595.065 -1.40528 0.999965 -1.65085e-06 
255 1 0.0724715 0.0533022 0.0843189 0 0 0 -2.1944e-05 -2.238e-05 2.97824e-05 -2.70214e-06 -6.46998e-06 -1.0972e-06 -0.0104029 -0.000363658 -0.00187301 0.011 594.849 -1.45917 0.999963 -1.76197e-06 
260 1 0.0897785 0.0584202 0.095858 0 0 0 -1.50814e-05 -1.18174e-05 -1.2427e-05 -2.45289e-06 -1.80238e-06 -5.04446e-06 0.00176378 0.000733853 -0.00174655 0.011 594.876 -1.44475 0.999963 -1.76197e-06 
93 1 0.0702563 0.072611 0.0941231 0 0 0 -2.94635e-06 3.90025e-06 -1.15804e-05 -1.29436e-06 -1.40824e-06 -5.03228e-06 0.00281124 -2.14972e-06 -0.000227542 0.011 594.936 -1.41583 0.999963 -1.76197e-06 
133 1 0.0892942 0.0761731 0.0853095 0 0 0 5.04227e-07 6.85465e-07 -2.10368e-06 -4.05903e-07 -7.0008e-07 -2.69037e-06 -0.000437042 -0.000210229 -0.000445054 0.011 594.933 -1.4184 0.999963 -1.76197e-06 
256 1 0.0207011 0.0893778 0.0883465 0 0 0 -3.68546e-06 3.50723e-06 1.66107e-06 -4.71236e-07 3.79556e-07 -6.05635e-07 -8.67749e-05 -9.81848e-05 -0.000124395 0.011 595.183 -1.34995 0.999965 -1.65085e-06 
6 1 0.053153 0.0837563 0.0878212 0 0 0 -5.87125e-06 5.17868e-06 3.48252e-06 -2.03408e-06 5.3521e-07 -2.15851e-07 0.000726722 -0.00013867 0.00089098 0.011 594.963 -1.40312 0.999963 -1.76197e-06 
246 1 0.0105984 0.0104833 0.11218 0 0 0 -4.55129e-06 -3.25681e-06 2.1234e-06 -5.6977e-07 -3.23058e-07 -7.48113e-08 -0.000153582 3.28945e-05 -0.000314508 0.011 594.916 -1.42335 0.999962 -1.79112e-06 
149 1 0.0295217 0.0106072 0.101695 0 0 0 -2.33123e-05 1.73843e-06 1.02381e-05 -2.72625e-06 -1.44085e-07 5.38877e-07 0.00113465 0.00012397 0.00207257 0.011 594.816 -1.44637 0.999962 -1.81369e-06 
156 1 0.0493617 0.0107068 0.110756 0 0 0 -9.93153e-06 4.78723e-06 -3.542e-06 -1.74165e-06 5.82883e-08 -9.7449e-07 0.000718602 0.00207999 0.000821143 0.011 594.896 -1.43327 0.999962 -1.79112e-06 
91 1 0.0702399 0.010093 0.101843 0 0 0 -6.297e-05 6.37456e-06 5.54488e-05 -6.54021e-06 -1.83381e-07 7.61232e-06 0.0035045 0.0134838 0.0093827 0.011 594.032 -1.62414 0.999953 -2.22096e-06 
241 1 0.0900957 0.0104249 0.108624 0 0 0 4.26431e-05 4.59002e-05 -7.16899e-05 4.27896e-06 3.62386e-06 -6.97897e-06 0.00493113 -0.0109564 -0.00339717 0.011 595.099 -1.40896 0.999966 -1.62405e-06 
139 1 0.0164453 0.0310481 0.111084 0 0 0 -1.28715e-06 -1.26641e-06 -3.36032e-06 -8.92961e-07 4.31941e-07 -1.24655e-06 7.6944e-05 0.000205909 1.33254e-06 0.011 594.918 -1.42218 0.999962 -1.79112e-06 
249 1 0.0399681 0.0294897 0.104758 0 0 0 -5.16579e-05 1.575e-06 1.55295e-05 -7.30921e-06 -4.49555e-07 7.41143e-07 -0.00152062 0.00382925 -0.00270691 0.011 594.781 -1.46158 0.999962 -1.81369e-06 
5 1 0.0298514 0.0496361 0.113929 0 0 0 -2.29083e-06 5.04373e-06 6.73921e-06 -8.42405e-07 -8.75543e-07 -3.1914e-07 -0.00079294 0.00168707 -0.000436723 0.011 594.961 -1.4016 0.999962 -1.79112e-06 
148 1 0.0510924 0.0484014 0.111519 0 0 0 -3.88617e-06 -3.25907e-06 -7.72735e-07 -1.00777e-06 -9.71108e-07 -2.73645e-06 -0.000156308 -0.00116533 3.7254e-05 0.011 595.168 -1.37782 0.999966 -1.62404e-06 
122 1 0.0693593 0.0412435 0.102364 0 0 0 1.00265e-05 3.45e-05 -7.41326e-07 5.53368e-07 3.15779e-06 -1.90631e-06 0.00593094 -0.000880811 0.00292618 0.011 594.032 -1.62183 0.999953 -2.22097e-06 
254 1 0.0886883 0.0446662 0.111892 0 0 0 -1.20058e-05 -2.65909e-06 -2.06415e-05 -1.80952e-06 -3.57142e-07 -5.14669e-06 -0.000983735 0.00226247 -0.00222452 0.011 595.108 -1.40283 0.999966 -1.62404e-06 
251 1 0.0105113 0.0513849 0.10502 0 0 0 -3.73807e-06 1.02111e-06 8.78284e-06 -9.51403e-07 -1.15923e-06 1.13246e-06 -0.000908569 -0.000831086 8.35997e-05 0.011 595.172 -1.35361 0.999965 -1.65085e-06 
23 1 0.0687606 0.0608116 0.111978 0 0 0 -4.87032e-06 -7.11117e-07 1.63132e-06 -1.06399e-06 -5.38889e-07 -1.96947e-06 -0.00223763 -0.000119558 -0.0005062 0.011 594.925 -1.41665 0.999962 -1.79563e-06 
84 1 0.0135717 0.0732805 0.100604 0 0 0 -3.1138e-06 4.47136e-06 1.69468e-06 -1.4192e-06 6.33151e-07 -4.85576e-07 0.000280281 0.00034923 -5.38137e-05 0.011 595.092 -1.3898 0.999965 -1.65085e-06 
219 1 0.0316308 0.0712553 0.112523 0 0 0 -9.75762e-07 2.28477e-06 1.17276e-06 -1.30851e-06 -1.40522e-06 -2.29327e-06 0.000268144 -0.000207879 0.00025624 0.011 594.671 -1.46858 0.999959 -1.94459e-06 
59 1 0.0506531 0.0683153 0.102676 0 0 0 -8.27684e-07 -6.87944e-07 -3.61131e-06 -1.24253e-06 -8.21154e-07 -3.15983e-06 9.3354e-05 0.000699707 -0.00057444 0.011 594.942 -1.41322 0.999963 -1.76197e-06 
158 1 0.0876349 0.071154 0.112628 0 0 0 2.05167e-06 -6.31832e-06 -5.39188e-06 -2.12666e-07 -1.32579e-06 -3.72853e-06 -0.000712834 -0.000253817 -0.000256347 0.011 594.919 -1.41946 0.999962 -1.79563e-06 
176 1 0.0106114 0.0894532 0.114739 0 0 0 -5.49893e-07 7.65099e-07 1.58345e-06 1.52888e-07 1.20271e-07 -2.04262e-07 -0.000102577 -0.000118844 5.16219e-06 0.011 594.611 -1.49817 0.999959 -1.94459e-06 
128 1 0.0375956 0.08928 0.102109 0 0 0 -3.44431e-06 7.17103e-07 2.46004e-06 -1.2247e-06 -5.50289e-07 -4.13195e-07 -0.000281413 0.000207215 -0.000351831 0.011 595.152 -1.3632 0.999965 -1.65085e-06 
37 1 0.0633726 0.0898713 0.105255 0 0 0 -2.34279e-06 1.39821e-06 3.56205e-06 1.20745e-06 -3.54924e-07 -2.12799e-06 -0.000493964 0.00040771 -0.000286463 0.011 594.923 -1.42087 0.999963 -1.76197e-06 
211 1 0.0861894 0.0895474 0.101445 0 0 0 1.91179e-06 -3.38712e-07 -3.96576e-06 -1.56098e-06 -5.16955e-07 -1.60261e-06 0.000442204 0.000129798 0.000223077 0.011 594.936 -1.41535 0.999963 -1.76197e-06 
250 1 0.0102783 0.0141819 0.133064 0 0 0 -8.39763e-07 -6.42286e-07 1.86272e-06 3.05189e-08 1.12314e-07 -2.15294e-07 -0.000168144 -0.000120025 -0.000191807 0.011 594.931 -1.41568 0.999962 -1.79112e-06 
87 1 0.0293521 0.0106179 0.123274 0 0 0 -3.65889e-06 -3.4035e-06 2.29768e-06 -4.68251e-07 -3.54411e-07 -4.73681e-07 -0.000168907 0.000688686 0.000168254 0.011 594.925 -1.41848 0.999962 -1.79112e-06 
48 1 0.0483691 0.0154427 0.13191 0 0 0 2.30604e-06 1.35455e-06 -5.40224e-06 1.73076e-07 2.94637e-07 -1.66765e-06 5.90989e-05 0.000353032 0.00045008 0.011 594.967 -1.40009 0.999962 -1.79112e-06 
215 1 0.0672469 0.0102584 0.123149 0 0 0 1.06344e-05 -4.83721e-06 1.17604e-05 9.27806e-07 -6.7016e-07 1.0384e-06 -0.00108729 -0.00279677 -0.000792291 0.011 595.185 -1.36847 0.999966 -1.62404e-06 
242 1 0.0894669 0.0110419 0.129601 0 0 0 -2.62752e-05 -4.24289e-06 -3.23121e-05 -2.61768e-06 -9.93608e-08 -3.38711e-06 -5.93061e-05 0.00114063 0.000305539 0.011 595.285 -1.32413 0.999966 -1.62404e-06 
175 1 0.0589629 0.0291889 0.117543 0 0 0 3.85734e-06 -4.03337e-06 1.69057e-06 3.95659e-07 -8.85033e-07 -1.97432e-06 0.000364241 -0.000168172 0.000177452 0.011 595.243 -1.34395 0.999966 -1.62404e-06 
72 1 0.079908 0.0263656 0.11691 0 0 0 4.31599e-06 9.78821e-06 -1.96931e-05 7.0142e-07 4.78156e-07 -3.37199e-06 0.00282911 0.00296132 0.00212425 0.011 595.266 -1.33691 0.999966 -1.62404e-06 
82 1 0.010815 0.0371689 0.130156 0 0 0 2.11729e-07 -7.87174e-07 -6.60323e-07 -5.9408e-08 -1.90567e-07 -6.60352e-07 -8.44858e-05 -3.22958e-05 -4.87661e-05 0.011 594.904 -1.42797 0.999962 -1.79112e-06 
227 1 0.040191 0.0345464 0.125453 0 0 0 2.02149e-06 2.47288e-06 4.22609e-06 2.35691e-07 5.5933e-09 -8.49554e-07 0.000594927 4.56623e-05 -0.000683926 0.011 594.945 -1.41029 0.999962 -1.79112e-06 
67 1 0.0717977 0.0446652 0.125602 0 0 0 1.28429e-07 1.18363e-06 6.41333e-06 -4.37374e-08 -5.01552e-07 -1.71055e-06 0.000868666 0.000511639 0.000425769 0.011 595.264 -1.33339 0.999966 -1.62404e-06 
24 1 0.0895703 0.0350322 0.133291 0 0 0 4.59099e-06 -1.35169e-06 -6.53295e-06 4.03186e-07 -8.66195e-08 -1.89165e-06 0.000314037 -0.000693019 0.000377992 0.011 595.293 -1.3187 0.999966 -1.62404e-06 
151 1 0.0511764 0.0661473 0.124509 0 0 0 2.62062e-06 -3.10024e-06 -2.81063e-06 1.64982e-07 3.81636e-06 -4.32365e-06 6.20735e-05 -0.000182228 -0.00181664 0.011 594.918 -1.41971 0.999962 -1.79563e-06 
205 1 0.0897513 0.0571852 0.128851 0 0 0 2.13811e-06 -5.25021e-06 -1.03121e-05 2.01603e-07 -2.09702e-07 -3.9347e-06 0.00113052 -0.000832206 0.000722565 0.011 594.954 -1.40393 0.999962 -1.79563e-06 
66 1 0.0105907 0.0685176 0.120378 0 0 0 -1.05667e-07 5.41167e-07 8.10812e-07 -5.72466e-07 -2.39112e-07 -8.92772e-07 0.000120221 -5.54626e-05 3.68145e-05 0.011 594.637 -1.48601 0.999959 -1.94459e-06 
154 1 0.0700189 0.0798267 0.122025 0 0 0 2.27371e-06 -8.86499e-07 -3.35672e-06 9.78128e-07 3.05573e-08 -2.9501e-06 0.000904876 0.000373976 -0.000144087 0.011 594.921 -1.41798 0.999962 -1.79563e-06 
113 1 0.0279081 0.089259 0.127595 0 0 0 -1.27495e-06 2.08225e-08 5.24298e-07 1.20181e-06 -3.4812e-07 -1.4588e-06 1.18882e-05 0.000155411 -0.000124027 0.011 594.584 -1.51109 0.999959 -1.94459e-06 
57 1 0.0486659 0.0879566 0.121139 0 0 0 -1.39609e-06 3.39876e-06 2.94953e-06 2.50291e-06 -2.32213e-06 -2.2269e-06 0.00018247 -0.000384755 0.000378784 0.011 594.61 -1.49811 0.999959 -1.94459e-06 
226 1 0.0894242 0.0898459 0.122583 0 0 0 1.65303e-06 -2.28684e-06 -3.71646e-06 6.55391e-07 -8.99096e-07 -1.57785e-06 0.000228745 -9.273e-05 0.00015728 0.011 594.919 -1.4189 0.999962 -1.79563e-06 
115 1 0.034909 0.00967738 0.147788 0 0 0 1.98889e-06 -3.47471e-07 -1.07699e-06 2.40595e-07 1.65614e-08 -9.21137e-07 -4.84359e-05 -9.74518e-05 -0.000176344 0.011 594.939 -1.40963 0.999962 -1.79112e-06 
137 1 0.0807301 0.0101884 0.148471 0 0 0 -3.9651e-06 -1.16253e-06 -8.90373e-06 -6.80475e-07 2.74109e-08 -1.18527e-06 -0.000426348 0.00102191 0.00028202 0.011 595.278 -1.32524 0.999966 -1.62404e-06 
134 1 0.0263019 0.0262743 0.139305 0 0 0 8.47069e-07 1.0385e-07 5.06852e-07 2.73341e-07 -2.59659e-07 -1.08268e-06 0.0001315 5.10785e-05 0.000168379 0.011 594.932 -1.41491 0.999962 -1.79112e-06 
129 1 0.0507481 0.0308357 0.146556 0 0 0 3.55214e-07 5.12572e-07 1.64417e-07 -3.66188e-07 9.2807e-07 -1.26123e-06 0.000373439 -0.000157433 0.000125491 0.011 595.236 -1.34314 0.999966 -1.62404e-06 
75 1 0.0700295 0.02644 0.137485 0 0 0 9.27374e-07 4.57739e-07 -1.02433e-06 -3.27899e-07 5.1791e-07 -1.65355e-06 -0.000452722 0.000243549 -0.00037144 0.011 595.292 -1.31845 0.999966 -1.62404e-06 
198 1 0.0289123 0.0475848 0.137646 0 0 0 1.47785e-06 8.50565e-07 2.89781e-06 2.63639e-07 -4.3296e-07 -6.6382e-07 2.46812e-05 -0.000460094 0.000109566 0.011 594.88 -1.43753 0.999962 -1.79112e-06 
244 1 0.0620005 0.0485664 0.14429 0 0 0 -1.56197e-06 -7.48039e-07 1.84106e-06 4.75801e-07 5.87609e-07 -2.43216e-06 -0.00072655 -0.000443163 0.000173116 0.011 595.24 -1.34321 0.999966 -1.62404e-06 
135 1 0.0847491 0.0491534 0.148407 0 0 0 2.87692e-06 -2.32822e-06 -7.35102e-06 1.27681e-07 3.56531e-07 -2.49744e-06 -0.000550658 0.000700103 -0.000246758 0.011 595.251 -1.33757 0.999966 -1.62404e-06 
71 1 0.0099128 0.056703 0.137456 0 0 0 1.33392e-07 -3.69551e-07 -3.84914e-07 1.51587e-07 -2.00829e-07 -9.06564e-07 5.16956e-05 1.20791e-05 3.11394e-05 0.011 594.641 -1.48258 0.999959 -1.94459e-06 
10 1 0.0453628 0.0626078 0.145417 0 0 0 -5.95554e-07 -4.49724e-07 -2.3732e-06 -3.90299e-07 -3.4564e-07 -1.99735e-06 0.000212216 0.000241738 -0.000213854 0.011 594.642 -1.48208 0.999959 -1.94459e-06 
17 1 0.0720906 0.0654355 0.136839 0 0 0 8.4518e-07 -6.91454e-06 -6.45158e-06 2.50094e-08 -5.14809e-07 -3.3301e-06 -0.000123213 0.000371884 -0.000684841 0.011 594.944 -1.408 0.999962 -1.79563e-06 
29 1 0.0105464 0.0805232 0.137848 0 0 0 -7.84369e-07 -1.76804e-07 8.30167e-07 9.09483e-07 -7.26778e-08 -1.0515e-06 -3.04952e-05 -4.53905e-05 -2.47005e-05 0.011 594.589 -1.50759 0.999959 -1.94459e-06 
132 1 0.0280519 0.0685319 0.133568 0 0 0 -9.75972e-07 3.80156e-07 1.09072e-06 6.39565e-07 -1.01354e-06 -1.88894e-06 -0.00010514 7.41895e-05 0.000116859 0.011 594.608 -1.49839 0.999959 -1.94459e-06 
170 1 0.0351469 0.0822767 0.148399 0 0 0 -1.0001e-06 1.16672e-06 1.26755e-07 -1.59806e-06 -2.12678e-06 6.1092e-07 -0.000116634 -0.000247469 -0.000324835 0.011 594.588 -1.50886 0.999959 -1.94459e-06 
173 1 0.0556912 0.0812712 0.14068 0 0 0 -1.41743e-06 1.73449e-07 5.0809e-07 -1.09553e-06 -9.74139e-07 -1.02054e-06 0.00035711 0.000235815 0.000153915 0.011 594.888 -1.43504 0.999962 -1.79563e-06 
50 1 0.079964 0.0848753 0.140416 0 0 0 1.90603e-06 -4.66286e-06 -4.09293e-06 -3.04567e-08 -1.94691e-07 -1.96876e-06 -0.000188841 -0.000212733 0.000472726 0.011 594.917 -1.42014 0.999962 -1.79563e-06 
252 1 0.0114686 0.0115245 0.154229 0 0 0 -8.86772e-05 -4.70982e-05 5.4571e-07 -8.6163e-06 -5.03237e-06 -2.42607e-07 -0.0046766 0.0124108 -0.16196 0.011 594.96 -1.40087 0.999962 -1.79112e-06 
101 1 0.0483178 0.0164209 0.161939 0 0 0 1.56008e-06 -8.83025e-07 -9.66822e-07 2.19109e-07 1.67234e-07 -1.08422e-06 -9.85192e-05 5.61186e-05 3.18656e-05 0.011 595.028 -1.37224 0.999962 -1.79112e-06 
171 1 0.068159 0.0101686 0.164894 0 0 0 1.90165e-06 -4.9934e-07 -1.78707e-06 1.3684e-07 6.03036e-09 -5.76045e-07 6.5822e-06 6.8136e-05 -2.79824e-05 0.011 595.222 -1.34814 0.999966 -1.62404e-06 
248 1 0.0894613 0.028793 0.153385 0 0 0 -1.22946e-06 -1.30514e-06 -6.06573e-06 -4.9778e-07 4.16302e-07 -1.42488e-06 0.000292157 -0.000243432 -0.000200592 0.011 595.274 -1.32701 0.999966 -1.62404e-06 