ITEM: TIMESTEP
240000
ITEM: NUMBER OF ATOMS
1005
ITEM: BOX BOUNDS mm mm mm
0 0.1
0 0.1
0 1.1
ITEM: ATOMS id type x y z ix iy iz vx vy vz fx fy fz omegax omegay omegaz radius f_Temp[0] f_heatFlux[0] f_speciesC[0] f_speciesCFlux[0] 
152 1 0.0254471 0.0104911 0.010222 0 0 0 1.96572e-06 1.83675e-06 3.42675e-06 -9.86669e-08 -3.55107e-09 -6.51276e-08 -0.000146355 -0.000268714 0.000209388 0.011 591.855 -2.27754 0.999807 -3.01432e-06 
97 1 0.010096 0.0228961 0.0166306 0 0 0 -3.39085e-07 9.63124e-07 -6.45555e-07 -1.18422e-07 -2.32885e-08 -2.05532e-07 -0.000173856 4.37556e-05 7.38863e-05 0.011 591.892 -2.25063 0.999807 -3.01432e-06 
231 1 0.036032 0.0295065 0.0103017 0 0 0 -6.09172e-06 3.73315e-06 -3.10582e-06 -1.09361e-06 -3.91795e-07 -1.41178e-07 -0.000448483 -0.000431592 0.000428751 0.011 591.864 -2.27052 0.999807 -3.01432e-06 
89 1 0.0620411 0.0171548 0.0104264 0 0 0 1.27918e-05 -2.07344e-06 -1.06047e-05 5.3335e-07 -1.06372e-06 -6.82907e-07 0.000251483 0.000696328 0.00107461 0.011 590.72 -2.57156 0.999774 -3.52713e-06 
216 1 0.0812369 0.0269591 0.0099969 0 0 0 1.11795e-05 6.4986e-06 -2.85514e-05 1.13076e-06 -2.46219e-06 -5.23243e-07 -0.00150529 0.00189732 -0.000302077 0.011 590.662 -2.59653 0.999774 -3.52714e-06 
155 1 0.0150044 0.0423283 0.0103381 0 0 0 7.83349e-07 -3.66555e-08 -1.23348e-06 5.65095e-09 -2.1472e-08 -1.64323e-07 2.01691e-05 6.40019e-05 -0.000234903 0.011 591.898 -2.25381 0.999807 -3.01432e-06 
79 1 0.0644514 0.046088 0.0105441 0 0 0 2.06353e-05 5.9603e-06 7.21276e-06 1.53261e-06 -8.84168e-07 -5.45719e-07 0.000129033 0.000522055 -0.0037282 0.011 590.922 -2.46593 0.999774 -3.52712e-06 
180 1 0.0339229 0.0582286 0.0104706 0 0 0 2.26959e-06 1.20315e-06 -8.67761e-07 7.64258e-08 8.81591e-08 -2.8264e-07 -8.04701e-05 0.000225013 6.14213e-05 0.011 592.333 -2.13662 0.999819 -2.8193e-06 
33 1 0.081416 0.0599228 0.0102625 0 0 0 4.90461e-05 5.23066e-05 -2.81703e-05 2.40781e-06 2.97045e-06 -1.77018e-06 -0.0040815 0.00527615 0.00761159 0.011 592.856 -2.01094 0.999835 -2.56955e-06 
2 1 0.0105506 0.0718176 0.00973646 0 0 0 8.29276e-07 -1.83338e-07 -5.23059e-07 -2.90786e-08 -7.518e-09 -5.68478e-08 5.63413e-05 7.98793e-05 2.53419e-05 0.011 592.337 -2.13367 0.999819 -2.8193e-06 
30 1 0.0423262 0.0807624 0.0100002 0 0 0 1.67387e-06 3.85421e-07 -2.00442e-07 -4.64852e-07 1.45337e-07 -1.30826e-07 -4.30671e-05 0.000161819 -0.000285279 0.011 592.37 -2.11883 0.999819 -2.8193e-06 
253 1 0.0601194 0.0675847 0.0106247 0 0 0 1.21121e-05 4.30491e-06 -3.29356e-06 8.56872e-07 -7.25584e-07 -3.64986e-07 -0.000292136 0.000604698 0.00203005 0.011 592.87 -2.00442 0.999835 -2.56954e-06 
25 1 0.0890673 0.0801567 0.00996832 0 0 0 -6.15082e-06 2.98367e-05 -1.87631e-05 -4.31494e-07 1.81315e-06 -1.17479e-06 -0.000117353 -0.00149581 -0.00324894 0.011 592.934 -1.96872 0.999835 -2.56955e-06 
233 1 0.0222916 0.0895166 0.0118686 0 0 0 6.81848e-07 3.10658e-07 5.34375e-08 -1.51798e-07 2.88494e-08 -1.79107e-07 -2.59001e-06 -9.83908e-05 8.16263e-05 0.011 592.325 -2.14308 0.999819 -2.8193e-06 
192 1 0.0689574 0.0890009 0.0109517 0 0 0 2.99985e-06 1.65467e-05 -5.04436e-06 -3.46538e-07 7.99033e-07 -5.94195e-07 -0.00122563 0.000804401 0.00329 0.011 592.924 -1.97667 0.999835 -2.56954e-06 
166 1 0.0440596 0.0107332 0.0202806 0 0 0 1.71264e-05 2.55068e-06 1.40249e-06 4.74207e-07 -3.88549e-08 -1.09452e-07 -0.000673112 0.00174165 -0.00114992 0.011 591.727 -2.33774 0.999807 -3.01432e-06 
203 1 0.0627292 0.0103234 0.0310022 0 0 0 2.24691e-05 -4.33488e-06 -9.67831e-06 9.6038e-07 -9.02416e-07 -1.35097e-06 -0.00110107 -0.00103851 -0.00123344 0.011 590.752 -2.5477 0.999774 -3.52713e-06 
234 1 0.0888453 0.0102822 0.0207326 0 0 0 1.66921e-05 1.2706e-05 -1.65036e-05 9.56669e-07 -1.73614e-07 -1.41975e-06 -0.00215594 0.00228205 -0.00188112 0.011 590.654 -2.60298 0.999774 -3.52713e-06 
22 1 0.0674542 0.0308916 0.0259843 0 0 0 -2.0081e-06 -6.69733e-06 -1.33919e-05 -3.091e-07 -8.58307e-07 -1.81168e-06 0.00199136 -0.000792998 0.00133381 0.011 590.768 -2.5369 0.999774 -3.52713e-06 
104 1 0.0246177 0.0349092 0.0292673 0 0 0 2.64636e-06 4.97636e-06 -2.04044e-06 6.60002e-07 -2.92817e-07 -1.74766e-07 0.000260748 2.27077e-05 -3.13311e-05 0.011 591.915 -2.23738 0.999807 -3.01432e-06 
35 1 0.0463014 0.0343862 0.0280732 0 0 0 -1.91342e-06 -5.76542e-06 -1.03943e-05 1.69346e-07 -9.45885e-07 -1.46317e-06 0.000495424 0.000834078 -0.00171341 0.011 591.922 -2.23762 0.999807 -3.01433e-06 
147 1 0.0896082 0.0357661 0.0270751 0 0 0 -1.06706e-05 5.43588e-05 -8.06374e-05 -2.55886e-07 6.46892e-07 -2.89219e-06 -0.00510254 -0.00740269 -0.00314222 0.011 590.86 -2.49474 0.999774 -3.52717e-06 
8 1 0.0158777 0.0580096 0.0245511 0 0 0 2.94897e-06 -8.85054e-08 -1.77312e-06 3.41408e-08 -7.55448e-08 -2.75629e-07 1.11398e-05 -1.51069e-06 2.89004e-05 0.011 592.277 -2.16066 0.999819 -2.81931e-06 
63 1 0.0362747 0.0531949 0.0311918 0 0 0 8.6272e-06 6.95945e-07 -2.9726e-06 1.02308e-06 -1.42483e-07 -7.22918e-07 8.707e-05 0.00030668 0.000211555 0.011 592.469 -2.07594 0.999819 -2.81931e-06 
99 1 0.0576218 0.055697 0.0284733 0 0 0 1.7665e-05 2.29462e-05 -2.41988e-06 1.91651e-06 6.38116e-07 -7.06453e-07 -0.00168527 -0.00150704 0.00184217 0.011 592.883 -1.99896 0.999835 -2.56954e-06 
224 1 0.0872003 0.056473 0.030292 0 0 0 1.77692e-05 6.71196e-05 -6.93642e-05 1.05913e-06 2.77326e-06 -5.24293e-06 0.00696065 -0.0113887 -0.00613852 0.011 592.811 -2.02455 0.999835 -2.56957e-06 
126 1 0.0103593 0.0787914 0.0293285 0 0 0 3.40055e-07 -2.94497e-08 -7.75022e-07 -1.59488e-07 -4.22642e-08 -1.18323e-07 -0.000128032 -5.07969e-05 1.92505e-05 0.011 592.571 -2.02371 0.999819 -2.8193e-06 
163 1 0.0308221 0.0731114 0.0256597 0 0 0 2.20412e-06 1.09432e-06 -7.30804e-08 -1.99908e-07 4.85998e-08 -3.12693e-07 0.000136261 -2.12789e-05 0.000145508 0.011 592.377 -2.10628 0.999819 -2.8193e-06 
12 1 0.0745002 0.0734415 0.0257562 0 0 0 2.62165e-05 4.14545e-05 -2.88572e-05 1.42106e-06 2.26457e-06 -2.01149e-06 0.00178798 0.00381106 0.00598301 0.011 592.931 -1.97116 0.999835 -2.56955e-06 
257 1 0.053155 0.0892636 0.0262312 0 0 0 2.15329e-06 1.69856e-06 -9.30508e-07 -1.61074e-07 2.75511e-07 -3.57883e-07 -0.000121325 -0.000139388 0.000342257 0.011 592.892 -1.98964 0.999835 -2.56954e-06 
243 1 0.0892874 0.0891908 0.0286317 0 0 0 -1.44314e-06 1.96182e-05 -1.04295e-05 3.99566e-08 1.25295e-06 -9.29492e-07 0.00162147 -0.000446892 -0.00171475 0.011 593.097 -1.89134 0.999835 -2.56954e-06 
223 1 0.0366968 0.0106923 0.0405214 0 0 0 3.87859e-05 1.32863e-05 2.21127e-05 1.94411e-06 6.41605e-07 7.60372e-07 0.00187708 -0.000631441 -0.00341365 0.011 591.975 -2.21075 0.999807 -3.01431e-06 
70 1 0.0104574 0.0206617 0.0372909 0 0 0 3.29177e-06 2.77846e-06 -1.71434e-06 2.81959e-07 -1.18902e-07 -3.80768e-07 8.13446e-05 0.000264474 0.000151078 0.011 592.282 -2.06905 0.999807 -3.01432e-06 
45 1 0.0533451 0.0234866 0.0450378 0 0 0 7.06595e-05 2.11371e-05 -2.97121e-05 4.74122e-06 1.79755e-08 -1.88694e-06 -0.00389494 0.00812591 0.00230421 0.011 591.266 -2.31194 0.999774 -3.52714e-06 
108 1 0.080922 0.0194387 0.0384433 0 0 0 3.53146e-05 0.000100947 -3.89236e-05 -8.09178e-07 -1.78088e-06 2.83181e-06 -0.00893709 0.00416695 0.00933053 0.011 590.914 -2.47802 0.999774 -3.52715e-06 
96 1 0.0118127 0.0470098 0.0420245 0 0 0 1.91601e-06 1.81384e-06 -2.68785e-06 -1.32858e-08 -1.28037e-07 -7.34147e-07 -0.000176896 -0.00013217 6.95884e-05 0.011 592.164 -2.12012 0.999807 -3.01432e-06 
9 1 0.040822 0.0409413 0.0478639 0 0 0 2.33104e-05 -2.26156e-06 -3.88654e-06 2.20638e-06 -4.42349e-07 -1.38073e-06 -6.83846e-05 0.000743463 0.00128491 0.011 594.331 -1.67936 0.999884 -1.81331e-06 
80 1 0.0755034 0.0427505 0.0417255 0 0 0 4.00836e-05 0.000113039 -0.000107346 2.41358e-06 3.96142e-06 -9.538e-06 -0.00967548 0.0160948 0.0123023 0.011 591.393 -2.26174 0.999774 -3.52718e-06 
146 1 0.0234892 0.0652287 0.0441929 0 0 0 1.41237e-06 -4.76885e-07 -3.03422e-06 2.9289e-07 -2.45397e-07 -5.58063e-07 0.000159816 -0.000156849 -9.05324e-05 0.011 592.699 -1.9599 0.999819 -2.81931e-06 
182 1 0.0584024 0.0528225 0.0495941 0 0 0 1.05201e-05 3.09439e-05 -1.35726e-05 1.51532e-06 1.41118e-06 -1.33271e-06 0.00162523 9.26114e-05 0.00276101 0.011 594.482 -1.63429 0.999887 -1.76419e-06 
240 1 0.0106828 0.0818064 0.0498461 0 0 0 -1.39288e-06 9.26405e-07 -1.32772e-06 -2.10611e-07 1.78807e-09 -2.69233e-07 2.8213e-05 2.66239e-05 0.000207596 0.011 594.722 -1.56675 0.999894 -1.65235e-06 
204 1 0.0466078 0.0738912 0.0406832 0 0 0 1.15126e-06 1.63054e-05 -1.48208e-06 2.40429e-07 2.32359e-06 -1.4695e-06 0.000699965 9.35635e-05 0.00261988 0.011 592.482 -2.05966 0.999819 -2.8193e-06 
78 1 0.0692245 0.0708972 0.048367 0 0 0 -4.68906e-06 2.75317e-05 1.37934e-07 -2.75728e-07 1.6862e-06 -6.98978e-07 -0.001166 -0.000398061 -0.0015699 0.011 594.751 -1.51093 0.999887 -1.76418e-06 
212 1 0.0899726 0.0687316 0.0468711 0 0 0 -1.03621e-05 1.57042e-06 -1.64338e-06 -3.1799e-07 -4.6263e-07 -4.74094e-07 6.12682e-06 0.000709664 -0.00079711 0.011 594.708 -1.53625 0.999887 -1.76418e-06 
32 1 0.0268326 0.0897764 0.0377094 0 0 0 -1.63568e-06 1.19373e-06 3.26259e-07 -4.18247e-07 1.35297e-07 -1.38783e-07 -0.000150582 -0.000427833 -2.3983e-05 0.011 592.654 -1.98115 0.999819 -2.8193e-06 
34 1 0.0702595 0.0898162 0.0390875 0 0 0 2.77334e-06 1.00645e-05 -4.86681e-06 2.01991e-07 4.34074e-07 -1.31334e-06 0.000415572 0.000466133 0.000521198 0.011 593.167 -1.85953 0.999835 -2.56954e-06 
217 1 0.0892415 0.0898424 0.04945 0 0 0 -5.94938e-07 1.97962e-06 -3.96059e-06 -1.06565e-07 -8.50035e-08 -6.33628e-07 0.000144967 -4.65678e-05 -0.000235443 0.011 594.661 -1.54833 0.999887 -1.76418e-06 
258 1 0.0129915 0.0100018 0.0551 0 0 0 -5.95587e-07 2.40072e-06 -2.19575e-06 3.60669e-07 3.39597e-08 -3.86374e-07 -0.000168987 -0.000734611 0.000136369 0.011 594.557 -1.5743 0.999884 -1.81331e-06 
164 1 0.034019 0.0103401 0.0619126 0 0 0 -1.51103e-05 -5.2529e-06 1.21629e-05 -1.79905e-07 -2.76745e-07 6.61347e-08 0.00086075 -0.00433881 0.0013867 0.011 594.621 -1.54911 0.999884 -1.81331e-06 
15 1 0.0686452 0.0109528 0.0545435 0 0 0 4.68029e-05 3.75567e-05 -8.96293e-06 2.30892e-06 -1.8561e-06 -2.30085e-06 0.00163511 -0.00777099 -0.0018606 0.011 593.694 -1.79351 0.999858 -2.22021e-06 
64 1 0.0256325 0.0267078 0.0511059 0 0 0 1.07253e-05 -2.59688e-06 2.0261e-07 1.23675e-06 -5.09314e-07 -1.04136e-06 -0.00016591 -0.000476933 -0.00130427 0.011 594.583 -1.56943 0.999884 -1.81331e-06 
191 1 0.0895747 0.0318823 0.0533672 0 0 0 -2.14539e-05 0.000158405 -6.72887e-05 -1.89317e-06 1.28383e-05 -1.59421e-06 -0.00465571 -0.0291399 -0.0303673 0.011 593.426 -1.91179 0.999858 -2.22022e-06 
199 1 0.0102992 0.0380889 0.0609955 0 0 0 1.36685e-06 4.26687e-06 -2.93193e-06 4.60688e-07 5.05644e-09 -7.60802e-07 -3.04873e-05 -0.000117235 0.000273992 0.011 594.573 -1.56578 0.999884 -1.81331e-06 
123 1 0.065234 0.0343325 0.0585767 0 0 0 3.78656e-05 7.93925e-05 -3.43097e-05 3.73542e-06 5.93496e-06 -3.87084e-06 0.00104576 -0.0122242 0.00390871 0.011 593.509 -1.86458 0.999858 -2.22021e-06 
43 1 0.0106011 0.0604898 0.0611541 0 0 0 1.01438e-06 2.40667e-06 -1.14411e-06 1.96599e-07 -9.48024e-08 -4.3419e-07 -0.000870056 0.000115384 0.000282191 0.011 595.069 -1.4066 0.999894 -1.65235e-06 
161 1 0.0394498 0.0598852 0.0574872 0 0 0 4.28767e-06 7.56575e-06 -8.62412e-06 6.90463e-07 -1.17577e-07 -1.29261e-06 -0.00101272 0.00064006 0.000581441 0.011 594.914 -1.4822 0.999894 -1.65235e-06 
92 1 0.0894384 0.0558524 0.0648087 0 0 0 -1.98851e-05 5.67662e-05 2.95173e-05 1.89651e-07 1.36703e-05 2.05937e-06 -0.0108968 0.00203024 -0.00818138 0.011 594.857 -1.4542 0.999887 -1.76418e-06 
54 1 0.0259864 0.0756811 0.0637101 0 0 0 -4.50574e-06 4.07389e-06 -1.5503e-06 -1.94159e-07 1.29223e-07 -5.65929e-07 0.000542882 -0.000402448 0.000387163 0.011 595.152 -1.37354 0.999894 -1.65235e-06 
185 1 0.053457 0.075131 0.0613741 0 0 0 -6.37585e-06 1.67453e-05 -1.18794e-06 -1.1654e-06 1.15592e-06 -9.85919e-07 0.00122992 -0.000259377 0.00259481 0.011 594.846 -1.46642 0.999887 -1.76418e-06 
4 1 0.0399267 0.0897066 0.0543673 0 0 0 -9.58132e-06 2.33296e-06 3.65109e-06 -1.26404e-06 1.31069e-08 -1.21348e-07 -0.000274615 -0.000129414 -0.000756075 0.011 594.919 -1.4776 0.999894 -1.65235e-06 
103 1 0.0880655 0.0164058 0.067563 0 0 0 -0.0139507 0.000817764 -0.000795575 -0.000703346 0.000467461 0.000231944 0.339068 2.50485 -3.96598 0.011 593.805 -1.73948 0.999858 -2.22034e-06 
52 1 0.0140783 0.020984 0.0728816 0 0 0 -1.78025e-05 3.1691e-06 -1.79491e-06 -2.81216e-07 1.07325e-07 -6.0661e-07 8.91795e-05 -0.00127037 -0.000326682 0.011 594.777 -1.47138 0.999884 -1.81331e-06 
28 1 0.0400645 0.0320455 0.0674229 0 0 0 -1.31728e-05 -1.36227e-05 1.14337e-06 3.41864e-07 -4.93615e-07 -1.36779e-06 0.000594205 -0.00316837 -0.0019036 0.011 594.733 -1.49187 0.999884 -1.81331e-06 
232 1 0.0333589 0.0175483 0.0819463 0 0 0 -5.27908e-05 -4.62847e-06 9.00945e-06 -1.49435e-06 -4.22121e-07 -4.17259e-07 -0.001056 0.000538368 -0.00165147 0.011 594.745 -1.4819 0.999884 -1.81331e-06 
153 1 0.0266104 0.0487988 0.0697447 0 0 0 3.8717e-06 3.67819e-06 -1.98544e-06 6.29749e-07 -1.16521e-07 -9.19726e-07 0.000821309 0.000147033 -0.000318022 0.011 594.845 -1.4409 0.999884 -1.81331e-06 
140 1 0.0580435 0.036236 0.0784976 0 0 0 -2.18381e-05 5.31089e-05 -3.16426e-05 1.515e-06 1.48609e-06 -5.05389e-06 -0.00319095 0.00558655 0.00787677 0.011 594.012 -1.63899 0.999858 -2.22021e-06 
189 1 0.0810383 0.0375974 0.0723347 0 0 0 -4.80948e-05 2.39247e-05 -6.83471e-06 -1.82945e-06 1.29997e-05 -1.54388e-06 0.0218892 0.0108496 0.00595836 0.011 593.919 -1.68507 0.999858 -2.22021e-06 
200 1 0.0104474 0.051329 0.0831928 0 0 0 -1.2833e-06 -5.7375e-07 1.58059e-06 7.23596e-08 -2.07251e-07 -6.1706e-07 0.000810054 -0.000211629 -0.000625299 0.011 595.139 -1.3701 0.999894 -1.65235e-06 
157 1 0.0560391 0.0559524 0.070743 0 0 0 -2.52286e-05 5.9275e-07 -1.33413e-05 -6.41875e-07 4.59914e-08 -7.64741e-07 0.0017379 -0.00240212 -0.00552857 0.011 594.864 -1.45585 0.999887 -1.76419e-06 
14 1 0.0104601 0.0722665 0.0801952 0 0 0 -6.15898e-07 2.01308e-06 3.60088e-06 5.99529e-09 -9.45882e-08 -6.75297e-07 -0.00048642 -0.000446494 0.00041417 0.011 595.182 -1.35179 0.999894 -1.65235e-06 
69 1 0.0401962 0.0684185 0.0785536 0 0 0 -2.11171e-06 1.07206e-05 -1.87275e-06 1.03443e-09 2.62875e-07 -1.09733e-06 0.000684067 0.000941674 0.00144559 0.011 595.174 -1.35469 0.999894 -1.65235e-06 
85 1 0.0738103 0.069899 0.0696566 0 0 0 1.87174e-05 6.26598e-05 -9.11949e-06 7.1812e-06 1.25401e-05 -3.49325e-06 -4.80024e-05 0.00308599 0.0075259 0.011 594.921 -1.42308 0.999887 -1.76418e-06 
209 1 0.0105735 0.0898516 0.0690399 0 0 0 -1.91256e-06 1.27329e-07 -2.77941e-07 -1.59963e-07 -4.37351e-08 -2.19047e-07 7.17338e-06 2.71318e-05 -0.000111384 0.011 595.16 -1.36811 0.999894 -1.65235e-06 
127 1 0.037478 0.089661 0.0753388 0 0 0 -7.67378e-06 3.608e-06 3.63495e-06 -5.14638e-07 1.97246e-07 -1.25876e-07 -0.000137722 3.46578e-05 -0.000435209 0.011 595.156 -1.36553 0.999894 -1.65235e-06 
183 1 0.0653237 0.089684 0.0712199 0 0 0 -1.97963e-05 1.44969e-05 4.00965e-06 -2.95785e-06 1.9896e-06 -4.62175e-07 -0.000208342 0.000902047 -0.00163874 0.011 594.926 -1.41942 0.999887 -1.76418e-06 
194 1 0.089317 0.0897646 0.0700225 0 0 0 1.74457e-06 -1.04437e-06 -2.64092e-06 2.81745e-07 -1.09666e-07 -3.2383e-07 0.000224049 0.000141488 0.000217794 0.011 594.908 -1.43233 0.999887 -1.76418e-06 
187 1 0.0105542 0.0103441 0.0908406 0 0 0 -1.02881e-05 -5.16123e-07 -4.41961e-07 -3.28566e-07 -5.94409e-08 -3.78197e-07 0.000156828 0.000350455 0.000512839 0.011 594.814 -1.44701 0.999884 -1.81331e-06 
229 1 0.0868392 0.00985537 0.0875435 0 0 0 -0.000405016 -6.54575e-06 -0.000210325 -1.56488e-05 2.58099e-06 -4.13676e-06 -0.0196182 0.0809656 0.0382491 0.011 593.923 -1.67612 0.999858 -2.22024e-06 
58 1 0.0107818 0.0316266 0.0910428 0 0 0 -1.51271e-05 4.18595e-07 -4.65499e-06 -2.3658e-07 -9.35625e-08 -6.68266e-07 -0.000242897 0.00111129 2.41263e-05 0.011 594.839 -1.43582 0.999884 -1.81331e-06 
53 1 0.0528311 0.0187594 0.0909102 0 0 0 -0.000101971 0.000123444 9.21921e-06 -2.83246e-06 5.33217e-06 -1.20078e-06 0.0063217 2.77839e-05 0.0179669 0.011 593.984 -1.64356 0.999858 -2.2202e-06 
167 1 0.0729657 0.025541 0.0880403 0 0 0 -0.000150723 -1.08539e-06 2.68985e-05 -3.77256e-06 2.79352e-07 1.67076e-08 -0.011491 -0.00152453 -0.030361 0.011 593.881 -1.6856 0.999858 -2.2202e-06 
49 1 0.0307645 0.0381408 0.0876058 0 0 0 -2.90558e-05 -2.43642e-07 3.50264e-06 -4.08541e-07 -6.7271e-07 -8.04153e-07 -0.000460934 -0.00328743 -0.000735308 0.011 594.823 -1.44395 0.999884 -1.81331e-06 
39 1 0.0897519 0.0377436 0.0918728 0 0 0 8.28735e-06 -8.07156e-05 -2.02673e-05 9.07242e-07 -2.40528e-06 -2.29754e-06 -0.00480037 -0.0031118 0.00814845 0.011 594.015 -1.63159 0.999858 -2.22021e-06 
102 1 0.0284138 0.0591569 0.0943165 0 0 0 -1.03086e-05 1.98245e-06 6.96785e-06 -5.67748e-09 -7.21013e-07 -1.12085e-06 -0.000225948 -0.00139294 -0.00091776 0.011 595.174 -1.35538 0.999894 -1.65235e-06 
47 1 0.0478044 0.0509487 0.0901427 0 0 0 -2.68782e-05 4.42199e-06 -4.7095e-06 -5.82898e-08 -1.19657e-06 -1.00112e-06 0.00065036 0.00360808 0.00088377 0.011 595.066 -1.40541 0.999894 -1.65235e-06 
255 1 0.0724707 0.0533015 0.0843199 0 0 0 -3.11339e-05 -2.13881e-05 4.28319e-05 -3.63774e-06 5.374e-07 4.67642e-06 -0.0132023 -0.000438453 -0.00332954 0.011 594.84 -1.4616 0.999887 -1.76418e-06 
260 1 0.0897781 0.0584198 0.0958576 0 0 0 -1.71703e-05 -1.2401e-05 -1.20804e-05 -6.23563e-07 -7.2737e-08 -5.90192e-07 0.0021052 0.00108495 -0.0019783 0.011 594.869 -1.44645 0.999887 -1.76419e-06 
93 1 0.0702562 0.0726111 0.0941228 0 0 0 -3.11793e-06 7.64259e-06 -1.17919e-05 4.40399e-07 1.70203e-06 -1.31723e-06 0.00370267 -0.000271724 -3.20834e-05 0.011 594.927 -1.41793 0.999887 -1.76419e-06 
133 1 0.0892942 0.0761732 0.0853094 0 0 0 8.19637e-07 2.45592e-06 -6.57215e-07 4.34466e-07 8.07487e-07 1.28875e-08 -0.000639954 -5.40606e-06 -0.000822349 0.011 594.924 -1.42079 0.999887 -1.76418e-06 
256 1 0.020701 0.089378 0.0883466 0 0 0 -4.74205e-06 4.0874e-06 2.13353e-06 -2.03095e-07 -2.97494e-08 -3.26962e-07 -9.22122e-05 -0.000137866 -0.000125482 0.011 595.185 -1.3494 0.999894 -1.65235e-06 
6 1 0.0531528 0.0837564 0.0878213 0 0 0 -8.13903e-06 6.97765e-06 5.46493e-06 -6.04762e-07 7.55964e-07 -1.73286e-07 0.0011004 -0.000290166 0.00131775 0.011 594.955 -1.40497 0.999887 -1.76418e-06 
246 1 0.0105985 0.0104835 0.11218 0 0 0 -4.49265e-06 -3.25528e-06 2.44009e-06 -1.68848e-07 -1.29282e-07 -2.4506e-07 -0.000253678 7.87455e-05 -0.000382789 0.011 594.912 -1.42431 0.999885 -1.78974e-06 
149 1 0.0295209 0.0106072 0.101696 0 0 0 -2.58106e-05 1.80897e-06 1.1403e-05 -6.78193e-07 -1.16854e-07 -1.86771e-07 0.00125911 0.000149168 0.00231745 0.011 594.817 -1.44641 0.999884 -1.81331e-06 
156 1 0.0493614 0.0107069 0.110756 0 0 0 -1.03615e-05 5.40082e-06 -3.96108e-06 2.2879e-07 4.86929e-08 -1.00366e-06 0.000860108 0.00221615 0.000893578 0.011 594.892 -1.43416 0.999885 -1.78974e-06 
91 1 0.0702378 0.0100933 0.101845 0 0 0 -7.19236e-05 9.03112e-06 6.81692e-05 -2.91503e-06 1.10191e-06 5.20993e-06 0.00456101 0.0152112 0.0104295 0.011 594.027 -1.62537 0.999858 -2.22019e-06 
241 1 0.0900971 0.0104264 0.108622 0 0 0 4.77278e-05 4.96554e-05 -7.87113e-05 1.84884e-06 6.60851e-07 -2.13584e-06 0.0051132 -0.0121491 -0.00375136 0.011 595.1 -1.40869 0.999896 -1.62185e-06 
139 1 0.0164454 0.0310481 0.111084 0 0 0 -1.19457e-06 -1.38878e-06 -3.5306e-06 -2.92118e-08 -3.05189e-08 -6.96476e-07 0.000202955 0.000244725 6.56377e-05 0.011 594.914 -1.4232 0.999885 -1.78974e-06 
249 1 0.0399666 0.0294897 0.104759 0 0 0 -5.79971e-05 1.2461e-06 1.7725e-05 -1.34243e-06 -4.26414e-07 -5.45768e-07 -0.00170873 0.0043455 -0.00296034 0.011 594.781 -1.46171 0.999884 -1.8133e-06 
5 1 0.0298512 0.0496361 0.113929 0 0 0 -3.26772e-06 4.8774e-06 7.65448e-06 1.79017e-07 -8.11855e-07 -1.53033e-06 -0.000883432 0.00188456 -0.000477737 0.011 594.958 -1.40234 0.999885 -1.78974e-06 
148 1 0.0510922 0.0484013 0.11152 0 0 0 -5.54296e-06 -4.43146e-06 1.42406e-06 -1.65671e-07 -4.97985e-07 -6.01836e-07 -0.000253758 -0.00148637 1.76697e-05 0.011 595.169 -1.37775 0.999896 -1.62185e-06 
122 1 0.0693596 0.0412447 0.102364 0 0 0 9.37926e-06 4.39068e-05 -3.42915e-06 -1.78257e-07 3.97418e-06 -2.87179e-06 0.00808212 -0.000632975 0.00358689 0.011 594.026 -1.62329 0.999858 -2.2202e-06 
254 1 0.0886879 0.0446661 0.111892 0 0 0 -1.40095e-05 -3.36277e-06 -2.34148e-05 -4.13116e-07 -4.07153e-07 -2.2129e-06 -0.0010751 0.00244572 -0.00265356 0.011 595.109 -1.40289 0.999896 -1.62185e-06 
251 1 0.0105112 0.0513849 0.10502 0 0 0 -4.47401e-06 7.26366e-07 9.87196e-06 -2.17113e-08 -7.96908e-07 -5.06243e-07 -0.000989831 -0.000938954 5.44609e-05 0.011 595.174 -1.3532 0.999894 -1.65235e-06 
23 1 0.0687604 0.0608117 0.111979 0 0 0 -6.38798e-06 -6.48803e-07 3.38114e-06 -1.18204e-07 -6.63083e-08 -4.66129e-07 -0.00287456 -0.000117553 -0.00061551 0.011 594.927 -1.41649 0.999885 -1.79372e-06 
84 1 0.0135716 0.0732807 0.100604 0 0 0 -3.74822e-06 4.78064e-06 1.89796e-06 1.52912e-08 -2.42085e-07 -9.04639e-07 0.000324834 0.000378262 -4.95748e-05 0.011 595.093 -1.38969 0.999894 -1.65235e-06 
219 1 0.0316307 0.0712553 0.112523 0 0 0 -1.85912e-06 2.17761e-06 1.55175e-06 -1.72747e-07 -6.44042e-07 -1.46039e-06 0.000339134 -0.000228845 0.000326517 0.011 594.667 -1.46958 0.999875 -1.94141e-06 
59 1 0.050653 0.0683153 0.102676 0 0 0 -1.40211e-06 -1.69249e-06 -4.21847e-06 1.73144e-07 -6.64387e-07 -1.82526e-06 3.87845e-06 0.000825428 -0.00068218 0.011 594.934 -1.41478 0.999887 -1.76418e-06 
158 1 0.0876349 0.0711538 0.112628 0 0 0 2.51167e-06 -6.8584e-06 -4.9272e-06 5.72689e-07 -2.75111e-07 -7.0647e-07 -0.00086569 -0.000481714 -0.000313071 0.011 594.921 -1.41914 0.999885 -1.79372e-06 
176 1 0.0106114 0.0894532 0.114739 0 0 0 -6.8343e-07 7.08385e-07 1.7391e-06 -5.35769e-08 -4.46005e-08 -5.75822e-07 -0.000121209 -0.000117186 -7.59049e-06 0.011 594.607 -1.49922 0.999875 -1.94141e-06 
128 1 0.0375955 0.08928 0.102109 0 0 0 -5.06606e-06 2.65597e-07 3.30747e-06 -3.06343e-07 -3.52581e-07 -3.45313e-07 -0.000373513 0.000274125 -0.000524462 0.011 595.154 -1.36296 0.999894 -1.65235e-06 
37 1 0.0633725 0.0898713 0.105256 0 0 0 -4.25547e-06 2.25922e-06 6.02412e-06 -2.43885e-07 2.92499e-07 5.27489e-08 -0.000752357 0.000578612 -0.000480963 0.011 594.916 -1.42267 0.999887 -1.76418e-06 
211 1 0.0861894 0.0895474 0.101445 0 0 0 3.73107e-06 4.42992e-07 -4.01711e-06 8.05282e-07 3.55353e-07 -3.83093e-07 0.000551331 -7.45813e-05 0.000397421 0.011 594.928 -1.41713 0.999887 -1.76418e-06 
250 1 0.0102779 0.014181 0.133064 0 0 0 -1.59267e-06 -2.09122e-06 3.13791e-06 -1.23074e-08 -3.98372e-08 -4.63326e-07 0.000209323 -0.000471474 -0.000335206 0.011 594.926 -1.41692 0.999885 -1.78974e-06 
87 1 0.0293522 0.0106177 0.123275 0 0 0 -3.76872e-06 -4.09477e-06 3.24523e-06 -3.44747e-08 -1.8949e-07 -5.91813e-07 -0.000120184 0.00080749 0.000160758 0.011 594.921 -1.41959 0.999885 -1.78974e-06 
48 1 0.0483693 0.0154427 0.131909 0 0 0 2.46806e-06 1.16922e-06 -5.63146e-06 1.50723e-07 -1.69362e-07 -1.23112e-06 2.92647e-05 0.000398023 0.000544982 0.011 594.963 -1.40099 0.999885 -1.78974e-06 
215 1 0.0672473 0.0102583 0.12315 0 0 0 1.18693e-05 -6.17091e-06 1.49907e-05 5.68561e-07 -5.21907e-07 7.51502e-07 -0.00126165 -0.00319636 -0.00091814 0.011 595.187 -1.36837 0.999896 -1.62185e-06 
242 1 0.089466 0.0110418 0.1296 0 0 0 -2.89855e-05 -3.58381e-06 -3.54894e-05 -7.85177e-07 4.99209e-07 -1.05452e-06 7.24262e-05 0.00126615 0.000237416 0.011 595.287 -1.32351 0.999896 -1.62185e-06 
175 1 0.0589629 0.0291888 0.117544 0 0 0 3.79974e-06 -4.98951e-06 3.63583e-06 4.63577e-07 -4.30874e-07 -4.3055e-07 0.000462325 -0.000139989 0.000255459 0.011 595.245 -1.34335 0.999896 -1.62185e-06 
72 1 0.0799081 0.026366 0.116909 0 0 0 4.24895e-06 1.08406e-05 -2.21938e-05 3.75704e-07 1.61933e-07 -1.83192e-06 0.00313835 0.00345732 0.0024499 0.011 595.268 -1.33638 0.999896 -1.62185e-06 
82 1 0.0108147 0.0371683 0.130156 0 0 0 -3.85952e-07 -1.92037e-06 -1.69239e-07 -4.73198e-07 -1.1491e-07 -8.26259e-07 -0.000106735 -0.000162712 -0.000188757 0.011 594.899 -1.42921 0.999885 -1.78974e-06 
227 1 0.0401906 0.034546 0.125453 0 0 0 1.06671e-06 1.59112e-06 5.13219e-06 3.04056e-07 -2.68109e-07 -1.14147e-06 0.000713934 -0.000113169 -0.000752619 0.011 594.941 -1.41113 0.999885 -1.78974e-06 
67 1 0.0717978 0.0446653 0.125602 0 0 0 -2.80427e-08 1.61618e-06 8.66242e-06 3.84628e-07 -2.98367e-08 -5.28392e-07 0.00112618 0.000721407 0.000469434 0.011 595.266 -1.33278 0.999896 -1.62185e-06 
24 1 0.0895705 0.0350322 0.13329 0 0 0 5.27922e-06 -1.61507e-06 -7.57314e-06 3.23088e-07 -1.82913e-07 -1.08076e-06 0.000391271 -0.000799854 0.000427645 0.011 595.295 -1.31806 0.999896 -1.62185e-06 
151 1 0.0511765 0.0661472 0.124509 0 0 0 2.35653e-06 -3.13723e-06 -3.15668e-06 5.60145e-07 1.51315e-06 -2.57731e-06 2.65504e-05 -0.000195661 -0.0021089 0.011 594.921 -1.41876 0.999885 -1.79372e-06 
205 1 0.0897513 0.0571851 0.128851 0 0 0 2.30422e-06 -6.37284e-06 -1.11887e-05 2.07713e-07 -5.32927e-07 -1.40342e-06 0.00132899 -0.000880895 0.000854979 0.011 594.958 -1.40303 0.999885 -1.79372e-06 
66 1 0.0105907 0.0685175 0.120378 0 0 0 -2.99453e-07 2.48703e-07 8.5444e-07 -3.21141e-07 -3.4749e-07 -9.3202e-07 0.000151759 -5.0235e-05 3.1674e-05 0.011 594.633 -1.48696 0.999875 -1.94141e-06 
154 1 0.070019 0.0798267 0.122025 0 0 0 2.35819e-06 -5.90363e-07 -2.96277e-06 4.70986e-07 6.00604e-08 -9.29057e-07 0.00120912 0.000539588 -0.000132606 0.011 594.924 -1.41747 0.999885 -1.79372e-06 
113 1 0.0279081 0.089259 0.127595 0 0 0 -1.69866e-06 -2.30676e-07 8.39775e-07 1.24022e-07 -1.91019e-07 -1.17803e-06 1.58615e-05 0.000117799 -0.000140514 0.011 594.579 -1.51229 0.999875 -1.94141e-06 
57 1 0.0486659 0.0879567 0.121139 0 0 0 -2.08249e-06 4.75324e-06 4.91027e-06 7.5212e-08 2.94043e-07 -4.3166e-07 0.000537588 -0.000479922 0.000430532 0.011 594.606 -1.49925 0.999875 -1.94141e-06 
226 1 0.0894242 0.0898458 0.122583 0 0 0 1.7153e-06 -2.34359e-06 -3.80879e-06 2.80196e-07 -1.40056e-07 -4.2756e-07 0.000255287 -6.15447e-05 0.000159962 0.011 594.922 -1.41825 0.999885 -1.79372e-06 
115 1 0.0349095 0.0096773 0.147788 0 0 0 2.71597e-06 -5.76733e-07 -6.2127e-07 1.42649e-07 -4.58516e-08 -1.40311e-06 -8.02554e-06 -1.29791e-05 -0.000238101 0.011 594.935 -1.41079 0.999885 -1.78974e-06 
137 1 0.08073 0.0101884 0.148471 0 0 0 -4.35486e-06 -1.29171e-06 -9.65134e-06 -2.52689e-07 -7.8312e-08 -4.30468e-07 -0.000452105 0.00113195 0.000311443 0.011 595.28 -1.32485 0.999896 -1.62185e-06 
134 1 0.0263016 0.0262736 0.139306 0 0 0 9.00492e-08 -1.07929e-06 2.11005e-06 2.37498e-08 -3.57867e-07 -1.88065e-06 -2.6325e-05 0.000292929 0.00026449 0.011 594.927 -1.41609 0.999885 -1.78974e-06 
129 1 0.0507484 0.0308357 0.146556 0 0 0 5.81671e-07 4.78416e-07 3.68017e-07 -4.94097e-08 7.20012e-08 -1.44839e-06 0.000448903 -0.000165651 0.000151012 0.011 595.237 -1.34298 0.999896 -1.62185e-06 
75 1 0.0700296 0.0264401 0.137485 0 0 0 1.15488e-06 4.67466e-07 -7.70797e-07 1.0355e-07 5.66089e-08 -1.25989e-06 -0.000589385 0.000283344 -0.000427693 0.011 595.295 -1.31784 0.999896 -1.62185e-06 
198 1 0.0289121 0.0475845 0.137646 0 0 0 8.53245e-07 9.84135e-08 2.95459e-06 -5.15527e-08 -3.13897e-07 -1.63049e-06 -7.86163e-07 -0.000418272 5.2934e-05 0.011 594.875 -1.43868 0.999885 -1.78974e-06 
244 1 0.0620006 0.0485664 0.14429 0 0 0 -1.7629e-06 -9.47063e-07 2.8238e-06 2.03059e-08 -5.31391e-08 -1.71657e-06 -0.000882483 -0.000618373 0.000229934 0.011 595.242 -1.34266 0.999896 -1.62185e-06 
135 1 0.0847492 0.0491533 0.148406 0 0 0 3.19335e-06 -2.90089e-06 -8.3994e-06 3.87201e-07 -6.05185e-08 -1.30005e-06 -0.000630161 0.000749877 -0.000290566 0.011 595.254 -1.33686 0.999896 -1.62185e-06 
71 1 0.00991284 0.0567029 0.137456 0 0 0 9.50576e-08 -7.30609e-07 -3.82069e-07 3.38787e-08 -6.15737e-08 -9.93296e-07 2.01862e-05 7.92268e-06 2.77312e-05 0.011 594.637 -1.48374 0.999875 -1.94141e-06 
10 1 0.0453629 0.0626077 0.145417 0 0 0 -1.01645e-06 -1.16127e-06 -2.82018e-06 -5.31645e-08 -3.50521e-07 -2.32495e-06 0.000316803 0.000255481 -0.000207816 0.011 594.639 -1.48286 0.999875 -1.94141e-06 
17 1 0.0720907 0.0654354 0.136838 0 0 0 1.31763e-06 -8.30513e-06 -7.07108e-06 4.51451e-07 -6.80408e-07 -1.68173e-06 -0.000214242 0.000376738 -0.000805307 0.011 594.947 -1.40708 0.999885 -1.79372e-06 
29 1 0.0105465 0.0805231 0.137848 0 0 0 -8.6758e-07 -4.1626e-07 8.38812e-07 4.39077e-07 1.48833e-08 -1.06931e-06 -6.87731e-05 -4.33668e-05 -4.66476e-05 0.011 594.584 -1.50875 0.999875 -1.94141e-06 
132 1 0.0280519 0.0685317 0.133568 0 0 0 -1.38163e-06 -1.68965e-07 1.13303e-06 2.50863e-07 -4.31703e-07 -1.73602e-06 -0.000103741 9.88384e-05 0.000130458 0.011 594.604 -1.49955 0.999875 -1.94141e-06 
170 1 0.0351469 0.0822765 0.148399 0 0 0 -1.58632e-06 1.00357e-06 -1.77042e-09 -1.65628e-06 2.46588e-09 -1.01547e-06 -0.000169848 -0.00030417 -0.000344846 0.011 594.584 -1.51 0.999875 -1.94141e-06 
173 1 0.0556911 0.0812712 0.14068 0 0 0 -2.13267e-06 -7.9507e-07 8.92558e-07 -7.19871e-07 1.7325e-07 -5.54498e-07 0.000300966 0.000289043 0.000157852 0.011 594.891 -1.43431 0.999885 -1.79372e-06 
50 1 0.0799641 0.0848752 0.140416 0 0 0 2.31151e-06 -5.53368e-06 -4.39571e-06 2.66481e-07 -3.68345e-07 -7.97624e-07 -0.00020596 -0.000266972 0.000591398 0.011 594.921 -1.41917 0.999885 -1.79372e-06 
252 1 0.0113017 0.0114455 0.154228 0 0 0 -0.000423352 -0.000158625 3.34733e-06 -2.06696e-06 1.24737e-06 -3.2593e-07 -0.0216999 0.0575487 -0.741334 0.011 594.956 -1.40181 0.999885 -1.78974e-06 
101 1 0.0483183 0.0164208 0.161939 0 0 0 2.21228e-06 -1.27908e-06 -1.29829e-06 -2.89871e-07 -1.94509e-07 -1.366e-06 -0.00012235 5.94553e-06 3.88301e-05 0.011 595.026 -1.37264 0.999885 -1.78974e-06 
171 1 0.0681592 0.0101686 0.164894 0 0 0 2.19099e-06 -7.23973e-07 -1.75681e-06 -2.54608e-07 -1.98628e-07 -5.26979e-07 1.73478e-05 6.90223e-05 -3.17226e-05 0.011 595.223 -1.34829 0.999896 -1.62185e-06 
248 1 0.0894613 0.0287929 0.153385 0 0 0 -1.38756e-06 -1.47877e-06 -6.73263e-06 -3.35538e-07 9.99862e-08 -6.5775e-07 0.00028731 -0.000261962 -0.000222557 0.011 595.276 -1.32661 0.999896 -1.62185e-06 