ITEM: TIMESTEP
160000
ITEM: NUMBER OF ATOMS
1005
ITEM: BOX BOUNDS mm mm mm
0 0.1
0 0.1
0 1.1
ITEM: ATOMS id type x y z ix iy iz vx vy vz fx fy fz omegax omegay omegaz radius f_Temp[0] f_heatFlux[0] f_speciesC[0] f_speciesCFlux[0] 
152 1 0.0254472 0.0104912 0.0102221 0 0 0 1.21569e-07 1.62361e-06 -1.91835e-07 8.85461e-06 2.24211e-05 -5.51559e-06 0.00024334 0.000468815 -0.000780207 0.011 591.857 -2.27698 0.99998 -3.00916e-06 
97 1 0.010096 0.0228962 0.0166306 0 0 0 2.31455e-06 8.84057e-06 4.25843e-06 4.75409e-06 2.72646e-05 -4.80125e-06 -0.000867298 -1.04459e-05 0.00070507 0.011 591.894 -2.25008 0.99998 -3.00916e-06 
231 1 0.0360319 0.0295067 0.0103016 0 0 0 -1.30802e-06 1.2141e-05 2.16992e-06 3.64948e-05 7.29815e-05 -5.41902e-05 -0.000983918 -0.000262741 0.0016623 0.011 591.866 -2.26994 0.99998 -3.00915e-06 
89 1 0.0620414 0.0171548 0.0104263 0 0 0 -2.18009e-05 1.63378e-05 1.96293e-05 8.6563e-06 8.31622e-06 1.38893e-05 -0.00125812 -0.00153055 0.0019056 0.011 590.729 -2.56905 0.999977 -3.51827e-06 
216 1 0.081237 0.0269591 0.00999668 0 0 0 -2.89044e-05 1.64002e-06 4.54258e-05 2.78984e-05 -1.10462e-05 -2.30516e-05 0.000667065 -0.00328265 -0.00306323 0.011 590.672 -2.59381 0.999977 -3.51825e-06 
155 1 0.0150043 0.0423283 0.010338 0 0 0 -5.38006e-06 8.76093e-06 1.03661e-06 0.000159725 -3.77043e-06 -2.12563e-05 -0.000220999 -0.00057465 0.000188948 0.011 591.899 -2.25341 0.99998 -3.00916e-06 
79 1 0.0644516 0.046088 0.0105442 0 0 0 -3.72791e-05 1.60527e-05 1.84732e-05 -2.79981e-05 1.22295e-05 -3.66798e-05 -0.00141229 -0.000385369 0.00416964 0.011 590.931 -2.46372 0.999977 -3.51827e-06 
180 1 0.0339229 0.0582285 0.0104706 0 0 0 3.78253e-05 1.72132e-05 1.03524e-05 0.000127865 0.00010121 1.18049e-05 -0.00149224 0.00337832 -3.78803e-05 0.011 592.332 -2.13691 0.999981 -2.81738e-06 
33 1 0.0814168 0.0599236 0.0102621 0 0 0 -7.59382e-05 -4.15205e-05 3.25738e-05 -0.000117282 -9.15153e-05 -3.46652e-05 0.00320494 -0.00720096 -0.00794481 0.011 592.86 -2.00985 0.999983 -2.56636e-06 
2 1 0.0105505 0.0718176 0.00973646 0 0 0 6.93428e-06 6.22425e-06 -4.81601e-06 5.28373e-05 -1.63417e-05 -9.87682e-07 -0.000683927 0.000618003 -0.00030939 0.011 592.336 -2.13393 0.999981 -2.81738e-06 
30 1 0.0423263 0.0807624 0.0100003 0 0 0 4.20521e-05 3.18647e-06 5.50606e-06 -6.18463e-05 7.12941e-05 -4.92214e-05 -0.000640332 0.00465273 -0.00249434 0.011 592.369 -2.119 0.999981 -2.81738e-06 
253 1 0.0601195 0.0675847 0.0106246 0 0 0 -5.91158e-05 1.26097e-05 6.17015e-06 -2.93741e-05 5.50187e-06 -2.10293e-05 -0.000407465 -0.00593758 -0.00232315 0.011 592.873 -2.00348 0.999983 -2.56638e-06 
25 1 0.0890672 0.0801572 0.00996801 0 0 0 -6.89442e-06 -3.11055e-05 2.3571e-05 2.19874e-05 -7.7371e-05 1.84734e-05 0.000579666 2.36391e-05 0.0023966 0.011 592.937 -1.96787 0.999983 -2.56637e-06 
233 1 0.0222916 0.0895166 0.0118686 0 0 0 1.13334e-05 5.85142e-06 6.25841e-06 5.0464e-06 2.19918e-05 -3.97016e-05 -0.000570344 -0.00466801 0.000919623 0.011 592.323 -2.14341 0.999981 -2.81738e-06 
192 1 0.0689573 0.0890013 0.0109515 0 0 0 5.04528e-05 -1.33199e-05 3.31542e-05 3.66206e-05 -6.29187e-05 2.43729e-05 0.000890887 0.00532592 -0.00160618 0.011 592.927 -1.97582 0.999983 -2.56638e-06 
166 1 0.0440599 0.0107333 0.0202808 0 0 0 -1.94089e-05 -5.32054e-06 -2.26083e-06 -1.19645e-05 1.408e-07 -7.55645e-06 0.000395969 -0.00153491 0.000803701 0.011 591.73 -2.33675 0.99998 -3.00916e-06 
203 1 0.0627298 0.0103232 0.031002 0 0 0 -5.25899e-05 1.4603e-05 2.60845e-05 -5.32016e-05 2.04338e-05 1.94208e-05 0.00272637 -0.00240993 0.00445892 0.011 590.761 -2.54525 0.999977 -3.51827e-06 
234 1 0.0888458 0.0102824 0.0207324 0 0 0 -5.5342e-05 -5.7945e-06 4.78769e-05 -4.85204e-05 -3.37637e-05 -5.23216e-06 0.00409284 -0.00416732 0.00528338 0.011 590.664 -2.60023 0.999977 -3.51826e-06 
22 1 0.0674543 0.0308915 0.0259842 0 0 0 -3.19484e-05 4.34304e-05 3.45908e-05 1.63927e-05 5.74008e-05 -1.55017e-06 -0.00232699 -0.000184094 -0.00155802 0.011 590.777 -2.53445 0.999977 -3.51826e-06 
104 1 0.0246176 0.0349093 0.0292672 0 0 0 -2.07756e-05 2.01835e-05 3.32161e-06 3.31653e-05 4.67119e-05 -8.4704e-05 -0.00227091 0.00115683 -0.00028377 0.011 591.917 -2.23685 0.99998 -3.00914e-06 
35 1 0.0463013 0.034386 0.0280729 0 0 0 -2.06891e-05 3.31093e-05 1.82668e-05 1.54574e-05 8.3063e-05 -8.6142e-05 0.00148302 -0.00145874 0.00242711 0.011 591.925 -2.23666 0.99998 -3.00914e-06 
147 1 0.0896082 0.0357669 0.0270741 0 0 0 -5.14718e-06 -4.99892e-05 9.38159e-05 3.41785e-05 -7.30991e-05 -1.66121e-05 0.00406609 0.00742214 0.00295635 0.011 590.87 -2.49226 0.999977 -3.51822e-06 
8 1 0.0158776 0.0580095 0.024551 0 0 0 1.30559e-05 2.17661e-05 -3.0242e-06 0.000213083 -2.64427e-05 -2.66097e-05 -0.0011037 0.00158715 -0.00149776 0.011 592.276 -2.16076 0.999981 -2.81738e-06 
63 1 0.0362748 0.0531948 0.0311919 0 0 0 -1.39797e-05 1.22136e-05 2.34361e-05 0.000121062 9.93551e-05 9.1842e-06 0.00171614 -0.00752532 -0.00200865 0.011 592.469 -2.07575 0.999981 -2.81738e-06 
99 1 0.0576221 0.0556974 0.0284731 0 0 0 -2.10376e-05 6.34782e-05 4.72591e-05 9.41351e-05 5.02826e-06 2.90903e-06 -0.00635497 0.00736037 0.00707876 0.011 592.886 -1.99802 0.999983 -2.56638e-06 
224 1 0.0872006 0.0564741 0.0302909 0 0 0 -3.36796e-05 -5.38242e-05 6.57506e-05 5.74373e-05 -9.80614e-05 -0.00012541 -0.00763225 0.0139173 0.006646 0.011 592.815 -2.02339 0.999983 -2.56633e-06 
126 1 0.0103593 0.0787913 0.0293285 0 0 0 8.76424e-06 7.18878e-06 -3.90354e-06 1.20651e-05 2.26115e-06 -2.6764e-07 0.000479477 2.76638e-05 0.000811609 0.011 592.571 -2.02354 0.999981 -2.81738e-06 
163 1 0.0308221 0.0731113 0.0256597 0 0 0 3.47443e-05 1.70031e-05 1.71768e-05 5.57967e-05 0.000144202 -7.46529e-06 0.00155576 -0.00372974 -0.00024623 0.011 592.376 -2.10643 0.999981 -2.81738e-06 
12 1 0.0745006 0.0734422 0.0257557 0 0 0 -7.37457e-05 -4.98089e-05 8.03487e-05 -1.31199e-05 -5.69852e-05 -2.7952e-05 0.00342947 -0.000282422 -0.00395639 0.011 592.934 -1.97027 0.999983 -2.56636e-06 
257 1 0.0531551 0.0892636 0.0262312 0 0 0 9.97293e-06 -1.18823e-05 2.97379e-05 -2.08701e-05 2.45947e-05 -2.83058e-05 -0.000654115 -0.0109303 -0.0012379 0.011 592.895 -1.98896 0.999983 -2.56638e-06 
243 1 0.0892875 0.0891912 0.0286315 0 0 0 -1.59693e-05 -2.74343e-05 2.6425e-05 3.56628e-06 -2.35635e-05 -1.58807e-05 -0.00193446 0.00207449 0.00181824 0.011 593.1 -1.8906 0.999983 -2.56637e-06 
223 1 0.036698 0.0106926 0.0405222 0 0 0 -8.60453e-05 -1.15246e-05 -3.3806e-05 -4.33571e-05 -1.03852e-05 -9.67e-06 -0.00297011 -0.00411999 0.00814323 0.011 591.977 -2.20985 0.99998 -3.00917e-06 
70 1 0.0104574 0.0206618 0.0372908 0 0 0 -4.32048e-06 1.86879e-05 8.44444e-06 1.81822e-05 -1.42989e-05 -2.0267e-05 0.000537312 -0.00116634 0.00204553 0.011 592.284 -2.06818 0.99998 -3.00915e-06 
45 1 0.0533468 0.0234872 0.0450369 0 0 0 -0.000109313 -1.10544e-05 3.87923e-05 -8.66241e-05 8.87063e-06 -9.06879e-05 0.0023805 -0.00748215 -0.00797939 0.011 591.274 -2.3101 0.999977 -3.51824e-06 
108 1 0.0809226 0.01944 0.0384434 0 0 0 -8.9981e-05 -8.39261e-05 8.26932e-05 -4.17027e-06 -7.49263e-05 -0.000109494 0.00735573 -0.00406437 -0.0128039 0.011 590.923 -2.4756 0.999977 -3.51824e-06 
96 1 0.0118127 0.0470098 0.0420245 0 0 0 -3.12529e-06 3.02514e-05 5.06783e-06 6.66009e-05 -1.06855e-05 -9.335e-05 0.000529532 -0.000514936 -0.0010208 0.011 592.166 -2.11952 0.99998 -3.00914e-06 
9 1 0.0408226 0.0409411 0.0478639 0 0 0 -2.18241e-05 1.02965e-05 2.33819e-05 -8.01025e-06 -4.69299e-05 -6.27408e-05 -0.000759853 0.00523609 0.00350768 0.011 594.337 -1.67784 0.999988 -1.80702e-06 
80 1 0.0755045 0.0427523 0.041724 0 0 0 -4.73762e-05 -7.3106e-05 0.000132798 0.000109475 -8.20907e-05 0.000118967 0.0102242 -0.0137975 -0.0161497 0.011 591.401 -2.25991 0.999977 -3.51822e-06 
146 1 0.0234892 0.0652286 0.0441928 0 0 0 7.73664e-07 8.30166e-06 -4.71429e-06 8.93295e-05 4.95874e-05 -2.12431e-05 0.000572551 0.00217146 -0.000815385 0.011 592.699 -1.95944 0.999981 -2.81738e-06 
182 1 0.0584028 0.0528232 0.0495936 0 0 0 -1.45519e-05 2.38837e-05 8.79843e-05 8.62637e-05 -8.02521e-06 8.50087e-06 0.0101605 -0.00727439 -0.00289361 0.011 594.484 -1.63352 0.999988 -1.75888e-06 
240 1 0.0106828 0.0818064 0.0498461 0 0 0 -1.19782e-06 7.97248e-06 3.11564e-06 1.48502e-06 4.38855e-05 -2.16371e-05 -0.000336466 0.000147243 0.00142865 0.011 594.731 -1.56467 0.999989 -1.64427e-06 
204 1 0.0466072 0.0738902 0.0406837 0 0 0 0.000111103 0.000105425 -1.9798e-05 0.000885805 0.0018844 -0.000783288 0.0116181 0.0100341 0.0243071 0.011 592.482 -2.05982 0.999981 -2.81728e-06 
78 1 0.0692243 0.0708979 0.0483667 0 0 0 4.6061e-05 2.29931e-05 0.000204186 0.000130834 6.38127e-05 -7.01723e-05 0.00263366 0.0173509 -0.00396528 0.011 594.752 -1.51061 0.999988 -1.75888e-06 
212 1 0.0899724 0.0687317 0.0468712 0 0 0 1.79115e-05 -2.64364e-06 5.08536e-06 5.74191e-05 -2.33517e-05 -0.000277209 0.00212696 0.000327325 0.00114014 0.011 594.709 -1.53593 0.999988 -1.75887e-06 
32 1 0.0268327 0.0897763 0.0377094 0 0 0 -5.09389e-06 5.88014e-06 1.77131e-05 -7.64152e-05 4.14924e-05 5.27017e-05 -0.000832596 -0.00370684 -0.000556962 0.011 592.654 -1.98083 0.999981 -2.81739e-06 
34 1 0.0702596 0.0898165 0.0390873 0 0 0 -1.14084e-05 -2.80833e-06 8.87294e-05 4.34658e-06 2.39409e-06 -5.36169e-05 -0.00834739 0.00522207 -0.00153137 0.011 593.17 -1.85882 0.999983 -2.56637e-06 
217 1 0.0892415 0.0898425 0.0494499 0 0 0 4.00299e-06 -7.65545e-07 1.85717e-05 -3.21264e-06 -9.14025e-06 -3.86601e-05 -0.000444409 0.000280283 -0.00024319 0.011 594.661 -1.54803 0.999988 -1.75888e-06 
258 1 0.0129912 0.0100017 0.0550998 0 0 0 -2.56232e-05 1.00659e-05 2.0506e-06 2.06909e-06 -4.92468e-06 -5.37918e-06 0.000230919 -0.00317066 0.00254937 0.011 594.564 -1.57256 0.999988 -1.80702e-06 
164 1 0.0340179 0.0103398 0.0619131 0 0 0 4.21633e-06 5.55825e-06 -1.39184e-05 -4.99358e-05 -9.63791e-06 2.12507e-05 -0.00107408 0.0123703 -0.000251441 0.011 594.627 -1.54732 0.999988 -1.80703e-06 
15 1 0.0686465 0.0109534 0.0545432 0 0 0 -0.000131099 -3.8655e-05 3.97837e-05 -0.000110386 2.11015e-05 3.42482e-06 0.00110825 0.00189999 0.00863061 0.011 593.694 -1.79363 0.999985 -2.21315e-06 
64 1 0.0256326 0.0267076 0.051106 0 0 0 -1.45219e-05 1.1228e-05 3.9435e-05 2.01753e-06 -3.07447e-05 -4.36336e-05 0.0007376 -0.00190013 -0.0035689 0.011 594.59 -1.56767 0.999988 -1.80702e-06 
191 1 0.0895749 0.031886 0.0533666 0 0 0 4.3244e-06 -0.000119549 7.88097e-05 6.65297e-05 -0.000409397 -4.05814e-05 -0.000223986 0.0303799 0.0288925 0.011 593.427 -1.9113 0.999985 -2.21314e-06 
199 1 0.0102991 0.0380889 0.0609955 0 0 0 -1.07909e-05 2.49027e-05 1.41333e-05 4.97822e-05 2.34733e-05 -6.55314e-05 -0.000486243 -0.0014042 0.00287168 0.011 594.579 -1.56402 0.999988 -1.80702e-06 
123 1 0.0652345 0.0343341 0.0585758 0 0 0 -7.10724e-05 -4.7582e-05 5.44192e-05 -1.33689e-05 -0.000203516 -4.88487e-05 -0.00278264 0.00907208 -0.000947148 0.011 593.51 -1.86402 0.999985 -2.21314e-06 
43 1 0.0106011 0.0604897 0.0611542 0 0 0 -2.50914e-06 2.19856e-05 8.12819e-06 4.65511e-05 1.41776e-05 -5.37603e-05 -0.00584299 -0.00131891 0.000911892 0.011 595.079 -1.4039 0.999989 -1.64427e-06 
161 1 0.03945 0.0598855 0.0574869 0 0 0 -1.17496e-05 -4.70118e-06 -4.38088e-06 9.56187e-05 -1.73369e-05 -0.000109541 -0.00400475 -0.00283209 -0.00408246 0.011 594.922 -1.48038 0.999989 -1.64426e-06 
92 1 0.0894369 0.0558524 0.0648111 0 0 0 -7.71959e-06 0.000130864 0.000274045 -0.000193357 -0.000351389 0.000312411 0.0529979 0.0249439 -0.00750543 0.011 594.857 -1.45405 0.999988 -1.7589e-06 
54 1 0.0259862 0.0756811 0.0637101 0 0 0 3.20601e-06 1.67963e-05 -1.85717e-05 9.22163e-05 4.07e-05 4.08437e-05 0.0047151 0.00160735 0.000872222 0.011 595.163 -1.37074 0.999989 -1.64427e-06 
185 1 0.053457 0.0751315 0.0613741 0 0 0 -6.7304e-05 -1.32484e-06 0.0001189 6.99102e-05 1.13541e-05 -4.00791e-05 0.00337149 -0.0268059 0.0054961 0.011 594.848 -1.46575 0.999988 -1.75888e-06 
4 1 0.0399266 0.0897067 0.0543674 0 0 0 -8.12687e-06 -1.26203e-05 1.98096e-05 -0.000136496 -3.36753e-05 5.01892e-05 0.00013331 0.00485503 -0.00224834 0.011 594.928 -1.47541 0.999989 -1.64427e-06 
103 1 0.0879517 0.0164225 0.0675637 0 0 0 0.0146433 -0.00103494 0.000714456 -0.00047233 -3.74172e-05 0.000104516 -0.354719 -2.63618 4.17849 0.011 593.805 -1.73951 0.999985 -2.21309e-06 
52 1 0.0140768 0.020984 0.0728813 0 0 0 2.52572e-06 2.28352e-06 4.00154e-06 -2.14374e-06 2.27208e-05 -8.01896e-06 0.00128788 0.0046004 -0.00434377 0.011 594.784 -1.46963 0.999988 -1.80702e-06 
28 1 0.0400638 0.0320444 0.0674232 0 0 0 2.49641e-05 5.91921e-05 3.58127e-05 -3.39218e-05 -0.000124679 -7.46946e-05 -0.00263496 -0.00699341 0.00746875 0.011 594.739 -1.49012 0.999988 -1.80702e-06 
232 1 0.0333551 0.0175478 0.0819466 0 0 0 5.98779e-05 6.19735e-06 -1.47692e-05 -5.05791e-05 -1.19474e-05 2.95614e-05 0.00194104 -0.00342042 0.00790535 0.011 594.751 -1.48037 0.999988 -1.80703e-06 
153 1 0.0266107 0.0487988 0.0697448 0 0 0 -1.8283e-05 3.43428e-05 1.30941e-05 7.95542e-05 2.77136e-05 2.44013e-06 0.00225372 0.0036933 -0.0019609 0.011 594.853 -1.43876 0.999988 -1.80702e-06 
140 1 0.0580443 0.0362379 0.0784946 0 0 0 1.23653e-05 -8.91593e-06 9.28344e-05 -4.82581e-05 -0.000195293 -8.27117e-05 0.00583606 0.00183013 -0.0131228 0.011 594.013 -1.63858 0.999985 -2.21314e-06 
189 1 0.0810386 0.0375943 0.0723378 0 0 0 1.52044e-05 3.98906e-05 2.08685e-05 4.1812e-05 -0.000497253 -4.01414e-05 -0.018379 -0.00893967 -0.00279517 0.011 593.918 -1.68518 0.999985 -2.21315e-06 
200 1 0.0104473 0.0513289 0.0831929 0 0 0 4.89739e-06 9.0903e-06 3.64057e-05 -2.03466e-05 -9.06411e-06 -8.80636e-05 0.00546559 -0.00173934 0.000583981 0.011 595.149 -1.3675 0.999989 -1.64427e-06 
157 1 0.056038 0.055952 0.0707422 0 0 0 -1.88949e-05 2.56885e-05 9.00803e-05 1.54211e-05 -0.000160658 -0.000191086 -0.00522787 0.00515661 0.00950814 0.011 594.866 -1.45517 0.999988 -1.75887e-06 
14 1 0.0104601 0.0722666 0.0801953 0 0 0 -1.81423e-05 1.82459e-05 5.51621e-05 3.20389e-05 -4.8137e-05 -0.000171682 -0.00420516 -0.00590268 0.00219062 0.011 595.192 -1.3491 0.999989 -1.64426e-06 
69 1 0.0401964 0.0684187 0.0785536 0 0 0 -0.00017172 -0.000110843 -3.24419e-06 0.000509452 0.000299723 0.000118168 0.0200513 -0.0284172 -0.000171464 0.011 595.185 -1.35202 0.999989 -1.64427e-06 
85 1 0.0738106 0.0699006 0.0696559 0 0 0 -0.000169993 -1.88823e-05 0.000411205 -0.000757107 -0.000545834 0.000174628 -0.000356658 -0.0493068 0.0123938 0.011 594.921 -1.42296 0.999988 -1.75889e-06 
209 1 0.0105735 0.0898516 0.0690399 0 0 0 -7.8473e-06 6.95221e-07 1.14778e-05 2.75086e-05 1.10851e-05 -2.80637e-05 -0.000295465 -0.00164783 1.89328e-05 0.011 595.17 -1.36523 0.999989 -1.64427e-06 
127 1 0.0374778 0.089661 0.0753389 0 0 0 -3.13965e-05 -8.17821e-06 4.89073e-05 0.000162981 8.8002e-05 -6.995e-06 -0.00397486 -0.00891072 -0.00266104 0.011 595.166 -1.36301 0.999989 -1.64427e-06 
183 1 0.0653235 0.0896845 0.07122 0 0 0 -0.000141901 -3.42147e-06 0.000132763 -7.376e-05 -4.97332e-05 2.14586e-05 -0.0119766 0.00930481 -0.0133315 0.011 594.926 -1.41923 0.999988 -1.75888e-06 
194 1 0.0893172 0.0897646 0.0700225 0 0 0 -6.42414e-06 7.52883e-06 1.97372e-05 -7.59899e-07 -1.57301e-05 -3.19297e-05 -0.00165093 -0.000376475 -0.00103994 0.011 594.909 -1.43221 0.999988 -1.75888e-06 
187 1 0.0105536 0.0103441 0.0908405 0 0 0 1.04293e-05 3.47299e-07 1.51849e-06 -1.62602e-05 1.99777e-05 -1.87e-06 0.000303051 3.10057e-05 -0.000833782 0.011 594.819 -1.44606 0.999988 -1.80702e-06 
229 1 0.0868216 0.00985337 0.0875433 0 0 0 0.000429923 1.27852e-05 0.000227553 -6.87498e-05 -3.15999e-05 -2.67062e-05 0.0208341 -0.0861943 -0.0408657 0.011 593.922 -1.67638 0.999985 -2.21311e-06 
58 1 0.0107808 0.0316265 0.0910425 0 0 0 1.27755e-05 3.99617e-06 3.81947e-06 -1.95581e-05 1.5191e-05 2.30024e-05 -0.0012275 -0.00270979 0.00149393 0.011 594.844 -1.43485 0.999988 -1.80702e-06 
53 1 0.052824 0.0187673 0.0909091 0 0 0 0.000101849 -0.000105183 -3.79074e-06 -4.16557e-05 -2.49745e-05 2.83153e-05 -0.00401507 0.00172256 -0.0214182 0.011 593.983 -1.64365 0.999985 -2.21315e-06 
167 1 0.0729556 0.0255419 0.0880465 0 0 0 0.000158758 1.12119e-05 -3.35193e-05 -6.05637e-05 -6.27443e-05 8.80766e-05 0.0111463 0.00116083 0.0328535 0.011 593.881 -1.68582 0.999985 -2.21316e-06 
49 1 0.030763 0.0381405 0.0876061 0 0 0 2.06901e-05 -9.35446e-06 -8.65895e-06 -1.6243e-05 1.25339e-06 1.30669e-05 0.000470564 0.0041092 -0.00317466 0.011 594.83 -1.44217 0.999988 -1.80702e-06 
39 1 0.0897521 0.0377392 0.0918749 0 0 0 -1.69234e-05 9.66733e-05 2.03732e-05 3.75046e-06 -7.67653e-05 3.48464e-07 0.00646265 0.00304113 -0.00912172 0.011 594.014 -1.6321 0.999985 -2.21315e-06 
102 1 0.0284136 0.0591566 0.0943169 0 0 0 -0.00013347 -9.27733e-05 4.97661e-05 0.000285464 0.000132689 -0.000227425 -0.0373941 0.0255091 0.0129853 0.011 595.183 -1.35317 0.999989 -1.64426e-06 
47 1 0.0478039 0.050948 0.0901427 0 0 0 -3.33393e-05 2.13314e-05 8.56204e-05 0.000119674 -0.000143426 -0.000203219 6.43925e-05 -0.0130838 0.00823687 0.011 595.074 -1.40374 0.999989 -1.64426e-06 
255 1 0.0724688 0.0532996 0.0843222 0 0 0 1.16693e-05 7.88997e-05 -1.16503e-06 4.69275e-05 -0.000199108 -0.0001855 0.0117416 0.000838277 -0.000612877 0.011 594.84 -1.46194 0.999988 -1.75888e-06 
260 1 0.0897774 0.0584193 0.0958572 0 0 0 1.33905e-05 2.18258e-05 4.57697e-05 -1.74598e-05 -3.43122e-05 -0.000115106 0.000720641 0.00110459 0.00207292 0.011 594.867 -1.44739 0.999988 -1.75888e-06 
93 1 0.0702562 0.0726115 0.094122 0 0 0 -3.51273e-05 2.8146e-05 8.96354e-05 1.13489e-05 -9.49766e-05 -0.000100037 0.00563096 -0.0043142 0.00379002 0.011 594.926 -1.41852 0.999988 -1.75888e-06 
133 1 0.0892943 0.0761734 0.0853094 0 0 0 -1.02864e-05 2.54387e-05 5.14664e-05 -1.64401e-05 -5.62649e-05 -9.96432e-05 -0.000827323 0.00629743 -0.00479469 0.011 594.924 -1.42095 0.999988 -1.75888e-06 
256 1 0.0207009 0.0893781 0.0883466 0 0 0 -2.6744e-05 2.02769e-05 1.80609e-05 4.89232e-05 -6.23732e-05 -4.68514e-05 -0.000616006 0.00501068 2.1289e-05 0.011 595.196 -1.34667 0.999989 -1.64427e-06 
6 1 0.0531526 0.0837565 0.0878214 0 0 0 -8.41627e-05 2.09739e-05 0.000145487 0.000126342 4.06276e-05 -1.49052e-05 0.0100841 -0.00256434 0.00797415 0.011 594.957 -1.4046 0.999988 -1.75888e-06 
246 1 0.0105979 0.0104829 0.11218 0 0 0 6.96441e-06 7.03993e-06 -3.7807e-06 2.22257e-06 -3.94207e-06 2.48373e-05 -0.000406428 0.00015921 0.000361738 0.011 594.894 -1.42857 0.999988 -1.79254e-06 
149 1 0.0295193 0.0106072 0.101696 0 0 0 2.64986e-05 -1.25666e-05 -2.20994e-05 -3.05963e-06 2.56272e-05 5.21538e-05 -0.00234338 0.000116206 -0.00305835 0.011 594.82 -1.44634 0.999988 -1.80703e-06 
156 1 0.0493617 0.0107072 0.110755 0 0 0 5.88067e-06 -1.01627e-05 2.66853e-06 -5.05482e-06 -1.05418e-05 2.45716e-05 -0.000741345 -0.00283593 -0.00062507 0.011 594.875 -1.43811 0.999988 -1.79254e-06 
91 1 0.0702278 0.0100968 0.101851 0 0 0 7.3351e-05 -4.8789e-06 -7.04923e-05 -4.34638e-06 -4.08629e-05 2.19094e-05 -0.00441912 -0.0166822 -0.0111577 0.011 594.025 -1.62603 0.999985 -2.21317e-06 
241 1 0.0901 0.0104288 0.108616 0 0 0 -5.63558e-05 -5.29333e-05 8.93895e-05 1.43892e-05 -6.38947e-06 -1.44384e-05 -0.00483555 0.0128721 0.00444609 0.011 595.094 -1.41029 0.999989 -1.62211e-06 
139 1 0.0164452 0.0310479 0.111084 0 0 0 -9.91238e-07 1.10531e-05 2.9405e-06 -2.38713e-06 -2.25154e-06 1.90717e-05 0.00117414 0.00144372 0.00035347 0.011 594.896 -1.42772 0.999988 -1.79254e-06 
249 1 0.0399631 0.0294893 0.10476 0 0 0 1.60902e-05 -2.0178e-05 -1.12866e-05 8.90884e-05 4.23203e-05 5.25207e-06 0.00395649 -0.00966273 0.007871 0.011 594.785 -1.46146 0.999988 -1.80703e-06 
5 1 0.0298512 0.0496363 0.11393 0 0 0 -2.25707e-06 0.000131879 0.000105712 -7.31124e-05 -0.000586792 -0.000365331 0.0142505 -0.00436996 -0.0183158 0.011 594.941 -1.40609 0.999988 -1.79253e-06 
148 1 0.0510919 0.0484016 0.111521 0 0 0 -2.87531e-05 -1.49852e-05 6.1108e-05 -1.78651e-05 -7.30342e-05 -0.000193727 0.00631932 0.00860617 0.00133958 0.011 595.161 -1.3801 0.999989 -1.62211e-06 
122 1 0.0693579 0.0412492 0.102364 0 0 0 -4.19982e-05 -2.91196e-05 7.15281e-06 7.44999e-05 -7.77517e-05 7.40477e-05 -0.00558561 -0.00115396 -0.00378276 0.011 594.023 -1.62458 0.999985 -2.21315e-06 
254 1 0.088687 0.044667 0.111891 0 0 0 3.79152e-06 -1.7893e-05 3.71897e-05 3.63688e-05 2.29948e-05 -5.89858e-05 0.00238512 -0.00259011 0.000328684 0.011 595.102 -1.40509 0.999989 -1.62211e-06 
251 1 0.010511 0.0513849 0.105021 0 0 0 7.58833e-06 0.000166253 3.24517e-05 -6.50933e-05 -0.000618235 -6.96017e-05 -0.0212678 -0.00156849 0.0145441 0.011 595.183 -1.35133 0.999989 -1.64427e-06 
23 1 0.0687599 0.0608119 0.111979 0 0 0 -2.11669e-05 -7.24163e-06 2.00082e-05 2.71061e-05 -5.02685e-06 -1.28241e-05 0.000919984 0.00199875 0.00141003 0.011 594.907 -1.42094 0.999988 -1.79866e-06 
84 1 0.0135716 0.0732808 0.100604 0 0 0 -3.35016e-05 2.2582e-05 5.1018e-05 4.52692e-05 -7.29346e-05 -0.000167703 0.00311518 0.00553227 -0.0122626 0.011 595.099 -1.38918 0.999989 -1.64426e-06 
219 1 0.0316307 0.0712555 0.112523 0 0 0 -3.44904e-05 7.3473e-05 0.000109241 -7.70264e-05 -0.000373441 -0.000371189 -0.00966491 -0.00750892 0.018713 0.011 594.649 -1.47361 0.999987 -1.94577e-06 
59 1 0.050653 0.068315 0.102675 0 0 0 -3.60599e-05 3.37239e-05 0.000110725 1.8967e-05 -0.00018744 -0.000250622 -0.00334572 0.00984417 -0.0103618 0.011 594.933 -1.41576 0.999988 -1.75887e-06 
158 1 0.087635 0.0711538 0.112628 0 0 0 -1.22527e-05 -1.17644e-05 5.06776e-05 4.98972e-05 -1.34094e-05 -0.000116387 0.00111394 -0.00445333 -0.00318632 0.011 594.9 -1.42431 0.999988 -1.79866e-06 
176 1 0.0106113 0.0894532 0.114739 0 0 0 -1.93137e-05 1.74804e-05 5.79629e-05 1.19765e-05 -3.77359e-05 -0.000151647 -0.00292443 -0.0111804 0.00161832 0.011 594.586 -1.50447 0.999987 -1.94578e-06 
128 1 0.0375954 0.08928 0.102109 0 0 0 -9.04696e-05 8.90584e-06 5.40654e-05 9.24705e-05 -8.51406e-05 -5.2371e-06 -0.00546894 -0.00830437 -0.00805477 0.011 595.163 -1.36099 0.999989 -1.64427e-06 
37 1 0.0633722 0.0898714 0.105256 0 0 0 -3.98164e-05 6.30389e-06 0.000115443 0.000135514 -1.59116e-05 -7.06788e-05 -0.00747354 0.0110638 -0.00323119 0.011 594.913 -1.42412 0.999988 -1.75888e-06 
211 1 0.0861897 0.0895475 0.101445 0 0 0 2.8976e-05 2.49746e-06 3.55782e-05 -6.61188e-05 -2.46338e-05 -4.07459e-05 -0.000310751 -0.00421289 0.00286736 0.011 594.925 -1.4185 0.999988 -1.75888e-06 
250 1 0.0102784 0.0141818 0.133064 0 0 0 -4.32564e-07 1.82743e-06 3.94445e-06 -2.43739e-05 -9.48242e-05 4.9115e-05 0.00149466 -0.0007594 0.00014065 0.011 594.905 -1.42272 0.999988 -1.79254e-06 
87 1 0.029352 0.0106175 0.123274 0 0 0 8.3498e-07 8.69826e-06 -7.45393e-06 4.71676e-06 -6.06808e-05 6.01778e-05 -0.000180181 -0.000621744 4.23372e-05 0.011 594.901 -1.42458 0.999988 -1.79254e-06 
48 1 0.04837 0.0154429 0.131908 0 0 0 -1.51079e-05 -2.35377e-05 1.1107e-05 4.44033e-05 -2.35274e-07 5.01609e-06 0.00189456 -0.00139439 -0.00318002 0.011 594.944 -1.40598 0.999988 -1.79254e-06 
215 1 0.0672495 0.0102576 0.123152 0 0 0 -2.23071e-05 -5.86024e-06 -1.033e-05 3.16671e-05 4.1135e-06 -7.64562e-06 0.00270367 0.00365467 0.00172389 0.011 595.178 -1.371 0.999989 -1.62212e-06 
242 1 0.0894632 0.0110432 0.129598 0 0 0 3.64314e-05 -1.73585e-06 4.81037e-05 -4.22612e-06 -3.54122e-06 -1.77669e-05 -0.000231351 -7.8002e-05 0.000290189 0.011 595.279 -1.32569 0.999989 -1.62211e-06 
175 1 0.0589642 0.0291886 0.117544 0 0 0 -2.70935e-05 -5.94334e-06 -8.49091e-06 4.87033e-05 -2.34268e-05 3.23225e-05 -0.0015094 -0.00443104 -0.000202654 0.011 595.238 -1.34525 0.999989 -1.62212e-06 
72 1 0.0799088 0.0263672 0.116907 0 0 0 -2.51893e-05 -2.01554e-05 3.99014e-05 5.33443e-05 -1.92157e-06 -4.29887e-05 -0.00348942 -0.00193557 -0.00186408 0.011 595.261 -1.33851 0.999989 -1.62212e-06 
82 1 0.010815 0.0371688 0.130156 0 0 0 1.27038e-05 6.88645e-06 6.1273e-06 -3.48133e-05 -9.01967e-05 4.03213e-05 -0.000430135 -0.000257022 -0.000813754 0.011 594.879 -1.43506 0.999988 -1.79254e-06 
227 1 0.0401914 0.0345463 0.125453 0 0 0 -4.19267e-05 -1.11531e-05 -5.14185e-06 8.93107e-05 -5.8258e-05 2.88138e-05 -0.00438595 0.00745896 0.00339231 0.011 594.923 -1.41562 0.999988 -1.79254e-06 
67 1 0.0717981 0.0446655 0.125604 0 0 0 -1.3142e-05 -6.05914e-06 2.0586e-05 3.80184e-05 -2.15702e-05 -4.65337e-05 -0.00110537 -2.52494e-05 -0.00226165 0.011 595.258 -1.33535 0.999989 -1.62212e-06 
24 1 0.0895716 0.035032 0.13329 0 0 0 -1.51325e-05 -1.38078e-05 2.09737e-05 2.26519e-05 1.14335e-05 -2.75572e-05 0.00169621 0.00137152 0.000938832 0.011 595.287 -1.32043 0.999989 -1.62212e-06 
151 1 0.0511758 0.0661477 0.124509 0 0 0 -1.79833e-05 -0.000252619 0.000121516 0.000825825 3.5871e-05 -0.000280562 0.026469 -0.00891787 0.00564825 0.011 594.898 -1.42516 0.999988 -1.79866e-06 
205 1 0.0897512 0.0571853 0.128851 0 0 0 -2.34662e-05 -4.86686e-05 4.48042e-05 6.17126e-05 7.61803e-05 -0.000105758 0.00107863 0.0030037 0.00602104 0.011 594.936 -1.40871 0.999988 -1.79866e-06 
66 1 0.0105907 0.0685176 0.120378 0 0 0 -7.63537e-06 1.29365e-05 3.78865e-05 -2.69673e-05 -0.000121145 -0.000163747 0.00170896 -0.00153187 0.000992307 0.011 594.614 -1.49176 0.999987 -1.94577e-06 
154 1 0.0700189 0.0798269 0.122025 0 0 0 2.61415e-05 -3.63129e-06 6.96131e-05 0.000121154 4.47288e-05 -9.75706e-05 0.00506823 0.00299149 -0.00211837 0.011 594.902 -1.4231 0.999988 -1.79866e-06 
113 1 0.0279079 0.0892591 0.127595 0 0 0 -9.01671e-05 1.99854e-05 1.69594e-05 0.00019319 -0.00012803 -0.000243369 -0.00303438 0.0160769 -0.00687963 0.011 594.558 -1.51828 0.999987 -1.94577e-06 
57 1 0.0486656 0.0879573 0.12114 0 0 0 -0.000144957 0.000186108 0.000130908 0.000349807 -0.000389871 -0.000159159 -0.0496963 -0.028881 0.0381986 0.011 594.585 -1.50487 0.999987 -1.94577e-06 
226 1 0.0894242 0.0898459 0.122583 0 0 0 5.35341e-06 -4.49085e-06 3.3408e-05 5.92654e-05 -2.7835e-05 -4.50497e-05 -0.00147734 0.0025537 0.00085693 0.011 594.9 -1.42418 0.999988 -1.79866e-06 
115 1 0.0349097 0.0096773 0.147787 0 0 0 -8.61008e-06 -4.53204e-06 2.44212e-05 5.39775e-05 -2.33499e-05 -3.5114e-05 0.0021043 0.00240283 -5.3978e-05 0.011 594.914 -1.41686 0.999988 -1.79254e-06 
137 1 0.0807297 0.0101883 0.148471 0 0 0 2.04663e-05 -8.65963e-06 2.38318e-05 -9.37806e-06 8.72601e-06 -1.69622e-05 0.00195396 -0.00181626 -0.00258208 0.011 595.27 -1.3281 0.999989 -1.62212e-06 
134 1 0.0263023 0.0262743 0.139305 0 0 0 -3.70215e-06 7.76703e-06 3.47864e-05 -3.74044e-07 -0.00013216 -5.71277e-05 -0.00135831 -0.00225325 -0.000330691 0.011 594.906 -1.42215 0.999988 -1.79254e-06 
129 1 0.0507487 0.0308357 0.146556 0 0 0 2.8406e-05 -6.88056e-05 5.26562e-06 -2.07285e-05 0.000105153 -1.94429e-06 -0.00302896 -0.00182323 -0.00631654 0.011 595.226 -1.34685 0.999989 -1.62212e-06 
75 1 0.0700298 0.0264403 0.137485 0 0 0 1.29899e-05 -5.81367e-05 1.67101e-05 4.5311e-06 5.63806e-05 -2.3261e-05 0.00469033 0.00261251 0.00299976 0.011 595.287 -1.32018 0.999989 -1.62212e-06 
198 1 0.0289127 0.047585 0.137646 0 0 0 2.46007e-05 2.65182e-05 1.55218e-05 -3.07316e-05 -0.000148436 -3.07059e-05 0.00090017 -0.000644216 -0.00363495 0.011 594.854 -1.44492 0.999988 -1.79254e-06 
244 1 0.0620008 0.0485666 0.144291 0 0 0 -4.31709e-05 -8.8661e-05 2.49496e-05 0.000186555 9.34093e-05 -4.1034e-05 0.0049504 -0.00138028 0.0155535 0.011 595.232 -1.34595 0.999989 -1.62212e-06 
135 1 0.0847493 0.0491531 0.148406 0 0 0 4.24186e-05 -2.70804e-05 4.68972e-05 -0.000106611 3.73964e-05 -8.43504e-05 0.00038287 0.00277231 -0.0052459 0.011 595.244 -1.34021 0.999989 -1.62212e-06 
71 1 0.00991286 0.056703 0.137455 0 0 0 9.86311e-06 1.47463e-05 6.01193e-06 2.16529e-05 -3.78492e-05 -7.1788e-05 -0.000372303 0.000650361 0.0023969 0.011 594.615 -1.48996 0.999987 -1.94578e-06 
10 1 0.0453628 0.062608 0.145416 0 0 0 0.000107691 -1.61224e-06 -2.85943e-05 1.88446e-05 -0.00013969 -8.03068e-05 -0.0336817 0.0154664 -0.0445929 0.011 594.616 -1.48956 0.999987 -1.94578e-06 
17 1 0.0720909 0.0654353 0.136839 0 0 0 -3.90946e-05 -3.33464e-05 5.29628e-05 0.000118358 2.8739e-05 -0.000119107 -0.00252612 -0.00170539 -0.00988168 0.011 594.924 -1.41358 0.999988 -1.79866e-06 
29 1 0.0105463 0.0805232 0.137848 0 0 0 -4.47269e-05 -6.61601e-06 5.42041e-05 0.000190691 -6.09107e-05 -0.000198057 0.00108151 -0.00495288 -0.000809369 0.011 594.562 -1.51496 0.999987 -1.94577e-06 
132 1 0.0280518 0.068532 0.133568 0 0 0 -1.0854e-05 7.12556e-05 5.16147e-05 0.000135265 -0.000306141 -0.000301859 0.00103905 0.00405571 0.00993224 0.011 594.582 -1.50559 0.999987 -1.94577e-06 
170 1 0.0351468 0.0822768 0.148399 0 0 0 0.000142795 0.000244408 -0.000202384 -0.00011864 -0.000268884 -0.000132436 -0.065884 -0.0705506 -0.108376 0.011 594.562 -1.51629 0.999987 -1.94578e-06 
173 1 0.0556911 0.0812716 0.14068 0 0 0 6.59912e-05 0.000151312 5.69632e-05 -7.64994e-05 -0.000445589 -9.42091e-05 0.0823901 0.0318056 0.0596766 0.011 594.867 -1.44107 0.999988 -1.79866e-06 
50 1 0.0799641 0.0848751 0.140416 0 0 0 3.4658e-05 -4.40704e-05 4.83842e-05 2.39772e-05 4.94888e-05 -7.56077e-05 0.00150818 0.00031647 0.00413277 0.011 594.896 -1.42609 0.999988 -1.79866e-06 
252 1 0.0114716 0.0115258 0.154228 0 0 0 -0.000282086 1.94016e-05 2.93267e-05 -0.000689951 -4.71389e-05 0.000139339 0.00365824 -0.039865 0.12373 0.011 594.931 -1.40935 0.999988 -1.79254e-06 
101 1 0.0483181 0.0164208 0.161939 0 0 0 4.43273e-06 -9.42792e-06 1.48613e-05 1.64656e-05 8.88474e-06 -2.3611e-05 -0.00120819 0.000796792 0.000557493 0.011 595 -1.38076 0.999988 -1.79254e-06 
171 1 0.0681592 0.0101684 0.164894 0 0 0 6.26964e-06 -3.6314e-06 9.78855e-06 4.20876e-07 1.88463e-05 -1.20473e-05 0.000391608 -0.000258794 -0.000566489 0.011 595.208 -1.35382 0.999989 -1.62212e-06 
248 1 0.0894612 0.0287929 0.153385 0 0 0 2.00934e-05 -2.31515e-05 2.54173e-05 -1.04096e-05 2.52872e-05 -2.97701e-05 -0.00093217 0.00190154 0.00253126 0.011 595.265 -1.33 0.999989 -1.62212e-06 
136 1 0.0107576 0.0375705 0.151743 0 0 0 1.17421e-05 7.09621e-05 -4.79019e-06 -1.75167e-05 -0.000510252 -1.42628e-06 -0.00519595 0.00081565 0.00665571 0.011 594.926 -1.41278 0.999988 -1.79254e-06 
193 1 0.0326591 0.0374634 0.156008 0 0 0 2.80362e-05 3.03648e-05 8.37156e-06 -9.43785e-05 -0.000175515 -3.00861e-05 -0.00197355 0.00267544 -0.00108134 0.011 594.969 -1.39527 0.999988 -1.79254e-06 