ITEM: TIMESTEP
280000
ITEM: NUMBER OF ATOMS
1005
ITEM: BOX BOUNDS mm mm mm
0 0.1
0 0.1
0 1.1
ITEM: ATOMS id type x y z ix iy iz vx vy vz fx fy fz omegax omegay omegaz radius f_Temp[0] f_heatFlux[0] f_speciesC[0] f_speciesCFlux[0] 
152 1 0.025447 0.0104911 0.0102219 0 0 0 -2.59279e-06 -1.86467e-06 -3.8399e-06 -4.73042e-07 -2.05848e-07 1.03919e-06 7.71636e-05 0.000256611 -0.000141277 0.011 591.857 -2.27698 0.99972 -3.01731e-06 
97 1 0.010096 0.0228961 0.0166307 0 0 0 -7.10753e-08 -8.98986e-07 4.30694e-07 -2.93134e-07 -4.13634e-08 1.06352e-06 0.000224495 -1.7036e-05 -9.98573e-05 0.011 591.894 -2.25007 0.99972 -3.01731e-06 
231 1 0.0360323 0.0295064 0.0103018 0 0 0 -3.40035e-07 -4.35609e-06 3.01894e-06 -4.53883e-06 3.29618e-06 1.01689e-06 0.000503857 -0.000155469 -0.000128085 0.011 591.867 -2.26995 0.99972 -3.01731e-06 
89 1 0.0620406 0.0171549 0.0104269 0 0 0 -1.12372e-05 -8.38415e-07 7.21459e-06 -5.31296e-06 8.10783e-06 -6.41022e-07 -6.47119e-05 -0.000652689 -0.00100765 0.011 590.721 -2.57121 0.999673 -3.52985e-06 
216 1 0.0812364 0.0269586 0.00999829 0 0 0 -8.21983e-06 -9.5234e-06 2.12405e-05 -9.99396e-06 5.73015e-06 6.40086e-07 0.00156859 -0.00130514 0.000197657 0.011 590.663 -2.5962 0.999673 -3.52984e-06 
155 1 0.0150044 0.0423283 0.0103381 0 0 0 -1.53743e-06 6.34693e-07 1.50665e-06 -1.01443e-05 2.21273e-06 1.90939e-06 -5.43233e-05 -0.00013586 0.000310802 0.011 591.9 -2.25322 0.99972 -3.01731e-06 
79 1 0.0644505 0.0460877 0.0105437 0 0 0 -1.51386e-05 -6.7446e-06 -7.38537e-06 -1.24648e-05 1.23119e-05 3.76991e-06 0.000308604 -0.000297885 0.00276371 0.011 590.924 -2.46527 0.999673 -3.52986e-06 
180 1 0.0339229 0.0582285 0.0104706 0 0 0 -3.4943e-06 6.92193e-07 -1.79573e-07 -6.46184e-06 -1.84156e-06 2.15856e-06 -5.59602e-05 -0.000322061 -0.000381883 0.011 592.336 -2.13588 0.999738 -2.82255e-06 
33 1 0.0814139 0.0599206 0.0102637 0 0 0 -3.66187e-05 -3.91432e-05 2.10784e-05 -1.68734e-06 8.84973e-06 -4.55262e-06 0.00301677 -0.00394908 -0.00565032 0.011 592.857 -2.01075 0.999761 -2.57394e-06 
2 1 0.0105505 0.0718176 0.00973648 0 0 0 -9.74259e-07 7.74414e-07 -8.56933e-08 -3.82088e-06 1.82447e-06 1.05254e-06 -8.84389e-05 -7.32717e-05 -1.34105e-05 0.011 592.34 -2.13293 0.999738 -2.82255e-06 
30 1 0.0423262 0.0807624 0.0100003 0 0 0 -1.14644e-06 6.15709e-07 -3.18589e-07 -1.02825e-05 -1.08786e-06 1.56861e-06 -7.04978e-05 -0.000100234 0.00011133 0.011 592.373 -2.11811 0.999738 -2.82255e-06 
253 1 0.0601188 0.0675844 0.0106248 0 0 0 -8.43995e-06 -5.28488e-06 2.38268e-06 -7.75606e-06 1.19028e-05 -3.98998e-06 0.000371255 -0.000398138 -0.00139158 0.011 592.871 -2.00393 0.999761 -2.57395e-06 
25 1 0.0890676 0.0801554 0.0099691 0 0 0 4.44869e-06 -2.2628e-05 1.38886e-05 -3.21605e-07 4.40628e-06 -2.85402e-06 0.000106302 0.00110858 0.00247874 0.011 592.936 -1.96825 0.999761 -2.57395e-06 
233 1 0.0222916 0.0895166 0.0118686 0 0 0 -6.54852e-07 2.00714e-07 -5.30822e-07 -4.52045e-06 -9.74274e-08 -1.57324e-06 4.82561e-05 7.41018e-05 -6.06556e-05 0.011 592.327 -2.14232 0.999738 -2.82255e-06 
192 1 0.0689573 0.0890002 0.0109519 0 0 0 7.23617e-08 -1.39428e-05 4.03223e-06 -1.26651e-05 3.1163e-06 -5.8541e-06 0.00114784 -0.000497073 -0.00310087 0.011 592.925 -1.97619 0.999761 -2.57395e-06 
166 1 0.0440589 0.0107331 0.0202807 0 0 0 -1.55736e-05 -3.71364e-06 -4.31349e-06 -1.1191e-06 3.80962e-07 1.55647e-06 0.000538413 -0.00138825 0.000818418 0.011 591.729 -2.33723 0.99972 -3.01731e-06 
203 1 0.0627284 0.0103235 0.0310026 0 0 0 -2.53764e-05 3.07038e-06 7.67367e-06 -4.86756e-07 5.03067e-06 3.64266e-08 0.000926306 0.000204545 0.00164163 0.011 590.753 -2.54733 0.999673 -3.52985e-06 
234 1 0.0888447 0.0102816 0.0207333 0 0 0 -1.77074e-05 -1.15511e-05 1.4468e-05 -1.28968e-05 4.44605e-06 1.90329e-06 0.00169101 -0.00353876 0.00193927 0.011 590.656 -2.60261 0.999673 -3.52985e-06 
22 1 0.0674544 0.0308919 0.025985 0 0 0 -4.28317e-06 5.85571e-06 4.85679e-06 -1.10387e-05 1.01279e-05 4.4836e-06 -0.0025888 -4.0361e-05 -0.00115083 0.011 590.769 -2.53653 0.999673 -3.52985e-06 
104 1 0.0246176 0.034909 0.0292673 0 0 0 -3.64387e-06 -3.48185e-06 2.49469e-06 -1.38333e-05 4.16574e-06 4.46757e-06 -0.000605865 -0.000497964 0.000235262 0.011 591.917 -2.23682 0.99972 -3.01731e-06 
35 1 0.0463015 0.0343864 0.0280736 0 0 0 -1.65441e-06 6.9506e-06 6.144e-06 -1.28675e-05 4.6011e-06 7.19231e-06 -0.000946115 0.00021328 0.00146108 0.011 591.924 -2.23715 0.99972 -3.01731e-06 
147 1 0.0896088 0.0357637 0.0270787 0 0 0 5.50085e-06 -4.48727e-05 5.94102e-05 -6.9822e-06 9.64154e-06 -5.84291e-06 0.00315168 0.00513112 0.00267069 0.011 590.861 -2.49434 0.999673 -3.52982e-06 
8 1 0.0158776 0.0580096 0.0245511 0 0 0 -3.59506e-06 2.47675e-06 1.03459e-06 -2.16922e-05 3.00419e-06 4.92354e-06 -0.000168582 5.2932e-05 -0.000111641 0.011 592.279 -2.15996 0.999738 -2.82255e-06 
63 1 0.0362744 0.0531948 0.031192 0 0 0 -8.44236e-06 1.6505e-06 1.82572e-07 -1.57056e-05 4.13521e-07 6.02902e-06 -4.90172e-05 -1.42432e-05 -0.000230205 0.011 592.471 -2.07535 0.999738 -2.82255e-06 
99 1 0.0576212 0.0556961 0.0284734 0 0 0 -1.40184e-05 -1.77522e-05 1.57237e-06 -1.74468e-05 1.41866e-05 2.28828e-07 0.000864831 0.000870969 -0.00151037 0.011 592.884 -1.99854 0.999761 -2.57395e-06 
224 1 0.0871995 0.0564701 0.0302948 0 0 0 -1.51993e-05 -5.26843e-05 5.10132e-05 -6.38548e-06 1.294e-05 -1.19784e-05 -0.00485605 0.00847056 0.00426519 0.011 592.813 -2.0241 0.999761 -2.57393e-06 
126 1 0.0103593 0.0787913 0.0293285 0 0 0 -8.84499e-07 1.03994e-06 -1.19165e-08 -4.99162e-06 2.74886e-06 9.77388e-07 0.000113163 7.071e-05 7.6118e-05 0.011 592.574 -2.0231 0.999738 -2.82255e-06 
163 1 0.0308221 0.0731113 0.0256597 0 0 0 -2.61746e-06 1.09126e-06 -9.06964e-07 -1.2273e-05 -2.54998e-06 6.15523e-07 -2.1251e-06 -5.91774e-05 -0.000137405 0.011 592.379 -2.10558 0.999738 -2.82255e-06 
12 1 0.0744991 0.0734398 0.0257574 0 0 0 -1.96371e-05 -3.17209e-05 2.14893e-05 -1.05764e-06 1.03284e-05 -9.44442e-06 -0.00141648 -0.00288742 -0.00438996 0.011 592.933 -1.9707 0.999761 -2.57394e-06 
257 1 0.053155 0.0892635 0.0262312 0 0 0 -1.23312e-06 -9.03376e-07 -2.95953e-07 -6.78873e-06 3.58606e-06 -1.41838e-06 0.0001888 6.60847e-05 -0.000223333 0.011 592.894 -1.98913 0.999761 -2.57395e-06 
243 1 0.0892875 0.08919 0.0286321 0 0 0 7.45025e-07 -1.49808e-05 7.62894e-06 -6.02439e-07 3.52759e-06 -2.66488e-06 -0.00120278 0.000339166 0.00129209 0.011 593.099 -1.89092 0.999761 -2.57395e-06 
223 1 0.0366954 0.0106918 0.0405206 0 0 0 -4.22468e-05 -1.18885e-05 -2.57292e-05 6.90603e-06 4.21551e-06 1.29458e-05 -0.00198364 -0.000296204 0.00395439 0.011 591.976 -2.21035 0.99972 -3.01732e-06 
70 1 0.0104572 0.0206616 0.037291 0 0 0 -3.21469e-06 -2.19109e-06 1.60729e-06 -5.1003e-06 2.1665e-06 2.28721e-06 -0.000155778 -0.000225794 -0.000110209 0.011 592.283 -2.06867 0.99972 -3.01731e-06 
45 1 0.0533425 0.0234858 0.045039 0 0 0 -6.46316e-05 -2.09074e-05 2.43712e-05 2.48746e-06 8.03356e-06 -3.61553e-07 0.00384745 -0.00691703 -0.00361449 0.011 591.267 -2.31175 0.999673 -3.52984e-06 
108 1 0.0809204 0.0194339 0.0384456 0 0 0 -4.02832e-05 -8.5539e-05 3.20286e-05 -4.59879e-06 2.42972e-05 4.69263e-06 0.00798018 -0.00287212 -0.00843369 0.011 590.917 -2.47709 0.999673 -3.52983e-06 
96 1 0.0118127 0.0470097 0.0420246 0 0 0 -4.56187e-06 1.01762e-06 9.05018e-07 -1.22067e-05 5.1286e-06 1.09527e-05 0.000463357 0.000197095 -0.000494309 0.011 592.166 -2.11964 0.99972 -3.01731e-06 
9 1 0.0408212 0.0409413 0.0478641 0 0 0 -1.97387e-05 5.37657e-06 -7.36296e-07 -1.00023e-05 1.6212e-06 8.75327e-06 1.34295e-05 -0.00104761 -0.000611232 0.011 594.331 -1.6794 0.999832 -1.81161e-06 
80 1 0.0755021 0.0427456 0.0417301 0 0 0 -3.80947e-05 -8.99834e-05 6.89915e-05 1.22045e-06 2.29371e-05 -5.33366e-06 0.00859955 -0.0119175 -0.0100025 0.011 591.394 -2.2614 0.999673 -3.52981e-06 
146 1 0.0234892 0.0652287 0.044193 0 0 0 -1.35396e-06 1.97838e-06 1.60374e-06 -1.21056e-05 4.29106e-06 2.37936e-06 -0.000256129 0.000198946 0.000242522 0.011 592.701 -1.95939 0.999738 -2.82255e-06 
182 1 0.0584022 0.0528213 0.0495946 0 0 0 -1.04152e-05 -2.61732e-05 1.18201e-05 -8.67279e-06 7.87882e-06 -7.39433e-08 -0.000541035 0.000103555 -0.00303733 0.011 594.482 -1.63423 0.999836 -1.76182e-06 
240 1 0.0106828 0.0818064 0.0498461 0 0 0 4.76193e-07 -9.54276e-08 4.74358e-07 -3.84201e-06 2.85675e-06 3.34613e-07 1.79296e-05 1.46269e-05 -0.000142905 0.011 594.722 -1.56672 0.999847 -1.65036e-06 
204 1 0.0466078 0.0738907 0.0406832 0 0 0 -4.05935e-06 -1.66255e-05 3.55208e-07 -1.20961e-05 -6.91406e-06 5.34001e-06 -0.000787876 -0.000128767 -0.00280366 0.011 592.485 -2.05905 0.999738 -2.82255e-06 
78 1 0.0692247 0.0708962 0.048367 0 0 0 3.99062e-06 -2.42856e-05 1.82976e-06 -1.00756e-05 7.27424e-06 -1.04522e-05 0.000459336 0.000228509 0.00167914 0.011 594.751 -1.51087 0.999836 -1.76182e-06 
212 1 0.0899731 0.0687315 0.0468711 0 0 0 8.24003e-06 -2.11155e-06 2.233e-06 -5.79972e-06 3.43183e-06 -4.96007e-06 -0.000312075 -0.000392688 0.000588684 0.011 594.708 -1.53619 0.999836 -1.76182e-06 
32 1 0.0268327 0.0897763 0.0377094 0 0 0 3.75766e-07 5.1619e-08 -6.26072e-07 -2.96103e-06 6.52087e-07 1.26989e-07 0.000126382 0.000297182 -2.60835e-05 0.011 592.656 -1.98059 0.999738 -2.82255e-06 
34 1 0.0702594 0.0898158 0.0390876 0 0 0 -3.03749e-06 -8.90856e-06 3.13768e-06 -2.699e-06 2.66336e-06 -9.66567e-06 -0.000180264 -0.000431581 -0.000469536 0.011 593.168 -1.85917 0.999761 -2.57395e-06 
217 1 0.0892415 0.0898423 0.0494501 0 0 0 4.79395e-07 -2.0104e-06 2.53152e-06 -1.52223e-06 5.82071e-07 -1.16791e-06 -7.70772e-05 6.84549e-05 0.000244074 0.011 594.661 -1.54824 0.999836 -1.76182e-06 
258 1 0.0129914 0.0100017 0.0551001 0 0 0 2.13396e-06 -1.06763e-06 2.34381e-06 -6.3167e-06 -1.48957e-06 3.63149e-07 0.000186901 0.000943911 -0.000219927 0.011 594.557 -1.57441 0.999832 -1.81161e-06 
164 1 0.0340192 0.0103403 0.0619122 0 0 0 2.1843e-05 7.14244e-06 -1.60117e-05 -2.98728e-05 -6.04566e-06 1.36179e-05 -0.00119125 0.00629166 -0.00198501 0.011 594.62 -1.54924 0.999832 -1.81161e-06 
15 1 0.0686435 0.0109509 0.0545438 0 0 0 -5.39877e-05 -3.61626e-05 7.07619e-06 -1.44538e-05 1.13505e-05 4.961e-06 -0.00153419 0.00543146 0.00293568 0.011 593.693 -1.79409 0.999794 -2.21861e-06 
64 1 0.0256321 0.0267079 0.051106 0 0 0 -7.6488e-06 3.55977e-06 -2.65651e-06 -9.43996e-06 -8.96899e-07 8.76e-06 -0.000171512 0.000542999 0.00102685 0.011 594.582 -1.56957 0.999832 -1.81161e-06 
191 1 0.0895756 0.0318759 0.053371 0 0 0 9.05368e-06 -0.000119686 4.28213e-05 -8.99436e-06 3.48702e-05 -1.96828e-07 -0.00130184 0.0208969 0.0221723 0.011 593.427 -1.9114 0.999794 -2.2186e-06 
199 1 0.0102991 0.0380888 0.0609957 0 0 0 -9.45811e-07 -2.47753e-06 1.06782e-06 -3.22753e-06 -9.75003e-07 7.7027e-06 -0.000165241 0.000320145 0.00025284 0.011 594.572 -1.56589 0.999832 -1.81161e-06 
123 1 0.0652324 0.0343294 0.0585781 0 0 0 -2.79589e-05 -6.19654e-05 2.44014e-05 -6.48389e-06 1.4528e-05 5.59908e-06 -0.00206371 0.0113567 -0.00069324 0.011 593.508 -1.86472 0.999794 -2.21861e-06 
43 1 0.010601 0.0604897 0.0611542 0 0 0 -1.34126e-06 -1.08867e-07 3.13255e-07 -5.95597e-06 -1.48109e-07 5.90351e-07 0.000608323 -0.000100022 -0.000136329 0.011 595.068 -1.40678 0.999847 -1.65036e-06 
161 1 0.0394497 0.0598849 0.0574874 0 0 0 -4.70777e-06 -7.71728e-06 6.70663e-06 -1.10758e-05 7.3521e-06 1.22071e-06 0.00124357 -0.000752707 -0.000817227 0.011 594.913 -1.48228 0.999847 -1.65036e-06 
92 1 0.0894387 0.0558503 0.0648087 0 0 0 3.18956e-05 -1.01577e-05 -4.71309e-05 -2.40205e-05 -3.18939e-05 9.96315e-06 0.012523 -0.00347939 0.0040841 0.011 594.857 -1.45424 0.999836 -1.76183e-06 
54 1 0.0259865 0.075681 0.0637102 0 0 0 3.49025e-06 -2.44027e-06 -1.07259e-06 -1.0651e-05 2.45782e-06 5.7461e-06 -0.000449711 0.000478994 -0.000303618 0.011 595.151 -1.37374 0.999847 -1.65036e-06 
185 1 0.0534573 0.0751305 0.0613742 0 0 0 9.92938e-07 -1.50778e-05 -5.30551e-07 -2.75518e-06 2.95527e-06 2.12027e-06 -0.00121372 -1.47242e-05 -0.00215658 0.011 594.846 -1.46642 0.999836 -1.76182e-06 
4 1 0.039927 0.0897065 0.0543672 0 0 0 7.19198e-06 -1.95238e-06 -4.45949e-06 -4.16606e-06 -6.60582e-08 3.68779e-06 0.000356103 0.000272056 0.000500424 0.011 594.919 -1.47763 0.999847 -1.65036e-06 
103 1 0.0886487 0.0163928 0.0676105 0 0 0 0.00978361 0.000287843 0.00109304 -0.00199564 0.000138106 -0.000107905 -0.229723 -1.66692 2.70195 0.011 593.806 -1.7392 0.999794 -2.21842e-06 
52 1 0.0140786 0.0209839 0.0728818 0 0 0 2.66542e-05 -2.82598e-06 1.62868e-06 -3.16853e-05 -4.04483e-06 1.18535e-06 4.34791e-05 0.00152884 9.84568e-05 0.011 594.777 -1.47158 0.999832 -1.81161e-06 
28 1 0.0400649 0.0320458 0.067423 0 0 0 1.83465e-05 2.40107e-05 -6.08828e-06 -3.32506e-05 -2.40548e-05 4.219e-06 -0.0012199 0.00290857 0.00373105 0.011 594.732 -1.49205 0.999832 -1.81161e-06 
232 1 0.0333599 0.0175483 0.0819461 0 0 0 7.74671e-05 7.82152e-06 -1.26625e-05 -6.54505e-05 -7.9327e-07 1.20157e-05 0.00135602 -0.000614286 0.00267868 0.011 594.744 -1.48208 0.999832 -1.81161e-06 
153 1 0.0266104 0.0487987 0.0697448 0 0 0 -6.45734e-06 -2.51247e-06 -2.1494e-06 -2.25671e-06 7.61676e-06 1.28434e-05 -0.000458925 7.34741e-05 -0.000200068 0.011 594.845 -1.4411 0.999832 -1.81161e-06 
140 1 0.0580447 0.0362344 0.078498 0 0 0 1.06373e-05 -5.53269e-05 4.34985e-05 -3.4001e-05 1.61534e-05 -6.88173e-06 0.00427362 -0.00768376 -0.0109724 0.011 594.012 -1.63908 0.999794 -2.2186e-06 
189 1 0.0810405 0.0375956 0.0723364 0 0 0 2.62821e-05 4.76251e-05 -3.50177e-05 -1.31535e-05 -4.50343e-05 3.79678e-05 -0.020847 -0.00875251 -0.00649102 0.011 593.919 -1.68501 0.999794 -2.21862e-06 
200 1 0.0104474 0.0513291 0.0831927 0 0 0 2.27181e-06 1.34972e-06 -2.71222e-06 -5.69361e-06 -1.4599e-06 9.88217e-06 -0.000765335 0.000304377 0.000907074 0.011 595.138 -1.37034 0.999847 -1.65036e-06 
157 1 0.0560398 0.0559523 0.0707434 0 0 0 2.95496e-05 5.80081e-06 1.74242e-05 -4.81869e-05 -2.00976e-05 -1.62485e-06 -0.00271422 0.00230977 0.00702362 0.011 594.864 -1.45588 0.999836 -1.76182e-06 
14 1 0.0104601 0.0722665 0.0801951 0 0 0 -6.38296e-07 -1.5592e-06 -3.60069e-06 -3.24654e-06 3.90251e-06 1.40282e-05 0.000471914 0.000400103 -0.000418942 0.011 595.181 -1.35202 0.999847 -1.65036e-06 
69 1 0.0401963 0.0684181 0.0785538 0 0 0 -7.14877e-06 -1.3862e-05 -3.57646e-06 -1.19969e-05 8.82304e-06 1.20407e-05 0.000169602 -0.00205831 -0.00164783 0.011 595.174 -1.35491 0.999847 -1.65036e-06 
85 1 0.0738095 0.069897 0.069657 0 0 0 -2.22108e-08 -3.5002e-05 5.3692e-06 -2.45108e-05 -2.05123e-05 -2.79909e-05 -0.000146736 -0.00110416 -0.00304038 0.011 594.921 -1.42311 0.999836 -1.76182e-06 
209 1 0.0105736 0.0898516 0.0690399 0 0 0 1.12418e-06 1.24549e-07 2.34695e-08 -2.81905e-06 -5.96116e-08 4.51269e-07 1.32723e-05 -5.337e-05 9.05617e-05 0.011 595.159 -1.36833 0.999847 -1.65036e-06 
127 1 0.0374783 0.0896608 0.0753387 0 0 0 4.77816e-06 -3.49813e-06 -3.62576e-06 -8.22461e-06 1.60361e-06 2.79297e-06 9.84735e-05 -0.000404545 0.000241817 0.011 595.155 -1.36572 0.999847 -1.65036e-06 
183 1 0.0653244 0.0896836 0.0712198 0 0 0 1.06278e-05 -1.21679e-05 -3.59176e-06 -1.70003e-06 -3.03747e-06 6.49063e-06 0.000193678 -0.00113585 0.000957547 0.011 594.926 -1.41946 0.999836 -1.76182e-06 
194 1 0.089317 0.0897646 0.0700227 0 0 0 -2.34145e-06 3.67709e-07 1.57529e-06 1.36197e-07 -4.43324e-07 -2.02212e-06 -0.000156251 -0.000241277 -0.000241855 0.011 594.908 -1.43234 0.999836 -1.76182e-06 
187 1 0.0105545 0.0103441 0.0908407 0 0 0 1.39219e-05 7.48718e-07 -1.88843e-07 -1.62311e-05 -2.04609e-06 5.10235e-07 -0.000200913 -0.000389645 -0.000696583 0.011 594.813 -1.44717 0.999832 -1.81161e-06 
229 1 0.0868508 0.00985537 0.0875524 0 0 0 0.000455361 3.11257e-05 0.000146843 -0.000242172 -1.45147e-05 -5.60943e-05 0.0154233 -0.0994103 -0.0436878 0.011 593.924 -1.67574 0.999794 -2.21858e-06 
58 1 0.0107821 0.0316267 0.091043 0 0 0 2.12754e-05 -4.81642e-07 4.70819e-06 -2.74449e-05 -5.19611e-06 -8.88702e-06 0.000154501 -0.00146785 -7.85355e-05 0.011 594.838 -1.43597 0.999832 -1.81161e-06 
53 1 0.0528331 0.0187568 0.0909095 0 0 0 0.000146615 -0.000165697 6.66055e-08 -0.000100262 0.000101536 7.10255e-06 -0.00875447 -0.00120032 -0.0248684 0.011 593.984 -1.64358 0.999794 -2.21861e-06 
167 1 0.0729687 0.0255416 0.0880414 0 0 0 0.000213126 -1.12679e-05 -9.02985e-05 -0.000127015 1.24829e-05 6.57655e-05 0.019385 0.0112071 0.0396925 0.011 593.882 -1.68552 0.999794 -2.21863e-06 
49 1 0.0307653 0.0381408 0.0876059 0 0 0 3.73257e-05 9.99786e-07 -9.37421e-06 -5.02501e-05 4.53768e-06 2.06258e-05 0.000237948 0.00439095 0.00143961 0.011 594.822 -1.44415 0.999832 -1.81161e-06 
39 1 0.0897515 0.0377457 0.0918745 0 0 0 -6.67823e-06 0.000101621 -1.49809e-05 -2.46641e-06 -5.81482e-05 1.90902e-05 0.00871294 0.000605752 -0.00941654 0.011 594.015 -1.63147 0.999794 -2.21861e-06 
102 1 0.0284142 0.0591567 0.0943164 0 0 0 5.58039e-06 -2.90308e-06 -1.04598e-05 -2.25404e-05 8.12098e-06 2.41507e-05 -0.00109091 0.00293763 0.00173726 0.011 595.173 -1.35558 0.999847 -1.65036e-06 
47 1 0.0478054 0.0509483 0.090143 0 0 0 2.41993e-05 2.84042e-06 1.82609e-06 -4.37603e-05 -7.9327e-06 9.54055e-06 -0.000582707 -0.00482942 -0.000872599 0.011 595.065 -1.40555 0.999847 -1.65036e-06 
255 1 0.0724712 0.0533019 0.084319 0 0 0 3.60789e-05 3.92554e-05 -4.68611e-05 -3.97209e-05 -3.97887e-05 3.35146e-05 0.0169467 0.00132343 0.00492981 0.011 594.84 -1.4615 0.999836 -1.76183e-06 
260 1 0.0897786 0.0584202 0.0958581 0 0 0 1.85705e-05 1.5456e-05 1.21695e-05 -1.51649e-05 -1.05211e-05 -1.00718e-05 -0.00168058 -0.00151515 0.00189255 0.011 594.869 -1.44646 0.999836 -1.76182e-06 
93 1 0.0702563 0.072611 0.0941231 0 0 0 1.69768e-06 -4.97818e-06 1.40678e-05 -1.01975e-05 -5.17372e-06 -1.08913e-05 -0.00457073 1.39188e-05 9.02464e-06 0.011 594.927 -1.41794 0.999836 -1.76182e-06 
133 1 0.0892942 0.0761731 0.0853095 0 0 0 -4.43085e-07 -1.73048e-06 1.44432e-06 -5.52444e-06 -4.54696e-06 -6.46735e-06 0.0003167 0.000128453 0.00102644 0.011 594.924 -1.42081 0.999836 -1.76182e-06 
256 1 0.0207012 0.0893778 0.0883465 0 0 0 3.82178e-06 -3.90394e-06 -2.7847e-06 -5.91054e-06 6.9888e-06 3.04435e-06 0.000166821 0.000437338 0.000189443 0.011 595.185 -1.34963 0.999847 -1.65036e-06 
6 1 0.053153 0.0837562 0.0878212 0 0 0 3.92626e-06 -4.92413e-06 -5.03982e-06 -8.69361e-06 2.01515e-07 2.33955e-06 -0.00113749 0.000798838 -0.00108522 0.011 594.955 -1.40503 0.999836 -1.76182e-06 
246 1 0.0105989 0.0104837 0.11218 0 0 0 7.31377e-06 5.91255e-06 -3.67848e-06 -7.19192e-06 -5.16071e-06 3.05692e-06 0.000124882 4.70635e-05 0.000482096 0.011 594.912 -1.4241 0.999834 -1.7908e-06 
149 1 0.0295215 0.0106071 0.101695 0 0 0 3.57209e-05 -1.57749e-06 -1.5877e-05 -2.86393e-05 3.90003e-06 1.61781e-05 -0.00175748 -0.000539169 -0.0031531 0.011 594.816 -1.44651 0.999832 -1.81161e-06 
156 1 0.049362 0.0107067 0.110756 0 0 0 4.77866e-06 -6.95502e-06 1.50273e-05 -1.31103e-05 6.39645e-06 -5.25091e-06 -0.000609559 -0.00399864 -0.000755152 0.011 594.893 -1.43398 0.999834 -1.79079e-06 
91 1 0.0702374 0.0100942 0.101844 0 0 0 0.000155929 -4.5261e-05 -0.000113393 -9.3969e-05 1.89791e-05 6.9223e-05 -0.0132971 -0.0382819 -0.0159214 0.011 594.027 -1.62532 0.999794 -2.21864e-06 
241 1 0.0900959 0.0104251 0.108623 0 0 0 -5.96027e-05 -6.07499e-05 0.000110946 1.6786e-05 2.95001e-05 -5.17766e-05 -0.00276315 0.0193642 0.00573602 0.011 595.1 -1.40886 0.999849 -1.62275e-06 
139 1 0.0164455 0.031048 0.111084 0 0 0 2.22104e-06 2.68659e-06 3.98871e-06 -5.57321e-06 -3.81476e-07 -8.79171e-06 -8.39697e-05 -0.000389169 3.70879e-06 0.011 594.915 -1.42296 0.999834 -1.7908e-06 
249 1 0.0399681 0.0294895 0.104758 0 0 0 7.55933e-05 1.96116e-06 -2.32896e-05 -6.9634e-05 4.54187e-07 2.2778e-05 0.00225671 -0.0063947 0.00400494 0.011 594.781 -1.46177 0.999832 -1.81161e-06 
5 1 0.0298513 0.0496358 0.113929 0 0 0 3.34962e-06 5.58189e-07 -8.76379e-06 -1.00845e-05 7.4763e-06 2.39962e-05 0.00157933 -0.00273508 -0.000399304 0.011 594.958 -1.40216 0.999834 -1.7908e-06 
148 1 0.0510923 0.0484016 0.11152 0 0 0 6.9932e-06 -2.02721e-06 -1.50872e-05 -1.09049e-05 2.64368e-06 1.2012e-05 0.00130198 0.0032904 -0.000728043 0.011 595.169 -1.37774 0.999849 -1.62277e-06 
122 1 0.0693585 0.0412444 0.102365 0 0 0 7.66266e-06 -7.30696e-05 -3.26172e-06 -3.56575e-06 3.82017e-05 2.35262e-05 -0.0114949 -0.00195202 -0.00303665 0.011 594.027 -1.62308 0.999794 -2.21861e-06 
254 1 0.0886883 0.0446666 0.111893 0 0 0 1.8095e-05 -8.16571e-06 1.62783e-05 -1.07521e-05 6.89456e-06 -3.42597e-06 0.00120448 -0.000911759 0.00294762 0.011 595.11 -1.40277 0.999849 -1.62276e-06 
251 1 0.0105113 0.0513848 0.10502 0 0 0 6.18427e-06 7.10758e-06 -1.39968e-05 -1.19474e-05 -2.1356e-06 2.85339e-05 0.000305606 0.00129604 0.000653504 0.011 595.173 -1.35338 0.999847 -1.65036e-06 
23 1 0.0687605 0.0608118 0.111979 0 0 0 8.21625e-06 -3.7231e-06 -1.44382e-05 -9.60313e-06 5.49645e-06 1.50317e-05 0.0043004 0.00023857 0.00121476 0.011 594.927 -1.4164 0.999833 -1.79501e-06 
84 1 0.0135717 0.0732805 0.100604 0 0 0 2.75991e-06 -5.12032e-06 -1.93932e-06 -1.52964e-05 1.37755e-05 8.40302e-06 -0.000263159 -0.000269287 -0.000363725 0.011 595.093 -1.38978 0.999847 -1.65036e-06 
219 1 0.0316307 0.0712552 0.112523 0 0 0 2.20511e-06 2.81572e-07 3.88967e-07 -9.8438e-06 -1.22702e-06 -3.17268e-06 -0.000716299 1.92087e-05 0.000364156 0.011 594.667 -1.46939 0.99982 -1.94285e-06 
59 1 0.0506531 0.0683152 0.102676 0 0 0 8.07784e-07 4.56483e-06 5.14122e-06 -6.98824e-06 -3.19154e-06 -3.29771e-06 0.000372502 -0.000402023 0.000237263 0.011 594.934 -1.41478 0.999836 -1.76182e-06 
158 1 0.0876349 0.0711542 0.112628 0 0 0 -2.94767e-06 4.90553e-06 3.31581e-06 -9.5634e-07 -2.19309e-06 -6.04696e-06 0.00106255 0.000416415 0.000164478 0.011 594.922 -1.41906 0.999833 -1.79501e-06 
176 1 0.0106114 0.0894531 0.114739 0 0 0 1.45015e-06 -8.61225e-07 -1.56369e-06 -2.36519e-06 3.95798e-06 6.91987e-06 0.000122014 7.20714e-05 3.32451e-05 0.011 594.608 -1.49897 0.99982 -1.94285e-06 
128 1 0.0375956 0.0892799 0.102109 0 0 0 2.97571e-06 5.51208e-07 -2.92769e-06 -8.23e-06 -1.9184e-06 -1.89133e-06 0.000313461 -0.000683116 0.000405568 0.011 595.153 -1.36314 0.999847 -1.65036e-06 
37 1 0.0633726 0.0898713 0.105255 0 0 0 3.32362e-06 -1.87387e-06 -7.97644e-06 5.89203e-07 1.12969e-06 -3.46756e-07 0.0011278 -0.000629072 0.000401321 0.011 594.916 -1.42266 0.999836 -1.76182e-06 
211 1 0.0861894 0.0895474 0.101445 0 0 0 -3.34272e-06 1.60995e-08 3.73286e-06 -6.18573e-06 -2.0711e-06 -3.97007e-06 -0.000445099 0.000154608 -0.000357412 0.011 594.928 -1.41713 0.999836 -1.76182e-06 
250 1 0.0102777 0.0141804 0.133065 0 0 0 -8.27443e-07 3.47464e-07 -1.21376e-06 -1.74181e-06 1.32627e-06 1.24288e-06 0.000712641 -0.000381875 0.000242088 0.011 594.927 -1.41661 0.999834 -1.7908e-06 
87 1 0.0293525 0.0106176 0.123275 0 0 0 3.95728e-06 6.13934e-06 -2.80696e-06 -6.67823e-06 -4.90767e-06 2.88246e-06 0.00033602 -0.000959439 -0.000171584 0.011 594.922 -1.41932 0.999834 -1.7908e-06 
48 1 0.0483696 0.0154426 0.131909 0 0 0 -1.05328e-05 -2.77264e-06 1.72899e-05 1.60133e-06 2.61279e-06 -8.67998e-06 -0.000663606 -0.00155006 -0.00122285 0.011 594.964 -1.40073 0.999834 -1.79079e-06 
215 1 0.0672476 0.0102584 0.12315 0 0 0 -3.16945e-05 1.10098e-05 -2.98078e-05 1.21752e-05 -5.30898e-06 1.88416e-05 0.00285392 0.00882054 0.00166022 0.011 595.187 -1.36827 0.999849 -1.62277e-06 
242 1 0.0894663 0.0110425 0.129601 0 0 0 4.84869e-05 -1.15848e-05 4.79452e-05 -2.3893e-05 1.0186e-05 -2.43845e-05 -0.00225432 -0.00299581 0.00120583 0.011 595.287 -1.32347 0.999849 -1.62276e-06 
175 1 0.0589631 0.029189 0.117544 0 0 0 -1.57163e-05 4.6076e-06 -1.1638e-05 4.30415e-06 4.33252e-07 1.1072e-05 -0.00312339 0.00126007 -0.00112947 0.011 595.245 -1.34355 0.999849 -1.62277e-06 
72 1 0.0799082 0.026366 0.116909 0 0 0 -1.05632e-05 -2.14268e-05 3.68131e-05 2.00746e-06 1.29245e-05 -1.32869e-05 -0.00585099 -0.00746027 -0.00369999 0.011 595.268 -1.33635 0.999849 -1.62276e-06 
82 1 0.0108145 0.0371678 0.130156 0 0 0 -9.11072e-07 1.22258e-06 4.14362e-07 -3.22021e-08 1.25807e-06 -3.69952e-06 0.000176953 2.05901e-05 2.35732e-05 0.011 594.901 -1.42889 0.999834 -1.7908e-06 
227 1 0.0401902 0.0345455 0.125453 0 0 0 -7.52763e-06 -8.22607e-07 -6.98933e-06 3.33111e-06 3.21625e-06 9.96411e-06 -0.000758141 0.000358141 0.00179198 0.011 594.942 -1.41092 0.999834 -1.7908e-06 
67 1 0.071798 0.0446654 0.125602 0 0 0 -4.18153e-06 -4.30011e-06 -2.25336e-05 1.14698e-06 3.95793e-06 1.79282e-05 -0.00139247 -0.00249187 -0.000751879 0.011 595.267 -1.33272 0.999849 -1.62277e-06 
24 1 0.0895707 0.0350322 0.13329 0 0 0 -1.47398e-05 2.60127e-06 1.20778e-05 7.41506e-06 1.71707e-08 -5.44446e-06 -0.000577088 0.00184603 -0.000763013 0.011 595.295 -1.31799 0.999849 -1.62276e-06 
151 1 0.0511765 0.0661474 0.124509 0 0 0 2.47186e-07 -4.90947e-06 2.03808e-06 -2.46111e-05 1.23783e-05 -5.04859e-06 0.000275801 -0.000120879 0.00361008 0.011 594.922 -1.41864 0.999833 -1.79501e-06 
205 1 0.0897512 0.0571855 0.128851 0 0 0 -1.49682e-06 5.73941e-07 6.92944e-06 -4.03953e-07 3.30082e-06 -5.53443e-06 -0.00155692 0.000394128 -0.000118845 0.011 594.958 -1.40293 0.999833 -1.79501e-06 
66 1 0.0105907 0.0685174 0.120378 0 0 0 1.80785e-07 -2.93831e-07 -7.42061e-07 -3.9717e-06 3.55951e-06 2.29667e-06 -0.000162023 6.93954e-05 -3.14865e-05 0.011 594.634 -1.48673 0.99982 -1.94285e-06 
154 1 0.0700189 0.0798268 0.122025 0 0 0 -2.83867e-06 -2.94432e-06 5.96737e-07 2.40019e-06 5.20914e-06 -3.4871e-06 -0.00137315 -0.000433722 0.000154672 0.011 594.924 -1.41738 0.999833 -1.79501e-06 
113 1 0.0279082 0.0892589 0.127595 0 0 0 2.07773e-06 6.97223e-07 8.66542e-07 -3.38605e-06 1.60046e-06 -7.24771e-07 -0.000154038 -0.000277529 0.000156599 0.011 594.581 -1.51199 0.99982 -1.94285e-06 
57 1 0.0486659 0.0879566 0.121139 0 0 0 2.95345e-06 -6.11129e-06 -5.58986e-06 -4.51448e-06 -7.7159e-06 -5.26476e-06 -0.000427125 0.000872467 -0.000615062 0.011 594.607 -1.49898 0.99982 -1.94285e-06 
226 1 0.0894241 0.089846 0.122583 0 0 0 -1.74226e-06 1.35045e-06 3.14427e-06 1.84421e-06 -1.15429e-06 -3.81411e-06 -0.000258568 -5.97231e-05 -0.000117036 0.011 594.923 -1.41816 0.999833 -1.79501e-06 
115 1 0.03491 0.00967725 0.147788 0 0 0 -7.18903e-06 1.05648e-06 6.45445e-06 4.21568e-07 -1.31412e-07 -3.05459e-06 0.000520655 0.000932831 0.000596257 0.011 594.936 -1.41048 0.999834 -1.7908e-06 
137 1 0.0807301 0.0101884 0.148471 0 0 0 5.30008e-06 1.2864e-06 1.09838e-05 -5.62528e-06 9.17384e-07 -7.16328e-06 0.000442836 -0.00135897 -0.000385739 0.011 595.28 -1.32476 0.999849 -1.62276e-06 
134 1 0.0263015 0.0262731 0.139307 0 0 0 -5.13722e-06 -2.46996e-07 4.34688e-06 -9.27851e-07 1.79288e-06 -1.84225e-06 -0.000781906 -0.000310057 -0.000509527 0.011 594.928 -1.41579 0.999834 -1.7908e-06 
129 1 0.0507488 0.0308357 0.146556 0 0 0 -5.00315e-06 -2.23217e-06 -1.16616e-06 -1.97999e-06 3.14934e-06 3.98788e-07 -0.000790086 0.00075323 -0.00042995 0.011 595.237 -1.34285 0.999849 -1.62276e-06 
75 1 0.0700298 0.0264402 0.137485 0 0 0 -3.64541e-06 -3.69972e-06 -2.43045e-06 -1.53211e-06 5.79996e-06 3.7597e-06 0.000697833 -0.000840015 0.00140237 0.011 595.295 -1.31777 0.999849 -1.62276e-06 
198 1 0.0289118 0.0475841 0.137645 0 0 0 -4.29294e-06 -1.504e-06 -4.1596e-06 2.22246e-06 3.31719e-06 4.80871e-06 -0.000220023 0.000861412 -0.000277476 0.011 594.876 -1.43838 0.999834 -1.7908e-06 
244 1 0.062001 0.0485665 0.14429 0 0 0 -3.9005e-06 -2.73653e-06 -1.23081e-05 -3.11796e-06 4.40613e-06 5.89702e-06 0.00141611 0.00185504 -0.000299126 0.011 595.242 -1.34257 0.999849 -1.62277e-06 
135 1 0.0847491 0.0491534 0.148407 0 0 0 -1.66715e-06 4.23696e-06 9.81045e-06 -4.1244e-06 3.02579e-07 -8.09404e-06 0.000332399 -0.000594591 0.000154489 0.011 595.254 -1.33679 0.999849 -1.62276e-06 
71 1 0.00991288 0.0567028 0.137456 0 0 0 -6.62633e-07 7.70186e-07 7.83783e-07 -1.00514e-07 5.69069e-07 -1.77704e-06 -6.79685e-05 -5.46256e-05 -3.50423e-05 0.011 594.638 -1.48345 0.99982 -1.94285e-06 
10 1 0.045363 0.0626076 0.145417 0 0 0 -5.22362e-09 -6.74248e-07 2.87863e-06 -5.5012e-06 -8.28866e-07 -3.1358e-06 -0.00090872 -0.000230261 -0.000179326 0.011 594.64 -1.48259 0.99982 -1.94285e-06 
17 1 0.0720908 0.0654358 0.136839 0 0 0 -4.18209e-06 4.2157e-06 1.70317e-06 -7.00309e-07 1.51188e-06 -3.6496e-06 0.000615945 -0.000250071 8.3523e-05 0.011 594.948 -1.40697 0.999833 -1.79501e-06 
29 1 0.0105465 0.0805231 0.137848 0 0 0 6.10918e-07 5.42378e-07 -5.26308e-07 -2.37541e-06 2.87662e-07 1.74899e-06 4.24738e-05 -1.49305e-05 4.92543e-05 0.011 594.585 -1.50845 0.99982 -1.94285e-06 
132 1 0.028052 0.0685315 0.133568 0 0 0 7.67335e-07 2.49666e-07 -1.03331e-06 -2.14059e-06 4.20988e-06 9.18999e-07 0.000423855 -0.000100853 -0.000183094 0.011 594.605 -1.49926 0.99982 -1.94285e-06 
170 1 0.035147 0.0822763 0.148399 0 0 0 5.42644e-06 -2.62711e-06 -8.21359e-07 -4.72875e-06 1.60055e-05 -1.1124e-05 -6.37087e-05 0.000714476 0.000187485 0.011 594.585 -1.5097 0.99982 -1.94285e-06 
173 1 0.0556912 0.0812712 0.14068 0 0 0 4.52134e-06 -2.31326e-06 -3.14175e-06 -8.36634e-06 -1.10636e-05 -4.75113e-06 -0.000200803 -0.000617714 6.78314e-05 0.011 594.892 -1.43417 0.999833 -1.79501e-06 
50 1 0.079964 0.0848754 0.140416 0 0 0 -2.70405e-06 3.18682e-06 2.85677e-06 6.85013e-07 1.40172e-06 -4.33751e-06 0.00016144 0.00021539 -0.000233686 0.011 594.921 -1.41907 0.999833 -1.79501e-06 
252 1 0.0111298 0.0113948 0.15423 0 0 0 -0.000391399 -8.59373e-05 4.93475e-06 6.91913e-06 1.0461e-05 1.13752e-06 -0.0191974 0.0507203 -0.655725 0.011 594.957 -1.40153 0.999834 -1.7908e-06 
101 1 0.0483186 0.0164208 0.161939 0 0 0 -2.49225e-06 1.86837e-06 1.05642e-06 -8.77088e-07 -1.56527e-06 -2.54726e-06 0.000166183 -4.84663e-05 3.41284e-05 0.011 595.027 -1.37244 0.999834 -1.7908e-06 
171 1 0.0681593 0.0101685 0.164894 0 0 0 -2.51201e-06 1.80195e-06 1.65353e-06 -4.65929e-07 -2.03572e-06 -2.00961e-06 -0.000102289 -0.000100452 3.54566e-06 0.011 595.223 -1.34813 0.999849 -1.62276e-06 
248 1 0.0894614 0.028793 0.153385 0 0 0 1.4179e-06 1.44359e-06 8.54973e-06 -2.93005e-06 2.33679e-06 -5.65117e-06 -0.000127587 0.000222522 0.00031035 0.011 595.276 -1.32652 0.999849 -1.62276e-06 
136 1 0.0107571 0.0375708 0.151743 0 0 0 -4.0876e-07 1.70456e-06 -9.43367e-07 3.35683e-08 -1.68248e-06 -1.42761e-06 -0.000223722 5.80982e-05 0.000149101 0.011 594.951 -1.40518 0.999834 -1.7908e-06 