ITEM: TIMESTEP
300000
ITEM: NUMBER OF ATOMS
1005
ITEM: BOX BOUNDS mm mm mm
0 0.1
0 0.1
0 1.1
ITEM: ATOMS id type x y z ix iy iz vx vy vz fx fy fz omegax omegay omegaz radius f_Temp[0] f_heatFlux[0] f_speciesC[0] f_speciesCFlux[0] 
152 1 0.0254472 0.0104912 0.0102221 0 0 0 1.74257e-06 1.7354e-06 3.31179e-06 -1.31878e-07 1.08313e-08 -8.88312e-08 -0.000163633 -0.000277031 0.000237468 0.011 591.857 -2.27683 0.999677 -3.01701e-06 
97 1 0.010096 0.0228961 0.0166306 0 0 0 -4.52618e-07 8.70541e-07 -7.7035e-07 6.65371e-08 7.02573e-08 1.14367e-07 -0.000178454 6.31881e-05 5.79907e-05 0.011 591.894 -2.24993 0.999677 -3.01702e-06 
231 1 0.0360319 0.0295066 0.0103017 0 0 0 -7.57892e-06 3.07854e-06 -2.9551e-06 -1.05758e-06 -3.61988e-07 2.5327e-07 -0.000386826 -0.00056999 0.000450893 0.011 591.867 -2.26981 0.999677 -3.01702e-06 
89 1 0.0620414 0.0171548 0.0104263 0 0 0 1.29913e-05 -3.39858e-06 -1.10446e-05 1.0584e-07 -1.06159e-06 -1.68909e-07 0.000414104 0.000759669 0.000925737 0.011 590.721 -2.57111 0.999622 -3.52974e-06 
216 1 0.0812371 0.0269591 0.00999642 0 0 0 1.22653e-05 2.56774e-06 -2.79034e-05 7.11815e-07 -2.89063e-06 8.77386e-07 -0.00109635 0.00196556 -0.000632986 0.011 590.664 -2.59612 0.999622 -3.52975e-06 
155 1 0.0150044 0.0423283 0.0103381 0 0 0 9.19282e-07 -1.60892e-07 -1.30631e-06 1.32715e-09 2.49871e-07 4.03516e-08 3.11434e-05 7.6067e-05 -0.000255494 0.011 591.9 -2.25309 0.999677 -3.01702e-06 
79 1 0.0644517 0.0460881 0.0105442 0 0 0 2.20824e-05 4.72058e-06 6.57957e-06 7.43317e-07 -1.17326e-06 -6.23931e-07 0.000338796 0.000636479 -0.00393751 0.011 590.923 -2.46563 0.999622 -3.52973e-06 
180 1 0.033923 0.0582286 0.0104706 0 0 0 2.73465e-06 1.27532e-06 -9.34019e-07 6.65576e-07 2.03901e-08 1.6704e-07 -8.44172e-05 0.000269484 8.62278e-05 0.011 592.336 -2.13588 0.999698 -2.82234e-06 
33 1 0.0814169 0.0599237 0.010262 0 0 0 5.04747e-05 5.51076e-05 -2.97331e-05 3.13665e-07 1.00609e-06 -9.85205e-07 -0.00430176 0.00543797 0.00808889 0.011 592.858 -2.01032 0.999725 -2.57254e-06 
2 1 0.0105506 0.0718176 0.00973645 0 0 0 9.52996e-07 -2.57519e-07 -5.61668e-07 9.20481e-08 2.34225e-07 -2.58443e-08 6.91839e-05 9.15722e-05 3.30587e-05 0.011 592.34 -2.13293 0.999698 -2.82234e-06 
30 1 0.0423263 0.0807624 0.0100002 0 0 0 1.75616e-06 5.11005e-07 -2.50393e-07 -3.56317e-08 1.38222e-07 -1.57932e-07 -5.78825e-05 0.000173903 -0.000281448 0.011 592.373 -2.11811 0.999698 -2.82234e-06 
253 1 0.0601196 0.0675847 0.0106246 0 0 0 1.23118e-05 3.32224e-06 -3.68929e-06 1.35515e-08 -1.07176e-06 -1.76667e-07 -0.00021664 0.000592931 0.00230758 0.011 592.872 -2.00391 0.999725 -2.57252e-06 
25 1 0.0890672 0.0801572 0.00996798 0 0 0 -6.75587e-06 3.14977e-05 -1.98035e-05 -1.94242e-07 6.15926e-07 -5.14702e-07 -0.000137602 -0.00158654 -0.00350862 0.011 592.936 -1.96822 0.999725 -2.57253e-06 
233 1 0.0222916 0.0895166 0.0118686 0 0 0 7.26221e-07 3.06133e-07 5.50453e-08 -1.52416e-07 1.55788e-07 -1.88055e-07 -2.52977e-06 -9.63489e-05 8.66256e-05 0.011 592.327 -2.14232 0.999698 -2.82234e-06 
192 1 0.0689575 0.0890012 0.0109516 0 0 0 3.15782e-06 1.74128e-05 -5.52853e-06 1.89892e-07 5.55645e-07 -5.46264e-07 -0.00128193 0.000842399 0.00345918 0.011 592.926 -1.97615 0.999725 -2.57253e-06 
166 1 0.0440599 0.0107332 0.0202807 0 0 0 1.71698e-05 2.46621e-06 1.40345e-06 -8.03583e-08 -2.14587e-07 -8.32395e-08 -0.000698485 0.00176584 -0.0012047 0.011 591.729 -2.33709 0.999677 -3.01702e-06 
203 1 0.0627297 0.0103233 0.0310021 0 0 0 2.30085e-05 -5.46005e-06 -1.11584e-05 -2.32532e-07 -8.43653e-07 -8.43751e-07 -0.00113342 -0.000856956 -0.00127122 0.011 590.754 -2.54727 0.999622 -3.52974e-06 
234 1 0.0888457 0.0102824 0.0207323 0 0 0 1.73453e-05 1.21102e-05 -1.77312e-05 1.82346e-07 -6.37641e-07 -3.39423e-07 -0.00260108 0.00294626 -0.00194974 0.011 590.656 -2.60258 0.999622 -3.52974e-06 
22 1 0.0674542 0.0308915 0.0259841 0 0 0 -2.58019e-06 -7.41477e-06 -1.51835e-05 -3.90863e-07 -4.40387e-07 -1.0178e-06 0.0014692 -0.00113458 0.00154479 0.011 590.769 -2.53649 0.999622 -3.52974e-06 
104 1 0.0246178 0.0349093 0.0292672 0 0 0 3.53418e-06 4.64106e-06 -1.58464e-06 6.58293e-07 -6.09621e-07 8.85285e-07 0.000171321 -0.000131352 -3.40429e-05 0.011 591.917 -2.23669 0.999677 -3.01702e-06 
35 1 0.0463014 0.0343861 0.028073 0 0 0 -1.61794e-06 -6.82407e-06 -1.1638e-05 1.20087e-07 -5.1073e-07 -4.88554e-07 0.000381135 0.00120279 -0.00178912 0.011 591.924 -2.23704 0.999677 -3.01702e-06 
147 1 0.0896081 0.0357671 0.0270737 0 0 0 -1.08158e-05 5.34951e-05 -8.16194e-05 -4.34689e-09 -1.44443e-06 4.17835e-07 -0.00642982 -0.00772127 -0.00294952 0.011 590.862 -2.49434 0.999622 -3.52978e-06 
8 1 0.0158778 0.0580096 0.024551 0 0 0 3.4131e-06 -1.80024e-07 -1.88975e-06 3.03999e-07 2.52123e-07 -4.53753e-09 2.11378e-06 2.02104e-06 2.13145e-05 0.011 592.279 -2.15994 0.999698 -2.82234e-06 
63 1 0.0362749 0.0531949 0.0311918 0 0 0 9.99192e-06 4.4646e-07 -3.28036e-06 8.70691e-07 -2.47078e-07 1.99555e-07 0.000115378 0.0003375 0.000226334 0.011 592.471 -2.07533 0.999698 -2.82234e-06 
99 1 0.0576222 0.0556974 0.0284733 0 0 0 1.9845e-05 2.41603e-05 -2.6412e-06 1.28462e-06 1.84927e-08 1.84734e-08 -0.00207946 -0.00153543 0.00200325 0.011 592.884 -1.9985 0.999725 -2.57252e-06 
224 1 0.0872006 0.0564742 0.0302907 0 0 0 1.82116e-05 6.92599e-05 -7.47102e-05 3.9809e-07 4.09411e-07 -3.39805e-06 0.00756945 -0.0116764 -0.00644084 0.011 592.813 -2.02417 0.999725 -2.57256e-06 
126 1 0.0103593 0.0787913 0.0293285 0 0 0 4.28624e-07 -1.78373e-07 -8.05003e-07 9.07526e-08 1.35984e-08 2.05706e-08 -0.000141208 -5.97056e-05 1.02579e-05 0.011 592.574 -2.0231 0.999698 -2.82234e-06 
163 1 0.0308222 0.0731114 0.0256597 0 0 0 2.6057e-06 1.06907e-06 3.69409e-09 3.63055e-07 5.12936e-08 9.79573e-08 0.000152839 -1.9097e-05 0.000175446 0.011 592.379 -2.10558 0.999698 -2.82234e-06 
12 1 0.0745007 0.0734423 0.0257557 0 0 0 2.66428e-05 4.34947e-05 -3.03685e-05 2.39612e-07 6.1282e-07 -1.04177e-06 0.0017778 0.00401447 0.00620764 0.011 592.933 -1.97065 0.999725 -2.57254e-06 
257 1 0.0531551 0.0892636 0.0262312 0 0 0 2.33525e-06 2.01204e-06 -1.37906e-06 3.12091e-07 3.7297e-07 -8.44864e-07 -0.000112595 -0.000103676 0.000382321 0.011 592.894 -1.9891 0.999725 -2.57252e-06 
243 1 0.0892874 0.0891912 0.0286315 0 0 0 -1.54559e-06 2.07065e-05 -1.1234e-05 -5.13064e-08 4.66169e-07 -5.29729e-07 0.0017123 -0.000484754 -0.00180809 0.011 593.099 -1.89092 0.999725 -2.57253e-06 
223 1 0.0366975 0.0106925 0.0405218 0 0 0 4.00055e-05 1.39297e-05 2.27098e-05 -1.86462e-07 3.62325e-07 -3.9518e-09 0.00192963 -0.000601471 -0.00350435 0.011 591.977 -2.21016 0.999677 -3.017e-06 
70 1 0.0104574 0.0206618 0.0372909 0 0 0 3.62452e-06 2.82047e-06 -1.79005e-06 1.04923e-07 -9.53195e-08 3.41526e-07 7.92551e-05 0.00028822 0.000145569 0.011 592.284 -2.06858 0.999677 -3.01702e-06 
45 1 0.0533465 0.023487 0.0450373 0 0 0 7.53185e-05 2.04181e-05 -3.07742e-05 2.05454e-06 -1.03581e-06 -4.82223e-07 -0.00395765 0.00836923 0.00209497 0.011 591.268 -2.31154 0.999622 -3.52975e-06 
108 1 0.0809226 0.0194404 0.0384427 0 0 0 3.23169e-05 9.44401e-05 -3.21039e-05 -2.93048e-06 -5.88014e-06 5.44428e-06 -0.00737776 0.00324192 0.00942547 0.011 590.915 -2.4778 0.999622 -3.52975e-06 
96 1 0.0118127 0.0470098 0.0420245 0 0 0 2.39077e-06 2.00745e-06 -2.84767e-06 8.87087e-09 3.71423e-07 -7.35445e-08 -0.000167171 -8.55183e-05 6.58635e-06 0.011 592.167 -2.11954 0.999677 -3.01702e-06 
9 1 0.0408225 0.0409413 0.0478638 0 0 0 2.59774e-05 -2.70716e-06 -4.99493e-06 1.61003e-06 -6.18581e-07 -2.597e-07 -7.65235e-05 0.000711194 0.0014488 0.011 594.331 -1.67933 0.999806 -1.81129e-06 
80 1 0.0755043 0.0427525 0.0417236 0 0 0 4.23368e-05 0.000115409 -0.000117586 1.01656e-06 7.76631e-08 -5.4563e-06 -0.00928803 0.0171753 0.0121357 0.011 591.394 -2.26148 0.999622 -3.5298e-06 
146 1 0.0234893 0.0652287 0.0441928 0 0 0 2.08596e-06 -8.09129e-07 -3.2275e-06 4.30127e-07 -1.8791e-07 1.08966e-07 0.000167916 -0.000163067 -5.43604e-05 0.011 592.701 -1.9594 0.999698 -2.82234e-06 
182 1 0.0584027 0.0528231 0.0495939 0 0 0 1.25124e-05 3.24675e-05 -1.37724e-05 1.20025e-06 4.29687e-07 1.4258e-07 0.00208518 1.20757e-05 0.0028813 0.011 594.482 -1.63425 0.999811 -1.76198e-06 
240 1 0.0106827 0.0818064 0.0498461 0 0 0 -1.48921e-06 7.17883e-07 -1.34818e-06 2.20749e-08 -1.83916e-07 7.24592e-08 4.32351e-05 2.4928e-05 0.000214494 0.011 594.722 -1.56673 0.999823 -1.65002e-06 
204 1 0.0466078 0.0738915 0.0406831 0 0 0 1.58944e-06 1.79662e-05 -1.685e-06 8.0025e-08 -7.38195e-08 9.78039e-09 0.000877459 0.000119758 0.00300726 0.011 592.485 -2.05898 0.999698 -2.82234e-06 
78 1 0.0692244 0.0708977 0.048367 0 0 0 -4.88138e-06 2.96485e-05 1.28622e-06 -4.26758e-07 9.20508e-07 -4.3288e-07 -0.00158598 -0.0003039 -0.00162789 0.011 594.751 -1.51092 0.999811 -1.76198e-06 
212 1 0.0899724 0.0687317 0.0468711 0 0 0 -1.05552e-05 1.00159e-06 -1.985e-06 -8.71964e-08 -3.41655e-07 -1.32081e-06 -0.000129446 0.000720117 -0.000815312 0.011 594.708 -1.5362 0.999811 -1.76198e-06 
32 1 0.0268326 0.0897764 0.0377094 0 0 0 -1.88647e-06 1.21975e-06 4.39235e-07 -5.02465e-08 7.80965e-08 -3.8123e-08 -0.000174653 -0.000490597 -1.88032e-05 0.011 592.656 -1.98059 0.999698 -2.82234e-06 
34 1 0.0702596 0.0898164 0.0390874 0 0 0 2.77779e-06 1.04863e-05 -5.88802e-06 -2.36988e-07 1.35917e-07 -1.24763e-06 0.000528904 0.000455182 0.000537218 0.011 593.168 -1.85913 0.999725 -2.57253e-06 
217 1 0.0892415 0.0898425 0.0494499 0 0 0 -7.0568e-07 1.77798e-06 -4.50295e-06 -1.6569e-07 -2.31803e-07 -4.64756e-07 0.000199723 -5.14124e-05 -0.000231703 0.011 594.661 -1.54825 0.999811 -1.76198e-06 
258 1 0.0129914 0.0100018 0.0551 0 0 0 -3.2917e-07 2.5092e-06 -2.26957e-06 -5.24317e-07 -2.38142e-08 3.61755e-07 -0.000168726 -0.000757061 0.000121058 0.011 594.556 -1.57442 0.999806 -1.81129e-06 
164 1 0.0340186 0.01034 0.0619129 0 0 0 -1.47524e-05 -5.37761e-06 1.24245e-05 -2.32637e-07 -3.31759e-07 4.15969e-07 0.000867574 -0.00440764 0.00137509 0.011 594.62 -1.54926 0.999806 -1.81129e-06 
15 1 0.0686461 0.0109534 0.0545434 0 0 0 4.83666e-05 3.31255e-05 -1.17553e-05 -9.44898e-07 -3.64628e-06 -2.07337e-06 0.00108024 -0.00705024 -0.00234537 0.011 593.695 -1.79332 0.999762 -2.21876e-06 
64 1 0.0256327 0.0267078 0.051106 0 0 0 1.22351e-05 -3.03022e-06 -3.1947e-07 5.25863e-07 -4.79345e-07 4.1703e-07 -0.000236197 -0.000465866 -0.00142532 0.011 594.582 -1.56955 0.999806 -1.81129e-06 
191 1 0.0895742 0.031885 0.0533664 0 0 0 -2.36831e-05 0.000173568 -6.65591e-05 -1.33492e-06 7.95958e-06 1.43258e-06 -0.0109077 -0.0298021 -0.0326506 0.011 593.427 -1.91171 0.999762 -2.21877e-06 
199 1 0.0102992 0.038089 0.0609956 0 0 0 2.02136e-06 4.33566e-06 -3.15498e-06 2.36317e-07 1.73099e-07 -2.71208e-08 2.0517e-06 -0.00012208 0.000298444 0.011 594.572 -1.56589 0.999806 -1.81129e-06 
123 1 0.0652346 0.034334 0.0585762 0 0 0 4.22877e-05 8.62889e-05 -3.81594e-05 2.54024e-06 3.08117e-06 -2.1064e-06 0.000266385 -0.0127001 0.00451368 0.011 593.509 -1.86435 0.999762 -2.21876e-06 
43 1 0.0106011 0.0604899 0.0611541 0 0 0 1.28839e-06 2.1388e-06 -1.14305e-06 1.40171e-07 -2.04952e-07 1.32272e-07 -0.000943391 0.000109382 0.000263177 0.011 595.068 -1.4068 0.999823 -1.65002e-06 
161 1 0.0394499 0.0598854 0.057487 0 0 0 5.16146e-06 7.09764e-06 -9.25196e-06 4.27167e-07 -7.37234e-07 -8.05492e-08 -0.00104624 0.000652532 0.00052028 0.011 594.913 -1.4823 0.999823 -1.65002e-06 
92 1 0.089438 0.0558535 0.0648094 0 0 0 -1.9033e-05 7.74817e-05 3.42407e-05 7.05222e-07 1.23818e-05 1.85439e-06 -0.0132244 0.00242373 -0.0105327 0.011 594.857 -1.45422 0.999811 -1.76197e-06 
54 1 0.0259863 0.0756812 0.0637101 0 0 0 -4.74248e-06 3.94439e-06 -1.40597e-06 -5.55655e-08 -1.5437e-07 7.46471e-08 0.00060224 -0.000446969 0.00046277 0.011 595.151 -1.37377 0.999823 -1.65002e-06 
185 1 0.0534569 0.0751314 0.0613741 0 0 0 -8.4081e-06 1.78513e-05 -3.80209e-07 -1.25508e-06 3.79548e-07 4.3417e-07 0.00136623 -0.000487913 0.00301769 0.011 594.846 -1.46647 0.999811 -1.76198e-06 
4 1 0.0399265 0.0897067 0.0543674 0 0 0 -1.10797e-05 2.10044e-06 4.11423e-06 -5.80122e-07 -1.757e-07 -6.09634e-08 -0.000298501 -0.00012682 -0.000912725 0.011 594.919 -1.4777 0.999823 -1.65002e-06 
103 1 0.0877724 0.0164229 0.0675465 0 0 0 -0.0145496 0.00152544 -0.000399704 -0.000193144 0.000487807 0.000293873 0.357106 2.6189 -4.14286 0.011 593.806 -1.73939 0.999762 -2.21881e-06 
52 1 0.0140779 0.0209841 0.0728818 0 0 0 -1.77177e-05 3.21462e-06 -1.99447e-06 -1.63821e-07 -5.85301e-08 2.28914e-07 7.62592e-05 -0.00130181 -0.000360281 0.011 594.777 -1.47161 0.999806 -1.81129e-06 
28 1 0.0400642 0.0320453 0.067423 0 0 0 -1.2027e-05 -1.35499e-05 2.68586e-07 9.34414e-07 -5.24864e-07 -3.43426e-07 0.000515128 -0.00319424 -0.00192421 0.011 594.732 -1.49207 0.999806 -1.81129e-06 
232 1 0.0333578 0.0175482 0.0819466 0 0 0 -5.32444e-05 -4.71998e-06 9.22395e-06 2.98068e-07 -7.71379e-07 2.18639e-07 -0.00104899 0.000503166 -0.00163956 0.011 594.744 -1.48213 0.999806 -1.81129e-06 
153 1 0.0266105 0.0487989 0.0697447 0 0 0 4.66608e-06 3.52953e-06 -2.09772e-06 2.96746e-07 -4.95178e-07 1.84108e-07 0.000876803 0.000208149 -0.000293898 0.011 594.845 -1.44113 0.999806 -1.81129e-06 
140 1 0.0580429 0.0362372 0.078497 0 0 0 -1.8566e-05 5.37597e-05 -3.72044e-05 2.10414e-06 -7.51736e-07 -2.93774e-06 -0.00240837 0.00610074 0.00829255 0.011 594.013 -1.63895 0.999762 -2.21876e-06 
189 1 0.0810372 0.0375979 0.0723348 0 0 0 -4.92526e-05 4.42796e-05 -7.5669e-06 -3.07123e-07 1.32937e-05 -3.75936e-07 0.0253084 0.0113855 0.00848898 0.011 593.919 -1.68503 0.999762 -2.21876e-06 
200 1 0.0104474 0.0513291 0.0831928 0 0 0 -9.96359e-07 -7.13767e-07 1.70935e-06 3.69522e-08 1.53934e-07 -2.51502e-07 0.000762169 -0.000248825 -0.000647756 0.011 595.138 -1.37036 0.999823 -1.65002e-06 
157 1 0.0560386 0.0559525 0.0707427 0 0 0 -2.58073e-05 5.86794e-07 -1.20973e-05 -2.44594e-07 -3.82177e-07 1.18762e-06 0.00162516 -0.00259897 -0.00559215 0.011 594.864 -1.45595 0.999811 -1.76198e-06 
14 1 0.01046 0.0722666 0.0801953 0 0 0 -5.52395e-07 1.95421e-06 3.53312e-06 8.2211e-08 -7.89357e-08 -4.11392e-07 -0.000453495 -0.000428077 0.000441983 0.011 595.181 -1.35204 0.999823 -1.65002e-06 
69 1 0.0401961 0.0684187 0.0785536 0 0 0 -2.24926e-06 1.05054e-05 -1.79899e-06 -5.00631e-07 -5.20431e-07 -1.70288e-07 0.00077465 0.00103893 0.00151867 0.011 595.173 -1.35494 0.999823 -1.65002e-06 
85 1 0.0738106 0.0699002 0.0696564 0 0 0 2.91741e-05 8.08078e-05 -1.11898e-05 6.16512e-06 1.05904e-05 -3.70642e-06 -0.000283904 0.00416815 0.00997777 0.011 594.921 -1.42314 0.999811 -1.76198e-06 
209 1 0.0105735 0.0898516 0.0690399 0 0 0 -2.06803e-06 -4.54658e-09 -2.20681e-07 -1.90276e-08 1.86105e-08 4.2441e-08 -1.20433e-05 2.8786e-05 -0.000137163 0.011 595.159 -1.36835 0.999823 -1.65002e-06 
127 1 0.0374779 0.0896611 0.0753389 0 0 0 -8.37239e-06 3.66564e-06 4.29067e-06 -6.19271e-08 -8.63304e-08 1.20303e-07 -0.000170479 5.31019e-05 -0.000466173 0.011 595.155 -1.36575 0.999823 -1.65002e-06 
183 1 0.0653233 0.0896843 0.07122 0 0 0 -2.43764e-05 1.71409e-05 4.89696e-06 -2.57751e-06 1.42763e-06 -1.96254e-07 -0.000284385 0.00124192 -0.00195447 0.011 594.926 -1.41949 0.999811 -1.76198e-06 
194 1 0.0893171 0.0897645 0.0700225 0 0 0 1.91478e-06 -1.24248e-06 -2.6677e-06 1.43806e-07 -1.73995e-07 -1.25051e-07 0.000191136 0.000165851 0.000240868 0.011 594.908 -1.43237 0.999811 -1.76198e-06 
187 1 0.010554 0.0103441 0.0908407 0 0 0 -1.03592e-05 -4.22514e-07 -4.68927e-07 -2.98229e-09 5.34106e-08 1.17868e-07 0.000137438 0.000353959 0.000517521 0.011 594.813 -1.4472 0.999806 -1.81129e-06 
229 1 0.0868307 0.0098555 0.0875385 0 0 0 -0.000414948 -2.1804e-06 -0.00020828 -1.37409e-06 3.55986e-06 4.97442e-06 -0.0182382 0.0829408 0.0394481 0.011 593.923 -1.67616 0.999762 -2.21879e-06 
58 1 0.0107814 0.0316267 0.0910429 0 0 0 -1.52639e-05 3.58829e-07 -4.66004e-06 -1.15445e-07 2.28723e-07 3.55156e-07 -0.000192103 0.00113496 3.8579e-05 0.011 594.838 -1.436 0.999806 -1.81129e-06 
53 1 0.052829 0.018762 0.0909104 0 0 0 -0.000103118 0.000128723 8.60337e-06 7.42876e-07 1.22356e-06 -6.64855e-08 0.0065576 0.000148923 0.0186158 0.011 593.984 -1.64348 0.999762 -2.21875e-06 
167 1 0.0729624 0.0255411 0.0880409 0 0 0 -0.000151 -4.48188e-07 2.64087e-05 1.5032e-06 6.25691e-07 1.85798e-07 -0.0133511 -0.00224821 -0.0313208 0.011 593.882 -1.68556 0.999762 -2.21875e-06 
49 1 0.0307639 0.0381409 0.087606 0 0 0 -2.90607e-05 -1.02226e-06 3.97657e-06 3.52423e-07 -8.33381e-07 4.3624e-07 -0.000490146 -0.00341435 -0.000879128 0.011 594.822 -1.44419 0.999806 -1.81129e-06 
39 1 0.089752 0.0377419 0.0918724 0 0 0 9.62105e-06 -8.18368e-05 -2.20927e-05 4.5048e-07 5.63829e-07 -9.57701e-07 -0.00472658 -0.003336 0.00837088 0.011 594.015 -1.63158 0.999762 -2.21876e-06 
102 1 0.0284136 0.059157 0.0943167 0 0 0 -1.00202e-05 8.77328e-07 7.46334e-06 4.29915e-07 -5.87401e-07 3.5108e-07 -0.000238603 -0.00145645 -0.00109377 0.011 595.173 -1.3556 0.999823 -1.65002e-06 
47 1 0.0478039 0.0509488 0.0901427 0 0 0 -2.62169e-05 1.50763e-06 -3.1989e-06 5.25627e-07 -1.65608e-06 7.91056e-07 0.000654 0.00361655 0.000961715 0.011 595.065 -1.40559 0.999823 -1.65002e-06 
255 1 0.07247 0.0533011 0.0843209 0 0 0 -3.66224e-05 -1.95329e-05 5.09861e-05 -2.91981e-06 1.58236e-06 4.69067e-06 -0.014796 -0.000519834 -0.00440672 0.011 594.84 -1.46175 0.999811 -1.76197e-06 
260 1 0.0897777 0.0584196 0.0958574 0 0 0 -1.77416e-05 -1.22476e-05 -1.08375e-05 -2.19987e-07 5.77516e-07 6.51242e-07 0.0022716 0.00130809 -0.00202815 0.011 594.869 -1.44646 0.999811 -1.76198e-06 
93 1 0.0702561 0.0726113 0.0941226 0 0 0 -2.78794e-06 9.58659e-06 -1.11203e-05 4.208e-07 1.57335e-06 7.19468e-07 0.00431445 -0.00047676 0.000164028 0.011 594.927 -1.41799 0.999811 -1.76198e-06 
133 1 0.0892942 0.0761732 0.0853094 0 0 0 1.05585e-06 3.69477e-06 6.96903e-07 3.23908e-07 9.75411e-07 7.80301e-07 -0.000782292 0.000173253 -0.00108765 0.011 594.923 -1.42084 0.999811 -1.76198e-06 
256 1 0.0207009 0.089378 0.0883466 0 0 0 -5.22064e-06 4.15153e-06 2.47438e-06 9.75909e-09 -1.93264e-07 1.18081e-07 -9.01614e-05 -0.00019055 -0.000126279 0.011 595.184 -1.34965 0.999823 -1.65002e-06 
6 1 0.0531526 0.0837566 0.0878215 0 0 0 -9.2768e-06 7.60056e-06 7.03123e-06 -1.77785e-07 4.16304e-07 8.2613e-07 0.00136538 -0.000428989 0.00157147 0.011 594.955 -1.40506 0.999811 -1.76198e-06 
246 1 0.0105988 0.0104836 0.11218 0 0 0 -4.69612e-06 -3.82442e-06 2.74048e-06 2.77024e-07 -3.41171e-08 -9.58136e-08 -0.000149214 5.08316e-05 -0.000383834 0.011 594.912 -1.42415 0.999808 -1.7911e-06 
149 1 0.0295204 0.0106073 0.101696 0 0 0 -2.60329e-05 1.7928e-06 1.17219e-05 3.10777e-07 -3.19405e-07 1.10262e-07 0.00128763 0.000173077 0.00234228 0.011 594.816 -1.44654 0.999806 -1.81129e-06 
156 1 0.0493612 0.010707 0.110756 0 0 0 -9.81329e-06 5.94568e-06 -4.30955e-06 7.14228e-07 -2.44345e-07 2.92266e-07 0.000863216 0.00218793 0.000885234 0.011 594.893 -1.43398 0.999808 -1.7911e-06 
91 1 0.0702363 0.0100934 0.101846 0 0 0 -7.43176e-05 1.07187e-05 7.45175e-05 -5.99167e-07 1.08194e-06 4.22054e-06 0.00518144 0.0155938 0.0105287 0.011 594.027 -1.6253 0.999762 -2.21874e-06 
241 1 0.0900981 0.0104275 0.10862 0 0 0 4.83586e-05 4.91122e-05 -7.87381e-05 -2.97707e-08 -1.54402e-06 1.54545e-06 0.00483371 -0.0122665 -0.00375672 0.011 595.101 -1.40849 0.999826 -1.62281e-06 
139 1 0.0164455 0.0310479 0.111084 0 0 0 -1.23286e-06 -1.51018e-06 -3.34344e-06 -7.15565e-07 -2.75824e-07 3.06749e-07 0.000118635 0.000232046 5.54683e-05 0.011 594.915 -1.42301 0.999808 -1.7911e-06 
249 1 0.0399656 0.0294898 0.104759 0 0 0 -5.90221e-05 9.38436e-07 1.88797e-05 4.62457e-07 -8.84253e-07 2.40737e-07 -0.00171904 0.00448542 -0.00294707 0.011 594.78 -1.46191 0.999806 -1.81129e-06 
5 1 0.0298511 0.0496361 0.113929 0 0 0 -3.54385e-06 4.46184e-06 8.39534e-06 1.01714e-07 -1.419e-06 -5.82663e-07 -0.000936205 0.00188906 -0.000290982 0.011 594.958 -1.4022 0.999808 -1.7911e-06 
148 1 0.0510921 0.0484012 0.11152 0 0 0 -6.45899e-06 -5.30393e-06 5.05665e-06 1.41627e-07 -2.46997e-07 1.45208e-06 -0.000656126 -0.00171577 -0.00019056 0.011 595.169 -1.37771 0.999826 -1.6228e-06 
122 1 0.0693598 0.0412455 0.102364 0 0 0 9.163e-06 4.62362e-05 -6.08638e-06 -1.22503e-06 2.7648e-06 -2.05706e-06 0.00984324 -0.000232458 0.00416314 0.011 594.026 -1.62342 0.999762 -2.21876e-06 
254 1 0.0886877 0.0446661 0.111891 0 0 0 -1.47177e-05 -3.75525e-06 -2.39333e-05 -4.15617e-07 -1.37423e-07 -2.68296e-07 -0.00113237 0.00239427 -0.0027569 0.011 595.109 -1.40288 0.999826 -1.6228e-06 
251 1 0.0105111 0.0513849 0.10502 0 0 0 -4.62083e-06 -2.99051e-07 1.02428e-05 4.06967e-07 -8.5416e-07 -1.20356e-06 -0.000863052 -0.000972674 -3.9709e-05 0.011 595.173 -1.3534 0.999823 -1.65001e-06 
23 1 0.0687603 0.0608117 0.111979 0 0 0 -7.01831e-06 -1.69827e-06 5.33923e-06 -1.26212e-07 -1.57446e-07 9.26205e-07 -0.00338373 -0.000178583 -0.000659473 0.011 594.927 -1.41649 0.999808 -1.79453e-06 
84 1 0.0135715 0.0732808 0.100604 0 0 0 -3.53306e-06 4.54725e-06 1.9153e-06 2.90888e-07 -4.29301e-07 1.04801e-08 0.000319348 0.000371432 5.30484e-05 0.011 595.092 -1.38981 0.999823 -1.65002e-06 
219 1 0.0316306 0.0712554 0.112523 0 0 0 -2.15107e-06 1.76641e-06 2.0239e-06 -8.86374e-08 -1.59266e-07 7.85677e-07 0.000378566 -0.000259311 0.000222518 0.011 594.667 -1.46944 0.999792 -1.94295e-06 
59 1 0.050653 0.0683152 0.102676 0 0 0 -1.14385e-06 -3.79015e-06 -4.41805e-06 5.88068e-08 -9.19292e-07 1.13282e-07 -5.39157e-05 0.000922579 -0.000691133 0.011 594.934 -1.41482 0.999811 -1.76198e-06 
158 1 0.087635 0.0711537 0.112628 0 0 0 2.60221e-06 -7.01275e-06 -3.93964e-06 -1.15724e-07 3.11866e-07 4.67168e-07 -0.000970656 -0.000646448 -0.000316356 0.011 594.922 -1.41911 0.999808 -1.79453e-06 
176 1 0.0106113 0.0894532 0.11474 0 0 0 -8.30045e-07 6.67046e-07 1.63321e-06 -6.41465e-08 -1.26691e-07 -7.75535e-08 -0.000126482 -0.000101435 -1.20128e-05 0.011 594.607 -1.49902 0.999792 -1.94295e-06 
128 1 0.0375954 0.08928 0.102109 0 0 0 -5.52041e-06 -3.26277e-07 3.9271e-06 -7.09748e-08 -3.95395e-07 1.4111e-07 -0.000436412 0.000375087 -0.000588611 0.011 595.153 -1.36316 0.999823 -1.65002e-06 
37 1 0.0633724 0.0898714 0.105256 0 0 0 -5.67201e-06 2.48652e-06 8.03608e-06 -9.6988e-07 3.58112e-07 1.35931e-06 -0.000966472 0.000668843 -0.000625244 0.011 594.915 -1.42269 0.999811 -1.76198e-06 
211 1 0.0861895 0.0895474 0.101445 0 0 0 4.9386e-06 1.01156e-06 -3.78656e-06 7.20495e-07 5.87879e-07 2.97082e-08 0.000611202 -0.000261689 0.000509681 0.011 594.928 -1.41716 0.999811 -1.76198e-06 
250 1 0.0102775 0.0141803 0.133065 0 0 0 -1.59971e-06 -1.37964e-06 3.06012e-06 2.89256e-07 -7.7993e-07 6.45609e-08 -0.000188415 -0.000364529 -0.000295395 0.011 594.927 -1.41666 0.999808 -1.7911e-06 
87 1 0.0293524 0.0106174 0.123275 0 0 0 -4.01554e-06 -4.48773e-06 3.57926e-06 3.37588e-07 -2.21127e-07 1.5869e-07 -0.000103217 0.000778918 0.000196985 0.011 594.921 -1.41937 0.999808 -1.7911e-06 
48 1 0.0483695 0.0154426 0.131909 0 0 0 2.31303e-06 1.33211e-06 -5.34171e-06 4.20977e-07 -3.73483e-07 6.24129e-07 7.54287e-05 0.000465657 0.000613491 0.011 594.964 -1.40077 0.999808 -1.7911e-06 
215 1 0.0672476 0.0102582 0.12315 0 0 0 1.19537e-05 -6.30843e-06 1.64509e-05 2.28591e-07 -7.34537e-07 1.64074e-06 -0.00137927 -0.00337261 -0.000965955 0.011 595.187 -1.3683 0.999826 -1.6228e-06 
242 1 0.0894653 0.0110418 0.129599 0 0 0 -2.91123e-05 -2.50042e-06 -3.54385e-05 5.54679e-07 -2.61644e-07 6.59289e-07 0.000205855 0.00129586 0.000138099 0.011 595.287 -1.32345 0.999826 -1.6228e-06 
175 1 0.058963 0.0291888 0.117544 0 0 0 3.18609e-06 -3.85328e-06 7.01828e-06 6.24321e-07 -3.79857e-07 1.43384e-06 0.0010227 -0.0001447 0.000445139 0.011 595.246 -1.34298 0.999826 -1.6228e-06 
72 1 0.0799082 0.0263663 0.116909 0 0 0 3.78692e-06 1.14717e-05 -2.21841e-05 2.66523e-07 -5.37286e-07 9.04143e-07 0.00323751 0.00366667 0.00246675 0.011 595.268 -1.33629 0.999826 -1.6228e-06 
82 1 0.0108144 0.0371677 0.130156 0 0 0 -3.62203e-07 -1.324e-06 -1.96513e-07 -2.45502e-07 -7.48352e-07 3.29046e-07 -9.62588e-05 -0.000134804 -0.000149546 0.011 594.9 -1.42894 0.999808 -1.7911e-06 
227 1 0.0401901 0.0345456 0.125453 0 0 0 1.00597e-06 1.47573e-06 6.78296e-06 1.10355e-07 -6.52292e-07 2.96239e-08 0.000698465 -0.000220297 -0.000919693 0.011 594.942 -1.41093 0.999808 -1.7911e-06 
67 1 0.0717979 0.0446654 0.125602 0 0 0 2.5984e-07 2.21032e-06 1.2038e-05 3.75377e-07 -5.031e-08 1.28282e-06 0.00121847 0.00103383 0.000426216 0.011 595.266 -1.33272 0.999826 -1.6228e-06 
24 1 0.0895707 0.0350321 0.13329 0 0 0 5.77469e-06 -1.82722e-06 -7.42253e-06 4.68795e-07 -3.39785e-08 2.45645e-07 0.000406641 -0.000824208 0.000432716 0.011 595.295 -1.31801 0.999826 -1.6228e-06 
151 1 0.0511766 0.0661471 0.124509 0 0 0 2.9405e-06 -2.92899e-06 -3.36691e-06 1.0653e-06 5.12569e-07 3.38843e-07 -4.76715e-05 -0.000242479 -0.0022214 0.011 594.922 -1.4187 0.999808 -1.79453e-06 
205 1 0.0897514 0.057185 0.12885 0 0 0 2.26376e-06 -6.8315e-06 -1.07809e-05 -9.11366e-08 1.54899e-08 1.58516e-07 0.00144276 -0.000813055 0.000891391 0.011 594.958 -1.40298 0.999808 -1.79453e-06 
66 1 0.0105907 0.0685175 0.120378 0 0 0 -3.21426e-07 2.02114e-07 9.54231e-07 6.32269e-08 6.59131e-08 2.40037e-07 0.000130177 -7.73029e-05 2.54461e-05 0.011 594.634 -1.48678 0.999792 -1.94295e-06 
154 1 0.0700191 0.0798267 0.122025 0 0 0 2.10433e-06 -6.1982e-07 -2.23582e-06 -4.78724e-07 3.12519e-07 6.87948e-07 0.00142159 0.000655975 -9.99176e-05 0.011 594.924 -1.41743 0.999808 -1.79453e-06 
113 1 0.0279081 0.0892589 0.127595 0 0 0 -2.17555e-06 -2.67604e-07 8.28221e-07 -4.37517e-07 3.25332e-08 9.92492e-07 2.23723e-05 9.16161e-05 -0.000159206 0.011 594.58 -1.51205 0.999792 -1.94295e-06 
57 1 0.0486658 0.0879567 0.121139 0 0 0 -2.9243e-06 6.11337e-06 6.38474e-06 -5.1421e-07 1.23112e-06 1.80621e-06 0.000641827 -0.000574075 0.000546698 0.011 594.607 -1.49904 0.999792 -1.94295e-06 
226 1 0.0894242 0.0898458 0.122583 0 0 0 1.53156e-06 -2.26236e-06 -3.60834e-06 -2.4832e-07 1.96441e-07 1.3516e-07 0.000259958 -2.06122e-05 0.000145567 0.011 594.923 -1.41821 0.999808 -1.79453e-06 
115 1 0.03491 0.00967725 0.147788 0 0 0 2.27413e-06 -5.9774e-07 -9.57571e-07 5.92531e-07 -1.22858e-07 4.18338e-07 -4.78648e-05 -0.000143074 -0.000204964 0.011 594.936 -1.41053 0.999808 -1.7911e-06 
137 1 0.0807299 0.0101883 0.148471 0 0 0 -4.43777e-06 -1.2133e-06 -9.56108e-06 1.81641e-07 -1.20583e-07 1.05721e-07 -0.000440759 0.00111043 0.000312205 0.011 595.28 -1.32477 0.999826 -1.6228e-06 
134 1 0.0263013 0.0262731 0.139307 0 0 0 -1.83338e-07 -5.37197e-07 1.45791e-06 3.72497e-07 -4.88622e-07 4.38941e-07 0.000118063 0.000219991 0.00025861 0.011 594.928 -1.41584 0.999808 -1.7911e-06 
129 1 0.0507487 0.0308357 0.146556 0 0 0 4.41666e-07 6.26953e-07 1.06006e-06 5.73264e-07 -2.20863e-07 5.76885e-07 0.000459232 -0.000234051 0.000127403 0.011 595.237 -1.34288 0.999826 -1.6228e-06 
75 1 0.0700298 0.0264401 0.137485 0 0 0 1.21122e-06 6.79928e-07 3.03132e-07 5.97476e-07 -2.25722e-07 9.99896e-07 -0.000561357 0.000293517 -0.000491865 0.011 595.295 -1.3178 0.999826 -1.6228e-06 
198 1 0.0289118 0.0475841 0.137646 0 0 0 7.48238e-07 5.55804e-07 3.66025e-06 3.97915e-08 -3.93503e-07 -2.34437e-07 2.56379e-05 -0.000491275 4.99783e-05 0.011 594.876 -1.43843 0.999808 -1.7911e-06 
244 1 0.0620008 0.0485664 0.14429 0 0 0 -1.6235e-06 -7.5623e-07 4.87096e-06 3.79861e-07 -6.97388e-08 7.84641e-07 -0.000954693 -0.000884303 0.000306172 0.011 595.242 -1.34259 0.999826 -1.6228e-06 
135 1 0.0847493 0.0491533 0.148406 0 0 0 3.21483e-06 -3.20707e-06 -8.37534e-06 -5.63905e-07 -5.85294e-08 -8.41907e-08 -0.000655922 0.000694181 -0.000290883 0.011 595.254 -1.33681 0.999826 -1.6228e-06 
71 1 0.00991286 0.0567027 0.137456 0 0 0 -8.86845e-08 -4.3299e-07 -2.47119e-07 9.82708e-08 -4.39805e-07 1.55852e-07 2.0714e-05 2.38499e-06 4.56519e-05 0.011 594.638 -1.4835 0.999792 -1.94295e-06 
10 1 0.0453629 0.0626075 0.145416 0 0 0 -1.12969e-06 -9.5399e-07 -2.93553e-06 3.05371e-07 9.36906e-09 2.80037e-07 0.000356296 0.000277838 -0.000272078 0.011 594.64 -1.48265 0.999792 -1.94295e-06 
17 1 0.0720908 0.0654352 0.136838 0 0 0 1.80898e-06 -8.85313e-06 -6.28735e-06 1.54526e-07 -7.58555e-08 3.36104e-07 -0.000374292 0.000363072 -0.00083072 0.011 594.948 -1.40702 0.999808 -1.79453e-06 
29 1 0.0105465 0.0805231 0.137848 0 0 0 -1.06703e-06 -3.52928e-07 8.65931e-07 -4.29182e-07 -1.81642e-07 4.82949e-07 -6.33502e-05 -4.02538e-05 -4.45745e-05 0.011 594.585 -1.50851 0.999792 -1.94295e-06 
132 1 0.0280519 0.0685315 0.133568 0 0 0 -1.67463e-06 6.55389e-08 1.4511e-06 -3.50977e-07 -8.2511e-09 7.66315e-07 -0.000164699 0.000119049 0.000158782 0.011 594.605 -1.49931 0.999792 -1.94295e-06 
170 1 0.0351469 0.0822763 0.148399 0 0 0 -1.85465e-06 1.79893e-06 -2.41995e-07 -2.07643e-07 -2.8586e-07 8.66219e-07 -0.000235163 -0.000438432 -0.000505408 0.011 594.585 -1.50976 0.999792 -1.94295e-06 
173 1 0.0556911 0.0812711 0.14068 0 0 0 -2.50159e-06 -5.5715e-07 1.37391e-06 -7.7069e-08 9.51569e-07 1.03047e-06 0.000387695 0.000377984 0.000225193 0.011 594.891 -1.43423 0.999808 -1.79453e-06 
50 1 0.0799641 0.0848751 0.140416 0 0 0 2.50202e-06 -5.91568e-06 -4.27929e-06 -2.04311e-07 1.16141e-07 1.81045e-07 -0.000209351 -0.00028844 0.000653952 0.011 594.921 -1.41912 0.999808 -1.79453e-06 
252 1 0.0110611 0.0113825 0.154232 0 0 0 -0.000284969 -4.16913e-05 8.1917e-06 9.93472e-06 2.15203e-07 -3.27586e-07 -0.0134598 0.0362685 -0.468454 0.011 594.957 -1.40158 0.999808 -1.7911e-06 
101 1 0.0483187 0.0164208 0.161939 0 0 0 1.53238e-06 -1.27257e-06 -8.73831e-07 5.65993e-07 -1.30161e-07 4.52376e-07 -0.000108919 5.5687e-05 1.57773e-05 0.011 595.026 -1.37248 0.999808 -1.7911e-06 
171 1 0.0681594 0.0101685 0.164894 0 0 0 1.89269e-06 -8.70928e-07 -1.72471e-06 2.32928e-07 5.22945e-08 1.73336e-07 3.13019e-05 7.60675e-05 -5.05584e-06 0.011 595.223 -1.34816 0.999826 -1.6228e-06 
248 1 0.0894613 0.0287929 0.153385 0 0 0 -1.42854e-06 -1.51628e-06 -6.49388e-06 2.27589e-07 -1.95207e-08 1.29489e-07 0.000275941 -0.000252109 -0.000232054 0.011 595.276 -1.32654 0.999826 -1.6228e-06 
136 1 0.010757 0.037571 0.151743 0 0 0 -3.16933e-07 7.22175e-07 -3.96427e-07 -6.21707e-08 5.5269e-07 2.26539e-07 -9.42589e-05 8.47941e-05 6.61258e-05 0.011 594.95 -1.40523 0.999808 -1.7911e-06 