/*--------------------------------*- C++ -*----------------------------------*\
| =========                 |                                                 |
| \\      /  F ield         | OpenFOAM: The Open Source CFD Toolbox           |
|  \\    /   O peration     | Version:  5.x                                   |
|   \\  /    A nd           | Web:      www.OpenFOAM.org                      |
|    \\/     M anipulation  |                                                 |
\*---------------------------------------------------------------------------*/
FoamFile
{
    version     2.0;
    format      ascii;
    class       volScalarField;
    location    "0.95";
    object      alpha.water;
}
// * * * * * * * * * * * * * * * * * * * * * * * * * * * * * * * * * * * * * //

dimensions      [0 0 0 0 0 0 0];

internalField   nonuniform List<scalar> 
2268
(
1
1
1
1
1
1
1
1
1
1
1
1
1
1
0.997015
0.960267
0.926187
1
0.993824
0.987166
0.993474
0.999712
1
1
1
1
1
1
1
1
1
1
1
1
1
0.999999
0.993961
0.938914
0.936151
0.953868
0.999824
0.977806
0.974914
0.975086
1
1
1
1
1
1
1
1
1
1
1
1
1
1
0.999999
0.998345
0.960517
0.936193
0.953926
0.98005
0.991844
0.987178
0.994861
0.999897
1
1
1
1
1
1
1
1
1
1
1
1
1
1
0.999939
0.998167
0.98923
0.99397
0.998871
1
1
1
1
0.999994
1
1
1
1
1
1
1
1
1
1
1
1
1
1
1
0.999999
1
1
1
1
1
1
1
1
1
1
1
1
0.999997
0.999971
1
1
1
1
1
1
1
1
1
1
1
1
1
1
0.999998
1
1
1
1
1
1
0.999497
0.998225
0.999903
1
1
1
1
1
1
1
1
1
1
1
0.999998
0.999987
0.999915
0.999999
1
0.999987
1
1
1
0.999045
0.997484
0.999693
1
1
1
1
1
1
1
1
1
1
0.999998
0.999955
0.994236
0.96687
0.986873
0.985902
0.993208
0.884794
0.844494
0.863443
0.940405
0.999451
1
0.962798
0.498781
0.435557
0.668157
0.807696
0.841085
0.997191
0.950714
0.604052
0.591591
0.838882
0.999538
0.92694
0.775286
0.773806
0.777538
0.848398
0.994217
0.999842
0.99922
0.57838
0.137072
0.317976
0.594761
0.802049
0.986086
0.870522
0.740292
0.993202
1
0.993356
0.831783
0.802817
0.945109
0.991508
0.99321
0.997961
0.999615
0.962497
0.527463
0.115394
0.125738
0.367409
0.776489
0.942093
0.770534
0.774769
0.998732
1
0.991702
0.861856
0.996898
0.997088
0.997199
0.997199
0.996855
0.762673
0.425825
0.191606
0.113528
0.0991087
0.23752
0.759931
0.92495
0.770534
0.858195
0.997454
0.848438
0.99858
0.841923
0.991222
0.996898
0.997088
0.920199
0.392764
0.147703
0.0485001
0.0350346
0.045094
0.039802
0.122092
0.684476
0.833894
0.822562
0.941302
0.912352
0.272749
0.973961
0.841923
0.9851
0.988401
0.737423
0.237685
0.103238
0.102517
0.097404
0.0342746
0.03452
0.0353649
0.0361633
0.374624
0.914971
0.930531
0.941302
0.544877
0.104202
0.746341
0.943311
0.993878
0.815101
0.300753
0.103202
0.101389
0.166774
0.0548847
0.0344075
0.0343458
0.03452
0.285017
0.737316
0.927751
0.928426
0.744608
0.243527
0.68361
0.910749
0.999763
0.999099
0.618931
0.124589
0.0999768
0.23496
0.164786
0.0382821
0.0344075
0.290749
0.820806
0.900802
0.92689
0.92701
0.917316
0.284513
0.0845841
0.76584
0.901243
0.974394
0.999999
1
1
1
1
1
1
1
1
0.999123
0.991373
0.986687
0.98464
0.980702
0.983786
0.991763
0.995451
0.941754
0.871715
0.917969
0.963265
0.54377
0.821786
0.999577
0.997878
0.999999
1
0.954186
0.52872
0.507945
0.654304
0.618071
0.481973
0.505091
0.515396
0.4274
0.382547
0.467867
0.568468
0.487816
0.418455
0.838334
0.976995
0.977
0.873939
0.973513
0.999228
0.999239
0.945736
0.642642
0.0745133
0.0226529
0.0590432
0.174533
0.378447
0.483203
0.374474
0.0845847
0.076826
0.0764292
0.0760323
0.0803354
0.0912695
0.293653
0.87182
0.976999
0.976995
1
0.882431
0.45959
0.288749
0.235465
0.108074
0.00347713
0.00186701
0.00170725
0.00205816
0.0596302
0.258813
0.370107
0.36932
0.365782
0.126718
0.0760323
0.0760323
0.123709
0.602977
0.876036
0.97695
0.976582
0.922413
0.280007
0.0034494
0.00940576
0.00475714
0.0034788
0.0018825
0.00155322
0.0015233
0.00152456
0.00159919
0.00310575
0.177732
0.36932
0.361468
0.352707
0.217507
0.0929576
0.602022
0.967189
0.973345
0.976519
0.968589
0.800741
0.0403333
0.00299536
0.00299536
0.00268758
0.00198129
0.00155328
0.0015233
0.00152323
0.00152319
0.00152456
0.00159853
0.0128419
0.171324
0.248229
0.150889
0.159913
0.475947
0.534042
0.539489
0.931213
0.973345
0.771742
0.717397
0.0164838
0.0175983
0.0339204
0.00283848
0.00169963
0.00155381
0.00152727
0.00152316
0.00152374
0.00159665
0.00332589
0.00946581
0.000173181
0.000173812
0.0001865
0.00356762
0.00281322
0.00209845
0.00752762
0.471921
0.957934
0.832387
0.541533
0.0161937
0.0369793
0.0681838
0.0670563
0.0267928
0.01083
0.00899293
0.0108302
0.0253649
0.0332234
0.0332234
0.00870541
0.000173637
0.00017317
0.000173812
0.0001865
0.000247798
0.000531708
0.00205255
0.0859599
0.718755
0.874213
0.24614
0.0163179
0.0305157
0.0728546
0.0728356
0.0729274
0.0720572
0.0707443
0.0702244
0.0560849
0.0012705
0.0038324
0.00118067
0.000173637
0.000175554
0.000310237
0.000339785
0.000360103
0.000469768
0.000517099
0.00154011
0.156498
0.783926
0.361069
0.0125513
0.00512221
0.0111469
0.0186985
0.02179
0.0186424
0.0122698
0.00646451
0.00246877
0.000687828
0.000651115
0.000541745
0.000486809
0.000837929
0.000839185
0.000832406
0.000803951
0.000422154
0.000330161
0.00044796
0.000526207
0.052655
0.719861
0.0100637
0.000593412
0.000155208
6.6813e-05
4.17732e-05
3.30419e-05
2.45109e-05
1.98771e-05
3.36225e-05
0.000486014
0.000885723
0.000884041
0.000853733
0.000788191
0.00043786
0.000300243
0.000169071
0.000114072
0.000287521
0.000541237
0.000434656
0.000250881
0.810259
0.0118588
0.000157121
3.46066e-05
9.07027e-06
4.78857e-06
3.4911e-06
2.60538e-06
1.89201e-06
2.49624e-06
0.000163062
0.000485228
0.000651428
0.000370547
1.70059e-05
4.38815e-09
6.60552e-09
5.62949e-08
9.53333e-07
0.000191971
0.000712816
0.000774571
0.000222763
0.542682
0.0125602
0.000238311
8.28432e-06
1.48929e-06
6.96825e-07
4.57973e-07
3.16703e-07
2.03691e-07
1.54592e-07
9.06004e-08
8.30219e-08
4.21841e-09
4.22275e-09
4.21063e-09
4.22543e-09
4.38815e-09
5.4376e-09
1.62628e-08
2.66796e-06
0.000578337
0.000970427
0.000984351
0.0537985
0.0125356
0.000203974
1.50234e-06
2.98019e-07
1.40003e-07
9.63733e-08
6.94116e-08
4.49171e-08
2.02018e-08
5.03813e-09
4.9467e-09
4.22275e-09
4.2114e-09
4.23832e-09
5.87355e-09
5.73854e-09
5.76361e-09
5.73362e-09
3.10874e-10
6.4765e-09
0.000413367
0.000995815
6.30965e-06
0.0133687
8.9565e-05
1.62721e-06
8.78838e-08
5.5664e-08
5.04561e-08
4.09874e-08
2.92724e-08
2.31076e-08
2.01212e-08
5.382e-09
4.77097e-09
4.49107e-09
8.74322e-09
8.79463e-09
7.80861e-09
8.51026e-09
5.75217e-08
2.67977e-10
6.24445e-11
3.09857e-11
1.44073e-05
1.83209e-05
0.00780044
9.41658e-05
1.9217e-06
4.95257e-08
4.41831e-08
4.40788e-08
4.1632e-08
3.85453e-08
2.92765e-08
3.89973e-08
1.65558e-08
1.45599e-08
5.27795e-09
5.84392e-09
6.1047e-09
5.63819e-09
3.67233e-09
2.15012e-09
2.2363e-10
4.30647e-11
1.60155e-11
1.36109e-11
4.4981e-07
3.50258e-05
4.57396e-05
6.02225e-07
4.41831e-08
4.41831e-08
4.41831e-08
4.40245e-08
4.15996e-08
4.49808e-08
6.36453e-06
2.63561e-07
8.78848e-08
6.2515e-09
1.29764e-09
9.25516e-10
8.39695e-10
2.9252e-10
1.65507e-10
4.08853e-10
4.06487e-10
2.94511e-10
5.59884e-11
0.0112109
-1.0478e-05
-3.51981e-08
4.40862e-08
4.72728e-08
4.41792e-08
4.5661e-08
6.61026e-08
9.99165e-05
0.000221357
0.000161625
5.26721e-05
1.88041e-06
3.33633e-08
2.44518e-09
2.72716e-10
1.71412e-10
1.57518e-10
1.65071e-10
1.62235e-10
2.17151e-10
1.52405e-10
3.19207e-11
0.421224
1.07591e-05
5.62108e-08
5.81553e-08
5.03587e-08
5.52089e-08
1.2899e-06
4.47966e-05
0.000224144
0.000224955
0.000224144
0.000223076
0.000126383
6.00831e-07
1.88579e-07
1.07846e-08
6.07356e-10
1.44693e-10
1.0769e-10
6.1884e-11
3.94265e-11
2.26266e-11
1.18227e-11
0.599025
0.00344948
2.53845e-06
5.62259e-08
5.83316e-08
6.56565e-08
1.42232e-05
0.000223674
0.000224955
0.000224955
0.000218875
0.000218375
0.000214445
2.59328e-05
4.68568e-07
2.23857e-08
1.24271e-09
1.91624e-10
8.75782e-11
4.44922e-11
2.46568e-11
1.77503e-11
1.24462e-11
0.230751
0.0167322
3.87923e-05
1.11836e-06
6.35236e-08
2.21101e-07
3.61021e-07
0.000181754
0.000223674
0.000214859
6.73477e-05
0.00021399
0.000208952
3.2194e-05
2.15445e-07
2.21554e-08
2.50377e-09
2.96329e-10
7.3391e-11
3.36936e-11
1.36071e-11
1.11522e-11
1.13362e-11
-1.72885e-06
0.0370296
0.0059913
3.88339e-05
1.13872e-06
3.61021e-07
2.33721e-06
1.03465e-05
0.000134077
8.77839e-05
6.12944e-05
0.000148828
8.96669e-05
1.56971e-05
5.61169e-07
7.12628e-08
9.20217e-09
8.49078e-10
8.93542e-11
3.09036e-11
8.97812e-12
6.23478e-12
9.26539e-12
-3.29062e-07
0.0134804
0.013738
0.00703184
0.00118087
5.37195e-06
4.23024e-06
2.17678e-05
4.00482e-05
4.8157e-05
5.79469e-05
0.000119191
7.17495e-05
5.24343e-05
8.07274e-06
1.71153e-07
1.81341e-08
1.74302e-09
1.78574e-10
1.85823e-11
7.26884e-12
4.94394e-12
8.85705e-12
-9.28059e-08
0.000474908
0.00479075
0.00621165
0.00448532
0.00227558
0.000471662
4.00333e-05
4.81173e-05
5.79221e-05
6.12944e-05
9.30385e-05
0.000128389
0.000121444
1.62652e-05
2.91989e-07
3.05045e-08
2.67321e-09
2.22733e-10
2.25275e-11
4.92759e-12
3.8216e-12
7.98583e-12
-4.15476e-08
9.03683e-05
0.000155969
0.000455598
0.000892804
0.00111378
0.00102626
0.00076139
0.000178442
7.41987e-05
6.68479e-05
0.000156431
0.00013287
5.59292e-05
2.32493e-06
1.73795e-07
1.8657e-08
1.68746e-09
1.53057e-10
1.43117e-11
2.69189e-12
2.26406e-12
4.29987e-12
-3.44201e-09
1.36985e-05
2.11083e-05
1.52564e-05
1.19846e-05
1.17471e-05
0.000102365
0.000156218
0.000211999
0.000219016
0.000191337
0.000154597
8.7376e-05
6.71862e-06
4.18912e-07
5.26623e-08
5.60478e-09
5.10061e-10
5.40825e-11
4.18196e-12
6.13006e-13
6.77912e-13
1.2474e-12
-3.46994e-10
1.73298e-06
2.2033e-06
1.2693e-06
9.44417e-07
2.72543e-06
4.42543e-06
1.56371e-05
9.93638e-05
0.000193716
0.000177823
0.000123138
2.52027e-05
5.89865e-07
7.99276e-08
9.57972e-09
9.75582e-10
9.34274e-11
9.58937e-12
6.83817e-13
7.25515e-14
1.22036e-13
1.76096e-13
-2.89722e-14
1.99486e-07
2.09526e-07
9.20665e-08
1.65557e-07
1.92905e-06
2.84695e-06
1.81895e-05
7.35462e-05
0.000144654
0.000102567
2.3151e-05
4.62305e-07
8.01531e-08
1.05382e-08
9.73167e-10
1.0917e-10
1.31543e-11
1.46674e-12
1.1445e-13
7.33472e-15
6.88543e-15
8.23589e-15
3.38473e-26
2.11016e-08
1.87018e-08
6.89652e-09
6.55865e-08
7.85306e-07
2.09197e-06
6.20488e-06
1.31964e-05
1.70394e-05
6.52862e-06
2.49501e-07
5.60038e-08
9.15013e-09
1.11004e-09
1.27183e-10
1.41597e-11
2.42265e-12
2.16609e-13
1.07549e-14
4.60983e-16
9.71251e-17
1.55643e-16
0
2.09347e-09
1.6129e-09
5.32024e-10
1.26309e-09
4.67385e-09
6.31359e-08
3.4442e-08
1.08699e-07
1.57347e-07
8.11684e-08
2.1975e-08
5.14972e-09
8.07978e-10
1.15989e-10
2.51045e-11
3.81874e-12
2.86986e-13
1.58067e-14
7.87495e-16
3.36155e-17
3.20704e-18
4.86102e-18
3.98386e-13
2.02526e-10
1.33601e-10
5.18765e-11
4.44364e-11
1.80723e-10
6.33716e-10
2.72055e-09
8.70926e-09
1.23555e-08
6.25776e-09
1.84882e-09
4.26156e-10
7.84978e-11
2.81529e-11
4.88367e-12
3.49498e-13
1.90618e-14
1.0173e-15
4.87253e-17
2.0331e-18
1.76712e-19
2.85583e-19
1.93191e-12
2.31201e-11
1.32962e-11
6.6324e-12
1.12392e-11
3.11122e-11
8.68659e-11
2.91516e-10
7.08596e-10
8.65487e-10
4.88751e-10
1.68917e-10
4.10168e-11
2.0693e-11
4.35264e-12
3.57089e-13
2.18831e-14
1.18055e-15
5.74563e-17
2.55075e-18
1.02119e-19
1.01433e-20
4.41972e-20
3.99072e-13
3.18383e-12
1.95967e-12
1.24624e-12
3.2932e-12
1.0229e-11
9.9748e-12
3.19553e-11
7.4541e-11
8.29362e-11
4.76808e-11
1.78434e-11
1.1458e-11
2.78238e-12
2.63753e-13
1.98493e-14
1.25137e-15
6.39736e-17
2.76409e-18
1.12373e-19
4.12122e-21
1.21119e-21
1.50361e-20
1.84885e-14
3.69368e-13
1.93833e-13
1.087e-13
4.21962e-13
2.01376e-12
4.12422e-12
7.49409e-12
6.56185e-12
7.16764e-12
1.01471e-11
5.12543e-12
1.22196e-12
1.44948e-13
1.35922e-14
1.03696e-15
6.30038e-17
3.06835e-18
1.23888e-19
4.47326e-21
1.33271e-22
2.37149e-22
4.67204e-21
1.05829e-15
2.88218e-14
1.33096e-14
6.95007e-15
2.8914e-14
1.85936e-13
6.96848e-13
1.37312e-12
1.92757e-12
1.89198e-12
1.38338e-12
4.29903e-13
6.0676e-14
7.11735e-15
6.66426e-16
4.87001e-17
2.81833e-18
1.30829e-19
4.86096e-21
1.37297e-22
1.13912e-24
3.38857e-23
9.61238e-22
6.31019e-17
2.0022e-15
8.61723e-16
4.58699e-16
1.83786e-15
1.17691e-14
4.71591e-14
1.19215e-13
2.05511e-13
1.7334e-13
8.07613e-14
1.90489e-14
2.89559e-15
3.34361e-16
2.97972e-17
2.06847e-18
1.13536e-19
4.88857e-21
1.20888e-22
8.69221e-25
-2.08065e-23
-4.81136e-24
1.4087e-22
3.63573e-18
1.35607e-16
5.39323e-17
2.92274e-17
1.18462e-16
7.2106e-16
2.60728e-15
6.77516e-15
1.02307e-14
8.14764e-15
3.78049e-15
8.89494e-16
1.31885e-16
1.44839e-17
1.22272e-18
8.02985e-20
4.0683e-21
1.03307e-22
1.04826e-24
-3.21324e-23
-1.7001e-23
-4.67057e-24
2.02709e-23
2.02678e-19
8.79321e-18
3.22711e-18
1.77984e-18
7.42492e-18
4.42142e-17
1.51497e-16
3.72438e-16
5.10498e-16
3.9898e-16
1.76865e-16
3.96432e-17
5.59687e-18
5.82747e-19
4.6457e-20
2.8168e-21
8.77603e-23
9.81713e-25
-3.22582e-23
-1.87943e-23
-6.9493e-24
-1.77775e-24
3.74263e-24
1.09284e-20
5.47081e-19
1.85355e-19
1.03947e-19
4.453e-19
2.61633e-18
8.74241e-18
2.0342e-17
2.59083e-17
1.93391e-17
7.89553e-18
1.66461e-18
2.23191e-19
2.19712e-20
1.62676e-21
6.79543e-23
7.87961e-25
-2.49317e-23
-1.72112e-23
-7.02313e-24
-2.11671e-24
-4.61462e-25
7.94015e-25
5.68958e-22
3.27872e-20
1.02544e-20
5.79867e-21
2.57121e-20
1.4871e-19
4.84559e-19
1.07187e-18
1.26851e-18
8.94584e-19
3.35198e-19
6.62769e-20
8.40935e-21
7.76164e-22
4.55104e-23
7.03239e-25
-1.44722e-23
-1.29661e-23
-6.20158e-24
-2.09549e-24
-5.18223e-25
-8.87557e-26
1.46319e-25
2.83163e-23
1.8998e-21
4.27729e-22
2.03176e-22
1.2777e-21
8.0193e-21
2.45131e-20
4.87609e-20
5.14049e-20
3.76991e-20
1.36038e-20
2.55099e-21
3.05799e-22
2.52678e-23
4.48066e-25
-5.4761e-24
-7.79433e-24
-4.68224e-24
-1.87058e-24
-5.33413e-25
-1.09176e-25
-1.40356e-26
1.89714e-26
6.9421e-25
5.4305e-23
1.32567e-22
1.81032e-22
1.81032e-22
3.25802e-22
1.6292e-21
5.30762e-21
8.11687e-21
2.62423e-21
4.81911e-22
5.97954e-23
6.28567e-24
3.20927e-25
-7.20271e-25
-3.43393e-24
-2.84493e-24
-1.3832e-24
-4.51059e-25
-1.01495e-25
-1.52787e-26
-1.07587e-27
9.80817e-28
0.990214
0.998605
1
0.999996
0.976907
0.980032
0.999465
0.999994
0.961422
0.86431
0.863949
0.98882
0.969175
0.863125
0.839557
0.916394
0.842289
0.413374
0.168018
0.151129
0.0658244
0.0356243
0.0354441
0.0358044
0.133097
0.0354441
0.0352264
0.0352466
0.816639
0.165804
0.0352466
0.0352228
0.863087
0.863087
0.783744
0.330833
0.647486
0.763328
0.769209
0.753192
0.000188372
0.000170477
0.0286264
0.164002
0.000170478
0.000162269
0.000101092
3.5647e-05
0.000656371
0.000180262
0.000103219
1.1439e-05
0.00101492
0.00101492
0.00101492
0.000579558
0.00055203
0.000776918
0.000938239
0.000920877
1.31473e-11
1.36109e-11
2.29627e-10
0.000257771
1.22374e-11
2.86224e-09
2.60704e-09
2.3945e-08
1.1819e-11
1.85984e-08
4.21336e-07
5.92097e-07
1.18227e-11
3.97197e-08
6.20785e-07
6.73047e-07
1.1817e-11
1.18227e-11
1.90962e-09
3.91345e-07
1.18313e-11
1.18177e-11
1.18341e-11
1.18494e-11
1.28509e-11
1.35703e-11
1.19124e-11
1.18494e-11
1.39105e-11
1.62908e-11
1.62908e-11
1.62908e-11
1.26053e-11
1.37145e-11
1.42571e-11
1.29839e-11
5.99633e-12
6.16509e-12
5.87006e-12
4.74889e-12
1.40007e-12
1.35996e-12
1.20804e-12
8.70905e-13
1.7696e-13
1.66318e-13
1.34806e-13
8.47314e-14
8.03832e-15
7.2589e-15
5.67678e-15
3.73792e-15
1.8338e-16
1.83139e-16
1.77226e-16
1.54413e-16
7.01697e-18
8.42134e-18
9.50313e-18
1.06301e-17
4.88363e-19
7.7096e-19
1.35343e-18
2.26634e-18
1.16255e-19
2.41547e-19
5.44022e-19
1.053e-18
4.77303e-20
1.01599e-19
2.26073e-19
4.21807e-19
1.46277e-20
3.00808e-20
6.39351e-20
1.11204e-19
2.9265e-21
5.81722e-21
1.18757e-20
1.9247e-20
4.32803e-22
8.44712e-22
1.67313e-21
2.57788e-21
6.66211e-23
1.29769e-22
2.46798e-22
3.68534e-22
1.28977e-23
2.40551e-23
4.19423e-23
6.30137e-23
2.57847e-24
4.20814e-24
6.88359e-24
1.14827e-23
3.95046e-25
5.31475e-25
9.54089e-25
1.80165e-24
3.7298e-26
4.16404e-26
9.98867e-26
1.61136e-25
1.1404e-27
1.2049e-27
2.7059e-27
3.85438e-27
0.999994
0.999818
0.97953
0.46579
0.0748047
0.0965295
0.260578
0.108286
0.0903595
0.484191
0.599947
0.600684
0.511963
0.526046
0.529259
0.235722
0.021207
4.87871e-05
0.0982979
0.999992
0.999969
0.83939
0.137167
0.0748047
0.0785924
0.269116
0.191104
0.129237
0.453058
0.279351
0.000942431
0.000496686
0.000189683
0.000117743
9.60322e-05
4.87871e-05
2.93979e-05
0
0.999969
0.928695
0.295753
0.0763618
0.0748047
0.147289
0.269176
0.269331
0.194694
0.134121
0.0716481
0.0015482
0.000942431
0.00306178
0.00135954
0.000182589
0.00237703
0.00202883
0
0.84852
0.274572
0.0833479
0.0791246
0.175141
0.269296
0.269625
0.269176
0.244255
0.174472
0.0702912
0.064581
0.070632
0.0400806
0.00245725
0.000272413
0.00287954
0.00289417
0.00138561
0.158099
0.115707
0.111702
0.264206
0.267468
0.26915
0.207699
0.122706
0.140145
0.153724
0.183525
0.24309
0.238919
0.10004
0.00111913
0.000588906
0.00201323
0.00124925
0.00390981
0.0373432
0.158139
0.252908
0.259601
0.195258
0.0607511
0.060512
0.114109
0.397159
0.374922
0.363937
0.344895
0.202045
0.0996304
0.00252504
0.00164047
6.00322e-05
1.02994e-07
1.84454e-27
0.035339
0.0621936
0.104965
0.0884328
0.0587235
0.0597219
0.0628015
0.382542
0.403125
0.403125
0.282038
0.067976
0.000415371
0.0134008
0.00617331
0.000705888
8.4849e-06
1.68235e-06
1.63411e-06
0.0352466
0.035339
0.0358111
0.0362856
0.0430914
0.11386
0.299821
0.396922
0.398552
0.162645
6.19317e-06
1.23729e-07
0.000263556
0.00618766
0.00240246
2.77412e-05
1.46679e-05
1.09435e-05
2.54886e-05
0.09231
0.0358096
0.0384543
0.136873
0.242575
0.353928
0.354134
0.318454
0.0537855
4.753e-08
3.99246e-08
5.7605e-08
1.23729e-07
0.00223564
0.0161717
0.0171696
0.00590735
7.66667e-06
9.34816e-21
0.543266
0.204415
0.228565
0.308847
0.308872
0.25203
0.169667
1.49475e-07
4.75301e-08
3.9886e-08
3.83709e-08
6.10337e-08
6.34249e-08
2.58841e-07
0.00730511
0.0204806
0.0204604
0.00571941
-2.12964e-20
0.246688
0.271134
0.271134
0.195841
0.0848742
6.5288e-08
1.0833e-07
1.33011e-07
1.80579e-07
1.60412e-07
3.3601e-08
2.22055e-07
4.06677e-06
4.40651e-06
2.45997e-06
0.0113455
0.0204806
0.0186305
0.000676812
1.10353e-05
0.0229763
0.0065765
5.55727e-08
5.01645e-08
5.55727e-08
1.14247e-07
7.52008e-07
1.35072e-06
9.34783e-07
1.32175e-08
6.14848e-08
1.09022e-05
2.01896e-05
3.20757e-06
2.49778e-05
0.0184236
0.0184381
0.000769188
9.4029e-08
7.42941e-08
5.68998e-08
4.63912e-08
4.65527e-08
1.03684e-07
8.734e-07
1.35446e-06
1.37056e-06
7.27907e-07
5.87914e-09
1.11806e-08
1.08723e-06
1.49656e-05
2.77848e-05
0.000104413
0.00235556
0.00560404
0.000520141
0.000266237
9.4029e-08
5.76006e-08
2.4639e-08
2.32575e-08
7.13084e-08
8.98727e-09
2.80266e-07
6.32048e-07
1.00577e-09
4.78316e-09
9.13678e-09
5.26408e-08
1.23551e-07
1.28163e-06
0.000121968
0.000296559
0.000106678
3.27646e-05
0.000898134
2.37413e-07
2.87946e-06
1.02638e-06
1.86083e-10
1.8415e-10
1.81892e-10
1.8415e-10
1.864e-10
9.55514e-10
5.39169e-09
1.41531e-09
1.75767e-09
8.9249e-09
1.23551e-07
9.6225e-06
4.71234e-05
5.85219e-05
5.97186e-05
0.000301239
4.12868e-05
1.2253e-05
3.06555e-06
9.17097e-10
1.81892e-10
1.80166e-10
1.81892e-10
1.87106e-10
2.9639e-10
3.18214e-10
1.40254e-09
1.44801e-09
4.95254e-09
2.40944e-08
1.29149e-07
1.44029e-06
0.000227562
0.000784762
5.3283e-08
3.16533e-05
1.36602e-05
3.48052e-06
1.33668e-08
1.80166e-10
1.79978e-10
2.58287e-10
2.97983e-10
5.05756e-10
8.31143e-10
1.38959e-09
1.42039e-09
7.74797e-08
1.6669e-06
1.93488e-06
1.81218e-05
0.000103323
8.37083e-06
1.12974e-07
2.85933e-09
1.53806e-07
1.47823e-06
1.26972e-07
7.5627e-10
1.21263e-10
2.77428e-10
3.50995e-10
5.33934e-10
7.29796e-10
1.0068e-09
1.54666e-09
1.59877e-09
1.65372e-09
5.43775e-09
2.17853e-05
0.00019126
1.06108e-05
3.29604e-07
2.12018e-10
2.15622e-10
2.15622e-10
1.05743e-07
3.26009e-09
1.03477e-10
2.58782e-10
3.48364e-10
3.83635e-10
5.92591e-10
1.02527e-09
2.71376e-09
1.70165e-09
1.7235e-09
2.97214e-09
5.17316e-05
0.000191262
4.19386e-05
1.04182e-07
1.39289e-10
2.09696e-10
2.10359e-10
3.93842e-09
3.47145e-09
1.0262e-10
2.44964e-10
3.57227e-10
4.33802e-10
1.4333e-09
1.15942e-09
7.07116e-09
2.37869e-09
1.9519e-09
1.96558e-09
9.30874e-05
0.000191262
3.9162e-05
1.18494e-11
1.37712e-10
3.73465e-10
2.26894e-10
3.36047e-11
3.2882e-11
1.0164e-10
3.37974e-10
5.98682e-10
1.81431e-09
1.4907e-07
3.08923e-09
7.30254e-09
2.47166e-09
1.96558e-09
2.98457e-09
9.45419e-05
0.000187346
3.49755e-06
1.53138e-11
2.08401e-10
3.24696e-10
2.34062e-10
3.54839e-11
3.24517e-11
1.06218e-10
1.00577e-09
9.83263e-10
4.1806e-07
2.65254e-06
5.49722e-07
2.75609e-09
2.52793e-09
2.98457e-09
1.01479e-05
0.00011294
3.47831e-05
0
1.015e-11
3.78364e-12
4.83756e-12
3.78568e-12
7.08177e-12
2.76161e-11
7.44739e-11
1.46523e-09
3.054e-08
1.83708e-06
3.21531e-06
2.31061e-06
2.91399e-09
3.45355e-09
1.69783e-08
2.99811e-05
9.32515e-05
1.78352e-11
6.99627e-27
6.45729e-12
3.06473e-12
1.75501e-12
2.87467e-12
5.54442e-12
2.68468e-11
2.69447e-11
4.45835e-11
1.66505e-07
3.04915e-06
3.21531e-06
2.96618e-06
3.61608e-09
2.9893e-08
9.03082e-07
1.33104e-06
9.41726e-11
1.76665e-11
0
1.8707e-12
3.49052e-13
2.89293e-13
7.6e-13
4.77635e-12
2.67543e-11
2.68308e-11
4.12371e-11
2.23368e-07
2.64811e-06
3.21531e-06
3.02445e-06
8.51361e-09
6.54747e-08
2.34511e-07
1.31756e-07
1.53012e-10
4.4331e-10
0
3.14266e-13
7.33886e-14
9.44641e-14
6.63404e-13
7.41704e-12
2.90528e-11
2.86743e-11
3.32635e-11
1.98075e-07
6.51997e-07
3.20149e-06
3.1495e-06
2.15884e-06
4.089e-09
4.089e-09
4.089e-09
4.77432e-08
1.09674e-08
0
2.91458e-14
1.38305e-14
4.42456e-14
8.48271e-13
1.2284e-11
3.26086e-11
2.97441e-11
2.50079e-09
1.40661e-07
1.09783e-13
5.3861e-07
2.55685e-06
2.59432e-06
5.98819e-07
8.81695e-09
4.26314e-09
3.1241e-07
8.15229e-06
-1.11574e-11
1.86048e-15
3.23605e-15
3.54712e-14
1.12158e-12
1.49858e-11
3.34138e-11
3.30639e-11
1.34585e-11
1.09783e-13
5.73206e-14
1.09783e-13
2.04601e-11
9.65533e-07
1.61584e-06
7.47883e-07
1.62756e-08
5.98063e-09
3.95069e-05
0.000272159
1.59349e-16
1.61534e-15
3.29074e-14
1.15323e-12
1.39637e-11
3.33316e-11
3.34846e-11
1.78795e-11
6.25871e-13
5.49576e-14
1.27785e-11
1.76161e-11
4.06081e-11
9.66944e-07
1.02391e-06
1.14507e-07
5.7179e-09
3.59898e-05
0.000761549
2.9078e-17
1.13163e-15
2.61216e-14
7.83074e-13
7.41727e-12
2.51804e-11
2.87047e-11
1.82817e-11
3.24946e-12
2.34757e-14
3.42644e-10
9.76901e-10
6.84922e-10
4.98234e-10
6.12022e-08
5.89783e-08
5.6316e-09
8.85906e-11
9.79648e-05
1.44021e-17
6.174e-16
1.31386e-14
2.70678e-13
2.59337e-12
9.96316e-12
1.11218e-11
8.69325e-12
2.9123e-12
5.5794e-15
6.29234e-10
1.97404e-09
1.92459e-09
6.44509e-10
4.49185e-10
4.47837e-10
4.92493e-09
8.65632e-11
-4.37267e-28
5.59352e-18
2.90974e-16
5.75214e-15
8.7862e-14
7.29485e-13
2.40083e-12
2.67749e-12
2.18452e-12
8.58074e-13
8.46099e-16
6.46576e-10
1.98556e-09
2.02848e-09
1.6084e-09
4.80566e-10
4.46879e-10
2.69432e-09
7.65065e-10
9.36523e-12
1.83508e-18
1.01419e-16
2.2059e-15
2.44854e-14
1.4537e-13
4.44536e-13
4.87648e-13
3.91397e-13
1.45376e-13
1.51584e-16
2.78159e-10
8.76923e-10
1.59195e-09
1.60605e-09
7.50832e-10
4.49896e-10
5.27542e-10
2.68055e-10
1.17483e-11
5.08131e-19
2.75646e-17
4.30832e-16
3.19133e-15
1.6339e-14
5.67337e-14
6.796e-14
5.50316e-14
2.07446e-14
6.71054e-17
3.50919e-11
1.1882e-10
3.04594e-10
5.82845e-10
2.9103e-10
3.20769e-10
2.61998e-11
2.12705e-11
2.68275e-12
1.16528e-19
4.92987e-18
6.2241e-17
3.06045e-16
1.41149e-15
5.6594e-15
7.41267e-15
5.82238e-15
2.2636e-15
6.07788e-17
9.62953e-13
2.94706e-12
1.11321e-11
5.28723e-11
2.9653e-11
8.37289e-11
3.85513e-11
1.72305e-11
1.81169e-12
2.50341e-20
8.88843e-19
1.2591e-17
7.22277e-17
2.88701e-16
7.13444e-16
6.70974e-16
4.18316e-16
1.09518e-16
-5.21263e-35
-1.97254e-17
-2.15359e-17
-1.00262e-17
1.62103e-12
1.05834e-12
1.41731e-11
1.1352e-11
1.13612e-11
1.21331e-12
7.0123e-21
2.53501e-19
6.85495e-18
3.75987e-17
7.54524e-17
5.88756e-17
3.12765e-17
7.86672e-18
-2.11531e-18
-1.37316e-17
-1.68749e-17
-1.37111e-17
-8.63384e-18
-4.55333e-18
-2.10951e-18
1.51008e-12
5.02319e-13
4.15863e-12
5.27579e-13
3.10901e-21
9.32871e-20
4.03309e-18
1.37947e-17
1.05308e-17
4.23747e-18
-7.56054e-22
-1.36446e-18
-6.38903e-18
-1.00078e-17
-9.2644e-18
-6.28121e-18
-3.43143e-18
-1.61034e-18
-6.68071e-19
5.0361e-14
1.43349e-14
1.25399e-12
9.91459e-14
1.36533e-21
2.57655e-20
1.37219e-18
1.29358e-18
6.72837e-19
-1.25181e-19
-9.76712e-19
-1.56068e-18
-3.96845e-18
-4.83374e-18
-3.6231e-18
-2.03811e-18
-9.46699e-19
-3.85893e-19
-1.39887e-19
-3.53637e-20
-5.53613e-21
2.1789e-13
1.30922e-14
3.81379e-22
4.10368e-21
6.29468e-20
5.54352e-20
1.70395e-20
-4.24327e-19
-6.25033e-19
-7.6368e-19
-1.67583e-18
-1.59279e-18
-9.27039e-19
-4.12385e-19
-1.55339e-19
-5.26798e-20
-1.60793e-20
-3.55638e-21
-4.92386e-22
1.99392e-14
9.64283e-16
5.38214e-23
3.09322e-22
1.34996e-21
8.44469e-22
1.5707e-22
-1.87656e-19
-1.9197e-19
-2.10819e-19
-4.42394e-19
-3.0716e-19
-1.26366e-19
-3.96065e-20
-1.05479e-20
-2.55594e-21
-5.61504e-22
-9.43873e-23
-1.0187e-23
7.92852e-16
2.74128e-17
1.54032e-24
2.56046e-24
1.68478e-24
6.57209e-25
5.6356e-26
-3.91654e-20
-2.16096e-20
-2.26313e-20
-5.53343e-20
-2.48322e-20
-5.99482e-21
-1.04598e-21
-1.46443e-22
-1.75283e-23
-1.81448e-24
-1.59808e-25
-1.35924e-26
-1.00121e-27
-2.09054e-29
)
;

boundaryField
{
    leftWall
    {
        type            zeroGradient;
    }
    rightWall
    {
        type            zeroGradient;
    }
    lowerWall
    {
        type            zeroGradient;
    }
    atmosphere
    {
        type            inletOutlet;
        inletValue      uniform 0;
        value           nonuniform List<scalar> 
46
(
6.9421e-25
5.4305e-23
1.32567e-22
1.81032e-22
1.81032e-22
3.25802e-22
1.6292e-21
5.30762e-21
8.11687e-21
2.62423e-21
4.81911e-22
5.97954e-23
6.28567e-24
3.20927e-25
-7.20271e-25
-3.43393e-24
-2.84493e-24
-1.3832e-24
-4.51059e-25
-1.01495e-25
-1.52787e-26
-1.07587e-27
0
0
0
0
0
0
0
0
0
0
0
0
0
0
0
0
0
0
0
0
0
0
0
0
)
;
    }
    defaultFaces
    {
        type            empty;
    }
}


// ************************************************************************* //
