/*--------------------------------*- C++ -*----------------------------------*\
| =========                 |                                                 |
| \\      /  F ield         | OpenFOAM: The Open Source CFD Toolbox           |
|  \\    /   O peration     | Version:  5.x                                   |
|   \\  /    A nd           | Web:      www.OpenFOAM.org                      |
|    \\/     M anipulation  |                                                 |
\*---------------------------------------------------------------------------*/
FoamFile
{
    version     2.0;
    format      ascii;
    class       volScalarField;
    location    "0.95";
    object      p;
}
// * * * * * * * * * * * * * * * * * * * * * * * * * * * * * * * * * * * * * //

dimensions      [1 -1 -2 0 0 0 0];

internalField   nonuniform List<scalar> 
2268
(
894.391
887.698
879.126
869.564
861.937
858.018
856.558
856.844
862.946
873.24
883.962
892.057
896.522
897.367
894.804
893.77
897.95
911.381
932.188
953.309
968.238
975.713
973.865
836.782
829.655
820.369
809.619
801.666
798.14
796.783
796.899
803.183
814.079
825.366
833.614
837.912
839.262
838.631
837.01
836.826
847.188
871.675
894.327
908.627
914.908
913.479
780.376
773.091
762.107
748.667
739.868
737.062
736.035
735.768
742.256
754.25
766.734
775.688
779.89
781.266
782.085
779.044
776.011
787.643
813.434
836.058
849.798
854.513
852.224
724.817
716.916
703.838
687.184
676.508
674.829
674.396
673.393
680.195
694.051
708.537
718.53
722.318
722.086
721.515
718.696
717.023
730.645
756.34
778.784
791.851
794.871
790.42
670.224
661.098
645.579
625.821
613.258
612.24
611.862
609.371
616.656
633.503
651.015
662.386
665.5
662.746
659.213
656.595
658.747
674.092
699.554
722.714
735.204
735.719
727.741
616.719
606.194
587.422
565.36
551.597
549.973
547.474
543.174
550.833
572.463
594.436
607.637
609.76
603.555
596.173
592.759
596.972
614.975
642.536
668.296
679.522
676.071
663.076
561.763
551.542
529.576
505.893
492.217
488.703
480.352
472.088
481.302
510.566
539.114
554.788
555.458
544.064
531.285
526.057
531.212
553.7
586.22
616.475
626.451
616.694
596.894
512.095
495.922
470.929
446.882
435.227
428.808
408.864
393.391
405.964
447.938
487.011
506.345
505.147
487.145
465.214
457.547
463.17
491.251
531.796
572.359
585.559
563.084
528.787
712.809
675.278
699.743
659.162
560.633
489.968
457.081
420.409
358.447
293.238
261.275
283.537
318.834
368.495
392.877
370.988
374.624
415.397
404.444
657.762
612.918
640.976
597.111
495.562
432.759
396.711
353.727
297.379
255.915
240.153
246.326
272.149
323.352
342.409
314.823
317.05
359.422
338.979
601.919
563.138
577.296
515.665
410.925
368.32
341.124
294.534
231.243
217.852
227.361
230.563
241.102
282.439
294.569
266.501
265.528
284.763
261.328
544.582
518.953
510.196
429.036
330.896
309.517
300.919
245.693
181.402
188.674
214.199
219.719
223.791
247.408
250.534
223.251
216.668
201.673
174.514
488.695
474.023
452.173
368.837
285.213
269.315
265.668
200.506
161.187
179.623
206.074
212.418
213.393
215.219
210.152
182.885
165.43
129.108
134.711
439.347
429.493
407.607
327.173
252.081
244.268
250.156
182.776
147.75
176.145
202.654
208.792
209.265
196.216
174.212
146.349
114.484
87.5277
124.634
404.282
386.491
367.745
288.105
231.258
233.952
237.366
168.731
146.038
173.319
199.818
206.737
198.656
165.008
137.836
110.228
66.0945
48.5994
97.6102
368.87
346.263
327.486
254.428
218.086
221.553
219.344
163.744
147.776
169.16
191.483
182.911
153.095
121.755
100.557
66.6284
30.3375
19.6189
54.8386
438.076
411.947
382.165
362.274
354.611
340.556
299.582
259.162
276.428
345.583
404.299
428.155
422.663
389.076
351.159
329.07
347.241
388.205
450.9
520.608
535.676
478.353
405.867
299.485
219.885
218.983
224.773
242.378
243.461
92.5277
33.6522
91.5601
232.106
385.653
435.193
388.717
297.566
237.764
204.872
228.116
267.203
313.8
369.866
385.747
326.246
245.945
183.873
20.1369
100.355
94.5535
131.688
245.177
111.504
34.0663
18.8085
41.936
139.593
216.804
242.851
228.543
204.897
188.302
188.909
210.023
241.581
264.307
250.318
165.806
91.6347
236.925
70.5705
72.3574
51.5447
36.5858
54.0588
35.0941
18.6769
15.8031
18.2535
22.6368
36.7779
100.901
154.368
156.276
163.679
170.251
187.256
212.916
208.471
140.319
54.9199
3.07743
232.655
48.0398
42.6273
37.6342
31.6214
27.8842
15.5484
11.5614
12.8504
14.0434
15.0327
16.4738
25.8656
51.6419
71.6861
96.9677
129.177
151.595
154.336
128.725
66.1004
21.9047
17.7153
96.4615
55.9199
39.3749
32.5596
34.9398
28.6561
15.4644
10.7249
12.0261
13.3456
14.1735
14.1709
11.4071
12.6758
15.7663
6.19943
16.8956
39.5083
48.7301
33.7654
10.2369
12.3712
38.8048
127.879
98.0966
54.8019
20.5844
30.0622
33.9626
22.2348
13.9991
12.6878
13.4451
13.9627
13.3707
6.00358
2.70665
1.5499
0.374613
1.03965
1.2114
1.59554
0.0995342
-7.19412
4.76801
30.2754
251.675
122.818
64.3834
25.5984
36.0075
45.0096
31.4165
21.1091
15.0557
10.7173
7.89844
7.44346
1.4715
1.02063
0.654493
0.227963
0.107018
-0.0320763
-0.415613
-0.969214
-2.59773
-1.24822
22.6918
189.299
80.81
36.2152
13.6376
13.1445
19.7879
19.9812
14.2781
7.76154
-2.28753
-4.58005
-2.69484
-1.33173
-0.565751
-0.605675
-0.750772
-0.827256
-1.0085
-1.33981
-1.68444
-2.16723
-0.274476
9.45439
78.8617
25.8656
10.2291
0.515639
-2.53145
-3.20415
-3.98654
-4.90434
-4.97463
-4.64491
-4.28197
-4.00923
-2.82626
-1.96076
-1.83499
-1.82882
-1.86514
-1.94593
-2.07355
-2.15879
-2.19119
-2.34964
1.78559
28.4718
1.47855
-1.15441
-3.52583
-4.48096
-4.907
-5.21705
-5.53737
-5.70077
-5.42123
-4.79665
-4.38354
-3.82517
-3.35816
-3.1472
-2.9534
-2.80364
-2.67777
-2.58293
-2.50189
-2.34715
-2.12243
-1.87243
30.562
-2.77543
-4.66524
-5.3586
-5.42024
-5.46363
-5.53228
-5.66325
-5.77
-5.69132
-5.39316
-5.01096
-4.56185
-4.15045
-3.81053
-3.52265
-3.28353
-3.08035
-2.92654
-2.80463
-2.61883
-2.41278
-2.30058
16.9716
-6.19474
-5.85321
-6.14258
-6.06107
-6.01582
-6.00512
-6.04189
-6.03049
-5.89457
-5.63543
-5.29193
-4.90048
-4.50623
-4.14819
-3.84764
-3.59464
-3.37593
-3.19711
-3.0575
-2.91121
-2.72408
-2.56457
-7.78967
-8.57847
-6.48335
-6.73933
-6.51443
-6.44249
-6.38032
-6.36258
-6.27883
-6.08609
-5.79606
-5.4452
-5.07701
-4.72307
-4.39882
-4.11072
-3.85621
-3.63159
-3.43864
-3.28016
-3.15102
-3.02478
-2.882
-9.12069
-8.10812
-6.9735
-7.2058
-6.85323
-6.78698
-6.67341
-6.62074
-6.50341
-6.29831
-6.00882
-5.67658
-5.32459
-4.97907
-4.65551
-4.36001
-4.09413
-3.85778
-3.65243
-3.47866
-3.33389
-3.21827
-3.10643
-8.11208
-7.60655
-7.27228
-7.47509
-7.11783
-7.1031
-6.99312
-6.98381
-6.9293
-6.78409
-6.50359
-6.13083
-5.71212
-5.30369
-4.93343
-4.6043
-4.31356
-4.05872
-3.83904
-3.65292
-3.49718
-3.36722
-3.25524
-8.38449
-8.0051
-7.5184
-7.68498
-7.40513
-7.46463
-7.45415
-7.61504
-7.74413
-7.71314
-7.41632
-6.90728
-6.29812
-5.72599
-5.24264
-4.84461
-4.5135
-4.23435
-4.00034
-3.80355
-3.63965
-3.50275
-3.38608
-8.92513
-8.33957
-7.93195
-7.99672
-7.79056
-7.93477
-8.12713
-8.59918
-9.066
-9.23542
-8.88042
-8.08097
-7.10488
-6.24546
-5.57533
-5.06996
-4.68572
-4.37847
-4.13436
-3.92964
-3.76162
-3.62172
-3.50305
-3.49959
-7.54796
-8.03855
-8.29766
-8.19441
-8.45351
-8.8981
-9.75326
-10.666
-11.0893
-10.7031
-9.52454
-8.00679
-6.75471
-5.87451
-5.24779
-4.81516
-4.48626
-4.2314
-4.02704
-3.86082
-3.72311
-3.60628
27.2187
-6.45086
-8.1554
-8.44269
-8.48282
-8.83694
-9.46237
-10.6074
-11.8091
-12.3888
-12.0249
-10.6558
-8.70172
-7.08299
-6.06308
-5.34545
-4.87417
-4.54136
-4.29107
-4.0949
-3.93687
-3.80624
-3.69542
31.3762
-8.92002
-7.61855
-8.48077
-8.66849
-8.95526
-9.5778
-10.7687
-12.0629
-12.7248
-12.3975
-11.044
-8.91543
-7.1461
-6.02552
-5.31223
-4.85358
-4.54157
-4.31237
-4.1346
-3.99167
-3.87307
-3.77186
4.93384
-4.16204
-5.57097
-7.77525
-8.47495
-8.77332
-9.26927
-10.2385
-11.3682
-12.0149
-11.7666
-10.4924
-8.4933
-6.82654
-5.77997
-5.15108
-4.75732
-4.49343
-4.30112
-4.15139
-4.02968
-3.92733
-3.8388
-0.284799
-1.64517
-3.41545
-6.21978
-7.43408
-7.93865
-8.57185
-9.34877
-10.1528
-10.5912
-10.2962
-9.15822
-7.53257
-6.18816
-5.36245
-4.89523
-4.60946
-4.41483
-4.27
-4.15428
-4.05748
-3.9739
-3.89992
-1.30711
-1.25849
-1.91184
-4.07476
-5.72606
-6.64455
-7.33357
-8.05324
-8.63132
-8.7873
-8.3476
-7.42382
-6.28593
-5.39876
-4.89335
-4.62077
-4.45349
-4.33206
-4.23567
-4.15419
-4.08251
-4.01799
-3.95893
-1.42508
-1.27121
-1.50015
-2.31669
-3.57883
-4.8775
-5.89645
-6.631
-7.02021
-6.9731
-6.5
-5.81915
-5.18369
-4.75656
-4.53339
-4.41301
-4.33377
-4.2697
-4.21318
-4.16089
-4.11139
-4.06421
-4.01905
-1.76325
-1.66157
-1.69571
-2.11841
-3.05845
-4.16849
-5.11261
-5.65584
-5.83053
-5.65918
-5.2465
-4.84197
-4.5636
-4.40262
-4.33219
-4.29509
-4.26694
-4.23953
-4.21091
-4.18053
-4.14865
-4.1159
-4.08277
-2.18924
-2.14793
-2.22356
-2.56736
-3.25579
-4.13151
-4.89169
-5.28343
-5.3098
-5.0746
-4.72512
-4.46416
-4.3332
-4.28055
-4.25716
-4.25291
-4.2496
-4.24248
-4.23105
-4.21552
-4.19655
-4.175
-4.15163
-2.60274
-2.61195
-2.72539
-3.01851
-3.52563
-4.15858
-4.71422
-5.00499
-5.00067
-4.80891
-4.56266
-4.38279
-4.29529
-4.26513
-4.26027
-4.26491
-4.27104
-4.27376
-4.27191
-4.26565
-4.2555
-4.24217
-4.22635
-2.99219
-3.02671
-3.14833
-3.38454
-3.74078
-4.16413
-4.53542
-4.74216
-4.75704
-4.64828
-4.50501
-4.39407
-4.3339
-4.31047
-4.30725
-4.31277
-4.32083
-4.32717
-4.33007
-4.3292
-4.32476
-4.31719
-4.307
-3.34092
-3.38082
-3.48964
-3.67266
-3.91931
-4.19278
-4.43096
-4.57632
-4.61155
-4.56963
-4.49909
-4.4371
-4.39846
-4.38129
-4.3783
-4.38288
-4.39005
-4.39707
-4.40194
-4.40396
-4.40303
-4.39936
-4.39322
-3.64428
-3.68006
-3.76827
-3.90661
-4.08101
-4.2648
-4.4232
-4.52764
-4.56878
-4.56155
-4.53099
-4.4987
-4.47597
-4.46475
-4.46261
-4.46616
-4.47227
-4.47884
-4.48429
-4.48774
-4.48888
-4.48774
-4.48446
-3.90823
-3.93743
-4.00551
-4.10794
-4.23268
-4.36124
-4.47258
-4.55037
-4.58972
-4.59788
-4.58832
-4.57375
-4.56196
-4.55578
-4.55502
-4.55815
-4.56341
-4.56924
-4.57461
-4.57863
-4.58092
-4.58139
-4.58007
-4.14086
-4.16375
-4.21513
-4.28997
-4.3793
-4.47058
-4.55082
-4.6103
-4.64585
-4.66088
-4.66268
-4.65875
-4.65438
-4.65224
-4.65298
-4.65614
-4.66081
-4.66602
-4.67098
-4.67511
-4.67798
-4.67941
-4.67941
-4.34955
-4.36702
-4.40524
-4.45969
-4.52397
-4.58955
-4.64828
-4.69422
-4.72506
-4.74229
-4.7498
-4.75199
-4.7524
-4.75317
-4.75519
-4.75854
-4.76282
-4.76748
-4.772
-4.77599
-4.77906
-4.78104
-4.78188
-4.54027
-4.55329
-4.58139
-4.621
-4.66755
-4.71521
-4.75872
-4.79428
-4.82022
-4.83707
-4.84688
-4.85223
-4.85542
-4.85804
-4.86095
-4.86444
-4.86841
-4.8726
-4.87667
-4.88035
-4.88339
-4.88562
-4.88696
-4.71768
-4.72718
-4.74767
-4.77649
-4.81029
-4.84511
-4.87751
-4.90499
-4.92631
-4.94152
-4.95168
-4.9583
-4.96282
-4.96641
-4.96977
-4.97325
-4.97689
-4.98061
-4.98421
-4.98751
-4.99036
-4.99263
-4.99422
-4.88537
-4.89217
-4.90701
-4.9279
-4.95241
-4.97782
-5.00188
-5.02294
-5.04004
-5.05303
-5.06244
-5.06911
-5.07399
-5.07785
-5.08126
-5.08453
-5.08777
-5.09099
-5.09409
-5.09695
-5.09952
-5.10169
-5.10338
-5.0461
-5.05084
-5.06146
-5.07645
-5.09403
-5.11238
-5.13004
-5.14587
-5.15917
-5.16972
-5.17776
-5.18377
-5.18832
-5.19195
-5.19507
-5.19794
-5.2007
-5.20339
-5.20596
-5.20837
-5.21054
-5.21254
-5.21422
-5.20195
-5.20511
-5.21252
-5.22302
-5.2353
-5.24819
-5.26076
-5.27223
-5.28211
-5.29019
-5.29655
-5.30145
-5.30525
-5.3083
-5.31089
-5.31323
-5.31542
-5.31754
-5.31957
-5.32147
-5.32316
-5.32498
-5.32657
-5.35457
-5.35647
-5.36137
-5.36831
-5.37638
-5.38489
-5.39326
-5.401
-5.40778
-5.41343
-5.41795
-5.42151
-5.42431
-5.42656
-5.42846
-5.43016
-5.43175
-5.43328
-5.43476
-5.43622
-5.43772
-5.43894
-5.44028
-5.505
-5.50587
-5.50872
-5.51271
-5.51727
-5.52208
-5.52685
-5.5313
-5.53523
-5.53854
-5.54122
-5.54335
-5.54503
-5.54639
-5.54754
-5.54856
-5.54952
-5.55045
-5.55136
-5.55229
-5.55324
-5.55402
-5.55499
-5.65507
-5.65521
-5.65602
-5.65725
-5.65869
-5.6602
-5.66167
-5.66304
-5.66424
-5.66524
-5.66604
-5.66667
-5.66715
-5.66754
-5.66787
-5.66816
-5.66845
-5.66873
-5.66901
-5.66927
-5.66949
-5.66978
-5.67034
368.12
352.157
341.575
333.112
221.955
215.232
212.703
215.545
77.3243
78.3321
87.7615
106.492
-3.63967
3.78766
20.4522
42.2308
41.5291
48.5942
47.2638
46.7507
44.2219
44.4784
43.7148
42.498
40.4725
41.7618
42.7913
42.2966
35.4336
39.7304
41.3137
40.4424
27.0432
29.43
15.5945
25.3379
34.4366
40.0716
49.7563
51.2335
-2.10149
-2.01988
0.187158
7.20635
-2.24448
-2.2018
-2.17251
-2.22079
-2.4584
-2.39965
-2.36724
-2.34176
-2.75681
-2.68551
-2.62181
-2.56352
-3.01806
-2.96336
-2.90507
-2.83684
-3.18746
-3.14331
-3.09643
-3.04467
-3.3104
-3.2635
-3.21806
-3.1742
-3.42651
-3.37963
-3.33454
-3.29096
-3.53123
-3.48566
-3.44231
-3.4009
-3.62434
-3.58128
-3.54052
-3.50184
-3.70672
-3.66726
-3.62991
-3.59453
-3.7813
-3.74635
-3.71316
-3.68165
-3.85113
-3.82131
-3.79276
-3.76552
-3.91909
-3.89452
-3.87075
-3.84785
-3.98767
-3.96808
-3.94885
-3.93011
-4.05883
-4.04367
-4.02855
-4.0136
-4.13393
-4.12252
-4.11094
-4.09929
-4.21367
-4.20531
-4.19665
-4.18779
-4.2982
-4.29226
-4.28596
-4.27938
-4.38737
-4.38328
-4.37883
-4.37407
-4.48079
-4.47811
-4.47508
-4.47174
-4.57798
-4.57634
-4.57439
-4.57214
-4.67845
-4.67757
-4.67641
-4.67499
-4.7817
-4.78135
-4.78077
-4.77997
-4.8873
-4.88732
-4.88716
-4.8868
-4.9949
-4.99518
-4.99531
-4.9953
-5.10427
-5.10473
-5.10508
-5.10532
-5.21523
-5.21581
-5.21631
-5.21675
-5.32763
-5.32828
-5.3289
-5.32948
-5.4413
-5.44196
-5.44262
-5.44328
-5.55587
-5.55648
-5.55714
-5.55785
-5.67113
-5.67173
-5.67242
-5.67317
315.045
287.224
261.858
211.209
199.348
196.874
193.64
169.749
145.537
126.387
123.405
73.3496
62.0676
55.9377
50.7009
30.8012
18.1264
16.9596
21.9292
227.223
197.423
170.016
164.6
173.262
171.658
167.554
164.019
115.451
21.0964
20.2863
23.4931
23.2452
20.6188
18.1504
17.5841
17.4755
16.3756
16.0065
140
112.387
113.651
140.639
155.323
150.258
135.592
133.753
92.3102
-4.17588
15.4107
21.9323
22.7458
20.1157
17.2533
16.5356
16.8784
15.1861
15.3838
70.8708
73.1146
94.5447
123.279
135.461
128.448
113.178
121.014
116.287
61.7538
29.9829
19.0161
17.8426
17.4769
15.4801
14.9932
14.4915
13.9376
14.6692
46.8565
57.8551
79.4035
98.7768
95.5817
75.2592
69.6732
92.0493
113.116
77.4772
38.7444
14.6483
4.81356
10.6655
12.3621
13.0183
12.1521
12.0128
12.4987
41.4073
46.3724
57.2291
66.4953
60.2048
51.256
51.2099
67.6735
78.2352
53.8332
24.8046
6.50814
10.5513
2.73224
8.92496
11.2148
11.1459
11.1669
11.4875
39.8485
36.4624
37.9082
43.4089
45.9953
44.9743
44.6806
44.3902
43.2283
28.8408
13.1864
3.16808
-0.544277
-2.4014
7.28087
10.3458
10.8318
10.9308
11.2024
38.1289
32.9661
30.6719
34.1821
39.7
37.853
29.4005
23.814
17.734
6.47772
-0.63756
-0.441243
-0.263913
1.09956
8.54905
10.6032
10.8262
10.8202
11.3104
33.678
31.6733
30.3418
28.0737
26.7132
25.9201
18.7864
16.1238
1.90422
-1.17003
-0.848217
-0.659669
-0.531674
0.227935
6.54745
10.265
10.4952
10.3755
10.8768
32.4249
24.9868
23.2593
21.7869
17.4883
14.4056
7.49509
-0.92106
-1.40004
-1.31634
-1.14618
-0.966607
-0.93289
-0.819932
-0.385415
2.89952
5.39196
7.7584
8.99884
12.5588
17.1708
17.8377
10.0986
3.10051
-1.57483
-2.1146
-1.59417
-1.59369
-1.50782
-1.40577
-1.32576
-1.41143
-1.54089
-1.77743
-1.81126
-2.77243
-0.544212
4.24623
-2.11087
-0.785301
-1.83952
-2.19439
-2.12391
-2.04409
-2.06436
-1.86705
-1.77799
-1.70748
-1.64686
-1.64113
-1.78343
-2.11033
-2.51415
-3.69457
-6.52944
-9.15895
-1.58887
-2.30488
-2.36247
-2.38105
-2.32003
-2.2646
-2.19391
-2.13586
-2.03598
-1.959
-1.89627
-1.85255
-1.86354
-1.99702
-2.32384
-2.97007
-4.38938
-6.86391
-8.00952
-3.41403
-2.49954
-2.54228
-2.52084
-2.44548
-2.38819
-2.32612
-2.26716
-2.19499
-2.12992
-2.07821
-2.0444
-2.04664
-2.12732
-2.31401
-2.75848
-3.72863
-4.63989
-4.19506
-2.41534
-2.73208
-2.69432
-2.66278
-2.58555
-2.52345
-2.4626
-2.40434
-2.34522
-2.29264
-2.25117
-2.22521
-2.22342
-2.26488
-2.35088
-2.50724
-2.73423
-2.60939
-2.06471
-1.58001
-2.94968
-2.84706
-2.80644
-2.72162
-2.65704
-2.59742
-2.54347
-2.49304
-2.44838
-2.41252
-2.38802
-2.37993
-2.40117
-2.4476
-2.48839
-2.47999
-2.34084
-1.98187
-1.6963
-3.09831
-2.99594
-2.93252
-2.85603
-2.78996
-2.7337
-2.68359
-2.63826
-2.59855
-2.56575
-2.54055
-2.52504
-2.5244
-2.53365
-2.5328
-2.49558
-2.40658
-2.25736
-2.17011
-3.22038
-3.12944
-3.05548
-2.98526
-2.92272
-2.86924
-2.82223
-2.78048
-2.7441
-2.7133
-2.68798
-2.66894
-2.6573
-2.64885
-2.63121
-2.59885
-2.53631
-2.42203
-2.34796
-3.33462
-3.25065
-3.17695
-3.11114
-3.05277
-3.00213
-2.95782
-2.91894
-2.88526
-2.85669
-2.83323
-2.8149
-2.79946
-2.78349
-2.75735
-2.72594
-2.68158
-2.6156
-2.56917
-3.44021
-3.36287
-3.29384
-3.23259
-3.1784
-3.13088
-3.08931
-3.05319
-3.02214
-2.99647
-2.97703
-2.96349
-2.95093
-2.93271
-2.90223
-2.87254
-2.83039
-2.78756
-2.75944
-3.53829
-3.46792
-3.40504
-3.34906
-3.29932
-3.25528
-3.21663
-3.18319
-3.15469
-3.1322
-3.1177
-3.11112
-3.10521
-3.08953
-3.0584
-3.01869
-2.97674
-2.94767
-2.9264
-3.63146
-3.56846
-3.51204
-3.46149
-3.41628
-3.37584
-3.3402
-3.30934
-3.2831
-3.26311
-3.25235
-3.25147
-3.25265
-3.24099
-3.20855
-3.16091
-3.11889
-3.09405
-3.0784
-3.72187
-3.66645
-3.61644
-3.57122
-3.53039
-3.4936
-3.46099
-3.43263
-3.40822
-3.38912
-3.3787
-3.37875
-3.38294
-3.37449
-3.34223
-3.2934
-3.25319
-3.23009
-3.2217
-3.81083
-3.763
-3.71928
-3.67929
-3.64282
-3.60968
-3.58015
-3.55437
-3.53151
-3.51174
-3.49784
-3.49248
-3.49183
-3.48182
-3.45377
-3.41761
-3.38815
-3.36656
-3.36106
-3.89946
-3.85898
-3.82138
-3.78654
-3.75442
-3.725
-3.69866
-3.67565
-3.65446
-3.63368
-3.61502
-3.601
-3.5902
-3.57643
-3.55747
-3.53824
-3.51982
-3.50422
-3.49825
-3.98881
-3.95523
-3.92345
-3.89359
-3.86575
-3.84006
-3.8169
-3.7967
-3.77752
-3.75674
-3.73538
-3.71567
-3.69811
-3.68338
-3.67366
-3.66672
-3.65511
-3.64146
-3.63054
-4.07969
-4.05237
-4.02599
-4.00081
-3.97705
-3.95493
-3.93478
-3.91705
-3.89998
-3.88049
-3.85933
-3.83891
-3.82067
-3.80763
-3.80196
-3.8005
-3.79363
-3.78504
-3.75861
-4.17262
-4.15082
-4.12929
-4.10839
-4.08839
-4.06953
-4.0521
-4.03631
-4.02107
-4.00367
-3.98461
-3.9666
-3.95091
-3.94039
-3.93533
-3.93752
-3.93398
-3.9482
-3.89983
-4.26789
-4.25081
-4.23353
-4.21643
-4.19979
-4.18383
-4.16875
-4.15464
-4.14078
-4.12569
-4.10965
-4.09486
-4.08224
-4.07428
-4.06971
-4.07353
-4.07409
-4.10469
-4.07246
-4.36557
-4.35245
-4.3388
-4.32499
-4.31129
-4.29786
-4.28485
-4.27228
-4.2598
-4.24684
-4.23377
-4.22198
-4.21216
-4.20587
-4.20181
-4.20414
-4.20558
-4.22374
-4.22812
-4.46562
-4.45576
-4.44516
-4.43414
-4.42295
-4.41173
-4.4006
-4.38958
-4.37861
-4.36763
-4.35699
-4.34761
-4.33988
-4.33456
-4.3308
-4.33038
-4.33006
-4.33301
-4.33406
-4.56789
-4.56065
-4.55256
-4.5439
-4.53485
-4.52558
-4.5162
-4.5068
-4.49746
-4.48831
-4.47966
-4.47208
-4.46576
-4.46112
-4.45762
-4.45551
-4.45399
-4.45197
-4.44984
-4.67217
-4.66702
-4.66098
-4.65428
-4.64709
-4.63958
-4.63186
-4.62409
-4.61641
-4.60895
-4.60194
-4.59577
-4.59051
-4.58647
-4.58327
-4.58074
-4.57901
-4.57655
-4.57468
-4.77824
-4.77472
-4.77036
-4.76533
-4.75979
-4.75389
-4.74777
-4.74158
-4.73546
-4.7295
-4.72388
-4.71889
-4.71455
-4.71112
-4.70828
-4.70591
-4.70432
-4.70235
-4.70126
-4.88589
-4.88369
-4.88072
-4.87714
-4.87309
-4.86868
-4.86405
-4.85932
-4.85458
-4.84993
-4.84551
-4.84155
-4.83807
-4.83525
-4.83283
-4.83082
-4.82943
-4.82795
-4.82732
-4.99502
-4.99388
-4.9921
-4.98981
-4.9871
-4.98405
-4.98075
-4.97729
-4.97376
-4.97025
-4.96692
-4.9639
-4.96122
-4.959
-4.95703
-4.95547
-4.95429
-4.95322
-4.95279
-5.10553
-5.10528
-5.10453
-5.10337
-5.10183
-5.09995
-5.09781
-5.09547
-5.09303
-5.09058
-5.08823
-5.08608
-5.08415
-5.0825
-5.08103
-5.07988
-5.07893
-5.07821
-5.07789
-5.21736
-5.21783
-5.21796
-5.21775
-5.2172
-5.21633
-5.21521
-5.21389
-5.21245
-5.21097
-5.20953
-5.20817
-5.20693
-5.20583
-5.20484
-5.20408
-5.2034
-5.20296
-5.20272
-5.33038
-5.33142
-5.33225
-5.33283
-5.33313
-5.33315
-5.33294
-5.33256
-5.33204
-5.33145
-5.33082
-5.33018
-5.32957
-5.32901
-5.32848
-5.32807
-5.32768
-5.32745
-5.32727
-5.44436
-5.44586
-5.44728
-5.44854
-5.44959
-5.45042
-5.45106
-5.45153
-5.45185
-5.45205
-5.45216
-5.45219
-5.45216
-5.4521
-5.45202
-5.45194
-5.45181
-5.45177
-5.45164
-5.5591
-5.56099
-5.56295
-5.56483
-5.56658
-5.56817
-5.56959
-5.57084
-5.57194
-5.57288
-5.57367
-5.57433
-5.57487
-5.5753
-5.57563
-5.57588
-5.57602
-5.57613
-5.57603
-5.67454
-5.67674
-5.67912
-5.68154
-5.6839
-5.68616
-5.6883
-5.6903
-5.69214
-5.6938
-5.69528
-5.69655
-5.69764
-5.69856
-5.69931
-5.6999
-5.70031
-5.70059
-5.70038
)
;

boundaryField
{
    leftWall
    {
        type            calculated;
        value           nonuniform List<scalar> 
50
(
894.391
836.782
780.376
724.817
670.224
616.719
561.763
512.095
438.076
299.485
183.873
236.925
232.655
96.4615
127.879
251.675
189.299
78.8617
28.4718
30.562
16.9716
-7.78967
-9.12069
-8.11208
-8.38449
-8.92513
-3.49959
27.2187
31.3762
4.93384
-0.284799
-1.30711
-1.42508
-1.76325
-2.18924
-2.60274
-2.99219
-3.34092
-3.64428
-3.90823
-4.14086
-4.34955
-4.54027
-4.71768
-4.88537
-5.0461
-5.20195
-5.35457
-5.505
-5.65507
)
;
    }
    rightWall
    {
        type            calculated;
        value           nonuniform List<scalar> 
50
(
404.444
338.979
261.328
174.514
134.711
124.634
97.6102
54.8386
21.9292
16.0065
15.3838
14.6692
12.4987
11.4875
11.2024
11.3104
10.8768
8.99884
4.24623
-1.58887
-3.41403
-2.41534
-1.58001
-1.6963
-2.17011
-2.34796
-2.56917
-2.75944
-2.9264
-3.0784
-3.2217
-3.36106
-3.49825
-3.63054
-3.75861
-3.89983
-4.07246
-4.22812
-4.33406
-4.44984
-4.57468
-4.70126
-4.82732
-4.95279
-5.07789
-5.20272
-5.32727
-5.45164
-5.57603
-5.70038
)
;
    }
    lowerWall
    {
        type            calculated;
        value           nonuniform List<scalar> 
62
(
923.82
917.127
908.556
898.993
891.367
887.448
885.987
886.273
892.376
902.669
913.392
921.486
925.951
926.796
924.146
922.031
925.209
940.81
961.436
982.361
997.475
1005.13
1003.29
973.865
913.479
852.224
790.42
727.741
663.076
596.894
528.787
430.105
414.667
404.172
395.709
712.809
657.762
601.919
544.582
488.695
439.347
404.282
368.87
741.824
704.507
725.786
684.02
586.047
517.645
486.494
449.838
386.782
307.932
274.11
303.21
342.61
393.253
422.224
398.968
392.412
432.819
429.136
)
;
    }
    atmosphere
    {
        type            calculated;
        value           nonuniform List<scalar> 
46
(
-5.72904
-5.72904
-5.72904
-5.72904
-5.72904
-5.72904
-5.72904
-5.72904
-5.72904
-5.72904
-5.72904
-5.72904
-5.72904
-5.72904
-5.72904
-5.72904
-5.72904
-5.72904
-5.72904
-5.72904
-5.72904
-5.72904
-5.72923
-5.72965
-5.73006
-5.73058
-5.73123
-5.73256
-5.73483
-5.73737
-5.73999
-5.7426
-5.74517
-5.74765
-5.75002
-5.75224
-5.75427
-5.75608
-5.75767
-5.75904
-5.7602
-5.76117
-5.76197
-5.76253
-5.76295
-5.76247
)
;
    }
    defaultFaces
    {
        type            empty;
    }
}


// ************************************************************************* //
