/*--------------------------------*- C++ -*----------------------------------*\
| =========                 |                                                 |
| \\      /  F ield         | OpenFOAM: The Open Source CFD Toolbox           |
|  \\    /   O peration     | Version:  5.x                                   |
|   \\  /    A nd           | Web:      www.OpenFOAM.org                      |
|    \\/     M anipulation  |                                                 |
\*---------------------------------------------------------------------------*/
FoamFile
{
    version     2.0;
    format      ascii;
    class       volScalarField;
    location    "0.95";
    object      p_rgh;
}
// * * * * * * * * * * * * * * * * * * * * * * * * * * * * * * * * * * * * * //

dimensions      [1 -1 -2 0 0 0 0];

internalField   nonuniform List<scalar> 
2268
(
923.82
917.127
908.556
898.993
891.367
887.448
885.987
886.273
892.376
902.669
913.392
921.486
925.951
926.796
924.146
922.031
925.209
940.81
961.436
982.361
997.475
1005.13
1003.29
925.07
917.944
908.657
897.907
889.954
886.428
885.071
885.187
891.471
902.367
913.654
921.902
926.2
927.017
921.531
919.667
921.046
935.46
958.005
980.402
994.717
1003.2
1001.77
927.523
920.238
909.253
895.814
887.015
884.209
883.182
882.915
889.403
901.397
913.881
922.834
927.037
928.17
923.428
916.811
916.385
931.857
959.382
981.32
996.189
1001.64
999.371
930.823
922.922
909.843
893.189
882.514
880.835
880.401
879.399
886.2
900.056
914.543
924.535
928.324
928.079
927.143
922.485
921.788
936.418
962.346
984.789
997.857
1000.88
996.425
935.088
925.962
910.443
890.686
878.123
877.104
876.726
874.235
881.521
898.367
915.88
927.251
930.365
927.61
924.077
921.459
923.611
938.956
964.418
987.578
1000.07
1000.58
992.605
940.442
929.917
911.145
889.083
875.32
873.695
871.187
866.897
874.556
896.186
918.159
931.36
933.483
927.278
919.896
916.482
920.695
938.698
966.259
992.019
1003.24
999.794
986.799
944.344
934.124
912.157
888.474
874.798
871.092
862.256
854.633
863.884
893.147
921.696
937.37
938.04
926.646
913.867
908.639
913.794
936.281
968.802
999.056
1009.03
999.244
979.476
953.535
937.356
912.369
888.322
876.668
869.827
849.195
834.697
847.404
889.378
928.452
947.786
946.588
928.586
906.654
898.987
904.61
932.691
973.235
1013.78
1024.46
989.914
964.438
741.824
704.507
725.786
684.02
586.047
517.645
486.494
449.838
386.782
307.932
274.11
303.21
342.61
393.253
422.224
398.968
392.412
432.819
429.136
746.009
694.762
709.445
665.448
564.229
507.676
484.489
442.001
385.599
307.017
252.331
274.46
324.695
394.181
429.47
391.691
382.431
447.11
427.267
748.089
685.557
695.457
654.743
556.823
514.469
487.972
441.624
372.876
295.536
244.471
249.194
295.258
396.73
433.204
379.916
379.566
431.723
408.475
748.88
696.528
715.563
634.442
536.325
514.946
506.277
402.857
269.243
228.312
237.769
240.322
272.878
404.007
441.094
382.032
393.49
407.155
349.328
753.184
697.06
714.715
632.88
549.307
513.064
369.858
239.853
174.285
189.158
218.27
223.215
245.963
396.596
431.065
400.799
414.762
370.781
207.145
754.649
702.094
726.512
647.145
490.886
321.459
283.867
216.254
179.574
187.553
214.142
220.553
221.284
317.693
470.436
447.606
419.224
264.064
158.657
689.915
747.407
747.986
600.018
346.588
273.778
276.499
232.854
167.397
186.852
213.328
220.313
307.972
447.192
492.804
465.454
351.066
142.058
359.268
770.951
787.599
768.529
527.817
273.471
266.084
323.403
236.857
165.1
184.775
320.145
545.327
550.79
530.954
509.809
471.605
156.249
57.3619
393.015
918.912
931.768
915.632
895.741
888.078
874.023
833.049
792.629
809.895
879.05
937.766
961.154
951.533
915.448
876.44
852.252
872.067
917.283
981.943
1023.03
1000.78
968.103
919.757
657.945
761.281
877.366
882.038
901.039
902.123
721.044
382.21
426.448
663.299
793.005
752.992
721.727
637.357
519.653
457.247
536.632
641.916
635.443
645.869
938.032
969.77
889.472
869.015
783.252
883.606
877.813
873.051
749.196
170.637
52.589
65.8274
179.392
436.729
595.97
536.875
295.563
265.841
248.935
249.231
273.716
313.836
495.042
933.8
931.651
857.476
1145.98
872.852
490.639
314.678
251.33
153.114
39.1608
21.2815
18.2626
21.0316
77.6985
272.726
437.919
490.672
489.367
279.667
240.208
257.213
326.171
756.968
936.793
943.038
890.861
1186.74
338.38
47.2255
48.3866
37.5707
32.5127
18.5277
14.2004
15.4586
16.6528
17.7192
20.7169
210.535
434.262
446.193
462.422
354.941
248.674
777.386
1129.07
1072.81
1031.89
1019.51
1025.1
103.797
44.0038
37.1885
39.2122
32.1104
18.423
13.6488
14.9499
16.2694
17.0988
17.1819
27.4411
212.277
304.445
182.13
203.279
591.948
668.46
659.805
1090
1140.94
933.858
1049.84
120.536
78.6713
65.4007
34.9896
37.4285
25.5135
17.2437
15.9272
16.6852
17.2964
18.9237
19.4362
4.21354
3.05759
1.89859
6.90279
6.10638
5.57321
11.0447
599.731
1235.42
1099.8
1015.79
147.035
117.876
123.04
131.861
84.1549
48.0795
35.1848
31.719
47.8515
56.1007
55.6458
15.1422
2.67501
2.30822
1.88259
1.77952
1.72676
1.74308
3.33146
119.88
1012.47
1255.36
568.286
107.368
84.5457
126.894
126.372
133.156
132.015
124.299
116.985
85.253
-1.09672
4.71712
2.01384
1.23554
1.19856
1.26
1.22882
1.07874
0.915602
0.643547
1.72953
241.248
1213.13
679.376
48.3429
20.3848
20.6637
30.1414
34.5961
28.5931
17.106
7.40736
1.10991
-1.48095
-1.2691
-0.267527
0.506862
1.21498
1.22323
1.17567
1.04769
0.286831
0.0490205
0.211997
0.183319
90.7771
1314.22
21.2138
1.68943
-1.46358
-2.57638
-3.04708
-3.3727
-3.70824
-3.8799
-3.57585
-2.14437
-1.01833
-0.462953
-0.0500044
0.0440468
-0.387013
-0.482701
-0.590797
-0.594055
-0.203651
0.403631
0.438243
0.360462
1579.01
21.7701
-2.45474
-3.38194
-3.49232
-3.54388
-3.61501
-3.74767
-3.85579
-3.77595
-3.17132
-2.17419
-1.40786
-1.53259
-1.86746
-1.61204
-1.37291
-1.16964
-1.01411
-0.527611
0.65233
0.97625
0.0352175
1122.69
21.3855
-3.33274
-4.08993
-4.02224
-3.9786
-3.96838
-4.00545
-3.99428
-3.85846
-3.59944
-3.25596
-2.86467
-2.47042
-2.11238
-1.81183
-1.55883
-1.34012
-1.16127
-1.01627
0.30079
1.28534
1.47317
110.513
20.6448
-3.88201
-4.57509
-4.35279
-4.28119
-4.21912
-4.20143
-4.11774
-3.92505
-3.63505
-3.28419
-2.91601
-2.56207
-2.23782
-1.94971
-1.6952
-1.47058
-1.27763
-1.11917
-0.990012
0.0286019
1.4288
-6.82009
24.7109
-4.48275
-4.91589
-4.56684
-4.50066
-4.3871
-4.33446
-4.21715
-4.01207
-3.72259
-3.39037
-3.03838
-2.69287
-2.3693
-2.0738
-1.80792
-1.57157
-1.36611
-1.19246
-1.0477
-0.932083
-0.787338
-5.65656
13.5959
-4.63405
-5.05908
-4.70633
-4.69161
-4.58163
-4.57232
-4.51782
-4.37263
-4.09211
-3.71941
-3.3007
-2.89229
-2.52203
-2.1929
-1.90216
-1.64733
-1.42765
-1.24153
-1.08579
-0.955836
-0.843853
-5.84678
-5.37977
-4.86591
-5.14687
-4.86844
-4.92794
-4.91745
-5.07835
-5.20745
-5.17645
-4.86361
-4.37003
-3.76132
-3.18939
-2.70606
-2.30803
-1.97692
-1.69777
-1.46376
-1.26697
-1.10307
-0.966165
-0.849499
23.5476
-5.70566
-5.27027
-5.33482
-5.12866
-5.27288
-5.46523
-5.93723
-6.13854
-5.98503
-5.78887
-5.27914
-4.4381
-3.5836
-2.91355
-2.40818
-2.02395
-1.71669
-1.47259
-1.26787
-1.09985
-0.959945
-0.841274
1172.05
-4.73104
-5.25142
-5.51053
-5.4073
-5.66639
-6.10754
-6.84157
-7.25496
-7.67597
-7.29211
-6.11649
-4.86795
-3.96607
-3.08702
-2.46079
-2.02819
-1.69929
-1.44443
-1.24007
-1.07385
-0.93614
-0.819311
1772.84
6.4967
-5.23585
-5.53037
-5.57049
-5.92459
-6.50883
-7.04448
-8.24247
-8.82217
-8.476
-7.10829
-5.16568
-4.09538
-3.14955
-2.43322
-1.962
-1.6292
-1.3789
-1.18274
-1.02471
-0.894078
-0.783262
734.585
44.8882
-4.46348
-5.44002
-5.63094
-5.91723
-6.53935
-7.1798
-8.3468
-9.03546
-9.15574
-7.35732
-5.24404
-4.01106
-2.98751
-2.2748
-1.81621
-1.50421
-1.27501
-1.09724
-0.954312
-0.835711
-0.7345
8.09093
115.992
16.5204
-4.49001
-5.3088
-5.60962
-6.09934
-7.0433
-7.78204
-8.57497
-8.4104
-6.85964
-5.04746
-3.61439
-2.61564
-1.9883
-1.59474
-1.33088
-1.13857
-0.988835
-0.867126
-0.764778
-0.676244
3.00187
45.9185
44.9941
20.1638
-0.267804
-4.63326
-5.27021
-5.98953
-6.73356
-7.14527
-6.81812
-5.47899
-4.00917
-2.7282
-2.04819
-1.60692
-1.32166
-1.12708
-0.98225
-0.866529
-0.769734
-0.686158
-0.612172
2.10552
3.77367
17.8353
20.517
12.9797
4.52705
-2.31248
-4.50381
-5.05432
-5.17687
-4.72568
-3.69366
-2.43524
-1.57175
-1.42495
-1.20683
-1.04045
-0.919105
-0.822732
-0.74125
-0.669571
-0.605052
-0.545985
2.11291
2.58634
2.58927
2.83181
3.11501
2.59741
1.26911
-0.401658
-2.85136
-3.1727
-2.72558
-1.72809
-1.17591
-1.02073
-0.987036
-0.874264
-0.795566
-0.731554
-0.675042
-0.622755
-0.573252
-0.526072
-0.480917
1.90006
2.05189
2.04487
1.60076
0.648743
-0.462167
-1.07466
-1.4208
-1.39135
-1.19433
-0.88294
-0.612869
-0.580503
-0.7147
-0.66733
-0.631566
-0.603587
-0.576202
-0.547582
-0.517196
-0.485319
-0.452574
-0.419436
1.59929
1.64716
1.57331
1.22597
0.536307
-0.332674
-1.08642
-1.43572
-1.14521
-0.552911
-0.263579
-0.209593
-0.449286
-0.48979
-0.468328
-0.464348
-0.46107
-0.45395
-0.442522
-0.426998
-0.408023
-0.386479
-0.363103
1.31098
1.30255
1.18915
0.895567
0.388732
-0.237316
-0.78937
-1.02015
-0.799403
-0.329621
-0.247924
-0.378551
-0.379758
-0.351097
-0.346507
-0.351186
-0.357322
-0.360037
-0.358187
-0.35193
-0.341781
-0.328452
-0.31263
1.04672
1.01229
0.890662
0.654405
0.298399
-0.122051
-0.488069
-0.67821
-0.664882
-0.540619
-0.439754
-0.354147
-0.29476
-0.271516
-0.268329
-0.273853
-0.281917
-0.288256
-0.29116
-0.290291
-0.285849
-0.278279
-0.268083
0.82319
0.7833
0.674472
0.491449
0.244805
-0.0286569
-0.266592
-0.412065
-0.446987
-0.404868
-0.334646
-0.272902
-0.234335
-0.217181
-0.214192
-0.218775
-0.225941
-0.232958
-0.237833
-0.239852
-0.238926
-0.235247
-0.229113
0.645023
0.60924
0.521034
0.38269
0.208294
0.0245023
-0.133897
-0.238326
-0.279437
-0.272197
-0.241656
-0.209384
-0.18667
-0.175449
-0.173306
-0.176854
-0.182969
-0.189532
-0.19499
-0.198437
-0.199576
-0.198434
-0.195155
0.506272
0.477071
0.40899
0.306555
0.181817
0.0532563
-0.0580854
-0.135871
-0.175219
-0.183376
-0.173819
-0.159251
-0.147463
-0.141284
-0.140518
-0.143656
-0.148913
-0.154741
-0.160109
-0.164129
-0.166423
-0.166889
-0.165569
0.398833
0.37594
0.324564
0.249722
0.160389
0.0691115
-0.0111263
-0.070608
-0.106156
-0.121184
-0.122992
-0.119059
-0.114689
-0.112544
-0.113283
-0.116448
-0.121121
-0.126326
-0.131292
-0.135421
-0.138284
-0.139722
-0.139715
0.315339
0.297863
0.259647
0.205198
0.140912
0.075333
0.016603
-0.0293343
-0.0601766
-0.0774024
-0.0849094
-0.0871046
-0.0875158
-0.0882833
-0.0903078
-0.0936535
-0.0979332
-0.102597
-0.107114
-0.111101
-0.114173
-0.116158
-0.116992
0.249814
0.236789
0.208695
0.169081
0.122533
0.0748755
0.0313659
-0.00419539
-0.0301369
-0.0469881
-0.0567992
-0.0621522
-0.0653401
-0.0679602
-0.0708729
-0.0743595
-0.0783332
-0.0825213
-0.0865881
-0.0902668
-0.0933134
-0.0955424
-0.0968751
0.197596
0.188097
0.167607
0.13879
0.104982
0.0701634
0.0377646
0.0102844
-0.0110318
-0.0262474
-0.0364092
-0.0430195
-0.0475481
-0.0511352
-0.0544973
-0.0579713
-0.0616183
-0.0653321
-0.0689318
-0.0722297
-0.0750869
-0.0773528
-0.0789486
0.155099
0.148303
0.133465
0.112571
0.0880649
0.062655
0.0385858
0.0175319
0.000434363
-0.0125645
-0.0219691
-0.0286438
-0.0335183
-0.0373818
-0.0407891
-0.0440558
-0.0473031
-0.0505197
-0.0536201
-0.0564849
-0.0590475
-0.061217
-0.0629137
0.119564
0.114822
0.104204
0.0892107
0.0716304
0.0532812
0.0356241
0.019795
0.00649734
-0.0040602
-0.0120965
-0.0181005
-0.0226521
-0.0262838
-0.0294047
-0.032279
-0.0350395
-0.0377205
-0.0402934
-0.0427007
-0.0448796
-0.0468724
-0.0485578
0.0889105
0.0857539
0.0783382
0.0678395
0.0555583
0.042669
0.030103
0.0186255
0.00874576
0.000667507
-0.00568637
-0.0105866
-0.0143878
-0.0174394
-0.0200309
-0.0223663
-0.0245655
-0.0266788
-0.0287071
-0.0306145
-0.0322994
-0.0341221
-0.0357131
0.0614852
0.0595789
0.0546854
0.0477472
0.0396743
0.0311681
0.0227968
0.0150509
0.00827364
0.00262828
-0.00190099
-0.00545913
-0.00825492
-0.0105079
-0.0124106
-0.0141083
-0.0156953
-0.0172216
-0.018708
-0.0201682
-0.0216643
-0.0228838
-0.0242233
0.0362456
0.0353767
0.0325293
0.028537
0.0239755
0.0191661
0.0144014
0.0099529
0.00602101
0.00271152
2.72349e-05
-0.00210202
-0.00378588
-0.00514559
-0.00629216
-0.00731354
-0.0082701
-0.00919755
-0.0101162
-0.0110447
-0.011996
-0.0127722
-0.0137394
0.011376
0.011236
0.0104196
0.00918781
0.00775412
0.00624408
0.0047724
0.00340661
0.00220428
0.00120172
0.000399091
-0.000226429
-0.000711185
-0.00109694
-0.00142241
-0.00171826
-0.00200432
-0.00228865
-0.00256725
-0.00282456
-0.00305081
-0.00334171
-0.00390034
896.372
884.88
875.042
866.577
865.421
860.754
871.013
874.202
830.971
755.933
765.08
881.593
877.418
788.537
783.798
875.355
912.825
476.731
221.896
203.934
121.624
86.9007
85.9284
85.129
212.567
88.5335
89.2837
88.8149
1187.01
274.661
92.3654
91.4607
1352.11
1354.5
1218.99
534.202
1109.99
1307.76
1327.19
1302.11
0.0199078
0.069599
53.0314
301.51
-0.00848706
0.018532
-0.0689534
-0.24214
0.912307
0.00275915
-0.12152
-0.282699
1.59524
1.66653
1.73024
0.848648
0.528909
1.09723
1.52397
1.55255
-0.776079
-0.731928
-0.685047
-0.0123203
-0.773818
-0.726918
-0.68147
-0.637565
-0.764736
-0.71781
-0.671649
-0.627608
-0.74426
-0.698583
-0.653609
-0.61206
-0.71218
-0.66912
-0.628349
-0.588539
-0.669364
-0.629902
-0.592554
-0.557175
-0.618746
-0.583801
-0.550607
-0.519099
-0.563384
-0.53356
-0.505017
-0.477772
-0.506149
-0.481581
-0.457808
-0.434906
-0.44953
-0.42994
-0.410719
-0.391977
-0.395503
-0.38034
-0.365223
-0.350271
-0.345409
-0.333998
-0.322413
-0.31077
-0.299946
-0.29159
-0.282934
-0.274075
-0.25929
-0.253345
-0.247044
-0.240462
-0.223264
-0.219177
-0.214723
-0.20996
-0.191487
-0.188804
-0.185772
-0.182434
-0.163485
-0.161844
-0.159888
-0.157645
-0.138758
-0.137874
-0.136715
-0.135298
-0.116814
-0.116467
-0.115887
-0.115083
-0.0972172
-0.0972431
-0.0970771
-0.0967236
-0.0796251
-0.0799059
-0.0800381
-0.0800216
-0.0637996
-0.0642554
-0.0646051
-0.0648464
-0.049566
-0.0501413
-0.0506502
-0.0510901
-0.0367716
-0.0374197
-0.0380366
-0.0386196
-0.0252438
-0.0259022
-0.026562
-0.0272214
-0.0146204
-0.0152352
-0.0158965
-0.0166037
-0.00468723
-0.00529127
-0.00597328
-0.00672638
848.509
820.593
784.416
459.978
239.747
248.851
333.044
227.992
194.226
384.962
443.67
394.008
335.443
336.819
333.294
156.959
29.9618
17.5191
74.849
885.879
856.065
722.995
255.514
223.142
224.03
345.292
290.425
201.148
319.869
204.759
24.7719
24.2307
21.4023
18.8865
18.3059
18.1663
17.0536
16.6651
923.832
840.406
346.031
201.22
214.685
266.38
347.16
345.443
245.554
101.634
72.3002
23.9285
24.2677
23.2972
19.1018
17.4624
19.5237
17.5586
16.1677
842.356
323.374
171.145
196.045
295.423
373.916
358.945
366.373
339.014
221.108
94.7263
78.5739
82.8955
54.7848
18.6207
16.1496
18.0155
17.4749
16.8366
211.241
178.439
195.849
372.792
372.967
354.382
285.304
219.865
258.949
237.341
229.399
266.846
252.701
115.062
14.5526
14.661
15.2664
14.3377
17.5726
85.8206
230.701
351.327
368.346
287.528
122.782
122.459
201.003
539.416
489.257
447.505
407.152
245.736
119.292
13.0091
14.2743
12.3749
12.3265
12.647
86.4854
117.563
173.899
158.184
122.643
122.903
126.561
536.61
561.863
547.475
376.424
91.6897
1.27342
16.0811
16.488
12.5364
12.1273
12.2176
12.4892
89.1807
84.1481
82.5187
86.6973
101.801
199.625
453.084
584.256
580.472
236.959
0.780992
0.96876
1.51711
11.2242
13.3426
12.0521
12.2567
12.2454
12.7562
176.769
88.1218
90.846
239.503
400.235
570.199
563.381
506.004
85.9187
0.365067
0.686867
0.875443
1.00354
5.19129
32.8816
38.1294
21.0891
11.9223
12.4118
935.123
365.682
404.008
535.688
531.431
434.072
290.559
0.739406
0.260261
0.343945
0.514106
0.693712
0.727433
0.840715
13.3907
38.528
40.987
18.9046
10.6591
454.344
502.559
503.226
361.191
156.27
0.210699
-0.328993
0.191481
0.192049
0.277878
0.379707
0.460045
0.381232
0.252383
0.0123669
20.2104
35.5427
34.4711
7.23882
-0.179199
44.9801
12.6236
-0.283675
-0.213205
-0.133378
-0.15353
0.0449889
0.135193
0.204906
0.263773
0.269593
0.14799
-0.161185
-0.59742
-1.73629
30.5462
27.9444
1.78989
-0.26889
-0.32652
-0.345133
-0.284133
-0.228705
-0.157899
-0.0982826
0.00257934
0.079587
0.141016
0.183265
0.172286
0.040997
-0.257601
-0.877765
-2.14123
-0.0374482
5.42358
-0.320385
0.236215
-0.381082
-0.359718
-0.284428
-0.22714
-0.164965
-0.106141
-0.0333916
0.0324439
0.0827916
0.116611
0.114372
0.0337864
-0.15275
-0.594718
-1.30433
-1.83867
-1.80377
-0.183607
1.60536
-0.407588
-0.370009
-0.297016
-0.23726
-0.176407
-0.118144
-0.0590341
-0.00645116
0.0350245
0.0609909
0.0627742
0.021314
-0.0646652
-0.220763
-0.426067
-0.215579
0.355141
0.842573
0.187382
-0.336214
-0.365538
-0.302849
-0.245654
-0.186038
-0.132085
-0.0816594
-0.0369925
-0.00113205
0.0233646
0.0314618
0.0102233
-0.0362016
-0.0769426
-0.0682972
0.07401
0.977704
2.60556
-0.561594
-0.379145
-0.361322
-0.310632
-0.253351
-0.197116
-0.147009
-0.101677
-0.061968
-0.0291656
-0.00396619
0.0115434
0.0121868
0.0031301
0.00800652
0.045906
0.175926
0.541046
0.387678
-0.558309
-0.467663
-0.393298
-0.31956
-0.260604
-0.20746
-0.160458
-0.118704
-0.0823249
-0.051525
-0.0262079
-0.00716746
0.00447918
0.0129311
0.0305664
0.0629352
0.183391
0.748328
0.342031
-0.546735
-0.463685
-0.38998
-0.324171
-0.265504
-0.215155
-0.170848
-0.131974
-0.0982953
-0.0697214
-0.0462586
-0.0279285
-0.0124862
0.0034844
0.0296214
0.0610361
0.249417
0.703872
0.334562
-0.527741
-0.450704
-0.381675
-0.320426
-0.266221
-0.218702
-0.177148
-0.141024
-0.109977
-0.0843082
-0.0648588
-0.0513214
-0.0387435
-0.0205391
0.00994187
0.0396247
0.352583
0.681033
0.266655
-0.500929
-0.43056
-0.36768
-0.311697
-0.261964
-0.217926
-0.17927
-0.145829
-0.117329
-0.0948365
-0.0798933
-0.0737501
-0.0678291
-0.0521656
-0.021035
0.0186745
0.347488
0.658159
0.121574
-0.468909
-0.405902
-0.349489
-0.298932
-0.253725
-0.213292
-0.177649
-0.146785
-0.12055
-0.0992329
-0.0814136
-0.0871859
-0.0900848
-0.0784267
-0.0459909
0.0337051
0.400486
0.178391
0.0841553
-0.434124
-0.378703
-0.328692
-0.283472
-0.242646
-0.205852
-0.173243
-0.144874
-0.120371
-0.0953379
-0.0803899
-0.0834191
-0.0951833
-0.086735
-0.0544276
0.0928183
0.340835
0.0576547
0.0660447
-0.397884
-0.350063
-0.306339
-0.266353
-0.229875
-0.196743
-0.167212
-0.141428
-0.118002
-0.0883985
-0.0739332
-0.0694235
-0.0788801
-0.0687721
-0.037754
-0.000131221
0.0247876
0.046385
0.0518854
-0.361321
-0.320847
-0.283242
-0.248407
-0.216281
-0.186867
-0.160523
-0.137516
-0.115535
-0.0861813
-0.0655152
-0.0521788
-0.0520314
-0.0380642
-0.0185036
0.000361942
0.0183125
0.0339199
0.0398822
-0.325479
-0.291901
-0.260123
-0.230263
-0.202415
-0.176732
-0.15357
-0.133369
-0.113465
-0.0910266
-0.0603331
-0.0408135
-0.0268766
-0.0200359
-0.0103158
-0.00337148
0.00839348
0.021907
0.0327896
-0.291164
-0.263848
-0.237467
-0.212287
-0.188523
-0.166401
-0.146259
-0.128512
-0.110927
-0.0919645
-0.0687693
-0.0407089
-0.022326
-0.0168346
-0.0133994
-0.0119592
-0.00392186
0.0343361
0.0299156
-0.258902
-0.237098
-0.215568
-0.194667
-0.174668
-0.15581
-0.138376
-0.122594
-0.107346
-0.0899486
-0.070887
-0.0528791
-0.0334107
-0.0203486
-0.018687
-0.0237404
-0.0202352
0.119983
1.07798
-0.228974
-0.211896
-0.194613
-0.177511
-0.160874
-0.144918
-0.129839
-0.115725
-0.101862
-0.0867785
-0.0707357
-0.0559501
-0.0433265
-0.0314631
-0.0266655
-0.0341537
-0.0351501
0.0794364
3.03921
-0.201465
-0.188346
-0.174696
-0.160886
-0.147177
-0.133754
-0.120742
-0.108171
-0.0956898
-0.0827362
-0.0696556
-0.0578676
-0.0480479
-0.0417584
-0.0374439
-0.0397894
-0.0414453
-0.0596264
0.343518
-0.176322
-0.166454
-0.155853
-0.14484
-0.133645
-0.122429
-0.111292
-0.100279
-0.0893091
-0.0783278
-0.0676889
-0.0582954
-0.0505642
-0.0452565
-0.0414933
-0.0410788
-0.04074
-0.0437061
-0.0447618
-0.153398
-0.146154
-0.138066
-0.1294
-0.120356
-0.111086
-0.101702
-0.0922998
-0.0829607
-0.0738167
-0.0651573
-0.0575708
-0.0512548
-0.0466114
-0.043118
-0.0410093
-0.0394795
-0.0374656
-0.0353403
-0.132482
-0.127323
-0.121285
-0.114585
-0.1074
-0.0998835
-0.0921689
-0.0843987
-0.0767131
-0.0692588
-0.0622478
-0.0560736
-0.0508131
-0.0467727
-0.0435764
-0.0410498
-0.0393154
-0.0368578
-0.0349858
-0.11335
-0.109836
-0.105473
-0.10044
-0.0949014
-0.0890008
-0.0828819
-0.0766973
-0.0705707
-0.0646155
-0.0589978
-0.0539995
-0.049662
-0.0462321
-0.0433933
-0.0410171
-0.0394365
-0.037461
-0.0363734
-0.0958101
-0.093605
-0.0906366
-0.0870566
-0.0830083
-0.0786034
-0.0739731
-0.0692431
-0.0645012
-0.0598464
-0.0554323
-0.0514696
-0.0479877
-0.0451675
-0.0427446
-0.0407422
-0.0393507
-0.0378684
-0.0372352
-0.07974
-0.0785999
-0.0768247
-0.0745324
-0.071826
-0.0687709
-0.0654708
-0.0620167
-0.0584845
-0.0549785
-0.0516441
-0.0486246
-0.0459441
-0.0437198
-0.0417593
-0.040191
-0.0390097
-0.0379401
-0.0375158
-0.065063
-0.0648057
-0.0640606
-0.0628954
-0.0613604
-0.0594813
-0.0573377
-0.0550026
-0.052558
-0.0501055
-0.047762
-0.0456096
-0.0436761
-0.042029
-0.0405554
-0.0394051
-0.0384631
-0.0377431
-0.0374232
-0.0516993
-0.0521693
-0.0522932
-0.0520805
-0.051537
-0.0506688
-0.0495417
-0.0482208
-0.0467828
-0.0453054
-0.0438649
-0.0425056
-0.0412613
-0.0401676
-0.0391774
-0.0384107
-0.0377399
-0.0372993
-0.0370523
-0.0395216
-0.0405656
-0.0413944
-0.041971
-0.0422702
-0.0422913
-0.0420843
-0.0416979
-0.0411843
-0.0405897
-0.0399596
-0.039323
-0.0387122
-0.0381465
-0.0376202
-0.0372091
-0.0368163
-0.036593
-0.0364116
-0.0283093
-0.0298019
-0.0312227
-0.0324843
-0.0335367
-0.0343709
-0.03501
-0.035478
-0.0357995
-0.0359991
-0.0361033
-0.0361326
-0.0361102
-0.0360498
-0.035962
-0.0358855
-0.0357603
-0.0357181
-0.0355903
-0.0178472
-0.0197456
-0.0217012
-0.0235859
-0.0253338
-0.0269203
-0.0283391
-0.0295933
-0.0306877
-0.0316285
-0.0324244
-0.0330846
-0.033623
-0.0340516
-0.0343837
-0.0346351
-0.0347691
-0.0348845
-0.0347802
-0.00809331
-0.0102957
-0.0126788
-0.0150954
-0.017456
-0.0197207
-0.02186
-0.023858
-0.0256979
-0.0273608
-0.0288344
-0.0301118
-0.0312012
-0.0321132
-0.0328634
-0.0334619
-0.0338657
-0.0341479
-0.0339339
)
;

boundaryField
{
    leftWall
    {
        type            fixedFluxPressure;
        gradient        uniform 0;
        value           nonuniform List<scalar> 
50
(
923.82
925.07
927.523
930.823
935.088
940.442
944.344
953.535
918.912
657.945
869.015
1145.98
1186.74
1025.1
1049.84
1015.79
568.286
679.376
1314.22
1579.01
1122.69
110.513
-6.82009
-5.65656
-5.84678
23.5476
1172.05
1772.84
734.585
8.09093
3.00187
2.10552
2.11291
1.90006
1.59929
1.31098
1.04672
0.82319
0.645023
0.506272
0.398833
0.315339
0.249814
0.197596
0.155099
0.119564
0.0889105
0.0614852
0.0362456
0.011376
)
;
    }
    rightWall
    {
        type            fixedFluxPressure;
        gradient        uniform 0;
        value           nonuniform List<scalar> 
50
(
429.136
427.267
408.475
349.328
207.145
158.657
359.268
393.015
74.849
16.6651
16.1677
16.8366
17.5726
12.647
12.4892
12.7562
12.4118
10.6591
7.23882
1.78989
-0.320385
-0.183607
0.842573
2.60556
0.387678
0.342031
0.334562
0.266655
0.121574
0.0841553
0.0660447
0.0518854
0.0398822
0.0327896
0.0299156
1.07798
3.03921
0.343518
-0.0447618
-0.0353403
-0.0349858
-0.0363734
-0.0372352
-0.0375158
-0.0374232
-0.0370523
-0.0364116
-0.0355903
-0.0347802
-0.0339339
)
;
    }
    lowerWall
    {
        type            fixedFluxPressure;
        gradient        uniform 0;
        value           nonuniform List<scalar> 
62
(
923.82
917.127
908.556
898.993
891.367
887.448
885.987
886.273
892.376
902.669
913.392
921.486
925.951
926.796
924.146
922.031
925.209
940.81
961.436
982.361
997.475
1005.13
1003.29
1003.29
1001.77
999.371
996.425
992.605
986.799
979.476
964.438
896.372
884.88
875.042
866.577
741.824
746.009
748.089
748.88
753.184
754.649
689.915
770.951
741.824
704.507
725.786
684.02
586.047
517.645
486.494
449.838
386.782
307.932
274.11
303.21
342.61
393.253
422.224
398.968
392.412
432.819
429.136
)
;
    }
    atmosphere
    {
        type            totalPressure;
        rho             rho;
        psi             none;
        gamma           1;
        p0              uniform 0;
        value           nonuniform List<scalar> 
46
(
0
0
0
0
0
0
0
0
0
0
0
0
0
0
0
0
0
0
0
0
0
0
-0.000187155
-0.000611598
-0.00101858
-0.00154354
-0.0021936
-0.00351707
-0.00579255
-0.00832867
-0.0109546
-0.0135636
-0.016132
-0.0186134
-0.0209797
-0.0231959
-0.025225
-0.027044
-0.0286338
-0.0300029
-0.0311607
-0.0321288
-0.0329263
-0.0334865
-0.0339146
-0.0334308
)
;
    }
    defaultFaces
    {
        type            empty;
    }
}


// ************************************************************************* //
