/*--------------------------------*- C++ -*----------------------------------*\
| =========                 |                                                 |
| \\      /  F ield         | OpenFOAM: The Open Source CFD Toolbox           |
|  \\    /   O peration     | Version:  5.x                                   |
|   \\  /    A nd           | Web:      www.OpenFOAM.org                      |
|    \\/     M anipulation  |                                                 |
\*---------------------------------------------------------------------------*/
FoamFile
{
    version     2.0;
    format      ascii;
    class       volVectorField;
    location    "0.95";
    object      U;
}
// * * * * * * * * * * * * * * * * * * * * * * * * * * * * * * * * * * * * * //

dimensions      [0 1 -1 0 0 0 0];

internalField   nonuniform List<vector> 
2268
(
(0.0225611 -0.0163497 0)
(0.0479524 -0.00752926 0)
(0.0341573 0.00738746 0)
(-0.0224833 0.0160015 0)
(-0.0654452 0.00927585 0)
(-0.0542551 -0.00330057 0)
(-0.0234508 -0.00498234 0)
(-0.0101874 0.000618697 0)
(-0.0213849 0.00513442 0)
(-0.0486644 0.00783487 0)
(-0.0830001 0.00914307 0)
(-0.120409 0.00788801 0)
(-0.149533 0.000864055 0)
(-0.153627 -0.010762 0)
(-0.142094 -0.0108457 0)
(-0.172743 0.0147624 0)
(-0.287506 0.033358 0)
(-0.368036 0.0133057 0)
(-0.335698 -0.0137434 0)
(-0.25743 -0.0248676 0)
(-0.181549 -0.0252691 0)
(-0.0987897 -0.0258725 0)
(-0.0277782 -0.0171615 0)
(-0.0064998 -0.0180774 0)
(-0.0260779 0.00330499 0)
(-0.0593592 0.0260728 0)
(-0.095319 0.0299111 0)
(-0.0960223 0.00759786 0)
(-0.0652363 -0.0171127 0)
(-0.0329052 -0.017655 0)
(-0.0133238 -0.000644113 0)
(-0.0224553 0.0144632 0)
(-0.0503445 0.0226285 0)
(-0.085023 0.0259945 0)
(-0.120248 0.0243603 0)
(-0.15082 0.0155789 0)
(-0.181088 0.0058256 0)
(-0.230707 0.019515 0)
(-0.297345 0.0534711 0)
(-0.350341 0.0552086 0)
(-0.314514 0.00474685 0)
(-0.22663 -0.0417002 0)
(-0.178159 -0.053329 0)
(-0.126162 -0.0543894 0)
(-0.0703896 -0.0586073 0)
(-0.0151232 -0.0410426 0)
(-0.0169841 -0.0034301 0)
(-0.0494484 0.0191263 0)
(-0.0851143 0.0382036 0)
(-0.105444 0.0340898 0)
(-0.099291 -0.000474799 0)
(-0.0726262 -0.0347157 0)
(-0.0382551 -0.0332659 0)
(-0.0197036 -0.00356783 0)
(-0.0267997 0.0231409 0)
(-0.0521848 0.0366406 0)
(-0.0814804 0.0406532 0)
(-0.107329 0.0379678 0)
(-0.130012 0.0309645 0)
(-0.158419 0.0278519 0)
(-0.203121 0.043721 0)
(-0.249996 0.0655348 0)
(-0.247995 0.0420792 0)
(-0.179293 -0.0290132 0)
(-0.129499 -0.0713146 0)
(-0.113859 -0.0719298 0)
(-0.0808013 -0.0714964 0)
(-0.054404 -0.0783834 0)
(-0.00179021 -0.0541748 0)
(-0.011932 0.00995345 0)
(-0.0345266 0.0336123 0)
(-0.0640784 0.0487043 0)
(-0.0841554 0.0387608 0)
(-0.0825648 -0.00500966 0)
(-0.0545725 -0.0510254 0)
(-0.0291101 -0.0464484 0)
(-0.0215251 -0.0046594 0)
(-0.0333323 0.0319953 0)
(-0.0609492 0.050009 0)
(-0.0915698 0.0533913 0)
(-0.116594 0.0477896 0)
(-0.133829 0.0393554 0)
(-0.144284 0.0392795 0)
(-0.148876 0.0552662 0)
(-0.147496 0.0654617 0)
(-0.12201 0.0297337 0)
(-0.0818485 -0.0376189 0)
(-0.0893907 -0.072882 0)
(-0.102007 -0.077357 0)
(-0.0756259 -0.0820554 0)
(-0.0530164 -0.0953 0)
(0.000779397 -0.0639114 0)
(0.00164651 0.0157986 0)
(-0.00106103 0.0428672 0)
(-0.0214374 0.0585263 0)
(-0.0411718 0.0445243 0)
(-0.0385516 -0.00878418 0)
(-0.00950279 -0.0627152 0)
(-0.00262025 -0.0510945 0)
(-0.0139765 7.37407e-06 0)
(-0.0380766 0.0443969 0)
(-0.0720522 0.0651032 0)
(-0.10639 0.0672636 0)
(-0.134108 0.0576062 0)
(-0.150346 0.0435818 0)
(-0.15013 0.0373815 0)
(-0.12891 0.0466108 0)
(-0.093889 0.0509749 0)
(-0.0618387 0.0180302 0)
(-0.0607234 -0.0352056 0)
(-0.0981373 -0.0640676 0)
(-0.113748 -0.0809916 0)
(-0.0813239 -0.097198 0)
(-0.040584 -0.116153 0)
(0.00146777 -0.0739568 0)
(0.0201714 0.0106948 0)
(0.0416426 0.0449017 0)
(0.0338955 0.0658378 0)
(0.0184676 0.0491244 0)
(0.0226268 -0.0141152 0)
(0.0586445 -0.0694913 0)
(0.035948 -0.0460999 0)
(0.00344024 0.0134311 0)
(-0.0372239 0.0630811 0)
(-0.0823666 0.0836249 0)
(-0.120724 0.0833918 0)
(-0.149828 0.0688191 0)
(-0.164982 0.0466753 0)
(-0.160523 0.0299872 0)
(-0.134632 0.0291024 0)
(-0.0971399 0.0301636 0)
(-0.0730394 0.0118168 0)
(-0.0857325 -0.0217642 0)
(-0.111121 -0.0541153 0)
(-0.110612 -0.0898354 0)
(-0.0655216 -0.122282 0)
(-0.00857574 -0.14079 0)
(0.00906909 -0.0811004 0)
(0.0434517 -0.0152051 0)
(0.0896715 0.0386986 0)
(0.0937695 0.0703329 0)
(0.0814597 0.0534335 0)
(0.0970214 -0.0210866 0)
(0.135086 -0.0718522 0)
(0.0829458 -0.0300505 0)
(0.0339074 0.0365128 0)
(-0.0186626 0.0898892 0)
(-0.0762096 0.10447 0)
(-0.119051 0.0972221 0)
(-0.14918 0.0763597 0)
(-0.163201 0.0463968 0)
(-0.155212 0.019929 0)
(-0.129296 0.0119605 0)
(-0.0989178 0.0151021 0)
(-0.0819636 0.0100705 0)
(-0.0881018 -0.0125646 0)
(-0.100402 -0.0504785 0)
(-0.0890165 -0.107319 0)
(-0.0450793 -0.157222 0)
(0.0177209 -0.159342 0)
(0.0233738 -0.0746962 0)
(0.0784599 -0.0491215 0)
(0.144138 0.0167924 0)
(0.153862 0.064197 0)
(0.149553 0.0444564 0)
(0.184442 -0.0373777 0)
(0.180142 -0.0684348 0)
(0.118901 -0.0070098 0)
(0.0741817 0.0618902 0)
(0.0184933 0.117845 0)
(-0.0532296 0.133847 0)
(-0.104619 0.124775 0)
(-0.138539 0.099747 0)
(-0.152593 0.0587476 0)
(-0.140286 0.0220124 0)
(-0.106816 0.00656063 0)
(-0.0743486 0.0126671 0)
(-0.0612105 0.0140295 0)
(-0.0695082 -0.00521188 0)
(-0.0849841 -0.0485579 0)
(-0.0934632 -0.114895 0)
(-0.0831454 -0.161394 0)
(-0.00426754 -0.157585 0)
(0.0413632 -0.0459588 0)
(0.0546873 -8.73877e-05 0)
(-0.175213 0.0314905 0)
(-0.0814551 -0.0384436 0)
(0.250184 -0.0630528 0)
(0.457009 -0.0262936 0)
(0.526942 -0.00858462 0)
(0.541381 0.00444486 0)
(0.524789 0.0321754 0)
(0.314197 0.0344542 0)
(0.260375 0.0130102 0)
(0.0798942 0.0108296 0)
(-0.0659331 -0.0207658 0)
(-0.16661 -0.0250802 0)
(-0.197427 -0.00225793 0)
(-0.223025 0.00949505 0)
(-0.344482 0.0376363 0)
(-0.432631 0.0219846 0)
(-0.241001 -0.0647279 0)
(-0.0309145 -0.0465547 0)
(-0.0507374 0.0452599 0)
(-0.214482 0.0463403 0)
(0.101766 -0.168613 0)
(0.333174 -0.193961 0)
(0.519091 -0.0744123 0)
(0.571582 -0.0100689 0)
(0.577555 -0.00735269 0)
(0.62638 0.0237882 0)
(0.494026 0.0772762 0)
(0.437031 0.104197 0)
(0.313942 0.117376 0)
(0.115643 0.10545 0)
(-0.161557 0.0840041 0)
(-0.22825 0.0217568 0)
(-0.302051 0.0362955 0)
(-0.449751 0.0509353 0)
(-0.340729 -0.0300365 0)
(-0.0615803 -0.154639 0)
(-0.00294811 -0.0689065 0)
(-0.0922954 0.0900602 0)
(-0.156772 0.011884 0)
(0.20388 -0.296716 0)
(0.277115 -0.279539 0)
(0.381826 -0.120829 0)
(0.438745 -0.0305049 0)
(0.43264 -0.0280053 0)
(0.36073 0.0669282 0)
(0.401542 0.103194 0)
(0.453197 0.124844 0)
(0.258527 0.167799 0)
(0.0512777 0.219606 0)
(-0.0723739 0.149255 0)
(-0.110792 0.0447197 0)
(-0.2097 0.0744357 0)
(-0.366149 0.0530065 0)
(-0.202648 -0.102529 0)
(0.0513651 -0.225935 0)
(0.00995576 -0.0599586 0)
(-0.101444 0.126983 0)
(-0.0771565 -0.0461277 0)
(0.205237 -0.373695 0)
(0.124539 -0.288848 0)
(0.152804 -0.11367 0)
(0.161005 -0.0298054 0)
(0.0515895 0.0227874 0)
(0.235365 0.0193887 0)
(0.545734 0.0602744 0)
(0.579319 0.157475 0)
(0.332963 0.194287 0)
(0.182755 0.220592 0)
(0.104941 0.179725 0)
(0.0230579 0.0729956 0)
(-0.107549 0.125926 0)
(-0.255159 0.0534685 0)
(-0.104001 -0.175645 0)
(-0.00944827 -0.281766 0)
(0.0650189 -0.0588405 0)
(-0.0951662 0.155113 0)
(0.00344834 -0.0998 0)
(0.147046 -0.388799 0)
(-0.0727202 -0.231099 0)
(-0.14188 -0.0584643 0)
(-0.213745 0.0226458 0)
(-0.0110975 -0.0690518 0)
(0.204879 -0.266389 0)
(0.811079 0.0788882 0)
(0.615417 0.288806 0)
(0.183296 0.295472 0)
(0.0319759 0.312359 0)
(0.0450361 0.214648 0)
(-0.022726 0.112426 0)
(-0.0631709 0.165389 0)
(-0.152645 0.061423 0)
(-0.0536316 -0.203512 0)
(-0.16424 -0.305326 0)
(0.0549837 -0.0157858 0)
(-0.0809318 0.167558 0)
(0.0706911 -0.146515 0)
(0.0826811 -0.345931 0)
(-0.210439 -0.149364 0)
(-0.332632 -0.0372608 0)
(-0.320202 -0.0687069 0)
(0.00672079 -0.183749 0)
(-0.129079 -0.350098 0)
(0.1237 0.0125943 0)
(0.0907618 0.355165 0)
(-0.320685 0.382226 0)
(-0.262448 0.343867 0)
(0.12414 0.215886 0)
(-0.0580807 0.152373 0)
(-0.0643036 0.194334 0)
(-0.0624361 0.0726828 0)
(-0.0601939 -0.174119 0)
(-0.277894 -0.27145 0)
(-0.157836 -0.0855955 0)
(-0.056702 0.160686 0)
(0.100114 -0.164305 0)
(0.0423014 -0.283414 0)
(-0.250016 -0.0774442 0)
(-0.406295 0.012974 0)
(-0.495539 -0.0680156 0)
(-0.305049 -0.311685 0)
(-0.45253 -0.327743 0)
(-0.619708 0.127273 0)
(-0.826116 0.524456 0)
(-0.79539 0.339192 0)
(-0.287301 0.165256 0)
(-0.208704 0.158897 0)
(-0.188117 0.161235 0)
(-0.0855677 0.165844 0)
(-0.00740441 0.0652418 0)
(-0.115204 -0.118762 0)
(-0.294852 -0.253963 0)
(-0.152412 -0.220258 0)
(-0.0240957 0.147187 0)
(0.113442 -0.164668 0)
(0.012032 -0.217604 0)
(-0.265397 0.017194 0)
(-0.477587 0.117128 0)
(-0.560744 -0.0995666 0)
(-0.506008 -0.31882 0)
(-0.749375 -0.185632 0)
(-1.09056 0.317755 0)
(-1.02585 0.391858 0)
(-0.811974 0.145711 0)
(-0.681172 0.0946766 0)
(-0.506299 0.133884 0)
(-0.336077 0.142354 0)
(-0.181666 0.13551 0)
(-0.10711 0.0618836 0)
(-0.118063 -0.103833 0)
(-0.205261 -0.280608 0)
(-0.103228 -0.352724 0)
(0.116885 -0.145125 0)
(0.254298 0.0165716 0)
(0.27754 0.100752 0)
(0.261211 0.0773823 0)
(0.22771 -0.0103188 0)
(0.127558 -0.0315871 0)
(0.0923517 0.0390304 0)
(0.0787197 0.120433 0)
(0.0206085 0.1688 0)
(-0.0836208 0.155938 0)
(-0.152653 0.102245 0)
(-0.192876 0.0519207 0)
(-0.206733 0.00124609 0)
(-0.181026 -0.039236 0)
(-0.129332 -0.0525092 0)
(-0.0860253 -0.0318957 0)
(-0.0799527 -0.00413582 0)
(-0.112692 0.000198516 0)
(-0.195589 -0.00891984 0)
(-0.289878 -0.0543908 0)
(-0.270354 -0.176825 0)
(-0.114178 -0.24155 0)
(0.0447973 -0.092669 0)
(0.0535222 -0.480044 0)
(0.291548 -0.169782 0)
(0.336001 0.0162228 0)
(0.328265 0.0675453 0)
(0.235514 0.0761847 0)
(0.0705762 0.0381461 0)
(0.0183019 -0.0222524 0)
(0.0402274 0.0373485 0)
(-0.119312 0.210781 0)
(-0.31474 0.29428 0)
(-0.594497 0.352633 0)
(-0.692346 0.307462 0)
(-0.577257 0.125958 0)
(-0.446778 -0.0155853 0)
(-0.362289 -0.061154 0)
(-0.339088 -0.0263635 0)
(-0.417532 0.044559 0)
(-0.606896 0.10753 0)
(-0.770571 0.110694 0)
(-0.712789 -0.115625 0)
(-0.438545 -0.469378 0)
(-0.25851 -0.484678 0)
(-0.121458 -0.255715 0)
(-0.125798 -0.613142 0)
(0.0978922 -0.2063 0)
(-0.116309 0.0457722 0)
(-0.0166149 0.22266 0)
(-0.0686269 0.265339 0)
(-0.220516 0.180682 0)
(-1.77776 0.232106 0)
(-2.40983 0.547762 0)
(-2.37189 0.642011 0)
(-2.27536 0.481417 0)
(-2.16932 0.161917 0)
(-1.79605 -0.18958 0)
(-1.39601 -0.373208 0)
(-1.0424 -0.287204 0)
(-0.908623 -0.152966 0)
(-0.860702 0.10998 0)
(-1.02032 0.338096 0)
(-1.14813 0.32736 0)
(-0.998933 0.0906968 0)
(-0.560281 -0.430802 0)
(-0.395669 -0.66378 0)
(-0.357327 -0.579927 0)
(-0.322439 -0.339825 0)
(-0.354115 -0.273548 0)
(-0.499105 0.0456482 0)
(-0.450027 0.101194 0)
(-0.222349 0.0763315 0)
(-0.260329 0.343316 0)
(-0.74724 1.15036 0)
(-2.22927 1.34666 0)
(-2.02073 0.417774 0)
(-1.82245 0.169272 0)
(-1.83103 0.307028 0)
(-1.60049 -0.101389 0)
(-1.37121 -0.527732 0)
(-1.29878 -0.615026 0)
(-1.23201 -0.533679 0)
(-1.12059 -0.342866 0)
(-1.0161 0.0457792 0)
(-0.998026 0.406674 0)
(-0.941593 0.172858 0)
(-0.667435 -0.331705 0)
(-0.538258 -0.642733 0)
(-0.505427 -0.667758 0)
(-0.540572 -0.536532 0)
(-0.583619 -0.319624 0)
(-0.432676 0.0534816 0)
(-0.624766 0.0215185 0)
(0.0358961 -0.355883 0)
(-0.12238 0.00155924 0)
(-0.38857 1.23195 0)
(-1.10083 2.1701 0)
(-1.8576 2.05828 0)
(-1.51791 0.650973 0)
(-1.51303 0.174092 0)
(-1.24691 0.186263 0)
(-0.807099 -0.0486083 0)
(-0.943948 -0.346373 0)
(-1.17493 -0.524796 0)
(-1.22187 -0.568188 0)
(-1.17737 -0.369954 0)
(-1.12806 -0.0540552 0)
(-1.0491 0.220812 0)
(-0.902629 0.1722 0)
(-0.798669 -0.450841 0)
(-0.760484 -0.696839 0)
(-0.730669 -0.655724 0)
(-0.754226 -0.463422 0)
(-0.835076 -0.234012 0)
(-0.426879 0.433389 0)
(-0.409283 -0.220907 0)
(0.389635 -1.00721 0)
(0.313007 0.392395 0)
(-0.0550063 1.64927 0)
(-0.71975 2.52737 0)
(-0.876089 2.17124 0)
(-0.215877 0.642978 0)
(-0.334669 -0.0696088 0)
(-0.21828 -0.372861 0)
(-0.0668435 -0.374994 0)
(-0.444509 -0.0841015 0)
(-1.03297 -0.296578 0)
(-1.23454 -0.504125 0)
(-1.31141 -0.419018 0)
(-1.31445 -0.080462 0)
(-1.27363 0.0611782 0)
(-1.1511 -0.235371 0)
(-1.03065 -0.588012 0)
(-0.943294 -0.771538 0)
(-0.889283 -0.67351 0)
(-0.863437 -0.421888 0)
(-0.894446 -0.180631 0)
(-0.317223 0.798501 0)
(-0.0881015 -0.5448 0)
(-1.41674 0.11309 0)
(-1.8674 0.527842 0)
(-0.974547 1.39926 0)
(-0.126193 2.27492 0)
(0.595416 1.62906 0)
(1.52953 0.481221 0)
(1.57688 -0.061485 0)
(1.13578 -0.100158 0)
(0.543881 0.297988 0)
(0.188094 0.554927 0)
(-0.292491 0.343183 0)
(-0.560554 0.0114503 0)
(-1.64259 -0.10576 0)
(-1.7356 0.110231 0)
(-1.54789 0.253761 0)
(-1.41447 -0.109726 0)
(-1.11882 -0.773615 0)
(-1.04828 -0.852854 0)
(-0.98167 -0.712044 0)
(-0.897081 -0.4446 0)
(-0.856099 -0.138969 0)
(-0.207636 1.1193 0)
(-0.946807 0.417951 0)
(-1.96514 0.387298 0)
(-2.11937 0.423521 0)
(-1.88476 0.592177 0)
(-1.28177 0.734987 0)
(-0.534844 0.664727 0)
(-0.224828 0.466089 0)
(-0.36236 0.418313 0)
(-0.575078 0.323735 0)
(-0.760683 0.198277 0)
(-0.816857 0.152563 0)
(-1.01784 0.313714 0)
(-1.19069 0.784881 0)
(-1.6709 0.085472 0)
(-1.61244 -0.235298 0)
(-1.43052 -0.237346 0)
(-1.22214 -0.446468 0)
(-1.16894 -0.768647 0)
(-1.14807 -0.920568 0)
(-1.06217 -0.76924 0)
(-0.949798 -0.512877 0)
(-0.816257 -0.187161 0)
(-0.140321 1.46274 0)
(-0.630343 1.47955 0)
(-1.85017 0.741916 0)
(-1.96584 0.414454 0)
(-1.95536 0.350182 0)
(-1.77803 0.290453 0)
(-1.58463 0.146578 0)
(-1.45733 0.0249774 0)
(-1.39243 0.0111186 0)
(-1.38228 0.202277 0)
(-1.36322 0.646786 0)
(-1.50826 0.591708 0)
(-1.83496 0.851569 0)
(-1.85235 0.986517 0)
(-1.63134 0.246729 0)
(-1.54036 -0.0687389 0)
(-1.39524 -0.287909 0)
(-1.23882 -0.543863 0)
(-1.18499 -0.830178 0)
(-1.22231 -0.99911 0)
(-1.19387 -0.911874 0)
(-1.04897 -0.631122 0)
(-0.862643 -0.327413 0)
(-0.209871 1.61533 0)
(-0.0210603 2.71791 0)
(-1.35526 1.42419 0)
(-1.67857 0.516272 0)
(-1.83707 0.403961 0)
(-1.80696 0.375619 0)
(-1.79549 0.337433 0)
(-1.84899 0.292309 0)
(-1.96486 0.277001 0)
(-2.16424 0.386066 0)
(-2.45931 0.871685 0)
(-2.36274 0.978663 0)
(-2.19023 0.754924 0)
(-1.79528 0.387231 0)
(-1.48067 -0.0687042 0)
(-1.32923 -0.316967 0)
(-1.18439 -0.525256 0)
(-1.07931 -0.702405 0)
(-1.05915 -0.837361 0)
(-1.13154 -0.944661 0)
(-1.1945 -0.98589 0)
(-1.17127 -0.838 0)
(-1.00148 -0.54164 0)
(-0.326973 1.62943 0)
(0.262823 3.51989 0)
(-0.995129 2.35036 0)
(-1.15323 1.00017 0)
(-1.51715 0.540084 0)
(-1.74012 0.416457 0)
(-1.96245 0.450516 0)
(-2.18752 0.51247 0)
(-2.40078 0.552807 0)
(-2.45259 0.523755 0)
(-2.28538 0.481078 0)
(-2.00443 0.414001 0)
(-1.69012 0.288506 0)
(-1.38716 0.0577824 0)
(-1.16256 -0.213882 0)
(-1.03058 -0.410127 0)
(-0.921289 -0.57561 0)
(-0.851434 -0.70788 0)
(-0.847994 -0.782487 0)
(-0.913911 -0.838828 0)
(-1.02144 -0.893033 0)
(-1.13721 -0.920208 0)
(-1.04613 -0.819464 0)
(-0.39405 1.6134 0)
(0.354573 3.67498 0)
(-0.572908 2.94891 0)
(-0.789967 1.4351 0)
(-1.1515 0.838858 0)
(-1.34016 0.648489 0)
(-1.56155 0.595606 0)
(-1.72321 0.584687 0)
(-1.83458 0.54023 0)
(-1.83781 0.473722 0)
(-1.70381 0.394773 0)
(-1.45833 0.244242 0)
(-1.17947 0.0548552 0)
(-0.941892 -0.158616 0)
(-0.768042 -0.334591 0)
(-0.654572 -0.472543 0)
(-0.5838 -0.616089 0)
(-0.571424 -0.717866 0)
(-0.610141 -0.7582 0)
(-0.65928 -0.773894 0)
(-0.712961 -0.769937 0)
(-0.824952 -0.725241 0)
(-0.883499 -0.680887 0)
(-0.414778 1.5821 0)
(0.398197 3.67845 0)
(-0.36166 3.30254 0)
(-0.39824 1.70433 0)
(-0.767439 1.02657 0)
(-0.8724 0.86667 0)
(-1.06945 0.77463 0)
(-1.1581 0.698968 0)
(-1.18998 0.55834 0)
(-1.1416 0.384741 0)
(-1.02757 0.202752 0)
(-0.862647 0.005404 0)
(-0.677206 -0.167607 0)
(-0.516695 -0.313961 0)
(-0.399262 -0.445821 0)
(-0.325637 -0.550782 0)
(-0.293897 -0.633544 0)
(-0.304286 -0.685303 0)
(-0.358497 -0.700124 0)
(-0.426254 -0.705114 0)
(-0.479725 -0.722862 0)
(-0.531337 -0.69774 0)
(-0.578865 -0.677055 0)
(-0.417271 1.52549 0)
(0.388686 3.82461 0)
(-0.47924 3.42797 0)
(-0.0759801 1.92145 0)
(-0.530693 1.17331 0)
(-0.507876 1.02432 0)
(-0.720954 0.895735 0)
(-0.783998 0.780148 0)
(-0.820915 0.582675 0)
(-0.787716 0.344553 0)
(-0.716464 0.105358 0)
(-0.622745 -0.102332 0)
(-0.516 -0.274004 0)
(-0.40985 -0.416908 0)
(-0.321075 -0.523011 0)
(-0.251902 -0.599216 0)
(-0.206283 -0.650715 0)
(-0.18383 -0.670198 0)
(-0.182703 -0.662072 0)
(-0.205765 -0.648986 0)
(-0.257369 -0.638968 0)
(-0.298222 -0.649334 0)
(-0.323135 -0.644049 0)
(-0.395716 1.54986 0)
(0.35344 3.94825 0)
(-0.551911 3.43531 0)
(0.128881 2.04081 0)
(-0.426844 1.3022 0)
(-0.30926 1.15416 0)
(-0.585322 1.01223 0)
(-0.693565 0.867033 0)
(-0.831661 0.627873 0)
(-0.912265 0.339876 0)
(-0.932277 0.0498202 0)
(-0.864402 -0.20531 0)
(-0.723037 -0.415806 0)
(-0.568815 -0.557936 0)
(-0.431786 -0.645114 0)
(-0.322893 -0.695882 0)
(-0.241575 -0.719177 0)
(-0.181964 -0.71603 0)
(-0.134263 -0.688881 0)
(-0.0984084 -0.648952 0)
(-0.0860461 -0.617015 0)
(-0.115855 -0.603269 0)
(-0.125125 -0.605136 0)
(-0.394455 1.5844 0)
(0.32223 4.00309 0)
(-0.518118 3.42751 0)
(0.236471 2.0636 0)
(-0.372976 1.43787 0)
(-0.261563 1.3039 0)
(-0.628346 1.19788 0)
(-0.85717 1.0527 0)
(-1.13318 0.790278 0)
(-1.29342 0.434587 0)
(-1.29903 0.0287815 0)
(-1.1595 -0.347062 0)
(-0.939598 -0.602858 0)
(-0.703848 -0.735872 0)
(-0.504467 -0.790916 0)
(-0.355299 -0.80665 0)
(-0.250448 -0.802897 0)
(-0.175667 -0.783672 0)
(-0.116819 -0.747765 0)
(-0.0662284 -0.698426 0)
(-0.0177282 -0.641536 0)
(0.0114654 -0.607605 0)
(0.0171714 -0.594016 0)
(-0.303357 1.50585 0)
(0.228564 4.05312 0)
(-0.511047 3.36325 0)
(0.237348 2.04796 0)
(-0.347945 1.611 0)
(-0.327312 1.52839 0)
(-0.777167 1.50017 0)
(-1.12059 1.37077 0)
(-1.44617 1.03858 0)
(-1.58315 0.512281 0)
(-1.54145 -0.0873692 0)
(-1.35932 -0.593074 0)
(-1.08786 -0.899495 0)
(-0.781059 -1.00763 0)
(-0.524238 -0.999056 0)
(-0.336135 -0.952501 0)
(-0.210352 -0.900742 0)
(-0.129325 -0.851629 0)
(-0.0743415 -0.800776 0)
(-0.0315483 -0.747242 0)
(0.00805735 -0.693819 0)
(0.0510143 -0.643762 0)
(0.084266 -0.614378 0)
(-0.578388 1.8622 0)
(0.0016599 4.19816 0)
(-0.544257 3.22054 0)
(0.150728 2.02316 0)
(-0.341512 1.82667 0)
(-0.407011 1.82516 0)
(-0.853655 1.86467 0)
(-1.18243 1.68695 0)
(-1.43227 1.18554 0)
(-1.50456 0.471246 0)
(-1.45989 -0.251167 0)
(-1.30376 -0.863455 0)
(-1.06523 -1.2375 0)
(-0.747103 -1.3346 0)
(-0.467427 -1.24996 0)
(-0.267106 -1.12314 0)
(-0.134868 -1.0092 0)
(-0.0548658 -0.919572 0)
(-0.00670253 -0.846037 0)
(0.023818 -0.781613 0)
(0.0469539 -0.725868 0)
(0.0693692 -0.681179 0)
(0.0952708 -0.64771 0)
(-0.764258 2.10928 0)
(0.450427 4.12616 0)
(-0.257259 3.22439 0)
(0.0616837 2.01294 0)
(-0.299801 2.04053 0)
(-0.349556 2.11171 0)
(-0.686344 2.16359 0)
(-0.892956 1.91772 0)
(-1.03279 1.32224 0)
(-1.07022 0.532866 0)
(-1.02719 -0.322875 0)
(-0.90521 -1.0653 0)
(-0.750585 -1.52502 0)
(-0.53372 -1.6312 0)
(-0.290448 -1.4886 0)
(-0.124682 -1.28362 0)
(-0.0162856 -1.10788 0)
(0.0448474 -0.976575 0)
(0.077125 -0.878558 0)
(0.0927749 -0.800748 0)
(0.100085 -0.738896 0)
(0.103553 -0.693039 0)
(0.10645 -0.662408 0)
(-0.752803 2.05789 0)
(0.528706 3.78988 0)
(0.310222 3.42343 0)
(0.0523839 2.13308 0)
(-0.220089 2.1339 0)
(-0.1131 2.28273 0)
(-0.246191 2.33714 0)
(-0.293229 2.04014 0)
(-0.334558 1.42738 0)
(-0.338202 0.606318 0)
(-0.319618 -0.312923 0)
(-0.241383 -1.1435 0)
(-0.169478 -1.67817 0)
(-0.12251 -1.81286 0)
(0.010026 -1.65131 0)
(0.0938596 -1.39229 0)
(0.145507 -1.16911 0)
(0.169181 -1.0066 0)
(0.174093 -0.890208 0)
(0.169144 -0.802678 0)
(0.159675 -0.735632 0)
(0.14783 -0.686777 0)
(0.133852 -0.653735 0)
(-0.661361 1.9377 0)
(0.620334 3.49854 0)
(0.541409 3.52629 0)
(0.329058 2.53827 0)
(0.0421657 2.09253 0)
(0.195757 2.17876 0)
(0.332428 2.28962 0)
(0.478904 2.05432 0)
(0.545962 1.49865 0)
(0.567478 0.705468 0)
(0.558447 -0.244039 0)
(0.603854 -1.14905 0)
(0.539314 -1.69749 0)
(0.424373 -1.84478 0)
(0.39328 -1.68643 0)
(0.367072 -1.41122 0)
(0.337481 -1.16916 0)
(0.308316 -0.995375 0)
(0.278009 -0.873315 0)
(0.248143 -0.78364 0)
(0.220332 -0.715896 0)
(0.19412 -0.666025 0)
(0.167471 -0.631134 0)
(-0.247625 1.72228 0)
(0.581026 3.10689 0)
(0.861039 3.41064 0)
(0.887207 2.98477 0)
(0.683625 2.27309 0)
(0.70716 1.94549 0)
(0.940717 1.94646 0)
(1.22597 1.8247 0)
(1.4259 1.41092 0)
(1.524 0.733507 0)
(1.52406 -0.148135 0)
(1.47626 -1.0323 0)
(1.26561 -1.57976 0)
(1.00021 -1.72207 0)
(0.799777 -1.57192 0)
(0.64717 -1.31929 0)
(0.531629 -1.09655 0)
(0.446066 -0.936743 0)
(0.378961 -0.82449 0)
(0.323798 -0.742143 0)
(0.277797 -0.679818 0)
(0.238265 -0.6328 0)
(0.201711 -0.598134 0)
(0.0332141 1.70234 0)
(0.549512 2.7191 0)
(0.974167 3.08483 0)
(1.37974 2.87822 0)
(1.57041 2.39446 0)
(1.55832 1.94878 0)
(1.7249 1.66923 0)
(1.98827 1.49185 0)
(2.22448 1.18833 0)
(2.3585 0.662712 0)
(2.36211 -0.0716346 0)
(2.22536 -0.829995 0)
(1.89349 -1.31097 0)
(1.49163 -1.43169 0)
(1.14155 -1.31539 0)
(0.880361 -1.12321 0)
(0.694943 -0.956096 0)
(0.563132 -0.83454 0)
(0.465341 -0.746546 0)
(0.389121 -0.680261 0)
(0.327885 -0.629005 0)
(0.277132 -0.589044 0)
(0.232937 -0.557852 0)
(0.0332259 1.36025 0)
(0.434124 2.14669 0)
(0.922473 2.58802 0)
(1.45357 2.50867 0)
(1.95824 2.16399 0)
(2.35987 1.79785 0)
(2.62226 1.54618 0)
(2.79894 1.32147 0)
(2.95104 1.05236 0)
(3.01364 0.638373 0)
(2.95365 0.0535596 0)
(2.71443 -0.535079 0)
(2.28139 -0.900987 0)
(1.77662 -1.00331 0)
(1.33821 -0.953543 0)
(1.01964 -0.856972 0)
(0.799705 -0.771216 0)
(0.643257 -0.702992 0)
(0.527441 -0.648143 0)
(0.438065 -0.603575 0)
(0.36682 -0.567151 0)
(0.308307 -0.537236 0)
(0.258743 -0.512385 0)
(0.00337922 1.06951 0)
(0.314451 1.66162 0)
(0.834037 1.90005 0)
(1.43072 1.79121 0)
(2.01084 1.55935 0)
(2.51113 1.339 0)
(2.90191 1.22615 0)
(3.15818 1.1562 0)
(3.28259 0.991274 0)
(3.26478 0.688511 0)
(3.09627 0.259758 0)
(2.74134 -0.164358 0)
(2.24197 -0.42903 0)
(1.74048 -0.536759 0)
(1.33535 -0.571583 0)
(1.04376 -0.581938 0)
(0.834829 -0.578101 0)
(0.679474 -0.562265 0)
(0.560789 -0.541178 0)
(0.467548 -0.519546 0)
(0.392351 -0.499162 0)
(0.330178 -0.480589 0)
(0.277796 -0.463645 0)
(0.0301578 0.981698 0)
(0.243953 1.30062 0)
(0.685272 1.31147 0)
(1.22164 1.13078 0)
(1.75614 0.917933 0)
(2.21652 0.792352 0)
(2.57806 0.815971 0)
(2.80177 0.894252 0)
(2.87889 0.918477 0)
(2.82738 0.796067 0)
(2.61736 0.533983 0)
(2.25972 0.249345 0)
(1.8477 0.0291227 0)
(1.48313 -0.134785 0)
(1.20067 -0.26403 0)
(0.985164 -0.355774 0)
(0.814243 -0.407423 0)
(0.677315 -0.43001 0)
(0.56742 -0.436747 0)
(0.478099 -0.435436 0)
(0.404299 -0.429968 0)
(0.342271 -0.422446 0)
(0.289593 -0.413693 0)
(0.0570585 0.879951 0)
(0.203161 1.03882 0)
(0.480238 0.915451 0)
(0.792459 0.715147 0)
(1.10298 0.557273 0)
(1.39863 0.52227 0)
(1.65037 0.618107 0)
(1.81493 0.784179 0)
(1.88387 0.91251 0)
(1.8901 0.904658 0)
(1.77688 0.766194 0)
(1.58164 0.556215 0)
(1.3746 0.326423 0)
(1.18821 0.110931 0)
(1.02989 -0.0673215 0)
(0.888253 -0.192575 0)
(0.759988 -0.270283 0)
(0.648236 -0.315966 0)
(0.553244 -0.342265 0)
(0.472743 -0.356656 0)
(0.404152 -0.363538 0)
(0.345212 -0.365689 0)
(0.294393 -0.364508 0)
(0.0629863 0.767916 0)
(0.164502 0.882549 0)
(0.300554 0.719141 0)
(0.415668 0.518378 0)
(0.500934 0.377569 0)
(0.594554 0.377659 0)
(0.712062 0.515498 0)
(0.822436 0.714987 0)
(0.915343 0.87214 0)
(0.995322 0.915545 0)
(1.02877 0.833065 0)
(1.02351 0.654627 0)
(0.997399 0.43057 0)
(0.947306 0.214213 0)
(0.871589 0.0421465 0)
(0.781586 -0.0813055 0)
(0.689779 -0.165942 0)
(0.603278 -0.223019 0)
(0.524987 -0.261175 0)
(0.455515 -0.28633 0)
(0.394299 -0.302491 0)
(0.340359 -0.312437 0)
(0.29297 -0.317728 0)
(0.0533561 0.67195 0)
(0.133087 0.793682 0)
(0.201934 0.648612 0)
(0.232639 0.482231 0)
(0.211725 0.356637 0)
(0.178368 0.339233 0)
(0.187054 0.449867 0)
(0.250519 0.617432 0)
(0.355054 0.754938 0)
(0.482293 0.80268 0)
(0.604453 0.7441 0)
(0.703868 0.600124 0)
(0.761193 0.418294 0)
(0.768137 0.244623 0)
(0.735219 0.10189 0)
(0.680094 -0.00751259 0)
(0.616235 -0.0895431 0)
(0.551093 -0.15002 0)
(0.488521 -0.194005 0)
(0.43038 -0.22567 0)
(0.37733 -0.248209 0)
(0.329349 -0.264009 0)
(0.286325 -0.274505 0)
(0.0376713 0.59313 0)
(0.106481 0.726721 0)
(0.155707 0.612807 0)
(0.171087 0.491401 0)
(0.142688 0.404335 0)
(0.0895319 0.378036 0)
(0.0616773 0.434158 0)
(0.0941006 0.537881 0)
(0.184294 0.62537 0)
(0.309976 0.653088 0)
(0.441951 0.607087 0)
(0.549886 0.503359 0)
(0.614344 0.374227 0)
(0.634685 0.246714 0)
(0.622097 0.134137 0)
(0.589057 0.0405497 0)
(0.545426 -0.0345916 0)
(0.497334 -0.0937898 0)
(0.448261 -0.139594 0)
(0.400575 -0.1746 0)
(0.355564 -0.20111 0)
(0.313782 -0.220997 0)
(0.275521 -0.235454 0)
(0.0236018 0.532323 0)
(0.0815363 0.667082 0)
(0.126691 0.577165 0)
(0.146728 0.489103 0)
(0.140473 0.437849 0)
(0.115267 0.421952 0)
(0.100954 0.445755 0)
(0.125137 0.493644 0)
(0.191415 0.532208 0)
(0.284873 0.536995 0)
(0.382213 0.498869 0)
(0.46139 0.426067 0)
(0.511277 0.334866 0)
(0.531969 0.239819 0)
(0.529306 0.150372 0)
(0.510211 0.0713125 0)
(0.480506 0.00435339 0)
(0.444991 -0.0511548 0)
(0.40701 -0.0962235 0)
(0.3685 -0.132345 0)
(0.330886 -0.160974 0)
(0.295061 -0.18348 0)
(0.261577 -0.200786 0)
(0.0144746 0.488119 0)
(0.0606622 0.6153 0)
(0.103065 0.540899 0)
(0.126808 0.473064 0)
(0.136647 0.441222 0)
(0.136831 0.434 0)
(0.141741 0.443767 0)
(0.166166 0.460731 0)
(0.213639 0.470549 0)
(0.276406 0.461198 0)
(0.341067 0.427466 0)
(0.395343 0.372389 0)
(0.432424 0.303739 0)
(0.45098 0.229941 0)
(0.453093 0.157609 0)
(0.442277 0.0908784 0)
(0.422148 0.0317666 0)
(0.39612 -0.018956 0)
(0.366743 -0.0619548 0)
(0.335814 -0.097746 0)
(0.304728 -0.127186 0)
(0.274388 -0.151208 0)
(0.245478 -0.170475 0)
(0.00956093 0.455877 0)
(0.0462041 0.571717 0)
(0.0848038 0.50738 0)
(0.109232 0.452412 0)
(0.12531 0.430081 0)
(0.137244 0.42546 0)
(0.152312 0.427545 0)
(0.177223 0.429752 0)
(0.213706 0.425627 0)
(0.257889 0.409429 0)
(0.30282 0.378337 0)
(0.34166 0.333481 0)
(0.369881 0.278903 0)
(0.385785 0.219602 0)
(0.38989 0.159998 0)
(0.383986 0.103288 0)
(0.370354 0.0514035 0)
(0.35108 0.00531043 0)
(0.328295 -0.0349803 0)
(0.303646 -0.0695862 0)
(0.278124 -0.0990084 0)
(0.252692 -0.123779 0)
(0.228072 -0.144352 0)
(0.00700186 0.430975 0)
(0.0372577 0.534811 0)
(0.0718725 0.476829 0)
(0.0956445 0.431038 0)
(0.113329 0.414512 0)
(0.129113 0.410348 0)
(0.147497 0.407571 0)
(0.171442 0.401963 0)
(0.20129 0.390761 0)
(0.234754 0.371398 0)
(0.267977 0.342399 0)
(0.296978 0.304233 0)
(0.318822 0.259095 0)
(0.332094 0.21 0)
(0.336755 0.159899 0)
(0.333699 0.111166 0)
(0.324299 0.0654296 0)
(0.310024 0.0236177 0)
(0.292403 -0.0137109 0)
(0.2727 -0.0468163 0)
(0.251873 -0.0757145 0)
(0.23076 -0.100714 0)
(0.210019 -0.122127 0)
(0.00560129 0.410654 0)
(0.0316359 0.502779 0)
(0.0626185 0.4488 0)
(0.0850599 0.410153 0)
(0.102674 0.397718 0)
(0.119284 0.393422 0)
(0.137928 0.387445 0)
(0.159881 0.377456 0)
(0.184812 0.362728 0)
(0.211163 0.342242 0)
(0.236643 0.315206 0)
(0.258876 0.281809 0)
(0.275985 0.243302 0)
(0.286915 0.201576 0)
(0.291445 0.15863 0)
(0.290014 0.116201 0)
(0.283465 0.0755946 0)
(0.272838 0.037679 0)
(0.259086 0.00297296 0)
(0.243298 -0.0284485 0)
(0.226387 -0.0565485 0)
(0.208938 -0.0814729 0)
(0.19154 -0.103381 0)
(0.00488975 0.393328 0)
(0.0278151 0.474485 0)
(0.0554453 0.423311 0)
(0.0760586 0.390529 0)
(0.0927855 0.381052 0)
(0.10899 0.376367 0)
(0.126702 0.368291 0)
(0.146296 0.355983 0)
(0.167205 0.33976 0)
(0.188348 0.319293 0)
(0.208333 0.294121 0)
(0.225702 0.26432 0)
(0.239238 0.230668 0)
(0.248175 0.194405 0)
(0.252267 0.15691 0)
(0.251723 0.119451 0)
(0.247067 0.0830499 0)
(0.238996 0.0484484 0)
(0.228238 0.0161115 0)
(0.215575 -0.0136102 0)
(0.201687 -0.0408027 0)
(0.187138 -0.065407 0)
(0.172354 -0.0875079 0)
(0.00467571 0.377957 0)
(0.0250723 0.449442 0)
(0.0494127 0.400514 0)
(0.0679019 0.372635 0)
(0.0832909 0.365286 0)
(0.0984758 0.360147 0)
(0.114744 0.350775 0)
(0.131955 0.337399 0)
(0.14951 0.320804 0)
(0.16668 0.300932 0)
(0.1826 0.277485 0)
(0.19635 0.250513 0)
(0.207124 0.220543 0)
(0.214374 0.188428 0)
(0.217887 0.155141 0)
(0.217755 0.121615 0)
(0.214306 0.0886494 0)
(0.208008 0.0568696 0)
(0.199396 0.0267216 0)
(0.188967 -0.0014892 0)
(0.177263 -0.0276737 0)
(0.164803 -0.0517442 0)
(0.151847 -0.0737404 0)
(0.00476271 0.363819 0)
(0.022995 0.427328 0)
(0.0440605 0.380453 0)
(0.0603127 0.356658 0)
(0.0741333 0.350776 0)
(0.0879866 0.345195 0)
(0.102587 0.335102 0)
(0.117505 0.321421 0)
(0.132217 0.305069 0)
(0.146239 0.286061 0)
(0.159018 0.264191 0)
(0.169956 0.239518 0)
(0.178507 0.21243 0)
(0.184283 0.18354 0)
(0.187112 0.153555 0)
(0.187026 0.123178 0)
(0.184222 0.0930427 0)
(0.179005 0.0636771 0)
(0.171734 0.0354855 0)
(0.16278 0.00874733 0)
(0.152541 -0.0163313 0)
(0.141427 -0.039684 0)
(0.129657 -0.0613369 0)
(0.00494926 0.350724 0)
(0.0213084 0.408103 0)
(0.0392394 0.363279 0)
(0.0532446 0.342784 0)
(0.0653796 0.33782 0)
(0.0777602 0.331844 0)
(0.0906153 0.321442 0)
(0.103371 0.307914 0)
(0.115619 0.292127 0)
(0.127039 0.274082 0)
(0.137268 0.25364 0)
(0.145899 0.23088 0)
(0.152556 0.206108 0)
(0.156962 0.179785 0)
(0.15898 0.152444 0)
(0.158611 0.124633 0)
(0.155968 0.0968693 0)
(0.151246 0.0696038 0)
(0.144691 0.0432015 0)
(0.136581 0.0179336 0)
(0.127231 -0.00601304 0)
(0.116983 -0.0286053 0)
(0.10613 -0.0498766 0)
(0.0050582 0.337831 0)
(0.0196448 0.390771 0)
(0.0346136 0.34839 0)
(0.0463899 0.330614 0)
(0.0567413 0.326102 0)
(0.0675296 0.319769 0)
(0.0785512 0.309355 0)
(0.0892052 0.296277 0)
(0.0992046 0.281238 0)
(0.108328 0.264206 0)
(0.116324 0.245098 0)
(0.122908 0.224009 0)
(0.127814 0.201191 0)
(0.130848 0.177002 0)
(0.13191 0.151863 0)
(0.130992 0.126216 0)
(0.128169 0.10049 0)
(0.123579 0.0750724 0)
(0.117414 0.0502819 0)
(0.109916 0.0263572 0)
(0.101305 0.00345994 0)
(0.0920315 -0.0183669 0)
(0.0825384 -0.0396738 0)
(0.00506176 0.327993 0)
(0.0183396 0.377938 0)
(0.0309874 0.337668 0)
(0.0407372 0.321749 0)
(0.0494724 0.317367 0)
(0.0588783 0.310787 0)
(0.0683216 0.300502 0)
(0.0772052 0.287928 0)
(0.08535 0.273587 0)
(0.0925859 0.257423 0)
(0.0987276 0.239405 0)
(0.103571 0.219635 0)
(0.106931 0.198327 0)
(0.108685 0.175774 0)
(0.108776 0.152321 0)