/*--------------------------------*- C++ -*----------------------------------*\
| =========                 |                                                 |
| \\      /  F ield         | OpenFOAM: The Open Source CFD Toolbox           |
|  \\    /   O peration     | Version:  5.x                                   |
|   \\  /    A nd           | Web:      www.OpenFOAM.org                      |
|    \\/     M anipulation  |                                                 |
\*---------------------------------------------------------------------------*/
FoamFile
{
    version     2.0;
    format      ascii;
    class       volScalarField;
    location    "0.45";
    object      alpha.water;
}
// * * * * * * * * * * * * * * * * * * * * * * * * * * * * * * * * * * * * * //

dimensions      [0 0 0 0 0 0 0];

internalField   nonuniform List<scalar> 
2268
(
1
1
1
1
1
1
1
1
1
1
1
1
1
1
1
1
1
1
1
0.926217
0.712165
1
1
1
1
1
1
1
1
1
1
1
1
1
1
1
1
1
1
1
1
1
0.989392
0.797092
0.957815
1
1
1
1
1
1
1
1
1
1
1
1
1
1
1
1
1
1
1
1
1
0.984487
0.993082
0.997999
1
1
1
1
1
1
1
1
1
1
1
1
1
1
1
1
1
1
1
1
0.999995
0.999992
0.994654
1
1
1
1
1
1
1
1
1
1
1
1
1
1
1
1
1
1
1
1
1
0.999994
1
1
1
1
1
1
1
1
1
1
1
1
1
1
1
1
1
1
1
1
1
1
0.999998
1
1
1
1
0.999998
0.999998
0.999998
0.999999
1
1
1
1
1
1
1
1
1
1
1
1
1
1
1
1
1
1
0.999996
0.999982
0.99998
0.999988
0.999995
0.999999
1
1
1
1
1
1
1
1
1
1
1
1
1
1
1
0
0
4.60325e-06
2.4579e-06
6.18062e-08
-2.73792e-24
-1.7112e-25
0
1.84401e-14
3.09371e-14
3.13497e-17
3.23587e-15
1.2814e-13
9.99869e-13
1.16748e-11
4.11927e-10
1.19426e-09
-6.8448e-25
0
-1.33649e-21
5.87595e-06
2.87486e-05
2.08608e-05
8.43882e-07
2.09742e-08
2.17154e-09
1.07854e-10
1.91921e-12
2.16748e-15
4.23904e-16
1.25274e-14
4.19134e-13
3.49805e-12
2.49291e-11
7.41973e-09
2.83998e-08
5.1345e-09
0
2.13839e-20
0.000571484
0.000387804
0.000105871
1.61932e-06
1.35032e-07
8.01697e-09
2.51023e-10
3.44069e-12
4.17214e-14
8.07774e-15
4.441e-14
1.69293e-12
2.47104e-11
3.86401e-10
7.77119e-08
3.57325e-07
1.53481e-07
0
8.71033e-20
0.0131169
0.00828745
0.0016725
7.87509e-06
4.28066e-07
1.39149e-08
4.63154e-10
5.71591e-12
3.15852e-13
7.47438e-14
2.81921e-13
9.47492e-12
1.65777e-10
3.50016e-09
6.01197e-07
3.36029e-06
1.95296e-06
0
3.18936e-05
0.0179166
0.0139845
0.00210674
6.33011e-06
3.21105e-07
9.49723e-09
1.61539e-10
3.9454e-12
2.95301e-12
5.23238e-13
1.87076e-12
5.77275e-11
1.0884e-09
2.42985e-08
3.7585e-06
2.43074e-05
1.5911e-05
-1.28763e-11
-5.82128e-08
0.0133321
6.01848e-05
0.000606431
0.000108075
1.34534e-06
3.76591e-09
8.29468e-11
9.95177e-12
1.29581e-11
2.77183e-12
8.02125e-12
2.00871e-10
5.29144e-09
1.25687e-07
1.93264e-05
0.000130709
8.45005e-05
-6.10272e-10
0.20385
6.01848e-05
5.05583e-05
0.000106665
7.46254e-05
3.53031e-06
1.25111e-09
3.59612e-11
1.44526e-11
1.40014e-11
4.66848e-12
1.98712e-11
4.87234e-10
1.78776e-08
4.63361e-07
8.22059e-05
0.000595609
0.000375254
-1.55249e-08
0.593325
4.05561e-05
6.66139e-06
9.82017e-06
7.65766e-06
1.6307e-06
3.09518e-10
2.01974e-11
1.49488e-11
1.44527e-11
1.76022e-10
1.13236e-10
9.11385e-10
3.92032e-08
1.16305e-06
0.000122239
0.00280105
0.00680571
-1.98951e-07
1
1
0.999926
0.999807
0.999809
0.99987
0.999925
0.999963
0.999983
0.999992
0.999997
0.999999
1
1
0.999999
1
1
1
1
1
1
1
1
1
0.983607
0.866431
0.773166
0.796439
0.833331
0.854645
0.877868
0.906687
0.934988
0.959233
0.978827
0.99262
0.998875
0.999891
1
1
1
1
1
1
1
1
0.757899
0.408505
0.133021
0.0783812
0.118299
0.140695
0.143653
0.159523
0.192548
0.237221
0.291191
0.359653
0.451835
0.575824
0.717652
0.88899
1
1
1
1
1
1
1
0.00839914
8.43421e-18
2.80889e-16
3.31017e-15
6.06729e-15
1.15865e-14
4.48341e-14
1.39807e-13
2.02646e-12
6.51366e-11
1.3654e-09
3.04989e-09
2.70751e-08
6.5868e-07
0.028391
0.0821874
0.190217
0.417992
0.796364
1
1
1
1
-4.36057e-31
1.57718e-19
8.43473e-18
6.46362e-15
4.53891e-13
2.74559e-12
3.62352e-12
4.38458e-12
1.06361e-10
2.88498e-10
1.10233e-09
2.00712e-09
3.04989e-09
2.70751e-08
6.5868e-07
6.92354e-06
9.40433e-05
0.0101711
0.0620527
0.180653
0.425796
0.858159
0.999999
0
4.40518e-18
4.25354e-15
2.44618e-13
6.68429e-12
4.26841e-11
7.38263e-11
5.36819e-12
3.65963e-09
8.87061e-08
1.37187e-07
1.53093e-08
1.33349e-08
2.8978e-05
0.000277634
0.000315456
0.000199551
0.000186249
0.00018957
0.000195653
0.00541356
0.0831264
0.254995
0
2.45908e-18
4.28007e-15
4.58087e-13
1.50033e-11
9.84893e-11
1.74058e-10
6.49488e-11
3.17597e-09
1.73168e-07
2.51636e-07
2.43739e-07
1.96522e-07
1.66935e-05
0.000254433
0.000320058
0.000165645
0.000185095
0.000289091
0.000486583
0.00016543
0.000119761
7.44509e-05
0
2.70504e-19
1.0682e-15
3.75956e-13
1.5224e-11
1.10691e-10
2.12779e-10
1.71856e-10
1.10362e-10
8.35141e-08
2.51473e-07
1.7395e-07
3.40287e-07
1.28423e-06
2.24496e-07
3.35912e-05
1.79432e-09
9.44291e-05
0.000110954
0.000181363
0.000383352
0.000238386
6.68529e-05
0
1.7558e-20
7.60848e-17
1.69895e-13
1.00466e-11
9.1587e-11
2.10888e-10
2.09422e-10
8.74862e-11
1.04704e-08
4.93569e-08
9.56236e-11
9.2014e-07
3.74101e-06
2.86502e-07
7.6377e-10
1.67511e-09
1.79432e-09
0.000104706
0.000152944
9.34295e-05
6.68535e-05
6.67268e-05
-6.24966e-23
1.73329e-21
1.48621e-17
6.38136e-14
4.57511e-12
4.56154e-11
1.20877e-10
1.37008e-10
8.74587e-11
7.85025e-11
7.84221e-11
7.85025e-11
8.79426e-07
3.22895e-06
2.79793e-07
5.41358e-12
1.29541e-09
2.7098e-07
0.00013898
0.000280876
0.000280863
9.45773e-05
6.66494e-05
-3.38188e-20
-1.50626e-30
2.63076e-18
2.10853e-14
1.62583e-12
1.55475e-11
4.13152e-11
4.32352e-11
4.31691e-11
8.67199e-11
7.83446e-11
2.02145e-09
1.59172e-07
5.75812e-12
5.41358e-12
5.34346e-12
4.47882e-09
2.22535e-06
6.91548e-07
0.000181107
0.000280876
0.000277182
6.80475e-05
-3.37555e-20
0
3.77972e-19
5.12929e-15
4.38106e-13
3.99855e-12
1.08167e-11
1.11565e-11
1.87662e-11
1.13879e-10
7.86479e-11
5.11925e-11
5.96086e-12
5.88392e-12
5.72184e-12
5.3424e-12
4.23638e-13
5.78215e-13
3.09227e-13
7.05543e-12
9.56406e-05
0.000161633
0.000279542
-1.78293e-20
-3.05881e-37
6.2233e-19
9.30671e-16
9.38501e-14
8.2764e-13
2.18371e-12
2.46714e-12
6.63635e-12
6.12874e-11
4.57451e-11
3.83544e-11
6.65149e-12
7.69188e-12
8.39992e-12
4.6426e-12
4.69822e-13
1.59383e-13
1.60702e-13
1.66069e-13
1.74924e-13
1.85328e-13
2.10346e-13
-1.01505e-20
1.89408e-39
9.43201e-19
1.3465e-16
1.60582e-14
1.41139e-13
3.57746e-13
4.64307e-13
1.10324e-12
5.62424e-12
8.97194e-12
1.03443e-11
8.96932e-12
8.29941e-12
6.32e-12
1.84115e-12
4.65563e-13
1.59383e-13
1.60216e-13
1.62013e-13
1.68338e-13
1.7535e-13
1.85329e-13
-7.10725e-21
-2.4799e-25
4.18846e-19
1.65568e-17
2.13155e-15
1.86674e-14
4.8593e-14
7.95192e-14
1.85267e-13
5.53153e-13
2.09731e-12
4.16625e-12
5.55917e-12
3.14258e-12
1.1097e-12
2.91108e-13
1.19318e-13
1.51327e-13
2.23903e-13
2.78768e-13
3.95898e-13
5.29454e-13
5.67199e-13
-5.32795e-21
-3.73376e-21
1.2208e-19
1.75014e-18
2.18593e-16
1.93808e-15
5.54137e-15
1.27382e-14
3.83554e-14
1.41183e-13
4.71204e-13
6.89155e-13
7.58323e-13
1.70495e-13
8.50161e-14
4.29321e-14
1.32782e-14
5.46589e-15
1.03076e-14
9.46385e-14
6.20202e-13
1.73599e-12
2.94268e-12
-3.65631e-21
-5.18132e-21
2.13576e-20
1.69282e-19
1.65213e-17
1.54991e-16
5.89148e-16
2.17591e-15
7.82708e-15
2.35465e-14
5.42144e-14
5.55778e-14
3.99841e-14
2.06193e-14
9.36794e-15
4.48536e-15
1.52827e-15
5.84188e-16
8.82908e-16
7.85851e-15
7.16473e-14
4.73916e-13
1.93275e-12
-2.13999e-21
-3.5871e-21
1.29922e-21
1.56314e-20
8.79116e-19
9.71542e-18
6.87024e-17
3.98018e-16
1.61237e-15
4.23393e-15
7.25093e-15
7.57011e-15
5.88774e-15
2.85087e-15
9.59283e-16
3.32883e-16
1.08454e-16
5.68924e-17
1.76412e-16
1.95324e-15
2.35149e-14
2.03159e-13
9.66608e-13
-1.03069e-21
-1.85579e-21
-7.14254e-22
1.01265e-21
3.11465e-20
5.84457e-19
8.95719e-18
6.73074e-17
3.01101e-16
8.38782e-16
1.43198e-15
1.47447e-15
1.15423e-15
5.46423e-16
1.45062e-16
3.06532e-17
8.38125e-18
6.49716e-18
3.3436e-17
4.88865e-16
8.35645e-15
1.01577e-13
5.85148e-13
-3.94261e-22
-7.49919e-22
-8.30026e-22
-2.17236e-23
5.62193e-22
4.4979e-20
1.01241e-18
9.17505e-18
4.77911e-17
1.45569e-16
2.66938e-16
2.79516e-16
2.21177e-16
1.0707e-16
2.76692e-17
4.3434e-18
9.41747e-19
9.47603e-19
7.58452e-18
1.38582e-16
3.35815e-15
5.62214e-14
3.78609e-13
-1.14094e-22
-2.25275e-22
-4.09903e-22
-1.054e-22
1.03237e-24
3.25277e-21
7.57969e-20
9.44959e-19
5.92718e-18
1.96413e-17
3.72525e-17
3.92357e-17
3.15194e-17
1.58455e-17
4.17073e-18
5.04996e-19
7.14153e-20
1.40853e-19
1.87927e-18
4.06766e-17
1.37549e-15
3.1123e-14
2.38756e-13
-2.32338e-23
-4.60768e-23
-1.10608e-22
-4.05495e-23
-2.50558e-25
1.04774e-22
3.41576e-21
7.26355e-20
5.33784e-19
1.88784e-18
3.59901e-18
3.77992e-18
3.07787e-18
1.62147e-18
4.53291e-19
4.89368e-20
7.1041e-21
2.75201e-20
4.88806e-19
1.14647e-17
5.27069e-16
1.57587e-14
1.35339e-13
-2.96485e-24
-5.60307e-24
-1.45212e-23
-5.25697e-24
-1.18526e-24
1.7958e-26
1.05121e-22
4.0252e-21
3.26997e-20
1.20384e-19
2.26932e-19
2.37113e-19
1.97075e-19
1.11908e-19
3.62033e-20
5.01598e-21
1.24627e-21
6.58085e-21
1.20768e-19
2.91124e-18
1.75807e-16
7.02647e-15
6.85898e-14
-1.86891e-25
-3.35e-25
-8.79672e-25
-3.09872e-25
-6.87613e-26
4.02746e-28
3.07389e-24
1.37074e-22
1.22671e-21
4.70744e-21
8.66783e-21
9.01439e-21
7.72263e-21
4.77756e-21
1.76048e-21
3.04301e-22
1.51583e-22
1.36692e-21
2.75293e-20
6.57208e-19
5.03101e-17
2.76359e-15
3.11645e-14
0
0
7.29959e-37
5.7149e-32
3.01321e-30
1.59536e-31
6.76142e-27
1.71069e-24
2.16782e-23
9.34877e-23
1.85545e-22
1.98656e-22
1.79295e-22
1.18913e-22
4.59125e-23
1.01316e-23
1.55844e-23
2.7422e-22
5.91292e-21
1.35511e-19
1.24057e-17
9.56492e-16
1.26318e-14
0
6.64101e-48
4.82272e-43
6.63586e-40
3.84768e-37
3.07987e-34
1.74969e-29
5.56568e-27
7.5445e-26
3.29254e-25
7.36149e-25
8.89515e-25
8.52895e-25
6.33353e-25
3.3042e-25
2.74649e-25
1.98206e-24
5.34089e-23
1.22417e-21
2.70813e-20
2.66591e-18
2.97915e-16
4.70975e-15
-3.38412e-47
0
2.33939e-47
2.12636e-44
1.41536e-41
6.68556e-38
2.35869e-32
1.79485e-29
3.68029e-28
2.1043e-27
6.23144e-27
1.17486e-26
1.37006e-26
1.33971e-26
1.0463e-26
1.66759e-26
3.28007e-25
9.8248e-24
2.48116e-22
5.56357e-21
5.10437e-19
8.52361e-17
1.65409e-15
-8.89198e-48
-1.22669e-48
1.63541e-50
3.09817e-45
2.67531e-43
2.8468e-42
1.71196e-39
2.30573e-34
2.41245e-31
5.88382e-30
3.57773e-29
1.05966e-28
1.57244e-28
1.55273e-28
1.45997e-28
1.34582e-27
5.18211e-26
1.71533e-24
4.88373e-23
1.17782e-21
8.77885e-20
2.21786e-17
5.42284e-16
-1.14754e-48
-1.86912e-49
2.9183e-71
1.57019e-52
4.18455e-49
7.22111e-47
2.98619e-44
9.73843e-39
1.61613e-34
1.33855e-32
1.08463e-31
3.71612e-31
6.20317e-31
6.48889e-31
3.95977e-30
1.8674e-28
7.60529e-27
2.7981e-25
8.99474e-24
2.41094e-22
1.36e-20
5.08069e-18
1.6129e-16
-1.31467e-60
1.62913e-57
2.73501e-54
9.65966e-54
2.64848e-49
1.71822e-47
5.8271e-47
9.08103e-45
4.09088e-40
1.5748e-36
5.99386e-35
3.9555e-34
8.24032e-34
8.26641e-33
4.71229e-31
2.22384e-29
1.00722e-27
4.15289e-26
1.48289e-24
4.44148e-23
1.9637e-21
1.00341e-18
4.2061e-17
-6.85391e-61
-4.22645e-59
-1.13635e-73
2.44203e-56
3.79758e-51
5.68513e-49
6.6182e-47
7.45934e-45
4.56547e-43
3.76219e-41
3.39708e-39
1.72855e-37
1.10762e-35
8.33328e-34
4.52474e-32
2.40945e-30
1.18428e-28
5.42427e-27
2.12626e-25
7.13851e-24
2.72986e-22
1.70485e-19
9.36049e-18
-2.65451e-61
-1.6131e-59
2.50479e-77
5.51879e-58
1.13111e-52
1.86153e-50
2.32765e-48
2.72282e-46
2.65274e-44
2.25808e-42
1.57385e-40
1.37099e-38
9.98155e-37
6.24627e-35
3.84489e-33
2.24295e-31
1.21213e-29
6.10539e-28
2.64466e-26
1.00338e-24
3.67476e-23
2.59547e-20
1.75656e-18
-6.7875e-62
-3.92861e-60
-4.02246e-79
1.05699e-59
2.75043e-54
4.96919e-52
6.77388e-50
8.65961e-48
8.62208e-46
9.22516e-44
8.05214e-42
7.03178e-40
5.11965e-38
4.11433e-36
2.7662e-34
1.79902e-32
1.07628e-30
5.92039e-29
2.88426e-27
1.24038e-25
4.65589e-24
3.6013e-21
2.78158e-19
-8.58855e-63
-4.85174e-61
3.10908e-63
1.56626e-61
4.38219e-56
8.91253e-54
1.38058e-51
2.03988e-49
2.38202e-47
2.85597e-45
2.75449e-43
2.91825e-41
2.43505e-39
2.24911e-37
1.68372e-35
1.19429e-33
8.10984e-32
4.95387e-30
2.75196e-28
1.34104e-26
5.44011e-25
4.34351e-22
3.7359e-20
-3.20008e-74
-7.51031e-72
1.582e-62
2.19194e-62
4.52703e-58
1.11739e-55
1.97765e-53
3.45905e-51
4.83745e-49
6.73451e-47
7.9271e-45
9.44008e-43
9.22999e-41
9.53377e-39
8.36311e-37
6.37183e-35
4.93398e-33
3.49949e-31
2.22972e-29
1.24149e-27
5.69617e-26
4.2866e-23
4.22541e-21
-1.52839e-74
-1.45159e-71
9.43087e-69
3.98609e-64
2.62535e-60
7.94711e-58
1.88919e-55
3.6647e-53
6.82387e-51
1.05862e-48
1.61514e-46
2.10675e-44
2.48e-42
2.99827e-40
2.95058e-38
2.62314e-36
2.26091e-34
1.94761e-32
1.43777e-30
9.3476e-29
4.94088e-27
3.35467e-24
3.89313e-22
-5.44211e-75
-5.91472e-72
2.40885e-70
2.74062e-66
6.64643e-63
2.30506e-60
7.76325e-58
1.95151e-55
4.78086e-53
9.28337e-51
1.81953e-48
2.76997e-46
4.45634e-44
5.99912e-42
6.76115e-40
7.51178e-38
7.82993e-36
7.78274e-34
6.71031e-32
5.26368e-30
3.12645e-28
1.96939e-25
2.7476e-23
-1.2888e-75
-1.50626e-72
5.0464e-89
6.24535e-70
2.26328e-66
1.83609e-63
6.53518e-61
3.10059e-58
9.52668e-56
3.11038e-53
6.70779e-51
1.91581e-48
3.43223e-46
5.39371e-44
8.2112e-42
1.33897e-39
1.76152e-37
1.94243e-35
1.96674e-33
1.98238e-31
1.26068e-29
8.29581e-27
1.36074e-24
-1.53121e-76
-1.95966e-73
-1.45122e-74
3.98294e-76
3.90302e-71
6.43992e-68
4.97337e-65
3.42669e-62
1.41345e-59
8.59294e-57
2.97577e-54
9.35179e-52
4.08713e-49
1.08076e-46
2.6502e-44
5.59012e-42
1.06127e-39
1.74753e-37
2.42711e-35
3.8516e-33
2.57594e-31
2.82882e-28
4.17817e-26
9.764e-97
-8.11474e-116
0
6.84998e-84
4.18021e-78
1.98297e-74
3.46425e-71
4.4031e-68
2.75221e-65
3.01632e-62
1.71843e-59
1.71035e-56
7.9683e-54
3.81805e-51
1.6796e-48
6.73481e-46
2.40962e-43
7.15561e-41
1.84465e-38
4.89683e-36
3.32007e-34
6.56977e-30
6.20881e-28
2.60981e-108
3.34526e-106
2.59672e-114
4.37581e-94
4.87322e-91
6.2596e-101
7.57709e-84
2.59478e-80
2.56071e-77
1.59127e-73
2.69185e-70
8.4792e-67
1.23232e-63
1.70204e-60
2.09104e-57
2.29375e-54
3.44739e-51
2.93346e-48
1.77651e-45
2.4232e-43
4.58879e-37
3.32164e-32
1.44286e-30
0
-5.85857e-124
0
0
9.0643e-109
6.18355e-101
2.60169e-97
1.64385e-98
7.31876e-91
3.20337e-87
1.42756e-102
1.16022e-98
1.41285e-81
1.70404e-74
2.11527e-71
1.61623e-68
3.32609e-65
2.27947e-62
6.84874e-78
4.72896e-57
1.16286e-50
1.11224e-45
4.14739e-44
1
1
1
0.999394
1
1
0.999988
0.999994
1
1
0.999989
0.999996
1
1
1
0.999999
1
1
1
0.999999
0.436895
0.618896
0.929099
0.999998
0.00245769
0.0184852
0.0706501
0.150225
6.8134e-05
7.11091e-05
6.94046e-05
8.48856e-05
6.66494e-05
6.6744e-05
6.68836e-05
6.78495e-05
6.66494e-05
6.66494e-05
6.6744e-05
6.68838e-05
7.05456e-05
0.000124003
0.000175263
0.000212103
0.000473901
0.00053296
0.00053609
0.000538842
4.6177e-13
9.08611e-05
0.000228374
0.00029874
2.10346e-13
4.61772e-13
1.11865e-12
2.95781e-12
5.74309e-13
6.86042e-13
1.01634e-12
1.30076e-12
3.56238e-12
4.07088e-12
5.6457e-12
1.12864e-11
4.04658e-12
6.22047e-12
1.06346e-11
2.45388e-11
2.16309e-12
3.37804e-12
5.22419e-12
1.31281e-11
1.44143e-12
2.33799e-12
3.1689e-12
4.35741e-12
1.00495e-12
1.75096e-12
2.34987e-12
2.35633e-12
6.60487e-13
1.29408e-12
1.98951e-12
2.11355e-12
3.86054e-13
8.76914e-13
1.63795e-12
2.57267e-12
1.98454e-13
4.37074e-13
7.60272e-13
5.91583e-13
9.01846e-14
1.81151e-13
2.86618e-13
2.20582e-13
3.71517e-14
7.65366e-14
1.22478e-13
9.0515e-14
1.3907e-14
2.92356e-14
5.04879e-14
3.71291e-14
4.88556e-15
1.03961e-14
1.99408e-14
1.47071e-14
1.59806e-15
3.40941e-15
7.62546e-15
5.57624e-15
4.7349e-16
9.98549e-16
2.71134e-15
1.92322e-15
1.22473e-16
2.51558e-16
8.4592e-16
8.62306e-16
2.68343e-17
5.3993e-17
2.23244e-16
8.16901e-16
4.91044e-18
1.00525e-17
4.92619e-17
2.86941e-16
7.54267e-19
1.61541e-18
9.50397e-18
6.04575e-17
9.83038e-20
2.31618e-19
1.71803e-18
1.13794e-17
1.08166e-20
3.05899e-20
2.96517e-19
1.89431e-18
9.71805e-22
3.67243e-21
4.53566e-20
2.57867e-19
6.63455e-23
3.56648e-22
5.20736e-21
2.52171e-20
3.04274e-24
2.15783e-23
3.3651e-22
1.56332e-21
7.41683e-26
4.37355e-25
6.20127e-24
6.87772e-23
5.64146e-28
2.82954e-27
8.43979e-26
3.26144e-24
7.17202e-31
2.50092e-31
9.86157e-30
4.87173e-28
1.16622e-44
-2.4067e-90
0
0
0.851026
0.00356835
1.19205e-06
9.95196e-07
1.22648e-07
9.72923e-08
1.4055e-09
2.24979e-09
2.01974e-11
2.76964e-08
4.11309e-08
2.93631e-09
3.88222e-09
6.33987e-08
1.32739e-06
2.61018e-05
0.00679405
0.0238485
-8.06715e-07
0.999999
0.42955
3.35514e-06
1.19699e-07
9.6308e-08
1.01046e-07
2.36113e-06
2.36608e-06
5.50633e-08
1.24793e-08
3.02132e-08
3.60554e-09
8.70151e-09
1.76525e-07
5.0844e-06
4.4421e-05
0.00427787
0.026487
0.0751992
0.999999
0.884545
0.0416048
7.83952e-08
8.68581e-08
9.8084e-08
1.13276e-06
9.42669e-07
2.2901e-08
1.08812e-09
2.01375e-09
2.24129e-09
3.05717e-09
2.31205e-08
2.52377e-07
5.43374e-05
0.000674332
0.00256905
0.594655
0.999999
0.999999
0.479223
7.35981e-08
6.50479e-08
9.48169e-08
2.58481e-08
1.66166e-09
1.07998e-09
1.08968e-09
1.08021e-09
1.12643e-09
1.14207e-09
1.2147e-09
2.73377e-09
4.25603e-06
1.15023e-05
3.08592e-05
0.823009
0.999999
0.999999
0.986386
0.160736
3.54199e-08
1.97907e-08
1.34793e-08
1.14358e-08
1.66166e-09
1.08433e-09
1.12643e-09
1.14982e-09
0.000955152
2.73377e-09
0.000394305
1.15023e-05
3.08592e-05
0.000250972
0.841758
0.999999
0.999999
0.99998
0.904641
0.498683
0.28644
0.114244
1.35124e-08
0.0514647
0.306892
0.348764
0.280178
0.353998
0.19558
0.000562072
0.00572912
0.0247275
0.155835
0.901185
0.419329
0.944988
0.999742
0.997279
0.989055
0.948146
0.866271
0.685417
0.705043
0.858474
0.91963
0.911685
0.923452
0.914546
0.667721
0.69664
0.735905
0.857741
0.976431
0.00395422
0.121902
0.38713
0.706452
0.94367
0.945743
0.942778
0.938752
0.928587
0.926106
0.926682
0.926939
0.926939
0.926939
0.928952
0.932342
0.92766
0.963403
0.98859
7.24699e-05
9.24774e-05
0.000170689
0.0439795
0.168211
0.355055
0.524181
0.627944
0.682269
0.675598
0.652339
0.641206
0.648447
0.71017
0.890614
0.942337
0.945452
0.946524
0.890356
6.78498e-05
0.00011374
0.000122424
0.000194749
0.000120308
6.1166e-05
0.00857429
0.0268889
0.0456083
0.0444127
0.0384294
0.0346913
0.0373275
0.0540285
0.122258
0.395615
0.876883
0.945452
0.862951
0.000146934
0.000249407
0.000541118
0.00047226
0.000108009
6.38531e-07
2.04084e-06
5.38715e-06
9.23237e-06
1.04745e-05
8.75976e-06
7.23555e-06
2.51703e-05
7.4805e-05
0.000468419
0.00435046
0.505576
0.916156
0.941896
0.000541938
0.000543045
0.000541938
0.000448423
0.000106854
1.06071e-08
4.07272e-08
1.07085e-07
2.76531e-07
1.00414e-06
1.34525e-06
2.33295e-06
2.36921e-05
3.81387e-05
7.48212e-05
0.00189841
0.529122
0.904698
0.916291
0.000259492
0.000141358
7.73432e-05
1.6189e-05
4.09519e-06
8.98918e-10
2.52163e-09
8.91027e-09
1.56746e-07
9.0196e-07
1.19212e-06
1.4809e-06
2.59679e-06
1.57923e-05
0.000267416
0.121038
0.718852
0.911413
0.628289
1.42731e-11
1.91692e-10
1.72543e-09
1.49477e-09
8.17272e-10
7.29895e-10
1.02342e-09
1.48482e-09
1.65081e-07
1.685e-06
1.51776e-06
2.06616e-06
1.06144e-05
0.000107287
0.0181936
0.522787
0.911104
0.914499
0.595734
5.7985e-12
1.04774e-10
1.07751e-10
4.41837e-10
5.578e-10
7.27834e-10
9.76771e-10
1.05064e-09
1.48482e-09
8.63476e-07
2.72307e-06
3.0483e-06
8.60131e-06
7.63135e-05
0.00205683
0.295756
0.839091
0.92044
0.873884
2.2474e-11
2.70029e-11
7.06266e-11
4.01069e-10
5.52079e-10
7.05053e-10
2.05398e-09
4.34183e-09
3.39981e-09
1.84356e-07
2.44332e-06
2.48847e-06
1.86518e-05
0.000186665
0.00012788
0.0769199
0.679374
0.92727
1
9.76914e-11
2.3292e-10
3.92201e-10
5.0714e-10
5.36853e-10
5.39056e-10
3.72793e-09
2.1992e-08
2.90881e-08
2.95497e-08
5.72266e-07
3.8041e-06
8.65543e-06
4.00308e-05
4.70285e-05
0.144702
0.638575
0.670363
0.810741
1.21901e-10
3.63182e-10
6.20903e-10
7.66342e-10
8.27237e-10
8.90176e-10
9.5791e-10
9.71288e-10
2.67045e-08
1.5744e-07
1.77002e-07
1.19355e-06
1.3672e-06
4.11665e-06
3.88056e-05
0.223733
0.589805
0.13153
0.131134
8.30805e-11
3.11892e-10
5.80919e-10
8.86971e-10
1.85452e-09
2.75401e-09
1.94297e-09
1.37344e-09
4.21101e-08
2.5078e-07
2.0742e-07
2.20351e-07
7.43315e-07
9.7935e-06
0.000106827
0.170368
0.486145
0.0160215
9.67701e-21
5.26815e-11
2.67995e-10
5.68257e-10
8.9848e-10
2.01198e-09
3.00636e-09
2.44721e-09
3.49667e-09
9.37631e-09
3.10762e-08
9.134e-07
1.31475e-06
1.5589e-06
4.25102e-05
8.39381e-05
0.0311561
0.322622
0.222378
4.33324e-20
1.06504e-10
5.21013e-10
8.63253e-10
8.89469e-10
8.84454e-10
9.30329e-10
1.45838e-07
4.44056e-07
1.01479e-07
4.22822e-08
2.02294e-06
5.40296e-06
5.12803e-06
2.79833e-05
7.30042e-05
0.00098273
0.259146
0.550751
0
1.67918e-10
6.71871e-10
9.04115e-10
8.58217e-10
8.26567e-10
3.72998e-09
4.69308e-07
8.40334e-07
6.37257e-07
1.04275e-07
1.2833e-06
2.83003e-06
3.1452e-06
4.86628e-06
6.63803e-05
0.000904503
0.226405
0.554644
0.443427
8.10786e-11
5.0591e-10
8.44061e-10
6.88646e-10
4.4837e-10
1.87312e-08
6.06747e-07
8.40334e-07
7.87219e-07
1.41691e-07
1.80473e-07
2.41827e-07
6.1223e-07
2.06107e-06
3.80612e-05
0.000158871
0.0211072
0.296415
0.734711
2.37098e-11
2.70947e-10
6.03639e-10
6.04597e-10
4.34598e-10
4.4837e-10
7.86234e-08
7.3745e-07
7.97135e-07
4.99241e-07
2.60368e-07
3.039e-07
9.60685e-07
0.000358782
0.00128926
0.00111956
0.00116859
0.0185395
0.338108
6.17642e-12
1.22767e-10
4.41546e-10
5.47265e-10
4.24937e-10
1.16989e-09
1.13957e-08
6.67524e-08
6.08639e-07
6.32105e-07
4.08867e-07
3.79935e-07
1.89915e-05
0.000558408
0.000638973
0.000209369
0.00711903
0.0191932
0.000835507
3.54145e-12
8.55401e-11
3.17017e-10
3.36182e-10
2.87751e-10
1.7838e-08
8.80861e-08
8.07303e-08
2.6875e-07
5.80099e-07
2.00774e-07
2.41383e-07
4.73268e-05
0.000285866
3.63361e-06
4.91526e-06
0.00779221
0.0731493
0.000100689
2.31997e-12
4.94761e-11
1.82559e-10
1.58054e-10
1.60664e-10
2.19498e-08
1.01623e-07
1.05517e-07
1.02334e-07
1.0728e-07
1.07903e-07
2.07696e-06
4.00593e-05
9.47659e-06
3.01013e-06
4.02023e-06
4.91526e-06
0.0745068
0.216335
1.53983e-12
2.44588e-11
9.56657e-11
8.71595e-11
1.72817e-10
2.22753e-09
4.04073e-09
3.17999e-08
4.51426e-08
4.21961e-09
9.14319e-08
1.19598e-06
4.48334e-06
2.54229e-07
1.21971e-06
9.6989e-07
8.6241e-06
0.0379173
0.590843
9.97687e-13
1.04264e-11
6.06437e-11
6.60345e-11
2.94596e-10
6.6361e-10
6.77857e-10
6.78871e-10
2.00978e-09
3.97019e-09
1.65787e-08
5.89955e-08
2.85517e-08
7.40136e-08
3.5345e-07
4.06854e-07
5.39585e-05
0.0166744
0.527298
4.59383e-13
4.09346e-12
4.2604e-11
4.97777e-11
1.84614e-10
8.56711e-10
6.78871e-10
9.27665e-10
9.31292e-10
1.78487e-09
1.06704e-09
1.2864e-09
5.24503e-09
3.69594e-08
5.06011e-08
0.0065066
0.00833377
0.0091075
0.418923
1.76997e-13
1.36835e-12
2.22002e-11
3.83439e-11
5.44687e-11
1.27942e-10
2.86983e-09
9.31292e-10
9.35894e-10
1.02399e-09
1.03329e-09
1.06709e-09
1.28689e-09
2.72631e-08
1.87324e-06
0.0538002
0.0688019
0.0646173
0.412471
5.41482e-14
3.84408e-13
6.77469e-12
1.36922e-11
2.81327e-11
9.77273e-13
2.50175e-07
2.11368e-07
9.41844e-10
9.59191e-10
9.69991e-10
8.22892e-06
1.9501e-07
1.87324e-06
0.037023
0.0750036
0.067799
0.0264556
0.422598
1.1798e-14
8.52759e-14
1.15454e-12
2.4837e-12
1.47845e-11
8.18488e-13
3.88725e-07
5.78888e-07
2.90489e-07
1.37828e-09
9.92313e-10
0.00034605
0.00283555
0.000585638
0.0277273
0.0587108
0.0278385
0.00186055
0.436844
1.75665e-15
1.55048e-14
1.69942e-13
4.56056e-13
6.3557e-12
7.54016e-13
1.4931e-07
5.78888e-07
5.75766e-07
1.20333e-07
5.64533e-10
3.93637e-09
0.0139335
0.0170827
0.016729
0.00761466
0.00187193
0.00172969
0.382363
2.0856e-16
2.41041e-15
3.49075e-14
1.18112e-13
7.417e-13
7.47936e-13
7.54016e-13
1.34306e-07
3.16026e-07
1.04821e-07
5.74986e-12
3.78657e-09
0.00495878
0.0171577
0.0135144
0.00222091
0.00172969
0.0017137
0.214031
2.13956e-17
3.58614e-16
7.57428e-15
2.53307e-14
1.42892e-13
1.42123e-11
4.51031e-12
1.07107e-13
8.77164e-14
1.08526e-13
2.11692e-12
5.74986e-12
0.00229537
0.0172149
0.0110807
0.00174143
0.0017137
0.00171162
0.232964
2.04498e-18
4.78365e-17
1.36631e-15
2.75014e-15
2.22016e-13
1.60949e-11
1.71495e-11
8.00675e-12
6.74117e-14
1.80998e-13
3.83477e-12
6.76093e-11
0.0123301
0.0177067
0.00436969
0.00172103
0.00171157
0.00171162
0.44358
1.87227e-19
4.90246e-18
7.48525e-17
3.10625e-16
4.41569e-14
1.8319e-12
1.58291e-12
3.75254e-13
-1.81676e-12
1.60443e-09
6.76092e-11
0.0012391
0.0177067
0.0177067
0.00841169
0.0017312
0.00171162
0.00171159
0.799714
1.3177e-20
3.2264e-19
3.88795e-18
3.35479e-17
1.56841e-14
8.51381e-15
9.65447e-16
1.31337e-24
-2.46725e-12
2.1622e-07
2.15498e-08
8.5467e-09
0.0113837
0.0177067
0.0130942
0.0018199
0.0017312
0.00544155
0.8247
3.99582e-22
1.03543e-20
1.1663e-19
2.64843e-18
-7.77467e-17
-5.47648e-17
-3.37627e-17
-2.23023e-17
-1.85748e-12
3.09369e-07
2.06887e-07
2.7372e-09
2.28848e-10
0.0143839
0.0145044
0.00294985
0.00256021
0.0446201
0.45023
2.7971e-25
3.11246e-23
1.31233e-21
4.6076e-21
-3.33495e-17
-1.49014e-17
-7.80064e-18
-5.40498e-18
-6.42332e-13
1.86007e-07
8.75182e-08
-1.5867e-27
3.57521e-33
0.00160863
0.00868111
0.0047453
0.0184328
0.0627369
0.0108308
0
0
-1.01365e-24
-5.17178e-21
-5.97634e-18
-1.17791e-18
-8.16467e-19
-7.2435e-19
-4.70419e-18
-2.50487e-18
-7.37571e-19
-1.74673e-19
-5.41496e-20
-2.05552e-20
0
0.00984434
0.022572
0.0158662
0
)
;

boundaryField
{
    leftWall
    {
        type            zeroGradient;
    }
    rightWall
    {
        type            zeroGradient;
    }
    lowerWall
    {
        type            zeroGradient;
    }
    atmosphere
    {
        type            inletOutlet;
        inletValue      uniform 0;
        value           nonuniform List<scalar> 
46
(
0
0
0
0
0
0
0
0
0
0
0
0
0
0
0
0
0
0
0
0
0
0
0
0
0
0
0
0
0
0
0
0
0
0
0
0
0
0
0
0
0
0
0.00984434
0.022572
0.0158662
0
)
;
    }
    defaultFaces
    {
        type            empty;
    }
}


// ************************************************************************* //
