/*--------------------------------*- C++ -*----------------------------------*\
| =========                 |                                                 |
| \\      /  F ield         | OpenFOAM: The Open Source CFD Toolbox           |
|  \\    /   O peration     | Version:  5.x                                   |
|   \\  /    A nd           | Web:      www.OpenFOAM.org                      |
|    \\/     M anipulation  |                                                 |
\*---------------------------------------------------------------------------*/
FoamFile
{
    version     2.0;
    format      ascii;
    class       surfaceScalarField;
    location    "0.45";
    object      alphaPhi10;
}
// * * * * * * * * * * * * * * * * * * * * * * * * * * * * * * * * * * * * * //

dimensions      [0 3 -1 0 0 0 0];

internalField   nonuniform List<scalar> 
4432
(
-3.80277e-06
3.80277e-06
-4.25172e-06
4.48943e-07
-8.1389e-07
-3.43783e-06
4.76628e-06
-5.58017e-06
1.10676e-05
-6.3013e-06
1.68883e-05
-5.82071e-06
2.16072e-05
-4.7189e-06
2.5104e-05
-3.4968e-06
2.75191e-05
-2.41509e-06
2.9072e-05
-1.55288e-06
2.99616e-05
-8.89649e-07
3.03128e-05
-3.51145e-07
3.01057e-05
2.0709e-07
2.9147e-05
9.58683e-07
2.71088e-05
2.03823e-06
2.34502e-05
3.65856e-06
1.75145e-05
5.9357e-06
9.1977e-06
8.3168e-06
7.23742e-07
8.47396e-06
-4.77086e-06
6.35566e-06
-1.53746e-05
8.42616e-06
-1.54136e-05
3.90442e-08
-1.54136e-05
-3.95011e-06
7.75288e-06
-3.95271e-06
4.51542e-07
-3.96654e-07
-6.99388e-06
5.16714e-06
-1.1144e-05
1.14148e-05
-1.2549e-05
1.71566e-05
-1.15625e-05
2.17927e-05
-9.35504e-06
2.52235e-05
-6.92758e-06
2.76097e-05
-4.80129e-06
2.91784e-05
-3.12163e-06
3.01279e-05
-1.83916e-06
3.06046e-05
-8.27766e-07
3.07449e-05
6.67467e-08
3.06981e-05
1.00552e-06
3.04805e-05
2.25582e-06
2.99241e-05
4.21495e-06
2.8332e-05
7.52774e-06
2.40345e-05
1.26144e-05
1.49455e-05
1.75629e-05
1.59502e-06
1.99691e-05
-7.69876e-06
1.87798e-05
-8.83077e-06
2.77381e-07
-2.42444e-05
-3.51661e-06
1.12695e-05
-3.34198e-06
2.76909e-07
2.55533e-07
-1.05914e-05
5.76391e-06
-1.66523e-05
1.18528e-05
-1.86378e-05
1.7385e-05
-1.70947e-05
2.17982e-05
-1.37682e-05
2.50404e-05
-1.01698e-05
2.73106e-05
-7.07142e-06
2.88466e-05
-4.65761e-06
2.98359e-05
-2.82846e-06
3.0395e-05
-1.38685e-06
3.05732e-05
-1.11549e-07
3.03717e-05
1.20711e-06
2.98196e-05
2.80788e-06
2.90664e-05
4.96818e-06
2.84441e-05
8.14995e-06
2.77355e-05
1.3323e-05
2.46097e-05
2.06888e-05
1.63629e-05
2.82158e-05
6.63606e-06
2.92956e-05
1.49632e-06
5.54273e-06
-2.27498e-05
-2.88546e-06
1.4155e-05
-2.43971e-06
-1.68838e-07
1.08432e-06
-1.41154e-05
6.45947e-06
-2.20275e-05
1.2324e-05
-2.45024e-05
1.75945e-05
-2.23652e-05
2.17272e-05
-1.79009e-05
2.47344e-05
-1.3177e-05
2.68705e-05
-9.20759e-06
2.83869e-05
-6.17394e-06
2.94514e-05
-3.89302e-06
3.01512e-05
-2.08662e-06
3.05106e-05
-4.70999e-07
3.0504e-05
1.21371e-06
3.00999e-05
3.21199e-06
2.93097e-05
5.75845e-06
2.83478e-05
9.11184e-06
2.79092e-05
1.37616e-05
2.80164e-05
2.05815e-05
2.65268e-05
2.97054e-05
2.1643e-05
3.41795e-05
1.12397e-05
1.59457e-05
-1.1535e-05
-2.0756e-06
1.62306e-05
-1.20997e-06
-1.03447e-06
2.11408e-06
-1.74395e-05
7.13433e-06
-2.70477e-05
1.26998e-05
-3.00679e-05
1.76913e-05
-2.73567e-05
2.15377e-05
-2.17474e-05
2.43134e-05
-1.59527e-05
2.6334e-05
-1.12282e-05
2.78617e-05
-7.70162e-06
2.90395e-05
-5.07084e-06
2.99193e-05
-2.96637e-06
3.04936e-05
-1.04535e-06
3.07221e-05
9.85217e-07
3.05782e-05
3.35589e-06
3.00644e-05
6.27231e-06
2.92389e-05
9.93733e-06
2.84668e-05
1.45336e-05
2.87352e-05
2.03132e-05
3.00372e-05
2.84034e-05
2.86454e-05
3.55711e-05
1.79856e-05
2.66054e-05
6.45061e-06
-1.03623e-06
1.72668e-05
4.12255e-07
-2.48295e-06
3.47516e-06
-2.05024e-05
8.02047e-06
-3.15931e-05
1.31396e-05
-3.51871e-05
1.77339e-05
-3.19511e-05
2.12368e-05
-2.52502e-05
2.3786e-05
-1.85019e-05
2.57371e-05
-1.31793e-05
2.73368e-05
-9.30135e-06
2.86855e-05
-6.41953e-06
2.97915e-05
-4.07233e-06
3.06122e-05
-1.86609e-06
3.10782e-05
5.19204e-07
3.11639e-05
3.27017e-06
3.08963e-05
6.53993e-06
3.03629e-05
1.04707e-05
2.96654e-05
1.52311e-05
2.9312e-05
2.06665e-05
3.03797e-05
2.73357e-05
3.04202e-05
3.55306e-05
2.12538e-05
3.57718e-05
2.77044e-05
2.53354e-07
1.70134e-05
2.54799e-06
-4.77758e-06
5.82386e-06
-2.37783e-05
9.93892e-06
-3.5709e-05
1.42916e-05
-3.95408e-05
1.81256e-05
-3.57858e-05
2.10634e-05
-2.81883e-05
2.32975e-05
-2.07361e-05
2.51648e-05
-1.50466e-05
2.68537e-05
-1.09903e-05
2.84004e-05
-7.96621e-06
2.97629e-05
-5.43485e-06
3.08617e-05
-2.96487e-06
3.16076e-05
-2.26716e-07
3.19296e-05
2.94817e-06
3.18636e-05
6.6059e-06
3.15168e-05
1.08175e-05
3.1016e-05
1.5732e-05
3.04291e-05
2.12534e-05
3.05185e-05
2.72463e-05
3.04491e-05
3.55999e-05
2.36683e-05
4.25526e-05
5.13728e-05
2.23725e-06
1.47762e-05
5.77077e-06
-8.3111e-06
9.96276e-06
-2.79722e-05
1.36629e-05
-3.94168e-05
1.67166e-05
-4.26023e-05
1.92828e-05
-3.8356e-05
2.14172e-05
-3.03243e-05
2.32664e-05
-2.25858e-05
2.5016e-05
-1.67962e-05
2.67393e-05
-1.27136e-05
2.84009e-05
-9.62788e-06
2.99243e-05
-6.95821e-06
3.12129e-05
-4.25344e-06
3.21604e-05
-1.17423e-06
3.27243e-05
2.38429e-06
3.2921e-05
6.4092e-06
3.2786e-05
1.09524e-05
3.24442e-05
1.60738e-05
3.19568e-05
2.17408e-05
3.15085e-05
2.76946e-05
3.08244e-05
3.62841e-05
2.51809e-05
4.81961e-05
7.65537e-05
1.69996e-11
-1.69996e-11
1.59938e-09
-1.58238e-09
7.95588e-10
9.89664e-10
9.18861e-11
5.41219e-10
3.37843e-12
7.23857e-11
9.33909e-14
3.28504e-12
1.76531e-15
9.16256e-14
2.54058e-17
1.7399e-15
5.18588e-19
1.1004e-17
-3.24216e-22
4.36638e-19
-5.60615e-21
1.50935e-21
-6.67862e-19
9.58608e-20
-1.62208e-17
3.05116e-18
-2.46799e-16
5.29656e-17
-7.7595e-15
2.21505e-15
-9.82594e-14
2.49529e-14
-3.18705e-13
2.88786e-13
-4.78052e-14
-2.709e-13
-4.78052e-14
3.94769e-10
-4.11769e-10
1.93894e-08
-1.33175e-08
7.72831e-09
1.903e-08
1.25004e-09
5.92663e-09
4.90341e-11
1.24571e-09
1.37397e-12
6.37671e-11
8.76098e-15
2.37901e-12
3.97396e-17
6.23586e-14
1.04418e-17
1.11256e-15
-6.07365e-21
1.00026e-17
-6.02669e-20
6.83014e-20
-5.35401e-18
3.32466e-18
-1.67244e-16
1.139e-16
-3.94972e-15
3.78113e-15
-1.17512e-13
1.27574e-13
-2.25217e-12
7.67549e-13
-9.10192e-12
6.72535e-12
-1.18004e-12
-3.95688e-12
-1.22785e-12
4.2007e-09
-4.61247e-09
1.10622e-07
-4.54919e-07
6.67482e-08
-5.76701e-08
5.77777e-09
4.49544e-08
1.64445e-10
7.25075e-09
3.98546e-12
3.12204e-10
5.98596e-14
1.21623e-11
1.79349e-15
2.76434e-13
1.89256e-17
4.53782e-15
-6.24013e-20
4.00018e-17
-5.22918e-19
1.12657e-18
-3.61101e-17
4.37334e-17
-1.49876e-15
1.87266e-15
-6.29547e-14
7.68564e-14
-1.84248e-12
1.85064e-12
-2.90263e-11
1.15063e-11
-1.30521e-10
7.90372e-11
-1.81491e-11
-5.89245e-11
-1.9377e-11
8.42671e-08
-8.88796e-08
6.42106e-07
-3.94635e-06
2.50712e-07
-1.18827e-06
1.43925e-08
8.76778e-08
4.23377e-10
2.03184e-08
1.29714e-11
9.25916e-10
1.2793e-13
4.11169e-11
5.71388e-15
8.56143e-13
1.2083e-17
1.24848e-14
-4.49568e-19
1.31438e-16
-3.63766e-18
1.17198e-17
-3.49096e-16
4.33562e-16
-1.94894e-14
2.16052e-14
-6.50167e-13
7.78822e-13
-1.73069e-11
1.74469e-11
-2.85475e-10
1.25338e-10
-1.24933e-09
5.91702e-10
-1.93431e-10
-7.42959e-10
-2.12808e-10
2.44068e-07
-3.21505e-07
5.58537e-07
-2.98417e-06
1.98384e-07
-5.18741e-07
-8.71821e-09
4.6945e-08
-5.57941e-10
1.21515e-08
-2.18392e-11
6.4767e-10
-8.06861e-13
3.54932e-11
-7.10846e-15
7.21023e-13
-1.34984e-16
9.11398e-15
-2.27558e-18
3.09046e-16
-1.33904e-17
8.88579e-17
-2.28486e-15
3.11915e-15
-1.18964e-13
1.5714e-13
-4.30753e-12
5.43821e-12
-1.17024e-10
1.24484e-10
-2.1882e-09
1.06857e-09
-8.83716e-09
3.01425e-09
-1.55664e-09
-6.88626e-09
-1.76944e-09
3.15399e-07
-6.36887e-07
-3.84839e-09
-3.81968e-07
2.40483e-09
-1.51261e-08
1.55781e-08
-2.43638e-09
-1.0028e-09
9.84317e-09
-2.23085e-11
5.044e-10
-5.32054e-13
1.43243e-11
-7.71441e-15
2.64237e-13
4.78328e-17
4.79246e-15
-8.80845e-18
8.43664e-16
6.30476e-17
4.8748e-16
-9.97869e-15
1.50324e-14
-5.00603e-13
7.52219e-13
-2.02706e-11
2.75403e-11
-5.83645e-10
6.67644e-10
-1.27406e-08
6.62474e-09
-4.65939e-08
1.22003e-08
-9.45784e-09
-3.941e-08
-1.12269e-08
-4.04118e-07
-3.89412e-05
-3.33484e-09
-7.5861e-07
-2.93549e-09
-1.14894e-08
-6.2618e-11
-2.62876e-10
2.15564e-10
4.93686e-10
-1.01365e-11
3.76736e-10
-1.73846e-13
4.58534e-12
-2.9017e-15
9.7488e-14
1.10954e-16
2.22072e-15
-1.36038e-17
1.38098e-15
-1.74374e-15
4.13197e-15
-2.54165e-14
4.72303e-14
-1.37379e-12
2.43399e-12
-6.22698e-11
9.22684e-11
-1.82334e-09
2.31263e-09
-5.44972e-08
2.61403e-08
-1.80638e-07
-2.13099e-08
-4.65422e-08
-2.13729e-07
-5.77607e-08
-2.19242e-06
-7.26704e-05
-3.47382e-08
-2.91515e-06
-2.04312e-09
-4.28423e-08
-3.33182e-10
-1.12487e-10
-1.78373e-11
9.58078e-11
-2.28754e-12
2.75256e-11
3.39402e-16
2.35527e-12
2.5549e-16
9.83306e-14
1.43858e-16
2.53241e-15
-4.89258e-17
2.01498e-15
-9.75983e-15
1.39873e-14
-7.27732e-14
1.14703e-13
-1.6131e-12
4.44555e-12
-9.09642e-11
1.76025e-10
-2.796e-09
4.94036e-09
-6.84387e-08
8.43518e-08
-5.86879e-07
-5.44445e-07
-1.61356e-07
-3.65002e-06
-2.19016e-07
1.24118e-05
2.36441e-06
2.77776e-05
-2.3677e-05
4.01926e-05
-4.03903e-05
4.46588e-05
-4.3915e-05
4.4943e-05
-4.29227e-05
4.53907e-05
-3.88279e-05
4.75363e-05
-3.24813e-05
5.10328e-05
-2.60867e-05
5.52012e-05
-2.09662e-05
5.95143e-05
-1.70271e-05
6.35478e-05
-1.36615e-05
6.702e-05
-1.04304e-05
6.97739e-05
-7.00732e-06
7.16399e-05
-3.04026e-06
7.24541e-05
1.56999e-06
7.3032e-05
5.83127e-06
7.32059e-05
1.07786e-05
7.30794e-05
1.62002e-05
7.30564e-05
2.17638e-05
7.32782e-05
2.74728e-05
7.4916e-05
3.46463e-05
8.12574e-05
4.18547e-05
5.66783e-05
0.000101133
2.34604e-05
-2.1096e-05
4.82054e-05
-4.31922e-05
5.19807e-05
-2.75929e-05
4.73124e-05
-1.58432e-05
4.20667e-05
-1.56047e-05
3.88994e-05
-1.69727e-05
3.973e-05
-1.6863e-05
4.45326e-05
-1.64451e-05
5.16655e-05
-1.61675e-05
5.94889e-05
-1.56969e-05
6.68143e-05
-1.45205e-05
7.2695e-05
-1.23507e-05
7.64996e-05
-9.0415e-06
7.84523e-05
-4.64953e-06
7.97037e-05
3.00196e-07
7.93365e-05
6.19849e-06
7.88159e-05
1.12992e-05
7.82818e-05
1.67343e-05
7.89522e-05
2.10934e-05
8.13775e-05
2.50475e-05
8.63699e-05
2.96538e-05
9.53228e-05
3.29018e-05
3.84748e-05
0.000113526
2.17283e-05
-1.40401e-05
1.05502e-05
-4.68512e-07
4.62144e-06
-4.22026e-09
3.57997e-06
-4.29771e-18
3.69607e-06
-1.70235e-17
2.9719e-06
-9.43378e-17
2.8022e-06
-2.52159e-16
3.83209e-06
-5.80332e-15
6.27223e-06
-1.95558e-13
1.02437e-05
-5.43003e-12
1.61253e-05
-1.29499e-10
2.4697e-05
-2.76461e-09
3.68762e-05
-5.19761e-08
5.38963e-05
-8.76108e-07
7.05033e-05
-2.041e-06
8.33553e-05
1.68712e-06
8.44454e-05
1.02091e-05
8.08162e-05
2.03635e-05
8.00646e-05
2.1845e-05
8.23178e-05
2.27943e-05
8.65453e-05
2.54263e-05
9.21766e-05
2.72706e-05
2.86164e-05
0.000102035
4.72732e-07
-5.99112e-22
4.22026e-09
-3.07769e-20
-1.82109e-20
-9.17474e-19
-2.44199e-19
-1.11645e-19
-1.26439e-18
-7.26817e-18
-4.70646e-18
-6.61157e-17
-1.23358e-16
-8.93786e-17
-5.30865e-15
-2.08441e-16
-1.8623e-13
-5.80129e-15
-5.36329e-12
-8.229e-14
-1.33797e-10
-5.65489e-13
-2.89521e-09
-1.27161e-12
-5.47918e-08
-6.49971e-11
-9.28404e-07
-2.31304e-09
1.54488e-06
-2.7525e-08
9.04707e-06
-5.53574e-08
2.61443e-05
-1.81125e-08
5.48729e-05
3.69964e-07
8.24102e-05
5.7572e-06
8.97371e-05
1.54674e-05
9.13365e-05
2.3827e-05
9.37198e-05
2.48873e-05
2.51422e-05
9.7194e-05
-3.30211e-22
-2.68901e-22
-1.69345e-20
-1.41772e-20
-5.74586e-19
-3.60242e-19
-2.01539e-18
-3.26335e-18
-3.41462e-17
-6.84229e-17
-5.29054e-17
-4.08321e-16
-7.03752e-17
-6.28447e-16
-6.78386e-16
-3.58692e-16
-1.10244e-14
-7.38148e-14
-3.83239e-14
-2.17573e-13
-6.93618e-14
-6.0874e-13
-8.43161e-13
-7.54571e-14
-6.00004e-11
-3.91108e-12
-9.36446e-10
-1.42206e-09
-3.48351e-09
-2.47959e-08
-2.86779e-08
-2.87227e-08
-5.89498e-08
-1.38929e-08
4.59755e-07
-2.63358e-08
7.95229e-06
-3.07987e-08
2.79147e-05
1.04135e-08
6.19814e-05
4.91635e-07
9.20687e-05
7.93929e-06
1.68798e-05
0.000100331
-2.22834e-22
-4.60671e-23
-7.80268e-21
-4.23626e-21
-4.00327e-19
-2.74761e-19
-2.28722e-17
-1.40437e-17
-4.35423e-16
-3.44364e-16
-1.28048e-15
-1.8342e-15
-5.44213e-16
-2.66777e-15
-1.85468e-16
-1.66346e-15
-5.39514e-13
-7.36723e-14
-2.43508e-12
-2.60345e-12
-2.00323e-13
-5.10301e-12
3.40338e-12
-1.46573e-12
2.1096e-12
6.86626e-13
-3.91594e-09
-3.99962e-10
-9.21853e-09
-1.76413e-08
-5.51665e-09
-2.2425e-08
6.12935e-11
-1.6549e-08
2.58388e-09
-1.9975e-08
5.41034e-09
-2.33168e-08
3.8585e-08
-8.97199e-09
8.03762e-07
-6.4347e-08
1.30572e-05
-5.923e-08
2.26657e-08
4.1761e-05
-3.95137e-23
-6.55335e-24
-2.4972e-21
-1.3527e-21
-4.22205e-19
-1.5899e-19
-4.36264e-17
-1.36607e-17
-9.1612e-16
-3.61398e-16
-2.70608e-15
-2.31894e-15
-1.29401e-15
-3.90025e-15
2.07642e-14
-2.51344e-15
-6.08907e-13
-1.30153e-14
-4.22816e-12
-3.31215e-12
-3.40323e-12
-5.32793e-12
1.23939e-13
-5.29942e-12
-1.41185e-11
-1.56057e-12
-1.27377e-10
-4.84509e-11
-1.2803e-09
-1.21938e-11
-2.22377e-09
-1.38169e-08
-1.12422e-10
-4.18186e-11
5.04391e-09
-1.63653e-08
1.93223e-08
-1.51109e-08
3.36138e-08
-2.47136e-08
3.41541e-08
-1.08088e-08
1.59696e-08
-6.60455e-09
1.11907e-10
4.18055e-08
-5.76476e-24
-7.88591e-25
-9.22925e-22
-2.83333e-22
-1.90645e-19
-4.0215e-20
-3.14024e-17
-7.66347e-18
-7.51471e-16
-3.0957e-16
-2.50948e-15
-2.2725e-15
-1.94849e-15
-3.98573e-15
7.99248e-16
-3.55398e-15
-7.10171e-15
-2.66651e-15
-1.79225e-12
-9.15442e-13
-1.23119e-12
-4.91257e-12
2.19993e-13
-5.37979e-13
3.05631e-12
-1.3532e-11
1.93551e-11
-1.64284e-10
1.51718e-12
-2.71035e-11
3.91382e-12
-3.34001e-12
-3.68786e-11
-4.4218e-13
1.23038e-09
-2.2256e-11
5.07279e-09
-1.34164e-08
9.74255e-09
-2.05218e-08
3.78917e-08
-5.67147e-09
1.19138e-08
-3.16114e-09
1.30377e-09
1.06148e-08
-5.99205e-25
-1.89386e-25
-2.42989e-22
-5.09985e-23
-4.35914e-20
-1.06364e-20
-1.25845e-17
-2.95866e-18
-4.12142e-16
-1.5995e-16
-1.89405e-15
-1.42455e-15
-1.69165e-15
-3.27777e-15
-5.36153e-16
-3.2293e-15
-7.84781e-16
-1.76331e-15
-3.13842e-13
-2.07553e-15
1.36826e-13
-1.92265e-15
-3.962e-13
-2.88853e-15
6.07646e-12
-2.55873e-11
5.32193e-11
-1.0783e-10
3.17412e-12
-1.38784e-11
1.2265e-14
-1.86219e-13
3.00043e-14
-9.89791e-14
2.52223e-12
-2.41643e-11
3.18618e-09
-1.4015e-08
7.79216e-10
-2.16968e-08
3.45665e-09
-2.26145e-08
4.72574e-09
-4.53568e-09
-6.30723e-10
6.54789e-09
-4.83422e-25
3.16968e-25
-4.44491e-23
-8.04655e-24
-9.73714e-21
-2.46619e-21
-3.98447e-18
-9.82048e-19
-1.42702e-16
-6.08888e-17
-7.46631e-16
-5.47622e-16
-7.89736e-16
-1.3553e-15
-3.91841e-16
-1.33924e-15
-2.00042e-16
-1.1412e-15
-1.09028e-16
-2.01266e-15
-3.05363e-17
-1.88574e-15
5.19554e-14
-5.47206e-14
1.48361e-11
-1.64262e-11
1.8682e-11
-7.88121e-13
1.91371e-13
-3.53665e-15
5.86987e-15
-3.50188e-16
4.3378e-13
-3.45583e-13
9.18117e-11
-1.56326e-10
-5.80575e-10
-3.12366e-09
-1.00002e-09
-1.94848e-08
-3.16075e-10
-2.20773e-08
4.90816e-10
-1.46819e-08
-2.11291e-09
1.875e-09
-4.60159e-25
2.51288e-25
-7.47836e-24
-1.02835e-24
-2.07056e-21
-4.31339e-22
-1.11822e-18
-2.43905e-19
-3.82965e-17
-1.72828e-17
-2.15885e-16
-1.51352e-16
-1.90996e-16
-3.92959e-16
-1.19314e-16
-3.8807e-16
-7.50656e-17
-5.71578e-16
7.8787e-17
-2.52582e-15
3.49292e-16
-1.92322e-15
6.67889e-14
-2.0808e-15
7.8988e-13
-6.8271e-16
2.68267e-15
-4.41983e-16
2.48341e-17
-5.1186e-16
1.67152e-16
-2.79141e-16
-2.40977e-12
-7.55668e-16
3.88139e-12
-9.01769e-13
-9.15054e-10
-2.60304e-11
-5.37325e-09
-2.87064e-09
-1.0726e-08
-1.49319e-08
-4.90456e-09
-1.85529e-08
-6.19542e-09
-2.1509e-09
-3.68828e-26
1.11438e-25
-9.43677e-25
-1.21559e-25
-3.29945e-22
-7.13813e-23
-2.44143e-19
-4.48858e-20
-7.91202e-18
-3.82344e-18
-4.77267e-17
-3.27762e-17
-4.17355e-17
-8.50304e-17
-3.09205e-17
-9.30488e-17
-1.2683e-16
-2.37976e-16
4.33047e-17
-1.44897e-15
9.62257e-17
-1.62118e-15
1.08539e-16
-1.40701e-15
1.16588e-17
-3.69248e-16
4.00964e-18
-2.69652e-16
-1.19214e-17
-3.43606e-16
-1.66474e-17
-2.37242e-16
-6.37966e-16
-3.64933e-17
-9.02427e-13
-1.63755e-17
-2.69324e-11
-3.22188e-16
-2.89755e-09
-2.17912e-14
-2.41613e-09
-7.42679e-13
-5.76585e-10
-1.9925e-11
-4.36272e-10
-1.15551e-09
-3.08805e-27
5.57913e-26
-8.79244e-26
-3.67229e-26
-4.146e-23
-3.78097e-23
-4.35847e-20
-6.51724e-21
-1.42297e-18
-6.69262e-19
-7.86939e-18
-5.77451e-18
-8.19406e-18
-1.45183e-17
-8.50744e-18
-1.83655e-17
-1.35652e-16
-4.48659e-17
-7.07435e-17
-2.56617e-16
-3.98305e-17
-3.88994e-16
-6.60971e-18
-4.39272e-16
-1.34332e-17
-2.78881e-16
-3.05216e-17
-2.84728e-16
-3.02859e-17
-2.39387e-16
-7.96222e-18
-1.18914e-16
-2.51061e-18
-2.13327e-17
-1.04516e-17
-8.06193e-18
-3.17669e-16
-1.12592e-17
-2.20798e-14
-2.1954e-17
-7.64726e-13
-2.50016e-17
-2.06896e-11
-2.68579e-17
-7.01427e-17
-4.56961e-10
-7.05647e-28
3.52845e-26
-3.84708e-26
-1.84451e-26
-6.43984e-24
-1.7453e-23
-6.35947e-21
-7.9381e-22
-2.23821e-19
-9.01477e-20
-1.08605e-18
-7.81319e-19
-1.41367e-18
-2.01646e-18
-1.97086e-18
-3.2044e-18
-1.25273e-17
-7.47401e-18
-2.56502e-17
-2.33149e-17
-3.42687e-17
-8.92305e-17
-3.67654e-17
-1.78181e-16
-4.50714e-17
-2.26206e-16
-5.4428e-17
-1.63834e-16
-2.89472e-17
-6.97302e-17
-9.78183e-18
-1.93523e-17
-2.8883e-18
-8.22253e-18
-3.79569e-18
-6.8898e-18
-5.19874e-18
-1.01887e-17
-7.36012e-18
-1.29578e-17
-1.01014e-17
-1.5306e-17
-1.36222e-17
-1.60129e-17
-1.84527e-17
-4.32239e-17
-1.47185e-28
2.41343e-26
-1.37992e-25
1.19443e-25
-1.34125e-24
-5.28092e-24
-7.61973e-22
-8.20979e-23
-2.7222e-20
-9.30724e-21
-1.24244e-19
-8.19651e-20
-2.1949e-19
-2.30914e-19
-4.24411e-19
-5.10103e-19
-1.0996e-18
-1.51417e-18
-5.55365e-18
-5.70405e-18
-1.70795e-17
-2.05393e-17
-3.3618e-17
-3.30789e-17
-3.1948e-17
-3.96915e-17
-1.63382e-17
-9.5999e-18
-5.41486e-18
-5.07207e-18
-1.93028e-18
-2.6371e-18
-2.67483e-18
-8.70697e-19
-5.06872e-18
-3.91167e-19
-7.99553e-18
-8.11223e-19
-1.36323e-17
-6.14499e-18
-2.44712e-17
-2.29561e-17
-3.17244e-17
-5.6957e-17
-7.99353e-17
-3.69901e-17
1.49375e-27
1.50995e-26
-1.62367e-25
1.6114e-25
-2.92554e-25
-9.80993e-25
-7.3006e-23
-7.61049e-24
-2.55746e-21
-7.04135e-22
-1.17909e-20
-6.55842e-21
-2.95958e-20
-2.41242e-20
-8.1263e-20
-8.48586e-20
-3.13552e-19
-3.03011e-19
-1.89263e-18
-9.59107e-19
-4.06919e-18
-2.38861e-18
-5.72924e-18
-2.58867e-18
-2.24447e-18
-1.96581e-18
-1.27727e-18
-1.03859e-18
-8.45788e-19
-5.05602e-19
-3.39442e-19
-2.56761e-19
-1.1923e-19
-9.03626e-20
-1.55909e-19
-3.51424e-20
-7.66147e-19
-5.50266e-20
-1.03276e-17
-4.67516e-19
-5.22498e-17
-3.69356e-18
-1.24554e-16
-1.9118e-17
-5.39383e-17
-1.87471e-16
2.05053e-27
7.99065e-27
-2.66975e-26
1.08594e-25
-4.67371e-26
-7.83653e-26
-5.1829e-24
-6.71426e-25
-1.64705e-22
-3.72929e-23
-9.54462e-22
-4.06272e-22
-4.10473e-21
-2.7226e-21
-1.81188e-20
-1.51585e-20
-7.30362e-20
-6.11133e-20
-3.35138e-19
-1.64637e-19
-4.06949e-19
-2.95276e-19
-4.18351e-19
-3.18183e-19
-2.8463e-19
-2.54965e-19
-1.57995e-19
-1.28734e-19
-9.48317e-20
-4.63493e-20
-4.07597e-20
-1.72306e-20
-1.28436e-20
-5.7698e-21
-1.58239e-20
-3.00238e-21
-5.34107e-20
-9.16289e-21
-6.49696e-19
-9.37621e-20
-6.85257e-18
-9.35292e-19
-4.46807e-17
-6.23738e-18
-2.24315e-17
-1.621e-16
1.43488e-27
3.43627e-27
-1.61433e-27
5.47034e-26
-3.13015e-27
1.70632e-26
-2.51148e-25
-4.36278e-26
-6.76448e-24
-1.31643e-24
-7.3864e-23
-2.38034e-23
-6.37011e-22
-3.46034e-22
-4.10934e-21
-2.53725e-21
-1.69853e-20
-1.12529e-20
-4.80511e-20
-3.14287e-20
-6.04656e-20
-5.44388e-20
-6.5053e-20
-5.72753e-20
-4.4183e-20
-4.58448e-20
-1.86449e-20
-2.22292e-20
-7.71933e-21
-6.1402e-21
-2.75283e-21
-1.37984e-21
-1.25722e-21
-3.8584e-22
-1.69784e-21
-2.97096e-22
-1.03797e-20
-1.5246e-21
-1.59987e-19
-2.038e-20
-2.30403e-18
-2.75311e-19
-1.87443e-17
-2.46411e-18
-1.04976e-17
-7.67943e-17
7.46703e-28
1.1558e-27
8.48565e-28
2.15163e-26
-2.12668e-27
1.91789e-26
-7.01947e-27
4.49012e-28
-2.2306e-25
-2.49247e-26
-6.63693e-24
-1.78011e-24
-9.77616e-23
-3.88774e-23
-7.58148e-22
-3.44078e-22
-3.51599e-21
-1.76525e-21
-1.01535e-20
-5.35869e-21
-1.24246e-20
-9.87431e-21
-1.33438e-20
-1.04557e-20
-8.99378e-21
-8.36896e-21
-3.12349e-21
-4.08484e-21
-7.69511e-22
-1.06556e-21
-1.79881e-22
-1.73642e-22
-1.42484e-22
-3.83341e-23
-2.07174e-22
-3.8189e-23
-1.93194e-21
-3.02894e-22
-4.03298e-20
-5.1042e-21
-8.69403e-19
-9.31101e-20
-9.2879e-18
-1.10138e-18
-5.38551e-18
-4.50147e-17
2.96232e-28
2.894e-28
9.83721e-28
6.28546e-27
4.27479e-29
9.15059e-27
-1.77737e-27
2.10586e-27
-8.85188e-27
-1.88783e-28
-6.0949e-25
-1.27248e-25
-1.18131e-23
-2.91153e-24
-1.13269e-22
-3.50682e-23
-5.9422e-22
-2.16326e-22
-1.91843e-21
-7.13084e-22
-2.41895e-21
-1.35733e-21
-2.59441e-21
-1.43622e-21
-1.77613e-21
-1.15632e-21
-6.09923e-22
-5.79556e-22
-1.12772e-22
-1.51391e-22
-1.66539e-23
-1.85086e-23
-1.90667e-23
-2.60827e-24
-3.21047e-23
-5.08521e-24
-4.21527e-22
-6.68511e-23
-1.16819e-20
-1.3713e-21
-3.72288e-19
-3.30466e-20
-5.02214e-18
-5.04228e-19
-2.73157e-18
-2.75299e-17
8.4772e-29
5.01895e-29
4.8365e-28
1.24858e-27
2.0674e-28
2.38273e-27
-2.21379e-29
7.8227e-28
-5.01438e-28
4.80322e-30
-3.69321e-26
-4.15057e-27
-1.00351e-24
-1.30475e-25
-1.293e-23
-2.64739e-24
-7.83287e-23
-1.91634e-23
-2.68633e-22
-6.73163e-23
-3.41374e-22
-1.28305e-22
-3.66367e-22
-1.34419e-22
-2.57927e-22
-1.08804e-22
-9.12437e-23
-5.65716e-23
-1.33659e-23
-1.54644e-23
-1.22239e-24
-1.62195e-24
-1.44482e-24
-2.22725e-25
-5.34846e-24
-8.71527e-25
-9.92589e-23
-1.55629e-23
-3.5213e-21
-3.63673e-22
-1.62416e-19
-1.11923e-20
-2.71467e-18
-2.13387e-19
-1.23569e-18
-1.57972e-17
1.59669e-29
5.37727e-30
1.28952e-28
1.4724e-28
7.87876e-29
3.01534e-28
6.57311e-31
9.78392e-29
-3.80397e-28
2.19109e-29
-1.08304e-27
-6.02441e-30
-6.08952e-26
-3.97428e-27
-1.07466e-24
-1.43499e-25
-7.38524e-24
-1.14798e-24
-2.58036e-23
-4.18554e-24
-3.24931e-23
-7.84679e-24
-3.48167e-23
-8.12377e-24
-2.53266e-23
-6.65627e-24
-9.55301e-24
-3.69684e-24
-1.24425e-24
-1.15708e-24
-1.16942e-25
-1.52138e-25
-1.4863e-25
-3.47066e-26
-1.0843e-24
-1.8226e-25
-2.37225e-23
-3.45053e-24
-1.01625e-21
-8.82586e-23
-6.57032e-20
-3.34088e-21
-1.32938e-18
-7.87748e-20
-4.79708e-19
-8.04084e-18
1.73491e-30
2.81096e-31
1.65427e-29
8.52539e-30
1.00231e-29
1.75914e-29
3.04873e-30
5.56089e-30
-1.02268e-30
1.22487e-30
-1.25801e-29
-1.62982e-31
-2.78139e-27
-1.13874e-28
-6.16797e-26
-4.77686e-27
-4.62209e-25
-4.19153e-26
-1.59698e-24
-1.58605e-25
-1.98165e-24
-2.88569e-25
-2.12683e-24
-2.95299e-25
-1.62957e-24
-2.47484e-25
-7.04767e-25
-1.48655e-25
-1.13358e-25
-5.27206e-26
-1.94172e-26
-8.60896e-27
-2.58771e-26
-3.97143e-27
-2.36647e-25
-3.40324e-26
-5.29165e-24
-7.00394e-25
-2.58829e-22
-1.91234e-23
-2.30656e-20
-8.61034e-22
-5.87804e-19
-2.5104e-20
-1.56822e-19
-3.72451e-18
8.9199e-32
-8.05162e-48
9.62637e-31
-1.1128e-42
5.70585e-31
-1.30237e-39
1.71126e-31
-1.02422e-36
-2.81931e-32
-5.25509e-35
-3.12105e-31
-4.69227e-34
-8.31153e-29
-3.08307e-31
-2.13472e-27
-5.8156e-29
-1.76187e-26
-7.18183e-28
-5.89601e-26
-3.0419e-27
-7.22455e-26
-5.93044e-27
-7.80306e-26
-6.20853e-27
-6.3772e-26
-5.44602e-27
-3.1247e-26
-3.48501e-27
-5.53466e-27
-1.28607e-27
-2.24074e-27
-2.64541e-28
-3.34529e-27
-3.80159e-28
-4.61157e-26
-6.04133e-27
-1.07235e-24
-1.31594e-25
-5.72318e-23
-3.72609e-24
-7.00459e-21
-1.91528e-22
-2.34053e-19
-6.86048e-21
-4.10643e-20
-1.53972e-18
-8.05156e-48
-6.14031e-53
-1.11281e-42
-5.83852e-48
-1.93516e-39
-3.75164e-45
-4.03479e-36
-3.19453e-42
-4.77898e-36
-2.18066e-39
-4.34772e-34
-1.17904e-36
-6.39497e-31
-8.02633e-34
-3.11234e-29
-1.8187e-31
-3.12434e-28
-2.39885e-30
-1.16716e-27
-1.02474e-29
-1.5065e-27
-2.23841e-29
-1.65322e-27
-2.62583e-29
-1.44742e-27
-2.43013e-29
-7.4166e-28
-1.72574e-29
-1.19114e-28
-8.4824e-30
-1.33176e-28
-6.60941e-30
-4.06319e-28
-4.3836e-29
-8.51867e-27
-1.04264e-27
-1.99946e-25
-2.34757e-26
-1.11188e-23
-6.73945e-25
-1.83426e-21
-3.75683e-23
-8.13268e-20
-1.62185e-21
-7.82184e-21
-5.56957e-19
-9.0423e-53
2.902e-53
-5.83382e-48
-7.3286e-51
-3.20014e-45
-5.32384e-48
-2.49107e-42
-5.03017e-45
-1.88294e-39
-3.77401e-42
-1.09629e-36
-2.22337e-39
-1.81918e-33
-1.43307e-36
-9.97221e-32
-5.66998e-34
-9.54483e-31
-1.12061e-32
-3.91897e-30
-6.24024e-32
-6.29388e-30
-1.79353e-31
-7.00227e-30
-3.26293e-31
-6.70079e-30
-3.65007e-31
-3.6212e-30
-3.39076e-31
-3.03126e-30
-2.48107e-31
-4.05276e-30
-3.74926e-31
-5.67689e-29
-6.49678e-30
-1.50425e-27
-1.71327e-28
-3.52403e-26
-4.0778e-27
-1.94661e-24
-1.17157e-25
-4.20339e-22
-6.70252e-24
-2.5954e-20
-3.38629e-22
-5.37546e-22
-1.8157e-19
-1.45906e-53
6.82e-54
-7.37055e-51
2.73597e-53
-5.3009e-48
-1.4505e-52
-5.01826e-45
-1.97079e-49
-3.76627e-42
-9.40093e-47
-2.22696e-39
-5.55791e-44
-3.61638e-36
-2.93094e-41
-3.4295e-34
-1.6334e-38
-4.49994e-33
-7.21033e-36
-2.23631e-32
-1.67308e-34
-6.69272e-32
-9.81873e-34
-9.92551e-32
-2.79776e-33
-1.09737e-31
-3.9698e-33
-9.26801e-32
-3.71242e-33
-1.02903e-31
-3.31229e-33
-3.05534e-31
-2.84663e-32
-8.46533e-30
-9.42758e-31
-2.49314e-28
-2.70168e-29
-5.9931e-27
-6.90381e-28
-3.15981e-25
-1.97735e-26
-8.54703e-23
-1.09315e-24
-7.71713e-21
-6.14556e-23
4.11567e-22
-5.48447e-20
5.19877e-58
8.79628e-55
-5.8581e-54
4.04032e-54
-1.73455e-52
-2.45761e-56
-4.88777e-50
-3.08481e-53
-1.51146e-47
-2.95406e-50
-5.34841e-44
-2.18015e-47
-2.88273e-41
-1.29641e-44
-4.38025e-38
-6.57559e-42
-5.29738e-36
-4.93546e-39
-7.74215e-35
-3.6528e-37
-4.46179e-34
-2.84756e-36
-1.02279e-33
-9.36261e-36
-1.12302e-33
-1.49009e-35
-1.18128e-33
-1.48243e-35
-1.56534e-33
-8.82067e-35
-2.94906e-32
-3.58621e-33
-1.16824e-30
-1.28422e-31
-3.84432e-29
-4.02876e-30
-9.78505e-28
-1.10892e-28
-4.75285e-26
-3.13971e-27
-1.51282e-23
-1.60398e-25
-2.10176e-21
-9.35418e-24
2.59721e-22
-1.50854e-20
-1.28931e-55
1.15538e-66
-8.12653e-58
-4.70016e-62
-2.53197e-56
-6.89981e-59
-3.10542e-53
-4.16478e-57
-2.93959e-50
-6.53319e-54
-2.17791e-47
-7.34368e-52
-1.29731e-44
-2.06127e-49
-9.11716e-42
-1.16751e-46
-7.36101e-39
-6.22759e-44
-1.78338e-37
-4.26978e-41
-1.25416e-36
-1.51398e-39
-3.34993e-36
-9.55662e-39
-3.88579e-36
-1.91198e-38
-4.97087e-36
-1.89594e-37
-6.95983e-35
-9.45857e-36
-3.39522e-33
-4.04139e-34
-1.4544e-31
-1.59889e-32
-5.3385e-30
-5.54676e-31
-1.4701e-28
-1.63148e-29
-6.3049e-27
-4.55086e-28
-2.20577e-24
-2.10468e-26
-4.98947e-22
-1.24725e-24
9.22522e-23
-3.59281e-21
-3.17653e-67
7.67899e-67
-2.32916e-61
8.58846e-64
-2.73262e-60
-2.61587e-62
-4.53536e-57
-4.73092e-59
-7.0432e-54
-1.13145e-55
-8.98161e-53
-1.65828e-53
-1.75688e-49
-1.48951e-51
-1.16349e-46
-1.64252e-49
-1.65382e-43
-1.26052e-47
-4.0998e-41
-1.02004e-45
-9.05641e-40
-8.62279e-44
-2.03647e-39
-4.25377e-42
-5.18291e-39
-2.60948e-40
-1.14603e-37
-1.73938e-38
-6.44388e-36
-8.74004e-37
-3.30853e-34
-4.17298e-35
-1.58125e-32
-1.79408e-33
-6.40182e-31
-6.88428e-32
-1.90947e-29
-2.17313e-30
-6.93019e-28
-6.04721e-29
-2.52365e-25
-2.4975e-27
-9.65514e-23
-1.84643e-25
2.17572e-23
-6.80778e-22
-2.6428e-67
3.99737e-67
-4.54487e-64
3.1731e-64
-2.60791e-62
-5.34036e-64
-4.10464e-59
-1.15599e-60
-1.42874e-56
-3.25031e-57
-2.40543e-54
-5.24762e-55
-4.42445e-52
-6.47742e-53
-3.62814e-50
-7.36977e-51
-2.91731e-48
-6.91171e-49
-3.70257e-46
-5.65826e-47
-2.40194e-44
-3.89736e-45
-1.4436e-42
-3.16745e-43
-1.26156e-40
-2.16401e-41
-8.50582e-39
-1.27423e-39
-5.02921e-37
-7.19879e-38
-2.77615e-35
-3.77495e-36
-1.44899e-33
-1.78758e-34
-6.37887e-32
-7.58936e-33
-2.05283e-30
-2.64625e-31
-6.07105e-29
-7.78218e-30
-2.16514e-26
-2.83726e-28
-1.38338e-23
-3.8689e-26
3.02151e-24
-8.85804e-23
-1.4383e-67
1.38983e-67
-5.42799e-66
7.4562e-65
-5.2993e-64
-9.53445e-66
-1.03013e-60
-2.4057e-62
-3.69618e-58
-7.74989e-59
-6.84487e-56
-1.37317e-56
-1.08795e-53
-1.84741e-54
-1.43202e-51
-2.29007e-52
-1.60387e-49
-2.24656e-50
-1.26191e-47
-2.30035e-48
-1.18121e-45
-1.93436e-46
-1.07567e-43
-1.60057e-44
-7.76329e-42
-1.11492e-42
-5.2051e-40
-8.25224e-41
-3.34334e-38
-5.11763e-39
-1.97294e-36
-3.00491e-37
-1.0976e-34
-1.58535e-35
-5.17244e-33
-7.4575e-34
-1.8091e-31
-2.97337e-32
-4.32237e-30
-9.88746e-31
-1.39e-27
-3.18375e-29
-1.20282e-24
-9.39351e-27
8.02194e-26
-5.21805e-24
-4.7891e-68
2.36456e-68
-3.92969e-68
8.8372e-66
-9.48449e-66
-8.92546e-68
-2.19152e-62
-3.47272e-64
-8.0121e-60
-1.22021e-60
-1.62978e-57
-2.43613e-58
-2.90013e-55
-3.73527e-56
-3.6711e-53
-5.35537e-54
-4.72112e-51
-6.1405e-52
-5.02625e-49
-7.06545e-50
-5.16743e-47
-6.63402e-48
-4.21853e-45
-6.61905e-46
-3.68862e-43
-5.28284e-44
-2.81685e-41
-4.51288e-42
-1.95711e-39
-3.12432e-40
-1.24834e-37
-2.02373e-38
-7.21747e-36
-1.22423e-36
-3.58712e-34
-6.51306e-35
-1.37881e-32
-3.04731e-33
-2.55905e-31
-1.19521e-31
-5.7333e-29
-3.67159e-30
-8.87865e-27
-1.92319e-27
-7.2899e-26
5.40156e-25
-7.38617e-69
1.15623e-79
-1.17463e-69
1.30355e-76
-7.28429e-69
-2.14545e-67
-2.9562e-64
-3.82505e-66
-1.18564e-61
-1.25636e-62
-2.7235e-59
-3.03276e-60
-5.53081e-57
-5.34419e-58
-8.31037e-55
-9.0867e-56
-1.22422e-52
-1.24857e-53
-1.39397e-50
-1.67538e-51
-1.6972e-48
-1.91113e-49
-1.6123e-46
-2.15722e-47
-1.62532e-44
-2.01909e-45
-1.39168e-42
-1.94246e-43
-1.0261e-40
-1.57756e-41
-7.17199e-39
-1.11192e-39
-4.41487e-37
-7.79014e-38
-2.34101e-35
-4.90108e-36
-1.0081e-33
-2.71655e-34
-1.36658e-32
-1.28185e-32
-7.85569e-32
-4.83296e-31
1.0522e-27
-2.90728e-28
-2.04995e-26
1.75848e-25
-3.14181e-80
7.02279e-80
-2.17494e-79
2.38117e-76
-7.46376e-69
-7.60079e-72
-1.65239e-66
-2.90537e-68
-1.22939e-63
-7.30868e-65
-3.27769e-61
-2.17978e-62
-7.74236e-59
-5.09083e-60
-1.40548e-56
-9.78038e-58
-2.38977e-54
-1.76498e-55
-3.35926e-52
-2.68018e-53
-4.6861e-50
-3.91076e-51
-5.21645e-48
-4.89126e-49
-5.87392e-46
-5.51971e-47
-5.96386e-44
-6.21886e-45
-4.75068e-42
-5.72695e-43
-3.61751e-40
-4.73976e-41
-2.53715e-38
-3.76858e-39
-1.51049e-36
-2.93219e-37
-7.05159e-35
-1.94105e-35
-8.95299e-34
-1.11736e-33
3.75593e-32
-5.20042e-32
1.41256e-28
-3.14987e-29
-3.15687e-27
2.38064e-26
-1.62556e-80
3.07938e-80
-6.54741e-79
9.10001e-77
-4.27764e-73
-2.77632e-74
-7.86698e-69
-1.12725e-70
-6.77401e-66
-1.84705e-67
-2.53389e-63
-6.4949e-65
-6.73331e-61
-2.12832e-62
-1.61946e-58
-5.32433e-60
-3.13907e-56
-1.25756e-57
-5.73332e-54
-2.40114e-55
-9.06712e-52
-4.46661e-53
-1.18614e-49
-6.6306e-51
-1.6131e-47
-1.00284e-48
-1.84038e-45
-1.26993e-46
-1.71638e-43
-1.35829e-44
-1.43655e-41
-1.4124e-42
-1.20592e-39
-1.37084e-40
-8.51072e-38
-1.25703e-38
-4.73126e-36
-9.98717e-37
-7.51305e-35
-7.17069e-35
2.28525e-33
-3.94016e-33
1.01257e-29
-2.36289e-30
-3.1367e-28
2.06321e-27
-5.9643e-81
8.70501e-81