/*--------------------------------*- C++ -*----------------------------------*\
| =========                 |                                                 |
| \\      /  F ield         | OpenFOAM: The Open Source CFD Toolbox           |
|  \\    /   O peration     | Version:  5.x                                   |
|   \\  /    A nd           | Web:      www.OpenFOAM.org                      |
|    \\/     M anipulation  |                                                 |
\*---------------------------------------------------------------------------*/
FoamFile
{
    version     2.0;
    format      ascii;
    class       volScalarField;
    location    "0.45";
    object      p;
}
// * * * * * * * * * * * * * * * * * * * * * * * * * * * * * * * * * * * * * //

dimensions      [1 -1 -2 0 0 0 0];

internalField   nonuniform List<scalar> 
2268
(
742.602
740.958
746.585
756.39
763.819
767.461
767.983
768.285
770.7
776.193
784.904
796.766
811.748
829.675
850.463
873.861
898.846
923.195
940.249
958.925
938.098
924.831
975.687
683.058
680.73
686.212
696.072
703.513
707.219
707.833
708.271
710.842
716.474
725.279
737.13
751.828
769.32
789.52
812.293
837.047
862.442
883.589
902.276
889.861
849.634
908.334
622.659
619.482
624.298
634.425
641.782
645.626
646.428
647.134
650.013
655.919
664.922
676.893
691.704
709.21
729.23
751.352
774.838
798.555
819.845
837.351
831.822
787.13
847.427
561.813
557.423
561.41
571.093
578.69
582.798
583.879
584.97
588.291
594.585
603.872
616.027
630.915
648.411
668.278
690.055
712.857
735.276
755.093
770.451
770.069
750.012
798.809
501.009
494.607
497.612
506.323
514.368
518.902
520.326
521.892
525.766
532.538
542.17
554.549
569.561
587.075
606.866
628.448
650.934
672.818
691.949
706.752
713.031
711.034
757.756
440.837
432.107
432.958
440.209
448.868
454.068
455.868
457.94
462.451
469.785
479.822
492.478
507.651
525.221
545.01
566.542
588.944
610.719
629.956
645.294
656.186
664.71
709.019
381.893
369.81
367.674
373.078
382.393
388.482
390.739
393.308
398.435
406.318
416.766
429.735
445.133
462.851
482.728
504.328
526.84
548.761
568.428
584.331
596.71
608.161
641.383
325.381
309.706
303.343
306.147
315.497
322.269
325.146
328.457
334.269
342.61
353.323
366.467
381.949
399.773
419.984
441.905
464.754
486.979
507.124
523.417
534.964
544.317
554.024
286.455
286.239
284.61
283.227
282.909
283.019
283.005
282.925
282.875
282.863
282.891
282.973
283.124
283.363
283.756
284.447
285.468
286.436
286.815
286.416
286.124
284.335
282.955
282.755
282.958
282.953
282.861
282.807
282.793
282.818
282.897
283.041
283.268
283.638
284.326
285.39
286.41
286.791
286.384
285.937
283.738
282.517
282.522
282.848
282.865
282.777
282.723
282.707
282.727
282.797
282.928
283.133
283.465
284.144
285.291
286.415
286.804
286.356
285.46
282.586
281.826
282.22
282.689
282.741
282.673
282.626
282.607
282.621
282.677
282.788
282.959
283.224
283.871
285.145
286.439
286.852
286.466
284.564
281.153
280.893
281.938
282.511
282.6
282.56
282.52
282.498
282.501
282.539
282.621
282.747
282.905
283.46
284.907
286.459
286.942
287.053
282.789
280.483
280.692
281.771
282.346
282.462
282.444
282.407
282.378
282.369
282.386
282.431
282.496
282.5
282.837
284.485
286.459
287.098
282.885
281.922
280.523
280.88
281.71
282.217
282.34
282.331
282.29
282.252
282.229
282.22
282.219
282.21
282.005
281.89
283.612
286.298
287.287
276.147
281.368
280.766
281.169
281.734
282.135
282.238
282.223
282.17
282.121
282.081
282.048
281.991
281.894
281.429
280.534
281.464
285.457
287.552
240.228
221.36
206.03
201.883
210.099
217.119
220.589
225.382
232.808
242.262
253.624
267.219
282.683
299.606
319.555
342.609
366.779
390.257
411.787
429.051
437.189
430.747
363.436
132.649
110.636
81.1006
65.3121
71.6265
77.4315
78.9623
82.8594
90.1423
99.6017
111.179
126.139
145.851
168.987
191.232
212.425
235.975
260.437
284.113
303.82
314.513
313.446
299.864
55.0018
26.3625
8.56279
5.26055
7.76803
9.21044
9.37679
10.3407
12.385
15.1641
18.5129
22.7961
28.6257
36.8398
50.0833
69.2971
96.6283
128.274
161.91
188.034
205.725
219.877
231.88
1.08728
0.155287
0.137699
0.241013
0.23904
0.253804
0.263764
0.26659
0.269725
0.280828
0.302959
0.333462
0.344005
0.4846
1.44736
5.17109
11.9401
27.094
53.4333
79.8101
105.245
129.626
146.515
0.110884
0.031985
0.0554776
0.102262
0.106666
0.112285
0.117218
0.120088
0.122302
0.127533
0.140219
0.16952
0.199298
0.238965
0.23794
0.280068
0.378302
0.770236
4.08418
11.2611
26.1487
47.9567
66.5106
-0.0206838
-0.0259845
-0.0351048
-0.0318675
-0.0324097
-0.0295724
-0.0261098
-0.0237223
-0.0211495
-0.0174273
-0.0122853
-0.00722723
-0.020423
-0.0813307
-0.0797953
0.0846336
0.193873
0.208757
0.291398
0.41719
0.46353
4.19299
15.4728
-0.173928
-0.182332
-0.183368
-0.178093
-0.175689
-0.173202
-0.170521
-0.168098
-0.165374
-0.161334
-0.155133
-0.14548
-0.132475
-0.184608
-0.196854
-0.114151
-0.0635446
-0.0766523
-0.0577735
-0.0423667
-0.124431
-0.199987
-0.0937112
-0.322785
-0.323751
-0.322632
-0.321419
-0.319576
-0.317411
-0.315061
-0.312776
-0.31024
-0.306838
-0.302368
-0.297977
-0.299663
-0.315942
-0.325177
-0.287814
-0.25265
-0.26114
-0.255426
-0.281745
-0.349875
-0.519146
-0.542691
-0.469184
-0.468271
-0.466913
-0.465955
-0.464346
-0.462343
-0.460064
-0.457729
-0.455257
-0.452323
-0.448714
-0.444567
-0.443427
-0.447532
-0.449636
-0.437022
-0.422603
-0.430693
-0.441558
-0.486674
-0.573454
-0.702848
-0.745182
-0.615913
-0.614312
-0.612691
-0.611535
-0.609939
-0.607928
-0.605593
-0.603088
-0.60045
-0.597589
-0.594505
-0.59044
-0.58826
-0.587785
-0.586581
-0.581747
-0.577867
-0.58435
-0.60719
-0.65088
-0.726793
-0.838423
-0.900757
-0.762362
-0.760698
-0.75914
-0.757839
-0.756149
-0.754051
-0.751583
-0.748831
-0.745853
-0.742643
-0.739187
-0.735508
-0.732397
-0.729895
-0.727683
-0.725771
-0.725567
-0.73231
-0.757831
-0.80097
-0.857285
-0.924678
-0.956766
-0.909025
-0.907577
-0.906131
-0.904698
-0.902884
-0.90065
-0.898008
-0.894999
-0.891663
-0.888032
-0.884142
-0.880136
-0.876344
-0.87293
-0.870209
-0.868699
-0.869228
-0.875248
-0.893898
-0.929572
-0.975515
-1.01901
-1.03093
-1.05612
-1.05493
-1.05358
-1.05205
-1.0501
-1.0477
-1.04486
-1.04159
-1.03792
-1.0339
-1.02958
-1.02511
-1.02071
-1.01662
-1.01327
-1.01117
-1.01108
-1.015
-1.02599
-1.04636
-1.07567
-1.1039
-1.11668
-1.20377
-1.20279
-1.2015
-1.19988
-1.19779
-1.19521
-1.19214
-1.1886
-1.18461
-1.1802
-1.17546
-1.17048
-1.16546
-1.16063
-1.15633
-1.15302
-1.15132
-1.1523
-1.15719
-1.16676
-1.17964
-1.19053
-1.19332
-1.35205
-1.35121
-1.34994
-1.34823
-1.34599
-1.34322
-1.33991
-1.33608
-1.33175
-1.32695
-1.32174
-1.31621
-1.3105
-1.30481
-1.29939
-1.29453
-1.29066
-1.28833
-1.28806
-1.2899
-1.29257
-1.29292
-1.2877
-1.50099
-1.50024
-1.49895
-1.49713
-1.49474
-1.49176
-1.48821
-1.48408
-1.47939
-1.47416
-1.46845
-1.46232
-1.45587
-1.44925
-1.44261
-1.43616
-1.43015
-1.42478
-1.42019
-1.4161
-1.41154
-1.40476
-1.39398
-1.65063
-1.64991
-1.64858
-1.64665
-1.64409
-1.64091
-1.63709
-1.63265
-1.62759
-1.62193
-1.61569
-1.60892
-1.60169
-1.59409
-1.58621
-1.57817
-1.57007
-1.56198
-1.55385
-1.54536
-1.53577
-1.52393
-1.5087
-1.80098
-1.80025
-1.79886
-1.79682
-1.7941
-1.79071
-1.78664
-1.78188
-1.77644
-1.77033
-1.76355
-1.75613
-1.74811
-1.73953
-1.73044
-1.72087
-1.71085
-1.70035
-1.68923
-1.67719
-1.6637
-1.64805
-1.62948
-1.95207
-1.95132
-1.94985
-1.9477
-1.94483
-1.94123
-1.9369
-1.93183
-1.92602
-1.91946
-1.91214
-1.90408
-1.89528
-1.88576
-1.87551
-1.86452
-1.85277
-1.84018
-1.82659
-1.81173
-1.79522
-1.77656
-1.75524
-2.10392
-2.10313
-2.1016
-2.09934
-2.09631
-2.09252
-2.08794
-2.08258
-2.07641
-2.06941
-2.06158
-2.05291
-2.04336
-2.03295
-2.02162
-2.00934
-1.99605
-1.98164
-1.96596
-1.94878
-1.92981
-1.90869
-1.8851
-2.25656
-2.25574
-2.25413
-2.25177
-2.2486
-2.24463
-2.23983
-2.23419
-2.22768
-2.22028
-2.21197
-2.20271
-2.19248
-2.18124
-2.16894
-2.15551
-2.14086
-2.12488
-2.10743
-2.08831
-2.06729
-2.04411
-2.01854
-2.41002
-2.40917
-2.40749
-2.40504
-2.40174
-2.39761
-2.39261
-2.38671
-2.3799
-2.37214
-2.36339
-2.35361
-2.34276
-2.33078
-2.31761
-2.30316
-2.28733
-2.27001
-2.25105
-2.23028
-2.20752
-2.18256
-2.15524
-2.56432
-2.56344
-2.5617
-2.55917
-2.55577
-2.5515
-2.54632
-2.54021
-2.53314
-2.52506
-2.51593
-2.5057
-2.4943
-2.48168
-2.46775
-2.45243
-2.43559
-2.41711
-2.39687
-2.3747
-2.35044
-2.32392
-2.29503
-2.71948
-2.71858
-2.7168
-2.71421
-2.71072
-2.70633
-2.70101
-2.69473
-2.68744
-2.6791
-2.66965
-2.65904
-2.64719
-2.63403
-2.61947
-2.60341
-2.58572
-2.56628
-2.54495
-2.52158
-2.49603
-2.46815
-2.43781
-2.87553
-2.87461
-2.87279
-2.87016
-2.86661
-2.86214
-2.85672
-2.8503
-2.84285
-2.83431
-2.82462
-2.81371
-2.8015
-2.78792
-2.77285
-2.75619
-2.73781
-2.71758
-2.69535
-2.67099
-2.64433
-2.61524
-2.58359
-3.03248
-3.03155
-3.02971
-3.02706
-3.02347
-3.01895
-3.01346
-3.00696
-2.9994
-2.99073
-2.98087
-2.96976
-2.9573
-2.9434
-2.92796
-2.91086
-2.89195
-2.8711
-2.84816
-2.82298
-2.7954
-2.76527
-2.73243
-3.19031
-3.18941
-3.18756
-3.18489
-3.18129
-3.17676
-3.17125
-3.16473
-3.15713
-3.14839
-3.13845
-3.12723
-3.11462
-3.10054
-3.08486
-3.06746
-3.04819
-3.0269
-3.00344
-2.97763
-2.94932
-2.91833
-2.88454
-3.349
-3.34822
-3.34633
-3.34368
-3.34009
-3.33559
-3.3301
-3.3236
-3.31603
-3.30731
-3.29738
-3.28615
-3.27351
-3.25938
-3.24361
-3.22607
-3.20661
-3.18507
-3.16127
-3.13503
-3.10619
-3.07452
-3.03989
-3.50867
-3.50785
-3.506
-3.50339
-3.49986
-3.49542
-3.49001
-3.4836
-3.47612
-3.4675
-3.45767
-3.44653
-3.43399
-3.41993
-3.40422
-3.38671
-3.36725
-3.34565
-3.32174
-3.2953
-3.26614
-3.23401
-3.19875
-3.66918
-3.66838
-3.66655
-3.66402
-3.66057
-3.65624
-3.65096
-3.64469
-3.63738
-3.62895
-3.61931
-3.60839
-3.59606
-3.58222
-3.56673
-3.54943
-3.53015
-3.50872
-3.48491
-3.45852
-3.42931
-3.39701
-3.36138
-3.83051
-3.82975
-3.82797
-3.82554
-3.8222
-3.81802
-3.81292
-3.80687
-3.7998
-3.79163
-3.78229
-3.77169
-3.75972
-3.74624
-3.73113
-3.71422
-3.69534
-3.6743
-3.65086
-3.62479
-3.59583
-3.56367
-3.52797
-3.99264
-3.99195
-3.9902
-3.98791
-3.98471
-3.98074
-3.97587
-3.9701
-3.96334
-3.95553
-3.94658
-3.93642
-3.92492
-3.91196
-3.8974
-3.88108
-3.86281
-3.8424
-3.8196
-3.79416
-3.76578
-3.73415
-3.69864
-4.15555
-4.15495
-4.1532
-4.15108
-4.14808
-4.14435
-4.13977
-4.13433
-4.12796
-4.12059
-4.11214
-4.10252
-4.09163
-4.07933
-4.0655
-4.04996
-4.03252
-4.01299
-3.99111
-3.96662
-3.9392
-3.90862
-3.8742
-4.31921
-4.31874
-4.31686
-4.315
-4.31223
-4.3088
-4.30457
-4.29952
-4.2936
-4.28675
-4.27889
-4.26994
-4.25977
-4.24829
-4.23534
-4.22078
-4.2044
-4.18601
-4.16535
-4.14212
-4.11596
-4.08701
-4.05392
-4.48351
-4.48313
-4.48124
-4.47962
-4.47712
-4.47402
-4.47016
-4.46557
-4.46017
-4.45392
-4.44674
-4.43854
-4.42924
-4.4187
-4.40681
-4.39341
-4.37832
-4.36132
-4.34218
-4.3206
-4.29628
-4.26892
-4.23784
-4.64835
-4.64804
-4.64635
-4.64494
-4.64269
-4.63995
-4.63652
-4.63242
-4.62761
-4.62202
-4.6156
-4.60827
-4.59993
-4.59049
-4.57981
-4.56775
-4.55415
-4.5388
-4.52147
-4.50188
-4.47972
-4.45463
-4.42607
-4.81377
-4.81358
-4.81211
-4.81092
-4.80896
-4.8066
-4.80362
-4.80007
-4.79589
-4.79103
-4.78545
-4.77907
-4.77181
-4.76357
-4.75425
-4.74372
-4.73181
-4.71834
-4.7031
-4.68583
-4.66624
-4.64395
-4.61849
-4.9798
-4.97975
-4.97846
-4.97752
-4.97587
-4.97391
-4.97142
-4.96846
-4.96496
-4.96091
-4.95624
-4.95089
-4.94481
-4.93791
-4.93009
-4.92124
-4.91122
-4.89987
-4.88699
-4.87238
-4.85573
-4.83673
-4.81495
-5.1462
-5.14626
-5.14517
-5.14448
-5.14315
-5.14162
-5.13965
-5.1373
-5.13454
-5.13133
-5.12763
-5.1234
-5.11858
-5.11311
-5.1069
-5.09987
-5.09191
-5.08287
-5.0726
-5.06091
-5.04756
-5.03227
-5.01469
-5.31266
-5.31279
-5.31194
-5.31147
-5.31049
-5.30938
-5.30795
-5.30625
-5.30424
-5.30191
-5.29922
-5.29615
-5.29265
-5.28868
-5.28417
-5.27906
-5.27327
-5.26669
-5.2592
-5.25066
-5.2409
-5.22963
-5.21668
-5.47873
-5.47895
-5.47834
-5.4781
-5.47749
-5.4768
-5.47591
-5.47484
-5.47359
-5.47214
-5.47046
-5.46855
-5.46638
-5.46391
-5.46111
-5.45795
-5.45437
-5.45031
-5.4457
-5.44046
-5.43451
-5.42745
-5.41956
-5.64582
-5.64609
-5.64578
-5.64579
-5.64554
-5.64529
-5.64495
-5.64456
-5.64409
-5.64355
-5.64294
-5.64224
-5.64145
-5.64056
-5.63956
-5.63844
-5.63718
-5.63576
-5.63417
-5.63236
-5.63031
-5.62795
-5.62529
215.706
232.273
251.72
244.929
268.346
256.698
242.77
230.32
232.752
231.438
234.523
244.48
154.519
161.664
172.474
186.313
80.891
92.768
106.513
120.947
25.962
35.2574
47.514
59.6033
0.0442706
0.502644
3.25135
8.83055
-0.47735
-0.438147
-0.357953
-0.238737
-0.700459
-0.663452
-0.636725
-0.593164
-0.876185
-0.834422
-0.787038
-0.742992
-0.93727
-0.913889
-0.878407
-0.840362
-1.00683
-0.983723
-0.959468
-0.937077
-1.1108
-1.1033
-1.09073
-1.07244
-1.18812
-1.18342
-1.17675
-1.16725
-1.27884
-1.27151
-1.26236
-1.25144
-1.38221
-1.37339
-1.36338
-1.35221
-1.4944
-1.48421
-1.47313
-1.46123
-1.61318
-1.60188
-1.58985
-1.57713
-1.73726
-1.72499
-1.71209
-1.69859
-1.86564
-1.85251
-1.83881
-1.8246
-1.99776
-1.98382
-1.96935
-1.95438
-2.13324
-2.11854
-2.10331
-2.08761
-2.27188
-2.25645
-2.24049
-2.22404
-2.41359
-2.39744
-2.38075
-2.36356
-2.55835
-2.54153
-2.52413
-2.5062
-2.70625
-2.68879
-2.6707
-2.65205
-2.85745
-2.83938
-2.82065
-2.80129
-3.01207
-2.99348
-2.97416
-2.95414
-3.17034
-3.15131
-3.13151
-3.1109
-3.33254
-3.31319
-3.29299
-3.27192
-3.49895
-3.47943
-3.459
-3.43761
-3.66985
-3.6504
-3.62994
-3.60847
-3.84563
-3.82646
-3.80623
-3.7849
-4.02652
-4.00782
-3.98808
-3.96722
-4.21191
-4.19426
-4.17553
-4.15565
-4.40214
-4.38581
-4.36842
-4.34989
-4.59709
-4.58245
-4.56682
-4.55012
-4.79658
-4.78398
-4.77052
-4.75612
-4.99982
-4.98962
-4.97871
-4.96701
-5.20572
-5.19819
-5.19013
-5.18147
-5.41288
-5.40828
-5.40333
-5.39802
-5.62308
-5.62157
-5.61996
-5.61826
233.889
280.674
281.232
281.55
281.851
282.061
282.109
282.066
281.987
281.911
281.844
281.773
281.618
281.365
280.483
278.263
275.438
280.075
289.047
237.889
277.298
281.603
281.968
282.015
282.027
281.996
281.886
281.736
281.623
281.524
281.448
281.158
280.748
279.618
276.891
271.337
263.105
293.201
266.014
273.216
281.908
282.042
282.068
282.013
281.943
281.713
281.439
281.308
281.253
281.219
280.924
280.456
279.295
277.173
275.214
271.065
287.931
212.616
256.417
279.553
282.525
282.034
282.001
281.991
281.59
281.121
280.941
281.056
281.08
280.837
280.469
279.593
278.781
278.559
278.304
292.256
148.838
202.252
263.713
281.278
282.013
281.963
282.158
281.582
280.742
280.533
280.834
280.94
280.875
280.213
279.092
280.128
280.68
282.22
287.611
81.8093
127.293
182.036
235.127
249.984
263.929
277.492
281.712
275.009
260.619
259.432
263.103
256.373
270.477
277.399
279.356
279.102
285.988
359.829
24.8409
51.9704
89.3055
139.746
183.416
208.835
226.607
239.213
220.032
168.158
175.93
180.91
165.297
185.566
235.973
239.672
237.618
338.869
626.531
-0.0132117
6.16276
23.8256
44.5266
74.0214
101.819
120.27
134.571
130.319
108.176
104.516
107.12
110.931
134.268
194.224
259.617
392.218
635.757
963.559
-0.547249
-0.482121
-0.249274
1.22921
9.98738
21.9235
32.4859
40.5366
45.487
43.7306
41.3136
40.8614
42.7215
52.7609
93.0666
203.86
440.269
753.831
1039.77
-0.688312
-0.756118
-0.657969
-0.658281
-0.568346
-0.424097
0.00240752
1.49315
2.83
2.84309
2.52023
2.40234
2.81292
4.32627
10.5892
51.4927
277.395
637.391
869.679
-0.785473
-0.787643
-0.741209
-0.804978
-0.682661
-0.563242
-0.460314
-0.292469
-0.140818
-0.0204429
0.0701946
0.16896
0.338792
0.67435
1.73379
7.96217
50.0787
434.178
629.095
-0.901803
-0.884396
-0.850815
-0.81943
-0.74135
-0.653475
-0.55766
-0.432882
-0.309769
-0.204778
-0.0999498
0.0225384
0.241053
0.553569
0.961976
3.95769
14.4853
292.767
396.657
-1.04003
-1.00253
-0.972733
-0.936483
-0.858581
-0.761942
-0.66378
-0.557216
-0.453741
-0.361531
-0.270184
-0.151971
0.0202479
0.277352
0.857148
1.36824
67.5499
210.134
260.129
-1.1483
-1.12544
-1.07676
-1.01941
-0.947955
-0.86634
-0.779528
-0.688896
-0.599561
-0.516376
-0.435971
-0.340282
-0.246079
-0.283154
-0.00766265
16.5935
119.362
169.04
197.646
-1.23047
-1.19297
-1.15501
-1.10627
-1.04554
-0.975127
-0.898289
-0.818614
-0.74009
-0.666477
-0.601961
-0.549353
-0.538897
-0.761349
-2.24086
0.143481
92.6917
122.801
141.872
-1.3313
-1.29599
-1.25471
-1.20767
-1.15242
-1.08893
-1.01965
-0.94855
-0.879279
-0.814527
-0.761749
-0.748482
-0.811778
-0.830166
-1.71661
-4.2082
32.3765
33.9483
75.4171
-1.43964
-1.40428
-1.36368
-1.31782
-1.26564
-1.20676
-1.14294
-1.07777
-1.01474
-0.956557
-0.907629
-0.890228
-0.931758
-0.911521
-0.639395
-2.02876
-0.262977
-21.201
36.2478
-1.55441
-1.51825
-1.47783
-1.43303
-1.38304
-1.32734
-1.26737
-1.20624
-1.14654
-1.09046
-1.03782
-0.992765
-0.965485
-0.885032
-0.534426
-0.131509
-1.80818
2.43232
18.8893
-1.67475
-1.63761
-1.59679
-1.55239
-1.50368
-1.45003
-1.39273
-1.33443
-1.27654
-1.21982
-1.16257
-1.09765
-1.03403
-0.999077
-1.02532
-0.162733
6.81346
11.594
13.3071
-1.79978
-1.76137
-1.7198
-1.67518
-1.62695
-1.57446
-1.51879
-1.46246
-1.40631
-1.34925
-1.29035
-1.22236
-1.13666
-1.02566
-0.927169
-0.569879
-0.405897
10.5963
13.5714
-1.92837
-1.88873
-1.84611
-1.80077
-1.75231
-1.70015
-1.64523
-1.58994
-1.53525
-1.47958
-1.42148
-1.35491
-1.25792
-1.0391
-0.480738
-0.893747
-3.02788
14.17
13.3638
-2.06041
-2.01931
-1.97531
-1.92875
-1.87946
-1.82686
-1.77174
-1.71645
-1.66262
-1.60985
-1.55756
-1.50119
-1.40077
-1.16336
-0.836292
-0.694723
2.85684
19.2138
-16.1325
-2.19562
-2.15284
-2.10715
-2.05893
-2.00819
-1.95434
-1.89803
-1.84179
-1.78841
-1.73961
-1.69879
-1.66742
-1.61389
-1.49556
-1.43863
-1.28246
-0.721621
5.0283
28.2923
-2.3339
-2.28925
-2.24155
-2.19124
-2.13841
-2.08238
-2.02369
-1.96517
-1.91099
-1.86564
-1.83644
-1.83925
-1.89756
-2.03568
-2.21551
-2.19927
-2.53394
-1.30872
20.758
-2.47527
-2.42859
-2.37859
-2.32577
-2.27026
-2.21113
-2.14843
-2.08489
-2.02759
-1.98284
-1.96001
-1.99358
-2.17603
-2.58217
-2.8977
-2.93017
-2.79631
-0.603569
0.287913
-2.61982
-2.57099
-2.51848
-2.4628
-2.40417
-2.34111
-2.27298
-2.20274
-2.13829
-2.08906
-2.06431
-2.10523
-2.327
-2.81991
-3.12584
-3.22011
-2.36892
-1.56887
0.0474144
-2.76776
-2.71673
-2.66154
-2.60273
-2.54066
-2.47311
-2.39902
-2.32105
-2.24751
-2.18865
-2.15258
-2.17449
-2.35222
-2.79118
-3.09542
-3.15456
-2.60364
-2.58082
-14.0311
-2.91936
-2.86618
-2.80829
-2.74616
-2.6804
-2.60799
-2.52776
-2.44095
-2.35756
-2.28541
-2.22903
-2.20932
-2.30018
-2.58418
-2.83105
-2.74317
-2.34755
-2.17147
15.538
-3.07498
-3.01975
-2.95925
-2.89375
-2.82422
-2.74651
-2.65729
-2.5629
-2.46876
-2.37971
-2.29543
-2.21265
-2.20316
-2.34746
-2.535
-2.39906
-1.48782
0.633418
20.4086
-3.23504
-3.17797
-3.11505
-3.04639
-2.97332
-2.89148
-2.79628
-2.69155
-2.58491
-2.47875
-2.36997
-2.19362
-2.08361
-2.11604
-2.43412
-2.55108
-0.144735
9.44635
30.9576
-3.40004
-3.34148
-3.27639
-3.20476
-3.12832
-3.04292
-2.94247
-2.82832
-2.70764
-2.58652
-2.45411
-2.21189
-1.97246
-1.78435
-2.20128
-4.09398
3.93378
23.2566
64.4629
-3.5706
-3.51098
-3.44409
-3.36971
-3.28979
-3.20076
-3.09643
-2.96904
-2.83199
-2.70286
-2.57821
-2.32073
-1.97878
-1.76599
-2.06551
4.08236
13.567
26.727
57.9307
-3.74721
-3.68733
-3.61955
-3.54343
-3.45979
-3.36733
-3.25911
-3.12431
-2.97094
-2.8474
-2.75875
-2.64348
-2.20199
-1.56612
0.810127
7.49711
9.32101
13.7588
32.8904
-3.93033
-3.87115
-3.8036
-3.72676
-3.6405
-3.54462
-3.43309
-3.29879
-3.14352
-3.01718
-2.92399
-2.81951
-2.56953
-1.48389
2.84997
6.14547
7.51053
8.15618
14.4045
-4.12021
-4.06291
-3.99692
-3.92093
-3.83404
-3.73662
-3.62072
-3.48767
-3.33547
-3.18647
-3.03803
-2.86398
-2.4987
-0.110739
4.2913
6.10678
7.16197
7.2969
9.74482
-4.31681
-4.26284
-4.20004
-4.12684
-4.0411
-3.94065
-3.82756
-3.69496
-3.53648
-3.3563
-3.16075
-2.94449
-2.54242
0.322387
5.16391
6.29835
7.17502
7.28856
9.40216
-4.52023
-4.47113
-4.41354
-4.34592
-4.26589
-4.17243
-4.06429
-3.9371
-3.79134
-3.61336
-3.38772
-3.19375
-2.97839
1.5942
5.08399
6.2371
6.95604
6.88513
10.8494
-4.73028
-4.68759
-4.63721
-4.57773
-4.50666
-4.42396
-4.32625
-4.20997
-4.08754
-3.9313
-3.74201
-3.63156
-3.11211
1.0159
4.59541
5.94044
6.52383
6.09133
14.9735
-4.946
-4.9111
-4.86974
-4.82068
-4.7616
-4.69297
-4.61012
-4.50911
-4.40755
-4.26678
-4.08077
-3.96708
-3.29269
-0.433363
3.38698
5.41021
5.83853
4.87829
19.9647
-5.16592
-5.13996
-5.10912
-5.0724
-5.02803
-4.97617
-4.91241
-4.83254
-4.75534
-4.63469
-4.41356
-4.21648
-3.69625
-1.44562
4.55584
4.41045
4.11013
3.249
33.2621
-5.38845
-5.37251
-5.35364
-5.33125
-5.30443
-5.27334
-5.23478
-5.18788
-5.14609
-5.07285
-4.91055
-4.82162
-4.78003
-2.6693
2.83899
-4.58725
-7.22454
-9.01134
-0.957889
-5.61523
-5.61037
-5.60499
-5.59924
-5.59347
-5.58896
-5.58544
-5.58964
-5.60625
-5.62215
-5.66583
-6.04233
-7.18356
-8.14371
-6.60861
-19.4776
-45.5816
-35.649
-8.9612
)
;

boundaryField
{
    leftWall
    {
        type            calculated;
        value           nonuniform List<scalar> 
50
(
742.602
683.058
622.659
561.813
501.009
440.837
381.893
325.381
240.228
132.649
55.0018
1.08728
0.110884
-0.0206838
-0.173928
-0.322785
-0.469184
-0.615913
-0.762362
-0.909025
-1.05612
-1.20377
-1.35205
-1.50099
-1.65063
-1.80098
-1.95207
-2.10392
-2.25656
-2.41002
-2.56432
-2.71948
-2.87553
-3.03248
-3.19031
-3.349
-3.50867
-3.66918
-3.83051
-3.99264
-4.15555
-4.31921
-4.48351
-4.64835
-4.81377
-4.9798
-5.1462
-5.31266
-5.47873
-5.64582
)
;
    }
    rightWall
    {
        type            calculated;
        value           nonuniform List<scalar> 
50
(
286.815
286.791
286.804
286.852
286.942
287.098
287.287
287.552
289.047
293.201
287.931
292.256
287.611
359.829
626.531
963.559
1039.77
869.679
629.095
396.657
260.129
197.646
141.872
75.4171
36.2478
18.8893
13.3071
13.5714
13.3638
-16.1325
28.2923
20.758
0.287913
0.0474144
-14.0311
15.538
20.4086
30.9576
64.4629
57.9307
32.8904
14.4045
9.74482
9.40216
10.8494
14.9735
19.9647
33.2621
-0.957889
-8.9612
)
;
    }
    lowerWall
    {
        type            calculated;
        value           nonuniform List<scalar> 
62
(
772.032
770.388
776.015
785.819
793.248
796.891
797.413
797.715
800.13
805.623
814.333
826.196
841.177
859.105
879.893
903.291
928.275
952.625
969.678
986.185
959.065
954.26
1005.12
975.687
908.334
847.427
798.809
757.756
709.019
641.383
554.024
278.304
294.87
314.317
307.488
286.455
286.416
286.384
286.356
286.466
287.053
282.885
276.147
286.484
286.269
284.64
283.257
282.938
283.048
283.035
282.954
282.905
282.893
282.921
283.003
283.153
283.392
283.785
284.476
285.497
286.465
286.844
)
;
    }
    atmosphere
    {
        type            calculated;
        value           nonuniform List<scalar> 
46
(
-5.73025
-5.73063
-5.73053
-5.73058
-5.73055
-5.73053
-5.73049
-5.73044
-5.73038
-5.73032
-5.73025
-5.73018
-5.73012
-5.73005
-5.73
-5.72995
-5.72991
-5.72989
-5.7299
-5.72993
-5.73
-5.73013
-5.73035
-5.7306
-5.73081
-5.73107
-5.73139
-5.73209
-5.73365
-5.73625
-5.74063
-5.74805
-5.7609
-5.78102
-5.82266
-5.8827
-5.94619
-6.17915
-6.9795
-8.04363
-7.44343
-5.73936
-62.0712
-134.916
-96.5365
-5.72904
)
;
    }
    defaultFaces
    {
        type            empty;
    }
}


// ************************************************************************* //
