/*--------------------------------*- C++ -*----------------------------------*\
| =========                 |                                                 |
| \\      /  F ield         | OpenFOAM: The Open Source CFD Toolbox           |
|  \\    /   O peration     | Version:  5.x                                   |
|   \\  /    A nd           | Web:      www.OpenFOAM.org                      |
|    \\/     M anipulation  |                                                 |
\*---------------------------------------------------------------------------*/
FoamFile
{
    version     2.0;
    format      ascii;
    class       volScalarField;
    location    "0.45";
    object      p_rgh;
}
// * * * * * * * * * * * * * * * * * * * * * * * * * * * * * * * * * * * * * //

dimensions      [1 -1 -2 0 0 0 0];

internalField   nonuniform List<scalar> 
2268
(
772.032
770.388
776.015
785.819
793.248
796.891
797.413
797.715
800.13
805.623
814.333
826.196
841.177
859.105
879.893
903.291
928.275
952.625
969.678
986.185
959.065
954.26
1005.12
771.346
769.018
774.5
784.36
791.801
795.507
796.121
796.559
799.131
804.762
813.567
825.418
840.116
857.608
877.808
900.581
925.336
950.73
971.877
989.629
960.252
934.201
996.622
769.806
766.629
771.445
781.572
788.929
792.773
793.574
794.281
797.16
803.065
812.068
824.04
838.851
856.357
876.376
898.499
921.985
945.701
966.992
984.497
976.688
933.26
994.279
767.819
763.429
767.415
777.098
784.696
788.804
789.884
790.976
794.296
800.59
809.877
822.032
836.92
854.416
874.284
896.061
918.862
941.282
961.098
976.456
976.073
956.016
1003.71
765.873
759.472
762.476
771.187
779.233
783.767
785.19
786.757
790.63
797.402
807.034
819.414
834.425
851.939
871.73
893.312
915.798
937.682
956.813
971.616
977.895
975.897
1022.62
764.56
755.83
756.681
763.932
772.591
777.791
779.591
781.663
786.174
793.508
803.545
816.201
831.374
848.944
868.733
890.265
912.667
934.442
953.679
969.017
979.909
988.432
1032.74
764.475
752.392
750.256
755.659
764.974
771.063
773.32
775.89
781.017
788.899
799.348
812.317
827.714
845.433
865.309
886.909
909.421
931.343
951.01
966.913
979.292
990.743
1023.97
766.821
751.147
744.782
747.58
756.928
763.704
766.584
769.897
775.71
784.05
794.763
807.908
823.39
841.213
861.424
883.345
906.194
928.42
948.564
964.857
976.405
985.757
995.465
286.484
286.269
284.64
283.257
282.938
283.048
283.035
282.954
282.905
282.893
282.921
283.003
283.153
283.392
283.785
284.476
285.497
286.465
286.844
286.504
286.213
284.426
283.045
282.844
283.047
283.041
282.95
282.895
282.881
282.907
282.985
283.129
283.357
283.727
284.414
285.478
286.498
286.879
286.531
286.168
283.942
282.68
282.669
282.995
283.012
282.924
282.87
282.854
282.874
282.944
283.075
283.28
283.612
284.292
285.438
286.562
286.951
286.562
288.365
284.498
282.376
282.428
282.895
282.947
282.879
282.832
282.813
282.827
282.883
282.994
283.165
283.43
284.077
285.352
286.645
287.058
286.739
289.57
285.119
281.715
282.205
282.776
282.865
282.825
282.785
282.762
282.766
282.804
282.886
283.012
283.17
283.725
285.178
286.728
287.207
287.377
287.425
280.826
281.211
282.13
282.67
282.786
282.768
282.731
282.702
282.693
282.71
282.754
282.82
282.824
283.167
284.851
286.81
287.422
361.179
282.327
280.924
281.303
282.121
282.601
282.723
282.713
282.672
282.635
282.611
282.603
282.601
282.593
282.388
282.304
284.222
286.824
287.67
538.244
281.828
281.21
281.615
282.179
282.578
282.68
282.664
282.612
282.562
282.523
282.489
282.432
282.335
281.871
281.03
283.141
288.899
287.994
773.695
754.827
739.457
735.247
743.465
750.516
754.016
758.829
766.266
775.725
787.089
800.686
816.15
833.073
853.021
876.076
900.246
923.724
945.254
962.518
970.656
964.214
896.903
791.31
758.511
651.873
574.716
596.344
626.424
641.98
661.158
687.404
715.485
743.015
770.869
799.657
826.908
849.822
871.086
894.637
919.098
942.775
962.482
973.174
972.107
958.525
649.275
347.035
113.511
67.4225
101.188
120.168
122.652
136.043
163.947
201.709
247.321
305.214
383.229
488.535
612.841
766.224
880.484
912.13
945.766
971.89
989.581
1003.73
1015.74
9.62394
1.06434
1.04675
1.15006
1.14809
1.16285
1.17281
1.17564
1.17878
1.18988
1.21201
1.24252
1.25308
1.39425
28.1395
80.7179
185.593
407.599
777.554
988.86
1014.3
1038.68
1055.57
1.14513
1.06623
1.08972
1.13651
1.14091
1.14653
1.15146
1.15433
1.15655
1.16178
1.17447
1.20377
1.23355
1.27324
1.27287
1.32147
1.50971
12.3133
69.232
198.948
467.12
935.651
1100.75
1.13876
1.13346
1.12433
1.12757
1.12703
1.12987
1.13333
1.13572
1.13829
1.14212
1.14731
1.15223
1.13903
1.11167
1.40122
1.60946
1.58445
1.58392
1.67041
1.80325
7.89338
101.636
311.988
1.11071
1.1023
1.10127
1.10654
1.10895
1.11143
1.11411
1.11654
1.11926
1.12352
1.12982
1.13947
1.15241
1.12145
1.41431
1.58123
1.43367
1.44552
1.59787
1.86672
1.37251
1.23834
1.28647
1.08704
1.08608
1.0872
1.08841
1.09025
1.09242
1.09477
1.09705
1.09959
1.10311
1.10782
1.1121
1.11064
1.0957
1.08497
1.16932
1.15718
1.28168
1.31067
1.38352
1.59987
1.22643
0.961295
1.06584
1.06675
1.06811
1.06907
1.07068
1.07268
1.07496
1.07729
1.07977
1.08272
1.08639
1.09046
1.09301
1.09323
1.08583
1.098
1.11242
1.10433
1.25403
1.28289
1.10484
0.934694
0.892166
1.0443
1.04591
1.04753
1.04868
1.05028
1.05229
1.05462
1.05713
1.05977
1.06263
1.06571
1.06978
1.07342
1.07779
1.0741
1.07847
1.08235
1.07632
1.28353
1.47519
1.39925
0.978657
0.870003
1.02305
1.02471
1.02627
1.02757
1.02926
1.03136
1.03383
1.03658
1.03956
1.04277
1.04623
1.04991
1.0533
1.05552
1.05773
1.05964
1.05985
1.05707
1.02881
1.30747
1.4291
1.35512
0.950018
1.00158
1.00303
1.00448
1.00591
1.00772
1.00996
1.0126
1.01561
1.01894
1.02258
1.02647
1.03047
1.03426
1.03768
1.0404
1.04191
1.04138
1.03536
1.01671
0.981035
1.11764
1.20011
1.41324
0.979681
0.980874
0.982222
0.983755
0.985704
0.988102
0.990945
0.994215
0.997882
1.00191
1.00622
1.01069
1.01509
1.01918
1.02254
1.02463
1.02472
1.0208
1.00981
0.989437
0.960134
0.931903
0.919122
0.957227
0.958207
0.959494
0.961116
0.963206
0.965786
0.968852
0.972393
0.976386
0.980791
0.985539
0.990511
0.995533
1.00037
1.00466
1.00798
1.00968
1.00869
1.0038
0.994236
0.981356
0.970461
0.96768
0.934144
0.934976
0.936246
0.937962
0.940201
0.942975
0.94628
0.950109
0.954441
0.959243
0.964454
0.969983
0.975687
0.981377
0.986804
0.991658
0.995527
0.997856
0.99813
0.996291
0.993621
0.993266
0.998486
0.910394
0.911144
0.912432
0.91425
0.916645
0.919621
0.923178
0.927308
0.931998
0.937221
0.942933
0.949064
0.955511
0.962138
0.968775
0.97522
0.981239
0.9866
0.991198
0.995288
0.999849
1.00662
1.01741
0.885952
0.886673
0.888003
0.889931
0.892485
0.89567
0.899485
0.903926
0.908988
0.914653
0.920893
0.927659
0.934888
0.942493
0.95037
0.958413
0.966513
0.9746
0.982733
0.991223
1.00081
1.01265
1.02788
0.860796
0.861522
0.862913
0.864953
0.867669
0.871062
0.875136
0.879893
0.885332
0.891448
0.898227
0.905643
0.913664
0.922245
0.931339
0.940908
0.950926
0.961424
0.972544
0.984585
0.998069
1.01372
1.0323
0.834902
0.835652
0.837115
0.839267
0.842142
0.84574
0.850069
0.855136
0.860949
0.867512
0.874824
0.882884
0.891684
0.90121
0.911461
0.922448
0.934196
0.946788
0.960383
0.975239
0.991748
1.01041
1.03172
0.808244
0.809028
0.810566
0.812827
0.815853
0.819646
0.824219
0.829585
0.835757
0.84275
0.850578
0.859258
0.868799
0.879218
0.890544
0.902819
0.916108
0.930519
0.946204
0.963385
0.982355
1.00347
1.02707
0.780798
0.781616
0.783227
0.785589
0.788756
0.792729
0.797529
0.803172
0.809681
0.817077
0.825389
0.834645
0.844874
0.856115
0.868418
0.881848
0.896496
0.912474
0.92993
0.949053
0.970071
0.993251
1.01882
0.752536
0.753386
0.755064
0.757515
0.760808
0.764944
0.769947
0.77584
0.782652
0.790414
0.799163
0.80894
0.81979
0.831769
0.844941
0.85939
0.875219
0.892544
0.911506
0.932275
0.955034
0.979991
1.00731
0.723432
0.724311
0.726045
0.728573
0.731973
0.736248
0.741426
0.747535
0.75461
0.762689
0.771819
0.782051
0.793445
0.806066
0.819992
0.83532
0.852161
0.870636
0.890881
0.913052
0.937308
0.963822
0.992719
0.693461
0.694365
0.696145
0.698732
0.702219
0.706606
0.711927
0.718212
0.725502
0.733843
0.743289
0.753902
0.765751
0.778909
0.793468
0.809533
0.827224
0.846666
0.867994
0.891358
0.916908
0.944793
0.975127
0.662605
0.663527
0.665342
0.667971
0.671522
0.675991
0.681416
0.687833
0.695285
0.703826
0.713518
0.724428
0.736633
0.750218
0.765283
0.781943
0.800322
0.820556
0.842781
0.867149
0.893803
0.922895
0.954543
0.630854
0.631781
0.63362
0.636274
0.639863
0.644381
0.64987
0.656369
0.663926
0.6726
0.682458
0.693574
0.706032
0.719927
0.735368
0.752474
0.771382
0.792232
0.815171
0.840355
0.867931
0.898065
0.930902
0.598213
0.599114
0.600969
0.603631
0.607232
0.611764
0.617273
0.623799
0.631399
0.640133
0.650073
0.661298
0.673901
0.687983
0.703661
0.721063
0.740333
0.761622
0.785087
0.810897
0.839208
0.870196
0.903989
0.56472
0.565499
0.56739
0.570042
0.573627
0.578134
0.583616
0.590115
0.597691
0.606407
0.61634
0.627573
0.640205
0.654344
0.670114
0.687653
0.707113
0.728654
0.752451
0.778684
0.807534
0.839203
0.87383
0.530247
0.53106
0.532918
0.535522
0.539058
0.543498
0.548904
0.555316
0.562797
0.571415
0.581246
0.592381
0.604921
0.618981
0.634693
0.652201
0.671667
0.693262
0.717179
0.743614
0.772779
0.804904
0.84016
0.494933
0.495731
0.497557
0.500086
0.503542
0.507873
0.51315
0.519414
0.526728
0.535163
0.544796
0.555721
0.568044
0.581884
0.597378
0.614679
0.633955
0.655392
0.679194
0.705585
0.734799
0.767098
0.802724
0.458798
0.459552
0.461338
0.463764
0.467107
0.471283
0.47638
0.482432
0.489506
0.497672
0.507009
0.517611
0.529587
0.543061
0.558173
0.57508
0.593959
0.615007
0.638442
0.664509
0.693472
0.725631
0.761332
0.421861
0.422551
0.424299
0.42659
0.429787
0.433761
0.438623
0.444401
0.451161
0.458972
0.467913
0.478079
0.489579
0.502537
0.517098
0.53342
0.551685
0.572101
0.5949
0.620341
0.648716
0.680348
0.715855
0.384141
0.384746
0.386492
0.38861
0.391617
0.395342
0.399918
0.405359
0.411732
0.419103
0.427551
0.437168
0.448062
0.460357
0.474195
0.489737
0.507168
0.5267
0.548578
0.573075
0.600491
0.631072
0.665488
0.345673
0.346146
0.348022
0.349885
0.352654
0.356083
0.360321
0.365367
0.371283
0.378133
0.385993
0.394951
0.405113
0.416597
0.429543
0.44411
0.460482
0.478875
0.499538
0.522767
0.548928
0.577877
0.610969
0.306575
0.306948
0.30884
0.310458
0.312965
0.316061
0.319918
0.324513
0.329908
0.33616
0.343342
0.351537
0.360844
0.371377
0.383267
0.396668
0.411762
0.428759
0.447903
0.469479
0.493802
0.521161
0.552245
0.266921
0.267238
0.268922
0.270339
0.272583
0.275322
0.278758
0.282854
0.287667
0.293252
0.299673
0.307006
0.315343
0.324789
0.335467
0.347521
0.361124
0.376475
0.393808
0.413396
0.435554
0.460646
0.489209
0.226697
0.226891
0.228363
0.229553
0.231514
0.233873
0.236853
0.240405
0.244584
0.249436
0.255019
0.261401
0.268662
0.276897
0.286216
0.296753
0.308663
0.322131
0.33737
0.354637
0.374234
0.396523
0.421978
0.185867
0.185919
0.187202
0.188143
0.189797
0.191753
0.194242
0.197208
0.2007
0.204757
0.209428
0.21477
0.220852
0.227755
0.235575
0.244428
0.254449
0.265799
0.27867
0.293289
0.309933
0.328931
0.350712
0.144656
0.144601
0.145684
0.146381
0.147705
0.149242
0.15121
0.153556
0.156319
0.15953
0.163228
0.167459
0.172278
0.17775
0.183955
0.190985
0.198953
0.207993
0.218262
0.229952
0.243297
0.258589
0.276172
0.103396
0.103268
0.104115
0.104586
0.10556
0.106671
0.1081
0.109804
0.111811
0.114144
0.116829
0.119901
0.1234
0.127373
0.13188
0.13699
0.142787
0.149368
0.156855
0.165391
0.175157
0.186424
0.199369
0.0625229
0.0623029
0.0629036
0.0631455
0.0637626
0.0644506
0.0653421
0.0664054
0.0676579
0.0691127
0.0707857
0.072697
0.0748715
0.0773388
0.0801344
0.083298
0.0868797
0.0909391
0.0955475
0.100786
0.106743
0.113794
0.121685
0.0206196
0.0203495
0.0206666
0.0206536
0.0209049
0.0211563
0.0214879
0.0218836
0.0223492
0.0228878
0.0235037
0.0242028
0.024993
0.0258833
0.0268833
0.0280055
0.029265
0.030681
0.0322764
0.0340873
0.0361363
0.0384964
0.0411495
749.173
765.74
785.187
778.073
927.008
915.36
901.423
888.977
1016.61
1015.29
1018.37
1028.33
1063.57
1070.71
1081.52
1095.36
1115.14
1127.01
1140.76
1155.19
533.168
753.272
1124.83
1219.04
4.48297
25.5103
95.2047
202.906
1.02844
1.07183
1.14963
1.29065
0.936771
0.973922
1.00086
1.04591
0.894575
0.936338
0.983879
1.02816
0.973969
1.0927
1.21961
1.32336
1.80831
1.94414
1.97437
2.00202
0.924998
1.11729
1.40953
1.57093
0.972878
0.977574
0.984248
0.993743
1.00735
1.01468
1.02383
1.03475
1.02917
1.038
1.04801
1.05918
1.04218
1.05237
1.06345
1.07535
1.04859
1.05989
1.07192
1.08464
1.04971
1.06198
1.07487
1.08838
1.04652
1.05965
1.07335
1.08757
1.03959
1.05354
1.06801
1.08298
1.02931
1.04402
1.05924
1.07495
1.01586
1.0313
1.04726
1.06371
0.999355
1.0155
1.03219
1.04938
0.979789
0.996607
1.01401
1.03193
0.957083
0.974543
0.992629
1.01128
0.931079
0.949145
0.967877
0.987237
0.901654
0.920243
0.939556
0.959576
0.868579
0.887602
0.907409
0.92801
0.83157
0.850917
0.871115
0.892191
0.790355
0.809868
0.830303
0.851695
0.744648
0.764094
0.784556
0.806031
0.694058
0.713231
0.733464
0.754795
0.638369
0.657069
0.676805
0.697665
0.578168
0.595821
0.61455
0.634428
0.513134
0.529469
0.546859
0.565383
0.443378
0.458023
0.473654
0.490347
0.369088
0.381683
0.395146
0.409546
0.291036
0.301236
0.312153
0.323849
0.210335
0.217862
0.225928
0.23458
0.128369
0.132969
0.137913
0.143227
0.0433662
0.0448758
0.0464822
0.0481873
687.963
283.109
281.766
282.084
282.384
282.594
282.642
282.6
282.521
282.445
282.378
282.307
282.151
281.898
281.017
278.81
279.593
293.318
289.58
896.549
560.602
282.264
282.627
282.674
282.686
282.656
282.547
282.395
282.281
282.183
282.107
281.816
281.406
280.28
277.579
274.811
281.192
343.341
1049.87
966.662
315.271
282.825
282.852
282.796
282.727
282.498
282.223
282.092
282.037
282.003
281.708
281.239
280.079
277.999
276.526
273.861
754.373
1121.67
1165.47
715.664
283.434
282.943
282.91
282.9
282.499
282.03
281.85
281.965
281.989
281.746
281.378
280.502
279.694
279.478
279.241
1040.57
1183.08
1236.5
1283.89
448.387
283.047
282.997
283.192
282.616
281.777
281.567
281.868
281.974
282.896
281.247
280.534
281.174
281.746
283.514
1158.36
1241.25
1286.73
1341.45
1284.11
828.758
596.866
410.978
282.872
335.779
617.245
664.558
588.788
667.562
498.172
279.209
287.151
308.902
467.647
1404.81
564.271
1266
1373.61
1420.89
1454
1426.92
1339.62
1120.13
1126.13
1271.17
1357.42
1352.21
1351.69
1360.53
1094.18
1134.99
1183.33
1440.93
1880.92
6.96581
179.262
570.477
1040.92
1404.51
1435.23
1449.51
1458.14
1439.57
1413.93
1411.08
1414.05
1417.86
1441.2
1503.99
1574.15
1700.16
1994.04
2357.32
1.09891
1.19471
1.5475
70.2063
269.472
567.931
837.847
1005.02
1093.27
1081.29
1043.2
1025.68
1038.64
1143.33
1460.35
1650.46
1891.64
2206.85
2406.66
1.08444
1.09274
1.2053
1.32494
1.29141
1.33757
15.8836
47.7502
80.1342
78.1643
67.9179
61.6
66.3829
95.5959
215.021
709.303
1733.42
2207.14
2302.59
1.26201
1.44262
2.00936
1.82277
1.2954
1.22331
1.32874
1.50255
1.66106
1.78365
1.87123
1.96728
2.1691
2.59319
4.35469
17.5072
953.623
2070.04
2310.87
2.0432
2.06272
2.09419
1.94708
1.37321
1.25715
1.35302
1.47793
1.60137
1.70775
1.81322
1.9376
2.19688
2.53697
3.01539
9.49179
1026.33
2021.47
2147.49
1.52351
1.32076
1.22037
1.13224
1.18555
1.27386
1.37203
1.4786
1.58238
1.67611
1.76804
1.88684
2.06133
2.34527
3.43681
249.566
1531.56
2065.77
1539.96
1.01269
1.03555
1.08424
1.14159
1.21304
1.29466
1.38147
1.4721
1.56179
1.64826
1.7283
1.82517
1.93783
2.10946
41.4303
1147.37
2088.45
2145.45
1485.9
1.05572
1.09322
1.13118
1.17992
1.24065
1.31107
1.3879
1.46758
1.5461
1.62169
1.69045
1.7438
1.76694
1.69913
4.74293
677.908
2011.38
2227.28
2140.03
1.08008
1.1154
1.15668
1.20372
1.25896
1.32245
1.39174
1.46285
1.53211
1.5973
1.65552
1.6689
1.64454
2.03089
1.00284
183.501
1671.38
2270.13
2486.8
1.09694
1.1323
1.1729
1.21876
1.27094
1.32982
1.39365
1.45887
1.52191
1.5801
1.6304
1.65599
1.62675
1.7265
2.01636
367.189
1620.45
1680.06
2093.24
1.10736
1.14353
1.18395
1.22875
1.27874
1.33444
1.39441
1.45553
1.5153
1.57173
1.62443
1.67218
1.69993
1.78769
2.23054
597.46
1569.21
354.846
370.251
1.11222
1.14936
1.19018
1.23458
1.28329
1.33695
1.39424
1.45254
1.51054
1.56784
1.62498
1.68993
1.75501
1.81516
2.05908
476.961
1363.12
58.9877
16.094
1.11238
1.1508
1.19237
1.23698
1.28522
1.33771
1.39338
1.44971
1.50588
1.563
1.62448
1.69363
1.78004
2.01018
2.22919
92.9832
941.096
660.463
16.4836
1.10899
1.14863
1.19125
1.23659
1.28505
1.33721
1.39257
1.44877
1.50241
1.55791
1.62202
1.69884
1.795
2.08317
2.77814
5.12553
786.341
1688.36
16.4011
1.10214
1.14325
1.18724
1.2338
1.28309
1.3357
1.3923
1.44876
1.50194
1.55303
1.60905
1.67031
1.77172
2.01456
2.53598
5.3255
721.32
1774.71
1387.99
1.09213
1.13491
1.1806
1.22882
1.27956
1.33347
1.39171
1.44872
1.50192
1.5486
1.58955
1.62112
1.67587
1.79895
1.97412
2.52709
71.8919
981.88
2444.71
1.07904
1.12369
1.17139
1.2217
1.27454
1.33056
1.38952
1.45028
1.50467
1.549
1.57739
1.57473
1.51866
2.60054
5.59322
5.03084
4.86335
65.3152
1176.96
1.06287
1.10955
1.15955
1.21237
1.26788
1.32701
1.38974
1.45349
1.5127
1.55753
1.57958
1.5459
1.42924
2.92971
2.89894
1.348
25.9047
70.775
6.77923
1.04351
1.09234
1.14485
1.20053
1.25917
1.32229
1.39067
1.46089
1.52602
1.5764
1.59976
1.55898
1.50953
1.88959
0.550786
0.461204
29.8113
269.797
4.07923
1.02077
1.07179
1.12698
1.1858
1.24787
1.3155
1.38989
1.46787
1.5414
1.60028
1.63635
1.62189
1.58792
1.03321
0.704498
0.649176
1.20348
283.196
808.528
0.994357
1.04754
1.10543
1.16756
1.23332
1.30574
1.38598
1.4729
1.55634
1.62832
1.68505
1.70908
1.63107
1.33053
1.08744
1.17434
1.59989
149.991
2329.53
0.963934
1.01917
1.07967
1.14516
1.21469
1.29241
1.38163
1.47602
1.57016
1.65922
1.74355
1.8265
1.83586
1.69175
1.50534
1.6415
2.76881
71.9514
2152.03
0.929071
0.98614
1.04906
1.11771
1.19079
1.27263
1.36784
1.47256
1.5792
1.68537
1.79414
1.9705
2.08052
2.04823
1.7302
28.6801
38.6874
51.4972
1777.82
0.889264
0.947826
1.01291
1.08455
1.16098
1.24638
1.34685
1.46099
1.58166
1.70278
1.8352
2.07742
2.31685
2.50507
2.09605
230.73
303.04
304.432
1836.19
0.843902
0.903513
0.970408
1.04479
1.12471
1.21374
1.31917
1.44639
1.58251
1.71164
1.83629
2.13006
2.43658
2.65677
165.623
339.269
316.981
147.813
1926.04
0.792481
0.852357
0.920141
0.996258
1.0799
1.17236
1.28234
1.41801
1.57007
1.6923
1.78095
3.4656
15.1973
5.62953
131.097
278.299
140.112
26.7364
2018.58
0.73456
0.793734
0.861287
0.938131
1.02439
1.12026
1.23249
1.36879
1.52405
1.64827
1.7409
1.8454
67.0285
82.79
85.4758
46.2964
20.899
20.8818
1800.97
0.669867
0.727167
0.793161
0.869148
0.956043
1.05346
1.16936
1.30305
1.45612
1.60411
1.75205
1.92612
26.0206
86.7842
73.7517
21.5245
20.2291
20.2875
1038.73
0.598469
0.652435
0.715231
0.788434
0.874179
0.974623
1.08772
1.22032
1.37879
1.55898
1.75453
1.97078
13.6439
89.769
64.4896
19.7647
20.5052
20.6085
1158.26
0.520243
0.569344
0.626934
0.694555
0.774585
0.868036
0.976178
1.10337
1.24913
1.42711
1.65275
1.84673
64.1497
95.7957
32.1277
19.9437
20.615
20.5443
2249.51
0.43538
0.478071
0.528455
0.587934
0.659002
0.741702
0.839419
0.955697
1.07812
1.23438
1.42365
7.92847
93.4292
97.5572
53.1696
20.04
20.5223
20.0896
4147.06
0.344862
0.379758
0.421119
0.470183
0.529256
0.597884
0.680742
0.781747
0.883308
1.02522
1.2102
1.32382
62.1676
98.4477
77.8883
20.3203
20.2798
38.9308
4384.26
0.250135
0.276093
0.30693
0.343657
0.388025
0.439888
0.503649
0.583512
0.660715
0.783036
1.00362
1.19959
1.7198
81.7966
88.4497
25.7871
23.3785
250.088
2474.71
0.152799
0.168743
0.187608
0.21
0.236819
0.267912
0.306473
0.353369
0.395163
0.46943
0.631178
0.719631
0.761215
11.7768
56.4363
27.2226
100.356
343.823
64.5393
0.0512078
0.0560694
0.0614548
0.0672056
0.0729681
0.077479
0.0810013
0.0768042
0.0601921
0.0442951
0.00061021
-0.375889
-1.51712
-2.47726
-0.942167
41.9155
87.8598
59.8326
-3.29476
)
;

boundaryField
{
    leftWall
    {
        type            fixedFluxPressure;
        gradient        uniform 0;
        value           nonuniform List<scalar> 
50
(
772.032
771.346
769.806
767.819
765.873
764.56
764.475
766.821
773.695
791.31
649.275
9.62394
1.14513
1.13876
1.11071
1.08704
1.06584
1.0443
1.02305
1.00158
0.979681
0.957227
0.934144
0.910394
0.885952
0.860796
0.834902
0.808244
0.780798
0.752536
0.723432
0.693461
0.662605
0.630854
0.598213
0.56472
0.530247
0.494933
0.458798
0.421861
0.384141
0.345673
0.306575
0.266921
0.226697
0.185867
0.144656
0.103396
0.0625229
0.0206196
)
;
    }
    rightWall
    {
        type            fixedFluxPressure;
        gradient        uniform 0;
        value           nonuniform List<scalar> 
50
(
286.844
286.879
286.951
287.058
287.207
287.422
287.67
287.994
289.58
343.341
754.373
1040.57
1158.36
1404.81
1880.92
2357.32
2406.66
2302.59
2310.87
2147.49
1539.96
1485.9
2140.03
2486.8
2093.24
370.251
16.094
16.4836
16.4011
1387.99
2444.71
1176.96
6.77923
4.07923
808.528
2329.53
2152.03
1777.82
1836.19
1926.04
2018.58
1800.97
1038.73
1158.26
2249.51
4147.06
4384.26
2474.71
64.5393
-3.29476
)
;
    }
    lowerWall
    {
        type            fixedFluxPressure;
        gradient        uniform 0;
        value           nonuniform List<scalar> 
62
(
772.032
770.388
776.015
785.819
793.248
796.891
797.413
797.715
800.13
805.623
814.333
826.196
841.177
859.105
879.893
903.291
928.275
952.625
969.678
986.185
959.065
954.26
1005.12
1005.12
996.622
994.279
1003.71
1022.62
1032.74
1023.97
995.465
749.173
765.74
785.187
778.073
286.484
286.504
286.531
286.562
286.739
287.377
361.179
538.244
286.484
286.269
284.64
283.257
282.938
283.048
283.035
282.954
282.905
282.893
282.921
283.003
283.153
283.392
283.785
284.476
285.497
286.465
286.844
)
;
    }
    atmosphere
    {
        type            totalPressure;
        rho             rho;
        psi             none;
        gamma           1;
        p0              uniform 0;
        value           nonuniform List<scalar> 
46
(
-0.00121177
-0.00159478
-0.00148788
-0.00154348
-0.0015063
-0.00148534
-0.00144548
-0.00139705
-0.0013407
-0.00127827
-0.00121187
-0.001144
-0.00107709
-0.00101373
-0.000956319
-0.000908191
-0.000872751
-0.000854134
-0.000856904
-0.000889871
-0.000963632
-0.00109475
-0.00131131
-0.00155994
-0.00176669
-0.00202675
-0.00235403
-0.00305463
-0.00460786
-0.00720717
-0.0115886
-0.0190105
-0.0318609
-0.0519812
-0.0936219
-0.153659
-0.217153
-0.450113
-1.25046
-2.31459
-1.71439
-0.0103226
0
0
0
0
)
;
    }
    defaultFaces
    {
        type            empty;
    }
}


// ************************************************************************* //
