/*--------------------------------*- C++ -*----------------------------------*\
| =========                 |                                                 |
| \\      /  F ield         | OpenFOAM: The Open Source CFD Toolbox           |
|  \\    /   O peration     | Version:  5.x                                   |
|   \\  /    A nd           | Web:      www.OpenFOAM.org                      |
|    \\/     M anipulation  |                                                 |
\*---------------------------------------------------------------------------*/
FoamFile
{
    version     2.0;
    format      ascii;
    class       volVectorField;
    location    "0.45";
    object      U;
}
// * * * * * * * * * * * * * * * * * * * * * * * * * * * * * * * * * * * * * //

dimensions      [0 1 -1 0 0 0 0];

internalField   nonuniform List<vector> 
2268
(
(-0.0356001 0.0103998 0)
(-0.0579151 0.00192073 0)
(-0.0362358 -0.00908002 0)
(0.0181638 -0.014905 0)
(0.0880051 -0.0169464 0)
(0.157975 -0.0157104 0)
(0.219612 -0.012738 0)
(0.267585 -0.00940318 0)
(0.301412 -0.00643187 0)
(0.323533 -0.0040518 0)
(0.336861 -0.00222009 0)
(0.34347 -0.000756849 0)
(0.344593 0.000945909 0)
(0.338361 0.00331826 0)
(0.322498 0.00709511 0)
(0.292483 0.0130069 0)
(0.241306 0.0213453 0)
(0.162542 0.0295974 0)
(0.0462115 0.0257128 0)
(-0.024125 0.00946273 0)
(-0.140872 0.0287658 0)
(-0.230831 0.0083064 0)
(-0.0725559 -0.0561702 0)
(-0.0429531 0.0311043 0)
(-0.0546253 0.0029787 0)
(-0.0324947 -0.0279315 0)
(0.0230022 -0.0450669 0)
(0.0927224 -0.0510256 0)
(0.161965 -0.0472549 0)
(0.222477 -0.0383705 0)
(0.269357 -0.0284559 0)
(0.302513 -0.0196753 0)
(0.324536 -0.0126779 0)
(0.338307 -0.00730766 0)
(0.346006 -0.00304593 0)
(0.348746 0.00100642 0)
(0.349015 0.00581079 0)
(0.347572 0.0124822 0)
(0.344394 0.0227504 0)
(0.335909 0.0384548 0)
(0.311372 0.0599512 0)
(0.235483 0.0744815 0)
(0.120171 0.0722282 0)
(-0.0878759 0.0685862 0)
(-0.150833 -0.0119721 0)
(-0.00560063 -0.128333 0)
(-0.0389635 0.0512418 0)
(-0.0486603 0.00257245 0)
(-0.0246028 -0.0471621 0)
(0.0308463 -0.0749716 0)
(0.099048 -0.0844121 0)
(0.166203 -0.0778339 0)
(0.224052 -0.0629495 0)
(0.268306 -0.0465577 0)
(0.299558 -0.0322351 0)
(0.320688 -0.0209593 0)
(0.334521 -0.0123797 0)
(0.34295 -0.00563086 0)
(0.346955 0.000173809 0)
(0.346767 0.00618926 0)
(0.342417 0.0135645 0)
(0.334612 0.0243101 0)
(0.325935 0.04157 0)
(0.322002 0.0701408 0)
(0.310108 0.105566 0)
(0.259061 0.133993 0)
(0.11616 0.132407 0)
(-0.00439712 0.0116915 0)
(0.0546759 -0.143331 0)
(-0.0338802 0.0687223 0)
(-0.0393049 0.00122805 0)
(-0.013332 -0.0664489 0)
(0.0404956 -0.104316 0)
(0.105904 -0.116679 0)
(0.1704 -0.107036 0)
(0.225027 -0.0860725 0)
(0.266054 -0.0634586 0)
(0.295002 -0.0441144 0)
(0.315204 -0.0291311 0)
(0.329396 -0.0178151 0)
(0.339131 -0.00891154 0)
(0.345041 -0.00106517 0)
(0.347115 0.00702628 0)
(0.345006 0.0166734 0)
(0.338355 0.0292479 0)
(0.32774 0.0465913 0)
(0.317228 0.0727422 0)
(0.318221 0.112446 0)
(0.323873 0.161874 0)
(0.276708 0.180017 0)
(0.174815 0.0605551 0)
(0.122876 -0.0934124 0)
(-0.0283283 0.0822247 0)
(-0.025795 -0.00230717 0)
(0.000660559 -0.084531 0)
(0.0506152 -0.131896 0)
(0.11187 -0.147215 0)
(0.173229 -0.134573 0)
(0.224587 -0.107463 0)
(0.262408 -0.0788499 0)
(0.289176 -0.0550729 0)
(0.308742 -0.0370956 0)
(0.323706 -0.0236562 0)
(0.335203 -0.0130184 0)
(0.343443 -0.00347437 0)
(0.34812 0.00651627 0)
(0.348812 0.0182533 0)
(0.345253 0.0329135 0)
(0.337806 0.0517345 0)
(0.327054 0.0762133 0)
(0.320141 0.109766 0)
(0.333913 0.158986 0)
(0.346299 0.194107 0)
(0.279304 0.118808 0)
(0.173411 -0.0157387 0)
(-0.0213542 0.0907846 0)
(-0.00719726 -0.00837076 0)
(0.0185711 -0.10134 0)
(0.064361 -0.157678 0)
(0.119897 -0.176308 0)
(0.176083 -0.160836 0)
(0.223029 -0.127702 0)
(0.257379 -0.0934658 0)
(0.2823 -0.0657986 0)
(0.301883 -0.0453561 0)
(0.318333 -0.0301943 0)
(0.332209 -0.0180708 0)
(0.34324 -0.00698644 0)
(0.350737 0.00466308 0)
(0.354079 0.0182999 0)
(0.353116 0.0348811 0)
(0.348563 0.0553114 0)
(0.341393 0.0803373 0)
(0.332561 0.109561 0)
(0.332213 0.148567 0)
(0.355778 0.191108 0)
(0.319561 0.168002 0)
(0.201723 0.0938021 0)
(-0.0120078 0.0932942 0)
(0.0168099 -0.0200482 0)
(0.0462925 -0.11901 0)
(0.0917921 -0.181719 0)
(0.139366 -0.202814 0)
(0.185155 -0.184361 0)
(0.223982 -0.145613 0)
(0.253173 -0.106918 0)
(0.275743 -0.0767439 0)
(0.295387 -0.054875 0)
(0.313576 -0.0385344 0)
(0.330146 -0.0250222 0)
(0.344305 -0.0120955 0)
(0.355076 0.00184912 0)
(0.361425 0.0175446 0)
(0.362946 0.0356455 0)
(0.360434 0.0572011 0)
(0.355342 0.0832456 0)
(0.349275 0.112599 0)
(0.340503 0.145327 0)
(0.350816 0.189284 0)
(0.331755 0.209379 0)
(0.231675 0.205822 0)
(-0.000448137 0.088113 0)
(0.04455 -0.0330846 0)
(0.092591 -0.137132 0)
(0.142645 -0.201317 0)
(0.177577 -0.222519 0)
(0.205449 -0.201243 0)
(0.231882 -0.157749 0)
(0.254563 -0.115624 0)
(0.274429 -0.0843157 0)
(0.293705 -0.0625488 0)
(0.312808 -0.046496 0)
(0.330943 -0.032993 0)
(0.347051 -0.0194552 0)
(0.360002 -0.00357574 0)
(0.368906 0.0157054 0)
(0.373328 0.0367547 0)
(0.37371 0.0597152 0)
(0.370529 0.0855236 0)
(0.366608 0.114625 0)
(0.358838 0.145582 0)
(0.355418 0.190004 0)
(0.346025 0.246011 0)
(0.227126 0.354126 0)
(0.121865 -0.0770474 0)
(0.805698 -0.192935 0)
(1.50158 -0.0607934 0)
(1.6194 0.0880083 0)
(1.10853 0.120478 0)
(0.580728 0.057224 0)
(0.380046 0.0210448 0)
(0.286295 0.0226522 0)
(0.163229 0.0269814 0)
(0.0332264 0.0286152 0)
(-0.0995475 0.0296728 0)
(-0.243066 0.0325152 0)
(-0.403149 0.0364779 0)
(-0.590816 0.04147 0)
(-0.80087 0.0410081 0)
(-0.951645 0.0163348 0)
(-0.887515 -0.0376126 0)
(-0.577503 -0.0905127 0)
(-0.181549 -0.0792396 0)
(0.172978 -0.242355 0)
(0.791634 -0.592177 0)
(1.47627 -0.214729 0)
(1.81665 0.186428 0)
(1.49577 0.315606 0)
(0.896338 0.214248 0)
(0.517762 0.117748 0)
(0.319982 0.0912349 0)
(0.160023 0.0859381 0)
(0.0216118 0.0850333 0)
(-0.111355 0.0879976 0)
(-0.258246 0.097632 0)
(-0.426093 0.11118 0)
(-0.625671 0.126741 0)
(-0.845984 0.125184 0)
(-0.992674 0.0530953 0)
(-0.931582 -0.108983 0)
(-0.608218 -0.269715 0)
(-0.186113 -0.236013 0)
(0.308108 -0.429163 0)
(0.594294 -0.934558 0)
(1.17814 -0.442988 0)
(1.62276 0.260003 0)
(1.41193 0.510538 0)
(0.847401 0.386318 0)
(0.472905 0.241989 0)
(0.282722 0.172934 0)
(0.141277 0.145518 0)
(0.0200709 0.138859 0)
(-0.101871 0.144575 0)
(-0.240969 0.162231 0)
(-0.403138 0.186844 0)
(-0.603819 0.215201 0)
(-0.850421 0.217426 0)
(-1.05214 0.100404 0)
(-1.02124 -0.182597 0)
(-0.671341 -0.465363 0)
(-0.196518 -0.402298 0)
(0.430933 -0.635709 0)
(0.352603 -1.0653 0)
(0.66343 -0.705564 0)
(1.11855 0.0912547 0)
(1.12051 0.603055 0)
(0.682127 0.536447 0)
(0.39358 0.355601 0)
(0.251523 0.243501 0)
(0.134536 0.197563 0)
(0.0234019 0.188519 0)
(-0.0939883 0.19886 0)
(-0.229647 0.225545 0)
(-0.38969 0.262736 0)
(-0.594835 0.309003 0)
(-0.877117 0.327722 0)
(-1.14919 0.174039 0)
(-1.15972 -0.2533 0)
(-0.768628 -0.688465 0)
(-0.212254 -0.589967 0)
(0.428681 -0.814798 0)
(0.172177 -1.08745 0)
(0.378891 -0.753299 0)
(0.760735 0.088497 0)
(0.735019 0.667698 0)
(0.471276 0.640402 0)
(0.314515 0.437509 0)
(0.223798 0.296454 0)
(0.12726 0.243552 0)
(0.0254165 0.236319 0)
(-0.0854603 0.251582 0)
(-0.215752 0.287365 0)
(-0.371359 0.339055 0)
(-0.578067 0.409224 0)
(-0.904243 0.461301 0)
(-1.27656 0.286764 0)
(-1.33923 -0.318775 0)
(-0.875154 -0.95211 0)
(-0.232959 -0.80427 0)
(0.31679 -0.914862 0)
(-0.139304 -1.03637 0)
(-0.0451881 -0.824506 0)
(0.366453 0.115775 0)
(0.370001 0.681249 0)
(0.26942 0.689001 0)
(0.241353 0.480754 0)
(0.194328 0.332883 0)
(0.117308 0.280976 0)
(0.0269358 0.277212 0)
(-0.074722 0.299637 0)
(-0.196474 0.346949 0)
(-0.343573 0.414568 0)
(-0.545107 0.515628 0)
(-0.919275 0.622368 0)
(-1.41909 0.448207 0)
(-1.49718 -0.38091 0)
(-0.908513 -1.24027 0)
(-0.260118 -1.02248 0)
(0.127003 -0.802212 0)
(-0.771491 -0.862723 0)
(-0.311653 -0.929638 0)
(-0.101886 0.00719783 0)
(0.0590389 0.652546 0)
(0.109527 0.682128 0)
(0.176915 0.487095 0)
(0.161423 0.357731 0)
(0.105697 0.320393 0)
(0.0302785 0.321841 0)
(-0.0591876 0.348668 0)
(-0.170766 0.400969 0)
(-0.305278 0.487107 0)
(-0.490155 0.627372 0)
(-0.902171 0.811251 0)
(-1.52028 0.641063 0)
(-1.49341 -0.468183 0)
(-0.80455 -1.55553 0)
(-0.297843 -1.26585 0)
(0.129516 -0.665487 0)
(-0.747328 -0.937845 0)
(-0.496733 -0.928844 0)
(-0.396456 -0.116901 0)
(-0.153869 0.57593 0)
(0.00541256 0.636355 0)
(0.128722 0.472516 0)
(0.13831 0.366961 0)
(0.101016 0.331381 0)
(0.0377279 0.34174 0)
(-0.039673 0.382248 0)
(-0.137797 0.452518 0)
(-0.252169 0.555723 0)
(-0.402995 0.738614 0)
(-0.814198 1.00175 0)
(-1.46488 0.760347 0)
(-1.2646 -0.757178 0)
(-0.639514 -1.88715 0)
(-0.3209 -1.56885 0)
(0.0191815 0.0550661 0)
(0.102798 -0.0685412 0)
(0.196313 -0.172438 0)
(0.248181 -0.224911 0)
(0.248587 -0.236652 0)
(0.239309 -0.213638 0)
(0.246378 -0.171132 0)
(0.263188 -0.128805 0)
(0.283802 -0.0965743 0)
(0.306468 -0.0737146 0)
(0.328951 -0.0562208 0)
(0.349138 -0.0412588 0)
(0.36571 -0.0275199 0)
(0.377817 -0.0136047 0)
(0.384964 0.00273947 0)
(0.388497 0.025966 0)
(0.390396 0.0550561 0)
(0.390728 0.0873521 0)
(0.390416 0.120712 0)
(0.392414 0.15369 0)
(0.394614 0.195606 0)
(0.434497 0.24908 0)
(0.467346 0.411578 0)
(0.0415421 -0.0379027 0)
(0.199419 -0.179327 0)
(0.339707 -0.256944 0)
(0.370261 -0.254705 0)
(0.304841 -0.233335 0)
(0.24677 -0.213991 0)
(0.234844 -0.191174 0)
(0.250196 -0.164411 0)
(0.279169 -0.139132 0)
(0.314901 -0.116496 0)
(0.350938 -0.0938697 0)
(0.382029 -0.0686009 0)
(0.404219 -0.0399184 0)
(0.416245 -0.00979946 0)
(0.42204 0.021171 0)
(0.42461 0.0453739 0)
(0.422491 0.0654677 0)
(0.41913 0.0863865 0)
(0.41844 0.107426 0)
(0.427218 0.133498 0)
(0.443143 0.168618 0)
(0.48114 0.201156 0)
(0.542525 0.258346 0)
(0.0777143 -0.170917 0)
(0.260722 -0.371577 0)
(0.378394 -0.368999 0)
(0.296193 -0.192667 0)
(0.158176 -0.134362 0)
(0.105145 -0.155047 0)
(0.0872942 -0.17352 0)
(0.0905229 -0.17716 0)
(0.116509 -0.170586 0)
(0.156856 -0.157934 0)
(0.206781 -0.139578 0)
(0.260992 -0.115957 0)
(0.315481 -0.0880116 0)
(0.371297 -0.0551524 0)
(0.430626 -0.0205511 0)
(0.461249 0.00994546 0)
(0.463822 0.0502169 0)
(0.444684 0.0964115 0)
(0.425637 0.121577 0)
(0.427537 0.135868 0)
(0.446593 0.150892 0)
(0.47421 0.159757 0)
(0.513666 0.160985 0)
(0.0461897 -0.447318 0)
(0.138824 -0.543141 0)
(0.0610438 -0.275155 0)
(-0.0923417 0.0147968 0)
(-0.107691 -0.0306419 0)
(-0.0933548 -0.106724 0)
(-0.148201 -0.126394 0)
(-0.202366 -0.143006 0)
(-0.258122 -0.151028 0)
(-0.314931 -0.146352 0)
(-0.36716 -0.12918 0)
(-0.432724 -0.110594 0)
(-0.484821 -0.122277 0)
(-0.428543 -0.15041 0)
(0.0208883 -0.0695255 0)
(0.252123 0.0150215 0)
(0.364394 0.071811 0)
(0.410918 0.108884 0)
(0.452038 0.111979 0)
(0.478857 0.117198 0)
(0.486676 0.131252 0)
(0.491381 0.131426 0)
(0.506719 0.127581 0)
(-0.0639552 -0.425845 0)
(-0.165315 -0.182577 0)
(-0.197337 -0.0621264 0)
(-0.170791 -0.0615425 0)
(-0.0936355 -0.108849 0)
(-0.0824307 -0.10964 0)
(-0.0901633 -0.0974046 0)
(-0.107276 -0.104928 0)
(-0.132128 -0.107608 0)
(-0.146476 -0.109845 0)
(-0.143365 -0.0994217 0)
(-0.143748 -0.0834651 0)
(-0.235893 -0.152842 0)
(-0.41965 -0.350766 0)
(-0.513376 -0.535819 0)
(-0.473961 -0.279238 0)
(-0.342749 -0.057759 0)
(-0.0521393 0.0464681 0)
(0.251642 0.0572126 0)
(0.381164 0.091527 0)
(0.442006 0.126845 0)
(0.496205 0.140288 0)
(0.529295 0.144251 0)
(-0.115834 -0.230956 0)
(-0.157774 -0.317504 0)
(-0.147052 -0.242316 0)
(-0.101916 -0.147792 0)
(-0.0909016 -0.121085 0)
(-0.0900447 -0.11027 0)
(-0.0951467 -0.0977705 0)
(-0.103875 -0.0902995 0)
(-0.112134 -0.0945988 0)
(-0.112072 -0.107028 0)
(-0.0983013 -0.0919222 0)
(-0.0684684 -0.0131409 0)
(-0.0965883 0.0682247 0)
(-0.200392 -0.0250324 0)
(-0.187602 -0.294629 0)
(-0.137574 -0.408047 0)
(-0.0614322 -0.304782 0)
(0.0444847 -0.397845 0)
(0.0681433 -0.317044 0)
(0.182746 -0.0414314 0)
(0.0850779 0.0485562 0)
(0.320664 0.0547403 0)
(0.428202 0.0959452 0)
(-0.0670081 -0.163168 0)
(-0.0634141 -0.283402 0)
(-0.0940946 -0.197569 0)
(-0.0870893 -0.147865 0)
(-0.0861627 -0.123649 0)
(-0.0826379 -0.109647 0)
(-0.0835747 -0.09589 0)
(-0.0846336 -0.0899401 0)
(-0.0867685 -0.0974904 0)
(-0.0898144 -0.113981 0)
(-0.0897713 -0.114034 0)
(-0.0722242 -0.0696043 0)
(-0.0222291 -0.0202884 0)
(-0.0194827 -0.0976738 0)
(0.00418894 -0.32726 0)
(-0.0463622 -0.381029 0)
(-0.0417283 -0.291597 0)
(0.0259946 -0.267485 0)
(0.101352 -0.246365 0)
(0.285743 -0.116845 0)
(0.456095 0.110721 0)
(0.619252 -0.205956 0)
(0.473828 -0.0703474 0)
(-0.0329 -0.106455 0)
(-0.0436605 -0.243822 0)
(-0.0692708 -0.180993 0)
(-0.069861 -0.146789 0)
(-0.068304 -0.126483 0)
(-0.0644548 -0.112273 0)
(-0.0613669 -0.0970433 0)
(-0.0587615 -0.0872427 0)
(-0.0590154 -0.0902419 0)
(-0.0638492 -0.104516 0)
(-0.068916 -0.112839 0)
(-0.0571825 -0.093272 0)
(-0.0039895 -0.0531734 0)
(0.0568283 -0.102219 0)
(0.0797954 -0.279925 0)
(0.00807142 -0.338544 0)
(-0.0191593 -0.325831 0)
(0.0128159 -0.394081 0)
(0.0805733 -0.414305 0)
(0.181014 -0.380893 0)
(0.373978 -0.267589 0)
(0.585354 -0.0747819 0)
(0.668069 0.184605 0)
(-0.0179171 -0.0763068 0)
(-0.0354673 -0.231237 0)
(-0.050301 -0.177854 0)
(-0.0521771 -0.144327 0)
(-0.0529123 -0.128446 0)
(-0.0504301 -0.116003 0)
(-0.0461411 -0.102106 0)
(-0.0401223 -0.0911348 0)
(-0.0353315 -0.0901997 0)
(-0.0346552 -0.100551 0)
(-0.0358039 -0.114712 0)
(-0.0291996 -0.124585 0)
(0.00154184 -0.130106 0)
(0.0647336 -0.170811 0)
(0.075289 -0.252153 0)
(0.0456206 -0.29801 0)
(0.0302749 -0.322327 0)
(0.0340916 -0.387483 0)
(0.0471039 -0.459075 0)
(0.0970392 -0.458857 0)
(0.158071 -0.412457 0)
(0.278612 -0.276652 0)
(0.457165 0.0158739 0)
(-0.00875826 -0.0545358 0)
(-0.0234602 -0.21533 0)
(-0.0363877 -0.170466 0)
(-0.0397516 -0.141347 0)
(-0.0410563 -0.128759 0)
(-0.0395042 -0.119074 0)
(-0.0349585 -0.10839 0)
(-0.0269811 -0.099018 0)
(-0.0176747 -0.0962897 0)
(-0.0101838 -0.103139 0)
(-0.00469529 -0.117153 0)
(0.0027042 -0.136418 0)
(0.0169988 -0.160332 0)
(0.0431233 -0.194307 0)
(0.0507189 -0.247661 0)
(0.040641 -0.288711 0)
(0.0268002 -0.325174 0)
(0.0234876 -0.385751 0)
(-0.00769331 -0.463816 0)
(-0.019527 -0.47582 0)
(-0.0210145 -0.430613 0)
(-0.026294 -0.344626 0)
(0.0677342 -0.135977 0)
(-0.00387353 -0.0412213 0)
(-0.0154183 -0.202624 0)
(-0.0265736 -0.163115 0)
(-0.0303864 -0.13804 0)
(-0.0320163 -0.128561 0)
(-0.0311705 -0.121821 0)
(-0.0274168 -0.114795 0)
(-0.0200759 -0.108662 0)
(-0.0100776 -0.10673 0)
(5.7771e-05 -0.112042 0)
(0.00863392 -0.124915 0)
(0.0160727 -0.14422 0)
(0.0222839 -0.169767 0)
(0.0275328 -0.200884 0)
(0.026258 -0.240347 0)
(0.0103955 -0.273484 0)
(-0.00738564 -0.309079 0)
(-0.0292911 -0.36203 0)
(-0.075636 -0.42652 0)
(-0.123531 -0.455524 0)
(-0.153763 -0.416977 0)
(-0.190908 -0.331755 0)
(-0.203987 -0.176621 0)
(-0.00129316 -0.033672 0)
(-0.0106026 -0.192836 0)
(-0.019782 -0.156885 0)
(-0.0235982 -0.134683 0)
(-0.0256425 -0.127744 0)
(-0.0256164 -0.12349 0)
(-0.0233463 -0.119519 0)
(-0.0182882 -0.116621 0)
(-0.0106833 -0.116656 0)
(-0.00218469 -0.121776 0)
(0.00519174 -0.132981 0)
(0.00998955 -0.149781 0)
(0.0111812 -0.17122 0)
(0.00830144 -0.19698 0)
(-0.00256607 -0.225788 0)
(-0.0209104 -0.253729 0)
(-0.0424831 -0.28185 0)
(-0.0767167 -0.321496 0)
(-0.13228 -0.374192 0)
(-0.196602 -0.412003 0)
(-0.24142 -0.398198 0)
(-0.256514 -0.324152 0)
(-0.251885 -0.209761 0)
(-2.19903e-06 -0.0287249 0)
(-0.00754334 -0.184639 0)
(-0.0152823 -0.151078 0)
(-0.0190992 -0.131379 0)
(-0.0214195 -0.126386 0)
(-0.0222095 -0.123974 0)
(-0.0214501 -0.122089 0)
(-0.0189582 -0.12143 0)
(-0.0148253 -0.123096 0)
(-0.00999596 -0.128268 0)
(-0.00611828 -0.137688 0)
(-0.00486509 -0.151262 0)
(-0.00711794 -0.168263 0)
(-0.0140051 -0.187759 0)
(-0.0264071 -0.210043 0)
(-0.0445975 -0.232204 0)
(-0.0670248 -0.253422 0)
(-0.0976023 -0.278781 0)
(-0.147558 -0.312793 0)
(-0.219522 -0.345686 0)
(-0.298263 -0.35193 0)
(-0.354547 -0.304872 0)
(-0.366983 -0.22198 0)
(0.00036415 -0.0254564 0)
(-0.00576877 -0.177834 0)
(-0.0123898 -0.145863 0)
(-0.016185 -0.128027 0)
(-0.0187954 -0.124519 0)
(-0.020324 -0.123386 0)
(-0.0208261 -0.122745 0)
(-0.0204012 -0.123273 0)
(-0.0192511 -0.125709 0)
(-0.017955 -0.130633 0)
(-0.0175764 -0.13846 0)
(-0.0193118 -0.149164 0)
(-0.0240721 -0.162394 0)
(-0.032433 -0.177729 0)
(-0.0451223 -0.194528 0)
(-0.0626194 -0.211809 0)
(-0.0844391 -0.228751 0)
(-0.110797 -0.245678 0)
(-0.145975 -0.261923 0)
(-0.197629 -0.274785 0)
(-0.265361 -0.276957 0)
(-0.332397 -0.25648 0)
(-0.379242 -0.212136 0)
(0.000294529 -0.0228618 0)
(-0.00481631 -0.172065 0)
(-0.0106378 -0.141043 0)
(-0.0144367 -0.12461 0)
(-0.0173114 -0.122173 0)
(-0.0194757 -0.121907 0)
(-0.0209906 -0.121978 0)
(-0.0220445 -0.123008 0)
(-0.0229326 -0.125548 0)
(-0.0241088 -0.129926 0)
(-0.0262165 -0.136329 0)
(-0.0300648 -0.144738 0)
(-0.036345 -0.154976 0)
(-0.0456954 -0.166654 0)
(-0.0587075 -0.179188 0)
(-0.0759015 -0.191849 0)
(-0.0977955 -0.204163 0)
(-0.125389 -0.215616 0)
(-0.159396 -0.224034 0)
(-0.199731 -0.225542 0)
(-0.245142 -0.215767 0)
(-0.290661 -0.193406 0)
(-0.330052 -0.162232 0)
(9.45714e-05 -0.0205357 0)
(-0.00435771 -0.166979 0)
(-0.00966251 -0.136492 0)
(-0.0134755 -0.121105 0)
(-0.0165931 -0.119413 0)
(-0.0192838 -0.119692 0)
(-0.021612 -0.120155 0)
(-0.0237485 -0.12133 0)
(-0.0259871 -0.123646 0)
(-0.0287143 -0.12732 0)
(-0.0323871 -0.132426 0)
(-0.0375762 -0.138935 0)
(-0.0448327 -0.146659 0)
(-0.0546784 -0.155268 0)
(-0.0675726 -0.164228 0)
(-0.0838896 -0.172896 0)
(-0.103995 -0.180559 0)
(-0.128461 -0.186636 0)
(-0.157782 -0.190221 0)
(-0.191554 -0.189456 0)
(-0.227498 -0.181171 0)
(-0.261718 -0.16268 0)
(-0.291335 -0.13528 0)
(-0.000115091 -0.0182925 0)
(-0.00417121 -0.162321 0)
(-0.00918371 -0.132091 0)
(-0.0130122 -0.117511 0)
(-0.0163437 -0.116304 0)
(-0.0194554 -0.116878 0)
(-0.0224289 -0.117506 0)
(-0.0253932 -0.118637 0)
(-0.0285919 -0.120596 0)
(-0.0323421 -0.123518 0)
(-0.0370152 -0.127424 0)
(-0.0430511 -0.132272 0)
(-0.0508652 -0.137851 0)
(-0.0608715 -0.143878 0)
(-0.0734191 -0.149928 0)
(-0.0887819 -0.155415 0)
(-0.107177 -0.159687 0)
(-0.128749 -0.162058 0)
(-0.153502 -0.161507 0)
(-0.181032 -0.156829 0)
(-0.209979 -0.14659 0)
(-0.237796 -0.13001 0)
(-0.262364 -0.108183 0)
(-0.000273315 -0.0160297 0)
(-0.00410661 -0.157892 0)
(-0.00900105 -0.12776 0)
(-0.0128357 -0.113832 0)
(-0.016344 -0.112922 0)
(-0.0197749 -0.113601 0)
(-0.0232297 -0.114222 0)
(-0.0268072 -0.115178 0)
(-0.0307013 -0.116715 0)
(-0.0351555 -0.118898 0)
(-0.040484 -0.121715 0)
(-0.0470121 -0.125102 0)
(-0.0550434 -0.128859 0)
(-0.064923 -0.132748 0)
(-0.0768885 -0.136384 0)
(-0.0911022 -0.139262 0)
(-0.107724 -0.140848 0)
(-0.126708 -0.140572 0)
(-0.147847 -0.1378 0)
(-0.170678 -0.131843 0)
(-0.19415 -0.121731 0)
(-0.216655 -0.106723 0)
(-0.23693 -0.0876955 0)
(-0.000345438 -0.0137504 0)
(-0.00407396 -0.153563 0)
(-0.00897538 -0.123452 0)
(-0.0127951 -0.110082 0)
(-0.0164358 -0.109337 0)
(-0.0200917 -0.10999 0)
(-0.0238762 -0.110484 0)
(-0.0278677 -0.111179 0)
(-0.0322221 -0.112259 0)
(-0.0371282 -0.113744 0)
(-0.0428315 -0.115603 0)
(-0.0495635 -0.117729 0)
(-0.0575656 -0.119957 0)
(-0.0670936 -0.122102 0)
(-0.0782765 -0.123796 0)
(-0.0912437 -0.124652 0)
(-0.106056 -0.124245 0)
(-0.122576 -0.122032 0)
(-0.140572 -0.117613 0)
(-0.159654 -0.110587 0)
(-0.179063 -0.100412 0)
(-0.197667 -0.0865788 0)
(-0.214607 -0.069738 0)
(-0.000330911 -0.0114829 0)
(-0.00402324 -0.149238 0)
(-0.00900725 -0.119144 0)
(-0.0127891 -0.106283 0)
(-0.0165131 -0.105621 0)
(-0.0203088 -0.106159 0)
(-0.0242944 -0.106459 0)
(-0.0285296 -0.106849 0)
(-0.0331399 -0.107468 0)
(-0.0382819 -0.10831 0)
(-0.0441272 -0.109323 0)
(-0.0508341 -0.110383 0)
(-0.0586251 -0.111363 0)
(-0.0676529 -0.112083 0)
(-0.0779759 -0.112242 0)
(-0.0897171 -0.111551 0)
(-0.102835 -0.109613 0)
(-0.117194 -0.10603 0)
(-0.1326 -0.10054 0)
(-0.148689 -0.0929332 0)
(-0.164917 -0.0828936 0)
(-0.180485 -0.0699868 0)
(-0.194751 -0.0547093 0)
(-0.000235113 -0.00928837 0)
(-0.00393421 -0.144852 0)
(-0.00903211 -0.114835 0)
(-0.0127479 -0.10247 0)
(-0.0165085 -0.101833 0)
(-0.0203676 -0.102206 0)
(-0.0244498 -0.10228 0)
(-0.0287942 -0.102353 0)
(-0.0335027 -0.102532 0)
(-0.0386992 -0.102793 0)
(-0.0445001 -0.103063 0)
(-0.0510349 -0.103235 0)
(-0.0584758 -0.103211 0)
(-0.0669055 -0.102779 0)
(-0.0763694 -0.101737 0)
(-0.0869152 -0.0998428 0)
(-0.0984804 -0.0967556 0)
(-0.110962 -0.0922146 0)
(-0.124172 -0.0860148 0)
(-0.137812 -0.0780407 0)
(-0.15149 -0.0681543 0)
(-0.164637 -0.0559687 0)
(-0.176719 -0.0418264 0)
(-7.36234e-05 -0.00722578 0)
(-0.00380119 -0.140376 0)
(-0.00900547 -0.110532 0)
(-0.0126215 -0.0986799 0)
(-0.0163787 -0.0980319 0)
(-0.0202354 -0.0982136 0)
(-0.0243272 -0.0980495 0)
(-0.028674 -0.0978157 0)
(-0.0333581 -0.0975914 0)
(-0.0384739 -0.0973367 0)
(-0.0441031 -0.0969786 0)
(-0.0503607 -0.0964315 0)
(-0.0573507 -0.0955736 0)
(-0.0651208 -0.0942318 0)
(-0.0737121 -0.0922557 0)
(-0.0831264 -0.0894305 0)
(-0.0932972 -0.0855137 0)
(-0.10414 -0.0802883 0)
(-0.115469 -0.0736121 0)
(-0.127063 -0.0654284 0)
(-0.13866 -0.0557 0)
(-0.149849 -0.0440737 0)
(-0.160124 -0.0307709 0)
(0.000127358 -0.00534918 0)
(-0.00362011 -0.135821 0)
(-0.0088895 -0.106262 0)
(-0.0123725 -0.094949 0)
(-0.016088 -0.094267 0)
(-0.0198892 -0.0942484 0)
(-0.0239207 -0.0938527 0)
(-0.0281876 -0.0933349 0)
(-0.0327544 -0.092754 0)
(-0.0376936 -0.0920606 0)
(-0.0430724 -0.0911844 0)
(-0.0489569 -0.0900426 0)
(-0.0554229 -0.0885025 0)
(-0.06252 -0.0864522 0)
(-0.070255 -0.0837537 0)
(-0.0786032 -0.0802355 0)
(-0.0875002 -0.0757142 0)
(-0.0968931 -0.0700065 0)
(-0.106619 -0.0630007 0)
(-0.116487 -0.0547079 0)
(-0.126314 -0.0451319 0)
(-0.135868 -0.03394 0)
(-0.144623 -0.0212541 0)
(0.000332783 -0.00369061 0)
(-0.00338009 -0.131235 0)
(-0.0086446 -0.102072 0)
(-0.0119692 -0.0913052 0)
(-0.0156064 -0.0905832 0)
(-0.019308 -0.0903695 0)
(-0.0232247 -0.089761 0)
(-0.0273512 -0.0889909 0)
(-0.0317369 -0.0881014 0)
(-0.0364358 -0.0870403 0)
(-0.0414925 -0.0857375 0)
(-0.046948 -0.0840999 0)
(-0.0528679 -0.0820405 0)
(-0.0592859 -0.0794517 0)
(-0.0661836 -0.0762013 0)
(-0.0735361 -0.0721654 0)
(-0.0812776 -0.0672057 0)
(-0.0893641 -0.0611687 0)
(-0.0976798 -0.0539533 0)
(-0.106069 -0.045601 0)
(-0.11437 -0.0361346 0)
(-0.122515 -0.0253425 0)
(-0.129943 -0.013078 0)
(0.000519757 -0.00227943 0)
(-0.00306243 -0.126698 0)
(-0.0082386 -0.0980156 0)
(-0.0113847 -0.087774 0)
(-0.0149158 -0.0870142 0)
(-0.0184768 -0.086621 0)
(-0.0222358 -0.0858248 0)
(-0.0261737 -0.0848377 0)
(-0.0303308 -0.0836882 0)
(-0.0347449 -0.0823225 0)
(-0.0394378 -0.0806718 0)
(-0.0444492 -0.078654 0)
(-0.0498287 -0.0762044 0)
(-0.05557 -0.0732027 0)
(-0.0616584 -0.0695431 0)
(-0.0680785 -0.0651307 0)
(-0.0747569 -0.0598563 0)
(-0.0816667 -0.0536184 0)
(-0.0887364 -0.0462793 0)
(-0.0957957 -0.0379177 0)
(-0.102795 -0.0285392 0)
(-0.109692 -0.0180768 0)
(-0.115867 -0.00611399 0)
(0.000692031 -0.00114251 0)
(-0.0026424 -0.122306 0)
(-0.00766514 -0.0941361 0)
(-0.0106093 -0.0843831 0)
(-0.0140087 -0.08359 0)
(-0.0173904 -0.0830379 0)
(-0.0209543 -0.08208 0)
(-0.0246659 -0.0809109 0)
(-0.0285584 -0.0795498 0)
(-0.0326554 -0.0779371 0)
(-0.0369692 -0.0760162 0)
(-0.0415361 -0.0737222 0)
(-0.0463718 -0.070974 0)
(-0.051456 -0.0676601 0)
(-0.056785 -0.0637156 0)
(-0.0623372 -0.0590496 0)
(-0.068066 -0.0535736 0)
(-0.0738993 -0.047206 0)
(-0.0798231 -0.0398431 0)
(-0.0856991 -0.0314802 0)
(-0.0915042 -0.022247 0)
(-0.0972853 -0.0119981 0)
(-0.10232 -0.000299415 0)
(0.000889114 -0.000340535 0)
(-0.00210025 -0.118137 0)
(-0.00695031 -0.0904667 0)
(-0.00966257 -0.0811602 0)
(-0.0129034 -0.0803464 0)
(-0.0160668 -0.0796584 0)
(-0.0194001 -0.0785649 0)
(-0.0228495 -0.0772459 0)
(-0.0264399 -0.0757134 0)
(-0.0301925 -0.0739074 0)
(-0.0341212 -0.0717876 0)
(-0.0382334 -0.0692858 0)
(-0.0425212 -0.0663179 0)
(-0.0469799 -0.0627965 0)
(-0.0516018 -0.0586753 0)
(-0.0563489 -0.0538583 0)
(-0.0611723 -0.0482755 0)
(-0.0660519 -0.041836 0)
(-0.0709277 -0.0345101 0)
(-0.0757281 -0.0261768 0)
(-0.0804477 -0.017084 0)
(-0.0851472 -0.00703035 0)
(-0.0891439 0.00443876 0)
(0.00116931 3.33679e-05 0)
(-0.00143808 -0.114227 0)
(-0.00615032 -0.0870287 0)
(-0.00858968 -0.078136 0)
(-0.0116475 -0.0773232 0)
(-0.0145524 -0.0765236 0)
(-0.0176192 -0.0753207 0)
(-0.0207676 -0.0738817 0)
(-0.0240189 -0.072213 0)
(-0.0273983 -0.0702693 0)
(-0.0309098 -0.068002 0)
(-0.0345409 -0.0653455 0)
(-0.0382782 -0.0622274 0)
(-0.0421266 -0.0586012 0)
(-0.0460642 -0.0543747 0)
(-0.0500381 -0.0494934 0)
(-0.0540162 -0.0438724 0)
(-0.0579866 -0.0374703 0)
(-0.061873 -0.0301849 0)
(-0.0656639 -0.0219533 0)
(-0.0693473 -0.01294 0)
(-0.0729819 -0.00307179 0)
(-0.0759772 0.00810775 0)
(0.00155715 -0.000145022 0)
(-0.000700003 -0.110535 0)
(-0.00532901 -0.0838109 0)
(-0.00744813 -0.0753366 0)
(-0.0103125 -0.0745536 0)
(-0.0129218 -0.0736671 0)
(-0.0156911 -0.0723845 0)
(-0.0185009 -0.0708593 0)
(-0.0213815 -0.0690941 0)
(-0.0243469 -0.0670512 0)
(-0.0273939 -0.0646808 0)
(-0.0305035 -0.0619342 0)
(-0.033682 -0.058733 0)
(-0.0368949 -0.0550625 0)
(-0.0401241 -0.0508029 0)
(-0.0433287 -0.0459297 0)
(-0.0464733 -0.0403488 0)
(-0.0495369 -0.0340288 0)
(-0.0524275 -0.0268407 0)
(-0.0551862 -0.0187862 0)
(-0.057777 -0.0098587 0)
(-0.0603181 -0.000157868 0)
(-0.0621919 0.0107233 0)
(0.0020877 -0.000976471 0)
(8.5752e-05 -0.106968 0)
(-0.00456974 -0.0807795 0)
(-0.00631302 -0.0727713 0)
(-0.00898873 -0.0720524 0)
(-0.0112777 -0.071103 0)
(-0.013737 -0.0697739 0)
(-0.0161889 -0.0681993 0)
(-0.0186685 -0.0663799 0)
(-0.0211895 -0.0642825 0)
(-0.0237498 -0.0618598 0)
(-0.0263066 -0.0590731 0)
(-0.0288793 -0.0558679 0)
(-0.0314295 -0.0521891 0)
(-0.033922 -0.0479804 0)
(-0.0363244 -0.0431742 0)
(-0.0385893 -0.0377219 0)
(-0.0406812 -0.0315401 0)
(-0.0425493 -0.024534 0)
(-0.0441657 -0.0167091 0)
(-0.0454694 -0.00796398 0)
(-0.046663 0.00153243 0)
(-0.0470937 0.012116 0)
(0.00275514 -0.00253301 0)
(0.000879684 -0.103411 0)
(-0.00393644 -0.0778963 0)
(-0.00526028 -0.0704412 0)
(-0.00778612 -0.0698208 0)
(-0.00974877 -0.0688266 0)
(-0.011915 -0.067488 0)
(-0.0140202 -0.0659049 0)
(-0.0161154 -0.0640773 0)
(-0.0181993 -0.0619735 0)
(-0.0202661 -0.0595571 0)
(-0.0222892 -0.056784 0)
(-0.0242571 -0.0536273 0)
(-0.0261344 -0.0500148 0)
(-0.0278857 -0.0459194 0)
(-0.0294736 -0.0412629 0)
(-0.0308341 -0.0360089 0)
(-0.0318967 -0.0300738 0)
(-0.0326397 -0.0233966 0)
(-0.0329814 -0.0158931 0)
(-0.0327998 -0.00751054 0)
(-0.0323067 0.00169038 0)
(-0.0307725 0.0118995 0)
(0.00356299 -0.0049171 0)
(0.00165082 -0.0997396 0)
(-0.00348142 -0.0751347 0)
(-0.00436005 -0.0683686 0)
(-0.00681572 -0.0678661 0)
(-0.00847178 -0.06684 0)
(-0.0104071 -0.0655278 0)
(-0.0122203 -0.063976 0)
(-0.0139828 -0.062184 0)
(-0.0156961 -0.0601242 0)
(-0.0173454 -0.057765 0)
(-0.0188949 -0.0550729 0)
(-0.0203334 -0.0520134 0)
(-0.0216188 -0.0485461 0)
(-0.0227027 -0.0446377 0)
(-0.0235334 -0.0402282 0)
(-0.0240401 -0.0352735 0)
(-0.0241391 -0.0297165 0)
(-0.0237519 -0.0235148 0)
(-0.022762 -0.016547 0)
(-0.0209778 -0.00876339 0)
(-0.0185458 -0.000187184 0)
(-0.0148104 0.00932037 0)
(0.00449981 -0.008241 0)
(0.00235972 -0.0958092 0)
(-0.00322651 -0.072468 0)
(-0.0036569 -0.0665673 0)
(-0.00615483 -0.0661649 0)
(-0.00754562 -0.0651282 0)
(-0.00934261 -0.0638716 0)
(-0.0109486 -0.0623813 0)
(-0.0124852 -0.060661 0)
(-0.0139365 -0.0586928 0)
(-0.0152882 -0.0564328 0)
(-0.0165051 -0.0538717 0)
(-0.0175624 -0.0509763 0)
(-0.0184165 -0.047721 0)
(-0.0190014 -0.0440777 0)
(-0.019254 -0.04001 0)
(-0.0190902 -0.0354797 0)
(-0.0184056 -0.0304498 0)
(-0.0170804 -0.0248799 0)
(-0.0149501 -0.0186952 0)
(-0.0118099 -0.0118308 0)
(-0.00768284 -0.00428152 0)
(-0.00175612 0.0040184 0)
(0.00547911 -0.0124549 0)
(0.00294293 -0.0913896 0)
(-0.00314565 -0.0697421 0)
(-0.00314119 -0.0648865 0)
(-0.00579343 -0.0645353 0)
(-0.00697742 -0.0635203 0)
(-0.0087255 -0.0623379 0)
(-0.0102165 -0.0609285 0)
(-0.0116362 -0.0593044 0)
(-0.0129493 -0.0574436 0)
(-0.0141442 -0.0553205 0)
(-0.0151879 -0.0529222 0)
(-0.0160437 -0.0502318 0)
(-0.0166621 -0.0472381 0)
(-0.0169721 -0.0439217 0)
(-0.0168978 -0.0402699 0)
(-0.0163415 -0.0362594 0)
(-0.0151798 -0.0318785 0)
(-0.0132669 -0.0271036 0)
(-0.0104227 -0.0218992 0)
(-0.00638628 -0.016224 0)
(-0.00112607 -0.0100572 0)
(0.00632973 -0.00338539 0)
(0.00634116 -0.0172203 0)
(0.00335771 -0.0862381 0)
(-0.00314437 -0.0667568 0)
(-0.00275745 -0.0630498 0)
(-0.00562542 -0.0626936 0)
(-0.00664977 -0.0617289 0)
(-0.00839952 -0.0606236 0)
(-0.00983953 -0.0593046 0)
(-0.0112174 -0.057778 0)
(-0.0124848 -0.0560283 0)
(-0.0136302 -0.0540458 0)
(-0.014619 -0.0518194 0)
(-0.0154159 -0.0493509 0)
(-0.0159641 -0.0466351 0)
(-0.0161883 -0.0436746 0)
(-0.0160111 -0.0404714 0)
(-0.0153275 -0.037028 0)
(-0.0140058 -0.0333526 0)
(-0.0118918 -0.0294536 0)
(-0.0088006 -0.0253311 0)
(-0.0044854 -0.0209835 0)
(0.0011843 -0.0164393 0)
(0.00920965 -0.0117263 0)
(0.00696242 -0.0224762 0)
(0.00358536 -0.0806283 0)
(-0.00313226 -0.0637878 0)
(-0.00241995 -0.0612391 0)
(-0.0054765 -0.0608226 0)
(-0.00636349 -0.059937 0)
(-0.00811922 -0.0589065 0)
(-0.00952335 -0.0576759 0)
(-0.0108758 -0.0562427 0)
(-0.012126 -0.0546022 0)
(-0.0132606 -0.0527535 0)
(-0.014249 -0.0506994 0)
(-0.0150484 -0.0484536 0)
(-0.0156017 -0.0460201 0)
(-0.0158436 -0.0434176 0)
(-0.0156956 -0.0406706 0)
(-0.0150541 -0.0378015 0)
(-0.0137901 -0.0348403 0)
(-0.011757 -0.031823 0)
(-0.00878136 -0.0287908 0)
(-0.00462575 -0.0257921 0)
(0.000872166 -0.0228806 0)
(0.0086297 -0.0202067 0)
(0.00721896 -0.0287584 0)
(0.00360372 -0.07539 0)
(-0.0030299 -0.0616141 0)
(-0.0020795 -0.0601727 0)
(-0.00519397 -0.059652 0)
(-0.00595474 -0.0588796 0)
(-0.00766219 -0.0579199 0)
(-0.00900279 -0.0567746 0)
(-0.0103027 -0.0554366 0)
(-0.0115095 -0.0539057 0)
(-0.0126114 -0.0521911 0)
(-0.0135806 -0.0503109 0)
(-0.014374 -0.0482862 0)
(-0.0149354 -0.0461364 0)
(-0.0152107 -0.0438844 0)
(-0.0151284 -0.0415815 0)
(-0.0145898 -0.0392658 0)
(-0.0134791 -0.0369896 0)
(-0.0116625 -0.0348109 0)
(-0.00898135 -0.0328103 0)
(-0.00521448 -0.031085 0)
(-0.000201666 -0.0297345 0)
(0.00684028 -0.0289551 0)
(0.00687293 -0.0354877 0)