# vtk DataFile Version 4.0
Generated by LIGGGHTS
ASCII
DATASET POLYDATA
POINTS 1355 float
-0.89839 -0.460855 -0.460309 -0.7672 -0.460374 -0.460368 -0.687641 -0.460348 -0.460382 
-0.607771 -0.460904 -0.46046 -0.527523 -0.460613 -0.460482 -0.447832 -0.460383 -0.460458 
-0.367899 -0.460049 -0.460659 -0.279467 -0.460198 -0.460738 -0.158577 -0.460608 -0.460271 
-0.078738 -0.450677 -0.460493 0.00040501 -0.460289 -0.460416 0.0801715 -0.460536 -0.460493 
0.160158 -0.460514 -0.460493 0.240386 -0.46053 -0.460524 0.319936 -0.459175 -0.460492 
0.399551 -0.460001 -0.460422 0.479199 -0.460289 -0.460215 0.581895 -0.460469 -0.460781 
0.661538 -0.460461 -0.460499 0.741193 -0.460369 -0.460558 0.820673 -0.460464 -0.460696 
0.901742 -0.460342 -0.460309 -0.960648 -0.412105 -0.461055 -0.886649 -0.382151 -0.460707 
-0.728806 -0.390491 -0.46059 -0.647364 -0.39193 -0.460334 -0.568003 -0.392739 -0.460366 
-0.488438 -0.390968 -0.460419 -0.408692 -0.391315 -0.460505 -0.329682 -0.382574 -0.46038 
-0.211491 -0.401231 -0.460363 -0.133119 -0.385395 -0.460966 0.0399946 -0.391331 -0.460472 
0.119693 -0.392015 -0.460639 0.200751 -0.39207 -0.460598 0.28034 -0.38651 -0.460548 
0.360221 -0.390193 -0.460745 0.44186 -0.385836 -0.460134 0.530294 -0.399543 -0.460454 
0.621095 -0.391533 -0.460758 0.700957 -0.391683 -0.460443 0.780957 -0.391161 -0.460154 
0.860734 -0.391896 -0.460577 0.960373 -0.40664 -0.46049 -0.955681 -0.333511 -0.460112 
-0.882247 -0.302625 -0.460481 -0.809307 -0.362075 -0.46029 -0.682706 -0.32129 -0.461548 
-0.569932 -0.314586 -0.461179 -0.490696 -0.311184 -0.460471 -0.411017 -0.311754 -0.460426 
-0.332089 -0.302741 -0.460957 -0.262158 -0.339982 -0.460285 -0.184096 -0.324432 -0.460628 
-0.105344 -0.310804 -0.460895 -0.0318233 -0.355973 -0.460105 0.0377 -0.311714 -0.460316 
0.160132 -0.324577 -0.46039 0.238887 -0.310756 -0.460427 0.323473 -0.319306 -0.460325 
0.403225 -0.315117 -0.460402 0.491433 -0.31257 -0.460551 0.569452 -0.330474 -0.460664 
0.660416 -0.322782 -0.46032 0.739751 -0.322923 -0.460931 0.882246 -0.315618 -0.460993 
0.96053 -0.327361 -0.46041 -0.960892 -0.25479 -0.460468 -0.805536 -0.282433 -0.460569 
-0.729936 -0.257067 -0.46052 -0.629664 -0.262662 -0.460064 -0.537971 -0.242769 -0.460476 
-0.458865 -0.237687 -0.460747 -0.379329 -0.238391 -0.460357 -0.0336459 -0.275837 -0.460524 
0.10431 -0.268151 -0.460743 0.186207 -0.250836 -0.460279 0.319554 -0.239691 -0.460323 
0.546008 -0.254486 -0.460506 0.622871 -0.256059 -0.439558 0.700241 -0.253591 -0.460465 
0.7801 -0.254703 -0.460171 0.88201 -0.23613 -0.460268 0.960439 -0.248072 -0.460542 
-0.961287 -0.175553 -0.460467 -0.892354 -0.215325 -0.460091 -0.814387 -0.203774 -0.460498 
-0.67641 -0.198443 -0.460096 -0.597412 -0.19047 -0.460486 -0.504786 -0.170672 -0.460367 
-0.29993 -0.230028 -0.460805 -0.209909 -0.220338 -0.460373 -0.118692 -0.232037 -0.460397 
-0.0469438 -0.197342 -0.4603 0.0331794 -0.231914 -0.460358 0.0954849 -0.177468 -0.460963 
0.175279 -0.172735 -0.460484 0.248858 -0.202645 -0.460369 0.39089 -0.203364 -0.460473 
0.469874 -0.231207 -0.460499 0.574967 -0.18046 -0.460989 0.654308 -0.186227 -0.460524 
0.733542 -0.178938 -0.460666 0.820242 -0.186488 -0.46017 0.960622 -0.168773 -0.460441 
-0.894962 -0.134392 -0.460566 -0.8163 -0.124351 -0.460105 -0.747057 -0.162707 -0.460961 
-0.643835 -0.126065 -0.460333 -0.565161 -0.118941 -0.460589 -0.425802 -0.165011 -0.460718 
-0.346393 -0.165549 -0.46087 -0.262924 -0.159896 -0.460286 -0.208478 -0.101959 -0.460402 
-0.155805 -0.161504 -0.460868 -0.0835697 -0.12684 -0.460308 0.019382 -0.153224 -0.460472 
0.132723 -0.106951 -0.46068 0.314755 -0.159921 -0.460773 0.429906 -0.113703 -0.46093 
0.50268 -0.145623 -0.46056 0.619252 -0.114489 -0.460483 0.813743 -0.107955 -0.460634 
0.886518 -0.140676 -0.460681 -0.960146 -0.0776187 -0.460392 -0.865301 -0.0617555 -0.461005 
-0.783598 -0.0522246 -0.460573 -0.712978 -0.0882645 -0.460581 -0.590011 -0.0432473 -0.460277 
-0.510434 -0.063314 -0.460453 -0.433462 -0.0811144 -0.461079 -0.355283 -0.086369 -0.460534 
-0.281421 -0.0869246 -0.434674 -0.137333 -0.0684209 -0.460388 -0.0114162 -0.0792006 -0.460107 
0.0671104 -0.0630336 -0.461919 0.214255 -0.0802105 -0.460588 0.293989 -0.0831855 -0.460673 
0.370416 -0.0607457 -0.460114 0.446118 -0.0359301 -0.46086 0.547737 -0.0802131 -0.460669 
0.66387 -0.0484985 -0.460496 0.738773 -0.0811251 -0.460604 0.960342 -0.0892961 -0.460753 
-0.923136 -0.00716828 -0.460814 -0.832848 0.00949596 -0.460205 -0.754292 0.0218203 -0.460438 
-0.683219 -0.0146293 -0.46088 -0.560258 0.0309097 -0.460769 -0.483391 0.0104287 -0.460703 
-0.405923 -0.00668888 -0.460457 -0.326277 -0.0122932 -0.46015 -0.247081 -0.0210179 -0.461062 
-0.171899 0.00319112 -0.46062 -0.071651 -0.0255288 -0.461416 0.00300414 2.75987e-05 -0.460473 
0.080309 0.0166971 -0.460476 0.145101 -0.0292682 -0.460585 0.232828 -0.00263196 -0.460832 
0.312555 -0.00590227 -0.460124 0.388152 0.0188932 -0.460638 0.59185 -0.0137877 -0.460889 
0.692005 0.0261466 -0.460335 0.764389 -0.00579874 -0.46016 0.838942 -0.0329431 -0.460541 
0.916935 -0.0232595 -0.461096 -0.961554 0.062295 -0.460381 -0.883975 0.0695945 -0.46017 
-0.806331 0.0833235 -0.460962 -0.728676 0.0965917 -0.461215 -0.650879 0.0792171 -0.460238 
-0.500655 0.087568 -0.460374 -0.361556 0.0588355 -0.460728 -0.282133 0.0599453 -0.46159 
-0.109077 0.0506238 -0.461432 -0.0194035 0.0758959 -0.460285 0.100541 0.0932861 -0.460627 
0.165366 0.04704 -0.460738 0.283982 0.0682147 -0.460771 0.406982 0.0963407 -0.460605 
0.46424 0.0414546 -0.460135 0.541402 0.0573173 -0.460462 0.620572 0.0606179 -0.460104 
0.75445 0.0816289 -0.460468 0.825464 0.0451267 -0.460311 0.894093 0.0852919 -0.460659 
0.960851 0.04283 -0.460345 -0.960632 0.141918 -0.460974 -0.861076 0.145401 -0.460344 
-0.78553 0.154889 -0.436962 -0.636961 0.158551 -0.460531 -0.576815 0.108269 -0.460097 
-0.522056 0.165687 -0.460274 -0.40297 0.126579 -0.460992 -0.323409 0.127859 -0.460192 
-0.220569 0.110414 -0.460183 -0.139533 0.124198 -0.461146 -0.0622472 0.14212 -0.460563 
0.0331736 0.135505 -0.451135 0.221117 0.116543 -0.460819 0.33405 0.134559 -0.460602 
0.493405 0.124138 -0.460325 0.573403 0.129687 -0.460522 0.65315 0.133069 -0.460399 
0.755281 0.16125 -0.460933 0.824981 0.124303 -0.460603 0.892119 0.165997 -0.460531 
0.961061 0.127495 -0.460416 -0.960507 0.221093 -0.460568 -0.82751 0.217522 -0.460727 
-0.713261 0.174745 -0.460535 -0.449131 0.196775 -0.46001 -0.369875 0.198063 -0.461086 
-0.275339 0.189637 -0.461047 -0.195984 0.18674 -0.460941 -0.0792203 0.232563 -0.460576 
0.0547947 0.211582 -0.460911 0.178532 0.183052 -0.460974 0.268544 0.180247 -0.460841 
0.359427 0.21 -0.460247 0.429692 0.172305 -0.460319 0.530456 0.196626 -0.46068 
0.609918 0.200303 -0.460344 0.689097 0.204048 -0.460167 0.822291 0.204154 -0.460573 
0.960442 0.20727 -0.460282 -0.892658 0.261639 -0.460295 -0.822097 0.297471 -0.460399 
-0.752756 0.242938 -0.460537 -0.629286 0.238076 -0.460612 -0.550222 0.248481 -0.46071 
-0.410457 0.266467 -0.461161 -0.317111 0.256806 -0.46063 -0.235108 0.257064 -0.459799 
-0.155623 0.254557 -0.459225 -0.012778 0.285375 -0.460931 0.104224 0.273872 -0.460033 
0.21475 0.253062 -0.460778 0.294191 0.255368 -0.461077 0.396537 0.280618 -0.460144 
0.466258 0.242662 -0.460889 0.575745 0.272075 -0.461286 0.657514 0.276606 -0.460794 
0.755753 0.247886 -0.460128 0.890651 0.245119 -0.460358 -0.960746 0.301343 -0.460197 
-0.891448 0.341098 -0.460415 -0.746564 0.321368 -0.460849 -0.668292 0.307545 -0.46017 
-0.589195 0.318191 -0.460109 -0.47615 0.346513 -0.461266 -0.35773 0.325324 -0.460457 
-0.278037 0.3246 -0.460595 -0.199259 0.32732 -0.464076 -0.0989141 0.309615 -0.460531 
-0.0418291 0.36138 -0.443812 0.0648908 0.342769 -0.460473 0.169685 0.31936 -0.460672 
0.250766 0.32406 -0.460854 0.330637 0.324754 -0.460792 0.436454 0.349629 -0.460129 
0.506289 0.311435 -0.46072 0.615148 0.343376 -0.460385 0.72373 0.320831 -0.460784 
0.803289 0.321173 -0.460441 0.882701 0.323353 -0.460404 0.959722 0.302212 -0.460775 
-0.960413 0.380831 -0.46042 -0.891668 0.421058 -0.460927 -0.781656 0.391951 -0.46056 
-0.701912 0.386892 -0.460862 -0.622314 0.390886 -0.460557 -0.54256 0.390715 -0.460277 
-0.409657 0.389303 -0.460625 -0.317807 0.392998 -0.461234 -0.239149 0.393762 -0.460621 
-0.129699 0.382745 -0.460858 0.0192239 0.407838 -0.461599 0.127363 0.392026 -0.460379 
0.207388 0.39135 -0.461057 0.289969 0.392816 -0.461475 0.369593 0.39283 -0.46049 
0.475731 0.419038 -0.460309 0.545524 0.380972 -0.460346 0.68097 0.38826 -0.460442 
0.760593 0.391523 -0.460614 0.841379 0.391365 -0.460434 0.921467 0.392023 -0.460734 
-0.960613 0.460434 -0.46044 -0.822209 0.460331 -0.460456 -0.742081 0.460521 -0.460474 
-0.662468 0.460068 -0.460197 -0.582937 0.460158 -0.460287 -0.50371 0.460441 -0.46128 
-0.357865 0.460719 -0.460437 -0.278213 0.461521 -0.460222 -0.198439 0.460901 -0.46033 
-0.119832 0.461486 -0.461427 -0.0401206 0.460479 -0.460413 0.0840023 0.460116 -0.460182 
0.168591 0.460373 -0.460886 0.24831 0.46034 -0.460404 0.328717 0.461106 -0.460497 
0.40861 0.46107 -0.4601 0.543808 0.46043 -0.460508 0.634174 0.459997 -0.460307 
0.715558 0.46012 -0.460321 0.80106 0.460236 -0.460619 0.880948 0.460467 -0.4605 
0.960556 0.4606 -0.460314 -0.960259 -0.461153 -0.399453 -0.8845 -0.460199 -0.374849 
-0.72736 -0.460351 -0.391137 -0.647553 -0.46031 -0.391485 -0.567594 -0.460565 -0.39154 
-0.487638 -0.460057 -0.391532 -0.407534 -0.459648 -0.391584 -0.323797 -0.460073 -0.394667 
-0.22005 -0.460686 -0.40772 -0.117585 -0.460873 -0.392005 -0.0384829 -0.460498 -0.391076 
0.0407904 -0.460229 -0.391426 0.120332 -0.460163 -0.391453 0.200176 -0.460208 -0.39167 
0.28003 -0.460282 -0.391547 0.359635 -0.46033 -0.391398 0.439097 -0.460786 -0.391191 
0.532062 -0.460857 -0.399472 0.621837 -0.460036 -0.391736 0.701817 -0.459787 -0.391473 
0.780966 -0.445679 -0.393097 0.860442 -0.460093 -0.392184 0.960113 -0.460325 -0.401812 
-0.960515 -0.383062 -0.386999 -0.832956 -0.43069 -0.427602 -0.771549 -0.394148 -0.393196 
[...]
POINT_DATA 1355
FIELD FieldData 7
id 1 1355 int
366 408 584 322 662 206 563 371 419 
523 551 145 607 585 151 530 365 186 
620 156 70 664 692 632 759 714 370 
120 208 723 59 512 435 712 211 457 
20 256 338 470 195 678 320 643 534 
171 196 105 493 581 542 442 514 245 
234 347 708 214 280 305 529 396 291 
444 367 476 155 724 314 136 721 375 
250 62 498 54 200 431 623 593 109 
184 446 647 159 267 289 373 275 324 
533 376 95 589 76 722 239 543 576 
75 202 572 683 676 680 445 83 641 
185 331 96 99 458 14 575 40 57 
88 31 281 298 126 300 48 521 531 
428 254 592 758 361 412 478 689 312 
252 153 397 483 170 704 321 140 726 
143 142 351 651 6 528 433 92 690 
382 437 359 154 569 304 439 339 639 
461 177 700 378 459 310 258 51 182 
549 323 121 507 423 742 495 224 612 
720 590 539 166 460 97 240 537 127 
580 85 544 293 697 634 129 104 602 
146 161 32 384 25 671 74 278 675 
383 71 266 19 22 627 717 162 218 
348 247 167 125 191 199 294 586 640 
441 596 149 475 463 387 269 130 8 
393 748 420 613 663 16 578 402 682 
421 715 637 299 698 747 261 622 355 
571 411 42 259 416 227 391 527 557 
346 67 274 319 242 649 9 73 766 
409 535 89 4 260 318 650 388 311 
94 618 39 582 53 673 729 3 69 
496 363 201 188 599 670 228 519 667 
472 669 660 646 654 43 230 226 306 
427 316 614 764 329 545 179 389 12 
453 440 197 452 90 604 386 686 38 
587 285 725 743 181 518 225 761 513 
5 559 72 336 66 116 78 221 628 
131 679 959 103 273 1154 276 516 47 
233 325 108 223 666 157 455 205 175 
287 56 751 736 426 744 642 611 302 
413 473 741 684 118 653 18 770 15 
82 272 100 87 343 490 219 601 290 
465 110 438 372 767 631 255 879 552 
307 699 636 187 550 80 532 313 645 
279 509 556 511 114 757 144 81 668 
58 615 616 558 644 341 189 407 36 
462 597 357 394 565 554 29 334 282 
570 424 286 399 24 447 364 192 183 
566 492 718 169 497 886 248 33 422 
11 502 541 395 46 106 345 711 86 
137 60 236 44 524 112 737 429 479 
540 134 27 45 694 326 358 352 746 
21 629 522 369 28 271 2 111 102 
818 216 733 147 194 148 172 101 775 
443 415 738 783 710 243 626 474 288 
180 482 381 374 436 638 450 253 425 
93 91 215 505 403 520 277 591 84 
133 719 350 762 193 546 41 970 333 
231 330 928 574 308 328 703 232 432 
296 284 659 687 49 13 469 681 400 
648 190 128 392 610 135 209 760 35 
665 122 503 750 488 821 564 480 283 
508 26 113 608 123 222 709 340 456 
251 417 17 292 138 430 246 98 448 
404 178 244 132 63 583 464 891 600 
1165 418 547 763 499 229 494 385 617 
672 467 119 755 481 727 526 390 210 
728 249 217 573 871 769 354 158 510 
7 739 466 793 890 500 658 337 986 
1166 846 173 567 1184 468 781 927 735 
809 1066 1173 1152 925 685 933 814 921 
414 784 265 749 1288 943 504 787 268 
935 831 910 362 1115 619 903 688 652 
867 1167 410 768 973 951 1062 963 754 
1061 1170 360 828 235 696 779 875 1147 
207 932 241 865 702 1091 907 454 812 
603 1255 974 1162 848 914 829 295 707 
937 176 982 838 870 124 691 792 919 
335 317 406 944 985 972 732 165 379 
489 577 952 491 765 204 349 904 894 
901 655 79 851 471 734 786 981 882 
356 939 855 141 630 30 1075 501 677 
674 536 486 621 918 861 824 895 487 
1284 795 731 800 309 50 605 568 908 
548 434 1088 892 52 801 794 905 947 
1078 301 776 962 805 990 911 332 164 
1182 975 484 815 401 34 327 893 198 
926 977 657 954 835 656 888 633 730 
827 160 752 790 150 560 342 1127 837 
695 804 477 538 220 887 922 10 555 
380 803 876 515 791 840 713 65 77 
841 864 107 344 23 965 203 872 929 
994 873 598 884 822 237 1 139 1137 
61 960 706 398 859 896 869 716 55 
1041 1156 971 856 115 506 257 1074 966 
263 850 174 609 912 773 917 37 606 
297 368 625 353 771 913 562 168 405 
845 880 451 949 117 525 1001 303 262 
785 213 68 635 64 661 553 756 152 
753 817 701 594 984 923 315 579 377 
485 961 212 693 878 938 1243 561 270 
906 1178 1079 1149 1312 1004 866 823 1334 
1143 988 1076 956 825 1006 1330 163 1123 
1093 930 1290 1051 958 1305 1211 1193 1279 
1110 1003 1185 849 1049 1133 1058 1159 1035 
826 1231 844 1116 1339 1125 1197 1160 1112 
1073 832 1113 847 1217 1097 1316 1032 1267 
1347 1000 1344 1145 868 999 808 1266 995 
1295 1028 1221 1071 1086 1034 1186 993 1354 
1187 802 1139 1285 1099 1014 1022 1036 1015 
1054 1144 950 1056 1322 1021 1189 1129 857 
1246 902 1346 1105 1283 936 964 1089 1103 
1188 806 780 789 1023 1130 1008 1172 1158 
1321 1020 1095 1050 1111 1138 916 992 1174 
1201 797 1026 820 782 842 953 1087 969 
1227 1016 1135 1077 1012 834 978 924 1183 
1119 1082 1083 807 980 1052 1343 836 1037 
810 967 1273 839 1067 1258 1176 1179 1010 
1114 1048 931 1027 799 1150 1216 1122 843 
1153 1081 1311 1171 1033 1046 1265 987 1100 
1253 1017 1203 968 1009 1109 862 819 1092 
1324 899 1080 1269 852 915 948 1096 1069 
1057 860 955 774 874 934 1007 1043 798 
811 1085 1148 1055 1126 1309 595 1280 1101 
998 1180 853 858 889 1038 1177 1053 796 
1063 1011 1042 1229 1230 877 1256 976 1131 
1134 909 813 772 989 1277 945 1281 940 
1045 777 1181 1124 1019 1232 778 1118 900 
898 830 1161 881 854 942 1169 1336 1287 
1070 1136 885 1117 1068 1254 740 1059 1307 
979 588 449 1208 1142 863 1064 1262 883 
238 517 816 897 788 624 1252 1250 1190 
1121 1141 1233 1140 941 1132 1299 1303 1151 
1238 745 1327 1302 1226 1247 1306 1275 1335 
1276 1249 1251 1291 1107 1106 1210 1215 1199 
1031 1224 1350 1323 1047 1213 1315 1297 1329 
1341 1005 1202 1237 1292 1228 1192 1348 1013 
1194 1209 1325 1263 1039 1065 1214 1319 833 
1205 1317 1270 1331 1219 1342 1352 1304 1242 
1235 1223 1018 1108 1044 1274 1349 1236 1326 
1296 1301 1220 1294 1164 1308 1272 1333 1198 
1084 1286 1234 1204 1260 1345 1104 997 1207 
1282 1278 1241 1259 946 1338 1293 1268 983 
1191 1128 1168 1271 1155 1240 1072 1196 1175 
1261 1314 1094 1300 1248 1029 1025 1163 1320 
1328 1351 1298 991 1200 1195 1310 1060 1090 
1225 1244 1002 1332 1257 264 1353 1146 1157 
705 1102 996 1264 1318 1239 1212 1024 1337 
920 1098 1040 1313 1206 957 1120 1340 1218 
1289 1355 1245 1222 1030 
type 1 1355 int
1 1 1 1 1 1 1 1 1 
1 1 1 1 1 1 1 1 1 
1 1 1 1 1 1 1 1 1 
1 1 1 1 1 1 1 1 1 
1 1 1 1 1 1 1 1 1 
1 1 1 1 1 1 1 1 1 
1 1 1 1 1 1 1 1 1 
1 1 1 1 1 1 1 1 1 
1 1 1 1 1 1 1 1 1 
1 1 1 1 1 1 1 1 1 
1 1 1 1 1 1 1 1 1 
1 1 1 1 1 1 1 1 1 
1 1 1 1 1 1 1 1 1 
1 1 1 1 1 1 1 1 1 
1 1 1 1 1 1 1 1 1 
1 1 1 1 1 1 1 1 1 
1 1 1 1 1 1 1 1 1 
1 1 1 1 1 1 1 1 1 
1 1 1 1 1 1 1 1 1 
1 1 1 1 1 1 1 1 1 
1 1 1 1 1 1 1 1 1 
1 1 1 1 1 1 1 1 1 
1 1 1 1 1 1 1 1 1 
1 1 1 1 1 1 1 1 1 
1 1 1 1 1 1 1 1 1 
1 1 1 1 1 1 1 1 1 
1 1 1 1 1 1 1 1 1 
1 1 1 1 1 1 1 1 1 
1 1 1 1 1 1 1 1 1 
1 1 1 1 1 1 1 1 1 
1 1 1 1 1 1 1 1 1 
1 1 1 1 1 1 1 1 1 
1 1 1 1 1 1 1 1 1 
1 1 1 1 1 1 1 1 1 
1 1 1 1 1 1 1 1 1 
1 1 1 1 1 1 1 1 1 
1 1 1 1 1 1 1 1 1 
1 1 1 1 1 1 1 1 1 
1 1 1 1 1 1 1 1 1 
1 1 1 1 1 1 1 1 1 
1 1 1 1 1 1 1 1 1 
1 1 1 1 1 1 1 1 1 
1 1 1 1 1 1 1 1 1 
1 1 1 1 1 1 1 1 1 
1 1 1 1 1 1 1 1 1 
1 1 1 1 1 1 1 1 1 
1 1 1 1 1 1 1 1 1 
1 1 1 1 1 1 1 1 1 
1 1 1 1 1 1 1 1 1 
1 1 1 1 1 1 1 1 1 
1 1 1 1 1 1 1 1 1 
1 1 1 1 1 1 1 1 1 
1 1 1 1 1 1 1 1 1 
1 1 1 1 1 1 1 1 1 
1 1 1 1 1 1 1 1 1 
1 1 1 1 1 1 1 1 1 
1 1 1 1 1 1 1 1 1 
1 1 1 1 1 1 1 1 1 
1 1 1 1 1 1 1 1 1 
1 1 1 1 1 1 1 1 1 
1 1 1 1 1 1 1 1 1 
1 1 1 1 1 1 1 1 1 
1 1 1 1 1 1 1 1 1 
1 1 1 1 1 1 1 1 1 
1 1 1 1 1 1 1 1 1 
1 1 1 1 1 1 1 1 1 
1 1 1 1 1 1 1 1 1 
1 1 1 1 1 1 1 1 1 
1 1 1 1 1 1 1 1 1 
1 1 1 1 1 1 1 1 1 
1 1 1 1 1 1 1 1 1 
1 1 1 1 1 1 1 1 1 
1 1 1 1 1 1 1 1 1 
1 1 1 1 1 1 1 1 1 
1 1 1 1 1 1 1 1 1 
1 1 1 1 1 1 1 1 1 
1 1 1 1 1 1 1 1 1 
1 1 1 1 1 1 1 1 1 
1 1 1 1 1 1 1 1 1 
1 1 1 1 1 1 1 1 1 
1 1 1 1 1 1 1 1 1 
1 1 1 1 1 1 1 1 1 
1 1 1 1 1 1 1 1 1 
1 1 1 1 1 1 1 1 1 
1 1 1 1 1 1 1 1 1 
1 1 1 1 1 1 1 1 1 
1 1 1 1 1 1 1 1 1 
1 1 1 1 1 1 1 1 1 
1 1 1 1 1 1 1 1 1 
1 1 1 1 1 1 1 1 1 
1 1 1 1 1 1 1 1 1 
1 1 1 1 1 1 1 1 1 
1 1 1 1 1 1 1 1 1 
1 1 1 1 1 1 1 1 1 
1 1 1 1 1 1 1 1 1 
1 1 1 1 1 1 1 1 1 
1 1 1 1 1 1 1 1 1 
1 1 1 1 1 1 1 1 1 
1 1 1 1 1 1 1 1 1 
1 1 1 1 1 1 1 1 1 
1 1 1 1 1 1 1 1 1 
1 1 1 1 1 1 1 1 1 
1 1 1 1 1 1 1 1 1 
1 1 1 1 1 1 1 1 1 
1 1 1 1 1 1 1 1 1 
1 1 1 1 1 1 1 1 1 
1 1 1 1 1 1 1 1 1 
1 1 1 1 1 1 1 1 1 
1 1 1 1 1 1 1 1 1 
1 1 1 1 1 1 1 1 1 
1 1 1 1 1 1 1 1 1 
1 1 1 1 1 1 1 1 1 
1 1 1 1 1 1 1 1 1 
1 1 1 1 1 1 1 1 1 
1 1 1 1 1 1 1 1 1 
1 1 1 1 1 1 1 1 1 
1 1 1 1 1 1 1 1 1 
1 1 1 1 1 1 1 1 1 
1 1 1 1 1 1 1 1 1 
1 1 1 1 1 1 1 1 1 
1 1 1 1 1 1 1 1 1 
1 1 1 1 1 1 1 1 1 
1 1 1 1 1 1 1 1 1 
1 1 1 1 1 1 1 1 1 
1 1 1 1 1 1 1 1 1 
1 1 1 1 1 1 1 1 1 
1 1 1 1 1 1 1 1 1 
1 1 1 1 1 1 1 1 1 
1 1 1 1 1 1 1 1 1 
1 1 1 1 1 1 1 1 1 
1 1 1 1 1 1 1 1 1 
1 1 1 1 1 1 1 1 1 
1 1 1 1 1 1 1 1 1 
1 1 1 1 1 1 1 1 1 
1 1 1 1 1 1 1 1 1 
1 1 1 1 1 1 1 1 1 
1 1 1 1 1 1 1 1 1 
1 1 1 1 1 1 1 1 1 
1 1 1 1 1 1 1 1 1 
1 1 1 1 1 1 1 1 1 
1 1 1 1 1 1 1 1 1 
1 1 1 1 1 1 1 1 1 
1 1 1 1 1 1 1 1 1 
1 1 1 1 1 1 1 1 1 
1 1 1 1 1 1 1 1 1 
1 1 1 1 1 1 1 1 1 
1 1 1 1 1 1 1 1 1 
1 1 1 1 1 1 1 1 1 
1 1 1 1 1 1 1 1 1 
1 1 1 1 1 1 1 1 1 
1 1 1 1 1 
i 3 1355 int
0 0 0 0 0 0 0 0 0 
0 0 0 0 0 0 0 0 0 
0 0 0 0 0 0 0 0 0 
0 0 0 0 0 0 0 0 0 
0 0 0 0 0 0 0 0 0 
0 0 0 0 0 0 0 0 0 
0 0 0 0 0 0 0 0 0 
0 0 0 0 0 0 0 0 0 
0 0 0 0 0 0 0 0 0 
0 0 0 0 0 0 0 0 0 
0 0 0 0 0 0 0 0 0 
0 0 0 0 0 0 0 0 0 
0 0 0 0 0 0 0 0 0 
0 0 0 0 0 0 0 0 0 
0 0 0 0 0 0 0 0 0 
0 0 0 0 0 0 0 0 0 
0 0 0 0 0 0 0 0 0 
0 0 0 0 0 0 0 0 0 
0 0 0 0 0 0 0 0 0 
0 0 0 0 0 0 0 0 0 
0 0 0 0 0 0 0 0 0 
0 0 0 0 0 0 0 0 0 
0 0 0 0 0 0 0 0 0 
0 0 0 0 0 0 0 0 0 
0 0 0 0 0 0 0 0 0 
0 0 0 0 0 0 0 0 0 
0 0 0 0 0 0 0 0 0 
0 0 0 0 0 0 0 0 0 
0 0 0 0 0 0 0 0 0 
0 0 0 0 0 0 0 0 0 
0 0 0 0 0 0 0 0 0 
0 0 0 0 0 0 0 0 0 
0 0 0 0 0 0 0 0 0 
0 0 0 0 0 0 0 0 0 
0 0 0 0 0 0 0 0 0 
0 0 0 0 0 0 0 0 0 
0 0 0 0 0 0 0 0 0 
0 0 0 0 0 0 0 0 0 
0 0 0 0 0 0 0 0 0 
0 0 0 0 0 0 0 0 0 
0 0 0 0 0 0 0 0 0 
0 0 0 0 0 0 0 0 0 
0 0 0 0 0 0 0 0 0 
0 0 0 0 0 0 0 0 0 
0 0 0 0 0 0 0 0 0 
0 0 0 0 0 0 0 0 0 
0 0 0 0 0 0 0 0 0 
0 0 0 0 0 0 0 0 0 
0 0 0 0 0 0 0 0 0 
0 0 0 0 0 0 0 0 0 
0 0 0 0 0 0 0 0 0 
0 0 0 0 0 0 0 0 0 
0 0 0 0 0 0 0 0 0 
0 0 0 0 0 0 0 0 0 
0 0 0 0 0 0 0 0 0 
0 0 0 0 0 0 0 0 0 
0 0 0 0 0 0 0 0 0 
0 0 0 0 0 0 0 0 0 
0 0 0 0 0 0 0 0 0 
0 0 0 0 0 0 0 0 0 
0 0 0 0 0 0 0 0 0 
0 0 0 0 0 0 0 0 0 
0 0 0 0 0 0 0 0 0 
0 0 0 0 0 0 0 0 0 
0 0 0 0 0 0 0 0 0 
0 0 0 0 0 0 0 0 0 
0 0 0 0 0 0 0 0 0 
0 0 0 0 0 0 0 0 0 
0 0 0 0 0 0 0 0 0 
0 0 0 0 0 0 0 0 0 
0 0 0 0 0 0 0 0 0 
0 0 0 0 0 0 0 0 0 
0 0 0 0 0 0 0 0 0 
0 0 0 0 0 0 0 0 0 
0 0 0 0 0 0 0 0 0 
0 0 0 0 0 0 0 0 0 
0 0 0 0 0 0 0 0 0 
0 0 0 0 0 0 0 0 0 
0 0 0 0 0 0 0 0 0 
0 0 0 0 0 0 0 0 0 
0 0 0 0 0 0 0 0 0 
0 0 0 0 0 0 0 0 0 
0 0 0 0 0 0 0 0 0 
0 0 0 0 0 0 0 0 0 
0 0 0 0 0 0 0 0 0 
0 0 0 0 0 0 0 0 0 
0 0 0 0 0 0 0 0 0 
0 0 0 0 0 0 0 0 0 
0 0 0 0 0 0 0 0 0 
0 0 0 0 0 0 0 0 0 
0 0 0 0 0 0 0 0 0 
0 0 0 0 0 0 0 0 0 
0 0 0 0 0 0 0 0 0 
0 0 0 0 0 0 0 0 0 
0 0 0 0 0 0 0 0 0 
0 0 0 0 0 0 0 0 0 
0 0 0 0 0 0 0 0 0 
0 0 0 0 0 0 0 0 0 
0 0 0 0 0 0 0 0 0 
0 0 0 0 0 0 0 0 0 
0 0 0 0 0 0 0 0 0 
0 0 0 0 0 0 0 0 0 
0 0 0 0 0 0 0 0 0 
0 0 0 0 0 0 0 0 0 
0 0 0 0 0 0 0 0 0 
0 0 0 0 0 0 0 0 0 
0 0 0 0 0 0 0 0 0 
0 0 0 0 0 0 0 0 0 
0 0 0 0 0 0 0 0 0 
0 0 0 0 0 0 0 0 0 
0 0 0 0 0 0 0 0 0 
0 0 0 0 0 0 0 0 0 
0 0 0 0 0 0 0 0 0 
0 0 0 0 0 0 0 0 0 
0 0 0 0 0 0 0 0 0 
0 0 0 0 0 0 0 0 0 
0 0 0 0 0 0 0 0 0 
0 0 0 0 0 0 0 0 0 
0 0 0 0 0 0 0 0 0 
0 0 0 0 0 0 0 0 0 
0 0 0 0 0 0 0 0 0 
0 0 0 0 0 0 0 0 0 
0 0 0 0 0 0 0 0 0 
0 0 0 0 0 0 0 0 0 
0 0 0 0 0 0 0 0 0 
0 0 0 0 0 0 0 0 0 
0 0 0 0 0 0 0 0 0 
0 0 0 0 0 0 0 0 0 
0 0 0 0 0 0 0 0 0 
0 0 0 0 0 0 0 0 0 
0 0 0 0 0 0 0 0 0 
0 0 0 0 0 0 0 0 0 
0 0 0 0 0 0 0 0 0 
0 0 0 0 0 0 0 0 0 
0 0 0 0 0 0 0 0 0 
0 0 0 0 0 0 0 0 0 
0 0 0 0 0 0 0 0 0 
0 0 0 0 0 0 0 0 0 
0 0 0 0 0 0 0 0 0 
0 0 0 0 0 0 0 0 0 
0 0 0 0 0 0 0 0 0 
0 0 0 0 0 0 0 0 0 
0 0 0 0 0 0 0 0 0 
0 0 0 0 0 0 0 0 0 
0 0 0 0 0 0 0 0 0 
0 0 0 0 0 0 0 0 0 
0 0 0 0 0 0 0 0 0 
0 0 0 0 0 0 0 0 0 
0 0 0 0 0 0 0 0 0 
0 0 0 0 0 0 0 0 0 
0 0 0 0 0 0 0 0 0 
0 0 0 0 0 0 0 0 0 
0 0 0 0 0 0 0 0 0 
0 0 0 0 0 0 0 0 0 
0 0 0 0 0 0 0 0 0 
0 0 0 0 0 0 0 0 0 
0 0 0 0 0 0 0 0 0 
0 0 0 0 0 0 0 0 0 
0 0 0 0 0 0 0 0 0 
0 0 0 0 0 0 0 0 0 
0 0 0 0 0 0 0 0 0 
0 0 0 0 0 0 0 0 0 
0 0 0 0 0 0 0 0 0 
0 0 0 0 0 0 0 0 0 
0 0 0 0 0 0 0 0 0 
0 0 0 0 0 0 0 0 0 
0 0 0 0 0 0 0 0 0 
0 0 0 0 0 0 0 0 0 
0 0 0 0 0 0 0 0 0 
0 0 0 0 0 0 0 0 0 
0 0 0 0 0 0 0 0 0 
0 0 0 0 0 0 0 0 0 
0 0 0 0 0 0 0 0 0 
0 0 0 0 0 0 0 0 0 
0 0 0 0 0 0 0 0 0 
0 0 0 0 0 0 0 0 0 
0 0 0 0 0 0 0 0 0 
0 0 0 0 0 0 0 0 0 
0 0 0 0 0 0 0 0 0 
0 0 0 0 0 0 0 0 0 
0 0 0 0 0 0 0 0 0 
0 0 0 0 0 0 0 0 0 
0 0 0 0 0 0 0 0 0 
0 0 0 0 0 0 0 0 0 
0 0 0 0 0 0 0 0 0 
0 0 0 0 0 0 0 0 0 
0 0 0 0 0 0 0 0 0 
0 0 0 0 0 0 0 0 0 
0 0 0 0 0 0 0 0 0 
0 0 0 0 0 0 0 0 0 
0 0 0 0 0 0 0 0 0 
0 0 0 0 0 0 0 0 0 
0 0 0 0 0 0 0 0 0 
0 0 0 0 0 0 0 0 0 
0 0 0 0 0 0 0 0 0 
0 0 0 0 0 0 0 0 0 
0 0 0 0 0 0 0 0 0 
0 0 0 0 0 0 0 0 0 
0 0 0 0 0 0 0 0 0 
0 0 0 0 0 0 0 0 0 
0 0 0 0 0 0 0 0 0 
0 0 0 0 0 0 0 0 0 
0 0 0 0 0 0 0 0 0 
0 0 0 0 0 0 0 0 0 
0 0 0 0 0 0 0 0 0 
0 0 0 0 0 0 0 0 0 
0 0 0 0 0 0 0 0 0 
0 0 0 0 0 0 0 0 0 
0 0 0 0 0 0 0 0 0 
0 0 0 0 0 0 0 0 0 
0 0 0 0 0 0 0 0 0 
0 0 0 0 0 0 0 0 0 
0 0 0 0 0 0 0 0 0 
0 0 0 0 0 0 0 0 0 
0 0 0 0 0 0 0 0 0 
0 0 0 0 0 0 0 0 0 
0 0 0 0 0 0 0 0 0 
0 0 0 0 0 0 0 0 0 
0 0 0 0 0 0 0 0 0 
0 0 0 0 0 0 0 0 0 
0 0 0 0 0 0 0 0 0 
0 0 0 0 0 0 0 0 0 
0 0 0 0 0 0 0 0 0 
0 0 0 0 0 0 0 0 0 
0 0 0 0 0 0 0 0 0 
0 0 0 0 0 0 0 0 0 
0 0 0 0 0 0 0 0 0 
0 0 0 0 0 0 0 0 0 
0 0 0 0 0 0 0 0 0 
0 0 0 0 0 0 0 0 0 
0 0 0 0 0 0 0 0 0 
0 0 0 0 0 0 0 0 0 
0 0 0 0 0 0 0 0 0 
0 0 0 0 0 0 0 0 0 
0 0 0 0 0 0 0 0 0 
0 0 0 0 0 0 0 0 0 
0 0 0 0 0 0 0 0 0 
0 0 0 0 0 0 0 0 0 
0 0 0 0 0 0 0 0 0 
0 0 0 0 0 0 0 0 0 
0 0 0 0 0 0 0 0 0 
0 0 0 0 0 0 0 0 0 
0 0 0 0 0 0 0 0 0 
0 0 0 0 0 0 0 0 0 
0 0 0 0 0 0 0 0 0 
0 0 0 0 0 0 0 0 0 
0 0 0 0 0 0 0 0 0 
0 0 0 0 0 0 0 0 0 
0 0 0 0 0 0 0 0 0 
0 0 0 0 0 0 0 0 0 
0 0 0 0 0 0 0 0 0 
0 0 0 0 0 0 0 0 0 
0 0 0 0 0 0 0 0 0 
0 0 0 0 0 0 0 0 0 
0 0 0 0 0 0 0 0 0 
0 0 0 0 0 0 0 0 0 
0 0 0 0 0 0 0 0 0 
0 0 0 0 0 0 0 0 0 
0 0 0 0 0 0 0 0 0 
0 0 0 0 0 0 0 0 0 
0 0 0 0 0 0 0 0 0 
0 0 0 0 0 0 0 0 0 
0 0 0 0 0 0 0 0 0 
0 0 0 0 0 0 0 0 0 
0 0 0 0 0 0 0 0 0 
0 0 0 0 0 0 0 0 0 
0 0 0 0 0 0 0 0 0 
0 0 0 0 0 0 0 0 0 
0 0 0 0 0 0 0 0 0 
0 0 0 0 0 0 0 0 0 
0 0 0 0 0 0 0 0 0 
0 0 0 0 0 0 0 0 0 
0 0 0 0 0 0 0 0 0 
0 0 0 0 0 0 0 0 0 
0 0 0 0 0 0 0 0 0 
0 0 0 0 0 0 0 0 0 
0 0 0 0 0 0 0 0 0 
0 0 0 0 0 0 0 0 0 
0 0 0 0 0 0 0 0 0 
0 0 0 0 0 0 0 0 0 
0 0 0 0 0 0 0 0 0 
0 0 0 0 0 0 0 0 0 
0 0 0 0 0 0 0 0 0 
0 0 0 0 0 0 0 0 0 
0 0 0 0 0 0 0 0 0 
0 0 0 0 0 0 0 0 0 
0 0 0 0 0 0 0 0 0 
0 0 0 0 0 0 0 0 0 
0 0 0 0 0 0 0 0 0 
0 0 0 0 0 0 0 0 0 
0 0 0 0 0 0 0 0 0 
0 0 0 0 0 0 0 0 0 
0 0 0 0 0 0 0 0 0 
0 0 0 0 0 0 0 0 0 
0 0 0 0 0 0 0 0 0 
0 0 0 0 0 0 0 0 0 
0 0 0 0 0 0 0 0 0 
0 0 0 0 0 0 0 0 0 
0 0 0 0 0 0 0 0 0 
0 0 0 0 0 0 0 0 0 
0 0 0 0 0 0 0 0 0 
0 0 0 0 0 0 0 0 0 
0 0 0 0 0 0 0 0 0 
0 0 0 0 0 0 0 0 0 
0 0 0 0 0 0 0 0 0 
0 0 0 0 0 0 0 0 0 
0 0 0 0 0 0 0 0 0 
0 0 0 0 0 0 0 0 0 
0 0 0 0 0 0 0 0 0 
0 0 0 0 0 0 0 0 0 
0 0 0 0 0 0 0 0 0 
0 0 0 0 0 0 0 0 0 
0 0 0 0 0 0 0 0 0 
0 0 0 0 0 0 0 0 0 
0 0 0 0 0 0 0 0 0 
0 0 0 0 0 0 0 0 0 
0 0 0 0 0 0 0 0 0 
0 0 0 0 0 0 0 0 0 
0 0 0 0 0 0 0 0 0 
0 0 0 0 0 0 0 0 0 
0 0 0 0 0 0 0 0 0 
0 0 0 0 0 0 0 0 0 
0 0 0 0 0 0 0 0 0 
0 0 0 0 0 0 0 0 0 
0 0 0 0 0 0 0 0 0 
0 0 0 0 0 0 0 0 0 
0 0 0 0 0 0 0 0 0 
0 0 0 0 0 0 0 0 0 
0 0 0 0 0 0 0 0 0 
0 0 0 0 0 0 0 0 0 
0 0 0 0 0 0 0 0 0 
0 0 0 0 0 0 0 0 0 
0 0 0 0 0 0 0 0 0 
0 0 0 0 0 0 0 0 0 
0 0 0 0 0 0 0 0 0 
0 0 0 0 0 0 0 0 0 
0 0 0 0 0 0 0 0 0 
0 0 0 0 0 0 0 0 0 
0 0 0 0 0 0 0 0 0 
0 0 0 0 0 0 0 0 0 
0 0 0 0 0 0 0 0 0 
0 0 0 0 0 0 0 0 0 
0 0 0 0 0 0 0 0 0 
0 0 0 0 0 0 0 0 0 
0 0 0 0 0 0 0 0 0 
0 0 0 0 0 0 0 0 0 
0 0 0 0 0 0 0 0 0 
0 0 0 0 0 0 0 0 0 
0 0 0 0 0 0 0 0 0 
0 0 0 0 0 0 0 0 0 
0 0 0 0 0 0 0 0 0 
0 0 0 0 0 0 0 0 0 
0 0 0 0 0 0 0 0 0 
0 0 0 0 0 0 0 0 0 
0 0 0 0 0 0 0 0 0 
0 0 0 0 0 0 0 0 0 
0 0 0 0 0 0 0 0 0 
0 0 0 0 0 0 0 0 0 
0 0 0 0 0 0 0 0 0 
0 0 0 0 0 0 0 0 0 
0 0 0 0 0 0 0 0 0 
0 0 0 0 0 0 0 0 0 
0 0 0 0 0 0 0 0 0 
0 0 0 0 0 0 0 0 0 
0 0 0 0 0 0 0 0 0 
0 0 0 0 0 0 0 0 0 
0 0 0 0 0 0 0 0 0 
0 0 0 0 0 0 0 0 0 
0 0 0 0 0 0 0 0 0 
0 0 0 0 0 0 0 0 0 
0 0 0 0 0 0 0 0 0 
0 0 0 0 0 0 0 0 0 
0 0 0 0 0 0 0 0 0 
0 0 0 0 0 0 0 0 0 
0 0 0 0 0 0 0 0 0 
0 0 0 0 0 0 0 0 0 
0 0 0 0 0 0 0 0 0 
0 0 0 0 0 0 0 0 0 
0 0 0 0 0 0 0 0 0 
0 0 0 0 0 0 0 0 0 
0 0 0 0 0 0 0 0 0 
0 0 0 0 0 0 0 0 0 
0 0 0 0 0 0 0 0 0 
0 0 0 0 0 0 0 0 0 
0 0 0 0 0 0 0 0 0 
0 0 0 0 0 0 0 0 0 
0 0 0 0 0 0 0 0 0 
0 0 0 0 0 0 0 0 0 
0 0 0 0 0 0 0 0 0 
0 0 0 0 0 0 0 0 0 
0 0 0 0 0 0 0 0 0 
0 0 0 0 0 0 0 0 0 
0 0 0 0 0 0 0 0 0 
0 0 0 0 0 0 0 0 0 
0 0 0 0 0 0 0 0 0 
0 0 0 0 0 0 0 0 0 
0 0 0 0 0 0 0 0 0 
0 0 0 0 0 0 0 0 0 
0 0 0 0 0 0 0 0 0 
0 0 0 0 0 0 0 0 0 
0 0 0 0 0 0 0 0 0 
0 0 0 0 0 0 0 0 0 
0 0 0 0 0 0 0 0 0 
0 0 0 0 0 0 0 0 0 
0 0 0 0 0 0 0 0 0 
0 0 0 0 0 0 0 0 0 
0 0 0 0 0 0 0 0 0 
0 0 0 0 0 0 0 0 0 
0 0 0 0 0 0 0 0 0 
0 0 0 0 0 0 0 0 0 
0 0 0 0 0 0 0 0 0 
0 0 0 0 0 0 0 0 0 
0 0 0 0 0 0 0 0 0 
0 0 0 0 0 0 0 0 0 
0 0 0 0 0 0 0 0 0 
0 0 0 0 0 0 0 0 0 
0 0 0 0 0 0 0 0 0 
0 0 0 0 0 0 0 0 0 
0 0 0 0 0 0 0 0 0 
0 0 0 0 0 0 0 0 0 
0 0 0 0 0 0 0 0 0 
0 0 0 0 0 0 0 0 0 
0 0 0 0 0 0 0 0 0 
0 0 0 0 0 0 0 0 0 
0 0 0 0 0 0 0 0 0 
0 0 0 0 0 0 0 0 0 
0 0 0 0 0 0 0 0 0 
0 0 0 0 0 0 0 0 0 
0 0 0 0 0 0 0 0 0 
0 0 0 0 0 0 0 0 0 
0 0 0 0 0 0 0 0 0 
0 0 0 0 0 0 0 0 0 
0 0 0 0 0 0 0 0 0 
0 0 0 0 0 0 0 0 0 
0 0 0 0 0 0 0 0 0 
0 0 0 0 0 0 0 0 0 
0 0 0 0 0 0 0 0 0 
0 0 0 0 0 0 0 0 0 
0 0 0 0 0 0 0 0 0 
0 0 0 0 0 0 0 0 0 
0 0 0 0 0 0 0 0 0 
0 0 0 0 0 0 0 0 0 
0 0 0 0 0 0 0 0 0 
0 0 0 0 0 0 0 0 0 
0 0 0 0 0 0 0 0 0 
0 0 0 0 0 0 0 0 0 
0 0 0 0 0 0 0 0 0 
0 0 0 0 0 0 0 0 0 
0 0 0 0 0 0 0 0 0 
0 0 0 0 0 0 0 0 0 
0 0 0 0 0 0 0 0 0 
0 0 0 0 0 0 
v 3 1355 double
-0.00284492 -0.00255946 0.000811788 -0.000691781 0.000781195 0.000870073 0.000570167 0.000927113 -0.000464533 
0.00197671 0.000755678 0.000480094 0.0012524 0.00141258 0.000798583 0.000984423 0.00516257 0.00134126 
-0.00444364 0.00285564 -0.00126673 -0.0125905 -0.000451224 -0.0109049 -0.012758 0.00658098 -0.0141217 
0.0184494 0.057248 -0.0112859 0.00501977 -0.000883459 -0.00222172 -0.00174064 -0.000597346 -0.000683821 
-0.00277688 0.00218436 0.000747967 -0.00153924 0.00230259 -9.95193e-05 -0.000494697 -0.0011302 -0.00209042 
0.000187618 0.00046958 -0.00229341 0.00081061 -0.000465487 -0.000681669 -0.00217522 0.000574348 0.000808334 
-0.00152677 -0.000407668 0.000236259 -0.000882403 -0.0001023 0.000591508 -0.000317599 -7.74822e-05 0.000330796 
-0.0022456 -0.000107557 -6.41397e-05 -0.00287906 -0.00150793 0.000445292 -0.00749399 -0.00762312 -0.00160844 
-0.0142491 0.00551014 0.00109601 0.00256025 0.000184434 -0.000294806 0.00327994 0.00242762 0.000812108 
0.00677621 -0.00407594 0.00334675 0.00487223 0.00754106 0.00285479 0.0044754 0.00162717 -0.00834075 
0.00122876 0.00981105 -0.00756137 -0.00192743 0.0181892 -0.00145322 -0.0034921 0.0124824 0.00196127 
-0.00436618 0.000129744 -0.00144498 -0.00131914 0.00683863 -0.000276924 -0.00172882 0.00426668 0.000402171 
0.000240163 -0.00178746 -0.00229551 -0.0142102 0.0138564 0.00032796 -0.0027011 0.000647816 -0.000325022 
-0.00233696 0.0002157 0.000986975 -0.00203128 -0.000156665 0.000941067 -0.00120645 -0.000172573 0.000493491 
-0.00070877 0.000158003 -0.000207592 -2.3532e-05 -0.00283935 0.000383649 -0.0136957 -0.00124636 -0.00012271 
-0.0185053 -0.00426884 -5.45378e-05 -0.0115177 -0.00101003 0.000514972 -0.0272925 -0.0169456 -0.000956049 
0.0013055 -0.000488841 -0.00426304 0.00495387 -0.00143211 0.00218786 0.00375874 0.00842367 -0.0011092 
0.00631746 0.00195541 0.00168911 0.00558454 0.00786793 -0.00884949 -0.00279235 0.0183456 0.00777679 
0.00631967 0.0128601 0.00552932 0.0216481 0.0869879 0.00247306 -0.0308248 0.0276989 -0.017727 
-0.0151459 0.00630017 0.00094083 -0.00968888 -0.00731433 -0.00209986 -0.00155445 -0.00539603 -0.00121605 
-0.0062327 0.0449059 0.000368465 -0.00527732 0.0016207 -0.00090434 -0.00315735 0.000281401 -0.000154976 
-0.00216087 0.000404456 0.000911872 -0.00125341 -0.000703409 0.000385787 0.000350863 -0.0011219 -0.000325093 
-4.12531e-05 -0.0034644 0.000301757 0.000177352 0.000469704 -0.000177405 -0.017269 -0.00461348 -0.000750179 
-0.0171465 -0.0111322 -0.000199454 -0.0239113 -0.0258395 -0.000451812 0.00514882 -0.0059765 -0.00422373 
0.00906652 -0.00528833 -0.0026039 0.0114097 0.0056811 -0.0048486 -0.0196053 0.0664652 -0.0266145 