# vtk DataFile Version 4.0
Generated by LIGGGHTS
ASCII
DATASET POLYDATA
POINTS 767 float
-0.678491 -0.402522 -0.457401 0.331037 -0.402511 -0.460938 -0.896361 -0.328623 -0.448765 
-0.525648 -0.370465 -0.461896 -0.431443 -0.384103 -0.455864 -0.315567 -0.360858 -0.459337 
-0.235342 -0.369754 -0.438234 -0.149732 -0.309934 -0.452781 -0.0387819 -0.390948 -0.460016 
0.068979 -0.349105 -0.452514 0.158892 -0.38513 -0.457603 0.230403 -0.346033 -0.445283 
0.443719 -0.367243 -0.45998 0.525874 -0.363514 -0.446409 0.62454 -0.338003 -0.455617 
0.704809 -0.367718 -0.46067 0.800066 -0.370822 -0.457364 0.882651 -0.365132 -0.453033 
-0.751788 -0.297554 -0.459249 -0.64483 -0.286752 -0.449912 -0.573442 -0.253561 -0.462732 
-0.488849 -0.255575 -0.464053 -0.398767 -0.239789 -0.459065 -0.298177 -0.246359 -0.454279 
-0.227655 -0.285829 -0.457104 -0.0578767 -0.277433 -0.462793 0.0573524 -0.267435 -0.462118 
0.15945 -0.287668 -0.445175 0.408515 -0.274713 -0.458753 0.503684 -0.28105 -0.459258 
0.588515 -0.244922 -0.463248 0.756948 -0.26339 -0.45136 0.845243 -0.29222 -0.458385 
-0.79561 -0.220825 -0.462247 -0.673323 -0.212766 -0.442018 -0.113673 -0.205403 -0.451388 
-0.0386515 -0.189342 -0.457604 0.113748 -0.200934 -0.461145 0.191454 -0.207804 -0.46123 
0.313692 -0.222987 -0.453299 0.66719 -0.223118 -0.462689 0.752198 -0.177099 -0.4592 
-0.91168 -0.156195 -0.462258 -0.686257 -0.13513 -0.452198 -0.561264 -0.164283 -0.459678 
-0.494688 -0.112135 -0.461863 -0.424424 -0.151732 -0.459558 -0.289137 -0.143772 -0.461046 
-0.068101 -0.110279 -0.453382 0.0568255 -0.153034 -0.46146 0.166972 -0.130311 -0.440466 
0.260543 -0.157269 -0.465319 0.341736 -0.129241 -0.457422 0.456969 -0.148502 -0.460413 
0.577856 -0.153772 -0.450915 0.905209 -0.130627 -0.460186 -0.755889 -0.0828364 -0.45973 
-0.606302 -0.0939373 -0.461727 -0.382606 -0.085235 -0.46425 -0.271752 -0.0590634 -0.458248 
-0.191887 -0.0678312 -0.460435 -0.0344923 -0.031619 -0.463908 0.0330236 -0.0729333 -0.45893 
0.110993 -0.0738442 -0.461197 0.198776 -0.0562577 -0.46188 0.393286 -0.0647085 -0.459165 
0.487986 -0.0479232 -0.462517 0.567095 -0.0734365 -0.454877 0.65743 -0.0886182 -0.461922 
0.726379 -0.0345163 -0.46091 0.793667 -0.0887618 -0.457573 0.889312 -0.049538 -0.447749 
-0.818312 -0.0103794 -0.461181 -0.731451 -0.00904949 -0.456538 -0.655711 -0.032915 -0.456227 
-0.584267 -0.00796905 -0.427027 -0.50228 -0.0175246 -0.463988 -0.418277 0.00700478 -0.456743 
-0.337664 0.0136079 -0.450702 -0.248372 0.0150745 -0.461727 -0.118239 -0.0363865 -0.4608 
0.112895 0.00592706 -0.45757 0.195862 0.0248581 -0.45854 0.271154 -0.0212688 -0.462034 
0.349053 0.0254821 -0.459961 0.658724 0.00720587 -0.459249 -0.837801 0.0753064 -0.460119 
-0.699298 0.0777777 -0.457226 -0.614525 0.0779296 -0.457397 -0.376097 0.0907825 -0.455711 
-0.178208 0.0763803 -0.459513 -0.0816225 0.0403333 -0.453188 -0.00320242 0.0579869 -0.454479 
0.259606 0.0997224 -0.45361 0.455738 0.0641806 -0.460141 0.574205 0.0927935 -0.45682 
0.744163 0.052434 -0.458113 0.899802 0.0367555 -0.456176 -0.855562 0.158803 -0.455994 
-0.744075 0.148586 -0.447713 -0.517393 0.116505 -0.457086 -0.229275 0.144191 -0.458805 
-0.0581387 0.123858 -0.460712 0.101312 0.13244 -0.463408 0.181641 0.108008 -0.458456 
0.306359 0.162761 -0.461681 0.371332 0.107464 -0.452278 0.508195 0.138658 -0.456144 
0.619605 0.157833 -0.462564 0.732264 0.13069 -0.462077 0.876546 0.164702 -0.454409 
-0.662709 0.184908 -0.459594 -0.555057 0.213358 -0.459002 -0.468373 0.199804 -0.454936 
-0.388213 0.208831 -0.460002 -0.312343 0.162353 -0.456995 -0.111133 0.183933 -0.453576 
0.0412637 0.207981 -0.461147 0.118524 0.208506 -0.45531 0.229268 0.177165 -0.463091 
0.407734 0.199479 -0.455585 0.554261 0.205833 -0.449494 0.696994 0.210497 -0.457196 
-0.805037 0.238585 -0.454187 -0.686101 0.27149 -0.455951 -0.602296 0.287694 -0.457932 
-0.433943 0.279101 -0.458769 -0.253778 0.23691 -0.462938 -0.104319 0.310016 -0.457244 
-0.0462858 0.252061 -0.459932 0.0680484 0.283581 -0.461636 0.249429 0.256962 -0.464434 
0.326173 0.239104 -0.460342 0.403862 0.296893 -0.460318 0.545299 0.301371 -0.452375 
0.623183 0.241567 -0.451887 0.774087 0.257884 -0.463819 -0.851547 0.307251 -0.433953 
-0.772424 0.320675 -0.462318 -0.568711 0.377105 -0.460326 -0.50877 0.323191 -0.458959 
-0.354632 0.301291 -0.453497 -0.278286 0.329211 -0.456337 -0.195279 0.374239 -0.460711 
0.0101021 0.378235 -0.463462 0.253455 0.347374 -0.449312 0.321702 0.319611 -0.46128 
0.392673 0.384829 -0.460809 0.620592 0.343188 -0.457849 0.70301 0.357998 -0.458761 
0.837385 0.348601 -0.46037 -0.416631 0.392871 -0.459004 0.548287 0.385171 -0.460009 
0.281012 -0.392475 -0.396288 -0.848529 -0.361729 -0.395466 -0.745509 -0.337105 -0.392583 
-0.572793 -0.341909 -0.406178 -0.46056 -0.316761 -0.407483 -0.389815 -0.360793 -0.3927 
-0.225984 -0.314727 -0.378645 -0.160003 -0.392927 -0.405179 -0.0889744 -0.341541 -0.414488 
0.00330787 -0.319945 -0.422022 0.130776 -0.389944 -0.382527 0.466992 -0.309311 -0.390733 
0.55591 -0.363847 -0.374421 0.76895 -0.317677 -0.368292 -0.793576 -0.272663 -0.398362 
-0.682171 -0.270692 -0.379964 -0.382209 -0.27859 -0.387278 -0.0685562 -0.234113 -0.396152 
0.0691307 -0.285537 -0.386442 0.250189 -0.275254 -0.424218 0.324068 -0.312957 -0.4279 
0.542566 -0.237059 -0.399411 0.616294 -0.279476 -0.401248 0.884673 -0.279887 -0.37812 
-0.853674 -0.218211 -0.410972 -0.551822 -0.205642 -0.395904 -0.472462 -0.184687 -0.401788 
-0.356535 -0.173016 -0.422375 -0.215928 -0.193203 -0.449355 0.0624624 -0.208427 -0.404711 
0.161957 -0.217743 -0.390935 0.23185 -0.181557 -0.396007 0.335836 -0.182802 -0.389587 
0.394222 -0.233227 -0.362479 0.456994 -0.217447 -0.424023 0.71615 -0.205836 -0.39299 
0.866881 -0.214288 -0.418943 -0.760638 -0.162247 -0.436924 -0.603476 -0.132346 -0.383985 
-0.2389 -0.113087 -0.408013 -0.140622 -0.128295 -0.436134 -0.00250289 -0.127197 -0.414252 
0.0930861 -0.127628 -0.392419 0.407896 -0.119409 -0.408311 0.512284 -0.122936 -0.39583 
0.660349 -0.152342 -0.412569 0.731127 -0.122 -0.407638 0.808727 -0.148457 -0.394102 
-0.865466 -0.0811612 -0.439526 -0.771461 -0.042392 -0.398263 -0.674753 -0.0819016 -0.394488 
-0.532028 -0.0610347 -0.401607 -0.44998 -0.0631495 -0.422813 -0.32832 -0.0876231 -0.407954 
-0.184112 -0.0619541 -0.379466 0.154391 -0.0351469 -0.400705 0.275092 -0.090803 -0.423797 
0.497686 -0.0365904 -0.386135 0.769964 -0.0304468 -0.391675 -0.862796 0.0225154 -0.405176 
-0.282681 0.00364424 -0.391769 -0.150697 0.0128891 -0.408672 0.0412998 0.00541422 -0.415013 
0.334797 -0.0379042 -0.412032 0.416135 0.00554149 -0.422049 0.572797 0.00594824 -0.452604 
0.62783 -0.0389267 -0.405235 0.820665 -0.00716337 -0.462926 -0.77938 0.0550782 -0.412426 
-0.605947 0.061616 -0.379864 -0.514161 0.0283001 -0.403834 -0.451227 0.0772064 -0.434115 
-0.299019 0.0855782 -0.445919 -0.233783 0.0744103 -0.40288 -0.116884 0.0954926 -0.407237 
-0.0179175 0.0400626 -0.380111 0.0608719 0.0882833 -0.396182 0.14834 0.063677 -0.399197 
0.282534 0.0380066 -0.409191 0.450372 0.0644242 -0.384461 0.520922 0.0601999 -0.413069 
0.660738 0.0892224 -0.446774 0.616795 0.0652207 -0.380804 -0.776463 0.155612 -0.381768 
-0.663386 0.121843 -0.395336 -0.514958 0.169997 -0.399177 -0.413073 0.143499 -0.411169 
-0.0685548 0.151541 -0.387568 0.0193391 0.134166 -0.45362 0.177844 0.134288 -0.384898 
0.254312 0.153855 -0.390341 0.360447 0.17003 -0.400211 0.437436 0.135647 -0.420219 
0.577236 0.145889 -0.398268 0.699508 0.131265 -0.3767 0.847056 0.0936328 -0.41957 
-0.834728 0.221839 -0.383755 -0.74032 0.220118 -0.408784 -0.673586 0.196009 -0.372541 
-0.598209 0.168313 -0.411753 -0.368401 0.213498 -0.384854 -0.285135 0.218494 -0.394827 
-0.182663 0.212513 -0.431922 -0.0268242 0.214993 -0.391179 0.0889047 0.164898 -0.388625 
0.192241 0.212833 -0.405944 0.298361 0.224091 -0.386239 0.483187 0.230726 -0.465497 
0.650411 0.19845 -0.392158 0.743837 0.23562 -0.394203 0.788954 0.183764 -0.441858 
0.904234 0.225474 -0.412222 -0.620395 0.250362 -0.395058 -0.471479 0.25275 -0.394092 
-0.246271 0.287111 -0.393545 -0.0987598 0.248049 -0.394851 0.0635285 0.261542 -0.386913 
0.157951 0.281536 -0.460914 0.254102 0.299638 -0.379167 0.40526 0.247054 -0.399748 
0.484754 0.287807 -0.396588 0.673687 0.286801 -0.417043 0.801094 0.292262 -0.396453 
-0.790241 0.35505 -0.393337 -0.714543 0.325514 -0.402471 -0.651944 0.389933 -0.450799 
-0.551761 0.309702 -0.392257 -0.434263 0.336211 -0.404863 -0.334428 0.379483 -0.411916 
-0.23361 0.381237 -0.393493 -0.170388 0.300026 -0.413076 -0.0620563 0.363283 -0.402721 
0.125917 0.335483 -0.386558 0.220929 0.378839 -0.380734 0.293981 0.403709 -0.405763 
0.477857 0.364477 -0.419811 0.578341 0.385342 -0.385682 0.917232 0.352984 -0.428286 
0.0915249 0.393204 -0.445161 0.760839 0.405357 -0.39702 -0.808574 -0.38308 -0.313438 
-0.665242 -0.35606 -0.390035 -0.529596 -0.382746 -0.353039 -0.312403 -0.353936 -0.375987 
0.0126982 -0.365939 -0.339563 0.203761 -0.348046 -0.363119 0.311007 -0.329179 -0.338584 
0.390691 -0.335986 -0.393096 0.68602 -0.345352 -0.387616 0.83548 -0.36143 -0.357744 
-0.858887 -0.281307 -0.331235 -0.552637 -0.27073 -0.355878 -0.448202 -0.26317 -0.337577 
-0.308128 -0.228743 -0.363211 -0.210791 -0.263031 -0.321013 -0.13574 -0.280465 -0.364603 
-0.0302901 -0.291673 -0.334158 0.135257 -0.278623 -0.338199 0.216522 -0.251209 -0.341892 
0.304218 -0.254395 -0.369209 0.534329 -0.288964 -0.337468 0.622489 -0.24946 -0.325597 
0.698145 -0.272841 -0.355606 -0.739266 -0.213377 -0.382943 -0.640147 -0.211766 -0.348773 
-0.505533 -0.204421 -0.329224 -0.237931 -0.191732 -0.359979 -0.139695 -0.186664 -0.379362 
-0.00194922 -0.212546 -0.358563 0.10724 -0.19027 -0.341411 0.486457 -0.214092 -0.340079 
0.797919 -0.232848 -0.385289 0.849749 -0.213181 -0.326582 -0.832327 -0.141205 -0.388315 
-0.739907 -0.0987401 -0.352528 -0.461333 -0.118418 -0.360192 -0.299776 -0.133395 -0.344988 
-0.188022 -0.132788 -0.340416 -0.0661101 -0.162986 -0.349728 0.0299027 -0.137625 -0.347682 
0.1701 -0.111438 -0.365714 0.333334 -0.110633 -0.347553 0.454505 -0.1404 -0.34925 
[...]
POINT_DATA 767
FIELD FieldData 7
id 1 767 int
408 530 692 662 206 208 563 371 523 
145 585 151 365 186 620 156 70 513 
559 759 714 493 250 542 723 234 498 
708 529 470 444 684 664 196 105 95 
589 54 280 576 367 446 767 641 373 
185 96 99 40 722 200 431 31 298 
109 680 267 254 361 412 14 437 312 
569 153 170 704 126 140 700 48 726 
310 531 428 182 592 758 433 92 689 
495 304 397 612 177 71 351 51 528 
129 507 423 224 384 671 460 502 637 
596 85 717 602 247 161 125 191 199 
586 278 441 149 535 387 269 627 218 
748 420 613 16 402 640 9 698 188 
622 355 411 42 416 391 527 582 53 
421 319 262 73 599 89 4 519 667 
669 94 39 230 673 427 614 763 306 
587 329 366 322 120 453 197 419 512 
347 38 338 658 320 632 72 581 87 
604 214 20 623 195 643 534 175 375 
62 245 76 642 219 556 601 75 184 
155 171 558 458 575 57 88 281 202 
683 300 647 521 445 83 447 331 407 
566 112 543 540 378 459 183 690 359 
339 720 321 45 240 127 21 544 293 
323 121 104 236 742 474 439 381 639 
166 461 135 258 463 697 84 348 288 
167 762 578 294 74 383 55 299 475 
19 22 432 130 133 49 469 663 346 
682 464 715 649 747 261 260 8 480 
227 43 557 132 729 242 363 766 201 
417 670 228 553 318 472 311 646 654 
727 377 728 660 316 545 584 389 440 
551 607 285 256 337 163 5 370 116 
272 514 59 679 435 457 305 291 325 
678 314 136 287 442 376 343 645 114 
476 118 159 653 324 533 462 80 313 
239 483 334 110 570 335 651 597 492 
718 248 33 572 676 615 24 106 6 
192 137 382 252 154 497 102 539 216 
733 97 194 142 101 549 369 738 111 
32 638 231 537 277 162 146 350 25 
675 215 665 634 503 139 508 400 67 
128 340 496 251 35 122 571 650 687 
405 448 618 63 709 303 68 547 499 
494 385 388 467 226 244 481 526 3 
764 217 573 336 12 354 158 131 452 
90 686 211 516 396 181 225 761 205 
721 221 426 302 473 108 438 724 567 
82 636 100 736 207 511 58 317 157 
289 275 36 491 565 554 593 81 286 
616 364 189 394 169 655 621 422 326 
633 143 746 332 345 568 478 60 434 
44 695 737 479 629 711 401 710 2 
107 180 482 590 436 450 253 148 580 
443 28 77 626 13 193 606 266 505 
703 393 284 61 681 546 123 409 138 
750 283 113 608 274 264 600 418 292 
229 98 617 672 755 579 583 390 69 
179 7 273 725 743 518 223 666 66 
268 78 56 751 712 233 173 18 552 
307 550 532 744 241 702 290 410 668 
265 749 356 699 187 577 29 757 11 
399 46 341 501 204 536 79 282 301 
380 395 165 86 630 327 524 429 134 
656 93 352 172 415 271 719 477 220 
716 330 752 522 591 342 706 41 10 
392 209 574 403 506 713 296 564 1 
525 37 297 760 17 257 404 178 26 
117 222 635 661 353 756 246 488 259 
701 119 238 624 249 455 561 270 468 
628 510 735 386 739 611 276 685 47 
500 741 414 745 693 754 504 362 103 
466 652 413 465 603 372 255 15 360 
295 235 696 176 619 490 688 691 144 
454 631 644 732 707 357 765 279 509 
124 734 424 487 541 406 50 379 141 
489 30 674 471 27 694 358 730 731 
309 605 548 677 349 52 486 160 164 
484 150 34 198 657 374 203 147 425 
598 515 232 520 65 560 243 23 538 
555 333 91 308 328 115 659 344 263 
398 648 190 610 595 625 588 430 237 
562 168 451 174 609 212 456 740 213 
368 64 705 449 152 753 594 315 517 
485 210 
type 1 767 int
1 1 1 1 1 1 1 1 1 
1 1 1 1 1 1 1 1 1 
1 1 1 1 1 1 1 1 1 
1 1 1 1 1 1 1 1 1 
1 1 1 1 1 1 1 1 1 
1 1 1 1 1 1 1 1 1 
1 1 1 1 1 1 1 1 1 
1 1 1 1 1 1 1 1 1 
1 1 1 1 1 1 1 1 1 
1 1 1 1 1 1 1 1 1 
1 1 1 1 1 1 1 1 1 
1 1 1 1 1 1 1 1 1 
1 1 1 1 1 1 1 1 1 
1 1 1 1 1 1 1 1 1 
1 1 1 1 1 1 1 1 1 
1 1 1 1 1 1 1 1 1 
1 1 1 1 1 1 1 1 1 
1 1 1 1 1 1 1 1 1 
1 1 1 1 1 1 1 1 1 
1 1 1 1 1 1 1 1 1 
1 1 1 1 1 1 1 1 1 
1 1 1 1 1 1 1 1 1 
1 1 1 1 1 1 1 1 1 
1 1 1 1 1 1 1 1 1 
1 1 1 1 1 1 1 1 1 
1 1 1 1 1 1 1 1 1 
1 1 1 1 1 1 1 1 1 
1 1 1 1 1 1 1 1 1 
1 1 1 1 1 1 1 1 1 
1 1 1 1 1 1 1 1 1 
1 1 1 1 1 1 1 1 1 
1 1 1 1 1 1 1 1 1 
1 1 1 1 1 1 1 1 1 
1 1 1 1 1 1 1 1 1 
1 1 1 1 1 1 1 1 1 
1 1 1 1 1 1 1 1 1 
1 1 1 1 1 1 1 1 1 
1 1 1 1 1 1 1 1 1 
1 1 1 1 1 1 1 1 1 
1 1 1 1 1 1 1 1 1 
1 1 1 1 1 1 1 1 1 
1 1 1 1 1 1 1 1 1 
1 1 1 1 1 1 1 1 1 
1 1 1 1 1 1 1 1 1 
1 1 1 1 1 1 1 1 1 
1 1 1 1 1 1 1 1 1 
1 1 1 1 1 1 1 1 1 
1 1 1 1 1 1 1 1 1 
1 1 1 1 1 1 1 1 1 
1 1 1 1 1 1 1 1 1 
1 1 1 1 1 1 1 1 1 
1 1 1 1 1 1 1 1 1 
1 1 1 1 1 1 1 1 1 
1 1 1 1 1 1 1 1 1 
1 1 1 1 1 1 1 1 1 
1 1 1 1 1 1 1 1 1 
1 1 1 1 1 1 1 1 1 
1 1 1 1 1 1 1 1 1 
1 1 1 1 1 1 1 1 1 
1 1 1 1 1 1 1 1 1 
1 1 1 1 1 1 1 1 1 
1 1 1 1 1 1 1 1 1 
1 1 1 1 1 1 1 1 1 
1 1 1 1 1 1 1 1 1 
1 1 1 1 1 1 1 1 1 
1 1 1 1 1 1 1 1 1 
1 1 1 1 1 1 1 1 1 
1 1 1 1 1 1 1 1 1 
1 1 1 1 1 1 1 1 1 
1 1 1 1 1 1 1 1 1 
1 1 1 1 1 1 1 1 1 
1 1 1 1 1 1 1 1 1 
1 1 1 1 1 1 1 1 1 
1 1 1 1 1 1 1 1 1 
1 1 1 1 1 1 1 1 1 
1 1 1 1 1 1 1 1 1 
1 1 1 1 1 1 1 1 1 
1 1 1 1 1 1 1 1 1 
1 1 1 1 1 1 1 1 1 
1 1 1 1 1 1 1 1 1 
1 1 1 1 1 1 1 1 1 
1 1 1 1 1 1 1 1 1 
1 1 1 1 1 1 1 1 1 
1 1 1 1 1 1 1 1 1 
1 1 1 1 1 1 1 1 1 
1 1 
i 3 767 int
0 0 0 0 0 0 0 0 0 
0 0 0 0 0 0 0 0 0 
0 0 0 0 0 0 0 0 0 
0 0 0 0 0 0 0 0 0 
0 0 0 0 0 0 0 0 0 
0 0 0 0 0 0 0 0 0 
0 0 0 0 0 0 0 0 0 
0 0 0 0 0 0 0 0 0 
0 0 0 0 0 0 0 0 0 
0 0 0 0 0 0 0 0 0 
0 0 0 0 0 0 0 0 0 
0 0 0 0 0 0 0 0 0 
0 0 0 0 0 0 0 0 0 
0 0 0 0 0 0 0 0 0 
0 0 0 0 0 0 0 0 0 
0 0 0 0 0 0 0 0 0 
0 0 0 0 0 0 0 0 0 
0 0 0 0 0 0 0 0 0 
0 0 0 0 0 0 0 0 0 
0 0 0 0 0 0 0 0 0 
0 0 0 0 0 0 0 0 0 
0 0 0 0 0 0 0 0 0 
0 0 0 0 0 0 0 0 0 
0 0 0 0 0 0 0 0 0 
0 0 0 0 0 0 0 0 0 
0 0 0 0 0 0 0 0 0 
0 0 0 0 0 0 0 0 0 
0 0 0 0 0 0 0 0 0 
0 0 0 0 0 0 0 0 0 
0 0 0 0 0 0 0 0 0 
0 0 0 0 0 0 0 0 0 
0 0 0 0 0 0 0 0 0 
0 0 0 0 0 0 0 0 0 
0 0 0 0 0 0 0 0 0 
0 0 0 0 0 0 0 0 0 
0 0 0 0 0 0 0 0 0 
0 0 0 0 0 0 0 0 0 
0 0 0 0 0 0 0 0 0 
0 0 0 0 0 0 0 0 0 
0 0 0 0 0 0 0 0 0 
0 0 0 0 0 0 0 0 0 
0 0 0 0 0 0 0 0 0 
0 0 0 0 0 0 0 0 0 
0 0 0 0 0 0 0 0 0 
0 0 0 0 0 0 0 0 0 
0 0 0 0 0 0 0 0 0 
0 0 0 0 0 0 0 0 0 
0 0 0 0 0 0 0 0 0 
0 0 0 0 0 0 0 0 0 
0 0 0 0 0 0 0 0 0 
0 0 0 0 0 0 0 0 0 
0 0 0 0 0 0 0 0 0 
0 0 0 0 0 0 0 0 0 
0 0 0 0 0 0 0 0 0 
0 0 0 0 0 0 0 0 0 
0 0 0 0 0 0 0 0 0 
0 0 0 0 0 0 0 0 0 
0 0 0 0 0 0 0 0 0 
0 0 0 0 0 0 0 0 0 
0 0 0 0 0 0 0 0 0 
0 0 0 0 0 0 0 0 0 
0 0 0 0 0 0 0 0 0 
0 0 0 0 0 0 0 0 0 
0 0 0 0 0 0 0 0 0 
0 0 0 0 0 0 0 0 0 
0 0 0 0 0 0 0 0 0 
0 0 0 0 0 0 0 0 0 
0 0 0 0 0 0 0 0 0 
0 0 0 0 0 0 0 0 0 
0 0 0 0 0 0 0 0 0 
0 0 0 0 0 0 0 0 0 
0 0 0 0 0 0 0 0 0 
0 0 0 0 0 0 0 0 0 
0 0 0 0 0 0 0 0 0 
0 0 0 0 0 0 0 0 0 
0 0 0 0 0 0 0 0 0 
0 0 0 0 0 0 0 0 0 
0 0 0 0 0 0 0 0 0 
0 0 0 0 0 0 0 0 0 
0 0 0 0 0 0 0 0 0 
0 0 0 0 0 0 0 0 0 
0 0 0 0 0 0 0 0 0 
0 0 0 0 0 0 0 0 0 
0 0 0 0 0 0 0 0 0 
0 0 0 0 0 0 0 0 0 
0 0 0 0 0 0 0 0 0 
0 0 0 0 0 0 0 0 0 
0 0 0 0 0 0 0 0 0 
0 0 0 0 0 0 0 0 0 
0 0 0 0 0 0 0 0 0 
0 0 0 0 0 0 0 0 0 
0 0 0 0 0 0 0 0 0 
0 0 0 0 0 0 0 0 0 
0 0 0 0 0 0 0 0 0 
0 0 0 0 0 0 0 0 0 
0 0 0 0 0 0 0 0 0 
0 0 0 0 0 0 0 0 0 
0 0 0 0 0 0 0 0 0 
0 0 0 0 0 0 0 0 0 
0 0 0 0 0 0 0 0 0 
0 0 0 0 0 0 0 0 0 
0 0 0 0 0 0 0 0 0 
0 0 0 0 0 0 0 0 0 
0 0 0 0 0 0 0 0 0 
0 0 0 0 0 0 0 0 0 
0 0 0 0 0 0 0 0 0 
0 0 0 0 0 0 0 0 0 
0 0 0 0 0 0 0 0 0 
0 0 0 0 0 0 0 0 0 
0 0 0 0 0 0 0 0 0 
0 0 0 0 0 0 0 0 0 
0 0 0 0 0 0 0 0 0 
0 0 0 0 0 0 0 0 0 
0 0 0 0 0 0 0 0 0 
0 0 0 0 0 0 0 0 0 
0 0 0 0 0 0 0 0 0 
0 0 0 0 0 0 0 0 0 
0 0 0 0 0 0 0 0 0 
0 0 0 0 0 0 0 0 0 
0 0 0 0 0 0 0 0 0 
0 0 0 0 0 0 0 0 0 
0 0 0 0 0 0 0 0 0 
0 0 0 0 0 0 0 0 0 
0 0 0 0 0 0 0 0 0 
0 0 0 0 0 0 0 0 0 
0 0 0 0 0 0 0 0 0 
0 0 0 0 0 0 0 0 0 
0 0 0 0 0 0 0 0 0 
0 0 0 0 0 0 0 0 0 
0 0 0 0 0 0 0 0 0 
0 0 0 0 0 0 0 0 0 
0 0 0 0 0 0 0 0 0 
0 0 0 0 0 0 0 0 0 
0 0 0 0 0 0 0 0 0 
0 0 0 0 0 0 0 0 0 
0 0 0 0 0 0 0 0 0 
0 0 0 0 0 0 0 0 0 
0 0 0 0 0 0 0 0 0 
0 0 0 0 0 0 0 0 0 
0 0 0 0 0 0 0 0 0 
0 0 0 0 0 0 0 0 0 
0 0 0 0 0 0 0 0 0 
0 0 0 0 0 0 0 0 0 
0 0 0 0 0 0 0 0 0 
0 0 0 0 0 0 0 0 0 
0 0 0 0 0 0 0 0 0 
0 0 0 0 0 0 0 0 0 
0 0 0 0 0 0 0 0 0 
0 0 0 0 0 0 0 0 0 
0 0 0 0 0 0 0 0 0 
0 0 0 0 0 0 0 0 0 
0 0 0 0 0 0 0 0 0 
0 0 0 0 0 0 0 0 0 
0 0 0 0 0 0 0 0 0 
0 0 0 0 0 0 0 0 0 
0 0 0 0 0 0 0 0 0 
0 0 0 0 0 0 0 0 0 
0 0 0 0 0 0 0 0 0 
0 0 0 0 0 0 0 0 0 
0 0 0 0 0 0 0 0 0 
0 0 0 0 0 0 0 0 0 
0 0 0 0 0 0 0 0 0 
0 0 0 0 0 0 0 0 0 
0 0 0 0 0 0 0 0 0 
0 0 0 0 0 0 0 0 0 
0 0 0 0 0 0 0 0 0 
0 0 0 0 0 0 0 0 0 
0 0 0 0 0 0 0 0 0 
0 0 0 0 0 0 0 0 0 
0 0 0 0 0 0 0 0 0 
0 0 0 0 0 0 0 0 0 
0 0 0 0 0 0 0 0 0 
0 0 0 0 0 0 0 0 0 
0 0 0 0 0 0 0 0 0 
0 0 0 0 0 0 0 0 0 
0 0 0 0 0 0 0 0 0 
0 0 0 0 0 0 0 0 0 
0 0 0 0 0 0 0 0 0 
0 0 0 0 0 0 0 0 0 
0 0 0 0 0 0 0 0 0 
0 0 0 0 0 0 0 0 0 
0 0 0 0 0 0 0 0 0 
0 0 0 0 0 0 0 0 0 
0 0 0 0 0 0 0 0 0 
0 0 0 0 0 0 0 0 0 
0 0 0 0 0 0 0 0 0 
0 0 0 0 0 0 0 0 0 
0 0 0 0 0 0 0 0 0 
0 0 0 0 0 0 0 0 0 
0 0 0 0 0 0 0 0 0 
0 0 0 0 0 0 0 0 0 
0 0 0 0 0 0 0 0 0 
0 0 0 0 0 0 0 0 0 
0 0 0 0 0 0 0 0 0 
0 0 0 0 0 0 0 0 0 
0 0 0 0 0 0 0 0 0 
0 0 0 0 0 0 0 0 0 
0 0 0 0 0 0 0 0 0 
0 0 0 0 0 0 0 0 0 
0 0 0 0 0 0 0 0 0 
0 0 0 0 0 0 0 0 0 
0 0 0 0 0 0 0 0 0 
0 0 0 0 0 0 0 0 0 
0 0 0 0 0 0 0 0 0 
0 0 0 0 0 0 0 0 0 
0 0 0 0 0 0 0 0 0 
0 0 0 0 0 0 0 0 0 
0 0 0 0 0 0 0 0 0 
0 0 0 0 0 0 0 0 0 
0 0 0 0 0 0 0 0 0 
0 0 0 0 0 0 0 0 0 
0 0 0 0 0 0 0 0 0 
0 0 0 0 0 0 0 0 0 
0 0 0 0 0 0 0 0 0 
0 0 0 0 0 0 0 0 0 
0 0 0 0 0 0 0 0 0 
0 0 0 0 0 0 0 0 0 
0 0 0 0 0 0 0 0 0 
0 0 0 0 0 0 0 0 0 
0 0 0 0 0 0 0 0 0 
0 0 0 0 0 0 0 0 0 
0 0 0 0 0 0 0 0 0 
0 0 0 0 0 0 0 0 0 
0 0 0 0 0 0 0 0 0 
0 0 0 0 0 0 0 0 0 
0 0 0 0 0 0 0 0 0 
0 0 0 0 0 0 0 0 0 
0 0 0 0 0 0 0 0 0 
0 0 0 0 0 0 0 0 0 
0 0 0 0 0 0 0 0 0 
0 0 0 0 0 0 0 0 0 
0 0 0 0 0 0 0 0 0 
0 0 0 0 0 0 0 0 0 
0 0 0 0 0 0 0 0 0 
0 0 0 0 0 0 0 0 0 
0 0 0 0 0 0 0 0 0 
0 0 0 0 0 0 0 0 0 
0 0 0 0 0 0 0 0 0 
0 0 0 0 0 0 0 0 0 
0 0 0 0 0 0 0 0 0 
0 0 0 0 0 0 0 0 0 
0 0 0 0 0 0 0 0 0 
0 0 0 0 0 0 0 0 0 
0 0 0 0 0 0 0 0 0 
0 0 0 0 0 0 0 0 0 
0 0 0 0 0 0 0 0 0 
0 0 0 0 0 0 0 0 0 
0 0 0 0 0 0 0 0 0 
0 0 0 0 0 0 0 0 0 
0 0 0 0 0 0 0 0 0 
0 0 0 0 0 0 0 0 0 
0 0 0 0 0 0 0 0 0 
0 0 0 0 0 0 0 0 0 
0 0 0 0 0 0 0 0 0 
0 0 0 0 0 0 0 0 0 
0 0 0 0 0 0 
v 3 767 double
-0.162795 -0.543323 0.872477 -0.158105 -0.9256 -1.3826 -0.980761 0.195845 0.297943 
0.66464 -0.689869 0.261872 -0.880672 -0.905761 0.565908 -0.0351832 -0.29276 -1.07493 
0.292975 -1.13502 -0.822424 -0.384855 -0.0132783 0.438062 -0.355122 -1.25979 1.00488 
0.0482195 -0.0162965 0.888566 0.682405 -1.00449 -0.827765 -0.412711 -0.309953 -0.135503 
-0.160927 -1.05494 -0.386511 -0.772762 -0.577655 -0.834825 0.278214 -1.12783 -0.452758 
-0.110585 -0.389109 0.984246 0.659251 -1.25778 0.311262 0.655712 -0.260683 0.961318 
5.06877e-05 0.434409 0.359554 -0.659009 -0.282074 -0.43956 -0.241207 -0.578818 0.457626 
-0.105578 -0.46572 0.503484 -0.628156 -0.3559 -0.415228 0.126174 0.000375938 -1.12502 
-0.645055 -0.618797 -0.249587 0.834107 0.300251 -0.18781 -0.408822 -0.0944596 -0.00100387 
-0.699872 -0.0702587 -0.341174 -0.271173 -0.534241 0.669509 0.675418 -0.415259 0.238326 
1.22404 0.315057 -0.653762 -0.301673 -0.0671899 -0.675836 0.0433692 -0.603804 -0.722977 
0.119278 -0.758469 0.333019 0.184588 -0.807823 -0.0951675 0.514011 -0.29429 -0.856348 
0.391873 -0.211535 -0.420292 0.170185 -0.495279 0.448931 -0.48793 -0.423736 -0.0403902 
0.769811 0.2008 -0.0186423 0.192613 -0.649167 -0.524057 0.611943 0.398955 0.274189 
-1.31522 0.292807 0.0829412 -0.349401 0.280617 -0.22222 -0.0385601 -0.0277466 -0.372344 
-0.48336 0.574918 0.797975 0.103946 -0.063473 0.244393 0.0259328 -0.021618 1.28258 
0.0881999 0.32032 0.417599 -0.244923 0.432658 0.200183 -0.393156 -0.109624 -0.763562 
-0.0939872 -0.567397 0.911904 -0.947582 -0.0893342 -0.551689 -0.278111 0.358035 -0.206032 
-0.916282 -0.192059 -0.321244 0.845727 -0.249085 -0.163552 0.17922 0.27298 0.114965 
-0.362076 0.0989419 0.119787 -0.290539 -0.542335 -0.439049 0.0954118 -0.301455 -0.366691 
0.126275 -0.121537 0.70652 -0.0880301 0.509542 -0.787813 0.460841 0.227147 -0.278319 
-0.229897 -0.523382 -0.0641893 0.507883 -0.180539 -0.6178 -0.192678 -0.0435222 -0.329177 
0.281672 -0.168874 0.714671 -0.198656 -0.517708 -1.14395 -0.0172378 -0.424657 -1.26627 
0.0957054 0.0712939 -0.157085 0.0784483 -0.618669 -0.165512 0.427419 0.155857 0.657281 
-0.340198 0.250982 -0.411684 0.163195 0.257173 -1.05156 0.412392 -0.428854 -0.949226 
0.264994 -0.149882 0.101198 -0.105956 0.0156442 0.558162 -0.118309 0.0258558 -0.234571 
-0.324067 0.108841 0.0295723 0.0174399 -0.113248 0.62608 0.46132 -0.612091 -0.214417 
-0.481365 1.32997 -0.669268 0.473641 0.0346725 -0.154074 -0.653929 -0.56472 0.210259 
-0.427334 0.243508 0.710921 -0.0562226 -0.138711 0.022995 -0.584345 1.11071 0.139934 
1.07123 0.410002 0.484316 -0.3671 0.5292 0.887758 -0.129296 -0.0768541 0.679559 
0.331521 0.781277 -0.181901 -0.548099 -0.819535 0.555237 -1.00357 -0.157894 -0.378385 
-0.0955309 -0.132433 -0.215489 0.49369 -0.00500415 -0.0237627 0.226839 0.803268 -0.350964 
0.344202 -0.0963059 -0.185691 1.36749 -0.938783 0.0793306 -0.843833 0.382973 0.0438264 
0.0646027 0.117298 -0.508609 -0.923408 0.742036 0.859943 0.0473811 0.0317902 1.33104 
1.21709 0.36274 -0.141803 -0.18115 -0.315682 0.186147 0.0297855 -0.270712 0.618809 
-0.49028 0.196605 -0.726953 0.541684 0.439773 -0.824404 -0.21733 0.941753 -0.197233 
-0.939079 0.0772189 -0.760891 0.493536 0.587605 -0.565513 1.10153 0.370139 0.269741 
0.0684954 -0.113175 1.1932 -0.327742 0.926423 -0.893285 0.331463 0.443059 -0.750235 
-0.0883017 0.266916 -0.0294336 -0.314357 0.0507768 0.134099 0.59244 -0.285047 0.813449 
-0.199252 0.291103 0.753581 -0.3212 -0.245301 0.52134 -0.0353969 -0.453421 -0.494535 
0.44172 0.313024 0.0660678 0.219318 0.0652702 -0.178987 0.355548 0.238432 -0.41031 
-0.554408 0.178925 0.620552 0.0466944 0.0353596 0.163414 -0.189877 1.14797 -0.234129 
0.427435 -0.275362 -1.04783 -0.524477 -0.514543 0.72359 0.372896 0.910324 0.687911 
0.0379887 -0.0806717 0.477486 0.0365746 0.244104 -0.109194 0.368483 0.75297 0.328523 
0.588121 0.393597 0.801264 0.432113 0.751029 0.820998 -0.577614 0.521309 -0.273434 
0.0964094 0.0452675 0.410137 -0.837301 0.24803 0.195172 -0.711597 -0.240143 -0.835331 
-0.261824 0.0428724 1.17503 0.1789 0.686238 -0.580202 -0.273511 0.14604 -0.753599 
0.0886888 -0.261538 -0.189921 0.0386926 0.990412 -0.0949058 0.712622 0.609552 0.152394 
-0.378111 0.78932 -0.549615 0.359528 0.0526866 -0.350117 0.321001 0.0344211 -0.0506503 
-1.43485 1.13406 -0.79561 0.724483 -0.0182968 -0.687592 -0.244826 0.281661 0.547347 
0.664924 0.217516 0.218035 -0.169988 0.633015 1.03857 -0.0904641 1.01407 -0.178497 
0.14809 -1.26874 -0.214781 -0.295706 -0.733253 -0.47481 -0.597074 -1.21562 0.57647 
-0.101142 -0.286778 -0.723348 0.171105 0.115351 -0.47218 0.423279 -0.373896 0.397391 
0.0254107 -0.236835 -0.0785311 -0.147175 -1.14321 -0.269483 -0.427435 -0.66159 -0.430441 
-0.614087 -0.345946 -1.47621 0.123838 -1.32659 -0.358575 0.285661 -0.313378 0.130922 
0.0867328 -0.98608 -0.773176 0.0420635 0.268524 0.239148 0.240513 -0.399837 -0.462136 
-0.103607 -0.129745 0.0211869 0.43856 -0.569518 -0.898682 -0.117167 1.07518 0.0254197 
-0.088629 -1.30283 -0.461593 -0.364752 -0.623167 -1.30005 -0.256107 -0.84952 -0.31167 
-0.737957 0.252363 -0.629136 0.590834 -0.194733 -0.485445 1.05179 -0.21178 -0.180758 
-0.314471 -0.782843 -0.576174 0.00539218 0.433225 0.715564 -0.103438 -0.65472 -0.731714 
-0.17714 -0.145392 0.209117 -0.95669 0.232853 -1.30209 -0.123974 -0.78054 -1.37263 
0.138235 -0.647432 -0.219996 0.850826 0.244146 -0.254593 0.405421 -0.261095 -0.424864 
-0.0686289 -0.406053 0.263031 -0.193833 0.408262 -0.056275 -0.123034 -0.143212 0.471934 
1.07844 -0.21291 -0.676816 0.0977837 -0.059122 -0.762089 0.295522 0.0988739 -0.704844 
1.01895 0.0418712 -0.338874 0.218829 -0.196277 -0.52557 -0.00729844 -0.116867 -0.712926 
-0.453905 0.982986 -0.769059 -0.226671 -0.242572 0.522183 -0.0375469 -0.499021 -0.290347 
-0.0272587 0.0539203 -0.383207 -0.0142777 0.271482 0.4428 0.172103 -0.944119 -0.300369 
-0.93753 -0.0339733 -0.657874 -0.0360664 0.78015 -0.12485 0.349483 0.571306 -0.63519 
0.285306 -0.0984702 -1.63263 -0.50409 -0.325586 -0.226789 -0.293894 -0.537424 0.645105 
-0.1075 -0.5632 0.465386 -0.478067 0.245679 0.705621 0.0391937 -1.05161 -0.969125 
-0.379261 0.304611 -0.75893 0.636981 -0.088303 -0.341903 -1.19053 -0.0313089 -0.248502 
-0.894472 -0.0526834 -0.156503 0.561428 -0.140763 -0.368593 0.348456 0.492546 0.0356701 
-0.256256 -0.935119 -0.0549582 -0.254671 -0.695157 -0.472432 0.0228417 -0.532583 -1.02111 
-0.0376503 0.00118331 -0.0186967 0.971243 0.223398 -1.12059 0.0135651 -0.352736 0.336017 
-1.21261 0.361209 -0.283244 0.835313 -0.0373911 -0.85191 -0.502094 -0.357432 -0.333021 
0.404332 -0.337664 -1.31666 -0.431195 0.50025 0.432206 -0.749228 -0.201883 0.742123 
-0.217527 -0.136069 -0.329053 -0.337989 0.0897712 0.0725024 -0.563024 0.600055 0.566003 
-0.0860795 -0.181621 0.45753 -0.414457 0.394753 -0.827147 -0.736976 -0.934432 -0.532378 
0.581853 0.610177 -0.765095 -0.338333 0.77003 -0.269102 -0.751026 -0.194809 -0.269239 
-0.488547 0.496329 -1.15944 -0.406872 0.104443 -0.404401 0.372694 0.180881 -0.109707 
-0.661084 0.437136 -0.904432 0.820177 0.22154 -0.850011 0.538834 0.0722222 0.104878 
-0.388479 -1.20934 -0.489981 0.674489 0.362049 0.686152 -0.0747059 0.350109 -0.425311 
0.267846 -0.383132 -0.415987 -0.0880956 0.661844 0.0826725 -0.321043 -0.360848 -0.703781 
-0.41859 -0.119905 0.267595 0.406761 -0.367973 0.25485 -0.551452 -0.480174 -0.180817 
-0.844077 -0.365966 -0.975945 -0.88626 0.736049 -0.297204 -0.275582 0.338311 -0.325304 
-0.311517 -0.254707 -0.589125 -0.251989 0.412285 -0.215469 0.351731 0.330618 -0.451002 
1.02043 -0.0765337 -0.199056 -0.899293 -0.501437 -0.432759 -0.205921 0.221855 -1.01852 
0.129234 0.746879 0.658095 0.0678577 0.0452917 0.444542 0.0717769 -0.33602 -0.593239 
1.1884 0.597017 -0.0355366 -0.539408 -0.706329 0.163819 0.111841 0.137821 -0.502701 
-0.347606 1.45865 -0.586433 -0.447865 -0.378385 0.078927 0.835217 0.158437 -0.501395 
0.00257461 0.236154 -1.22486 0.180027 0.302198 -0.284218 0.0587252 -0.332912 -0.118717 
0.200878 0.212592 -0.772701 0.623827 -0.1598 -0.0348847 0.191503 0.741551 -0.122386 
0.0904149 1.00173 0.289303 -0.208283 0.494364 0.0807367 -0.0563566 1.07579 -1.09128 
-0.485487 0.505721 -0.360438 0.350134 1.00414 -0.329739 -0.750375 0.789376 -0.403148 
0.0470399 0.857397 1.06486 -0.0930583 0.0241113 -0.403392 -0.625979 0.845414 -0.406054 
-0.313258 0.487288 -0.9322 -0.127039 0.960465 -0.0923334 -0.596868 1.6129 -0.516086 
0.405143 0.216645 -0.714533 -0.485045 1.02704 -0.181937 0.9751 0.265483 -0.977265 
0.205859 1.04571 -0.921383 -0.00898658 1.28421 0.137913 -0.038623 -0.966882 -0.189475 
-0.000983598 -1.0538 -1.07783 -0.324305 -1.0085 -0.10956 0.142785 -0.862184 -0.965282 
-0.113154 -0.388049 -1.62016 0 0 -1.68265 0.723288 0.199896 -1.24447 
-0.528168 -0.813619 -1.3647 -0.323549 -0.412267 -1.70364 -0.10507 -1.08424 -1.03547 
-1.34725 0.0509415 -0.674548 0.424302 -0.499405 -1.11113 -0.237571 -0.229408 -0.811739 
-0.164476 0.728726 -0.184643 -0.52267 0.00758959 -0.734776 -0.577694 -0.39096 -1.05722 
-0.0210749 0.327232 -0.770189 0.118487 -0.379327 -0.415488 0.96397 0.0780642 -0.0462335 
-0.330817 -0.662011 -1.32278 0.0969566 -0.48471 -0.599464 0.260978 0.72655 0.204343 
-0.217605 -0.454208 -1.50948 0.431711 -0.0907423 -0.996648 -0.21858 -0.770179 -0.261231 
-0.467728 0.480357 0.780201 0.0703454 0.467236 -0.0609873 0.0208171 0.375163 0.359673 
0.0626412 -0.157632 -1.09816 -0.0709017 0.225056 -0.322934 -0.132823 -0.210513 0.403511 
0.571859 -0.11744 -1.25398 -0.0748388 0.0708159 -1.11449 0.29053 -0.445676 -1.31069 
-0.392313 -0.133018 -0.338826 -0.00591067 0.324466 0.0957963 -0.0111006 -0.842082 -0.189392 
0.0351872 0.51868 -1.04962 -0.0459418 -0.954082 -0.508947 0.664375 0.156542 0.00167236 
0.701411 0.360445 -0.704232 0.455665 1.07224 0.147886 0.317257 -0.21833 -0.252106 
0.723464 0.211201 -0.351962 0.648905 0.170297 0.240423 0.758076 0.0702026 -1.62575 
-0.835549 0.4636 -0.324899 0.434969 0.701694 -1.14281 0.197826 -0.445182 -1.13156 
-0.0782441 -0.103808 -0.0272866 -0.592836 -0.290629 -0.648507 0.125587 -0.113893 -0.684315 
-0.624544 -0.221124 -0.965675 -0.288145 -0.231741 -1.22344 -0.822564 -0.419298 -0.183698 
-0.92676 0.892502 -0.941402 0.619144 -0.671926 -0.887329 -0.0686641 0.251315 -1.17791 
-0.780049 0.0273794 -0.382668 0.504734 -0.325593 -0.0973979 1.05364 -0.252677 -0.75871 
0.294418 -0.202423 -1.10744 -0.0618411 -0.0246077 -1.12722 -0.0320513 -0.237227 -0.205861 