# vtk DataFile Version 4.0
Generated by LIGGGHTS
ASCII
DATASET POLYDATA
POINTS 1355 float
-0.89872 -0.460824 -0.460298 -0.767183 -0.460284 -0.460348 -0.687459 -0.460137 -0.460344 
-0.607558 -0.460674 -0.460352 -0.526363 -0.460469 -0.460635 -0.446568 -0.46027 -0.460462 
-0.36601 -0.459859 -0.460503 -0.281278 -0.460323 -0.460596 -0.157673 -0.460691 -0.460254 
-0.0768657 -0.450842 -0.460413 0.0023946 -0.460093 -0.460404 0.0821447 -0.460048 -0.46041 
0.161901 -0.460175 -0.460421 0.241877 -0.46026 -0.460518 0.32176 -0.460183 -0.460546 
0.401501 -0.459947 -0.460557 0.48128 -0.460046 -0.460572 0.578368 -0.460287 -0.460437 
0.658228 -0.460452 -0.46047 0.739512 -0.460132 -0.460581 0.819301 -0.460421 -0.460583 
0.901203 -0.460297 -0.460408 -0.960648 -0.411169 -0.460881 -0.886525 -0.382422 -0.460827 
-0.732116 -0.388645 -0.460949 -0.64672 -0.391525 -0.460356 -0.567127 -0.392342 -0.460164 
-0.487408 -0.390802 -0.460425 -0.407463 -0.391004 -0.4605 -0.330227 -0.372177 -0.460249 
-0.210619 -0.401487 -0.460336 -0.132395 -0.385466 -0.460706 0.0420791 -0.390768 -0.460554 
0.12211 -0.390852 -0.460572 0.202111 -0.391289 -0.460406 0.281985 -0.391107 -0.460519 
0.361782 -0.389876 -0.460655 0.441414 -0.38267 -0.460461 0.529958 -0.396685 -0.460491 
0.61784 -0.391189 -0.460829 0.697953 -0.391895 -0.460376 0.779919 -0.391103 -0.460167 
0.859889 -0.391955 -0.46075 0.960283 -0.407016 -0.460465 -0.960079 -0.331594 -0.460097 
-0.885551 -0.3029 -0.46066 -0.809275 -0.362675 -0.460429 -0.686448 -0.322865 -0.461426 
-0.565202 -0.313369 -0.461047 -0.48562 -0.311049 -0.460441 -0.400043 -0.311567 -0.460364 
-0.258118 -0.338077 -0.460418 -0.180525 -0.321644 -0.460283 -0.101547 -0.312563 -0.460638 
-0.0307837 -0.357821 -0.46032 0.0339898 -0.311317 -0.460213 0.162946 -0.322244 -0.46062 
0.242531 -0.32192 -0.460649 0.322082 -0.317279 -0.460385 0.401668 -0.313371 -0.46061 
0.489806 -0.318664 -0.460501 0.569262 -0.327093 -0.460519 0.657976 -0.322396 -0.460108 
0.737678 -0.32345 -0.460657 0.881862 -0.315485 -0.460909 0.960371 -0.327626 -0.460394 
-0.960269 -0.251982 -0.460225 -0.808688 -0.2828 -0.460404 -0.733204 -0.256878 -0.460404 
-0.629903 -0.267135 -0.460138 -0.53068 -0.242196 -0.460756 -0.450857 -0.239054 -0.460778 
-0.322505 -0.292705 -0.460889 -0.0345637 -0.270464 -0.460922 0.102727 -0.271325 -0.46049 
0.177878 -0.241913 -0.460112 0.316667 -0.237434 -0.460118 0.532861 -0.251451 -0.460857 
0.612429 -0.256943 -0.460056 0.698828 -0.253722 -0.460266 0.778984 -0.255654 -0.460325 
0.881716 -0.235711 -0.460326 0.960295 -0.248236 -0.460592 -0.96028 -0.172197 -0.460249 
-0.889019 -0.216427 -0.46027 -0.810391 -0.203238 -0.461179 -0.675671 -0.20189 -0.460478 
-0.595305 -0.19555 -0.460141 -0.497533 -0.169924 -0.460389 -0.37142 -0.230349 -0.460656 
-0.290534 -0.219591 -0.46047 -0.200644 -0.225696 -0.4607 -0.116401 -0.232338 -0.460455 
-0.0475055 -0.191857 -0.461009 0.0344194 -0.231315 -0.460247 0.0986516 -0.180308 -0.460502 
0.24786 -0.195512 -0.46077 0.385347 -0.192188 -0.460441 0.460303 -0.219286 -0.460483 
0.568387 -0.179866 -0.460941 0.648663 -0.185865 -0.460791 0.728277 -0.179414 -0.460522 
0.818729 -0.186934 -0.460352 0.960331 -0.168812 -0.46047 -0.894423 -0.127678 -0.460308 
-0.81458 -0.123804 -0.46014 -0.743518 -0.159769 -0.460428 -0.641006 -0.130324 -0.460571 
-0.562016 -0.123258 -0.460238 -0.418385 -0.166054 -0.460399 -0.339333 -0.157147 -0.460583 
-0.240411 -0.157124 -0.460367 -0.153105 -0.161446 -0.460855 -0.0888505 -0.112512 -0.460116 
0.0238908 -0.152893 -0.460874 0.121538 -0.103583 -0.460215 0.176198 -0.16112 -0.460378 
0.315459 -0.153619 -0.4603 0.421059 -0.103294 -0.460984 0.496341 -0.137641 -0.460509 
0.613956 -0.11418 -0.460586 0.81312 -0.107631 -0.460636 0.885391 -0.141694 -0.460438 
-0.960153 -0.0809268 -0.460464 -0.857755 -0.0571456 -0.460943 -0.777984 -0.0527715 -0.460555 
-0.70454 -0.0833753 -0.46104 -0.588042 -0.045535 -0.460822 -0.510342 -0.0632297 -0.460298 
-0.431357 -0.0734243 -0.460632 -0.352167 -0.07893 -0.460824 -0.27297 -0.0849623 -0.460503 
-0.193383 -0.0924875 -0.460474 -0.073369 -0.0331329 -0.460366 -0.0124492 -0.0829264 -0.460484 
0.0607551 -0.0524094 -0.460532 0.200413 -0.0729602 -0.460633 0.279578 -0.0822119 -0.460661 
0.355584 -0.0581118 -0.460383 0.544924 -0.074192 -0.460329 0.658644 -0.0458437 -0.460305 
0.737966 -0.0804596 -0.461154 0.960246 -0.0891541 -0.460807 -0.922499 -0.0109487 -0.46068 
-0.822163 0.0134954 -0.460177 -0.742973 0.0189828 -0.460407 -0.669484 -0.0119151 -0.460724 
-0.475865 0.00806409 -0.460586 -0.387324 -0.00738699 -0.460415 -0.307757 -0.0132368 -0.460347 
-0.228879 -0.0192341 -0.460337 -0.150768 -0.0252269 -0.460307 -0.000938468 -0.00204814 -0.460433 
0.072777 0.0261807 -0.46074 0.135629 -0.0250198 -0.460761 0.209193 0.00631344 -0.460716 
0.292488 -0.00243435 -0.46011 0.369157 0.0203937 -0.460266 0.435207 -0.0246528 -0.46022 
0.509979 -0.00537448 -0.439482 0.586759 -0.00627469 -0.460647 0.68679 0.0290385 -0.460118 
0.759832 -0.00354339 -0.460118 0.837986 -0.0321032 -0.460419 0.916858 -0.0226688 -0.460894 
-0.960527 0.058524 -0.460628 -0.88136 0.0660092 -0.461439 -0.788019 0.0852274 -0.461153 
-0.708554 0.0903975 -0.460929 -0.634657 0.0600242 -0.46064 -0.559316 0.033579 -0.460248 
-0.498047 0.0848099 -0.460406 -0.421116 0.064859 -0.460218 -0.341872 0.0581994 -0.460274 
-0.262588 0.0526556 -0.460392 -0.183242 0.0473033 -0.460504 -0.100982 0.0417999 -0.460467 
0.0125648 0.0766356 -0.448291 0.146218 0.0540068 -0.460449 0.256625 0.0703138 -0.460312 
0.392885 0.096395 -0.460578 0.458655 0.0518134 -0.460613 0.536764 0.066361 -0.460783 
0.616547 0.0672785 -0.46042 0.752101 0.0830571 -0.460707 0.822779 0.0457724 -0.460261 
0.892704 0.0860903 -0.460574 0.960367 0.044037 -0.460256 -0.960168 0.137645 -0.461228 
-0.847228 0.138582 -0.460714 -0.771307 0.159637 -0.438381 -0.647058 0.140985 -0.460622 
-0.572751 0.1124 -0.460133 -0.504506 0.164394 -0.461628 -0.376092 0.129497 -0.46079 
-0.296956 0.1243 -0.460563 -0.217332 0.119134 -0.460565 -0.137932 0.112864 -0.460348 
-0.0586424 0.109351 -0.460669 0.085714 0.105557 -0.460606 0.192405 0.11746 -0.460995 
0.303326 0.142877 -0.460722 0.487726 0.129953 -0.460609 0.571753 0.137348 -0.460857 
0.651487 0.138567 -0.460271 0.753488 0.162884 -0.46062 0.823151 0.125143 -0.460419 
0.891068 0.166038 -0.460459 0.960585 0.127841 -0.46043 -0.960525 0.216965 -0.460739 
-0.82435 0.215006 -0.460388 -0.704504 0.196619 -0.460905 -0.416985 0.19713 -0.460499 
-0.332921 0.19518 -0.460527 -0.252425 0.190277 -0.460519 -0.16949 0.185762 -0.460085 
-0.0890238 0.183094 -0.460416 -0.00917471 0.177937 -0.460355 0.0712106 0.183987 -0.460722 
0.150837 0.184517 -0.460266 0.234092 0.184737 -0.460481 0.34435 0.211266 -0.46046 
0.419136 0.171071 -0.460648 0.524492 0.201581 -0.460528 0.608869 0.207554 -0.460854 
0.688698 0.208735 -0.460266 0.821208 0.204986 -0.460536 0.960232 0.207688 -0.460356 
-0.960403 0.297822 -0.46012 -0.892136 0.257049 -0.460973 -0.824283 0.297931 -0.460852 
-0.756409 0.256974 -0.460345 -0.605997 0.239729 -0.461358 -0.526614 0.24018 -0.461072 
-0.452647 0.268495 -0.460397 -0.373269 0.263546 -0.460249 -0.289065 0.260669 -0.460546 
-0.207049 0.255624 -0.460227 -0.126359 0.253584 -0.460348 -0.0465631 0.250765 -0.460477 
0.0330644 0.253446 -0.460159 0.112592 0.253588 -0.460293 0.192744 0.252896 -0.460684 
0.27409 0.253307 -0.460516 0.384232 0.280589 -0.460553 0.455206 0.241508 -0.46073 
0.562257 0.271856 -0.461032 0.65174 0.279001 -0.460747 0.7563 0.251209 -0.460455 
0.890016 0.245123 -0.460327 -0.892336 0.339315 -0.460679 -0.711469 0.337116 -0.460749 
-0.635231 0.314091 -0.460582 -0.555692 0.313974 -0.460257 -0.428908 0.34398 -0.460471 
-0.329225 0.329119 -0.4605 -0.244547 0.325326 -0.460351 -0.164953 0.323236 -0.460241 
-0.0853079 0.322186 -0.460533 -0.00588004 0.322494 -0.460633 0.0734543 0.322435 -0.460387 
0.15328 0.322153 -0.460556 0.233173 0.321858 -0.460633 0.313934 0.322191 -0.460439 
0.423405 0.350244 -0.46051 0.493082 0.311497 -0.46078 0.602173 0.341333 -0.460415 
0.71917 0.321849 -0.460434 0.802337 0.321565 -0.460587 0.882035 0.323441 -0.460413 
0.959713 0.301816 -0.460773 -0.960325 0.380203 -0.460656 -0.889417 0.418895 -0.460888 
-0.82324 0.376566 -0.447007 -0.750828 0.4065 -0.460481 -0.65336 0.391576 -0.460498 
-0.573411 0.391434 -0.460426 -0.493511 0.39066 -0.460637 -0.370572 0.397419 -0.46035 
-0.283979 0.393404 -0.46042 -0.204019 0.392749 -0.460692 -0.124655 0.391631 -0.460327 
-0.045401 0.391377 -0.460308 0.0341066 0.391431 -0.460365 0.113716 0.391267 -0.460388 
0.193442 0.391115 -0.460502 0.273262 0.39099 -0.460656 0.353766 0.39118 -0.460467 
0.46292 0.420027 -0.460306 0.532785 0.380777 -0.460269 0.67583 0.388846 -0.46046 
0.755739 0.393229 -0.460604 0.840755 0.391575 -0.460362 0.921333 0.391893 -0.460786 
-0.959854 0.460082 -0.460129 -0.809803 0.459644 -0.460474 -0.692483 0.460609 -0.461138 
-0.612741 0.46037 -0.460273 -0.53286 0.460238 -0.460243 -0.452912 0.459473 -0.460453 
-0.323704 0.461204 -0.460466 -0.243887 0.461159 -0.460629 -0.164115 0.4608 -0.460567 
-0.0846915 0.460479 -0.460417 -0.00550057 0.460423 -0.4603 0.0739823 0.46036 -0.460332 
0.153616 0.460275 -0.460392 0.233392 0.460204 -0.460465 0.313282 0.460124 -0.460486 
0.393868 0.460152 -0.460161 0.531669 0.460359 -0.460699 0.620143 0.458901 -0.460351 
0.711815 0.460097 -0.460351 0.799718 0.460093 -0.460535 0.88078 0.460421 -0.460445 
0.960515 0.460547 -0.460291 -0.960174 -0.460869 -0.399362 -0.884627 -0.460094 -0.37396 
-0.727252 -0.460257 -0.391134 -0.647501 -0.460228 -0.39132 -0.566393 -0.460066 -0.391943 
-0.486587 -0.460229 -0.391617 -0.406177 -0.459922 -0.391733 -0.323595 -0.460039 -0.393077 
-0.22162 -0.460092 -0.407302 -0.116395 -0.460791 -0.392027 -0.0368345 -0.460587 -0.391165 
0.0425175 -0.460175 -0.391307 0.122072 -0.460272 -0.39125 0.201963 -0.460469 -0.391593 
0.281956 -0.460621 -0.391671 0.361759 -0.460594 -0.391596 0.441432 -0.460623 -0.391635 
0.529768 -0.460222 -0.397508 0.618696 -0.460121 -0.391452 0.699401 -0.455251 -0.392234 
[...]
POINT_DATA 1355
FIELD FieldData 7
id 1 1355 int
366 408 584 322 662 206 563 371 419 
523 551 145 607 585 151 530 365 186 
620 156 70 664 692 632 759 714 370 
120 208 723 59 512 435 712 211 457 
20 256 338 470 195 678 320 643 534 
171 196 105 493 581 542 514 245 234 
347 708 214 280 305 529 396 291 444 
367 476 155 724 314 136 721 375 250 
442 498 54 200 431 623 593 109 184 
446 647 159 267 289 373 275 324 62 
533 376 95 589 76 722 543 576 75 
202 572 683 676 680 445 83 641 185 
331 96 99 458 575 40 57 88 239 
31 281 298 126 300 48 521 531 428 
254 592 758 361 412 478 14 437 312 
252 153 397 483 704 321 140 726 143 
142 351 651 528 433 92 690 689 359 
154 569 304 439 339 170 540 639 461 
177 700 378 459 310 258 51 182 6 
549 369 323 121 382 507 2 495 224 
612 720 590 539 166 460 97 240 537 
127 580 85 544 293 697 634 129 104 
423 742 161 32 384 25 671 74 278 
675 383 71 266 19 22 627 717 162 
602 146 626 247 167 125 191 199 294 
586 640 441 637 596 149 475 463 387 
703 269 130 8 393 218 348 420 613 
663 16 578 402 682 421 715 299 698 
747 261 622 355 571 411 42 748 416 
227 391 527 557 346 67 274 319 242 
649 9 73 251 766 409 535 89 4 
260 318 650 259 388 311 94 618 39 
582 53 673 729 3 69 496 363 201 
188 599 670 228 519 667 472 669 660 
646 654 43 230 226 306 427 316 614 
764 329 545 179 389 12 453 440 197 
452 90 604 386 686 38 587 285 725 
743 181 518 225 761 513 5 559 72 
336 66 116 78 628 131 679 959 103 
273 1154 276 516 47 233 325 108 223 
666 157 455 205 175 287 221 56 751 
736 426 744 642 611 302 413 473 741 
684 118 653 18 770 15 552 82 272 
100 87 343 490 219 601 290 465 110 
438 372 767 631 255 879 307 699 636 
187 550 80 532 313 645 279 509 556 
114 757 144 81 668 58 615 944 616 
558 644 341 189 407 36 462 597 357 
394 565 554 29 511 334 282 570 424 
286 541 399 24 447 364 183 86 566 
492 501 718 169 886 248 33 422 11 
502 395 46 106 345 192 711 137 60 
44 112 497 429 479 27 45 694 326 
358 352 746 21 629 522 568 28 271 
710 236 524 111 737 102 818 134 216 
733 147 194 148 172 101 775 443 415 
84 1127 243 474 180 482 381 374 436 
638 450 253 425 93 827 91 215 505 
403 520 277 738 133 719 107 288 350 
762 193 546 41 970 333 231 330 135 
928 574 308 328 232 432 296 591 659 
49 13 61 681 400 648 190 128 392 
610 55 209 35 665 122 503 750 821 
687 480 469 508 26 113 608 123 222 
709 340 456 606 297 760 17 292 138 
430 246 98 564 448 283 404 178 244 
132 63 583 464 891 600 1165 418 417 
547 763 499 229 494 385 617 672 467 
119 755 481 727 526 390 210 728 249 
217 871 769 354 158 510 7 739 466 
793 890 500 658 337 986 1166 846 173 
567 1184 573 468 781 927 735 809 1066 
1173 1152 925 685 933 814 921 414 784 
265 749 963 1288 943 504 787 268 935 
831 910 362 1115 619 903 688 652 867 
1167 410 768 973 951 1062 754 1061 1170 
360 828 235 696 779 875 1147 207 932 
241 702 1091 907 454 812 603 1255 974 
1162 848 914 829 176 982 838 870 950 
865 124 691 792 857 919 335 317 406 
985 972 732 165 379 295 707 937 952 
491 765 204 349 904 894 901 79 851 
471 734 786 981 882 356 939 855 141 
489 577 969 674 536 1077 655 621 918 
861 824 895 487 1284 795 731 800 309 
50 605 1052 908 30 1075 967 434 677 
892 52 801 486 905 947 1078 301 776 
962 805 990 332 164 1182 975 836 815 
630 1088 198 926 977 657 794 954 922 
835 656 888 633 730 911 160 752 968 
484 150 401 953 327 893 837 695 477 
220 10 555 380 803 876 515 791 840 
713 65 783 342 864 934 344 804 23 
538 887 965 203 872 595 929 994 873 
598 884 1180 822 506 237 488 284 1 
1038 1137 1177 960 706 398 859 896 869 
716 1041 1156 971 856 115 257 1313 1142 
562 966 139 263 850 174 609 912 773 
917 37 1118 900 830 368 881 625 353 
756 168 405 845 880 451 949 117 525 
1001 303 262 785 213 68 635 64 661 
553 152 753 817 701 594 984 923 315 
579 377 485 961 212 693 878 938 1243 
561 270 906 1079 1149 1312 1004 866 823 
1334 1143 988 1076 956 825 1006 1330 163 
1159 1123 1093 1231 930 1178 1290 1051 958 
1112 1305 1211 1113 1279 1110 1185 849 1049 
1133 1058 1035 826 844 1116 1339 1197 1160 
1073 832 1193 847 1217 1003 1316 1032 1267 
1347 1302 1000 1344 1145 868 999 1125 1266 
1295 1028 1221 1071 1086 1034 1186 993 1097 
1354 1187 802 1139 1285 1099 1014 1022 1036 
1015 808 995 1054 1144 1056 1008 1322 1021 
1189 1321 1129 1246 902 1174 1346 1105 1283 
1005 936 964 1103 1188 806 780 789 1213 
1315 1172 1158 1020 1095 1050 1111 1138 916 
992 1201 797 820 782 1089 1319 1087 833 
1023 1130 1135 1270 1012 834 978 924 1183 
1119 1082 1083 1026 980 1216 1018 1065 1044 
1016 1273 839 1067 1349 1258 1176 1179 1084 
1010 1114 1048 931 1027 799 807 1150 1009 
1109 34 842 810 1153 1333 1274 1311 1171 
1033 1046 1265 987 1100 1253 1017 1203 860 
790 774 1227 1282 1081 899 1080 1269 852 
915 948 1096 946 1069 1057 1300 983 1029 
955 1025 841 1007 1043 798 811 1085 1175 
1055 1126 1309 1280 1101 998 976 853 1134 
813 1206 1281 1320 777 1053 796 1148 1063 
1011 1042 1229 1230 877 1256 1157 1195 1131 
854 771 945 1287 940 1045 1181 1124 1019 
1232 778 898 1353 1161 1102 449 1169 1225 
1336 1070 1136 885 1024 1117 1068 1254 740 
1059 1307 1098 979 588 1264 863 1064 1262 
957 883 238 517 816 897 788 624 1252 
1250 1190 1121 1303 1141 1233 1140 941 1132 
1299 1151 1238 745 1327 1226 1107 1247 1306 
1275 1335 1276 1249 1251 1291 1214 1106 1210 
1215 1199 1031 1325 1308 1202 1224 1272 1350 
1047 1297 1329 1341 1223 1263 1237 1323 1348 
1013 1194 1209 1235 1343 1037 1292 1228 1192 
1317 1331 1219 1342 1352 1304 1242 1301 1260 
1220 1294 1039 1205 1236 1326 1234 1296 1355 
1204 1164 1345 1286 1060 1268 1191 1128 862 
1198 1278 1241 1259 1338 1293 1248 1168 1245 
1240 1196 1314 1289 909 1328 1072 1351 1298 
991 1261 1094 1200 1310 1244 1002 1332 1257 
264 1030 1146 942 772 1277 1318 1239 1212 
1337 920 705 1208 913 1040 1120 1340 1122 
843 997 1108 1104 1090 996 1074 548 1163 
1092 1324 1155 1271 77 989 560 1207 889 
858 1222 819 874 1218 
type 1 1355 int
1 1 1 1 1 1 1 1 1 
1 1 1 1 1 1 1 1 1 
1 1 1 1 1 1 1 1 1 
1 1 1 1 1 1 1 1 1 
1 1 1 1 1 1 1 1 1 
1 1 1 1 1 1 1 1 1 
1 1 1 1 1 1 1 1 1 
1 1 1 1 1 1 1 1 1 
1 1 1 1 1 1 1 1 1 
1 1 1 1 1 1 1 1 1 
1 1 1 1 1 1 1 1 1 
1 1 1 1 1 1 1 1 1 
1 1 1 1 1 1 1 1 1 
1 1 1 1 1 1 1 1 1 
1 1 1 1 1 1 1 1 1 
1 1 1 1 1 1 1 1 1 
1 1 1 1 1 1 1 1 1 
1 1 1 1 1 1 1 1 1 
1 1 1 1 1 1 1 1 1 
1 1 1 1 1 1 1 1 1 
1 1 1 1 1 1 1 1 1 
1 1 1 1 1 1 1 1 1 
1 1 1 1 1 1 1 1 1 
1 1 1 1 1 1 1 1 1 
1 1 1 1 1 1 1 1 1 
1 1 1 1 1 1 1 1 1 
1 1 1 1 1 1 1 1 1 
1 1 1 1 1 1 1 1 1 
1 1 1 1 1 1 1 1 1 
1 1 1 1 1 1 1 1 1 
1 1 1 1 1 1 1 1 1 
1 1 1 1 1 1 1 1 1 
1 1 1 1 1 1 1 1 1 
1 1 1 1 1 1 1 1 1 
1 1 1 1 1 1 1 1 1 
1 1 1 1 1 1 1 1 1 
1 1 1 1 1 1 1 1 1 
1 1 1 1 1 1 1 1 1 
1 1 1 1 1 1 1 1 1 
1 1 1 1 1 1 1 1 1 
1 1 1 1 1 1 1 1 1 
1 1 1 1 1 1 1 1 1 
1 1 1 1 1 1 1 1 1 
1 1 1 1 1 1 1 1 1 
1 1 1 1 1 1 1 1 1 
1 1 1 1 1 1 1 1 1 
1 1 1 1 1 1 1 1 1 
1 1 1 1 1 1 1 1 1 
1 1 1 1 1 1 1 1 1 
1 1 1 1 1 1 1 1 1 
1 1 1 1 1 1 1 1 1 
1 1 1 1 1 1 1 1 1 
1 1 1 1 1 1 1 1 1 
1 1 1 1 1 1 1 1 1 
1 1 1 1 1 1 1 1 1 
1 1 1 1 1 1 1 1 1 
1 1 1 1 1 1 1 1 1 
1 1 1 1 1 1 1 1 1 
1 1 1 1 1 1 1 1 1 
1 1 1 1 1 1 1 1 1 
1 1 1 1 1 1 1 1 1 
1 1 1 1 1 1 1 1 1 
1 1 1 1 1 1 1 1 1 
1 1 1 1 1 1 1 1 1 
1 1 1 1 1 1 1 1 1 
1 1 1 1 1 1 1 1 1 
1 1 1 1 1 1 1 1 1 
1 1 1 1 1 1 1 1 1 
1 1 1 1 1 1 1 1 1 
1 1 1 1 1 1 1 1 1 
1 1 1 1 1 1 1 1 1 
1 1 1 1 1 1 1 1 1 
1 1 1 1 1 1 1 1 1 
1 1 1 1 1 1 1 1 1 
1 1 1 1 1 1 1 1 1 
1 1 1 1 1 1 1 1 1 
1 1 1 1 1 1 1 1 1 
1 1 1 1 1 1 1 1 1 
1 1 1 1 1 1 1 1 1 
1 1 1 1 1 1 1 1 1 
1 1 1 1 1 1 1 1 1 
1 1 1 1 1 1 1 1 1 
1 1 1 1 1 1 1 1 1 
1 1 1 1 1 1 1 1 1 
1 1 1 1 1 1 1 1 1 
1 1 1 1 1 1 1 1 1 
1 1 1 1 1 1 1 1 1 
1 1 1 1 1 1 1 1 1 
1 1 1 1 1 1 1 1 1 
1 1 1 1 1 1 1 1 1 
1 1 1 1 1 1 1 1 1 
1 1 1 1 1 1 1 1 1 
1 1 1 1 1 1 1 1 1 
1 1 1 1 1 1 1 1 1 
1 1 1 1 1 1 1 1 1 
1 1 1 1 1 1 1 1 1 
1 1 1 1 1 1 1 1 1 
1 1 1 1 1 1 1 1 1 
1 1 1 1 1 1 1 1 1 
1 1 1 1 1 1 1 1 1 
1 1 1 1 1 1 1 1 1 
1 1 1 1 1 1 1 1 1 
1 1 1 1 1 1 1 1 1 
1 1 1 1 1 1 1 1 1 
1 1 1 1 1 1 1 1 1 
1 1 1 1 1 1 1 1 1 
1 1 1 1 1 1 1 1 1 
1 1 1 1 1 1 1 1 1 
1 1 1 1 1 1 1 1 1 
1 1 1 1 1 1 1 1 1 
1 1 1 1 1 1 1 1 1 
1 1 1 1 1 1 1 1 1 
1 1 1 1 1 1 1 1 1 
1 1 1 1 1 1 1 1 1 
1 1 1 1 1 1 1 1 1 
1 1 1 1 1 1 1 1 1 
1 1 1 1 1 1 1 1 1 
1 1 1 1 1 1 1 1 1 
1 1 1 1 1 1 1 1 1 
1 1 1 1 1 1 1 1 1 
1 1 1 1 1 1 1 1 1 
1 1 1 1 1 1 1 1 1 
1 1 1 1 1 1 1 1 1 
1 1 1 1 1 1 1 1 1 
1 1 1 1 1 1 1 1 1 
1 1 1 1 1 1 1 1 1 
1 1 1 1 1 1 1 1 1 
1 1 1 1 1 1 1 1 1 
1 1 1 1 1 1 1 1 1 
1 1 1 1 1 1 1 1 1 
1 1 1 1 1 1 1 1 1 
1 1 1 1 1 1 1 1 1 
1 1 1 1 1 1 1 1 1 
1 1 1 1 1 1 1 1 1 
1 1 1 1 1 1 1 1 1 
1 1 1 1 1 1 1 1 1 
1 1 1 1 1 1 1 1 1 
1 1 1 1 1 1 1 1 1 
1 1 1 1 1 1 1 1 1 
1 1 1 1 1 1 1 1 1 
1 1 1 1 1 1 1 1 1 
1 1 1 1 1 1 1 1 1 
1 1 1 1 1 1 1 1 1 
1 1 1 1 1 1 1 1 1 
1 1 1 1 1 1 1 1 1 
1 1 1 1 1 1 1 1 1 
1 1 1 1 1 1 1 1 1 
1 1 1 1 1 1 1 1 1 
1 1 1 1 1 1 1 1 1 
1 1 1 1 1 1 1 1 1 
1 1 1 1 1 
i 3 1355 int
0 0 0 0 0 0 0 0 0 
0 0 0 0 0 0 0 0 0 
0 0 0 0 0 0 0 0 0 
0 0 0 0 0 0 0 0 0 
0 0 0 0 0 0 0 0 0 
0 0 0 0 0 0 0 0 0 
0 0 0 0 0 0 0 0 0 
0 0 0 0 0 0 0 0 0 
0 0 0 0 0 0 0 0 0 
0 0 0 0 0 0 0 0 0 
0 0 0 0 0 0 0 0 0 
0 0 0 0 0 0 0 0 0 
0 0 0 0 0 0 0 0 0 
0 0 0 0 0 0 0 0 0 
0 0 0 0 0 0 0 0 0 
0 0 0 0 0 0 0 0 0 
0 0 0 0 0 0 0 0 0 
0 0 0 0 0 0 0 0 0 
0 0 0 0 0 0 0 0 0 
0 0 0 0 0 0 0 0 0 
0 0 0 0 0 0 0 0 0 
0 0 0 0 0 0 0 0 0 
0 0 0 0 0 0 0 0 0 
0 0 0 0 0 0 0 0 0 
0 0 0 0 0 0 0 0 0 
0 0 0 0 0 0 0 0 0 
0 0 0 0 0 0 0 0 0 
0 0 0 0 0 0 0 0 0 
0 0 0 0 0 0 0 0 0 
0 0 0 0 0 0 0 0 0 
0 0 0 0 0 0 0 0 0 
0 0 0 0 0 0 0 0 0 
0 0 0 0 0 0 0 0 0 
0 0 0 0 0 0 0 0 0 
0 0 0 0 0 0 0 0 0 
0 0 0 0 0 0 0 0 0 
0 0 0 0 0 0 0 0 0 
0 0 0 0 0 0 0 0 0 
0 0 0 0 0 0 0 0 0 
0 0 0 0 0 0 0 0 0 
0 0 0 0 0 0 0 0 0 
0 0 0 0 0 0 0 0 0 
0 0 0 0 0 0 0 0 0 
0 0 0 0 0 0 0 0 0 
0 0 0 0 0 0 0 0 0 
0 0 0 0 0 0 0 0 0 
0 0 0 0 0 0 0 0 0 
0 0 0 0 0 0 0 0 0 
0 0 0 0 0 0 0 0 0 
0 0 0 0 0 0 0 0 0 
0 0 0 0 0 0 0 0 0 
0 0 0 0 0 0 0 0 0 
0 0 0 0 0 0 0 0 0 
0 0 0 0 0 0 0 0 0 
0 0 0 0 0 0 0 0 0 
0 0 0 0 0 0 0 0 0 
0 0 0 0 0 0 0 0 0 
0 0 0 0 0 0 0 0 0 
0 0 0 0 0 0 0 0 0 
0 0 0 0 0 0 0 0 0 
0 0 0 0 0 0 0 0 0 
0 0 0 0 0 0 0 0 0 
0 0 0 0 0 0 0 0 0 
0 0 0 0 0 0 0 0 0 
0 0 0 0 0 0 0 0 0 
0 0 0 0 0 0 0 0 0 
0 0 0 0 0 0 0 0 0 
0 0 0 0 0 0 0 0 0 
0 0 0 0 0 0 0 0 0 
0 0 0 0 0 0 0 0 0 
0 0 0 0 0 0 0 0 0 
0 0 0 0 0 0 0 0 0 
0 0 0 0 0 0 0 0 0 
0 0 0 0 0 0 0 0 0 
0 0 0 0 0 0 0 0 0 
0 0 0 0 0 0 0 0 0 
0 0 0 0 0 0 0 0 0 
0 0 0 0 0 0 0 0 0 
0 0 0 0 0 0 0 0 0 
0 0 0 0 0 0 0 0 0 
0 0 0 0 0 0 0 0 0 
0 0 0 0 0 0 0 0 0 
0 0 0 0 0 0 0 0 0 
0 0 0 0 0 0 0 0 0 
0 0 0 0 0 0 0 0 0 
0 0 0 0 0 0 0 0 0 
0 0 0 0 0 0 0 0 0 
0 0 0 0 0 0 0 0 0 
0 0 0 0 0 0 0 0 0 
0 0 0 0 0 0 0 0 0 
0 0 0 0 0 0 0 0 0 
0 0 0 0 0 0 0 0 0 
0 0 0 0 0 0 0 0 0 
0 0 0 0 0 0 0 0 0 
0 0 0 0 0 0 0 0 0 
0 0 0 0 0 0 0 0 0 
0 0 0 0 0 0 0 0 0 
0 0 0 0 0 0 0 0 0 
0 0 0 0 0 0 0 0 0 
0 0 0 0 0 0 0 0 0 
0 0 0 0 0 0 0 0 0 
0 0 0 0 0 0 0 0 0 
0 0 0 0 0 0 0 0 0 
0 0 0 0 0 0 0 0 0 
0 0 0 0 0 0 0 0 0 
0 0 0 0 0 0 0 0 0 
0 0 0 0 0 0 0 0 0 
0 0 0 0 0 0 0 0 0 
0 0 0 0 0 0 0 0 0 
0 0 0 0 0 0 0 0 0 
0 0 0 0 0 0 0 0 0 
0 0 0 0 0 0 0 0 0 
0 0 0 0 0 0 0 0 0 
0 0 0 0 0 0 0 0 0 
0 0 0 0 0 0 0 0 0 
0 0 0 0 0 0 0 0 0 
0 0 0 0 0 0 0 0 0 
0 0 0 0 0 0 0 0 0 
0 0 0 0 0 0 0 0 0 
0 0 0 0 0 0 0 0 0 
0 0 0 0 0 0 0 0 0 
0 0 0 0 0 0 0 0 0 
0 0 0 0 0 0 0 0 0 
0 0 0 0 0 0 0 0 0 
0 0 0 0 0 0 0 0 0 
0 0 0 0 0 0 0 0 0 
0 0 0 0 0 0 0 0 0 
0 0 0 0 0 0 0 0 0 
0 0 0 0 0 0 0 0 0 
0 0 0 0 0 0 0 0 0 
0 0 0 0 0 0 0 0 0 
0 0 0 0 0 0 0 0 0 
0 0 0 0 0 0 0 0 0 
0 0 0 0 0 0 0 0 0 
0 0 0 0 0 0 0 0 0 
0 0 0 0 0 0 0 0 0 
0 0 0 0 0 0 0 0 0 
0 0 0 0 0 0 0 0 0 
0 0 0 0 0 0 0 0 0 
0 0 0 0 0 0 0 0 0 
0 0 0 0 0 0 0 0 0 
0 0 0 0 0 0 0 0 0 
0 0 0 0 0 0 0 0 0 
0 0 0 0 0 0 0 0 0 
0 0 0 0 0 0 0 0 0 
0 0 0 0 0 0 0 0 0 
0 0 0 0 0 0 0 0 0 
0 0 0 0 0 0 0 0 0 
0 0 0 0 0 0 0 0 0 
0 0 0 0 0 0 0 0 0 
0 0 0 0 0 0 0 0 0 
0 0 0 0 0 0 0 0 0 
0 0 0 0 0 0 0 0 0 
0 0 0 0 0 0 0 0 0 
0 0 0 0 0 0 0 0 0 
0 0 0 0 0 0 0 0 0 
0 0 0 0 0 0 0 0 0 
0 0 0 0 0 0 0 0 0 
0 0 0 0 0 0 0 0 0 
0 0 0 0 0 0 0 0 0 
0 0 0 0 0 0 0 0 0 
0 0 0 0 0 0 0 0 0 
0 0 0 0 0 0 0 0 0 
0 0 0 0 0 0 0 0 0 
0 0 0 0 0 0 0 0 0 
0 0 0 0 0 0 0 0 0 
0 0 0 0 0 0 0 0 0 
0 0 0 0 0 0 0 0 0 
0 0 0 0 0 0 0 0 0 
0 0 0 0 0 0 0 0 0 
0 0 0 0 0 0 0 0 0 
0 0 0 0 0 0 0 0 0 
0 0 0 0 0 0 0 0 0 
0 0 0 0 0 0 0 0 0 
0 0 0 0 0 0 0 0 0 
0 0 0 0 0 0 0 0 0 
0 0 0 0 0 0 0 0 0 
0 0 0 0 0 0 0 0 0 
0 0 0 0 0 0 0 0 0 
0 0 0 0 0 0 0 0 0 
0 0 0 0 0 0 0 0 0 
0 0 0 0 0 0 0 0 0 
0 0 0 0 0 0 0 0 0 
0 0 0 0 0 0 0 0 0 
0 0 0 0 0 0 0 0 0 
0 0 0 0 0 0 0 0 0 
0 0 0 0 0 0 0 0 0 
0 0 0 0 0 0 0 0 0 
0 0 0 0 0 0 0 0 0 
0 0 0 0 0 0 0 0 0 
0 0 0 0 0 0 0 0 0 
0 0 0 0 0 0 0 0 0 
0 0 0 0 0 0 0 0 0 
0 0 0 0 0 0 0 0 0 
0 0 0 0 0 0 0 0 0 
0 0 0 0 0 0 0 0 0 
0 0 0 0 0 0 0 0 0 
0 0 0 0 0 0 0 0 0 
0 0 0 0 0 0 0 0 0 
0 0 0 0 0 0 0 0 0 
0 0 0 0 0 0 0 0 0 
0 0 0 0 0 0 0 0 0 
0 0 0 0 0 0 0 0 0 
0 0 0 0 0 0 0 0 0 
0 0 0 0 0 0 0 0 0 
0 0 0 0 0 0 0 0 0 
0 0 0 0 0 0 0 0 0 
0 0 0 0 0 0 0 0 0 
0 0 0 0 0 0 0 0 0 
0 0 0 0 0 0 0 0 0 
0 0 0 0 0 0 0 0 0 
0 0 0 0 0 0 0 0 0 
0 0 0 0 0 0 0 0 0 
0 0 0 0 0 0 0 0 0 
0 0 0 0 0 0 0 0 0 
0 0 0 0 0 0 0 0 0 
0 0 0 0 0 0 0 0 0 
0 0 0 0 0 0 0 0 0 
0 0 0 0 0 0 0 0 0 
0 0 0 0 0 0 0 0 0 
0 0 0 0 0 0 0 0 0 
0 0 0 0 0 0 0 0 0 
0 0 0 0 0 0 0 0 0 
0 0 0 0 0 0 0 0 0 
0 0 0 0 0 0 0 0 0 
0 0 0 0 0 0 0 0 0 
0 0 0 0 0 0 0 0 0 
0 0 0 0 0 0 0 0 0 
0 0 0 0 0 0 0 0 0 
0 0 0 0 0 0 0 0 0 
0 0 0 0 0 0 0 0 0 
0 0 0 0 0 0 0 0 0 
0 0 0 0 0 0 0 0 0 
0 0 0 0 0 0 0 0 0 
0 0 0 0 0 0 0 0 0 
0 0 0 0 0 0 0 0 0 
0 0 0 0 0 0 0 0 0 
0 0 0 0 0 0 0 0 0 
0 0 0 0 0 0 0 0 0 
0 0 0 0 0 0 0 0 0 
0 0 0 0 0 0 0 0 0 
0 0 0 0 0 0 0 0 0 
0 0 0 0 0 0 0 0 0 
0 0 0 0 0 0 0 0 0 
0 0 0 0 0 0 0 0 0 
0 0 0 0 0 0 0 0 0 
0 0 0 0 0 0 0 0 0 
0 0 0 0 0 0 0 0 0 
0 0 0 0 0 0 0 0 0 
0 0 0 0 0 0 0 0 0 
0 0 0 0 0 0 0 0 0 
0 0 0 0 0 0 0 0 0 
0 0 0 0 0 0 0 0 0 
0 0 0 0 0 0 0 0 0 
0 0 0 0 0 0 0 0 0 
0 0 0 0 0 0 0 0 0 
0 0 0 0 0 0 0 0 0 
0 0 0 0 0 0 0 0 0 
0 0 0 0 0 0 0 0 0 
0 0 0 0 0 0 0 0 0 
0 0 0 0 0 0 0 0 0 
0 0 0 0 0 0 0 0 0 
0 0 0 0 0 0 0 0 0 
0 0 0 0 0 0 0 0 0 
0 0 0 0 0 0 0 0 0 
0 0 0 0 0 0 0 0 0 
0 0 0 0 0 0 0 0 0 
0 0 0 0 0 0 0 0 0 
0 0 0 0 0 0 0 0 0 
0 0 0 0 0 0 0 0 0 
0 0 0 0 0 0 0 0 0 
0 0 0 0 0 0 0 0 0 
0 0 0 0 0 0 0 0 0 
0 0 0 0 0 0 0 0 0 
0 0 0 0 0 0 0 0 0 
0 0 0 0 0 0 0 0 0 
0 0 0 0 0 0 0 0 0 
0 0 0 0 0 0 0 0 0 
0 0 0 0 0 0 0 0 0 
0 0 0 0 0 0 0 0 0 
0 0 0 0 0 0 0 0 0 
0 0 0 0 0 0 0 0 0 
0 0 0 0 0 0 0 0 0 
0 0 0 0 0 0 0 0 0 
0 0 0 0 0 0 0 0 0 
0 0 0 0 0 0 0 0 0 
0 0 0 0 0 0 0 0 0 
0 0 0 0 0 0 0 0 0 
0 0 0 0 0 0 0 0 0 
0 0 0 0 0 0 0 0 0 
0 0 0 0 0 0 0 0 0 
0 0 0 0 0 0 0 0 0 
0 0 0 0 0 0 0 0 0 
0 0 0 0 0 0 0 0 0 
0 0 0 0 0 0 0 0 0 
0 0 0 0 0 0 0 0 0 
0 0 0 0 0 0 0 0 0 
0 0 0 0 0 0 0 0 0 
0 0 0 0 0 0 0 0 0 
0 0 0 0 0 0 0 0 0 
0 0 0 0 0 0 0 0 0 
0 0 0 0 0 0 0 0 0 
0 0 0 0 0 0 0 0 0 
0 0 0 0 0 0 0 0 0 
0 0 0 0 0 0 0 0 0 
0 0 0 0 0 0 0 0 0 
0 0 0 0 0 0 0 0 0 
0 0 0 0 0 0 0 0 0 
0 0 0 0 0 0 0 0 0 
0 0 0 0 0 0 0 0 0 
0 0 0 0 0 0 0 0 0 
0 0 0 0 0 0 0 0 0 
0 0 0 0 0 0 0 0 0 
0 0 0 0 0 0 0 0 0 
0 0 0 0 0 0 0 0 0 
0 0 0 0 0 0 0 0 0 
0 0 0 0 0 0 0 0 0 
0 0 0 0 0 0 0 0 0 
0 0 0 0 0 0 0 0 0 
0 0 0 0 0 0 0 0 0 
0 0 0 0 0 0 0 0 0 
0 0 0 0 0 0 0 0 0 
0 0 0 0 0 0 0 0 0 
0 0 0 0 0 0 0 0 0 
0 0 0 0 0 0 0 0 0 
0 0 0 0 0 0 0 0 0 
0 0 0 0 0 0 0 0 0 
0 0 0 0 0 0 0 0 0 
0 0 0 0 0 0 0 0 0 
0 0 0 0 0 0 0 0 0 
0 0 0 0 0 0 0 0 0 
0 0 0 0 0 0 0 0 0 
0 0 0 0 0 0 0 0 0 
0 0 0 0 0 0 0 0 0 
0 0 0 0 0 0 0 0 0 
0 0 0 0 0 0 0 0 0 
0 0 0 0 0 0 0 0 0 
0 0 0 0 0 0 0 0 0 
0 0 0 0 0 0 0 0 0 
0 0 0 0 0 0 0 0 0 
0 0 0 0 0 0 0 0 0 
0 0 0 0 0 0 0 0 0 
0 0 0 0 0 0 0 0 0 
0 0 0 0 0 0 0 0 0 
0 0 0 0 0 0 0 0 0 
0 0 0 0 0 0 0 0 0 
0 0 0 0 0 0 0 0 0 
0 0 0 0 0 0 0 0 0 
0 0 0 0 0 0 0 0 0 
0 0 0 0 0 0 0 0 0 
0 0 0 0 0 0 0 0 0 
0 0 0 0 0 0 0 0 0 
0 0 0 0 0 0 0 0 0 
0 0 0 0 0 0 0 0 0 
0 0 0 0 0 0 0 0 0 
0 0 0 0 0 0 0 0 0 
0 0 0 0 0 0 0 0 0 
0 0 0 0 0 0 0 0 0 
0 0 0 0 0 0 0 0 0 
0 0 0 0 0 0 0 0 0 
0 0 0 0 0 0 0 0 0 
0 0 0 0 0 0 0 0 0 
0 0 0 0 0 0 0 0 0 
0 0 0 0 0 0 0 0 0 
0 0 0 0 0 0 0 0 0 
0 0 0 0 0 0 0 0 0 
0 0 0 0 0 0 0 0 0 
0 0 0 0 0 0 0 0 0 
0 0 0 0 0 0 0 0 0 
0 0 0 0 0 0 0 0 0 
0 0 0 0 0 0 0 0 0 
0 0 0 0 0 0 0 0 0 
0 0 0 0 0 0 0 0 0 
0 0 0 0 0 0 0 0 0 
0 0 0 0 0 0 0 0 0 
0 0 0 0 0 0 0 0 0 
0 0 0 0 0 0 0 0 0 
0 0 0 0 0 0 0 0 0 
0 0 0 0 0 0 0 0 0 
0 0 0 0 0 0 0 0 0 
0 0 0 0 0 0 0 0 0 
0 0 0 0 0 0 0 0 0 
0 0 0 0 0 0 0 0 0 
0 0 0 0 0 0 0 0 0 
0 0 0 0 0 0 0 0 0 
0 0 0 0 0 0 0 0 0 
0 0 0 0 0 0 0 0 0 
0 0 0 0 0 0 0 0 0 
0 0 0 0 0 0 0 0 0 
0 0 0 0 0 0 0 0 0 
0 0 0 0 0 0 0 0 0 
0 0 0 0 0 0 0 0 0 
0 0 0 0 0 0 0 0 0 
0 0 0 0 0 0 0 0 0 
0 0 0 0 0 0 0 0 0 
0 0 0 0 0 0 0 0 0 
0 0 0 0 0 0 0 0 0 
0 0 0 0 0 0 0 0 0 
0 0 0 0 0 0 0 0 0 
0 0 0 0 0 0 0 0 0 
0 0 0 0 0 0 0 0 0 
0 0 0 0 0 0 0 0 0 
0 0 0 0 0 0 0 0 0 
0 0 0 0 0 0 0 0 0 
0 0 0 0 0 0 0 0 0 
0 0 0 0 0 0 0 0 0 
0 0 0 0 0 0 0 0 0 
0 0 0 0 0 0 0 0 0 
0 0 0 0 0 0 0 0 0 
0 0 0 0 0 0 0 0 0 
0 0 0 0 0 0 0 0 0 
0 0 0 0 0 0 0 0 0 
0 0 0 0 0 0 0 0 0 
0 0 0 0 0 0 0 0 0 
0 0 0 0 0 0 0 0 0 
0 0 0 0 0 0 0 0 0 
0 0 0 0 0 0 0 0 0 
0 0 0 0 0 0 0 0 0 
0 0 0 0 0 0 0 0 0 
0 0 0 0 0 0 0 0 0 
0 0 0 0 0 0 0 0 0 
0 0 0 0 0 0 0 0 0 
0 0 0 0 0 0 0 0 0 
0 0 0 0 0 0 0 0 0 
0 0 0 0 0 0 0 0 0 
0 0 0 0 0 0 0 0 0 
0 0 0 0 0 0 0 0 0 
0 0 0 0 0 0 0 0 0 
0 0 0 0 0 0 0 0 0 
0 0 0 0 0 0 0 0 0 
0 0 0 0 0 0 0 0 0 
0 0 0 0 0 0 0 0 0 
0 0 0 0 0 0 0 0 0 
0 0 0 0 0 0 0 0 0 
0 0 0 0 0 0 0 0 0 
0 0 0 0 0 0 0 0 0 
0 0 0 0 0 0 0 0 0 
0 0 0 0 0 0 0 0 0 
0 0 0 0 0 0 0 0 0 
0 0 0 0 0 0 0 0 0 
0 0 0 0 0 0 0 0 0 
0 0 0 0 0 0 0 0 0 
0 0 0 0 0 0 0 0 0 
0 0 0 0 0 0 0 0 0 
0 0 0 0 0 0 0 0 0 
0 0 0 0 0 0 0 0 0 
0 0 0 0 0 0 0 0 0 
0 0 0 0 0 0 0 0 0 
0 0 0 0 0 0 0 0 0 
0 0 0 0 0 0 0 0 0 
0 0 0 0 0 0 0 0 0 
0 0 0 0 0 0 
v 3 1355 double
-0.00187611 0.00106226 -0.000263639 0.00423513 0.00170981 0.00161875 0.00402871 0.00288436 0.00134966 
0.00493655 0.00187286 0.00218322 0.00769639 0.00492763 0.00199579 0.00927533 0.00493233 0.00414912 
0.00767659 0.00229304 -0.00620266 0.00591429 -0.00260322 0.00157118 0.00609891 0.000750741 -0.000287071 
0.0107992 -0.0131827 -0.0021802 0.0131725 -0.00086412 0.00835972 0.0115612 0.00164184 0.000705017 
0.0158457 -0.000700928 -5.60191e-05 0.0198284 -3.60978e-05 0.000489509 0.0225425 -0.000480522 -0.000206619 
0.0214918 0.000120271 4.37187e-05 0.0213125 -0.000544065 -0.000487632 -0.000560885 -3.89408e-05 0.000387417 
-2.82578e-05 -0.000453023 0.000236393 0.000313169 0.00021733 0.000200424 0.000164358 5.46782e-05 0.000153755 
7.50369e-05 2.71179e-05 5.8258e-06 0.00115649 0.00422721 -0.000190877 0.00152011 0.0024771 1.87189e-05 
0.00747071 0.00030166 -0.000373761 0.00347572 0.0044145 0.00185668 0.00771148 0.00330992 -0.00537988 
0.0118428 0.00111261 -0.00490429 0.00372111 0.00539132 -0.00443531 0.00301358 -0.0047777 -0.0117999 
0.000121648 -0.0143057 -0.00478993 0.0054551 -0.0062103 0.000174284 0.00759971 0.000697553 0.00374692 
0.0178699 0.000581722 -0.00178395 0.0187314 -0.000150858 -0.000269639 0.0213906 -0.000110547 0.000610474 
0.0226188 0.000691829 0.000364909 0.0233748 -0.00282303 -0.000274326 0.0095943 0.00661053 -0.000397969 
-0.000459052 -0.00069847 -1.40484e-05 -0.000851288 -0.000351957 0.000121961 -0.00079455 0.000466159 -8.3608e-05 
-0.000121905 2.92833e-05 -0.00019356 7.4864e-05 -4.13511e-05 -1.35669e-05 0.000686097 0.00481761 -0.000824296 
-0.000656937 0.00219591 9.71187e-05 0.00283308 -0.0015532 -0.00196355 0.0119183 0.00453336 -0.00332227 
0.0112729 0.00796341 0.000132154 0.00691422 0.00502537 -0.00184133 0.00544997 0.0132024 -0.0125703 
0.00623272 -0.0155612 -0.00824553 0.00558644 -0.0218182 -0.0043487 0.014539 -0.00988912 -0.0212018 
0.0090522 0.0105055 0.00777647 0.0262951 0.00095607 -0.000954353 0.0242093 0.00248507 -0.00200717 
0.0234409 0.000327949 0.00177949 0.0204079 0.00177157 0.001791 0.0211386 -0.00446664 -0.000442233 
0.00980085 -0.00656851 -0.00179307 0.0102827 0.00156398 -0.00265113 0.000440904 -0.00221819 0.00365404 
-0.00123106 0.00047802 0.000363698 -0.000426786 0.000115091 -6.40669e-05 6.82842e-05 6.76449e-05 5.40555e-05 
-0.00126531 0.00431015 -0.000503731 0.00662717 0.000271805 0.00310929 0.000273489 0.00223539 0.0032315 
0.00678189 0.0126088 0.00101166 0.00559074 0.0109428 0.00104853 0.000863911 0.0104066 0.0136971 
0.0121128 0.00207333 -0.00115329 0.0359696 -0.00425234 -0.0215314 0.0260068 0.00587732 -0.0033384 