# vtk DataFile Version 4.0
Generated by LIGGGHTS
ASCII
DATASET POLYDATA
POINTS 1355 float
-0.89866 -0.460492 -0.460321 -0.771236 -0.460301 -0.460591 -0.691776 -0.460228 -0.460636 
-0.61186 -0.460889 -0.460676 -0.530785 -0.460662 -0.460599 -0.451211 -0.460175 -0.460388 
-0.371375 -0.460067 -0.460909 -0.268604 -0.460245 -0.460729 -0.164055 -0.460831 -0.460518 
-0.0839989 -0.460099 -0.460357 0.0701734 -0.459624 -0.460151 0.151952 -0.459631 -0.460463 
0.232022 -0.460494 -0.460652 0.311274 -0.452984 -0.460305 0.390716 -0.460002 -0.46057 
0.470518 -0.460171 -0.460503 0.584016 -0.460491 -0.460957 0.664439 -0.460352 -0.460456 
0.743908 -0.460176 -0.460567 0.823148 -0.460148 -0.461173 0.904078 -0.460334 -0.460747 
-0.960729 -0.411223 -0.461052 -0.887121 -0.381105 -0.460742 -0.731749 -0.389416 -0.460839 
-0.651087 -0.391832 -0.460386 -0.571523 -0.392867 -0.459973 -0.491675 -0.391099 -0.460347 
-0.41153 -0.391019 -0.460608 -0.329496 -0.389305 -0.460037 -0.205149 -0.393196 -0.460174 
-0.125431 -0.39145 -0.461248 0.0289504 -0.391269 -0.460379 0.115097 -0.383087 -0.461289 
0.19405 -0.390978 -0.460573 0.272689 -0.376868 -0.460454 0.352979 -0.384525 -0.460839 
0.433211 -0.389466 -0.460583 0.526435 -0.403256 -0.460625 0.623393 -0.391929 -0.460861 
0.703877 -0.391169 -0.46034 0.783945 -0.389553 -0.460147 0.863824 -0.391702 -0.460263 
0.960206 -0.403459 -0.460648 -0.953284 -0.332579 -0.46005 -0.879722 -0.301708 -0.460532 
-0.807312 -0.362491 -0.460157 -0.682241 -0.319169 -0.461836 -0.568698 -0.314541 -0.460783 
-0.489172 -0.311387 -0.46033 -0.405487 -0.311341 -0.460166 -0.264744 -0.341401 -0.460883 
-0.190675 -0.310186 -0.460739 -0.110519 -0.313659 -0.460353 -0.0435661 -0.357096 -0.460857 
0.0374549 -0.310921 -0.460183 0.162049 -0.317813 -0.460534 0.240906 -0.30367 -0.46034 
0.320753 -0.311457 -0.460689 0.400277 -0.316566 -0.460615 0.484303 -0.314624 -0.460393 
0.567488 -0.334881 -0.460757 0.660774 -0.32223 -0.460203 0.740297 -0.320723 -0.460569 
0.881396 -0.314215 -0.46094 0.960306 -0.323986 -0.460593 -0.96088 -0.25392 -0.46036 
-0.802597 -0.282663 -0.460724 -0.728668 -0.252083 -0.460125 -0.627443 -0.261203 -0.459809 
-0.53508 -0.243149 -0.460328 -0.455504 -0.237407 -0.460751 -0.327453 -0.29285 -0.46044 
-0.145036 -0.241951 -0.460517 -0.0351387 -0.277673 -0.460771 0.102826 -0.264159 -0.460752 
0.189836 -0.242572 -0.460421 0.465589 -0.236832 -0.460597 0.541866 -0.259258 -0.460469 
0.618717 -0.257702 -0.440427 0.695406 -0.250538 -0.460626 0.774876 -0.249225 -0.460362 
0.881281 -0.234395 -0.460084 0.960263 -0.244308 -0.460354 -0.960567 -0.174458 -0.460489 
-0.891837 -0.21541 -0.460058 -0.8135 -0.20394 -0.460632 -0.67191 -0.195585 -0.460128 
-0.592522 -0.188139 -0.460497 -0.501861 -0.170992 -0.460452 -0.376213 -0.229811 -0.460264 
-0.297352 -0.218886 -0.460463 -0.218315 -0.210703 -0.460974 -0.0501897 -0.199601 -0.460321 
0.0296946 -0.23108 -0.46053 0.0903008 -0.176011 -0.461158 0.244892 -0.184743 -0.460141 
0.308694 -0.232548 -0.460402 0.38195 -0.200336 -0.460587 0.57035 -0.180479 -0.461509 
0.64983 -0.184841 -0.460657 0.730444 -0.176162 -0.460171 0.819721 -0.184123 -0.460625 
-0.891713 -0.135726 -0.46044 -0.812714 -0.124246 -0.460055 -0.744596 -0.164489 -0.460463 
-0.638431 -0.123173 -0.460543 -0.559234 -0.115719 -0.460438 -0.422692 -0.164877 -0.460436 
-0.343935 -0.154774 -0.461246 -0.264577 -0.146048 -0.460565 -0.154388 -0.162865 -0.460335 
-0.0834805 -0.126779 -0.460137 0.0142271 -0.152727 -0.461247 0.168699 -0.162371 -0.460388 
0.314125 -0.145685 -0.460478 0.422762 -0.120022 -0.461102 0.497555 -0.147435 -0.460627 
0.613517 -0.113513 -0.460284 0.805249 -0.106276 -0.460991 0.885264 -0.138622 -0.460621 
0.960361 -0.164682 -0.460337 -0.959146 -0.0750707 -0.460512 -0.862398 -0.0625826 -0.460643 
-0.780024 -0.0512521 -0.460869 -0.708825 -0.0862904 -0.460286 -0.582483 -0.0396227 -0.460552 
-0.496914 -0.0662516 -0.460286 -0.417509 -0.0816014 -0.4606 -0.338013 -0.0754383 -0.460331 
-0.201117 -0.0982072 -0.460579 -0.132759 -0.0583315 -0.460558 -0.0132304 -0.0715291 -0.460193 
0.0678635 -0.0423284 -0.460541 0.129101 -0.093418 -0.460294 0.20527 -0.067578 -0.460805 
0.284941 -0.0715308 -0.460993 0.364366 -0.0659315 -0.460116 0.439107 -0.0375219 -0.460413 
0.540826 -0.0804048 -0.460626 0.659963 -0.0402221 -0.460754 0.731834 -0.0751455 -0.460543 
0.960011 -0.0848617 -0.460693 -0.917355 -0.00565134 -0.460688 -0.831204 0.00963743 -0.460038 
-0.752829 0.0236428 -0.460513 -0.67784 -0.0128636 -0.460742 -0.464207 0.00637617 -0.460652 
-0.381383 -0.00719941 -0.460128 -0.300721 -0.00508522 -0.460803 -0.220859 -0.00591729 -0.460492 
-0.072961 -0.00650319 -0.46026 0.00520587 0.00633132 -0.46061 0.142813 -0.0146261 -0.460914 
0.218396 0.0108838 -0.460929 0.297648 0.00732897 -0.460695 0.377202 0.0128041 -0.460614 
0.584648 -0.0137858 -0.460566 0.763238 -0.00169432 -0.460078 0.836392 -0.0334388 -0.46049 
0.914155 -0.0195601 -0.461244 -0.961128 0.0604236 -0.460527 -0.882912 0.0697953 -0.460152 
-0.80493 0.084184 -0.461236 -0.726787 0.0985294 -0.460617 -0.639308 0.0819772 -0.460354 
-0.552295 0.0340978 -0.461074 -0.48871 0.0818931 -0.453857 -0.413903 0.0619658 -0.434186 
-0.339583 0.0642826 -0.461161 -0.260036 0.0636362 -0.460065 -0.13976 0.038422 -0.460392 
-0.0646571 0.0726153 -0.460172 0.0139994 0.0856471 -0.46089 0.0783065 0.0374195 -0.460557 
0.153221 0.064261 -0.460421 0.27008 0.0821857 -0.460536 0.396118 0.0900851 -0.460531 
0.457684 0.0400959 -0.460502 0.535358 0.0580257 -0.460121 0.61498 0.0601652 -0.460905 
0.691634 0.0330856 -0.460483 0.755961 0.0807456 -0.460555 0.827655 0.0455206 -0.460309 
0.894471 0.0890065 -0.460109 0.960614 0.0452001 -0.460247 -0.960445 0.13993 -0.460791 
-0.860534 0.146038 -0.460395 -0.782418 0.155714 -0.436453 -0.628246 0.161009 -0.460575 
-0.565213 0.112423 -0.460182 -0.501463 0.160156 -0.461128 -0.383781 0.130464 -0.460984 
-0.302485 0.134692 -0.460361 -0.189701 0.100736 -0.461008 -0.11686 0.132661 -0.460798 
-0.0338768 0.149809 -0.460669 0.0932941 0.121358 -0.460124 0.203246 0.125515 -0.460472 
0.330189 0.134393 -0.461002 0.482993 0.122937 -0.461089 0.566618 0.131695 -0.460483 
0.646311 0.133324 -0.460433 0.752335 0.160391 -0.461014 0.823211 0.124791 -0.460213 
0.960638 0.134131 -0.460539 -0.960294 0.219161 -0.460619 -0.825657 0.2177 -0.460409 
-0.710281 0.176334 -0.461236 -0.429787 0.195789 -0.460338 -0.347321 0.20074 -0.460127 
-0.224355 0.196649 -0.46053 -0.135305 0.210126 -0.460366 -0.0589388 0.232692 -0.46072 
0.0505186 0.189744 -0.460285 0.147622 0.182806 -0.460406 0.263337 0.176853 -0.461538 
0.336017 0.213495 -0.460328 0.413885 0.167333 -0.460393 0.517052 0.194885 -0.460707 
0.605111 0.201695 -0.460896 0.68509 0.202777 -0.460314 0.818616 0.204594 -0.460321 
0.889539 0.168559 -0.460291 0.960225 0.219126 -0.460281 -0.892282 0.260256 -0.460209 
-0.821879 0.297519 -0.460669 -0.751079 0.244879 -0.46049 -0.607096 0.250397 -0.460334 
-0.520425 0.249032 -0.460596 -0.392239 0.26624 -0.460581 -0.286091 0.251071 -0.460539 
-0.183252 0.273392 -0.461296 0.0138077 0.265015 -0.46045 0.10916 0.252697 -0.460467 
0.189114 0.253292 -0.460254 0.268848 0.255909 -0.46014 0.379501 0.280161 -0.460229 
0.448184 0.23905 -0.460718 0.558043 0.265924 -0.461094 0.64484 0.271347 -0.4604 
0.751683 0.247587 -0.460251 0.885776 0.2475 -0.460808 -0.960639 0.300404 -0.460223 
-0.891532 0.339931 -0.46043 -0.740632 0.323733 -0.460461 -0.661885 0.309129 -0.460068 
-0.570333 0.32121 -0.460318 -0.457742 0.351356 -0.461175 -0.332372 0.318965 -0.460475 
-0.247407 0.320138 -0.460196 -0.131069 0.346942 -0.460526 -0.0506983 0.311971 -0.460562 
0.0697539 0.321813 -0.461106 0.149356 0.322614 -0.460817 0.228991 0.324277 -0.460355 
0.311846 0.322878 -0.460634 0.419138 0.349365 -0.460737 0.488484 0.307386 -0.460789 
0.597475 0.33545 -0.460479 0.719485 0.320448 -0.460441 0.799604 0.319113 -0.460526 
0.879023 0.325725 -0.460363 0.956544 0.305401 -0.461022 -0.960288 0.380253 -0.460444 
-0.891284 0.420395 -0.460781 -0.774463 0.395835 -0.460348 -0.68875 0.384481 -0.460521 
-0.608855 0.391126 -0.460878 -0.52894 0.390416 -0.460189 -0.387525 0.395307 -0.460524 
-0.290411 0.386856 -0.460813 -0.201199 0.38453 -0.460646 -0.0637411 0.390632 -0.460627 
0.0186872 0.391558 -0.460557 0.107919 0.391437 -0.460336 0.187867 0.392429 -0.460827 
0.270934 0.391705 -0.460753 0.351517 0.391939 -0.460267 0.460639 0.417641 -0.46028 
0.529539 0.377353 -0.460296 0.676374 0.389745 -0.460453 0.756201 0.391012 -0.460199 
0.8371 0.393136 -0.46007 0.921606 0.391993 -0.46041 -0.960244 0.460165 -0.460139 
-0.821928 0.460078 -0.460378 -0.72775 0.460222 -0.460568 -0.648231 0.460337 -0.460467 
-0.568634 0.46008 -0.460344 -0.489134 0.460282 -0.460691 -0.340861 0.46008 -0.460117 
-0.260982 0.460454 -0.460082 -0.181388 0.4608 -0.460403 -0.102051 0.46034 -0.460814 
-0.0221274 0.460147 -0.460112 0.0671107 0.46009 -0.460738 0.146941 0.460597 -0.460626 
0.229791 0.460217 -0.460486 0.31075 0.460454 -0.460568 0.393029 0.460153 -0.460147 
0.528269 0.460057 -0.461095 0.635316 0.45984 -0.460864 0.715229 0.459975 -0.460431 
0.795049 0.460528 -0.460194 0.880426 0.460282 -0.46012 0.960384 0.460721 -0.460414 
-0.960187 -0.460745 -0.399588 -0.885342 -0.460169 -0.372525 -0.7315 -0.460273 -0.391433 
-0.651726 -0.460431 -0.392012 -0.571214 -0.460037 -0.392127 -0.491206 -0.460084 -0.391507 
-0.410913 -0.460015 -0.391714 -0.320457 -0.460472 -0.400432 -0.216465 -0.459922 -0.400354 
-0.1242 -0.46112 -0.391705 -0.00720682 -0.45991 -0.438782 0.111821 -0.460171 -0.391709 
0.192118 -0.460111 -0.391696 0.27167 -0.459768 -0.391677 0.351251 -0.460428 -0.391745 
0.43072 -0.460846 -0.391618 0.528149 -0.460729 -0.405138 0.624125 -0.460039 -0.392026 
0.704832 -0.458255 -0.391312 0.784138 -0.437239 -0.395582 0.862583 -0.459699 -0.392834 
0.960524 -0.460311 -0.405124 -0.960384 -0.382108 -0.387084 -0.834863 -0.429019 -0.425581 
-0.772861 -0.392009 -0.392594 -0.691746 -0.391258 -0.392012 -0.612195 -0.39545 -0.369368 
-0.532501 -0.38974 -0.389897 -0.451353 -0.391101 -0.391919 -0.269306 -0.400528 -0.408297 
[...]
POINT_DATA 1355
FIELD FieldData 7
id 1 1355 int
366 408 584 322 662 206 563 371 419 
523 145 607 585 151 530 365 186 620 
156 70 664 692 632 759 714 370 120 
208 723 59 512 435 712 211 457 20 
256 338 470 195 678 320 643 534 171 
196 105 493 581 542 514 245 234 347 
708 214 280 305 529 396 291 444 367 
476 155 724 314 136 721 375 250 442 
95 498 54 200 75 623 593 109 184 
446 647 159 267 289 373 275 324 62 
533 376 589 76 722 543 431 576 202 
572 683 676 445 83 641 185 331 96 
99 458 575 40 57 239 31 281 298 
126 300 48 680 521 531 428 254 592 
758 361 412 14 689 312 252 88 153 
397 483 170 704 321 140 726 143 142 
351 651 528 433 92 690 437 359 569 
304 439 339 639 177 700 378 459 310 
258 51 182 6 549 369 323 121 382 
507 423 154 495 224 612 720 590 539 
461 166 460 97 240 537 127 580 85 
544 293 697 634 129 104 602 742 161 
32 384 25 671 74 278 383 71 266 
19 22 627 717 162 218 348 247 167 
125 191 199 294 586 640 675 441 596 
149 475 463 387 269 130 8 748 420 
613 663 16 578 402 682 421 715 637 
299 698 747 261 622 355 571 411 42 
416 227 391 527 557 346 67 274 319 
242 649 9 73 766 409 535 89 4 
260 318 650 388 311 94 618 39 582 
53 673 729 3 69 496 363 201 188 
599 670 228 519 667 472 669 660 646 
654 43 230 226 306 427 316 614 764 
329 545 179 389 12 453 440 197 452 
90 551 686 38 587 285 725 743 181 
518 225 761 513 5 559 72 336 66 
116 78 628 131 679 959 103 273 1154 
276 516 47 233 325 223 666 157 455 
205 175 287 221 56 751 736 426 744 
642 611 302 413 473 741 108 684 118 
653 18 770 15 82 272 100 87 343 
532 490 219 601 290 465 110 438 372 
767 631 255 879 552 307 699 636 187 
550 80 313 645 279 556 511 114 757 
144 81 668 58 615 616 558 644 341 
189 407 36 462 597 357 565 554 29 
334 282 570 424 286 399 24 447 364 
183 478 566 492 394 718 169 248 621 
33 422 11 541 395 46 106 345 192 
86 60 236 44 112 497 429 479 540 
134 45 694 326 502 358 352 746 21 
629 522 711 137 271 2 524 111 102 
381 818 216 733 147 194 148 172 101 
775 443 415 28 738 710 146 474 180 
482 374 436 638 450 253 425 93 91 
215 505 403 520 277 591 84 133 626 
288 350 762 193 546 41 970 333 231 
330 135 928 574 308 328 232 703 432 
296 393 284 687 49 681 400 648 190 
128 392 610 209 760 35 665 122 503 
750 488 259 480 469 508 26 113 608 
123 222 709 340 456 251 417 17 292 
138 430 246 98 448 283 404 178 244 
132 63 583 464 891 600 1165 418 547 
763 499 553 229 494 385 617 672 467 
119 755 481 727 526 390 210 728 249 
217 573 871 769 354 158 510 7 604 
386 739 466 793 890 500 658 337 986 
1166 846 173 567 1184 468 781 927 735 
1066 1152 925 685 933 814 921 414 784 
265 943 504 787 268 935 831 910 362 
619 903 1173 688 652 867 410 768 973 
951 749 963 754 1061 1170 360 828 235 
696 779 1115 875 1147 207 241 702 1091 
907 454 812 1255 974 848 914 829 379 
295 707 937 176 982 838 870 932 509 
124 691 792 919 603 335 317 406 944 
1162 972 732 165 952 491 765 349 904 
894 901 655 79 851 471 734 786 981 
795 882 356 939 855 141 489 577 30 
501 204 674 536 886 486 918 861 824 
895 487 1284 731 800 309 50 605 975 
568 1052 908 630 1075 434 677 892 52 
801 794 905 27 1078 301 776 962 805 
990 911 332 164 1182 484 815 401 548 
327 198 926 737 977 657 954 922 656 
888 633 730 827 160 752 968 790 150 
34 560 783 243 695 477 538 220 887 
835 10 555 380 803 876 515 791 840 
955 65 77 342 719 107 804 23 706 
965 203 872 929 994 873 598 884 822 
713 774 237 659 1 13 61 960 398 
859 896 869 716 55 1041 1156 971 856 
115 506 909 813 257 821 564 139 263 
850 174 609 912 773 917 37 606 297 
830 368 881 625 353 1134 771 772 913 
562 405 845 880 451 949 885 117 525 
1001 303 262 785 213 68 635 64 661 
588 449 756 152 753 701 594 984 923 
315 579 377 485 961 212 693 878 938 
1243 561 270 906 1178 1079 1149 1312 866 
823 1334 1143 988 1076 956 825 1006 1330 
1141 163 1123 1093 930 1290 1051 958 809 
1211 1193 1279 1110 1003 1185 849 1133 1058 
1159 1288 1035 826 1231 844 1116 1339 1197 
1112 1073 832 1113 847 1167 1097 1049 1267 
1347 1000 1344 1291 1145 868 999 1125 995 
1160 1028 1071 1086 865 1186 993 1354 1316 
1032 1062 1139 1285 1099 1022 1036 1015 808 
1106 1350 1295 1054 1144 950 1056 1008 1322 
1021 1189 1129 857 1187 1246 902 985 1014 
1283 936 964 1103 1188 806 780 789 1130 
1013 1172 1020 1095 1050 1111 1138 916 992 
1174 1201 1105 820 782 1089 1065 1087 969 
1023 1135 1077 1012 834 1158 1179 924 1183 
1119 1082 1083 797 1026 807 980 1018 842 
953 967 1016 839 1067 1258 1176 947 978 
1010 1114 1048 931 1027 799 1150 1220 1216 
836 1037 810 893 1088 1273 1081 1311 1171 
1033 1046 1265 987 1100 1253 1017 1203 1009 
1109 862 819 1122 1272 843 837 934 899 
1080 852 915 948 1096 946 1069 1057 983 
860 1128 1104 997 874 1092 841 864 798 
811 1085 1148 1055 1126 1309 595 1280 1101 
998 1180 1029 1025 1163 889 344 1137 1177 
777 1053 796 1063 1011 1042 1230 877 1256 
976 1131 853 1060 858 989 1074 966 1281 
940 1045 1181 1124 1019 1068 1232 778 1118 
900 898 1157 854 1102 996 942 1169 168 
945 1287 1070 1136 1024 1117 1254 740 1059 
1307 1161 1098 979 1040 1208 1142 817 863 
1064 1262 957 883 238 517 816 897 788 
624 1252 1250 1004 1121 1303 1151 745 1233 
1140 941 1132 1190 1299 1305 1238 1327 1302 
1226 1247 1306 1275 1335 1217 1249 1251 1107 
1266 1210 1221 1034 1215 1276 1199 1329 1031 
802 1224 1323 1315 1297 1321 1341 1346 1005 
1202 1237 1228 1047 1213 1194 1209 1352 1325 
1263 1292 1192 833 1348 1205 1317 1270 1331 
1219 1342 1304 1242 1235 1223 1343 1039 1108 
1214 1319 1227 1084 1236 1326 1296 1301 1294 
1164 1308 1044 1333 1274 1349 1286 1259 1234 
1260 1345 1218 1127 1153 1282 1198 1269 1278 
1241 1293 1268 1204 1289 1168 1271 1207 1324 
1007 1043 1240 1072 1196 1175 1261 1314 1338 
1094 1300 1248 1191 1245 1222 1155 1038 1320 
1328 1351 1298 991 1229 1200 1195 1310 1355 
1090 1277 1244 1002 1212 1257 920 264 1353 
1146 705 1264 1225 1336 1318 1239 1337 1313 
1206 1030 1120 1340 1332 
type 1 1355 int
1 1 1 1 1 1 1 1 1 
1 1 1 1 1 1 1 1 1 
1 1 1 1 1 1 1 1 1 
1 1 1 1 1 1 1 1 1 
1 1 1 1 1 1 1 1 1 
1 1 1 1 1 1 1 1 1 
1 1 1 1 1 1 1 1 1 
1 1 1 1 1 1 1 1 1 
1 1 1 1 1 1 1 1 1 
1 1 1 1 1 1 1 1 1 
1 1 1 1 1 1 1 1 1 
1 1 1 1 1 1 1 1 1 
1 1 1 1 1 1 1 1 1 
1 1 1 1 1 1 1 1 1 
1 1 1 1 1 1 1 1 1 
1 1 1 1 1 1 1 1 1 
1 1 1 1 1 1 1 1 1 
1 1 1 1 1 1 1 1 1 
1 1 1 1 1 1 1 1 1 
1 1 1 1 1 1 1 1 1 
1 1 1 1 1 1 1 1 1 
1 1 1 1 1 1 1 1 1 
1 1 1 1 1 1 1 1 1 
1 1 1 1 1 1 1 1 1 
1 1 1 1 1 1 1 1 1 
1 1 1 1 1 1 1 1 1 
1 1 1 1 1 1 1 1 1 
1 1 1 1 1 1 1 1 1 
1 1 1 1 1 1 1 1 1 
1 1 1 1 1 1 1 1 1 
1 1 1 1 1 1 1 1 1 
1 1 1 1 1 1 1 1 1 
1 1 1 1 1 1 1 1 1 
1 1 1 1 1 1 1 1 1 
1 1 1 1 1 1 1 1 1 
1 1 1 1 1 1 1 1 1 
1 1 1 1 1 1 1 1 1 
1 1 1 1 1 1 1 1 1 
1 1 1 1 1 1 1 1 1 
1 1 1 1 1 1 1 1 1 
1 1 1 1 1 1 1 1 1 
1 1 1 1 1 1 1 1 1 
1 1 1 1 1 1 1 1 1 
1 1 1 1 1 1 1 1 1 
1 1 1 1 1 1 1 1 1 
1 1 1 1 1 1 1 1 1 
1 1 1 1 1 1 1 1 1 
1 1 1 1 1 1 1 1 1 
1 1 1 1 1 1 1 1 1 
1 1 1 1 1 1 1 1 1 
1 1 1 1 1 1 1 1 1 
1 1 1 1 1 1 1 1 1 
1 1 1 1 1 1 1 1 1 
1 1 1 1 1 1 1 1 1 
1 1 1 1 1 1 1 1 1 
1 1 1 1 1 1 1 1 1 
1 1 1 1 1 1 1 1 1 
1 1 1 1 1 1 1 1 1 
1 1 1 1 1 1 1 1 1 
1 1 1 1 1 1 1 1 1 
1 1 1 1 1 1 1 1 1 
1 1 1 1 1 1 1 1 1 
1 1 1 1 1 1 1 1 1 
1 1 1 1 1 1 1 1 1 
1 1 1 1 1 1 1 1 1 
1 1 1 1 1 1 1 1 1 
1 1 1 1 1 1 1 1 1 
1 1 1 1 1 1 1 1 1 
1 1 1 1 1 1 1 1 1 
1 1 1 1 1 1 1 1 1 
1 1 1 1 1 1 1 1 1 
1 1 1 1 1 1 1 1 1 
1 1 1 1 1 1 1 1 1 
1 1 1 1 1 1 1 1 1 
1 1 1 1 1 1 1 1 1 
1 1 1 1 1 1 1 1 1 
1 1 1 1 1 1 1 1 1 
1 1 1 1 1 1 1 1 1 
1 1 1 1 1 1 1 1 1 
1 1 1 1 1 1 1 1 1 
1 1 1 1 1 1 1 1 1 
1 1 1 1 1 1 1 1 1 
1 1 1 1 1 1 1 1 1 
1 1 1 1 1 1 1 1 1 
1 1 1 1 1 1 1 1 1 
1 1 1 1 1 1 1 1 1 
1 1 1 1 1 1 1 1 1 
1 1 1 1 1 1 1 1 1 
1 1 1 1 1 1 1 1 1 
1 1 1 1 1 1 1 1 1 
1 1 1 1 1 1 1 1 1 
1 1 1 1 1 1 1 1 1 
1 1 1 1 1 1 1 1 1 
1 1 1 1 1 1 1 1 1 
1 1 1 1 1 1 1 1 1 
1 1 1 1 1 1 1 1 1 
1 1 1 1 1 1 1 1 1 
1 1 1 1 1 1 1 1 1 
1 1 1 1 1 1 1 1 1 
1 1 1 1 1 1 1 1 1 
1 1 1 1 1 1 1 1 1 
1 1 1 1 1 1 1 1 1 
1 1 1 1 1 1 1 1 1 
1 1 1 1 1 1 1 1 1 
1 1 1 1 1 1 1 1 1 
1 1 1 1 1 1 1 1 1 
1 1 1 1 1 1 1 1 1 
1 1 1 1 1 1 1 1 1 
1 1 1 1 1 1 1 1 1 
1 1 1 1 1 1 1 1 1 
1 1 1 1 1 1 1 1 1 
1 1 1 1 1 1 1 1 1 
1 1 1 1 1 1 1 1 1 
1 1 1 1 1 1 1 1 1 
1 1 1 1 1 1 1 1 1 
1 1 1 1 1 1 1 1 1 
1 1 1 1 1 1 1 1 1 
1 1 1 1 1 1 1 1 1 
1 1 1 1 1 1 1 1 1 
1 1 1 1 1 1 1 1 1 
1 1 1 1 1 1 1 1 1 
1 1 1 1 1 1 1 1 1 
1 1 1 1 1 1 1 1 1 
1 1 1 1 1 1 1 1 1 
1 1 1 1 1 1 1 1 1 
1 1 1 1 1 1 1 1 1 
1 1 1 1 1 1 1 1 1 
1 1 1 1 1 1 1 1 1 
1 1 1 1 1 1 1 1 1 
1 1 1 1 1 1 1 1 1 
1 1 1 1 1 1 1 1 1 
1 1 1 1 1 1 1 1 1 
1 1 1 1 1 1 1 1 1 
1 1 1 1 1 1 1 1 1 
1 1 1 1 1 1 1 1 1 
1 1 1 1 1 1 1 1 1 
1 1 1 1 1 1 1 1 1 
1 1 1 1 1 1 1 1 1 
1 1 1 1 1 1 1 1 1 
1 1 1 1 1 1 1 1 1 
1 1 1 1 1 1 1 1 1 
1 1 1 1 1 1 1 1 1 
1 1 1 1 1 1 1 1 1 
1 1 1 1 1 1 1 1 1 
1 1 1 1 1 1 1 1 1 
1 1 1 1 1 1 1 1 1 
1 1 1 1 1 1 1 1 1 
1 1 1 1 1 1 1 1 1 
1 1 1 1 1 1 1 1 1 
1 1 1 1 1 1 1 1 1 
1 1 1 1 1 
i 3 1355 int
0 0 0 0 0 0 0 0 0 
0 0 0 0 0 0 0 0 0 
0 0 0 0 0 0 0 0 0 
0 0 0 0 0 0 0 0 0 
0 0 0 0 0 0 0 0 0 
0 0 0 0 0 0 0 0 0 
0 0 0 0 0 0 0 0 0 
0 0 0 0 0 0 0 0 0 
0 0 0 0 0 0 0 0 0 
0 0 0 0 0 0 0 0 0 
0 0 0 0 0 0 0 0 0 
0 0 0 0 0 0 0 0 0 
0 0 0 0 0 0 0 0 0 
0 0 0 0 0 0 0 0 0 
0 0 0 0 0 0 0 0 0 
0 0 0 0 0 0 0 0 0 
0 0 0 0 0 0 0 0 0 
0 0 0 0 0 0 0 0 0 
0 0 0 0 0 0 0 0 0 
0 0 0 0 0 0 0 0 0 
0 0 0 0 0 0 0 0 0 
0 0 0 0 0 0 0 0 0 
0 0 0 0 0 0 0 0 0 
0 0 0 0 0 0 0 0 0 
0 0 0 0 0 0 0 0 0 
0 0 0 0 0 0 0 0 0 
0 0 0 0 0 0 0 0 0 
0 0 0 0 0 0 0 0 0 
0 0 0 0 0 0 0 0 0 
0 0 0 0 0 0 0 0 0 
0 0 0 0 0 0 0 0 0 
0 0 0 0 0 0 0 0 0 
0 0 0 0 0 0 0 0 0 
0 0 0 0 0 0 0 0 0 
0 0 0 0 0 0 0 0 0 
0 0 0 0 0 0 0 0 0 
0 0 0 0 0 0 0 0 0 
0 0 0 0 0 0 0 0 0 
0 0 0 0 0 0 0 0 0 
0 0 0 0 0 0 0 0 0 
0 0 0 0 0 0 0 0 0 
0 0 0 0 0 0 0 0 0 
0 0 0 0 0 0 0 0 0 
0 0 0 0 0 0 0 0 0 
0 0 0 0 0 0 0 0 0 
0 0 0 0 0 0 0 0 0 
0 0 0 0 0 0 0 0 0 
0 0 0 0 0 0 0 0 0 
0 0 0 0 0 0 0 0 0 
0 0 0 0 0 0 0 0 0 
0 0 0 0 0 0 0 0 0 
0 0 0 0 0 0 0 0 0 
0 0 0 0 0 0 0 0 0 
0 0 0 0 0 0 0 0 0 
0 0 0 0 0 0 0 0 0 
0 0 0 0 0 0 0 0 0 
0 0 0 0 0 0 0 0 0 
0 0 0 0 0 0 0 0 0 
0 0 0 0 0 0 0 0 0 
0 0 0 0 0 0 0 0 0 
0 0 0 0 0 0 0 0 0 
0 0 0 0 0 0 0 0 0 
0 0 0 0 0 0 0 0 0 
0 0 0 0 0 0 0 0 0 
0 0 0 0 0 0 0 0 0 
0 0 0 0 0 0 0 0 0 
0 0 0 0 0 0 0 0 0 
0 0 0 0 0 0 0 0 0 
0 0 0 0 0 0 0 0 0 
0 0 0 0 0 0 0 0 0 
0 0 0 0 0 0 0 0 0 
0 0 0 0 0 0 0 0 0 
0 0 0 0 0 0 0 0 0 
0 0 0 0 0 0 0 0 0 
0 0 0 0 0 0 0 0 0 
0 0 0 0 0 0 0 0 0 
0 0 0 0 0 0 0 0 0 
0 0 0 0 0 0 0 0 0 
0 0 0 0 0 0 0 0 0 
0 0 0 0 0 0 0 0 0 
0 0 0 0 0 0 0 0 0 
0 0 0 0 0 0 0 0 0 
0 0 0 0 0 0 0 0 0 
0 0 0 0 0 0 0 0 0 
0 0 0 0 0 0 0 0 0 
0 0 0 0 0 0 0 0 0 
0 0 0 0 0 0 0 0 0 
0 0 0 0 0 0 0 0 0 
0 0 0 0 0 0 0 0 0 
0 0 0 0 0 0 0 0 0 
0 0 0 0 0 0 0 0 0 
0 0 0 0 0 0 0 0 0 
0 0 0 0 0 0 0 0 0 
0 0 0 0 0 0 0 0 0 
0 0 0 0 0 0 0 0 0 
0 0 0 0 0 0 0 0 0 
0 0 0 0 0 0 0 0 0 
0 0 0 0 0 0 0 0 0 
0 0 0 0 0 0 0 0 0 
0 0 0 0 0 0 0 0 0 
0 0 0 0 0 0 0 0 0 
0 0 0 0 0 0 0 0 0 
0 0 0 0 0 0 0 0 0 
0 0 0 0 0 0 0 0 0 
0 0 0 0 0 0 0 0 0 
0 0 0 0 0 0 0 0 0 
0 0 0 0 0 0 0 0 0 
0 0 0 0 0 0 0 0 0 
0 0 0 0 0 0 0 0 0 
0 0 0 0 0 0 0 0 0 
0 0 0 0 0 0 0 0 0 
0 0 0 0 0 0 0 0 0 
0 0 0 0 0 0 0 0 0 
0 0 0 0 0 0 0 0 0 
0 0 0 0 0 0 0 0 0 
0 0 0 0 0 0 0 0 0 
0 0 0 0 0 0 0 0 0 
0 0 0 0 0 0 0 0 0 
0 0 0 0 0 0 0 0 0 
0 0 0 0 0 0 0 0 0 
0 0 0 0 0 0 0 0 0 
0 0 0 0 0 0 0 0 0 
0 0 0 0 0 0 0 0 0 
0 0 0 0 0 0 0 0 0 
0 0 0 0 0 0 0 0 0 
0 0 0 0 0 0 0 0 0 
0 0 0 0 0 0 0 0 0 
0 0 0 0 0 0 0 0 0 
0 0 0 0 0 0 0 0 0 
0 0 0 0 0 0 0 0 0 
0 0 0 0 0 0 0 0 0 
0 0 0 0 0 0 0 0 0 
0 0 0 0 0 0 0 0 0 
0 0 0 0 0 0 0 0 0 
0 0 0 0 0 0 0 0 0 
0 0 0 0 0 0 0 0 0 
0 0 0 0 0 0 0 0 0 
0 0 0 0 0 0 0 0 0 
0 0 0 0 0 0 0 0 0 
0 0 0 0 0 0 0 0 0 
0 0 0 0 0 0 0 0 0 
0 0 0 0 0 0 0 0 0 
0 0 0 0 0 0 0 0 0 
0 0 0 0 0 0 0 0 0 
0 0 0 0 0 0 0 0 0 
0 0 0 0 0 0 0 0 0 
0 0 0 0 0 0 0 0 0 
0 0 0 0 0 0 0 0 0 
0 0 0 0 0 0 0 0 0 
0 0 0 0 0 0 0 0 0 
0 0 0 0 0 0 0 0 0 
0 0 0 0 0 0 0 0 0 
0 0 0 0 0 0 0 0 0 
0 0 0 0 0 0 0 0 0 
0 0 0 0 0 0 0 0 0 
0 0 0 0 0 0 0 0 0 
0 0 0 0 0 0 0 0 0 
0 0 0 0 0 0 0 0 0 
0 0 0 0 0 0 0 0 0 
0 0 0 0 0 0 0 0 0 
0 0 0 0 0 0 0 0 0 
0 0 0 0 0 0 0 0 0 
0 0 0 0 0 0 0 0 0 
0 0 0 0 0 0 0 0 0 
0 0 0 0 0 0 0 0 0 
0 0 0 0 0 0 0 0 0 
0 0 0 0 0 0 0 0 0 
0 0 0 0 0 0 0 0 0 
0 0 0 0 0 0 0 0 0 
0 0 0 0 0 0 0 0 0 
0 0 0 0 0 0 0 0 0 
0 0 0 0 0 0 0 0 0 
0 0 0 0 0 0 0 0 0 
0 0 0 0 0 0 0 0 0 
0 0 0 0 0 0 0 0 0 
0 0 0 0 0 0 0 0 0 
0 0 0 0 0 0 0 0 0 
0 0 0 0 0 0 0 0 0 
0 0 0 0 0 0 0 0 0 
0 0 0 0 0 0 0 0 0 
0 0 0 0 0 0 0 0 0 
0 0 0 0 0 0 0 0 0 
0 0 0 0 0 0 0 0 0 
0 0 0 0 0 0 0 0 0 
0 0 0 0 0 0 0 0 0 
0 0 0 0 0 0 0 0 0 
0 0 0 0 0 0 0 0 0 
0 0 0 0 0 0 0 0 0 
0 0 0 0 0 0 0 0 0 
0 0 0 0 0 0 0 0 0 
0 0 0 0 0 0 0 0 0 
0 0 0 0 0 0 0 0 0 
0 0 0 0 0 0 0 0 0 
0 0 0 0 0 0 0 0 0 
0 0 0 0 0 0 0 0 0 
0 0 0 0 0 0 0 0 0 
0 0 0 0 0 0 0 0 0 
0 0 0 0 0 0 0 0 0 
0 0 0 0 0 0 0 0 0 
0 0 0 0 0 0 0 0 0 
0 0 0 0 0 0 0 0 0 
0 0 0 0 0 0 0 0 0 
0 0 0 0 0 0 0 0 0 
0 0 0 0 0 0 0 0 0 
0 0 0 0 0 0 0 0 0 
0 0 0 0 0 0 0 0 0 
0 0 0 0 0 0 0 0 0 
0 0 0 0 0 0 0 0 0 
0 0 0 0 0 0 0 0 0 
0 0 0 0 0 0 0 0 0 
0 0 0 0 0 0 0 0 0 
0 0 0 0 0 0 0 0 0 
0 0 0 0 0 0 0 0 0 
0 0 0 0 0 0 0 0 0 
0 0 0 0 0 0 0 0 0 
0 0 0 0 0 0 0 0 0 
0 0 0 0 0 0 0 0 0 
0 0 0 0 0 0 0 0 0 
0 0 0 0 0 0 0 0 0 
0 0 0 0 0 0 0 0 0 
0 0 0 0 0 0 0 0 0 
0 0 0 0 0 0 0 0 0 
0 0 0 0 0 0 0 0 0 
0 0 0 0 0 0 0 0 0 
0 0 0 0 0 0 0 0 0 
0 0 0 0 0 0 0 0 0 
0 0 0 0 0 0 0 0 0 
0 0 0 0 0 0 0 0 0 
0 0 0 0 0 0 0 0 0 
0 0 0 0 0 0 0 0 0 
0 0 0 0 0 0 0 0 0 
0 0 0 0 0 0 0 0 0 
0 0 0 0 0 0 0 0 0 
0 0 0 0 0 0 0 0 0 
0 0 0 0 0 0 0 0 0 
0 0 0 0 0 0 0 0 0 
0 0 0 0 0 0 0 0 0 
0 0 0 0 0 0 0 0 0 
0 0 0 0 0 0 0 0 0 
0 0 0 0 0 0 0 0 0 
0 0 0 0 0 0 0 0 0 
0 0 0 0 0 0 0 0 0 
0 0 0 0 0 0 0 0 0 
0 0 0 0 0 0 0 0 0 
0 0 0 0 0 0 0 0 0 
0 0 0 0 0 0 0 0 0 
0 0 0 0 0 0 0 0 0 
0 0 0 0 0 0 0 0 0 
0 0 0 0 0 0 0 0 0 
0 0 0 0 0 0 0 0 0 
0 0 0 0 0 0 0 0 0 
0 0 0 0 0 0 0 0 0 
0 0 0 0 0 0 0 0 0 
0 0 0 0 0 0 0 0 0 
0 0 0 0 0 0 0 0 0 
0 0 0 0 0 0 0 0 0 
0 0 0 0 0 0 0 0 0 
0 0 0 0 0 0 0 0 0 
0 0 0 0 0 0 0 0 0 
0 0 0 0 0 0 0 0 0 
0 0 0 0 0 0 0 0 0 
0 0 0 0 0 0 0 0 0 
0 0 0 0 0 0 0 0 0 
0 0 0 0 0 0 0 0 0 
0 0 0 0 0 0 0 0 0 
0 0 0 0 0 0 0 0 0 
0 0 0 0 0 0 0 0 0 
0 0 0 0 0 0 0 0 0 
0 0 0 0 0 0 0 0 0 
0 0 0 0 0 0 0 0 0 
0 0 0 0 0 0 0 0 0 
0 0 0 0 0 0 0 0 0 
0 0 0 0 0 0 0 0 0 
0 0 0 0 0 0 0 0 0 
0 0 0 0 0 0 0 0 0 
0 0 0 0 0 0 0 0 0 
0 0 0 0 0 0 0 0 0 
0 0 0 0 0 0 0 0 0 
0 0 0 0 0 0 0 0 0 
0 0 0 0 0 0 0 0 0 
0 0 0 0 0 0 0 0 0 
0 0 0 0 0 0 0 0 0 
0 0 0 0 0 0 0 0 0 
0 0 0 0 0 0 0 0 0 
0 0 0 0 0 0 0 0 0 
0 0 0 0 0 0 0 0 0 
0 0 0 0 0 0 0 0 0 
0 0 0 0 0 0 0 0 0 
0 0 0 0 0 0 0 0 0 
0 0 0 0 0 0 0 0 0 
0 0 0 0 0 0 0 0 0 
0 0 0 0 0 0 0 0 0 
0 0 0 0 0 0 0 0 0 
0 0 0 0 0 0 0 0 0 
0 0 0 0 0 0 0 0 0 
0 0 0 0 0 0 0 0 0 
0 0 0 0 0 0 0 0 0 
0 0 0 0 0 0 0 0 0 
0 0 0 0 0 0 0 0 0 
0 0 0 0 0 0 0 0 0 
0 0 0 0 0 0 0 0 0 
0 0 0 0 0 0 0 0 0 
0 0 0 0 0 0 0 0 0 
0 0 0 0 0 0 0 0 0 
0 0 0 0 0 0 0 0 0 
0 0 0 0 0 0 0 0 0 
0 0 0 0 0 0 0 0 0 
0 0 0 0 0 0 0 0 0 
0 0 0 0 0 0 0 0 0 
0 0 0 0 0 0 0 0 0 
0 0 0 0 0 0 0 0 0 
0 0 0 0 0 0 0 0 0 
0 0 0 0 0 0 0 0 0 
0 0 0 0 0 0 0 0 0 
0 0 0 0 0 0 0 0 0 
0 0 0 0 0 0 0 0 0 
0 0 0 0 0 0 0 0 0 
0 0 0 0 0 0 0 0 0 
0 0 0 0 0 0 0 0 0 
0 0 0 0 0 0 0 0 0 
0 0 0 0 0 0 0 0 0 
0 0 0 0 0 0 0 0 0 
0 0 0 0 0 0 0 0 0 
0 0 0 0 0 0 0 0 0 
0 0 0 0 0 0 0 0 0 
0 0 0 0 0 0 0 0 0 
0 0 0 0 0 0 0 0 0 
0 0 0 0 0 0 0 0 0 
0 0 0 0 0 0 0 0 0 
0 0 0 0 0 0 0 0 0 
0 0 0 0 0 0 0 0 0 
0 0 0 0 0 0 0 0 0 
0 0 0 0 0 0 0 0 0 
0 0 0 0 0 0 0 0 0 
0 0 0 0 0 0 0 0 0 
0 0 0 0 0 0 0 0 0 
0 0 0 0 0 0 0 0 0 
0 0 0 0 0 0 0 0 0 
0 0 0 0 0 0 0 0 0 
0 0 0 0 0 0 0 0 0 
0 0 0 0 0 0 0 0 0 
0 0 0 0 0 0 0 0 0 
0 0 0 0 0 0 0 0 0 
0 0 0 0 0 0 0 0 0 
0 0 0 0 0 0 0 0 0 
0 0 0 0 0 0 0 0 0 
0 0 0 0 0 0 0 0 0 
0 0 0 0 0 0 0 0 0 
0 0 0 0 0 0 0 0 0 
0 0 0 0 0 0 0 0 0 
0 0 0 0 0 0 0 0 0 
0 0 0 0 0 0 0 0 0 
0 0 0 0 0 0 0 0 0 
0 0 0 0 0 0 0 0 0 
0 0 0 0 0 0 0 0 0 
0 0 0 0 0 0 0 0 0 
0 0 0 0 0 0 0 0 0 
0 0 0 0 0 0 0 0 0 
0 0 0 0 0 0 0 0 0 
0 0 0 0 0 0 0 0 0 
0 0 0 0 0 0 0 0 0 
0 0 0 0 0 0 0 0 0 
0 0 0 0 0 0 0 0 0 
0 0 0 0 0 0 0 0 0 
0 0 0 0 0 0 0 0 0 
0 0 0 0 0 0 0 0 0 
0 0 0 0 0 0 0 0 0 
0 0 0 0 0 0 0 0 0 
0 0 0 0 0 0 0 0 0 
0 0 0 0 0 0 0 0 0 
0 0 0 0 0 0 0 0 0 
0 0 0 0 0 0 0 0 0 
0 0 0 0 0 0 0 0 0 
0 0 0 0 0 0 0 0 0 
0 0 0 0 0 0 0 0 0 
0 0 0 0 0 0 0 0 0 
0 0 0 0 0 0 0 0 0 
0 0 0 0 0 0 0 0 0 
0 0 0 0 0 0 0 0 0 
0 0 0 0 0 0 0 0 0 
0 0 0 0 0 0 0 0 0 
0 0 0 0 0 0 0 0 0 
0 0 0 0 0 0 0 0 0 
0 0 0 0 0 0 0 0 0 
0 0 0 0 0 0 0 0 0 
0 0 0 0 0 0 0 0 0 
0 0 0 0 0 0 0 0 0 
0 0 0 0 0 0 0 0 0 
0 0 0 0 0 0 0 0 0 
0 0 0 0 0 0 0 0 0 
0 0 0 0 0 0 0 0 0 
0 0 0 0 0 0 0 0 0 
0 0 0 0 0 0 0 0 0 
0 0 0 0 0 0 0 0 0 
0 0 0 0 0 0 0 0 0 
0 0 0 0 0 0 0 0 0 
0 0 0 0 0 0 0 0 0 
0 0 0 0 0 0 0 0 0 
0 0 0 0 0 0 0 0 0 
0 0 0 0 0 0 0 0 0 
0 0 0 0 0 0 0 0 0 
0 0 0 0 0 0 0 0 0 
0 0 0 0 0 0 0 0 0 
0 0 0 0 0 0 0 0 0 
0 0 0 0 0 0 0 0 0 
0 0 0 0 0 0 0 0 0 
0 0 0 0 0 0 0 0 0 
0 0 0 0 0 0 0 0 0 
0 0 0 0 0 0 0 0 0 
0 0 0 0 0 0 0 0 0 
0 0 0 0 0 0 0 0 0 
0 0 0 0 0 0 0 0 0 
0 0 0 0 0 0 0 0 0 
0 0 0 0 0 0 0 0 0 
0 0 0 0 0 0 0 0 0 
0 0 0 0 0 0 0 0 0 
0 0 0 0 0 0 0 0 0 
0 0 0 0 0 0 0 0 0 
0 0 0 0 0 0 0 0 0 
0 0 0 0 0 0 0 0 0 
0 0 0 0 0 0 0 0 0 
0 0 0 0 0 0 0 0 0 
0 0 0 0 0 0 0 0 0 
0 0 0 0 0 0 0 0 0 
0 0 0 0 0 0 0 0 0 
0 0 0 0 0 0 0 0 0 
0 0 0 0 0 0 0 0 0 
0 0 0 0 0 0 0 0 0 
0 0 0 0 0 0 0 0 0 
0 0 0 0 0 0 0 0 0 
0 0 0 0 0 0 0 0 0 
0 0 0 0 0 0 0 0 0 
0 0 0 0 0 0 0 0 0 
0 0 0 0 0 0 0 0 0 
0 0 0 0 0 0 0 0 0 
0 0 0 0 0 0 0 0 0 
0 0 0 0 0 0 0 0 0 
0 0 0 0 0 0 0 0 0 
0 0 0 0 0 0 0 0 0 
0 0 0 0 0 0 0 0 0 
0 0 0 0 0 0 0 0 0 
0 0 0 0 0 0 0 0 0 
0 0 0 0 0 0 0 0 0 
0 0 0 0 0 0 0 0 0 
0 0 0 0 0 0 0 0 0 
0 0 0 0 0 0 0 0 0 
0 0 0 0 0 0 0 0 0 
0 0 0 0 0 0 0 0 0 
0 0 0 0 0 0 0 0 0 
0 0 0 0 0 0 0 0 0 
0 0 0 0 0 0 0 0 0 
0 0 0 0 0 0 
v 3 1355 double
-0.0316531 -0.011287 0.00548102 0.000142645 0.00269065 0.0087357 0.028284 0.0121084 0.00548197 
0.027657 0.00957342 0.0007823 0.0321957 0.0275682 -0.0196345 0.0163671 -0.0053662 -0.0275977 
-0.0058611 0.00938549 -0.0343687 0.074223 0.00365481 -0.0251984 0.00339306 0.000389392 -0.00316636 
0.0495307 -0.0238809 0.0103572 0.170643 0.0172513 -0.0071624 0.258647 -0.298483 -0.0322296 
0.0433061 -0.0353643 -0.00399244 0.0758312 -0.0515003 -0.0552878 0.0738545 -0.0160469 -0.047113 
0.0267861 0.0111582 -0.0185533 0.129482 -0.0225427 0.0167753 -0.0755303 0.00567388 -0.0251747 
-0.0948222 -0.00781345 -0.037842 -0.0963738 -0.00471182 -0.00337835 -0.0610825 0.0153117 0.0183852 
-0.0108539 -0.0178156 0.0411746 -0.00538596 -0.00486453 0.0120943 0.0570098 0.000161001 -0.0136258 
0.0541433 0.00726486 -0.0115486 0.0615171 0.0301967 -0.0171367 0.0617523 0.00988651 -0.0138399 
0.018151 0.00876533 -0.000881299 -0.0524962 -0.0139934 -0.0163428 -0.0336676 0.0267692 0.00169054 
-0.0268773 -0.00455293 -0.0029254 -0.00909529 -0.145243 0.167781 -0.0306675 -0.191465 -0.111786 
0.0335779 -0.0316479 -0.102957 0.034336 -0.064857 -0.0389236 0.0188568 -0.0704809 -0.042364 
0.0545151 0.0188143 -0.0077649 0.0672801 -0.036176 -0.00237703 0.0221982 0.0242576 0.0113785 
-0.0316982 -0.000427933 -0.0418456 -0.101359 -0.0428346 -0.00747185 -0.0692673 -0.0103246 0.0302471 
-0.0141817 0.00781612 -0.0365272 0.00673705 -0.0108879 0.0167594 -0.00789308 -0.00121316 0.0325654 
0.0420357 -0.0310369 0.0100611 0.0110108 -0.00240382 -0.000512029 0.0122595 0.0354117 -0.0257344 
0.0230639 0.0198943 -0.0629403 -0.0532669 0.0182604 -0.0125131 -0.0224691 0.0424217 -0.0131172 
0.0307324 -0.016678 0.00984026 -0.0154172 0.0174682 -0.00711933 0.0473815 0.0158784 0.0192226 
0.0236804 -0.0919474 0.035938 -0.0604245 -0.110478 -0.0768056 -0.0614797 -0.0976391 -0.0141834 
-0.000351915 -0.0579766 -0.0257712 0.0159011 -0.00374976 -0.022582 0.0724968 -0.0165532 -0.0171041 
-0.0365164 -0.00818896 -0.0131247 -0.000930974 0.0207449 -0.00191117 0.00976902 -0.0472902 -0.017626 
-0.00431995 -0.0132356 0.0195804 0.0132411 0.00452866 0.0749994 0.0155142 0.00282422 0.0108819 
0.00817649 -0.0100409 0.0353089 -0.033547 0.108121 0.0102972 0.00265093 0.0227749 0.0253576 
0.0121914 0.0104841 -0.0102485 0.0100937 0.000198535 -0.0143118 -0.0562275 -0.00514702 -0.0138954 
0.0326903 9.69512e-05 -0.00111147 -0.0220365 0.00508756 0.01339 -0.0175911 -0.0164763 0.00829691 
-0.000198647 -0.0864508 0.0145458 0.0391001 -0.0156856 -0.0040608 0.0260556 0.0186076 -0.017233 
0.0287734 0.0747548 -0.100247 0.0622825 -0.0218283 -0.0413966 0.0580505 -0.0808862 -0.00691847 