# vtk DataFile Version 4.0
Generated by LIGGGHTS
ASCII
DATASET POLYDATA
POINTS 767 float
0.117083 0.186218 -0.175445 0.00622035 0.064644 -0.233403 0.747911 0.329241 -0.30831 
-0.356488 0.311378 -0.444413 -0.833369 -0.280169 -0.274596 -0.426891 0.0157034 -0.323765 
0.0106642 -0.341132 -0.155384 -0.0892873 0.243652 -0.366826 -0.804633 0.226113 -0.452298 
0.70076 0.123196 -0.180714 0.770126 -0.131983 -0.180321 -0.479307 -0.318054 -0.23243 
0.223427 0.147947 -0.191627 -0.184777 -0.0645562 -0.457211 -0.616702 -0.229268 -0.0971268 
0.386186 0.186301 -0.455301 -0.544989 0.251096 -0.168573 -0.704843 -0.217423 -0.170773 
-0.592122 0.180867 -0.382128 0.333433 -0.282083 -0.408864 -0.589675 0.0611119 -0.335939 
-0.368736 0.211919 -0.380481 0.314138 0.137911 -0.114042 -0.680504 -0.0110466 -0.316467 
0.543109 0.104766 -0.279075 0.369846 0.267091 -0.153409 0.643118 -0.0510578 -0.109163 
-0.26687 0.140042 -0.225637 0.320315 -0.120227 -0.185759 -0.110753 -0.0974666 -0.104297 
0.366942 -0.128405 -0.459453 0.337265 0.0961463 -0.322008 0.545868 -0.0844407 -0.274752 
-0.133117 0.0468095 -0.0741434 -0.528711 0.249896 -0.273074 -0.273868 -0.131558 -0.216594 
0.795127 0.225442 -0.152263 0.133357 -0.341635 -0.387707 0.323801 0.317803 -0.454445 
-0.0909412 -0.110259 -0.450383 0.561318 0.118298 -0.131822 -0.0311292 0.271773 -0.457835 
0.247328 0.28878 -0.327482 0.0675788 -0.0012771 -0.193541 0.63359 -0.0257128 -0.37551 
-0.619462 -0.0433049 -0.169737 0.455764 -0.342079 -0.104914 0.801069 -0.0794471 -0.455773 
0.0769403 0.167429 -0.368161 -0.562703 -0.0653342 -0.0731043 -0.606703 0.0661009 -0.429341 
0.281775 -0.000553812 -0.095815 0.552925 0.277176 -0.455687 0.139393 -0.202693 -0.433438 
-0.822377 0.225946 -0.359947 -0.235759 -0.268257 -0.153538 -0.0152219 -0.104395 -0.378589 
0.749021 -0.176354 -0.268582 -0.119237 -0.270271 -0.304043 -0.129378 -0.0216049 -0.224658 
0.358375 0.179505 -0.190844 -0.354518 -0.172318 -0.368107 0.570446 0.303349 -0.288936 
-0.480828 0.324119 -0.110881 -0.197471 0.135056 -0.100236 -0.533491 -0.259403 -0.150073 
0.582644 0.218002 -0.30027 -0.649935 0.333382 -0.309799 0.796531 0.312683 -0.241227 
0.779715 -0.317191 -0.453606 -0.824381 0.0626689 -0.428545 -0.668761 -0.269561 -0.383594 
-0.755859 0.30381 -0.443975 0.720253 0.131938 -0.348301 0.459418 -0.233128 -0.402413 
0.0156524 -0.203834 -0.393039 -0.059421 0.138565 -0.23709 -0.379061 -0.299339 -0.145254 
0.428808 -0.095902 -0.169187 -0.0516414 -0.15013 -0.295938 0.641391 -0.149171 -0.227475 
-0.398966 -0.190249 -0.228459 -0.672376 -0.0962528 -0.353783 -0.0664893 0.140031 -0.338172 
-0.509238 0.102462 -0.453264 -0.25607 0.0171489 -0.140295 -0.0671455 -0.26309 -0.378576 
0.0975486 -0.133763 -0.379583 -0.481636 0.331767 -0.462227 -0.0671953 -0.334234 -0.199542 
-0.690225 0.175517 -0.077365 -0.262757 0.0462482 -0.456149 -0.762741 0.0909754 -0.139191 
0.220561 0.339984 -0.457312 -0.11837 -0.200549 -0.424652 -0.408474 -0.16031 -0.430305 
0.792851 0.0178461 -0.315737 -0.0210569 0.309353 -0.220073 -0.262694 -0.156193 -0.457598 
-0.191732 -0.196388 -0.215542 -0.530873 0.0995761 -0.293803 0.350958 -0.0223738 -0.300775 
0.109315 -0.237501 -0.075537 -0.119616 0.0939038 -0.377697 -0.676427 -0.207011 -0.454265 
-0.563979 0.00323749 -0.270541 0.14213 0.0805902 -0.228584 0.709383 -0.265215 -0.197984 
0.584524 -0.138818 -0.459641 0.573597 -0.159271 -0.325071 0.197709 0.0453116 -0.308394 
0.156143 -0.0440876 -0.391467 0.472128 0.290839 -0.201592 0.485769 -0.210009 -0.292106 
-0.345147 0.232063 -0.0972888 -0.421252 -0.259133 -0.311402 0.559196 0.272092 -0.125827 
0.850973 -0.223335 -0.274668 0.281605 0.327968 -0.179748 -0.456818 -0.329683 -0.393891 
-0.225435 0.0533489 -0.381611 -0.352318 0.265982 -0.307095 0.587778 0.173742 -0.227126 
0.382213 -0.150684 -0.1206 0.311889 0.163202 -0.437731 0.563115 -0.0550897 -0.461131 
-0.771314 0.0590156 -0.356567 0.690273 0.188208 -0.267006 -0.185307 0.0833804 -0.458138 
-0.196349 0.213472 -0.387516 -0.156511 -0.300914 -0.195344 0.481445 0.287923 -0.328871 
-0.00850964 0.216841 -0.366026 0.551768 -0.0154076 -0.125384 -0.789508 0.153594 -0.372327 
-0.641975 -0.207011 -0.300385 -0.211518 0.00671039 -0.2899 -0.313116 0.295548 -0.230498 
0.135395 0.167598 -0.26256 0.66604 -0.10128 -0.454403 -0.311558 -0.0716184 -0.0849132 
-0.692059 0.0742559 -0.266333 -0.763611 -0.00466069 -0.236034 0.551532 -0.176435 -0.113375 
0.0538236 -0.349772 -0.416583 0.0105158 0.15041 -0.314622 0.779253 0.0467125 -0.0928628 
-0.819929 0.110385 -0.248599 -0.659806 0.193994 -0.448374 -0.261847 0.0632312 -0.0738742 
0.230809 -0.340058 -0.461732 -0.102447 0.342732 -0.0901955 0.218577 -0.0759402 -0.451557 
0.114707 0.0392181 -0.316464 0.830374 -0.199048 -0.417846 0.691911 -0.345953 -0.415049 
-0.761699 -0.125513 -0.209681 -0.277323 -0.342373 -0.194741 -0.838168 -0.126142 -0.320783 
-0.676742 0.0905527 -0.0784325 0.169121 0.0962272 -0.459429 -0.170158 0.156412 -0.264413 
0.841104 -0.341335 -0.286551 -0.494357 0.0622754 -0.114625 -0.398297 0.00624883 -0.138305 
0.667799 0.0767636 -0.420833 0.273979 0.163877 -0.352207 0.141086 0.277806 -0.0947498 
0.203691 -0.0717236 -0.190118 0.383717 -0.0487016 -0.461875 -0.735099 -0.130349 -0.394479 
-0.591383 0.0994467 -0.152742 -0.819649 -0.197714 -0.137632 0.393083 0.244203 -0.079257 
-0.550834 -0.207397 -0.351557 -0.125435 -0.171766 -0.0760497 0.658509 -0.00654196 -0.452584 
0.287912 0.23948 -0.188608 -0.698004 -0.334611 -0.153964 0.260688 0.0799716 -0.226177 
0.579354 -0.350849 -0.229052 -0.583901 -0.0109665 -0.457231 -0.281134 -0.00762326 -0.355913 
0.691211 -0.212147 -0.391975 -0.495023 -0.108878 -0.459378 0.546798 -0.340066 -0.455501 
-0.206829 -0.165917 -0.131999 -0.598158 0.267624 -0.41426 -0.380315 -0.0694876 -0.201748 
0.69681 0.215311 -0.0727399 0.370788 0.0995651 -0.46354 -0.337042 -0.0287039 -0.294395 
0.457328 0.136373 -0.267167 0.844784 -0.0530785 -0.335149 0.611813 -0.290743 -0.356086 
-0.811942 -0.223592 -0.461171 -0.235373 -0.293129 -0.390357 0.1825 0.0381925 -0.0901932 
0.504236 0.129261 -0.457432 0.195328 -0.144952 -0.412471 -0.651534 0.338138 -0.407154 
0.532581 -0.136383 -0.398518 0.638423 0.0814108 -0.10875 0.0983058 -0.0772895 -0.156074 
-0.652696 -0.293872 -0.220545 -0.422764 -0.352966 -0.46353 0.141553 -0.229898 -0.218321 
-0.340834 -0.357199 -0.431382 -0.76958 0.21202 -0.142361 0.739234 0.313743 -0.108166 
0.268664 -0.339232 -0.194049 0.814412 0.275998 -0.0929794 -0.660858 0.33483 -0.103281 
0.260858 -0.251856 -0.368221 -0.596406 0.182688 -0.25985 0.638839 -0.0109947 -0.27048 
-0.802314 -0.308531 -0.20337 -0.101932 0.193331 -0.457266 0.230773 -0.18012 -0.32666 
0.413514 0.0570824 -0.163499 -0.292203 -0.293828 -0.258597 0.645409 0.261762 -0.133655 
0.783489 -0.311333 -0.136369 0.253942 0.091471 -0.433015 0.698556 -0.342233 -0.218344 
0.379604 0.358038 -0.317819 0.152249 0.295307 -0.414796 -0.34181 0.356176 -0.375689 
-0.241784 0.324635 -0.193229 0.419769 0.344445 -0.432655 0.848016 0.0888664 -0.292641 
-0.387246 0.156381 -0.0909953 0.571652 -0.285583 -0.144286 -0.0727979 -0.283188 -0.45143 
-0.294014 -0.220749 -0.11271 -0.0339448 0.039977 -0.344614 -0.0364885 0.239205 -0.0751336 
0.422229 0.358575 -0.172099 0.164059 -0.11362 -0.287045 0.791568 0.0177891 -0.406019 
0.255294 -0.212375 -0.144409 0.820583 0.292294 -0.33853 0.0705914 0.102308 -0.094851 
0.415153 0.300924 -0.263079 -0.205051 -0.198615 -0.415781 -0.104806 0.322113 -0.186088 
0.0730657 0.129109 -0.456017 0.430098 -0.0656924 -0.335909 -0.83723 -0.324515 -0.110766 
-0.378631 -0.238354 -0.460218 -0.729625 0.265891 -0.262832 0.0517252 -0.0242304 -0.304056 
0.833229 0.0373707 -0.222984 -0.61277 -0.0930956 -0.457431 -0.697661 -0.16996 -0.0968812 
0.372981 -0.312305 -0.345186 -0.109101 0.243246 -0.127548 -0.666351 0.104043 -0.370649 
0.0791859 0.300932 -0.175283 -0.236757 0.279355 -0.329316 -0.437808 0.239798 -0.355417 
-0.845178 0.310902 -0.445674 0.253314 0.196269 -0.0924487 -0.849887 0.332487 -0.212376 
0.852368 -0.19905 -0.169862 -0.747095 0.168553 -0.238648 -0.760359 -0.0914014 -0.462622 
-0.446312 -0.249125 -0.180813 -0.372413 0.20245 -0.458426 -0.463353 -0.341984 -0.110492 
-0.0777444 0.0664115 -0.167401 -0.319828 -0.247568 -0.32284 0.158143 -0.310148 -0.188403 
0.674219 0.265178 -0.249545 -0.567747 -0.146791 -0.230971 0.30861 -0.353074 -0.10511 
-0.246844 0.130941 -0.324291 0.722288 0.129451 -0.459547 0.193935 -0.149303 -0.109119 
0.214179 -0.212505 -0.453384 0.415167 -0.119141 -0.397106 0.580032 -0.0887159 -0.183582 
0.202027 0.295882 -0.220782 -0.0345635 0.218011 -0.205294 0.302509 -0.324864 -0.275588 
0.84563 -0.128846 -0.227549 -0.504568 -0.212292 -0.275948 0.170733 0.140602 -0.337245 
-0.669489 -0.130467 -0.251585 0.44368 -0.21233 -0.171681 0.534167 -0.290497 -0.269006 
-0.447416 0.302639 -0.240716 -0.437932 0.0579771 -0.394952 0.579312 0.134794 -0.353686 
-0.359126 -0.192852 -0.0732567 -0.168436 0.220822 -0.180057 -0.743652 0.287323 -0.129013 
0.471426 -0.152384 -0.452691 -0.729952 0.223945 -0.381129 0.742709 -0.128958 -0.400973 
0.724085 -0.0480623 -0.143143 0.296524 -0.23442 -0.214357 0.83679 0.235092 -0.278692 
0.196847 0.00269451 -0.457703 0.33497 -0.249137 -0.309232 0.532402 0.35254 -0.439075 
-0.415352 -0.183482 -0.144313 -0.60936 0.217878 -0.111211 -0.559479 0.0152958 -0.105376 
-0.81563 -0.0158765 -0.458857 0.125257 0.329899 -0.333511 0.0309406 -0.0808888 -0.463243 
0.0267557 -0.14056 -0.269309 -0.753252 -0.226243 -0.321379 0.368465 0.348969 -0.0808473 
0.777688 0.354937 -0.386816 -0.850054 -0.116376 -0.239063 -0.156244 0.31381 -0.390035 
0.812696 0.256161 -0.462518 0.763139 -0.322446 -0.37218 0.562039 0.022213 -0.409497 
-0.57368 -0.298532 -0.394716 -0.301863 0.094906 -0.410968 -0.457752 -0.107148 -0.301747 
0.620386 -0.254939 -0.256609 0.800447 -0.0363122 -0.215387 0.00321587 0.0218602 -0.150363 
-0.469811 0.215499 -0.0946564 -0.839478 -0.335392 -0.386049 -0.851201 0.120912 -0.173209 
-0.435467 -0.0432792 -0.399688 -0.578541 0.0303289 -0.191921 0.828634 0.115304 -0.0807364 
[...]
POINT_DATA 767
FIELD FieldData 7
id 1 767 int
1 2 3 4 5 6 7 8 9 
10 11 12 13 14 15 16 17 18 
19 20 21 22 23 24 25 26 27 
28 29 30 31 32 33 34 35 36 
37 38 39 40 41 42 43 44 45 
46 47 48 49 50 51 52 53 54 
55 56 57 58 59 60 61 62 63 
64 65 66 67 68 69 70 71 72 
73 74 75 76 77 78 79 80 81 
82 83 84 85 86 87 88 89 90 
91 92 93 94 95 96 97 98 99 
100 101 102 103 104 105 106 107 108 
109 110 111 112 113 114 115 116 117 
118 119 120 121 122 123 124 125 126 
127 128 129 130 131 132 133 134 135 
136 137 138 139 140 141 142 143 144 
145 146 147 148 149 150 151 152 153 
154 155 156 157 158 159 160 161 162 
163 164 165 166 167 168 169 170 171 
172 173 174 175 176 177 178 179 180 
181 182 183 184 185 186 187 188 189 
190 191 192 193 194 195 196 197 198 
199 200 201 202 203 204 205 206 207 
208 209 210 211 212 213 214 215 216 
217 218 219 220 221 222 223 224 225 
226 227 228 229 230 231 232 233 234 
235 236 237 238 239 240 241 242 243 
244 245 246 247 248 249 250 251 252 
253 254 255 256 257 258 259 260 261 
262 263 264 265 266 267 268 269 270 
271 272 273 274 275 276 277 278 279 
280 281 282 283 284 285 286 287 288 
289 290 291 292 293 294 295 296 297 
298 299 300 301 302 303 304 305 306 
307 308 309 310 311 312 313 314 315 
316 317 318 319 320 321 322 323 324 
325 326 327 328 329 330 331 332 333 
334 335 336 337 338 339 340 341 342 
343 344 345 346 347 348 349 350 351 
352 353 354 355 356 357 358 359 360 
361 362 363 364 365 366 367 368 369 
370 371 372 373 374 375 376 377 378 
379 380 381 382 383 384 385 386 387 
388 389 390 391 392 393 394 395 396 
397 398 399 400 401 402 403 404 405 
406 407 408 409 410 411 412 413 414 
415 416 417 418 419 420 421 422 423 
424 425 426 427 428 429 430 431 432 
433 434 435 436 437 438 439 440 441 
442 443 444 445 446 447 448 449 450 
451 452 453 454 455 456 457 458 459 
460 461 462 463 464 465 466 467 468 
469 470 471 472 473 474 475 476 477 
478 479 480 481 482 483 484 485 486 
487 488 489 490 491 492 493 494 495 
496 497 498 499 500 501 502 503 504 
505 506 507 508 509 510 511 512 513 
514 515 516 517 518 519 520 521 522 
523 524 525 526 527 528 529 530 531 
532 533 534 535 536 537 538 539 540 
541 542 543 544 545 546 547 548 549 
550 551 552 553 554 555 556 557 558 
559 560 561 562 563 564 565 566 567 
568 569 570 571 572 573 574 575 576 
577 578 579 580 581 582 583 584 585 
586 587 588 589 590 591 592 593 594 
595 596 597 598 599 600 601 602 603 
604 605 606 607 608 609 610 611 612 
613 614 615 616 617 618 619 620 621 
622 623 624 625 626 627 628 629 630 
631 632 633 634 635 636 637 638 639 
640 641 642 643 644 645 646 647 648 
649 650 651 652 653 654 655 656 657 
658 659 660 661 662 663 664 665 666 
667 668 669 670 671 672 673 674 675 
676 677 678 679 680 681 682 683 684 
685 686 687 688 689 690 691 692 693 
694 695 696 697 698 699 700 701 702 
703 704 705 706 707 708 709 710 711 
712 713 714 715 716 717 718 719 720 
721 722 723 724 725 726 727 728 729 
730 731 732 733 734 735 736 737 738 
739 740 741 742 743 744 745 746 747 
748 749 750 751 752 753 754 755 756 
757 758 759 760 761 762 763 764 765 
766 767 
type 1 767 int
1 1 1 1 1 1 1 1 1 
1 1 1 1 1 1 1 1 1 
1 1 1 1 1 1 1 1 1 
1 1 1 1 1 1 1 1 1 
1 1 1 1 1 1 1 1 1 
1 1 1 1 1 1 1 1 1 
1 1 1 1 1 1 1 1 1 
1 1 1 1 1 1 1 1 1 
1 1 1 1 1 1 1 1 1 
1 1 1 1 1 1 1 1 1 
1 1 1 1 1 1 1 1 1 
1 1 1 1 1 1 1 1 1 
1 1 1 1 1 1 1 1 1 
1 1 1 1 1 1 1 1 1 
1 1 1 1 1 1 1 1 1 
1 1 1 1 1 1 1 1 1 
1 1 1 1 1 1 1 1 1 
1 1 1 1 1 1 1 1 1 
1 1 1 1 1 1 1 1 1 
1 1 1 1 1 1 1 1 1 
1 1 1 1 1 1 1 1 1 
1 1 1 1 1 1 1 1 1 
1 1 1 1 1 1 1 1 1 
1 1 1 1 1 1 1 1 1 
1 1 1 1 1 1 1 1 1 
1 1 1 1 1 1 1 1 1 
1 1 1 1 1 1 1 1 1 
1 1 1 1 1 1 1 1 1 
1 1 1 1 1 1 1 1 1 
1 1 1 1 1 1 1 1 1 
1 1 1 1 1 1 1 1 1 
1 1 1 1 1 1 1 1 1 
1 1 1 1 1 1 1 1 1 
1 1 1 1 1 1 1 1 1 
1 1 1 1 1 1 1 1 1 
1 1 1 1 1 1 1 1 1 
1 1 1 1 1 1 1 1 1 
1 1 1 1 1 1 1 1 1 
1 1 1 1 1 1 1 1 1 
1 1 1 1 1 1 1 1 1 
1 1 1 1 1 1 1 1 1 
1 1 1 1 1 1 1 1 1 
1 1 1 1 1 1 1 1 1 
1 1 1 1 1 1 1 1 1 
1 1 1 1 1 1 1 1 1 
1 1 1 1 1 1 1 1 1 
1 1 1 1 1 1 1 1 1 
1 1 1 1 1 1 1 1 1 
1 1 1 1 1 1 1 1 1 
1 1 1 1 1 1 1 1 1 
1 1 1 1 1 1 1 1 1 
1 1 1 1 1 1 1 1 1 
1 1 1 1 1 1 1 1 1 
1 1 1 1 1 1 1 1 1 
1 1 1 1 1 1 1 1 1 
1 1 1 1 1 1 1 1 1 
1 1 1 1 1 1 1 1 1 
1 1 1 1 1 1 1 1 1 
1 1 1 1 1 1 1 1 1 
1 1 1 1 1 1 1 1 1 
1 1 1 1 1 1 1 1 1 
1 1 1 1 1 1 1 1 1 
1 1 1 1 1 1 1 1 1 
1 1 1 1 1 1 1 1 1 
1 1 1 1 1 1 1 1 1 
1 1 1 1 1 1 1 1 1 
1 1 1 1 1 1 1 1 1 
1 1 1 1 1 1 1 1 1 
1 1 1 1 1 1 1 1 1 
1 1 1 1 1 1 1 1 1 
1 1 1 1 1 1 1 1 1 
1 1 1 1 1 1 1 1 1 
1 1 1 1 1 1 1 1 1 
1 1 1 1 1 1 1 1 1 
1 1 1 1 1 1 1 1 1 
1 1 1 1 1 1 1 1 1 
1 1 1 1 1 1 1 1 1 
1 1 1 1 1 1 1 1 1 
1 1 1 1 1 1 1 1 1 
1 1 1 1 1 1 1 1 1 
1 1 1 1 1 1 1 1 1 
1 1 1 1 1 1 1 1 1 
1 1 1 1 1 1 1 1 1 
1 1 1 1 1 1 1 1 1 
1 1 1 1 1 1 1 1 1 
1 1 
i 3 767 int
0 0 0 0 0 0 0 0 0 
0 0 0 0 0 0 0 0 0 
0 0 0 0 0 0 0 0 0 
0 0 0 0 0 0 0 0 0 
0 0 0 0 0 0 0 0 0 
0 0 0 0 0 0 0 0 0 
0 0 0 0 0 0 0 0 0 
0 0 0 0 0 0 0 0 0 
0 0 0 0 0 0 0 0 0 
0 0 0 0 0 0 0 0 0 
0 0 0 0 0 0 0 0 0 
0 0 0 0 0 0 0 0 0 
0 0 0 0 0 0 0 0 0 
0 0 0 0 0 0 0 0 0 
0 0 0 0 0 0 0 0 0 
0 0 0 0 0 0 0 0 0 
0 0 0 0 0 0 0 0 0 
0 0 0 0 0 0 0 0 0 
0 0 0 0 0 0 0 0 0 
0 0 0 0 0 0 0 0 0 
0 0 0 0 0 0 0 0 0 
0 0 0 0 0 0 0 0 0 
0 0 0 0 0 0 0 0 0 
0 0 0 0 0 0 0 0 0 
0 0 0 0 0 0 0 0 0 
0 0 0 0 0 0 0 0 0 
0 0 0 0 0 0 0 0 0 
0 0 0 0 0 0 0 0 0 
0 0 0 0 0 0 0 0 0 
0 0 0 0 0 0 0 0 0 
0 0 0 0 0 0 0 0 0 
0 0 0 0 0 0 0 0 0 
0 0 0 0 0 0 0 0 0 
0 0 0 0 0 0 0 0 0 
0 0 0 0 0 0 0 0 0 
0 0 0 0 0 0 0 0 0 
0 0 0 0 0 0 0 0 0 
0 0 0 0 0 0 0 0 0 
0 0 0 0 0 0 0 0 0 
0 0 0 0 0 0 0 0 0 
0 0 0 0 0 0 0 0 0 
0 0 0 0 0 0 0 0 0 
0 0 0 0 0 0 0 0 0 
0 0 0 0 0 0 0 0 0 
0 0 0 0 0 0 0 0 0 
0 0 0 0 0 0 0 0 0 
0 0 0 0 0 0 0 0 0 
0 0 0 0 0 0 0 0 0 
0 0 0 0 0 0 0 0 0 
0 0 0 0 0 0 0 0 0 
0 0 0 0 0 0 0 0 0 
0 0 0 0 0 0 0 0 0 
0 0 0 0 0 0 0 0 0 
0 0 0 0 0 0 0 0 0 
0 0 0 0 0 0 0 0 0 
0 0 0 0 0 0 0 0 0 
0 0 0 0 0 0 0 0 0 
0 0 0 0 0 0 0 0 0 
0 0 0 0 0 0 0 0 0 
0 0 0 0 0 0 0 0 0 
0 0 0 0 0 0 0 0 0 
0 0 0 0 0 0 0 0 0 
0 0 0 0 0 0 0 0 0 
0 0 0 0 0 0 0 0 0 
0 0 0 0 0 0 0 0 0 
0 0 0 0 0 0 0 0 0 
0 0 0 0 0 0 0 0 0 
0 0 0 0 0 0 0 0 0 
0 0 0 0 0 0 0 0 0 
0 0 0 0 0 0 0 0 0 
0 0 0 0 0 0 0 0 0 
0 0 0 0 0 0 0 0 0 
0 0 0 0 0 0 0 0 0 
0 0 0 0 0 0 0 0 0 
0 0 0 0 0 0 0 0 0 
0 0 0 0 0 0 0 0 0 
0 0 0 0 0 0 0 0 0 
0 0 0 0 0 0 0 0 0 
0 0 0 0 0 0 0 0 0 
0 0 0 0 0 0 0 0 0 
0 0 0 0 0 0 0 0 0 
0 0 0 0 0 0 0 0 0 
0 0 0 0 0 0 0 0 0 
0 0 0 0 0 0 0 0 0 
0 0 0 0 0 0 0 0 0 
0 0 0 0 0 0 0 0 0 
0 0 0 0 0 0 0 0 0 
0 0 0 0 0 0 0 0 0 
0 0 0 0 0 0 0 0 0 
0 0 0 0 0 0 0 0 0 
0 0 0 0 0 0 0 0 0 
0 0 0 0 0 0 0 0 0 
0 0 0 0 0 0 0 0 0 
0 0 0 0 0 0 0 0 0 
0 0 0 0 0 0 0 0 0 
0 0 0 0 0 0 0 0 0 
0 0 0 0 0 0 0 0 0 
0 0 0 0 0 0 0 0 0 
0 0 0 0 0 0 0 0 0 
0 0 0 0 0 0 0 0 0 
0 0 0 0 0 0 0 0 0 
0 0 0 0 0 0 0 0 0 
0 0 0 0 0 0 0 0 0 
0 0 0 0 0 0 0 0 0 
0 0 0 0 0 0 0 0 0 
0 0 0 0 0 0 0 0 0 
0 0 0 0 0 0 0 0 0 
0 0 0 0 0 0 0 0 0 
0 0 0 0 0 0 0 0 0 
0 0 0 0 0 0 0 0 0 
0 0 0 0 0 0 0 0 0 
0 0 0 0 0 0 0 0 0 
0 0 0 0 0 0 0 0 0 
0 0 0 0 0 0 0 0 0 
0 0 0 0 0 0 0 0 0 
0 0 0 0 0 0 0 0 0 
0 0 0 0 0 0 0 0 0 
0 0 0 0 0 0 0 0 0 
0 0 0 0 0 0 0 0 0 
0 0 0 0 0 0 0 0 0 
0 0 0 0 0 0 0 0 0 
0 0 0 0 0 0 0 0 0 
0 0 0 0 0 0 0 0 0 
0 0 0 0 0 0 0 0 0 
0 0 0 0 0 0 0 0 0 
0 0 0 0 0 0 0 0 0 
0 0 0 0 0 0 0 0 0 
0 0 0 0 0 0 0 0 0 
0 0 0 0 0 0 0 0 0 
0 0 0 0 0 0 0 0 0 
0 0 0 0 0 0 0 0 0 
0 0 0 0 0 0 0 0 0 
0 0 0 0 0 0 0 0 0 
0 0 0 0 0 0 0 0 0 
0 0 0 0 0 0 0 0 0 
0 0 0 0 0 0 0 0 0 
0 0 0 0 0 0 0 0 0 
0 0 0 0 0 0 0 0 0 
0 0 0 0 0 0 0 0 0 
0 0 0 0 0 0 0 0 0 
0 0 0 0 0 0 0 0 0 
0 0 0 0 0 0 0 0 0 
0 0 0 0 0 0 0 0 0 
0 0 0 0 0 0 0 0 0 
0 0 0 0 0 0 0 0 0 
0 0 0 0 0 0 0 0 0 
0 0 0 0 0 0 0 0 0 
0 0 0 0 0 0 0 0 0 
0 0 0 0 0 0 0 0 0 
0 0 0 0 0 0 0 0 0 
0 0 0 0 0 0 0 0 0 
0 0 0 0 0 0 0 0 0 
0 0 0 0 0 0 0 0 0 
0 0 0 0 0 0 0 0 0 
0 0 0 0 0 0 0 0 0 
0 0 0 0 0 0 0 0 0 
0 0 0 0 0 0 0 0 0 
0 0 0 0 0 0 0 0 0 
0 0 0 0 0 0 0 0 0 
0 0 0 0 0 0 0 0 0 
0 0 0 0 0 0 0 0 0 
0 0 0 0 0 0 0 0 0 
0 0 0 0 0 0 0 0 0 
0 0 0 0 0 0 0 0 0 
0 0 0 0 0 0 0 0 0 
0 0 0 0 0 0 0 0 0 
0 0 0 0 0 0 0 0 0 
0 0 0 0 0 0 0 0 0 
0 0 0 0 0 0 0 0 0 
0 0 0 0 0 0 0 0 0 
0 0 0 0 0 0 0 0 0 
0 0 0 0 0 0 0 0 0 
0 0 0 0 0 0 0 0 0 
0 0 0 0 0 0 0 0 0 
0 0 0 0 0 0 0 0 0 
0 0 0 0 0 0 0 0 0 
0 0 0 0 0 0 0 0 0 
0 0 0 0 0 0 0 0 0 
0 0 0 0 0 0 0 0 0 
0 0 0 0 0 0 0 0 0 
0 0 0 0 0 0 0 0 0 
0 0 0 0 0 0 0 0 0 
0 0 0 0 0 0 0 0 0 
0 0 0 0 0 0 0 0 0 
0 0 0 0 0 0 0 0 0 
0 0 0 0 0 0 0 0 0 
0 0 0 0 0 0 0 0 0 
0 0 0 0 0 0 0 0 0 
0 0 0 0 0 0 0 0 0 
0 0 0 0 0 0 0 0 0 
0 0 0 0 0 0 0 0 0 
0 0 0 0 0 0 0 0 0 
0 0 0 0 0 0 0 0 0 
0 0 0 0 0 0 0 0 0 
0 0 0 0 0 0 0 0 0 
0 0 0 0 0 0 0 0 0 
0 0 0 0 0 0 0 0 0 
0 0 0 0 0 0 0 0 0 
0 0 0 0 0 0 0 0 0 
0 0 0 0 0 0 0 0 0 
0 0 0 0 0 0 0 0 0 
0 0 0 0 0 0 0 0 0 
0 0 0 0 0 0 0 0 0 
0 0 0 0 0 0 0 0 0 
0 0 0 0 0 0 0 0 0 
0 0 0 0 0 0 0 0 0 
0 0 0 0 0 0 0 0 0 
0 0 0 0 0 0 0 0 0 
0 0 0 0 0 0 0 0 0 
0 0 0 0 0 0 0 0 0 
0 0 0 0 0 0 0 0 0 
0 0 0 0 0 0 0 0 0 
0 0 0 0 0 0 0 0 0 
0 0 0 0 0 0 0 0 0 
0 0 0 0 0 0 0 0 0 
0 0 0 0 0 0 0 0 0 
0 0 0 0 0 0 0 0 0 
0 0 0 0 0 0 0 0 0 
0 0 0 0 0 0 0 0 0 
0 0 0 0 0 0 0 0 0 
0 0 0 0 0 0 0 0 0 
0 0 0 0 0 0 0 0 0 
0 0 0 0 0 0 0 0 0 
0 0 0 0 0 0 0 0 0 
0 0 0 0 0 0 0 0 0 
0 0 0 0 0 0 0 0 0 
0 0 0 0 0 0 0 0 0 
0 0 0 0 0 0 0 0 0 
0 0 0 0 0 0 0 0 0 
0 0 0 0 0 0 0 0 0 
0 0 0 0 0 0 0 0 0 
0 0 0 0 0 0 0 0 0 
0 0 0 0 0 0 0 0 0 
0 0 0 0 0 0 0 0 0 
0 0 0 0 0 0 0 0 0 
0 0 0 0 0 0 0 0 0 
0 0 0 0 0 0 0 0 0 
0 0 0 0 0 0 0 0 0 
0 0 0 0 0 0 0 0 0 
0 0 0 0 0 0 0 0 0 
0 0 0 0 0 0 0 0 0 
0 0 0 0 0 0 0 0 0 
0 0 0 0 0 0 0 0 0 
0 0 0 0 0 0 0 0 0 
0 0 0 0 0 0 0 0 0 
0 0 0 0 0 0 0 0 0 
0 0 0 0 0 0 0 0 0 
0 0 0 0 0 0 0 0 0 
0 0 0 0 0 0 0 0 0 
0 0 0 0 0 0 0 0 0 
0 0 0 0 0 0 0 0 0 
0 0 0 0 0 0 0 0 0 
0 0 0 0 0 0 0 0 0 
0 0 0 0 0 0 0 0 0 
0 0 0 0 0 0 0 0 0 
0 0 0 0 0 0 
v 3 767 double
0 0 -1.09405 0 0 -1.09405 0 0 -1.09405 
0 0 -1.09405 0 0 -1.09405 0 0 -1.09405 
0 0 -1.09405 0 0 -1.09405 0.101065 0.475806 0.380762 
0 0 -1.09405 0 0 -1.09405 0 0 -1.09405 
0 0 -1.09405 -0.411901 -0.330889 -0.94338 0 0 -1.09405 
0.236447 -0.266837 0.563053 0 0 -1.09405 0 0 -1.09405 
0 0 -1.09405 0.560176 -0.620134 -0.148736 0 0 -1.09405 
0.235124 0.0732731 0.461435 0 0 -1.09405 0 0 -1.09405 
0 0 -1.09405 0 0 -1.09405 0 0 -1.09405 
0 0 -1.09405 0 0 -1.09405 0 0 -1.09405 
-0.74749 -0.143604 -0.462803 0 0 -1.09405 0 0 -1.09405 
0 0 -1.09405 0 0 -1.09405 0 0 -1.09405 
0 0 -1.09405 -0.321005 0.0510365 0.67268 0 0 -1.09405 
0 0 0.621351 0 0 -1.09405 0 0 0.834137 
0 0 -1.09405 0 0 -1.09405 0 0 -1.09405 
0 0 -1.09405 0 0 -1.09405 0.0474472 0.0717633 -0.0919205 
0.624195 0.163104 -0.686752 0 0 -1.09405 0 0 -1.09405 
0 0 -1.09405 0.148967 -0.318031 0.524246 0.293035 -0.313276 -0.658576 
0 0 -1.09405 0 0 -1.09405 0 0 -1.09405 
0 0 -1.09405 0 0 -1.09405 0 0 -1.09405 
0 0 -1.09405 0 0 -1.09405 0 0 -1.09405 
0 0 -1.09405 0 0 -1.09405 0 0 -1.09405 
0 0 -1.09405 0 0 -1.09405 0 0 -1.09405 
0.220907 -0.66268 0.017352 -0.0230345 -0.349949 -1.0032 -0.31734 0.412753 0.494964 
0 0 -1.09405 0 0 -1.09405 -0.458725 0.377133 -0.261008 
0.659701 -0.130185 -0.0122188 0 0 -1.09405 0 0 -1.09405 
0 0 -1.09405 0 0 -1.09405 0 0 -1.09405 
0 0 -1.09405 0 0 -1.09405 0 0 -1.09405 
0 0 0.716763 0 0 -1.09405 0.0639393 0.227352 -0.0275841 
0 0 -1.09405 0.237653 0.0166552 0.0943467 0 0 -1.09405 
0 0 -1.09405 0.382086 -0.478956 0.22634 0 0 -1.09405 
0 0 -1.09405 0 0 -1.09405 -0.034724 0.682085 -0.906251 
0 0 -1.09405 0 0 -1.09405 -0.555721 0.498758 0.180739 
0 0 -1.09405 0 0 -1.09405 0 0 -1.09405 
0 0 -1.09405 0 0 -1.09405 0.0452639 -0.312874 -1.0271 
0 0 -1.09405 0 0 -1.09405 0 0 -1.09405 
0 0 0.874116 0 0 -1.09405 0 0 -1.09405 
0 0 -1.09405 0 0 -1.09405 0 0 -1.09405 
0 0 -1.09405 0 0 -1.09405 0 0 -1.09405 
0 0 -1.09405 0 0 -1.09405 0 0 -1.09405 
0 0 -1.09405 0 0 -1.09405 0 0 -1.09405 
0 0 -1.09405 -0.00797993 -0.00256811 -1.09166 0 0 -1.02137 
0 0 -1.09405 0 0 -1.09405 0.409392 -0.64178 -0.1813 
0.32677 0.523281 -0.597606 0 0 -1.09405 0 0 -1.09405 
-0.109772 0.383509 -0.834398 0 0 -1.09405 0 0 -1.09405 
0 0 -1.09405 0 0 -1.09405 0 0 -1.09405 
0 0 -1.09405 0.0976819 0.1441 0.279018 0 0 -1.09405 
0 0 -1.09405 0 0 -1.09405 0 0 -1.09405 
0 0 -1.09405 0 0 -1.09405 0 0 -1.09405 
0 0 -1.09405 0 0 0.535374 0 0 -1.09405 
0.174118 0.0106557 -0.911139 0 0 -1.09405 0 0 0.662676 
0 0 -1.09405 0.762978 -0.136454 -0.440173 0.597114 -0.147797 -0.624847 
0 0 -1.09405 0 0 -1.09405 0 0 -1.09405 
0 0 -1.09405 0 0 0.869569 0 0 -1.09405 
0 0 -1.09405 0 0 -1.09405 0 0 -1.09405 
0.434584 0.528326 -0.32867 0 0 -1.09405 0 0 -1.09405 
0 0 -1.09405 0.0535178 -0.17604 0.743929 -0.597111 -0.0517395 -0.247755 
0 0 -1.09405 0 0 -1.09405 0 0 -1.09405 
0 0 -1.09405 0 0 -1.09405 -0.210267 0.108116 -1.11762 
0 0 -1.09405 0 0 -1.09405 0 0 -1.09405 
0 0 -1.09405 0 0 0.820097 0 0 -1.09405 
0.117549 0.168028 -0.156221 0 0 0.868465 0 0 -1.09405 
0 0 -1.09405 0.484926 -0.0908573 -0.733749 0 0 -1.09405 
0 0 -1.09405 0.00163921 0.0141996 -0.00398503 0 0 -1.09405 
0 0 -1.09405 0 0 -1.09405 0 0 -1.09405 
0 0 0.86459 0.258905 -0.114192 -0.246323 0 0 -1.09405 
0 0 0.824812 0 0 -1.09405 0.125398 0.681609 -0.442931 
0 0 -1.09405 0 0 -1.09405 0 0 -1.09405 
0 0 -1.09405 0 0 0.0467229 0 0 -1.09405 
0 0 -1.09405 0 0 -1.09405 0 0 -1.09405 
0 0 -1.09405 0 0 -1.09405 0 0 -1.09405 
0 0 -1.09405 0 0 -1.09405 0 0 -1.09405 
0 0 -1.09405 0 0 -1.09405 0 0 -1.09405 
0 0 -1.09405 0 0 -1.09405 0 0 -1.09405 
0 0 -1.09405 0 0 -1.09405 0 0 -1.09405 
0 0 -1.09405 0.626355 0.0605971 -0.616309 0 0 -1.09405 
0 0 -1.09405 0.040232 0.528317 -0.846958 0 0 -1.09405 
0 0 -1.09405 0 0 -1.09405 -0.0639393 -0.227352 -0.505173 
0 0 -1.09405 0 0 -1.09405 0 0 -1.09405 
0 0 -1.09405 0 0 -1.09405 0.0130408 -0.00362534 -1.08242 
0 0 -1.09405 -0.298215 -0.369406 -0.539221 0 0 -1.09405 
0 0 -1.09405 0.502553 -0.00683354 -0.020639 0 0 -1.09405 
0.661161 -0.160183 -0.0515576 0 0 -1.09405 0 0 -1.09405 
-0.255074 -0.248029 -0.974886 0 0 -1.09405 0 0 -1.09405 
0 0 -1.09405 0.0767478 0.0335842 -1.09315 0 0 -1.09405 
0 0 -1.09405 0 0 -1.09405 0 0 -1.09405 
0 0 -1.09405 0 0 -1.09405 -0.194998 0.0809346 -1.00362 
0 0 -1.09405 0 0 -1.09405 0 0 -1.09405 
0 0 -1.09405 0 0 -1.09405 0.0978665 0.0127437 0.65058 
0 0 -1.09405 -0.0401261 -0.154208 -0.98524 0 0 -1.09405 
0 0 -1.09405 0 0 -1.09405 0 0 -1.09405 
0 0 -1.09405 0 0 -1.09405 0 0 -1.09405 
0 0 -1.09405 0 0 0.872115 0 0 -1.09405 
-0.150384 0.0735644 -1.08361 0.747929 0.143688 0.108586 0 0 -1.09405 
0 0 -1.09405 0 0 -1.09405 0 0 -1.09405 
0 0 -1.09405 0 0 -1.09405 0 0 -1.09405 
0 0 -1.09405 0 0 -1.09405 0 0 -1.09405 
0 0 -1.09405 -0.173576 0.589195 0.210565 0 0 -1.09405 
0 0 -1.09405 0 0 -1.09405 0 0 -1.09405 
0 0 0.698693 0 0 -1.09405 0 0 -1.09405 
0 0 -1.09405 0 0 -1.09405 0 0 -1.09405 
0 0 0.831106 0 0 -1.09405 -0.129308 0.476324 -0.912039 
0 0 -1.09405 0 0 -1.09405 0 0 -1.09405 
0.119184 0.668712 0.45779 0.0343898 -0.0132211 -1.04583 0 0 -0.441374 
0 0 -1.09405 0 0 -1.09405 0 0 -1.09405 
0 0 -1.09405 0 0 -1.09405 0.473314 -0.31843 0.279255 
0 0 0.65569 0 0 -1.09405 -0.48686 -0.616759 -0.268517 
-0.0806877 -0.767899 0.379432 -0.398406 0.265254 -0.356076 0 0 -1.09405 
0 0 -1.09405 0 0 -1.09405 0 0 -1.09405 
0 0 -1.09405 0.185112 -0.0255972 -0.18304 0 0 -1.09405 
0 0 -1.09405 0 0 -1.09405 0 0 -1.09405 
0 0 -1.09405 0 0 -1.09405 0 0 -1.09405 
0 0 -1.09405 0 0 -1.09405 0 0 -1.09405 
0.00305449 0.000152102 -1.08987 0 0 -1.09405 0 0 -1.09405 
0 0 -1.09405 0 0 -1.09405 0 0 -1.09405 
0.127565 -0.205258 -0.783899 0 0 -1.09405 -0.454101 -0.0704598 -0.266482 
0 0 -1.09405 0 0 -1.09405 0 0 -0.346187 
0 0 -1.09405 0 0 -1.09405 0 0 -1.09405 
-0.148752 0.040095 0.400313 0 0 -1.09405 0 0 -1.09405 
0 0 -1.09405 0 0 -1.09405 0 0 -1.09405 
0 0 -1.09405 0 0 -1.09405 0 0 -1.09405 
0 0 -1.09405 0.364194 0.0799927 0.592865 0 0 -1.09405 
-0.00152173 0.0116541 0.664747 0 0 -1.09405 0 0 -1.09405 
0 0 -1.09405 0.448699 -0.245911 -0.902743 0 0 -1.09405 
-1.52157e-05 0.000287707 -1.094 0 0 -1.09405 -0.254117 -0.0557569 -0.805354 
0 0 -1.09405 -0.0879313 0.0405925 -0.699148 0 0 -1.09405 
0 0 -1.09405 0 0 -1.09405 0 0 -1.09405 
0.0151427 0.00233584 -1.04896 -0.0867299 0.775454 -0.000602788 0 0 -0.862653 
0 0 -1.09405 0 0 -1.09405 -0.0161719 0.0385251 0.752277 
0 0 -1.09405 0 0 -1.09405 0 0 -1.09405 
0 0 -1.09405 0 0 -1.09405 0 0 -1.09405 
0 0 -1.09405 0 0 -1.09405 0 0 -1.09405 
0 0 -0.178388 0 0 -1.09405 0 0 -1.09405 
0 0 -1.09405 0 0 -1.09405 -0.0199906 -0.157073 -1.04025 
0 0 -1.09405 0 0 -1.09405 0 0 -1.09405 
0 0 -1.09405 0 0 -1.09405 -0.188465 -0.64107 -0.555891 
0 0 -1.09405 0 0 -1.09405 0.0295111 -0.0183619 0.790878 
0 0 -1.09405 0 0 -1.09405 0 0 -1.09405 
0 0 -1.09405 -0.62624 -0.0605178 0.260617 -0.901261 -0.185804 0.149074 
0 0 -1.09405 0 0 -1.09405 -0.0336113 -0.0067046 0.774358 
0 0 -1.09405 0 0 -1.09405 0.3812 0.0388513 -1.01923 
0 0 -1.09405 0 0 -1.09405 0 0 -1.09405 
0.00124793 0.00303495 -0.134064 0 0 -1.09405 0 0 -1.09405 
0 0 -1.09405 0 0 0.77151 0 0 -1.09405 
0 0 -1.09405 0 0 -1.09405 0 0 -1.09405 
0 0 -1.09405 0.565897 -0.327846 -0.443205 0 0 -1.09405 
0 0 -1.09405 -0.494009 -0.326917 -0.603191 0.697447 -0.0936642 -0.22454 
0 0 -1.09405 0 0 -1.09405 -0.31868 -0.184558 -1.11061 
0 0 -1.09405 -0.667005 0.776477 -0.349402 0 0 -1.09405 
0 0 -1.09405 0 0 -1.09405 0 0 -1.09405 
0 0 -1.09405 0 0 -1.09405 0 0 -1.09405 
0 0 -1.09405 0 0 -1.09405 0 0 -1.09405 
0 0 -1.09405 0 0 -1.09405 0 0 -1.09405 
0.569147 -0.196908 0.0686553 -0.0947056 -0.0724156 -0.800262 0 0 -1.09405 
0 0 -1.09405 0 0 -1.09405 0 0 -1.09405 
0 0 -1.09405 0 0 -1.09405 0 0 -1.09405 
0.0344107 0.00686406 -0.9775 0.525767 -0.387794 -0.0392699 0 0 -1.09405 
0 0 -1.09405 0 0 -1.09405 0 0 -1.09405 
0 0 -1.09405 0 0 -1.09405 0 0 -1.09405 
0 0 -1.09405 0 0 -1.09405 -0.000114228 -7.93431e-05 -1.09365 
0 0 -1.09405 0 0 -1.09405 0 0 -1.09405 
0 0 -1.09405 0 0 -1.09405 0 0 -1.09405 
0 0 -1.09405 0 0 -1.09405 0 0 -1.09405 
0 0 -1.09405 0 0 -1.09405 0 0 -1.09405 
0 0 0.827603 0 0 -1.09405 0 0 -1.09405 
0 0 -1.09405 0 0 -1.09405 -0.115502 0.124302 0.196024 
0 0 -1.09405 0 0 -1.09405 0 0 -1.09405 
0.0470849 -0.277703 -0.599946 0 0 -1.09405 0 0 -1.09405 
0 0 -1.09405 0 0 -1.09405 -0.0906909 -0.170145 -0.910111 
0 0 -1.09405 0 0 -1.09405 0 0 -1.09405 
0 0 -1.09405 0 0 -1.09405 0 0 -1.09405 
0 0 -1.09405 0 0 -1.09405 0 0 -1.09405 
0 0 -1.09405 0 0 -1.09405 -0.382014 -0.0458637 -0.363839 
0 0 -1.09405 -0.392072 -0.655217 -0.468069 0 0 -1.09405 
0 0 -0.584042 0 0 -1.09405 0 0 -1.09405 
0 0 -1.09405 -0.228467 0.269405 -0.8961 0 0 0.723147 
0 0 0.874788 -0.389364 -0.0995589 -0.729255 0 0 -1.09405 
0 0 -1.09405 0 0 -1.09405 0 0 -1.09405 
0 0 0.43401 0 0 -1.09405 0 0 -1.09405 
0 0 -1.09405 0 0 -1.09405 -0.0310909 -0.0277955 -1.07989 
0 0 -1.09405 -0.0499042 0.0229439 0.399385 0 0 -1.09405 
0 0 -1.09405 0 0 -1.09405 0 0 -1.09405 
0 0 -1.09405 0 0 -1.09405 0 0 -1.09405 
0 0 -1.09405 0 0 -1.09405 0 0 -1.09405 
0 0 -1.09405 0 0 -1.09405 0 0 -1.09405 
0 0 -1.09405 0 0 -1.09405 0 0 -1.09405 
0 0 -1.09405 0 0 -1.09405 0 0 -1.09405 
0 0 -1.09405 -0.044644 -0.229165 0.7733 0 0 -1.09405 
0 0 -1.09405 0 0 -1.09405 0 0 -1.09405 
0 0 -1.09405 0 0 -1.09405 0.0166504 0.229717 -0.598426 
0 0 -1.09405 0 0 -1.09405 0 0 -1.09405 
0 0 -1.09405 0.184102 0.230437 -0.991295 -0.132047 0.485236 0.0434366 
0 0 -1.09405 0 0 -1.09405 0 0 -1.09405 
0 0 -1.09405 -0.0376447 -0.248613 -0.00438605 -0.167433 -0.318318 0.263531 
0 0 -1.09405 0 0 -1.09405 0.115508 -0.0453091 -0.296947 
0 0 0.870718 0 0 -1.09405 0 0 -1.09405 
-0.659701 0.130185 -0.423113 0 0 -1.09405 0 0 -1.09405 
-0.403672 -0.172237 -0.91136 0 0 -1.09405 0 0 -1.09405 
0 0 -1.09405 0 0 0.594884 0 0 -1.09405 
0 0 -1.09405 0 0 -1.09405 0 0 -1.09405 
-0.0723395 0.0145706 -1.03703 -0.592294 0.207723 -0.109407 0 0 -1.09405 
0.11058 -0.127949 -0.470021 0 0 -1.09405 0 0 -1.09405 
0 0 -1.09405 0 0 -1.09405 0 0 -1.09405 
0 0 -1.09405 0 0 -1.09405 -0.0629705 0.187193 -1.01061 
0 0 -1.09405 -0.525145 0.0722016 0.531941 0 0 -1.09405 
0 0 -1.09405 0 0 -1.09405 0 0 -1.09405 
0 0 -1.09405 -0.597114 0.147797 0.283259 0 0 -1.09405 
0 0 -1.09405 -0.315448 0.0110709 -0.679813 0 0 -1.09405 
0 0 -1.09405 0 0 -1.09405 0.0155236 0.205607 0.705108 
0 0 -1.09405 0 0 -1.09405 0 0 -1.09405 
0 0 -1.09405 0 0 -1.09405 0 0 -1.09405 