# vtk DataFile Version 4.0
Generated by LIGGGHTS
ASCII
DATASET POLYDATA
POINTS 1355 float
-0.898699 -0.460678 -0.460403 -0.771691 -0.460174 -0.460428 -0.692134 -0.459859 -0.460442 
-0.612688 -0.460576 -0.460593 -0.532521 -0.460677 -0.460701 -0.452753 -0.460423 -0.460546 
-0.372907 -0.460315 -0.46059 -0.270026 -0.46044 -0.4607 -0.16251 -0.460416 -0.460565 
-0.0821656 -0.460283 -0.460278 0.0583292 -0.460135 -0.46003 0.139912 -0.445257 -0.460015 
0.228866 -0.460344 -0.460211 0.307651 -0.447525 -0.460138 0.38656 -0.459914 -0.460672 
0.47299 -0.458795 -0.460473 0.582534 -0.46015 -0.460424 0.668078 -0.460214 -0.460166 
0.747944 -0.460049 -0.460327 0.828116 -0.460312 -0.460515 0.907749 -0.460576 -0.461133 
-0.960791 -0.411736 -0.460902 -0.887272 -0.381505 -0.460407 -0.732929 -0.390312 -0.460246 
-0.651867 -0.390923 -0.460384 -0.572656 -0.392904 -0.453462 -0.49305 -0.391577 -0.460368 
-0.41303 -0.39128 -0.46013 -0.332679 -0.390511 -0.460161 -0.20278 -0.391943 -0.460392 
-0.123037 -0.391041 -0.46088 0.0282001 -0.387798 -0.443912 0.10449 -0.370777 -0.459953 
0.195589 -0.388105 -0.461729 0.273695 -0.372567 -0.460672 0.352921 -0.381608 -0.460785 
0.432696 -0.389712 -0.460376 0.524476 -0.396929 -0.460291 0.623929 -0.39209 -0.460709 
0.70772 -0.391171 -0.460514 0.788978 -0.39037 -0.460459 0.868781 -0.391524 -0.460461 
0.960251 -0.400476 -0.460435 -0.954859 -0.332793 -0.460176 -0.880859 -0.302446 -0.460883 
-0.808104 -0.363515 -0.460109 -0.682026 -0.317013 -0.461613 -0.565387 -0.315109 -0.460975 
-0.485691 -0.31263 -0.460438 -0.405754 -0.311611 -0.460311 -0.264517 -0.342979 -0.461063 
-0.191454 -0.309188 -0.460473 -0.10871 -0.312865 -0.460482 -0.043611 -0.358548 -0.460692 
0.0402795 -0.31076 -0.460144 0.162427 -0.315634 -0.460199 0.320649 -0.307733 -0.460736 
0.399808 -0.316908 -0.46073 0.479993 -0.313429 -0.460676 0.571191 -0.332075 -0.460797 
0.661504 -0.321814 -0.460127 0.742723 -0.31989 -0.460491 0.881311 -0.313074 -0.460495 
0.960373 -0.320583 -0.460677 -0.960619 -0.253794 -0.460516 -0.803602 -0.284028 -0.460454 
-0.732402 -0.24776 -0.460118 -0.624636 -0.261757 -0.459937 -0.533891 -0.243079 -0.46063 
-0.454311 -0.239566 -0.460339 -0.326403 -0.293475 -0.460751 -0.144234 -0.241693 -0.460466 
-0.0333382 -0.279579 -0.460803 0.103485 -0.262073 -0.460612 0.189841 -0.238461 -0.460155 
0.240728 -0.30002 -0.460678 0.46527 -0.234892 -0.460587 0.541278 -0.258068 -0.460467 
0.617594 -0.257633 -0.43836 0.693153 -0.248857 -0.460455 0.77198 -0.24597 -0.46048 
0.881119 -0.233383 -0.460075 0.960315 -0.240985 -0.46034 -0.960665 -0.174181 -0.460676 
-0.891948 -0.214105 -0.460249 -0.813529 -0.205237 -0.460573 -0.670919 -0.196833 -0.460571 
-0.591452 -0.188333 -0.460349 -0.502124 -0.170479 -0.460535 -0.37561 -0.23066 -0.460207 
-0.297349 -0.219209 -0.4604 -0.218216 -0.212234 -0.460608 -0.0494389 -0.201914 -0.460045 
0.0299064 -0.230758 -0.46056 0.0899779 -0.171599 -0.461101 0.245356 -0.180958 -0.460138 
0.308959 -0.228907 -0.460663 0.382844 -0.198769 -0.460234 0.569109 -0.180676 -0.461676 
0.64852 -0.182937 -0.460287 0.728101 -0.176032 -0.460341 0.819518 -0.183206 -0.460326 
-0.892352 -0.134123 -0.460473 -0.812363 -0.125519 -0.46013 -0.744458 -0.166946 -0.460627 
-0.637998 -0.1239 -0.460753 -0.55908 -0.114969 -0.460378 -0.422891 -0.166191 -0.460371 
-0.344203 -0.155044 -0.461451 -0.264248 -0.147019 -0.460514 -0.155461 -0.163093 -0.460809 
-0.0742812 -0.126242 -0.460028 0.0129186 -0.152496 -0.461093 0.168794 -0.160566 -0.460247 
0.315242 -0.143532 -0.460686 0.420736 -0.1218 -0.461225 0.496305 -0.147626 -0.460393 
0.61019 -0.112531 -0.4604 0.801759 -0.106145 -0.461055 0.884385 -0.137274 -0.460478 
0.960271 -0.161289 -0.460274 -0.959669 -0.0720021 -0.460416 -0.860251 -0.0619029 -0.460393 
-0.779651 -0.0496926 -0.460647 -0.707438 -0.0849649 -0.460293 -0.582598 -0.0381038 -0.460653 
-0.497313 -0.0646367 -0.460291 -0.413475 -0.081161 -0.46029 -0.333812 -0.0761173 -0.460057 
-0.201568 -0.0982278 -0.460429 -0.134169 -0.0570694 -0.460605 -0.0144769 -0.0707777 -0.460121 
0.0665391 -0.0413661 -0.46091 0.12805 -0.0921405 -0.460072 0.205068 -0.0691314 -0.461004 
0.28443 -0.0703868 -0.461067 0.363767 -0.0665128 -0.460112 0.439362 -0.0394469 -0.460341 
0.537621 -0.0793134 -0.46056 0.656966 -0.0400657 -0.460594 0.728837 -0.0742739 -0.460579 
0.83396 -0.034167 -0.460287 0.960537 -0.0814581 -0.460714 -0.915442 -0.00473001 -0.460886 
-0.830954 0.0115554 -0.460085 -0.752348 0.0251383 -0.460328 -0.677184 -0.0110855 -0.461058 
-0.466287 0.00876496 -0.460611 -0.380855 -0.0041601 -0.460163 -0.301243 -0.00360871 -0.460525 
-0.221495 -0.00460452 -0.460379 -0.0744465 -0.00512201 -0.460222 0.00389653 0.00730512 -0.4604 
0.143254 -0.0138279 -0.460736 0.219416 0.00948232 -0.460258 0.298975 0.00788328 -0.46019 
0.378321 0.0119048 -0.460345 0.582099 -0.0126831 -0.460687 0.689136 0.0330542 -0.46043 
0.761178 -0.00121733 -0.460183 0.911476 -0.0193752 -0.461218 -0.960676 0.0606781 -0.46067 
-0.882295 0.0723481 -0.460137 -0.804074 0.0863129 -0.46104 -0.640583 0.0839864 -0.460427 
-0.552384 0.0357315 -0.461229 -0.490562 0.0836814 -0.448073 -0.414925 0.0633245 -0.434057 
-0.340196 0.0654641 -0.460861 -0.260556 0.0650563 -0.460037 -0.138814 0.0424733 -0.460567 
-0.0650668 0.073682 -0.460222 0.0134965 0.0863902 -0.460972 0.0772827 0.0381748 -0.46041 
0.152267 0.0651763 -0.460153 0.270129 0.081945 -0.460496 0.395335 0.0896536 -0.460875 
0.456143 0.0397412 -0.460801 0.53235 0.0616406 -0.459846 0.611817 0.0624589 -0.460914 
0.754437 0.0791852 -0.460701 0.8263 0.0447127 -0.460567 0.893601 0.0873151 -0.460218 
0.960211 0.0436316 -0.460325 -0.960276 0.140179 -0.460613 -0.866639 0.150563 -0.460141 
-0.725621 0.0997656 -0.46046 -0.628246 0.162579 -0.460779 -0.564932 0.114273 -0.460246 
-0.500514 0.161205 -0.461311 -0.383619 0.131627 -0.461075 -0.303139 0.136246 -0.460104 
-0.190683 0.103075 -0.460956 -0.117211 0.133523 -0.460635 -0.0337257 0.151044 -0.460343 
0.094907 0.124158 -0.460118 0.203507 0.125565 -0.460505 0.330395 0.134662 -0.460764 
0.482942 0.124538 -0.461022 0.568077 0.133024 -0.460605 0.647795 0.133732 -0.460287 
0.751596 0.158951 -0.461011 0.822688 0.123759 -0.46028 0.960514 0.131458 -0.460504 
-0.960143 0.219602 -0.460741 -0.824364 0.21834 -0.46047 -0.710302 0.177598 -0.460985 
-0.42935 0.196944 -0.460289 -0.348174 0.202322 -0.460247 -0.225833 0.197996 -0.460135 
-0.134767 0.211028 -0.460592 0.0489071 0.189712 -0.460354 0.148255 0.183463 -0.460471 
0.263417 0.176847 -0.461282 0.336997 0.213328 -0.460249 0.41475 0.166651 -0.460615 
0.518567 0.195845 -0.460448 0.607206 0.202618 -0.460976 0.686602 0.203392 -0.460414 
0.81893 0.20304 -0.461133 0.889696 0.166939 -0.460506 0.960137 0.215559 -0.460518 
-0.960479 0.300613 -0.460235 -0.891702 0.26068 -0.460205 -0.821289 0.298073 -0.460908 
-0.749846 0.246915 -0.460591 -0.604696 0.250176 -0.460678 -0.519519 0.247373 -0.460919 
-0.393145 0.267734 -0.460693 -0.286644 0.252116 -0.46078 -0.183494 0.273333 -0.461368 
-0.0589072 0.233886 -0.460511 0.0138618 0.266056 -0.460462 0.108933 0.252894 -0.46061 
0.189918 0.252834 -0.460181 0.269898 0.255655 -0.46027 0.37938 0.280327 -0.460313 
0.449494 0.238214 -0.460612 0.55908 0.2661 -0.460826 0.647012 0.271953 -0.460954 
0.752476 0.248114 -0.460747 0.88623 0.246056 -0.46051 0.958258 0.302874 -0.460701 
-0.891474 0.34035 -0.460487 -0.739544 0.325413 -0.460635 -0.657758 0.310253 -0.460166 
-0.571293 0.322167 -0.460248 -0.460468 0.350866 -0.461195 -0.332126 0.318749 -0.46037 
-0.24741 0.320433 -0.46014 -0.130499 0.346749 -0.460804 -0.0506528 0.313133 -0.46062 
0.0702134 0.322439 -0.461109 0.149975 0.32217 -0.460795 0.22962 0.323498 -0.46048 
0.311859 0.323133 -0.460561 0.418281 0.349491 -0.460662 0.490385 0.30684 -0.460499 
0.59878 0.335484 -0.460384 0.719085 0.320508 -0.460942 0.800174 0.319193 -0.460204 
0.879761 0.324769 -0.460097 -0.960317 0.380492 -0.460528 -0.891095 0.420169 -0.460802 
-0.775044 0.396109 -0.460363 -0.689707 0.387415 -0.460443 -0.610155 0.391565 -0.461109 
-0.530653 0.390927 -0.460647 -0.390987 0.396337 -0.460629 -0.290594 0.386708 -0.460433 
-0.200477 0.384114 -0.460799 -0.0645008 0.391617 -0.460513 0.0202656 0.393287 -0.460215 
0.109315 0.391381 -0.460342 0.18891 0.391747 -0.460756 0.270319 0.391553 -0.460442 
0.350988 0.392376 -0.46034 0.461027 0.416963 -0.460299 0.530007 0.376505 -0.460043 
0.676265 0.389493 -0.460357 0.758966 0.38952 -0.460303 0.838679 0.392893 -0.46049 
0.920629 0.392419 -0.461036 -0.960052 0.460278 -0.460164 -0.822029 0.460284 -0.460336 
-0.728637 0.460363 -0.460558 -0.649442 0.460509 -0.460474 -0.570074 0.460325 -0.460357 
-0.490585 0.460246 -0.460839 -0.343153 0.460069 -0.46007 -0.263367 0.460699 -0.46021 
-0.183918 0.460899 -0.460352 -0.104786 0.460244 -0.461007 -0.0235623 0.460122 -0.460106 
0.0691291 0.460182 -0.460559 0.14907 0.460484 -0.460637 0.22948 0.460258 -0.460462 
0.309737 0.460503 -0.460269 0.393377 0.459973 -0.460136 0.527989 0.460117 -0.461228 
0.635005 0.459866 -0.460334 0.715038 0.459912 -0.460206 0.795763 0.460238 -0.460097 
0.880376 0.46065 -0.460428 0.960314 0.460668 -0.460335 -0.96025 -0.460669 -0.398853 
-0.885651 -0.460298 -0.370983 -0.73175 -0.460547 -0.391205 -0.65224 -0.460258 -0.391206 
-0.57246 -0.460267 -0.391728 -0.492582 -0.460264 -0.391822 -0.412808 -0.460149 -0.391703 
-0.321537 -0.460558 -0.400095 -0.215062 -0.460122 -0.400418 -0.123309 -0.461241 -0.391878 
-0.0120027 -0.454519 -0.422909 0.100282 -0.45989 -0.392032 0.183555 -0.460437 -0.394602 
0.269397 -0.460057 -0.391273 0.349625 -0.460276 -0.39004 0.429374 -0.461132 -0.393715 
0.527916 -0.460525 -0.40273 0.62487 -0.458794 -0.392967 0.708841 -0.455581 -0.391125 
0.789068 -0.436606 -0.395522 0.868607 -0.460679 -0.392563 0.960803 -0.460158 -0.402839 
-0.960403 -0.381864 -0.387096 -0.835384 -0.429511 -0.42437 -0.773267 -0.392899 -0.391495 
-0.69227 -0.391077 -0.391688 -0.612011 -0.395599 -0.3673 -0.532794 -0.391329 -0.384713 
-0.453294 -0.39089 -0.391243 -0.26922 -0.401736 -0.407529 -0.162436 -0.391706 -0.391672 
[...]
POINT_DATA 1355
FIELD FieldData 7
id 1 1355 int
366 408 584 322 662 206 563 371 419 
523 145 607 585 151 530 365 186 620 
156 70 664 692 632 759 714 370 120 
208 723 59 512 435 712 211 457 20 
256 338 470 195 678 320 643 534 171 
196 105 493 581 542 514 245 234 347 
708 214 305 529 396 291 444 367 476 
155 724 314 136 721 375 250 442 95 
498 54 200 280 75 623 593 109 184 
446 647 159 267 289 373 275 324 62 
533 376 589 76 722 543 431 576 202 
572 683 676 445 83 641 185 331 96 
99 458 575 40 57 239 31 281 298 
126 300 48 680 521 531 428 254 592 
758 361 412 14 689 312 252 88 153 
397 483 170 704 321 140 700 726 143 
142 351 651 528 433 92 690 437 359 
569 304 439 339 639 461 177 378 459 
310 258 182 6 549 369 323 121 382 
507 423 154 495 224 612 720 590 539 
166 460 97 240 537 127 51 85 544 
293 697 634 129 104 602 742 161 32 
384 25 671 74 278 383 71 266 19 
22 627 717 162 348 247 167 125 191 
199 294 586 640 675 441 637 596 149 
475 463 387 269 130 8 218 748 420 
613 663 16 578 402 682 421 715 649 
299 698 747 261 622 355 571 411 42 
416 227 391 527 557 346 67 274 319 
242 9 73 766 409 535 89 4 260 
318 650 388 311 94 618 39 582 53 
673 729 3 69 496 363 201 188 599 
670 228 519 667 472 669 660 646 654 
43 230 226 306 427 316 614 764 329 
545 179 389 12 453 440 197 452 90 
551 686 38 587 285 725 743 181 518 
225 761 513 5 559 72 336 66 116 
78 628 131 679 103 273 1154 276 516 
47 233 325 223 666 157 455 205 175 
287 221 56 751 736 426 744 642 611 
302 413 473 741 108 684 118 653 18 
15 82 272 100 87 343 532 490 219 
601 290 465 110 438 372 767 631 255 
879 552 307 699 636 187 550 80 313 
645 556 511 114 757 144 81 668 58 
615 616 558 644 341 189 407 36 462 
597 357 565 279 554 29 334 282 570 
424 286 399 24 447 364 183 478 566 
492 394 718 169 248 621 33 422 11 
541 395 46 106 345 192 568 86 60 
236 44 112 497 429 479 540 134 45 
694 502 358 352 746 21 629 522 711 
137 271 2 524 111 102 381 818 216 
733 147 326 194 148 580 172 101 775 
443 415 28 738 710 146 474 180 482 
374 436 638 450 253 425 93 91 215 
505 403 520 277 84 133 626 288 350 
762 193 546 41 970 333 392 231 330 
135 928 574 308 328 232 703 432 296 
591 393 284 687 49 681 400 648 190 
128 610 209 760 35 665 122 503 750 
488 259 480 469 508 26 113 608 123 
222 709 340 456 251 417 17 292 138 
430 246 98 448 283 404 178 244 132 
63 583 464 891 600 1165 418 547 763 
499 553 229 494 385 617 672 467 119 
755 481 727 526 390 210 728 249 217 
573 871 769 354 158 510 7 604 386 
739 466 793 890 500 658 337 986 1166 
846 173 567 1184 468 781 927 735 959 
1152 925 685 933 814 921 414 784 265 
943 504 787 268 935 831 910 362 619 
903 1173 688 652 867 410 768 973 951 
749 963 770 1061 1170 360 828 235 696 
779 1115 875 1147 207 241 702 1091 907 
454 812 1255 974 754 848 914 829 295 
937 176 982 838 870 932 509 901 124 
691 792 919 603 335 317 406 944 972 
732 165 379 707 952 491 765 349 904 
894 655 79 851 471 734 786 981 795 
882 356 939 855 141 489 577 30 501 
204 674 536 886 486 918 861 824 895 
487 1284 731 800 309 50 605 1052 908 
630 1075 434 677 892 52 801 905 27 
301 776 962 805 990 911 332 164 1182 
484 975 815 401 548 327 198 737 977 
657 794 954 922 835 656 888 633 730 
827 160 752 968 790 150 34 783 243 
695 477 538 220 10 555 380 803 876 
515 791 840 955 65 560 77 342 719 
107 804 23 887 965 203 872 929 994 
873 598 884 822 713 237 659 1 13 
61 960 706 398 859 896 869 716 55 
606 1156 971 856 115 506 909 813 257 
821 564 139 263 850 174 609 912 773 
917 37 297 368 881 625 353 1134 771 
772 913 562 405 845 880 451 949 885 
117 525 1001 303 262 785 213 68 635 
64 661 588 449 756 152 753 701 594 
984 923 315 579 377 485 961 212 878 
938 1243 561 270 906 1178 1079 1149 1312 
866 823 1334 1143 988 1076 956 825 1006 
1330 1141 163 1123 1093 930 1116 1290 1051 
958 809 1066 1211 1193 1279 1110 1003 1185 
849 1133 1058 1159 1288 1035 826 1231 844 
1197 1112 1073 832 1113 1167 1097 1049 1347 
1000 1344 1145 868 999 1125 995 1160 1028 
1071 1086 865 847 1186 993 1354 1316 1032 
1062 1139 1099 1022 1036 1015 808 1106 1295 
1054 1144 950 1056 1008 1021 1189 1129 857 
1187 1246 902 1162 985 1014 1283 936 964 
1103 1188 806 780 789 1130 1013 1077 1172 
1020 1095 1050 1111 1138 916 992 1174 1105 
820 782 1089 1065 1087 969 1023 1135 1012 
834 1158 1179 978 924 1183 1048 1119 1082 
797 1083 1026 980 1018 842 953 967 1016 
839 1067 1258 947 1176 1078 1010 1114 987 
931 1027 799 807 1150 1220 1216 836 1037 
810 893 1088 926 1081 1311 1171 1033 1046 
1265 1100 1253 1017 1203 1009 1109 862 819 
1122 1272 843 837 934 899 1080 852 915 
948 1096 946 1069 1057 1180 983 860 1128 
1104 997 874 1092 841 864 1043 798 811 
1085 1148 1055 1126 1309 595 1101 998 1029 
1025 774 1163 889 344 1137 1177 777 1053 
796 1063 1011 1042 1118 1041 1230 877 1256 
976 1131 853 1060 858 989 1074 966 945 
940 1045 1181 1124 1019 1068 1232 778 900 
898 830 1157 854 1102 996 942 1169 168 
1064 1287 1070 1136 1024 1117 1254 740 1059 
1161 1098 979 1040 1208 1142 817 863 1262 
957 883 238 517 816 897 788 624 1252 
1250 1004 1121 1303 1151 745 693 1233 1140 
941 1132 1190 1299 1238 1327 1302 1226 1107 
1339 1305 1306 1275 1335 1217 1276 1249 1267 
1285 1251 1291 1247 1266 1210 1221 1034 1215 
1329 1031 802 1224 1350 1323 1297 1322 1321 
1199 1346 1005 1202 1237 1047 1213 1315 1194 
1209 1342 1352 1341 1201 1325 1223 1263 1292 
1228 1192 833 1348 1205 1317 1270 1331 1219 
1304 1242 1235 1343 1039 1108 1214 1319 1227 
1274 1084 1236 1326 1296 1301 1294 1308 1044 
1273 1333 1349 1286 1259 1234 1260 1345 1164 
1218 1127 1153 1282 1198 1269 1278 1241 1293 
1268 1204 1289 1168 1271 1207 1324 1007 1240 
1072 1196 1175 1261 1314 1280 1094 1300 1248 
1191 1245 1222 1155 1038 1320 1328 1351 1298 
991 920 1229 1200 1195 1310 1355 1090 1277 
1281 1244 1002 1212 1257 264 1353 1146 1264 
1225 1336 1318 1239 1337 1307 705 1313 1206 
1030 1120 1340 1338 1332 
type 1 1355 int
1 1 1 1 1 1 1 1 1 
1 1 1 1 1 1 1 1 1 
1 1 1 1 1 1 1 1 1 
1 1 1 1 1 1 1 1 1 
1 1 1 1 1 1 1 1 1 
1 1 1 1 1 1 1 1 1 
1 1 1 1 1 1 1 1 1 
1 1 1 1 1 1 1 1 1 
1 1 1 1 1 1 1 1 1 
1 1 1 1 1 1 1 1 1 
1 1 1 1 1 1 1 1 1 
1 1 1 1 1 1 1 1 1 
1 1 1 1 1 1 1 1 1 
1 1 1 1 1 1 1 1 1 
1 1 1 1 1 1 1 1 1 
1 1 1 1 1 1 1 1 1 
1 1 1 1 1 1 1 1 1 
1 1 1 1 1 1 1 1 1 
1 1 1 1 1 1 1 1 1 
1 1 1 1 1 1 1 1 1 
1 1 1 1 1 1 1 1 1 
1 1 1 1 1 1 1 1 1 
1 1 1 1 1 1 1 1 1 
1 1 1 1 1 1 1 1 1 
1 1 1 1 1 1 1 1 1 
1 1 1 1 1 1 1 1 1 
1 1 1 1 1 1 1 1 1 
1 1 1 1 1 1 1 1 1 
1 1 1 1 1 1 1 1 1 
1 1 1 1 1 1 1 1 1 
1 1 1 1 1 1 1 1 1 
1 1 1 1 1 1 1 1 1 
1 1 1 1 1 1 1 1 1 
1 1 1 1 1 1 1 1 1 
1 1 1 1 1 1 1 1 1 
1 1 1 1 1 1 1 1 1 
1 1 1 1 1 1 1 1 1 
1 1 1 1 1 1 1 1 1 
1 1 1 1 1 1 1 1 1 
1 1 1 1 1 1 1 1 1 
1 1 1 1 1 1 1 1 1 
1 1 1 1 1 1 1 1 1 
1 1 1 1 1 1 1 1 1 
1 1 1 1 1 1 1 1 1 
1 1 1 1 1 1 1 1 1 
1 1 1 1 1 1 1 1 1 
1 1 1 1 1 1 1 1 1 
1 1 1 1 1 1 1 1 1 
1 1 1 1 1 1 1 1 1 
1 1 1 1 1 1 1 1 1 
1 1 1 1 1 1 1 1 1 
1 1 1 1 1 1 1 1 1 
1 1 1 1 1 1 1 1 1 
1 1 1 1 1 1 1 1 1 
1 1 1 1 1 1 1 1 1 
1 1 1 1 1 1 1 1 1 
1 1 1 1 1 1 1 1 1 
1 1 1 1 1 1 1 1 1 
1 1 1 1 1 1 1 1 1 
1 1 1 1 1 1 1 1 1 
1 1 1 1 1 1 1 1 1 
1 1 1 1 1 1 1 1 1 
1 1 1 1 1 1 1 1 1 
1 1 1 1 1 1 1 1 1 
1 1 1 1 1 1 1 1 1 
1 1 1 1 1 1 1 1 1 
1 1 1 1 1 1 1 1 1 
1 1 1 1 1 1 1 1 1 
1 1 1 1 1 1 1 1 1 
1 1 1 1 1 1 1 1 1 
1 1 1 1 1 1 1 1 1 
1 1 1 1 1 1 1 1 1 
1 1 1 1 1 1 1 1 1 
1 1 1 1 1 1 1 1 1 
1 1 1 1 1 1 1 1 1 
1 1 1 1 1 1 1 1 1 
1 1 1 1 1 1 1 1 1 
1 1 1 1 1 1 1 1 1 
1 1 1 1 1 1 1 1 1 
1 1 1 1 1 1 1 1 1 
1 1 1 1 1 1 1 1 1 
1 1 1 1 1 1 1 1 1 
1 1 1 1 1 1 1 1 1 
1 1 1 1 1 1 1 1 1 
1 1 1 1 1 1 1 1 1 
1 1 1 1 1 1 1 1 1 
1 1 1 1 1 1 1 1 1 
1 1 1 1 1 1 1 1 1 
1 1 1 1 1 1 1 1 1 
1 1 1 1 1 1 1 1 1 
1 1 1 1 1 1 1 1 1 
1 1 1 1 1 1 1 1 1 
1 1 1 1 1 1 1 1 1 
1 1 1 1 1 1 1 1 1 
1 1 1 1 1 1 1 1 1 
1 1 1 1 1 1 1 1 1 
1 1 1 1 1 1 1 1 1 
1 1 1 1 1 1 1 1 1 
1 1 1 1 1 1 1 1 1 
1 1 1 1 1 1 1 1 1 
1 1 1 1 1 1 1 1 1 
1 1 1 1 1 1 1 1 1 
1 1 1 1 1 1 1 1 1 
1 1 1 1 1 1 1 1 1 
1 1 1 1 1 1 1 1 1 
1 1 1 1 1 1 1 1 1 
1 1 1 1 1 1 1 1 1 
1 1 1 1 1 1 1 1 1 
1 1 1 1 1 1 1 1 1 
1 1 1 1 1 1 1 1 1 
1 1 1 1 1 1 1 1 1 
1 1 1 1 1 1 1 1 1 
1 1 1 1 1 1 1 1 1 
1 1 1 1 1 1 1 1 1 
1 1 1 1 1 1 1 1 1 
1 1 1 1 1 1 1 1 1 
1 1 1 1 1 1 1 1 1 
1 1 1 1 1 1 1 1 1 
1 1 1 1 1 1 1 1 1 
1 1 1 1 1 1 1 1 1 
1 1 1 1 1 1 1 1 1 
1 1 1 1 1 1 1 1 1 
1 1 1 1 1 1 1 1 1 
1 1 1 1 1 1 1 1 1 
1 1 1 1 1 1 1 1 1 
1 1 1 1 1 1 1 1 1 
1 1 1 1 1 1 1 1 1 
1 1 1 1 1 1 1 1 1 
1 1 1 1 1 1 1 1 1 
1 1 1 1 1 1 1 1 1 
1 1 1 1 1 1 1 1 1 
1 1 1 1 1 1 1 1 1 
1 1 1 1 1 1 1 1 1 
1 1 1 1 1 1 1 1 1 
1 1 1 1 1 1 1 1 1 
1 1 1 1 1 1 1 1 1 
1 1 1 1 1 1 1 1 1 
1 1 1 1 1 1 1 1 1 
1 1 1 1 1 1 1 1 1 
1 1 1 1 1 1 1 1 1 
1 1 1 1 1 1 1 1 1 
1 1 1 1 1 1 1 1 1 
1 1 1 1 1 1 1 1 1 
1 1 1 1 1 1 1 1 1 
1 1 1 1 1 1 1 1 1 
1 1 1 1 1 1 1 1 1 
1 1 1 1 1 1 1 1 1 
1 1 1 1 1 1 1 1 1 
1 1 1 1 1 1 1 1 1 
1 1 1 1 1 1 1 1 1 
1 1 1 1 1 
i 3 1355 int
0 0 0 0 0 0 0 0 0 
0 0 0 0 0 0 0 0 0 
0 0 0 0 0 0 0 0 0 
0 0 0 0 0 0 0 0 0 
0 0 0 0 0 0 0 0 0 
0 0 0 0 0 0 0 0 0 
0 0 0 0 0 0 0 0 0 
0 0 0 0 0 0 0 0 0 
0 0 0 0 0 0 0 0 0 
0 0 0 0 0 0 0 0 0 
0 0 0 0 0 0 0 0 0 
0 0 0 0 0 0 0 0 0 
0 0 0 0 0 0 0 0 0 
0 0 0 0 0 0 0 0 0 
0 0 0 0 0 0 0 0 0 
0 0 0 0 0 0 0 0 0 
0 0 0 0 0 0 0 0 0 
0 0 0 0 0 0 0 0 0 
0 0 0 0 0 0 0 0 0 
0 0 0 0 0 0 0 0 0 
0 0 0 0 0 0 0 0 0 
0 0 0 0 0 0 0 0 0 
0 0 0 0 0 0 0 0 0 
0 0 0 0 0 0 0 0 0 
0 0 0 0 0 0 0 0 0 
0 0 0 0 0 0 0 0 0 
0 0 0 0 0 0 0 0 0 
0 0 0 0 0 0 0 0 0 
0 0 0 0 0 0 0 0 0 
0 0 0 0 0 0 0 0 0 
0 0 0 0 0 0 0 0 0 
0 0 0 0 0 0 0 0 0 
0 0 0 0 0 0 0 0 0 
0 0 0 0 0 0 0 0 0 
0 0 0 0 0 0 0 0 0 
0 0 0 0 0 0 0 0 0 
0 0 0 0 0 0 0 0 0 
0 0 0 0 0 0 0 0 0 
0 0 0 0 0 0 0 0 0 
0 0 0 0 0 0 0 0 0 
0 0 0 0 0 0 0 0 0 
0 0 0 0 0 0 0 0 0 
0 0 0 0 0 0 0 0 0 
0 0 0 0 0 0 0 0 0 
0 0 0 0 0 0 0 0 0 
0 0 0 0 0 0 0 0 0 
0 0 0 0 0 0 0 0 0 
0 0 0 0 0 0 0 0 0 
0 0 0 0 0 0 0 0 0 
0 0 0 0 0 0 0 0 0 
0 0 0 0 0 0 0 0 0 
0 0 0 0 0 0 0 0 0 
0 0 0 0 0 0 0 0 0 
0 0 0 0 0 0 0 0 0 
0 0 0 0 0 0 0 0 0 
0 0 0 0 0 0 0 0 0 
0 0 0 0 0 0 0 0 0 
0 0 0 0 0 0 0 0 0 
0 0 0 0 0 0 0 0 0 
0 0 0 0 0 0 0 0 0 
0 0 0 0 0 0 0 0 0 
0 0 0 0 0 0 0 0 0 
0 0 0 0 0 0 0 0 0 
0 0 0 0 0 0 0 0 0 
0 0 0 0 0 0 0 0 0 
0 0 0 0 0 0 0 0 0 
0 0 0 0 0 0 0 0 0 
0 0 0 0 0 0 0 0 0 
0 0 0 0 0 0 0 0 0 
0 0 0 0 0 0 0 0 0 
0 0 0 0 0 0 0 0 0 
0 0 0 0 0 0 0 0 0 
0 0 0 0 0 0 0 0 0 
0 0 0 0 0 0 0 0 0 
0 0 0 0 0 0 0 0 0 
0 0 0 0 0 0 0 0 0 
0 0 0 0 0 0 0 0 0 
0 0 0 0 0 0 0 0 0 
0 0 0 0 0 0 0 0 0 
0 0 0 0 0 0 0 0 0 
0 0 0 0 0 0 0 0 0 
0 0 0 0 0 0 0 0 0 
0 0 0 0 0 0 0 0 0 
0 0 0 0 0 0 0 0 0 
0 0 0 0 0 0 0 0 0 
0 0 0 0 0 0 0 0 0 
0 0 0 0 0 0 0 0 0 
0 0 0 0 0 0 0 0 0 
0 0 0 0 0 0 0 0 0 
0 0 0 0 0 0 0 0 0 
0 0 0 0 0 0 0 0 0 
0 0 0 0 0 0 0 0 0 
0 0 0 0 0 0 0 0 0 
0 0 0 0 0 0 0 0 0 
0 0 0 0 0 0 0 0 0 
0 0 0 0 0 0 0 0 0 
0 0 0 0 0 0 0 0 0 
0 0 0 0 0 0 0 0 0 
0 0 0 0 0 0 0 0 0 
0 0 0 0 0 0 0 0 0 
0 0 0 0 0 0 0 0 0 
0 0 0 0 0 0 0 0 0 
0 0 0 0 0 0 0 0 0 
0 0 0 0 0 0 0 0 0 
0 0 0 0 0 0 0 0 0 
0 0 0 0 0 0 0 0 0 
0 0 0 0 0 0 0 0 0 
0 0 0 0 0 0 0 0 0 
0 0 0 0 0 0 0 0 0 
0 0 0 0 0 0 0 0 0 
0 0 0 0 0 0 0 0 0 
0 0 0 0 0 0 0 0 0 
0 0 0 0 0 0 0 0 0 
0 0 0 0 0 0 0 0 0 
0 0 0 0 0 0 0 0 0 
0 0 0 0 0 0 0 0 0 
0 0 0 0 0 0 0 0 0 
0 0 0 0 0 0 0 0 0 
0 0 0 0 0 0 0 0 0 
0 0 0 0 0 0 0 0 0 
0 0 0 0 0 0 0 0 0 
0 0 0 0 0 0 0 0 0 
0 0 0 0 0 0 0 0 0 
0 0 0 0 0 0 0 0 0 
0 0 0 0 0 0 0 0 0 
0 0 0 0 0 0 0 0 0 
0 0 0 0 0 0 0 0 0 
0 0 0 0 0 0 0 0 0 
0 0 0 0 0 0 0 0 0 
0 0 0 0 0 0 0 0 0 
0 0 0 0 0 0 0 0 0 
0 0 0 0 0 0 0 0 0 
0 0 0 0 0 0 0 0 0 
0 0 0 0 0 0 0 0 0 
0 0 0 0 0 0 0 0 0 
0 0 0 0 0 0 0 0 0 
0 0 0 0 0 0 0 0 0 
0 0 0 0 0 0 0 0 0 
0 0 0 0 0 0 0 0 0 
0 0 0 0 0 0 0 0 0 
0 0 0 0 0 0 0 0 0 
0 0 0 0 0 0 0 0 0 
0 0 0 0 0 0 0 0 0 
0 0 0 0 0 0 0 0 0 
0 0 0 0 0 0 0 0 0 
0 0 0 0 0 0 0 0 0 
0 0 0 0 0 0 0 0 0 
0 0 0 0 0 0 0 0 0 
0 0 0 0 0 0 0 0 0 
0 0 0 0 0 0 0 0 0 
0 0 0 0 0 0 0 0 0 
0 0 0 0 0 0 0 0 0 
0 0 0 0 0 0 0 0 0 
0 0 0 0 0 0 0 0 0 
0 0 0 0 0 0 0 0 0 
0 0 0 0 0 0 0 0 0 
0 0 0 0 0 0 0 0 0 
0 0 0 0 0 0 0 0 0 
0 0 0 0 0 0 0 0 0 
0 0 0 0 0 0 0 0 0 
0 0 0 0 0 0 0 0 0 
0 0 0 0 0 0 0 0 0 
0 0 0 0 0 0 0 0 0 
0 0 0 0 0 0 0 0 0 
0 0 0 0 0 0 0 0 0 
0 0 0 0 0 0 0 0 0 
0 0 0 0 0 0 0 0 0 
0 0 0 0 0 0 0 0 0 
0 0 0 0 0 0 0 0 0 
0 0 0 0 0 0 0 0 0 
0 0 0 0 0 0 0 0 0 
0 0 0 0 0 0 0 0 0 
0 0 0 0 0 0 0 0 0 
0 0 0 0 0 0 0 0 0 
0 0 0 0 0 0 0 0 0 
0 0 0 0 0 0 0 0 0 
0 0 0 0 0 0 0 0 0 
0 0 0 0 0 0 0 0 0 
0 0 0 0 0 0 0 0 0 
0 0 0 0 0 0 0 0 0 
0 0 0 0 0 0 0 0 0 
0 0 0 0 0 0 0 0 0 
0 0 0 0 0 0 0 0 0 
0 0 0 0 0 0 0 0 0 
0 0 0 0 0 0 0 0 0 
0 0 0 0 0 0 0 0 0 
0 0 0 0 0 0 0 0 0 
0 0 0 0 0 0 0 0 0 
0 0 0 0 0 0 0 0 0 
0 0 0 0 0 0 0 0 0 
0 0 0 0 0 0 0 0 0 
0 0 0 0 0 0 0 0 0 
0 0 0 0 0 0 0 0 0 
0 0 0 0 0 0 0 0 0 
0 0 0 0 0 0 0 0 0 
0 0 0 0 0 0 0 0 0 
0 0 0 0 0 0 0 0 0 
0 0 0 0 0 0 0 0 0 
0 0 0 0 0 0 0 0 0 
0 0 0 0 0 0 0 0 0 
0 0 0 0 0 0 0 0 0 
0 0 0 0 0 0 0 0 0 
0 0 0 0 0 0 0 0 0 
0 0 0 0 0 0 0 0 0 
0 0 0 0 0 0 0 0 0 
0 0 0 0 0 0 0 0 0 
0 0 0 0 0 0 0 0 0 
0 0 0 0 0 0 0 0 0 
0 0 0 0 0 0 0 0 0 
0 0 0 0 0 0 0 0 0 
0 0 0 0 0 0 0 0 0 
0 0 0 0 0 0 0 0 0 
0 0 0 0 0 0 0 0 0 
0 0 0 0 0 0 0 0 0 
0 0 0 0 0 0 0 0 0 
0 0 0 0 0 0 0 0 0 
0 0 0 0 0 0 0 0 0 
0 0 0 0 0 0 0 0 0 
0 0 0 0 0 0 0 0 0 
0 0 0 0 0 0 0 0 0 
0 0 0 0 0 0 0 0 0 
0 0 0 0 0 0 0 0 0 
0 0 0 0 0 0 0 0 0 
0 0 0 0 0 0 0 0 0 
0 0 0 0 0 0 0 0 0 
0 0 0 0 0 0 0 0 0 
0 0 0 0 0 0 0 0 0 
0 0 0 0 0 0 0 0 0 
0 0 0 0 0 0 0 0 0 
0 0 0 0 0 0 0 0 0 
0 0 0 0 0 0 0 0 0 
0 0 0 0 0 0 0 0 0 
0 0 0 0 0 0 0 0 0 
0 0 0 0 0 0 0 0 0 
0 0 0 0 0 0 0 0 0 
0 0 0 0 0 0 0 0 0 
0 0 0 0 0 0 0 0 0 
0 0 0 0 0 0 0 0 0 
0 0 0 0 0 0 0 0 0 
0 0 0 0 0 0 0 0 0 
0 0 0 0 0 0 0 0 0 
0 0 0 0 0 0 0 0 0 
0 0 0 0 0 0 0 0 0 
0 0 0 0 0 0 0 0 0 
0 0 0 0 0 0 0 0 0 
0 0 0 0 0 0 0 0 0 
0 0 0 0 0 0 0 0 0 
0 0 0 0 0 0 0 0 0 
0 0 0 0 0 0 0 0 0 
0 0 0 0 0 0 0 0 0 
0 0 0 0 0 0 0 0 0 
0 0 0 0 0 0 0 0 0 
0 0 0 0 0 0 0 0 0 
0 0 0 0 0 0 0 0 0 
0 0 0 0 0 0 0 0 0 
0 0 0 0 0 0 0 0 0 
0 0 0 0 0 0 0 0 0 
0 0 0 0 0 0 0 0 0 
0 0 0 0 0 0 0 0 0 
0 0 0 0 0 0 0 0 0 
0 0 0 0 0 0 0 0 0 
0 0 0 0 0 0 0 0 0 
0 0 0 0 0 0 0 0 0 
0 0 0 0 0 0 0 0 0 
0 0 0 0 0 0 0 0 0 
0 0 0 0 0 0 0 0 0 
0 0 0 0 0 0 0 0 0 
0 0 0 0 0 0 0 0 0 
0 0 0 0 0 0 0 0 0 
0 0 0 0 0 0 0 0 0 
0 0 0 0 0 0 0 0 0 
0 0 0 0 0 0 0 0 0 
0 0 0 0 0 0 0 0 0 
0 0 0 0 0 0 0 0 0 
0 0 0 0 0 0 0 0 0 
0 0 0 0 0 0 0 0 0 
0 0 0 0 0 0 0 0 0 
0 0 0 0 0 0 0 0 0 
0 0 0 0 0 0 0 0 0 
0 0 0 0 0 0 0 0 0 
0 0 0 0 0 0 0 0 0 
0 0 0 0 0 0 0 0 0 
0 0 0 0 0 0 0 0 0 
0 0 0 0 0 0 0 0 0 
0 0 0 0 0 0 0 0 0 
0 0 0 0 0 0 0 0 0 
0 0 0 0 0 0 0 0 0 
0 0 0 0 0 0 0 0 0 
0 0 0 0 0 0 0 0 0 
0 0 0 0 0 0 0 0 0 
0 0 0 0 0 0 0 0 0 
0 0 0 0 0 0 0 0 0 
0 0 0 0 0 0 0 0 0 
0 0 0 0 0 0 0 0 0 
0 0 0 0 0 0 0 0 0 
0 0 0 0 0 0 0 0 0 
0 0 0 0 0 0 0 0 0 
0 0 0 0 0 0 0 0 0 
0 0 0 0 0 0 0 0 0 
0 0 0 0 0 0 0 0 0 
0 0 0 0 0 0 0 0 0 
0 0 0 0 0 0 0 0 0 
0 0 0 0 0 0 0 0 0 
0 0 0 0 0 0 0 0 0 
0 0 0 0 0 0 0 0 0 
0 0 0 0 0 0 0 0 0 
0 0 0 0 0 0 0 0 0 
0 0 0 0 0 0 0 0 0 
0 0 0 0 0 0 0 0 0 
0 0 0 0 0 0 0 0 0 
0 0 0 0 0 0 0 0 0 
0 0 0 0 0 0 0 0 0 
0 0 0 0 0 0 0 0 0 
0 0 0 0 0 0 0 0 0 
0 0 0 0 0 0 0 0 0 
0 0 0 0 0 0 0 0 0 
0 0 0 0 0 0 0 0 0 
0 0 0 0 0 0 0 0 0 
0 0 0 0 0 0 0 0 0 
0 0 0 0 0 0 0 0 0 
0 0 0 0 0 0 0 0 0 
0 0 0 0 0 0 0 0 0 
0 0 0 0 0 0 0 0 0 
0 0 0 0 0 0 0 0 0 
0 0 0 0 0 0 0 0 0 
0 0 0 0 0 0 0 0 0 
0 0 0 0 0 0 0 0 0 
0 0 0 0 0 0 0 0 0 
0 0 0 0 0 0 0 0 0 
0 0 0 0 0 0 0 0 0 
0 0 0 0 0 0 0 0 0 
0 0 0 0 0 0 0 0 0 
0 0 0 0 0 0 0 0 0 
0 0 0 0 0 0 0 0 0 
0 0 0 0 0 0 0 0 0 
0 0 0 0 0 0 0 0 0 
0 0 0 0 0 0 0 0 0 
0 0 0 0 0 0 0 0 0 
0 0 0 0 0 0 0 0 0 
0 0 0 0 0 0 0 0 0 
0 0 0 0 0 0 0 0 0 
0 0 0 0 0 0 0 0 0 
0 0 0 0 0 0 0 0 0 
0 0 0 0 0 0 0 0 0 
0 0 0 0 0 0 0 0 0 
0 0 0 0 0 0 0 0 0 
0 0 0 0 0 0 0 0 0 
0 0 0 0 0 0 0 0 0 
0 0 0 0 0 0 0 0 0 
0 0 0 0 0 0 0 0 0 
0 0 0 0 0 0 0 0 0 
0 0 0 0 0 0 0 0 0 
0 0 0 0 0 0 0 0 0 
0 0 0 0 0 0 0 0 0 
0 0 0 0 0 0 0 0 0 
0 0 0 0 0 0 0 0 0 
0 0 0 0 0 0 0 0 0 
0 0 0 0 0 0 0 0 0 
0 0 0 0 0 0 0 0 0 
0 0 0 0 0 0 0 0 0 
0 0 0 0 0 0 0 0 0 
0 0 0 0 0 0 0 0 0 
0 0 0 0 0 0 0 0 0 
0 0 0 0 0 0 0 0 0 
0 0 0 0 0 0 0 0 0 
0 0 0 0 0 0 0 0 0 
0 0 0 0 0 0 0 0 0 
0 0 0 0 0 0 0 0 0 
0 0 0 0 0 0 0 0 0 
0 0 0 0 0 0 0 0 0 
0 0 0 0 0 0 0 0 0 
0 0 0 0 0 0 0 0 0 
0 0 0 0 0 0 0 0 0 
0 0 0 0 0 0 0 0 0 
0 0 0 0 0 0 0 0 0 
0 0 0 0 0 0 0 0 0 
0 0 0 0 0 0 0 0 0 
0 0 0 0 0 0 0 0 0 
0 0 0 0 0 0 0 0 0 
0 0 0 0 0 0 0 0 0 
0 0 0 0 0 0 0 0 0 
0 0 0 0 0 0 0 0 0 
0 0 0 0 0 0 0 0 0 
0 0 0 0 0 0 0 0 0 
0 0 0 0 0 0 0 0 0 
0 0 0 0 0 0 0 0 0 
0 0 0 0 0 0 0 0 0 
0 0 0 0 0 0 0 0 0 
0 0 0 0 0 0 0 0 0 
0 0 0 0 0 0 0 0 0 
0 0 0 0 0 0 0 0 0 
0 0 0 0 0 0 0 0 0 
0 0 0 0 0 0 0 0 0 
0 0 0 0 0 0 0 0 0 
0 0 0 0 0 0 0 0 0 
0 0 0 0 0 0 0 0 0 
0 0 0 0 0 0 0 0 0 
0 0 0 0 0 0 0 0 0 
0 0 0 0 0 0 0 0 0 
0 0 0 0 0 0 0 0 0 
0 0 0 0 0 0 0 0 0 
0 0 0 0 0 0 0 0 0 
0 0 0 0 0 0 0 0 0 
0 0 0 0 0 0 0 0 0 
0 0 0 0 0 0 0 0 0 
0 0 0 0 0 0 0 0 0 
0 0 0 0 0 0 0 0 0 
0 0 0 0 0 0 0 0 0 
0 0 0 0 0 0 0 0 0 
0 0 0 0 0 0 0 0 0 
0 0 0 0 0 0 0 0 0 
0 0 0 0 0 0 0 0 0 
0 0 0 0 0 0 0 0 0 
0 0 0 0 0 0 0 0 0 
0 0 0 0 0 0 0 0 0 
0 0 0 0 0 0 0 0 0 
0 0 0 0 0 0 0 0 0 
0 0 0 0 0 0 0 0 0 
0 0 0 0 0 0 0 0 0 
0 0 0 0 0 0 0 0 0 
0 0 0 0 0 0 0 0 0 
0 0 0 0 0 0 0 0 0 
0 0 0 0 0 0 0 0 0 
0 0 0 0 0 0 0 0 0 
0 0 0 0 0 0 0 0 0 
0 0 0 0 0 0 0 0 0 
0 0 0 0 0 0 0 0 0 
0 0 0 0 0 0 0 0 0 
0 0 0 0 0 0 0 0 0 
0 0 0 0 0 0 0 0 0 
0 0 0 0 0 0 0 0 0 
0 0 0 0 0 0 0 0 0 
0 0 0 0 0 0 0 0 0 
0 0 0 0 0 0 0 0 0 
0 0 0 0 0 0 0 0 0 
0 0 0 0 0 0 0 0 0 
0 0 0 0 0 0 0 0 0 
0 0 0 0 0 0 0 0 0 
0 0 0 0 0 0 0 0 0 
0 0 0 0 0 0 0 0 0 
0 0 0 0 0 0 0 0 0 
0 0 0 0 0 0 0 0 0 
0 0 0 0 0 0 0 0 0 
0 0 0 0 0 0 0 0 0 
0 0 0 0 0 0 0 0 0 
0 0 0 0 0 0 0 0 0 
0 0 0 0 0 0 0 0 0 
0 0 0 0 0 0 0 0 0 
0 0 0 0 0 0 0 0 0 
0 0 0 0 0 0 0 0 0 
0 0 0 0 0 0 0 0 0 
0 0 0 0 0 0 
v 3 1355 double
0.00551437 0.0119631 0.0115216 0.0210525 -0.0215774 0.0207523 -0.0137121 -0.00733196 0.00707393 
-0.00176012 0.00714764 0.0163521 0.0185716 -0.0308705 -0.00094214 0.0248233 -0.0163662 -0.0113216 
0.0499471 0.00698318 -0.000313672 0.0260581 0.00833836 -0.0245586 -0.106278 -0.00218735 -0.0310951 
-0.188076 0.0531931 -0.00466315 0.145905 0.00560446 0.0425907 0.109868 -0.104591 0.0475026 
0.0589231 -0.00761912 -0.0157256 0.0671954 -0.0310175 -0.0414254 0.0883464 -0.00553376 -0.00689128 
-0.036984 -0.0994359 -0.0200005 0.0158294 -0.00273017 0.031 0.0279488 -0.0270251 -0.0105051 
0.0223124 0.014642 0.0634704 -0.0910968 0.0294555 -0.0852525 -0.00949111 0.0234902 0.0787527 
-0.0202187 -0.00411504 0.0137258 -0.0553378 0.0312427 0.0577016 -0.0198167 0.0156735 0.0520813 
-0.0139387 -0.180271 0.0698972 0.0253769 -0.00610611 -0.210005 0.000566932 -0.0312021 -0.0419668 
0.0505474 0.0100798 -0.0447811 -0.031772 -0.13734 0.027131 -0.0901388 -0.00947656 -0.0543002 
-0.122495 0.0205154 0.0287362 -0.0798629 -0.0101789 -0.280376 0.0754069 -0.0885417 0.155714 
-0.0532788 -0.0543515 -0.0379668 -0.00112648 -0.048425 0.00358479 0.036076 -0.0136073 -0.011684 
0.132123 0.00340312 0.0161033 0.0313695 -0.109647 -0.00362067 0.0188339 -0.0197847 -0.0149001 
-0.0104867 0.00527393 -0.0032732 0.0313521 0.0751005 0.0262133 -0.0564018 0.0264001 0.0330011 
0.0295884 -0.00431899 -0.0756466 0.0813866 0.030361 0.00987636 0.0589077 0.037163 0.027102 
-0.0267161 0.0158718 -0.0429233 -0.0812252 -0.122468 -0.0775844 -0.0745033 0.0502027 0.0349768 
-0.0361449 0.0300886 -0.0466523 -0.0234304 0.00653831 0.0538785 -0.0192787 0.0461772 -0.0317183 
0.00974066 -0.0129548 -0.063599 0.0493357 -0.0122967 -0.0251919 0.014422 0.0525499 -0.0329445 
-0.0861226 0.139053 -0.0100274 0.00226286 -0.0479247 -0.0135241 0.0317056 -0.0449571 -0.00290089 
0.0383902 -0.00845408 -0.0308459 0.091912 0.0298344 0.0296413 -0.0556569 -0.0882436 0.00800264 
-0.0163523 -0.0211944 -0.00917001 -0.0224715 -0.014656 0.00746047 -0.00833676 -0.0255749 0.00338414 
0.00421729 0.00633444 0.139942 0.0293649 0.00706324 0.0357142 0.0806709 0.0217578 0.0437931 
0.110728 -0.108862 0.0139277 -0.142874 -0.00493343 -0.211898 0.0231943 -0.0138238 -0.024319 
-0.0142726 -0.0131956 -0.0335794 -0.0122567 0.0681616 0.00796403 0.00682604 -0.0328272 0.0130452 
0.0097921 0.0879863 0.0230248 0.0342439 -0.0297475 -0.000962937 -0.025739 -0.05328 -0.0205365 
0.0104683 -0.019358 0.00269261 0.0221562 0.00525203 -0.00264718 0.00109939 -0.0647666 0.0544019 
0.00865154 -0.0115258 -0.0154073 0.00155756 -0.0336706 -0.0322088 0.0251333 -0.0474131 -0.025622 