# vtk DataFile Version 4.0
Generated by LIGGGHTS
ASCII
DATASET POLYDATA
POINTS 1355 float
-0.898988 -0.46121 -0.460352 -0.768445 -0.460321 -0.460248 -0.688718 -0.460136 -0.460345 
-0.608856 -0.460835 -0.460453 -0.52753 -0.460854 -0.460438 -0.447448 -0.460261 -0.460604 
-0.365177 -0.459584 -0.460761 -0.281238 -0.460219 -0.460574 -0.158919 -0.460338 -0.46039 
-0.0787923 -0.447965 -0.460246 0.000141408 -0.460201 -0.460549 0.0798543 -0.460337 -0.460465 
0.159701 -0.460251 -0.460417 0.239505 -0.460053 -0.460472 0.319297 -0.4597 -0.460512 
0.399091 -0.460015 -0.460467 0.478917 -0.460246 -0.460235 0.581429 -0.460384 -0.460782 
0.661165 -0.460439 -0.46048 0.740962 -0.460307 -0.460537 0.820546 -0.460429 -0.460694 
0.901503 -0.460349 -0.460316 -0.960873 -0.412412 -0.461014 -0.886888 -0.382891 -0.46064 
-0.733293 -0.388845 -0.460726 -0.647908 -0.391555 -0.460538 -0.568225 -0.393013 -0.460317 
-0.48852 -0.391676 -0.460441 -0.408932 -0.390569 -0.460707 -0.330091 -0.381229 -0.460295 
-0.211407 -0.400658 -0.460598 -0.133228 -0.384714 -0.460691 0.0384527 -0.390327 -0.460512 
0.119482 -0.391453 -0.460673 0.199429 -0.390926 -0.46048 0.279297 -0.387649 -0.460512 
0.359208 -0.390396 -0.460698 0.440551 -0.384763 -0.460199 0.529934 -0.399257 -0.460494 
0.620687 -0.391398 -0.460771 0.700521 -0.391635 -0.460436 0.780813 -0.391095 -0.460156 
0.860644 -0.391838 -0.460576 0.960331 -0.406855 -0.460452 -0.96023 -0.333878 -0.460089 
-0.886819 -0.303373 -0.460683 -0.809381 -0.364594 -0.460437 -0.687742 -0.322701 -0.461334 
-0.56839 -0.314534 -0.460857 -0.488793 -0.312114 -0.460364 -0.408235 -0.310702 -0.460311 
-0.262149 -0.339796 -0.460703 -0.184149 -0.323231 -0.460479 -0.105546 -0.309951 -0.46111 
-0.0346226 -0.357587 -0.460153 0.0328064 -0.310822 -0.460487 0.15836 -0.322478 -0.460427 
0.237026 -0.308713 -0.460656 0.321883 -0.319681 -0.46055 0.401515 -0.31494 -0.460446 
0.490682 -0.312449 -0.460591 0.56895 -0.329914 -0.460632 0.659782 -0.322307 -0.460223 
0.739342 -0.322915 -0.460925 0.88214 -0.315486 -0.460925 0.960493 -0.327547 -0.460395 
-0.96058 -0.255131 -0.460363 -0.809858 -0.284716 -0.460544 -0.734569 -0.257798 -0.460357 
-0.631361 -0.266408 -0.460127 -0.535662 -0.242896 -0.460981 -0.456526 -0.239223 -0.460566 
-0.377332 -0.234074 -0.460635 -0.329468 -0.297844 -0.460798 -0.0379987 -0.268243 -0.460619 
0.100272 -0.267743 -0.460418 0.181994 -0.246759 -0.460347 0.313699 -0.240088 -0.460106 
0.54474 -0.253957 -0.460544 0.6217 -0.255545 -0.439682 0.7 -0.253336 -0.460401 
0.77982 -0.254704 -0.46017 0.881893 -0.235909 -0.460299 0.960363 -0.248229 -0.460567 
-0.961454 -0.176073 -0.460492 -0.89199 -0.215217 -0.460119 -0.813396 -0.205494 -0.460697 
-0.677649 -0.202016 -0.460397 -0.598156 -0.193836 -0.460209 -0.502844 -0.170369 -0.460249 
-0.423603 -0.166655 -0.460638 -0.29794 -0.224617 -0.460653 -0.212614 -0.211943 -0.460281 
-0.115868 -0.228475 -0.460465 -0.0488416 -0.185165 -0.460648 0.0296834 -0.226084 -0.460178 
0.0930267 -0.177466 -0.460653 0.172015 -0.166649 -0.460319 0.245059 -0.19869 -0.460199 
0.389341 -0.201813 -0.460672 0.468464 -0.23088 -0.46049 0.573446 -0.179703 -0.460903 
0.652821 -0.185377 -0.460593 0.73226 -0.179011 -0.460629 0.819806 -0.186382 -0.460264 
0.960461 -0.168901 -0.460386 -0.895194 -0.135319 -0.460655 -0.816904 -0.126046 -0.460174 
-0.746722 -0.163073 -0.460676 -0.644735 -0.129629 -0.460876 -0.56538 -0.121075 -0.460447 
-0.344433 -0.160506 -0.460307 -0.265114 -0.151637 -0.460166 -0.158743 -0.151043 -0.460913 
-0.0876792 -0.115015 -0.460455 0.0204551 -0.145715 -0.461022 0.123184 -0.103574 -0.460716 
0.311494 -0.155801 -0.460624 0.428259 -0.112026 -0.461043 0.501155 -0.144275 -0.460493 
0.61729 -0.113586 -0.460584 0.81335 -0.107532 -0.460567 0.88605 -0.140813 -0.460615 
-0.960099 -0.0780774 -0.460446 -0.865641 -0.0625751 -0.460994 -0.78474 -0.0539234 -0.460536 
-0.713853 -0.0905509 -0.460453 -0.596114 -0.0478064 -0.460407 -0.513911 -0.0600177 -0.460575 
-0.438317 -0.0866147 -0.46141 -0.359606 -0.0824715 -0.460883 -0.212439 -0.0918076 -0.460383 
-0.146059 -0.0481663 -0.460412 -0.0175995 -0.0753847 -0.460429 0.0596802 -0.0554583 -0.46011 
0.212239 -0.0724397 -0.460426 0.291802 -0.0784699 -0.460664 0.368721 -0.0590745 -0.460122 
0.444152 -0.0336915 -0.460701 0.545763 -0.0785005 -0.460474 0.660038 -0.0462373 -0.460524 
0.738255 -0.0809447 -0.460833 0.960296 -0.0893696 -0.460714 -0.923525 -0.00743617 -0.460977 
-0.833384 0.00905233 -0.460175 -0.754791 0.0195673 -0.460348 -0.684457 -0.016889 -0.461138 
-0.570443 0.0278276 -0.460462 -0.491405 0.0178136 -0.46014 -0.414091 -0.00347445 -0.460153 
-0.331703 -0.00832553 -0.459699 -0.252055 -0.0127843 -0.4606 -0.182752 0.0246992 -0.460314 
-0.0726328 -0.0175827 -0.460379 0.00404332 0.00271801 -0.46039 0.0815089 0.0206913 -0.460701 
0.145405 -0.0273296 -0.461082 0.223532 0.00658891 -0.460438 0.306652 7.26444e-05 -0.460626 
0.384231 0.0191255 -0.460588 0.58809 -0.0111878 -0.46068 0.69008 0.0277989 -0.460203 
0.76283 -0.00516509 -0.460142 0.838148 -0.0322108 -0.460454 0.916809 -0.0231561 -0.460926 
-0.960876 0.0629484 -0.460399 -0.88239 0.0707614 -0.460277 -0.803425 0.0823732 -0.460804 
-0.724083 0.0925413 -0.460921 -0.646438 0.0659994 -0.460198 -0.499519 0.0972303 -0.460484 
-0.366144 0.0631768 -0.460463 -0.287577 0.0581239 -0.459958 -0.109224 0.0533421 -0.460251 
-0.0348643 0.0792642 -0.460811 0.0908135 0.100712 -0.460362 0.154359 0.0519085 -0.460263 
0.270129 0.0709681 -0.46091 0.398861 0.097147 -0.460506 0.459549 0.045219 -0.460214 
0.538108 0.0577137 -0.460507 0.61792 0.0623037 -0.460305 0.752784 0.0821335 -0.460508 
0.824015 0.0457593 -0.460349 0.893249 0.0856175 -0.46065 0.960517 0.0431772 -0.460294 
-0.960627 0.142563 -0.461076 -0.86352 0.147355 -0.460478 -0.640576 0.155238 -0.460178 
-0.578043 0.107035 -0.460336 -0.405346 0.131957 -0.460303 -0.322928 0.13036 -0.460177 
-0.226671 0.108461 -0.459674 -0.14834 0.122484 -0.460324 -0.0729208 0.149031 -0.460194 
0.0176499 0.139011 -0.459529 0.203151 0.114586 -0.460326 0.31203 0.13889 -0.460767 
0.489208 0.125485 -0.460908 0.570536 0.130238 -0.460655 0.650486 0.134514 -0.460365 
0.753586 0.161777 -0.460832 0.823764 0.124844 -0.460526 0.891403 0.166048 -0.460501 
0.960731 0.127672 -0.460421 -0.960223 0.221742 -0.460657 -0.826613 0.217666 -0.460764 
-0.717649 0.172004 -0.460549 -0.528724 0.170701 -0.461754 -0.450491 0.197447 -0.460669 
-0.364167 0.200031 -0.461055 -0.278279 0.196224 -0.460515 -0.199594 0.183446 -0.45971 
-0.0647457 0.228496 -0.460185 0.019808 0.225707 -0.460333 0.0855931 0.180481 -0.459721 
0.164923 0.184452 -0.460199 0.245054 0.182305 -0.460428 0.352375 0.207945 -0.460112 
0.424277 0.172244 -0.460503 0.525833 0.196503 -0.460489 0.606515 0.201094 -0.46072 
0.686972 0.205149 -0.460149 0.821183 0.204402 -0.460676 0.96019 0.207494 -0.460318 
-0.891742 0.262318 -0.460292 -0.751686 0.243236 -0.460633 -0.644969 0.234798 -0.460988 
-0.565757 0.241339 -0.460662 -0.490162 0.266363 -0.458219 -0.40917 0.265073 -0.459218 
-0.317141 0.265103 -0.459934 -0.228434 0.257837 -0.460345 -0.143888 0.240014 -0.460106 
-0.0161365 0.296755 -0.4604 0.0917301 0.262681 -0.460524 0.200358 0.255529 -0.460703 
0.285003 0.251067 -0.459988 0.389554 0.279278 -0.460272 0.460598 0.242516 -0.460674 
0.57044 0.271682 -0.461053 0.655281 0.277863 -0.460891 0.754352 0.248149 -0.460122 
0.889887 0.24499 -0.460371 -0.960462 0.301642 -0.460098 -0.890881 0.341895 -0.460345 
-0.82202 0.301206 -0.46029 -0.74488 0.32229 -0.460543 -0.665842 0.311402 -0.460581 
-0.584939 0.318685 -0.460125 -0.47183 0.343663 -0.460562 -0.363369 0.329499 -0.460529 
-0.267469 0.327412 -0.460158 -0.172898 0.314314 -0.459664 -0.0947945 0.302324 -0.460498 
0.0547209 0.333396 -0.460126 0.157044 0.322487 -0.460583 0.240184 0.32416 -0.461014 
0.319967 0.32263 -0.460192 0.43115 0.350701 -0.460673 0.500605 0.311438 -0.4607 
0.610519 0.343503 -0.460393 0.722256 0.321319 -0.460689 0.802368 0.321403 -0.460431 
0.882213 0.323333 -0.46042 0.959643 0.302133 -0.460712 -0.960278 0.381125 -0.460413 
-0.891465 0.421672 -0.461132 -0.780733 0.392779 -0.460289 -0.700325 0.388505 -0.460541 
-0.618582 0.391028 -0.460297 -0.538525 0.387618 -0.460516 -0.409571 0.394675 -0.460445 
-0.314898 0.391692 -0.4603 -0.211038 0.383499 -0.460013 -0.130408 0.382011 -0.460184 
-0.0505823 0.36878 -0.460404 0.0204172 0.40515 -0.460344 0.116794 0.391434 -0.460638 
0.197277 0.391334 -0.460752 0.27995 0.392689 -0.460427 0.361382 0.39086 -0.460461 
0.47058 0.420209 -0.460385 0.540162 0.380844 -0.460389 0.678358 0.388196 -0.460402 
0.758074 0.392695 -0.460564 0.840941 0.391354 -0.460372 0.921336 0.39195 -0.460707 
-0.960549 0.460573 -0.460315 -0.821879 0.460521 -0.460694 -0.737979 0.460105 -0.460488 
-0.658148 0.460305 -0.460113 -0.574566 0.459087 -0.460357 -0.493258 0.460003 -0.460596 
-0.3588 0.459809 -0.459976 -0.277448 0.460888 -0.460132 -0.196265 0.460858 -0.459874 
-0.11679 0.460504 -0.460828 -0.036963 0.460148 -0.459981 0.0771327 0.460627 -0.460628 
0.157247 0.460228 -0.460599 0.237503 0.460317 -0.460231 0.32163 0.460283 -0.4605 
0.401464 0.460087 -0.460099 0.539549 0.46039 -0.460619 0.627243 0.45912 -0.460378 
0.713877 0.459993 -0.460305 0.800757 0.460219 -0.460592 0.880765 0.460411 -0.46045 
0.960511 0.460587 -0.46029 -0.960152 -0.461071 -0.399244 -0.885289 -0.460084 -0.371699 
-0.728173 -0.460374 -0.390994 -0.648332 -0.460229 -0.391503 -0.568126 -0.46024 -0.391775 
-0.48725 -0.460198 -0.391776 -0.40589 -0.458763 -0.392634 -0.323569 -0.459914 -0.39307 
-0.220414 -0.46063 -0.408856 -0.118258 -0.46061 -0.392097 -0.0391967 -0.460135 -0.391598 
0.0401616 -0.460158 -0.391458 0.119656 -0.460274 -0.391326 0.199455 -0.460308 -0.391457 
0.279325 -0.460238 -0.391557 0.358984 -0.460252 -0.391497 0.43859 -0.460714 -0.391351 
0.531286 -0.460639 -0.399596 0.621253 -0.459898 -0.391743 0.701449 -0.459344 -0.39148 
0.780828 -0.44588 -0.393047 0.860285 -0.460118 -0.392168 0.960096 -0.460278 -0.40151 
-0.960475 -0.382785 -0.387028 -0.834199 -0.431842 -0.425909 -0.772887 -0.394737 -0.391691 
[...]
POINT_DATA 1355
FIELD FieldData 7
id 1 1355 int
366 408 584 322 662 206 563 371 419 
523 551 145 607 585 151 530 365 186 
620 156 70 664 692 632 759 714 370 
120 208 723 59 512 435 712 211 457 
20 256 338 470 195 678 320 643 534 
171 196 105 493 581 542 514 245 234 
347 708 214 280 305 529 396 291 444 
367 476 155 724 314 136 721 375 250 
62 442 498 54 200 431 623 593 109 
184 446 647 159 267 289 373 275 324 
96 533 376 95 589 76 722 239 543 
576 75 202 572 683 676 680 445 83 
641 185 331 99 458 575 40 57 88 
31 281 298 126 300 48 521 531 428 
254 592 758 361 412 14 689 312 252 
153 397 483 170 704 321 140 726 143 
142 351 651 6 528 433 92 690 382 
437 359 154 569 304 439 339 639 461 
177 700 378 459 310 258 51 182 549 
323 121 507 423 742 495 224 612 720 
590 539 166 460 97 240 537 127 85 
544 697 634 129 104 602 146 161 32 
384 25 671 74 278 675 383 71 266 
19 293 22 627 717 162 218 348 626 
247 167 125 191 199 294 586 640 441 
596 475 463 387 703 269 130 8 393 
748 420 613 663 16 578 402 682 421 
715 637 299 149 698 747 261 622 355 
571 411 42 416 227 391 527 557 346 
67 274 319 242 649 9 73 766 409 
535 89 4 260 318 650 259 388 311 
94 618 39 582 53 673 729 3 69 
496 363 201 188 599 670 228 519 667 
472 669 660 646 654 43 230 226 306 
427 316 614 764 329 545 179 389 12 
453 440 197 452 90 604 386 686 38 
587 285 725 743 181 518 225 761 513 
5 559 72 336 66 116 78 628 131 
679 959 103 273 1154 276 516 47 233 
325 108 223 666 157 455 205 175 287 
221 56 751 736 426 744 642 611 302 
413 473 741 684 118 653 18 770 15 
552 82 272 100 87 343 490 219 601 
290 465 110 438 372 767 631 255 879 
307 699 636 187 550 80 532 313 645 
279 509 556 511 114 757 144 81 668 
58 615 616 558 644 341 189 407 36 
462 597 357 394 565 554 29 334 282 
570 424 286 399 24 447 364 192 183 
478 86 566 492 501 718 169 886 248 
33 422 11 502 541 395 46 106 345 
711 137 60 236 44 524 112 497 429 
479 540 27 45 694 326 358 352 746 
21 629 522 369 271 710 2 111 737 
102 818 134 216 733 147 194 148 580 
172 101 775 443 415 28 738 243 474 
288 180 482 381 374 436 638 450 253 
425 93 91 215 505 403 520 277 591 
84 133 719 107 350 762 193 546 41 
970 333 231 330 928 574 308 328 232 
432 296 284 659 687 49 13 61 681 
400 648 190 128 392 610 135 209 760 
35 665 122 503 750 821 564 480 469 
508 26 113 608 123 222 709 340 456 
251 417 17 292 138 430 246 98 448 
283 404 178 244 132 63 583 464 891 
600 1165 418 547 763 499 229 494 385 
617 672 467 119 755 481 727 526 390 
210 728 249 217 871 769 354 158 510 
7 739 466 793 890 500 658 337 986 
1166 846 173 567 1184 573 468 781 927 
735 809 1066 1173 1152 925 685 933 814 
921 414 784 265 749 943 504 787 268 
935 831 910 362 619 903 832 688 652 
867 1167 410 768 973 951 1062 963 754 
1061 1170 360 828 235 696 779 1115 875 
1147 207 932 241 865 702 1091 907 454 
812 603 1255 974 1162 848 914 829 379 
295 707 937 176 982 838 870 124 691 
792 919 335 317 406 944 985 972 732 
165 489 577 952 491 765 204 349 904 
894 901 655 79 851 471 734 786 981 
882 356 939 605 855 141 30 969 677 
674 536 1077 486 621 918 861 824 895 
487 1284 795 731 800 309 50 568 908 
1075 434 892 52 801 905 947 1078 301 
776 962 805 990 332 164 1182 975 815 
401 327 893 198 926 977 657 794 954 
835 656 888 633 730 911 160 752 484 
150 783 342 1127 837 695 477 538 220 
887 922 10 555 380 803 827 876 515 
791 840 65 841 864 344 804 23 811 
965 203 872 929 994 873 598 822 713 
488 1 1038 139 1137 960 706 398 859 
896 869 716 55 1041 1156 971 856 115 
506 237 966 263 850 174 609 912 773 
917 37 606 297 830 368 625 353 257 
562 168 405 845 880 451 949 117 525 
1001 303 262 785 213 68 635 64 661 
553 756 152 753 817 701 594 984 923 
315 579 377 485 961 212 693 878 938 
1243 561 906 1178 1079 1149 1312 1004 866 
823 1334 1143 988 1076 956 825 1006 1330 
163 1123 1093 270 930 1290 1051 958 1197 
1305 1211 1193 1279 1110 1003 1185 849 1049 
1133 1058 1159 1288 1035 826 1231 844 1116 
1339 1125 1112 1160 1073 1113 847 1217 1097 
1316 1032 1267 1347 1000 1344 1145 868 999 
808 1266 1028 1221 1071 1086 1034 1186 993 
1354 1187 802 1139 1285 1099 1014 1022 936 
1036 1015 1103 995 1295 1054 1144 950 1056 
1322 1021 1189 1321 1129 857 1246 902 1174 
1346 1105 1283 964 1089 1188 806 780 789 
1023 1315 1013 1008 1172 1158 1020 1095 1050 
1111 1138 916 992 797 1026 820 782 1052 
630 953 1087 967 1227 1016 1130 1135 1012 
834 978 924 1183 1119 1082 1083 807 980 
836 1088 1273 839 1067 1258 1176 1179 1010 
1114 1048 931 1027 799 1009 1216 1333 1311 
1171 1033 1046 1265 987 1100 1253 1017 1203 
968 1109 790 34 1153 1282 1081 899 1080 
1269 852 915 948 1096 1069 1057 1180 860 
955 934 1007 1043 798 1085 1148 1055 1126 
1309 595 1280 1101 998 884 813 1177 777 
1053 796 1063 1011 1042 1229 1230 877 1256 
1131 853 1134 945 1281 940 1045 1181 1124 
1019 1232 778 1118 900 898 1161 881 854 
771 1287 1070 1136 885 1024 1117 1068 1254 
740 1059 1307 979 588 449 1313 1142 1336 
863 1064 1262 957 883 238 517 816 897 
788 624 1252 1250 1190 1121 1141 1233 1140 
941 1132 1299 1303 1151 1238 745 1327 1302 
1226 1247 1306 1275 1335 1276 1249 1251 1291 
1107 1106 1210 1215 1199 1031 1202 1224 1350 
1323 1047 1213 1297 1329 1341 1325 1005 1237 
1292 1065 1228 1348 1194 1209 1201 1223 1343 
1263 842 1319 1192 1044 833 1317 1270 1331 
1219 1342 1352 1304 1242 1235 1150 1018 810 
1205 1349 1236 1326 1296 1301 1220 548 1122 
843 1274 1084 1286 1234 1204 862 819 560 
1092 1324 1198 1278 1241 1259 946 1338 1293 
1268 983 1128 774 889 1155 1240 1072 1196 
1175 1261 1314 1094 1300 1248 1029 909 858 
77 1320 1328 1351 1298 991 1200 976 1195 
772 1074 1277 1244 1002 1332 1257 264 1353 
1146 1157 1102 913 1169 1225 1318 1239 1212 
1337 920 1098 1040 1120 1340 1214 1039 1294 
1308 1260 1345 1272 1191 997 1207 1355 1289 
1025 874 1271 1090 1222 1310 989 1264 1163 
942 705 1208 1030 1206 1108 1037 1104 1164 
1168 1218 1060 1245 996 
type 1 1355 int
1 1 1 1 1 1 1 1 1 
1 1 1 1 1 1 1 1 1 
1 1 1 1 1 1 1 1 1 
1 1 1 1 1 1 1 1 1 
1 1 1 1 1 1 1 1 1 
1 1 1 1 1 1 1 1 1 
1 1 1 1 1 1 1 1 1 
1 1 1 1 1 1 1 1 1 
1 1 1 1 1 1 1 1 1 
1 1 1 1 1 1 1 1 1 
1 1 1 1 1 1 1 1 1 
1 1 1 1 1 1 1 1 1 
1 1 1 1 1 1 1 1 1 
1 1 1 1 1 1 1 1 1 
1 1 1 1 1 1 1 1 1 
1 1 1 1 1 1 1 1 1 
1 1 1 1 1 1 1 1 1 
1 1 1 1 1 1 1 1 1 
1 1 1 1 1 1 1 1 1 
1 1 1 1 1 1 1 1 1 
1 1 1 1 1 1 1 1 1 
1 1 1 1 1 1 1 1 1 
1 1 1 1 1 1 1 1 1 
1 1 1 1 1 1 1 1 1 
1 1 1 1 1 1 1 1 1 
1 1 1 1 1 1 1 1 1 
1 1 1 1 1 1 1 1 1 
1 1 1 1 1 1 1 1 1 
1 1 1 1 1 1 1 1 1 
1 1 1 1 1 1 1 1 1 
1 1 1 1 1 1 1 1 1 
1 1 1 1 1 1 1 1 1 
1 1 1 1 1 1 1 1 1 
1 1 1 1 1 1 1 1 1 
1 1 1 1 1 1 1 1 1 
1 1 1 1 1 1 1 1 1 
1 1 1 1 1 1 1 1 1 
1 1 1 1 1 1 1 1 1 
1 1 1 1 1 1 1 1 1 
1 1 1 1 1 1 1 1 1 
1 1 1 1 1 1 1 1 1 
1 1 1 1 1 1 1 1 1 
1 1 1 1 1 1 1 1 1 
1 1 1 1 1 1 1 1 1 
1 1 1 1 1 1 1 1 1 
1 1 1 1 1 1 1 1 1 
1 1 1 1 1 1 1 1 1 
1 1 1 1 1 1 1 1 1 
1 1 1 1 1 1 1 1 1 
1 1 1 1 1 1 1 1 1 
1 1 1 1 1 1 1 1 1 
1 1 1 1 1 1 1 1 1 
1 1 1 1 1 1 1 1 1 
1 1 1 1 1 1 1 1 1 
1 1 1 1 1 1 1 1 1 
1 1 1 1 1 1 1 1 1 
1 1 1 1 1 1 1 1 1 
1 1 1 1 1 1 1 1 1 
1 1 1 1 1 1 1 1 1 
1 1 1 1 1 1 1 1 1 
1 1 1 1 1 1 1 1 1 
1 1 1 1 1 1 1 1 1 
1 1 1 1 1 1 1 1 1 
1 1 1 1 1 1 1 1 1 
1 1 1 1 1 1 1 1 1 
1 1 1 1 1 1 1 1 1 
1 1 1 1 1 1 1 1 1 
1 1 1 1 1 1 1 1 1 
1 1 1 1 1 1 1 1 1 
1 1 1 1 1 1 1 1 1 
1 1 1 1 1 1 1 1 1 
1 1 1 1 1 1 1 1 1 
1 1 1 1 1 1 1 1 1 
1 1 1 1 1 1 1 1 1 
1 1 1 1 1 1 1 1 1 
1 1 1 1 1 1 1 1 1 
1 1 1 1 1 1 1 1 1 
1 1 1 1 1 1 1 1 1 
1 1 1 1 1 1 1 1 1 
1 1 1 1 1 1 1 1 1 
1 1 1 1 1 1 1 1 1 
1 1 1 1 1 1 1 1 1 
1 1 1 1 1 1 1 1 1 
1 1 1 1 1 1 1 1 1 
1 1 1 1 1 1 1 1 1 
1 1 1 1 1 1 1 1 1 
1 1 1 1 1 1 1 1 1 
1 1 1 1 1 1 1 1 1 
1 1 1 1 1 1 1 1 1 
1 1 1 1 1 1 1 1 1 
1 1 1 1 1 1 1 1 1 
1 1 1 1 1 1 1 1 1 
1 1 1 1 1 1 1 1 1 
1 1 1 1 1 1 1 1 1 
1 1 1 1 1 1 1 1 1 
1 1 1 1 1 1 1 1 1 
1 1 1 1 1 1 1 1 1 
1 1 1 1 1 1 1 1 1 
1 1 1 1 1 1 1 1 1 
1 1 1 1 1 1 1 1 1 
1 1 1 1 1 1 1 1 1 
1 1 1 1 1 1 1 1 1 
1 1 1 1 1 1 1 1 1 
1 1 1 1 1 1 1 1 1 
1 1 1 1 1 1 1 1 1 
1 1 1 1 1 1 1 1 1 
1 1 1 1 1 1 1 1 1 
1 1 1 1 1 1 1 1 1 
1 1 1 1 1 1 1 1 1 
1 1 1 1 1 1 1 1 1 
1 1 1 1 1 1 1 1 1 
1 1 1 1 1 1 1 1 1 
1 1 1 1 1 1 1 1 1 
1 1 1 1 1 1 1 1 1 
1 1 1 1 1 1 1 1 1 
1 1 1 1 1 1 1 1 1 
1 1 1 1 1 1 1 1 1 
1 1 1 1 1 1 1 1 1 
1 1 1 1 1 1 1 1 1 
1 1 1 1 1 1 1 1 1 
1 1 1 1 1 1 1 1 1 
1 1 1 1 1 1 1 1 1 
1 1 1 1 1 1 1 1 1 
1 1 1 1 1 1 1 1 1 
1 1 1 1 1 1 1 1 1 
1 1 1 1 1 1 1 1 1 
1 1 1 1 1 1 1 1 1 
1 1 1 1 1 1 1 1 1 
1 1 1 1 1 1 1 1 1 
1 1 1 1 1 1 1 1 1 
1 1 1 1 1 1 1 1 1 
1 1 1 1 1 1 1 1 1 
1 1 1 1 1 1 1 1 1 
1 1 1 1 1 1 1 1 1 
1 1 1 1 1 1 1 1 1 
1 1 1 1 1 1 1 1 1 
1 1 1 1 1 1 1 1 1 
1 1 1 1 1 1 1 1 1 
1 1 1 1 1 1 1 1 1 
1 1 1 1 1 1 1 1 1 
1 1 1 1 1 1 1 1 1 
1 1 1 1 1 1 1 1 1 
1 1 1 1 1 1 1 1 1 
1 1 1 1 1 1 1 1 1 
1 1 1 1 1 1 1 1 1 
1 1 1 1 1 1 1 1 1 
1 1 1 1 1 1 1 1 1 
1 1 1 1 1 1 1 1 1 
1 1 1 1 1 1 1 1 1 
1 1 1 1 1 1 1 1 1 
1 1 1 1 1 
i 3 1355 int
0 0 0 0 0 0 0 0 0 
0 0 0 0 0 0 0 0 0 
0 0 0 0 0 0 0 0 0 
0 0 0 0 0 0 0 0 0 
0 0 0 0 0 0 0 0 0 
0 0 0 0 0 0 0 0 0 
0 0 0 0 0 0 0 0 0 
0 0 0 0 0 0 0 0 0 
0 0 0 0 0 0 0 0 0 
0 0 0 0 0 0 0 0 0 
0 0 0 0 0 0 0 0 0 
0 0 0 0 0 0 0 0 0 
0 0 0 0 0 0 0 0 0 
0 0 0 0 0 0 0 0 0 
0 0 0 0 0 0 0 0 0 
0 0 0 0 0 0 0 0 0 
0 0 0 0 0 0 0 0 0 
0 0 0 0 0 0 0 0 0 
0 0 0 0 0 0 0 0 0 
0 0 0 0 0 0 0 0 0 
0 0 0 0 0 0 0 0 0 
0 0 0 0 0 0 0 0 0 
0 0 0 0 0 0 0 0 0 
0 0 0 0 0 0 0 0 0 
0 0 0 0 0 0 0 0 0 
0 0 0 0 0 0 0 0 0 
0 0 0 0 0 0 0 0 0 
0 0 0 0 0 0 0 0 0 
0 0 0 0 0 0 0 0 0 
0 0 0 0 0 0 0 0 0 
0 0 0 0 0 0 0 0 0 
0 0 0 0 0 0 0 0 0 
0 0 0 0 0 0 0 0 0 
0 0 0 0 0 0 0 0 0 
0 0 0 0 0 0 0 0 0 
0 0 0 0 0 0 0 0 0 
0 0 0 0 0 0 0 0 0 
0 0 0 0 0 0 0 0 0 
0 0 0 0 0 0 0 0 0 
0 0 0 0 0 0 0 0 0 
0 0 0 0 0 0 0 0 0 
0 0 0 0 0 0 0 0 0 
0 0 0 0 0 0 0 0 0 
0 0 0 0 0 0 0 0 0 
0 0 0 0 0 0 0 0 0 
0 0 0 0 0 0 0 0 0 
0 0 0 0 0 0 0 0 0 
0 0 0 0 0 0 0 0 0 
0 0 0 0 0 0 0 0 0 
0 0 0 0 0 0 0 0 0 
0 0 0 0 0 0 0 0 0 
0 0 0 0 0 0 0 0 0 
0 0 0 0 0 0 0 0 0 
0 0 0 0 0 0 0 0 0 
0 0 0 0 0 0 0 0 0 
0 0 0 0 0 0 0 0 0 
0 0 0 0 0 0 0 0 0 
0 0 0 0 0 0 0 0 0 
0 0 0 0 0 0 0 0 0 
0 0 0 0 0 0 0 0 0 
0 0 0 0 0 0 0 0 0 
0 0 0 0 0 0 0 0 0 
0 0 0 0 0 0 0 0 0 
0 0 0 0 0 0 0 0 0 
0 0 0 0 0 0 0 0 0 
0 0 0 0 0 0 0 0 0 
0 0 0 0 0 0 0 0 0 
0 0 0 0 0 0 0 0 0 
0 0 0 0 0 0 0 0 0 
0 0 0 0 0 0 0 0 0 
0 0 0 0 0 0 0 0 0 
0 0 0 0 0 0 0 0 0 
0 0 0 0 0 0 0 0 0 
0 0 0 0 0 0 0 0 0 
0 0 0 0 0 0 0 0 0 
0 0 0 0 0 0 0 0 0 
0 0 0 0 0 0 0 0 0 
0 0 0 0 0 0 0 0 0 
0 0 0 0 0 0 0 0 0 
0 0 0 0 0 0 0 0 0 
0 0 0 0 0 0 0 0 0 
0 0 0 0 0 0 0 0 0 
0 0 0 0 0 0 0 0 0 
0 0 0 0 0 0 0 0 0 
0 0 0 0 0 0 0 0 0 
0 0 0 0 0 0 0 0 0 
0 0 0 0 0 0 0 0 0 
0 0 0 0 0 0 0 0 0 
0 0 0 0 0 0 0 0 0 
0 0 0 0 0 0 0 0 0 
0 0 0 0 0 0 0 0 0 
0 0 0 0 0 0 0 0 0 
0 0 0 0 0 0 0 0 0 
0 0 0 0 0 0 0 0 0 
0 0 0 0 0 0 0 0 0 
0 0 0 0 0 0 0 0 0 
0 0 0 0 0 0 0 0 0 
0 0 0 0 0 0 0 0 0 
0 0 0 0 0 0 0 0 0 
0 0 0 0 0 0 0 0 0 
0 0 0 0 0 0 0 0 0 
0 0 0 0 0 0 0 0 0 
0 0 0 0 0 0 0 0 0 
0 0 0 0 0 0 0 0 0 
0 0 0 0 0 0 0 0 0 
0 0 0 0 0 0 0 0 0 
0 0 0 0 0 0 0 0 0 
0 0 0 0 0 0 0 0 0 
0 0 0 0 0 0 0 0 0 
0 0 0 0 0 0 0 0 0 
0 0 0 0 0 0 0 0 0 
0 0 0 0 0 0 0 0 0 
0 0 0 0 0 0 0 0 0 
0 0 0 0 0 0 0 0 0 
0 0 0 0 0 0 0 0 0 
0 0 0 0 0 0 0 0 0 
0 0 0 0 0 0 0 0 0 
0 0 0 0 0 0 0 0 0 
0 0 0 0 0 0 0 0 0 
0 0 0 0 0 0 0 0 0 
0 0 0 0 0 0 0 0 0 
0 0 0 0 0 0 0 0 0 
0 0 0 0 0 0 0 0 0 
0 0 0 0 0 0 0 0 0 
0 0 0 0 0 0 0 0 0 
0 0 0 0 0 0 0 0 0 
0 0 0 0 0 0 0 0 0 
0 0 0 0 0 0 0 0 0 
0 0 0 0 0 0 0 0 0 
0 0 0 0 0 0 0 0 0 
0 0 0 0 0 0 0 0 0 
0 0 0 0 0 0 0 0 0 
0 0 0 0 0 0 0 0 0 
0 0 0 0 0 0 0 0 0 
0 0 0 0 0 0 0 0 0 
0 0 0 0 0 0 0 0 0 
0 0 0 0 0 0 0 0 0 
0 0 0 0 0 0 0 0 0 
0 0 0 0 0 0 0 0 0 
0 0 0 0 0 0 0 0 0 
0 0 0 0 0 0 0 0 0 
0 0 0 0 0 0 0 0 0 
0 0 0 0 0 0 0 0 0 
0 0 0 0 0 0 0 0 0 
0 0 0 0 0 0 0 0 0 
0 0 0 0 0 0 0 0 0 
0 0 0 0 0 0 0 0 0 
0 0 0 0 0 0 0 0 0 
0 0 0 0 0 0 0 0 0 
0 0 0 0 0 0 0 0 0 
0 0 0 0 0 0 0 0 0 
0 0 0 0 0 0 0 0 0 
0 0 0 0 0 0 0 0 0 
0 0 0 0 0 0 0 0 0 
0 0 0 0 0 0 0 0 0 
0 0 0 0 0 0 0 0 0 
0 0 0 0 0 0 0 0 0 
0 0 0 0 0 0 0 0 0 
0 0 0 0 0 0 0 0 0 
0 0 0 0 0 0 0 0 0 
0 0 0 0 0 0 0 0 0 
0 0 0 0 0 0 0 0 0 
0 0 0 0 0 0 0 0 0 
0 0 0 0 0 0 0 0 0 
0 0 0 0 0 0 0 0 0 
0 0 0 0 0 0 0 0 0 
0 0 0 0 0 0 0 0 0 
0 0 0 0 0 0 0 0 0 
0 0 0 0 0 0 0 0 0 
0 0 0 0 0 0 0 0 0 
0 0 0 0 0 0 0 0 0 
0 0 0 0 0 0 0 0 0 
0 0 0 0 0 0 0 0 0 
0 0 0 0 0 0 0 0 0 
0 0 0 0 0 0 0 0 0 
0 0 0 0 0 0 0 0 0 
0 0 0 0 0 0 0 0 0 
0 0 0 0 0 0 0 0 0 
0 0 0 0 0 0 0 0 0 
0 0 0 0 0 0 0 0 0 
0 0 0 0 0 0 0 0 0 
0 0 0 0 0 0 0 0 0 
0 0 0 0 0 0 0 0 0 
0 0 0 0 0 0 0 0 0 
0 0 0 0 0 0 0 0 0 
0 0 0 0 0 0 0 0 0 
0 0 0 0 0 0 0 0 0 
0 0 0 0 0 0 0 0 0 
0 0 0 0 0 0 0 0 0 
0 0 0 0 0 0 0 0 0 
0 0 0 0 0 0 0 0 0 
0 0 0 0 0 0 0 0 0 
0 0 0 0 0 0 0 0 0 
0 0 0 0 0 0 0 0 0 
0 0 0 0 0 0 0 0 0 
0 0 0 0 0 0 0 0 0 
0 0 0 0 0 0 0 0 0 
0 0 0 0 0 0 0 0 0 
0 0 0 0 0 0 0 0 0 
0 0 0 0 0 0 0 0 0 
0 0 0 0 0 0 0 0 0 
0 0 0 0 0 0 0 0 0 
0 0 0 0 0 0 0 0 0 
0 0 0 0 0 0 0 0 0 
0 0 0 0 0 0 0 0 0 
0 0 0 0 0 0 0 0 0 
0 0 0 0 0 0 0 0 0 
0 0 0 0 0 0 0 0 0 
0 0 0 0 0 0 0 0 0 
0 0 0 0 0 0 0 0 0 
0 0 0 0 0 0 0 0 0 
0 0 0 0 0 0 0 0 0 
0 0 0 0 0 0 0 0 0 
0 0 0 0 0 0 0 0 0 
0 0 0 0 0 0 0 0 0 
0 0 0 0 0 0 0 0 0 
0 0 0 0 0 0 0 0 0 
0 0 0 0 0 0 0 0 0 
0 0 0 0 0 0 0 0 0 
0 0 0 0 0 0 0 0 0 
0 0 0 0 0 0 0 0 0 
0 0 0 0 0 0 0 0 0 
0 0 0 0 0 0 0 0 0 
0 0 0 0 0 0 0 0 0 
0 0 0 0 0 0 0 0 0 
0 0 0 0 0 0 0 0 0 
0 0 0 0 0 0 0 0 0 
0 0 0 0 0 0 0 0 0 
0 0 0 0 0 0 0 0 0 
0 0 0 0 0 0 0 0 0 
0 0 0 0 0 0 0 0 0 
0 0 0 0 0 0 0 0 0 
0 0 0 0 0 0 0 0 0 
0 0 0 0 0 0 0 0 0 
0 0 0 0 0 0 0 0 0 
0 0 0 0 0 0 0 0 0 
0 0 0 0 0 0 0 0 0 
0 0 0 0 0 0 0 0 0 
0 0 0 0 0 0 0 0 0 
0 0 0 0 0 0 0 0 0 
0 0 0 0 0 0 0 0 0 
0 0 0 0 0 0 0 0 0 
0 0 0 0 0 0 0 0 0 
0 0 0 0 0 0 0 0 0 
0 0 0 0 0 0 0 0 0 
0 0 0 0 0 0 0 0 0 
0 0 0 0 0 0 0 0 0 
0 0 0 0 0 0 0 0 0 
0 0 0 0 0 0 0 0 0 
0 0 0 0 0 0 0 0 0 
0 0 0 0 0 0 0 0 0 
0 0 0 0 0 0 0 0 0 
0 0 0 0 0 0 0 0 0 
0 0 0 0 0 0 0 0 0 
0 0 0 0 0 0 0 0 0 
0 0 0 0 0 0 0 0 0 
0 0 0 0 0 0 0 0 0 
0 0 0 0 0 0 0 0 0 
0 0 0 0 0 0 0 0 0 
0 0 0 0 0 0 0 0 0 
0 0 0 0 0 0 0 0 0 
0 0 0 0 0 0 0 0 0 
0 0 0 0 0 0 0 0 0 
0 0 0 0 0 0 0 0 0 
0 0 0 0 0 0 0 0 0 
0 0 0 0 0 0 0 0 0 
0 0 0 0 0 0 0 0 0 
0 0 0 0 0 0 0 0 0 
0 0 0 0 0 0 0 0 0 
0 0 0 0 0 0 0 0 0 
0 0 0 0 0 0 0 0 0 
0 0 0 0 0 0 0 0 0 
0 0 0 0 0 0 0 0 0 
0 0 0 0 0 0 0 0 0 
0 0 0 0 0 0 0 0 0 
0 0 0 0 0 0 0 0 0 
0 0 0 0 0 0 0 0 0 
0 0 0 0 0 0 0 0 0 
0 0 0 0 0 0 0 0 0 
0 0 0 0 0 0 0 0 0 
0 0 0 0 0 0 0 0 0 
0 0 0 0 0 0 0 0 0 
0 0 0 0 0 0 0 0 0 
0 0 0 0 0 0 0 0 0 
0 0 0 0 0 0 0 0 0 
0 0 0 0 0 0 0 0 0 
0 0 0 0 0 0 0 0 0 
0 0 0 0 0 0 0 0 0 
0 0 0 0 0 0 0 0 0 
0 0 0 0 0 0 0 0 0 
0 0 0 0 0 0 0 0 0 
0 0 0 0 0 0 0 0 0 
0 0 0 0 0 0 0 0 0 
0 0 0 0 0 0 0 0 0 
0 0 0 0 0 0 0 0 0 
0 0 0 0 0 0 0 0 0 
0 0 0 0 0 0 0 0 0 
0 0 0 0 0 0 0 0 0 
0 0 0 0 0 0 0 0 0 
0 0 0 0 0 0 0 0 0 
0 0 0 0 0 0 0 0 0 
0 0 0 0 0 0 0 0 0 
0 0 0 0 0 0 0 0 0 
0 0 0 0 0 0 0 0 0 
0 0 0 0 0 0 0 0 0 
0 0 0 0 0 0 0 0 0 
0 0 0 0 0 0 0 0 0 
0 0 0 0 0 0 0 0 0 
0 0 0 0 0 0 0 0 0 
0 0 0 0 0 0 0 0 0 
0 0 0 0 0 0 0 0 0 
0 0 0 0 0 0 0 0 0 
0 0 0 0 0 0 0 0 0 
0 0 0 0 0 0 0 0 0 
0 0 0 0 0 0 0 0 0 
0 0 0 0 0 0 0 0 0 
0 0 0 0 0 0 0 0 0 
0 0 0 0 0 0 0 0 0 
0 0 0 0 0 0 0 0 0 
0 0 0 0 0 0 0 0 0 
0 0 0 0 0 0 0 0 0 
0 0 0 0 0 0 0 0 0 
0 0 0 0 0 0 0 0 0 
0 0 0 0 0 0 0 0 0 
0 0 0 0 0 0 0 0 0 
0 0 0 0 0 0 0 0 0 
0 0 0 0 0 0 0 0 0 
0 0 0 0 0 0 0 0 0 
0 0 0 0 0 0 0 0 0 
0 0 0 0 0 0 0 0 0 
0 0 0 0 0 0 0 0 0 
0 0 0 0 0 0 0 0 0 
0 0 0 0 0 0 0 0 0 
0 0 0 0 0 0 0 0 0 
0 0 0 0 0 0 0 0 0 
0 0 0 0 0 0 0 0 0 
0 0 0 0 0 0 0 0 0 
0 0 0 0 0 0 0 0 0 
0 0 0 0 0 0 0 0 0 
0 0 0 0 0 0 0 0 0 
0 0 0 0 0 0 0 0 0 
0 0 0 0 0 0 0 0 0 
0 0 0 0 0 0 0 0 0 
0 0 0 0 0 0 0 0 0 
0 0 0 0 0 0 0 0 0 
0 0 0 0 0 0 0 0 0 
0 0 0 0 0 0 0 0 0 
0 0 0 0 0 0 0 0 0 
0 0 0 0 0 0 0 0 0 
0 0 0 0 0 0 0 0 0 
0 0 0 0 0 0 0 0 0 
0 0 0 0 0 0 0 0 0 
0 0 0 0 0 0 0 0 0 
0 0 0 0 0 0 0 0 0 
0 0 0 0 0 0 0 0 0 
0 0 0 0 0 0 0 0 0 
0 0 0 0 0 0 0 0 0 
0 0 0 0 0 0 0 0 0 
0 0 0 0 0 0 0 0 0 
0 0 0 0 0 0 0 0 0 
0 0 0 0 0 0 0 0 0 
0 0 0 0 0 0 0 0 0 
0 0 0 0 0 0 0 0 0 
0 0 0 0 0 0 0 0 0 
0 0 0 0 0 0 0 0 0 
0 0 0 0 0 0 0 0 0 
0 0 0 0 0 0 0 0 0 
0 0 0 0 0 0 0 0 0 
0 0 0 0 0 0 0 0 0 
0 0 0 0 0 0 0 0 0 
0 0 0 0 0 0 0 0 0 
0 0 0 0 0 0 0 0 0 
0 0 0 0 0 0 0 0 0 
0 0 0 0 0 0 0 0 0 
0 0 0 0 0 0 0 0 0 
0 0 0 0 0 0 0 0 0 
0 0 0 0 0 0 0 0 0 
0 0 0 0 0 0 0 0 0 
0 0 0 0 0 0 0 0 0 
0 0 0 0 0 0 0 0 0 
0 0 0 0 0 0 0 0 0 
0 0 0 0 0 0 0 0 0 
0 0 0 0 0 0 0 0 0 
0 0 0 0 0 0 0 0 0 
0 0 0 0 0 0 0 0 0 
0 0 0 0 0 0 0 0 0 
0 0 0 0 0 0 0 0 0 
0 0 0 0 0 0 0 0 0 
0 0 0 0 0 0 0 0 0 
0 0 0 0 0 0 0 0 0 
0 0 0 0 0 0 0 0 0 
0 0 0 0 0 0 0 0 0 
0 0 0 0 0 0 0 0 0 
0 0 0 0 0 0 0 0 0 
0 0 0 0 0 0 0 0 0 
0 0 0 0 0 0 0 0 0 
0 0 0 0 0 0 0 0 0 
0 0 0 0 0 0 0 0 0 
0 0 0 0 0 0 0 0 0 
0 0 0 0 0 0 0 0 0 
0 0 0 0 0 0 0 0 0 
0 0 0 0 0 0 0 0 0 
0 0 0 0 0 0 0 0 0 
0 0 0 0 0 0 0 0 0 
0 0 0 0 0 0 0 0 0 
0 0 0 0 0 0 0 0 0 
0 0 0 0 0 0 0 0 0 
0 0 0 0 0 0 0 0 0 
0 0 0 0 0 0 0 0 0 
0 0 0 0 0 0 0 0 0 
0 0 0 0 0 0 0 0 0 
0 0 0 0 0 0 0 0 0 
0 0 0 0 0 0 0 0 0 
0 0 0 0 0 0 0 0 0 
0 0 0 0 0 0 0 0 0 
0 0 0 0 0 0 0 0 0 
0 0 0 0 0 0 0 0 0 
0 0 0 0 0 0 0 0 0 
0 0 0 0 0 0 0 0 0 
0 0 0 0 0 0 0 0 0 
0 0 0 0 0 0 0 0 0 
0 0 0 0 0 0 0 0 0 
0 0 0 0 0 0 0 0 0 
0 0 0 0 0 0 0 0 0 
0 0 0 0 0 0 0 0 0 
0 0 0 0 0 0 0 0 0 
0 0 0 0 0 0 0 0 0 
0 0 0 0 0 0 0 0 0 
0 0 0 0 0 0 0 0 0 
0 0 0 0 0 0 0 0 0 
0 0 0 0 0 0 0 0 0 
0 0 0 0 0 0 0 0 0 
0 0 0 0 0 0 0 0 0 
0 0 0 0 0 0 0 0 0 
0 0 0 0 0 0 0 0 0 
0 0 0 0 0 0 0 0 0 
0 0 0 0 0 0 0 0 0 
0 0 0 0 0 0 0 0 0 
0 0 0 0 0 0 0 0 0 
0 0 0 0 0 0 0 0 0 
0 0 0 0 0 0 0 0 0 
0 0 0 0 0 0 0 0 0 
0 0 0 0 0 0 0 0 0 
0 0 0 0 0 0 0 0 0 
0 0 0 0 0 0 0 0 0 
0 0 0 0 0 0 0 0 0 
0 0 0 0 0 0 0 0 0 
0 0 0 0 0 0 0 0 0 
0 0 0 0 0 0 0 0 0 
0 0 0 0 0 0 0 0 0 
0 0 0 0 0 0 0 0 0 
0 0 0 0 0 0 
v 3 1355 double
0.00493594 0.000598306 -0.000742312 0.00574224 0.00367289 0.00451877 0.00292367 0.0118829 -0.00225366 
-0.00027763 0.00567033 -0.00743729 0.00297373 0.0110124 -0.00448119 -4.80813e-06 0.00753118 -0.000393816 
0.00153774 0.0119229 0.00445125 -0.00711243 -0.00308903 0.00207233 -0.0193398 -0.00534434 0.00132817 
-0.00962346 0.0099783 0.00128495 -0.0124287 -0.0100918 -0.00275886 -0.0134679 0.00126513 0.00204186 
-0.0167788 0.000619669 0.00318687 -0.0166482 -0.00181718 0.00337158 -0.0121843 -0.00115024 0.00058117 
-0.00901676 -0.000412917 6.80039e-05 -0.00706212 0.00127636 0.000441945 -0.00353606 0.000495618 0.000907742 
-0.00221436 -0.00086584 0.000895686 -0.00161117 0.000517515 0.00112741 -0.000753417 0.000121129 -0.000682764 
7.65661e-05 -0.000663578 -2.44109e-05 0.00235806 -2.80003e-05 -3.08281e-05 0.00145427 0.00108939 -0.00573095 
0.00772852 0.0109416 -8.76266e-05 0.00626493 0.021936 -0.000689747 0.00719352 0.0132718 -0.00260837 
0.00481939 0.018974 -0.00887728 0.00115863 0.00261431 -0.0175116 -0.00650267 0.0592825 -0.00294149 
-0.00842734 -0.00906031 -0.0129696 -0.00771026 -0.014891 -0.00847125 -0.0197188 -0.0160386 -0.0050422 
-0.0180749 0.00327562 -0.00264053 -0.0153781 -0.00211572 0.000714446 -0.0140236 -0.00379218 0.000905281 
-0.0147626 -0.000461115 0.00124386 -0.00971375 0.00344094 -0.000676783 -0.00315512 0.00132145 0.000578783 
-0.00199359 -0.000199678 0.000738672 -0.00153777 0.000892095 0.0032477 -0.000975414 0.00158284 0.00198042 
0.000133017 4.39794e-05 -0.00149667 -5.71841e-05 -0.000335651 0.000309572 0.00477566 0.00103341 0.00343617 
0.0112837 0.00336142 0.00104693 0.00216449 0.0133198 -0.00175246 0.0218426 0.0339708 -0.00677459 
0.0524914 0.0320919 -0.00270301 0.0499483 0.0313335 -0.00195613 0.0893621 0.00509971 0.00290112 
0.0172028 0.00620087 -0.00109855 0.0148409 -0.00244274 0.00257287 0.013493 -0.0348829 -0.00665216 
-0.0204584 -0.0188744 0.00123811 -0.0458077 -0.0154727 -0.000203492 -0.0151325 0.00528054 0.00204633 
-0.00920462 -0.0480351 -0.00439642 -0.00528049 0.0039364 0.00285902 -0.00769296 0.00695504 0.000778278 
-0.0069633 0.00174291 0.00130159 -0.00589938 0.00783648 0.00317298 -0.00576084 0.00362356 0.000823551 
-0.00305082 0.0033252 0.00463281 -0.00120312 0.00078513 -0.00132958 -0.000499292 0.000140169 -0.000245774 
0.0113537 0.00542542 0.00300742 0.0191626 0.0161889 -0.00736925 0.0180676 0.0444388 -0.00210423 
0.0329049 0.0487294 -0.000687494 0.0337808 0.0595161 0.0093577 0.0362245 0.0361015 -0.00494278 
0.0637198 0.0607478 -0.0361343 0.0591264 0.070098 0.00423177 -0.0344224 0.0305425 -0.00605744 