# vtk DataFile Version 4.0
Generated by LIGGGHTS
ASCII
DATASET POLYDATA
POINTS 1355 float
-0.898124 -0.460639 -0.460309 -0.76711 -0.460392 -0.460385 -0.687548 -0.460374 -0.460423 
-0.60765 -0.460919 -0.460474 -0.527516 -0.4607 -0.460498 -0.447755 -0.460315 -0.460423 
-0.367868 -0.460003 -0.460638 -0.279187 -0.460101 -0.460449 -0.158651 -0.460817 -0.460298 
-0.079082 -0.452612 -0.46039 0.000293786 -0.460214 -0.460561 0.0800049 -0.460416 -0.460483 
0.159924 -0.46038 -0.460471 0.239833 -0.460326 -0.460494 0.319457 -0.455882 -0.460434 
0.399135 -0.459901 -0.46044 0.478873 -0.460274 -0.460247 0.581913 -0.460496 -0.460758 
0.661536 -0.460443 -0.460483 0.741172 -0.460348 -0.460555 0.820631 -0.460442 -0.460683 
0.901814 -0.460303 -0.460302 -0.960622 -0.411923 -0.461024 -0.886885 -0.38163 -0.460661 
-0.727741 -0.391069 -0.460651 -0.647213 -0.392031 -0.460323 -0.567879 -0.39272 -0.4603 
-0.488514 -0.391194 -0.46046 -0.408961 -0.390986 -0.460652 -0.329761 -0.386021 -0.460404 
-0.212858 -0.402767 -0.460382 -0.13512 -0.385199 -0.460946 0.0399873 -0.391185 -0.460487 
0.119704 -0.391752 -0.460546 0.200161 -0.39147 -0.460518 0.279706 -0.384362 -0.460469 
0.359871 -0.386955 -0.460727 0.441715 -0.386759 -0.460145 0.530248 -0.39968 -0.460453 
0.621061 -0.391496 -0.46072 0.70093 -0.391642 -0.460449 0.780935 -0.39112 -0.460154 
0.86074 -0.391888 -0.46054 0.960365 -0.40641 -0.460518 -0.954112 -0.333044 -0.46012 
-0.880529 -0.302122 -0.460417 -0.8074 -0.36157 -0.46028 -0.679979 -0.320306 -0.461657 
-0.568306 -0.314491 -0.460929 -0.48871 -0.311399 -0.460481 -0.408287 -0.311294 -0.460343 
-0.263357 -0.341773 -0.460338 -0.185916 -0.323628 -0.460482 -0.107284 -0.311169 -0.460676 
-0.0318676 -0.356494 -0.460254 0.0364147 -0.311571 -0.460412 0.1593 -0.323528 -0.46047 
0.240309 -0.312332 -0.460637 0.322169 -0.316691 -0.460311 0.402152 -0.317283 -0.460189 
0.491512 -0.311833 -0.460458 0.569279 -0.330557 -0.460663 0.660374 -0.322721 -0.46031 
0.739729 -0.322871 -0.460933 0.882173 -0.31555 -0.460966 0.960514 -0.32708 -0.460442 
-0.960823 -0.254105 -0.460496 -0.803617 -0.281934 -0.460414 -0.727838 -0.256469 -0.460607 
-0.627316 -0.261386 -0.460071 -0.537199 -0.242632 -0.460272 -0.458286 -0.235808 -0.460964 
-0.379056 -0.236907 -0.460186 -0.329492 -0.298681 -0.460454 -0.124647 -0.233071 -0.460682 
-0.0355215 -0.276805 -0.460761 0.102863 -0.267661 -0.460638 0.182097 -0.248122 -0.460164 
0.311404 -0.237795 -0.460377 0.546666 -0.254331 -0.46062 0.623313 -0.255969 -0.438874 
0.70022 -0.25355 -0.460466 0.780009 -0.254556 -0.460179 0.881936 -0.236018 -0.46026 
0.960404 -0.247735 -0.460528 -0.961006 -0.174685 -0.460495 -0.89214 -0.214727 -0.460124 
-0.814003 -0.203358 -0.460623 -0.674679 -0.197349 -0.460194 -0.595555 -0.18895 -0.460504 
-0.504876 -0.170525 -0.46086 -0.297307 -0.225533 -0.460692 -0.217431 -0.209218 -0.460706 
-0.0528384 -0.199263 -0.460373 0.0316262 -0.231792 -0.460541 0.0890954 -0.176066 -0.461084 
0.168463 -0.16996 -0.460215 0.242864 -0.197221 -0.46025 0.392036 -0.205572 -0.461166 
0.470097 -0.232306 -0.460533 0.574649 -0.17993 -0.460905 0.653981 -0.185949 -0.460568 
0.733309 -0.178536 -0.460636 0.820146 -0.186342 -0.460228 0.960545 -0.168357 -0.460464 
-0.894493 -0.133046 -0.460632 -0.815347 -0.123777 -0.460134 -0.746177 -0.162754 -0.460742 
-0.642239 -0.1247 -0.460272 -0.563644 -0.117011 -0.460526 -0.426537 -0.161512 -0.460392 
-0.347484 -0.164093 -0.460057 -0.269663 -0.149032 -0.460124 -0.155348 -0.159391 -0.460585 
-0.0831408 -0.12573 -0.460391 0.0125737 -0.154472 -0.460918 0.128469 -0.102097 -0.460983 
0.308685 -0.153799 -0.460705 0.428847 -0.114194 -0.460998 0.502078 -0.145713 -0.460661 
0.618722 -0.114121 -0.460522 0.81274 -0.107767 -0.460602 0.886167 -0.140586 -0.46069 
-0.960153 -0.0771519 -0.460419 -0.863732 -0.0607325 -0.460874 -0.78217 -0.0513859 -0.460601 
-0.711705 -0.0875883 -0.46049 -0.586876 -0.0409319 -0.460308 -0.504793 -0.0653357 -0.460543 
-0.427318 -0.0813754 -0.460784 -0.348306 -0.0851278 -0.460609 -0.208114 -0.0989276 -0.460521 
-0.136314 -0.0661289 -0.460189 -0.00994277 -0.0781759 -0.460162 0.065734 -0.053223 -0.461176 
0.208574 -0.0736737 -0.461042 0.290529 -0.076533 -0.460589 0.368961 -0.0612533 -0.460112 
0.445027 -0.0365912 -0.460835 0.546942 -0.0800634 -0.460611 0.663019 -0.0479315 -0.460507 
0.737948 -0.0801617 -0.46061 0.960233 -0.0888087 -0.460778 -0.922392 -0.00710885 -0.460666 
-0.831003 0.0106513 -0.460332 -0.752626 0.0242524 -0.460548 -0.682174 -0.0134857 -0.460624 
-0.556776 0.0328407 -0.46119 -0.475782 0.00801243 -0.460542 -0.396618 -0.00779871 -0.460261 
-0.315225 -0.0136408 -0.460613 -0.236135 -0.0177831 -0.460624 -0.16575 0.0162929 -0.460452 
-0.0692308 -0.0247548 -0.46096 0.00574597 -3.45648e-05 -0.460564 0.080568 0.0256349 -0.460657 
0.142555 -0.0241399 -0.461102 0.217812 0.00533641 -0.460418 0.308641 0.000339869 -0.460441 
0.386285 0.0168474 -0.460504 0.515771 -0.0123444 -0.433697 0.590803 -0.0136354 -0.461037 
0.690419 0.027068 -0.460312 0.76331 -0.0046839 -0.460148 0.837969 -0.0327005 -0.460515 
0.916286 -0.0228234 -0.461084 -0.961121 0.0621377 -0.460414 -0.882894 0.0700605 -0.460267 
-0.804721 0.0848816 -0.461028 -0.726519 0.0994913 -0.460522 -0.644851 0.080822 -0.460291 
-0.496132 0.0848357 -0.460218 -0.424613 0.0623037 -0.434553 -0.350688 0.0575197 -0.461022 
-0.271819 0.053235 -0.460076 -0.200714 0.0878699 -0.46091 -0.095142 0.0500376 -0.461635 
-0.020078 0.0755487 -0.460877 0.154789 0.0547636 -0.4607 0.267724 0.0677096 -0.46073 
0.40258 0.0949285 -0.460224 0.461761 0.0414513 -0.460196 0.538839 0.0591627 -0.460451 
0.618366 0.0610691 -0.460208 0.754601 0.0826185 -0.460551 0.825152 0.0453745 -0.460329 
0.893799 0.0856166 -0.460592 0.960687 0.0431234 -0.460286 -0.960556 0.141769 -0.461009 
-0.857691 0.144948 -0.460352 -0.7823 0.1562 -0.436795 -0.633048 0.159809 -0.460651 
-0.571031 0.110946 -0.460146 -0.510825 0.162893 -0.461134 -0.387706 0.128137 -0.46056 
-0.307604 0.124786 -0.460291 -0.127555 0.124008 -0.460938 -0.0458426 0.153781 -0.461219 
0.091411 0.104489 -0.4602 0.207694 0.118932 -0.460943 0.324083 0.134761 -0.461093 
0.491462 0.129038 -0.460674 0.571093 0.131617 -0.460496 0.650964 0.133597 -0.460417 
0.755099 0.162173 -0.461034 0.82455 0.124581 -0.460502 0.892031 0.165996 -0.46057 
0.961022 0.127487 -0.460432 -0.960362 0.221069 -0.460543 -0.826302 0.217765 -0.460684 
-0.710112 0.177608 -0.461038 -0.438639 0.196698 -0.460435 -0.35498 0.200507 -0.460619 
-0.236602 0.171411 -0.460491 -0.16102 0.196724 -0.461182 -0.0650627 0.231836 -0.461074 
0.0406844 0.204152 -0.461796 0.161979 0.18421 -0.461788 0.258489 0.18003 -0.460665 
0.354815 0.211201 -0.460594 0.42404 0.171743 -0.460266 0.529315 0.199535 -0.460711 
0.608923 0.2014 -0.460512 0.688244 0.204128 -0.460134 0.822384 0.204374 -0.460508 
0.960427 0.207241 -0.460249 -0.891971 0.261362 -0.46029 -0.820871 0.297544 -0.460455 
-0.751957 0.244337 -0.460521 -0.616565 0.244731 -0.460486 -0.536823 0.249734 -0.460627 
-0.399966 0.265723 -0.460571 -0.288921 0.245014 -0.460602 -0.210938 0.258619 -0.460688 
-0.133269 0.270684 -0.452444 0.00394511 0.274284 -0.460401 0.108199 0.258648 -0.460745 
0.208021 0.249186 -0.460399 0.287592 0.254003 -0.460043 0.393279 0.281026 -0.460292 
0.462273 0.241728 -0.460795 0.570137 0.270429 -0.460895 0.657004 0.276998 -0.460893 
0.755395 0.247493 -0.460256 0.890724 0.245182 -0.460422 -0.960527 0.301014 -0.460098 
-0.891383 0.34092 -0.460417 -0.743672 0.322494 -0.460358 -0.662634 0.310073 -0.460418 
-0.58314 0.317363 -0.460215 -0.465668 0.354014 -0.460994 -0.34264 0.319945 -0.460119 
-0.262865 0.32016 -0.460314 -0.181002 0.332288 -0.460847 -0.0658148 0.312211 -0.460263 
0.0687983 0.329948 -0.460156 0.161689 0.31793 -0.460516 0.242416 0.322095 -0.461304 
0.326084 0.323459 -0.4613 0.432726 0.350391 -0.460404 0.501869 0.311161 -0.460908 
0.610193 0.340773 -0.460378 0.723603 0.320598 -0.460669 0.803211 0.321239 -0.4605 
0.882649 0.323392 -0.460418 0.959682 0.30221 -0.460827 -0.960372 0.38061 -0.460488 
-0.891548 0.420913 -0.460988 -0.777335 0.394059 -0.460503 -0.695454 0.385583 -0.46066 
-0.616061 0.390795 -0.46081 -0.536425 0.391019 -0.46042 -0.394618 0.391433 -0.460771 
-0.309417 0.391755 -0.460279 -0.230344 0.392823 -0.460142 -0.114269 0.375122 -0.461508 
0.02646 0.405499 -0.460798 0.122482 0.389431 -0.460409 0.204844 0.39192 -0.461077 
0.284761 0.391587 -0.46124 0.364811 0.392069 -0.460665 0.47222 0.41967 -0.460445 
0.541757 0.380713 -0.460371 0.681306 0.388289 -0.460537 0.761089 0.391063 -0.460624 
0.841369 0.391398 -0.460433 0.921447 0.392023 -0.460728 -0.960469 0.460329 -0.460294 
-0.821914 0.460173 -0.460476 -0.734577 0.460516 -0.460442 -0.655441 0.460219 -0.460317 
-0.576418 0.460156 -0.460389 -0.497626 0.460439 -0.460937 -0.423693 0.460616 -0.434975 
-0.34901 0.460377 -0.460432 -0.269648 0.460956 -0.460329 -0.189922 0.460866 -0.460481 
-0.110405 0.45959 -0.460453 -0.0309428 0.460522 -0.460843 0.0847816 0.460048 -0.460129 
0.164639 0.460343 -0.460695 0.244539 0.460567 -0.460731 0.324256 0.460538 -0.460396 
0.404166 0.46069 -0.460115 0.540604 0.460332 -0.460595 0.636123 0.459373 -0.460371 
0.716246 0.460094 -0.460309 0.800988 0.460222 -0.460635 0.880927 0.460478 -0.460505 
0.960553 0.460599 -0.460313 -0.96026 -0.461084 -0.399348 -0.884171 -0.460213 -0.375862 
-0.727225 -0.46029 -0.391197 -0.647479 -0.460446 -0.391557 -0.567557 -0.460252 -0.391562 
-0.48771 -0.460161 -0.39153 -0.407381 -0.459604 -0.391578 -0.323861 -0.460216 -0.394411 
-0.220474 -0.460831 -0.406457 -0.118269 -0.460587 -0.391686 -0.0389883 -0.460675 -0.391535 
0.0403685 -0.460287 -0.391523 0.119959 -0.460214 -0.391412 0.199739 -0.460289 -0.391544 
0.279622 -0.460404 -0.39157 0.359277 -0.460446 -0.391488 0.438813 -0.460919 -0.391251 
0.532023 -0.460962 -0.39958 0.621865 -0.460077 -0.391686 0.701827 -0.459836 -0.391445 
0.780903 -0.44502 -0.393235 0.860449 -0.459927 -0.392187 0.960109 -0.460322 -0.402057 
-0.960682 -0.383004 -0.387028 -0.832658 -0.42981 -0.428084 -0.770966 -0.393695 -0.393586 
[...]
POINT_DATA 1355
FIELD FieldData 7
id 1 1355 int
366 408 584 322 662 206 563 371 419 
523 551 145 607 585 151 530 365 186 
620 156 70 664 692 632 759 714 370 
120 208 723 59 512 435 712 211 457 
20 256 338 470 195 678 320 643 534 
171 196 105 493 581 542 514 245 234 
347 708 214 280 305 529 396 291 444 
367 476 155 724 314 136 721 375 250 
62 442 95 498 54 200 431 623 593 
109 184 446 647 159 267 289 373 275 
324 533 376 589 76 722 239 543 576 
75 202 572 683 676 680 445 83 641 
185 331 96 99 458 575 40 57 88 
31 281 298 126 300 48 521 531 428 
254 592 758 361 412 14 689 312 252 
153 397 483 170 704 321 140 726 143 
142 351 651 6 528 433 92 690 382 
437 359 154 569 304 439 339 540 639 
461 177 700 378 459 310 258 51 182 
549 369 323 121 129 507 423 495 224 
612 720 590 539 166 460 97 240 537 
127 580 85 544 293 697 634 104 602 
742 161 32 384 25 671 74 278 675 
383 71 266 19 22 627 717 162 218 
348 247 167 125 191 199 294 586 640 
441 596 149 475 463 387 269 130 8 
393 748 420 613 663 16 578 402 682 
421 715 637 299 698 747 261 622 355 
571 411 42 416 227 391 527 557 346 
67 274 319 242 649 9 73 766 409 
535 89 4 260 318 650 388 311 94 
618 39 582 53 673 729 3 69 496 
363 201 188 599 670 499 228 519 667 
472 669 660 646 654 43 230 226 306 
427 316 614 764 329 545 179 389 12 
453 440 197 452 90 604 386 686 38 
587 285 725 743 181 518 225 761 513 
5 559 72 336 66 116 78 628 131 
679 959 103 273 1154 276 516 47 233 
325 108 223 666 157 455 205 175 287 
221 56 751 736 426 744 642 611 302 
413 473 741 684 118 653 18 770 15 
82 272 100 87 343 490 219 601 290 
465 110 438 372 767 631 255 879 552 
307 699 636 187 550 80 532 313 645 
279 509 556 511 114 757 144 81 668 
58 615 616 558 644 341 189 407 36 
462 597 357 394 565 169 554 29 334 
282 570 424 286 399 24 447 364 183 
478 566 492 718 497 886 248 33 422 
11 502 541 395 46 106 345 192 568 
711 86 60 236 44 524 112 737 429 
479 134 27 45 694 326 358 352 746 
21 629 522 415 137 271 2 111 102 
818 216 733 147 194 148 827 172 101 
775 443 28 738 710 146 243 474 180 
482 381 374 436 638 450 253 425 93 
91 215 505 403 520 277 591 84 133 
626 288 350 762 193 546 41 970 333 
231 330 928 574 308 328 703 232 432 
296 284 687 49 13 469 681 400 648 
190 128 392 610 135 209 760 35 665 
122 503 750 488 259 821 480 283 508 
26 113 608 123 222 709 340 456 251 
417 17 292 138 430 246 98 448 404 
178 244 132 63 583 464 891 600 1165 
418 547 763 553 229 494 385 617 672 
467 119 755 481 727 526 390 210 728 
249 217 573 871 769 354 158 510 7 
739 466 793 890 500 658 337 986 1166 
846 173 567 1184 468 781 927 735 809 
1066 1173 1152 925 685 933 814 921 414 
784 265 749 1288 943 504 787 268 935 
831 910 362 1115 619 903 688 867 1167 
410 768 973 951 1062 963 754 1061 1170 
360 828 235 696 779 875 1147 207 932 
241 865 702 1091 907 454 812 1255 974 
1162 848 914 829 379 295 707 937 176 
982 838 870 124 691 792 919 603 335 
317 406 944 985 972 732 165 952 491 
765 204 349 904 894 901 655 79 851 
471 734 786 981 882 356 939 855 141 
489 577 30 501 674 536 52 486 621 
918 861 824 895 487 1284 795 731 800 
309 50 605 1052 908 630 1075 434 677 
892 977 801 794 905 947 1078 301 776 
962 805 990 332 164 1182 975 484 815 
401 34 548 327 893 198 926 657 220 
954 656 888 633 730 911 160 752 790 
150 560 783 342 1127 837 695 477 538 
887 922 835 10 555 380 803 876 515 
791 840 955 713 65 77 841 719 107 
804 23 811 965 203 872 929 994 873 
598 884 822 506 813 237 659 1 344 
1137 61 960 706 398 859 896 869 716 
55 1041 1156 971 856 115 257 564 139 
263 850 174 609 912 773 917 37 606 
297 368 625 353 771 913 562 168 405 
845 880 451 949 885 117 525 1001 303 
262 785 213 68 635 64 661 449 756 
152 753 701 594 984 923 315 579 377 
485 961 212 693 878 938 1243 561 270 
906 1178 1079 1149 1312 1004 866 823 1334 
1143 988 1076 956 825 1006 1330 163 1123 
1093 930 1290 1051 958 1305 1211 1113 1193 
1279 1110 1003 1185 849 1049 1133 1058 1159 
1302 1035 826 1231 844 1116 1339 1125 1197 
1160 1112 1073 832 652 847 1217 1097 1316 
1032 1267 1347 1000 1344 868 999 1266 1295 
1028 1221 1071 1086 1186 993 1354 1187 802 
1139 1285 1099 1014 1022 1145 1036 1015 808 
995 1054 1144 950 1315 1056 1322 1021 1189 
1321 1129 857 1246 902 1346 1283 936 964 
1103 1188 806 780 789 1023 1130 1008 1172 
1020 1095 1050 1111 1138 916 992 1174 1201 
1105 1026 820 782 1089 842 1065 1087 967 
969 1227 1016 1135 1077 1012 834 1158 978 
924 1183 1119 1082 1083 797 807 980 1343 
1018 836 953 810 1088 1273 839 1067 1258 
1176 1179 1010 1114 1048 931 1027 799 1150 
1216 1037 1122 843 1081 1311 1171 1033 1046 
1265 987 1100 1253 1017 1203 968 1009 1109 
862 819 997 1092 1153 899 1080 1269 852 
915 948 1096 1069 1057 983 860 1128 774 
874 864 934 1043 798 1085 1148 1055 1126 
1309 595 1280 1101 998 1180 1248 853 1029 
1025 858 889 1038 1007 1177 777 1053 796 
1063 1011 1042 1229 1230 877 1256 976 1131 
1134 909 1060 772 989 1074 966 1281 940 
1045 1181 1124 1019 1232 778 1118 900 898 
830 1161 881 1157 854 1102 942 1169 945 
1287 1070 1136 1024 1117 1068 1254 740 1059 
1307 1098 979 588 1208 1142 817 863 1064 
1262 957 883 238 517 816 897 788 624 
1252 1250 1190 1121 1141 1233 1140 941 1132 
1299 1303 1151 1238 745 1327 1226 1247 1306 
1275 1335 1276 1249 1251 1291 1107 1210 1034 
1215 1199 1031 1224 1106 1350 1323 1047 1213 
1297 1329 1341 1005 1202 1237 1228 1192 833 
1348 1013 1194 1209 1325 1263 1039 1292 1319 
1205 1317 1270 1331 1219 1342 1352 1304 1242 
1235 1223 1108 1044 1274 1349 1236 1326 1296 
1301 1220 1294 1164 1308 1333 1084 1286 1234 
1204 1260 1345 1104 1218 1272 1324 1282 1198 
1278 1241 1259 946 1338 1293 1268 1191 1289 
1168 1271 1240 1072 1196 1175 1261 1314 1094 
1300 1163 1155 1320 1328 1351 1298 991 1200 
1195 1310 1355 1090 1277 1244 1002 1332 1257 
264 1353 1146 705 996 1264 1336 1318 1239 
1212 1337 920 1040 1313 1206 1120 1340 1214 
1207 1222 1245 1225 1030 
type 1 1355 int
1 1 1 1 1 1 1 1 1 
1 1 1 1 1 1 1 1 1 
1 1 1 1 1 1 1 1 1 
1 1 1 1 1 1 1 1 1 
1 1 1 1 1 1 1 1 1 
1 1 1 1 1 1 1 1 1 
1 1 1 1 1 1 1 1 1 
1 1 1 1 1 1 1 1 1 
1 1 1 1 1 1 1 1 1 
1 1 1 1 1 1 1 1 1 
1 1 1 1 1 1 1 1 1 
1 1 1 1 1 1 1 1 1 
1 1 1 1 1 1 1 1 1 
1 1 1 1 1 1 1 1 1 
1 1 1 1 1 1 1 1 1 
1 1 1 1 1 1 1 1 1 
1 1 1 1 1 1 1 1 1 
1 1 1 1 1 1 1 1 1 
1 1 1 1 1 1 1 1 1 
1 1 1 1 1 1 1 1 1 
1 1 1 1 1 1 1 1 1 
1 1 1 1 1 1 1 1 1 
1 1 1 1 1 1 1 1 1 
1 1 1 1 1 1 1 1 1 
1 1 1 1 1 1 1 1 1 
1 1 1 1 1 1 1 1 1 
1 1 1 1 1 1 1 1 1 
1 1 1 1 1 1 1 1 1 
1 1 1 1 1 1 1 1 1 
1 1 1 1 1 1 1 1 1 
1 1 1 1 1 1 1 1 1 
1 1 1 1 1 1 1 1 1 
1 1 1 1 1 1 1 1 1 
1 1 1 1 1 1 1 1 1 
1 1 1 1 1 1 1 1 1 
1 1 1 1 1 1 1 1 1 
1 1 1 1 1 1 1 1 1 
1 1 1 1 1 1 1 1 1 
1 1 1 1 1 1 1 1 1 
1 1 1 1 1 1 1 1 1 
1 1 1 1 1 1 1 1 1 
1 1 1 1 1 1 1 1 1 
1 1 1 1 1 1 1 1 1 
1 1 1 1 1 1 1 1 1 
1 1 1 1 1 1 1 1 1 
1 1 1 1 1 1 1 1 1 
1 1 1 1 1 1 1 1 1 
1 1 1 1 1 1 1 1 1 
1 1 1 1 1 1 1 1 1 
1 1 1 1 1 1 1 1 1 
1 1 1 1 1 1 1 1 1 
1 1 1 1 1 1 1 1 1 
1 1 1 1 1 1 1 1 1 
1 1 1 1 1 1 1 1 1 
1 1 1 1 1 1 1 1 1 
1 1 1 1 1 1 1 1 1 
1 1 1 1 1 1 1 1 1 
1 1 1 1 1 1 1 1 1 
1 1 1 1 1 1 1 1 1 
1 1 1 1 1 1 1 1 1 
1 1 1 1 1 1 1 1 1 
1 1 1 1 1 1 1 1 1 
1 1 1 1 1 1 1 1 1 
1 1 1 1 1 1 1 1 1 
1 1 1 1 1 1 1 1 1 
1 1 1 1 1 1 1 1 1 
1 1 1 1 1 1 1 1 1 
1 1 1 1 1 1 1 1 1 
1 1 1 1 1 1 1 1 1 
1 1 1 1 1 1 1 1 1 
1 1 1 1 1 1 1 1 1 
1 1 1 1 1 1 1 1 1 
1 1 1 1 1 1 1 1 1 
1 1 1 1 1 1 1 1 1 
1 1 1 1 1 1 1 1 1 
1 1 1 1 1 1 1 1 1 
1 1 1 1 1 1 1 1 1 
1 1 1 1 1 1 1 1 1 
1 1 1 1 1 1 1 1 1 
1 1 1 1 1 1 1 1 1 
1 1 1 1 1 1 1 1 1 
1 1 1 1 1 1 1 1 1 
1 1 1 1 1 1 1 1 1 
1 1 1 1 1 1 1 1 1 
1 1 1 1 1 1 1 1 1 
1 1 1 1 1 1 1 1 1 
1 1 1 1 1 1 1 1 1 
1 1 1 1 1 1 1 1 1 
1 1 1 1 1 1 1 1 1 
1 1 1 1 1 1 1 1 1 
1 1 1 1 1 1 1 1 1 
1 1 1 1 1 1 1 1 1 
1 1 1 1 1 1 1 1 1 
1 1 1 1 1 1 1 1 1 
1 1 1 1 1 1 1 1 1 
1 1 1 1 1 1 1 1 1 
1 1 1 1 1 1 1 1 1 
1 1 1 1 1 1 1 1 1 
1 1 1 1 1 1 1 1 1 
1 1 1 1 1 1 1 1 1 
1 1 1 1 1 1 1 1 1 
1 1 1 1 1 1 1 1 1 
1 1 1 1 1 1 1 1 1 
1 1 1 1 1 1 1 1 1 
1 1 1 1 1 1 1 1 1 
1 1 1 1 1 1 1 1 1 
1 1 1 1 1 1 1 1 1 
1 1 1 1 1 1 1 1 1 
1 1 1 1 1 1 1 1 1 
1 1 1 1 1 1 1 1 1 
1 1 1 1 1 1 1 1 1 
1 1 1 1 1 1 1 1 1 
1 1 1 1 1 1 1 1 1 
1 1 1 1 1 1 1 1 1 
1 1 1 1 1 1 1 1 1 
1 1 1 1 1 1 1 1 1 
1 1 1 1 1 1 1 1 1 
1 1 1 1 1 1 1 1 1 
1 1 1 1 1 1 1 1 1 
1 1 1 1 1 1 1 1 1 
1 1 1 1 1 1 1 1 1 
1 1 1 1 1 1 1 1 1 
1 1 1 1 1 1 1 1 1 
1 1 1 1 1 1 1 1 1 
1 1 1 1 1 1 1 1 1 
1 1 1 1 1 1 1 1 1 
1 1 1 1 1 1 1 1 1 
1 1 1 1 1 1 1 1 1 
1 1 1 1 1 1 1 1 1 
1 1 1 1 1 1 1 1 1 
1 1 1 1 1 1 1 1 1 
1 1 1 1 1 1 1 1 1 
1 1 1 1 1 1 1 1 1 
1 1 1 1 1 1 1 1 1 
1 1 1 1 1 1 1 1 1 
1 1 1 1 1 1 1 1 1 
1 1 1 1 1 1 1 1 1 
1 1 1 1 1 1 1 1 1 
1 1 1 1 1 1 1 1 1 
1 1 1 1 1 1 1 1 1 
1 1 1 1 1 1 1 1 1 
1 1 1 1 1 1 1 1 1 
1 1 1 1 1 1 1 1 1 
1 1 1 1 1 1 1 1 1 
1 1 1 1 1 1 1 1 1 
1 1 1 1 1 1 1 1 1 
1 1 1 1 1 1 1 1 1 
1 1 1 1 1 1 1 1 1 
1 1 1 1 1 1 1 1 1 
1 1 1 1 1 1 1 1 1 
1 1 1 1 1 
i 3 1355 int
0 0 0 0 0 0 0 0 0 
0 0 0 0 0 0 0 0 0 
0 0 0 0 0 0 0 0 0 
0 0 0 0 0 0 0 0 0 
0 0 0 0 0 0 0 0 0 
0 0 0 0 0 0 0 0 0 
0 0 0 0 0 0 0 0 0 
0 0 0 0 0 0 0 0 0 
0 0 0 0 0 0 0 0 0 
0 0 0 0 0 0 0 0 0 
0 0 0 0 0 0 0 0 0 
0 0 0 0 0 0 0 0 0 
0 0 0 0 0 0 0 0 0 
0 0 0 0 0 0 0 0 0 
0 0 0 0 0 0 0 0 0 
0 0 0 0 0 0 0 0 0 
0 0 0 0 0 0 0 0 0 
0 0 0 0 0 0 0 0 0 
0 0 0 0 0 0 0 0 0 
0 0 0 0 0 0 0 0 0 
0 0 0 0 0 0 0 0 0 
0 0 0 0 0 0 0 0 0 
0 0 0 0 0 0 0 0 0 
0 0 0 0 0 0 0 0 0 
0 0 0 0 0 0 0 0 0 
0 0 0 0 0 0 0 0 0 
0 0 0 0 0 0 0 0 0 
0 0 0 0 0 0 0 0 0 
0 0 0 0 0 0 0 0 0 
0 0 0 0 0 0 0 0 0 
0 0 0 0 0 0 0 0 0 
0 0 0 0 0 0 0 0 0 
0 0 0 0 0 0 0 0 0 
0 0 0 0 0 0 0 0 0 
0 0 0 0 0 0 0 0 0 
0 0 0 0 0 0 0 0 0 
0 0 0 0 0 0 0 0 0 
0 0 0 0 0 0 0 0 0 
0 0 0 0 0 0 0 0 0 
0 0 0 0 0 0 0 0 0 
0 0 0 0 0 0 0 0 0 
0 0 0 0 0 0 0 0 0 
0 0 0 0 0 0 0 0 0 
0 0 0 0 0 0 0 0 0 
0 0 0 0 0 0 0 0 0 
0 0 0 0 0 0 0 0 0 
0 0 0 0 0 0 0 0 0 
0 0 0 0 0 0 0 0 0 
0 0 0 0 0 0 0 0 0 
0 0 0 0 0 0 0 0 0 
0 0 0 0 0 0 0 0 0 
0 0 0 0 0 0 0 0 0 
0 0 0 0 0 0 0 0 0 
0 0 0 0 0 0 0 0 0 
0 0 0 0 0 0 0 0 0 
0 0 0 0 0 0 0 0 0 
0 0 0 0 0 0 0 0 0 
0 0 0 0 0 0 0 0 0 
0 0 0 0 0 0 0 0 0 
0 0 0 0 0 0 0 0 0 
0 0 0 0 0 0 0 0 0 
0 0 0 0 0 0 0 0 0 
0 0 0 0 0 0 0 0 0 
0 0 0 0 0 0 0 0 0 
0 0 0 0 0 0 0 0 0 
0 0 0 0 0 0 0 0 0 
0 0 0 0 0 0 0 0 0 
0 0 0 0 0 0 0 0 0 
0 0 0 0 0 0 0 0 0 
0 0 0 0 0 0 0 0 0 
0 0 0 0 0 0 0 0 0 
0 0 0 0 0 0 0 0 0 
0 0 0 0 0 0 0 0 0 
0 0 0 0 0 0 0 0 0 
0 0 0 0 0 0 0 0 0 
0 0 0 0 0 0 0 0 0 
0 0 0 0 0 0 0 0 0 
0 0 0 0 0 0 0 0 0 
0 0 0 0 0 0 0 0 0 
0 0 0 0 0 0 0 0 0 
0 0 0 0 0 0 0 0 0 
0 0 0 0 0 0 0 0 0 
0 0 0 0 0 0 0 0 0 
0 0 0 0 0 0 0 0 0 
0 0 0 0 0 0 0 0 0 
0 0 0 0 0 0 0 0 0 
0 0 0 0 0 0 0 0 0 
0 0 0 0 0 0 0 0 0 
0 0 0 0 0 0 0 0 0 
0 0 0 0 0 0 0 0 0 
0 0 0 0 0 0 0 0 0 
0 0 0 0 0 0 0 0 0 
0 0 0 0 0 0 0 0 0 
0 0 0 0 0 0 0 0 0 
0 0 0 0 0 0 0 0 0 
0 0 0 0 0 0 0 0 0 
0 0 0 0 0 0 0 0 0 
0 0 0 0 0 0 0 0 0 
0 0 0 0 0 0 0 0 0 
0 0 0 0 0 0 0 0 0 
0 0 0 0 0 0 0 0 0 
0 0 0 0 0 0 0 0 0 
0 0 0 0 0 0 0 0 0 
0 0 0 0 0 0 0 0 0 
0 0 0 0 0 0 0 0 0 
0 0 0 0 0 0 0 0 0 
0 0 0 0 0 0 0 0 0 
0 0 0 0 0 0 0 0 0 
0 0 0 0 0 0 0 0 0 
0 0 0 0 0 0 0 0 0 
0 0 0 0 0 0 0 0 0 
0 0 0 0 0 0 0 0 0 
0 0 0 0 0 0 0 0 0 
0 0 0 0 0 0 0 0 0 
0 0 0 0 0 0 0 0 0 
0 0 0 0 0 0 0 0 0 
0 0 0 0 0 0 0 0 0 
0 0 0 0 0 0 0 0 0 
0 0 0 0 0 0 0 0 0 
0 0 0 0 0 0 0 0 0 
0 0 0 0 0 0 0 0 0 
0 0 0 0 0 0 0 0 0 
0 0 0 0 0 0 0 0 0 
0 0 0 0 0 0 0 0 0 
0 0 0 0 0 0 0 0 0 
0 0 0 0 0 0 0 0 0 
0 0 0 0 0 0 0 0 0 
0 0 0 0 0 0 0 0 0 
0 0 0 0 0 0 0 0 0 
0 0 0 0 0 0 0 0 0 
0 0 0 0 0 0 0 0 0 
0 0 0 0 0 0 0 0 0 
0 0 0 0 0 0 0 0 0 
0 0 0 0 0 0 0 0 0 
0 0 0 0 0 0 0 0 0 
0 0 0 0 0 0 0 0 0 
0 0 0 0 0 0 0 0 0 
0 0 0 0 0 0 0 0 0 
0 0 0 0 0 0 0 0 0 
0 0 0 0 0 0 0 0 0 
0 0 0 0 0 0 0 0 0 
0 0 0 0 0 0 0 0 0 
0 0 0 0 0 0 0 0 0 
0 0 0 0 0 0 0 0 0 
0 0 0 0 0 0 0 0 0 
0 0 0 0 0 0 0 0 0 
0 0 0 0 0 0 0 0 0 
0 0 0 0 0 0 0 0 0 
0 0 0 0 0 0 0 0 0 
0 0 0 0 0 0 0 0 0 
0 0 0 0 0 0 0 0 0 
0 0 0 0 0 0 0 0 0 
0 0 0 0 0 0 0 0 0 
0 0 0 0 0 0 0 0 0 
0 0 0 0 0 0 0 0 0 
0 0 0 0 0 0 0 0 0 
0 0 0 0 0 0 0 0 0 
0 0 0 0 0 0 0 0 0 
0 0 0 0 0 0 0 0 0 
0 0 0 0 0 0 0 0 0 
0 0 0 0 0 0 0 0 0 
0 0 0 0 0 0 0 0 0 
0 0 0 0 0 0 0 0 0 
0 0 0 0 0 0 0 0 0 
0 0 0 0 0 0 0 0 0 
0 0 0 0 0 0 0 0 0 
0 0 0 0 0 0 0 0 0 
0 0 0 0 0 0 0 0 0 
0 0 0 0 0 0 0 0 0 
0 0 0 0 0 0 0 0 0 
0 0 0 0 0 0 0 0 0 
0 0 0 0 0 0 0 0 0 
0 0 0 0 0 0 0 0 0 
0 0 0 0 0 0 0 0 0 
0 0 0 0 0 0 0 0 0 
0 0 0 0 0 0 0 0 0 
0 0 0 0 0 0 0 0 0 
0 0 0 0 0 0 0 0 0 
0 0 0 0 0 0 0 0 0 
0 0 0 0 0 0 0 0 0 
0 0 0 0 0 0 0 0 0 
0 0 0 0 0 0 0 0 0 
0 0 0 0 0 0 0 0 0 
0 0 0 0 0 0 0 0 0 
0 0 0 0 0 0 0 0 0 
0 0 0 0 0 0 0 0 0 
0 0 0 0 0 0 0 0 0 
0 0 0 0 0 0 0 0 0 
0 0 0 0 0 0 0 0 0 
0 0 0 0 0 0 0 0 0 
0 0 0 0 0 0 0 0 0 
0 0 0 0 0 0 0 0 0 
0 0 0 0 0 0 0 0 0 
0 0 0 0 0 0 0 0 0 
0 0 0 0 0 0 0 0 0 
0 0 0 0 0 0 0 0 0 
0 0 0 0 0 0 0 0 0 
0 0 0 0 0 0 0 0 0 
0 0 0 0 0 0 0 0 0 
0 0 0 0 0 0 0 0 0 
0 0 0 0 0 0 0 0 0 
0 0 0 0 0 0 0 0 0 
0 0 0 0 0 0 0 0 0 
0 0 0 0 0 0 0 0 0 
0 0 0 0 0 0 0 0 0 
0 0 0 0 0 0 0 0 0 
0 0 0 0 0 0 0 0 0 
0 0 0 0 0 0 0 0 0 
0 0 0 0 0 0 0 0 0 
0 0 0 0 0 0 0 0 0 
0 0 0 0 0 0 0 0 0 
0 0 0 0 0 0 0 0 0 
0 0 0 0 0 0 0 0 0 
0 0 0 0 0 0 0 0 0 
0 0 0 0 0 0 0 0 0 
0 0 0 0 0 0 0 0 0 
0 0 0 0 0 0 0 0 0 
0 0 0 0 0 0 0 0 0 
0 0 0 0 0 0 0 0 0 
0 0 0 0 0 0 0 0 0 
0 0 0 0 0 0 0 0 0 
0 0 0 0 0 0 0 0 0 
0 0 0 0 0 0 0 0 0 
0 0 0 0 0 0 0 0 0 
0 0 0 0 0 0 0 0 0 
0 0 0 0 0 0 0 0 0 
0 0 0 0 0 0 0 0 0 
0 0 0 0 0 0 0 0 0 
0 0 0 0 0 0 0 0 0 
0 0 0 0 0 0 0 0 0 
0 0 0 0 0 0 0 0 0 
0 0 0 0 0 0 0 0 0 
0 0 0 0 0 0 0 0 0 
0 0 0 0 0 0 0 0 0 
0 0 0 0 0 0 0 0 0 
0 0 0 0 0 0 0 0 0 
0 0 0 0 0 0 0 0 0 
0 0 0 0 0 0 0 0 0 
0 0 0 0 0 0 0 0 0 
0 0 0 0 0 0 0 0 0 
0 0 0 0 0 0 0 0 0 
0 0 0 0 0 0 0 0 0 
0 0 0 0 0 0 0 0 0 
0 0 0 0 0 0 0 0 0 
0 0 0 0 0 0 0 0 0 
0 0 0 0 0 0 0 0 0 
0 0 0 0 0 0 0 0 0 
0 0 0 0 0 0 0 0 0 
0 0 0 0 0 0 0 0 0 
0 0 0 0 0 0 0 0 0 
0 0 0 0 0 0 0 0 0 
0 0 0 0 0 0 0 0 0 
0 0 0 0 0 0 0 0 0 
0 0 0 0 0 0 0 0 0 
0 0 0 0 0 0 0 0 0 
0 0 0 0 0 0 0 0 0 
0 0 0 0 0 0 0 0 0 
0 0 0 0 0 0 0 0 0 
0 0 0 0 0 0 0 0 0 
0 0 0 0 0 0 0 0 0 
0 0 0 0 0 0 0 0 0 
0 0 0 0 0 0 0 0 0 
0 0 0 0 0 0 0 0 0 
0 0 0 0 0 0 0 0 0 
0 0 0 0 0 0 0 0 0 
0 0 0 0 0 0 0 0 0 
0 0 0 0 0 0 0 0 0 
0 0 0 0 0 0 0 0 0 
0 0 0 0 0 0 0 0 0 
0 0 0 0 0 0 0 0 0 
0 0 0 0 0 0 0 0 0 
0 0 0 0 0 0 0 0 0 
0 0 0 0 0 0 0 0 0 
0 0 0 0 0 0 0 0 0 
0 0 0 0 0 0 0 0 0 
0 0 0 0 0 0 0 0 0 
0 0 0 0 0 0 0 0 0 
0 0 0 0 0 0 0 0 0 
0 0 0 0 0 0 0 0 0 
0 0 0 0 0 0 0 0 0 
0 0 0 0 0 0 0 0 0 
0 0 0 0 0 0 0 0 0 
0 0 0 0 0 0 0 0 0 
0 0 0 0 0 0 0 0 0 
0 0 0 0 0 0 0 0 0 
0 0 0 0 0 0 0 0 0 
0 0 0 0 0 0 0 0 0 
0 0 0 0 0 0 0 0 0 
0 0 0 0 0 0 0 0 0 
0 0 0 0 0 0 0 0 0 
0 0 0 0 0 0 0 0 0 
0 0 0 0 0 0 0 0 0 
0 0 0 0 0 0 0 0 0 
0 0 0 0 0 0 0 0 0 
0 0 0 0 0 0 0 0 0 
0 0 0 0 0 0 0 0 0 
0 0 0 0 0 0 0 0 0 
0 0 0 0 0 0 0 0 0 
0 0 0 0 0 0 0 0 0 
0 0 0 0 0 0 0 0 0 
0 0 0 0 0 0 0 0 0 
0 0 0 0 0 0 0 0 0 
0 0 0 0 0 0 0 0 0 
0 0 0 0 0 0 0 0 0 
0 0 0 0 0 0 0 0 0 
0 0 0 0 0 0 0 0 0 
0 0 0 0 0 0 0 0 0 
0 0 0 0 0 0 0 0 0 
0 0 0 0 0 0 0 0 0 
0 0 0 0 0 0 0 0 0 
0 0 0 0 0 0 0 0 0 
0 0 0 0 0 0 0 0 0 
0 0 0 0 0 0 0 0 0 
0 0 0 0 0 0 0 0 0 
0 0 0 0 0 0 0 0 0 
0 0 0 0 0 0 0 0 0 
0 0 0 0 0 0 0 0 0 
0 0 0 0 0 0 0 0 0 
0 0 0 0 0 0 0 0 0 
0 0 0 0 0 0 0 0 0 
0 0 0 0 0 0 0 0 0 
0 0 0 0 0 0 0 0 0 
0 0 0 0 0 0 0 0 0 
0 0 0 0 0 0 0 0 0 
0 0 0 0 0 0 0 0 0 
0 0 0 0 0 0 0 0 0 
0 0 0 0 0 0 0 0 0 
0 0 0 0 0 0 0 0 0 
0 0 0 0 0 0 0 0 0 
0 0 0 0 0 0 0 0 0 
0 0 0 0 0 0 0 0 0 
0 0 0 0 0 0 0 0 0 
0 0 0 0 0 0 0 0 0 
0 0 0 0 0 0 0 0 0 
0 0 0 0 0 0 0 0 0 
0 0 0 0 0 0 0 0 0 
0 0 0 0 0 0 0 0 0 
0 0 0 0 0 0 0 0 0 
0 0 0 0 0 0 0 0 0 
0 0 0 0 0 0 0 0 0 
0 0 0 0 0 0 0 0 0 
0 0 0 0 0 0 0 0 0 
0 0 0 0 0 0 0 0 0 
0 0 0 0 0 0 0 0 0 
0 0 0 0 0 0 0 0 0 
0 0 0 0 0 0 0 0 0 
0 0 0 0 0 0 0 0 0 
0 0 0 0 0 0 0 0 0 
0 0 0 0 0 0 0 0 0 
0 0 0 0 0 0 0 0 0 
0 0 0 0 0 0 0 0 0 
0 0 0 0 0 0 0 0 0 
0 0 0 0 0 0 0 0 0 
0 0 0 0 0 0 0 0 0 
0 0 0 0 0 0 0 0 0 
0 0 0 0 0 0 0 0 0 
0 0 0 0 0 0 0 0 0 
0 0 0 0 0 0 0 0 0 
0 0 0 0 0 0 0 0 0 
0 0 0 0 0 0 0 0 0 
0 0 0 0 0 0 0 0 0 
0 0 0 0 0 0 0 0 0 
0 0 0 0 0 0 0 0 0 
0 0 0 0 0 0 0 0 0 
0 0 0 0 0 0 0 0 0 
0 0 0 0 0 0 0 0 0 
0 0 0 0 0 0 0 0 0 
0 0 0 0 0 0 0 0 0 
0 0 0 0 0 0 0 0 0 
0 0 0 0 0 0 0 0 0 
0 0 0 0 0 0 0 0 0 
0 0 0 0 0 0 0 0 0 
0 0 0 0 0 0 0 0 0 
0 0 0 0 0 0 0 0 0 
0 0 0 0 0 0 0 0 0 
0 0 0 0 0 0 0 0 0 
0 0 0 0 0 0 0 0 0 
0 0 0 0 0 0 0 0 0 
0 0 0 0 0 0 0 0 0 
0 0 0 0 0 0 0 0 0 
0 0 0 0 0 0 0 0 0 
0 0 0 0 0 0 0 0 0 
0 0 0 0 0 0 0 0 0 
0 0 0 0 0 0 0 0 0 
0 0 0 0 0 0 0 0 0 
0 0 0 0 0 0 0 0 0 
0 0 0 0 0 0 0 0 0 
0 0 0 0 0 0 0 0 0 
0 0 0 0 0 0 0 0 0 
0 0 0 0 0 0 0 0 0 
0 0 0 0 0 0 0 0 0 
0 0 0 0 0 0 0 0 0 
0 0 0 0 0 0 0 0 0 
0 0 0 0 0 0 0 0 0 
0 0 0 0 0 0 0 0 0 
0 0 0 0 0 0 0 0 0 
0 0 0 0 0 0 0 0 0 
0 0 0 0 0 0 0 0 0 
0 0 0 0 0 0 0 0 0 
0 0 0 0 0 0 0 0 0 
0 0 0 0 0 0 0 0 0 
0 0 0 0 0 0 0 0 0 
0 0 0 0 0 0 0 0 0 
0 0 0 0 0 0 0 0 0 
0 0 0 0 0 0 0 0 0 
0 0 0 0 0 0 0 0 0 
0 0 0 0 0 0 0 0 0 
0 0 0 0 0 0 0 0 0 
0 0 0 0 0 0 0 0 0 
0 0 0 0 0 0 0 0 0 
0 0 0 0 0 0 0 0 0 
0 0 0 0 0 0 0 0 0 
0 0 0 0 0 0 0 0 0 
0 0 0 0 0 0 0 0 0 
0 0 0 0 0 0 0 0 0 
0 0 0 0 0 0 0 0 0 
0 0 0 0 0 0 0 0 0 
0 0 0 0 0 0 0 0 0 
0 0 0 0 0 0 0 0 0 
0 0 0 0 0 0 0 0 0 
0 0 0 0 0 0 0 0 0 
0 0 0 0 0 0 0 0 0 
0 0 0 0 0 0 0 0 0 
0 0 0 0 0 0 0 0 0 
0 0 0 0 0 0 0 0 0 
0 0 0 0 0 0 0 0 0 
0 0 0 0 0 0 0 0 0 
0 0 0 0 0 0 0 0 0 
0 0 0 0 0 0 0 0 0 
0 0 0 0 0 0 0 0 0 
0 0 0 0 0 0 0 0 0 
0 0 0 0 0 0 0 0 0 
0 0 0 0 0 0 0 0 0 
0 0 0 0 0 0 0 0 0 
0 0 0 0 0 0 0 0 0 
0 0 0 0 0 0 0 0 0 
0 0 0 0 0 0 0 0 0 
0 0 0 0 0 0 0 0 0 
0 0 0 0 0 0 0 0 0 
0 0 0 0 0 0 0 0 0 
0 0 0 0 0 0 0 0 0 
0 0 0 0 0 0 0 0 0 
0 0 0 0 0 0 0 0 0 
0 0 0 0 0 0 0 0 0 
0 0 0 0 0 0 0 0 0 
0 0 0 0 0 0 0 0 0 
0 0 0 0 0 0 0 0 0 
0 0 0 0 0 0 0 0 0 
0 0 0 0 0 0 0 0 0 
0 0 0 0 0 0 0 0 0 
0 0 0 0 0 0 0 0 0 
0 0 0 0 0 0 
v 3 1355 double
-0.000422468 0.000236995 0.00023207 -0.000443383 -5.11831e-05 0.00113513 -0.000778259 -0.000388696 0.000700385 
-0.00146708 -0.000314177 -0.00112131 -0.00181436 -0.00137272 -0.000692581 -4.38736e-05 -0.00211144 -0.0029161 
0.0018218 -0.000777959 -0.00161692 -0.0027185 0.000703351 0.00349058 -0.00141136 0.00238579 -0.00234557 
0.00216946 0.0168092 -0.00559164 -0.000601395 -0.000349634 -0.00160313 -0.000275975 -0.000935457 -0.00099011 
0.000122503 -0.00186167 0.001353 0.00202856 0.000667983 0.0016198 0.00347215 -0.00325766 -0.000575274 
0.00474358 0.00120763 -0.000371186 0.00357024 -0.00185861 1.01198e-05 -0.000734633 -0.00146517 -0.0019428 
-0.00148638 -0.00042007 0.000408397 -0.00107163 -0.000335617 0.00134389 -0.000456341 0.000172514 0.000251931 
-0.000100682 9.47983e-06 0.000166334 -0.000361922 -0.000380758 -0.00043318 -9.21195e-05 -0.000164732 0.000171068 
-0.00142592 0.000707967 0.00228791 -0.00205827 -0.00105761 -0.00109365 -0.00374434 -0.00114728 -0.00347143 
-0.000308422 -0.00543565 -0.00415417 0.00183167 -0.0100246 -0.000275863 -0.00309414 0.0267642 0.00453123 
0.00477324 0.00727497 0.00856268 0.00310761 0.00563947 0.00238526 -0.000627412 -6.57752e-05 -0.00555157 
-0.000697604 -0.00220639 -0.00234624 0.000684439 -0.00507192 0.00233009 0.00295228 -0.00116628 0.003251 
0.00355684 -0.00067617 -0.00232157 0.00287338 -0.00505998 -0.00296263 0.000133028 -0.00135641 -0.00182099 
-0.000922037 -0.000349461 0.000172827 -0.00199853 -0.00107005 0.00175037 -0.000738257 -0.000798677 0.000586267 
-0.000146279 0.000173925 4.08096e-05 -0.000388896 -0.000145163 0.000216308 -0.00113623 -0.000723422 -0.00036166 
-0.00191996 -0.000232491 2.1543e-05 -0.0028879 0.00202409 0.000887417 -0.00869411 -0.00209451 0.000851029 
-0.00460153 0.000244762 -0.0014853 -0.00554553 -0.00195367 0.000932241 -0.015753 -0.00192166 0.00218598 
0.00340063 0.00742346 0.0131094 0.00162417 -0.00084206 0.017831 -0.00810354 0.0211123 -0.00544212 
-0.00426431 -0.00417556 -0.00436469 7.87315e-05 -0.00353966 0.00510604 0.00409385 -0.00226973 0.00178093 
-0.0179608 -0.00369306 -0.00325142 0.00155089 -0.00390115 0.00230776 0.00157493 -0.00394389 0.00679467 
-0.00286864 -0.0071927 0.000534904 -0.00134502 -0.000611722 0.00237064 0.000794628 -0.000658631 0.00164703 
0.000471293 -0.00134067 0.00127172 -0.0004908 0.000728704 0.000123125 -0.000346465 -0.000114313 0.000332762 
-0.000725129 -0.000714581 0.000425069 -0.00215245 2.64793e-05 0.000535644 -0.00511173 -0.000618534 0.000496132 
-0.00866894 -0.00217918 -0.000624802 -0.00647924 0.000237522 0.000427353 0.00057866 0.000540411 0.00213667 