# vtk DataFile Version 4.0
Generated by LIGGGHTS
ASCII
DATASET POLYDATA
POINTS 1355 float
-0.903931 -0.46099 -0.460095 -0.786403 -0.456423 -0.460112 -0.707071 -0.460513 -0.459589 
-0.628379 -0.460297 -0.460825 -0.547481 -0.460849 -0.46012 -0.436246 -0.461037 -0.460045 
-0.356439 -0.45928 -0.460658 -0.245208 -0.456909 -0.460592 -0.161072 -0.460411 -0.460127 
-0.0475832 -0.46009 -0.458495 0.0576473 -0.459749 -0.459726 0.212456 -0.457121 -0.460883 
0.290943 -0.451745 -0.456248 0.369765 -0.460883 -0.45997 0.468652 -0.459364 -0.460267 
0.578039 -0.460087 -0.461199 0.65734 -0.459949 -0.460731 0.736887 -0.459775 -0.460034 
0.816305 -0.460618 -0.459555 0.90456 -0.460103 -0.460522 -0.962331 -0.406313 -0.46088 
-0.89304 -0.372202 -0.462361 -0.743658 -0.389699 -0.460161 -0.664769 -0.382708 -0.460386 
-0.588979 -0.396982 -0.43502 -0.491445 -0.404231 -0.460303 -0.412433 -0.385814 -0.460108 
-0.320808 -0.385914 -0.460012 -0.18517 -0.384418 -0.461057 -0.101214 -0.40038 -0.46083 
-0.0163148 -0.384896 -0.460753 0.125677 -0.41681 -0.457615 0.258797 -0.366143 -0.460949 
0.338255 -0.38661 -0.460473 0.418333 -0.397922 -0.460262 0.52265 -0.402411 -0.460842 
0.6168 -0.389942 -0.460789 0.697033 -0.390714 -0.459496 0.77668 -0.390269 -0.458322 
0.85846 -0.393989 -0.461792 0.960869 -0.403009 -0.461049 -0.959007 -0.328042 -0.456822 
-0.815385 -0.357547 -0.460059 -0.765512 -0.298119 -0.460926 -0.547157 -0.334393 -0.460235 
-0.468609 -0.328276 -0.460435 -0.391045 -0.309942 -0.460476 -0.252919 -0.343361 -0.460468 
-0.113778 -0.32064 -0.458721 -0.0135527 -0.294586 -0.460095 0.0621658 -0.336316 -0.460778 
0.164607 -0.329109 -0.461556 0.315209 -0.309423 -0.460241 0.394843 -0.320783 -0.460558 
0.471375 -0.338543 -0.460819 0.561244 -0.333076 -0.459683 0.657171 -0.321142 -0.460615 
0.736755 -0.320904 -0.46044 0.809064 -0.300682 -0.434534 0.881779 -0.318 -0.460336 
0.960771 -0.324163 -0.461232 -0.922363 -0.257927 -0.461357 -0.84208 -0.273874 -0.461454 
-0.718755 -0.239478 -0.439712 -0.665154 -0.297023 -0.460993 -0.538649 -0.255529 -0.461415 
-0.459905 -0.248886 -0.459942 -0.313175 -0.29293 -0.459925 -0.192865 -0.291907 -0.460509 
-0.134313 -0.239342 -0.460476 0.0366908 -0.233171 -0.460128 0.109191 -0.267193 -0.460025 
0.235187 -0.290564 -0.461375 0.476871 -0.259354 -0.460218 0.563159 -0.254003 -0.460702 
0.67174 -0.242086 -0.460586 0.759439 -0.242741 -0.460438 0.868375 -0.240675 -0.460615 
0.948648 -0.24595 -0.459627 -0.953643 -0.178678 -0.461861 -0.870288 -0.196005 -0.460657 
-0.792427 -0.212339 -0.460594 -0.648774 -0.209158 -0.46115 -0.507812 -0.188823 -0.434267 
-0.435789 -0.171221 -0.460538 -0.381671 -0.230998 -0.460349 -0.303405 -0.213904 -0.457289 
-0.225461 -0.19682 -0.460614 -0.0493438 -0.215778 -0.461787 0.0891505 -0.169114 -0.461272 
0.182658 -0.231256 -0.460656 0.305138 -0.228393 -0.46018 0.388117 -0.210713 -0.460618 
0.488856 -0.162597 -0.460883 0.56735 -0.174394 -0.461443 0.722473 -0.172234 -0.461143 
0.812171 -0.183951 -0.460574 0.959854 -0.166578 -0.461597 -0.885227 -0.117249 -0.459837 
-0.800379 -0.130425 -0.459765 -0.729427 -0.164741 -0.460959 -0.619199 -0.133555 -0.460831 
-0.541182 -0.119193 -0.459689 -0.357963 -0.156245 -0.449462 -0.281429 -0.137508 -0.4607 
-0.155159 -0.159351 -0.460211 -0.069207 -0.138067 -0.460858 0.00739978 -0.158958 -0.460213 
0.128225 -0.100059 -0.460483 0.25332 -0.16627 -0.460323 0.333024 -0.153188 -0.460002 
0.413889 -0.134975 -0.461415 0.645252 -0.166314 -0.443836 0.784316 -0.109376 -0.460452 
0.881529 -0.141461 -0.460358 -0.961257 -0.0938581 -0.460289 -0.913892 -0.0305144 -0.461536 
-0.83691 -0.0543246 -0.461147 -0.757585 -0.0572323 -0.460595 -0.688458 -0.0971167 -0.460247 
-0.562171 -0.0424157 -0.460159 -0.483164 -0.0501468 -0.460887 -0.41638 -0.0936561 -0.460945 
-0.33751 -0.0802648 -0.460457 -0.214278 -0.0950883 -0.460407 -0.142071 -0.0627062 -0.457704 
-0.0156924 -0.0698694 -0.459483 0.0633367 -0.053967 -0.460739 0.206936 -0.0843417 -0.460305 
0.286617 -0.0880648 -0.460428 0.362249 -0.0756954 -0.437735 0.439296 -0.059078 -0.46021 
0.522076 -0.090656 -0.459526 0.600238 -0.1022 -0.458649 0.711764 -0.0774125 -0.461286 
0.819539 -0.0377198 -0.460415 0.899964 -0.0325871 -0.458914 0.959612 -0.0847742 -0.457384 
-0.961235 0.0341552 -0.456021 -0.820299 0.0228328 -0.459861 -0.741379 0.0199919 -0.461416 
-0.673213 -0.0203352 -0.461545 -0.398097 -0.015678 -0.460661 -0.295888 -0.0131644 -0.460904 
-0.216102 -0.0157285 -0.46044 -0.147043 0.0254929 -0.459583 -0.0778423 -0.0167341 -0.460796 
-0.00227121 0.0088134 -0.459789 0.0760109 0.0263038 -0.46178 0.140661 -0.0212808 -0.460645 
0.219116 -0.00527558 -0.460952 0.299715 -0.00930451 -0.459001 0.379842 -0.000178437 -0.460436 
0.459012 0.0178861 -0.46035 0.565194 -0.0234207 -0.460363 0.644163 -0.0363986 -0.460337 
0.746577 -0.00555001 -0.459541 0.958762 0.0250583 -0.460149 -0.889241 0.0678013 -0.461806 
-0.717171 0.0959058 -0.4603 -0.637565 0.0769428 -0.46074 -0.546249 0.0353776 -0.460386 
-0.46651 0.0268101 -0.458546 -0.348177 0.0511341 -0.460889 -0.26359 0.0613637 -0.460218 
-0.189264 0.0929432 -0.461703 -0.075536 0.0619729 -0.459626 -0.000696233 0.0879125 -0.460988 
0.159625 0.0562119 -0.460609 0.287795 0.0698728 -0.460864 0.407069 0.0797134 -0.460043 
0.678263 0.0351987 -0.459918 0.740909 0.0841088 -0.460825 0.812319 0.0417247 -0.460018 
0.89515 0.0767742 -0.460427 -0.959946 0.116755 -0.459167 -0.865526 0.145381 -0.458299 
-0.798154 0.102502 -0.461982 -0.634876 0.156762 -0.46047 -0.566496 0.114048 -0.460464 
-0.499984 0.158733 -0.459901 -0.383631 0.126881 -0.460649 -0.302719 0.133467 -0.460328 
-0.115939 0.129221 -0.46036 -0.0357827 0.160859 -0.461525 0.0943197 0.107903 -0.460082 
0.207035 0.120768 -0.460383 0.269551 0.170007 -0.46065 0.343265 0.127132 -0.458782 
0.43143 0.156935 -0.460384 0.499747 0.107378 -0.460398 0.579502 0.110876 -0.460453 
0.659464 0.113537 -0.460001 0.759663 0.161355 -0.461173 0.827819 0.119746 -0.460622 
0.960271 0.123942 -0.459875 -0.957775 0.197987 -0.444924 -0.8672 0.226907 -0.460364 
-0.793175 0.198376 -0.451294 -0.71537 0.176521 -0.460432 -0.427603 0.193029 -0.454891 
-0.346721 0.199571 -0.461336 -0.227436 0.178802 -0.460394 -0.150326 0.20044 -0.461008 
0.0536762 0.201657 -0.460639 0.145826 0.171147 -0.460793 0.208802 0.221969 -0.461111 
0.341425 0.206178 -0.459711 0.464961 0.232439 -0.459673 0.526834 0.182077 -0.460804 
0.606581 0.185617 -0.461108 0.686005 0.191864 -0.460961 0.822155 0.210439 -0.45877 
0.890538 0.168411 -0.46133 0.960535 0.205581 -0.456343 -0.96086 0.277266 -0.447922 
-0.818768 0.292869 -0.458835 -0.738326 0.254777 -0.461136 -0.612757 0.247222 -0.461024 
-0.514317 0.239652 -0.459437 -0.392543 0.26477 -0.46083 -0.278255 0.239636 -0.460465 
-0.171853 0.27596 -0.460651 -0.0740184 0.242159 -0.460772 0.01617 0.272339 -0.46011 
0.119891 0.252086 -0.461134 0.280717 0.258403 -0.459961 0.393322 0.266435 -0.459679 
0.584901 0.267407 -0.460579 0.666645 0.269826 -0.459169 0.748747 0.240601 -0.460634 
0.892216 0.247512 -0.461474 0.961498 0.286212 -0.460406 -0.962184 0.358414 -0.456162 
-0.893362 0.317215 -0.460302 -0.749982 0.333228 -0.460608 -0.662898 0.308296 -0.461261 
-0.572159 0.315633 -0.460053 -0.462928 0.338073 -0.459404 -0.324307 0.31129 -0.460926 
-0.245655 0.320349 -0.460035 -0.124476 0.342708 -0.460256 -0.0490921 0.316932 -0.46042 
0.0790575 0.321567 -0.459628 0.159008 0.322238 -0.460514 0.237948 0.325509 -0.461224 
0.331613 0.320744 -0.460683 0.425358 0.339857 -0.460172 0.512487 0.305554 -0.460025 
0.624632 0.338959 -0.46068 0.735051 0.318758 -0.460258 0.818597 0.311348 -0.460375 
0.897097 0.329849 -0.460993 -0.893482 0.400397 -0.460506 -0.776235 0.406576 -0.44126 
-0.688061 0.383789 -0.46046 -0.606329 0.387082 -0.46119 -0.525297 0.388237 -0.459397 
-0.416005 0.402319 -0.460667 -0.292928 0.385924 -0.460061 -0.195739 0.382729 -0.461491 
-0.0553052 0.395926 -0.460016 0.0346064 0.393222 -0.460593 0.118933 0.391712 -0.461233 
0.19864 0.394122 -0.459835 0.2868 0.389407 -0.45938 0.366311 0.392752 -0.459775 
0.469358 0.406339 -0.461765 0.552449 0.380234 -0.459166 0.693936 0.387263 -0.460514 
0.773431 0.38935 -0.460944 0.852514 0.393636 -0.462112 -0.947045 0.458167 -0.460188 
-0.830016 0.461287 -0.462391 -0.720019 0.459358 -0.460008 -0.640039 0.460629 -0.460511 
-0.56126 0.459858 -0.455153 -0.47763 0.458524 -0.460438 -0.349577 0.455366 -0.460296 
-0.265043 0.460855 -0.460425 -0.180337 0.460482 -0.460694 -0.101356 0.46063 -0.461676 
-0.0093712 0.46034 -0.453304 0.0776447 0.460346 -0.460248 0.157526 0.461111 -0.460869 
0.245215 0.459726 -0.460509 0.324837 0.460331 -0.459254 0.410792 0.460071 -0.460325 
0.526323 0.460645 -0.459865 0.656597 0.459367 -0.460378 0.735943 0.460047 -0.460692 
0.814434 0.461458 -0.460158 0.893481 0.460962 -0.460517 -0.962012 -0.4609 -0.404752 
-0.890135 -0.461081 -0.373273 -0.745878 -0.458211 -0.390432 -0.634989 -0.460148 -0.381595 
-0.556489 -0.459886 -0.379292 -0.47792 -0.459658 -0.388393 -0.383621 -0.453812 -0.386262 
-0.303537 -0.444764 -0.403217 -0.196514 -0.460548 -0.388964 -0.116749 -0.460348 -0.392876 
0.00466252 -0.460517 -0.399189 0.0841712 -0.459942 -0.382993 0.16192 -0.460014 -0.400386 
0.248755 -0.459008 -0.387672 0.33045 -0.460915 -0.38719 0.415814 -0.460679 -0.395443 
0.527341 -0.460683 -0.401285 0.626103 -0.456953 -0.388982 0.708322 -0.455919 -0.383675 
0.862342 -0.458589 -0.393561 0.960033 -0.457428 -0.403592 -0.845327 -0.420687 -0.423118 
-0.78487 -0.380831 -0.389792 -0.689352 -0.401681 -0.382051 -0.514714 -0.388398 -0.385915 
-0.435182 -0.391682 -0.376291 -0.240974 -0.397257 -0.403243 -0.157195 -0.390664 -0.387186 
-0.0566596 -0.408516 -0.396002 0.0459728 -0.393917 -0.408876 0.195482 -0.39005 -0.42037 
0.290248 -0.392358 -0.392952 0.373316 -0.394151 -0.389012 0.471121 -0.405883 -0.399407 
0.573328 -0.395706 -0.394663 0.66161 -0.367087 -0.393487 0.820532 -0.391472 -0.391992 
0.907597 -0.391073 -0.399086 -0.954809 -0.362817 -0.383837 -0.87732 -0.319577 -0.407949 
-0.715338 -0.334717 -0.411762 -0.634492 -0.340157 -0.401624 -0.556931 -0.319203 -0.382683 
[...]
POINT_DATA 1355
FIELD FieldData 7
id 1 1355 int
366 408 584 322 662 206 563 371 419 
523 145 585 151 530 365 186 620 156 
70 664 692 632 759 714 370 120 208 
723 59 512 347 607 457 20 256 338 
470 195 678 320 643 534 196 314 493 
581 542 514 234 498 708 214 305 529 
396 291 444 367 684 476 155 724 171 
136 105 375 250 442 245 95 76 54 
280 75 623 109 184 446 647 159 267 
289 373 324 96 62 533 376 589 722 
200 431 576 298 202 683 676 680 445 
83 641 185 331 99 458 575 40 57 
88 543 31 281 572 300 48 521 143 
531 428 254 592 758 361 412 14 689 
312 252 153 397 483 170 704 126 140 
700 378 726 459 142 351 651 433 92 
690 382 437 359 154 569 304 439 339 
720 639 321 177 240 310 51 182 6 
528 323 121 129 507 423 495 224 612 
461 166 460 97 537 127 258 85 544 
293 697 634 104 602 742 161 167 32 
191 384 25 671 74 278 383 71 596 
266 19 22 627 717 162 348 247 613 
125 578 199 294 586 640 675 441 637 
149 475 463 387 269 130 8 218 748 
420 663 16 402 682 421 715 649 9 
299 698 747 261 622 355 571 411 42 
416 227 391 527 557 346 67 274 319 
242 73 766 409 535 89 4 260 318 
650 388 311 94 618 39 582 53 673 
729 3 496 363 201 188 599 670 228 
519 667 472 669 660 646 654 43 230 
226 306 427 316 614 329 545 179 389 
12 453 440 197 452 90 551 686 38 
587 285 725 743 181 518 761 513 559 
72 336 116 78 628 131 679 435 211 
276 516 47 233 325 223 666 5 157 
205 175 287 82 221 56 751 736 426 
712 611 302 413 473 108 118 653 18 
15 721 552 307 272 100 87 343 532 
490 642 219 601 593 110 438 372 767 
631 255 275 699 550 80 357 313 645 
556 511 114 757 144 81 668 58 615 
399 616 558 189 407 36 462 597 394 
565 239 554 29 248 334 570 424 286 
24 447 364 192 478 566 492 718 169 
497 540 33 282 422 11 502 541 395 
46 106 345 183 60 236 44 112 429 
479 45 694 326 352 746 21 629 549 
369 415 711 137 271 2 524 111 102 
381 590 539 216 733 147 194 148 580 
172 101 443 28 738 710 146 474 288 
180 482 193 374 436 638 450 253 425 
93 928 91 215 505 403 232 520 277 
591 84 133 626 49 350 762 546 41 
970 392 231 135 209 574 308 328 703 
432 296 393 284 687 469 681 400 648 
190 128 709 610 251 760 35 665 122 
503 750 488 259 480 508 26 113 608 
123 222 464 340 456 417 17 292 138 
430 246 98 448 283 404 178 244 132 
63 583 69 262 600 1165 418 763 499 
553 229 494 385 617 672 467 119 755 
481 727 526 390 210 764 217 573 871 
354 158 510 604 386 739 466 890 500 
658 337 225 1166 249 567 1184 66 769 
468 781 927 735 959 103 273 1154 685 
933 814 921 414 784 173 455 943 504 
268 935 910 362 619 903 744 688 652 
867 741 410 973 951 963 770 1170 360 
696 779 176 207 241 702 290 465 907 
454 812 603 265 754 879 914 829 636 
295 187 952 838 870 279 509 124 79 
691 792 335 974 406 944 848 644 341 
379 707 489 491 765 349 901 655 471 
734 824 919 786 981 882 356 939 165 
855 141 577 30 501 204 674 536 886 
486 621 918 895 962 487 358 795 731 
800 309 50 605 568 86 630 953 434 
677 892 52 801 818 134 27 301 776 
633 990 911 160 332 522 484 815 401 
34 548 243 198 737 657 954 922 656 
888 730 827 752 775 840 790 150 560 
783 327 695 477 23 538 220 887 203 
10 333 380 929 876 515 791 65 874 
77 342 719 107 13 804 706 398 965 
859 896 869 872 330 873 598 822 955 
713 237 659 1 139 61 960 777 917 
37 55 606 1156 971 856 115 506 909 
813 821 564 405 263 850 174 609 912 
773 891 303 785 297 830 625 353 771 
772 257 913 562 845 880 451 949 885 
117 525 740 213 68 547 661 449 152 
753 701 594 923 315 579 377 485 212 
728 878 938 561 270 906 1178 7 793 
986 1159 1123 1035 1093 930 809 1066 1152 
925 988 1076 825 1006 1049 1133 1000 787 
868 831 1051 958 1112 1173 1003 1167 849 
768 1032 846 749 1058 1288 1061 826 1145 
828 235 1125 1115 875 1028 1147 832 1086 
847 1186 1091 993 1097 1255 1062 1162 808 
937 995 982 1054 950 932 865 1021 1189 
857 1187 317 985 972 732 936 964 1188 
806 780 789 904 1008 851 1020 1111 1138 
992 1174 797 1105 820 1052 1089 842 1065 
1075 969 1023 1130 1135 894 1077 834 861 
978 924 1183 916 1284 1119 1082 807 980 
782 908 967 1016 839 1012 905 947 1078 
805 931 1027 799 164 1182 975 862 836 
1037 1122 810 893 926 977 794 835 1010 
987 1069 1017 968 1109 819 997 843 837 
899 1171 1085 852 948 555 1096 803 1057 
983 860 1128 774 889 841 864 934 1177 
798 811 796 1148 1042 716 595 994 1041 
1101 1180 1025 1163 1074 966 344 1137 1053 
1124 1019 1063 1011 778 900 877 884 1131 
853 1060 858 989 945 940 1136 1181 1024 
898 368 881 854 1134 1102 996 942 1169 
168 863 816 897 1001 1059 635 64 979 
588 817 984 957 238 517 961 624 693 
1140 941 866 823 1143 956 1141 163 1116 
1079 1149 1279 1151 1330 1267 1233 1302 1226 
1231 844 1107 1197 1312 1211 1113 1193 1110 
1303 1185 1249 1031 802 1347 1344 1036 999 
1266 1160 1210 1073 1071 1217 1316 1285 1099 
1022 1015 1224 1106 1295 1144 1056 1034 1322 
1215 1129 1354 1246 902 1139 1346 1014 1283 
1202 1103 1350 1047 1213 1315 1172 1158 1050 
1304 1341 1201 1343 1263 1087 833 1348 1013 
1067 1270 1179 1095 1326 1352 1048 1083 1026 
1223 1018 1108 1308 1319 1273 1274 1258 1176 
1114 1242 1253 1150 1220 1216 1039 1044 1088 
1081 1311 1033 1046 915 1236 1259 1100 1203 
1009 1260 1345 1104 1164 1271 1092 1127 1153 
1198 1080 1175 1265 1309 946 1280 1293 1204 
1248 1191 1289 1168 1222 1207 1007 1043 1328 
1072 1351 1055 1126 1118 1094 998 1300 1029 
1090 1155 1038 1244 1045 1002 991 1261 1230 
1256 976 1195 1355 1264 1225 1287 1239 1212 
1117 1068 1254 1353 1146 1157 1310 1313 1064 
1262 1070 1120 1340 1337 788 1307 1161 1098 
1040 756 1142 883 1132 1004 1121 1252 1243 
1190 1334 745 1327 1290 1299 1305 1238 1247 
1339 1306 1275 1276 1329 1251 1291 1005 1221 
1297 1321 1325 1237 1323 1194 1199 1235 1228 
1192 1205 1317 1331 1209 1342 1292 1219 1084 
1286 1296 1294 1214 1227 1282 1333 1349 1269 
1278 1234 1301 1218 1272 1240 1196 1268 1324 
1320 1298 1241 1338 1245 1277 1281 1332 1232 
1229 1200 1336 1318 1257 920 705 1208 1206 
1030 264 1250 1335 1314 
type 1 1355 int
1 1 1 1 1 1 1 1 1 
1 1 1 1 1 1 1 1 1 
1 1 1 1 1 1 1 1 1 
1 1 1 1 1 1 1 1 1 
1 1 1 1 1 1 1 1 1 
1 1 1 1 1 1 1 1 1 
1 1 1 1 1 1 1 1 1 
1 1 1 1 1 1 1 1 1 
1 1 1 1 1 1 1 1 1 
1 1 1 1 1 1 1 1 1 
1 1 1 1 1 1 1 1 1 
1 1 1 1 1 1 1 1 1 
1 1 1 1 1 1 1 1 1 
1 1 1 1 1 1 1 1 1 
1 1 1 1 1 1 1 1 1 
1 1 1 1 1 1 1 1 1 
1 1 1 1 1 1 1 1 1 
1 1 1 1 1 1 1 1 1 
1 1 1 1 1 1 1 1 1 
1 1 1 1 1 1 1 1 1 
1 1 1 1 1 1 1 1 1 
1 1 1 1 1 1 1 1 1 
1 1 1 1 1 1 1 1 1 
1 1 1 1 1 1 1 1 1 
1 1 1 1 1 1 1 1 1 
1 1 1 1 1 1 1 1 1 
1 1 1 1 1 1 1 1 1 
1 1 1 1 1 1 1 1 1 
1 1 1 1 1 1 1 1 1 
1 1 1 1 1 1 1 1 1 
1 1 1 1 1 1 1 1 1 
1 1 1 1 1 1 1 1 1 
1 1 1 1 1 1 1 1 1 
1 1 1 1 1 1 1 1 1 
1 1 1 1 1 1 1 1 1 
1 1 1 1 1 1 1 1 1 
1 1 1 1 1 1 1 1 1 
1 1 1 1 1 1 1 1 1 
1 1 1 1 1 1 1 1 1 
1 1 1 1 1 1 1 1 1 
1 1 1 1 1 1 1 1 1 
1 1 1 1 1 1 1 1 1 
1 1 1 1 1 1 1 1 1 
1 1 1 1 1 1 1 1 1 
1 1 1 1 1 1 1 1 1 
1 1 1 1 1 1 1 1 1 
1 1 1 1 1 1 1 1 1 
1 1 1 1 1 1 1 1 1 
1 1 1 1 1 1 1 1 1 
1 1 1 1 1 1 1 1 1 
1 1 1 1 1 1 1 1 1 
1 1 1 1 1 1 1 1 1 
1 1 1 1 1 1 1 1 1 
1 1 1 1 1 1 1 1 1 
1 1 1 1 1 1 1 1 1 
1 1 1 1 1 1 1 1 1 
1 1 1 1 1 1 1 1 1 
1 1 1 1 1 1 1 1 1 
1 1 1 1 1 1 1 1 1 
1 1 1 1 1 1 1 1 1 
1 1 1 1 1 1 1 1 1 
1 1 1 1 1 1 1 1 1 
1 1 1 1 1 1 1 1 1 
1 1 1 1 1 1 1 1 1 
1 1 1 1 1 1 1 1 1 
1 1 1 1 1 1 1 1 1 
1 1 1 1 1 1 1 1 1 
1 1 1 1 1 1 1 1 1 
1 1 1 1 1 1 1 1 1 
1 1 1 1 1 1 1 1 1 
1 1 1 1 1 1 1 1 1 
1 1 1 1 1 1 1 1 1 
1 1 1 1 1 1 1 1 1 
1 1 1 1 1 1 1 1 1 
1 1 1 1 1 1 1 1 1 
1 1 1 1 1 1 1 1 1 
1 1 1 1 1 1 1 1 1 
1 1 1 1 1 1 1 1 1 
1 1 1 1 1 1 1 1 1 
1 1 1 1 1 1 1 1 1 
1 1 1 1 1 1 1 1 1 
1 1 1 1 1 1 1 1 1 
1 1 1 1 1 1 1 1 1 
1 1 1 1 1 1 1 1 1 
1 1 1 1 1 1 1 1 1 
1 1 1 1 1 1 1 1 1 
1 1 1 1 1 1 1 1 1 
1 1 1 1 1 1 1 1 1 
1 1 1 1 1 1 1 1 1 
1 1 1 1 1 1 1 1 1 
1 1 1 1 1 1 1 1 1 
1 1 1 1 1 1 1 1 1 
1 1 1 1 1 1 1 1 1 
1 1 1 1 1 1 1 1 1 
1 1 1 1 1 1 1 1 1 
1 1 1 1 1 1 1 1 1 
1 1 1 1 1 1 1 1 1 
1 1 1 1 1 1 1 1 1 
1 1 1 1 1 1 1 1 1 
1 1 1 1 1 1 1 1 1 
1 1 1 1 1 1 1 1 1 
1 1 1 1 1 1 1 1 1 
1 1 1 1 1 1 1 1 1 
1 1 1 1 1 1 1 1 1 
1 1 1 1 1 1 1 1 1 
1 1 1 1 1 1 1 1 1 
1 1 1 1 1 1 1 1 1 
1 1 1 1 1 1 1 1 1 
1 1 1 1 1 1 1 1 1 
1 1 1 1 1 1 1 1 1 
1 1 1 1 1 1 1 1 1 
1 1 1 1 1 1 1 1 1 
1 1 1 1 1 1 1 1 1 
1 1 1 1 1 1 1 1 1 
1 1 1 1 1 1 1 1 1 
1 1 1 1 1 1 1 1 1 
1 1 1 1 1 1 1 1 1 
1 1 1 1 1 1 1 1 1 
1 1 1 1 1 1 1 1 1 
1 1 1 1 1 1 1 1 1 
1 1 1 1 1 1 1 1 1 
1 1 1 1 1 1 1 1 1 
1 1 1 1 1 1 1 1 1 
1 1 1 1 1 1 1 1 1 
1 1 1 1 1 1 1 1 1 
1 1 1 1 1 1 1 1 1 
1 1 1 1 1 1 1 1 1 
1 1 1 1 1 1 1 1 1 
1 1 1 1 1 1 1 1 1 
1 1 1 1 1 1 1 1 1 
1 1 1 1 1 1 1 1 1 
1 1 1 1 1 1 1 1 1 
1 1 1 1 1 1 1 1 1 
1 1 1 1 1 1 1 1 1 
1 1 1 1 1 1 1 1 1 
1 1 1 1 1 1 1 1 1 
1 1 1 1 1 1 1 1 1 
1 1 1 1 1 1 1 1 1 
1 1 1 1 1 1 1 1 1 
1 1 1 1 1 1 1 1 1 
1 1 1 1 1 1 1 1 1 
1 1 1 1 1 1 1 1 1 
1 1 1 1 1 1 1 1 1 
1 1 1 1 1 1 1 1 1 
1 1 1 1 1 1 1 1 1 
1 1 1 1 1 1 1 1 1 
1 1 1 1 1 1 1 1 1 
1 1 1 1 1 1 1 1 1 
1 1 1 1 1 1 1 1 1 
1 1 1 1 1 1 1 1 1 
1 1 1 1 1 
i 3 1355 int
0 0 0 0 0 0 0 0 0 
0 0 0 0 0 0 0 0 0 
0 0 0 0 0 0 0 0 0 
0 0 0 0 0 0 0 0 0 
0 0 0 0 0 0 0 0 0 
0 0 0 0 0 0 0 0 0 
0 0 0 0 0 0 0 0 0 
0 0 0 0 0 0 0 0 0 
0 0 0 0 0 0 0 0 0 
0 0 0 0 0 0 0 0 0 
0 0 0 0 0 0 0 0 0 
0 0 0 0 0 0 0 0 0 
0 0 0 0 0 0 0 0 0 
0 0 0 0 0 0 0 0 0 
0 0 0 0 0 0 0 0 0 
0 0 0 0 0 0 0 0 0 
0 0 0 0 0 0 0 0 0 
0 0 0 0 0 0 0 0 0 
0 0 0 0 0 0 0 0 0 
0 0 0 0 0 0 0 0 0 
0 0 0 0 0 0 0 0 0 
0 0 0 0 0 0 0 0 0 
0 0 0 0 0 0 0 0 0 
0 0 0 0 0 0 0 0 0 
0 0 0 0 0 0 0 0 0 
0 0 0 0 0 0 0 0 0 
0 0 0 0 0 0 0 0 0 
0 0 0 0 0 0 0 0 0 
0 0 0 0 0 0 0 0 0 
0 0 0 0 0 0 0 0 0 
0 0 0 0 0 0 0 0 0 
0 0 0 0 0 0 0 0 0 
0 0 0 0 0 0 0 0 0 
0 0 0 0 0 0 0 0 0 
0 0 0 0 0 0 0 0 0 
0 0 0 0 0 0 0 0 0 
0 0 0 0 0 0 0 0 0 
0 0 0 0 0 0 0 0 0 
0 0 0 0 0 0 0 0 0 
0 0 0 0 0 0 0 0 0 
0 0 0 0 0 0 0 0 0 
0 0 0 0 0 0 0 0 0 
0 0 0 0 0 0 0 0 0 
0 0 0 0 0 0 0 0 0 
0 0 0 0 0 0 0 0 0 
0 0 0 0 0 0 0 0 0 
0 0 0 0 0 0 0 0 0 
0 0 0 0 0 0 0 0 0 
0 0 0 0 0 0 0 0 0 
0 0 0 0 0 0 0 0 0 
0 0 0 0 0 0 0 0 0 
0 0 0 0 0 0 0 0 0 
0 0 0 0 0 0 0 0 0 
0 0 0 0 0 0 0 0 0 
0 0 0 0 0 0 0 0 0 
0 0 0 0 0 0 0 0 0 
0 0 0 0 0 0 0 0 0 
0 0 0 0 0 0 0 0 0 
0 0 0 0 0 0 0 0 0 
0 0 0 0 0 0 0 0 0 
0 0 0 0 0 0 0 0 0 
0 0 0 0 0 0 0 0 0 
0 0 0 0 0 0 0 0 0 
0 0 0 0 0 0 0 0 0 
0 0 0 0 0 0 0 0 0 
0 0 0 0 0 0 0 0 0 
0 0 0 0 0 0 0 0 0 
0 0 0 0 0 0 0 0 0 
0 0 0 0 0 0 0 0 0 
0 0 0 0 0 0 0 0 0 
0 0 0 0 0 0 0 0 0 
0 0 0 0 0 0 0 0 0 
0 0 0 0 0 0 0 0 0 
0 0 0 0 0 0 0 0 0 
0 0 0 0 0 0 0 0 0 
0 0 0 0 0 0 0 0 0 
0 0 0 0 0 0 0 0 0 
0 0 0 0 0 0 0 0 0 
0 0 0 0 0 0 0 0 0 
0 0 0 0 0 0 0 0 0 
0 0 0 0 0 0 0 0 0 
0 0 0 0 0 0 0 0 0 
0 0 0 0 0 0 0 0 0 
0 0 0 0 0 0 0 0 0 
0 0 0 0 0 0 0 0 0 
0 0 0 0 0 0 0 0 0 
0 0 0 0 0 0 0 0 0 
0 0 0 0 0 0 0 0 0 
0 0 0 0 0 0 0 0 0 
0 0 0 0 0 0 0 0 0 
0 0 0 0 0 0 0 0 0 
0 0 0 0 0 0 0 0 0 
0 0 0 0 0 0 0 0 0 
0 0 0 0 0 0 0 0 0 
0 0 0 0 0 0 0 0 0 
0 0 0 0 0 0 0 0 0 
0 0 0 0 0 0 0 0 0 
0 0 0 0 0 0 0 0 0 
0 0 0 0 0 0 0 0 0 
0 0 0 0 0 0 0 0 0 
0 0 0 0 0 0 0 0 0 
0 0 0 0 0 0 0 0 0 
0 0 0 0 0 0 0 0 0 
0 0 0 0 0 0 0 0 0 
0 0 0 0 0 0 0 0 0 
0 0 0 0 0 0 0 0 0 
0 0 0 0 0 0 0 0 0 
0 0 0 0 0 0 0 0 0 
0 0 0 0 0 0 0 0 0 
0 0 0 0 0 0 0 0 0 
0 0 0 0 0 0 0 0 0 
0 0 0 0 0 0 0 0 0 
0 0 0 0 0 0 0 0 0 
0 0 0 0 0 0 0 0 0 
0 0 0 0 0 0 0 0 0 
0 0 0 0 0 0 0 0 0 
0 0 0 0 0 0 0 0 0 
0 0 0 0 0 0 0 0 0 
0 0 0 0 0 0 0 0 0 
0 0 0 0 0 0 0 0 0 
0 0 0 0 0 0 0 0 0 
0 0 0 0 0 0 0 0 0 
0 0 0 0 0 0 0 0 0 
0 0 0 0 0 0 0 0 0 
0 0 0 0 0 0 0 0 0 
0 0 0 0 0 0 0 0 0 
0 0 0 0 0 0 0 0 0 
0 0 0 0 0 0 0 0 0 
0 0 0 0 0 0 0 0 0 
0 0 0 0 0 0 0 0 0 
0 0 0 0 0 0 0 0 0 
0 0 0 0 0 0 0 0 0 
0 0 0 0 0 0 0 0 0 
0 0 0 0 0 0 0 0 0 
0 0 0 0 0 0 0 0 0 
0 0 0 0 0 0 0 0 0 
0 0 0 0 0 0 0 0 0 
0 0 0 0 0 0 0 0 0 
0 0 0 0 0 0 0 0 0 
0 0 0 0 0 0 0 0 0 
0 0 0 0 0 0 0 0 0 
0 0 0 0 0 0 0 0 0 
0 0 0 0 0 0 0 0 0 
0 0 0 0 0 0 0 0 0 
0 0 0 0 0 0 0 0 0 
0 0 0 0 0 0 0 0 0 
0 0 0 0 0 0 0 0 0 
0 0 0 0 0 0 0 0 0 
0 0 0 0 0 0 0 0 0 
0 0 0 0 0 0 0 0 0 
0 0 0 0 0 0 0 0 0 
0 0 0 0 0 0 0 0 0 
0 0 0 0 0 0 0 0 0 
0 0 0 0 0 0 0 0 0 
0 0 0 0 0 0 0 0 0 
0 0 0 0 0 0 0 0 0 
0 0 0 0 0 0 0 0 0 
0 0 0 0 0 0 0 0 0 
0 0 0 0 0 0 0 0 0 
0 0 0 0 0 0 0 0 0 
0 0 0 0 0 0 0 0 0 
0 0 0 0 0 0 0 0 0 
0 0 0 0 0 0 0 0 0 
0 0 0 0 0 0 0 0 0 
0 0 0 0 0 0 0 0 0 
0 0 0 0 0 0 0 0 0 
0 0 0 0 0 0 0 0 0 
0 0 0 0 0 0 0 0 0 
0 0 0 0 0 0 0 0 0 
0 0 0 0 0 0 0 0 0 
0 0 0 0 0 0 0 0 0 
0 0 0 0 0 0 0 0 0 
0 0 0 0 0 0 0 0 0 
0 0 0 0 0 0 0 0 0 
0 0 0 0 0 0 0 0 0 
0 0 0 0 0 0 0 0 0 
0 0 0 0 0 0 0 0 0 
0 0 0 0 0 0 0 0 0 
0 0 0 0 0 0 0 0 0 
0 0 0 0 0 0 0 0 0 
0 0 0 0 0 0 0 0 0 
0 0 0 0 0 0 0 0 0 
0 0 0 0 0 0 0 0 0 
0 0 0 0 0 0 0 0 0 
0 0 0 0 0 0 0 0 0 
0 0 0 0 0 0 0 0 0 
0 0 0 0 0 0 0 0 0 
0 0 0 0 0 0 0 0 0 
0 0 0 0 0 0 0 0 0 
0 0 0 0 0 0 0 0 0 
0 0 0 0 0 0 0 0 0 
0 0 0 0 0 0 0 0 0 
0 0 0 0 0 0 0 0 0 
0 0 0 0 0 0 0 0 0 
0 0 0 0 0 0 0 0 0 
0 0 0 0 0 0 0 0 0 
0 0 0 0 0 0 0 0 0 
0 0 0 0 0 0 0 0 0 
0 0 0 0 0 0 0 0 0 
0 0 0 0 0 0 0 0 0 
0 0 0 0 0 0 0 0 0 
0 0 0 0 0 0 0 0 0 
0 0 0 0 0 0 0 0 0 
0 0 0 0 0 0 0 0 0 
0 0 0 0 0 0 0 0 0 
0 0 0 0 0 0 0 0 0 
0 0 0 0 0 0 0 0 0 
0 0 0 0 0 0 0 0 0 
0 0 0 0 0 0 0 0 0 
0 0 0 0 0 0 0 0 0 
0 0 0 0 0 0 0 0 0 
0 0 0 0 0 0 0 0 0 
0 0 0 0 0 0 0 0 0 
0 0 0 0 0 0 0 0 0 
0 0 0 0 0 0 0 0 0 
0 0 0 0 0 0 0 0 0 
0 0 0 0 0 0 0 0 0 
0 0 0 0 0 0 0 0 0 
0 0 0 0 0 0 0 0 0 
0 0 0 0 0 0 0 0 0 
0 0 0 0 0 0 0 0 0 
0 0 0 0 0 0 0 0 0 
0 0 0 0 0 0 0 0 0 
0 0 0 0 0 0 0 0 0 
0 0 0 0 0 0 0 0 0 
0 0 0 0 0 0 0 0 0 
0 0 0 0 0 0 0 0 0 
0 0 0 0 0 0 0 0 0 
0 0 0 0 0 0 0 0 0 
0 0 0 0 0 0 0 0 0 
0 0 0 0 0 0 0 0 0 
0 0 0 0 0 0 0 0 0 
0 0 0 0 0 0 0 0 0 
0 0 0 0 0 0 0 0 0 
0 0 0 0 0 0 0 0 0 
0 0 0 0 0 0 0 0 0 
0 0 0 0 0 0 0 0 0 
0 0 0 0 0 0 0 0 0 
0 0 0 0 0 0 0 0 0 
0 0 0 0 0 0 0 0 0 
0 0 0 0 0 0 0 0 0 
0 0 0 0 0 0 0 0 0 
0 0 0 0 0 0 0 0 0 
0 0 0 0 0 0 0 0 0 
0 0 0 0 0 0 0 0 0 
0 0 0 0 0 0 0 0 0 
0 0 0 0 0 0 0 0 0 
0 0 0 0 0 0 0 0 0 
0 0 0 0 0 0 0 0 0 
0 0 0 0 0 0 0 0 0 
0 0 0 0 0 0 0 0 0 
0 0 0 0 0 0 0 0 0 
0 0 0 0 0 0 0 0 0 
0 0 0 0 0 0 0 0 0 
0 0 0 0 0 0 0 0 0 
0 0 0 0 0 0 0 0 0 
0 0 0 0 0 0 0 0 0 
0 0 0 0 0 0 0 0 0 
0 0 0 0 0 0 0 0 0 
0 0 0 0 0 0 0 0 0 
0 0 0 0 0 0 0 0 0 
0 0 0 0 0 0 0 0 0 
0 0 0 0 0 0 0 0 0 
0 0 0 0 0 0 0 0 0 
0 0 0 0 0 0 0 0 0 
0 0 0 0 0 0 0 0 0 
0 0 0 0 0 0 0 0 0 
0 0 0 0 0 0 0 0 0 
0 0 0 0 0 0 0 0 0 
0 0 0 0 0 0 0 0 0 
0 0 0 0 0 0 0 0 0 
0 0 0 0 0 0 0 0 0 
0 0 0 0 0 0 0 0 0 
0 0 0 0 0 0 0 0 0 
0 0 0 0 0 0 0 0 0 
0 0 0 0 0 0 0 0 0 
0 0 0 0 0 0 0 0 0 
0 0 0 0 0 0 0 0 0 
0 0 0 0 0 0 0 0 0 
0 0 0 0 0 0 0 0 0 
0 0 0 0 0 0 0 0 0 
0 0 0 0 0 0 0 0 0 
0 0 0 0 0 0 0 0 0 
0 0 0 0 0 0 0 0 0 
0 0 0 0 0 0 0 0 0 
0 0 0 0 0 0 0 0 0 
0 0 0 0 0 0 0 0 0 
0 0 0 0 0 0 0 0 0 
0 0 0 0 0 0 0 0 0 
0 0 0 0 0 0 0 0 0 
0 0 0 0 0 0 0 0 0 
0 0 0 0 0 0 0 0 0 
0 0 0 0 0 0 0 0 0 
0 0 0 0 0 0 0 0 0 
0 0 0 0 0 0 0 0 0 
0 0 0 0 0 0 0 0 0 
0 0 0 0 0 0 0 0 0 
0 0 0 0 0 0 0 0 0 
0 0 0 0 0 0 0 0 0 
0 0 0 0 0 0 0 0 0 
0 0 0 0 0 0 0 0 0 
0 0 0 0 0 0 0 0 0 
0 0 0 0 0 0 0 0 0 
0 0 0 0 0 0 0 0 0 
0 0 0 0 0 0 0 0 0 
0 0 0 0 0 0 0 0 0 
0 0 0 0 0 0 0 0 0 
0 0 0 0 0 0 0 0 0 
0 0 0 0 0 0 0 0 0 
0 0 0 0 0 0 0 0 0 
0 0 0 0 0 0 0 0 0 
0 0 0 0 0 0 0 0 0 
0 0 0 0 0 0 0 0 0 
0 0 0 0 0 0 0 0 0 
0 0 0 0 0 0 0 0 0 
0 0 0 0 0 0 0 0 0 
0 0 0 0 0 0 0 0 0 
0 0 0 0 0 0 0 0 0 
0 0 0 0 0 0 0 0 0 
0 0 0 0 0 0 0 0 0 
0 0 0 0 0 0 0 0 0 
0 0 0 0 0 0 0 0 0 
0 0 0 0 0 0 0 0 0 
0 0 0 0 0 0 0 0 0 
0 0 0 0 0 0 0 0 0 
0 0 0 0 0 0 0 0 0 
0 0 0 0 0 0 0 0 0 
0 0 0 0 0 0 0 0 0 
0 0 0 0 0 0 0 0 0 
0 0 0 0 0 0 0 0 0 
0 0 0 0 0 0 0 0 0 
0 0 0 0 0 0 0 0 0 
0 0 0 0 0 0 0 0 0 
0 0 0 0 0 0 0 0 0 
0 0 0 0 0 0 0 0 0 
0 0 0 0 0 0 0 0 0 
0 0 0 0 0 0 0 0 0 
0 0 0 0 0 0 0 0 0 
0 0 0 0 0 0 0 0 0 
0 0 0 0 0 0 0 0 0 
0 0 0 0 0 0 0 0 0 
0 0 0 0 0 0 0 0 0 
0 0 0 0 0 0 0 0 0 
0 0 0 0 0 0 0 0 0 
0 0 0 0 0 0 0 0 0 
0 0 0 0 0 0 0 0 0 
0 0 0 0 0 0 0 0 0 
0 0 0 0 0 0 0 0 0 
0 0 0 0 0 0 0 0 0 
0 0 0 0 0 0 0 0 0 
0 0 0 0 0 0 0 0 0 
0 0 0 0 0 0 0 0 0 
0 0 0 0 0 0 0 0 0 
0 0 0 0 0 0 0 0 0 
0 0 0 0 0 0 0 0 0 
0 0 0 0 0 0 0 0 0 
0 0 0 0 0 0 0 0 0 
0 0 0 0 0 0 0 0 0 
0 0 0 0 0 0 0 0 0 
0 0 0 0 0 0 0 0 0 
0 0 0 0 0 0 0 0 0 
0 0 0 0 0 0 0 0 0 
0 0 0 0 0 0 0 0 0 
0 0 0 0 0 0 0 0 0 
0 0 0 0 0 0 0 0 0 
0 0 0 0 0 0 0 0 0 
0 0 0 0 0 0 0 0 0 
0 0 0 0 0 0 0 0 0 
0 0 0 0 0 0 0 0 0 
0 0 0 0 0 0 0 0 0 
0 0 0 0 0 0 0 0 0 
0 0 0 0 0 0 0 0 0 
0 0 0 0 0 0 0 0 0 
0 0 0 0 0 0 0 0 0 
0 0 0 0 0 0 0 0 0 
0 0 0 0 0 0 0 0 0 
0 0 0 0 0 0 0 0 0 
0 0 0 0 0 0 0 0 0 
0 0 0 0 0 0 0 0 0 
0 0 0 0 0 0 0 0 0 
0 0 0 0 0 0 0 0 0 
0 0 0 0 0 0 0 0 0 
0 0 0 0 0 0 0 0 0 
0 0 0 0 0 0 0 0 0 
0 0 0 0 0 0 0 0 0 
0 0 0 0 0 0 0 0 0 
0 0 0 0 0 0 0 0 0 
0 0 0 0 0 0 0 0 0 
0 0 0 0 0 0 0 0 0 
0 0 0 0 0 0 0 0 0 
0 0 0 0 0 0 0 0 0 
0 0 0 0 0 0 0 0 0 
0 0 0 0 0 0 0 0 0 
0 0 0 0 0 0 0 0 0 
0 0 0 0 0 0 0 0 0 
0 0 0 0 0 0 0 0 0 
0 0 0 0 0 0 0 0 0 
0 0 0 0 0 0 0 0 0 
0 0 0 0 0 0 0 0 0 
0 0 0 0 0 0 0 0 0 
0 0 0 0 0 0 0 0 0 
0 0 0 0 0 0 0 0 0 
0 0 0 0 0 0 0 0 0 
0 0 0 0 0 0 0 0 0 
0 0 0 0 0 0 0 0 0 
0 0 0 0 0 0 0 0 0 
0 0 0 0 0 0 0 0 0 
0 0 0 0 0 0 0 0 0 
0 0 0 0 0 0 0 0 0 
0 0 0 0 0 0 0 0 0 
0 0 0 0 0 0 0 0 0 
0 0 0 0 0 0 0 0 0 
0 0 0 0 0 0 0 0 0 
0 0 0 0 0 0 0 0 0 
0 0 0 0 0 0 0 0 0 
0 0 0 0 0 0 0 0 0 
0 0 0 0 0 0 0 0 0 
0 0 0 0 0 0 0 0 0 
0 0 0 0 0 0 0 0 0 
0 0 0 0 0 0 0 0 0 
0 0 0 0 0 0 0 0 0 
0 0 0 0 0 0 0 0 0 
0 0 0 0 0 0 0 0 0 
0 0 0 0 0 0 0 0 0 
0 0 0 0 0 0 0 0 0 
0 0 0 0 0 0 0 0 0 
0 0 0 0 0 0 0 0 0 
0 0 0 0 0 0 0 0 0 
0 0 0 0 0 0 0 0 0 
0 0 0 0 0 0 0 0 0 
0 0 0 0 0 0 0 0 0 
0 0 0 0 0 0 0 0 0 
0 0 0 0 0 0 0 0 0 
0 0 0 0 0 0 0 0 0 
0 0 0 0 0 0 0 0 0 
0 0 0 0 0 0 0 0 0 
0 0 0 0 0 0 0 0 0 
0 0 0 0 0 0 0 0 0 
0 0 0 0 0 0 0 0 0 
0 0 0 0 0 0 0 0 0 
0 0 0 0 0 0 0 0 0 
0 0 0 0 0 0 0 0 0 
0 0 0 0 0 0 0 0 0 
0 0 0 0 0 0 0 0 0 
0 0 0 0 0 0 0 0 0 
0 0 0 0 0 0 0 0 0 
0 0 0 0 0 0 0 0 0 
0 0 0 0 0 0 0 0 0 
0 0 0 0 0 0 0 0 0 
0 0 0 0 0 0 0 0 0 
0 0 0 0 0 0 0 0 0 
0 0 0 0 0 0 
v 3 1355 double
0.143379 0.157872 -0.184096 0.255929 -0.36436 -0.04085 0.203592 -0.28376 -0.211678 
-0.0189639 0.107656 0.229697 -0.262487 -0.0723461 0.00973264 -0.134036 0.00334844 -0.0243478 
-0.144921 0.109868 -0.165671 -0.0587876 0.257312 -0.454524 -0.418597 -0.228628 0.105841 
-0.240434 0.0896502 -0.170624 0.0478253 0.0552437 -0.0216695 -0.0482528 0.0757977 0.0163178 
0.151204 0.194488 -0.0839226 -0.0422026 0.118638 -0.25741 -0.242724 -0.149646 -0.179673 
0.0117008 0.0328328 0.257248 0.0556672 -0.0785541 0.0566058 -0.106788 -0.160714 -0.000525977 
0.00307706 -0.0747113 -0.0782864 0.563932 0.0249139 -0.328349 0.09821 -0.018825 0.204309 
0.141579 -0.146499 0.102211 0.043972 -0.365828 -0.0111545 0.218437 0.29621 -0.139971 
-0.114851 0.28855 -0.178841 -0.301564 -0.102498 0.032421 -0.246987 -0.0343849 0.246939 
0.243526 0.157096 -0.0254362 -0.0931739 0.0766512 -0.0558978 -0.0440587 0.0135568 0.11296 
-0.363409 0.0884526 0.00580517 0.270094 -0.263471 -0.189083 0.0686006 0.0325488 0.107832 
0.185987 0.0123385 0.00139666 0.14374 -0.186145 -0.103048 0.0697232 0.118334 0.100385 
0.0130446 0.0757818 -0.186888 0.21139 -0.179327 -0.219804 0.15609 -0.087552 0.1608 
-0.0621661 -0.0860128 0.167569 -0.0270984 0.00162868 -0.180623 -0.074241 0.0559736 0.0818296 
0.139361 -0.0138882 -0.17483 -0.285337 0.137178 -0.119654 -0.190006 0.165508 -0.0246061 
-0.114476 0.0220834 0.0558703 -0.185858 0.0189021 0.166415 0.0103283 0.0517854 0.0599163 
-0.246367 -0.0493775 0.0133226 -0.107792 0.129107 -0.00362359 -0.0210068 -0.0351811 0.182185 
-0.144516 0.15385 -0.144996 0.207862 -0.0724439 0.0348291 0.161929 -0.0760618 -0.220325 
-0.196768 0.0830834 -0.17667 0.168551 -0.209259 0.0380904 0.0335652 -0.122201 0.297329 
0.0412847 -0.0142287 0.11305 -0.19629 0.118086 0.387691 -0.233241 0.0716468 0.288121 
-0.0871926 0.074113 0.0529124 -0.358705 -0.0532225 -0.0143066 -0.441883 0.252323 -0.0831756 
-0.0761852 0.200826 -0.0262509 -0.253674 -0.317504 0.178894 0.225042 -0.154828 0.109954 
0.0518078 0.0355195 -0.254818 -0.276654 0.0323448 0.00729173 0.150499 -0.105364 -0.0790275 
0.188546 -0.0935567 0.0385669 0.0566359 0.129603 0.0264018 0.0634917 0.155056 0.0153788 
-0.0201138 0.000856341 -0.104268 -0.20048 0.104689 -0.0813396 0.0407639 0.085508 0.103591 
0.500884 -0.0810019 0.0139898 0.0155386 0.0136746 -0.12648 0.083082 0.02016 0.252864 
0.241199 0.178405 0.0460003 0.070978 0.462236 -0.00444906 -0.0718087 -0.130481 0.38829 
0.212523 -0.00438734 -0.0417827 0.0104713 0.0251746 -0.274091 0.054469 0.132616 -0.0211436 
-0.108801 0.0903682 -0.0660889 -0.0483996 -0.120222 0.107928 0.0479401 -0.0531581 -0.0644232 