# vtk DataFile Version 4.0
Generated by LIGGGHTS
ASCII
DATASET POLYDATA
POINTS 1189 float
-0.93875 -0.458588 -0.403762 -0.882659 -0.433448 -0.449009 -0.738385 -0.460671 -0.457247 
-0.65302 -0.461151 -0.461277 -0.500842 -0.455569 -0.460547 -0.413676 -0.458494 -0.463361 
-0.291024 -0.456255 -0.449022 -0.146951 -0.459141 -0.455624 -0.0561737 -0.446564 -0.452631 
0.0541498 -0.45195 -0.460851 0.166189 -0.451028 -0.462203 0.300582 -0.464269 -0.421934 
0.373499 -0.459904 -0.452684 0.464351 -0.455645 -0.463575 0.545648 -0.456336 -0.459439 
0.636723 -0.454879 -0.461685 0.756462 -0.460688 -0.449131 0.833915 -0.453827 -0.456277 
-0.887483 -0.357441 -0.461678 -0.815514 -0.400792 -0.45576 -0.686032 -0.390053 -0.453814 
-0.581888 -0.426292 -0.454802 -0.455639 -0.388026 -0.460868 -0.356691 -0.404841 -0.459771 
-0.236036 -0.407062 -0.461109 -0.0746471 -0.372283 -0.456797 0.00298415 -0.390051 -0.454868 
0.325704 -0.397312 -0.458434 0.662478 -0.382109 -0.459761 0.820798 -0.367347 -0.448098 
0.905374 -0.403182 -0.459532 -0.958088 -0.389362 -0.460365 -0.803489 -0.315266 -0.464254 
-0.621987 -0.34163 -0.464617 -0.402056 -0.330692 -0.457528 -0.277782 -0.343581 -0.462656 
-0.156268 -0.355926 -0.453069 0.010637 -0.312001 -0.464208 0.104586 -0.34004 -0.464798 
0.18778 -0.340053 -0.462485 0.381248 -0.316832 -0.460623 0.509151 -0.386027 -0.454472 
0.585436 -0.362348 -0.45962 0.961537 -0.34687 -0.456114 -0.936706 -0.295224 -0.446536 
-0.870555 -0.245624 -0.455225 -0.695157 -0.308857 -0.460953 -0.518519 -0.305138 -0.461442 
-0.435235 -0.257014 -0.453313 -0.335275 -0.289215 -0.458323 -0.185195 -0.273667 -0.464512 
-0.0856549 -0.289988 -0.458846 0.0554792 -0.258156 -0.433765 0.134452 -0.265567 -0.460277 
0.226428 -0.270096 -0.459164 0.303265 -0.294416 -0.460897 0.47053 -0.258967 -0.455941 
0.5338 -0.311727 -0.439295 0.606556 -0.283141 -0.460853 0.68519 -0.283976 -0.458378 
0.766909 -0.307907 -0.462309 0.910725 -0.286155 -0.456893 -0.801865 -0.210238 -0.449498 
-0.596561 -0.199605 -0.452329 -0.511999 -0.221725 -0.461472 -0.125401 -0.221114 -0.460461 
-0.0370634 -0.204243 -0.462517 0.104199 -0.188771 -0.459332 0.182853 -0.199286 -0.458403 
0.292507 -0.211192 -0.457358 0.371 -0.235061 -0.457642 0.546172 -0.232013 -0.460214 
0.614918 -0.194924 -0.456417 0.690573 -0.166913 -0.460803 0.792557 -0.205602 -0.463077 
0.875242 -0.220106 -0.461325 0.959772 -0.2229 -0.460581 -0.957207 -0.111282 -0.451711 
-0.900342 -0.17456 -0.45559 -0.820911 -0.129556 -0.458351 -0.73926 -0.122437 -0.462109 
-0.675176 -0.175146 -0.461093 -0.54997 -0.116637 -0.454031 -0.392728 -0.156111 -0.46172 
-0.315794 -0.15508 -0.461459 -0.235997 -0.152556 -0.460705 -0.157852 -0.145278 -0.459833 
-0.0693193 -0.130909 -0.457802 0.00918376 -0.106249 -0.462104 0.251901 -0.139669 -0.45906 
0.332946 -0.139807 -0.462084 0.479273 -0.173076 -0.462048 0.744601 -0.101197 -0.460117 
0.853051 -0.141414 -0.452408 0.954139 -0.143425 -0.434687 -0.807091 -0.0529052 -0.460071 
-0.709781 -0.045721 -0.460723 -0.639501 -0.102311 -0.452807 -0.469614 -0.0986307 -0.462802 
-0.379239 -0.0695102 -0.46154 -0.298297 -0.0582657 -0.458142 -0.221849 -0.0721335 -0.451803 
-0.129898 -0.0663711 -0.461363 0.112806 -0.0349561 -0.457609 0.200869 -0.0731146 -0.458535 
0.28313 -0.0653682 -0.460543 0.40197 -0.0913203 -0.457347 0.498983 -0.0967261 -0.457873 
0.579887 -0.108017 -0.462875 0.65735 -0.0968214 -0.453918 0.835545 -0.0647865 -0.428217 
0.957785 -0.0660919 -0.452708 -0.954738 -0.0107679 -0.449758 -0.585018 0.0394904 -0.457404 
-0.526942 -0.0417533 -0.457352 -0.448338 -0.0226564 -0.457924 -0.373557 0.0102288 -0.461101 
-0.252656 0.0127242 -0.461214 -0.176047 -0.00163813 -0.462409 -0.0535791 -0.0423 -0.459562 
0.027153 -0.0146319 -0.459086 0.14498 0.040789 -0.461114 0.230835 0.00360593 -0.461748 
0.352998 -0.0217141 -0.459997 0.431153 -0.0105401 -0.444898 0.50693 0.00571892 -0.462602 
0.581102 -0.0221071 -0.463418 0.677845 -0.0188277 -0.461853 0.756605 -0.0194179 -0.461212 
0.912557 -0.00581291 -0.454901 -0.88666 0.0263531 -0.463179 -0.814402 0.102543 -0.462188 
-0.730779 0.0508879 -0.429022 -0.655731 0.0998957 -0.44708 -0.505207 0.0911433 -0.462063 
-0.433348 0.06079 -0.44911 -0.335689 0.0833613 -0.461175 -0.176498 0.0777752 -0.460187 
-0.0474447 0.0496196 -0.461531 0.0294206 0.0658784 -0.459708 0.293269 0.0778926 -0.460275 
0.372043 0.0644001 -0.461651 0.451872 0.068155 -0.462803 0.597675 0.0969941 -0.459227 
0.685374 0.0804797 -0.460316 0.777269 0.0580524 -0.462055 0.845361 0.0962939 -0.447935 
0.947287 0.0992741 -0.463318 -0.882217 0.152851 -0.456476 -0.808307 0.188478 -0.461122 
-0.734059 0.132356 -0.457701 -0.571755 0.156509 -0.460789 -0.469717 0.172243 -0.45765 
-0.391739 0.150244 -0.459678 -0.208529 0.151507 -0.456546 -0.114637 0.124129 -0.461081 
-0.0312866 0.137663 -0.460805 0.140989 0.165326 -0.459491 0.201992 0.111068 -0.459962 
0.407429 0.138591 -0.457109 0.485532 0.146583 -0.458929 0.800426 0.158253 -0.458334 
-0.959291 0.201905 -0.459907 -0.762292 0.25264 -0.458371 -0.650885 0.177661 -0.459955 
-0.530336 0.230051 -0.461869 -0.45197 0.251905 -0.458744 -0.302416 0.178148 -0.462066 
-0.0924393 0.242552 -0.45925 0.0616446 0.187634 -0.453207 0.115576 0.246378 -0.457854 
0.206793 0.209799 -0.46157 0.342855 0.19128 -0.460767 0.413103 0.230056 -0.462169 
0.585836 0.234032 -0.456012 0.629895 0.168216 -0.446716 0.868006 0.248846 -0.457102 
0.959615 0.19934 -0.448897 -0.921064 0.291029 -0.461372 -0.845168 0.273669 -0.453883 
-0.631835 0.271129 -0.454557 -0.360575 0.276971 -0.454036 -0.236726 0.235544 -0.460691 
-0.283977 0.311701 -0.460648 -0.167599 0.276296 -0.461461 -0.0476565 0.306702 -0.455335 
0.0307946 0.260589 -0.461447 0.334569 0.285517 -0.46276 0.418996 0.315217 -0.463536 
0.501494 0.288535 -0.461077 0.709539 0.270735 -0.460219 0.78267 0.24028 -0.451874 
0.959916 0.302382 -0.461409 -0.957312 0.371603 -0.433092 -0.884179 0.397711 -0.456476 
-0.818924 0.351039 -0.458614 -0.704433 0.308074 -0.459988 -0.57099 0.368058 -0.461158 
-0.517045 0.308695 -0.458854 -0.423157 0.330658 -0.459258 -0.345512 0.358098 -0.460322 
-0.209239 0.39329 -0.462067 -0.110577 0.357172 -0.457794 0.08412 0.316665 -0.445349 
0.160395 0.325319 -0.461266 0.249182 0.324039 -0.459718 0.478603 0.368021 -0.439913 
0.558158 0.382839 -0.456564 0.759189 0.380006 -0.461832 0.811378 0.317395 -0.462472 
0.887593 0.325381 -0.445154 -0.738399 0.382093 -0.455905 -0.640634 0.443077 -0.458963 
-0.495683 0.390663 -0.459386 -0.414886 0.408207 -0.447323 -0.0355659 0.385604 -0.459016 
0.043872 0.381223 -0.45896 0.120101 0.39441 -0.457733 0.204306 0.390484 -0.454053 
0.384689 0.385337 -0.458063 0.656763 0.396151 -0.461646 0.83954 0.391161 -0.45321 
-0.826763 0.449214 -0.453221 -0.721766 0.459532 -0.458122 -0.555707 0.460084 -0.453123 
-0.469455 0.454262 -0.415506 -0.35204 0.454891 -0.451287 -0.270255 0.45553 -0.458566 
-0.169337 0.460472 -0.454438 -0.0802112 0.458279 -0.451027 0.000280477 0.457903 -0.457567 
0.0789333 0.460129 -0.45144 0.163061 0.458831 -0.446354 0.244994 0.459106 -0.457447 
0.38851 0.460688 -0.455905 0.471901 0.461007 -0.443825 0.616332 0.462327 -0.453921 
0.707965 0.453945 -0.453169 0.873273 0.460227 -0.441218 -0.817638 -0.459243 -0.394858 
-0.68134 -0.459327 -0.304571 -0.578259 -0.457828 -0.385953 -0.483343 -0.430194 -0.370416 
-0.330118 -0.45952 -0.38475 -0.152101 -0.461591 -0.376531 -0.00132486 -0.456786 -0.378106 
0.156661 -0.461366 -0.381345 0.239818 -0.458502 -0.371623 0.428424 -0.461545 -0.388484 
0.842853 -0.431519 -0.360884 0.91658 -0.460924 -0.347867 -0.791766 -0.369307 -0.385969 
-0.629868 -0.401308 -0.39958 -0.403594 -0.416366 -0.397364 -0.259713 -0.410424 -0.382054 
-0.0759903 -0.442496 -0.374801 0.0190588 -0.382569 -0.34477 0.0758555 -0.453822 -0.378435 
0.122965 -0.400689 -0.416431 0.41086 -0.390399 -0.451999 0.513512 -0.419087 -0.377687 
0.606075 -0.421536 -0.38458 0.757576 -0.432536 -0.354414 0.956415 -0.41312 -0.393977 
-0.964136 -0.339374 -0.375652 -0.724998 -0.33592 -0.391987 -0.543724 -0.381603 -0.405617 
-0.457552 -0.346564 -0.387855 -0.332585 -0.366174 -0.38266 -0.21971 -0.329092 -0.409047 
-0.0344036 -0.342089 -0.398834 0.0714723 -0.347394 -0.393626 0.254777 -0.344393 -0.422278 
0.352199 -0.345388 -0.390674 0.456626 -0.331413 -0.434312 0.580878 -0.346611 -0.366525 
0.741404 -0.384138 -0.448793 0.909362 -0.341015 -0.395589 -0.750162 -0.264449 -0.423786 
-0.575829 -0.308905 -0.408982 -0.520817 -0.254901 -0.39011 -0.395505 -0.283709 -0.387716 
-0.312129 -0.281048 -0.383111 -0.138686 -0.272452 -0.401476 -0.0223908 -0.263855 -0.412302 
0.176565 -0.293516 -0.399044 0.327393 -0.261854 -0.395704 0.409581 -0.256837 -0.393872 
0.489647 -0.238202 -0.382651 0.573933 -0.265849 -0.390031 0.647459 -0.316225 -0.397251 
0.842849 -0.303409 -0.411197 -0.96262 -0.212673 -0.425875 -0.915077 -0.257931 -0.359326 
-0.72829 -0.18239 -0.400903 -0.656304 -0.230845 -0.407903 -0.355555 -0.21865 -0.426035 
-0.282746 -0.193962 -0.400085 -0.259251 -0.249217 -0.45179 -0.190636 -0.204897 -0.420507 
-0.0819717 -0.191924 -0.401663 0.0269127 -0.1749 -0.42687 0.147708 -0.210802 -0.387298 
0.240353 -0.218694 -0.400069 0.331247 -0.176872 -0.392975 0.405242 -0.166553 -0.435428 
0.652415 -0.234703 -0.397579 0.727904 -0.227924 -0.423838 0.857381 -0.188575 -0.39101 
-0.845415 -0.172852 -0.398052 -0.644675 -0.155876 -0.387396 -0.553937 -0.169506 -0.392696 
-0.475677 -0.165738 -0.416579 -0.41588 -0.11158 -0.401041 -0.203486 -0.127296 -0.392654 
-0.117313 -0.113843 -0.399029 0.123418 -0.111402 -0.435143 0.199385 -0.149637 -0.399022 
0.466392 -0.159803 -0.385639 0.545895 -0.162644 -0.416089 0.629938 -0.156977 -0.389692 
0.705395 -0.128388 -0.390603 0.780011 -0.151518 -0.408684 0.923267 -0.156683 -0.358926 
-0.949804 -0.0582737 -0.389242 -0.887881 -0.078846 -0.464696 -0.713944 -0.104218 -0.383526 
-0.581511 -0.095729 -0.387166 -0.479166 -0.0542815 -0.393861 -0.336211 -0.104964 -0.40568 
-0.271373 -0.0661517 -0.382403 -0.177547 -0.0460814 -0.394756 -0.0251049 -0.0881449 -0.393659 
[...]
POINT_DATA 1189
FIELD FieldData 7
id 1 1189 int
329 366 408 584 662 206 563 419 523 
145 585 151 530 365 186 620 156 70 
632 559 759 322 120 208 371 512 347 
20 195 320 664 692 196 714 581 723 
59 498 708 214 529 338 470 643 534 
724 105 493 250 542 245 234 76 54 
280 305 75 291 444 367 684 476 171 
373 375 95 589 722 200 431 576 623 
109 683 446 647 155 521 159 267 83 
641 185 96 99 458 575 40 312 543 
31 298 300 48 680 531 428 254 331 
361 412 14 689 569 153 397 170 704 
126 140 378 726 459 182 592 758 433 
92 690 437 359 495 304 339 720 639 
321 177 700 240 310 127 351 51 544 
528 323 129 507 423 224 612 384 671 
166 460 97 383 71 596 258 85 293 
697 717 104 602 247 161 191 199 278 
637 149 19 463 387 627 218 348 420 
613 125 16 402 586 715 441 9 299 
747 269 130 355 8 42 748 527 557 
346 421 640 649 262 496 73 698 535 
261 622 4 318 411 416 227 391 582 
53 729 319 242 766 188 89 670 650 
388 311 94 39 673 3 363 201 599 
763 228 519 667 472 669 660 646 654 
230 226 306 427 614 545 573 389 12 
440 452 551 38 587 725 761 163 217 
336 453 197 90 604 686 607 256 743 
181 225 513 5 72 370 116 221 514 
679 435 457 516 396 233 678 666 314 
175 287 82 272 87 343 642 302 601 
114 593 325 438 767 173 289 136 62 
533 442 376 80 57 645 219 556 281 
110 184 58 653 558 275 324 189 462 
597 88 239 334 202 572 570 676 335 
615 445 616 447 364 407 478 566 492 
252 497 483 248 540 45 422 286 143 
24 651 106 6 192 183 137 382 236 
154 112 439 102 461 733 326 502 537 
148 142 21 369 121 738 710 474 111 
381 25 638 450 194 580 101 549 634 
146 742 288 167 32 294 74 675 231 
330 135 475 215 505 22 277 162 84 
49 762 578 400 682 128 55 606 35 
665 122 432 393 133 480 469 663 464 
709 340 251 409 292 571 750 246 448 
618 132 67 274 303 264 600 418 417 
260 229 494 98 283 43 244 63 390 
69 728 68 547 499 553 385 617 672 
467 755 481 727 526 316 764 158 7 
739 285 658 337 179 270 354 468 628 
211 276 685 47 500 745 249 205 78 
131 386 273 611 652 413 473 518 223 
693 567 18 268 56 751 736 426 712 
410 108 372 118 157 721 552 307 636 
100 550 357 313 207 241 290 757 81 
668 603 265 317 749 356 341 699 36 
577 491 394 565 554 29 511 33 11 
541 399 50 141 718 169 621 282 301 
694 380 358 395 46 345 568 86 60 
434 44 695 429 479 590 539 216 656 
633 746 629 711 401 271 2 524 737 
220 436 147 253 425 266 93 352 172 
752 443 28 591 77 342 626 107 180 
482 706 193 41 970 10 595 308 403 
520 713 284 687 1 139 13 350 61 
546 392 610 574 297 703 506 503 296 
508 26 681 608 123 222 525 456 760 
17 625 138 430 488 259 405 178 113 
583 210 212 635 64 353 753 701 119 
315 579 624 661 756 377 561 510 414 
878 455 504 769 930 781 735 959 466 
1154 925 814 741 951 1166 754 66 360 
935 235 696 362 619 103 744 702 465 
973 15 295 187 176 532 490 124 691 
144 454 812 786 631 255 644 379 707 
765 279 509 79 471 734 424 487 406 
165 489 30 501 204 674 536 886 655 
27 981 731 309 605 630 548 677 52 
486 134 978 962 803 730 160 332 164 
522 415 150 34 327 243 198 477 657 
922 203 555 716 91 598 515 65 560 
719 23 538 374 965 333 209 232 955 
659 344 940 398 648 190 37 785 873 
971 328 115 257 813 237 564 168 263 
174 609 1165 368 588 562 404 923 451 
117 788 920 740 705 449 152 594 949 
517 485 961 213 238 906 927 938 871 
910 866 823 793 890 956 825 921 784 
963 770 943 787 828 831 958 903 832 
688 933 867 907 768 846 802 944 848 
879 829 868 808 779 875 932 865 792 
902 974 882 914 937 952 870 904 901 
851 857 895 795 797 939 732 855 908 
780 789 349 834 918 861 824 924 916 
911 800 807 980 815 836 953 969 892 
818 947 835 776 805 931 799 775 484 
790 783 843 967 977 794 905 954 948 
888 928 876 791 840 819 837 804 811 
852 872 929 1156 860 774 874 966 864 
960 777 887 796 859 896 917 778 946 
856 822 853 909 821 945 845 850 912 
773 891 900 830 877 881 979 771 772 
942 913 817 863 880 957 883 885 816 
1184 1140 941 1116 1178 1149 1066 1152 988 
1006 1141 1170 844 809 1147 1086 847 1003 
1167 849 972 826 1145 1125 1115 838 1186 
1097 1187 1138 1062 1174 936 1103 806 982 
950 919 1183 820 1052 964 842 1023 894 
1077 1158 1095 782 833 1135 839 801 1027 
1182 975 862 810 926 1033 915 987 827 
968 1109 1104 889 893 899 1171 1085 1148 
869 884 1180 1025 1163 841 1155 934 1177 
798 1072 898 976 1060 858 1169 1070 1181 
1124 1063 1059 1161 1146 854 1134 1142 897 
1001 1159 1123 1035 1132 1107 1079 1051 1004 
1121 1173 1113 1143 1076 1151 1185 986 1133 
1058 1000 1093 1005 999 1112 1028 1073 1034 
1110 993 1049 1032 1031 1162 1061 1015 1106 
995 1160 1144 1091 1189 1139 1099 1014 1022 
1188 1087 1054 1071 1056 1008 1021 1020 1129 
1050 1111 992 985 1105 1036 1089 1065 1075 
1047 1130 1013 1172 1176 1179 1048 1119 1082 
1083 1026 1018 1108 1088 1016 1067 1012 1078 
1114 990 1069 1150 1009 1039 1037 1164 1122 
1044 1081 1046 1084 1010 1100 1017 1057 1128 
1092 1127 1153 1043 1080 1175 1055 1126 1096 
994 1101 998 983 1168 997 1074 1007 1137 
1045 1053 991 1011 1041 1131 1029 1090 989 
1038 1002 1019 1042 1118 1094 1098 1157 1040 
1102 996 1030 1064 984 1136 1120 1024 1117 
1068 
type 1 1189 int
1 1 1 1 1 1 1 1 1 
1 1 1 1 1 1 1 1 1 
1 1 1 1 1 1 1 1 1 
1 1 1 1 1 1 1 1 1 
1 1 1 1 1 1 1 1 1 
1 1 1 1 1 1 1 1 1 
1 1 1 1 1 1 1 1 1 
1 1 1 1 1 1 1 1 1 
1 1 1 1 1 1 1 1 1 
1 1 1 1 1 1 1 1 1 
1 1 1 1 1 1 1 1 1 
1 1 1 1 1 1 1 1 1 
1 1 1 1 1 1 1 1 1 
1 1 1 1 1 1 1 1 1 
1 1 1 1 1 1 1 1 1 
1 1 1 1 1 1 1 1 1 
1 1 1 1 1 1 1 1 1 
1 1 1 1 1 1 1 1 1 
1 1 1 1 1 1 1 1 1 
1 1 1 1 1 1 1 1 1 
1 1 1 1 1 1 1 1 1 
1 1 1 1 1 1 1 1 1 
1 1 1 1 1 1 1 1 1 
1 1 1 1 1 1 1 1 1 
1 1 1 1 1 1 1 1 1 
1 1 1 1 1 1 1 1 1 
1 1 1 1 1 1 1 1 1 
1 1 1 1 1 1 1 1 1 
1 1 1 1 1 1 1 1 1 
1 1 1 1 1 1 1 1 1 
1 1 1 1 1 1 1 1 1 
1 1 1 1 1 1 1 1 1 
1 1 1 1 1 1 1 1 1 
1 1 1 1 1 1 1 1 1 
1 1 1 1 1 1 1 1 1 
1 1 1 1 1 1 1 1 1 
1 1 1 1 1 1 1 1 1 
1 1 1 1 1 1 1 1 1 
1 1 1 1 1 1 1 1 1 
1 1 1 1 1 1 1 1 1 
1 1 1 1 1 1 1 1 1 
1 1 1 1 1 1 1 1 1 
1 1 1 1 1 1 1 1 1 
1 1 1 1 1 1 1 1 1 
1 1 1 1 1 1 1 1 1 
1 1 1 1 1 1 1 1 1 
1 1 1 1 1 1 1 1 1 
1 1 1 1 1 1 1 1 1 
1 1 1 1 1 1 1 1 1 
1 1 1 1 1 1 1 1 1 
1 1 1 1 1 1 1 1 1 
1 1 1 1 1 1 1 1 1 
1 1 1 1 1 1 1 1 1 
1 1 1 1 1 1 1 1 1 
1 1 1 1 1 1 1 1 1 
1 1 1 1 1 1 1 1 1 
1 1 1 1 1 1 1 1 1 
1 1 1 1 1 1 1 1 1 
1 1 1 1 1 1 1 1 1 
1 1 1 1 1 1 1 1 1 
1 1 1 1 1 1 1 1 1 
1 1 1 1 1 1 1 1 1 
1 1 1 1 1 1 1 1 1 
1 1 1 1 1 1 1 1 1 
1 1 1 1 1 1 1 1 1 
1 1 1 1 1 1 1 1 1 
1 1 1 1 1 1 1 1 1 
1 1 1 1 1 1 1 1 1 
1 1 1 1 1 1 1 1 1 
1 1 1 1 1 1 1 1 1 
1 1 1 1 1 1 1 1 1 
1 1 1 1 1 1 1 1 1 
1 1 1 1 1 1 1 1 1 
1 1 1 1 1 1 1 1 1 
1 1 1 1 1 1 1 1 1 
1 1 1 1 1 1 1 1 1 
1 1 1 1 1 1 1 1 1 
1 1 1 1 1 1 1 1 1 
1 1 1 1 1 1 1 1 1 
1 1 1 1 1 1 1 1 1 
1 1 1 1 1 1 1 1 1 
1 1 1 1 1 1 1 1 1 
1 1 1 1 1 1 1 1 1 
1 1 1 1 1 1 1 1 1 
1 1 1 1 1 1 1 1 1 
1 1 1 1 1 1 1 1 1 
1 1 1 1 1 1 1 1 1 
1 1 1 1 1 1 1 1 1 
1 1 1 1 1 1 1 1 1 
1 1 1 1 1 1 1 1 1 
1 1 1 1 1 1 1 1 1 
1 1 1 1 1 1 1 1 1 
1 1 1 1 1 1 1 1 1 
1 1 1 1 1 1 1 1 1 
1 1 1 1 1 1 1 1 1 
1 1 1 1 1 1 1 1 1 
1 1 1 1 1 1 1 1 1 
1 1 1 1 1 1 1 1 1 
1 1 1 1 1 1 1 1 1 
1 1 1 1 1 1 1 1 1 
1 1 1 1 1 1 1 1 1 
1 1 1 1 1 1 1 1 1 
1 1 1 1 1 1 1 1 1 
1 1 1 1 1 1 1 1 1 
1 1 1 1 1 1 1 1 1 
1 1 1 1 1 1 1 1 1 
1 1 1 1 1 1 1 1 1 
1 1 1 1 1 1 1 1 1 
1 1 1 1 1 1 1 1 1 
1 1 1 1 1 1 1 1 1 
1 1 1 1 1 1 1 1 1 
1 1 1 1 1 1 1 1 1 
1 1 1 1 1 1 1 1 1 
1 1 1 1 1 1 1 1 1 
1 1 1 1 1 1 1 1 1 
1 1 1 1 1 1 1 1 1 
1 1 1 1 1 1 1 1 1 
1 1 1 1 1 1 1 1 1 
1 1 1 1 1 1 1 1 1 
1 1 1 1 1 1 1 1 1 
1 1 1 1 1 1 1 1 1 
1 1 1 1 1 1 1 1 1 
1 1 1 1 1 1 1 1 1 
1 1 1 1 1 1 1 1 1 
1 1 1 1 1 1 1 1 1 
1 1 1 1 1 1 1 1 1 
1 1 1 1 1 1 1 1 1 
1 1 1 1 1 1 1 1 1 
1 1 1 1 1 1 1 1 1 
1 1 1 1 1 1 1 1 1 
1 1 1 1 1 1 1 1 1 
1 1 1 1 1 1 1 1 1 
1 
i 3 1189 int
0 0 0 0 0 0 0 0 0 
0 0 0 0 0 0 0 0 0 
0 0 0 0 0 0 0 0 0 
0 0 0 0 0 0 0 0 0 
0 0 0 0 0 0 0 0 0 
0 0 0 0 0 0 0 0 0 
0 0 0 0 0 0 0 0 0 
0 0 0 0 0 0 0 0 0 
0 0 0 0 0 0 0 0 0 
0 0 0 0 0 0 0 0 0 
0 0 0 0 0 0 0 0 0 
0 0 0 0 0 0 0 0 0 
0 0 0 0 0 0 0 0 0 
0 0 0 0 0 0 0 0 0 
0 0 0 0 0 0 0 0 0 
0 0 0 0 0 0 0 0 0 
0 0 0 0 0 0 0 0 0 
0 0 0 0 0 0 0 0 0 
0 0 0 0 0 0 0 0 0 
0 0 0 0 0 0 0 0 0 
0 0 0 0 0 0 0 0 0 
0 0 0 0 0 0 0 0 0 
0 0 0 0 0 0 0 0 0 
0 0 0 0 0 0 0 0 0 
0 0 0 0 0 0 0 0 0 
0 0 0 0 0 0 0 0 0 
0 0 0 0 0 0 0 0 0 
0 0 0 0 0 0 0 0 0 
0 0 0 0 0 0 0 0 0 
0 0 0 0 0 0 0 0 0 
0 0 0 0 0 0 0 0 0 
0 0 0 0 0 0 0 0 0 
0 0 0 0 0 0 0 0 0 
0 0 0 0 0 0 0 0 0 
0 0 0 0 0 0 0 0 0 
0 0 0 0 0 0 0 0 0 
0 0 0 0 0 0 0 0 0 
0 0 0 0 0 0 0 0 0 
0 0 0 0 0 0 0 0 0 
0 0 0 0 0 0 0 0 0 
0 0 0 0 0 0 0 0 0 
0 0 0 0 0 0 0 0 0 
0 0 0 0 0 0 0 0 0 
0 0 0 0 0 0 0 0 0 
0 0 0 0 0 0 0 0 0 
0 0 0 0 0 0 0 0 0 
0 0 0 0 0 0 0 0 0 
0 0 0 0 0 0 0 0 0 
0 0 0 0 0 0 0 0 0 
0 0 0 0 0 0 0 0 0 
0 0 0 0 0 0 0 0 0 
0 0 0 0 0 0 0 0 0 
0 0 0 0 0 0 0 0 0 
0 0 0 0 0 0 0 0 0 
0 0 0 0 0 0 0 0 0 
0 0 0 0 0 0 0 0 0 
0 0 0 0 0 0 0 0 0 
0 0 0 0 0 0 0 0 0 
0 0 0 0 0 0 0 0 0 
0 0 0 0 0 0 0 0 0 
0 0 0 0 0 0 0 0 0 
0 0 0 0 0 0 0 0 0 
0 0 0 0 0 0 0 0 0 
0 0 0 0 0 0 0 0 0 
0 0 0 0 0 0 0 0 0 
0 0 0 0 0 0 0 0 0 
0 0 0 0 0 0 0 0 0 
0 0 0 0 0 0 0 0 0 
0 0 0 0 0 0 0 0 0 
0 0 0 0 0 0 0 0 0 
0 0 0 0 0 0 0 0 0 
0 0 0 0 0 0 0 0 0 
0 0 0 0 0 0 0 0 0 
0 0 0 0 0 0 0 0 0 
0 0 0 0 0 0 0 0 0 
0 0 0 0 0 0 0 0 0 
0 0 0 0 0 0 0 0 0 
0 0 0 0 0 0 0 0 0 
0 0 0 0 0 0 0 0 0 
0 0 0 0 0 0 0 0 0 
0 0 0 0 0 0 0 0 0 
0 0 0 0 0 0 0 0 0 
0 0 0 0 0 0 0 0 0 
0 0 0 0 0 0 0 0 0 
0 0 0 0 0 0 0 0 0 
0 0 0 0 0 0 0 0 0 
0 0 0 0 0 0 0 0 0 
0 0 0 0 0 0 0 0 0 
0 0 0 0 0 0 0 0 0 
0 0 0 0 0 0 0 0 0 
0 0 0 0 0 0 0 0 0 
0 0 0 0 0 0 0 0 0 
0 0 0 0 0 0 0 0 0 
0 0 0 0 0 0 0 0 0 
0 0 0 0 0 0 0 0 0 
0 0 0 0 0 0 0 0 0 
0 0 0 0 0 0 0 0 0 
0 0 0 0 0 0 0 0 0 
0 0 0 0 0 0 0 0 0 
0 0 0 0 0 0 0 0 0 
0 0 0 0 0 0 0 0 0 
0 0 0 0 0 0 0 0 0 
0 0 0 0 0 0 0 0 0 
0 0 0 0 0 0 0 0 0 
0 0 0 0 0 0 0 0 0 
0 0 0 0 0 0 0 0 0 
0 0 0 0 0 0 0 0 0 
0 0 0 0 0 0 0 0 0 
0 0 0 0 0 0 0 0 0 
0 0 0 0 0 0 0 0 0 
0 0 0 0 0 0 0 0 0 
0 0 0 0 0 0 0 0 0 
0 0 0 0 0 0 0 0 0 
0 0 0 0 0 0 0 0 0 
0 0 0 0 0 0 0 0 0 
0 0 0 0 0 0 0 0 0 
0 0 0 0 0 0 0 0 0 
0 0 0 0 0 0 0 0 0 
0 0 0 0 0 0 0 0 0 
0 0 0 0 0 0 0 0 0 
0 0 0 0 0 0 0 0 0 
0 0 0 0 0 0 0 0 0 
0 0 0 0 0 0 0 0 0 
0 0 0 0 0 0 0 0 0 
0 0 0 0 0 0 0 0 0 
0 0 0 0 0 0 0 0 0 
0 0 0 0 0 0 0 0 0 
0 0 0 0 0 0 0 0 0 
0 0 0 0 0 0 0 0 0 
0 0 0 0 0 0 0 0 0 
0 0 0 0 0 0 0 0 0 
0 0 0 0 0 0 0 0 0 
0 0 0 0 0 0 0 0 0 
0 0 0 0 0 0 0 0 0 
0 0 0 0 0 0 0 0 0 
0 0 0 0 0 0 0 0 0 
0 0 0 0 0 0 0 0 0 
0 0 0 0 0 0 0 0 0 
0 0 0 0 0 0 0 0 0 
0 0 0 0 0 0 0 0 0 
0 0 0 0 0 0 0 0 0 
0 0 0 0 0 0 0 0 0 
0 0 0 0 0 0 0 0 0 
0 0 0 0 0 0 0 0 0 
0 0 0 0 0 0 0 0 0 
0 0 0 0 0 0 0 0 0 
0 0 0 0 0 0 0 0 0 
0 0 0 0 0 0 0 0 0 
0 0 0 0 0 0 0 0 0 
0 0 0 0 0 0 0 0 0 
0 0 0 0 0 0 0 0 0 
0 0 0 0 0 0 0 0 0 
0 0 0 0 0 0 0 0 0 
0 0 0 0 0 0 0 0 0 
0 0 0 0 0 0 0 0 0 
0 0 0 0 0 0 0 0 0 
0 0 0 0 0 0 0 0 0 
0 0 0 0 0 0 0 0 0 
0 0 0 0 0 0 0 0 0 
0 0 0 0 0 0 0 0 0 
0 0 0 0 0 0 0 0 0 
0 0 0 0 0 0 0 0 0 
0 0 0 0 0 0 0 0 0 
0 0 0 0 0 0 0 0 0 
0 0 0 0 0 0 0 0 0 
0 0 0 0 0 0 0 0 0 
0 0 0 0 0 0 0 0 0 
0 0 0 0 0 0 0 0 0 
0 0 0 0 0 0 0 0 0 
0 0 0 0 0 0 0 0 0 
0 0 0 0 0 0 0 0 0 
0 0 0 0 0 0 0 0 0 
0 0 0 0 0 0 0 0 0 
0 0 0 0 0 0 0 0 0 
0 0 0 0 0 0 0 0 0 
0 0 0 0 0 0 0 0 0 
0 0 0 0 0 0 0 0 0 
0 0 0 0 0 0 0 0 0 
0 0 0 0 0 0 0 0 0 
0 0 0 0 0 0 0 0 0 
0 0 0 0 0 0 0 0 0 
0 0 0 0 0 0 0 0 0 
0 0 0 0 0 0 0 0 0 
0 0 0 0 0 0 0 0 0 
0 0 0 0 0 0 0 0 0 
0 0 0 0 0 0 0 0 0 
0 0 0 0 0 0 0 0 0 
0 0 0 0 0 0 0 0 0 
0 0 0 0 0 0 0 0 0 
0 0 0 0 0 0 0 0 0 
0 0 0 0 0 0 0 0 0 
0 0 0 0 0 0 0 0 0 
0 0 0 0 0 0 0 0 0 
0 0 0 0 0 0 0 0 0 
0 0 0 0 0 0 0 0 0 
0 0 0 0 0 0 0 0 0 
0 0 0 0 0 0 0 0 0 
0 0 0 0 0 0 0 0 0 
0 0 0 0 0 0 0 0 0 
0 0 0 0 0 0 0 0 0 
0 0 0 0 0 0 0 0 0 
0 0 0 0 0 0 0 0 0 
0 0 0 0 0 0 0 0 0 
0 0 0 0 0 0 0 0 0 
0 0 0 0 0 0 0 0 0 
0 0 0 0 0 0 0 0 0 
0 0 0 0 0 0 0 0 0 
0 0 0 0 0 0 0 0 0 
0 0 0 0 0 0 0 0 0 
0 0 0 0 0 0 0 0 0 
0 0 0 0 0 0 0 0 0 
0 0 0 0 0 0 0 0 0 
0 0 0 0 0 0 0 0 0 
0 0 0 0 0 0 0 0 0 
0 0 0 0 0 0 0 0 0 
0 0 0 0 0 0 0 0 0 
0 0 0 0 0 0 0 0 0 
0 0 0 0 0 0 0 0 0 
0 0 0 0 0 0 0 0 0 
0 0 0 0 0 0 0 0 0 
0 0 0 0 0 0 0 0 0 
0 0 0 0 0 0 0 0 0 
0 0 0 0 0 0 0 0 0 
0 0 0 0 0 0 0 0 0 
0 0 0 0 0 0 0 0 0 
0 0 0 0 0 0 0 0 0 
0 0 0 0 0 0 0 0 0 
0 0 0 0 0 0 0 0 0 
0 0 0 0 0 0 0 0 0 
0 0 0 0 0 0 0 0 0 
0 0 0 0 0 0 0 0 0 
0 0 0 0 0 0 0 0 0 
0 0 0 0 0 0 0 0 0 
0 0 0 0 0 0 0 0 0 
0 0 0 0 0 0 0 0 0 
0 0 0 0 0 0 0 0 0 
0 0 0 0 0 0 0 0 0 
0 0 0 0 0 0 0 0 0 
0 0 0 0 0 0 0 0 0 
0 0 0 0 0 0 0 0 0 
0 0 0 0 0 0 0 0 0 
0 0 0 0 0 0 0 0 0 
0 0 0 0 0 0 0 0 0 
0 0 0 0 0 0 0 0 0 
0 0 0 0 0 0 0 0 0 
0 0 0 0 0 0 0 0 0 
0 0 0 0 0 0 0 0 0 
0 0 0 0 0 0 0 0 0 
0 0 0 0 0 0 0 0 0 
0 0 0 0 0 0 0 0 0 
0 0 0 0 0 0 0 0 0 
0 0 0 0 0 0 0 0 0 
0 0 0 0 0 0 0 0 0 
0 0 0 0 0 0 0 0 0 
0 0 0 0 0 0 0 0 0 
0 0 0 0 0 0 0 0 0 
0 0 0 0 0 0 0 0 0 
0 0 0 0 0 0 0 0 0 
0 0 0 0 0 0 0 0 0 
0 0 0 0 0 0 0 0 0 
0 0 0 0 0 0 0 0 0 
0 0 0 0 0 0 0 0 0 
0 0 0 0 0 0 0 0 0 
0 0 0 0 0 0 0 0 0 
0 0 0 0 0 0 0 0 0 
0 0 0 0 0 0 0 0 0 
0 0 0 0 0 0 0 0 0 
0 0 0 0 0 0 0 0 0 
0 0 0 0 0 0 0 0 0 
0 0 0 0 0 0 0 0 0 
0 0 0 0 0 0 0 0 0 
0 0 0 0 0 0 0 0 0 
0 0 0 0 0 0 0 0 0 
0 0 0 0 0 0 0 0 0 
0 0 0 0 0 0 0 0 0 
0 0 0 0 0 0 0 0 0 
0 0 0 0 0 0 0 0 0 
0 0 0 0 0 0 0 0 0 
0 0 0 0 0 0 0 0 0 
0 0 0 0 0 0 0 0 0 
0 0 0 0 0 0 0 0 0 
0 0 0 0 0 0 0 0 0 
0 0 0 0 0 0 0 0 0 
0 0 0 0 0 0 0 0 0 
0 0 0 0 0 0 0 0 0 
0 0 0 0 0 0 0 0 0 
0 0 0 0 0 0 0 0 0 
0 0 0 0 0 0 0 0 0 
0 0 0 0 0 0 0 0 0 
0 0 0 0 0 0 0 0 0 
0 0 0 0 0 0 0 0 0 
0 0 0 0 0 0 0 0 0 
0 0 0 0 0 0 0 0 0 
0 0 0 0 0 0 0 0 0 
0 0 0 0 0 0 0 0 0 
0 0 0 0 0 0 0 0 0 
0 0 0 0 0 0 0 0 0 
0 0 0 0 0 0 0 0 0 
0 0 0 0 0 0 0 0 0 
0 0 0 0 0 0 0 0 0 
0 0 0 0 0 0 0 0 0 
0 0 0 0 0 0 0 0 0 
0 0 0 0 0 0 0 0 0 
0 0 0 0 0 0 0 0 0 
0 0 0 0 0 0 0 0 0 
0 0 0 0 0 0 0 0 0 
0 0 0 0 0 0 0 0 0 
0 0 0 0 0 0 0 0 0 
0 0 0 0 0 0 0 0 0 
0 0 0 0 0 0 0 0 0 
0 0 0 0 0 0 0 0 0 
0 0 0 0 0 0 0 0 0 
0 0 0 0 0 0 0 0 0 
0 0 0 0 0 0 0 0 0 
0 0 0 0 0 0 0 0 0 
0 0 0 0 0 0 0 0 0 
0 0 0 0 0 0 0 0 0 
0 0 0 0 0 0 0 0 0 
0 0 0 0 0 0 0 0 0 
0 0 0 0 0 0 0 0 0 
0 0 0 0 0 0 0 0 0 
0 0 0 0 0 0 0 0 0 
0 0 0 0 0 0 0 0 0 
0 0 0 0 0 0 0 0 0 
0 0 0 0 0 0 0 0 0 
0 0 0 0 0 0 0 0 0 
0 0 0 0 0 0 0 0 0 
0 0 0 0 0 0 0 0 0 
0 0 0 0 0 0 0 0 0 
0 0 0 0 0 0 0 0 0 
0 0 0 0 0 0 0 0 0 
0 0 0 0 0 0 0 0 0 
0 0 0 0 0 0 0 0 0 
0 0 0 0 0 0 0 0 0 
0 0 0 0 0 0 0 0 0 
0 0 0 0 0 0 0 0 0 
0 0 0 0 0 0 0 0 0 
0 0 0 0 0 0 0 0 0 
0 0 0 0 0 0 0 0 0 
0 0 0 0 0 0 0 0 0 
0 0 0 0 0 0 0 0 0 
0 0 0 0 0 0 0 0 0 
0 0 0 0 0 0 0 0 0 
0 0 0 0 0 0 0 0 0 
0 0 0 0 0 0 0 0 0 
0 0 0 0 0 0 0 0 0 
0 0 0 0 0 0 0 0 0 
0 0 0 0 0 0 0 0 0 
0 0 0 0 0 0 0 0 0 
0 0 0 0 0 0 0 0 0 
0 0 0 0 0 0 0 0 0 
0 0 0 0 0 0 0 0 0 
0 0 0 0 0 0 0 0 0 
0 0 0 0 0 0 0 0 0 
0 0 0 0 0 0 0 0 0 
0 0 0 0 0 0 0 0 0 
0 0 0 0 0 0 0 0 0 
0 0 0 0 0 0 0 0 0 
0 0 0 0 0 0 0 0 0 
0 0 0 0 0 0 0 0 0 
0 0 0 0 0 0 0 0 0 
0 0 0 0 0 0 0 0 0 
0 0 0 0 0 0 0 0 0 
0 0 0 0 0 0 0 0 0 
0 0 0 0 0 0 0 0 0 
0 0 0 0 0 0 0 0 0 
0 0 0 0 0 0 0 0 0 
0 0 0 0 0 0 0 0 0 
0 0 0 0 0 0 0 0 0 
0 0 0 0 0 0 0 0 0 
0 0 0 0 0 0 0 0 0 
0 0 0 0 0 0 0 0 0 
0 0 0 0 0 0 0 0 0 
0 0 0 0 0 0 0 0 0 
0 0 0 0 0 0 0 0 0 
0 0 0 0 0 0 0 0 0 
0 0 0 0 0 0 0 0 0 
0 0 0 0 0 0 0 0 0 
0 0 0 0 0 0 0 0 0 
0 0 0 0 0 0 0 0 0 
0 0 0 0 0 0 0 0 0 
0 0 0 0 0 0 0 0 0 
0 0 0 0 0 0 0 0 0 
0 0 0 0 0 0 0 0 0 
0 0 0 0 0 0 0 0 0 
0 0 0 0 0 0 0 0 0 
0 0 0 0 0 0 0 0 0 
0 0 0 0 0 0 0 0 0 
0 0 0 0 0 0 0 0 0 
0 0 0 0 0 0 0 0 0 
0 0 0 0 0 0 0 0 0 
0 0 0 0 0 0 0 0 0 
0 0 0 0 0 0 0 0 0 
0 0 0 0 0 0 0 0 0 
0 0 0 0 0 0 0 0 0 
0 0 0 0 0 0 0 0 0 
0 0 0 
v 3 1189 double
0.00573062 -0.9746 1.10149 -1.42711 0.656846 0.171484 0.381628 -1.42472 0.230772 
0.330553 0.119924 -0.660888 -0.0321907 -0.381862 -0.151379 0.235323 -0.621824 -0.333123 
-0.279041 0.041261 -0.943595 0.586691 -0.316334 0.0265231 -0.120945 0.178224 -0.260734 
0.115204 -0.316866 0.39263 -0.484318 0.178957 0.462186 0.0317891 -1.02709 0.468476 
-0.323644 0.692309 -0.605811 0.000986904 -0.618055 -0.286732 0.818609 -0.914227 0.714714 
0.545709 0.480872 0.332384 0.0778264 -0.60028 -0.437507 -0.803387 0.48033 -0.678792 
-0.78488 0.866418 -0.147592 0.0890233 0.505939 -0.221378 -1.02481 0.124863 0.440968 
-0.439686 -0.457373 -0.174547 0.278015 -0.422628 -0.865586 -0.885545 0.340147 0.118666 
0.512187 0.214323 -0.134507 0.688035 -0.188781 0.303679 -0.297481 -0.207804 0.0959547 
0.175576 -0.15579 -0.232149 0.0882675 0.671405 0.633442 1.69012 1.04862 0.426124 
-0.235247 0.28132 0.2429 -0.217937 0.0163814 0.0753359 -0.0999907 -0.543434 0.0774045 
0.298112 0.0203581 0.289097 0.270201 0.691013 -0.0333505 -1.24468 0.159824 0.546964 
-0.239505 -0.706933 0.312089 -0.0146701 0.338615 0.0376948 0.430791 -0.135228 0.0418566 
-0.405147 0.00385563 -0.2934 -0.0229335 -0.411397 -0.298286 0.0366177 -0.116113 0.360817 
0.180981 -0.655663 1.07956 0.0553291 0.307978 -0.353627 -0.331987 -0.359412 0.40222 
-0.678726 -0.0209646 -0.0741436 0.195211 0.813942 0.320244 0.680791 -0.243311 -0.384076 
-0.316472 -0.561644 0.747052 -1.09854 -0.795183 -0.0740215 -0.630696 -0.203661 -0.346566 
-1.04243 -0.280102 -0.764666 -0.26752 -0.706597 0.0906288 -0.00818101 -0.306107 -0.547095 
0.194555 -0.19674 -0.192393 -0.189907 0.0797391 -0.205481 0.0441533 -0.0637851 -0.0165893 
1.02152 -0.249774 -0.231856 -0.0477327 -0.432938 0.169471 0.172346 -0.825291 -0.199261 
-0.234412 -0.605613 0.167586 0.516608 -0.751432 -0.273539 -0.8775 -0.565863 -1.42252 
-0.42753 -0.0318586 -0.457166 -0.0144142 -0.467012 0.154571 -0.479083 -0.554803 0.734947 
-0.267182 0.408444 0.805652 0.420966 -0.562048 0.0778122 0.559999 -0.677571 0.427421 
0.101127 0.00557799 -0.200825 -0.126823 0.257996 0.55461 -0.038691 -0.75285 0.270268 
0.0381682 -0.50339 0.304094 0.366057 -0.135032 0.503121 0.398841 -0.349286 -0.251801 
0.378491 0.488791 0.0430328 0.645227 -0.354091 -0.0661191 0.828202 -0.128786 -0.407874 
-0.554034 -0.236109 -0.494969 -0.746443 0.31572 -0.151915 -0.29462 -0.50647 -0.217948 
-0.0911004 -0.183718 -0.200484 -0.109153 0.0516189 0.287779 -0.708161 0.24468 0.0420982 
0.0712591 -0.262578 -0.505173 -0.536909 0.238841 -0.090398 -0.435455 -0.0854271 -0.166074 
-0.151304 -0.265066 -0.2239 -0.476176 0.735694 0.0517147 -0.146039 -0.158845 0.310992 
-0.235406 0.0137713 -0.204943 0.346159 -0.474876 0.364841 -0.00701405 -0.231439 0.565437 
0.532529 -0.0190703 0.256297 0.0570867 -0.425403 0.818158 -0.514068 -0.45988 -0.111553 
0.375943 -0.107985 0.576399 -0.120892 -0.445166 0.898458 0.137059 -0.0246186 0.402889 
-0.0350935 -0.554632 0.5394 0.145279 0.0167477 -0.386074 -0.110201 -0.181329 0.193675 
-0.18402 -0.5196 -0.502128 -0.0849651 0.760363 -0.08743 0.0604422 -0.436993 0.348245 
0.347315 -0.145836 -0.150009 0.170348 -0.0244676 0.162005 0.398213 0.142807 -0.31825 
0.411847 -0.158833 0.435516 0.00485535 0.508032 0.29502 0.414574 -0.0441688 -0.0648927 
-0.815802 0.0175686 -0.151533 0.179457 -0.768971 -0.358321 0.384199 0.836724 0.0528346 
-0.590127 -0.551637 0.380836 0.0452047 -0.236826 -0.0771994 -0.179853 -0.318193 0.155534 
-0.369651 -0.976675 0.100683 -0.656435 -0.448683 0.253557 -0.315257 -0.183677 -0.124002 
-0.3126 0.209504 0.312689 0.699776 0.373959 0.314271 0.115288 -0.216858 0.0341883 
-0.0185575 0.0684856 0.168473 0.462431 0.535583 0.0129453 0.271074 -0.107181 -0.42049 
0.473761 0.0693472 -0.246138 0.5913 -0.173495 0.3363 0.680036 0.260641 0.153636 
0.13937 0.0288709 0.537992 -0.321899 -0.398062 -0.381214 -0.599769 0.584374 -0.0167333 
0.280585 -0.312842 0.145504 -0.04928 -0.483338 0.489066 -0.550001 0.121783 -0.0973938 
0.000287613 -0.229376 -0.355293 -0.207317 0.0108748 -0.0392482 0.378707 -0.214558 0.0575826 
0.0215003 0.530079 0.116133 -0.0760944 0.0233813 -0.170762 -0.0623723 -0.297846 0.363264 
0.11496 0.0277284 -0.425063 -0.547162 -0.374386 0.175598 0.361599 0.0443822 -0.0611319 
-0.0853209 0.138122 -0.355494 0.128002 -0.325612 0.639699 0.705121 -0.209424 1.06603 
0.52398 -0.0721509 -0.302895 -0.655687 -0.333998 0.791243 -0.560181 1.10023 -0.548637 
-0.745153 -0.194073 0.20828 -0.334637 0.327111 0.167423 -0.339335 0.227741 -0.252468 
0.15654 0.477914 -0.640209 0.231844 0.568391 0.22823 -0.135401 -0.101485 0.158053 
-0.462419 -0.026893 -0.244219 0.0988696 0.0436772 -0.445109 -0.270142 0.106318 0.349113 
-0.413927 0.277842 -0.240576 0.297719 0.43776 -0.700688 0.553163 0.903017 0.518304 
-0.536127 -0.332895 0.417104 0.0734275 0.31768 0.00981305 -0.635244 0.0525967 0.146159 
0.224501 -0.19171 -0.106261 0.136068 0.174431 -0.0449236 -0.356767 0.0154895 0.239667 