# vtk DataFile Version 4.0
Generated by LIGGGHTS
ASCII
DATASET POLYDATA
POINTS 1355 float
-0.89887 -0.460797 -0.460304 -0.766735 -0.460345 -0.460363 -0.686989 -0.460104 -0.460309 
-0.607061 -0.460673 -0.460326 -0.525865 -0.460496 -0.460615 -0.44603 -0.460278 -0.460439 
-0.365529 -0.459764 -0.460511 -0.280404 -0.460365 -0.460669 -0.156511 -0.460545 -0.460216 
-0.0757943 -0.451875 -0.460392 0.00362416 -0.460144 -0.460475 0.0834273 -0.460073 -0.460396 
0.163159 -0.460189 -0.460388 0.243237 -0.460264 -0.460465 0.323149 -0.460168 -0.460537 
0.402893 -0.459855 -0.460558 0.482673 -0.460058 -0.460571 0.578363 -0.460295 -0.460422 
0.658215 -0.460457 -0.460467 0.739518 -0.460131 -0.460586 0.819297 -0.460419 -0.460582 
0.901204 -0.4603 -0.460407 -0.960654 -0.410976 -0.460933 -0.886455 -0.382366 -0.460839 
-0.731518 -0.38888 -0.461041 -0.64614 -0.391543 -0.460417 -0.566523 -0.392365 -0.46018 
-0.486743 -0.390973 -0.460417 -0.406805 -0.391079 -0.460497 -0.329441 -0.372458 -0.460247 
-0.209876 -0.401627 -0.460443 -0.131744 -0.384947 -0.460808 0.0433661 -0.390975 -0.460547 
0.123408 -0.390845 -0.460515 0.203457 -0.391348 -0.46036 0.283337 -0.391077 -0.460522 
0.363169 -0.389815 -0.460653 0.442826 -0.383181 -0.460461 0.530641 -0.396186 -0.460478 
0.617809 -0.391179 -0.460802 0.697938 -0.391903 -0.460381 0.779914 -0.391088 -0.46017 
0.859888 -0.391955 -0.46075 0.960283 -0.407016 -0.460463 -0.96011 -0.331417 -0.460114 
-0.8856 -0.30277 -0.460673 -0.809224 -0.362673 -0.460486 -0.685898 -0.322919 -0.461514 
-0.564947 -0.313428 -0.461043 -0.485401 -0.311219 -0.460466 -0.399753 -0.311585 -0.460344 
-0.257402 -0.338169 -0.460459 -0.179866 -0.319988 -0.460164 -0.100679 -0.311952 -0.460496 
-0.0291368 -0.357148 -0.460277 0.036194 -0.311609 -0.460529 0.164357 -0.322269 -0.460479 
0.2441 -0.321677 -0.460666 0.323706 -0.316975 -0.460338 0.403316 -0.313727 -0.46064 
0.490438 -0.318963 -0.460511 0.569942 -0.326624 -0.460563 0.657921 -0.322355 -0.460107 
0.737636 -0.32344 -0.460645 0.881881 -0.315494 -0.460913 0.960376 -0.32763 -0.460397 
-0.960204 -0.251772 -0.460145 -0.808642 -0.28278 -0.460361 -0.733113 -0.256876 -0.460336 
-0.629594 -0.267092 -0.460096 -0.530562 -0.242345 -0.460732 -0.450825 -0.239187 -0.460821 
-0.322165 -0.29288 -0.460887 -0.0327958 -0.271345 -0.460507 0.104605 -0.270785 -0.460509 
0.179508 -0.241248 -0.460117 0.318557 -0.237121 -0.460117 0.53279 -0.251312 -0.460876 
0.612367 -0.256897 -0.460115 0.698775 -0.253693 -0.460262 0.779005 -0.255687 -0.460322 
0.88172 -0.23571 -0.460324 0.960297 -0.24824 -0.460593 -0.960218 -0.17196 -0.46021 
-0.887873 -0.218384 -0.460302 -0.80953 -0.203205 -0.461021 -0.675572 -0.201949 -0.460484 
-0.595134 -0.195553 -0.460134 -0.49767 -0.170069 -0.460403 -0.371553 -0.230711 -0.460694 
-0.29037 -0.219659 -0.460676 -0.198794 -0.226459 -0.46059 -0.115117 -0.232898 -0.460242 
-0.0461244 -0.192757 -0.460676 0.0358825 -0.23165 -0.460099 0.100828 -0.181008 -0.4604 
0.249782 -0.195712 -0.460726 0.385706 -0.191246 -0.460428 0.460773 -0.217961 -0.460545 
0.568375 -0.179767 -0.46086 0.648673 -0.185827 -0.460799 0.728272 -0.179389 -0.460524 
0.818725 -0.186944 -0.460347 0.960334 -0.168811 -0.460472 -0.893979 -0.127823 -0.460411 
-0.814133 -0.123769 -0.46017 -0.742947 -0.159258 -0.460671 -0.64101 -0.130314 -0.460697 
-0.561988 -0.123349 -0.460448 -0.418555 -0.166217 -0.460443 -0.339552 -0.157525 -0.460797 
-0.238731 -0.157869 -0.460603 -0.151648 -0.161854 -0.460936 -0.0855894 -0.112006 -0.460119 
0.0263378 -0.152898 -0.460768 0.123118 -0.104062 -0.460248 0.1781 -0.161291 -0.460493 
0.316217 -0.152098 -0.460349 0.421666 -0.102918 -0.461062 0.496252 -0.137059 -0.460448 
0.613922 -0.114106 -0.460573 0.813134 -0.107634 -0.460634 0.885392 -0.141705 -0.460441 
-0.960135 -0.0816068 -0.460523 -0.857199 -0.0571746 -0.461139 -0.777531 -0.0526916 -0.460762 
-0.703749 -0.0821582 -0.461024 -0.585727 -0.045375 -0.460897 -0.508727 -0.0647143 -0.460321 
-0.429836 -0.074494 -0.460551 -0.350661 -0.0791837 -0.460946 -0.271389 -0.0856516 -0.460599 
-0.191762 -0.0925453 -0.460541 -0.0714887 -0.0333339 -0.46041 -0.0108609 -0.0833907 -0.460364 
0.0623595 -0.0530142 -0.460431 0.200302 -0.0743129 -0.460555 0.279672 -0.0811541 -0.460578 
0.35604 -0.0578934 -0.460436 0.545038 -0.0737731 -0.460313 0.658742 -0.0457823 -0.46032 
0.73799 -0.080456 -0.461158 0.96025 -0.0891532 -0.460815 -0.92214 -0.0118215 -0.460508 
-0.821434 0.0134851 -0.460182 -0.742232 0.0189564 -0.460425 -0.668249 -0.0107493 -0.460837 
-0.558763 0.0310469 -0.460229 -0.473141 0.00604341 -0.460795 -0.386317 -0.00791955 -0.460354 
-0.306139 -0.0138731 -0.460382 -0.227212 -0.0198403 -0.460168 -0.148955 -0.0254131 -0.460267 
0.00115309 -0.00246911 -0.460549 0.075018 0.0256466 -0.46075 0.137133 -0.0255059 -0.460723 
0.211168 0.00509349 -0.460781 0.292789 -0.00246594 -0.460116 0.369177 0.020716 -0.460344 
0.435196 -0.0241438 -0.460162 0.510011 -0.00479956 -0.439924 0.586913 -0.00593223 -0.460677 
0.68689 0.0290976 -0.460117 0.759886 -0.00356469 -0.460118 0.838012 -0.0321093 -0.46042 
0.916871 -0.0226695 -0.4609 -0.960542 0.0572302 -0.460614 -0.881324 0.0649703 -0.461401 
-0.787074 0.0851818 -0.461111 -0.707357 0.0901847 -0.460899 -0.632904 0.0609592 -0.460692 
-0.497484 0.0824211 -0.460318 -0.420043 0.0641735 -0.460229 -0.340543 0.0573079 -0.460246 
-0.261058 0.0519965 -0.460334 -0.181748 0.0469905 -0.460509 -0.100202 0.041134 -0.460441 
0.0141672 0.0758449 -0.451804 0.148475 0.0533305 -0.460335 0.258314 0.0695226 -0.460236 
0.392505 0.0966708 -0.460563 0.458883 0.0529054 -0.46061 0.537004 0.0668703 -0.460787 
0.616782 0.0675593 -0.460473 0.752127 0.0830711 -0.460707 0.822801 0.0457685 -0.460263 
0.892722 0.0860871 -0.460582 0.960375 0.0440385 -0.460262 -0.96009 0.136298 -0.460549 
-0.847456 0.137243 -0.460554 -0.770121 0.159685 -0.438809 -0.645326 0.14024 -0.460463 
-0.571205 0.11181 -0.460115 -0.502895 0.162492 -0.461313 -0.374795 0.128409 -0.460846 
-0.295673 0.12348 -0.460549 -0.216156 0.118911 -0.460416 -0.136643 0.112591 -0.460269 
-0.0574915 0.108253 -0.460624 0.0876646 0.104975 -0.460564 0.194434 0.117077 -0.46099 
0.304482 0.142673 -0.4606 0.487718 0.130095 -0.460568 0.572084 0.13765 -0.460862 
0.651789 0.138747 -0.460283 0.753557 0.162888 -0.4606 0.82318 0.125131 -0.460425 
0.891087 0.166029 -0.460465 0.960595 0.127839 -0.460438 -0.960562 0.215445 -0.460603 
-0.824586 0.213593 -0.460644 -0.702464 0.19544 -0.460791 -0.414772 0.196644 -0.460676 
-0.332052 0.194225 -0.460465 -0.251692 0.190081 -0.460422 -0.17061 0.184514 -0.460308 
-0.0891494 0.181424 -0.45999 -0.00706363 0.170139 -0.460448 0.0723061 0.183277 -0.46051 
0.152 0.183945 -0.460442 0.235463 0.184571 -0.460518 0.345145 0.21116 -0.460363 
0.419095 0.171145 -0.460584 0.52463 0.201655 -0.460572 0.609162 0.207761 -0.460891 
0.688933 0.208879 -0.460258 0.821258 0.204974 -0.460528 0.960236 0.207686 -0.460353 
-0.960543 0.29637 -0.460069 -0.892381 0.255372 -0.460672 -0.82389 0.295144 -0.460727 
-0.755724 0.254382 -0.460108 -0.604085 0.239269 -0.460989 -0.52473 0.23876 -0.460709 
-0.450731 0.267743 -0.460273 -0.371278 0.263235 -0.460446 -0.289139 0.260341 -0.460218 
-0.206508 0.255317 -0.46042 -0.126623 0.251922 -0.460183 -0.0461165 0.248643 -0.460292 
0.033601 0.25268 -0.460081 0.1134 0.253135 -0.460175 0.193324 0.252389 -0.460522 
0.275027 0.253273 -0.460468 0.384695 0.280581 -0.460505 0.455376 0.241539 -0.460724 
0.562467 0.271915 -0.461044 0.651838 0.279027 -0.460741 0.756468 0.251336 -0.460446 
0.890035 0.245121 -0.460314 -0.892107 0.336641 -0.460442 -0.708068 0.333419 -0.460452 
-0.630524 0.31477 -0.460346 -0.550859 0.314236 -0.460307 -0.429504 0.344392 -0.460725 
-0.328185 0.329395 -0.460462 -0.243884 0.324823 -0.46012 -0.164192 0.322639 -0.460203 
-0.0845749 0.321863 -0.460342 -0.00526469 0.321976 -0.460431 0.0742638 0.322138 -0.460317 
0.154121 0.321887 -0.460485 0.234006 0.321699 -0.460604 0.314955 0.322035 -0.460411 
0.423717 0.350318 -0.46046 0.493291 0.311467 -0.460764 0.602349 0.341374 -0.460418 
0.719229 0.321912 -0.460442 0.80239 0.321557 -0.460594 0.882073 0.323451 -0.460408 
0.959718 0.301812 -0.460776 -0.960296 0.377444 -0.460354 -0.890384 0.416632 -0.460541 
-0.822946 0.374644 -0.45442 -0.750703 0.406226 -0.461073 -0.653153 0.3912 -0.460334 
-0.573596 0.390877 -0.460435 -0.494074 0.391096 -0.460271 -0.369827 0.397141 -0.460207 
-0.282602 0.393346 -0.460543 -0.202884 0.392321 -0.460433 -0.123644 0.391329 -0.460152 
-0.0444581 0.391084 -0.460224 0.0348732 0.391135 -0.460305 0.114547 0.391107 -0.460421 
0.194351 0.390971 -0.460539 0.274247 0.390824 -0.460597 0.354648 0.391043 -0.460423 
0.463201 0.419799 -0.46026 0.532964 0.380754 -0.46026 0.675841 0.388873 -0.460438 
0.75576 0.393249 -0.460619 0.840777 0.39158 -0.460365 0.921353 0.391898 -0.460791 
-0.959875 0.459576 -0.460297 -0.809442 0.46017 -0.460489 -0.692568 0.460447 -0.461006 
-0.613065 0.46022 -0.460212 -0.533604 0.460239 -0.460105 -0.453609 0.460059 -0.460231 
-0.322251 0.461046 -0.460518 -0.242454 0.461071 -0.460551 -0.162788 0.460665 -0.460559 
-0.0835893 0.460369 -0.460428 -0.00452228 0.460286 -0.460419 0.0749017 0.460246 -0.460414 
0.154608 0.460195 -0.460464 0.234418 0.460101 -0.460459 0.314284 0.460047 -0.460424 
0.39437 0.460214 -0.460148 0.531803 0.460346 -0.460735 0.620127 0.458873 -0.46032 
0.711832 0.4601 -0.460353 0.799728 0.460097 -0.460541 0.880785 0.460424 -0.46045 
0.960518 0.46055 -0.460293 -0.960192 -0.460895 -0.399636 -0.884546 -0.460118 -0.374551 
-0.726888 -0.460298 -0.391102 -0.647056 -0.460177 -0.391255 -0.565918 -0.460089 -0.391892 
-0.486056 -0.460193 -0.39165 -0.405535 -0.459772 -0.391637 -0.322846 -0.460039 -0.393302 
-0.220828 -0.460101 -0.407326 -0.115379 -0.460734 -0.391864 -0.0357982 -0.460708 -0.391481 
0.0436829 -0.460147 -0.39135 0.123259 -0.460346 -0.391186 0.203148 -0.460576 -0.39154 
0.28339 -0.460724 -0.391635 0.363184 -0.460637 -0.391583 0.442868 -0.460648 -0.39165 
0.530464 -0.460274 -0.396951 0.618707 -0.46014 -0.391431 0.699415 -0.455323 -0.39224 
[...]
POINT_DATA 1355
FIELD FieldData 7
id 1 1355 int
366 408 584 322 662 206 563 371 419 
523 551 145 607 585 151 530 365 186 
620 156 70 664 692 632 759 714 370 
120 208 723 59 512 435 712 211 457 
20 256 338 470 195 678 320 643 534 
171 196 105 493 581 542 514 245 234 
347 708 214 280 305 529 396 291 444 
367 476 155 724 314 136 721 375 250 
442 498 54 200 431 623 593 109 184 
446 647 159 267 289 373 275 324 62 
533 376 95 589 76 722 543 576 75 
202 572 683 676 680 445 83 641 185 
331 96 99 458 575 40 57 88 239 
31 281 298 126 300 48 521 531 428 
254 592 758 361 412 478 14 437 312 
252 153 397 483 704 321 140 726 143 
142 351 651 6 528 433 92 690 689 
359 154 569 304 439 339 170 540 639 
461 177 700 378 459 310 258 51 182 
549 369 323 121 382 507 2 495 224 
612 720 590 539 166 460 97 240 537 
127 580 85 544 293 697 634 129 104 
423 742 161 32 384 25 671 74 278 
675 383 71 266 19 22 627 717 162 
602 146 626 247 167 125 191 199 294 
586 640 441 637 596 149 475 463 387 
703 269 130 8 393 218 348 420 613 
663 16 578 402 682 421 715 299 698 
747 261 622 355 571 411 42 748 416 
227 391 527 557 346 67 274 319 242 
649 9 73 251 766 409 535 89 4 
260 318 650 259 388 311 94 618 39 
582 53 673 729 3 69 496 363 201 
188 599 670 228 519 667 472 669 660 
646 654 43 230 226 306 427 316 614 
764 329 545 179 389 12 453 440 197 
452 90 604 386 686 38 587 285 725 
743 181 518 225 761 513 5 559 72 
336 66 116 78 628 131 679 959 103 
273 1154 276 516 47 233 325 108 223 
666 157 455 205 175 287 221 56 751 
736 426 744 642 611 302 413 473 741 
684 118 653 18 770 15 552 82 272 
100 87 343 490 219 601 290 465 110 
438 372 767 631 255 879 307 699 636 
187 550 80 532 313 645 279 509 556 
114 757 144 81 668 58 615 944 616 
558 644 341 189 407 36 462 597 357 
394 565 554 29 511 334 282 570 424 
286 541 399 24 447 364 183 86 566 
492 501 718 169 886 248 33 422 11 
502 395 46 106 345 192 711 137 60 
44 112 497 429 479 27 45 694 326 
358 352 746 21 629 522 568 28 271 
710 236 524 111 737 102 818 134 216 
733 147 194 148 172 101 775 443 415 
738 84 1127 243 474 180 482 381 374 
436 638 450 253 425 93 827 91 215 
505 403 520 277 591 133 719 107 288 
350 762 193 546 41 970 333 231 330 
135 928 574 308 328 232 432 296 821 
659 1038 49 13 61 681 400 648 190 
128 392 610 55 209 971 35 665 122 
503 750 687 480 469 508 26 113 608 
123 222 709 340 456 606 297 760 17 
292 138 430 246 98 564 448 283 404 
178 244 132 63 583 464 891 600 1165 
418 417 547 763 499 229 494 385 617 
672 467 119 755 481 727 526 390 210 
728 249 217 871 769 354 158 510 7 
739 466 793 890 500 658 337 986 1166 
846 173 567 1184 573 468 781 927 735 
809 1066 1173 1152 925 685 933 814 921 
414 784 265 749 963 1288 943 504 787 
268 935 831 910 362 1115 619 903 688 
652 867 1167 410 768 973 951 1062 754 
1061 1170 360 828 235 696 779 875 1147 
207 932 241 702 1091 907 454 812 603 
1255 974 1162 848 914 829 176 982 838 
870 950 865 124 691 792 857 919 335 
317 406 985 972 732 165 379 295 707 
937 952 491 765 204 349 904 894 901 
79 851 471 734 786 981 882 356 939 
855 141 489 577 969 674 536 1077 655 
621 918 861 824 895 487 1284 795 731 
800 309 50 605 1052 908 1065 30 1075 
967 434 677 892 52 801 486 905 947 
1078 301 776 962 805 990 332 164 1182 
975 836 815 630 1088 198 926 977 657 
794 954 922 835 656 888 633 730 911 
160 752 968 484 150 401 953 327 893 
837 695 477 220 10 555 380 803 876 
515 791 840 713 65 783 342 864 934 
804 23 538 887 965 203 872 595 929 
994 873 598 884 1180 822 506 237 488 
284 1 344 1137 1177 960 706 398 859 
896 869 716 1041 1156 830 856 115 257 
1313 1142 562 966 139 263 850 174 609 
912 773 917 37 1118 900 368 881 625 
353 756 168 405 845 880 451 949 117 
525 1001 303 262 785 213 68 635 64 
661 553 152 753 817 701 594 984 923 
315 579 377 485 961 212 693 878 938 
1243 561 270 906 1079 1149 1312 1004 866 
823 1334 1143 988 1076 956 825 1006 1330 
163 1159 1123 1093 1231 930 1178 1290 1051 
958 1305 1211 1113 1279 1110 1185 849 1049 
1133 1058 1302 1035 826 844 1116 1339 1197 
1112 1160 1073 832 1193 847 1217 1003 1316 
1032 1267 1347 1000 1344 1145 868 999 1125 
1266 1295 1028 1221 1071 1086 1034 1186 993 
1097 1354 1187 802 1139 1285 1099 1014 1022 
1036 1015 808 995 1054 1144 1056 1008 1322 
1021 1189 1321 1129 1246 902 1174 1346 1105 
1283 1005 936 964 1103 1188 806 780 789 
1213 1315 1172 1158 1020 1095 1050 1111 1138 
916 992 1201 797 820 782 1089 1319 1087 
833 1023 1130 1135 1270 1012 834 978 924 
1183 1119 1082 1083 807 1026 980 1216 1018 
1016 1273 839 1067 1349 1258 1176 1179 1084 
1010 1114 1048 931 1027 799 1204 1150 1009 
1109 34 842 810 1044 1153 1333 1274 1311 
1171 1033 1046 1265 987 1100 1253 1017 1203 
860 790 774 1227 1282 1081 899 1080 1269 
852 915 948 1096 946 1338 1069 1057 1300 
983 1029 955 1025 841 1007 1320 1043 798 
811 1085 1175 1055 1126 1309 1280 1101 998 
976 853 1134 813 1206 1281 940 777 1053 
796 1148 1063 1011 1042 1229 1230 877 1256 
1157 1131 854 771 909 945 1287 1045 1181 
1124 1019 1232 778 898 1353 1161 1102 588 
449 1169 1225 1336 1070 1136 885 1024 1117 
1068 1254 740 1059 1307 1098 979 1264 863 
1064 1262 957 883 238 517 816 897 788 
624 1252 1250 1190 1121 1303 1141 1233 1140 
941 1132 1299 1151 1238 745 1327 1226 1107 
1247 1306 1275 1335 1276 1249 1251 1291 1214 
1106 1210 1215 1199 1031 1325 1308 1202 1224 
1272 1350 1047 1297 1329 1341 1223 1263 1237 
1323 1348 1013 1194 1209 1235 1108 1343 1037 
1292 1228 1192 1317 1331 1219 1342 1352 1304 
1242 1301 1260 1220 1294 1039 1205 1236 1326 
1234 1296 1355 1164 1345 1286 1268 1191 1128 
862 1198 1278 1241 1259 1293 1248 1168 1245 
1240 1196 1314 1289 1195 1328 1072 1351 1298 
991 1261 1094 1200 1310 1146 772 1244 1002 
1332 1257 264 1030 942 1277 1318 1239 1212 
1337 920 1090 705 1208 913 1040 1120 1340 
1122 843 997 1060 1104 996 1074 548 1092 
1324 1155 1271 77 989 1163 560 1207 889 
1222 819 874 858 1218 
type 1 1355 int
1 1 1 1 1 1 1 1 1 
1 1 1 1 1 1 1 1 1 
1 1 1 1 1 1 1 1 1 
1 1 1 1 1 1 1 1 1 
1 1 1 1 1 1 1 1 1 
1 1 1 1 1 1 1 1 1 
1 1 1 1 1 1 1 1 1 
1 1 1 1 1 1 1 1 1 
1 1 1 1 1 1 1 1 1 
1 1 1 1 1 1 1 1 1 
1 1 1 1 1 1 1 1 1 
1 1 1 1 1 1 1 1 1 
1 1 1 1 1 1 1 1 1 
1 1 1 1 1 1 1 1 1 
1 1 1 1 1 1 1 1 1 
1 1 1 1 1 1 1 1 1 
1 1 1 1 1 1 1 1 1 
1 1 1 1 1 1 1 1 1 
1 1 1 1 1 1 1 1 1 
1 1 1 1 1 1 1 1 1 
1 1 1 1 1 1 1 1 1 
1 1 1 1 1 1 1 1 1 
1 1 1 1 1 1 1 1 1 
1 1 1 1 1 1 1 1 1 
1 1 1 1 1 1 1 1 1 
1 1 1 1 1 1 1 1 1 
1 1 1 1 1 1 1 1 1 
1 1 1 1 1 1 1 1 1 
1 1 1 1 1 1 1 1 1 
1 1 1 1 1 1 1 1 1 
1 1 1 1 1 1 1 1 1 
1 1 1 1 1 1 1 1 1 
1 1 1 1 1 1 1 1 1 
1 1 1 1 1 1 1 1 1 
1 1 1 1 1 1 1 1 1 
1 1 1 1 1 1 1 1 1 
1 1 1 1 1 1 1 1 1 
1 1 1 1 1 1 1 1 1 
1 1 1 1 1 1 1 1 1 
1 1 1 1 1 1 1 1 1 
1 1 1 1 1 1 1 1 1 
1 1 1 1 1 1 1 1 1 
1 1 1 1 1 1 1 1 1 
1 1 1 1 1 1 1 1 1 
1 1 1 1 1 1 1 1 1 
1 1 1 1 1 1 1 1 1 
1 1 1 1 1 1 1 1 1 
1 1 1 1 1 1 1 1 1 
1 1 1 1 1 1 1 1 1 
1 1 1 1 1 1 1 1 1 
1 1 1 1 1 1 1 1 1 
1 1 1 1 1 1 1 1 1 
1 1 1 1 1 1 1 1 1 
1 1 1 1 1 1 1 1 1 
1 1 1 1 1 1 1 1 1 
1 1 1 1 1 1 1 1 1 
1 1 1 1 1 1 1 1 1 
1 1 1 1 1 1 1 1 1 
1 1 1 1 1 1 1 1 1 
1 1 1 1 1 1 1 1 1 
1 1 1 1 1 1 1 1 1 
1 1 1 1 1 1 1 1 1 
1 1 1 1 1 1 1 1 1 
1 1 1 1 1 1 1 1 1 
1 1 1 1 1 1 1 1 1 
1 1 1 1 1 1 1 1 1 
1 1 1 1 1 1 1 1 1 
1 1 1 1 1 1 1 1 1 
1 1 1 1 1 1 1 1 1 
1 1 1 1 1 1 1 1 1 
1 1 1 1 1 1 1 1 1 
1 1 1 1 1 1 1 1 1 
1 1 1 1 1 1 1 1 1 
1 1 1 1 1 1 1 1 1 
1 1 1 1 1 1 1 1 1 
1 1 1 1 1 1 1 1 1 
1 1 1 1 1 1 1 1 1 
1 1 1 1 1 1 1 1 1 
1 1 1 1 1 1 1 1 1 
1 1 1 1 1 1 1 1 1 
1 1 1 1 1 1 1 1 1 
1 1 1 1 1 1 1 1 1 
1 1 1 1 1 1 1 1 1 
1 1 1 1 1 1 1 1 1 
1 1 1 1 1 1 1 1 1 
1 1 1 1 1 1 1 1 1 
1 1 1 1 1 1 1 1 1 
1 1 1 1 1 1 1 1 1 
1 1 1 1 1 1 1 1 1 
1 1 1 1 1 1 1 1 1 
1 1 1 1 1 1 1 1 1 
1 1 1 1 1 1 1 1 1 
1 1 1 1 1 1 1 1 1 
1 1 1 1 1 1 1 1 1 
1 1 1 1 1 1 1 1 1 
1 1 1 1 1 1 1 1 1 
1 1 1 1 1 1 1 1 1 
1 1 1 1 1 1 1 1 1 
1 1 1 1 1 1 1 1 1 
1 1 1 1 1 1 1 1 1 
1 1 1 1 1 1 1 1 1 
1 1 1 1 1 1 1 1 1 
1 1 1 1 1 1 1 1 1 
1 1 1 1 1 1 1 1 1 
1 1 1 1 1 1 1 1 1 
1 1 1 1 1 1 1 1 1 
1 1 1 1 1 1 1 1 1 
1 1 1 1 1 1 1 1 1 
1 1 1 1 1 1 1 1 1 
1 1 1 1 1 1 1 1 1 
1 1 1 1 1 1 1 1 1 
1 1 1 1 1 1 1 1 1 
1 1 1 1 1 1 1 1 1 
1 1 1 1 1 1 1 1 1 
1 1 1 1 1 1 1 1 1 
1 1 1 1 1 1 1 1 1 
1 1 1 1 1 1 1 1 1 
1 1 1 1 1 1 1 1 1 
1 1 1 1 1 1 1 1 1 
1 1 1 1 1 1 1 1 1 
1 1 1 1 1 1 1 1 1 
1 1 1 1 1 1 1 1 1 
1 1 1 1 1 1 1 1 1 
1 1 1 1 1 1 1 1 1 
1 1 1 1 1 1 1 1 1 
1 1 1 1 1 1 1 1 1 
1 1 1 1 1 1 1 1 1 
1 1 1 1 1 1 1 1 1 
1 1 1 1 1 1 1 1 1 
1 1 1 1 1 1 1 1 1 
1 1 1 1 1 1 1 1 1 
1 1 1 1 1 1 1 1 1 
1 1 1 1 1 1 1 1 1 
1 1 1 1 1 1 1 1 1 
1 1 1 1 1 1 1 1 1 
1 1 1 1 1 1 1 1 1 
1 1 1 1 1 1 1 1 1 
1 1 1 1 1 1 1 1 1 
1 1 1 1 1 1 1 1 1 
1 1 1 1 1 1 1 1 1 
1 1 1 1 1 1 1 1 1 
1 1 1 1 1 1 1 1 1 
1 1 1 1 1 1 1 1 1 
1 1 1 1 1 1 1 1 1 
1 1 1 1 1 1 1 1 1 
1 1 1 1 1 1 1 1 1 
1 1 1 1 1 1 1 1 1 
1 1 1 1 1 1 1 1 1 
1 1 1 1 1 1 1 1 1 
1 1 1 1 1 1 1 1 1 
1 1 1 1 1 
i 3 1355 int
0 0 0 0 0 0 0 0 0 
0 0 0 0 0 0 0 0 0 
0 0 0 0 0 0 0 0 0 
0 0 0 0 0 0 0 0 0 
0 0 0 0 0 0 0 0 0 
0 0 0 0 0 0 0 0 0 
0 0 0 0 0 0 0 0 0 
0 0 0 0 0 0 0 0 0 
0 0 0 0 0 0 0 0 0 
0 0 0 0 0 0 0 0 0 
0 0 0 0 0 0 0 0 0 
0 0 0 0 0 0 0 0 0 
0 0 0 0 0 0 0 0 0 
0 0 0 0 0 0 0 0 0 
0 0 0 0 0 0 0 0 0 
0 0 0 0 0 0 0 0 0 
0 0 0 0 0 0 0 0 0 
0 0 0 0 0 0 0 0 0 
0 0 0 0 0 0 0 0 0 
0 0 0 0 0 0 0 0 0 
0 0 0 0 0 0 0 0 0 
0 0 0 0 0 0 0 0 0 
0 0 0 0 0 0 0 0 0 
0 0 0 0 0 0 0 0 0 
0 0 0 0 0 0 0 0 0 
0 0 0 0 0 0 0 0 0 
0 0 0 0 0 0 0 0 0 
0 0 0 0 0 0 0 0 0 
0 0 0 0 0 0 0 0 0 
0 0 0 0 0 0 0 0 0 
0 0 0 0 0 0 0 0 0 
0 0 0 0 0 0 0 0 0 
0 0 0 0 0 0 0 0 0 
0 0 0 0 0 0 0 0 0 
0 0 0 0 0 0 0 0 0 
0 0 0 0 0 0 0 0 0 
0 0 0 0 0 0 0 0 0 
0 0 0 0 0 0 0 0 0 
0 0 0 0 0 0 0 0 0 
0 0 0 0 0 0 0 0 0 
0 0 0 0 0 0 0 0 0 
0 0 0 0 0 0 0 0 0 
0 0 0 0 0 0 0 0 0 
0 0 0 0 0 0 0 0 0 
0 0 0 0 0 0 0 0 0 
0 0 0 0 0 0 0 0 0 
0 0 0 0 0 0 0 0 0 
0 0 0 0 0 0 0 0 0 
0 0 0 0 0 0 0 0 0 
0 0 0 0 0 0 0 0 0 
0 0 0 0 0 0 0 0 0 
0 0 0 0 0 0 0 0 0 
0 0 0 0 0 0 0 0 0 
0 0 0 0 0 0 0 0 0 
0 0 0 0 0 0 0 0 0 
0 0 0 0 0 0 0 0 0 
0 0 0 0 0 0 0 0 0 
0 0 0 0 0 0 0 0 0 
0 0 0 0 0 0 0 0 0 
0 0 0 0 0 0 0 0 0 
0 0 0 0 0 0 0 0 0 
0 0 0 0 0 0 0 0 0 
0 0 0 0 0 0 0 0 0 
0 0 0 0 0 0 0 0 0 
0 0 0 0 0 0 0 0 0 
0 0 0 0 0 0 0 0 0 
0 0 0 0 0 0 0 0 0 
0 0 0 0 0 0 0 0 0 
0 0 0 0 0 0 0 0 0 
0 0 0 0 0 0 0 0 0 
0 0 0 0 0 0 0 0 0 
0 0 0 0 0 0 0 0 0 
0 0 0 0 0 0 0 0 0 
0 0 0 0 0 0 0 0 0 
0 0 0 0 0 0 0 0 0 
0 0 0 0 0 0 0 0 0 
0 0 0 0 0 0 0 0 0 
0 0 0 0 0 0 0 0 0 
0 0 0 0 0 0 0 0 0 
0 0 0 0 0 0 0 0 0 
0 0 0 0 0 0 0 0 0 
0 0 0 0 0 0 0 0 0 
0 0 0 0 0 0 0 0 0 
0 0 0 0 0 0 0 0 0 
0 0 0 0 0 0 0 0 0 
0 0 0 0 0 0 0 0 0 
0 0 0 0 0 0 0 0 0 
0 0 0 0 0 0 0 0 0 
0 0 0 0 0 0 0 0 0 
0 0 0 0 0 0 0 0 0 
0 0 0 0 0 0 0 0 0 
0 0 0 0 0 0 0 0 0 
0 0 0 0 0 0 0 0 0 
0 0 0 0 0 0 0 0 0 
0 0 0 0 0 0 0 0 0 
0 0 0 0 0 0 0 0 0 
0 0 0 0 0 0 0 0 0 
0 0 0 0 0 0 0 0 0 
0 0 0 0 0 0 0 0 0 
0 0 0 0 0 0 0 0 0 
0 0 0 0 0 0 0 0 0 
0 0 0 0 0 0 0 0 0 
0 0 0 0 0 0 0 0 0 
0 0 0 0 0 0 0 0 0 
0 0 0 0 0 0 0 0 0 
0 0 0 0 0 0 0 0 0 
0 0 0 0 0 0 0 0 0 
0 0 0 0 0 0 0 0 0 
0 0 0 0 0 0 0 0 0 
0 0 0 0 0 0 0 0 0 
0 0 0 0 0 0 0 0 0 
0 0 0 0 0 0 0 0 0 
0 0 0 0 0 0 0 0 0 
0 0 0 0 0 0 0 0 0 
0 0 0 0 0 0 0 0 0 
0 0 0 0 0 0 0 0 0 
0 0 0 0 0 0 0 0 0 
0 0 0 0 0 0 0 0 0 
0 0 0 0 0 0 0 0 0 
0 0 0 0 0 0 0 0 0 
0 0 0 0 0 0 0 0 0 
0 0 0 0 0 0 0 0 0 
0 0 0 0 0 0 0 0 0 
0 0 0 0 0 0 0 0 0 
0 0 0 0 0 0 0 0 0 
0 0 0 0 0 0 0 0 0 
0 0 0 0 0 0 0 0 0 
0 0 0 0 0 0 0 0 0 
0 0 0 0 0 0 0 0 0 
0 0 0 0 0 0 0 0 0 
0 0 0 0 0 0 0 0 0 
0 0 0 0 0 0 0 0 0 
0 0 0 0 0 0 0 0 0 
0 0 0 0 0 0 0 0 0 
0 0 0 0 0 0 0 0 0 
0 0 0 0 0 0 0 0 0 
0 0 0 0 0 0 0 0 0 
0 0 0 0 0 0 0 0 0 
0 0 0 0 0 0 0 0 0 
0 0 0 0 0 0 0 0 0 
0 0 0 0 0 0 0 0 0 
0 0 0 0 0 0 0 0 0 
0 0 0 0 0 0 0 0 0 
0 0 0 0 0 0 0 0 0 
0 0 0 0 0 0 0 0 0 
0 0 0 0 0 0 0 0 0 
0 0 0 0 0 0 0 0 0 
0 0 0 0 0 0 0 0 0 
0 0 0 0 0 0 0 0 0 
0 0 0 0 0 0 0 0 0 
0 0 0 0 0 0 0 0 0 
0 0 0 0 0 0 0 0 0 
0 0 0 0 0 0 0 0 0 
0 0 0 0 0 0 0 0 0 
0 0 0 0 0 0 0 0 0 
0 0 0 0 0 0 0 0 0 
0 0 0 0 0 0 0 0 0 
0 0 0 0 0 0 0 0 0 
0 0 0 0 0 0 0 0 0 
0 0 0 0 0 0 0 0 0 
0 0 0 0 0 0 0 0 0 
0 0 0 0 0 0 0 0 0 
0 0 0 0 0 0 0 0 0 
0 0 0 0 0 0 0 0 0 
0 0 0 0 0 0 0 0 0 
0 0 0 0 0 0 0 0 0 
0 0 0 0 0 0 0 0 0 
0 0 0 0 0 0 0 0 0 
0 0 0 0 0 0 0 0 0 
0 0 0 0 0 0 0 0 0 
0 0 0 0 0 0 0 0 0 
0 0 0 0 0 0 0 0 0 
0 0 0 0 0 0 0 0 0 
0 0 0 0 0 0 0 0 0 
0 0 0 0 0 0 0 0 0 
0 0 0 0 0 0 0 0 0 
0 0 0 0 0 0 0 0 0 
0 0 0 0 0 0 0 0 0 
0 0 0 0 0 0 0 0 0 
0 0 0 0 0 0 0 0 0 
0 0 0 0 0 0 0 0 0 
0 0 0 0 0 0 0 0 0 
0 0 0 0 0 0 0 0 0 
0 0 0 0 0 0 0 0 0 
0 0 0 0 0 0 0 0 0 
0 0 0 0 0 0 0 0 0 
0 0 0 0 0 0 0 0 0 
0 0 0 0 0 0 0 0 0 
0 0 0 0 0 0 0 0 0 
0 0 0 0 0 0 0 0 0 
0 0 0 0 0 0 0 0 0 
0 0 0 0 0 0 0 0 0 
0 0 0 0 0 0 0 0 0 
0 0 0 0 0 0 0 0 0 
0 0 0 0 0 0 0 0 0 
0 0 0 0 0 0 0 0 0 
0 0 0 0 0 0 0 0 0 
0 0 0 0 0 0 0 0 0 
0 0 0 0 0 0 0 0 0 
0 0 0 0 0 0 0 0 0 
0 0 0 0 0 0 0 0 0 
0 0 0 0 0 0 0 0 0 
0 0 0 0 0 0 0 0 0 
0 0 0 0 0 0 0 0 0 
0 0 0 0 0 0 0 0 0 
0 0 0 0 0 0 0 0 0 
0 0 0 0 0 0 0 0 0 
0 0 0 0 0 0 0 0 0 
0 0 0 0 0 0 0 0 0 
0 0 0 0 0 0 0 0 0 
0 0 0 0 0 0 0 0 0 
0 0 0 0 0 0 0 0 0 
0 0 0 0 0 0 0 0 0 
0 0 0 0 0 0 0 0 0 
0 0 0 0 0 0 0 0 0 
0 0 0 0 0 0 0 0 0 
0 0 0 0 0 0 0 0 0 
0 0 0 0 0 0 0 0 0 
0 0 0 0 0 0 0 0 0 
0 0 0 0 0 0 0 0 0 
0 0 0 0 0 0 0 0 0 
0 0 0 0 0 0 0 0 0 
0 0 0 0 0 0 0 0 0 
0 0 0 0 0 0 0 0 0 
0 0 0 0 0 0 0 0 0 
0 0 0 0 0 0 0 0 0 
0 0 0 0 0 0 0 0 0 
0 0 0 0 0 0 0 0 0 
0 0 0 0 0 0 0 0 0 
0 0 0 0 0 0 0 0 0 
0 0 0 0 0 0 0 0 0 
0 0 0 0 0 0 0 0 0 
0 0 0 0 0 0 0 0 0 
0 0 0 0 0 0 0 0 0 
0 0 0 0 0 0 0 0 0 
0 0 0 0 0 0 0 0 0 
0 0 0 0 0 0 0 0 0 
0 0 0 0 0 0 0 0 0 
0 0 0 0 0 0 0 0 0 
0 0 0 0 0 0 0 0 0 
0 0 0 0 0 0 0 0 0 
0 0 0 0 0 0 0 0 0 
0 0 0 0 0 0 0 0 0 
0 0 0 0 0 0 0 0 0 
0 0 0 0 0 0 0 0 0 
0 0 0 0 0 0 0 0 0 
0 0 0 0 0 0 0 0 0 
0 0 0 0 0 0 0 0 0 
0 0 0 0 0 0 0 0 0 
0 0 0 0 0 0 0 0 0 
0 0 0 0 0 0 0 0 0 
0 0 0 0 0 0 0 0 0 
0 0 0 0 0 0 0 0 0 
0 0 0 0 0 0 0 0 0 
0 0 0 0 0 0 0 0 0 
0 0 0 0 0 0 0 0 0 
0 0 0 0 0 0 0 0 0 
0 0 0 0 0 0 0 0 0 
0 0 0 0 0 0 0 0 0 
0 0 0 0 0 0 0 0 0 
0 0 0 0 0 0 0 0 0 
0 0 0 0 0 0 0 0 0 
0 0 0 0 0 0 0 0 0 
0 0 0 0 0 0 0 0 0 
0 0 0 0 0 0 0 0 0 
0 0 0 0 0 0 0 0 0 
0 0 0 0 0 0 0 0 0 
0 0 0 0 0 0 0 0 0 
0 0 0 0 0 0 0 0 0 
0 0 0 0 0 0 0 0 0 
0 0 0 0 0 0 0 0 0 
0 0 0 0 0 0 0 0 0 
0 0 0 0 0 0 0 0 0 
0 0 0 0 0 0 0 0 0 
0 0 0 0 0 0 0 0 0 
0 0 0 0 0 0 0 0 0 
0 0 0 0 0 0 0 0 0 
0 0 0 0 0 0 0 0 0 
0 0 0 0 0 0 0 0 0 
0 0 0 0 0 0 0 0 0 
0 0 0 0 0 0 0 0 0 
0 0 0 0 0 0 0 0 0 
0 0 0 0 0 0 0 0 0 
0 0 0 0 0 0 0 0 0 
0 0 0 0 0 0 0 0 0 
0 0 0 0 0 0 0 0 0 
0 0 0 0 0 0 0 0 0 
0 0 0 0 0 0 0 0 0 
0 0 0 0 0 0 0 0 0 
0 0 0 0 0 0 0 0 0 
0 0 0 0 0 0 0 0 0 
0 0 0 0 0 0 0 0 0 
0 0 0 0 0 0 0 0 0 
0 0 0 0 0 0 0 0 0 
0 0 0 0 0 0 0 0 0 
0 0 0 0 0 0 0 0 0 
0 0 0 0 0 0 0 0 0 
0 0 0 0 0 0 0 0 0 
0 0 0 0 0 0 0 0 0 
0 0 0 0 0 0 0 0 0 
0 0 0 0 0 0 0 0 0 
0 0 0 0 0 0 0 0 0 
0 0 0 0 0 0 0 0 0 
0 0 0 0 0 0 0 0 0 
0 0 0 0 0 0 0 0 0 
0 0 0 0 0 0 0 0 0 
0 0 0 0 0 0 0 0 0 
0 0 0 0 0 0 0 0 0 
0 0 0 0 0 0 0 0 0 
0 0 0 0 0 0 0 0 0 
0 0 0 0 0 0 0 0 0 
0 0 0 0 0 0 0 0 0 
0 0 0 0 0 0 0 0 0 
0 0 0 0 0 0 0 0 0 
0 0 0 0 0 0 0 0 0 
0 0 0 0 0 0 0 0 0 
0 0 0 0 0 0 0 0 0 
0 0 0 0 0 0 0 0 0 
0 0 0 0 0 0 0 0 0 
0 0 0 0 0 0 0 0 0 
0 0 0 0 0 0 0 0 0 
0 0 0 0 0 0 0 0 0 
0 0 0 0 0 0 0 0 0 
0 0 0 0 0 0 0 0 0 
0 0 0 0 0 0 0 0 0 
0 0 0 0 0 0 0 0 0 
0 0 0 0 0 0 0 0 0 
0 0 0 0 0 0 0 0 0 
0 0 0 0 0 0 0 0 0 
0 0 0 0 0 0 0 0 0 
0 0 0 0 0 0 0 0 0 
0 0 0 0 0 0 0 0 0 
0 0 0 0 0 0 0 0 0 
0 0 0 0 0 0 0 0 0 
0 0 0 0 0 0 0 0 0 
0 0 0 0 0 0 0 0 0 
0 0 0 0 0 0 0 0 0 
0 0 0 0 0 0 0 0 0 
0 0 0 0 0 0 0 0 0 
0 0 0 0 0 0 0 0 0 
0 0 0 0 0 0 0 0 0 
0 0 0 0 0 0 0 0 0 
0 0 0 0 0 0 0 0 0 
0 0 0 0 0 0 0 0 0 
0 0 0 0 0 0 0 0 0 
0 0 0 0 0 0 0 0 0 
0 0 0 0 0 0 0 0 0 
0 0 0 0 0 0 0 0 0 
0 0 0 0 0 0 0 0 0 
0 0 0 0 0 0 0 0 0 
0 0 0 0 0 0 0 0 0 
0 0 0 0 0 0 0 0 0 
0 0 0 0 0 0 0 0 0 
0 0 0 0 0 0 0 0 0 
0 0 0 0 0 0 0 0 0 
0 0 0 0 0 0 0 0 0 
0 0 0 0 0 0 0 0 0 
0 0 0 0 0 0 0 0 0 
0 0 0 0 0 0 0 0 0 
0 0 0 0 0 0 0 0 0 
0 0 0 0 0 0 0 0 0 
0 0 0 0 0 0 0 0 0 
0 0 0 0 0 0 0 0 0 
0 0 0 0 0 0 0 0 0 
0 0 0 0 0 0 0 0 0 
0 0 0 0 0 0 0 0 0 
0 0 0 0 0 0 0 0 0 
0 0 0 0 0 0 0 0 0 
0 0 0 0 0 0 0 0 0 
0 0 0 0 0 0 0 0 0 
0 0 0 0 0 0 0 0 0 
0 0 0 0 0 0 0 0 0 
0 0 0 0 0 0 0 0 0 
0 0 0 0 0 0 0 0 0 
0 0 0 0 0 0 0 0 0 
0 0 0 0 0 0 0 0 0 
0 0 0 0 0 0 0 0 0 
0 0 0 0 0 0 0 0 0 
0 0 0 0 0 0 0 0 0 
0 0 0 0 0 0 0 0 0 
0 0 0 0 0 0 0 0 0 
0 0 0 0 0 0 0 0 0 
0 0 0 0 0 0 0 0 0 
0 0 0 0 0 0 0 0 0 
0 0 0 0 0 0 0 0 0 
0 0 0 0 0 0 0 0 0 
0 0 0 0 0 0 0 0 0 
0 0 0 0 0 0 0 0 0 
0 0 0 0 0 0 0 0 0 
0 0 0 0 0 0 0 0 0 
0 0 0 0 0 0 0 0 0 
0 0 0 0 0 0 0 0 0 
0 0 0 0 0 0 0 0 0 
0 0 0 0 0 0 0 0 0 
0 0 0 0 0 0 0 0 0 
0 0 0 0 0 0 0 0 0 
0 0 0 0 0 0 0 0 0 
0 0 0 0 0 0 0 0 0 
0 0 0 0 0 0 0 0 0 
0 0 0 0 0 0 0 0 0 
0 0 0 0 0 0 0 0 0 
0 0 0 0 0 0 0 0 0 
0 0 0 0 0 0 0 0 0 
0 0 0 0 0 0 0 0 0 
0 0 0 0 0 0 0 0 0 
0 0 0 0 0 0 0 0 0 
0 0 0 0 0 0 0 0 0 
0 0 0 0 0 0 0 0 0 
0 0 0 0 0 0 0 0 0 
0 0 0 0 0 0 0 0 0 
0 0 0 0 0 0 0 0 0 
0 0 0 0 0 0 0 0 0 
0 0 0 0 0 0 0 0 0 
0 0 0 0 0 0 0 0 0 
0 0 0 0 0 0 0 0 0 
0 0 0 0 0 0 0 0 0 
0 0 0 0 0 0 0 0 0 
0 0 0 0 0 0 0 0 0 
0 0 0 0 0 0 0 0 0 
0 0 0 0 0 0 0 0 0 
0 0 0 0 0 0 0 0 0 
0 0 0 0 0 0 0 0 0 
0 0 0 0 0 0 0 0 0 
0 0 0 0 0 0 0 0 0 
0 0 0 0 0 0 0 0 0 
0 0 0 0 0 0 0 0 0 
0 0 0 0 0 0 0 0 0 
0 0 0 0 0 0 0 0 0 
0 0 0 0 0 0 0 0 0 
0 0 0 0 0 0 0 0 0 
0 0 0 0 0 0 0 0 0 
0 0 0 0 0 0 0 0 0 
0 0 0 0 0 0 0 0 0 
0 0 0 0 0 0 0 0 0 
0 0 0 0 0 0 0 0 0 
0 0 0 0 0 0 0 0 0 
0 0 0 0 0 0 0 0 0 
0 0 0 0 0 0 0 0 0 
0 0 0 0 0 0 0 0 0 
0 0 0 0 0 0 0 0 0 
0 0 0 0 0 0 0 0 0 
0 0 0 0 0 0 0 0 0 
0 0 0 0 0 0 0 0 0 
0 0 0 0 0 0 0 0 0 
0 0 0 0 0 0 0 0 0 
0 0 0 0 0 0 0 0 0 
0 0 0 0 0 0 0 0 0 
0 0 0 0 0 0 0 0 0 
0 0 0 0 0 0 0 0 0 
0 0 0 0 0 0 0 0 0 
0 0 0 0 0 0 0 0 0 
0 0 0 0 0 0 
v 3 1355 double
-0.000182613 0.00207739 0.00216997 0.00708551 -0.0026667 0.00155445 0.00542534 -0.000725984 -0.000798897 
0.00419278 -0.00129842 -0.00180891 0.00820889 1.44122e-05 -0.000817005 0.0102571 0.000843051 0.00261785 
0.00677403 -0.000227125 0.00217212 0.00847683 -0.00034614 0.000445696 0.0220819 0.00800299 0.000593516 
0.0172088 -0.0181641 -0.0098418 0.0203138 -0.000690452 0.0104838 0.0167371 -0.00941122 0.00535001 
0.0203586 0.00834891 0.00143946 0.0202334 0.000546775 0.00320266 0.0192004 0.000212017 0.00181556 
0.0210023 0.000630564 -0.000465228 0.0191583 -0.000344336 -0.00402854 -0.000502225 0.000192447 6.02777e-05 
-6.82237e-05 0.000302337 9.43317e-05 0.000190535 0.000107128 0.000132338 0.000129762 -1.71347e-05 -0.000160034 
0.000371891 -0.000115389 -5.20154e-05 0.00130869 0.00472753 0.00105917 0.00135895 0.00124773 0.00358983 
0.010394 -0.00229764 -0.00173063 0.0065404 -0.00327154 -0.00159109 0.00808856 -0.00128299 -0.00107585 
0.00545044 -0.00114528 -0.00304627 0.0045604 0.00232133 -0.00267425 0.00726011 0.00726178 -0.00606696 
0.0123945 0.00330779 0.013436 0.00995952 0.0168447 0.00600147 0.0205662 -0.0125463 0.0103307 
0.00629825 -0.00585342 -0.00476802 0.0190898 0.000948414 0.00433221 0.0166055 0.00092657 0.00515805 
0.0145839 -0.000443409 0.002165 0.0128608 -0.00329214 -0.000916806 0.00788753 0.00667635 -0.00245623 
-0.000473192 0.000457689 0.000366163 -0.000352251 0.000163118 -0.000287003 -0.000405599 7.82245e-05 -8.16994e-05 
-0.000166461 -0.000193008 9.1059e-05 0.000151073 -7.15893e-05 0.000110832 0.000453309 0.0012974 0.000526147 
0.000867878 -0.000548276 0.00180758 0.000675575 -0.00164747 0.0010828 0.00661317 -0.00558025 0.000568312 
0.00411175 -0.00397303 -0.00183277 -0.000922542 -0.00543843 -0.00216336 0.00439934 -0.00119005 -0.00645342 
0.00982936 0.00106836 0.00259458 -0.00560567 0.033209 0.0049894 -0.0098188 0.0289135 -0.0175721 
0.0274622 0.0155305 -0.00534006 0.0176737 0.00904509 -0.0155984 0.00453838 -0.00451601 0.000983308 
0.00444259 -0.00436732 0.014288 0.00719645 0.0052817 0.00534252 0.0176758 -0.0027636 -0.00078331 
0.00819212 -0.000870288 -0.00203798 0.00618598 0.00651183 -0.000468011 -0.000602181 0.000446047 0.000463069 
-0.000570359 -0.000138847 -8.37821e-05 0.000361467 -0.000446996 -0.00019912 0.000195072 -0.000270284 7.02612e-05 
-0.00192422 0.000749609 0.00120101 0.00270341 -0.00288464 -0.00294163 0.00172592 0.00223247 0.0015755 
0.00464848 -0.00774343 -0.00193238 -0.000569431 -0.00384245 -0.00896722 -0.00856164 -0.00806132 -0.0093202 
0.00747978 0.00231866 -0.0100006 0.00872344 -0.0158049 -0.0162876 0.00164327 0.00458003 0.0108695 