# vtk DataFile Version 4.0
Generated by LIGGGHTS
ASCII
DATASET POLYDATA
POINTS 1355 float
-0.897862 -0.460535 -0.460264 -0.766943 -0.460312 -0.460383 -0.687374 -0.46023 -0.460479 
-0.60752 -0.460687 -0.460558 -0.527365 -0.460566 -0.460558 -0.447587 -0.460212 -0.460385 
-0.36787 -0.46007 -0.460807 -0.276463 -0.460025 -0.460336 -0.159219 -0.460719 -0.460354 
-0.0795014 -0.454879 -0.460438 -2.37086e-05 -0.460303 -0.460473 0.0796341 -0.460076 -0.460448 
0.159349 -0.460141 -0.460477 0.239145 -0.460134 -0.460519 0.318788 -0.455277 -0.460441 
0.398475 -0.459874 -0.460485 0.478304 -0.460209 -0.460242 0.581901 -0.460443 -0.46078 
0.661504 -0.460413 -0.460509 0.741151 -0.460254 -0.460545 0.820617 -0.46036 -0.460685 
0.90186 -0.460248 -0.460308 -0.960564 -0.411892 -0.461008 -0.886918 -0.381469 -0.460695 
-0.72763 -0.390868 -0.460751 -0.647007 -0.391627 -0.460306 -0.567522 -0.392264 -0.460203 
-0.487964 -0.391238 -0.460416 -0.408255 -0.390888 -0.460615 -0.328818 -0.390317 -0.46038 
-0.212605 -0.402076 -0.460382 -0.134944 -0.385084 -0.461082 0.0388712 -0.390942 -0.460555 
0.119535 -0.3909 -0.460698 0.199373 -0.390986 -0.460518 0.278865 -0.383808 -0.460392 
0.358713 -0.386013 -0.460679 0.440667 -0.386666 -0.460255 0.530045 -0.399736 -0.460448 
0.620785 -0.391233 -0.460745 0.700709 -0.391515 -0.460429 0.780895 -0.390955 -0.460156 
0.860758 -0.391785 -0.460537 0.960347 -0.406237 -0.46053 -0.953907 -0.332958 -0.460106 
-0.880312 -0.301967 -0.46037 -0.805653 -0.361658 -0.460304 -0.678505 -0.318991 -0.461646 
-0.566614 -0.313523 -0.460915 -0.487006 -0.311495 -0.460495 -0.403491 -0.311156 -0.460251 
-0.264798 -0.342601 -0.46057 -0.187487 -0.322607 -0.460382 -0.108645 -0.310416 -0.460353 
-0.0326613 -0.35518 -0.460271 0.0341676 -0.311529 -0.460343 0.159556 -0.321946 -0.460447 
0.238809 -0.311068 -0.460403 0.320523 -0.315638 -0.460503 0.400216 -0.31769 -0.460461 
0.491386 -0.311575 -0.460649 0.568966 -0.330332 -0.460779 0.660013 -0.322309 -0.460175 
0.739486 -0.322656 -0.460878 0.882027 -0.315303 -0.460976 0.960466 -0.326818 -0.460416 
-0.960564 -0.253963 -0.460465 -0.803232 -0.281983 -0.460472 -0.725735 -0.254643 -0.460493 
-0.62536 -0.260142 -0.460112 -0.533459 -0.241764 -0.460341 -0.454105 -0.235888 -0.460752 
-0.325929 -0.292165 -0.460492 -0.134281 -0.234981 -0.460668 -0.0372507 -0.27539 -0.460618 
0.100894 -0.267995 -0.460579 0.188319 -0.247645 -0.460376 0.308548 -0.236729 -0.460325 
0.54628 -0.253848 -0.460576 0.622688 -0.255621 -0.438314 0.699473 -0.252962 -0.460364 
0.77925 -0.253908 -0.460189 0.881829 -0.235684 -0.460272 0.960385 -0.247392 -0.460496 
-0.960817 -0.174539 -0.460544 -0.891685 -0.214223 -0.460158 -0.813101 -0.203256 -0.46058 
-0.671965 -0.195633 -0.460404 -0.592198 -0.188038 -0.460415 -0.499702 -0.169754 -0.46063 
-0.374534 -0.229 -0.46066 -0.294256 -0.219005 -0.460574 -0.214842 -0.209507 -0.460595 
-0.0521234 -0.19725 -0.460291 0.0295703 -0.231939 -0.460286 0.089811 -0.179857 -0.461344 
0.243728 -0.190254 -0.460272 0.388786 -0.202218 -0.46081 0.46974 -0.232105 -0.460602 
0.574218 -0.179219 -0.460923 0.653559 -0.185534 -0.460522 0.732942 -0.177762 -0.460501 
0.81995 -0.185909 -0.46032 0.960481 -0.167931 -0.460508 -0.893965 -0.132604 -0.460706 
-0.813989 -0.123599 -0.460124 -0.744652 -0.162797 -0.460541 -0.638089 -0.123354 -0.460421 
-0.558754 -0.116017 -0.460449 -0.420619 -0.163576 -0.460397 -0.341702 -0.155231 -0.460935 
-0.262646 -0.145639 -0.460423 -0.143608 -0.156261 -0.460506 -0.072402 -0.12017 -0.46016 
0.0147033 -0.153642 -0.461197 0.168042 -0.166368 -0.460342 0.311561 -0.149051 -0.46076 
0.426705 -0.114379 -0.460609 0.500598 -0.144538 -0.460559 0.618018 -0.112962 -0.460714 
0.810274 -0.107302 -0.460708 0.885974 -0.140439 -0.460769 -0.960067 -0.0763172 -0.460457 
-0.862161 -0.0604364 -0.460703 -0.779638 -0.0514465 -0.460504 -0.708514 -0.0871192 -0.460439 
-0.582078 -0.0398722 -0.460394 -0.496224 -0.0670835 -0.460392 -0.417405 -0.0794736 -0.460766 
-0.337563 -0.0757363 -0.460355 -0.198388 -0.0985892 -0.460529 -0.127587 -0.0625069 -0.460533 
-0.00841357 -0.0726065 -0.460208 0.0689092 -0.0434307 -0.460868 0.126774 -0.0983355 -0.460285 
0.206905 -0.0715839 -0.460517 0.286654 -0.0730891 -0.460924 0.365642 -0.063367 -0.460112 
0.44071 -0.0358316 -0.460676 0.545909 -0.0791091 -0.460522 0.661589 -0.0453807 -0.460455 
0.735889 -0.0784352 -0.46055 0.960135 -0.0881528 -0.460814 -0.920838 -0.00683802 -0.460437 
-0.828851 0.0108234 -0.460303 -0.75065 0.025121 -0.460507 -0.680195 -0.0126261 -0.460729 
-0.463736 0.00552588 -0.460477 -0.380613 -0.00660055 -0.460117 -0.299703 -0.00554547 -0.46084 
-0.219859 -0.00427105 -0.460401 -0.144517 0.0328309 -0.460359 -0.0718221 -0.00612131 -0.460539 
0.00659746 0.00571828 -0.460377 0.145299 -0.0206416 -0.460527 0.220168 0.00705241 -0.460431 
0.299903 0.0064556 -0.460363 0.37939 0.0151019 -0.460566 0.513364 -0.0112712 -0.434724 
0.588887 -0.0121148 -0.460802 0.761291 -0.00279942 -0.460124 0.836988 -0.0324929 -0.460513 
0.915576 -0.0222055 -0.460961 -0.960641 0.0618776 -0.460423 -0.881711 0.0699357 -0.460374 
-0.80325 0.085391 -0.461134 -0.641481 0.0830102 -0.46028 -0.55266 0.0340709 -0.460876 
-0.48845 0.0813237 -0.460179 -0.414836 0.0630763 -0.435505 -0.3396 0.0632895 -0.461121 
-0.259829 0.064872 -0.46014 -0.065404 0.0731419 -0.460539 0.0134832 0.0849499 -0.460974 
0.0803069 0.0356893 -0.460675 0.156695 0.0582552 -0.460388 0.270554 0.0807995 -0.46057 
0.398898 0.09227 -0.46025 0.459746 0.0416587 -0.460447 0.536451 0.061861 -0.460547 
0.616067 0.0627637 -0.460435 0.690949 0.0350189 -0.460114 0.75429 0.0838635 -0.460515 
0.824515 0.0457943 -0.460434 0.893112 0.0865777 -0.4604 0.960325 0.0437528 -0.460202 
-0.960536 0.141377 -0.46104 -0.856032 0.145007 -0.460343 -0.780546 0.157023 -0.436313 
-0.725008 0.100348 -0.460718 -0.62899 0.161682 -0.460796 -0.566472 0.112397 -0.460212 
-0.50231 0.159627 -0.461076 -0.382124 0.130929 -0.460781 -0.301321 0.13325 -0.460296 
-0.188691 0.101142 -0.460814 -0.116106 0.134207 -0.460947 -0.0361323 0.147567 -0.460345 
0.0889289 0.118732 -0.460118 0.202884 0.122942 -0.46062 0.330803 0.133283 -0.461063 
0.477586 0.127236 -0.460672 0.56571 0.135939 -0.460617 0.646912 0.13619 -0.460206 
0.75357 0.163644 -0.460876 0.823098 0.125209 -0.460427 0.891094 0.16639 -0.460478 
0.960697 0.128815 -0.460411 -0.960364 0.220677 -0.460489 -0.825081 0.218183 -0.460584 
-0.708285 0.178084 -0.461141 -0.429024 0.195646 -0.460263 -0.3442 0.200503 -0.460426 
-0.2249 0.194455 -0.460586 -0.134978 0.211555 -0.46036 0.0554651 0.192124 -0.460176 
0.144763 0.180496 -0.460533 0.263087 0.174717 -0.460689 0.338303 0.212417 -0.460768 
0.406605 0.171119 -0.460486 0.51532 0.197686 -0.460356 0.606149 0.204852 -0.461166 
0.686018 0.205752 -0.460197 0.821574 0.20494 -0.46048 0.960299 0.208675 -0.460313 
-0.89189 0.260779 -0.460292 -0.821573 0.297977 -0.460693 -0.750468 0.245818 -0.460603 
-0.606603 0.249741 -0.460572 -0.521386 0.248129 -0.460824 -0.390188 0.2654 -0.460448 
-0.282362 0.250193 -0.460412 -0.18416 0.273905 -0.461233 -0.0584223 0.233643 -0.461027 
0.0153098 0.264201 -0.460352 0.110481 0.252719 -0.460544 0.190518 0.246101 -0.460115 
0.270119 0.253868 -0.460111 0.378886 0.280816 -0.460421 0.447317 0.239563 -0.460534 
0.555609 0.26659 -0.460975 0.650183 0.27692 -0.460653 0.755872 0.249505 -0.460541 
0.889928 0.245646 -0.460502 -0.96052 0.300659 -0.46019 -0.891386 0.340354 -0.460406 
-0.739851 0.324493 -0.460538 -0.657971 0.310975 -0.460132 -0.57072 0.320826 -0.460326 
-0.458611 0.351514 -0.461302 -0.331503 0.319517 -0.460485 -0.247943 0.321554 -0.460244 
-0.129673 0.351087 -0.460487 -0.0482522 0.312502 -0.460691 0.0705931 0.321845 -0.46112 
0.150161 0.322603 -0.460729 0.229966 0.322554 -0.460489 0.310644 0.32248 -0.460429 
0.419243 0.349624 -0.460559 0.487626 0.308349 -0.460765 0.596526 0.33571 -0.460549 
0.720721 0.320974 -0.460528 0.800974 0.321872 -0.460534 0.880751 0.323876 -0.460409 
0.957593 0.301823 -0.460778 -0.960258 0.380417 -0.460575 -0.891044 0.420292 -0.460764 
-0.773861 0.396062 -0.460318 -0.687901 0.3851 -0.460428 -0.60823 0.391209 -0.460872 
-0.52849 0.390182 -0.460275 -0.383473 0.395251 -0.460669 -0.291095 0.388441 -0.46064 
-0.201436 0.385762 -0.460699 -0.0590077 0.391286 -0.460442 0.0208298 0.389264 -0.46024 
0.109712 0.391315 -0.460499 0.190299 0.391727 -0.460511 0.270179 0.391302 -0.460698 
0.351069 0.391281 -0.460484 0.459923 0.418496 -0.460283 0.530067 0.38015 -0.460113 
0.678215 0.388503 -0.460613 0.758048 0.391621 -0.460707 0.839509 0.391882 -0.46028 
0.921183 0.391808 -0.460687 -0.960115 0.460207 -0.460125 -0.821208 0.460154 -0.460672 
-0.727406 0.460375 -0.460381 -0.647934 0.460266 -0.460463 -0.568375 0.460185 -0.460451 
-0.489024 0.46032 -0.460795 -0.336807 0.460069 -0.46016 -0.256895 0.460264 -0.460377 
-0.177189 0.460748 -0.460618 -0.0978728 0.460456 -0.46088 -0.0178318 0.459935 -0.460118 
0.0696342 0.460184 -0.460751 0.149518 0.46032 -0.460547 0.230638 0.460409 -0.460593 
0.310566 0.46016 -0.460273 0.391659 0.460088 -0.460117 0.527978 0.460115 -0.461021 
0.633793 0.459055 -0.460529 0.713628 0.460083 -0.460421 0.798691 0.460309 -0.460483 
0.88056 0.460309 -0.460378 0.960415 0.460495 -0.460272 -0.96021 -0.461032 -0.399327 
-0.883995 -0.460173 -0.376119 -0.727005 -0.460035 -0.391232 -0.647342 -0.460381 -0.391694 
-0.567422 -0.460176 -0.391713 -0.487638 -0.460242 -0.391587 -0.406991 -0.460002 -0.391554 
-0.323008 -0.460244 -0.395518 -0.217922 -0.460298 -0.406098 -0.118898 -0.460505 -0.391674 
-0.0393974 -0.460847 -0.391423 0.0399908 -0.460358 -0.391344 0.119488 -0.460177 -0.391367 
0.199152 -0.460255 -0.391543 0.278936 -0.460369 -0.391603 0.358592 -0.460384 -0.391545 
0.438116 -0.460769 -0.391338 0.53133 -0.46081 -0.400083 0.621743 -0.460054 -0.391777 
0.701724 -0.459953 -0.391437 0.780934 -0.444086 -0.393404 0.860483 -0.459465 -0.392257 
0.960095 -0.460248 -0.402096 -0.960577 -0.382863 -0.386972 -0.832371 -0.429303 -0.428087 
-0.770459 -0.392982 -0.393624 -0.687992 -0.389247 -0.392027 -0.607761 -0.395553 -0.368442 
[...]
POINT_DATA 1355
FIELD FieldData 7
id 1 1355 int
366 408 584 322 662 206 563 371 419 
523 551 145 607 585 151 530 365 186 
620 156 70 664 692 632 759 714 370 
120 208 723 59 512 435 712 211 457 
20 256 338 470 195 678 320 643 534 
171 196 105 493 581 542 514 245 234 
347 708 214 280 305 529 396 291 444 
367 476 155 724 314 136 721 375 250 
442 95 498 54 200 431 623 593 109 
184 446 647 159 267 289 373 275 324 
62 533 376 589 76 722 543 576 75 
202 572 683 676 680 445 83 641 185 
331 96 99 458 575 40 57 239 31 
281 298 126 300 48 521 531 428 254 
592 758 361 412 14 689 312 252 88 
153 397 483 170 704 321 140 726 143 
142 351 651 528 433 92 690 382 437 
359 569 304 439 339 540 639 177 700 
378 459 310 258 182 6 549 369 323 
121 507 423 154 495 224 612 720 590 
539 461 166 460 97 240 537 127 580 
51 85 544 293 697 634 129 104 602 
742 161 32 384 25 671 74 278 675 
383 71 266 19 22 627 717 162 348 
247 167 125 191 199 294 586 640 441 
596 149 475 463 387 269 130 8 218 
748 420 613 663 16 578 402 682 421 
715 637 299 698 747 261 622 355 571 
411 42 416 227 391 527 557 346 67 
274 319 242 649 9 73 766 409 535 
89 4 260 318 650 388 311 94 618 
39 582 53 673 729 3 69 496 363 
201 188 599 670 228 519 667 472 669 
660 646 654 43 230 226 306 427 316 
614 764 329 545 179 389 12 453 440 
197 452 90 604 386 686 38 587 285 
725 743 181 518 225 761 513 5 559 
72 336 66 116 78 628 131 679 959 
103 273 1154 276 516 47 233 325 108 
223 666 157 455 205 175 287 221 56 
751 736 426 744 642 611 302 413 473 
741 684 118 653 18 770 15 82 272 
100 87 343 490 219 601 290 465 110 
438 372 767 631 255 879 552 307 699 
636 187 550 80 532 313 645 279 556 
511 114 757 144 81 668 58 615 558 
644 341 189 407 36 462 597 357 394 
565 169 554 29 334 282 570 424 286 
399 24 616 447 364 183 478 566 492 
718 248 33 422 11 502 541 395 46 
106 345 192 568 86 60 236 44 112 
497 429 479 27 45 694 326 358 352 
746 21 629 522 415 711 137 271 2 
524 111 737 102 818 134 216 733 147 
194 148 172 101 775 443 28 738 710 
146 474 180 482 381 374 436 638 450 
253 425 93 827 91 215 505 403 520 
277 591 84 133 626 288 350 762 193 
546 41 970 333 231 330 928 574 308 
328 232 703 432 296 393 284 687 49 
681 400 648 190 128 392 610 135 209 
760 35 665 122 503 750 488 259 480 
469 508 26 113 608 123 222 709 340 
456 251 417 17 292 138 430 246 98 
448 283 404 178 244 132 63 583 464 
891 600 1165 418 547 763 499 553 229 
494 385 617 672 467 119 755 481 727 
526 390 210 728 249 217 871 769 354 
158 510 7 739 466 793 890 500 658 
337 986 1166 846 173 567 1184 573 930 
468 781 927 735 809 1066 1173 1152 925 
685 933 814 921 414 784 265 749 1288 
943 504 787 268 935 831 910 362 619 
903 688 867 1167 410 768 973 951 1062 
963 754 1061 1170 360 828 235 696 779 
1115 875 1147 207 932 241 702 1091 907 
454 812 1255 974 848 914 829 379 295 
707 937 176 982 838 870 509 901 124 
691 792 919 603 335 317 406 944 1162 
972 732 165 952 491 765 349 904 894 
655 79 851 471 734 786 981 882 356 
939 855 141 489 577 30 501 204 674 
536 886 486 621 918 861 824 895 487 
1284 795 731 800 309 50 605 975 1052 
908 630 1075 434 677 892 52 801 905 
1078 301 776 962 805 990 332 164 1182 
484 815 401 548 327 198 926 977 657 
794 954 947 656 888 633 730 911 160 
752 790 150 34 560 783 243 695 477 
538 220 887 922 835 10 555 380 803 
876 515 791 840 955 65 874 77 342 
719 107 804 23 965 203 872 929 994 
873 598 884 822 713 774 237 659 1 
344 13 61 960 706 398 859 896 869 
716 55 1041 1156 971 856 115 506 909 
813 257 821 564 139 263 850 174 609 
912 773 917 37 606 297 830 368 881 
625 353 1134 771 772 913 562 405 845 
880 451 949 885 117 525 1001 303 262 
785 213 68 635 64 661 588 449 756 
152 753 701 594 984 923 315 579 377 
485 961 212 693 878 938 1243 561 270 
906 1178 1079 1149 1312 1004 866 823 1334 
1143 988 1076 956 825 1006 1330 163 1123 
1093 1290 1051 958 1305 1211 1113 1193 1279 
1110 1003 1185 849 1049 1133 1058 1159 1302 
1035 826 1231 844 1116 1197 1160 1112 1073 
832 652 847 1217 1097 1316 1032 1267 1347 
1000 1344 868 999 1125 1266 1295 1028 1221 
1071 1086 865 1186 993 1354 1187 802 1139 
1285 1099 1022 1145 1036 1015 808 995 1054 
1144 950 1315 1056 1008 1322 1021 1189 1129 
857 1246 902 985 1346 1014 1283 936 964 
1103 1188 806 780 789 1213 1130 1013 1077 
1172 1321 1020 1095 1050 1111 1138 916 992 
1174 1201 1105 820 782 1089 1065 1087 969 
1023 1135 1012 834 1158 978 924 1183 1119 
1082 1083 797 1026 807 980 1223 1018 842 
953 1319 967 1016 839 1067 1349 1258 1176 
1179 1010 1114 1048 931 1027 799 1150 1220 
1216 836 1037 810 893 1088 1273 1081 1311 
1171 1033 1046 1265 987 1100 1253 1017 1203 
968 1009 1109 862 819 1122 1272 843 1127 
837 934 899 1080 1269 852 915 948 1096 
946 1069 1057 1268 983 860 1128 1104 997 
1271 1092 841 864 1043 798 811 1085 1175 
1055 1126 1309 595 1280 1101 998 1180 1248 
1029 1025 1163 889 1137 1281 1177 777 1053 
796 1148 1063 1011 1042 1229 1230 877 1256 
976 1131 853 1060 858 989 1074 966 940 
1045 1181 1124 1019 1232 778 1118 900 898 
1157 854 1102 996 942 1169 168 945 1287 
1070 1136 1212 1024 1117 1068 1254 740 1059 
1307 1161 1098 979 1040 1208 1313 1142 817 
863 1064 1262 957 883 238 517 816 897 
788 624 1252 1250 1190 1121 1141 1233 1140 
941 1132 1299 1303 1151 1238 745 1327 1226 
1247 1339 1306 1275 1335 1276 1249 1251 1291 
1107 1210 1034 1215 1199 1031 1224 1106 1350 
1323 1297 1329 1341 1005 1202 1237 1047 1194 
1209 1325 1263 1292 1228 1192 833 1348 1205 
1317 1270 1331 1219 1342 1352 1304 1242 1235 
1343 1039 1108 1214 1227 1236 1326 1296 1301 
1294 1164 1308 1044 1333 1274 1084 1286 1234 
1260 1345 1218 1153 1282 1198 1278 1241 1259 
1338 1293 1204 1289 1207 1324 1007 1240 1072 
1196 1261 1314 1094 1300 1191 1245 1168 1222 
1155 1038 1320 1328 1351 1298 991 1200 1195 
1310 1355 1090 1277 1244 1002 1332 1257 264 
1353 1146 705 1264 1225 1336 1318 1239 1337 
920 1206 1030 1120 1340 
type 1 1355 int
1 1 1 1 1 1 1 1 1 
1 1 1 1 1 1 1 1 1 
1 1 1 1 1 1 1 1 1 
1 1 1 1 1 1 1 1 1 
1 1 1 1 1 1 1 1 1 
1 1 1 1 1 1 1 1 1 
1 1 1 1 1 1 1 1 1 
1 1 1 1 1 1 1 1 1 
1 1 1 1 1 1 1 1 1 
1 1 1 1 1 1 1 1 1 
1 1 1 1 1 1 1 1 1 
1 1 1 1 1 1 1 1 1 
1 1 1 1 1 1 1 1 1 
1 1 1 1 1 1 1 1 1 
1 1 1 1 1 1 1 1 1 
1 1 1 1 1 1 1 1 1 
1 1 1 1 1 1 1 1 1 
1 1 1 1 1 1 1 1 1 
1 1 1 1 1 1 1 1 1 
1 1 1 1 1 1 1 1 1 
1 1 1 1 1 1 1 1 1 
1 1 1 1 1 1 1 1 1 
1 1 1 1 1 1 1 1 1 
1 1 1 1 1 1 1 1 1 
1 1 1 1 1 1 1 1 1 
1 1 1 1 1 1 1 1 1 
1 1 1 1 1 1 1 1 1 
1 1 1 1 1 1 1 1 1 
1 1 1 1 1 1 1 1 1 
1 1 1 1 1 1 1 1 1 
1 1 1 1 1 1 1 1 1 
1 1 1 1 1 1 1 1 1 
1 1 1 1 1 1 1 1 1 
1 1 1 1 1 1 1 1 1 
1 1 1 1 1 1 1 1 1 
1 1 1 1 1 1 1 1 1 
1 1 1 1 1 1 1 1 1 
1 1 1 1 1 1 1 1 1 
1 1 1 1 1 1 1 1 1 
1 1 1 1 1 1 1 1 1 
1 1 1 1 1 1 1 1 1 
1 1 1 1 1 1 1 1 1 
1 1 1 1 1 1 1 1 1 
1 1 1 1 1 1 1 1 1 
1 1 1 1 1 1 1 1 1 
1 1 1 1 1 1 1 1 1 
1 1 1 1 1 1 1 1 1 
1 1 1 1 1 1 1 1 1 
1 1 1 1 1 1 1 1 1 
1 1 1 1 1 1 1 1 1 
1 1 1 1 1 1 1 1 1 
1 1 1 1 1 1 1 1 1 
1 1 1 1 1 1 1 1 1 
1 1 1 1 1 1 1 1 1 
1 1 1 1 1 1 1 1 1 
1 1 1 1 1 1 1 1 1 
1 1 1 1 1 1 1 1 1 
1 1 1 1 1 1 1 1 1 
1 1 1 1 1 1 1 1 1 
1 1 1 1 1 1 1 1 1 
1 1 1 1 1 1 1 1 1 
1 1 1 1 1 1 1 1 1 
1 1 1 1 1 1 1 1 1 
1 1 1 1 1 1 1 1 1 
1 1 1 1 1 1 1 1 1 
1 1 1 1 1 1 1 1 1 
1 1 1 1 1 1 1 1 1 
1 1 1 1 1 1 1 1 1 
1 1 1 1 1 1 1 1 1 
1 1 1 1 1 1 1 1 1 
1 1 1 1 1 1 1 1 1 
1 1 1 1 1 1 1 1 1 
1 1 1 1 1 1 1 1 1 
1 1 1 1 1 1 1 1 1 
1 1 1 1 1 1 1 1 1 
1 1 1 1 1 1 1 1 1 
1 1 1 1 1 1 1 1 1 
1 1 1 1 1 1 1 1 1 
1 1 1 1 1 1 1 1 1 
1 1 1 1 1 1 1 1 1 
1 1 1 1 1 1 1 1 1 
1 1 1 1 1 1 1 1 1 
1 1 1 1 1 1 1 1 1 
1 1 1 1 1 1 1 1 1 
1 1 1 1 1 1 1 1 1 
1 1 1 1 1 1 1 1 1 
1 1 1 1 1 1 1 1 1 
1 1 1 1 1 1 1 1 1 
1 1 1 1 1 1 1 1 1 
1 1 1 1 1 1 1 1 1 
1 1 1 1 1 1 1 1 1 
1 1 1 1 1 1 1 1 1 
1 1 1 1 1 1 1 1 1 
1 1 1 1 1 1 1 1 1 
1 1 1 1 1 1 1 1 1 
1 1 1 1 1 1 1 1 1 
1 1 1 1 1 1 1 1 1 
1 1 1 1 1 1 1 1 1 
1 1 1 1 1 1 1 1 1 
1 1 1 1 1 1 1 1 1 
1 1 1 1 1 1 1 1 1 
1 1 1 1 1 1 1 1 1 
1 1 1 1 1 1 1 1 1 
1 1 1 1 1 1 1 1 1 
1 1 1 1 1 1 1 1 1 
1 1 1 1 1 1 1 1 1 
1 1 1 1 1 1 1 1 1 
1 1 1 1 1 1 1 1 1 
1 1 1 1 1 1 1 1 1 
1 1 1 1 1 1 1 1 1 
1 1 1 1 1 1 1 1 1 
1 1 1 1 1 1 1 1 1 
1 1 1 1 1 1 1 1 1 
1 1 1 1 1 1 1 1 1 
1 1 1 1 1 1 1 1 1 
1 1 1 1 1 1 1 1 1 
1 1 1 1 1 1 1 1 1 
1 1 1 1 1 1 1 1 1 
1 1 1 1 1 1 1 1 1 
1 1 1 1 1 1 1 1 1 
1 1 1 1 1 1 1 1 1 
1 1 1 1 1 1 1 1 1 
1 1 1 1 1 1 1 1 1 
1 1 1 1 1 1 1 1 1 
1 1 1 1 1 1 1 1 1 
1 1 1 1 1 1 1 1 1 
1 1 1 1 1 1 1 1 1 
1 1 1 1 1 1 1 1 1 
1 1 1 1 1 1 1 1 1 
1 1 1 1 1 1 1 1 1 
1 1 1 1 1 1 1 1 1 
1 1 1 1 1 1 1 1 1 
1 1 1 1 1 1 1 1 1 
1 1 1 1 1 1 1 1 1 
1 1 1 1 1 1 1 1 1 
1 1 1 1 1 1 1 1 1 
1 1 1 1 1 1 1 1 1 
1 1 1 1 1 1 1 1 1 
1 1 1 1 1 1 1 1 1 
1 1 1 1 1 1 1 1 1 
1 1 1 1 1 1 1 1 1 
1 1 1 1 1 1 1 1 1 
1 1 1 1 1 1 1 1 1 
1 1 1 1 1 1 1 1 1 
1 1 1 1 1 1 1 1 1 
1 1 1 1 1 1 1 1 1 
1 1 1 1 1 1 1 1 1 
1 1 1 1 1 1 1 1 1 
1 1 1 1 1 1 1 1 1 
1 1 1 1 1 1 1 1 1 
1 1 1 1 1 
i 3 1355 int
0 0 0 0 0 0 0 0 0 
0 0 0 0 0 0 0 0 0 
0 0 0 0 0 0 0 0 0 
0 0 0 0 0 0 0 0 0 
0 0 0 0 0 0 0 0 0 
0 0 0 0 0 0 0 0 0 
0 0 0 0 0 0 0 0 0 
0 0 0 0 0 0 0 0 0 
0 0 0 0 0 0 0 0 0 
0 0 0 0 0 0 0 0 0 
0 0 0 0 0 0 0 0 0 
0 0 0 0 0 0 0 0 0 
0 0 0 0 0 0 0 0 0 
0 0 0 0 0 0 0 0 0 
0 0 0 0 0 0 0 0 0 
0 0 0 0 0 0 0 0 0 
0 0 0 0 0 0 0 0 0 
0 0 0 0 0 0 0 0 0 
0 0 0 0 0 0 0 0 0 
0 0 0 0 0 0 0 0 0 
0 0 0 0 0 0 0 0 0 
0 0 0 0 0 0 0 0 0 
0 0 0 0 0 0 0 0 0 
0 0 0 0 0 0 0 0 0 
0 0 0 0 0 0 0 0 0 
0 0 0 0 0 0 0 0 0 
0 0 0 0 0 0 0 0 0 
0 0 0 0 0 0 0 0 0 
0 0 0 0 0 0 0 0 0 
0 0 0 0 0 0 0 0 0 
0 0 0 0 0 0 0 0 0 
0 0 0 0 0 0 0 0 0 
0 0 0 0 0 0 0 0 0 
0 0 0 0 0 0 0 0 0 
0 0 0 0 0 0 0 0 0 
0 0 0 0 0 0 0 0 0 
0 0 0 0 0 0 0 0 0 
0 0 0 0 0 0 0 0 0 
0 0 0 0 0 0 0 0 0 
0 0 0 0 0 0 0 0 0 
0 0 0 0 0 0 0 0 0 
0 0 0 0 0 0 0 0 0 
0 0 0 0 0 0 0 0 0 
0 0 0 0 0 0 0 0 0 
0 0 0 0 0 0 0 0 0 
0 0 0 0 0 0 0 0 0 
0 0 0 0 0 0 0 0 0 
0 0 0 0 0 0 0 0 0 
0 0 0 0 0 0 0 0 0 
0 0 0 0 0 0 0 0 0 
0 0 0 0 0 0 0 0 0 
0 0 0 0 0 0 0 0 0 
0 0 0 0 0 0 0 0 0 
0 0 0 0 0 0 0 0 0 
0 0 0 0 0 0 0 0 0 
0 0 0 0 0 0 0 0 0 
0 0 0 0 0 0 0 0 0 
0 0 0 0 0 0 0 0 0 
0 0 0 0 0 0 0 0 0 
0 0 0 0 0 0 0 0 0 
0 0 0 0 0 0 0 0 0 
0 0 0 0 0 0 0 0 0 
0 0 0 0 0 0 0 0 0 
0 0 0 0 0 0 0 0 0 
0 0 0 0 0 0 0 0 0 
0 0 0 0 0 0 0 0 0 
0 0 0 0 0 0 0 0 0 
0 0 0 0 0 0 0 0 0 
0 0 0 0 0 0 0 0 0 
0 0 0 0 0 0 0 0 0 
0 0 0 0 0 0 0 0 0 
0 0 0 0 0 0 0 0 0 
0 0 0 0 0 0 0 0 0 
0 0 0 0 0 0 0 0 0 
0 0 0 0 0 0 0 0 0 
0 0 0 0 0 0 0 0 0 
0 0 0 0 0 0 0 0 0 
0 0 0 0 0 0 0 0 0 
0 0 0 0 0 0 0 0 0 
0 0 0 0 0 0 0 0 0 
0 0 0 0 0 0 0 0 0 
0 0 0 0 0 0 0 0 0 
0 0 0 0 0 0 0 0 0 
0 0 0 0 0 0 0 0 0 
0 0 0 0 0 0 0 0 0 
0 0 0 0 0 0 0 0 0 
0 0 0 0 0 0 0 0 0 
0 0 0 0 0 0 0 0 0 
0 0 0 0 0 0 0 0 0 
0 0 0 0 0 0 0 0 0 
0 0 0 0 0 0 0 0 0 
0 0 0 0 0 0 0 0 0 
0 0 0 0 0 0 0 0 0 
0 0 0 0 0 0 0 0 0 
0 0 0 0 0 0 0 0 0 
0 0 0 0 0 0 0 0 0 
0 0 0 0 0 0 0 0 0 
0 0 0 0 0 0 0 0 0 
0 0 0 0 0 0 0 0 0 
0 0 0 0 0 0 0 0 0 
0 0 0 0 0 0 0 0 0 
0 0 0 0 0 0 0 0 0 
0 0 0 0 0 0 0 0 0 
0 0 0 0 0 0 0 0 0 
0 0 0 0 0 0 0 0 0 
0 0 0 0 0 0 0 0 0 
0 0 0 0 0 0 0 0 0 
0 0 0 0 0 0 0 0 0 
0 0 0 0 0 0 0 0 0 
0 0 0 0 0 0 0 0 0 
0 0 0 0 0 0 0 0 0 
0 0 0 0 0 0 0 0 0 
0 0 0 0 0 0 0 0 0 
0 0 0 0 0 0 0 0 0 
0 0 0 0 0 0 0 0 0 
0 0 0 0 0 0 0 0 0 
0 0 0 0 0 0 0 0 0 
0 0 0 0 0 0 0 0 0 
0 0 0 0 0 0 0 0 0 
0 0 0 0 0 0 0 0 0 
0 0 0 0 0 0 0 0 0 
0 0 0 0 0 0 0 0 0 
0 0 0 0 0 0 0 0 0 
0 0 0 0 0 0 0 0 0 
0 0 0 0 0 0 0 0 0 
0 0 0 0 0 0 0 0 0 
0 0 0 0 0 0 0 0 0 
0 0 0 0 0 0 0 0 0 
0 0 0 0 0 0 0 0 0 
0 0 0 0 0 0 0 0 0 
0 0 0 0 0 0 0 0 0 
0 0 0 0 0 0 0 0 0 
0 0 0 0 0 0 0 0 0 
0 0 0 0 0 0 0 0 0 
0 0 0 0 0 0 0 0 0 
0 0 0 0 0 0 0 0 0 
0 0 0 0 0 0 0 0 0 
0 0 0 0 0 0 0 0 0 
0 0 0 0 0 0 0 0 0 
0 0 0 0 0 0 0 0 0 
0 0 0 0 0 0 0 0 0 
0 0 0 0 0 0 0 0 0 
0 0 0 0 0 0 0 0 0 
0 0 0 0 0 0 0 0 0 
0 0 0 0 0 0 0 0 0 
0 0 0 0 0 0 0 0 0 
0 0 0 0 0 0 0 0 0 
0 0 0 0 0 0 0 0 0 
0 0 0 0 0 0 0 0 0 
0 0 0 0 0 0 0 0 0 
0 0 0 0 0 0 0 0 0 
0 0 0 0 0 0 0 0 0 
0 0 0 0 0 0 0 0 0 
0 0 0 0 0 0 0 0 0 
0 0 0 0 0 0 0 0 0 
0 0 0 0 0 0 0 0 0 
0 0 0 0 0 0 0 0 0 
0 0 0 0 0 0 0 0 0 
0 0 0 0 0 0 0 0 0 
0 0 0 0 0 0 0 0 0 
0 0 0 0 0 0 0 0 0 
0 0 0 0 0 0 0 0 0 
0 0 0 0 0 0 0 0 0 
0 0 0 0 0 0 0 0 0 
0 0 0 0 0 0 0 0 0 
0 0 0 0 0 0 0 0 0 
0 0 0 0 0 0 0 0 0 
0 0 0 0 0 0 0 0 0 
0 0 0 0 0 0 0 0 0 
0 0 0 0 0 0 0 0 0 
0 0 0 0 0 0 0 0 0 
0 0 0 0 0 0 0 0 0 
0 0 0 0 0 0 0 0 0 
0 0 0 0 0 0 0 0 0 
0 0 0 0 0 0 0 0 0 
0 0 0 0 0 0 0 0 0 
0 0 0 0 0 0 0 0 0 
0 0 0 0 0 0 0 0 0 
0 0 0 0 0 0 0 0 0 
0 0 0 0 0 0 0 0 0 
0 0 0 0 0 0 0 0 0 
0 0 0 0 0 0 0 0 0 
0 0 0 0 0 0 0 0 0 
0 0 0 0 0 0 0 0 0 
0 0 0 0 0 0 0 0 0 
0 0 0 0 0 0 0 0 0 
0 0 0 0 0 0 0 0 0 
0 0 0 0 0 0 0 0 0 
0 0 0 0 0 0 0 0 0 
0 0 0 0 0 0 0 0 0 
0 0 0 0 0 0 0 0 0 
0 0 0 0 0 0 0 0 0 
0 0 0 0 0 0 0 0 0 
0 0 0 0 0 0 0 0 0 
0 0 0 0 0 0 0 0 0 
0 0 0 0 0 0 0 0 0 
0 0 0 0 0 0 0 0 0 
0 0 0 0 0 0 0 0 0 
0 0 0 0 0 0 0 0 0 
0 0 0 0 0 0 0 0 0 
0 0 0 0 0 0 0 0 0 
0 0 0 0 0 0 0 0 0 
0 0 0 0 0 0 0 0 0 
0 0 0 0 0 0 0 0 0 
0 0 0 0 0 0 0 0 0 
0 0 0 0 0 0 0 0 0 
0 0 0 0 0 0 0 0 0 
0 0 0 0 0 0 0 0 0 
0 0 0 0 0 0 0 0 0 
0 0 0 0 0 0 0 0 0 
0 0 0 0 0 0 0 0 0 
0 0 0 0 0 0 0 0 0 
0 0 0 0 0 0 0 0 0 
0 0 0 0 0 0 0 0 0 
0 0 0 0 0 0 0 0 0 
0 0 0 0 0 0 0 0 0 
0 0 0 0 0 0 0 0 0 
0 0 0 0 0 0 0 0 0 
0 0 0 0 0 0 0 0 0 
0 0 0 0 0 0 0 0 0 
0 0 0 0 0 0 0 0 0 
0 0 0 0 0 0 0 0 0 
0 0 0 0 0 0 0 0 0 
0 0 0 0 0 0 0 0 0 
0 0 0 0 0 0 0 0 0 
0 0 0 0 0 0 0 0 0 
0 0 0 0 0 0 0 0 0 
0 0 0 0 0 0 0 0 0 
0 0 0 0 0 0 0 0 0 
0 0 0 0 0 0 0 0 0 
0 0 0 0 0 0 0 0 0 
0 0 0 0 0 0 0 0 0 
0 0 0 0 0 0 0 0 0 
0 0 0 0 0 0 0 0 0 
0 0 0 0 0 0 0 0 0 
0 0 0 0 0 0 0 0 0 
0 0 0 0 0 0 0 0 0 
0 0 0 0 0 0 0 0 0 
0 0 0 0 0 0 0 0 0 
0 0 0 0 0 0 0 0 0 
0 0 0 0 0 0 0 0 0 
0 0 0 0 0 0 0 0 0 
0 0 0 0 0 0 0 0 0 
0 0 0 0 0 0 0 0 0 
0 0 0 0 0 0 0 0 0 
0 0 0 0 0 0 0 0 0 
0 0 0 0 0 0 0 0 0 
0 0 0 0 0 0 0 0 0 
0 0 0 0 0 0 0 0 0 
0 0 0 0 0 0 0 0 0 
0 0 0 0 0 0 0 0 0 
0 0 0 0 0 0 0 0 0 
0 0 0 0 0 0 0 0 0 
0 0 0 0 0 0 0 0 0 
0 0 0 0 0 0 0 0 0 
0 0 0 0 0 0 0 0 0 
0 0 0 0 0 0 0 0 0 
0 0 0 0 0 0 0 0 0 
0 0 0 0 0 0 0 0 0 
0 0 0 0 0 0 0 0 0 
0 0 0 0 0 0 0 0 0 
0 0 0 0 0 0 0 0 0 
0 0 0 0 0 0 0 0 0 
0 0 0 0 0 0 0 0 0 
0 0 0 0 0 0 0 0 0 
0 0 0 0 0 0 0 0 0 
0 0 0 0 0 0 0 0 0 
0 0 0 0 0 0 0 0 0 
0 0 0 0 0 0 0 0 0 
0 0 0 0 0 0 0 0 0 
0 0 0 0 0 0 0 0 0 
0 0 0 0 0 0 0 0 0 
0 0 0 0 0 0 0 0 0 
0 0 0 0 0 0 0 0 0 
0 0 0 0 0 0 0 0 0 
0 0 0 0 0 0 0 0 0 
0 0 0 0 0 0 0 0 0 
0 0 0 0 0 0 0 0 0 
0 0 0 0 0 0 0 0 0 
0 0 0 0 0 0 0 0 0 
0 0 0 0 0 0 0 0 0 
0 0 0 0 0 0 0 0 0 
0 0 0 0 0 0 0 0 0 
0 0 0 0 0 0 0 0 0 
0 0 0 0 0 0 0 0 0 
0 0 0 0 0 0 0 0 0 
0 0 0 0 0 0 0 0 0 
0 0 0 0 0 0 0 0 0 
0 0 0 0 0 0 0 0 0 
0 0 0 0 0 0 0 0 0 
0 0 0 0 0 0 0 0 0 
0 0 0 0 0 0 0 0 0 
0 0 0 0 0 0 0 0 0 
0 0 0 0 0 0 0 0 0 
0 0 0 0 0 0 0 0 0 
0 0 0 0 0 0 0 0 0 
0 0 0 0 0 0 0 0 0 
0 0 0 0 0 0 0 0 0 
0 0 0 0 0 0 0 0 0 
0 0 0 0 0 0 0 0 0 
0 0 0 0 0 0 0 0 0 
0 0 0 0 0 0 0 0 0 
0 0 0 0 0 0 0 0 0 
0 0 0 0 0 0 0 0 0 
0 0 0 0 0 0 0 0 0 
0 0 0 0 0 0 0 0 0 
0 0 0 0 0 0 0 0 0 
0 0 0 0 0 0 0 0 0 
0 0 0 0 0 0 0 0 0 
0 0 0 0 0 0 0 0 0 
0 0 0 0 0 0 0 0 0 
0 0 0 0 0 0 0 0 0 
0 0 0 0 0 0 0 0 0 
0 0 0 0 0 0 0 0 0 
0 0 0 0 0 0 0 0 0 
0 0 0 0 0 0 0 0 0 
0 0 0 0 0 0 0 0 0 
0 0 0 0 0 0 0 0 0 
0 0 0 0 0 0 0 0 0 
0 0 0 0 0 0 0 0 0 
0 0 0 0 0 0 0 0 0 
0 0 0 0 0 0 0 0 0 
0 0 0 0 0 0 0 0 0 
0 0 0 0 0 0 0 0 0 
0 0 0 0 0 0 0 0 0 
0 0 0 0 0 0 0 0 0 
0 0 0 0 0 0 0 0 0 
0 0 0 0 0 0 0 0 0 
0 0 0 0 0 0 0 0 0 
0 0 0 0 0 0 0 0 0 
0 0 0 0 0 0 0 0 0 
0 0 0 0 0 0 0 0 0 
0 0 0 0 0 0 0 0 0 
0 0 0 0 0 0 0 0 0 
0 0 0 0 0 0 0 0 0 
0 0 0 0 0 0 0 0 0 
0 0 0 0 0 0 0 0 0 
0 0 0 0 0 0 0 0 0 
0 0 0 0 0 0 0 0 0 
0 0 0 0 0 0 0 0 0 
0 0 0 0 0 0 0 0 0 
0 0 0 0 0 0 0 0 0 
0 0 0 0 0 0 0 0 0 
0 0 0 0 0 0 0 0 0 
0 0 0 0 0 0 0 0 0 
0 0 0 0 0 0 0 0 0 
0 0 0 0 0 0 0 0 0 
0 0 0 0 0 0 0 0 0 
0 0 0 0 0 0 0 0 0 
0 0 0 0 0 0 0 0 0 
0 0 0 0 0 0 0 0 0 
0 0 0 0 0 0 0 0 0 
0 0 0 0 0 0 0 0 0 
0 0 0 0 0 0 0 0 0 
0 0 0 0 0 0 0 0 0 
0 0 0 0 0 0 0 0 0 
0 0 0 0 0 0 0 0 0 
0 0 0 0 0 0 0 0 0 
0 0 0 0 0 0 0 0 0 
0 0 0 0 0 0 0 0 0 
0 0 0 0 0 0 0 0 0 
0 0 0 0 0 0 0 0 0 
0 0 0 0 0 0 0 0 0 
0 0 0 0 0 0 0 0 0 
0 0 0 0 0 0 0 0 0 
0 0 0 0 0 0 0 0 0 
0 0 0 0 0 0 0 0 0 
0 0 0 0 0 0 0 0 0 
0 0 0 0 0 0 0 0 0 
0 0 0 0 0 0 0 0 0 
0 0 0 0 0 0 0 0 0 
0 0 0 0 0 0 0 0 0 
0 0 0 0 0 0 0 0 0 
0 0 0 0 0 0 0 0 0 
0 0 0 0 0 0 0 0 0 
0 0 0 0 0 0 0 0 0 
0 0 0 0 0 0 0 0 0 
0 0 0 0 0 0 0 0 0 
0 0 0 0 0 0 0 0 0 
0 0 0 0 0 0 0 0 0 
0 0 0 0 0 0 0 0 0 
0 0 0 0 0 0 0 0 0 
0 0 0 0 0 0 0 0 0 
0 0 0 0 0 0 0 0 0 
0 0 0 0 0 0 0 0 0 
0 0 0 0 0 0 0 0 0 
0 0 0 0 0 0 0 0 0 
0 0 0 0 0 0 0 0 0 
0 0 0 0 0 0 0 0 0 
0 0 0 0 0 0 0 0 0 
0 0 0 0 0 0 0 0 0 
0 0 0 0 0 0 0 0 0 
0 0 0 0 0 0 0 0 0 
0 0 0 0 0 0 0 0 0 
0 0 0 0 0 0 0 0 0 
0 0 0 0 0 0 0 0 0 
0 0 0 0 0 0 0 0 0 
0 0 0 0 0 0 0 0 0 
0 0 0 0 0 0 0 0 0 
0 0 0 0 0 0 0 0 0 
0 0 0 0 0 0 0 0 0 
0 0 0 0 0 0 0 0 0 
0 0 0 0 0 0 0 0 0 
0 0 0 0 0 0 0 0 0 
0 0 0 0 0 0 0 0 0 
0 0 0 0 0 0 0 0 0 
0 0 0 0 0 0 0 0 0 
0 0 0 0 0 0 0 0 0 
0 0 0 0 0 0 0 0 0 
0 0 0 0 0 0 0 0 0 
0 0 0 0 0 0 0 0 0 
0 0 0 0 0 0 0 0 0 
0 0 0 0 0 0 0 0 0 
0 0 0 0 0 0 0 0 0 
0 0 0 0 0 0 0 0 0 
0 0 0 0 0 0 0 0 0 
0 0 0 0 0 0 0 0 0 
0 0 0 0 0 0 0 0 0 
0 0 0 0 0 0 0 0 0 
0 0 0 0 0 0 0 0 0 
0 0 0 0 0 0 0 0 0 
0 0 0 0 0 0 0 0 0 
0 0 0 0 0 0 0 0 0 
0 0 0 0 0 0 0 0 0 
0 0 0 0 0 0 0 0 0 
0 0 0 0 0 0 0 0 0 
0 0 0 0 0 0 0 0 0 
0 0 0 0 0 0 0 0 0 
0 0 0 0 0 0 0 0 0 
0 0 0 0 0 0 0 0 0 
0 0 0 0 0 0 0 0 0 
0 0 0 0 0 0 0 0 0 
0 0 0 0 0 0 0 0 0 
0 0 0 0 0 0 0 0 0 
0 0 0 0 0 0 0 0 0 
0 0 0 0 0 0 0 0 0 
0 0 0 0 0 0 0 0 0 
0 0 0 0 0 0 0 0 0 
0 0 0 0 0 0 0 0 0 
0 0 0 0 0 0 0 0 0 
0 0 0 0 0 0 0 0 0 
0 0 0 0 0 0 0 0 0 
0 0 0 0 0 0 0 0 0 
0 0 0 0 0 0 0 0 0 
0 0 0 0 0 0 0 0 0 
0 0 0 0 0 0 0 0 0 
0 0 0 0 0 0 0 0 0 
0 0 0 0 0 0 0 0 0 
0 0 0 0 0 0 0 0 0 
0 0 0 0 0 0 0 0 0 
0 0 0 0 0 0 0 0 0 
0 0 0 0 0 0 
v 3 1355 double
0.000590254 -0.000383971 -0.000720856 -0.000237431 0.000959186 -0.00126395 -0.000487469 -0.000318429 -0.000162059 
-0.000292422 -0.000565024 0.00089749 -0.000254616 -0.000164782 0.000578082 -0.000364913 9.65807e-05 9.77054e-05 
6.82725e-05 -0.000335422 6.18684e-06 0.000281254 -0.000267045 -0.000210813 0.000113139 1.07989e-05 0.000145002 
-4.1493e-05 -0.000155318 0.000759548 -0.000201937 7.77659e-05 0.000249279 0.000319991 0.000184962 0.000169152 
0.00039709 6.88143e-05 2.8555e-05 0.000337413 0.000226578 0.000160027 -7.95388e-05 0.000424722 -9.55691e-05 
-0.00025091 -2.98967e-05 -0.000379432 -1.40247e-05 0.000159328 -0.000200907 -0.000393439 0.000354731 -0.000299273 
-0.000352012 0.000674451 -0.00133877 -0.000678914 0.00102686 -0.000493907 -0.00164553 -0.000640218 0.000888227 
-0.00264345 -0.000929893 -5.53289e-05 -0.000359711 -0.000109332 -0.000394427 -0.000283752 -0.000521206 0.000219462 
0.000200382 -0.000487488 0.000529428 -0.000210404 -0.00143012 0.00117863 -0.000303239 -0.000644701 0.00103466 
-0.000224103 1.50932e-05 -1.79248e-05 -0.000195707 -8.47703e-05 -7.2044e-05 0.000361297 -0.000166884 7.51394e-05 
0.000161749 -1.26392e-05 -0.000104257 0.000129889 0.000200176 0.000230521 -0.000533099 -0.000555253 0.000237506 
4.15119e-05 8.74904e-05 -0.000597925 0.000100929 0.000660423 -2.63673e-05 -0.00019213 0.00143115 0.000593463 
-0.000673863 0.00121853 0.000179926 0.000158436 -0.000909823 -0.000592166 0.000452426 0.000459036 2.53686e-05 
0.000318149 0.000230358 0.000530291 0.000677727 0.00196071 -0.0011911 -0.000496475 0.000509453 -0.000977452 
-0.00103259 -0.000371049 0.00110004 -0.00103 -0.00069162 0.000590188 -0.000572172 -0.000718875 -0.000514061 
-0.000369828 -8.99437e-05 0.000502904 -0.00157316 0.00108041 0.000632457 -0.000147469 -0.000545597 0.000485186 
-0.000553312 -0.000628334 0.000528479 -0.00051028 -2.02647e-06 -5.8617e-06 0.000137296 0.000116246 -0.000382772 
0.000399491 0.000156107 -0.000548236 0.000107505 -0.000432803 -0.000378999 -0.000147471 0.000127414 0.000253425 
0.000345498 7.89682e-05 0.000457598 0.000301411 0.000277878 -1.84624e-05 0.000218128 -0.000213113 -1.34776e-05 
-0.000230057 0.000684199 0.000206356 0.000129591 0.000925018 0.000909824 0.000147865 -0.000374417 -0.000158671 
0.000425803 0.000308726 -0.000269555 0.00048394 0.000397838 0.00044192 3.31914e-05 0.000793571 -0.00124287 
0.000166509 -6.88282e-05 -0.00224277 0.00187908 0.000584255 0.00102586 -0.000131545 0.000337575 -0.000473176 
-1.36564e-05 0.000377353 0.000577208 0.000410874 0.000219972 8.29621e-05 -0.000159435 -7.94431e-05 -0.000524305 