# vtk DataFile Version 4.0
Generated by LIGGGHTS
ASCII
DATASET POLYDATA
POINTS 1355 float
-0.897876 -0.460536 -0.460264 -0.76697 -0.460317 -0.460387 -0.687403 -0.460249 -0.460474 
-0.607553 -0.460704 -0.460549 -0.527415 -0.46059 -0.460561 -0.447618 -0.460199 -0.460398 
-0.367844 -0.460024 -0.460761 -0.277527 -0.46009 -0.460367 -0.159097 -0.460826 -0.460319 
-0.0793673 -0.453528 -0.460417 8.43707e-05 -0.460318 -0.460465 0.0799109 -0.46028 -0.460457 
0.159696 -0.460242 -0.460467 0.23961 -0.460283 -0.460505 0.319255 -0.455407 -0.460414 
0.398953 -0.4599 -0.460445 0.478716 -0.460234 -0.460237 0.581916 -0.460486 -0.460784 
0.661534 -0.460417 -0.460509 0.74118 -0.46029 -0.460556 0.820627 -0.460385 -0.460697 
0.901845 -0.460261 -0.460299 -0.96057 -0.411893 -0.461009 -0.88693 -0.38147 -0.460695 
-0.727667 -0.390903 -0.460747 -0.6471 -0.391694 -0.460319 -0.567638 -0.392323 -0.460215 
-0.488119 -0.391288 -0.460413 -0.408465 -0.390735 -0.460575 -0.329007 -0.389856 -0.460442 
-0.212876 -0.402527 -0.460538 -0.135291 -0.385253 -0.460917 0.0396983 -0.391428 -0.460648 
0.11976 -0.391183 -0.460711 0.199974 -0.391367 -0.460525 0.279568 -0.384259 -0.46043 
0.359555 -0.386399 -0.460675 0.4414 -0.387062 -0.460196 0.530273 -0.399689 -0.460458 
0.621005 -0.39146 -0.460749 0.700884 -0.391582 -0.460473 0.780918 -0.391007 -0.460155 
0.860764 -0.391798 -0.460529 0.960362 -0.40627 -0.460533 -0.95391 -0.332959 -0.460107 
-0.880334 -0.301962 -0.460372 -0.805738 -0.361656 -0.460296 -0.678629 -0.319139 -0.461652 
-0.566958 -0.313723 -0.460892 -0.487351 -0.311607 -0.460495 -0.404498 -0.311037 -0.460299 
-0.26448 -0.342665 -0.460565 -0.186716 -0.324272 -0.460508 -0.107846 -0.31108 -0.460444 
-0.0319014 -0.355973 -0.460277 0.0348608 -0.312282 -0.460316 0.160276 -0.322743 -0.460463 
0.23978 -0.312822 -0.460543 0.321576 -0.316231 -0.460458 0.401414 -0.31778 -0.460307 
0.49171 -0.311673 -0.460593 0.56932 -0.33048 -0.460767 0.660253 -0.322584 -0.460259 
0.739626 -0.322698 -0.460907 0.882093 -0.315348 -0.460954 0.960483 -0.326859 -0.460429 
-0.960586 -0.253955 -0.460464 -0.80327 -0.281959 -0.460441 -0.725871 -0.254814 -0.460487 
-0.625659 -0.260236 -0.460106 -0.534395 -0.242009 -0.460364 -0.45518 -0.236421 -0.460799 
-0.326671 -0.293691 -0.460525 -0.129108 -0.234257 -0.46052 -0.0362776 -0.276234 -0.460631 
0.10156 -0.269376 -0.460943 0.186442 -0.247838 -0.460205 0.309805 -0.237435 -0.460405 
0.546807 -0.254127 -0.460667 0.623228 -0.255798 -0.43855 0.699957 -0.253349 -0.460397 
0.779696 -0.254116 -0.460191 0.881875 -0.235735 -0.460275 0.9604 -0.247418 -0.46051 
-0.960837 -0.174526 -0.460549 -0.891743 -0.214248 -0.460164 -0.813249 -0.20324 -0.460618 
-0.672319 -0.195703 -0.460347 -0.592813 -0.188076 -0.46043 -0.500935 -0.170098 -0.460818 
-0.375633 -0.230727 -0.460673 -0.295192 -0.220581 -0.460621 -0.215073 -0.209669 -0.460592 
-0.0538512 -0.198942 -0.460561 0.0307522 -0.232681 -0.460471 0.0889146 -0.178149 -0.461377 
0.168048 -0.17057 -0.460294 0.244066 -0.192624 -0.46022 0.391106 -0.204498 -0.461008 
0.470111 -0.232609 -0.460511 0.574581 -0.179455 -0.460914 0.653863 -0.185721 -0.460555 
0.733211 -0.177991 -0.46052 0.820073 -0.185963 -0.460285 0.960514 -0.167954 -0.46053 
-0.894032 -0.132559 -0.460687 -0.81415 -0.123561 -0.460134 -0.744911 -0.162809 -0.460548 
-0.638715 -0.123378 -0.460375 -0.559607 -0.116132 -0.460445 -0.422026 -0.163994 -0.460483 
-0.343212 -0.157449 -0.460653 -0.26436 -0.146952 -0.460235 -0.148735 -0.157308 -0.460708 
-0.0746543 -0.122159 -0.460319 0.0126594 -0.155114 -0.460992 0.132232 -0.100284 -0.460534 
0.309869 -0.148387 -0.460836 0.428737 -0.114894 -0.460812 0.502258 -0.145346 -0.460534 
0.618559 -0.113265 -0.460669 0.811396 -0.107352 -0.460671 0.886097 -0.140404 -0.460763 
-0.960091 -0.0763264 -0.46046 -0.862274 -0.0603888 -0.460711 -0.779944 -0.0513389 -0.460546 
-0.708957 -0.0870764 -0.460444 -0.583024 -0.0400368 -0.460385 -0.49769 -0.0670079 -0.460496 
-0.419163 -0.0792741 -0.460718 -0.33974 -0.0782552 -0.460452 -0.201764 -0.0980287 -0.460618 
-0.130143 -0.064758 -0.460318 -0.00856428 -0.0766432 -0.460072 0.0690759 -0.0520069 -0.461213 
0.210732 -0.07448 -0.460826 0.290367 -0.0709834 -0.460437 0.369359 -0.0619267 -0.460086 
0.445321 -0.0373279 -0.461211 0.546654 -0.0791541 -0.460478 0.662179 -0.0462455 -0.460446 
0.736872 -0.0790626 -0.460621 0.960164 -0.0881866 -0.460804 -0.920941 -0.0068319 -0.460461 
-0.829064 0.0109005 -0.460316 -0.750947 0.0251942 -0.460538 -0.680695 -0.0125807 -0.460733 
-0.465958 0.00570796 -0.460507 -0.384113 -0.00752262 -0.460109 -0.303625 -0.00753255 -0.460988 
-0.223981 -0.00858769 -0.460325 -0.154058 0.0297629 -0.460868 -0.0717044 -0.0115353 -0.460875 
0.00655276 0.00208299 -0.460305 0.0822095 0.0265282 -0.461068 0.145073 -0.022066 -0.460727 
0.22596 0.00367867 -0.460648 0.305875 0.00734119 -0.460183 0.386133 0.0159566 -0.460712 
0.589913 -0.0121141 -0.460888 0.762313 -0.00354815 -0.460186 0.837374 -0.0323553 -0.460534 
0.915868 -0.0221251 -0.460993 -0.960683 0.0618941 -0.460427 -0.881839 0.0700099 -0.460383 
-0.803433 0.0854516 -0.46114 -0.642164 0.0829246 -0.460294 -0.553522 0.0339068 -0.46087 
-0.489979 0.0818095 -0.460165 -0.416987 0.062499 -0.435101 -0.342256 0.0617672 -0.461156 
-0.262876 0.062062 -0.460337 -0.0834826 0.0669764 -0.460382 -0.00513095 0.0814444 -0.460551 
0.155966 0.0568452 -0.460615 0.273919 0.080695 -0.460526 0.402903 0.0934232 -0.460219 
0.461947 0.0406202 -0.460442 0.538101 0.0619847 -0.460449 0.617522 0.0626738 -0.460453 
0.691946 0.0340427 -0.460126 0.754433 0.0839265 -0.460472 0.824635 0.0458701 -0.460424 
0.893181 0.0865792 -0.460432 0.960403 0.043911 -0.460228 -0.960565 0.141392 -0.461042 
-0.85621 0.145076 -0.460355 -0.780764 0.157025 -0.436342 -0.725254 0.100377 -0.460697 
-0.629968 0.161629 -0.460862 -0.5677 0.112093 -0.460182 -0.504129 0.159993 -0.461013 
-0.383745 0.129813 -0.460754 -0.303951 0.131774 -0.460381 -0.19328 0.100914 -0.461206 
-0.120091 0.137334 -0.461239 -0.0379597 0.15522 -0.460368 0.0898317 0.105641 -0.460379 
0.203943 0.121965 -0.460588 0.333799 0.133462 -0.460846 0.479235 0.127741 -0.460708 
0.566919 0.136002 -0.46061 0.647867 0.136404 -0.460298 0.753785 0.163699 -0.460838 
0.823247 0.125235 -0.460447 0.891229 0.166392 -0.460492 0.960745 0.128741 -0.460418 
-0.960391 0.220679 -0.460476 -0.825263 0.218219 -0.460563 -0.70852 0.178112 -0.461103 
-0.432055 0.195298 -0.460254 -0.34652 0.199468 -0.460602 -0.228006 0.192733 -0.460298 
-0.146849 0.211678 -0.46017 -0.0667148 0.232857 -0.460917 0.0428251 0.190815 -0.461711 
0.154773 0.184941 -0.461274 0.265278 0.173708 -0.460595 0.341691 0.212684 -0.461512 
0.409507 0.171849 -0.460535 0.517308 0.198 -0.460277 0.606979 0.20503 -0.46107 
0.686674 0.206185 -0.460218 0.821786 0.204952 -0.460466 0.960328 0.208603 -0.460321 
-0.891992 0.260777 -0.460326 -0.821823 0.298081 -0.460669 -0.750688 0.245694 -0.460594 
-0.607013 0.24957 -0.460467 -0.524624 0.247838 -0.460904 -0.392389 0.2645 -0.46032 
-0.284713 0.249099 -0.46035 -0.192353 0.276677 -0.461323 0.0138776 0.265538 -0.460412 
0.111083 0.255463 -0.461748 0.192889 0.254837 -0.460245 0.272902 0.253161 -0.460112 
0.381725 0.281026 -0.460418 0.44983 0.240103 -0.460443 0.557058 0.267072 -0.461077 
0.651584 0.277639 -0.460835 0.756242 0.249628 -0.460525 0.890066 0.245663 -0.460532 
-0.960572 0.300649 -0.460193 -0.891511 0.340376 -0.460445 -0.740817 0.324259 -0.460491 
-0.658233 0.310994 -0.460148 -0.572053 0.321091 -0.460344 -0.460252 0.35217 -0.461139 
-0.335188 0.319731 -0.460323 -0.256208 0.323187 -0.460331 -0.145843 0.346035 -0.461667 
-0.053321 0.311424 -0.461355 0.0689142 0.324774 -0.460219 0.151031 0.32398 -0.460888 
0.234166 0.322824 -0.46046 0.313854 0.322309 -0.460967 0.42135 0.349898 -0.460522 
0.489492 0.30906 -0.46084 0.597648 0.336036 -0.460654 0.7208 0.320946 -0.460524 
0.80114 0.321839 -0.460555 0.880841 0.323866 -0.460419 0.957634 0.301814 -0.460779 
-0.960321 0.380413 -0.460585 -0.891202 0.420346 -0.460804 -0.774875 0.395784 -0.460346 
-0.689177 0.384808 -0.460477 -0.60974 0.391308 -0.461015 -0.530084 0.390768 -0.460224 
-0.382525 0.392623 -0.460886 -0.298589 0.390729 -0.460475 -0.213131 0.389204 -0.460171 
-0.0774027 0.386561 -0.461965 0.0197689 0.389506 -0.461073 0.111392 0.393886 -0.460955 
0.194853 0.391996 -0.461149 0.274141 0.391602 -0.460931 0.353638 0.391298 -0.460465 
0.461432 0.418786 -0.460242 0.531042 0.37997 -0.460119 0.678542 0.388543 -0.460563 
0.758317 0.391492 -0.460704 0.839637 0.391886 -0.460294 0.921218 0.391811 -0.460708 
-0.96017 0.460223 -0.460127 -0.821844 0.460157 -0.460595 -0.72896 0.460373 -0.460404 
-0.649581 0.460333 -0.460558 -0.57014 0.460269 -0.460525 -0.490776 0.460287 -0.460638 
-0.415434 0.460474 -0.436515 -0.339366 0.459986 -0.460202 -0.259968 0.46029 -0.460245 
-0.180488 0.460991 -0.460686 -0.101307 0.461115 -0.460993 -0.0214488 0.458099 -0.460387 
0.0644704 0.459766 -0.460346 0.154628 0.460663 -0.460409 0.234283 0.460666 -0.460889 
0.313966 0.460436 -0.460476 0.393656 0.460294 -0.460104 0.529269 0.460131 -0.461116 
0.634282 0.459181 -0.460522 0.714047 0.460087 -0.460447 0.798786 0.460291 -0.460502 
0.880618 0.460322 -0.460402 0.960429 0.460498 -0.460281 -0.960214 -0.461033 -0.399323 
-0.884013 -0.460168 -0.37611 -0.727034 -0.460043 -0.391221 -0.647372 -0.46044 -0.39168 
-0.567468 -0.46017 -0.391694 -0.487699 -0.460257 -0.3916 -0.407094 -0.459946 -0.391574 
-0.323432 -0.460234 -0.395061 -0.218634 -0.460601 -0.406478 -0.118658 -0.460514 -0.391656 
-0.0391741 -0.460776 -0.391305 0.0402336 -0.460379 -0.391425 0.119812 -0.460207 -0.391373 
0.19956 -0.46033 -0.391549 0.279437 -0.460524 -0.391587 0.359162 -0.460517 -0.391504 
0.438699 -0.460926 -0.391225 0.531881 -0.460932 -0.399716 0.621891 -0.460099 -0.391753 
0.701855 -0.46 -0.391463 0.781049 -0.444322 -0.393395 0.860463 -0.459445 -0.392211 
0.960105 -0.460272 -0.402095 -0.960585 -0.382863 -0.386972 -0.832403 -0.429317 -0.428085 
-0.770511 -0.393011 -0.393634 -0.688068 -0.389625 -0.391999 -0.607968 -0.395635 -0.368307 
[...]
POINT_DATA 1355
FIELD FieldData 7
id 1 1355 int
366 408 584 322 662 206 563 371 419 
523 551 145 607 585 151 530 365 186 
620 156 70 664 692 632 759 714 370 
120 208 723 59 512 435 712 211 457 
20 256 338 470 195 678 320 643 534 
171 196 105 493 581 542 514 245 234 
347 708 214 280 305 529 396 291 444 
367 476 155 724 314 136 721 375 250 
442 95 498 54 200 431 623 593 109 
184 446 647 159 267 289 373 275 324 
62 533 376 589 76 722 239 543 576 
75 202 572 683 676 680 445 83 641 
185 331 96 99 458 575 40 57 88 
31 281 298 126 300 48 521 531 428 
254 592 758 361 412 14 689 312 252 
153 397 483 170 704 321 140 726 143 
142 351 651 528 433 92 690 382 437 
359 154 569 304 439 339 639 177 700 
378 459 310 258 182 6 549 369 323 
121 507 423 495 224 612 720 590 539 
461 166 460 97 240 537 127 580 51 
85 544 293 697 634 129 104 602 742 
161 32 384 25 671 74 278 675 383 
71 266 19 22 627 717 162 218 348 
247 167 125 191 199 294 586 640 441 
596 149 475 463 387 269 130 8 748 
420 613 663 16 578 402 682 421 715 
637 299 698 747 261 622 355 571 411 
42 416 227 391 527 557 346 67 274 
319 242 649 9 73 766 409 535 89 
4 260 318 650 388 311 94 618 39 
582 53 673 729 3 69 496 363 201 
188 599 670 499 228 519 667 472 669 
660 646 654 43 230 226 306 427 316 
614 764 329 545 179 389 12 453 440 
197 452 90 604 386 686 38 587 285 
725 743 181 518 225 761 513 5 559 
72 336 66 116 78 628 131 679 959 
103 273 1154 276 516 47 233 325 108 
223 666 157 455 205 175 287 221 56 
751 736 426 744 642 611 302 413 473 
741 684 118 653 18 770 15 82 272 
100 87 343 490 219 601 290 465 110 
438 372 767 631 255 879 552 307 699 
636 187 550 80 532 313 645 279 509 
556 511 114 757 144 81 668 58 615 
558 644 341 189 407 36 462 597 357 
394 565 169 554 29 334 282 570 424 
286 399 24 616 447 364 183 478 566 
492 718 497 886 248 33 422 11 502 
541 395 46 106 345 192 568 711 86 
60 236 44 112 737 429 479 540 27 
45 694 326 358 352 746 21 629 522 
415 137 271 2 524 111 102 818 134 
216 733 147 194 148 172 101 775 443 
28 738 710 146 474 180 482 381 374 
436 638 450 253 425 93 827 91 215 
505 403 520 277 591 84 133 626 288 
350 762 193 546 41 970 333 231 330 
928 574 308 328 232 703 432 296 393 
284 687 49 13 681 400 648 190 128 
392 610 135 209 760 35 665 122 503 
750 488 259 480 469 508 26 113 608 
123 222 709 340 456 251 417 17 292 
138 430 246 98 448 283 404 178 244 
132 63 583 464 891 600 1165 418 547 
763 553 229 494 385 617 672 467 119 
755 481 727 526 390 210 728 249 217 
573 871 769 354 158 510 7 739 466 
793 890 500 658 337 986 1166 846 173 
567 1184 930 468 781 927 735 809 1066 
1173 1152 925 685 933 814 921 414 784 
265 749 1288 943 504 787 268 935 831 
910 362 1115 619 903 688 867 1167 410 
768 973 951 1062 963 754 1061 1170 360 
828 235 696 779 875 1147 207 932 241 
865 702 1091 907 454 812 1255 974 1162 
848 914 829 379 295 707 937 176 982 
838 870 124 691 792 919 603 335 317 
406 944 972 732 165 952 491 765 204 
349 904 894 901 655 79 851 471 734 
786 981 882 356 939 855 141 489 577 
30 501 674 536 52 486 621 918 861 
824 895 487 1284 795 731 800 309 50 
605 975 1052 908 630 1075 434 677 892 
977 801 794 905 1078 301 776 962 805 
990 332 164 1182 484 815 401 548 327 
198 926 657 954 947 656 888 633 730 
911 160 752 790 150 34 560 783 243 
837 695 477 538 220 887 922 835 10 
555 380 803 876 515 791 840 955 65 
77 342 719 107 804 23 965 203 872 
929 994 873 598 884 822 506 713 774 
237 659 1 344 61 960 706 398 859 
896 869 716 55 1041 1156 971 856 115 
1134 909 813 257 821 564 139 263 850 
174 609 912 773 917 37 606 297 830 
368 881 625 353 771 772 913 562 405 
845 880 451 949 885 117 525 1001 303 
262 785 213 68 635 64 661 588 449 
756 152 753 701 594 984 923 315 579 
377 485 961 212 693 878 938 1243 561 
270 906 1178 1079 1149 1312 1004 866 823 
1334 1143 988 1076 956 825 1006 1330 163 
1123 1093 1290 1051 958 1305 1211 1113 1193 
1279 1110 1003 1185 849 1049 1133 1058 1159 
1302 1035 826 1231 844 1116 1197 1160 1112 
1073 832 652 847 1097 1316 1032 1267 1347 
1000 1344 868 999 808 1125 1266 1295 1028 
1221 1071 1086 1186 993 1354 1187 802 1139 
1285 1099 1022 1145 1036 1015 995 1054 1144 
1213 950 1315 1056 1008 1322 1021 1189 1129 
857 1246 902 985 1346 1014 1283 936 964 
1103 1188 806 780 789 1023 1130 1172 1321 
1020 1095 1050 1111 1138 916 992 1174 1201 
1105 1026 820 782 1089 1292 1065 1087 969 
1135 1077 1012 834 1158 978 924 1183 1119 
1082 1083 797 807 980 1223 1018 842 953 
967 1227 1088 1016 839 1067 1349 1258 1176 
1179 1010 1114 1048 931 1027 799 1150 1220 
1216 836 1037 1122 810 893 1273 1081 1311 
1171 1033 1046 1265 987 1100 1253 1017 1203 
968 1009 1109 862 819 1272 843 1127 1153 
934 899 1080 1269 852 915 948 1096 946 
1069 1057 1268 983 860 1128 1104 997 874 
1092 841 864 1043 798 811 1085 1175 1055 
1126 1309 595 1280 1101 998 1180 1248 1029 
1025 1163 889 1038 1137 1281 1177 777 1053 
796 1148 1063 1011 1042 1229 1230 877 1256 
976 1131 853 1060 858 989 1074 966 940 
1045 1181 1124 1019 1232 778 1118 900 898 
1161 1157 854 1102 996 942 1169 168 945 
1287 1070 1136 1212 1024 1117 1068 1254 740 
1059 1307 1098 979 1040 1208 1313 1142 817 
863 1064 1262 957 883 238 517 816 897 
788 624 1252 1250 1190 1121 1141 1233 1140 
941 1132 1299 1303 1151 1238 1327 1226 1247 
1339 1306 1275 1335 1217 1276 1249 745 1251 
1291 1107 1210 1034 1215 1199 1031 1224 1106 
1350 1323 1047 1297 1329 1341 1005 1202 1237 
1228 1348 1013 1194 1209 1325 1263 1192 833 
1205 1317 1270 1331 1219 1342 1352 1304 1242 
1235 1343 1039 1108 1214 1319 1274 1236 1326 
1296 1301 1294 1164 1308 1044 1333 1084 1286 
1234 1260 1345 1218 1207 1282 1198 1278 1241 
1259 1338 1293 1204 1191 1289 1168 1271 1324 
1007 1240 1072 1196 1261 1314 1094 1300 1245 
1222 1155 1320 1328 1351 1298 991 1200 1195 
1310 1355 1090 1277 1244 1002 1332 1257 264 
1353 1146 705 1264 1318 1239 1337 920 1206 
1336 1120 1340 1225 1030 
type 1 1355 int
1 1 1 1 1 1 1 1 1 
1 1 1 1 1 1 1 1 1 
1 1 1 1 1 1 1 1 1 
1 1 1 1 1 1 1 1 1 
1 1 1 1 1 1 1 1 1 
1 1 1 1 1 1 1 1 1 
1 1 1 1 1 1 1 1 1 
1 1 1 1 1 1 1 1 1 
1 1 1 1 1 1 1 1 1 
1 1 1 1 1 1 1 1 1 
1 1 1 1 1 1 1 1 1 
1 1 1 1 1 1 1 1 1 
1 1 1 1 1 1 1 1 1 
1 1 1 1 1 1 1 1 1 
1 1 1 1 1 1 1 1 1 
1 1 1 1 1 1 1 1 1 
1 1 1 1 1 1 1 1 1 
1 1 1 1 1 1 1 1 1 
1 1 1 1 1 1 1 1 1 
1 1 1 1 1 1 1 1 1 
1 1 1 1 1 1 1 1 1 
1 1 1 1 1 1 1 1 1 
1 1 1 1 1 1 1 1 1 
1 1 1 1 1 1 1 1 1 
1 1 1 1 1 1 1 1 1 
1 1 1 1 1 1 1 1 1 
1 1 1 1 1 1 1 1 1 
1 1 1 1 1 1 1 1 1 
1 1 1 1 1 1 1 1 1 
1 1 1 1 1 1 1 1 1 
1 1 1 1 1 1 1 1 1 
1 1 1 1 1 1 1 1 1 
1 1 1 1 1 1 1 1 1 
1 1 1 1 1 1 1 1 1 
1 1 1 1 1 1 1 1 1 
1 1 1 1 1 1 1 1 1 
1 1 1 1 1 1 1 1 1 
1 1 1 1 1 1 1 1 1 
1 1 1 1 1 1 1 1 1 
1 1 1 1 1 1 1 1 1 
1 1 1 1 1 1 1 1 1 
1 1 1 1 1 1 1 1 1 
1 1 1 1 1 1 1 1 1 
1 1 1 1 1 1 1 1 1 
1 1 1 1 1 1 1 1 1 
1 1 1 1 1 1 1 1 1 
1 1 1 1 1 1 1 1 1 
1 1 1 1 1 1 1 1 1 
1 1 1 1 1 1 1 1 1 
1 1 1 1 1 1 1 1 1 
1 1 1 1 1 1 1 1 1 
1 1 1 1 1 1 1 1 1 
1 1 1 1 1 1 1 1 1 
1 1 1 1 1 1 1 1 1 
1 1 1 1 1 1 1 1 1 
1 1 1 1 1 1 1 1 1 
1 1 1 1 1 1 1 1 1 
1 1 1 1 1 1 1 1 1 
1 1 1 1 1 1 1 1 1 
1 1 1 1 1 1 1 1 1 
1 1 1 1 1 1 1 1 1 
1 1 1 1 1 1 1 1 1 
1 1 1 1 1 1 1 1 1 
1 1 1 1 1 1 1 1 1 
1 1 1 1 1 1 1 1 1 
1 1 1 1 1 1 1 1 1 
1 1 1 1 1 1 1 1 1 
1 1 1 1 1 1 1 1 1 
1 1 1 1 1 1 1 1 1 
1 1 1 1 1 1 1 1 1 
1 1 1 1 1 1 1 1 1 
1 1 1 1 1 1 1 1 1 
1 1 1 1 1 1 1 1 1 
1 1 1 1 1 1 1 1 1 
1 1 1 1 1 1 1 1 1 
1 1 1 1 1 1 1 1 1 
1 1 1 1 1 1 1 1 1 
1 1 1 1 1 1 1 1 1 
1 1 1 1 1 1 1 1 1 
1 1 1 1 1 1 1 1 1 
1 1 1 1 1 1 1 1 1 
1 1 1 1 1 1 1 1 1 
1 1 1 1 1 1 1 1 1 
1 1 1 1 1 1 1 1 1 
1 1 1 1 1 1 1 1 1 
1 1 1 1 1 1 1 1 1 
1 1 1 1 1 1 1 1 1 
1 1 1 1 1 1 1 1 1 
1 1 1 1 1 1 1 1 1 
1 1 1 1 1 1 1 1 1 
1 1 1 1 1 1 1 1 1 
1 1 1 1 1 1 1 1 1 
1 1 1 1 1 1 1 1 1 
1 1 1 1 1 1 1 1 1 
1 1 1 1 1 1 1 1 1 
1 1 1 1 1 1 1 1 1 
1 1 1 1 1 1 1 1 1 
1 1 1 1 1 1 1 1 1 
1 1 1 1 1 1 1 1 1 
1 1 1 1 1 1 1 1 1 
1 1 1 1 1 1 1 1 1 
1 1 1 1 1 1 1 1 1 
1 1 1 1 1 1 1 1 1 
1 1 1 1 1 1 1 1 1 
1 1 1 1 1 1 1 1 1 
1 1 1 1 1 1 1 1 1 
1 1 1 1 1 1 1 1 1 
1 1 1 1 1 1 1 1 1 
1 1 1 1 1 1 1 1 1 
1 1 1 1 1 1 1 1 1 
1 1 1 1 1 1 1 1 1 
1 1 1 1 1 1 1 1 1 
1 1 1 1 1 1 1 1 1 
1 1 1 1 1 1 1 1 1 
1 1 1 1 1 1 1 1 1 
1 1 1 1 1 1 1 1 1 
1 1 1 1 1 1 1 1 1 
1 1 1 1 1 1 1 1 1 
1 1 1 1 1 1 1 1 1 
1 1 1 1 1 1 1 1 1 
1 1 1 1 1 1 1 1 1 
1 1 1 1 1 1 1 1 1 
1 1 1 1 1 1 1 1 1 
1 1 1 1 1 1 1 1 1 
1 1 1 1 1 1 1 1 1 
1 1 1 1 1 1 1 1 1 
1 1 1 1 1 1 1 1 1 
1 1 1 1 1 1 1 1 1 
1 1 1 1 1 1 1 1 1 
1 1 1 1 1 1 1 1 1 
1 1 1 1 1 1 1 1 1 
1 1 1 1 1 1 1 1 1 
1 1 1 1 1 1 1 1 1 
1 1 1 1 1 1 1 1 1 
1 1 1 1 1 1 1 1 1 
1 1 1 1 1 1 1 1 1 
1 1 1 1 1 1 1 1 1 
1 1 1 1 1 1 1 1 1 
1 1 1 1 1 1 1 1 1 
1 1 1 1 1 1 1 1 1 
1 1 1 1 1 1 1 1 1 
1 1 1 1 1 1 1 1 1 
1 1 1 1 1 1 1 1 1 
1 1 1 1 1 1 1 1 1 
1 1 1 1 1 1 1 1 1 
1 1 1 1 1 1 1 1 1 
1 1 1 1 1 1 1 1 1 
1 1 1 1 1 1 1 1 1 
1 1 1 1 1 1 1 1 1 
1 1 1 1 1 1 1 1 1 
1 1 1 1 1 
i 3 1355 int
0 0 0 0 0 0 0 0 0 
0 0 0 0 0 0 0 0 0 
0 0 0 0 0 0 0 0 0 
0 0 0 0 0 0 0 0 0 
0 0 0 0 0 0 0 0 0 
0 0 0 0 0 0 0 0 0 
0 0 0 0 0 0 0 0 0 
0 0 0 0 0 0 0 0 0 
0 0 0 0 0 0 0 0 0 
0 0 0 0 0 0 0 0 0 
0 0 0 0 0 0 0 0 0 
0 0 0 0 0 0 0 0 0 
0 0 0 0 0 0 0 0 0 
0 0 0 0 0 0 0 0 0 
0 0 0 0 0 0 0 0 0 
0 0 0 0 0 0 0 0 0 
0 0 0 0 0 0 0 0 0 
0 0 0 0 0 0 0 0 0 
0 0 0 0 0 0 0 0 0 
0 0 0 0 0 0 0 0 0 
0 0 0 0 0 0 0 0 0 
0 0 0 0 0 0 0 0 0 
0 0 0 0 0 0 0 0 0 
0 0 0 0 0 0 0 0 0 
0 0 0 0 0 0 0 0 0 
0 0 0 0 0 0 0 0 0 
0 0 0 0 0 0 0 0 0 
0 0 0 0 0 0 0 0 0 
0 0 0 0 0 0 0 0 0 
0 0 0 0 0 0 0 0 0 
0 0 0 0 0 0 0 0 0 
0 0 0 0 0 0 0 0 0 
0 0 0 0 0 0 0 0 0 
0 0 0 0 0 0 0 0 0 
0 0 0 0 0 0 0 0 0 
0 0 0 0 0 0 0 0 0 
0 0 0 0 0 0 0 0 0 
0 0 0 0 0 0 0 0 0 
0 0 0 0 0 0 0 0 0 
0 0 0 0 0 0 0 0 0 
0 0 0 0 0 0 0 0 0 
0 0 0 0 0 0 0 0 0 
0 0 0 0 0 0 0 0 0 
0 0 0 0 0 0 0 0 0 
0 0 0 0 0 0 0 0 0 
0 0 0 0 0 0 0 0 0 
0 0 0 0 0 0 0 0 0 
0 0 0 0 0 0 0 0 0 
0 0 0 0 0 0 0 0 0 
0 0 0 0 0 0 0 0 0 
0 0 0 0 0 0 0 0 0 
0 0 0 0 0 0 0 0 0 
0 0 0 0 0 0 0 0 0 
0 0 0 0 0 0 0 0 0 
0 0 0 0 0 0 0 0 0 
0 0 0 0 0 0 0 0 0 
0 0 0 0 0 0 0 0 0 
0 0 0 0 0 0 0 0 0 
0 0 0 0 0 0 0 0 0 
0 0 0 0 0 0 0 0 0 
0 0 0 0 0 0 0 0 0 
0 0 0 0 0 0 0 0 0 
0 0 0 0 0 0 0 0 0 
0 0 0 0 0 0 0 0 0 
0 0 0 0 0 0 0 0 0 
0 0 0 0 0 0 0 0 0 
0 0 0 0 0 0 0 0 0 
0 0 0 0 0 0 0 0 0 
0 0 0 0 0 0 0 0 0 
0 0 0 0 0 0 0 0 0 
0 0 0 0 0 0 0 0 0 
0 0 0 0 0 0 0 0 0 
0 0 0 0 0 0 0 0 0 
0 0 0 0 0 0 0 0 0 
0 0 0 0 0 0 0 0 0 
0 0 0 0 0 0 0 0 0 
0 0 0 0 0 0 0 0 0 
0 0 0 0 0 0 0 0 0 
0 0 0 0 0 0 0 0 0 
0 0 0 0 0 0 0 0 0 
0 0 0 0 0 0 0 0 0 
0 0 0 0 0 0 0 0 0 
0 0 0 0 0 0 0 0 0 
0 0 0 0 0 0 0 0 0 
0 0 0 0 0 0 0 0 0 
0 0 0 0 0 0 0 0 0 
0 0 0 0 0 0 0 0 0 
0 0 0 0 0 0 0 0 0 
0 0 0 0 0 0 0 0 0 
0 0 0 0 0 0 0 0 0 
0 0 0 0 0 0 0 0 0 
0 0 0 0 0 0 0 0 0 
0 0 0 0 0 0 0 0 0 
0 0 0 0 0 0 0 0 0 
0 0 0 0 0 0 0 0 0 
0 0 0 0 0 0 0 0 0 
0 0 0 0 0 0 0 0 0 
0 0 0 0 0 0 0 0 0 
0 0 0 0 0 0 0 0 0 
0 0 0 0 0 0 0 0 0 
0 0 0 0 0 0 0 0 0 
0 0 0 0 0 0 0 0 0 
0 0 0 0 0 0 0 0 0 
0 0 0 0 0 0 0 0 0 
0 0 0 0 0 0 0 0 0 
0 0 0 0 0 0 0 0 0 
0 0 0 0 0 0 0 0 0 
0 0 0 0 0 0 0 0 0 
0 0 0 0 0 0 0 0 0 
0 0 0 0 0 0 0 0 0 
0 0 0 0 0 0 0 0 0 
0 0 0 0 0 0 0 0 0 
0 0 0 0 0 0 0 0 0 
0 0 0 0 0 0 0 0 0 
0 0 0 0 0 0 0 0 0 
0 0 0 0 0 0 0 0 0 
0 0 0 0 0 0 0 0 0 
0 0 0 0 0 0 0 0 0 
0 0 0 0 0 0 0 0 0 
0 0 0 0 0 0 0 0 0 
0 0 0 0 0 0 0 0 0 
0 0 0 0 0 0 0 0 0 
0 0 0 0 0 0 0 0 0 
0 0 0 0 0 0 0 0 0 
0 0 0 0 0 0 0 0 0 
0 0 0 0 0 0 0 0 0 
0 0 0 0 0 0 0 0 0 
0 0 0 0 0 0 0 0 0 
0 0 0 0 0 0 0 0 0 
0 0 0 0 0 0 0 0 0 
0 0 0 0 0 0 0 0 0 
0 0 0 0 0 0 0 0 0 
0 0 0 0 0 0 0 0 0 
0 0 0 0 0 0 0 0 0 
0 0 0 0 0 0 0 0 0 
0 0 0 0 0 0 0 0 0 
0 0 0 0 0 0 0 0 0 
0 0 0 0 0 0 0 0 0 
0 0 0 0 0 0 0 0 0 
0 0 0 0 0 0 0 0 0 
0 0 0 0 0 0 0 0 0 
0 0 0 0 0 0 0 0 0 
0 0 0 0 0 0 0 0 0 
0 0 0 0 0 0 0 0 0 
0 0 0 0 0 0 0 0 0 
0 0 0 0 0 0 0 0 0 
0 0 0 0 0 0 0 0 0 
0 0 0 0 0 0 0 0 0 
0 0 0 0 0 0 0 0 0 
0 0 0 0 0 0 0 0 0 
0 0 0 0 0 0 0 0 0 
0 0 0 0 0 0 0 0 0 
0 0 0 0 0 0 0 0 0 
0 0 0 0 0 0 0 0 0 
0 0 0 0 0 0 0 0 0 
0 0 0 0 0 0 0 0 0 
0 0 0 0 0 0 0 0 0 
0 0 0 0 0 0 0 0 0 
0 0 0 0 0 0 0 0 0 
0 0 0 0 0 0 0 0 0 
0 0 0 0 0 0 0 0 0 
0 0 0 0 0 0 0 0 0 
0 0 0 0 0 0 0 0 0 
0 0 0 0 0 0 0 0 0 
0 0 0 0 0 0 0 0 0 
0 0 0 0 0 0 0 0 0 
0 0 0 0 0 0 0 0 0 
0 0 0 0 0 0 0 0 0 
0 0 0 0 0 0 0 0 0 
0 0 0 0 0 0 0 0 0 
0 0 0 0 0 0 0 0 0 
0 0 0 0 0 0 0 0 0 
0 0 0 0 0 0 0 0 0 
0 0 0 0 0 0 0 0 0 
0 0 0 0 0 0 0 0 0 
0 0 0 0 0 0 0 0 0 
0 0 0 0 0 0 0 0 0 
0 0 0 0 0 0 0 0 0 
0 0 0 0 0 0 0 0 0 
0 0 0 0 0 0 0 0 0 
0 0 0 0 0 0 0 0 0 
0 0 0 0 0 0 0 0 0 
0 0 0 0 0 0 0 0 0 
0 0 0 0 0 0 0 0 0 
0 0 0 0 0 0 0 0 0 
0 0 0 0 0 0 0 0 0 
0 0 0 0 0 0 0 0 0 
0 0 0 0 0 0 0 0 0 
0 0 0 0 0 0 0 0 0 
0 0 0 0 0 0 0 0 0 
0 0 0 0 0 0 0 0 0 
0 0 0 0 0 0 0 0 0 
0 0 0 0 0 0 0 0 0 
0 0 0 0 0 0 0 0 0 
0 0 0 0 0 0 0 0 0 
0 0 0 0 0 0 0 0 0 
0 0 0 0 0 0 0 0 0 
0 0 0 0 0 0 0 0 0 
0 0 0 0 0 0 0 0 0 
0 0 0 0 0 0 0 0 0 
0 0 0 0 0 0 0 0 0 
0 0 0 0 0 0 0 0 0 
0 0 0 0 0 0 0 0 0 
0 0 0 0 0 0 0 0 0 
0 0 0 0 0 0 0 0 0 
0 0 0 0 0 0 0 0 0 
0 0 0 0 0 0 0 0 0 
0 0 0 0 0 0 0 0 0 
0 0 0 0 0 0 0 0 0 
0 0 0 0 0 0 0 0 0 
0 0 0 0 0 0 0 0 0 
0 0 0 0 0 0 0 0 0 
0 0 0 0 0 0 0 0 0 
0 0 0 0 0 0 0 0 0 
0 0 0 0 0 0 0 0 0 
0 0 0 0 0 0 0 0 0 
0 0 0 0 0 0 0 0 0 
0 0 0 0 0 0 0 0 0 
0 0 0 0 0 0 0 0 0 
0 0 0 0 0 0 0 0 0 
0 0 0 0 0 0 0 0 0 
0 0 0 0 0 0 0 0 0 
0 0 0 0 0 0 0 0 0 
0 0 0 0 0 0 0 0 0 
0 0 0 0 0 0 0 0 0 
0 0 0 0 0 0 0 0 0 
0 0 0 0 0 0 0 0 0 
0 0 0 0 0 0 0 0 0 
0 0 0 0 0 0 0 0 0 
0 0 0 0 0 0 0 0 0 
0 0 0 0 0 0 0 0 0 
0 0 0 0 0 0 0 0 0 
0 0 0 0 0 0 0 0 0 
0 0 0 0 0 0 0 0 0 
0 0 0 0 0 0 0 0 0 
0 0 0 0 0 0 0 0 0 
0 0 0 0 0 0 0 0 0 
0 0 0 0 0 0 0 0 0 
0 0 0 0 0 0 0 0 0 
0 0 0 0 0 0 0 0 0 
0 0 0 0 0 0 0 0 0 
0 0 0 0 0 0 0 0 0 
0 0 0 0 0 0 0 0 0 
0 0 0 0 0 0 0 0 0 
0 0 0 0 0 0 0 0 0 
0 0 0 0 0 0 0 0 0 
0 0 0 0 0 0 0 0 0 
0 0 0 0 0 0 0 0 0 
0 0 0 0 0 0 0 0 0 
0 0 0 0 0 0 0 0 0 
0 0 0 0 0 0 0 0 0 
0 0 0 0 0 0 0 0 0 
0 0 0 0 0 0 0 0 0 
0 0 0 0 0 0 0 0 0 
0 0 0 0 0 0 0 0 0 
0 0 0 0 0 0 0 0 0 
0 0 0 0 0 0 0 0 0 
0 0 0 0 0 0 0 0 0 
0 0 0 0 0 0 0 0 0 
0 0 0 0 0 0 0 0 0 
0 0 0 0 0 0 0 0 0 
0 0 0 0 0 0 0 0 0 
0 0 0 0 0 0 0 0 0 
0 0 0 0 0 0 0 0 0 
0 0 0 0 0 0 0 0 0 
0 0 0 0 0 0 0 0 0 
0 0 0 0 0 0 0 0 0 
0 0 0 0 0 0 0 0 0 
0 0 0 0 0 0 0 0 0 
0 0 0 0 0 0 0 0 0 
0 0 0 0 0 0 0 0 0 
0 0 0 0 0 0 0 0 0 
0 0 0 0 0 0 0 0 0 
0 0 0 0 0 0 0 0 0 
0 0 0 0 0 0 0 0 0 
0 0 0 0 0 0 0 0 0 
0 0 0 0 0 0 0 0 0 
0 0 0 0 0 0 0 0 0 
0 0 0 0 0 0 0 0 0 
0 0 0 0 0 0 0 0 0 
0 0 0 0 0 0 0 0 0 
0 0 0 0 0 0 0 0 0 
0 0 0 0 0 0 0 0 0 
0 0 0 0 0 0 0 0 0 
0 0 0 0 0 0 0 0 0 
0 0 0 0 0 0 0 0 0 
0 0 0 0 0 0 0 0 0 
0 0 0 0 0 0 0 0 0 
0 0 0 0 0 0 0 0 0 
0 0 0 0 0 0 0 0 0 
0 0 0 0 0 0 0 0 0 
0 0 0 0 0 0 0 0 0 
0 0 0 0 0 0 0 0 0 
0 0 0 0 0 0 0 0 0 
0 0 0 0 0 0 0 0 0 
0 0 0 0 0 0 0 0 0 
0 0 0 0 0 0 0 0 0 
0 0 0 0 0 0 0 0 0 
0 0 0 0 0 0 0 0 0 
0 0 0 0 0 0 0 0 0 
0 0 0 0 0 0 0 0 0 
0 0 0 0 0 0 0 0 0 
0 0 0 0 0 0 0 0 0 
0 0 0 0 0 0 0 0 0 
0 0 0 0 0 0 0 0 0 
0 0 0 0 0 0 0 0 0 
0 0 0 0 0 0 0 0 0 
0 0 0 0 0 0 0 0 0 
0 0 0 0 0 0 0 0 0 
0 0 0 0 0 0 0 0 0 
0 0 0 0 0 0 0 0 0 
0 0 0 0 0 0 0 0 0 
0 0 0 0 0 0 0 0 0 
0 0 0 0 0 0 0 0 0 
0 0 0 0 0 0 0 0 0 
0 0 0 0 0 0 0 0 0 
0 0 0 0 0 0 0 0 0 
0 0 0 0 0 0 0 0 0 
0 0 0 0 0 0 0 0 0 
0 0 0 0 0 0 0 0 0 
0 0 0 0 0 0 0 0 0 
0 0 0 0 0 0 0 0 0 
0 0 0 0 0 0 0 0 0 
0 0 0 0 0 0 0 0 0 
0 0 0 0 0 0 0 0 0 
0 0 0 0 0 0 0 0 0 
0 0 0 0 0 0 0 0 0 
0 0 0 0 0 0 0 0 0 
0 0 0 0 0 0 0 0 0 
0 0 0 0 0 0 0 0 0 
0 0 0 0 0 0 0 0 0 
0 0 0 0 0 0 0 0 0 
0 0 0 0 0 0 0 0 0 
0 0 0 0 0 0 0 0 0 
0 0 0 0 0 0 0 0 0 
0 0 0 0 0 0 0 0 0 
0 0 0 0 0 0 0 0 0 
0 0 0 0 0 0 0 0 0 
0 0 0 0 0 0 0 0 0 
0 0 0 0 0 0 0 0 0 
0 0 0 0 0 0 0 0 0 
0 0 0 0 0 0 0 0 0 
0 0 0 0 0 0 0 0 0 
0 0 0 0 0 0 0 0 0 
0 0 0 0 0 0 0 0 0 
0 0 0 0 0 0 0 0 0 
0 0 0 0 0 0 0 0 0 
0 0 0 0 0 0 0 0 0 
0 0 0 0 0 0 0 0 0 
0 0 0 0 0 0 0 0 0 
0 0 0 0 0 0 0 0 0 
0 0 0 0 0 0 0 0 0 
0 0 0 0 0 0 0 0 0 
0 0 0 0 0 0 0 0 0 
0 0 0 0 0 0 0 0 0 
0 0 0 0 0 0 0 0 0 
0 0 0 0 0 0 0 0 0 
0 0 0 0 0 0 0 0 0 
0 0 0 0 0 0 0 0 0 
0 0 0 0 0 0 0 0 0 
0 0 0 0 0 0 0 0 0 
0 0 0 0 0 0 0 0 0 
0 0 0 0 0 0 0 0 0 
0 0 0 0 0 0 0 0 0 
0 0 0 0 0 0 0 0 0 
0 0 0 0 0 0 0 0 0 
0 0 0 0 0 0 0 0 0 
0 0 0 0 0 0 0 0 0 
0 0 0 0 0 0 0 0 0 
0 0 0 0 0 0 0 0 0 
0 0 0 0 0 0 0 0 0 
0 0 0 0 0 0 0 0 0 
0 0 0 0 0 0 0 0 0 
0 0 0 0 0 0 0 0 0 
0 0 0 0 0 0 0 0 0 
0 0 0 0 0 0 0 0 0 
0 0 0 0 0 0 0 0 0 
0 0 0 0 0 0 0 0 0 
0 0 0 0 0 0 0 0 0 
0 0 0 0 0 0 0 0 0 
0 0 0 0 0 0 0 0 0 
0 0 0 0 0 0 0 0 0 
0 0 0 0 0 0 0 0 0 
0 0 0 0 0 0 0 0 0 
0 0 0 0 0 0 0 0 0 
0 0 0 0 0 0 0 0 0 
0 0 0 0 0 0 0 0 0 
0 0 0 0 0 0 0 0 0 
0 0 0 0 0 0 0 0 0 
0 0 0 0 0 0 0 0 0 
0 0 0 0 0 0 0 0 0 
0 0 0 0 0 0 0 0 0 
0 0 0 0 0 0 0 0 0 
0 0 0 0 0 0 0 0 0 
0 0 0 0 0 0 0 0 0 
0 0 0 0 0 0 0 0 0 
0 0 0 0 0 0 0 0 0 
0 0 0 0 0 0 0 0 0 
0 0 0 0 0 0 0 0 0 
0 0 0 0 0 0 0 0 0 
0 0 0 0 0 0 0 0 0 
0 0 0 0 0 0 0 0 0 
0 0 0 0 0 0 0 0 0 
0 0 0 0 0 0 0 0 0 
0 0 0 0 0 0 0 0 0 
0 0 0 0 0 0 0 0 0 
0 0 0 0 0 0 0 0 0 
0 0 0 0 0 0 0 0 0 
0 0 0 0 0 0 0 0 0 
0 0 0 0 0 0 0 0 0 
0 0 0 0 0 0 0 0 0 
0 0 0 0 0 0 0 0 0 
0 0 0 0 0 0 0 0 0 
0 0 0 0 0 0 0 0 0 
0 0 0 0 0 0 0 0 0 
0 0 0 0 0 0 0 0 0 
0 0 0 0 0 0 0 0 0 
0 0 0 0 0 0 0 0 0 
0 0 0 0 0 0 0 0 0 
0 0 0 0 0 0 0 0 0 
0 0 0 0 0 0 0 0 0 
0 0 0 0 0 0 0 0 0 
0 0 0 0 0 0 0 0 0 
0 0 0 0 0 0 0 0 0 
0 0 0 0 0 0 0 0 0 
0 0 0 0 0 0 0 0 0 
0 0 0 0 0 0 0 0 0 
0 0 0 0 0 0 0 0 0 
0 0 0 0 0 0 0 0 0 
0 0 0 0 0 0 0 0 0 
0 0 0 0 0 0 0 0 0 
0 0 0 0 0 0 0 0 0 
0 0 0 0 0 0 0 0 0 
0 0 0 0 0 0 0 0 0 
0 0 0 0 0 0 0 0 0 
0 0 0 0 0 0 0 0 0 
0 0 0 0 0 0 0 0 0 
0 0 0 0 0 0 0 0 0 
0 0 0 0 0 0 0 0 0 
0 0 0 0 0 0 0 0 0 
0 0 0 0 0 0 0 0 0 
0 0 0 0 0 0 0 0 0 
0 0 0 0 0 0 0 0 0 
0 0 0 0 0 0 0 0 0 
0 0 0 0 0 0 0 0 0 
0 0 0 0 0 0 0 0 0 
0 0 0 0 0 0 0 0 0 
0 0 0 0 0 0 0 0 0 
0 0 0 0 0 0 0 0 0 
0 0 0 0 0 0 0 0 0 
0 0 0 0 0 0 0 0 0 
0 0 0 0 0 0 
v 3 1355 double
-0.000167006 -4.96413e-05 1.24149e-05 -0.000236428 -0.00011569 -0.000106022 -0.000391104 -0.000536096 0.000248096 
-0.000386382 -0.000942259 0.000113241 -0.000481904 -0.00125242 -0.000196248 -0.000438631 -0.000261895 0.000125327 
-1.22515e-05 -0.000106615 0.000222247 -0.000609845 -0.000570069 9.17449e-06 0.00238539 0.000279394 0.000664337 
0.00266626 0.00128676 -0.000210609 0.0016348 -0.00210456 -0.000280749 0.00148634 -0.00135709 0.000943637 
0.00179796 0.000261977 0.00267586 0.00396644 -0.0034815 0.000666501 0.00674905 -0.00472258 0.000927418 
0.00639457 -0.00021758 0.00219992 0.0041736 -0.000120277 -0.000437563 0.000198326 0.000247835 0.000376029 
0.000100446 0.000102174 -0.000272611 0.000105827 -0.000284791 -0.000434031 0.000176224 -0.000587463 -0.000496955 
0.000130515 -0.000302171 0.000127364 -2.55078e-05 3.19033e-06 -1.90016e-05 -0.000231979 -0.000138682 4.12639e-05 
-4.94018e-05 -0.000451676 -0.000394274 -0.000916948 -0.00219692 -3.83997e-05 -0.00100998 -0.00256357 -0.000700573 
-0.000853994 -0.00117954 2.48928e-06 5.0466e-05 -0.000745417 0.000420142 0.00105671 -0.000173109 0.00135722 
0.00376897 0.000186098 0.000895698 0.00128349 -0.000283196 -0.000568185 0.00151787 -0.00412902 -0.000543143 
0.000936544 -0.00144048 0.00628795 0.011633 -0.00583718 0.00234602 0.0154152 -0.00174244 -0.00136601 
0.00870983 -0.00186132 -0.000184359 0.0093724 0.00687252 0.0019527 0.000780278 2.59421e-05 0.000211526 
0.00143845 -0.000298662 0.000391305 0.000877972 -0.000406839 -0.000888741 0.000412954 -0.000941629 -0.000967018 
0.000198162 -0.000492661 -0.000379472 0.000287033 -0.000347378 -4.04033e-05 0.00010354 3.32888e-05 -0.000146048 
-4.21809e-05 -0.000203643 -1.07895e-05 -0.00102608 0.000128604 -5.65361e-05 -0.00137761 -0.00357924 -0.000206271 
-0.00782956 -0.00658232 -0.00152812 -0.00598363 -0.00128557 -0.000450707 -0.0137575 -0.000676785 1.88685e-05 
0.00316848 -0.00267329 0.00242723 0.00300065 -0.00175414 0.000492878 0.00224122 5.99398e-05 -0.00321654 
-0.0020094 -0.00594203 -0.00516294 -0.00197524 -0.00689433 -0.00579531 0.0145975 -0.00987505 -0.00099498 
0.00799488 0.00667997 -0.000420518 0.0109938 0.00086994 0.000916455 0.0100909 -0.000385286 -0.000919577 
-0.00148842 0.000500281 0.000752981 0.000458573 -0.00192189 0.00110481 0.00400281 -0.00182481 -0.0012724 
0.00192913 -0.00102216 -0.00138915 0.000490007 -0.000877749 -0.000473913 0.000126444 -0.000562046 -0.000265234 
-0.000415505 7.76806e-06 -2.98067e-05 -3.24299e-05 0.000259167 0.000596093 -0.00316332 -0.00577475 5.16663e-06 
-0.00458311 -0.00227908 -0.000861555 -0.0120275 -0.00792183 -0.000827314 -0.0118376 -0.0115473 0.00151009 