# vtk DataFile Version 4.0
Generated by LIGGGHTS
ASCII
DATASET POLYDATA
POINTS 1355 float
-0.899761 -0.460677 -0.460292 -0.765524 -0.460368 -0.46041 -0.685883 -0.460134 -0.460259 
-0.606019 -0.460724 -0.46031 -0.524994 -0.460613 -0.460623 -0.445209 -0.460255 -0.460492 
-0.365323 -0.459844 -0.460784 -0.278755 -0.460732 -0.460784 -0.153833 -0.460556 -0.46039 
-0.0743068 -0.453419 -0.460595 0.00520947 -0.460178 -0.460924 0.0851984 -0.460038 -0.46072 
0.164871 -0.460126 -0.460436 0.244749 -0.4602 -0.460478 0.324588 -0.460178 -0.460515 
0.404315 -0.45976 -0.460545 0.484069 -0.460067 -0.460583 0.578277 -0.460276 -0.460414 
0.658139 -0.46045 -0.460476 0.739503 -0.460112 -0.460588 0.819283 -0.460413 -0.460581 
0.901216 -0.460303 -0.460415 -0.960678 -0.409808 -0.461077 -0.886156 -0.382261 -0.4606 
-0.729074 -0.389511 -0.461079 -0.644988 -0.391653 -0.460485 -0.565507 -0.392439 -0.460249 
-0.485917 -0.391269 -0.460467 -0.406144 -0.390936 -0.460473 -0.328779 -0.372032 -0.460165 
-0.208817 -0.403184 -0.460433 -0.130893 -0.384286 -0.460927 0.0442592 -0.390732 -0.46056 
0.125121 -0.390784 -0.460829 0.205006 -0.391115 -0.460486 0.284832 -0.391013 -0.460521 
0.364606 -0.389701 -0.460628 0.444279 -0.383937 -0.460469 0.531255 -0.395651 -0.460491 
0.617664 -0.391103 -0.460793 0.697888 -0.391896 -0.460378 0.779903 -0.391063 -0.460166 
0.859882 -0.391959 -0.46075 0.960283 -0.407017 -0.460462 -0.960205 -0.330305 -0.460128 
-0.885549 -0.302536 -0.460761 -0.808903 -0.363139 -0.460511 -0.684596 -0.323117 -0.461598 
-0.563908 -0.313548 -0.461029 -0.48429 -0.311624 -0.460456 -0.396819 -0.311662 -0.460298 
-0.255967 -0.33947 -0.460451 -0.179079 -0.318917 -0.460192 -0.0997361 -0.311158 -0.460703 
-0.0277284 -0.356028 -0.46056 0.0383606 -0.31117 -0.460351 0.165605 -0.321986 -0.460649 
0.245283 -0.321737 -0.460602 0.32489 -0.316247 -0.460328 0.404573 -0.314561 -0.460608 
0.491013 -0.319145 -0.460562 0.570543 -0.326083 -0.460569 0.65783 -0.322302 -0.460101 
0.737557 -0.32343 -0.460626 0.881886 -0.315498 -0.460919 0.960378 -0.327629 -0.460394 
-0.960047 -0.250683 -0.460111 -0.808615 -0.283249 -0.460297 -0.733747 -0.25613 -0.460195 
-0.628559 -0.267227 -0.460094 -0.529815 -0.242358 -0.460802 -0.450018 -0.239524 -0.460923 
-0.319474 -0.292567 -0.460709 -0.0309475 -0.271267 -0.460583 0.106363 -0.269456 -0.46046 
0.183345 -0.242442 -0.460148 0.319561 -0.236466 -0.460117 0.532805 -0.251214 -0.46091 
0.612346 -0.256807 -0.460125 0.698719 -0.253657 -0.460268 0.779011 -0.255729 -0.460309 
0.881719 -0.235707 -0.460322 0.960297 -0.248242 -0.460591 -0.960334 -0.171048 -0.460158 
-0.885179 -0.222617 -0.460168 -0.807496 -0.203685 -0.460896 -0.675225 -0.202478 -0.460347 
-0.594432 -0.195739 -0.460137 -0.497525 -0.169745 -0.460268 -0.370363 -0.231355 -0.460333 
-0.289669 -0.218803 -0.460342 -0.198234 -0.228208 -0.460528 -0.113164 -0.232082 -0.460067 
-0.0437182 -0.192425 -0.460358 0.0372817 -0.230491 -0.460575 0.100763 -0.180549 -0.460232 
0.250326 -0.196411 -0.46089 0.385975 -0.190792 -0.460454 0.461102 -0.217325 -0.460549 
0.568321 -0.179652 -0.46082 0.648656 -0.185757 -0.460821 0.728242 -0.179356 -0.460517 
0.818713 -0.186959 -0.460342 0.960333 -0.168809 -0.460473 -0.893706 -0.127947 -0.460459 
-0.813958 -0.124393 -0.460088 -0.741785 -0.158259 -0.460776 -0.640781 -0.130989 -0.460628 
-0.561859 -0.123389 -0.460405 -0.418536 -0.166412 -0.460422 -0.33981 -0.157581 -0.46071 
-0.236776 -0.158572 -0.46008 -0.152768 -0.162298 -0.460632 -0.0871702 -0.114927 -0.459852 
0.0260972 -0.15221 -0.460781 0.125444 -0.103126 -0.460444 0.178557 -0.162119 -0.460249 
0.316298 -0.151966 -0.460285 0.421694 -0.102766 -0.460978 0.496165 -0.13681 -0.460429 
0.613865 -0.114044 -0.460533 0.813134 -0.107642 -0.460625 0.885387 -0.141715 -0.460437 
-0.960128 -0.0826027 -0.46049 -0.857088 -0.0575161 -0.461181 -0.777658 -0.0533482 -0.460314 
-0.704552 -0.0841327 -0.460457 -0.58548 -0.047184 -0.460661 -0.507942 -0.0653076 -0.460382 
-0.428785 -0.0744187 -0.460673 -0.349297 -0.0792471 -0.461082 -0.269924 -0.0859427 -0.460487 
-0.190498 -0.0918805 -0.460536 -0.0102681 -0.0823009 -0.460123 0.0636868 -0.0533009 -0.460503 
0.200893 -0.0736542 -0.460547 0.280223 -0.0807989 -0.460614 0.35642 -0.0572437 -0.460295 
0.545066 -0.0735384 -0.460369 0.658767 -0.0457696 -0.460321 0.737989 -0.0804733 -0.461153 
0.960251 -0.0891514 -0.460818 -0.922565 -0.012468 -0.460505 -0.821616 0.0130363 -0.460272 
-0.742654 0.0183486 -0.460484 -0.669196 -0.0125732 -0.460708 -0.559329 0.0312185 -0.460278 
-0.471739 0.00502895 -0.46075 -0.385146 -0.00819575 -0.460485 -0.304956 -0.0139253 -0.460447 
-0.226193 -0.0194996 -0.460283 -0.148065 -0.0246671 -0.460342 -0.0707885 -0.0321471 -0.460518 
0.00228459 -0.00313996 -0.46051 0.0758435 0.0255444 -0.46075 0.138104 -0.0244936 -0.46058 
0.212184 0.00618887 -0.460629 0.293371 -0.00225472 -0.460107 0.369602 0.0213096 -0.460479 
0.435206 -0.0240452 -0.460187 0.509993 -0.00449342 -0.440334 0.586998 -0.00569909 -0.460674 
0.686996 0.0290768 -0.460117 0.759963 -0.00362252 -0.460118 0.838018 -0.0321148 -0.460413 
0.916871 -0.0226674 -0.460896 -0.960623 0.0571017 -0.460507 -0.881586 0.0646078 -0.46129 
-0.787346 0.0846751 -0.460847 -0.707754 0.0893149 -0.46058 -0.633899 0.0591472 -0.460757 
-0.496803 0.0808807 -0.460105 -0.419251 0.0637841 -0.460303 -0.339851 0.0571208 -0.460578 
-0.260325 0.0522704 -0.460361 -0.180968 0.0473575 -0.46059 -0.0991383 0.0423303 -0.460208 
0.0145285 0.0758002 -0.460325 0.148939 0.0541786 -0.460384 0.26012 0.070137 -0.460213 
0.392612 0.0971942 -0.460693 0.459151 0.0536807 -0.4607 0.537259 0.0671868 -0.460821 
0.617016 0.0677545 -0.460494 0.752133 0.0830696 -0.460712 0.822811 0.0457674 -0.460256 
0.892734 0.0860882 -0.460577 0.960377 0.0440408 -0.460261 -0.96019 0.136452 -0.460642 
-0.847724 0.136544 -0.460339 -0.771638 0.158827 -0.436364 -0.644917 0.138103 -0.460654 
-0.569915 0.111839 -0.460093 -0.501992 0.161877 -0.461043 -0.374449 0.128306 -0.460993 
-0.295371 0.123458 -0.460511 -0.215994 0.118387 -0.460535 -0.13598 0.112984 -0.460419 
-0.0566665 0.11017 -0.460193 0.0881968 0.105819 -0.460437 0.195991 0.117066 -0.461045 
0.304504 0.142524 -0.460588 0.487737 0.130465 -0.460543 0.572334 0.137925 -0.460822 
0.652042 0.138899 -0.460291 0.753601 0.162882 -0.46058 0.823198 0.125118 -0.460425 
0.891104 0.166029 -0.460463 0.960601 0.127839 -0.46044 -0.960432 0.215743 -0.460726 
-0.825348 0.212767 -0.460333 -0.703527 0.19214 -0.461104 -0.41451 0.196845 -0.460529 
-0.33206 0.194407 -0.460555 -0.25175 0.189746 -0.460554 -0.171094 0.184086 -0.46127 
-0.0907765 0.182141 -0.460434 -0.0110409 0.180792 -0.460559 0.0728055 0.184114 -0.460635 
0.152459 0.183505 -0.460371 0.236305 0.184697 -0.460533 0.345501 0.21098 -0.460326 
0.419147 0.171501 -0.460625 0.524742 0.201819 -0.460567 0.609426 0.20802 -0.460895 
0.689145 0.209036 -0.460258 0.821299 0.204961 -0.460523 0.960243 0.207685 -0.460353 
-0.960611 0.29578 -0.460137 -0.892097 0.255805 -0.460502 -0.82321 0.295041 -0.460538 
-0.756057 0.252204 -0.460253 -0.682139 0.262818 -0.432348 -0.60393 0.240024 -0.460858 
-0.524661 0.238172 -0.46041 -0.451118 0.267735 -0.460184 -0.371716 0.263537 -0.460415 
-0.288707 0.260186 -0.460579 -0.207265 0.255652 -0.461362 -0.126627 0.253118 -0.460533 
-0.0468174 0.252117 -0.460373 0.0330499 0.252704 -0.460399 0.113768 0.252908 -0.460145 
0.194277 0.252467 -0.460589 0.275674 0.253312 -0.460464 0.385044 0.280539 -0.460495 
0.455561 0.241727 -0.460726 0.562646 0.272045 -0.461062 0.651926 0.279072 -0.460748 
0.756644 0.251486 -0.460431 0.890061 0.245127 -0.460313 -0.891776 0.335757 -0.460454 
-0.706924 0.333162 -0.460488 -0.629115 0.315637 -0.460314 -0.549356 0.314263 -0.459831 
-0.429922 0.344245 -0.460602 -0.328077 0.32917 -0.46037 -0.243997 0.3253 -0.460314 
-0.164242 0.323212 -0.460724 -0.0842545 0.322566 -0.460747 -0.00477127 0.322352 -0.460392 
0.074853 0.322092 -0.460158 0.154718 0.321768 -0.460393 0.234625 0.321692 -0.460652 
0.315626 0.322006 -0.460495 0.423954 0.350352 -0.460468 0.493521 0.311583 -0.460799 
0.602527 0.341433 -0.460448 0.719305 0.321984 -0.460454 0.802437 0.32153 -0.4606 
0.882106 0.323454 -0.460411 0.959719 0.301814 -0.460777 -0.960364 0.37573 -0.460679 
-0.891349 0.416109 -0.460342 -0.822755 0.37503 -0.460208 -0.749057 0.404843 -0.460833 
-0.652826 0.391467 -0.460275 -0.573422 0.390246 -0.46012 -0.494086 0.390758 -0.460242 
-0.369918 0.396833 -0.46024 -0.282735 0.393602 -0.460563 -0.202744 0.392729 -0.460803 
-0.123489 0.391757 -0.460646 -0.043761 0.391546 -0.460816 0.0355923 0.391245 -0.460275 
0.115197 0.391037 -0.460322 0.194976 0.390903 -0.460446 0.274882 0.390798 -0.460557 
0.355143 0.391075 -0.460458 0.463451 0.4198 -0.460292 0.533192 0.380829 -0.460275 
0.675865 0.388886 -0.460441 0.755784 0.393259 -0.460628 0.840788 0.391575 -0.460364 
0.921365 0.391904 -0.460792 -0.960229 0.458456 -0.46038 -0.806597 0.460094 -0.460646 
-0.692251 0.460478 -0.460596 -0.612395 0.460146 -0.460616 -0.532687 0.460305 -0.460369 
-0.452756 0.459437 -0.460634 -0.322414 0.461077 -0.460582 -0.242149 0.461203 -0.460712 
-0.162418 0.460829 -0.460577 -0.0831269 0.460524 -0.460466 -0.00389138 0.460421 -0.46031 
0.075537 0.460266 -0.460324 0.155223 0.460154 -0.460424 0.235014 0.460078 -0.46045 
0.314839 0.460073 -0.460438 0.394764 0.460255 -0.460214 0.531975 0.46038 -0.460754 
0.620045 0.458858 -0.460312 0.711859 0.460109 -0.460358 0.799731 0.460098 -0.460537 
0.880787 0.460425 -0.46045 0.960518 0.460552 -0.460292 -0.960237 -0.461213 -0.401222 
-0.884763 -0.46017 -0.375776 -0.725959 -0.460287 -0.391047 -0.646062 -0.46016 -0.391152 
-0.564959 -0.460162 -0.391901 -0.485132 -0.460215 -0.391753 -0.404676 -0.459981 -0.391722 
-0.322332 -0.459935 -0.394104 -0.220137 -0.460187 -0.405889 -0.113714 -0.460699 -0.391682 
-0.0340969 -0.460768 -0.391971 0.0452734 -0.46047 -0.392495 0.12481 -0.46034 -0.391386 
0.204756 -0.460521 -0.391558 0.284747 -0.460685 -0.391614 0.364578 -0.460685 -0.391551 
0.444269 -0.460705 -0.391643 0.531105 -0.460356 -0.396411 0.618663 -0.460145 -0.391427 
[...]
POINT_DATA 1355
FIELD FieldData 7
id 1 1355 int
366 408 584 322 662 206 563 371 419 
523 551 145 607 585 151 530 365 186 
620 156 70 664 692 632 759 714 370 
120 208 723 59 512 435 712 211 457 
20 256 338 470 195 678 320 643 534 
171 196 105 493 581 542 514 245 234 
347 708 214 280 305 529 396 291 444 
367 476 155 724 314 136 721 375 250 
442 498 54 200 431 623 593 109 184 
446 647 159 267 289 373 275 324 62 
533 376 95 589 76 722 543 576 75 
202 572 683 676 680 445 83 641 185 
331 96 99 458 575 40 57 88 239 
31 281 298 126 300 48 521 531 428 
254 592 758 361 412 478 14 312 252 
153 397 483 704 321 140 726 143 142 
351 651 6 528 433 92 690 689 437 
359 154 569 304 439 339 170 540 639 
461 177 700 378 459 310 258 51 182 
549 369 323 121 382 507 2 495 224 
612 720 590 539 166 460 97 240 537 
127 580 85 544 293 697 634 129 104 
423 742 161 32 384 25 671 74 278 
675 383 71 266 19 22 627 717 162 
602 146 626 247 167 125 191 199 294 
586 640 441 637 596 149 475 574 463 
387 703 269 130 8 393 218 348 420 
613 663 16 578 402 682 421 715 299 
698 747 261 622 355 571 411 42 748 
416 227 391 527 557 346 67 274 319 
242 649 9 73 251 766 409 535 89 
4 260 318 650 259 388 311 94 618 
39 582 53 673 729 3 69 496 363 
201 188 599 670 228 519 667 472 669 
660 646 654 43 230 226 306 427 316 
614 764 329 545 179 389 12 453 440 
197 452 90 604 386 686 38 587 285 
725 743 181 518 225 761 513 5 559 
72 336 66 116 78 628 131 679 959 
103 273 1154 276 516 47 233 325 108 
223 666 157 455 205 175 287 221 56 
751 736 426 744 642 611 302 413 473 
741 684 118 653 18 770 15 82 272 
100 87 343 490 219 601 290 465 110 
438 372 767 631 255 879 552 307 699 
636 187 550 80 532 313 645 279 509 
556 114 757 144 81 668 58 615 944 
616 558 644 341 189 407 36 462 597 
357 394 565 554 29 511 334 282 570 
424 286 541 399 24 447 364 183 86 
566 492 501 718 169 886 248 33 422 
11 502 395 46 106 345 192 711 137 
60 44 112 497 429 479 27 45 694 
326 358 352 746 21 101 629 522 568 
28 271 710 236 524 111 737 102 818 
134 216 733 147 194 148 172 775 443 
415 738 84 1127 243 474 180 482 381 
374 436 638 450 253 425 93 827 91 
215 505 403 520 277 591 133 719 107 
288 350 762 193 546 41 970 333 231 
330 135 928 308 328 232 432 296 821 
659 1038 49 13 61 681 400 648 190 
128 392 610 209 971 35 665 122 503 
750 687 480 469 508 26 113 608 123 
222 709 340 456 606 297 760 17 292 
138 430 246 98 564 448 283 404 178 
244 132 63 583 464 891 600 1165 418 
417 547 763 499 229 494 385 617 672 
467 119 755 481 727 526 390 210 728 
249 217 871 769 354 158 510 7 739 
466 793 890 500 658 337 986 1166 846 
173 567 1184 573 468 781 927 735 809 
1066 1173 1152 925 685 933 814 921 414 
784 265 749 963 1288 943 504 787 268 
935 831 910 362 1115 619 903 688 652 
867 1167 410 768 973 951 1062 754 1061 
1170 360 828 235 696 779 875 1147 207 
932 241 702 1091 907 454 812 603 1255 
974 1162 848 914 829 176 982 838 870 
950 865 124 691 792 857 919 335 317 
406 1174 985 972 732 165 379 295 707 
937 952 765 204 349 904 894 901 79 
851 471 734 786 981 882 356 939 855 
141 489 577 491 969 674 536 1077 655 
621 918 861 824 895 487 1284 795 731 
800 309 50 605 1052 908 1065 30 1075 
434 677 892 52 801 486 905 947 1078 
301 776 962 805 990 332 164 1182 975 
836 815 630 893 1088 198 926 977 657 
794 954 922 835 656 888 633 730 911 
160 752 968 484 150 401 953 327 837 
695 477 220 10 555 380 803 876 515 
791 840 713 65 783 342 864 934 1137 
804 23 538 887 965 203 872 595 929 
994 873 598 884 1180 822 506 237 488 
284 1 344 1177 960 706 398 859 896 
869 716 55 1041 1156 830 856 1131 115 
257 1313 1142 562 966 139 263 850 174 
609 912 773 917 37 1118 900 368 881 
625 353 449 756 168 405 845 880 451 
949 117 525 1001 303 262 785 213 68 
635 64 661 553 152 753 817 701 594 
984 923 315 579 377 485 961 212 693 
878 938 1243 561 270 906 1079 1149 1312 
1004 866 823 1334 1143 988 1076 956 825 
1006 1330 163 1159 1123 1093 1231 930 1178 
1290 1051 958 1305 1211 1113 1279 1110 1185 
849 1049 1133 1058 1302 1035 826 844 1116 
1339 1197 1160 1112 1073 832 1193 847 1217 
1003 1316 1032 1267 1347 1000 1344 1145 868 
999 1125 1266 1028 1221 1071 1086 1034 1186 
993 1097 1354 1187 802 1139 1285 1099 1014 
1022 1036 1015 808 995 1295 1054 1144 1056 
1008 1322 1021 1189 1321 1129 1246 902 1346 
1105 1283 1005 936 964 1103 1188 806 780 
789 1213 1315 1172 1158 1020 1095 1050 1111 
1138 916 992 1201 797 820 782 1089 1087 
833 1023 1130 1135 1270 1012 834 978 924 
1183 1119 1082 1083 1026 980 1216 1018 1292 
1039 1319 967 1192 1273 839 1067 1349 1258 
1176 1179 1084 1010 1114 1048 931 1027 799 
807 1150 1009 1109 34 842 810 1044 1016 
1333 1274 1311 1171 1033 1046 1265 987 1100 
1253 1017 1204 1203 860 790 774 1227 1153 
1282 1081 899 1080 1269 852 915 948 1096 
946 1338 1069 1057 1300 983 1029 955 1025 
1206 1007 1320 1043 798 811 1085 1175 1055 
1126 1309 1280 1101 998 976 853 1134 813 
841 1281 940 1045 777 1053 796 1148 1063 
1011 1042 1229 1230 877 1256 1146 1157 771 
909 1277 1181 1124 1019 1232 778 898 1353 
1102 854 1169 1225 1336 945 1287 1070 1136 
885 1024 1117 1068 1254 740 1059 1307 1161 
1098 979 588 1040 1264 863 1064 1262 957 
883 238 517 816 897 788 624 1252 1250 
1190 1121 1303 1141 1233 1140 941 1132 843 
1299 1151 1238 745 1327 1226 1107 1247 1306 
1275 1335 1276 1249 1251 1291 1214 1106 1092 
1210 1215 1199 1031 1325 1223 1308 1202 1122 
1224 1272 1350 560 1047 1297 1329 1341 1263 
1237 997 1323 1348 1013 1194 1209 1235 1108 
1343 1037 548 1228 1317 1331 1219 1342 1352 
1304 1242 1301 1260 1220 1294 1205 1236 1326 
1234 1296 1355 1164 1345 1286 1060 1268 1191 
1128 862 1198 1278 1241 1259 1293 1248 1245 
1240 1196 1314 1289 1168 1195 1218 1328 1072 
1351 1298 991 1261 1094 1200 1310 1074 772 
1163 1244 1002 1332 1257 1090 264 996 942 
913 1318 1239 1212 1337 920 1030 705 1208 
1120 1340 1104 989 819 1222 1324 1207 874 
1155 889 1271 858 77 
type 1 1355 int
1 1 1 1 1 1 1 1 1 
1 1 1 1 1 1 1 1 1 
1 1 1 1 1 1 1 1 1 
1 1 1 1 1 1 1 1 1 
1 1 1 1 1 1 1 1 1 
1 1 1 1 1 1 1 1 1 
1 1 1 1 1 1 1 1 1 
1 1 1 1 1 1 1 1 1 
1 1 1 1 1 1 1 1 1 
1 1 1 1 1 1 1 1 1 
1 1 1 1 1 1 1 1 1 
1 1 1 1 1 1 1 1 1 
1 1 1 1 1 1 1 1 1 
1 1 1 1 1 1 1 1 1 
1 1 1 1 1 1 1 1 1 
1 1 1 1 1 1 1 1 1 
1 1 1 1 1 1 1 1 1 
1 1 1 1 1 1 1 1 1 
1 1 1 1 1 1 1 1 1 
1 1 1 1 1 1 1 1 1 
1 1 1 1 1 1 1 1 1 
1 1 1 1 1 1 1 1 1 
1 1 1 1 1 1 1 1 1 
1 1 1 1 1 1 1 1 1 
1 1 1 1 1 1 1 1 1 
1 1 1 1 1 1 1 1 1 
1 1 1 1 1 1 1 1 1 
1 1 1 1 1 1 1 1 1 
1 1 1 1 1 1 1 1 1 
1 1 1 1 1 1 1 1 1 
1 1 1 1 1 1 1 1 1 
1 1 1 1 1 1 1 1 1 
1 1 1 1 1 1 1 1 1 
1 1 1 1 1 1 1 1 1 
1 1 1 1 1 1 1 1 1 
1 1 1 1 1 1 1 1 1 
1 1 1 1 1 1 1 1 1 
1 1 1 1 1 1 1 1 1 
1 1 1 1 1 1 1 1 1 
1 1 1 1 1 1 1 1 1 
1 1 1 1 1 1 1 1 1 
1 1 1 1 1 1 1 1 1 
1 1 1 1 1 1 1 1 1 
1 1 1 1 1 1 1 1 1 
1 1 1 1 1 1 1 1 1 
1 1 1 1 1 1 1 1 1 
1 1 1 1 1 1 1 1 1 
1 1 1 1 1 1 1 1 1 
1 1 1 1 1 1 1 1 1 
1 1 1 1 1 1 1 1 1 
1 1 1 1 1 1 1 1 1 
1 1 1 1 1 1 1 1 1 
1 1 1 1 1 1 1 1 1 
1 1 1 1 1 1 1 1 1 
1 1 1 1 1 1 1 1 1 
1 1 1 1 1 1 1 1 1 
1 1 1 1 1 1 1 1 1 
1 1 1 1 1 1 1 1 1 
1 1 1 1 1 1 1 1 1 
1 1 1 1 1 1 1 1 1 
1 1 1 1 1 1 1 1 1 
1 1 1 1 1 1 1 1 1 
1 1 1 1 1 1 1 1 1 
1 1 1 1 1 1 1 1 1 
1 1 1 1 1 1 1 1 1 
1 1 1 1 1 1 1 1 1 
1 1 1 1 1 1 1 1 1 
1 1 1 1 1 1 1 1 1 
1 1 1 1 1 1 1 1 1 
1 1 1 1 1 1 1 1 1 
1 1 1 1 1 1 1 1 1 
1 1 1 1 1 1 1 1 1 
1 1 1 1 1 1 1 1 1 
1 1 1 1 1 1 1 1 1 
1 1 1 1 1 1 1 1 1 
1 1 1 1 1 1 1 1 1 
1 1 1 1 1 1 1 1 1 
1 1 1 1 1 1 1 1 1 
1 1 1 1 1 1 1 1 1 
1 1 1 1 1 1 1 1 1 
1 1 1 1 1 1 1 1 1 
1 1 1 1 1 1 1 1 1 
1 1 1 1 1 1 1 1 1 
1 1 1 1 1 1 1 1 1 
1 1 1 1 1 1 1 1 1 
1 1 1 1 1 1 1 1 1 
1 1 1 1 1 1 1 1 1 
1 1 1 1 1 1 1 1 1 
1 1 1 1 1 1 1 1 1 
1 1 1 1 1 1 1 1 1 
1 1 1 1 1 1 1 1 1 
1 1 1 1 1 1 1 1 1 
1 1 1 1 1 1 1 1 1 
1 1 1 1 1 1 1 1 1 
1 1 1 1 1 1 1 1 1 
1 1 1 1 1 1 1 1 1 
1 1 1 1 1 1 1 1 1 
1 1 1 1 1 1 1 1 1 
1 1 1 1 1 1 1 1 1 
1 1 1 1 1 1 1 1 1 
1 1 1 1 1 1 1 1 1 
1 1 1 1 1 1 1 1 1 
1 1 1 1 1 1 1 1 1 
1 1 1 1 1 1 1 1 1 
1 1 1 1 1 1 1 1 1 
1 1 1 1 1 1 1 1 1 
1 1 1 1 1 1 1 1 1 
1 1 1 1 1 1 1 1 1 
1 1 1 1 1 1 1 1 1 
1 1 1 1 1 1 1 1 1 
1 1 1 1 1 1 1 1 1 
1 1 1 1 1 1 1 1 1 
1 1 1 1 1 1 1 1 1 
1 1 1 1 1 1 1 1 1 
1 1 1 1 1 1 1 1 1 
1 1 1 1 1 1 1 1 1 
1 1 1 1 1 1 1 1 1 
1 1 1 1 1 1 1 1 1 
1 1 1 1 1 1 1 1 1 
1 1 1 1 1 1 1 1 1 
1 1 1 1 1 1 1 1 1 
1 1 1 1 1 1 1 1 1 
1 1 1 1 1 1 1 1 1 
1 1 1 1 1 1 1 1 1 
1 1 1 1 1 1 1 1 1 
1 1 1 1 1 1 1 1 1 
1 1 1 1 1 1 1 1 1 
1 1 1 1 1 1 1 1 1 
1 1 1 1 1 1 1 1 1 
1 1 1 1 1 1 1 1 1 
1 1 1 1 1 1 1 1 1 
1 1 1 1 1 1 1 1 1 
1 1 1 1 1 1 1 1 1 
1 1 1 1 1 1 1 1 1 
1 1 1 1 1 1 1 1 1 
1 1 1 1 1 1 1 1 1 
1 1 1 1 1 1 1 1 1 
1 1 1 1 1 1 1 1 1 
1 1 1 1 1 1 1 1 1 
1 1 1 1 1 1 1 1 1 
1 1 1 1 1 1 1 1 1 
1 1 1 1 1 1 1 1 1 
1 1 1 1 1 1 1 1 1 
1 1 1 1 1 1 1 1 1 
1 1 1 1 1 1 1 1 1 
1 1 1 1 1 1 1 1 1 
1 1 1 1 1 1 1 1 1 
1 1 1 1 1 1 1 1 1 
1 1 1 1 1 1 1 1 1 
1 1 1 1 1 1 1 1 1 
1 1 1 1 1 
i 3 1355 int
0 0 0 0 0 0 0 0 0 
0 0 0 0 0 0 0 0 0 
0 0 0 0 0 0 0 0 0 
0 0 0 0 0 0 0 0 0 
0 0 0 0 0 0 0 0 0 
0 0 0 0 0 0 0 0 0 
0 0 0 0 0 0 0 0 0 
0 0 0 0 0 0 0 0 0 
0 0 0 0 0 0 0 0 0 
0 0 0 0 0 0 0 0 0 
0 0 0 0 0 0 0 0 0 
0 0 0 0 0 0 0 0 0 
0 0 0 0 0 0 0 0 0 
0 0 0 0 0 0 0 0 0 
0 0 0 0 0 0 0 0 0 
0 0 0 0 0 0 0 0 0 
0 0 0 0 0 0 0 0 0 
0 0 0 0 0 0 0 0 0 
0 0 0 0 0 0 0 0 0 
0 0 0 0 0 0 0 0 0 
0 0 0 0 0 0 0 0 0 
0 0 0 0 0 0 0 0 0 
0 0 0 0 0 0 0 0 0 
0 0 0 0 0 0 0 0 0 
0 0 0 0 0 0 0 0 0 
0 0 0 0 0 0 0 0 0 
0 0 0 0 0 0 0 0 0 
0 0 0 0 0 0 0 0 0 
0 0 0 0 0 0 0 0 0 
0 0 0 0 0 0 0 0 0 
0 0 0 0 0 0 0 0 0 
0 0 0 0 0 0 0 0 0 
0 0 0 0 0 0 0 0 0 
0 0 0 0 0 0 0 0 0 
0 0 0 0 0 0 0 0 0 
0 0 0 0 0 0 0 0 0 
0 0 0 0 0 0 0 0 0 
0 0 0 0 0 0 0 0 0 
0 0 0 0 0 0 0 0 0 
0 0 0 0 0 0 0 0 0 
0 0 0 0 0 0 0 0 0 
0 0 0 0 0 0 0 0 0 
0 0 0 0 0 0 0 0 0 
0 0 0 0 0 0 0 0 0 
0 0 0 0 0 0 0 0 0 
0 0 0 0 0 0 0 0 0 
0 0 0 0 0 0 0 0 0 
0 0 0 0 0 0 0 0 0 
0 0 0 0 0 0 0 0 0 
0 0 0 0 0 0 0 0 0 
0 0 0 0 0 0 0 0 0 
0 0 0 0 0 0 0 0 0 
0 0 0 0 0 0 0 0 0 
0 0 0 0 0 0 0 0 0 
0 0 0 0 0 0 0 0 0 
0 0 0 0 0 0 0 0 0 
0 0 0 0 0 0 0 0 0 
0 0 0 0 0 0 0 0 0 
0 0 0 0 0 0 0 0 0 
0 0 0 0 0 0 0 0 0 
0 0 0 0 0 0 0 0 0 
0 0 0 0 0 0 0 0 0 
0 0 0 0 0 0 0 0 0 
0 0 0 0 0 0 0 0 0 
0 0 0 0 0 0 0 0 0 
0 0 0 0 0 0 0 0 0 
0 0 0 0 0 0 0 0 0 
0 0 0 0 0 0 0 0 0 
0 0 0 0 0 0 0 0 0 
0 0 0 0 0 0 0 0 0 
0 0 0 0 0 0 0 0 0 
0 0 0 0 0 0 0 0 0 
0 0 0 0 0 0 0 0 0 
0 0 0 0 0 0 0 0 0 
0 0 0 0 0 0 0 0 0 
0 0 0 0 0 0 0 0 0 
0 0 0 0 0 0 0 0 0 
0 0 0 0 0 0 0 0 0 
0 0 0 0 0 0 0 0 0 
0 0 0 0 0 0 0 0 0 
0 0 0 0 0 0 0 0 0 
0 0 0 0 0 0 0 0 0 
0 0 0 0 0 0 0 0 0 
0 0 0 0 0 0 0 0 0 
0 0 0 0 0 0 0 0 0 
0 0 0 0 0 0 0 0 0 
0 0 0 0 0 0 0 0 0 
0 0 0 0 0 0 0 0 0 
0 0 0 0 0 0 0 0 0 
0 0 0 0 0 0 0 0 0 
0 0 0 0 0 0 0 0 0 
0 0 0 0 0 0 0 0 0 
0 0 0 0 0 0 0 0 0 
0 0 0 0 0 0 0 0 0 
0 0 0 0 0 0 0 0 0 
0 0 0 0 0 0 0 0 0 
0 0 0 0 0 0 0 0 0 
0 0 0 0 0 0 0 0 0 
0 0 0 0 0 0 0 0 0 
0 0 0 0 0 0 0 0 0 
0 0 0 0 0 0 0 0 0 
0 0 0 0 0 0 0 0 0 
0 0 0 0 0 0 0 0 0 
0 0 0 0 0 0 0 0 0 
0 0 0 0 0 0 0 0 0 
0 0 0 0 0 0 0 0 0 
0 0 0 0 0 0 0 0 0 
0 0 0 0 0 0 0 0 0 
0 0 0 0 0 0 0 0 0 
0 0 0 0 0 0 0 0 0 
0 0 0 0 0 0 0 0 0 
0 0 0 0 0 0 0 0 0 
0 0 0 0 0 0 0 0 0 
0 0 0 0 0 0 0 0 0 
0 0 0 0 0 0 0 0 0 
0 0 0 0 0 0 0 0 0 
0 0 0 0 0 0 0 0 0 
0 0 0 0 0 0 0 0 0 
0 0 0 0 0 0 0 0 0 
0 0 0 0 0 0 0 0 0 
0 0 0 0 0 0 0 0 0 
0 0 0 0 0 0 0 0 0 
0 0 0 0 0 0 0 0 0 
0 0 0 0 0 0 0 0 0 
0 0 0 0 0 0 0 0 0 
0 0 0 0 0 0 0 0 0 
0 0 0 0 0 0 0 0 0 
0 0 0 0 0 0 0 0 0 
0 0 0 0 0 0 0 0 0 
0 0 0 0 0 0 0 0 0 
0 0 0 0 0 0 0 0 0 
0 0 0 0 0 0 0 0 0 
0 0 0 0 0 0 0 0 0 
0 0 0 0 0 0 0 0 0 
0 0 0 0 0 0 0 0 0 
0 0 0 0 0 0 0 0 0 
0 0 0 0 0 0 0 0 0 
0 0 0 0 0 0 0 0 0 
0 0 0 0 0 0 0 0 0 
0 0 0 0 0 0 0 0 0 
0 0 0 0 0 0 0 0 0 
0 0 0 0 0 0 0 0 0 
0 0 0 0 0 0 0 0 0 
0 0 0 0 0 0 0 0 0 
0 0 0 0 0 0 0 0 0 
0 0 0 0 0 0 0 0 0 
0 0 0 0 0 0 0 0 0 
0 0 0 0 0 0 0 0 0 
0 0 0 0 0 0 0 0 0 
0 0 0 0 0 0 0 0 0 
0 0 0 0 0 0 0 0 0 
0 0 0 0 0 0 0 0 0 
0 0 0 0 0 0 0 0 0 
0 0 0 0 0 0 0 0 0 
0 0 0 0 0 0 0 0 0 
0 0 0 0 0 0 0 0 0 
0 0 0 0 0 0 0 0 0 
0 0 0 0 0 0 0 0 0 
0 0 0 0 0 0 0 0 0 
0 0 0 0 0 0 0 0 0 
0 0 0 0 0 0 0 0 0 
0 0 0 0 0 0 0 0 0 
0 0 0 0 0 0 0 0 0 
0 0 0 0 0 0 0 0 0 
0 0 0 0 0 0 0 0 0 
0 0 0 0 0 0 0 0 0 
0 0 0 0 0 0 0 0 0 
0 0 0 0 0 0 0 0 0 
0 0 0 0 0 0 0 0 0 
0 0 0 0 0 0 0 0 0 
0 0 0 0 0 0 0 0 0 
0 0 0 0 0 0 0 0 0 
0 0 0 0 0 0 0 0 0 
0 0 0 0 0 0 0 0 0 
0 0 0 0 0 0 0 0 0 
0 0 0 0 0 0 0 0 0 
0 0 0 0 0 0 0 0 0 
0 0 0 0 0 0 0 0 0 
0 0 0 0 0 0 0 0 0 
0 0 0 0 0 0 0 0 0 
0 0 0 0 0 0 0 0 0 
0 0 0 0 0 0 0 0 0 
0 0 0 0 0 0 0 0 0 
0 0 0 0 0 0 0 0 0 
0 0 0 0 0 0 0 0 0 
0 0 0 0 0 0 0 0 0 
0 0 0 0 0 0 0 0 0 
0 0 0 0 0 0 0 0 0 
0 0 0 0 0 0 0 0 0 
0 0 0 0 0 0 0 0 0 
0 0 0 0 0 0 0 0 0 
0 0 0 0 0 0 0 0 0 
0 0 0 0 0 0 0 0 0 
0 0 0 0 0 0 0 0 0 
0 0 0 0 0 0 0 0 0 
0 0 0 0 0 0 0 0 0 
0 0 0 0 0 0 0 0 0 
0 0 0 0 0 0 0 0 0 
0 0 0 0 0 0 0 0 0 
0 0 0 0 0 0 0 0 0 
0 0 0 0 0 0 0 0 0 
0 0 0 0 0 0 0 0 0 
0 0 0 0 0 0 0 0 0 
0 0 0 0 0 0 0 0 0 
0 0 0 0 0 0 0 0 0 
0 0 0 0 0 0 0 0 0 
0 0 0 0 0 0 0 0 0 
0 0 0 0 0 0 0 0 0 
0 0 0 0 0 0 0 0 0 
0 0 0 0 0 0 0 0 0 
0 0 0 0 0 0 0 0 0 
0 0 0 0 0 0 0 0 0 
0 0 0 0 0 0 0 0 0 
0 0 0 0 0 0 0 0 0 
0 0 0 0 0 0 0 0 0 
0 0 0 0 0 0 0 0 0 
0 0 0 0 0 0 0 0 0 
0 0 0 0 0 0 0 0 0 
0 0 0 0 0 0 0 0 0 
0 0 0 0 0 0 0 0 0 
0 0 0 0 0 0 0 0 0 
0 0 0 0 0 0 0 0 0 
0 0 0 0 0 0 0 0 0 
0 0 0 0 0 0 0 0 0 
0 0 0 0 0 0 0 0 0 
0 0 0 0 0 0 0 0 0 
0 0 0 0 0 0 0 0 0 
0 0 0 0 0 0 0 0 0 
0 0 0 0 0 0 0 0 0 
0 0 0 0 0 0 0 0 0 
0 0 0 0 0 0 0 0 0 
0 0 0 0 0 0 0 0 0 
0 0 0 0 0 0 0 0 0 
0 0 0 0 0 0 0 0 0 
0 0 0 0 0 0 0 0 0 
0 0 0 0 0 0 0 0 0 
0 0 0 0 0 0 0 0 0 
0 0 0 0 0 0 0 0 0 
0 0 0 0 0 0 0 0 0 
0 0 0 0 0 0 0 0 0 
0 0 0 0 0 0 0 0 0 
0 0 0 0 0 0 0 0 0 
0 0 0 0 0 0 0 0 0 
0 0 0 0 0 0 0 0 0 
0 0 0 0 0 0 0 0 0 
0 0 0 0 0 0 0 0 0 
0 0 0 0 0 0 0 0 0 
0 0 0 0 0 0 0 0 0 
0 0 0 0 0 0 0 0 0 
0 0 0 0 0 0 0 0 0 
0 0 0 0 0 0 0 0 0 
0 0 0 0 0 0 0 0 0 
0 0 0 0 0 0 0 0 0 
0 0 0 0 0 0 0 0 0 
0 0 0 0 0 0 0 0 0 
0 0 0 0 0 0 0 0 0 
0 0 0 0 0 0 0 0 0 
0 0 0 0 0 0 0 0 0 
0 0 0 0 0 0 0 0 0 
0 0 0 0 0 0 0 0 0 
0 0 0 0 0 0 0 0 0 
0 0 0 0 0 0 0 0 0 
0 0 0 0 0 0 0 0 0 
0 0 0 0 0 0 0 0 0 
0 0 0 0 0 0 0 0 0 
0 0 0 0 0 0 0 0 0 
0 0 0 0 0 0 0 0 0 
0 0 0 0 0 0 0 0 0 
0 0 0 0 0 0 0 0 0 
0 0 0 0 0 0 0 0 0 
0 0 0 0 0 0 0 0 0 
0 0 0 0 0 0 0 0 0 
0 0 0 0 0 0 0 0 0 
0 0 0 0 0 0 0 0 0 
0 0 0 0 0 0 0 0 0 
0 0 0 0 0 0 0 0 0 
0 0 0 0 0 0 0 0 0 
0 0 0 0 0 0 0 0 0 
0 0 0 0 0 0 0 0 0 
0 0 0 0 0 0 0 0 0 
0 0 0 0 0 0 0 0 0 
0 0 0 0 0 0 0 0 0 
0 0 0 0 0 0 0 0 0 
0 0 0 0 0 0 0 0 0 
0 0 0 0 0 0 0 0 0 
0 0 0 0 0 0 0 0 0 
0 0 0 0 0 0 0 0 0 
0 0 0 0 0 0 0 0 0 
0 0 0 0 0 0 0 0 0 
0 0 0 0 0 0 0 0 0 
0 0 0 0 0 0 0 0 0 
0 0 0 0 0 0 0 0 0 
0 0 0 0 0 0 0 0 0 
0 0 0 0 0 0 0 0 0 
0 0 0 0 0 0 0 0 0 
0 0 0 0 0 0 0 0 0 
0 0 0 0 0 0 0 0 0 
0 0 0 0 0 0 0 0 0 
0 0 0 0 0 0 0 0 0 
0 0 0 0 0 0 0 0 0 
0 0 0 0 0 0 0 0 0 
0 0 0 0 0 0 0 0 0 
0 0 0 0 0 0 0 0 0 
0 0 0 0 0 0 0 0 0 
0 0 0 0 0 0 0 0 0 
0 0 0 0 0 0 0 0 0 
0 0 0 0 0 0 0 0 0 
0 0 0 0 0 0 0 0 0 
0 0 0 0 0 0 0 0 0 
0 0 0 0 0 0 0 0 0 
0 0 0 0 0 0 0 0 0 
0 0 0 0 0 0 0 0 0 
0 0 0 0 0 0 0 0 0 
0 0 0 0 0 0 0 0 0 
0 0 0 0 0 0 0 0 0 
0 0 0 0 0 0 0 0 0 
0 0 0 0 0 0 0 0 0 
0 0 0 0 0 0 0 0 0 
0 0 0 0 0 0 0 0 0 
0 0 0 0 0 0 0 0 0 
0 0 0 0 0 0 0 0 0 
0 0 0 0 0 0 0 0 0 
0 0 0 0 0 0 0 0 0 
0 0 0 0 0 0 0 0 0 
0 0 0 0 0 0 0 0 0 
0 0 0 0 0 0 0 0 0 
0 0 0 0 0 0 0 0 0 
0 0 0 0 0 0 0 0 0 
0 0 0 0 0 0 0 0 0 
0 0 0 0 0 0 0 0 0 
0 0 0 0 0 0 0 0 0 
0 0 0 0 0 0 0 0 0 
0 0 0 0 0 0 0 0 0 
0 0 0 0 0 0 0 0 0 
0 0 0 0 0 0 0 0 0 
0 0 0 0 0 0 0 0 0 
0 0 0 0 0 0 0 0 0 
0 0 0 0 0 0 0 0 0 
0 0 0 0 0 0 0 0 0 
0 0 0 0 0 0 0 0 0 
0 0 0 0 0 0 0 0 0 
0 0 0 0 0 0 0 0 0 
0 0 0 0 0 0 0 0 0 
0 0 0 0 0 0 0 0 0 
0 0 0 0 0 0 0 0 0 
0 0 0 0 0 0 0 0 0 
0 0 0 0 0 0 0 0 0 
0 0 0 0 0 0 0 0 0 
0 0 0 0 0 0 0 0 0 
0 0 0 0 0 0 0 0 0 
0 0 0 0 0 0 0 0 0 
0 0 0 0 0 0 0 0 0 
0 0 0 0 0 0 0 0 0 
0 0 0 0 0 0 0 0 0 
0 0 0 0 0 0 0 0 0 
0 0 0 0 0 0 0 0 0 
0 0 0 0 0 0 0 0 0 
0 0 0 0 0 0 0 0 0 
0 0 0 0 0 0 0 0 0 
0 0 0 0 0 0 0 0 0 
0 0 0 0 0 0 0 0 0 
0 0 0 0 0 0 0 0 0 
0 0 0 0 0 0 0 0 0 
0 0 0 0 0 0 0 0 0 
0 0 0 0 0 0 0 0 0 
0 0 0 0 0 0 0 0 0 
0 0 0 0 0 0 0 0 0 
0 0 0 0 0 0 0 0 0 
0 0 0 0 0 0 0 0 0 
0 0 0 0 0 0 0 0 0 
0 0 0 0 0 0 0 0 0 
0 0 0 0 0 0 0 0 0 
0 0 0 0 0 0 0 0 0 
0 0 0 0 0 0 0 0 0 
0 0 0 0 0 0 0 0 0 
0 0 0 0 0 0 0 0 0 
0 0 0 0 0 0 0 0 0 
0 0 0 0 0 0 0 0 0 
0 0 0 0 0 0 0 0 0 
0 0 0 0 0 0 0 0 0 
0 0 0 0 0 0 0 0 0 
0 0 0 0 0 0 0 0 0 
0 0 0 0 0 0 0 0 0 
0 0 0 0 0 0 0 0 0 
0 0 0 0 0 0 0 0 0 
0 0 0 0 0 0 0 0 0 
0 0 0 0 0 0 0 0 0 
0 0 0 0 0 0 0 0 0 
0 0 0 0 0 0 0 0 0 
0 0 0 0 0 0 0 0 0 
0 0 0 0 0 0 0 0 0 
0 0 0 0 0 0 0 0 0 
0 0 0 0 0 0 0 0 0 
0 0 0 0 0 0 0 0 0 
0 0 0 0 0 0 0 0 0 
0 0 0 0 0 0 0 0 0 
0 0 0 0 0 0 0 0 0 
0 0 0 0 0 0 0 0 0 
0 0 0 0 0 0 0 0 0 
0 0 0 0 0 0 0 0 0 
0 0 0 0 0 0 0 0 0 
0 0 0 0 0 0 0 0 0 
0 0 0 0 0 0 0 0 0 
0 0 0 0 0 0 0 0 0 
0 0 0 0 0 0 0 0 0 
0 0 0 0 0 0 0 0 0 
0 0 0 0 0 0 0 0 0 
0 0 0 0 0 0 0 0 0 
0 0 0 0 0 0 0 0 0 
0 0 0 0 0 0 0 0 0 
0 0 0 0 0 0 0 0 0 
0 0 0 0 0 0 0 0 0 
0 0 0 0 0 0 0 0 0 
0 0 0 0 0 0 0 0 0 
0 0 0 0 0 0 0 0 0 
0 0 0 0 0 0 0 0 0 
0 0 0 0 0 0 0 0 0 
0 0 0 0 0 0 0 0 0 
0 0 0 0 0 0 0 0 0 
0 0 0 0 0 0 0 0 0 
0 0 0 0 0 0 0 0 0 
0 0 0 0 0 0 0 0 0 
0 0 0 0 0 0 0 0 0 
0 0 0 0 0 0 0 0 0 
0 0 0 0 0 0 0 0 0 
0 0 0 0 0 0 0 0 0 
0 0 0 0 0 0 0 0 0 
0 0 0 0 0 0 0 0 0 
0 0 0 0 0 0 0 0 0 
0 0 0 0 0 0 0 0 0 
0 0 0 0 0 0 0 0 0 
0 0 0 0 0 0 0 0 0 
0 0 0 0 0 0 0 0 0 
0 0 0 0 0 0 0 0 0 
0 0 0 0 0 0 0 0 0 
0 0 0 0 0 0 0 0 0 
0 0 0 0 0 0 0 0 0 
0 0 0 0 0 0 0 0 0 
0 0 0 0 0 0 0 0 0 
0 0 0 0 0 0 0 0 0 
0 0 0 0 0 0 0 0 0 
0 0 0 0 0 0 0 0 0 
0 0 0 0 0 0 0 0 0 
0 0 0 0 0 0 0 0 0 
0 0 0 0 0 0 0 0 0 
0 0 0 0 0 0 0 0 0 
0 0 0 0 0 0 0 0 0 
0 0 0 0 0 0 0 0 0 
0 0 0 0 0 0 0 0 0 
0 0 0 0 0 0 0 0 0 
0 0 0 0 0 0 0 0 0 
0 0 0 0 0 0 
v 3 1355 double
0.000540542 -0.000264698 0.000472466 0.00150935 0.000591958 0.000344373 -0.000436717 0.000524632 -0.000705282 
-0.00248405 0.000206505 0.000106637 -0.00338699 0.000741119 0.00085909 0.00380537 -0.00176276 0.00274879 
0.00216435 6.65529e-05 0.0121956 0.0182648 0.000421227 0.0090575 -0.0079425 0.0323132 0.00121504 
0.0137494 -0.00991703 -0.0310344 0.014908 -0.00258271 0.00503201 0.0384819 -0.00823743 -0.0207887 
0.031202 0.0072044 0.00207825 0.0206823 0.0129742 0.00506339 0.0152797 0.0108334 0.00359616 
0.0250644 0.0035648 0.000234727 0.0261399 -0.00135171 -0.00488493 -0.000108254 -3.907e-05 -0.000270222 
-0.00026254 2.5846e-05 -0.000339222 -6.13383e-05 0.000269624 -0.000205186 3.58826e-05 0.000153564 -0.000116299 
5.83117e-05 -1.35366e-05 -0.000111523 1.09849e-05 0.000246868 0.000194739 0.00184454 -0.00103902 0.00114391 
0.00467055 -0.00165383 2.48702e-05 -0.00248369 -7.84604e-05 -0.00189883 -0.00742677 0.00057826 0.00019624 
-0.00252782 0.00590612 0.00262626 0.00892586 0.0112509 -0.00194033 0.04647 0.0298155 -0.00385512 
-0.0516799 0.0426551 0.0259719 -0.0185886 0.0178521 -0.0404082 0.000815323 0.024347 -0.0262019 
0.02724 0.00939064 -0.0176685 0.0130576 0.0195495 0.0218164 0.00938105 0.017746 0.00738236 
0.0147707 0.00248845 0.00447037 0.025101 -0.0142179 -0.00067535 0.00995315 0.00792455 -0.00109078 
7.57772e-05 0.000337746 -0.000619736 -0.000124577 0.000400789 -0.000150701 0.000103331 0.000297619 5.22896e-05 
3.97628e-05 0.000133859 -0.000223264 9.15117e-05 -1.36066e-05 -3.53338e-05 -0.000327304 -0.000447682 0.000510526 
0.00116122 -0.00180712 0.000570332 0.00349269 -0.00366655 -8.98299e-07 -0.00186032 0.000586337 -0.00095294 
-0.00345059 -0.00150436 -0.00399889 -0.00493005 0.00179653 0.000324369 0.0334088 -0.00689081 -0.00331316 
0.0139107 0.035314 0.00917482 0.010131 -0.0315531 -0.00329103 -0.00127819 0.0218054 -0.0440036 
0.0296307 0.0344528 -0.00885709 0.0186709 0.0264828 0.0112455 0.014532 0.0196389 0.0104007 
-7.72614e-06 0.0130557 0.0245095 0.0054469 0.00099917 0.0124613 0.020894 -0.0151328 0.00453472 
0.00772897 -0.00112883 0.000349083 0.00970043 0.00671474 -0.00119075 0.000195206 0.000773959 -0.000125571 
2.85491e-05 0.000324207 -2.74535e-05 -6.87252e-05 9.29936e-05 -0.000240918 3.78803e-05 3.71425e-05 -4.25976e-06 
-0.000277728 0.0002715 -0.000497262 0.000962851 -0.00523176 0.000942661 -0.00107893 -0.000599059 -0.00129776 
-0.00203517 -0.00196386 -0.00453055 0.00703469 -0.00412384 -0.00635871 0.00513342 -0.00229879 0.00354158 
0.00965645 -0.0109947 -0.0156778 0.00410383 -0.00337854 0.000880271 0.0244353 0.0223324 -0.00448357 