# vtk DataFile Version 4.0
Generated by LIGGGHTS
ASCII
DATASET POLYDATA
POINTS 1355 float
-0.899843 -0.460661 -0.46029 -0.764856 -0.460358 -0.460405 -0.68512 -0.460144 -0.460296 
-0.605124 -0.46068 -0.460295 -0.523976 -0.46052 -0.46064 -0.444091 -0.460209 -0.460542 
-0.364076 -0.460021 -0.460683 -0.27596 -0.460421 -0.460731 -0.152814 -0.460399 -0.460398 
-0.0731568 -0.455532 -0.460458 0.00639129 -0.460199 -0.460462 0.0860269 -0.460098 -0.460388 
0.165744 -0.46019 -0.460397 0.245645 -0.460228 -0.460468 0.325499 -0.460157 -0.460516 
0.405256 -0.459664 -0.460541 0.485057 -0.460063 -0.460559 0.578123 -0.460255 -0.460414 
0.65798 -0.460439 -0.460488 0.739478 -0.460089 -0.46058 0.819251 -0.460409 -0.46058 
0.901224 -0.460301 -0.460421 -0.960631 -0.40959 -0.461086 -0.885963 -0.382297 -0.460574 
-0.728332 -0.389554 -0.461108 -0.644167 -0.391676 -0.460513 -0.56455 -0.392247 -0.460231 
-0.484722 -0.391175 -0.460516 -0.404596 -0.391047 -0.460578 -0.327218 -0.37179 -0.460219 
-0.208428 -0.403759 -0.460282 -0.131184 -0.38362 -0.460964 0.0451644 -0.3905 -0.46059 
0.125911 -0.390953 -0.460683 0.205846 -0.391224 -0.460412 0.285702 -0.39104 -0.460488 
0.365469 -0.389546 -0.460607 0.445206 -0.384534 -0.460486 0.531687 -0.3952 -0.460481 
0.617387 -0.390987 -0.460776 0.69779 -0.391912 -0.460374 0.779891 -0.391021 -0.460171 
0.859867 -0.391962 -0.460754 0.960284 -0.407019 -0.460462 -0.960227 -0.330105 -0.460112 
-0.885513 -0.302557 -0.46074 -0.808679 -0.363243 -0.46052 -0.683982 -0.323177 -0.461585 
-0.562981 -0.313169 -0.461074 -0.483308 -0.311412 -0.460414 -0.395892 -0.311633 -0.460276 
-0.254335 -0.339061 -0.460433 -0.177312 -0.318381 -0.460417 -0.0978571 -0.311519 -0.460783 
-0.0265166 -0.355317 -0.460599 0.0396841 -0.310897 -0.460182 0.166466 -0.322261 -0.460589 
0.246075 -0.321943 -0.460614 0.325625 -0.315918 -0.46035 0.405374 -0.315215 -0.460645 
0.491347 -0.319311 -0.460583 0.570916 -0.325595 -0.460546 0.657689 -0.322247 -0.460107 
0.737434 -0.323424 -0.460617 0.881892 -0.315505 -0.460925 0.96038 -0.327631 -0.460393 
-0.960024 -0.250464 -0.460114 -0.80859 -0.283303 -0.460294 -0.733825 -0.255919 -0.460239 
-0.628028 -0.267308 -0.460125 -0.528694 -0.241874 -0.460703 -0.448851 -0.239327 -0.460805 
-0.318446 -0.292375 -0.460674 -0.0295347 -0.271273 -0.460735 0.107651 -0.269586 -0.460558 
0.183982 -0.241654 -0.460105 0.320338 -0.236112 -0.460118 0.532681 -0.251112 -0.46091 
0.612253 -0.256706 -0.460118 0.698643 -0.253636 -0.460276 0.779014 -0.255788 -0.460311 
0.881715 -0.235711 -0.460322 0.960297 -0.248245 -0.460591 -0.96031 -0.170808 -0.460124 
-0.885066 -0.22261 -0.460156 -0.807396 -0.203634 -0.460965 -0.674993 -0.202657 -0.460312 
-0.593955 -0.195895 -0.460107 -0.496341 -0.16925 -0.460256 -0.369317 -0.231044 -0.460515 
-0.28797 -0.218769 -0.46083 -0.196621 -0.227947 -0.46048 -0.11348 -0.232197 -0.460212 
-0.0437686 -0.192839 -0.460659 0.0386883 -0.23043 -0.460797 0.101436 -0.179273 -0.460438 
0.250743 -0.196735 -0.460985 0.385991 -0.190343 -0.460433 0.461171 -0.216749 -0.460488 
0.568266 -0.179602 -0.460782 0.648644 -0.185699 -0.460846 0.728227 -0.179354 -0.460515 
0.818693 -0.186985 -0.460337 0.960332 -0.16881 -0.460474 -0.893474 -0.127892 -0.460455 
-0.813662 -0.124219 -0.460106 -0.74151 -0.158249 -0.460743 -0.640588 -0.131137 -0.460775 
-0.561561 -0.123649 -0.460249 -0.416908 -0.166529 -0.460431 -0.337952 -0.157568 -0.460515 
-0.235612 -0.158414 -0.460477 -0.151945 -0.161787 -0.460935 -0.0873676 -0.110402 -0.460072 
0.0262366 -0.152309 -0.460978 0.126254 -0.102742 -0.460636 0.179272 -0.161813 -0.460429 
0.316246 -0.151662 -0.460337 0.421686 -0.10268 -0.460963 0.496118 -0.136598 -0.460466 
0.613837 -0.114013 -0.46051 0.813144 -0.107668 -0.460627 0.885381 -0.141737 -0.46044 
-0.960121 -0.0826221 -0.460474 -0.856959 -0.0573693 -0.461163 -0.777506 -0.053041 -0.460286 
-0.70454 -0.0842097 -0.460543 -0.585688 -0.0475706 -0.460668 -0.508019 -0.0655664 -0.46023 
-0.428991 -0.074337 -0.460886 -0.349723 -0.0795307 -0.460871 -0.270264 -0.0865507 -0.460595 
-0.190765 -0.09201 -0.460651 -0.0100134 -0.0822017 -0.460424 0.0640348 -0.0532173 -0.460734 
0.201169 -0.0732489 -0.460545 0.280513 -0.0803596 -0.46065 0.356643 -0.0568499 -0.460231 
0.545103 -0.0733616 -0.460402 0.658854 -0.0457651 -0.46033 0.737997 -0.0805088 -0.46114 
0.96025 -0.0891545 -0.460823 -0.922598 -0.0124752 -0.460496 -0.821526 0.0133014 -0.460287 
-0.742658 0.0187556 -0.460522 -0.669458 -0.0125257 -0.460687 -0.559723 0.0313756 -0.460686 
-0.471526 0.00457753 -0.460706 -0.385492 -0.00812198 -0.46033 -0.305815 -0.0140628 -0.46044 
-0.226911 -0.0197417 -0.460446 -0.148352 -0.0246685 -0.460594 -0.070859 -0.0320109 -0.460574 
0.00227752 -0.00306113 -0.460541 0.0757807 0.0255061 -0.460645 0.138411 -0.02406 -0.46057 
0.212534 0.0072086 -0.460725 0.29369 -0.00187585 -0.460106 0.369909 0.0216642 -0.460585 
0.435256 -0.0239622 -0.460203 0.510014 -0.00432391 -0.440441 0.587064 -0.00553897 -0.460651 
0.687086 0.0290831 -0.460117 0.760019 -0.00367701 -0.460116 0.838032 -0.0321375 -0.460411 
0.916876 -0.0226738 -0.460897 -0.960685 0.057106 -0.460503 -0.881754 0.0644854 -0.461239 
-0.787356 0.0850376 -0.46077 -0.707845 0.089733 -0.460597 -0.634242 0.0591455 -0.460779 
-0.497173 0.0808372 -0.460379 -0.419668 0.0638762 -0.46028 -0.34044 0.0572867 -0.460476 
-0.261153 0.052044 -0.460529 -0.181714 0.0472364 -0.460472 -0.101104 0.041879 -0.460271 
0.0145325 0.0759882 -0.460274 0.148842 0.0545725 -0.460361 0.261143 0.0707795 -0.460223 
0.392911 0.0975617 -0.460827 0.459274 0.0539403 -0.460715 0.537417 0.0673359 -0.460787 
0.617173 0.0678655 -0.46049 0.752141 0.0830532 -0.460716 0.822826 0.0457474 -0.460252 
0.892751 0.0860777 -0.460573 0.960385 0.0440357 -0.460264 -0.960205 0.136499 -0.460581 
-0.847921 0.136702 -0.46041 -0.771121 0.158925 -0.435793 -0.644968 0.13831 -0.460511 
-0.570136 0.111928 -0.46014 -0.501419 0.160463 -0.461122 -0.375109 0.128573 -0.460895 
-0.296185 0.123465 -0.460553 -0.216803 0.118415 -0.460414 -0.137079 0.113215 -0.460333 
-0.0575679 0.108868 -0.460201 0.0881692 0.106051 -0.4605 0.196488 0.117041 -0.461055 
0.304283 0.142686 -0.460636 0.487975 0.130503 -0.460539 0.572512 0.138067 -0.460826 
0.652227 0.138983 -0.460308 0.753657 0.162853 -0.460561 0.82323 0.12509 -0.460427 
0.891119 0.166019 -0.460455 0.960607 0.127834 -0.460441 -0.960317 0.215818 -0.460651 
-0.824469 0.212905 -0.460429 -0.703375 0.192529 -0.460872 -0.414904 0.196934 -0.460465 
-0.332167 0.194741 -0.46059 -0.252417 0.189617 -0.460476 -0.172528 0.184531 -0.460363 
-0.0928409 0.180088 -0.46037 -0.013073 0.179656 -0.460571 0.0737902 0.184503 -0.460758 
0.153451 0.183878 -0.460437 0.236333 0.184816 -0.460529 0.345604 0.210965 -0.460293 
0.419486 0.171718 -0.460618 0.524795 0.201872 -0.460552 0.609617 0.208127 -0.460898 
0.689319 0.20911 -0.46025 0.821329 0.20495 -0.460509 0.960248 0.207682 -0.46035 
-0.960436 0.295844 -0.460105 -0.89168 0.255811 -0.46055 -0.822667 0.295173 -0.460677 
-0.754437 0.253822 -0.460254 -0.679442 0.263529 -0.434594 -0.604073 0.240452 -0.461062 
-0.52486 0.236652 -0.460862 -0.451621 0.267484 -0.460119 -0.371926 0.263961 -0.461064 
-0.288522 0.260497 -0.460608 -0.208036 0.255481 -0.460506 -0.128487 0.251163 -0.460733 
-0.0485846 0.250758 -0.460342 0.0314803 0.251695 -0.460295 0.114385 0.253129 -0.460417 
0.194358 0.252632 -0.46057 0.275586 0.253434 -0.460402 0.385136 0.280531 -0.460429 
0.455685 0.241906 -0.460708 0.56278 0.272092 -0.461036 0.652008 0.279039 -0.460729 
0.75677 0.251595 -0.460422 0.89008 0.245126 -0.460309 -0.891496 0.335773 -0.460449 
-0.705549 0.333921 -0.460622 -0.62655 0.317076 -0.460438 -0.546969 0.313516 -0.460309 
-0.428244 0.343441 -0.460203 -0.327865 0.3296 -0.46083 -0.244336 0.325497 -0.460808 
-0.164804 0.322601 -0.460772 -0.0851239 0.321479 -0.460352 -0.00547924 0.321893 -0.460411 
0.0744222 0.321833 -0.460643 0.15474 0.321898 -0.460576 0.234659 0.321781 -0.460588 
0.315564 0.322053 -0.460371 0.424035 0.350336 -0.46046 0.493695 0.311683 -0.460776 
0.602744 0.341458 -0.460429 0.719342 0.322037 -0.460441 0.802464 0.32151 -0.460605 
0.882134 0.323455 -0.460409 0.959727 0.301812 -0.460781 -0.96025 0.37581 -0.460729 
-0.891067 0.415993 -0.460361 -0.822412 0.375072 -0.460504 -0.747342 0.402005 -0.460778 
-0.651953 0.3923 -0.460315 -0.572428 0.390685 -0.460294 -0.492696 0.390413 -0.460525 
-0.369665 0.397295 -0.460188 -0.282365 0.393908 -0.460297 -0.202621 0.392588 -0.460409 
-0.12335 0.391268 -0.46026 -0.0440626 0.391194 -0.460328 0.0353641 0.391106 -0.460327 
0.11504 0.390996 -0.460483 0.194895 0.39096 -0.460507 0.274845 0.390851 -0.460536 
0.355137 0.39108 -0.460418 0.463623 0.419766 -0.460303 0.533438 0.380877 -0.460246 
0.675864 0.388903 -0.460419 0.755801 0.393252 -0.460626 0.840797 0.39157 -0.460361 
0.921382 0.391911 -0.460794 -0.960307 0.458248 -0.460454 -0.80186 0.46014 -0.46058 
-0.692847 0.460409 -0.460733 -0.611451 0.460461 -0.460528 -0.531853 0.460041 -0.460301 
-0.452022 0.459956 -0.460682 -0.322356 0.461239 -0.460321 -0.241936 0.461317 -0.460312 
-0.162409 0.460695 -0.460295 -0.0832264 0.46036 -0.460435 -0.0040884 0.460287 -0.460425 
0.0754222 0.460215 -0.460459 0.155134 0.46015 -0.460474 0.234964 0.460089 -0.460451 
0.314855 0.460074 -0.460427 0.394881 0.460217 -0.460175 0.5322 0.460392 -0.460744 
0.619917 0.458768 -0.460296 0.711909 0.460113 -0.460368 0.799733 0.460094 -0.460534 
0.88079 0.460425 -0.460449 0.960519 0.460555 -0.460293 -0.960222 -0.461196 -0.40141 
-0.884674 -0.460179 -0.376144 -0.72525 -0.460236 -0.391113 -0.645341 -0.460148 -0.391241 
-0.564015 -0.460167 -0.391954 -0.484161 -0.460218 -0.391757 -0.403837 -0.460018 -0.391803 
-0.320092 -0.460202 -0.394451 -0.218981 -0.460102 -0.404721 -0.112831 -0.460808 -0.391596 
-0.0331799 -0.460874 -0.391504 0.0462469 -0.460133 -0.391251 0.125791 -0.460346 -0.391241 
0.205642 -0.460541 -0.391477 0.285641 -0.46068 -0.391602 0.365475 -0.460663 -0.39157 
0.445193 -0.460681 -0.391647 0.531546 -0.460384 -0.395978 0.618515 -0.460135 -0.391428 
[...]
POINT_DATA 1355
FIELD FieldData 7
id 1 1355 int
366 408 584 322 662 206 563 371 419 
523 551 145 607 585 151 530 365 186 
620 156 70 664 692 632 759 714 370 
120 208 723 59 512 435 712 211 457 
20 256 338 470 195 678 320 643 534 
171 196 105 493 581 542 514 245 234 
347 708 214 280 305 529 396 291 444 
367 476 155 724 314 136 721 375 250 
442 498 54 200 431 623 593 109 184 
446 647 159 267 289 373 275 324 62 
533 376 95 589 76 722 543 576 75 
202 572 683 676 680 445 83 641 185 
331 96 99 458 575 40 57 88 239 
31 281 298 126 300 48 521 531 428 
254 592 758 361 412 478 14 312 252 
153 397 483 704 321 140 726 143 142 
351 651 6 528 433 92 690 689 437 
359 154 569 304 439 339 170 540 639 
461 177 700 378 459 310 258 51 182 
549 369 323 121 382 507 2 495 224 
612 720 590 539 166 460 97 240 537 
127 580 85 544 293 697 634 129 104 
423 742 161 32 384 25 671 74 278 
675 383 71 266 19 22 627 717 162 
602 146 626 247 167 125 191 199 294 
586 640 441 637 596 149 475 574 463 
387 703 269 130 8 393 218 348 420 
613 663 16 578 402 682 421 715 299 
698 747 261 622 355 571 411 42 748 
416 227 391 527 557 346 67 274 319 
242 649 9 73 251 766 409 535 89 
4 260 318 650 259 388 311 94 618 
39 582 53 673 729 3 69 496 363 
201 188 599 670 228 519 667 472 669 
660 646 654 43 230 226 306 427 316 
614 764 329 545 179 389 12 453 440 
197 452 90 604 386 686 38 587 285 
725 743 181 518 225 761 513 5 559 
72 336 66 116 78 628 131 679 959 
103 273 1154 276 516 47 233 325 108 
223 666 157 455 205 175 287 221 56 
751 736 426 744 642 611 302 413 473 
741 684 118 653 18 770 15 82 272 
100 87 343 490 219 601 290 465 110 
438 372 767 631 255 879 552 307 699 
636 187 550 80 532 313 645 279 509 
556 114 757 144 81 668 58 615 944 
616 558 644 341 189 407 36 462 597 
357 394 565 554 29 511 334 282 570 
424 286 541 399 24 447 364 183 86 
566 492 501 718 169 886 248 33 422 
11 502 395 46 106 345 192 711 137 
60 44 112 497 429 479 27 45 694 
326 358 352 746 21 101 629 522 568 
28 271 710 236 524 111 737 102 818 
134 216 733 147 194 148 172 775 443 
415 738 84 1127 243 474 180 482 381 
374 436 638 450 253 425 93 827 91 
215 505 403 520 277 591 133 719 107 
288 350 762 193 546 41 970 333 231 
330 135 928 308 328 232 432 296 821 
659 1038 49 13 61 681 400 648 190 
128 392 610 209 971 35 665 122 503 
750 687 480 469 508 26 113 608 123 
222 709 340 456 606 297 760 17 292 
138 430 246 98 564 448 283 404 178 
244 132 63 583 464 891 600 1165 418 
417 547 763 499 229 494 385 617 672 
467 119 755 481 727 526 390 210 728 
249 217 871 769 354 158 510 7 739 
466 793 890 500 658 337 986 1166 846 
173 567 1184 573 468 781 927 735 809 
1066 1173 1152 925 685 933 814 921 414 
784 265 749 963 1288 943 504 787 268 
935 831 910 362 619 903 688 652 867 
1167 410 768 973 951 1062 754 1061 1170 
360 828 235 696 779 1115 875 1147 207 
932 241 702 1091 907 454 812 603 1255 
974 1162 848 914 829 176 982 838 870 
950 865 124 691 792 857 919 335 317 
406 1174 985 972 732 165 379 295 707 
937 952 765 204 349 904 894 901 79 
851 471 734 786 981 882 356 939 855 
141 489 577 491 969 674 536 1077 655 
621 918 861 824 895 487 1284 795 731 
800 309 50 605 1052 908 1065 30 1075 
434 677 892 52 801 486 905 947 1078 
301 776 962 805 990 332 164 1182 975 
836 815 630 893 1088 198 926 977 657 
794 954 922 835 656 888 633 730 911 
160 752 968 484 150 401 953 327 837 
695 477 220 10 555 380 803 876 515 
791 840 713 65 783 342 864 934 1137 
804 23 538 887 965 203 872 595 929 
994 873 598 884 1180 822 506 813 237 
488 284 1 344 1177 960 706 398 859 
896 869 716 55 1041 1156 830 856 115 
257 1313 1142 562 966 139 263 850 174 
609 912 773 917 37 1118 900 368 881 
625 353 449 756 1225 168 405 845 880 
451 949 117 525 1001 303 262 785 213 
68 635 64 661 553 152 753 817 701 
594 984 923 315 579 377 485 961 212 
693 878 938 1243 561 270 906 1079 1149 
1312 1004 866 823 1334 1143 988 1076 956 
825 1006 1330 163 1159 1123 1093 1231 930 
1178 1290 1051 958 1305 1211 1113 1279 1110 
1185 849 1049 1133 1058 1302 1035 826 844 
1116 1339 1197 1160 1112 1073 832 1193 847 
1217 1003 1316 1032 1267 1347 1000 1344 1145 
868 999 1125 1266 1028 1221 1071 1086 1034 
1186 993 1097 1354 1187 802 1139 1285 1099 
1014 1022 1036 1015 808 995 1295 1054 1144 
1315 1056 1008 1322 1021 1189 1321 1129 1246 
902 1346 1105 1283 1005 936 964 1103 1188 
806 780 789 1213 1172 1158 1020 1095 1050 
1111 1138 916 992 1201 797 820 782 1089 
548 1087 967 1023 1130 1135 1270 1012 834 
978 924 1183 1119 1082 1083 1026 980 1216 
1018 1292 1039 1319 833 1273 1205 839 1067 
1349 1258 1176 1179 1084 1010 1114 1048 931 
1027 799 807 1150 1109 34 842 810 1044 
1016 1333 1274 1311 1171 1033 1046 1265 987 
1100 1253 1017 1204 1203 1009 860 790 774 
1227 1153 1282 1081 899 1080 1269 852 915 
948 1096 946 1338 1069 1057 1300 983 1029 
955 1025 841 1007 1320 1043 798 811 1085 
1175 1055 1126 1309 1280 1101 998 976 1168 
853 1134 989 1206 1277 1281 940 1045 777 
1053 796 1148 1063 1011 1042 1229 1230 877 
1256 1157 1131 771 909 1222 945 1181 1124 
1019 1232 778 898 1353 1146 1102 854 1169 
1336 1287 1070 1136 885 1024 1117 1068 1254 
740 1059 1307 1161 1098 979 588 1040 1264 
863 1064 1262 957 883 238 517 816 897 
788 624 1252 1250 1190 1121 1141 1233 1140 
941 1132 843 1299 1303 1151 1238 745 1327 
1226 1107 1247 1092 819 1306 1275 1335 1276 
1249 1251 1291 1214 1106 1210 1215 1199 1031 
1325 1223 1308 1202 1122 1224 1272 1350 560 
1047 1297 1329 1341 1263 1237 1348 1013 1194 
1209 1235 1108 1343 1037 997 1228 1323 1317 
1331 1219 1342 1352 1304 1242 1301 1260 1220 
1294 1192 1236 1326 1234 1296 1355 1164 1345 
1286 1060 1268 1191 1128 862 1198 1278 1241 
1259 1293 1248 1218 1245 1240 1072 1196 1314 
1289 1104 1195 1163 1328 1351 1298 991 1261 
1094 1200 1310 1074 772 1244 1002 1332 1257 
1090 264 996 942 913 1318 1239 1212 1337 
920 1030 705 1208 1120 1340 1207 1324 874 
858 1155 889 1271 77 
type 1 1355 int
1 1 1 1 1 1 1 1 1 
1 1 1 1 1 1 1 1 1 
1 1 1 1 1 1 1 1 1 
1 1 1 1 1 1 1 1 1 
1 1 1 1 1 1 1 1 1 
1 1 1 1 1 1 1 1 1 
1 1 1 1 1 1 1 1 1 
1 1 1 1 1 1 1 1 1 
1 1 1 1 1 1 1 1 1 
1 1 1 1 1 1 1 1 1 
1 1 1 1 1 1 1 1 1 
1 1 1 1 1 1 1 1 1 
1 1 1 1 1 1 1 1 1 
1 1 1 1 1 1 1 1 1 
1 1 1 1 1 1 1 1 1 
1 1 1 1 1 1 1 1 1 
1 1 1 1 1 1 1 1 1 
1 1 1 1 1 1 1 1 1 
1 1 1 1 1 1 1 1 1 
1 1 1 1 1 1 1 1 1 
1 1 1 1 1 1 1 1 1 
1 1 1 1 1 1 1 1 1 
1 1 1 1 1 1 1 1 1 
1 1 1 1 1 1 1 1 1 
1 1 1 1 1 1 1 1 1 
1 1 1 1 1 1 1 1 1 
1 1 1 1 1 1 1 1 1 
1 1 1 1 1 1 1 1 1 
1 1 1 1 1 1 1 1 1 
1 1 1 1 1 1 1 1 1 
1 1 1 1 1 1 1 1 1 
1 1 1 1 1 1 1 1 1 
1 1 1 1 1 1 1 1 1 
1 1 1 1 1 1 1 1 1 
1 1 1 1 1 1 1 1 1 
1 1 1 1 1 1 1 1 1 
1 1 1 1 1 1 1 1 1 
1 1 1 1 1 1 1 1 1 
1 1 1 1 1 1 1 1 1 
1 1 1 1 1 1 1 1 1 
1 1 1 1 1 1 1 1 1 
1 1 1 1 1 1 1 1 1 
1 1 1 1 1 1 1 1 1 
1 1 1 1 1 1 1 1 1 
1 1 1 1 1 1 1 1 1 
1 1 1 1 1 1 1 1 1 
1 1 1 1 1 1 1 1 1 
1 1 1 1 1 1 1 1 1 
1 1 1 1 1 1 1 1 1 
1 1 1 1 1 1 1 1 1 
1 1 1 1 1 1 1 1 1 
1 1 1 1 1 1 1 1 1 
1 1 1 1 1 1 1 1 1 
1 1 1 1 1 1 1 1 1 
1 1 1 1 1 1 1 1 1 
1 1 1 1 1 1 1 1 1 
1 1 1 1 1 1 1 1 1 
1 1 1 1 1 1 1 1 1 
1 1 1 1 1 1 1 1 1 
1 1 1 1 1 1 1 1 1 
1 1 1 1 1 1 1 1 1 
1 1 1 1 1 1 1 1 1 
1 1 1 1 1 1 1 1 1 
1 1 1 1 1 1 1 1 1 
1 1 1 1 1 1 1 1 1 
1 1 1 1 1 1 1 1 1 
1 1 1 1 1 1 1 1 1 
1 1 1 1 1 1 1 1 1 
1 1 1 1 1 1 1 1 1 
1 1 1 1 1 1 1 1 1 
1 1 1 1 1 1 1 1 1 
1 1 1 1 1 1 1 1 1 
1 1 1 1 1 1 1 1 1 
1 1 1 1 1 1 1 1 1 
1 1 1 1 1 1 1 1 1 
1 1 1 1 1 1 1 1 1 
1 1 1 1 1 1 1 1 1 
1 1 1 1 1 1 1 1 1 
1 1 1 1 1 1 1 1 1 
1 1 1 1 1 1 1 1 1 
1 1 1 1 1 1 1 1 1 
1 1 1 1 1 1 1 1 1 
1 1 1 1 1 1 1 1 1 
1 1 1 1 1 1 1 1 1 
1 1 1 1 1 1 1 1 1 
1 1 1 1 1 1 1 1 1 
1 1 1 1 1 1 1 1 1 
1 1 1 1 1 1 1 1 1 
1 1 1 1 1 1 1 1 1 
1 1 1 1 1 1 1 1 1 
1 1 1 1 1 1 1 1 1 
1 1 1 1 1 1 1 1 1 
1 1 1 1 1 1 1 1 1 
1 1 1 1 1 1 1 1 1 
1 1 1 1 1 1 1 1 1 
1 1 1 1 1 1 1 1 1 
1 1 1 1 1 1 1 1 1 
1 1 1 1 1 1 1 1 1 
1 1 1 1 1 1 1 1 1 
1 1 1 1 1 1 1 1 1 
1 1 1 1 1 1 1 1 1 
1 1 1 1 1 1 1 1 1 
1 1 1 1 1 1 1 1 1 
1 1 1 1 1 1 1 1 1 
1 1 1 1 1 1 1 1 1 
1 1 1 1 1 1 1 1 1 
1 1 1 1 1 1 1 1 1 
1 1 1 1 1 1 1 1 1 
1 1 1 1 1 1 1 1 1 
1 1 1 1 1 1 1 1 1 
1 1 1 1 1 1 1 1 1 
1 1 1 1 1 1 1 1 1 
1 1 1 1 1 1 1 1 1 
1 1 1 1 1 1 1 1 1 
1 1 1 1 1 1 1 1 1 
1 1 1 1 1 1 1 1 1 
1 1 1 1 1 1 1 1 1 
1 1 1 1 1 1 1 1 1 
1 1 1 1 1 1 1 1 1 
1 1 1 1 1 1 1 1 1 
1 1 1 1 1 1 1 1 1 
1 1 1 1 1 1 1 1 1 
1 1 1 1 1 1 1 1 1 
1 1 1 1 1 1 1 1 1 
1 1 1 1 1 1 1 1 1 
1 1 1 1 1 1 1 1 1 
1 1 1 1 1 1 1 1 1 
1 1 1 1 1 1 1 1 1 
1 1 1 1 1 1 1 1 1 
1 1 1 1 1 1 1 1 1 
1 1 1 1 1 1 1 1 1 
1 1 1 1 1 1 1 1 1 
1 1 1 1 1 1 1 1 1 
1 1 1 1 1 1 1 1 1 
1 1 1 1 1 1 1 1 1 
1 1 1 1 1 1 1 1 1 
1 1 1 1 1 1 1 1 1 
1 1 1 1 1 1 1 1 1 
1 1 1 1 1 1 1 1 1 
1 1 1 1 1 1 1 1 1 
1 1 1 1 1 1 1 1 1 
1 1 1 1 1 1 1 1 1 
1 1 1 1 1 1 1 1 1 
1 1 1 1 1 1 1 1 1 
1 1 1 1 1 1 1 1 1 
1 1 1 1 1 1 1 1 1 
1 1 1 1 1 1 1 1 1 
1 1 1 1 1 1 1 1 1 
1 1 1 1 1 1 1 1 1 
1 1 1 1 1 1 1 1 1 
1 1 1 1 1 
i 3 1355 int
0 0 0 0 0 0 0 0 0 
0 0 0 0 0 0 0 0 0 
0 0 0 0 0 0 0 0 0 
0 0 0 0 0 0 0 0 0 
0 0 0 0 0 0 0 0 0 
0 0 0 0 0 0 0 0 0 
0 0 0 0 0 0 0 0 0 
0 0 0 0 0 0 0 0 0 
0 0 0 0 0 0 0 0 0 
0 0 0 0 0 0 0 0 0 
0 0 0 0 0 0 0 0 0 
0 0 0 0 0 0 0 0 0 
0 0 0 0 0 0 0 0 0 
0 0 0 0 0 0 0 0 0 
0 0 0 0 0 0 0 0 0 
0 0 0 0 0 0 0 0 0 
0 0 0 0 0 0 0 0 0 
0 0 0 0 0 0 0 0 0 
0 0 0 0 0 0 0 0 0 
0 0 0 0 0 0 0 0 0 
0 0 0 0 0 0 0 0 0 
0 0 0 0 0 0 0 0 0 
0 0 0 0 0 0 0 0 0 
0 0 0 0 0 0 0 0 0 
0 0 0 0 0 0 0 0 0 
0 0 0 0 0 0 0 0 0 
0 0 0 0 0 0 0 0 0 
0 0 0 0 0 0 0 0 0 
0 0 0 0 0 0 0 0 0 
0 0 0 0 0 0 0 0 0 
0 0 0 0 0 0 0 0 0 
0 0 0 0 0 0 0 0 0 
0 0 0 0 0 0 0 0 0 
0 0 0 0 0 0 0 0 0 
0 0 0 0 0 0 0 0 0 
0 0 0 0 0 0 0 0 0 
0 0 0 0 0 0 0 0 0 
0 0 0 0 0 0 0 0 0 
0 0 0 0 0 0 0 0 0 
0 0 0 0 0 0 0 0 0 
0 0 0 0 0 0 0 0 0 
0 0 0 0 0 0 0 0 0 
0 0 0 0 0 0 0 0 0 
0 0 0 0 0 0 0 0 0 
0 0 0 0 0 0 0 0 0 
0 0 0 0 0 0 0 0 0 
0 0 0 0 0 0 0 0 0 
0 0 0 0 0 0 0 0 0 
0 0 0 0 0 0 0 0 0 
0 0 0 0 0 0 0 0 0 
0 0 0 0 0 0 0 0 0 
0 0 0 0 0 0 0 0 0 
0 0 0 0 0 0 0 0 0 
0 0 0 0 0 0 0 0 0 
0 0 0 0 0 0 0 0 0 
0 0 0 0 0 0 0 0 0 
0 0 0 0 0 0 0 0 0 
0 0 0 0 0 0 0 0 0 
0 0 0 0 0 0 0 0 0 
0 0 0 0 0 0 0 0 0 
0 0 0 0 0 0 0 0 0 
0 0 0 0 0 0 0 0 0 
0 0 0 0 0 0 0 0 0 
0 0 0 0 0 0 0 0 0 
0 0 0 0 0 0 0 0 0 
0 0 0 0 0 0 0 0 0 
0 0 0 0 0 0 0 0 0 
0 0 0 0 0 0 0 0 0 
0 0 0 0 0 0 0 0 0 
0 0 0 0 0 0 0 0 0 
0 0 0 0 0 0 0 0 0 
0 0 0 0 0 0 0 0 0 
0 0 0 0 0 0 0 0 0 
0 0 0 0 0 0 0 0 0 
0 0 0 0 0 0 0 0 0 
0 0 0 0 0 0 0 0 0 
0 0 0 0 0 0 0 0 0 
0 0 0 0 0 0 0 0 0 
0 0 0 0 0 0 0 0 0 
0 0 0 0 0 0 0 0 0 
0 0 0 0 0 0 0 0 0 
0 0 0 0 0 0 0 0 0 
0 0 0 0 0 0 0 0 0 
0 0 0 0 0 0 0 0 0 
0 0 0 0 0 0 0 0 0 
0 0 0 0 0 0 0 0 0 
0 0 0 0 0 0 0 0 0 
0 0 0 0 0 0 0 0 0 
0 0 0 0 0 0 0 0 0 
0 0 0 0 0 0 0 0 0 
0 0 0 0 0 0 0 0 0 
0 0 0 0 0 0 0 0 0 
0 0 0 0 0 0 0 0 0 
0 0 0 0 0 0 0 0 0 
0 0 0 0 0 0 0 0 0 
0 0 0 0 0 0 0 0 0 
0 0 0 0 0 0 0 0 0 
0 0 0 0 0 0 0 0 0 
0 0 0 0 0 0 0 0 0 
0 0 0 0 0 0 0 0 0 
0 0 0 0 0 0 0 0 0 
0 0 0 0 0 0 0 0 0 
0 0 0 0 0 0 0 0 0 
0 0 0 0 0 0 0 0 0 
0 0 0 0 0 0 0 0 0 
0 0 0 0 0 0 0 0 0 
0 0 0 0 0 0 0 0 0 
0 0 0 0 0 0 0 0 0 
0 0 0 0 0 0 0 0 0 
0 0 0 0 0 0 0 0 0 
0 0 0 0 0 0 0 0 0 
0 0 0 0 0 0 0 0 0 
0 0 0 0 0 0 0 0 0 
0 0 0 0 0 0 0 0 0 
0 0 0 0 0 0 0 0 0 
0 0 0 0 0 0 0 0 0 
0 0 0 0 0 0 0 0 0 
0 0 0 0 0 0 0 0 0 
0 0 0 0 0 0 0 0 0 
0 0 0 0 0 0 0 0 0 
0 0 0 0 0 0 0 0 0 
0 0 0 0 0 0 0 0 0 
0 0 0 0 0 0 0 0 0 
0 0 0 0 0 0 0 0 0 
0 0 0 0 0 0 0 0 0 
0 0 0 0 0 0 0 0 0 
0 0 0 0 0 0 0 0 0 
0 0 0 0 0 0 0 0 0 
0 0 0 0 0 0 0 0 0 
0 0 0 0 0 0 0 0 0 
0 0 0 0 0 0 0 0 0 
0 0 0 0 0 0 0 0 0 
0 0 0 0 0 0 0 0 0 
0 0 0 0 0 0 0 0 0 
0 0 0 0 0 0 0 0 0 
0 0 0 0 0 0 0 0 0 
0 0 0 0 0 0 0 0 0 
0 0 0 0 0 0 0 0 0 
0 0 0 0 0 0 0 0 0 
0 0 0 0 0 0 0 0 0 
0 0 0 0 0 0 0 0 0 
0 0 0 0 0 0 0 0 0 
0 0 0 0 0 0 0 0 0 
0 0 0 0 0 0 0 0 0 
0 0 0 0 0 0 0 0 0 
0 0 0 0 0 0 0 0 0 
0 0 0 0 0 0 0 0 0 
0 0 0 0 0 0 0 0 0 
0 0 0 0 0 0 0 0 0 
0 0 0 0 0 0 0 0 0 
0 0 0 0 0 0 0 0 0 
0 0 0 0 0 0 0 0 0 
0 0 0 0 0 0 0 0 0 
0 0 0 0 0 0 0 0 0 
0 0 0 0 0 0 0 0 0 
0 0 0 0 0 0 0 0 0 
0 0 0 0 0 0 0 0 0 
0 0 0 0 0 0 0 0 0 
0 0 0 0 0 0 0 0 0 
0 0 0 0 0 0 0 0 0 
0 0 0 0 0 0 0 0 0 
0 0 0 0 0 0 0 0 0 
0 0 0 0 0 0 0 0 0 
0 0 0 0 0 0 0 0 0 
0 0 0 0 0 0 0 0 0 
0 0 0 0 0 0 0 0 0 
0 0 0 0 0 0 0 0 0 
0 0 0 0 0 0 0 0 0 
0 0 0 0 0 0 0 0 0 
0 0 0 0 0 0 0 0 0 
0 0 0 0 0 0 0 0 0 
0 0 0 0 0 0 0 0 0 
0 0 0 0 0 0 0 0 0 
0 0 0 0 0 0 0 0 0 
0 0 0 0 0 0 0 0 0 
0 0 0 0 0 0 0 0 0 
0 0 0 0 0 0 0 0 0 
0 0 0 0 0 0 0 0 0 
0 0 0 0 0 0 0 0 0 
0 0 0 0 0 0 0 0 0 
0 0 0 0 0 0 0 0 0 
0 0 0 0 0 0 0 0 0 
0 0 0 0 0 0 0 0 0 
0 0 0 0 0 0 0 0 0 
0 0 0 0 0 0 0 0 0 
0 0 0 0 0 0 0 0 0 
0 0 0 0 0 0 0 0 0 
0 0 0 0 0 0 0 0 0 
0 0 0 0 0 0 0 0 0 
0 0 0 0 0 0 0 0 0 
0 0 0 0 0 0 0 0 0 
0 0 0 0 0 0 0 0 0 
0 0 0 0 0 0 0 0 0 
0 0 0 0 0 0 0 0 0 
0 0 0 0 0 0 0 0 0 
0 0 0 0 0 0 0 0 0 
0 0 0 0 0 0 0 0 0 
0 0 0 0 0 0 0 0 0 
0 0 0 0 0 0 0 0 0 
0 0 0 0 0 0 0 0 0 
0 0 0 0 0 0 0 0 0 
0 0 0 0 0 0 0 0 0 
0 0 0 0 0 0 0 0 0 
0 0 0 0 0 0 0 0 0 
0 0 0 0 0 0 0 0 0 
0 0 0 0 0 0 0 0 0 
0 0 0 0 0 0 0 0 0 
0 0 0 0 0 0 0 0 0 
0 0 0 0 0 0 0 0 0 
0 0 0 0 0 0 0 0 0 
0 0 0 0 0 0 0 0 0 
0 0 0 0 0 0 0 0 0 
0 0 0 0 0 0 0 0 0 
0 0 0 0 0 0 0 0 0 
0 0 0 0 0 0 0 0 0 
0 0 0 0 0 0 0 0 0 
0 0 0 0 0 0 0 0 0 
0 0 0 0 0 0 0 0 0 
0 0 0 0 0 0 0 0 0 
0 0 0 0 0 0 0 0 0 
0 0 0 0 0 0 0 0 0 
0 0 0 0 0 0 0 0 0 
0 0 0 0 0 0 0 0 0 
0 0 0 0 0 0 0 0 0 
0 0 0 0 0 0 0 0 0 
0 0 0 0 0 0 0 0 0 
0 0 0 0 0 0 0 0 0 
0 0 0 0 0 0 0 0 0 
0 0 0 0 0 0 0 0 0 
0 0 0 0 0 0 0 0 0 
0 0 0 0 0 0 0 0 0 
0 0 0 0 0 0 0 0 0 
0 0 0 0 0 0 0 0 0 
0 0 0 0 0 0 0 0 0 
0 0 0 0 0 0 0 0 0 
0 0 0 0 0 0 0 0 0 
0 0 0 0 0 0 0 0 0 
0 0 0 0 0 0 0 0 0 
0 0 0 0 0 0 0 0 0 
0 0 0 0 0 0 0 0 0 
0 0 0 0 0 0 0 0 0 
0 0 0 0 0 0 0 0 0 
0 0 0 0 0 0 0 0 0 
0 0 0 0 0 0 0 0 0 
0 0 0 0 0 0 0 0 0 
0 0 0 0 0 0 0 0 0 
0 0 0 0 0 0 0 0 0 
0 0 0 0 0 0 0 0 0 
0 0 0 0 0 0 0 0 0 
0 0 0 0 0 0 0 0 0 
0 0 0 0 0 0 0 0 0 
0 0 0 0 0 0 0 0 0 
0 0 0 0 0 0 0 0 0 
0 0 0 0 0 0 0 0 0 
0 0 0 0 0 0 0 0 0 
0 0 0 0 0 0 0 0 0 
0 0 0 0 0 0 0 0 0 
0 0 0 0 0 0 0 0 0 
0 0 0 0 0 0 0 0 0 
0 0 0 0 0 0 0 0 0 
0 0 0 0 0 0 0 0 0 
0 0 0 0 0 0 0 0 0 
0 0 0 0 0 0 0 0 0 
0 0 0 0 0 0 0 0 0 
0 0 0 0 0 0 0 0 0 
0 0 0 0 0 0 0 0 0 
0 0 0 0 0 0 0 0 0 
0 0 0 0 0 0 0 0 0 
0 0 0 0 0 0 0 0 0 
0 0 0 0 0 0 0 0 0 
0 0 0 0 0 0 0 0 0 
0 0 0 0 0 0 0 0 0 
0 0 0 0 0 0 0 0 0 
0 0 0 0 0 0 0 0 0 
0 0 0 0 0 0 0 0 0 
0 0 0 0 0 0 0 0 0 
0 0 0 0 0 0 0 0 0 
0 0 0 0 0 0 0 0 0 
0 0 0 0 0 0 0 0 0 
0 0 0 0 0 0 0 0 0 
0 0 0 0 0 0 0 0 0 
0 0 0 0 0 0 0 0 0 
0 0 0 0 0 0 0 0 0 
0 0 0 0 0 0 0 0 0 
0 0 0 0 0 0 0 0 0 
0 0 0 0 0 0 0 0 0 
0 0 0 0 0 0 0 0 0 
0 0 0 0 0 0 0 0 0 
0 0 0 0 0 0 0 0 0 
0 0 0 0 0 0 0 0 0 
0 0 0 0 0 0 0 0 0 
0 0 0 0 0 0 0 0 0 
0 0 0 0 0 0 0 0 0 
0 0 0 0 0 0 0 0 0 
0 0 0 0 0 0 0 0 0 
0 0 0 0 0 0 0 0 0 
0 0 0 0 0 0 0 0 0 
0 0 0 0 0 0 0 0 0 
0 0 0 0 0 0 0 0 0 
0 0 0 0 0 0 0 0 0 
0 0 0 0 0 0 0 0 0 
0 0 0 0 0 0 0 0 0 
0 0 0 0 0 0 0 0 0 
0 0 0 0 0 0 0 0 0 
0 0 0 0 0 0 0 0 0 
0 0 0 0 0 0 0 0 0 
0 0 0 0 0 0 0 0 0 
0 0 0 0 0 0 0 0 0 
0 0 0 0 0 0 0 0 0 
0 0 0 0 0 0 0 0 0 
0 0 0 0 0 0 0 0 0 
0 0 0 0 0 0 0 0 0 
0 0 0 0 0 0 0 0 0 
0 0 0 0 0 0 0 0 0 
0 0 0 0 0 0 0 0 0 
0 0 0 0 0 0 0 0 0 
0 0 0 0 0 0 0 0 0 
0 0 0 0 0 0 0 0 0 
0 0 0 0 0 0 0 0 0 
0 0 0 0 0 0 0 0 0 
0 0 0 0 0 0 0 0 0 
0 0 0 0 0 0 0 0 0 
0 0 0 0 0 0 0 0 0 
0 0 0 0 0 0 0 0 0 
0 0 0 0 0 0 0 0 0 
0 0 0 0 0 0 0 0 0 
0 0 0 0 0 0 0 0 0 
0 0 0 0 0 0 0 0 0 
0 0 0 0 0 0 0 0 0 
0 0 0 0 0 0 0 0 0 
0 0 0 0 0 0 0 0 0 
0 0 0 0 0 0 0 0 0 
0 0 0 0 0 0 0 0 0 
0 0 0 0 0 0 0 0 0 
0 0 0 0 0 0 0 0 0 
0 0 0 0 0 0 0 0 0 
0 0 0 0 0 0 0 0 0 
0 0 0 0 0 0 0 0 0 
0 0 0 0 0 0 0 0 0 
0 0 0 0 0 0 0 0 0 
0 0 0 0 0 0 0 0 0 
0 0 0 0 0 0 0 0 0 
0 0 0 0 0 0 0 0 0 
0 0 0 0 0 0 0 0 0 
0 0 0 0 0 0 0 0 0 
0 0 0 0 0 0 0 0 0 
0 0 0 0 0 0 0 0 0 
0 0 0 0 0 0 0 0 0 
0 0 0 0 0 0 0 0 0 
0 0 0 0 0 0 0 0 0 
0 0 0 0 0 0 0 0 0 
0 0 0 0 0 0 0 0 0 
0 0 0 0 0 0 0 0 0 
0 0 0 0 0 0 0 0 0 
0 0 0 0 0 0 0 0 0 
0 0 0 0 0 0 0 0 0 
0 0 0 0 0 0 0 0 0 
0 0 0 0 0 0 0 0 0 
0 0 0 0 0 0 0 0 0 
0 0 0 0 0 0 0 0 0 
0 0 0 0 0 0 0 0 0 
0 0 0 0 0 0 0 0 0 
0 0 0 0 0 0 0 0 0 
0 0 0 0 0 0 0 0 0 
0 0 0 0 0 0 0 0 0 
0 0 0 0 0 0 0 0 0 
0 0 0 0 0 0 0 0 0 
0 0 0 0 0 0 0 0 0 
0 0 0 0 0 0 0 0 0 
0 0 0 0 0 0 0 0 0 
0 0 0 0 0 0 0 0 0 
0 0 0 0 0 0 0 0 0 
0 0 0 0 0 0 0 0 0 
0 0 0 0 0 0 0 0 0 
0 0 0 0 0 0 0 0 0 
0 0 0 0 0 0 0 0 0 
0 0 0 0 0 0 0 0 0 
0 0 0 0 0 0 0 0 0 
0 0 0 0 0 0 0 0 0 
0 0 0 0 0 0 0 0 0 
0 0 0 0 0 0 0 0 0 
0 0 0 0 0 0 0 0 0 
0 0 0 0 0 0 0 0 0 
0 0 0 0 0 0 0 0 0 
0 0 0 0 0 0 0 0 0 
0 0 0 0 0 0 0 0 0 
0 0 0 0 0 0 0 0 0 
0 0 0 0 0 0 0 0 0 
0 0 0 0 0 0 0 0 0 
0 0 0 0 0 0 0 0 0 
0 0 0 0 0 0 0 0 0 
0 0 0 0 0 0 0 0 0 
0 0 0 0 0 0 0 0 0 
0 0 0 0 0 0 0 0 0 
0 0 0 0 0 0 0 0 0 
0 0 0 0 0 0 0 0 0 
0 0 0 0 0 0 0 0 0 
0 0 0 0 0 0 0 0 0 
0 0 0 0 0 0 0 0 0 
0 0 0 0 0 0 0 0 0 
0 0 0 0 0 0 0 0 0 
0 0 0 0 0 0 0 0 0 
0 0 0 0 0 0 0 0 0 
0 0 0 0 0 0 0 0 0 
0 0 0 0 0 0 0 0 0 
0 0 0 0 0 0 0 0 0 
0 0 0 0 0 0 0 0 0 
0 0 0 0 0 0 0 0 0 
0 0 0 0 0 0 0 0 0 
0 0 0 0 0 0 0 0 0 
0 0 0 0 0 0 0 0 0 
0 0 0 0 0 0 0 0 0 
0 0 0 0 0 0 0 0 0 
0 0 0 0 0 0 0 0 0 
0 0 0 0 0 0 0 0 0 
0 0 0 0 0 0 0 0 0 
0 0 0 0 0 0 0 0 0 
0 0 0 0 0 0 0 0 0 
0 0 0 0 0 0 0 0 0 
0 0 0 0 0 0 0 0 0 
0 0 0 0 0 0 0 0 0 
0 0 0 0 0 0 0 0 0 
0 0 0 0 0 0 0 0 0 
0 0 0 0 0 0 0 0 0 
0 0 0 0 0 0 0 0 0 
0 0 0 0 0 0 0 0 0 
0 0 0 0 0 0 0 0 0 
0 0 0 0 0 0 0 0 0 
0 0 0 0 0 0 0 0 0 
0 0 0 0 0 0 0 0 0 
0 0 0 0 0 0 0 0 0 
0 0 0 0 0 0 0 0 0 
0 0 0 0 0 0 0 0 0 
0 0 0 0 0 0 0 0 0 
0 0 0 0 0 0 0 0 0 
0 0 0 0 0 0 0 0 0 
0 0 0 0 0 0 0 0 0 
0 0 0 0 0 0 0 0 0 
0 0 0 0 0 0 0 0 0 
0 0 0 0 0 0 0 0 0 
0 0 0 0 0 0 0 0 0 
0 0 0 0 0 0 0 0 0 
0 0 0 0 0 0 0 0 0 
0 0 0 0 0 0 0 0 0 
0 0 0 0 0 0 0 0 0 
0 0 0 0 0 0 0 0 0 
0 0 0 0 0 0 0 0 0 
0 0 0 0 0 0 0 0 0 
0 0 0 0 0 0 0 0 0 
0 0 0 0 0 0 0 0 0 
0 0 0 0 0 0 0 0 0 
0 0 0 0 0 0 
v 3 1355 double
-0.00128249 0.000151687 -0.000411417 -0.000905188 -0.00125592 -0.001421 -0.00102257 -5.08203e-05 -0.000992027 
-9.20687e-05 -0.00163861 0.000449249 0.00173395 -0.000416175 0.000460968 -0.00118713 0.00092377 -0.00338818 
0.000726742 0.0026095 -0.00607781 0.0144384 -0.00391719 0.00700103 -0.00540602 -0.0013746 0.0191977 
-0.00645648 -0.0434238 0.0100143 0.00555099 -0.00208273 0.00115176 0.0017008 0.00177015 0.000858755 
0.0013902 0.000325734 0.000310163 0.000644765 3.06446e-05 0.000735071 0.000808352 -0.000702524 0.00114789 
0.00148313 -0.00224752 -0.00108082 0.00132997 -0.00119596 -0.000760192 0.000123215 1.99519e-05 -0.000577575 
-0.0004354 -0.000137173 -3.1787e-06 -1.19451e-05 -5.58583e-05 0.00028374 5.13474e-05 -3.96236e-05 -7.97589e-05 
2.29187e-05 2.00674e-05 -8.04846e-06 -0.000337539 0.000210421 -0.000249724 -0.000472971 -0.000570041 -0.000701676 
-1.79282e-05 -0.000959504 -0.00264343 -0.000319644 -0.00165763 -0.00134482 0.0042783 -0.00105251 -0.00128344 
0.00471154 -0.000549687 -0.00735264 0.00947036 -0.00731317 -0.00198667 0.00645808 -0.0128508 0.0072509 
0.00180334 -0.00366965 0.00214604 -0.00133504 0.000152967 0.000845688 0.00596544 -0.00553771 -0.00436485 
0.000131305 -0.000490848 0.00412882 0.000702961 -0.000409425 0.00158479 0.00185997 -0.00245514 0.000169251 
0.00152507 -0.00175039 -0.000994383 0.00204641 -0.0010222 -0.00122614 0.000630909 3.82725e-05 -0.00102883 
-0.000730657 0.000518359 -0.00036607 -0.000235023 -0.000330471 1.43813e-05 -2.49098e-06 1.42562e-05 -0.00012831 
-1.59673e-05 2.424e-05 -4.6151e-05 5.43811e-05 2.81359e-05 2.09829e-05 -0.000102722 -0.000310307 -0.000444908 
-0.00089602 -0.00021507 -6.68744e-05 -0.000877144 -0.000701853 0.000153218 0.000906151 -0.000993658 -0.00192695 
0.00065476 -0.00157188 -0.00198487 0.00236733 -0.00332571 -0.00282233 -8.73041e-05 -0.00856127 0.00153963 
0.00318 -0.0048329 -0.000992649 -0.000981578 -0.0153174 -0.00269663 0.0021954 -0.00290964 -0.0094523 
0.00479012 -0.00626693 -0.0237454 0.00721203 -0.00829658 0.00644045 0.00407642 -3.39273e-05 0.00204125 
0.00322359 -0.00305187 -0.00185159 0.00167639 -0.00118845 -0.00871903 0.00388804 -0.00104903 -0.00981919 
0.000473831 -0.000331162 -0.000982223 0.00059843 0.00020864 -0.000259548 -0.000205252 0.000269987 0.00016016 
-0.000305394 -0.000127734 -4.30279e-05 0.0002914 -9.69738e-05 -0.000196051 0.000108865 -0.000126272 -7.97724e-06 
-8.22424e-05 -4.18104e-05 -0.00031917 0.000334512 0.000364181 -6.17887e-05 -0.000645591 0.000824743 0.00229627 
-0.000482203 -0.00305709 -0.00105585 0.002317 -0.00067926 0.00193669 0.00016558 -0.00499165 -0.00356258 