# vtk DataFile Version 4.0
Generated by LIGGGHTS
ASCII
DATASET POLYDATA
POINTS 982 float
-0.698889 -0.464157 -0.449833 -0.522665 -0.411716 -0.459023 -0.437096 -0.451245 -0.454251 
-0.232218 -0.418938 -0.449496 -0.0519704 -0.459136 -0.425056 0.168163 -0.451554 -0.454414 
0.353792 -0.445914 -0.458344 0.442753 -0.441302 -0.452198 0.509273 -0.39326 -0.462954 
0.736628 -0.423654 -0.446249 0.819523 -0.439148 -0.455851 0.915851 -0.377984 -0.417431 
-0.947565 -0.31735 -0.448716 -0.311173 -0.371439 -0.453724 -0.174477 -0.333135 -0.457133 
-0.0179891 -0.365254 -0.453222 0.0933146 -0.397166 -0.458254 0.245686 -0.389528 -0.447812 
0.3197 -0.351447 -0.459872 0.611393 -0.406023 -0.463395 -0.743559 -0.319658 -0.450435 
-0.804172 -0.251423 -0.4531 -0.656983 -0.322691 -0.461336 -0.595527 -0.271234 -0.45426 
-0.507318 -0.279194 -0.46233 -0.430331 -0.246559 -0.464411 -0.303386 -0.246387 -0.461852 
-0.254349 -0.311887 -0.458864 -0.0562782 -0.289065 -0.447535 0.0342172 -0.301474 -0.460466 
0.126789 -0.29767 -0.455655 0.221527 -0.312672 -0.458316 0.406049 -0.305093 -0.446741 
0.541437 -0.315856 -0.460391 0.593088 -0.251164 -0.453871 0.754818 -0.270333 -0.461339 
0.854373 -0.331745 -0.448774 -0.667215 -0.229355 -0.463842 -0.218147 -0.220678 -0.462273 
-0.13339 -0.220388 -0.460766 -0.01721 -0.206703 -0.460467 0.121541 -0.216621 -0.458492 
0.210368 -0.222779 -0.462516 0.351206 -0.231094 -0.45532 0.670213 -0.249508 -0.462046 
0.779965 -0.180841 -0.459347 -0.958808 -0.143184 -0.444051 -0.760668 -0.173633 -0.462016 
-0.667394 -0.147708 -0.462561 -0.579162 -0.176203 -0.458126 -0.506647 -0.123711 -0.453748 
-0.433579 -0.154495 -0.455365 -0.300756 -0.15271 -0.461147 -0.154272 -0.140118 -0.462885 
-0.0683647 -0.134695 -0.458929 0.0761749 -0.144677 -0.460707 0.169936 -0.155245 -0.446785 
0.281232 -0.189704 -0.462124 0.329775 -0.123851 -0.461303 0.44744 -0.144119 -0.460268 
0.572299 -0.164561 -0.46284 0.965513 -0.141957 -0.445615 -0.914077 -0.0868163 -0.459033 
-0.770798 -0.0924087 -0.45936 -0.607283 -0.0687254 -0.460918 -0.386466 -0.0913238 -0.459894 
-0.273425 -0.0675093 -0.460744 -0.196559 -0.0666326 -0.46392 -0.108778 -0.0633894 -0.463127 
0.0276982 -0.0804846 -0.463405 0.108879 -0.0644318 -0.458258 0.197573 -0.061774 -0.453352 
0.405197 -0.0755314 -0.463947 0.487526 -0.07116 -0.457424 0.568538 -0.0853811 -0.441413 
0.655084 -0.0852482 -0.462745 0.72915 -0.0337145 -0.461969 0.812626 -0.106236 -0.462613 
0.915406 -0.057228 -0.450038 -0.855375 0.0114056 -0.455111 -0.74493 -0.0146173 -0.461102 
-0.660775 -0.00688997 -0.45801 -0.503944 -0.0235935 -0.462824 -0.422794 0.00319264 -0.462645 
-0.338556 0.00843647 -0.461075 -0.248551 0.0192081 -0.455184 -0.083161 0.0443163 -0.461047 
-0.0403249 -0.0222352 -0.457437 0.117284 0.0258046 -0.460968 0.201374 0.0179026 -0.461012 
0.268198 -0.0258942 -0.461803 0.35614 0.0418854 -0.458424 0.57543 -0.00638583 -0.455681 
0.656957 0.00407338 -0.462457 0.847635 0.0102494 -0.461696 0.963641 0.00407596 -0.45881 
-0.864294 0.108211 -0.460282 -0.700972 0.0628791 -0.464781 -0.625092 0.0836012 -0.461742 
-0.470891 0.100312 -0.462072 -0.39231 0.0812328 -0.465564 -0.300324 0.0790944 -0.459403 
-0.185922 0.080423 -0.461711 -0.00161018 0.067029 -0.4606 0.271807 0.073968 -0.457379 
0.451051 0.0655108 -0.460185 0.567041 0.0850051 -0.460145 0.66077 0.0842455 -0.459513 
0.752168 0.0479385 -0.460504 -0.906964 0.180327 -0.460683 -0.764401 0.130604 -0.440658 
-0.544013 0.130503 -0.462418 -0.323787 0.163233 -0.460521 -0.243328 0.157711 -0.461591 
-0.0452544 0.132552 -0.462629 0.0297559 0.157086 -0.458162 0.107426 0.128564 -0.461054 
0.195493 0.097948 -0.460279 0.325838 0.169377 -0.457435 0.386455 0.115166 -0.460606 
0.496295 0.12847 -0.454985 0.6335 0.158364 -0.459436 0.750689 0.144813 -0.462059 
-0.684537 0.197651 -0.458733 -0.554987 0.26686 -0.463388 -0.453574 0.190934 -0.461068 
-0.374708 0.223844 -0.461254 -0.183226 0.217205 -0.464063 -0.105435 0.192483 -0.462549 
0.0439955 0.230219 -0.460589 0.122073 0.223613 -0.460664 0.235395 0.175276 -0.46468 
0.399701 0.192168 -0.454251 0.542477 0.212663 -0.464691 0.702011 0.207012 -0.459086 
0.826108 0.197869 -0.460984 0.932708 0.178299 -0.461655 -0.836564 0.250672 -0.450324 
-0.690501 0.285867 -0.461911 -0.414914 0.294343 -0.459536 -0.25624 0.259122 -0.453568 
-0.0468384 0.261048 -0.461365 0.0917524 0.295294 -0.46186 0.171982 0.298885 -0.454538 
0.249456 0.277239 -0.456199 0.331248 0.250788 -0.453054 0.467885 0.244477 -0.459509 
0.637147 0.253807 -0.461033 0.766866 0.273651 -0.459528 -0.902595 0.30795 -0.452642 
-0.789143 0.32846 -0.448799 -0.620162 0.35137 -0.460892 -0.495482 0.335567 -0.462851 
-0.326611 0.315744 -0.443225 -0.274941 0.385577 -0.460785 -0.104725 0.33377 -0.462028 
0.236897 0.359933 -0.45338 0.348987 0.345241 -0.459337 0.437378 0.323921 -0.459327 
0.535315 0.322531 -0.462246 0.61932 0.334673 -0.463662 0.70545 0.396069 -0.460091 
0.874971 0.374723 -0.454121 0.962787 0.365538 -0.448783 -0.666692 0.450165 -0.451328 
-0.557689 0.409209 -0.450633 -0.430671 0.465616 -0.461523 -0.157987 0.404109 -0.45993 
0.0270835 0.425048 -0.453008 0.104039 0.459991 -0.44673 0.337384 0.455486 -0.460359 
0.559704 0.444828 -0.46153 -0.877929 -0.402247 -0.429988 -0.152915 -0.465625 -0.450026 
0.120006 -0.459818 -0.373747 0.258478 -0.452574 -0.378029 0.561307 -0.426368 -0.397543 
0.85263 -0.412377 -0.386611 -0.787205 -0.395016 -0.423172 -0.64863 -0.400988 -0.417005 
-0.581513 -0.35927 -0.445862 -0.454138 -0.357662 -0.452823 -0.382043 -0.391742 -0.406718 
-0.288102 -0.413416 -0.388196 -0.233132 -0.351403 -0.386741 -0.0909252 -0.376075 -0.447169 
0.185357 -0.350984 -0.401608 0.394198 -0.382234 -0.432431 0.472729 -0.34243 -0.412637 
0.655492 -0.409354 -0.386533 0.779878 -0.344168 -0.408791 -0.81393 -0.306844 -0.375377 
-0.698923 -0.293317 -0.38901 -0.361096 -0.30995 -0.444271 -0.143121 -0.289917 -0.396253 
0.0479425 -0.324921 -0.387489 0.299525 -0.283746 -0.415372 0.521869 -0.22309 -0.439157 
0.632325 -0.321783 -0.426212 0.706808 -0.286357 -0.400378 0.824982 -0.242836 -0.442843 
0.941246 -0.297396 -0.400102 -0.89409 -0.249956 -0.44201 -0.73125 -0.228185 -0.409375 
-0.570329 -0.224286 -0.398551 -0.492807 -0.198307 -0.422335 -0.364424 -0.181877 -0.428037 
-0.317154 -0.230354 -0.386789 -0.157472 -0.187486 -0.393294 -0.0896891 -0.237978 -0.379436 
0.0527925 -0.220107 -0.421376 0.172955 -0.249028 -0.39682 0.233734 -0.198794 -0.390907 
0.324645 -0.180952 -0.391775 0.424287 -0.215403 -0.435876 0.597507 -0.178399 -0.388409 
0.716632 -0.201483 -0.403259 0.921683 -0.230095 -0.461018 -0.853388 -0.152593 -0.449834 
-0.611759 -0.14934 -0.388993 -0.231042 -0.128836 -0.433114 0.0107367 -0.143958 -0.415722 
0.112635 -0.11762 -0.401071 0.192537 -0.104599 -0.389728 0.390829 -0.136467 -0.412211 
0.511445 -0.137591 -0.420531 0.661619 -0.164059 -0.451256 0.725942 -0.116667 -0.451313 
0.857604 -0.171284 -0.425193 0.928218 -0.155252 -0.377044 -0.796587 -0.0460868 -0.398228 
-0.703783 -0.0660815 -0.420844 -0.555644 -0.0895693 -0.392499 -0.451897 -0.0729516 -0.422199 
-0.328564 -0.0834684 -0.407506 -0.177749 -0.0578583 -0.391127 -0.0229638 -0.0758117 -0.40138 
0.254777 -0.0494608 -0.382226 0.260653 -0.114515 -0.42798 0.346018 -0.0346706 -0.434147 
0.63832 -0.0376436 -0.401467 -0.932359 0.0388744 -0.441625 -0.696631 0.0137536 -0.39141 
-0.586219 0.00906678 -0.462814 -0.448435 0.0158314 -0.392608 -0.287642 -0.0191301 -0.397712 
-0.16307 0.00441609 -0.446043 -0.0935823 -0.00629979 -0.39475 0.0377878 -0.00116873 -0.446115 
0.159614 -0.013495 -0.404983 0.420019 -0.00194307 -0.436271 0.494333 -0.0364639 -0.389896 
0.795663 -0.029049 -0.420743 0.920374 0.0303076 -0.392227 -0.782311 0.0493262 -0.436674 
-0.612556 0.0434981 -0.390537 -0.523194 0.0504579 -0.43428 -0.242337 0.085721 -0.406678 
-0.118279 0.109157 -0.435659 -0.0187308 0.0287106 -0.392713 0.0561876 0.091498 -0.416597 
0.140703 0.0770793 -0.405955 0.288728 0.0203595 -0.403115 0.416242 0.064666 -0.380633 
0.514609 0.0334117 -0.421146 0.614271 0.0557648 -0.402984 0.864472 0.107045 -0.444407 
0.811868 0.0515771 -0.40617 -0.94599 0.119106 -0.406722 -0.81762 0.170408 -0.39196 
-0.680048 0.124303 -0.420609 -0.599107 0.169845 -0.420172 -0.554329 0.108351 -0.382104 
-0.397139 0.150333 -0.428185 -0.239511 0.180318 -0.388146 -0.0744852 0.159922 -0.397526 
0.0011833 0.138234 -0.382041 0.199656 0.150826 -0.399888 0.275321 0.128128 -0.403452 
0.350764 0.1022 -0.395879 0.436753 0.142117 -0.402745 0.566788 0.159949 -0.409486 
0.694057 0.1371 -0.410617 0.874394 0.179351 -0.402525 -0.887556 0.216211 -0.382799 
-0.763162 0.215585 -0.444361 -0.694114 0.19688 -0.384425 -0.518645 0.1833 -0.41209 
-0.376643 0.213816 -0.374205 -0.302092 0.232153 -0.392376 -0.0336692 0.233309 -0.386057 
0.102161 0.176811 -0.399585 0.200176 0.227129 -0.418912 0.27532 0.21347 -0.410921 
0.361458 0.182191 -0.384955 0.503314 0.20727 -0.394583 0.584131 0.272449 -0.406503 
0.642385 0.211645 -0.397067 0.964072 0.260197 -0.422535 -0.634183 0.242173 -0.419303 
-0.489383 0.270101 -0.420998 -0.389027 0.292828 -0.386191 -0.115351 0.264232 -0.425796 
-0.0365891 0.339047 -0.421047 0.0877728 0.252573 -0.395415 0.287071 0.331011 -0.386398 
0.399555 0.262922 -0.416588 0.489121 0.318248 -0.395107 0.695997 0.303099 -0.441013 
0.736266 0.246562 -0.390635 0.834568 0.299569 -0.418406 -0.799936 0.429578 -0.402998 
-0.710746 0.371296 -0.452275 -0.611174 0.405479 -0.387448 -0.551497 0.335692 -0.406074 
-0.423091 0.384713 -0.440619 -0.249579 0.33665 -0.399565 -0.181379 0.316531 -0.457949 
0.0433515 0.351343 -0.417789 0.125421 0.367429 -0.446151 0.394192 0.404761 -0.43098 
0.48556 0.397289 -0.462725 0.587258 0.354368 -0.396524 0.755669 0.354551 -0.418044 
0.878098 0.391294 -0.361091 -0.35634 0.436261 -0.456259 -0.25782 0.442868 -0.371037 
-0.0888042 0.437616 -0.431833 0.184578 0.433863 -0.44074 0.262857 0.454064 -0.43825 
0.570686 0.447309 -0.382815 0.760485 0.463475 -0.402098 -0.810505 -0.431425 -0.335175 
-0.554299 -0.444297 -0.37949 0.0142938 -0.406768 -0.396268 -0.712041 -0.369912 -0.354598 
[...]
POINT_DATA 982
FIELD FieldData 7
id 1 982 int
408 662 206 563 523 585 530 365 186 
156 70 513 692 208 371 347 145 151 
20 620 559 196 759 714 493 250 542 
723 234 498 708 214 529 470 444 684 
664 105 245 95 589 54 280 576 367 
446 767 171 641 373 185 96 99 575 
40 722 200 431 31 298 109 680 521 
267 254 361 412 14 689 312 569 153 
170 704 126 140 700 48 726 310 531 
428 592 758 433 92 507 437 495 304 
397 612 321 177 240 502 71 351 51 
293 528 323 129 423 224 384 671 166 
460 637 596 85 627 717 602 348 247 
161 125 191 199 586 278 149 535 387 
269 130 218 748 420 613 16 402 640 
715 441 9 698 622 355 42 416 227 
391 527 346 421 319 262 73 188 89 
4 519 411 94 39 582 53 673 427 
614 728 201 599 763 667 669 660 230 
306 329 419 38 587 658 163 366 584 
322 120 453 440 197 512 607 256 338 
337 320 632 72 581 59 604 305 623 
195 678 476 643 534 314 175 375 62 
272 376 87 76 642 219 556 75 110 
184 155 159 558 458 57 88 239 281 
202 683 300 647 335 445 83 447 331 
407 566 492 497 543 339 45 459 24 
182 6 183 690 382 359 112 720 540 
378 194 127 21 544 121 104 236 742 
474 439 381 639 461 383 97 537 135 
258 19 101 697 277 84 146 288 167 
32 578 294 74 340 55 299 475 463 
22 432 133 49 469 663 762 400 67 
682 649 747 261 122 8 650 480 43 
557 132 729 464 242 363 766 68 417 
670 260 318 388 311 226 727 63 3 
764 228 553 472 646 654 377 316 545 
389 551 573 336 12 354 452 686 285 
181 225 761 5 567 205 370 116 221 
514 679 426 435 457 302 601 396 291 
325 438 724 136 287 82 442 343 80 
645 511 114 593 58 118 317 653 289 
275 324 533 462 491 313 554 334 572 
570 615 616 651 364 189 597 252 394 
718 483 248 33 422 676 326 633 143 
746 106 192 137 434 154 695 737 102 
479 539 216 733 148 142 629 549 345 
369 711 738 710 2 107 111 180 436 
638 450 231 580 443 162 77 626 193 
25 675 266 215 505 665 703 634 393 
687 139 508 350 681 123 128 496 606 
251 409 35 138 503 571 750 405 448 
618 608 274 709 303 418 547 292 499 
494 385 98 617 283 467 755 244 481 
526 69 672 217 179 158 131 90 7 
273 211 516 725 743 518 223 666 66 
268 78 56 712 473 233 108 173 18 
721 552 307 636 100 550 736 207 241 
702 290 410 668 265 157 356 699 36 
577 565 29 757 81 11 286 399 46 
341 478 204 169 655 621 282 301 380 
395 332 165 568 86 630 60 44 327 
524 429 656 253 93 352 522 415 401 
271 719 477 482 220 590 330 172 752 
28 591 342 13 706 546 970 10 392 
209 574 403 506 296 284 564 1 61 
525 37 760 17 178 26 113 222 264 
600 635 661 353 229 756 246 259 701 
119 238 579 583 390 624 249 455 561 
270 468 628 510 735 386 739 611 276 
685 47 500 741 414 745 693 754 504 
935 751 362 103 466 652 413 465 603 
372 255 15 360 295 235 187 176 532 
490 744 691 144 454 749 631 644 732 
707 357 765 279 509 124 79 734 424 
487 541 406 50 379 141 489 30 501 
536 674 471 27 694 358 730 731 309 
605 548 677 349 52 486 134 160 164 
484 150 34 198 657 374 203 147 716 
425 598 515 232 520 65 560 243 23 
538 41 555 333 91 308 328 115 713 
659 344 263 398 648 190 610 595 297 
625 588 430 257 237 562 168 404 174 
609 117 212 456 740 213 368 64 705 
449 152 488 753 594 315 949 517 485 
961 210 878 938 769 781 925 814 951 
787 930 959 933 907 973 848 879 696 
619 932 688 812 786 902 882 829 937 
952 870 904 851 981 797 908 886 824 
980 815 836 818 835 978 962 803 775 
967 977 794 922 948 928 955 837 804 
965 860 813 874 966 845 940 960 896 
785 873 971 856 451 777 912 979 863 
923 788 920 871 941 906 910 927 866 
823 793 890 956 825 921 784 963 770 
943 844 828 831 958 809 903 832 847 
867 849 768 846 802 944 972 826 868 
808 779 875 838 865 792 974 914 936 
806 982 789 950 901 857 919 895 795 
939 820 855 964 842 780 894 834 918 
861 924 916 911 807 782 975 862 953 
969 833 892 839 801 947 776 805 931 
799 800 819 810 843 926 905 954 915 
888 827 876 968 791 840 790 783 889 
893 899 811 852 869 872 929 884 774 
841 864 934 798 887 796 859 917 778 
946 898 976 822 853 909 858 821 945 
850 773 891 900 830 877 881 854 771 
772 942 913 817 880 957 883 885 816 
897 
type 1 982 int
1 1 1 1 1 1 1 1 1 
1 1 1 1 1 1 1 1 1 
1 1 1 1 1 1 1 1 1 
1 1 1 1 1 1 1 1 1 
1 1 1 1 1 1 1 1 1 
1 1 1 1 1 1 1 1 1 
1 1 1 1 1 1 1 1 1 
1 1 1 1 1 1 1 1 1 
1 1 1 1 1 1 1 1 1 
1 1 1 1 1 1 1 1 1 
1 1 1 1 1 1 1 1 1 
1 1 1 1 1 1 1 1 1 
1 1 1 1 1 1 1 1 1 
1 1 1 1 1 1 1 1 1 
1 1 1 1 1 1 1 1 1 
1 1 1 1 1 1 1 1 1 
1 1 1 1 1 1 1 1 1 
1 1 1 1 1 1 1 1 1 
1 1 1 1 1 1 1 1 1 
1 1 1 1 1 1 1 1 1 
1 1 1 1 1 1 1 1 1 
1 1 1 1 1 1 1 1 1 
1 1 1 1 1 1 1 1 1 
1 1 1 1 1 1 1 1 1 
1 1 1 1 1 1 1 1 1 
1 1 1 1 1 1 1 1 1 
1 1 1 1 1 1 1 1 1 
1 1 1 1 1 1 1 1 1 
1 1 1 1 1 1 1 1 1 
1 1 1 1 1 1 1 1 1 
1 1 1 1 1 1 1 1 1 
1 1 1 1 1 1 1 1 1 
1 1 1 1 1 1 1 1 1 
1 1 1 1 1 1 1 1 1 
1 1 1 1 1 1 1 1 1 
1 1 1 1 1 1 1 1 1 
1 1 1 1 1 1 1 1 1 
1 1 1 1 1 1 1 1 1 
1 1 1 1 1 1 1 1 1 
1 1 1 1 1 1 1 1 1 
1 1 1 1 1 1 1 1 1 
1 1 1 1 1 1 1 1 1 
1 1 1 1 1 1 1 1 1 
1 1 1 1 1 1 1 1 1 
1 1 1 1 1 1 1 1 1 
1 1 1 1 1 1 1 1 1 
1 1 1 1 1 1 1 1 1 
1 1 1 1 1 1 1 1 1 
1 1 1 1 1 1 1 1 1 
1 1 1 1 1 1 1 1 1 
1 1 1 1 1 1 1 1 1 
1 1 1 1 1 1 1 1 1 
1 1 1 1 1 1 1 1 1 
1 1 1 1 1 1 1 1 1 
1 1 1 1 1 1 1 1 1 
1 1 1 1 1 1 1 1 1 
1 1 1 1 1 1 1 1 1 
1 1 1 1 1 1 1 1 1 
1 1 1 1 1 1 1 1 1 
1 1 1 1 1 1 1 1 1 
1 1 1 1 1 1 1 1 1 
1 1 1 1 1 1 1 1 1 
1 1 1 1 1 1 1 1 1 
1 1 1 1 1 1 1 1 1 
1 1 1 1 1 1 1 1 1 
1 1 1 1 1 1 1 1 1 
1 1 1 1 1 1 1 1 1 
1 1 1 1 1 1 1 1 1 
1 1 1 1 1 1 1 1 1 
1 1 1 1 1 1 1 1 1 
1 1 1 1 1 1 1 1 1 
1 1 1 1 1 1 1 1 1 
1 1 1 1 1 1 1 1 1 
1 1 1 1 1 1 1 1 1 
1 1 1 1 1 1 1 1 1 
1 1 1 1 1 1 1 1 1 
1 1 1 1 1 1 1 1 1 
1 1 1 1 1 1 1 1 1 
1 1 1 1 1 1 1 1 1 
1 1 1 1 1 1 1 1 1 
1 1 1 1 1 1 1 1 1 
1 1 1 1 1 1 1 1 1 
1 1 1 1 1 1 1 1 1 
1 1 1 1 1 1 1 1 1 
1 1 1 1 1 1 1 1 1 
1 1 1 1 1 1 1 1 1 
1 1 1 1 1 1 1 1 1 
1 1 1 1 1 1 1 1 1 
1 1 1 1 1 1 1 1 1 
1 1 1 1 1 1 1 1 1 
1 1 1 1 1 1 1 1 1 
1 1 1 1 1 1 1 1 1 
1 1 1 1 1 1 1 1 1 
1 1 1 1 1 1 1 1 1 
1 1 1 1 1 1 1 1 1 
1 1 1 1 1 1 1 1 1 
1 1 1 1 1 1 1 1 1 
1 1 1 1 1 1 1 1 1 
1 1 1 1 1 1 1 1 1 
1 1 1 1 1 1 1 1 1 
1 1 1 1 1 1 1 1 1 
1 1 1 1 1 1 1 1 1 
1 1 1 1 1 1 1 1 1 
1 1 1 1 1 1 1 1 1 
1 1 1 1 1 1 1 1 1 
1 1 1 1 1 1 1 1 1 
1 1 1 1 1 1 1 1 1 
1 1 1 1 1 1 1 1 1 
1 1 1 1 1 1 1 1 1 
1 
i 3 982 int
0 0 0 0 0 0 0 0 0 
0 0 0 0 0 0 0 0 0 
0 0 0 0 0 0 0 0 0 
0 0 0 0 0 0 0 0 0 
0 0 0 0 0 0 0 0 0 
0 0 0 0 0 0 0 0 0 
0 0 0 0 0 0 0 0 0 
0 0 0 0 0 0 0 0 0 
0 0 0 0 0 0 0 0 0 
0 0 0 0 0 0 0 0 0 
0 0 0 0 0 0 0 0 0 
0 0 0 0 0 0 0 0 0 
0 0 0 0 0 0 0 0 0 
0 0 0 0 0 0 0 0 0 
0 0 0 0 0 0 0 0 0 
0 0 0 0 0 0 0 0 0 
0 0 0 0 0 0 0 0 0 
0 0 0 0 0 0 0 0 0 
0 0 0 0 0 0 0 0 0 
0 0 0 0 0 0 0 0 0 
0 0 0 0 0 0 0 0 0 
0 0 0 0 0 0 0 0 0 
0 0 0 0 0 0 0 0 0 
0 0 0 0 0 0 0 0 0 
0 0 0 0 0 0 0 0 0 
0 0 0 0 0 0 0 0 0 
0 0 0 0 0 0 0 0 0 
0 0 0 0 0 0 0 0 0 
0 0 0 0 0 0 0 0 0 
0 0 0 0 0 0 0 0 0 
0 0 0 0 0 0 0 0 0 
0 0 0 0 0 0 0 0 0 
0 0 0 0 0 0 0 0 0 
0 0 0 0 0 0 0 0 0 
0 0 0 0 0 0 0 0 0 
0 0 0 0 0 0 0 0 0 
0 0 0 0 0 0 0 0 0 
0 0 0 0 0 0 0 0 0 
0 0 0 0 0 0 0 0 0 
0 0 0 0 0 0 0 0 0 
0 0 0 0 0 0 0 0 0 
0 0 0 0 0 0 0 0 0 
0 0 0 0 0 0 0 0 0 
0 0 0 0 0 0 0 0 0 
0 0 0 0 0 0 0 0 0 
0 0 0 0 0 0 0 0 0 
0 0 0 0 0 0 0 0 0 
0 0 0 0 0 0 0 0 0 
0 0 0 0 0 0 0 0 0 
0 0 0 0 0 0 0 0 0 
0 0 0 0 0 0 0 0 0 
0 0 0 0 0 0 0 0 0 
0 0 0 0 0 0 0 0 0 
0 0 0 0 0 0 0 0 0 
0 0 0 0 0 0 0 0 0 
0 0 0 0 0 0 0 0 0 
0 0 0 0 0 0 0 0 0 
0 0 0 0 0 0 0 0 0 
0 0 0 0 0 0 0 0 0 
0 0 0 0 0 0 0 0 0 
0 0 0 0 0 0 0 0 0 
0 0 0 0 0 0 0 0 0 
0 0 0 0 0 0 0 0 0 
0 0 0 0 0 0 0 0 0 
0 0 0 0 0 0 0 0 0 
0 0 0 0 0 0 0 0 0 
0 0 0 0 0 0 0 0 0 
0 0 0 0 0 0 0 0 0 
0 0 0 0 0 0 0 0 0 
0 0 0 0 0 0 0 0 0 
0 0 0 0 0 0 0 0 0 
0 0 0 0 0 0 0 0 0 
0 0 0 0 0 0 0 0 0 
0 0 0 0 0 0 0 0 0 
0 0 0 0 0 0 0 0 0 
0 0 0 0 0 0 0 0 0 
0 0 0 0 0 0 0 0 0 
0 0 0 0 0 0 0 0 0 
0 0 0 0 0 0 0 0 0 
0 0 0 0 0 0 0 0 0 
0 0 0 0 0 0 0 0 0 
0 0 0 0 0 0 0 0 0 
0 0 0 0 0 0 0 0 0 
0 0 0 0 0 0 0 0 0 
0 0 0 0 0 0 0 0 0 
0 0 0 0 0 0 0 0 0 
0 0 0 0 0 0 0 0 0 
0 0 0 0 0 0 0 0 0 
0 0 0 0 0 0 0 0 0 
0 0 0 0 0 0 0 0 0 
0 0 0 0 0 0 0 0 0 
0 0 0 0 0 0 0 0 0 
0 0 0 0 0 0 0 0 0 
0 0 0 0 0 0 0 0 0 
0 0 0 0 0 0 0 0 0 
0 0 0 0 0 0 0 0 0 
0 0 0 0 0 0 0 0 0 
0 0 0 0 0 0 0 0 0 
0 0 0 0 0 0 0 0 0 
0 0 0 0 0 0 0 0 0 
0 0 0 0 0 0 0 0 0 
0 0 0 0 0 0 0 0 0 
0 0 0 0 0 0 0 0 0 
0 0 0 0 0 0 0 0 0 
0 0 0 0 0 0 0 0 0 
0 0 0 0 0 0 0 0 0 
0 0 0 0 0 0 0 0 0 
0 0 0 0 0 0 0 0 0 
0 0 0 0 0 0 0 0 0 
0 0 0 0 0 0 0 0 0 
0 0 0 0 0 0 0 0 0 
0 0 0 0 0 0 0 0 0 
0 0 0 0 0 0 0 0 0 
0 0 0 0 0 0 0 0 0 
0 0 0 0 0 0 0 0 0 
0 0 0 0 0 0 0 0 0 
0 0 0 0 0 0 0 0 0 
0 0 0 0 0 0 0 0 0 
0 0 0 0 0 0 0 0 0 
0 0 0 0 0 0 0 0 0 
0 0 0 0 0 0 0 0 0 
0 0 0 0 0 0 0 0 0 
0 0 0 0 0 0 0 0 0 
0 0 0 0 0 0 0 0 0 
0 0 0 0 0 0 0 0 0 
0 0 0 0 0 0 0 0 0 
0 0 0 0 0 0 0 0 0 
0 0 0 0 0 0 0 0 0 
0 0 0 0 0 0 0 0 0 
0 0 0 0 0 0 0 0 0 
0 0 0 0 0 0 0 0 0 
0 0 0 0 0 0 0 0 0 
0 0 0 0 0 0 0 0 0 
0 0 0 0 0 0 0 0 0 
0 0 0 0 0 0 0 0 0 
0 0 0 0 0 0 0 0 0 
0 0 0 0 0 0 0 0 0 
0 0 0 0 0 0 0 0 0 
0 0 0 0 0 0 0 0 0 
0 0 0 0 0 0 0 0 0 
0 0 0 0 0 0 0 0 0 
0 0 0 0 0 0 0 0 0 
0 0 0 0 0 0 0 0 0 
0 0 0 0 0 0 0 0 0 
0 0 0 0 0 0 0 0 0 
0 0 0 0 0 0 0 0 0 
0 0 0 0 0 0 0 0 0 
0 0 0 0 0 0 0 0 0 
0 0 0 0 0 0 0 0 0 
0 0 0 0 0 0 0 0 0 
0 0 0 0 0 0 0 0 0 
0 0 0 0 0 0 0 0 0 
0 0 0 0 0 0 0 0 0 
0 0 0 0 0 0 0 0 0 
0 0 0 0 0 0 0 0 0 
0 0 0 0 0 0 0 0 0 
0 0 0 0 0 0 0 0 0 
0 0 0 0 0 0 0 0 0 
0 0 0 0 0 0 0 0 0 
0 0 0 0 0 0 0 0 0 
0 0 0 0 0 0 0 0 0 
0 0 0 0 0 0 0 0 0 
0 0 0 0 0 0 0 0 0 
0 0 0 0 0 0 0 0 0 
0 0 0 0 0 0 0 0 0 
0 0 0 0 0 0 0 0 0 
0 0 0 0 0 0 0 0 0 
0 0 0 0 0 0 0 0 0 
0 0 0 0 0 0 0 0 0 
0 0 0 0 0 0 0 0 0 
0 0 0 0 0 0 0 0 0 
0 0 0 0 0 0 0 0 0 
0 0 0 0 0 0 0 0 0 
0 0 0 0 0 0 0 0 0 
0 0 0 0 0 0 0 0 0 
0 0 0 0 0 0 0 0 0 
0 0 0 0 0 0 0 0 0 
0 0 0 0 0 0 0 0 0 
0 0 0 0 0 0 0 0 0 
0 0 0 0 0 0 0 0 0 
0 0 0 0 0 0 0 0 0 
0 0 0 0 0 0 0 0 0 
0 0 0 0 0 0 0 0 0 
0 0 0 0 0 0 0 0 0 
0 0 0 0 0 0 0 0 0 
0 0 0 0 0 0 0 0 0 
0 0 0 0 0 0 0 0 0 
0 0 0 0 0 0 0 0 0 
0 0 0 0 0 0 0 0 0 
0 0 0 0 0 0 0 0 0 
0 0 0 0 0 0 0 0 0 
0 0 0 0 0 0 0 0 0 
0 0 0 0 0 0 0 0 0 
0 0 0 0 0 0 0 0 0 
0 0 0 0 0 0 0 0 0 
0 0 0 0 0 0 0 0 0 
0 0 0 0 0 0 0 0 0 
0 0 0 0 0 0 0 0 0 
0 0 0 0 0 0 0 0 0 
0 0 0 0 0 0 0 0 0 
0 0 0 0 0 0 0 0 0 
0 0 0 0 0 0 0 0 0 
0 0 0 0 0 0 0 0 0 
0 0 0 0 0 0 0 0 0 
0 0 0 0 0 0 0 0 0 
0 0 0 0 0 0 0 0 0 
0 0 0 0 0 0 0 0 0 
0 0 0 0 0 0 0 0 0 
0 0 0 0 0 0 0 0 0 
0 0 0 0 0 0 0 0 0 
0 0 0 0 0 0 0 0 0 
0 0 0 0 0 0 0 0 0 
0 0 0 0 0 0 0 0 0 
0 0 0 0 0 0 0 0 0 
0 0 0 0 0 0 0 0 0 
0 0 0 0 0 0 0 0 0 
0 0 0 0 0 0 0 0 0 
0 0 0 0 0 0 0 0 0 
0 0 0 0 0 0 0 0 0 
0 0 0 0 0 0 0 0 0 
0 0 0 0 0 0 0 0 0 
0 0 0 0 0 0 0 0 0 
0 0 0 0 0 0 0 0 0 
0 0 0 0 0 0 0 0 0 
0 0 0 0 0 0 0 0 0 
0 0 0 0 0 0 0 0 0 
0 0 0 0 0 0 0 0 0 
0 0 0 0 0 0 0 0 0 
0 0 0 0 0 0 0 0 0 
0 0 0 0 0 0 0 0 0 
0 0 0 0 0 0 0 0 0 
0 0 0 0 0 0 0 0 0 
0 0 0 0 0 0 0 0 0 
0 0 0 0 0 0 0 0 0 
0 0 0 0 0 0 0 0 0 
0 0 0 0 0 0 0 0 0 
0 0 0 0 0 0 0 0 0 
0 0 0 0 0 0 0 0 0 
0 0 0 0 0 0 0 0 0 
0 0 0 0 0 0 0 0 0 
0 0 0 0 0 0 0 0 0 
0 0 0 0 0 0 0 0 0 
0 0 0 0 0 0 0 0 0 
0 0 0 0 0 0 0 0 0 
0 0 0 0 0 0 0 0 0 
0 0 0 0 0 0 0 0 0 
0 0 0 0 0 0 0 0 0 
0 0 0 0 0 0 0 0 0 
0 0 0 0 0 0 0 0 0 
0 0 0 0 0 0 0 0 0 
0 0 0 0 0 0 0 0 0 
0 0 0 0 0 0 0 0 0 
0 0 0 0 0 0 0 0 0 
0 0 0 0 0 0 0 0 0 
0 0 0 0 0 0 0 0 0 
0 0 0 0 0 0 0 0 0 
0 0 0 0 0 0 0 0 0 
0 0 0 0 0 0 0 0 0 
0 0 0 0 0 0 0 0 0 
0 0 0 0 0 0 0 0 0 
0 0 0 0 0 0 0 0 0 
0 0 0 0 0 0 0 0 0 
0 0 0 0 0 0 0 0 0 
0 0 0 0 0 0 0 0 0 
0 0 0 0 0 0 0 0 0 
0 0 0 0 0 0 0 0 0 
0 0 0 0 0 0 0 0 0 
0 0 0 0 0 0 0 0 0 
0 0 0 0 0 0 0 0 0 
0 0 0 0 0 0 0 0 0 
0 0 0 0 0 0 0 0 0 
0 0 0 0 0 0 0 0 0 
0 0 0 0 0 0 0 0 0 
0 0 0 0 0 0 0 0 0 
0 0 0 0 0 0 0 0 0 
0 0 0 0 0 0 0 0 0 
0 0 0 0 0 0 0 0 0 
0 0 0 0 0 0 0 0 0 
0 0 0 0 0 0 0 0 0 
0 0 0 0 0 0 0 0 0 
0 0 0 0 0 0 0 0 0 
0 0 0 0 0 0 0 0 0 
0 0 0 0 0 0 0 0 0 
0 0 0 0 0 0 0 0 0 
0 0 0 0 0 0 0 0 0 
0 0 0 0 0 0 0 0 0 
0 0 0 0 0 0 0 0 0 
0 0 0 0 0 0 0 0 0 
0 0 0 0 0 0 0 0 0 
0 0 0 0 0 0 0 0 0 
0 0 0 0 0 0 0 0 0 
0 0 0 0 0 0 0 0 0 
0 0 0 0 0 0 0 0 0 
0 0 0 0 0 0 0 0 0 
0 0 0 0 0 0 0 0 0 
0 0 0 0 0 0 0 0 0 
0 0 0 0 0 0 0 0 0 
0 0 0 0 0 0 0 0 0 
0 0 0 0 0 0 0 0 0 
0 0 0 0 0 0 0 0 0 
0 0 0 0 0 0 0 0 0 
0 0 0 0 0 0 0 0 0 
0 0 0 0 0 0 0 0 0 
0 0 0 0 0 0 0 0 0 
0 0 0 0 0 0 0 0 0 
0 0 0 0 0 0 0 0 0 
0 0 0 0 0 0 0 0 0 
0 0 0 0 0 0 0 0 0 
0 0 0 0 0 0 0 0 0 
0 0 0 0 0 0 0 0 0 
0 0 0 0 0 0 0 0 0 
0 0 0 0 0 0 0 0 0 
0 0 0 0 0 0 0 0 0 
0 0 0 0 0 0 0 0 0 
0 0 0 0 0 0 0 0 0 
0 0 0 0 0 0 0 0 0 
0 0 0 0 0 0 0 0 0 
0 0 0 0 0 0 0 0 0 
0 0 0 0 0 0 0 0 0 
0 0 0 0 0 0 0 0 0 
0 0 0 0 0 0 0 0 0 
0 0 0 0 0 0 0 0 0 
0 0 0 0 0 0 0 0 0 
0 0 0 0 0 0 0 0 0 
0 0 0 0 0 0 0 0 0 
0 0 0 0 0 0 0 0 0 
0 0 0 0 0 0 0 0 0 
0 0 0 
v 3 982 double
-0.340158 0.648394 0.376673 0.171058 -1.08262 0.487975 0.0590221 -1.59129 -0.442989 
-0.333288 -0.73525 0.633922 -0.228778 -1.40377 0.431227 0.201331 -1.3455 0.250568 
0.656186 -0.895119 -0.229466 0.46004 -1.92885 0.162888 -0.00387204 -1.01143 0.643573 
0.830936 -1.2643 0.235984 -0.161688 -1.73691 -0.321683 0.896406 -0.152428 0.354435 
-1.0248 0.225968 -0.245127 0.669589 0.161143 -0.995531 -0.411472 -1.16651 0.724792 
0.0401514 -0.122069 0.139486 0.483606 -1.15533 0.649738 0.502107 -1.17671 0.209882 
-0.113147 -0.361101 -1.71158 0.0701025 -1.55949 0.140838 -0.278126 -0.695575 0.798498 
-0.240838 -0.429606 0.0413781 -0.715967 -0.60361 0.459765 -0.659588 -0.278332 -1.67903 
0.255924 -0.0519217 0.748652 -0.120581 0.2839 0.148116 -0.0893566 -0.243918 0.824338 
-0.658569 -0.423212 0.0349184 -0.585468 -0.368273 -0.980353 -0.444682 -0.733988 -0.472046 
-0.581309 -0.332011 0.479331 -1.4822 -1.48338 0.134126 0.626643 -1.12008 -0.3186 
0.275158 -1.6206 -0.619983 0.0732696 -0.135741 0.806838 0.568002 -0.0123167 -0.981717 
0.375902 -1.14064 -0.0105528 -0.259482 -0.804734 0.501975 0.506672 -1.18325 0.693568 
-0.396157 -0.549272 -0.293719 -0.539405 -0.196683 0.354891 0.267335 -0.689205 -0.15998 
-0.225073 -0.505239 -0.391434 -0.878453 0.309434 -0.908743 -0.0307236 -0.220354 0.487916 
0.532855 0.121731 0.399824 0.636255 -0.3697 0.194495 -0.503818 -0.65839 -0.283343 
0.553031 -0.130579 -0.369585 0.195204 -0.718055 -1.2686 -0.177895 -0.308984 -0.452742 
-0.304916 0.319374 0.744226 0.153532 -0.245381 1.05829 0.285579 -0.302448 0.266875 
-0.0520108 -0.66153 -1.40115 0.516329 -0.0404739 -0.154548 0.32073 -0.240281 0.207452 
0.147975 -0.705811 -0.535268 -1.22808 0.447573 0.856485 0.717859 -0.0732015 -0.371248 
0.848537 -0.208622 -0.523889 0.548006 -0.330447 -0.207992 -1.10458 -0.328004 -1.01515 
-1.42321 0.780051 -1.20336 0.0811661 0.0740832 1.06181 -0.303026 -0.409112 -0.463116 
0.248786 0.61772 -0.293442 -0.283108 -0.160585 0.493284 -0.139206 -0.0441105 -0.116719 
-0.393401 -0.820994 -0.689132 -0.400402 0.422493 -0.320934 0.524045 0.851036 0.652432 
-0.18072 -0.322205 0.879862 0.496456 -0.848826 0.245984 -0.305826 0.281758 -0.899814 
0.176466 -1.20951 0.107043 -0.283031 -0.284132 -0.0931795 0.933449 0.0935359 0.445225 
0.375165 0.0208596 -0.298278 -0.932062 0.535319 0.225097 -0.780274 0.406261 -0.0401783 
-0.269382 0.343403 0.608566 -0.21832 0.0960992 0.418622 -0.0353897 -0.0953831 0.629359 
0.154878 -0.30682 0.423926 -0.454777 0.0291655 0.387264 0.818687 0.855603 0.531227 
-0.8313 0.251373 -0.552677 0.847389 -0.118863 0.188772 0.766504 0.425586 0.880793 
-0.0330094 -0.239687 0.260442 -0.0851262 0.633765 0.299972 -0.335776 -0.100223 0.224157 
0.489865 0.707767 -0.0979905 0.869554 0.598896 0.164281 -0.803006 -0.389543 0.156286 
-0.488461 0.496564 -0.0597462 0.0221382 -0.0981623 -0.178827 0.442996 -0.37282 -0.839292 
-0.600511 0.668934 0.0495014 -0.842089 -0.382081 0.0660985 -0.260354 0.699625 0.315767 
-0.459034 -0.422655 -0.306503 0.00860679 -0.307535 0.0160977 -0.191388 -0.21946 -0.107088 
0.32282 0.396919 0.0272591 -0.248181 -0.357077 0.302786 -0.118993 -0.790045 0.432414 
0.35331 0.37728 0.169154 -0.909695 0.461567 -0.336757 -1.31013 0.236811 -1.31318 
-0.803242 0.661578 0.216175 -0.527103 -0.241015 0.189919 0.391419 -0.0681721 -1.05265 
0.459511 0.00410581 -0.381207 0.539396 0.457712 0.611764 0.153545 0.00381187 -0.236046 
0.412904 -0.139633 -0.24096 0.199753 0.134302 0.134041 0.137027 0.302932 -0.313437 
-0.705571 -0.0604501 0.299572 0.251252 0.0276885 0.208061 0.904055 -0.286509 -0.110623 
-0.0542067 0.721153 0.193656 -0.369352 1.03581 -0.644795 -0.050739 0.0892028 0.0346238 
1.08694 0.8983 -0.07417 -0.316978 0.229052 0.106351 0.141389 0.472208 0.439344 
0.259303 0.936361 0.537468 0.277045 1.22716 -0.612674 -0.593321 0.390349 -0.106852 
0.411483 0.455169 0.105885 0.63439 0.293785 -0.99813 0.348177 1.0895 0.218129 
0.209316 0.55617 0.0646932 1.16151 0.262269 0.0891108 -1.01968 0.0725265 0.391428 
-0.428824 0.66816 0.193977 0.363914 0.992316 -0.0945164 0.0718795 0.808818 0.188912 
0.133096 0.421685 -0.134222 1.09807 0.0808552 -0.30165 0.137014 1.22215 0.670393 
-0.394395 0.950518 0.206329 -0.193342 0.546564 -0.444853 0.531358 -0.238282 0.247781 
1.16889 -0.0982848 0.936876 0.675064 0.524145 0.467009 -1.84214 0.321897 -0.550861 
0.371627 0.825639 -1.02065 -0.609975 1.26882 0.265693 1.14479 1.09505 -0.655381 
0.784285 0.459628 0.923542 0.39808 0.941509 0.212515 -0.565867 1.04309 -0.344731 
-0.273804 0.200684 0.477597 0.40413 0.636546 -0.192696 -0.209224 0.898602 -0.226215 
0.826218 0.300174 -0.642639 -0.182534 -0.117241 0.748607 -0.124505 1.49834 -0.467225 
1.14108 1.00199 0.634283 0.13766 0.212234 0.988318 -0.994388 1.78519 -0.70838 
0.465769 0.660103 -0.222753 -0.568486 0.133919 0.1314 0.729831 0.589669 0.131524 
0.139843 1.24609 -0.44696 0.571894 2.0259 0.322857 -0.016748 1.38855 -0.830534 
0.539969 1.41967 -0.0616645 -1.28432 -0.907713 -0.983238 0.501162 -0.170149 -0.915732 
-0.393064 -1.43422 0.344489 -0.66016 -1.17945 0.406335 -0.539297 -1.93125 0.328951 
1.36017 -0.971105 0.384579 -0.259347 -1.05247 -1.02093 0.410958 -1.86911 -0.893706 
0.0962099 -0.757682 -1.1015 -0.0550659 -0.994928 -1.30433 -0.444522 -0.996099 -0.246767 
0.109946 -1.87379 -0.79003 -0.2798 -1.07942 0.028482 -0.328951 -0.801813 -1.32515 
-0.149495 -1.25092 -0.937197 1.15544 -1.27278 -0.32105 -0.320629 -0.631232 -0.636844 
-0.329885 -1.79863 0.106693 0.789654 -1.48318 -0.266685 -1.10733 -0.747305 -0.562863 
-0.0522413 -1.31422 0.323181 -0.17124 -0.567188 -2.20991 -0.0814863 -0.591784 -0.953509 
-0.711022 -1.00554 -1.02059 0.831617 -0.382556 -0.443296 -0.283843 0.538712 -1.67375 
0.298339 -0.734128 -0.337345 -0.532609 -0.0362648 -0.339691 1.30759 0.144689 -0.885829 
1.23221 -0.501871 -0.728926 -0.814876 -0.459326 -1.31177 0.404489 -0.484771 -0.453025 
0.31956 -0.0492414 -0.985125 -0.537415 0.0545968 -1.36023 -0.598916 -0.513602 0.0494166 
-0.13155 -0.200813 -0.941362 0.0972261 -0.212259 -1.4543 -0.105765 0.00153627 -0.500066 
0.101727 -0.500865 -0.296527 0.215082 -1.33735 0.104234 0.176941 -0.438577 -0.169971 
-0.00403832 0.224844 0.875392 0.0798979 -0.593004 -0.321154 0.752635 -0.208778 -0.474111 
-0.407303 -0.169737 -0.4646 1.16317 -0.304309 0.734988 -0.776816 0.259441 -1.75213 
-0.780959 -0.845233 0.0959312 0.0690908 -0.609554 -0.749787 0.353431 -0.637442 -0.171843 
-0.0494763 -0.381788 -0.726837 0.518828 -0.367596 0.32994 0.648261 0.132301 -0.932149 
-0.0455747 -0.371763 -0.705934 -0.134395 -0.0917786 -1.02554 0.560957 -0.421987 -1.35096 
1.31516 -0.394235 -0.925943 1.11401 -0.327306 0.341928 -0.609442 -0.157146 -0.29529 
-0.13676 -0.341903 -0.395029 -0.199932 -0.282686 0.46803 -0.52762 -0.708539 0.0723316 
-0.217078 0.587694 0.447282 0.437287 -0.371588 0.397588 0.0637635 -0.873732 0.19109 
-0.0711729 -1.16187 0.236837 0.281758 -0.157811 -0.130274 -0.0245592 1.11725 -1.04342 
0.282817 -0.424964 1.04967 -1.3965 0.336347 -0.980986 -0.510613 0.0985039 -0.0641072 
-0.730703 0.386603 -1.25858 -0.348736 -0.40411 -0.300449 -0.672965 0.245042 0.769353 
-0.348807 -0.275603 -0.455168 0.370252 0.386992 -0.441787 0.0644206 -0.521342 -0.768859 
0.527222 -0.31428 0.221458 0.338027 -0.280934 0.0660123 0.273895 0.43643 -0.207403 
0.423708 -0.0391608 -0.786438 1.89862 0.236236 -1.00321 -0.721118 0.0176081 -1.4105 
0.380826 -0.789328 0.40177 0.235499 -0.115694 -0.624192 -0.26932 0.663608 0.382899 
-0.285204 0.146726 -0.989965 -0.165468 -0.346114 0.0554435 0.576107 -0.123675 -0.251781 
0.518308 0.144245 0.307953 -0.699507 -0.825085 -0.0649721 -0.375272 -0.399578 0.556041 
0.637988 -0.330277 0.166688 0.66405 -0.935381 -1.20801 1.95229 -0.418412 0.482029 