# vtk DataFile Version 4.0
Generated by LIGGGHTS
ASCII
DATASET POLYDATA
POINTS 1355 float
-0.897648 -0.460461 -0.460322 -0.76937 -0.460198 -0.460454 -0.689795 -0.460172 -0.460482 
-0.609906 -0.4607 -0.46057 -0.529422 -0.460549 -0.460552 -0.44982 -0.460124 -0.460517 
-0.370172 -0.460077 -0.460817 -0.267137 -0.460307 -0.460652 -0.164518 -0.460752 -0.460626 
-0.0843013 -0.459104 -0.460574 -0.00504501 -0.460271 -0.454532 0.0747323 -0.459728 -0.46031 
0.155027 -0.459914 -0.460575 0.234923 -0.460211 -0.460464 0.31437 -0.454061 -0.460228 
0.393817 -0.459915 -0.460383 0.473454 -0.460355 -0.460202 0.583802 -0.460335 -0.460605 
0.663388 -0.460361 -0.460424 0.743096 -0.460367 -0.460779 0.822519 -0.460357 -0.460721 
0.903229 -0.460264 -0.460279 -0.960571 -0.411908 -0.46133 -0.886927 -0.381495 -0.46063 
-0.730355 -0.389266 -0.460618 -0.64926 -0.391603 -0.460362 -0.569709 -0.39245 -0.460181 
-0.49 -0.391056 -0.460474 -0.409936 -0.390847 -0.460678 -0.329248 -0.389971 -0.460133 
-0.206597 -0.393639 -0.460144 -0.127063 -0.390653 -0.461588 0.0339123 -0.391227 -0.460504 
0.115824 -0.388765 -0.460778 0.195751 -0.39093 -0.460566 0.274929 -0.381169 -0.460191 
0.354745 -0.38505 -0.46052 0.435441 -0.389428 -0.4604 0.528367 -0.403145 -0.460437 
0.623168 -0.391145 -0.460731 0.702956 -0.391556 -0.46063 0.782815 -0.391034 -0.460204 
0.862528 -0.391632 -0.46033 0.960261 -0.404481 -0.460663 -0.95345 -0.33301 -0.460186 
-0.879845 -0.30215 -0.460477 -0.805709 -0.362672 -0.460174 -0.681227 -0.319125 -0.461593 
-0.567876 -0.313872 -0.460678 -0.488203 -0.311217 -0.460463 -0.405572 -0.310108 -0.460096 
-0.264661 -0.340245 -0.460958 -0.189807 -0.311404 -0.460557 -0.109499 -0.313199 -0.460386 
-0.0384848 -0.357894 -0.460065 0.0349471 -0.311555 -0.460181 0.159103 -0.320081 -0.460672 
0.238167 -0.309523 -0.460365 0.318231 -0.313892 -0.460157 0.398028 -0.318052 -0.460482 
0.488954 -0.314755 -0.460444 0.566545 -0.33347 -0.46082 0.661843 -0.321607 -0.460132 
0.741586 -0.3227 -0.461031 0.881863 -0.314682 -0.460997 0.960465 -0.32496 -0.460655 
-0.960794 -0.254249 -0.46068 -0.802607 -0.282963 -0.460626 -0.729757 -0.250368 -0.460117 
-0.626816 -0.260637 -0.460119 -0.534621 -0.242314 -0.460401 -0.455228 -0.236511 -0.460763 
-0.327638 -0.292214 -0.460573 -0.144597 -0.24148 -0.460642 -0.03742 -0.277371 -0.460591 
0.100977 -0.265362 -0.460521 0.189966 -0.24605 -0.460361 0.310753 -0.234299 -0.460301 
0.467751 -0.234971 -0.460718 0.544213 -0.256943 -0.460424 0.621486 -0.2553 -0.441504 
0.698783 -0.250884 -0.460447 0.778298 -0.252363 -0.46033 0.881577 -0.235044 -0.460288 
0.960355 -0.245478 -0.460293 -0.960724 -0.174655 -0.460647 -0.891891 -0.214834 -0.460177 
-0.813387 -0.203914 -0.460704 -0.671944 -0.195314 -0.460369 -0.59261 -0.187925 -0.460524 
-0.501348 -0.170091 -0.460499 -0.37598 -0.228838 -0.460489 -0.296885 -0.218564 -0.460504 
-0.217739 -0.210114 -0.460719 -0.0509927 -0.198625 -0.460171 0.0282994 -0.232095 -0.460416 
0.0907151 -0.179325 -0.461379 0.244882 -0.187588 -0.460309 0.383564 -0.198896 -0.460739 
0.572429 -0.180108 -0.461033 0.652066 -0.184028 -0.460445 0.731494 -0.176033 -0.460431 
0.819714 -0.185149 -0.460463 -0.892538 -0.134675 -0.460653 -0.813416 -0.124048 -0.460133 
-0.744843 -0.164078 -0.460644 -0.638526 -0.12293 -0.460404 -0.559377 -0.115528 -0.460402 
-0.422333 -0.163737 -0.460269 -0.343526 -0.15442 -0.461082 -0.264262 -0.145532 -0.460489 
-0.15327 -0.162185 -0.460218 -0.0825457 -0.125129 -0.460225 0.0153149 -0.153812 -0.461456 
0.168838 -0.16416 -0.460575 0.313497 -0.147304 -0.460584 0.424255 -0.117503 -0.46096 
0.498311 -0.146981 -0.460605 0.615298 -0.112994 -0.460416 0.807685 -0.106798 -0.460893 
0.885561 -0.139923 -0.460615 0.960497 -0.166069 -0.460577 -0.959963 -0.0746867 -0.460517 
-0.862567 -0.061631 -0.460796 -0.780231 -0.0510844 -0.460552 -0.709088 -0.0866954 -0.460296 
-0.582547 -0.0393822 -0.460488 -0.496404 -0.0670601 -0.460344 -0.418157 -0.0819544 -0.460948 
-0.338531 -0.0751856 -0.460359 -0.200451 -0.0979218 -0.460656 -0.131531 -0.0587561 -0.460739 
-0.0109554 -0.0728353 -0.460065 0.0683138 -0.0431058 -0.460574 0.128031 -0.0958928 -0.46028 
0.206167 -0.0695809 -0.460647 0.285767 -0.0717552 -0.460735 0.364929 -0.0647232 -0.460131 
0.439422 -0.0357965 -0.460355 0.542444 -0.0808578 -0.460713 0.662467 -0.0409746 -0.460826 
0.734144 -0.0762907 -0.460372 0.960184 -0.0862027 -0.460992 -0.9191 -0.00599809 -0.460771 
-0.830424 0.0102952 -0.460106 -0.752025 0.0244427 -0.460484 -0.67914 -0.0126193 -0.460913 
-0.463417 0.00548631 -0.460538 -0.382187 -0.00808344 -0.460184 -0.300207 -0.00544893 -0.460715 
-0.22039 -0.00494959 -0.460431 -0.0727367 -0.00572385 -0.460261 0.00578883 0.0056592 -0.460635 
0.14369 -0.0175328 -0.460477 0.218616 0.00914627 -0.460598 0.297995 0.00722265 -0.460562 
0.377246 0.0138973 -0.460508 0.511387 -0.0125564 -0.434846 0.586934 -0.0148828 -0.460614 
0.691999 0.0334072 -0.460081 0.763296 -0.00203096 -0.46016 0.836829 -0.0330187 -0.460507 
0.914903 -0.0207863 -0.461329 -0.960953 0.0613523 -0.460592 -0.882477 0.0697908 -0.460238 
-0.804383 0.084858 -0.461023 -0.72601 0.0995575 -0.460652 -0.641384 0.082948 -0.460331 
-0.552673 0.0344611 -0.461058 -0.4883 0.081387 -0.458135 -0.414557 0.0622891 -0.434362 
-0.339932 0.0635177 -0.461069 -0.260295 0.064067 -0.460133 -0.140774 0.0363305 -0.460342 
-0.0651853 0.0734048 -0.460683 0.0136831 0.0850941 -0.46078 0.0791797 0.0363789 -0.460757 
0.154955 0.0614121 -0.460201 0.269725 0.0818978 -0.460573 0.396627 0.0907442 -0.4602 
0.459418 0.042167 -0.460434 0.537162 0.0586431 -0.460145 0.616675 0.0590462 -0.460504 
0.755773 0.0815817 -0.460354 0.827141 0.0457603 -0.460436 0.894358 0.0886492 -0.460317 
0.960536 0.0443458 -0.460364 -0.960505 0.14084 -0.461046 -0.856811 0.144924 -0.4604 
-0.781387 0.156496 -0.437064 -0.62973 0.161667 -0.460668 -0.566918 0.112756 -0.460195 
-0.502521 0.159757 -0.461211 -0.383397 0.130484 -0.460836 -0.3027 0.133934 -0.460351 
-0.189523 0.100841 -0.46077 -0.116813 0.13338 -0.461054 -0.0351141 0.148761 -0.460409 
0.0925884 0.119627 -0.460106 0.202569 0.125101 -0.460501 0.329961 0.134221 -0.460915 
0.483043 0.124158 -0.460751 0.566997 0.13262 -0.460836 0.646976 0.132697 -0.460183 
0.752112 0.16123 -0.461136 0.823058 0.124956 -0.460506 0.960629 0.133278 -0.460381 
-0.960335 0.220116 -0.460507 -0.82543 0.218198 -0.460475 -0.709235 0.177378 -0.461267 
-0.429979 0.195467 -0.460195 -0.346547 0.200535 -0.460247 -0.224839 0.195556 -0.460506 
-0.135121 0.210689 -0.460569 -0.0587146 0.232957 -0.46069 0.0525819 0.189635 -0.460238 
0.145237 0.181453 -0.460311 0.262827 0.176513 -0.460834 0.335873 0.213421 -0.460732 
0.413139 0.168097 -0.460324 0.517873 0.195867 -0.460773 0.60489 0.202891 -0.460779 
0.684605 0.202966 -0.460262 0.818941 0.204455 -0.460768 0.889676 0.168201 -0.460475 
0.960244 0.217851 -0.460265 -0.892111 0.260724 -0.460252 -0.821649 0.298009 -0.460717 
-0.750609 0.245514 -0.46059 -0.607266 0.250099 -0.460755 -0.521429 0.2486 -0.460839 
-0.391888 0.265682 -0.460616 -0.285544 0.250982 -0.460536 -0.183474 0.273371 -0.461424 
0.0142131 0.264788 -0.460273 0.108613 0.252575 -0.460683 0.188531 0.253224 -0.460162 
0.268368 0.255589 -0.460273 0.378972 0.280403 -0.460382 0.448624 0.239082 -0.460564 
0.557113 0.266776 -0.461165 0.645224 0.272161 -0.460233 0.752613 0.247906 -0.460827 
0.886158 0.24707 -0.460444 -0.960652 0.300653 -0.460195 -0.891597 0.340195 -0.46046 
-0.739521 0.324169 -0.460549 -0.660931 0.309315 -0.460199 -0.570453 0.320827 -0.460265 
-0.45814 0.351269 -0.461298 -0.332281 0.318792 -0.460451 -0.247418 0.320274 -0.460271 
-0.131043 0.347839 -0.460639 -0.0500821 0.312164 -0.460557 0.0695268 0.322113 -0.461024 
0.149087 0.322824 -0.460589 0.228598 0.323954 -0.460376 0.311111 0.322744 -0.460564 
0.419725 0.349106 -0.460621 0.488223 0.308019 -0.46063 0.597255 0.335821 -0.460326 
0.720929 0.320726 -0.46052 0.801119 0.319355 -0.460754 0.880358 0.32541 -0.460167 
0.957734 0.305729 -0.460858 -0.960363 0.380439 -0.460432 -0.89105 0.420031 -0.461159 
-0.77297 0.395978 -0.460402 -0.687486 0.384765 -0.460331 -0.607983 0.391251 -0.460793 
-0.528236 0.389802 -0.460312 -0.386645 0.394894 -0.460556 -0.290472 0.386906 -0.460713 
-0.201474 0.384868 -0.460713 -0.0623503 0.390955 -0.460569 0.0184837 0.390719 -0.460235 
0.108423 0.391505 -0.460406 0.188409 0.392485 -0.460598 0.270406 0.391512 -0.460722 
0.351183 0.391639 -0.460354 0.460694 0.41851 -0.460346 0.528868 0.376976 -0.460228 
0.676387 0.389372 -0.460706 0.756134 0.392019 -0.460596 0.838082 0.392725 -0.460115 
0.921721 0.392328 -0.460874 -0.960223 0.46016 -0.460367 -0.820414 0.460105 -0.460901 
-0.727136 0.460502 -0.460359 -0.647799 0.460254 -0.460427 -0.568257 0.460229 -0.460472 
-0.488885 0.460337 -0.460942 -0.340464 0.460056 -0.460118 -0.260497 0.460399 -0.460285 
-0.180711 0.460798 -0.460675 -0.10137 0.460311 -0.460862 -0.0214052 0.460014 -0.460127 
0.067511 0.460106 -0.460682 0.147504 0.460638 -0.460566 0.230325 0.460336 -0.460514 
0.310565 0.460303 -0.460404 0.392459 0.460076 -0.460171 0.528854 0.459947 -0.460952 
0.634354 0.459848 -0.460594 0.714024 0.459993 -0.460457 0.796325 0.460562 -0.460094 
0.880458 0.460387 -0.460377 0.960425 0.460812 -0.460273 -0.960278 -0.460721 -0.399423 
-0.884911 -0.460209 -0.373927 -0.729418 -0.460289 -0.391295 -0.649572 -0.460133 -0.391715 
-0.569494 -0.460041 -0.391735 -0.48967 -0.460157 -0.391509 -0.409693 -0.460114 -0.391689 
-0.319474 -0.460434 -0.400069 -0.215876 -0.459093 -0.399685 -0.124326 -0.460902 -0.392088 
0.0380219 -0.460504 -0.374468 0.115503 -0.460364 -0.391759 0.19507 -0.460073 -0.39157 
0.274677 -0.460303 -0.391358 0.354196 -0.460305 -0.391253 0.433516 -0.460699 -0.391205 
0.529338 -0.460672 -0.402999 0.623779 -0.460148 -0.391598 0.704286 -0.459833 -0.391685 
0.782171 -0.439987 -0.394515 0.861711 -0.459284 -0.392095 0.960155 -0.460417 -0.404126 
-0.960706 -0.381575 -0.387861 -0.833441 -0.42905 -0.425799 -0.771435 -0.392468 -0.392438 
-0.690085 -0.390962 -0.391996 -0.609645 -0.395137 -0.36851 -0.530173 -0.389873 -0.390854 
[...]
POINT_DATA 1355
FIELD FieldData 7
id 1 1355 int
366 408 584 322 662 206 563 371 419 
523 551 145 607 585 151 530 365 186 
620 156 70 664 692 632 759 714 370 
120 208 723 59 512 435 712 211 457 
20 256 338 470 195 678 320 643 534 
171 196 105 493 581 542 514 245 234 
347 708 214 280 305 529 396 291 444 
367 476 155 724 314 136 721 375 250 
442 95 498 54 200 431 75 623 593 
109 184 446 647 159 267 289 373 275 
324 62 533 376 589 76 722 543 576 
202 572 683 676 445 83 641 185 331 
96 99 458 575 40 57 239 31 281 
298 126 300 48 680 521 531 428 254 
592 758 361 412 14 689 312 252 88 
153 397 483 170 704 321 140 726 143 
142 351 651 528 433 92 690 437 359 
569 304 439 339 540 639 461 177 700 
378 459 310 258 51 182 6 549 369 
323 121 382 507 423 154 495 224 612 
720 590 539 166 460 97 240 537 127 
580 85 544 293 697 634 129 104 602 
742 161 32 384 25 671 74 278 383 
71 266 19 22 627 717 162 218 348 
247 167 125 191 199 294 586 640 675 
441 596 149 475 463 387 269 130 8 
748 420 613 663 16 578 402 682 421 
715 637 299 698 747 261 622 355 571 
411 42 416 227 391 527 557 346 67 
274 319 242 649 9 73 766 409 535 
89 4 260 318 650 388 311 94 618 
39 582 53 673 729 3 69 496 363 
201 188 599 670 228 519 667 472 669 
660 646 654 43 230 226 306 427 316 
614 764 329 545 179 389 12 453 440 
197 452 90 386 686 38 587 285 725 
743 181 518 225 761 513 5 559 72 
336 66 116 78 628 131 679 959 103 
273 1154 276 516 47 233 325 108 223 
666 157 455 205 175 287 221 56 751 
736 426 744 642 611 302 413 473 741 
684 118 653 18 770 15 82 272 100 
87 343 532 490 219 601 290 465 110 
438 372 767 631 255 879 552 307 699 
636 187 550 80 313 645 279 556 511 
114 757 144 81 668 58 615 558 644 
341 189 407 36 462 597 357 394 565 
169 554 29 334 282 570 424 286 399 
24 616 447 364 183 478 566 492 718 
248 621 33 422 11 502 541 395 46 
106 345 192 568 86 60 236 44 112 
497 429 479 134 27 45 694 326 358 
352 746 21 629 522 415 711 137 271 
2 524 111 102 381 818 216 733 147 
194 148 827 172 101 775 443 28 738 
710 146 474 180 482 374 436 638 450 
253 425 93 91 215 505 403 520 277 
591 84 133 626 288 350 762 193 546 
41 970 333 231 330 928 574 308 328 
232 703 432 296 393 284 687 49 681 
400 648 190 128 392 610 135 209 760 
35 665 122 503 750 488 259 480 469 
508 26 113 608 123 222 709 340 456 
251 417 17 292 138 430 246 98 448 
283 404 178 244 132 63 583 464 891 
600 1165 418 547 763 499 553 229 494 
385 617 672 467 119 755 481 727 526 
390 210 728 249 217 573 871 769 354 
158 510 7 604 739 466 793 890 500 
658 337 986 1166 846 173 567 1184 468 
781 927 735 1066 1152 925 685 933 814 
921 414 784 265 749 1288 943 504 787 
268 935 831 910 362 619 903 1173 688 
652 867 1167 410 768 973 951 963 754 
1061 1170 360 828 235 696 779 1115 875 
1147 207 241 702 1091 907 454 812 1255 
974 1162 848 914 829 379 295 707 937 
176 982 838 870 932 509 124 691 792 
919 603 335 317 406 944 972 732 165 
952 491 765 349 904 894 901 655 79 
851 471 734 786 981 795 882 356 939 
855 141 489 577 30 501 204 674 536 
886 486 918 861 824 895 487 1284 731 
800 309 50 605 975 1052 908 630 1075 
434 677 892 52 801 905 947 1078 301 
776 962 805 990 911 332 164 1182 484 
815 401 548 327 198 926 737 977 657 
794 954 656 888 633 730 160 752 968 
790 150 34 560 783 243 695 477 538 
220 887 922 835 10 555 380 803 876 
515 791 840 955 65 77 342 719 107 
804 23 965 203 872 929 994 873 598 
884 822 713 774 237 659 1 344 13 
61 960 706 398 859 896 869 716 55 
1041 1156 971 856 115 506 909 813 257 
821 564 139 263 850 174 609 912 773 
917 37 1118 606 297 830 368 881 625 
353 1134 771 772 913 562 405 845 880 
451 949 885 117 525 1001 303 262 785 
213 68 635 64 661 588 449 756 152 
753 701 594 984 923 315 579 377 485 
961 212 693 878 938 1243 561 270 906 
1178 1079 1149 1312 866 823 1334 1143 988 
1076 956 825 1006 1330 163 1123 1093 1231 
930 1290 1051 958 809 1305 1211 1193 1279 
1110 1003 1185 849 1049 1133 1058 1159 1035 
826 844 1116 1339 1197 1112 1073 832 1113 
847 1217 1097 1316 1032 1267 1062 1347 1000 
1344 1145 868 999 808 1125 995 1266 1160 
1028 1221 1071 1086 865 1186 993 1354 1187 
1139 1285 1099 1022 1036 1015 1106 1350 1295 
1054 1144 950 1315 1056 1008 1322 1021 1189 
1129 857 1246 902 985 1014 1283 936 964 
1103 1188 806 780 789 1213 1130 1013 1172 
1158 1020 1095 1050 1111 1138 916 992 1174 
1201 1105 820 782 1089 1065 1087 969 1023 
1135 1077 1012 834 1179 978 924 1183 1119 
1082 1083 797 1026 807 980 1018 842 953 
1319 967 1016 839 1067 1258 1176 1236 1010 
1114 1048 931 1027 799 1150 1220 1216 836 
1037 810 893 1088 1273 1081 1311 1171 1033 
1046 1265 987 1100 1253 1017 1203 1009 1109 
862 819 1122 1272 843 1127 837 934 899 
1080 852 915 948 1096 1069 1057 983 860 
1128 1104 997 874 1092 841 864 798 811 
1085 1148 1055 1126 1309 595 1280 1101 998 
1180 1248 1029 1025 1163 889 1137 1177 777 
1053 796 1063 1011 1042 1229 1230 877 1256 
976 1131 853 1060 858 989 1074 966 1281 
940 1045 1181 1124 1019 1068 1232 778 900 
898 1157 854 1102 996 942 1169 168 945 
1287 1070 1136 1024 1117 1254 740 1059 1307 
1161 1098 979 1040 1208 1313 1142 817 863 
1064 1262 957 883 238 517 816 897 788 
624 1252 1250 1004 1121 1141 1233 1140 941 
1132 1190 1299 1303 1151 1238 745 1327 1302 
1226 1247 1306 1275 1335 1276 1249 1251 1291 
1107 1210 1034 1215 1199 1031 802 1224 1323 
1297 1321 1329 1341 1346 1005 1202 1237 1228 
1047 1194 1209 1352 1325 1263 1292 1192 833 
1348 1205 1317 1270 1331 1219 1342 1304 1242 
1235 1223 1343 1039 1108 1214 1227 1084 1326 
1296 1301 1294 1164 1308 1044 1333 1274 1349 
1286 1259 1234 1260 1345 1218 1153 1282 1198 
1269 1278 1241 946 1293 1268 1204 1289 1271 
1207 1324 1007 1043 1240 1072 1196 1175 1261 
1314 1338 1094 1300 1191 1245 1168 1222 1155 
1038 1320 1328 1351 1298 991 1200 1195 1310 
1355 1090 1277 1244 1002 1332 1212 1257 920 
264 1353 1146 705 1264 1225 1336 1318 1239 
1120 1337 1206 1030 1340 
type 1 1355 int
1 1 1 1 1 1 1 1 1 
1 1 1 1 1 1 1 1 1 
1 1 1 1 1 1 1 1 1 
1 1 1 1 1 1 1 1 1 
1 1 1 1 1 1 1 1 1 
1 1 1 1 1 1 1 1 1 
1 1 1 1 1 1 1 1 1 
1 1 1 1 1 1 1 1 1 
1 1 1 1 1 1 1 1 1 
1 1 1 1 1 1 1 1 1 
1 1 1 1 1 1 1 1 1 
1 1 1 1 1 1 1 1 1 
1 1 1 1 1 1 1 1 1 
1 1 1 1 1 1 1 1 1 
1 1 1 1 1 1 1 1 1 
1 1 1 1 1 1 1 1 1 
1 1 1 1 1 1 1 1 1 
1 1 1 1 1 1 1 1 1 
1 1 1 1 1 1 1 1 1 
1 1 1 1 1 1 1 1 1 
1 1 1 1 1 1 1 1 1 
1 1 1 1 1 1 1 1 1 
1 1 1 1 1 1 1 1 1 
1 1 1 1 1 1 1 1 1 
1 1 1 1 1 1 1 1 1 
1 1 1 1 1 1 1 1 1 
1 1 1 1 1 1 1 1 1 
1 1 1 1 1 1 1 1 1 
1 1 1 1 1 1 1 1 1 
1 1 1 1 1 1 1 1 1 
1 1 1 1 1 1 1 1 1 
1 1 1 1 1 1 1 1 1 
1 1 1 1 1 1 1 1 1 
1 1 1 1 1 1 1 1 1 
1 1 1 1 1 1 1 1 1 
1 1 1 1 1 1 1 1 1 
1 1 1 1 1 1 1 1 1 
1 1 1 1 1 1 1 1 1 
1 1 1 1 1 1 1 1 1 
1 1 1 1 1 1 1 1 1 
1 1 1 1 1 1 1 1 1 
1 1 1 1 1 1 1 1 1 
1 1 1 1 1 1 1 1 1 
1 1 1 1 1 1 1 1 1 
1 1 1 1 1 1 1 1 1 
1 1 1 1 1 1 1 1 1 
1 1 1 1 1 1 1 1 1 
1 1 1 1 1 1 1 1 1 
1 1 1 1 1 1 1 1 1 
1 1 1 1 1 1 1 1 1 
1 1 1 1 1 1 1 1 1 
1 1 1 1 1 1 1 1 1 
1 1 1 1 1 1 1 1 1 
1 1 1 1 1 1 1 1 1 
1 1 1 1 1 1 1 1 1 
1 1 1 1 1 1 1 1 1 
1 1 1 1 1 1 1 1 1 
1 1 1 1 1 1 1 1 1 
1 1 1 1 1 1 1 1 1 
1 1 1 1 1 1 1 1 1 
1 1 1 1 1 1 1 1 1 
1 1 1 1 1 1 1 1 1 
1 1 1 1 1 1 1 1 1 
1 1 1 1 1 1 1 1 1 
1 1 1 1 1 1 1 1 1 
1 1 1 1 1 1 1 1 1 
1 1 1 1 1 1 1 1 1 
1 1 1 1 1 1 1 1 1 
1 1 1 1 1 1 1 1 1 
1 1 1 1 1 1 1 1 1 
1 1 1 1 1 1 1 1 1 
1 1 1 1 1 1 1 1 1 
1 1 1 1 1 1 1 1 1 
1 1 1 1 1 1 1 1 1 
1 1 1 1 1 1 1 1 1 
1 1 1 1 1 1 1 1 1 
1 1 1 1 1 1 1 1 1 
1 1 1 1 1 1 1 1 1 
1 1 1 1 1 1 1 1 1 
1 1 1 1 1 1 1 1 1 
1 1 1 1 1 1 1 1 1 
1 1 1 1 1 1 1 1 1 
1 1 1 1 1 1 1 1 1 
1 1 1 1 1 1 1 1 1 
1 1 1 1 1 1 1 1 1 
1 1 1 1 1 1 1 1 1 
1 1 1 1 1 1 1 1 1 
1 1 1 1 1 1 1 1 1 
1 1 1 1 1 1 1 1 1 
1 1 1 1 1 1 1 1 1 
1 1 1 1 1 1 1 1 1 
1 1 1 1 1 1 1 1 1 
1 1 1 1 1 1 1 1 1 
1 1 1 1 1 1 1 1 1 
1 1 1 1 1 1 1 1 1 
1 1 1 1 1 1 1 1 1 
1 1 1 1 1 1 1 1 1 
1 1 1 1 1 1 1 1 1 
1 1 1 1 1 1 1 1 1 
1 1 1 1 1 1 1 1 1 
1 1 1 1 1 1 1 1 1 
1 1 1 1 1 1 1 1 1 
1 1 1 1 1 1 1 1 1 
1 1 1 1 1 1 1 1 1 
1 1 1 1 1 1 1 1 1 
1 1 1 1 1 1 1 1 1 
1 1 1 1 1 1 1 1 1 
1 1 1 1 1 1 1 1 1 
1 1 1 1 1 1 1 1 1 
1 1 1 1 1 1 1 1 1 
1 1 1 1 1 1 1 1 1 
1 1 1 1 1 1 1 1 1 
1 1 1 1 1 1 1 1 1 
1 1 1 1 1 1 1 1 1 
1 1 1 1 1 1 1 1 1 
1 1 1 1 1 1 1 1 1 
1 1 1 1 1 1 1 1 1 
1 1 1 1 1 1 1 1 1 
1 1 1 1 1 1 1 1 1 
1 1 1 1 1 1 1 1 1 
1 1 1 1 1 1 1 1 1 
1 1 1 1 1 1 1 1 1 
1 1 1 1 1 1 1 1 1 
1 1 1 1 1 1 1 1 1 
1 1 1 1 1 1 1 1 1 
1 1 1 1 1 1 1 1 1 
1 1 1 1 1 1 1 1 1 
1 1 1 1 1 1 1 1 1 
1 1 1 1 1 1 1 1 1 
1 1 1 1 1 1 1 1 1 
1 1 1 1 1 1 1 1 1 
1 1 1 1 1 1 1 1 1 
1 1 1 1 1 1 1 1 1 
1 1 1 1 1 1 1 1 1 
1 1 1 1 1 1 1 1 1 
1 1 1 1 1 1 1 1 1 
1 1 1 1 1 1 1 1 1 
1 1 1 1 1 1 1 1 1 
1 1 1 1 1 1 1 1 1 
1 1 1 1 1 1 1 1 1 
1 1 1 1 1 1 1 1 1 
1 1 1 1 1 1 1 1 1 
1 1 1 1 1 1 1 1 1 
1 1 1 1 1 1 1 1 1 
1 1 1 1 1 1 1 1 1 
1 1 1 1 1 1 1 1 1 
1 1 1 1 1 1 1 1 1 
1 1 1 1 1 1 1 1 1 
1 1 1 1 1 1 1 1 1 
1 1 1 1 1 1 1 1 1 
1 1 1 1 1 
i 3 1355 int
0 0 0 0 0 0 0 0 0 
0 0 0 0 0 0 0 0 0 
0 0 0 0 0 0 0 0 0 
0 0 0 0 0 0 0 0 0 
0 0 0 0 0 0 0 0 0 
0 0 0 0 0 0 0 0 0 
0 0 0 0 0 0 0 0 0 
0 0 0 0 0 0 0 0 0 
0 0 0 0 0 0 0 0 0 
0 0 0 0 0 0 0 0 0 
0 0 0 0 0 0 0 0 0 
0 0 0 0 0 0 0 0 0 
0 0 0 0 0 0 0 0 0 
0 0 0 0 0 0 0 0 0 
0 0 0 0 0 0 0 0 0 
0 0 0 0 0 0 0 0 0 
0 0 0 0 0 0 0 0 0 
0 0 0 0 0 0 0 0 0 
0 0 0 0 0 0 0 0 0 
0 0 0 0 0 0 0 0 0 
0 0 0 0 0 0 0 0 0 
0 0 0 0 0 0 0 0 0 
0 0 0 0 0 0 0 0 0 
0 0 0 0 0 0 0 0 0 
0 0 0 0 0 0 0 0 0 
0 0 0 0 0 0 0 0 0 
0 0 0 0 0 0 0 0 0 
0 0 0 0 0 0 0 0 0 
0 0 0 0 0 0 0 0 0 
0 0 0 0 0 0 0 0 0 
0 0 0 0 0 0 0 0 0 
0 0 0 0 0 0 0 0 0 
0 0 0 0 0 0 0 0 0 
0 0 0 0 0 0 0 0 0 
0 0 0 0 0 0 0 0 0 
0 0 0 0 0 0 0 0 0 
0 0 0 0 0 0 0 0 0 
0 0 0 0 0 0 0 0 0 
0 0 0 0 0 0 0 0 0 
0 0 0 0 0 0 0 0 0 
0 0 0 0 0 0 0 0 0 
0 0 0 0 0 0 0 0 0 
0 0 0 0 0 0 0 0 0 
0 0 0 0 0 0 0 0 0 
0 0 0 0 0 0 0 0 0 
0 0 0 0 0 0 0 0 0 
0 0 0 0 0 0 0 0 0 
0 0 0 0 0 0 0 0 0 
0 0 0 0 0 0 0 0 0 
0 0 0 0 0 0 0 0 0 
0 0 0 0 0 0 0 0 0 
0 0 0 0 0 0 0 0 0 
0 0 0 0 0 0 0 0 0 
0 0 0 0 0 0 0 0 0 
0 0 0 0 0 0 0 0 0 
0 0 0 0 0 0 0 0 0 
0 0 0 0 0 0 0 0 0 
0 0 0 0 0 0 0 0 0 
0 0 0 0 0 0 0 0 0 
0 0 0 0 0 0 0 0 0 
0 0 0 0 0 0 0 0 0 
0 0 0 0 0 0 0 0 0 
0 0 0 0 0 0 0 0 0 
0 0 0 0 0 0 0 0 0 
0 0 0 0 0 0 0 0 0 
0 0 0 0 0 0 0 0 0 
0 0 0 0 0 0 0 0 0 
0 0 0 0 0 0 0 0 0 
0 0 0 0 0 0 0 0 0 
0 0 0 0 0 0 0 0 0 
0 0 0 0 0 0 0 0 0 
0 0 0 0 0 0 0 0 0 
0 0 0 0 0 0 0 0 0 
0 0 0 0 0 0 0 0 0 
0 0 0 0 0 0 0 0 0 
0 0 0 0 0 0 0 0 0 
0 0 0 0 0 0 0 0 0 
0 0 0 0 0 0 0 0 0 
0 0 0 0 0 0 0 0 0 
0 0 0 0 0 0 0 0 0 
0 0 0 0 0 0 0 0 0 
0 0 0 0 0 0 0 0 0 
0 0 0 0 0 0 0 0 0 
0 0 0 0 0 0 0 0 0 
0 0 0 0 0 0 0 0 0 
0 0 0 0 0 0 0 0 0 
0 0 0 0 0 0 0 0 0 
0 0 0 0 0 0 0 0 0 
0 0 0 0 0 0 0 0 0 
0 0 0 0 0 0 0 0 0 
0 0 0 0 0 0 0 0 0 
0 0 0 0 0 0 0 0 0 
0 0 0 0 0 0 0 0 0 
0 0 0 0 0 0 0 0 0 
0 0 0 0 0 0 0 0 0 
0 0 0 0 0 0 0 0 0 
0 0 0 0 0 0 0 0 0 
0 0 0 0 0 0 0 0 0 
0 0 0 0 0 0 0 0 0 
0 0 0 0 0 0 0 0 0 
0 0 0 0 0 0 0 0 0 
0 0 0 0 0 0 0 0 0 
0 0 0 0 0 0 0 0 0 
0 0 0 0 0 0 0 0 0 
0 0 0 0 0 0 0 0 0 
0 0 0 0 0 0 0 0 0 
0 0 0 0 0 0 0 0 0 
0 0 0 0 0 0 0 0 0 
0 0 0 0 0 0 0 0 0 
0 0 0 0 0 0 0 0 0 
0 0 0 0 0 0 0 0 0 
0 0 0 0 0 0 0 0 0 
0 0 0 0 0 0 0 0 0 
0 0 0 0 0 0 0 0 0 
0 0 0 0 0 0 0 0 0 
0 0 0 0 0 0 0 0 0 
0 0 0 0 0 0 0 0 0 
0 0 0 0 0 0 0 0 0 
0 0 0 0 0 0 0 0 0 
0 0 0 0 0 0 0 0 0 
0 0 0 0 0 0 0 0 0 
0 0 0 0 0 0 0 0 0 
0 0 0 0 0 0 0 0 0 
0 0 0 0 0 0 0 0 0 
0 0 0 0 0 0 0 0 0 
0 0 0 0 0 0 0 0 0 
0 0 0 0 0 0 0 0 0 
0 0 0 0 0 0 0 0 0 
0 0 0 0 0 0 0 0 0 
0 0 0 0 0 0 0 0 0 
0 0 0 0 0 0 0 0 0 
0 0 0 0 0 0 0 0 0 
0 0 0 0 0 0 0 0 0 
0 0 0 0 0 0 0 0 0 
0 0 0 0 0 0 0 0 0 
0 0 0 0 0 0 0 0 0 
0 0 0 0 0 0 0 0 0 
0 0 0 0 0 0 0 0 0 
0 0 0 0 0 0 0 0 0 
0 0 0 0 0 0 0 0 0 
0 0 0 0 0 0 0 0 0 
0 0 0 0 0 0 0 0 0 
0 0 0 0 0 0 0 0 0 
0 0 0 0 0 0 0 0 0 
0 0 0 0 0 0 0 0 0 
0 0 0 0 0 0 0 0 0 
0 0 0 0 0 0 0 0 0 
0 0 0 0 0 0 0 0 0 
0 0 0 0 0 0 0 0 0 
0 0 0 0 0 0 0 0 0 
0 0 0 0 0 0 0 0 0 
0 0 0 0 0 0 0 0 0 
0 0 0 0 0 0 0 0 0 
0 0 0 0 0 0 0 0 0 
0 0 0 0 0 0 0 0 0 
0 0 0 0 0 0 0 0 0 
0 0 0 0 0 0 0 0 0 
0 0 0 0 0 0 0 0 0 
0 0 0 0 0 0 0 0 0 
0 0 0 0 0 0 0 0 0 
0 0 0 0 0 0 0 0 0 
0 0 0 0 0 0 0 0 0 
0 0 0 0 0 0 0 0 0 
0 0 0 0 0 0 0 0 0 
0 0 0 0 0 0 0 0 0 
0 0 0 0 0 0 0 0 0 
0 0 0 0 0 0 0 0 0 
0 0 0 0 0 0 0 0 0 
0 0 0 0 0 0 0 0 0 
0 0 0 0 0 0 0 0 0 
0 0 0 0 0 0 0 0 0 
0 0 0 0 0 0 0 0 0 
0 0 0 0 0 0 0 0 0 
0 0 0 0 0 0 0 0 0 
0 0 0 0 0 0 0 0 0 
0 0 0 0 0 0 0 0 0 
0 0 0 0 0 0 0 0 0 
0 0 0 0 0 0 0 0 0 
0 0 0 0 0 0 0 0 0 
0 0 0 0 0 0 0 0 0 
0 0 0 0 0 0 0 0 0 
0 0 0 0 0 0 0 0 0 
0 0 0 0 0 0 0 0 0 
0 0 0 0 0 0 0 0 0 
0 0 0 0 0 0 0 0 0 
0 0 0 0 0 0 0 0 0 
0 0 0 0 0 0 0 0 0 
0 0 0 0 0 0 0 0 0 
0 0 0 0 0 0 0 0 0 
0 0 0 0 0 0 0 0 0 
0 0 0 0 0 0 0 0 0 
0 0 0 0 0 0 0 0 0 
0 0 0 0 0 0 0 0 0 
0 0 0 0 0 0 0 0 0 
0 0 0 0 0 0 0 0 0 
0 0 0 0 0 0 0 0 0 
0 0 0 0 0 0 0 0 0 
0 0 0 0 0 0 0 0 0 
0 0 0 0 0 0 0 0 0 
0 0 0 0 0 0 0 0 0 
0 0 0 0 0 0 0 0 0 
0 0 0 0 0 0 0 0 0 
0 0 0 0 0 0 0 0 0 
0 0 0 0 0 0 0 0 0 
0 0 0 0 0 0 0 0 0 
0 0 0 0 0 0 0 0 0 
0 0 0 0 0 0 0 0 0 
0 0 0 0 0 0 0 0 0 
0 0 0 0 0 0 0 0 0 
0 0 0 0 0 0 0 0 0 
0 0 0 0 0 0 0 0 0 
0 0 0 0 0 0 0 0 0 
0 0 0 0 0 0 0 0 0 
0 0 0 0 0 0 0 0 0 
0 0 0 0 0 0 0 0 0 
0 0 0 0 0 0 0 0 0 
0 0 0 0 0 0 0 0 0 
0 0 0 0 0 0 0 0 0 
0 0 0 0 0 0 0 0 0 
0 0 0 0 0 0 0 0 0 
0 0 0 0 0 0 0 0 0 
0 0 0 0 0 0 0 0 0 
0 0 0 0 0 0 0 0 0 
0 0 0 0 0 0 0 0 0 
0 0 0 0 0 0 0 0 0 
0 0 0 0 0 0 0 0 0 
0 0 0 0 0 0 0 0 0 
0 0 0 0 0 0 0 0 0 
0 0 0 0 0 0 0 0 0 
0 0 0 0 0 0 0 0 0 
0 0 0 0 0 0 0 0 0 
0 0 0 0 0 0 0 0 0 
0 0 0 0 0 0 0 0 0 
0 0 0 0 0 0 0 0 0 
0 0 0 0 0 0 0 0 0 
0 0 0 0 0 0 0 0 0 
0 0 0 0 0 0 0 0 0 
0 0 0 0 0 0 0 0 0 
0 0 0 0 0 0 0 0 0 
0 0 0 0 0 0 0 0 0 
0 0 0 0 0 0 0 0 0 
0 0 0 0 0 0 0 0 0 
0 0 0 0 0 0 0 0 0 
0 0 0 0 0 0 0 0 0 
0 0 0 0 0 0 0 0 0 
0 0 0 0 0 0 0 0 0 
0 0 0 0 0 0 0 0 0 
0 0 0 0 0 0 0 0 0 
0 0 0 0 0 0 0 0 0 
0 0 0 0 0 0 0 0 0 
0 0 0 0 0 0 0 0 0 
0 0 0 0 0 0 0 0 0 
0 0 0 0 0 0 0 0 0 
0 0 0 0 0 0 0 0 0 
0 0 0 0 0 0 0 0 0 
0 0 0 0 0 0 0 0 0 
0 0 0 0 0 0 0 0 0 
0 0 0 0 0 0 0 0 0 
0 0 0 0 0 0 0 0 0 
0 0 0 0 0 0 0 0 0 
0 0 0 0 0 0 0 0 0 
0 0 0 0 0 0 0 0 0 
0 0 0 0 0 0 0 0 0 
0 0 0 0 0 0 0 0 0 
0 0 0 0 0 0 0 0 0 
0 0 0 0 0 0 0 0 0 
0 0 0 0 0 0 0 0 0 
0 0 0 0 0 0 0 0 0 
0 0 0 0 0 0 0 0 0 
0 0 0 0 0 0 0 0 0 
0 0 0 0 0 0 0 0 0 
0 0 0 0 0 0 0 0 0 
0 0 0 0 0 0 0 0 0 
0 0 0 0 0 0 0 0 0 
0 0 0 0 0 0 0 0 0 
0 0 0 0 0 0 0 0 0 
0 0 0 0 0 0 0 0 0 
0 0 0 0 0 0 0 0 0 
0 0 0 0 0 0 0 0 0 
0 0 0 0 0 0 0 0 0 
0 0 0 0 0 0 0 0 0 
0 0 0 0 0 0 0 0 0 
0 0 0 0 0 0 0 0 0 
0 0 0 0 0 0 0 0 0 
0 0 0 0 0 0 0 0 0 
0 0 0 0 0 0 0 0 0 
0 0 0 0 0 0 0 0 0 
0 0 0 0 0 0 0 0 0 
0 0 0 0 0 0 0 0 0 
0 0 0 0 0 0 0 0 0 
0 0 0 0 0 0 0 0 0 
0 0 0 0 0 0 0 0 0 
0 0 0 0 0 0 0 0 0 
0 0 0 0 0 0 0 0 0 
0 0 0 0 0 0 0 0 0 
0 0 0 0 0 0 0 0 0 
0 0 0 0 0 0 0 0 0 
0 0 0 0 0 0 0 0 0 
0 0 0 0 0 0 0 0 0 
0 0 0 0 0 0 0 0 0 
0 0 0 0 0 0 0 0 0 
0 0 0 0 0 0 0 0 0 
0 0 0 0 0 0 0 0 0 
0 0 0 0 0 0 0 0 0 
0 0 0 0 0 0 0 0 0 
0 0 0 0 0 0 0 0 0 
0 0 0 0 0 0 0 0 0 
0 0 0 0 0 0 0 0 0 
0 0 0 0 0 0 0 0 0 
0 0 0 0 0 0 0 0 0 
0 0 0 0 0 0 0 0 0 
0 0 0 0 0 0 0 0 0 
0 0 0 0 0 0 0 0 0 
0 0 0 0 0 0 0 0 0 
0 0 0 0 0 0 0 0 0 
0 0 0 0 0 0 0 0 0 
0 0 0 0 0 0 0 0 0 
0 0 0 0 0 0 0 0 0 
0 0 0 0 0 0 0 0 0 
0 0 0 0 0 0 0 0 0 
0 0 0 0 0 0 0 0 0 
0 0 0 0 0 0 0 0 0 
0 0 0 0 0 0 0 0 0 
0 0 0 0 0 0 0 0 0 
0 0 0 0 0 0 0 0 0 
0 0 0 0 0 0 0 0 0 
0 0 0 0 0 0 0 0 0 
0 0 0 0 0 0 0 0 0 
0 0 0 0 0 0 0 0 0 
0 0 0 0 0 0 0 0 0 
0 0 0 0 0 0 0 0 0 
0 0 0 0 0 0 0 0 0 
0 0 0 0 0 0 0 0 0 
0 0 0 0 0 0 0 0 0 
0 0 0 0 0 0 0 0 0 
0 0 0 0 0 0 0 0 0 
0 0 0 0 0 0 0 0 0 
0 0 0 0 0 0 0 0 0 
0 0 0 0 0 0 0 0 0 
0 0 0 0 0 0 0 0 0 
0 0 0 0 0 0 0 0 0 
0 0 0 0 0 0 0 0 0 
0 0 0 0 0 0 0 0 0 
0 0 0 0 0 0 0 0 0 
0 0 0 0 0 0 0 0 0 
0 0 0 0 0 0 0 0 0 
0 0 0 0 0 0 0 0 0 
0 0 0 0 0 0 0 0 0 
0 0 0 0 0 0 0 0 0 
0 0 0 0 0 0 0 0 0 
0 0 0 0 0 0 0 0 0 
0 0 0 0 0 0 0 0 0 
0 0 0 0 0 0 0 0 0 
0 0 0 0 0 0 0 0 0 
0 0 0 0 0 0 0 0 0 
0 0 0 0 0 0 0 0 0 
0 0 0 0 0 0 0 0 0 
0 0 0 0 0 0 0 0 0 
0 0 0 0 0 0 0 0 0 
0 0 0 0 0 0 0 0 0 
0 0 0 0 0 0 0 0 0 
0 0 0 0 0 0 0 0 0 
0 0 0 0 0 0 0 0 0 
0 0 0 0 0 0 0 0 0 
0 0 0 0 0 0 0 0 0 
0 0 0 0 0 0 0 0 0 
0 0 0 0 0 0 0 0 0 
0 0 0 0 0 0 0 0 0 
0 0 0 0 0 0 0 0 0 
0 0 0 0 0 0 0 0 0 
0 0 0 0 0 0 0 0 0 
0 0 0 0 0 0 0 0 0 
0 0 0 0 0 0 0 0 0 
0 0 0 0 0 0 0 0 0 
0 0 0 0 0 0 0 0 0 
0 0 0 0 0 0 0 0 0 
0 0 0 0 0 0 0 0 0 
0 0 0 0 0 0 0 0 0 
0 0 0 0 0 0 0 0 0 
0 0 0 0 0 0 0 0 0 
0 0 0 0 0 0 0 0 0 
0 0 0 0 0 0 0 0 0 
0 0 0 0 0 0 0 0 0 
0 0 0 0 0 0 0 0 0 
0 0 0 0 0 0 0 0 0 
0 0 0 0 0 0 0 0 0 
0 0 0 0 0 0 0 0 0 
0 0 0 0 0 0 0 0 0 
0 0 0 0 0 0 0 0 0 
0 0 0 0 0 0 0 0 0 
0 0 0 0 0 0 0 0 0 
0 0 0 0 0 0 0 0 0 
0 0 0 0 0 0 0 0 0 
0 0 0 0 0 0 0 0 0 
0 0 0 0 0 0 0 0 0 
0 0 0 0 0 0 0 0 0 
0 0 0 0 0 0 0 0 0 
0 0 0 0 0 0 0 0 0 
0 0 0 0 0 0 0 0 0 
0 0 0 0 0 0 0 0 0 
0 0 0 0 0 0 0 0 0 
0 0 0 0 0 0 0 0 0 
0 0 0 0 0 0 0 0 0 
0 0 0 0 0 0 0 0 0 
0 0 0 0 0 0 0 0 0 
0 0 0 0 0 0 0 0 0 
0 0 0 0 0 0 0 0 0 
0 0 0 0 0 0 0 0 0 
0 0 0 0 0 0 0 0 0 
0 0 0 0 0 0 0 0 0 
0 0 0 0 0 0 0 0 0 
0 0 0 0 0 0 0 0 0 
0 0 0 0 0 0 0 0 0 
0 0 0 0 0 0 0 0 0 
0 0 0 0 0 0 0 0 0 
0 0 0 0 0 0 0 0 0 
0 0 0 0 0 0 0 0 0 
0 0 0 0 0 0 0 0 0 
0 0 0 0 0 0 0 0 0 
0 0 0 0 0 0 0 0 0 
0 0 0 0 0 0 0 0 0 
0 0 0 0 0 0 0 0 0 
0 0 0 0 0 0 0 0 0 
0 0 0 0 0 0 0 0 0 
0 0 0 0 0 0 0 0 0 
0 0 0 0 0 0 0 0 0 
0 0 0 0 0 0 0 0 0 
0 0 0 0 0 0 0 0 0 
0 0 0 0 0 0 0 0 0 
0 0 0 0 0 0 0 0 0 
0 0 0 0 0 0 0 0 0 
0 0 0 0 0 0 0 0 0 
0 0 0 0 0 0 0 0 0 
0 0 0 0 0 0 0 0 0 
0 0 0 0 0 0 0 0 0 
0 0 0 0 0 0 0 0 0 
0 0 0 0 0 0 0 0 0 
0 0 0 0 0 0 0 0 0 
0 0 0 0 0 0 0 0 0 
0 0 0 0 0 0 0 0 0 
0 0 0 0 0 0 0 0 0 
0 0 0 0 0 0 0 0 0 
0 0 0 0 0 0 0 0 0 
0 0 0 0 0 0 0 0 0 
0 0 0 0 0 0 0 0 0 
0 0 0 0 0 0 0 0 0 
0 0 0 0 0 0 0 0 0 
0 0 0 0 0 0 0 0 0 
0 0 0 0 0 0 0 0 0 
0 0 0 0 0 0 0 0 0 
0 0 0 0 0 0 0 0 0 
0 0 0 0 0 0 
v 3 1355 double
-0.0409489 -0.00353331 -0.00985243 0.0167784 -0.0084722 -3.02745e-05 0.0311088 -0.00299634 0.00850731 
0.0330107 -0.000494319 -0.00417492 0.0107075 0.00840161 0.000284126 0.00855696 0.00258636 -0.00616628 
0.0105032 0.00156326 -0.00298042 -0.0526063 0.0138754 -0.0101664 0.0111435 0.008257 -0.000729676 
-0.0162635 0.00452468 0.00887498 0.0142446 0.0321174 -0.326917 0.0288486 -0.0178762 0.00849014 
0.0725293 0.0121442 -0.000429515 0.0503832 -0.0213847 0.00710947 0.0299275 0.0211647 0.0117982 
0.0299285 0.0117439 0.00568246 0.0367262 0.0234169 0.00430106 0.00345594 -0.000830513 -0.0311269 
0.0177395 -0.00635777 -0.0180964 0.010546 -0.00190224 0.00455623 0.016762 -0.0041111 -0.00307756 
0.0415759 0.00971144 -0.00840223 1.97105e-05 0.0226294 -0.00794535 0.0362427 -0.00517079 -0.0481817 
0.0223673 -0.00407649 0.00769744 0.0194242 -0.00226908 -0.00919238 0.0165046 0.0062115 -0.00698925 
0.0189099 0.00455767 0.00697507 0.00835344 -0.00457023 -0.0150501 0.0380078 -0.00175292 -0.0103088 
-0.0503601 -0.0321056 -0.00527372 -0.0253427 0.0150892 0.0205724 0.116554 0.0648576 0.0498932 
0.0153457 -0.0243809 0.00134311 0.0930569 0.0326051 -0.0226895 0.0915487 -0.00903601 0.00691458 
0.024305 0.016014 -0.00777193 0.0667517 0.0195077 -0.00277694 0.0641187 0.0569696 8.81126e-05 
0.00376424 -0.00601662 -0.0183843 0.00473671 -0.00635032 0.000615676 0.00487346 -0.00537711 0.00260139 
-0.0451484 0.0038021 -0.0606818 0.0210909 -0.0100294 -0.0190777 -0.0207599 0.0694322 -0.0263887 
0.0261831 0.00010018 -0.034377 0.0300604 0.005762 0.00970574 -0.00264427 -0.00231546 -0.0133202 
-0.00216068 -0.00141863 -0.00110633 -0.00830027 -0.000260914 0.00544206 0.0149722 0.000701486 0.0149154 
0.00796792 0.0176853 0.00352983 0.0358581 -0.0100668 -0.00916468 -0.00504707 0.00387532 0.00330374 
-0.0606413 0.105472 0.0381105 -0.0204277 0.00126907 -0.00358017 -0.0273021 -0.0246634 0.0520836 
-0.0270772 -0.0853807 -0.0204303 -0.0912593 -0.0369922 0.00945679 -0.0650119 -0.00970394 -0.00295934 
0.0238194 0.0739198 -0.0157694 0.0613781 0.0653529 -0.019578 0.006562 0.00695454 0.00330428 
0.00765982 -0.010912 -0.00616632 0.00567128 -0.00924455 -0.00500526 -0.00459332 -0.00678349 -0.0173632 
-0.0210722 0.0455294 -0.0280504 0.00181088 -0.000175632 0.00551953 0.0275824 -0.0570148 0.00326431 
-0.00363298 -0.00240116 0.00687173 0.000554419 0.00305902 -0.003326 0.000496877 0.0120273 -0.00250098 
0.010985 0.018762 -0.00121638 0.0285498 0.0228662 -0.0186217 -0.0306792 0.000752332 0.0233959 
-0.0246628 0.0134685 0.00809236 0.00263904 -0.0461573 -0.00863734 -0.0610921 -0.0303771 -0.00118742 