# vtk DataFile Version 4.0
Generated by LIGGGHTS
ASCII
DATASET POLYDATA
POINTS 1355 float
-0.899482 -0.460722 -0.460278 -0.765783 -0.460353 -0.460387 -0.6861 -0.460124 -0.460283 
-0.60619 -0.460736 -0.460309 -0.525009 -0.460601 -0.460623 -0.445193 -0.460262 -0.4605 
-0.365275 -0.459926 -0.460752 -0.27872 -0.460457 -0.460662 -0.154989 -0.460476 -0.460303 
-0.0748636 -0.452932 -0.46039 0.004618 -0.46015 -0.460418 0.0844113 -0.460037 -0.460407 
0.164183 -0.460164 -0.460381 0.24414 -0.460216 -0.460441 0.324028 -0.46015 -0.460502 
0.403786 -0.459769 -0.460533 0.483592 -0.460064 -0.460561 0.578291 -0.460281 -0.460414 
0.658156 -0.460451 -0.460473 0.739504 -0.460116 -0.460589 0.819284 -0.460414 -0.460581 
0.901213 -0.460302 -0.460413 -0.960647 -0.410171 -0.461055 -0.886218 -0.382302 -0.46063 
-0.729493 -0.389409 -0.461111 -0.645175 -0.391666 -0.460487 -0.565636 -0.392472 -0.460249 
-0.485871 -0.391322 -0.460488 -0.405956 -0.391063 -0.460516 -0.328728 -0.371733 -0.460259 
-0.209106 -0.402188 -0.460354 -0.131285 -0.384502 -0.460802 0.0437489 -0.390669 -0.460576 
0.124452 -0.39085 -0.46072 0.20438 -0.391218 -0.460437 0.284258 -0.391052 -0.460512 
0.364046 -0.389702 -0.460611 0.443743 -0.383654 -0.460465 0.531055 -0.395807 -0.460485 
0.617687 -0.391121 -0.460797 0.697894 -0.391897 -0.460382 0.7799 -0.391066 -0.460166 
0.859879 -0.391958 -0.460749 0.960281 -0.407016 -0.460461 -0.96016 -0.330631 -0.460138 
-0.885519 -0.302593 -0.46075 -0.808981 -0.363064 -0.460506 -0.684842 -0.323095 -0.46164 
-0.564192 -0.313587 -0.461075 -0.484618 -0.311717 -0.460378 -0.397733 -0.311693 -0.46031 
-0.25615 -0.338284 -0.460532 -0.179242 -0.317587 -0.460193 -0.0997652 -0.311712 -0.46073 
-0.0281603 -0.355713 -0.46034 0.0382026 -0.311094 -0.460247 0.165069 -0.322162 -0.460636 
0.244779 -0.321843 -0.460699 0.324367 -0.316516 -0.460342 0.404067 -0.314266 -0.460591 
0.490828 -0.319077 -0.460538 0.570357 -0.32623 -0.460562 0.657838 -0.322309 -0.460102 
0.737562 -0.32343 -0.46063 0.88188 -0.315497 -0.460918 0.960376 -0.327629 -0.460394 
-0.960122 -0.250973 -0.460102 -0.808571 -0.283169 -0.460322 -0.733538 -0.256295 -0.460206 
-0.628753 -0.26714 -0.460115 -0.530033 -0.24246 -0.460805 -0.450251 -0.239751 -0.460844 
-0.320349 -0.29234 -0.4608 -0.0312235 -0.271496 -0.460727 0.106105 -0.269375 -0.460537 
0.181905 -0.24237 -0.460118 0.319813 -0.236596 -0.46012 0.532805 -0.251238 -0.4609 
0.61235 -0.256812 -0.460124 0.698716 -0.253658 -0.46027 0.778999 -0.25572 -0.460311 
0.881714 -0.235707 -0.460321 0.960295 -0.248242 -0.460591 -0.96031 -0.171232 -0.460209 
-0.885503 -0.22263 -0.460195 -0.807927 -0.20358 -0.460809 -0.67526 -0.202261 -0.460343 
-0.59452 -0.195598 -0.4601 -0.497597 -0.170003 -0.460334 -0.37087 -0.231085 -0.460424 
-0.289241 -0.218946 -0.460595 -0.198348 -0.227659 -0.460614 -0.113563 -0.232313 -0.460223 
-0.0440881 -0.192664 -0.460575 0.0369294 -0.230669 -0.460504 0.100675 -0.180518 -0.460327 
0.25016 -0.19605 -0.460903 0.385828 -0.191131 -0.460414 0.460986 -0.217628 -0.460524 
0.56833 -0.179676 -0.460838 0.648652 -0.185766 -0.460821 0.728233 -0.179356 -0.460516 
0.818706 -0.186955 -0.460342 0.960329 -0.168809 -0.460471 -0.893693 -0.128016 -0.46045 
-0.81395 -0.124256 -0.460115 -0.74205 -0.158458 -0.460853 -0.640764 -0.130756 -0.460537 
-0.561803 -0.123236 -0.460396 -0.418386 -0.166843 -0.460477 -0.339539 -0.157745 -0.460683 
-0.237097 -0.158104 -0.46021 -0.1534 -0.161864 -0.460777 -0.0841028 -0.114977 -0.460118 
0.0261046 -0.152232 -0.4609 0.124672 -0.103372 -0.460456 0.178296 -0.161973 -0.460398 
0.31634 -0.151975 -0.460345 0.421712 -0.102905 -0.461017 0.496189 -0.1369 -0.46045 
0.613854 -0.114053 -0.460542 0.813118 -0.107638 -0.460623 0.885378 -0.141713 -0.460433 
-0.960123 -0.0821965 -0.460501 -0.857072 -0.0574726 -0.461177 -0.777626 -0.0531854 -0.460421 
-0.704239 -0.0834326 -0.460542 -0.585634 -0.0469688 -0.460778 -0.507954 -0.0651108 -0.460222 
-0.428771 -0.0746966 -0.460541 -0.349346 -0.0791971 -0.460921 -0.270176 -0.0856422 -0.460359 
-0.190644 -0.0912842 -0.460568 -0.0105627 -0.0824027 -0.460114 0.0633235 -0.0529762 -0.460537 
0.20075 -0.0739785 -0.46061 0.280062 -0.080954 -0.460623 0.356322 -0.0576061 -0.460391 
0.545026 -0.0735935 -0.460363 0.658728 -0.045769 -0.460318 0.737967 -0.0804662 -0.461148 
0.960247 -0.0891515 -0.460816 -0.922307 -0.0121794 -0.46049 -0.821544 0.0132149 -0.460176 
-0.742378 0.0183187 -0.460423 -0.66862 -0.0119494 -0.4607 -0.558641 0.0309247 -0.460195 
-0.472033 0.00548373 -0.460578 -0.385362 -0.00805633 -0.460488 -0.305032 -0.0136661 -0.460396 
-0.226205 -0.0193239 -0.460296 -0.147852 -0.0242452 -0.46044 -0.0705741 -0.0313632 -0.460897 
0.00213601 -0.00227728 -0.460394 0.075863 0.0257146 -0.460738 0.137864 -0.024791 -0.460575 
0.2118 0.00541964 -0.460683 0.293117 -0.00236108 -0.460122 0.369424 0.0209767 -0.460445 
0.435187 -0.024149 -0.460195 0.509951 -0.00458308 -0.440252 0.586941 -0.00575397 -0.460681 
0.686934 0.0290914 -0.460119 0.759913 -0.00359458 -0.460119 0.838004 -0.0321124 -0.460411 
0.916863 -0.0226686 -0.460892 -0.960573 0.0572093 -0.460586 -0.881461 0.0650067 -0.461424 
-0.786968 0.0846756 -0.460795 -0.707344 0.0893566 -0.460687 -0.633131 0.0597067 -0.460669 
-0.496861 0.0815998 -0.460148 -0.419416 0.0640956 -0.46029 -0.339966 0.0574022 -0.460265 
-0.260436 0.0524647 -0.460401 -0.180894 0.0478327 -0.460459 -0.100524 0.0425883 -0.460224 
0.0143973 0.0761712 -0.460331 0.149002 0.0539545 -0.460337 0.259158 0.069754 -0.460212 
0.392449 0.0969512 -0.460664 0.459018 0.0534702 -0.460699 0.537142 0.0671211 -0.460827 
0.616919 0.0677078 -0.46049 0.752117 0.0830692 -0.460715 0.822798 0.0457674 -0.460256 
0.892724 0.0860886 -0.460575 0.960371 0.0440403 -0.460258 -0.960155 0.136434 -0.460678 
-0.846995 0.137012 -0.460468 -0.770303 0.158984 -0.437736 -0.645054 0.138749 -0.460421 
-0.570381 0.111653 -0.460084 -0.503104 0.162412 -0.461467 -0.374534 0.128619 -0.460831 
-0.295516 0.12373 -0.460486 -0.21612 0.119027 -0.460422 -0.136477 0.113984 -0.460312 
-0.0572104 0.109631 -0.460436 0.0882662 0.105833 -0.46037 0.195333 0.117185 -0.460971 
0.30468 0.142615 -0.460641 0.48763 0.13035 -0.460548 0.572264 0.137863 -0.460845 
0.651964 0.138857 -0.460294 0.753577 0.162883 -0.460586 0.823183 0.125121 -0.460423 
0.891094 0.16603 -0.460461 0.960596 0.127839 -0.460437 -0.96032 0.215589 -0.461218 
-0.823981 0.213369 -0.460527 -0.702596 0.193898 -0.460756 -0.414898 0.196772 -0.460418 
-0.33186 0.194526 -0.460586 -0.251592 0.1902 -0.460529 -0.171803 0.18517 -0.460372 
-0.0924978 0.181074 -0.460203 -0.0129963 0.179321 -0.46037 0.0720633 0.183943 -0.460573 
0.151682 0.183364 -0.46027 0.235916 0.184659 -0.460586 0.345406 0.211167 -0.460421 
0.419032 0.171335 -0.460609 0.524671 0.20175 -0.460583 0.609363 0.207964 -0.460899 
0.689077 0.208997 -0.460264 0.821282 0.204961 -0.460519 0.96024 0.207685 -0.460352 
-0.960449 0.295584 -0.460143 -0.891628 0.255529 -0.460779 -0.822581 0.295161 -0.460887 
-0.753525 0.255273 -0.460117 -0.604561 0.239694 -0.461195 -0.525123 0.238669 -0.460848 
-0.451231 0.267807 -0.460168 -0.371671 0.263441 -0.460405 -0.288655 0.260446 -0.460535 
-0.206899 0.255922 -0.460439 -0.126959 0.252948 -0.460358 -0.0470217 0.251304 -0.460581 
0.0332215 0.252984 -0.460158 0.113549 0.252987 -0.460119 0.19352 0.25226 -0.460388 
0.27532 0.253289 -0.460517 0.384871 0.280652 -0.460528 0.455489 0.241631 -0.460771 
0.562563 0.271999 -0.461068 0.651876 0.279063 -0.460751 0.756589 0.251443 -0.460435 
0.89005 0.245124 -0.46031 -0.891627 0.335506 -0.460569 -0.705988 0.333235 -0.460613 
-0.626238 0.31663 -0.46028 -0.546379 0.315615 -0.460257 -0.429065 0.344053 -0.460499 
-0.327963 0.329243 -0.460531 -0.244138 0.325394 -0.460389 -0.164481 0.323207 -0.460304 
-0.0849232 0.321927 -0.460211 -0.00536997 0.322264 -0.460191 0.0743886 0.322047 -0.460233 
0.154328 0.321755 -0.460458 0.234246 0.321682 -0.460622 0.315133 0.322056 -0.460403 
0.423815 0.350395 -0.460485 0.493399 0.311536 -0.460812 0.602411 0.341417 -0.460447 
0.719268 0.321952 -0.460442 0.802421 0.321531 -0.460598 0.882094 0.323452 -0.460405 
0.959712 0.301814 -0.460774 -0.960311 0.375529 -0.460656 -0.891369 0.416285 -0.460363 
-0.822886 0.37512 -0.460183 -0.749787 0.405849 -0.460996 -0.652733 0.391822 -0.460345 
-0.573274 0.390877 -0.460491 -0.493674 0.390568 -0.460484 -0.369732 0.397028 -0.46031 
-0.282831 0.39359 -0.460381 -0.20303 0.392726 -0.460532 -0.123646 0.39159 -0.460241 
-0.0444431 0.391251 -0.46018 0.0350091 0.391174 -0.460334 0.114688 0.391005 -0.460345 
0.19446 0.390904 -0.460443 0.274364 0.390837 -0.460555 0.354753 0.391076 -0.460419 
0.463277 0.419846 -0.460315 0.533039 0.380808 -0.460284 0.675843 0.388876 -0.460437 
0.755763 0.39325 -0.460621 0.84078 0.391573 -0.460361 0.921361 0.391905 -0.460789 
-0.960292 0.458752 -0.460446 -0.808071 0.460147 -0.460788 -0.692308 0.460634 -0.460683 
-0.612468 0.460411 -0.460398 -0.533023 0.460078 -0.460415 -0.453298 0.459538 -0.46033 
-0.322396 0.461116 -0.46053 -0.242435 0.461235 -0.460542 -0.162745 0.460807 -0.46039 
-0.0835279 0.460482 -0.460332 -0.00443402 0.460322 -0.460436 0.0750403 0.460225 -0.460408 
0.154693 0.460149 -0.460409 0.234483 0.460091 -0.460408 0.31438 0.460059 -0.460401 
0.39443 0.460219 -0.460169 0.531861 0.460373 -0.460742 0.620053 0.458864 -0.460317 
0.711843 0.460104 -0.460355 0.799728 0.460095 -0.460537 0.880785 0.460424 -0.460449 
0.960517 0.460551 -0.460292 -0.960221 -0.46113 -0.400713 -0.884685 -0.460123 -0.375386 
-0.726087 -0.460329 -0.391076 -0.646211 -0.46016 -0.391194 -0.565064 -0.460133 -0.391936 
-0.485191 -0.460243 -0.391764 -0.404744 -0.459942 -0.391708 -0.322372 -0.460012 -0.393993 
-0.219809 -0.46014 -0.406632 -0.114414 -0.460646 -0.391769 -0.0347231 -0.460614 -0.391249 
0.0446972 -0.460162 -0.391336 0.124238 -0.460299 -0.391231 0.204115 -0.460509 -0.391454 
0.284187 -0.460654 -0.391566 0.364017 -0.460638 -0.391551 0.443742 -0.460664 -0.391635 
0.530883 -0.460321 -0.396567 0.618661 -0.460141 -0.391428 0.69934 -0.45529 -0.392256 
[...]
POINT_DATA 1355
FIELD FieldData 7
id 1 1355 int
366 408 584 322 662 206 563 371 419 
523 551 145 607 585 151 530 365 186 
620 156 70 664 692 632 759 714 370 
120 208 723 59 512 435 712 211 457 
20 256 338 470 195 678 320 643 534 
171 196 105 493 581 542 514 245 234 
347 708 214 280 305 529 396 291 444 
367 476 155 724 314 136 721 375 250 
442 498 54 200 431 623 593 109 184 
446 647 159 267 289 373 275 324 62 
533 376 95 589 76 722 543 576 75 
202 572 683 676 680 445 83 641 185 
331 96 99 458 575 40 57 88 239 
31 281 298 126 300 48 521 531 428 
254 592 758 361 412 478 14 312 252 
153 397 483 704 321 140 726 143 142 
351 651 6 528 433 92 690 689 437 
359 154 569 304 439 339 170 540 639 
461 177 700 378 459 310 258 51 182 
549 369 323 121 382 507 2 495 224 
612 720 590 539 166 460 97 240 537 
127 580 85 544 293 697 634 129 104 
423 742 161 32 384 25 671 74 278 
675 383 71 266 19 22 627 717 162 
602 146 626 247 167 125 191 199 294 
586 640 441 637 596 149 475 463 387 
703 269 130 8 393 218 348 420 613 
663 16 578 402 682 421 715 299 698 
747 261 622 355 571 411 42 748 416 
227 391 527 557 346 67 274 319 242 
649 9 73 251 766 409 535 89 4 
260 318 650 259 388 311 94 618 39 
582 53 673 729 3 69 496 363 201 
188 599 670 228 519 667 472 669 660 
646 654 43 230 226 306 427 316 614 
764 329 545 179 389 12 453 440 197 
452 90 604 386 686 38 587 285 725 
743 181 518 225 761 513 5 559 72 
336 66 116 78 628 131 679 959 103 
273 1154 276 516 47 233 325 108 223 
666 157 455 205 175 287 221 56 751 
736 426 744 642 611 302 413 473 741 
684 118 653 18 770 15 552 82 272 
100 87 343 490 219 601 290 465 110 
438 372 767 631 255 879 307 699 636 
187 550 80 532 313 645 279 509 556 
114 757 144 81 668 58 615 944 616 
558 644 341 189 407 36 462 597 357 
394 565 554 29 511 334 282 570 424 
286 541 399 24 447 364 183 86 566 
492 501 718 169 886 248 33 422 11 
502 395 46 106 345 192 711 137 60 
44 112 497 429 479 27 45 694 326 
358 352 746 21 101 629 522 568 28 
271 710 236 524 111 737 102 818 134 
216 733 147 194 148 172 775 443 415 
738 84 1127 243 474 180 482 381 374 
436 638 450 253 425 93 827 91 215 
505 403 520 277 591 133 719 107 288 
350 762 193 546 41 970 333 231 330 
135 928 574 308 328 232 432 296 821 
659 1038 49 13 61 681 400 648 190 
128 392 610 209 971 35 665 122 503 
750 687 480 469 508 26 113 608 123 
222 709 340 456 606 297 760 17 292 
138 430 246 98 564 448 283 404 178 
244 132 63 583 464 891 600 1165 418 
417 547 763 499 229 494 385 617 672 
467 119 755 481 727 526 390 210 728 
249 217 871 769 354 158 510 7 739 
466 793 890 500 658 337 986 1166 846 
173 567 1184 573 468 781 927 735 809 
1066 1173 1152 925 685 933 814 921 414 
784 265 749 963 1288 943 504 787 268 
935 831 910 362 619 903 688 652 867 
1167 410 768 973 951 1062 754 1061 1170 
360 828 235 696 779 1115 875 1147 207 
932 241 702 1091 907 454 812 603 1255 
974 1162 848 914 829 176 982 838 870 
950 865 124 691 792 857 919 335 317 
406 985 972 732 165 379 295 707 937 
952 765 204 349 904 894 901 79 851 
471 734 786 981 882 356 939 855 141 
489 577 491 969 674 536 1077 655 621 
918 861 824 895 487 1284 795 731 800 
309 50 605 1052 908 1065 30 1075 967 
434 677 892 52 801 486 905 947 1078 
301 776 962 805 990 799 332 164 1182 
975 836 815 630 893 1088 198 926 977 
657 794 954 922 835 656 888 633 730 
911 160 752 968 484 150 401 953 327 
837 695 477 220 10 555 380 803 876 
515 791 840 713 65 783 342 864 934 
804 23 538 887 965 203 872 595 929 
994 873 598 884 1180 822 506 237 488 
284 1 344 1137 1177 960 706 398 859 
896 869 716 55 1041 1156 830 856 1131 
115 257 1313 1142 562 966 139 263 850 
174 609 912 773 917 37 1118 900 368 
881 625 353 756 168 405 845 880 451 
949 117 525 1001 303 262 785 213 68 
635 64 661 553 152 753 817 701 594 
984 923 315 579 377 485 961 212 693 
878 938 1243 561 270 906 1079 1149 1312 
1004 866 823 1334 1143 988 1076 956 825 
1006 1330 163 1159 1123 1093 1231 930 1178 
1290 1051 958 1305 1211 1113 1279 1110 1185 
849 1049 1133 1058 1302 1035 826 844 1116 
1339 1197 1160 1112 1073 832 1193 847 1217 
1003 1316 1032 1267 1347 1000 1344 1145 868 
999 1125 1266 1028 1221 1071 1086 1034 1186 
993 1097 1354 1187 802 1139 1285 1099 1014 
1022 1036 1015 808 995 1295 1054 1144 1056 
1008 1322 1021 1189 1321 1129 1246 902 1174 
1346 1105 1283 1005 936 964 1103 1188 806 
780 789 1213 1315 1172 1158 1020 1095 1050 
1111 1138 916 992 1201 797 820 782 1089 
1087 833 1023 1130 1135 1270 1012 834 978 
924 1183 1119 1082 1083 1026 980 1216 1018 
1039 1319 1016 1273 839 1067 1349 1258 1176 
1179 1084 1010 1114 1048 931 1027 807 1204 
1150 1009 1109 34 842 810 1044 1333 1274 
1311 1171 1033 1046 1265 987 1100 1253 1017 
1203 860 790 774 1227 1153 1282 1081 899 
1080 1269 852 915 948 1096 946 1338 1069 
1057 1300 983 1029 955 1025 1206 841 1007 
1320 1043 798 811 1085 1175 1055 1126 1309 
1280 1101 998 976 1168 853 1134 813 1281 
940 1045 777 1053 796 1148 1063 1011 1042 
1229 1230 877 1256 1146 1157 854 771 909 
1277 1287 1181 1124 1019 1232 778 898 1353 
1161 1102 449 1169 1225 1336 945 1070 1136 
885 1024 1117 1068 1254 740 1059 1307 1098 
979 588 1264 863 1064 1262 957 883 238 
517 816 897 788 624 1252 1250 1190 1121 
1303 1141 1233 1140 941 1132 1299 1151 1238 
745 1327 1226 1107 1247 1306 1275 1335 1276 
1249 1251 1291 1214 1106 1210 1215 1199 1031 
1325 1308 1202 1122 1224 1272 1350 1047 1297 
1329 1341 1223 1263 1237 548 997 1323 1348 
1013 1194 1209 1235 1108 1343 1037 1292 1228 
1317 1331 1219 1342 1352 1304 1242 1301 1260 
1220 1294 1192 1205 1236 1326 1234 1296 1355 
1164 1345 1286 1060 1268 1191 1128 862 1198 
1278 1241 1259 1293 1248 1245 1240 1196 1314 
1289 1195 1328 1072 1351 1298 991 1261 1094 
1200 1310 772 1244 1002 1332 1257 1090 264 
996 942 913 1318 1239 1212 1337 920 1030 
705 1208 1040 1120 1340 843 1092 1104 1074 
989 560 1218 1163 819 1324 1155 1271 77 
1222 1207 874 889 858 
type 1 1355 int
1 1 1 1 1 1 1 1 1 
1 1 1 1 1 1 1 1 1 
1 1 1 1 1 1 1 1 1 
1 1 1 1 1 1 1 1 1 
1 1 1 1 1 1 1 1 1 
1 1 1 1 1 1 1 1 1 
1 1 1 1 1 1 1 1 1 
1 1 1 1 1 1 1 1 1 
1 1 1 1 1 1 1 1 1 
1 1 1 1 1 1 1 1 1 
1 1 1 1 1 1 1 1 1 
1 1 1 1 1 1 1 1 1 
1 1 1 1 1 1 1 1 1 
1 1 1 1 1 1 1 1 1 
1 1 1 1 1 1 1 1 1 
1 1 1 1 1 1 1 1 1 
1 1 1 1 1 1 1 1 1 
1 1 1 1 1 1 1 1 1 
1 1 1 1 1 1 1 1 1 
1 1 1 1 1 1 1 1 1 
1 1 1 1 1 1 1 1 1 
1 1 1 1 1 1 1 1 1 
1 1 1 1 1 1 1 1 1 
1 1 1 1 1 1 1 1 1 
1 1 1 1 1 1 1 1 1 
1 1 1 1 1 1 1 1 1 
1 1 1 1 1 1 1 1 1 
1 1 1 1 1 1 1 1 1 
1 1 1 1 1 1 1 1 1 
1 1 1 1 1 1 1 1 1 
1 1 1 1 1 1 1 1 1 
1 1 1 1 1 1 1 1 1 
1 1 1 1 1 1 1 1 1 
1 1 1 1 1 1 1 1 1 
1 1 1 1 1 1 1 1 1 
1 1 1 1 1 1 1 1 1 
1 1 1 1 1 1 1 1 1 
1 1 1 1 1 1 1 1 1 
1 1 1 1 1 1 1 1 1 
1 1 1 1 1 1 1 1 1 
1 1 1 1 1 1 1 1 1 
1 1 1 1 1 1 1 1 1 
1 1 1 1 1 1 1 1 1 
1 1 1 1 1 1 1 1 1 
1 1 1 1 1 1 1 1 1 
1 1 1 1 1 1 1 1 1 
1 1 1 1 1 1 1 1 1 
1 1 1 1 1 1 1 1 1 
1 1 1 1 1 1 1 1 1 
1 1 1 1 1 1 1 1 1 
1 1 1 1 1 1 1 1 1 
1 1 1 1 1 1 1 1 1 
1 1 1 1 1 1 1 1 1 
1 1 1 1 1 1 1 1 1 
1 1 1 1 1 1 1 1 1 
1 1 1 1 1 1 1 1 1 
1 1 1 1 1 1 1 1 1 
1 1 1 1 1 1 1 1 1 
1 1 1 1 1 1 1 1 1 
1 1 1 1 1 1 1 1 1 
1 1 1 1 1 1 1 1 1 
1 1 1 1 1 1 1 1 1 
1 1 1 1 1 1 1 1 1 
1 1 1 1 1 1 1 1 1 
1 1 1 1 1 1 1 1 1 
1 1 1 1 1 1 1 1 1 
1 1 1 1 1 1 1 1 1 
1 1 1 1 1 1 1 1 1 
1 1 1 1 1 1 1 1 1 
1 1 1 1 1 1 1 1 1 
1 1 1 1 1 1 1 1 1 
1 1 1 1 1 1 1 1 1 
1 1 1 1 1 1 1 1 1 
1 1 1 1 1 1 1 1 1 
1 1 1 1 1 1 1 1 1 
1 1 1 1 1 1 1 1 1 
1 1 1 1 1 1 1 1 1 
1 1 1 1 1 1 1 1 1 
1 1 1 1 1 1 1 1 1 
1 1 1 1 1 1 1 1 1 
1 1 1 1 1 1 1 1 1 
1 1 1 1 1 1 1 1 1 
1 1 1 1 1 1 1 1 1 
1 1 1 1 1 1 1 1 1 
1 1 1 1 1 1 1 1 1 
1 1 1 1 1 1 1 1 1 
1 1 1 1 1 1 1 1 1 
1 1 1 1 1 1 1 1 1 
1 1 1 1 1 1 1 1 1 
1 1 1 1 1 1 1 1 1 
1 1 1 1 1 1 1 1 1 
1 1 1 1 1 1 1 1 1 
1 1 1 1 1 1 1 1 1 
1 1 1 1 1 1 1 1 1 
1 1 1 1 1 1 1 1 1 
1 1 1 1 1 1 1 1 1 
1 1 1 1 1 1 1 1 1 
1 1 1 1 1 1 1 1 1 
1 1 1 1 1 1 1 1 1 
1 1 1 1 1 1 1 1 1 
1 1 1 1 1 1 1 1 1 
1 1 1 1 1 1 1 1 1 
1 1 1 1 1 1 1 1 1 
1 1 1 1 1 1 1 1 1 
1 1 1 1 1 1 1 1 1 
1 1 1 1 1 1 1 1 1 
1 1 1 1 1 1 1 1 1 
1 1 1 1 1 1 1 1 1 
1 1 1 1 1 1 1 1 1 
1 1 1 1 1 1 1 1 1 
1 1 1 1 1 1 1 1 1 
1 1 1 1 1 1 1 1 1 
1 1 1 1 1 1 1 1 1 
1 1 1 1 1 1 1 1 1 
1 1 1 1 1 1 1 1 1 
1 1 1 1 1 1 1 1 1 
1 1 1 1 1 1 1 1 1 
1 1 1 1 1 1 1 1 1 
1 1 1 1 1 1 1 1 1 
1 1 1 1 1 1 1 1 1 
1 1 1 1 1 1 1 1 1 
1 1 1 1 1 1 1 1 1 
1 1 1 1 1 1 1 1 1 
1 1 1 1 1 1 1 1 1 
1 1 1 1 1 1 1 1 1 
1 1 1 1 1 1 1 1 1 
1 1 1 1 1 1 1 1 1 
1 1 1 1 1 1 1 1 1 
1 1 1 1 1 1 1 1 1 
1 1 1 1 1 1 1 1 1 
1 1 1 1 1 1 1 1 1 
1 1 1 1 1 1 1 1 1 
1 1 1 1 1 1 1 1 1 
1 1 1 1 1 1 1 1 1 
1 1 1 1 1 1 1 1 1 
1 1 1 1 1 1 1 1 1 
1 1 1 1 1 1 1 1 1 
1 1 1 1 1 1 1 1 1 
1 1 1 1 1 1 1 1 1 
1 1 1 1 1 1 1 1 1 
1 1 1 1 1 1 1 1 1 
1 1 1 1 1 1 1 1 1 
1 1 1 1 1 1 1 1 1 
1 1 1 1 1 1 1 1 1 
1 1 1 1 1 1 1 1 1 
1 1 1 1 1 1 1 1 1 
1 1 1 1 1 1 1 1 1 
1 1 1 1 1 1 1 1 1 
1 1 1 1 1 1 1 1 1 
1 1 1 1 1 1 1 1 1 
1 1 1 1 1 
i 3 1355 int
0 0 0 0 0 0 0 0 0 
0 0 0 0 0 0 0 0 0 
0 0 0 0 0 0 0 0 0 
0 0 0 0 0 0 0 0 0 
0 0 0 0 0 0 0 0 0 
0 0 0 0 0 0 0 0 0 
0 0 0 0 0 0 0 0 0 
0 0 0 0 0 0 0 0 0 
0 0 0 0 0 0 0 0 0 
0 0 0 0 0 0 0 0 0 
0 0 0 0 0 0 0 0 0 
0 0 0 0 0 0 0 0 0 
0 0 0 0 0 0 0 0 0 
0 0 0 0 0 0 0 0 0 
0 0 0 0 0 0 0 0 0 
0 0 0 0 0 0 0 0 0 
0 0 0 0 0 0 0 0 0 
0 0 0 0 0 0 0 0 0 
0 0 0 0 0 0 0 0 0 
0 0 0 0 0 0 0 0 0 
0 0 0 0 0 0 0 0 0 
0 0 0 0 0 0 0 0 0 
0 0 0 0 0 0 0 0 0 
0 0 0 0 0 0 0 0 0 
0 0 0 0 0 0 0 0 0 
0 0 0 0 0 0 0 0 0 
0 0 0 0 0 0 0 0 0 
0 0 0 0 0 0 0 0 0 
0 0 0 0 0 0 0 0 0 
0 0 0 0 0 0 0 0 0 
0 0 0 0 0 0 0 0 0 
0 0 0 0 0 0 0 0 0 
0 0 0 0 0 0 0 0 0 
0 0 0 0 0 0 0 0 0 
0 0 0 0 0 0 0 0 0 
0 0 0 0 0 0 0 0 0 
0 0 0 0 0 0 0 0 0 
0 0 0 0 0 0 0 0 0 
0 0 0 0 0 0 0 0 0 
0 0 0 0 0 0 0 0 0 
0 0 0 0 0 0 0 0 0 
0 0 0 0 0 0 0 0 0 
0 0 0 0 0 0 0 0 0 
0 0 0 0 0 0 0 0 0 
0 0 0 0 0 0 0 0 0 
0 0 0 0 0 0 0 0 0 
0 0 0 0 0 0 0 0 0 
0 0 0 0 0 0 0 0 0 
0 0 0 0 0 0 0 0 0 
0 0 0 0 0 0 0 0 0 
0 0 0 0 0 0 0 0 0 
0 0 0 0 0 0 0 0 0 
0 0 0 0 0 0 0 0 0 
0 0 0 0 0 0 0 0 0 
0 0 0 0 0 0 0 0 0 
0 0 0 0 0 0 0 0 0 
0 0 0 0 0 0 0 0 0 
0 0 0 0 0 0 0 0 0 
0 0 0 0 0 0 0 0 0 
0 0 0 0 0 0 0 0 0 
0 0 0 0 0 0 0 0 0 
0 0 0 0 0 0 0 0 0 
0 0 0 0 0 0 0 0 0 
0 0 0 0 0 0 0 0 0 
0 0 0 0 0 0 0 0 0 
0 0 0 0 0 0 0 0 0 
0 0 0 0 0 0 0 0 0 
0 0 0 0 0 0 0 0 0 
0 0 0 0 0 0 0 0 0 
0 0 0 0 0 0 0 0 0 
0 0 0 0 0 0 0 0 0 
0 0 0 0 0 0 0 0 0 
0 0 0 0 0 0 0 0 0 
0 0 0 0 0 0 0 0 0 
0 0 0 0 0 0 0 0 0 
0 0 0 0 0 0 0 0 0 
0 0 0 0 0 0 0 0 0 
0 0 0 0 0 0 0 0 0 
0 0 0 0 0 0 0 0 0 
0 0 0 0 0 0 0 0 0 
0 0 0 0 0 0 0 0 0 
0 0 0 0 0 0 0 0 0 
0 0 0 0 0 0 0 0 0 
0 0 0 0 0 0 0 0 0 
0 0 0 0 0 0 0 0 0 
0 0 0 0 0 0 0 0 0 
0 0 0 0 0 0 0 0 0 
0 0 0 0 0 0 0 0 0 
0 0 0 0 0 0 0 0 0 
0 0 0 0 0 0 0 0 0 
0 0 0 0 0 0 0 0 0 
0 0 0 0 0 0 0 0 0 
0 0 0 0 0 0 0 0 0 
0 0 0 0 0 0 0 0 0 
0 0 0 0 0 0 0 0 0 
0 0 0 0 0 0 0 0 0 
0 0 0 0 0 0 0 0 0 
0 0 0 0 0 0 0 0 0 
0 0 0 0 0 0 0 0 0 
0 0 0 0 0 0 0 0 0 
0 0 0 0 0 0 0 0 0 
0 0 0 0 0 0 0 0 0 
0 0 0 0 0 0 0 0 0 
0 0 0 0 0 0 0 0 0 
0 0 0 0 0 0 0 0 0 
0 0 0 0 0 0 0 0 0 
0 0 0 0 0 0 0 0 0 
0 0 0 0 0 0 0 0 0 
0 0 0 0 0 0 0 0 0 
0 0 0 0 0 0 0 0 0 
0 0 0 0 0 0 0 0 0 
0 0 0 0 0 0 0 0 0 
0 0 0 0 0 0 0 0 0 
0 0 0 0 0 0 0 0 0 
0 0 0 0 0 0 0 0 0 
0 0 0 0 0 0 0 0 0 
0 0 0 0 0 0 0 0 0 
0 0 0 0 0 0 0 0 0 
0 0 0 0 0 0 0 0 0 
0 0 0 0 0 0 0 0 0 
0 0 0 0 0 0 0 0 0 
0 0 0 0 0 0 0 0 0 
0 0 0 0 0 0 0 0 0 
0 0 0 0 0 0 0 0 0 
0 0 0 0 0 0 0 0 0 
0 0 0 0 0 0 0 0 0 
0 0 0 0 0 0 0 0 0 
0 0 0 0 0 0 0 0 0 
0 0 0 0 0 0 0 0 0 
0 0 0 0 0 0 0 0 0 
0 0 0 0 0 0 0 0 0 
0 0 0 0 0 0 0 0 0 
0 0 0 0 0 0 0 0 0 
0 0 0 0 0 0 0 0 0 
0 0 0 0 0 0 0 0 0 
0 0 0 0 0 0 0 0 0 
0 0 0 0 0 0 0 0 0 
0 0 0 0 0 0 0 0 0 
0 0 0 0 0 0 0 0 0 
0 0 0 0 0 0 0 0 0 
0 0 0 0 0 0 0 0 0 
0 0 0 0 0 0 0 0 0 
0 0 0 0 0 0 0 0 0 
0 0 0 0 0 0 0 0 0 
0 0 0 0 0 0 0 0 0 
0 0 0 0 0 0 0 0 0 
0 0 0 0 0 0 0 0 0 
0 0 0 0 0 0 0 0 0 
0 0 0 0 0 0 0 0 0 
0 0 0 0 0 0 0 0 0 
0 0 0 0 0 0 0 0 0 
0 0 0 0 0 0 0 0 0 
0 0 0 0 0 0 0 0 0 
0 0 0 0 0 0 0 0 0 
0 0 0 0 0 0 0 0 0 
0 0 0 0 0 0 0 0 0 
0 0 0 0 0 0 0 0 0 
0 0 0 0 0 0 0 0 0 
0 0 0 0 0 0 0 0 0 
0 0 0 0 0 0 0 0 0 
0 0 0 0 0 0 0 0 0 
0 0 0 0 0 0 0 0 0 
0 0 0 0 0 0 0 0 0 
0 0 0 0 0 0 0 0 0 
0 0 0 0 0 0 0 0 0 
0 0 0 0 0 0 0 0 0 
0 0 0 0 0 0 0 0 0 
0 0 0 0 0 0 0 0 0 
0 0 0 0 0 0 0 0 0 
0 0 0 0 0 0 0 0 0 
0 0 0 0 0 0 0 0 0 
0 0 0 0 0 0 0 0 0 
0 0 0 0 0 0 0 0 0 
0 0 0 0 0 0 0 0 0 
0 0 0 0 0 0 0 0 0 
0 0 0 0 0 0 0 0 0 
0 0 0 0 0 0 0 0 0 
0 0 0 0 0 0 0 0 0 
0 0 0 0 0 0 0 0 0 
0 0 0 0 0 0 0 0 0 
0 0 0 0 0 0 0 0 0 
0 0 0 0 0 0 0 0 0 
0 0 0 0 0 0 0 0 0 
0 0 0 0 0 0 0 0 0 
0 0 0 0 0 0 0 0 0 
0 0 0 0 0 0 0 0 0 
0 0 0 0 0 0 0 0 0 
0 0 0 0 0 0 0 0 0 
0 0 0 0 0 0 0 0 0 
0 0 0 0 0 0 0 0 0 
0 0 0 0 0 0 0 0 0 
0 0 0 0 0 0 0 0 0 
0 0 0 0 0 0 0 0 0 
0 0 0 0 0 0 0 0 0 
0 0 0 0 0 0 0 0 0 
0 0 0 0 0 0 0 0 0 
0 0 0 0 0 0 0 0 0 
0 0 0 0 0 0 0 0 0 
0 0 0 0 0 0 0 0 0 
0 0 0 0 0 0 0 0 0 
0 0 0 0 0 0 0 0 0 
0 0 0 0 0 0 0 0 0 
0 0 0 0 0 0 0 0 0 
0 0 0 0 0 0 0 0 0 
0 0 0 0 0 0 0 0 0 
0 0 0 0 0 0 0 0 0 
0 0 0 0 0 0 0 0 0 
0 0 0 0 0 0 0 0 0 
0 0 0 0 0 0 0 0 0 
0 0 0 0 0 0 0 0 0 
0 0 0 0 0 0 0 0 0 
0 0 0 0 0 0 0 0 0 
0 0 0 0 0 0 0 0 0 
0 0 0 0 0 0 0 0 0 
0 0 0 0 0 0 0 0 0 
0 0 0 0 0 0 0 0 0 
0 0 0 0 0 0 0 0 0 
0 0 0 0 0 0 0 0 0 
0 0 0 0 0 0 0 0 0 
0 0 0 0 0 0 0 0 0 
0 0 0 0 0 0 0 0 0 
0 0 0 0 0 0 0 0 0 
0 0 0 0 0 0 0 0 0 
0 0 0 0 0 0 0 0 0 
0 0 0 0 0 0 0 0 0 
0 0 0 0 0 0 0 0 0 
0 0 0 0 0 0 0 0 0 
0 0 0 0 0 0 0 0 0 
0 0 0 0 0 0 0 0 0 
0 0 0 0 0 0 0 0 0 
0 0 0 0 0 0 0 0 0 
0 0 0 0 0 0 0 0 0 
0 0 0 0 0 0 0 0 0 
0 0 0 0 0 0 0 0 0 
0 0 0 0 0 0 0 0 0 
0 0 0 0 0 0 0 0 0 
0 0 0 0 0 0 0 0 0 
0 0 0 0 0 0 0 0 0 
0 0 0 0 0 0 0 0 0 
0 0 0 0 0 0 0 0 0 
0 0 0 0 0 0 0 0 0 
0 0 0 0 0 0 0 0 0 
0 0 0 0 0 0 0 0 0 
0 0 0 0 0 0 0 0 0 
0 0 0 0 0 0 0 0 0 
0 0 0 0 0 0 0 0 0 
0 0 0 0 0 0 0 0 0 
0 0 0 0 0 0 0 0 0 
0 0 0 0 0 0 0 0 0 
0 0 0 0 0 0 0 0 0 
0 0 0 0 0 0 0 0 0 
0 0 0 0 0 0 0 0 0 
0 0 0 0 0 0 0 0 0 
0 0 0 0 0 0 0 0 0 
0 0 0 0 0 0 0 0 0 
0 0 0 0 0 0 0 0 0 
0 0 0 0 0 0 0 0 0 
0 0 0 0 0 0 0 0 0 
0 0 0 0 0 0 0 0 0 
0 0 0 0 0 0 0 0 0 
0 0 0 0 0 0 0 0 0 
0 0 0 0 0 0 0 0 0 
0 0 0 0 0 0 0 0 0 
0 0 0 0 0 0 0 0 0 
0 0 0 0 0 0 0 0 0 
0 0 0 0 0 0 0 0 0 
0 0 0 0 0 0 0 0 0 
0 0 0 0 0 0 0 0 0 
0 0 0 0 0 0 0 0 0 
0 0 0 0 0 0 0 0 0 
0 0 0 0 0 0 0 0 0 
0 0 0 0 0 0 0 0 0 
0 0 0 0 0 0 0 0 0 
0 0 0 0 0 0 0 0 0 
0 0 0 0 0 0 0 0 0 
0 0 0 0 0 0 0 0 0 
0 0 0 0 0 0 0 0 0 
0 0 0 0 0 0 0 0 0 
0 0 0 0 0 0 0 0 0 
0 0 0 0 0 0 0 0 0 
0 0 0 0 0 0 0 0 0 
0 0 0 0 0 0 0 0 0 
0 0 0 0 0 0 0 0 0 
0 0 0 0 0 0 0 0 0 
0 0 0 0 0 0 0 0 0 
0 0 0 0 0 0 0 0 0 
0 0 0 0 0 0 0 0 0 
0 0 0 0 0 0 0 0 0 
0 0 0 0 0 0 0 0 0 
0 0 0 0 0 0 0 0 0 
0 0 0 0 0 0 0 0 0 
0 0 0 0 0 0 0 0 0 
0 0 0 0 0 0 0 0 0 
0 0 0 0 0 0 0 0 0 
0 0 0 0 0 0 0 0 0 
0 0 0 0 0 0 0 0 0 
0 0 0 0 0 0 0 0 0 
0 0 0 0 0 0 0 0 0 
0 0 0 0 0 0 0 0 0 
0 0 0 0 0 0 0 0 0 
0 0 0 0 0 0 0 0 0 
0 0 0 0 0 0 0 0 0 
0 0 0 0 0 0 0 0 0 
0 0 0 0 0 0 0 0 0 
0 0 0 0 0 0 0 0 0 
0 0 0 0 0 0 0 0 0 
0 0 0 0 0 0 0 0 0 
0 0 0 0 0 0 0 0 0 
0 0 0 0 0 0 0 0 0 
0 0 0 0 0 0 0 0 0 
0 0 0 0 0 0 0 0 0 
0 0 0 0 0 0 0 0 0 
0 0 0 0 0 0 0 0 0 
0 0 0 0 0 0 0 0 0 
0 0 0 0 0 0 0 0 0 
0 0 0 0 0 0 0 0 0 
0 0 0 0 0 0 0 0 0 
0 0 0 0 0 0 0 0 0 
0 0 0 0 0 0 0 0 0 
0 0 0 0 0 0 0 0 0 
0 0 0 0 0 0 0 0 0 
0 0 0 0 0 0 0 0 0 
0 0 0 0 0 0 0 0 0 
0 0 0 0 0 0 0 0 0 
0 0 0 0 0 0 0 0 0 
0 0 0 0 0 0 0 0 0 
0 0 0 0 0 0 0 0 0 
0 0 0 0 0 0 0 0 0 
0 0 0 0 0 0 0 0 0 
0 0 0 0 0 0 0 0 0 
0 0 0 0 0 0 0 0 0 
0 0 0 0 0 0 0 0 0 
0 0 0 0 0 0 0 0 0 
0 0 0 0 0 0 0 0 0 
0 0 0 0 0 0 0 0 0 
0 0 0 0 0 0 0 0 0 
0 0 0 0 0 0 0 0 0 
0 0 0 0 0 0 0 0 0 
0 0 0 0 0 0 0 0 0 
0 0 0 0 0 0 0 0 0 
0 0 0 0 0 0 0 0 0 
0 0 0 0 0 0 0 0 0 
0 0 0 0 0 0 0 0 0 
0 0 0 0 0 0 0 0 0 
0 0 0 0 0 0 0 0 0 
0 0 0 0 0 0 0 0 0 
0 0 0 0 0 0 0 0 0 
0 0 0 0 0 0 0 0 0 
0 0 0 0 0 0 0 0 0 
0 0 0 0 0 0 0 0 0 
0 0 0 0 0 0 0 0 0 
0 0 0 0 0 0 0 0 0 
0 0 0 0 0 0 0 0 0 
0 0 0 0 0 0 0 0 0 
0 0 0 0 0 0 0 0 0 
0 0 0 0 0 0 0 0 0 
0 0 0 0 0 0 0 0 0 
0 0 0 0 0 0 0 0 0 
0 0 0 0 0 0 0 0 0 
0 0 0 0 0 0 0 0 0 
0 0 0 0 0 0 0 0 0 
0 0 0 0 0 0 0 0 0 
0 0 0 0 0 0 0 0 0 
0 0 0 0 0 0 0 0 0 
0 0 0 0 0 0 0 0 0 
0 0 0 0 0 0 0 0 0 
0 0 0 0 0 0 0 0 0 
0 0 0 0 0 0 0 0 0 
0 0 0 0 0 0 0 0 0 
0 0 0 0 0 0 0 0 0 
0 0 0 0 0 0 0 0 0 
0 0 0 0 0 0 0 0 0 
0 0 0 0 0 0 0 0 0 
0 0 0 0 0 0 0 0 0 
0 0 0 0 0 0 0 0 0 
0 0 0 0 0 0 0 0 0 
0 0 0 0 0 0 0 0 0 
0 0 0 0 0 0 0 0 0 
0 0 0 0 0 0 0 0 0 
0 0 0 0 0 0 0 0 0 
0 0 0 0 0 0 0 0 0 
0 0 0 0 0 0 0 0 0 
0 0 0 0 0 0 0 0 0 
0 0 0 0 0 0 0 0 0 
0 0 0 0 0 0 0 0 0 
0 0 0 0 0 0 0 0 0 
0 0 0 0 0 0 0 0 0 
0 0 0 0 0 0 0 0 0 
0 0 0 0 0 0 0 0 0 
0 0 0 0 0 0 0 0 0 
0 0 0 0 0 0 0 0 0 
0 0 0 0 0 0 0 0 0 
0 0 0 0 0 0 0 0 0 
0 0 0 0 0 0 0 0 0 
0 0 0 0 0 0 0 0 0 
0 0 0 0 0 0 0 0 0 
0 0 0 0 0 0 0 0 0 
0 0 0 0 0 0 0 0 0 
0 0 0 0 0 0 0 0 0 
0 0 0 0 0 0 0 0 0 
0 0 0 0 0 0 0 0 0 
0 0 0 0 0 0 0 0 0 
0 0 0 0 0 0 0 0 0 
0 0 0 0 0 0 0 0 0 
0 0 0 0 0 0 0 0 0 
0 0 0 0 0 0 0 0 0 
0 0 0 0 0 0 0 0 0 
0 0 0 0 0 0 0 0 0 
0 0 0 0 0 0 0 0 0 
0 0 0 0 0 0 0 0 0 
0 0 0 0 0 0 0 0 0 
0 0 0 0 0 0 0 0 0 
0 0 0 0 0 0 0 0 0 
0 0 0 0 0 0 0 0 0 
0 0 0 0 0 0 0 0 0 
0 0 0 0 0 0 0 0 0 
0 0 0 0 0 0 0 0 0 
0 0 0 0 0 0 0 0 0 
0 0 0 0 0 0 0 0 0 
0 0 0 0 0 0 0 0 0 
0 0 0 0 0 0 0 0 0 
0 0 0 0 0 0 0 0 0 
0 0 0 0 0 0 0 0 0 
0 0 0 0 0 0 0 0 0 
0 0 0 0 0 0 0 0 0 
0 0 0 0 0 0 0 0 0 
0 0 0 0 0 0 0 0 0 
0 0 0 0 0 0 0 0 0 
0 0 0 0 0 0 0 0 0 
0 0 0 0 0 0 0 0 0 
0 0 0 0 0 0 0 0 0 
0 0 0 0 0 0 0 0 0 
0 0 0 0 0 0 0 0 0 
0 0 0 0 0 0 0 0 0 
0 0 0 0 0 0 0 0 0 
0 0 0 0 0 0 0 0 0 
0 0 0 0 0 0 0 0 0 
0 0 0 0 0 0 0 0 0 
0 0 0 0 0 0 0 0 0 
0 0 0 0 0 0 0 0 0 
0 0 0 0 0 0 0 0 0 
0 0 0 0 0 0 0 0 0 
0 0 0 0 0 0 0 0 0 
0 0 0 0 0 0 0 0 0 
0 0 0 0 0 0 0 0 0 
0 0 0 0 0 0 0 0 0 
0 0 0 0 0 0 0 0 0 
0 0 0 0 0 0 0 0 0 
0 0 0 0 0 0 0 0 0 
0 0 0 0 0 0 0 0 0 
0 0 0 0 0 0 0 0 0 
0 0 0 0 0 0 
v 3 1355 double
-0.00528679 0.00231272 -0.00136418 0.00276471 0.000724444 -0.00221257 0.0017617 0.000112258 0.000326279 
-0.000434573 1.35777e-05 0.000747227 0.00111551 0.00206078 0.00227789 0.00234158 0.00228239 0.00330482 
0.00304472 -0.00466493 0.00571316 0.00478193 0.00175958 0.00337824 -0.00408961 0.00212188 7.14498e-05 
-0.00416649 0.00309287 0.00205656 0.002478 0.00204613 0.000297953 0.00373475 0.00157326 0.00179928 
0.00235082 0.000187071 0.000292232 0.00277628 -0.00105978 -0.00189161 0.00112309 0.00135647 -0.000312789 
-0.000763405 -3.93555e-05 0.000809742 0.00084539 -0.000933102 0.000168953 0.000278424 0.000311539 1.48373e-06 
0.000415427 -2.56728e-05 -0.000530539 0.000240886 0.000234809 -0.000202994 0.000179759 1.81917e-05 -0.000243969 
0.000150258 -5.31281e-05 -6.20556e-05 -0.000752369 0.00799978 -0.000303678 -0.000504967 0.00321143 0.000871025 
0.00446693 0.000128189 -0.00271642 0.000975132 0.00139166 0.00104546 0.00180866 0.00192252 0.00199217 
0.00313132 0.00764048 0.00163306 0.00551209 0.000850101 0.00387853 0.00737609 0.000485777 -0.00142056 
-0.0094708 -0.00835853 -0.00315905 -0.00612392 0.00482815 0.00406654 0.00407097 -0.00251552 0.000495763 
0.000826167 0.000114967 0.000994643 -7.26825e-05 -0.000153048 -0.00103731 0.00193454 0.000472469 0.00143811 
-0.000303558 0.000232277 0.00188989 0.0011063 -0.00305271 0.000559729 -0.000482713 -4.61921e-05 5.10351e-05 
-0.000363065 0.000513577 -0.000358019 0.000188923 0.000154337 -0.000112629 0.000434934 6.12758e-05 -0.000269603 
0.000174502 4.75042e-05 -7.6176e-05 4.82402e-05 -2.10124e-05 2.8809e-05 -0.000927615 0.00880864 -0.00111409 
0.000220881 0.00376756 -0.00330698 -0.000836172 0.00233888 -0.000901401 0.00250613 0.00243026 -0.00359158 
0.00365148 0.000914221 0.00344706 0.00849312 0.010329 0.00101006 0.0128408 0.00425571 0.00178327 
0.00332023 0.000551411 0.00023018 0.00544735 -0.0103941 0.0025594 -0.00240913 0.00519467 0.00744437 
0.00406903 0.0057851 0.0176983 -0.000999778 -0.00231858 0.00610189 0.000985615 -0.00444458 0.0026681 
-5.84749e-05 -0.00512966 0.00381401 -0.00069677 0.00239125 -0.000816527 0.000783237 -0.00134432 0.000734313 
0.00182462 -0.0026687 -0.000835981 0.00133903 -0.000442666 -8.15813e-05 -6.93656e-05 0.00033221 -1.83806e-05 
0.000394761 0.00023523 -7.9224e-05 0.000276262 6.35195e-05 3.67237e-05 2.10954e-05 0.000114248 -5.72923e-05 
0.000939222 0.00888679 -0.0010198 0.000910728 0.0010293 -0.00101757 -0.000737182 0.00515577 -3.73137e-05 
0.00588825 0.000916198 -0.000383647 0.00843172 0.00562153 0.000706625 0.00766368 0.00916839 -0.005382 