# vtk DataFile Version 4.0
Generated by LIGGGHTS
ASCII
DATASET POLYDATA
POINTS 1355 float
-0.899564 -0.460714 -0.460295 -0.765712 -0.460351 -0.460404 -0.686051 -0.460125 -0.460264 
-0.60615 -0.46073 -0.460297 -0.524969 -0.460603 -0.460592 -0.445163 -0.460255 -0.460449 
-0.365275 -0.460034 -0.460673 -0.278684 -0.460449 -0.460624 -0.154952 -0.460447 -0.460337 
-0.0748023 -0.452961 -0.460433 0.00463849 -0.460147 -0.460419 0.084419 -0.460025 -0.460394 
0.164193 -0.460157 -0.460388 0.244161 -0.460208 -0.460443 0.324049 -0.460141 -0.4605 
0.40381 -0.459751 -0.46053 0.48361 -0.460061 -0.460558 0.578291 -0.46028 -0.460414 
0.658156 -0.460451 -0.460474 0.739506 -0.460115 -0.460589 0.819285 -0.460413 -0.460582 
0.901214 -0.460303 -0.460414 -0.960661 -0.410094 -0.461066 -0.886219 -0.382283 -0.460638 
-0.729394 -0.389418 -0.461112 -0.645106 -0.39164 -0.460462 -0.565545 -0.392471 -0.460221 
-0.485797 -0.391279 -0.460448 -0.405889 -0.391047 -0.460496 -0.328678 -0.371689 -0.460249 
-0.209221 -0.402262 -0.460493 -0.131183 -0.384392 -0.460963 0.0437604 -0.390631 -0.460549 
0.124456 -0.390821 -0.460689 0.204371 -0.391208 -0.460413 0.28426 -0.39103 -0.460494 
0.364056 -0.38968 -0.460604 0.443753 -0.383655 -0.460451 0.531066 -0.395799 -0.460483 
0.617686 -0.391121 -0.460797 0.697895 -0.391898 -0.460382 0.7799 -0.391065 -0.460167 
0.85988 -0.391957 -0.46075 0.960282 -0.407017 -0.460461 -0.96016 -0.330542 -0.46013 
-0.885496 -0.302564 -0.460808 -0.808975 -0.363069 -0.460512 -0.684778 -0.323071 -0.46162 
-0.564114 -0.313529 -0.461017 -0.484538 -0.311589 -0.460376 -0.397622 -0.311622 -0.460311 
-0.256249 -0.338302 -0.460769 -0.179178 -0.31761 -0.460156 -0.0995831 -0.311276 -0.461231 
-0.0280868 -0.355599 -0.460381 0.0382174 -0.311 -0.460302 0.165054 -0.322136 -0.460614 
0.244761 -0.321823 -0.460648 0.324354 -0.316445 -0.460312 0.40406 -0.314267 -0.460569 
0.490835 -0.319082 -0.460543 0.570364 -0.32623 -0.460566 0.657835 -0.32231 -0.460102 
0.73756 -0.32343 -0.46063 0.881882 -0.315498 -0.460919 0.960377 -0.32763 -0.460395 
-0.960072 -0.250877 -0.460105 -0.808575 -0.283164 -0.460319 -0.733559 -0.25623 -0.460201 
-0.628692 -0.267092 -0.460094 -0.529898 -0.242305 -0.460716 -0.450138 -0.239563 -0.460742 
-0.320261 -0.292228 -0.460728 -0.0311422 -0.271287 -0.460681 0.106169 -0.269299 -0.460501 
0.181594 -0.2426 -0.460115 0.319677 -0.236548 -0.46012 0.532798 -0.25124 -0.460897 
0.612348 -0.25681 -0.460124 0.698719 -0.253659 -0.460271 0.779005 -0.255725 -0.460311 
0.881718 -0.235708 -0.460322 0.960297 -0.248242 -0.460592 -0.960321 -0.171157 -0.460202 
-0.885358 -0.222569 -0.460179 -0.8077 -0.203566 -0.460838 -0.675233 -0.202251 -0.460336 
-0.594464 -0.195547 -0.460061 -0.497493 -0.16981 -0.460279 -0.418275 -0.166657 -0.460374 
-0.370784 -0.230902 -0.460397 -0.289165 -0.218767 -0.460568 -0.198369 -0.227647 -0.460627 
-0.113275 -0.232427 -0.460191 -0.044002 -0.192481 -0.460547 0.0369964 -0.230593 -0.460462 
0.100539 -0.180182 -0.460249 0.250109 -0.196033 -0.460839 0.385803 -0.191132 -0.46039 
0.46097 -0.217607 -0.460508 0.568328 -0.179677 -0.460836 0.648658 -0.185768 -0.460822 
0.728241 -0.179359 -0.46052 0.818709 -0.186959 -0.460342 0.960332 -0.168809 -0.460473 
-0.893681 -0.127972 -0.46047 -0.813914 -0.124244 -0.460099 -0.741894 -0.158268 -0.460857 
-0.640755 -0.130713 -0.460557 -0.561825 -0.123151 -0.460339 -0.339425 -0.157551 -0.460636 
-0.237102 -0.158138 -0.460262 -0.153304 -0.161935 -0.460771 -0.0839262 -0.115377 -0.460118 
0.0258938 -0.152162 -0.460817 0.124708 -0.103326 -0.460472 0.178271 -0.161933 -0.460378 
0.31631 -0.151974 -0.460314 0.4217 -0.102902 -0.460998 0.496183 -0.1369 -0.46044 
0.613861 -0.114055 -0.460539 0.813126 -0.107642 -0.460627 0.885383 -0.141716 -0.460437 
-0.960082 -0.0823215 -0.460467 -0.857054 -0.0574581 -0.461172 -0.777615 -0.0531666 -0.460418 
-0.704262 -0.0834109 -0.460576 -0.585651 -0.0469221 -0.460792 -0.508005 -0.0650504 -0.460281 
-0.428806 -0.0744753 -0.460595 -0.349457 -0.079142 -0.460942 -0.270246 -0.0858135 -0.460318 
-0.190683 -0.0913936 -0.460513 -0.0106353 -0.0823274 -0.460156 0.0632703 -0.0529729 -0.460578 
0.200774 -0.0738995 -0.460612 0.280062 -0.080948 -0.460614 0.356316 -0.057593 -0.460374 
0.545027 -0.0735933 -0.460358 0.658746 -0.0457743 -0.460319 0.737979 -0.0804705 -0.461149 
0.96025 -0.0891511 -0.460818 -0.92236 -0.0122671 -0.460449 -0.82156 0.0132077 -0.460169 
-0.742408 0.0183531 -0.460486 -0.668695 -0.0118693 -0.460763 -0.558714 0.0309676 -0.460229 
-0.471806 0.00535768 -0.460641 -0.385188 -0.00796184 -0.460393 -0.305181 -0.0137671 -0.460358 
-0.226354 -0.019463 -0.460308 -0.147893 -0.0243772 -0.460499 -0.0705596 -0.0314029 -0.460821 
0.00213711 -0.00228303 -0.46042 0.0758437 0.0256878 -0.460711 0.137865 -0.0247364 -0.460617 
0.211777 0.00555513 -0.460677 0.29312 -0.00233889 -0.460116 0.369429 0.0209819 -0.460435 
0.435189 -0.0241499 -0.460183 0.509961 -0.0045711 -0.440249 0.586955 -0.00575125 -0.460679 
0.686953 0.0290826 -0.460119 0.759928 -0.00360135 -0.460118 0.838012 -0.0321157 -0.460413 
0.916869 -0.0226689 -0.460895 -0.960601 0.0571194 -0.460528 -0.88149 0.0649185 -0.461275 
-0.786963 0.0846817 -0.460801 -0.707379 0.089369 -0.460728 -0.633171 0.0597786 -0.460755 
-0.496786 0.0814729 -0.460175 -0.4193 0.0639625 -0.460221 -0.339947 0.0574549 -0.460299 
-0.260494 0.0523324 -0.460488 -0.180946 0.0476163 -0.460479 -0.100774 0.0423478 -0.460263 
0.0145296 0.076229 -0.460369 0.148911 0.0540176 -0.460337 0.259219 0.0698216 -0.460213 
0.392465 0.0969562 -0.460655 0.459042 0.0534898 -0.460696 0.537174 0.067139 -0.46082 
0.61695 0.0677186 -0.460495 0.752129 0.0830674 -0.460712 0.822806 0.0457656 -0.460258 
0.89273 0.0860882 -0.460577 0.960375 0.0440402 -0.46026 -0.960201 0.136368 -0.460585 
-0.847055 0.136948 -0.460373 -0.77024 0.158993 -0.437709 -0.64503 0.138756 -0.460504 
-0.570287 0.111702 -0.460145 -0.503046 0.162662 -0.461508 -0.374637 0.12855 -0.460841 
-0.295587 0.123675 -0.460584 -0.216133 0.118892 -0.460488 -0.136464 0.113726 -0.460333 
-0.0572554 0.109483 -0.460223 0.0882772 0.105927 -0.460526 0.195332 0.117234 -0.460976 
0.304684 0.142585 -0.460635 0.487655 0.130361 -0.460533 0.572299 0.137882 -0.460837 
0.652001 0.138876 -0.460294 0.753589 0.162881 -0.46058 0.82319 0.12512 -0.460424 
0.891099 0.16603 -0.460463 0.960599 0.127839 -0.460439 -0.960316 0.215572 -0.460636 
-0.824041 0.213325 -0.460472 -0.702589 0.193867 -0.460824 -0.415082 0.196785 -0.460564 
-0.331976 0.19448 -0.46069 -0.251879 0.190059 -0.460575 -0.171483 0.185034 -0.460475 
-0.0917416 0.181318 -0.460352 -0.0119277 0.180561 -0.460497 0.0725339 0.184089 -0.460728 
0.152241 0.183814 -0.460342 0.235988 0.184655 -0.460641 0.345408 0.211128 -0.460365 
0.419064 0.171352 -0.460607 0.524714 0.201776 -0.460572 0.609388 0.207989 -0.460891 
0.68911 0.209018 -0.460258 0.821291 0.204962 -0.460519 0.960242 0.207686 -0.460353 
-0.960485 0.295475 -0.460145 -0.891656 0.255493 -0.460623 -0.822681 0.295132 -0.460692 
-0.753325 0.255528 -0.460112 -0.604448 0.239939 -0.461139 -0.525082 0.238888 -0.460812 
-0.451215 0.267891 -0.460291 -0.371767 0.26344 -0.460363 -0.288806 0.260407 -0.46063 
-0.207067 0.255673 -0.460393 -0.126891 0.252898 -0.460426 -0.0470513 0.25201 -0.460369 
0.0329672 0.252823 -0.460829 0.113495 0.253068 -0.460136 0.19352 0.252235 -0.460371 
0.275334 0.253311 -0.460513 0.384852 0.280629 -0.460453 0.455514 0.241649 -0.46074 
0.562582 0.272027 -0.461057 0.651891 0.279072 -0.460746 0.756611 0.251463 -0.46043 
0.890056 0.245124 -0.46031 -0.891685 0.335419 -0.460493 -0.706088 0.333342 -0.460637 
-0.625715 0.317021 -0.460312 -0.546012 0.315911 -0.460301 -0.429311 0.34418 -0.460567 
-0.328141 0.3293 -0.46055 -0.244166 0.325236 -0.460364 -0.164531 0.323006 -0.460214 
-0.0849492 0.321942 -0.460262 -0.00538862 0.322197 -0.460303 0.0742853 0.322053 -0.460291 
0.154398 0.32176 -0.460516 0.234331 0.321707 -0.460588 0.315198 0.322048 -0.460398 
0.423793 0.350371 -0.460445 0.493414 0.311554 -0.460789 0.60244 0.341435 -0.460439 
0.719277 0.321969 -0.460443 0.802422 0.32153 -0.460596 0.882096 0.323453 -0.460405 
0.959713 0.301815 -0.460774 -0.960327 0.375518 -0.460631 -0.891523 0.416193 -0.460307 
-0.822943 0.375146 -0.460123 -0.749748 0.405847 -0.460975 -0.652775 0.391943 -0.460376 
-0.573317 0.390929 -0.460471 -0.493676 0.390695 -0.460506 -0.370141 0.397097 -0.460203 
-0.282934 0.393654 -0.460317 -0.203062 0.392605 -0.460498 -0.123788 0.391506 -0.46018 
-0.044523 0.391238 -0.46022 0.0349651 0.391172 -0.460354 0.114689 0.390983 -0.460351 
0.194526 0.390904 -0.460466 0.274443 0.390846 -0.460558 0.354805 0.391064 -0.460418 
0.463275 0.41983 -0.460301 0.533058 0.38083 -0.460269 0.675849 0.388888 -0.460438 
0.755772 0.393256 -0.460622 0.840781 0.391573 -0.46036 0.921359 0.391905 -0.460787 
-0.960272 0.458705 -0.460414 -0.807895 0.460208 -0.460761 -0.692347 0.460707 -0.460771 
-0.612445 0.460461 -0.460583 -0.532864 0.460159 -0.460129 -0.453123 0.459653 -0.460561 
-0.323133 0.461125 -0.46036 -0.242581 0.461211 -0.460489 -0.162951 0.460778 -0.46031 
-0.0836882 0.460439 -0.460304 -0.00448136 0.460325 -0.460391 0.0750491 0.460224 -0.460395 
0.154744 0.460141 -0.460399 0.234556 0.460093 -0.460433 0.314461 0.460069 -0.460417 
0.394469 0.460225 -0.460179 0.531866 0.460371 -0.460739 0.620054 0.458866 -0.460315 
0.71185 0.460106 -0.460356 0.799729 0.460095 -0.460536 0.880785 0.460424 -0.460448 
0.960517 0.460552 -0.460292 -0.960233 -0.461161 -0.400837 -0.884712 -0.460149 -0.375507 
-0.726092 -0.460302 -0.391052 -0.64619 -0.46016 -0.391182 -0.565015 -0.460135 -0.391885 
-0.485143 -0.46019 -0.391651 -0.404774 -0.459906 -0.391597 -0.322293 -0.460028 -0.393898 
-0.219988 -0.460111 -0.406639 -0.114346 -0.460617 -0.391811 -0.0346909 -0.460663 -0.391233 
0.0447064 -0.46015 -0.391318 0.12425 -0.460295 -0.39123 0.204123 -0.460497 -0.391466 
0.284214 -0.460655 -0.391579 0.364039 -0.460617 -0.391546 0.443761 -0.460654 -0.391628 
0.530899 -0.460321 -0.396553 0.618665 -0.46014 -0.391428 0.699343 -0.455289 -0.39226 
[...]
POINT_DATA 1355
FIELD FieldData 7
id 1 1355 int
366 408 584 322 662 206 563 371 419 
523 551 145 607 585 151 530 365 186 
620 156 70 664 692 632 759 714 370 
120 208 723 59 512 435 712 211 457 
20 256 338 470 195 678 320 643 534 
171 196 105 493 581 542 514 245 234 
347 708 214 280 305 529 396 291 444 
367 476 155 724 314 136 721 375 250 
442 498 54 200 431 623 593 109 184 
446 647 159 267 289 373 275 324 96 
62 533 376 95 589 76 722 543 576 
75 202 572 683 676 680 445 83 641 
185 331 99 458 575 40 57 88 239 
31 281 298 126 300 48 521 531 428 
254 592 758 361 412 478 14 312 252 
153 397 483 704 321 140 726 143 142 
351 651 6 528 433 92 690 689 437 
359 154 569 304 439 339 170 540 639 
461 177 700 378 459 310 258 51 182 
549 369 323 121 382 507 2 495 224 
612 720 590 539 166 460 97 240 537 
127 580 85 544 293 697 634 129 104 
423 742 161 32 384 25 671 74 278 
675 383 71 266 19 22 627 717 162 
602 146 626 247 167 125 191 199 294 
586 640 441 637 596 149 475 463 387 
703 269 130 8 393 218 348 420 613 
663 16 578 402 682 421 715 299 698 
747 261 622 355 571 411 42 748 416 
227 391 527 557 346 67 274 319 242 
649 9 73 251 766 409 535 89 4 
260 318 650 259 388 311 94 618 39 
582 53 673 729 3 69 496 363 201 
188 599 670 228 519 667 472 669 660 
646 654 43 230 226 306 427 316 614 
764 329 545 179 389 12 453 440 197 
452 90 604 386 686 38 587 285 725 
743 181 518 225 761 513 5 559 72 
336 66 116 78 628 131 679 959 103 
273 1154 276 516 47 233 325 108 223 
666 157 455 205 175 287 221 56 751 
736 426 744 642 611 302 413 473 741 
684 118 653 18 770 15 82 272 100 
87 343 490 219 601 290 465 110 438 
372 767 631 255 879 552 307 699 636 
187 550 80 532 313 645 279 509 556 
114 757 144 81 668 58 615 944 616 
558 644 341 189 407 36 462 597 357 
394 565 554 29 511 334 282 570 424 
286 541 399 24 447 364 183 86 566 
492 501 718 169 886 248 33 422 11 
502 395 46 106 345 192 711 137 60 
44 112 497 429 479 27 45 694 326 
358 352 746 21 101 629 522 568 28 
271 710 236 524 111 737 102 818 134 
216 733 147 194 148 172 775 443 415 
738 84 1127 243 474 180 482 381 374 
436 638 450 253 425 93 827 91 215 
505 403 520 277 591 133 719 107 288 
350 762 193 546 41 970 333 231 330 
135 928 574 308 328 232 432 296 821 
659 1038 49 13 61 681 400 648 190 
128 392 610 209 971 35 665 122 503 
750 687 480 469 508 26 113 608 123 
222 709 340 456 606 297 760 17 292 
138 430 246 98 564 448 283 404 178 
244 132 63 583 464 891 600 1165 418 
417 547 763 499 229 494 385 617 672 
467 119 755 481 727 526 390 210 728 
249 217 871 769 354 158 510 7 739 
466 793 890 500 658 337 986 1166 846 
173 567 1184 573 468 781 927 735 809 
1066 1173 1152 925 685 933 814 921 414 
784 265 749 963 1288 943 504 787 268 
935 831 910 362 619 903 688 652 867 
1167 410 768 973 951 1062 754 1061 1170 
360 828 235 696 779 1115 875 1147 207 
932 241 702 1091 907 454 812 603 1255 
974 1162 848 914 829 379 176 982 838 
870 950 865 124 691 792 857 919 335 
317 406 1174 985 972 732 165 295 707 
937 952 765 204 349 904 894 901 79 
851 471 734 786 981 882 356 939 855 
141 489 577 491 969 674 536 1077 655 
621 918 861 824 895 487 1284 795 731 
800 309 50 605 1052 908 1065 30 1075 
434 677 892 52 801 486 905 947 1078 
301 776 962 805 990 332 164 1182 975 
836 815 630 893 1088 198 926 977 657 
794 954 922 835 656 888 633 730 911 
160 752 968 484 150 401 953 327 837 
695 477 220 10 555 380 803 876 515 
791 840 713 65 783 342 864 934 1137 
804 23 538 887 965 203 872 595 929 
994 873 598 884 1180 822 506 237 488 
284 1 344 1177 960 706 398 859 896 
869 716 55 1041 1156 830 856 1131 115 
257 1313 1142 562 966 139 263 850 174 
609 912 773 917 37 1118 900 368 881 
625 353 756 168 405 845 880 451 949 
117 525 1001 303 262 785 213 68 635 
64 661 553 152 753 817 701 594 984 
923 315 579 377 485 961 212 693 878 
938 1243 561 270 906 1079 1149 1312 1004 
866 823 1334 1143 988 1076 956 825 1006 
1330 163 1159 1123 1093 1231 930 1178 1290 
1051 958 1299 1305 1211 1113 1279 1110 1185 
849 1049 1133 1058 1302 1035 826 844 1116 
1339 1197 1160 1112 1073 832 1193 847 1217 
1003 1316 1032 1267 1347 1000 1344 1145 868 
999 1125 1266 1028 1221 1071 1086 1034 1186 
993 1097 1354 1187 802 1139 1285 1099 1014 
1022 1036 1015 808 995 1295 1054 1144 1056 
1008 1322 1021 1189 1321 1129 1246 902 1346 
1105 1283 1005 936 964 1103 1188 806 780 
789 1213 1315 1172 1158 1020 1095 1050 1111 
1138 916 992 1201 797 820 782 1089 1087 
833 1023 1130 1135 1270 1012 834 978 924 
1183 1119 1082 1083 1026 980 1216 1018 1039 
1319 967 1016 1273 839 1067 1349 1258 1176 
1179 1084 1010 1114 1048 931 1027 799 807 
1204 1150 1009 1109 34 842 810 1044 1333 
1274 1311 1171 1033 1046 1265 987 1100 1253 
1017 1203 860 790 774 1227 1153 1282 1081 
899 1080 1269 852 915 948 1096 946 1338 
1069 1057 1300 983 1029 955 1025 1206 841 
1007 1320 1043 798 811 1085 1175 1055 1126 
1309 1280 1101 998 976 1168 853 1134 813 
1281 940 1045 777 1053 796 1148 1063 1011 
1042 1229 1230 877 1256 1146 1157 771 909 
1277 1287 1181 1124 1019 1232 778 898 1353 
1102 854 449 1169 1225 1336 945 1070 1136 
885 1024 1117 1068 1254 740 1059 1307 1161 
1098 979 588 1040 1264 863 1064 1262 957 
883 238 517 816 897 788 624 1252 1250 
1190 1121 1303 1141 1233 1140 941 1132 1151 
1238 745 1327 1226 1107 1247 843 1306 1275 
1335 1276 1249 1251 1291 1214 1106 1210 1215 
1199 1031 1325 1308 1202 1122 1224 1272 1350 
1047 1297 1329 1341 1223 1263 1237 548 997 
1323 1348 1013 1194 1209 1235 1108 1343 1037 
1292 1228 1317 1331 1219 1342 1352 1304 1242 
1301 1260 1220 1294 1192 1205 1236 1326 1234 
1296 1355 1164 1345 1286 1060 1268 1191 1128 
862 1198 1278 1241 1259 1293 1248 1245 1240 
1196 1314 1289 1195 1328 1072 1351 1298 991 
1261 1094 1200 1310 1074 772 1244 1002 1332 
1257 1090 264 996 942 913 1318 1239 1212 
1337 920 1030 705 1208 1120 1340 1092 560 
1104 1218 989 1163 1222 819 1324 1155 1207 
874 889 1271 858 77 
type 1 1355 int
1 1 1 1 1 1 1 1 1 
1 1 1 1 1 1 1 1 1 
1 1 1 1 1 1 1 1 1 
1 1 1 1 1 1 1 1 1 
1 1 1 1 1 1 1 1 1 
1 1 1 1 1 1 1 1 1 
1 1 1 1 1 1 1 1 1 
1 1 1 1 1 1 1 1 1 
1 1 1 1 1 1 1 1 1 
1 1 1 1 1 1 1 1 1 
1 1 1 1 1 1 1 1 1 
1 1 1 1 1 1 1 1 1 
1 1 1 1 1 1 1 1 1 
1 1 1 1 1 1 1 1 1 
1 1 1 1 1 1 1 1 1 
1 1 1 1 1 1 1 1 1 
1 1 1 1 1 1 1 1 1 
1 1 1 1 1 1 1 1 1 
1 1 1 1 1 1 1 1 1 
1 1 1 1 1 1 1 1 1 
1 1 1 1 1 1 1 1 1 
1 1 1 1 1 1 1 1 1 
1 1 1 1 1 1 1 1 1 
1 1 1 1 1 1 1 1 1 
1 1 1 1 1 1 1 1 1 
1 1 1 1 1 1 1 1 1 
1 1 1 1 1 1 1 1 1 
1 1 1 1 1 1 1 1 1 
1 1 1 1 1 1 1 1 1 
1 1 1 1 1 1 1 1 1 
1 1 1 1 1 1 1 1 1 
1 1 1 1 1 1 1 1 1 
1 1 1 1 1 1 1 1 1 
1 1 1 1 1 1 1 1 1 
1 1 1 1 1 1 1 1 1 
1 1 1 1 1 1 1 1 1 
1 1 1 1 1 1 1 1 1 
1 1 1 1 1 1 1 1 1 
1 1 1 1 1 1 1 1 1 
1 1 1 1 1 1 1 1 1 
1 1 1 1 1 1 1 1 1 
1 1 1 1 1 1 1 1 1 
1 1 1 1 1 1 1 1 1 
1 1 1 1 1 1 1 1 1 
1 1 1 1 1 1 1 1 1 
1 1 1 1 1 1 1 1 1 
1 1 1 1 1 1 1 1 1 
1 1 1 1 1 1 1 1 1 
1 1 1 1 1 1 1 1 1 
1 1 1 1 1 1 1 1 1 
1 1 1 1 1 1 1 1 1 
1 1 1 1 1 1 1 1 1 
1 1 1 1 1 1 1 1 1 
1 1 1 1 1 1 1 1 1 
1 1 1 1 1 1 1 1 1 
1 1 1 1 1 1 1 1 1 
1 1 1 1 1 1 1 1 1 
1 1 1 1 1 1 1 1 1 
1 1 1 1 1 1 1 1 1 
1 1 1 1 1 1 1 1 1 
1 1 1 1 1 1 1 1 1 
1 1 1 1 1 1 1 1 1 
1 1 1 1 1 1 1 1 1 
1 1 1 1 1 1 1 1 1 
1 1 1 1 1 1 1 1 1 
1 1 1 1 1 1 1 1 1 
1 1 1 1 1 1 1 1 1 
1 1 1 1 1 1 1 1 1 
1 1 1 1 1 1 1 1 1 
1 1 1 1 1 1 1 1 1 
1 1 1 1 1 1 1 1 1 
1 1 1 1 1 1 1 1 1 
1 1 1 1 1 1 1 1 1 
1 1 1 1 1 1 1 1 1 
1 1 1 1 1 1 1 1 1 
1 1 1 1 1 1 1 1 1 
1 1 1 1 1 1 1 1 1 
1 1 1 1 1 1 1 1 1 
1 1 1 1 1 1 1 1 1 
1 1 1 1 1 1 1 1 1 
1 1 1 1 1 1 1 1 1 
1 1 1 1 1 1 1 1 1 
1 1 1 1 1 1 1 1 1 
1 1 1 1 1 1 1 1 1 
1 1 1 1 1 1 1 1 1 
1 1 1 1 1 1 1 1 1 
1 1 1 1 1 1 1 1 1 
1 1 1 1 1 1 1 1 1 
1 1 1 1 1 1 1 1 1 
1 1 1 1 1 1 1 1 1 
1 1 1 1 1 1 1 1 1 
1 1 1 1 1 1 1 1 1 
1 1 1 1 1 1 1 1 1 
1 1 1 1 1 1 1 1 1 
1 1 1 1 1 1 1 1 1 
1 1 1 1 1 1 1 1 1 
1 1 1 1 1 1 1 1 1 
1 1 1 1 1 1 1 1 1 
1 1 1 1 1 1 1 1 1 
1 1 1 1 1 1 1 1 1 
1 1 1 1 1 1 1 1 1 
1 1 1 1 1 1 1 1 1 
1 1 1 1 1 1 1 1 1 
1 1 1 1 1 1 1 1 1 
1 1 1 1 1 1 1 1 1 
1 1 1 1 1 1 1 1 1 
1 1 1 1 1 1 1 1 1 
1 1 1 1 1 1 1 1 1 
1 1 1 1 1 1 1 1 1 
1 1 1 1 1 1 1 1 1 
1 1 1 1 1 1 1 1 1 
1 1 1 1 1 1 1 1 1 
1 1 1 1 1 1 1 1 1 
1 1 1 1 1 1 1 1 1 
1 1 1 1 1 1 1 1 1 
1 1 1 1 1 1 1 1 1 
1 1 1 1 1 1 1 1 1 
1 1 1 1 1 1 1 1 1 
1 1 1 1 1 1 1 1 1 
1 1 1 1 1 1 1 1 1 
1 1 1 1 1 1 1 1 1 
1 1 1 1 1 1 1 1 1 
1 1 1 1 1 1 1 1 1 
1 1 1 1 1 1 1 1 1 
1 1 1 1 1 1 1 1 1 
1 1 1 1 1 1 1 1 1 
1 1 1 1 1 1 1 1 1 
1 1 1 1 1 1 1 1 1 
1 1 1 1 1 1 1 1 1 
1 1 1 1 1 1 1 1 1 
1 1 1 1 1 1 1 1 1 
1 1 1 1 1 1 1 1 1 
1 1 1 1 1 1 1 1 1 
1 1 1 1 1 1 1 1 1 
1 1 1 1 1 1 1 1 1 
1 1 1 1 1 1 1 1 1 
1 1 1 1 1 1 1 1 1 
1 1 1 1 1 1 1 1 1 
1 1 1 1 1 1 1 1 1 
1 1 1 1 1 1 1 1 1 
1 1 1 1 1 1 1 1 1 
1 1 1 1 1 1 1 1 1 
1 1 1 1 1 1 1 1 1 
1 1 1 1 1 1 1 1 1 
1 1 1 1 1 1 1 1 1 
1 1 1 1 1 1 1 1 1 
1 1 1 1 1 1 1 1 1 
1 1 1 1 1 1 1 1 1 
1 1 1 1 1 1 1 1 1 
1 1 1 1 1 1 1 1 1 
1 1 1 1 1 
i 3 1355 int
0 0 0 0 0 0 0 0 0 
0 0 0 0 0 0 0 0 0 
0 0 0 0 0 0 0 0 0 
0 0 0 0 0 0 0 0 0 
0 0 0 0 0 0 0 0 0 
0 0 0 0 0 0 0 0 0 
0 0 0 0 0 0 0 0 0 
0 0 0 0 0 0 0 0 0 
0 0 0 0 0 0 0 0 0 
0 0 0 0 0 0 0 0 0 
0 0 0 0 0 0 0 0 0 
0 0 0 0 0 0 0 0 0 
0 0 0 0 0 0 0 0 0 
0 0 0 0 0 0 0 0 0 
0 0 0 0 0 0 0 0 0 
0 0 0 0 0 0 0 0 0 
0 0 0 0 0 0 0 0 0 
0 0 0 0 0 0 0 0 0 
0 0 0 0 0 0 0 0 0 
0 0 0 0 0 0 0 0 0 
0 0 0 0 0 0 0 0 0 
0 0 0 0 0 0 0 0 0 
0 0 0 0 0 0 0 0 0 
0 0 0 0 0 0 0 0 0 
0 0 0 0 0 0 0 0 0 
0 0 0 0 0 0 0 0 0 
0 0 0 0 0 0 0 0 0 
0 0 0 0 0 0 0 0 0 
0 0 0 0 0 0 0 0 0 
0 0 0 0 0 0 0 0 0 
0 0 0 0 0 0 0 0 0 
0 0 0 0 0 0 0 0 0 
0 0 0 0 0 0 0 0 0 
0 0 0 0 0 0 0 0 0 
0 0 0 0 0 0 0 0 0 
0 0 0 0 0 0 0 0 0 
0 0 0 0 0 0 0 0 0 
0 0 0 0 0 0 0 0 0 
0 0 0 0 0 0 0 0 0 
0 0 0 0 0 0 0 0 0 
0 0 0 0 0 0 0 0 0 
0 0 0 0 0 0 0 0 0 
0 0 0 0 0 0 0 0 0 
0 0 0 0 0 0 0 0 0 
0 0 0 0 0 0 0 0 0 
0 0 0 0 0 0 0 0 0 
0 0 0 0 0 0 0 0 0 
0 0 0 0 0 0 0 0 0 
0 0 0 0 0 0 0 0 0 
0 0 0 0 0 0 0 0 0 
0 0 0 0 0 0 0 0 0 
0 0 0 0 0 0 0 0 0 
0 0 0 0 0 0 0 0 0 
0 0 0 0 0 0 0 0 0 
0 0 0 0 0 0 0 0 0 
0 0 0 0 0 0 0 0 0 
0 0 0 0 0 0 0 0 0 
0 0 0 0 0 0 0 0 0 
0 0 0 0 0 0 0 0 0 
0 0 0 0 0 0 0 0 0 
0 0 0 0 0 0 0 0 0 
0 0 0 0 0 0 0 0 0 
0 0 0 0 0 0 0 0 0 
0 0 0 0 0 0 0 0 0 
0 0 0 0 0 0 0 0 0 
0 0 0 0 0 0 0 0 0 
0 0 0 0 0 0 0 0 0 
0 0 0 0 0 0 0 0 0 
0 0 0 0 0 0 0 0 0 
0 0 0 0 0 0 0 0 0 
0 0 0 0 0 0 0 0 0 
0 0 0 0 0 0 0 0 0 
0 0 0 0 0 0 0 0 0 
0 0 0 0 0 0 0 0 0 
0 0 0 0 0 0 0 0 0 
0 0 0 0 0 0 0 0 0 
0 0 0 0 0 0 0 0 0 
0 0 0 0 0 0 0 0 0 
0 0 0 0 0 0 0 0 0 
0 0 0 0 0 0 0 0 0 
0 0 0 0 0 0 0 0 0 
0 0 0 0 0 0 0 0 0 
0 0 0 0 0 0 0 0 0 
0 0 0 0 0 0 0 0 0 
0 0 0 0 0 0 0 0 0 
0 0 0 0 0 0 0 0 0 
0 0 0 0 0 0 0 0 0 
0 0 0 0 0 0 0 0 0 
0 0 0 0 0 0 0 0 0 
0 0 0 0 0 0 0 0 0 
0 0 0 0 0 0 0 0 0 
0 0 0 0 0 0 0 0 0 
0 0 0 0 0 0 0 0 0 
0 0 0 0 0 0 0 0 0 
0 0 0 0 0 0 0 0 0 
0 0 0 0 0 0 0 0 0 
0 0 0 0 0 0 0 0 0 
0 0 0 0 0 0 0 0 0 
0 0 0 0 0 0 0 0 0 
0 0 0 0 0 0 0 0 0 
0 0 0 0 0 0 0 0 0 
0 0 0 0 0 0 0 0 0 
0 0 0 0 0 0 0 0 0 
0 0 0 0 0 0 0 0 0 
0 0 0 0 0 0 0 0 0 
0 0 0 0 0 0 0 0 0 
0 0 0 0 0 0 0 0 0 
0 0 0 0 0 0 0 0 0 
0 0 0 0 0 0 0 0 0 
0 0 0 0 0 0 0 0 0 
0 0 0 0 0 0 0 0 0 
0 0 0 0 0 0 0 0 0 
0 0 0 0 0 0 0 0 0 
0 0 0 0 0 0 0 0 0 
0 0 0 0 0 0 0 0 0 
0 0 0 0 0 0 0 0 0 
0 0 0 0 0 0 0 0 0 
0 0 0 0 0 0 0 0 0 
0 0 0 0 0 0 0 0 0 
0 0 0 0 0 0 0 0 0 
0 0 0 0 0 0 0 0 0 
0 0 0 0 0 0 0 0 0 
0 0 0 0 0 0 0 0 0 
0 0 0 0 0 0 0 0 0 
0 0 0 0 0 0 0 0 0 
0 0 0 0 0 0 0 0 0 
0 0 0 0 0 0 0 0 0 
0 0 0 0 0 0 0 0 0 
0 0 0 0 0 0 0 0 0 
0 0 0 0 0 0 0 0 0 
0 0 0 0 0 0 0 0 0 
0 0 0 0 0 0 0 0 0 
0 0 0 0 0 0 0 0 0 
0 0 0 0 0 0 0 0 0 
0 0 0 0 0 0 0 0 0 
0 0 0 0 0 0 0 0 0 
0 0 0 0 0 0 0 0 0 
0 0 0 0 0 0 0 0 0 
0 0 0 0 0 0 0 0 0 
0 0 0 0 0 0 0 0 0 
0 0 0 0 0 0 0 0 0 
0 0 0 0 0 0 0 0 0 
0 0 0 0 0 0 0 0 0 
0 0 0 0 0 0 0 0 0 
0 0 0 0 0 0 0 0 0 
0 0 0 0 0 0 0 0 0 
0 0 0 0 0 0 0 0 0 
0 0 0 0 0 0 0 0 0 
0 0 0 0 0 0 0 0 0 
0 0 0 0 0 0 0 0 0 
0 0 0 0 0 0 0 0 0 
0 0 0 0 0 0 0 0 0 
0 0 0 0 0 0 0 0 0 
0 0 0 0 0 0 0 0 0 
0 0 0 0 0 0 0 0 0 
0 0 0 0 0 0 0 0 0 
0 0 0 0 0 0 0 0 0 
0 0 0 0 0 0 0 0 0 
0 0 0 0 0 0 0 0 0 
0 0 0 0 0 0 0 0 0 
0 0 0 0 0 0 0 0 0 
0 0 0 0 0 0 0 0 0 
0 0 0 0 0 0 0 0 0 
0 0 0 0 0 0 0 0 0 
0 0 0 0 0 0 0 0 0 
0 0 0 0 0 0 0 0 0 
0 0 0 0 0 0 0 0 0 
0 0 0 0 0 0 0 0 0 
0 0 0 0 0 0 0 0 0 
0 0 0 0 0 0 0 0 0 
0 0 0 0 0 0 0 0 0 
0 0 0 0 0 0 0 0 0 
0 0 0 0 0 0 0 0 0 
0 0 0 0 0 0 0 0 0 
0 0 0 0 0 0 0 0 0 
0 0 0 0 0 0 0 0 0 
0 0 0 0 0 0 0 0 0 
0 0 0 0 0 0 0 0 0 
0 0 0 0 0 0 0 0 0 
0 0 0 0 0 0 0 0 0 
0 0 0 0 0 0 0 0 0 
0 0 0 0 0 0 0 0 0 
0 0 0 0 0 0 0 0 0 
0 0 0 0 0 0 0 0 0 
0 0 0 0 0 0 0 0 0 
0 0 0 0 0 0 0 0 0 
0 0 0 0 0 0 0 0 0 
0 0 0 0 0 0 0 0 0 
0 0 0 0 0 0 0 0 0 
0 0 0 0 0 0 0 0 0 
0 0 0 0 0 0 0 0 0 
0 0 0 0 0 0 0 0 0 
0 0 0 0 0 0 0 0 0 
0 0 0 0 0 0 0 0 0 
0 0 0 0 0 0 0 0 0 
0 0 0 0 0 0 0 0 0 
0 0 0 0 0 0 0 0 0 
0 0 0 0 0 0 0 0 0 
0 0 0 0 0 0 0 0 0 
0 0 0 0 0 0 0 0 0 
0 0 0 0 0 0 0 0 0 
0 0 0 0 0 0 0 0 0 
0 0 0 0 0 0 0 0 0 
0 0 0 0 0 0 0 0 0 
0 0 0 0 0 0 0 0 0 
0 0 0 0 0 0 0 0 0 
0 0 0 0 0 0 0 0 0 
0 0 0 0 0 0 0 0 0 
0 0 0 0 0 0 0 0 0 
0 0 0 0 0 0 0 0 0 
0 0 0 0 0 0 0 0 0 
0 0 0 0 0 0 0 0 0 
0 0 0 0 0 0 0 0 0 
0 0 0 0 0 0 0 0 0 
0 0 0 0 0 0 0 0 0 
0 0 0 0 0 0 0 0 0 
0 0 0 0 0 0 0 0 0 
0 0 0 0 0 0 0 0 0 
0 0 0 0 0 0 0 0 0 
0 0 0 0 0 0 0 0 0 
0 0 0 0 0 0 0 0 0 
0 0 0 0 0 0 0 0 0 
0 0 0 0 0 0 0 0 0 
0 0 0 0 0 0 0 0 0 
0 0 0 0 0 0 0 0 0 
0 0 0 0 0 0 0 0 0 
0 0 0 0 0 0 0 0 0 
0 0 0 0 0 0 0 0 0 
0 0 0 0 0 0 0 0 0 
0 0 0 0 0 0 0 0 0 
0 0 0 0 0 0 0 0 0 
0 0 0 0 0 0 0 0 0 
0 0 0 0 0 0 0 0 0 
0 0 0 0 0 0 0 0 0 
0 0 0 0 0 0 0 0 0 
0 0 0 0 0 0 0 0 0 
0 0 0 0 0 0 0 0 0 
0 0 0 0 0 0 0 0 0 
0 0 0 0 0 0 0 0 0 
0 0 0 0 0 0 0 0 0 
0 0 0 0 0 0 0 0 0 
0 0 0 0 0 0 0 0 0 
0 0 0 0 0 0 0 0 0 
0 0 0 0 0 0 0 0 0 
0 0 0 0 0 0 0 0 0 
0 0 0 0 0 0 0 0 0 
0 0 0 0 0 0 0 0 0 
0 0 0 0 0 0 0 0 0 
0 0 0 0 0 0 0 0 0 
0 0 0 0 0 0 0 0 0 
0 0 0 0 0 0 0 0 0 
0 0 0 0 0 0 0 0 0 
0 0 0 0 0 0 0 0 0 
0 0 0 0 0 0 0 0 0 
0 0 0 0 0 0 0 0 0 
0 0 0 0 0 0 0 0 0 
0 0 0 0 0 0 0 0 0 
0 0 0 0 0 0 0 0 0 
0 0 0 0 0 0 0 0 0 
0 0 0 0 0 0 0 0 0 
0 0 0 0 0 0 0 0 0 
0 0 0 0 0 0 0 0 0 
0 0 0 0 0 0 0 0 0 
0 0 0 0 0 0 0 0 0 
0 0 0 0 0 0 0 0 0 
0 0 0 0 0 0 0 0 0 
0 0 0 0 0 0 0 0 0 
0 0 0 0 0 0 0 0 0 
0 0 0 0 0 0 0 0 0 
0 0 0 0 0 0 0 0 0 
0 0 0 0 0 0 0 0 0 
0 0 0 0 0 0 0 0 0 
0 0 0 0 0 0 0 0 0 
0 0 0 0 0 0 0 0 0 
0 0 0 0 0 0 0 0 0 
0 0 0 0 0 0 0 0 0 
0 0 0 0 0 0 0 0 0 
0 0 0 0 0 0 0 0 0 
0 0 0 0 0 0 0 0 0 
0 0 0 0 0 0 0 0 0 
0 0 0 0 0 0 0 0 0 
0 0 0 0 0 0 0 0 0 
0 0 0 0 0 0 0 0 0 
0 0 0 0 0 0 0 0 0 
0 0 0 0 0 0 0 0 0 
0 0 0 0 0 0 0 0 0 
0 0 0 0 0 0 0 0 0 
0 0 0 0 0 0 0 0 0 
0 0 0 0 0 0 0 0 0 
0 0 0 0 0 0 0 0 0 
0 0 0 0 0 0 0 0 0 
0 0 0 0 0 0 0 0 0 
0 0 0 0 0 0 0 0 0 
0 0 0 0 0 0 0 0 0 
0 0 0 0 0 0 0 0 0 
0 0 0 0 0 0 0 0 0 
0 0 0 0 0 0 0 0 0 
0 0 0 0 0 0 0 0 0 
0 0 0 0 0 0 0 0 0 
0 0 0 0 0 0 0 0 0 
0 0 0 0 0 0 0 0 0 
0 0 0 0 0 0 0 0 0 
0 0 0 0 0 0 0 0 0 
0 0 0 0 0 0 0 0 0 
0 0 0 0 0 0 0 0 0 
0 0 0 0 0 0 0 0 0 
0 0 0 0 0 0 0 0 0 
0 0 0 0 0 0 0 0 0 
0 0 0 0 0 0 0 0 0 
0 0 0 0 0 0 0 0 0 
0 0 0 0 0 0 0 0 0 
0 0 0 0 0 0 0 0 0 
0 0 0 0 0 0 0 0 0 
0 0 0 0 0 0 0 0 0 
0 0 0 0 0 0 0 0 0 
0 0 0 0 0 0 0 0 0 
0 0 0 0 0 0 0 0 0 
0 0 0 0 0 0 0 0 0 
0 0 0 0 0 0 0 0 0 
0 0 0 0 0 0 0 0 0 
0 0 0 0 0 0 0 0 0 
0 0 0 0 0 0 0 0 0 
0 0 0 0 0 0 0 0 0 
0 0 0 0 0 0 0 0 0 
0 0 0 0 0 0 0 0 0 
0 0 0 0 0 0 0 0 0 
0 0 0 0 0 0 0 0 0 
0 0 0 0 0 0 0 0 0 
0 0 0 0 0 0 0 0 0 
0 0 0 0 0 0 0 0 0 
0 0 0 0 0 0 0 0 0 
0 0 0 0 0 0 0 0 0 
0 0 0 0 0 0 0 0 0 
0 0 0 0 0 0 0 0 0 
0 0 0 0 0 0 0 0 0 
0 0 0 0 0 0 0 0 0 
0 0 0 0 0 0 0 0 0 
0 0 0 0 0 0 0 0 0 
0 0 0 0 0 0 0 0 0 
0 0 0 0 0 0 0 0 0 
0 0 0 0 0 0 0 0 0 
0 0 0 0 0 0 0 0 0 
0 0 0 0 0 0 0 0 0 
0 0 0 0 0 0 0 0 0 
0 0 0 0 0 0 0 0 0 
0 0 0 0 0 0 0 0 0 
0 0 0 0 0 0 0 0 0 
0 0 0 0 0 0 0 0 0 
0 0 0 0 0 0 0 0 0 
0 0 0 0 0 0 0 0 0 
0 0 0 0 0 0 0 0 0 
0 0 0 0 0 0 0 0 0 
0 0 0 0 0 0 0 0 0 
0 0 0 0 0 0 0 0 0 
0 0 0 0 0 0 0 0 0 
0 0 0 0 0 0 0 0 0 
0 0 0 0 0 0 0 0 0 
0 0 0 0 0 0 0 0 0 
0 0 0 0 0 0 0 0 0 
0 0 0 0 0 0 0 0 0 
0 0 0 0 0 0 0 0 0 
0 0 0 0 0 0 0 0 0 
0 0 0 0 0 0 0 0 0 
0 0 0 0 0 0 0 0 0 
0 0 0 0 0 0 0 0 0 
0 0 0 0 0 0 0 0 0 
0 0 0 0 0 0 0 0 0 
0 0 0 0 0 0 0 0 0 
0 0 0 0 0 0 0 0 0 
0 0 0 0 0 0 0 0 0 
0 0 0 0 0 0 0 0 0 
0 0 0 0 0 0 0 0 0 
0 0 0 0 0 0 0 0 0 
0 0 0 0 0 0 0 0 0 
0 0 0 0 0 0 0 0 0 
0 0 0 0 0 0 0 0 0 
0 0 0 0 0 0 0 0 0 
0 0 0 0 0 0 0 0 0 
0 0 0 0 0 0 0 0 0 
0 0 0 0 0 0 0 0 0 
0 0 0 0 0 0 0 0 0 
0 0 0 0 0 0 0 0 0 
0 0 0 0 0 0 0 0 0 
0 0 0 0 0 0 0 0 0 
0 0 0 0 0 0 0 0 0 
0 0 0 0 0 0 0 0 0 
0 0 0 0 0 0 0 0 0 
0 0 0 0 0 0 0 0 0 
0 0 0 0 0 0 0 0 0 
0 0 0 0 0 0 0 0 0 
0 0 0 0 0 0 0 0 0 
0 0 0 0 0 0 0 0 0 
0 0 0 0 0 0 0 0 0 
0 0 0 0 0 0 0 0 0 
0 0 0 0 0 0 0 0 0 
0 0 0 0 0 0 0 0 0 
0 0 0 0 0 0 0 0 0 
0 0 0 0 0 0 0 0 0 
0 0 0 0 0 0 0 0 0 
0 0 0 0 0 0 0 0 0 
0 0 0 0 0 0 0 0 0 
0 0 0 0 0 0 0 0 0 
0 0 0 0 0 0 0 0 0 
0 0 0 0 0 0 0 0 0 
0 0 0 0 0 0 0 0 0 
0 0 0 0 0 0 0 0 0 
0 0 0 0 0 0 0 0 0 
0 0 0 0 0 0 0 0 0 
0 0 0 0 0 0 0 0 0 
0 0 0 0 0 0 0 0 0 
0 0 0 0 0 0 0 0 0 
0 0 0 0 0 0 0 0 0 
0 0 0 0 0 0 0 0 0 
0 0 0 0 0 0 0 0 0 
0 0 0 0 0 0 0 0 0 
0 0 0 0 0 0 0 0 0 
0 0 0 0 0 0 0 0 0 
0 0 0 0 0 0 0 0 0 
0 0 0 0 0 0 0 0 0 
0 0 0 0 0 0 0 0 0 
0 0 0 0 0 0 0 0 0 
0 0 0 0 0 0 0 0 0 
0 0 0 0 0 0 0 0 0 
0 0 0 0 0 0 0 0 0 
0 0 0 0 0 0 0 0 0 
0 0 0 0 0 0 0 0 0 
0 0 0 0 0 0 0 0 0 
0 0 0 0 0 0 0 0 0 
0 0 0 0 0 0 0 0 0 
0 0 0 0 0 0 0 0 0 
0 0 0 0 0 0 0 0 0 
0 0 0 0 0 0 0 0 0 
0 0 0 0 0 0 0 0 0 
0 0 0 0 0 0 0 0 0 
0 0 0 0 0 0 0 0 0 
0 0 0 0 0 0 0 0 0 
0 0 0 0 0 0 0 0 0 
0 0 0 0 0 0 0 0 0 
0 0 0 0 0 0 0 0 0 
0 0 0 0 0 0 0 0 0 
0 0 0 0 0 0 0 0 0 
0 0 0 0 0 0 0 0 0 
0 0 0 0 0 0 0 0 0 
0 0 0 0 0 0 0 0 0 
0 0 0 0 0 0 0 0 0 
0 0 0 0 0 0 0 0 0 
0 0 0 0 0 0 0 0 0 
0 0 0 0 0 0 0 0 0 
0 0 0 0 0 0 0 0 0 
0 0 0 0 0 0 0 0 0 
0 0 0 0 0 0 0 0 0 
0 0 0 0 0 0 
v 3 1355 double
-0.0030813 -8.90905e-05 -0.000221086 0.00519124 -0.000741225 0.000701381 0.00267693 0.000306818 -0.00116621 
0.00355718 0.00215762 -0.00139003 0.00252003 0.00239073 0.000427881 0.00245615 0.000941356 2.38043e-05 
0.000118173 -3.09384e-05 0.00223704 8.66567e-05 0.00832012 -0.00742049 0.00669337 0.0110072 -0.00832666 
0.00409397 -0.0215432 -0.0173374 0.00247582 -0.00163326 0.00166067 0.0022787 0.00238248 0.000151947 
0.00154037 0.00274824 -0.000947666 0.00114507 0.00180081 0.00100402 -0.000177495 0.00156382 0.000457456 
-0.000363563 0.00161619 -0.000289677 0.000347438 0.000960245 -6.17704e-05 0.000181986 0.000204256 0.000224449 
0.000233009 -0.000292681 -0.000100855 8.05026e-05 2.97992e-05 -0.000270034 5.46858e-06 4.08641e-05 -9.16827e-05 
8.75233e-05 -8.43487e-05 -1.0223e-05 -0.000726828 0.00214062 -0.000677354 0.000382944 -0.000717695 0.000252806 
0.00603432 -0.000738995 0.00101413 0.00558239 0.00152549 0.000687583 0.00167116 0.0033732 0.00161007 
0.00233094 0.00290608 -0.00096061 -0.000167054 -0.000336588 0.000484253 2.32834e-05 -0.00156869 0.00743742 
-0.0119872 0.0026929 -0.0294826 0.0259357 0.0214764 -0.0195786 0.0029858 0.00494406 0.00483645 
0.00424358 0.00608628 0.0057297 0.000802727 0.00211385 0.00201848 -0.00045416 0.00423394 0.000943468 
0.000442096 0.00260242 -0.000420681 0.000370065 0.00114484 0.000274427 4.98441e-05 0.000792602 0.000158658 
3.17022e-05 -0.000200656 3.34115e-05 0.000108938 -0.000131517 -0.000193146 -1.83285e-05 0.000249697 -0.000125583 
-1.50223e-05 -5.43797e-05 1.87164e-05 8.24038e-06 -5.24126e-05 -0.000108891 -0.000294102 0.00169637 -0.00050033 
-0.000188319 -0.000484953 0.00101177 0.00082192 -0.00262827 -0.00101181 0.00687219 -0.0012382 0.00545452 
0.00645443 0.00278504 0.00553212 0.0028703 0.0130739 0.00842896 -0.00625322 0.00547644 0.00875525 
-0.0138809 -0.00872164 -0.0402875 0.00928382 0.00440645 -0.000240157 0.0300397 0.0565821 -0.0703509 
0.0108618 0.00768193 -0.00470311 0.00867226 0.00583588 2.54661e-05 0.00229753 0.0032354 1.36739e-05 
0.00144893 0.00356032 0.00124024 -0.000458437 0.00363311 9.71255e-05 -0.000946832 0.000867133 -0.000125097 
0.00010047 0.000558938 6.51311e-05 0.000659572 7.46651e-05 0.000250942 -0.000600665 -9.41282e-05 0.000192399 
-0.000189651 0.000155597 -8.41765e-05 0.000127293 -6.27128e-05 -9.43373e-05 6.36645e-05 -4.54778e-05 -0.000119644 
0.00429073 0.00319295 0.00210273 0.00207484 -0.00013812 -0.000302347 -0.000683784 0.00275001 0.00017594 
0.00561301 0.00421478 0.0016223 0.00300616 0.002516 0.0136893 -0.00366374 0.0154048 0.00387483 
-0.00591789 0.00976272 0.0114423 0.0284037 0.022293 -0.00240904 0.00734429 0.00680709 -0.000417188 