# vtk DataFile Version 4.0
Generated by LIGGGHTS
ASCII
DATASET POLYDATA
POINTS 1355 float
-0.898498 -0.460991 -0.460297 -0.76727 -0.460339 -0.460324 -0.687636 -0.460287 -0.460342 
-0.607757 -0.460948 -0.460452 -0.527283 -0.460837 -0.460447 -0.447555 -0.460638 -0.460498 
-0.367007 -0.460236 -0.460498 -0.279161 -0.46029 -0.460624 -0.158003 -0.460505 -0.460325 
-0.0785222 -0.449851 -0.460514 0.000462942 -0.460347 -0.460481 0.0801783 -0.460601 -0.460515 
0.160127 -0.460475 -0.460494 0.240271 -0.460454 -0.460531 0.319892 -0.459523 -0.460507 
0.39955 -0.460048 -0.460445 0.47921 -0.460303 -0.460231 0.581831 -0.460466 -0.460786 
0.66148 -0.460465 -0.460497 0.741164 -0.460368 -0.460546 0.820672 -0.46046 -0.460697 
0.90165 -0.460356 -0.460311 -0.960728 -0.412271 -0.461053 -0.88683 -0.382461 -0.460661 
-0.729449 -0.390159 -0.46056 -0.647054 -0.391903 -0.460366 -0.567642 -0.393026 -0.460407 
-0.487959 -0.391659 -0.460442 -0.408268 -0.392197 -0.460547 -0.329041 -0.385095 -0.460503 
-0.211019 -0.401378 -0.460336 -0.133034 -0.384888 -0.460904 0.0397447 -0.391295 -0.460378 
0.119439 -0.392062 -0.460597 0.200528 -0.391867 -0.460594 0.280199 -0.387388 -0.460582 
0.360153 -0.390527 -0.46077 0.441732 -0.384981 -0.460138 0.530263 -0.399527 -0.460473 
0.621028 -0.391518 -0.460744 0.700879 -0.391673 -0.460431 0.780928 -0.391169 -0.460151 
0.860714 -0.391883 -0.460586 0.96037 -0.406775 -0.460481 -0.957124 -0.333659 -0.460108 
-0.883575 -0.302953 -0.460504 -0.809642 -0.362743 -0.460389 -0.684643 -0.322408 -0.461545 
-0.570309 -0.315002 -0.461128 -0.491214 -0.312152 -0.460283 -0.411831 -0.313508 -0.46044 
-0.332768 -0.305557 -0.460746 -0.262206 -0.340991 -0.460214 -0.184523 -0.324068 -0.460541 
-0.106162 -0.310012 -0.460754 -0.0331147 -0.355514 -0.460197 0.0354378 -0.311854 -0.460248 
0.159406 -0.32441 -0.460396 0.238646 -0.312936 -0.460558 0.323042 -0.320008 -0.460325 
0.402782 -0.315027 -0.460444 0.49129 -0.312572 -0.460599 0.569401 -0.330438 -0.46067 
0.660357 -0.322733 -0.460294 0.739702 -0.32294 -0.460917 0.882257 -0.315634 -0.46099 
0.960529 -0.327495 -0.460395 -0.960885 -0.254942 -0.460475 -0.806823 -0.283039 -0.46061 
-0.731205 -0.257668 -0.460581 -0.631018 -0.264358 -0.460085 -0.537516 -0.243844 -0.460718 
-0.4586 -0.239467 -0.460548 -0.379495 -0.241443 -0.460394 -0.0352112 -0.274698 -0.460787 
0.102801 -0.268533 -0.460205 0.187661 -0.25145 -0.460401 0.321097 -0.24046 -0.460348 
0.545904 -0.254477 -0.460497 0.622737 -0.255976 -0.439505 0.700179 -0.253568 -0.460447 
0.780039 -0.254742 -0.460167 0.881998 -0.236147 -0.460268 0.960428 -0.248206 -0.460543 
-0.961391 -0.175831 -0.460523 -0.892331 -0.215408 -0.460092 -0.814238 -0.204272 -0.460497 
-0.676982 -0.19965 -0.460119 -0.59782 -0.192407 -0.460333 -0.504485 -0.171899 -0.460256 
-0.299343 -0.233286 -0.460962 -0.211291 -0.217519 -0.460453 -0.11599 -0.229757 -0.460467 
-0.0438847 -0.195717 -0.460225 0.0320913 -0.232052 -0.460548 0.0977542 -0.179419 -0.460932 
0.177416 -0.172819 -0.460246 0.250431 -0.203926 -0.460425 0.391412 -0.202786 -0.46055 
0.469886 -0.231166 -0.460566 0.574868 -0.18041 -0.460977 0.654158 -0.186101 -0.460541 
0.733415 -0.179043 -0.460695 0.820161 -0.186548 -0.460201 0.960614 -0.168917 -0.460417 
-0.895106 -0.135006 -0.46054 -0.816624 -0.124997 -0.460078 -0.747103 -0.162792 -0.460948 
-0.643741 -0.127542 -0.460322 -0.564842 -0.120634 -0.460644 -0.425647 -0.167205 -0.460978 
-0.346564 -0.169914 -0.460802 -0.267839 -0.160047 -0.460497 -0.21229 -0.103593 -0.460202 
-0.155583 -0.159689 -0.460326 -0.0823443 -0.126237 -0.460505 0.0230491 -0.152744 -0.460412 
0.132709 -0.107868 -0.460493 0.315432 -0.160129 -0.460784 0.430039 -0.113356 -0.460999 
0.502852 -0.145387 -0.46057 0.618938 -0.114344 -0.460475 0.813815 -0.107981 -0.460652 
0.886492 -0.140853 -0.460678 -0.960155 -0.0777282 -0.4604 -0.865695 -0.062333 -0.46087 
-0.783765 -0.0531553 -0.460606 -0.713477 -0.0904164 -0.46068 -0.590889 -0.0457296 -0.460462 
-0.511967 -0.0618817 -0.460206 -0.435877 -0.0849442 -0.461601 -0.357601 -0.0918857 -0.46069 
-0.139919 -0.0721357 -0.460446 -0.0138318 -0.0821236 -0.460161 0.0641598 -0.0681643 -0.460472 
0.214452 -0.0840602 -0.460663 0.294172 -0.0834807 -0.460757 0.370304 -0.0605445 -0.460113 
0.445765 -0.0354973 -0.460895 0.547517 -0.0796964 -0.46061 0.663635 -0.0484467 -0.460503 
0.738798 -0.081308 -0.460617 0.960343 -0.0894311 -0.460726 -0.923239 -0.00720318 -0.460831 
-0.833223 0.00873894 -0.460208 -0.754808 0.0209518 -0.460203 -0.68481 -0.0165252 -0.460872 
-0.565229 0.029545 -0.461178 -0.487901 0.0134625 -0.460309 -0.41225 -0.00914392 -0.460973 
-0.333053 -0.016011 -0.460663 -0.254256 -0.0209189 -0.461036 -0.177621 -0.00267928 -0.460204 
-0.0733897 -0.0293991 -0.46098 0.00128186 -0.00221565 -0.460367 0.080147 0.00948803 -0.460414 
0.149357 -0.0305776 -0.460531 0.232278 -0.00605671 -0.460571 0.312143 -0.00595315 -0.460086 
0.387789 0.0194357 -0.460811 0.591736 -0.0135201 -0.46086 0.692065 0.0261152 -0.460311 
0.764424 -0.00601694 -0.460113 0.839101 -0.0329659 -0.460524 0.917095 -0.0233094 -0.461058 
-0.961546 0.0623561 -0.460365 -0.883867 0.0693359 -0.46017 -0.806066 0.0823282 -0.4609 
-0.728352 0.0955618 -0.461268 -0.651748 0.0738433 -0.460446 -0.501892 0.091547 -0.460786 
-0.368997 0.0573642 -0.461421 -0.288326 0.0508879 -0.461478 -0.110633 0.0402095 -0.459873 
-0.0278764 0.0720801 -0.46056 0.100783 0.0851529 -0.460611 0.169746 0.0458296 -0.460919 
0.286591 0.0693826 -0.460746 0.407062 0.0968248 -0.460566 0.464114 0.0417751 -0.460211 
0.541462 0.0565891 -0.460532 0.620629 0.0606835 -0.46016 0.75423 0.081349 -0.460425 
0.825405 0.0450942 -0.460301 0.894055 0.0853045 -0.460656 0.960848 0.042842 -0.460337 
-0.96067 0.142 -0.460956 -0.862523 0.145608 -0.460388 -0.787266 0.154103 -0.435648 
-0.639593 0.157289 -0.460611 -0.579634 0.106793 -0.460122 -0.528947 0.167224 -0.461018 
-0.4112 0.125011 -0.461833 -0.33125 0.12754 -0.461827 -0.224557 0.100358 -0.45899 
-0.142471 0.114258 -0.459277 -0.0672045 0.141518 -0.460437 0.0330753 0.127532 -0.460066 
0.221343 0.11476 -0.460664 0.332881 0.134411 -0.460306 0.492263 0.120012 -0.46051 
0.573642 0.12888 -0.460616 0.65328 0.132964 -0.460352 0.755071 0.161016 -0.460897 
0.824923 0.124251 -0.460607 0.892062 0.166023 -0.460519 0.961049 0.127517 -0.46041 
-0.960525 0.221131 -0.460561 -0.827762 0.217246 -0.460776 -0.715518 0.174173 -0.460456 
-0.456033 0.197558 -0.460111 -0.376576 0.196088 -0.460129 -0.284389 0.191976 -0.460442 
-0.205652 0.178173 -0.458502 -0.0735253 0.226985 -0.459433 -0.0103781 0.187021 -0.429439 
0.0568653 0.215255 -0.460651 0.180393 0.182763 -0.460948 0.267025 0.179715 -0.460753 
0.360587 0.209019 -0.460324 0.43147 0.172021 -0.460377 0.530079 0.195302 -0.460772 
0.609522 0.199883 -0.460445 0.688872 0.203971 -0.460192 0.822101 0.204023 -0.460639 
0.960403 0.207315 -0.460321 -0.892699 0.261701 -0.460325 -0.822477 0.298195 -0.460364 
-0.753098 0.243166 -0.460213 -0.632798 0.237348 -0.460824 -0.553664 0.247073 -0.46064 
-0.415625 0.265688 -0.460572 -0.329412 0.259287 -0.460355 -0.24218 0.258557 -0.461538 
-0.153373 0.241273 -0.454938 -0.0166718 0.289406 -0.460245 0.106178 0.277402 -0.460464 
0.214421 0.254229 -0.460154 0.294645 0.254014 -0.460468 0.396923 0.28004 -0.460109 
0.466921 0.242642 -0.460851 0.575805 0.271914 -0.46116 0.657378 0.276519 -0.46077 
0.75552 0.247797 -0.460152 0.890491 0.245072 -0.460339 -0.96077 0.301411 -0.460179 
-0.891499 0.34119 -0.460428 -0.746659 0.321485 -0.460755 -0.668399 0.308267 -0.4605 
-0.589343 0.318607 -0.460355 -0.479035 0.343231 -0.460951 -0.370571 0.329958 -0.461945 
-0.284866 0.324426 -0.460673 -0.191001 0.322785 -0.45438 -0.100252 0.302657 -0.460094 
-0.05047 0.36421 -0.458924 0.0645199 0.344993 -0.460625 0.171193 0.323077 -0.460345 
0.251301 0.324055 -0.461137 0.330896 0.324066 -0.460905 0.436612 0.349403 -0.46022 
0.50647 0.311422 -0.460675 0.615215 0.343318 -0.460403 0.72365 0.320839 -0.460808 
0.803255 0.321073 -0.460373 0.882709 0.323331 -0.460398 0.959752 0.302214 -0.460755 
-0.960447 0.380888 -0.46042 -0.891727 0.421135 -0.460956 -0.782302 0.391886 -0.460417 
-0.702617 0.387438 -0.460768 -0.623371 0.391002 -0.460592 -0.544595 0.389689 -0.460985 
-0.41788 0.393327 -0.460456 -0.322136 0.392929 -0.459709 -0.238976 0.389059 -0.459701 
-0.133142 0.376902 -0.460644 0.017352 0.408425 -0.460267 0.12965 0.391466 -0.460029 
0.209966 0.392176 -0.460457 0.289904 0.392486 -0.460447 0.36964 0.392476 -0.460389 
0.475978 0.418926 -0.460224 0.545654 0.380891 -0.460305 0.680887 0.388356 -0.460418 
0.760537 0.391549 -0.460616 0.841349 0.391317 -0.460432 0.921449 0.392028 -0.460719 
-0.960629 0.460462 -0.460456 -0.822444 0.460424 -0.460436 -0.742623 0.460446 -0.460513 
-0.663361 0.460062 -0.460099 -0.58395 0.460248 -0.460132 -0.504557 0.46015 -0.46107 
-0.363122 0.460478 -0.460062 -0.282194 0.4609 -0.459706 -0.203091 0.460193 -0.460164 
-0.12398 0.460072 -0.460059 -0.0430039 0.46006 -0.459895 0.0872279 0.459724 -0.460217 
0.169612 0.460589 -0.460691 0.249453 0.460864 -0.460586 0.329061 0.460936 -0.460428 
0.408823 0.460945 -0.460063 0.544126 0.460391 -0.460665 0.632872 0.459968 -0.460392 
0.715561 0.460157 -0.460325 0.801078 0.460232 -0.460629 0.880942 0.460456 -0.460503 
0.960558 0.460601 -0.460309 -0.960237 -0.461153 -0.399399 -0.884702 -0.460147 -0.373939 
-0.727359 -0.460423 -0.3911 -0.647482 -0.460261 -0.391408 -0.567539 -0.460535 -0.391598 
-0.487321 -0.460172 -0.391571 -0.407235 -0.459599 -0.391646 -0.323068 -0.460168 -0.394135 
-0.219353 -0.460831 -0.407839 -0.117129 -0.460774 -0.392011 -0.0383783 -0.460489 -0.391178 
0.0408049 -0.460339 -0.391513 0.120269 -0.460227 -0.391442 0.200102 -0.460263 -0.391657 
0.279973 -0.46033 -0.391585 0.359615 -0.46037 -0.391451 0.439089 -0.460813 -0.391244 
0.531914 -0.460836 -0.399494 0.621729 -0.460031 -0.391743 0.701732 -0.459737 -0.391464 
0.78098 -0.445752 -0.393102 0.860397 -0.460109 -0.392166 0.960112 -0.460311 -0.40165 
-0.960486 -0.382985 -0.387034 -0.833193 -0.431065 -0.42714 -0.771716 -0.394455 -0.392833 
[...]
POINT_DATA 1355
FIELD FieldData 7
id 1 1355 int
366 408 584 322 662 206 563 371 419 
523 551 145 607 585 151 530 365 186 
620 156 70 664 692 632 759 714 370 
120 208 723 59 512 435 712 211 457 
20 256 338 470 195 678 320 643 534 
171 196 105 493 581 542 442 514 245 
234 347 708 214 280 305 529 396 291 
444 367 476 155 724 314 136 721 375 
250 62 498 54 200 431 623 593 109 
184 446 647 159 267 289 373 275 324 
533 376 95 589 76 722 239 543 576 
75 202 572 683 676 680 445 83 641 
185 331 96 99 458 14 575 40 57 
88 31 281 298 126 300 48 521 531 
428 254 592 758 361 412 689 312 252 
153 397 483 170 704 321 140 726 143 
142 351 651 6 528 433 92 690 382 
437 359 154 569 304 439 339 639 461 
177 700 378 459 310 258 51 182 549 
323 121 507 423 742 495 224 612 720 
590 539 166 460 97 240 537 127 580 
85 544 293 697 634 129 104 602 146 
161 32 384 25 671 74 278 675 383 
71 266 19 22 627 717 162 218 133 
348 247 167 125 191 199 294 586 640 
441 596 149 475 463 387 269 130 8 
393 748 420 613 663 16 578 402 682 
421 715 637 299 698 747 261 622 355 
571 411 42 259 416 227 391 527 557 
346 67 274 319 242 649 9 73 766 
409 535 89 4 260 318 650 388 311 
94 618 39 582 53 673 729 3 69 
496 363 201 188 599 670 228 519 667 
472 669 660 646 654 43 230 226 306 
427 316 614 764 329 545 179 389 12 
453 440 197 452 90 604 386 686 38 
587 285 725 743 181 518 225 761 513 
5 559 72 336 66 116 78 221 628 
131 679 959 103 273 1154 276 516 47 
233 325 108 223 666 157 455 205 175 
287 56 751 736 426 744 642 611 302 
413 473 741 684 118 653 18 770 15 
82 272 100 87 343 490 219 601 290 
465 110 438 372 767 631 255 879 552 
307 699 636 187 550 80 532 313 645 
279 509 556 511 114 757 144 81 668 
58 615 616 558 644 341 189 407 36 
462 597 357 394 565 169 554 29 334 
282 570 424 286 399 24 447 364 192 
183 478 86 566 492 718 497 886 248 
33 422 11 502 541 395 46 106 345 
711 137 60 236 44 524 112 429 479 
540 134 27 45 694 326 358 352 746 
21 629 522 369 28 271 2 111 737 
102 818 216 733 147 194 148 172 101 
775 443 415 738 783 710 342 243 626 
474 288 180 482 381 374 436 638 450 
253 425 93 91 215 505 403 520 277 
591 84 719 350 762 193 546 41 970 
333 231 330 928 574 308 328 703 432 
296 488 284 687 49 13 469 681 400 
648 190 128 392 610 135 209 760 35 
665 122 503 750 821 659 564 480 508 
26 113 608 123 222 709 340 456 251 
417 17 292 138 430 246 98 448 283 
404 178 244 63 583 464 891 600 1165 
418 547 763 499 229 494 385 617 672 
467 119 755 481 727 526 390 210 728 
249 217 573 871 769 354 158 510 7 
739 466 793 890 500 658 337 986 1166 
846 173 567 1184 468 781 927 735 809 
1066 1173 1152 925 685 933 814 921 414 
784 265 749 1288 943 504 787 268 935 
831 910 362 1115 619 903 688 652 867 
1167 410 768 973 951 1062 963 754 1061 
1170 360 828 235 696 779 875 1147 207 
932 241 865 702 1091 907 454 812 603 
1255 974 1162 848 914 829 295 707 937 
176 982 838 870 124 691 792 919 335 
317 406 944 985 972 732 165 379 489 
577 952 491 765 204 349 904 894 901 
655 79 851 471 734 786 981 882 356 
939 855 141 30 1075 501 677 674 536 
486 621 918 861 824 895 487 1284 795 
731 800 309 50 605 568 908 548 434 
1088 892 52 801 794 905 947 1078 301 
776 962 805 990 911 332 164 1182 484 
815 401 34 327 893 837 198 926 977 
657 954 835 656 888 633 730 827 160 
752 790 150 560 1127 695 804 477 538 
220 887 922 10 555 380 803 876 515 
791 840 713 65 77 841 864 1038 107 
344 23 965 203 872 929 994 873 598 
884 822 232 237 1 139 1137 61 960 
706 398 859 896 869 716 55 1041 1156 
971 856 115 506 257 1074 966 263 850 
174 609 912 773 917 37 606 297 830 
368 625 353 771 913 562 168 405 845 
880 451 949 132 117 525 1001 303 262 
785 213 68 635 64 661 553 756 152 
753 817 701 594 984 923 315 579 377 
485 961 212 693 878 938 1243 561 270 
906 1178 1079 1149 1312 1004 866 823 1334 
1143 988 1076 956 825 1006 1330 163 1123 
1093 930 1290 1051 958 1197 1305 1211 1193 
1279 1110 1003 1185 849 1049 1133 1058 1159 
1035 826 1231 844 1116 1339 1125 1160 1112 
1073 832 1113 847 1217 1097 1316 1032 1267 
1347 1000 1344 1145 868 999 808 1266 995 
1295 1028 1221 1071 1086 1034 1186 993 1354 
1187 802 1139 1285 1099 1014 1022 1036 1015 
1054 1144 950 1315 1056 1322 1021 1189 1129 
857 1246 902 1346 1105 1283 936 964 1089 
1103 1188 806 780 789 1023 1008 1172 1158 
1321 1020 1095 1050 1111 1138 916 992 1174 
1201 797 1026 820 782 630 953 1087 969 
1227 1016 1130 1135 1077 1012 834 978 924 
1183 1119 1082 1083 807 980 1343 1052 836 
1037 810 967 1273 839 1067 1258 1176 1179 
1010 1114 1048 931 1027 799 1150 975 1216 
1122 843 1153 1081 1311 1171 1033 1046 1265 
987 1100 1253 1017 1203 968 1009 1109 862 
819 997 1092 1324 899 1080 1269 852 915 
948 1096 1069 1057 860 955 774 874 1155 
934 1007 1043 798 811 1085 1148 1055 1126 
1309 595 1280 1101 998 1180 853 909 858 
813 1163 889 1177 777 1053 796 1063 1011 
1042 1229 1230 877 1256 976 1131 1134 772 
989 1277 945 1281 940 1045 1181 1124 1019 
1232 778 1118 900 898 1161 881 854 942 
1169 1336 1287 1070 1136 885 1117 1068 1254 
740 1059 1307 979 588 449 1142 863 1064 
1262 883 238 517 816 897 788 624 1252 
1250 1190 1121 1141 1233 1140 941 1132 1299 
1303 1151 1238 745 1327 1302 1226 1247 1306 
1275 1335 1276 1249 1251 1291 1107 1106 1210 
1215 1199 1031 1224 1350 1323 1047 1213 1297 
1329 1341 1005 1202 1237 1292 1065 1228 1192 
1348 1013 1194 1209 1325 1263 1039 842 1214 
1319 833 1205 1317 1270 1331 1219 1342 1352 
1304 1242 1235 1223 1018 1108 1044 1274 1349 
1236 1326 1296 1301 1220 1294 1164 1308 1272 
1333 1198 1084 1286 1234 1204 1260 1345 1104 
1207 1282 1278 1241 1259 946 1338 1293 1268 
983 1191 1128 1168 1271 1240 1072 1196 1175 
1261 1314 1094 1300 1248 1029 1025 1320 1328 
1351 1298 991 1200 1195 1310 1060 1090 1225 
1244 1002 1332 1257 264 1353 1146 1157 705 
1102 996 1264 1318 1239 1212 1024 1337 920 
1098 1040 1208 1313 1206 957 1120 1340 1218 
1289 1355 1245 1222 1030 
type 1 1355 int
1 1 1 1 1 1 1 1 1 
1 1 1 1 1 1 1 1 1 
1 1 1 1 1 1 1 1 1 
1 1 1 1 1 1 1 1 1 
1 1 1 1 1 1 1 1 1 
1 1 1 1 1 1 1 1 1 
1 1 1 1 1 1 1 1 1 
1 1 1 1 1 1 1 1 1 
1 1 1 1 1 1 1 1 1 
1 1 1 1 1 1 1 1 1 
1 1 1 1 1 1 1 1 1 
1 1 1 1 1 1 1 1 1 
1 1 1 1 1 1 1 1 1 
1 1 1 1 1 1 1 1 1 
1 1 1 1 1 1 1 1 1 
1 1 1 1 1 1 1 1 1 
1 1 1 1 1 1 1 1 1 
1 1 1 1 1 1 1 1 1 
1 1 1 1 1 1 1 1 1 
1 1 1 1 1 1 1 1 1 
1 1 1 1 1 1 1 1 1 
1 1 1 1 1 1 1 1 1 
1 1 1 1 1 1 1 1 1 
1 1 1 1 1 1 1 1 1 
1 1 1 1 1 1 1 1 1 
1 1 1 1 1 1 1 1 1 
1 1 1 1 1 1 1 1 1 
1 1 1 1 1 1 1 1 1 
1 1 1 1 1 1 1 1 1 
1 1 1 1 1 1 1 1 1 
1 1 1 1 1 1 1 1 1 
1 1 1 1 1 1 1 1 1 
1 1 1 1 1 1 1 1 1 
1 1 1 1 1 1 1 1 1 
1 1 1 1 1 1 1 1 1 
1 1 1 1 1 1 1 1 1 
1 1 1 1 1 1 1 1 1 
1 1 1 1 1 1 1 1 1 
1 1 1 1 1 1 1 1 1 
1 1 1 1 1 1 1 1 1 
1 1 1 1 1 1 1 1 1 
1 1 1 1 1 1 1 1 1 
1 1 1 1 1 1 1 1 1 
1 1 1 1 1 1 1 1 1 
1 1 1 1 1 1 1 1 1 
1 1 1 1 1 1 1 1 1 
1 1 1 1 1 1 1 1 1 
1 1 1 1 1 1 1 1 1 
1 1 1 1 1 1 1 1 1 
1 1 1 1 1 1 1 1 1 
1 1 1 1 1 1 1 1 1 
1 1 1 1 1 1 1 1 1 
1 1 1 1 1 1 1 1 1 
1 1 1 1 1 1 1 1 1 
1 1 1 1 1 1 1 1 1 
1 1 1 1 1 1 1 1 1 
1 1 1 1 1 1 1 1 1 
1 1 1 1 1 1 1 1 1 
1 1 1 1 1 1 1 1 1 
1 1 1 1 1 1 1 1 1 
1 1 1 1 1 1 1 1 1 
1 1 1 1 1 1 1 1 1 
1 1 1 1 1 1 1 1 1 
1 1 1 1 1 1 1 1 1 
1 1 1 1 1 1 1 1 1 
1 1 1 1 1 1 1 1 1 
1 1 1 1 1 1 1 1 1 
1 1 1 1 1 1 1 1 1 
1 1 1 1 1 1 1 1 1 
1 1 1 1 1 1 1 1 1 
1 1 1 1 1 1 1 1 1 
1 1 1 1 1 1 1 1 1 
1 1 1 1 1 1 1 1 1 
1 1 1 1 1 1 1 1 1 
1 1 1 1 1 1 1 1 1 
1 1 1 1 1 1 1 1 1 
1 1 1 1 1 1 1 1 1 
1 1 1 1 1 1 1 1 1 
1 1 1 1 1 1 1 1 1 
1 1 1 1 1 1 1 1 1 
1 1 1 1 1 1 1 1 1 
1 1 1 1 1 1 1 1 1 
1 1 1 1 1 1 1 1 1 
1 1 1 1 1 1 1 1 1 
1 1 1 1 1 1 1 1 1 
1 1 1 1 1 1 1 1 1 
1 1 1 1 1 1 1 1 1 
1 1 1 1 1 1 1 1 1 
1 1 1 1 1 1 1 1 1 
1 1 1 1 1 1 1 1 1 
1 1 1 1 1 1 1 1 1 
1 1 1 1 1 1 1 1 1 
1 1 1 1 1 1 1 1 1 
1 1 1 1 1 1 1 1 1 
1 1 1 1 1 1 1 1 1 
1 1 1 1 1 1 1 1 1 
1 1 1 1 1 1 1 1 1 
1 1 1 1 1 1 1 1 1 
1 1 1 1 1 1 1 1 1 
1 1 1 1 1 1 1 1 1 
1 1 1 1 1 1 1 1 1 
1 1 1 1 1 1 1 1 1 
1 1 1 1 1 1 1 1 1 
1 1 1 1 1 1 1 1 1 
1 1 1 1 1 1 1 1 1 
1 1 1 1 1 1 1 1 1 
1 1 1 1 1 1 1 1 1 
1 1 1 1 1 1 1 1 1 
1 1 1 1 1 1 1 1 1 
1 1 1 1 1 1 1 1 1 
1 1 1 1 1 1 1 1 1 
1 1 1 1 1 1 1 1 1 
1 1 1 1 1 1 1 1 1 
1 1 1 1 1 1 1 1 1 
1 1 1 1 1 1 1 1 1 
1 1 1 1 1 1 1 1 1 
1 1 1 1 1 1 1 1 1 
1 1 1 1 1 1 1 1 1 
1 1 1 1 1 1 1 1 1 
1 1 1 1 1 1 1 1 1 
1 1 1 1 1 1 1 1 1 
1 1 1 1 1 1 1 1 1 
1 1 1 1 1 1 1 1 1 
1 1 1 1 1 1 1 1 1 
1 1 1 1 1 1 1 1 1 
1 1 1 1 1 1 1 1 1 
1 1 1 1 1 1 1 1 1 
1 1 1 1 1 1 1 1 1 
1 1 1 1 1 1 1 1 1 
1 1 1 1 1 1 1 1 1 
1 1 1 1 1 1 1 1 1 
1 1 1 1 1 1 1 1 1 
1 1 1 1 1 1 1 1 1 
1 1 1 1 1 1 1 1 1 
1 1 1 1 1 1 1 1 1 
1 1 1 1 1 1 1 1 1 
1 1 1 1 1 1 1 1 1 
1 1 1 1 1 1 1 1 1 
1 1 1 1 1 1 1 1 1 
1 1 1 1 1 1 1 1 1 
1 1 1 1 1 1 1 1 1 
1 1 1 1 1 1 1 1 1 
1 1 1 1 1 1 1 1 1 
1 1 1 1 1 1 1 1 1 
1 1 1 1 1 1 1 1 1 
1 1 1 1 1 1 1 1 1 
1 1 1 1 1 1 1 1 1 
1 1 1 1 1 1 1 1 1 
1 1 1 1 1 1 1 1 1 
1 1 1 1 1 1 1 1 1 
1 1 1 1 1 
i 3 1355 int
0 0 0 0 0 0 0 0 0 
0 0 0 0 0 0 0 0 0 
0 0 0 0 0 0 0 0 0 
0 0 0 0 0 0 0 0 0 
0 0 0 0 0 0 0 0 0 
0 0 0 0 0 0 0 0 0 
0 0 0 0 0 0 0 0 0 
0 0 0 0 0 0 0 0 0 
0 0 0 0 0 0 0 0 0 
0 0 0 0 0 0 0 0 0 
0 0 0 0 0 0 0 0 0 
0 0 0 0 0 0 0 0 0 
0 0 0 0 0 0 0 0 0 
0 0 0 0 0 0 0 0 0 
0 0 0 0 0 0 0 0 0 
0 0 0 0 0 0 0 0 0 
0 0 0 0 0 0 0 0 0 
0 0 0 0 0 0 0 0 0 
0 0 0 0 0 0 0 0 0 
0 0 0 0 0 0 0 0 0 
0 0 0 0 0 0 0 0 0 
0 0 0 0 0 0 0 0 0 
0 0 0 0 0 0 0 0 0 
0 0 0 0 0 0 0 0 0 
0 0 0 0 0 0 0 0 0 
0 0 0 0 0 0 0 0 0 
0 0 0 0 0 0 0 0 0 
0 0 0 0 0 0 0 0 0 
0 0 0 0 0 0 0 0 0 
0 0 0 0 0 0 0 0 0 
0 0 0 0 0 0 0 0 0 
0 0 0 0 0 0 0 0 0 
0 0 0 0 0 0 0 0 0 
0 0 0 0 0 0 0 0 0 
0 0 0 0 0 0 0 0 0 
0 0 0 0 0 0 0 0 0 
0 0 0 0 0 0 0 0 0 
0 0 0 0 0 0 0 0 0 
0 0 0 0 0 0 0 0 0 
0 0 0 0 0 0 0 0 0 
0 0 0 0 0 0 0 0 0 
0 0 0 0 0 0 0 0 0 
0 0 0 0 0 0 0 0 0 
0 0 0 0 0 0 0 0 0 
0 0 0 0 0 0 0 0 0 
0 0 0 0 0 0 0 0 0 
0 0 0 0 0 0 0 0 0 
0 0 0 0 0 0 0 0 0 
0 0 0 0 0 0 0 0 0 
0 0 0 0 0 0 0 0 0 
0 0 0 0 0 0 0 0 0 
0 0 0 0 0 0 0 0 0 
0 0 0 0 0 0 0 0 0 
0 0 0 0 0 0 0 0 0 
0 0 0 0 0 0 0 0 0 
0 0 0 0 0 0 0 0 0 
0 0 0 0 0 0 0 0 0 
0 0 0 0 0 0 0 0 0 
0 0 0 0 0 0 0 0 0 
0 0 0 0 0 0 0 0 0 
0 0 0 0 0 0 0 0 0 
0 0 0 0 0 0 0 0 0 
0 0 0 0 0 0 0 0 0 
0 0 0 0 0 0 0 0 0 
0 0 0 0 0 0 0 0 0 
0 0 0 0 0 0 0 0 0 
0 0 0 0 0 0 0 0 0 
0 0 0 0 0 0 0 0 0 
0 0 0 0 0 0 0 0 0 
0 0 0 0 0 0 0 0 0 
0 0 0 0 0 0 0 0 0 
0 0 0 0 0 0 0 0 0 
0 0 0 0 0 0 0 0 0 
0 0 0 0 0 0 0 0 0 
0 0 0 0 0 0 0 0 0 
0 0 0 0 0 0 0 0 0 
0 0 0 0 0 0 0 0 0 
0 0 0 0 0 0 0 0 0 
0 0 0 0 0 0 0 0 0 
0 0 0 0 0 0 0 0 0 
0 0 0 0 0 0 0 0 0 
0 0 0 0 0 0 0 0 0 
0 0 0 0 0 0 0 0 0 
0 0 0 0 0 0 0 0 0 
0 0 0 0 0 0 0 0 0 
0 0 0 0 0 0 0 0 0 
0 0 0 0 0 0 0 0 0 
0 0 0 0 0 0 0 0 0 
0 0 0 0 0 0 0 0 0 
0 0 0 0 0 0 0 0 0 
0 0 0 0 0 0 0 0 0 
0 0 0 0 0 0 0 0 0 
0 0 0 0 0 0 0 0 0 
0 0 0 0 0 0 0 0 0 
0 0 0 0 0 0 0 0 0 
0 0 0 0 0 0 0 0 0 
0 0 0 0 0 0 0 0 0 
0 0 0 0 0 0 0 0 0 
0 0 0 0 0 0 0 0 0 
0 0 0 0 0 0 0 0 0 
0 0 0 0 0 0 0 0 0 
0 0 0 0 0 0 0 0 0 
0 0 0 0 0 0 0 0 0 
0 0 0 0 0 0 0 0 0 
0 0 0 0 0 0 0 0 0 
0 0 0 0 0 0 0 0 0 
0 0 0 0 0 0 0 0 0 
0 0 0 0 0 0 0 0 0 
0 0 0 0 0 0 0 0 0 
0 0 0 0 0 0 0 0 0 
0 0 0 0 0 0 0 0 0 
0 0 0 0 0 0 0 0 0 
0 0 0 0 0 0 0 0 0 
0 0 0 0 0 0 0 0 0 
0 0 0 0 0 0 0 0 0 
0 0 0 0 0 0 0 0 0 
0 0 0 0 0 0 0 0 0 
0 0 0 0 0 0 0 0 0 
0 0 0 0 0 0 0 0 0 
0 0 0 0 0 0 0 0 0 
0 0 0 0 0 0 0 0 0 
0 0 0 0 0 0 0 0 0 
0 0 0 0 0 0 0 0 0 
0 0 0 0 0 0 0 0 0 
0 0 0 0 0 0 0 0 0 
0 0 0 0 0 0 0 0 0 
0 0 0 0 0 0 0 0 0 
0 0 0 0 0 0 0 0 0 
0 0 0 0 0 0 0 0 0 
0 0 0 0 0 0 0 0 0 
0 0 0 0 0 0 0 0 0 
0 0 0 0 0 0 0 0 0 
0 0 0 0 0 0 0 0 0 
0 0 0 0 0 0 0 0 0 
0 0 0 0 0 0 0 0 0 
0 0 0 0 0 0 0 0 0 
0 0 0 0 0 0 0 0 0 
0 0 0 0 0 0 0 0 0 
0 0 0 0 0 0 0 0 0 
0 0 0 0 0 0 0 0 0 
0 0 0 0 0 0 0 0 0 
0 0 0 0 0 0 0 0 0 
0 0 0 0 0 0 0 0 0 
0 0 0 0 0 0 0 0 0 
0 0 0 0 0 0 0 0 0 
0 0 0 0 0 0 0 0 0 
0 0 0 0 0 0 0 0 0 
0 0 0 0 0 0 0 0 0 
0 0 0 0 0 0 0 0 0 
0 0 0 0 0 0 0 0 0 
0 0 0 0 0 0 0 0 0 
0 0 0 0 0 0 0 0 0 
0 0 0 0 0 0 0 0 0 
0 0 0 0 0 0 0 0 0 
0 0 0 0 0 0 0 0 0 
0 0 0 0 0 0 0 0 0 
0 0 0 0 0 0 0 0 0 
0 0 0 0 0 0 0 0 0 
0 0 0 0 0 0 0 0 0 
0 0 0 0 0 0 0 0 0 
0 0 0 0 0 0 0 0 0 
0 0 0 0 0 0 0 0 0 
0 0 0 0 0 0 0 0 0 
0 0 0 0 0 0 0 0 0 
0 0 0 0 0 0 0 0 0 
0 0 0 0 0 0 0 0 0 
0 0 0 0 0 0 0 0 0 
0 0 0 0 0 0 0 0 0 
0 0 0 0 0 0 0 0 0 
0 0 0 0 0 0 0 0 0 
0 0 0 0 0 0 0 0 0 
0 0 0 0 0 0 0 0 0 
0 0 0 0 0 0 0 0 0 
0 0 0 0 0 0 0 0 0 
0 0 0 0 0 0 0 0 0 
0 0 0 0 0 0 0 0 0 
0 0 0 0 0 0 0 0 0 
0 0 0 0 0 0 0 0 0 
0 0 0 0 0 0 0 0 0 
0 0 0 0 0 0 0 0 0 
0 0 0 0 0 0 0 0 0 
0 0 0 0 0 0 0 0 0 
0 0 0 0 0 0 0 0 0 
0 0 0 0 0 0 0 0 0 
0 0 0 0 0 0 0 0 0 
0 0 0 0 0 0 0 0 0 
0 0 0 0 0 0 0 0 0 
0 0 0 0 0 0 0 0 0 
0 0 0 0 0 0 0 0 0 
0 0 0 0 0 0 0 0 0 
0 0 0 0 0 0 0 0 0 
0 0 0 0 0 0 0 0 0 
0 0 0 0 0 0 0 0 0 
0 0 0 0 0 0 0 0 0 
0 0 0 0 0 0 0 0 0 
0 0 0 0 0 0 0 0 0 
0 0 0 0 0 0 0 0 0 
0 0 0 0 0 0 0 0 0 
0 0 0 0 0 0 0 0 0 
0 0 0 0 0 0 0 0 0 
0 0 0 0 0 0 0 0 0 
0 0 0 0 0 0 0 0 0 
0 0 0 0 0 0 0 0 0 
0 0 0 0 0 0 0 0 0 
0 0 0 0 0 0 0 0 0 
0 0 0 0 0 0 0 0 0 
0 0 0 0 0 0 0 0 0 
0 0 0 0 0 0 0 0 0 
0 0 0 0 0 0 0 0 0 
0 0 0 0 0 0 0 0 0 
0 0 0 0 0 0 0 0 0 
0 0 0 0 0 0 0 0 0 
0 0 0 0 0 0 0 0 0 
0 0 0 0 0 0 0 0 0 
0 0 0 0 0 0 0 0 0 
0 0 0 0 0 0 0 0 0 
0 0 0 0 0 0 0 0 0 
0 0 0 0 0 0 0 0 0 
0 0 0 0 0 0 0 0 0 
0 0 0 0 0 0 0 0 0 
0 0 0 0 0 0 0 0 0 
0 0 0 0 0 0 0 0 0 
0 0 0 0 0 0 0 0 0 
0 0 0 0 0 0 0 0 0 
0 0 0 0 0 0 0 0 0 
0 0 0 0 0 0 0 0 0 
0 0 0 0 0 0 0 0 0 
0 0 0 0 0 0 0 0 0 
0 0 0 0 0 0 0 0 0 
0 0 0 0 0 0 0 0 0 
0 0 0 0 0 0 0 0 0 
0 0 0 0 0 0 0 0 0 
0 0 0 0 0 0 0 0 0 
0 0 0 0 0 0 0 0 0 
0 0 0 0 0 0 0 0 0 
0 0 0 0 0 0 0 0 0 
0 0 0 0 0 0 0 0 0 
0 0 0 0 0 0 0 0 0 
0 0 0 0 0 0 0 0 0 
0 0 0 0 0 0 0 0 0 
0 0 0 0 0 0 0 0 0 
0 0 0 0 0 0 0 0 0 
0 0 0 0 0 0 0 0 0 
0 0 0 0 0 0 0 0 0 
0 0 0 0 0 0 0 0 0 
0 0 0 0 0 0 0 0 0 
0 0 0 0 0 0 0 0 0 
0 0 0 0 0 0 0 0 0 
0 0 0 0 0 0 0 0 0 
0 0 0 0 0 0 0 0 0 
0 0 0 0 0 0 0 0 0 
0 0 0 0 0 0 0 0 0 
0 0 0 0 0 0 0 0 0 
0 0 0 0 0 0 0 0 0 
0 0 0 0 0 0 0 0 0 
0 0 0 0 0 0 0 0 0 
0 0 0 0 0 0 0 0 0 
0 0 0 0 0 0 0 0 0 
0 0 0 0 0 0 0 0 0 
0 0 0 0 0 0 0 0 0 
0 0 0 0 0 0 0 0 0 
0 0 0 0 0 0 0 0 0 
0 0 0 0 0 0 0 0 0 
0 0 0 0 0 0 0 0 0 
0 0 0 0 0 0 0 0 0 
0 0 0 0 0 0 0 0 0 
0 0 0 0 0 0 0 0 0 
0 0 0 0 0 0 0 0 0 
0 0 0 0 0 0 0 0 0 
0 0 0 0 0 0 0 0 0 
0 0 0 0 0 0 0 0 0 
0 0 0 0 0 0 0 0 0 
0 0 0 0 0 0 0 0 0 
0 0 0 0 0 0 0 0 0 
0 0 0 0 0 0 0 0 0 
0 0 0 0 0 0 0 0 0 
0 0 0 0 0 0 0 0 0 
0 0 0 0 0 0 0 0 0 
0 0 0 0 0 0 0 0 0 
0 0 0 0 0 0 0 0 0 
0 0 0 0 0 0 0 0 0 
0 0 0 0 0 0 0 0 0 
0 0 0 0 0 0 0 0 0 
0 0 0 0 0 0 0 0 0 
0 0 0 0 0 0 0 0 0 
0 0 0 0 0 0 0 0 0 
0 0 0 0 0 0 0 0 0 
0 0 0 0 0 0 0 0 0 
0 0 0 0 0 0 0 0 0 
0 0 0 0 0 0 0 0 0 
0 0 0 0 0 0 0 0 0 
0 0 0 0 0 0 0 0 0 
0 0 0 0 0 0 0 0 0 
0 0 0 0 0 0 0 0 0 
0 0 0 0 0 0 0 0 0 
0 0 0 0 0 0 0 0 0 
0 0 0 0 0 0 0 0 0 
0 0 0 0 0 0 0 0 0 
0 0 0 0 0 0 0 0 0 
0 0 0 0 0 0 0 0 0 
0 0 0 0 0 0 0 0 0 
0 0 0 0 0 0 0 0 0 
0 0 0 0 0 0 0 0 0 
0 0 0 0 0 0 0 0 0 
0 0 0 0 0 0 0 0 0 
0 0 0 0 0 0 0 0 0 
0 0 0 0 0 0 0 0 0 
0 0 0 0 0 0 0 0 0 
0 0 0 0 0 0 0 0 0 
0 0 0 0 0 0 0 0 0 
0 0 0 0 0 0 0 0 0 
0 0 0 0 0 0 0 0 0 
0 0 0 0 0 0 0 0 0 
0 0 0 0 0 0 0 0 0 
0 0 0 0 0 0 0 0 0 
0 0 0 0 0 0 0 0 0 
0 0 0 0 0 0 0 0 0 
0 0 0 0 0 0 0 0 0 
0 0 0 0 0 0 0 0 0 
0 0 0 0 0 0 0 0 0 
0 0 0 0 0 0 0 0 0 
0 0 0 0 0 0 0 0 0 
0 0 0 0 0 0 0 0 0 
0 0 0 0 0 0 0 0 0 
0 0 0 0 0 0 0 0 0 
0 0 0 0 0 0 0 0 0 
0 0 0 0 0 0 0 0 0 
0 0 0 0 0 0 0 0 0 
0 0 0 0 0 0 0 0 0 
0 0 0 0 0 0 0 0 0 
0 0 0 0 0 0 0 0 0 
0 0 0 0 0 0 0 0 0 
0 0 0 0 0 0 0 0 0 
0 0 0 0 0 0 0 0 0 
0 0 0 0 0 0 0 0 0 
0 0 0 0 0 0 0 0 0 
0 0 0 0 0 0 0 0 0 
0 0 0 0 0 0 0 0 0 
0 0 0 0 0 0 0 0 0 
0 0 0 0 0 0 0 0 0 
0 0 0 0 0 0 0 0 0 
0 0 0 0 0 0 0 0 0 
0 0 0 0 0 0 0 0 0 
0 0 0 0 0 0 0 0 0 
0 0 0 0 0 0 0 0 0 
0 0 0 0 0 0 0 0 0 
0 0 0 0 0 0 0 0 0 
0 0 0 0 0 0 0 0 0 
0 0 0 0 0 0 0 0 0 
0 0 0 0 0 0 0 0 0 
0 0 0 0 0 0 0 0 0 
0 0 0 0 0 0 0 0 0 
0 0 0 0 0 0 0 0 0 
0 0 0 0 0 0 0 0 0 
0 0 0 0 0 0 0 0 0 
0 0 0 0 0 0 0 0 0 
0 0 0 0 0 0 0 0 0 
0 0 0 0 0 0 0 0 0 
0 0 0 0 0 0 0 0 0 
0 0 0 0 0 0 0 0 0 
0 0 0 0 0 0 0 0 0 
0 0 0 0 0 0 0 0 0 
0 0 0 0 0 0 0 0 0 
0 0 0 0 0 0 0 0 0 
0 0 0 0 0 0 0 0 0 
0 0 0 0 0 0 0 0 0 
0 0 0 0 0 0 0 0 0 
0 0 0 0 0 0 0 0 0 
0 0 0 0 0 0 0 0 0 
0 0 0 0 0 0 0 0 0 
0 0 0 0 0 0 0 0 0 
0 0 0 0 0 0 0 0 0 
0 0 0 0 0 0 0 0 0 
0 0 0 0 0 0 0 0 0 
0 0 0 0 0 0 0 0 0 
0 0 0 0 0 0 0 0 0 
0 0 0 0 0 0 0 0 0 
0 0 0 0 0 0 0 0 0 
0 0 0 0 0 0 0 0 0 
0 0 0 0 0 0 0 0 0 
0 0 0 0 0 0 0 0 0 
0 0 0 0 0 0 0 0 0 
0 0 0 0 0 0 0 0 0 
0 0 0 0 0 0 0 0 0 
0 0 0 0 0 0 0 0 0 
0 0 0 0 0 0 0 0 0 
0 0 0 0 0 0 0 0 0 
0 0 0 0 0 0 0 0 0 
0 0 0 0 0 0 0 0 0 
0 0 0 0 0 0 0 0 0 
0 0 0 0 0 0 0 0 0 
0 0 0 0 0 0 0 0 0 
0 0 0 0 0 0 0 0 0 
0 0 0 0 0 0 0 0 0 
0 0 0 0 0 0 0 0 0 
0 0 0 0 0 0 0 0 0 
0 0 0 0 0 0 0 0 0 
0 0 0 0 0 0 0 0 0 
0 0 0 0 0 0 0 0 0 
0 0 0 0 0 0 0 0 0 
0 0 0 0 0 0 0 0 0 
0 0 0 0 0 0 0 0 0 
0 0 0 0 0 0 0 0 0 
0 0 0 0 0 0 0 0 0 
0 0 0 0 0 0 0 0 0 
0 0 0 0 0 0 0 0 0 
0 0 0 0 0 0 0 0 0 
0 0 0 0 0 0 0 0 0 
0 0 0 0 0 0 0 0 0 
0 0 0 0 0 0 0 0 0 
0 0 0 0 0 0 0 0 0 
0 0 0 0 0 0 0 0 0 
0 0 0 0 0 0 0 0 0 
0 0 0 0 0 0 0 0 0 
0 0 0 0 0 0 0 0 0 
0 0 0 0 0 0 0 0 0 
0 0 0 0 0 0 0 0 0 
0 0 0 0 0 0 0 0 0 
0 0 0 0 0 0 0 0 0 
0 0 0 0 0 0 0 0 0 
0 0 0 0 0 0 0 0 0 
0 0 0 0 0 0 0 0 0 
0 0 0 0 0 0 0 0 0 
0 0 0 0 0 0 0 0 0 
0 0 0 0 0 0 0 0 0 
0 0 0 0 0 0 0 0 0 
0 0 0 0 0 0 0 0 0 
0 0 0 0 0 0 0 0 0 
0 0 0 0 0 0 0 0 0 
0 0 0 0 0 0 0 0 0 
0 0 0 0 0 0 0 0 0 
0 0 0 0 0 0 0 0 0 
0 0 0 0 0 0 0 0 0 
0 0 0 0 0 0 0 0 0 
0 0 0 0 0 0 0 0 0 
0 0 0 0 0 0 0 0 0 
0 0 0 0 0 0 0 0 0 
0 0 0 0 0 0 0 0 0 
0 0 0 0 0 0 0 0 0 
0 0 0 0 0 0 0 0 0 
0 0 0 0 0 0 0 0 0 
0 0 0 0 0 0 0 0 0 
0 0 0 0 0 0 0 0 0 
0 0 0 0 0 0 0 0 0 
0 0 0 0 0 0 0 0 0 
0 0 0 0 0 0 0 0 0 
0 0 0 0 0 0 0 0 0 
0 0 0 0 0 0 0 0 0 
0 0 0 0 0 0 0 0 0 
0 0 0 0 0 0 0 0 0 
0 0 0 0 0 0 0 0 0 
0 0 0 0 0 0 
v 3 1355 double
-0.00213203 -0.00293737 0.000191892 -0.00267271 -0.000834036 0.000342369 -0.00207331 0.000360353 -6.87765e-05 
-0.0025414 -0.00177217 0.000496928 0.00078204 -0.00514182 0.00188067 -0.00582308 -0.0110877 -0.00377132 
0.0513473 -0.00436082 0.00252484 0.00446617 -0.000418852 0.00734684 0.00635924 -0.00927816 -0.00166113 
0.00138236 -0.00252853 0.00191133 0.00338165 -0.000686346 0.00188792 0.000932143 -0.000438175 0.00205245 
-0.000782945 0.00293643 0.00106932 -0.0016195 0.001973 0.00125439 -0.000314243 -0.00437788 0.000140047 
-0.000155063 -0.000158139 0.000705068 7.23758e-05 0.000298095 0.000343717 0.00077174 8.01247e-05 4.97398e-05 
0.000737663 0.000281212 -0.000669839 0.000238626 0.000297874 -0.000688025 -0.000277929 4.2698e-05 -8.50505e-06 
-0.000420981 -2.85151e-05 -0.000189764 -0.00168331 -0.00303369 0.00108883 -0.00274472 -0.00670038 -0.000500907 
-0.00659227 -0.00062739 0.00409693 0.00230888 -0.000493302 0.00175219 -0.00143268 -0.00736131 -0.00199215 
0.00292668 -0.00584289 0.00442368 0.003423 -0.0550722 0.00339959 0.0240452 -0.171895 0.00286681 
0.00572463 -0.0151671 0.00715183 0.00390833 -0.0096412 0.00568573 0.00328652 0.00368693 0.00462769 
0.00106287 0.00154833 0.00188169 8.64581e-05 0.00667439 0.000818826 0.002261 -0.0193218 0.000674368 
-0.00314154 -0.00380224 0.00129243 0.00149348 0.015243 -4.92979e-05 0.00118573 0.000640382 0.000489669 
0.000953558 0.000148314 -1.13888e-05 0.00103763 0.000424261 -0.00109401 0.00031843 0.000174379 -0.000340588 
0.000367483 -0.000266183 7.31374e-05 0.000126577 -0.000672908 0.000144824 -0.0212624 -0.00343862 0.00027457 
-0.021297 -0.00638674 0.000627143 -0.00354905 -0.0180788 -0.00318278 -0.0290384 -0.0125941 0.000880969 
-0.026741 -0.00874524 -0.00104351 -0.0473946 -0.00718568 0.00645423 -0.0640734 -0.083193 0.00325865 
-0.059094 -0.115585 -0.00129521 -0.0209004 -0.048126 0.0038602 -0.013415 -0.0200728 0.00502962 
-0.022443 0.0165048 -0.00731345 -0.0311681 -0.0420249 -0.0191341 0.00302048 0.0103843 0.00873215 
-0.00799548 0.0138403 -0.00523363 -0.0175095 -0.00319049 -0.000762014 -0.0129003 -0.00785323 -0.00166597 
-0.0134375 -0.0196233 0.00189429 0.00410711 -0.00144919 -0.000641378 0.00215769 0.000408482 -0.0003872 
0.00146101 0.000695025 -0.00023044 0.00127916 0.000326899 -0.000745729 0.000900286 -0.000258643 -0.000169995 
0.000474692 -0.000694186 -0.000242413 0.00108315 -0.00244238 -0.000604985 -0.0185851 -0.0122499 0.00460059 
-0.013918 -0.00742287 0.00191239 -0.0189891 -0.0157558 -0.00622758 0.00613847 -0.0171734 -0.00555573 
-0.0135854 -0.0346865 0.00090999 -0.0260696 -0.0835928 -0.0216199 -0.00293218 0.00890833 -0.00156578 