# vtk DataFile Version 4.0
Generated by LIGGGHTS
ASCII
DATASET POLYDATA
POINTS 767 float
0.117083 0.186218 -0.155526 0.00622035 0.064644 -0.213484 0.747911 0.329241 -0.28839 
-0.356488 0.311378 -0.424494 -0.833369 -0.280169 -0.254677 -0.426891 0.0157034 -0.303846 
0.0106642 -0.341132 -0.135465 -0.0892873 0.243652 -0.346907 -0.806406 0.217767 -0.462084 
0.70076 0.123196 -0.160795 0.770126 -0.131983 -0.160402 -0.479307 -0.318054 -0.212511 
0.223427 0.147947 -0.171708 -0.178291 -0.059336 -0.439752 -0.616702 -0.229268 -0.0772077 
0.385793 0.18676 -0.457749 -0.544989 0.251096 -0.148654 -0.704843 -0.217423 -0.150854 
-0.592122 0.180867 -0.362209 0.328112 -0.276136 -0.397983 -0.589675 0.0611119 -0.316019 
-0.369246 0.211521 -0.367326 0.314138 0.137911 -0.094123 -0.680504 -0.0110466 -0.296548 
0.543109 0.104766 -0.259156 0.369846 0.267091 -0.133489 0.643118 -0.0510578 -0.0892437 
-0.26687 0.140042 -0.205718 0.320315 -0.120227 -0.16584 -0.110753 -0.0974666 -0.0843775 
0.370221 -0.127775 -0.458954 0.337265 0.0961463 -0.302089 0.545868 -0.0844407 -0.254833 
-0.133117 0.0468095 -0.0542243 -0.528711 0.249896 -0.253155 -0.273868 -0.131558 -0.196675 
0.795127 0.225442 -0.132344 0.13447 -0.341821 -0.374156 0.323801 0.317803 -0.434526 
-0.0909412 -0.110259 -0.462892 0.561318 0.118298 -0.111902 -0.0311292 0.271773 -0.454166 
0.247328 0.28878 -0.307563 0.0675788 -0.0012771 -0.173622 0.63359 -0.0257128 -0.35559 
-0.619462 -0.0433049 -0.149818 0.455764 -0.342079 -0.0849952 0.796586 -0.0776538 -0.462217 
0.074884 0.166874 -0.349626 -0.562703 -0.0653342 -0.0531852 -0.606703 0.0661009 -0.409422 
0.281775 -0.000553812 -0.0758959 0.552343 0.279103 -0.457946 0.132775 -0.198218 -0.418544 
-0.822377 0.225946 -0.340028 -0.235759 -0.268257 -0.133619 -0.0152219 -0.104395 -0.35867 
0.749021 -0.176354 -0.248662 -0.119237 -0.270271 -0.284124 -0.129378 -0.0216049 -0.204739 
0.358375 0.179505 -0.170925 -0.354518 -0.172318 -0.348188 0.570446 0.303349 -0.269017 
-0.480828 0.324119 -0.0909616 -0.197471 0.135056 -0.0803168 -0.533491 -0.259403 -0.130154 
0.582644 0.218002 -0.280351 -0.649935 0.333382 -0.28988 0.796531 0.312683 -0.221308 
0.777599 -0.310843 -0.461275 -0.824327 0.063483 -0.408838 -0.663656 -0.276137 -0.389393 
-0.755859 0.30381 -0.424056 0.720253 0.131938 -0.328382 0.460705 -0.234105 -0.384764 
0.0134671 -0.203403 -0.3768 -0.059421 0.138565 -0.217171 -0.379061 -0.299339 -0.125334 
0.428808 -0.095902 -0.149268 -0.0516414 -0.15013 -0.276019 0.641391 -0.149171 -0.207556 
-0.398966 -0.190249 -0.208539 -0.672376 -0.0962528 -0.333864 -0.0664893 0.140031 -0.318253 
-0.509238 0.102462 -0.460035 -0.25607 0.0171489 -0.120376 -0.067293 -0.263614 -0.361169 
0.0975486 -0.133763 -0.359664 -0.485968 0.3307 -0.461254 -0.0671953 -0.334234 -0.179623 
-0.690225 0.175517 -0.0574459 -0.263669 0.0473898 -0.457901 -0.762741 0.0909754 -0.119272 
0.220561 0.339984 -0.437393 -0.11837 -0.200549 -0.404733 -0.404553 -0.171187 -0.417437 
0.792851 0.0178461 -0.295818 -0.0210569 0.309353 -0.200154 -0.258235 -0.160238 -0.460034 
-0.191732 -0.196388 -0.195623 -0.530873 0.0995761 -0.273884 0.350958 -0.0223738 -0.280856 
0.109315 -0.237501 -0.0556179 -0.119616 0.0939038 -0.357778 -0.676888 -0.203837 -0.435046 
-0.563979 0.00323749 -0.250622 0.14213 0.0805902 -0.208665 0.709383 -0.265215 -0.178065 
0.584524 -0.138818 -0.452078 0.573597 -0.159271 -0.305152 0.197709 0.0453116 -0.288474 
0.156143 -0.0440876 -0.371548 0.472128 0.290839 -0.181673 0.485769 -0.210009 -0.272187 
-0.345147 0.232063 -0.0773697 -0.421252 -0.259133 -0.291483 0.559196 0.272092 -0.105908 
0.850973 -0.223335 -0.254749 0.281605 0.327968 -0.159828 -0.456818 -0.329683 -0.373972 
-0.225435 0.0533489 -0.361692 -0.352318 0.265982 -0.287176 0.587778 0.173742 -0.207206 
0.382213 -0.150684 -0.100681 0.311892 0.163203 -0.417813 0.563115 -0.0550897 -0.441242 
-0.771314 0.0590156 -0.336648 0.690273 0.188208 -0.247087 -0.190194 0.0910375 -0.462163 
-0.197675 0.209759 -0.369446 -0.156511 -0.300914 -0.175425 0.481445 0.287923 -0.308952 
-0.00832472 0.216187 -0.346557 0.551768 -0.0154076 -0.105465 -0.789508 0.153594 -0.352408 
-0.641975 -0.207011 -0.280466 -0.211518 0.00671039 -0.269981 -0.313116 0.295548 -0.210579 
0.135395 0.167598 -0.242641 0.665923 -0.101453 -0.459221 -0.311558 -0.0716184 -0.0649941 
-0.692059 0.0742559 -0.246414 -0.763611 -0.00466069 -0.216115 0.551532 -0.176435 -0.0934564 
0.0538236 -0.349772 -0.396664 0.0105158 0.15041 -0.294703 0.779253 0.0467125 -0.0729437 
-0.819929 0.110385 -0.22868 -0.659806 0.193994 -0.461028 -0.261847 0.0632312 -0.0539551 
0.229894 -0.340114 -0.442046 -0.102447 0.342732 -0.0702764 0.218577 -0.0759402 -0.46222 
0.114707 0.0392181 -0.296545 0.824309 -0.197884 -0.403138 0.690416 -0.345583 -0.396347 
-0.761699 -0.125513 -0.189762 -0.277323 -0.342373 -0.174822 -0.838168 -0.126142 -0.300864 
-0.676742 0.0905527 -0.0585134 0.169121 0.0962272 -0.452318 -0.170158 0.156412 -0.244494 
0.841104 -0.341335 -0.266632 -0.494357 0.0622754 -0.0947056 -0.398297 0.00624883 -0.118386 
0.670338 0.0725746 -0.407438 0.273979 0.163877 -0.332288 0.141086 0.277806 -0.0748307 
0.203691 -0.0717236 -0.170199 0.383619 -0.048379 -0.449686 -0.733212 -0.130195 -0.377307 
-0.591383 0.0994467 -0.132823 -0.819649 -0.197714 -0.117713 0.393083 0.244203 -0.0593379 
-0.550834 -0.207397 -0.331638 -0.125435 -0.171766 -0.0561306 0.658867 -0.00672807 -0.432627 
0.287912 0.23948 -0.168689 -0.698004 -0.334611 -0.134045 0.260688 0.0799716 -0.206258 
0.579354 -0.350849 -0.209133 -0.583901 -0.0109665 -0.454889 -0.281134 -0.00762326 -0.335994 
0.68615 -0.213971 -0.384895 -0.495023 -0.108878 -0.452376 0.546798 -0.340066 -0.435582 
-0.206829 -0.165917 -0.11208 -0.5995 0.267875 -0.395367 -0.380315 -0.0694876 -0.181828 
0.69681 0.215311 -0.0528208 0.370787 0.0995597 -0.445899 -0.337042 -0.0287039 -0.274475 
0.457328 0.136373 -0.247248 0.844784 -0.0530785 -0.31523 0.611813 -0.290743 -0.336167 
-0.811942 -0.223592 -0.450366 -0.234584 -0.289939 -0.381837 0.1825 0.0381925 -0.0702741 
0.504236 0.129261 -0.454646 0.195328 -0.144952 -0.392552 -0.651969 0.3358 -0.389536 
0.532581 -0.136383 -0.378599 0.638423 0.0814108 -0.0888312 0.0983058 -0.0772895 -0.136155 
-0.652696 -0.293872 -0.200626 -0.422764 -0.352966 -0.446067 0.141553 -0.229898 -0.198402 
-0.340834 -0.357199 -0.411462 -0.76958 0.21202 -0.122442 0.739234 0.313743 -0.0882467 
0.268664 -0.339232 -0.17413 0.814412 0.275998 -0.0730603 -0.660858 0.33483 -0.083362 
0.260858 -0.251856 -0.348301 -0.596406 0.182688 -0.239931 0.638839 -0.0109947 -0.250561 
-0.802314 -0.308531 -0.183451 -0.101932 0.193331 -0.437347 0.230773 -0.18012 -0.306741 
0.413514 0.0570824 -0.14358 -0.292203 -0.293828 -0.238678 0.645409 0.261762 -0.113736 
0.783489 -0.311333 -0.116449 0.253942 0.091471 -0.413096 0.698556 -0.342233 -0.198425 
0.379604 0.358038 -0.2979 0.15062 0.29515 -0.396164 -0.34181 0.356176 -0.35577 
-0.241784 0.324635 -0.17331 0.419657 0.342985 -0.413455 0.848016 0.0888664 -0.272722 
-0.387246 0.156381 -0.0710762 0.571652 -0.285583 -0.124367 -0.0726504 -0.282664 -0.461933 
-0.294014 -0.220749 -0.0927908 -0.0339448 0.039977 -0.324695 -0.0364885 0.239205 -0.0552145 
0.422229 0.358575 -0.15218 0.164059 -0.11362 -0.267126 0.791565 0.01779 -0.386102 
0.255294 -0.212375 -0.12449 0.822447 0.294633 -0.32217 0.0705914 0.102308 -0.0749319 
0.415153 0.300924 -0.24316 -0.211118 -0.204643 -0.409161 -0.104806 0.322113 -0.166169 
0.0653475 0.130973 -0.461848 0.430098 -0.0656924 -0.31599 -0.83723 -0.324515 -0.0908465 
-0.377426 -0.230061 -0.462045 -0.729625 0.265891 -0.242913 0.0517252 -0.0242304 -0.284137 
0.833229 0.0373707 -0.203065 -0.612829 -0.0931211 -0.437513 -0.697661 -0.16996 -0.0769621 
0.372981 -0.312305 -0.325267 -0.109101 0.243246 -0.107629 -0.666351 0.104043 -0.35073 
0.0791859 0.300932 -0.155364 -0.236757 0.279355 -0.309397 -0.437464 0.239655 -0.335663 
-0.845178 0.310902 -0.425755 0.253314 0.196269 -0.0725296 -0.849887 0.332487 -0.192457 
0.852368 -0.19905 -0.149943 -0.747095 0.168553 -0.218729 -0.759234 -0.0922642 -0.449107 
-0.446312 -0.249125 -0.160894 -0.372246 0.202991 -0.462278 -0.463353 -0.341984 -0.0905728 
-0.0777444 0.0664115 -0.147481 -0.319828 -0.247568 -0.302921 0.158143 -0.310148 -0.168484 
0.674219 0.265178 -0.229626 -0.567747 -0.146791 -0.211052 0.30861 -0.353074 -0.085191 
-0.246844 0.130941 -0.304372 0.722288 0.129451 -0.452184 0.193935 -0.149303 -0.0891995 
0.214489 -0.212642 -0.433503 0.411884 -0.119771 -0.382601 0.580032 -0.0887159 -0.163663 
0.202027 0.295882 -0.200863 -0.0345635 0.218011 -0.185375 0.302509 -0.324864 -0.255669 
0.84563 -0.128846 -0.20763 -0.504568 -0.212292 -0.256029 0.170733 0.140602 -0.317326 
-0.669489 -0.130467 -0.231666 0.44368 -0.21233 -0.151762 0.534167 -0.290497 -0.249086 
-0.447416 0.302639 -0.220797 -0.436204 0.051014 -0.388309 0.579312 0.134794 -0.333767 
-0.359126 -0.192852 -0.0533376 -0.168436 0.220822 -0.160138 -0.743652 0.287323 -0.109094 
0.471426 -0.152384 -0.460848 -0.729952 0.223945 -0.36121 0.742709 -0.128958 -0.381054 
0.724085 -0.0480623 -0.123224 0.296524 -0.23442 -0.194438 0.83679 0.235092 -0.258772 
0.196847 0.00269451 -0.454323 0.33497 -0.249137 -0.289313 0.532968 0.350458 -0.419996 
-0.415352 -0.183482 -0.124394 -0.60936 0.217878 -0.0912917 -0.559479 0.0152958 -0.0854566 
-0.816091 -0.0184872 -0.454733 0.125242 0.329905 -0.313612 0.0309406 -0.0808888 -0.444261 
0.0267557 -0.14056 -0.24939 -0.753252 -0.226243 -0.30146 0.368465 0.348969 -0.0609282 
0.777688 0.354937 -0.366897 -0.850054 -0.116376 -0.219144 -0.162211 0.317808 -0.385952 
0.812696 0.256161 -0.448659 0.763139 -0.322446 -0.352261 0.565804 0.0267853 -0.395783 
-0.573122 -0.293223 -0.385208 -0.300933 0.0939957 -0.392587 -0.457752 -0.107148 -0.281828 
0.620386 -0.254939 -0.23669 0.800447 -0.0363122 -0.195468 0.00321587 0.0218602 -0.130444 
-0.469811 0.215499 -0.0747373 -0.839802 -0.335347 -0.367762 -0.851201 0.120912 -0.153289 
-0.435467 -0.0432792 -0.379769 -0.578541 0.0303289 -0.172002 0.828634 0.115304 -0.0608173 
[...]
POINT_DATA 767
FIELD FieldData 7
id 1 767 int
1 2 3 4 5 6 7 8 9 
10 11 12 13 14 15 16 17 18 
19 20 21 22 23 24 25 26 27 
28 29 30 31 32 33 34 35 36 
37 38 39 40 41 42 43 44 45 
46 47 48 49 50 51 52 53 54 
55 56 57 58 59 60 61 62 63 
64 65 66 67 68 69 70 71 72 
73 74 75 76 77 78 79 80 81 
82 83 84 85 86 87 88 89 90 
91 92 93 94 95 96 97 98 99 
100 101 102 103 104 105 106 107 108 
109 110 111 112 113 114 115 116 117 
118 119 120 121 122 123 124 125 126 
127 128 129 130 131 132 133 134 135 
136 137 138 139 140 141 142 143 144 
145 146 147 148 149 150 151 152 153 
154 155 156 157 158 159 160 161 162 
163 164 165 166 167 168 169 170 171 
172 173 174 175 176 177 178 179 180 
181 182 183 184 185 186 187 188 189 
190 191 192 193 194 195 196 197 198 
199 200 201 202 203 204 205 206 207 
208 209 210 211 212 213 214 215 216 
217 218 219 220 221 222 223 224 225 
226 227 228 229 230 231 232 233 234 
235 236 237 238 239 240 241 242 243 
244 245 246 247 248 249 250 251 252 
253 254 255 256 257 258 259 260 261 
262 263 264 265 266 267 268 269 270 
271 272 273 274 275 276 277 278 279 
280 281 282 283 284 285 286 287 288 
289 290 291 292 293 294 295 296 297 
298 299 300 301 302 303 304 305 306 
307 308 309 310 311 312 313 314 315 
316 317 318 319 320 321 322 323 324 
325 326 327 328 329 330 331 332 333 
334 335 336 337 338 339 340 341 342 
343 344 345 346 347 348 349 350 351 
352 353 354 355 356 357 358 359 360 
361 362 363 364 365 366 367 368 369 
370 371 372 373 374 375 376 377 378 
379 380 381 382 383 384 385 386 387 
388 389 390 391 392 393 394 395 396 
397 398 399 400 401 402 403 404 405 
406 407 408 409 410 411 412 413 414 
415 416 417 418 419 420 421 422 423 
424 425 426 427 428 429 430 431 432 
433 434 435 436 437 438 439 440 441 
442 443 444 445 446 447 448 449 450 
451 452 453 454 455 456 457 458 459 
460 461 462 463 464 465 466 467 468 
469 470 471 472 473 474 475 476 477 
478 479 480 481 482 483 484 485 486 
487 488 489 490 491 492 493 494 495 
496 497 498 499 500 501 502 503 504 
505 506 507 508 509 510 511 512 513 
514 515 516 517 518 519 520 521 522 
523 524 525 526 527 528 529 530 531 
532 533 534 535 536 537 538 539 540 
541 542 543 544 545 546 547 548 549 
550 551 552 553 554 555 556 557 558 
559 560 561 562 563 564 565 566 567 
568 569 570 571 572 573 574 575 576 
577 578 579 580 581 582 583 584 585 
586 587 588 589 590 591 592 593 594 
595 596 597 598 599 600 601 602 603 
604 605 606 607 608 609 610 611 612 
613 614 615 616 617 618 619 620 621 
622 623 624 625 626 627 628 629 630 
631 632 633 634 635 636 637 638 639 
640 641 642 643 644 645 646 647 648 
649 650 651 652 653 654 655 656 657 
658 659 660 661 662 663 664 665 666 
667 668 669 670 671 672 673 674 675 
676 677 678 679 680 681 682 683 684 
685 686 687 688 689 690 691 692 693 
694 695 696 697 698 699 700 701 702 
703 704 705 706 707 708 709 710 711 
712 713 714 715 716 717 718 719 720 
721 722 723 724 725 726 727 728 729 
730 731 732 733 734 735 736 737 738 
739 740 741 742 743 744 745 746 747 
748 749 750 751 752 753 754 755 756 
757 758 759 760 761 762 763 764 765 
766 767 
type 1 767 int
1 1 1 1 1 1 1 1 1 
1 1 1 1 1 1 1 1 1 
1 1 1 1 1 1 1 1 1 
1 1 1 1 1 1 1 1 1 
1 1 1 1 1 1 1 1 1 
1 1 1 1 1 1 1 1 1 
1 1 1 1 1 1 1 1 1 
1 1 1 1 1 1 1 1 1 
1 1 1 1 1 1 1 1 1 
1 1 1 1 1 1 1 1 1 
1 1 1 1 1 1 1 1 1 
1 1 1 1 1 1 1 1 1 
1 1 1 1 1 1 1 1 1 
1 1 1 1 1 1 1 1 1 
1 1 1 1 1 1 1 1 1 
1 1 1 1 1 1 1 1 1 
1 1 1 1 1 1 1 1 1 
1 1 1 1 1 1 1 1 1 
1 1 1 1 1 1 1 1 1 
1 1 1 1 1 1 1 1 1 
1 1 1 1 1 1 1 1 1 
1 1 1 1 1 1 1 1 1 
1 1 1 1 1 1 1 1 1 
1 1 1 1 1 1 1 1 1 
1 1 1 1 1 1 1 1 1 
1 1 1 1 1 1 1 1 1 
1 1 1 1 1 1 1 1 1 
1 1 1 1 1 1 1 1 1 
1 1 1 1 1 1 1 1 1 
1 1 1 1 1 1 1 1 1 
1 1 1 1 1 1 1 1 1 
1 1 1 1 1 1 1 1 1 
1 1 1 1 1 1 1 1 1 
1 1 1 1 1 1 1 1 1 
1 1 1 1 1 1 1 1 1 
1 1 1 1 1 1 1 1 1 
1 1 1 1 1 1 1 1 1 
1 1 1 1 1 1 1 1 1 
1 1 1 1 1 1 1 1 1 
1 1 1 1 1 1 1 1 1 
1 1 1 1 1 1 1 1 1 
1 1 1 1 1 1 1 1 1 
1 1 1 1 1 1 1 1 1 
1 1 1 1 1 1 1 1 1 
1 1 1 1 1 1 1 1 1 
1 1 1 1 1 1 1 1 1 
1 1 1 1 1 1 1 1 1 
1 1 1 1 1 1 1 1 1 
1 1 1 1 1 1 1 1 1 
1 1 1 1 1 1 1 1 1 
1 1 1 1 1 1 1 1 1 
1 1 1 1 1 1 1 1 1 
1 1 1 1 1 1 1 1 1 
1 1 1 1 1 1 1 1 1 
1 1 1 1 1 1 1 1 1 
1 1 1 1 1 1 1 1 1 
1 1 1 1 1 1 1 1 1 
1 1 1 1 1 1 1 1 1 
1 1 1 1 1 1 1 1 1 
1 1 1 1 1 1 1 1 1 
1 1 1 1 1 1 1 1 1 
1 1 1 1 1 1 1 1 1 
1 1 1 1 1 1 1 1 1 
1 1 1 1 1 1 1 1 1 
1 1 1 1 1 1 1 1 1 
1 1 1 1 1 1 1 1 1 
1 1 1 1 1 1 1 1 1 
1 1 1 1 1 1 1 1 1 
1 1 1 1 1 1 1 1 1 
1 1 1 1 1 1 1 1 1 
1 1 1 1 1 1 1 1 1 
1 1 1 1 1 1 1 1 1 
1 1 1 1 1 1 1 1 1 
1 1 1 1 1 1 1 1 1 
1 1 1 1 1 1 1 1 1 
1 1 1 1 1 1 1 1 1 
1 1 1 1 1 1 1 1 1 
1 1 1 1 1 1 1 1 1 
1 1 1 1 1 1 1 1 1 
1 1 1 1 1 1 1 1 1 
1 1 1 1 1 1 1 1 1 
1 1 1 1 1 1 1 1 1 
1 1 1 1 1 1 1 1 1 
1 1 1 1 1 1 1 1 1 
1 1 1 1 1 1 1 1 1 
1 1 
i 3 767 int
0 0 0 0 0 0 0 0 0 
0 0 0 0 0 0 0 0 0 
0 0 0 0 0 0 0 0 0 
0 0 0 0 0 0 0 0 0 
0 0 0 0 0 0 0 0 0 
0 0 0 0 0 0 0 0 0 
0 0 0 0 0 0 0 0 0 
0 0 0 0 0 0 0 0 0 
0 0 0 0 0 0 0 0 0 
0 0 0 0 0 0 0 0 0 
0 0 0 0 0 0 0 0 0 
0 0 0 0 0 0 0 0 0 
0 0 0 0 0 0 0 0 0 
0 0 0 0 0 0 0 0 0 
0 0 0 0 0 0 0 0 0 
0 0 0 0 0 0 0 0 0 
0 0 0 0 0 0 0 0 0 
0 0 0 0 0 0 0 0 0 
0 0 0 0 0 0 0 0 0 
0 0 0 0 0 0 0 0 0 
0 0 0 0 0 0 0 0 0 
0 0 0 0 0 0 0 0 0 
0 0 0 0 0 0 0 0 0 
0 0 0 0 0 0 0 0 0 
0 0 0 0 0 0 0 0 0 
0 0 0 0 0 0 0 0 0 
0 0 0 0 0 0 0 0 0 
0 0 0 0 0 0 0 0 0 
0 0 0 0 0 0 0 0 0 
0 0 0 0 0 0 0 0 0 
0 0 0 0 0 0 0 0 0 
0 0 0 0 0 0 0 0 0 
0 0 0 0 0 0 0 0 0 
0 0 0 0 0 0 0 0 0 
0 0 0 0 0 0 0 0 0 
0 0 0 0 0 0 0 0 0 
0 0 0 0 0 0 0 0 0 
0 0 0 0 0 0 0 0 0 
0 0 0 0 0 0 0 0 0 
0 0 0 0 0 0 0 0 0 
0 0 0 0 0 0 0 0 0 
0 0 0 0 0 0 0 0 0 
0 0 0 0 0 0 0 0 0 
0 0 0 0 0 0 0 0 0 
0 0 0 0 0 0 0 0 0 
0 0 0 0 0 0 0 0 0 
0 0 0 0 0 0 0 0 0 
0 0 0 0 0 0 0 0 0 
0 0 0 0 0 0 0 0 0 
0 0 0 0 0 0 0 0 0 
0 0 0 0 0 0 0 0 0 
0 0 0 0 0 0 0 0 0 
0 0 0 0 0 0 0 0 0 
0 0 0 0 0 0 0 0 0 
0 0 0 0 0 0 0 0 0 
0 0 0 0 0 0 0 0 0 
0 0 0 0 0 0 0 0 0 
0 0 0 0 0 0 0 0 0 
0 0 0 0 0 0 0 0 0 
0 0 0 0 0 0 0 0 0 
0 0 0 0 0 0 0 0 0 
0 0 0 0 0 0 0 0 0 
0 0 0 0 0 0 0 0 0 
0 0 0 0 0 0 0 0 0 
0 0 0 0 0 0 0 0 0 
0 0 0 0 0 0 0 0 0 
0 0 0 0 0 0 0 0 0 
0 0 0 0 0 0 0 0 0 
0 0 0 0 0 0 0 0 0 
0 0 0 0 0 0 0 0 0 
0 0 0 0 0 0 0 0 0 
0 0 0 0 0 0 0 0 0 
0 0 0 0 0 0 0 0 0 
0 0 0 0 0 0 0 0 0 
0 0 0 0 0 0 0 0 0 
0 0 0 0 0 0 0 0 0 
0 0 0 0 0 0 0 0 0 
0 0 0 0 0 0 0 0 0 
0 0 0 0 0 0 0 0 0 
0 0 0 0 0 0 0 0 0 
0 0 0 0 0 0 0 0 0 
0 0 0 0 0 0 0 0 0 
0 0 0 0 0 0 0 0 0 
0 0 0 0 0 0 0 0 0 
0 0 0 0 0 0 0 0 0 
0 0 0 0 0 0 0 0 0 
0 0 0 0 0 0 0 0 0 
0 0 0 0 0 0 0 0 0 
0 0 0 0 0 0 0 0 0 
0 0 0 0 0 0 0 0 0 
0 0 0 0 0 0 0 0 0 
0 0 0 0 0 0 0 0 0 
0 0 0 0 0 0 0 0 0 
0 0 0 0 0 0 0 0 0 
0 0 0 0 0 0 0 0 0 
0 0 0 0 0 0 0 0 0 
0 0 0 0 0 0 0 0 0 
0 0 0 0 0 0 0 0 0 
0 0 0 0 0 0 0 0 0 
0 0 0 0 0 0 0 0 0 
0 0 0 0 0 0 0 0 0 
0 0 0 0 0 0 0 0 0 
0 0 0 0 0 0 0 0 0 
0 0 0 0 0 0 0 0 0 
0 0 0 0 0 0 0 0 0 
0 0 0 0 0 0 0 0 0 
0 0 0 0 0 0 0 0 0 
0 0 0 0 0 0 0 0 0 
0 0 0 0 0 0 0 0 0 
0 0 0 0 0 0 0 0 0 
0 0 0 0 0 0 0 0 0 
0 0 0 0 0 0 0 0 0 
0 0 0 0 0 0 0 0 0 
0 0 0 0 0 0 0 0 0 
0 0 0 0 0 0 0 0 0 
0 0 0 0 0 0 0 0 0 
0 0 0 0 0 0 0 0 0 
0 0 0 0 0 0 0 0 0 
0 0 0 0 0 0 0 0 0 
0 0 0 0 0 0 0 0 0 
0 0 0 0 0 0 0 0 0 
0 0 0 0 0 0 0 0 0 
0 0 0 0 0 0 0 0 0 
0 0 0 0 0 0 0 0 0 
0 0 0 0 0 0 0 0 0 
0 0 0 0 0 0 0 0 0 
0 0 0 0 0 0 0 0 0 
0 0 0 0 0 0 0 0 0 
0 0 0 0 0 0 0 0 0 
0 0 0 0 0 0 0 0 0 
0 0 0 0 0 0 0 0 0 
0 0 0 0 0 0 0 0 0 
0 0 0 0 0 0 0 0 0 
0 0 0 0 0 0 0 0 0 
0 0 0 0 0 0 0 0 0 
0 0 0 0 0 0 0 0 0 
0 0 0 0 0 0 0 0 0 
0 0 0 0 0 0 0 0 0 
0 0 0 0 0 0 0 0 0 
0 0 0 0 0 0 0 0 0 
0 0 0 0 0 0 0 0 0 
0 0 0 0 0 0 0 0 0 
0 0 0 0 0 0 0 0 0 
0 0 0 0 0 0 0 0 0 
0 0 0 0 0 0 0 0 0 
0 0 0 0 0 0 0 0 0 
0 0 0 0 0 0 0 0 0 
0 0 0 0 0 0 0 0 0 
0 0 0 0 0 0 0 0 0 
0 0 0 0 0 0 0 0 0 
0 0 0 0 0 0 0 0 0 
0 0 0 0 0 0 0 0 0 
0 0 0 0 0 0 0 0 0 
0 0 0 0 0 0 0 0 0 
0 0 0 0 0 0 0 0 0 
0 0 0 0 0 0 0 0 0 
0 0 0 0 0 0 0 0 0 
0 0 0 0 0 0 0 0 0 
0 0 0 0 0 0 0 0 0 
0 0 0 0 0 0 0 0 0 
0 0 0 0 0 0 0 0 0 
0 0 0 0 0 0 0 0 0 
0 0 0 0 0 0 0 0 0 
0 0 0 0 0 0 0 0 0 
0 0 0 0 0 0 0 0 0 
0 0 0 0 0 0 0 0 0 
0 0 0 0 0 0 0 0 0 
0 0 0 0 0 0 0 0 0 
0 0 0 0 0 0 0 0 0 
0 0 0 0 0 0 0 0 0 
0 0 0 0 0 0 0 0 0 
0 0 0 0 0 0 0 0 0 
0 0 0 0 0 0 0 0 0 
0 0 0 0 0 0 0 0 0 
0 0 0 0 0 0 0 0 0 
0 0 0 0 0 0 0 0 0 
0 0 0 0 0 0 0 0 0 
0 0 0 0 0 0 0 0 0 
0 0 0 0 0 0 0 0 0 
0 0 0 0 0 0 0 0 0 
0 0 0 0 0 0 0 0 0 
0 0 0 0 0 0 0 0 0 
0 0 0 0 0 0 0 0 0 
0 0 0 0 0 0 0 0 0 
0 0 0 0 0 0 0 0 0 
0 0 0 0 0 0 0 0 0 
0 0 0 0 0 0 0 0 0 
0 0 0 0 0 0 0 0 0 
0 0 0 0 0 0 0 0 0 
0 0 0 0 0 0 0 0 0 
0 0 0 0 0 0 0 0 0 
0 0 0 0 0 0 0 0 0 
0 0 0 0 0 0 0 0 0 
0 0 0 0 0 0 0 0 0 
0 0 0 0 0 0 0 0 0 
0 0 0 0 0 0 0 0 0 
0 0 0 0 0 0 0 0 0 
0 0 0 0 0 0 0 0 0 
0 0 0 0 0 0 0 0 0 
0 0 0 0 0 0 0 0 0 
0 0 0 0 0 0 0 0 0 
0 0 0 0 0 0 0 0 0 
0 0 0 0 0 0 0 0 0 
0 0 0 0 0 0 0 0 0 
0 0 0 0 0 0 0 0 0 
0 0 0 0 0 0 0 0 0 
0 0 0 0 0 0 0 0 0 
0 0 0 0 0 0 0 0 0 
0 0 0 0 0 0 0 0 0 
0 0 0 0 0 0 0 0 0 
0 0 0 0 0 0 0 0 0 
0 0 0 0 0 0 0 0 0 
0 0 0 0 0 0 0 0 0 
0 0 0 0 0 0 0 0 0 
0 0 0 0 0 0 0 0 0 
0 0 0 0 0 0 0 0 0 
0 0 0 0 0 0 0 0 0 
0 0 0 0 0 0 0 0 0 
0 0 0 0 0 0 0 0 0 
0 0 0 0 0 0 0 0 0 
0 0 0 0 0 0 0 0 0 
0 0 0 0 0 0 0 0 0 
0 0 0 0 0 0 0 0 0 
0 0 0 0 0 0 0 0 0 
0 0 0 0 0 0 0 0 0 
0 0 0 0 0 0 0 0 0 
0 0 0 0 0 0 0 0 0 
0 0 0 0 0 0 0 0 0 
0 0 0 0 0 0 0 0 0 
0 0 0 0 0 0 0 0 0 
0 0 0 0 0 0 0 0 0 
0 0 0 0 0 0 0 0 0 
0 0 0 0 0 0 0 0 0 
0 0 0 0 0 0 0 0 0 
0 0 0 0 0 0 0 0 0 
0 0 0 0 0 0 0 0 0 
0 0 0 0 0 0 0 0 0 
0 0 0 0 0 0 0 0 0 
0 0 0 0 0 0 0 0 0 
0 0 0 0 0 0 0 0 0 
0 0 0 0 0 0 0 0 0 
0 0 0 0 0 0 0 0 0 
0 0 0 0 0 0 0 0 0 
0 0 0 0 0 0 0 0 0 
0 0 0 0 0 0 0 0 0 
0 0 0 0 0 0 0 0 0 
0 0 0 0 0 0 0 0 0 
0 0 0 0 0 0 0 0 0 
0 0 0 0 0 0 0 0 0 
0 0 0 0 0 0 0 0 0 
0 0 0 0 0 0 0 0 0 
0 0 0 0 0 0 0 0 0 
0 0 0 0 0 0 0 0 0 
0 0 0 0 0 0 0 0 0 
0 0 0 0 0 0 0 0 0 
0 0 0 0 0 0 
v 3 767 double
0 0 -0.897855 0 0 -0.897855 0 0 -0.897855 
0 0 -0.897855 0 0 -0.897855 0 0 -0.897855 
0 0 -0.897855 0 0 -0.897855 0.015583 0.0733635 0.490922 
0 0 -0.897855 0 0 -0.897855 0 0 -0.897855 
0 0 -0.897855 -0.0501537 -0.0406029 -0.873668 0 0 -0.897855 
0 0 -0.897855 0 0 -0.897855 0 0 -0.897855 
0 0 -0.897855 0 0 -0.897855 0 0 -0.897855 
0 0 -0.897855 0 0 -0.897855 0 0 -0.897855 
0 0 -0.897855 0 0 -0.897855 0 0 -0.897855 
0 0 -0.897855 0 0 -0.897855 0 0 -0.897855 
0 0 -0.897855 0 0 -0.897855 0 0 -0.897855 
0 0 -0.897855 0 0 -0.897855 0 0 -0.897855 
0 0 -0.897855 0 0 -0.897855 0 0 -0.897855 
0 0 -0.0777903 0 0 -0.897855 0 0 -0.897855 
0 0 -0.897855 0 0 -0.897855 0 0 -0.897855 
0 0 -0.897855 0 0 -0.897855 0 0 -0.568875 
0 0 -0.897855 0 0 -0.897855 0 0 -0.897855 
0 0 -0.897855 0 0 -0.897855 0 0 -0.897855 
0 0 -0.897855 0 0 -0.897855 0 0 -0.897855 
0 0 -0.897855 0 0 -0.897855 0 0 -0.897855 
0 0 -0.897855 0 0 -0.897855 0 0 -0.897855 
0 0 -0.897855 0 0 -0.897855 0 0 -0.897855 
0 0 -0.897855 0 0 -0.897855 0 0 -0.897855 
0 0 0.666067 0 0 -0.897855 -0.0339111 0.0408606 -0.717869 
0 0 -0.897855 0 0 -0.897855 0 0 -0.897855 
0 0 -0.897855 0 0 -0.897855 0 0 -0.897855 
0 0 -0.897855 0 0 -0.897855 0 0 -0.897855 
0 0 -0.897855 0 0 -0.897855 0 0 -0.897855 
0 0 -0.897348 0 0 -0.897855 0 0 -0.897855 
0 0 -0.897855 0 0 -0.795452 0 0 -0.897855 
0 0 -0.897855 0 0 -0.897855 0 0 -0.897855 
0 0 -0.897855 0 0 -0.897855 -0.0280364 0.0608481 -0.845589 
0 0 -0.897855 0 0 -0.897855 0 0 -0.897351 
0 0 -0.897855 0 0 -0.897855 0 0 -0.897855 
0 0 -0.897855 0 0 -0.897855 0 0 -0.897855 
0 0 -0.897855 0 0 -0.897855 0 0 -0.897855 
0 0 -0.897855 0 0 -0.897855 0 0 -0.897855 
0 0 -0.897855 0 0 -0.897855 0 0 -0.897855 
0 0 -0.897855 0 0 -0.897855 0 0 -0.897855 
0 0 -0.897855 0 0 -0.897855 0 0 -0.897855 
0 0 -0.897855 0 0 -0.897855 0 0 -0.897855 
0 0 -0.897855 0 0 -0.897855 0 0 -0.897855 
0 0 -0.897855 0 0 -0.897855 0 0 0.49726 
0 0 -0.897855 0 0 -0.897855 0 0 -0.897855 
0 0 -0.897855 0 0 -0.897855 0 0 -0.897855 
0 0 -0.897855 0 0 -0.897855 0 0 -0.897855 
0 0 -0.897855 0 0 -0.897855 0 0 -0.897855 
0 0 -0.897855 0 0 -0.897855 0 0 -0.897855 
0 0 -0.897855 0 0 -0.897855 0 0 -0.897855 
0 0 -0.897855 0 0 0.689284 0 0 -0.897855 
0 0 -0.897855 0 0 -0.897855 0 0 -0.567995 
0 0 -0.897855 0 0 -0.897855 0 0 -0.897855 
0 0 -0.897855 0 0 -0.897855 0 0 -0.897855 
0 0 -0.897855 0 0 -0.897855 0 0 -0.897855 
0 0 -0.897855 0 0 -0.897855 0 0 -0.897855 
0 0 -0.897855 0 0 -0.897855 0 0 -0.897855 
0 0 -0.897855 0 0 -0.897855 0 0 -0.897855 
0 0 -0.897855 0 0 -0.897855 0 0 -0.897855 
0 0 -0.897855 0 0 -0.897855 0 0 -0.897855 
0 0 -0.897855 0 0 -0.897855 0 0 -0.897855 
0 0 -0.897855 0 0 -0.897855 0 0 -0.897855 
0 0 -0.897855 0 0 -0.897855 0 0 -0.897855 
0 0 -0.897855 0 0 -0.897855 0 0 -0.897855 
0 0 -0.897855 0 0 -0.897855 0 0 -0.897855 
0 0 -0.897855 0 0 -0.897855 0 0 -0.897855 
0 0 -0.897855 0 0 -0.897855 0 0 -0.897855 
0 0 -0.897855 0 0 -0.897855 0 0 -0.897855 
0 0 -0.897855 0 0 -0.897855 0 0 -0.897855 
0 0 -0.897855 0 0 -0.897855 0 0 -0.897855 
0 0 -0.897855 0 0 -0.897855 0 0 -0.897855 
0 0 -0.897855 0 0 -0.897855 0 0 -0.897855 
0 0 -0.897855 0 0 -0.897855 0 0 -0.897855 
0 0 -0.897855 0 0 -0.897855 0 0 -0.897855 
0 0 -0.897855 0 0 -0.897855 0 0 -0.897855 
0 0 -0.897855 0 0 -0.897855 0 0 -0.897855 
0 0 -0.897855 0 0 -0.897855 0 0 -0.897855 
0 0 -0.897855 0 0 -0.897855 0 0 -0.897855 
0 0 -0.897855 0 0 -0.897855 0 0 0.557478 
0 0 -0.897855 0 0 -0.897855 0 0 -0.897855 
0 0 -0.897855 0 0 -0.897855 0 0 -0.897855 
0 0 -0.897855 0 0 -0.897855 0 0 -0.897855 
0 0 -0.897855 0 0 -0.897855 0 0 -0.897855 
0 0 0.57628 0 0 -0.897855 0 0 -0.897855 
0.0267143 -0.0579787 0.489776 0 0 -0.897855 0 0 -0.897855 
0 0 -0.897855 0 0 -0.897855 0 0 -0.897855 
0 0 -0.897855 0 0 -0.897855 0 0 -0.897855 
0 0 -0.897855 0 0 -0.897855 0 0 -0.897855 
0 0 -0.897855 0 0 -0.897855 0 0 -0.897855 
0 0 -0.897855 0 0 -0.897855 -0.0060654 0.00295746 -0.896292 
0 0 -0.897855 0 0 -0.547259 0 0 -0.897855 
0 0 -0.897855 0 0 -0.897855 0 0 -0.897855 
0 0 -0.897855 0 0 -0.897855 0 0 -0.897855 
0 0 -0.897855 0 0 -0.897855 0 0 -0.897855 
0 0 -0.897855 0 0 -0.897855 0 0 -0.897855 
0 0 -0.897855 0 0 -0.897855 0 0 -0.897855 
0 0 -0.897855 0 0 -0.897855 0 0 -0.897855 
0 0 -0.897855 0 0 -0.897855 0 0 -0.897855 
0 0 -0.897855 0 0 -0.897855 0 0 -0.897855 
0 0 -0.897855 0 0 -0.897855 0 0 -0.897855 
0 0 -0.846906 0 0 -0.897855 0 0 -0.897855 
0 0 -0.897855 0 0 -0.897855 0 0 -0.897855 
0 0 -0.897855 0 0 -0.897855 0 0 -0.897855 
0 0 -0.897855 0 0 -0.897855 0 0 -0.897855 
0 0 -0.897855 0 0 -0.897855 0 0 -0.897855 
0 0 -0.897855 0 0 -0.897855 0 0 -0.897855 
0 0 -0.897855 0 0 -0.897855 0 0 -0.897855 
0 0 -0.897855 0 0 -0.897855 0 0 -0.897855 
0 0 -0.897855 0 0 -0.897855 0 0 -0.897855 
0 0 -0.897855 0 0 -0.897855 0 0 -0.897855 
0 0 -0.897855 0 0 -0.897855 0 0 -0.897855 
0 0 -0.897855 0 0 -0.897855 0 0 -0.897855 
0 0 -0.897855 0 0 -0.897855 0 0 -0.897855 
0 0 -0.897855 0 0 -0.897855 0 0 -0.897855 
0 0 -0.897855 0 0 -0.897855 0 0 -0.897855 
0 0 -0.897855 0 0 -0.897855 0 0 -0.897855 
0 0 -0.897855 0 0 -0.897855 0.0156217 0.0068825 -0.8763 
0 0 -0.897855 0 0 -0.897855 0 0 -0.897855 
0 0 -0.897855 0 0 -0.897855 0 0 -0.897855 
0 0 -0.59583 0 0 -0.897855 0 0 -0.897855 
0 0 -0.897855 0 0 -0.897855 0 0 -0.897855 
0 0 -0.897855 0 0 -0.897855 0 0 -0.897855 
0 0 -0.897855 0 0 -0.897855 0 0 -0.897855 
0 0 -0.0413068 0 0 -0.897855 0 0 -0.897855 
0 0 -0.897855 0 0 -0.897855 0 0 -0.897855 
0 0 -0.897855 0 0 -0.897855 0 0 -0.897855 
0 0 -0.897855 0 0 -0.897855 0 0 -0.897855 
0 0 -0.897855 0 0 -0.897855 0 0 -0.897855 
0 0 -0.897855 0 0 -0.897855 0 0 -0.897855 
0 0 -0.897855 0 0 -0.897855 0 0 -0.897855 
0 0 -0.897855 0 0 -0.897855 0 0 -0.897855 
0 0 -0.897855 0 0 -0.897855 0 0 -0.897855 
0 0 -0.897855 0 0 -0.897855 0 0 -0.897855 
0 0 -0.897855 0 0 -0.897855 0 0 -0.897855 
0 0 -0.897855 0 0 -0.897855 0 0 -0.897855 
0 0 -0.897855 0 0 -0.897855 0 0 -0.897855 
0 0 -0.897855 0 0 -0.897855 0 0 -0.897855 
0 0 -0.897855 0 0 -0.897855 0 0 -0.897855 
0 0 -0.897855 0 0 -0.897855 0 0 -0.897855 
0 0 -0.897855 0 0 -0.897855 0 0 -0.897855 
0 0 -0.897855 0 0 -0.897855 0 0 -0.897855 
0 0 -0.897855 0 0 -0.897855 0 0 -0.897855 
0 0 -0.897855 0 0 -0.897855 0 0 -0.897855 
0 0 -0.897855 0 0 -0.897855 0 0 -0.897855 
0 0 -0.897855 0 0 -0.897855 0 0 -0.897855 
0 0 -0.897855 0 0 -0.897855 0 0 -0.897855 
0 0 -0.897855 0 0 -0.897855 0 0 -0.897855 
0 0 -0.897855 0 0 -0.897855 0 0 -0.863873 
0 0 -0.897855 0 0 -0.897855 0 0 -0.897855 
0 0 -0.897855 0 0 -0.897855 0 0 -0.897855 
0 0 -0.897855 0 0 -0.897855 0 0 -0.897855 
0 0 -0.897855 0 0 -0.897855 0 0 -0.897855 
0 0 -0.897855 0 0 -0.897855 0 0 -0.897855 
0 0 -0.897855 0 0 -0.897855 0 0 -0.897855 
0 0 0.269929 0 0 -0.897855 0 0 -0.897855 
0 0 -0.897855 0 0 -0.897855 0 0 -0.897855 
0 0 -0.897855 0 0 -0.897855 0 0 -0.897855 
0 0 -0.897855 0 0 -0.897855 0 0 -0.897855 
0 0 -0.897855 0 0 -0.897855 0 0 -0.897855 
0 0 -0.897855 0 0 -0.897855 0 0 -0.897855 
0 0 -0.897855 0 0 -0.897855 0 0 -0.897855 
0 0 -0.897855 0 0 -0.897855 0 0 -0.897855 
0 0 -0.897855 0 0 -0.897855 0 0 -0.897855 
0 0 -0.897855 0 0 -0.897855 0 0 -0.897855 
0 0 -0.897855 0 0 -0.897855 0 0 -0.897855 
0 0 -0.897855 0 0 -0.897855 0 0 -0.897855 
0 0 -0.897855 0 0 -0.897855 0 0 -0.897855 
0 0 -0.897855 0 0 -0.897855 0 0 -0.897855 
0 0 -0.716088 0 0 -0.897855 0 0 -0.897855 
0 0 -0.897855 0 0 -0.897855 0 0 -0.897855 
0 0 -0.897855 0 0 -0.897855 0 0 -0.897855 
0 0 -0.897855 0 0 -0.897855 0 0 -0.897855 
0 0 -0.897855 0 0 -0.897855 0 0 -0.897855 
0 0 -0.897855 0 0 -0.897855 0 0 -0.897855 
0 0 -0.897855 0 0 -0.897855 0 0 -0.897855 
0 0 -0.897855 0 0 -0.897855 0 0 -0.897855 
0 0 -0.897855 0 0 -0.897855 0 0 -0.897855 
0 0 -0.897855 0 0 -0.897855 0 0 -0.897855 
0 0 -0.897855 0 0 -0.897855 0 0 -0.897855 
0 0 -0.897855 0 0 -0.897855 0 0 -0.897855 
0 0 -0.897855 0 0 -0.897855 0 0 -0.897855 
0 0 -0.897855 0 0 -0.897855 0 0 -0.897855 
0 0 -0.897855 0 0 -0.897855 0 0 -0.897855 
0 0 -0.897855 0 0 -0.897855 0 0 -0.897855 
0 0 -0.897855 0 0 -0.897855 0 0 -0.897855 
0 0 -0.897855 0 0 -0.897855 0 0 -0.897855 
0 0 -0.897855 0 0 -0.897855 0 0 -0.897855 
0 0 -0.897855 0 0 -0.897855 0 0 -0.897855 
0 0 -0.897855 -0.000123218 -0.000643407 -0.897774 0 0 -0.897855 
0 0 -0.897855 0 0 -0.897855 0 0 -0.897855 
0 0 -0.897855 0 0 -0.897855 0 0 -0.897855 
0 0 -0.897855 0 0 -0.897855 0 0 -0.897855 
0 0 -0.897855 0 0 -0.897855 0 0 -0.897855 
0 0 -0.897855 0 0 -0.897855 0 0 -0.897855 
0 0 -0.897855 0 0 -0.897855 0 0 -0.897855 
0 0 -0.897855 0 0 -0.897855 0 0 -0.897855 
0 0 -0.897855 0 0 -0.897855 0 0 -0.897855 
0 0 -0.526481 0 0 -0.897855 0 0 -0.897855 
0 0 -0.897855 0 0 -0.897855 0 0 -0.897855 
0 0 -0.897855 0 0 0.241459 0 0 -0.897855 
0 0 -0.897855 0 0 -0.897855 0 0 -0.897855 
0 0 -0.897855 -0.0153517 -0.00676355 0.227652 0 0 -0.897855 
0 0 -0.897855 0 0 -0.897855 0 0 -0.897855 
0 0 -0.897855 0 0 -0.897855 0 0 -0.897855 
0 0 -0.897855 0 0 -0.897855 0 0 -0.897855 
0 0 -0.897855 0 0 -0.099577 0 0 -0.897855 
0 0 -0.897855 0 0 -0.897855 0 0 -0.897855 
0 0 -0.897855 0 0 -0.897855 0 0 -0.897855 
0 0 -0.897855 0 0 -0.897855 0 0 -0.897855 
0 0 -0.897855 0 0 -0.897855 0 0 -0.897855 
0 0 -0.897855 0 0 -0.897855 0 0 -0.897855 
0 0 -0.897855 0 0 -0.897855 0 0 -0.897855 
0 0 -0.897855 0 0 -0.897855 0 0 -0.897855 
-0.0167512 -0.0788631 -0.856525 0 0 -0.897855 0 0 -0.897855 
0 0 -0.897855 0.00595015 -0.00290127 0.140434 0 0 -0.897855 
0 0 -0.897855 0 0 -0.897855 0 0 -0.897855 
0 0 -0.897855 0 0 -0.897855 0 0 -0.897855 
0 0 -0.897855 0 0 -0.897855 0 0 -0.897855 
0 0 -0.897855 0 0 -0.897855 0 0 -0.897855 
0 0 -0.897855 0 0 -0.897855 0 0 -0.897855 
0 0 -0.897855 0 0 -0.897855 0 0 -0.897855 
0 0 -0.897855 0 0 -0.897855 0 0 -0.897855 
0 0 -0.897855 0 0 -0.897855 0 0 -0.897855 
0 0 0.0171544 0 0 -0.897855 0 0 -0.174629 
0 0 -0.897855 0 0 -0.888213 0 0 -0.897855 
0 0 0.66796 0 0 -0.897855 0 0 -0.897855 
0 0 -0.897855 0 0 -0.897855 0 0 -0.897855 
0 0 -0.897855 0 0 -0.897855 0 0 -0.897855 
0 0 -0.897855 0 0 -0.897855 0 0 -0.897855 
0 0 -0.897855 0 0 -0.897855 0 0 -0.897855 
0 0 -0.897855 0.0432371 0.0350034 0.148332 0 0 -0.897855 
0 0 -0.897855 0 0 -0.897855 0 0 -0.897855 
0 0 -0.897855 0 0 -0.897855 0 0 -0.897855 
0 0 -0.897855 0 0 -0.666518 0 0 -0.897855 
0 0 -0.897855 0 0 -0.897855 0 0 -0.897855 
0 0 -0.897855 0 0 -0.897855 0 0 -0.897855 
0 0 -0.897855 0 0 -0.897855 0 0 -0.897855 
0 0 -0.897855 0 0 -0.897855 0 0 -0.897855 