# vtk DataFile Version 4.0
Generated by LIGGGHTS
ASCII
DATASET POLYDATA
POINTS 982 float
-0.727049 -0.451218 -0.457877 -0.439402 -0.454918 -0.462401 -0.151802 -0.463248 -0.461021 
0.18077 -0.455795 -0.455988 0.368451 -0.457998 -0.457923 0.453559 -0.46292 -0.457458 
0.746513 -0.45789 -0.440788 0.827831 -0.448534 -0.45763 -0.916432 -0.429466 -0.463308 
-0.801775 -0.423515 -0.457766 -0.578569 -0.374144 -0.46111 -0.515777 -0.443103 -0.462037 
-0.457376 -0.376667 -0.44529 -0.310263 -0.388698 -0.448771 -0.230257 -0.441363 -0.45439 
-0.10021 -0.371287 -0.453025 -0.0172834 -0.387456 -0.463073 0.0975375 -0.428958 -0.444642 
0.260762 -0.424773 -0.446013 0.410135 -0.392825 -0.437977 0.527174 -0.432064 -0.453782 
0.607645 -0.450248 -0.450936 -0.960244 -0.321972 -0.460699 -0.751778 -0.347989 -0.434644 
-0.675335 -0.342576 -0.456093 -0.368306 -0.32147 -0.444498 -0.258452 -0.320769 -0.460312 
-0.191046 -0.374425 -0.457991 0.0279841 -0.303475 -0.451262 0.110128 -0.313364 -0.46001 
0.198171 -0.338173 -0.452845 0.323895 -0.366706 -0.45957 0.388553 -0.312826 -0.455702 
0.559646 -0.36219 -0.459931 0.869457 -0.369284 -0.458478 -0.915072 -0.257638 -0.457525 
-0.801915 -0.285909 -0.455724 -0.675131 -0.257802 -0.462513 -0.609763 -0.299589 -0.449341 
-0.497202 -0.282339 -0.457555 -0.43504 -0.238864 -0.444393 -0.302211 -0.25405 -0.461575 
-0.201577 -0.25667 -0.463117 -0.121496 -0.23297 -0.462143 -0.074545 -0.297678 -0.461478 
0.350662 -0.231069 -0.460797 0.587826 -0.251456 -0.452493 0.669475 -0.266273 -0.456606 
0.758547 -0.270894 -0.464497 0.863589 -0.256404 -0.460975 0.964773 -0.236108 -0.455013 
-0.779261 -0.188708 -0.461319 -0.584209 -0.17617 -0.450153 -0.503215 -0.200221 -0.46415 
-0.0369859 -0.215805 -0.461598 0.130835 -0.235739 -0.461776 0.211275 -0.242111 -0.457034 
0.281085 -0.196716 -0.459144 0.428025 -0.236952 -0.464238 0.51366 -0.212127 -0.461725 
0.590496 -0.175658 -0.46147 0.668912 -0.167981 -0.460781 0.801004 -0.18775 -0.456038 
0.875844 -0.178457 -0.447628 -0.958685 -0.184885 -0.434588 -0.869765 -0.148611 -0.458485 
-0.659514 -0.149616 -0.455513 -0.526868 -0.11887 -0.455187 -0.43363 -0.157065 -0.459753 
-0.30515 -0.15996 -0.463151 -0.226066 -0.153419 -0.458047 -0.145023 -0.133776 -0.458754 
-0.0626889 -0.140634 -0.459089 0.0821522 -0.163376 -0.459963 0.174199 -0.168469 -0.46114 
0.337474 -0.124686 -0.461949 0.460283 -0.155291 -0.451234 0.729978 -0.119385 -0.463048 
0.841286 -0.109846 -0.457949 0.958698 -0.140865 -0.463594 -0.943049 -0.0972205 -0.453016 
-0.793102 -0.103782 -0.461087 -0.602924 -0.0778783 -0.45962 -0.387045 -0.092739 -0.460907 
-0.285329 -0.0539535 -0.456766 -0.201612 -0.0722905 -0.45308 -0.116525 -0.0608353 -0.46061 
0.0196036 -0.0962197 -0.463244 0.110399 -0.0529393 -0.460387 0.190651 -0.0716663 -0.463612 
0.268434 -0.0475342 -0.455325 0.404896 -0.0814386 -0.460594 0.492029 -0.0801496 -0.459612 
0.573142 -0.0934638 -0.46314 0.652538 -0.0898701 -0.453412 0.913304 -0.0755582 -0.45945 
-0.885838 0.0309679 -0.458078 -0.76108 -0.0199453 -0.455914 -0.672277 -0.0228683 -0.462741 
-0.593408 0.00610423 -0.46024 -0.509068 -0.0228183 -0.456861 -0.428771 -0.0163147 -0.460939 
-0.337401 0.00895585 -0.461111 -0.253759 0.0215611 -0.463555 -0.160038 0.00734178 -0.461392 
-0.0440776 -0.032654 -0.461689 0.0328319 -0.0192554 -0.461194 0.138299 0.0211849 -0.461056 
0.219723 0.0127646 -0.453017 0.352044 -0.0221719 -0.454751 0.428753 -0.00796574 -0.432137 
0.508835 0.0237394 -0.449051 0.578489 -0.0154324 -0.460529 0.663029 0.00716587 -0.459024 
0.735866 -0.0251798 -0.45936 0.890867 0.0110492 -0.460457 0.965617 -0.000278609 -0.446667 
-0.962016 0.0350175 -0.455808 -0.810854 0.0650003 -0.462477 -0.723969 0.0585653 -0.458661 
-0.625498 0.0937353 -0.454236 -0.512253 0.0547638 -0.451382 -0.418194 0.0645831 -0.454416 
-0.312495 0.0855809 -0.461173 -0.193792 0.0776863 -0.461685 -0.0705408 0.047229 -0.461228 
0.00914902 0.0648686 -0.458925 0.27635 0.0703262 -0.46087 0.356373 0.0555573 -0.46119 
0.440819 0.0653332 -0.459179 0.573453 0.0888413 -0.461378 0.668323 0.0866592 -0.459646 
0.769699 0.0654874 -0.457869 0.93068 0.0870114 -0.461904 -0.879594 0.123184 -0.461208 
-0.801386 0.149149 -0.453191 -0.554083 0.132761 -0.460301 -0.474749 0.126662 -0.460703 
-0.393042 0.1424 -0.447813 -0.309196 0.171671 -0.461005 -0.227042 0.149366 -0.459392 
-0.128637 0.125541 -0.462452 -0.0357745 0.129492 -0.455556 0.0504287 0.15851 -0.462121 
0.129831 0.137443 -0.462354 0.199957 0.103339 -0.463849 0.390917 0.126637 -0.460014 
0.497512 0.150621 -0.451693 0.626405 0.164519 -0.457812 0.755797 0.143101 -0.459008 
-0.933526 0.193478 -0.455078 -0.789875 0.22543 -0.460506 -0.694861 0.210807 -0.463306 
-0.450444 0.201818 -0.458812 -0.197555 0.221455 -0.459471 -0.0899283 0.217474 -0.460519 
0.119425 0.224892 -0.458738 0.22585 0.191617 -0.460301 0.32984 0.178702 -0.460567 
0.410307 0.205644 -0.456464 0.558715 0.236761 -0.463226 0.732148 0.224551 -0.456883 
0.831896 0.212661 -0.457672 0.963322 0.185742 -0.457111 -0.868921 0.2541 -0.448941 
-0.693995 0.308385 -0.463123 -0.571225 0.298033 -0.46215 -0.486876 0.276685 -0.465485 
-0.362416 0.252283 -0.459762 -0.275076 0.279819 -0.457212 -0.0465339 0.28257 -0.460674 
0.03136 0.258375 -0.4535 0.255906 0.292083 -0.456777 0.334277 0.268382 -0.458842 
0.474497 0.261914 -0.459826 0.65799 0.258786 -0.457829 0.800568 0.285325 -0.453691 
-0.957001 0.317473 -0.456233 -0.783322 0.348391 -0.465759 -0.472523 0.37084 -0.463622 
-0.415359 0.309608 -0.46175 -0.336045 0.339609 -0.466795 -0.184002 0.340865 -0.456969 
-0.105584 0.354883 -0.449674 0.0916387 0.308616 -0.460641 0.168207 0.314665 -0.462628 
0.227734 0.36595 -0.447294 0.356111 0.361074 -0.46255 0.446575 0.341062 -0.453705 
0.53653 0.340465 -0.462294 0.628522 0.353571 -0.456128 0.714695 0.335615 -0.460854 
0.795105 0.366161 -0.453162 -0.713907 0.378773 -0.440588 -0.63268 0.401819 -0.455291 
-0.543727 0.429 -0.461414 -0.384644 0.393138 -0.452167 -0.267532 0.423438 -0.459226 
-0.165691 0.427305 -0.459032 0.127755 0.383368 -0.459273 0.419371 0.422095 -0.459835 
0.497397 0.418194 -0.44517 0.704571 0.434729 -0.46236 0.87968 0.410886 -0.44189 
0.957127 0.365811 -0.422954 -0.685425 0.461142 -0.456507 -0.461821 0.460523 -0.465519 
-0.357367 0.463369 -0.459328 -0.0895585 0.451256 -0.44275 -0.00278003 0.451613 -0.455649 
0.0945013 0.451627 -0.433654 0.179896 0.452259 -0.454797 0.257543 0.442558 -0.447947 
0.335564 0.455345 -0.456407 0.572644 0.452442 -0.461466 -0.565901 -0.46402 -0.398908 
-0.304378 -0.46606 -0.395654 -0.0518962 -0.446589 -0.426033 0.0220199 -0.466839 -0.395284 
0.133369 -0.462016 -0.37987 0.247794 -0.464049 -0.38054 0.549505 -0.460284 -0.386378 
0.656137 -0.466332 -0.380218 -0.704202 -0.421454 -0.390938 -0.629021 -0.442493 -0.447113 
-0.582055 -0.389847 -0.37486 -0.483676 -0.425453 -0.388827 -0.38872 -0.415215 -0.411453 
-0.242761 -0.384867 -0.393353 -0.16588 -0.415017 -0.393589 -0.0849125 -0.389371 -0.379103 
0.158393 -0.396138 -0.403157 0.321533 -0.42321 -0.3744 0.591733 -0.386153 -0.396391 
0.722417 -0.394737 -0.37779 0.946248 -0.386507 -0.414419 0.887383 -0.444544 -0.376514 
-0.847498 -0.327436 -0.406951 -0.69278 -0.326181 -0.382674 -0.533857 -0.336258 -0.411604 
-0.338892 -0.326028 -0.37835 -0.0487903 -0.31678 -0.387411 0.0171869 -0.356443 -0.392812 
0.111964 -0.327623 -0.380386 0.248794 -0.322651 -0.393242 0.480608 -0.354156 -0.444221 
0.646229 -0.339209 -0.448488 0.802584 -0.386504 -0.424493 0.86451 -0.330088 -0.390291 
0.956287 -0.308257 -0.42376 -0.961074 -0.295948 -0.383054 -0.74012 -0.246918 -0.420434 
-0.448342 -0.308487 -0.397308 -0.397653 -0.252626 -0.376591 -0.31558 -0.238392 -0.38576 
-0.21802 -0.292557 -0.390303 -0.150724 -0.313977 -0.430959 -0.0845871 -0.246704 -0.391723 
0.172122 -0.28379 -0.40257 0.318671 -0.295551 -0.42582 0.379908 -0.245796 -0.392693 
0.436852 -0.302483 -0.397241 0.526907 -0.293148 -0.413315 0.479183 -0.231763 -0.391737 
0.638454 -0.272821 -0.380872 0.714584 -0.310622 -0.408716 0.815303 -0.268829 -0.40387 
0.925245 -0.258772 -0.373637 -0.847623 -0.222772 -0.441192 -0.704939 -0.170127 -0.391369 
-0.640848 -0.232791 -0.400094 -0.564143 -0.246917 -0.398445 -0.370366 -0.192465 -0.431501 
-0.236487 -0.213928 -0.407468 -0.157702 -0.20272 -0.399806 -0.00851517 -0.233895 -0.390092 
0.0565802 -0.228393 -0.431125 0.128331 -0.20337 -0.390071 0.241525 -0.19763 -0.395075 
0.31546 -0.175302 -0.373181 0.626316 -0.194625 -0.39452 0.719383 -0.213656 -0.408585 
-0.889859 -0.132551 -0.375175 -0.805511 -0.149754 -0.399549 -0.616253 -0.149385 -0.384908 
-0.471801 -0.159082 -0.393496 -0.295344 -0.162346 -0.388104 -0.19793 -0.131487 -0.371254 
-0.0725941 -0.16944 -0.380542 0.017022 -0.158598 -0.411227 0.113852 -0.116824 -0.402746 
0.194312 -0.117225 -0.397665 0.261026 -0.122191 -0.446253 0.3875 -0.158371 -0.41024 
0.462071 -0.150536 -0.369199 0.531956 -0.14835 -0.411495 0.603469 -0.106343 -0.394643 
0.687813 -0.131219 -0.3966 0.787364 -0.12772 -0.398834 0.963797 -0.162601 -0.368132 
-0.910178 -0.0307324 -0.406297 -0.820233 -0.0487761 -0.409572 -0.715773 -0.0951549 -0.456019 
-0.625943 -0.0311391 -0.398071 -0.564602 -0.0871074 -0.393738 -0.461169 -0.0815762 -0.436083 
-0.327875 -0.0879979 -0.39692 -0.171725 -0.0541726 -0.379561 -0.109125 -0.102165 -0.391516 
-0.0315111 -0.0835617 -0.401715 0.0556864 -0.0652231 -0.400786 0.255795 -0.0629787 -0.371301 
0.338067 -0.0773579 -0.395783 0.420368 -0.0861611 -0.384671 0.491626 -0.0363417 -0.388652 
0.652969 -0.0391857 -0.389937 0.738998 -0.0662737 -0.384453 -0.79995 0.0307166 -0.397581 
-0.723515 0.00301748 -0.390772 -0.548272 -0.00563675 -0.390814 -0.45947 0.0292831 -0.39949 
-0.378075 -0.0216999 -0.39894 -0.290931 -0.00167673 -0.396353 -0.209808 0.0172985 -0.398218 
-0.0997402 -0.000847189 -0.407364 -0.00932316 0.0228445 -0.394434 0.0814973 0.0168796 -0.406021 
0.164877 -0.0243476 -0.401718 0.280118 0.00975615 -0.402757 0.357777 0.0243572 -0.375646 
0.563928 -0.0228755 -0.361158 0.710318 0.0150401 -0.392468 0.818166 -0.0322893 -0.444649 
[...]
POINT_DATA 982
FIELD FieldData 7
id 1 982 int
408 206 419 585 530 365 156 70 329 
366 322 662 120 208 563 512 347 145 
151 256 186 620 692 559 759 581 723 
371 498 708 214 20 529 470 664 534 
196 105 714 493 250 542 245 95 234 
576 444 367 684 476 155 171 373 375 
589 54 280 431 75 623 109 683 446 
647 767 159 641 185 96 99 458 575 
40 722 200 31 298 300 48 680 521 
267 254 361 412 14 689 312 569 153 
397 170 704 126 140 726 310 531 428 
182 592 758 433 92 690 437 359 495 
304 339 720 639 321 177 700 240 502 
459 127 351 51 544 528 323 129 507 
423 224 612 384 671 166 460 383 71 
596 85 293 697 627 717 104 602 348 
247 161 191 199 586 278 637 299 149 
387 130 218 420 613 125 16 402 640 
715 441 9 698 535 261 269 355 42 
748 391 527 346 421 319 262 73 89 
622 4 318 411 416 227 94 39 582 
53 673 729 3 766 188 599 670 519 
667 311 226 727 427 614 728 201 763 
228 472 669 660 646 654 230 306 389 
440 523 551 38 587 658 337 573 584 
336 12 453 197 452 90 607 285 181 
225 513 163 632 72 370 221 679 604 
435 457 338 195 320 666 643 5 314 
116 82 272 514 59 87 642 305 601 
396 291 114 325 678 438 118 724 289 
136 175 62 442 376 343 76 645 219 
556 110 184 317 653 558 324 533 462 
80 57 88 239 543 281 334 202 572 
570 676 335 615 445 83 651 447 331 
407 566 597 492 252 497 483 248 540 
45 422 143 24 106 6 192 183 137 
382 236 154 112 439 102 539 733 378 
148 142 21 369 121 738 710 742 474 
111 32 381 25 461 97 194 537 258 
580 101 549 634 146 288 167 578 294 
74 675 231 55 135 475 19 463 665 
22 432 277 162 84 49 663 762 400 
682 340 251 747 35 122 571 8 133 
480 469 618 557 67 274 464 242 649 
496 600 409 417 292 138 260 650 388 
448 43 244 132 68 547 499 494 481 
63 526 363 553 377 316 545 354 7 
686 211 725 743 761 249 217 270 78 
628 273 276 516 233 518 223 567 205 
66 268 56 131 736 426 712 302 473 
108 173 18 721 287 636 100 550 313 
207 702 290 593 668 58 265 157 356 
275 307 699 36 577 357 565 554 29 
511 757 81 11 286 399 616 46 341 
189 478 491 394 718 169 429 655 33 
621 282 301 633 746 364 568 60 434 
44 524 695 479 216 656 326 332 629 
345 711 401 271 2 737 590 436 638 
450 253 330 352 172 752 443 28 591 
77 626 107 180 482 193 41 970 10 
392 266 606 574 215 505 403 506 296 
393 284 687 139 13 350 61 681 546 
123 128 297 17 703 503 750 405 508 
178 26 608 222 525 709 303 456 64 
353 246 98 259 701 283 119 113 583 
390 69 264 418 635 661 229 756 385 
617 755 238 579 764 672 467 158 739 
745 455 179 561 468 510 735 386 466 
685 47 500 414 693 935 751 362 744 
611 652 413 465 410 603 372 754 15 
552 295 235 187 176 532 490 241 124 
144 749 631 255 644 379 707 279 509 
79 734 424 487 541 406 50 141 489 
501 204 674 536 471 27 694 380 358 
395 731 309 605 165 86 630 677 52 
486 134 93 164 522 415 150 34 327 
243 198 477 657 220 374 203 147 716 
425 91 515 520 65 560 342 719 23 
706 333 595 209 308 232 713 1 263 
174 398 648 37 610 328 625 115 588 
430 257 564 168 404 117 740 760 368 
449 488 315 517 485 210 212 213 705 
753 594 624 938 769 781 925 814 741 
951 504 360 930 696 959 103 933 973 
619 932 688 691 454 829 937 952 765 
870 904 851 981 732 908 30 886 824 
980 836 548 349 835 978 962 803 730 
160 484 967 977 794 922 948 928 598 
955 837 804 538 965 555 813 874 659 
966 344 940 960 190 896 785 873 971 
856 237 451 609 912 979 152 562 863 
923 949 961 788 920 878 871 941 906 
910 927 866 823 793 890 956 825 921 
784 963 770 943 787 844 828 831 958 
809 832 847 867 907 849 768 846 802 
944 848 879 826 868 808 779 875 838 
865 792 812 786 902 882 974 914 936 
806 982 789 950 901 857 919 895 795 
797 939 820 855 964 842 780 894 834 
918 861 924 916 911 807 782 975 815 
862 953 969 833 892 839 801 818 947 
776 805 799 800 775 819 810 843 926 
905 954 888 827 876 968 791 840 790 
783 889 893 934 899 811 852 869 872 
929 884 860 774 841 864 845 798 887 
796 859 917 778 946 822 853 909 858 
821 945 850 777 773 891 900 830 877 
881 854 771 772 942 913 817 880 957 
883 885 816 897 903 972 931 915 898 
976 
type 1 982 int
1 1 1 1 1 1 1 1 1 
1 1 1 1 1 1 1 1 1 
1 1 1 1 1 1 1 1 1 
1 1 1 1 1 1 1 1 1 
1 1 1 1 1 1 1 1 1 
1 1 1 1 1 1 1 1 1 
1 1 1 1 1 1 1 1 1 
1 1 1 1 1 1 1 1 1 
1 1 1 1 1 1 1 1 1 
1 1 1 1 1 1 1 1 1 
1 1 1 1 1 1 1 1 1 
1 1 1 1 1 1 1 1 1 
1 1 1 1 1 1 1 1 1 
1 1 1 1 1 1 1 1 1 
1 1 1 1 1 1 1 1 1 
1 1 1 1 1 1 1 1 1 
1 1 1 1 1 1 1 1 1 
1 1 1 1 1 1 1 1 1 
1 1 1 1 1 1 1 1 1 
1 1 1 1 1 1 1 1 1 
1 1 1 1 1 1 1 1 1 
1 1 1 1 1 1 1 1 1 
1 1 1 1 1 1 1 1 1 
1 1 1 1 1 1 1 1 1 
1 1 1 1 1 1 1 1 1 
1 1 1 1 1 1 1 1 1 
1 1 1 1 1 1 1 1 1 
1 1 1 1 1 1 1 1 1 
1 1 1 1 1 1 1 1 1 
1 1 1 1 1 1 1 1 1 
1 1 1 1 1 1 1 1 1 
1 1 1 1 1 1 1 1 1 
1 1 1 1 1 1 1 1 1 
1 1 1 1 1 1 1 1 1 
1 1 1 1 1 1 1 1 1 
1 1 1 1 1 1 1 1 1 
1 1 1 1 1 1 1 1 1 
1 1 1 1 1 1 1 1 1 
1 1 1 1 1 1 1 1 1 
1 1 1 1 1 1 1 1 1 
1 1 1 1 1 1 1 1 1 
1 1 1 1 1 1 1 1 1 
1 1 1 1 1 1 1 1 1 
1 1 1 1 1 1 1 1 1 
1 1 1 1 1 1 1 1 1 
1 1 1 1 1 1 1 1 1 
1 1 1 1 1 1 1 1 1 
1 1 1 1 1 1 1 1 1 
1 1 1 1 1 1 1 1 1 
1 1 1 1 1 1 1 1 1 
1 1 1 1 1 1 1 1 1 
1 1 1 1 1 1 1 1 1 
1 1 1 1 1 1 1 1 1 
1 1 1 1 1 1 1 1 1 
1 1 1 1 1 1 1 1 1 
1 1 1 1 1 1 1 1 1 
1 1 1 1 1 1 1 1 1 
1 1 1 1 1 1 1 1 1 
1 1 1 1 1 1 1 1 1 
1 1 1 1 1 1 1 1 1 
1 1 1 1 1 1 1 1 1 
1 1 1 1 1 1 1 1 1 
1 1 1 1 1 1 1 1 1 
1 1 1 1 1 1 1 1 1 
1 1 1 1 1 1 1 1 1 
1 1 1 1 1 1 1 1 1 
1 1 1 1 1 1 1 1 1 
1 1 1 1 1 1 1 1 1 
1 1 1 1 1 1 1 1 1 
1 1 1 1 1 1 1 1 1 
1 1 1 1 1 1 1 1 1 
1 1 1 1 1 1 1 1 1 
1 1 1 1 1 1 1 1 1 
1 1 1 1 1 1 1 1 1 
1 1 1 1 1 1 1 1 1 
1 1 1 1 1 1 1 1 1 
1 1 1 1 1 1 1 1 1 
1 1 1 1 1 1 1 1 1 
1 1 1 1 1 1 1 1 1 
1 1 1 1 1 1 1 1 1 
1 1 1 1 1 1 1 1 1 
1 1 1 1 1 1 1 1 1 
1 1 1 1 1 1 1 1 1 
1 1 1 1 1 1 1 1 1 
1 1 1 1 1 1 1 1 1 
1 1 1 1 1 1 1 1 1 
1 1 1 1 1 1 1 1 1 
1 1 1 1 1 1 1 1 1 
1 1 1 1 1 1 1 1 1 
1 1 1 1 1 1 1 1 1 
1 1 1 1 1 1 1 1 1 
1 1 1 1 1 1 1 1 1 
1 1 1 1 1 1 1 1 1 
1 1 1 1 1 1 1 1 1 
1 1 1 1 1 1 1 1 1 
1 1 1 1 1 1 1 1 1 
1 1 1 1 1 1 1 1 1 
1 1 1 1 1 1 1 1 1 
1 1 1 1 1 1 1 1 1 
1 1 1 1 1 1 1 1 1 
1 1 1 1 1 1 1 1 1 
1 1 1 1 1 1 1 1 1 
1 1 1 1 1 1 1 1 1 
1 1 1 1 1 1 1 1 1 
1 1 1 1 1 1 1 1 1 
1 1 1 1 1 1 1 1 1 
1 1 1 1 1 1 1 1 1 
1 1 1 1 1 1 1 1 1 
1 1 1 1 1 1 1 1 1 
1 
i 3 982 int
0 0 0 0 0 0 0 0 0 
0 0 0 0 0 0 0 0 0 
0 0 0 0 0 0 0 0 0 
0 0 0 0 0 0 0 0 0 
0 0 0 0 0 0 0 0 0 
0 0 0 0 0 0 0 0 0 
0 0 0 0 0 0 0 0 0 
0 0 0 0 0 0 0 0 0 
0 0 0 0 0 0 0 0 0 
0 0 0 0 0 0 0 0 0 
0 0 0 0 0 0 0 0 0 
0 0 0 0 0 0 0 0 0 
0 0 0 0 0 0 0 0 0 
0 0 0 0 0 0 0 0 0 
0 0 0 0 0 0 0 0 0 
0 0 0 0 0 0 0 0 0 
0 0 0 0 0 0 0 0 0 
0 0 0 0 0 0 0 0 0 
0 0 0 0 0 0 0 0 0 
0 0 0 0 0 0 0 0 0 
0 0 0 0 0 0 0 0 0 
0 0 0 0 0 0 0 0 0 
0 0 0 0 0 0 0 0 0 
0 0 0 0 0 0 0 0 0 
0 0 0 0 0 0 0 0 0 
0 0 0 0 0 0 0 0 0 
0 0 0 0 0 0 0 0 0 
0 0 0 0 0 0 0 0 0 
0 0 0 0 0 0 0 0 0 
0 0 0 0 0 0 0 0 0 
0 0 0 0 0 0 0 0 0 
0 0 0 0 0 0 0 0 0 
0 0 0 0 0 0 0 0 0 
0 0 0 0 0 0 0 0 0 
0 0 0 0 0 0 0 0 0 
0 0 0 0 0 0 0 0 0 
0 0 0 0 0 0 0 0 0 
0 0 0 0 0 0 0 0 0 
0 0 0 0 0 0 0 0 0 
0 0 0 0 0 0 0 0 0 
0 0 0 0 0 0 0 0 0 
0 0 0 0 0 0 0 0 0 
0 0 0 0 0 0 0 0 0 
0 0 0 0 0 0 0 0 0 
0 0 0 0 0 0 0 0 0 
0 0 0 0 0 0 0 0 0 
0 0 0 0 0 0 0 0 0 
0 0 0 0 0 0 0 0 0 
0 0 0 0 0 0 0 0 0 
0 0 0 0 0 0 0 0 0 
0 0 0 0 0 0 0 0 0 
0 0 0 0 0 0 0 0 0 
0 0 0 0 0 0 0 0 0 
0 0 0 0 0 0 0 0 0 
0 0 0 0 0 0 0 0 0 
0 0 0 0 0 0 0 0 0 
0 0 0 0 0 0 0 0 0 
0 0 0 0 0 0 0 0 0 
0 0 0 0 0 0 0 0 0 
0 0 0 0 0 0 0 0 0 
0 0 0 0 0 0 0 0 0 
0 0 0 0 0 0 0 0 0 
0 0 0 0 0 0 0 0 0 
0 0 0 0 0 0 0 0 0 
0 0 0 0 0 0 0 0 0 
0 0 0 0 0 0 0 0 0 
0 0 0 0 0 0 0 0 0 
0 0 0 0 0 0 0 0 0 
0 0 0 0 0 0 0 0 0 
0 0 0 0 0 0 0 0 0 
0 0 0 0 0 0 0 0 0 
0 0 0 0 0 0 0 0 0 
0 0 0 0 0 0 0 0 0 
0 0 0 0 0 0 0 0 0 
0 0 0 0 0 0 0 0 0 
0 0 0 0 0 0 0 0 0 
0 0 0 0 0 0 0 0 0 
0 0 0 0 0 0 0 0 0 
0 0 0 0 0 0 0 0 0 
0 0 0 0 0 0 0 0 0 
0 0 0 0 0 0 0 0 0 
0 0 0 0 0 0 0 0 0 
0 0 0 0 0 0 0 0 0 
0 0 0 0 0 0 0 0 0 
0 0 0 0 0 0 0 0 0 
0 0 0 0 0 0 0 0 0 
0 0 0 0 0 0 0 0 0 
0 0 0 0 0 0 0 0 0 
0 0 0 0 0 0 0 0 0 
0 0 0 0 0 0 0 0 0 
0 0 0 0 0 0 0 0 0 
0 0 0 0 0 0 0 0 0 
0 0 0 0 0 0 0 0 0 
0 0 0 0 0 0 0 0 0 
0 0 0 0 0 0 0 0 0 
0 0 0 0 0 0 0 0 0 
0 0 0 0 0 0 0 0 0 
0 0 0 0 0 0 0 0 0 
0 0 0 0 0 0 0 0 0 
0 0 0 0 0 0 0 0 0 
0 0 0 0 0 0 0 0 0 
0 0 0 0 0 0 0 0 0 
0 0 0 0 0 0 0 0 0 
0 0 0 0 0 0 0 0 0 
0 0 0 0 0 0 0 0 0 
0 0 0 0 0 0 0 0 0 
0 0 0 0 0 0 0 0 0 
0 0 0 0 0 0 0 0 0 
0 0 0 0 0 0 0 0 0 
0 0 0 0 0 0 0 0 0 
0 0 0 0 0 0 0 0 0 
0 0 0 0 0 0 0 0 0 
0 0 0 0 0 0 0 0 0 
0 0 0 0 0 0 0 0 0 
0 0 0 0 0 0 0 0 0 
0 0 0 0 0 0 0 0 0 
0 0 0 0 0 0 0 0 0 
0 0 0 0 0 0 0 0 0 
0 0 0 0 0 0 0 0 0 
0 0 0 0 0 0 0 0 0 
0 0 0 0 0 0 0 0 0 
0 0 0 0 0 0 0 0 0 
0 0 0 0 0 0 0 0 0 
0 0 0 0 0 0 0 0 0 
0 0 0 0 0 0 0 0 0 
0 0 0 0 0 0 0 0 0 
0 0 0 0 0 0 0 0 0 
0 0 0 0 0 0 0 0 0 
0 0 0 0 0 0 0 0 0 
0 0 0 0 0 0 0 0 0 
0 0 0 0 0 0 0 0 0 
0 0 0 0 0 0 0 0 0 
0 0 0 0 0 0 0 0 0 
0 0 0 0 0 0 0 0 0 
0 0 0 0 0 0 0 0 0 
0 0 0 0 0 0 0 0 0 
0 0 0 0 0 0 0 0 0 
0 0 0 0 0 0 0 0 0 
0 0 0 0 0 0 0 0 0 
0 0 0 0 0 0 0 0 0 
0 0 0 0 0 0 0 0 0 
0 0 0 0 0 0 0 0 0 
0 0 0 0 0 0 0 0 0 
0 0 0 0 0 0 0 0 0 
0 0 0 0 0 0 0 0 0 
0 0 0 0 0 0 0 0 0 
0 0 0 0 0 0 0 0 0 
0 0 0 0 0 0 0 0 0 
0 0 0 0 0 0 0 0 0 
0 0 0 0 0 0 0 0 0 
0 0 0 0 0 0 0 0 0 
0 0 0 0 0 0 0 0 0 
0 0 0 0 0 0 0 0 0 
0 0 0 0 0 0 0 0 0 
0 0 0 0 0 0 0 0 0 
0 0 0 0 0 0 0 0 0 
0 0 0 0 0 0 0 0 0 
0 0 0 0 0 0 0 0 0 
0 0 0 0 0 0 0 0 0 
0 0 0 0 0 0 0 0 0 
0 0 0 0 0 0 0 0 0 
0 0 0 0 0 0 0 0 0 
0 0 0 0 0 0 0 0 0 
0 0 0 0 0 0 0 0 0 
0 0 0 0 0 0 0 0 0 
0 0 0 0 0 0 0 0 0 
0 0 0 0 0 0 0 0 0 
0 0 0 0 0 0 0 0 0 
0 0 0 0 0 0 0 0 0 
0 0 0 0 0 0 0 0 0 
0 0 0 0 0 0 0 0 0 
0 0 0 0 0 0 0 0 0 
0 0 0 0 0 0 0 0 0 
0 0 0 0 0 0 0 0 0 
0 0 0 0 0 0 0 0 0 
0 0 0 0 0 0 0 0 0 
0 0 0 0 0 0 0 0 0 
0 0 0 0 0 0 0 0 0 
0 0 0 0 0 0 0 0 0 
0 0 0 0 0 0 0 0 0 
0 0 0 0 0 0 0 0 0 
0 0 0 0 0 0 0 0 0 
0 0 0 0 0 0 0 0 0 
0 0 0 0 0 0 0 0 0 
0 0 0 0 0 0 0 0 0 
0 0 0 0 0 0 0 0 0 
0 0 0 0 0 0 0 0 0 
0 0 0 0 0 0 0 0 0 
0 0 0 0 0 0 0 0 0 
0 0 0 0 0 0 0 0 0 
0 0 0 0 0 0 0 0 0 
0 0 0 0 0 0 0 0 0 
0 0 0 0 0 0 0 0 0 
0 0 0 0 0 0 0 0 0 
0 0 0 0 0 0 0 0 0 
0 0 0 0 0 0 0 0 0 
0 0 0 0 0 0 0 0 0 
0 0 0 0 0 0 0 0 0 
0 0 0 0 0 0 0 0 0 
0 0 0 0 0 0 0 0 0 
0 0 0 0 0 0 0 0 0 
0 0 0 0 0 0 0 0 0 
0 0 0 0 0 0 0 0 0 
0 0 0 0 0 0 0 0 0 
0 0 0 0 0 0 0 0 0 
0 0 0 0 0 0 0 0 0 
0 0 0 0 0 0 0 0 0 
0 0 0 0 0 0 0 0 0 
0 0 0 0 0 0 0 0 0 
0 0 0 0 0 0 0 0 0 
0 0 0 0 0 0 0 0 0 
0 0 0 0 0 0 0 0 0 
0 0 0 0 0 0 0 0 0 
0 0 0 0 0 0 0 0 0 
0 0 0 0 0 0 0 0 0 
0 0 0 0 0 0 0 0 0 
0 0 0 0 0 0 0 0 0 
0 0 0 0 0 0 0 0 0 
0 0 0 0 0 0 0 0 0 
0 0 0 0 0 0 0 0 0 
0 0 0 0 0 0 0 0 0 
0 0 0 0 0 0 0 0 0 
0 0 0 0 0 0 0 0 0 
0 0 0 0 0 0 0 0 0 
0 0 0 0 0 0 0 0 0 
0 0 0 0 0 0 0 0 0 
0 0 0 0 0 0 0 0 0 
0 0 0 0 0 0 0 0 0 
0 0 0 0 0 0 0 0 0 
0 0 0 0 0 0 0 0 0 
0 0 0 0 0 0 0 0 0 
0 0 0 0 0 0 0 0 0 
0 0 0 0 0 0 0 0 0 
0 0 0 0 0 0 0 0 0 
0 0 0 0 0 0 0 0 0 
0 0 0 0 0 0 0 0 0 
0 0 0 0 0 0 0 0 0 
0 0 0 0 0 0 0 0 0 
0 0 0 0 0 0 0 0 0 
0 0 0 0 0 0 0 0 0 
0 0 0 0 0 0 0 0 0 
0 0 0 0 0 0 0 0 0 
0 0 0 0 0 0 0 0 0 
0 0 0 0 0 0 0 0 0 
0 0 0 0 0 0 0 0 0 
0 0 0 0 0 0 0 0 0 
0 0 0 0 0 0 0 0 0 
0 0 0 0 0 0 0 0 0 
0 0 0 0 0 0 0 0 0 
0 0 0 0 0 0 0 0 0 
0 0 0 0 0 0 0 0 0 
0 0 0 0 0 0 0 0 0 
0 0 0 0 0 0 0 0 0 
0 0 0 0 0 0 0 0 0 
0 0 0 0 0 0 0 0 0 
0 0 0 0 0 0 0 0 0 
0 0 0 0 0 0 0 0 0 
0 0 0 0 0 0 0 0 0 
0 0 0 0 0 0 0 0 0 
0 0 0 0 0 0 0 0 0 
0 0 0 0 0 0 0 0 0 
0 0 0 0 0 0 0 0 0 
0 0 0 0 0 0 0 0 0 
0 0 0 0 0 0 0 0 0 
0 0 0 0 0 0 0 0 0 
0 0 0 0 0 0 0 0 0 
0 0 0 0 0 0 0 0 0 
0 0 0 0 0 0 0 0 0 
0 0 0 0 0 0 0 0 0 
0 0 0 0 0 0 0 0 0 
0 0 0 0 0 0 0 0 0 
0 0 0 0 0 0 0 0 0 
0 0 0 0 0 0 0 0 0 
0 0 0 0 0 0 0 0 0 
0 0 0 0 0 0 0 0 0 
0 0 0 0 0 0 0 0 0 
0 0 0 0 0 0 0 0 0 
0 0 0 0 0 0 0 0 0 
0 0 0 0 0 0 0 0 0 
0 0 0 0 0 0 0 0 0 
0 0 0 0 0 0 0 0 0 
0 0 0 0 0 0 0 0 0 
0 0 0 0 0 0 0 0 0 
0 0 0 0 0 0 0 0 0 
0 0 0 0 0 0 0 0 0 
0 0 0 0 0 0 0 0 0 
0 0 0 0 0 0 0 0 0 
0 0 0 0 0 0 0 0 0 
0 0 0 0 0 0 0 0 0 
0 0 0 0 0 0 0 0 0 
0 0 0 0 0 0 0 0 0 
0 0 0 0 0 0 0 0 0 
0 0 0 0 0 0 0 0 0 
0 0 0 0 0 0 0 0 0 
0 0 0 0 0 0 0 0 0 
0 0 0 0 0 0 0 0 0 
0 0 0 0 0 0 0 0 0 
0 0 0 0 0 0 0 0 0 
0 0 0 0 0 0 0 0 0 
0 0 0 0 0 0 0 0 0 
0 0 0 0 0 0 0 0 0 
0 0 0 0 0 0 0 0 0 
0 0 0 0 0 0 0 0 0 
0 0 0 0 0 0 0 0 0 
0 0 0 0 0 0 0 0 0 
0 0 0 0 0 0 0 0 0 
0 0 0 0 0 0 0 0 0 
0 0 0 0 0 0 0 0 0 
0 0 0 0 0 0 0 0 0 
0 0 0 0 0 0 0 0 0 
0 0 0 0 0 0 0 0 0 
0 0 0 0 0 0 0 0 0 
0 0 0 0 0 0 0 0 0 
0 0 0 0 0 0 0 0 0 
0 0 0 0 0 0 0 0 0 
0 0 0 0 0 0 0 0 0 
0 0 0 0 0 0 0 0 0 
0 0 0 0 0 0 0 0 0 
0 0 0 0 0 0 0 0 0 
0 0 0 0 0 0 0 0 0 
0 0 0 0 0 0 0 0 0 
0 0 0 0 0 0 0 0 0 
0 0 0 0 0 0 0 0 0 
0 0 0 0 0 0 0 0 0 
0 0 0 0 0 0 0 0 0 
0 0 0 0 0 0 0 0 0 
0 0 0 0 0 0 0 0 0 
0 0 0 
v 3 982 double
-0.272958 -0.786487 -1.51153 -0.209753 -0.961039 0.0510314 0.312286 -1.41506 0.190051 
1.26949 -0.65244 -1.07246 0.111761 0.5728 0.037413 -0.273871 0.874476 -0.608278 
-0.0650038 -1.04339 0.117005 0.693028 1.30611 0.130939 -1.26075 -0.896578 -0.756049 
-1.68463 -0.418175 -1.236 -0.011612 -0.227113 -0.169129 -0.13279 -1.03626 -1.57195 
-0.194872 0.763326 0.738032 -0.14987 -0.735757 0.821668 -0.925178 -1.03169 -0.329405 
0.249303 1.38147 0.0669455 -0.49383 -1.07551 -0.682414 -1.13455 -0.944322 -0.0550609 
0.52238 -1.09137 -0.212342 -0.527488 1.48865 0.130523 0.770862 -0.900187 -1.34645 
-0.329532 -1.42046 -0.0486138 -0.027748 -1.46657 -0.602328 0.131255 -1.55587 0.542873 
-0.403341 -0.870167 -0.788454 -1.00255 -0.210397 -0.729729 -0.62415 -0.810822 0.112481 
-0.119034 -1.29321 0.53005 -0.392358 -0.631086 0.180566 -0.557173 -0.670486 -0.471674 
-0.786253 -1.33673 -0.416061 0.275072 -0.978153 0.212453 -1.02275 -0.0284911 1.00973 
0.949307 0.0997216 -1.15832 1.43351 -1.01393 1.02002 -1.11943 0.0293006 0.265319 
-1.16525 -1.25197 0.0883565 -0.0399607 -1.0971 0.690059 -0.433098 -1.86415 0.207624 
-0.258712 -0.629337 -0.592436 -0.185582 0.168857 0.211014 0.133352 -0.25816 0.433605 
0.900974 -0.333808 -0.114125 -0.0209366 0.98771 0.827308 -0.330866 -0.455656 0.285066 
0.52836 -0.0407402 -0.0872149 0.322059 0.257298 -1.1282 -0.0286241 -0.807218 0.345607 
-0.413775 -0.0206481 0.687967 1.30374 -1.31269 0.398004 0.337485 0.415172 0.000297932 
-0.708164 -0.291324 -0.0366435 0.19349 -0.511862 -0.24547 -0.253201 -0.0682498 -0.748318 
-0.732327 -0.437382 0.341683 0.506322 -0.768382 0.541745 0.474782 -0.488843 0.372021 
0.0510212 -0.26056 0.0985454 -0.117577 -0.860456 1.28338 0.842356 -0.448812 -0.728917 
0.352107 -0.160983 -0.319015 0.0435687 -0.247907 -0.755777 -0.0659376 -0.66111 -0.327496 
0.482928 0.122381 -0.238981 0.208545 -1.45434 0.188274 -0.352727 0.0755881 0.843444 
-0.461673 0.0385617 -0.424698 -0.715726 0.462572 0.408096 0.569527 -0.090414 0.288938 
-0.0667575 -0.174264 0.505473 0.153893 -0.789221 -1.0106 -0.0247062 0.140036 0.253384 
0.462948 0.270771 0.301774 0.369541 -0.321981 0.34326 0.0937486 -0.497725 -0.848319 
0.406764 -0.715189 0.306842 0.120424 -0.245933 0.357569 0.0100253 0.441652 -0.0946379 
-0.311841 -1.09213 -0.442902 1.41803 0.0112589 0.456956 -1.29064 -0.812638 0.598839 
-0.497359 -0.655194 -0.546221 -0.0604811 -0.31893 0.779384 0.502478 0.0612261 -0.0225229 
-0.218028 -0.00205287 -0.0927039 -0.624732 -0.207951 0.502789 0.0381966 -0.159345 0.746393 
0.132222 -0.0275895 0.398701 0.358211 -0.25206 -0.0644664 -0.332145 -0.575096 0.358727 
0.0931374 0.181356 0.0555917 0.21264 -0.0247494 0.806237 0.311478 -0.0353573 0.300857 
-0.0270076 -0.479328 0.121472 0.240519 0.411169 -1.08905 1.10135 0.49194 -0.43137 
-1.03143 0.549472 -0.293141 -0.798795 -0.625692 -0.055015 -0.842195 -0.618518 0.219299 
0.0169207 0.0335483 -0.688339 -0.597524 0.55626 0.815454 -0.383746 -0.438458 -0.0302036 
-1.22317 0.0481331 -0.0982488 -0.0690351 -0.0283882 0.338868 0.236577 0.479481 -0.83099 
-0.0675456 -0.263806 -0.217117 -0.357631 0.302299 -0.681274 0.416134 0.6066 -0.139017 
0.579013 -0.268192 0.479461 0.0659242 -0.501833 -0.75721 0.12921 -0.338967 0.0794232 
-0.249234 -0.265332 -1.02945 -0.0557607 -0.616084 -0.0349448 0.0749155 0.076469 0.0954836 
0.515472 0.281778 0.172692 -0.1412 -0.239081 0.172158 0.632532 -0.535099 1.07569 
0.541072 -0.494442 1.33227 -0.431837 0.16901 0.101936 -0.749453 0.467864 -0.2769 
-0.762202 0.588354 -0.294177 0.34119 0.461847 -0.919506 -0.472342 -0.286566 -0.912964 
-0.428612 0.0892654 -0.0688602 0.771022 -0.598566 0.844504 0.696386 0.0974822 0.234654 
0.391753 0.190317 0.0979152 -0.0683003 0.0935159 -0.24805 0.43607 0.130403 0.127788 
-0.0122125 0.0634763 -0.0859428 0.602689 0.201081 0.605033 -0.0515313 -0.569802 -0.46795 
0.551369 0.120029 0.0655751 2.15163 -0.691755 -0.845112 -0.733157 0.570712 -0.160233 
-0.602617 0.933435 0.510787 0.109413 0.450327 -0.0679144 -0.141409 0.709199 0.323859 
0.154865 -0.379125 -0.96923 0.301164 0.0869642 -0.222311 0.227028 0.0818339 0.389138 
-0.398593 0.634057 1.09108 0.313718 -0.333217 -0.480659 0.121768 0.21554 0.39246 
0.637617 0.327765 0.237335 0.552857 0.215808 -0.275431 -0.062819 0.304256 0.304558 
0.398334 0.836009 -0.297344 -0.376365 0.0799188 0.0315236 -0.0977966 0.460934 0.0368028 
-0.881665 0.434749 0.142943 -0.780083 0.661121 0.783974 -1.30365 0.36528 0.445954 
0.134403 0.796889 0.232986 -0.330024 0.174439 -0.254132 -0.00598658 0.58955 0.353588 
-0.814368 -0.157661 0.441603 -0.377664 0.199755 -0.422785 -0.255287 0.429225 -0.419945 
0.0287829 0.333357 -0.223861 0.341627 0.0154782 -1.16605 1.06268 0.419819 -0.233985 
0.45875 -0.00864667 -0.0323097 -0.820975 0.208036 -0.127272 -1.3681 0.584436 -0.968057 
0.430583 0.593434 -0.548543 -0.0262017 1.37893 0.0326217 -0.0524801 0.190378 -0.995155 
0.506343 0.283265 0.630819 -0.131439 1.00824 0.272439 -0.589656 1.60251 0.264541 
-0.109257 0.272325 0.587759 0.433073 0.171458 -0.328491 0.517099 0.73029 -0.175825 
-0.0317052 1.51555 -0.108937 0.777027 0.207009 -0.319795 0.913935 0.865272 0.0485104 
-1.77395 0.311305 0.532632 -0.634842 0.0145682 -0.421658 0.318034 1.20553 -0.881152 
-0.84998 0.581725 0.329008 -0.386259 0.508354 -0.125193 -0.408217 0.675459 0.539931 
0.575588 0.46732 -0.0218392 -0.800623 0.231209 0.227899 -0.18283 0.302405 -0.651493 
-0.365384 0.450071 -0.138999 0.39721 0.415076 -0.100213 0.686622 0.326895 0.469513 
-0.980306 -0.0864045 -0.87864 0.381209 1.14243 0.0289367 0.460061 0.993979 0.960269 
1.37219 0.430373 -1.29567 0.24037 -0.332427 0.803007 -0.45829 1.20492 -0.253651 
0.457222 0.651043 -0.267945 0.830426 1.03479 -0.278895 0.172782 1.46891 -0.0705872 
-1.52588 0.947647 -0.0989732 0.90979 -0.398906 -0.0191193 1.34284 0.17854 -0.951849 
0.413384 0.658856 0.817532 -0.464122 0.961374 0.0203523 -0.357327 1.31648 0.217133 
-0.653645 -0.0767079 0.716542 -0.0398157 0.555365 0.463128 -0.211926 0.75427 -0.43088 
0.175097 -0.622339 -1.39092 1.12719 -1.11784 -0.0449924 -1.9679 0.572869 0.862389 
-0.365527 0.84089 -0.209324 -1.09705 0.982318 0.654202 -0.0609696 0.110575 0.252375 
1.64046 0.00834804 -0.152158 0.362773 -0.30501 -0.508514 0.271198 0.321193 -0.0430957 
-0.652046 -0.215061 -0.200338 0.731616 -0.734973 -1.28902 -0.0451038 -0.707888 -0.210734 
0.947085 -0.986947 -0.194804 0.264516 0.691151 -0.76138 0.509358 0.977665 1.6164 
0.233368 -0.624116 0.356059 0.554978 -1.43951 -0.455675 -0.533446 -1.34307 -1.87445 
-0.470491 0.403784 1.80567 0.561927 -1.84359 0.117321 0.599187 -0.0106948 0.571992 
-0.585204 -1.35905 -1.01657 -0.766593 -0.664669 0.740279 -0.233538 0.621642 1.03832 
-0.295498 1.13808 0.305691 -0.29806 -2.39736 0.736647 0.169305 -1.27409 -0.318315 
0.0499795 -1.45186 -0.763763 0.857875 -0.766099 -0.0485111 1.14706 -1.07804 0.19502 
-0.923339 -0.602823 -2.11888 -0.303393 -0.51774 -0.711857 0.240229 -0.658111 -0.97596 
0.639474 -0.693789 0.138598 -0.607573 -0.452124 1.10649 -0.475942 -0.750887 0.232391 
-1.39706 -0.173453 -0.732677 0.515841 -1.08064 -0.174599 0.826559 -0.168365 -1.14499 
0.509672 -0.746463 -1.07181 -0.307664 -1.27706 0.0655462 0.977183 -0.693264 -0.480919 
-0.966101 -0.728342 -0.715637 1.34402 -0.188031 -0.321646 -0.0986838 -0.543199 0.748381 
0.0699409 -0.76253 -1.47197 0.0677298 -0.84822 -0.239203 0.302391 -0.318866 -0.0763236 
-0.204948 -1.38698 -0.0297391 -0.244954 -1.37923 -0.990884 0.369964 0.0590818 -0.720349 
0.419002 0.00833679 0.0527375 0.546297 -0.371426 -0.461766 0.983378 0.699199 0.351348 
0.493911 -0.826604 -1.77427 -0.738699 -0.315014 -0.734895 -0.566258 -0.0243163 0.994653 
0.910799 -0.695183 -0.312436 0.286961 -1.29424 -0.898589 0.354644 -0.819037 -0.640298 