# vtk DataFile Version 4.0
Generated by LIGGGHTS
ASCII
DATASET POLYDATA
POINTS 1355 float
-0.897974 -0.460482 -0.460337 -0.768061 -0.460156 -0.460365 -0.688526 -0.460259 -0.460455 
-0.608667 -0.460749 -0.460551 -0.528515 -0.460569 -0.460538 -0.448814 -0.460175 -0.460372 
-0.369219 -0.46004 -0.460815 -0.267697 -0.460158 -0.460574 -0.161527 -0.460767 -0.460214 
-0.0816324 -0.458482 -0.460439 -0.00237355 -0.460368 -0.45515 0.0773169 -0.459662 -0.460206 
0.157398 -0.459972 -0.460556 0.237257 -0.460139 -0.460576 0.31688 -0.455458 -0.460467 
0.396581 -0.459952 -0.460495 0.476384 -0.460179 -0.460261 0.582473 -0.460474 -0.460664 
0.662137 -0.460382 -0.460481 0.741843 -0.460218 -0.460522 0.821375 -0.4603 -0.460734 
0.902171 -0.460194 -0.46011 -0.960552 -0.411658 -0.460868 -0.88684 -0.381383 -0.460896 
-0.730008 -0.389688 -0.460637 -0.648072 -0.391767 -0.460197 -0.568614 -0.392382 -0.460124 
-0.488994 -0.391135 -0.46038 -0.40914 -0.39086 -0.460647 -0.329269 -0.389511 -0.460122 
-0.20863 -0.396745 -0.460463 -0.129182 -0.38851 -0.461547 0.0360629 -0.391115 -0.460453 
0.118054 -0.390307 -0.460816 0.197727 -0.390883 -0.460534 0.27713 -0.383042 -0.460388 
0.356917 -0.386318 -0.4607 0.438625 -0.38821 -0.460294 0.529397 -0.400797 -0.460424 
0.621226 -0.391253 -0.460663 0.701441 -0.391422 -0.460406 0.781557 -0.390916 -0.460176 
0.861369 -0.391597 -0.460492 0.960181 -0.405302 -0.460493 -0.953481 -0.332805 -0.460129 
-0.87993 -0.301847 -0.460285 -0.805177 -0.362211 -0.460208 -0.680103 -0.319513 -0.461684 
-0.567407 -0.313758 -0.46089 -0.487939 -0.311383 -0.460618 -0.404264 -0.311142 -0.460261 
-0.264117 -0.340027 -0.460571 -0.188909 -0.313801 -0.460272 -0.109241 -0.311872 -0.46042 
-0.0361069 -0.356216 -0.460252 0.032724 -0.311724 -0.460338 0.158443 -0.321445 -0.460555 
0.237841 -0.311413 -0.460317 0.317997 -0.314368 -0.460376 0.397619 -0.317628 -0.46058 
0.490574 -0.311887 -0.460654 0.567985 -0.331096 -0.460975 0.660853 -0.32254 -0.460246 
0.74044 -0.322436 -0.460847 0.881857 -0.314908 -0.460903 0.960448 -0.325704 -0.460367 
-0.960706 -0.253883 -0.46063 -0.802649 -0.282503 -0.460604 -0.726594 -0.254668 -0.460519 
-0.626442 -0.260859 -0.46006 -0.533929 -0.242135 -0.460432 -0.454414 -0.236127 -0.460854 
-0.326736 -0.291604 -0.460567 -0.141854 -0.23897 -0.460848 -0.038429 -0.275613 -0.460502 
0.0996397 -0.267787 -0.460461 0.189403 -0.247784 -0.46039 0.309625 -0.234986 -0.460382 
0.468954 -0.233088 -0.460529 0.545642 -0.254408 -0.460574 0.622374 -0.256028 -0.439312 
0.69938 -0.252691 -0.460478 0.779125 -0.252947 -0.460334 0.881824 -0.235265 -0.460348 
0.960431 -0.246034 -0.460577 -0.960868 -0.174458 -0.460498 -0.891876 -0.214263 -0.460115 
-0.813354 -0.203857 -0.46062 -0.672387 -0.196062 -0.460327 -0.592869 -0.188572 -0.460435 
-0.500492 -0.1699 -0.460639 -0.37482 -0.228232 -0.460663 -0.295322 -0.218221 -0.460462 
-0.215922 -0.208991 -0.460769 -0.0517128 -0.197129 -0.460369 0.0284041 -0.232024 -0.460294 
0.0897862 -0.180942 -0.461289 0.244109 -0.189323 -0.460284 0.386037 -0.199792 -0.46063 
0.573159 -0.179728 -0.460944 0.652576 -0.185301 -0.460369 0.731953 -0.177624 -0.460371 
0.820257 -0.185205 -0.460367 -0.893202 -0.134026 -0.460499 -0.813996 -0.124135 -0.460135 
-0.744896 -0.163546 -0.460606 -0.638736 -0.123756 -0.460357 -0.559487 -0.11619 -0.460334 
-0.42137 -0.163409 -0.460418 -0.342417 -0.154236 -0.461093 -0.263268 -0.145009 -0.4604 
-0.150015 -0.159846 -0.460167 -0.0795685 -0.122296 -0.460217 0.0150471 -0.153602 -0.46133 
0.167971 -0.166176 -0.460343 0.312758 -0.148849 -0.460516 0.424824 -0.115832 -0.460811 
0.499065 -0.14556 -0.460684 0.616826 -0.113419 -0.460773 0.809034 -0.106842 -0.460814 
0.88573 -0.139059 -0.460844 0.960405 -0.166428 -0.460311 -0.960065 -0.0764773 -0.460533 
-0.862585 -0.0612689 -0.460814 -0.780423 -0.051657 -0.460411 -0.70904 -0.0869722 -0.460338 
-0.581978 -0.0396555 -0.460245 -0.496733 -0.0672724 -0.460338 -0.418051 -0.080436 -0.460887 
-0.338391 -0.0748273 -0.460372 -0.199541 -0.0975127 -0.460723 -0.129648 -0.0601224 -0.460474 
-0.0112899 -0.0729068 -0.460121 0.0681821 -0.0437741 -0.460738 0.126569 -0.0981119 -0.460243 
0.205985 -0.071188 -0.460515 0.285775 -0.0728905 -0.460768 0.364828 -0.0636551 -0.46012 
0.439647 -0.0353866 -0.460598 0.544403 -0.0801988 -0.460566 0.663687 -0.0408532 -0.461004 
0.735077 -0.07683 -0.460309 0.960193 -0.0867226 -0.460835 -0.920668 -0.00713265 -0.460599 
-0.829695 0.0104672 -0.460333 -0.751533 0.0250123 -0.460505 -0.678987 -0.0131435 -0.460718 
-0.463767 0.00525992 -0.460522 -0.382256 -0.00670995 -0.460109 -0.299839 -0.00516982 -0.460856 
-0.22 -0.00432004 -0.460464 -0.0722953 -0.00559323 -0.460383 0.00617028 0.00556814 -0.460495 
0.144049 -0.0197453 -0.46035 0.218932 0.00744223 -0.460674 0.298432 0.00652975 -0.460577 
0.377818 0.0148992 -0.460483 0.512541 -0.0121311 -0.435169 0.588179 -0.0135829 -0.460837 
0.762711 -0.00201663 -0.460139 0.836493 -0.0326594 -0.46056 0.914803 -0.0214301 -0.461132 
-0.960835 0.0612948 -0.460501 -0.882139 0.0698714 -0.460286 -0.80397 0.0853149 -0.461119 
-0.725533 0.100039 -0.460666 -0.641533 0.0830574 -0.460282 -0.552495 0.0344403 -0.461036 
-0.487975 0.08133 -0.459967 -0.414832 0.0623574 -0.434701 -0.339968 0.0633369 -0.460975 
-0.260218 0.0645854 -0.460156 -0.14224 0.0344691 -0.460243 -0.065113 0.0734725 -0.460701 
0.0137508 0.084862 -0.460895 0.0799975 0.0352789 -0.460848 0.155995 0.059211 -0.460267 
0.27021 0.0812984 -0.460695 0.398316 0.0916823 -0.460264 0.459929 0.0418925 -0.46046 
0.537202 0.0599589 -0.460119 0.616618 0.0609707 -0.460607 0.691567 0.0340231 -0.460125 
0.755489 0.0818386 -0.460481 0.82654 0.0457184 -0.460485 0.894093 0.0877368 -0.460223 
0.960437 0.0437428 -0.460272 -0.960532 0.14091 -0.460958 -0.856634 0.145117 -0.460364 
-0.780881 0.156863 -0.436632 -0.62937 0.161837 -0.460761 -0.566788 0.112642 -0.460204 
-0.50254 0.159645 -0.461028 -0.382997 0.130437 -0.460708 -0.302026 0.133435 -0.460299 
-0.188848 0.100496 -0.460703 -0.116395 0.133841 -0.460839 -0.0355547 0.14774 -0.460525 
0.0918828 0.117895 -0.460116 0.202794 0.123543 -0.460662 0.330644 0.133622 -0.461102 
0.482168 0.12621 -0.460599 0.566806 0.134136 -0.460601 0.64683 0.134613 -0.460107 
0.752394 0.161372 -0.461051 0.822873 0.124863 -0.460353 0.960644 0.131787 -0.460513 
-0.96039 0.220292 -0.460517 -0.825159 0.218272 -0.460497 -0.708445 0.177764 -0.461208 
-0.429574 0.19537 -0.460205 -0.345553 0.200277 -0.460238 -0.225062 0.195364 -0.460538 
-0.134884 0.211127 -0.460459 -0.0583432 0.23342 -0.460991 0.0546236 0.189992 -0.460197 
0.144893 0.180869 -0.460507 0.263003 0.175301 -0.460922 0.337416 0.212805 -0.460696 
0.413393 0.169261 -0.460328 0.517957 0.197437 -0.46066 0.605614 0.203915 -0.461032 
0.68546 0.204252 -0.460277 0.819521 0.204531 -0.460659 0.889951 0.167223 -0.460398 
0.960025 0.211851 -0.460115 -0.891984 0.260657 -0.46018 -0.821727 0.298157 -0.460552 
-0.750445 0.245596 -0.460596 -0.606819 0.250193 -0.460558 -0.521453 0.248442 -0.460711 
-0.391163 0.265384 -0.460483 -0.284119 0.250366 -0.460453 -0.183822 0.273471 -0.461133 
0.0149996 0.264376 -0.460282 0.109111 0.252424 -0.46065 0.189499 0.253035 -0.460075 
0.269498 0.254452 -0.460105 0.379455 0.280534 -0.460374 0.449508 0.239772 -0.460591 
0.557247 0.267343 -0.461103 0.646944 0.273863 -0.46047 0.75401 0.249825 -0.460532 
0.88774 0.246014 -0.460414 -0.960547 0.300584 -0.460224 -0.891407 0.340242 -0.460418 
-0.739359 0.324259 -0.460532 -0.659509 0.310305 -0.460098 -0.570137 0.320948 -0.460287 
-0.458298 0.351248 -0.461257 -0.332059 0.318937 -0.460451 -0.247716 0.320641 -0.460205 
-0.130714 0.349233 -0.460451 -0.0490256 0.312409 -0.460582 0.070014 0.322028 -0.461048 
0.149604 0.322559 -0.460833 0.229502 0.322947 -0.460473 0.31104 0.322598 -0.460461 
0.420037 0.349414 -0.460579 0.488887 0.308821 -0.460682 0.59761 0.336397 -0.460509 
0.719951 0.321738 -0.460591 0.800986 0.321422 -0.460534 0.880605 0.324411 -0.460403 
0.957269 0.301894 -0.460696 -0.960244 0.380338 -0.460479 -0.890925 0.42018 -0.460605 
-0.773182 0.395905 -0.46033 -0.687626 0.385132 -0.46037 -0.607971 0.3912 -0.460827 
-0.528253 0.38981 -0.460228 -0.385739 0.395124 -0.460498 -0.290834 0.387388 -0.460741 
-0.201754 0.385257 -0.460737 -0.0606572 0.391249 -0.460409 0.0192139 0.389821 -0.460213 
0.109292 0.391329 -0.460558 0.189613 0.391833 -0.46047 0.270119 0.391353 -0.460569 
0.351375 0.391382 -0.460475 0.460686 0.418702 -0.460321 0.529796 0.378632 -0.460106 
0.677145 0.38925 -0.460583 0.757053 0.392163 -0.460652 0.838812 0.392122 -0.460232 
0.921341 0.391935 -0.460647 -0.960065 0.460149 -0.46012 -0.820417 0.46014 -0.460619 
-0.727202 0.460424 -0.460362 -0.647777 0.460243 -0.460396 -0.56821 0.460208 -0.460406 
-0.488777 0.460322 -0.460781 -0.339245 0.460072 -0.460118 -0.259309 0.46032 -0.460263 
-0.179521 0.460791 -0.460649 -0.100086 0.460307 -0.460797 -0.0198634 0.460021 -0.460114 
0.0688272 0.460105 -0.460852 0.148739 0.460383 -0.460477 0.230267 0.460357 -0.460434 
0.310687 0.460141 -0.460321 0.392271 0.460049 -0.460115 0.528942 0.460062 -0.460948 
0.634427 0.460024 -0.460565 0.714335 0.460037 -0.460475 0.797887 0.460447 -0.460518 
0.880468 0.460266 -0.460295 0.960378 0.46057 -0.460303 -0.960244 -0.46078 -0.39908 
-0.884346 -0.46022 -0.374862 -0.72804 -0.460108 -0.391224 -0.648407 -0.460331 -0.391704 
-0.568535 -0.460202 -0.391674 -0.488742 -0.460155 -0.391536 -0.408295 -0.460099 -0.391471 
-0.319186 -0.460476 -0.399596 -0.214931 -0.459987 -0.400948 -0.120832 -0.46046 -0.391349 
-0.0402932 -0.46065 -0.378779 0.0387798 -0.460302 -0.387427 0.117935 -0.460108 -0.391514 
0.197486 -0.460213 -0.391707 0.277103 -0.460396 -0.391655 0.356733 -0.46042 -0.391573 
0.436196 -0.460743 -0.391331 0.530203 -0.46083 -0.4012 0.622396 -0.459972 -0.391621 
0.702361 -0.459656 -0.391435 0.781723 -0.442851 -0.393739 0.860424 -0.459301 -0.391948 
0.960024 -0.460251 -0.402858 -0.960438 -0.382216 -0.386828 -0.833036 -0.429177 -0.427041 
-0.771312 -0.39286 -0.392533 -0.689571 -0.390178 -0.392093 -0.60869 -0.395419 -0.368516 
[...]
POINT_DATA 1355
FIELD FieldData 7
id 1 1355 int
366 408 584 322 662 206 563 371 419 
523 551 145 607 585 151 530 365 186 
620 156 70 664 692 632 759 714 370 
120 208 723 59 512 435 712 211 457 
20 256 338 470 195 678 320 643 534 
171 196 105 493 581 542 514 245 234 
347 708 214 280 305 529 396 291 444 
367 476 155 724 314 136 721 375 250 
442 95 498 54 200 431 75 623 593 
109 184 446 647 159 267 289 373 275 
324 62 533 376 589 76 722 543 576 
202 572 683 676 445 83 641 185 331 
96 99 458 575 40 57 239 31 281 
298 126 300 48 680 521 531 428 254 
592 758 361 412 14 689 312 252 88 
153 397 483 170 704 321 140 726 143 
142 351 651 528 433 92 690 437 359 
569 304 439 339 540 639 177 700 378 
459 310 258 51 182 6 549 369 323 
121 382 507 423 154 495 224 612 720 
590 539 461 166 460 97 240 537 127 
580 85 544 293 697 634 129 104 602 
742 161 32 384 25 671 74 278 383 
71 266 19 22 627 717 162 218 348 
247 167 125 191 199 294 586 640 675 
441 596 149 475 463 387 269 130 8 
748 420 613 663 16 578 402 682 421 
715 637 299 698 747 261 622 355 571 
411 42 416 227 391 527 557 346 67 
274 319 242 649 9 73 766 409 535 
89 4 260 318 650 388 311 94 618 
39 582 53 673 729 3 69 496 363 
201 188 599 670 228 519 667 472 669 
660 646 654 43 230 226 306 427 316 
614 764 329 545 179 389 12 453 440 
197 452 90 604 386 686 38 587 285 
725 743 181 518 225 761 513 5 559 
72 336 66 116 78 628 131 679 959 
103 273 1154 276 516 47 233 325 108 
223 666 157 455 205 175 287 221 56 
751 736 426 744 642 611 302 413 473 
741 684 118 653 18 770 15 82 272 
100 87 343 532 490 219 601 290 465 
110 438 372 767 631 255 879 552 307 
699 636 187 550 80 313 645 279 556 
511 114 757 144 81 668 58 615 558 
644 341 189 407 36 462 597 357 394 
565 169 554 29 334 282 570 424 286 
399 24 616 447 364 183 478 566 492 
718 248 621 33 422 11 502 541 395 
46 106 345 192 568 86 60 236 44 
112 497 429 479 134 27 45 694 326 
358 352 746 21 629 522 415 711 137 
271 2 524 111 737 102 818 216 733 
147 194 148 827 172 101 775 443 28 
738 710 146 474 180 482 381 374 436 
638 450 253 425 93 91 215 505 403 
520 277 591 84 133 626 288 350 762 
193 546 41 970 333 231 330 928 574 
308 328 232 703 432 296 393 284 687 
49 681 400 648 190 128 392 610 135 
209 760 35 665 122 503 750 488 259 
480 469 508 26 113 608 123 222 709 
340 456 251 417 17 292 138 430 246 
98 448 283 404 178 244 132 63 583 
464 891 600 1165 418 547 763 499 553 
229 494 385 617 672 467 119 755 481 
727 526 390 210 728 249 217 573 871 
769 354 158 510 7 739 466 793 890 
500 658 337 986 1166 846 173 567 1184 
468 781 927 735 809 1066 1173 1152 925 
685 933 814 921 414 784 265 749 1288 
943 504 787 268 935 831 910 362 619 
903 688 652 867 1167 410 768 973 951 
963 754 1061 1170 360 828 235 696 779 
1115 875 1147 207 932 241 702 1091 907 
454 812 1255 974 1162 848 914 829 379 
295 707 937 176 982 838 870 509 124 
691 792 919 603 335 317 406 944 972 
732 165 952 491 765 349 904 894 901 
655 79 851 471 734 786 981 882 356 
939 855 141 489 577 30 501 204 674 
536 886 486 918 861 824 895 487 1284 
795 731 800 309 50 605 975 1052 908 
630 1075 434 677 892 52 801 905 947 
1078 301 776 962 805 990 911 332 164 
1182 484 815 401 548 327 198 926 977 
657 794 954 656 888 633 730 160 752 
968 790 150 34 560 783 243 695 477 
538 220 887 922 835 10 555 380 803 
876 515 791 840 955 65 874 77 342 
719 107 804 23 965 203 872 929 994 
873 598 884 822 713 774 237 659 1 
344 13 61 960 706 398 859 896 869 
716 55 1041 1156 971 856 115 506 909 
813 257 821 564 139 263 850 174 609 
912 773 917 37 606 297 830 368 881 
625 353 1134 771 772 913 562 405 845 
880 451 949 885 117 525 1001 303 262 
785 213 68 635 64 661 588 449 756 
152 753 701 594 984 923 315 579 377 
485 961 212 693 878 938 1243 561 270 
906 1178 1079 1149 1312 866 823 1334 1143 
988 1076 956 825 1006 1330 163 1123 1093 
930 1290 1051 958 1305 1211 1113 1193 1279 
1110 1003 1185 849 1049 1133 1058 1159 1035 
826 1231 844 1116 1197 1112 1160 1073 832 
847 1217 1097 1316 1032 1267 1062 1347 1000 
1344 868 999 1125 995 1266 1028 1221 1071 
1086 865 1186 993 1354 1187 1139 1285 1099 
1022 1145 1036 1015 808 1350 1295 1054 1144 
950 1315 1056 1008 1322 1021 1189 1321 1129 
857 1246 902 985 1346 1014 1283 936 964 
1103 1188 806 780 789 1213 1130 1013 1172 
1020 1095 1050 1111 1138 916 992 1174 1201 
1105 820 782 1089 1065 1087 969 1023 1135 
1077 1012 834 1158 1179 978 924 1183 1119 
1082 1083 797 1026 807 980 1223 1018 842 
953 1319 967 1016 839 1067 1258 1176 1236 
1010 1114 1048 931 1027 799 1150 1220 1216 
836 1037 810 893 1088 1273 1081 1311 1171 
1033 1046 1265 987 1100 1253 1017 1203 1009 
1109 862 819 1122 1272 843 1127 837 934 
899 1080 852 915 948 1096 946 1069 1057 
983 860 1128 1104 997 1271 1092 841 864 
1043 798 811 1085 1175 1055 1126 1309 595 
1280 1101 998 1300 1180 1248 1029 1025 1163 
889 1038 1137 1177 777 1053 796 1148 1063 
1011 1042 1229 1230 877 1256 976 1131 853 
1060 858 989 1074 966 1281 940 1045 1181 
1124 1019 1232 778 1118 900 898 1157 854 
1102 996 942 1169 168 945 1287 1070 1136 
1024 1117 1068 1254 740 1059 1307 1161 1098 
979 1040 1208 1313 1142 817 863 1064 1262 
957 883 238 517 816 897 788 624 1252 
1250 1004 1121 1141 1233 1140 941 1132 1190 
1299 1303 1151 1238 745 1327 1302 1226 1247 
1339 1306 1275 1335 1276 1249 1251 1291 1107 
1210 1034 1215 1199 1031 802 1224 1106 1323 
1297 1329 1341 1005 1202 1237 1047 1194 1209 
1352 1325 1263 1292 1228 1192 833 1348 1205 
1317 1270 1331 1219 1342 1304 1242 1235 1343 
1039 1108 1214 1227 1349 1084 1326 1296 1301 
1294 1164 1308 1044 1333 1274 1286 1259 1234 
1260 1345 1218 1153 1282 1198 1269 1278 1241 
1293 1268 1204 1289 1207 1324 1007 1240 1072 
1196 1261 1314 1338 1094 1191 1245 1168 1222 
1155 1320 1328 1351 1298 991 1200 1195 1310 
1355 1090 1277 1244 1002 1332 1212 1257 920 
264 1353 1146 705 1264 1225 1336 1318 1239 
1337 1206 1030 1120 1340 
type 1 1355 int
1 1 1 1 1 1 1 1 1 
1 1 1 1 1 1 1 1 1 
1 1 1 1 1 1 1 1 1 
1 1 1 1 1 1 1 1 1 
1 1 1 1 1 1 1 1 1 
1 1 1 1 1 1 1 1 1 
1 1 1 1 1 1 1 1 1 
1 1 1 1 1 1 1 1 1 
1 1 1 1 1 1 1 1 1 
1 1 1 1 1 1 1 1 1 
1 1 1 1 1 1 1 1 1 
1 1 1 1 1 1 1 1 1 
1 1 1 1 1 1 1 1 1 
1 1 1 1 1 1 1 1 1 
1 1 1 1 1 1 1 1 1 
1 1 1 1 1 1 1 1 1 
1 1 1 1 1 1 1 1 1 
1 1 1 1 1 1 1 1 1 
1 1 1 1 1 1 1 1 1 
1 1 1 1 1 1 1 1 1 
1 1 1 1 1 1 1 1 1 
1 1 1 1 1 1 1 1 1 
1 1 1 1 1 1 1 1 1 
1 1 1 1 1 1 1 1 1 
1 1 1 1 1 1 1 1 1 
1 1 1 1 1 1 1 1 1 
1 1 1 1 1 1 1 1 1 
1 1 1 1 1 1 1 1 1 
1 1 1 1 1 1 1 1 1 
1 1 1 1 1 1 1 1 1 
1 1 1 1 1 1 1 1 1 
1 1 1 1 1 1 1 1 1 
1 1 1 1 1 1 1 1 1 
1 1 1 1 1 1 1 1 1 
1 1 1 1 1 1 1 1 1 
1 1 1 1 1 1 1 1 1 
1 1 1 1 1 1 1 1 1 
1 1 1 1 1 1 1 1 1 
1 1 1 1 1 1 1 1 1 
1 1 1 1 1 1 1 1 1 
1 1 1 1 1 1 1 1 1 
1 1 1 1 1 1 1 1 1 
1 1 1 1 1 1 1 1 1 
1 1 1 1 1 1 1 1 1 
1 1 1 1 1 1 1 1 1 
1 1 1 1 1 1 1 1 1 
1 1 1 1 1 1 1 1 1 
1 1 1 1 1 1 1 1 1 
1 1 1 1 1 1 1 1 1 
1 1 1 1 1 1 1 1 1 
1 1 1 1 1 1 1 1 1 
1 1 1 1 1 1 1 1 1 
1 1 1 1 1 1 1 1 1 
1 1 1 1 1 1 1 1 1 
1 1 1 1 1 1 1 1 1 
1 1 1 1 1 1 1 1 1 
1 1 1 1 1 1 1 1 1 
1 1 1 1 1 1 1 1 1 
1 1 1 1 1 1 1 1 1 
1 1 1 1 1 1 1 1 1 
1 1 1 1 1 1 1 1 1 
1 1 1 1 1 1 1 1 1 
1 1 1 1 1 1 1 1 1 
1 1 1 1 1 1 1 1 1 
1 1 1 1 1 1 1 1 1 
1 1 1 1 1 1 1 1 1 
1 1 1 1 1 1 1 1 1 
1 1 1 1 1 1 1 1 1 
1 1 1 1 1 1 1 1 1 
1 1 1 1 1 1 1 1 1 
1 1 1 1 1 1 1 1 1 
1 1 1 1 1 1 1 1 1 
1 1 1 1 1 1 1 1 1 
1 1 1 1 1 1 1 1 1 
1 1 1 1 1 1 1 1 1 
1 1 1 1 1 1 1 1 1 
1 1 1 1 1 1 1 1 1 
1 1 1 1 1 1 1 1 1 
1 1 1 1 1 1 1 1 1 
1 1 1 1 1 1 1 1 1 
1 1 1 1 1 1 1 1 1 
1 1 1 1 1 1 1 1 1 
1 1 1 1 1 1 1 1 1 
1 1 1 1 1 1 1 1 1 
1 1 1 1 1 1 1 1 1 
1 1 1 1 1 1 1 1 1 
1 1 1 1 1 1 1 1 1 
1 1 1 1 1 1 1 1 1 
1 1 1 1 1 1 1 1 1 
1 1 1 1 1 1 1 1 1 
1 1 1 1 1 1 1 1 1 
1 1 1 1 1 1 1 1 1 
1 1 1 1 1 1 1 1 1 
1 1 1 1 1 1 1 1 1 
1 1 1 1 1 1 1 1 1 
1 1 1 1 1 1 1 1 1 
1 1 1 1 1 1 1 1 1 
1 1 1 1 1 1 1 1 1 
1 1 1 1 1 1 1 1 1 
1 1 1 1 1 1 1 1 1 
1 1 1 1 1 1 1 1 1 
1 1 1 1 1 1 1 1 1 
1 1 1 1 1 1 1 1 1 
1 1 1 1 1 1 1 1 1 
1 1 1 1 1 1 1 1 1 
1 1 1 1 1 1 1 1 1 
1 1 1 1 1 1 1 1 1 
1 1 1 1 1 1 1 1 1 
1 1 1 1 1 1 1 1 1 
1 1 1 1 1 1 1 1 1 
1 1 1 1 1 1 1 1 1 
1 1 1 1 1 1 1 1 1 
1 1 1 1 1 1 1 1 1 
1 1 1 1 1 1 1 1 1 
1 1 1 1 1 1 1 1 1 
1 1 1 1 1 1 1 1 1 
1 1 1 1 1 1 1 1 1 
1 1 1 1 1 1 1 1 1 
1 1 1 1 1 1 1 1 1 
1 1 1 1 1 1 1 1 1 
1 1 1 1 1 1 1 1 1 
1 1 1 1 1 1 1 1 1 
1 1 1 1 1 1 1 1 1 
1 1 1 1 1 1 1 1 1 
1 1 1 1 1 1 1 1 1 
1 1 1 1 1 1 1 1 1 
1 1 1 1 1 1 1 1 1 
1 1 1 1 1 1 1 1 1 
1 1 1 1 1 1 1 1 1 
1 1 1 1 1 1 1 1 1 
1 1 1 1 1 1 1 1 1 
1 1 1 1 1 1 1 1 1 
1 1 1 1 1 1 1 1 1 
1 1 1 1 1 1 1 1 1 
1 1 1 1 1 1 1 1 1 
1 1 1 1 1 1 1 1 1 
1 1 1 1 1 1 1 1 1 
1 1 1 1 1 1 1 1 1 
1 1 1 1 1 1 1 1 1 
1 1 1 1 1 1 1 1 1 
1 1 1 1 1 1 1 1 1 
1 1 1 1 1 1 1 1 1 
1 1 1 1 1 1 1 1 1 
1 1 1 1 1 1 1 1 1 
1 1 1 1 1 1 1 1 1 
1 1 1 1 1 1 1 1 1 
1 1 1 1 1 1 1 1 1 
1 1 1 1 1 1 1 1 1 
1 1 1 1 1 1 1 1 1 
1 1 1 1 1 1 1 1 1 
1 1 1 1 1 
i 3 1355 int
0 0 0 0 0 0 0 0 0 
0 0 0 0 0 0 0 0 0 
0 0 0 0 0 0 0 0 0 
0 0 0 0 0 0 0 0 0 
0 0 0 0 0 0 0 0 0 
0 0 0 0 0 0 0 0 0 
0 0 0 0 0 0 0 0 0 
0 0 0 0 0 0 0 0 0 
0 0 0 0 0 0 0 0 0 
0 0 0 0 0 0 0 0 0 
0 0 0 0 0 0 0 0 0 
0 0 0 0 0 0 0 0 0 
0 0 0 0 0 0 0 0 0 
0 0 0 0 0 0 0 0 0 
0 0 0 0 0 0 0 0 0 
0 0 0 0 0 0 0 0 0 
0 0 0 0 0 0 0 0 0 
0 0 0 0 0 0 0 0 0 
0 0 0 0 0 0 0 0 0 
0 0 0 0 0 0 0 0 0 
0 0 0 0 0 0 0 0 0 
0 0 0 0 0 0 0 0 0 
0 0 0 0 0 0 0 0 0 
0 0 0 0 0 0 0 0 0 
0 0 0 0 0 0 0 0 0 
0 0 0 0 0 0 0 0 0 
0 0 0 0 0 0 0 0 0 
0 0 0 0 0 0 0 0 0 
0 0 0 0 0 0 0 0 0 
0 0 0 0 0 0 0 0 0 
0 0 0 0 0 0 0 0 0 
0 0 0 0 0 0 0 0 0 
0 0 0 0 0 0 0 0 0 
0 0 0 0 0 0 0 0 0 
0 0 0 0 0 0 0 0 0 
0 0 0 0 0 0 0 0 0 
0 0 0 0 0 0 0 0 0 
0 0 0 0 0 0 0 0 0 
0 0 0 0 0 0 0 0 0 
0 0 0 0 0 0 0 0 0 
0 0 0 0 0 0 0 0 0 
0 0 0 0 0 0 0 0 0 
0 0 0 0 0 0 0 0 0 
0 0 0 0 0 0 0 0 0 
0 0 0 0 0 0 0 0 0 
0 0 0 0 0 0 0 0 0 
0 0 0 0 0 0 0 0 0 
0 0 0 0 0 0 0 0 0 
0 0 0 0 0 0 0 0 0 
0 0 0 0 0 0 0 0 0 
0 0 0 0 0 0 0 0 0 
0 0 0 0 0 0 0 0 0 
0 0 0 0 0 0 0 0 0 
0 0 0 0 0 0 0 0 0 
0 0 0 0 0 0 0 0 0 
0 0 0 0 0 0 0 0 0 
0 0 0 0 0 0 0 0 0 
0 0 0 0 0 0 0 0 0 
0 0 0 0 0 0 0 0 0 
0 0 0 0 0 0 0 0 0 
0 0 0 0 0 0 0 0 0 
0 0 0 0 0 0 0 0 0 
0 0 0 0 0 0 0 0 0 
0 0 0 0 0 0 0 0 0 
0 0 0 0 0 0 0 0 0 
0 0 0 0 0 0 0 0 0 
0 0 0 0 0 0 0 0 0 
0 0 0 0 0 0 0 0 0 
0 0 0 0 0 0 0 0 0 
0 0 0 0 0 0 0 0 0 
0 0 0 0 0 0 0 0 0 
0 0 0 0 0 0 0 0 0 
0 0 0 0 0 0 0 0 0 
0 0 0 0 0 0 0 0 0 
0 0 0 0 0 0 0 0 0 
0 0 0 0 0 0 0 0 0 
0 0 0 0 0 0 0 0 0 
0 0 0 0 0 0 0 0 0 
0 0 0 0 0 0 0 0 0 
0 0 0 0 0 0 0 0 0 
0 0 0 0 0 0 0 0 0 
0 0 0 0 0 0 0 0 0 
0 0 0 0 0 0 0 0 0 
0 0 0 0 0 0 0 0 0 
0 0 0 0 0 0 0 0 0 
0 0 0 0 0 0 0 0 0 
0 0 0 0 0 0 0 0 0 
0 0 0 0 0 0 0 0 0 
0 0 0 0 0 0 0 0 0 
0 0 0 0 0 0 0 0 0 
0 0 0 0 0 0 0 0 0 
0 0 0 0 0 0 0 0 0 
0 0 0 0 0 0 0 0 0 
0 0 0 0 0 0 0 0 0 
0 0 0 0 0 0 0 0 0 
0 0 0 0 0 0 0 0 0 
0 0 0 0 0 0 0 0 0 
0 0 0 0 0 0 0 0 0 
0 0 0 0 0 0 0 0 0 
0 0 0 0 0 0 0 0 0 
0 0 0 0 0 0 0 0 0 
0 0 0 0 0 0 0 0 0 
0 0 0 0 0 0 0 0 0 
0 0 0 0 0 0 0 0 0 
0 0 0 0 0 0 0 0 0 
0 0 0 0 0 0 0 0 0 
0 0 0 0 0 0 0 0 0 
0 0 0 0 0 0 0 0 0 
0 0 0 0 0 0 0 0 0 
0 0 0 0 0 0 0 0 0 
0 0 0 0 0 0 0 0 0 
0 0 0 0 0 0 0 0 0 
0 0 0 0 0 0 0 0 0 
0 0 0 0 0 0 0 0 0 
0 0 0 0 0 0 0 0 0 
0 0 0 0 0 0 0 0 0 
0 0 0 0 0 0 0 0 0 
0 0 0 0 0 0 0 0 0 
0 0 0 0 0 0 0 0 0 
0 0 0 0 0 0 0 0 0 
0 0 0 0 0 0 0 0 0 
0 0 0 0 0 0 0 0 0 
0 0 0 0 0 0 0 0 0 
0 0 0 0 0 0 0 0 0 
0 0 0 0 0 0 0 0 0 
0 0 0 0 0 0 0 0 0 
0 0 0 0 0 0 0 0 0 
0 0 0 0 0 0 0 0 0 
0 0 0 0 0 0 0 0 0 
0 0 0 0 0 0 0 0 0 
0 0 0 0 0 0 0 0 0 
0 0 0 0 0 0 0 0 0 
0 0 0 0 0 0 0 0 0 
0 0 0 0 0 0 0 0 0 
0 0 0 0 0 0 0 0 0 
0 0 0 0 0 0 0 0 0 
0 0 0 0 0 0 0 0 0 
0 0 0 0 0 0 0 0 0 
0 0 0 0 0 0 0 0 0 
0 0 0 0 0 0 0 0 0 
0 0 0 0 0 0 0 0 0 
0 0 0 0 0 0 0 0 0 
0 0 0 0 0 0 0 0 0 
0 0 0 0 0 0 0 0 0 
0 0 0 0 0 0 0 0 0 
0 0 0 0 0 0 0 0 0 
0 0 0 0 0 0 0 0 0 
0 0 0 0 0 0 0 0 0 
0 0 0 0 0 0 0 0 0 
0 0 0 0 0 0 0 0 0 
0 0 0 0 0 0 0 0 0 
0 0 0 0 0 0 0 0 0 
0 0 0 0 0 0 0 0 0 
0 0 0 0 0 0 0 0 0 
0 0 0 0 0 0 0 0 0 
0 0 0 0 0 0 0 0 0 
0 0 0 0 0 0 0 0 0 
0 0 0 0 0 0 0 0 0 
0 0 0 0 0 0 0 0 0 
0 0 0 0 0 0 0 0 0 
0 0 0 0 0 0 0 0 0 
0 0 0 0 0 0 0 0 0 
0 0 0 0 0 0 0 0 0 
0 0 0 0 0 0 0 0 0 
0 0 0 0 0 0 0 0 0 
0 0 0 0 0 0 0 0 0 
0 0 0 0 0 0 0 0 0 
0 0 0 0 0 0 0 0 0 
0 0 0 0 0 0 0 0 0 
0 0 0 0 0 0 0 0 0 
0 0 0 0 0 0 0 0 0 
0 0 0 0 0 0 0 0 0 
0 0 0 0 0 0 0 0 0 
0 0 0 0 0 0 0 0 0 
0 0 0 0 0 0 0 0 0 
0 0 0 0 0 0 0 0 0 
0 0 0 0 0 0 0 0 0 
0 0 0 0 0 0 0 0 0 
0 0 0 0 0 0 0 0 0 
0 0 0 0 0 0 0 0 0 
0 0 0 0 0 0 0 0 0 
0 0 0 0 0 0 0 0 0 
0 0 0 0 0 0 0 0 0 
0 0 0 0 0 0 0 0 0 
0 0 0 0 0 0 0 0 0 
0 0 0 0 0 0 0 0 0 
0 0 0 0 0 0 0 0 0 
0 0 0 0 0 0 0 0 0 
0 0 0 0 0 0 0 0 0 
0 0 0 0 0 0 0 0 0 
0 0 0 0 0 0 0 0 0 
0 0 0 0 0 0 0 0 0 
0 0 0 0 0 0 0 0 0 
0 0 0 0 0 0 0 0 0 
0 0 0 0 0 0 0 0 0 
0 0 0 0 0 0 0 0 0 
0 0 0 0 0 0 0 0 0 
0 0 0 0 0 0 0 0 0 
0 0 0 0 0 0 0 0 0 
0 0 0 0 0 0 0 0 0 
0 0 0 0 0 0 0 0 0 
0 0 0 0 0 0 0 0 0 
0 0 0 0 0 0 0 0 0 
0 0 0 0 0 0 0 0 0 
0 0 0 0 0 0 0 0 0 
0 0 0 0 0 0 0 0 0 
0 0 0 0 0 0 0 0 0 
0 0 0 0 0 0 0 0 0 
0 0 0 0 0 0 0 0 0 
0 0 0 0 0 0 0 0 0 
0 0 0 0 0 0 0 0 0 
0 0 0 0 0 0 0 0 0 
0 0 0 0 0 0 0 0 0 
0 0 0 0 0 0 0 0 0 
0 0 0 0 0 0 0 0 0 
0 0 0 0 0 0 0 0 0 
0 0 0 0 0 0 0 0 0 
0 0 0 0 0 0 0 0 0 
0 0 0 0 0 0 0 0 0 
0 0 0 0 0 0 0 0 0 
0 0 0 0 0 0 0 0 0 
0 0 0 0 0 0 0 0 0 
0 0 0 0 0 0 0 0 0 
0 0 0 0 0 0 0 0 0 
0 0 0 0 0 0 0 0 0 
0 0 0 0 0 0 0 0 0 
0 0 0 0 0 0 0 0 0 
0 0 0 0 0 0 0 0 0 
0 0 0 0 0 0 0 0 0 
0 0 0 0 0 0 0 0 0 
0 0 0 0 0 0 0 0 0 
0 0 0 0 0 0 0 0 0 
0 0 0 0 0 0 0 0 0 
0 0 0 0 0 0 0 0 0 
0 0 0 0 0 0 0 0 0 
0 0 0 0 0 0 0 0 0 
0 0 0 0 0 0 0 0 0 
0 0 0 0 0 0 0 0 0 
0 0 0 0 0 0 0 0 0 
0 0 0 0 0 0 0 0 0 
0 0 0 0 0 0 0 0 0 
0 0 0 0 0 0 0 0 0 
0 0 0 0 0 0 0 0 0 
0 0 0 0 0 0 0 0 0 
0 0 0 0 0 0 0 0 0 
0 0 0 0 0 0 0 0 0 
0 0 0 0 0 0 0 0 0 
0 0 0 0 0 0 0 0 0 
0 0 0 0 0 0 0 0 0 
0 0 0 0 0 0 0 0 0 
0 0 0 0 0 0 0 0 0 
0 0 0 0 0 0 0 0 0 
0 0 0 0 0 0 0 0 0 
0 0 0 0 0 0 0 0 0 
0 0 0 0 0 0 0 0 0 
0 0 0 0 0 0 0 0 0 
0 0 0 0 0 0 0 0 0 
0 0 0 0 0 0 0 0 0 
0 0 0 0 0 0 0 0 0 
0 0 0 0 0 0 0 0 0 
0 0 0 0 0 0 0 0 0 
0 0 0 0 0 0 0 0 0 
0 0 0 0 0 0 0 0 0 
0 0 0 0 0 0 0 0 0 
0 0 0 0 0 0 0 0 0 
0 0 0 0 0 0 0 0 0 
0 0 0 0 0 0 0 0 0 
0 0 0 0 0 0 0 0 0 
0 0 0 0 0 0 0 0 0 
0 0 0 0 0 0 0 0 0 
0 0 0 0 0 0 0 0 0 
0 0 0 0 0 0 0 0 0 
0 0 0 0 0 0 0 0 0 
0 0 0 0 0 0 0 0 0 
0 0 0 0 0 0 0 0 0 
0 0 0 0 0 0 0 0 0 
0 0 0 0 0 0 0 0 0 
0 0 0 0 0 0 0 0 0 
0 0 0 0 0 0 0 0 0 
0 0 0 0 0 0 0 0 0 
0 0 0 0 0 0 0 0 0 
0 0 0 0 0 0 0 0 0 
0 0 0 0 0 0 0 0 0 
0 0 0 0 0 0 0 0 0 
0 0 0 0 0 0 0 0 0 
0 0 0 0 0 0 0 0 0 
0 0 0 0 0 0 0 0 0 
0 0 0 0 0 0 0 0 0 
0 0 0 0 0 0 0 0 0 
0 0 0 0 0 0 0 0 0 
0 0 0 0 0 0 0 0 0 
0 0 0 0 0 0 0 0 0 
0 0 0 0 0 0 0 0 0 
0 0 0 0 0 0 0 0 0 
0 0 0 0 0 0 0 0 0 
0 0 0 0 0 0 0 0 0 
0 0 0 0 0 0 0 0 0 
0 0 0 0 0 0 0 0 0 
0 0 0 0 0 0 0 0 0 
0 0 0 0 0 0 0 0 0 
0 0 0 0 0 0 0 0 0 
0 0 0 0 0 0 0 0 0 
0 0 0 0 0 0 0 0 0 
0 0 0 0 0 0 0 0 0 
0 0 0 0 0 0 0 0 0 
0 0 0 0 0 0 0 0 0 
0 0 0 0 0 0 0 0 0 
0 0 0 0 0 0 0 0 0 
0 0 0 0 0 0 0 0 0 
0 0 0 0 0 0 0 0 0 
0 0 0 0 0 0 0 0 0 
0 0 0 0 0 0 0 0 0 
0 0 0 0 0 0 0 0 0 
0 0 0 0 0 0 0 0 0 
0 0 0 0 0 0 0 0 0 
0 0 0 0 0 0 0 0 0 
0 0 0 0 0 0 0 0 0 
0 0 0 0 0 0 0 0 0 
0 0 0 0 0 0 0 0 0 
0 0 0 0 0 0 0 0 0 
0 0 0 0 0 0 0 0 0 
0 0 0 0 0 0 0 0 0 
0 0 0 0 0 0 0 0 0 
0 0 0 0 0 0 0 0 0 
0 0 0 0 0 0 0 0 0 
0 0 0 0 0 0 0 0 0 
0 0 0 0 0 0 0 0 0 
0 0 0 0 0 0 0 0 0 
0 0 0 0 0 0 0 0 0 
0 0 0 0 0 0 0 0 0 
0 0 0 0 0 0 0 0 0 
0 0 0 0 0 0 0 0 0 
0 0 0 0 0 0 0 0 0 
0 0 0 0 0 0 0 0 0 
0 0 0 0 0 0 0 0 0 
0 0 0 0 0 0 0 0 0 
0 0 0 0 0 0 0 0 0 
0 0 0 0 0 0 0 0 0 
0 0 0 0 0 0 0 0 0 
0 0 0 0 0 0 0 0 0 
0 0 0 0 0 0 0 0 0 
0 0 0 0 0 0 0 0 0 
0 0 0 0 0 0 0 0 0 
0 0 0 0 0 0 0 0 0 
0 0 0 0 0 0 0 0 0 
0 0 0 0 0 0 0 0 0 
0 0 0 0 0 0 0 0 0 
0 0 0 0 0 0 0 0 0 
0 0 0 0 0 0 0 0 0 
0 0 0 0 0 0 0 0 0 
0 0 0 0 0 0 0 0 0 
0 0 0 0 0 0 0 0 0 
0 0 0 0 0 0 0 0 0 
0 0 0 0 0 0 0 0 0 
0 0 0 0 0 0 0 0 0 
0 0 0 0 0 0 0 0 0 
0 0 0 0 0 0 0 0 0 
0 0 0 0 0 0 0 0 0 
0 0 0 0 0 0 0 0 0 
0 0 0 0 0 0 0 0 0 
0 0 0 0 0 0 0 0 0 
0 0 0 0 0 0 0 0 0 
0 0 0 0 0 0 0 0 0 
0 0 0 0 0 0 0 0 0 
0 0 0 0 0 0 0 0 0 
0 0 0 0 0 0 0 0 0 
0 0 0 0 0 0 0 0 0 
0 0 0 0 0 0 0 0 0 
0 0 0 0 0 0 0 0 0 
0 0 0 0 0 0 0 0 0 
0 0 0 0 0 0 0 0 0 
0 0 0 0 0 0 0 0 0 
0 0 0 0 0 0 0 0 0 
0 0 0 0 0 0 0 0 0 
0 0 0 0 0 0 0 0 0 
0 0 0 0 0 0 0 0 0 
0 0 0 0 0 0 0 0 0 
0 0 0 0 0 0 0 0 0 
0 0 0 0 0 0 0 0 0 
0 0 0 0 0 0 0 0 0 
0 0 0 0 0 0 0 0 0 
0 0 0 0 0 0 0 0 0 
0 0 0 0 0 0 0 0 0 
0 0 0 0 0 0 0 0 0 
0 0 0 0 0 0 0 0 0 
0 0 0 0 0 0 0 0 0 
0 0 0 0 0 0 0 0 0 
0 0 0 0 0 0 0 0 0 
0 0 0 0 0 0 0 0 0 
0 0 0 0 0 0 0 0 0 
0 0 0 0 0 0 0 0 0 
0 0 0 0 0 0 0 0 0 
0 0 0 0 0 0 0 0 0 
0 0 0 0 0 0 0 0 0 
0 0 0 0 0 0 0 0 0 
0 0 0 0 0 0 0 0 0 
0 0 0 0 0 0 0 0 0 
0 0 0 0 0 0 0 0 0 
0 0 0 0 0 0 0 0 0 
0 0 0 0 0 0 0 0 0 
0 0 0 0 0 0 0 0 0 
0 0 0 0 0 0 0 0 0 
0 0 0 0 0 0 0 0 0 
0 0 0 0 0 0 0 0 0 
0 0 0 0 0 0 0 0 0 
0 0 0 0 0 0 0 0 0 
0 0 0 0 0 0 0 0 0 
0 0 0 0 0 0 0 0 0 
0 0 0 0 0 0 0 0 0 
0 0 0 0 0 0 0 0 0 
0 0 0 0 0 0 0 0 0 
0 0 0 0 0 0 0 0 0 
0 0 0 0 0 0 0 0 0 
0 0 0 0 0 0 0 0 0 
0 0 0 0 0 0 0 0 0 
0 0 0 0 0 0 0 0 0 
0 0 0 0 0 0 0 0 0 
0 0 0 0 0 0 0 0 0 
0 0 0 0 0 0 0 0 0 
0 0 0 0 0 0 0 0 0 
0 0 0 0 0 0 0 0 0 
0 0 0 0 0 0 0 0 0 
0 0 0 0 0 0 0 0 0 
0 0 0 0 0 0 0 0 0 
0 0 0 0 0 0 0 0 0 
0 0 0 0 0 0 0 0 0 
0 0 0 0 0 0 0 0 0 
0 0 0 0 0 0 0 0 0 
0 0 0 0 0 0 0 0 0 
0 0 0 0 0 0 0 0 0 
0 0 0 0 0 0 0 0 0 
0 0 0 0 0 0 0 0 0 
0 0 0 0 0 0 0 0 0 
0 0 0 0 0 0 0 0 0 
0 0 0 0 0 0 0 0 0 
0 0 0 0 0 0 0 0 0 
0 0 0 0 0 0 0 0 0 
0 0 0 0 0 0 0 0 0 
0 0 0 0 0 0 0 0 0 
0 0 0 0 0 0 0 0 0 
0 0 0 0 0 0 0 0 0 
0 0 0 0 0 0 0 0 0 
0 0 0 0 0 0 0 0 0 
0 0 0 0 0 0 0 0 0 
0 0 0 0 0 0 0 0 0 
0 0 0 0 0 0 0 0 0 
0 0 0 0 0 0 0 0 0 
0 0 0 0 0 0 0 0 0 
0 0 0 0 0 0 0 0 0 
0 0 0 0 0 0 0 0 0 
0 0 0 0 0 0 0 0 0 
0 0 0 0 0 0 
v 3 1355 double
0.00439398 0.00226541 0.00749044 0.0181607 -0.00373392 0.0035965 0.0212889 -0.00646316 0.00213147 
0.0261231 -0.0128149 -0.000305305 0.0188889 -0.000169649 -0.00175062 0.0182764 0.00286735 -0.00595344 
0.00820612 0.00497456 0.00311216 -0.0263727 0.00950501 -0.00246835 0.054036 -0.00158729 -0.0156172 
0.0561873 0.0157288 0.000193955 0.0278578 0.0019052 -0.0611363 0.0504123 -0.00417881 -0.0126399 
0.0222098 -0.0130953 -0.00441202 0.0399917 -0.00408144 -0.0172503 0.0341231 -0.00660797 -0.016635 
0.0296404 -0.000226623 -0.00430564 0.0291856 -0.00645477 0.0051213 -0.0228912 0.00244429 -0.0122214 
-0.0169952 0.00180868 -0.0168608 -0.019554 -0.000521657 -0.000295524 -0.0195868 0.00294704 -0.00658853 
-0.00263994 0.00344527 -0.0094163 0.000396089 0.00120219 0.000254302 0.00101148 -7.01798e-05 0.0199907 
0.0076547 -0.0534579 0.00649263 0.0309583 -0.0265681 0.00801672 0.0241963 -0.00555341 0.00523476 
0.0171728 -0.00279631 0.00657561 0.0118409 0.00685566 0.00337351 0.0229906 0.0196832 -0.015212 
-0.0160824 -0.0349205 -0.0101677 -0.0248017 0.0362176 -0.0157641 0.0186682 -0.0117167 -0.00936582 
0.0438043 -0.0389843 -0.00995803 0.0413872 -0.00522735 0.00206963 0.0290173 -0.00720213 -0.00249227 
0.0217018 -0.00325445 -0.0121145 0.0346475 0.0208812 -0.00842388 -0.0052478 0.0118794 0.000680238 
-0.0246714 0.00577596 -0.017497 -0.0247576 3.54157e-05 -0.0293069 -0.0232642 -0.000719653 -0.00658521 
-0.0277689 5.31979e-05 -0.0154897 0.00035092 -0.00167954 0.00903618 0.00199544 -0.0110539 0.00304506 
0.00378935 -0.0170005 0.0258174 0.0170398 0.0044087 -0.00080525 0.0370812 -0.00852971 0.0260766 
0.00786007 -0.00273886 0.00545256 -0.00201773 -0.00402301 -0.00293269 0.01933 0.00858252 0.000407503 
0.0104872 -0.0110064 -0.0144166 -0.00146932 -0.00976815 0.00602737 -0.0151244 0.0241571 -0.00374953 
0.0585723 -0.0450584 0.00266008 -0.0311074 -0.0324311 -0.0214678 0.0111418 -0.0208991 0.0149637 
0.0208683 0.00562734 0.00289609 0.0201676 -0.00508334 0.00662235 0.0083389 0.00967411 -0.00549032 
0.0103349 0.011441 0.00286805 -0.000385046 0.0107089 0.00611193 -0.0232222 0.0172787 -0.00563466 
-0.0303511 -0.00608612 -0.00529396 0.00023739 -0.00678052 -0.0121565 -0.00468084 -0.00275747 0.00472107 
0.0082652 -0.0083942 0.0188807 -0.000745927 0.00477288 -0.00660242 0.040344 -0.0184819 0.0212062 
0.0145369 0.0151673 0.00267365 0.000935144 0.00349576 0.00370837 0.00335137 0.00998608 0.00399011 
0.0336716 -0.00134935 -0.060675 0.0496136 0.0533449 0.00479795 -0.0153904 0.00956528 0.00952249 
-0.0118988 -0.060493 -0.0136944 -0.0154339 -0.0132171 -0.014654 -0.0241539 -0.00753356 -0.00893877 