# vtk DataFile Version 4.0
Generated by LIGGGHTS
ASCII
DATASET POLYDATA
POINTS 1355 float
-0.900081 -0.460988 -0.460663 -0.777737 -0.459657 -0.458952 -0.697505 -0.460335 -0.460504 
-0.61776 -0.461322 -0.460876 -0.538549 -0.460359 -0.459971 -0.442297 -0.46014 -0.460896 
-0.354821 -0.456168 -0.460183 -0.252804 -0.459722 -0.460488 -0.163631 -0.459974 -0.460145 
-0.0587086 -0.458662 -0.460126 0.0448471 -0.459614 -0.461444 0.126796 -0.43865 -0.460795 
0.216736 -0.460493 -0.461547 0.295758 -0.44543 -0.460637 0.374077 -0.460017 -0.460772 
0.472186 -0.460382 -0.460864 0.582197 -0.459789 -0.459937 0.66666 -0.460396 -0.460344 
0.748555 -0.460245 -0.46001 0.827823 -0.460203 -0.46013 0.907001 -0.460919 -0.461567 
-0.961205 -0.411237 -0.461443 -0.889478 -0.377548 -0.460669 -0.736125 -0.388978 -0.459596 
-0.656881 -0.392995 -0.460997 -0.58012 -0.396529 -0.435601 -0.493831 -0.394718 -0.460052 
-0.414696 -0.385667 -0.460768 -0.328094 -0.380701 -0.45976 -0.195855 -0.387052 -0.460669 
-0.115265 -0.394838 -0.460268 -0.0324334 -0.369176 -0.4612 0.187511 -0.389874 -0.440914 
0.263571 -0.372348 -0.460467 0.346089 -0.381557 -0.460984 0.42449 -0.396849 -0.460729 
0.520697 -0.391928 -0.460291 0.627607 -0.390956 -0.460947 0.707929 -0.392224 -0.460553 
0.788605 -0.389525 -0.460429 0.868503 -0.391876 -0.461339 0.960612 -0.40192 -0.460938 
-0.956163 -0.329628 -0.459794 -0.811023 -0.364261 -0.460423 -0.684269 -0.303956 -0.460404 
-0.567604 -0.323168 -0.460936 -0.487917 -0.31542 -0.459965 -0.405753 -0.306441 -0.460812 
-0.259596 -0.339704 -0.461368 -0.108407 -0.315708 -0.460116 0.0524657 -0.321038 -0.460356 
0.165122 -0.31673 -0.461103 0.321353 -0.304315 -0.460746 0.398343 -0.321586 -0.460734 
0.477777 -0.322674 -0.460376 0.581493 -0.325691 -0.460114 0.665385 -0.320285 -0.460549 
0.745538 -0.322363 -0.461502 0.881491 -0.313921 -0.460698 0.960366 -0.321734 -0.459287 
-0.960238 -0.250209 -0.459764 -0.877803 -0.287946 -0.460149 -0.795811 -0.286416 -0.461453 
-0.731451 -0.239678 -0.459724 -0.616959 -0.265194 -0.437037 -0.542229 -0.248278 -0.459726 
-0.463448 -0.239747 -0.460986 -0.327034 -0.295918 -0.460424 -0.193881 -0.292694 -0.460766 
-0.131462 -0.239604 -0.460575 -0.0222372 -0.290517 -0.460194 0.0332161 -0.233557 -0.460914 
0.106944 -0.26264 -0.460872 0.185337 -0.240077 -0.460216 0.242429 -0.29546 -0.461049 
0.47081 -0.232607 -0.460601 0.548514 -0.250916 -0.460179 0.686558 -0.243585 -0.461271 
0.765698 -0.245892 -0.460537 0.877396 -0.234521 -0.460124 0.956752 -0.242012 -0.460158 
-0.892741 -0.209447 -0.459487 -0.806079 -0.207019 -0.461239 -0.661073 -0.203027 -0.46017 
-0.510846 -0.175339 -0.4605 -0.43244 -0.166773 -0.460675 -0.383863 -0.229861 -0.460279 
-0.305272 -0.21732 -0.460445 -0.226388 -0.20587 -0.460327 -0.0498936 -0.213454 -0.460873 
0.0876377 -0.172117 -0.460639 0.247114 -0.171442 -0.45733 0.305805 -0.226155 -0.4606 
0.38144 -0.19925 -0.459905 0.56739 -0.172733 -0.46059 0.647173 -0.172653 -0.458834 
0.728306 -0.175667 -0.460642 0.815394 -0.184465 -0.460097 -0.960966 -0.167808 -0.460739 
-0.892044 -0.129748 -0.460003 -0.812421 -0.12675 -0.46011 -0.741349 -0.160916 -0.460754 
-0.632885 -0.126415 -0.461347 -0.555333 -0.109403 -0.460289 -0.35448 -0.155245 -0.459063 
-0.275693 -0.143204 -0.460862 -0.207111 -0.103157 -0.461968 -0.156312 -0.164373 -0.460402 
-0.0774947 -0.136749 -0.459912 0.00966405 -0.155696 -0.460694 0.167917 -0.162472 -0.460797 
0.322603 -0.146024 -0.460686 0.415188 -0.126875 -0.459806 0.490437 -0.152042 -0.460861 
0.794139 -0.108191 -0.460699 0.883477 -0.144024 -0.46031 0.960556 -0.162161 -0.460586 
-0.960272 -0.0795109 -0.459964 -0.855147 -0.0598676 -0.461212 -0.775439 -0.0554066 -0.460789 
-0.703507 -0.089931 -0.45992 -0.588165 -0.035782 -0.461005 -0.4947 -0.0589166 -0.460194 
-0.419892 -0.0866367 -0.460504 -0.340687 -0.0769633 -0.460869 -0.136121 -0.0688572 -0.460413 
-0.0149198 -0.0734786 -0.460096 0.0610342 -0.0456177 -0.46039 0.122627 -0.0967054 -0.460277 
0.201713 -0.0787729 -0.461288 0.280953 -0.0783599 -0.46085 0.360038 -0.0694095 -0.458483 
0.43709 -0.0483233 -0.460225 0.527498 -0.0819461 -0.460926 0.604291 -0.102174 -0.460203 
0.652034 -0.0382424 -0.46084 0.724266 -0.0718662 -0.461182 0.831116 -0.0378447 -0.460163 
0.960343 -0.0816213 -0.459871 -0.917398 -0.0122021 -0.460857 -0.835578 0.0172641 -0.460312 
-0.756053 0.0223058 -0.460793 -0.677897 -0.0140654 -0.460834 -0.468441 0.0156228 -0.460507 
-0.391357 -0.00202263 -0.460784 -0.303385 -0.00554154 -0.460639 -0.22368 -0.0139627 -0.46102 
-0.15322 0.0277967 -0.461067 -0.0789306 -0.0142553 -0.46085 -0.00209955 0.00585871 -0.460137 
0.07262 0.0331098 -0.460359 0.137338 -0.0180717 -0.460739 0.215879 -0.000211504 -0.4609 
0.296287 0.000465875 -0.460438 0.376859 0.0115625 -0.460904 0.455414 0.0292463 -0.461334 
0.575799 -0.0158711 -0.460068 0.760452 -0.00173642 -0.46011 0.908628 -0.0211421 -0.461647 
-0.962213 0.052099 -0.461546 -0.888714 0.0764763 -0.461139 -0.812215 0.09422 -0.460787 
-0.732734 0.0985407 -0.461291 -0.644367 0.0845949 -0.460656 -0.555198 0.0362349 -0.460317 
-0.496699 0.0876049 -0.44267 -0.345578 0.0638446 -0.461299 -0.266017 0.0649437 -0.460054 
-0.192756 0.0968875 -0.460822 -0.0709447 0.065138 -0.460136 0.00602554 0.08516 -0.460731 
0.14738 0.0609802 -0.460879 0.272819 0.0768949 -0.460076 0.401243 0.0876117 -0.460698 
0.531593 0.0523422 -0.457803 0.611333 0.0549125 -0.460381 0.688467 0.0328257 -0.460644 
0.754628 0.0775052 -0.461605 0.827016 0.0416511 -0.460353 0.894624 0.0837575 -0.46077 
0.960561 0.0389463 -0.46031 -0.95983 0.131637 -0.460232 -0.871136 0.153636 -0.460559 
-0.634201 0.164229 -0.460176 -0.568837 0.115652 -0.460555 -0.500993 0.163988 -0.46128 
-0.386153 0.132665 -0.461417 -0.305686 0.135668 -0.460384 -0.116294 0.130316 -0.460305 
-0.0386844 0.150893 -0.461023 0.081476 0.112168 -0.459999 0.202818 0.124611 -0.460221 
0.332354 0.131755 -0.460393 0.420477 0.164967 -0.460803 0.488072 0.118847 -0.460433 
0.567899 0.123902 -0.460502 0.647794 0.12539 -0.460722 0.754265 0.156912 -0.460097 
0.825041 0.12113 -0.460146 0.892058 0.164351 -0.46042 0.961166 0.126057 -0.460182 
-0.960409 0.210613 -0.451322 -0.812269 0.207325 -0.459955 -0.716417 0.176561 -0.460809 
-0.430179 0.199676 -0.460076 -0.350233 0.203046 -0.460444 -0.232501 0.183651 -0.460996 
-0.137233 0.208644 -0.460467 0.0499687 0.19048 -0.460411 0.147655 0.18181 -0.460618 
0.268443 0.179384 -0.461069 0.342673 0.21057 -0.460149 0.525169 0.191433 -0.460409 
0.609536 0.195089 -0.460778 0.688961 0.201398 -0.46053 0.821352 0.200151 -0.460363 
0.960352 0.211589 -0.460076 -0.960498 0.289852 -0.460525 -0.891328 0.249177 -0.460744 
-0.821413 0.288613 -0.460048 -0.745112 0.250625 -0.461084 -0.602682 0.253183 -0.460742 
-0.522462 0.248785 -0.460703 -0.39351 0.270071 -0.460879 -0.283089 0.245585 -0.460461 
-0.180821 0.274833 -0.460679 -0.0625012 0.236835 -0.460595 0.0120714 0.266443 -0.460181 
0.109736 0.252387 -0.460567 0.200592 0.24925 -0.460066 0.279689 0.259426 -0.46016 
0.387744 0.276017 -0.460259 0.45843 0.235398 -0.459896 0.571926 0.264698 -0.460774 
0.652761 0.272561 -0.461145 0.757902 0.247928 -0.460245 0.887711 0.244025 -0.461173 
0.959807 0.293045 -0.460012 -0.891072 0.329534 -0.461017 -0.751581 0.329329 -0.460977 
-0.658436 0.312594 -0.460673 -0.57038 0.32545 -0.460865 -0.463323 0.350564 -0.461328 
-0.328232 0.315251 -0.460569 -0.247939 0.317345 -0.46015 -0.124996 0.344445 -0.460993 
-0.0505393 0.31612 -0.460647 0.0717257 0.322265 -0.460841 0.155667 0.323055 -0.460555 
0.239603 0.328216 -0.460778 0.3248 0.325401 -0.460479 0.432979 0.341311 -0.460608 
0.502504 0.302743 -0.460684 0.61782 0.344317 -0.460766 0.726373 0.321082 -0.46072 
0.80588 0.313198 -0.45947 0.885761 0.323046 -0.461953 -0.96083 0.369366 -0.460161 
-0.894176 0.411245 -0.458963 -0.782005 0.401351 -0.457182 -0.693505 0.389921 -0.460204 
-0.613368 0.391832 -0.460634 -0.529542 0.393941 -0.459814 -0.407625 0.407214 -0.460808 
-0.289951 0.384699 -0.460449 -0.195195 0.381162 -0.460385 -0.0636869 0.394791 -0.4606 
0.0237162 0.393107 -0.460423 0.112966 0.390555 -0.460186 0.195134 0.393735 -0.460441 
0.283873 0.394739 -0.461629 0.370527 0.39163 -0.46031 0.474151 0.409731 -0.460746 
0.543637 0.371752 -0.460293 0.684119 0.388954 -0.460123 0.764039 0.391243 -0.46031 
0.843438 0.390592 -0.46062 0.926641 0.390122 -0.462347 -0.960475 0.458026 -0.46091 
-0.832807 0.460744 -0.460257 -0.730324 0.461039 -0.460308 -0.65164 0.46069 -0.460523 
-0.5723 0.46053 -0.460522 -0.479789 0.459893 -0.45979 -0.349045 0.46048 -0.460141 
-0.269364 0.460792 -0.459903 -0.189628 0.460333 -0.460042 -0.109748 0.460263 -0.460409 
-0.0191096 0.460603 -0.458963 0.0703876 0.458535 -0.460204 0.151815 0.460335 -0.460752 
0.239758 0.46004 -0.460148 0.328516 0.460253 -0.4611 0.412216 0.459926 -0.460234 
0.536024 0.460016 -0.461198 0.645029 0.458832 -0.460829 0.724241 0.46029 -0.46038 
0.803796 0.460322 -0.46103 0.882841 0.459943 -0.460231 0.961284 0.460713 -0.459971 
-0.959478 -0.459629 -0.398331 -0.736075 -0.460601 -0.391074 -0.656887 -0.457408 -0.392368 
-0.576542 -0.460492 -0.388753 -0.488895 -0.460381 -0.397481 -0.398615 -0.458946 -0.39424 
-0.304865 -0.459681 -0.397847 -0.208357 -0.46031 -0.393598 -0.122758 -0.460383 -0.390921 
-0.00500879 -0.46052 -0.400264 0.0873113 -0.459448 -0.394585 0.169808 -0.460735 -0.397801 
0.256364 -0.460389 -0.393824 0.345133 -0.460541 -0.385566 0.42338 -0.460842 -0.398745 
0.525083 -0.461013 -0.401886 0.628051 -0.459266 -0.390466 0.707979 -0.458737 -0.391391 
0.78784 -0.43451 -0.393861 0.865787 -0.457753 -0.38903 0.961331 -0.460114 -0.406327 
-0.958237 -0.375649 -0.390585 -0.840376 -0.427091 -0.421941 -0.77616 -0.392649 -0.389845 
-0.695812 -0.385718 -0.391711 -0.526674 -0.3936 -0.376247 -0.448978 -0.38563 -0.388711 
-0.255965 -0.3984 -0.408817 -0.166663 -0.391218 -0.387562 -0.0649698 -0.406891 -0.399767 
0.0346932 -0.389395 -0.423167 0.111115 -0.366426 -0.430505 0.304127 -0.393399 -0.395366 
0.385533 -0.38959 -0.392398 0.473074 -0.400144 -0.397624 0.575408 -0.400595 -0.402404 
[...]
POINT_DATA 1355
FIELD FieldData 7
id 1 1355 int
366 408 584 322 662 206 563 371 419 
523 145 607 585 151 530 365 186 620 
156 70 664 692 632 759 714 370 120 
208 723 59 512 347 211 457 20 256 
338 470 195 678 320 643 534 196 105 
493 581 542 514 234 708 214 305 529 
396 291 444 367 476 155 724 171 314 
136 721 375 250 442 245 95 498 76 
54 200 280 75 623 109 184 446 647 
267 289 373 324 96 62 533 376 589 
722 543 431 576 202 572 683 676 159 
445 83 641 185 331 99 458 14 575 
40 57 239 31 281 298 300 48 680 
521 531 428 254 592 758 361 412 689 
312 252 88 153 397 483 170 704 126 
321 140 700 726 143 142 351 651 528 
433 92 690 382 437 359 154 569 304 
439 339 720 639 177 378 459 310 258 
51 182 6 549 323 121 129 507 423 
495 224 612 590 539 461 166 460 97 
240 537 127 85 544 293 697 634 104 
602 742 161 32 191 384 25 671 74 
278 675 383 71 266 19 22 627 717 
162 348 247 167 125 199 294 586 640 
441 637 596 149 475 463 387 269 130 
8 218 748 420 613 663 16 578 402 
682 421 715 649 299 698 747 261 622 
355 571 411 42 416 227 391 527 557 
346 67 274 319 242 9 73 766 409 
535 89 4 260 318 650 388 311 94 
618 39 582 53 673 729 3 69 496 
363 201 188 599 670 228 519 667 472 
669 660 646 654 43 230 226 306 427 
316 614 764 329 179 389 12 453 440 
197 452 90 551 686 38 587 285 725 
743 181 518 225 761 513 5 559 72 
336 116 78 628 131 679 435 712 276 
516 47 233 325 223 666 157 455 205 
175 287 221 56 751 736 426 611 302 
413 473 741 108 118 653 18 15 552 
82 272 100 87 343 532 490 642 219 
601 465 593 110 684 438 372 767 631 
255 879 275 307 699 636 187 550 80 
357 313 645 556 511 114 757 144 81 
668 58 615 399 616 558 644 341 189 
407 36 462 597 394 565 279 554 29 
334 282 570 424 286 24 447 364 192 
478 566 492 718 169 497 248 33 422 
11 541 395 731 46 106 345 183 86 
60 236 44 112 429 479 540 134 45 
694 326 502 358 352 746 21 629 522 
369 711 137 271 2 524 111 737 102 
381 216 733 147 194 148 580 172 101 
775 443 415 28 738 710 146 474 180 
482 193 374 436 638 450 253 425 93 
928 91 215 505 403 232 520 277 591 
84 133 626 49 288 350 762 546 41 
970 392 231 330 135 574 308 328 703 
432 296 393 284 687 681 400 648 190 
128 709 610 209 35 665 122 503 750 
488 259 480 469 508 26 113 608 123 
222 340 456 251 760 17 292 138 430 
246 98 448 283 404 178 244 132 63 
583 464 891 600 1165 418 417 547 763 
499 553 229 494 385 617 672 467 119 
755 481 727 526 390 210 728 249 545 
217 871 769 354 158 510 7 604 386 
739 466 793 890 500 658 337 1166 846 
567 1184 573 66 787 930 468 781 927 
735 959 103 273 1154 685 933 814 921 
414 784 173 943 504 268 935 831 910 
362 619 903 744 688 652 867 410 768 
973 951 265 749 963 770 1061 1170 360 
828 235 696 779 176 875 1147 207 932 
241 702 290 1091 907 454 812 974 754 
848 914 829 295 952 982 838 870 509 
124 691 792 603 335 317 944 972 732 
379 707 937 491 765 349 904 894 901 
655 79 851 471 734 824 919 786 981 
795 882 356 939 165 855 141 489 577 
30 501 204 674 536 886 486 621 918 
861 895 962 487 1284 800 309 50 605 
568 908 630 434 677 892 52 801 818 
27 301 776 805 990 911 332 164 484 
815 401 548 327 243 198 977 657 954 
922 835 656 888 633 730 827 160 752 
1182 790 150 34 560 783 695 477 538 
220 887 203 10 333 380 876 515 791 
840 860 65 874 77 342 719 107 804 
23 706 965 872 929 994 873 598 884 
822 955 713 237 659 1 13 61 960 
777 398 859 896 869 55 606 1156 971 
856 115 506 909 813 257 821 564 139 
263 850 174 609 912 773 917 37 785 
297 368 625 353 771 772 913 562 405 
845 880 451 949 885 117 525 212 303 
262 213 68 64 661 588 449 152 753 
701 594 984 923 315 579 377 485 961 
878 938 561 270 906 1178 1079 1149 823 
1143 956 1006 986 1141 1159 1123 1035 1093 
1051 1312 809 1066 1152 925 988 1076 825 
1003 849 1049 1133 163 826 844 958 1115 
1112 1173 832 847 1110 1167 1032 1058 1347 
1288 1000 1344 1145 868 999 1125 1160 1028 
1071 1086 865 1186 993 1097 1316 1255 1062 
1162 1099 1022 1036 1015 808 1106 995 1295 
1054 1144 950 1056 1008 1021 1189 1129 857 
1187 406 985 936 964 1103 1188 806 780 
789 1130 1013 1158 1020 1095 1050 1111 1138 
916 992 1174 1105 820 1283 1089 1065 1087 
969 1023 1135 1067 1077 834 1179 978 924 
1183 1048 1119 1082 797 807 1026 980 782 
1052 1018 842 953 1075 967 1016 839 1012 
905 947 1010 987 931 1253 1027 799 1150 
975 1216 836 1037 1122 810 893 926 1081 
1311 794 1033 1078 948 1017 1203 968 1009 
1109 862 1104 819 997 843 837 934 899 
1171 1085 852 915 555 1096 803 1069 1057 
983 1128 1092 841 864 344 1043 798 811 
1148 1055 1126 716 595 1041 1101 998 1180 
1029 1025 774 1163 889 1137 1177 1045 1053 
796 1063 1011 1042 1118 877 1256 976 1131 
853 1060 858 989 1074 966 945 940 1181 
1124 1024 1019 778 740 900 898 830 881 
854 1134 1102 942 1169 168 1287 1070 1136 
1117 897 1001 1059 1161 635 1098 979 1040 
756 1142 817 863 1262 957 883 238 517 
816 788 624 1243 1004 866 1121 1334 1330 
693 1233 1140 1132 1116 1190 1197 1113 1303 
1151 1185 1327 1302 1226 1231 1107 1290 1305 
1211 1306 1193 1279 1217 1249 1267 1031 802 
1247 1266 1210 1073 1275 1034 1335 1215 1276 
1329 1285 1251 1291 1224 1323 1315 1297 1322 
1194 1321 1354 1246 902 1139 1341 1346 1014 
1005 1202 1237 1350 1047 1213 1172 1209 1342 
1352 1304 1201 1325 1223 1263 1292 1228 833 
1348 1205 1317 1270 1331 1326 1083 1235 1343 
1108 1308 1319 1088 1274 1258 1176 1084 1114 
1242 1296 1301 1220 1294 1039 1044 1273 1349 
1046 1236 1265 1259 1100 1234 1260 1345 1164 
1272 1127 1153 1282 1198 1080 1269 1278 1241 
1309 946 1293 1204 1289 1168 1271 1207 1324 
1007 1072 1175 1280 1094 1300 1248 1191 1245 
1222 1155 1038 1281 1320 1328 1002 1351 991 
1261 1232 1229 1230 1200 1195 1310 1355 1090 
1264 1225 1277 1244 1318 1212 1257 1068 264 
1353 1146 1157 996 1206 1030 1336 1239 1254 
1307 1208 1313 1064 1120 1340 1337 941 1252 
1250 1299 1238 745 1339 1221 1199 1192 1219 
1214 1286 1227 1333 1218 1268 1240 1196 1298 
1314 1338 1332 920 705 
type 1 1355 int
1 1 1 1 1 1 1 1 1 
1 1 1 1 1 1 1 1 1 
1 1 1 1 1 1 1 1 1 
1 1 1 1 1 1 1 1 1 
1 1 1 1 1 1 1 1 1 
1 1 1 1 1 1 1 1 1 
1 1 1 1 1 1 1 1 1 
1 1 1 1 1 1 1 1 1 
1 1 1 1 1 1 1 1 1 
1 1 1 1 1 1 1 1 1 
1 1 1 1 1 1 1 1 1 
1 1 1 1 1 1 1 1 1 
1 1 1 1 1 1 1 1 1 
1 1 1 1 1 1 1 1 1 
1 1 1 1 1 1 1 1 1 
1 1 1 1 1 1 1 1 1 
1 1 1 1 1 1 1 1 1 
1 1 1 1 1 1 1 1 1 
1 1 1 1 1 1 1 1 1 
1 1 1 1 1 1 1 1 1 
1 1 1 1 1 1 1 1 1 
1 1 1 1 1 1 1 1 1 
1 1 1 1 1 1 1 1 1 
1 1 1 1 1 1 1 1 1 
1 1 1 1 1 1 1 1 1 
1 1 1 1 1 1 1 1 1 
1 1 1 1 1 1 1 1 1 
1 1 1 1 1 1 1 1 1 
1 1 1 1 1 1 1 1 1 
1 1 1 1 1 1 1 1 1 
1 1 1 1 1 1 1 1 1 
1 1 1 1 1 1 1 1 1 
1 1 1 1 1 1 1 1 1 
1 1 1 1 1 1 1 1 1 
1 1 1 1 1 1 1 1 1 
1 1 1 1 1 1 1 1 1 
1 1 1 1 1 1 1 1 1 
1 1 1 1 1 1 1 1 1 
1 1 1 1 1 1 1 1 1 
1 1 1 1 1 1 1 1 1 
1 1 1 1 1 1 1 1 1 
1 1 1 1 1 1 1 1 1 
1 1 1 1 1 1 1 1 1 
1 1 1 1 1 1 1 1 1 
1 1 1 1 1 1 1 1 1 
1 1 1 1 1 1 1 1 1 
1 1 1 1 1 1 1 1 1 
1 1 1 1 1 1 1 1 1 
1 1 1 1 1 1 1 1 1 
1 1 1 1 1 1 1 1 1 
1 1 1 1 1 1 1 1 1 
1 1 1 1 1 1 1 1 1 
1 1 1 1 1 1 1 1 1 
1 1 1 1 1 1 1 1 1 
1 1 1 1 1 1 1 1 1 
1 1 1 1 1 1 1 1 1 
1 1 1 1 1 1 1 1 1 
1 1 1 1 1 1 1 1 1 
1 1 1 1 1 1 1 1 1 
1 1 1 1 1 1 1 1 1 
1 1 1 1 1 1 1 1 1 
1 1 1 1 1 1 1 1 1 
1 1 1 1 1 1 1 1 1 
1 1 1 1 1 1 1 1 1 
1 1 1 1 1 1 1 1 1 
1 1 1 1 1 1 1 1 1 
1 1 1 1 1 1 1 1 1 
1 1 1 1 1 1 1 1 1 
1 1 1 1 1 1 1 1 1 
1 1 1 1 1 1 1 1 1 
1 1 1 1 1 1 1 1 1 
1 1 1 1 1 1 1 1 1 
1 1 1 1 1 1 1 1 1 
1 1 1 1 1 1 1 1 1 
1 1 1 1 1 1 1 1 1 
1 1 1 1 1 1 1 1 1 
1 1 1 1 1 1 1 1 1 
1 1 1 1 1 1 1 1 1 
1 1 1 1 1 1 1 1 1 
1 1 1 1 1 1 1 1 1 
1 1 1 1 1 1 1 1 1 
1 1 1 1 1 1 1 1 1 
1 1 1 1 1 1 1 1 1 
1 1 1 1 1 1 1 1 1 
1 1 1 1 1 1 1 1 1 
1 1 1 1 1 1 1 1 1 
1 1 1 1 1 1 1 1 1 
1 1 1 1 1 1 1 1 1 
1 1 1 1 1 1 1 1 1 
1 1 1 1 1 1 1 1 1 
1 1 1 1 1 1 1 1 1 
1 1 1 1 1 1 1 1 1 
1 1 1 1 1 1 1 1 1 
1 1 1 1 1 1 1 1 1 
1 1 1 1 1 1 1 1 1 
1 1 1 1 1 1 1 1 1 
1 1 1 1 1 1 1 1 1 
1 1 1 1 1 1 1 1 1 
1 1 1 1 1 1 1 1 1 
1 1 1 1 1 1 1 1 1 
1 1 1 1 1 1 1 1 1 
1 1 1 1 1 1 1 1 1 
1 1 1 1 1 1 1 1 1 
1 1 1 1 1 1 1 1 1 
1 1 1 1 1 1 1 1 1 
1 1 1 1 1 1 1 1 1 
1 1 1 1 1 1 1 1 1 
1 1 1 1 1 1 1 1 1 
1 1 1 1 1 1 1 1 1 
1 1 1 1 1 1 1 1 1 
1 1 1 1 1 1 1 1 1 
1 1 1 1 1 1 1 1 1 
1 1 1 1 1 1 1 1 1 
1 1 1 1 1 1 1 1 1 
1 1 1 1 1 1 1 1 1 
1 1 1 1 1 1 1 1 1 
1 1 1 1 1 1 1 1 1 
1 1 1 1 1 1 1 1 1 
1 1 1 1 1 1 1 1 1 
1 1 1 1 1 1 1 1 1 
1 1 1 1 1 1 1 1 1 
1 1 1 1 1 1 1 1 1 
1 1 1 1 1 1 1 1 1 
1 1 1 1 1 1 1 1 1 
1 1 1 1 1 1 1 1 1 
1 1 1 1 1 1 1 1 1 
1 1 1 1 1 1 1 1 1 
1 1 1 1 1 1 1 1 1 
1 1 1 1 1 1 1 1 1 
1 1 1 1 1 1 1 1 1 
1 1 1 1 1 1 1 1 1 
1 1 1 1 1 1 1 1 1 
1 1 1 1 1 1 1 1 1 
1 1 1 1 1 1 1 1 1 
1 1 1 1 1 1 1 1 1 
1 1 1 1 1 1 1 1 1 
1 1 1 1 1 1 1 1 1 
1 1 1 1 1 1 1 1 1 
1 1 1 1 1 1 1 1 1 
1 1 1 1 1 1 1 1 1 
1 1 1 1 1 1 1 1 1 
1 1 1 1 1 1 1 1 1 
1 1 1 1 1 1 1 1 1 
1 1 1 1 1 1 1 1 1 
1 1 1 1 1 1 1 1 1 
1 1 1 1 1 1 1 1 1 
1 1 1 1 1 1 1 1 1 
1 1 1 1 1 1 1 1 1 
1 1 1 1 1 1 1 1 1 
1 1 1 1 1 1 1 1 1 
1 1 1 1 1 
i 3 1355 int
0 0 0 0 0 0 0 0 0 
0 0 0 0 0 0 0 0 0 
0 0 0 0 0 0 0 0 0 
0 0 0 0 0 0 0 0 0 
0 0 0 0 0 0 0 0 0 
0 0 0 0 0 0 0 0 0 
0 0 0 0 0 0 0 0 0 
0 0 0 0 0 0 0 0 0 
0 0 0 0 0 0 0 0 0 
0 0 0 0 0 0 0 0 0 
0 0 0 0 0 0 0 0 0 
0 0 0 0 0 0 0 0 0 
0 0 0 0 0 0 0 0 0 
0 0 0 0 0 0 0 0 0 
0 0 0 0 0 0 0 0 0 
0 0 0 0 0 0 0 0 0 
0 0 0 0 0 0 0 0 0 
0 0 0 0 0 0 0 0 0 
0 0 0 0 0 0 0 0 0 
0 0 0 0 0 0 0 0 0 
0 0 0 0 0 0 0 0 0 
0 0 0 0 0 0 0 0 0 
0 0 0 0 0 0 0 0 0 
0 0 0 0 0 0 0 0 0 
0 0 0 0 0 0 0 0 0 
0 0 0 0 0 0 0 0 0 
0 0 0 0 0 0 0 0 0 
0 0 0 0 0 0 0 0 0 
0 0 0 0 0 0 0 0 0 
0 0 0 0 0 0 0 0 0 
0 0 0 0 0 0 0 0 0 
0 0 0 0 0 0 0 0 0 
0 0 0 0 0 0 0 0 0 
0 0 0 0 0 0 0 0 0 
0 0 0 0 0 0 0 0 0 
0 0 0 0 0 0 0 0 0 
0 0 0 0 0 0 0 0 0 
0 0 0 0 0 0 0 0 0 
0 0 0 0 0 0 0 0 0 
0 0 0 0 0 0 0 0 0 
0 0 0 0 0 0 0 0 0 
0 0 0 0 0 0 0 0 0 
0 0 0 0 0 0 0 0 0 
0 0 0 0 0 0 0 0 0 
0 0 0 0 0 0 0 0 0 
0 0 0 0 0 0 0 0 0 
0 0 0 0 0 0 0 0 0 
0 0 0 0 0 0 0 0 0 
0 0 0 0 0 0 0 0 0 
0 0 0 0 0 0 0 0 0 
0 0 0 0 0 0 0 0 0 
0 0 0 0 0 0 0 0 0 
0 0 0 0 0 0 0 0 0 
0 0 0 0 0 0 0 0 0 
0 0 0 0 0 0 0 0 0 
0 0 0 0 0 0 0 0 0 
0 0 0 0 0 0 0 0 0 
0 0 0 0 0 0 0 0 0 
0 0 0 0 0 0 0 0 0 
0 0 0 0 0 0 0 0 0 
0 0 0 0 0 0 0 0 0 
0 0 0 0 0 0 0 0 0 
0 0 0 0 0 0 0 0 0 
0 0 0 0 0 0 0 0 0 
0 0 0 0 0 0 0 0 0 
0 0 0 0 0 0 0 0 0 
0 0 0 0 0 0 0 0 0 
0 0 0 0 0 0 0 0 0 
0 0 0 0 0 0 0 0 0 
0 0 0 0 0 0 0 0 0 
0 0 0 0 0 0 0 0 0 
0 0 0 0 0 0 0 0 0 
0 0 0 0 0 0 0 0 0 
0 0 0 0 0 0 0 0 0 
0 0 0 0 0 0 0 0 0 
0 0 0 0 0 0 0 0 0 
0 0 0 0 0 0 0 0 0 
0 0 0 0 0 0 0 0 0 
0 0 0 0 0 0 0 0 0 
0 0 0 0 0 0 0 0 0 
0 0 0 0 0 0 0 0 0 
0 0 0 0 0 0 0 0 0 
0 0 0 0 0 0 0 0 0 
0 0 0 0 0 0 0 0 0 
0 0 0 0 0 0 0 0 0 
0 0 0 0 0 0 0 0 0 
0 0 0 0 0 0 0 0 0 
0 0 0 0 0 0 0 0 0 
0 0 0 0 0 0 0 0 0 
0 0 0 0 0 0 0 0 0 
0 0 0 0 0 0 0 0 0 
0 0 0 0 0 0 0 0 0 
0 0 0 0 0 0 0 0 0 
0 0 0 0 0 0 0 0 0 
0 0 0 0 0 0 0 0 0 
0 0 0 0 0 0 0 0 0 
0 0 0 0 0 0 0 0 0 
0 0 0 0 0 0 0 0 0 
0 0 0 0 0 0 0 0 0 
0 0 0 0 0 0 0 0 0 
0 0 0 0 0 0 0 0 0 
0 0 0 0 0 0 0 0 0 
0 0 0 0 0 0 0 0 0 
0 0 0 0 0 0 0 0 0 
0 0 0 0 0 0 0 0 0 
0 0 0 0 0 0 0 0 0 
0 0 0 0 0 0 0 0 0 
0 0 0 0 0 0 0 0 0 
0 0 0 0 0 0 0 0 0 
0 0 0 0 0 0 0 0 0 
0 0 0 0 0 0 0 0 0 
0 0 0 0 0 0 0 0 0 
0 0 0 0 0 0 0 0 0 
0 0 0 0 0 0 0 0 0 
0 0 0 0 0 0 0 0 0 
0 0 0 0 0 0 0 0 0 
0 0 0 0 0 0 0 0 0 
0 0 0 0 0 0 0 0 0 
0 0 0 0 0 0 0 0 0 
0 0 0 0 0 0 0 0 0 
0 0 0 0 0 0 0 0 0 
0 0 0 0 0 0 0 0 0 
0 0 0 0 0 0 0 0 0 
0 0 0 0 0 0 0 0 0 
0 0 0 0 0 0 0 0 0 
0 0 0 0 0 0 0 0 0 
0 0 0 0 0 0 0 0 0 
0 0 0 0 0 0 0 0 0 
0 0 0 0 0 0 0 0 0 
0 0 0 0 0 0 0 0 0 
0 0 0 0 0 0 0 0 0 
0 0 0 0 0 0 0 0 0 
0 0 0 0 0 0 0 0 0 
0 0 0 0 0 0 0 0 0 
0 0 0 0 0 0 0 0 0 
0 0 0 0 0 0 0 0 0 
0 0 0 0 0 0 0 0 0 
0 0 0 0 0 0 0 0 0 
0 0 0 0 0 0 0 0 0 
0 0 0 0 0 0 0 0 0 
0 0 0 0 0 0 0 0 0 
0 0 0 0 0 0 0 0 0 
0 0 0 0 0 0 0 0 0 
0 0 0 0 0 0 0 0 0 
0 0 0 0 0 0 0 0 0 
0 0 0 0 0 0 0 0 0 
0 0 0 0 0 0 0 0 0 
0 0 0 0 0 0 0 0 0 
0 0 0 0 0 0 0 0 0 
0 0 0 0 0 0 0 0 0 
0 0 0 0 0 0 0 0 0 
0 0 0 0 0 0 0 0 0 
0 0 0 0 0 0 0 0 0 
0 0 0 0 0 0 0 0 0 
0 0 0 0 0 0 0 0 0 
0 0 0 0 0 0 0 0 0 
0 0 0 0 0 0 0 0 0 
0 0 0 0 0 0 0 0 0 
0 0 0 0 0 0 0 0 0 
0 0 0 0 0 0 0 0 0 
0 0 0 0 0 0 0 0 0 
0 0 0 0 0 0 0 0 0 
0 0 0 0 0 0 0 0 0 
0 0 0 0 0 0 0 0 0 
0 0 0 0 0 0 0 0 0 
0 0 0 0 0 0 0 0 0 
0 0 0 0 0 0 0 0 0 
0 0 0 0 0 0 0 0 0 
0 0 0 0 0 0 0 0 0 
0 0 0 0 0 0 0 0 0 
0 0 0 0 0 0 0 0 0 
0 0 0 0 0 0 0 0 0 
0 0 0 0 0 0 0 0 0 
0 0 0 0 0 0 0 0 0 
0 0 0 0 0 0 0 0 0 
0 0 0 0 0 0 0 0 0 
0 0 0 0 0 0 0 0 0 
0 0 0 0 0 0 0 0 0 
0 0 0 0 0 0 0 0 0 
0 0 0 0 0 0 0 0 0 
0 0 0 0 0 0 0 0 0 
0 0 0 0 0 0 0 0 0 
0 0 0 0 0 0 0 0 0 
0 0 0 0 0 0 0 0 0 
0 0 0 0 0 0 0 0 0 
0 0 0 0 0 0 0 0 0 
0 0 0 0 0 0 0 0 0 
0 0 0 0 0 0 0 0 0 
0 0 0 0 0 0 0 0 0 
0 0 0 0 0 0 0 0 0 
0 0 0 0 0 0 0 0 0 
0 0 0 0 0 0 0 0 0 
0 0 0 0 0 0 0 0 0 
0 0 0 0 0 0 0 0 0 
0 0 0 0 0 0 0 0 0 
0 0 0 0 0 0 0 0 0 
0 0 0 0 0 0 0 0 0 
0 0 0 0 0 0 0 0 0 
0 0 0 0 0 0 0 0 0 
0 0 0 0 0 0 0 0 0 
0 0 0 0 0 0 0 0 0 
0 0 0 0 0 0 0 0 0 
0 0 0 0 0 0 0 0 0 
0 0 0 0 0 0 0 0 0 
0 0 0 0 0 0 0 0 0 
0 0 0 0 0 0 0 0 0 
0 0 0 0 0 0 0 0 0 
0 0 0 0 0 0 0 0 0 
0 0 0 0 0 0 0 0 0 
0 0 0 0 0 0 0 0 0 
0 0 0 0 0 0 0 0 0 
0 0 0 0 0 0 0 0 0 
0 0 0 0 0 0 0 0 0 
0 0 0 0 0 0 0 0 0 
0 0 0 0 0 0 0 0 0 
0 0 0 0 0 0 0 0 0 
0 0 0 0 0 0 0 0 0 
0 0 0 0 0 0 0 0 0 
0 0 0 0 0 0 0 0 0 
0 0 0 0 0 0 0 0 0 
0 0 0 0 0 0 0 0 0 
0 0 0 0 0 0 0 0 0 
0 0 0 0 0 0 0 0 0 
0 0 0 0 0 0 0 0 0 
0 0 0 0 0 0 0 0 0 
0 0 0 0 0 0 0 0 0 
0 0 0 0 0 0 0 0 0 
0 0 0 0 0 0 0 0 0 
0 0 0 0 0 0 0 0 0 
0 0 0 0 0 0 0 0 0 
0 0 0 0 0 0 0 0 0 
0 0 0 0 0 0 0 0 0 
0 0 0 0 0 0 0 0 0 
0 0 0 0 0 0 0 0 0 
0 0 0 0 0 0 0 0 0 
0 0 0 0 0 0 0 0 0 
0 0 0 0 0 0 0 0 0 
0 0 0 0 0 0 0 0 0 
0 0 0 0 0 0 0 0 0 
0 0 0 0 0 0 0 0 0 
0 0 0 0 0 0 0 0 0 
0 0 0 0 0 0 0 0 0 
0 0 0 0 0 0 0 0 0 
0 0 0 0 0 0 0 0 0 
0 0 0 0 0 0 0 0 0 
0 0 0 0 0 0 0 0 0 
0 0 0 0 0 0 0 0 0 
0 0 0 0 0 0 0 0 0 
0 0 0 0 0 0 0 0 0 
0 0 0 0 0 0 0 0 0 
0 0 0 0 0 0 0 0 0 
0 0 0 0 0 0 0 0 0 
0 0 0 0 0 0 0 0 0 
0 0 0 0 0 0 0 0 0 
0 0 0 0 0 0 0 0 0 
0 0 0 0 0 0 0 0 0 
0 0 0 0 0 0 0 0 0 
0 0 0 0 0 0 0 0 0 
0 0 0 0 0 0 0 0 0 
0 0 0 0 0 0 0 0 0 
0 0 0 0 0 0 0 0 0 
0 0 0 0 0 0 0 0 0 
0 0 0 0 0 0 0 0 0 
0 0 0 0 0 0 0 0 0 
0 0 0 0 0 0 0 0 0 
0 0 0 0 0 0 0 0 0 
0 0 0 0 0 0 0 0 0 
0 0 0 0 0 0 0 0 0 
0 0 0 0 0 0 0 0 0 
0 0 0 0 0 0 0 0 0 
0 0 0 0 0 0 0 0 0 
0 0 0 0 0 0 0 0 0 
0 0 0 0 0 0 0 0 0 
0 0 0 0 0 0 0 0 0 
0 0 0 0 0 0 0 0 0 
0 0 0 0 0 0 0 0 0 
0 0 0 0 0 0 0 0 0 
0 0 0 0 0 0 0 0 0 
0 0 0 0 0 0 0 0 0 
0 0 0 0 0 0 0 0 0 
0 0 0 0 0 0 0 0 0 
0 0 0 0 0 0 0 0 0 
0 0 0 0 0 0 0 0 0 
0 0 0 0 0 0 0 0 0 
0 0 0 0 0 0 0 0 0 
0 0 0 0 0 0 0 0 0 
0 0 0 0 0 0 0 0 0 
0 0 0 0 0 0 0 0 0 
0 0 0 0 0 0 0 0 0 
0 0 0 0 0 0 0 0 0 
0 0 0 0 0 0 0 0 0 
0 0 0 0 0 0 0 0 0 
0 0 0 0 0 0 0 0 0 
0 0 0 0 0 0 0 0 0 
0 0 0 0 0 0 0 0 0 
0 0 0 0 0 0 0 0 0 
0 0 0 0 0 0 0 0 0 
0 0 0 0 0 0 0 0 0 
0 0 0 0 0 0 0 0 0 
0 0 0 0 0 0 0 0 0 
0 0 0 0 0 0 0 0 0 
0 0 0 0 0 0 0 0 0 
0 0 0 0 0 0 0 0 0 
0 0 0 0 0 0 0 0 0 
0 0 0 0 0 0 0 0 0 
0 0 0 0 0 0 0 0 0 
0 0 0 0 0 0 0 0 0 
0 0 0 0 0 0 0 0 0 
0 0 0 0 0 0 0 0 0 
0 0 0 0 0 0 0 0 0 
0 0 0 0 0 0 0 0 0 
0 0 0 0 0 0 0 0 0 
0 0 0 0 0 0 0 0 0 
0 0 0 0 0 0 0 0 0 
0 0 0 0 0 0 0 0 0 
0 0 0 0 0 0 0 0 0 
0 0 0 0 0 0 0 0 0 
0 0 0 0 0 0 0 0 0 
0 0 0 0 0 0 0 0 0 
0 0 0 0 0 0 0 0 0 
0 0 0 0 0 0 0 0 0 
0 0 0 0 0 0 0 0 0 
0 0 0 0 0 0 0 0 0 
0 0 0 0 0 0 0 0 0 
0 0 0 0 0 0 0 0 0 
0 0 0 0 0 0 0 0 0 
0 0 0 0 0 0 0 0 0 
0 0 0 0 0 0 0 0 0 
0 0 0 0 0 0 0 0 0 
0 0 0 0 0 0 0 0 0 
0 0 0 0 0 0 0 0 0 
0 0 0 0 0 0 0 0 0 
0 0 0 0 0 0 0 0 0 
0 0 0 0 0 0 0 0 0 
0 0 0 0 0 0 0 0 0 
0 0 0 0 0 0 0 0 0 
0 0 0 0 0 0 0 0 0 
0 0 0 0 0 0 0 0 0 
0 0 0 0 0 0 0 0 0 
0 0 0 0 0 0 0 0 0 
0 0 0 0 0 0 0 0 0 
0 0 0 0 0 0 0 0 0 
0 0 0 0 0 0 0 0 0 
0 0 0 0 0 0 0 0 0 
0 0 0 0 0 0 0 0 0 
0 0 0 0 0 0 0 0 0 
0 0 0 0 0 0 0 0 0 
0 0 0 0 0 0 0 0 0 
0 0 0 0 0 0 0 0 0 
0 0 0 0 0 0 0 0 0 
0 0 0 0 0 0 0 0 0 
0 0 0 0 0 0 0 0 0 
0 0 0 0 0 0 0 0 0 
0 0 0 0 0 0 0 0 0 
0 0 0 0 0 0 0 0 0 
0 0 0 0 0 0 0 0 0 
0 0 0 0 0 0 0 0 0 
0 0 0 0 0 0 0 0 0 
0 0 0 0 0 0 0 0 0 
0 0 0 0 0 0 0 0 0 
0 0 0 0 0 0 0 0 0 
0 0 0 0 0 0 0 0 0 
0 0 0 0 0 0 0 0 0 
0 0 0 0 0 0 0 0 0 
0 0 0 0 0 0 0 0 0 
0 0 0 0 0 0 0 0 0 
0 0 0 0 0 0 0 0 0 
0 0 0 0 0 0 0 0 0 
0 0 0 0 0 0 0 0 0 
0 0 0 0 0 0 0 0 0 
0 0 0 0 0 0 0 0 0 
0 0 0 0 0 0 0 0 0 
0 0 0 0 0 0 0 0 0 
0 0 0 0 0 0 0 0 0 
0 0 0 0 0 0 0 0 0 
0 0 0 0 0 0 0 0 0 
0 0 0 0 0 0 0 0 0 
0 0 0 0 0 0 0 0 0 
0 0 0 0 0 0 0 0 0 
0 0 0 0 0 0 0 0 0 
0 0 0 0 0 0 0 0 0 
0 0 0 0 0 0 0 0 0 
0 0 0 0 0 0 0 0 0 
0 0 0 0 0 0 0 0 0 
0 0 0 0 0 0 0 0 0 
0 0 0 0 0 0 0 0 0 
0 0 0 0 0 0 0 0 0 
0 0 0 0 0 0 0 0 0 
0 0 0 0 0 0 0 0 0 
0 0 0 0 0 0 0 0 0 
0 0 0 0 0 0 0 0 0 
0 0 0 0 0 0 0 0 0 
0 0 0 0 0 0 0 0 0 
0 0 0 0 0 0 0 0 0 
0 0 0 0 0 0 0 0 0 
0 0 0 0 0 0 0 0 0 
0 0 0 0 0 0 0 0 0 
0 0 0 0 0 0 0 0 0 
0 0 0 0 0 0 0 0 0 
0 0 0 0 0 0 0 0 0 
0 0 0 0 0 0 0 0 0 
0 0 0 0 0 0 0 0 0 
0 0 0 0 0 0 0 0 0 
0 0 0 0 0 0 0 0 0 
0 0 0 0 0 0 0 0 0 
0 0 0 0 0 0 0 0 0 
0 0 0 0 0 0 0 0 0 
0 0 0 0 0 0 0 0 0 
0 0 0 0 0 0 0 0 0 
0 0 0 0 0 0 0 0 0 
0 0 0 0 0 0 0 0 0 
0 0 0 0 0 0 0 0 0 
0 0 0 0 0 0 0 0 0 
0 0 0 0 0 0 0 0 0 
0 0 0 0 0 0 0 0 0 
0 0 0 0 0 0 0 0 0 
0 0 0 0 0 0 0 0 0 
0 0 0 0 0 0 0 0 0 
0 0 0 0 0 0 0 0 0 
0 0 0 0 0 0 0 0 0 
0 0 0 0 0 0 0 0 0 
0 0 0 0 0 0 0 0 0 
0 0 0 0 0 0 0 0 0 
0 0 0 0 0 0 0 0 0 
0 0 0 0 0 0 0 0 0 
0 0 0 0 0 0 0 0 0 
0 0 0 0 0 0 0 0 0 
0 0 0 0 0 0 0 0 0 
0 0 0 0 0 0 0 0 0 
0 0 0 0 0 0 0 0 0 
0 0 0 0 0 0 0 0 0 
0 0 0 0 0 0 0 0 0 
0 0 0 0 0 0 0 0 0 
0 0 0 0 0 0 0 0 0 
0 0 0 0 0 0 0 0 0 
0 0 0 0 0 0 0 0 0 
0 0 0 0 0 0 0 0 0 
0 0 0 0 0 0 0 0 0 
0 0 0 0 0 0 0 0 0 
0 0 0 0 0 0 0 0 0 
0 0 0 0 0 0 0 0 0 
0 0 0 0 0 0 0 0 0 
0 0 0 0 0 0 0 0 0 
0 0 0 0 0 0 0 0 0 
0 0 0 0 0 0 0 0 0 
0 0 0 0 0 0 0 0 0 
0 0 0 0 0 0 0 0 0 
0 0 0 0 0 0 0 0 0 
0 0 0 0 0 0 0 0 0 
0 0 0 0 0 0 0 0 0 
0 0 0 0 0 0 0 0 0 
0 0 0 0 0 0 
v 3 1355 double
-0.042824 -0.0426344 -0.00722872 0.126437 -0.0402028 -0.0161812 0.0399007 -0.11568 -0.0819494 
0.146813 -0.0179075 0.0173268 0.0401779 0.0722241 -0.0597696 -0.134312 -0.0297621 0.0689222 
-0.0891109 0.0413334 0.0390848 -0.0461745 -0.0109194 0.0347557 0.0290283 0.00527264 0.049719 
-0.149157 -0.00817109 0.00113337 0.0779416 0.0554739 0.0919549 -0.0441815 0.0104525 -0.0494675 
0.00984818 0.0299579 -0.0428744 0.0516634 0.0624422 0.0866025 0.0484665 0.00663169 0.127745 
0.108892 0.00702642 0.0359022 -0.0101047 0.00695392 -0.0656678 -0.00230316 -0.0223065 0.14621 
0.0305512 -0.00138014 -0.018002 -0.0208917 -0.000647652 -0.0159327 -0.102025 0.0197545 -0.214793 
-0.0319201 -0.0776983 0.0456121 -0.00507954 -0.178026 -0.0214055 -0.123397 -0.0637212 -0.0354471 
-0.0364173 -0.0940906 0.0393785 0.0838186 0.0806763 -0.0132176 0.00854693 0.135021 -0.0280335 
0.10793 -0.113881 -0.0351149 -0.195374 -0.0231211 -0.00991683 0.0396064 -0.264858 0.0567919 
-0.108059 0.00255726 0.0330895 -0.0752122 -0.0361409 -0.0494854 -0.0476489 0.0600654 -0.228613 
-0.0310569 0.0834335 0.00394208 -0.00440247 0.032146 -0.110188 0.121517 0.0558059 0.0129346 
-0.0306483 0.13509 -0.0247975 0.093286 -0.152277 0.101047 0.0822258 0.0393031 0.00376081 
0.107666 0.0610275 0.2724 -0.0417913 0.0245314 0.106991 -0.0225473 0.010097 0.111282 
0.0884996 0.0636937 0.0400507 -0.0406358 0.161366 0.0244228 -0.0454849 0.0947653 0.00467551 
-0.208977 0.164903 -0.0602608 -0.199962 0.0757425 0.0346753 -0.00485362 -0.0890251 0.00173794 
-0.0304736 -0.194529 0.0988537 -0.0401007 0.0623226 0.0975428 -0.16825 0.0865427 0.0161045 
0.0047388 0.0739172 -0.0440313 -0.030041 0.0475547 0.0324896 0.104021 -0.0598071 -0.0834195 
0.239116 0.26717 0.0269356 0.0279638 -0.0797286 0.0245965 0.11662 -0.083369 -0.0786885 
0.0680118 0.0869695 -0.0275 0.0912846 0.00643801 -0.00529648 0.123354 0.0153244 -0.00843797 
0.104924 -0.0484415 -0.0272415 -0.194685 -0.257775 0.0370756 -0.0782675 0.159409 -0.0438307 
-0.143061 0.0945383 0.0326617 0.188762 0.022934 -0.405771 0.233945 -0.0514274 -0.0253085 
0.12319 0.0582403 -0.0327371 0.0812375 -0.164299 0.000418198 0.0595126 -0.23536 -0.0123776 
-0.098204 -0.0336464 0.0388066 -0.196842 0.158391 -0.0924778 -0.0854767 0.135204 0.0141402 
-0.0566608 0.0712031 -0.0805763 0.101595 0.0871583 -0.0170538 0.0947111 0.0859817 -0.0402409 
0.0361229 0.058732 -0.00857296 -0.00695681 -0.0356153 0.106185 0.120529 -0.0518339 -0.145737 
0.112475 0.0310689 -0.0887054 0.166089 0.0419269 -0.00796107 0.0623035 -0.00564358 0.000123946 
0.193998 -0.0959989 -0.0130213 -0.00902512 0.203052 0.108493 -0.0165753 0.0837672 0.0353175 