# vtk DataFile Version 4.0
Generated by LIGGGHTS
ASCII
DATASET POLYDATA
POINTS 1355 float
-0.89692 -0.452026 -0.45613 -0.765716 -0.456733 -0.453583 -0.678298 -0.460791 -0.453757 
-0.600326 -0.457685 -0.46058 -0.522953 -0.46081 -0.45981 -0.421972 -0.461194 -0.461357 
-0.342013 -0.452754 -0.452435 -0.262723 -0.448532 -0.457973 -0.145861 -0.447997 -0.460502 
-0.0475144 -0.458568 -0.458779 0.0747326 -0.460899 -0.458991 0.183286 -0.456413 -0.460389 
0.267152 -0.444216 -0.452215 0.351409 -0.460876 -0.461943 0.457253 -0.460573 -0.457878 
0.560948 -0.460046 -0.457782 0.646634 -0.460393 -0.459178 0.752562 -0.461577 -0.459119 
0.834618 -0.461784 -0.455471 -0.958898 -0.39539 -0.461844 -0.83755 -0.405859 -0.437924 
-0.726215 -0.387054 -0.46156 -0.648073 -0.386444 -0.45719 -0.471567 -0.40126 -0.459491 
-0.390811 -0.388727 -0.459817 -0.311708 -0.367992 -0.461461 -0.171877 -0.373176 -0.453742 
-0.0749542 -0.383038 -0.460613 0.0234558 -0.400496 -0.460845 0.127515 -0.403368 -0.453514 
0.338577 -0.382895 -0.456267 0.417379 -0.391509 -0.459909 0.507552 -0.400555 -0.45973 
0.60072 -0.3911 -0.452027 0.689925 -0.391699 -0.457434 0.768731 -0.383734 -0.460197 
0.847265 -0.385752 -0.460952 0.913819 -0.434293 -0.458605 -0.96081 -0.309314 -0.459386 
-0.890448 -0.351978 -0.458467 -0.793575 -0.344974 -0.4618 -0.529686 -0.339602 -0.462287 
-0.448815 -0.327597 -0.461399 -0.370058 -0.310127 -0.460564 -0.0862526 -0.30287 -0.459414 
-0.00993166 -0.319723 -0.460495 0.0770517 -0.340795 -0.461166 0.177116 -0.34323 -0.460176 
0.261498 -0.362761 -0.46047 0.316169 -0.306466 -0.456109 0.397421 -0.312255 -0.461292 
0.469474 -0.333511 -0.437686 0.553514 -0.328271 -0.45929 0.649085 -0.318456 -0.461206 
0.72815 -0.316106 -0.460216 0.80809 -0.317549 -0.44288 0.889312 -0.317045 -0.455599 
0.952812 -0.361987 -0.45999 -0.895582 -0.264391 -0.457442 -0.81677 -0.24997 -0.462815 
-0.732719 -0.27966 -0.454658 -0.649831 -0.291302 -0.45849 -0.537128 -0.23386 -0.455543 
-0.45023 -0.248506 -0.456139 -0.289835 -0.291715 -0.460829 -0.194816 -0.297113 -0.460025 
0.0520634 -0.262416 -0.460168 0.137773 -0.273615 -0.459007 0.236939 -0.286809 -0.459522 
0.47796 -0.256263 -0.461768 0.557865 -0.249176 -0.460425 0.636558 -0.238621 -0.45849 
0.750444 -0.241845 -0.460914 0.830021 -0.242874 -0.46179 0.962443 -0.280752 -0.458988 
-0.940523 -0.199451 -0.456729 -0.859561 -0.180226 -0.460221 -0.759719 -0.192579 -0.462677 
-0.618962 -0.196674 -0.461317 -0.42814 -0.16617 -0.460551 -0.374459 -0.227582 -0.460079 
-0.297121 -0.216057 -0.436697 -0.218847 -0.210116 -0.459603 -0.138933 -0.233437 -0.460123 
-0.0322974 -0.227303 -0.461834 0.11142 -0.186361 -0.460846 0.195107 -0.218382 -0.460081 
0.294109 -0.230825 -0.460159 0.385092 -0.227784 -0.460092 0.48639 -0.173308 -0.461261 
0.563829 -0.169803 -0.436029 0.715053 -0.170039 -0.461296 0.907416 -0.225742 -0.461942 
0.960095 -0.1701 -0.444787 -0.958675 -0.120793 -0.455927 -0.798838 -0.117324 -0.46118 
-0.692222 -0.153424 -0.462245 -0.601129 -0.121567 -0.460847 -0.520353 -0.113726 -0.459346 
-0.348978 -0.150786 -0.456619 -0.269218 -0.145129 -0.462548 -0.16481 -0.150471 -0.46055 
-0.0869376 -0.124653 -0.459499 0.0351256 -0.164417 -0.457805 0.129509 -0.110963 -0.457961 
0.252569 -0.161545 -0.46163 0.332736 -0.154032 -0.460215 0.410708 -0.148215 -0.459464 
0.598054 -0.100401 -0.461884 0.763245 -0.104629 -0.458678 0.813184 -0.165547 -0.458861 
0.887441 -0.138805 -0.459564 -0.879238 -0.0929334 -0.460859 -0.815508 -0.0351621 -0.461036 
-0.736685 -0.046662 -0.460476 -0.664177 -0.0672571 -0.460612 -0.562772 -0.0383931 -0.462833 
-0.472647 -0.0364469 -0.457735 -0.408263 -0.0874446 -0.458534 -0.3291 -0.0731561 -0.461187 
-0.212872 -0.0874157 -0.460242 -0.139247 -0.061199 -0.455586 -0.0151475 -0.0892531 -0.460938 
0.0608652 -0.0606556 -0.461696 0.207219 -0.0898037 -0.461432 0.289687 -0.0877252 -0.461835 
0.429567 -0.0686176 -0.459837 0.506744 -0.0940122 -0.460324 0.677483 -0.0898415 -0.460772 
0.890362 -0.0527039 -0.460662 0.962215 -0.0813403 -0.461273 -0.959949 0.0206142 -0.460918 
-0.736415 0.0304648 -0.440491 -0.66241 0.0115006 -0.461391 -0.524112 0.0299255 -0.462895 
-0.392208 -0.00989347 -0.458975 -0.280084 -0.00865491 -0.460287 -0.200481 -0.00892172 -0.461249 
-0.128377 0.0145691 -0.43825 -0.0641171 -0.0247904 -0.461304 0.00671466 0.0131851 -0.460179 
0.0841638 0.0246263 -0.455047 0.142615 -0.0323923 -0.461156 0.221854 -0.00768399 -0.462048 
0.297786 0.00252649 -0.434864 0.369484 -0.0174099 -0.459034 0.456942 0.00844984 -0.460555 
0.547284 -0.0260823 -0.458644 0.62688 -0.0285169 -0.459597 0.737131 -0.0183408 -0.460977 
0.815955 -0.0282693 -0.449173 0.945203 0.0143897 -0.463184 -0.888552 0.0566505 -0.456206 
-0.784207 0.0974349 -0.459454 -0.621873 0.0810534 -0.460425 -0.432444 0.059887 -0.457811 
-0.334781 0.0475953 -0.458967 -0.257993 0.0746075 -0.459945 -0.174766 0.0785389 -0.457181 
-0.0614643 0.0527368 -0.46067 0.00903662 0.0916085 -0.460712 0.161707 0.0444991 -0.459569 
0.302288 0.0782419 -0.461255 0.390318 0.0649858 -0.461305 0.477684 0.0867772 -0.461103 
0.562179 0.0789555 -0.459808 0.72442 0.0954897 -0.461022 0.672121 0.036178 -0.461135 
0.817409 0.0542783 -0.45903 0.887076 0.0908661 -0.458224 -0.953572 0.101691 -0.457528 
-0.856892 0.136824 -0.459641 -0.705525 0.102248 -0.459523 -0.614088 0.160294 -0.45631 
-0.547971 0.112168 -0.460516 -0.48193 0.153208 -0.460359 -0.37768 0.117507 -0.459952 
-0.304514 0.136285 -0.439003 -0.104303 0.11828 -0.459992 -0.0343053 0.156648 -0.461716 
0.0851591 0.113106 -0.456463 0.213293 0.105621 -0.462205 0.276934 0.153921 -0.460083 
0.417434 0.150733 -0.460815 0.517188 0.156529 -0.461718 0.649116 0.116087 -0.461082 
0.825528 0.139719 -0.460661 0.960751 0.119094 -0.461177 -0.925882 0.176328 -0.457076 
-0.850464 0.219343 -0.460498 -0.786485 0.172582 -0.442136 -0.695772 0.180052 -0.45204 
-0.346855 0.199508 -0.461459 -0.234824 0.169163 -0.458277 -0.154392 0.215949 -0.459554 
0.0599434 0.187004 -0.460519 0.13843 0.172294 -0.461294 0.21128 0.215258 -0.46048 
0.336941 0.205681 -0.461277 0.596753 0.182125 -0.458852 0.67839 0.189487 -0.46092 
0.754027 0.171219 -0.46088 0.829041 0.218118 -0.458179 0.900673 0.16921 -0.460682 
0.960466 0.21324 -0.433564 -0.960209 0.290124 -0.461629 -0.853651 0.302745 -0.46101 
-0.783449 0.259633 -0.460538 -0.64772 0.290388 -0.460606 -0.575773 0.246434 -0.460596 
-0.486616 0.243713 -0.455714 -0.388422 0.26738 -0.461462 -0.246424 0.249661 -0.460048 
-0.0780385 0.24597 -0.460353 0.0285251 0.262511 -0.462203 0.125583 0.250924 -0.462022 
0.280072 0.260354 -0.460163 0.398417 0.253561 -0.460363 0.592711 0.266744 -0.460905 
0.670991 0.268707 -0.448297 0.749656 0.251078 -0.457132 0.899166 0.254664 -0.456865 
-0.955414 0.367674 -0.458852 -0.724158 0.325538 -0.460535 -0.547597 0.32539 -0.461098 
-0.45987 0.324447 -0.460217 -0.330079 0.325307 -0.462294 -0.249198 0.328255 -0.459096 
-0.173341 0.303127 -0.460659 -0.105133 0.348951 -0.459107 -0.0338685 0.310745 -0.461504 
0.0851235 0.31845 -0.461232 0.166926 0.32206 -0.458417 0.246606 0.331242 -0.459921 
0.34365 0.309801 -0.460225 0.426864 0.324673 -0.459318 0.507161 0.3291 -0.463251 
0.626554 0.338552 -0.459065 0.723152 0.329501 -0.455113 0.807562 0.304398 -0.455862 
0.885058 0.331505 -0.455842 0.960729 0.306684 -0.458351 -0.836222 0.379495 -0.465139 
-0.765605 0.397472 -0.436762 -0.683537 0.392481 -0.458527 -0.602657 0.383312 -0.460546 
-0.503645 0.398866 -0.458817 -0.401417 0.396528 -0.459638 -0.28836 0.397289 -0.461291 
-0.190452 0.383345 -0.461174 -0.0372905 0.390678 -0.460328 0.0422314 0.387767 -0.462701 
0.12184 0.389339 -0.461006 0.200459 0.394873 -0.460179 0.298389 0.391819 -0.435491 
0.378589 0.390923 -0.460851 0.459913 0.395997 -0.459016 0.553501 0.395517 -0.461863 
0.68056 0.396874 -0.459497 0.768995 0.393027 -0.462731 0.847746 0.39628 -0.463028 
-0.919897 0.433219 -0.461655 -0.816007 0.462448 -0.452527 -0.725468 0.460809 -0.461906 
-0.644009 0.461874 -0.460385 -0.5605 0.458837 -0.454707 -0.453365 0.459874 -0.454304 
-0.336461 0.459356 -0.461371 -0.241378 0.45945 -0.460722 -0.156004 0.45514 -0.459839 
-0.0744921 0.461685 -0.460023 0.00420825 0.459226 -0.441223 0.0802245 0.45764 -0.458309 
0.157784 0.460843 -0.458037 0.251313 0.456407 -0.457427 0.332883 0.460289 -0.458666 
0.412126 0.462014 -0.455506 0.505547 0.458711 -0.459578 0.631 0.459769 -0.457211 
0.72653 0.461849 -0.456887 0.807347 0.461976 -0.459186 0.897847 0.460315 -0.461236 
-0.94624 -0.454068 -0.393065 -0.864502 -0.458623 -0.369306 -0.636943 -0.434347 -0.390114 
-0.517319 -0.457733 -0.376569 -0.434943 -0.461603 -0.385399 -0.343785 -0.46222 -0.373285 
-0.161429 -0.459597 -0.381598 -0.0828592 -0.460557 -0.387749 0.0151206 -0.458873 -0.406899 
0.0927391 -0.457752 -0.380461 0.171785 -0.459236 -0.37509 0.322835 -0.459944 -0.387318 
0.401493 -0.450283 -0.403188 0.508695 -0.451543 -0.397528 0.61063 -0.456368 -0.384838 
0.873326 -0.449892 -0.385196 -0.961214 -0.374211 -0.380624 -0.88715 -0.383048 -0.364852 
-0.736458 -0.416314 -0.385669 -0.553753 -0.401835 -0.418475 -0.486025 -0.36708 -0.388889 
-0.280407 -0.410827 -0.391649 -0.197277 -0.389453 -0.373643 -0.119982 -0.391022 -0.395568 
-0.0367707 -0.397857 -0.390109 0.0655753 -0.38512 -0.396042 0.208257 -0.395282 -0.407836 
0.288595 -0.387129 -0.390998 0.457631 -0.393639 -0.388723 0.642781 -0.374625 -0.389012 
0.717941 -0.438136 -0.393375 0.81562 -0.397249 -0.377162 0.896017 -0.373565 -0.400218 
0.954603 -0.428791 -0.372403 -0.838398 -0.303991 -0.40993 -0.751974 -0.330248 -0.396714 
-0.675539 -0.341559 -0.39832 -0.597958 -0.335526 -0.421024 -0.356699 -0.354699 -0.396646 
-0.243946 -0.347201 -0.422531 0.00117252 -0.330175 -0.384437 0.101007 -0.310872 -0.39207 
0.260164 -0.313622 -0.388865 0.380516 -0.369198 -0.390402 0.526932 -0.325164 -0.385196 
0.748255 -0.350504 -0.390974 0.960265 -0.341562 -0.370866 -0.766542 -0.246835 -0.393995 
-0.594214 -0.25715 -0.402201 -0.531956 -0.305144 -0.390224 -0.420913 -0.296209 -0.396307 
-0.338051 -0.276914 -0.395907 -0.245335 -0.266334 -0.401164 -0.13153 -0.283496 -0.399622 
[...]
POINT_DATA 1355
FIELD FieldData 7
id 1 1355 int
366 408 584 322 662 206 563 371 419 
523 145 585 151 530 365 186 620 156 
70 692 559 759 714 120 208 723 59 
512 347 607 20 256 338 470 195 678 
320 664 534 632 196 493 581 542 234 
498 708 214 457 305 529 396 291 444 
367 684 476 643 724 171 314 105 375 
250 442 245 76 54 280 75 623 109 
184 446 155 159 267 289 373 96 62 
533 376 95 589 722 200 431 576 298 
202 683 647 680 521 83 641 185 331 
99 458 575 40 57 88 543 31 281 
126 300 676 48 445 531 428 254 592 
758 361 412 14 689 312 252 153 397 
170 704 140 378 726 459 351 651 6 
433 92 690 382 437 359 154 569 304 
439 339 720 639 321 177 700 240 310 
258 182 528 323 121 129 507 423 495 
224 612 384 25 166 461 460 97 537 
127 51 85 544 293 697 634 104 602 
742 161 167 191 199 671 278 383 71 
596 266 19 627 717 162 348 247 613 
125 294 586 74 640 675 441 637 299 
149 747 463 387 269 130 218 748 420 
663 16 402 682 421 715 9 698 261 
622 355 571 8 411 42 416 227 391 
527 557 346 67 274 319 242 649 73 
766 409 535 89 4 260 318 650 388 
311 94 618 39 582 53 673 729 3 
496 363 201 188 599 670 228 519 667 
472 669 660 646 654 43 230 226 306 
427 316 614 329 545 336 12 453 440 
452 90 551 686 38 285 725 743 181 
761 5 567 179 370 116 197 628 131 
679 435 211 276 47 325 518 223 666 
513 157 72 205 175 221 514 426 712 
611 516 473 108 118 18 721 287 82 
272 100 87 343 642 302 601 593 110 
438 372 767 653 136 255 275 324 699 
550 80 357 313 645 219 556 511 114 
144 81 668 58 615 399 631 616 558 
189 36 462 597 394 565 239 554 334 
572 570 424 286 24 447 364 192 407 
478 566 492 718 169 497 483 248 540 
33 282 45 422 11 541 143 46 106 
345 183 236 44 112 429 479 590 539 
326 502 142 746 21 549 369 711 137 
271 2 524 111 102 381 436 216 733 
194 425 148 352 580 172 101 443 28 
738 710 146 626 474 288 180 32 193 
374 638 450 253 231 93 215 505 403 
22 520 277 591 84 133 687 49 350 
762 578 546 41 970 128 392 135 606 
209 475 703 432 296 393 480 469 26 
681 400 648 190 222 709 251 35 760 
665 122 503 750 488 259 508 113 608 
123 464 340 456 785 418 417 292 138 
246 98 448 283 244 63 583 69 262 
600 763 499 229 672 467 755 481 727 
526 390 764 249 389 354 158 510 604 
587 890 500 658 337 225 1166 217 769 
78 468 735 959 103 273 1154 685 933 
233 921 414 173 455 504 66 268 935 
56 751 736 744 652 413 814 741 410 
951 963 15 307 696 362 532 490 207 
688 241 702 290 465 973 603 265 754 
848 879 552 636 187 176 870 509 757 
454 812 335 974 644 341 379 707 491 
952 765 279 29 655 79 471 734 824 
786 981 406 731 356 165 855 141 489 
577 30 501 204 536 886 621 895 487 
358 395 800 309 50 605 568 86 630 
60 434 677 674 52 486 818 134 27 
301 694 962 633 730 332 629 522 484 
815 401 548 243 695 198 737 657 220 
954 922 147 380 160 752 775 840 415 
150 65 560 327 107 477 482 887 203 
10 333 872 929 928 91 598 515 232 
955 713 77 342 13 23 706 398 965 
896 330 595 574 308 328 822 506 909 
237 284 564 1 139 263 61 912 37 
610 55 900 297 971 625 115 813 257 
405 178 174 609 885 773 891 303 830 
17 64 353 430 772 913 562 404 119 
132 117 525 212 728 740 1165 68 547 
661 553 494 385 617 701 594 315 579 
377 961 210 878 938 573 7 386 739 
466 793 693 1159 1184 871 270 930 1178 
781 927 823 988 825 986 163 943 787 
831 910 619 903 1152 925 1167 849 768 
784 846 1058 770 1170 360 828 235 958 
1115 875 1147 832 847 867 907 1187 1032 
749 1061 914 829 295 808 779 838 1054 
932 865 124 691 792 919 1138 317 1062 
944 972 732 964 937 780 789 950 904 
901 851 857 1183 882 797 939 842 1023 
349 1135 894 1077 834 918 861 924 916 
795 911 1082 807 975 908 953 969 967 
1016 839 801 905 947 978 776 805 931 
990 1027 164 1182 862 836 34 810 892 
926 977 794 835 656 888 803 827 799 
968 790 819 783 843 719 893 837 538 
1171 852 1148 948 555 716 946 994 876 
791 1180 860 1025 774 874 889 841 344 
804 960 811 796 859 1011 869 873 856 
853 1060 858 659 966 940 850 777 1124 
1118 1156 877 881 1134 942 821 168 945 
845 880 1063 917 1001 1059 368 854 588 
771 817 863 984 451 949 816 897 213 
979 449 152 753 923 238 517 485 624 
561 906 866 956 941 1149 1006 1141 745 
1123 1252 1035 1093 844 1116 1079 1051 809 
1066 1173 1076 1003 1151 1330 1133 802 1000 
826 868 999 1125 1312 1112 1028 1073 1086 
1034 1110 1091 993 1097 1049 1162 1099 1014 
1145 1015 1103 995 1160 1071 1186 1255 902 
1139 1174 985 1022 936 806 982 1144 1056 
1008 1021 1020 1129 1095 1050 1111 992 1105 
820 782 1052 1089 1188 1065 1075 1047 1130 
1013 1158 1048 1119 1083 980 1108 1037 833 
1088 1067 1012 1176 1179 1078 1114 1150 1009 
1109 1122 1044 1081 1033 1046 915 1010 987 
1100 1069 1017 1057 1204 983 1104 1164 1092 
1127 1153 899 1080 1085 1175 1126 1096 1101 
998 1128 1168 997 864 934 1177 798 1072 
1053 991 1041 1094 884 976 1131 1029 1355 
1090 1163 1074 1155 1038 1137 1019 1261 1042 
778 898 1157 996 1313 989 1169 1030 1070 
1136 1181 1024 1117 1068 1254 1161 1146 1040 
1102 1142 1064 883 1120 920 264 635 1098 
705 756 957 788 1132 1140 1004 1121 1233 
1243 1231 1107 1190 1197 1211 1113 1143 1193 
1303 1267 1031 1288 1302 1226 1005 1290 1266 
1210 1275 1185 1316 1347 1285 1291 1247 1224 
1106 1221 1297 1189 1276 1354 1036 1237 1323 
1315 1270 1322 1194 1209 1199 1246 1304 1235 
1283 1343 1263 1087 1192 1213 1205 1317 1274 
1172 1331 1342 1326 1352 1284 1201 1026 1223 
1018 1292 1308 1319 1348 1273 1236 1286 1242 
1253 1296 1220 1216 1039 1218 1214 1227 1333 
1311 1269 1084 1259 1234 1203 1301 1260 1345 
1272 1324 1282 1043 1198 1240 1351 1278 1309 
1293 1268 1248 1191 1289 1271 1222 1207 1007 
1328 1055 1232 1280 1300 1045 1002 1332 1212 
1229 1230 1353 1256 1195 1208 1206 1225 1336 
1287 1262 1239 1340 1337 1250 1305 1334 1279 
1238 1249 1329 1327 1344 1339 1299 1306 1335 
1217 1251 1295 1215 1321 1346 1325 1202 1350 
1341 1228 1294 1258 1219 1349 1196 1298 1265 
1320 1338 1245 1264 1277 1281 1244 1241 1200 
1310 1318 1257 1314 1307 
type 1 1355 int
1 1 1 1 1 1 1 1 1 
1 1 1 1 1 1 1 1 1 
1 1 1 1 1 1 1 1 1 
1 1 1 1 1 1 1 1 1 
1 1 1 1 1 1 1 1 1 
1 1 1 1 1 1 1 1 1 
1 1 1 1 1 1 1 1 1 
1 1 1 1 1 1 1 1 1 
1 1 1 1 1 1 1 1 1 
1 1 1 1 1 1 1 1 1 
1 1 1 1 1 1 1 1 1 
1 1 1 1 1 1 1 1 1 
1 1 1 1 1 1 1 1 1 
1 1 1 1 1 1 1 1 1 
1 1 1 1 1 1 1 1 1 
1 1 1 1 1 1 1 1 1 
1 1 1 1 1 1 1 1 1 
1 1 1 1 1 1 1 1 1 
1 1 1 1 1 1 1 1 1 
1 1 1 1 1 1 1 1 1 
1 1 1 1 1 1 1 1 1 
1 1 1 1 1 1 1 1 1 
1 1 1 1 1 1 1 1 1 
1 1 1 1 1 1 1 1 1 
1 1 1 1 1 1 1 1 1 
1 1 1 1 1 1 1 1 1 
1 1 1 1 1 1 1 1 1 
1 1 1 1 1 1 1 1 1 
1 1 1 1 1 1 1 1 1 
1 1 1 1 1 1 1 1 1 
1 1 1 1 1 1 1 1 1 
1 1 1 1 1 1 1 1 1 
1 1 1 1 1 1 1 1 1 
1 1 1 1 1 1 1 1 1 
1 1 1 1 1 1 1 1 1 
1 1 1 1 1 1 1 1 1 
1 1 1 1 1 1 1 1 1 
1 1 1 1 1 1 1 1 1 
1 1 1 1 1 1 1 1 1 
1 1 1 1 1 1 1 1 1 
1 1 1 1 1 1 1 1 1 
1 1 1 1 1 1 1 1 1 
1 1 1 1 1 1 1 1 1 
1 1 1 1 1 1 1 1 1 
1 1 1 1 1 1 1 1 1 
1 1 1 1 1 1 1 1 1 
1 1 1 1 1 1 1 1 1 
1 1 1 1 1 1 1 1 1 
1 1 1 1 1 1 1 1 1 
1 1 1 1 1 1 1 1 1 
1 1 1 1 1 1 1 1 1 
1 1 1 1 1 1 1 1 1 
1 1 1 1 1 1 1 1 1 
1 1 1 1 1 1 1 1 1 
1 1 1 1 1 1 1 1 1 
1 1 1 1 1 1 1 1 1 
1 1 1 1 1 1 1 1 1 
1 1 1 1 1 1 1 1 1 
1 1 1 1 1 1 1 1 1 
1 1 1 1 1 1 1 1 1 
1 1 1 1 1 1 1 1 1 
1 1 1 1 1 1 1 1 1 
1 1 1 1 1 1 1 1 1 
1 1 1 1 1 1 1 1 1 
1 1 1 1 1 1 1 1 1 
1 1 1 1 1 1 1 1 1 
1 1 1 1 1 1 1 1 1 
1 1 1 1 1 1 1 1 1 
1 1 1 1 1 1 1 1 1 
1 1 1 1 1 1 1 1 1 
1 1 1 1 1 1 1 1 1 
1 1 1 1 1 1 1 1 1 
1 1 1 1 1 1 1 1 1 
1 1 1 1 1 1 1 1 1 
1 1 1 1 1 1 1 1 1 
1 1 1 1 1 1 1 1 1 
1 1 1 1 1 1 1 1 1 
1 1 1 1 1 1 1 1 1 
1 1 1 1 1 1 1 1 1 
1 1 1 1 1 1 1 1 1 
1 1 1 1 1 1 1 1 1 
1 1 1 1 1 1 1 1 1 
1 1 1 1 1 1 1 1 1 
1 1 1 1 1 1 1 1 1 
1 1 1 1 1 1 1 1 1 
1 1 1 1 1 1 1 1 1 
1 1 1 1 1 1 1 1 1 
1 1 1 1 1 1 1 1 1 
1 1 1 1 1 1 1 1 1 
1 1 1 1 1 1 1 1 1 
1 1 1 1 1 1 1 1 1 
1 1 1 1 1 1 1 1 1 
1 1 1 1 1 1 1 1 1 
1 1 1 1 1 1 1 1 1 
1 1 1 1 1 1 1 1 1 
1 1 1 1 1 1 1 1 1 
1 1 1 1 1 1 1 1 1 
1 1 1 1 1 1 1 1 1 
1 1 1 1 1 1 1 1 1 
1 1 1 1 1 1 1 1 1 
1 1 1 1 1 1 1 1 1 
1 1 1 1 1 1 1 1 1 
1 1 1 1 1 1 1 1 1 
1 1 1 1 1 1 1 1 1 
1 1 1 1 1 1 1 1 1 
1 1 1 1 1 1 1 1 1 
1 1 1 1 1 1 1 1 1 
1 1 1 1 1 1 1 1 1 
1 1 1 1 1 1 1 1 1 
1 1 1 1 1 1 1 1 1 
1 1 1 1 1 1 1 1 1 
1 1 1 1 1 1 1 1 1 
1 1 1 1 1 1 1 1 1 
1 1 1 1 1 1 1 1 1 
1 1 1 1 1 1 1 1 1 
1 1 1 1 1 1 1 1 1 
1 1 1 1 1 1 1 1 1 
1 1 1 1 1 1 1 1 1 
1 1 1 1 1 1 1 1 1 
1 1 1 1 1 1 1 1 1 
1 1 1 1 1 1 1 1 1 
1 1 1 1 1 1 1 1 1 
1 1 1 1 1 1 1 1 1 
1 1 1 1 1 1 1 1 1 
1 1 1 1 1 1 1 1 1 
1 1 1 1 1 1 1 1 1 
1 1 1 1 1 1 1 1 1 
1 1 1 1 1 1 1 1 1 
1 1 1 1 1 1 1 1 1 
1 1 1 1 1 1 1 1 1 
1 1 1 1 1 1 1 1 1 
1 1 1 1 1 1 1 1 1 
1 1 1 1 1 1 1 1 1 
1 1 1 1 1 1 1 1 1 
1 1 1 1 1 1 1 1 1 
1 1 1 1 1 1 1 1 1 
1 1 1 1 1 1 1 1 1 
1 1 1 1 1 1 1 1 1 
1 1 1 1 1 1 1 1 1 
1 1 1 1 1 1 1 1 1 
1 1 1 1 1 1 1 1 1 
1 1 1 1 1 1 1 1 1 
1 1 1 1 1 1 1 1 1 
1 1 1 1 1 1 1 1 1 
1 1 1 1 1 1 1 1 1 
1 1 1 1 1 1 1 1 1 
1 1 1 1 1 1 1 1 1 
1 1 1 1 1 1 1 1 1 
1 1 1 1 1 1 1 1 1 
1 1 1 1 1 1 1 1 1 
1 1 1 1 1 
i 3 1355 int
0 0 0 0 0 0 0 0 0 
0 0 0 0 0 0 0 0 0 
0 0 0 0 0 0 0 0 0 
0 0 0 0 0 0 0 0 0 
0 0 0 0 0 0 0 0 0 
0 0 0 0 0 0 0 0 0 
0 0 0 0 0 0 0 0 0 
0 0 0 0 0 0 0 0 0 
0 0 0 0 0 0 0 0 0 
0 0 0 0 0 0 0 0 0 
0 0 0 0 0 0 0 0 0 
0 0 0 0 0 0 0 0 0 
0 0 0 0 0 0 0 0 0 
0 0 0 0 0 0 0 0 0 
0 0 0 0 0 0 0 0 0 
0 0 0 0 0 0 0 0 0 
0 0 0 0 0 0 0 0 0 
0 0 0 0 0 0 0 0 0 
0 0 0 0 0 0 0 0 0 
0 0 0 0 0 0 0 0 0 
0 0 0 0 0 0 0 0 0 
0 0 0 0 0 0 0 0 0 
0 0 0 0 0 0 0 0 0 
0 0 0 0 0 0 0 0 0 
0 0 0 0 0 0 0 0 0 
0 0 0 0 0 0 0 0 0 
0 0 0 0 0 0 0 0 0 
0 0 0 0 0 0 0 0 0 
0 0 0 0 0 0 0 0 0 
0 0 0 0 0 0 0 0 0 
0 0 0 0 0 0 0 0 0 
0 0 0 0 0 0 0 0 0 
0 0 0 0 0 0 0 0 0 
0 0 0 0 0 0 0 0 0 
0 0 0 0 0 0 0 0 0 
0 0 0 0 0 0 0 0 0 
0 0 0 0 0 0 0 0 0 
0 0 0 0 0 0 0 0 0 
0 0 0 0 0 0 0 0 0 
0 0 0 0 0 0 0 0 0 
0 0 0 0 0 0 0 0 0 
0 0 0 0 0 0 0 0 0 
0 0 0 0 0 0 0 0 0 
0 0 0 0 0 0 0 0 0 
0 0 0 0 0 0 0 0 0 
0 0 0 0 0 0 0 0 0 
0 0 0 0 0 0 0 0 0 
0 0 0 0 0 0 0 0 0 
0 0 0 0 0 0 0 0 0 
0 0 0 0 0 0 0 0 0 
0 0 0 0 0 0 0 0 0 
0 0 0 0 0 0 0 0 0 
0 0 0 0 0 0 0 0 0 
0 0 0 0 0 0 0 0 0 
0 0 0 0 0 0 0 0 0 
0 0 0 0 0 0 0 0 0 
0 0 0 0 0 0 0 0 0 
0 0 0 0 0 0 0 0 0 
0 0 0 0 0 0 0 0 0 
0 0 0 0 0 0 0 0 0 
0 0 0 0 0 0 0 0 0 
0 0 0 0 0 0 0 0 0 
0 0 0 0 0 0 0 0 0 
0 0 0 0 0 0 0 0 0 
0 0 0 0 0 0 0 0 0 
0 0 0 0 0 0 0 0 0 
0 0 0 0 0 0 0 0 0 
0 0 0 0 0 0 0 0 0 
0 0 0 0 0 0 0 0 0 
0 0 0 0 0 0 0 0 0 
0 0 0 0 0 0 0 0 0 
0 0 0 0 0 0 0 0 0 
0 0 0 0 0 0 0 0 0 
0 0 0 0 0 0 0 0 0 
0 0 0 0 0 0 0 0 0 
0 0 0 0 0 0 0 0 0 
0 0 0 0 0 0 0 0 0 
0 0 0 0 0 0 0 0 0 
0 0 0 0 0 0 0 0 0 
0 0 0 0 0 0 0 0 0 
0 0 0 0 0 0 0 0 0 
0 0 0 0 0 0 0 0 0 
0 0 0 0 0 0 0 0 0 
0 0 0 0 0 0 0 0 0 
0 0 0 0 0 0 0 0 0 
0 0 0 0 0 0 0 0 0 
0 0 0 0 0 0 0 0 0 
0 0 0 0 0 0 0 0 0 
0 0 0 0 0 0 0 0 0 
0 0 0 0 0 0 0 0 0 
0 0 0 0 0 0 0 0 0 
0 0 0 0 0 0 0 0 0 
0 0 0 0 0 0 0 0 0 
0 0 0 0 0 0 0 0 0 
0 0 0 0 0 0 0 0 0 
0 0 0 0 0 0 0 0 0 
0 0 0 0 0 0 0 0 0 
0 0 0 0 0 0 0 0 0 
0 0 0 0 0 0 0 0 0 
0 0 0 0 0 0 0 0 0 
0 0 0 0 0 0 0 0 0 
0 0 0 0 0 0 0 0 0 
0 0 0 0 0 0 0 0 0 
0 0 0 0 0 0 0 0 0 
0 0 0 0 0 0 0 0 0 
0 0 0 0 0 0 0 0 0 
0 0 0 0 0 0 0 0 0 
0 0 0 0 0 0 0 0 0 
0 0 0 0 0 0 0 0 0 
0 0 0 0 0 0 0 0 0 
0 0 0 0 0 0 0 0 0 
0 0 0 0 0 0 0 0 0 
0 0 0 0 0 0 0 0 0 
0 0 0 0 0 0 0 0 0 
0 0 0 0 0 0 0 0 0 
0 0 0 0 0 0 0 0 0 
0 0 0 0 0 0 0 0 0 
0 0 0 0 0 0 0 0 0 
0 0 0 0 0 0 0 0 0 
0 0 0 0 0 0 0 0 0 
0 0 0 0 0 0 0 0 0 
0 0 0 0 0 0 0 0 0 
0 0 0 0 0 0 0 0 0 
0 0 0 0 0 0 0 0 0 
0 0 0 0 0 0 0 0 0 
0 0 0 0 0 0 0 0 0 
0 0 0 0 0 0 0 0 0 
0 0 0 0 0 0 0 0 0 
0 0 0 0 0 0 0 0 0 
0 0 0 0 0 0 0 0 0 
0 0 0 0 0 0 0 0 0 
0 0 0 0 0 0 0 0 0 
0 0 0 0 0 0 0 0 0 
0 0 0 0 0 0 0 0 0 
0 0 0 0 0 0 0 0 0 
0 0 0 0 0 0 0 0 0 
0 0 0 0 0 0 0 0 0 
0 0 0 0 0 0 0 0 0 
0 0 0 0 0 0 0 0 0 
0 0 0 0 0 0 0 0 0 
0 0 0 0 0 0 0 0 0 
0 0 0 0 0 0 0 0 0 
0 0 0 0 0 0 0 0 0 
0 0 0 0 0 0 0 0 0 
0 0 0 0 0 0 0 0 0 
0 0 0 0 0 0 0 0 0 
0 0 0 0 0 0 0 0 0 
0 0 0 0 0 0 0 0 0 
0 0 0 0 0 0 0 0 0 
0 0 0 0 0 0 0 0 0 
0 0 0 0 0 0 0 0 0 
0 0 0 0 0 0 0 0 0 
0 0 0 0 0 0 0 0 0 
0 0 0 0 0 0 0 0 0 
0 0 0 0 0 0 0 0 0 
0 0 0 0 0 0 0 0 0 
0 0 0 0 0 0 0 0 0 
0 0 0 0 0 0 0 0 0 
0 0 0 0 0 0 0 0 0 
0 0 0 0 0 0 0 0 0 
0 0 0 0 0 0 0 0 0 
0 0 0 0 0 0 0 0 0 
0 0 0 0 0 0 0 0 0 
0 0 0 0 0 0 0 0 0 
0 0 0 0 0 0 0 0 0 
0 0 0 0 0 0 0 0 0 
0 0 0 0 0 0 0 0 0 
0 0 0 0 0 0 0 0 0 
0 0 0 0 0 0 0 0 0 
0 0 0 0 0 0 0 0 0 
0 0 0 0 0 0 0 0 0 
0 0 0 0 0 0 0 0 0 
0 0 0 0 0 0 0 0 0 
0 0 0 0 0 0 0 0 0 
0 0 0 0 0 0 0 0 0 
0 0 0 0 0 0 0 0 0 
0 0 0 0 0 0 0 0 0 
0 0 0 0 0 0 0 0 0 
0 0 0 0 0 0 0 0 0 
0 0 0 0 0 0 0 0 0 
0 0 0 0 0 0 0 0 0 
0 0 0 0 0 0 0 0 0 
0 0 0 0 0 0 0 0 0 
0 0 0 0 0 0 0 0 0 
0 0 0 0 0 0 0 0 0 
0 0 0 0 0 0 0 0 0 
0 0 0 0 0 0 0 0 0 
0 0 0 0 0 0 0 0 0 
0 0 0 0 0 0 0 0 0 
0 0 0 0 0 0 0 0 0 
0 0 0 0 0 0 0 0 0 
0 0 0 0 0 0 0 0 0 
0 0 0 0 0 0 0 0 0 
0 0 0 0 0 0 0 0 0 
0 0 0 0 0 0 0 0 0 
0 0 0 0 0 0 0 0 0 
0 0 0 0 0 0 0 0 0 
0 0 0 0 0 0 0 0 0 
0 0 0 0 0 0 0 0 0 
0 0 0 0 0 0 0 0 0 
0 0 0 0 0 0 0 0 0 
0 0 0 0 0 0 0 0 0 
0 0 0 0 0 0 0 0 0 
0 0 0 0 0 0 0 0 0 
0 0 0 0 0 0 0 0 0 
0 0 0 0 0 0 0 0 0 
0 0 0 0 0 0 0 0 0 
0 0 0 0 0 0 0 0 0 
0 0 0 0 0 0 0 0 0 
0 0 0 0 0 0 0 0 0 
0 0 0 0 0 0 0 0 0 
0 0 0 0 0 0 0 0 0 
0 0 0 0 0 0 0 0 0 
0 0 0 0 0 0 0 0 0 
0 0 0 0 0 0 0 0 0 
0 0 0 0 0 0 0 0 0 
0 0 0 0 0 0 0 0 0 
0 0 0 0 0 0 0 0 0 
0 0 0 0 0 0 0 0 0 
0 0 0 0 0 0 0 0 0 
0 0 0 0 0 0 0 0 0 
0 0 0 0 0 0 0 0 0 
0 0 0 0 0 0 0 0 0 
0 0 0 0 0 0 0 0 0 
0 0 0 0 0 0 0 0 0 
0 0 0 0 0 0 0 0 0 
0 0 0 0 0 0 0 0 0 
0 0 0 0 0 0 0 0 0 
0 0 0 0 0 0 0 0 0 
0 0 0 0 0 0 0 0 0 
0 0 0 0 0 0 0 0 0 
0 0 0 0 0 0 0 0 0 
0 0 0 0 0 0 0 0 0 
0 0 0 0 0 0 0 0 0 
0 0 0 0 0 0 0 0 0 
0 0 0 0 0 0 0 0 0 
0 0 0 0 0 0 0 0 0 
0 0 0 0 0 0 0 0 0 
0 0 0 0 0 0 0 0 0 
0 0 0 0 0 0 0 0 0 
0 0 0 0 0 0 0 0 0 
0 0 0 0 0 0 0 0 0 
0 0 0 0 0 0 0 0 0 
0 0 0 0 0 0 0 0 0 
0 0 0 0 0 0 0 0 0 
0 0 0 0 0 0 0 0 0 
0 0 0 0 0 0 0 0 0 
0 0 0 0 0 0 0 0 0 
0 0 0 0 0 0 0 0 0 
0 0 0 0 0 0 0 0 0 
0 0 0 0 0 0 0 0 0 
0 0 0 0 0 0 0 0 0 
0 0 0 0 0 0 0 0 0 
0 0 0 0 0 0 0 0 0 
0 0 0 0 0 0 0 0 0 
0 0 0 0 0 0 0 0 0 
0 0 0 0 0 0 0 0 0 
0 0 0 0 0 0 0 0 0 
0 0 0 0 0 0 0 0 0 
0 0 0 0 0 0 0 0 0 
0 0 0 0 0 0 0 0 0 
0 0 0 0 0 0 0 0 0 
0 0 0 0 0 0 0 0 0 
0 0 0 0 0 0 0 0 0 
0 0 0 0 0 0 0 0 0 
0 0 0 0 0 0 0 0 0 
0 0 0 0 0 0 0 0 0 
0 0 0 0 0 0 0 0 0 
0 0 0 0 0 0 0 0 0 
0 0 0 0 0 0 0 0 0 
0 0 0 0 0 0 0 0 0 
0 0 0 0 0 0 0 0 0 
0 0 0 0 0 0 0 0 0 
0 0 0 0 0 0 0 0 0 
0 0 0 0 0 0 0 0 0 
0 0 0 0 0 0 0 0 0 
0 0 0 0 0 0 0 0 0 
0 0 0 0 0 0 0 0 0 
0 0 0 0 0 0 0 0 0 
0 0 0 0 0 0 0 0 0 
0 0 0 0 0 0 0 0 0 
0 0 0 0 0 0 0 0 0 
0 0 0 0 0 0 0 0 0 
0 0 0 0 0 0 0 0 0 
0 0 0 0 0 0 0 0 0 
0 0 0 0 0 0 0 0 0 
0 0 0 0 0 0 0 0 0 
0 0 0 0 0 0 0 0 0 
0 0 0 0 0 0 0 0 0 
0 0 0 0 0 0 0 0 0 
0 0 0 0 0 0 0 0 0 
0 0 0 0 0 0 0 0 0 
0 0 0 0 0 0 0 0 0 
0 0 0 0 0 0 0 0 0 
0 0 0 0 0 0 0 0 0 
0 0 0 0 0 0 0 0 0 
0 0 0 0 0 0 0 0 0 
0 0 0 0 0 0 0 0 0 
0 0 0 0 0 0 0 0 0 
0 0 0 0 0 0 0 0 0 
0 0 0 0 0 0 0 0 0 
0 0 0 0 0 0 0 0 0 
0 0 0 0 0 0 0 0 0 
0 0 0 0 0 0 0 0 0 
0 0 0 0 0 0 0 0 0 
0 0 0 0 0 0 0 0 0 
0 0 0 0 0 0 0 0 0 
0 0 0 0 0 0 0 0 0 
0 0 0 0 0 0 0 0 0 
0 0 0 0 0 0 0 0 0 
0 0 0 0 0 0 0 0 0 
0 0 0 0 0 0 0 0 0 
0 0 0 0 0 0 0 0 0 
0 0 0 0 0 0 0 0 0 
0 0 0 0 0 0 0 0 0 
0 0 0 0 0 0 0 0 0 
0 0 0 0 0 0 0 0 0 
0 0 0 0 0 0 0 0 0 
0 0 0 0 0 0 0 0 0 
0 0 0 0 0 0 0 0 0 
0 0 0 0 0 0 0 0 0 
0 0 0 0 0 0 0 0 0 
0 0 0 0 0 0 0 0 0 
0 0 0 0 0 0 0 0 0 
0 0 0 0 0 0 0 0 0 
0 0 0 0 0 0 0 0 0 
0 0 0 0 0 0 0 0 0 
0 0 0 0 0 0 0 0 0 
0 0 0 0 0 0 0 0 0 
0 0 0 0 0 0 0 0 0 
0 0 0 0 0 0 0 0 0 
0 0 0 0 0 0 0 0 0 
0 0 0 0 0 0 0 0 0 
0 0 0 0 0 0 0 0 0 
0 0 0 0 0 0 0 0 0 
0 0 0 0 0 0 0 0 0 
0 0 0 0 0 0 0 0 0 
0 0 0 0 0 0 0 0 0 
0 0 0 0 0 0 0 0 0 
0 0 0 0 0 0 0 0 0 
0 0 0 0 0 0 0 0 0 
0 0 0 0 0 0 0 0 0 
0 0 0 0 0 0 0 0 0 
0 0 0 0 0 0 0 0 0 
0 0 0 0 0 0 0 0 0 
0 0 0 0 0 0 0 0 0 
0 0 0 0 0 0 0 0 0 
0 0 0 0 0 0 0 0 0 
0 0 0 0 0 0 0 0 0 
0 0 0 0 0 0 0 0 0 
0 0 0 0 0 0 0 0 0 
0 0 0 0 0 0 0 0 0 
0 0 0 0 0 0 0 0 0 
0 0 0 0 0 0 0 0 0 
0 0 0 0 0 0 0 0 0 
0 0 0 0 0 0 0 0 0 
0 0 0 0 0 0 0 0 0 
0 0 0 0 0 0 0 0 0 
0 0 0 0 0 0 0 0 0 
0 0 0 0 0 0 0 0 0 
0 0 0 0 0 0 0 0 0 
0 0 0 0 0 0 0 0 0 
0 0 0 0 0 0 0 0 0 
0 0 0 0 0 0 0 0 0 
0 0 0 0 0 0 0 0 0 
0 0 0 0 0 0 0 0 0 
0 0 0 0 0 0 0 0 0 
0 0 0 0 0 0 0 0 0 
0 0 0 0 0 0 0 0 0 
0 0 0 0 0 0 0 0 0 
0 0 0 0 0 0 0 0 0 
0 0 0 0 0 0 0 0 0 
0 0 0 0 0 0 0 0 0 
0 0 0 0 0 0 0 0 0 
0 0 0 0 0 0 0 0 0 
0 0 0 0 0 0 0 0 0 
0 0 0 0 0 0 0 0 0 
0 0 0 0 0 0 0 0 0 
0 0 0 0 0 0 0 0 0 
0 0 0 0 0 0 0 0 0 
0 0 0 0 0 0 0 0 0 
0 0 0 0 0 0 0 0 0 
0 0 0 0 0 0 0 0 0 
0 0 0 0 0 0 0 0 0 
0 0 0 0 0 0 0 0 0 
0 0 0 0 0 0 0 0 0 
0 0 0 0 0 0 0 0 0 
0 0 0 0 0 0 0 0 0 
0 0 0 0 0 0 0 0 0 
0 0 0 0 0 0 0 0 0 
0 0 0 0 0 0 0 0 0 
0 0 0 0 0 0 0 0 0 
0 0 0 0 0 0 0 0 0 
0 0 0 0 0 0 0 0 0 
0 0 0 0 0 0 0 0 0 
0 0 0 0 0 0 0 0 0 
0 0 0 0 0 0 0 0 0 
0 0 0 0 0 0 0 0 0 
0 0 0 0 0 0 0 0 0 
0 0 0 0 0 0 0 0 0 
0 0 0 0 0 0 0 0 0 
0 0 0 0 0 0 0 0 0 
0 0 0 0 0 0 0 0 0 
0 0 0 0 0 0 0 0 0 
0 0 0 0 0 0 0 0 0 
0 0 0 0 0 0 0 0 0 
0 0 0 0 0 0 0 0 0 
0 0 0 0 0 0 0 0 0 
0 0 0 0 0 0 0 0 0 
0 0 0 0 0 0 0 0 0 
0 0 0 0 0 0 0 0 0 
0 0 0 0 0 0 0 0 0 
0 0 0 0 0 0 0 0 0 
0 0 0 0 0 0 0 0 0 
0 0 0 0 0 0 0 0 0 
0 0 0 0 0 0 0 0 0 
0 0 0 0 0 0 0 0 0 
0 0 0 0 0 0 0 0 0 
0 0 0 0 0 0 0 0 0 
0 0 0 0 0 0 0 0 0 
0 0 0 0 0 0 0 0 0 
0 0 0 0 0 0 0 0 0 
0 0 0 0 0 0 0 0 0 
0 0 0 0 0 0 0 0 0 
0 0 0 0 0 0 0 0 0 
0 0 0 0 0 0 0 0 0 
0 0 0 0 0 0 0 0 0 
0 0 0 0 0 0 0 0 0 
0 0 0 0 0 0 0 0 0 
0 0 0 0 0 0 0 0 0 
0 0 0 0 0 0 0 0 0 
0 0 0 0 0 0 0 0 0 
0 0 0 0 0 0 0 0 0 
0 0 0 0 0 0 0 0 0 
0 0 0 0 0 0 0 0 0 
0 0 0 0 0 0 0 0 0 
0 0 0 0 0 0 0 0 0 
0 0 0 0 0 0 0 0 0 
0 0 0 0 0 0 0 0 0 
0 0 0 0 0 0 0 0 0 
0 0 0 0 0 0 0 0 0 
0 0 0 0 0 0 0 0 0 
0 0 0 0 0 0 0 0 0 
0 0 0 0 0 0 0 0 0 
0 0 0 0 0 0 0 0 0 
0 0 0 0 0 0 0 0 0 
0 0 0 0 0 0 0 0 0 
0 0 0 0 0 0 0 0 0 
0 0 0 0 0 0 0 0 0 
0 0 0 0 0 0 0 0 0 
0 0 0 0 0 0 0 0 0 
0 0 0 0 0 0 
v 3 1355 double
-0.0714009 -0.210069 0.427834 -0.492837 0.150253 0.367276 -0.305434 0.66714 -0.593392 
-0.33829 -0.200961 0.350408 -0.227565 0.125058 -0.0966455 0.317866 -0.158942 -0.0401851 
-0.738897 -0.47374 0.0977613 -0.203541 0.389717 -0.211138 -0.239611 0.0194068 0.107554 
0.482654 0.20753 0.0548106 -0.284492 0.149471 0.117979 0.126828 0.041457 0.400669 
0.676923 -0.40195 0.20293 -0.382162 0.0315735 0.231477 -0.175906 0.00228868 -0.0208731 
-0.00517972 0.0489961 0.247229 -0.501202 0.499904 0.00495165 0.400496 -0.325105 -0.68516 
-0.432572 0.20443 -0.289074 0.124492 0.591163 0.106169 -0.541927 -0.0564471 0.181868 
-0.426796 0.224219 -0.88806 0.38979 0.0599648 0.341505 0.217699 -0.299193 0.441897 
0.0698687 -0.122491 -0.087179 -0.308196 -0.234133 0.0699148 -0.0971604 -0.293167 -0.622661 
0.0632872 0.141487 -0.326738 -0.385505 -0.441633 0.712752 0.206381 0.106276 -0.0975614 
-0.120121 -0.166693 -0.194742 -0.308368 -0.197974 -0.150241 0.0590841 -0.0579061 -0.136109 
0.345676 -0.0803479 0.100292 0.19525 0.15416 0.211462 0.578083 0.394112 -0.206288 
0.746347 0.169694 0.128442 -0.205119 -0.567534 0.0733593 0.0643847 -0.325923 0.275866 
-0.530616 -0.292076 -0.392299 -0.412777 -0.38045 0.665801 0.030123 -0.120052 -0.338294 
-0.280326 0.0662883 -0.240667 -0.382553 -0.0593343 0.258621 0.0896561 -0.0158738 -0.733098 
-0.282432 0.41312 -0.373712 -0.605854 0.0867582 0.147697 0.0710085 0.477787 0.617259 
-0.0969501 0.0949096 0.135375 -0.0649153 -0.179197 -0.0141881 -0.198363 -0.113006 0.117857 
0.113426 0.470012 -0.521272 0.357013 -0.215982 0.183354 -0.00199113 -0.0383932 0.31023 
0.273067 -0.0566094 0.217023 0.40817 -0.316293 -0.153452 -0.138949 -0.0655527 0.663376 
-0.739324 -0.460552 -0.528337 -0.288914 0.200749 -0.0419297 -0.121553 -0.724545 0.00360313 
0.302226 -0.0820127 0.0431841 -0.560874 0.129397 -0.10012 0.0208953 0.39941 -0.00210997 
0.612768 -0.11451 0.420813 -0.408319 -0.158107 -0.268864 -0.195968 -0.427482 0.153457 
-0.257805 0.0571425 -0.211336 -0.24943 0.214523 -0.0962009 0.00193822 -0.175326 0.126055 
0.011086 -0.507611 0.0583166 0.558943 0.0540926 -0.102727 -0.42666 0.735684 -0.0333842 
-0.180409 -0.337123 -0.235136 0.313444 -0.239621 -0.526833 -0.0228399 -0.345167 -0.0577223 
-0.738826 0.242244 -0.0795321 0.166753 -0.344997 -0.733227 -0.208998 -0.0828615 -0.57513 
-0.552331 -0.209734 -0.222952 -0.424853 0.354068 0.0288869 0.108747 0.344392 -0.557513 
0.108059 -0.283029 -0.24944 0.350505 -0.0416556 0.0693096 0.0172935 0.147571 -0.324005 
-0.109318 0.290516 -0.0487123 -0.308292 -0.0051583 0.292301 -0.0777163 -0.452931 -0.378933 