# vtk DataFile Version 4.0
Generated by LIGGGHTS
ASCII
DATASET POLYDATA
POINTS 1355 float
-0.897871 -0.460536 -0.460264 -0.766964 -0.460312 -0.460385 -0.687399 -0.46024 -0.460477 
-0.607549 -0.460692 -0.460551 -0.527408 -0.460585 -0.460555 -0.447615 -0.460204 -0.460387 
-0.367849 -0.460027 -0.460786 -0.277266 -0.460075 -0.460334 -0.159181 -0.460807 -0.460334 
-0.0794228 -0.453658 -0.460408 4.85836e-05 -0.460278 -0.460444 0.0798277 -0.460233 -0.460444 
0.159548 -0.4602 -0.460435 0.239353 -0.460208 -0.460474 0.318978 -0.455261 -0.460406 
0.398674 -0.459864 -0.460467 0.478503 -0.460213 -0.460238 0.58189 -0.460449 -0.460797 
0.661506 -0.460411 -0.460514 0.741149 -0.460263 -0.460551 0.820605 -0.460364 -0.460688 
0.901838 -0.460254 -0.460302 -0.960567 -0.411892 -0.461007 -0.886924 -0.381469 -0.460694 
-0.727653 -0.390889 -0.460741 -0.647079 -0.391668 -0.460311 -0.567613 -0.392298 -0.460202 
-0.488118 -0.391259 -0.460401 -0.408474 -0.390759 -0.460586 -0.329065 -0.39006 -0.460414 
-0.212919 -0.402466 -0.460484 -0.135305 -0.385254 -0.460959 0.0396118 -0.391307 -0.460657 
0.119618 -0.391065 -0.46069 0.199605 -0.391201 -0.460525 0.279155 -0.384106 -0.460401 
0.359103 -0.38616 -0.460665 0.440872 -0.386917 -0.460235 0.530148 -0.399691 -0.460477 
0.620847 -0.3913 -0.460777 0.700755 -0.391533 -0.460465 0.780888 -0.390961 -0.460163 
0.860746 -0.391786 -0.460536 0.960348 -0.406253 -0.460535 -0.953907 -0.332955 -0.460104 
-0.880323 -0.301963 -0.46037 -0.805714 -0.361654 -0.460298 -0.67858 -0.319078 -0.461641 
-0.566836 -0.313624 -0.460893 -0.487221 -0.311569 -0.460494 -0.404109 -0.311049 -0.460277 
-0.264697 -0.342686 -0.460559 -0.186973 -0.324513 -0.460522 -0.108243 -0.310946 -0.460445 
-0.0320021 -0.355942 -0.46029 0.0346714 -0.312061 -0.460307 0.159936 -0.322415 -0.460462 
0.239214 -0.31246 -0.460564 0.321016 -0.316079 -0.460523 0.400787 -0.317735 -0.460402 
0.491454 -0.311551 -0.460654 0.569068 -0.330328 -0.460763 0.660028 -0.322374 -0.460218 
0.739491 -0.322653 -0.460919 0.882043 -0.315305 -0.460976 0.960466 -0.326832 -0.46042 
-0.960576 -0.253954 -0.460461 -0.803252 -0.281962 -0.46045 -0.725791 -0.254722 -0.46048 
-0.625555 -0.260177 -0.460103 -0.534075 -0.24186 -0.46037 -0.45482 -0.236201 -0.460777 
-0.326372 -0.293076 -0.460515 -0.130897 -0.234538 -0.46065 -0.0366651 -0.276241 -0.460652 
0.10136 -0.268833 -0.460895 0.185153 -0.246935 -0.460175 0.308677 -0.237386 -0.460391 
0.546408 -0.253904 -0.460624 0.622855 -0.255649 -0.438361 0.699665 -0.253131 -0.460376 
0.77945 -0.254013 -0.460195 0.88184 -0.235679 -0.460282 0.960389 -0.247395 -0.460509 
-0.960829 -0.174527 -0.460544 -0.891719 -0.214225 -0.46016 -0.813178 -0.20324 -0.460603 
-0.672152 -0.19564 -0.460369 -0.592585 -0.188014 -0.46043 -0.500328 -0.169928 -0.460704 
-0.375302 -0.230182 -0.460634 -0.294902 -0.2199 -0.460573 -0.215387 -0.209944 -0.46048 
-0.0539499 -0.198971 -0.460718 0.0302707 -0.232429 -0.460455 0.088162 -0.177733 -0.46099 
0.167199 -0.169158 -0.46022 0.243109 -0.192155 -0.460221 0.389888 -0.203572 -0.461069 
0.469707 -0.232354 -0.460541 0.574278 -0.1793 -0.460932 0.653604 -0.18554 -0.460564 
0.73298 -0.177787 -0.460525 0.819965 -0.185921 -0.460319 0.960489 -0.167935 -0.460518 
-0.894013 -0.132562 -0.460682 -0.814079 -0.123564 -0.460126 -0.744796 -0.16278 -0.460536 
-0.638422 -0.123321 -0.460395 -0.559172 -0.116066 -0.460429 -0.421353 -0.163896 -0.460412 
-0.342511 -0.156362 -0.460717 -0.263689 -0.146455 -0.460314 -0.146981 -0.156947 -0.460548 
-0.0742228 -0.122195 -0.46027 0.01208 -0.154602 -0.461081 0.309017 -0.147886 -0.460563 
0.427502 -0.114405 -0.460721 0.501171 -0.144727 -0.460523 0.618117 -0.113008 -0.460691 
0.810528 -0.107301 -0.460698 0.885996 -0.140466 -0.460758 -0.960082 -0.0763184 -0.460456 
-0.862222 -0.0603992 -0.460697 -0.779805 -0.0513717 -0.460511 -0.708764 -0.087073 -0.460425 
-0.58256 -0.0399574 -0.460391 -0.496866 -0.0671081 -0.460424 -0.418149 -0.0793861 -0.460727 
-0.338481 -0.077008 -0.460419 -0.200568 -0.098225 -0.46068 -0.128989 -0.0643226 -0.460253 
-0.00961603 -0.075277 -0.460006 0.0686494 -0.0479581 -0.461038 0.129495 -0.0993312 -0.460545 
0.208276 -0.073964 -0.460628 0.287941 -0.0708456 -0.460556 0.367145 -0.0624287 -0.460078 
0.442717 -0.0363993 -0.460968 0.546183 -0.0789985 -0.460533 0.661589 -0.0458809 -0.460411 
0.736121 -0.0785809 -0.460577 0.960142 -0.0881677 -0.460808 -0.920897 -0.00682983 -0.460443 
-0.828959 0.0108747 -0.460295 -0.750793 0.0251728 -0.460525 -0.680461 -0.0125933 -0.460723 
-0.464725 0.00552918 -0.460537 -0.381635 -0.00770521 -0.460118 -0.301101 -0.00675011 -0.460913 
-0.221293 -0.00810116 -0.460412 -0.14784 0.0280122 -0.460401 -0.0712121 -0.0102122 -0.460606 
0.00712636 0.00276862 -0.460193 0.0815867 0.0304237 -0.460662 0.143428 -0.0205891 -0.460502 
0.221683 0.00443066 -0.460451 0.301607 0.0078501 -0.46019 0.382707 0.0157583 -0.460777 
0.514083 -0.0115093 -0.43367 0.589225 -0.011936 -0.460804 0.761546 -0.00299452 -0.460154 
0.837082 -0.0324562 -0.460508 0.915645 -0.022198 -0.46096 -0.960661 0.0618882 -0.460423 
-0.881772 0.0699868 -0.460374 -0.803339 0.0854344 -0.461116 -0.641837 0.0829427 -0.460304 
-0.552972 0.0339436 -0.460867 -0.488929 0.0815044 -0.460146 -0.415563 0.062527 -0.435359 
-0.340473 0.0623644 -0.461221 -0.260741 0.0620656 -0.46011 -0.0777943 0.0688497 -0.460773 
0.000769441 0.0822841 -0.460642 0.156574 0.0582235 -0.460278 0.272626 0.0822016 -0.46071 
0.401192 0.0928601 -0.460159 0.460873 0.0411997 -0.46054 0.537131 0.0621521 -0.460543 
0.616569 0.0629188 -0.460452 0.69123 0.0347786 -0.460122 0.754302 0.0839371 -0.460508 
0.824512 0.0458233 -0.460432 0.893104 0.0865789 -0.460413 0.960336 0.0437957 -0.460201 
-0.960548 0.141389 -0.461039 -0.85612 0.145056 -0.46035 -0.780664 0.157039 -0.436326 
-0.725142 0.100368 -0.460715 -0.629331 0.161588 -0.460811 -0.566831 0.112235 -0.46019 
-0.502973 0.159815 -0.461032 -0.382952 0.130354 -0.460836 -0.303473 0.133079 -0.460618 
-0.191782 0.101743 -0.46089 -0.119994 0.135849 -0.461031 -0.0386421 0.152475 -0.460699 
0.0885665 0.109273 -0.46014 0.204225 0.122888 -0.460175 0.333247 0.133664 -0.460934 
0.478198 0.12779 -0.460849 0.565708 0.136476 -0.460539 0.647142 0.136497 -0.460252 
0.753595 0.163738 -0.46088 0.82311 0.125233 -0.460433 0.891121 0.166393 -0.460485 
0.960702 0.128781 -0.460413 -0.960384 0.220675 -0.460471 -0.825193 0.218207 -0.460574 
-0.708421 0.178104 -0.461132 -0.429938 0.195179 -0.460134 -0.345751 0.200425 -0.460571 
-0.228665 0.193699 -0.460834 -0.140182 0.213185 -0.460186 0.0483391 0.193005 -0.461399 
0.153227 0.183953 -0.461856 0.265448 0.174253 -0.460789 0.338553 0.212893 -0.461179 
0.40667 0.171655 -0.460518 0.515402 0.198346 -0.460424 0.606309 0.205221 -0.461124 
0.686171 0.20606 -0.4602 0.82163 0.204969 -0.460478 0.960302 0.208643 -0.460313 
-0.891962 0.260769 -0.460314 -0.821805 0.298069 -0.460673 -0.750626 0.245736 -0.460599 
-0.60668 0.249469 -0.460537 -0.522897 0.247617 -0.461001 -0.391433 0.26523 -0.460476 
-0.284215 0.25077 -0.460217 -0.189243 0.276152 -0.461317 -0.0636329 0.235542 -0.460967 
0.0127587 0.264319 -0.460534 0.109591 0.252124 -0.460645 0.19037 0.253838 -0.460096 
0.270179 0.253976 -0.460103 0.378646 0.281331 -0.460497 0.447135 0.240018 -0.460544 
0.555766 0.267 -0.460979 0.650506 0.277314 -0.460673 0.755969 0.249625 -0.460516 
0.889964 0.245654 -0.460511 -0.96056 0.300646 -0.460185 -0.891476 0.340358 -0.460435 
-0.740458 0.32431 -0.460534 -0.657926 0.310872 -0.460114 -0.571695 0.320953 -0.460369 
-0.459512 0.352694 -0.461237 -0.332851 0.319457 -0.460548 -0.253221 0.323767 -0.460116 
-0.134218 0.356892 -0.460869 -0.0503965 0.313845 -0.461418 0.0696056 0.321258 -0.461 
0.14903 0.322161 -0.460724 0.229694 0.322843 -0.460331 0.31028 0.322919 -0.460555 
0.419107 0.349951 -0.460601 0.487565 0.30859 -0.460717 0.59655 0.335875 -0.460589 
0.720597 0.32099 -0.460487 0.800988 0.321874 -0.460538 0.88076 0.323879 -0.460411 
0.957595 0.301818 -0.460773 -0.960299 0.380414 -0.460575 -0.89115 0.420322 -0.460777 
-0.774534 0.395821 -0.460329 -0.688617 0.384792 -0.460443 -0.609128 0.391306 -0.460841 
-0.529531 0.39088 -0.460199 -0.382679 0.394876 -0.460756 -0.296234 0.39089 -0.460423 
-0.207252 0.388222 -0.460737 -0.0607235 0.392123 -0.461914 0.0224197 0.387856 -0.460986 
0.108058 0.391185 -0.461268 0.188916 0.391446 -0.461044 0.268879 0.39161 -0.460716 
0.350679 0.391703 -0.460461 0.459931 0.418698 -0.460365 0.529963 0.380138 -0.46012 
0.678229 0.388561 -0.460564 0.758073 0.391564 -0.460677 0.839513 0.39189 -0.460274 
0.921185 0.391811 -0.460689 -0.960151 0.460224 -0.460124 -0.821578 0.460164 -0.46059 
-0.728503 0.460377 -0.460414 -0.649067 0.460272 -0.460505 -0.569565 0.460289 -0.460475 
-0.490246 0.460426 -0.460716 -0.336559 0.460074 -0.460115 -0.256645 0.460134 -0.460299 
-0.177075 0.460845 -0.460458 -0.0981135 0.461075 -0.461367 -0.0137761 0.45963 -0.459681 
0.0677313 0.460128 -0.460685 0.147767 0.460163 -0.460505 0.228395 0.46039 -0.460444 
0.30884 0.460222 -0.46038 0.391665 0.460159 -0.460174 0.528004 0.460101 -0.461026 
0.633804 0.459045 -0.460481 0.713634 0.460108 -0.460398 0.798686 0.460302 -0.460481 
0.880568 0.460308 -0.460389 0.960417 0.460495 -0.460274 -0.960212 -0.461032 -0.399323 
-0.884006 -0.460168 -0.376113 -0.727025 -0.460038 -0.39122 -0.64736 -0.460421 -0.391682 
-0.567458 -0.460163 -0.391696 -0.487682 -0.460261 -0.3916 -0.406997 -0.459962 -0.39157 
-0.323392 -0.460255 -0.395154 -0.218481 -0.460495 -0.406281 -0.118778 -0.460508 -0.391652 
-0.0392853 -0.460836 -0.391288 0.0401131 -0.460333 -0.391358 0.119639 -0.460179 -0.391335 
0.199326 -0.460275 -0.391457 0.279117 -0.460414 -0.39155 0.358809 -0.460436 -0.391509 
0.438346 -0.460842 -0.391308 0.531556 -0.46086 -0.399913 0.621779 -0.46007 -0.391773 
0.701763 -0.459995 -0.391463 0.780968 -0.444218 -0.393407 0.86044 -0.459448 -0.392214 
0.960097 -0.460261 -0.402097 -0.960579 -0.382859 -0.38697 -0.832393 -0.429311 -0.428085 
-0.770493 -0.392998 -0.393633 -0.688006 -0.38953 -0.391995 -0.607887 -0.3956 -0.368324 
[...]
POINT_DATA 1355
FIELD FieldData 7
id 1 1355 int
366 408 584 322 662 206 563 371 419 
523 551 145 607 585 151 530 365 186 
620 156 70 664 692 632 759 714 370 
120 208 723 59 512 435 712 211 457 
20 256 338 470 195 678 320 643 534 
171 196 105 493 581 542 514 245 234 
347 708 214 280 305 529 396 291 444 
367 476 155 724 314 136 721 375 250 
442 95 498 54 200 431 623 593 109 
184 446 647 159 267 289 373 275 324 
62 533 376 589 76 722 239 543 576 
75 202 572 683 676 680 445 83 641 
185 331 96 99 458 575 40 57 31 
281 298 126 300 48 521 531 428 254 
592 758 361 412 14 689 312 252 88 
153 397 483 170 704 321 140 726 143 
142 351 651 528 433 92 690 382 437 
359 154 569 304 439 339 540 639 177 
700 378 459 310 258 182 6 549 369 
323 121 507 423 495 224 612 720 590 
539 461 166 460 97 240 537 127 580 
51 85 544 293 697 634 129 104 602 
742 161 32 384 25 671 74 278 675 
383 71 266 19 22 627 717 162 348 
247 167 125 191 199 294 586 640 441 
596 149 475 463 387 269 130 8 218 
748 420 613 663 16 578 402 682 421 
715 637 299 698 747 261 622 355 571 
411 42 416 227 391 527 557 346 67 
274 319 242 649 9 73 766 409 535 
89 4 260 318 650 388 311 94 618 
39 582 53 673 729 3 69 496 363 
201 188 599 670 228 519 667 472 669 
660 646 654 43 230 226 306 427 316 
614 764 329 545 179 389 12 453 440 
197 452 90 604 386 686 38 587 285 
725 743 181 518 225 761 513 5 559 
72 336 66 116 78 628 131 679 959 
103 273 1154 276 516 47 233 325 108 
223 666 157 455 205 175 287 221 56 
751 736 426 744 642 611 302 413 473 
741 684 118 653 18 770 15 82 272 
100 87 343 490 219 601 290 465 110 
438 372 767 631 255 879 552 307 699 
636 187 550 80 532 313 645 279 509 
556 511 114 757 144 81 668 58 615 
558 644 341 189 407 36 462 597 357 
394 565 169 554 29 334 282 570 424 
286 399 24 616 447 364 183 478 566 
492 718 497 886 248 33 422 11 502 
541 395 46 106 345 192 568 711 86 
60 236 44 112 737 429 479 27 45 
694 326 358 352 746 21 629 522 415 
137 271 2 524 111 102 818 134 216 
733 147 194 148 172 101 775 443 28 
738 710 146 474 180 482 381 374 436 
638 450 253 425 93 827 91 215 505 
403 520 277 591 84 133 626 288 350 
762 193 546 41 970 333 231 330 928 
574 308 328 232 703 432 296 393 284 
687 49 681 400 648 190 128 392 610 
135 209 760 35 665 122 503 750 488 
259 480 469 508 26 113 608 123 222 
709 340 456 251 417 17 292 138 430 
246 98 448 283 404 178 244 132 63 
583 464 891 600 1165 418 547 763 499 
553 229 494 385 617 672 467 119 755 
481 727 526 390 210 728 249 217 573 
871 769 354 158 510 7 739 466 793 
890 500 658 337 986 1166 846 173 567 
1184 930 468 781 927 735 809 1066 1173 
1152 925 685 933 814 921 414 784 265 
749 1288 943 504 787 268 935 831 910 
362 1115 619 903 688 867 1167 410 768 
973 951 1062 963 754 1061 1170 360 828 
235 696 779 875 1147 207 932 241 702 
1091 907 454 812 1255 974 1162 848 914 
829 379 295 707 937 176 982 838 870 
124 691 792 919 603 335 317 406 944 
972 732 165 952 491 765 204 349 904 
894 901 655 79 851 471 734 786 981 
882 356 939 855 141 489 577 30 501 
674 536 52 486 621 918 861 824 895 
487 1284 795 731 800 309 50 605 975 
1052 908 630 1075 434 677 892 801 905 
1078 301 776 962 805 990 332 164 1182 
484 815 401 548 327 198 926 977 657 
794 954 947 656 888 633 730 911 160 
752 790 150 34 560 783 243 837 695 
477 538 220 887 922 835 10 555 380 
803 876 515 791 840 955 65 77 342 
719 107 804 23 965 203 872 929 994 
873 598 884 822 713 774 237 659 1 
344 13 61 960 706 398 859 896 869 
716 55 1041 1156 971 856 115 506 1134 
909 813 257 821 564 139 263 850 174 
609 912 773 917 37 606 297 830 368 
881 625 353 771 772 913 562 405 845 
880 451 949 885 117 525 1001 303 262 
785 213 68 635 64 661 588 449 756 
152 753 701 594 984 923 315 579 377 
485 961 212 693 878 938 1243 561 270 
906 1178 1079 1149 1312 1004 866 823 1334 
1143 988 1076 956 825 1006 1330 163 1123 
1093 1290 1051 958 1305 1211 1113 1193 1279 
1110 1003 1185 849 1049 1133 1058 1159 1302 
1035 826 1231 844 1116 1197 1160 1112 1073 
832 652 847 1097 1316 1032 1267 1347 1000 
1344 868 999 1125 1266 1295 1028 1221 1071 
1086 865 1186 993 1354 1187 802 1139 1285 
1099 1022 1145 1036 1015 808 995 1054 1144 
1213 950 1315 1056 1008 1322 1021 1189 1129 
857 1246 902 985 1346 1014 1283 936 964 
1103 1188 806 780 789 1023 1130 1172 1321 
1020 1095 1050 1111 1138 916 992 1174 1201 
1105 1026 820 782 1089 1292 1065 1087 969 
1135 1077 1012 834 1158 978 924 1183 1119 
1082 1083 797 807 980 1223 1018 842 953 
967 1227 1016 839 1067 1349 1258 1176 1179 
1010 1114 1048 931 1027 799 1150 1220 1216 
836 1037 810 893 1088 1273 1081 1311 1171 
1033 1046 1265 987 1100 1253 1017 1203 968 
1009 1109 862 819 1122 1272 843 1127 934 
899 1080 1269 852 915 948 1096 946 1069 
1057 1268 983 860 1128 1104 997 874 1092 
841 864 1043 798 811 1085 1175 1055 1126 
1309 595 1280 1101 998 1180 1248 1029 1025 
1163 889 1038 1137 1281 1177 777 1053 796 
1148 1063 1011 1042 1229 1230 877 1256 976 
1131 853 1060 858 989 1074 966 940 1045 
1181 1124 1019 1232 778 1118 900 898 1161 
1157 854 1102 996 942 1169 168 945 1287 
1070 1136 1212 1024 1117 1068 1254 740 1059 
1307 1098 979 1040 1208 1313 1142 817 863 
1064 1262 957 883 238 517 816 897 788 
624 1252 1250 1190 1121 1141 1233 1140 941 
1132 1299 1303 1151 1238 1327 1226 1247 1339 
1306 1275 1335 1217 1276 1249 745 1251 1291 
1107 1210 1034 1215 1199 1031 1224 1106 1350 
1323 1297 1329 1341 1005 1202 1237 1047 1348 
1013 1194 1209 1325 1263 1228 1192 833 1205 
1317 1270 1331 1219 1342 1352 1304 1242 1235 
1343 1039 1108 1214 1319 1274 1236 1326 1296 
1301 1294 1164 1308 1044 1333 1084 1286 1234 
1260 1345 1218 1207 1153 1282 1198 1278 1241 
1259 1338 1293 1204 1191 1289 1168 1271 1324 
1007 1240 1072 1196 1261 1314 1094 1300 1245 
1222 1155 1320 1328 1351 1298 991 1200 1195 
1310 1355 1090 1225 1277 1244 1002 1332 1257 
264 1353 1146 705 1264 1318 1239 1337 920 
1206 1120 1340 1030 1336 
type 1 1355 int
1 1 1 1 1 1 1 1 1 
1 1 1 1 1 1 1 1 1 
1 1 1 1 1 1 1 1 1 
1 1 1 1 1 1 1 1 1 
1 1 1 1 1 1 1 1 1 
1 1 1 1 1 1 1 1 1 
1 1 1 1 1 1 1 1 1 
1 1 1 1 1 1 1 1 1 
1 1 1 1 1 1 1 1 1 
1 1 1 1 1 1 1 1 1 
1 1 1 1 1 1 1 1 1 
1 1 1 1 1 1 1 1 1 
1 1 1 1 1 1 1 1 1 
1 1 1 1 1 1 1 1 1 
1 1 1 1 1 1 1 1 1 
1 1 1 1 1 1 1 1 1 
1 1 1 1 1 1 1 1 1 
1 1 1 1 1 1 1 1 1 
1 1 1 1 1 1 1 1 1 
1 1 1 1 1 1 1 1 1 
1 1 1 1 1 1 1 1 1 
1 1 1 1 1 1 1 1 1 
1 1 1 1 1 1 1 1 1 
1 1 1 1 1 1 1 1 1 
1 1 1 1 1 1 1 1 1 
1 1 1 1 1 1 1 1 1 
1 1 1 1 1 1 1 1 1 
1 1 1 1 1 1 1 1 1 
1 1 1 1 1 1 1 1 1 
1 1 1 1 1 1 1 1 1 
1 1 1 1 1 1 1 1 1 
1 1 1 1 1 1 1 1 1 
1 1 1 1 1 1 1 1 1 
1 1 1 1 1 1 1 1 1 
1 1 1 1 1 1 1 1 1 
1 1 1 1 1 1 1 1 1 
1 1 1 1 1 1 1 1 1 
1 1 1 1 1 1 1 1 1 
1 1 1 1 1 1 1 1 1 
1 1 1 1 1 1 1 1 1 
1 1 1 1 1 1 1 1 1 
1 1 1 1 1 1 1 1 1 
1 1 1 1 1 1 1 1 1 
1 1 1 1 1 1 1 1 1 
1 1 1 1 1 1 1 1 1 
1 1 1 1 1 1 1 1 1 
1 1 1 1 1 1 1 1 1 
1 1 1 1 1 1 1 1 1 
1 1 1 1 1 1 1 1 1 
1 1 1 1 1 1 1 1 1 
1 1 1 1 1 1 1 1 1 
1 1 1 1 1 1 1 1 1 
1 1 1 1 1 1 1 1 1 
1 1 1 1 1 1 1 1 1 
1 1 1 1 1 1 1 1 1 
1 1 1 1 1 1 1 1 1 
1 1 1 1 1 1 1 1 1 
1 1 1 1 1 1 1 1 1 
1 1 1 1 1 1 1 1 1 
1 1 1 1 1 1 1 1 1 
1 1 1 1 1 1 1 1 1 
1 1 1 1 1 1 1 1 1 
1 1 1 1 1 1 1 1 1 
1 1 1 1 1 1 1 1 1 
1 1 1 1 1 1 1 1 1 
1 1 1 1 1 1 1 1 1 
1 1 1 1 1 1 1 1 1 
1 1 1 1 1 1 1 1 1 
1 1 1 1 1 1 1 1 1 
1 1 1 1 1 1 1 1 1 
1 1 1 1 1 1 1 1 1 
1 1 1 1 1 1 1 1 1 
1 1 1 1 1 1 1 1 1 
1 1 1 1 1 1 1 1 1 
1 1 1 1 1 1 1 1 1 
1 1 1 1 1 1 1 1 1 
1 1 1 1 1 1 1 1 1 
1 1 1 1 1 1 1 1 1 
1 1 1 1 1 1 1 1 1 
1 1 1 1 1 1 1 1 1 
1 1 1 1 1 1 1 1 1 
1 1 1 1 1 1 1 1 1 
1 1 1 1 1 1 1 1 1 
1 1 1 1 1 1 1 1 1 
1 1 1 1 1 1 1 1 1 
1 1 1 1 1 1 1 1 1 
1 1 1 1 1 1 1 1 1 
1 1 1 1 1 1 1 1 1 
1 1 1 1 1 1 1 1 1 
1 1 1 1 1 1 1 1 1 
1 1 1 1 1 1 1 1 1 
1 1 1 1 1 1 1 1 1 
1 1 1 1 1 1 1 1 1 
1 1 1 1 1 1 1 1 1 
1 1 1 1 1 1 1 1 1 
1 1 1 1 1 1 1 1 1 
1 1 1 1 1 1 1 1 1 
1 1 1 1 1 1 1 1 1 
1 1 1 1 1 1 1 1 1 
1 1 1 1 1 1 1 1 1 
1 1 1 1 1 1 1 1 1 
1 1 1 1 1 1 1 1 1 
1 1 1 1 1 1 1 1 1 
1 1 1 1 1 1 1 1 1 
1 1 1 1 1 1 1 1 1 
1 1 1 1 1 1 1 1 1 
1 1 1 1 1 1 1 1 1 
1 1 1 1 1 1 1 1 1 
1 1 1 1 1 1 1 1 1 
1 1 1 1 1 1 1 1 1 
1 1 1 1 1 1 1 1 1 
1 1 1 1 1 1 1 1 1 
1 1 1 1 1 1 1 1 1 
1 1 1 1 1 1 1 1 1 
1 1 1 1 1 1 1 1 1 
1 1 1 1 1 1 1 1 1 
1 1 1 1 1 1 1 1 1 
1 1 1 1 1 1 1 1 1 
1 1 1 1 1 1 1 1 1 
1 1 1 1 1 1 1 1 1 
1 1 1 1 1 1 1 1 1 
1 1 1 1 1 1 1 1 1 
1 1 1 1 1 1 1 1 1 
1 1 1 1 1 1 1 1 1 
1 1 1 1 1 1 1 1 1 
1 1 1 1 1 1 1 1 1 
1 1 1 1 1 1 1 1 1 
1 1 1 1 1 1 1 1 1 
1 1 1 1 1 1 1 1 1 
1 1 1 1 1 1 1 1 1 
1 1 1 1 1 1 1 1 1 
1 1 1 1 1 1 1 1 1 
1 1 1 1 1 1 1 1 1 
1 1 1 1 1 1 1 1 1 
1 1 1 1 1 1 1 1 1 
1 1 1 1 1 1 1 1 1 
1 1 1 1 1 1 1 1 1 
1 1 1 1 1 1 1 1 1 
1 1 1 1 1 1 1 1 1 
1 1 1 1 1 1 1 1 1 
1 1 1 1 1 1 1 1 1 
1 1 1 1 1 1 1 1 1 
1 1 1 1 1 1 1 1 1 
1 1 1 1 1 1 1 1 1 
1 1 1 1 1 1 1 1 1 
1 1 1 1 1 1 1 1 1 
1 1 1 1 1 1 1 1 1 
1 1 1 1 1 1 1 1 1 
1 1 1 1 1 1 1 1 1 
1 1 1 1 1 1 1 1 1 
1 1 1 1 1 
i 3 1355 int
0 0 0 0 0 0 0 0 0 
0 0 0 0 0 0 0 0 0 
0 0 0 0 0 0 0 0 0 
0 0 0 0 0 0 0 0 0 
0 0 0 0 0 0 0 0 0 
0 0 0 0 0 0 0 0 0 
0 0 0 0 0 0 0 0 0 
0 0 0 0 0 0 0 0 0 
0 0 0 0 0 0 0 0 0 
0 0 0 0 0 0 0 0 0 
0 0 0 0 0 0 0 0 0 
0 0 0 0 0 0 0 0 0 
0 0 0 0 0 0 0 0 0 
0 0 0 0 0 0 0 0 0 
0 0 0 0 0 0 0 0 0 
0 0 0 0 0 0 0 0 0 
0 0 0 0 0 0 0 0 0 
0 0 0 0 0 0 0 0 0 
0 0 0 0 0 0 0 0 0 
0 0 0 0 0 0 0 0 0 
0 0 0 0 0 0 0 0 0 
0 0 0 0 0 0 0 0 0 
0 0 0 0 0 0 0 0 0 
0 0 0 0 0 0 0 0 0 
0 0 0 0 0 0 0 0 0 
0 0 0 0 0 0 0 0 0 
0 0 0 0 0 0 0 0 0 
0 0 0 0 0 0 0 0 0 
0 0 0 0 0 0 0 0 0 
0 0 0 0 0 0 0 0 0 
0 0 0 0 0 0 0 0 0 
0 0 0 0 0 0 0 0 0 
0 0 0 0 0 0 0 0 0 
0 0 0 0 0 0 0 0 0 
0 0 0 0 0 0 0 0 0 
0 0 0 0 0 0 0 0 0 
0 0 0 0 0 0 0 0 0 
0 0 0 0 0 0 0 0 0 
0 0 0 0 0 0 0 0 0 
0 0 0 0 0 0 0 0 0 
0 0 0 0 0 0 0 0 0 
0 0 0 0 0 0 0 0 0 
0 0 0 0 0 0 0 0 0 
0 0 0 0 0 0 0 0 0 
0 0 0 0 0 0 0 0 0 
0 0 0 0 0 0 0 0 0 
0 0 0 0 0 0 0 0 0 
0 0 0 0 0 0 0 0 0 
0 0 0 0 0 0 0 0 0 
0 0 0 0 0 0 0 0 0 
0 0 0 0 0 0 0 0 0 
0 0 0 0 0 0 0 0 0 
0 0 0 0 0 0 0 0 0 
0 0 0 0 0 0 0 0 0 
0 0 0 0 0 0 0 0 0 
0 0 0 0 0 0 0 0 0 
0 0 0 0 0 0 0 0 0 
0 0 0 0 0 0 0 0 0 
0 0 0 0 0 0 0 0 0 
0 0 0 0 0 0 0 0 0 
0 0 0 0 0 0 0 0 0 
0 0 0 0 0 0 0 0 0 
0 0 0 0 0 0 0 0 0 
0 0 0 0 0 0 0 0 0 
0 0 0 0 0 0 0 0 0 
0 0 0 0 0 0 0 0 0 
0 0 0 0 0 0 0 0 0 
0 0 0 0 0 0 0 0 0 
0 0 0 0 0 0 0 0 0 
0 0 0 0 0 0 0 0 0 
0 0 0 0 0 0 0 0 0 
0 0 0 0 0 0 0 0 0 
0 0 0 0 0 0 0 0 0 
0 0 0 0 0 0 0 0 0 
0 0 0 0 0 0 0 0 0 
0 0 0 0 0 0 0 0 0 
0 0 0 0 0 0 0 0 0 
0 0 0 0 0 0 0 0 0 
0 0 0 0 0 0 0 0 0 
0 0 0 0 0 0 0 0 0 
0 0 0 0 0 0 0 0 0 
0 0 0 0 0 0 0 0 0 
0 0 0 0 0 0 0 0 0 
0 0 0 0 0 0 0 0 0 
0 0 0 0 0 0 0 0 0 
0 0 0 0 0 0 0 0 0 
0 0 0 0 0 0 0 0 0 
0 0 0 0 0 0 0 0 0 
0 0 0 0 0 0 0 0 0 
0 0 0 0 0 0 0 0 0 
0 0 0 0 0 0 0 0 0 
0 0 0 0 0 0 0 0 0 
0 0 0 0 0 0 0 0 0 
0 0 0 0 0 0 0 0 0 
0 0 0 0 0 0 0 0 0 
0 0 0 0 0 0 0 0 0 
0 0 0 0 0 0 0 0 0 
0 0 0 0 0 0 0 0 0 
0 0 0 0 0 0 0 0 0 
0 0 0 0 0 0 0 0 0 
0 0 0 0 0 0 0 0 0 
0 0 0 0 0 0 0 0 0 
0 0 0 0 0 0 0 0 0 
0 0 0 0 0 0 0 0 0 
0 0 0 0 0 0 0 0 0 
0 0 0 0 0 0 0 0 0 
0 0 0 0 0 0 0 0 0 
0 0 0 0 0 0 0 0 0 
0 0 0 0 0 0 0 0 0 
0 0 0 0 0 0 0 0 0 
0 0 0 0 0 0 0 0 0 
0 0 0 0 0 0 0 0 0 
0 0 0 0 0 0 0 0 0 
0 0 0 0 0 0 0 0 0 
0 0 0 0 0 0 0 0 0 
0 0 0 0 0 0 0 0 0 
0 0 0 0 0 0 0 0 0 
0 0 0 0 0 0 0 0 0 
0 0 0 0 0 0 0 0 0 
0 0 0 0 0 0 0 0 0 
0 0 0 0 0 0 0 0 0 
0 0 0 0 0 0 0 0 0 
0 0 0 0 0 0 0 0 0 
0 0 0 0 0 0 0 0 0 
0 0 0 0 0 0 0 0 0 
0 0 0 0 0 0 0 0 0 
0 0 0 0 0 0 0 0 0 
0 0 0 0 0 0 0 0 0 
0 0 0 0 0 0 0 0 0 
0 0 0 0 0 0 0 0 0 
0 0 0 0 0 0 0 0 0 
0 0 0 0 0 0 0 0 0 
0 0 0 0 0 0 0 0 0 
0 0 0 0 0 0 0 0 0 
0 0 0 0 0 0 0 0 0 
0 0 0 0 0 0 0 0 0 
0 0 0 0 0 0 0 0 0 
0 0 0 0 0 0 0 0 0 
0 0 0 0 0 0 0 0 0 
0 0 0 0 0 0 0 0 0 
0 0 0 0 0 0 0 0 0 
0 0 0 0 0 0 0 0 0 
0 0 0 0 0 0 0 0 0 
0 0 0 0 0 0 0 0 0 
0 0 0 0 0 0 0 0 0 
0 0 0 0 0 0 0 0 0 
0 0 0 0 0 0 0 0 0 
0 0 0 0 0 0 0 0 0 
0 0 0 0 0 0 0 0 0 
0 0 0 0 0 0 0 0 0 
0 0 0 0 0 0 0 0 0 
0 0 0 0 0 0 0 0 0 
0 0 0 0 0 0 0 0 0 
0 0 0 0 0 0 0 0 0 
0 0 0 0 0 0 0 0 0 
0 0 0 0 0 0 0 0 0 
0 0 0 0 0 0 0 0 0 
0 0 0 0 0 0 0 0 0 
0 0 0 0 0 0 0 0 0 
0 0 0 0 0 0 0 0 0 
0 0 0 0 0 0 0 0 0 
0 0 0 0 0 0 0 0 0 
0 0 0 0 0 0 0 0 0 
0 0 0 0 0 0 0 0 0 
0 0 0 0 0 0 0 0 0 
0 0 0 0 0 0 0 0 0 
0 0 0 0 0 0 0 0 0 
0 0 0 0 0 0 0 0 0 
0 0 0 0 0 0 0 0 0 
0 0 0 0 0 0 0 0 0 
0 0 0 0 0 0 0 0 0 
0 0 0 0 0 0 0 0 0 
0 0 0 0 0 0 0 0 0 
0 0 0 0 0 0 0 0 0 
0 0 0 0 0 0 0 0 0 
0 0 0 0 0 0 0 0 0 
0 0 0 0 0 0 0 0 0 
0 0 0 0 0 0 0 0 0 
0 0 0 0 0 0 0 0 0 
0 0 0 0 0 0 0 0 0 
0 0 0 0 0 0 0 0 0 
0 0 0 0 0 0 0 0 0 
0 0 0 0 0 0 0 0 0 
0 0 0 0 0 0 0 0 0 
0 0 0 0 0 0 0 0 0 
0 0 0 0 0 0 0 0 0 
0 0 0 0 0 0 0 0 0 
0 0 0 0 0 0 0 0 0 
0 0 0 0 0 0 0 0 0 
0 0 0 0 0 0 0 0 0 
0 0 0 0 0 0 0 0 0 
0 0 0 0 0 0 0 0 0 
0 0 0 0 0 0 0 0 0 
0 0 0 0 0 0 0 0 0 
0 0 0 0 0 0 0 0 0 
0 0 0 0 0 0 0 0 0 
0 0 0 0 0 0 0 0 0 
0 0 0 0 0 0 0 0 0 
0 0 0 0 0 0 0 0 0 
0 0 0 0 0 0 0 0 0 
0 0 0 0 0 0 0 0 0 
0 0 0 0 0 0 0 0 0 
0 0 0 0 0 0 0 0 0 
0 0 0 0 0 0 0 0 0 
0 0 0 0 0 0 0 0 0 
0 0 0 0 0 0 0 0 0 
0 0 0 0 0 0 0 0 0 
0 0 0 0 0 0 0 0 0 
0 0 0 0 0 0 0 0 0 
0 0 0 0 0 0 0 0 0 
0 0 0 0 0 0 0 0 0 
0 0 0 0 0 0 0 0 0 
0 0 0 0 0 0 0 0 0 
0 0 0 0 0 0 0 0 0 
0 0 0 0 0 0 0 0 0 
0 0 0 0 0 0 0 0 0 
0 0 0 0 0 0 0 0 0 
0 0 0 0 0 0 0 0 0 
0 0 0 0 0 0 0 0 0 
0 0 0 0 0 0 0 0 0 
0 0 0 0 0 0 0 0 0 
0 0 0 0 0 0 0 0 0 
0 0 0 0 0 0 0 0 0 
0 0 0 0 0 0 0 0 0 
0 0 0 0 0 0 0 0 0 
0 0 0 0 0 0 0 0 0 
0 0 0 0 0 0 0 0 0 
0 0 0 0 0 0 0 0 0 
0 0 0 0 0 0 0 0 0 
0 0 0 0 0 0 0 0 0 
0 0 0 0 0 0 0 0 0 
0 0 0 0 0 0 0 0 0 
0 0 0 0 0 0 0 0 0 
0 0 0 0 0 0 0 0 0 
0 0 0 0 0 0 0 0 0 
0 0 0 0 0 0 0 0 0 
0 0 0 0 0 0 0 0 0 
0 0 0 0 0 0 0 0 0 
0 0 0 0 0 0 0 0 0 
0 0 0 0 0 0 0 0 0 
0 0 0 0 0 0 0 0 0 
0 0 0 0 0 0 0 0 0 
0 0 0 0 0 0 0 0 0 
0 0 0 0 0 0 0 0 0 
0 0 0 0 0 0 0 0 0 
0 0 0 0 0 0 0 0 0 
0 0 0 0 0 0 0 0 0 
0 0 0 0 0 0 0 0 0 
0 0 0 0 0 0 0 0 0 
0 0 0 0 0 0 0 0 0 
0 0 0 0 0 0 0 0 0 
0 0 0 0 0 0 0 0 0 
0 0 0 0 0 0 0 0 0 
0 0 0 0 0 0 0 0 0 
0 0 0 0 0 0 0 0 0 
0 0 0 0 0 0 0 0 0 
0 0 0 0 0 0 0 0 0 
0 0 0 0 0 0 0 0 0 
0 0 0 0 0 0 0 0 0 
0 0 0 0 0 0 0 0 0 
0 0 0 0 0 0 0 0 0 
0 0 0 0 0 0 0 0 0 
0 0 0 0 0 0 0 0 0 
0 0 0 0 0 0 0 0 0 
0 0 0 0 0 0 0 0 0 
0 0 0 0 0 0 0 0 0 
0 0 0 0 0 0 0 0 0 
0 0 0 0 0 0 0 0 0 
0 0 0 0 0 0 0 0 0 
0 0 0 0 0 0 0 0 0 
0 0 0 0 0 0 0 0 0 
0 0 0 0 0 0 0 0 0 
0 0 0 0 0 0 0 0 0 
0 0 0 0 0 0 0 0 0 
0 0 0 0 0 0 0 0 0 
0 0 0 0 0 0 0 0 0 
0 0 0 0 0 0 0 0 0 
0 0 0 0 0 0 0 0 0 
0 0 0 0 0 0 0 0 0 
0 0 0 0 0 0 0 0 0 
0 0 0 0 0 0 0 0 0 
0 0 0 0 0 0 0 0 0 
0 0 0 0 0 0 0 0 0 
0 0 0 0 0 0 0 0 0 
0 0 0 0 0 0 0 0 0 
0 0 0 0 0 0 0 0 0 
0 0 0 0 0 0 0 0 0 
0 0 0 0 0 0 0 0 0 
0 0 0 0 0 0 0 0 0 
0 0 0 0 0 0 0 0 0 
0 0 0 0 0 0 0 0 0 
0 0 0 0 0 0 0 0 0 
0 0 0 0 0 0 0 0 0 
0 0 0 0 0 0 0 0 0 
0 0 0 0 0 0 0 0 0 
0 0 0 0 0 0 0 0 0 
0 0 0 0 0 0 0 0 0 
0 0 0 0 0 0 0 0 0 
0 0 0 0 0 0 0 0 0 
0 0 0 0 0 0 0 0 0 
0 0 0 0 0 0 0 0 0 
0 0 0 0 0 0 0 0 0 
0 0 0 0 0 0 0 0 0 
0 0 0 0 0 0 0 0 0 
0 0 0 0 0 0 0 0 0 
0 0 0 0 0 0 0 0 0 
0 0 0 0 0 0 0 0 0 
0 0 0 0 0 0 0 0 0 
0 0 0 0 0 0 0 0 0 
0 0 0 0 0 0 0 0 0 
0 0 0 0 0 0 0 0 0 
0 0 0 0 0 0 0 0 0 
0 0 0 0 0 0 0 0 0 
0 0 0 0 0 0 0 0 0 
0 0 0 0 0 0 0 0 0 
0 0 0 0 0 0 0 0 0 
0 0 0 0 0 0 0 0 0 
0 0 0 0 0 0 0 0 0 
0 0 0 0 0 0 0 0 0 
0 0 0 0 0 0 0 0 0 
0 0 0 0 0 0 0 0 0 
0 0 0 0 0 0 0 0 0 
0 0 0 0 0 0 0 0 0 
0 0 0 0 0 0 0 0 0 
0 0 0 0 0 0 0 0 0 
0 0 0 0 0 0 0 0 0 
0 0 0 0 0 0 0 0 0 
0 0 0 0 0 0 0 0 0 
0 0 0 0 0 0 0 0 0 
0 0 0 0 0 0 0 0 0 
0 0 0 0 0 0 0 0 0 
0 0 0 0 0 0 0 0 0 
0 0 0 0 0 0 0 0 0 
0 0 0 0 0 0 0 0 0 
0 0 0 0 0 0 0 0 0 
0 0 0 0 0 0 0 0 0 
0 0 0 0 0 0 0 0 0 
0 0 0 0 0 0 0 0 0 
0 0 0 0 0 0 0 0 0 
0 0 0 0 0 0 0 0 0 
0 0 0 0 0 0 0 0 0 
0 0 0 0 0 0 0 0 0 
0 0 0 0 0 0 0 0 0 
0 0 0 0 0 0 0 0 0 
0 0 0 0 0 0 0 0 0 
0 0 0 0 0 0 0 0 0 
0 0 0 0 0 0 0 0 0 
0 0 0 0 0 0 0 0 0 
0 0 0 0 0 0 0 0 0 
0 0 0 0 0 0 0 0 0 
0 0 0 0 0 0 0 0 0 
0 0 0 0 0 0 0 0 0 
0 0 0 0 0 0 0 0 0 
0 0 0 0 0 0 0 0 0 
0 0 0 0 0 0 0 0 0 
0 0 0 0 0 0 0 0 0 
0 0 0 0 0 0 0 0 0 
0 0 0 0 0 0 0 0 0 
0 0 0 0 0 0 0 0 0 
0 0 0 0 0 0 0 0 0 
0 0 0 0 0 0 0 0 0 
0 0 0 0 0 0 0 0 0 
0 0 0 0 0 0 0 0 0 
0 0 0 0 0 0 0 0 0 
0 0 0 0 0 0 0 0 0 
0 0 0 0 0 0 0 0 0 
0 0 0 0 0 0 0 0 0 
0 0 0 0 0 0 0 0 0 
0 0 0 0 0 0 0 0 0 
0 0 0 0 0 0 0 0 0 
0 0 0 0 0 0 0 0 0 
0 0 0 0 0 0 0 0 0 
0 0 0 0 0 0 0 0 0 
0 0 0 0 0 0 0 0 0 
0 0 0 0 0 0 0 0 0 
0 0 0 0 0 0 0 0 0 
0 0 0 0 0 0 0 0 0 
0 0 0 0 0 0 0 0 0 
0 0 0 0 0 0 0 0 0 
0 0 0 0 0 0 0 0 0 
0 0 0 0 0 0 0 0 0 
0 0 0 0 0 0 0 0 0 
0 0 0 0 0 0 0 0 0 
0 0 0 0 0 0 0 0 0 
0 0 0 0 0 0 0 0 0 
0 0 0 0 0 0 0 0 0 
0 0 0 0 0 0 0 0 0 
0 0 0 0 0 0 0 0 0 
0 0 0 0 0 0 0 0 0 
0 0 0 0 0 0 0 0 0 
0 0 0 0 0 0 0 0 0 
0 0 0 0 0 0 0 0 0 
0 0 0 0 0 0 0 0 0 
0 0 0 0 0 0 0 0 0 
0 0 0 0 0 0 0 0 0 
0 0 0 0 0 0 0 0 0 
0 0 0 0 0 0 0 0 0 
0 0 0 0 0 0 0 0 0 
0 0 0 0 0 0 0 0 0 
0 0 0 0 0 0 0 0 0 
0 0 0 0 0 0 0 0 0 
0 0 0 0 0 0 0 0 0 
0 0 0 0 0 0 0 0 0 
0 0 0 0 0 0 0 0 0 
0 0 0 0 0 0 0 0 0 
0 0 0 0 0 0 0 0 0 
0 0 0 0 0 0 0 0 0 
0 0 0 0 0 0 0 0 0 
0 0 0 0 0 0 0 0 0 
0 0 0 0 0 0 0 0 0 
0 0 0 0 0 0 0 0 0 
0 0 0 0 0 0 0 0 0 
0 0 0 0 0 0 0 0 0 
0 0 0 0 0 0 0 0 0 
0 0 0 0 0 0 0 0 0 
0 0 0 0 0 0 0 0 0 
0 0 0 0 0 0 0 0 0 
0 0 0 0 0 0 0 0 0 
0 0 0 0 0 0 0 0 0 
0 0 0 0 0 0 0 0 0 
0 0 0 0 0 0 0 0 0 
0 0 0 0 0 0 0 0 0 
0 0 0 0 0 0 0 0 0 
0 0 0 0 0 0 0 0 0 
0 0 0 0 0 0 0 0 0 
0 0 0 0 0 0 0 0 0 
0 0 0 0 0 0 0 0 0 
0 0 0 0 0 0 0 0 0 
0 0 0 0 0 0 0 0 0 
0 0 0 0 0 0 0 0 0 
0 0 0 0 0 0 0 0 0 
0 0 0 0 0 0 0 0 0 
0 0 0 0 0 0 0 0 0 
0 0 0 0 0 0 0 0 0 
0 0 0 0 0 0 0 0 0 
0 0 0 0 0 0 0 0 0 
0 0 0 0 0 0 0 0 0 
0 0 0 0 0 0 0 0 0 
0 0 0 0 0 0 0 0 0 
0 0 0 0 0 0 0 0 0 
0 0 0 0 0 0 0 0 0 
0 0 0 0 0 0 0 0 0 
0 0 0 0 0 0 0 0 0 
0 0 0 0 0 0 0 0 0 
0 0 0 0 0 0 0 0 0 
0 0 0 0 0 0 0 0 0 
0 0 0 0 0 0 0 0 0 
0 0 0 0 0 0 0 0 0 
0 0 0 0 0 0 0 0 0 
0 0 0 0 0 0 0 0 0 
0 0 0 0 0 0 0 0 0 
0 0 0 0 0 0 
v 3 1355 double
-0.00022859 -0.000103267 -9.31215e-05 -0.00026078 -0.000254024 -0.000181293 5.1991e-05 0.00017343 0.000262437 
0.000229676 0.000170713 0.000245208 0.000580445 0.000340304 -0.00016973 0.000229793 0.000354985 0.000569718 
0.000405836 0.000758659 1.95943e-05 -0.000192044 0.00187472 0.0016201 -0.000554573 0.000528515 -0.000259518 
0.000540051 0.000177045 -0.00302279 0.00244645 -0.00130939 -0.00454066 0.00168554 -0.000325787 -0.00209176 
0.00119182 -0.000230484 -0.000184321 6.73729e-05 -0.00150764 -0.0015037 0.000450178 0.000502727 -0.00178554 
0.00028297 0.000854248 -0.000429562 -0.00152687 0.000384943 0.000681512 -0.000262984 0.000467416 0.000931307 
-0.000255405 0.000182052 0.000691173 -9.80368e-05 -0.000243336 0.000150681 0.000174823 -0.000331162 4.08279e-05 
-7.6333e-05 9.29646e-05 3.74512e-05 -0.000104616 -0.000104302 2.92855e-05 -0.000172997 -0.00023228 0.000120776 
8.26096e-05 -0.000539451 -0.000116736 0.000283796 0.000450864 0.000224352 0.00129587 8.00249e-05 -0.000797924 
0.000962904 0.000858396 -0.000151488 0.00156144 0.00113041 0.00106314 0.00303322 0.00269344 0.001698 
0.00310088 0.00181503 0.00137765 0.00378899 0.00035146 -0.0047947 0.00348075 0.000506279 -0.00567951 
0.00231081 0.00260204 -0.00225368 0.000786738 0.000721546 -0.00168408 0.0020581 -0.00662521 -0.00219626 
0.00500869 -0.00169533 0.000538584 2.2088e-05 -0.00970381 0.00132533 0.000107128 0.00102747 0.000393757 
0.00156853 -0.000937814 0.00126094 0.00118485 -0.000314903 0.000376624 0.00112411 0.000211994 2.53038e-05 
-3.64159e-05 -0.000242083 -0.000323668 -2.44372e-05 -2.41584e-05 -0.000144586 0.000164635 -8.56655e-06 0.000391133 
0.000442949 -0.000223589 0.000117048 0.000405465 -0.000349425 -0.000120519 4.65175e-05 -6.99835e-05 -0.000960818 
0.000293996 -0.00133681 -0.00167477 -0.00125762 -0.00158697 0.000835309 -0.00114333 -0.002057 -0.000183169 
0.00299439 0.00256819 0.00309101 0.00515321 0.0023272 0.000826825 0.0055937 -0.00485118 -0.00229047 
0.00250987 0.00166277 0.00474166 0.00466188 0.00267755 -0.0012004 0.00452815 0.00545814 -0.000257356 
0.00405264 -0.0041283 0.00210343 0.00363113 -0.00548464 -0.00291931 0.0052258 -0.0046918 -6.66809e-05 
0.00520418 -0.00625237 -0.00243045 0.00297541 -0.00140593 -0.000105785 0.00393933 -0.00170967 0.000496692 
0.000382926 -2.89336e-05 7.6512e-05 -0.000630909 -0.000129873 -0.000417646 -7.51812e-05 -0.000210705 4.22566e-05 
0.000208901 -8.85816e-05 -0.000126197 0.00011418 -0.00040883 -0.000213989 -0.000490063 -0.00124942 -0.00100021 
-0.00177136 -0.000931783 -0.00173323 -0.000942213 -0.00247636 -0.00100995 0.000642185 -0.00365049 0.00199195 