# vtk DataFile Version 2.0
Generated by lpp.py
ASCII
DATASET POLYDATA
POINTS 2 float
0.499977 0.499976 2.86982
0.499976 0.499976 3.20972
VERTICES 2 4
1 0
1 1
POINT_DATA 2
VECTORS i float
0.0 0.0 0.0
0.0 0.0 0.0
VECTORS f float
-0.000740648 -0.000737295 -0.203076
0.00118121 0.0011818 -0.236441
VECTORS omega float
0.0 0.0 0.0
0.0 0.0 0.0
VECTORS v float
-0.000731279 -0.000839063 -7.64358
-0.000594048 -0.000610585 -7.62084
SCALARS radius float 1
LOOKUP_TABLE default
0.0835
0.0835
SCALARS type float 1
LOOKUP_TABLE default
1.0
1.0
SCALARS id float 1
LOOKUP_TABLE default
2.0
1.0

