# vtk DataFile Version 2.0
Generated by lpp.py
ASCII
DATASET POLYDATA
POINTS 2 float
0.499995 0.499995 2.99831
0.499994 0.499994 3.33686
VERTICES 2 4
1 0
1 1
POINT_DATA 2
VECTORS i float
0.0 0.0 0.0
0.0 0.0 0.0
VECTORS f float
-0.000855651 -0.000855572 -0.238077
-0.00223993 -0.00223852 -0.281102
VECTORS omega float
0.0 0.0 0.0
0.0 0.0 0.0
VECTORS v float
-8.44314e-05 -0.000108799 -6.52443
-0.00107751 -0.00108754 -6.43973
SCALARS radius float 1
LOOKUP_TABLE default
0.0835
0.0835
SCALARS type float 1
LOOKUP_TABLE default
1.0
1.0
SCALARS id float 1
LOOKUP_TABLE default
2.0
1.0

