# vtk DataFile Version 2.0
Generated by lpp.py
ASCII
DATASET POLYDATA
POINTS 2 float
0.499983 0.499982 2.91483
0.499984 0.499984 3.25433
VERTICES 2 4
1 0
1 1
POINT_DATA 2
VECTORS i float
0.0 0.0 0.0
0.0 0.0 0.0
VECTORS f float
0.00433046 0.00433462 -0.276687
-0.00252419 -0.0025232 -0.278632
VECTORS omega float
0.0 0.0 0.0
0.0 0.0 0.0
VECTORS v float
-0.0011747 -0.00123611 -7.36899
-0.00119222 -0.0012079 -7.28784
SCALARS radius float 1
LOOKUP_TABLE default
0.0835
0.0835
SCALARS type float 1
LOOKUP_TABLE default
1.0
1.0
SCALARS id float 1
LOOKUP_TABLE default
2.0
1.0

