# vtk DataFile Version 2.0
Generated by lpp.py
ASCII
DATASET POLYDATA
POINTS 2 float
0.5 0.5 3.09941
0.5 0.5 3.43758
VERTICES 2 4
1 0
1 1
POINT_DATA 2
VECTORS i float
0.0 0.0 0.0
0.0 0.0 0.0
VECTORS f float
-0.000179563 -0.000179948 -0.521251
0.00109898 0.00109904 -0.451481
VECTORS omega float
0.0 0.0 0.0
0.0 0.0 0.0
VECTORS v float
2.92372e-05 2.68687e-05 -4.53535
-0.000249421 -0.00025175 -4.56136
SCALARS radius float 1
LOOKUP_TABLE default
0.0835
0.0835
SCALARS type float 1
LOOKUP_TABLE default
1.0
1.0
SCALARS id float 1
LOOKUP_TABLE default
2.0
1.0

