# vtk DataFile Version 2.0
Generated by lpp.py
ASCII
DATASET POLYDATA
POINTS 2 float
0.499944 0.499945 2.57361
0.499984 0.499982 2.90054
VERTICES 2 4
1 0
1 1
POINT_DATA 2
VECTORS i float
0.0 0.0 0.0
0.0 0.0 0.0
VECTORS f float
0.0212487 0.0213632 -0.0873391
-0.000425299 -0.000457626 -0.294324
VECTORS omega float
0.0 0.0 0.0
0.0 0.0 0.0
VECTORS v float
-0.00154483 -0.00145875 -8.64114
0.000574511 0.000714614 -9.58543
SCALARS radius float 1
LOOKUP_TABLE default
0.0835
0.0835
SCALARS type float 1
LOOKUP_TABLE default
1.0
1.0
SCALARS id float 1
LOOKUP_TABLE default
2.0
1.0

