# vtk DataFile Version 2.0
Generated by lpp.py
ASCII
DATASET POLYDATA
POINTS 2 float
0.5 0.5 3.14978
0.5 0.5 3.48884
VERTICES 2 4
1 0
1 1
POINT_DATA 2
VECTORS i float
0.0 0.0 0.0
0.0 0.0 0.0
VECTORS f float
6.6029e-06 6.6029e-06 -0.697999
4.78169e-05 4.78169e-05 -0.675626
VECTORS omega float
0.0 0.0 0.0
0.0 0.0 0.0
VECTORS v float
-2.07458e-06 -2.07458e-06 -2.04644
3.48671e-06 3.48671e-06 -2.13617
SCALARS radius float 1
LOOKUP_TABLE default
0.0835
0.0835
SCALARS type float 1
LOOKUP_TABLE default
1.0
1.0
SCALARS id float 1
LOOKUP_TABLE default
2.0
1.0

