# vtk DataFile Version 2.0
Generated by lpp.py
ASCII
DATASET POLYDATA
POINTS 2 float
0.5 0.5 3.13418
0.5 0.5 3.47277
VERTICES 2 4
1 0
1 1
POINT_DATA 2
VECTORS i float
0.0 0.0 0.0
0.0 0.0 0.0
VECTORS f float
-9.40466e-06 -9.76806e-06 -0.621154
1.29149e-06 9.51662e-07 -0.616589
VECTORS omega float
0.0 0.0 0.0
0.0 0.0 0.0
VECTORS v float
-1.93741e-05 -1.9363e-05 -3.13123
2.8913e-06 1.7627e-06 -3.20399
SCALARS radius float 1
LOOKUP_TABLE default
0.0835
0.0835
SCALARS type float 1
LOOKUP_TABLE default
1.0
1.0
SCALARS id float 1
LOOKUP_TABLE default
2.0
1.0

