# vtk DataFile Version 2.0
Generated by lpp.py
ASCII
DATASET POLYDATA
POINTS 2 float
0.5 0.5 3.11239
0.5 0.5 3.45063
VERTICES 2 4
1 0
1 1
POINT_DATA 2
VECTORS i float
0.0 0.0 0.0
0.0 0.0 0.0
VECTORS f float
-9.09809e-06 -9.46578e-06 -0.546903
-0.000124013 -0.000124789 -0.48712
VECTORS omega float
0.0 0.0 0.0
0.0 0.0 0.0
VECTORS v float
-3.00555e-05 -3.04609e-05 -4.11206
-3.00587e-05 -3.19865e-05 -4.13823
SCALARS radius float 1
LOOKUP_TABLE default
0.0835
0.0835
SCALARS type float 1
LOOKUP_TABLE default
1.0
1.0
SCALARS id float 1
LOOKUP_TABLE default
2.0
1.0

