# vtk DataFile Version 2.0
Generated by lpp.py
ASCII
DATASET POLYDATA
POINTS 2 float
0.5 0.5 3.16
0.5 0.5 3.5
VERTICES 2 4
1 0
1 1
POINT_DATA 2
VECTORS i float
0.0 0.0 0.0
0.0 0.0 0.0
VECTORS f float
0.0 0.0 -3.58846
0.0 0.0 -3.58846
VECTORS omega float
0.0 0.0 0.0
0.0 0.0 0.0
VECTORS v float
0.0 0.0 0.0
0.0 0.0 0.0
SCALARS radius float 1
LOOKUP_TABLE default
0.0835
0.0835
SCALARS type float 1
LOOKUP_TABLE default
1.0
1.0
SCALARS id float 1
LOOKUP_TABLE default
2.0
1.0

