# vtk DataFile Version 2.0
Generated by lpp.py
ASCII
DATASET POLYDATA
POINTS 2 float
0.5 0.5 3.4944
0.5 0.5 3.15504
VERTICES 2 4
1 0
1 1
POINT_DATA 2
VECTORS i float
0.0 0.0 0.0
0.0 0.0 0.0
VECTORS f float
-1.10398e-06 -1.10398e-06 -0.726683
-8.01813e-06 -8.01813e-06 -0.711733
VECTORS omega float
0.0 0.0 0.0
0.0 0.0 0.0
VECTORS v float
-1.43067e-06 -1.43067e-06 -1.55776
1.06933e-06 1.06933e-06 -1.45584
SCALARS radius float 1
LOOKUP_TABLE default
0.0835
0.0835
SCALARS type float 1
LOOKUP_TABLE default
1.0
1.0
SCALARS id float 1
LOOKUP_TABLE default
1.0
2.0

