# vtk DataFile Version 2.0
Generated by lpp.py
ASCII
DATASET POLYDATA
POINTS 2 float
0.499969 0.499967 2.82318
0.499974 0.499973 3.16313
VERTICES 2 4
1 0
1 1
POINT_DATA 2
VECTORS i float
0.0 0.0 0.0
0.0 0.0 0.0
VECTORS f float
0.000237175 0.000264418 -0.163288
0.00401699 0.00414076 -0.285372
VECTORS omega float
0.0 0.0 0.0
0.0 0.0 0.0
VECTORS v float
-0.00112885 -0.00124906 -7.90123
-0.00111135 -0.0011302 -7.95582
SCALARS radius float 1
LOOKUP_TABLE default
0.0835
0.0835
SCALARS type float 1
LOOKUP_TABLE default
1.0
1.0
SCALARS id float 1
LOOKUP_TABLE default
2.0
1.0

