# vtk DataFile Version 2.0
Generated by lpp.py
ASCII
DATASET POLYDATA
POINTS 2 float
0.5 0.5 3.1428
0.5 0.5 3.48161
VERTICES 2 4
1 0
1 1
POINT_DATA 2
VECTORS i float
0.0 0.0 0.0
0.0 0.0 0.0
VECTORS f float
4.41654e-05 4.37692e-05 -0.674927
0.000305775 0.000305775 -0.66788
VECTORS omega float
0.0 0.0 0.0
0.0 0.0 0.0
VECTORS v float
-1.09582e-05 -1.06993e-05 -2.60419
2.73154e-05 2.64623e-05 -2.68267
SCALARS radius float 1
LOOKUP_TABLE default
0.0835
0.0835
SCALARS type float 1
LOOKUP_TABLE default
1.0
1.0
SCALARS id float 1
LOOKUP_TABLE default
2.0
1.0

