# vtk DataFile Version 2.0
Generated by lpp.py
ASCII
DATASET POLYDATA
POINTS 2 float
0.499987 0.499986 2.93662
0.499988 0.499988 3.27588
VERTICES 2 4
1 0
1 1
POINT_DATA 2
VECTORS i float
0.0 0.0 0.0
0.0 0.0 0.0
VECTORS f float
0.000694264 0.000728501 -0.287504
0.0105113 0.0105167 -0.301482
VECTORS omega float
0.0 0.0 0.0
0.0 0.0 0.0
VECTORS v float
-0.00127969 -0.00134249 -7.1563
-0.00150401 -0.00151885 -7.06774
SCALARS radius float 1
LOOKUP_TABLE default
0.0835
0.0835
SCALARS type float 1
LOOKUP_TABLE default
1.0
1.0
SCALARS id float 1
LOOKUP_TABLE default
2.0
1.0

