# vtk DataFile Version 2.0
Generated by lpp.py
ASCII
DATASET POLYDATA
POINTS 2 float
0.5 0.5 3.49814
0.5 0.5 3.15848
VERTICES 2 4
1 0
1 1
POINT_DATA 2
VECTORS i float
0.0 0.0 0.0
0.0 0.0 0.0
VECTORS f float
-0.00010229 -0.00010229 -0.759394
-3.76239e-05 -3.76239e-05 -0.78701
VECTORS omega float
0.0 0.0 0.0
0.0 0.0 0.0
VECTORS v float
3.13192e-06 3.13192e-06 -0.93409
4.58038e-06 4.58038e-06 -0.822107
SCALARS radius float 1
LOOKUP_TABLE default
0.0835
0.0835
SCALARS type float 1
LOOKUP_TABLE default
1.0
1.0
SCALARS id float 1
LOOKUP_TABLE default
1.0
2.0

