# vtk DataFile Version 2.0
Generated by lpp.py
ASCII
DATASET POLYDATA
POINTS 2 float
0.5 0.5 3.12403
0.5 0.5 3.4624
VERTICES 2 4
1 0
1 1
POINT_DATA 2
VECTORS i float
0.0 0.0 0.0
0.0 0.0 0.0
VECTORS f float
8.59441e-06 6.27051e-06 -0.596645
-8.74166e-05 -0.000131451 -0.546067
VECTORS omega float
0.0 0.0 0.0
0.0 0.0 0.0
VECTORS v float
-2.63938e-05 -2.67579e-05 -3.63589
-2.34931e-06 -7.06296e-06 -3.69485
SCALARS radius float 1
LOOKUP_TABLE default
0.0835
0.0835
SCALARS type float 1
LOOKUP_TABLE default
1.0
1.0
SCALARS id float 1
LOOKUP_TABLE default
2.0
1.0

