/*--------------------------------*- C++ -*----------------------------------*\
| =========                 |                                                 |
| \\      /  F ield         | OpenFOAM: The Open Source CFD Toolbox           |
|  \\    /   O peration     | Version:  5.x                                   |
|   \\  /    A nd           | Web:      www.OpenFOAM.org                      |
|    \\/     M anipulation  |                                                 |
\*---------------------------------------------------------------------------*/
FoamFile
{
    version     2.0;
    format      ascii;
    class       volScalarField;
    location    "0.55";
    object      alpha.water;
}
// * * * * * * * * * * * * * * * * * * * * * * * * * * * * * * * * * * * * * //

dimensions      [0 0 0 0 0 0 0];

internalField   nonuniform List<scalar> 
2268
(
1
1
1
1
1
1
1
1
1
1
1
1
1
1
1
1
1
1
0.99397
0.865929
0.873479
1
1
1
1
1
1
1
1
1
1
1
1
1
1
1
1
1
1
1
1
1
0.938678
0.865066
0.999582
0.998597
1
1
1
1
1
1
1
1
1
1
1
1
1
1
1
1
1
1
1
0.999868
0.865247
0.986496
0.996534
1
1
1
1
1
1
1
1
1
1
1
1
1
1
1
1
1
1
1
1
0.973875
0.996013
0.999587
1
1
1
1
1
1
1
1
1
1
1
1
1
1
1
1
1
1
1
1
1
0.999965
1
1
1
1
1
1
1
1
1
1
1
1
1
1
1
1
1
1
1
1
1
1
1
1
1
1
1
0.999999
0.999999
0.999999
0.999999
1
1
1
1
1
1
1
1
1
1
1
1
1
1
1
1
1
0.999997
0.999974
0.999942
0.999929
0.999942
0.999968
0.999988
0.999997
1
1
1
1
1
1
1
1
1
1
1
1
1
1
0.348649
0.258438
0.197032
0.175362
0.0517783
-1.04256e-18
0.124327
0.491245
0.342296
0.192264
0.369491
0.640625
0.736158
0.787678
0.839417
0.887408
0.922951
0.938818
0.804038
0.639186
0.232378
0.185436
0.0394898
0.0115627
0.00969661
0.131093
0.0863787
0.00396461
2.19415e-06
7.47771e-06
0.00624953
0.0568247
0.112807
0.171973
0.286807
0.509881
0.807461
0.95716
0.639545
0.876358
0.887542
0.0682355
0.0140073
0.0123729
0.0997725
4.51062e-05
1.49739e-06
7.09564e-07
1.11553e-06
3.00527e-06
1.3028e-05
6.77193e-05
0.000393197
0.00198125
0.0250833
0.448188
0.89424
0.909319
1
1
0.0221047
0.0140866
0.0232178
0.0523834
1.49869e-06
6.34666e-07
6.03936e-07
6.39231e-07
6.89608e-07
1.07347e-06
4.02003e-06
3.41486e-05
0.000383475
0.0024961
0.165145
0.729815
1
1
1
0.450876
0.015425
0.0347432
0.016929
6.34662e-07
6.00739e-07
5.99496e-07
6.03948e-07
6.1867e-07
6.94522e-07
1.00786e-06
1.50534e-06
2.29111e-05
0.000472586
0.117391
0.968667
1
1
1
0.959223
0.0618884
0.0385324
0.00535926
6.00739e-07
5.99496e-07
5.99496e-07
5.99496e-07
6.06159e-07
6.46386e-07
7.83742e-07
8.14968e-07
9.65041e-08
1.81109e-05
0.0701407
0.994808
1
1
1
0.987674
0.112775
0.0228852
0.0153878
6.00897e-07
6.00739e-07
5.99496e-07
6.06159e-07
6.46456e-07
7.85059e-07
7.89161e-07
3.83554e-07
3.20117e-07
-2.05578e-07
0.0303118
0.862937
1
1
1
0.952816
0.229988
0.0105898
0.014838
6.1096e-07
6.0023e-07
6.29923e-07
1.25051e-06
8.79833e-07
1.51323e-06
2.3339e-06
7.54987e-07
2.20885e-07
2.21341e-07
0.0144972
0.781808
0.970682
0.888176
0.76293
0.669491
0.692079
0.766715
0.852362
0.907678
0.948638
0.980027
0.996488
0.999955
1
1
1
1
1
1
1
1
1
1
1
0.275757
0.138841
0.0311133
0.0288487
0.0874761
0.162213
0.199102
0.22703
0.281766
0.368438
0.479871
0.610331
0.758525
0.901931
1
1
1
1
1
1
1
1
1
-1.17242e-28
8.32981e-13
1.88553e-08
1.21284e-11
3.8339e-12
5.92512e-12
5.06789e-11
3.77229e-10
3.70712e-10
5.67364e-10
5.94399e-09
0.00764401
0.0629474
0.150965
0.298706
0.494906
0.731672
0.96726
1
0.99998
1
0.999999
0.999999
-3.43285e-50
2.44851e-09
9.31299e-08
3.84148e-12
3.84148e-12
3.84148e-12
5.92512e-12
9.316e-11
3.65691e-10
3.7391e-10
5.67364e-10
5.94398e-09
1.12874e-07
1.83798e-06
5.74669e-06
0.0132356
0.0509851
0.161674
0.34357
0.576982
0.802022
0.901295
0.920894
4.53387e-16
1.07197e-11
6.90855e-10
6.28512e-12
6.2598e-12
1.02408e-11
1.0287e-11
2.97905e-10
3.70136e-09
6.11964e-09
6.16679e-09
6.39865e-09
4.46006e-06
1.46507e-05
7.15882e-06
6.43659e-06
6.32485e-06
6.43659e-06
6.61532e-06
7.82823e-06
0.0310759
0.0973289
0.162893
8.45083e-20
5.72233e-16
1.62723e-14
4.5312e-12
3.62732e-11
6.60523e-11
6.28267e-11
6.29888e-11
3.97095e-08
1.8054e-07
1.50558e-07
1.46589e-08
7.71915e-07
5.08467e-05
5.10221e-05
4.18728e-05
6.26408e-06
6.55602e-06
6.59619e-06
6.67882e-06
7.82823e-06
1.09479e-05
1.32851e-05
1.66204e-19
1.35358e-16
7.33781e-14
4.53074e-12
4.92776e-11
1.33027e-10
1.64647e-10
1.09708e-10
3.88456e-08
2.28997e-07
2.28997e-07
2.26359e-07
1.31552e-07
1.31552e-07
1.56672e-06
9.47654e-10
6.24423e-06
5.16532e-06
1.02479e-05
0.00011495
0.000215256
0.000223081
0.00010266
2.88047e-20
3.10866e-18
1.59706e-14
2.25146e-12
3.91924e-11
1.44981e-10
2.02893e-10
1.8683e-10
5.90673e-10
6.39127e-08
1.65204e-07
5.5116e-08
3.76098e-07
1.31893e-06
9.47654e-10
9.11401e-10
9.47488e-10
1.03338e-09
4.54916e-06
0.000156793
0.000237552
0.000237552
0.000237552
3.23499e-21
4.27683e-20
1.98388e-15
6.30036e-13
1.89447e-11
1.07474e-10
1.95268e-10
1.8967e-10
1.75713e-10
7.09497e-11
7.09497e-11
7.0949e-11
8.16935e-07
1.41354e-06
5.25983e-07
1.41577e-10
1.1615e-08
1.07763e-07
1.12043e-05
1.39903e-08
0.000129287
0.000237552
0.000145257
4.59377e-23
1.43864e-21
3.02311e-16
1.62728e-13
6.31161e-12
4.35412e-11
9.55982e-11
1.05878e-10
7.27381e-11
7.09504e-11
7.0949e-11
7.09505e-11
8.15322e-08
1.01182e-06
1.01248e-07
7.10261e-11
4.48495e-08
4.85281e-07
7.06251e-07
1.24601e-08
1.39903e-08
0.000115353
0.000355745
-1.19381e-20
5.24946e-24
4.77399e-17
4.00741e-14
1.77943e-12
1.2695e-11
2.76068e-11
2.89316e-11
3.32118e-11
8.70251e-11
7.24442e-11
7.22821e-10
1.97155e-12
1.97959e-12
1.97151e-12
1.2336e-11
4.77502e-08
1.02189e-07
5.61477e-11
1.35901e-10
7.219e-09
9.61832e-05
0.000397649
-2.64574e-20
8.34177e-25
6.88034e-18
8.20093e-15
4.09184e-13
2.96204e-12
6.48564e-12
6.76085e-12
1.48811e-11
8.66829e-11
6.48201e-11
3.71062e-11
4.37683e-12
4.25573e-12
3.83044e-12
1.64719e-12
1.34403e-13
1.36425e-13
5.9502e-13
5.57226e-11
4.79866e-09
2.63484e-05
0.000350375
-2.05977e-20
6.18107e-25
1.55268e-18
1.4554e-15
8.01103e-14
5.6555e-13
1.23405e-12
1.43156e-12
6.09848e-12
3.73032e-11
2.2166e-11
1.82182e-11
6.59824e-12
6.56068e-12
4.72431e-12
8.28366e-13
1.33642e-13
1.32743e-13
1.5987e-13
1.93387e-13
2.18778e-13
-1.05139e-12
2.85261e-05
-1.28202e-20
3.37889e-23
7.95637e-19
2.21926e-16
1.31667e-14
9.06965e-14
1.97973e-13
2.6791e-13
7.40387e-13
2.65727e-12
4.5127e-12
5.59982e-12
6.23814e-12
4.1729e-12
1.11325e-12
2.20172e-13
1.38482e-13
1.32707e-13
1.86609e-13
1.91186e-13
1.93347e-13
2.18638e-13
3.88448e-13
-8.41683e-21
0
2.66165e-19
2.84743e-17
1.70721e-15
1.16762e-14
2.74907e-14
4.7551e-14
1.1942e-13
4.10468e-13
1.25186e-12
2.03843e-12
2.26365e-12
5.30058e-13
1.30225e-13
3.62499e-14
2.4801e-14
6.9089e-14
2.72618e-13
8.37522e-13
2.42869e-12
1.5693e-11
1.18193e-10
-6.07076e-21
-7.3892e-22
6.56698e-20
2.98126e-18
1.72731e-16
1.21499e-15
3.35873e-15
8.49344e-15
2.95282e-14
1.12329e-13
2.38426e-13
2.60737e-13
1.7125e-13
3.54816e-14
1.45139e-14
4.81548e-15
1.85355e-15
3.95976e-15
8.11149e-14
6.39811e-13
3.10286e-12
1.22234e-11
2.89769e-11
-4.34505e-21
-3.43494e-21
1.02916e-20
2.41893e-19
1.2741e-17
1.02342e-16
4.15623e-16
1.71175e-15
6.52355e-15
1.76954e-14
2.6036e-14
2.24941e-14
1.23489e-14
5.06278e-15
1.76764e-15
5.79418e-16
2.49613e-16
3.11179e-16
7.25396e-15
1.13141e-13
1.2274e-12
1.22755e-11
7.1858e-11
-2.80337e-21
-2.49339e-21
2.40122e-22
1.57332e-20
6.617e-19
7.41182e-18
5.91815e-17
3.61053e-16
1.40473e-15
3.14691e-15
4.08625e-15
3.75702e-15
2.15555e-15
7.46176e-16
1.90023e-16
5.38649e-17
3.0379e-17
8.78123e-17
3.17215e-15
5.23266e-14
4.86992e-13
5.10322e-12
5.22765e-11
-1.56277e-21
-1.27237e-21
-5.99216e-22
6.95704e-22
2.49686e-20
5.73659e-19
8.813e-18
6.6821e-17
2.87629e-16
6.71947e-16
8.7594e-16
8.0792e-16
4.64545e-16
1.5136e-16
2.9514e-17
6.26658e-18
3.88753e-18
2.40383e-17
1.27182e-15
2.86381e-14
2.71839e-13
2.08984e-12
2.22549e-11
-7.37862e-22
-5.1836e-22
-6.35251e-22
1.06226e-24
6.59559e-22
5.14505e-20
1.09085e-18
1.01063e-17
5.02138e-17
1.27229e-16
1.71924e-16
1.62676e-16
9.54961e-17
3.18597e-17
5.87568e-18
9.76415e-19
5.72525e-19
7.19542e-18
4.9193e-16
1.57834e-14
1.74512e-13
1.02583e-12
6.80428e-12
-2.9085e-22
-1.5905e-22
-3.10514e-22
-7.47251e-23
1.87441e-23
3.69736e-21
9.49949e-20
1.19236e-18
6.89258e-18
1.85022e-17
2.5458e-17
2.4528e-17
1.49152e-17
5.20609e-18
9.47267e-19
1.22656e-19
6.53351e-20
2.13417e-18
1.53772e-16
5.76185e-15
7.89187e-14
6.06749e-13
5.88042e-12
-9.46605e-23
-3.34531e-23
-8.70574e-23
-3.14695e-23
2.19444e-25
1.33311e-22
5.69732e-21
1.05529e-19
6.88883e-19
1.91738e-18
2.65697e-18
2.59618e-18
1.65023e-18
6.16763e-19
1.18494e-19
1.60397e-20
1.06201e-20
5.86247e-19
4.23704e-17
1.73878e-15
2.97916e-14
3.497e-13
6.08286e-12
-2.53092e-23
-4.16808e-24
-1.31902e-23
-5.43432e-24
-6.24195e-25
1.29141e-24
2.57229e-22
6.62329e-21
4.6736e-20
1.32708e-19
1.84487e-19
1.82975e-19
1.24005e-19
5.19702e-20
1.18935e-20
2.47682e-21
2.54471e-21
1.54252e-19
1.21624e-17
6.069e-16
1.23405e-14
1.61909e-13
3.29853e-12
-5.57751e-24
-2.62895e-25
-1.15033e-24
-5.4095e-25
-9.05295e-26
2.96965e-26
8.61255e-24
2.58848e-22
1.96738e-21
5.6794e-21
7.92502e-21
7.98026e-21
5.85289e-21
2.77515e-21
7.7503e-22
2.71428e-22
5.78248e-22
3.87043e-20
3.45888e-18
2.30193e-16
5.55523e-15
6.10016e-14
7.67539e-13
-1.02345e-24
-1.80009e-27
-4.95137e-26
-3.1274e-26
-5.80492e-27
2.08903e-28
9.15271e-26
4.46728e-24
4.18843e-23
1.32988e-22
1.97268e-22
2.04655e-22
1.64614e-22
8.534e-23
2.82169e-23
1.47523e-23
1.28936e-22
8.72626e-21
8.24109e-19
7.1351e-17
2.24947e-15
2.34482e-14
1.40713e-13
-1.5886e-25
-1.59126e-29
-1.52007e-27
-1.31279e-27
-2.56132e-28
9.90394e-31
4.07618e-28
2.34293e-26
2.43733e-25
8.47843e-25
1.4101e-24
1.56467e-24
1.40656e-24
8.46254e-25
5.19788e-25
6.3663e-25
2.47359e-23
1.72599e-21
1.65352e-19
1.6892e-17
6.9907e-16
8.50846e-15
4.23706e-14
-2.12296e-26
-2.228e-31
-3.85639e-29
-4.50508e-29
-9.08565e-30
5.49509e-33
1.65835e-30
9.19406e-29
1.07492e-27
4.60887e-27
1.07139e-26
1.55578e-26
1.66951e-26
1.4866e-26
1.38731e-26
6.9259e-26
4.2046e-24
3.07061e-22
2.99723e-20
3.44529e-18
1.78223e-16
2.65126e-15
1.47549e-14
-2.48306e-27
-3.81964e-33
-8.67994e-31
-1.3487e-30
-2.79273e-31
3.49145e-35
7.19223e-33
3.02032e-31
3.83145e-30
2.48924e-29
9.27691e-29
1.89924e-28
2.37759e-28
2.58589e-28
3.56514e-28
9.52875e-27
6.53336e-25
5.02659e-23
5.05134e-21
6.47529e-19
4.1314e-17
7.3989e-16
4.78151e-15
-2.57712e-28
-6.65754e-35
-1.80167e-32
-3.65968e-32
-7.75374e-33
2.2886e-37
4.06007e-35
1.53458e-33
1.81374e-32
1.23923e-31
5.33314e-31
1.2626e-30
1.79094e-30
2.24514e-30
1.8516e-29
1.2748e-27
9.04521e-26
7.37955e-24
7.67425e-22
1.08362e-19
8.63449e-18
1.8739e-16
1.40953e-15
-2.39797e-29
-1.11375e-33
-3.52944e-34
-9.21748e-34
-1.9933e-34
1.50795e-39
2.52969e-37
9.44789e-36
1.08747e-34
6.40941e-34
2.40192e-33
5.26653e-33
8.58071e-33
3.5512e-32
1.96202e-30
1.47231e-28
1.06554e-26
9.15381e-25
9.85731e-23
1.51193e-20
1.54709e-18
4.15837e-17
3.60545e-16
-2.01268e-30
-1.25533e-33
-6.62482e-36
-2.18785e-35
-4.82049e-36
1.00431e-41
1.64765e-39
6.1684e-38
7.25878e-37
4.17799e-36
1.42804e-35
3.06583e-35
7.99808e-35
2.60277e-33
2.06421e-31
1.41825e-29
1.03524e-27
9.08791e-26
1.00518e-23
1.64416e-21
2.23926e-19
7.76664e-18
7.46164e-17
-1.52922e-31
-1.91026e-34
-1.20454e-37
-4.94484e-37
-1.10805e-37
6.87727e-44
1.11708e-41
4.20091e-40
5.09065e-39
2.98642e-38
1.00763e-37
2.69128e-37
2.94273e-36
2.24643e-34
1.72371e-32
1.16685e-30
8.402e-29
7.16527e-27
7.9017e-25
1.33771e-22
2.4708e-20
1.1719e-18
1.23266e-17
-1.05362e-32
-1.96683e-35
-2.14038e-39
-1.07231e-38
-2.43981e-39
4.91007e-46
7.8825e-44
2.98011e-42
3.70022e-41
2.19602e-40
7.90242e-40
3.67129e-39
1.67186e-37
1.58279e-35
1.19481e-33
8.54699e-32
6.07334e-30
4.82789e-28
5.02236e-26
8.42027e-24
2.06541e-21
1.41484e-19
1.67867e-18
-6.58247e-34
-1.61437e-36
-3.74522e-41
-2.24468e-40
-5.17923e-41
3.6369e-48
5.77858e-46
2.19565e-44
2.7754e-43
1.64369e-42
6.95999e-42
9.49401e-41
8.87955e-39
8.91952e-37
7.24598e-35
5.61862e-33
4.12783e-31
3.123e-29
2.96413e-27
4.70327e-25
1.44272e-22
1.42951e-20
1.96987e-19
-3.72402e-35
-1.11788e-37
-6.49472e-43
-4.56014e-42
-1.06621e-42
2.78631e-50
4.38009e-48
1.66946e-46
2.13286e-45
1.28947e-44
7.44439e-44
3.18872e-42
3.82775e-40
4.14688e-38
3.782e-36
3.19394e-34
2.58116e-32
2.02895e-30
1.85333e-28
2.78766e-26
9.91825e-24
1.30152e-21
2.04538e-20
-1.90414e-36
-6.65438e-39
-1.12168e-44
-9.0347e-44
-2.14017e-44
2.18952e-52
3.41103e-50
1.30154e-48
1.66796e-47
1.07034e-46
1.00259e-45
9.1677e-44
1.24736e-41
1.51717e-39
1.56783e-37
1.47997e-35
1.36698e-33
1.23281e-31
1.21314e-29
1.86692e-27
7.21983e-25
1.09426e-22
1.85002e-21
-8.78535e-38
-3.46435e-40
-1.93475e-46
-1.75289e-45
-4.20815e-46
1.75853e-54
2.70916e-52
1.03527e-50
1.3302e-49
9.18076e-49
1.36333e-47
1.85903e-45
2.91587e-43
3.9784e-41
4.71008e-39
5.23748e-37
5.69482e-35
6.19272e-33
7.25207e-31
1.24096e-28
4.88161e-26
7.75878e-24
1.36657e-22
-3.65493e-39
-1.58475e-41
-3.79928e-46
-3.33978e-47
-8.1327e-48
1.43795e-56
2.1818e-54
8.35495e-53
1.08692e-51
7.92391e-51
1.49075e-49
2.54496e-47
4.47523e-45
6.81205e-43
9.60131e-41
1.32267e-38
1.72768e-36
2.27782e-34
3.3524e-32
6.59492e-30
2.51855e-27
4.07289e-25
7.46292e-24
-1.37305e-40
-6.30698e-43
-3.75018e-47
-6.26094e-49
-1.54675e-49
1.20045e-58
1.76581e-56
6.81088e-55
9.06256e-54
6.80042e-53
1.31179e-51
2.43151e-49
4.61038e-47
7.76696e-45
1.26991e-42
2.06233e-40
3.24324e-38
5.42737e-36
1.03999e-33
2.36962e-31
8.9487e-29
1.47976e-26
2.67992e-25
-4.68855e-42
-2.20364e-44
-2.29662e-48
-1.15459e-50
-2.89541e-51
1.01284e-60
1.42824e-58
5.56864e-57
7.64756e-56
5.67247e-55
7.92047e-54
1.6009e-51
3.46339e-49
6.33993e-47
1.07875e-44
1.79916e-42
3.32225e-40
7.93015e-38
2.08346e-35
5.51066e-33
2.20249e-30
3.6217e-28
5.67715e-27
-1.47124e-43
-6.85505e-46
-1.07174e-49
-2.09093e-52
-5.32574e-53
8.74394e-63
1.15023e-60
4.55235e-59
6.4501e-58
4.58994e-57
3.8524e-56
7.59472e-54
1.81492e-51
3.40061e-49
5.39993e-47
8.04921e-45
1.58479e-42
6.31988e-40
2.91991e-37
8.94406e-35
3.37906e-32
5.10396e-30
6.83385e-29
-4.29914e-45
-1.88585e-47
-3.98983e-51
-3.7069e-54
-9.59731e-55
3.36753e-65
4.63607e-63
2.0104e-61
6.08637e-60
8.4605e-59
5.88376e-58
6.72611e-57
1.56572e-54
3.14853e-52
3.92996e-50
4.97611e-48
8.73382e-46
8.46715e-43
1.44871e-39
6.22554e-37
2.01153e-34
2.67572e-32
3.63282e-31
1
1
1
1
1
1
1
1
0.999997
0.999995
0.999993
0.999993
0.929705
0.937396
0.953092
0.976732
0.213939
0.25974
0.321213
0.40179
1.35542e-05
1.58149e-05
2.37557e-05
3.07023e-05
2.09197e-05
2.60545e-05
2.78415e-05
2.89339e-05
0.000183423
3.65147e-05
2.8683e-05
3.07596e-05
5.31588e-05
3.71415e-05
3.16574e-05
3.2259e-05
0.000138172
6.07046e-05
7.09602e-05
5.55017e-05
0.000397649
0.000125954
8.91287e-05
7.21758e-05
0.00039491
0.000393392
0.000393246
0.000393098
0.000221038
2.15555e-05
8.46987e-07
9.28745e-06
1.37552e-12
4.79497e-12
2.2854e-11
1.80883e-10
2.81137e-10
3.58398e-10
4.16596e-10
4.72563e-10
3.88981e-11
5.23486e-11
9.60001e-11
1.62336e-10
1.57528e-10
1.96745e-10
2.23755e-10
2.52471e-10
1.83512e-10
3.18955e-10
4.1863e-10
4.71021e-10
1.00541e-10
2.14122e-10
3.27127e-10
4.38059e-10
3.24328e-11
9.51917e-11
1.82412e-10
2.94844e-10
3.49107e-11
1.21227e-10
2.44946e-10
3.80042e-10
4.66278e-11
1.92057e-10
4.00857e-10
5.73616e-10
2.84065e-11
1.46626e-10
3.57092e-10
5.49392e-10
6.58166e-12
5.43163e-11
1.97479e-10
3.8629e-10
6.42427e-13
7.14099e-12
4.97906e-11
1.62737e-10
1.09505e-13
6.28143e-13
8.12215e-12
5.50226e-11
3.73543e-14
1.55847e-13
2.48201e-12
2.48697e-11
1.3359e-14
5.21325e-14
7.91178e-13
1.04091e-11
4.48108e-15
1.54952e-14
1.23953e-13
2.1914e-12
1.33951e-15
4.50927e-15
1.27673e-14
6.84907e-14
2.92766e-16
1.06838e-15
2.38217e-15
1.67057e-15
4.56066e-17
1.84876e-16
4.68509e-16
2.74935e-16
5.57645e-18
2.41007e-17
6.78559e-17
1.16129e-17
5.88003e-19
2.57075e-18
8.1125e-18
2.03763e-19
5.71602e-20
2.75743e-19
1.03452e-18
5.02867e-20
5.14323e-21
3.36582e-20
1.46059e-19
3.68104e-21
4.07248e-22
4.21595e-21
1.8516e-20
3.78696e-22
2.46883e-23
3.74905e-22
1.60197e-21
3.0144e-23
8.71136e-25
1.52169e-23
6.76671e-23
1.86639e-24
1.48588e-26
2.30991e-25
1.2097e-24
5.40177e-26
1.47918e-28
1.96252e-27
1.17777e-26
1.10961e-27
1.97544e-30
1.04427e-29
7.84831e-29
3.65677e-28
1
1
1
0.921419
0.310559
0.00382131
0.00183436
0.000128079
6.1096e-07
6.36636e-07
4.51367e-06
1.38031e-05
5.15718e-06
8.55476e-06
3.25583e-06
3.19291e-07
2.21341e-07
0.00248758
0.781419
1
1
1
0.86604
0.115244
0.00680034
0.00210534
0.00266267
0.000309338
9.65789e-07
2.06138e-05
0.000238168
0.000260659
5.89134e-05
2.42836e-05
1.11288e-06
3.21256e-07
1.11311e-06
0.885406
0.999995
0.999997
1
0.825688
0.0129785
0.0134299
0.00308839
0.00336632
0.00271922
0.000111488
2.5835e-05
0.000229855
0.00105037
0.00107672
0.000358126
7.44143e-06
1.11311e-06
0.0112976
0.950905
0.997918
0.999935
0.999994
0.865372
0.00225113
0.00265504
0.00129465
0.00162803
0.00272032
0.00147902
4.1807e-05
0.00019304
0.000851457
0.00176068
0.000777242
5.79966e-05
7.45973e-06
0.244055
0.979638
0.584336
0.893469
0.999885
0.867124
0.00108947
0.000730936
0.000695529
0.000699098
0.0021337
0.00207938
0.0013261
0.00127481
0.000772171
0.000783892
0.000990292
0.000494005
5.80178e-05
0.553123
0.997476
0.0297621
0.258291
0.84601
0.915299
0.302663
0.000695529
0.000680361
0.000679978
0.000696923
0.00168308
0.00165283
0.00158312
0.000776088
0.000770004
0.0884955
0.0543373
0.0119052
0.766431
1
3.07023e-05
7.83921e-05
0.165774
0.904284
0.903426
0.177069
0.000679978
0.000678126
0.000679978
0.000684056
0.00154864
0.00151286
0.000668087
0.000733427
0.158511
0.446409
0.634345
0.918836
0.996623
3.2747e-05
3.33597e-05
6.11426e-05
0.140119
0.902531
0.896952
0.396897
0.000678645
0.000678645
0.000666287
0.000613887
0.000589237
0.000613887
0.000668087
0.153676
0.839846
0.940509
0.940509
0.887176
4.45199e-05
4.51854e-05
4.59714e-05
6.73278e-05
0.105008
0.733336
0.734084
0.580635
0.146027
0.000636447
0.000591054
0.000591054
0.00100852
0.0653985
0.679915
0.882621
0.886856
0.925006
0.832347
4.5915e-05
5.62946e-05
0.000128682
0.000122726
2.53877e-05
0.0637181
0.442406
0.631447
0.631447
0.275858
0.0501133
0.135393
0.566206
0.737832
0.737832
0.686009
0.306489
0.449341
0.825824
4.81385e-05
0.000187905
0.000400869
0.000329305
1.93231e-05
2.53877e-05
0.0142398
0.227565
0.402284
0.537934
0.632673
0.675316
0.686824
0.536743
0.116359
0.0949838
0.0945041
0.265071
0.823532
0.000335337
0.000392666
0.000347135
8.66761e-06
1.1668e-05
0.000216177
0.000262482
0.000300872
0.0292271
0.271001
0.633448
0.670962
0.573569
0.69171
0.586895
0.263642
0.0946061
0.425997
0.887624
1.47875e-05
1.61257e-05
5.10811e-06
9.04877e-07
7.91388e-06
3.76022e-06
1.25563e-05
8.6678e-05
0.000647788
0.0485428
0.281991
0.440133
0.545434
0.692721
0.907146
0.909931
0.538665
0.724248
0.989068
5.20278e-10
1.32005e-09
1.90138e-09
1.40346e-08
4.18819e-07
2.66942e-07
2.7392e-06
0.000189714
0.00257112
0.00275448
0.00367955
0.013872
0.000745612
0.0455074
0.686429
0.957163
0.958087
0.929108
1
4.77561e-10
5.30403e-10
7.84621e-10
9.692e-10
2.39129e-09
2.03383e-08
2.66941e-07
5.25715e-05
0.000513519
0.000862913
0.000953578
0.000389219
0.000214145
0.000745612
0.201941
0.900216
0.981346
0.983804
1
3.02795e-10
5.30072e-10
7.64706e-10
8.22963e-10
9.62286e-10
2.69749e-09
3.27687e-08
5.01542e-07
3.84744e-06
0.00064053
0.00128597
0.000405069
7.23121e-05
0.000205795
0.0574457
0.480549
0.980542
0.92704
0.676592
3.21155e-10
4.47518e-10
8.76334e-10
2.44054e-09
3.86912e-09
3.67079e-09
4.20656e-09
2.29368e-08
2.35358e-06
0.000354595
0.000630895
3.42508e-06
1.21294e-05
5.41e-05
0.0159256
0.20832
0.75768
0.938482
0.60912
5.00317e-10
5.32267e-10
7.2229e-10
1.81759e-09
3.44222e-09
3.53194e-09
2.48123e-09
4.12174e-09
3.94465e-06
3.65839e-05
7.01397e-06
2.5974e-06
3.42507e-06
1.77811e-05
0.000277261
0.134933
0.545625
0.956813
0.976386
6.48345e-10
9.32989e-10
1.20496e-09
1.46943e-09
1.55655e-09
1.57461e-09
1.58684e-09
5.19144e-08
1.52338e-06
1.59733e-07
1.05012e-07
9.61818e-07
1.77401e-06
1.87559e-05
0.000276081
0.106477
0.27884
0.437557
0.675562
6.04927e-10
1.2067e-09
1.72856e-09
1.72244e-09
1.52344e-09
1.52039e-09
1.52344e-09
2.9374e-08
7.27906e-08
3.20124e-08
4.21509e-08
1.02495e-07
4.56347e-07
5.71854e-06
7.57217e-05
0.0244773
0.108245
0.183478
0.0670739
6.18051e-10
9.2148e-10
1.08559e-09
5.91312e-09
2.31899e-08
1.52344e-09
1.52332e-09
1.20166e-08
1.24934e-08
1.96593e-08
3.01503e-08
3.71743e-08
8.14211e-08
3.85527e-07
5.6297e-06
7.71695e-05
0.00560704
0.346932
0.640283
7.09478e-10
7.69497e-10
6.18179e-10
6.39368e-10
1.27667e-07
5.91404e-07
3.78887e-07
1.23659e-08
1.62686e-08
1.73449e-08
1.88414e-08
8.79344e-07
4.64649e-06
5.44408e-06
6.32375e-06
1.66773e-05
0.000145757
0.0767823
0.636532
6.89953e-10
7.29489e-10
5.82076e-10
5.97627e-10
2.69533e-07
7.45565e-07
7.47755e-07
1.09871e-07
1.99547e-08
1.9161e-08
2.00356e-08
1.78851e-06
2.04479e-05
2.28518e-05
7.14211e-05
4.89087e-05
7.61473e-05
0.0488736
0.460899
5.73304e-10
6.65831e-10
5.76509e-10
5.63206e-10
7.44009e-08
5.81757e-07
7.47755e-07
7.25824e-07
2.01515e-08
4.92708e-08
2.08577e-08
1.52464e-06
8.85984e-06
5.85885e-05
0.000229191
8.95078e-05
8.85683e-05
0.0538208
0.706347
3.71822e-10
5.59701e-10
5.79465e-10
5.51006e-10
5.63206e-10
4.03974e-08
5.19e-07
7.47438e-07
2.98612e-07
7.79824e-08
1.38067e-07
2.31182e-06
1.06196e-07
0.000132072
0.000229452
0.000137472
0.000113439
0.0169481
0.202802
2.16751e-10
4.12539e-10
4.64753e-10
3.72772e-10
8.2882e-10
9.27689e-09
1.00318e-07
6.80893e-07
6.78113e-07
1.73684e-07
7.22877e-07
2.288e-06
3.01316e-08
8.68488e-05
0.000229191
0.000133182
0.00277104
0.00234379
-6.33669e-20
1.25243e-10
2.53255e-10
2.76499e-10
1.71849e-10
1.38215e-09
4.91269e-08
1.15093e-07
2.74978e-07
6.48886e-07
6.47208e-07
6.01356e-07
3.87456e-07
1.60124e-08
4.61189e-05
9.24078e-05
0.000128751
0.00792518
0.00212832
0
6.51677e-11
1.40492e-10
1.59081e-10
1.59518e-10
2.82077e-09
2.8096e-08
4.92885e-08
4.75916e-08
2.79384e-07
4.49404e-07
5.35452e-08
8.26865e-09
1.25726e-08
0.000107126
2.6877e-05
0.000911265
0.00793351
0.00323793
0.0461605
2.58765e-11
7.179e-11
1.23696e-10
3.45435e-10
1.16932e-09
1.0689e-09
6.1467e-10
4.30136e-10
4.21813e-10
1.58612e-08
8.26865e-09
7.6507e-09
5.2498e-05
0.000107947
2.59653e-05
0.00676127
0.00792542
0.00248938
0.246997
8.86515e-12
3.7654e-11
9.91205e-11
3.06927e-10
6.28611e-10
6.3605e-10
5.91869e-10
4.26907e-10
3.81915e-10
1.47638e-09
4.08711e-08
7.75282e-09
6.18643e-05
1.84112e-05
3.27215e-05
0.00815724
0.00720437
0.00243264
0.295325
2.79896e-12
1.96514e-11
6.95744e-11
2.00513e-10
3.02333e-10
2.55233e-10
2.55226e-10
2.55536e-10
2.56356e-10
1.97183e-08
1.10399e-07
7.66056e-09
1.6611e-05
2.09802e-07
0.00134284
0.0081699
0.00245902
0.00243288
0.118434
7.15885e-13
8.6821e-12
3.40196e-11
4.41911e-11
1.88443e-09
6.03464e-08
9.08546e-08
2.56249e-10
2.55872e-10
7.89399e-10
5.19053e-09
9.11907e-06
1.99865e-05
1.18647e-07
0.00515387
0.00816452
0.00248587
0.00243288
0.0527136
1.14448e-13
2.10342e-12
1.12631e-11
1.16943e-11
2.89767e-12
1.29569e-07
3.56572e-07
2.05066e-07
2.65677e-10
3.15232e-10
8.43308e-07
1.19878e-05
1.27687e-05
6.57113e-09
0.00263046
0.0081664
0.00267256
0.00243288
0.0876053
1.24573e-14
1.93776e-13
1.94823e-12
3.10637e-12
3.58233e-13
3.32086e-08
3.50913e-07
4.11226e-07
2.49994e-07
1.07456e-08
4.15e-07
1.76999e-06
2.00072e-07
1.25993e-09
7.96318e-10
0.00292081
0.0075852
0.00244225
0.187962
1.16771e-15
1.09435e-14
1.65265e-13
5.01563e-13
3.1938e-13
3.58233e-13
3.21179e-08
2.77517e-07
3.57881e-07
3.57881e-07
2.19113e-07
1.6618e-09
8.34048e-10
7.98413e-10
7.98413e-10
7.95693e-10
0.00769607
0.00252879
0.309996
9.77543e-17
1.01741e-15
1.59206e-14
5.81966e-14
3.18349e-13
3.1938e-13
2.99968e-12
3.96315e-09
9.06897e-08
1.89277e-07
1.6044e-07
4.76102e-08
1.36594e-09
1.14858e-09
7.86452e-10
8.0663e-10
0.0075422
0.0193402
0.481218
7.71009e-18
1.30462e-16
2.81062e-15
7.72485e-15
1.40874e-13
5.43361e-12
4.54996e-12
1.60982e-12
8.3182e-13
7.07894e-10
4.80423e-09
3.73511e-09
6.2944e-09
1.33117e-08
5.20124e-10
1.57589e-06
0.00553674
0.0475866
0.193979
6.24776e-19
1.49568e-17
3.61033e-16
7.99591e-16
4.67414e-14
4.03132e-12
4.58603e-12
1.47306e-12
1.17242e-28
8.48044e-10
1.57469e-09
2.53725e-08
8.56756e-08
2.65786e-08
1.31036e-10
0.000212543
0.00550444
0.00231928
4.44067e-05
4.74529e-20
1.18033e-18
1.92704e-17
6.0205e-17
1.56306e-14
6.17191e-13
4.62654e-13
8.23478e-14
-6.3648e-13
4.02598e-08
1.2756e-07
1.2756e-07
1.10974e-07
1.07811e-08
2.52309e-13
1.31036e-10
0.00266799
0.00224747
0.0365796
2.35134e-21
5.17934e-20
4.60852e-19
4.52187e-18
1.76166e-15
7.87348e-15
2.58131e-15
8.5196e-17
-4.02679e-13
6.59387e-08
1.27005e-07
9.53577e-08
3.13591e-10
2.03706e-15
1.58413e-17
2.52309e-13
0.000744282
2.75563e-07
0.0821435
4.66055e-23
9.26519e-22
7.04064e-21
1.37971e-19
2.30105e-17
7.99833e-18
9.46949e-19
-2.46082e-18
-1.24209e-13
3.45065e-09
5.72748e-09
-3.82189e-18
-3.4829e-19
-2.4452e-24
-3.93561e-29
1.49737e-06
3.90159e-05
3.07343e-23
0.019718
2.4641e-25
4.69238e-24
4.0002e-23
7.13779e-22
-8.23148e-19
1.62794e-21
-8.70512e-20
-3.40203e-19
-1.18511e-18
-5.82206e-19
-1.67368e-19
-3.26107e-20
-4.79258e-21
-6.01893e-22
-6.64849e-23
-2.84193e-23
-4.35683e-24
-1.08762e-24
0
)
;

boundaryField
{
    leftWall
    {
        type            zeroGradient;
    }
    rightWall
    {
        type            zeroGradient;
    }
    lowerWall
    {
        type            zeroGradient;
    }
    atmosphere
    {
        type            inletOutlet;
        inletValue      uniform 0;
        value           nonuniform List<scalar> 
46
(
-4.29914e-45
-1.88585e-47
-3.98983e-51
-3.7069e-54
-9.59731e-55
3.36753e-65
4.63607e-63
2.0104e-61
6.08637e-60
8.4605e-59
5.88376e-58
6.72611e-57
1.56572e-54
3.14853e-52
3.92996e-50
4.97611e-48
8.73382e-46
8.46715e-43
1.44871e-39
6.22554e-37
2.01153e-34
2.67572e-32
3.63282e-31
1.97544e-30
1.04427e-29
7.84831e-29
3.65677e-28
2.4641e-25
4.69238e-24
4.0002e-23
7.13779e-22
-8.23148e-19
1.62794e-21
-8.70512e-20
0
0
0
0
0
0
0
0
0
0
0
0
)
;
    }
    defaultFaces
    {
        type            empty;
    }
}


// ************************************************************************* //
