/*--------------------------------*- C++ -*----------------------------------*\
| =========                 |                                                 |
| \\      /  F ield         | OpenFOAM: The Open Source CFD Toolbox           |
|  \\    /   O peration     | Version:  5.x                                   |
|   \\  /    A nd           | Web:      www.OpenFOAM.org                      |
|    \\/     M anipulation  |                                                 |
\*---------------------------------------------------------------------------*/
FoamFile
{
    version     2.0;
    format      ascii;
    class       surfaceScalarField;
    location    "0.55";
    object      alphaPhi10;
}
// * * * * * * * * * * * * * * * * * * * * * * * * * * * * * * * * * * * * * //

dimensions      [0 3 -1 0 0 0 0];

internalField   nonuniform List<scalar> 
4432
(
-3.45085e-06
3.45085e-06
-5.52702e-06
2.07617e-06
-4.80595e-06
-7.21072e-07
-2.20457e-06
-2.60137e-06
1.86815e-06
-4.07272e-06
6.74095e-06
-4.87279e-06
1.14197e-05
-4.67873e-06
1.5111e-05
-3.69136e-06
1.75423e-05
-2.43129e-06
1.88313e-05
-1.28898e-06
1.92002e-05
-3.68868e-07
1.88053e-05
3.94897e-07
1.77279e-05
1.07742e-06
1.60156e-05
1.71227e-06
1.35391e-05
2.47649e-06
9.96852e-06
3.57058e-06
5.02095e-06
4.94757e-06
-1.02201e-06
6.04296e-06
-4.44914e-06
3.78697e-06
-7.79345e-06
4.02731e-06
-1.75805e-05
7.36721e-06
-1.53756e-05
-2.20485e-06
-1.53756e-05
-3.84788e-06
7.29872e-06
-5.20289e-06
3.43118e-06
-4.20052e-06
-1.72344e-06
-1.68648e-06
-5.11541e-06
2.20028e-06
-7.95947e-06
6.99564e-06
-9.66815e-06
1.16478e-05
-9.33093e-06
1.52958e-05
-7.33933e-06
1.76687e-05
-4.80418e-06
1.89308e-05
-2.55105e-06
1.9395e-05
-8.33061e-07
1.93585e-05
4.31356e-07
1.90469e-05
1.38897e-06
1.85431e-05
2.21607e-06
1.78691e-05
3.1505e-06
1.68272e-05
4.61251e-06
1.47985e-05
6.97631e-06
1.06585e-05
1.0183e-05
3.64176e-06
1.08037e-05
-4.54389e-06
1.31178e-05
-1.16789e-05
1.342e-05
-9.57498e-06
-4.38854e-06
-2.49177e-05
-3.03926e-06
1.0338e-05
-3.95363e-06
4.34556e-06
-3.09747e-06
-2.57959e-06
-1.03609e-06
-7.17679e-06
2.37825e-06
-1.13738e-05
6.97504e-06
-1.42649e-05
1.15778e-05
-1.39337e-05
1.51514e-05
-1.0913e-05
1.73945e-05
-7.04722e-06
1.85307e-05
-3.68732e-06
1.88933e-05
-1.19565e-06
1.87432e-05
5.81463e-07
1.82513e-05
1.8809e-06
1.75755e-05
2.89183e-06
1.68813e-05
3.84469e-06
1.64029e-05
5.09093e-06
1.63115e-05
7.0677e-06
1.57955e-05
1.06991e-05
1.22425e-05
1.43566e-05
5.60947e-06
1.97654e-05
-1.33929e-06
1.92626e-05
-1.79788e-06
-3.9571e-06
-2.67412e-05
-1.85596e-06
1.21939e-05
-2.15449e-06
4.64409e-06
-1.45181e-06
-3.28226e-06
9.81275e-08
-8.72673e-06
2.97669e-06
-1.42524e-05
7.18099e-06
-1.84692e-05
1.15017e-05
-1.82544e-05
1.48364e-05
-1.42477e-05
1.68861e-05
-9.09685e-06
1.78979e-05
-4.69916e-06
1.82203e-05
-1.51807e-06
1.80994e-05
7.02406e-07
1.76933e-05
2.28697e-06
1.71093e-05
3.47589e-06
1.64461e-05
4.50783e-06
1.58567e-05
5.68032e-06
1.5694e-05
7.23043e-06
1.63744e-05
1.00187e-05
1.66717e-05
1.40593e-05
1.54595e-05
2.09776e-05
1.29265e-05
2.42871e-05
7.41818e-06
1.85468e-06
-1.93776e-05
-2.9323e-07
1.24872e-05
5.07175e-07
3.84368e-06
1.46251e-06
-4.2376e-06
2.9996e-06
-1.02638e-05
5.65039e-06
-1.69032e-05
9.04615e-06
-2.1865e-05
1.23369e-05
-2.15451e-05
1.47894e-05
-1.67003e-05
1.62843e-05
-1.05917e-05
1.70666e-05
-5.48143e-06
1.73784e-05
-1.82985e-06
1.73526e-05
7.28219e-07
1.71029e-05
2.53664e-06
1.6721e-05
3.85773e-06
1.62893e-05
4.93955e-06
1.58881e-05
6.08153e-06
1.56733e-05
7.44529e-06
1.61761e-05
9.51585e-06
1.77206e-05
1.25148e-05
2.0213e-05
1.84853e-05
2.09753e-05
2.35248e-05
1.3796e-05
9.0391e-06
-5.58161e-06
1.94249e-06
1.05447e-05
4.44919e-06
1.33698e-06
6.67924e-06
-6.46764e-06
9.17495e-06
-1.27595e-05
1.17347e-05
-1.94629e-05
1.36493e-05
-2.37796e-05
1.49213e-05
-2.28171e-05
1.56739e-05
-1.74529e-05
1.60569e-05
-1.09747e-05
1.62885e-05
-5.71304e-06
1.64784e-05
-2.01974e-06
1.6563e-05
6.43595e-07
1.65103e-05
2.58931e-06
1.63548e-05
4.01329e-06
1.6166e-05
5.12835e-06
1.60098e-05
6.23773e-06
1.60324e-05
7.42267e-06
1.64797e-05
9.06855e-06
1.77431e-05
1.12514e-05
2.08901e-05
1.53382e-05
2.33031e-05
2.11118e-05
1.68074e-05
1.55348e-05
1.12258e-05
4.44154e-06
6.10314e-06
9.59223e-06
-3.81371e-06
1.44559e-05
-1.13313e-05
1.84653e-05
-1.6769e-05
2.04009e-05
-2.13985e-05
2.00034e-05
-2.33821e-05
1.87123e-05
-2.15261e-05
1.75514e-05
-1.62919e-05
1.6697e-05
-1.01203e-05
1.61762e-05
-5.19224e-06
1.59136e-05
-1.75712e-06
1.59425e-05
6.14626e-07
1.59833e-05
2.54859e-06
1.60305e-05
3.96605e-06
1.60899e-05
5.06895e-06
1.61557e-05
6.17195e-06
1.64171e-05
7.16122e-06
1.70635e-05
8.42217e-06
1.80551e-05
1.02598e-05
2.04549e-05
1.29384e-05
2.31335e-05
1.84332e-05
1.92498e-05
1.94186e-05
3.04756e-05
6.8449e-06
-7.41759e-07
1.56365e-05
-1.26052e-05
2.3506e-05
-1.92006e-05
2.7734e-05
-2.0997e-05
2.74812e-05
-2.11456e-05
2.44304e-05
-2.03311e-05
2.12835e-05
-1.8379e-05
1.91525e-05
-1.41607e-05
1.78545e-05
-8.8223e-06
1.70851e-05
-4.42278e-06
1.66501e-05
-1.32217e-06
1.62075e-05
1.05724e-06
1.59341e-05
2.82201e-06
1.58412e-05
4.05894e-06
1.59414e-05
4.96882e-06
1.61422e-05
5.97112e-06
1.66639e-05
6.63952e-06
1.76316e-05
7.45448e-06
1.88191e-05
9.07231e-06
2.06454e-05
1.11121e-05
2.2842e-05
1.62366e-05
2.00468e-05
2.22138e-05
5.05224e-05
8.90858e-06
-1.30739e-05
4.6384e-06
-3.51029e-06
1.40303e-05
-2.20005e-06
1.54117e-05
-3.15206e-06
9.15719e-07
5.43509e-07
1.01413e-07
8.14306e-07
-4.72789e-05
1.38583e-05
-9.02454e-05
2.11948e-05
-5.78236e-05
3.81179e-06
-4.47668e-05
-6.01635e-07
-9.77026e-05
-1.78767e-06
-0.000126461
-3.05611e-06
-0.000132363
-4.74049e-06
-0.000131284
-6.49594e-06
-0.000125426
-9.76335e-06
-0.000114567
-1.4144e-05
-9.52376e-05
-2.30908e-05
-3.55092e-05
-6.36161e-05
-3.27616e-05
8.75406e-07
-1.38891e-05
5.82504e-06
-4.33596e-05
1.63378e-05
-7.722e-05
4.23809e-06
-5.15918e-06
1.80649e-06
8.86268e-07
-4.87225e-06
6.13881e-06
-2.83333e-05
9.25366e-06
-5.1862e-06
5.16794e-06
-1.7294e-07
8.76878e-08
-7.73029e-07
-1.62621e-09
-2.55003e-06
-1.09638e-08
-9.26223e-06
-5.13512e-08
-2.23247e-05
-1.97207e-07
-3.19532e-05
-6.67992e-07
-4.21121e-05
-2.14589e-06
-5.86075e-05
-6.19912e-06
-7.92072e-05
-1.87875e-05
-4.10524e-05
-0.000116323
-8.21237e-05
-1.34185e-05
-1.17431e-05
-2.4896e-06
-9.93842e-05
1.81439e-05
-0.000177737
3.89887e-06
-1.91516e-06
6.65511e-07
1.4442e-06
-8.49748e-06
1.233e-05
-4.10351e-06
4.5815e-06
-8.71941e-08
1.15486e-06
-1.79353e-09
2.19731e-09
-3.44961e-09
1.71611e-11
-1.44258e-08
-1.68602e-11
-6.48881e-08
-9.27871e-10
-2.56589e-07
-5.66325e-09
-8.92231e-07
-3.1851e-08
-2.83718e-06
-1.98268e-07
-7.90751e-06
-1.17352e-06
-2.61251e-05
-5.6012e-06
-4.40213e-05
-0.000102872
-0.000111496
-1.02397e-05
-7.37021e-06
1.95858e-06
-0.000111582
5.13642e-06
-0.000180915
2.30831e-06
-8.26502e-06
2.1324e-07
1.60702e-06
-7.19838e-06
2.78904e-05
-9.58436e-07
3.88638e-07
-2.38783e-09
1.98722e-07
-3.2773e-10
1.26567e-10
-3.43759e-10
2.78461e-11
-3.85712e-10
1.42434e-12
-1.25511e-09
-7.55311e-11
-6.55628e-09
-4.21585e-10
-3.59513e-08
-2.73833e-09
-2.11648e-07
-2.3569e-08
-1.16184e-06
-2.26032e-07
-4.41571e-06
-2.35103e-06
-3.05065e-05
-8.1409e-05
-0.00017575
1.20126e-06
-8.57148e-06
1.32308e-05
-0.000123612
8.06364e-06
-0.000175748
5.30647e-06
-0.000123242
-1.45299e-07
3.9989e-06
-3.04576e-06
2.62925e-05
-1.59703e-07
-1.44259e-07
-2.01631e-10
3.92108e-08
-1.55156e-10
7.54778e-11
-1.66247e-10
3.48407e-11
-1.68786e-10
-1.39028e-12
-2.00036e-10
-5.30016e-11
-5.00306e-10
-1.37531e-10
-3.01134e-09
-3.06186e-10
-2.60441e-08
-8.61196e-10
-2.41771e-07
-1.65442e-08
-1.68545e-06
-9.17683e-07
-3.12291e-05
-5.27035e-05
-0.000240933
1.29188e-05
-2.14903e-05
2.43759e-05
-0.000135069
2.09349e-05
-0.000172307
2.31586e-05
-0.000176295
-4.37082e-07
1.1785e-05
-1.92598e-06
2.29684e-05
-3.05953e-08
5.05673e-06
-1.05204e-10
8.71605e-09
-1.41703e-10
1.0788e-10
-1.64938e-10
5.3979e-11
-1.74524e-10
4.09934e-12
-1.83787e-10
-4.79942e-11
-1.83499e-10
-1.4466e-10
-1.69111e-10
-3.43851e-10
-6.04993e-10
-5.49402e-10
-1.71398e-08
-5.98857e-11
-8.35075e-07
-1.06005e-07
-2.4038e-05
-2.7379e-05
-0.00026074
2.72294e-05
-4.87196e-05
3.53276e-05
-0.000143167
3.05752e-05
-0.000167554
2.19487e-05
-0.000176369
-1.76817e-06
1.44958e-05
-6.21147e-09
1.71675e-05
-6.33494e-09
7.53747e-06
-9.85656e-11
2.47535e-09
-1.4186e-10
1.46559e-10
-1.76536e-10
8.4559e-11
-2.13292e-10
3.79428e-11
-2.98603e-10
3.80437e-11
-5.28916e-10
6.17491e-11
-2.64613e-10
-7.16214e-10
-1.47528e-12
-9.2415e-10
8.35441e-12
-1.7225e-10
-1.05959e-07
-2.76284e-11
-1.68826e-05
-1.14041e-05
-0.000256789
4.26793e-05
-9.1399e-05
4.42332e-05
-0.000144721
3.52493e-05
-0.00015857
1.79992e-05
-0.000166463
4.28814e-07
6.02674e-06
-1.58831e-07
1.7312e-05
-1.80006e-09
3.64455e-06
-8.00377e-11
7.52036e-10
-1.45647e-10
2.085e-10
-2.5732e-10
1.98919e-10
-3.21779e-10
2.43263e-10
-9.4131e-10
6.39666e-10
-1.9563e-09
9.72517e-10
-1.26666e-09
-1.76301e-09
-1.16064e-10
-2.24252e-09
5.71972e-11
-4.1912e-10
1.04859e-11
-5.46697e-11
-9.81227e-06
-2.1527e-06
-0.000259909
2.09771e-05
-1.60735e-05
3.96074e-05
-2.00982e-05
4.35738e-05
-1.02276e-05
4.12889e-05
-5.29225e-06
3.8107e-05
-4.67797e-06
3.52858e-05
-5.85298e-06
3.22898e-05
-7.09324e-06
3.10573e-05
-7.32035e-06
3.2432e-05
-6.56062e-06
3.47704e-05
-4.9156e-06
3.65917e-05
-2.62437e-06
3.77752e-05
-1.03938e-07
3.78744e-05
2.72287e-06
3.73831e-05
4.55017e-06
3.6691e-05
5.66099e-06
3.58252e-05
6.83685e-06
3.6218e-05
6.24679e-06
3.83186e-05
5.35385e-06
4.16896e-05
5.70131e-06
4.69402e-05
5.86144e-06
5.67733e-05
6.40354e-06
7.29476e-05
6.03948e-06
1.47226e-05
0.000108747
7.38538e-06
-4.87633e-15
3.10609e-06
-8.16227e-11
7.14268e-07
-6.62447e-09
-1.02455e-07
6.70361e-09
-1.00375e-06
-3.47274e-14
-1.65039e-06
-9.67771e-13
-2.49522e-06
-2.0978e-11
-2.68932e-06
-3.67309e-10
-1.39694e-06
-5.64166e-09
1.9815e-06
-7.87778e-08
9.246e-06
-8.4948e-07
2.09519e-05
-2.96147e-06
3.23297e-05
-2.16175e-06
3.92964e-05
5.99055e-07
4.0587e-05
4.37038e-06
3.83832e-05
9.04065e-06
3.83099e-05
6.32007e-06
4.0297e-05
3.36674e-06
4.30458e-05
2.95259e-06
4.77445e-05
1.16269e-06
5.58333e-05
-1.68527e-06
6.59229e-05
-4.05009e-06
-6.0508e-06
8.66962e-05
3.10429e-18
-4.87944e-15
-8.06739e-11
-9.48841e-13
-6.67537e-09
-2.91833e-11
-1.41844e-15
2.82433e-11
-3.64226e-14
6.80442e-17
-1.00359e-12
-7.21318e-16
-2.19584e-11
-2.11458e-14
-3.89256e-10
1.678e-15
-6.03093e-09
-2.67286e-15
-8.48079e-08
-8.38586e-13
-9.34266e-07
-2.20777e-11
-1.8912e-06
-4.54063e-10
-1.89322e-06
-7.33491e-09
6.81778e-08
-9.66737e-08
6.30258e-06
-6.82741e-07
1.77146e-05
-5.63248e-07
3.43403e-05
-2.16974e-06
4.48905e-05
-1.87996e-06
4.68233e-05
1.01976e-06
4.93815e-05
-1.37562e-06
5.49324e-05
-7.2361e-06
6.24422e-05
-1.15597e-05
-1.6986e-05
7.33776e-05
-4.86208e-15
-1.73557e-17
-1.37172e-12
-3.84096e-15
-2.82183e-11
4.95537e-14
-1.25642e-16
2.49216e-14
-2.80611e-16
1.29499e-17
-1.31756e-15
1.05569e-16
-2.27332e-14
1.49918e-16
-1.78121e-14
1.52435e-17
-3.4081e-14
-8.12078e-16
-8.84679e-13
-2.58729e-15
-2.28493e-11
-1.30839e-13
-4.68341e-10
-8.66444e-12
-7.42762e-09
-3.77381e-10
-1.02546e-07
-1.59398e-09
-7.82026e-07
-3.09204e-09
-1.43693e-06
-2.728e-09
-2.65443e-06
-8.53419e-10
-5.99024e-07
-3.1158e-09
8.49176e-06
-6.09844e-08
2.57033e-05
-1.37267e-06
4.44937e-05
-7.03909e-06
5.46797e-05
-9.24885e-06
-1.31872e-05
6.15926e-05
-1.83e-17
-1.50538e-21
-8.40186e-15
-1.22252e-17
-2.48247e-14
-6.70933e-17
-6.76833e-17
1.92602e-16
-6.79222e-17
4.4003e-17
-2.8768e-17
2.05478e-16
8.53246e-17
1.74912e-16
6.46123e-15
2.24604e-15
5.78083e-14
6.40641e-14
6.42389e-14
2.67295e-13
-7.03024e-14
2.52594e-13
-8.38958e-12
-7.01876e-14
-5.14645e-10
-2.96325e-11
-5.19798e-10
-1.76936e-09
-3.87523e-10
-2.90124e-09
-4.08303e-10
-2.44465e-09
-5.77909e-10
-4.27292e-10
-2.97676e-09
-4.54374e-10
-6.32208e-08
-5.14342e-10
-1.42947e-06
-6.14998e-09
-9.16358e-07
-1.6675e-08
9.64855e-07
-1.01576e-08
-1.12924e-09
4.28636e-06
-1.68367e-21
1.98432e-24
-1.32928e-17
-6.59823e-21
-8.43713e-17
-1.05369e-19
-1.82499e-16
1.88667e-17
-5.58511e-16
2.82401e-16
-3.23505e-16
1.05941e-15
-5.08459e-17
1.20179e-15
2.69539e-15
8.21396e-16
-6.96359e-14
1.03146e-13
9.5812e-13
-8.31654e-13
2.92847e-12
-1.30697e-12
3.20634e-12
-7.61254e-13
-1.63196e-12
-5.33217e-13
-1.26178e-10
-3.82958e-11
-4.83272e-10
-9.50478e-10
-1.78737e-10
-2.40946e-11
-1.20084e-10
-2.33551e-10
-5.51677e-11
-3.54324e-10
-2.27898e-11
-3.83038e-10
1.10695e-11
-6.00746e-09
-1.49486e-10
-1.62402e-08
-3.35445e-10
-9.64921e-09
-5.60025e-11
-1.13026e-09
-1.33687e-23
1.39747e-24
-1.41778e-20
-4.69581e-22
-2.71746e-18
7.50828e-20
-1.00518e-16
1.53044e-17
-5.36007e-16
3.00135e-16
-4.07389e-16
1.21814e-15
9.02832e-17
1.53845e-15
1.53674e-14
1.01892e-15
4.46018e-14
1.19101e-13
-2.41295e-13
-1.35358e-13
-7.87629e-14
-1.05911e-12
8.28009e-13
-1.55264e-12
9.62238e-13
-2.91514e-12
4.80256e-13
-4.00615e-11
9.19244e-14
-2.61133e-11
-2.39667e-11
-4.96855e-14
-7.79126e-13
-3.96017e-13
6.39418e-11
-3.28905e-12
1.13954e-09
-2.15591e-10
9.23151e-09
-8.68392e-09
1.01576e-08
-1.22395e-08
8.32923e-09
-1.19802e-08
-6.34827e-10
1.17256e-09
-6.85197e-25
1.91112e-25
-9.12623e-22
-4.00843e-23
-6.56639e-19
4.73314e-21
-4.58714e-17
4.95184e-18
-3.09106e-16
1.64688e-16
-1.90282e-16
9.4578e-16
1.92316e-16
1.51756e-15
8.03133e-16
1.26318e-15
4.23858e-14
1.59295e-16
2.56627e-13
-6.07694e-16
3.22489e-13
-4.34264e-16
9.353e-13
-7.02796e-16
7.98101e-12
-9.02627e-12
7.15066e-12
-2.98383e-11
4.02042e-14
-1.90166e-11
3.12269e-15
-2.78986e-14
4.57782e-15
-4.11257e-13
9.5263e-13
-4.25513e-12
1.32998e-09
-5.84591e-10
5.04653e-09
-1.22546e-10
7.59825e-09
-1.43352e-08
1.19829e-08
-1.59089e-08
-2.20252e-09
1.40067e-08
-4.12066e-26
1.64163e-26
-4.67874e-23
-4.09379e-24
-7.09967e-20
1.08743e-23
-9.17986e-18
8.70872e-19
-9.55519e-17
4.63178e-17
2.7323e-17
4.04266e-16
4.51103e-16
1.00166e-15
7.55368e-16
9.2312e-16
7.97468e-16
2.67146e-16
2.72601e-16
-8.52397e-17
2.35595e-16
-3.9967e-16
2.98063e-16
-7.67707e-16
5.3922e-12
-5.17079e-12
1.02935e-11
-2.19983e-11
4.9423e-15
-6.6399e-12
-2.07803e-14
-5.84929e-15
3.86791e-13
-1.36354e-12
7.1344e-13
-1.99751e-11
1.40869e-10
-3.8248e-11
1.81936e-11
-1.31766e-12
3.02275e-09
-1.05316e-09
2.4039e-09
-1.4834e-08
-7.02105e-09
4.6822e-10
-1.62627e-27
1.32852e-26
-3.65462e-24
-4.31414e-25
-1.03276e-20
-4.15387e-23
-1.80625e-18
1.8219e-19
-2.07436e-17
9.99935e-18
2.30593e-17
8.02006e-17
2.22143e-16
1.95719e-16
4.19263e-16
1.99516e-16
3.95175e-16
6.08439e-17
4.42463e-16
-1.34938e-16
4.46056e-16
-4.05701e-16
7.02585e-15
-7.34992e-15
2.28256e-12
-3.44042e-15
3.42151e-12
-5.69893e-17
1.29634e-14
-2.95499e-16
-3.90431e-16
-2.53194e-15
-1.30617e-13
-1.63127e-12
-1.79865e-12
-1.49147e-11
-1.28483e-13
-2.2731e-13
-2.33086e-12
-4.86772e-13
-9.31036e-10
-1.25905e-10
-1.66471e-09
-1.07512e-08
-2.75417e-08
-1.84721e-09
-8.66139e-26
-2.31051e-25
-4.79773e-25
-4.13922e-26
-1.58666e-21
-8.52e-24
-3.62423e-19
3.62249e-20
-4.61723e-18
2.02715e-18
3.48658e-18
1.39488e-17
4.24605e-17
2.61894e-17
8.95621e-17
1.80144e-17
1.43302e-16
1.18043e-18
4.54307e-16
-2.0607e-16
3.79748e-16
-4.07072e-16
3.37034e-15
-3.55479e-16
1.21548e-17
-8.97615e-17
2.32326e-18
-1.11196e-16
-2.02346e-16
-1.21031e-16
-1.61946e-14
-6.65193e-17
-7.30843e-13
-1.7027e-17
-2.56094e-15
-1.95922e-15
-2.24102e-13
-1.03255e-14
-2.9247e-13
-4.30104e-13
-7.28297e-11
-5.3969e-11
-1.4587e-08
-4.37263e-09
-2.25501e-08
-1.55229e-08
-5.0903e-27
-5.31498e-25
-4.17507e-26
-4.96367e-27
-2.23764e-22
-1.43687e-24
-7.104e-20
6.11546e-21
-1.19559e-18
3.54393e-19
-1.78141e-18
2.19864e-18
2.9696e-18
3.55533e-18
9.32154e-18
1.62907e-18
4.75866e-17
-7.08987e-18
2.21031e-16
-1.62016e-16
1.21841e-16
-1.90517e-16
3.00115e-17
-2.26884e-16
-1.46005e-18
-7.95652e-17
-1.19184e-17
-1.02416e-16
-1.49746e-17
-9.14201e-17
-1.24234e-18
-2.73703e-17
-1.32339e-17
-4.68836e-18
-1.95054e-15
-2.19164e-17
-1.18788e-14
-4.38558e-16
-4.20351e-13
-2.61491e-14
-5.18598e-11
-2.8957e-12
-6.75353e-09
-2.83288e-10
-1.17652e-08
-2.0399e-08
-3.92061e-28
-4.21803e-25
-3.69271e-27
-1.66532e-27
-3.2425e-23
-3.42743e-25
-1.44126e-20
9.77239e-22
-3.03056e-19
5.81197e-20
-9.41801e-19
3.2537e-19
-7.52251e-19
4.77966e-19
-6.44833e-19
1.77891e-19
-5.03505e-18
-1.21207e-18
-6.58768e-18
-1.29153e-17
-1.89695e-17
-3.53276e-17
-1.42906e-17
-6.18927e-17
-2.66926e-17
-6.67617e-17
-3.89028e-17
-7.38847e-17
-1.35642e-17
-3.09263e-17
-1.75548e-18
-7.14178e-18
-2.83339e-18
-3.22773e-18
-2.00611e-17
-4.49783e-18
-4.53266e-16
-6.35297e-18
-2.65797e-14
-2.48448e-17
-2.92219e-12
-9.24787e-17
-2.86209e-10
-8.86449e-16
-5.66667e-15
-1.75634e-08
-7.79997e-29
-2.65316e-25
-2.57024e-27
-8.4651e-28
-5.17519e-24
3.73138e-26
-2.72647e-21
1.4153e-22
-6.50587e-20
8.42054e-21
-2.33351e-19
4.59155e-20
-3.26197e-19
7.08948e-20
-6.20836e-19
4.26986e-20
-3.44704e-18
-1.26882e-19
-9.87446e-18
-1.42243e-18
-1.84449e-17
-7.85748e-18
-3.11786e-17
-1.90974e-17
-3.77813e-17
-2.97547e-17
-1.72484e-17
-1.02865e-17
-3.75946e-18
-3.09571e-18
-2.36898e-18
-1.00614e-18
-2.79472e-18
-8.31655e-19
-4.86183e-18
-2.22432e-18
-6.49717e-18
-6.85332e-18
-9.60825e-18
-2.38819e-17
-2.51567e-17
-7.91909e-17
-1.39992e-16
-7.75803e-16
-5.13141e-15
-7.01333e-16
-1.55177e-29
-1.75555e-25
-4.29657e-27
3.43455e-27
-9.03244e-25
6.66524e-26
-4.17992e-22
1.75622e-23
-1.0167e-20
9.85164e-22
-3.94684e-20
5.5949e-21
-7.79826e-20
1.08515e-20
-1.77873e-19
1.36456e-20
-6.76632e-19
-1.70886e-21
-3.66482e-18
-2.30167e-19
-1.03006e-17
-1.11199e-18
-1.61414e-17
-2.03398e-18
-7.88538e-18
-1.9528e-18
-2.44375e-18
-5.15385e-19
-6.97681e-19
-2.59973e-19
-4.75849e-19
-1.02513e-19
-7.8902e-19
-4.73352e-20
-3.66495e-18
-1.33821e-19
-1.53615e-17
-2.48867e-18
-4.75829e-17
-1.51857e-17
-2.4638e-16
-5.96668e-17
-3.45265e-15
-2.06403e-16
-3.4383e-16
-2.06682e-14
1.32411e-28
-1.27709e-25
-5.25455e-26
1.39121e-26
-1.5741e-25
2.4701e-26
-4.83985e-23
1.74515e-24
-1.14814e-21
8.99455e-23
-4.97651e-21
5.79087e-22
-1.40506e-20
1.64604e-21
-4.91276e-20
4.30757e-21
-2.8992e-19
8.65389e-21
-1.24908e-18
-6.37465e-21
-1.83316e-18
-6.18208e-20
-1.96807e-18
-1.04266e-19
-5.83604e-19
-8.74221e-20
-2.85419e-19
-4.78712e-20
-1.1802e-19
-2.16862e-20
-3.82664e-20
-8.58318e-21
-4.88789e-20
-4.18615e-21
-4.39161e-19
-6.45207e-21
-7.08991e-18
-1.41872e-19
-5.33581e-17
-2.09157e-18
-3.40008e-16
-1.91256e-17
-1.35048e-15
-8.87425e-17
-8.29148e-17
-2.56481e-15
7.77018e-28
-9.23887e-26
-9.12626e-27
8.4919e-27
-2.22469e-26
3.11804e-27
-3.69667e-24
1.32632e-25
-8.58813e-23
5.76052e-24
-5.25107e-22
5.02599e-23
-2.68147e-21
2.85195e-22
-1.47281e-20
1.39028e-21
-7.22997e-20
4.01812e-21
-1.76111e-19
4.84727e-21
-2.05943e-19
5.40613e-22
-1.65285e-19
-5.39554e-21
-8.87955e-20
-6.6522e-21
-3.88121e-20
-3.60129e-21
-1.4885e-20
-1.26697e-21
-5.35365e-21
-4.47019e-22
-6.46588e-21
-2.85712e-22
-2.65061e-20
-9.64791e-22
-6.69477e-19
-2.74487e-20
-1.03789e-17
-3.52055e-19
-1.58694e-16
-2.01936e-18
-1.86538e-15
7.40811e-18
4.39967e-16
-8.66854e-15
7.05293e-28
-6.04008e-26
-2.5436e-28
3.44998e-27
-1.05414e-27
6.32723e-28
-1.7013e-25
7.64986e-27
-4.30928e-24
2.5829e-25
-5.50007e-23
4.25318e-24
-5.62184e-22
5.58514e-23
-3.99354e-21
3.91064e-22
-1.61128e-20
1.35023e-21
-3.10041e-20
2.26693e-21
-3.65483e-20
2.01857e-21
-3.15019e-20
1.10294e-21
-1.48348e-20
1.79651e-22
-4.62406e-21
-9.09935e-23
-1.34748e-21
-4.41453e-23
-6.72008e-22
-1.35875e-23
-8.42162e-22
-9.69132e-24
-9.77597e-21
-6.04572e-23
-3.0882e-19
-1.04721e-21
-3.98771e-18
2.96964e-20
-4.664e-17
1.05213e-18
-7.86527e-16
2.13243e-17
4.73176e-16
-7.42499e-15
4.28799e-28
-3.41978e-26
6.47908e-28
1.01972e-27
-1.38285e-27
-1.90358e-27
-4.55863e-27
1.80075e-28
-1.96846e-25
8.5446e-27
-6.45133e-24
4.37176e-25
-1.01537e-22
9.7124e-24
-8.55911e-22
8.19267e-23
-3.7192e-21
3.56243e-22
-7.16808e-21
7.85012e-22
-8.36358e-21
9.14856e-22
-7.16717e-21
7.38299e-22
-3.21239e-21
3.67472e-22
-7.7407e-22
1.02195e-22
-1.51881e-22
1.60042e-23
-8.8629e-23
2.72618e-24
-1.19216e-22
2.18703e-24
-2.98274e-21
4.53453e-23
-1.45805e-19
3.20376e-21
-2.27323e-18
1.1525e-19
-1.96369e-17
1.65486e-18
-2.54713e-16
1.54799e-17
1.92414e-16
-3.31215e-15
1.97301e-28
-1.64273e-26
7.44999e-28
1.86891e-28
-7.57124e-30
-2.51583e-27
-3.35769e-29
2.28567e-29
-1.09327e-26
2.47604e-28
-6.87484e-25
4.48263e-26
-1.42439e-23
1.15538e-24
-1.46885e-22
1.26849e-23
-7.20126e-22
6.82038e-23
-1.47186e-21
1.7472e-22
-1.71298e-21
2.30122e-22
-1.50012e-21
2.11928e-22
-6.85589e-22
1.23127e-22
-1.58119e-22
4.17782e-23
-2.32915e-23
7.64354e-24
-1.38223e-23
1.0999e-24
-2.07895e-23
8.75066e-25
-8.9606e-22
3.3657e-23
-6.38474e-20
2.36503e-21
-1.46236e-18
9.84594e-20
-1.14166e-17
1.48696e-18
-7.9459e-17
1.11559e-17
1.14224e-16
-8.8859e-16
6.5192e-29
-6.59453e-27
3.86449e-28
1.1385e-29
1.53481e-28
-1.48109e-27
-7.64172e-29
-4.96845e-28
-6.19335e-28
7.29192e-30
-4.89364e-26
2.61055e-27
-1.47563e-24
8.57092e-26
-1.96112e-23
1.41742e-24
-1.06146e-22
9.061e-24
-2.23129e-22
2.49372e-23
-2.58503e-22
3.42982e-23
-2.32619e-22
3.33546e-23
-1.10902e-22
2.117e-23
-2.55514e-23
7.96554e-24
-2.72779e-24
1.54377e-24
-1.84678e-24
1.9625e-25
-3.50726e-24
2.01555e-25
-2.42482e-22
1.38224e-23
-1.83073e-20
9.25265e-22
-4.8867e-19
3.86539e-20
-4.72356e-18
7.19521e-19
-4.74528e-17
8.5108e-18
1.27462e-16
-7.88928e-16
1.41811e-29
-2.1864e-27
1.12552e-28
-1.76864e-29
6.66094e-29
-4.86968e-28
-1.63486e-30
-2.33019e-28
-1.43183e-29
4.21144e-30
-2.05866e-27
5.23714e-29
-1.13076e-25
4.38929e-27
-1.91067e-24
1.1047e-25
-1.10672e-23
7.86674e-25
-2.34704e-23
2.2507e-24
-2.70478e-23
3.15924e-24
-2.50706e-23
3.17558e-24
-1.27314e-23
2.17534e-24
-3.09287e-24
9.17011e-25
-3.19734e-25
2.05212e-25
-2.60906e-25
3.69529e-26
-7.26947e-25
6.25364e-26
-5.89313e-23
4.57375e-24
-4.34288e-21
3.12248e-22
-1.25015e-19
1.41316e-20
-1.65726e-18
3.15374e-19
-3.11168e-17
5.42865e-18
1.43653e-16
-8.69145e-16
1.76906e-30
-5.95316e-28
1.73385e-29
-5.91388e-30
1.16382e-29
-8.46921e-29
1.80923e-30
-4.43524e-29
-8.86556e-30
-5.10965e-30
-5.76097e-29
5.58269e-31
-6.38753e-27
1.73628e-28
-1.27226e-25
5.52534e-27
-7.65265e-25
4.1922e-26
-1.62553e-24
1.22565e-25
-1.86342e-24
1.74326e-25
-1.79962e-24
1.80073e-25
-1.01261e-24
1.35029e-25
-2.86387e-25
6.61783e-26
-4.06839e-26
1.90251e-26
-4.56627e-26
6.48541e-27
-1.67504e-25
1.99193e-26
-1.41404e-23
1.45148e-24
-1.19619e-21
1.10657e-22
-4.15243e-20
6.09945e-21
-6.15313e-19
1.51329e-19
-1.32459e-17
2.29066e-18
4.93379e-17
-4.48321e-16
1.08428e-31
-1.33493e-28
1.50443e-30
-6.08427e-31
1.14955e-30
-8.32626e-30
2.60222e-31
-4.82039e-30
-2.18063e-31
-8.11356e-31
-1.64868e-30
1.38819e-32
-2.3213e-28
3.94486e-30
-5.25163e-27
1.43052e-28
-3.25897e-26
1.21656e-27
-6.90089e-26
3.72266e-27
-7.97698e-26
5.45576e-27
-8.04384e-26
5.79138e-27
-5.0639e-26
4.7801e-27
-1.6638e-26
2.63987e-27
-4.27539e-27
9.29393e-28
-4.86588e-27
5.58698e-28
-3.67543e-26
5.1825e-27
-3.28025e-24
4.12767e-25
-3.51967e-22
3.52032e-23
-1.76133e-20
2.44814e-21
-2.59159e-19
7.01777e-20
-3.22953e-18
7.85543e-19
6.98535e-18
-9.07859e-17
7.00756e-34
-2.48938e-29
6.29499e-32
-5.75406e-33
6.46441e-32
-3.9779e-31
1.62549e-32
-3.01614e-31
-2.67927e-33
-5.64198e-32
-1.42198e-32
9.12953e-35
-3.41146e-30
2.28895e-32
-1.04822e-28
1.32614e-30
-7.39597e-28
1.43493e-29
-1.68453e-27
5.01977e-29
-2.05127e-27
8.15246e-29
-2.15379e-27
9.08776e-29
-1.48724e-27
8.29341e-29
-5.33664e-28
4.95994e-29
-2.3574e-28
2.24303e-29
-3.01263e-28
2.47743e-29
-7.36319e-27
1.15786e-27
-6.60032e-25
9.41048e-26
-8.10537e-23
8.48654e-24
-6.26729e-21
7.03561e-22
-1.25705e-19
2.63759e-20
-9.2919e-19
3.01559e-19
1.47818e-18
-9.14896e-18
5.62807e-36
-3.92024e-30
1.83199e-33
-6.44178e-35
2.58467e-33
-1.33731e-32
6.8584e-34
-1.35917e-32
-2.30994e-35
-2.67603e-33
-8.88869e-35
6.63287e-37
-2.22501e-32
1.15684e-34
-7.42369e-31
5.61426e-33
-5.56971e-30
5.99639e-32
-1.40991e-29
2.26843e-31
-1.89989e-29
4.34949e-31
-2.06555e-29
5.58526e-31
-1.5558e-29
5.75417e-31
-7.37636e-30
4.42943e-31
-8.13168e-30
4.05408e-31
-2.06179e-29
2.15292e-30
-1.26145e-27
2.08974e-28
-1.1417e-25
1.77759e-26
-1.45683e-23
1.67108e-24
-1.49493e-21
1.52908e-22
-4.39467e-20
7.21224e-21
-3.52621e-19
1.05194e-19
5.52512e-19
-1.56633e-18
6.71357e-38
-5.30288e-31
4.28986e-35
-1.0827e-36
8.27425e-35
-3.67208e-34
2.28318e-35
-4.96897e-34
-1.75339e-37
-1.01209e-34
-5.60726e-37
5.23829e-39
-1.22306e-34
7.48348e-37
-4.12222e-33
3.25603e-35
-3.29341e-32
3.62252e-34
-1.034e-31
1.61213e-33
-1.87737e-31
4.16889e-33
-2.18965e-31
7.12048e-33
-2.10567e-31
8.69039e-33
-1.82336e-31
9.49855e-33
-2.12265e-31
1.3549e-32
-2.49139e-30
3.74927e-31
-1.90123e-28
3.36783e-29
-1.76337e-26
3.02266e-27
-2.32277e-24
3.00693e-25
-2.85059e-22
3.0297e-23
-1.08905e-20
1.70216e-21
-1.08965e-19
3.04727e-20
1.99947e-19
-4.65336e-19
8.72556e-40
-6.25911e-32
8.6817e-37
-2.151e-38
2.26463e-36
-8.85452e-36
6.46548e-37
-1.57337e-35
-1.25319e-39
-3.29118e-36
-3.6672e-39
4.15093e-41
-6.55832e-37
5.21601e-39
-2.06349e-35
2.0746e-37
-1.79504e-34
2.33001e-36
-7.43989e-34
1.18427e-35
-1.88103e-33
3.88797e-35
-2.74536e-33
8.43171e-35
-3.01877e-33
1.17063e-34
-3.41172e-33
1.47526e-34
-7.03417e-33
6.13413e-34
-3.14347e-31
5.65444e-32
-2.58424e-29
4.89887e-30
-2.48374e-27
4.66512e-28
-3.41021e-25
4.96469e-26
-4.96092e-23
5.5647e-24
-2.34532e-21
3.76497e-22
-2.84428e-20
8.00788e-21
6.16078e-20
-1.41822e-19
8.25033e-42
-6.5282e-33
1.5751e-38
-4.24873e-40
5.51755e-38
-1.95207e-37
1.62603e-38
-4.48508e-37
-8.67894e-42
-9.59622e-38
-2.40177e-41
3.27559e-43
-3.86029e-39
3.87099e-41
-1.16664e-37
1.49983e-39
-1.04057e-36
1.6898e-38
-4.82145e-36
8.65891e-38
-1.39228e-35
2.83329e-37
-2.24148e-35
6.12785e-37
-2.72539e-35
9.05521e-37
-3.66283e-35
1.67995e-36
-4.73074e-34
6.37869e-35
-3.58096e-32
7.00709e-33
-3.07237e-30
6.05752e-31
-3.08118e-28
6.12349e-29
-4.39425e-26
6.99477e-27
-7.63177e-24
8.73485e-25
-4.50991e-22
7.30277e-23
-6.5532e-21
1.88604e-21
1.67617e-20
-4.05846e-20
-4.77196e-37
-6.06963e-34
2.61322e-40
-7.95461e-39
1.23e-39
-4.03377e-39
3.7297e-40
-1.17912e-38
-5.90876e-44
-2.57381e-39
-1.56716e-43
2.58149e-45
-2.34866e-41
2.92309e-43
-7.06425e-40
1.11906e-41
-6.42958e-39
1.28378e-40
-3.05528e-38
6.6276e-40
-8.66419e-38
2.12422e-39
-1.32375e-37
4.49111e-39
-1.93129e-37
7.49502e-39
-7.34932e-37
7.22562e-38
-4.30782e-35
8.25658e-36
-3.4134e-33
6.94877e-34
-3.00588e-31
6.01588e-32
-3.13319e-29
6.33544e-30
-4.59522e-27
7.75357e-28
-9.63724e-25
1.0816e-25
-7.42544e-23
1.15632e-23
-1.25794e-21
3.75918e-22
3.77218e-21
-1.00567e-20
-3.86912e-37
-5.05571e-35
3.99433e-42
-9.96417e-39
2.55678e-41
-7.94626e-41
7.97361e-42
-2.90499e-40
-3.99184e-46
-6.45524e-41
-1.02644e-45
2.04046e-47
-1.46103e-43
2.24145e-45
-4.40354e-42
8.50691e-44
-4.1374e-41
9.98491e-43
-2.0136e-40
5.33948e-42
-5.49313e-40
1.75063e-41
-8.69349e-40
3.90194e-41
-1.82058e-39
1.21309e-40
-4.65403e-38
7.61986e-39
-3.53095e-36
7.72197e-37
-2.64979e-34
5.63356e-35
-2.31271e-32
4.75168e-33
-2.44514e-30
4.96944e-31
-3.61655e-28
6.39429e-29
-9.17548e-26
9.92636e-27
-1.00648e-23
1.39883e-24
-2.00441e-22
6.04868e-23
6.57198e-22
-1.75058e-21
-5.54249e-38
-3.78585e-36
5.63304e-44
-1.67485e-39
5.04443e-43
-1.51137e-42
1.61927e-43
-6.78391e-42
-2.72212e-48
-1.53179e-42
-6.84901e-48
1.62657e-49
-9.35305e-46
1.74697e-47
-2.83422e-44
6.59302e-46
-2.75169e-43
7.90536e-45
-1.34776e-42
4.36758e-44
-3.22758e-42
1.48311e-43
-6.60161e-42
3.86488e-43
-4.53825e-41
5.44305e-42
-3.24911e-39
6.72848e-40
-2.4265e-37
5.40118e-38
-1.7413e-35
3.9944e-36
-1.42449e-33
3.18686e-34
-1.44643e-31
3.09361e-32
-2.07705e-29
3.96664e-30
-6.1405e-27
6.6881e-28
-1.04646e-24
1.24187e-25
-2.5737e-23
7.60167e-24
9.08694e-23
-2.0457e-22
-5.6312e-39
-2.55213e-37
7.37501e-46
-1.89737e-40
9.63217e-45
-2.80411e-44
3.18424e-45
-1.51475e-43
-1.90392e-50
-3.47062e-44
-4.73006e-50
1.31398e-51
-6.2452e-48
1.38447e-49
-1.90782e-46
5.20759e-48
-1.89635e-45
6.36548e-47
-9.02904e-45
3.60994e-46
-2.06973e-44
1.28998e-45
-6.57108e-44
5.34298e-45
-2.17623e-42
3.48575e-43
-1.9153e-40
4.06874e-41
-1.47823e-38
3.29076e-39
-1.05819e-36
2.61132e-37
-7.86625e-35
2.02357e-35
-7.12434e-33
1.76539e-33
-9.34802e-31
2.09748e-31
-2.95556e-28
3.65967e-29
-8.11926e-26
8.57497e-27
-2.63163e-24
7.64726e-25
1.05531e-23
-1.70742e-23
-4.57645e-40
-1.54867e-38
8.9322e-48
-1.70811e-41
1.80005e-46
-5.11766e-46
6.14813e-47
-3.25734e-45
-1.38239e-52
-7.56676e-46
-3.39717e-52
1.07779e-53
-4.3944e-50
1.11783e-51
-1.35572e-48
4.19071e-50
-1.35961e-47
5.21043e-49
-5.73322e-47
3.02378e-48
-1.59214e-46
1.17969e-47
-1.2195e-45
1.34208e-46
-1.03688e-43
1.79159e-44
-9.86514e-42
1.97588e-42
-8.25964e-40
1.79531e-40
-6.24867e-38
1.54694e-38
-4.41873e-36
1.26169e-36
-3.48909e-34
1.05613e-34
-3.97325e-32
1.14904e-32
-1.23445e-29
1.99093e-30
-5.2374e-27
5.48878e-28
-2.29524e-25
6.69684e-26
1.07495e-24
-1.13069e-24
-3.10531e-41
-8.4511e-40
9.60863e-50
-1.29257e-42
3.28624e-48
-9.24674e-48
1.16826e-48
-6.78845e-47
-1.04062e-54
-1.59835e-47
-2.54461e-54
8.98997e-56
-3.23083e-52
9.19691e-54
-1.00639e-50
3.43489e-52
-9.99231e-50
4.33304e-51
-3.68884e-49
2.58558e-50
-1.44849e-48
1.19789e-49
-3.58734e-47
4.44397e-48
-4.28434e-45
6.70127e-46
-4.51715e-43
7.96598e-44
-4.12796e-41
8.21789e-42
-3.4452e-39
7.78102e-40
-2.56755e-37
7.17682e-38
-1.92781e-35
6.55308e-36
-1.98095e-33
7.20886e-34
-5.93476e-31
1.2612e-31
-3.45409e-28
3.79642e-29
-1.9311e-26
5.48148e-27
9.66639e-26
-7.39305e-26
-1.76983e-42
-4.14418e-41
8.55299e-52
-8.3635e-44
5.81627e-50
-1.66064e-49
2.16565e-50
-1.37821e-48
-7.99291e-57
-3.28976e-49
-1.9509e-56
7.61292e-58
-2.43788e-54
7.6973e-56
-7.63989e-53
2.86602e-54
-7.27153e-52
3.66044e-53
-2.70751e-51
2.26008e-52
-1.62553e-50
1.40089e-51
-1.02222e-48
1.18388e-49
-1.42632e-46
1.8365e-47
-1.69059e-44
2.45112e-45
-1.7127e-42
2.86098e-43
-1.60631e-40
3.101e-41
-1.37872e-38
3.34825e-39
-1.1359e-36
3.68564e-37
-1.2039e-34
4.67753e-35
-3.6932e-32
8.80238e-33
-2.57492e-29
2.7072e-30
-1.66601e-27
4.04087e-28
7.32334e-27
-6.03818e-27
-8.60306e-44
-1.82603e-42
3.52354e-54
-4.69971e-45
9.91819e-52
-2.97034e-51
3.86563e-52
-2.73581e-50
-6.13108e-59
-6.6253e-51
-1.49583e-58
6.52018e-60
-1.84493e-56
6.53327e-58
-5.80381e-55
2.43087e-56
-5.12178e-54
3.13965e-55
-2.14295e-53
2.01254e-54
-2.04633e-52
1.72622e-53
-2.2471e-50
2.14734e-51
-3.50459e-48
3.61285e-49