/*--------------------------------*- C++ -*----------------------------------*\
| =========                 |                                                 |
| \\      /  F ield         | OpenFOAM: The Open Source CFD Toolbox           |
|  \\    /   O peration     | Version:  5.x                                   |
|   \\  /    A nd           | Web:      www.OpenFOAM.org                      |
|    \\/     M anipulation  |                                                 |
\*---------------------------------------------------------------------------*/
FoamFile
{
    version     2.0;
    format      ascii;
    class       volScalarField;
    location    "0.55";
    object      p;
}
// * * * * * * * * * * * * * * * * * * * * * * * * * * * * * * * * * * * * * //

dimensions      [1 -1 -2 0 0 0 0];

internalField   nonuniform List<scalar> 
2268
(
573.764
570.23
570.871
575.633
585.703
598.469
610.691
621.335
631.966
644.458
659.625
677.36
697.214
718.786
741.643
765.171
788.241
809.016
824.841
839.235
827.792
831.893
868.915
514.831
510.522
510.767
515.298
525.288
538.336
550.834
561.632
572.344
584.919
600.092
617.744
637.554
659.109
681.915
705.415
728.74
750.371
767.351
785.961
772.88
761.465
804.758
455.377
450.327
449.88
453.587
463.425
476.957
490.015
501.127
511.997
524.742
540.108
557.957
577.895
599.509
622.243
645.465
668.272
689.985
708.283
726.297
719.089
697.137
744.269
396.123
390.008
388.212
390.57
400.178
414.317
428.304
439.929
451.038
464.015
479.627
497.69
517.804
539.584
562.45
585.692
608.426
630.015
648.513
664.646
663.857
646.54
692.99
337.771
329.938
326.068
326.696
335.537
350.626
365.88
378.156
389.559
402.83
418.733
437.039
457.385
479.444
502.599
526.073
549.061
570.82
589.668
605.501
611.588
609.17
648.032
280.662
271.234
264.066
262.785
271.111
287.061
303.248
315.963
327.605
341.189
357.464
376.011
396.608
419.066
442.678
466.553
489.981
512.211
531.806
548.471
559.896
566.555
602.591
225.097
214.134
202.704
199.736
208.352
224.605
240.579
253.219
265.126
279.056
295.723
314.711
335.688
358.646
382.807
407.163
431.136
454.008
474.468
492.096
506.294
517.648
545.015
170.848
159.326
140.145
133.944
143.971
161.054
176.5
188.838
201.527
216.323
233.378
252.676
273.881
297.577
322.726
347.827
372.648
396.396
417.676
436.105
451.184
465.349
480.771
868.791
907.624
841.48
603.751
530.174
526.525
529.41
376.066
233.166
200.039
206.518
220.573
231.283
247.695
262.18
292.26
577.359
1236.28
1365.32
808.947
892.042
790.273
556.936
523.071
519.731
421.751
222.771
195.588
191.979
190.457
190.31
193.023
197.793
203.664
214.995
390.492
1058.26
1291.5
710.852
797.001
670.169
517.98
514.287
485.192
288.255
204.3
194.383
192.054
190.512
190.178
191.23
193.542
195.553
196.963
256.251
675.402
1179.58
581.463
597.063
535.401
494.571
505.779
435.114
228.379
198.927
193.983
191.643
190.113
190.005
191.205
193.367
195.12
196.192
219.089
371.529
1040.33
421.676
441.149
463.962
458.515
502.422
343.387
209.7
196.901
193.6
191.182
189.773
189.684
191.034
193.258
195.06
196.092
203.527
241.97
872.496
310.822
335.722
404.645
388.342
486.085
256.363
200.341
195.364
192.772
190.424
189.049
189.088
190.606
193.015
194.97
196.072
197.037
206.284
672.22
190.451
268.069
358.989
329.216
419.209
221.997
195.19
193.954
191.592
189.451
188.117
188.139
189.74
192.477
194.808
195.913
195.567
200.335
479.007
51.6131
232.889
332.414
304.129
373.658
209.232
194.621
192.641
190.28
188.353
186.999
186.889
188.428
191.511
194.287
195.318
195.396
197.051
329.728
89.7555
78.6538
52.6714
44.3197
55.4554
71.3413
82.1466
90.2228
101.511
117.27
135.849
156.04
177.878
203.128
229.479
255.31
281.202
306.445
329.114
348.841
362.184
364.446
325.771
17.4976
8.64634
2.12086
1.81461
5.17797
9.97833
12.3495
14.037
17.3953
22.9529
30.4951
40.7549
54.8316
74.8629
101.151
129.173
158.726
186.893
211.28
234.489
256.547
273.904
291.021
-0.14188
-0.19017
-0.162966
-0.162834
-0.177208
-0.182442
-0.197774
-0.214901
-0.21968
-0.191078
-0.11968
0.118108
2.82941
8.65058
18.4195
33.0523
52.2983
73.3958
95.3579
121.176
142.371
154.823
162.076
-0.263557
-0.285541
-0.289321
-0.336992
-0.375256
-0.380793
-0.409372
-0.428603
-0.42689
-0.416717
-0.431898
-0.453705
-0.507193
-0.503
-0.332996
0.387307
2.70606
9.40761
20.9786
36.6704
55.7268
65.1483
73.2238
-0.405978
-0.417355
-0.439028
-0.471096
-0.479867
-0.498482
-0.526063
-0.547859
-0.568198
-0.587782
-0.611988
-0.651874
-0.685474
-0.629683
-0.541796
-0.502531
-0.492232
-0.497886
-0.479282
-0.195732
1.38153
5.50396
9.67655
-0.584176
-0.590915
-0.595852
-0.618603
-0.6338
-0.645222
-0.659852
-0.675305
-0.687008
-0.692099
-0.705327
-0.726275
-0.739859
-0.734886
-0.70555
-0.696417
-0.694671
-0.683466
-0.64113
-0.548925
-0.537119
-0.424448
-0.365136
-0.735768
-0.740383
-0.748577
-0.7642
-0.775903
-0.78806
-0.802117
-0.816837
-0.830466
-0.844031
-0.853278
-0.866141
-0.866759
-0.858094
-0.8359
-0.815984
-0.805267
-0.790752
-0.764166
-0.737447
-0.757586
-0.733823
-0.733298
-0.891875
-0.894955
-0.900342
-0.910395
-0.919752
-0.929571
-0.939938
-0.949901
-0.958118
-0.963417
-0.971754
-0.980252
-0.983768
-0.980934
-0.970812
-0.959812
-0.950638
-0.939703
-0.925685
-0.923184
-0.934812
-0.951771
-0.975103
-1.04332
-1.04517
-1.04835
-1.05628
-1.06365
-1.07153
-1.0799
-1.08855
-1.0972
-1.10558
-1.10968
-1.11244
-1.11193
-1.10899
-1.10257
-1.09507
-1.08895
-1.08291
-1.07904
-1.09044
-1.11616
-1.15781
-1.21405
-1.19229
-1.19369
-1.19719
-1.20172
-1.20714
-1.21323
-1.21964
-1.22602
-1.2318
-1.23632
-1.24113
-1.24368
-1.24371
-1.24154
-1.23745
-1.23267
-1.22855
-1.22539
-1.22649
-1.23935
-1.26858
-1.31476
-1.37752
-1.339
-1.3399
-1.34217
-1.34583
-1.35
-1.35471
-1.35963
-1.36449
-1.36904
-1.37259
-1.37553
-1.37713
-1.37714
-1.37579
-1.37333
-1.37067
-1.36847
-1.36762
-1.37112
-1.38452
-1.41086
-1.45384
-1.50637
-1.484
-1.48465
-1.48634
-1.48914
-1.49238
-1.49603
-1.49984
-1.50348
-1.50667
-1.50962
-1.51176
-1.51292
-1.51305
-1.5123
-1.51098
-1.50961
-1.50868
-1.50907
-1.51338
-1.52579
-1.54955
-1.58943
-1.64225
-1.62783
-1.62835
-1.6297
-1.63184
-1.63438
-1.63724
-1.64022
-1.64309
-1.64568
-1.64792
-1.64956
-1.65053
-1.65082
-1.65054
-1.64997
-1.64944
-1.64936
-1.65043
-1.65443
-1.66412
-1.6827
-1.71466
-1.76171
-1.77081
-1.77125
-1.77236
-1.77404
-1.77607
-1.77837
-1.78076
-1.78309
-1.78523
-1.78706
-1.78848
-1.78943
-1.78994
-1.79009
-1.79008
-1.79019
-1.79072
-1.79222
-1.79568
-1.8025
-1.81455
-1.8342
-1.86152
-1.91315
-1.91354
-1.91442
-1.91584
-1.91752
-1.91941
-1.92139
-1.92336
-1.9252
-1.92682
-1.92817
-1.92922
-1.92999
-1.93058
-1.93112
-1.93182
-1.93295
-1.93492
-1.93833
-1.94388
-1.95229
-1.96444
-1.97984
-2.05504
-2.05542
-2.05621
-2.05736
-2.05877
-2.06037
-2.06208
-2.06381
-2.06547
-2.06703
-2.06842
-2.06964
-2.07072
-2.07175
-2.07285
-2.07417
-2.07594
-2.07847
-2.0822
-2.08765
-2.09533
-2.10544
-2.11779
-2.19659
-2.19694
-2.19764
-2.19863
-2.19985
-2.20126
-2.20279
-2.20438
-2.20597
-2.20753
-2.20904
-2.21048
-2.21192
-2.2134
-2.21506
-2.21701
-2.21947
-2.22266
-2.22691
-2.23263
-2.24016
-2.24966
-2.26121
-2.33782
-2.33816
-2.33878
-2.33966
-2.34076
-2.34205
-2.34348
-2.34501
-2.3466
-2.34823
-2.34989
-2.3516
-2.3534
-2.35535
-2.35757
-2.36017
-2.36333
-2.36726
-2.37221
-2.3786
-2.38668
-2.39664
-2.40876
-2.4788
-2.4791
-2.47968
-2.48049
-2.48151
-2.48273
-2.48412
-2.48564
-2.48727
-2.48901
-2.49086
-2.49285
-2.49501
-2.49743
-2.50019
-2.50343
-2.50731
-2.51201
-2.51779
-2.52481
-2.5335
-2.54409
-2.55692
-2.61952
-2.61981
-2.62034
-2.62111
-2.6221
-2.62329
-2.62466
-2.62621
-2.62792
-2.62979
-2.63184
-2.6341
-2.63662
-2.63948
-2.64276
-2.64659
-2.65112
-2.65652
-2.663
-2.6708
-2.68023
-2.69156
-2.70511
-2.76002
-2.76029
-2.76079
-2.76154
-2.76251
-2.76369
-2.76509
-2.76668
-2.76848
-2.77049
-2.77274
-2.77527
-2.77812
-2.78138
-2.78513
-2.78949
-2.79461
-2.80064
-2.8078
-2.8163
-2.82641
-2.8384
-2.85258
-2.9003
-2.90054
-2.90103
-2.90177
-2.90273
-2.90393
-2.90535
-2.90701
-2.9089
-2.91105
-2.91349
-2.91625
-2.9194
-2.92301
-2.92717
-2.93199
-2.93762
-2.9442
-2.95193
-2.96101
-2.9717
-2.98422
-2.99887
-3.04035
-3.04058
-3.04105
-3.04179
-3.04276
-3.04398
-3.04543
-3.04715
-3.04913
-3.05141
-3.05401
-3.05698
-3.06038
-3.06429
-3.06879
-3.07399
-3.08003
-3.08705
-3.09523
-3.10476
-3.11587
-3.12877
-3.14374
-3.18018
-3.18039
-3.18086
-3.1816
-3.18258
-3.18381
-3.18531
-3.18707
-3.18913
-3.19151
-3.19425
-3.19739
-3.20099
-3.20513
-3.2099
-3.2154
-3.22174
-3.22909
-3.23758
-3.24742
-3.25879
-3.27191
-3.287
-3.3198
-3.31999
-3.32044
-3.32119
-3.32217
-3.32342
-3.32494
-3.32675
-3.32887
-3.33133
-3.33417
-3.33744
-3.34119
-3.3455
-3.35045
-3.35615
-3.3627
-3.37024
-3.37892
-3.38891
-3.40039
-3.41354
-3.42858
-3.45918
-3.45936
-3.4598
-3.46054
-3.46153
-3.46279
-3.46433
-3.46616
-3.46832
-3.47084
-3.47374
-3.47709
-3.48093
-3.48535
-3.49041
-3.49621
-3.50286
-3.51048
-3.51921
-3.52921
-3.54062
-3.55363
-3.56843
-3.59834
-3.5985
-3.59892
-3.59967
-3.60065
-3.6019
-3.60345
-3.60529
-3.60747
-3.61
-3.61294
-3.61632
-3.6202
-3.62465
-3.62974
-3.63556
-3.64221
-3.6498
-3.65845
-3.66831
-3.67951
-3.69222
-3.7066
-3.73726
-3.73742
-3.73781
-3.73854
-3.73951
-3.74076
-3.74229
-3.74412
-3.74629
-3.74882
-3.75175
-3.75512
-3.75898
-3.7634
-3.76845
-3.7742
-3.78075
-3.7882
-3.79666
-3.80625
-3.8171
-3.82934
-3.84313
-3.87593
-3.87611
-3.87645
-3.87718
-3.87812
-3.87934
-3.88085
-3.88265
-3.88479
-3.88728
-3.89016
-3.89348
-3.89727
-3.90161
-3.90654
-3.91215
-3.91852
-3.92573
-3.93388
-3.94309
-3.95346
-3.96509
-3.97814
-4.01433
-4.01457
-4.01484
-4.01556
-4.01647
-4.01766
-4.01912
-4.02088
-4.02296
-4.02539
-4.02819
-4.03141
-4.03509
-4.03929
-4.04405
-4.04945
-4.05555
-4.06244
-4.07019
-4.07891
-4.08868
-4.0996
-4.11176
-4.15247
-4.15278
-4.15298
-4.1537
-4.15456
-4.15571
-4.15712
-4.15881
-4.16081
-4.16315
-4.16584
-4.16893
-4.17246
-4.17647
-4.18101
-4.18613
-4.19191
-4.1984
-4.20568
-4.21382
-4.2229
-4.233
-4.24418
-4.29038
-4.29072
-4.29087
-4.29159
-4.29239
-4.29349
-4.29483
-4.29645
-4.29835
-4.30057
-4.30313
-4.30606
-4.30939
-4.31317
-4.31744
-4.32225
-4.32765
-4.33369
-4.34043
-4.34793
-4.35626
-4.36546
-4.37559
-4.42807
-4.42841
-4.42854
-4.42924
-4.42998
-4.43103
-4.43229
-4.43381
-4.43559
-4.43767
-4.44006
-4.4428
-4.44591
-4.44943
-4.45339
-4.45784
-4.46282
-4.46836
-4.47452
-4.48135
-4.48887
-4.49714
-4.50617
-4.56556
-4.56587
-4.56599
-4.56667
-4.56735
-4.56833
-4.5695
-4.5709
-4.57255
-4.57447
-4.57668
-4.57919
-4.58205
-4.58527
-4.58889
-4.59295
-4.59747
-4.60249
-4.60804
-4.61415
-4.62085
-4.62816
-4.63609
-4.70286
-4.70313
-4.70326
-4.70391
-4.70451
-4.70542
-4.70648
-4.70775
-4.70925
-4.71099
-4.71299
-4.71526
-4.71783
-4.72074
-4.72399
-4.72762
-4.73166
-4.73613
-4.74104
-4.74642
-4.75228
-4.75864
-4.76547
-4.83999
-4.84021
-4.84036
-4.84096
-4.84149
-4.84231
-4.84324
-4.84438
-4.84571
-4.84725
-4.84901
-4.85102
-4.8533
-4.85585
-4.85872
-4.8619
-4.86543
-4.86932
-4.87358
-4.87823
-4.88326
-4.88868
-4.89444
-4.97698
-4.97714
-4.97729
-4.97784
-4.97829
-4.97901
-4.97982
-4.9808
-4.98194
-4.98327
-4.98479
-4.98651
-4.98846
-4.99065
-4.9931
-4.99582
-4.99883
-5.00213
-5.00573
-5.00964
-5.01385
-5.01835
-5.0231
-5.11385
-5.11395
-5.11414
-5.1146
-5.11496
-5.11558
-5.11624
-5.11706
-5.11801
-5.11911
-5.12036
-5.12179
-5.12341
-5.12522
-5.12723
-5.12947
-5.13194
-5.13464
-5.13758
-5.14076
-5.14417
-5.14779
-5.15157
-5.25068
-5.25073
-5.25091
-5.25127
-5.25156
-5.25206
-5.25257
-5.25322
-5.25396
-5.25482
-5.25581
-5.25693
-5.2582
-5.25961
-5.26119
-5.26294
-5.26486
-5.26696
-5.26925
-5.27171
-5.27433
-5.27711
-5.27998
-5.38745
-5.38746
-5.38761
-5.38787
-5.38807
-5.38844
-5.38881
-5.38927
-5.38981
-5.39043
-5.39114
-5.39194
-5.39285
-5.39387
-5.395
-5.39625
-5.39763
-5.39913
-5.40077
-5.40252
-5.40438
-5.40634
-5.40835
-5.52413
-5.52412
-5.52422
-5.52439
-5.5245
-5.52472
-5.52494
-5.52522
-5.52555
-5.52592
-5.52635
-5.52683
-5.52738
-5.52799
-5.52867
-5.52942
-5.53025
-5.53115
-5.53213
-5.53319
-5.5343
-5.53547
-5.53666
-5.66075
-5.66074
-5.66078
-5.66083
-5.66087
-5.66095
-5.66102
-5.66111
-5.66122
-5.66134
-5.66149
-5.66165
-5.66183
-5.66203
-5.66226
-5.66251
-5.66278
-5.66308
-5.66341
-5.66376
-5.66413
-5.66452
-5.66491
214.527
222.905
249.685
239.519
287.672
281.66
274.291
268.479
161.957
162.598
166.089
171.861
80.7315
88.082
98.0235
107.686
12.858
15.9559
21.0974
29.5534
-0.454555
-0.554791
-0.593773
-0.36481
-0.773322
-0.876496
-0.975565
-1.02309
-1.02381
-1.06562
-1.10762
-1.11443
-1.26234
-1.2785
-1.27062
-1.22407
-1.42551
-1.44627
-1.44289
-1.38397
-1.53789
-1.54827
-1.54107
-1.50479
-1.67188
-1.68198
-1.67533
-1.652
-1.79284
-1.80925
-1.81396
-1.80609
-1.88308
-1.8941
-1.90338
-1.91068
-1.99187
-1.9997
-2.00743
-2.01483
-2.12889
-2.13692
-2.14524
-2.15451
-2.27151
-2.279
-2.28759
-2.29762
-2.41993
-2.42798
-2.4369
-2.44678
-2.56861
-2.577
-2.58633
-2.59654
-2.71721
-2.72579
-2.73525
-2.74558
-2.86504
-2.87378
-2.88332
-2.89369
-3.01158
-3.02042
-3.03001
-3.04039
-3.15657
-3.16544
-3.17501
-3.18532
-3.29984
-3.30867
-3.31814
-3.3283
-3.44128
-3.44998
-3.45927
-3.4692
-3.58086
-3.58934
-3.59837
-3.60798
-3.7186
-3.72678
-3.73545
-3.74465
-3.85459
-3.86237
-3.8706
-3.87931
-3.98893
-3.99625
-4.00396
-4.01209
-4.12179
-4.12857
-4.1357
-4.14319
-4.25335
-4.25954
-4.26604
-4.27284
-4.38384
-4.38939
-4.39521
-4.40127
-4.51346
-4.51836
-4.52347
-4.52877
-4.64242
-4.64666
-4.65104
-4.65558
-4.77087
-4.77446
-4.77814
-4.78193
-4.89895
-4.90191
-4.90494
-4.90803
-5.02676
-5.02915
-5.03157
-5.03401
-5.15446
-5.15633
-5.15821
-5.16009
-5.28215
-5.28354
-5.28494
-5.28632
-5.40986
-5.41082
-5.41178
-5.41273
-5.53755
-5.53812
-5.53868
-5.53923
-5.66521
-5.6654
-5.66558
-5.66575
176.227
241.228
303.031
270.373
264.431
190.116
191.636
190.308
188.296
186.603
185.095
184.647
185.88
189.399
192.98
194.334
194.843
192.963
211.387
244.688
240.588
260.655
210.848
178.995
181.708
188.49
187.426
186.166
184.769
183.055
181.835
182.457
186.402
191.677
194.112
194.573
192.686
197.923
180.421
194.286
217.4
203.014
168.216
193.664
195.665
189.761
186.185
184.419
182.689
181.46
180.921
184.572
191.203
195.054
195.347
195.096
199.681
119.779
138.4
172.852
201.283
183.755
207.457
205.807
197.355
191.228
186.901
185.004
184.159
183.902
186.68
190.132
194.806
196.467
196.291
215.139
47.222
63.9179
110.528
209.062
205.038
214.584
209.758
202.919
198.234
193.514
190.416
189.826
190.618
192.62
189.618
188.419
195.568
200.437
246.404
0.785746
10.1025
38.1118
150.938
209.726
214.558
209.344
204.575
202.11
200.42
198.746
198.365
199.307
199.832
197.324
168.349
187.84
186.49
314.604
-1.07663
-0.980381
2.84215
42.3383
179.12
206.562
208.182
204.048
203.552
204.027
204.927
205.976
207.208
207.458
213.967
176.479
154.072
241.594
459.927
-1.09205
-0.96527
-1.04142
3.49679
52.2683
154.621
191.477
202.104
203.876
205.434
208.167
210.989
211.542
211.957
220.437
244.611
257.362
399.1
633.031
-1.13332
-1.05436
-0.948165
-0.970883
3.23026
36.9968
120.599
166.466
196.112
205.959
210.34
213.608
214.008
210.22
222.535
246.743
303.341
455.285
674.922
-1.25165
-1.14724
-1.1326
-1.10417
-1.13878
1.32729
24.318
81.9943
141.02
184.002
208.818
208.059
197.944
230.765
274.484
236.493
256.408
357.62
514.707
-1.41003
-1.355
-1.33461
-1.36525
-1.29257
-1.5613
-1.32394
10.9399
27.1573
98.0702
210.4
338.381
485.69
385.138
261.746
205.089
206.385
261.26
353.872
-1.60397
-1.57429
-1.5609
-1.52755
-1.56868
-1.8318
-2.58131
-3.68212
-4.33879
20.3561
177.315
407.138
455.917
332.109
222.206
170.511
182.909
210.154
269.477
-1.78355
-1.77821
-1.77957
-1.76095
-1.80374
-2.00886
-2.52582
-3.53676
-4.91328
-4.47636
20.1578
51.6317
53.2107
133.279
182.615
161.822
168.215
188.998
225.827
-1.91762
-1.92182
-1.93021
-1.9605
-2.05859
-2.21607
-2.4052
-2.78404
-3.2567
-3.14755
-0.239028
2.46373
3.56172
13.2873
81.479
130.336
153.256
171.712
193.454
-2.02907
-2.05229
-2.07471
-2.11085
-2.18747
-2.29401
-2.42711
-2.62864
-2.74087
-2.17894
-0.888762
-0.284318
-0.12202
1.79177
10.5684
63.1706
105.092
141.218
163.448
-2.16992
-2.19566
-2.22531
-2.26162
-2.31634
-2.38819
-2.4709
-2.57352
-2.64407
-2.42213
-1.65064
-1.16553
-1.07601
-0.813351
0.381649
11.0802
48.9009
103.918
139.706
-2.31595
-2.34474
-2.37701
-2.41314
-2.457
-2.50979
-2.5646
-2.61449
-2.6505
-2.57001
-2.25104
-1.9935
-1.81851
-1.79402
-1.80886
-3.17397
18.5749
87.9618
123.427
-2.46488
-2.49484
-2.52797
-2.56282
-2.59974
-2.64002
-2.68295
-2.71926
-2.73744
-2.70255
-2.57117
-2.40286
-2.24104
-2.17634
-2.7968
-5.17378
23.7098
97.4288
112.613
-2.61489
-2.645
-2.67826
-2.71223
-2.7459
-2.78019
-2.81759
-2.85695
-2.88702
-2.88838
-2.84109
-2.7714
-2.67949
-2.69014
-3.04757
-3.07162
25.6705
81.0176
117.184
-2.76416
-2.79436
-2.82775
-2.86176
-2.8951
-2.92934
-2.96838
-3.01641
-3.0724
-3.12597
-3.17649
-3.26195
-3.35892
-3.51202
-3.67751
-2.89696
8.86803
49.4191
94.2742
-2.91229
-2.94241
-2.97595
-3.01064
-3.04522
-3.08182
-3.126
-3.185
-3.26745
-3.3806
-3.56045
-3.85576
-4.16103
-4.37203
-4.52241
-4.4194
-1.47449
18.2524
67.9265
-3.05892
-3.08878
-3.12231
-3.15777
-3.19401
-3.23318
-3.28168
-3.34901
-3.44928
-3.60358
-3.87519
-4.32448
-4.75639
-5.00575
-5.07259
-4.91656
-3.47629
2.17984
80.6068
-3.20369
-3.23312
-3.26637
-3.30224
-3.33974
-3.3806
-3.43073
-3.50021
-3.60291
-3.7736
-4.07531
-4.56327
-5.03778
-5.28731
-5.29736
-5.07431
-4.51387
-3.41953
62.6157
-3.34635
-3.37516
-3.4078
-3.44353
-3.48152
-3.52295
-3.57229
-3.63746
-3.73632
-3.8957
-4.16665
-4.59919
-5.02767
-5.25533
-5.2639
-5.07089
-4.74666
-4.44458
40.5555
-3.4868
-3.51475
-3.54642
-3.58142
-3.61912
-3.66032
-3.70849
-3.76731
-3.85539
-3.98757
-4.19391
-4.51165
-4.82791
-5.01799
-5.03841
-4.917
-4.63764
-4.227
12.8136
-3.62497
-3.65182
-3.68217
-3.71591
-3.75261
-3.79283
-3.83929
-3.89332
-3.96909
-4.07027
-4.20737
-4.39896
-4.58413
-4.68969
-4.6982
-4.63303
-4.4022
-3.60249
-1.3707
-3.76088
-3.78639
-3.8151
-3.8471
-3.88214
-3.92073
-3.96461
-4.0164
-4.08069
-4.15651
-4.23853
-4.32399
-4.38513
-4.39413
-4.3685
-4.30839
-3.98713
-2.79193
-1.0327
-3.89463
-3.91858
-3.94536
-3.97518
-4.00798
-4.04457
-4.08666
-4.13326
-4.18866
-4.24716
-4.29313
-4.30866
-4.28227
-4.2227
-4.17337
-4.08038
-3.75509
-2.60256
-1.87251
-4.02637
-4.04857
-4.07322
-4.10054
-4.13048
-4.16416
-4.2029
-4.24576
-4.29175
-4.33754
-4.36511
-4.34846
-4.27951
-4.19051
-4.08823
-4.08428
-3.59717
-2.99522
-0.765804
-4.15632
-4.17663
-4.19901
-4.22377
-4.25063
-4.28066
-4.31545
-4.35244
-4.38901
-4.42455
-4.44913
-4.43126
-4.35541
-4.31035
-4.10032
-4.14203
-3.51926
-3.5844
0.114194
-4.28472
-4.30301
-4.32303
-4.34523
-4.36911
-4.39491
-4.4253
-4.45513
-4.48368
-4.51209
-4.53421
-4.5412
-4.47409
-4.55347
-4.36328
-4.14826
-3.45815
-3.8618
-2.35282
-4.41183
-4.428
-4.44555
-4.46486
-4.4859
-4.50669
-4.5299
-4.5532
-4.57398
-4.59531
-4.61827
-4.64208
-4.65888
-4.75782
-4.86681
-4.27688
-3.33075
-3.63542
-2.48738
-4.53796
-4.55191
-4.56695
-4.58308
-4.60125
-4.61735
-4.63159
-4.64533
-4.65822
-4.67318
-4.69615
-4.73246
-4.78776
-4.8691
-4.96559
-4.46432
-3.44658
-3.29141
-1.50783
-4.66341
-4.67511
-4.68756
-4.70069
-4.71502
-4.72803
-4.73644
-4.74056
-4.74318
-4.75126
-4.77272
-4.81292
-4.86354
-4.91743
-4.98051
-4.83167
-4.25606
-3.72643
-0.702631
-4.78844
-4.79797
-4.80787
-4.81793
-4.82811
-4.83758
-4.84369
-4.84433
-4.83937
-4.83961
-4.85404
-4.88049
-4.90567
-4.92593
-4.97326
-5.02374
-5.00099
-5.85495
-2.00393
-4.91329
-4.92081
-4.92835
-4.9356
-4.94219
-4.94785
-4.95111
-4.95065
-4.94551
-4.94096
-4.94233
-4.94561
-4.94588
-4.94108
-4.96742
-5.0705
-5.18115
-8.73582
5.88058
-5.03818
-5.04392
-5.04942
-5.05439
-5.05831
-5.06094
-5.06135
-5.05889
-5.05363
-5.04807
-5.04162
-5.03113
-5.01459
-4.99055
-4.96457
-5.00814
-5.10339
-3.32817
24.7043
-5.16324
-5.1675
-5.17134
-5.17461
-5.17664
-5.17729
-5.17605
-5.17152
-5.16597
-5.16084
-5.15146
-5.13394
-5.11037
-5.08239
-5.03501
-4.97504
-4.82428
-5.40058
0.772556
-5.28862
-5.29163
-5.29417
-5.2962
-5.29694
-5.29644
-5.29468
-5.28902
-5.28392
-5.27905
-5.26688
-5.24385
-5.22545
-5.20841
-5.2037
-5.23444
-5.15858
-5.60914
-5.93713
-5.41427
-5.41627
-5.4178
-5.41895
-5.41897
-5.41797
-5.41619
-5.41074
-5.40661
-5.40279
-5.39066
-5.3681
-5.35741
-5.33954
-5.36791
-5.42457
-5.35806
-5.22893
-4.84326
-5.54012
-5.54124
-5.54203
-5.54257
-5.54232
-5.54148
-5.54004
-5.53678
-5.53417
-5.53219
-5.52408
-5.50906
-5.50714
-5.48608
-5.50977
-5.43173
-5.38406
-5.22312
-4.31951
-5.66604
-5.66639
-5.66662
-5.66675
-5.66658
-5.66627
-5.66573
-5.66473
-5.66449
-5.66478
-5.6634
-5.66234
-5.67422
-5.68166
-5.72487
-5.69424
-5.52082
-5.78522
-5.24313
)
;

boundaryField
{
    leftWall
    {
        type            calculated;
        value           nonuniform List<scalar> 
50
(
573.764
514.831
455.377
396.123
337.771
280.662
225.097
170.848
89.7555
17.4976
-0.14188
-0.263557
-0.405978
-0.584176
-0.735768
-0.891875
-1.04332
-1.19229
-1.339
-1.484
-1.62783
-1.77081
-1.91315
-2.05504
-2.19659
-2.33782
-2.4788
-2.61952
-2.76002
-2.9003
-3.04035
-3.18018
-3.3198
-3.45918
-3.59834
-3.73726
-3.87593
-4.01433
-4.15247
-4.29038
-4.42807
-4.56556
-4.70286
-4.83999
-4.97698
-5.11385
-5.25068
-5.38745
-5.52413
-5.66075
)
;
    }
    rightWall
    {
        type            calculated;
        value           nonuniform List<scalar> 
50
(
1365.32
1291.5
1179.58
1040.33
872.496
672.22
479.007
329.728
211.387
197.923
199.681
215.139
246.404
314.604
459.927
633.031
674.922
514.707
353.872
269.477
225.827
193.454
163.448
139.706
123.427
112.613
117.184
94.2742
67.9265
80.6068
62.6157
40.5555
12.8136
-1.3707
-1.0327
-1.87251
-0.765804
0.114194
-2.35282
-2.48738
-1.50783
-0.702631
-2.00393
5.88058
24.7043
0.772556
-5.93713
-4.84326
-4.31951
-5.24313
)
;
    }
    lowerWall
    {
        type            calculated;
        value           nonuniform List<scalar> 
62
(
603.193
599.659
600.301
605.063
615.133
627.898
640.121
650.764
661.395
673.888
689.054
706.789
726.643
748.216
771.072
794.6
817.671
838.445
854.094
864.722
853.502
861.323
898.345
868.915
804.758
744.269
692.99
648.032
602.591
545.015
480.771
277.125
285.502
312.282
302.116
868.791
808.947
710.852
581.463
421.676
310.822
190.451
51.6131
879.071
915.252
847.302
608.936
531.726
526.554
533.095
390.538
243.259
205.721
217.41
239.436
252.955
270.882
286.889
318.379
604.524
1263.91
1388.99
)
;
    }
    atmosphere
    {
        type            calculated;
        value           nonuniform List<scalar> 
46
(
-5.72904
-5.72904
-5.72904
-5.72904
-5.72904
-5.72904
-5.72904
-5.72904
-5.72904
-5.72904
-5.72904
-5.72904
-5.72904
-5.72904
-5.72904
-5.72904
-5.72904
-5.72904
-5.72904
-5.72904
-5.72904
-5.72904
-5.72904
-5.72904
-5.72904
-5.72904
-5.72904
-5.72904
-5.72904
-5.72904
-5.72904
-5.72904
-5.72904
-5.72904
-5.72908
-5.73058
-5.73248
-5.73468
-5.74369
-5.7688
-5.79401
-5.8775
-5.79752
-5.90782
-6.72694
-5.72904
)
;
    }
    defaultFaces
    {
        type            empty;
    }
}


// ************************************************************************* //
