/*--------------------------------*- C++ -*----------------------------------*\
| =========                 |                                                 |
| \\      /  F ield         | OpenFOAM: The Open Source CFD Toolbox           |
|  \\    /   O peration     | Version:  5.x                                   |
|   \\  /    A nd           | Web:      www.OpenFOAM.org                      |
|    \\/     M anipulation  |                                                 |
\*---------------------------------------------------------------------------*/
FoamFile
{
    version     2.0;
    format      ascii;
    class       volScalarField;
    location    "0.55";
    object      p_rgh;
}
// * * * * * * * * * * * * * * * * * * * * * * * * * * * * * * * * * * * * * //

dimensions      [1 -1 -2 0 0 0 0];

internalField   nonuniform List<scalar> 
2268
(
603.193
599.659
600.301
605.063
615.133
627.898
640.121
650.764
661.395
673.888
689.054
706.789
726.643
748.216
771.072
794.6
817.671
838.445
854.094
864.722
853.502
861.323
898.345
603.119
598.81
599.056
603.586
613.576
626.624
639.122
649.92
660.633
673.207
688.38
706.032
725.842
747.397
770.203
793.703
817.028
838.659
855.639
868.84
849.267
849.716
892.922
602.524
597.474
597.027
600.734
610.572
624.104
637.162
648.273
659.144
671.888
687.255
705.104
725.042
746.656
769.39
792.612
815.419
837.132
855.43
873.424
846.427
842.299
890.907
602.129
596.013
594.217
596.576
606.183
620.323
634.31
645.935
657.044
670.02
685.633
703.695
723.81
745.589
768.455
791.698
814.432
836.02
854.519
870.652
864.487
851.725
898.91
602.635
594.802
590.933
591.56
600.401
615.49
630.744
643.021
654.423
667.694
683.598
701.903
722.25
744.308
767.463
790.937
813.925
835.685
854.533
870.365
876.453
874.025
912.896
604.385
594.957
587.789
586.508
594.834
610.784
626.971
639.686
651.328
664.912
681.187
699.734
720.331
742.789
766.401
790.276
813.704
835.935
855.529
872.194
883.619
890.278
926.314
607.679
596.715
585.286
582.318
590.934
607.186
623.161
635.8
647.708
661.638
678.305
697.292
718.27
741.228
765.389
789.745
813.718
836.59
857.05
874.678
888.875
900.23
927.597
612.288
600.765
581.574
575.358
585.38
602.469
617.926
630.273
642.966
657.763
674.818
694.117
715.321
739.017
764.166
789.267
814.088
837.836
859.117
877.546
892.624
906.789
922.211
879.071
915.252
847.302
608.936
531.726
526.554
533.095
390.538
243.259
205.721
217.41
239.436
252.955
270.882
286.889
318.379
604.524
1263.91
1388.99
865.412
912.626
806.716
560.508
524.179
520.675
433.401
230.478
196.026
192.067
190.546
190.949
198.124
207.831
218.92
240.38
435.551
1129.57
1376.01
805.012
925.972
800.785
528.158
516.494
487.158
303.068
204.453
194.531
192.201
190.659
190.325
191.379
193.699
195.758
197.402
260.085
741.432
1311.18
768.807
803.068
741.406
499.326
508.884
440.098
239.365
199.133
194.189
191.849
190.32
190.211
191.411
193.574
195.333
196.477
219.809
405.722
1190.73
686.54
706.013
728.826
578.081
506.769
352.845
214.445
197.166
193.865
191.447
190.038
189.949
191.299
193.523
195.326
196.363
203.917
273.297
1129.07
634.545
659.445
728.368
698.877
506.424
269.148
202.398
195.688
193.096
190.748
189.372
189.411
190.93
193.339
195.294
196.396
197.367
229.291
994.264
573.033
650.651
741.571
707.086
462.694
231.127
201.454
194.337
191.975
189.833
188.5
188.522
190.123
192.86
195.19
196.296
195.95
212.303
809.203
493.054
674.329
773.855
724.761
475.523
214.343
201.606
193.083
190.722
188.794
187.441
187.331
188.87
191.954
194.728
195.76
195.837
203.886
674.946
607.598
552.526
459.796
401.647
424.821
480.483
536.932
574.488
607.605
640.093
667.444
689.483
711.345
736.595
762.946
788.777
814.669
839.912
862.581
882.308
895.651
897.913
859.238
199.605
100.663
23.2522
21.4558
63.3961
117.374
144.018
164.082
203.457
266.045
346.91
443.013
554.602
668.995
759.813
787.834
817.388
845.554
869.941
893.151
915.209
932.566
949.683
0.641977
0.593686
0.620905
0.621022
0.606648
0.601414
0.586082
0.568955
0.564176
0.592778
0.664181
6.88777
52.9056
127.651
253.112
421.383
626.034
831.614
879.214
905.016
926.227
938.678
945.931
0.645494
0.623512
0.619814
0.572059
0.533795
0.528258
0.499679
0.480448
0.482161
0.492334
0.477153
0.455351
0.40196
0.40772
0.581274
13.3162
49.9168
157.14
333.898
561.561
784.986
884.561
910.435
0.628268
0.616891
0.595218
0.563149
0.554378
0.535763
0.508182
0.486387
0.466051
0.446469
0.422263
0.382378
0.353379
0.419699
0.499846
0.538364
0.548548
0.543009
0.561798
0.846601
34.5237
107.1
179.014
0.575264
0.568525
0.563587
0.540837
0.525639
0.514218
0.499588
0.484135
0.472478
0.46755
0.454287
0.433181
0.420475
0.483449
0.512988
0.511523
0.472024
0.483568
0.52595
0.618251
0.631388
0.747672
0.809691
0.548866
0.544252
0.536057
0.520435
0.508731
0.496574
0.482518
0.467797
0.454218
0.440897
0.43165
0.418783
0.418044
0.426709
0.450745
0.468652
0.487381
0.500511
0.533619
0.694708
0.803297
0.837102
0.683086
0.517954
0.514874
0.509487
0.499434
0.490077
0.480258
0.469891
0.459928
0.451711
0.446501
0.438308
0.429654
0.426591
0.430752
0.439018
0.450018
0.459192
0.470127
0.490551
0.707475
0.809589
0.79263
0.769298
0.4917
0.489855
0.486674
0.478745
0.471372
0.463491
0.455125
0.44647
0.437824
0.42944
0.425339
0.422579
0.424342
0.428202
0.433259
0.439952
0.446088
0.452283
0.473163
0.444605
0.617124
0.741491
0.543722
0.467923
0.466526
0.463024
0.458494
0.453081
0.446986
0.440574
0.434194
0.428422
0.423896
0.419087
0.416534
0.416648
0.420359
0.422933
0.427548
0.431739
0.435638
0.434896
0.420892
0.391666
0.536781
0.872718
0.446415
0.445513
0.44324
0.439583
0.435411
0.430705
0.425779
0.420924
0.416372
0.412824
0.409886
0.408288
0.408273
0.409626
0.412084
0.414746
0.417027
0.417974
0.414293
0.400888
0.374565
0.503124
0.9883
0.426604
0.425954
0.424262
0.421467
0.418228
0.414576
0.410771
0.407125
0.40394
0.400984
0.398848
0.397684
0.397555
0.398307
0.399624
0.401001
0.401925
0.401536
0.397228
0.384816
0.361068
0.371467
0.937117
0.407967
0.407453
0.406099
0.403965
0.401422
0.398559
0.395584
0.392715
0.390124
0.387879
0.386242
0.385273
0.384982
0.385258
0.385831
0.386358
0.386446
0.38537
0.381368
0.371686
0.353101
0.321146
0.332105
0.390191
0.389748
0.388633
0.386958
0.384923
0.38263
0.380239
0.377907
0.375769
0.373935
0.372518
0.371565
0.371061
0.37091
0.370911
0.370809
0.370278
0.368774
0.365315
0.3585
0.346445
0.326794
0.299481
0.373042
0.372649
0.371772
0.370353
0.368672
0.366783
0.364798
0.362833
0.360986
0.359366
0.358016
0.356968
0.356196
0.355614
0.355074
0.354374
0.353245
0.351274
0.34786
0.342315
0.333896
0.321751
0.30635
0.35634
0.355961
0.355173
0.354022
0.352613
0.351011
0.349304
0.347578
0.345917
0.344359
0.342969
0.341747
0.34066
0.339632
0.338538
0.337216
0.335446
0.332916
0.329188
0.323732
0.316054
0.305942
0.293598
0.339994
0.339636
0.338936
0.337951
0.33673
0.335321
0.333789
0.3322
0.330607
0.329047
0.327543
0.326096
0.324664
0.323176
0.321524
0.319565
0.317112
0.313918
0.309666
0.303948
0.296419
0.286918
0.275373
0.32395
0.323617
0.322989
0.322111
0.321011
0.319723
0.318293
0.316764
0.315174
0.313546
0.311885
0.310176
0.308379
0.306423
0.304208
0.301603
0.298442
0.294517
0.289568
0.283171
0.275091
0.265131
0.253018
0.308172
0.307865
0.307292
0.306481
0.305456
0.304235
0.302851
0.301331
0.299697
0.297957
0.296107
0.294123
0.291958
0.289541
0.286777
0.283537
0.279662
0.274957
0.269182
0.262157
0.25347
0.24288
0.230048
0.292638
0.292354
0.29182
0.291051
0.290066
0.288875
0.287499
0.285952
0.284243
0.282371
0.28032
0.27806
0.275538
0.272684
0.269403
0.265572
0.261046
0.255644
0.249163
0.241365
0.231931
0.220603
0.207052
0.277335
0.277071
0.276566
0.275818
0.27485
0.273664
0.272271
0.270676
0.268877
0.266863
0.264613
0.262089
0.259237
0.255982
0.252231
0.247869
0.242753
0.236715
0.229561
0.221061
0.210947
0.198958
0.184781
0.262256
0.262012
0.261525
0.260784
0.259819
0.258623
0.257199
0.255545
0.253651
0.2515
0.249064
0.2463
0.243152
0.239544
0.235384
0.230559
0.224935
0.218351
0.210625
0.20154
0.190857
0.178333
0.163679
0.247397
0.24717
0.246697
0.245957
0.244986
0.243771
0.242312
0.240598
0.238615
0.236339
0.233738
0.230767
0.227367
0.223462
0.218961
0.213756
0.207719
0.200696
0.192518
0.182987
0.17188
0.158974
0.144007
0.232758
0.232549
0.232085
0.231342
0.230364
0.22913
0.227636
0.225868
0.223808
0.221427
0.21869
0.21555
0.211947
0.207807
0.20304
0.197545
0.191198
0.183855
0.175357
0.165522
0.15415
0.141036
0.125937
0.21834
0.218149
0.217695
0.216949
0.215964
0.214714
0.213193
0.211383
0.209263
0.206802
0.203962
0.200696
0.196944
0.192634
0.187681
0.181987
0.175436
0.167894
0.159212
0.149224
0.137749
0.124601
0.109557
0.204147
0.203973
0.203532
0.202786
0.201799
0.200541
0.199003
0.197166
0.195007
0.192493
0.189587
0.186241
0.182395
0.177983
0.172922
0.167121
0.16047
0.152848
0.144117
0.134124
0.122707
0.109698
0.0948953
0.190182
0.190023
0.189602
0.188859
0.187879
0.186621
0.185079
0.183233
0.181058
0.178522
0.175587
0.172206
0.168323
0.163875
0.158784
0.152965
0.146317
0.138728
0.130074
0.120216
0.10901
0.096309
0.0819291
0.176455
0.176302
0.175911
0.175175
0.174209
0.172963
0.171432
0.169595
0.167429
0.164901
0.161974
0.158604
0.154739
0.150318
0.145271
0.139518
0.132968
0.125519
0.117061
0.107469
0.0966177
0.0843796
0.0705913
0.162983
0.162808
0.162464
0.161736
0.160796
0.159573
0.158068
0.156259
0.154124
0.151634
0.148752
0.145437
0.14164
0.137307
0.13237
0.12676
0.120395
0.113186
0.105033
0.095827
0.0854574
0.0738217
0.0607776
0.149781
0.149537
0.14927
0.148546
0.147642
0.146451
0.144987
0.143226
0.141146
0.138721
0.135918
0.132697
0.129015
0.124821
0.120056
0.114658
0.108555
0.101668
0.0939159
0.0852015
0.0754273
0.0645132
0.052345
0.136837
0.136519
0.136327
0.135603
0.134747
0.133597
0.132187
0.130491
0.128489
0.126156
0.123461
0.120371
0.116844
0.112836
0.108296
0.103168
0.0973914
0.0908998
0.0836237
0.0754845
0.0663992
0.0563047
0.0451184
0.124119
0.123775
0.123626
0.122907
0.122106
0.121005
0.119663
0.118048
0.116144
0.113927
0.11137
0.108442
0.105107
0.101326
0.0970551
0.0922469
0.0868491
0.0808087
0.0740686
0.0665666
0.0582389
0.0490365
0.0389063
0.11162
0.111279
0.111154
0.110449
0.109709
0.108663
0.107403
0.105885
0.104098
0.10202
0.0996274
0.0968922
0.093783
0.0902646
0.0863009
0.0818519
0.0768756
0.071329
0.0651676
0.0583464
0.0508199
0.0425539
0.0335232
0.0993304
0.0990134
0.098892
0.0982119
0.0975359
0.0965561
0.0953902
0.0939845
0.0923329
0.0904156
0.088211
0.0856947
0.0828403
0.0796181
0.0759948
0.0719385
0.0674168
0.0623969
0.0568471
0.0507381
0.0440375
0.0367232
0.0288014
0.0872256
0.0869502
0.086819
0.0861739
0.0855667
0.0846614
0.0836053
0.0823262
0.0808273
0.0790899
0.077096
0.0748223
0.0722467
0.0693453
0.0660909
0.0624574
0.05842
0.053955
0.0490408
0.0436626
0.0377992
0.0314368
0.0246069
0.0752829
0.0750648
0.0749189
0.0743204
0.0737885
0.0729666
0.0720323
0.0708942
0.0695649
0.0680258
0.0662608
0.0642517
0.0619794
0.059422
0.0565599
0.0533738
0.0498437
0.0459553
0.041693
0.0370491
0.032018
0.0265971
0.0208331
0.0634937
0.0633299
0.0631753
0.0626343
0.0621844
0.0614575
0.0606546
0.0596713
0.0585256
0.0572007
0.0556822
0.0539561
0.0520059
0.0498154
0.0473671
0.0446473
0.0416426
0.0383427
0.0347402
0.030831
0.0266209
0.0221159
0.0173714
0.0518164
0.0517141
0.0515251
0.0510689
0.0507051
0.0500855
0.0494233
0.0486063
0.0476563
0.046558
0.0453001
0.0438716
0.0422582
0.0404494
0.0384323
0.036193
0.0337271
0.0310227
0.0280827
0.0249037
0.0214955
0.017873
0.0140906
0.0401802
0.0401324
0.0399494
0.0395851
0.0393035
0.0388016
0.0382891
0.0376437
0.0368978
0.0360352
0.0350485
0.0339279
0.0326638
0.0312461
0.0296695
0.0279226
0.0259988
0.0238943
0.02161
0.019151
0.0165252
0.0137491
0.0108775
0.0285999
0.0285938
0.0284443
0.0281799
0.027983
0.0276132
0.0272473
0.0267806
0.0262433
0.0256233
0.0249133
0.0241092
0.0232015
0.022185
0.0210525
0.0198022
0.0184224
0.0169197
0.0152865
0.0135322
0.0116698
0.00971269
0.00770256
0.0171188
0.0171264
0.0170244
0.0168625
0.0167523
0.0165257
0.0163075
0.0160245
0.0157003
0.0153253
0.0148985
0.0144143
0.0138696
0.0132585
0.0125775
0.0118246
0.0109959
0.0100942
0.00911413
0.00806096
0.00694716
0.00578232
0.00459066
0.0056916
0.00570532
0.00566614
0.00560934
0.00557588
0.00549753
0.005427
0.0053316
0.00522431
0.00509856
0.00495684
0.00479556
0.00461453
0.00441152
0.0041855
0.00393477
0.00365954
0.00335856
0.00303236
0.00268348
0.0023143
0.00192688
0.00152943
747.994
756.372
783.152
772.986
946.334
940.322
932.953
927.141
945.812
946.45
949.939
955.711
925.945
940.28
964.475
995.606
234.936
285.357
354.012
445.722
0.720584
0.622967
0.593182
0.830191
0.53816
0.441575
0.344799
0.298676
0.644359
0.395632
0.342606
0.338719
0.354198
0.313475
0.312949
0.360426
0.463876
0.314633
0.335022
0.368301
0.956784
0.461797
0.403319
0.409362
0.992486
0.97949
0.985868
1.00892
0.6925
0.270391
0.223565
0.248597
0.277914
0.266894
0.25762
0.250316
0.294317
0.286494
0.278764
0.271359
0.282498
0.274461
0.26615
0.256875
0.265073
0.257584
0.248988
0.238961
0.24184
0.233795
0.224876
0.214993
0.218363
0.209964
0.200641
0.190434
0.194949
0.186369
0.176916
0.166585
0.172323
0.163582
0.154037
0.143665
0.150976
0.142135
0.132543
0.122168
0.131176
0.122303
0.112735
0.102428
0.113104
0.104274
0.0948031
0.0846442
0.0968597
0.0881576
0.0788636
0.0689347
0.0824745
0.07399
0.0649618
0.0553511
0.0699232
0.0617458
0.0530738
0.043874
0.0591321
0.0513465
0.0431158
0.0344136
0.049984
0.0426657
0.0349512
0.0268233
0.0423217
0.0355374
0.0284043
0.0209161
0.0359529
0.0297594
0.0232614
0.0164664
0.0306603
0.0251029
0.0192852
0.0132225
0.0262271
0.021331
0.016226
0.010922
0.0224621
0.0182312
0.0138463
0.00930671
0.0192066
0.015625
0.0119412
0.00814833
0.01633
0.0133636
0.0103391
0.00724935
0.0137106
0.0113185
0.00890179
0.00646344
0.0112079
0.00933651
0.00745928
0.00557768
0.00871265
0.00731461
0.00592164
0.00453545
0.00619823
0.00522986
0.00427055
0.00332446
0.00370245
0.00313107
0.00256913
0.00202001
0.00123507
0.00104724
0.000865814
0.00068915
709.694
774.695
836.498
761.961
430.472
192.686
193.148
190.91
188.83
187.137
185.63
185.187
186.417
189.937
193.515
194.868
195.377
194.822
628.365
903.349
899.249
919.317
781.364
255.485
186.841
190.534
189.836
187.028
185.428
183.727
182.651
183.287
187.099
192.351
194.771
195.232
193.346
781.181
964.273
978.14
1001.26
850.371
179.162
204.965
198.867
193.181
189.098
185.29
183.493
182.424
182.528
186.199
192.267
195.844
196.131
204.726
945.092
1026.94
1047.39
1081.9
988.072
186.708
210.777
207.892
199.742
194.607
189.153
185.951
185.243
185.584
189.188
191.747
195.768
197.383
418.836
1105.7
651.999
988.094
1144.65
1106.02
207.198
216.374
211.511
204.675
201.473
196.697
192.82
192.177
192.45
194.464
191.675
189.963
196.662
772.964
1278.04
36.418
310.435
1019.19
1212.27
561.454
216.524
211.291
206.522
204.077
203.529
201.82
201.358
201.366
201.883
300.986
232.446
202.789
1075.39
1474.04
0.247401
0.404857
216.873
1204.14
1339.82
435.089
210.34
206.203
205.709
206.189
208.199
209.202
209.35
209.684
418.677
750.662
969.444
1422.07
1740.23
0.363897
0.491543
0.454523
202.252
1324.82
1419.32
751.884
204.47
206.241
207.782
210.442
213.229
213.816
214.308
438.288
1428.88
1583.4
1725.14
1883.96
0.469974
0.549954
0.657355
0.667387
165.794
1163.09
1247.84
1058.4
421.577
208.47
212.781
216.05
217.09
312.043
1266.71
1601.77
1664.86
1875.31
1952.85
0.484718
0.606344
0.741045
0.759594
0.563547
108.668
759.734
1130.95
1189.97
643.188
293.594
434.277
1138.69
1456.16
1499.88
1375.94
766.397
1104.54
1886.04
0.461244
0.765562
1.1658
1.00752
0.527305
0.269398
25.8599
418.617
746.467
1059.33
1340.64
1544.68
1712.51
1344.27
471.072
376.29
376.731
735.833
1824.53
0.946696
1.0858
1.01229
0.399602
0.3642
0.491422
-0.169701
-1.19724
53.3576
539.525
1388.29
1689.71
1552.6
1654.28
1344.32
675.633
365.394
1025.16
1965.59
0.282324
0.290388
0.266623
0.276696
0.248152
0.0345902
-0.464482
-1.32468
-1.56003
96.2841
595.697
948.795
1164.53
1544.15
2029.57
2014.44
1265.77
1663.99
2239.39
0.243374
0.239174
0.230792
0.200528
0.103311
-0.0544946
-0.238294
-0.213486
4.45493
4.95992
9.86551
34.5722
7.33237
113.691
1565.53
2198.85
2223.77
2179.66
2354.45
0.257126
0.233901
0.211484
0.175345
0.0987264
-0.00777436
-0.140309
-0.222378
0.718143
2.07806
3.57531
2.89081
2.65326
5.78087
474.07
2121.46
2348.68
2390.42
2449.64
0.241468
0.215728
0.186077
0.149768
0.0950437
0.0231987
-0.0594376
-0.160923
-0.223415
1.53227
3.85862
2.22165
1.50957
2.09379
141.178
1171.12
2413.41
2339.55
1772.01
0.220634
0.191837
0.159576
0.123449
0.0795927
0.0267995
-0.028007
-0.0778569
-0.107952
0.865127
1.88425
0.551762
0.748804
0.879653
41.0839
527.255
1941.1
2468.65
1669.5
0.196895
0.166938
0.133806
0.0989559
0.0620419
0.0217668
-0.0211706
-0.0574781
-0.0651764
0.0564997
0.109252
0.265816
0.429841
0.532715
0.602244
356.29
1477.25
2644.36
2711.6
0.17208
0.141973
0.108716
0.0747433
0.0410726
0.00678306
-0.0306143
-0.0698327
-0.0958072
-0.100965
-0.0538312
0.0182447
0.112415
0.149045
0.508057
296.167
804.8
1302.04
2000.86
0.148005
0.117804
0.08442
0.0504118
0.0170693
-0.0171747
-0.0562075
-0.104163
-0.160027
-0.213715
-0.264207
-0.349491
-0.445432
-0.583221
-0.545053
71.2259
326.691
586.115
292.321
0.125069
0.0949522
0.0614103
0.0267317
-0.00779431
-0.0444616
-0.0886384
-0.147601
-0.230054
-0.343186
-0.522996
-0.818294
-1.12343
-1.3335
-1.46797
-1.14788
18.5764
1073.99
2013.79
0.103633
0.0737754
0.0402412
0.00478435
-0.0310543
-0.0687594
-0.117927
-0.186417
-0.286674
-0.440969
-0.712576
-1.15915
-1.57916
-1.826
-1.89006
-1.70132
0.146765
247.928
2094.82
0.0840634
0.0546286
0.0213756
-0.0144911
-0.0511041
-0.0904019
-0.140527
-0.212098
-0.315095
-0.485789
-0.787501
-1.26964
-1.68287
-1.92451
-1.77504
-1.62593
-0.976018
160.392
1579.71
0.0665901
0.0377814
0.00513891
-0.0305868
-0.0683219
-0.108023
-0.156797
-0.222044
-0.323313
-0.482594
-0.753636
-1.18105
-1.58452
-1.64263
-1.06952
-1.35277
-1.03174
182.472
2452.28
0.0513374
0.0233905
-0.00828234
-0.0432856
-0.0809839
-0.122046
-0.168519
-0.226534
-0.316199
-0.44916
-0.655287
-0.965346
-1.28939
-1.01304
-0.689255
-0.892961
-0.698549
59.2157
733.176
0.0383593
0.0115132
-0.0188385
-0.0525805
-0.0892748
-0.129463
-0.175592
-0.2275
-0.303279
-0.406307
-0.541396
-0.72726
-0.920692
-0.708523
-0.196104
-0.482303
9.40221
8.63835
2.29263
0.0276433
0.00213444
-0.026576
-0.0585723
-0.0936143
-0.132024
-0.175651
-0.226834
-0.289708
-0.365533
-0.447725
-0.534003
-0.596543
-0.431062
-0.230241
-0.0325797
29.7961
9.05174
2.75583
0.0190921
-0.00485735
-0.0316438
-0.0614609
-0.094246
-0.130741
-0.17275
-0.219359
-0.27385
-0.331683
-0.379201
-0.394913
-0.368497
0.109856
-0.154564
3.39621
31.1771
13.9708
182.52
0.0125423
-0.00965884
-0.0343051
-0.0616277
-0.0915612
-0.125238
-0.163981
-0.206847
-0.252836
-0.298559
-0.326158
-0.309511
-0.0287713
0.283952
0.055446
27.2355
32.4198
11.088
999.874
0.00778747
-0.0125175
-0.0348971
-0.059663
-0.0865141
-0.116546
-0.151337
-0.188331
-0.224901
-0.260434
-0.284847
-0.267117
0.0660535
-0.0696498
0.199907
33.9557
30.6146
10.6993
1232.82
0.00458667
-0.0137046
-0.0337281
-0.0559239
-0.0798042
-0.105611
-0.135996
-0.165821
-0.19438
-0.222703
-0.244433
-0.251865
-0.113608
-0.263272
5.6801
35.1492
11.3681
10.8524
509.429
0.00266482
-0.0135018
-0.0310571
-0.050361
-0.0713912
-0.0919221
-0.115003
-0.138698
-0.15948
-0.180812
-0.203746
-0.187365
-0.156244
-0.342799
22.2767
36.1438
12.0466
11.5083
234.398
0.00172888
-0.0122221
-0.0272606
-0.043388
-0.0615531
-0.0770675
-0.0902821
-0.104712
-0.118524
-0.133486
-0.152637
-0.138398
-0.190162
-0.329379
11.5036
37.1112
13.2136
12.2818
400.335
0.00147794
-0.0102218
-0.0226759
-0.0358067
-0.0501354
-0.0629865
-0.0699181
-0.0737598
-0.0771295
-0.0863186
-0.105897
-0.139781
-0.197723
-0.252533
-0.315621
13.4448
35.7576
12.3199
879.907
0.00164395
-0.00788417
-0.0177885
-0.0278512
-0.0380279
-0.0474955
-0.0534554
-0.0529225
-0.0475791
-0.0478183
-0.0629109
-0.090402
-0.115581
-0.135847
-0.183177
-0.233656
36.617
11.0361
1486.21
0.00198599
-0.00553617
-0.0130738
-0.0203246
-0.0269163
-0.0325705
-0.0358358
-0.0353586
-0.0297899
-0.024756
-0.0262702
-0.0301045
-0.0306011
-0.0257992
-0.0521394
-0.155225
36.769
91.1469
2373.75
0.00229279
-0.0034538
-0.00895167
-0.0139215
-0.0178416
-0.020465
-0.0208753
-0.0184227
-0.0131589
-0.00759342
-0.00112289
0.0093578
0.0259081
0.0499897
0.0759063
0.0402689
27.8169
241.332
1006.51
0.00242443
-0.00183367
-0.00567666
-0.00894234
-0.010977
-0.011628
-0.0103843
-0.00585454
-0.000306591
0.00482722
0.0142172
0.0318525
0.0557363
0.0834088
0.130654
1.28746
28.7471
11.7338
6.16738
0.00224018
-0.000770826
-0.00330793
-0.00533615
-0.00608482
-0.00558565
-0.00382133
0.00184083
0.00693497
0.0120223
0.0246495
0.0476846
0.0659962
0.0825069
0.0871545
0.0564191
14.2341
11.5609
192.698
0.00177924
-0.000217167
-0.00174811
-0.00289733
-0.0029174
-0.00191915
-0.000135256
0.00531278
0.00944369
0.0136212
0.0260777
0.0484714
0.0586495
0.076515
0.0481459
-0.0085207
4.08503
0.18861
445.022
0.00112885
9.06621e-06
-0.000779321
-0.00132441
-0.0010746
-0.00023191
0.00120401
0.00446562
0.00707613
0.00907494
0.0171966
0.0321894
0.034112
0.0551676
0.0314733
0.117808
0.373166
0.318132
110.375
0.000400758
5.02416e-05
-0.000174204
-0.000304429
-0.000140285
0.000170467
0.00070904
0.00171243
0.00195667
0.00166586
0.00304002
0.00410308
-0.00777687
-0.0152147
-0.0584293
-0.0277996
0.145623
-0.118778
0.423317
)
;

boundaryField
{
    leftWall
    {
        type            fixedFluxPressure;
        gradient        uniform 0;
        value           nonuniform List<scalar> 
50
(
603.193
603.119
602.524
602.129
602.635
604.385
607.679
612.288
607.598
199.605
0.641977
0.645494
0.628268
0.575264
0.548866
0.517954
0.4917
0.467923
0.446415
0.426604
0.407967
0.390191
0.373042
0.35634
0.339994
0.32395
0.308172
0.292638
0.277335
0.262256
0.247397
0.232758
0.21834
0.204147
0.190182
0.176455
0.162983
0.149781
0.136837
0.124119
0.11162
0.0993304
0.0872256
0.0752829
0.0634937
0.0518164
0.0401802
0.0285999
0.0171188
0.0056916
)
;
    }
    rightWall
    {
        type            fixedFluxPressure;
        gradient        uniform 0;
        value           nonuniform List<scalar> 
50
(
1388.99
1376.01
1311.18
1190.73
1129.07
994.264
809.203
674.946
628.365
781.181
945.092
1105.7
1278.04
1474.04
1740.23
1883.96
1952.85
1886.04
1824.53
1965.59
2239.39
2354.45
2449.64
1772.01
1669.5
2711.6
2000.86
292.321
2013.79
2094.82
1579.71
2452.28
733.176
2.29263
2.75583
182.52
999.874
1232.82
509.429
234.398
400.335
879.907
1486.21
2373.75
1006.51
6.16738
192.698
445.022
110.375
0.423317
)
;
    }
    lowerWall
    {
        type            fixedFluxPressure;
        gradient        uniform 0;
        value           nonuniform List<scalar> 
62
(
603.193
599.659
600.301
605.063
615.133
627.898
640.121
650.764
661.395
673.888
689.054
706.789
726.643
748.216
771.072
794.6
817.671
838.445
854.094
864.722
853.502
861.323
898.345
898.345
892.922
890.907
898.91
912.896
926.314
927.597
922.211
747.994
756.372
783.152
772.986
879.071
865.412
805.012
768.807
686.54
634.545
573.033
493.054
879.071
915.252
847.302
608.936
531.726
526.554
533.095
390.538
243.259
205.721
217.41
239.436
252.955
270.882
286.889
318.379
604.524
1263.91
1388.99
)
;
    }
    atmosphere
    {
        type            totalPressure;
        rho             rho;
        psi             none;
        gamma           1;
        p0              uniform 0;
        value           nonuniform List<scalar> 
46
(
0
0
0
0
0
0
0
0
0
0
0
0
0
0
0
0
0
0
0
0
0
0
0
0
0
0
0
0
0
0
0
0
0
0
-3.82854e-05
-0.00154408
-0.00343948
-0.00564498
-0.0146512
-0.0397551
-0.0649677
-0.148455
-0.0684765
-0.178777
-0.997904
0
)
;
    }
    defaultFaces
    {
        type            empty;
    }
}


// ************************************************************************* //
