/*--------------------------------*- C++ -*----------------------------------*\
| =========                 |                                                 |
| \\      /  F ield         | OpenFOAM: The Open Source CFD Toolbox           |
|  \\    /   O peration     | Version:  5.x                                   |
|   \\  /    A nd           | Web:      www.OpenFOAM.org                      |
|    \\/     M anipulation  |                                                 |
\*---------------------------------------------------------------------------*/
FoamFile
{
    version     2.0;
    format      ascii;
    class       surfaceScalarField;
    location    "0.55";
    object      phi;
}
// * * * * * * * * * * * * * * * * * * * * * * * * * * * * * * * * * * * * * //

dimensions      [0 3 -1 0 0 0 0];

internalField   nonuniform List<scalar> 
4432
(
-3.44223e-06
3.44223e-06
-5.52922e-06
2.08699e-06
-4.83539e-06
-6.93833e-07
-2.27246e-06
-2.56292e-06
1.76205e-06
-4.03451e-06
6.61263e-06
-4.85057e-06
1.12847e-05
-4.67206e-06
1.49774e-05
-3.69274e-06
1.74099e-05
-2.4325e-06
1.86967e-05
-1.28682e-06
1.90599e-05
-3.6316e-07
1.86567e-05
4.03191e-07
1.75705e-05
1.08617e-06
1.58508e-05
1.71973e-06
1.33703e-05
2.48054e-06
9.80113e-06
3.56915e-06
4.86471e-06
4.93642e-06
-1.14907e-06
6.01378e-06
-4.92233e-06
3.77326e-06
-9.19281e-06
4.27047e-06
-1.76361e-05
8.44331e-06
-1.53879e-05
-2.24824e-06
-1.53879e-05
-3.84173e-06
7.28396e-06
-5.20544e-06
3.4507e-06
-4.22788e-06
-1.6714e-06
-1.75522e-06
-5.03558e-06
2.09169e-06
-7.88142e-06
6.86356e-06
-9.62244e-06
1.15107e-05
-9.31919e-06
1.51619e-05
-7.34398e-06
1.75368e-05
-4.80741e-06
1.87967e-05
-2.54672e-06
1.92565e-05
-8.22953e-07
1.92151e-05
4.44629e-07
1.88978e-05
1.40343e-06
1.8388e-05
2.22958e-06
1.77073e-05
3.16118e-06
1.66574e-05
4.61906e-06
1.46214e-05
6.97249e-06
1.04801e-05
1.01551e-05
3.51718e-06
1.07361e-05
-5.32497e-06
1.31126e-05
-1.19087e-05
1.50271e-05
-9.62985e-06
-4.52714e-06
-2.50177e-05
-3.02944e-06
1.03134e-05
-3.94961e-06
4.37087e-06
-3.12029e-06
-2.50071e-06
-1.10553e-06
-7.05034e-06
2.2663e-06
-1.12532e-05
6.83625e-06
-1.41924e-05
1.14353e-05
-1.39183e-05
1.50155e-05
-1.09241e-05
1.72626e-05
-7.05459e-06
1.8397e-05
-3.68104e-06
1.87534e-05
-1.17941e-06
1.85958e-05
6.02274e-07
1.8097e-05
1.90222e-06
1.74166e-05
2.90999e-06
1.67211e-05
3.8567e-06
1.62448e-05
5.09533e-06
1.61556e-05
7.06167e-06
1.56362e-05
1.06745e-05
1.2084e-05
1.42884e-05
5.50824e-06
1.96883e-05
-1.43382e-06
2.19691e-05
-1.8587e-06
-4.10226e-06
-2.68764e-05
-1.84032e-06
1.21537e-05
-2.13991e-06
4.67047e-06
-1.46329e-06
-3.17734e-06
5.10261e-08
-8.56465e-06
2.88196e-06
-1.40842e-05
7.05419e-06
-1.83646e-05
1.1365e-05
-1.8229e-05
1.47019e-05
-1.42611e-05
1.6754e-05
-9.10664e-06
1.77631e-05
-4.69022e-06
1.80786e-05
-1.49489e-06
1.79491e-05
7.31834e-07
1.75343e-05
2.31693e-06
1.69438e-05
3.50052e-06
1.6278e-05
4.52247e-06
1.56909e-05
5.6825e-06
1.55357e-05
7.21681e-06
1.62239e-05
9.98632e-06
1.65217e-05
1.39906e-05
1.53338e-05
2.08762e-05
1.315e-05
2.4153e-05
7.3629e-06
1.68481e-06
-1.95135e-05
-2.70866e-07
1.24246e-05
5.38017e-07
3.86159e-06
1.47681e-06
-4.11613e-06
2.98985e-06
-1.00777e-05
5.61097e-06
-1.67053e-05
8.9726e-06
-2.17263e-05
1.22369e-05
-2.14933e-05
1.46736e-05
-1.66978e-05
1.61581e-05
-1.05911e-05
1.6931e-05
-5.46317e-06
1.72333e-05
-1.7972e-06
1.7198e-05
7.67183e-07
1.69387e-05
2.57619e-06
1.65497e-05
3.88953e-06
1.61147e-05
4.95741e-06
1.57142e-05
6.08306e-06
1.55043e-05
7.42671e-06
1.60178e-05
9.47279e-06
1.75713e-05
1.24371e-05
2.00747e-05
1.83728e-05
2.08628e-05
2.33648e-05
1.37308e-05
8.81689e-06
-5.78275e-06
1.97663e-06
1.0448e-05
4.50121e-06
1.33701e-06
6.72957e-06
-6.34449e-06
9.22182e-06
-1.25699e-05
1.17731e-05
-1.92566e-05
1.36568e-05
-2.36099e-05
1.48841e-05
-2.27207e-05
1.55967e-05
-1.74104e-05
1.59492e-05
-1.09435e-05
1.61575e-05
-5.67148e-06
1.6331e-05
-1.97074e-06
1.6403e-05
6.95232e-07
1.6339e-05
2.64019e-06
1.61759e-05
4.05264e-06
1.59843e-05
5.14897e-06
1.58288e-05
6.23856e-06
1.58545e-05
7.401e-06
1.631e-05
9.01725e-06
1.75845e-05
1.11627e-05
2.07461e-05
1.52112e-05
2.3178e-05
2.09329e-05
1.67255e-05
1.52693e-05
1.09428e-05
4.47745e-06
5.97051e-06
9.66066e-06
-3.84621e-06
1.45336e-05
-1.12175e-05
1.85575e-05
-1.65938e-05
2.04977e-05
-2.11968e-05
2.00717e-05
-2.31839e-05
1.87267e-05
-2.13757e-05
1.75117e-05
-1.61954e-05
1.66135e-05
-1.00453e-05
1.6057e-05
-5.11497e-06
1.57688e-05
-1.68254e-06
1.57783e-05
6.85785e-07
1.58043e-05
2.61415e-06
1.58431e-05
4.01388e-06
1.59002e-05
5.09189e-06
1.59671e-05
6.17163e-06
1.62311e-05
7.137e-06
1.68843e-05
8.36401e-06
1.78855e-05
1.01615e-05
2.0299e-05
1.27977e-05
2.29953e-05
1.82367e-05
1.91489e-05
1.91157e-05
3.00917e-05
6.88381e-06
-9.13302e-07
1.57604e-05
-1.27228e-05
2.37207e-05
-1.91778e-05
2.80016e-05
-2.08747e-05
2.77241e-05
-2.09193e-05
2.45769e-05
-2.00367e-05
2.13356e-05
-1.81344e-05
1.91324e-05
-1.39923e-05
1.77825e-05
-8.69544e-06
1.69738e-05
-4.30625e-06
1.65075e-05
-1.21625e-06
1.60464e-05
1.14689e-06
1.57518e-05
2.90874e-06
1.56454e-05
4.12031e-06
1.57431e-05
4.99418e-06
1.59443e-05
5.97042e-06
1.64672e-05
6.61406e-06
1.7442e-05
7.38921e-06
1.86393e-05
8.96427e-06
2.04758e-05
1.09611e-05
2.26811e-05
1.60315e-05
1.99089e-05
2.18878e-05
5.00006e-05
3.03203e-05
-3.03203e-05
8.39646e-05
-5.36443e-05
0.000149929
-6.59647e-05
0.000175187
-2.52579e-05
0.000164564
1.0623e-05
1.44006e-06
0.000163124
-0.000140701
0.000142141
-0.000214536
7.38343e-05
-0.00023102
1.64847e-05
-0.000217467
-1.35531e-05
-0.000202421
-1.50461e-05
-0.000189601
-1.28197e-05
-0.00017625
-1.3351e-05
-0.000162481
-1.37694e-05
-0.000145686
-1.6795e-05
-0.000126719
-1.89666e-05
-0.000101865
-2.48542e-05
-3.83613e-05
-6.35038e-05
-3.83613e-05
-7.25916e-09
-3.0313e-05
2.8041e-05
-8.16925e-05
0.000109716
-0.000147639
0.000153544
-6.90867e-05
0.000107899
5.62684e-05
-7.25327e-05
0.000343556
-0.000274911
0.000344519
-0.000348141
0.000147065
-0.000347067
1.54108e-05
-0.000335383
-2.52379e-05
-0.000321052
-2.93768e-05
-0.000294688
-3.91838e-05
-0.000271332
-3.67067e-05
-0.000247311
-3.77906e-05
-0.000215201
-4.89049e-05
-0.000174185
-5.99826e-05
-0.000129259
-6.97806e-05
-4.60345e-05
-0.000146728
-8.43958e-05
-1.65347e-05
-1.37783e-05
-2.49096e-06
-9.57363e-05
2.531e-05
-0.00017544
6.46583e-05
-0.000108435
4.28026e-05
7.8124e-05
-0.00011284
0.000499199
-0.000247976
0.000479655
-0.000266085
0.000165174
-0.000279892
2.92175e-05
-0.000321015
1.58859e-05
-0.000350253
-1.38968e-07
-0.000364804
-2.46332e-05
-0.000359809
-4.17011e-05
-0.000338318
-5.9282e-05
-0.000301483
-8.57393e-05
-0.000249562
-0.000111904
-0.000180074
-0.000139268
-5.76316e-05
-0.000269171
-0.000142027
-9.54377e-06
-4.23453e-06
3.64913e-06
-0.000108929
7.72799e-06
-0.000179519
3.96484e-05
-0.000140355
2.98099e-05
8.79625e-05
-0.000130014
0.000659023
-0.000178304
0.000527945
-0.000202486
0.000189355
-0.000233077
5.98082e-05
-0.000262476
4.5285e-05
-0.000272027
9.41232e-06
-0.000272469
-2.4191e-05
-0.000263447
-5.07232e-05
-0.000245162
-7.75663e-05
-0.000226374
-0.000104528
-0.000221131
-0.000117147
-0.00017921
-0.000181189
-5.92819e-05
-0.000389099
-0.000201309
1.73775e-06
-5.97229e-06
1.46812e-05
-0.000121873
1.01541e-05
-0.000174992
4.37164e-05
-0.000173918
5.42687e-05
7.74102e-05
-7.21248e-05
0.000785417
-0.000100869
0.00055669
-0.000172037
0.000260523
-0.000233675
0.000121446
-0.000256584
6.81939e-05
-0.000254521
7.34945e-06
-0.000230471
-4.82415e-05
-0.00018282
-9.83738e-05
-0.00012558
-0.000134806
-9.4679e-05
-0.000135429
-0.000111585
-0.00010024
-0.000104252
-0.000188522
-4.3209e-05
-0.000450142
-0.000244518
1.3453e-05
-1.94253e-05
2.55652e-05
-0.000133985
2.25357e-05
-0.000171963
3.32201e-05
-0.000184602
3.22819e-05
7.83484e-05
-5.07052e-05
0.000868404
-9.12164e-05
0.000597201
-0.00016131
0.000330616
-0.000231306
0.000191442
-0.000265596
0.000102483
-0.000276024
1.77779e-05
-0.000257744
-6.65218e-05
-0.000204216
-0.000151902
-0.000118154
-0.000220868
-3.4141e-05
-0.000219442
-2.04615e-05
-0.00011392
-5.717e-05
-0.000151814
-3.32135e-05
-0.000474099
-0.000277732
2.77963e-05
-4.72216e-05
3.63232e-05
-0.000142512
3.17325e-05
-0.000167372
3.09592e-05
-0.000183829
4.85437e-05
6.07638e-05
-7.67043e-06
0.000924618
-6.97021e-05
0.000659232
-0.000151811
0.000412725
-0.000216656
0.000256288
-0.000257305
0.000143133
-0.000279528
4.00004e-05
-0.000272401
-7.36496e-05
-0.000227146
-0.000197157
-0.000144733
-0.000303281
-5.51546e-05
-0.00030902
9.27342e-06
-0.000178348
-1.3646e-05
-0.000128895
-2.71332e-05
-0.000460612
-0.000304865
4.31311e-05
-9.03526e-05
4.49282e-05
-0.000144309
3.59488e-05
-0.000158392
2.79125e-05
-0.000175793
7.03371e-05
1.83393e-05
3.19511e-05
0.000963004
-2.8107e-05
0.000719291
-0.000118062
0.000502681
-0.000187351
0.000325577
-0.000233763
0.000189544
-0.000264688
7.09262e-05
-0.000268451
-6.98869e-05
-0.000233476
-0.000232132
-0.000155796
-0.00038096
-6.03934e-05
-0.000404423
4.04288e-05
-0.00027917
4.34108e-05
-0.000131877
-1.81183e-05
-0.000399083
-0.000322983
2.19896e-05
-2.29029e-05
4.93754e-05
-4.01086e-05
6.36358e-05
-3.34381e-05
6.09176e-05
-1.81566e-05
5.14452e-05
-1.14469e-05
4.21224e-05
-1.07138e-05
3.56117e-05
-1.16238e-05
3.28415e-05
-1.12221e-05
3.31749e-05
-9.02877e-06
3.4762e-05
-5.89341e-06
3.62695e-05
-2.72376e-06
3.73992e-05
1.7251e-08
3.74492e-05
2.85871e-06
3.69473e-05
4.62219e-06
3.6265e-05
5.67647e-06
3.54005e-05
6.83498e-06
3.57822e-05
6.23233e-06
3.78881e-05
5.28331e-06
4.12748e-05
5.5776e-06
4.65446e-05
5.69132e-06
5.638e-05
6.19607e-06
7.24913e-05
5.77645e-06
1.44139e-05
0.000108078
3.01643e-05
-5.30673e-05
4.73636e-05
-5.73078e-05
2.22357e-05
-8.31027e-06
-4.77596e-06
8.8551e-06
-9.67878e-06
-6.54409e-06
-1.06792e-05
-9.71344e-06
-1.35602e-05
-8.74282e-06
-1.2664e-05
-1.21183e-05
-5.64716e-06
-1.60456e-05
3.59756e-06
-1.51381e-05
1.46799e-05
-1.38061e-05
2.76386e-05
-1.29415e-05
3.6558e-05
-6.06062e-06
4.01294e-05
1.05072e-06
4.02361e-05
5.56983e-06
3.79553e-05
9.11572e-06
3.78337e-05
6.35396e-06
3.98298e-05
3.28719e-06
4.25821e-05
2.82533e-06
4.72569e-05
1.01652e-06
5.52988e-05
-1.84579e-06
6.53239e-05
-4.24864e-06
-6.22934e-06
8.59671e-05
1.0617e-06
-5.4129e-05
-2.68583e-05
-2.93878e-05
-5.58003e-05
2.06317e-05
-6.92347e-05
2.22895e-05
-7.90783e-05
3.29945e-06
-0.000101539
1.27469e-05
-0.00012656
1.62782e-05
-0.000145732
7.05356e-06
-0.000157147
-4.62983e-06
-0.000154208
-1.8077e-05
-0.000128123
-3.9892e-05
-7.95297e-05
-6.15343e-05
-2.65736e-05
-5.90167e-05
-2.87225e-07
-2.52357e-05
1.2702e-05
-7.41937e-06
2.45319e-05
-2.71421e-06
3.75609e-05
-6.67501e-06
4.46633e-05
-3.81524e-06
4.64127e-05
1.07594e-06
4.89925e-05
-1.5633e-06
5.46171e-05
-7.47032e-06
6.21512e-05
-1.17828e-05
-1.71455e-05
7.30674e-05
-2.66301e-05
-2.7499e-05
-4.53949e-05
-1.06232e-05
-4.36924e-05
1.89291e-05
-3.09433e-05
9.54029e-06
-3.13287e-05
3.68481e-06
-3.68596e-05
1.82778e-05
-4.16213e-05
2.10398e-05
-4.83475e-05
1.37797e-05
-6.07826e-05
7.8053e-06
-8.01597e-05
1.30005e-06
-0.000108479
-1.15722e-05
-0.000135037
-3.4977e-05
-0.000149919
-4.41341e-05
-0.000141232
-3.39229e-05
-0.000119622
-2.9029e-05
-7.8887e-05
-4.34495e-05
-3.96597e-05
-4.59023e-05
-4.28041e-06
-3.91946e-05
1.47959e-05
-1.80004e-05
3.23754e-05
-1.91428e-05
4.87035e-05
-2.37985e-05
5.85988e-05
-2.1678e-05
-2.42193e-05
6.56726e-05
-2.19098e-05
-5.5892e-06
-2.03953e-05
-1.21378e-05
-8.76981e-06
7.3035e-06
-4.51858e-06
5.289e-06
-6.27735e-06
5.44354e-06
-2.59268e-06
1.45931e-05
3.58439e-06
1.48627e-05
8.174e-06
9.19006e-06
1.1129e-05
4.85034e-06
9.45486e-06
2.97417e-06
-6.39371e-06
4.27643e-06
-3.67782e-05
-4.59244e-06
-6.13472e-05
-1.95651e-05
-6.22146e-05
-3.30554e-05
-5.53425e-05
-3.5901e-05
-6.26279e-05
-3.61642e-05
-7.50551e-05
-3.34751e-05
-8.23811e-05
-3.18685e-05
-7.37151e-05
-2.66665e-05
-5.71982e-05
-3.56597e-05
-1.76899e-05
-6.33067e-05
5.11979e-06
-4.44877e-05
-3.64226e-05
1.73231e-05
-8.36127e-06
2.77202e-06
-1.03855e-05
-1.01136e-05
-7.22723e-06
4.14518e-06
-7.09967e-06
5.16139e-06
-8.20629e-06
6.55012e-06
-4.83086e-06
1.12176e-05
-2.42856e-06
1.24604e-05
-2.51384e-06
9.27532e-06
-4.41805e-07
2.7783e-06
6.12592e-06
-3.59354e-06
1.60538e-05
-5.65139e-06
1.53916e-05
-3.93019e-06
1.16022e-07
-4.28953e-06
-8.57743e-06
-2.4362e-05
-5.67335e-06
-3.88051e-05
-5.84232e-06
-3.59952e-05
-9.08123e-06
-3.02362e-05
-1.01535e-05
-3.07962e-05
-3.48392e-06
-3.3336e-05
1.42002e-06
-4.05636e-05
-1.00839e-05
-5.18028e-05
-2.48324e-05
-2.97392e-05
1.60282e-06
-6.28579e-05
-5.96078e-06
8.73275e-06
-7.44452e-06
-8.62997e-06
-5.32895e-06
2.02956e-06
-4.8285e-06
4.6609e-06
-4.69308e-06
6.41468e-06
-2.26322e-06
8.78773e-06
6.04229e-07
9.59295e-06
2.00739e-06
7.87214e-06
1.08919e-06
3.6965e-06
-8.82669e-07
-1.62167e-06
-2.27302e-07
-6.30673e-06
3.67017e-06
-7.82762e-06
7.17593e-06
-7.79527e-06
3.19108e-06
-2.03771e-05
-2.76849e-06
-3.28456e-05
-3.95752e-06
-3.48062e-05
-5.68548e-07
-3.36251e-05
4.6481e-06
-3.60129e-05
1.51734e-05
-4.38613e-05
3.3409e-05
-5.87993e-05
4.59956e-05
-6.43893e-05
6.6898e-05
-5.06417e-05
-3.5189e-06
7.20195e-05
-4.30092e-06
1.30336e-05
-5.09281e-06
-7.83814e-06
-4.31223e-06
1.24895e-06
-3.75197e-06
4.10061e-06
-2.73014e-06
5.39283e-06
-7.6809e-07
6.82567e-06
1.10051e-06
7.72433e-06
2.09854e-06
6.87409e-06
2.22935e-06
3.56568e-06
2.00655e-06
-1.39886e-06
1.68857e-06
-5.98872e-06
3.68406e-06
-9.82309e-06
8.19684e-06
-1.2308e-05
8.85757e-06
-2.10378e-05
5.60258e-06
-2.95906e-05
3.19538e-06
-3.23989e-05
3.95862e-06
-3.43884e-05
8.24807e-06
-4.03023e-05
1.51366e-05
-5.07498e-05
2.21182e-05
-6.57809e-05
3.2032e-05
-7.43031e-05
4.96627e-05
-6.82724e-05
-3.99822e-05
8.6126e-05
-3.22674e-06
1.62603e-05
-3.77954e-06
-7.28537e-06
-2.88458e-06
3.53981e-07
-2.32638e-06
3.5424e-06
-1.38777e-06
4.45421e-06
3.16677e-07
5.12123e-06
2.44397e-06
5.59703e-06
4.21557e-06
5.10248e-06
4.65851e-06
3.12274e-06
3.90597e-06
-6.46304e-07
3.37614e-06
-5.45885e-06
3.79729e-06
-1.02442e-05
6.5518e-06
-1.50625e-05
7.15193e-06
-2.16379e-05
5.21751e-06
-2.76561e-05
4.10192e-06
-3.12833e-05
4.58719e-06
-3.48736e-05
6.42015e-06
-4.21353e-05
9.46988e-06
-5.37996e-05
1.05355e-05
-6.68465e-05
1.25804e-05
-7.6348e-05
2.09834e-05
-7.66753e-05
-6.23278e-05
4.3329e-05
-2.10909e-06
1.83694e-05
-2.54643e-06
-6.84803e-06
-2.1453e-06
-4.71449e-08
-1.65653e-06
3.05364e-06
-8.51644e-07
3.64935e-06
4.58705e-07
3.81089e-06
2.23546e-06
3.82029e-06
4.05997e-06
3.27798e-06
5.59367e-06
1.58905e-06
6.3113e-06
-1.3639e-06
6.28866e-06
-5.43616e-06
6.05967e-06
-1.00152e-05
5.86561e-06
-1.48684e-05
4.39941e-06
-2.01717e-05
1.90187e-06
-2.51586e-05
-3.61969e-07
-2.90195e-05
-1.79415e-06
-3.34414e-05
-2.74869e-06
-4.11807e-05
-4.09285e-06
-5.24554e-05
-7.01909e-06
-6.39203e-05
-1.14565e-05
-7.19106e-05
-1.2731e-05
-7.54009e-05
-6.93712e-05
-5.68755e-06
-1.2865e-06
1.96559e-05
-1.72942e-06
-6.40509e-06
-1.5577e-06
-2.18849e-07
-1.22663e-06
2.72261e-06
-6.44248e-07
3.06699e-06
2.65047e-07
2.90163e-06
1.55144e-06
2.53392e-06
3.05771e-06
1.77175e-06
4.36788e-06
2.78925e-07
5.18271e-06
-2.17866e-06
5.26119e-06
-5.5146e-06
4.64874e-06
-9.40267e-06
3.34696e-06
-1.35666e-05
1.10191e-06
-1.79266e-05
-1.88936e-06
-2.21673e-05
-4.85095e-06
-2.60579e-05
-7.64029e-06
-3.06521e-05
-1.10954e-05
-3.77256e-05
-1.60143e-05
-4.75365e-05
-2.25702e-05
-5.73643e-05
-2.99365e-05
-6.45443e-05
-3.66097e-05
-6.87277e-05
-6.60429e-05
-3.99379e-05
-7.2303e-07
2.03789e-05
-1.19342e-06
-5.93466e-06
-1.21939e-06
-1.92838e-07
-1.07677e-06
2.58003e-06
-7.45589e-07
2.73586e-06
-2.22581e-07
2.37867e-06
5.01083e-07
1.81031e-06
1.37361e-06
8.99275e-07
2.17586e-06
-5.2326e-07
2.57941e-06
-2.58214e-06
2.33125e-06
-5.26639e-06
1.34546e-06
-8.41684e-06
-3.74894e-07
-1.18462e-05
-2.90139e-06
-1.54001e-05
-5.95253e-06
-1.91161e-05
-9.13095e-06
-2.28795e-05
-1.26838e-05
-2.70992e-05
-1.76296e-05
-3.27799e-05
-2.48444e-05
-4.03218e-05
-3.3607e-05
-4.86017e-05
-4.21437e-05
-5.60077e-05
-4.9789e-05
-6.10825e-05
-6.02702e-05
-5.55617e-05
-3.79889e-07
2.07588e-05
-8.76973e-07
-5.43753e-06
-1.08325e-06
1.34854e-08
-1.11329e-06
2.61013e-06
-1.01657e-06
2.6392e-06
-8.20101e-07
2.18226e-06
-5.57628e-07
1.5479e-06
-2.75053e-07
6.16775e-07
-1.01028e-07
-6.97205e-07
-2.3828e-07
-2.44482e-06
-8.88704e-07
-4.61591e-06
-2.16057e-06
-7.14493e-06
-4.07336e-06
-9.93337e-06
-6.56098e-06
-1.29124e-05
-9.59026e-06
-1.60868e-05
-1.3047e-05
-1.94228e-05
-1.71142e-05
-2.30319e-05
-2.26846e-05
-2.72096e-05
-3.07381e-05
-3.22683e-05
-4.12092e-05
-3.81306e-05
-5.31458e-05
-4.4071e-05
-6.56248e-05
-4.86035e-05
-4.72788e-05
-7.86162e-05
-2.08612e-07
2.09675e-05
-7.28582e-07
-4.91751e-06
-1.07642e-06
3.61367e-07
-1.27404e-06
2.8078e-06
-1.3826e-06
2.74782e-06
-1.45724e-06
2.25696e-06
-1.53554e-06
1.62627e-06
-1.6822e-06
7.63522e-07
-1.98142e-06
-3.97911e-07
-2.55985e-06
-1.86634e-06
-3.53763e-06
-3.6381e-06
-5.0061e-06
-5.67642e-06
-7.00385e-06
-7.9356e-06
-9.553e-06
-1.03633e-05
-1.27163e-05
-1.29236e-05
-1.65304e-05
-1.56086e-05
-2.11133e-05
-1.84491e-05
-2.68621e-05
-2.14609e-05
-3.45578e-05
-2.45726e-05
-4.50935e-05
-2.75949e-05
-5.90022e-05
-3.01624e-05
-7.6384e-05
-3.12217e-05
-2.82256e-05
-9.54372e-05
-1.5523e-07
2.11227e-05
-7.04874e-07
-4.36785e-06
-1.16701e-06
8.23526e-07
-1.50698e-06
3.14781e-06
-1.7905e-06
3.03138e-06
-2.07905e-06
2.54557e-06
-2.41147e-06
1.95876e-06
-2.84552e-06
1.19764e-06
-3.45472e-06
2.11343e-07
-4.31631e-06
-1.00472e-06
-5.51554e-06
-2.43885e-06
-7.12394e-06
-4.06801e-06
-9.20552e-06
-5.854e-06
-1.18181e-05
-7.7507e-06
-1.50427e-05
-9.69891e-06
-1.89947e-05
-1.16566e-05
-2.38065e-05
-1.36373e-05
-2.96256e-05
-1.56418e-05
-3.67379e-05
-1.74603e-05
-4.57189e-05
-1.86139e-05
-5.73736e-05
-1.85077e-05
-7.21936e-05
-1.64018e-05
-1.13603e-05
-8.90589e-05
-1.72537e-07
2.12953e-05
-7.6437e-07
-3.77601e-06
-1.31334e-06
1.37251e-06
-1.76751e-06
3.60199e-06
-2.19647e-06
3.46037e-06
-2.65749e-06
3.00662e-06
-3.18125e-06
2.48256e-06
-3.81724e-06
1.83368e-06
-4.62684e-06
1.02098e-06
-5.67065e-06
3.90974e-08
-7.01479e-06
-1.09471e-06
-8.72335e-06
-2.35947e-06
-1.08564e-05
-3.72095e-06
-1.34719e-05
-5.13519e-06
-1.66295e-05
-6.54129e-06
-2.04101e-05
-7.87607e-06
-2.49479e-05
-9.09954e-06
-3.04274e-05
-1.01624e-05
-3.6993e-05
-1.08946e-05
-4.46858e-05
-1.09212e-05
-5.34984e-05
-9.69512e-06
-6.33792e-05
-6.52101e-06
-6.06802e-07
-7.41327e-05
-2.20108e-07
2.15154e-05
-8.59345e-07
-3.1368e-06
-1.48498e-06
1.99813e-06
-2.0323e-06
4.14931e-06
-2.57993e-06
4.008e-06
-3.169e-06
3.59571e-06
-3.84075e-06
3.15434e-06
-4.62722e-06
2.62017e-06
-5.57668e-06
1.97046e-06
-6.74327e-06
1.2057e-06
-8.18061e-06
3.42615e-07
-9.94268e-06
-5.97396e-07
-1.20849e-05
-1.57876e-06
-1.46599e-05
-2.56019e-06
-1.772e-05
-3.4812e-06
-2.1321e-05
-4.27512e-06
-2.55424e-05
-4.87817e-06
-3.04964e-05
-5.20839e-06
-3.62882e-05
-5.10279e-06
-4.29251e-05
-4.28439e-06
-5.02521e-05
-2.36809e-06
-5.78204e-05
1.04727e-06
6.67841e-06
-6.51057e-05
-2.77304e-07
2.17927e-05
-9.67094e-07
-2.44704e-06
-1.65942e-06
2.69043e-06
-2.27414e-06
4.76401e-06
-2.91285e-06
4.6467e-06
-3.60579e-06
4.28865e-06
-4.38339e-06
3.93195e-06
-5.27717e-06
3.51396e-06
-6.32359e-06
3.01685e-06
-7.56673e-06
2.4488e-06
-9.05044e-06
1.82628e-06
-1.0821e-05
1.17319e-06
-1.29211e-05
5.21299e-07
-1.53937e-05
-8.764e-08
-1.82807e-05
-5.94219e-07
-2.16231e-05
-9.327e-07
-2.54677e-05
-1.03359e-06
-2.98596e-05
-8.1657e-07
-3.48115e-05
-1.509e-07
-4.02545e-05
1.15866e-06
-4.60462e-05
3.4236e-06
-5.19487e-05
6.94973e-06
1.21209e-05
-5.73912e-05
-3.31954e-07
2.21246e-05
-1.07207e-06
-1.70696e-06
-1.81415e-06
3.43249e-06
-2.49053e-06
5.44038e-06
-3.18721e-06
5.34337e-06
-3.95248e-06
5.05391e-06
-4.80447e-06
4.78395e-06
-5.76733e-06
4.4768e-06
-6.87191e-06
4.1214e-06
-8.15283e-06
3.72969e-06
-9.64295e-06
3.31637e-06
-1.13801e-05
2.91033e-06
-1.33979e-05
2.53905e-06
-1.57277e-05
2.24213e-06
-1.83971e-05
2.07517e-06
-2.14307e-05
2.10088e-06
-2.48425e-05
2.37819e-06
-2.86584e-05
2.99926e-06
-3.2853e-05
4.04371e-06
-3.7385e-05
5.69063e-06
-4.20749e-05
8.11348e-06
-4.66618e-05
1.15365e-05
1.62027e-05
-5.07437e-05
-3.7604e-07
2.25006e-05
-1.16425e-06
-9.18784e-07
-1.94401e-06
4.21223e-06
-2.65862e-06
6.15498e-06
-3.40168e-06
6.08642e-06
-4.21326e-06
5.86549e-06
-5.1083e-06
5.67899e-06
-6.10804e-06
5.47653e-06
-7.23652e-06
5.24985e-06
-8.51869e-06
5.01181e-06
-9.98425e-06
4.78188e-06
-1.16579e-05
4.58401e-06
-1.3566e-05
4.44707e-06
-1.57308e-05
4.40691e-06
-1.81681e-05
4.51241e-06
-2.08846e-05
4.81744e-06
-2.38951e-05
5.38865e-06
-2.71776e-05
6.28174e-06
-3.07103e-05
7.57643e-06
-3.4417e-05
9.3973e-06
-3.81627e-05
1.18592e-05
-4.17303e-05
1.51041e-05
1.93037e-05
-4.48313e-05
-4.05708e-07
2.29063e-05
-1.23651e-06
-8.8004e-08
-2.04211e-06
5.01783e-06
-2.78163e-06
6.89449e-06
-3.55192e-06
6.8567e-06
-4.38967e-06
6.70322e-06
-5.30476e-06
6.59404e-06
-6.31472e-06
6.48647e-06
-7.43913e-06
6.37421e-06
-8.69777e-06
6.27042e-06
-1.01131e-05
6.19717e-06
-1.17026e-05
6.17355e-06
-1.34824e-05
6.22687e-06
-1.54688e-05
6.39335e-06
-1.76674e-05
6.71103e-06
-2.0081e-05
7.231e-06
-2.26994e-05
8.00713e-06
-2.55032e-05
9.08558e-06
-2.8451e-05
1.05242e-05
-3.14664e-05
1.24127e-05
-3.44374e-05
1.48302e-05
-3.71966e-05
1.78633e-05
2.16353e-05
-3.95282e-05
-4.20108e-07
2.33264e-05
-1.28512e-06
7.77003e-07
-2.10509e-06
5.83779e-06
-2.85704e-06
7.64643e-06
-3.6406e-06
7.64025e-06
-4.48495e-06
7.54755e-06
-5.40172e-06
7.51079e-06
-6.40264e-06
7.48735e-06
-7.50266e-06
7.47419e-06
-8.7186e-06
7.48633e-06
-1.00639e-05
7.54252e-06
-1.15514e-05
7.66105e-06
-1.31946e-05
7.87006e-06
-1.49991e-05
8.1979e-06
-1.69662e-05
8.67816e-06
-1.90883e-05
9.35322e-06
-2.13488e-05
1.02676e-05
-2.37242e-05
1.14611e-05
-2.61691e-05
1.29691e-05
-2.86111e-05
1.48547e-05
-3.09571e-05
1.71763e-05
-3.30758e-05
1.9982e-05
2.33646e-05
-3.48051e-05
-4.20903e-07
2.37473e-05
-1.30701e-06
1.6631e-06
-2.13024e-06
6.66101e-06
-2.88343e-06
8.39961e-06
-3.66689e-06
8.42369e-06
-4.50678e-06
8.38741e-06
-5.41007e-06
8.41406e-06
-6.38621e-06
8.46345e-06
-7.44689e-06
8.53483e-06
-8.60358e-06
8.64298e-06
-9.86597e-06
8.80491e-06
-1.12448e-05
9.03988e-06
-1.27462e-05
9.37158e-06
-1.4372e-05
9.82373e-06
-1.6118e-05
1.04242e-05
-1.79719e-05
1.12073e-05
-1.99131e-05
1.22088e-05
-2.19126e-05
1.34606e-05
-2.39296e-05
1.49862e-05
-2.58987e-05
1.68239e-05
-2.77388e-05
1.90165e-05
-2.93537e-05
2.15969e-05
2.46304e-05
-3.06194e-05
-4.09135e-07
2.41564e-05
-1.30054e-06
2.55449e-06
-2.11382e-06
7.47429e-06
-2.85941e-06
9.14517e-06
-3.63194e-06
9.1962e-06
-4.45475e-06
9.21019e-06
-5.33209e-06
9.29138e-06
-6.27142e-06
9.40276e-06
-7.28195e-06
9.54532e-06
-8.37179e-06
9.73278e-06
-9.54787e-06
9.981e-06
-1.0816e-05
1.0308e-05
-1.21771e-05
1.07328e-05
-1.36287e-05
1.12754e-05
-1.51663e-05
1.19619e-05
-1.67748e-05
1.28158e-05
-1.84329e-05
1.3867e-05
-2.01125e-05
1.51403e-05
-2.17718e-05
1.66456e-05
-2.33533e-05
1.84054e-05
-2.47902e-05
2.04535e-05
-2.60068e-05
2.28136e-05
2.55442e-05
-2.69206e-05
-3.86182e-07
2.45426e-05
-1.26427e-06
3.43257e-06
-2.05593e-06
8.26596e-06
-2.78524e-06
9.87448e-06
-3.53824e-06
9.94919e-06
-4.3346e-06
1.00065e-05
-5.17763e-06
1.01344e-05
-6.07249e-06
1.02976e-05
-7.02624e-06
1.04991e-05
-8.04412e-06
1.07506e-05
-9.13021e-06
1.10671e-05
-1.02864e-05
1.14642e-05
-1.15111e-05
1.19576e-05
-1.28008e-05
1.25651e-05
-1.41495e-05
1.33106e-05
-1.55408e-05
1.42072e-05
-1.69533e-05
1.52796e-05
-1.83555e-05
1.65426e-05
-1.97169e-05
1.8007e-05
-2.09846e-05
1.96732e-05
-2.21012e-05
2.15701e-05
-2.30133e-05
2.37257e-05
2.61923e-05
-2.36614e-05
-3.50792e-07
2.48934e-05
-1.19834e-06
4.28014e-06
-1.95792e-06
9.02555e-06
-2.66287e-06
1.05794e-05
-3.38735e-06
1.06737e-05
-4.14961e-06
1.07688e-05
-4.95027e-06
1.09351e-05
-5.79507e-06
1.11425e-05
-6.68742e-06
1.13914e-05
-7.63118e-06
1.16944e-05
-8.628e-06
1.2064e-05
-9.67599e-06
1.25122e-05
-1.07739e-05
1.30555e-05
-1.1918e-05
1.37092e-05
-1.30957e-05
1.44884e-05
-1.42936e-05
1.54051e-05
-1.54913e-05
1.64774e-05
-1.66665e-05
1.77179e-05
-1.7783e-05
1.91235e-05
-1.88027e-05
2.0693e-05
-1.96686e-05
2.24361e-05
-2.03437e-05
2.44009e-05
2.66419e-05
-2.07933e-05
-2.98708e-07
2.51921e-05
-1.10583e-06
5.0873e-06
-1.82598e-06
9.74571e-06
-2.49835e-06
1.12518e-05
-3.18577e-06
1.13611e-05
-3.90575e-06
1.14888e-05
-4.65632e-06
1.16857e-05
-5.44491e-06
1.19311e-05
-6.2721e-06
1.22186e-05
-7.14037e-06
1.25627e-05
-8.0483e-06
1.29719e-05
-8.99512e-06
1.3459e-05
-9.97662e-06
1.40371e-05
-1.09848e-05
1.47175e-05
-1.20113e-05
1.5515e-05
-1.3043e-05
1.64369e-05
-1.40605e-05
1.7495e-05
-1.50418e-05
1.86992e-05
-1.59607e-05
2.00425e-05
-1.67866e-05
2.1519e-05
-1.74698e-05
2.31194e-05
-1.79724e-05
2.49035e-05
2.6949e-05
-1.82794e-05
-2.26115e-07
2.54183e-05
-9.93972e-07
5.85517e-06
-1.66876e-06
1.04205e-05
-2.30083e-06
1.18839e-05
-2.94214e-06
1.20024e-05
-3.61062e-06
1.21572e-05
-4.30841e-06
1.23835e-05
-5.03243e-06
1.26551e-05
-5.78949e-06
1.29757e-05
-6.57654e-06
1.33497e-05
-7.39476e-06
1.37901e-05
-8.24375e-06
1.4308e-05
-9.1119e-06
1.49052e-05
-9.9987e-06
1.56043e-05
-1.08905e-05
1.64068e-05
-1.17761e-05
1.73226e-05
-1.26388e-05
1.83579e-05
-1.3461e-05
1.95215e-05
-1.42269e-05
2.08084e-05
-1.49006e-05
2.21928e-05
-1.54562e-05
2.36751e-05
-1.58468e-05
2.52941e-05
2.71624e-05
-1.60602e-05
-1.21873e-07
2.55402e-05
-8.68409e-07
6.60168e-06
-1.49763e-06
1.10498e-05
-2.08318e-06
1.24694e-05
-2.67053e-06
1.25897e-05
-3.28251e-06
1.27692e-05
-3.91516e-06
1.30162e-05
-4.57133e-06
1.33113e-05
-5.24805e-06
1.36524e-05
-5.94993e-06
1.40516e-05
-6.67748e-06
1.45176e-05
-7.42141e-06
1.50519e-05
-8.18107e-06
1.56649e-05
-8.94748e-06
1.63708e-05
-9.71249e-06
1.71719e-05
-1.04633e-05
1.80734e-05
-1.11903e-05
1.9085e-05
-1.18765e-05
2.02077e-05
-1.25082e-05
2.14402e-05
-1.30702e-05
2.27549e-05
-1.3531e-05
2.41358e-05
-1.38515e-05
2.56147e-05
2.73268e-05
-1.40158e-05
2.19269e-08
2.55182e-05
-7.34937e-07
7.35849e-06
-1.32477e-06
1.16396e-05
-1.85766e-06
1.30023e-05
-2.38964e-06
1.31217e-05
-2.9398e-06
1.33194e-05
-3.50195e-06
1.35783e-05
-4.08298e-06
1.38923e-05
-4.68182e-06
1.42512e-05
-5.29396e-06
1.46637e-05
-5.91836e-06
1.5142e-05
-6.55616e-06
1.56897e-05
-7.2009e-06
1.63097e-05
-7.8442e-06
1.70141e-05
-8.47936e-06
1.78072e-05
-9.09909e-06
1.86932e-05
-9.69072e-06
1.96767e-05
-1.02432e-05
2.07602e-05
-1.0744e-05
2.19411e-05
-1.11894e-05
2.32004e-05
-1.15619e-05
2.45083e-05
-1.18262e-05
2.58792e-05
2.74486e-05
-1.1948e-05
1.94355e-07
2.53238e-05
-5.9773e-07
8.15053e-06
-1.15935e-06
1.22012e-05
-1.64109e-06
1.3484e-05
-2.11609e-06
1.35967e-05
-2.60633e-06
1.38096e-05
-3.10634e-06
1.40783e-05
-3.6117e-06
1.43976e-05
-4.12503e-06
1.47645e-05
-4.64721e-06
1.51858e-05
-5.17275e-06
1.56675e-05
-5.69917e-06
1.62161e-05
-6.22485e-06
1.68354e-05
-6.74207e-06
1.75314e-05
-7.24399e-06
1.83091e-05
-7.72421e-06
1.91735e-05
-8.17325e-06
2.01258e-05
-8.57739e-06
2.11643e-05
-8.93089e-06
2.22947e-05
-9.22983e-06
2.34994e-05
-9.46986e-06
2.47484e-05
-9.63133e-06
2.60407e-05
2.74812e-05
-9.6639e-06
3.6457e-07
2.49592e-05
-4.62612e-07
8.97768e-06
-1.01118e-06
1.27497e-05
-1.44879e-06
1.39216e-05
-1.87792e-06
1.40258e-05
-2.31723e-06
1.42489e-05
-2.75812e-06
1.45192e-05
-3.19958e-06
1.4839e-05
-3.64015e-06
1.5205e-05
-4.07788e-06
1.56235e-05
-4.51177e-06
1.61013e-05
-4.93786e-06
1.66422e-05
-5.35224e-06
1.72498e-05
-5.74517e-06
1.79244e-05
-6.11402e-06
1.8678e-05
-6.45192e-06
1.95114e-05
-6.74706e-06
2.04209e-05
-6.99254e-06
2.14099e-05
-7.17346e-06
2.24756e-05
-7.28706e-06
2.3613e-05
-7.33469e-06
2.47961e-05
-7.30447e-06
2.60105e-05
2.73391e-05
-7.16239e-06
5.36367e-07
2.44228e-05
-3.39613e-07
9.85362e-06
-8.89619e-07
1.32997e-05
-1.29303e-06
1.4325e-05
-1.69021e-06
1.44229e-05
-2.09663e-06
1.46553e-05
-2.48971e-06
1.49122e-05
-2.88269e-06
1.52319e-05
-3.26776e-06
1.559e-05
-3.64226e-06
1.59979e-05
-4.00185e-06
1.64609e-05
-4.34657e-06
1.69869e-05
-4.669e-06
1.75723e-05
-4.9669e-06
1.82223e-05
-5.22776e-06
1.89389e-05
-5.44076e-06
1.97244e-05
-5.59761e-06
2.05778e-05
-5.6854e-06
2.14977e-05
-5.69038e-06
2.24806e-05
-5.60179e-06
2.35245e-05
-5.41486e-06
2.46092e-05
-5.13177e-06
2.57274e-05
2.69268e-05
-4.7194e-06
6.97006e-07
2.37258e-05
-2.33583e-07
1.07842e-05
-7.93631e-07
1.38597e-05
-1.1756e-06
1.47069e-05
-1.55703e-06
1.48043e-05
-1.93828e-06
1.50365e-05
-2.3125e-06
1.52863e-05
-2.67359e-06
1.55929e-05
-3.02325e-06
1.59396e-05
-3.35487e-06
1.63295e-05
-3.67522e-06
1.67812e-05
-3.97161e-06
1.72833e-05
-4.2331e-06
1.78337e-05
-4.46474e-06
1.84539e-05
-4.65018e-06
1.91243e-05
-4.77742e-06
1.98516e-05
-4.83389e-06
2.06342e-05
-4.80462e-06
2.14684e-05
-4.66824e-06
2.23443e-05
-4.42009e-06
2.32763e-05
-4.04322e-06
2.42323e-05
-3.52266e-06
2.52069e-05
2.6228e-05
-2.82385e-06
8.35523e-07
2.28903e-05
-1.43073e-07
1.17627e-05
-7.12855e-07
1.44294e-05
-1.08509e-06
1.50791e-05
-1.46325e-06
1.51824e-05
-1.83341e-06
1.54066e-05
-2.19424e-06
1.56471e-05
-2.53949e-06
1.59381e-05
-2.87051e-06
1.62705e-05
-3.19023e-06
1.66491e-05
-3.48639e-06
1.70773e-05
-3.75792e-06
1.75548e-05
-4.00193e-06
1.80777e-05
-4.20167e-06
1.86536e-05
-4.35195e-06
1.92746e-05
-4.4385e-06
1.99382e-05
-4.44826e-06
2.0644e-05
-4.36141e-06
2.13816e-05
-4.16921e-06
2.2152e-05
-3.83792e-06
2.2945e-05
-3.35431e-06
2.37487e-05
-2.69521e-06
2.45477e-05
2.5369e-05
-1.83621e-06
9.31097e-07
2.19591e-05
-7.14643e-08
1.27652e-05
-6.36645e-07
1.49945e-05
-1.0024e-06
1.54448e-05
-1.38025e-06
1.55602e-05
-1.74223e-06
1.57685e-05
-2.09138e-06
1.59961e-05
-2.42908e-06
1.62756e-05
-2.75152e-06
1.65928e-05
-3.0622e-06
1.69596e-05
-3.3506e-06
1.73656e-05
-3.61779e-06
1.78219e-05
-3.85303e-06
1.83129e-05
-4.04958e-06
1.88502e-05
-4.19756e-06
1.94225e-05
-4.28079e-06
2.00214e-05
-4.29259e-06
2.06558e-05
-4.20555e-06
2.12945e-05
-4.01766e-06
2.19641e-05
-3.69438e-06
2.26217e-05
-3.21571e-06
2.327e-05
-2.55604e-06
2.3888e-05
2.45e-05
-1.68717e-06
9.80872e-07
2.09782e-05
-1.33875e-08
1.37594e-05
-5.59532e-07
1.55406e-05
-9.10476e-07
1.57956e-05
-1.28085e-06
1.59305e-05
-1.62873e-06
1.61163e-05
-1.96025e-06
1.63276e-05
-2.29019e-06
1.66055e-05
-2.59537e-06
1.68979e-05
-2.90126e-06
1.72655e-05
-3.17652e-06
1.76408e-05
-3.44438e-06
1.80897e-05
-3.67125e-06
1.85397e-05
-3.87114e-06
1.905e-05
-4.03045e-06
1.95818e-05
-4.12082e-06
2.01117e-05