/*--------------------------------*- C++ -*----------------------------------*\
| =========                 |                                                 |
| \\      /  F ield         | OpenFOAM: The Open Source CFD Toolbox           |
|  \\    /   O peration     | Version:  5.x                                   |
|   \\  /    A nd           | Web:      www.OpenFOAM.org                      |
|    \\/     M anipulation  |                                                 |
\*---------------------------------------------------------------------------*/
FoamFile
{
    version     2.0;
    format      ascii;
    class       volVectorField;
    location    "0.55";
    object      U;
}
// * * * * * * * * * * * * * * * * * * * * * * * * * * * * * * * * * * * * * //

dimensions      [0 1 -1 0 0 0 0];

internalField   nonuniform List<vector> 
2268
(
(-0.0256741 0.00934122 0)
(-0.0581482 0.00646434 0)
(-0.0661523 -0.00155463 0)
(-0.0443113 -0.00690898 0)
(-0.00533853 -0.0109914 0)
(0.0472841 -0.013138 0)
(0.102592 -0.0126075 0)
(0.151653 -0.00994167 0)
(0.187624 -0.00651494 0)
(0.208999 -0.00338816 0)
(0.218095 -0.000834236 0)
(0.217699 0.00155699 0)
(0.208796 0.00384034 0)
(0.192918 0.00613217 0)
(0.169882 0.00905458 0)
(0.137404 0.0132432 0)
(0.0895216 0.0182347 0)
(0.0261821 0.0202533 0)
(-0.0532158 0.00284083 0)
(-0.0488013 0.00622515 0)
(-0.18025 0.0247758 0)
(-0.236103 -0.0103001 0)
(-0.0846158 -0.051826 0)
(-0.0360507 0.0289089 0)
(-0.0574353 0.0152472 0)
(-0.0593539 -0.00653254 0)
(-0.0376273 -0.021242 0)
(-0.000683302 -0.0328884 0)
(0.0505812 -0.0394694 0)
(0.105504 -0.0380129 0)
(0.1542 -0.0300722 0)
(0.18946 -0.0198576 0)
(0.210199 -0.0106138 0)
(0.219308 -0.00333188 0)
(0.220772 0.00236359 0)
(0.218465 0.00704874 0)
(0.213615 0.0113088 0)
(0.206931 0.0163259 0)
(0.198671 0.0237747 0)
(0.183773 0.0346341 0)
(0.154718 0.0475849 0)
(0.0786329 0.0412632 0)
(0.0132654 0.044321 0)
(-0.148223 0.0601369 0)
(-0.145669 -0.0199344 0)
(-0.0455931 -0.124514 0)
(-0.0315756 0.0477141 0)
(-0.0429224 0.021048 0)
(-0.0454071 -0.0119187 0)
(-0.0273352 -0.0337671 0)
(0.00333756 -0.0524543 0)
(0.0510056 -0.0646669 0)
(0.104968 -0.0629118 0)
(0.153187 -0.049541 0)
(0.187207 -0.0323441 0)
(0.206267 -0.0171083 0)
(0.214087 -0.00553781 0)
(0.214615 0.00273221 0)
(0.210482 0.00873278 0)
(0.203455 0.0135361 0)
(0.195129 0.0184711 0)
(0.188043 0.0257613 0)
(0.18415 0.0380523 0)
(0.18794 0.0582291 0)
(0.166657 0.0716624 0)
(0.123802 0.0915209 0)
(-0.000525789 0.0986059 0)
(-0.0427019 -0.0348912 0)
(0.0145689 -0.154769 0)
(-0.0225093 0.0613856 0)
(-0.0238846 0.0249406 0)
(-0.023849 -0.0160634 0)
(-0.0113918 -0.043079 0)
(0.013178 -0.0694243 0)
(0.0558014 -0.0890087 0)
(0.105757 -0.0877491 0)
(0.150849 -0.0686835 0)
(0.182382 -0.0440666 0)
(0.199563 -0.022881 0)
(0.206372 -0.00739418 0)
(0.206871 0.00362705 0)
(0.20349 0.0115332 0)
(0.19761 0.017524 0)
(0.190264 0.0228445 0)
(0.182854 0.0292413 0)
(0.176805 0.0385228 0)
(0.180589 0.0560387 0)
(0.189817 0.0791869 0)
(0.197547 0.115773 0)
(0.153594 0.131773 0)
(0.116605 -0.00694911 0)
(0.0789345 -0.128702 0)
(-0.0112054 0.0678848 0)
(0.00311758 0.0233834 0)
(0.00901562 -0.0196777 0)
(0.0226068 -0.0512101 0)
(0.0482394 -0.0852512 0)
(0.0842944 -0.111078 0)
(0.12173 -0.109886 0)
(0.154691 -0.0856012 0)
(0.177819 -0.0543305 0)
(0.190653 -0.0277514 0)
(0.196327 -0.00882825 0)
(0.197518 0.0042174 0)
(0.195657 0.0134255 0)
(0.191851 0.0202449 0)
(0.187071 0.0259553 0)
(0.182244 0.0321648 0)
(0.178125 0.0398223 0)
(0.178294 0.0523446 0)
(0.188126 0.0717433 0)
(0.218529 0.11006 0)
(0.238742 0.135905 0)
(0.211466 0.0310469 0)
(0.132766 -0.0721661 0)
(0.00131056 0.0645207 0)
(0.0392977 0.017199 0)
(0.0606582 -0.0264862 0)
(0.0895303 -0.0599237 0)
(0.124605 -0.0978452 0)
(0.149962 -0.125058 0)
(0.163399 -0.122369 0)
(0.173295 -0.0945938 0)
(0.180205 -0.0601244 0)
(0.183687 -0.0312149 0)
(0.185782 -0.0102939 0)
(0.187333 0.00374201 0)
(0.187538 0.0139564 0)
(0.186271 0.0213752 0)
(0.184187 0.0273408 0)
(0.182069 0.0334606 0)
(0.180988 0.0404679 0)
(0.183161 0.0503681 0)
(0.190045 0.0635089 0)
(0.213339 0.090742 0)
(0.259423 0.120981 0)
(0.249673 0.0675237 0)
(0.161355 0.0171162 0)
(0.0159938 0.0475574 0)
(0.0797358 -0.003857 0)
(0.134394 -0.0418528 0)
(0.19339 -0.0718809 0)
(0.235236 -0.105863 0)
(0.239042 -0.126732 0)
(0.220373 -0.120538 0)
(0.204006 -0.0914419 0)
(0.193423 -0.0572467 0)
(0.185789 -0.0303496 0)
(0.181109 -0.0111673 0)
(0.179756 0.00426113 0)
(0.180412 0.0157059 0)
(0.181119 0.0234301 0)
(0.181803 0.0287404 0)
(0.182436 0.0337898 0)
(0.18386 0.0388465 0)
(0.188716 0.0463803 0)
(0.197752 0.0569065 0)
(0.211087 0.0739345 0)
(0.251436 0.104105 0)
(0.260856 0.0928855 0)
(0.198017 0.0950328 0)
(0.029546 0.0181231 0)
(0.12237 -0.0343559 0)
(0.225402 -0.075911 0)
(0.310783 -0.103972 0)
(0.335922 -0.11921 0)
(0.303905 -0.120844 0)
(0.257231 -0.10892 0)
(0.226381 -0.0817792 0)
(0.208905 -0.0490104 0)
(0.197585 -0.0234718 0)
(0.190374 -0.00794095 0)
(0.185344 0.00250192 0)
(0.181491 0.0108436 0)
(0.17921 0.0180436 0)
(0.179303 0.0253742 0)
(0.181137 0.0332342 0)
(0.184943 0.0393212 0)
(0.192985 0.0451044 0)
(0.206246 0.0535541 0)
(0.22034 0.064176 0)
(0.245372 0.0918829 0)
(0.271192 0.122058 0)
(0.188032 0.253607 0)
(0.115238 -0.120394 0)
(0.591328 -0.212408 0)
(1.29141 -0.172864 0)
(1.85258 -0.139374 0)
(2.02695 -0.127459 0)
(1.57685 0.275294 0)
(-1.33742 0.177244 0)
(-2.23285 -0.0719815 0)
(-2.69966 -0.24912 0)
(-2.56575 -0.203221 0)
(-2.3743 -0.131356 0)
(-2.24137 -0.0810373 0)
(-2.08775 -0.0229685 0)
(-1.93356 0.0199526 0)
(-1.77975 0.0349433 0)
(-1.60992 0.0325524 0)
(-1.32893 0.00904633 0)
(-0.796288 -0.0800913 0)
(-0.162241 -0.0767147 0)
(-0.0654361 -0.208205 0)
(0.101078 -0.289103 0)
(0.420379 -0.533021 0)
(1.45269 -0.111559 0)
(2.50508 0.254355 0)
(0.611039 1.06779 0)
(-2.71836 1.01155 0)
(-3.94921 0.538997 0)
(-4.07139 0.19761 0)
(-3.76978 0.0120992 0)
(-3.84006 -0.0571962 0)
(-3.48368 -0.0917691 0)
(-3.21738 -0.137096 0)
(-2.96464 -0.186449 0)
(-2.68299 -0.231202 0)
(-2.32119 -0.253505 0)
(-1.76026 -0.305176 0)
(-0.936248 -0.482948 0)
(-0.155647 -0.291583 0)
(-0.19806 -0.0875012 0)
(-0.118383 -0.473713 0)
(0.0391778 -0.85824 0)
(0.338849 -0.642164 0)
(1.5391 0.189254 0)
(-0.189543 2.07147 0)
(-3.06868 1.97401 0)
(-3.39443 0.758808 0)
(-2.26095 0.110217 0)
(-3.462 -0.144646 0)
(-3.87604 -0.141047 0)
(-4.12602 -0.20447 0)
(-4.1698 -0.192366 0)
(-3.96867 -0.224654 0)
(-3.75548 -0.331942 0)
(-3.41221 -0.449801 0)
(-2.43478 -0.635198 0)
(-1.04495 -1.07594 0)
(-0.157541 -0.53716 0)
(-0.181834 -0.0477011 0)
(-0.0169829 -0.525229 0)
(0.0940761 -0.866755 0)
(-0.00921902 -0.425546 0)
(1.36838 0.484353 0)
(-0.817494 2.80126 0)
(-2.72704 2.56641 0)
(-1.93966 0.883942 0)
(-2.05555 0.262792 0)
(-2.9738 0.249418 0)
(-3.07108 0.103248 0)
(-3.11516 -0.0561238 0)
(-3.0291 -0.176634 0)
(-2.83312 -0.296608 0)
(-2.77465 -0.441523 0)
(-3.0202 -0.551795 0)
(-2.39481 -0.787165 0)
(-0.954201 -1.67516 0)
(-0.124945 -0.850006 0)
(-0.100225 -0.0163379 0)
(0.140196 -0.557111 0)
(0.206758 -0.854026 0)
(0.0209313 -0.832252 0)
(1.60952 0.655585 0)
(-0.987876 3.42509 0)
(-1.15491 2.68762 0)
(-1.12612 1.14128 0)
(-2.32248 0.402535 0)
(-2.93492 0.242168 0)
(-2.97856 0.0217096 0)
(-2.82154 -0.149852 0)
(-2.34074 -0.290082 0)
(-1.66725 -0.404612 0)
(-1.19674 -0.493321 0)
(-1.45648 -0.564815 0)
(-1.33919 -0.985599 0)
(-0.719749 -2.06347 0)
(0.0285192 -1.10147 0)
(0.0178204 -0.0214638 0)
(0.287012 -0.619975 0)
(0.321115 -0.843177 0)
(0.176871 -0.924195 0)
(0.930615 0.215742 0)
(-0.651168 4.02463 0)
(-0.576845 2.75282 0)
(-1.27724 1.45842 0)
(-2.3358 0.745188 0)
(-2.95859 0.390579 0)
(-3.1712 0.0360476 0)
(-3.12177 -0.305373 0)
(-2.67148 -0.625613 0)
(-1.84456 -0.85986 0)
(-0.829521 -0.801906 0)
(-0.0245438 -0.334028 0)
(-0.673521 -0.898002 0)
(-0.595396 -2.25554 0)
(0.1217 -1.28045 0)
(0.216705 -0.167781 0)
(0.442491 -0.680359 0)
(0.411427 -0.828304 0)
(0.283036 -0.897058 0)
(0.660174 0.265917 0)
(-0.054404 4.43814 0)
(-0.000535663 3.10879 0)
(-1.41164 1.78843 0)
(-2.15133 1.06973 0)
(-2.80682 0.581422 0)
(-3.15238 0.128257 0)
(-3.23707 -0.351954 0)
(-2.90949 -0.852748 0)
(-2.13542 -1.26392 0)
(-1.10198 -1.25364 0)
(-0.156666 -0.675024 0)
(0.110971 -0.279673 0)
(-0.472995 -2.3015 0)
(0.155381 -1.43339 0)
(0.474222 -0.379931 0)
(0.5699 -0.708914 0)
(0.464646 -0.791774 0)
(0.325699 -0.866716 0)
(0.451295 0.279795 0)
(0.648244 4.59495 0)
(0.407455 3.36454 0)
(-1.00644 2.26424 0)
(-1.74289 1.39109 0)
(-2.5119 0.784201 0)
(-2.933 0.242221 0)
(-3.14174 -0.392883 0)
(-2.94091 -1.09009 0)
(-2.23665 -1.69354 0)
(-1.21437 -1.76339 0)
(-0.251664 -1.18509 0)
(0.998207 -0.665589 0)
(-0.319939 -2.17087 0)
(0.171996 -1.54301 0)
(0.0455507 -0.0521275 0)
(0.19048 -0.133327 0)
(0.319361 -0.169267 0)
(0.353904 -0.152912 0)
(0.314402 -0.11916 0)
(0.248765 -0.0960572 0)
(0.199242 -0.0870113 0)
(0.177038 -0.0741169 0)
(0.175359 -0.051099 0)
(0.18286 -0.0245288 0)
(0.191355 -0.00116399 0)
(0.198262 0.0164416 0)
(0.201657 0.0300647 0)
(0.200651 0.0356577 0)
(0.197346 0.0327867 0)
(0.19256 0.029603 0)
(0.190219 0.0252858 0)
(0.196451 0.0259621 0)
(0.211498 0.035048 0)
(0.236561 0.0453054 0)
(0.270004 0.0622211 0)
(0.357691 0.0742721 0)
(0.456425 0.208825 0)
(0.07842 -0.181192 0)
(0.228035 -0.317726 0)
(0.244332 -0.209491 0)
(0.00372212 -0.0416557 0)
(-0.0469993 -0.00772417 0)
(-0.0499432 -0.0245009 0)
(-0.0688873 -0.0443962 0)
(-0.0814809 -0.0544015 0)
(-0.0545491 -0.0549665 0)
(-0.00544268 -0.0476029 0)
(0.0444592 -0.0347114 0)
(0.112907 -0.0174981 0)
(0.180671 -0.00433182 0)
(0.213094 0.00891302 0)
(0.221334 0.0263086 0)
(0.21211 0.0461501 0)
(0.201157 0.0439785 0)
(0.205865 0.0312993 0)
(0.219991 0.0245511 0)
(0.239756 0.0173702 0)
(0.272128 0.0127843 0)
(0.3165 0.00218559 0)
(0.40174 -0.0128329 0)
(0.0304949 -0.392783 0)
(-0.029159 -0.300187 0)
(-0.233417 0.0951761 0)
(-0.364814 0.136722 0)
(-0.373198 -0.0352308 0)
(-0.478008 -0.0480505 0)
(-0.620892 -0.0250349 0)
(-0.742999 -0.0500241 0)
(-0.832741 -0.087238 0)
(-0.868355 -0.109152 0)
(-0.807003 -0.150422 0)
(-0.573864 -0.15042 0)
(-0.238582 -0.0616691 0)
(-0.0411947 0.00348938 0)
(0.0387607 0.0304901 0)
(0.103766 0.047818 0)
(0.168417 0.0271899 0)
(0.231993 0.00717079 0)
(0.252159 0.00779093 0)
(0.253132 -0.00781347 0)
(0.272923 -0.0366281 0)
(0.310549 -0.0571072 0)
(0.362146 -0.0723292 0)
(-0.102001 -0.201298 0)
(-0.204614 0.00482319 0)
(-0.254578 0.169595 0)
(-0.226924 0.0969977 0)
(-0.119079 0.044819 0)
(-0.192162 0.143926 0)
(-0.224189 0.161248 0)
(-0.231585 0.101484 0)
(-0.274816 0.0169453 0)
(-0.359331 -0.0950273 0)
(-0.501595 -0.245133 0)
(-0.669862 -0.444241 0)
(-0.806396 -0.451362 0)
(-0.838612 -0.222667 0)
(-0.723129 -0.112054 0)
(-0.504402 -0.0864209 0)
(-0.316841 -0.0996229 0)
(-0.0837471 -0.0407733 0)
(0.0410761 0.00809683 0)
(0.127571 -0.00502535 0)
(0.222133 -0.0320386 0)
(0.295109 -0.0551283 0)
(0.33471 -0.0932012 0)
(-0.119818 -0.0808706 0)
(-0.120464 -0.109814 0)
(-0.0959697 0.0360465 0)
(-0.00937795 0.0194183 0)
(-0.0302132 0.00974436 0)
(-0.0360219 0.0809343 0)
(0.00366874 0.0963095 0)
(0.0362172 0.0711039 0)
(0.053436 0.0770529 0)
(0.0656754 0.106891 0)
(0.0432869 0.129267 0)
(-0.122135 0.00891833 0)
(-0.302335 -0.142593 0)
(-0.340894 -0.20384 0)
(-0.288812 -0.207676 0)
(-0.303448 -0.326458 0)
(-0.394894 -0.337098 0)
(-0.444851 -0.313492 0)
(-0.475521 -0.204321 0)
(-0.376803 -0.233005 0)
(-0.160053 -0.233483 0)
(-0.0156583 -0.169417 0)
(0.0731931 -0.158858 0)
(-0.0515194 0.00642439 0)
(-0.043642 -0.0415865 0)
(-0.0591609 0.0375473 0)
(-0.0274586 0.0323162 0)
(-0.0450754 0.0375008 0)
(-0.0381188 0.0641267 0)
(-0.0159539 0.0624091 0)
(-0.0128498 0.0338214 0)
(-0.0127692 -0.0144004 0)
(0.010325 -0.0624187 0)
(0.0552866 -0.0665044 0)
(0.107793 -0.0388267 0)
(0.0485532 -0.0293105 0)
(-0.0475408 -0.134323 0)
(-0.0318107 -0.178688 0)
(-0.0320549 -0.116981 0)
(-0.0381829 -0.0864195 0)
(-0.0585052 -0.1053 0)
(-0.0429759 -0.114697 0)
(0.0191158 -0.140935 0)
(-0.0133845 -0.369543 0)
(-0.0667793 -0.230282 0)
(-0.16367 -0.151722 0)
(-0.0335965 0.0285902 0)
(-0.033728 -0.0549015 0)
(-0.0411294 0.00932353 0)
(-0.0218814 0.0253037 0)
(-0.0275708 0.0385145 0)
(-0.0200639 0.057122 0)
(-0.00394187 0.0643768 0)
(0.0100937 0.0566909 0)
(0.0117876 0.0374361 0)
(-0.000876965 0.0115731 0)
(-0.00704277 -0.009646 0)
(0.00296518 -0.0161572 0)
(0.0379184 -0.0290595 0)
(0.0342894 -0.126402 0)
(0.00506235 -0.214493 0)
(-0.0318244 -0.233215 0)
(-0.0156881 -0.200197 0)
(0.00876866 -0.187099 0)
(0.0469756 -0.205866 0)
(0.120343 -0.267724 0)
(0.212556 -0.269965 0)
(0.304165 -0.170504 0)
(0.430007 0.142678 0)
(-0.0228707 0.0601143 0)
(-0.0247304 -0.0438931 0)
(-0.0284029 0.0113537 0)
(-0.0205132 0.0236056 0)
(-0.0184928 0.0306531 0)
(-0.00984364 0.0400115 0)
(0.00167122 0.0441112 0)
(0.00962072 0.0351138 0)
(0.0131705 0.00904282 0)
(0.0126035 -0.0220811 0)
(0.00775487 -0.0459071 0)
(0.00877028 -0.0558412 0)
(0.0307443 -0.048093 0)
(0.0546969 -0.0979051 0)
(0.0447949 -0.15165 0)
(0.0185046 -0.163927 0)
(0.0134394 -0.181927 0)
(0.0309448 -0.218976 0)
(0.0641949 -0.276151 0)
(0.0948916 -0.362864 0)
(0.1431 -0.410234 0)
(0.198741 -0.358846 0)
(0.349793 -0.167453 0)
(-0.0156468 0.0803269 0)
(-0.0187438 -0.0411088 0)
(-0.019947 0.00286321 0)
(-0.0134338 0.0205747 0)
(-0.0108228 0.0268672 0)
(-0.00356268 0.0324043 0)
(0.00708094 0.0366939 0)
(0.0187558 0.0349552 0)
(0.0253876 0.0247439 0)
(0.0236974 0.00189056 0)
(0.0187641 -0.0273526 0)
(0.0161234 -0.0580828 0)
(0.025659 -0.0861899 0)
(0.0429909 -0.126097 0)
(0.0356895 -0.160095 0)
(0.0228432 -0.175817 0)
(0.0214503 -0.18862 0)
(0.0295647 -0.218768 0)
(0.0447318 -0.277737 0)
(0.0547744 -0.354387 0)
(0.0609548 -0.406533 0)
(0.0690335 -0.393816 0)
(0.151318 -0.287858 0)
(-0.00960779 0.0951975 0)
(-0.012279 -0.0379561 0)
(-0.0142083 0.00074776 0)
(-0.0101843 0.0175438 0)
(-0.00737625 0.0214226 0)
(-0.00169856 0.0233842 0)
(0.0066107 0.0246092 0)
(0.0169029 0.0219351 0)
(0.0265787 0.0116311 0)
(0.0325977 -0.00612625 0)
(0.0338415 -0.028248 0)
(0.0330638 -0.0538499 0)
(0.0327901 -0.0808328 0)
(0.0298182 -0.11264 0)
(0.0185864 -0.142488 0)
(0.00301115 -0.163003 0)
(-0.00678169 -0.186299 0)
(-0.0111973 -0.230434 0)
(-0.0157957 -0.294529 0)
(-0.0260672 -0.360792 0)
(-0.0493815 -0.406257 0)
(-0.0765098 -0.413558 0)
(-0.0678011 -0.364254 0)
(-0.00516065 0.103997 0)
(-0.00802914 -0.0355646 0)
(-0.0100297 -0.000821497 0)
(-0.00765251 0.0154083 0)
(-0.00554569 0.0178129 0)
(-0.00154958 0.0176142 0)
(0.00429688 0.0164468 0)
(0.0121182 0.0129563 0)
(0.0202079 0.00489011 0)
(0.0262047 -0.00958234 0)
(0.0287255 -0.0296208 0)
(0.027618 -0.0527546 0)
(0.0227964 -0.0776545 0)
(0.0136443 -0.104072 0)
(-0.00111257 -0.128454 0)
(-0.0185538 -0.148679 0)
(-0.0324359 -0.173298 0)
(-0.0470513 -0.214147 0)
(-0.0680726 -0.272166 0)
(-0.101511 -0.329201 0)
(-0.141587 -0.368226 0)
(-0.184625 -0.388725 0)
(-0.2206 -0.357398 0)
(-0.00216125 0.108797 0)
(-0.0051724 -0.0331185 0)
(-0.00738036 -0.00121926 0)
(-0.00638471 0.0141119 0)
(-0.00527978 0.0153475 0)
(-0.00296483 0.013765 0)
(0.000396883 0.0110474 0)
(0.00487774 0.00632657 0)
(0.00972512 -0.00168216 0)
(0.0133131 -0.0137072 0)
(0.014063 -0.0298275 0)
(0.0109939 -0.048735 0)
(0.00368023 -0.0690585 0)
(-0.00753892 -0.0902164 0)
(-0.0230154 -0.111441 0)
(-0.0400136 -0.132159 0)
(-0.0567458 -0.156119 0)
(-0.0766834 -0.191033 0)
(-0.108755 -0.2384 0)
(-0.155733 -0.287842 0)
(-0.204932 -0.328806 0)
(-0.251608 -0.356758 0)
(-0.295695 -0.348396 0)
(-0.000364579 0.111494 0)
(-0.00343724 -0.0305044 0)
(-0.00594923 -0.000530031 0)
(-0.00613325 0.013822 0)
(-0.00597921 0.014253 0)
(-0.00515354 0.0119549 0)
(-0.00389547 0.00856874 0)
(-0.0023194 0.00343014 0)
(-0.000830169 -0.00411247 0)
(-0.000399778 -0.0144303 0)
(-0.00221473 -0.027439 0)
(-0.00722141 -0.0425988 0)
(-0.0156781 -0.0591951 0)
(-0.0274428 -0.076659 0)
(-0.0423159 -0.0952368 0)
(-0.0598689 -0.114432 0)
(-0.0790052 -0.135599 0)
(-0.102501 -0.161601 0)
(-0.138144 -0.194859 0)
(-0.189526 -0.233743 0)
(-0.251785 -0.272523 0)
(-0.320436 -0.303001 0)
(-0.393243 -0.303695 0)
(0.000491676 0.112817 0)
(-0.00255754 -0.0278115 0)
(-0.00536311 0.000957339 0)
(-0.00651765 0.0145039 0)
(-0.00730083 0.0143479 0)
(-0.0077534 0.0117278 0)
(-0.00810465 0.00821814 0)
(-0.0086157 0.00329124 0)
(-0.00965288 -0.0034705 0)
(-0.0117706 -0.0121867 0)
(-0.0157035 -0.0227721 0)
(-0.0221041 -0.0349785 0)
(-0.0312914 -0.0484914 0)
(-0.0433524 -0.0630298 0)
(-0.0586151 -0.0784401 0)
(-0.0772238 -0.0947776 0)
(-0.0992735 -0.112249 0)
(-0.125989 -0.131143 0)
(-0.16084 -0.152189 0)
(-0.208939 -0.175572 0)
(-0.274885 -0.198558 0)
(-0.360476 -0.21327 0)
(-0.461899 -0.20021 0)
(0.000731679 0.113613 0)
(-0.00228093 -0.0249733 0)
(-0.00541212 0.00311132 0)
(-0.00734715 0.0159508 0)
(-0.008949 0.0154448 0)
(-0.0104516 0.0127532 0)
(-0.0120563 0.00943449 0)
(-0.0140195 0.00500865 0)
(-0.0166955 -0.000801964 0)
(-0.0204859 -0.00805384 0)
(-0.0258372 -0.0166701 0)
(-0.0332169 -0.0265039 0)
(-0.0429767 -0.0373447 0)
(-0.0554522 -0.0489233 0)
(-0.0709745 -0.0609974 0)
(-0.0899945 -0.0734263 0)
(-0.113234 -0.0863945 0)
(-0.141517 -0.0998636 0)
(-0.175862 -0.112644 0)
(-0.218424 -0.122678 0)
(-0.273022 -0.127719 0)
(-0.344355 -0.123647 0)
(-0.432555 -0.104286 0)
(0.000642587 0.114416 0)
(-0.00241567 -0.0219303 0)
(-0.00588096 0.0058306 0)
(-0.00839659 0.0180916 0)
(-0.0106864 0.0173988 0)
(-0.0130457 0.0147932 0)
(-0.0156378 0.0117981 0)
(-0.0186683 0.00798397 0)
(-0.0224479 0.00312853 0)
(-0.0273033 -0.00278402 0)
(-0.0335726 -0.009684 0)
(-0.0416324 -0.0174459 0)
(-0.05182 -0.0258746 0)
(-0.0644609 -0.0347282 0)
(-0.0798559 -0.0436797 0)
(-0.0983187 -0.0524089 0)
(-0.120379 -0.0608337 0)
(-0.14701 -0.0689653 0)
(-0.179327 -0.075888 0)
(-0.217888 -0.0789492 0)
(-0.262576 -0.0744247 0)
(-0.312871 -0.0581167 0)
(-0.368227 -0.0249202 0)
(0.000424062 0.115435 0)
(-0.00273863 -0.0186335 0)
(-0.00655167 0.00904471 0)
(-0.00952556 0.0208149 0)
(-0.0123903 0.0200709 0)
(-0.0154112 0.0176783 0)
(-0.0187571 0.0150699 0)
(-0.0226064 0.0118771 0)
(-0.0271841 0.00793096 0)
(-0.0327633 0.00324667 0)
(-0.0396404 -0.00210517 0)
(-0.0481214 -0.00800732 0)
(-0.0584973 -0.0142647 0)
(-0.0710712 -0.0206548 0)
(-0.0861127 -0.0268614 0)
(-0.103894 -0.0325262 0)
(-0.124759 -0.0373108 0)
(-0.149241 -0.0407421 0)
(-0.17805 -0.0419325 0)
(-0.21167 -0.039401 0)
(-0.249794 -0.0308616 0)
(-0.2904 -0.012992 0)
(-0.330519 0.017467 0)
(0.000175209 0.116771 0)
(-0.00313139 -0.0150635 0)
(-0.00729714 0.0126279 0)
(-0.010606 0.0239889 0)
(-0.0139096 0.0232755 0)
(-0.0174543 0.0211966 0)
(-0.0213714 0.01903 0)
(-0.0258066 0.0164598 0)
(-0.030949 0.0133706 0)
(-0.0370134 0.00980045 0)
(-0.0442522 0.00582944 0)
(-0.0529003 0.00158108 0)
(-0.0632023 -0.00276306 0)
(-0.0754124 -0.0069805 0)
(-0.089732 -0.0107384 0)
(-0.106388 -0.0136788 0)
(-0.125627 -0.0154662 0)
(-0.147702 -0.0156799 0)
(-0.172826 -0.0134943 0)
(-0.200942 -0.00744138 0)
(-0.231547 0.00420663 0)
(-0.263376 0.0236418 0)
(-0.294029 0.0528801 0)
(-4.22694e-05 0.118423 0)
(-0.00351418 -0.0112186 0)
(-0.00800918 0.0165064 0)
(-0.0115722 0.0275059 0)
(-0.0152123 0.0268936 0)
(-0.019107 0.0251563 0)
(-0.0234254 0.0234642 0)
(-0.0282558 0.0215121 0)
(-0.0337524 0.0192234 0)
(-0.0400925 0.016652 0)
(-0.0474696 0.0138934 0)
(-0.056064 0.0110848 0)
(-0.0660828 0.00838352 0)
(-0.0777063 0.00600519 0)
(-0.0910767 0.00426626 0)
(-0.106351 0.00351063 0)
(-0.12363 0.00412974 0)
(-0.143033 0.00653745 0)
(-0.164599 0.011391 0)
(-0.188207 0.0196634 0)
(-0.213322 0.032426 0)
(-0.238579 0.0510605 0)
(-0.261958 0.0773876 0)
(-0.000191492 0.120346 0)
(-0.00383529 -0.00710211 0)
(-0.00863905 0.0206195 0)
(-0.0123499 0.0312698 0)
(-0.016234 0.030816 0)
(-0.0203783 0.0294372 0)
(-0.0249412 0.0282051 0)
(-0.0299931 0.026838 0)
(-0.0356649 0.0252812 0)
(-0.0420948 0.0235999 0)
(-0.0494214 0.0218999 0)
(-0.0577891 0.0203151 0)
(-0.067367 0.0189919 0)
(-0.0782652 0.0181443 0)
(-0.0905802 0.0180448 0)
(-0.104406 0.0190189 0)
(-0.119782 0.02143 0)
(-0.136696 0.0256074 0)
(-0.155062 0.0320457 0)
(-0.174638 0.041479 0)
(-0.194904 0.0547558 0)
(-0.214803 0.072727 0)
(-0.232788 0.0965421 0)
(-0.000259224 0.12247 0)
(-0.00407172 -0.00273469 0)
(-0.00913896 0.0249027 0)
(-0.0129239 0.0352079 0)
(-0.0169666 0.0349149 0)
(-0.0212549 0.0338989 0)
(-0.0259476 0.0331111 0)
(-0.0310873 0.0322823 0)
(-0.0367863 0.0313805 0)
(-0.0431525 0.0304822 0)
(-0.0502875 0.0296915 0)
(-0.0583068 0.0291338 0)
(-0.0673276 0.0289483 0)
(-0.0774202 0.0293428 0)
(-0.0886416 0.0305398 0)
(-0.101017 0.0328354 0)
(-0.114524 0.0365452 0)
(-0.12911 0.0419578 0)
(-0.144626 0.04942 0)
(-0.160755 0.0594906 0)
(-0.177013 0.0727162 0)
(-0.192589 0.0896131 0)
(-0.206316 0.111047 0)
(-0.000249411 0.124712 0)
(-0.00421716 0.00184492 0)
(-0.00948414 0.0292952 0)
(-0.0132763 0.039238 0)
(-0.0174104 0.0391172 0)
(-0.0217512 0.0384488 0)
(-0.026471 0.0380673 0)
(-0.0315968 0.0377221 0)
(-0.0372133 0.0373977 0)
(-0.0434037 0.0371743 0)
(-0.050242 0.0371492 0)
(-0.0578205 0.0374386 0)
(-0.0662117 0.0381865 0)
(-0.0754551 0.0395638 0)
(-0.085578 0.0417635 0)
(-0.0965591 0.045039 0)
(-0.108338 0.0496558 0)
(-0.120818 0.0558415 0)
(-0.133816 0.063854 0)
(-0.147034 0.0740906 0)
(-0.160027 0.0869229 0)
(-0.172142 0.102625 0)
(-0.182523 0.121847 0)
(-0.000181314 0.12699 0)
(-0.00426745 0.00658111 0)
(-0.00965063 0.0337364 0)
(-0.0133949 0.0433009 0)
(-0.0175553 0.0433495 0)
(-0.0218831 0.0430063 0)
(-0.0265561 0.0429862 0)
(-0.0315809 0.0430647 0)
(-0.0370278 0.0432368 0)
(-0.0429626 0.043581 0)
(-0.0494393 0.0441903 0)
(-0.0565115 0.0451738 0)
(-0.0642317 0.0466685 0)
(-0.0726242 0.0488075 0)
(-0.0816791 0.0517609 0)
(-0.0913457 0.0557355 0)
(-0.101545 0.0609518 0)
(-0.112163 0.0675896 0)
(-0.123003 0.0758112 0)
(-0.133786 0.0858834 0)
(-0.144115 0.0980963 0)
(-0.153469 0.112588 0)
(-0.161243 0.129823 0)
(-8.3103e-05 0.129235 0)
(-0.00421629 0.0113935 0)
(-0.00962029 0.0381557 0)
(-0.0132713 0.047344 0)
(-0.0174051 0.0475481 0)
(-0.0216594 0.047494 0)
(-0.0262228 0.0477928 0)
(-0.0310861 0.0482366 0)
(-0.0363072 0.0488277 0)
(-0.0419334 0.0496413 0)
(-0.0479987 0.0507692 0)
(-0.0545358 0.0523138 0)
(-0.0615819 0.0543794 0)
(-0.0691393 0.0570916 0)
(-0.077178 0.0605963 0)
(-0.0856361 0.065046 0)
(-0.0944211 0.0706197 0)
(-0.103413 0.0774625 0)
(-0.112424 0.0856667 0)
(-0.121192 0.0953897 0)
(-0.129362 0.106849 0)
(-0.136518 0.120143 0)
(-0.142273 0.135624 0)
(1.71752e-05 0.131382 0)
(-0.00405099 0.0161807 0)
(-0.00938516 0.0424875 0)
(-0.012901 0.0513219 0)
(-0.0169635 0.051664 0)
(-0.0210921 0.0518645 0)
(-0.0254961 0.0524346 0)
(-0.0301511 0.0531869 0)
(-0.0351058 0.0541254 0)
(-0.0403906 0.0553245 0)
(-0.046022 0.056868 0)
(-0.0520279 0.0588439 0)
(-0.0584218 0.0613419 0)
(-0.0651769 0.0644795 0)
(-0.0722696 0.0683612 0)
(-0.0796349 0.0731128 0)
(-0.0871664 0.0788658 0)
(-0.0947528 0.0857339 0)
(-0.102215 0.0937636 0)
(-0.109337 0.103018 0)
(-0.115809 0.113667 0)
(-0.121237 0.125827 0)
(-0.125429 0.139792 0)
(0.000111318 0.133373 0)
(-0.00375447 0.0208437 0)
(-0.00895815 0.0466738 0)
(-0.0122915 0.055192 0)
(-0.0162408 0.0556528 0)
(-0.020196 0.0560725 0)
(-0.0243985 0.0568711 0)
(-0.0288082 0.0578815 0)
(-0.0334668 0.0591051 0)
(-0.0383893 0.0606153 0)
(-0.043586 0.062481 0)
(-0.0490724 0.0647779 0)
(-0.054839 0.0675953 0)
(-0.0608603 0.0710297 0)
(-0.0670998 0.0751565 0)
(-0.0734894 0.0800741 0)
(-0.079934 0.0858749 0)
(-0.0863187 0.0926412 0)
(-0.092497 0.100396 0)
(-0.098283 0.109123 0)
(-0.103419 0.118939 0)
(-0.107521 0.130048 0)
(-0.110513 0.142717 0)
(0.000229414 0.135156 0)
(-0.00331679 0.0253056 0)
(-0.00837737 0.0506645 0)
(-0.0114727 0.0589116 0)
(-0.0152703 0.0594674 0)
(-0.0190046 0.0600754 0)
(-0.0229634 0.0610727 0)
(-0.0270894 0.0622891 0)
(-0.0314223 0.0637462 0)
(-0.0359681 0.0655026 0)
(-0.0407339 0.0676142 0)
(-0.0457166 0.0701524 0)
(-0.0508939 0.0731957 0)
(-0.0562353 0.0768252 0)
(-0.0617072 0.0810861 0)
(-0.0672449 0.0860623 0)
(-0.0727612 0.0918236 0)
(-0.0781457 0.0984282 0)
(-0.0832599 0.105859 0)
(-0.0879904 0.114054 0)
(-0.0921155 0.123062 0)
(-0.0952425 0.133177 0)
(-0.0973498 0.144727 0)
(0.000420499 0.136621 0)
(-0.00275196 0.0295341 0)
(-0.00770037 0.054421 0)
(-0.0104891 0.0624335 0)
(-0.0141021 0.063055 0)
(-0.0175601 0.063824 0)
(-0.0212467 0.0649855 0)
(-0.0250562 0.0663816 0)
(-0.0290228 0.0680251 0)
(-0.0331674 0.0699743 0)
(-0.0374846 0.0722797 0)
(-0.0419613 0.0749983 0)
(-0.0465628 0.0781983 0)
(-0.051283 0.0819291 0)
(-0.056074 0.08625 0)
(-0.0608511 0.0912162 0)
(-0.065551 0.0968799 0)
(-0.0700962 0.103273 0)
(-0.0743657 0.110389 0)
(-0.0782643 0.1181 0)
(-0.0816441 0.126372 0)
(-0.084123 0.135548 0)
(-0.0856539 0.146103 0)
(0.000760426 0.137585 0)
(-0.0020448 0.0335856 0)
(-0.00699412 0.0579348 0)
(-0.00939775 0.0657176 0)
(-0.0128115 0.0663782 0)
(-0.0159492 0.067276 0)
(-0.0193176 0.0685619 0)
(-0.0227725 0.070115 0)
(-0.0263472 0.0719179 0)
(-0.030048 0.0740139 0)
(-0.0338865 0.076454 0)
(-0.0378382 0.0792988 0)
(-0.0418801 0.0825999 0)
(-0.0459828 0.0863715 0)
(-0.0501035 0.0907103 0)
(-0.054179 0.0956269 0)
(-0.05816 0.101162 0)
(-0.0619612 0.107324 0)
(-0.0654874 0.11413 0)
(-0.0687207 0.121431 0)
(-0.0715468 0.12911 0)
(-0.073602 0.137453 0)
(-0.0747919 0.147108 0)
(0.00136863 0.137949 0)
(-0.00117542 0.0375127 0)
(-0.006339 0.0612125 0)
(-0.00825668 0.068734 0)
(-0.0114844 0.0693986 0)
(-0.0142752 0.0704121 0)
(-0.0172991 0.0717995 0)
(-0.0203597 0.0734464 0)
(-0.0235225 0.0753614 0)
(-0.0267751 0.0775674 0)
(-0.0301011 0.0801048 0)
(-0.0334831 0.0830259 0)
(-0.0369352 0.0863729 0)
(-0.0404014 0.0901769 0)
(-0.0438402 0.094489 0)
(-0.0472154 0.0993296 0)
(-0.0504781 0.104712 0)
(-0.0535625 0.110671 0)
(-0.056382 0.117194 0)
(-0.058929 0.124143 0)
(-0.0611893 0.131386 0)
(-0.0628746 0.139057 0)
(-0.0637854 0.147912 0)
(0.00216351 0.137324 0)
(-0.000264094 0.0417825 0)
(-0.00573167 0.0643045 0)
(-0.00713922 0.0714758 0)
(-0.0102179 0.0721083 0)
(-0.0126374 0.073219 0)
(-0.0153548 0.0746672 0)
(-0.0180429 0.0763689 0)
(-0.0207778 0.0783372 0)
(-0.0235598 0.0806061 0)
(-0.026376 0.0832053 0)
(-0.029201 0.0861628 0)
(-0.0320332 0.0895109 0)
(-0.0348367 0.0933001 0)
(-0.0375768 0.0975514 0)
(-0.0402267 0.102295 0)
(-0.0427263 0.10753 0)
(-0.0450144 0.113284 0)
(-0.0470565 0.119534 0)
(-0.0488091 0.126195 0)
(-0.0503054 0.133112 0)
(-0.0513739 0.140303 0)
(-0.0517347 0.148458 0)
(0.00301454 0.135816 0)
(0.000618329 0.0461421 0)
(-0.00518163 0.0672834 0)
(-0.00611826 0.0739546 0)
(-0.00912892 0.0745348 0)
(-0.0112007 0.0757247 0)
(-0.0136561 0.0771741 0)
(-0.0160123 0.0789066 0)
(-0.0183758 0.0808917 0)
(-0.0207369 0.0831657 0)
(-0.0230849 0.0857626 0)
(-0.025397 0.0887155 0)
(-0.0276633 0.0920437 0)
(-0.0298366 0.0957789 0)
(-0.0318875 0.0999224 0)
(-0.0337981 0.104508 0)
(-0.0355107 0.109548 0)
(-0.0369716 0.115047 0)
(-0.0381292 0.120981 0)
(-0.0389107 0.12733 0)
(-0.0393567 0.133938 0)
(-0.0394091 0.140757 0)
(-0.0387711 0.148301 0)
(0.00395694 0.133416 0)
(0.00145746 0.0507148 0)
(-0.00474776 0.0702204 0)
(-0.00525008 0.0761872 0)
(-0.00828979 0.0767225 0)
(-0.0100673 0.0779708 0)
(-0.012354 0.0794131 0)
(-0.0144444 0.0811154 0)
(-0.0165375 0.083071 0)
(-0.0185804 0.0853057 0)
(-0.020558 0.0878671 0)
(-0.0224514 0.0907444 0)
(-0.0242527 0.0939741 0)
(-0.0259311 0.0975938 0)
(-0.027439 0.101576 0)
(-0.0287224 0.105944 0)
(-0.0297294 0.110715 0)
(-0.0304066 0.11588 0)
(-0.0306823 0.121437 0)
(-0.0304608 0.127384 0)
(-0.0297425 0.133579 0)
(-0.0284993 0.139938 0)
(-0.0263992 0.146812 0)
(0.00492504 0.130055 0)
(0.00218589 0.0555438 0)
(-0.00440288 0.0731776 0)
(-0.0045503 0.0782471 0)
(-0.00771152 0.0787681 0)
(-0.00923811 0.0800288 0)
(-0.0114674 0.0814395 0)
(-0.0134104 0.0830884 0)
(-0.015327 0.0849892 0)
(-0.017155 0.0871641 0)
(-0.0189142 0.0896291 0)
(-0.0205813 0.0923954 0)
(-0.0220837 0.0954823 0)
(-0.0234221 0.098889 0)
(-0.0245607 0.102641 0)
(-0.0254167 0.106734 0)
(-0.0259323 0.111167 0)
(-0.0260311 0.115924 0)
(-0.025609 0.120996 0)
(-0.02459 0.126354 0)
(-0.0229425 0.131937 0)
(-0.0205985 0.137652 0)
(-0.0170472 0.143706 0)
(0.00582831 0.125884 0)
(0.00278077 0.0608024 0)
(-0.00410056 0.076297 0)
(-0.00396137 0.0803532 0)
(-0.0073169 0.0808842 0)
(-0.00865562 0.0821197 0)
(-0.0108805 0.0834551 0)
(-0.0127303 0.0850527 0)
(-0.0145567 0.0868848 0)
(-0.0163057 0.0889787 0)
(-0.017965 0.0913235 0)
(-0.0194988 0.0939664 0)
(-0.0208944 0.0968948 0)
(-0.0221013 0.100083 0)
(-0.023059 0.103562 0)
(-0.0237159 0.107316 0)
(-0.0239982 0.111334 0)
(-0.0238212 0.115587 0)
(-0.0231028 0.120065 0)
(-0.0217177 0.124687 0)
(-0.0195742 0.12945 0)
(-0.0166208 0.134271 0)
(-0.0122597 0.139319 0)
(0.00652482 0.121199 0)
(0.00316419 0.0662825 0)
(-0.00379048 0.0795165 0)
(-0.003421 0.0824787 0)
(-0.00696428 0.0830668 0)
(-0.00814311 0.0842327 0)
(-0.0103744 0.0854902 0)
(-0.0121541 0.0870312 0)
(-0.0139359 0.0887755 0)
(-0.0156401 0.0907866 0)
(-0.0172562 0.0930287 0)
(-0.0187538 0.0955446 0)
(-0.0201169 0.0982767 0)
(-0.0212929 0.101277 0)
(-0.0222311 0.104483 0)
(-0.0228749 0.107881 0)
(-0.0231561 0.111482 0)
(-0.0229749 0.115202 0)
(-0.0222746 0.119053 0)
(-0.0209349 0.122947 0)
(-0.0188275 0.126849 0)
(-0.0158888 0.130667 0)
(-0.0115338 0.134523 0)
(0.00692686 0.115928 0)
(0.00336314 0.0716524 0)
(-0.00344539 0.082454 0)
(-0.00290179 0.0843748 0)
(-0.00650394 0.0849959 0)
(-0.00754801 0.0860572 0)
(-0.00972569 0.0873034 0)
(-0.0114195 0.0887469 0)
(-0.0131377 0.0904534 0)
(-0.0147808 0.0923717 0)
(-0.0163459 0.0945382 0)
(-0.0178166 0.0969139 0)
(-0.0191533 0.0995086 0)
(-0.0203117 0.102274 0)
(-0.0212974 0.105245 0)
(-0.021979 0.108337 0)
(-0.0223519 0.111542 0)
(-0.0223165 0.114803 0)
(-0.0218086 0.11807 0)
(-0.0207384 0.121303 0)
(-0.0189639 0.124376 0)
(-0.0164843 0.127213 0)
(-0.0127202 0.12995 0)
(0.00691297 0.110211 0)
(0.00328699 0.0767115 0)
(-0.00298926 0.0850126 0)
(-0.00239008 0.0859316 0)
(-0.00589727 0.086673 0)
(-0.00667874 0.0876015 0)
(-0.00875731 0.0887769 0)
(-0.010321 0.0901558 0)
(-0.0119037 0.0917979 0)
(-0.0134423 0.0936505 0)
(-0.0149036 0.0957434 0)
(-0.0162797 0.0980099 0)
(-0.0175674 0.100472 0)