/*--------------------------------*- C++ -*----------------------------------*\
| =========                 |                                                 |
| \\      /  F ield         | OpenFOAM: The Open Source CFD Toolbox           |
|  \\    /   O peration     | Version:  5.x                                   |
|   \\  /    A nd           | Web:      www.OpenFOAM.org                      |
|    \\/     M anipulation  |                                                 |
\*---------------------------------------------------------------------------*/
FoamFile
{
    version     2.0;
    format      ascii;
    class       volScalarField;
    location    "0.7";
    object      alpha.water;
}
// * * * * * * * * * * * * * * * * * * * * * * * * * * * * * * * * * * * * * //

dimensions      [0 0 0 0 0 0 0];

internalField   nonuniform List<scalar> 
2268
(
1
1
1
1
1
1
1
1
1
1
1
1
1
1
1
1
1
0.968234
0.870576
0.981502
1
0.999905
0.998669
1
1
1
1
1
1
1
1
1
1
1
1
1
1
1
1
0.999997
0.97955
0.915082
0.947981
0.999963
0.996044
0.99996
1
1
1
1
1
1
1
1
1
1
1
1
1
1
1
1
0.999997
0.999508
0.987093
0.946633
0.946554
0.967807
1
1
1
1
1
1
1
1
1
1
1
1
1
1
1
1
1
1
1
0.999996
0.995104
0.946633
0.967949
0.999663
1
1
1
1
1
1
1
1
1
1
1
1
1
1
1
1
1
1
1
0.999999
0.976751
1
1
1
1
1
1
1
1
1
1
1
1
1
1
1
1
1
1
1
1
1
1
1
1
1
1
1
1
1
1
0.999997
0.999996
1
1
1
1
1
1
1
1
1
1
1
1
1
1
1
0.999999
0.970313
0.930198
0.894501
0.863714
0.854158
0.862322
0.909594
0.987683
1
1
1
1
1
1
1
1
1
1
1
1
1
1
0.999992
0.845017
1
0.999487
0.999519
1
0.985286
0.824058
0.758084
0.945498
1
1
1
0.999338
0.990458
0.976398
0.970816
0.980253
0.994199
0.966939
0.899166
0.999991
0.999992
0.999999
1
1
0.993871
0.965098
0.989999
0.99999
0.949366
0.806807
0.796918
0.84801
0.874366
0.915397
0.968548
0.999878
1
0.994456
0.999984
0.999962
0.999678
0.999999
1
0.972494
0.97537
0.985897
0.643983
0.177824
0.11178
0.116593
0.142254
0.18143
0.261908
0.467494
0.8375
1
1
0.998644
0.956972
0.997665
0.999998
0.999999
0.975475
0.972956
0.776866
0.0320082
0.00446827
0.0034327
0.00536129
0.00595389
0.00585726
0.00522819
0.0150151
0.33975
1
1
0.603142
0.853969
0.999786
0.999983
0.999996
0.999981
0.944887
0.47641
0.00446185
0.00183948
0.0031219
0.00722127
0.00735528
0.00515196
0.00224367
0.00522819
0.131583
1
0.753348
0.459011
0.887234
0.999546
0.999952
0.999981
0.999952
0.90381
0.125668
0.00177254
0.00127615
0.00254906
0.00238874
0.00480422
0.00602294
0.00210597
0.00222749
0.0718944
0.916978
0.195385
0.687033
0.987045
0.998471
0.999835
0.999952
0.999835
0.743562
0.0215949
0.00101686
0.00109662
0.00110777
0.00120569
0.00223226
0.00234272
0.00210597
0.00210464
0.0272536
0.493255
0.800892
0.97457
0.97943
0.970062
0.88936
0.999835
0.994869
0.618273
0.0195238
0.000879342
0.000979792
0.00109662
0.00148201
0.00386623
0.00274896
0.00210597
0.00223051
0.0149087
0.335594
0.28351
0.272249
0.263155
0.277786
0.338274
0.453145
0.605846
0.762562
0.891135
0.972945
1
1
1
1
1
1
1
1
1
1
1
0.999999
0.999992
0.00327214
0.0206645
0.0395061
0.0593593
0.0745659
0.0853873
0.105165
0.16841
0.2823
0.439892
0.610376
0.75369
0.843581
0.899124
0.968636
0.994001
0.999384
0.99991
0.999953
0.99999
0.999989
0.999984
0.99998
-1.32149e-08
1.442e-07
2.50648e-08
4.12711e-08
1.20882e-07
2.10147e-05
-2.64483e-09
-4.16502e-09
1.74422e-08
3.77032e-08
0.0306118
0.101223
0.176557
0.238242
0.308281
0.433879
0.547227
0.586034
0.60704
0.703955
0.826293
0.905704
0.951469
-6.37332e-08
8.66433e-09
1.63596e-08
6.30669e-09
3.45118e-09
3.86512e-10
9.80028e-11
3.41538e-10
1.64319e-09
1.62263e-08
1.26538e-07
7.29353e-07
3.51805e-06
1.49604e-05
5.77245e-05
0.000208317
0.000727696
0.00257243
0.0443308
0.164206
0.478584
0.745291
0.55393
-4.78806e-10
2.45547e-08
4.49952e-08
4.11735e-09
3.42362e-10
8.94262e-11
9.17472e-11
4.81497e-10
1.13703e-09
1.84426e-09
2.15879e-07
5.0711e-07
1.26546e-06
5.99751e-06
2.18721e-05
0.000144244
0.000804876
0.00348226
0.0923783
0.362041
0.407597
0.137481
0.00409642
-2.86767e-15
7.21171e-08
8.11504e-08
6.47056e-09
9.90604e-11
7.43812e-11
6.4662e-11
1.65979e-09
3.06355e-08
3.35691e-08
1.21307e-07
5.22708e-06
1.05119e-05
9.40899e-06
3.14358e-06
1.84887e-05
4.32336e-05
0.000173484
0.00704223
0.137003
0.263244
0.227108
0.0444422
0
1.86475e-08
5.15181e-08
1.01698e-08
7.14611e-11
6.4662e-11
6.4662e-11
6.4662e-11
3.42926e-08
9.92203e-08
4.68064e-07
2.86036e-06
3.32102e-06
1.37355e-06
1.92706e-07
1.08743e-06
4.81788e-06
2.59548e-05
0.000158743
0.000974073
0.0343356
0.162562
0.187983
0
5.5463e-10
2.46247e-09
2.69123e-09
3.01282e-10
7.4601e-11
9.16172e-11
8.10599e-11
3.96384e-08
1.86801e-07
2.48103e-07
1.24706e-07
1.27869e-07
4.5099e-08
1.82054e-08
1.08589e-07
7.10739e-07
4.94671e-06
2.54619e-05
0.000146049
0.000974028
0.0298004
0.187075
1.15007e-14
8.16561e-11
3.54855e-11
1.23241e-10
7.3488e-11
8.66132e-11
1.4093e-10
2.32255e-10
2.09907e-08
6.0083e-08
4.17739e-08
1.01259e-07
1.95652e-07
3.92886e-08
2.3639e-09
1.63417e-08
1.27363e-07
6.65699e-07
4.38255e-06
3.389e-05
0.000247599
0.00156699
0.0739524
1.90404e-12
1.87552e-11
1.23297e-11
7.12604e-12
2.22252e-11
9.02843e-11
1.5069e-10
2.05919e-10
1.08762e-09
2.12713e-10
1.92765e-09
1.10006e-07
1.95696e-07
1.01327e-07
4.53851e-10
2.3639e-09
1.63844e-08
1.25973e-07
1.08945e-06
9.51184e-06
7.64436e-05
0.000521893
0.00364647
8.19653e-12
3.39371e-12
2.05055e-12
9.50406e-13
1.29815e-11
7.97454e-11
1.36031e-10
1.21457e-10
4.00957e-11
7.00301e-11
4.85584e-10
5.11887e-08
1.17879e-07
5.26466e-08
1.53232e-10
4.53851e-10
3.19023e-09
2.92421e-08
3.05361e-07
2.9296e-06
2.72125e-05
0.000177432
0.00131294
2.54773e-12
3.16419e-13
1.79815e-13
1.60871e-13
6.52149e-12
4.89457e-11
8.98152e-11
7.07328e-11
3.5452e-11
6.08464e-11
2.34613e-10
1.50724e-09
3.1629e-09
1.12427e-09
9.63894e-11
1.76895e-10
8.74407e-10
9.59754e-09
1.10877e-07
1.22275e-06
1.24017e-05
9.52164e-05
0.000606196
1.98485e-13
2.2691e-14
1.39343e-14
3.51687e-14
2.23829e-12
1.80243e-11
3.58827e-11
3.07793e-11
2.66328e-11
5.11164e-11
6.54143e-11
3.28644e-11
4.62561e-11
3.42717e-11
6.57186e-11
9.48783e-11
3.66631e-10
4.64884e-09
6.64853e-08
2.25714e-06
3.82372e-05
0.00011316
0.000451302
1.79853e-14
1.72071e-15
1.16173e-15
9.05332e-15
5.42151e-13
4.11693e-12
8.29573e-12
8.42708e-12
1.86778e-11
3.89762e-11
2.43291e-11
1.83017e-11
1.41124e-11
1.88224e-11
3.66134e-11
5.68082e-11
3.31191e-10
6.18185e-09
1.13699e-07
2.96854e-05
0.000180293
0.000208377
0.000371501
1.90847e-15
1.35154e-16
1.01325e-16
2.29259e-15
1.10347e-13
7.14425e-13
1.34663e-12
1.74813e-12
9.86268e-12
2.23577e-11
1.02161e-11
6.59689e-12
5.07378e-12
5.445e-12
1.69387e-11
2.40841e-11
2.44032e-10
5.61766e-09
1.31992e-07
5.51821e-05
0.000143979
9.90041e-05
0.000251355
2.03096e-16
1.08333e-17
9.62486e-18
5.0009e-16
2.02736e-14
1.1403e-13
2.04981e-13
3.44183e-13
3.04474e-12
7.29284e-12
3.60567e-12
2.41774e-12
1.48362e-12
1.24068e-12
9.38907e-12
1.26325e-11
1.15835e-10
3.10584e-09
2.54473e-06
2.50683e-05
1.40722e-05
2.55276e-05
0.000652949
2.13277e-17
8.80971e-19
1.09252e-18
8.76608e-17
3.19199e-15
1.70216e-14
3.21932e-14
6.53145e-14
5.07241e-13
1.23351e-12
9.81589e-13
9.38081e-13
4.69459e-13
2.26249e-13
4.47127e-12
2.59271e-11
5.33546e-11
2.28764e-08
9.50909e-07
5.05284e-07
1.42461e-06
6.56521e-05
0.000372314
2.21538e-18
7.16573e-20
1.47048e-19
1.22056e-17
4.13874e-16
2.26526e-15
5.07281e-15
1.30329e-14
6.52423e-14
1.60677e-13
2.14985e-13
2.78136e-13
1.43545e-13
3.98503e-14
1.16172e-12
1.90539e-11
1.33049e-10
4.96432e-09
6.35432e-09
7.96134e-08
2.86102e-07
5.91205e-05
0.000319898
2.2552e-19
5.11068e-21
1.89259e-20
1.40421e-18
4.5549e-17
2.68212e-16
8.09114e-16
3.0977e-15
1.14994e-14
2.63185e-14
4.07973e-14
5.47857e-14
3.26085e-14
6.65289e-15
1.72279e-13
4.60296e-12
6.04587e-11
2.39624e-10
8.54367e-10
1.2288e-08
4.97725e-08
2.5115e-05
0.000273369
2.10318e-20
1.39601e-22
1.71218e-21
1.43105e-19
4.57143e-18
2.94458e-17
1.34809e-16
8.21631e-16
2.7899e-15
5.37233e-15
7.41225e-15
8.35198e-15
5.52083e-15
1.57712e-15
1.8102e-14
4.94113e-13
9.35142e-12
4.40773e-11
1.49821e-10
1.72796e-09
7.31259e-09
1.23596e-06
8.64631e-06
1.07723e-21
-3.08632e-22
2.57959e-23
1.3705e-20
4.41237e-19
3.12027e-18
2.29252e-17
2.02004e-16
6.97559e-16
1.17328e-15
1.42025e-15
1.36105e-15
9.01999e-16
5.10645e-16
1.82513e-15
4.74474e-14
9.9781e-13
1.11365e-11
2.80348e-11
2.16753e-10
8.63874e-10
5.64703e-09
4.30872e-07
0
-4.9656e-22
-3.26402e-23
1.25365e-21
4.16467e-20
3.22878e-19
3.62918e-18
3.94631e-17
1.46508e-16
2.44046e-16
2.86228e-16
2.63914e-16
1.70092e-16
1.389e-16
1.89955e-16
4.70094e-15
9.79407e-14
1.56703e-12
9.25585e-12
2.90218e-11
1.00071e-10
9.09754e-10
5.46634e-08
-7.60452e-22
-3.0932e-22
-1.34473e-22
9.64909e-23
3.84288e-21
3.22796e-20
4.87171e-19
5.76619e-18
2.36364e-17
4.3656e-17
5.41898e-17
5.22952e-17
3.48544e-17
2.51875e-17
1.74486e-17
4.44037e-16
9.18663e-15
1.4155e-13
1.69926e-12
3.84813e-12
1.01249e-11
1.06386e-10
4.62067e-09
-6.65381e-22
-1.50496e-22
-1.16185e-22
2.06766e-24
3.46766e-22
3.07973e-21
5.40868e-20
6.59585e-19
2.96325e-18
6.25918e-18
8.48016e-18
8.85803e-18
6.48254e-18
3.44641e-18
7.77069e-19
3.79223e-17
8.10413e-16
1.19256e-14
1.45218e-13
6.10841e-13
1.56984e-12
1.20539e-11
3.39082e-10
-3.97685e-22
-6.34948e-23
-7.01888e-23
0
3.00123e-23
2.80567e-22
5.23423e-21
6.52174e-20
3.10587e-19
7.1887e-19
1.04448e-18
1.17508e-18
9.53218e-19
4.35183e-19
0
2.60556e-18
6.64732e-17
9.53027e-16
1.01959e-14
7.00057e-14
1.34629e-13
1.42109e-12
3.48881e-11
-2.04315e-22
-2.41051e-23
-3.42567e-23
-2.8922e-24
2.22108e-24
2.47028e-23
4.7343e-22
6.00371e-21
2.93774e-20
7.07524e-20
1.06858e-19
1.25656e-19
1.09492e-19
5.15584e-20
-3.96456e-19
7.07421e-20
5.13713e-18
7.12284e-17
7.24729e-16
5.04275e-15
2.01569e-14
1.22531e-13
2.2597e-12
-9.50274e-23
-8.41136e-24
-1.42528e-23
-2.30989e-24
7.01953e-26
2.1303e-24
4.13942e-23
5.29954e-22
2.62693e-21
6.43845e-21
9.92201e-21
1.18984e-20
1.07063e-20
5.38097e-21
-2.03589e-19
-2.11165e-37
3.83935e-19
5.00018e-18
4.94379e-17
3.30866e-16
2.04788e-15
1.03754e-14
2.75293e-13
-4.06883e-23
-2.74412e-24
-5.19966e-24
-1.16103e-24
-3.86385e-42
1.7844e-25
3.51423e-24
4.5182e-23
2.26003e-22
5.61456e-22
8.76964e-22
1.06264e-21
9.67544e-22
4.97945e-22
-6.26639e-20
0
2.69951e-20
3.32637e-19
3.21368e-18
2.4988e-17
2.23673e-16
1.42943e-15
2.58788e-14
-1.6149e-23
-8.50339e-25
-1.69324e-24
-4.64556e-25
-2.4681e-27
1.316e-26
2.89443e-25
3.72601e-24
1.87648e-23
4.71426e-23
7.43313e-23
9.06434e-23
8.30038e-23
4.27069e-23
-1.48851e-20
-4.23268e-22
1.40901e-21
2.11427e-20
2.03282e-19
2.44516e-18
4.49872e-17
4.41673e-16
3.37286e-15
-5.96289e-24
-2.54014e-25
-4.98467e-25
-1.58768e-25
-5.35352e-27
5.64164e-28
2.32516e-26
2.97506e-25
1.50386e-24
3.80564e-24
6.03106e-24
7.36687e-24
6.76003e-24
3.45812e-24
-2.95313e-21
-3.35291e-22
2.46208e-23
1.30522e-21
1.3046e-20
3.06221e-19
1.03228e-17
1.31023e-16
8.65017e-16
-2.05327e-24
-7.40533e-26
-1.33967e-25
-4.79089e-26
-2.5632e-27
-9.83313e-47
1.83767e-27
2.30383e-26
1.16498e-25
2.95695e-25
4.68992e-25
5.70944e-25
5.22905e-25
2.65015e-25
-5.08603e-22
-8.93047e-23
2.5777e-41
8.01018e-23
8.97244e-22
4.00368e-20
1.98816e-18
3.14799e-17
2.50823e-16
-6.60475e-25
-2.12084e-26
-3.31389e-26
-1.30152e-26
-8.91766e-28
0
1.40224e-28
1.73401e-27
8.74556e-27
2.21779e-26
3.50668e-26
4.23503e-26
3.85661e-26
1.92795e-26
-7.78485e-23
-1.73085e-23
-3.38323e-41
4.85701e-24
6.5894e-23
4.53123e-21
2.91641e-19
6.0557e-18
6.25762e-17
-1.98713e-25
-5.95612e-27
-7.59963e-27
-3.22529e-27
-2.59605e-28
-2.78047e-30
9.78903e-30
1.27266e-28
6.38104e-28
1.61075e-27
2.52965e-27
3.01809e-27
2.72351e-27
1.33725e-27
-1.07645e-23
-2.77422e-24
0
2.73874e-25
4.67738e-24
4.00983e-22
3.24393e-20
9.01155e-19
1.14057e-17
-5.59707e-26
-1.62686e-27
-1.62661e-27
-7.36246e-28
-6.64535e-29
-1.83867e-30
6.1081e-31
9.15954e-30
4.53934e-29
1.1364e-28
1.76619e-28
2.07346e-28
1.84793e-28
8.87949e-29
-1.36142e-24
-3.86549e-25
-6.74508e-27
1.23698e-26
2.92542e-25
2.68804e-23
2.7803e-21
1.02737e-19
1.40283e-18
-1.47709e-26
-4.27942e-28
-3.2706e-28
-1.56051e-28
-1.53296e-29
-6.00016e-31
2.12042e-32
6.50408e-31
3.15912e-30
7.8134e-30
1.19731e-29
1.37776e-29
1.20826e-29
5.66478e-30
-1.59085e-25
-4.8072e-26
-2.44347e-27
4.44811e-28
1.63059e-26
1.45265e-24
1.88106e-22
9.35325e-21
1.26285e-19
-3.6551e-27
-1.07444e-28
-6.21672e-29
-3.09252e-29
-3.23537e-30
-1.52015e-31
3.00083e-51
4.56995e-32
2.15803e-31
5.25333e-31
7.90717e-31
8.88601e-31
7.63617e-31
3.4847e-31
-1.73267e-26
-5.42551e-27
-3.96155e-28
5.22594e-30
8.84165e-28
7.42759e-26
1.13281e-23
7.62227e-22
1.0451e-20
-8.48836e-28
-2.55623e-29
-1.12384e-29
-5.76656e-30
-6.31676e-31
-3.29452e-32
2.3444e-51
3.14598e-33
1.45116e-32
3.46574e-32
5.10545e-32
5.58514e-32
4.68163e-32
2.0756e-32
-1.77329e-27
-5.62645e-28
-4.88181e-29
-1.02385e-35
5.02829e-29
4.21408e-27
7.51122e-25
6.36497e-23
9.07249e-22
-1.85233e-28
-5.73481e-30
-1.94295e-30
-1.01782e-30
-1.15134e-31
-6.35924e-33
0
2.10067e-34
9.63242e-34
2.2509e-33
3.23491e-33
3.43613e-33
2.79647e-33
1.2029e-33
-1.71869e-28
-5.41862e-29
-5.08884e-30
-3.5434e-38
3.04246e-30
2.7995e-28
6.05012e-26
5.53354e-24
7.56226e-23
-3.80514e-29
-1.21046e-30
-3.22768e-31
-1.71002e-31
-1.97473e-32
-1.11826e-33
-5.48647e-36
1.36413e-35
6.33001e-35
1.44369e-34
2.01899e-34
2.07874e-34
1.63534e-34
6.81946e-35
-1.5893e-29
-4.89399e-30
-4.69296e-31
1.90199e-48
1.89846e-31
2.06136e-29
5.25169e-27
4.43396e-25
5.14985e-24
-7.37709e-30
-2.39834e-31
-5.17058e-32
-2.7489e-32
-3.2098e-33
-1.81866e-34
-1.63971e-36
8.89972e-37
4.13038e-36
9.18091e-36
1.24836e-35
1.24438e-35
9.41606e-36
3.80167e-36
-1.41192e-30
-4.18324e-31
-3.9284e-32
5.95465e-50
1.15558e-32
1.47837e-30
3.99761e-28
2.82071e-26
2.56314e-25
-1.35471e-30
-4.47446e-32
-8.0086e-33
-4.24802e-33
-4.97695e-34
-2.76697e-35
-3.02561e-37
5.81969e-38
2.58834e-37
5.09468e-37
5.73452e-37
5.7543e-37
4.86819e-37
2.10164e-37
-1.21269e-31
-3.41209e-32
-3.03654e-33
2.32603e-52
6.58445e-34
9.20632e-32
2.3384e-29
1.34334e-27
9.45342e-27
-2.36645e-31
-7.73628e-33
-1.19773e-33
-6.33465e-34
-7.37964e-35
-3.94079e-36
-4.30855e-38
1.8944e-39
1.62778e-38
7.24144e-38
1.68909e-37
1.46597e-37
5.27657e-38
5.86519e-39
-1.01364e-32
-2.66731e-33
-2.16621e-34
-3.21697e-37
1.81981e-35
2.61899e-33
5.96889e-31
2.85367e-29
1.57195e-28
0.99997
1
1
1
0.999951
0.99998
0.99998
0.999958
0.925398
0.903928
0.900057
0.840628
0.0343308
0.00346485
0.0283889
0.0461353
0.00346484
0.00325083
0.00192783
0.000822589
0.0110418
0.00476767
0.00167301
0.000635311
0.192066
0.12176
0.00243341
0.000822589
0.193696
0.195325
0.195603
0.0821537
0.195325
0.196708
0.202105
0.205581
0.108406
0.202105
0.205581
0.207707
0.00570109
0.0170681
0.0404445
0.187308
0.00247735
0.0105457
0.0287554
0.256845
0.00231037
0.00357988
0.00422011
0.0301759
0.00191238
0.00530335
0.00348574
0.000539863
0.00457193
0.00593483
0.00497807
0.000150023
0.00593483
0.00606109
0.00461579
5.42726e-06
0.00562523
0.00605479
0.00564465
6.17953e-06
0.00193307
0.00512498
0.00594007
0.00571446
0.000123472
0.000380537
0.00147364
0.00304351
6.51251e-06
1.04094e-05
1.50052e-05
2.64435e-05
5.21831e-07
1.14844e-06
1.41003e-06
1.34621e-06
7.43687e-08
7.71707e-08
1.07922e-07
9.6585e-08
6.0119e-09
6.99726e-09
6.61983e-09
5.61432e-09
4.33571e-10
4.50728e-10
4.34326e-10
2.84698e-10
4.35514e-11
4.31956e-11
4.06414e-11
3.46579e-11
3.9525e-12
4.02779e-12
5.72365e-12
1.00465e-11
8.30236e-13
1.12549e-12
1.62335e-12
3.03492e-12
7.55779e-14
1.09587e-13
1.82807e-13
4.6904e-13
7.94735e-15
1.17282e-14
2.52714e-14
1.03873e-13
1.96528e-15
3.08572e-15
7.88608e-15
4.30966e-14
6.19524e-16
1.07441e-15
2.63453e-15
1.2865e-14
1.7362e-16
3.50275e-16
7.50416e-16
1.85733e-15
3.46504e-17
7.90455e-17
1.96732e-16
2.78143e-16
4.2897e-18
1.01229e-17
3.7049e-17
5.03962e-17
3.47771e-19
7.7014e-19
4.23781e-18
6.87952e-18
2.51949e-20
5.06135e-20
3.59275e-19
6.75535e-19
2.02098e-21
4.18033e-21
3.43543e-20
6.04654e-20
1.60858e-22
3.99819e-22
3.67096e-21
5.00783e-21
1.03577e-23
3.23555e-23
2.81853e-22
2.821e-22
4.64539e-25
1.6768e-24
1.19155e-23
9.1037e-24
1.41136e-26
5.47293e-26
3.23089e-25
1.70423e-25
5.24297e-28
9.97129e-28
4.08445e-27
1.17619e-26
0.999958
0.997743
0.891775
0.524692
0.385952
0.722397
0.985319
0.785264
0.0128425
0.000844346
0.000853427
0.00102649
0.00277213
0.0113145
0.00534299
0.00256036
0.00222382
0.0047315
0.292866
0.990524
0.792207
0.0961268
0.102992
0.110375
0.252297
0.857693
0.929313
0.0897032
0.000852699
0.000844071
0.000850442
0.0116684
0.17007
0.0670105
0.00924855
0.00206457
0.00144114
0.342452
0.369565
0.00983232
0.00751923
0.127651
0.321916
0.387511
0.599722
0.929313
0.665504
0.0304531
0.000853427
0.00395168
0.311949
0.741857
0.492159
0.0532358
0.00107014
0.000902749
0.389622
0.0203833
0.00917781
0.00712273
0.000553217
0.000550032
0.0637866
0.253461
0.929313
0.925598
0.670237
0.382751
0.381132
0.782543
0.837882
0.803235
0.168887
0.000619616
0.000673458
0.406375
0.000623835
0.000605396
0.000553217
0.000549626
0.000547599
0.000555919
0.010828
0.452933
0.908675
0.892689
0.312923
0.788013
0.837882
0.837882
0.837882
0.235031
0.000558315
0.000581916
0.42982
0.000606529
0.000595054
0.000564806
0.000547892
0.000547892
0.000547892
0.00119548
0.310062
0.892873
0.652103
0.313568
0.834486
0.837164
0.837882
0.808775
0.155842
0.000550512
0.000554468
0.472773
0.000635276
0.000606461
0.000611544
0.000940066
0.000547892
0.00115519
0.013557
0.331239
0.673437
0.489587
0.774375
0.808652
0.834845
0.834354
0.670296
0.0679874
0.000550513
0.000550512
0.546211
0.00108259
0.000687503
0.000821984
0.00166893
0.0012969
0.00850191
0.202233
0.502953
0.513631
0.366566
0.260666
0.255243
0.810636
0.819839
0.483807
0.0920918
0.000550513
0.0039427
0.667198
0.11473
0.00113582
0.00166496
0.00255515
0.00537217
0.0553532
0.311328
0.355
0.19991
0.0872883
0.00231515
0.00803943
0.32404
0.765673
0.402207
0.369919
0.34106
0.386973
0.722025
0.207898
0.0748995
0.00292968
0.00306456
0.00291658
0.0315576
0.056231
0.0339631
0.0456556
0.0711139
0.000698941
0.0018405
0.00662504
0.32607
0.801391
0.819407
0.847201
0.841053
0.759336
0.394327
0.429106
0.0978786
0.0029145
0.00291659
0.00624007
0.00543181
0.00841112
0.244243
0.148699
0.000172043
9.41337e-05
0.000358099
0.0134887
0.419435
0.702114
0.863831
0.967837
0.974053
0.511933
0.537047
0.541876
0.44272
0.308632
0.254001
0.230353
0.338608
0.336571
0.102873
3.87134e-05
8.46139e-06
2.18088e-05
8.96301e-05
0.000410525
0.00192359
0.199079
0.635239
1
0.257956
0.508335
0.560261
0.562858
0.562858
0.562858
0.56223
0.494212
0.0651837
4.19806e-05
8.53286e-06
2.30962e-06
3.37808e-06
9.26546e-06
5.48352e-05
0.000386261
0.0019506
0.058825
0.76935
5.42718e-06
6.11817e-06
0.178473
0.411747
0.483642
0.414667
0.117178
0.000167214
0.00022078
9.42226e-06
2.27789e-06
2.26219e-06
2.5402e-06
3.4763e-06
9.49419e-06
6.20283e-05
0.000388325
0.0123125
0.0960352
5.40462e-06
5.42726e-06
5.75048e-06
7.07219e-06
1.14909e-05
1.68835e-05
0.00498626
3.11949e-05
3.79362e-05
3.00127e-06
1.43038e-06
1.98184e-06
2.23881e-06
2.86765e-06
4.09352e-06
9.22412e-06
0.00075027
0.00969362
0.0326701
5.42726e-06
5.41759e-06
5.85535e-06
6.01206e-06
9.02987e-06
1.4695e-05
1.57353e-05
1.03354e-05
7.27652e-06
1.23274e-06
1.14825e-06
1.96274e-06
9.45374e-06
9.95171e-06
4.71156e-06
7.60349e-07
0.00470041
0.00858842
0.12123
5.42726e-06
5.88362e-06
5.1532e-06
7.00951e-06
6.3727e-05
6.35689e-05
6.42343e-05
7.20634e-06
2.72515e-06
6.75207e-07
1.06118e-06
6.27144e-06
1.48069e-05
1.48039e-05
6.43636e-06
4.1779e-06
0.000625793
0.00167638
0.0294129
0.000697003
7.78545e-05
2.45098e-06
3.79394e-07
8.10939e-08
1.89013e-05
6.19203e-05
6.31943e-06
3.69021e-06
3.22233e-07
1.58968e-07
1.20099e-05
1.45975e-05
1.48039e-05
8.92326e-06
3.91586e-06
4.23661e-06
1.14653e-05
-3.71451e-13
0.00228774
0.00022866
9.76703e-07
4.00235e-08
5.50247e-09
3.53481e-09
5.07199e-09
2.72282e-06
2.18463e-06
2.05943e-07
9.99235e-08
1.6157e-06
1.23957e-05
1.24579e-05
1.66266e-06
2.15086e-06
4.22805e-06
3.02893e-05
0
0.000216505
0.000115093
2.46639e-07
3.19079e-08
3.92681e-09
1.19033e-09
4.81771e-09
5.18921e-09
2.94767e-08
5.15431e-08
3.97522e-08
2.89507e-08
3.14201e-08
3.57922e-08
3.97074e-08
5.82599e-06
5.90262e-06
9.59045e-05
0
1.8917e-06
1.33126e-07
1.6989e-08
2.96125e-09
1.11401e-09
9.67836e-10
3.28251e-09
2.44266e-08
5.95626e-08
5.87813e-08
4.74913e-08
2.48044e-08
2.8951e-08
3.37682e-08
3.81393e-08
0.000101661
6.61155e-05
8.03092e-05
0
1.84332e-07
8.50809e-08
1.32788e-09
7.88658e-10
9.05124e-10
9.36429e-10
5.50669e-09
3.97147e-08
5.87813e-08
5.31477e-08
1.64894e-08
2.07856e-08
5.76692e-08
3.81392e-08
4.05905e-08
0.000139581
0.000129824
9.27193e-05
0.0030774
7.2474e-09
7.28204e-09
8.65825e-10
7.70388e-10
8.94967e-10
9.56231e-10
9.56372e-10
9.70062e-10
2.75451e-09
2.26301e-09
2.26883e-09
5.33002e-08
4.65331e-07
1.79877e-07
4.47757e-08
0.000135096
0.000126092
0.000103714
0.278145
2.93378e-10
4.52558e-10
6.59392e-10
8.01585e-10
9.00517e-10
9.49745e-10
1.2539e-09
3.30292e-09
3.51035e-09
2.27848e-09
2.26644e-09
2.91285e-07
4.82916e-07
4.09924e-07
1.41748e-07
0.000102562
0.000113849
0.000159115
0.593514
9.45669e-11
3.08434e-10
5.52954e-10
7.6939e-10
7.13677e-10
5.32646e-10
3.09903e-09
1.08498e-08
1.10779e-08
5.22946e-09
2.27848e-09
1.49851e-07
4.89375e-07
5.16162e-07
3.11363e-07
0.000124781
0.00151973
0.000352153
0.5279
5.68068e-11
2.18987e-10
4.18495e-10
5.72767e-10
4.00164e-10
4.0312e-10
4.47014e-09
1.07758e-08
1.10851e-08
7.84231e-09
2.4444e-09
2.63871e-09
3.41489e-07
4.68756e-07
4.04911e-07
0.000793843
0.00717923
0.00371775
0.0734695
2.55494e-11
1.0263e-10
2.53449e-10
2.61058e-10
2.89702e-10
6.88286e-10
1.28245e-09
3.83464e-09
6.81576e-09
3.44954e-09
2.59985e-09
2.64438e-09
2.01761e-07
6.61821e-09
8.72135e-08
0.00181508
0.00717923
0.00385782
-7.54841e-20
7.82434e-12
4.31272e-11
1.14455e-10
1.32874e-10
4.64775e-10
9.4915e-10
9.43866e-10
9.58625e-10
1.00199e-09
1.02692e-09
2.66083e-09
1.88619e-08
2.48728e-09
2.47067e-09
1.89243e-06
0.00213099
0.00717923
0.00014026
0
3.92885e-12
2.8399e-11
5.8816e-11
1.1106e-10
5.05858e-10
9.1207e-10
9.24137e-10
1.00572e-09
1.03116e-09
1.03617e-09
2.03475e-09
2.89261e-09
2.21564e-09
2.21514e-09
2.47067e-09
0.00127126
0.00185193
1.17474e-06
1.71192e-21
2.57277e-12
1.60619e-11
4.02733e-11
1.90923e-10
3.37181e-10
2.78401e-09
1.12539e-09
1.58498e-09
2.22862e-09
1.21824e-09
2.12036e-09
2.24131e-09
2.21458e-09
2.22138e-09
2.22138e-09
0.000303768
7.18188e-07
6.50897e-08
0.0141019
1.07135e-12
6.54311e-12
6.46614e-11
2.71579e-10
7.90123e-11
3.48796e-09
7.97686e-08
1.83553e-07
1.30709e-08
5.75285e-08
6.34714e-08
9.2625e-08
2.23617e-09
2.21865e-09
2.24337e-09
2.91855e-06
4.56094e-09
4.0899e-09
0.0275329
2.09167e-13
2.50233e-12
3.25171e-11
2.09475e-10
7.91474e-11
5.6003e-12
3.885e-07
8.52213e-07
5.50936e-08
3.01292e-07
3.21135e-06
4.23436e-06
3.12444e-06
9.29424e-07
4.53687e-08
4.56094e-09
4.08962e-09
4.0899e-09
0.00345047
2.87671e-14
8.67019e-13
1.76617e-11
9.52715e-11
5.29412e-11
4.83305e-12
3.8527e-07
8.54292e-07
5.19196e-07
4.87701e-07
5.17481e-06
5.39323e-06
5.39282e-06
2.64534e-06
1.68987e-08
5.45607e-09
4.56094e-09
5.47147e-09
-6.43222e-29
4.55174e-15
1.87152e-13
3.918e-12
2.17643e-11
1.93639e-11
4.7859e-12
2.90958e-13
7.04932e-07
8.22622e-07
6.12251e-07
5.77638e-07
2.65555e-06
3.29544e-06
1.87807e-06
1.89649e-07
6.90929e-09
4.80147e-09
4.28445e-09
-1.70798e-19
6.25551e-16
1.80799e-14
2.5475e-13
1.13818e-12
4.77081e-12
3.72944e-12
1.9928e-13
4.57422e-15
5.32716e-07
7.51328e-07
7.48968e-07
5.09799e-07
5.0002e-07
8.32541e-07
5.4052e-07
2.1989e-08
1.19526e-08
2.81173e-09
-1.21309e-15
5.91983e-17
1.07719e-15
9.37848e-15
6.4576e-14
7.25001e-13
6.76924e-13
2.1689e-13
1.35403e-16
3.364e-18
1.4315e-07
1.45686e-07
2.56059e-07
4.30393e-07
2.29521e-07
1.01428e-07
3.95164e-08
4.6753e-08
1.6315e-09
-1.93199e-11
5.38125e-18
1.10351e-16
1.34755e-15
7.22309e-15
2.97967e-14
2.40877e-14
7.63385e-15
1.79516e-17
0
-4.08078e-17
-5.89454e-17
-2.98994e-17
-1.22494e-17
-8.39944e-18
-5.74207e-18
4.05759e-08
4.72689e-08
5.02603e-10
6.6203e-05
7.59363e-19
1.79149e-17
4.33066e-16
9.99681e-16
8.57919e-16
5.06567e-16
1.36874e-16
3.57063e-18
-3.77429e-17
-9.19815e-17
-1.11682e-16
-1.02046e-16
-7.73954e-17
-5.39689e-17
-3.17176e-17
3.88657e-08
4.2927e-08
2.52177e-11
0.000564007
1.16996e-19
2.46685e-18
8.44017e-17
6.63529e-17
2.3439e-17
4.15561e-18
-9.56943e-19
-4.90723e-18
-7.15972e-17
-1.23738e-16
-1.22459e-16
-9.698e-17
-6.38706e-17
-3.70288e-17
-1.77933e-17
5.61143e-09
2.32776e-11
7.85402e-12
0.000585643
1.22018e-20
1.91524e-19
4.1676e-18
2.18366e-18
3.61726e-19
-5.06135e-18
-7.32918e-18
-1.07449e-17
-7.71528e-17
-9.59874e-17
-7.36386e-17
-4.80486e-17
-2.57981e-17
-1.21514e-17
-4.675e-18
-4.52554e-19
-2.2416e-20
1.5708e-11
0
6.42416e-22
6.81944e-21
5.83469e-20
3.92817e-20
9.33602e-21
-4.1386e-18
-6.07532e-18
-1.06157e-17
-3.54521e-17
-2.90901e-17
-1.46629e-17
-6.2905e-18
-2.26549e-18
-7.45023e-19
-2.01919e-19
-2.71768e-20
-1.85128e-21
1.406e-10
-1.89735e-26
1.05864e-23
7.40619e-23
2.48409e-22
4.5522e-22
7.70201e-23
-1.33746e-18
-8.54307e-19
-1.81423e-18
-7.56715e-18
-3.77056e-18
-1.03608e-18
-2.24216e-19
-3.89583e-20
-5.85954e-21
-7.27628e-22
-7.53187e-23
-9.47877e-24
-8.28392e-25
-1.7017e-26
)
;

boundaryField
{
    leftWall
    {
        type            zeroGradient;
    }
    rightWall
    {
        type            zeroGradient;
    }
    lowerWall
    {
        type            zeroGradient;
    }
    atmosphere
    {
        type            inletOutlet;
        inletValue      uniform 0;
        value           nonuniform List<scalar> 
46
(
-2.36645e-31
-7.73628e-33
-1.19773e-33
-6.33465e-34
-7.37964e-35
-3.94079e-36
-4.30855e-38
1.8944e-39
1.62778e-38
7.24144e-38
1.68909e-37
1.46597e-37
5.27657e-38
5.86519e-39
-1.01364e-32
-2.66731e-33
-2.16621e-34
-3.21697e-37
1.81981e-35
2.61899e-33
5.96889e-31
2.85367e-29
1.57195e-28
5.24297e-28
9.97129e-28
4.08445e-27
1.17619e-26
1.05864e-23
7.40619e-23
0
0
0
0
0
0
0
0
0
0
0
0
0
0
0
0
0
)
;
    }
    defaultFaces
    {
        type            empty;
    }
}


// ************************************************************************* //
