/*--------------------------------*- C++ -*----------------------------------*\
| =========                 |                                                 |
| \\      /  F ield         | OpenFOAM: The Open Source CFD Toolbox           |
|  \\    /   O peration     | Version:  5.x                                   |
|   \\  /    A nd           | Web:      www.OpenFOAM.org                      |
|    \\/     M anipulation  |                                                 |
\*---------------------------------------------------------------------------*/
FoamFile
{
    version     2.0;
    format      ascii;
    class       surfaceScalarField;
    location    "0.7";
    object      alphaPhi10;
}
// * * * * * * * * * * * * * * * * * * * * * * * * * * * * * * * * * * * * * //

dimensions      [0 3 -1 0 0 0 0];

internalField   nonuniform List<scalar> 
4432
(
-3.49989e-06
3.49989e-06
-7.10463e-06
3.60474e-06
-9.43928e-06
2.33465e-06
-1.09908e-05
1.55151e-06
-1.16891e-05
6.98293e-07
-1.08783e-05
-8.10791e-07
-8.38652e-06
-2.49178e-06
-5.25469e-06
-3.13183e-06
-2.80372e-06
-2.45096e-06
-1.54136e-06
-1.26236e-06
-1.39763e-06
-1.43729e-07
-2.13995e-06
7.42313e-07
-3.47757e-06
1.33762e-06
-5.26675e-06
1.78918e-06
-7.54799e-06
2.28124e-06
-1.03271e-05
2.77907e-06
-1.27312e-05
2.40416e-06
-1.3096e-05
1.3957e-06
-1.62151e-05
3.8169e-06
-2.42662e-05
5.9224e-06
-2.45531e-05
2.86909e-07
-1.47714e-05
-9.78714e-06
-1.47765e-05
-4.4917e-06
7.99159e-06
-7.63116e-06
6.74419e-06
-9.39346e-06
4.09695e-06
-1.09023e-05
3.06038e-06
-1.18916e-05
1.68755e-06
-1.13488e-05
-1.35356e-06
-8.87479e-06
-4.9658e-06
-5.54063e-06
-6.466e-06
-2.86939e-06
-5.1222e-06
-1.48712e-06
-2.64463e-06
-1.06203e-06
-5.68828e-07
-1.19627e-06
8.76551e-07
-1.70451e-06
1.84587e-06
-2.49327e-06
2.57794e-06
-3.66627e-06
3.45424e-06
-5.5977e-06
4.71051e-06
-8.88409e-06
5.69079e-06
-1.28319e-05
6.25132e-06
-1.69544e-05
8.73636e-06
-2.08132e-05
8.33447e-06
-1.83928e-05
-2.12797e-06
-1.06889e-05
-1.72977e-05
-2.54774e-05
-3.63175e-06
1.16233e-05
-6.16532e-06
9.27776e-06
-8.04706e-06
5.97869e-06
-1.00605e-05
5.07386e-06
-1.15556e-05
3.18258e-06
-1.13009e-05
-1.60827e-06
-9.10221e-06
-7.16445e-06
-5.9977e-06
-9.57051e-06
-3.3945e-06
-7.72541e-06
-2.00279e-06
-4.03634e-06
-1.65139e-06
-9.20231e-07
-1.87926e-06
1.10441e-06
-2.30037e-06
2.26698e-06
-2.62245e-06
2.90003e-06
-2.6553e-06
3.48708e-06
-2.58686e-06
4.64207e-06
-3.28751e-06
6.39174e-06
-5.49793e-06
8.50463e-06
-7.48571e-06
1.11699e-05
-8.68157e-06
9.46066e-06
-7.85862e-06
-3.03908e-06
-4.29785e-06
-2.06906e-05
-2.97752e-05
-2.21237e-06
1.38357e-05
-4.00305e-06
1.10684e-05
-5.72315e-06
7.6988e-06
-7.4695e-06
6.82021e-06
-8.52525e-06
4.23834e-06
-8.174e-06
-1.95953e-06
-6.76067e-06
-8.57778e-06
-5.07021e-06
-1.1261e-05
-3.63941e-06
-9.1562e-06
-2.72715e-06
-4.9486e-06
-2.48782e-06
-1.15956e-06
-2.77544e-06
1.39203e-06
-3.25624e-06
2.74778e-06
-3.57855e-06
3.22235e-06
-3.45569e-06
3.36421e-06
-2.77277e-06
3.95916e-06
-1.55255e-06
5.17151e-06
-2.38059e-07
7.19016e-06
1.38362e-06
9.54831e-06
2.76665e-06
8.35877e-06
2.2494e-06
-2.60316e-06
1.78993e-06
-2.06793e-05
-2.79861e-05
-3.97256e-07
1.4233e-05
-7.43204e-07
1.14144e-05
-1.64275e-06
8.59834e-06
-2.20586e-06
7.38331e-06
-1.77097e-06
3.80345e-06
-8.26651e-07
-2.90385e-06
-7.88783e-07
-8.61565e-06
-1.79931e-06
-1.02504e-05
-2.81283e-06
-8.14269e-06
-3.29868e-06
-4.46275e-06
-3.48126e-06
-9.76978e-07
-3.79784e-06
1.7086e-06
-4.20224e-06
3.15218e-06
-4.41003e-06
3.43014e-06
-4.18698e-06
3.14116e-06
-3.4992e-06
3.27139e-06
-2.07972e-06
3.75204e-06
2.74189e-07
4.83625e-06
4.14897e-06
5.67353e-06
7.88562e-06
4.62212e-06
7.91831e-06
-2.92038e-06
4.92775e-06
-1.76888e-05
-2.30584e-05
1.92289e-06
1.23101e-05
3.39314e-06
9.94413e-06
4.37383e-06
7.61765e-06
5.83481e-06
5.92233e-06
7.68633e-06
1.95194e-06
8.29618e-06
-3.5137e-06
6.41561e-06
-6.73509e-06
2.85279e-06
-6.68763e-06
-9.60107e-07
-4.32979e-06
-3.39747e-06
-2.02539e-06
-4.43671e-06
6.22627e-08
-4.92519e-06
2.19709e-06
-5.22701e-06
3.45399e-06
-5.23828e-06
3.44141e-06
-4.75935e-06
2.66224e-06
-3.89402e-06
2.40605e-06
-2.6358e-06
2.49381e-06
-6.45735e-07
2.84619e-06
2.66852e-06
2.35928e-06
6.68488e-06
6.05758e-07
7.99758e-06
-4.23309e-06
5.46149e-06
-1.51527e-05
-1.75969e-05
3.59931e-06
8.71078e-06
7.74156e-06
5.80188e-06
1.19453e-05
3.41392e-06
1.59241e-05
1.94352e-06
1.81466e-05
-2.7055e-07
1.66152e-05
-1.98257e-06
1.18561e-05
-1.97626e-06
6.09967e-06
-9.31279e-07
7.99614e-07
9.70245e-07
-3.04264e-06
1.81687e-06
-5.04046e-06
2.06008e-06
-5.99538e-06
3.152e-06
-6.34951e-06
3.80813e-06
-6.16003e-06
3.25193e-06
-5.3041e-06
1.80631e-06
-4.13584e-06
1.23779e-06
-2.8002e-06
1.15817e-06
-1.14509e-06
1.19108e-06
9.89943e-07
2.24245e-07
3.87379e-06
-2.27809e-06
5.38498e-06
-5.74428e-06
4.474e-06
-1.42417e-05
-1.31229e-05
6.68865e-06
1.35362e-06
1.31269e-05
-1.19964e-06
1.70813e-05
-1.08193e-06
1.87199e-05
-2.6012e-07
1.80099e-05
3.48512e-07
1.44957e-05
1.47585e-06
9.79603e-06
2.90859e-06
4.67957e-06
4.19582e-06
4.34667e-07
5.21511e-06
-2.65044e-06
4.90197e-06
-4.75751e-06
4.16715e-06
-6.32693e-06
4.72142e-06
-7.17244e-06
4.65364e-06
-7.13132e-06
3.21081e-06
-6.04511e-06
7.20093e-07
-4.56819e-06
-2.39129e-07
-3.01499e-06
-3.95034e-07
-1.35054e-06
-4.73371e-07
3.93197e-07
-1.51949e-06
2.10654e-06
-3.99142e-06
3.15564e-06
-6.79339e-06
3.06199e-06
-1.4148e-05
-1.0061e-05
-2.79662e-05
2.64457e-05
-5.19522e-05
2.3986e-05
-4.90036e-05
-2.97162e-06
-3.64705e-05
-1.25591e-05
-2.29233e-05
-1.35472e-05
-8.34463e-06
-1.39476e-05
1.34534e-05
-2.43744e-05
1.64351e-05
-1.84661e-06
-1.86357e-05
3.67483e-05
-7.63691e-05
5.77334e-05
-0.000113453
3.7084e-05
-0.000123369
9.91637e-06
-0.000121196
-1.97403e-06
-0.000113969
-5.8245e-06
-0.000104817
-8.52134e-06
-9.20974e-05
-1.32768e-05
-6.64465e-05
-2.80577e-05
-1.93792e-05
-4.79115e-05
-1.96595e-05
-3.36652e-05
6.07696e-05
-4.35905e-05
3.39113e-05
-3.36645e-05
-1.28976e-05
-2.15368e-05
-2.46869e-05
-1.06149e-05
-2.44691e-05
1.06698e-06
-2.56295e-05
1.28813e-05
-3.69223e-05
-2.1606e-05
3.25258e-05
-8.75103e-05
0.000102751
-0.000129318
9.95417e-05
-0.000126477
3.28333e-05
-0.00012107
3.24994e-06
-0.00012066
-3.02982e-06
-0.000118424
-6.59941e-06
-0.000113059
-1.11981e-05
-0.000103837
-2.05534e-05
-8.14605e-05
-4.96309e-05
-3.40927e-05
-9.52685e-05
-5.37522e-05
-2.39163e-05
8.54343e-05
-2.57688e-05
3.57638e-05
-1.64441e-05
-2.22216e-05
-4.82277e-06
-3.62679e-05
1.22697e-06
-3.05188e-05
2.23556e-06
-2.66381e-05
-1.02715e-05
-2.51803e-05
-6.37496e-05
8.53325e-05
-0.000105708
0.000144788
-5.20078e-05
4.08563e-05
-2.56542e-05
4.20155e-06
-2.35645e-05
1.62516e-07
-2.5392e-05
-3.34845e-07
-2.95159e-05
-8.91152e-07
-3.46919e-05
-1.95496e-06
-4.2266e-05
-5.30685e-06
-6.20843e-05
-1.97499e-05
-4.17736e-05
-0.000108923
-9.55258e-05
-1.08531e-05
9.62874e-05
-2.13504e-06
2.24958e-05
2.84631e-06
-2.53901e-05
1.11179e-05
-4.43629e-05
1.18129e-05
-3.12137e-05
5.15092e-07
-1.53403e-05
-3.14832e-05
5.72313e-06
-8.2368e-05
0.000135162
-3.13729e-05
9.62396e-05
-5.18601e-06
1.29988e-05
-1.39606e-06
7.36825e-07
-1.14176e-06
-2.61202e-08
-1.24562e-06
-1.68935e-07
-1.64567e-06
-3.53448e-07
-3.13067e-06
-3.04219e-07
-7.16154e-06
-1.13591e-06
-1.90173e-05
-7.46018e-06
-4.14747e-05
-7.86387e-05
-0.000137001
-2.59011e-07
9.65464e-05
8.54804e-06
8.20059e-06
2.18291e-05
-3.06383e-05
2.68867e-05
-4.94104e-05
2.20336e-05
-2.6358e-05
-4.53844e-07
7.14827e-06
-4.19163e-05
4.71891e-05
-7.78002e-05
0.000172646
-1.12461e-05
3.37262e-05
-1.35568e-06
3.27641e-06
-2.25831e-07
-2.94454e-08
-1.96458e-07
2.86614e-09
-3.28882e-07
-3.99383e-09
-4.11318e-07
-5.33623e-08
-5.56322e-07
-8.56544e-08
-1.64517e-06
-1.79701e-07
-6.0112e-06
-2.95408e-06
-3.40002e-05
-4.68092e-05
-0.000171001
1.07245e-05
2.49073e-05
1.22687e-05
7.61767e-07
3.76886e-05
-4.42353e-05
4.16548e-05
-5.33499e-05
3.27474e-05
-1.74468e-05
3.48818e-06
3.6411e-05
-3.72014e-05
8.78824e-05
-3.68057e-05
0.000174952
-2.91447e-06
8.09446e-06
-3.50783e-07
7.2674e-07
-1.05011e-07
6.78756e-08
-5.53045e-08
1.25086e-08
8.63682e-08
-1.84709e-07
3.7069e-07
-7.5801e-08
4.06927e-07
4.41273e-08
-1.3365e-07
7.39241e-08
-2.91738e-06
-3.31464e-07
-2.52917e-05
-2.1682e-05
-0.000177617
1.25984e-05
2.35518e-05
3.97279e-05
-6.9386e-06
5.02161e-05
-5.40318e-05
5.37331e-05
-5.7084e-05
4.29101e-05
-6.63081e-06
1.14863e-05
6.78386e-05
-2.47127e-05
0.000124074
-1.316e-05
0.000155366
-4.67239e-07
6.41919e-06
-6.05162e-08
2.9978e-07
-1.03707e-07
6.33271e-08
-1.00441e-07
-2.9581e-08
2.0043e-07
-5.41371e-07
8.31664e-07
-9.74414e-07
7.70808e-07
5.73693e-09
3.23512e-07
2.0324e-07
-4.90244e-07
1.61655e-07
-1.26227e-05
-7.93479e-06
-0.000151137
2.42569e-05
1.97358e-05
4.64364e-05
-2.55683e-05
5.4535e-05
-6.0019e-05
5.46755e-05
-5.40627e-05
4.37042e-05
1.47469e-06
2.12902e-05
9.02456e-05
-1.02529e-05
0.000155507
-4.81877e-06
0.000172477
-1.50416e-07
6.25237e-06
-8.09705e-08
2.20078e-07
-1.33615e-07
9.90215e-08
-1.08941e-07
-1.02081e-07
4.86779e-07
-1.21384e-06
1.81083e-06
-2.96764e-06
1.30093e-06
4.47251e-08
8.96771e-07
2.67722e-07
2.57631e-07
4.40086e-07
-5.16449e-06
-1.76987e-06
-0.000128547
7.2399e-07
-1.02187e-07
-9.44701e-07
-2.13043e-07
-2.46402e-06
-1.83069e-07
-3.25921e-06
-6.81624e-08
-4.12782e-06
-1.59668e-08
-5.73426e-06
1.11804e-07
-8.11658e-06
7.14023e-07
-1.02956e-05
1.44975e-06
-1.11011e-05
2.26755e-06
-1.07547e-05
2.80025e-06
-1.07979e-05
4.2103e-06
-1.24129e-05
6.33647e-06
-1.44658e-05
6.70653e-06
-1.46164e-05
3.36134e-06
-1.1796e-05
-2.10031e-06
-8.62091e-06
-3.41418e-06
-5.9617e-06
-3.05424e-06
-3.43034e-06
-3.00473e-06
-3.27532e-07
-4.62229e-06
2.52758e-06
-6.84653e-06
5.22461e-06
-9.49038e-06
6.04694e-06
-1.49703e-05
-1.55643e-05
1.15503e-05
-1.32613e-06
-2.16908e-08
-3.29327e-06
2.16938e-08
-4.61433e-06
-2.37267e-10
-5.57085e-06
-1.59991e-09
-6.1863e-06
-8.39224e-09
-6.68848e-06
-6.93302e-09
-8.51414e-06
1.55163e-09
-1.23001e-05
-1.01927e-07
-1.70864e-05
-4.88052e-07
-2.07057e-05
-1.62938e-06
-2.06041e-05
-2.53109e-06
-1.75129e-05
-1.50414e-06
-1.34183e-05
-6.57443e-08
-8.90298e-06
-1.95098e-06
-4.91925e-06
-4.93191e-06
-2.75854e-06
-4.95651e-06
-1.33718e-06
-4.33622e-06
1.18425e-06
-5.47867e-06
4.10351e-06
-7.50834e-06
4.69562e-06
-7.43779e-06
4.96766e-06
-9.76097e-06
5.86541e-06
-1.58663e-05
-2.07821e-05
1.10846e-05
-2.13947e-08
-2.92074e-10
-3.29707e-11
3.01765e-10
-2.80878e-10
3.61305e-12
-1.88437e-09
-5.79216e-12
-1.02665e-08
-3.39994e-11
-3.53221e-08
4.89318e-11
-3.37697e-08
-4.20286e-13
-1.35693e-07
-3.67176e-12
-6.23725e-07
-2.91804e-11
-2.25336e-06
-1.7669e-10
-6.65628e-06
-1.05169e-09
-1.04015e-05
-4.66256e-09
-1.24746e-05
-1.83605e-08
-1.39701e-05
-6.52501e-08
-1.60312e-05
-2.2474e-07
-1.59705e-05
-7.29572e-07
-1.29461e-05
-1.68515e-06
-9.54607e-06
-2.70982e-06
-6.07187e-06
-3.90013e-06
-4.48854e-06
-4.37329e-06
-4.62967e-06
-7.29298e-06
-4.77789e-06
-1.64292e-05
-2.27565e-05
-1.8302e-06
-5.50098e-10
2.73023e-10
-1.63973e-12
-2.46962e-10
-4.99637e-12
2.12774e-12
-1.41834e-11
1.71462e-12
-4.88432e-11
7.22996e-14
-8.22705e-14
8.19837e-14
-5.09838e-13
-6.12391e-16
-4.21311e-12
-2.06458e-14
-3.32778e-11
-7.41341e-14
-2.11664e-10
-7.73438e-13
-1.27529e-09
-1.83455e-11
-6.07177e-09
-4.11667e-11
-2.52255e-08
-4.7231e-12
-9.36775e-08
2.53754e-11
-3.23469e-07
-6.31363e-09
-1.01434e-06
-7.66185e-08
-2.37172e-06
-4.50082e-07
-3.54158e-06
-1.75846e-06
-5.76315e-06
-8.97081e-06
-2.1882e-05
-1.74965e-05
-7.56953e-05
-1.71032e-05
-8.80768e-05
-1.18304e-05
-1.90268e-06
-1.61236e-05
2.19064e-10
5.4156e-11
-3.06675e-12
-2.28464e-11
-4.08917e-13
5.68404e-12
-1.45383e-13
2.44971e-13
-7.80761e-14
6.82342e-15
-3.30464e-15
2.58942e-15
-1.22716e-14
-3.55858e-16
-8.34369e-15
-1.44125e-14
2.14662e-13
3.26636e-14
-5.26017e-13
2.89144e-13
1.99749e-11
5.693e-12
1.24126e-10
4.30669e-11
-1.14448e-10
1.85213e-10
-1.99496e-09
4.77623e-10
-1.64506e-08
2.4149e-09
-1.27429e-07
2.12841e-10
-7.10471e-07
-6.26839e-08
-2.68056e-06
-5.94429e-07
-3.7003e-05
-3.7185e-06
-6.89462e-05
-1.60379e-05
-8.25236e-05
-1.8688e-05
-3.40434e-06
-1.08212e-05
-3.66541e-06
-1.12503e-06
4.92621e-11
4.89389e-12
1.4622e-14
3.50033e-12
-6.70966e-14
6.16415e-12
1.17123e-14
4.18068e-13
2.70211e-15
1.16137e-14
4.87128e-16
1.84755e-15
-3.93904e-15
1.35136e-15
-4.39551e-13
2.2559e-14
-1.28425e-13
5.64319e-13
4.66861e-12
1.90035e-12
1.08098e-12
9.08904e-12
-1.3465e-10
1.58488e-10
-3.45276e-10
1.79863e-10
-1.31133e-10
5.61466e-11
1.55326e-09
-1.16614e-10
-1.88514e-09
-6.93864e-10
-6.92811e-08
-1.80918e-09
-6.70789e-07
-2.55015e-08
-9.04238e-06
-2.85818e-07
-5.25904e-05
-3.59796e-06
-7.76371e-05
-1.03028e-05
-4.75575e-05
-1.69982e-05
-9.3093e-06
-8.62832e-06
4.698e-12
1.95889e-13
1.23637e-12
-3.90117e-14
1.37256e-12
1.19824e-12
9.35665e-15
5.60786e-13
4.64004e-15
1.31192e-14
1.16966e-15
2.59898e-15
-2.21326e-15
2.01533e-15
-6.52117e-15
2.4148e-14
6.88213e-13
1.10842e-12
6.21058e-12
5.21419e-12
-6.29199e-11
1.66876e-11
-1.88547e-10
5.42185e-12
-1.50902e-10
1.04329e-11
-6.29427e-11
-5.01682e-12
-2.19612e-10
-7.15187e-12
-1.16444e-09
-3.06286e-11
-3.79502e-09
-5.78629e-11
-2.67761e-08
-1.99513e-10
-3.28365e-07
-2.16995e-10
-4.04972e-06
-1.26635e-07
-2.30346e-05
-9.35409e-07
-4.06754e-05
-7.82597e-06
-9.54379e-06
-3.92426e-05
1.91237e-13
4.65191e-15
1.07197e-13
2.37736e-14
1.26746e-13
6.72808e-15
6.48569e-14
3.31171e-14
4.68134e-15
1.33873e-14
8.2011e-16
3.95796e-15
5.41777e-16
5.1387e-15
6.39674e-17
2.45101e-14
-1.24566e-12
1.48727e-12
-7.20714e-12
4.40347e-12
-8.85977e-12
-7.77073e-14
-1.25059e-11
-1.61352e-12
-7.66099e-12
-1.93289e-12
-7.7737e-12
-1.74859e-12
-2.07913e-11
7.73577e-13
-8.03235e-11
1.63374e-12
-3.32028e-10
1.6105e-11
-2.11233e-09
1.27628e-10
-8.96212e-09
7.29069e-10
-1.68477e-07
3.35044e-09
-1.29684e-06
-5.70908e-08
-2.10435e-05
-1.23436e-06
-1.17264e-05
-4.04976e-05
3.88771e-15
7.74676e-16
9.21815e-15
4.18414e-15
5.35899e-15
2.71003e-15
3.03974e-15
1.66294e-15
1.00643e-15
2.0255e-15
4.17931e-16
5.15899e-15
-2.82439e-16
8.3128e-15
-1.23067e-14
1.7529e-14
-1.25047e-12
2.84174e-13
-1.39383e-12
2.59659e-14
-1.45377e-12
-2.78525e-13
-6.76671e-12
3.85896e-12
-8.53608e-12
2.39333e-12
-1.60883e-12
2.70516e-12
-2.34486e-12
8.19543e-13
-6.69179e-12
9.6213e-13
-3.24229e-11
6.90492e-12
-1.52359e-10
7.53843e-11
-1.33125e-09
6.58973e-10
-1.34968e-08
4.57272e-09
-1.71567e-07
1.71711e-08
-1.74241e-06
-1.82176e-07
-2.85628e-06
-3.91608e-05
1.28333e-16
2.30265e-15
3.87157e-16
9.04958e-16
3.0927e-16
5.51233e-16
1.8531e-16
2.14554e-16
1.89634e-16
9.98056e-16
8.5172e-17
5.72501e-15
-8.49531e-16
9.32636e-15
-1.2759e-14
1.00591e-14
-2.55175e-14
1.09131e-15
-2.7492e-14
7.57132e-15
-6.45052e-13
5.14288e-14
-5.47609e-12
4.38127e-12
-8.86172e-12
7.18663e-12
-1.35025e-12
5.38848e-12
-8.39715e-13
1.90675e-13
-8.91888e-13
3.24247e-13
-1.34657e-12
2.72563e-12
2.37278e-12
2.97727e-11
-2.31919e-11
2.91646e-10
-1.43629e-09
2.41695e-09
-2.70839e-08
1.42365e-08
-4.30678e-07
3.44151e-08
-4.2119e-07
-4.49807e-06
1.3265e-17
8.94727e-16
2.03628e-17
9.95888e-17
1.68792e-17
5.71671e-17
9.81266e-18
2.92367e-17
5.67435e-17
6.37355e-16
-1.6316e-16
4.7933e-15
-7.01098e-16
8.19054e-15
-8.96349e-16
5.81409e-15
-2.13265e-15
2.68504e-15
-2.14373e-15
4.78578e-15
-1.28227e-13
3.19999e-14
-2.99334e-12
4.27067e-13
-4.35305e-12
1.06611e-12
-3.56551e-13
7.06947e-13
-2.05319e-13
1.64814e-14
-9.45632e-14
9.48838e-14
5.65152e-13
1.04691e-12
7.25023e-12
1.31215e-11
4.50023e-11
1.4819e-10
5.14508e-11
1.43018e-09
-2.74665e-09
1.07416e-08
-5.64165e-08
4.23713e-08
1.15344e-08
-9.98611e-07
7.58006e-19
8.32104e-17
8.26168e-19
7.49247e-18
8.00114e-19
4.65821e-18
5.31498e-19
4.96211e-18
3.48348e-18
2.83527e-16
-2.05501e-16
2.3196e-15
-4.43936e-16
4.44447e-15
-3.53485e-16
3.36736e-15
-5.53718e-16
2.12041e-15
-1.43903e-15
3.84394e-15
-3.01857e-14
9.56047e-15
-1.77714e-13
-4.32425e-15
-1.50951e-13
1.08974e-14
-1.21445e-14
1.55085e-14
-9.18643e-15
7.90147e-15
1.15753e-14
4.31457e-14
2.65009e-13
5.68364e-13
2.28337e-12
8.60796e-12
3.6737e-12
1.2033e-10
-9.54225e-11
1.33016e-09
5.67099e-11
1.26479e-08
-8.50755e-09
4.56068e-08
7.05619e-08
-1.6246e-07
-2.94196e-22
7.34308e-18
2.56563e-20
5.9087e-19
3.22556e-20
4.01589e-19
2.12883e-20
1.14329e-18
-9.41815e-18
7.79686e-17
-1.06915e-16
6.23977e-16
-1.78069e-16
1.28741e-15
-2.15374e-16
1.20407e-15
-4.42645e-16
1.59459e-15
-9.06324e-16
3.26298e-15
-2.36385e-15
2.54899e-15
-1.4492e-14
2.55992e-15
-1.18649e-14
2.06585e-15
-3.11689e-15
3.00681e-15
-2.76827e-15
5.39203e-15
1.67627e-15
3.16021e-14
1.23539e-14
5.27675e-13
-6.41285e-13
9.23815e-12
-2.59909e-11
1.49076e-10
3.92787e-10
2.15964e-09
8.01648e-09
2.58381e-08
3.47111e-08
3.5874e-08
4.78293e-08
4.05867e-08
-7.82916e-23
7.94266e-19
3.23229e-22
4.80995e-20
1.25409e-22
3.55805e-20
-4.49157e-20
3.03976e-19
-3.81274e-18
1.62886e-17
-2.81253e-17
1.14172e-16
-4.51867e-17
2.26261e-16
-8.85262e-17
2.6463e-16
-3.85914e-16
1.08304e-15
-3.65669e-16
2.41873e-15
-4.77847e-16
1.12436e-15
-9.80012e-16
9.69861e-16
-8.36877e-16
9.41327e-16
-1.14127e-15
1.0497e-15
-7.76732e-16
3.24906e-15
-3.85789e-15
3.24112e-14
-2.78164e-13
8.20684e-13
-9.77238e-12
1.93344e-11
-1.12954e-10
2.63279e-10
-2.95755e-09
8.58511e-09
1.71892e-09
3.07923e-08
1.03081e-08
3.42491e-08
5.68053e-08
1.20137e-08
4.0005e-22
8.66805e-20
-2.94752e-23
3.95343e-21
-1.07429e-22
3.23391e-21
-1.83777e-20
7.40322e-20
-8.25936e-19
3.12607e-18
-4.0263e-18
1.85972e-17
-7.37442e-18
3.42562e-17
-3.2634e-17
5.21947e-17
-1.9261e-16
4.66477e-16
-1.42859e-16
1.14176e-15
-1.19188e-16
4.76102e-16
-1.43098e-16
3.05478e-16
-1.55581e-16
2.57695e-16
-2.59854e-16
2.46268e-16
-1.68553e-16
1.67609e-15
6.58858e-15
2.47476e-14
3.12526e-14
8.08811e-13
-3.21517e-12
2.2915e-11
3.03349e-10
2.9648e-10
-3.43962e-09
7.29393e-09
-3.0843e-09
8.1589e-09
2.17498e-09
2.46439e-08
6.9777e-08
-9.47144e-08
1.09905e-22
9.30917e-21
-2.28904e-24
3.27343e-22
-1.47801e-23
3.14462e-22
-3.86977e-21
1.45606e-20
-1.27679e-19
5.4261e-19
-4.87125e-19
2.9472e-18
-9.96837e-19
5.42858e-18
-7.65302e-18
1.03819e-17
-5.16414e-17
1.00609e-16
-4.10373e-17
2.53906e-16
-3.44393e-17
1.51632e-16
-2.6961e-17
1.19649e-16
-2.63086e-17
6.86223e-17
-8.82332e-17
5.46508e-17
-1.73988e-16
8.22673e-16
1.56424e-14
7.76976e-15
5.23544e-13
2.93582e-13
1.63741e-11
6.78789e-12
-5.10538e-10
3.43923e-10
-4.84575e-10
2.14939e-10
1.10066e-09
1.36982e-09
4.92732e-09
1.59748e-08
1.58001e-07
-5.19755e-07
1.78409e-23
9.87966e-22
1.00184e-25
2.72042e-23
-1.18948e-24
3.43906e-23
-4.60659e-22
2.26618e-21
-1.35165e-20
7.94356e-20
-5.05559e-20
4.30274e-19
-1.1589e-19
8.78554e-19
-9.8334e-19
2.01849e-18
-6.78742e-18
1.31794e-17
-6.85857e-18
3.31878e-17
-7.97553e-18
3.6403e-17
-6.13043e-18
4.42441e-17
-3.58159e-18
2.2303e-17
-1.06045e-17
1.05152e-17
-1.46192e-16
2.84863e-16
4.43658e-15
3.84285e-15
2.50447e-13
4.38725e-14
-5.43092e-12
2.36485e-12
-2.44755e-11
2.99227e-12
2.89671e-12
5.36898e-11
6.94738e-11
1.08168e-09
2.85255e-09
1.89206e-08
9.53341e-08
-8.24835e-08
2.47967e-24
1.03512e-22
5.05894e-26
2.2195e-24
1.96536e-26
4.1282e-24
-1.56645e-23
2.89515e-22
-6.76092e-22
9.80283e-21
-3.32401e-21
5.59018e-20
-1.00982e-20
1.40767e-19
-7.77321e-20
4.34908e-19
-4.78299e-19
1.90649e-18
-7.28666e-19
4.7373e-18
-1.1809e-18
7.32121e-18
-9.96919e-19
1.08277e-17
-3.18733e-19
6.18284e-18
-7.8897e-19
1.75505e-18
-1.93225e-17
5.11656e-17
-2.90248e-17
1.39361e-15
5.19032e-15
1.72031e-14
1.03773e-13
1.32919e-13
-4.47106e-13
1.27775e-12
1.26109e-11
1.81442e-11
6.69586e-10
3.77223e-10
1.56315e-08
1.13323e-08
7.03516e-08
7.96721e-08
3.24913e-25
1.05608e-23
7.74001e-27
1.77e-25
1.96139e-26
4.58164e-25
1.57245e-24
3.26259e-23
4.28167e-23
1.08288e-21
1.4426e-22
6.62001e-21
1.32733e-22
2.29157e-20
-6.6568e-22
1.10689e-19
-6.63625e-21
3.9799e-19
-1.45123e-20
8.7783e-19
-2.22612e-20
1.34419e-18
-9.70974e-21
1.78027e-18
4.8952e-21
1.18982e-18
9.45742e-21
3.00564e-19
9.50454e-19
6.13037e-18
4.15252e-17
1.75568e-16
1.82995e-15
3.18027e-15
7.13148e-14
1.80932e-14
8.44609e-13
2.57745e-13
1.21168e-11
3.01838e-12
3.36839e-10
4.40319e-11
1.51998e-08
2.12299e-09
1.41416e-08
5.75779e-08
4.25974e-26
9.87469e-25
8.27001e-28
1.46661e-25
4.23033e-27
3.56387e-26
4.43681e-25
3.42328e-24
1.60676e-23
1.13245e-22
1.01786e-22
7.43235e-22
4.26341e-22
3.85444e-21
2.56818e-21
2.90784e-20
9.56196e-21
1.00238e-19
1.99082e-20
1.85361e-19
3.08295e-20
2.46999e-19
4.199e-20
2.69321e-19
2.46555e-20
1.88584e-19
1.44504e-20
7.88574e-20
5.42093e-19
6.84762e-19
1.83901e-17
1.85743e-17
5.04266e-16
3.92961e-16
1.38769e-14
4.33996e-15
2.06276e-13
3.8638e-14
2.19228e-12
4.9609e-13
3.76669e-11
7.25002e-12
1.79292e-09
2.48855e-10
1.26803e-09
1.14901e-08
7.15947e-27
2.8487e-25
-2.85369e-28
-2.10899e-26
8.74264e-28
2.65119e-26
7.60221e-26
3.42423e-25
2.90943e-24
1.14415e-23
2.1676e-23
8.06728e-23
1.45344e-22
6.36447e-22
1.27329e-21
6.46666e-21
4.49493e-21
2.34113e-20
8.15587e-21
3.93814e-20
1.11026e-20
4.78999e-20
1.36235e-20
4.6888e-20
8.48321e-21
3.20647e-20
7.24663e-21
2.37847e-20
1.0477e-19
7.61902e-20
3.58923e-18
2.04302e-18
9.12738e-17
4.3838e-17
1.83682e-15
7.43213e-16
3.0009e-14
5.67818e-15
4.02924e-13
6.05768e-14
6.68596e-12
8.06161e-13
2.30592e-10
2.34675e-11
1.10447e-10
1.34905e-09
5.58044e-28
5.63277e-26
-5.76549e-28
-3.37852e-26
-5.32207e-29
-2.35816e-27
1.05557e-26
3.19463e-26
4.15375e-25
1.11957e-24
3.46865e-24
8.46029e-24
3.48361e-23
9.39031e-23
3.81728e-22
1.08355e-21
1.38493e-21
4.29297e-21
2.39841e-21
7.56977e-21
3.09038e-21
9.29481e-21
3.54588e-21
9.04744e-21
2.39518e-21
6.1177e-21
2.59715e-21
5.25726e-21
1.43339e-20
7.97563e-21
5.40061e-19
2.14325e-19
1.34984e-17
4.58046e-18
2.57902e-16
7.58556e-17
3.5329e-15
9.07955e-16
5.03916e-14
5.35127e-15
7.60524e-13
7.60194e-14
2.20934e-11
1.94603e-12
8.46824e-12
1.19475e-10
-7.44346e-28
-6.57289e-26
-4.28521e-28
-2.09199e-26
-2.69419e-28
-9.63217e-27
1.53215e-27
2.42315e-27
5.18343e-26
1.06123e-25
4.71883e-25
8.50506e-25
6.41069e-24
1.16622e-23
7.83124e-23
1.39012e-22
3.10385e-22
6.02581e-22
5.69453e-22
1.20478e-21
7.37813e-22
1.5922e-21
8.58361e-22
1.64003e-21
5.76301e-22
1.16799e-21
5.69964e-22
7.68003e-22
1.53539e-21
7.11761e-22
6.82065e-20
2.05615e-20
1.69737e-18
4.42597e-19
3.17925e-17
7.0505e-18
4.4684e-16
9.35529e-17
4.15322e-15
4.89002e-16
7.37417e-14
4.64794e-15
1.86489e-12
1.34886e-13
5.5815e-13
9.41919e-12
-7.20377e-28
-5.67912e-26
-2.39452e-28
-1.01019e-26
-2.71981e-28
-8.2351e-27
3.96336e-28
4.79447e-28
5.90212e-27
9.72544e-27
5.7102e-26
8.16719e-26
9.36553e-25
1.24617e-24
1.20773e-23
1.50864e-23
5.24149e-23
6.95072e-23
1.05969e-22
1.54117e-22
1.44878e-22
2.19242e-22
1.74275e-22
2.42302e-22
1.19572e-22
1.89415e-22
8.82414e-23
9.64868e-23
1.22003e-22
2.37754e-22
7.46032e-21
1.77742e-21
1.86025e-19
3.92788e-20
3.39874e-18
6.10751e-19
4.72444e-17
7.35814e-18
3.27102e-16
4.58763e-17
4.52701e-15
1.62104e-16
1.28348e-13
9.11318e-15
3.45251e-14
6.28395e-13
-4.67222e-28
-3.34757e-26
-1.12658e-28
-4.22394e-27
-1.8485e-28
-4.9146e-27
1.10885e-28
1.27741e-28
6.18973e-28
8.40449e-28
6.30357e-27
7.52538e-27
1.1553e-25
1.21961e-25
1.54089e-24
1.50419e-24
7.11028e-24
7.14336e-24
1.54966e-23
1.66076e-23
2.25299e-23
2.46166e-23
2.73538e-23
2.85256e-23
2.08587e-23
2.40586e-23
1.49571e-23
1.17384e-23
5.35695e-24
2.97903e-23
7.05284e-22
1.32608e-22
1.80988e-20
3.21719e-21
3.21453e-19
4.87074e-20
4.28491e-18
5.56603e-19
2.86709e-17
3.48842e-18
1.58311e-16
1.12974e-17
8.45586e-15
5.72566e-16
1.96483e-15
3.86077e-14
-2.56102e-28
-1.69425e-26
-4.65771e-29
-1.58721e-27
-9.87736e-29
-2.36606e-27
-1.14024e-29
-2.04992e-28
6.95302e-29
6.25203e-29
6.48474e-28
6.7066e-28
1.27287e-26
1.1367e-26
1.73668e-25
1.42168e-25
8.2925e-25
6.85e-25
1.88464e-24
1.62151e-24
2.8407e-24
2.44708e-24
3.47716e-24
2.88982e-24
2.91073e-24
2.52708e-24
2.6378e-24
1.29959e-24
-1.16745e-23
-2.99245e-23
6.73834e-23
1.80733e-23
1.5904e-21
2.45655e-22
2.7233e-20
3.58429e-21
3.46559e-19
3.9186e-20
2.29121e-18
2.31179e-19
1.01834e-17
8.79978e-19
5.32556e-16
3.13644e-17
1.28031e-16
2.2028e-15
-1.25238e-28
-7.75472e-27
-1.73628e-29
-5.47571e-28
-4.39888e-29
-9.69847e-28
-9.72841e-30
-1.6112e-28
1.12614e-29
1.02076e-29
6.3435e-29
5.80092e-29
1.29352e-27
1.0182e-27
1.7885e-26
1.28323e-26
8.70965e-26
6.24041e-26
2.02723e-25
1.49495e-25
3.11512e-25
2.27943e-25
3.8234e-25
2.71082e-25
3.37643e-25
2.39888e-25
3.13291e-25
1.27368e-25
-6.01118e-24
-1.45425e-23
8.822e-24
3.2401e-24
1.27902e-22
1.75802e-23
2.08993e-21
2.45165e-22
2.53192e-20
2.55482e-21
1.6163e-19
1.45793e-20
7.43691e-19
5.95912e-20
2.99029e-17
1.43237e-18
7.7123e-18
1.37709e-16
-5.57582e-29
-3.26461e-27
-5.9509e-30
-1.76449e-28
-1.68621e-29
-3.48231e-28
-5.12184e-30
-7.9628e-29
1.70699e-30
3.37876e-30
5.88928e-30
4.78133e-30
1.23038e-28
8.77366e-29
1.71303e-27
1.10978e-27
8.44544e-27
5.43215e-27
1.99638e-26
1.31422e-26
3.10102e-26
2.01765e-26
3.80434e-26
2.40748e-26
3.45326e-26
2.13971e-26
3.28707e-26
1.13652e-26
-1.82166e-24
-4.2413e-24
1.00771e-24
4.10727e-25
9.4398e-24
1.15783e-24
1.46724e-22
1.56934e-23
1.69112e-21
1.55595e-22
1.07995e-20
9.23537e-22
5.70095e-20
5.53132e-21
1.6028e-18
8.60055e-20
4.52076e-19
8.00215e-18
-2.28858e-29
-1.27282e-27
-1.90857e-30
-5.3974e-29
-5.67675e-30
-1.11523e-28
-2.11117e-30
-3.13072e-29
-1.43557e-32
-1.66401e-31
5.26179e-31
3.49688e-31
1.10572e-29
7.29372e-30
1.54172e-28
9.22413e-29
7.65612e-28
4.53044e-28
1.82729e-27
1.10296e-27
2.85266e-27
1.69843e-27
3.49029e-27
2.02571e-27
3.21141e-27
1.80145e-27
3.10852e-27
9.50066e-28
-4.19773e-25
-9.56475e-25
-1.35245e-26
-2.66516e-26
6.39388e-25
6.93389e-26
9.51479e-24
9.46698e-25
1.04729e-22
8.96351e-24
7.45096e-22
6.4924e-23
6.67027e-21
8.97049e-22
1.13296e-19
1.11019e-20
5.27657e-20
5.7451e-19
-8.74991e-30
-4.6123e-28
-5.82256e-31
-1.59137e-29
-1.7016e-30
-3.22719e-29
-7.32218e-31
-1.05094e-29
-3.15092e-32
-3.54118e-31
6.81754e-32
3.50255e-32
9.47701e-31
5.88193e-31
1.31291e-29
7.39058e-30
6.5387e-29
3.63059e-29
1.56765e-28
8.8591e-29
2.44703e-28
1.36297e-28
2.97974e-28
1.6179e-28
2.75073e-28
1.43359e-28
2.69206e-28
7.48688e-29
-7.98278e-26
-1.80597e-25
-1.01866e-26
-1.99889e-26
4.49279e-26
7.01395e-27
5.75798e-25
5.42768e-26
6.12499e-24
4.97708e-25
5.80323e-23
5.58742e-24
1.13545e-21
1.72205e-22
1.57018e-20
2.20205e-21
1.30141e-20
8.83835e-20
-3.14093e-30
-1.5568e-28
-1.71324e-31
-4.58132e-30
-4.58772e-31
-8.52449e-30
-2.21087e-31
-3.11424e-30
-1.50559e-32
-1.6632e-31
1.25373e-32
7.43221e-33
7.79656e-32
4.60857e-32
1.06312e-30
5.72512e-31
5.29102e-30
2.80488e-30
1.26871e-29
6.8356e-30
1.97144e-29
1.04703e-29
2.38481e-29
1.23206e-29
2.18955e-29
1.08335e-29
2.159e-29
5.58249e-30
-1.30542e-26
-2.9685e-26
-2.55774e-27
-5.05848e-27
3.62863e-27
8.27572e-28
3.28341e-26
2.98189e-27
3.45257e-25
2.7303e-26
5.21608e-24
5.41457e-25
1.9226e-22
2.68874e-23
3.01703e-21
4.35298e-22
3.50364e-21
2.13607e-20
-1.05943e-30
-4.90182e-29
-4.90962e-32
-1.29698e-30
-1.12226e-31
-2.07316e-30
-5.92545e-32
-8.30851e-31
-5.15487e-33
-5.67696e-32
1.36167e-33
9.15673e-34
6.11273e-33
3.46355e-33
8.21329e-32
4.30064e-32
4.07238e-31
2.09592e-31
9.73066e-31
5.0853e-31
1.49969e-30
7.73072e-31
1.79989e-30
8.98632e-31
1.63154e-30
7.81381e-31
1.61683e-30
3.958e-31
-1.88288e-27
-4.34928e-27
-4.64221e-28
-9.34815e-28
2.76136e-28
8.72151e-29
1.78003e-27
1.5706e-28
1.90366e-26
1.49883e-27
4.81175e-25
4.83064e-26
2.634e-23
3.08774e-24
5.29791e-22
6.77726e-23
7.11827e-22
4.89688e-21
-3.33515e-31
-1.44143e-29
-1.37071e-32
-3.60531e-31
-2.50931e-32
-4.67826e-31
-1.42694e-32
-2.02273e-31
-1.45394e-33
-1.6221e-32
-1.89983e-35
-1.72849e-34
4.70749e-34
2.45814e-34
6.0644e-33
3.14365e-33
2.9861e-32
1.51963e-32
7.08834e-32
3.65998e-32
1.08011e-31
5.5059e-32
1.28514e-31
6.30226e-32
1.14321e-31
5.40225e-32
1.13633e-31
2.68058e-32
-2.43425e-28
-5.77331e-28
-6.92175e-29
-1.4335e-28
1.36248e-29
4.37282e-30
9.19503e-29
7.82258e-30
1.02623e-27
8.06756e-29
3.90973e-26
3.4849e-27
2.80664e-24
2.71637e-25
7.39416e-23
7.88226e-24
9.44446e-23
8.37083e-22
-9.74024e-32
-3.96261e-30
-3.69029e-33
-9.76167e-32
-5.15348e-33
-9.86687e-32
-3.10907e-33
-4.53969e-32
-3.5393e-34
-4.07894e-33
-1.19134e-35
-1.12181e-34
4.18094e-35
1.58907e-35
4.27964e-34
2.24565e-34
2.08419e-33
1.07261e-33
4.9009e-33
2.55703e-33
7.36122e-33
3.79574e-33
8.67822e-33
4.26539e-33
7.53638e-33
3.59349e-33
7.50245e-33
1.74095e-33
-2.84586e-29
-7.02952e-29
-8.88267e-30
-1.91715e-29
-1.69371e-31
-3.18917e-31
4.57883e-30
3.6402e-31
5.29286e-29
4.13754e-30
2.59188e-27
2.01969e-28
2.34195e-25
1.90155e-26
7.98109e-24
7.1167e-25
8.36664e-24
9.72592e-23
-2.63347e-32
-1.01941e-30
-9.45124e-34
-2.54956e-32
-9.75204e-34
-1.95863e-32
-6.15208e-34
-9.4722e-33
-7.58591e-35
-9.25514e-34
-3.60007e-36
-3.59773e-35
4.45051e-36
1.50373e-36
2.88683e-35
1.57446e-35
1.38072e-34
7.39694e-35
3.20645e-34
1.74057e-34
4.73202e-34
2.54242e-34
5.52493e-34
2.79671e-34
4.65979e-34
2.3085e-34
4.63985e-34
1.08847e-34
-3.0173e-30
-7.93223e-30
-9.99901e-31
-2.29607e-30
-5.54094e-32
-1.10945e-31
2.43461e-31
1.77062e-32
2.56681e-30
2.03905e-31
1.42456e-28
1.03559e-29
1.55376e-26
1.12316e-27
6.84816e-25
5.45043e-26
6.10536e-25
8.15795e-24
-6.56987e-33
-2.45687e-31
-2.27462e-34
-6.36685e-33
-1.70523e-34
-3.68401e-33
-1.1084e-34
-1.85112e-33
-1.44559e-35
-1.92473e-34
-8.19806e-37
-8.97431e-36
4.68359e-37
2.15564e-37
1.85464e-36
1.08562e-36
8.64976e-36
5.00301e-36
1.97742e-35
1.15904e-35
2.85693e-35
1.66143e-35
3.30179e-35
1.78428e-35
2.68965e-35
1.43837e-35
2.67486e-35
6.57993e-36
-2.89982e-31
-8.3731e-31
-9.94146e-32
-2.50525e-31
-7.90189e-33
-1.73444e-32
1.38391e-32
1.63932e-33
1.17993e-31
1.0013e-32
7.00153e-30
5.31027e-31
8.82943e-28
6.51944e-29
5.07346e-26
4.06921e-27
4.65063e-26
5.94687e-25
-1.50309e-33
-5.55536e-32
-5.08603e-35
-1.50917e-33
-2.76229e-35
-6.60721e-34
-1.82252e-35
-3.41123e-34
-2.46296e-36
-3.71122e-35
-1.54142e-37
-1.91926e-36
3.44123e-38
2.70094e-38
1.12321e-37
7.34899e-38
5.10762e-37
3.33169e-37
1.14539e-36
7.58232e-37
1.6135e-36
1.06401e-36
1.84511e-36
1.11303e-36
1.44303e-36
8.73543e-37
1.4309e-36
3.86597e-37
-2.52332e-32
-8.3414e-32
-8.75274e-33
-2.52337e-32
-8.25585e-34
-2.07119e-33
7.91766e-34
1.18932e-34
5.2272e-33
5.06865e-34
3.33226e-31
2.96946e-32
4.91504e-29
4.38584e-30
3.58538e-27
3.24834e-28
3.74568e-27
4.25185e-26
-3.13527e-34
-1.18094e-32
-1.04613e-35
-3.37821e-34
-4.15054e-36