/*--------------------------------*- C++ -*----------------------------------*\
| =========                 |                                                 |
| \\      /  F ield         | OpenFOAM: The Open Source CFD Toolbox           |
|  \\    /   O peration     | Version:  5.x                                   |
|   \\  /    A nd           | Web:      www.OpenFOAM.org                      |
|    \\/     M anipulation  |                                                 |
\*---------------------------------------------------------------------------*/
FoamFile
{
    version     2.0;
    format      ascii;
    class       volScalarField;
    location    "0.7";
    object      p;
}
// * * * * * * * * * * * * * * * * * * * * * * * * * * * * * * * * * * * * * //

dimensions      [1 -1 -2 0 0 0 0];

internalField   nonuniform List<scalar> 
2268
(
498.292
497.962
499.656
504.038
512.839
527.764
548.621
571.912
594.483
615.894
636.617
656.779
676.211
694.733
712.155
727.868
741.8
752.869
757.813
757.056
764.383
789.735
814.559
438.937
438.155
439.717
443.999
452.551
467.495
488.742
512.588
535.512
557.071
577.845
598.03
617.484
636.018
653.49
669.423
683.665
696.992
704.531
698.251
696.62
720.284
750.406
378.274
377.229
378.967
383.105
391.022
405.759
427.669
452.747
476.473
498.337
519.229
539.447
558.879
577.328
594.649
610.637
625.173
638.704
647.587
642.212
637.346
655.223
686.842
316.864
315.639
317.471
321.267
328.225
342.568
365.636
392.698
417.598
439.839
460.829
481.086
500.53
518.937
536.183
552.155
566.747
579.836
589.109
588.303
586.338
599.544
627.083
255.397
253.852
255.493
258.878
265.154
279.148
303.985
333.068
359.091
381.654
402.72
423.004
442.456
460.834
478.068
494.083
508.712
521.619
532.122
536.018
539.347
548.97
570.338
194.012
192.165
193.187
196.175
202.509
217.316
243.498
273.851
300.68
323.646
344.912
365.216
384.645
402.969
420.206
436.296
451.052
464.296
475.759
483.485
490.252
497.953
513.962
132.684
131.461
131.461
134.092
141.586
157.516
183.763
214.122
241.555
265.289
287.143
307.742
327.168
345.382
362.59
378.742
393.609
407.087
419.253
429.167
438.387
446.057
458.711
71.1678
71.6709
71.1892
74.3085
82.6049
99.9298
125.265
154.157
181.683
206.791
229.508
250.458
269.867
287.837
305.061
321.398
336.438
350.074
362.91
374.367
385.378
393.594
405.636
758.93
636.324
656.48
743.861
834.041
881.605
892.479
846.383
848.514
762.775
565.088
422.436
363.527
346.529
349.601
432.363
685.885
990.994
1062.86
695.849
533
564.741
675.418
773.139
819.562
819.748
766.925
776.487
628.03
392.25
294.682
281.442
283.848
288.447
342.205
549.438
891.799
1003.58
602.562
422.427
478.977
605.244
715.03
769.18
773.456
716.786
625.436
366.292
255.152
239.97
240.188
239.847
233.496
237.349
341.988
703.925
931.682
500.651
324.195
403.999
536.887
658.284
731.43
766.363
670.157
413.904
261.599
236.135
233.726
235.226
234.673
225.913
218.749
257.106
471.814
839.693
428.815
261.799
346.049
470.504
598.139
697.177
792.146
598.928
286.53
236.836
232.956
233.152
235.894
234.627
224.602
215.232
224.503
317.979
719.992
393.125
247.886
291.319
400.998
522.442
638.156
785.36
471.351
251.167
234.454
232.566
233.452
236.46
236.027
224.407
213.94
210.7
240.414
566.802
385.94
260.722
246.708
311.685
411.207
536.492
725.755
335.963
239.12
233.776
232.176
233.068
236.364
235.922
223.412
212.614
205.581
212.546
405.438
358.666
250.883
193.998
192.848
233.351
366.596
608.628
277.951
234.292
232.981
231.615
232.041
235.118
233.205
218.823
208.165
202.039
200.275
297.166
18.8387
21.7762
24.5455
27.4936
31.9517
39.7867
52.6539
70.9657
93.0785
116.481
139.362
161.321
181.009
198.324
215.291
231.908
247.176
260.777
274.425
288.465
302.069
311.498
319.708
2.38449
2.09031
2.89006
3.93166
4.85688
5.58077
7.02368
11.1648
18.4906
28.7553
41.6098
56.5912
71.5109
84.238
96.715
112.103
127.143
139.629
154.188
173.966
193.654
205.368
203.268
0.93998
0.557667
0.437832
0.29085
0.18166
0.151891
0.212949
0.298602
0.34153
0.494879
1.93949
6.17086
11.1619
15.4186
19.9359
27.8482
36.5815
43.0657
53.1295
74.9662
107.165
121.836
101.643
0.307423
0.079694
0.0697349
-0.00209154
-0.05052
-0.0357945
0.038153
0.114329
0.162769
0.201264
0.201527
0.220707
0.26079
0.330616
0.357418
0.358
0.566249
0.419603
-2.05921
-4.60214
14.4951
53.8321
49.6491
0.0480337
-0.172615
-0.152596
-0.194783
-0.207289
-0.181272
-0.127052
-0.0714138
-0.0335703
-0.00953814
0.0106952
0.0383178
0.0563429
0.0281954
-0.0137294
0.00250746
0.0961998
0.0953305
0.0841808
4.83252
21.4578
27.5242
23.0596
-0.114574
-0.238804
-0.282764
-0.313154
-0.311417
-0.282732
-0.24087
-0.202982
-0.18031
-0.159691
-0.14512
-0.13689
-0.143951
-0.174709
-0.209203
-0.233369
-0.309114
-0.418632
-0.206285
4.95513
14.137
17.8596
20.9008
-0.292951
-0.327604
-0.378575
-0.409381
-0.412922
-0.399129
-0.378853
-0.360022
-0.349774
-0.341781
-0.337485
-0.337676
-0.346255
-0.36762
-0.401338
-0.458549
-0.553251
-0.638101
-0.69415
-0.593499
1.95906
8.81637
15.4549
-0.48423
-0.47936
-0.502789
-0.526568
-0.536254
-0.535523
-0.528173
-0.51898
-0.515063
-0.516264
-0.521669
-0.530622
-0.544112
-0.564615
-0.592076
-0.626292
-0.662952
-0.681408
-0.675699
-0.650241
-0.481388
0.505141
5.32056
-0.662146
-0.652127
-0.6634
-0.677384
-0.686899
-0.691669
-0.691163
-0.689213
-0.690637
-0.695583
-0.704243
-0.716886
-0.733377
-0.754149
-0.778821
-0.803184
-0.821641
-0.826198
-0.804483
-0.761334
-0.732762
-0.61748
0.558379
-0.833626
-0.829539
-0.838059
-0.846457
-0.853964
-0.859748
-0.863148
-0.866333
-0.871531
-0.879068
-0.889664
-0.903656
-0.920755
-0.941159
-0.964925
-0.989462
-1.00968
-1.01915
-1.00948
-0.978721
-0.957952
-0.991858
-1.09329
-1.00736
-1.00677
-1.01327
-1.01937
-1.02574
-1.03193
-1.0376
-1.04364
-1.05113
-1.06085
-1.07359
-1.08945
-1.10831
-1.13052
-1.15609
-1.18369
-1.21068
-1.23327
-1.24981
-1.26711
-1.33263
-1.54215
-1.74848
-1.18113
-1.18179
-1.18673
-1.19188
-1.19795
-1.2048
-1.21201
-1.22012
-1.22983
-1.24183
-1.25659
-1.27435
-1.29551
-1.32063
-1.35
-1.38313
-1.41944
-1.45853
-1.50352
-1.56996
-1.71817
-2.07575
-2.59582
-1.3532
-1.35471
-1.35873
-1.36374
-1.36999
-1.37754
-1.38607
-1.39604
-1.40784
-1.42191
-1.43866
-1.45857
-1.48227
-1.51051
-1.54397
-1.58308
-1.62851
-1.68167
-1.74719
-1.84107
-2.01469
-2.33554
-2.65931
-1.52376
-1.52581
-1.52934
-1.5347
-1.54128
-1.5495
-1.55917
-1.57061
-1.58409
-1.59998
-1.61875
-1.64102
-1.66746
-1.69891
-1.7363
-1.78061
-1.83311
-1.89546
-1.97173
-2.07747
-2.25894
-2.5395
-2.78186
-1.69298
-1.69505
-1.69855
-1.70407
-1.71114
-1.72002
-1.73064
-1.74327
-1.75815
-1.77567
-1.79634
-1.82078
-1.84975
-1.88418
-1.92514
-1.97388
-2.032
-2.10138
-2.18622
-2.30429
-2.50369
-2.76831
-2.96259
-1.86042
-1.86251
-1.86611
-1.87183
-1.87931
-1.88877
-1.90018
-1.9138
-1.92987
-1.94878
-1.97104
-1.99728
-2.02833
-2.06521
-2.10913
-2.16159
-2.22462
-2.30087
-2.39625
-2.53007
-2.74501
-3.05397
-3.47142
-2.02607
-2.02817
-2.0319
-2.0378
-2.04564
-2.05555
-2.06759
-2.08199
-2.09899
-2.11897
-2.14244
-2.17007
-2.20267
-2.24133
-2.2874
-2.34265
-2.40954
-2.49176
-2.59699
-2.74598
-2.98727
-3.39633
-4.10279
-2.18989
-2.19199
-2.19584
-2.20188
-2.20997
-2.22022
-2.2327
-2.24763
-2.26526
-2.28599
-2.3103
-2.33883
-2.37236
-2.41202
-2.45928
-2.51601
-2.58498
-2.67057
-2.78101
-2.93535
-3.18244
-3.60665
-4.33186
-2.35181
-2.35395
-2.35783
-2.36395
-2.37219
-2.38263
-2.3954
-2.41063
-2.42858
-2.44972
-2.47447
-2.50343
-2.53719
-2.57693
-2.62437
-2.68103
-2.74965
-2.83455
-2.94289
-3.09021
-3.30948
-3.65407
-4.22916
-2.51182
-2.51397
-2.51784
-2.52396
-2.53223
-2.54272
-2.55555
-2.57088
-2.58895
-2.61014
-2.63485
-2.66365
-2.69719
-2.73647
-2.78281
-2.8378
-2.90372
-2.98413
-3.0844
-3.21381
-3.38993
-3.63895
-4.01344
-2.6699
-2.67204
-2.67584
-2.6819
-2.69009
-2.7005
-2.71323
-2.72845
-2.74637
-2.76729
-2.7916
-2.81981
-2.85252
-2.89053
-2.93486
-2.98685
-3.04827
-3.12155
-3.21013
-3.31892
-3.45472
-3.62815
-3.85417
-2.82606
-2.82817
-2.83186
-2.83777
-2.84578
-2.85598
-2.86847
-2.88338
-2.90091
-2.9213
-2.94489
-2.9721
-3.00345
-3.03957
-3.08121
-3.12938
-3.18531
-3.25048
-3.32681
-3.41683
-3.5227
-3.64732
-3.79403
-2.98034
-2.98239
-2.98593
-2.99164
-2.99937
-3.00924
-3.02133
-3.03577
-3.05271
-3.07234
-3.09494
-3.12083
-3.15045
-3.18426
-3.22279
-3.26676
-3.31693
-3.37418
-3.43947
-3.51396
-3.59833
-3.69268
-3.79657
-3.13279
-3.13475
-3.13812
-3.14357
-3.15095
-3.16038
-3.17195
-3.18576
-3.20193
-3.22062
-3.24202
-3.26639
-3.29404
-3.32529
-3.36054
-3.40022
-3.44479
-3.4947
-3.55037
-3.61213
-3.67983
-3.7527
-3.82894
-3.28345
-3.2853
-3.2885
-3.29365
-3.30062
-3.30954
-3.32048
-3.33353
-3.3488
-3.36639
-3.38645
-3.40916
-3.4347
-3.46333
-3.49528
-3.53078
-3.5701
-3.61338
-3.66068
-3.7119
-3.76648
-3.82339
-3.88088
-3.43238
-3.43412
-3.43713
-3.44197
-3.4485
-3.45685
-3.46708
-3.47929
-3.49354
-3.50993
-3.52855
-3.54951
-3.57292
-3.59893
-3.62766
-3.65924
-3.69374
-3.73114
-3.77132
-3.81396
-3.85844
-3.90377
-3.9486
-3.57965
-3.58128
-3.5841
-3.58862
-3.59469
-3.60244
-3.61194
-3.62324
-3.63642
-3.65153
-3.66865
-3.68783
-3.70911
-3.73257
-3.75826
-3.78621
-3.81637
-3.84866
-3.88283
-3.91853
-3.95519
-3.99195
-4.02779
-3.72535
-3.72686
-3.72949
-3.73369
-3.73931
-3.74646
-3.7552
-3.76558
-3.77765
-3.79147
-3.80707
-3.82447
-3.84368
-3.8647
-3.88755
-3.91217
-3.93849
-3.96634
-3.99547
-4.02552
-4.056
-4.08624
-4.11547
-3.86957
-3.87098
-3.87342
-3.8773
-3.88246
-3.88902
-3.89701
-3.90647
-3.91745
-3.92999
-3.94409
-3.95974
-3.97695
-3.99568
-4.0159
-4.03752
-4.06043
-4.08445
-4.10932
-4.13474
-4.16032
-4.18552
-4.2098
-4.01241
-4.01374
-4.01597
-4.01953
-4.02425
-4.03025
-4.03751
-4.04608
-4.05599
-4.06727
-4.07991
-4.0939
-4.10921
-4.12579
-4.1436
-4.16252
-4.18242
-4.20312
-4.22441
-4.24602
-4.26764
-4.28889
-4.30937
-4.15399
-4.15524
-4.15726
-4.16052
-4.1648
-4.17024
-4.17679
-4.1845
-4.1934
-4.20347
-4.21473
-4.22714
-4.24066
-4.25526
-4.27085
-4.28733
-4.30457
-4.32241
-4.34065
-4.35909
-4.37748
-4.39555
-4.41302
-4.29442
-4.29561
-4.29741
-4.30038
-4.30423
-4.30912
-4.31499
-4.32188
-4.32979
-4.33873
-4.34867
-4.35959
-4.37146
-4.38421
-4.39778
-4.41207
-4.42696
-4.44229
-4.45791
-4.47366
-4.48936
-4.50479
-4.51981
-4.43385
-4.43494
-4.43655
-4.43922
-4.44266
-4.44702
-4.45222
-4.45832
-4.4653
-4.47315
-4.48186
-4.49139
-4.5017
-4.51276
-4.52449
-4.53679
-4.54956
-4.56269
-4.57603
-4.58945
-4.60283
-4.61602
-4.62893
-4.57239
-4.57336
-4.5748
-4.57718
-4.5802
-4.58404
-4.58861
-4.59395
-4.60004
-4.60686
-4.6144
-4.62262
-4.6315
-4.64099
-4.65103
-4.66152
-4.67239
-4.68353
-4.69484
-4.70621
-4.71754
-4.72874
-4.73978
-4.71015
-4.71099
-4.71227
-4.71436
-4.71698
-4.72032
-4.72426
-4.72888
-4.73411
-4.73996
-4.7464
-4.75341
-4.76095
-4.76899
-4.77747
-4.78631
-4.79544
-4.80478
-4.81425
-4.82376
-4.83325
-4.84266
-4.85196
-4.84727
-4.84795
-4.84908
-4.85089
-4.85312
-4.85597
-4.85932
-4.86323
-4.86765
-4.87257
-4.87798
-4.88385
-4.89015
-4.89684
-4.90388
-4.9112
-4.91874
-4.92644
-4.93424
-4.94206
-4.94987
-4.95761
-4.96529
-4.98383
-4.98434
-4.98533
-4.98685
-4.98871
-4.99109
-4.99386
-4.9971
-5.00074
-5.00479
-5.00923
-5.01404
-5.01918
-5.02463
-5.03033
-5.03625
-5.04234
-5.04855
-5.05482
-5.06111
-5.06738
-5.07359
-5.07976
-5.11994
-5.12027
-5.12112
-5.12236
-5.12385
-5.12578
-5.128
-5.1306
-5.1335
-5.13673
-5.14026
-5.14406
-5.14813
-5.15242
-5.1569
-5.16154
-5.1663
-5.17115
-5.17604
-5.18094
-5.1858
-5.19062
-5.19541
-5.2557
-5.25583
-5.25655
-5.25751
-5.25865
-5.26014
-5.26183
-5.26381
-5.26602
-5.26847
-5.27113
-5.27401
-5.27706
-5.28028
-5.28364
-5.28711
-5.29066
-5.29427
-5.2979
-5.30153
-5.30512
-5.30869
-5.31223
-5.3912
-5.39113
-5.39172
-5.3924
-5.39321
-5.39427
-5.39545
-5.39684
-5.39838
-5.40009
-5.40194
-5.40394
-5.40606
-5.40828
-5.4106
-5.41299
-5.41543
-5.4179
-5.42038
-5.42285
-5.4253
-5.42773
-5.43015
-5.52646
-5.52627
-5.52672
-5.52712
-5.5276
-5.52823
-5.52892
-5.52975
-5.53065
-5.53164
-5.53273
-5.53389
-5.53513
-5.53642
-5.53777
-5.53915
-5.54055
-5.54198
-5.54341
-5.54483
-5.54623
-5.54762
-5.549
-5.6617
-5.6614
-5.66161
-5.66173
-5.66189
-5.66212
-5.66234
-5.66262
-5.6629
-5.66322
-5.66356
-5.66393
-5.66433
-5.66475
-5.66518
-5.66562
-5.66606
-5.66651
-5.66696
-5.66741
-5.66785
-5.66828
-5.66871
319.335
314.819
308.631
300.962
196.076
190.216
181.783
167.612
79.4568
78.2683
76.077
72.1084
28.6422
26.5765
25.3918
26.0519
23.8926
24.5377
24.8827
25.0608
24.8276
25.1684
25.0654
25.1918
18.0761
21.6674
24.352
24.7486
12.2191
16.7899
19.0548
22.6355
3.12226
4.653
7.54093
14.8517
0.760775
6.89802
13.5533
21.7687
-1.78886
-1.21063
0.00542219
5.1809
-2.65962
-2.51638
-1.94263
1.19805
-2.6453
-2.56155
-2.48012
-1.85656
-2.99468
-3.19027
-3.61778
-4.18418
-3.38398
-3.85662
-4.38351
-4.72621
-3.9787
-4.45759
-4.9483
-5.24475
-4.72272
-5.35499
-5.84034
-6.09633
-5.02405
-5.63732
-6.63682
-7.09011
-4.75223
-5.1384
-5.74061
-6.34265
-4.37509
-4.62991
-4.88463
-5.09521
-4.05323
-4.18556
-4.30594
-4.40222
-3.90925
-3.98082
-4.0465
-4.10047
-3.87333
-3.91928
-3.96056
-3.99483
-3.88239
-3.9141
-3.94279
-3.96734
-3.92002
-3.94321
-3.96449
-3.98318
-3.97873
-3.99659
-4.01314
-4.02798
-4.05172
-4.06598
-4.07937
-4.09161
-4.13499
-4.14675
-4.15795
-4.16837
-4.22611
-4.23605
-4.24564
-4.25471
-4.32326
-4.33181
-4.34017
-4.3482
-4.42502
-4.43247
-4.43985
-4.44705
-4.53024
-4.53677
-4.5433
-4.54978
-4.63799
-4.6437
-4.64946
-4.65522
-4.74758
-4.75251
-4.7575
-4.76252
-4.85855
-4.86273
-4.86693
-4.87117
-4.97073
-4.97416
-4.97759
-4.98107
-5.08412
-5.08686
-5.0896
-5.09235
-5.1988
-5.20093
-5.20304
-5.20515
-5.31475
-5.31633
-5.31789
-5.31945
-5.43187
-5.43295
-5.43401
-5.43509
-5.54998
-5.5506
-5.55122
-5.55184
-5.66902
-5.66921
-5.66941
-5.66961
282.286
205.535
111.508
59.893
40.6221
106.603
368.447
239.59
231.754
231.87
230.355
229.876
231.41
222.858
206.431
197.57
195.058
191.159
228.393
131.381
92.9918
50.093
29.8767
18.333
40.6821
162.949
215.361
228.653
231.405
229.557
228.447
227.806
211.723
188.097
180.174
180.531
182.035
208.996
43.5891
35.4891
34.9393
31.9714
41.315
53.2775
93.0418
149.016
206.817
231.611
232.132
234.031
221.263
191.869
169.508
163.772
169.376
173.758
186.139
25.5473
25.3436
24.4392
23.3122
23.7885
26.7798
40.6642
85.3813
209.362
260.574
219.303
291.549
268.448
185.593
158.136
162.201
167.977
170.589
172.501
25.1224
24.4612
23.1909
21.8028
21.3376
21.8854
24.5224
25.6804
269.286
628.67
835.97
655.959
362.425
177.12
120.177
167.121
171.124
172.379
171.192
25.3303
24.65
22.7518
20.2961
19.3319
20.1657
23.7903
27.4583
333.966
840.555
1002.46
698.724
349.656
126.952
81.7653
170.931
174.49
175.723
175.175
24.7502
23.9908
22.1467
19.5785
18.4352
18.7113
24.3075
80.3084
375.71
615.761
592.202
453.176
233.886
75.7247
102.01
174.913
176.784
177.757
178.026
24.2712
23.6225
22.376
19.7051
16.8625
16.7784
19.5256
73.8723
205.75
192.675
77.5659
109.471
80.7082
48.1262
96.5943
171.413
177.562
179.475
170.422
21.9312
24.1207
24.6133
24.1897
20.2843
17.8094
1.44569
8.38949
48.0569
53.6241
37.4321
33.803
23.9492
23.7834
115.227
186.618
156.259
162.413
157.955
29.0724
23.7262
30.5902
36.0274
39.6376
32.8832
-1.57216
-16.4078
11.245
30.3901
21.8065
16.2136
7.34234
-1.58253
73.2008
152.418
167.097
174.452
153.581
25.6838
23.1141
31.4563
39.734
46.0421
39.8136
6.16602
-14.1981
0.948337
16.2053
10.0129
6.6387
2.43636
-1.24772
26.8536
97.618
150.608
169.358
135.278
15.043
23.7474
24.6966
13.3696
29.1289
38.8342
-0.638328
-26.7135
-10.2906
0.618918
2.28873
1.60705
0.0261729
-1.12146
-0.933808
6.81046
39.6355
106.135
119.725
5.42222
4.80555
9.26883
13.2257
16.8062
17.343
11.1589
20.8822
-3.50879
-4.48446
-1.1651
-1.19468
-1.83186
-2.16168
-2.04634
-0.851826
6.59426
43.7864
139.853
-5.26349
-5.37856
6.23072
21.7665
27.0154
22.0955
3.1613
-3.96728
-4.98358
-4.16161
-2.69684
-2.78273
-2.84932
-2.80556
-2.59206
-2.46627
0.0812915
16.8898
65.3567
-5.05022
-4.9664
-4.60823
-4.13439
-3.76281
-3.60337
-3.34186
-3.56641
-3.90952
-3.83652
-3.51159
-3.61846
-3.43355
-3.20342
-2.85693
-2.71564
-1.05445
6.59842
27.1348
-5.55491
-5.35366
-4.75383
-4.1271
-3.68435
-3.40128
-3.27975
-3.29256
-3.56678
-3.87359
-3.99989
-4.01901
-3.74362
-3.43366
-2.99013
-2.77765
-1.86677
1.00115
8.88395
-6.2865
-5.88538
-4.92395
-4.06501
-3.50192
-3.12841
-2.9173
-3.01063
-3.41691
-3.90234
-4.1722
-4.10389
-3.81253
-3.46741
-3.08606
-2.8349
-2.46156
-2.05385
1.93134
-7.09809
-6.20993
-4.99471
-4.04585
-3.46209
-3.08964
-2.87498
-2.96077
-3.35005
-3.80328
-4.03996
-3.9681
-3.69958
-3.38579
-3.06285
-2.83299
-2.60562
-2.64556
-1.33774
-6.7065
-5.86058
-4.79096
-3.98751
-3.51006
-3.23803
-3.10202
-3.10861
-3.32725
-3.61519
-3.78203
-3.7296
-3.52801
-3.28154
-3.02655
-2.85626
-2.71225
-2.87337
-1.88409
-5.26912
-5.04181
-4.45083
-3.92153
-3.59044
-3.3969
-3.2908
-3.2752
-3.36005
-3.49422
-3.57636
-3.54078
-3.40405
-3.22
-3.01848
-2.88021
-2.80097
-3.05036
-2.27221
-4.51927
-4.46916
-4.19517
-3.89394
-3.68003
-3.54306
-3.45917
-3.42388
-3.43885
-3.48399
-3.51068
-3.47468
-3.36899
-3.21654
-3.03591
-2.87588
-2.78031
-2.90457
-3.02808
-4.17191
-4.17322
-4.06001
-3.89887
-3.76299
-3.66523
-3.59843
-3.55994
-3.54877
-3.5536
-3.54657
-3.49884
-3.39992
-3.25672
-3.0732
-2.86401
-2.69278
-2.4768
-0.99353
-4.0406
-4.0507
-4.00632
-3.92178
-3.83714
-3.76864
-3.71756
-3.68311
-3.66371
-3.65139
-3.62825
-3.57445
-3.4794
-3.34138
-3.15013
-2.88823
-2.63294
-2.67735
-3.56575
-4.00171
-4.02322
-4.00195
-3.95763
-3.90659
-3.86085
-3.82463
-3.79884
-3.78203
-3.76746
-3.74199
-3.69165
-3.60793
-3.48729
-3.31434
-3.01205
-2.66937
-2.7533
-1.03025
-4.01026
-4.03095
-4.02675
-4.0054
-3.97646
-3.94832
-3.9259
-3.91152
-3.90387
-3.89653
-3.87931
-3.84332
-3.78497
-3.70656
-3.61917
-3.37892
-3.03008
-3.37306
-4.17905
-4.04995
-4.0692
-4.07301
-4.06476
-4.05008
-4.03498
-4.0248
-4.02325
-4.02889
-4.03506
-4.03413
-4.02184
-4.0018
-3.99438
-4.07447
-4.04361
-4.1611
-4.40866
-0.273768
-4.11005
-4.12775
-4.13535
-4.13452
-4.12876
-4.12283
-4.12301
-4.1348
-4.15583
-4.17894
-4.19897
-4.21511
-4.23681
-4.30353
-4.55323
-4.82989
-4.8928
-5.4483
-4.97544
-4.18428
-4.20058
-4.2099
-4.21331
-4.213
-4.21313
-4.22178
-4.24611
-4.28171
-4.32147
-4.36282
-4.40723
-4.47327
-4.59572
-4.91676
-5.52576
-5.60291
-5.73814
-5.2955
-4.26875
-4.28388
-4.29401
-4.30013
-4.30325
-4.30718
-4.32213
-4.356
-4.40191
-4.45412
-4.51155
-4.57305
-4.65384
-4.79365
-5.11502
-5.77448
-5.8178
-5.83847
-5.26087
-4.36082
-4.37514
-4.3855
-4.3941
-4.39988
-4.40642
-4.4247
-4.46243
-4.51174
-4.56892
-4.63248
-4.69561
-4.76491
-4.87591
-5.09337
-5.54165
-5.57547
-5.61595
-5.24313
-4.4586
-4.47267
-4.48493
-4.49419
-4.50242
-4.51146
-4.52987
-4.56432
-4.60885
-4.66088
-4.71788
-4.76934
-4.81539
-4.87053
-4.95891
-5.1636
-5.19771
-5.24662
-4.57061
-4.56034
-4.57392
-4.5864
-4.59751
-4.60839
-4.62023
-4.63719
-4.66365
-4.69691
-4.73551
-4.77689
-4.80943
-4.82445
-4.8432
-4.86227
-4.95452
-4.97642
-4.99189
-4.52712
-4.66476
-4.67757
-4.68992
-4.70178
-4.71423
-4.72804
-4.74402
-4.76333
-4.78514
-4.80898
-4.8331
-4.85261
-4.86085
-4.86644
-4.87376
-4.90391
-4.90282
-4.86069
-4.73852
-4.77093
-4.7826
-4.79417
-4.80567
-4.81791
-4.83167
-4.84687
-4.86266
-4.87816
-4.89275
-4.90623
-4.91736
-4.92282
-4.9252
-4.92381
-4.92195
-4.90348
-4.86307
-4.80728
-4.87836
-4.88859
-4.89899
-4.90928
-4.92023
-4.93232
-4.94578
-4.9597
-4.97257
-4.98301
-4.99115
-4.99716
-4.99866
-4.99519
-4.98423
-4.9716
-4.95059
-4.92104
-4.87847
-4.98699
-4.99556
-5.00414
-5.01335
-5.02286
-5.03309
-5.04434
-5.05605
-5.06701
-5.07575
-5.08145
-5.08434
-5.08262
-5.07592
-5.06127
-5.04983
-5.03222
-5.01156
-4.9741
-5.09708
-5.10409
-5.11132
-5.119
-5.12713
-5.1359
-5.14557
-5.15544
-5.1645
-5.17219
-5.17784
-5.18054
-5.17827
-5.17233
-5.159
-5.1521
-5.13852
-5.12464
-5.08739
-5.20881
-5.2144
-5.22032
-5.22671
-5.23368
-5.24134
-5.24991
-5.25865
-5.26679
-5.27411
-5.28031
-5.28402
-5.28327
-5.28024
-5.27124
-5.26957
-5.262
-5.25591
-5.22542
-5.32217
-5.32649
-5.33123
-5.33649
-5.34248
-5.34926
-5.35697
-5.36499
-5.3729
-5.38054
-5.38765
-5.39269
-5.39453
-5.39487
-5.3914
-5.39419
-5.39358
-5.39531
-5.39451
-5.43698
-5.44013
-5.44374
-5.44801
-5.45313
-5.45919
-5.46625
-5.47389
-5.48191
-5.49013
-5.4982
-5.50488
-5.50973
-5.5134
-5.51527
-5.52116
-5.52523
-5.53118
-5.54919
-5.55296
-5.55494
-5.55745
-5.56079
-5.56512
-5.57055
-5.57708
-5.58456
-5.59288
-5.60178
-5.61089
-5.61938
-5.62719
-5.63445
-5.64135
-5.65039
-5.65727
-5.66521
-5.67486
-5.66999
-5.67071
-5.67197
-5.67424
-5.67769
-5.68247
-5.6886
-5.69613
-5.70498
-5.71473
-5.72505
-5.7353
-5.7461
-5.75739
-5.76974
-5.78404
-5.79338
-5.80651
-5.80549
)
;

boundaryField
{
    leftWall
    {
        type            calculated;
        value           nonuniform List<scalar> 
50
(
498.292
438.937
378.274
316.864
255.397
194.012
132.684
71.1678
18.8387
2.38449
0.93998
0.307423
0.0480337
-0.114574
-0.292951
-0.48423
-0.662146
-0.833626
-1.00736
-1.18113
-1.3532
-1.52376
-1.69298
-1.86042
-2.02607
-2.18989
-2.35181
-2.51182
-2.6699
-2.82606
-2.98034
-3.13279
-3.28345
-3.43238
-3.57965
-3.72535
-3.86957
-4.01241
-4.15399
-4.29442
-4.43385
-4.57239
-4.71015
-4.84727
-4.98383
-5.11994
-5.2557
-5.3912
-5.52646
-5.6617
)
;
    }
    rightWall
    {
        type            calculated;
        value           nonuniform List<scalar> 
50
(
1062.86
1003.58
931.682
839.693
719.992
566.802
405.438
297.166
228.393
208.996
186.139
172.501
171.192
175.175
178.026
170.422
157.955
153.581
135.278
119.725
139.853
65.3567
27.1348
8.88395
1.93134
-1.33774
-1.88409
-2.27221
-3.02808
-0.99353
-3.56575
-1.03025
-4.17905
-0.273768
-4.97544
-5.2955
-5.26087
-5.24313
-4.57061
-4.52712
-4.73852
-4.80728
-4.87847
-4.9741
-5.08739
-5.22542
-5.39451
-5.54919
-5.67486
-5.80549
)
;
    }
    lowerWall
    {
        type            calculated;
        value           nonuniform List<scalar> 
62
(
527.721
527.392
529.085
533.467
542.269
557.193
578.05
601.342
623.912
645.323
666.047
686.208
705.64
724.162
741.585
757.298
771.229
781.365
783.438
785.942
793.812
819.162
843.949
814.559
750.406
686.842
627.083
570.338
513.962
458.711
405.636
381.93
377.416
371.229
363.56
758.93
695.849
602.562
500.651
428.815
393.125
385.94
358.666
783.803
665.753
685.894
773.276
863.471
910.602
916.736
868.701
876.341
792.204
594.517
451.866
392.937
375.678
378.336
460.934
714.734
1020.25
1091.32
)
;
    }
    atmosphere
    {
        type            calculated;
        value           nonuniform List<scalar> 
46
(
-5.72904
-5.72904
-5.72904
-5.72904
-5.72904
-5.72904
-5.72904
-5.72904
-5.72904
-5.72904
-5.72904
-5.72904
-5.72904
-5.72904
-5.72904
-5.72904
-5.72904
-5.72904
-5.72904
-5.72904
-5.72904
-5.72904
-5.72904
-5.72904
-5.72904
-5.72904
-5.72904
-5.72904
-5.72904
-5.7295
-5.73118
-5.7341
-5.73861
-5.74453
-5.75219
-5.76143
-5.77159
-5.78257
-5.79338
-5.80582
-5.81922
-5.83508
-5.85444
-5.86342
-5.88459
-5.87345
)
;
    }
    defaultFaces
    {
        type            empty;
    }
}


// ************************************************************************* //
