/*--------------------------------*- C++ -*----------------------------------*\
| =========                 |                                                 |
| \\      /  F ield         | OpenFOAM: The Open Source CFD Toolbox           |
|  \\    /   O peration     | Version:  5.x                                   |
|   \\  /    A nd           | Web:      www.OpenFOAM.org                      |
|    \\/     M anipulation  |                                                 |
\*---------------------------------------------------------------------------*/
FoamFile
{
    version     2.0;
    format      ascii;
    class       volScalarField;
    location    "0.7";
    object      p_rgh;
}
// * * * * * * * * * * * * * * * * * * * * * * * * * * * * * * * * * * * * * //

dimensions      [1 -1 -2 0 0 0 0];

internalField   nonuniform List<scalar> 
2268
(
527.721
527.392
529.085
533.467
542.269
557.193
578.05
601.342
623.912
645.323
666.047
686.208
705.64
724.162
741.585
757.298
771.229
781.365
783.438
785.942
793.812
819.162
843.949
527.225
526.443
528.005
532.287
540.839
555.783
577.03
600.876
623.8
645.359
666.133
686.318
705.772
724.306
741.778
757.711
771.953
783.476
785.329
781.951
784.904
808.223
838.691
525.421
524.376
526.113
530.251
538.169
552.906
574.816
599.893
623.62
645.483
666.376
686.594
706.025
724.475
741.796
757.784
772.32
785.778
792.837
781.514
776.636
797.638
833.988
522.87
521.645
523.476
527.272
534.23
548.574
571.641
598.704
623.604
645.844
666.834
687.092
706.536
724.942
742.189
758.161
772.753
785.841
795.114
793.301
781.361
798.953
833.019
520.261
518.716
520.357
523.743
530.018
544.012
568.849
597.933
623.956
646.519
667.584
687.869
707.32
725.698
742.933
758.948
773.576
786.483
796.986
800.882
798.059
813.834
835.202
517.735
515.888
516.91
519.898
526.232
541.039
567.221
597.574
624.403
647.369
668.635
688.939
708.368
726.692
743.929
760.019
774.775
788.019
799.482
807.208
813.975
821.676
837.685
515.266
514.043
514.043
516.674
524.168
540.097
566.343
596.703
624.136
647.871
669.724
690.324
709.75
727.964
745.172
761.324
776.191
789.669
801.834
811.748
820.969
828.639
841.292
499.516
482.329
466.105
455.647
459.729
480.654
526.837
590.166
623.123
648.231
670.948
691.898
711.307
729.277
746.501
762.839
777.878
791.514
804.351
815.807
826.818
835.034
847.073
783.803
665.753
685.894
773.276
863.471
910.602
916.736
868.701
876.341
792.204
594.517
451.866
392.937
375.678
378.336
460.934
714.734
1020.25
1091.32
775.244
621.288
653.028
763.706
861.427
907.85
907.496
852.135
863.893
716.317
476.073
365.931
351.819
358.731
365.655
423.031
634.952
980.077
1091.87
748.893
569.571
626.118
752.344
862.177
916.327
916.56
860.312
770.509
461.104
281.439
256.549
257.474
260.905
260.313
275.997
410.857
827.184
1078.83
706.656
529.922
601.149
742.412
864.289
937.435
967.321
870.597
573.988
268.392
237.26
234.639
236.535
236.104
227.324
220.031
260.402
541.941
1045.7
693.679
421.655
572.273
735.311
862.999
962.041
1057.01
849.209
412.852
238.281
233.708
234.243
238.07
236.838
226.231
216.091
226.152
353.06
984.857
637.081
396.654
578.574
724.574
846.149
961.873
1109.07
763.966
292.131
235.351
233.302
234.6
237.556
237.904
226.679
214.945
211.744
263.989
863.676
460.999
523.688
624.338
693.682
793.726
919.055
1108.27
620.534
247.756
234.547
232.978
233.874
237.208
237.158
224.69
213.802
206.768
223.345
594.342
712.3
681.109
626.367
621.086
626
807.964
1047.81
551.05
243.344
233.811
232.488
232.966
236.213
235.352
220.476
209.536
203.465
207.291
445.604
170.464
167.4
165.323
176.068
212.762
281.816
376.063
477.894
568.528
635.53
672.83
694.788
714.476
731.791
748.758
765.375
780.643
794.244
807.892
821.932
835.536
844.965
853.171
5.19623
16.3463
29.5438
43.6489
54.5801
62.4245
76.8815
122.638
204.904
318.864
443.898
553.18
627.248
676.523
734.739
766.817
785.399
798.232
812.819
832.621
852.309
864.019
861.916
1.72383
1.34164
1.22171
1.07474
0.965611
0.952203
0.996803
1.08246
1.1254
1.27876
26.6946
86.2199
150.203
202.763
262.126
368.39
465.884
502.757
529.269
626.998
754.997
831.852
847.496
1.21642
0.988753
0.9788
0.906965
0.858534
0.873257
0.947204
1.02338
1.07182
1.11033
1.11069
1.13042
1.17304
1.25325
1.31889
1.45623
2.13615
3.66479
39.1085
145.429
450.026
731.571
553.605
1.08228
0.861656
0.881696
0.839466
0.826957
0.852973
0.907194
0.962832
1.00068
1.02471
1.04516
1.07309
1.0919
1.06864
1.04311
1.18579
1.96205
4.72749
96.5647
379.932
443.626
170.605
28.3263
1.04487
0.920719
0.876769
0.846293
0.848023
0.876708
0.918569
0.95646
0.979165
0.999788
1.01446
1.0286
1.02766
0.995629
0.953878
0.947486
0.900403
0.941751
9.11003
164.803
320.207
282.073
73.5368
0.991683
0.957055
0.906125
0.875266
0.871712
0.885505
0.905781
0.924612
0.934904
0.94298
0.94775
0.950629
0.942641
0.918777
0.883544
0.827481
0.737566
0.679843
0.794206
1.94121
47.3083
218.725
257.987
0.925599
0.93047
0.907043
0.883264
0.873575
0.874306
0.881656
0.890849
0.894821
0.893828
0.88851
0.879382
0.865897
0.845277
0.817778
0.78369
0.747878
0.735388
0.769991
0.965287
2.30028
43.8864
270.21
0.872877
0.882896
0.871624
0.85764
0.848124
0.843355
0.843861
0.845811
0.844419
0.839532
0.830845
0.818293
0.801947
0.780935
0.756206
0.731865
0.713578
0.709846
0.737261
0.825659
1.18195
3.3205
115.499
0.826592
0.830679
0.822159
0.81376
0.806253
0.80047
0.79707
0.793885
0.788688
0.78115
0.770557
0.756744
0.739788
0.719227
0.695294
0.670759
0.650569
0.641275
0.652549
0.697273
0.829052
1.53395
6.61481
0.778053
0.778638
0.772147
0.766042
0.75967
0.75348
0.747816
0.741769
0.73428
0.724563
0.71182
0.696052
0.677316
0.654989
0.629323
0.601723
0.574735
0.552191
0.536146
0.523532
0.501316
0.559737
2.37872
0.729478
0.728813
0.72388
0.718727
0.712654
0.705804
0.698601
0.690483
0.680773
0.668781
0.65402
0.636257
0.615105
0.589977
0.560608
0.52748
0.491169
0.452097
0.407302
0.342977
0.216107
0.0165965
0.471831
0.682606
0.681095
0.677067
0.672057
0.66581
0.658265
0.649735
0.639766
0.627965
0.613889
0.597139
0.577231
0.553534
0.525296
0.491835
0.452725
0.407293
0.354143
0.288742
0.199325
0.0988744
-0.0696024
0.294337
0.63724
0.635191
0.631659
0.626301
0.619718
0.611495
0.601827
0.590381
0.576907
0.56102
0.542244
0.519979
0.493541
0.462084
0.424692
0.380385
0.32789
0.265553
0.189509
0.147612
0.291279
0.07135
0.181145
0.593214
0.591141
0.587637
0.582116
0.575051
0.566168
0.555547
0.542916
0.528039
0.510517
0.489853
0.465414
0.436443
0.40201
0.361053
0.312314
0.254186
0.184822
0.100267
0.10793
0.111337
-0.255999
-0.102327
0.55096
0.548873
0.545275
0.539557
0.532072
0.522618
0.511204
0.497583
0.481511
0.462602
0.440349
0.414104
0.38305
0.346173
0.302259
0.249792
0.186763
0.110523
0.0212663
-0.0582919
-0.299728
-0.58109
0.512904
0.510506
0.508409
0.504684
0.498775
0.490941
0.481025
0.468985
0.454591
0.437594
0.417613
0.394137
0.366511
0.333906
0.295249
0.249178
0.193931
0.127038
0.0448795
-0.0580031
-0.208123
-0.447082
-0.69338
-0.622752
0.471887
0.469779
0.465935
0.459892
0.451806
0.441558
0.42907
0.41414
0.396511
0.375785
0.351472
0.322944
0.289412
0.249754
0.20249
0.145767
0.0767899
-0.00877842
-0.119215
-0.27336
-0.519903
-0.787666
-0.819443
0.435154
0.43302
0.429135
0.423017
0.41478
0.404335
0.391572
0.37634
0.358389
0.337249
0.312495
0.283543
0.249779
0.210037
0.162596
0.105935
0.0373187
-0.0475807
-0.155915
-0.303208
-0.522376
-0.797176
-0.681081
0.400344
0.398191
0.394326
0.388202
0.379932
0.369441
0.356613
0.341286
0.323212
0.302027
0.277311
0.248515
0.214969
0.175694
0.12935
0.0743672
0.00844604
-0.0719662
-0.172233
-0.301642
-0.477741
-0.723195
-1.07612
0.367462
0.365314
0.361519
0.355461
0.34727
0.336862
0.324124
0.308907
0.290992
0.270067
0.245753
0.217547
0.18484
0.146831
0.102497
0.0505063
-0.0109151
-0.0841947
-0.172775
-0.281564
-0.417356
-0.590779
-0.815503
0.336493
0.334378
0.330695
0.324777
0.31677
0.306574
0.294084
0.279167
0.26164
0.241247
0.217662
0.190453
0.159101
0.122984
0.0813442
0.0331733
-0.0227566
-0.0879302
-0.164255
-0.254274
-0.360148
-0.484762
-0.631302
0.307404
0.305353
0.301814
0.296104
0.288373
0.278509
0.266415
0.251975
0.235037
0.215404
0.192809
0.166912
0.137294
0.103491
0.0649558
0.0209914
-0.02918
-0.0864293
-0.151719
-0.226218
-0.31058
-0.404937
-0.508809
0.280153
0.27819
0.274818
0.269367
0.26199
0.252561
0.240992
0.227181
0.211007
0.192319
0.170918
0.146549
0.118905
0.0876472
0.0523977
0.0127209
-0.0318487
-0.0817629
-0.137431
-0.199185
-0.266887
-0.339764
-0.415993
0.254687
0.252832
0.249638
0.244481
0.237513
0.228598
0.217659
0.204604
0.189339
0.171743
0.151682
0.128981
0.103431
0.074806
0.0428603
0.0073509
-0.0319608
-0.0752412
-0.122548
-0.173763
-0.228349
-0.285254
-0.342746
0.230951
0.229211
0.226201
0.221359
0.214834
0.206484
0.196248
0.184042
0.169789
0.153396
0.134776
0.113822
0.0904087
0.0644036
0.0356684
0.00409037
-0.0304055
-0.0678132
-0.107989
-0.150625
-0.195108
-0.24044
-0.285266
0.208873
0.207249
0.204427
0.199905
0.193838
0.186082
0.176589
0.165288
0.15211
0.136991
0.11987
0.100697
0.0794113
0.0559505
0.0302615
0.00231856
-0.0278489
-0.0601354
-0.0943083
-0.130006
-0.166661
-0.203429
-0.239263
0.188367
0.186856
0.184225
0.180025
0.174414
0.167258
0.158521
0.148144
0.136068
0.122248
0.106647
0.0892503
0.0700436
0.0490156
0.0261714
0.00154614
-0.0247714
-0.0526217
-0.0817474
-0.111796
-0.14228
-0.172524
-0.201749
0.169344
0.167933
0.165498
0.161617
0.156456
0.149889
0.141901
0.13244
0.121459
0.108927
0.0948288
0.0791695
0.0619632
0.0432324
0.0230177
0.00139412
-0.0215159
-0.0455323
-0.0704075
-0.0958292
-0.121401
-0.146606
-0.170883
0.151699
0.150372
0.148142
0.144576
0.139857
0.133863
0.126603
0.118033
0.108118
0.096839
0.0841962
0.0702063
0.0548981
0.0383134
0.0205126
0.0015927
-0.0183079
-0.0390114
-0.0602985
-0.0819094
-0.103531
-0.124778
-0.145257
0.135317
0.13406
0.132043
0.128784
0.124501
0.119064
0.112511
0.1048
0.0959076
0.08583
0.0745757
0.0621673
0.0486408
0.0340468
0.0184556
0.0019705
-0.0152712
-0.0331062
-0.0513481
-0.0697859
-0.0881769
-0.106243
-0.123722
0.120074
0.118889
0.117083
0.11412
0.110267
0.105373
0.0995056
0.0926183
0.0847033
0.0757687
0.0658277
0.0549056
0.0430415
0.0302874
0.0167151
0.0024246
-0.0124581
-0.0277902
-0.0434165
-0.0591671
-0.0748577
-0.0902951
-0.105315
0.105844
0.104753
0.103139
0.100467
0.0970349
0.0926726
0.0874694
0.0813718
0.0743896
0.0665396
0.0578359
0.0483057
0.0379878
0.0269318
0.0152054
0.0029004
-0.00987275
-0.0229935
-0.0363344
-0.0497601
-0.0631334
-0.0763256
-0.089241
0.0925014
0.0915306
0.0900876
0.0877074
0.084686
0.0808427
0.0762809
0.070941
0.0648508
0.0580291
0.0504907
0.0422635
0.0333826
0.0238942
0.0138606
0.00336301
-0.00750462
-0.018643
-0.0299495
-0.0413186
-0.0526488
-0.0638575
-0.0748928
0.0799269
0.0790948
0.077809
0.0757184
0.0730989
0.0697597
0.0658162
0.0612052
0.0559693
0.0501231
0.0436818
0.0366729
0.0291276
0.0210892
0.0126145
0.00377328
-0.0053571
-0.0146973
-0.0241662
-0.0336825
-0.0431696
-0.0525763
-0.061876
0.0680086
0.0673297
0.0661928
0.0643875
0.0621586
0.059306
0.055959
0.0520495
0.0476302
0.0427078
0.0372982
0.031428
0.0251259
0.018432
0.011397
0.00407914
-0.00346141
-0.0111623
-0.0189597
-0.0267893
-0.0345928
-0.0423383
-0.0500124
0.0566414
0.0561315
0.0551388
0.0536156
0.0517622
0.0493793
0.0466067
0.0433695
0.0397273
0.0356775
0.0312378
0.0264327
0.0212895
0.0158436
0.0101381
0.00421831
-0.00186982
-0.00807727
-0.0143527
-0.0206445
-0.0269086
-0.0331246
-0.0392881
0.0457239
0.0453976
0.0445478
0.0433054
0.0418117
0.0398841
0.0376637
0.0350683
0.0321631
0.0289364
0.0254089
0.0216015
0.017538
0.0132489
0.00876677
0.00412588
-0.000637693
-0.00548576
-0.0103772
-0.015271
-0.0201348
-0.0249579
-0.0297438
0.0351568
0.0350295
0.0343125
0.0333502
0.0322044
0.0307183
0.0290283
0.0270465
0.0248406
0.0223927
0.0197243
0.0168527
0.013795
0.0105751
0.00721784
0.00374824
0.000195545
-0.00341216
-0.00704314
-0.0106681
-0.0142644
-0.0178295
-0.0213724
0.0248509
0.0249196
0.0243325
0.023649
0.022842
0.0217851
0.0206046
0.0192111
0.0176719
0.0159646
0.0141089
0.0121161
0.00999712
0.00776871
0.00545174
0.00306414
0.00062509
-0.00184661
-0.00432787
-0.00680053
-0.00924973
-0.0116764
-0.0140917
0.014785
0.0149815
0.0145259
0.0141278
0.0136486
0.0130158
0.0123252
0.0114998
0.0106017
0.00960416
0.0085224
0.00735938
0.00612316
0.0048258
0.00348178
0.0021019
0.000693287
-0.000732174
-0.00215973
-0.00357875
-0.00498118
-0.00636767
-0.00774754
0.00474404
0.00504495
0.00483677
0.004711
0.00454827
0.00432505
0.00410034
0.00382329
0.00354041
0.00322572
0.00288467
0.00251081
0.00210864
0.00168849
0.00125997
0.000826354
0.000383071
-6.87791e-05
-0.00052221
-0.000969284
-0.00140642
-0.00183671
-0.0022673
852.786
848.286
842.099
834.429
854.705
848.864
840.432
826.246
804.894
786.893
781.67
731.165
60.7285
30.6321
52.082
68.8584
28.5067
28.9308
27.9088
26.945
38.7766
31.8501
28.1627
27.0871
265.848
179.213
28.7595
27.0889
286.433
293.299
295.956
139.752
304.186
307.838
319.001
331.642
182.219
343.761
356.181
367.923
10.1652
31.0179
73.9287
341.054
3.97949
19.5227
54.8532
493.348
4.08925
6.7549
8.1384
61.5499
3.29483
10.4198
6.06835
-0.857706
9.34406
11.9842
9.27213
-2.09738
12.7295
12.5548
8.5824
-2.82029
12.0684
12.5247
11
-3.54409
2.77797
10.6523
11.8203
10.7671
-1.6215
-1.29194
1.14924
4.918
-1.44398
-1.68746
-1.92881
-2.10611
-1.01429
-1.14472
-1.26431
-1.36078
-0.746467
-0.81802
-0.883608
-0.937617
-0.585559
-0.631515
-0.672795
-0.707061
-0.469449
-0.501152
-0.529846
-0.554401
-0.38188
-0.405076
-0.426352
-0.445046
-0.315397
-0.33326
-0.349811
-0.36465
-0.263191
-0.277455
-0.290845
-0.303086
-0.22127
-0.233028
-0.244226
-0.254649
-0.187198
-0.197135
-0.206727
-0.215798
-0.159152
-0.167706
-0.176064
-0.184094
-0.135716
-0.143172
-0.150546
-0.157751
-0.115738
-0.122273
-0.128807
-0.135284
-0.0982941
-0.10401
-0.109767
-0.11553
-0.0826893
-0.0876281
-0.0926122
-0.0976306
-0.0684729
-0.072645
-0.0768462
-0.081089
-0.0554553
-0.0588826
-0.0623192
-0.0657905
-0.0436539
-0.0463935
-0.049128
-0.0518811
-0.0331378
-0.0352628
-0.0373727
-0.0394869
-0.023894
-0.0254697
-0.0270279
-0.0285888
-0.0158172
-0.0168934
-0.0179589
-0.0190343
-0.00873345
-0.0093515
-0.00996749
-0.0105943
-0.00257764
-0.00277195
-0.00296749
-0.00317076
815.731
737.8
587.298
340.053
246.843
492.126
894.09
658.617
239.131
232.853
231.344
230.957
233.421
229.421
209.812
199.468
196.777
194.214
385.004
783.807
614.925
114.003
98.3045
91.619
207.353
727.973
827.51
288.337
232.625
230.771
229.665
236.143
324.288
232.848
186.918
182.549
183.642
434.989
333.769
43.9724
41.6113
132.715
294.182
357.51
563.452
877.519
728.739
256.242
233.584
237.909
466.326
773.581
555.688
206.244
170.998
175.249
492.025
44.9673
34.5874
31.8167
24.7236
25.1971
85.6161
271.751
930.238
1050.85
870.153
567.805
638.58
980.018
947.418
888.495
316.484
169.449
172.11
542.456
26.8012
26.1209
24.7967
23.4049
22.9376
23.494
36.7443
494.69
1209.17
1552.04
1160.32
1471.18
1229.17
1043.86
986.921
410.992
172.735
174.015
616.32
27.1922
26.4987
24.5654
22.0902
21.1259
21.9598
26.3345
387.756
1369.32
1597.03
1366.82
1666.45
1320.49
1098.61
1019.71
352.599
176.287
177.524
723.938
26.8501
26.0537
24.2161
22.0696
20.423
21.4785
42.9905
506.689
1241.25
1245.36
1587.28
1492.24
1306.57
1147.78
963.519
263.449
178.775
179.748
880.29
27.2058
26.0006
24.9435
23.4655
20.0989
30.1625
305.765
783.651
930.566
710.363
446.102
470.37
1223.83
1204.21
779.407
302.527
179.747
186.438
1111.53
199.403
27.3975
28.7015
29.643
30.0575
104.228
480.399
554.313
356.151
189.015
42.5173
47.6664
522.395
1199.47
733.541
755.419
680.805
757.366
1266.71
375.544
149.612
37.1095
42.7704
46.1351
86.8836
93.3505
41.5823
88.6277
149.997
24.6259
20.9264
19.9906
540.883
1404.01
1513.11
1573.89
1571.05
1414.64
730.801
790.265
207.821
46.7178
53.0296
52.7289
17.6398
2.58958
438.373
283.214
12.1052
8.59201
4.86049
24.5964
776.755
1351.71
1693.15
1897.4
1874.41
994.078
1050.72
1060.88
860.298
620.123
525.556
440.946
621.498
634.032
198.882
4.27323
3.53381
1.97841
0.960228
1.76037
12.3926
421.527
1320.52
2030.33
532.08
1040.67
1150.75
1159.98
1163.56
1164.1
1156.64
1028.03
131.095
-2.36328
0.88806
0.845818
0.210813
-0.107032
0.100984
1.96954
12.5971
165.458
1706.57
-3.09077
-3.20436
393.686
912.822
1073.28
919.455
258.29
-1.4453
-2.34595
-1.98027
-0.530926
-0.616855
-0.682839
-0.637062
-0.410565
-0.17137
3.08062
45.6314
274.842
-2.75169
-2.66781
-2.3089
-1.83204
-1.45038
-1.27862
10.3325
-1.20897
-1.53669
-1.54348
-1.22213
-1.32775
-1.14225
-0.91068
-0.561392
-0.408381
2.94529
31.0239
104.036
-3.13045
-2.92922
-2.32834
-1.70123
-1.25121
-0.954493
-0.830458
-0.856281
-1.13787
-1.45924
-1.58574
-1.6029
-1.30946
-0.998298
-0.567391
-0.364435
11.8678
24.1018
303.335
-3.73617
-3.33389
-2.37431
-1.51067
-0.803856
-0.430748
-0.217947
-0.455788
-0.87343
-1.36405
-1.63293
-1.55142
-1.23843
-0.893319
-0.533174
-0.287737
1.66081
4.73074
79.0014
-2.5829
-3.34113
-2.32641
-1.38307
-0.800103
-0.377605
-0.0485578
-0.282197
-0.678461
-1.14065
-1.37777
-1.27439
-0.998991
-0.684647
-0.37735
-0.1608
0.06742
0.0466971
1.32403
2.44997
-2.43698
-2.00128
-1.20043
-0.723073
-0.451048
-0.315036
-0.314056
-0.534202
-0.827644
-0.99478
-0.938137
-0.706526
-0.459882
-0.234952
-0.063303
0.0864863
-0.00206873
0.902878
-1.72709
-1.79481
-1.53795
-1.00927
-0.678263
-0.484736
-0.378627
-0.363017
-0.447806
-0.581904
-0.664081
-0.628536
-0.491793
-0.307735
-0.106197
0.0489061
0.128366
0.140817
0.639949
-1.47617
-1.4314
-1.15777
-0.856577
-0.642667
-0.505704
-0.421798
-0.386451
-0.401311
-0.446455
-0.473175
-0.437248
-0.33154
-0.179081
0.00156785
0.469954
0.457666
0.376476
0.00927642
-1.00877
-1.0104
-0.897458
-0.736313
-0.600436
-0.502672
-0.435861
-0.397259
-0.386033
-0.390881
-0.383966
-0.336225
-0.237189
-0.0940479
0.0894762
0.73953
0.879935
0.978685
11.8917
-0.752825
-0.762934
-0.718567
-0.634033
-0.549391
-0.480891
-0.429814
-0.395364
-0.375949
-0.363639
-0.340495
-0.286532
-0.190125
-0.0530461
0.137765
0.843231
1.06895
0.95104
913.279
-0.588769
-0.610277
-0.589004
-0.544683
-0.493641
-0.447901
-0.411685
-0.385887
-0.369072
-0.354515
-0.329045
-0.27772
-0.19334
-0.0729492
0.0990815
0.750575
1.13174
1.20215
2025.99
-0.472126
-0.492816
-0.488617
-0.467261
-0.438322
-0.410179
-0.387756
-0.373344
-0.3657
-0.358371
-0.341162
-0.304652
-0.245103
-0.1666
-0.0799313
0.600272
5.87968
1.40979
1865.27
-0.386622
-0.405864
-0.40968
-0.401429
-0.386747
-0.371649
-0.361449
-0.359881
-0.365517
-0.371698
-0.370788
-0.358502
-0.337222
-0.329337
-0.40966
2.52493
25.7758
12.8604
272.263
-0.321524
-0.339229
-0.346822
-0.345996
-0.340232
-0.334299
-0.334482
-0.346262
-0.367277
-0.390401
-0.410431
-0.426571
-0.447522
-0.514978
-0.764379
5.82825
26.0672
12.9411
-1.18691
-0.270563
-0.286865
-0.296184
-0.299593
-0.299281
-0.299404
-0.308058
-0.332382
-0.367984
-0.407742
-0.449094
-0.493438
-0.559546
-0.681988
-0.995646
6.71972
26.3802
-1.27603
-1.38178
-0.229832
-0.244968
-0.255095
-0.261221
-0.264336
-0.268266
-0.28321
-0.317086
-0.362988
-0.415207
-0.47263
-0.534129
-0.61492
-0.754727
-1.0761
3.39381
5.69342
-1.79482
-1.22196
-0.196713
-0.211031
-0.221393
-0.229991
-0.235773
-0.242303
-0.260584
-0.298316
-0.347623
-0.404811
-0.468365
-0.531493
-0.60079
-0.711791
-0.929253
-0.113883
-1.40837
-1.45157
57.584
-0.169299
-0.183372
-0.195626
-0.204889
-0.213114
-0.222143
-0.240228
-0.274232
-0.319487
-0.371333
-0.428309
-0.479637
-0.526081
-0.581221
-0.669593
-0.861793
-0.908388
-0.957303
117.698
-0.145846
-0.159426
-0.171903
-0.18301
-0.193894
-0.205728
-0.220983
-0.24539
-0.282171
-0.319685
-0.348231
-0.376256
-0.396173
-0.424602
-0.44757
-0.540005
-0.561903
-0.577374
15.1042
-0.125069
-0.137881
-0.150231
-0.16209
-0.174537
-0.188345
-0.202583
-0.219761
-0.24309
-0.267073
-0.269943
-0.288455
-0.2967
-0.314751
-0.333988
-0.364192
-0.363105
-0.320974
-0.198828
-0.10604
-0.117711
-0.129282
-0.140782
-0.153024
-0.166782
-0.181987
-0.194489
-0.209442
-0.225008
-0.238654
-0.240103
-0.242572
-0.251557
-0.258035
-0.257027
-0.238567
-0.198167
-0.142389
-0.0882779
-0.0985122
-0.108905
-0.119194
-0.130153
-0.142239
-0.155697
-0.169614
-0.179944
-0.189329
-0.197482
-0.204644
-0.206187
-0.201127
-0.191559
-0.181409
-0.160447
-0.130945
-0.088389
-0.0717187
-0.080286
-0.0888682
-0.0980701
-0.107589
-0.11781
-0.12906
-0.140776
-0.151739
-0.159772
-0.165463
-0.167808
-0.165233
-0.159513
-0.145494
-0.134363
-0.116711
-0.0962722
-0.0588281
-0.0566124
-0.0636184
-0.070852
-0.078528
-0.0866613
-0.0954249
-0.105104
-0.114975
-0.12403
-0.13172
-0.137368
-0.14007
-0.137801
-0.131864
-0.118529
-0.111426
-0.0978163
-0.0841628
0.286443
-0.0431442
-0.0487362
-0.0546597
-0.0610449
-0.0680162
-0.0756733
-0.0842484
-0.0929858
-0.101126
-0.108446
-0.114649
-0.118355
-0.117607
-0.114576
-0.105571
-0.103702
-0.0961161
-0.090242
2.8508
-0.0313105
-0.0356301
-0.0403659
-0.0456349
-0.0516196
-0.0583979
-0.0661154
-0.0741329
-0.0820361
-0.089681
-0.0967886
-0.101834
-0.103674
-0.104014
-0.10054
-0.103303
-0.102719
-0.104452
2.99181
-0.0209274
-0.0240783
-0.0276868
-0.0319568
-0.0370783
-0.0431351
-0.0501952
-0.0578332
-0.0658601
-0.0740725
-0.0821432
-0.0888249
-0.0936769
-0.0973472
-0.0992169
-0.105111
-0.109181
-0.115129
-0.133139
-0.0117115
-0.0136899
-0.0162042
-0.0195409
-0.0238764
-0.0292968
-0.0358359
-0.0433113
-0.0516297
-0.0605298
-0.0696375
-0.078135
-0.0859411
-0.0932033
-0.100104
-0.109139
-0.116024
-0.123959
-0.13361
-0.00354317
-0.0042692
-0.00552838
-0.0077994
-0.0112467
-0.0160283
-0.0221566
-0.0296844
-0.0385409
-0.0482871
-0.0586099
-0.0688609
-0.0796605
-0.0909465
-0.103297
-0.117596
-0.126938
-0.140067
-0.139047
)
;

boundaryField
{
    leftWall
    {
        type            fixedFluxPressure;
        gradient        uniform 0;
        value           nonuniform List<scalar> 
50
(
527.721
527.225
525.421
522.87
520.261
517.735
515.266
499.516
170.464
5.19623
1.72383
1.21642
1.08228
1.04487
0.991683
0.925599
0.872877
0.826592
0.778053
0.729478
0.682606
0.63724
0.593214
0.55096
0.510506
0.471887
0.435154
0.400344
0.367462
0.336493
0.307404
0.280153
0.254687
0.230951
0.208873
0.188367
0.169344
0.151699
0.135317
0.120074
0.105844
0.0925014
0.0799269
0.0680086
0.0566414
0.0457239
0.0351568
0.0248509
0.014785
0.00474404
)
;
    }
    rightWall
    {
        type            fixedFluxPressure;
        gradient        uniform 0;
        value           nonuniform List<scalar> 
50
(
1091.32
1091.87
1078.83
1045.7
984.857
863.676
594.342
445.604
385.004
434.989
492.025
542.456
616.32
723.938
880.29
1111.53
1266.71
1414.64
1874.41
2030.33
1706.57
274.842
104.036
303.335
79.0014
1.32403
0.902878
0.639949
0.00927642
11.8917
913.279
2025.99
1865.27
272.263
-1.18691
-1.38178
-1.22196
57.584
117.698
15.1042
-0.198828
-0.142389
-0.088389
-0.0588281
0.286443
2.8508
2.99181
-0.133139
-0.13361
-0.139047
)
;
    }
    lowerWall
    {
        type            fixedFluxPressure;
        gradient        uniform 0;
        value           nonuniform List<scalar> 
62
(
527.721
527.392
529.085
533.467
542.269
557.193
578.05
601.342
623.912
645.323
666.047
686.208
705.64
724.162
741.585
757.298
771.229
781.365
783.438
785.942
793.812
819.162
843.949
843.949
838.691
833.988
833.019
835.202
837.685
841.292
847.073
852.786
848.286
842.099
834.429
783.803
775.244
748.893
706.656
693.679
637.081
460.999
712.3
783.803
665.753
685.894
773.276
863.471
910.602
916.736
868.701
876.341
792.204
594.517
451.866
392.937
375.678
378.336
460.934
714.734
1020.25
1091.32
)
;
    }
    atmosphere
    {
        type            totalPressure;
        rho             rho;
        psi             none;
        gamma           1;
        p0              uniform 0;
        value           nonuniform List<scalar> 
46
(
0
0
0
0
0
0
0
0
0
0
0
0
0
0
0
0
0
0
0
0
0
0
0
0
0
0
0
0
0
-0.000462211
-0.00214166
-0.00506206
-0.00957382
-0.0154935
-0.0231519
-0.0323916
-0.0425536
-0.0535343
-0.0643381
-0.0767831
-0.090177
-0.106038
-0.125401
-0.134376
-0.15555
-0.144411
)
;
    }
    defaultFaces
    {
        type            empty;
    }
}


// ************************************************************************* //
