/*--------------------------------*- C++ -*----------------------------------*\
| =========                 |                                                 |
| \\      /  F ield         | OpenFOAM: The Open Source CFD Toolbox           |
|  \\    /   O peration     | Version:  5.x                                   |
|   \\  /    A nd           | Web:      www.OpenFOAM.org                      |
|    \\/     M anipulation  |                                                 |
\*---------------------------------------------------------------------------*/
FoamFile
{
    version     2.0;
    format      ascii;
    class       surfaceScalarField;
    location    "0.7";
    object      phi;
}
// * * * * * * * * * * * * * * * * * * * * * * * * * * * * * * * * * * * * * //

dimensions      [0 3 -1 0 0 0 0];

internalField   nonuniform List<scalar> 
4432
(
-3.52034e-06
3.52034e-06
-7.1589e-06
3.63855e-06
-9.55011e-06
2.39121e-06
-1.11745e-05
1.6244e-06
-1.19545e-05
7.80032e-07
-1.12099e-05
-7.44607e-07
-8.75845e-06
-2.45148e-06
-5.63991e-06
-3.11854e-06
-3.19046e-06
-2.44944e-06
-1.92609e-06
-1.26437e-06
-1.77585e-06
-1.50241e-07
-2.50782e-06
7.31973e-07
-3.83252e-06
1.3247e-06
-5.60862e-06
1.7761e-06
-7.87707e-06
2.26845e-06
-1.06176e-05
2.74058e-06
-1.29253e-05
2.30766e-06
-1.43251e-05
1.39981e-06
-1.84068e-05
4.08166e-06
-2.45162e-05
6.10942e-06
-2.45742e-05
5.80137e-08
-1.4685e-05
-9.88921e-06
-1.4685e-05
-4.53345e-06
8.05379e-06
-7.7251e-06
6.8302e-06
-9.54787e-06
4.21398e-06
-1.11217e-05
3.19819e-06
-1.21791e-05
1.83744e-06
-1.16945e-05
-1.2292e-06
-9.26007e-06
-4.88588e-06
-5.93692e-06
-6.4417e-06
-3.26254e-06
-5.12382e-06
-1.874e-06
-2.65291e-06
-1.44129e-06
-5.82952e-07
-1.56708e-06
8.5777e-07
-2.06855e-06
1.82616e-06
-2.85505e-06
2.5626e-06
-4.03413e-06
3.44753e-06
-5.98293e-06
4.68939e-06
-9.29134e-06
5.61606e-06
-1.41501e-05
6.2586e-06
-1.89618e-05
8.89331e-06
-2.11455e-05
8.29321e-06
-1.84616e-05
-2.6259e-06
-1.06227e-05
-1.77281e-05
-2.53077e-05
-3.67929e-06
1.17331e-05
-6.26255e-06
9.41346e-06
-8.20042e-06
6.15184e-06
-1.02786e-05
5.27641e-06
-1.18425e-05
3.40134e-06
-1.16443e-05
-1.42745e-06
-9.48617e-06
-7.04401e-06
-6.39932e-06
-9.52855e-06
-3.7952e-06
-7.72794e-06
-2.3935e-06
-4.05461e-06
-2.02954e-06
-9.46912e-07
-2.24099e-06
1.06923e-06
-2.64112e-06
2.22629e-06
-2.94036e-06
2.86184e-06
-2.95395e-06
3.46111e-06
-2.88855e-06
4.624e-06
-3.63496e-06
6.36247e-06
-5.87258e-06
8.49623e-06
-8.12558e-06
1.11463e-05
-9.23445e-06
9.40209e-06
-8.17819e-06
-3.68216e-06
-4.28732e-06
-2.1619e-05
-2.9595e-05
-2.26291e-06
1.3996e-05
-4.10569e-06
1.12562e-05
-5.88036e-06
7.92651e-06
-7.68544e-06
7.08149e-06
-8.80017e-06
4.51608e-06
-8.49969e-06
-1.72793e-06
-7.12576e-06
-8.41794e-06
-5.46173e-06
-1.11926e-05
-4.0396e-06
-9.15007e-06
-3.12075e-06
-4.97347e-06
-2.86757e-06
-1.20009e-06
-3.1382e-06
1.33986e-06
-3.59737e-06
2.68546e-06
-3.89349e-06
3.15797e-06
-3.74006e-06
3.30768e-06
-3.02675e-06
3.91069e-06
-1.799e-06
5.13472e-06
-4.81614e-07
7.17885e-06
1.21402e-06
9.45066e-06
2.65398e-06
7.96214e-06
2.29049e-06
-3.31868e-06
1.75845e-06
-2.10869e-05
-2.78366e-05
-4.48175e-07
1.44442e-05
-8.57942e-07
1.1666e-05
-1.80649e-06
8.87506e-06
-2.42489e-06
7.69988e-06
-2.04435e-06
4.13554e-06
-1.16043e-06
-2.61184e-06
-1.15108e-06
-8.42729e-06
-2.18075e-06
-1.01629e-05
-3.21038e-06
-8.12044e-06
-3.6951e-06
-4.48875e-06
-3.86267e-06
-1.03251e-06
-4.16002e-06
1.63721e-06
-4.54249e-06
3.06793e-06
-4.7262e-06
3.34168e-06
-4.47731e-06
3.05879e-06
-3.75742e-06
3.1908e-06
-2.29797e-06
3.67527e-06
1.30765e-07
4.75012e-06
4.03296e-06
5.54846e-06
7.75991e-06
4.2352e-06
7.92488e-06
-3.48366e-06
4.82477e-06
-1.79868e-05
-2.30118e-05
1.86174e-06
1.25824e-05
3.26956e-06
1.02582e-05
4.1812e-06
7.96343e-06
5.56518e-06
6.3159e-06
7.38328e-06
2.31744e-06
7.96895e-06
-3.19752e-06
6.06508e-06
-6.52342e-06
2.46485e-06
-6.56267e-06
-1.36566e-06
-4.28993e-06
-3.80209e-06
-2.05232e-06
-4.82128e-06
-1.33129e-08
-5.28634e-06
2.10227e-06
-5.56388e-06
3.34547e-06
-5.55113e-06
3.32894e-06
-5.04943e-06
2.55708e-06
-4.15955e-06
2.30092e-06
-2.87024e-06
2.38596e-06
-8.42609e-07
2.72249e-06
2.51744e-06
2.18841e-06
6.50715e-06
2.45497e-07
7.75811e-06
-4.73463e-06
5.30803e-06
-1.55367e-05
-1.77038e-05
3.53406e-06
9.04835e-06
7.5831e-06
6.20915e-06
1.16785e-05
3.86798e-06
1.55831e-05
2.41134e-06
1.78128e-05
8.76897e-08
1.63021e-05
-1.68681e-06
1.15027e-05
-1.72398e-06
5.69383e-06
-7.53802e-07
3.62021e-07
1.04188e-06
-3.46571e-06
1.7754e-06
-5.43929e-06
1.96027e-06
-6.36081e-06
3.02379e-06
-6.68253e-06
3.66719e-06
-6.46669e-06
3.1131e-06
-5.59078e-06
1.68117e-06
-4.40153e-06
1.11168e-06
-3.04304e-06
1.02747e-06
-1.36705e-06
1.0465e-06
7.93023e-07
2.83338e-08
3.65625e-06
-2.61772e-06
5.13339e-06
-6.21177e-06
4.29246e-06
-1.46958e-05
-1.34113e-05
6.73838e-06
2.30997e-06
1.42525e-05
-1.30498e-06
1.93002e-05
-1.17969e-06
2.16649e-05
4.66121e-08
2.07285e-05
1.02413e-06
1.6151e-05
2.89068e-06
9.94826e-06
4.47874e-06
4.30357e-06
4.89089e-06
-1.28845e-08
5.35833e-06
-3.08757e-06
4.85009e-06
-5.17414e-06
4.04684e-06
-6.70822e-06
4.55787e-06
-7.51071e-06
4.46968e-06
-7.43725e-06
3.03965e-06
-6.33049e-06
5.74415e-07
-4.83326e-06
-3.8555e-07
-3.25952e-06
-5.46272e-07
-1.58764e-06
-6.25382e-07
1.58892e-07
-1.7182e-06
1.87319e-06
-4.33201e-06
2.93708e-06
-7.27566e-06
2.91891e-06
-1.46776e-05
-1.04924e-05
-2.74257e-05
2.74257e-05
-5.16975e-05
2.42718e-05
-4.91645e-05
-2.53305e-06
-3.67483e-05
-1.24162e-05
-2.30012e-05
-1.37471e-05
-8.41094e-06
-1.45903e-05
1.83002e-05
-2.67111e-05
1.98882e-05
-1.58804e-06
-1.78427e-05
3.7731e-05
-7.47754e-05
5.69326e-05
-0.000111793
3.70176e-05
-0.000122349
1.05561e-05
-0.000120837
-1.5119e-06
-0.000115493
-5.34413e-06
-0.000107326
-8.1667e-06
-9.4392e-05
-1.29344e-05
-6.70109e-05
-2.73811e-05
-2.00756e-05
-4.69352e-05
-2.00756e-05
-3.3324e-05
6.07497e-05
-4.36752e-05
3.4623e-05
-3.39905e-05
-1.22178e-05
-2.19074e-05
-2.44992e-05
-1.07904e-05
-2.48642e-05
1.2742e-06
-2.66548e-05
1.34965e-05
-3.89334e-05
-2.14764e-05
3.33848e-05
-8.68399e-05
0.000103094
-0.000136783
0.000106876
-0.000152051
5.22856e-05
-0.000150228
8.73377e-06
-0.000145753
-5.98691e-06
-0.000138737
-1.23605e-05
-0.000128084
-1.88197e-05
-0.000111989
-2.90299e-05
-8.38027e-05
-5.55669e-05
-3.42283e-05
-9.65097e-05
-5.43039e-05
-2.38105e-05
8.45603e-05
-2.62612e-05
3.70737e-05
-1.70186e-05
-2.14604e-05
-5.38617e-06
-3.61317e-05
7.12726e-07
-3.09631e-05
2.1583e-06
-2.81004e-05
-1.06721e-05
-2.61029e-05
-6.62296e-05
8.89423e-05
-0.000129288
0.000166153
-0.000168132
0.000145719
-0.000190268
7.44211e-05
-0.000198089
1.65546e-05
-0.000193603
-1.04727e-05
-0.000183757
-2.22061e-05
-0.00016714
-3.54369e-05
-0.000140637
-5.55332e-05
-0.000101362
-9.48416e-05
-4.23925e-05
-0.000155479
-9.66964e-05
-1.08819e-05
9.54422e-05
-3.04649e-06
2.92383e-05
2.28694e-06
-2.67938e-05
1.03244e-05
-4.41692e-05
1.09734e-05
-3.16121e-05
-8.7534e-08
-1.70394e-05
-3.2207e-05
6.01649e-06
-8.97579e-05
0.000146493
-0.000139065
0.00021546
-0.000164553
0.000171208
-0.00017879
8.86578e-05
-0.000179026
1.67907e-05
-0.000168762
-2.07364e-05
-0.000164145
-2.68231e-05
-0.000169425
-3.01572e-05
-0.000159119
-6.58396e-05
-0.000117956
-0.000136004
-4.47646e-05
-0.00022867
-0.000141461
-5.83049e-07
9.60252e-05
1.31293e-05
1.5526e-05
2.10618e-05
-3.47264e-05
2.605e-05
-4.91573e-05
2.08821e-05
-2.64443e-05
-2.01537e-06
5.8581e-06
-4.35215e-05
4.75227e-05
-9.709e-05
0.000200062
-0.000119452
0.000237822
-9.54263e-05
0.000147182
-4.99395e-05
4.3171e-05
-4.426e-05
1.11113e-05
-4.55257e-05
-1.94706e-05
-4.97303e-05
-2.26186e-05
-7.40862e-05
-5.8013e-06
-0.000113565
-2.63602e-05
-0.000104856
-0.000144714
-4.18314e-05
-0.000291695
-0.000183292
1.36248e-05
8.24004e-05
2.61253e-05
3.02554e-06
3.7447e-05
-4.60481e-05
4.10242e-05
-5.27345e-05
3.14933e-05
-1.69134e-05
1.82878e-06
3.55227e-05
-3.91977e-05
8.85491e-05
-7.48122e-05
0.000235676
-7.31429e-05
0.000236153
-4.73526e-05
0.000121391
-3.86302e-05
3.44486e-05
-3.56414e-05
8.12259e-06
3.08048e-05
-8.59166e-05
9.38587e-05
-8.56724e-05
9.46165e-05
-6.55918e-06
1.23387e-05
5.59179e-05
-6.72176e-05
-6.51578e-05
-3.69767e-05
-0.000321936
-0.000220269
3.10963e-05
5.13041e-05
4.16965e-05
-7.57464e-06
5.02627e-05
-5.46144e-05
5.33911e-05
-5.58628e-05
4.16044e-05
-5.12672e-06
9.0721e-06
6.80549e-05
-2.66878e-05
0.000124309
-3.89047e-05
0.000247893
-2.85296e-05
0.000225778
-4.46789e-05
0.000137541
-8.21776e-05
7.19472e-05
-5.59799e-05
-1.8075e-05
4.04865e-05
-0.000182383
0.000162443
-0.000207628
0.000229944
-7.40607e-05
0.000182364
0.000103498
5.91267e-06
0.000111294
-3.25459e-05
-0.000283477
-0.000252815
3.01952e-05
2.11089e-05
4.77875e-05
-2.51669e-05
5.60752e-05
-6.29021e-05
5.73841e-05
-5.71718e-05
4.74549e-05
4.80251e-06
1.9195e-05
9.63149e-05
-1.35485e-05
0.000157052
-1.69349e-05
0.00025128
-1.59796e-05
0.000224823
-5.61815e-05
0.000177743
-7.71356e-05
9.29013e-05
-2.25741e-05
-7.26366e-05
4.79182e-05
-0.000252875
0.000106545
-0.000266255
0.000176718
-0.000144234
0.000232746
4.74694e-05
0.000113289
0.000230751
-2.23813e-05
-0.000147807
-0.000275196
1.97001e-06
3.39961e-07
-4.274e-06
4.93903e-06
-1.0171e-05
4.71734e-06
-1.26119e-05
2.48745e-06
-1.30858e-05
1.4981e-06
-1.34446e-05
3.24945e-06
-1.38961e-05
4.93019e-06
-1.37763e-05
4.7711e-06
-1.27195e-05
4.30156e-06
-1.1605e-05
3.73561e-06
-1.16535e-05
4.09527e-06
-1.3226e-05
6.13046e-06
-1.51793e-05
6.42291e-06
-1.52415e-05
3.10188e-06
-1.23652e-05
-2.30187e-06
-9.15577e-06
-3.59501e-06
-6.46118e-06
-3.24086e-06
-3.92958e-06
-3.15698e-06
-8.51485e-07
-4.7963e-06
2.018e-06
-7.20149e-06
4.83221e-06
-1.00899e-05
5.84474e-06
-1.56902e-05
-1.61517e-05
1.15041e-05
-0.000115839
0.000116179
-0.00012242
1.15196e-05
-0.00010265
-1.50524e-05
-8.99656e-05
-1.0197e-05
-8.45099e-05
-3.95765e-06
-8.17422e-05
4.8175e-07
-7.92346e-05
2.42265e-06
-7.17501e-05
-2.71343e-06
-6.00184e-05
-7.4301e-06
-4.64359e-05
-9.84688e-06
-3.29723e-05
-9.36834e-06
-2.31229e-05
-3.71896e-06
-1.62533e-05
-4.46642e-07
-9.88445e-06
-3.26701e-06
-5.42879e-06
-6.75754e-06
-3.16142e-06
-5.86237e-06
-1.64828e-06
-4.75401e-06
8.03413e-07
-5.60868e-06
3.5349e-06
-7.52779e-06
4.16037e-06
-7.82696e-06
4.74995e-06
-1.06795e-05
6.24929e-06
-1.71895e-05
-2.1479e-05
1.15766e-05
-6.36246e-05
0.000179804
-0.000115394
6.32891e-05
-0.000157792
2.73455e-05
-0.000194254
2.62654e-05
-0.000216897
1.86846e-05
-0.000225629
9.21407e-06
-0.000222187
-1.01937e-06
-0.000211153
-1.37474e-05
-0.000191042
-2.7541e-05
-0.000164307
-3.65817e-05
-0.00012157
-5.21054e-05
-8.58694e-05
-3.942e-05
-6.97412e-05
-1.65749e-05
-6.18341e-05
-1.11741e-05
-5.10013e-05
-1.75904e-05
-3.56788e-05
-2.11848e-05
-2.54038e-05
-1.5029e-05
-1.89586e-05
-1.20539e-05
-1.27064e-05
-1.378e-05
-8.88701e-06
-1.16463e-05
-7.53282e-06
-1.20336e-05
-5.98608e-06
-1.87363e-05
-2.51602e-05
-2.30493e-06
-2.74504e-05
0.000207254
-7.08684e-05
0.000106707
-0.000107174
6.36507e-05
-0.000124953
4.4045e-05
-0.000129489
2.32197e-05
-0.00012779
7.51527e-06
-0.00012559
-3.21969e-06
-0.000134083
-5.25359e-06
-0.00015931
-2.31433e-06
-0.0001901
-5.79134e-06
-0.000228156
-1.40496e-05
-0.000261722
-5.85366e-06
-0.000289946
1.16485e-05
-0.000309306
8.18665e-06
-0.000314763
-1.21333e-05
-0.000303469
-3.24797e-05
-0.000270303
-4.8195e-05
-0.000221881
-6.04758e-05
-0.000178051
-5.76093e-05
-0.000147035
-4.26625e-05
-0.000128078
-3.09909e-05
-0.000111781
-3.50329e-05
-5.76856e-05
-7.92559e-05
2.07192e-05
0.000186535
-9.50637e-06
0.000136933
-2.8753e-05
8.28973e-05
-3.31488e-05
4.84406e-05
-3.3591e-05
2.36618e-05
-3.48233e-05
8.74751e-06
-3.37843e-05
-4.25869e-06
-3.26853e-05
-6.35259e-06
-4.07787e-05
5.77911e-06
-6.54902e-05
1.89201e-05
-0.000102163
2.26236e-05
-0.000134415
2.63981e-05
-0.000159239
3.64724e-05
-0.000185541
3.44887e-05
-0.000216272
1.85981e-05
-0.000248357
-3.94925e-07
-0.000268186
-2.83658e-05
-0.000269993
-5.86692e-05
-0.000251447
-7.61553e-05
-0.000237202
-5.69079e-05
-0.000229679
-3.85133e-05
-0.000224178
-4.05342e-05
-5.53285e-05
-0.000226535
4.41568e-05
0.000142378
3.71444e-05
0.000143945
2.63693e-05
9.36723e-05
2.19624e-05
5.28474e-05
1.57689e-05
2.98552e-05
2.73093e-06
2.17854e-05
-1.55555e-05
1.40277e-05
-3.28237e-05
1.09155e-05
-4.14614e-05
1.44168e-05
-4.61033e-05
2.3562e-05
-5.69561e-05
3.34764e-05
-7.04266e-05
3.98687e-05
-8.00298e-05
4.60756e-05
-9.58042e-05
5.02631e-05
-0.000128743
5.15366e-05
-0.000175564
4.64259e-05
-0.000226995
2.30655e-05
-0.000269262
-1.64017e-05
-0.000299819
-4.55986e-05
-0.000286018
-7.07094e-05
-0.000264051
-6.04797e-05
-0.000247851
-5.67347e-05
-5.33861e-05
-0.000249793
3.2725e-05
0.000109653
4.99651e-05
0.000126705
4.91582e-05
9.44791e-05
4.0896e-05
6.11096e-05
2.87908e-05
4.19602e-05
1.43526e-05
3.62235e-05
-3.1708e-06
3.1551e-05
-2.18339e-05
2.95785e-05
-3.75589e-05
3.01417e-05
-4.74559e-05
3.3459e-05
-5.49765e-05
4.09969e-05
-6.25046e-05
4.73968e-05
-6.6357e-05
4.9928e-05
-6.8967e-05
5.28731e-05
-7.54478e-05
5.80174e-05
-8.74325e-05
5.84106e-05
-0.000110234
4.58668e-05
-0.000148946
2.23105e-05
-0.000188379
-6.16481e-06
-0.000231329
-2.77603e-05
-0.000241877
-4.99313e-05
-0.00023062
-6.79911e-05
-5.65873e-05
-0.000227419
1.27044e-05
9.69486e-05
3.61307e-05
0.000103278
4.28578e-05
8.7752e-05
3.62672e-05
6.77001e-05
2.38496e-05
5.43777e-05
1.06811e-05
4.93919e-05
-4.05625e-06
4.62882e-05
-1.93887e-05
4.49108e-05
-3.25146e-05
4.32675e-05
-4.24543e-05
4.33987e-05
-4.93002e-05
4.78428e-05
-5.46853e-05
5.27819e-05
-5.9267e-05
5.45098e-05
-6.2559e-05
5.6165e-05
-6.48756e-05
6.03341e-05
-6.92014e-05
6.27364e-05
-8.23907e-05
5.90562e-05
-0.000109285
4.92047e-05
-0.000151407
3.5957e-05
-0.000195655
1.64877e-05
-0.000222047
-2.35389e-05
-0.000224826
-6.52116e-05
-6.81934e-05
-0.00021322
2.564e-06
9.43845e-05
1.97552e-05
8.60871e-05
2.66701e-05
8.0837e-05
2.3103e-05
7.12672e-05
1.42986e-05
6.3182e-05
4.68334e-06
5.90071e-05
-5.79703e-06
5.67685e-05
-1.64554e-05
5.55692e-05
-2.68097e-05
5.36216e-05
-3.60676e-05
5.26567e-05
-4.23572e-05
5.41325e-05
-4.64145e-05
5.68392e-05
-5.0951e-05
5.90462e-05
-5.65729e-05
6.1787e-05
-6.21598e-05
6.5921e-05
-6.83223e-05
6.8899e-05
-7.80569e-05
6.87909e-05
-9.42654e-05
6.54133e-05
-0.000120153
6.18446e-05
-0.000158822
5.5157e-05
-0.000203018
2.06566e-05
-0.000228501
-3.97282e-05
-8.05781e-05
-0.000216116
6.42983e-07
9.37415e-05
9.8818e-06
7.68482e-05
1.39086e-05
7.68102e-05
1.21446e-05
7.3031e-05
7.02974e-06
6.82968e-05
1.01339e-06
6.50234e-05
-5.70047e-06
6.34823e-05
-1.28576e-05
6.27263e-05
-2.08437e-05
6.16078e-05
-2.88749e-05
6.06878e-05
-3.53064e-05
6.05641e-05
-4.01517e-05
6.16846e-05
-4.52334e-05
6.41279e-05
-5.14059e-05
6.79594e-05
-5.80246e-05
7.25398e-05
-6.51176e-05
7.5992e-05
-7.38672e-05
7.75405e-05
-8.58493e-05
7.73956e-05
-0.00010342
7.94153e-05
-0.000135103
8.68405e-05
-0.000192667
7.82202e-05
-0.000250167
1.77721e-05
-6.80254e-05
-0.00026272
5.15673e-07
9.32258e-05
4.91687e-06
7.2447e-05
6.76815e-06
7.49588e-05
5.80633e-06
7.39927e-05
2.90755e-06
7.11956e-05
-9.04608e-07
6.88356e-05
-5.2728e-06
6.78505e-05
-1.01804e-05
6.76339e-05
-1.59028e-05
6.73304e-05
-2.2071e-05
6.68561e-05
-2.81229e-05
6.6616e-05
-3.39404e-05
6.75021e-05
-3.99672e-05
7.01547e-05
-4.64443e-05
7.44364e-05
-5.31311e-05
7.92265e-05
-6.00738e-05
8.29347e-05
-6.77331e-05
8.51999e-05
-7.73913e-05
8.70538e-05
-9.23014e-05
9.43255e-05
-0.000120533
0.000115072
-0.00017153
0.000129217
-0.000240261
8.65027e-05
-2.07003e-05
-0.000287586
2.61484e-07
9.29643e-05
2.31889e-06
7.03894e-05
3.11681e-06
7.41608e-05
2.5035e-06
7.4606e-05
6.63479e-07
7.30356e-05
-1.98257e-06
7.14816e-05
-5.0881e-06
7.09561e-05
-8.55929e-06
7.11052e-05
-1.25977e-05
7.13689e-05
-1.72736e-05
7.15321e-05
-2.2606e-05
7.19484e-05
-2.84812e-05
7.33772e-05
-3.47076e-05
7.6381e-05
-4.10924e-05
8.08212e-05
-4.757e-05
8.57041e-05
-5.43135e-05
8.96783e-05
-6.16048e-05
9.24913e-05
-7.06322e-05
9.60813e-05
-8.46043e-05
0.000108298
-0.000108558
0.000139026
-0.000146144
0.000166803
-0.000194096
0.000134455
2.63438e-05
-0.00024114
6.4715e-08
9.28995e-05
9.38457e-07
6.95156e-05
1.23789e-06
7.38613e-05
7.1472e-07
7.51292e-05
-6.12728e-07
7.43631e-05
-2.61683e-06
7.34858e-05
-4.98475e-06
7.33241e-05
-7.61445e-06
7.3735e-05
-1.0682e-05
7.44365e-05
-1.44242e-05
7.52743e-05
-1.89801e-05
7.65043e-05
-2.42414e-05
7.86384e-05
-2.98895e-05
8.20291e-05
-3.56546e-05
8.65862e-05
-4.16007e-05
9.16503e-05
-4.81068e-05
9.61844e-05
-5.56358e-05
0.00010002
-6.53084e-05
0.000105754
-7.91525e-05
0.000122142
-9.93462e-05
0.00015922
-0.000129505
0.000196962
-0.000173521
0.000178472
7.30393e-05
-0.000220217
4.16887e-08
9.28578e-05
2.68949e-07
6.92882e-05
2.76476e-07
7.38538e-05
-2.3001e-07
7.56356e-05
-1.2864e-06
7.54195e-05
-2.85645e-06
7.50559e-05
-4.76044e-06
7.52281e-05
-6.9115e-06
7.58861e-05
-9.41924e-06
7.69443e-05
-1.24927e-05
7.83477e-05
-1.62486e-05
8.02601e-05
-2.05986e-05
8.29884e-05
-2.52937e-05
8.67242e-05
-3.01531e-05
9.14456e-05
-3.53509e-05
9.68482e-05
-4.14078e-05
0.000102241
-4.89373e-05
0.00010755
-5.89386e-05
0.000115756
-7.22421e-05
0.000135445
-8.90162e-05
0.000175994
-0.000113643
0.000221588
-0.000147824
0.000212654
0.000102314
-0.000177099
1.44127e-07
9.27136e-05
3.40632e-08
6.93982e-05
-1.24166e-07
7.40119e-05
-6.0988e-07
7.61213e-05
-1.45758e-06
7.62671e-05
-2.70035e-06
7.62987e-05
-4.24547e-06
7.67733e-05
-6.03138e-06
7.7672e-05
-8.10163e-06
7.90145e-05
-1.05778e-05
8.08239e-05
-1.35304e-05
8.32128e-05
-1.68958e-05
8.63538e-05
-2.05373e-05
9.03658e-05
-2.4389e-05
9.52974e-05
-2.86577e-05
0.000101117
-3.38956e-05
0.00010748
-4.06924e-05
0.000114347
-4.95528e-05
0.000124616
-6.02839e-05
0.000146177
-7.18576e-05
0.000187568
-8.86199e-05
0.000238351
-0.000116858
0.000240892
0.000133714
-0.000148258
2.73012e-07
9.24405e-05
3.96398e-08
6.96315e-05
-1.87723e-07
7.42392e-05
-5.99631e-07
7.65331e-05
-1.24567e-06
7.69131e-05
-2.18537e-06
7.72383e-05
-3.37421e-06
7.79621e-05
-4.77642e-06
7.90743e-05
-6.39495e-06
8.06331e-05
-8.2724e-06
8.27014e-05
-1.04312e-05
8.53716e-05
-1.28299e-05
8.87527e-05
-1.54157e-05
9.29517e-05
-1.81947e-05
9.80765e-05
-2.13237e-05
0.000104246
-2.52706e-05
0.000111427
-3.05732e-05
0.00011965
-3.70944e-05
0.000131138
-4.35446e-05
0.000152627
-4.8214e-05
0.000192237
-5.52809e-05
0.000245417
-8.18796e-05
0.000267491
0.000183703
-0.000131869
3.84121e-07
9.20563e-05
1.71952e-07
6.98435e-05
-3.01512e-08
7.44411e-05
-3.22906e-07
7.68258e-05
-7.59398e-07
7.73495e-05
-1.39683e-06
7.78757e-05
-2.21298e-06
7.87782e-05
-3.18876e-06
8.00502e-05
-4.3072e-06
8.17516e-05
-5.56094e-06
8.39552e-05
-6.93729e-06
8.67482e-05
-8.40467e-06
9.02202e-05
-9.9389e-06
9.4486e-05
-1.15535e-05
9.96911e-05
-1.33187e-05
0.000106011
-1.55063e-05
0.000113615
-1.85648e-05
0.000122708
-2.20732e-05
0.000134646
-2.36416e-05
0.000154195
-2.00681e-05
0.000188663
-1.25429e-05
0.000237892
-1.86093e-05
0.000273557
0.000239824
-7.473e-05
4.83148e-07
9.15731e-05
3.63693e-07
6.99628e-05
2.58056e-07
7.45466e-05
1.22534e-07
7.69612e-05
-9.23649e-08
7.75644e-05
-4.29938e-07
7.82133e-05
-8.72522e-07
7.92208e-05
-1.40401e-06
8.05818e-05
-1.99652e-06
8.23442e-05
-2.62044e-06
8.45793e-05
-3.24147e-06
8.73694e-05
-3.81815e-06
9.07969e-05
-4.30984e-06
9.49778e-05
-4.68744e-06
0.000100069
-4.91946e-06
0.000106243
-5.0332e-06
0.000113728
-5.20174e-06
0.000122877
-4.97752e-06
0.000134422
-1.64885e-06
0.000150867
9.81224e-06
0.000177202
3.07572e-05
0.000216947
5.12229e-05
0.000253092
0.00025575
3.52964e-05
5.86426e-07
9.09866e-05
5.80715e-07
6.99683e-05
6.19297e-07
7.45079e-05
6.66732e-07
7.69136e-05
6.81336e-07
7.75497e-05
6.35653e-07
7.8259e-05
5.53566e-07
7.93031e-05
4.54661e-07
8.06808e-05
3.68677e-07
8.24303e-05
3.4743e-07
8.46008e-05
4.35886e-07
8.7281e-05
7.04497e-07
9.05283e-05
1.2171e-06
9.44651e-05
2.08882e-06
9.9197e-05
3.40727e-06
0.000104925
5.32755e-06
0.000111808
8.08505e-06
0.00012012
1.21342e-05
0.000130373
1.95148e-05
0.000143486
3.51515e-05
0.000161566
6.43902e-05
0.000187709
0.000102126
0.000215356
0.000224073
0.000133803
6.99431e-07
9.0287e-05
8.1444e-07
6.9853e-05
1.01792e-06
7.43042e-05
1.25851e-06
7.6673e-05
1.50099e-06
7.73073e-05
1.73612e-06
7.80239e-05
1.98388e-06
7.90554e-05
2.27934e-06
8.03854e-05
2.66322e-06
8.20465e-05
3.17717e-06
8.4087e-05
3.90016e-06
8.65581e-05
4.89665e-06
8.95319e-05
6.28841e-06
9.30733e-05
8.19815e-06
9.72871e-05
1.08365e-05
0.000102287
1.4477e-05
0.000108168
1.95143e-05
0.000115083
2.66354e-05
0.000123252
3.72367e-05
0.000132885
5.46007e-05
0.000144202
8.42728e-05
0.000158037
0.000126868
0.000172761
0.000175128
0.000175813
8.17748e-07
8.94692e-05
1.05493e-06
6.96157e-05
1.42817e-06
7.39309e-05
1.86033e-06
7.62408e-05
2.31816e-06
7.68495e-05
2.80487e-06
7.75373e-05
3.35334e-06
7.8507e-05
3.99338e-06
7.97455e-05
4.77978e-06
8.12601e-05
5.76316e-06
8.31037e-05
7.01748e-06
8.53039e-05
8.64033e-06
8.79091e-05
1.07482e-05
9.09654e-05
1.35089e-05
9.45265e-05
1.71546e-05
9.86411e-05
2.19754e-05
0.000103347
2.84245e-05
0.000108634
3.71685e-05
0.000114508
4.92099e-05
0.000120843
6.61656e-05
0.000127246
9.11906e-05
0.000133012
0.000126917
0.000137035
0.000132506
0.000169539
9.35142e-07
8.85339e-05
1.29019e-06
6.92605e-05
1.82687e-06
7.33942e-05
2.43803e-06
7.56296e-05
3.09618e-06
7.61913e-05
3.81352e-06
7.682e-05
4.62003e-06
7.77005e-05
5.56426e-06
7.88011e-05
6.68391e-06
8.01406e-05
8.05326e-06
8.17343e-05
9.74283e-06
8.36143e-05
1.18497e-05
8.58024e-05
1.45009e-05
8.83142e-05
1.7857e-05
9.11704e-05
2.21369e-05
9.43613e-05
2.76197e-05
9.78643e-05
3.46692e-05
0.000101584
4.38052e-05
0.000105372
5.56962e-05
0.000108952
7.11088e-05
0.000111834
9.10492e-05
0.000113072
0.000116827
0.000111257
0.000103206
0.000146127
1.0465e-06
8.74873e-05
1.51254e-06
6.87944e-05
2.19693e-06
7.27098e-05
2.97349e-06
7.4853e-05
3.80694e-06
7.53579e-05
4.7233e-06
7.59036e-05
5.75617e-06
7.66677e-05
6.94426e-06
7.7613e-05
8.34342e-06
7.87415e-05
1.00118e-05
8.00661e-05
1.20279e-05
8.15983e-05
1.44853e-05
8.33451e-05
1.7499e-05
8.53006e-05
2.12169e-05
8.74525e-05
2.58246e-05
8.97537e-05
3.15453e-05
9.21435e-05
3.8652e-05
9.44774e-05
4.74806e-05
9.65431e-05
5.84172e-05
9.80158e-05
7.18375e-05
9.84134e-05
8.78995e-05
9.70095e-05
0.00010653
9.26271e-05
8.35945e-05
0.000126141
1.14832e-06
8.6339e-05
1.7155e-06
6.82272e-05
2.52993e-06
7.18952e-05
3.44562e-06
7.39372e-05
4.43298e-06
7.43705e-05
5.51418e-06
7.48222e-05
6.72768e-06
7.54541e-05
8.11423e-06
7.62265e-05
9.72466e-06
7.71311e-05
1.16146e-05
7.81762e-05
1.3859e-05
7.9354e-05
1.65409e-05
8.06633e-05
1.97621e-05
8.20794e-05
2.36472e-05
8.35674e-05
2.83389e-05
8.50619e-05
3.40102e-05
8.64721e-05
4.08418e-05
8.76458e-05
4.90311e-05
8.83539e-05
5.87539e-05
8.8293e-05
7.01309e-05
8.70365e-05
8.30741e-05
8.40663e-05
9.70732e-05
7.8628e-05
6.97729e-05
0.000110895
1.23801e-06
8.51009e-05
1.89505e-06
6.75699e-05
2.81696e-06
7.09732e-05
3.84899e-06
7.2905e-05
4.95883e-06
7.32605e-05
6.1727e-06
7.36083e-05
7.5265e-06
7.41001e-05
9.05878e-06
7.46942e-05
1.08184e-05
7.53715e-05
1.28586e-05
7.6136e-05
1.52411e-05
7.69715e-05
1.80403e-05
7.78641e-05
2.13404e-05
7.87793e-05
2.52406e-05
7.96673e-05
2.98468e-05
8.04557e-05
3.52782e-05
8.10408e-05
4.1645e-05
8.12791e-05
4.90408e-05
8.09582e-05
5.7516e-05
7.98179e-05
6.70313e-05
7.75212e-05
7.73957e-05
7.37018e-05
8.81148e-05
6.79088e-05
5.96004e-05
9.82873e-05
1.31373e-06
8.37871e-05
2.04853e-06
6.68349e-05
3.05951e-06
6.99621e-05
4.17968e-06
7.17847e-05
5.38311e-06
7.20569e-05
6.69352e-06
7.22978e-05
8.14629e-06
7.26473e-05
9.77866e-06
7.30617e-05
1.16318e-05
7.35183e-05
1.37543e-05
7.40133e-05
1.62e-05
7.45257e-05
1.903e-05
7.50342e-05
2.23107e-05
7.54986e-05
2.61152e-05
7.58628e-05
3.05193e-05
7.60515e-05
3.55958e-05
7.59643e-05
4.14046e-05
7.54703e-05
4.79708e-05
7.4392e-05
5.52739e-05
7.25148e-05
6.32077e-05
6.95874e-05
7.15518e-05
6.53577e-05
7.98975e-05
5.95632e-05
5.1902e-05
8.75959e-05
1.37496e-06
8.24121e-05
2.1753e-06
6.60345e-05
3.2543e-06
6.88829e-05
4.43806e-06
7.06009e-05
5.70644e-06
7.07884e-05
7.08172e-06
7.09223e-05
8.59507e-06
7.11339e-05
1.02826e-05
7.1374e-05
1.21801e-05
7.16208e-05
1.433e-05
7.18633e-05
1.67753e-05
7.20803e-05
1.95658e-05
7.22437e-05
2.27524e-05
7.23121e-05
2.63862e-05
7.2229e-05
3.05164e-05
7.19213e-05
3.51823e-05
7.12984e-05
4.04066e-05
7.02461e-05
4.61751e-05
6.86235e-05
5.24317e-05
6.62581e-05
5.9053e-05
6.29661e-05
6.58301e-05
5.85807e-05
7.24338e-05
5.29596e-05
4.59498e-05
7.8386e-05
1.42382e-06
8.09881e-05
2.27393e-06
6.51843e-05
3.40189e-06
6.77549e-05
4.62583e-06
6.93768e-05
5.93339e-06
6.94808e-05
7.34304e-06
6.95125e-05
8.88475e-06
6.9592e-05
1.05897e-05
6.9669e-05
1.24886e-05
6.97217e-05
1.46179e-05
6.97338e-05
1.70122e-05
6.9686e-05
1.97103e-05
6.95456e-05
2.27493e-05
6.92732e-05
2.61631e-05
6.88151e-05
2.99792e-05
6.81052e-05
3.42141e-05
6.70633e-05
3.88658e-05
6.55944e-05
4.3901e-05
6.35883e-05
4.92465e-05
6.09125e-05
5.47804e-05
5.74322e-05
6.03218e-05
5.30393e-05
6.5614e-05
4.76674e-05
4.12588e-05
7.03049e-05
1.46651e-06
7.95216e-05
2.34363e-06
6.43072e-05
3.50205e-06
6.65965e-05
4.74595e-06
6.81329e-05
6.07042e-06
6.81561e-05
7.48923e-06
6.80936e-05
9.03047e-06
6.80506e-05
1.0721e-05
6.79784e-05
1.25872e-05
6.78554e-05
1.46576e-05
6.76633e-05
1.69618e-05
6.73817e-05
1.95279e-05
6.69796e-05
2.23821e-05
6.64189e-05
2.55452e-05
6.5652e-05
2.90297e-05
6.46207e-05
3.28368e-05
6.32561e-05
3.69491e-05
6.14821e-05
4.13239e-05
5.92134e-05
4.58845e-05
5.6352e-05
5.05177e-05
5.2799e-05
5.50746e-05
4.84824e-05
5.93594e-05
4.33825e-05
3.75062e-05
6.31118e-05
1.51205e-06
7.80096e-05
2.3849e-06
6.34344e-05
3.55334e-06
6.5428e-05
4.79998e-06
6.68862e-05
6.12255e-06
6.68333e-05
7.52929e-06
6.66868e-05
9.04776e-06
6.65321e-05
1.06994e-05
6.63268e-05
1.25063e-05
6.60485e-05
1.44911e-05
6.56784e-05
1.6677e-05
6.51959e-05
1.90849e-05
6.45717e-05
2.17321e-05
6.37716e-05
2.46306e-05
6.27534e-05
2.77824e-05
6.14689e-05
3.11778e-05
5.98607e-05
3.47924e-05
5.78675e-05
3.85801e-05
5.54256e-05
4.24685e-05
5.24636e-05
4.63565e-05
4.8911e-05
5.01212e-05
4.47176e-05
5.36153e-05
3.98883e-05
3.44722e-05
5.66493e-05
1.56928e-06
7.64403e-05
2.39948e-06
6.26043e-05
3.55441e-06
6.42731e-05
4.78936e-06
6.56512e-05
6.09355e-06
6.55291e-05
7.47057e-06
6.53098e-05
8.94822e-06
6.50546e-05
1.05429e-05
6.47322e-05
1.22725e-05
6.43189e-05
1.41551e-05
6.37958e-05
1.62077e-05
6.31432e-05
1.84451e-05
6.23343e-05
2.08783e-05
6.13384e-05
2.35117e-05
6.01202e-05
2.63417e-05
5.86388e-05
2.93531e-05
5.68493e-05
3.25178e-05
5.47027e-05
3.5792e-05
5.21514e-05
3.91095e-05
4.9146e-05
4.23822e-05
4.56385e-05
4.55085e-05
4.15913e-05
4.83779e-05
3.70189e-05
3.19946e-05
5.08555e-05
1.63875e-06
7.48016e-05
2.39395e-06
6.18491e-05
3.50667e-06
6.31603e-05
4.7141e-06
6.44436e-05
5.98346e-06
6.42597e-05
7.31522e-06
6.3978e-05
8.73696e-06
6.3633e-05
1.02605e-05
6.32088e-05
1.19006e-05
6.26788e-05
1.36714e-05
6.20251e-05
1.55853e-05
6.12293e-05
1.76513e-05
6.02682e-05
1.98756e-05
5.91141e-05
2.22573e-05
5.77385e-05
2.47888e-05
5.61073e-05
2.74533e-05
5.41848e-05
3.02228e-05
5.19331e-05
3.30576e-05
4.93166e-05
3.58999e-05
4.63038e-05
3.86759e-05
4.28627e-05
4.13002e-05
3.89671e-05
4.36895e-05
3.46296e-05
2.99313e-05
4.57528e-05
1.70911e-06
7.30925e-05
2.37363e-06
6.11845e-05
3.4126e-06
6.21213e-05
4.57302e-06
6.32831e-05
5.78778e-06
6.3045e-05
7.05804e-06
6.27079e-05
8.40765e-06
6.22836e-05
9.84638e-06
6.17701e-05
1.13871e-05
6.11381e-05
1.30398e-05
6.03723e-05
1.4813e-05
5.94561e-05
1.67118e-05
5.83694e-05
1.87374e-05
5.70886e-05
2.08867e-05
5.55891e-05
2.31503e-05
5.38437e-05
2.55112e-05
5.18239e-05
2.79438e-05
4.95005e-05
3.0413e-05
4.68475e-05
3.28725e-05
4.38445e-05
3.52618e-05
4.04735e-05
3.75128e-05
3.67161e-05
3.95619e-05
3.25805e-05
2.81384e-05
4.1355e-05
1.7677e-06
7.13248e-05
2.33466e-06
6.06174e-05
3.27025e-06
6.11856e-05
4.36011e-06
6.21933e-05
5.49874e-06
6.19063e-05
6.68714e-06
6.15196e-05
7.94645e-06
6.10243e-05
9.28443e-06
6.04321e-05
1.07119e-05
5.97107e-05
1.22367e-05
5.88476e-05
1.38633e-05
5.78295e-05
1.55944e-05
5.66383e-05
1.7429e-05
5.52541e-05
1.93621e-05
5.36559e-05
2.1384e-05
5.18218e-05
2.34789e-05
4.97289e-05
2.56248e-05
4.73546e-05
2.77925e-05
4.46798e-05
2.99463e-05
4.16908e-05
3.2042e-05
3.83778e-05
3.40282e-05
3.473e-05
3.58594e-05
3.07493e-05
2.6489e-05
3.7509e-05
1.80736e-06
6.95174e-05
2.26961e-06
6.0155e-05
3.07578e-06
6.03793e-05
4.06896e-06
6.12e-05
5.10804e-06
6.08672e-05
6.19173e-06
6.0436e-05
7.33833e-06
5.98777e-05
8.55449e-06
5.9216e-05
9.85011e-06
5.84152e-05
1.12298e-05
5.7468e-05
1.26961e-05
5.63632e-05
1.42502e-05
5.50842e-05
1.58898e-05
5.36144e-05
1.76098e-05
5.1936e-05
1.94009e-05
5.00307e-05
2.12498e-05
4.78799e-05
2.31377e-05
4.54667e-05
2.50422e-05
4.27753e-05
2.69378e-05
3.97953e-05
2.87939e-05
3.65217e-05
3.05781e-05
3.29458e-05
3.22596e-05
2.90679e-05
2.49217e-05
3.38269e-05
1.81938e-06
6.7698e-05
2.17341e-06
5.98009e-05
2.82939e-06
5.97233e-05
3.70042e-06
6.03288e-05
4.6148e-06
5.99528e-05
5.56931e-06
5.94815e-05
6.57986e-06
5.88672e-05
7.6521e-06
5.81439e-05
8.79374e-06
5.72736e-05
1.00066e-05
5.62552e-05
1.12929e-05
5.50768e-05
1.26519e-05
5.37251e-05
1.40822e-05
5.21842e-05
1.55779e-05
5.04403e-05
1.71312e-05
4.84773e-05
1.87317e-05
4.62794e-05
2.03638e-05
4.38346e-05
2.20114e-05
4.11278e-05
2.36569e-05
3.815e-05
2.5281e-05
3.48976e-05
2.68645e-05
3.13624e-05
2.83877e-05
2.75447e-05
2.34668e-05
2.98425e-05
1.79072e-06
6.59072e-05
2.04171e-06
5.95498e-05
2.53656e-06
5.92283e-05
3.26598e-06
5.95993e-05
4.03239e-06
5.91864e-05
4.83882e-06
5.8675e-05
5.6936e-06
5.80125e-05
6.60222e-06
5.72353e-05
7.57013e-06
5.63057e-05
8.59627e-06
5.5229e-05
9.68323e-06
5.39897e-05
1.08288e-05
5.25796e-05
1.20316e-05
5.09814e-05
1.32865e-05
4.91854e-05
1.45865e-05
4.71772e-05
1.59247e-05
4.49411e-05
1.72875e-05
4.24717e-05
1.86646e-05
3.97508e-05
2.00422e-05
3.67722e-05
2.14086e-05
3.3531e-05
2.27495e-05
3.00215e-05
2.40543e-05
2.62399e-05
2.22086e-05
2.53125e-05
1.71097e-06
6.41961e-05
1.87201e-06
5.93886e-05
2.20662e-06
5.88935e-05
2.78391e-06
5.9022e-05
3.38778e-06
5.85826e-05
4.03573e-06
5.80271e-05
4.72328e-06
5.7325e-05
5.4575e-06
5.65011e-05
6.23972e-06
5.55235e-05
7.06785e-06
5.44008e-05
7.94411e-06
5.31134e-05
8.86639e-06
5.16573e-05
9.83087e-06