/*--------------------------------*- C++ -*----------------------------------*\
| =========                 |                                                 |
| \\      /  F ield         | OpenFOAM: The Open Source CFD Toolbox           |
|  \\    /   O peration     | Version:  5.x                                   |
|   \\  /    A nd           | Web:      www.OpenFOAM.org                      |
|    \\/     M anipulation  |                                                 |
\*---------------------------------------------------------------------------*/
FoamFile
{
    version     2.0;
    format      ascii;
    class       volVectorField;
    location    "0.7";
    object      U;
}
// * * * * * * * * * * * * * * * * * * * * * * * * * * * * * * * * * * * * * //

dimensions      [0 1 -1 0 0 0 0];

internalField   nonuniform List<vector> 
2268
(
(-0.0201023 0.00913086 0)
(-0.0644087 0.0106828 0)
(-0.100604 0.00708352 0)
(-0.121236 0.00438317 0)
(-0.136021 0.00182676 0)
(-0.135069 -0.0021366 0)
(-0.114831 -0.00635264 0)
(-0.0808473 -0.00801304 0)
(-0.0475954 -0.00631771 0)
(-0.0262085 -0.00322892 0)
(-0.0178304 0.000131543 0)
(-0.0220137 0.00291124 0)
(-0.0346479 0.00484481 0)
(-0.0524113 0.00640777 0)
(-0.0744796 0.00836462 0)
(-0.104079 0.00942436 0)
(-0.137878 0.00374497 0)
(-0.151135 -0.00278717 0)
(-0.172386 0.0106676 0)
(-0.261958 0.0220194 0)
(-0.315159 0.00462416 0)
(-0.228447 -0.0339805 0)
(-0.0815109 -0.0484297 0)
(-0.0327363 0.0309755 0)
(-0.0756577 0.0284053 0)
(-0.101476 0.0177135 0)
(-0.119966 0.012363 0)
(-0.136848 0.00630383 0)
(-0.139744 -0.00561406 0)
(-0.121184 -0.0196782 0)
(-0.0856959 -0.0256738 0)
(-0.0495245 -0.020424 0)
(-0.0258867 -0.0106905 0)
(-0.0169006 -0.00193406 0)
(-0.0156019 0.00452623 0)
(-0.0195924 0.00897637 0)
(-0.0271327 0.0124292 0)
(-0.037606 0.0165378 0)
(-0.0536923 0.0218978 0)
(-0.0840152 0.0233774 0)
(-0.125064 0.020905 0)
(-0.18592 0.035698 0)
(-0.25953 0.0384329 0)
(-0.247546 -0.00737356 0)
(-0.161059 -0.0878928 0)
(-0.0557818 -0.121624 0)
(-0.0299941 0.0535557 0)
(-0.0587723 0.0435891 0)
(-0.0831894 0.0274642 0)
(-0.107369 0.0222245 0)
(-0.131696 0.0134505 0)
(-0.138107 -0.00795961 0)
(-0.121355 -0.0338597 0)
(-0.0899053 -0.0448974 0)
(-0.0561414 -0.0357899 0)
(-0.0321171 -0.0185751 0)
(-0.0225906 -0.00436209 0)
(-0.0230572 0.0048762 0)
(-0.0275741 0.0106514 0)
(-0.0321976 0.0145035 0)
(-0.0344226 0.0189131 0)
(-0.0327863 0.0262332 0)
(-0.0336132 0.0349669 0)
(-0.0475491 0.0432219 0)
(-0.0775803 0.0561051 0)
(-0.115374 0.0466956 0)
(-0.116629 -0.022617 0)
(-0.0655616 -0.114474 0)
(-0.0129258 -0.15979 0)
(-0.0209865 0.0704354 0)
(-0.0347108 0.056173 0)
(-0.0569793 0.0377168 0)
(-0.0801665 0.0334048 0)
(-0.101088 0.0214466 0)
(-0.101232 -0.00960266 0)
(-0.0862188 -0.0454048 0)
(-0.070394 -0.0596029 0)
(-0.0543892 -0.0481271 0)
(-0.0395427 -0.0256639 0)
(-0.0319837 -0.0061891 0)
(-0.0327663 0.00634416 0)
(-0.0381035 0.0131613 0)
(-0.0433753 0.0162254 0)
(-0.0449762 0.0183675 0)
(-0.0401207 0.0234245 0)
(-0.0289451 0.0322902 0)
(-0.0113759 0.0454496 0)
(0.00173903 0.0606026 0)
(0.0235967 0.0536794 0)
(0.0252367 -0.0152935 0)
(0.0253919 -0.112968 0)
(0.0273394 -0.157781 0)
(-0.00872093 0.0801248 0)
(-0.00339217 0.0633692 0)
(-0.0152324 0.0477759 0)
(-0.0272732 0.0425528 0)
(-0.0318619 0.025541 0)
(-0.0171975 -0.0123406 0)
(-0.00696669 -0.0483007 0)
(-0.0168951 -0.0606996 0)
(-0.0332578 -0.0492096 0)
(-0.0417044 -0.0272512 0)
(-0.0430866 -0.00696864 0)
(-0.0448316 0.00796233 0)
(-0.0493928 0.0157887 0)
(-0.0536912 0.0180034 0)
(-0.0537389 0.0176476 0)
(-0.0481032 0.0194388 0)
(-0.0373972 0.0238209 0)
(-0.0144119 0.0329132 0)
(0.0193045 0.0431883 0)
(0.0700929 0.0384414 0)
(0.0967362 -0.0151003 0)
(0.0736127 -0.101403 0)
(0.0542044 -0.134681 0)
(0.00540308 0.0754829 0)
(0.0327399 0.0589971 0)
(0.0427162 0.0444898 0)
(0.0494241 0.0374455 0)
(0.0702163 0.0163182 0)
(0.0975558 -0.0167615 0)
(0.0934535 -0.0418025 0)
(0.0527798 -0.0471817 0)
(0.00238841 -0.0357304 0)
(-0.0347913 -0.0192868 0)
(-0.0520917 -0.00353861 0)
(-0.0578414 0.00983304 0)
(-0.0620252 0.0169397 0)
(-0.0646125 0.0176336 0)
(-0.0617101 0.0150808 0)
(-0.0531104 0.014967 0)
(-0.0416819 0.0164385 0)
(-0.023474 0.0198776 0)
(0.00537465 0.0196993 0)
(0.0503399 0.0112755 0)
(0.09375 -0.021349 0)
(0.0715726 -0.0882362 0)
(0.0660146 -0.111401 0)
(0.0157128 0.0653498 0)
(0.0611986 0.0583727 0)
(0.108197 0.0468685 0)
(0.153966 0.0353389 0)
(0.196662 0.0118525 0)
(0.209576 -0.0124263 0)
(0.17082 -0.0240786 0)
(0.0991977 -0.0224388 0)
(0.0295209 -0.0116764 0)
(-0.023463 -0.00359748 0)
(-0.0553729 0.00323397 0)
(-0.0693493 0.013535 0)
(-0.0755173 0.0199984 0)
(-0.0766647 0.0193286 0)
(-0.0701015 0.0132141 0)
(-0.0573242 0.0100941 0)
(-0.0431716 0.00918374 0)
(-0.0262133 0.00933376 0)
(-0.00433637 0.00395808 0)
(0.0211148 -0.00993547 0)
(0.0605436 -0.0317343 0)
(0.0475156 -0.081697 0)
(0.0639624 -0.08599 0)
(0.0268565 0.0283485 0)
(0.123543 0.00567835 0)
(0.196839 -0.00931068 0)
(0.239759 -0.0126451 0)
(0.251629 -0.0124335 0)
(0.222473 -0.00514158 0)
(0.153809 0.00805451 0)
(0.0782251 0.0164926 0)
(0.0204396 0.0237045 0)
(-0.0208422 0.0235937 0)
(-0.0496778 0.0188516 0)
(-0.0696122 0.0193488 0)
(-0.0832815 0.0185662 0)
(-0.0880611 0.0128818 0)
(-0.0805021 0.0041267 0)
(-0.0639704 0.00170439 0)
(-0.0465999 0.00272042 0)
(-0.0283685 0.00300827 0)
(-0.00792074 -0.00307905 0)
(0.010206 -0.0187944 0)
(0.0315826 -0.0365208 0)
(0.0283252 -0.0772982 0)
(0.0493885 -0.05034 0)
(-0.216839 0.0673234 0)
(-0.518866 0.0561831 0)
(-0.606996 -0.0130806 0)
(-0.473339 -0.0434787 0)
(-0.338084 -0.0435023 0)
(-0.203564 -0.051291 0)
(0.0361677 -0.104486 0)
(0.343751 -0.0834571 0)
(0.176218 0.059457 0)
(-0.599935 0.206258 0)
(-1.17256 0.147535 0)
(-1.38528 0.051791 0)
(-1.39444 0.00987857 0)
(-1.35723 0.000318357 0)
(-1.30311 -0.00137568 0)
(-1.18216 -0.0108826 0)
(-0.917935 -0.0490632 0)
(-0.496051 -0.0980028 0)
(-0.027551 -0.0224569 0)
(-0.364223 0.213451 0)
(-0.518038 0.146942 0)
(-0.413344 -0.0259204 0)
(-0.313521 -0.0870211 0)
(-0.16579 -0.0979322 0)
(-0.0955826 -0.109223 0)
(0.129863 -0.19876 0)
(0.148479 0.0510571 0)
(-0.57485 0.353781 0)
(-1.43871 0.370964 0)
(-1.73868 0.147936 0)
(-1.7185 0.00990508 0)
(-1.68929 -0.035629 0)
(-1.63499 -0.0528452 0)
(-1.54923 -0.069555 0)
(-1.40854 -0.109945 0)
(-1.13405 -0.209792 0)
(-0.672684 -0.321494 0)
(-0.156431 -0.158196 0)
(-0.359399 0.346049 0)
(-0.296899 0.169788 0)
(-0.229719 -0.0972874 0)
(-0.121484 -0.152552 0)
(0.0128534 -0.139006 0)
(-0.00333568 -0.142947 0)
(0.0633821 -0.186774 0)
(-0.305733 0.303214 0)
(-1.19329 0.630678 0)
(-1.84066 0.531948 0)
(-2.03541 0.230497 0)
(-2.24868 0.0373646 0)
(-2.24915 -0.0471863 0)
(-2.16678 -0.101325 0)
(-2.04615 -0.160138 0)
(-1.83353 -0.257221 0)
(-1.40945 -0.442541 0)
(-0.761784 -0.622019 0)
(-0.192728 -0.358255 0)
(-0.310329 0.438675 0)
(-0.0253144 0.164816 0)
(-0.0143513 -0.111666 0)
(0.0853253 -0.198675 0)
(0.164845 -0.152026 0)
(0.0589712 -0.112109 0)
(-0.0523434 -0.052893 0)
(-0.659235 0.578373 0)
(-1.4682 0.911873 0)
(-1.86306 0.751386 0)
(-1.92006 0.399601 0)
(-2.03499 0.063999 0)
(-1.92425 -0.107096 0)
(-1.84794 -0.131481 0)
(-2.0338 -0.185568 0)
(-2.07228 -0.341937 0)
(-1.62677 -0.61967 0)
(-0.760975 -0.970674 0)
(-0.143017 -0.576634 0)
(-0.24249 0.494388 0)
(0.177835 0.0856915 0)
(0.217263 -0.151053 0)
(0.287593 -0.22593 0)
(0.316761 -0.139747 0)
(0.117898 -0.0277919 0)
(-0.13916 0.138218 0)
(-0.88163 0.860796 0)
(-1.4676 1.15674 0)
(-1.39808 0.884835 0)
(-0.696833 0.507399 0)
(-0.374923 0.159526 0)
(-0.410541 -0.0132186 0)
(-0.526098 -0.127222 0)
(-0.864056 -0.135961 0)
(-1.27428 -0.297089 0)
(-1.40357 -0.750404 0)
(-0.690124 -1.30297 0)
(-0.0499021 -0.792657 0)
(-0.124759 0.473732 0)
(0.301432 0.0504307 0)
(0.413591 -0.191818 0)
(0.471272 -0.239063 0)
(0.46787 -0.0990803 0)
(0.203499 0.0997924 0)
(-0.111107 0.335851 0)
(-0.877831 1.06772 0)
(-1.01835 1.18747 0)
(-0.715841 0.663764 0)
(-0.26871 0.0701235 0)
(-0.517667 0.0686135 0)
(-0.0230092 -0.130126 0)
(0.786056 -0.00471243 0)
(0.975298 0.147891 0)
(0.816658 0.111073 0)
(-0.708093 -0.700508 0)
(-0.603954 -1.54317 0)
(0.0388901 -0.992537 0)
(0.151652 0.330644 0)
(0.417199 -0.00218738 0)
(0.55562 -0.233933 0)
(0.616413 -0.263349 0)
(0.600153 -0.044762 0)
(0.305993 0.262795 0)
(0.00217216 0.52096 0)
(-0.742802 1.1878 0)
(-0.334024 1.10152 0)
(-0.246127 0.566244 0)
(-0.780179 0.302322 0)
(-0.960029 0.0492629 0)
(0.0603427 -0.64214 0)
(1.04733 -0.73468 0)
(2.14334 -0.083343 0)
(2.92599 0.627492 0)
(0.754699 0.201361 0)
(-0.513379 -1.56272 0)
(0.102026 -1.17407 0)
(0.162995 0.155947 0)
(0.453298 -0.0820965 0)
(0.635889 -0.299997 0)
(0.652901 -0.310196 0)
(0.63995 -0.0394711 0)
(0.401455 0.335243 0)
(0.156966 0.657256 0)
(-0.573727 1.22316 0)
(0.0732434 1.09492 0)
(-0.291969 0.749476 0)
(-1.09523 0.441494 0)
(-0.616054 -0.251754 0)
(0.386697 -1.14344 0)
(0.731879 -1.30732 0)
(1.40237 -0.707453 0)
(2.57813 0.281709 0)
(2.61661 1.07676 0)
(-0.299447 -1.1724 0)
(0.138029 -1.30424 0)
(0.0238266 -0.0307811 0)
(-0.00372958 -0.0434506 0)
(-0.0408271 -0.00403924 0)
(-0.0700771 0.0263935 0)
(-0.0721062 0.0412815 0)
(-0.0684352 0.0502104 0)
(-0.0734049 0.0452652 0)
(-0.0741862 0.0355123 0)
(-0.0696648 0.0310057 0)
(-0.063612 0.0263979 0)
(-0.0594479 0.0250965 0)
(-0.0641735 0.0345207 0)
(-0.0774772 0.0382663 0)
(-0.0867412 0.0260507 0)
(-0.0756646 0.000321177 0)
(-0.0563207 -0.0106776 0)
(-0.0421135 -0.0155759 0)
(-0.0292035 -0.0174813 0)
(-0.0136928 -0.0226916 0)
(0.00413549 -0.0344339 0)
(0.018248 -0.0489909 0)
(0.0292584 -0.0852457 0)
(0.0409702 -0.0743577 0)
(-0.68704 0.100848 0)
(-0.657941 0.0870991 0)
(-0.578623 0.0400454 0)
(-0.498778 -0.00690912 0)
(-0.460095 -0.024298 0)
(-0.451466 -0.00954751 0)
(-0.446466 0.0128401 0)
(-0.409477 0.0182832 0)
(-0.348871 0.0173414 0)
(-0.284368 0.0161455 0)
(-0.209292 0.0220198 0)
(-0.140214 0.0315741 0)
(-0.103093 0.0331288 0)
(-0.0719561 0.0108235 0)
(-0.0366489 -0.0229439 0)
(-0.0187865 -0.0263883 0)
(-0.0131254 -0.019035 0)
(-0.00655407 -0.0176938 0)
(0.0131356 -0.0272084 0)
(0.0227425 -0.0376869 0)
(0.0255518 -0.0573726 0)
(0.0269139 -0.0906638 0)
(0.0439351 -0.112788 0)
(-0.461638 0.813112 0)
(-0.385974 0.0907203 0)
(-0.728079 -0.122258 0)
(-0.975347 -0.0402755 0)
(-1.1313 0.0128122 0)
(-1.20644 0.023187 0)
(-1.19607 0.00374644 0)
(-1.16709 -0.0657331 0)
(-1.12071 -0.130569 0)
(-0.978062 -0.14916 0)
(-0.729328 -0.11908 0)
(-0.514247 -0.0628963 0)
(-0.390321 -0.0363015 0)
(-0.35383 -0.0421895 0)
(-0.312883 -0.0425522 0)
(-0.222511 -0.0286565 0)
(-0.156663 -0.0240719 0)
(-0.118637 -0.0335848 0)
(-0.0915857 -0.0448631 0)
(-0.0506874 -0.0391097 0)
(-0.0333713 -0.0365901 0)
(-0.0390919 -0.076687 0)
(-0.0283882 -0.119361 0)
(-0.206255 1.16672 0)
(-0.175926 0.456243 0)
(-0.489023 0.315057 0)
(-0.662834 0.232552 0)
(-0.707873 0.128351 0)
(-0.696612 0.0472162 0)
(-0.652782 -0.00629476 0)
(-0.668968 -0.0497745 0)
(-0.77197 -0.12154 0)
(-0.930992 -0.231695 0)
(-1.1285 -0.363357 0)
(-1.32832 -0.250488 0)
(-1.47846 -0.0825774 0)
(-1.61239 -0.057317 0)
(-1.7079 -0.135592 0)
(-1.692 -0.194794 0)
(-1.54125 -0.188022 0)
(-1.33135 -0.186105 0)
(-1.10358 -0.193107 0)
(-0.897144 -0.160351 0)
(-0.68908 -0.139656 0)
(-0.615084 -0.142786 0)
(-0.549042 -0.120764 0)
(0.0541232 1.17082 0)
(0.076987 0.742719 0)
(-0.139286 0.422405 0)
(-0.197795 0.269329 0)
(-0.174249 0.140208 0)
(-0.191127 0.0397474 0)
(-0.170634 -0.0395138 0)
(-0.167832 -0.0232258 0)
(-0.182675 0.0814639 0)
(-0.262248 0.174065 0)
(-0.45298 0.146291 0)
(-0.64035 0.128053 0)
(-0.786026 0.159766 0)
(-0.921307 0.115334 0)
(-1.0892 -0.0295545 0)
(-1.24743 -0.179186 0)
(-1.38321 -0.287431 0)
(-1.49697 -0.353017 0)
(-1.42536 -0.28088 0)
(-1.30886 -0.176292 0)
(-1.21688 -0.128641 0)
(-1.22071 -0.207765 0)
(-1.27581 -0.410733 0)
(0.170881 0.893715 0)
(0.250087 0.816665 0)
(0.160398 0.502455 0)
(0.119298 0.27395 0)
(0.113117 0.141379 0)
(0.0558862 0.0786659 0)
(-0.0193903 0.0119422 0)
(-0.136967 -0.0198397 0)
(-0.220651 -0.00353196 0)
(-0.228911 0.062909 0)
(-0.264837 0.126162 0)
(-0.344035 0.170783 0)
(-0.402776 0.237801 0)
(-0.456329 0.280503 0)
(-0.584838 0.26811 0)
(-0.790172 0.182281 0)
(-1.07763 -0.0247653 0)
(-1.39044 -0.292699 0)
(-1.56985 -0.435848 0)
(-1.55395 -0.357646 0)
(-1.45974 -0.257743 0)
(-1.35634 -0.242141 0)
(-1.31744 -0.287912 0)
(0.10117 0.635983 0)
(0.249158 0.737064 0)
(0.270711 0.526411 0)
(0.249541 0.316029 0)
(0.19377 0.194549 0)
(0.118215 0.154504 0)
(0.0381535 0.125801 0)
(-0.0691911 0.123544 0)
(-0.167805 0.14248 0)
(-0.236781 0.170844 0)
(-0.273171 0.211422 0)
(-0.315511 0.239947 0)
(-0.350437 0.252391 0)
(-0.360325 0.271913 0)
(-0.377572 0.302657 0)
(-0.425059 0.312288 0)
(-0.519031 0.251686 0)
(-0.680141 0.0953994 0)
(-0.922349 -0.157842 0)
(-1.16464 -0.354858 0)
(-1.27809 -0.375426 0)
(-1.24937 -0.354434 0)
(-1.20685 -0.266664 0)
(-0.00155285 0.537793 0)
(0.149614 0.611381 0)
(0.225309 0.49003 0)
(0.227813 0.348693 0)
(0.162273 0.260208 0)
(0.0923999 0.231412 0)
(0.0243961 0.212665 0)
(-0.0634862 0.205034 0)
(-0.142481 0.197297 0)
(-0.207211 0.20379 0)
(-0.249426 0.240673 0)
(-0.279264 0.276258 0)
(-0.305941 0.284989 0)
(-0.328441 0.291378 0)
(-0.342783 0.313837 0)
(-0.354035 0.324647 0)
(-0.391816 0.290732 0)
(-0.494327 0.208552 0)
(-0.68539 0.108535 0)
(-0.962699 -0.0118736 0)
(-1.17629 -0.212227 0)
(-1.20104 -0.373349 0)
(-1.16395 -0.317896 0)
(-0.0312911 0.514488 0)
(0.0659224 0.49771 0)
(0.137118 0.446714 0)
(0.146868 0.372135 0)
(0.0998482 0.317304 0)
(0.0514923 0.293683 0)
(0.000841967 0.279424 0)
(-0.059658 0.271419 0)
(-0.116444 0.259754 0)
(-0.171454 0.256531 0)
(-0.215199 0.272049 0)
(-0.239469 0.293966 0)
(-0.258055 0.306764 0)
(-0.287267 0.319061 0)
(-0.32046 0.341039 0)
(-0.349104 0.354564 0)
(-0.386208 0.343598 0)
(-0.455347 0.310346 0)
(-0.563185 0.271948 0)
(-0.723349 0.197039 0)
(-0.991898 -0.025797 0)
(-1.23215 -0.317586 0)
(-1.2008 -0.365847 0)
(-0.0187839 0.506873 0)
(0.0289729 0.430323 0)
(0.071132 0.42038 0)
(0.0778764 0.388824 0)
(0.0516418 0.35665 0)
(0.0227017 0.336429 0)
(-0.0111656 0.326627 0)
(-0.0486685 0.322166 0)
(-0.088833 0.314927 0)
(-0.134053 0.309469 0)
(-0.175417 0.310293 0)
(-0.203713 0.318146 0)
(-0.226764 0.330541 0)
(-0.257759 0.348866 0)
(-0.294293 0.372439 0)
(-0.330511 0.390457 0)
(-0.371155 0.396227 0)
(-0.425731 0.38901 0)
(-0.500135 0.385078 0)
(-0.608571 0.383506 0)
(-0.837873 0.259139 0)
(-1.22638 -0.115983 0)
(-1.48537 -0.464647 0)
(-0.00724742 0.503764 0)
(0.0145836 0.398435 0)
(0.0346843 0.407542 0)
(0.0380886 0.397301 0)
(0.0240947 0.378087 0)
(0.00665194 0.36265 0)
(-0.0158544 0.356213 0)
(-0.0400842 0.354118 0)
(-0.0684537 0.350496 0)
(-0.101533 0.346029 0)
(-0.135195 0.343588 0)
(-0.166536 0.347775 0)
(-0.197176 0.361463 0)
(-0.231263 0.383956 0)
(-0.267572 0.409234 0)
(-0.303924 0.42844 0)
(-0.343018 0.4393 0)
(-0.386565 0.444066 0)
(-0.444071 0.466985 0)
(-0.541175 0.542039 0)
(-0.737139 0.562256 0)
(-1.11359 0.27894 0)
(-1.48491 -0.323594 0)
(-0.00372902 0.502063 0)
(0.00727307 0.383459 0)
(0.0159631 0.40152 0)
(0.0176996 0.400958 0)
(0.00922353 0.389592 0)
(-0.0023875 0.379173 0)
(-0.0185406 0.375198 0)
(-0.0356811 0.375056 0)
(-0.0557039 0.37498 0)
(-0.0791415 0.373999 0)
(-0.105938 0.374129 0)
(-0.136209 0.379949 0)
(-0.168861 0.395211 0)
(-0.20323 0.419082 0)
(-0.23798 0.445255 0)
(-0.273108 0.465494 0)
(-0.310859 0.478226 0)
(-0.350948 0.49157 0)
(-0.402977 0.543387 0)
(-0.492281 0.68598 0)
(-0.648579 0.805466 0)
(-0.921441 0.600028 0)
(-1.21907 0.0482106 0)
(-0.00258107 0.501251 0)
(0.00338837 0.376422 0)
(0.00621834 0.39877 0)
(0.00701068 0.403684 0)
(0.000779992 0.397648 0)
(-0.00777243 0.391268 0)
(-0.0200948 0.389438 0)
(-0.0332343 0.391025 0)
(-0.0482202 0.393859 0)
(-0.0661077 0.396749 0)
(-0.088253 0.401227 0)
(-0.114929 0.410764 0)
(-0.144643 0.42793 0)
(-0.175671 0.452099 0)
(-0.206802 0.47868 0)
(-0.239573 0.501102 0)
(-0.276853 0.518128 0)
(-0.319427 0.542471 0)
(-0.375545 0.621019 0)
(-0.458968 0.809263 0)
(-0.591672 0.993041 0)
(-0.819107 0.868312 0)
(-1.10069 0.312883 0)
(-0.00118598 0.50112 0)
(0.00158223 0.373839 0)
(0.00143382 0.398064 0)
(0.00137708 0.406541 0)
(-0.00367452 0.404126 0)
(-0.010386 0.400892 0)
(-0.0201383 0.400952 0)
(-0.030873 0.403879 0)
(-0.0430786 0.408758 0)
(-0.057681 0.414985 0)
(-0.0759331 0.423671 0)
(-0.0979335 0.436998 0)
(-0.122538 0.456273 0)
(-0.148354 0.481146 0)
(-0.174757 0.509101 0)
(-0.204069 0.5355 0)
(-0.239899 0.559807 0)
(-0.283755 0.597647 0)
(-0.341981 0.697151 0)
(-0.418868 0.911425 0)
(-0.529061 1.14065 0)
(-0.710615 1.07296 0)
(-0.896388 0.488922 0)
(0.000364825 0.500739 0)
(0.00103297 0.373813 0)
(-0.00044047 0.39863 0)
(-0.00118209 0.40932 0)
(-0.00522287 0.409296 0)
(-0.0105632 0.408505 0)
(-0.0182977 0.410291 0)
(-0.0271648 0.41449 0)
(-0.037327 0.421026 0)
(-0.049284 0.429883 0)
(-0.0637958 0.441761 0)
(-0.0808671 0.457836 0)
(-0.0998172 0.478833 0)
(-0.119916 0.504818 0)
(-0.141089 0.535029 0)
(-0.165559 0.566699 0)
(-0.197287 0.599629 0)
(-0.237289 0.650484 0)
(-0.287204 0.764032 0)
(-0.346012 0.989098 0)
(-0.42009 1.25313 0)
(-0.551406 1.2279 0)
(-0.673614 0.646316 0)
(0.00157724 0.499577 0)
(0.00119218 0.374932 0)
(-0.000577654 0.39979 0)
(-0.00164007 0.411794 0)
(-0.00467888 0.413332 0)
(-0.00874391 0.4144 0)
(-0.0145763 0.417701 0)
(-0.0214961 0.423167 0)
(-0.0295127 0.43108 0)
(-0.0387642 0.441722 0)
(-0.0495587 0.455604 0)
(-0.0618165 0.473387 0)
(-0.0751808 0.495637 0)
(-0.0894596 0.522815 0)
(-0.104853 0.555307 0)
(-0.1228 0.592166 0)
(-0.146939 0.633241 0)
(-0.178343 0.69303 0)
(-0.212478 0.811802 0)
(-0.242182 1.0339 0)
(-0.263635 1.31965 0)
(-0.329746 1.37204 0)
(-0.544987 0.773963 0)
(0.00227488 0.497749 0)
(0.00172026 0.376224 0)
(0.000258369 0.401048 0)
(-0.00068717 0.413754 0)
(-0.0026826 0.416281 0)
(-0.00544882 0.418681 0)
(-0.00939446 0.423155 0)
(-0.0141768 0.429671 0)
(-0.0197648 0.438568 0)
(-0.026084 0.450232 0)
(-0.0331213 0.465141 0)
(-0.0407354 0.483796 0)
(-0.0487238 0.506795 0)
(-0.0570354 0.534837 0)
(-0.0658227 0.568825 0)
(-0.0756509 0.609318 0)
(-0.0888094 0.656817 0)
(-0.10697 0.720744 0)
(-0.122409 0.833356 0)
(-0.117512 1.03684 0)
(-0.0770102 1.31874 0)
(-0.0392062 1.48774 0)
(-0.159143 1.1488 0)
(0.00260877 0.495408 0)
(0.00245777 0.377172 0)
(0.00157317 0.40197 0)
(0.00114957 0.414975 0)
(0.000248561 0.418077 0)
(-0.00117255 0.421333 0)
(-0.003281 0.426573 0)
(-0.00587299 0.433772 0)
(-0.00888722 0.443217 0)
(-0.0121522 0.455304 0)
(-0.0154933 0.470503 0)
(-0.0186905 0.489277 0)
(-0.0215146 0.512266 0)
(-0.023781 0.540325 0)
(-0.02529 0.574429 0)
(-0.0258466 0.61583 0)
(-0.0259356 0.666224 0)
(-0.026277 0.730604 0)
(-0.0202896 0.828088 0)
(0.0131183 0.994298 0)
(0.106921 1.24201 0)
(0.247219 1.45616 0)
(0.294683 1.43162 0)
(0.00280703 0.49255 0)
(0.00333576 0.377546 0)
(0.00310783 0.402215 0)
(0.00350789 0.415257 0)
(0.0037249 0.418644 0)
(0.00366428 0.42237 0)
(0.00330537 0.427978 0)
(0.00281268 0.435454 0)
(0.00229849 0.445024 0)
(0.00199397 0.457019 0)
(0.0021427 0.471898 0)
(0.0030331 0.490059 0)
(0.0050559 0.512156 0)
(0.00861078 0.538948 0)
(0.0142801 0.571472 0)
(0.02303 0.61086 0)
(0.0356997 0.659067 0)
(0.0535996 0.719312 0)
(0.081963 0.79946 0)
(0.137573 0.918758 0)
(0.255884 1.10102 0)
(0.460953 1.28823 0)
(0.626662 1.36223 0)
(0.00300512 0.489109 0)
(0.00429633 0.377272 0)
(0.00474321 0.401599 0)
(0.00613145 0.414503 0)
(0.0074612 0.417963 0)
(0.00872592 0.421859 0)
(0.00999162 0.427515 0)
(0.011446 0.434886 0)
(0.0132045 0.444168 0)
(0.0155802 0.455629 0)
(0.0188476 0.46965 0)
(0.0233886 0.486573 0)
(0.0296963 0.506934 0)
(0.0384389 0.531306 0)
(0.0505047 0.560589 0)
(0.0671487 0.595501 0)
(0.0900948 0.637264 0)
(0.122123 0.687988 0)
(0.167875 0.750033 0)
(0.238154 0.827484 0)
(0.357264 0.93245 0)
(0.560426 1.05036 0)
(0.803882 1.08902 0)
(0.00323197 0.485037 0)
(0.00528401 0.37634 0)
(0.00640861 0.400061 0)
(0.00882318 0.412701 0)
(0.0112135 0.416078 0)
(0.0137478 0.419907 0)
(0.0164891 0.425355 0)
(0.019665 0.432338 0)
(0.0234343 0.440973 0)
(0.0281284 0.45153 0)
(0.0340749 0.464237 0)
(0.0416988 0.479411 0)
(0.0515688 0.497351 0)
(0.0644952 0.518485 0)
(0.0814511 0.543282 0)
(0.103826 0.572068 0)
(0.133558 0.605228 0)
(0.173564 0.643333 0)
(0.227994 0.686409 0)
(0.303073 0.732639 0)
(0.411437 0.779438 0)
(0.571748 0.822262 0)
(0.789616 0.807696 0)
(0.00347855 0.480316 0)
(0.00625216 0.374756 0)
(0.0080306 0.397604 0)
(0.0114403 0.409883 0)
(0.0148097 0.413058 0)
(0.0184999 0.416643 0)
(0.0225655 0.421671 0)
(0.027234 0.428032 0)
(0.0327042 0.435782 0)
(0.0393318 0.445122 0)
(0.0474639 0.456195 0)
(0.0575465 0.469212 0)
(0.0701595 0.48432 0)
(0.0861263 0.501721 0)
(0.106366 0.521501 0)
(0.132194 0.543679 0)
(0.165352 0.567909 0)
(0.208102 0.593653 0)
(0.26366 0.619619 0)
(0.335498 0.643112 0)
(0.429471 0.6579 0)
(0.548966 0.655711 0)
(0.702503 0.612925 0)
(0.00373637 0.474963 0)
(0.0071622 0.37254 0)
(0.00954898 0.394292 0)
(0.0138728 0.406121 0)
(0.0181131 0.40901 0)
(0.0228255 0.412206 0)
(0.0280192 0.416675 0)
(0.0339568 0.42223 0)
(0.0408272 0.428932 0)
(0.0489852 0.436852 0)
(0.0587955 0.446102 0)
(0.0706999 0.456756 0)
(0.0852434 0.468847 0)
(0.103146 0.482378 0)
(0.125264 0.497159 0)
(0.152658 0.512981 0)
(0.18672 0.529084 0)
(0.228994 0.54442 0)
(0.281541 0.557181 0)
(0.346165 0.564649 0)
(0.425499 0.56221 0)
(0.517701 0.54204 0)
(0.623208 0.492443 0)
(0.00399503 0.46903 0)
(0.00798456 0.369741 0)
(0.0109198 0.390227 0)
(0.0160449 0.40153 0)
(0.0210288 0.404076 0)
(0.0266053 0.406783 0)
(0.0327305 0.41058 0)
(0.0396894 0.415238 0)
(0.0476549 0.420761 0)
(0.0569634 0.427173 0)
(0.067984 0.434509 0)
(0.0811051 0.442763 0)
(0.096833 0.451849 0)
(0.115745 0.461636 0)
(0.138579 0.47179 0)
(0.166145 0.481886 0)
(0.199435 0.491088 0)
(0.239445 0.498138 0)
(0.287274 0.501281 0)
(0.343582 0.497967 0)
(0.409168 0.484953 0)
(0.481687 0.457088 0)
(0.557794 0.40755 0)
(0.00423984 0.462577 0)
(0.00869726 0.366426 0)
(0.0121266 0.38552 0)
(0.0179139 0.39625 0)
(0.023507 0.398397 0)
(0.0297653 0.400568 0)
(0.0366276 0.403616 0)
(0.0443554 0.407325 0)
(0.0531188 0.411606 0)
(0.0632232 0.4165 0)
(0.0750183 0.421928 0)
(0.0888421 0.427854 0)
(0.105121 0.434107 0)
(0.124314 0.440448 0)
(0.14699 0.446497 0)
(0.173756 0.451697 0)
(0.205234 0.455249 0)
(0.24201 0.455911 0)
(0.284532 0.452153 0)
(0.332764 0.44186 0)
(0.386424 0.422647 0)
(0.443442 0.391369 0)
(0.500273 0.344182 0)
(0.00445546 0.455673 0)
(0.00929242 0.362658 0)
(0.0131639 0.380282 0)
(0.0194609 0.390417 0)
(0.0255266 0.392125 0)
(0.0322933 0.393733 0)
(0.0396857 0.396011 0)
(0.0479408 0.398743 0)
(0.0572297 0.401799 0)
(0.0678147 0.405199 0)
(0.0800027 0.408816 0)
(0.0940997 0.412566 0)
(0.110424 0.416239 0)
(0.129339 0.419533 0)
(0.151248 0.422049 0)
(0.176576 0.423216 0)
(0.205675 0.422285 0)
(0.238825 0.418192 0)
(0.276077 0.409642 0)
(0.317041 0.395048 0)
(0.361006 0.372748 0)
(0.4062 0.340895 0)
(0.449674 0.297382 0)
(0.00462861 0.448402 0)
(0.00977616 0.358504 0)
(0.0140237 0.374627 0)
(0.0206872 0.384175 0)
(0.0270834 0.385425 0)
(0.0342056 0.386449 0)
(0.0419332 0.387967 0)
(0.0504973 0.389734 0)
(0.0600575 0.391622 0)
(0.0708443 0.393594 0)
(0.0831104 0.395537 0)
(0.09712 0.397311 0)
(0.113103 0.398692 0)
(0.131331 0.399369 0)
(0.152079 0.398933 0)
(0.175611 0.396863 0)
(0.202094 0.392487 0)
(0.231596 0.384949 0)
(0.263948 0.373195 0)
(0.298617 0.356073 0)
(0.334806 0.332478 0)
(0.371059 0.301375 0)
(0.405003 0.261619 0)
(0.00475892 0.440847 0)
(0.0101633 0.354036 0)
(0.0146875 0.368659 0)
(0.0216069 0.377661 0)
(0.0281859 0.378452 0)
(0.0355282 0.378898 0)
(0.0434204 0.37968 0)
(0.0521027 0.380527 0)
(0.0617151 0.381321 0)
(0.0724622 0.381982 0)
(0.0845488 0.382408 0)
(0.0981869 0.382429 0)
(0.113542 0.381822 0)
(0.1308 0.380288 0)
(0.15014 0.377438 0)
(0.171706 0.372814 0)
(0.195536 0.36585 0)
(0.221571 0.355868 0)
(0.249526 0.342047 0)
(0.278834 0.323537 0)
(0.308738 0.299622 0)
(0.338093 0.269773 0)
(0.36505 0.233464 0)
(0.0048711 0.433061 0)
(0.0104846 0.34935 0)
(0.0151284 0.362478 0)
(0.0222327 0.37099 0)
(0.0288559 0.371334 0)
(0.0363022 0.37124 0)
(0.0442134 0.37133 0)
(0.052854 0.371329 0)
(0.0623443 0.371122 0)
(0.0728587 0.37061 0)
(0.0845592 0.36969 0)
(0.0976071 0.368183 0)
(0.112122 0.365879 0)
(0.128223 0.362502 0)
(0.146021 0.357713 0)
(0.165578 0.351111 0)
(0.186845 0.342235 0)
(0.209677 0.330557 0)
(0.233748 0.315455 0)
(0.25852 0.296303 0)
(0.283324 0.272638 0)
(0.307274 0.244257 0)
(0.328962 0.211055 0)
(0.00501525 0.425049 0)
(0.0107791 0.344581 0)
(0.0153173 0.356181 0)
(0.0225695 0.364254 0)
(0.0291175 0.364172 0)
(0.0365725 0.363594 0)
(0.0443789 0.36305 0)
(0.0528525 0.362285 0)
(0.0620858 0.361183 0)
(0.0722232 0.359641 0)
(0.0833883 0.357549 0)
(0.0956995 0.354738 0)
(0.109242 0.351015 0)
(0.124091 0.346135 0)
(0.140302 0.33981 0)
(0.157879 0.331701 0)
(0.176724 0.321433 0)
(0.196649 0.308608 0)
(0.217329 0.292768 0)
(0.238282 0.273467 0)
(0.25893 0.250388 0)
(0.278584 0.223517 0)
(0.296181 0.193032 0)
(0.00525871 0.416766 0)
(0.0110782 0.339944 0)
(0.0152371 0.349884 0)
(0.0226147 0.357542 0)
(0.028982 0.357062 0)
(0.0363697 0.356063 0)
(0.0439624 0.354949 0)
(0.0521738 0.353508 0)
(0.0610581 0.351623 0)
(0.0707256 0.349191 0)
(0.0812663 0.346101 0)
(0.0927662 0.342197 0)
(0.105283 0.337307 0)
(0.118856 0.331219 0)
(0.133507 0.323692 0)
(0.1492 0.314449 0)
(0.165814 0.303194 0)
(0.183148 0.289628 0)
(0.200904 0.273432 0)
(0.218665 0.254294 0)
(0.235931 0.231985 0)
(0.252154 0.20657 0)
(0.26655 0.178405 0)
(0.00564324 0.408129 0)
(0.0113804 0.335661 0)
(0.0149223 0.343734 0)
(0.0223687 0.350941 0)
(0.0284484 0.350104 0)
(0.0356984 0.348744 0)
(0.042978 0.347117 0)
(0.0508544 0.345087 0)
(0.0593225 0.342524 0)
(0.0684608 0.33933 0)
(0.0783337 0.335398 0)
(0.0890021 0.330592 0)
(0.100502 0.324754 0)
(0.112848 0.317711 0)
(0.126034 0.309259 0)
(0.140002 0.299182 0)
(0.154625 0.287248 0)
(0.169709 0.273237 0)
(0.184997 0.256938 0)
(0.200145 0.23814 0)
(0.214721 0.216674 0)
(0.228273 0.192615 0)
(0.240255 0.166398 0)
(0.00613546 0.399091 0)
(0.011637 0.331831 0)
(0.0144352 0.337892 0)
(0.0218225 0.344531 0)
(0.0275033 0.343385 0)
(0.0345296 0.341711 0)
(0.0413924 0.339626 0)
(0.048867 0.337084 0)
(0.0568528 0.333935 0)
(0.0654135 0.330089 0)
(0.0745967 0.325451 0)
(0.084438 0.319904 0)
(0.0949581 0.313304 0)
(0.106155 0.30551 0)
(0.118006 0.296357 0)
(0.130444 0.285675 0)
(0.143344 0.273288 0)
(0.156534 0.259033 0)
(0.1698 0.242775 0)
(0.182873 0.224383 0)
(0.195405 0.203736 0)
(0.207011 0.180881 0)
(0.21735 0.156247 0)
(0.00665519 0.38969 0)
(0.0117941 0.328493 0)
(0.0137881 0.332524 0)
(0.0209476 0.338421 0)
(0.0261136 0.337006 0)
(0.0328041 0.335048 0)
(0.0391405 0.332559 0)
(0.0461331 0.329569 0)
(0.0535514 0.325912 0)
(0.0614666 0.321504 0)
(0.0699163 0.316269 0)
(0.0789135 0.310102 0)
(0.0884716 0.302884 0)
(0.0985813 0.294497 0)
(0.109209 0.284812 0)
(0.120286 0.273692 0)
(0.131698 0.261 0)
(0.1433 0.246616 0)
(0.15492 0.230449 0)
(0.166371 0.21243 0)
(0.177397 0.192477 0)
(0.187674 0.170611 0)
(0.197035 0.147184 0)
(0.00714194 0.380022 0)
(0.0118179 0.325709 0)
(0.0129574 0.327793 0)
(0.0197172 0.332765 0)
(0.0242397 0.331097 0)
(0.030465 0.328883 0)
(0.0361565 0.326035 0)
(0.0425626 0.322649 0)
(0.0492973 0.318537 0)
(0.0564658 0.313641 0)
(0.0640965 0.307895 0)
(0.0721876 0.301208 0)
(0.0807504 0.293486 0)
(0.0897718 0.284625 0)
(0.0992127 0.274523 0)
(0.109009 0.263068 0)
(0.11906 0.25015 0)
(0.129252 0.235676 0)
(0.139458 0.21958 0)
(0.149559 0.201833 0)
(0.159387 0.182381 0)
(0.168682 0.161235 0)
(0.177414 0.138638 0)
(0.00755565 0.370201 0)
(0.0116604 0.32352 0)
(0.0119417 0.323839 0)
(0.0181359 0.327718 0)
(0.021877 0.325803 0)
(0.027509 0.323365 0)
(0.0324319 0.320195 0)
(0.0381337 0.316452 0)
(0.0440546 0.311936 0)
(0.0503593 0.306617 0)
(0.0570587 0.300438 0)
(0.0641454 0.29332 0)
(0.0716267 0.285182 0)
(0.079489 0.275938 0)
(0.0876934 0.265495 0)
(0.096179 0.25376 0)
(0.104867 0.240649 0)
(0.113672 0.226082 0)
(0.122512 0.210012 0)
(0.131305 0.192421 0)
(0.13996 0.17327 0)
(0.148269 0.15257 0)
(0.156282 0.130465 0)
(0.00784521 0.360407 0)
(0.0112589 0.321908 0)
(0.0107559 0.320743 0)
(0.016246 0.323399 0)
(0.0190923 0.32126 0)
(0.0240271 0.318612 0)
(0.0280729 0.315159 0)
(0.032969 0.311103 0)
(0.0379621 0.306233 0)
(0.0433007 0.300562 0)
(0.0489662 0.294022 0)
(0.0549468 0.286555 0)
(0.0612514 0.278077 0)
(0.0678619 0.268517 0)
(0.0747357 0.257791 0)
(0.0818296 0.245817 0)
(0.0890825 0.232538 0)
(0.0964319 0.217883 0)
(0.103829 0.20181 0)
(0.111205 0.184297 0)
(0.11851 0.165316 0)
(0.125575 0.144854 0)
(0.132492 0.123005 0)
(0.00795262 0.350876 0)
(0.0105723 0.320791 0)
(0.00941621 0.3185 0)
(0.0141188 0.319851 0)
(0.0160137 0.31754 0)
(0.0201833 0.314666 0)
(0.023296 0.310973 0)
(0.0273203 0.306642 0)
(0.0313217 0.301481 0)
(0.0356402 0.295527 0)
(0.0402141 0.288699 0)
(0.0450347 0.280952 0)
(0.0501036 0.272208 0)
(0.055407 0.262388 0)
(0.0608991 0.251437 0)
(0.0665555 0.239284 0)
(0.0723308 0.225878 0)
(0.078173 0.21116 0)
(0.0840516 0.195089 0)
(0.0899011 0.177624 0)
(0.0956871 0.158745 0)
(0.101253 0.138422 0)
(0.106728 0.116738 0)
(0.00780019 0.341901 0)
(0.00956948 0.320152 0)
(0.00795657 0.317102 0)
(0.0118174 0.31713 0)
(0.012793 0.314702 0)
(0.0161659 0.311583 0)
(0.0183558 0.307694 0)
(0.0214935 0.303129 0)
(0.0245035 0.297746 0)
(0.0278081 0.291571 0)
(0.0312938 0.284527 0)
(0.0349669 0.27656 0)
(0.0388127 0.267612 0)
(0.0428314 0.257606 0)
(0.0469842 0.246496 0)
(0.051246 0.234234 0)
(0.055584 0.220748 0)
(0.059962 0.206002 0)
(0.064344 0.189944 0)
(0.0686648 0.172536 0)
(0.0729142 0.153743 0)
(0.076946 0.133539 0)
(0.0808869 0.112046 0)
(0.00721725 0.333742 0)
(0.00816987 0.319885 0)
(0.00641153 0.316477 0)
(0.00938068 0.315252 0)
(0.0095854 0.312753 0)
(0.0121636 0.309371 0)
(0.0135074 0.305338 0)
(0.0157985 0.300568 0)
(0.0178776 0.295025 0)
(0.0202282 0.288681 0)
(0.022691 0.281478 0)
(0.0252896 0.273351 0)
(0.028008 0.264256 0)
(0.0308423 0.254133 0)
(0.0337691 0.242922 0)
(0.0367552 0.230592 0)
(0.0397723 0.217063 0)
(0.0428061 0.202313 0)
(0.0458125 0.186281 0)
(0.0487325 0.168954 0)