/*--------------------------------*- C++ -*----------------------------------*\
| =========                 |                                                 |
| \\      /  F ield         | OpenFOAM: The Open Source CFD Toolbox           |
|  \\    /   O peration     | Version:  5.x                                   |
|   \\  /    A nd           | Web:      www.OpenFOAM.org                      |
|    \\/     M anipulation  |                                                 |
\*---------------------------------------------------------------------------*/
FoamFile
{
    version     2.0;
    format      ascii;
    class       volScalarField;
    location    "0.05";
    object      alpha.water;
}
// * * * * * * * * * * * * * * * * * * * * * * * * * * * * * * * * * * * * * //

dimensions      [0 0 0 0 0 0 0];

internalField   nonuniform List<scalar> 
8000
(
1
1
1
1
1
1
1
1
1
1
1
1
1
1
1
1
1
1
1
1
1
1
1
1
1
1
1
1
1
1
1
1
1
1
1
1
1
1
1
1
1
1
1
1
1
1
1
1
1
1
1
1
1
1
1
1
1
1
1
1
1
1
1
1
1
1
1
1
1
1
1
1
1
1
1
1
1
1
1
1
1
1
1
1
1
1
1
1
1
1
1
1
1
1
1
1
1
1
1
1
1
1
1
1
1
1
1
1
1
1
1
1
1
1
1
1
1
1
1
1
1
1
1
1
1
1
1
1
1
1
1
1
1
1
1
1
1
1
1
1
1
1
1
1
1
1
1
1
1
1
1
1
1
1
1
1
1
1
1
1
1
1
1
1
1
1
1
1
1
1
1
1
1
1
1
1
1
1
1
1
1
1
1
1
1
1
1
1
1
1
1
1
1
1
1
1
1
1
1
1
1
1
1
1
1
1
1
1
1
1
1
1
1
1
1
1
1
1
1
1
1
1
1
1
1
1
1
1
1
1
1
1
1
1
1
1
1
1
1
1
1
1
1
1
1
1
1
1
1
1
1
1
1
1
1
1
1
1
1
1
1
1
1
1
1
1
1
1
1
1
1
1
1
1
1
1
1
1
1
1
1
1
1
1
1
1
1
1
1
1
1
1
1
1
1
1
1
1
1
1
1
1
1
1
1
1
1
1
1
1
1
1
1
1
1
1
1
1
1
1
1
1
1
1
1
1
1
1
1
1
1
1
1
1
1
1
1
1
1
1
1
1
1
1
1
1
1
1
1
1
1
1
1
1
1
1
1
1
1
1
1
1
1
1
1
1
1
1
1
1
1
1
1
1
1
1
1
1
1
1
1
1
1
1
1
1
1
1
1
1
1
1
1
1
1
1
1
1
1
1
1
1
1
1
1
1
1
1
1
1
1
1
1
1
1
1
1
1
1
1
1
1
1
1
1
1
1
1
1
1
1
1
1
1
1
1
1
1
1
1
1
1
1
1
1
1
1
1
1
1
1
1
1
1
1
1
1
1
1
1
1
1
1
1
1
1
1
1
1
1
1
1
1
1
1
1
1
1
1
1
1
1
1
1
1
1
1
1
1
1
1
1
1
1
1
1
1
1
1
1
1
1
1
1
1
1
1
1
1
1
1
1
1
1
1
1
1
1
1
1
1
1
1
1
1
1
1
1
1
1
1
1
1
1
1
1
1
1
1
1
1
1
1
1
1
1
1
1
1
1
1
1
1
1
1
1
1
1
1
1
1
1
1
1
1
1
1
1
1
1
1
1
1
1
1
1
1
1
1
1
1
1
1
1
1
1
1
1
1
1
1
1
1
1
1
1
1
1
1
1
1
1
1
1
1
1
1
1
1
1
1
1
1
1
1
1
1
1
1
1
1
1
1
1
1
1
1
1
1
1
1
1
1
1
1
1
1
1
1
1
1
1
1
1
1
1
1
1
1
1
1
1
1
1
1
1
1
1
1
1
1
1
1
1
1
1
1
1
1
1
1
1
1
1
1
1
1
1
1
1
1
1
1
1
1
1
1
1
1
1
1
1
1
1
1
1
1
1
1
1
1
1
1
1
1
1
1
1
1
1
1
1
1
1
1
1
1
1
1
1
1
1
1
1
1
1
1
1
1
1
1
1
1
1
1
1
1
1
1
1
1
1
1
1
1
1
1
1
1
1
1
1
1
1
1
1
1
1
1
1
1
1
1
1
1
1
1
1
1
1
1
1
1
1
1
1
1
1
1
1
1
1
1
1
1
1
1
1
1
1
1
1
1
1
1
1
1
1
1
1
1
1
1
1
1
1
1
1
1
1
1
1
1
1
1
1
1
1
1
1
1
1
1
1
1
1
1
1
1
1
1
1
1
1
1
1
1
1
1
1
1
1
1
1
1
1
1
1
1
1
1
1
1
1
1
1
1
1
1
1
1
1
1
1
1
1
1
1
1
1
1
1
1
1
1
1
1
1
1
1
1
1
1
1
1
1
1
1
1
1
1
1
1
1
1
1
1
1
1
1
1
1
1
1
1
1
1
1
1
1
1
1
1
1
1
1
1
1
1
1
1
1
1
1
1
1
1
1
1
1
1
1
1
1
1
1
1
1
1
1
1
1
1
1
1
1
1
1
1
1
1
1
1
1
1
1
1
1
1
1
1
1
1
1
1
1
1
1
1
1
1
1
1
1
1
1
1
1
1
1
1
1
1
1
1
1
1
1
1
1
1
1
1
1
1
1
1
1
1
1
1
1
1
1
1
1
1
1
1
1
1
1
1
1
1
1
1
1
1
1
1
1
1
1
1
1
1
1
1
1
1
1
1
1
1
1
1
1
1
1
1
1
1
1
1
1
1
1
1
1
1
1
1
1
1
1
1
1
1
1
1
1
1
1
1
1
1
1
1
1
1
1
1
1
1
1
1
1
1
1
1
1
1
1
1
1
1
1
1
1
1
1
1
1
1
1
1
1
1
1
1
1
1
1
1
1
1
1
1
1
1
1
1
1
1
1
1
1
1
1
1
1
1
1
1
1
1
1
1
1
1
1
1
1
1
1
1
1
1
1
1
1
1
1
1
1
1
1
1
1
1
1
1
1
1
1
1
1
1
1
1
1
1
1
1
1
1
1
1
1
1
1
1
1
1
1
1
1
1
1
1
1
1
1
1
1
1
1
1
1
1
1
1
1
1
1
1
1
1
1
1
1
1
1
1
1
1
1
1
1
1
1
1
1
1
1
1
1
1
1
1
1
1
1
1
1
1
1
1
1
1
1
1
1
1
1
1
1
1
1
1
1
1
1
1
1
1
1
1
1
1
1
1
1
1
1
1
1
1
1
1
1
1
1
1
1
1
1
1
1
1
1
1
1
1
1
1
1
1
1
1
1
1
1
1
1
1
1
1
1
1
1
1
1
1
1
1
1
1
1
1
1
1
1
1
1
1
1
1
1
1
1
1
1
1
1
1
1
1
1
1
1
1
1
1
1
1
1
1
1
1
1
1
1
1
1
1
1
1
1
1
1
1
1
1
1
1
1
1
1
1
1
1
1
1
1
1
1
1
1
1
1
1
1
1
1
1
1
1
1
1
1
1
1
1
1
1
1
1
1
1
1
1
1
1
1
1
1
1
1
1
1
1
1
1
1
1
1
1
1
1
1
1
1
1
1
1
1
1
1
1
1
1
1
1
1
1
1
1
1
1
1
1
1
1
1
1
1
1
1
1
1
1
1
1
1
1
1
1
1
1
1
1
1
1
1
1
1
1
1
1
1
1
1
1
1
1
1
1
1
1
1
1
1
1
1
1
1
1
1
1
1
1
1
1
1
1
1
1
1
1
1
1
1
1
1
1
1
1
1
1
1
1
1
1
1
1
1
1
1
1
1
1
1
1
1
1
1
1
1
1
1
1
1
1
1
1
1
1
1
1
1
1
1
1
1
1
1
1
1
1
1
1
1
1
1
1
1
1
1
1
1
1
1
1
1
1
1
1
1
1
1
1
1
1
1
1
1
1
1
1
1
1
1
1
1
1
1
1
1
1
1
1
1
1
1
1
1
1
1
1
1
1
1
1
1
1
1
1
1
1
1
1
1
1
1
1
1
1
1
1
1
1
1
1
1
1
1
1
1
1
1
1
1
1
1
1
1
1
1
1
1
1
1
1
1
1
1
1
1
1
1
1
1
1
1
1
1
1
1
1
1
1
1
1
1
1
1
1
1
1
1
1
1
1
1
1
1
1
1
1
1
1
1
1
1
1
1
1
1
1
1
1
1
1
1
1
1
1
1
1
1
1
1
1
1
1
1
1
1
1
1
1
1
1
1
1
1
1
1
1
1
1
1
1
1
1
1
1
1
1
1
1
1
1
1
1
1
1
1
1
1
1
1
1
1
1
1
1
1
1
1
1
1
1
1
1
1
1
1
1
1
1
1
1
1
1
1
1
1
1
1
1
1
1
1
1
1
1
1
1
1
1
1
1
1
1
1
1
1
1
1
1
1
1
1
1
1
1
1
1
1
1
1
1
1
1
1
1
1
1
1
1
1
1
1
1
1
1
1
1
1
1
1
1
1
1
1
1
1
1
1
1
1
1
1
1
1
1
1
1
1
1
1
1
1
1
1
1
1
1
1
1
1
1
1
1
1
1
1
1
1
1
1
1
1
1
1
1
1
1
1
1
1
1
1
1
1
1
1
1
1
1
1
1
1
1
1
1
1
1
1
1
1
1
1
1
1
1
1
1
1
1
1
1
1
1
1
1
1
1
1
1
1
1
1
1
1
1
1
1
1
1
1
1
1
1
1
1
1
1
1
1
1
1
1
1
1
1
1
1
1
1
1
1
1
1
1
1
1
1
1
1
1
1
1
1
1
1
1
1
1
1
1
1
1
1
1
1
1
1
1
1
1
1
1
1
1
1
1
1
1
1
1
1
1
1
1
1
1
1
1
1
1
1
1
1
1
1
1
1
1
1
1
1
1
1
1
1
1
1
1
1
1
1
1
1
1
1
1
1
1
1
1
1
1
1
1
1
1
1
1
1
1
1
1
1
1
1
1
1
1
1
1
1
1
1
1
1
1
1
1
1
1
1
1
1
1
1
1
1
1
1
1
1
1
1
1
1
1
1
1
1
1
1
1
1
1
1
1
1
1
1
1
1
1
1
1
1
1
1
1
1
1
1
1
1
1
1
1
1
1
1
1
1
1
1
1
1
1
1
1
1
1
1
1
1
1
1
1
1
1
1
1
1
1
1
1
1
1
1
1
1
1
1
1
1
1
1
1
1
1
1
1
1
1
1
1
1
1
1
1
1
1
1
1
1
1
1
1
1
1
1
1
1
1
1
1
1
1
1
1
1
1
1
1
1
1
1
1
1
1
1
1
1
1
1
1
1
1
1
1
1
1
1
1
1
1
1
1
1
1
1
1
1
1
1
1
1
1
1
1
1
1
1
1
1
1
1
1
1
1
1
1
1
1
1
1
1
1
1
1
1
1
1
1
1
1
1
1
1
1
1
1
1
1
1
1
1
1
1
1
1
1
1
1
1
1
1
1
1
1
1
1
1
1
1
1
1
1
1
1
1
1
1
1
1
1
1
1
1
1
1
1
1
1
1
1
1
1
1
1
1
1
1
1
1
1
1
1
1
1
1
1
1
1
1
1
1
1
1
1
1
1
1
1
1
1
1
1
1
1
1
1
1
1
1
1
1
1
1
1
1
1
1
1
1
1
1
1
1
1
1
1
1
1
1
1
1
1
1
1
1
1
1
1
1
1
1
1
1
1
1
1
1
1
1
1
1
1
1
1
1
1
1
1
1
1
1
1
1
1
1
1
1
1
1
1
1
1
1
1
1
1
1
1
1
1
1
1
1
1
1
1
1
1
1
1
1
1
1
1
1
1
1
1
1
1
1
1
1
1
1
1
1
1
1
1
1
1
1
1
1
1
1
1
1
1
1
1
1
1
1
1
1
1
1
1
1
1
1
1
1
1
1
1
1
1
1
1
1
1
1
1
1
1
1
1
1
1
1
1
1
1
1
1
1
1
1
1
1
1
1
1
1
1
1
1
1
1
1
1
1
1
1
1
1
1
1
1
1
1
1
1
1
1
1
1
1
1
1
1
1
1
1
1
1
1
1
1
1
1
1
1
1
1
1
1
1
1
1
1
1
1
1
1
1
1
1
1
1
1
1
1
1
1
1
1
1
1
1
1
1
1
1
1
1
1
1
1
1
1
1
1
1
1
1
1
1
1
1
1
1
1
1
1
1
1
1
1
1
1
1
1
1
1
1
1
1
1
1
1
1
1
1
1
1
1
1
1
1
1
1
1
1
1
1
1
1
1
1
1
1
1
1
1
1
1
1
1
1
1
1
1
1
1
1
1
1
1
1
1
1
1
1
1
1
1
1
1
1
1
1
1
1
1
1
1
1
1
1
1
1
1
1
1
1
1
1
1
1
1
1
1
1
1
1
1
1
1
1
1
1
1
1
1
1
1
1
1
1
1
1
1
1
1
1
1
1
1
1
1
1
1
1
1
1
1
1
1
1
1
1
1
1
1
1
1
1
1
1
1
1
1
1
1
1
1
1
1
1
1
1
1
1
1
1
1
1
1
1
1
1
1
1
1
1
1
1
1
1
1
1
1
1
1
1
1
1
1
1
1
1
1
1
1
1
1
1
1
1
1
1
1
1
1
1
1
1
1
1
1
1
1
1
1
1
1
1
1
1
1
1
1
1
1
1
1
1
1
1
1
1
1
1
1
1
1
1
1
1
1
1
1
1
1
1
1
1
1
1
1
1
1
1
1
1
1
1
1
1
1
1
1
1
1
1
1
1
1
1
1
1
1
1
1
1
1
1
1
1
1
1
1
1
1
1
1
1
1
1
1
1
1
1
1
1
1
1
1
1
1
1
1
1
1
1
1
1
1
1
1
1
1
1
1
1
1
1
1
1
1
1
1
1
1
1
1
1
1
1
1
1
1
1
1
1
1
1
1
1
1
1
1
1
1
1
1
1
1
1
1
1
1
1
1
1
1
1
1
1
1
1
1
1
1
1
1
1
1
1
1
1
1
1
1
1
1
1
1
1
1
1
1
1
1
1
1
1
1
1
1
1
1
1
1
1
1
1
1
1
1
1
1
1
1
1
1
1
1
1
1
1
1
1
1
1
1
1
1
1
1
1
1
1
1
1
1
1
1
1
1
1
1
1
1
1
1
1
1
1
1
1
1
1
1
1
1
1
1
1
1
1
1
1
1
1
1
1
1
1
1
1
1
1
1
1
1
1
1
1
1
1
1
1
1
1
1
1
1
1
1
1
1
1
1
1
1
1
1
1
1
1
1
1
1
1
1
1
1
1
1
1
1
1
1
1
1
1
1
1
1
1
1
1
1
1
1
1
1
1
1
1
1
1
1
1
1
1
1
1
1
1
1
1
1
1
1
1
1
1
1
1
1
1
1
1
1
1
1
1
1
1
1
1
1
1
1
1
1
1
1
1
1
1
1
1
1
1
1
1
1
1
1
1
1
1
1
1
1
1
1
1
1
1
1
1
1
1
1
1
1
1
1
1
1
1
1
1
1
1
1
1
1
1
1
1
1
1
1
1
1
1
1
1
1
1
1
1
1
0.999999
1
1
1
1
1
1
1
1
1
1
1
1
1
1
1
1
1
1
0.999999
0.999996
0.999998
1
1
1
1
1
1
1
1
1
1
1
1
1
1
1
1
0.999998
0.999996
1
1
1
1
1
1
1
1
1
1
1
1
1
1
1
1
1
1
1
1
1
1
1
1
1
1
1
1
1
1
1
1
1
1
1
1
1
1
1
1
0.999932
0.999939
0.999979
1
1
1
1
1
1
1
1
1
1
1
1
1
1
0.999979
0.999939
0.999932
0.999977
0.999931
0.999931
0.999974
1
1
1
1
1
1
1
1
1
1
1
1
0.999974
0.999931
0.999931
0.999977
1
0.999977
0.999937
0.999937
0.999985
1
1
1
1
1
1
1
1
1
1
0.999985
0.999937
0.999937
0.999977
1
1
1
0.999991
0.99994
0.99994
0.999998
1
1
1
1
1
1
1
1
0.999998
0.99994
0.99994
0.999991
1
1
1
1
1
0.999991
0.999944
0.999958
0.999998
1
1
1
1
1
1
0.999998
0.999958
0.999944
0.999991
1
1
1
1
1
1
1
0.999985
0.999954
0.999985
1
1
1
1
1
1
0.999985
0.999954
0.999985
1
1
1
1
1
1
1
1
1
0.999982
0.999984
0.999998
1
1
1
1
0.999998
0.999983
0.999982
1
1
1
1
1
1
1
1
1
1
1
0.999991
0.999997
1
1
1
1
0.999997
0.999991
1
1
1
1
1
1
1
1
1
1
1
1
1
0.999998
1
1
1
1
0.999998
1
1
1
1
1
1
1
1
1
1
1
1
1
1
1
1
1
1
1
0.999999
1
1
1
1
1
1
1
1
1
1
1
1
1
1
1
1
1
1
1
1
1
1
1
1
1
1
1
1
1
1
1
1
1
1
1
1
1
1
1
1
1
1
1
1
1
1
1
1
1
1
1
1
1
1
1
1
1
1
1
1
1
1
1
1
1
1
1
1
1
1
1
1
1
1
1
1
1
1
1
1
1
1
1
1
1
1
1
1
1
1
1
1
1
1
1
0.979094
0.953531
0.953531
0.979096
1
1
1
1
1
1
1
1
1
1
1
0.996163
0.927158
0.741735
0.484548
0.276528
0.157242
0.111641
0.111641
0.157247
0.276535
0.484557
0.741741
0.927163
0.996163
1
1
1
1
1
0.907864
0.639831
0.266274
0.0534491
0.00412601
1.02356e-15
1.02357e-15
1.02355e-15
1.02357e-15
1.02356e-15
1.02357e-15
0.00412683
0.0534539
0.266284
0.639839
0.907871
1
1
1
0.797525
0.34936
0.0441155
1.01487e-15
1.02159e-15
1.0145e-15
5.45331e-10
3.0848e-09
6.20555e-09
6.2013e-09
3.0599e-09
5.38637e-10
1.01491e-15
1.01445e-15
1.01483e-15
0.0441207
0.34937
0.797537
1
0.716292
0.128116
7.07223e-15
6.41792e-15
2.12357e-14
2.35247e-13
2.76666e-13
1.1832e-11
1.40837e-09
7.45425e-09
7.45425e-09
1.38854e-09
1.01936e-11
2.84378e-13
2.36819e-13
2.00777e-14
6.35806e-15
7.00496e-15
0.128126
0.716305
0.0815327
1.99992e-15
1.39075e-14
5.66518e-14
1.68119e-13
2.8018e-13
4.00762e-13
4.00838e-13
2.00224e-10
7.45024e-09
7.4459e-09
1.98886e-10
3.98378e-13
3.98314e-13
2.78785e-13
1.6499e-13
5.55277e-14
1.36997e-14
1.98172e-15
0.0815412
5.52144e-20
2.03423e-15
3.83674e-14
9.10517e-14
1.25753e-13
9.01645e-14
2.82156e-13
8.9151e-13
6.45555e-12
5.28421e-09
5.24617e-09
6.34112e-12
8.89237e-13
2.72653e-13
8.83673e-14
1.23757e-13
8.97948e-14
3.79299e-14
2.01572e-15
-1.12646e-19
2.60048e-18
5.60231e-17
4.58053e-15
2.50855e-14
2.3353e-14
5.38834e-15
1.3332e-13
3.38713e-12
3.1915e-13
4.25681e-09
4.24363e-09
3.13416e-13
3.40115e-12
1.30978e-13
5.275e-15
2.31152e-14
2.48592e-14
4.54217e-15
5.57074e-17
2.60046e-18
2.36543e-17
7.17113e-17
1.25487e-15
6.47795e-15
5.2738e-15
1.4732e-15
1.58272e-13
6.37906e-12
3.1915e-13
5.47785e-09
5.46095e-09
3.13416e-13
6.38792e-12
1.55397e-13
1.4693e-15
5.24627e-15
6.43993e-15
1.24707e-15
7.13173e-17
2.3521e-17
2.48798e-18
3.97248e-17
1.64207e-15
3.15357e-15
1.67737e-15
7.47168e-16
3.93443e-13
1.39856e-11
3.1915e-13
7.27576e-09
7.26109e-09
3.13416e-13
1.4024e-11
3.87157e-13
7.44427e-16
1.66878e-15
3.13474e-15
1.63171e-15
3.95183e-17
2.47373e-18
1.56965e-37
1.03547e-35
1.1263e-15
6.94694e-16
4.22108e-16
4.63447e-15
1.85528e-12
3.62974e-11
3.1915e-13
8.39091e-09
8.37517e-09
3.13416e-13
3.64659e-11
1.82625e-12
4.80027e-15
4.19299e-16
6.89267e-16
1.11815e-15
1.03547e-35
1.84898e-36
5.67327e-09
3.17707e-10
9.79521e-28
5.80284e-19
1.02328e-12
3.36984e-12
2.24918e-11
9.84193e-11
3.1915e-13
1.0437e-08
1.0418e-08
3.13416e-13
9.90934e-11
2.22883e-11
3.37169e-12
1.02394e-12
6.53398e-18
7.17655e-18
3.17343e-10
5.66927e-09
5.68284e-09
1.74017e-09
3.10757e-10
1.21894e-10
6.35706e-11
6.1632e-11
2.18908e-10
2.21827e-10
3.1915e-13
1.30303e-08
1.30086e-08
3.13416e-13
2.24194e-10
2.1847e-10
6.15052e-11
6.34705e-11
1.2157e-10
3.09925e-10
1.73747e-09
5.67919e-09
9.81237e-10
1.60351e-09
1.16308e-09
8.41542e-10
4.33282e-10
5.10441e-10
8.69466e-10
2.54951e-10
2.55778e-09
1.48762e-08
1.48569e-08
2.50712e-09
2.59143e-10
8.68654e-10
5.08872e-10
4.32317e-10
8.39588e-10
1.16087e-09
1.60124e-09
9.81037e-10
2.11121e-12
5.28267e-10
9.94317e-10
1.0363e-09
1.21813e-09
1.54313e-09
1.16334e-09
2.54794e-10
1.18928e-08
1.5301e-08
1.53026e-08
1.17961e-08
2.58985e-10
1.16382e-09
1.54e-09
1.21509e-09
1.03462e-09
9.92851e-10
5.27967e-10
2.11911e-12
8.4185e-34
2.54301e-11
3.4768e-10
6.58952e-10
1.43809e-09
1.61094e-09
6.23836e-10
3.09511e-09
1.738e-08
1.15644e-08
1.15205e-08
1.73644e-08
3.07127e-09
6.25355e-10
1.60826e-09
1.43558e-09
6.58509e-10
3.47525e-10
2.5471e-11
-1.66376e-32
-2.65222e-31
6.39816e-14
2.55483e-11
1.59901e-10
1.04798e-09
1.41028e-09
2.62908e-10
5.36327e-09
1.73784e-08
4.56681e-09
4.56042e-09
1.73652e-08
5.3651e-09
2.62355e-10
1.40861e-09
1.04688e-09
1.60163e-10
2.55923e-11
6.44106e-14
-5.11741e-31
-1.62852e-31
4.74145e-18
1.94098e-13
1.0537e-11
3.9064e-10
6.35845e-10
2.57055e-10
3.80459e-09
1.06406e-08
1.02252e-09
1.03505e-09
1.06853e-08
3.81808e-09
2.56399e-10
6.36074e-10
3.90874e-10
1.05915e-11
1.95178e-13
4.81302e-18
-2.93864e-31
-1.00828e-31
9.64901e-23
8.55274e-17
2.49474e-13
5.05517e-11
1.1357e-10
2.57007e-10
8.17177e-10
5.98692e-10
4.63586e-11
4.84256e-11
6.13202e-10
8.26327e-10
2.56352e-10
1.13782e-10
5.07175e-11
2.5024e-13
8.65197e-17
9.80293e-23
-1.79434e-31
-6.89617e-32
1.74102e-27
1.45797e-35
7.45636e-14
5.59709e-12
4.15396e-11
2.57303e-10
6.53669e-11
1.82092e-12
1.82152e-12
1.82991e-12
1.82918e-12
6.55768e-11
2.5676e-10
4.15136e-11
5.60442e-12
7.41059e-14
-3.29441e-36
1.76939e-27
-1.22465e-31
-4.73077e-32
-2.60809e-29
-8.40717e-29
4.96371e-14
3.86005e-12
4.05585e-11
2.15205e-10
3.50434e-11
2.19214e-12
1.81247e-12
1.81248e-12
2.18977e-12
3.50033e-11
2.15238e-10
4.04726e-11
3.85666e-12
4.92839e-14
-1.50445e-28
-1.09049e-28
-8.47387e-32
-3.16696e-32
-7.2037e-29
-7.38162e-29
2.46614e-14
2.99274e-12
3.71863e-11
1.0593e-10
1.81835e-11
3.12582e-12
1.87464e-12
1.87441e-12
3.117e-12
1.81717e-11
1.06264e-10
3.71011e-11
2.9887e-12
2.44888e-14
-1.31666e-28
-1.39659e-28
-5.82472e-32
-1.50257e-32
-3.19861e-29
-3.61499e-29
5.43353e-15
1.62592e-12
2.43845e-11
2.04545e-11
6.41035e-12
3.93204e-12
1.90802e-12
1.90844e-12
3.92203e-12
6.40586e-12
2.05988e-11
2.43487e-11
1.62357e-12
5.39967e-15
-6.43075e-29
-6.13025e-29
-2.91499e-32
-3.74581e-33
-6.79994e-30
-8.32165e-30
3.15235e-16
3.99921e-13
7.68226e-12
1.12236e-12
2.80548e-12
4.02881e-12
1.84915e-12
1.85e-12
4.01915e-12
2.79374e-12
1.13301e-12
7.68609e-12
3.99412e-13
3.13684e-16
-1.47893e-29
-1.3064e-29
-7.58455e-33
-7.55974e-34
4.45572e-47
2.27897e-25
2.95259e-18
2.75051e-14
7.35679e-13
7.19858e-14
2.12039e-12
3.94492e-12
1.58223e-12
1.58391e-12
3.93601e-12
2.10881e-12
7.16302e-14
7.3837e-13
2.74806e-14
2.94331e-18
2.2748e-25
-7.69855e-47
-1.59014e-33
-2.45497e-34
2.72613e-33
2.47143e-26
4.30389e-21
3.28689e-16
1.33522e-14
3.84433e-14
1.69598e-12
3.401e-12
1.03808e-12
1.04023e-12
3.3946e-12
1.68697e-12
3.80992e-14
1.34575e-14
3.28589e-16
4.29024e-21
2.4691e-26
2.57953e-33
-5.30828e-34
-9.20213e-35
4.80341e-34
1.02478e-27
1.51676e-24
4.504e-19
3.51407e-17
2.43905e-14
1.10559e-12
2.16982e-12
4.22155e-13
4.23687e-13
2.16715e-12
1.10082e-12
2.41732e-14
3.54653e-17
4.50588e-19
1.50904e-24
1.02415e-27
1.7005e-34
-1.92852e-34
-3.3255e-35
-4.46073e-32
5.69308e-30
4.19442e-29
5.20624e-23
1.2727e-18
1.09518e-14
4.43665e-13
7.94697e-13
7.72775e-14
7.77372e-14
7.94509e-13
4.42641e-13
1.08662e-14
1.2554e-18
5.21129e-23
4.18326e-29
5.69317e-30
-9.66548e-32
-6.52945e-35
-8.95181e-36
-2.07158e-32
1.59393e-33
8.70764e-32
1.97958e-25
3.03519e-19
2.32706e-15
7.57283e-14
1.16791e-13
4.23333e-15
4.27184e-15
1.1693e-13
7.57996e-14
2.31308e-15
2.99004e-19
1.95793e-25
8.65478e-32
1.59295e-33
-4.0778e-32
-1.68393e-35
-2.02931e-36
-6.71173e-33
3.1646e-38
8.07627e-33
2.29366e-26
4.3074e-20
1.50971e-16
3.55559e-15
4.48407e-15
4.5358e-17
4.59461e-17
4.49784e-15
3.57524e-15
1.50431e-16
4.25208e-20
2.27251e-26
8.04448e-33
3.02262e-38
-1.26e-32
-3.71918e-36
-4.10823e-37
-1.8658e-33
-2.29609e-36
4.4506e-34
1.65808e-27
1.70365e-21
1.92408e-18
2.97218e-17
2.93922e-17
6.49809e-20
6.61092e-20
2.95494e-17
3.00588e-17
1.9228e-18
1.68888e-21
1.64635e-27
4.44887e-34
-5.36802e-36
-3.40931e-33
-7.41335e-37
-7.67041e-38
-4.74729e-34
-2.29176e-36
5.62988e-36
3.03509e-29
1.0834e-23
3.25785e-21
3.02618e-20
2.27363e-20
9.07823e-24
9.27827e-24
2.29165e-20
3.08122e-20
3.26628e-21
1.08023e-23
3.03193e-29
5.6322e-36
-5.03078e-36
-8.54471e-34
-1.37171e-37
-1.34507e-38
-1.1393e-34
-1.51899e-36
7.9945e-39
7.08096e-32
7.174e-27
5.30712e-25
2.77704e-24
1.59395e-24
4.34472e-28
4.44052e-28
1.61034e-24
2.84784e-24
5.33925e-25
7.20259e-27
7.14093e-32
7.82376e-39
-3.26193e-36
-2.03423e-34
-2.39352e-38
-2.23789e-39
-2.61818e-35
-8.36964e-37
-2.12871e-37
1.19632e-35
3.87883e-31
2.49419e-29
1.26541e-28
7.58774e-29
2.07971e-32
2.12495e-32
7.66114e-29
1.29714e-28
2.50955e-29
3.91463e-31
1.21469e-35
-4.25917e-37
-1.77403e-36
-4.65575e-35
-3.97456e-39
-3.55426e-40
-5.80605e-36
-4.09145e-37
-2.62005e-37
3.57511e-40
1.69375e-35
1.16252e-33
5.95451e-33
3.75174e-33
1.0116e-36
1.03304e-36
3.78632e-33
6.09808e-33
1.16959e-33
1.70469e-35
3.32346e-40
-5.05899e-37
-8.58804e-37
-1.03041e-35
-6.31622e-40
-5.41241e-41
-1.24751e-36
-1.83068e-37
-2.19544e-37
-9.18435e-38
6.79121e-40
5.16577e-38
2.87307e-37
1.86562e-37
4.55879e-41
4.65055e-41
1.88052e-37
2.93274e-37
5.01611e-38
6.73998e-40
-1.83258e-37
-4.17418e-37
-3.81219e-37
-2.21196e-36
-9.63859e-41
-7.9203e-42
-2.60306e-37
-7.63681e-38
-1.56179e-37
-1.20215e-37
-2.07358e-38
8.79164e-43
1.2354e-41
8.24014e-42
-3.84156e-41
-7.73714e-41
8.21185e-42
1.22792e-41
-5.64282e-40
-4.14666e-38
-2.3222e-37
-2.94367e-37
-1.57968e-37
-4.61368e-37
-1.41488e-41
-1.11258e-42
-5.28231e-38
-3.00645e-38
-1.0042e-37
-1.12394e-37
-3.40076e-38
-5.01178e-39
-9.56592e-40
-2.32187e-40
-9.32774e-41
-1.75497e-40
-4.49206e-40
-1.88086e-39
-1.00839e-38
-6.58848e-38
-2.14377e-37
-1.88138e-37
-6.18366e-38
-9.361e-38
-1.99888e-42
-1.49509e-43
-1.04354e-38
-1.12661e-38
-5.99006e-38
-9.05189e-38
-3.6976e-38
-7.29666e-39
-1.67484e-39
-4.3273e-40
-1.29802e-40
-2.40451e-40
-8.12414e-40
-3.19273e-39
-1.41177e-38
-7.05809e-38
-1.7141e-37
-1.11702e-37
-2.3061e-38
-1.84922e-38
-2.7168e-43
-1.91906e-44
-2.00862e-39
-4.04429e-39
-3.36034e-38
-6.62103e-38
-3.36225e-38
-7.91675e-39
-1.98605e-39
-5.36112e-40
-1.46656e-40
-2.69381e-40
-9.92675e-40
-3.73428e-39
-1.51313e-38
-6.36444e-38
-1.24724e-37
-6.24215e-38
-8.24507e-39
-3.55936e-39
-3.55015e-44
-2.36676e-45
-3.76962e-40
-1.39758e-39
-1.78774e-38
-4.50147e-38
-2.74089e-38
-7.41433e-39
-1.98825e-39
-5.58133e-40
-1.47165e-40
-2.68815e-40
-1.02558e-39
-3.71005e-39
-1.40661e-38
-5.15851e-38
-8.444e-38
-3.30981e-38
-2.83975e-39
-6.6799e-40
-4.45921e-45
-2.88672e-46
-6.90231e-41
-4.66692e-40
-9.07121e-39
-2.88109e-38
-2.06337e-38
-6.29173e-39
-1.79427e-39
-5.23693e-40
-1.36076e-40
-2.4753e-40
-9.5737e-40
-3.33064e-39
-1.1872e-38
-3.86609e-38
-5.38498e-38
-1.67444e-38
-9.45694e-40
-1.2231e-40
-5.38999e-46
-3.57117e-47
-1.23383e-41
-1.51041e-40
-4.40837e-39
-1.74998e-38
-1.45736e-38
-4.95568e-39
-1.50192e-39
-4.56166e-40
-1.18093e-40
-2.14093e-40
-8.30649e-40
-2.77674e-39
-9.311e-39
-2.7205e-38
-3.2604e-38
-8.11537e-39
-3.05395e-40
-2.18628e-41
-6.30229e-47
-4.48494e-48
-2.15441e-42
-4.74891e-41
-2.0585e-39
-1.01441e-38
-9.75183e-39
-3.67432e-39
-1.18438e-39
-3.74642e-40
-9.72134e-41
-1.75728e-40
-6.79989e-40
-2.18237e-39
-6.8788e-39
-1.81455e-38
-1.88449e-38
-3.78007e-39
-9.58501e-41
-3.81728e-42
-7.19536e-48
-5.54278e-49
-3.67668e-43
-1.45319e-41
-9.26024e-40
-5.63522e-39
-6.22287e-39
-2.58782e-39
-8.8831e-40
-2.92816e-40
-7.64207e-41
-1.37785e-40
-5.2998e-40
-1.63208e-39
-4.82965e-39
-1.15459e-38
-1.04408e-38
-1.69653e-39
-2.92887e-41
-6.51398e-43
-8.25363e-49
-6.4472e-50
-6.13576e-44
-4.33416e-42
-4.02192e-40
-3.00982e-39
-3.80493e-39
-1.74225e-39
-6.37708e-40
-2.19127e-40
-5.76355e-41
-1.0367e-40
-3.95611e-40
-1.16862e-39
-3.24253e-39
-7.04119e-39
-5.56273e-39
-7.35232e-40
-8.72506e-42
-1.08696e-43
-9.64569e-50
-6.94337e-51
-1.0018e-44
-1.26132e-42
-1.68961e-40
-1.54969e-39
-2.23732e-39
-1.12644e-39
-4.4016e-40
-1.57675e-40
-4.18439e-41
-7.51003e-41
-2.84011e-40
-8.04705e-40
-2.09115e-39
-4.13026e-39
-2.85746e-39
-3.08234e-40
-2.53656e-42
-1.7745e-44
-1.14327e-50
-7.66789e-52
-1.60107e-45
-3.58476e-43
-6.87662e-41
-7.70849e-40
-1.26877e-39
-7.01864e-40
-2.9307e-40
-1.09435e-40
-2.93201e-41
-5.25148e-41
-1.96696e-40
-5.34618e-40
-1.29992e-39
-2.33696e-39
-1.41823e-39
-1.25204e-40
-7.20241e-43
-2.83563e-45
-1.37898e-51
-9.55227e-53
-2.50592e-46
-9.95661e-44
-2.71523e-41
-3.71123e-40
-6.95547e-40
-4.22616e-40
-1.88716e-40
-7.34374e-41
-1.98699e-41
-3.55194e-41
-1.3173e-40
-3.43547e-40
-7.81021e-40
-1.27842e-39
-6.81378e-40
-4.93441e-41
-1.99863e-43
-4.43759e-46
-1.75291e-52
-1.3559e-53
-3.84306e-47
-2.7041e-44
-1.04141e-41
-1.73215e-40
-3.6933e-40
-2.46464e-40
-1.17762e-40
-4.7741e-41
-1.30458e-41
-2.32775e-41
-8.54733e-41
-2.1396e-40
-4.54548e-40
-6.77462e-40
-3.17386e-40
-1.88916e-41
-5.42282e-44
-6.80436e-47
-2.45676e-53
-2.25293e-54
-5.77811e-48
-7.18445e-45
-3.88421e-42
-7.84829e-41
-1.9027e-40
-1.39469e-40
-7.13306e-41
-3.01141e-41
-8.31057e-42
-1.48022e-41
-5.3817e-41
-1.29358e-40
-2.56719e-40
-3.48343e-40
-1.43531e-40
-7.03398e-42
-1.43923e-44
-1.02281e-47
-3.72974e-54
-3.75641e-55
-8.52269e-49
-1.86809e-45
-1.41022e-42
-3.45643e-41
-9.52407e-41
-7.66983e-41
-4.19977e-41
-1.84562e-41
-5.14314e-42
-9.145e-42
-3.29258e-41
-7.60268e-41
-1.40916e-40
-1.74045e-40
-6.30959e-41
-2.54955e-42
-3.73763e-45
-1.50802e-48
-5.60308e-55
-6.13384e-56
-1.23424e-49
-4.75519e-46
-4.98854e-43
-1.48124e-41
-4.63789e-41
-4.10443e-41
-2.40641e-41
-1.10033e-41
-3.09568e-42
-5.49542e-42
-1.95969e-41
-4.34874e-41
-7.52756e-41
-8.46043e-41
-2.69916e-41
-9.00432e-43
-9.50073e-46
-2.18209e-49
-7.90712e-56
-9.09463e-57
-1.75581e-50
-1.18521e-46
-1.72077e-43
-6.18301e-42
-2.19964e-41
-2.1398e-41
-1.34325e-41
-6.38791e-42
-1.81408e-42
-3.21525e-42
-1.13585e-41
-2.42344e-41
-3.91771e-41
-4.00575e-41
-1.12476e-41
-3.10118e-43
-2.36446e-46
-3.10047e-50
-1.02419e-56
-1.1201e-57
-2.45381e-51
-2.89303e-47
-5.79258e-44
-2.51624e-42
-1.01707e-41
-1.08789e-41
-7.31127e-42
-3.61457e-42
-1.03593e-42
-1.83326e-42
-6.41715e-42
-1.31695e-41
-1.9885e-41
-1.84914e-41
-4.56976e-42
-1.04238e-43
-5.76281e-47
-4.32799e-51
-1.19932e-57
-1.1249e-58
-3.36672e-52
-6.91689e-48
-1.90428e-44
-9.99176e-43
-4.58888e-42
-5.39849e-42
-3.88358e-42
-1.99519e-42
-5.76954e-43
-1.01952e-42
-3.53681e-42
-6.98445e-42
-9.85187e-42
-8.32983e-42
-1.8117e-42
-3.42181e-44
-1.37587e-47
-5.93737e-52
-1.25479e-58
-9.22119e-60
-4.53165e-53
-1.62019e-48
-6.11769e-45
-3.87441e-43
-2.02199e-42
-2.61686e-42
-2.01466e-42
-1.07516e-42
-3.13641e-43
-5.53432e-43
-1.90311e-42
-3.61781e-42
-4.76821e-42
-3.66471e-42
-7.01414e-43
-1.09775e-44
-3.21866e-48
-8.00601e-53
-1.14594e-59
-5.33936e-61
-5.97896e-54
-3.71932e-49
-1.92182e-45
-1.46809e-43
-8.70748e-43
-1.24001e-42
-1.02142e-42
-5.66026e-43
-1.66539e-43
-2.93456e-43
-1.00048e-42
-1.83151e-42
-2.25604e-42
-1.5758e-42
-2.65377e-43
-3.4438e-45
-7.37993e-49
-1.06121e-53
-9.79466e-61
-3.20473e-62
-7.76974e-55
-8.37352e-50
-5.90694e-46
-5.43964e-44
-3.66728e-43
-5.74766e-43
-5.06421e-43
-2.91312e-43
-8.64336e-44
-1.52098e-43
-5.14195e-43
-9.06765e-43
-1.04418e-42
-6.62707e-43
-9.81841e-44
-1.05708e-45
-1.65902e-49
-1.38485e-54
-8.58981e-62
-3.12215e-63
-9.99064e-56
-1.84984e-50
-1.77735e-46
-1.9721e-44
-1.51151e-43
-2.60759e-43
-2.45688e-43
-1.46658e-43
-4.38741e-44
-7.71037e-44
-2.58517e-43
-4.393e-43
-4.73049e-43
-2.72754e-43
-3.55447e-44
-3.17656e-46
-3.65801e-50
-1.78449e-55
-8.29724e-63
-5.83454e-64
-1.28073e-56
-4.0118e-51
-5.23805e-47
-6.99966e-45
-6.10021e-44
-1.15855e-43
-1.16698e-43
-7.22651e-44
-2.17945e-44
-3.82523e-44
-1.27216e-43
-2.08376e-43
-2.09883e-43
-1.09927e-43
-1.25984e-44
-9.34976e-47
-7.91458e-51
-2.27871e-56
-8.882e-64
-1.45982e-64
-1.67952e-57
-8.54967e-52
-1.51274e-47
-2.43362e-45
-2.41205e-44
-5.04361e-44
-5.42962e-44
-3.48709e-44
-1.06009e-44
-1.85827e-44
-6.13083e-44
-9.68228e-44
-9.12462e-44
-4.34071e-44
-4.37417e-45
-2.69682e-47
-1.68103e-51
-2.89922e-57
-1.06083e-64
-3.35857e-65
-2.40587e-58
-1.79443e-52
-4.2831e-48
-8.29232e-46
-9.34884e-45
-2.15244e-44
-2.47582e-44
-1.64865e-44
-5.0515e-45
-8.84416e-45
-2.89495e-44
-4.40924e-44
-3.88892e-44
-1.6802e-44
-1.48847e-45
-7.62623e-48
-3.50671e-52
-3.7242e-58
-1.43316e-65
-7.7669e-66
-3.90079e-59
-3.71148e-53
-1.18943e-48
-2.7705e-46
-3.55358e-45
-9.00907e-45
-1.10691e-44
-7.64076e-45
-2.35938e-45
-4.12587e-45
-1.34004e-44
-1.96882e-44
-1.62561e-44
-6.37837e-45
-4.96654e-46
-2.11526e-48
-7.18757e-53
-4.90871e-59
-2.20006e-66
-1.49182e-66
-6.77896e-60
-7.56202e-54
-3.24106e-49
-9.08021e-47
-1.32528e-45
-3.69979e-45
-4.85445e-45
-3.47283e-45
-1.08063e-45
-1.88751e-45
-6.0834e-45
-8.62369e-45
-6.6675e-45
-2.37577e-45
-1.62568e-46
-5.75693e-49
-1.44802e-53
-6.69538e-60
-3.22194e-67
-2.36943e-67
-1.16929e-60
-1.51561e-54
-8.66893e-50
-2.92063e-47
-4.85144e-46
-1.49141e-45
-2.08921e-45
-1.54867e-45
-4.85574e-46
-8.4717e-46
-2.70965e-45
-3.70686e-45
-2.68439e-45
-8.68622e-46
-5.22244e-47
-1.53803e-49
-2.86818e-54
-9.41243e-61
-4.29292e-68
-3.0437e-68
-1.88457e-61
-2.98127e-55
-2.27684e-50
-9.22311e-48
-1.74391e-46
-5.90351e-46
-8.82692e-46
-6.77859e-46
-2.14147e-46
-3.73201e-46
-1.18467e-45
-1.56429e-45
-1.06128e-45
-3.11861e-46
-1.64718e-47
-4.03501e-50
-5.58717e-55
-1.34552e-61
-5.2166e-69
-3.00526e-69
-2.71006e-62
-5.73989e-56
-5.87411e-51
-2.86067e-48
-6.15799e-47
-2.29547e-46
-3.66257e-46
-2.91338e-46
-9.27314e-47
-1.61429e-46
-5.08589e-46
-6.48316e-46
-4.1217e-46
-1.09992e-46
-5.10284e-48
-1.03989e-50
-1.07072e-55
-1.92981e-62
-5.90914e-70
-2.12124e-70
-3.30835e-63
-1.07907e-56
-1.48916e-51
-8.71782e-49
-2.13683e-47
-8.77075e-47
-1.49303e-46
-1.22997e-46
-3.94425e-47
-6.85887e-47
-2.1448e-46
-2.63982e-46
-1.57302e-46
-3.81232e-47
-1.55325e-48
-2.63357e-51
-2.01988e-56
-2.80331e-63
-7.40172e-71
-1.03671e-71
-3.41511e-64
-1.98151e-57
-3.71086e-52
-2.61127e-49
-7.28898e-48
-3.29418e-47
-5.98149e-47
-5.10251e-47
-1.64848e-47
-2.86362e-47
-8.88811e-47
-1.05639e-46
-5.90131e-47
-1.29895e-47
-4.64715e-49
-6.55631e-52
-3.75508e-57
-4.25674e-64
-1.07621e-71
-8.2913e-73
-3.90348e-65
-3.59441e-58
-9.09271e-53
-7.69034e-50
-2.44497e-48
-1.21659e-47
-2.35585e-47
-2.08074e-47
-6.77236e-48
-1.17523e-47
-3.62063e-47
-4.1561e-47
-2.177e-47
-4.35227e-48
-1.36707e-49
-1.60497e-52
-6.88645e-58
-6.73301e-65
-1.60656e-72
-1.01154e-73
-5.1379e-66
-6.46355e-59
-2.1915e-53
-2.22756e-50
-8.06726e-49
-4.41935e-48
-9.1248e-48
-8.34326e-48
-2.73575e-48
-4.74264e-48
-1.45028e-47
-1.60802e-47
-7.89939e-48
-1.43447e-48
-3.95543e-50
-3.86459e-53
-1.24672e-58
-1.08637e-65
-2.35333e-73
-1.47038e-74
-7.51936e-67
-1.15117e-59
-5.19684e-54
-6.34804e-51
-2.61912e-49
-1.57949e-48
-3.47669e-48
-3.2906e-48
-1.08701e-48
-1.88255e-48
-5.71414e-48
-6.12032e-48
-2.82023e-48
-4.65216e-49
-1.12598e-50
-9.15568e-54
-2.22944e-59
-1.7541e-66
-3.37142e-74
-2.29272e-75
-1.20635e-67
-2.03259e-60
-1.21286e-54
-1.78033e-51
-8.36923e-50
-5.55579e-49
-1.30348e-48
-1.27693e-48
-4.24961e-49
-7.3525e-49
-2.21518e-48
-2.29224e-48
-9.90948e-49
-1.485e-49
-3.15448e-51
-2.13478e-54
-3.94482e-60
-2.90647e-67
-5.43094e-75
-3.46302e-76
-1.99181e-68
-3.56061e-61
-2.78656e-55
-4.91518e-52
-2.63292e-50
-1.9238e-49
-4.81015e-49
-4.87681e-49
-1.63511e-49
-2.82628e-49
-8.45184e-49
-8.45024e-49
-3.42777e-49
-4.66689e-50
-8.69978e-52
-4.90014e-55
-6.92366e-61
-4.97752e-68
-9.86751e-76
-4.52606e-77
-3.16239e-69
-6.18623e-62
-6.3042e-56
-1.3362e-52
-8.1569e-51
-6.55951e-50
-1.74762e-49
-1.83359e-49
-6.19371e-50
-1.06957e-49
-3.17468e-49
-3.06705e-49
-1.16756e-49
-1.44435e-50
-2.3626e-52
-1.10758e-55
-1.20902e-61
-8.70742e-69
-1.77612e-76
-8.465e-78
-5.22851e-70
-1.0665e-62
-1.40476e-56
-3.57775e-53
-2.4892e-51
-2.20289e-50
-6.25291e-50
-6.78868e-50
-2.31037e-50
-3.98599e-50
-1.17428e-49
-1.09629e-49
-3.91708e-50
-4.40324e-51
-6.31958e-53
-2.46578e-56
-2.10008e-62
-1.52704e-69
-3.33606e-77
-3.04974e-78
-1.15117e-70
-1.86511e-63
-3.08389e-57
-9.43769e-54
-7.48426e-52
-7.28832e-51
-2.2038e-50
-2.47568e-50
-8.48894e-51
-1.46323e-50
-4.27834e-50
-3.86005e-50
-1.29469e-50
-1.32261e-51
-1.66536e-53
-5.40824e-57
-3.62688e-63
-2.65187e-70
-6.13438e-78
-8.88465e-79
-2.66244e-71
-3.35678e-64
-6.67173e-58
-2.45326e-54
-2.21765e-52
-2.37617e-51
-7.65286e-51
-8.89483e-51
-3.07309e-51
-5.29228e-51
-1.53575e-50
-1.33915e-50
-4.21691e-51
-3.91522e-52
-4.32474e-54
-1.1689e-57
-6.23203e-64
-4.49889e-71
-1.04724e-78
-1.9543e-79
-5.54258e-72
-6.11371e-65
-1.42268e-58
-6.2856e-55
-6.47729e-53
-7.6356e-52
-2.61901e-51
-3.14934e-51
-1.09636e-51
-1.88641e-51
-5.43264e-51
-4.57859e-51
-1.35376e-51
-1.14246e-52
-1.10698e-54
-2.4901e-58
-1.06511e-64
-7.36214e-72
-1.61829e-79
-3.37652e-80
-1.02283e-72
-1.10436e-65
-2.9908e-59
-1.58771e-55
-1.86528e-53
-2.4189e-52
-8.83507e-52
-1.09911e-51
-3.85561e-52
-6.62822e-52
-1.89429e-51
-1.54313e-51
-4.28458e-52
-3.28689e-53
-2.7935e-55
-5.22963e-59
-1.80581e-65
-1.14567e-72
-2.21312e-80
-4.74489e-81
-1.67863e-73
-1.94795e-66
-6.19951e-60
-3.95466e-56
-5.29709e-54
-7.55604e-53
-2.93858e-52
-3.78181e-52
-1.33687e-52
-2.29625e-52
-6.51217e-52
-5.12784e-52
-1.33715e-52
-9.32559e-54
-6.95151e-56
-1.083e-59
-3.02443e-66
-1.68252e-73
-2.68343e-81
-5.45678e-82
-2.46302e-74
-3.33002e-67
-1.26737e-60
-9.71528e-57
-1.48376e-54
-2.32789e-53
-9.63858e-53
-1.28318e-52
-4.5713e-53
-7.84516e-53
-2.2077e-52
-1.68042e-52
-4.11577e-53
-2.60979e-54
-1.70617e-56
-2.21196e-60
-4.98972e-67
-2.34622e-74
-3.3841e-82
-5.91698e-83
-3.27016e-75
-5.51647e-68
-2.5557e-61
-2.35449e-57
-4.10022e-55
-7.07468e-54
-3.11834e-53
-4.29435e-53
-1.54183e-53
-2.64384e-53
-7.38214e-53
-5.43181e-53
-1.2497e-53
-7.20544e-55
-4.13113e-57
-4.45662e-61
-8.12151e-68
-3.25623e-75
-4.79741e-83
-7.52345e-84
-4.27517e-76
-8.89719e-69
-5.08472e-62
-5.63014e-58
-1.11803e-55
-2.12136e-54
-9.95305e-54
-1.4178e-53
-5.13057e-54
-8.79039e-54
-2.43522e-53
-1.7322e-53
-3.74392e-54
-1.96301e-55
-9.86963e-58
-8.85935e-62
-1.31825e-68
-4.76601e-76
-6.83655e-84
-9.81444e-85
-6.02347e-77
-1.4226e-69
-9.9829e-63
-1.32863e-58
-3.00872e-56
-6.27716e-55
-3.13469e-54
-4.6188e-54
-1.68468e-54
-2.88408e-54
-7.92675e-54
-5.45083e-54
-1.10687e-54
-5.27805e-56
-2.32703e-58
-1.73804e-62
-2.15967e-69
-7.16053e-77
-9.51784e-85
-1.2335e-85
-8.72594e-78
-2.30666e-70
-1.93456e-63
-3.09481e-59
-7.99229e-57
-1.8333e-55
-9.74357e-55
-1.48498e-54
-5.45976e-55
-9.33932e-55
-2.54644e-54
-1.69285e-54
-3.22994e-55
-1.40085e-56
-5.4157e-59
-3.36564e-63
-3.57287e-70
-1.08603e-77
-1.3191e-85
-1.59243e-86
-1.28175e-78
-3.7897e-71
-3.70112e-64
-7.11683e-60
-2.09604e-57
-5.28573e-56
-2.98956e-55
-4.71267e-55
-1.74669e-55
-2.98548e-55
-8.07484e-55
-5.18972e-55
-9.30455e-56
-3.67072e-57
-1.24432e-59
-6.43443e-64
-5.97514e-71
-1.68394e-78