/*--------------------------------*- C++ -*----------------------------------*\
| =========                 |                                                 |
| \\      /  F ield         | OpenFOAM: The Open Source CFD Toolbox           |
|  \\    /   O peration     | Version:  5.x                                   |
|   \\  /    A nd           | Web:      www.OpenFOAM.org                      |
|    \\/     M anipulation  |                                                 |
\*---------------------------------------------------------------------------*/
FoamFile
{
    version     2.0;
    format      ascii;
    class       surfaceScalarField;
    location    "0.05";
    object      alphaPhi10;
}
// * * * * * * * * * * * * * * * * * * * * * * * * * * * * * * * * * * * * * //

dimensions      [0 3 -1 0 0 0 0];

internalField   nonuniform List<scalar> 
15580
(
-1.00261e-17
1.80326e-10
-1.9695e-17
5.20649e-10
-2.29312e-17
8.27702e-10
-2.19933e-17
1.09316e-09
-1.91818e-17
1.31391e-09
-1.56519e-17
1.49039e-09
-1.18674e-17
1.62518e-09
-7.98116e-18
1.72185e-09
-4.03607e-18
1.78394e-09
-5.11027e-20
1.81424e-09
3.96978e-18
1.81424e-09
8.02971e-18
1.78394e-09
1.21314e-17
1.72185e-09
1.62685e-17
1.62518e-09
2.03282e-17
1.49039e-09
2.38317e-17
1.31391e-09
2.54189e-17
1.09316e-09
2.22195e-17
8.27702e-10
1.13511e-17
5.20649e-10
1.80326e-10
-9.86233e-18
1.80326e-10
-3.0115e-17
5.20649e-10
-4.1102e-17
8.27702e-10
-4.36577e-17
1.09316e-09
-4.08417e-17
1.31391e-09
-3.49861e-17
1.49039e-09
-2.74293e-17
1.62518e-09
-1.88639e-17
1.72185e-09
-9.68195e-18
1.78394e-09
-1.64714e-19
1.81424e-09
9.46528e-18
1.81424e-09
1.90106e-17
1.78394e-09
2.82541e-17
1.72185e-09
3.69466e-17
1.62518e-09
4.45523e-17
1.49039e-09
4.97951e-17
1.31391e-09
4.99629e-17
1.09316e-09
4.04907e-17
8.27702e-10
1.75711e-17
5.20649e-10
1.80326e-10
2.06962e-18
1.80326e-10
-1.76772e-17
5.20649e-10
-3.49293e-17
8.27702e-10
-4.38757e-17
1.09316e-09
-4.52413e-17
1.31391e-09
-4.11971e-17
1.49039e-09
-3.35986e-17
1.62518e-09
-2.37077e-17
1.72185e-09
-1.23938e-17
1.78394e-09
-3.27734e-19
1.81424e-09
1.1928e-17
1.81424e-09
2.38334e-17
1.78394e-09
3.48485e-17
1.72185e-09
4.43798e-17
1.62518e-09
5.15346e-17
1.49039e-09
5.48218e-17
1.31391e-09
5.18038e-17
1.09316e-09
3.99425e-17
8.27702e-10
1.95346e-17
5.20649e-10
1.80326e-10
9.56544e-18
1.80326e-10
-8.26853e-18
5.20649e-10
-2.8031e-17
8.27702e-10
-4.05695e-17
1.09316e-09
-4.49963e-17
1.31391e-09
-4.28072e-17
1.49039e-09
-3.58874e-17
1.62518e-09
-2.57939e-17
1.72185e-09
-1.37174e-17
1.78394e-09
-6.03205e-19
1.81424e-09
1.27306e-17
1.81424e-09
2.54996e-17
1.78394e-09
3.69725e-17
1.72185e-09
4.63512e-17
1.62518e-09
5.26721e-17
1.49039e-09
5.45811e-17
1.31391e-09
5.0403e-17
1.09316e-09
3.92468e-17
8.27702e-10
2.30031e-17
5.20649e-10
1.80326e-10
6.48571e-18
1.80326e-10
-1.07654e-17
5.20649e-10
-2.96204e-17
8.27702e-10
-4.23055e-17
1.09316e-09
-4.73242e-17
1.31391e-09
-4.55249e-17
1.49039e-09
-3.85406e-17
1.62518e-09
-2.79562e-17
1.72185e-09
-1.51015e-17
1.78394e-09
-1.07155e-18
1.81424e-09
1.31579e-17
1.81424e-09
2.66923e-17
1.78394e-09
3.86582e-17
1.72185e-09
4.81163e-17
1.62518e-09
5.40226e-17
1.49039e-09
5.51484e-17
1.31391e-09
5.03891e-17
1.09316e-09
3.96897e-17
8.27702e-10
2.48982e-17
5.20649e-10
1.80326e-10
-5.80927e-18
1.80326e-10
-2.28473e-17
5.20649e-10
-3.85163e-17
8.27702e-10
-4.86956e-17
1.09316e-09
-5.2209e-17
1.31391e-09
-4.94801e-17
1.49039e-09
-4.1739e-17
1.62518e-09
-3.03711e-17
1.72185e-09
-1.66536e-17
1.78394e-09
-1.73137e-18
1.81424e-09
1.33541e-17
1.81424e-09
2.76404e-17
1.78394e-09
4.00991e-17
1.72185e-09
4.96548e-17
1.62518e-09
5.51375e-17
1.49039e-09
5.52615e-17
1.31391e-09
4.90304e-17
1.09316e-09
3.68332e-17
8.27702e-10
2.0609e-17
5.20649e-10
1.80326e-10
-2.4089e-17
1.80326e-10
-4.05926e-17
5.20649e-10
-5.15621e-17
8.27702e-10
-5.7701e-17
1.09316e-09
-5.84166e-17
1.31391e-09
-5.39351e-17
1.49039e-09
-4.50356e-17
1.62518e-09
-3.27659e-17
1.72185e-09
-1.82223e-17
1.78394e-09
-2.49821e-18
1.81424e-09
1.33524e-17
1.81424e-09
2.82743e-17
1.78394e-09
4.11384e-17
1.72185e-09
5.0721e-17
1.62518e-09
5.56409e-17
1.49039e-09
5.44936e-17
1.31391e-09
4.61962e-17
1.09316e-09
3.11595e-17
8.27702e-10
1.20814e-17
5.20649e-10
1.80326e-10
-4.16874e-17
1.80326e-10
-5.74802e-17
5.20649e-10
-6.43709e-17
8.27702e-10
-6.6459e-17
1.09316e-09
-6.42736e-17
1.31391e-09
-5.79794e-17
1.49039e-09
-4.79436e-17
1.62518e-09
-3.48546e-17
1.72185e-09
-1.96069e-17
1.78394e-09
-3.22178e-18
1.81424e-09
1.32436e-17
1.81424e-09
2.86768e-17
1.78394e-09
4.18492e-17
1.72185e-09
5.13752e-17
1.62518e-09
5.57821e-17
1.49039e-09
5.36695e-17
1.31391e-09
4.40747e-17
1.09316e-09
2.70544e-17
8.27702e-10
5.87978e-18
5.20649e-10
1.80326e-10
-5.19479e-17
1.80326e-10
-6.78255e-17
5.20649e-10
-7.24558e-17
8.27702e-10
-7.20565e-17
1.09316e-09
-6.80616e-17
1.31391e-09
-6.05968e-17
1.49039e-09
-4.98167e-17
1.62518e-09
-3.62326e-17
1.72185e-09
-2.05714e-17
1.78394e-09
-3.77412e-18
1.81424e-09
1.30931e-17
1.81424e-09
2.88487e-17
1.78394e-09
4.2165e-17
1.72185e-09
5.16308e-17
1.62518e-09
5.58355e-17
1.49039e-09
5.36363e-17
1.31391e-09
4.45788e-17
1.09316e-09
2.77627e-17
8.27703e-10
6.64047e-18
5.20649e-10
1.80326e-10
-5.05212e-17
1.80326e-10
-6.74948e-17
5.20649e-10
-7.29472e-17
8.27702e-10
-7.2713e-17
1.09316e-09
-6.8579e-17
1.31391e-09
-6.10212e-17
1.49039e-09
-5.0227e-17
1.62518e-09
-3.66544e-17
1.72185e-09
-2.09904e-17
1.78394e-09
-4.11647e-18
1.81424e-09
1.28433e-17
1.81424e-09
2.86433e-17
1.78394e-09
4.1947e-17
1.72185e-09
5.1404e-17
1.62518e-09
5.58647e-17
1.49039e-09
5.46492e-17
1.31391e-09
4.76078e-17
1.09316e-09
3.32818e-17
8.27703e-10
1.4131e-17
5.20649e-10
1.80326e-10
-3.82141e-17
1.80326e-10
-5.73671e-17
5.20649e-10
-6.62928e-17
8.27703e-10
-6.86142e-17
1.09316e-09
-6.59516e-17
1.31391e-09
-5.93225e-17
1.49039e-09
-4.92627e-17
1.62518e-09
-3.62234e-17
1.72185e-09
-2.09389e-17
1.78394e-09
-4.36797e-18
1.81424e-09
1.23314e-17
1.81424e-09
2.78804e-17
1.78394e-09
4.09602e-17
1.72185e-09
5.04034e-17
1.62518e-09
5.54739e-17
1.49039e-09
5.592e-17
1.31391e-09
5.14764e-17
1.09316e-09
4.07146e-17
8.27703e-10
2.38783e-17
5.20649e-10
1.80326e-10
-2.09043e-17
1.80326e-10
-4.25547e-17
5.20649e-10
-5.60257e-17
8.27703e-10
-6.1788e-17
1.09316e-09
-6.15061e-17
1.31391e-09
-5.64305e-17
1.49039e-09
-4.74491e-17
1.62518e-09
-3.52505e-17
1.72185e-09
-2.0673e-17
1.78394e-09
-4.73704e-18
1.81424e-09
1.13615e-17
1.81424e-09
2.63228e-17
1.78394e-09
3.89436e-17
1.72185e-09
4.83801e-17
1.62518e-09
5.42249e-17
1.49039e-09
5.6273e-17
1.31391e-09
5.39242e-17
1.09316e-09
4.61344e-17
8.27703e-10
3.09269e-17
5.20649e-10
1.80326e-10
-7.58562e-18
1.80326e-10
-3.00338e-17
5.20649e-10
-4.65929e-17
8.27703e-10
-5.49723e-17
1.09316e-09
-5.67414e-17
1.31391e-09
-5.31365e-17
1.49039e-09
-4.52673e-17
1.62518e-09
-3.40371e-17
1.72185e-09
-2.03882e-17
1.78394e-09
-5.37597e-18
1.81424e-09
9.77312e-18
1.81424e-09
2.38346e-17
1.78394e-09
3.58259e-17
1.72185e-09
4.51213e-17
1.62518e-09
5.13738e-17
1.49039e-09
5.43916e-17
1.31391e-09
5.34512e-17
1.09316e-09
4.79729e-17
8.27703e-10
3.42294e-17
5.20649e-10
1.80326e-10
-3.90608e-18
1.80326e-10
-2.42647e-17
5.20649e-10
-4.03917e-17
8.27703e-10
-4.94612e-17
1.09316e-09
-5.22521e-17
1.31391e-09
-4.96878e-17
1.49039e-09
-4.28197e-17
1.62518e-09
-3.2637e-17
1.72185e-09
-2.0094e-17
1.78394e-09
-6.2628e-18
1.81424e-09
7.66152e-18
1.81424e-09
2.05734e-17
1.78394e-09
3.16429e-17
1.72185e-09
4.03124e-17
1.62518e-09
4.62236e-17
1.49039e-09
4.90705e-17
1.31391e-09
4.8717e-17
1.09316e-09
4.54727e-17
8.27703e-10
3.44255e-17
5.20649e-10
1.80326e-10
-1.08734e-17
1.80326e-10
-2.38833e-17
5.20649e-10
-3.64982e-17
8.27703e-10
-4.46304e-17
1.09316e-09
-4.74825e-17
1.31391e-09
-4.55792e-17
1.49039e-09
-3.97037e-17
1.62518e-09
-3.07049e-17
1.72185e-09
-1.94771e-17
1.78394e-09
-7.0941e-18
1.81424e-09
5.30611e-18
1.81424e-09
1.67213e-17
1.78394e-09
2.63697e-17
1.72185e-09
3.35789e-17
1.62518e-09
3.78451e-17
1.49039e-09
3.90838e-17
1.31391e-09
3.79192e-17
1.09316e-09
3.60003e-17
8.27703e-10
2.99674e-17
5.20649e-10
1.80326e-10
-8.06765e-18
1.80326e-10
-2.17664e-17
5.20649e-10
-3.16815e-17
8.27703e-10
-3.85987e-17
1.09316e-09
-4.12895e-17
1.31391e-09
-3.99901e-17
1.49039e-09
-3.52693e-17
1.62518e-09
-2.77288e-17
1.72185e-09
-1.81533e-17
1.78394e-09
-7.57332e-18
1.81424e-09
2.93792e-18
1.81424e-09
1.23975e-17
1.78394e-09
1.99618e-17
1.72185e-09
2.48029e-17
1.62518e-09
2.61806e-17
1.49039e-09
2.40374e-17
1.31391e-09
1.9452e-17
1.09316e-09
1.50924e-17
8.27703e-10
1.32914e-17
5.20649e-10
1.80326e-10
-1.09272e-17
1.80326e-10
-2.0026e-17
5.20649e-10
-2.60912e-17
8.27703e-10
-3.08393e-17
1.09316e-09
-3.31034e-17
1.31391e-09
-3.25444e-17
1.49039e-09
-2.9233e-17
1.62518e-09
-2.34608e-17
1.72185e-09
-1.59205e-17
1.78394e-09
-7.54696e-18
1.81424e-09
6.83631e-19
1.81424e-09
7.81775e-18
1.78394e-09
1.286e-17
1.72185e-09
1.47401e-17
1.62518e-09
1.2635e-17
1.49039e-09
6.2833e-18
1.31391e-09
-3.27052e-18
1.09316e-09
-1.44503e-17
8.27703e-10
-2.58667e-17
5.20649e-10
1.80326e-10
-1.57477e-17
1.80327e-10
-1.86975e-17
5.20649e-10
-1.93053e-17
8.27703e-10
-2.1068e-17
1.09316e-09
-2.28494e-17
1.31391e-09
-2.32035e-17
1.49039e-09
-2.15896e-17
1.62518e-09
-1.79581e-17
1.72185e-09
-1.2843e-17
1.78394e-09
-7.02048e-18
1.81424e-09
-1.35851e-18
1.81424e-09
3.21087e-18
1.78394e-09
5.62759e-18
1.72185e-09
4.87545e-18
1.62518e-09
1.63866e-19
1.49039e-09
-8.49085e-18
1.31391e-09
-1.96101e-17
1.09316e-09
-3.11639e-17
8.27703e-10
-3.57441e-17
5.20649e-10
1.80326e-10
-1.86575e-17
1.80327e-10
-1.21681e-17
5.20649e-10
-8.10502e-18
8.27703e-10
-8.00912e-18
1.09316e-09
-1.01217e-17
1.31391e-09
-1.19609e-17
1.49039e-09
-1.25345e-17
1.62518e-09
-1.14988e-17
1.72185e-09
-9.1383e-18
1.78394e-09
-6.08908e-18
1.81424e-09
-3.13129e-18
1.81424e-09
-1.1455e-18
1.78394e-09
-1.03942e-18
1.72185e-09
-3.65144e-18
1.62518e-09
-9.3951e-18
1.49039e-09
-1.73275e-17
1.31391e-09
-2.50878e-17
1.09316e-09
-2.98683e-17
8.27703e-10
-2.46522e-17
5.20649e-10
1.80326e-10
1.55858e-18
1.80327e-10
8.99839e-18
5.20649e-10
1.13142e-17
8.27703e-10
9.39761e-18
1.09316e-09
5.17562e-18
1.31391e-09
7.78597e-19
1.49039e-09
-2.56096e-18
1.62518e-09
-4.41249e-18
1.72185e-09
-4.9568e-18
1.78394e-09
-4.78349e-18
1.81424e-09
-4.51494e-18
1.81424e-09
-4.91725e-18
1.78394e-09
-6.74524e-18
1.72185e-09
-1.06058e-17
1.62518e-09
-1.62722e-17
1.49039e-09
-2.18659e-17
1.31391e-09
-2.44816e-17
1.09316e-09
-2.12775e-17
8.27703e-10
-7.81824e-18
5.20649e-10
1.80326e-10
3.87825e-17
1.80326e-10
3.95156e-17
5.20649e-10
3.54783e-17
8.27703e-10
2.87937e-17
1.09316e-09
2.13217e-17
1.31391e-09
1.40383e-17
1.49039e-09
7.80375e-18
1.62518e-09
3.00014e-18
1.72185e-09
-4.45341e-19
1.78394e-09
-2.99089e-18
1.81424e-09
-5.21984e-18
1.81424e-09
-7.75177e-18
1.78394e-09
-1.12376e-17
1.72185e-09
-1.60826e-17
1.62518e-09
-2.16218e-17
1.49039e-09
-2.5847e-17
1.31391e-09
-2.55767e-17
1.09316e-09
-1.76854e-17
8.27703e-10
3.46911e-18
5.20649e-10
1.80326e-10
5.0438e-17
1.80326e-10
5.90155e-17
5.20649e-10
5.49602e-17
8.27703e-10
4.62006e-17
1.09316e-09
3.62419e-17
1.31391e-09
2.64308e-17
1.49039e-09
1.76462e-17
1.62518e-09
1.02777e-17
1.72185e-09
4.30928e-18
1.78394e-09
-5.61617e-19
1.81424e-09
-4.82289e-18
1.81424e-09
-9.04553e-18
1.78394e-09
-1.39276e-17
1.72185e-09
-1.98529e-17
1.62518e-09
-2.62795e-17
1.49039e-09
-3.1833e-17
1.31391e-09
-3.46059e-17
1.09316e-09
-3.08369e-17
8.27703e-10
-1.97721e-17
5.20649e-10
1.80326e-10
4.17163e-17
1.80326e-10
6.46598e-17
5.20649e-10
6.63335e-17
8.27703e-10
5.94127e-17
1.09316e-09
4.84824e-17
1.31391e-09
3.69288e-17
1.49039e-09
2.6179e-17
1.62518e-09
1.68844e-17
1.72185e-09
9.13561e-18
1.78394e-09
2.72646e-18
1.81424e-09
-2.78838e-18
1.81424e-09
-8.12086e-18
1.78394e-09
-1.40817e-17
1.72185e-09
-2.12022e-17
1.62518e-09
-2.94564e-17
1.49039e-09
-3.83061e-17
1.31391e-09
-4.60607e-17
1.09316e-09
-4.77404e-17
8.27703e-10
-4.08817e-17
5.20649e-10
1.80326e-10
3.93125e-17
1.80326e-10
6.67054e-17
5.20649e-10
7.34697e-17
8.27703e-10
6.92358e-17
1.09316e-09
5.7569e-17
1.31391e-09
4.46015e-17
1.49039e-09
3.26275e-17
1.62518e-09
2.23118e-17
1.72185e-09
1.3821e-17
1.78394e-09
6.9161e-18
1.81424e-09
1.01931e-18
1.81424e-09
-4.76127e-18
1.78394e-09
-1.13244e-17
1.72185e-09
-1.93644e-17
1.62518e-09
-2.93065e-17
1.49039e-09
-4.10307e-17
1.31391e-09
-5.20952e-17
1.09316e-09
-5.69978e-17
8.27703e-10
-5.08862e-17
5.20649e-10
1.80326e-10
4.41795e-17
1.80326e-10
7.22643e-17
5.20649e-10
7.93339e-17
8.27703e-10
7.50349e-17
1.09316e-09
6.23138e-17
1.31391e-09
4.82241e-17
1.49039e-09
3.60324e-17
1.62518e-09
2.59403e-17
1.72185e-09
1.7899e-17
1.78394e-09
1.15135e-17
1.81424e-09
6.03827e-18
1.81424e-09
5.2059e-19
1.78394e-09
-5.89421e-18
1.72185e-09
-1.38268e-17
1.62518e-09
-2.36652e-17
1.49039e-09
-3.51402e-17
1.31391e-09
-4.5593e-17
1.09316e-09
-5.04532e-17
8.27703e-10
-4.2928e-17
5.20649e-10
1.80326e-10
6.72248e-17
1.80326e-10
7.92143e-17
5.20649e-10
7.94458e-17
8.27703e-10
7.22748e-17
1.09316e-09
5.96458e-17
1.31391e-09
4.62936e-17
1.49039e-09
3.54971e-17
1.62518e-09
2.70715e-17
1.72185e-09
2.06339e-17
1.78394e-09
1.56231e-17
1.81424e-09
1.12481e-17
1.81424e-09
6.72024e-18
1.78394e-09
1.48214e-18
1.72185e-09
-4.69463e-18
1.62518e-09
-1.17277e-17
1.49039e-09
-1.89478e-17
1.31391e-09
-2.51104e-17
1.09316e-09
-2.82198e-17
8.27703e-10
-2.66675e-17
5.20649e-10
1.80326e-10
7.37706e-17
1.80326e-10
6.61565e-17
5.20649e-10
5.92177e-17
8.27703e-10
5.34559e-17
1.09316e-09
4.59198e-17
1.31391e-09
3.75981e-17
1.49039e-09
3.04727e-17
1.62518e-09
2.52152e-17
1.72185e-09
2.13622e-17
1.78394e-09
1.8386e-17
1.81424e-09
1.56808e-17
1.81424e-09
1.28403e-17
1.78394e-09
9.84678e-18
1.72185e-09
7.11238e-18
1.62518e-09
5.34367e-18
1.49039e-09
5.27507e-18
1.31391e-09
6.20194e-18
1.09316e-09
4.5534e-18
8.27703e-10
-2.90902e-18
5.20649e-10
1.80326e-10
1.34783e-17
1.80326e-10
2.05513e-17
5.20649e-10
1.65664e-17
8.27703e-10
1.85523e-17
1.09316e-09
2.19589e-17
1.31391e-09
2.22989e-17
1.49039e-09
2.1312e-17
1.62518e-09
2.04032e-17
1.72185e-09
1.9797e-17
1.78394e-09
1.92935e-17
1.81424e-09
1.8684e-17
1.81424e-09
1.80717e-17
1.78394e-09
1.80505e-17
1.72185e-09
1.97068e-17
1.62518e-09
2.42374e-17
1.49039e-09
3.21076e-17
1.31391e-09
4.12751e-17
1.09316e-09
4.35294e-17
8.27703e-10
3.44344e-17
5.20649e-10
1.80326e-10
-1.82875e-17
1.80326e-10
-2.41361e-17
5.20649e-10
-2.31027e-17
8.27703e-10
-1.64119e-17
1.09316e-09
-5.04695e-18
1.31391e-09
4.10062e-18
1.49039e-09
9.62835e-18
1.62518e-09
1.33397e-17
1.72185e-09
1.61133e-17
1.78394e-09
1.82037e-17
1.81424e-09
1.98446e-17
1.81424e-09
2.16065e-17
1.78394e-09
2.45721e-17
1.72185e-09
3.02241e-17
1.62518e-09
3.98603e-17
1.49039e-09
5.36177e-17
1.31391e-09
6.89012e-17
1.09316e-09
7.64487e-17
8.27703e-10
6.70764e-17
5.20649e-10
1.80326e-10
-5.6568e-17
1.80326e-10
-6.43304e-17
5.20649e-10
-5.44513e-17
8.27703e-10
-4.21474e-17
1.09316e-09
-2.72285e-17
1.31391e-09
-1.31366e-17
1.49039e-09
-2.45548e-18
1.62518e-09
5.16173e-18
1.72185e-09
1.08675e-17
1.78394e-09
1.52698e-17
1.81424e-09
1.89188e-17
1.81424e-09
2.26684e-17
1.78394e-09
2.77899e-17
1.72185e-09
3.57137e-17
1.62518e-09
4.73776e-17
1.49039e-09
6.2486e-17
1.31391e-09
7.81077e-17
1.09316e-09
8.78331e-17
8.27703e-10
7.87379e-17
5.20649e-10
1.80326e-10
-8.59267e-17
1.80326e-10
-9.10106e-17
5.20649e-10
-7.48113e-17
8.27703e-10
-5.74826e-17
1.09316e-09
-4.05881e-17
1.31391e-09
-2.51046e-17
1.49039e-09
-1.24161e-17
1.62518e-09
-2.57559e-18
1.72185e-09
5.05277e-18
1.78394e-09
1.10477e-17
1.81424e-09
1.60596e-17
1.81424e-09
2.09718e-17
1.78394e-09
2.68861e-17
1.72185e-09
3.47654e-17
1.62518e-09
4.48479e-17
1.49039e-09
5.6136e-17
1.31391e-09
6.56232e-17
1.09316e-09
7.0958e-17
8.27703e-10
6.15107e-17
5.20649e-10
1.80326e-10
-8.73859e-17
1.80326e-10
-9.22743e-17
5.20649e-10
-7.68362e-17
8.27703e-10
-6.03292e-17
1.09316e-09
-4.47732e-17
1.31391e-09
-3.06576e-17
1.49039e-09
-1.8435e-17
1.62518e-09
-8.26722e-18
1.72185e-09
-4.86401e-20
1.78394e-09
6.52975e-18
1.81424e-09
1.20059e-17
1.81424e-09
1.70729e-17
1.78394e-09
2.23977e-17
1.72185e-09
2.8269e-17
1.62518e-09
3.41472e-17
1.49039e-09
3.82292e-17
1.31391e-09
3.81139e-17
1.09316e-09
3.38216e-17
8.27703e-10
2.11758e-17
5.20649e-10
1.80326e-10
-5.98306e-17
1.80326e-10
-6.77108e-17
5.20649e-10
-6.08798e-17
8.27703e-10
-5.10798e-17
1.09316e-09
-4.038e-17
1.31391e-09
-2.97617e-17
1.49039e-09
-1.97575e-17
1.62518e-09
-1.08275e-17
1.72185e-09
-3.33086e-18
1.78394e-09
2.76347e-18
1.81424e-09
7.7721e-18
1.81424e-09
1.20739e-17
1.78394e-09
1.58263e-17
1.72185e-09
1.87268e-17
1.62518e-09
1.96986e-17
1.49039e-09
1.66543e-17
1.31391e-09
8.2791e-18
1.09316e-09
-4.90405e-18
8.27703e-10
-1.94931e-17
5.20649e-10
1.80326e-10
-1.87123e-17
1.80326e-10
-3.00919e-17
5.20649e-10
-3.46089e-17
8.27703e-10
-3.40446e-17
1.09316e-09
-2.98986e-17
1.31391e-09
-2.37306e-17
1.49039e-09
-1.68301e-17
1.62518e-09
-1.01585e-17
1.72185e-09
-4.39081e-18
1.78394e-09
3.21909e-19
1.81424e-09
4.09167e-18
1.81424e-09
6.9842e-18
1.78394e-09
8.77546e-18
1.72185e-09
8.86933e-18
1.62518e-09
6.16548e-18
1.49039e-09
-7.51887e-19
1.31391e-09
-1.21906e-17
1.09316e-09
-2.6912e-17
8.27703e-10
-3.60332e-17
5.20649e-10
1.80326e-10
1.69574e-17
1.80326e-10
3.8944e-18
5.20649e-10
-9.10263e-18
8.27703e-10
-1.57289e-17
1.09316e-09
-1.70206e-17
1.31391e-09
-1.48445e-17
1.49039e-09
-1.10888e-17
1.62518e-09
-7.09179e-18
1.72185e-09
-3.62042e-18
1.78394e-09
-8.57216e-19
1.81424e-09
1.19283e-18
1.81424e-09
2.39229e-18
1.78394e-09
2.35265e-18
1.72185e-09
4.88332e-19
1.62518e-09
-3.82145e-18
1.49039e-09
-1.06592e-17
1.31391e-09
-1.93205e-17
1.09316e-09
-2.68196e-17
8.27703e-10
-2.67304e-17
5.20649e-10
1.80326e-10
3.38995e-17
1.80326e-10
2.1412e-17
5.20649e-10
6.82202e-18
8.27703e-10
-1.71331e-18
1.09316e-09
-5.17726e-18
1.31391e-09
-5.41642e-18
1.49039e-09
-4.20654e-18
1.62518e-09
-2.78653e-18
1.72185e-09
-1.73312e-18
1.78394e-09
-1.10986e-18
1.81424e-09
-9.2828e-19
1.81424e-09
-1.40012e-18
1.78394e-09
-2.93861e-18
1.72185e-09
-5.97932e-18
1.62518e-09
-1.04177e-17
1.49039e-09
-1.5064e-17
1.31391e-09
-1.82363e-17
1.09316e-09
-1.63335e-17
8.27703e-10
-5.74914e-18
5.20649e-10
1.80326e-10
2.26243e-17
1.80326e-10
1.87303e-17
5.20649e-10
1.13938e-17
8.27703e-10
6.65794e-18
1.09316e-09
4.34455e-18
1.31391e-09
3.3752e-18
1.49039e-09
2.8174e-18
1.62518e-09
2.02195e-18
1.72185e-09
8.39021e-19
1.78394e-09
-5.67025e-19
1.81424e-09
-2.15278e-18
1.81424e-09
-4.14935e-18
1.78394e-09
-6.98275e-18
1.72185e-09
-1.0913e-17
1.62518e-09
-1.52075e-17
1.49039e-09
-1.79329e-17
1.31391e-09
-1.68271e-17
1.09316e-09
-9.09369e-18
8.27703e-10
6.15223e-18
5.20649e-10
1.80326e-10
2.03812e-18
1.80326e-10
8.52877e-18
5.20649e-10
1.18835e-17
8.27703e-10
1.31887e-17
1.09316e-09
1.3134e-17
1.31391e-09
1.20407e-17
1.49039e-09
1.00666e-17
1.62518e-09
7.32411e-18
1.72185e-09
4.1583e-18
1.78394e-09
9.57912e-19
1.81424e-09
-2.22064e-18
1.81424e-09
-5.66016e-18
1.78394e-09
-9.81656e-18
1.72185e-09
-1.47772e-17
1.62518e-09
-1.95419e-17
1.49039e-09
-2.19544e-17
1.31391e-09
-1.99297e-17
1.09316e-09
-1.25868e-17
8.27703e-10
-3.36576e-19
5.20649e-10
1.80326e-10
-6.98853e-18
1.80326e-10
6.49483e-18
5.20649e-10
1.74887e-17
8.27703e-10
2.28512e-17
1.09316e-09
2.36854e-17
1.31391e-09
2.17639e-17
1.49039e-09
1.81285e-17
1.62518e-09
1.34656e-17
1.72185e-09
8.486e-18
1.78394e-09
3.66677e-18
1.81424e-09
-1.02777e-18
1.81424e-09
-5.97207e-18
1.78394e-09
-1.1589e-17
1.72185e-09
-1.78253e-17
1.62518e-09
-2.35604e-17
1.49039e-09
-2.65965e-17
1.31391e-09
-2.5871e-17
1.09316e-09
-2.22939e-17
8.27703e-10
-1.65465e-17
5.20649e-10
1.80326e-10
2.22322e-18
1.80326e-10
2.04335e-17
5.20649e-10
3.25757e-17
8.27703e-10
3.76797e-17
1.09316e-09
3.69901e-17
1.31391e-09
3.29837e-17
1.49039e-09
2.72074e-17
1.62518e-09
2.05473e-17
1.72185e-09
1.38171e-17
1.78394e-09
7.39075e-18
1.81424e-09
1.08151e-18
1.81424e-09
-5.52256e-18
1.78394e-09
-1.26883e-17
1.72185e-09
-2.01683e-17
1.62518e-09
-2.63825e-17
1.49039e-09
-2.91469e-17
1.31391e-09
-2.87671e-17
1.09316e-09
-2.67802e-17
8.27703e-10
-2.41881e-17
5.20649e-10
1.80326e-10
3.37998e-17
1.80326e-10
4.68294e-17
5.20649e-10
5.40917e-17
8.27703e-10
5.53753e-17
1.09316e-09
5.16406e-17
1.31391e-09
4.48928e-17
1.49039e-09
3.67655e-17
1.62518e-09
2.81223e-17
1.72185e-09
1.9629e-17
1.78394e-09
1.14475e-17
1.81424e-09
3.30596e-18
1.81424e-09
-5.10565e-18
1.78394e-09
-1.3795e-17
1.72185e-09
-2.20135e-17
1.62518e-09
-2.72976e-17
1.49039e-09
-2.78171e-17
1.31391e-09
-2.45697e-17
1.09316e-09
-1.89501e-17
8.27703e-10
-1.38614e-17
5.20649e-10
1.80326e-10
4.85019e-17
1.80326e-10
6.49366e-17
5.20649e-10
7.10812e-17
8.27703e-10
7.01788e-17
1.09316e-09
6.44461e-17
1.31391e-09
5.57472e-17
1.49039e-09
4.56741e-17
1.62518e-09
3.52449e-17
1.72185e-09
2.49461e-17
1.78394e-09
1.48374e-17
1.81424e-09
4.71788e-18
1.81424e-09
-5.54715e-18
1.78394e-09
-1.56036e-17
1.72185e-09
-2.37458e-17
1.62518e-09
-2.6875e-17
1.49039e-09
-2.39623e-17
1.31391e-09
-1.56153e-17
1.09316e-09
-3.15565e-18
8.27703e-10
8.7175e-18
5.20649e-10
1.80326e-10
3.42634e-17
1.80326e-10
6.54143e-17
5.20649e-10
7.75723e-17
8.27703e-10
7.86348e-17
1.09316e-09
7.31076e-17
1.31391e-09
6.38553e-17
1.49039e-09
5.26262e-17
1.62518e-09
4.07288e-17
1.72185e-09
2.87285e-17
1.78394e-09
1.67432e-17
1.81424e-09
4.71186e-18
1.81424e-09
-7.30943e-18
1.78394e-09
-1.8437e-17
1.72185e-09
-2.57891e-17
1.62518e-09
-2.67892e-17
1.49039e-09
-2.13035e-17
1.31391e-09
-9.31401e-18
1.09316e-09
7.75279e-18
8.27703e-10
2.34017e-17
5.20649e-10
1.80326e-10
3.18322e-17
1.80326e-10
6.26568e-17
5.20649e-10
7.87305e-17
8.27702e-10
8.20208e-17
1.09316e-09
7.75468e-17
1.31391e-09
6.84998e-17
1.49039e-09
5.67564e-17
1.62518e-09
4.37997e-17
1.72185e-09
3.04187e-17
1.78394e-09
1.68972e-17
1.81424e-09
3.17704e-18
1.81424e-09
-1.03485e-17
1.78394e-09
-2.19656e-17
1.72185e-09
-2.83728e-17
1.62518e-09
-2.85252e-17
1.49039e-09
-2.30009e-17
1.31391e-09
-1.1932e-17
1.09316e-09
3.75989e-18
8.27703e-10
1.75695e-17
5.20649e-10
1.80326e-10
3.77237e-17
1.80326e-10
6.17913e-17
5.20649e-10
7.70128e-17
8.27702e-10
8.15387e-17
1.09316e-09
7.81945e-17
1.31391e-09
6.97039e-17
1.49039e-09
5.78961e-17
1.62518e-09
4.43323e-17
1.72185e-09
3.00803e-17
1.78394e-09
1.54578e-17
1.81424e-09
4.40084e-19
1.81424e-09
-1.40746e-17
1.78394e-09
-2.54791e-17
1.72185e-09
-3.13546e-17
1.62518e-09
-3.21024e-17
1.49039e-09
-2.88333e-17
1.31391e-09
-2.23399e-17
1.09316e-09
-1.29887e-17
8.27703e-10
-6.36038e-18
5.20649e-10
1.80326e-10
3.3603e-17
1.80326e-10
5.4513e-17
5.20649e-10
6.97983e-17
8.27702e-10
7.61992e-17
1.09316e-09
7.46939e-17
1.31391e-09
6.74333e-17
1.49039e-09
5.61699e-17
1.62518e-09
4.25869e-17
1.72185e-09
2.80063e-17
1.78394e-09
1.27511e-17
1.81424e-09
-3.07415e-18
1.81424e-09
-1.77804e-17
1.78394e-09
-2.84762e-17
1.72185e-09
-3.42543e-17
1.62518e-09
-3.60866e-17
1.49039e-09
-3.50648e-17
1.31391e-09
-3.21725e-17
1.09316e-09
-2.81922e-17
8.27703e-10
-2.61194e-17
5.20649e-10
1.80326e-10
2.42356e-17
1.80326e-10
4.10605e-17
5.20649e-10
5.67465e-17
8.27702e-10
6.58649e-17
1.09316e-09
6.70556e-17
1.31391e-09
6.18008e-17
1.49039e-09
5.17965e-17
1.62518e-09
3.88668e-17
1.72185e-09
2.45485e-17
1.78394e-09
9.17695e-18
1.81424e-09
-6.78321e-18
1.81424e-09
-2.10235e-17
1.78394e-09
-3.10182e-17
1.72185e-09
-3.68294e-17
1.62518e-09
-3.90751e-17
1.49039e-09
-3.80322e-17
1.31391e-09
-3.40767e-17
1.09316e-09
-2.93599e-17
8.27703e-10
-2.31151e-17
5.20649e-10
1.80326e-10
1.43714e-17
1.80326e-10
2.60074e-17
5.20649e-10
4.03252e-17
8.27702e-10
5.18496e-17
1.09316e-09
5.62123e-17
1.31391e-09
5.35825e-17
1.49039e-09
4.5467e-17
1.62518e-09
3.38128e-17
1.72185e-09
2.01964e-17
1.78394e-09
5.01289e-18
1.81424e-09
-1.05651e-17
1.81424e-09
-2.39068e-17
1.78394e-09
-3.35143e-17
1.72185e-09
-3.93727e-17
1.62518e-09
-4.10064e-17
1.49039e-09
-3.76288e-17
1.31391e-09
-2.86853e-17
1.09316e-09
-1.65962e-17
8.27702e-10
-3.80185e-18
5.20649e-10
1.80326e-10
5.60298e-18
1.80326e-10
1.16424e-17
5.20649e-10
2.31674e-17
8.27702e-10
3.61324e-17
1.09316e-09
4.36156e-17
1.31391e-09
4.3965e-17
1.49039e-09
3.82291e-17
1.62518e-09
2.82841e-17
1.72185e-09
1.5568e-17
1.78394e-09
8.32737e-19
1.81424e-09
-1.39229e-17
1.81424e-09
-2.66603e-17
1.78394e-09
-3.65845e-17
1.72185e-09
-4.26271e-17
1.62518e-09
-4.34044e-17
1.49039e-09
-3.73721e-17
1.31391e-09
-2.34719e-17
1.09316e-09
-3.92024e-18
8.27702e-10
1.43676e-17
5.20649e-10
1.80326e-10
-2.10433e-18
1.80326e-10
-2.04286e-18
5.20649e-10
7.1167e-18
8.27702e-10
2.09729e-17
1.09316e-09
3.10476e-17
1.31391e-09
3.42304e-17
1.49039e-09
3.11026e-17
1.62518e-09
2.31353e-17
1.72185e-09
1.13223e-17
1.78394e-09
-2.792e-18
1.81424e-09
-1.70587e-17
1.81424e-09
-3.00217e-17
1.78394e-09
-4.05846e-17
1.72185e-09
-4.71556e-17
1.62518e-09
-4.78949e-17
1.49039e-09
-4.11355e-17
1.31391e-09
-2.59812e-17
1.09316e-09
-4.32334e-18
8.27702e-10
1.49789e-17
5.20649e-10
1.80326e-10
-1.02164e-17
1.80326e-10
-1.4817e-17
5.20649e-10
-7.10609e-18
8.27702e-10
7.91941e-18
1.09316e-09
2.01334e-17
1.31391e-09
2.57301e-17
1.49039e-09
2.47416e-17
1.62518e-09
1.82775e-17
1.72185e-09
7.18799e-18
1.78394e-09
-6.52323e-18
1.81424e-09
-2.08295e-17
1.81424e-09
-3.43274e-17
1.78394e-09
-4.552e-17
1.72185e-09
-5.28203e-17
1.62518e-09
-5.46261e-17
1.49039e-09
-4.96775e-17
1.31391e-09
-3.75169e-17
1.09316e-09
-2.00509e-17
8.27702e-10
-2.97547e-18
5.20649e-10
1.80326e-10
-2.2061e-17
1.80326e-10
-2.86212e-17
5.20649e-10
-2.03243e-17
8.27702e-10
-3.45527e-18
1.09316e-09
1.10385e-17
1.31391e-09
1.86906e-17
1.49039e-09
1.91986e-17
1.62518e-09
1.33054e-17
1.72185e-09
2.36685e-18
1.78394e-09
-1.12416e-17
1.81424e-09
-2.54971e-17
1.81424e-09
-3.90237e-17
1.78394e-09
-5.04525e-17
1.72185e-09
-5.84049e-17
1.62518e-09
-6.17693e-17
1.49039e-09
-5.97152e-17
1.31391e-09
-5.21696e-17
1.09316e-09
-4.08869e-17
8.27702e-10
-2.63786e-17
5.20649e-10
1.80326e-10
-4.09002e-17
1.80326e-10
-4.61471e-17
5.20649e-10
-3.38627e-17
8.27702e-10
-1.43801e-17
1.09316e-09
2.60386e-18
1.31391e-09
1.20965e-17
1.49039e-09
1.36589e-17
1.62518e-09
8.11953e-18
1.72185e-09
-2.60387e-18
1.78394e-09
-1.59398e-17
1.81424e-09
-2.9815e-17
1.81424e-09
-4.28638e-17
1.78394e-09
-5.39148e-17
1.72185e-09
-6.19204e-17
1.62518e-09
-6.61223e-17
1.49039e-09
-6.57855e-17
1.31391e-09
-6.10669e-17
1.09316e-09
-5.32095e-17
8.27702e-10
-3.88465e-17
5.20649e-10
1.80326e-10
-6.47819e-17
1.80326e-10
-6.61882e-17
5.20649e-10
-4.70663e-17
8.27702e-10
-2.44862e-17
1.09316e-09
-5.55394e-18
1.31391e-09
5.51095e-18
1.49039e-09
8.10456e-18
1.62518e-09
3.2638e-18
1.72185e-09
-6.82539e-18
1.78394e-09
-1.94944e-17
1.81424e-09
-3.25615e-17
1.81424e-09
-4.46057e-17
1.78394e-09
-5.45941e-17
1.72185e-09
-6.16457e-17
1.62518e-09
-6.49099e-17
1.49039e-09
-6.35385e-17
1.31391e-09
-5.78156e-17
1.09316e-09
-4.82393e-17
8.27702e-10
-3.2949e-17
5.20649e-10
1.80326e-10
-8.3747e-17
1.80326e-10
-8.08263e-17
5.20649e-10
-5.56524e-17
8.27702e-10
-3.10576e-17
1.09316e-09
-1.17197e-17
1.31391e-09
-4.59684e-20
1.49039e-09
3.37039e-18
1.62518e-09
-5.14422e-19
1.72185e-09
-9.58408e-18
1.78394e-09
-2.12123e-17
1.81424e-09
-3.30843e-17
1.81424e-09
-4.37016e-17
1.78394e-09
-5.20893e-17
1.72185e-09
-5.72181e-17
1.62518e-09
-5.7841e-17
1.49039e-09
-5.30054e-17
1.31391e-09
-4.28991e-17
1.09316e-09
-2.74434e-17
8.27702e-10
-1.18773e-17
5.20649e-10
1.80326e-10
-8.4486e-17
1.80326e-10
-7.97473e-17
5.20649e-10
-5.38112e-17
8.27702e-10
-3.0466e-17
1.09316e-09
-1.31042e-17
1.31391e-09
-2.5634e-18
1.49039e-09
7.74612e-19
1.62518e-09
-2.50536e-18
1.72185e-09
-1.05935e-17
1.78394e-09
-2.10292e-17
1.81424e-09
-3.15167e-17
1.81424e-09
-4.05669e-17
1.78394e-09
-4.7112e-17
1.72185e-09
-4.98561e-17
1.62518e-09
-4.73148e-17
1.49039e-09
-3.85872e-17
1.31391e-09
-2.3479e-17
1.09316e-09
-2.90505e-18
8.27702e-10
1.20431e-17
5.20649e-10
1.80326e-10
-6.04081e-17
1.80327e-10
-5.78011e-17
5.20649e-10
-3.85782e-17
8.27702e-10
-2.0906e-17
1.09316e-09
-8.1996e-18
1.31391e-09
-7.07463e-19
1.49039e-09
1.12292e-18
1.62518e-09
-2.46616e-18
1.72185e-09
-1.00393e-17
1.78394e-09
-1.94346e-17
1.81424e-09
-2.85965e-17
1.81424e-09
-3.61171e-17
1.78394e-09
-4.08237e-17
1.72185e-09
-4.14125e-17
1.62518e-09
-3.66002e-17
1.49039e-09
-2.5649e-17
1.31391e-09
-7.76993e-18
1.09316e-09
1.3266e-17
8.27702e-10
2.55897e-17
5.20649e-10
1.80326e-10
-1.78753e-17
1.80327e-10
-1.97986e-17
5.20649e-10
-1.26812e-17
8.27702e-10
-4.40896e-18
1.09316e-09
1.68925e-18
1.31391e-09
4.73838e-18
1.49039e-09
3.86354e-18
1.62518e-09
-9.28526e-19
1.72185e-09
-8.51544e-18
1.78394e-09
-1.71165e-17
1.81424e-09
-2.50233e-17
1.81424e-09
-3.09895e-17
1.78394e-09
-3.4022e-17
1.72185e-09
-3.32378e-17
1.62518e-09
-2.78449e-17
1.49039e-09
-1.72456e-17
1.31391e-09
-6.87098e-19
1.09316e-09
1.55282e-17
8.27702e-10
2.33443e-17
5.20649e-10
1.80326e-10
2.37705e-17
1.80327e-10
1.94971e-17
5.20649e-10
1.51449e-17
8.27702e-10
1.34649e-17
1.09316e-09
1.26956e-17
1.31391e-09
1.10535e-17
1.49039e-09
7.19472e-18
1.62518e-09
9.34165e-19
1.72185e-09
-6.80207e-18
1.78394e-09
-1.45709e-17
1.81424e-09
-2.10287e-17
1.81424e-09
-2.53072e-17
1.78394e-09
-2.6957e-17
1.72185e-09
-2.56326e-17
1.62518e-09
-2.0956e-17
1.49039e-09
-1.26511e-17
1.31391e-09
-1.22844e-18
1.09316e-09
7.8625e-18
8.27702e-10
9.26277e-18
5.20649e-10
1.80326e-10
4.56829e-17
1.80326e-10
4.49062e-17
5.20649e-10
3.52676e-17
8.27702e-10
2.66948e-17
1.09316e-09
2.06452e-17
1.31391e-09
1.53185e-17
1.49039e-09
9.18123e-18
1.62518e-09
1.97882e-18
1.72185e-09
-5.43798e-18
1.78394e-09
-1.1895e-17
1.81424e-09
-1.65214e-17
1.81424e-09
-1.90487e-17
1.78394e-09
-1.95746e-17
1.72185e-09
-1.79319e-17
1.62518e-09
-1.3965e-17
1.49039e-09
-8.08951e-18
1.31391e-09
-2.47597e-18
1.09316e-09
6.5686e-19
8.27702e-10
-3.42508e-18
5.20649e-10
1.80326e-10
4.52462e-17
1.80326e-10
5.04678e-17
5.20649e-10
4.23086e-17
8.27702e-10
3.17352e-17
1.09316e-09
2.3235e-17
1.31391e-09
1.60435e-17
1.49039e-09
8.9617e-18
1.62518e-09
1.89463e-18
1.72185e-09
-4.32226e-18
1.78394e-09
-8.85869e-18
1.81424e-09
-1.1437e-17
1.81424e-09
-1.23204e-17
1.78394e-09
-1.17024e-17
1.72185e-09
-9.31064e-18
1.62518e-09
-5.07658e-18
1.49039e-09
6.78454e-20
1.31391e-09
3.20863e-18
1.09316e-09
3.49704e-18
8.27702e-10
-2.1606e-18
5.20649e-10
1.80326e-10
3.04784e-17
1.80326e-10
4.00968e-17
5.20649e-10
3.65161e-17
8.27702e-10
2.82484e-17