/*--------------------------------*- C++ -*----------------------------------*\
| =========                 |                                                 |
| \\      /  F ield         | OpenFOAM: The Open Source CFD Toolbox           |
|  \\    /   O peration     | Version:  5.x                                   |
|   \\  /    A nd           | Web:      www.OpenFOAM.org                      |
|    \\/     M anipulation  |                                                 |
\*---------------------------------------------------------------------------*/
FoamFile
{
    version     2.0;
    format      ascii;
    class       volScalarField;
    location    "0.05";
    object      p_rgh;
}
// * * * * * * * * * * * * * * * * * * * * * * * * * * * * * * * * * * * * * //

dimensions      [1 -1 -2 0 0 0 0];

internalField   nonuniform List<scalar> 
8000
(
-0.00262662
-0.00262666
-0.00262672
-0.00262678
-0.00262683
-0.00262688
-0.00262692
-0.00262696
-0.00262699
-0.00262701
-0.00262702
-0.00262702
-0.00262701
-0.00262699
-0.00262696
-0.00262691
-0.00262686
-0.00262679
-0.00262673
-0.0026267
-0.00788006
-0.00788014
-0.00788022
-0.00788032
-0.00788041
-0.00788049
-0.00788057
-0.00788065
-0.00788071
-0.00788076
-0.00788079
-0.00788081
-0.0078808
-0.00788076
-0.0078807
-0.00788062
-0.00788052
-0.00788041
-0.00788031
-0.00788029
-0.0131336
-0.0131337
-0.0131337
-0.0131338
-0.0131339
-0.013134
-0.0131341
-0.0131342
-0.0131343
-0.0131344
-0.0131344
-0.0131344
-0.0131344
-0.0131344
-0.0131343
-0.0131342
-0.0131341
-0.013134
-0.0131339
-0.013134
-0.0183871
-0.0183872
-0.0183873
-0.0183874
-0.0183875
-0.0183876
-0.0183877
-0.0183878
-0.0183879
-0.018388
-0.018388
-0.018388
-0.018388
-0.0183879
-0.0183879
-0.0183877
-0.0183876
-0.0183875
-0.0183874
-0.0183876
-0.0236405
-0.0236407
-0.0236407
-0.0236408
-0.0236409
-0.0236411
-0.0236412
-0.0236413
-0.0236414
-0.0236415
-0.0236415
-0.0236415
-0.0236415
-0.0236414
-0.0236413
-0.0236412
-0.0236411
-0.023641
-0.0236409
-0.0236411
-0.028894
-0.0288941
-0.0288942
-0.0288943
-0.0288944
-0.0288945
-0.0288946
-0.0288947
-0.0288948
-0.0288949
-0.0288949
-0.0288949
-0.0288949
-0.0288948
-0.0288947
-0.0288945
-0.0288944
-0.0288943
-0.0288942
-0.0288944
-0.0341474
-0.0341475
-0.0341475
-0.0341476
-0.0341477
-0.0341478
-0.034148
-0.0341481
-0.0341482
-0.0341482
-0.0341482
-0.0341482
-0.0341482
-0.0341481
-0.0341479
-0.0341478
-0.0341477
-0.0341476
-0.0341475
-0.0341476
-0.0394007
-0.0394008
-0.0394008
-0.0394009
-0.039401
-0.0394011
-0.0394012
-0.0394014
-0.0394014
-0.0394015
-0.0394015
-0.0394015
-0.0394014
-0.0394013
-0.0394012
-0.0394011
-0.0394009
-0.0394008
-0.0394008
-0.0394007
-0.0446541
-0.044654
-0.0446541
-0.0446542
-0.0446543
-0.0446544
-0.0446545
-0.0446546
-0.0446547
-0.0446547
-0.0446547
-0.0446547
-0.0446546
-0.0446545
-0.0446544
-0.0446543
-0.0446542
-0.0446541
-0.044654
-0.0446538
-0.0499075
-0.0499073
-0.0499073
-0.0499074
-0.0499075
-0.0499077
-0.0499078
-0.0499079
-0.049908
-0.049908
-0.049908
-0.0499079
-0.0499078
-0.0499077
-0.0499076
-0.0499075
-0.0499074
-0.0499073
-0.0499072
-0.049907
-0.0551608
-0.0551606
-0.0551607
-0.0551608
-0.0551609
-0.055161
-0.0551611
-0.0551612
-0.0551612
-0.0551613
-0.0551612
-0.0551612
-0.0551611
-0.055161
-0.0551609
-0.0551608
-0.0551607
-0.0551606
-0.0551605
-0.0551602
-0.0604141
-0.060414
-0.0604141
-0.0604142
-0.0604143
-0.0604144
-0.0604145
-0.0604145
-0.0604146
-0.0604145
-0.0604145
-0.0604144
-0.0604144
-0.0604143
-0.0604142
-0.0604141
-0.060414
-0.0604139
-0.0604138
-0.0604135
-0.0656674
-0.0656675
-0.0656676
-0.0656676
-0.0656677
-0.0656678
-0.0656678
-0.0656679
-0.0656679
-0.0656679
-0.0656678
-0.0656678
-0.0656677
-0.0656676
-0.0656675
-0.0656674
-0.0656673
-0.0656672
-0.0656671
-0.0656668
-0.0709208
-0.070921
-0.0709211
-0.0709211
-0.0709212
-0.0709212
-0.0709212
-0.0709212
-0.0709212
-0.0709212
-0.0709211
-0.0709211
-0.0709211
-0.070921
-0.0709209
-0.0709208
-0.0709207
-0.0709206
-0.0709205
-0.0709201
-0.0761742
-0.0761745
-0.0761745
-0.0761745
-0.0761746
-0.0761746
-0.0761746
-0.0761746
-0.0761745
-0.0761745
-0.0761745
-0.0761745
-0.0761744
-0.0761744
-0.0761743
-0.0761742
-0.0761741
-0.076174
-0.076174
-0.0761735
-0.0814276
-0.0814279
-0.0814279
-0.0814279
-0.0814279
-0.0814279
-0.0814279
-0.0814279
-0.0814279
-0.0814279
-0.0814279
-0.0814279
-0.0814278
-0.0814278
-0.0814277
-0.0814276
-0.0814275
-0.0814275
-0.0814274
-0.0814269
-0.086681
-0.0866813
-0.0866813
-0.0866813
-0.0866813
-0.0866813
-0.0866813
-0.0866813
-0.0866813
-0.0866813
-0.0866813
-0.0866813
-0.0866813
-0.0866812
-0.0866811
-0.0866811
-0.086681
-0.086681
-0.086681
-0.0866803
-0.0919346
-0.0919347
-0.0919347
-0.0919347
-0.0919347
-0.0919347
-0.0919348
-0.0919348
-0.0919348
-0.0919348
-0.0919348
-0.0919348
-0.0919347
-0.0919347
-0.0919347
-0.0919346
-0.0919347
-0.0919347
-0.0919348
-0.0919341
-0.0971882
-0.0971883
-0.0971883
-0.0971883
-0.0971883
-0.0971883
-0.0971884
-0.0971884
-0.0971884
-0.0971884
-0.0971883
-0.0971883
-0.0971883
-0.0971883
-0.0971883
-0.0971884
-0.0971884
-0.0971885
-0.0971886
-0.0971882
-0.102442
-0.102442
-0.102442
-0.102442
-0.102442
-0.102442
-0.102442
-0.102442
-0.102442
-0.102442
-0.102442
-0.102442
-0.102442
-0.102442
-0.102442
-0.102442
-0.102442
-0.102442
-0.102443
-0.102443
-0.107696
-0.107696
-0.107696
-0.107696
-0.107696
-0.107696
-0.107696
-0.107696
-0.107696
-0.107696
-0.107696
-0.107696
-0.107696
-0.107696
-0.107696
-0.107696
-0.107696
-0.107697
-0.107697
-0.107697
-0.11295
-0.11295
-0.11295
-0.11295
-0.11295
-0.11295
-0.11295
-0.11295
-0.11295
-0.11295
-0.11295
-0.11295
-0.11295
-0.11295
-0.11295
-0.11295
-0.112951
-0.112951
-0.112951
-0.112951
-0.118205
-0.118204
-0.118204
-0.118204
-0.118204
-0.118204
-0.118204
-0.118204
-0.118204
-0.118204
-0.118204
-0.118204
-0.118204
-0.118204
-0.118204
-0.118205
-0.118205
-0.118205
-0.118205
-0.118206
-0.123459
-0.123459
-0.123459
-0.123459
-0.123459
-0.123458
-0.123458
-0.123458
-0.123458
-0.123458
-0.123458
-0.123458
-0.123458
-0.123459
-0.123459
-0.123459
-0.123459
-0.123459
-0.123459
-0.12346
-0.128714
-0.128713
-0.128713
-0.128713
-0.128713
-0.128713
-0.128713
-0.128713
-0.128712
-0.128712
-0.128712
-0.128713
-0.128713
-0.128713
-0.128713
-0.128713
-0.128714
-0.128714
-0.128714
-0.128714
-0.133968
-0.133968
-0.133968
-0.133968
-0.133967
-0.133967
-0.133967
-0.133967
-0.133967
-0.133967
-0.133967
-0.133967
-0.133967
-0.133967
-0.133968
-0.133968
-0.133968
-0.133968
-0.133968
-0.133968
-0.139223
-0.139222
-0.139222
-0.139222
-0.139222
-0.139222
-0.139221
-0.139221
-0.139221
-0.139221
-0.139221
-0.139222
-0.139222
-0.139222
-0.139222
-0.139222
-0.139222
-0.139222
-0.139222
-0.139223
-0.144477
-0.144477
-0.144476
-0.144476
-0.144476
-0.144476
-0.144476
-0.144476
-0.144476
-0.144476
-0.144476
-0.144476
-0.144476
-0.144476
-0.144476
-0.144477
-0.144477
-0.144477
-0.144477
-0.144477
-0.149731
-0.149731
-0.149731
-0.149731
-0.149731
-0.149731
-0.14973
-0.14973
-0.14973
-0.14973
-0.14973
-0.149731
-0.149731
-0.149731
-0.149731
-0.149731
-0.149731
-0.149731
-0.149731
-0.149731
-0.154985
-0.154985
-0.154985
-0.154985
-0.154985
-0.154985
-0.154985
-0.154985
-0.154985
-0.154985
-0.154985
-0.154985
-0.154985
-0.154985
-0.154985
-0.154985
-0.154985
-0.154986
-0.154985
-0.154985
-0.16024
-0.16024
-0.16024
-0.16024
-0.16024
-0.160239
-0.160239
-0.160239
-0.160239
-0.160239
-0.160239
-0.160239
-0.16024
-0.16024
-0.16024
-0.16024
-0.16024
-0.16024
-0.16024
-0.160239
-0.165494
-0.165494
-0.165494
-0.165494
-0.165494
-0.165494
-0.165494
-0.165494
-0.165494
-0.165494
-0.165494
-0.165494
-0.165494
-0.165494
-0.165494
-0.165494
-0.165494
-0.165494
-0.165494
-0.165493
-0.170748
-0.170748
-0.170748
-0.170748
-0.170748
-0.170748
-0.170748
-0.170748
-0.170748
-0.170748
-0.170748
-0.170748
-0.170748
-0.170748
-0.170748
-0.170748
-0.170748
-0.170748
-0.170748
-0.170748
-0.176002
-0.176002
-0.176002
-0.176002
-0.176002
-0.176002
-0.176002
-0.176002
-0.176002
-0.176002
-0.176002
-0.176002
-0.176002
-0.176002
-0.176002
-0.176002
-0.176002
-0.176002
-0.176002
-0.176002
-0.181256
-0.181256
-0.181256
-0.181256
-0.181256
-0.181256
-0.181256
-0.181256
-0.181256
-0.181256
-0.181256
-0.181256
-0.181256
-0.181256
-0.181256
-0.181256
-0.181256
-0.181256
-0.181256
-0.181256
-0.18651
-0.18651
-0.18651
-0.18651
-0.18651
-0.18651
-0.18651
-0.18651
-0.18651
-0.18651
-0.18651
-0.18651
-0.18651
-0.18651
-0.18651
-0.18651
-0.18651
-0.18651
-0.18651
-0.18651
-0.191764
-0.191764
-0.191764
-0.191764
-0.191764
-0.191764
-0.191764
-0.191764
-0.191764
-0.191764
-0.191764
-0.191764
-0.191764
-0.191764
-0.191764
-0.191764
-0.191764
-0.191764
-0.191764
-0.191764
-0.197018
-0.197018
-0.197018
-0.197018
-0.197018
-0.197018
-0.197018
-0.197018
-0.197018
-0.197018
-0.197018
-0.197018
-0.197018
-0.197018
-0.197018
-0.197018
-0.197018
-0.197018
-0.197018
-0.197018
-0.202272
-0.202272
-0.202272
-0.202272
-0.202272
-0.202272
-0.202272
-0.202272
-0.202272
-0.202272
-0.202272
-0.202272
-0.202272
-0.202272
-0.202272
-0.202272
-0.202272
-0.202272
-0.202272
-0.202272
-0.207525
-0.207525
-0.207525
-0.207525
-0.207525
-0.207525
-0.207525
-0.207525
-0.207525
-0.207525
-0.207525
-0.207525
-0.207525
-0.207525
-0.207525
-0.207525
-0.207525
-0.207525
-0.207525
-0.207525
-0.212779
-0.212779
-0.212779
-0.212779
-0.212779
-0.212779
-0.212779
-0.212779
-0.212779
-0.212779
-0.212779
-0.212779
-0.212779
-0.212779
-0.212779
-0.212779
-0.212779
-0.212778
-0.212778
-0.212778
-0.218032
-0.218032
-0.218032
-0.218032
-0.218032
-0.218032
-0.218032
-0.218032
-0.218032
-0.218032
-0.218032
-0.218032
-0.218032
-0.218032
-0.218032
-0.218032
-0.218032
-0.218032
-0.218032
-0.218032
-0.223285
-0.223285
-0.223285
-0.223285
-0.223286
-0.223286
-0.223286
-0.223286
-0.223286
-0.223286
-0.223286
-0.223286
-0.223286
-0.223286
-0.223285
-0.223285
-0.223285
-0.223285
-0.223285
-0.223285
-0.228539
-0.228539
-0.228539
-0.228539
-0.228539
-0.228539
-0.228539
-0.228539
-0.228539
-0.228539
-0.228539
-0.228539
-0.228539
-0.228539
-0.228539
-0.228539
-0.228539
-0.228538
-0.228538
-0.228538
-0.233792
-0.233792
-0.233792
-0.233792
-0.233792
-0.233792
-0.233792
-0.233793
-0.233793
-0.233793
-0.233793
-0.233793
-0.233793
-0.233793
-0.233792
-0.233792
-0.233792
-0.233792
-0.233792
-0.233791
-0.239046
-0.239045
-0.239045
-0.239045
-0.239046
-0.239046
-0.239046
-0.239046
-0.239046
-0.239046
-0.239046
-0.239046
-0.239046
-0.239046
-0.239046
-0.239046
-0.239045
-0.239045
-0.239045
-0.239045
-0.244299
-0.244299
-0.244299
-0.244299
-0.244299
-0.244299
-0.244299
-0.2443
-0.2443
-0.2443
-0.2443
-0.2443
-0.2443
-0.244299
-0.244299
-0.244299
-0.244299
-0.244299
-0.244299
-0.244299
-0.249552
-0.249552
-0.249552
-0.249552
-0.249553
-0.249553
-0.249553
-0.249553
-0.249553
-0.249553
-0.249553
-0.249553
-0.249553
-0.249553
-0.249553
-0.249553
-0.249553
-0.249553
-0.249553
-0.249552
-0.254806
-0.254806
-0.254806
-0.254806
-0.254806
-0.254807
-0.254807
-0.254807
-0.254807
-0.254807
-0.254807
-0.254807
-0.254807
-0.254807
-0.254806
-0.254806
-0.254806
-0.254806
-0.254806
-0.254806
-0.26006
-0.26006
-0.26006
-0.26006
-0.26006
-0.260061
-0.260061
-0.260061
-0.260061
-0.260061
-0.260061
-0.260061
-0.260061
-0.26006
-0.26006
-0.26006
-0.26006
-0.26006
-0.26006
-0.26006
-0.265313
-0.265314
-0.265314
-0.265314
-0.265314
-0.265315
-0.265315
-0.265315
-0.265315
-0.265315
-0.265315
-0.265315
-0.265315
-0.265314
-0.265314
-0.265314
-0.265314
-0.265314
-0.265314
-0.265314
-0.270568
-0.270568
-0.270568
-0.270568
-0.270568
-0.270568
-0.270569
-0.270569
-0.270569
-0.270569
-0.270569
-0.270569
-0.270569
-0.270569
-0.270569
-0.270569
-0.270569
-0.270569
-0.270569
-0.270568
-0.275822
-0.275822
-0.275822
-0.275822
-0.275822
-0.275823
-0.275823
-0.275823
-0.275823
-0.275823
-0.275823
-0.275823
-0.275823
-0.275823
-0.275823
-0.275823
-0.275823
-0.275823
-0.275823
-0.275823
-0.281076
-0.281076
-0.281077
-0.281077
-0.281077
-0.281077
-0.281077
-0.281077
-0.281077
-0.281077
-0.281077
-0.281077
-0.281077
-0.281077
-0.281077
-0.281077
-0.281077
-0.281077
-0.281077
-0.281077
-0.28633
-0.286331
-0.286331
-0.286331
-0.286331
-0.286331
-0.286331
-0.286331
-0.286331
-0.286331
-0.286331
-0.286331
-0.286331
-0.286331
-0.286331
-0.286331
-0.286331
-0.286331
-0.286331
-0.286332
-0.291585
-0.291585
-0.291585
-0.291585
-0.291585
-0.291585
-0.291585
-0.291585
-0.291585
-0.291585
-0.291585
-0.291585
-0.291585
-0.291585
-0.291586
-0.291586
-0.291586
-0.291586
-0.291586
-0.291586
-0.296839
-0.296839
-0.296839
-0.296839
-0.296839
-0.296839
-0.296839
-0.296839
-0.296839
-0.296839
-0.29684
-0.29684
-0.29684
-0.29684
-0.29684
-0.29684
-0.29684
-0.29684
-0.29684
-0.29684
-0.302093
-0.302094
-0.302094
-0.302094
-0.302094
-0.302094
-0.302094
-0.302094
-0.302094
-0.302094
-0.302094
-0.302094
-0.302094
-0.302094
-0.302094
-0.302094
-0.302094
-0.302094
-0.302094
-0.302094
-0.307348
-0.307348
-0.307348
-0.307348
-0.307348
-0.307348
-0.307348
-0.307348
-0.307348
-0.307348
-0.307348
-0.307348
-0.307348
-0.307348
-0.307349
-0.307349
-0.307349
-0.307349
-0.307349
-0.307348
-0.312602
-0.312602
-0.312602
-0.312602
-0.312602
-0.312602
-0.312602
-0.312602
-0.312602
-0.312602
-0.312602
-0.312602
-0.312603
-0.312603
-0.312603
-0.312603
-0.312603
-0.312603
-0.312603
-0.312602
-0.317856
-0.317856
-0.317856
-0.317856
-0.317856
-0.317856
-0.317856
-0.317856
-0.317856
-0.317856
-0.317857
-0.317857
-0.317857
-0.317857
-0.317857
-0.317857
-0.317857
-0.317857
-0.317857
-0.317856
-0.32311
-0.32311
-0.32311
-0.32311
-0.32311
-0.32311
-0.32311
-0.32311
-0.32311
-0.323111
-0.323111
-0.323111
-0.323111
-0.323111
-0.323111
-0.323111
-0.323111
-0.323111
-0.323111
-0.323111
-0.328364
-0.328364
-0.328364
-0.328364
-0.328364
-0.328364
-0.328364
-0.328364
-0.328364
-0.328365
-0.328365
-0.328365
-0.328365
-0.328365
-0.328365
-0.328365
-0.328365
-0.328365
-0.328365
-0.328365
-0.333618
-0.333618
-0.333618
-0.333618
-0.333618
-0.333618
-0.333618
-0.333618
-0.333619
-0.333619
-0.333619
-0.333619
-0.333619
-0.333619
-0.333619
-0.333619
-0.333619
-0.333619
-0.333619
-0.333619
-0.338872
-0.338872
-0.338872
-0.338872
-0.338872
-0.338872
-0.338872
-0.338873
-0.338873
-0.338873
-0.338873
-0.338873
-0.338873
-0.338873
-0.338873
-0.338873
-0.338873
-0.338873
-0.338873
-0.338873
-0.344126
-0.344126
-0.344126
-0.344126
-0.344126
-0.344126
-0.344126
-0.344127
-0.344127
-0.344127
-0.344127
-0.344127
-0.344127
-0.344127
-0.344127
-0.344128
-0.344128
-0.344128
-0.344128
-0.344127
-0.34938
-0.34938
-0.34938
-0.34938
-0.34938
-0.349381
-0.349381
-0.349381
-0.349381
-0.349381
-0.349381
-0.349381
-0.349381
-0.349382
-0.349382
-0.349382
-0.349382
-0.349382
-0.349382
-0.349381
-0.354635
-0.354635
-0.354635
-0.354635
-0.354635
-0.354635
-0.354635
-0.354635
-0.354635
-0.354635
-0.354635
-0.354636
-0.354636
-0.354636
-0.354636
-0.354636
-0.354636
-0.354636
-0.354636
-0.354636
-0.359889
-0.359889
-0.359889
-0.359889
-0.359889
-0.359889
-0.359889
-0.359889
-0.35989
-0.35989
-0.35989
-0.35989
-0.35989
-0.35989
-0.35989
-0.35989
-0.35989
-0.35989
-0.35989
-0.35989
-0.365143
-0.365143
-0.365143
-0.365143
-0.365143
-0.365144
-0.365144
-0.365144
-0.365144
-0.365144
-0.365144
-0.365144
-0.365144
-0.365144
-0.365145
-0.365145
-0.365145
-0.365145
-0.365145
-0.365144
-0.370397
-0.370398
-0.370398
-0.370398
-0.370398
-0.370398
-0.370398
-0.370398
-0.370398
-0.370398
-0.370399
-0.370399
-0.370399
-0.370399
-0.370399
-0.370399
-0.370399
-0.370399
-0.370399
-0.370399
-0.375652
-0.375652
-0.375652
-0.375652
-0.375652
-0.375653
-0.375653
-0.375653
-0.375653
-0.375653
-0.375653
-0.375653
-0.375653
-0.375653
-0.375653
-0.375653
-0.375653
-0.375653
-0.375653
-0.375653
-0.380906
-0.380906
-0.380907
-0.380907
-0.380907
-0.380907
-0.380907
-0.380907
-0.380907
-0.380907
-0.380907
-0.380907
-0.380907
-0.380907
-0.380907
-0.380907
-0.380907
-0.380907
-0.380908
-0.380907
-0.386161
-0.386161
-0.386161
-0.386161
-0.386161
-0.386161
-0.386161
-0.386162
-0.386162
-0.386162
-0.386162
-0.386162
-0.386162
-0.386162
-0.386162
-0.386162
-0.386162
-0.386162
-0.386162
-0.386161
-0.391415
-0.391415
-0.391415
-0.391416
-0.391416
-0.391416
-0.391416
-0.391416
-0.391416
-0.391416
-0.391416
-0.391416
-0.391416
-0.391416
-0.391416
-0.391416
-0.391416
-0.391416
-0.391416
-0.391416
-0.396669
-0.39667
-0.39667
-0.39667
-0.39667
-0.39667
-0.39667
-0.39667
-0.39667
-0.39667
-0.39667
-0.39667
-0.39667
-0.39667
-0.39667
-0.39667
-0.396671
-0.396671
-0.396671
-0.39667
-0.401924
-0.401924
-0.401924
-0.401924
-0.401924
-0.401924
-0.401924
-0.401924
-0.401924
-0.401925
-0.401925
-0.401925
-0.401925
-0.401925
-0.401925
-0.401925
-0.401925
-0.401925
-0.401925
-0.401925
-0.407178
-0.407179
-0.407179
-0.407179
-0.407179
-0.407179
-0.407179
-0.407179
-0.407179
-0.407179
-0.407179
-0.407179
-0.407179
-0.407179
-0.407179
-0.407179
-0.407179
-0.407179
-0.407179
-0.40718
-0.412433
-0.412433
-0.412433
-0.412433
-0.412433
-0.412433
-0.412433
-0.412433
-0.412433
-0.412433
-0.412433
-0.412433
-0.412433
-0.412433
-0.412433
-0.412433
-0.412433
-0.412433
-0.412433
-0.412434
-0.417688
-0.417688
-0.417687
-0.417687
-0.417687
-0.417687
-0.417687
-0.417687
-0.417687
-0.417687
-0.417687
-0.417687
-0.417687
-0.417687
-0.417687
-0.417687
-0.417687
-0.417687
-0.417687
-0.417688
-0.422942
-0.422942
-0.422942
-0.422941
-0.422941
-0.422941
-0.422941
-0.422941
-0.422941
-0.422941
-0.422941
-0.422941
-0.422941
-0.422941
-0.422941
-0.422941
-0.422941
-0.422941
-0.422941
-0.422942
-0.428196
-0.428196
-0.428196
-0.428196
-0.428196
-0.428195
-0.428195
-0.428195
-0.428195
-0.428195
-0.428195
-0.428195
-0.428195
-0.428195
-0.428195
-0.428195
-0.428195
-0.428195
-0.428195
-0.428195
-0.433451
-0.43345
-0.43345
-0.43345
-0.43345
-0.43345
-0.43345
-0.433449
-0.433449
-0.433449
-0.433449
-0.433449
-0.433449
-0.433449
-0.433449
-0.433449
-0.433449
-0.433449
-0.433449
-0.43345
-0.438705
-0.438705
-0.438705
-0.438704
-0.438704
-0.438704
-0.438704
-0.438703
-0.438703
-0.438703
-0.438703
-0.438703
-0.438703
-0.438703
-0.438703
-0.438703
-0.438703
-0.438703
-0.438703
-0.438704
-0.443959
-0.443959
-0.443959
-0.443959
-0.443958
-0.443958
-0.443958
-0.443958
-0.443957
-0.443957
-0.443957
-0.443957
-0.443957
-0.443957
-0.443957
-0.443957
-0.443957
-0.443957
-0.443958
-0.443958
-0.449214
-0.449214
-0.449213
-0.449213
-0.449213
-0.449212
-0.449212
-0.449212
-0.449211
-0.449211
-0.449211
-0.449211
-0.449211
-0.449211
-0.449211
-0.449212
-0.449212
-0.449212
-0.449212
-0.449213
-0.454469
-0.454468
-0.454468
-0.454467
-0.454467
-0.454467
-0.454466
-0.454466
-0.454466
-0.454466
-0.454466
-0.454466
-0.454466
-0.454466
-0.454466
-0.454466
-0.454466
-0.454466
-0.454467
-0.454467
-0.459723
-0.459723
-0.459723
-0.459722
-0.459722
-0.459721
-0.459721
-0.459721
-0.459721
-0.45972
-0.45972
-0.45972
-0.45972
-0.459721
-0.459721
-0.459721
-0.459721
-0.459722
-0.459722
-0.459723
-0.464979
-0.464978
-0.464978
-0.464977
-0.464977
-0.464977
-0.464976
-0.464976
-0.464976
-0.464976
-0.464975
-0.464976
-0.464976
-0.464976
-0.464976
-0.464976
-0.464977
-0.464977
-0.464978
-0.464978
-0.470234
-0.470234
-0.470233
-0.470233
-0.470232
-0.470232
-0.470232
-0.470231
-0.470231
-0.470231
-0.470231
-0.470231
-0.470231
-0.470231
-0.470232
-0.470232
-0.470233
-0.470233
-0.470234
-0.470234
-0.47549
-0.47549
-0.475489
-0.475489
-0.475488
-0.475488
-0.475488
-0.475487
-0.475487
-0.475487
-0.475487
-0.475487
-0.475487
-0.475488
-0.475488
-0.475489
-0.475489
-0.47549
-0.47549
-0.475491
-0.480747
-0.480746
-0.480746
-0.480745
-0.480745
-0.480744
-0.480744
-0.480744
-0.480744
-0.480743
-0.480743
-0.480744
-0.480744
-0.480744
-0.480745
-0.480745
-0.480746
-0.480747
-0.480747
-0.480748
-0.486004
-0.486004
-0.486003
-0.486003
-0.486002
-0.486002
-0.486001
-0.486001
-0.486001
-0.486001
-0.486001
-0.486001
-0.486001
-0.486002
-0.486002
-0.486003
-0.486004
-0.486004
-0.486005
-0.486005
-0.491262
-0.491262
-0.491261
-0.491261
-0.49126
-0.49126
-0.491259
-0.491259
-0.491259
-0.491258
-0.491259
-0.491259
-0.491259
-0.49126
-0.49126
-0.491261
-0.491262
-0.491262
-0.491263
-0.491263
-0.496521
-0.496521
-0.49652
-0.496519
-0.496519
-0.496518
-0.496518
-0.496517
-0.496517
-0.496517
-0.496517
-0.496518
-0.496518
-0.496518
-0.496519
-0.49652
-0.496521
-0.496521
-0.496522
-0.496522
-0.50178
-0.50178
-0.50178
-0.501779
-0.501778
-0.501778
-0.501777
-0.501777
-0.501777
-0.501777
-0.501777
-0.501777
-0.501777
-0.501778
-0.501778
-0.501779
-0.50178
-0.501781
-0.501782
-0.501782
-0.507041
-0.507041
-0.50704
-0.507039
-0.507039
-0.507038
-0.507038
-0.507037
-0.507037
-0.507037
-0.507037
-0.507037
-0.507038
-0.507038
-0.507039
-0.50704
-0.507041
-0.507042
-0.507042
-0.507043
-0.512303
-0.512302
-0.512301
-0.512301
-0.5123
-0.512299
-0.512299
-0.512298
-0.512298
-0.512298
-0.512298
-0.512298
-0.512299
-0.512299
-0.5123
-0.512301
-0.512302
-0.512303
-0.512304
-0.512304
-0.517565
-0.517564
-0.517563
-0.517563
-0.517562
-0.517561
-0.517561
-0.517561
-0.51756
-0.51756
-0.51756
-0.517561
-0.517561
-0.517562
-0.517563
-0.517563
-0.517564
-0.517565
-0.517566
-0.517566
-0.522828
-0.522827
-0.522826
-0.522826
-0.522825
-0.522824
-0.522824
-0.522824
-0.522824
-0.522824
-0.522824
-0.522824
-0.522825
-0.522825
-0.522826
-0.522826
-0.522827
-0.522828
-0.522829
-0.522829
-0.528091
-0.52809
-0.52809
-0.528089
-0.528089
-0.528088
-0.528088
-0.528088
-0.528088
-0.528088
-0.528088
-0.528088
-0.528089
-0.528089
-0.52809
-0.52809
-0.528091
-0.528092
-0.528093
-0.528093
-0.533355
-0.533355
-0.533354
-0.533354
-0.533353
-0.533353
-0.533353
-0.533353
-0.533353
-0.533353
-0.533353
-0.533353
-0.533354
-0.533354
-0.533355
-0.533355
-0.533356
-0.533357
-0.533357
-0.533358
-0.53862
-0.53862
-0.538619
-0.538619
-0.538619
-0.538618
-0.538618
-0.538618
-0.538618
-0.538618
-0.538619
-0.538619
-0.538619
-0.53862
-0.53862
-0.538621
-0.538621
-0.538622
-0.538622
-0.538623
-0.543885
-0.543885
-0.543885
-0.543885
-0.543884
-0.543884
-0.543884
-0.543884
-0.543884
-0.543885
-0.543885
-0.543885
-0.543885
-0.543886
-0.543886
-0.543887
-0.543887
-0.543887
-0.543888
-0.543888
-0.549151
-0.549151
-0.54915
-0.54915
-0.54915
-0.54915
-0.54915
-0.54915
-0.549151
-0.549151
-0.549151
-0.549151
-0.549152
-0.549152
-0.549152
-0.549152
-0.549153
-0.549153
-0.549153
-0.549153
-0.554416
-0.554416
-0.554416
-0.554416
-0.554416
-0.554416
-0.554416
-0.554417
-0.554417
-0.554417
-0.554417
-0.554417
-0.554418
-0.554418
-0.554418
-0.554418
-0.554418
-0.554418
-0.554418
-0.554419
-0.559682
-0.559682
-0.559682
-0.559682
-0.559682
-0.559682
-0.559683
-0.559683
-0.559683
-0.559683
-0.559683
-0.559683
-0.559684
-0.559684
-0.559684
-0.559684
-0.559684
-0.559684
-0.559683
-0.559684
-0.564947
-0.564947
-0.564948
-0.564948
-0.564948
-0.564948
-0.564948
-0.564948
-0.564948
-0.564949
-0.564949
-0.564949
-0.564949
-0.564949
-0.564949
-0.564949
-0.564948
-0.564948
-0.564948
-0.564948
-0.570212
-0.570213
-0.570213
-0.570213
-0.570213
-0.570213
-0.570213
-0.570213
-0.570213
-0.570214
-0.570214
-0.570214
-0.570213
-0.570213
-0.570213
-0.570213
-0.570213
-0.570213
-0.570212
-0.570212
-0.575477
-0.575477
-0.575477
-0.575478
-0.575478
-0.575478
-0.575478
-0.575478
-0.575478
-0.575478
-0.575478
-0.575478
-0.575477
-0.575477
-0.575477
-0.575477
-0.575477
-0.575476
-0.575476
-0.575476
-0.580741
-0.580741
-0.580742
-0.580742
-0.580742
-0.580742
-0.580742
-0.580742
-0.580741
-0.580741
-0.580741
-0.580741
-0.580741
-0.58074
-0.58074
-0.58074
-0.58074
-0.58074
-0.580739
-0.580739
-0.586005
-0.586005
-0.586005
-0.586005
-0.586005
-0.586005
-0.586005
-0.586005
-0.586004
-0.586004
-0.586004
-0.586004
-0.586003
-0.586003
-0.586003
-0.586003
-0.586003
-0.586002
-0.586002
-0.586002
-0.591269
-0.591268
-0.591269
-0.591268
-0.591268
-0.591268
-0.591268
-0.591267
-0.591267
-0.591267
-0.591266
-0.591266
-0.591266
-0.591266
-0.591266
-0.591265
-0.591265
-0.591265
-0.591265
-0.591265
-0.596531
-0.596531
-0.596531
-0.596531
-0.596531
-0.596531
-0.59653
-0.59653
-0.59653
-0.596529
-0.596529
-0.596528
-0.596528
-0.596528
-0.596528
-0.596528
-0.596528
-0.596528
-0.596528
-0.596528
-0.601794
-0.601794
-0.601794
-0.601794
-0.601794
-0.601793
-0.601793
-0.601792
-0.601792
-0.601792
-0.601791
-0.601791
-0.601791
-0.601791
-0.601791
-0.601791
-0.601791
-0.601792
-0.601792
-0.601792
-0.607057
-0.607057
-0.607057
-0.607057
-0.607056
-0.607056
-0.607056
-0.607055
-0.607055
-0.607054
-0.607054
-0.607054
-0.607054
-0.607054
-0.607054
-0.607055
-0.607055
-0.607055
-0.607056
-0.607056
-0.61232
-0.61232
-0.61232
-0.61232
-0.612319
-0.612319
-0.612318
-0.612318
-0.612318
-0.612318
-0.612317
-0.612317
-0.612318
-0.612318
-0.612318
-0.612318
-0.612319
-0.612319
-0.612319
-0.61232
-0.617583
-0.617583
-0.617583
-0.617583
-0.617582
-0.617582
-0.617582
-0.617582
-0.617581
-0.617581
-0.617581
-0.617581
-0.617582
-0.617582
-0.617582
-0.617583
-0.617583
-0.617583
-0.617583
-0.617583
-0.622846
-0.622846
-0.622846
-0.622846
-0.622846
-0.622846
-0.622846
-0.622845
-0.622846
-0.622846
-0.622846
-0.622846
-0.622846
-0.622846
-0.622847
-0.622847
-0.622847
-0.622847
-0.622847
-0.622847
-0.62811
-0.62811
-0.62811
-0.62811
-0.62811
-0.62811
-0.62811
-0.62811
-0.62811
-0.62811
-0.62811
-0.628111
-0.628111
-0.628111
-0.628111
-0.628111
-0.628111
-0.628111
-0.628111
-0.628111
-0.633373
-0.633373
-0.633373
-0.633374
-0.633374
-0.633374
-0.633374
-0.633375
-0.633375
-0.633375
-0.633376
-0.633376
-0.633376
-0.633376
-0.633375
-0.633375
-0.633375
-0.633374
-0.633374
-0.633374
-0.638637
-0.638637
-0.638637
-0.638638
-0.638638
-0.638639
-0.638639
-0.63864
-0.63864
-0.63864
-0.638641
-0.638641
-0.638641
-0.63864
-0.638639
-0.638639
-0.638638
-0.638637
-0.638637
-0.638637
-0.643901
-0.643901
-0.643901
-0.643902
-0.643902
-0.643903
-0.643904
-0.643905
-0.643905
-0.643906
-0.643906
-0.643905
-0.643905
-0.643904
-0.643903
-0.643902
-0.643901
-0.6439
-0.6439
-0.6439
-0.649165
-0.649165
-0.649165
-0.649166
-0.649167
-0.649168
-0.649168
-0.649169
-0.64917
-0.64917
-0.64917
-0.64917
-0.649169
-0.649168
-0.649167
-0.649165
-0.649164
-0.649163
-0.649163
-0.649163
-0.654429
-0.654429
-0.654429
-0.65443
-0.654431
-0.654432
-0.654433
-0.654434
-0.654434
-0.654435
-0.654434
-0.654434
-0.654433
-0.654431
-0.65443
-0.654428
-0.654427
-0.654426
-0.654426
-0.654426
-0.659692
-0.659692
-0.659693
-0.659694
-0.659695
-0.659696
-0.659697
-0.659698
-0.659698
-0.659699
-0.659698
-0.659698
-0.659696
-0.659695
-0.659693
-0.659692
-0.659691
-0.65969
-0.65969
-0.65969
-0.664955
-0.664956
-0.664956
-0.664957
-0.664958
-0.66496
-0.664961
-0.664962
-0.664962
-0.664962
-0.664962
-0.664961
-0.66496
-0.664958
-0.664957
-0.664956
-0.664955
-0.664954
-0.664954
-0.664954
-0.670218
-0.670219
-0.67022
-0.670221
-0.670222
-0.670223
-0.670224
-0.670225
-0.670226
-0.670226
-0.670225
-0.670225
-0.670224
-0.670222
-0.670221
-0.67022
-0.670219
-0.670219
-0.670219
-0.670218
-0.675482
-0.675482
-0.675483
-0.675484
-0.675485
-0.675487
-0.675488
-0.675489
-0.675489
-0.675489
-0.675489
-0.675488
-0.675487
-0.675486
-0.675485
-0.675485
-0.675484
-0.675484
-0.675483
-0.675483
-0.680745
-0.680746
-0.680747
-0.680748
-0.680749
-0.68075
-0.680751
-0.680752
-0.680753
-0.680753
-0.680752
-0.680752
-0.680752
-0.680751
-0.68075
-0.680749
-0.680749
-0.680748
-0.680748
-0.680747
-0.686008
-0.686009
-0.68601
-0.686011
-0.686012
-0.686014
-0.686015
-0.686016
-0.686016
-0.686017
-0.686017
-0.686016
-0.686016
-0.686015
-0.686015
-0.686014
-0.686013
-0.686012
-0.686011
-0.686011
-0.691271
-0.691272
-0.691273
-0.691274
-0.691276
-0.691278
-0.691279
-0.69128
-0.691281
-0.691281
-0.691281
-0.691281
-0.691281
-0.69128
-0.691279
-0.691278
-0.691277
-0.691275
-0.691274
-0.691273
-0.696533
-0.696534
-0.696536
-0.696538
-0.69654
-0.696542
-0.696544
-0.696545
-0.696546
-0.696547
-0.696547
-0.696547
-0.696546
-0.696545
-0.696543
-0.696541
-0.696539
-0.696537
-0.696535
-0.696534
-0.701793
-0.701795
-0.701798
-0.701801
-0.701804
-0.701807
-0.701809
-0.701812
-0.701813
-0.701814
-0.701814
-0.701814
-0.701812
-0.70181
-0.701807
-0.701804
-0.701801
-0.701798
-0.701796
-0.701794
-0.707052
-0.707055
-0.707059
-0.707063
-0.707067
-0.707072
-0.707076
-0.707079
-0.707082
-0.707083
-0.707083
-0.707082
-0.70708
-0.707076
-0.707072
-0.707067
-0.707062
-0.707058
-0.707055
-0.707052
-0.71231
-0.712313
-0.712318
-0.712324
-0.712331
-0.712337
-0.712343
-0.712348
-0.712352
-0.712354
-0.712354
-0.712352
-0.712348
-0.712343
-0.712337
-0.71233
-0.712323
-0.712317
-0.712312
-0.712309
-0.717564
-0.717569
-0.717575
-0.717584
-0.717593
-0.717603
-0.717612
-0.71762
-0.717625
-0.717628
-0.717628
-0.717625
-0.717619
-0.717611
-0.717602
-0.717592
-0.717582
-0.717574
-0.717567
-0.717563
-0.722815
-0.722821
-0.72283
-0.722842
-0.722855
-0.722869
-0.722882
-0.722893
-0.722902
-0.722906
-0.722906
-0.722901
-0.722893
-0.722882
-0.722868
-0.722854
-0.722841
-0.722829
-0.722819
-0.722813
-0.72806
-0.728068
-0.728081
-0.728098
-0.728116
-0.728136
-0.728155
-0.728171
-0.728182
-0.728188
-0.728188
-0.728182
-0.72817
-0.728154
-0.728136
-0.728116
-0.728097
-0.72808
-0.728067
-0.728059
-0.733298
-0.733309
-0.733327
-0.73335
-0.733377
-0.733404
-0.73343
-0.733452
-0.733468
-0.733476
-0.733476
-0.733468
-0.733452
-0.73343
-0.733404
-0.733377
-0.73335
-0.733327
-0.733309
-0.733297
-0.738528
-0.738543
-0.738568
-0.738599
-0.738635
-0.738673
-0.738709
-0.738739
-0.738761
-0.738773
-0.738773
-0.738762
-0.73874
-0.738709
-0.738673
-0.738636
-0.738599
-0.738567
-0.738542
-0.738527
-0.743745
-0.743767
-0.7438
-0.743843
-0.743892
-0.743944
-0.743993
-0.744034
-0.744065
-0.744081
-0.744081
-0.744066
-0.744035
-0.743993
-0.743944
-0.743892
-0.743843
-0.743799
-0.743766
-0.743744
-0.748948
-0.748977
-0.749022
-0.74908
-0.749147
-0.749217
-0.749284
-0.749341
-0.749383
-0.749405
-0.749405
-0.749384
-0.749342
-0.749284
-0.749217
-0.749146
-0.749079
-0.74902
-0.748975
-0.748946
-0.754129
-0.754168
-0.754229
-0.754307
-0.754398
-0.754493
-0.754585
-0.754663
-0.75472
-0.754751
-0.754751
-0.754721
-0.754664
-0.754585
-0.754493
-0.754397
-0.754305
-0.754226
-0.754166
-0.754127
-0.759281
-0.759333
-0.759415
-0.759521
-0.759645
-0.759774
-0.7599
-0.760006
-0.760085
-0.760126
-0.760127
-0.760085
-0.760007
-0.7599
-0.759773
-0.759643
-0.759519
-0.759412
-0.759331
-0.759278