/*--------------------------------*- C++ -*----------------------------------*\
| =========                 |                                                 |
| \\      /  F ield         | OpenFOAM: The Open Source CFD Toolbox           |
|  \\    /   O peration     | Version:  5.x                                   |
|   \\  /    A nd           | Web:      www.OpenFOAM.org                      |
|    \\/     M anipulation  |                                                 |
\*---------------------------------------------------------------------------*/
FoamFile
{
    version     2.0;
    format      ascii;
    class       surfaceScalarField;
    location    "0.05";
    object      phi;
}
// * * * * * * * * * * * * * * * * * * * * * * * * * * * * * * * * * * * * * //

dimensions      [0 3 -1 0 0 0 0];

internalField   nonuniform List<scalar> 
15580
(
-9.73019e-18
1.80311e-10
-1.92963e-17
5.20607e-10
-2.2526e-17
8.27644e-10
-2.16157e-17
1.0931e-09
-1.88443e-17
1.31385e-09
-1.53604e-17
1.49033e-09
-1.16261e-17
1.62512e-09
-7.7944e-18
1.7218e-09
-3.90841e-18
1.78391e-09
1.20035e-20
1.8142e-09
3.96217e-18
1.8142e-09
7.94485e-18
1.78391e-09
1.19642e-17
1.7218e-09
1.60175e-17
1.62512e-09
1.99979e-17
1.49033e-09
2.34353e-17
1.31385e-09
2.49823e-17
1.0931e-09
2.17935e-17
8.27644e-10
1.10495e-17
5.20607e-10
1.80311e-10
-9.46916e-18
1.80311e-10
-2.95804e-17
5.20607e-10
-4.0528e-17
8.27644e-10
-4.30852e-17
1.0931e-09
-4.0292e-17
1.31385e-09
-3.44762e-17
1.49033e-09
-2.69768e-17
1.62512e-09
-1.84869e-17
1.7218e-09
-9.39875e-18
1.78391e-09
6.48542e-21
1.8142e-09
9.50669e-18
1.8142e-09
1.89069e-17
1.78391e-09
2.79968e-17
1.7218e-09
3.65394e-17
1.62512e-09
4.40153e-17
1.49033e-09
4.91667e-17
1.31385e-09
4.9301e-17
1.0931e-09
3.98799e-17
8.27644e-10
1.71507e-17
5.20607e-10
1.80311e-10
2.32871e-18
1.80311e-10
-1.72902e-17
5.20607e-10
-3.44561e-17
8.27644e-10
-4.33474e-17
1.0931e-09
-4.46853e-17
1.31385e-09
-4.06438e-17
1.49033e-09
-3.30801e-17
1.62512e-09
-2.32551e-17
1.7218e-09
-1.20363e-17
1.78391e-09
-9.29357e-20
1.8142e-09
1.20146e-17
1.8142e-09
2.37526e-17
1.78391e-09
3.45941e-17
1.7218e-09
4.39657e-17
1.62512e-09
5.09984e-17
1.49033e-09
5.42222e-17
1.31385e-09
5.12156e-17
1.0931e-09
3.94498e-17
8.27644e-10
1.92228e-17
5.20607e-10
1.80311e-10
9.78337e-18
1.80311e-10
-7.92064e-18
5.20607e-10
-2.75662e-17
8.27644e-10
-4.00181e-17
1.0931e-09
-4.43968e-17
1.31385e-09
-4.22034e-17
1.49033e-09
-3.53221e-17
1.62512e-09
-2.53049e-17
1.7218e-09
-1.33381e-17
1.78391e-09
-3.64443e-19
1.8142e-09
1.28014e-17
1.8142e-09
2.5384e-17
1.78391e-09
3.66708e-17
1.7218e-09
4.58892e-17
1.62512e-09
5.2102e-17
1.49033e-09
5.39745e-17
1.31385e-09
4.98383e-17
1.0931e-09
3.87971e-17
8.27644e-10
2.2725e-17
5.20607e-10
1.80311e-10
6.70426e-18
1.80311e-10
-1.04059e-17
5.20607e-10
-2.91231e-17
8.27644e-10
-4.17081e-17
1.0931e-09
-4.66789e-17
1.31385e-09
-4.48867e-17
1.49033e-09
-3.79577e-17
1.62512e-09
-2.7468e-17
1.7218e-09
-1.47421e-17
1.78391e-09
-8.72096e-19
1.8142e-09
1.3171e-17
1.8142e-09
2.65062e-17
1.78391e-09
3.82832e-17
1.7218e-09
4.75913e-17
1.62512e-09
5.34114e-17
1.49033e-09
5.45272e-17
1.31385e-09
4.9831e-17
1.0931e-09
3.92526e-17
8.27644e-10
2.46182e-17
5.20607e-10
1.80311e-10
-5.60378e-18
1.80311e-10
-2.24786e-17
5.20607e-10
-3.79975e-17
8.27644e-10
-4.80755e-17
1.0931e-09
-5.15498e-17
1.31385e-09
-4.88406e-17
1.49033e-09
-4.11672e-17
1.62512e-09
-2.9906e-17
1.7218e-09
-1.63303e-17
1.78391e-09
-1.58275e-18
1.8142e-09
1.33033e-17
1.8142e-09
2.73841e-17
1.78391e-09
3.96593e-17
1.7218e-09
4.90821e-17
1.62512e-09
5.45022e-17
1.49033e-09
5.46379e-17
1.31385e-09
4.84814e-17
1.0931e-09
3.64039e-17
8.27644e-10
2.03279e-17
5.20607e-10
1.80311e-10
-2.39363e-17
1.80311e-10
-4.024e-17
5.20607e-10
-5.10497e-17
8.27644e-10
-5.70884e-17
1.0931e-09
-5.77686e-17
1.31385e-09
-5.33084e-17
1.49033e-09
-4.44767e-17
1.62512e-09
-3.23169e-17
1.7218e-09
-1.79247e-17
1.78391e-09
-2.38968e-18
1.8142e-09
1.32482e-17
1.8142e-09
2.79599e-17
1.78391e-09
4.06479e-17
1.7218e-09
5.01155e-17
1.62512e-09
5.49936e-17
1.49033e-09
5.38736e-17
1.31385e-09
4.56569e-17
1.0931e-09
3.07386e-17
8.27644e-10
1.18082e-17
5.20607e-10
1.80311e-10
-4.16138e-17
1.80311e-10
-5.71653e-17
5.20607e-10
-6.3887e-17
8.27644e-10
-6.58707e-17
1.0931e-09
-6.36418e-17
1.31385e-09
-5.73576e-17
1.49033e-09
-4.73816e-17
1.62512e-09
-3.44045e-17
1.7218e-09
-1.93218e-17
1.78391e-09
-3.14525e-18
1.8142e-09
1.30922e-17
1.8142e-09
2.8312e-17
1.78391e-09
4.13188e-17
1.7218e-09
5.07482e-17
1.62512e-09
5.51314e-17
1.49033e-09
5.30574e-17
1.31385e-09
4.35484e-17
1.0931e-09
2.66508e-17
8.27644e-10
5.63586e-18
5.20607e-10
1.80311e-10
-5.19477e-17
1.80312e-10
-6.7547e-17
5.20607e-10
-7.20017e-17
8.27644e-10
-7.14897e-17
1.0931e-09
-6.74372e-17
1.31385e-09
-5.99689e-17
1.49033e-09
-4.92454e-17
1.62512e-09
-3.57846e-17
1.7218e-09
-2.03099e-17
1.78391e-09
-3.74201e-18
1.8142e-09
1.28878e-17
1.8142e-09
2.8437e-17
1.78391e-09
4.16067e-17
1.7218e-09
5.09976e-17
1.62512e-09
5.51944e-17
1.49033e-09
5.30416e-17
1.31385e-09
4.4074e-17
1.0931e-09
2.73882e-17
8.27644e-10
6.44264e-18
5.20607e-10
1.80312e-10
-5.05481e-17
1.80312e-10
-6.72267e-17
5.20607e-10
-7.25065e-17
8.27644e-10
-7.21572e-17
1.0931e-09
-6.79596e-17
1.31385e-09
-6.03984e-17
1.49033e-09
-4.96735e-17
1.62512e-09
-3.62471e-17
1.7218e-09
-2.07918e-17
1.78391e-09
-4.15616e-18
1.8142e-09
1.2577e-17
1.8142e-09
2.81969e-17
1.78391e-09
4.13846e-17
1.7218e-09
5.07893e-17
1.62512e-09
5.52511e-17
1.49033e-09
5.40809e-17
1.31385e-09
4.71292e-17
1.0931e-09
3.2942e-17
8.27644e-10
1.39856e-17
5.20607e-10
1.80312e-10
-3.81993e-17
1.80312e-10
-5.70792e-17
5.20607e-10
-6.58531e-17
8.27644e-10
-6.80732e-17
1.0931e-09
-6.53616e-17
1.31385e-09
-5.87509e-17
1.49033e-09
-4.87879e-17
1.62512e-09
-3.59179e-17
1.7218e-09
-2.08476e-17
1.78391e-09
-4.49553e-18
1.8142e-09
1.20172e-17
1.8142e-09
2.74321e-17
1.78391e-09
4.04309e-17
1.7218e-09
4.98352e-17
1.62512e-09
5.48998e-17
1.49033e-09
5.53764e-17
1.31385e-09
5.10152e-17
1.0931e-09
4.04009e-17
8.27644e-10
2.37792e-17
5.20607e-10
1.80312e-10
-2.07942e-17
1.80312e-10
-4.224e-17
5.20607e-10
-5.56e-17
8.27644e-10
-6.12949e-17
1.0931e-09
-6.09984e-17
1.31385e-09
-5.59768e-17
1.49033e-09
-4.71191e-17
1.62512e-09
-3.50939e-17
1.7218e-09
-2.07038e-17
1.78391e-09
-4.93321e-18
1.8142e-09
1.10419e-17
1.8142e-09
2.59202e-17
1.78391e-09
3.84829e-17
1.7218e-09
4.78723e-17
1.62512e-09
5.36843e-17
1.49033e-09
5.57368e-17
1.31385e-09
5.34612e-17
1.0931e-09
4.583e-17
8.27644e-10
3.08566e-17
5.20607e-10
1.80312e-10
-7.38636e-18
1.80312e-10
-2.97244e-17
5.20607e-10
-4.62238e-17
8.27644e-10
-5.45791e-17
1.0931e-09
-5.63741e-17
1.31385e-09
-5.28529e-17
1.49033e-09
-4.5113e-17
1.62512e-09
-3.4028e-17
1.7218e-09
-2.05068e-17
1.78391e-09
-5.58583e-18
1.8142e-09
9.50386e-18
1.8142e-09
2.35157e-17
1.78391e-09
3.54446e-17
1.7218e-09
4.46617e-17
1.62512e-09
5.08441e-17
1.49033e-09
5.38434e-17
1.31385e-09
5.29753e-17
1.0931e-09
4.76725e-17
8.27644e-10
3.41824e-17
5.20607e-10
1.80312e-10
-3.69192e-18
1.80312e-10
-2.40213e-17
5.20607e-10
-4.0131e-17
8.27644e-10
-4.921e-17
1.0931e-09
-5.20524e-17
1.31385e-09
-4.95773e-17
1.49033e-09
-4.28132e-17
1.62512e-09
-3.27194e-17
1.7218e-09
-2.02309e-17
1.78391e-09
-6.4246e-18
1.8142e-09
7.47819e-18
1.8142e-09
2.03407e-17
1.78391e-09
3.13189e-17
1.7218e-09
3.98728e-17
1.62512e-09
4.56887e-17
1.49033e-09
4.85147e-17
1.31385e-09
4.825e-17
1.0931e-09
4.52021e-17
8.27644e-10
3.44173e-17
5.20607e-10
1.80312e-10
-1.07535e-17
1.80312e-10
-2.37626e-17
5.20607e-10
-3.63732e-17
8.27644e-10
-4.45233e-17
1.0931e-09
-4.74247e-17
1.31385e-09
-4.55872e-17
1.49033e-09
-3.97683e-17
1.62512e-09
-3.07967e-17
1.7218e-09
-1.95668e-17
1.78391e-09
-7.17644e-18
1.8142e-09
5.20114e-18
1.8142e-09
1.65403e-17
1.78391e-09
2.60652e-17
1.7218e-09
3.31417e-17
1.62512e-09
3.73224e-17
1.49033e-09
3.85703e-17
1.31385e-09
3.75266e-17
1.0931e-09
3.58178e-17
8.27644e-10
3.00282e-17
5.20607e-10
1.80312e-10
-8.12724e-18
1.80312e-10
-2.17824e-17
5.20607e-10
-3.1672e-17
8.27644e-10
-3.85882e-17
1.0931e-09
-4.13012e-17
1.31385e-09
-4.00289e-17
1.49033e-09
-3.5319e-17
1.62512e-09
-2.77663e-17
1.7218e-09
-1.81711e-17
1.78391e-09
-7.5939e-18
1.8142e-09
2.86566e-18
1.8142e-09
1.22211e-17
1.78391e-09
1.96562e-17
1.7218e-09
2.43923e-17
1.62512e-09
2.57368e-17
1.49033e-09
2.36575e-17
1.31385e-09
1.92237e-17
1.0931e-09
1.5066e-17
8.27644e-10
1.34644e-17
5.20607e-10
1.80312e-10
-1.11814e-17
1.80312e-10
-2.01396e-17
5.20607e-10
-2.61355e-17
8.27644e-10
-3.08491e-17
1.0931e-09
-3.31013e-17
1.31385e-09
-3.25375e-17
1.49033e-09
-2.92162e-17
1.62512e-09
-2.34319e-17
1.7218e-09
-1.5895e-17
1.78391e-09
-7.55997e-18
1.8142e-09
5.91422e-19
1.8142e-09
7.62396e-18
1.78391e-09
1.25799e-17
1.7218e-09
1.44285e-17
1.62512e-09
1.23696e-17
1.49033e-09
6.13591e-18
1.31385e-09
-3.26112e-18
1.0931e-09
-1.4286e-17
8.27644e-10
-2.55829e-17
5.20607e-10
1.80312e-10
-1.61332e-17
1.80312e-10
-1.88349e-17
5.20607e-10
-1.93316e-17
8.27644e-10
-2.10316e-17
1.0931e-09
-2.27818e-17
1.31385e-09
-2.31252e-17
1.49033e-09
-2.15154e-17
1.62512e-09
-1.79053e-17
1.7218e-09
-1.28355e-17
1.78391e-09
-7.08102e-18
1.8142e-09
-1.4935e-18
1.8142e-09
3.02435e-18
1.78391e-09
5.44185e-18
1.7218e-09
4.75696e-18
1.62512e-09
1.68775e-19
1.49033e-09
-8.34072e-18
1.31385e-09
-1.93348e-17
1.0931e-09
-3.08141e-17
8.27644e-10
-3.53784e-17
5.20607e-10
1.80312e-10
-1.90656e-17
1.80312e-10
-1.22621e-17
5.20607e-10
-8.06919e-18
8.27644e-10
-7.90527e-18
1.0931e-09
-9.99525e-18
1.31385e-09
-1.18481e-17
1.49033e-09
-1.24646e-17
1.62512e-09
-1.14934e-17
1.7218e-09
-9.20704e-18
1.78391e-09
-6.22027e-18
1.8142e-09
-3.28611e-18
1.8142e-09
-1.26203e-18
1.78391e-09
-1.04906e-18
1.7218e-09
-3.50293e-18
1.62512e-09
-9.07644e-18
1.49033e-09
-1.68739e-17
1.31385e-09
-2.457e-17
1.0931e-09
-2.93707e-17
8.27644e-10
-2.42517e-17
5.20607e-10
1.80312e-10
1.20449e-18
1.80312e-10
8.97662e-18
5.20607e-10
1.14083e-17
8.27644e-10
9.53345e-18
1.0931e-09
5.29685e-18
1.31385e-09
8.42754e-19
1.49033e-09
-2.5803e-18
1.62512e-09
-4.51963e-18
1.7218e-09
-5.12807e-18
1.78391e-09
-4.96591e-18
1.8142e-09
-4.63357e-18
1.8142e-09
-4.89368e-18
1.78391e-09
-6.52219e-18
1.7218e-09
-1.01685e-17
1.62512e-09
-1.56576e-17
1.49033e-09
-2.11542e-17
1.31385e-09
-2.37734e-17
1.0931e-09
-2.06703e-17
8.27644e-10
-7.38039e-18
5.20607e-10
1.80312e-10
3.85711e-17
1.80312e-10
3.95627e-17
5.20607e-10
3.55783e-17
8.27644e-10
2.88773e-17
1.0931e-09
2.13387e-17
1.31385e-09
1.3958e-17
1.49033e-09
7.62325e-18
1.62512e-09
2.7494e-18
1.7218e-09
-7.04601e-19
1.78391e-09
-3.17453e-18
1.8142e-09
-5.24039e-18
1.8142e-09
-7.54234e-18
1.78391e-09
-1.07725e-17
1.7218e-09
-1.53881e-17
1.62512e-09
-2.07723e-17
1.49033e-09
-2.49466e-17
1.31385e-09
-2.47376e-17
1.0931e-09
-1.70078e-17
8.27644e-10
3.89751e-18
5.20607e-10
1.80312e-10
5.03881e-17
1.80312e-10
5.90756e-17
5.20607e-10
5.49799e-17
8.27644e-10
4.61299e-17
1.0931e-09
3.60563e-17
1.31385e-09
2.61331e-17
1.49033e-09
1.72724e-17
1.62512e-09
9.89593e-18
1.7218e-09
4.00926e-18
1.78391e-09
-6.87751e-19
1.8142e-09
-4.70204e-18
1.8142e-09
-8.64156e-18
1.78391e-09
-1.32516e-17
1.7218e-09
-1.89627e-17
1.62512e-09
-2.52686e-17
1.49033e-09
-3.08135e-17
1.31385e-09
-3.36899e-17
1.0931e-09
-3.01224e-17
8.27644e-10
-1.93093e-17
5.20607e-10
1.80312e-10
4.1778e-17
1.80312e-10
6.46478e-17
5.20607e-10
6.61809e-17
8.27644e-10
5.91023e-17
1.0931e-09
4.8034e-17
1.31385e-09
3.63919e-17
1.49033e-09
2.56325e-17
1.62512e-09
1.64245e-17
1.7218e-09
8.85785e-18
1.78391e-09
2.70631e-18
1.8142e-09
-2.50976e-18
1.8142e-09
-7.54337e-18
1.78391e-09
-1.32458e-17
1.7218e-09
-2.0183e-17
1.62512e-09
-2.83536e-17
1.49033e-09
-3.72329e-17
1.31385e-09
-4.51335e-17
1.0931e-09
-4.706e-17
8.27644e-10
-4.052e-17
5.20607e-10
1.80312e-10
3.93801e-17
1.80312e-10
6.65436e-17
5.20607e-10
7.30849e-17
8.27644e-10
6.86553e-17
1.0931e-09
5.68636e-17
1.31385e-09
4.38696e-17
1.49033e-09
3.19789e-17
1.62512e-09
2.18502e-17
1.7218e-09
1.36252e-17
1.78391e-09
7.02918e-18
1.8142e-09
1.44607e-18
1.8142e-09
-4.04997e-18
1.78391e-09
-1.03862e-17
1.7218e-09
-1.82806e-17
1.62512e-09
-2.81781e-17
1.49033e-09
-3.99718e-17
1.31385e-09
-5.122e-17
1.0931e-09
-5.63972e-17
8.27644e-10
-5.05986e-17
5.20607e-10
1.80311e-10
4.41742e-17
1.80312e-10
7.19103e-17
5.20607e-10
7.87161e-17
8.27644e-10
7.42292e-17
1.0931e-09
6.14316e-17
1.31385e-09
4.73969e-17
1.49033e-09
3.53801e-17
1.62512e-09
2.5552e-17
1.7218e-09
1.78225e-17
1.78391e-09
1.17567e-17
1.8142e-09
6.57804e-18
1.8142e-09
1.31125e-18
1.78391e-09
-4.9168e-18
1.7218e-09
-1.27456e-17
1.62512e-09
-2.25819e-17
1.49033e-09
-3.41675e-17
1.31385e-09
-4.4835e-17
1.0931e-09
-4.99809e-17
8.27644e-10
-4.27742e-17
5.20607e-10
1.80311e-10
6.70983e-17
1.80311e-10
7.87028e-17
5.20607e-10
7.86758e-17
8.27644e-10
7.13585e-17
1.0931e-09
5.87168e-17
1.31385e-09
4.54909e-17
1.49033e-09
3.49294e-17
1.62512e-09
2.67994e-17
1.7218e-09
2.06735e-17
1.78391e-09
1.5958e-17
1.8142e-09
1.18421e-17
1.8142e-09
7.52373e-18
1.78391e-09
2.43027e-18
1.7218e-09
-3.68508e-18
1.62512e-09
-1.07561e-17
1.49033e-09
-1.81156e-17
1.31385e-09
-2.4497e-17
1.0931e-09
-2.78634e-17
8.27644e-10
-2.65483e-17
5.20607e-10
1.80311e-10
7.35787e-17
1.80311e-10
6.55967e-17
5.20607e-10
5.84249e-17
8.27644e-10
5.25652e-17
1.0931e-09
4.50699e-17
1.31385e-09
3.69108e-17
1.49033e-09
3.00297e-17
1.62512e-09
2.50498e-17
1.7218e-09
2.1472e-17
1.78391e-09
1.87483e-17
1.8142e-09
1.62612e-17
1.8142e-09
1.35918e-17
1.78391e-09
1.07052e-17
1.7218e-09
7.99527e-18
1.62512e-09
6.15999e-18
1.49033e-09
5.94423e-18
1.31385e-09
6.67344e-18
1.0931e-09
4.81674e-18
8.27644e-10
-2.84177e-18
5.20607e-10
1.80311e-10
1.3354e-17
1.80311e-10
2.00307e-17
5.20607e-10
1.58531e-17
8.27644e-10
1.77845e-17
1.0931e-09
2.1255e-17
1.31385e-09
2.17493e-17
1.49033e-09
2.0971e-17
1.62512e-09
2.02914e-17
1.7218e-09
1.99132e-17
1.78391e-09
1.96239e-17
1.8142e-09
1.9202e-17
1.8142e-09
1.87324e-17
1.78391e-09
1.8788e-17
1.7218e-09
2.04415e-17
1.62512e-09
2.48932e-17
1.49033e-09
3.26295e-17
1.31385e-09
4.16372e-17
1.0931e-09
4.37287e-17
8.27644e-10
3.44828e-17
5.20607e-10
1.80311e-10
-1.83866e-17
1.80311e-10
-2.45479e-17
5.20607e-10
-2.36842e-17
8.27644e-10
-1.70358e-17
1.0931e-09
-5.61757e-18
1.31385e-09
3.64581e-18
1.49033e-09
9.33136e-18
1.62512e-09
1.3227e-17
1.7218e-09
1.61981e-17
1.78391e-09
1.84841e-17
1.8142e-09
2.02964e-17
1.8142e-09
2.21789e-17
1.78391e-09
2.51948e-17
1.7218e-09
3.08235e-17
1.62512e-09
4.0379e-17
1.49033e-09
5.40245e-17
1.31385e-09
6.91849e-17
1.0931e-09
7.66033e-17
8.27644e-10
6.70943e-17
5.20607e-10
1.80312e-10
-5.65345e-17
1.80311e-10
-6.46203e-17
5.20607e-10
-5.49066e-17
8.27644e-10
-4.26673e-17
1.0931e-09
-2.77294e-17
1.31385e-09
-1.3557e-17
1.49033e-09
-2.74677e-18
1.62512e-09
5.04047e-18
1.7218e-09
1.09413e-17
1.78391e-09
1.55363e-17
1.8142e-09
1.93418e-17
1.8142e-09
2.31839e-17
1.78391e-09
2.83232e-17
1.7218e-09
3.6202e-17
1.62512e-09
4.77835e-17
1.49033e-09
6.27962e-17
1.31385e-09
7.83181e-17
1.0931e-09
8.79336e-17
8.27644e-10
7.87114e-17
5.20607e-10
1.80312e-10
-8.58389e-17
1.80312e-10
-9.12557e-17
5.20607e-10
-7.52157e-17
8.27644e-10
-5.79612e-17
1.0931e-09
-4.10637e-17
1.31385e-09
-2.55048e-17
1.49033e-09
-1.26769e-17
1.62512e-09
-2.64936e-18
1.7218e-09
5.18368e-18
1.78391e-09
1.13609e-17
1.8142e-09
1.64962e-17
1.8142e-09
2.14546e-17
1.78391e-09
2.73442e-17
1.7218e-09
3.51529e-17
1.62512e-09
4.51469e-17
1.49033e-09
5.63456e-17
1.31385e-09
6.57437e-17
1.0931e-09
7.09844e-17
8.27644e-10
6.14397e-17
5.20607e-10
1.80312e-10
-8.73611e-17
1.80312e-10
-9.25558e-17
5.20607e-10
-7.72481e-17
8.27644e-10
-6.07918e-17
1.0931e-09
-4.52061e-17
1.31385e-09
-3.09813e-17
1.49033e-09
-1.85853e-17
1.62512e-09
-8.2121e-18
1.7218e-09
2.00985e-19
1.78391e-09
6.92096e-18
1.8142e-09
1.24609e-17
1.8142e-09
1.75147e-17
1.78391e-09
2.27718e-17
1.7218e-09
2.85515e-17
1.62512e-09
3.43369e-17
1.49033e-09
3.83333e-17
1.31385e-09
3.81385e-17
1.0931e-09
3.37743e-17
8.27644e-10
2.10778e-17
5.20607e-10
1.80312e-10
-5.99414e-17
1.80312e-10
-6.8041e-17
5.20607e-10
-6.12817e-17
8.27644e-10
-5.14762e-17
1.0931e-09
-4.06927e-17
1.31385e-09
-2.99224e-17
1.49033e-09
-1.97266e-17
1.62512e-09
-1.06073e-17
1.7218e-09
-2.96639e-18
1.78391e-09
3.19941e-18
1.8142e-09
8.20335e-18
1.8142e-09
1.24432e-17
1.78391e-09
1.61052e-17
1.7218e-09
1.89109e-17
1.62512e-09
1.97955e-17
1.49033e-09
1.66742e-17
1.31385e-09
8.2345e-18
1.0931e-09
-4.99334e-18
8.27644e-10
-1.96012e-17
5.20607e-10
1.80312e-10
-1.89086e-17
1.80312e-10
-3.03936e-17
5.20607e-10
-3.49128e-17
8.27644e-10
-3.42863e-17
1.0931e-09
-3.00188e-17
1.31385e-09
-2.36916e-17
1.49033e-09
-1.66291e-17
1.62512e-09
-9.82976e-18
1.7218e-09
-3.9938e-18
1.78391e-09
7.22637e-19
1.8142e-09
4.44608e-18
1.8142e-09
7.26552e-18
1.78391e-09
8.97657e-18
1.7218e-09
8.99264e-18
1.62512e-09
6.21577e-18
1.49033e-09
-7.67608e-19
1.31385e-09
-1.22579e-17
1.0931e-09
-2.70091e-17
8.27644e-10
-3.61409e-17
5.20607e-10
1.80312e-10
1.68213e-17
1.80312e-10
3.73685e-18
5.20607e-10
-9.22267e-18
8.27644e-10
-1.57728e-17
1.0931e-09
-1.69603e-17
1.31385e-09
-1.46747e-17
1.49033e-09
-1.08301e-17
1.62512e-09
-6.78226e-18
1.7218e-09
-3.3009e-18
1.78391e-09
-5.5824e-19
1.8142e-09
1.45564e-18
1.8142e-09
2.61301e-18
1.78391e-09
2.52635e-18
1.7218e-09
6.07054e-19
1.62512e-09
-3.76516e-18
1.49033e-09
-1.06644e-17
1.31385e-09
-1.93759e-17
1.0931e-09
-2.6912e-17
8.27644e-10
-2.68663e-17
5.20607e-10
1.80312e-10
3.3961e-17
1.80312e-10
2.14625e-17
5.20607e-10
6.88502e-18
8.27644e-10
-1.62358e-18
1.0931e-09
-5.0554e-18
1.31385e-09
-5.26754e-18
1.49033e-09
-4.04139e-18
1.62512e-09
-2.6133e-18
1.7218e-09
-1.55224e-18
1.78391e-09
-9.16365e-19
1.8142e-09
-7.20571e-19
1.8142e-09
-1.18856e-18
1.78391e-09
-2.7462e-18
1.7218e-09
-5.83272e-18
1.62512e-09
-1.0335e-17
1.49033e-09
-1.5048e-17
1.31385e-09
-1.82805e-17
1.0931e-09
-1.64372e-17
8.27644e-10
-5.9383e-18
5.20607e-10
1.80312e-10
2.29342e-17
1.80312e-10
1.89284e-17
5.20607e-10
1.15241e-17
8.27644e-10
6.72965e-18
1.0931e-09
4.36674e-18
1.31385e-09
3.36421e-18
1.49033e-09
2.79976e-18
1.62512e-09
2.03111e-18
1.7218e-09
9.05445e-19
1.78391e-09
-4.29237e-19
1.8142e-09
-1.9549e-18
1.8142e-09
-3.92598e-18
1.78391e-09
-6.77781e-18
1.7218e-09
-1.07619e-17
1.62512e-09
-1.51264e-17
1.49033e-09
-1.79229e-17
1.31385e-09
-1.68884e-17
1.0931e-09
-9.23869e-18
8.27644e-10
5.88944e-18
5.20607e-10
1.80312e-10
2.48521e-18
1.80312e-10
8.72051e-18
5.20607e-10
1.1923e-17
8.27644e-10
1.31052e-17
1.0931e-09
1.29664e-17
1.31385e-09
1.18429e-17
1.49033e-09
9.89958e-18
1.62512e-09
7.23972e-18
1.7218e-09
4.18241e-18
1.78391e-09
1.08097e-18
1.8142e-09
-2.03859e-18
1.8142e-09
-5.47182e-18
1.78391e-09
-9.66568e-18
1.7218e-09
-1.46858e-17
1.62512e-09
-1.95131e-17
1.49033e-09
-2.19885e-17
1.31385e-09
-2.00371e-17
1.0931e-09
-1.2789e-17
8.27644e-10
-6.53248e-19
5.20607e-10
1.80312e-10
-6.60669e-18
1.80312e-10
6.53299e-18
5.20607e-10
1.73497e-17
8.27644e-10
2.25956e-17
1.0931e-09
2.33825e-17
1.31385e-09
2.14873e-17
1.49033e-09
1.79375e-17
1.62512e-09
1.33885e-17
1.7218e-09
8.51169e-18
1.78391e-09
3.75321e-18
1.8142e-09
-9.32536e-19
1.8142e-09
-5.90739e-18
1.78391e-09
-1.15696e-17
1.7218e-09
-1.78464e-17
1.62512e-09
-2.36165e-17
1.49033e-09
-2.66971e-17
1.31385e-09
-2.60394e-17
1.0931e-09
-2.25507e-17
8.27644e-10
-1.68853e-17
5.20607e-10
1.80312e-10
2.38686e-18
1.80312e-10
2.02857e-17
5.20607e-10
3.23138e-17
8.27644e-10
3.73807e-17
1.0931e-09
3.67222e-17
1.31385e-09
3.27963e-17
1.49033e-09
2.71148e-17
1.62512e-09
2.05264e-17
1.7218e-09
1.38204e-17
1.78391e-09
7.37047e-18
1.8142e-09
1.01228e-18
1.8142e-09
-5.6362e-18
1.78391e-09
-1.2823e-17
1.7218e-09
-2.03051e-17
1.62512e-09
-2.65266e-17
1.49033e-09
-2.93261e-17
1.31385e-09
-2.90087e-17
1.0931e-09
-2.70845e-17
8.27644e-10
-2.45086e-17
5.20607e-10
1.80312e-10
3.37164e-17
1.80312e-10
4.66022e-17
5.20607e-10
5.38762e-17
8.27644e-10
5.52278e-17
1.0931e-09
5.15836e-17
1.31385e-09
4.49125e-17
1.49033e-09
3.68135e-17
1.62512e-09
2.81353e-17
1.7218e-09
1.95582e-17
1.78391e-09
1.12807e-17
1.8142e-09
3.07064e-18
1.8142e-09
-5.36242e-18
1.78391e-09
-1.40367e-17
1.7218e-09
-2.22376e-17
1.62512e-09
-2.75353e-17
1.49033e-09
-2.81034e-17
1.31385e-09
-2.49094e-17
1.0931e-09
-1.9301e-17
8.27644e-10
-1.41435e-17
5.20607e-10
1.80312e-10
4.82942e-17
1.80312e-10
6.48057e-17
5.20607e-10
7.10857e-17
8.27644e-10
7.03217e-17
1.0931e-09
6.46791e-17
1.31385e-09
5.59872e-17
1.49033e-09
4.5832e-17
1.62512e-09
3.52585e-17
1.7218e-09
2.48053e-17
1.78391e-09
1.45829e-17
1.8142e-09
4.41476e-18
1.8142e-09
-5.84769e-18
1.78391e-09
-1.58923e-17
1.7218e-09
-2.40554e-17
1.62512e-09
-2.72479e-17
1.49033e-09
-2.44055e-17
1.31385e-09
-1.60791e-17
1.0931e-09
-3.54714e-18
8.27644e-10
8.4934e-18
5.20607e-10
1.80312e-10
3.40747e-17
1.80311e-10
6.54944e-17
5.20607e-10
7.7869e-17
8.27644e-10
7.90821e-17
1.0931e-09
7.35948e-17
1.31385e-09
6.4262e-17
1.49033e-09
5.28654e-17
1.62512e-09
4.07748e-17
1.7218e-09
2.86163e-17
1.78391e-09
1.65387e-17
1.8142e-09
4.46819e-18
1.8142e-09
-7.58325e-18
1.78391e-09
-1.87761e-17
1.7218e-09
-2.62406e-17
1.62512e-09
-2.73606e-17
1.49033e-09
-2.19338e-17
1.31385e-09
-9.888e-18
1.0931e-09
7.35546e-18
8.27644e-10
2.3247e-17
5.20607e-10
1.80312e-10
3.17225e-17
1.80311e-10
6.29521e-17
5.20607e-10
7.92744e-17
8.27644e-10
8.26913e-17
1.0931e-09
7.82065e-17
1.31385e-09
6.90344e-17
1.49033e-09
5.71105e-17
1.62512e-09
4.39817e-17
1.7218e-09
3.04716e-17
1.78391e-09
1.68563e-17
1.8142e-09
3.0382e-18
1.8142e-09
-1.06288e-17
1.78391e-09
-2.24365e-17
1.7218e-09
-2.90397e-17
1.62512e-09
-2.93138e-17
1.49033e-09
-2.37721e-17
1.31385e-09
-1.25356e-17
1.0931e-09
3.42253e-18
8.27644e-10
1.75097e-17
5.20607e-10
1.80312e-10
3.76715e-17
1.80311e-10
6.22311e-17
5.20607e-10
7.77088e-17
8.27644e-10
8.23447e-17
1.0931e-09
7.89822e-17
1.31385e-09
7.03878e-17
1.49033e-09
5.84446e-17
1.62512e-09
4.47477e-17
1.7218e-09
3.03601e-17
1.78391e-09
1.55684e-17
1.8142e-09
3.19938e-19
1.8142e-09
-1.44791e-17
1.78391e-09
-2.61681e-17
1.7218e-09
-3.22408e-17
1.62512e-09
-3.30242e-17
1.49033e-09
-2.96137e-17
1.31385e-09
-2.28539e-17
1.0931e-09
-1.32021e-17
8.27644e-10
-6.32168e-18
5.20607e-10
1.80312e-10
3.35828e-17
1.80311e-10
5.50312e-17
5.20607e-10
7.05818e-17
8.27644e-10
7.71072e-17
1.0931e-09
7.56219e-17
1.31385e-09
6.83132e-17
1.49033e-09
5.69569e-17
1.62512e-09
4.32315e-17
1.7218e-09
2.84337e-17
1.78391e-09
1.28713e-17
1.8142e-09
-3.3276e-18
1.8142e-09
-1.84057e-17
1.78391e-09
-2.93754e-17
1.7218e-09
-3.52471e-17
1.62512e-09
-3.69737e-17
1.49033e-09
-3.57008e-17
1.31385e-09
-3.25076e-17
1.0931e-09
-2.82646e-17
8.27644e-10
-2.60041e-17
5.20607e-10
1.80312e-10
2.42151e-17
1.80311e-10
4.1628e-17
5.20607e-10
5.7602e-17
8.27644e-10
6.68811e-17
1.0931e-09
6.81399e-17
1.31385e-09
6.28717e-17
1.49033e-09
5.27618e-17
1.62512e-09
3.96106e-17
1.7218e-09
2.49456e-17
1.78391e-09
9.13799e-18
1.8142e-09
-7.26483e-18
1.8142e-09
-2.18471e-17
1.78391e-09
-3.19961e-17
1.7218e-09
-3.77475e-17
1.62512e-09
-3.97703e-17
1.49033e-09
-3.84399e-17
1.31385e-09
-3.42252e-17
1.0931e-09
-2.93219e-17
8.27644e-10
-2.29509e-17
5.20607e-10
1.80312e-10
1.43912e-17
1.80311e-10
2.66286e-17
5.20607e-10
4.12514e-17
8.27644e-10
5.29628e-17
1.0931e-09
5.74115e-17
1.31385e-09
5.47501e-17
1.49033e-09
4.64585e-17
1.62512e-09
3.44737e-17
1.7218e-09
2.04082e-17
1.78391e-09
4.74571e-18
1.8142e-09
-1.12275e-17
1.8142e-09
-2.47849e-17
1.78391e-09
-3.43924e-17
1.7218e-09
-4.0077e-17
1.62512e-09
-4.14561e-17
1.49033e-09
-3.78353e-17
1.31385e-09
-2.87097e-17
1.0931e-09
-1.64942e-17
8.27644e-10
-3.59022e-18
5.20607e-10
1.80312e-10
5.7065e-18
1.80311e-10
1.23047e-17
5.20607e-10
2.41256e-17
8.27644e-10
3.72754e-17
1.0931e-09
4.48224e-17
1.31385e-09
4.50831e-17
1.49033e-09
3.90887e-17
1.62512e-09
2.87412e-17
1.7218e-09
1.55603e-17
1.78391e-09
4.10275e-19
1.8142e-09
-1.46115e-17
1.8142e-09
-2.7419e-17
1.78391e-09
-3.72433e-17
1.7218e-09
-4.30937e-17
1.62512e-09
-4.36674e-17
1.49033e-09
-3.74685e-17
1.31385e-09
-2.3443e-17
1.0931e-09
-3.78294e-18
8.27644e-10
1.46187e-17
5.20607e-10
1.80312e-10
-1.92204e-18
1.80311e-10
-1.39724e-18
5.20607e-10
8.02548e-18
8.27644e-10
2.20409e-17
1.0931e-09
3.21371e-17
1.31385e-09
3.51756e-17
1.49033e-09
3.17466e-17
1.62512e-09
2.33848e-17
1.7218e-09
1.11847e-17
1.78391e-09
-3.21414e-18
1.8142e-09
-1.76097e-17
1.8142e-09
-3.05561e-17
1.78391e-09
-4.10138e-17
1.7218e-09
-4.74509e-17
1.62512e-09
-4.80639e-17
1.49033e-09
-4.11912e-17
1.31385e-09
-2.59255e-17
1.0931e-09
-4.1536e-18
8.27644e-10
1.5254e-17
5.20607e-10
1.80312e-10
-1.00214e-17
1.80311e-10
-1.42624e-17
5.20607e-10
-6.328e-18
8.27644e-10
8.81992e-18
1.0931e-09
2.10157e-17
1.31385e-09
2.64429e-17
1.49033e-09
2.51752e-17
1.62512e-09
1.84028e-17
1.7218e-09
7.05974e-18
1.78391e-09
-6.80114e-18
1.8142e-09
-2.11526e-17
1.8142e-09
-3.46285e-17
1.78391e-09
-4.57716e-17
1.7218e-09
-5.30123e-17
1.62512e-09
-5.47435e-17
1.49033e-09
-4.96979e-17
1.31385e-09
-3.74259e-17
1.0931e-09
-1.98594e-17
8.27644e-10
-2.7178e-18
5.20607e-10
1.80312e-10
-2.19235e-17
1.80311e-10
-2.81974e-17
5.20607e-10
-1.97192e-17
8.27644e-10
-2.77364e-18
1.0931e-09
1.16712e-17
1.31385e-09
1.91664e-17
1.49033e-09
1.94716e-17
1.62512e-09
1.34001e-17
1.7218e-09
2.34765e-18
1.78391e-09
-1.13125e-17
1.8142e-09
-2.55874e-17
1.8142e-09
-3.91276e-17
1.78391e-09
-5.05657e-17
1.7218e-09
-5.85035e-17
1.62512e-09
-6.18131e-17
1.49033e-09
-5.96738e-17
1.31385e-09
-5.20452e-17
1.0931e-09
-4.07139e-17
8.27644e-10
-2.61952e-17
5.20607e-10
1.80312e-10
-4.08279e-17
1.80311e-10
-4.58431e-17
5.20607e-10
-3.34425e-17
8.27644e-10
-1.39448e-17
1.0931e-09
2.96712e-18
1.31385e-09
1.23492e-17
1.49033e-09
1.382e-17
1.62512e-09
8.24149e-18
1.7218e-09
-2.48023e-18
1.78391e-09
-1.58105e-17
1.8142e-09
-2.97065e-17
1.8142e-09
-4.27998e-17
1.78391e-09
-5.38882e-17
1.7218e-09
-6.1895e-17
1.62512e-09
-6.60607e-17
1.49033e-09
-6.56793e-17
1.31385e-09
-6.09413e-17
1.0931e-09
-5.30939e-17
8.27644e-10
-3.87376e-17
5.20607e-10
1.80311e-10
-6.47148e-17
1.80311e-10
-6.59833e-17
5.20607e-10
-4.68488e-17
8.27644e-10
-2.43258e-17
1.0931e-09
-5.46681e-18
1.31385e-09
5.56722e-18
1.49033e-09
8.19794e-18
1.62512e-09
3.44264e-18
1.7218e-09
-6.56535e-18
1.78391e-09
-1.9203e-17
1.8142e-09
-3.22958e-17
1.8142e-09
-4.43917e-17
1.78391e-09
-5.44182e-17
1.7218e-09
-6.14807e-17
1.62512e-09
-6.47481e-17
1.49033e-09
-6.33995e-17
1.31385e-09
-5.7723e-17
1.0931e-09
-4.81834e-17
8.27644e-10
-3.28745e-17
5.20607e-10
1.80311e-10
-8.36238e-17
1.80312e-10
-8.07363e-17
5.20607e-10
-5.56712e-17
8.27644e-10
-3.11809e-17
1.0931e-09
-1.18714e-17
1.31385e-09
-1.19701e-19
1.49033e-09
3.45364e-18
1.62512e-09
-2.64308e-19
1.7218e-09
-9.22273e-18
1.78391e-09
-2.08195e-17
1.8142e-09
-3.27155e-17
1.8142e-09
-4.33685e-17
1.78391e-09
-5.17804e-17
1.7218e-09
-5.69348e-17
1.62512e-09
-5.76116e-17
1.49033e-09
-5.28619e-17
1.31385e-09
-4.28392e-17
1.0931e-09
-2.7413e-17
8.27644e-10
-1.17949e-17
5.20607e-10
1.80311e-10
-8.43217e-17
1.80312e-10
-7.98178e-17
5.20607e-10
-5.40692e-17
8.27644e-10
-3.0807e-17
1.0931e-09
-1.33802e-17
1.31385e-09
-2.65528e-18
1.49033e-09
9.04545e-19
1.62512e-09
-2.20124e-18
1.7218e-09
-1.02024e-17
1.78391e-09
-2.062e-17
1.8142e-09
-3.1111e-17
1.8142e-09
-4.01567e-17
1.78391e-09
-4.67012e-17
1.7218e-09
-4.94852e-17
1.62512e-09
-4.70415e-17
1.49033e-09
-3.84403e-17
1.31385e-09
-2.34296e-17
1.0931e-09
-2.87876e-18
8.27644e-10
1.21134e-17
5.20607e-10
1.80311e-10
-6.02952e-17
1.80312e-10
-5.80456e-17
5.20607e-10
-3.89879e-17
8.27644e-10
-2.13033e-17
1.0931e-09
-8.43305e-18
1.31385e-09
-7.152e-19
1.49033e-09
1.30555e-18
1.62512e-09
-2.17887e-18
1.7218e-09
-9.71521e-18
1.78391e-09
-1.9085e-17
1.8142e-09
-2.81935e-17
1.8142e-09
-3.56464e-17
1.78391e-09
-4.03254e-17
1.7218e-09
-4.09722e-17
1.62512e-09
-3.62963e-17
1.49033e-09
-2.5501e-17
1.31385e-09
-7.73417e-18
1.0931e-09
1.32619e-17
8.27644e-10
2.55853e-17
5.20607e-10
1.80311e-10
-1.78962e-17
1.80312e-10
-2.01382e-17
5.20607e-10
-1.30648e-17
8.27644e-10
-4.67007e-18
1.0931e-09
1.62154e-18
1.31385e-09
4.82961e-18
1.49033e-09
4.02709e-18
1.62512e-09
-7.54239e-19
1.7218e-09
-8.31956e-18
1.78391e-09
-1.68325e-17
1.8142e-09
-2.45956e-17
1.8142e-09
-3.04366e-17
1.78391e-09
-3.34432e-17
1.7218e-09
-3.27607e-17
1.62512e-09
-2.7552e-17
1.49033e-09
-1.71375e-17
1.31385e-09
-7.05073e-19
1.0931e-09
1.54516e-17
8.27644e-10
2.32402e-17
5.20607e-10
1.80312e-10
2.36473e-17
1.80312e-10
1.92276e-17
5.20607e-10
1.49659e-17
8.27644e-10
1.34435e-17
1.0931e-09
1.27843e-17
1.31385e-09
1.11521e-17
1.49033e-09
7.23998e-18
1.62512e-09
9.57764e-19
1.7218e-09
-6.69088e-18
1.78391e-09
-1.42646e-17
1.8142e-09
-2.05063e-17
1.8142e-09
-2.46626e-17
1.78391e-09
-2.63506e-17
1.7218e-09
-2.52033e-17
1.62512e-09
-2.07545e-17
1.49033e-09
-1.26374e-17
1.31385e-09
-1.32018e-18
1.0931e-09
7.7298e-18
8.27644e-10
9.11856e-18
5.20607e-10
1.80312e-10
4.55524e-17
1.80312e-10
4.48444e-17
5.20607e-10
3.53461e-17
8.27644e-10
2.68495e-17
1.0931e-09
2.07544e-17
1.31385e-09
1.5305e-17
1.49033e-09
9.08329e-18
1.62512e-09
1.93685e-18
1.7218e-09
-5.27007e-18
1.78391e-09
-1.14539e-17
1.8142e-09
-1.58821e-17
1.8142e-09
-1.83851e-17
1.78391e-09
-1.90614e-17
1.7218e-09
-1.76573e-17
1.62512e-09
-1.39062e-17
1.49033e-09
-8.15533e-18
1.31385e-09
-2.57353e-18
1.0931e-09
5.70931e-19
8.27644e-10
-3.50299e-18
5.20607e-10
1.80312e-10
4.52336e-17
1.80312e-10
5.06208e-17
5.20607e-10
4.25286e-17
8.27644e-10
3.18822e-17
1.0931e-09
2.32159e-17
1.31385e-09
1.58899e-17
1.49033e-09
8.82543e-18
1.62512e-09
1.95759e-18
1.7218e-09
-3.96478e-18
1.78391e-09
-8.26134e-18
1.8142e-09
-1.07735e-17
1.8142e-09
-1.17822e-17
1.78391e-09
-1.1396e-17
1.7218e-09
-9.21799e-18
1.62512e-09
-5.094e-18
1.49033e-09
5.08825e-20
1.31385e-09
3.24821e-18
1.0931e-09
3.57816e-18
8.27644e-10
-2.10431e-18
5.20607e-10
1.80312e-10
3.06152e-17
1.80312e-10
4.03271e-17
5.20607e-10
3.66737e-17
8.27644e-10
2.82271e-17
1.0931e-09
2.02799e-17
1.31385e-09
1.33388e-17
1.49033e-09
7.05842e-18
1.62512e-09
1.63755e-18
1.7218e-09
-2.32729e-18
1.78391e-09
-4.59464e-18
1.8142e-09
-5.41948e-18
1.8142e-09
-5.15132e-18
1.78391e-09
-3.54958e-18
1.7218e-09
-1.0333e-19
1.62512e-09
5.25105e-18
1.49033e-09
1.17828e-17
1.31385e-09
1.68674e-17
1.0931e-09
1.85043e-17
8.27644e-10
1.49705e-17
5.20607e-10
1.80312e-10