/*--------------------------------*- C++ -*----------------------------------*\
| =========                 |                                                 |
| \\      /  F ield         | OpenFOAM: The Open Source CFD Toolbox           |
|  \\    /   O peration     | Version:  5.x                                   |
|   \\  /    A nd           | Web:      www.OpenFOAM.org                      |
|    \\/     M anipulation  |                                                 |
\*---------------------------------------------------------------------------*/
FoamFile
{
    version     2.0;
    format      ascii;
    class       volVectorField;
    location    "0.05";
    object      U;
}
// * * * * * * * * * * * * * * * * * * * * * * * * * * * * * * * * * * * * * //

dimensions      [0 1 -1 0 0 0 0];

internalField   nonuniform List<vector> 
8000
(
(-4.57889e-11 0.00360623 0)
(-3.16771e-10 0.0104121 0)
(-4.3462e-10 0.0165529 0)
(-4.49798e-10 0.021862 0)
(-4.07933e-10 0.026277 0)
(-3.43034e-10 0.0298065 0)
(-2.70087e-10 0.0325025 0)
(-1.94282e-10 0.0344361 0)
(-1.17094e-10 0.0356781 0)
(-3.90544e-11 0.036284 0)
(3.96096e-11 0.036284 0)
(1.18856e-10 0.0356781 0)
(1.98742e-10 0.0344361 0)
(2.7943e-10 0.0325025 0)
(3.60396e-10 0.0298065 0)
(4.3714e-10 0.026277 0)
(4.93084e-10 0.021862 0)
(4.86597e-10 0.0165529 0)
(3.6141e-10 0.0104121 0)
(5.6513e-11 0.00360623 0)
(-4.81151e-11 0.00360623 0)
(-3.99964e-10 0.0104121 0)
(-7.30854e-10 0.0165529 0)
(-8.6301e-10 0.021862 0)
(-8.49491e-10 0.026277 0)
(-7.55912e-10 0.0298065 0)
(-6.19126e-10 0.0325025 0)
(-4.57462e-10 0.0344361 0)
(-2.80562e-10 0.0356781 0)
(-9.47167e-11 0.036284 0)
(9.51429e-11 0.036284 0)
(2.84849e-10 0.0356781 0)
(4.70401e-10 0.0344361 0)
(6.47786e-10 0.0325025 0)
(8.10909e-10 0.0298065 0)
(9.44896e-10 0.026277 0)
(1.01185e-09 0.021862 0)
(9.30822e-10 0.0165529 0)
(6.12077e-10 0.0104121 0)
(1.14798e-10 0.00360623 0)
(2.83687e-11 0.00360623 0)
(-9.36068e-11 0.0104121 0)
(-5.38168e-10 0.0165529 0)
(-8.16032e-10 0.021862 0)
(-9.08895e-10 0.026277 0)
(-8.7163e-10 0.0298065 0)
(-7.49013e-10 0.0325025 0)
(-5.70926e-10 0.0344361 0)
(-3.57404e-10 0.0356781 0)
(-1.23166e-10 0.036284 0)
(1.19689e-10 0.036284 0)
(3.60348e-10 0.0356781 0)
(5.88338e-10 0.0344361 0)
(7.93229e-10 0.0325025 0)
(9.62217e-10 0.0298065 0)
(1.07419e-09 0.026277 0)
(1.08935e-09 0.021862 0)
(9.45294e-10 0.0165529 0)
(6.09231e-10 0.0104121 0)
(1.66479e-10 0.00360623 0)
(1.21076e-10 0.00360623 0)
(1.00092e-10 0.0104121 0)
(-3.64435e-10 0.0165529 0)
(-7.14998e-10 0.021862 0)
(-8.79142e-10 0.026277 0)
(-8.91232e-10 0.0298065 0)
(-7.92557e-10 0.0325025 0)
(-6.17616e-10 0.0344361 0)
(-3.93088e-10 0.0356781 0)
(-1.39736e-10 0.036284 0)
(1.2521e-10 0.036284 0)
(3.86101e-10 0.0356781 0)
(6.28195e-10 0.0344361 0)
(8.37171e-10 0.0325025 0)
(9.97044e-10 0.0298065 0)
(1.08579e-09 0.026277 0)
(1.07088e-09 0.021862 0)
(9.21053e-10 0.0165529 0)
(6.51458e-10 0.0104121 0)
(1.7306e-10 0.00360623 0)
(9.4834e-11 0.00360623 0)
(2.90063e-11 0.0104121 0)
(-4.00937e-10 0.0165529 0)
(-7.4378e-10 0.021862 0)
(-9.19374e-10 0.026277 0)
(-9.43639e-10 0.0298065 0)
(-8.48628e-10 0.0325025 0)
(-6.67756e-10 0.0344361 0)
(-4.30033e-10 0.0356781 0)
(-1.59324e-10 0.036284 0)
(1.24159e-10 0.036284 0)
(4.0215e-10 0.0356781 0)
(6.57487e-10 0.0344361 0)
(8.72986e-10 0.0325025 0)
(1.02996e-09 0.0298065 0)
(1.10551e-09 0.026277 0)
(1.07329e-09 0.021862 0)
(9.22591e-10 0.0165529 0)
(6.87684e-10 0.0104121 0)
(1.84913e-10 0.00360623 0)
(-1.75579e-11 0.00360623 0)
(-2.6747e-10 0.0104121 0)
(-6.16768e-10 0.0165529 0)
(-8.90315e-10 0.021862 0)
(-1.02805e-09 0.026277 0)
(-1.03111e-09 0.0298065 0)
(-9.20754e-10 0.0325025 0)
(-7.24978e-10 0.0344361 0)
(-4.70867e-10 0.0356781 0)
(-1.82463e-10 0.036284 0)
(1.18757e-10 0.036284 0)
(4.13199e-10 0.0356781 0)
(6.81641e-10 0.0344361 0)
(9.03977e-10 0.0325025 0)
(1.05845e-09 0.0298065 0)
(1.1195e-09 0.026277 0)
(1.06112e-09 0.021862 0)
(8.78811e-10 0.0165529 0)
(6.09788e-10 0.0104121 0)
(1.41318e-10 0.00360623 0)
(-1.79305e-10 0.00360623 0)
(-6.9918e-10 0.0104121 0)
(-9.37964e-10 0.0165529 0)
(-1.10522e-09 0.021862 0)
(-1.1746e-09 0.026277 0)
(-1.13489e-09 0.0298065 0)
(-9.97271e-10 0.0325025 0)
(-7.81886e-10 0.0344361 0)
(-5.10947e-10 0.0356781 0)
(-2.06381e-10 0.036284 0)
(1.10527e-10 0.036284 0)
(4.19257e-10 0.0356781 0)
(6.98791e-10 0.0344361 0)
(9.26387e-10 0.0325025 0)
(1.07645e-09 0.0298065 0)
(1.11987e-09 0.026277 0)
(1.0281e-09 0.021862 0)
(7.91824e-10 0.0165529 0)
(4.48018e-10 0.0104121 0)
(5.94611e-11 0.00360623 0)
(-3.40635e-10 0.00360623 0)
(-1.11928e-09 0.0104121 0)
(-1.24933e-09 0.0165529 0)
(-1.31677e-09 0.021862 0)
(-1.31573e-09 0.026277 0)
(-1.23052e-09 0.0298065 0)
(-1.06488e-09 0.0325025 0)
(-8.3104e-10 0.0344361 0)
(-5.45573e-10 0.0356781 0)
(-2.27768e-10 0.036284 0)
(1.01749e-10 0.036284 0)
(4.2195e-10 0.0356781 0)
(7.10309e-10 0.0344361 0)
(9.41309e-10 0.0325025 0)
(1.08632e-09 0.0298065 0)
(1.11534e-09 0.026277 0)
(1.00141e-09 0.021862 0)
(7.27898e-10 0.0165529 0)
(3.26963e-10 0.0104121 0)
(3.39877e-13 0.00360623 0)
(-4.35008e-10 0.00360623 0)
(-1.37192e-09 0.0104121 0)
(-1.44374e-09 0.0165529 0)
(-1.45294e-09 0.021862 0)
(-1.40684e-09 0.026277 0)
(-1.29198e-09 0.0298065 0)
(-1.10813e-09 0.0325025 0)
(-8.62901e-10 0.0344361 0)
(-5.69112e-10 0.0356781 0)
(-2.43577e-10 0.036284 0)
(9.39258e-11 0.036284 0)
(4.21687e-10 0.0356781 0)
(7.15403e-10 0.0344361 0)
(9.47779e-10 0.0325025 0)
(1.08992e-09 0.0298065 0)
(1.11543e-09 0.026277 0)
(1.00618e-09 0.021862 0)
(7.40753e-10 0.0165529 0)
(3.43507e-10 0.0104121 0)
(8.14261e-12 0.00360623 0)
(-4.1466e-10 0.00360623 0)
(-1.3499e-09 0.0104121 0)
(-1.4495e-09 0.0165529 0)
(-1.46756e-09 0.021862 0)
(-1.41919e-09 0.026277 0)
(-1.30099e-09 0.0298065 0)
(-1.1163e-09 0.0325025 0)
(-8.71743e-10 0.0344361 0)
(-5.7872e-10 0.0356781 0)
(-2.5274e-10 0.036284 0)
(8.66538e-11 0.036284 0)
(4.16489e-10 0.0356781 0)
(7.11211e-10 0.0344361 0)
(9.43388e-10 0.0325025 0)
(1.08695e-09 0.0298065 0)
(1.12312e-09 0.026277 0)
(1.04386e-09 0.021862 0)
(8.29832e-10 0.0165529 0)
(4.96563e-10 0.0104121 0)
(7.87727e-11 0.00360623 0)
(-2.90416e-10 0.00360623 0)
(-1.07535e-09 0.0104121 0)
(-1.2792e-09 0.0165529 0)
(-1.36623e-09 0.021862 0)
(-1.35593e-09 0.026277 0)
(-1.26004e-09 0.0298065 0)
(-1.0917e-09 0.0325025 0)
(-8.60099e-10 0.0344361 0)
(-5.76487e-10 0.0356781 0)
(-2.5707e-10 0.036284 0)
(7.75718e-11 0.036284 0)
(4.03276e-10 0.0356781 0)
(6.93733e-10 0.0344361 0)
(9.23042e-10 0.0325025 0)
(1.07106e-09 0.0298065 0)
(1.12812e-09 0.026277 0)
(1.0914e-09 0.021862 0)
(9.47366e-10 0.0165529 0)
(7.01311e-10 0.0104121 0)
(1.70419e-10 0.00360623 0)
(-1.28069e-10 0.00360623 0)
(-6.9072e-10 0.0104121 0)
(-1.0205e-09 0.0165529 0)
(-1.20186e-09 0.021862 0)
(-1.24929e-09 0.026277 0)
(-1.1911e-09 0.0298065 0)
(-1.04855e-09 0.0325025 0)
(-8.36022e-10 0.0344361 0)
(-5.67378e-10 0.0356781 0)
(-2.60316e-10 0.036284 0)
(6.33266e-11 0.036284 0)
(3.78188e-10 0.0356781 0)
(6.58259e-10 0.0344361 0)
(8.81883e-10 0.0325025 0)
(1.03607e-09 0.0298065 0)
(1.11572e-09 0.026277 0)
(1.11559e-09 0.021862 0)
(1.02915e-09 0.0165529 0)
(8.56219e-10 0.0104121 0)
(2.37838e-10 0.00360623 0)
(-9.54569e-12 0.00360623 0)
(-3.84434e-10 0.0104121 0)
(-7.91912e-10 0.0165529 0)
(-1.04345e-09 0.021862 0)
(-1.13901e-09 0.026277 0)
(-1.11565e-09 0.0298065 0)
(-9.98374e-10 0.0325025 0)
(-8.05917e-10 0.0344361 0)
(-5.55048e-10 0.0356781 0)
(-2.64934e-10 0.036284 0)
(4.13965e-11 0.036284 0)
(3.38403e-10 0.0356781 0)
(6.02615e-10 0.0344361 0)
(8.17201e-10 0.0325025 0)
(9.73004e-10 0.0298065 0)
(1.06569e-09 0.026277 0)
(1.08798e-09 0.021862 0)
(1.04267e-09 0.0165529 0)
(9.26397e-10 0.0104121 0)
(2.7111e-10 0.00360623 0)
(1.54676e-11 0.00360623 0)
(-2.74338e-10 0.0104121 0)
(-6.65188e-10 0.0165529 0)
(-9.26079e-10 0.021862 0)
(-1.0418e-09 0.026277 0)
(-1.04005e-09 0.0298065 0)
(-9.42915e-10 0.0325025 0)
(-7.69896e-10 0.0344361 0)
(-5.39047e-10 0.0356781 0)
(-2.70287e-10 0.036284 0)
(1.28854e-11 0.036284 0)
(2.85986e-10 0.0356781 0)
(5.28562e-10 0.0344361 0)
(7.2677e-10 0.0325025 0)
(8.72156e-10 0.0298065 0)
(9.58485e-10 0.026277 0)
(9.82573e-10 0.021862 0)
(9.66326e-10 0.0165529 0)
(9.08572e-10 0.0104121 0)
(2.80143e-10 0.00360623 0)
(-5.85873e-11 0.00360623 0)
(-3.47244e-10 0.0104121 0)
(-6.22774e-10 0.0165529 0)
(-8.34934e-10 0.021862 0)
(-9.45042e-10 0.026277 0)
(-9.52457e-10 0.0298065 0)
(-8.71872e-10 0.0325025 0)
(-7.19656e-10 0.0344361 0)
(-5.12598e-10 0.0356781 0)
(-2.70635e-10 0.036284 0)
(-1.71448e-11 0.036284 0)
(2.25098e-10 0.0356781 0)
(4.37783e-10 0.0344361 0)
(6.06907e-10 0.0325025 0)
(7.21253e-10 0.0298065 0)
(7.73919e-10 0.026277 0)
(7.70965e-10 0.021862 0)
(7.56568e-10 0.0165529 0)
(7.48486e-10 0.0104121 0)
(2.52277e-10 0.00360623 0)
(-4.30314e-11 0.00360623 0)
(-3.10678e-10 0.0104121 0)
(-5.47079e-10 0.0165529 0)
(-7.21608e-10 0.021862 0)
(-8.20099e-10 0.026277 0)
(-8.33092e-10 0.0298065 0)
(-7.70314e-10 0.0325025 0)
(-6.43818e-10 0.0344361 0)
(-4.67454e-10 0.0356781 0)
(-2.60192e-10 0.036284 0)
(-4.43288e-11 0.036284 0)
(1.58781e-10 0.0356781 0)
(3.31116e-10 0.0344361 0)
(4.56701e-10 0.0325025 0)
(5.19666e-10 0.0298065 0)
(5.10164e-10 0.026277 0)
(4.3838e-10 0.021862 0)
(3.53992e-10 0.0165529 0)
(2.99116e-10 0.0104121 0)
(1.03782e-10 0.00360623 0)
(-7.72707e-11 0.00360623 0)
(-3.34043e-10 0.0104121 0)
(-4.71711e-10 0.0165529 0)
(-5.8036e-10 0.021862 0)
(-6.54433e-10 0.026277 0)
(-6.72416e-10 0.0298065 0)
(-6.32107e-10 0.0325025 0)
(-5.38012e-10 0.0344361 0)
(-4.00394e-10 0.0356781 0)
(-2.36516e-10 0.036284 0)
(-6.6436e-11 0.036284 0)
(9.04175e-11 0.0356781 0)
(2.15256e-10 0.0344361 0)
(2.87969e-10 0.0325025 0)
(2.88672e-10 0.0298065 0)
(2.05023e-10 0.026277 0)
(4.20914e-11 0.021862 0)
(-1.90114e-10 0.0165529 0)
(-4.94133e-10 0.0104121 0)
(-2.62785e-10 0.00360623 0)
(-1.37684e-10 0.00360623 0)
(-3.8988e-10 0.0104121 0)
(-3.84476e-10 0.0165529 0)
(-4.02853e-10 0.021862 0)
(-4.44679e-10 0.026277 0)
(-4.70227e-10 0.0298065 0)
(-4.58291e-10 0.0325025 0)
(-4.04204e-10 0.0344361 0)
(-3.1366e-10 0.0356781 0)
(-2.00812e-10 0.036284 0)
(-8.25558e-11 0.036284 0)
(2.35158e-11 0.0356781 0)
(9.80817e-11 0.0344361 0)
(1.20003e-10 0.0325025 0)
(6.9182e-11 0.0298065 0)
(-6.39823e-11 0.026277 0)
(-2.67239e-10 0.021862 0)
(-5.29211e-10 0.0165529 0)
(-8.09972e-10 0.0104121 0)
(-3.38447e-10 0.00360623 0)
(-1.85904e-10 0.00360623 0)
(-3.55022e-10 0.0104121 0)
(-2.01374e-10 0.0165529 0)
(-1.49112e-10 0.021862 0)
(-1.77832e-10 0.026277 0)
(-2.25056e-10 0.0298065 0)
(-2.52573e-10 0.0325025 0)
(-2.48301e-10 0.0344361 0)
(-2.12752e-10 0.0356781 0)
(-1.56051e-10 0.036284 0)
(-9.24424e-11 0.036284 0)
(-3.80923e-11 0.0356781 0)
(-1.09454e-11 0.0344361 0)
(-2.99891e-11 0.0325025 0)
(-1.11073e-10 0.0298065 0)
(-2.51511e-10 0.026277 0)
(-4.19094e-10 0.021862 0)
(-5.7572e-10 0.0165529 0)
(-6.42655e-10 0.0104121 0)
(-2.03454e-10 0.00360623 0)
(-9.95872e-13 0.00360623 0)
(1.28891e-10 0.0104121 0)
(2.20535e-10 0.0165529 0)
(2.21559e-10 0.021862 0)
(1.51155e-10 0.026277 0)
(5.67528e-11 0.0298065 0)
(-2.53331e-11 0.0325025 0)
(-7.9074e-11 0.0344361 0)
(-1.02303e-10 0.0356781 0)
(-1.03314e-10 0.036284 0)
(-9.44106e-11 0.036284 0)
(-8.94331e-11 0.0356781 0)
(-1.04406e-10 0.0344361 0)
(-1.55601e-10 0.0325025 0)
(-2.50957e-10 0.0298065 0)
(-3.71962e-10 0.026277 0)
(-4.69389e-10 0.021862 0)
(-4.82916e-10 0.0165529 0)
(-3.22428e-10 0.0104121 0)
(-3.20506e-11 0.00360623 0)
(3.50243e-10 0.00360623 0)
(9.14831e-10 0.0104121 0)
(7.9096e-10 0.0165529 0)
(6.53108e-10 0.021862 0)
(5.0252e-10 0.026277 0)
(3.48184e-10 0.0298065 0)
(2.08128e-10 0.0325025 0)
(9.56802e-11 0.0344361 0)
(1.42218e-11 0.0356781 0)
(-4.20655e-11 0.036284 0)
(-8.39252e-11 0.036284 0)
(-1.23777e-10 0.0356781 0)
(-1.75922e-10 0.0344361 0)
(-2.54225e-10 0.0325025 0)
(-3.60099e-10 0.0298065 0)
(-4.68161e-10 0.026277 0)
(-5.23987e-10 0.021862 0)
(-4.49442e-10 0.0165529 0)
(-1.43698e-10 0.0104121 0)
(8.18029e-11 0.00360623 0)
(4.39707e-10 0.00360623 0)
(1.28155e-09 0.0104121 0)
(1.19866e-09 0.0165529 0)
(1.02472e-09 0.021862 0)
(8.23637e-10 0.026277 0)
(6.1753e-10 0.0298065 0)
(4.26499e-10 0.0325025 0)
(2.63449e-10 0.0344361 0)
(1.3218e-10 0.0356781 0)
(2.89146e-11 0.036284 0)
(-5.49563e-11 0.036284 0)
(-1.30835e-10 0.0356781 0)
(-2.13342e-10 0.0344361 0)
(-3.16479e-10 0.0325025 0)
(-4.41215e-10 0.0298065 0)
(-5.69187e-10 0.026277 0)
(-6.67026e-10 0.021862 0)
(-6.80793e-10 0.0165529 0)
(-5.61691e-10 0.0104121 0)
(-1.41935e-10 0.00360623 0)
(3.23436e-10 0.00360623 0)
(1.22836e-09 0.0104121 0)
(1.37871e-09 0.0165529 0)
(1.28176e-09 0.021862 0)
(1.08078e-09 0.026277 0)
(8.41871e-10 0.0298065 0)
(6.12727e-10 0.0325025 0)
(4.12012e-10 0.0344361 0)
(2.45246e-10 0.0356781 0)
(1.1037e-10 0.036284 0)
(-1.33885e-14 0.036284 0)
(-9.85891e-11 0.0356781 0)
(-2.02589e-10 0.0344361 0)
(-3.28003e-10 0.0325025 0)
(-4.81415e-10 0.0298065 0)
(-6.57959e-10 0.026277 0)
(-8.37305e-10 0.021862 0)
(-9.67319e-10 0.0165529 0)
(-1.02904e-09 0.0104121 0)
(-3.51479e-10 0.00360623 0)
(2.86184e-10 0.00360623 0)
(1.20525e-09 0.0104121 0)
(1.47514e-09 0.0165529 0)
(1.45808e-09 0.021862 0)
(1.27231e-09 0.026277 0)
(1.00697e-09 0.0298065 0)
(7.50498e-10 0.0325025 0)
(5.28986e-10 0.0344361 0)
(3.46434e-10 0.0356781 0)
(2.00633e-10 0.036284 0)
(8.25075e-11 0.036284 0)
(-2.39918e-11 0.0356781 0)
(-1.38622e-10 0.0344361 0)
(-2.79001e-10 0.0325025 0)
(-4.57706e-10 0.0298065 0)
(-6.79808e-10 0.026277 0)
(-9.23479e-10 0.021862 0)
(-1.12805e-09 0.0165529 0)
(-1.26783e-09 0.0104121 0)
(-4.48361e-10 0.00360623 0)
(3.3727e-10 0.00360623 0)
(1.33489e-09 0.0104121 0)
(1.5764e-09 0.0165529 0)
(1.56897e-09 0.021862 0)
(1.37641e-09 0.026277 0)
(1.08807e-09 0.0298065 0)
(8.18549e-10 0.0325025 0)
(5.99093e-10 0.0344361 0)
(4.25046e-10 0.0356781 0)
(2.89941e-10 0.036284 0)
(1.81467e-10 0.036284 0)
(8.11891e-11 0.0356781 0)
(-3.05073e-11 0.0344361 0)
(-1.69376e-10 0.0325025 0)
(-3.46979e-10 0.0298065 0)
(-5.67212e-10 0.026277 0)
(-8.02808e-10 0.021862 0)
(-9.93081e-10 0.0165529 0)
(-1.09625e-09 0.0104121 0)
(-3.69148e-10 0.00360623 0)
(6.01549e-10 0.00360623 0)
(1.70972e-09 0.0104121 0)
(1.62761e-09 0.0165529 0)
(1.52183e-09 0.021862 0)
(1.31542e-09 0.026277 0)
(1.04107e-09 0.0298065 0)
(7.94714e-10 0.0325025 0)
(6.07274e-10 0.0344361 0)
(4.66759e-10 0.0356781 0)
(3.6143e-10 0.036284 0)
(2.76788e-10 0.036284 0)
(1.95601e-10 0.0356781 0)
(1.03134e-10 0.0344361 0)
(-9.06554e-12 0.0325025 0)
(-1.43106e-10 0.0298065 0)
(-2.92371e-10 0.026277 0)
(-4.35478e-10 0.021862 0)
(-5.50178e-10 0.0165529 0)
(-6.42567e-10 0.0104121 0)
(-2.28149e-10 0.00360623 0)
(7.1751e-10 0.00360623 0)
(1.65984e-09 0.0104121 0)
(1.26886e-09 0.0165529 0)
(1.10996e-09 0.021862 0)
(9.83719e-10 0.026277 0)
(8.21636e-10 0.0298065 0)
(6.63815e-10 0.0325025 0)
(5.43854e-10 0.0344361 0)
(4.59649e-10 0.0356781 0)
(3.99157e-10 0.036284 0)
(3.49535e-10 0.036284 0)
(2.99157e-10 0.0356781 0)
(2.42697e-10 0.0344361 0)
(1.83898e-10 0.0325025 0)
(1.34814e-10 0.0298065 0)
(1.12819e-10 0.026277 0)
(1.23627e-10 0.021862 0)
(1.21097e-10 0.0165529 0)
(2.87965e-11 0.0104121 0)
(-3.02699e-11 0.00360623 0)
(1.1025e-10 0.00360623 0)
(4.22405e-10 0.0104121 0)
(3.49934e-10 0.0165529 0)
(3.30941e-10 0.021862 0)
(3.96267e-10 0.026277 0)
(4.38412e-10 0.0298065 0)
(4.30296e-10 0.0325025 0)
(4.11613e-10 0.0344361 0)
(4.00484e-10 0.0356781 0)
(3.9477e-10 0.036284 0)
(3.88241e-10 0.036284 0)
(3.78047e-10 0.0356781 0)
(3.70217e-10 0.0344361 0)
(3.81968e-10 0.0325025 0)
(4.38483e-10 0.0298065 0)
(5.6216e-10 0.026277 0)
(7.45156e-10 0.021862 0)
(8.96797e-10 0.0165529 0)
(9.24316e-10 0.0104121 0)
(2.96045e-10 0.00360623 0)
(-1.65834e-10 0.00360623 0)
(-5.16351e-10 0.0104121 0)
(-5.08095e-10 0.0165529 0)
(-4.18241e-10 0.021862 0)
(-2.22633e-10 0.026277 0)
(-6.31978e-12 0.0298065 0)
(1.40734e-10 0.0325025 0)
(2.31405e-10 0.0344361 0)
(2.97262e-10 0.0356781 0)
(3.4882e-10 0.036284 0)
(3.88341e-10 0.036284 0)
(4.21808e-10 0.0356781 0)
(4.6505e-10 0.0344361 0)
(5.4493e-10 0.0325025 0)
(6.92678e-10 0.0298065 0)
(9.28497e-10 0.026277 0)
(1.23613e-09 0.021862 0)
(1.52323e-09 0.0165529 0)
(1.71338e-09 0.0104121 0)
(6.06043e-10 0.00360623 0)
(-5.11654e-10 0.00360623 0)
(-1.46022e-09 0.0104121 0)
(-1.2465e-09 0.0165529 0)
(-9.82643e-10 0.021862 0)
(-7.0047e-10 0.026277 0)
(-3.9858e-10 0.0298065 0)
(-1.47978e-10 0.0325025 0)
(3.32913e-11 0.0344361 0)
(1.66532e-10 0.0356781 0)
(2.69075e-10 0.036284 0)
(3.50108e-10 0.036284 0)
(4.21837e-10 0.0356781 0)
(5.05351e-10 0.0344361 0)
(6.29709e-10 0.0325025 0)
(8.22384e-10 0.0298065 0)
(1.0935e-09 0.026277 0)
(1.41726e-09 0.021862 0)
(1.73375e-09 0.0165529 0)
(1.9935e-09 0.0104121 0)
(7.1744e-10 0.00360623 0)
(-8.0614e-10 0.00360623 0)
(-2.1472e-09 0.0104121 0)
(-1.72702e-09 0.0165529 0)
(-1.32742e-09 0.021862 0)
(-9.83703e-10 0.026277 0)
(-6.54177e-10 0.0298065 0)
(-3.67619e-10 0.0325025 0)
(-1.41403e-10 0.0344361 0)
(3.40205e-11 0.0356781 0)
(1.71326e-10 0.036284 0)
(2.80945e-10 0.036284 0)
(3.77129e-10 0.0356781 0)
(4.80414e-10 0.0344361 0)
(6.14132e-10 0.0325025 0)
(7.93812e-10 0.0298065 0)
(1.01294e-09 0.026277 0)
(1.23316e-09 0.021862 0)
(1.42973e-09 0.0165529 0)
(1.57135e-09 0.0104121 0)
(5.38664e-10 0.00360623 0)
(-8.15072e-10 0.00360623 0)
(-2.17485e-09 0.0104121 0)
(-1.76126e-09 0.0165529 0)
(-1.37624e-09 0.021862 0)
(-1.0541e-09 0.026277 0)
(-7.5431e-10 0.0298065 0)
(-4.85362e-10 0.0325025 0)
(-2.57754e-10 0.0344361 0)
(-7.1379e-11 0.0356781 0)
(7.7752e-11 0.036284 0)
(1.97242e-10 0.036284 0)
(2.9953e-10 0.0356781 0)
(3.99727e-10 0.0344361 0)
(5.10232e-10 0.0325025 0)
(6.31282e-10 0.0298065 0)
(7.38917e-10 0.026277 0)
(7.86458e-10 0.021862 0)
(7.56897e-10 0.0165529 0)
(6.29633e-10 0.0104121 0)
(1.4741e-10 0.00360623 0)
(-5.26479e-10 0.00360623 0)
(-1.51988e-09 0.0104121 0)
(-1.34796e-09 0.0165529 0)
(-1.1353e-09 0.021862 0)
(-9.24134e-10 0.026277 0)
(-7.05008e-10 0.0298065 0)
(-4.91475e-10 0.0325025 0)
(-2.96241e-10 0.0344361 0)
(-1.28286e-10 0.0356781 0)
(8.57492e-12 0.036284 0)
(1.18135e-10 0.036284 0)
(2.08634e-10 0.0356781 0)
(2.87312e-10 0.0344361 0)
(3.54981e-10 0.0325025 0)
(3.99427e-10 0.0298065 0)
(3.87545e-10 0.026277 0)
(2.7616e-10 0.021862 0)
(3.78947e-11 0.0165529 0)
(-3.21786e-10 0.0104121 0)
(-2.23242e-10 0.00360623 0)
(-1.32454e-10 0.00360623 0)
(-5.56636e-10 0.0104121 0)
(-6.87376e-10 0.0165529 0)
(-7.14105e-10 0.021862 0)
(-6.56969e-10 0.026277 0)
(-5.43255e-10 0.0298065 0)
(-4.03289e-10 0.0325025 0)
(-2.60693e-10 0.0344361 0)
(-1.32674e-10 0.0356781 0)
(-2.75062e-11 0.036284 0)
(5.58601e-11 0.036284 0)
(1.21052e-10 0.0356781 0)
(1.67985e-10 0.0344361 0)
(1.89424e-10 0.0325025 0)
(1.68483e-10 0.0298065 0)
(7.78934e-11 0.026277 0)
(-1.08291e-10 0.021862 0)
(-4.10361e-10 0.0165529 0)
(-7.87329e-10 0.0104121 0)
(-3.5965e-10 0.00360623 0)
(1.93917e-10 0.00360623 0)
(2.83982e-10 0.0104121 0)
(-6.60254e-11 0.0165529 0)
(-2.80619e-10 0.021862 0)
(-3.49089e-10 0.026277 0)
(-3.27327e-10 0.0298065 0)
(-2.58286e-10 0.0325025 0)
(-1.74469e-10 0.0344361 0)
(-9.71223e-11 0.0356781 0)
(-3.48321e-11 0.036284 0)
(1.25906e-11 0.036284 0)
(4.5324e-11 0.0356781 0)
(5.85745e-11 0.0344361 0)
(4.19414e-11 0.0325025 0)
(-1.80827e-11 0.0298065 0)
(-1.30633e-10 0.026277 0)
(-2.94157e-10 0.021862 0)
(-4.93149e-10 0.0165529 0)
(-6.61514e-10 0.0104121 0)
(-2.37969e-10 0.00360623 0)
(3.47573e-10 0.00360623 0)
(6.96503e-10 0.0104121 0)
(2.87618e-10 0.0165529 0)
(2.43031e-11 0.021862 0)
(-8.75338e-11 0.026277 0)
(-1.13762e-10 0.0298065 0)
(-9.64341e-11 0.0325025 0)
(-6.56641e-11 0.0344361 0)
(-3.93382e-11 0.0356781 0)
(-2.23992e-11 0.036284 0)
(-1.36789e-11 0.036284 0)
(-1.46688e-11 0.0356781 0)
(-3.23568e-11 0.0344361 0)
(-7.7279e-11 0.0325025 0)
(-1.55171e-10 0.0298065 0)
(-2.54221e-10 0.026277 0)
(-3.45768e-10 0.021862 0)
(-3.77164e-10 0.0165529 0)
(-2.73767e-10 0.0104121 0)
(-2.71033e-11 0.00360623 0)
(2.14295e-10 0.00360623 0)
(5.12648e-10 0.0104121 0)
(3.13614e-10 0.0165529 0)
(1.69513e-10 0.021862 0)
(1.01017e-10 0.026277 0)
(7.25572e-11 0.0298065 0)
(6.09222e-11 0.0325025 0)
(4.96787e-11 0.0344361 0)
(3.08305e-11 0.0356781 0)
(5.8261e-12 0.036284 0)
(-2.20747e-11 0.036284 0)
(-5.49724e-11 0.0356781 0)
(-1.01021e-10 0.0344361 0)
(-1.69926e-10 0.0325025 0)
(-2.59462e-10 0.0298065 0)
(-3.42054e-10 0.026277 0)
(-3.72246e-10 0.021862 0)
(-2.86615e-10 0.0165529 0)
(-2.86471e-11 0.0104121 0)
(8.90177e-11 0.00360623 0)
(7.84254e-12 0.00360623 0)
(1.28634e-10 0.0104121 0)
(2.15055e-10 0.0165529 0)
(2.57273e-10 0.021862 0)
(2.65551e-10 0.026277 0)
(2.51249e-10 0.0298065 0)
(2.20266e-10 0.0325025 0)
(1.73641e-10 0.0344361 0)
(1.1511e-10 0.0356781 0)
(5.28022e-11 0.036284 0)
(-8.43808e-12 0.036284 0)
(-7.17183e-11 0.0356781 0)
(-1.46275e-10 0.0344361 0)
(-2.4063e-10 0.0325025 0)
(-3.47393e-10 0.0298065 0)
(-4.31371e-10 0.026277 0)
(-4.45179e-10 0.021862 0)
(-3.51075e-10 0.0165529 0)
(-1.3679e-10 0.0104121 0)
(2.12614e-11 0.00360623 0)
(-9.07495e-11 0.00360623 0)
(-2.55137e-11 0.0104121 0)
(2.51528e-10 0.0165529 0)
(4.21871e-10 0.021862 0)
(4.76019e-10 0.026277 0)
(4.5789e-10 0.0298065 0)
(3.99477e-10 0.0325025 0)
(3.1578e-10 0.0344361 0)
(2.19238e-10 0.0356781 0)
(1.2221e-10 0.036284 0)
(2.90918e-11 0.036284 0)
(-6.52186e-11 0.0356781 0)
(-1.70501e-10 0.0344361 0)
(-2.93537e-10 0.0325025 0)
(-4.23168e-10 0.0298065 0)
(-5.20032e-10 0.026277 0)
(-5.46917e-10 0.021862 0)
(-5.09096e-10 0.0165529 0)
(-4.35606e-10 0.0104121 0)
(-1.34456e-10 0.00360623 0)
(-1.42727e-11 0.00360623 0)
(2.41439e-10 0.0104121 0)
(5.48175e-10 0.0165529 0)
(7.2481e-10 0.021862 0)
(7.61368e-10 0.026277 0)
(7.06472e-10 0.0298065 0)
(6.04629e-10 0.0325025 0)
(4.78233e-10 0.0344361 0)
(3.42906e-10 0.0356781 0)
(2.11124e-10 0.036284 0)
(8.47094e-11 0.036284 0)
(-4.33277e-11 0.0356781 0)
(-1.81771e-10 0.0344361 0)
(-3.33974e-10 0.0325025 0)
(-4.80834e-10 0.0298065 0)
(-5.76755e-10 0.026277 0)
(-5.99397e-10 0.021862 0)
(-5.8291e-10 0.0165529 0)
(-5.8044e-10 0.0104121 0)
(-2.10171e-10 0.00360623 0)
(2.72282e-10 0.00360623 0)
(9.0738e-10 0.0104121 0)
(1.05019e-09 0.0165529 0)
(1.11726e-09 0.021862 0)
(1.08634e-09 0.026277 0)
(9.75271e-10 0.0298065 0)
(8.21738e-10 0.0325025 0)
(6.50221e-10 0.0344361 0)
(4.75757e-10 0.0356781 0)
(3.07554e-10 0.036284 0)
(1.44435e-10 0.036284 0)
(-2.07891e-11 0.0356781 0)
(-1.94073e-10 0.0344361 0)
(-3.71038e-10 0.0325025 0)
(-5.16747e-10 0.0298065 0)
(-5.79728e-10 0.026277 0)
(-5.49682e-10 0.021862 0)
(-4.59454e-10 0.0165529 0)
(-3.60473e-10 0.0104121 0)
(-1.07084e-10 0.00360623 0)
(3.96086e-10 0.00360623 0)
(1.29442e-09 0.0104121 0)
(1.42301e-09 0.0165529 0)
(1.4431e-09 0.021862 0)
(1.36822e-09 0.026277 0)
(1.21684e-09 0.0298065 0)
(1.02226e-09 0.0325025 0)
(8.11212e-10 0.0344361 0)
(5.99457e-10 0.0356781 0)
(3.93363e-10 0.036284 0)
(1.90861e-10 0.036284 0)
(-1.37588e-11 0.0356781 0)
(-2.22137e-10 0.0344361 0)
(-4.1538e-10 0.0325025 0)
(-5.39712e-10 0.0298065 0)
(-5.46819e-10 0.026277 0)
(-4.32025e-10 0.021862 0)
(-2.04041e-10 0.0165529 0)
(9.57036e-11 0.0104121 0)
(1.0695e-10 0.00360623 0)
(2.32579e-10 0.00360623 0)
(1.1359e-09 0.0104121 0)
(1.50342e-09 0.0165529 0)
(1.61046e-09 0.021862 0)
(1.55106e-09 0.026277 0)
(1.3917e-09 0.0298065 0)
(1.1769e-09 0.0325025 0)
(9.37607e-10 0.0344361 0)
(6.93527e-10 0.0356781 0)
(4.51695e-10 0.036284 0)
(2.10848e-10 0.036284 0)
(-3.29487e-11 0.0356781 0)
(-2.7414e-10 0.0344361 0)
(-4.73426e-10 0.0325025 0)
(-5.67708e-10 0.0298065 0)
(-5.26768e-10 0.026277 0)
(-3.50082e-10 0.021862 0)
(-2.62161e-11 0.0165529 0)
(4.10373e-10 0.0104121 0)
(2.52868e-10 0.00360623 0)
(2.05271e-10 0.00360623 0)
(1.05699e-09 0.0104121 0)
(1.49456e-09 0.0165529 0)
(1.66847e-09 0.021862 0)
(1.63964e-09 0.026277 0)
(1.48983e-09 0.0298065 0)
(1.27011e-09 0.0325025 0)
(1.01406e-09 0.0344361 0)
(7.45529e-10 0.0356781 0)
(4.74408e-10 0.036284 0)
(1.99495e-10 0.036284 0)
(-8.06709e-11 0.0356781 0)
(-3.46974e-10 0.0344361 0)
(-5.42453e-10 0.0325025 0)
(-6.14616e-10 0.0298065 0)
(-5.612e-10 0.026277 0)
(-3.90711e-10 0.021862 0)
(-9.07147e-11 0.0165529 0)
(2.90985e-10 0.0104121 0)
(1.90594e-10 0.00360623 0)
(2.73884e-10 0.00360623 0)
(1.09943e-09 0.0104121 0)
(1.46431e-09 0.0165529 0)
(1.64914e-09 0.021862 0)
(1.64754e-09 0.026277 0)
(1.51536e-09 0.0298065 0)
(1.30057e-09 0.0325025 0)
(1.03755e-09 0.0344361 0)
(7.53759e-10 0.0356781 0)
(4.61613e-10 0.036284 0)
(1.58877e-10 0.036284 0)
(-1.49946e-10 0.0356781 0)
(-4.27155e-10 0.0344361 0)
(-6.11854e-10 0.0325025 0)
(-6.78394e-10 0.0298065 0)
(-6.48242e-10 0.026277 0)
(-5.42135e-10 0.021862 0)
(-3.68116e-10 0.0165529 0)
(-1.92323e-10 0.0104121 0)
(-4.04734e-11 0.00360623 0)
(2.4728e-10 0.00360623 0)
(9.66888e-10 0.0104121 0)
(1.30347e-09 0.0165529 0)
(1.52183e-09 0.021862 0)
(1.56501e-09 0.026277 0)
(1.46567e-09 0.0298065 0)
(1.26887e-09 0.0325025 0)
(1.01023e-09 0.0344361 0)
(7.21219e-10 0.0356781 0)
(4.16423e-10 0.036284 0)
(9.43162e-11 0.036284 0)
(-2.29183e-10 0.0356781 0)
(-5.00566e-10 0.0344361 0)
(-6.71215e-10 0.0325025 0)
(-7.42598e-10 0.0298065 0)
(-7.42287e-10 0.026277 0)
(-6.92336e-10 0.021862 0)
(-6.23979e-10 0.0165529 0)
(-6.10957e-10 0.0104121 0)
(-2.28666e-10 0.00360623 0)
(1.71459e-10 0.00360623 0)
(7.02323e-10 0.0104121 0)
(1.02054e-09 0.0165529 0)
(1.28479e-09 0.021862 0)
(1.3907e-09 0.026277 0)
(1.34117e-09 0.0298065 0)
(1.17669e-09 0.0325025 0)
(9.35127e-10 0.0344361 0)
(6.52247e-10 0.0356781 0)
(3.44964e-10 0.036284 0)
(1.58767e-11 0.036284 0)
(-3.05615e-10 0.0356781 0)
(-5.60715e-10 0.0344361 0)
(-7.19564e-10 0.0325025 0)
(-7.94784e-10 0.0298065 0)
(-7.99825e-10 0.026277 0)
(-7.40773e-10 0.021862 0)
(-6.54324e-10 0.0165529 0)
(-5.87255e-10 0.0104121 0)
(-1.89344e-10 0.00360623 0)
(9.63486e-11 0.00360623 0)
(4.19024e-10 0.0104121 0)
(6.86575e-10 0.0165529 0)
(9.73523e-10 0.021862 0)
(1.14444e-09 0.026277 0)
(1.15646e-09 0.0298065 0)
(1.03649e-09 0.0325025 0)
(8.24011e-10 0.0344361 0)
(5.57727e-10 0.0356781 0)
(2.56044e-10 0.036284 0)
(-6.88755e-11 0.036284 0)
(-3.75023e-10 0.0356781 0)
(-6.12379e-10 0.0344361 0)
(-7.66255e-10 0.0325025 0)
(-8.39332e-10 0.0298065 0)
(-8.20405e-10 0.026277 0)
(-6.90681e-10 0.021862 0)
(-4.66879e-10 0.0165529 0)
(-2.02217e-10 0.0104121 0)
(5.98168e-15 0.00360623 0)
(3.24289e-11 0.00360623 0)
(1.65153e-10 0.0104121 0)
(3.53036e-10 0.0165529 0)
(6.33096e-10 0.021862 0)
(8.587e-10 0.026277 0)
(9.35908e-10 0.0298065 0)
(8.69455e-10 0.0325025 0)
(6.96546e-10 0.0344361 0)
(4.54628e-10 0.0356781 0)
(1.64889e-10 0.036284 0)
(-1.46357e-10 0.036284 0)
(-4.33832e-10 0.0356781 0)
(-6.65073e-10 0.0344361 0)
(-8.26206e-10 0.0325025 0)
(-8.97847e-10 0.0298065 0)
(-8.49412e-10 0.026277 0)
(-6.455e-10 0.021862 0)
(-2.79182e-10 0.0165529 0)
(1.76917e-10 0.0104121 0)
(1.77257e-10 0.00360623 0)
(-2.39054e-11 0.00360623 0)
(-6.41318e-11 0.0104121 0)
(3.9694e-11 0.0165529 0)
(3.0639e-10 0.021862 0)
(5.74532e-10 0.026277 0)
(7.10447e-10 0.0298065 0)
(6.99661e-10 0.0325025 0)
(5.7322e-10 0.0344361 0)
(3.6038e-10 0.0356781 0)
(8.60281e-11 0.036284 0)
(-2.11623e-10 0.036284 0)
(-4.92534e-10 0.0356781 0)
(-7.32547e-10 0.0344361 0)
(-9.09119e-10 0.0325025 0)
(-9.88911e-10 0.0298065 0)
(-9.34709e-10 0.026277 0)
(-7.10996e-10 0.021862 0)
(-3.06612e-10 0.0165529 0)
(1.88869e-10 0.0104121 0)
(1.83009e-10 0.00360623 0)
(-8.59446e-11 0.00360623 0)
(-2.95279e-10 0.0104121 0)
(-2.44891e-10 0.0165529 0)
(2.07422e-11 0.021862 0)
(3.26855e-10 0.026277 0)
(5.11921e-10 0.0298065 0)
(5.48898e-10 0.0325025 0)
(4.614e-10 0.0344361 0)
(2.72203e-10 0.0356781 0)
(1.01973e-11 0.036284 0)
(-2.81263e-10 0.036284 0)
(-5.66643e-10 0.0356781 0)
(-8.1991e-10 0.0344361 0)
(-1.01212e-09 0.0325025 0)
(-1.11013e-09 0.0298065 0)
(-1.0826e-09 0.026277 0)
(-9.06167e-10 0.021862 0)
(-5.88147e-10 0.0165529 0)
(-2.09957e-10 0.0104121 0)
(1.06418e-11 0.00360623 0)
(-1.84918e-10 0.00360623 0)
(-5.97675e-10 0.0104121 0)
(-5.2825e-10 0.0165529 0)
(-2.32306e-10 0.021862 0)
(1.16146e-10 0.026277 0)
(3.46776e-10 0.0298065 0)
(4.21929e-10 0.0325025 0)
(3.57608e-10 0.0344361 0)
(1.77014e-10 0.0356781 0)
(-8.13538e-11 0.036284 0)
(-3.69948e-10 0.036284 0)
(-6.55196e-10 0.0356781 0)
(-9.11931e-10 0.0344361 0)
(-1.11282e-09 0.0325025 0)
(-1.23128e-09 0.0298065 0)
(-1.24535e-09 0.026277 0)
(-1.14459e-09 0.021862 0)
(-9.58298e-10 0.0165529 0)
(-7.34998e-10 0.0104121 0)
(-2.03785e-10 0.00360623 0)
(-3.59266e-10 0.00360623 0)
(-1.0464e-09 0.0104121 0)
(-8.50015e-10 0.0165529 0)
(-4.76078e-10 0.021862 0)
(-8.02392e-11 0.026277 0)
(1.93637e-10 0.0298065 0)
(3.00406e-10 0.0325025 0)
(2.5217e-10 0.0344361 0)
(7.79376e-11 0.0356781 0)
(-1.74983e-10 0.036284 0)
(-4.56551e-10 0.036284 0)
(-7.33087e-10 0.0356781 0)
(-9.80941e-10 0.0344361 0)
(-1.17754e-09 0.0325025 0)
(-1.30365e-09 0.0298065 0)
(-1.3426e-09 0.026277 0)
(-1.28975e-09 0.021862 0)
(-1.18179e-09 0.0165529 0)
(-1.03701e-09 0.0104121 0)
(-3.18616e-10 0.00360623 0)
(-5.98597e-10 0.00360623 0)
(-1.60072e-09 0.0104121 0)
(-1.18861e-09 0.0165529 0)
(-7.01844e-10 0.021862 0)
(-2.63807e-10 0.026277 0)
(4.32041e-11 0.0298065 0)
(1.78247e-10 0.0325025 0)
(1.49204e-10 0.0344361 0)
(-1.08201e-11 0.0356781 0)
(-2.50322e-10 0.036284 0)
(-5.17233e-10 0.036284 0)
(-7.75502e-10 0.0356781 0)
(-1.00205e-09 0.0344361 0)
(-1.17789e-09 0.0325025 0)
(-1.28564e-09 0.0298065 0)
(-1.30725e-09 0.026277 0)
(-1.23721e-09 0.021862 0)
(-1.09938e-09 0.0165529 0)
(-9.07739e-10 0.0104121 0)
(-2.58262e-10 0.00360623 0)
(-7.98174e-10 0.00360623 0)
(-2.03135e-09 0.0104121 0)
(-1.42192e-09 0.0165529 0)
(-8.45345e-10 0.021862 0)
(-3.92874e-10 0.026277 0)
(-7.84238e-11 0.0298065 0)
(7.32227e-11 0.0325025 0)
(6.41714e-11 0.0344361 0)
(-7.50265e-11 0.0356781 0)
(-2.93742e-10 0.036284 0)
(-5.3854e-10 0.036284 0)
(-7.70446e-10 0.0356781 0)
(-9.66356e-10 0.0344361 0)
(-1.10746e-09 0.0325025 0)
(-1.17153e-09 0.0298065 0)
(-1.1357e-09 0.026277 0)
(-9.88227e-10 0.021862 0)
(-7.28015e-10 0.0165529 0)
(-4.10637e-10 0.0104121 0)
(-6.42965e-11 0.00360623 0)
(-8.07099e-10 0.00360623 0)
(-2.03247e-09 0.0104121 0)
(-1.39288e-09 0.0165529 0)
(-8.20487e-10 0.021862 0)
(-4.0536e-10 0.026277 0)
(-1.23187e-10 0.0298065 0)
(1.85304e-11 0.0325025 0)
(1.66284e-11 0.0344361 0)
(-1.05866e-10 0.0356781 0)
(-3.02662e-10 0.036284 0)
(-5.21524e-10 0.036284 0)
(-7.2334e-10 0.0356781 0)