/*--------------------------------*- C++ -*----------------------------------*\
| =========                 |                                                 |
| \\      /  F ield         | OpenFOAM: The Open Source CFD Toolbox           |
|  \\    /   O peration     | Version:  5.x                                   |
|   \\  /    A nd           | Web:      www.OpenFOAM.org                      |
|    \\/     M anipulation  |                                                 |
\*---------------------------------------------------------------------------*/
FoamFile
{
    version     2.0;
    format      ascii;
    class       surfaceScalarField;
    location    "0.05";
    object      alphaPhi10;
}
// * * * * * * * * * * * * * * * * * * * * * * * * * * * * * * * * * * * * * //

dimensions      [0 3 -1 0 0 0 0];

internalField   nonuniform List<scalar> 
4432
(
2.95317e-06
-2.95317e-06
6.06443e-06
-3.11127e-06
9.21492e-06
-3.15051e-06
1.25063e-05
-3.29134e-06
1.60083e-05
-3.50193e-06
1.98026e-05
-3.79431e-06
2.39992e-05
-4.19667e-06
2.87545e-05
-4.75523e-06
3.43057e-05
-5.55125e-06
4.1008e-05
-6.70231e-06
4.97152e-05
-8.70719e-06
6.05589e-05
-1.08437e-05
7.59208e-05
-1.53619e-05
7.05034e-05
-2.00583e-05
7.59064e-06
-6.88988e-06
4.00721e-07
1.55375e-06
9.33124e-08
3.07955e-07
1.69835e-08
7.63594e-08
2.27052e-09
1.47189e-08
2.1796e-10
2.05401e-09
1.54516e-11
2.02875e-10
6.16311e-13
1.49205e-11
6.29628e-13
2.94883e-06
-5.902e-06
6.05268e-06
-6.21509e-06
9.19577e-06
-6.29354e-06
1.24773e-05
-6.57286e-06
1.59656e-05
-6.99023e-06
1.97403e-05
-7.56905e-06
2.39077e-05
-8.3642e-06
2.86183e-05
-9.4657e-06
3.40866e-05
-1.10195e-05
4.06826e-05
-1.32984e-05
4.89019e-05
-1.69264e-05
5.91731e-05
-2.11149e-05
6.76323e-05
-2.95695e-05
3.46447e-05
-3.03899e-05
3.10121e-06
-7.09834e-06
1.27175e-06
4.08249e-07
4.31797e-07
4.64436e-07
8.1018e-08
2.31573e-07
1.08132e-08
4.78604e-08
9.61003e-10
7.10753e-09
6.03203e-11
6.92321e-10
1.90707e-12
5.51914e-11
2.57659e-12
2.93133e-06
-8.83335e-06
6.01255e-06
-9.2963e-06
9.13186e-06
-9.41281e-06
1.23849e-05
-9.82589e-06
1.58367e-05
-1.04421e-05
1.95625e-05
-1.12948e-05
2.36607e-05
-1.24624e-05
2.82669e-05
-1.40718e-05
3.35672e-05
-1.63199e-05
3.98796e-05
-1.96107e-05
4.7512e-05
-2.45588e-05
5.73887e-05
-3.09916e-05
5.65245e-05
-4.3393e-05
9.46076e-06
-2.8277e-05
1.35784e-06
-4.25323e-06
4.90027e-07
6.70355e-08
1.29414e-07
1.56128e-07
4.11369e-09
8.04529e-08
-2.80058e-09
1.24385e-08
-2.17211e-10
1.71601e-09
-1.9397e-11
2.53812e-10
-1.09282e-12
2.60909e-11
1.49895e-12
2.90481e-06
-1.17382e-05
5.95262e-06
-1.23441e-05
9.0365e-06
-1.24967e-05
1.22473e-05
-1.30367e-05
1.56455e-05
-1.38404e-05
1.92996e-05
-1.49489e-05
2.3297e-05
-1.64598e-05
2.77534e-05
-1.85282e-05
3.28208e-05
-2.13872e-05
3.87373e-05
-2.55273e-05
4.56811e-05
-3.15026e-05
5.43916e-05
-3.97021e-05
4.33999e-05
-5.34413e-05
3.60864e-06
-2.19613e-05
8.20677e-07
-2.8848e-06
2.13437e-07
8.88473e-08
4.37019e-08
8.96842e-08
5.35784e-09
1.74172e-08
3.36505e-11
2.58636e-09
-5.93353e-11
5.64679e-10
-9.85046e-12
9.5064e-11
-6.972e-13
1.16375e-11
8.05004e-13
2.86964e-06
-1.46078e-05
5.87373e-06
-1.53482e-05
8.91119e-06
-1.55341e-05
1.20669e-05
-1.61924e-05
1.53957e-05
-1.71692e-05
1.8958e-05
-1.85111e-05
2.28279e-05
-2.03297e-05
2.70984e-05
-2.27987e-05
3.18823e-05
-2.61711e-05
3.73368e-05
-3.09817e-05
4.35125e-05
-3.76783e-05
5.0856e-05
-4.70456e-05
3.22759e-05
-5.89142e-05
2.3215e-06
-1.68403e-05
3.48314e-07
-1.75154e-06
5.00148e-08
1.30347e-07
1.21223e-08
4.66367e-08
2.05546e-09
8.33407e-09
8.41452e-11
1.11628e-09
-1.90981e-11
1.97132e-10
-4.69861e-12
3.48118e-11
-3.96894e-13
4.85695e-12
4.11573e-13
2.82628e-06
-1.74341e-05
5.77706e-06
-1.8299e-05
8.75799e-06
-1.85151e-05
1.1847e-05
-1.92814e-05
1.50925e-05
-2.04147e-05
1.8546e-05
-2.19645e-05
2.2267e-05
-2.40508e-05
2.63254e-05
-2.68571e-05
3.07926e-05
-3.06383e-05
3.57567e-05
-3.59458e-05
4.11395e-05
-4.30611e-05
4.72004e-05
-5.31064e-05
2.35824e-05
-6.09274e-05
1.51456e-06
-1.26065e-05
1.07265e-07
-8.35755e-07
8.30402e-09
1.20828e-07
2.5541e-09
2.28097e-08
6.34695e-10
3.48332e-09
4.82947e-11
4.70538e-10
-5.21226e-12
7.43573e-11
-1.92794e-12
1.28829e-11
-2.01959e-13
1.98175e-12
2.09773e-13
2.77557e-06
-2.02097e-05
5.66436e-06
-2.11879e-05
8.57984e-06
-2.14306e-05
1.15923e-05
-2.22939e-05
1.47431e-05
-2.35654e-05
1.80742e-05
-2.52956e-05
2.16311e-05
-2.76077e-05
2.54609e-05
-3.06868e-05
2.95973e-05
-3.47747e-05
3.40697e-05
-4.04182e-05
3.86668e-05
-4.76582e-05
4.35564e-05
-5.7996e-05
1.70515e-05
-6.0961e-05
9.32948e-07
-9.41923e-06
1.80722e-08
-2.11509e-07
3.81815e-10
9.21792e-08
5.76683e-10
1.19165e-08
1.88153e-10
1.52589e-09
2.00213e-11
2.0814e-10
-9.78853e-13
3.07546e-11
-6.8664e-13
5.06679e-12
-9.64993e-14
8.41855e-13
1.1337e-13
2.71879e-06
-2.29285e-05
5.5371e-06
-2.40062e-05
8.37964e-06
-2.42731e-05
1.13074e-05
-2.52216e-05
1.43547e-05
-2.66126e-05
1.75542e-05
-2.84951e-05
2.0938e-05
-3.09915e-05
2.45326e-05
-3.42815e-05
2.83452e-05
-3.85873e-05
3.23752e-05
-4.44482e-05
3.61998e-05
-5.14828e-05
3.99986e-05
-6.17947e-05
1.24512e-05
-6.01911e-05
4.57533e-07
-7.34742e-06
-6.20521e-09
8.16575e-08
-9.47718e-10
6.56257e-08
7.86289e-11
6.86112e-09
4.16803e-11
7.43251e-10
5.82454e-12
9.44373e-11
-1.51344e-13
1.32491e-11
-2.16628e-13
2.09227e-12
-4.0871e-14
4.01608e-13
7.43757e-14
4.21398e-30
-1.26677e-29
9.14329e-32
-7.39697e-31
1.06655e-32
-1.41898e-32
1.88038e-34
-2.58447e-33
1.26379e-36
-1.16286e-35
1.17633e-38
9.34623e-39
5.37898e-40
3.09653e-40
5.82551e-42
9.73287e-42
1.07505e-43
2.42596e-43
1.76598e-45
5.1712e-45
2.54011e-47
9.60278e-47
3.14104e-49
1.55447e-48
3.25908e-51
2.17518e-50
2.74357e-53
2.58934e-52
1.78299e-55
2.55748e-54
8.25148e-58
2.01683e-56
2.33689e-60
1.19246e-58
2.77845e-63
4.70367e-61
9.26765e-64
4.69772e-28
-2.27345e-27
8.4101e-30
-1.35673e-28
1.11745e-30
-2.60945e-30
2.16486e-32
-2.83584e-31
1.55932e-34
-1.33482e-33
1.5862e-36
4.48064e-36
4.21179e-38
1.60833e-37
8.06449e-40
5.15535e-39
1.52329e-41
1.31415e-40
2.55891e-43
2.86412e-42
3.76429e-45
5.43783e-44
4.76044e-47
9.00147e-46
5.05123e-49
1.28817e-47
4.34856e-51
1.56826e-49
2.89009e-53
1.58396e-51
1.36785e-55
1.27712e-53
3.96193e-58
7.7206e-56
6.2699e-61
3.11576e-58
6.27668e-61
2.61615e-26
-1.70268e-25
4.47184e-28
-1.03925e-26
5.61137e-29
-1.98587e-28
1.19382e-30
-1.4857e-29
8.80121e-33
-6.87293e-32
1.00465e-34
4.14324e-34
2.48044e-36
1.54095e-35
5.01805e-38
4.85791e-37
9.43571e-40
1.22806e-38
1.57723e-41
2.65977e-40
2.30837e-43
5.02137e-42
2.90406e-45
8.26691e-44
3.06528e-47
1.17666e-45
2.62491e-49
1.42473e-47
1.73525e-51
1.43114e-49
9.17019e-54
1.14756e-51
3.21566e-56
6.91378e-54
5.49785e-59
2.7775e-56
5.5587e-59
9.82333e-25
-7.72609e-24
1.69601e-26
-4.83817e-25
1.79986e-27
-9.08845e-27
4.18954e-29
-4.81806e-28
3.03572e-31
-1.95685e-30
4.43175e-33
2.24297e-32
1.06222e-34
9.16401e-34
2.1825e-36
2.83698e-35
4.09533e-38
7.11919e-37
6.82713e-40
1.53495e-38
9.96176e-42
2.88728e-40
1.24917e-43
4.7372e-42
1.31399e-45
6.71973e-44
1.20794e-47
8.10776e-46
8.85733e-50
8.122e-48
4.82639e-52
6.50328e-50
1.73277e-54
3.90213e-52
3.05668e-57
1.5609e-54
3.11145e-57
2.76414e-23
-2.41235e-22
4.96155e-25
-1.54513e-23
3.9254e-26
-2.85291e-25
1.01077e-27
-1.04344e-26
7.07429e-30
-2.81194e-29
1.49343e-31
8.4551e-31
3.49899e-33
3.90418e-32
7.235e-35
1.18453e-33
1.35491e-36
2.94868e-35
2.25248e-38
6.32682e-37
3.27614e-40
1.18548e-38
4.32463e-42
1.93786e-40
4.8799e-44
2.74094e-42
4.54488e-46
3.29748e-44
3.36237e-48
3.29331e-46
1.85048e-50
2.6252e-48
6.73106e-53
1.56784e-50
1.20854e-55
6.24339e-53
1.2394e-55
6.07201e-22
-5.72019e-21
1.1574e-23
-3.81072e-22
5.53785e-25
-6.61695e-24
1.64305e-26
-1.55008e-25
1.5137e-28
1.58407e-29
4.0471e-30
3.03845e-29
9.16045e-32
1.27159e-30
1.90636e-33
3.77712e-32
3.56254e-35
9.3212e-34
6.11004e-37
1.98955e-35
9.4175e-39
3.71455e-37
1.25533e-40
6.05386e-39
1.41947e-42
8.52746e-41
1.32748e-44
1.02176e-42
9.8598e-47
1.01579e-44
5.45476e-49
8.05577e-47
1.99879e-51
4.78675e-49
3.62546e-54
1.89692e-51
3.74875e-54
1.23319e-20
-3.2023e-19
2.24409e-22
-3.93999e-20
5.01193e-24
-2.32527e-22
1.3785e-25
-1.84457e-24
3.41184e-27
7.20966e-27
8.66935e-29
8.52612e-28
1.98954e-30
3.30087e-29
4.13735e-32
9.60163e-31
8.12432e-34
2.34796e-32
1.43196e-35
4.98935e-34
2.20866e-37
9.27663e-36
2.94395e-39
1.5049e-37
3.33131e-41
2.10976e-39
3.11747e-43
2.51571e-41
2.31743e-45
2.48694e-43
1.28445e-47
1.96116e-45
4.72216e-50
1.15888e-47
8.60935e-53
4.56816e-50
8.98287e-53
4.48958e-19
-9.87266e-18
3.60018e-21
-2.76657e-19
7.04281e-23
-5.19113e-21
1.9408e-24
-4.56097e-23
5.194e-26
2.3433e-25
1.31982e-27
1.57954e-26
3.03478e-29
5.73613e-28
6.48736e-31
1.63714e-29
1.29399e-32
3.97315e-31
2.27922e-34
8.4015e-33
3.50944e-36
1.55499e-34
4.66886e-38
2.51107e-36
5.27264e-40
3.50335e-38
4.92119e-42
4.15388e-40
3.64978e-44
4.08235e-42
2.01934e-46
3.20051e-44
7.41703e-49
1.88042e-46
1.35239e-51
7.3718e-49
1.44202e-51
5.56674e-06
-2.84952e-05
1.13068e-05
-2.97462e-05
1.70847e-05
-3.00509e-05
2.30053e-05
-3.11422e-05
2.91186e-05
-3.2726e-05
3.54668e-05
-3.48433e-05
4.20813e-05
-3.76061e-05
4.89667e-05
-4.11669e-05
5.60962e-05
-4.57168e-05
6.32351e-05
-5.15871e-05
7.04989e-05
-5.87466e-05
7.67383e-05
-6.80342e-05
1.75165e-05
-5.5719e-05
3.08378e-07
-3.94065e-06
-2.00448e-08
2.43354e-07
-2.15264e-09
3.10265e-08
-1.35838e-10
2.52918e-09
-5.46955e-12
2.24245e-10
8.37488e-14
2.25955e-11
-1.07448e-13
2.675e-12
-5.08616e-14
3.7184e-13
1.11596e-14
6.61115e-14
2.03158e-14
7.7697e-15
5.22614e-06
-3.37213e-05
1.05693e-05
-3.50894e-05
1.5934e-05
-3.54156e-05
2.13878e-05
-3.6596e-05
2.69527e-05
-3.82909e-05
3.26386e-05
-4.05293e-05
3.84363e-05
-4.34038e-05
4.4302e-05
-4.70327e-05
5.01402e-05
-5.1555e-05
5.57364e-05
-5.71833e-05
6.08592e-05
-6.38694e-05
6.48799e-05
-7.20548e-05
8.183e-06
-4.96086e-05
-2.26761e-08
-1.94697e-06
-1.01809e-08
1.59398e-07
-7.00241e-10
1.48452e-08
-3.00264e-11
1.11445e-09
1.65114e-12
9.23907e-11
6.87015e-13
8.56426e-12
1.39028e-13
8.73673e-13
2.94542e-14
1.04227e-13
9.5763e-15
1.41199e-14
2.81907e-15
2.4236e-15
4.85292e-06
-3.85742e-05
9.76942e-06
-4.00059e-05
1.46941e-05
-4.03402e-05
1.96609e-05
-4.15627e-05
2.46696e-05
-4.32996e-05
2.97072e-05
-4.5567e-05
3.47388e-05
-4.84354e-05
3.96949e-05
-5.19887e-05
4.44565e-05
-5.63166e-05
4.88213e-05
-6.1548e-05
5.25246e-05
-6.75727e-05
5.51706e-05
-7.47008e-05
3.41283e-06
-4.33788e-05
-3.47514e-08
-9.42343e-07
-5.88575e-09
1.02405e-07
-4.33584e-10
6.91905e-09
-3.11298e-11
4.60382e-10
-2.09133e-12
3.46498e-11
-9.13953e-14
2.88164e-12
1.01427e-14
2.56154e-13
5.04943e-15
2.69052e-14
2.39433e-15
3.15597e-15
4.41192e-16
3.38694e-16
4.4607e-06
-4.30349e-05
8.93833e-06
-4.44835e-05
1.34141e-05
-4.48159e-05
1.78936e-05
-4.60423e-05
2.23608e-05
-4.77669e-05
2.67879e-05
-4.99942e-05
3.11264e-05
-5.27739e-05
3.52977e-05
-5.616e-05
3.91836e-05
-6.02026e-05
4.26073e-05
-6.49717e-05
4.53544e-05
-7.03199e-05
4.71727e-05
-7.6519e-05
1.45259e-06
-3.77029e-05
-2.54225e-08
-3.88241e-07
-2.62274e-09
6.66646e-08
-1.79141e-10
3.51229e-09
-1.31174e-11
2.03249e-10
-9.50848e-13
1.35845e-11
-5.37116e-14
1.00153e-12
8.20746e-16
8.21682e-14
2.14595e-15
6.75474e-15
4.79822e-16
7.83961e-16
7.77402e-17
3.98133e-17
4.06192e-06
-4.70969e-05
8.10249e-06
-4.85241e-05
1.21345e-05
-4.8848e-05
1.61413e-05
-5.0049e-05
2.00962e-05
-5.17218e-05
2.39638e-05
-5.38617e-05
2.76903e-05
-5.65004e-05
3.11986e-05
-5.96682e-05
3.43827e-05
-6.33867e-05
3.70979e-05
-6.76869e-05
3.91863e-05
-7.24084e-05
4.04878e-05
-7.78206e-05
4.09831e-07
-3.2683e-05
-1.86072e-08
-8.32772e-08
-1.36847e-09
4.27659e-08
-8.19088e-11
1.79147e-09
-5.51946e-12
9.21023e-11
-3.75729e-13
5.48608e-12
-2.10563e-14
3.63444e-13
-2.98941e-16
2.66976e-14
6.04727e-16
2.00636e-15
9.4526e-17
1.91425e-16
1.60032e-17
5.84976e-18
3.66658e-06
-5.07635e-05
7.28224e-06
-5.21398e-05
1.08857e-05
-5.24514e-05
1.44435e-05
-5.36068e-05
1.79234e-05
-5.52017e-05
2.12865e-05
-5.72248e-05
2.44799e-05
-5.96938e-05
2.7433e-05
-6.26214e-05
3.00561e-05
-6.60098e-05
3.22353e-05
-6.98662e-05
3.38592e-05
-7.40322e-05
3.4828e-05
-7.87893e-05
2.9572e-07
-2.82908e-05
-1.63622e-08
1.69339e-07
-7.73419e-10
2.44344e-08
-3.94075e-11
8.87726e-10
-2.38208e-12
4.19281e-11
-1.45253e-13
2.26085e-12
-7.09615e-15
1.35712e-13
6.49765e-16
8.60955e-15
1.67501e-16
6.57843e-16
1.69749e-17
4.95905e-17
3.61524e-18
8.64441e-19
3.28223e-06
-5.40457e-05
6.49204e-06
-5.53496e-05
9.68854e-06
-5.5648e-05
1.28264e-05
-5.67447e-05
1.58712e-05
-5.82465e-05
1.87841e-05
-6.01377e-05
2.15157e-05
-6.24254e-05
2.40045e-05
-6.51101e-05
2.61766e-05
-6.81819e-05
2.7944e-05
-7.16336e-05
2.92287e-05
-7.5317e-05
2.99651e-05
-7.95258e-05
1.63286e-07
-2.44404e-05
-9.2134e-09
3.17385e-07
-3.48711e-10
1.48636e-08
-1.68756e-11
4.97135e-10
-9.59e-13
2.12023e-11
-5.31258e-14
1.02476e-12
-2.32161e-15
5.49798e-14
3.23196e-16
2.94119e-15
4.57929e-17
2.08448e-16
3.39911e-18
1.3693e-17
8.80334e-19
1.05716e-19
2.91407e-06
-5.69598e-05
5.74125e-06
-5.81768e-05
8.55584e-06
-5.84626e-05
1.1305e-05
-5.94939e-05
1.39545e-05
-6.08959e-05
1.64673e-05
-6.26506e-05
1.87994e-05
-6.47574e-05
2.08981e-05
-6.72089e-05
2.27038e-05
-6.99877e-05
2.41487e-05
-7.30785e-05
2.51784e-05
-7.63466e-05
2.57458e-05
-8.00932e-05
4.24326e-08
-2.10602e-05
-3.73464e-09
3.48227e-07
-1.43195e-10
1.09422e-08
-7.00802e-12
3.34943e-10
-3.7768e-13
1.28059e-11
-1.90915e-14
5.45797e-13
-7.39589e-16
2.57163e-14
1.1456e-16
1.16582e-15
1.24987e-17
7.32215e-17
7.43753e-19
4.17956e-18
2.346e-19
1.09349e-20
2.56526e-06
-5.95251e-05
5.03488e-06
-6.06464e-05
7.49399e-06
-6.09217e-05
9.88565e-06
-6.18855e-05
1.21772e-05
-6.31874e-05
1.4335e-05
-6.48084e-05
1.63203e-05
-6.67427e-05
1.80891e-05
-6.89777e-05
1.95935e-05
-7.14921e-05
2.07812e-05
-7.42662e-05
2.16141e-05
-7.71795e-05
2.20562e-05
-8.05353e-05
-2.2472e-08
-1.80946e-05
-2.02053e-09
3.12598e-07
-7.61237e-11
8.64973e-09
-3.5277e-12
2.46275e-10
-1.72695e-13
8.67228e-12
-7.68359e-15
3.23022e-13
-2.81449e-16
1.34705e-14
4.12685e-17
5.45386e-16
3.66263e-18
2.92874e-17
1.79302e-19
1.42762e-18
6.92793e-20
2.83975e-22
2.2373e-06
-6.17624e-05
4.37454e-06
-6.27837e-05
6.50437e-06
-6.30515e-05
8.56821e-06
-6.39494e-05
1.05361e-05
-6.51553e-05
1.23781e-05
-6.66505e-05
1.40608e-05
-6.84254e-05
1.55479e-05
-7.04647e-05
1.68012e-05
-7.27453e-05
1.77802e-05
-7.52453e-05
1.84585e-05
-7.78578e-05
1.88062e-05
-8.0883e-05
-4.76152e-08
-1.54938e-05
-2.03242e-09
2.53372e-07
-6.15266e-11
6.26282e-09
-2.42143e-12
1.72193e-10
-1.0203e-13
5.73116e-12
-3.77793e-15
1.93968e-13
-6.25782e-17
7.18341e-15
1.6627e-17
2.77396e-16
1.03272e-18
1.2443e-17
4.68961e-20
5.18903e-19
2.18239e-20
-4.33017e-22
1.93038e-06
-6.36927e-05
3.75943e-06
-6.46127e-05
5.58484e-06
-6.48769e-05
7.34835e-06
-6.57129e-05
9.02304e-06
-6.683e-05
1.05829e-05
-6.82104e-05
1.19997e-05
-6.98422e-05
1.32435e-05
-7.17085e-05
1.42841e-05
-7.37859e-05
1.50904e-05
-7.60516e-05
1.56453e-05
-7.84126e-05
1.59208e-05
-8.11586e-05
-5.26393e-08
-1.32074e-05
-1.79915e-09
1.91859e-07
-4.94812e-11
4.19002e-09
-1.74307e-12
1.1293e-10
-6.47319e-14
3.57612e-12
-2.10561e-15
1.12256e-13
2.68402e-17
3.70421e-15
6.97959e-18
1.35897e-16
3.08354e-19
5.14957e-18
1.26926e-20
1.87255e-19
6.84487e-21
-2.55321e-22
1.64385e-06
-6.53366e-05
3.18718e-06
-6.61561e-05
4.73114e-06
-6.64209e-05
6.21922e-06
-6.72009e-05
7.62749e-06
-6.82382e-05
8.93393e-06
-6.95168e-05
1.01148e-05
-7.10231e-05
1.11459e-05
-7.27395e-05
1.20029e-05
-7.46429e-05
1.26606e-05
-7.67093e-05
1.31129e-05
-7.88649e-05
1.33292e-05
-8.13748e-05
-4.88407e-08
-1.12033e-05
-1.20829e-09
1.36662e-07
-3.33181e-11
2.79179e-09
-1.1098e-12
7.26995e-11
-3.79145e-14
2.20718e-12
-1.13805e-15
6.39574e-14
2.82953e-17
1.8792e-15
2.72486e-18
6.21764e-17
9.24116e-20
2.04083e-18
3.32495e-21
6.44443e-20
2.03623e-21
-1.07361e-22
1.37588e-06
-6.67125e-05
2.65381e-06
-6.74339e-05
3.93692e-06
-6.7704e-05
5.17102e-06
-6.8435e-05
6.33557e-06
-6.94027e-05
7.41207e-06
-7.05932e-05
8.38137e-06
-7.19923e-05
9.2245e-06
-7.35826e-05
9.92183e-06
-7.53401e-05
1.04515e-05
-7.72388e-05
1.08147e-05
-7.92279e-05
1.09525e-05
-8.15122e-05
-3.87056e-08
-9.48179e-06
-7.46858e-10
9.34333e-08
-1.6907e-11
1.87724e-09
-5.66237e-13
5.08939e-11
-1.84306e-14
1.46352e-12
-5.24979e-16
3.96713e-14
1.60765e-17
1.02417e-15
9.76418e-19
2.93219e-17
2.6436e-20
8.10734e-19
8.10426e-22
2.15484e-20
5.71666e-22
-3.58289e-23
1.12471e-06
-6.78372e-05
2.15382e-06
-6.84626e-05
3.19313e-06
-6.87428e-05
4.19032e-06
-6.94316e-05
5.12897e-06
-7.03407e-05
5.99378e-06
-7.14574e-05
6.76954e-06
-7.27673e-05
7.44247e-06
-7.42546e-05
7.99774e-06
-7.58944e-05
8.4286e-06
-7.76684e-05
8.7531e-06
-7.9551e-05
8.70284e-06
-8.14592e-05
-2.25346e-08
-7.88797e-06
-1.67199e-10
6.6873e-08
-2.46875e-12
1.57694e-09
-1.00409e-13
4.42199e-11
-4.68803e-15
1.24265e-12
-1.6001e-16
3.12042e-14
7.89983e-18
7.08782e-16
3.32014e-19
1.61633e-17
7.31669e-21
3.55179e-19
1.82146e-22
7.43438e-21
1.55495e-22
-9.93618e-24
8.9318e-07
-6.87304e-05
1.68552e-06
-6.92515e-05
2.49671e-06
-6.955e-05
3.27443e-06
-7.02051e-05
4.0061e-06
-7.10678e-05
4.67867e-06
-7.2125e-05
5.27935e-06
-7.33625e-05
5.79526e-06
-7.47644e-05
6.20494e-06
-7.62971e-05
6.50539e-06
-7.79606e-05
6.80416e-06
-7.98401e-05
6.08255e-06
-8.07195e-05
-2.69482e-08
-6.19842e-06
-1.22656e-10
3.71885e-08
3.14682e-12
1.33231e-09
1.60025e-13
4.36412e-11
2.74158e-15
1.3543e-12
-9.07223e-17
3.48793e-14
4.06001e-18
5.3765e-16
1.24389e-19
9.56018e-18
2.00964e-21
1.57385e-19
3.72768e-23
2.42509e-21
3.75737e-23
-2.57611e-24
6.73464e-07
-6.94038e-05
1.2605e-06
-6.98134e-05
1.87496e-06
-7.01347e-05
2.46084e-06
-7.07599e-05
3.0118e-06
-7.15857e-05
3.52046e-06
-7.25981e-05
3.97926e-06
-7.37826e-05
4.37463e-06
-7.51171e-05
4.67682e-06
-7.6552e-05
4.77389e-06
-7.80028e-05
4.61878e-06
-7.96215e-05
1.78887e-06
-7.77753e-05
-3.2731e-08
-7.88557e-06
-7.49968e-10
2.02041e-09
-1.90226e-11
4.92628e-10
-3.53835e-13
2.42824e-11
-1.06027e-14
9.90415e-13
-2.68282e-16
2.49255e-14
1.52086e-18
2.81843e-16
3.71876e-20
3.12677e-18
3.42332e-22
3.88247e-20
4.77095e-24
4.45946e-22
5.33791e-24
-5.24708e-25
5.03404e-07
-6.99073e-05
9.17956e-07
-7.00466e-05
1.35862e-06
-7.03623e-05
1.78467e-06
-7.09645e-05
2.18567e-06
-7.1754e-05
2.55557e-06
-7.27207e-05
2.88913e-06
-7.38508e-05
3.17858e-06
-7.5119e-05
3.4534e-06
-7.65142e-05
3.5865e-06
-7.77796e-05
3.30052e-06
-7.89323e-05
3.97673e-06
-7.77406e-05
-3.66183e-08
-1.78063e-05
1.61665e-09
-3.88476e-08
1.008e-10
1.99102e-09
3.83966e-12
1.20366e-10
5.31356e-14
4.75066e-12
2.33848e-17
7.76409e-14
3.15427e-19
3.05648e-16
2.85375e-21
2.74451e-18
2.5567e-23
5.51425e-21
2.17968e-25
4.22969e-23
4.01907e-25
-3.54493e-26
2.70537e-07
-5.26232e-05
4.92705e-07
-5.28059e-05
7.35873e-07
-5.28348e-05
9.61947e-07
-5.28939e-05
1.166e-06
-5.29486e-05
1.3385e-06
-5.29834e-05
1.46335e-06
-5.29628e-05
1.53958e-06
-5.28294e-05
1.57077e-06
-5.27282e-05
2.21552e-06
-5.14622e-05
3.19937e-06
-4.98185e-05
1.0633e-05
-3.51413e-05
-5.49895e-07
-1.43046e-05
9.30364e-08
-6.81914e-07
6.83303e-09
8.80291e-08
2.6384e-10
6.67113e-09
4.52556e-12
2.63096e-10
1.94179e-14
4.53668e-12
1.59163e-17
1.96924e-14
-1.5485e-21
1.9259e-17
-1.01976e-24
3.66514e-22
-1.18802e-26
2.57316e-24
2.34056e-26
-1.87766e-28
-1.36898e-07
-1.23396e-25
-2.92198e-07
-2.06262e-23
-4.30016e-07
-1.68894e-21
-5.77169e-07
-9.04033e-20
-7.22551e-07
-3.55008e-18
-8.61777e-07
-1.08452e-16
-9.67275e-07
-2.65621e-15
-9.9706e-07
-5.22154e-14
-1.04395e-06
-8.7637e-13
-1.25389e-07
-1.32775e-11
2.24352e-06
-1.743e-10
1.42541e-06
-2.04382e-09
3.86e-06
-2.21807e-08
5.76165e-08
-1.86703e-07
1.78166e-08
1.43244e-07
8.95609e-10
2.40629e-08
5.5867e-12
1.1572e-09
-1.76752e-14
1.01341e-11
-1.78034e-17
2.03659e-15
-1.70015e-22
1.48781e-18
-3.27973e-25
2.65212e-23
-3.34546e-27
1.81712e-25
1.58195e-27
-5.88233e-29
-9.83216e-26
-2.5074e-26
-1.64122e-23
-4.35046e-24
-1.32166e-21
-3.89897e-22
-6.89496e-20
-2.32665e-20
-2.60732e-18
-1.03698e-18
-7.53157e-17
-3.66896e-17
-1.70424e-15
-1.05455e-15
-3.03919e-14
-2.41548e-14
-4.07245e-13
-5.11265e-13
-3.45644e-12
-1.04088e-11
-1.61153e-12
-1.78492e-10
1.98971e-11
-2.08987e-09
2.0406e-10
-2.25542e-08
3.43744e-08
-3.85815e-08
-1.99082e-08
9.44641e-08
-1.06892e-09
8.04134e-09
-9.44963e-12
1.60827e-10
-1.90702e-15
6.90283e-13
-1.42341e-18
1.30656e-16
-1.28088e-23
6.60371e-20
-4.61754e-26
2.07778e-24
-4.21951e-28
1.30724e-26
1.0498e-28
-6.89406e-30
-2.31303e-26
-1.94369e-27
-4.0801e-24
-3.32351e-25
-3.71909e-22
-2.86517e-23
-2.25706e-20
-1.64523e-21
-1.02282e-18
-7.02965e-20
-3.67852e-17
-2.37207e-18
-1.07466e-15
-6.55434e-17
-2.50588e-14
-1.51621e-15
-5.35818e-13
-3.26834e-14
-1.08376e-11
-6.32929e-13
-1.85168e-10
-1.00228e-11
-2.19474e-09
-1.30701e-10
-2.38806e-08
-9.18062e-10
-5.38094e-08
-1.92786e-09
-7.69839e-09
2.93908e-09
-1.38258e-10
6.18773e-10
-5.93512e-13
2.3164e-11
-1.2028e-16
9.76224e-14
-6.35157e-20
1.57544e-17
-9.27476e-25
2.59268e-21
-4.89642e-27
1.45134e-25
-4.06134e-29
8.46699e-28
6.36572e-30
-6.10349e-31
-1.87705e-27
-6.6647e-29
-3.26623e-25
-1.11027e-26
-2.86436e-23
-9.23897e-25
-1.67263e-21
-5.10559e-23
-7.26442e-20
-2.09286e-21
-2.49075e-18
-6.74574e-20
-6.90084e-17
-1.78815e-18
-1.60085e-15
-4.09145e-17
-3.39977e-14
-1.23958e-15
-6.45022e-13
-3.50347e-14
-1.0333e-11
-4.82416e-13
-1.37276e-10
-5.09172e-12
-1.16022e-09
-2.04982e-11
-3.34053e-09
-8.59698e-11
-6.14903e-10
1.07196e-10
-2.20217e-11
2.26301e-11
-9.19227e-14
1.249e-12
-1.52368e-17
6.11152e-15
-2.99808e-21
9.20056e-19
-9.13667e-26
8.10171e-23
-4.19086e-28
8.61447e-27
-3.23534e-30
4.85298e-29
3.49189e-31
-4.50854e-32
-6.60761e-29
-5.70911e-31
-1.11963e-26
-9.31808e-29
-9.40457e-25
-7.63862e-27
-5.22494e-23
-4.17123e-25
-2.15354e-21
-1.68691e-23
-6.98085e-20
-5.35227e-22
-1.8607e-18
-1.39146e-20
-4.27679e-17
-3.01589e-19
-1.27922e-15
-6.31361e-18
-3.60985e-14
-2.09783e-16
-5.13158e-13
-4.53698e-15
-5.53496e-12
-5.13984e-14
-3.19923e-11
-2.33534e-13
-1.25961e-10
-2.45413e-12
-2.27094e-11
1.70895e-12
-1.21194e-12
8.15481e-13
-5.88685e-15
4.36157e-14
-9.39648e-19
3.17732e-16
-8.2918e-23
3.61039e-20
-6.3289e-27
4.18115e-24
-2.96393e-29
4.3967e-28
-2.18516e-31
2.43184e-30
1.71218e-32
-2.89323e-33
-5.69957e-31
-9.54915e-34
-9.31011e-29
-1.58164e-31
-7.62579e-27
-1.31958e-29
-4.16453e-25
-7.32583e-28
-1.68617e-23
-3.01129e-26
-5.36219e-22
-9.71383e-25
-1.39801e-20
-2.56462e-23
-3.04224e-19
-5.60423e-22
-6.39652e-18
-1.06282e-20
-2.08626e-16
-2.04289e-19
-4.56199e-15
-5.94432e-18
-5.3792e-14
-1.30332e-16
-2.68415e-13
-8.76284e-16
-2.52002e-12
-1.49537e-14
-8.24375e-13
1.78143e-15
-4.32943e-14
1.37871e-14
-3.19188e-16
7.73518e-16
-4.31025e-20
3.73053e-18
-4.16999e-24
4.7493e-22
-3.76059e-28
2.06791e-25
-1.76938e-30
2.0713e-29
-1.26466e-32
1.08975e-31
7.73186e-34
-1.61031e-34
-6.0262e-34
-4.7301e-37
-1.06279e-31
-8.29951e-35
-9.25895e-30
-7.18679e-33
-5.3543e-28
-4.12071e-31
-2.28704e-26
-1.74501e-29
-7.66835e-25
-5.80435e-28
-2.09098e-23
-1.57174e-26
-4.73505e-22
-3.53624e-25
-9.32498e-21
-6.81556e-24
-1.79565e-19
-1.11361e-22
-5.14383e-18
-1.61155e-21
-1.23921e-16
-2.90488e-20
-9.8642e-16
-5.20771e-19
-1.59324e-14
-1.34028e-17
-1.41497e-14
-5.47022e-17
-7.71989e-16
9.57156e-17
-4.03061e-18
1.12144e-17
-5.23695e-22
6.46511e-20
-1.9923e-25
1.1424e-23
-1.92252e-29
7.45313e-27
-9.29689e-32
7.99444e-31
-6.51672e-34
4.12565e-33
3.29713e-35
-7.81649e-36
-4.71845e-37
-1.16558e-39
-8.40579e-35
-2.1183e-37
-7.31859e-33
-1.90205e-35
-4.22214e-31
-1.1319e-33
-1.80097e-29
-4.98453e-32
-6.03499e-28
-1.72706e-30
-1.64652e-26
-4.88429e-29
-3.73487e-25
-1.15262e-27
-7.14191e-24
-2.30382e-26
-1.17036e-22
-3.94876e-25
-1.68465e-21
-5.81885e-24
-2.90345e-20
-7.35509e-23
-5.34846e-19
-6.27267e-22
-1.68504e-17
-5.40787e-21
-1.02734e-16
-2.46411e-20
-1.08918e-17
4.37264e-19
-6.31951e-20
1.6008e-19
-1.10743e-23
1.40271e-21
-7.2161e-27
3.08314e-25
-7.40471e-31
2.31752e-28
-3.72344e-33
2.72893e-32
-2.73559e-35
1.4826e-34
1.22892e-36
-3.30595e-37
-1.16513e-39
-4.53814e-43
-2.1298e-37
-8.66249e-41
-1.92128e-35
-8.17876e-39
-1.14946e-33
-5.12322e-37
-5.09997e-32
-2.38319e-35
-1.78031e-30
-8.74188e-34
-5.07022e-29
-2.62436e-32
-1.20523e-27
-6.60581e-31
-2.42826e-26
-1.41856e-29
-4.1798e-25
-2.61794e-28
-6.55789e-24
-4.0957e-27
-9.84221e-23
-5.41314e-26
-1.57598e-21
-6.03709e-25
-8.54597e-20
-7.02637e-24
-5.86604e-19
-4.1344e-23
-1.5439e-19
8.14955e-23
-1.37904e-21
8.37556e-22
-3.00497e-25
2.20271e-23
-2.25783e-28
6.48003e-27
-2.52813e-32
5.81319e-30
-1.34374e-34
7.7128e-34
-1.02274e-36
4.54623e-36
3.96607e-38
-1.22309e-38
-4.53787e-43
-2.67247e-47
-8.69775e-41
-5.42783e-45
-8.26312e-39
-5.46781e-43
-5.20587e-37
-3.65585e-41
-2.43437e-35
-1.81701e-39
-8.9758e-34
-7.13834e-38
-2.70929e-32
-2.30375e-36
-6.85879e-31
-6.2652e-35
-1.48188e-29
-1.4634e-33
-2.74748e-28
-2.95212e-32
-4.54583e-27
-4.91726e-31
-7.41617e-26
-7.18707e-30
-1.52821e-24
-9.73354e-29
-9.10793e-23
-1.13693e-27
-6.69351e-22
-1.19008e-26
-8.30285e-22
-4.96188e-26
-2.17516e-23
3.79776e-24
-6.34051e-27
2.36102e-25
-5.69263e-30
1.02311e-28
-7.1738e-34
1.1501e-31
-4.10421e-36
1.80628e-35
-3.30026e-38
1.18267e-37
1.11076e-39
-3.9531e-40
-2.67155e-47
-9.15103e-51
-5.4382e-45
-1.99611e-48
-5.48561e-43
-2.16251e-46
-3.6735e-41
-1.55657e-44
-1.82877e-39
-8.34193e-43
-7.19825e-38
-3.54325e-41
-2.32829e-36
-1.24087e-39
-6.34875e-35
-3.67961e-38
-1.49104e-33
-9.45445e-37
-3.03079e-32
-2.1158e-35
-5.33326e-31
-3.86654e-34
-1.02745e-29
-6.79572e-33
-1.81297e-28
-1.06956e-31
-3.48137e-27
-1.49693e-30
-3.69544e-25
-2.03808e-29
-3.95031e-24
-1.85666e-28
-2.3377e-25
5.22063e-27
-1.00222e-28
1.61219e-27
-1.13044e-31
1.21762e-30
-1.65911e-35
1.81727e-33
-1.0605e-37
3.50308e-37
-9.1923e-40
2.61608e-39
2.70163e-41
-1.11597e-41
-8.28671e-51
-3.41847e-56
-1.8299e-48
-8.1979e-54
-2.00053e-46
-9.72738e-52
-1.45e-44
-7.65795e-50
-7.82753e-43
-4.49698e-48
-3.35083e-41
-2.09902e-46
-1.18396e-39
-8.11142e-45
-3.54187e-38
-2.66526e-43
-9.15532e-37
-7.60311e-42
-2.0609e-35
-1.90322e-40
-4.2239e-34
-4.20377e-39
-9.24391e-33
-8.52e-38
-1.85392e-31
-1.5555e-36
-4.10552e-30
-2.54726e-35
-5.55506e-28
-3.67057e-34
-6.81345e-27
-4.66741e-33
-1.5985e-27
-1.103e-32
-1.19133e-30
3.88289e-30
-1.79149e-33
1.06026e-32
-3.17865e-37
2.26062e-35
-2.31739e-39
5.62491e-39
-2.21061e-41
4.92745e-41
5.71425e-43
-2.75818e-43
-3.41752e-56
-9.46414e-60
-8.23748e-54
-2.50388e-57
-9.82059e-52
-3.28117e-55
-7.76877e-50
-2.85526e-53
-4.58467e-48
-1.85615e-51
-2.15104e-46
-9.6133e-50
-8.3538e-45
-4.13302e-48
-2.75923e-43
-1.51681e-46
-7.91454e-42
-4.85629e-45
-1.99329e-40
-1.37311e-43
-4.45384e-39
-3.451e-42
-1.09142e-37
-7.99812e-41
-2.51072e-36
-1.69399e-39
-5.42097e-35
-3.2674e-38
-1.27789e-33
-5.69297e-37
-2.4526e-31
-9.5176e-36
-3.7781e-30
-1.09368e-34
-1.03195e-32
7.39883e-33
-2.23316e-35
6.53199e-35
-5.00216e-39
2.18987e-37
-4.28132e-41
7.48098e-41
-4.59301e-43
7.92181e-43
1.03953e-44
-5.97594e-45
-9.46387e-60
-2.69033e-64
-2.51322e-57
-7.95287e-62
-3.30614e-55
-1.16431e-59
-2.88827e-53
-1.1327e-57
-1.8853e-51
-8.2438e-56
-9.80498e-50
-4.78945e-54
-4.23255e-48
-2.31561e-52
-1.55973e-46
-9.58924e-51
-5.01443e-45
-3.47853e-49
-1.42398e-43
-1.12007e-47
-3.60239e-42
-3.22466e-46
-9.51637e-41
-8.58651e-45
-2.49868e-39
-2.11526e-43
-6.1865e-38
-4.79538e-42
-1.67189e-36
-1.00304e-40
-4.16933e-34
-2.2231e-39
-7.43805e-33
-3.48349e-38
-6.25813e-35
1.08149e-36
-2.16545e-37
2.45655e-37
-6.44669e-41
1.62681e-39
-6.68645e-43
7.77479e-43
-8.24894e-45
1.07586e-44
1.6042e-46
-1.13691e-46
-2.69033e-64
-1.13199e-70
-7.97854e-62
-3.78598e-68
-1.17194e-59
-6.26983e-66
-1.14416e-57
-6.90468e-64
-8.35643e-56
-5.69433e-62
-4.87195e-54
-3.75492e-60
-2.36357e-52
-2.065e-58
-9.82086e-51
-9.75406e-57
-3.57413e-49
-4.04926e-55
-1.15526e-47
-1.49904e-53
-3.34017e-46
-4.98535e-52
-9.37978e-45
-1.53718e-50
-2.82298e-43
-4.40678e-49
-8.04623e-42
-1.17603e-47
-2.69492e-40
-2.90463e-46
-7.40298e-38
-6.48585e-45
-1.31842e-36
-1.2388e-43
-2.37534e-37
-1.34781e-42
-1.60798e-39
2.99856e-40
-6.76257e-43
9.06969e-42
-8.82353e-45
6.52499e-45
-1.2817e-46
1.18811e-46
2.15441e-48
-1.90326e-48
-1.1319e-70
-8.8105e-75
-3.79811e-68
-3.37983e-72
-6.30823e-66
-6.42136e-70
-6.9672e-64
-8.1157e-68
-5.76264e-62
-7.68795e-66
-3.8111e-60
-5.83111e-64
-2.10206e-58
-3.69536e-62
-9.95801e-57
-2.01597e-60
-4.14573e-55
-9.6912e-59
-1.54076e-53
-4.17174e-57
-5.15935e-52
-1.62372e-55
-1.60033e-50
-5.86428e-54
-5.27608e-49
-1.97159e-52
-1.75408e-47
-6.22834e-51
-5.63115e-46
-1.8372e-49
-1.81856e-44
-4.98714e-48
-1.01006e-41
-1.2214e-46
-2.98142e-40
-3.39158e-45
-8.93728e-42
2.58036e-43
-5.75783e-45
3.63409e-44
-9.82544e-47
4.42567e-47
-1.72792e-48
1.11145e-48
2.52883e-50
-2.81097e-50
-8.76465e-75
-2.40977e-81
-3.37109e-72
-1.07909e-78
-6.42066e-70
-2.39289e-76
-8.13415e-68
-3.53074e-74
-7.72363e-66
-3.90774e-72
-5.87209e-64
-3.46711e-70
-3.72959e-62
-2.57391e-68
-2.0394e-60
-1.64832e-66
-9.82073e-59
-9.31738e-65
-4.24021e-57
-4.73476e-63
-1.66615e-55
-2.19624e-61
-6.03142e-54
-9.41468e-60
-2.08763e-52
-3.7676e-58
-8.09503e-51
-1.42025e-56
-3.0359e-49
-5.05052e-55
-1.14654e-47
-1.6702e-53
-8.49779e-45
-5.11075e-52
-2.93461e-43
-1.20016e-50
-3.54881e-44
-1.13432e-50
-3.95897e-47
5.83387e-47
-9.25082e-49
2.40618e-49
-2.02596e-50
8.83225e-51
2.60287e-52
-3.67346e-52
-2.40963e-81
-1.3812e-85
-1.08194e-78
-7.37961e-83
-2.40504e-76
-1.95332e-80
-3.55745e-74
-3.44152e-78
-3.94724e-72
-4.55136e-76
-3.51119e-70
-4.82996e-74
-2.61353e-68
-4.29425e-72
-1.6781e-66
-3.2983e-70
-9.51157e-65
-2.24015e-68
-4.8476e-63
-1.37059e-66
-2.25565e-61
-7.67122e-65
-9.70442e-60
-3.97811e-63
-3.90269e-58
-1.9308e-61
-1.58807e-56
-8.83538e-60
-7.06024e-55
-3.82915e-58
-3.18483e-53
-1.56036e-56
-1.45026e-51
-5.80461e-55
-1.25203e-48
-1.85323e-53
-5.31636e-47
-4.41245e-52
-2.18376e-49
1.05288e-49
-7.36592e-51
1.03901e-51
-2.07108e-52
5.96542e-53
2.36062e-54
-4.26076e-54
-1.38117e-85
-3.21174e-90
-7.3952e-83
-2.1122e-87
-1.96132e-80
-6.8835e-85
-3.46251e-78
-1.49369e-82
-4.58832e-76
-2.43424e-80
-4.87906e-74
-3.18585e-78
-4.3468e-72
-3.49686e-76
-3.34556e-70
-3.31996e-74
-2.27703e-68
-2.79131e-72
-1.39618e-66
-2.11756e-70
-7.83259e-65
-1.47217e-68
-4.07226e-63
-9.50096e-67
-1.98256e-61
-5.75154e-65
-9.116e-60
-3.29088e-63
-4.45276e-58
-1.78583e-61
-2.34806e-56
-9.1733e-60
-1.26112e-54