/*--------------------------------*- C++ -*----------------------------------*\
| =========                 |                                                 |
| \\      /  F ield         | OpenFOAM: The Open Source CFD Toolbox           |
|  \\    /   O peration     | Version:  5.x                                   |
|   \\  /    A nd           | Web:      www.OpenFOAM.org                      |
|    \\/     M anipulation  |                                                 |
\*---------------------------------------------------------------------------*/
FoamFile
{
    version     2.0;
    format      ascii;
    class       volScalarField;
    location    "0.05";
    object      alpha.water;
}
// * * * * * * * * * * * * * * * * * * * * * * * * * * * * * * * * * * * * * //

dimensions      [0 0 0 0 0 0 0];

internalField   nonuniform List<scalar> 
2268
(
1
1
1
0.999999
1
1
1
1
1
1
1
1
1
0.952179
0.543071
0.0239849
-2.84475e-06
-2.0449e-07
-3.91892e-08
-8.70512e-09
-1.96955e-09
-4.38057e-10
-6.55608e-11
0.999999
1
1
1
1
1
1
1
1
1
1
1
0.997845
0.735298
0.225786
0.0216836
0.0052744
0.00127444
0.000217354
2.6327e-05
2.15033e-06
9.13631e-08
-1.93801e-10
1
1
1
1
1
1
1
1
1
1
1
1
0.986433
0.470271
0.0402396
0.0112362
0.00528357
0.00162953
0.000212243
1.51336e-05
1.24341e-06
5.39263e-08
-7.6883e-11
1
1
1
1
1
1
1
1
1
1
1
1
0.954711
0.305873
0.0142782
0.00482436
0.00167555
0.000575364
7.83745e-05
6.59274e-06
5.60172e-07
2.63377e-08
-1.73987e-11
1
1
1
1
0.999999
0.999999
1
1
1
1
1
1
0.905479
0.213873
0.00747378
0.00198744
0.00053346
0.000113939
1.91271e-05
2.48997e-06
2.33576e-07
1.22614e-08
-1.59343e-11
1
1
1
1
0.999999
1
1
1
1
1
1
1
0.849593
0.144819
0.00399436
0.000803852
0.000191718
3.98605e-05
6.79028e-06
9.25959e-07
9.44541e-08
5.66256e-09
-6.72474e-13
1
1
1
1
0.999999
1
1
1
1
1
1
1
0.79637
0.0990766
0.0022271
0.000337674
6.92523e-05
1.37749e-05
2.36266e-06
3.37781e-07
3.796e-08
2.70113e-09
-4.22625e-13
1
1
1
1
1
1
1
1
1
1
1
1
0.751592
0.0720503
0.00130351
0.000156995
2.65673e-05
4.86199e-06
8.2352e-07
1.22728e-07
1.53112e-08
1.30748e-09
0
3.39049e-26
1.93459e-26
2.05986e-28
-1.48983e-38
-7.21147e-40
2.81255e-51
4.26888e-35
2.03824e-36
2.13242e-38
3.91009e-40
6.38446e-42
9.12344e-44
1.11944e-45
1.14986e-47
9.5447e-50
6.07335e-52
2.71423e-54
7.18493e-57
7.13387e-60
7.2145e-24
2.38229e-24
2.07504e-26
7.47961e-29
1.58161e-30
3.73756e-32
5.41926e-33
1.41281e-34
2.57378e-36
4.71663e-38
7.68779e-40
1.09343e-41
1.32673e-43
1.33218e-45
1.05865e-47
6.18503e-50
2.28856e-52
3.2569e-55
9.57155e-61
5.7407e-22
1.4436e-22
1.34913e-24
8.84146e-27
1.9472e-28
4.75534e-30
3.24743e-31
7.63162e-33
1.44867e-34
2.59108e-36
4.11471e-38
5.67827e-40
6.63204e-42
6.31486e-44
4.61361e-46
2.28569e-48
8.88843e-51
1.78983e-53
7.41361e-59
2.67451e-20
5.80232e-21
6.12677e-23
4.8347e-25
1.18086e-26
2.95447e-28
1.34723e-29
2.98734e-31
5.64265e-33
9.8348e-35
1.5161e-36
2.01596e-38
2.23643e-40
1.96005e-42
1.55401e-44
9.36539e-47
3.7727e-49
7.59146e-52
3.12034e-57
8.42368e-19
1.70739e-19
2.04995e-21
1.4946e-23
4.05786e-25
1.2235e-26
4.24859e-28
8.92676e-30
1.6556e-31
2.79718e-33
4.14973e-35
5.22967e-37
6.23089e-39
6.28307e-41
5.03788e-43
3.03521e-45
1.2183e-47
2.44122e-50
9.95646e-56
2.00421e-17
3.91839e-18
5.28302e-20
3.61526e-22
1.0361e-23
4.6756e-25
1.07676e-26
2.09351e-28
3.80475e-30
6.17412e-32
9.46344e-34
1.33927e-35
1.61954e-37
1.62302e-39
1.29966e-41
7.80062e-44
3.11643e-46
6.21513e-49
2.51099e-54
1.25107e-15
2.0928e-16
1.56975e-18
1.80045e-20
3.96499e-22
9.96685e-24
2.10077e-25
4.05376e-27
7.0958e-29
1.25347e-30
2.035e-32
2.8727e-34
3.45686e-36
3.45229e-38
2.75583e-40
1.64563e-42
6.53978e-45
1.29725e-47
5.19431e-53
3.80989e-14
2.81749e-15
3.42844e-17
4.4758e-19
6.62233e-21
1.42624e-22
2.9802e-24
5.6631e-26
1.03509e-27
1.89431e-29
3.07089e-31
4.31759e-33
5.17383e-35
5.15288e-37
4.09185e-39
2.4299e-41
9.60104e-44
1.89336e-46
7.50459e-52
1
1
1
1
1
1
1
1
1
1
1
1
0.687983
0.0448024
0.000650229
6.2453e-05
7.74628e-06
1.1447e-06
1.77033e-07
2.68771e-08
3.97112e-09
6.38301e-10
1.40648e-10
1
1
1
1
1
1
1
1
1
1
1
1
0.592491
0.0185083
0.000304722
2.67018e-05
2.69821e-06
3.19828e-07
4.25718e-08
6.10152e-09
9.31882e-10
1.70905e-10
5.87088e-11
1
1
1
1
1
1
1
1
1
1
1
1
0.511849
0.00702734
0.000139891
1.10676e-05
9.96517e-07
1.00219e-07
1.1338e-08
1.42651e-09
2.15512e-10
3.68946e-11
1.06366e-11
1
1
1
1
1
1
1
1
1
1
1
1
0.442147
0.00262493
7.01075e-05
4.81642e-06
3.89078e-07
3.38236e-08
3.29347e-09
3.69512e-10
5.17693e-11
1.11462e-11
1.97904e-12
1
1
1
1
1
1
1
1
1
1
1
1
0.381934
0.000720631
3.70388e-05
2.24533e-06
1.58138e-07
1.20603e-08
1.02441e-09
1.14685e-10
1.34865e-11
3.10969e-12
3.82733e-13
1
1
1
1
1
1
1
1
1
1
1
1
0.329539
0.000426436
1.88267e-05
1.04535e-06
6.6587e-08
4.47091e-09
3.56316e-10
3.63721e-11
6.33176e-12
8.55369e-13
7.62043e-14
1
1
1
1
1
1
1
1
1
1
1
1
0.284615
0.000266001
9.72438e-06
5.2208e-07
3.01295e-08
1.78013e-09
1.35531e-10
1.17148e-11
2.48603e-12
2.38226e-13
1.69238e-14
1
1
1
1
1
1
1
1
1
1
1
1
0.245757
0.000189297
6.21873e-06
2.9989e-07
1.48965e-08
7.9214e-10
5.62366e-11
4.049e-12
8.59888e-13
6.81194e-14
4.07384e-15
1
1
1
1
1
1
1
1
1
1
1
1
0.211885
0.000143471
4.43565e-06
1.81561e-07
7.86316e-09
3.92715e-10
2.56697e-11
1.57398e-12
3.11152e-13
2.07069e-14
1.06273e-15
1
1
1
1
1
1
1
1
1
1
1
1
0.182253
0.000105096
3.35587e-06
1.1737e-07
4.56247e-09
1.9492e-10
1.23689e-11
1.09894e-12
1.22802e-13
6.33245e-15
2.97413e-16
1
1
1
1
1
1
1
1
1
1
1
1
0.15626
7.3438e-05
2.2565e-06
7.53777e-08
2.72604e-09
1.00576e-10
5.79468e-12
7.2473e-13
4.95684e-14
2.05008e-15
8.62092e-17
1
1
1
1
1
1
1
1
1
1
1
1
0.133429
4.94491e-05
1.12016e-06
4.54996e-08
1.52675e-09
5.31392e-11
2.59634e-12
3.76174e-13
1.90852e-14
6.6409e-16
2.46186e-17
1
1
1
1
0.999999
1
1
1
1
0.999999
0.999999
0.999999
0.113445
3.32515e-05
9.37146e-07
2.56669e-08
8.90781e-10
2.72385e-11
1.1603e-12
1.67736e-13
6.90886e-15
2.06786e-16
6.68066e-18
1
0.999998
0.999998
0.999998
0.999998
0.999998
0.999997
0.999997
0.999997
0.999996
0.999995
0.999991
0.0959152
2.5428e-05
5.87078e-07
1.73811e-08
5.01391e-10
1.57758e-11
5.1265e-13
6.87772e-14
2.38253e-15
6.21205e-17
1.70991e-18
1
0.999987
0.999985
0.999984
0.999983
0.999981
0.99998
0.999977
0.999974
0.99997
0.999964
0.999933
0.077781
2.23915e-05
6.78257e-07
1.69117e-08
7.74342e-11
-6.1992e-12
2.77163e-13
3.37378e-14
9.51137e-16
1.99821e-17
4.35302e-19
1
0.999897
0.99988
0.999874
0.999866
0.999856
0.999844
0.999828
0.99981
0.999781
0.999748
0.99953
0.0640574
1.2605e-05
3.9667e-07
6.31052e-09
1.5922e-10
-7.30761e-13
-1.69619e-13
2.43694e-14
4.64351e-16
6.64452e-18
1.03387e-19
1
0.999171
0.99904
0.999004
0.998955
0.998892
0.998814
0.998718
0.998609
0.998425
0.998227
0.996726
0.139165
8.84128e-06
1.83909e-07
6.5703e-09
1.55957e-10
2.21824e-12
6.14662e-15
1.25834e-15
1.14301e-16
1.27212e-18
1.44299e-20
0.941699
0.940306
0.938965
0.936759
0.933753
0.929919
0.925166
0.919236
0.912786
0.898545
0.884113
0.742816
0.227878
8.35801e-05
3.91068e-06
1.93017e-07
6.89128e-09
1.61543e-10
1.18283e-13
-1.74933e-15
1.62476e-17
1.20448e-19
1.01532e-21
0.283057
0.282516
0.279541
0.275078
0.269148
0.261855
0.253163
0.242777
0.232377
0.208342
0.187882
0.0497703
0.0599868
0.0206564
0.000183182
8.60407e-06
7.73925e-08
1.84121e-11
6.38851e-16
-7.40596e-17
7.9222e-19
5.92008e-21
4.86867e-23
-1.63826e-35
9.86089e-23
1.65696e-20
1.35836e-18
7.26367e-17
2.84158e-15
8.61815e-14
2.0994e-12
4.20718e-11
7.00574e-10
1.00676e-08
1.22791e-07
1.35108e-06
0.00530135
0.00158821
4.11516e-05
4.49701e-07
-4.07845e-11
1.11358e-15
-4.50272e-18
3.70441e-20
3.32128e-22
2.70393e-24
-2.84915e-38
1.04709e-22
1.83617e-20
1.67376e-18
1.01624e-16
4.59766e-15
1.64654e-13
4.8465e-12
1.18544e-10
1.95816e-09
2.34963e-08
2.20139e-07
5.39931e-05
0.000177727
0.000401904
1.24776e-05
1.0312e-07
-5.5974e-12
-1.3979e-14
-2.66127e-19
2.91875e-21
1.93706e-23
1.45924e-25
0
8.83296e-24
1.52597e-21
1.32706e-19
7.62489e-18
3.24019e-16
8.80521e-15
1.90318e-13
3.40934e-12
5.02863e-11
6.09259e-10
5.96862e-09
9.05371e-07
4.60589e-06
1.06955e-06
3.02632e-08
2.85109e-11
-2.17964e-12
-1.02778e-15
-1.27256e-18
1.28489e-22
9.80185e-25
6.89919e-27
0
3.09135e-25
3.84958e-23
2.10015e-21
8.40804e-20
2.614e-18
6.49678e-17
1.29908e-15
1.90001e-14
1.39991e-13
-7.54655e-13
-4.50784e-11
3.42801e-08
1.52747e-07
2.22725e-08
2.36456e-09
3.63675e-12
-4.16983e-13
-1.37781e-16
-1.20031e-20
5.13893e-24
4.18544e-26
2.79525e-28
0
-1.24201e-27
-2.47909e-25
-2.10564e-23
-1.1441e-21
-4.53177e-20
-1.41463e-18
-3.61232e-17
-7.28918e-16
-2.29729e-14
-6.95708e-13
-9.87021e-12
1.5167e-10
6.68589e-10
1.56743e-10
1.30168e-10
-1.75787e-14
-2.01811e-14
-1.95528e-17
-2.79126e-22
1.28308e-25
1.40412e-27
9.15405e-30
-9.55509e-31
-1.4733e-28
-1.17045e-26
-6.23192e-25
-2.46016e-23
-7.59104e-22
-1.9328e-20
-4.05494e-19
-7.42834e-18
-1.44313e-16
-3.89072e-15
-5.43113e-14
-3.05473e-14
2.38852e-14
2.52282e-13
1.98653e-12
2.17343e-15
-1.06791e-15
-2.06608e-19
3.28977e-25
1.91506e-27
3.07595e-29
2.2789e-31
8.56289e-49
1.93085e-33
1.65905e-31
1.00603e-29
4.77761e-28
1.75242e-26
5.11371e-25
1.23902e-23
7.88136e-24
-2.29067e-21
-3.35871e-20
-6.6038e-18
1.36653e-17
1.25796e-14
1.82453e-13
1.65575e-14
9.63085e-16
1.5822e-19
1.25832e-22
1.50153e-26
8.46331e-29
6.47045e-31
1.07284e-32
1.60071e-51
2.26339e-37
-1.95346e-35
-1.96495e-33
9.05491e-32
8.55001e-30
2.89549e-28
7.35606e-27
1.60496e-25
-1.34475e-24
1.02689e-21
5.54969e-20
2.38557e-18
2.66235e-16
1.91497e-15
3.07224e-17
2.52184e-17
4.71116e-21
4.0131e-24
4.60704e-28
3.23587e-30
2.37012e-32
4.02271e-34
-1.35571e-55
-2.2927e-40
-1.23886e-38
-2.86656e-37
-2.66313e-35
-2.10632e-33
-1.0798e-31
-4.15724e-30
-1.26573e-28
-4.54125e-27
6.32634e-25
4.87165e-23
2.41518e-21
3.14332e-19
2.61418e-18
4.9997e-19
1.26666e-19
1.08979e-22
1.07995e-25
1.52662e-29
9.42285e-32
8.06123e-34
1.32362e-35
2.85994e-60
-3.00658e-44
-7.38543e-42
-7.74716e-40
-5.3022e-38
-2.65304e-36
-1.03863e-34
-3.32896e-33
-8.1668e-32
-1.66514e-30
4.02796e-29
6.64254e-27
1.94895e-25
5.66439e-24
1.04852e-21
1.16216e-20
2.98705e-22
1.92436e-24
2.41723e-27
3.94924e-31
2.81327e-33
2.35104e-35
3.8778e-37
-1.90371e-48
-3.87893e-46
-4.05155e-44
-2.877e-42
-1.51842e-40
-6.32383e-39
-2.15789e-37
-6.24826e-36
-1.64315e-34
-3.67759e-33
4.36285e-32
5.29803e-30
1.84363e-28
6.37127e-27
1.59642e-24
2.04381e-23
1.82135e-26
2.55055e-26
4.21494e-29
8.19871e-33
6.59225e-35
6.00732e-37
1.01005e-38
5.13459e-69
1.7378e-53
3.1099e-51
3.4222e-49
2.64474e-47
1.60289e-45
7.21436e-44
2.79735e-42
9.6043e-41
2.98025e-39
1.3439e-37
4.79146e-35
2.10262e-33
6.64806e-32
2.1808e-30
6.66577e-28
1.06789e-26
2.47038e-28
5.72174e-31
1.40611e-34
1.3227e-36
1.34391e-38
2.33868e-40
2.00273e-71
-4.66592e-59
2.46657e-57
2.85176e-54
8.19151e-52
8.08197e-50
4.10269e-48
1.76351e-46
6.65965e-45
2.30651e-43
2.36773e-41
2.84235e-38
1.75601e-36
6.72617e-35
2.60664e-33
1.12572e-30
2.08868e-29
1.05584e-31
6.27647e-33
2.01268e-36
2.26959e-38
2.63299e-40
4.53296e-42
-6.96843e-76
-2.70165e-62
-7.75575e-60
-6.08485e-58
-4.1077e-56
-2.43227e-54
-1.66693e-52
-1.01475e-50
-5.61229e-49
-1.17519e-47
6.19312e-47
1.25465e-42
1.65282e-40
8.17573e-39
4.28085e-37
2.30892e-34
4.66614e-33
1.35571e-36
2.10682e-35
2.36293e-38
2.31666e-40
4.2213e-42
6.8606e-44
1.17538e-83
2.36929e-68
2.2853e-66
7.40144e-65
-9.11504e-63
-1.51454e-60
-1.19075e-58
-7.39984e-57
-3.69375e-55
1.78575e-53
4.53632e-51
2.56008e-49
1.50433e-46
1.11563e-44
5.44438e-43
2.38587e-41
2.16737e-38
6.32382e-37
2.32936e-38
2.27982e-40
1.81907e-42
4.57601e-44
9.14511e-46
-9.20804e-74
-3.51646e-71
-6.91939e-69
-9.20883e-67
-9.19829e-65
-7.31321e-63
-4.94525e-61
-2.80262e-59
-1.50602e-57
-6.01707e-56
6.72631e-57
1.26285e-54
1.19654e-50
3.52048e-48
2.38503e-46
1.32259e-44
1.82129e-41
6.21591e-40
2.33372e-43
1.8448e-42
1.1755e-44
4.24708e-46
1.08747e-47
-1.40846e-94
9.73927e-79
2.95714e-76
5.88331e-74
8.68491e-72
1.02208e-69
1.00042e-67
8.14163e-66
5.92914e-64
3.94522e-62
2.44143e-60
1.42768e-58
8.56958e-57
3.95222e-54
5.7215e-52
4.63335e-50
7.63084e-48
3.2327e-45
1.14223e-43
1.16241e-44
6.22703e-47
3.44356e-48
1.16088e-49
-3.66192e-98
4.06082e-83
1.37664e-80
3.10389e-78
5.27564e-76
7.2537e-74
8.45699e-72
8.50103e-70
7.65626e-68
6.30355e-66
4.83682e-64
3.50761e-62
2.43881e-60
1.80632e-58
1.1316e-55
1.58158e-53
1.40213e-51
4.12217e-48
2.11966e-46
1.60314e-47
2.7149e-49
2.45543e-50
1.12363e-51
3.99246e-103
2.53215e-88
9.78527e-86
2.89854e-83
6.55888e-81
1.19109e-78
1.81724e-76
2.402e-74
2.79404e-72
3.09385e-70
3.15426e-68
2.96334e-66
2.68166e-64
2.35793e-62
2.35693e-60
3.40898e-57
6.01494e-55
3.60966e-51
2.31892e-49
1.0841e-50
9.84742e-52
1.56241e-52
9.9962e-54
8.51449e-109
-1.99853e-93
-8.64057e-91
-2.43663e-88
-5.00976e-86
-7.8646e-84
-9.3848e-82
-7.56163e-80
-1.37629e-78
1.38808e-75
1.11133e-73
3.39335e-71
4.30101e-69
5.38993e-67
6.54185e-65
8.82084e-63
6.9114e-59
1.44055e-54
1.21064e-52
1.91776e-54
3.04703e-54
9.0419e-55
8.30469e-56
-5.12102e-104
-1.16113e-100
-8.68047e-98
-4.22503e-95
-1.53951e-92
-4.4448e-90
-1.05869e-87
-2.12608e-85
-3.90798e-83
-4.68834e-81
-2.46095e-80
8.4369e-78
1.44172e-75
4.57811e-73
9.21204e-71
1.85149e-68
4.10802e-65
5.56315e-59
9.80488e-57
1.47973e-56
8.80569e-57
4.86784e-57
6.55692e-58
1.52136e-121
-1.75596e-108
-1.85198e-105
-1.27975e-102
-6.5319e-100
-2.61288e-97
-8.42164e-95
-2.17986e-92
-4.57518e-90
-9.27417e-88
-4.8043e-86
-3.69969e-83
8.75752e-82
5.27721e-79
3.16694e-76
1.89152e-73
1.14659e-70
8.20109e-68
1.5609e-61
3.63318e-59
3.99009e-59
3.1736e-59
5.56082e-60
3.74328e-134
-2.14012e-120
-7.0581e-117
-1.52358e-113
-2.44275e-110
-3.10231e-107
-3.23801e-104
-2.82918e-101
-2.07598e-98
-1.22532e-95
-4.73868e-93
-6.21722e-92
-5.56978e-88
-4.21329e-90
-3.72916e-90
-5.65562e-88
-1.18808e-85
1.77389e-73
1.28906e-65
2.37829e-62
8.99865e-62
4.99146e-60
3.983e-61
5.00766e-14
1.62914e-11
7.84273e-12
8.2858e-13
1.14804e-11
7.65039e-12
2.12296e-12
2.59393e-13
2.22544e-12
1.0863e-12
3.36655e-13
4.01448e-14
2.36656e-13
1.45147e-13
3.75274e-14
5.01363e-15
4.41094e-14
2.12775e-14
4.63118e-15
6.3556e-16
8.1464e-15
3.37514e-15
6.36224e-16
8.30784e-17
1.45788e-15
5.73967e-16
9.64876e-17
1.13735e-17
2.8158e-16
1.05671e-16
1.57318e-17
1.64702e-18
5.91445e-17
2.10054e-17
2.74507e-18
2.52895e-19
1.33591e-17
4.44746e-18
5.05944e-19
4.09146e-20
3.10997e-18
9.67021e-19
9.54531e-20
6.81548e-21
7.06901e-19
2.05537e-19
1.76125e-20
1.12247e-21
1.50324e-19
4.08342e-20
3.03282e-21
1.7421e-22
2.90829e-20
7.34771e-21
4.68617e-22
2.43561e-23
4.8888e-21
1.17352e-21
6.29353e-23
2.9454e-24
6.8187e-22
1.52475e-22
6.87713e-24
2.9262e-25
1.24645e-22
1.34312e-23
5.2364e-25
2.22785e-26
2.20501e-23
7.64317e-25
2.93179e-26
1.28236e-27
1.19868e-24
3.45563e-26
1.33902e-27
6.08998e-29
4.89333e-26
1.62357e-27
6.26295e-29
2.97639e-30
1.97923e-27
6.78622e-29
2.64815e-30
1.369e-31
6.61514e-29
2.42349e-30
1.00027e-31
5.63209e-33
3.38817e-30
1.22789e-31
4.995e-33
2.01856e-34
1.70761e-31
6.07267e-33
2.41695e-34
5.87401e-36
7.71382e-33
2.73939e-34
1.05883e-35
2.12421e-37
3.22905e-34
1.13346e-35
4.20252e-37
8.86997e-39
1.2086e-35
4.06234e-37
1.43243e-38
3.41197e-40
3.85491e-37
1.22054e-38
4.40369e-40
1.20213e-41
1.00836e-38
3.27972e-40
1.21171e-41
3.87772e-43
2.34149e-40
7.88357e-42
3.00246e-43
1.14479e-44
4.8329e-42
1.69752e-43
6.71153e-45
2.89153e-46
8.88884e-44
3.28273e-45
1.35696e-46
6.08976e-48
1.46227e-45
5.72321e-47
2.49093e-48
1.17038e-49
2.16257e-47
9.04179e-49
4.17256e-50
2.06558e-51
2.89438e-49
1.30293e-50
6.4189e-52
3.3684e-53
3.53513e-51
1.72646e-52
9.13938e-54
5.11329e-55
3.98047e-53
2.12409e-54
1.21558e-55
7.28909e-57
4.18218e-55
2.45427e-56
1.52656e-57
9.85607e-59
4.15837e-57
2.69814e-58
1.83217e-59
1.27984e-60
3.9882e-59
2.87035e-60
2.13394e-61
1.62208e-62
3.983e-61
3.19305e-62
2.60432e-63
2.51768e-64
3.19305e-62
2.60432e-63
2.1212e-64
1.55308e-65
1.44974e-13
2.81024e-15
7.84815e-17
2.67372e-18
7.78943e-20
2.09067e-21
5.17119e-23
1.16674e-24
2.37584e-26
4.31834e-28
6.91541e-30
9.60018e-32
1.13083e-33
1.09562e-35
8.3475e-38
4.62498e-40
1.57524e-42
2.25598e-45
6.45392e-51
3.98626e-14
7.50381e-16
2.6508e-17
1.10194e-18
3.87467e-20
1.20673e-21
3.3247e-23
8.1592e-25
1.78395e-26
3.46199e-28
5.92156e-30
8.83488e-32
1.13325e-33
1.2277e-35
1.09021e-37
7.61063e-40
3.90657e-42
1.30523e-44
2.11062e-47
5.8934e-15
1.18524e-16
4.75227e-18
2.11248e-19
7.85896e-21
2.59395e-22
7.56536e-24
1.9535e-25
4.46522e-27
9.00989e-29
1.59593e-30
2.45986e-32
3.25762e-34
3.6241e-36
3.3085e-38
2.38232e-40
1.26896e-42
4.44195e-45
7.62173e-48
7.41612e-16
1.63227e-17
7.02669e-19
3.17301e-20
1.19984e-21
4.02351e-23
1.19366e-24
3.13514e-26
7.28161e-28
1.4905e-29
2.67318e-31
4.1635e-33
5.56006e-35
6.25194e-37
5.76644e-39
4.19471e-41
2.2584e-43
8.00115e-46
1.3926e-48
9.2404e-17
2.15234e-18
9.81985e-20
4.51298e-21
1.74174e-22
5.93738e-24
1.7861e-25
4.74628e-27
1.11312e-28
2.29692e-30
4.14726e-32
6.49665e-34
8.7208e-36
9.85534e-38
9.13856e-40
6.68873e-42
3.62861e-44
1.29821e-46
2.28871e-49
1.16331e-17
2.7162e-19
1.27006e-20
5.86685e-22
2.28956e-23
7.88107e-25
2.39146e-26
6.40194e-28
1.51048e-29
3.13179e-31
5.67588e-33
8.91795e-35
1.20022e-36
1.35987e-38
1.26475e-40
9.29292e-43
5.06831e-45
1.82689e-47
3.25403e-50
1.51249e-18
3.38485e-20
1.57056e-21
7.16668e-23
2.78872e-24
9.58696e-26
2.90849e-27
7.78697e-29
1.83733e-30
3.80856e-32
6.89881e-34
1.08317e-35
1.45674e-37
1.64972e-39
1.53443e-41
1.12855e-43
6.16941e-46
2.23314e-48
4.0035e-51
2.05809e-19
4.25335e-21
1.90227e-22
8.41679e-24
3.21583e-25
1.09054e-26
3.27424e-28
8.69338e-30
2.03678e-31
4.19583e-33
7.5577e-35
1.18057e-36
1.58048e-38
1.78283e-40
1.6531e-42
1.21337e-44
6.62874e-47
2.40207e-49
4.31975e-52
2.94644e-20
5.45129e-22
2.29038e-23
9.64094e-25
3.55874e-26
1.17487e-27
3.45323e-29
9.01064e-31
2.08048e-32
4.23223e-34
7.5396e-36
1.16631e-37
1.548e-39
1.73318e-41
1.59697e-43
1.16635e-45
6.34987e-48
2.29716e-50
4.13181e-53
4.40998e-21
7.14454e-23
2.76272e-24
1.08592e-25
3.80963e-27
1.2079e-28
3.43684e-30
8.73188e-32
1.97158e-33
3.935e-35
6.89555e-37
1.05146e-38
1.37815e-40
1.52627e-42
1.39328e-44
1.00979e-46
5.46481e-49
1.96891e-51
3.53332e-54
6.72539e-22
9.47184e-24
3.329e-25
1.20246e-26
3.94954e-28
1.18731e-29
3.23523e-31
7.93213e-33
1.73853e-34
3.38357e-36
5.80267e-38
8.68473e-40
1.12006e-41
1.22323e-43
1.10338e-45
7.91717e-48
4.25025e-50
1.5221e-52
2.71995e-55
1.00047e-22
1.23687e-24
3.9378e-26
1.29339e-27
3.93369e-29
1.10984e-30
2.87042e-32
6.74065e-34
1.42516e-35
2.69076e-37
4.4968e-39
6.58273e-41
8.32926e-43
8.94844e-45
7.95939e-47
5.64434e-49
3.00114e-51
1.06679e-53
1.89561e-56
1.37965e-23
1.53147e-25
4.43284e-27
1.31964e-28
3.69802e-30
9.73842e-32
2.37798e-33
5.323e-35
1.08119e-36
1.97348e-38
3.20477e-40
4.57781e-42
5.67209e-44
5.98526e-46
5.24299e-48
3.67064e-50
1.9313e-52
6.80857e-55
1.20202e-57
1.67713e-24
1.72498e-26
4.5733e-28
1.23841e-29
3.20335e-31
7.87628e-33
1.81472e-34
3.86805e-36
7.53881e-38
1.3288e-39
2.09475e-41
2.91738e-43
3.53737e-45
3.66439e-47
3.16008e-49
2.18358e-51
1.13663e-53
3.9733e-56
6.96733e-59
1.70482e-25
1.70044e-27
4.16961e-29
1.03677e-30
2.49484e-32
5.76122e-34
1.25768e-35
2.55985e-37
4.79653e-39
8.17512e-41
1.25227e-42
1.70175e-44
2.02053e-46
2.05597e-48
1.74639e-50
1.19158e-52
6.13903e-55
2.12875e-57
3.70835e-60
1.3435e-26
1.41848e-28
3.26155e-30
7.55835e-32
1.71365e-33
3.75475e-35
7.82758e-37
1.53046e-38
2.76945e-40
4.58e-42
6.83549e-44
9.08324e-46
1.05795e-47
1.05901e-49
8.87172e-52
5.98404e-54
3.05437e-56
1.05149e-58
1.82075e-61
7.60339e-28
9.78945e-30
2.14859e-31
4.73421e-33
1.02743e-34
2.16317e-36
4.34972e-38
8.23369e-40
1.44768e-41
2.33419e-43
3.40732e-45
4.44138e-47
5.08774e-49
5.02097e-51
4.15618e-53
2.77574e-55
1.40559e-57
4.80967e-60
8.28542e-63
2.82657e-29
5.56999e-31
1.1889e-32
2.54567e-34
5.37364e-36
1.10111e-37
2.15781e-39
3.98724e-41
6.8573e-43
1.08384e-44
1.55431e-46
1.99466e-48
2.2542e-50
2.19896e-52
1.80254e-54
1.19425e-56
6.00955e-59
2.04685e-61
3.51128e-64
1.31065e-30
2.72621e-32
5.67925e-34
1.18585e-35
2.46278e-37
4.9725e-39
9.59552e-41
1.74442e-42
2.95377e-44
4.60162e-46
6.51266e-48
8.26012e-50
9.23948e-52
8.9339e-54
7.26955e-56
4.78785e-58
2.39841e-60
8.14356e-63
1.39257e-65
6.91576e-32
1.3194e-33
2.57863e-35
5.06853e-37
1.02652e-38
2.0332e-40
3.8452e-42
6.92605e-44
1.16263e-45
1.79534e-47
2.51869e-49
3.16921e-51
3.52026e-53
3.38339e-55
2.73948e-57
1.79735e-59
8.97918e-62
3.04398e-64
5.19369e-67
3.49542e-33
6.33282e-35
1.18101e-36
2.22102e-38
4.26637e-40
8.02358e-42
1.44596e-43
2.56443e-45
4.24207e-47
6.46564e-49
9.03265e-51
1.13224e-52
1.25326e-54
1.20055e-56
9.69552e-59
6.34971e-61
3.1692e-63
1.07428e-65
1.8303e-68
1.65734e-34
2.89695e-36
5.21306e-38
9.46817e-40
1.75371e-41
3.18498e-43
5.55488e-45
9.45051e-47
1.50416e-48
2.21954e-50
3.07192e-52
3.81642e-54
4.19159e-56
4.00946e-58
3.23782e-60
2.12119e-62
1.05966e-64
3.59705e-67
6.12249e-70
7.3468e-36
1.25083e-37
2.18905e-39
3.865e-41
6.96462e-43
1.2315e-44
2.09335e-46
3.46835e-48
5.38612e-50
7.76287e-52
1.04355e-53
1.26359e-55
1.35714e-57
1.28961e-59
1.03793e-61
6.78455e-64
3.38615e-66
1.14992e-68
1.95347e-71
3.02312e-37
5.07311e-39
8.71774e-41
1.50818e-42
2.66017e-44
4.60339e-46
7.6612e-48
1.24437e-49
1.89641e-51
2.68532e-53
3.54754e-55
4.22961e-57
4.48205e-59
4.19034e-61
3.32572e-63
2.15086e-65
1.06561e-67
3.60439e-70
6.10243e-73
1.14602e-38
1.92351e-40
3.27959e-42
5.60667e-44
9.74884e-46
1.66111e-47
2.72092e-49
4.35022e-51
6.52956e-53
9.11459e-55
1.18869e-56
1.40087e-58
1.46943e-60
1.36102e-62
1.07196e-64
6.89329e-67
3.4023e-69
1.149e-71
1.94057e-74
3.96741e-40
6.79525e-42
1.1622e-43
1.98078e-45
3.42035e-47
5.77442e-49
9.35964e-51
1.47993e-52
2.19674e-54
3.03351e-56
3.91624e-58
4.57278e-60
4.75763e-62
4.37687e-64
3.42864e-66
2.19591e-68
1.08105e-70
3.648e-73
6.14534e-76
1.25935e-41
2.23286e-43
3.8737e-45
6.64078e-47
1.14725e-48
1.93117e-50
3.11434e-52
4.89303e-54
7.21201e-56
9.88748e-58
1.2675e-59
1.47024e-61
1.52061e-63
1.39178e-65
1.08576e-67
6.93264e-70
3.40648e-72
1.14912e-74
1.93036e-77
3.65867e-43
6.82418e-45
1.2141e-46
2.11192e-48
3.67687e-50
6.20949e-52
1.00165e-53
1.571e-55
2.30865e-57
3.15338e-59
4.02623e-61
4.65151e-63
4.7929e-65
4.37242e-67
3.40186e-69
2.16781e-71
1.06396e-73
3.58945e-76
6.01178e-79
9.78642e-45
1.94305e-46
3.58219e-48
6.37488e-50
1.12628e-51
1.91967e-53
3.11352e-55
4.89689e-57
7.20299e-59
9.83583e-61
1.25451e-62
1.44722e-64
1.48881e-66
1.3561e-68
1.05371e-70
6.7085e-73
3.29106e-75
1.11086e-77
1.85467e-80
2.44514e-46
5.15249e-48
9.97254e-50
1.82924e-51
3.30068e-53
5.70983e-55
9.35716e-57
1.48216e-58
2.19049e-60
3.00019e-62
3.8335e-64
4.42665e-66
4.55586e-68
4.15038e-70
3.22503e-72
2.05339e-74
1.00758e-76
3.40394e-79
5.66448e-82
5.69229e-48
1.28502e-49
2.62831e-51
5.00128e-53
9.27009e-55
1.63599e-56
2.72138e-58
4.359e-60
6.49593e-62
8.95192e-64
1.149e-65
1.33115e-67
1.37328e-69
1.25324e-71
9.75096e-74
6.21483e-76
3.05219e-78
1.03238e-80
1.71207e-83
1.33537e-49
3.03303e-51
6.5844e-53
1.30673e-54
2.50068e-56
4.52333e-58
7.66979e-60
1.24699e-61
1.88007e-63
2.61449e-65
3.3795e-67
3.93668e-69
4.07843e-71
3.73404e-73
2.91255e-75
1.85987e-77
9.14731e-80
3.09865e-82
5.12039e-85
3.22737e-51
6.83801e-53
1.57492e-54
3.27375e-56
6.49654e-58
1.20946e-59
2.09842e-61
3.475e-63
5.31689e-65
7.48138e-67
9.76177e-69
1.14565e-70
1.19394e-72
1.0982e-74
8.59675e-77
5.50455e-79
2.71264e-81
9.20512e-84
1.51549e-86
7.08205e-53
1.48147e-54
3.61294e-56
7.89239e-58
1.63022e-59
3.1352e-61
5.58517e-63
9.45016e-65
1.47146e-66
2.10017e-68
2.77213e-70
3.28385e-72
3.44787e-74
3.19016e-76
2.50873e-78
1.61191e-80
7.96301e-83
2.70746e-85
4.44049e-88
1.27473e-54
3.08239e-56
7.98177e-58
1.83763e-59
3.96397e-61
7.90109e-63
1.44964e-64
2.51317e-66
3.99234e-68
5.79265e-70
7.74976e-72
9.28154e-74
9.83169e-76
9.16101e-78
7.24373e-80
4.67336e-82
2.31534e-84
7.88889e-87
1.28879e-89
2.14898e-56
6.17436e-58
1.70461e-59
4.14748e-61
9.37117e-63
1.94161e-64
3.67898e-66
6.55129e-68
1.06413e-69
1.57267e-71
2.13619e-73
2.59039e-75
2.77168e-77
2.60342e-79
2.07146e-81
1.34267e-83
6.67358e-86
2.27891e-88
3.70811e-91
3.43157e-58
1.19696e-59
3.53192e-61
9.1074e-63
2.16154e-64
4.6676e-66
9.15588e-68
1.67835e-69
2.79288e-71
4.21138e-73
5.81636e-75
7.15014e-77
7.73597e-79
7.33111e-81
5.87354e-83
3.82669e-85
1.90874e-87
6.53301e-90
1.05867e-92
5.84263e-60
2.25006e-61
7.12612e-63
1.95328e-64
4.88262e-66
1.10148e-67
2.24151e-69
4.23757e-71
7.23594e-73
1.11484e-74
1.56745e-76
1.95544e-78
2.14112e-80
2.04856e-82
1.65352e-84
1.08325e-86
5.42355e-89
1.86065e-91
3.00268e-94
9.86122e-62
4.11742e-63
1.40572e-64
4.1086e-66
1.08439e-67
2.56103e-69
5.41635e-71
1.05764e-72
1.85567e-74
2.92452e-76
4.18998e-78
5.30884e-80
5.88684e-82
5.68955e-84
4.62855e-86
3.0499e-88
1.533e-90
5.27146e-93
8.47135e-96
1.6077e-63
7.36661e-65
2.72372e-66
8.51441e-68
2.37803e-69
5.88988e-71
1.29641e-72
2.61784e-74
4.72409e-76
7.62203e-78
1.11354e-79
1.43379e-81
1.61086e-83
1.57326e-85
1.29031e-87
8.55337e-90
4.31657e-92
1.4877e-94
2.38067e-97
2.49861e-65
1.27529e-66
5.16302e-68
1.73657e-69
5.15617e-71
1.34425e-72
3.08589e-74
6.44921e-76
1.19779e-77
1.97953e-79
2.9503e-81
3.86178e-83
4.39715e-85
4.34063e-87
3.58954e-89
2.39399e-91
1.21306e-93
4.19001e-96
6.67654e-99
7.52153e-67
2.9288e-68
9.58819e-70
2.78608e-71
7.20834e-73
1.64957e-74
3.61649e-76
7.8449e-78
1.50307e-79
2.54941e-81
3.8826e-83
5.17358e-85
5.97734e-87
5.97016e-89
4.98277e-91
3.34628e-93
1.70383e-95
5.90248e-98
9.37564e-101
)
;

boundaryField
{
    leftWall
    {
        type            zeroGradient;
    }
    rightWall
    {
        type            zeroGradient;
    }
    lowerWall
    {
        type            zeroGradient;
    }
    atmosphere
    {
        type            inletOutlet;
        inletValue      uniform 0;
        value           nonuniform List<scalar> 
46
(
0
0
0
0
0
0
0
0
0
0
0
0
0
0
0
0
0
0
0
0
8.99865e-62
4.99146e-60
3.983e-61
3.19305e-62
2.60432e-63
2.1212e-64
1.55308e-65
7.52153e-67
2.9288e-68
9.58819e-70
2.78608e-71
7.20834e-73
1.64957e-74
3.61649e-76
7.8449e-78
1.50307e-79
2.54941e-81
3.8826e-83
5.17358e-85
5.97734e-87
5.97016e-89
4.98277e-91
3.34628e-93
1.70383e-95
5.90248e-98
9.37564e-101
)
;
    }
    defaultFaces
    {
        type            empty;
    }
}


// ************************************************************************* //
