/*--------------------------------*- C++ -*----------------------------------*\
| =========                 |                                                 |
| \\      /  F ield         | OpenFOAM: The Open Source CFD Toolbox           |
|  \\    /   O peration     | Version:  5.x                                   |
|   \\  /    A nd           | Web:      www.OpenFOAM.org                      |
|    \\/     M anipulation  |                                                 |
\*---------------------------------------------------------------------------*/
FoamFile
{
    version     2.0;
    format      ascii;
    class       volScalarField;
    location    "0.05";
    object      p;
}
// * * * * * * * * * * * * * * * * * * * * * * * * * * * * * * * * * * * * * //

dimensions      [1 -1 -2 0 0 0 0];

internalField   nonuniform List<scalar> 
2268
(
1336.35
1327.82
1309.23
1280.92
1242.54
1193.43
1132.72
1059.15
971.57
866.558
743.072
604.88
419.027
185.836
43.2888
7.93743
3.83306
3.22074
2.963
2.70942
2.53002
2.42085
2.36962
1278.98
1270.45
1251.89
1223.62
1185.3
1136.25
1075.6
1002.09
914.538
809.261
685.501
546.372
351.375
118.446
15.5772
3.45954
3.19962
3.09396
2.88136
2.63583
2.45276
2.34451
2.29444
1223.11
1214.61
1196.09
1167.91
1129.7
1080.78
1020.27
946.889
859.424
753.781
629.676
488.037
278.867
61.9613
6.89832
2.28234
2.46138
2.70384
2.67318
2.49578
2.34165
2.24507
2.19825
1168.76
1160.28
1141.84
1113.8
1075.75
1027.04
966.759
893.607
806.328
700.411
576.206
431.578
210.723
30.845
4.22153
1.87639
2.03928
2.3439
2.42423
2.32358
2.20868
2.12674
2.08296
1115.92
1107.47
1089.15
1061.28
1023.47
975.039
915.098
842.316
755.39
649.503
525.787
378.546
152.141
16.4225
2.93074
1.69751
1.8555
2.11857
2.20542
2.14927
2.06408
1.99375
1.9501
1064.61
1056.2
1038.02
1010.38
972.871
924.82
865.34
793.099
706.764
601.381
478.954
330.148
105.635
9.08685
2.35517
1.61646
1.76924
1.95198
2.01491
1.98031
1.91348
1.84956
1.79977
1014.8
1006.45
988.442
961.075
923.937
876.363
817.472
745.953
660.464
556.094
435.863
287.067
71.1315
5.19215
2.01852
1.55571
1.68756
1.79877
1.84266
1.81772
1.76062
1.69703
1.62945
966.465
958.157
940.356
913.309
876.606
829.596
771.417
700.791
616.378
513.499
396.005
248.913
46.9152
2.96714
1.69542
1.49222
1.58424
1.65337
1.68371
1.662
1.60856
1.54054
1.43815
1.09535
1.08748
1.0711
1.04956
1.02555
1.00089
0.97671
0.953705
0.932305
0.912752
0.895167
0.879605
0.86607
0.854538
0.844979
0.837369
0.831686
0.827915
0.826038
1.03761
1.02976
1.01304
0.99111
0.966806
0.941948
0.917638
0.89456
0.873117
0.853543
0.83595
0.820387
0.806852
0.795323
0.785768
0.778162
0.772483
0.768714
0.76684
0.980996
0.973259
0.955808
0.933076
0.908177
0.882923
0.858357
0.835125
0.813595
0.793975
0.776362
0.760792
0.747259
0.735736
0.726191
0.718594
0.712921
0.709156
0.707283
0.925476
0.91804
0.899414
0.875422
0.849619
0.823777
0.798839
0.775383
0.753728
0.734042
0.716399
0.70082
0.687291
0.675779
0.666247
0.658662
0.652999
0.649241
0.647372
0.871139
0.864254
0.843853
0.818085
0.791068
0.764467
0.739052
0.715315
0.693503
0.673735
0.656057
0.64047
0.626948
0.61545
0.605936
0.598368
0.592719
0.58897
0.587107
0.81749
0.812127
0.789087
0.760963
0.732433
0.704929
0.678957
0.654896
0.632904
0.613046
0.595331
0.579738
0.566228
0.55475
0.545258
0.537711
0.53208
0.528345
0.526489
0.761282
0.761651
0.735078
0.703906
0.673723
0.645093
0.618503
0.594094
0.571914
0.551964
0.534216
0.518623
0.505129
0.493677
0.484213
0.476694
0.471086
0.467367
0.46552
0.705757
0.712455
0.681696
0.646702
0.614548
0.584853
0.557636
0.532876
0.510512
0.490478
0.472704
0.457119
0.443651
0.432232
0.422803
0.415317
0.409737
0.406038
0.404201
893.287
885.063
867.652
841.197
805.305
759.368
702.564
633.72
551.503
452.109
338.815
196.526
25.0829
1.95526
1.29635
1.36317
1.40563
1.4397
1.4528
1.43003
1.37565
1.28907
1.09898
800.584
792.588
775.867
750.492
716.1
672.167
617.996
552.624
475.009
382.223
278.125
147.39
10.1637
1.34962
1.0112
1.14152
1.16193
1.1744
1.17285
1.1463
1.09393
1.01532
0.910597
714.555
706.854
690.968
666.896
634.323
592.828
541.865
480.71
408.661
323.574
229.846
112.23
4.13564
1.0466
0.858799
0.916773
0.921612
0.9246
0.916152
0.890259
0.847045
0.787555
0.716236
635.024
627.687
612.76
590.182
559.695
520.99
473.672
417.253
351.344
274.45
191.251
86.7326
1.82399
0.677736
0.67268
0.689058
0.687429
0.685825
0.674724
0.651194
0.61517
0.566839
0.507213
561.73
554.818
540.948
520.008
491.804
456.128
412.729
361.32
301.762
233.056
159.875
67.5502
0.849795
0.432544
0.465509
0.46114
0.45791
0.454842
0.443641
0.422952
0.392628
0.352944
0.305023
494.352
487.914
475.171
455.967
430.171
397.665
358.315
311.994
258.74
197.913
133.976
52.7771
0.439885
0.206263
0.248541
0.234138
0.232035
0.229872
0.220343
0.203022
0.178028
0.145849
0.107555
432.517
426.592
415.017
397.604
374.28
344.995
309.709
268.409
221.251
167.831
112.269
41.0521
0.039776
-0.104723
0.00978721
0.00666405
0.00977529
0.0104001
0.00358216
-0.0101851
-0.030392
-0.0563964
-0.0872582
375.812
370.425
360.035
344.431
323.585
297.503
266.208
229.768
188.401
141.862
93.8549
31.6635
-0.276108
-0.382816
-0.231092
-0.215961
-0.206492
-0.2029
-0.207061
-0.21765
-0.233808
-0.254766
-0.279666
323.795
318.959
309.749
295.935
277.529
254.573
227.133
195.328
159.404
119.216
78.0421
24.1222
-0.487328
-0.57323
-0.446589
-0.425266
-0.413725
-0.409152
-0.411771
-0.420024
-0.432974
-0.449855
-0.469931
276.005
271.72
263.663
251.593
235.554
215.61
191.85
164.421
133.581
99.2476
64.2887
18.0316
-0.651253
-0.714507
-0.634969
-0.619929
-0.61159
-0.608607
-0.611162
-0.618066
-0.628617
-0.642239
-0.658375
231.966
228.22
221.276
210.886
197.114
180.045
159.776
136.465
110.367
81.4535
52.2005
13.1038
-0.813967
-0.854043
-0.810741
-0.805138
-0.80256
-0.802834
-0.806462
-0.812814
-0.821586
-0.832537
-0.845353
191.136
187.909
182.029
173.244
161.63
147.283
130.307
110.863
89.201
65.3356
41.3941
9.1201
-0.977665
-0.999946
-0.982265
-0.985914
-0.989753
-0.99398
-0.999262
-1.00549
-1.01282
-1.02141
-1.03126
153.058
150.334
145.47
138.213
128.642
116.859
102.982
87.1733
69.6726
50.5144
31.5347
5.85253
-1.13385
-1.15033
-1.15298
-1.16554
-1.17595
-1.18425
-1.19123
-1.19733
-1.20323
-1.2095
-1.21648
117.961
115.715
111.827
106.018
98.3814
89.0289
78.0903
65.7416
52.2109
37.4907
23.0912
3.33442
-1.26316
-1.30569
-1.3239
-1.34626
-1.36384
-1.37594
-1.3841
-1.38958
-1.39365
-1.39736
-1.40135
84.7774
82.9163
79.9231
75.4519
69.5878
62.4618
54.2135
45.0494
35.23
24.7704
14.9933
1.17859
-1.48736
-1.46578
-1.49423
-1.53113
-1.55687
-1.57188
-1.57984
-1.58347
-1.58483
-1.58541
-1.58608
47.7808
46.245
44.01
40.6957
36.3587
31.1338
25.1725
18.7158
12.0372
5.42191
0.69358
-4.06234
-1.83234
-1.57812
-1.66387
-1.72709
-1.75996
-1.77528
-1.78041
-1.78007
-1.77731
-1.77387
-1.77069
14.662
13.6288
12.2298
10.1205
7.41636
4.23172
0.734857
-2.83724
-6.24497
-9.10023
-9.55188
-8.66975
-1.91526
-1.61916
-1.83913
-1.94824
-1.9804
-1.98956
-1.9873
-1.97998
-1.97124
-1.96266
-1.95503
11.2832
10.7908
10.3519
9.69028
8.88183
8.01317
7.21383
6.61001
6.57537
6.90877
9.88431
16.1504
-2.09206
-1.81015
-2.08902
-2.21714
-2.22934
-2.21788
-2.20083
-2.18277
-2.16607
-2.1513
-2.13866
13.5128
13.487
13.3048
13.0337
12.6736
12.2314
11.7034
11.0733
10.4603
8.98187
7.51933
-0.771013
-0.853155
-3.85771
-2.90811
-2.62222
-2.51351
-2.4597
-2.4186
-2.38663
-2.36047
-2.33882
-2.3209
-4.12511
-4.11936
-4.11302
-4.10343
-4.09103
-4.07609
-4.05909
-4.04
-4.02163
-4.02293
-4.06226
-4.02715
-4.69558
-5.30691
-3.62091
-3.04426
-2.81658
-2.70375
-2.63552
-2.58823
-2.5523
-2.52383
-2.5008
-4.17035
-4.16667
-4.1599
-4.14985
-4.13664
-4.12024
-4.10033
-4.07696
-4.05367
-4.0284
-3.99309
-4.01205
-4.34444
-4.31147
-3.82947
-3.31438
-3.06748
-2.92777
-2.84208
-2.78289
-2.73893
-2.7047
-2.6773
-4.20013
-4.1965
-4.18912
-4.17821
-4.16376
-4.14552
-4.12309
-4.09677
-4.06749
-4.03076
-3.98887
-3.97729
-3.99971
-3.87079
-3.62352
-3.39191
-3.23102
-3.11277
-3.02827
-2.96567
-2.91773
-2.87992
-2.84946
-4.24117
-4.23741
-4.22981
-4.21849
-4.2033
-4.18393
-4.16003
-4.13155
-4.09772
-4.05623
-4.01236
-3.97541
-3.91897
-3.7912
-3.61967
-3.4766
-3.36336
-3.27045
-3.19577
-3.13594
-3.08782
-3.04875
-3.0167
-4.28588
-4.2819
-4.27418
-4.26256
-4.24679
-4.22662
-4.20176
-4.17184
-4.13589
-4.09309
-4.04533
-3.99127
-3.91881
-3.81843
-3.70191
-3.59209
-3.49829
-3.41884
-3.3522
-3.29654
-3.25014
-3.21141
-3.17898
-4.33547
-4.33157
-4.32383
-4.3121
-4.29617
-4.27578
-4.25066
-4.22045
-4.18442
-4.14223
-4.094
-4.03739
-3.9677
-3.88424
-3.79491
-3.70862
-3.63022
-3.56113
-3.50131
-3.44994
-3.40601
-3.36854
-3.33659
-4.3898
-4.38606
-4.37838
-4.36674
-4.35103
-4.33096
-4.30628
-4.27669
-4.24174
-4.20112
-4.15445
-4.10049
-4.03803
-3.96817
-3.89536
-3.82434
-3.75807
-3.69799
-3.64453
-3.59753
-3.5565
-3.52086
-3.48998
-4.44907
-4.44539
-4.43784
-4.42651
-4.41129
-4.39194
-4.36823
-4.33991
-4.30674
-4.26851
-4.22493
-4.1756
-4.12058
-4.06123
-4.00019
-3.94025
-3.8834
-3.83085
-3.78317
-3.74044
-3.70249
-3.66901
-3.6396
-4.51282
-4.5092
-4.50195
-4.49112
-4.47661
-4.45824
-4.43581
-4.40918
-4.37823
-4.34286
-4.30302
-4.25875
-4.21054
-4.15953
-4.10746
-4.05611
-4.0069
-3.96076
-3.91825
-3.87957
-3.84474
-3.8136
-3.78591
-4.58054
-4.57708
-4.57029
-4.56013
-4.5465
-4.52928
-4.50835
-4.48365
-4.45515
-4.42288
-4.38693
-4.34757
-4.30535
-4.2612
-4.21632
-4.17191
-4.12902
-4.0884
-4.05052
-4.01565
-3.98388
-3.95515
-3.92935
-4.65195
-4.64879
-4.64255
-4.63314
-4.6205
-4.60454
-4.58524
-4.56259
-4.53664
-4.5075
-4.47535
-4.44053
-4.40355
-4.36516
-4.32621
-4.28759
-4.25007
-4.21426
-4.18056
-4.14924
-4.12042
-4.09413
-4.07031
-4.72698
-4.72415
-4.71847
-4.70983
-4.69821
-4.68357
-4.66595
-4.6454
-4.62199
-4.59589
-4.56732
-4.53661
-4.50423
-4.47075
-4.43684
-4.40316
-4.37029
-4.33873
-4.30882
-4.2808
-4.25483
-4.23094
-4.20914
-4.80539
-4.80288
-4.79771
-4.78983
-4.77922
-4.76593
-4.74999
-4.73149
-4.71054
-4.68732
-4.66206
-4.63507
-4.60674
-4.57755
-4.548
-4.51861
-4.48983
-4.46209
-4.43563
-4.41071
-4.38745
-4.36592
-4.34615
-4.88679
-4.88453
-4.87985
-4.87269
-4.8631
-4.85113
-4.83684
-4.82033
-4.80173
-4.78121
-4.759
-4.73537
-4.71066
-4.68526
-4.65955
-4.63396
-4.60884
-4.58451
-4.56128
-4.53926
-4.5186
-4.49938
-4.48163
-4.97066
-4.96863
-4.96441
-4.95797
-4.94939
-4.93871
-4.92603
-4.91143
-4.89505
-4.87706
-4.85767
-4.83711
-4.81567
-4.79366
-4.77141
-4.74924
-4.72745
-4.7063
-4.686
-4.66671
-4.64854
-4.63156
-4.61581
-5.05656
-5.05474
-5.05097
-5.04525
-5.03767
-5.02827
-5.01714
-5.00438
-4.99011
-4.9745
-4.95772
-4.93999
-4.92154
-4.90263
-4.88353
-4.86449
-4.84575
-4.82752
-4.81
-4.79329
-4.7775
-4.76269
-4.74891
-5.14414
-5.14252
-5.1392
-5.13422
-5.12763
-5.11948
-5.10986
-5.09886
-5.08661
-5.07324
-5.05891
-5.04381
-5.02812
-5.01207
-4.99587
-4.97972
-4.96382
-4.94833
-4.93341
-4.91917
-4.90567
-4.89298
-4.88113
-5.23314
-5.23173
-5.22888
-5.22463
-5.21901
-5.21209
-5.20393
-5.19464
-5.18431
-5.17306
-5.16104
-5.1484
-5.1353
-5.12191
-5.10842
-5.09497
-5.08173
-5.06884
-5.05639
-5.0445
-5.03321
-5.02257
-5.01262
-5.32337
-5.32219
-5.31981
-5.31628
-5.31162
-5.30589
-5.29915
-5.2915
-5.28301
-5.27379
-5.26396
-5.25364
-5.24298
-5.23211
-5.22116
-5.21027
-5.19955
-5.18911
-5.17904
-5.16941
-5.16026
-5.15163
-5.14354
-5.41467
-5.41372
-5.41182
-5.40899
-5.40526
-5.4007
-5.39534
-5.38927
-5.38255
-5.37527
-5.36753
-5.35944
-5.3511
-5.34261
-5.33409
-5.32563
-5.31732
-5.30924
-5.30145
-5.29401
-5.28695
-5.28028
-5.27403
-5.50698
-5.50626
-5.50481
-5.50267
-5.49986
-5.49642
-5.49239
-5.48784
-5.48282
-5.47741
-5.47168
-5.46571
-5.45958
-5.45338
-5.44719
-5.44106
-5.43507
-5.42928
-5.42371
-5.4184
-5.41338
-5.40865
-5.4042
-5.59999
-5.59951
-5.59852
-5.59706
-5.59514
-5.5928
-5.59007
-5.587
-5.58364
-5.58003
-5.57624
-5.57233
-5.56836
-5.56437
-5.56043
-5.55657
-5.55284
-5.54927
-5.54588
-5.54268
-5.53967
-5.53684
-5.53419
-5.69217
-5.69195
-5.69146
-5.69072
-5.68975
-5.68857
-5.68722
-5.6857
-5.68407
-5.68235
-5.68057
-5.67878
-5.677
-5.67527
-5.67361
-5.67204
-5.67058
-5.66924
-5.66802
-5.66692
-5.66592
-5.66498
-5.6641
0.818708
0.778605
0.769327
0.738351
0.809475
0.754685
0.706505
0.661144
0.646876
0.599913
0.556841
0.517958
0.455164
0.421431
0.388881
0.357671
0.265578
0.239705
0.213763
0.188219
0.0762597
0.0555887
0.0346105
0.0136807
-0.112442
-0.12911
-0.146159
-0.16335
-0.300007
-0.313515
-0.327417
-0.341547
-0.486377
-0.49733
-0.50865
-0.520219
-0.67161
-0.680444
-0.689596
-0.698986
-0.855851
-0.862865
-0.870143
-0.877634
-1.0393
-1.04469
-1.05029
-1.05607
-1.2222
-1.22605
-1.23008
-1.23427
-1.40473
-1.40706
-1.40954
-1.41219
-1.587
-1.58775
-1.58867
-1.58977
-1.76895
-1.76804
-1.76735
-1.76687
-1.95039
-1.94771
-1.94534
-1.94327
-2.13092
-2.1264
-2.12231
-2.11862
-2.31
-2.30363
-2.29783
-2.29256
-2.4869
-2.47878
-2.47137
-2.46462
-2.66081
-2.65116
-2.64235
-2.6343
-2.831
-2.82017
-2.81026
-2.80117
-2.99702
-2.98541
-2.97474
-2.9649
-3.15876
-3.14676
-3.13566
-3.12538
-3.31638
-3.30431
-3.29308
-3.28262
-3.47018
-3.45828
-3.44716
-3.43675
-3.62052
-3.60899
-3.59816
-3.58798
-3.76776
-3.75675
-3.74635
-3.73654
-3.91229
-3.90188
-3.89203
-3.88271
-4.05443
-4.04471
-4.03549
-4.02672
-4.19451
-4.18553
-4.17698
-4.16884
-4.33281
-4.3246
-4.31677
-4.30929
-4.46959
-4.46217
-4.45508
-4.44829
-4.60509
-4.59847
-4.59212
-4.58604
-4.7395
-4.73368
-4.72809
-4.72273
-4.87301
-4.86799
-4.86316
-4.85853
-5.00579
-5.00156
-4.99749
-4.99358
-5.13798
-5.13454
-5.13122
-5.12803
-5.26973
-5.26706
-5.26449
-5.26202
-5.40115
-5.39925
-5.39742
-5.39566
-5.53236
-5.53123
-5.53013
-5.52908
-5.66349
-5.66312
-5.66275
-5.6624
0.669992
0.637541
0.597487
0.556649
0.521274
0.489905
0.461739
0.436459
0.413833
0.393689
0.375895
0.36034
0.346928
0.335576
0.326215
0.318792
0.313264
0.309602
0.307782
0.589296
0.522806
0.472712
0.428716
0.390781
0.357818
0.32876
0.303015
0.280196
0.260025
0.2423
0.226866
0.213597
0.202392
0.193171
0.185868
0.180436
0.17684
0.175053
0.457796
0.391549
0.339037
0.294198
0.255575
0.222113
0.192812
0.167016
0.144277
0.124271
0.106758
0.0915528
0.0785126
0.0675228
0.0584926
0.0513508
0.0460433
0.0425312
0.0407861
0.307659
0.247313
0.196732
0.153247
0.115485
0.0825669
0.0537097
0.028328
0.00599313
-0.0136171
-0.0307497
-0.0455966
-0.0583093
-0.0690081
-0.0777887
-0.0847265
-0.0898792
-0.0932878
-0.0949821
0.146523
0.0936072
0.0472679
0.00659709
-0.0292042
-0.0607303
-0.0885285
-0.113051
-0.134657
-0.153632
-0.170203
-0.184555
-0.196835
-0.207162
-0.215632
-0.222322
-0.227288
-0.230573
-0.232207
-0.0209536
-0.0664971
-0.107776
-0.144831
-0.177963
-0.207486
-0.233735
-0.257016
-0.277599
-0.295711
-0.311546
-0.325268
-0.33701
-0.346885
-0.354984
-0.361381
-0.36613
-0.369272
-0.370835
-0.192093
-0.230897
-0.267016
-0.300115
-0.330179
-0.357302
-0.381644
-0.403383
-0.422695
-0.439746
-0.454687
-0.467652
-0.478759
-0.488106
-0.495777
-0.501838
-0.506341
-0.509321
-0.510803
-0.36536
-0.39816
-0.429338
-0.458429
-0.485247
-0.50974
-0.531939
-0.551916
-0.569764
-0.585591
-0.599503
-0.611603
-0.621988
-0.63074
-0.637931
-0.643619
-0.647847
-0.650647
-0.652039
-0.539845
-0.56732
-0.593887
-0.619072
-0.642613
-0.664371
-0.684287
-0.702354
-0.718599
-0.733076
-0.745852
-0.756999
-0.766589
-0.774689
-0.781355
-0.786636
-0.790565
-0.793169
-0.794464
-0.714995
-0.737719
-0.760023
-0.781474
-0.801791
-0.82079
-0.838357
-0.854427
-0.868977
-0.882017
-0.893577
-0.903703
-0.912443
-0.919845
-0.92595
-0.930795
-0.934406
-0.936799
-0.937989
-0.890459
-0.908899
-0.92726
-0.945171
-0.962362
-0.978633
-0.993836
-1.00787
-1.02067
-1.03222
-1.04251
-1.05157
-1.05942
-1.06609
-1.07161
-1.076
-1.07927
-1.08144
-1.08252
-1.06602
-1.08053
-1.09522
-1.10978
-1.12396
-1.13757
-1.15043
-1.16242
-1.17346
-1.18349
-1.1925
-1.20046
-1.20739
-1.21331
-1.21822
-1.22214
-1.22506
-1.22701
-1.22797
-1.24153
-1.25238
-1.26361
-1.27499
-1.28628
-1.2973
-1.30787
-1.31785
-1.32714
-1.33565
-1.34335
-1.35022
-1.35623
-1.36138
-1.36567
-1.3691
-1.37168
-1.37339
-1.37424
-1.41687
-1.42422
-1.43217
-1.44051
-1.44904
-1.45756
-1.46591
-1.47392
-1.48149
-1.48851
-1.49493
-1.50069
-1.50578
-1.51017
-1.51384
-1.51679
-1.51901
-1.52049
-1.52122
-1.5919
-1.59587
-1.60066
-1.6061
-1.61198
-1.61811
-1.62431
-1.63043
-1.63632
-1.64189
-1.64705
-1.65175
-1.65593
-1.65956
-1.66263
-1.6651
-1.66696
-1.6682
-1.66882
-1.76645
-1.76711
-1.76886
-1.77151
-1.77487
-1.77872
-1.78288
-1.78717
-1.79147
-1.79564
-1.79959
-1.80324
-1.80654
-1.80944
-1.8119
-1.8139
-1.81542
-1.81643
-1.81694
-1.94029
-1.93771
-1.93653
-1.93653
-1.93748
-1.93917
-1.9414
-1.94398
-1.94675
-1.94959
-1.95238
-1.95503
-1.95749
-1.95968
-1.96157
-1.96311
-1.96429
-1.96509
-1.96549
-2.11311
-2.1074
-2.10343
-2.10092
-2.09962
-2.09929
-2.0997
-2.10067
-2.10201
-2.10359
-2.10529
-2.107
-2.10865
-2.11017
-2.11151
-2.11263
-2.11349
-2.11407
-2.11437
-2.28459
-2.2759
-2.2693
-2.26446
-2.26108
-2.25887
-2.25762
-2.25709
-2.25711
-2.25752
-2.2582
-2.25904
-2.25993
-2.26082
-2.26164
-2.26235
-2.26291
-2.2633
-2.26349
-2.45435
-2.44293
-2.43393
-2.42696
-2.42167
-2.41774
-2.415
-2.4131
-2.4119
-2.41126
-2.411
-2.41102
-2.41122
-2.41152
-2.41187
-2.4122
-2.41248
-2.41268
-2.41279
-2.62202
-2.60818
-2.59707
-2.58821
-2.58124
-2.57581
-2.57167
-2.56856
-2.56628
-2.56468
-2.56357
-2.56285
-2.56242
-2.56219
-2.5621
-2.56209
-2.56211
-2.56214
-2.56216
-2.78725
-2.77141
-2.75851
-2.74806
-2.73963
-2.7329
-2.72757
-2.72339
-2.72015
-2.71769
-2.71583
-2.71445
-2.71346
-2.71275
-2.71227
-2.71194
-2.71174
-2.71161
-2.71156
-2.94978
-2.93241
-2.9181
-2.90635
-2.89673
-2.8889
-2.88256
-2.87747
-2.87342
-2.87021
-2.86769
-2.86574
-2.86425
-2.86313
-2.8623
-2.8617
-2.86128
-2.86103
-2.8609
-3.1095
-3.09107
-3.07573
-3.06299
-3.05244
-3.04374
-3.03659
-3.03075
-3.02601
-3.02218
-3.01911
-3.01667
-3.01475
-3.01326
-3.01213
-3.01129
-3.0107
-3.01033
-3.01014
-3.26638
-3.24735
-3.23135
-3.21794
-3.20672
-3.19736
-3.18959
-3.18316
-3.17787
-3.17354
-3.17001
-3.16717
-3.1649
-3.16311
-3.16172
-3.16068
-3.15994
-3.15946
-3.15922
-3.42051
-3.40129
-3.38498
-3.37118
-3.35953
-3.34974
-3.34153
-3.33467
-3.32897
-3.32425
-3.32037
-3.31721
-3.31465
-3.31262
-3.31103
-3.30982
-3.30895
-3.30839
-3.30811
-3.57203
-3.55296
-3.53665
-3.52274
-3.51091
-3.50087
-3.4924
-3.48526
-3.47928
-3.47429
-3.47016
-3.46676
-3.46399
-3.46176
-3.46001
-3.45867
-3.45771
-3.45709
-3.45677
-3.72112
-3.70251
-3.68647
-3.67268
-3.66087
-3.65078
-3.64221
-3.63493
-3.6288
-3.62365
-3.61935
-3.61579
-3.61287
-3.61052
-3.60865
-3.60722
-3.60619
-3.60551
-3.60517
-3.86798
-3.85008
-3.83453
-3.82107
-3.80947
-3.79951
-3.79098
-3.7837
-3.77753
-3.77232
-3.76795
-3.76431
-3.76131
-3.75887
-3.75693
-3.75544
-3.75436
-3.75365
-3.7533
-4.01284
-3.99584
-3.98097
-3.96802
-3.9568
-3.9471
-3.93875
-3.9316
-3.9255
-3.92032
-3.91595
-3.9123
-3.90928
-3.90681
-3.90484
-3.90333
-3.90222
-3.9015
-3.90115
-4.15591
-4.13995
-4.12592
-4.11363
-4.10292
-4.09362
-4.08558
-4.07865
-4.07272
-4.06766
-4.06338
-4.05978
-4.05679
-4.05435
-4.05239
-4.05088
-4.04977
-4.04905
-4.0487
-4.29738
-4.2826
-4.26952
-4.25802
-4.24794
-4.23915
-4.23152
-4.22492
-4.21924
-4.21438
-4.21025
-4.20677
-4.20386
-4.20148
-4.19957
-4.1981
-4.19701
-4.19631
-4.19596
-4.43746
-4.42393
-4.41192
-4.4013
-4.39196
-4.38377
-4.37664
-4.37044
-4.3651
-4.3605
-4.35659
-4.35328
-4.35051
-4.34824
-4.34641
-4.34499
-4.34395
-4.34327
-4.34294
-4.57632
-4.56413
-4.55325
-4.54359
-4.53506
-4.52756
-4.521
-4.51529
-4.51034
-4.50608
-4.50244
-4.49935
-4.49676
-4.49463
-4.49291
-4.49158
-4.4906
-4.48996
-4.48965
-4.71414
-4.70333
-4.69364
-4.68501
-4.67736
-4.67062
-4.6647
-4.65953
-4.65504
-4.65116
-4.64784
-4.64502
-4.64265
-4.64069
-4.63911
-4.63789
-4.63699
-4.6364
-4.63611
-4.85108
-4.84167
-4.83322
-4.82567
-4.81896
-4.81302
-4.80779
-4.80322
-4.79924
-4.79579
-4.79283
-4.79031
-4.7882
-4.78645
-4.78503
-4.78393
-4.78312
-4.78259
-4.78234
-4.98729
-4.97931
-4.97212
-4.96569
-4.95995
-4.95486
-4.95038
-4.94644
-4.94301
-4.94003
-4.93747
-4.93529
-4.93345
-4.93193
-4.9307
-4.92974
-4.92904
-4.92858
-4.92835
-5.12289
-5.11636
-5.11046
-5.10517
-5.10044
-5.09624
-5.09253
-5.08927
-5.08642
-5.08394
-5.08181
-5.07999
-5.07846
-5.07718
-5.07615
-5.07535
-5.07476
-5.07437
-5.07419
-5.25803
-5.25295
-5.24836
-5.24422
-5.24053
-5.23724
-5.23433
-5.23177
-5.22952
-5.22758
-5.2259
-5.22446
-5.22325
-5.22224
-5.22143
-5.22079
-5.22033
-5.22002
-5.21988
-5.39282
-5.3892
-5.38591
-5.38296
-5.38031
-5.37795
-5.37586
-5.37402
-5.37241
-5.371
-5.36979
-5.36876
-5.36788
-5.36715
-5.36656
-5.3661
-5.36577
-5.36554
-5.36544
-5.52738
-5.52521
-5.52324
-5.52147
-5.51988
-5.51846
-5.5172
-5.5161
-5.51512
-5.51428
-5.51355
-5.51292
-5.51239
-5.51195
-5.5116
-5.51132
-5.51111
-5.51098
-5.51092
-5.66184
-5.66112
-5.66046
-5.65987
-5.65934
-5.65887
-5.65845
-5.65808
-5.65775
-5.65747
-5.65723
-5.65702
-5.65684
-5.65669
-5.65657
-5.65648
-5.65641
-5.65636
-5.65634
)
;

boundaryField
{
    leftWall
    {
        type            calculated;
        value           nonuniform List<scalar> 
50
(
1336.35
1278.98
1223.11
1168.76
1115.92
1064.61
1014.8
966.465
893.287
800.584
714.555
635.024
561.73
494.352
432.517
375.812
323.795
276.005
231.966
191.136
153.058
117.961
84.7774
47.7808
14.662
11.2832
13.5128
-4.12511
-4.17035
-4.20013
-4.24117
-4.28588
-4.33547
-4.3898
-4.44907
-4.51282
-4.58054
-4.65195
-4.72698
-4.80539
-4.88679
-4.97066
-5.05656
-5.14414
-5.23314
-5.32337
-5.41467
-5.50698
-5.59999
-5.69217
)
;
    }
    rightWall
    {
        type            calculated;
        value           nonuniform List<scalar> 
50
(
0.826038
0.76684
0.707283
0.647372
0.587107
0.526489
0.46552
0.404201
0.307782
0.175053
0.0407861
-0.0949821
-0.232207
-0.370835
-0.510803
-0.652039
-0.794464
-0.937989
-1.08252
-1.22797
-1.37424
-1.52122
-1.66882
-1.81694
-1.96549
-2.11437
-2.26349
-2.41279
-2.56216
-2.71156
-2.8609
-3.01014
-3.15922
-3.30811
-3.45677
-3.60517
-3.7533
-3.90115
-4.0487
-4.19596
-4.34294
-4.48965
-4.63611
-4.78234
-4.92835
-5.07419
-5.21988
-5.36544
-5.51092
-5.65634
)
;
    }
    lowerWall
    {
        type            calculated;
        value           nonuniform List<scalar> 
62
(
1365.78
1357.25
1338.66
1310.35
1271.97
1222.86
1162.15
1088.58
1001
895.988
772.501
634.309
448.456
213.86
59.2845
8.67201
3.86241
3.25016
2.99243
2.73885
2.55945
2.45028
2.39905
2.36962
2.29444
2.19825
2.08296
1.9501
1.79977
1.62945
1.43815
0.881305
0.841202
0.831924
0.800948
1.09535
1.03761
0.980996
0.925476
0.871139
0.81749
0.761282
0.705757
1.12478
1.11691
1.10053
1.07898
1.05498
1.03032
1.00614
0.983135
0.961734
0.942181
0.924596
0.909034
0.895499
0.883967
0.874409
0.866798
0.861116
0.857344
0.855468
)
;
    }
    atmosphere
    {
        type            calculated;
        value           nonuniform List<scalar> 
46
(
-5.73718
-5.73714
-5.73691
-5.73658
-5.73614
-5.73562
-5.73503
-5.73439
-5.73371
-5.73302
-5.73234
-5.73169
-5.73108
-5.73054
-5.73008
-5.72969
-5.7294
-5.7292
-5.72908
-5.72904
-5.72904
-5.72904
-5.72904
-5.72904
-5.72904
-5.72904
-5.72904
-5.72904
-5.72904
-5.72904
-5.72904
-5.72904
-5.72904
-5.72904
-5.72904
-5.72904
-5.72904
-5.72904
-5.72904
-5.72904
-5.72904
-5.72904
-5.72904
-5.72904
-5.72904
-5.72904
)
;
    }
    defaultFaces
    {
        type            empty;
    }
}


// ************************************************************************* //
