/*--------------------------------*- C++ -*----------------------------------*\
| =========                 |                                                 |
| \\      /  F ield         | OpenFOAM: The Open Source CFD Toolbox           |
|  \\    /   O peration     | Version:  5.x                                   |
|   \\  /    A nd           | Web:      www.OpenFOAM.org                      |
|    \\/     M anipulation  |                                                 |
\*---------------------------------------------------------------------------*/
FoamFile
{
    version     2.0;
    format      ascii;
    class       volScalarField;
    location    "0.05";
    object      p_rgh;
}
// * * * * * * * * * * * * * * * * * * * * * * * * * * * * * * * * * * * * * //

dimensions      [1 -1 -2 0 0 0 0];

internalField   nonuniform List<scalar> 
2268
(
1365.78
1357.25
1338.66
1310.35
1271.97
1222.86
1162.15
1088.58
1001
895.988
772.501
634.309
448.456
213.86
59.2845
8.67201
3.86241
3.25016
2.99243
2.73885
2.55945
2.45028
2.39905
1367.26
1358.74
1340.18
1311.91
1273.59
1224.54
1163.89
1090.38
1002.83
897.549
773.789
634.661
439.473
183.388
35.5798
5.46031
3.75311
3.29465
2.98882
2.72644
2.54124
2.4328
2.38273
1370.26
1361.75
1343.24
1315.06
1276.85
1227.93
1167.42
1094.04
1006.57
900.928
776.823
635.184
424.02
131.238
12.9607
4.08121
3.38521
3.09053
2.85152
2.64515
2.48898
2.39223
2.3454
1374.76
1366.28
1347.85
1319.8
1281.76
1233.04
1172.76
1099.61
1012.33
906.416
782.211
637.583
407.408
93.9995
7.36599
3.07525
2.59011
2.66832
2.64637
2.53095
2.4148
2.33275
2.28896
1380.79
1372.34
1354.01
1326.15
1288.34
1239.9
1179.96
1107.18
1020.25
914.368
790.651
643.411
391.995
73.278
5.17316
2.48825
2.26152
2.41358
2.47534
2.4148
2.329
2.25862
2.21497
1388.33
1379.93
1361.74
1334.1
1296.59
1248.54
1189.06
1116.82
1030.49
925.104
802.677
653.871
380.717
56.2449
3.97066
2.20015
2.15496
2.28859
2.34083
2.30433
2.23723
2.17329
2.12349
1397.39
1389.03
1371.02
1343.66
1306.52
1258.94
1200.05
1128.53
1043.05
938.676
818.445
669.649
375.886
43.4417
3.2523
2.06735
2.09661
2.18661
2.22615
2.20043
2.14321
2.07961
2.01203
1407.91
1399.6
1381.8
1354.75
1318.05
1271.04
1212.86
1142.23
1057.82
954.939
837.446
690.354
378.808
35.1827
2.71171
2.00289
2.03739
2.09696
2.12551
2.1035
2.05001
1.98198
1.87959
1.12478
1.11691
1.10053
1.07898
1.05498
1.03032
1.00614
0.983135
0.961734
0.942181
0.924596
0.909034
0.895499
0.883967
0.874409
0.866798
0.861116
0.857344
0.855468
1.12589
1.11805
1.10133
1.0794
1.05509
1.03024
1.00593
0.982848
0.961405
0.941831
0.924239
0.908675
0.89514
0.883611
0.874056
0.86645
0.860772
0.857003
0.855128
1.12814
1.12041
1.10296
1.08022
1.05532
1.03007
1.0055
0.982272
0.960742
0.941122
0.923509
0.907939
0.894406
0.882883
0.873337
0.86574
0.860068
0.856303
0.85443
1.13148
1.12405
1.10542
1.08143
1.05562
1.02978
1.00484
0.981389
0.959733
0.940047
0.922404
0.906826
0.893297
0.881785
0.872252
0.864667
0.859005
0.855247
0.853378
1.136
1.12912
1.10872
1.08295
1.05593
1.02933
1.00392
0.98018
0.958367
0.938599
0.920921
0.905334
0.891812
0.880315
0.8708
0.863232
0.857583
0.853834
0.851971
1.14121
1.13585
1.11281
1.08469
1.05616
1.02865
1.00268
0.978619
0.956627
0.936769
0.919054
0.903461
0.889951
0.878473
0.868981
0.861434
0.855803
0.852068
0.850212
1.14386
1.14423
1.11766
1.08649
1.05631
1.02767
1.00109
0.976676
0.954496
0.934546
0.916798
0.901205
0.887711
0.876259
0.866795
0.859276
0.853668
0.849949
0.848101
1.1472
1.1539
1.12314
1.08814
1.05599
1.02629
0.999077
0.974317
0.951953
0.931919
0.914145
0.89856
0.885091
0.873672
0.864244
0.856757
0.851177
0.847479
0.845641
1426.75
1418.53
1401.12
1374.66
1338.77
1292.83
1236.03
1167.19
1084.97
985.576
872.282
729.993
392.266
26.3654
2.17635
1.92992
1.94323
1.97378
1.98636
1.96351
1.90912
1.82254
1.63245
1459.25
1451.25
1434.53
1409.15
1374.76
1330.83
1276.66
1211.29
1133.67
1040.88
936.787
806.051
400.683
14.1868
1.87037
1.81776
1.82236
1.83327
1.83154
1.80497
1.75259
1.67399
1.56926
1498.41
1490.71
1474.82
1450.75
1418.18
1376.68
1325.72
1264.57
1192.52
1107.43
1013.7
896.086
405.734
7.33338
1.7522
1.7093
1.70625
1.70853
1.70002
1.67412
1.6309
1.57141
1.50009
1544.07
1536.74
1521.81
1499.23
1468.75
1430.04
1382.72
1326.3
1260.39
1183.5
1100.3
995.783
404.265
3.97059
1.6454
1.60248
1.59683
1.59491
1.58378
1.56024
1.52422
1.47589
1.41626
1595.97
1589.06
1575.19
1554.25
1526.05
1490.37
1446.97
1395.57
1336.01
1267.3
1194.12
1101.8
396.502
2.21135
1.53802
1.4977
1.49232
1.4891
1.47789
1.4572
1.42687
1.38719
1.33927
1653.79
1647.35
1634.61
1615.41
1589.61
1557.11
1517.76
1471.43
1418.18
1357.35
1293.42
1212.22
383.298
1.85964
1.42979
1.39479
1.39155
1.38932
1.37978
1.36246
1.33747
1.30529
1.267
1717.15
1711.23
1699.65
1682.24
1658.91
1629.63
1594.34
1553.04
1505.88
1452.47
1396.9
1325.69
366.585
1.52128
1.3069
1.29197
1.29445
1.29504
1.28822
1.27445
1.25424
1.22824
1.19738
1785.64
1780.25
1769.86
1754.26
1733.41
1707.33
1676.04
1639.6
1598.23
1551.69
1503.68
1441.49
347.262
1.29362
1.1875
1.19429
1.20336
1.20693
1.20277
1.19218
1.17602
1.15506
1.13016
1858.82
1853.98
1844.77
1830.96
1812.55
1789.6
1762.16
1730.35
1694.43
1654.24
1613.07
1559.15
325.972
1.1818
1.09524
1.11004
1.12131
1.12587
1.12325
1.115
1.10205
1.08517
1.06509
1936.22
1931.94
1923.88
1911.81
1895.77
1875.83
1852.07
1824.64
1793.8
1759.47
1724.51
1678.25
303.286
1.12002
1.03081
1.04048
1.04864
1.05161
1.04906
1.04215
1.0316
1.01798
1.00184
2017.38
2013.63
2006.69
1996.3
1982.53
1965.46
1945.19
1921.88
1895.78
1866.87
1837.61
1798.52
279.681
1.06236
0.978696
0.980409
0.982857
0.982579
0.978951
0.972598
0.963826
0.952875
0.940059
2101.74
2098.52
2092.64
2083.85
2072.24
2057.89
2040.91
2021.47
1999.81
1975.94
1952
1919.73
255.608
1.00504
0.93048
0.92478
0.920857
0.916627
0.911345
0.905113
0.897784
0.889195
0.87935
2188.86
2186.14
2181.27
2174.01
2164.44
2152.66
2138.78
2122.97
2105.47
2086.31
2067.33
2041.65
231.623
0.953095
0.88473
0.870318
0.85985
0.851556
0.844575
0.838468
0.832574
0.826301
0.819319
2278.96
2276.71
2272.82
2267.01
2259.37
2250.02
2239.08
2226.73
2213.2
2198.48
2184.08
2164.31
207.963
0.910204
0.838364
0.814778
0.797155
0.785052
0.776898
0.771419
0.767347
0.763639
0.759643
2370.97
2369.08
2366.08
2361.61
2355.74
2348.61
2340.36
2331.19
2321.36
2310.89
2301.1
2287.22
178.443
0.871549
0.79351
0.755099
0.729324
0.714308
0.70635
0.702723
0.701356
0.700784
0.700115
2459.17
2457.38
2455.1
2451.78
2447.42
2442.17
2436.18
2429.69
2422.97
2416.28
2411.47
2406.19
154.892
0.863625
0.74847
0.684311
0.651428
0.636101
0.630976
0.631315
0.634071
0.637519
0.640691
2551.24
2548.11
2546.38
2544.18
2541.35
2538
2534.31
2530.49
2526.81
2523.49
2522.53
2519.61
353.272
0.939824
0.69792
0.588351
0.556185
0.547018
0.549282
0.5566
0.565344
0.573918
0.581547
2518.03
2513.83
2509.83
2503.3
2494.5
2483.43
2470
2453.62
2436.44
2398.9
2363.5
1994.04
606.523
1.07388
0.583149
0.445151
0.432456
0.443898
0.460944
0.479008
0.495707
0.510474
0.523111
804.383
802.849
794.384
781.687
764.818
744.069
719.343
689.796
660.228
591.832
533.403
140.586
168.948
56.4405
0.388873
0.188706
0.273676
0.32727
0.368368
0.400336
0.426495
0.448145
0.46607
-1.21295
-1.2072
-1.20085
-1.19126
-1.17887
-1.16392
-1.14692
-1.12783
-1.10947
-1.11076
-1.15007
-1.11463
-1.77949
13.0282
3.91176
-0.012375
0.0968942
0.208417
0.276642
0.323934
0.359863
0.388331
0.411365
-1.13299
-1.12931
-1.12254
-1.1125
-1.09929
-1.08288
-1.06297
-1.0396
-1.01631
-0.991038
-0.955658
-0.974026
-1.14325
-0.734831
0.42739
-0.239163
-0.0298127
0.109588
0.195275
0.25447
0.298431
0.332653
0.360053
-1.03758
-1.03395
-1.02657
-1.01566
-1.00121
-0.982966
-0.960536
-0.934223
-0.904938
-0.868203
-0.826311
-0.81472
-0.834298
-0.693686
-0.457593
-0.229264
-0.0684667
0.0497841
0.13428
0.196887
0.244823
0.282629
0.313095
-0.953426
-0.94966
-0.942062
-0.930746
-0.915551
-0.896181
-0.87228
-0.843802
-0.809969
-0.768487
-0.724611
-0.687665
-0.631107
-0.502949
-0.331851
-0.188841
-0.0756169
0.0172978
0.0919811
0.151811
0.199925
0.238993
0.27105
-0.872943
-0.868959
-0.861235
-0.849617
-0.833851
-0.813682
-0.788814
-0.758903
-0.722953
-0.680152
-0.632391
-0.578333
-0.505872
-0.405485
-0.288967
-0.179148
-0.0853467
-0.00589654
0.0607378
0.116397
0.162802
0.201533
0.233966
-0.797335
-0.793432
-0.785697
-0.773962
-0.758035
-0.737642
-0.712528
-0.682312
-0.646281
-0.604093
-0.555862
-0.499252
-0.429568
-0.346109
-0.256774
-0.170487
-0.0920807
-0.0229983
0.0368252
0.0881996
0.132123
0.169593
0.201545
-0.726475
-0.722731
-0.715054
-0.703413
-0.687697
-0.667628
-0.642953
-0.61336
-0.578407
-0.537791
-0.491124
-0.437162
-0.374697
-0.304842
-0.232033
-0.161009
-0.0947386
-0.0346557
0.0187981
0.0657985
0.106827
0.142473
0.173355
-0.660547
-0.656863
-0.64932
-0.637985
-0.622761
-0.603415
-0.579702
-0.551387
-0.51822
-0.479987
-0.436405
-0.387074
-0.33206
-0.272704
-0.211661
-0.151729
-0.0948766
-0.0423291
0.00535728
0.048084
0.0860311
0.119516
0.148929
-0.599105
-0.595478
-0.588229
-0.577402
-0.562891
-0.544521
-0.522095
-0.495464
-0.464509
-0.429142
-0.389297
-0.345031
-0.296819
-0.245815
-0.193746
-0.142387
-0.0931845
-0.0470429
-0.00452582
0.0341447
0.0689792
0.100123
0.127808
-0.541623
-0.538168
-0.531378
-0.521216
-0.507584
-0.490364
-0.469437
-0.444735
-0.416235
-0.383963
-0.348015
-0.308652
-0.266433
-0.222286
-0.177403
-0.132994
-0.0901093
-0.0494839
-0.0116058
0.0232618
0.0550385
0.0837634
0.109561
-0.487845
-0.484684
-0.478441
-0.469035
-0.456387
-0.440431
-0.42113
-0.398484
-0.372536
-0.343394
-0.311245
-0.276419
-0.239442
-0.201049
-0.162103
-0.123479
-0.08596
-0.0501534
-0.0164549
0.0148655
0.0436837
0.0699763
0.0937972
-0.437673
-0.43485
-0.429163
-0.42053
-0.408904
-0.394269
-0.376649
-0.356093
-0.332688
-0.306585
-0.278013
-0.247305
-0.214922
-0.181448
-0.14754
-0.113854
-0.0809852
-0.0494255
-0.0195153
0.0084984
0.0344768
0.0583619
0.0801624
-0.390895
-0.388379
-0.383213
-0.375332
-0.364727
-0.351428
-0.33549
-0.316991
-0.296046
-0.272825
-0.247564
-0.220572
-0.192246
-0.163053
-0.133505
-0.10411
-0.0753375
-0.0475956
-0.0211358
0.00378982
0.0270509
0.0485748
0.0683433
-0.347097
-0.344839
-0.340156
-0.333001
-0.323411
-0.311435
-0.297147
-0.280638
-0.262037
-0.241517
-0.219305
-0.195678
-0.170971
-0.145563
-0.119862
-0.0942675
-0.06915
-0.0448217
-0.0215832
0.000435646
0.0210962
0.0403165
0.0580626
-0.305778
-0.303745
-0.299519
-0.293084
-0.2845
-0.273827
-0.261141
-0.246543
-0.230165
-0.212176
-0.192779
-0.172221
-0.150782
-0.128776
-0.106527
-0.0843573
-0.0625644
-0.0414091
-0.0211161
-0.00182636
0.0163478
0.0333284
0.0490755
-0.266484
-0.264657
-0.260885
-0.255173
-0.247589
-0.238192
-0.227062
-0.214299
-0.200034
-0.18442
-0.167642
-0.149909
-0.13146
-0.112551
-0.093447
-0.0744057
-0.0556669
-0.0374433
-0.0199173
-0.00320948
0.0125819
0.0273871
0.0411668
-0.228862
-0.227241
-0.223929
-0.218946
-0.212351
-0.204205
-0.194584
-0.183589
-0.171336
-0.157965
-0.143636
-0.12853
-0.112846
-0.0967954
-0.0805921
-0.0644435
-0.0485421
-0.0330585
-0.0181353
-0.00389003
0.0096085
0.0222999
0.0341472
-0.192666
-0.191259
-0.188415
-0.184158
-0.17854
-0.171616
-0.163462
-0.154167
-0.143837
-0.132593
-0.120571
-0.107928
-0.0948277
-0.0814433
-0.0679464
-0.0545019
-0.0412629
-0.0283649
-0.015923
-0.00402661
0.00726291
0.0178984
0.0278486
-0.157705
-0.156522
-0.154149
-0.150611
-0.145951
-0.140222
-0.13349
-0.125834
-0.117345
-0.108126
-0.098295
-0.08798
-0.0773172
-0.0664446
-0.0554978
-0.0446058
-0.0338875
-0.0234482
-0.0133773
-0.00374459
0.00540505
0.0140351
0.0221215
-0.123814
-0.122861
-0.120958
-0.118126
-0.114404
-0.109838
-0.104485
-0.0984111
-0.0916918
-0.0844141
-0.0766756
-0.0685807
-0.0602373
-0.051753
-0.0432317
-0.0347714
-0.0264616
-0.0183806
-0.0105943
-0.00315453
0.00391183
0.0105784
0.0168305
-0.0909224
-0.0902016
-0.0887588
-0.0866162
-0.0838049
-0.0803644
-0.0763411
-0.0717887
-0.0667696
-0.0613549
-0.0556222
-0.049653
-0.0435292
-0.0373311
-0.0311346
-0.0250103
-0.0190213
-0.0132215
-0.00765368
-0.00234712
0.00267261
0.00740781
0.0118503
-0.0587425
-0.058259
-0.0572745
-0.0558105
-0.0538925
-0.0515517
-0.0488247
-0.0457539
-0.0423882
-0.0387823
-0.0349942
-0.0310831
-0.0271074
-0.0231222
-0.0191787
-0.0153227
-0.0115932
-0.00802156
-0.00462993
-0.0014297
0.0015796
0.00440872
0.00706207
-0.0257308
-0.025511
-0.0250174
-0.0242763
-0.0233074
-0.0221316
-0.0207733
-0.0192608
-0.0176258
-0.0159028
-0.0141272
-0.012334
-0.0105562
-0.00882396
-0.00716315
-0.00559503
-0.00413555
-0.00279485
-0.00157683
-0.00047765
0.000526874
0.00146466
0.00234471
1.35218
1.31207
1.30279
1.27182
1.46814
1.41335
1.36517
1.31981
1.43073
1.38377
1.3407
1.30181
1.36421
1.33048
1.29793
1.26672
1.29982
1.27395
1.24801
1.22246
1.2357
1.21503
1.19405
1.17312
1.17219
1.15552
1.13847
1.12128
1.10982
1.09631
1.08241
1.06828
1.04865
1.03769
1.02637
1.0148
0.988608
0.979773
0.970622
0.961232
0.929562
0.922547
0.915269
0.907778
0.871303
0.865917
0.860318
0.854535
0.8136
0.809751
0.805725
0.801536
0.756262
0.753937
0.751452
0.74881
0.699194
0.698441
0.697519
0.696422
0.642434
0.643344
0.644039
0.644513
0.586189
0.588865
0.591238
0.593312
0.530851
0.535371
0.539464
0.543149
0.476968
0.48334
0.48914
0.494407
0.425262
0.433387
0.440792
0.447542
0.376548
0.386198
0.395005
0.403055
0.331549
0.342381
0.352294
0.361387
0.290723
0.302332
0.313007
0.322843
0.254177
0.26618
0.27728
0.28756
0.221752
0.233828
0.24506
0.255518
0.193148
0.205046
0.216171
0.226581
0.168007
0.179535
0.190367
0.200548
0.145956
0.156972
0.167367
0.177175
0.126628
0.13703
0.14688
0.156207
0.109681
0.119394
0.128623
0.137386
0.0947974
0.103773
0.112324
0.120465
0.0816902
0.0898957
0.0977318
0.105209
0.0701016
0.0775184
0.084616
0.0914022
0.0598012
0.0664202
0.0727656
0.0788431
0.0505831
0.0564023
0.0619892
0.0673482
0.0422638
0.0472855
0.0521129
0.0567492
0.0346788
0.0389082
0.0429784
0.0468917
0.0276798
0.0311239
0.0344413
0.0376337
0.0211315
0.0237978
0.026368
0.028843
0.014908
0.0168041
0.0186327
0.0203946
0.0088891
0.010022
0.011115
0.0121683
0.0029511
0.00332709
0.00368987
0.00403955
1.20346
1.17101
1.13095
1.09012
1.05474
1.02337
0.995206
0.969926
0.9473
0.927156
0.909362
0.893807
0.880395
0.869043
0.859683
0.852259
0.846731
0.843069
0.841249
1.24796
1.18147
1.13137
1.08738
1.04944
1.01648
0.987421
0.961677
0.938857
0.918686
0.900962
0.885527
0.872258
0.861054
0.851832
0.84453
0.839098
0.835501
0.833715
1.24165
1.17541
1.12289
1.07805
1.03943
1.00597
0.976668
0.950872
0.928133
0.908127
0.890614
0.875409
0.862369
0.851379
0.842349
0.835207
0.829899
0.826387
0.824642
1.21671
1.15636
1.10578
1.0623
1.02454
0.991618
0.96276
0.937379
0.915044
0.895434
0.878301
0.863454
0.850741
0.840043
0.831262
0.824324
0.819171
0.815763
0.814069
1.18077
1.12785
1.08151
1.04084
1.00504
0.973515
0.945717
0.921194
0.899588
0.880613
0.864042
0.84969
0.83741
0.827083
0.818613
0.811924
0.806957
0.803672
0.802038
1.13849
1.09294
1.05166
1.01461
0.981477
0.951953
0.925705
0.902423
0.881841
0.863729
0.847893
0.834172
0.822429
0.812554
0.804455
0.798059
0.79331
0.790167
0.788605
1.09254
1.05374
1.01762
0.984519
0.954456
0.927332
0.902991
0.881252
0.861939
0.844889
0.829948
0.816982
0.805875
0.796528
0.788857
0.782796
0.778293
0.775313
0.773831
1.04447
1.01167
0.980491
0.9514
0.924582
0.900088
0.87789
0.857913
0.840064
0.824238
0.810326
0.798225
0.787841
0.779089
0.771898
0.76621
0.761982
0.759182
0.757789
0.995178
0.967703
0.941136
0.915951
0.892411
0.870653
0.850737
0.83267
0.816424
0.801947
0.789172
0.778024
0.768434
0.760334
0.753668
0.748388
0.744458
0.741854
0.74056
0.945223
0.922499
0.900195
0.878744
0.858427
0.839428
0.821861
0.805791
0.791241
0.778201
0.766641
0.756515
0.747775
0.740373
0.734268
0.729423
0.725812
0.723419
0.722229
0.894953
0.876513
0.858153
0.840242
0.82305
0.806779
0.791577
0.777543
0.76474
0.753192
0.742898
0.73384
0.72599
0.71932
0.713803
0.709415
0.706141
0.703968
0.702888
0.844587
0.830073
0.815385
0.800825
0.786642
0.773038
0.760176
0.748183
0.737144
0.727112
0.718112
0.710147
0.703212
0.697296
0.692386
0.688471
0.685544
0.6836
0.682633
0.794272
0.783425
0.772191
0.760815
0.749519
0.7385
0.72793
0.71795
0.708666
0.70015
0.692448
0.685585
0.679575
0.674423
0.67013
0.666697
0.664125
0.662414
0.661563
0.744127
0.736775
0.728827
0.720488
0.711958
0.703433
0.695087
0.687073
0.67951
0.672487
0.66607
0.660302
0.655214
0.650825
0.647151
0.644202
0.641987
0.640511
0.639776
0.694289
0.690322
0.685529
0.680094
0.674214
0.668081
0.661876
0.655761
0.649867
0.644298
0.639136
0.634442
0.630261
0.626627
0.623565
0.621095
0.619234
0.61799
0.617371
0.644932
0.644276
0.642525
0.639872
0.63652
0.632669
0.628509
0.62421
0.619917
0.615748
0.611799
0.608145
0.604846
0.601946
0.599482
0.597482
0.595967
0.594952
0.594444
0.596291
0.598872
0.60005
0.60005
0.599096
0.597406
0.59518
0.592603
0.589831
0.586994
0.584203
0.581546
0.579093
0.5769
0.575013
0.573466
0.572286
0.571491
0.571093
0.548663
0.554375
0.558348
0.560854
0.562154
0.562488
0.562072
0.561109
0.559764
0.558181
0.556483
0.554769
0.553119
0.5516
0.550261
0.549146
0.548285
0.547701
0.547407
0.50238
0.511068
0.517664
0.522504
0.525893
0.5281
0.529351
0.529882
0.529862
0.529445
0.528766
0.527933
0.527036
0.526147
0.525325
0.524616
0.524056
0.52367
0.523474
0.45781
0.469237
0.478233
0.485205
0.490498
0.494418
0.497164
0.499067
0.50026
0.500907
0.501166
0.501147
0.500944
0.500639
0.500295
0.499964
0.499683
0.499482
0.499378
0.415338
0.429176
0.440289
0.449144
0.456121
0.461547
0.465684
0.468797
0.471081
0.472675
0.473787
0.474507
0.474936
0.475163
0.475257
0.47527
0.475246
0.475215
0.475195
0.375307
0.391142
0.40404
0.414496
0.422922
0.429657
0.434987
0.439165
0.442401
0.444866
0.446726
0.448104
0.449093
0.449799
0.450285
0.45061
0.450817
0.450939
0.450996
0.337965
0.355334
0.369645
0.381401
0.39102
0.39885
0.405183
0.410272
0.41433
0.417538
0.420053
0.422002
0.423492
0.424617
0.42545
0.42605
0.426462
0.426719
0.426848
0.303441
0.321869
0.33721
0.349951
0.360502
0.369205
0.376351
0.382191
0.386935
0.390764
0.393833
0.396272
0.398189
0.399677
0.400809
0.401648
0.402238
0.402613
0.402805
0.271752
0.290783
0.306782
0.320199
0.33142
0.340776
0.348547
0.354975
0.360267
0.364599
0.368122
0.370965
0.373236
0.375028
0.376414
0.377454
0.378196
0.378672
0.378914
0.242818
0.262044
0.278354
0.292152
0.303795
0.31359
0.321802
0.328661
0.334363
0.33908
0.342957
0.34612
0.348676
0.350712
0.352304
0.353511
0.354377
0.354936
0.355219
0.216496
0.235561
0.251873
0.265785
0.277618
0.28765
0.296127
0.303264
0.309245
0.314233
0.318367
0.321768
0.324538
0.326763
0.328515
0.32985
0.330814
0.331439
0.331754
0.192602
0.211209
0.227254
0.241041
0.252851
0.262935
0.271514
0.278785
0.28492
0.290071
0.294368
0.297927
0.300845
0.303203
0.305069
0.306499
0.307534
0.308208
0.308545
0.170929
0.188833
0.204385
0.217839
0.22944
0.239406
0.247937
0.255209
0.261381
0.266593
0.270966
0.274608
0.277608
0.280045
0.281983
0.283472
0.284554
0.285259
0.28561
0.151265
0.168271
0.183139
0.196084
0.207311
0.21701
0.225357
0.23251
0.238612
0.24379
0.248156
0.251809
0.254832
0.257297
0.259264
0.26078
0.261885
0.262605
0.262962
0.133396
0.14935
0.163382
0.175668
0.18638
0.195681
0.203724
0.210649
0.216583
0.221641
0.225925
0.229522
0.232511
0.234957
0.236913
0.238425
0.239529
0.240249
0.240605
0.117118
0.131901
0.144973
0.156477
0.166555
0.175345
0.18298
0.18958
0.19526
0.200119
0.20425
0.207732
0.210633
0.213014
0.214923
0.216402
0.217483
0.218189
0.218536
0.102235
0.115757
0.127772
0.138393
0.147737
0.155921
0.163057
0.169249
0.174597
0.179188
0.183103
0.186413
0.189179
0.191454
0.193282
0.194701
0.195739
0.196418
0.19675
0.088565
0.10076
0.11164
0.121297
0.129826
0.137324
0.143884
0.149595
0.154543
0.158804
0.162448
0.165536
0.168122
0.170255
0.171972
0.173306
0.174283
0.174922
0.175233
0.0759364
0.0867553
0.096444
0.105074
0.112721
0.119466
0.125385
0.130554
0.135044
0.13892
0.142243
0.145065
0.147434
0.14939
0.150968
0.152196
0.153096
0.153685
0.15397
0.064191
0.0736007
0.0820541
0.0896068
0.0963199
0.102257
0.107482
0.112055
0.116038
0.119483
0.122443
0.124961
0.127078
0.12883
0.130244
0.131346
0.132155
0.132684
0.132938
0.0531814
0.0611596
0.0683463
0.0747843
0.0805212
0.0856072
0.090093
0.0940285
0.0974616
0.100437
0.102997
0.105179
0.107017
0.108539
0.10977
0.110729
0.111434
0.111895
0.112115
0.0427705
0.0493033
0.0552012
0.0604964
0.065225
0.0694256
0.0731373
0.0763994
0.0792496
0.0817238
0.0838553
0.0856745
0.0872083
0.0884803
0.08951
0.0903137
0.0909039
0.0912901
0.0914732
0.032829
0.0379089
0.0425035
0.0466358
0.0503323
0.0536213
0.056532
0.0590936
0.0613346
0.0632823
0.0649621
0.0663975
0.067609
0.0686146
0.0694294
0.0700658
0.0705333
0.0708392
0.0709826
0.0232337
0.0268581
0.0301407
0.0330971
0.0357453
0.0381044
0.0401946
0.042036
0.0436486
0.0450515
0.0462626
0.0472983
0.0481733
0.0489002
0.0494895
0.04995
0.0502884
0.05051
0.050612
0.0138657
0.0160359
0.0180035
0.0197774
0.0213678
0.022786
0.0240435
0.0251522
0.0261239
0.0269699
0.0277007
0.0283262
0.028855
0.0292945
0.029651
0.0299297
0.0301346
0.0302689
0.0303288
0.00460293
0.00532437
0.00597912
0.00656997
0.00710019
0.00757338
0.00799331
0.00836385
0.00868883
0.00897198
0.00921678
0.00942643
0.00960379
0.00975129
0.00987101
0.00996462
0.0100335
0.0100787
0.010098
)
;

boundaryField
{
    leftWall
    {
        type            fixedFluxPressure;
        gradient        uniform 0;
        value           nonuniform List<scalar> 
50
(
1365.78
1367.26
1370.26
1374.76
1380.79
1388.33
1397.39
1407.91
1426.75
1459.25
1498.41
1544.07
1595.97
1653.79
1717.15
1785.64
1858.82
1936.22
2017.38
2101.74
2188.86
2278.96
2370.97
2459.17
2551.24
2518.03
804.383
-1.21295
-1.13299
-1.03758
-0.953426
-0.872943
-0.797335
-0.726475
-0.660547
-0.599105
-0.541623
-0.487845
-0.437673
-0.390895
-0.347097
-0.305778
-0.266484
-0.228862
-0.192666
-0.157705
-0.123814
-0.0909224
-0.0587425
-0.0257308
)
;
    }
    rightWall
    {
        type            fixedFluxPressure;
        gradient        uniform 0;
        value           nonuniform List<scalar> 
50
(
0.855468
0.855128
0.85443
0.853378
0.851971
0.850212
0.848101
0.845641
0.841249
0.833715
0.824642
0.814069
0.802038
0.788605
0.773831
0.757789
0.74056
0.722229
0.702888
0.682633
0.661563
0.639776
0.617371
0.594444
0.571093
0.547407
0.523474
0.499378
0.475195
0.450996
0.426848
0.402805
0.378914
0.355219
0.331754
0.308545
0.28561
0.262962
0.240605
0.218536
0.19675
0.175233
0.15397
0.132938
0.112115
0.0914732
0.0709826
0.050612
0.0303288
0.010098
)
;
    }
    lowerWall
    {
        type            fixedFluxPressure;
        gradient        uniform 0;
        value           nonuniform List<scalar> 
62
(
1365.78
1357.25
1338.66
1310.35
1271.97
1222.86
1162.15
1088.58
1001
895.988
772.501
634.309
448.456
213.86
59.2845
8.67201
3.86241
3.25016
2.99243
2.73885
2.55945
2.45028
2.39905
2.39905
2.38273
2.3454
2.28896
2.21497
2.12349
2.01203
1.87959
1.35218
1.31207
1.30279
1.27182
1.12478
1.12589
1.12814
1.13148
1.136
1.14121
1.14386
1.1472
1.12478
1.11691
1.10053
1.07898
1.05498
1.03032
1.00614
0.983135
0.961734
0.942181
0.924596
0.909034
0.895499
0.883967
0.874409
0.866798
0.861116
0.857344
0.855468
)
;
    }
    atmosphere
    {
        type            totalPressure;
        rho             rho;
        psi             none;
        gamma           1;
        p0              uniform 0;
        value           nonuniform List<scalar> 
46
(
-0.0081362
-0.00809512
-0.00787068
-0.00753716
-0.00710417
-0.00658435
-0.00599323
-0.00534884
-0.00467109
-0.00398097
-0.00329966
-0.00264747
-0.00204289
-0.00150167
-0.00103611
-0.000654592
-0.000361468
-0.000157152
-3.85958e-05
-7.78525e-09
0
0
0
0
0
0
0
0
0
0
0
0
0
0
0
0
0
0
0
0
0
0
0
0
0
0
)
;
    }
    defaultFaces
    {
        type            empty;
    }
}


// ************************************************************************* //
