/*--------------------------------*- C++ -*----------------------------------*\
| =========                 |                                                 |
| \\      /  F ield         | OpenFOAM: The Open Source CFD Toolbox           |
|  \\    /   O peration     | Version:  5.x                                   |
|   \\  /    A nd           | Web:      www.OpenFOAM.org                      |
|    \\/     M anipulation  |                                                 |
\*---------------------------------------------------------------------------*/
FoamFile
{
    version     2.0;
    format      ascii;
    class       surfaceScalarField;
    location    "0.05";
    object      phi;
}
// * * * * * * * * * * * * * * * * * * * * * * * * * * * * * * * * * * * * * //

dimensions      [0 3 -1 0 0 0 0];

internalField   nonuniform List<scalar> 
4432
(
3.19284e-06
-3.19284e-06
6.58449e-06
-3.39163e-06
1.0003e-05
-3.41855e-06
1.35653e-05
-3.56233e-06
1.73455e-05
-3.78022e-06
2.14257e-05
-4.08018e-06
2.59144e-05
-4.48868e-06
3.09613e-05
-5.04692e-06
3.67922e-05
-5.83089e-06
4.36992e-05
-6.90693e-06
5.24927e-05
-8.79353e-06
6.32021e-05
-1.07094e-05
7.71374e-05
-1.39353e-05
9.64844e-05
-1.9347e-05
0.000115744
-1.92596e-05
0.000102599
1.31449e-05
8.09612e-05
2.16379e-05
6.55753e-05
1.53876e-05
5.01659e-05
1.54085e-05
3.63048e-05
1.38611e-05
2.35582e-05
1.27455e-05
1.16879e-05
1.18696e-05
1.16872e-05
3.18935e-06
-6.38221e-06
6.57337e-06
-6.77566e-06
9.98489e-06
-6.8301e-06
1.35378e-05
-7.11526e-06
1.73049e-05
-7.54728e-06
2.13665e-05
-8.1417e-06
2.58278e-05
-8.95003e-06
3.08347e-05
-1.00538e-05
3.65895e-05
-1.15857e-05
4.34235e-05
-1.37409e-05
5.18247e-05
-1.71947e-05
6.2004e-05
-2.08887e-05
7.5945e-05
-2.78763e-05
9.45373e-05
-3.79392e-05
0.00011951
-4.42326e-05
0.000140439
-7.78373e-06
0.000131715
3.0361e-05
0.000100035
4.70666e-05
6.6311e-05
4.91315e-05
4.23934e-05
3.77793e-05
2.64842e-05
2.86547e-05
1.31684e-05
2.51869e-05
2.4855e-05
3.17167e-06
-9.5539e-06
6.53155e-06
-1.01355e-05
9.91837e-06
-1.02169e-05
1.34421e-05
-1.0639e-05
1.71724e-05
-1.12775e-05
2.11854e-05
-1.21547e-05
2.55794e-05
-1.33442e-05
3.04883e-05
-1.49627e-05
3.60899e-05
-1.71873e-05
4.26897e-05
-2.03407e-05
5.05977e-05
-2.51027e-05
6.04885e-05
-3.07795e-05
7.54212e-05
-4.2809e-05
9.34897e-05
-5.60077e-05
0.000105559
-5.63016e-05
0.000120558
-2.27825e-05
0.000110657
4.02614e-05
8.11697e-05
7.65544e-05
5.48018e-05
7.54994e-05
3.7664e-05
5.49164e-05
2.4714e-05
4.16028e-05
1.26406e-05
3.72622e-05
3.74954e-05
3.14466e-06
-1.26986e-05
6.46902e-06
-1.34599e-05
9.81898e-06
-1.35669e-05
1.32994e-05
-1.41194e-05
1.69753e-05
-1.49535e-05
2.0917e-05
-1.60963e-05
2.52128e-05
-1.764e-05
2.99796e-05
-1.97295e-05
3.53672e-05
-2.25749e-05
4.16242e-05
-2.65977e-05
4.89475e-05
-3.2426e-05
5.79186e-05
-3.97506e-05
7.10499e-05
-5.59403e-05
8.41213e-05
-6.90791e-05
8.79687e-05
-6.01493e-05
8.61843e-05
-2.09978e-05
7.13308e-05
5.51152e-05
5.32446e-05
9.46416e-05
4.24288e-05
8.63142e-05
3.31645e-05
6.41792e-05
2.32511e-05
5.1515e-05
1.24407e-05
4.80749e-05
4.99359e-05
3.10869e-06
-1.58072e-05
6.38655e-06
-1.67377e-05
9.68812e-06
-1.68684e-05
1.31119e-05
-1.75431e-05
1.67173e-05
-1.8559e-05
2.0567e-05
-1.9946e-05
2.47376e-05
-2.18106e-05
2.9326e-05
-2.43178e-05
3.44486e-05
-2.76976e-05
4.02897e-05
-3.24388e-05
4.69272e-05
-3.90634e-05
5.47859e-05
-4.76094e-05
6.51894e-05
-6.63438e-05
7.47829e-05
-7.86726e-05
7.35335e-05
-5.88998e-05
5.65586e-05
-4.02253e-06
4.00952e-05
7.1578e-05
3.52979e-05
9.94386e-05
3.45809e-05
8.70301e-05
2.99114e-05
6.88485e-05
2.22845e-05
5.91413e-05
1.2662e-05
5.76995e-05
6.25975e-05
3.06416e-06
-1.88714e-05
6.28534e-06
-1.99589e-05
9.52785e-06
-2.01109e-05
1.28829e-05
-2.08982e-05
1.64034e-05
-2.20795e-05
2.01435e-05
-2.36862e-05
2.41667e-05
-2.58338e-05
2.85488e-05
-2.86999e-05
3.33689e-05
-3.25176e-05
3.87522e-05
-3.78221e-05
4.46481e-05
-4.49594e-05
5.13912e-05
-5.43524e-05
5.95089e-05
-7.44615e-05
6.63627e-05
-8.55265e-05
5.96464e-05
-5.21835e-05
3.54414e-05
2.01826e-05
2.44851e-05
8.25337e-05
2.77962e-05
9.61276e-05
3.03053e-05
8.45207e-05
2.76787e-05
7.14751e-05
2.18455e-05
6.49737e-05
1.34565e-05
6.60899e-05
7.60534e-05
3.01209e-06
-2.18834e-05
6.16731e-06
-2.31141e-05
9.34146e-06
-2.3285e-05
1.26174e-05
-2.41741e-05
1.60411e-05
-2.55032e-05
1.96579e-05
-2.7303e-05
2.35178e-05
-2.96936e-05
2.76754e-05
-3.28576e-05
3.21755e-05
-3.70177e-05
3.70868e-05
-4.27334e-05
4.22193e-05
-5.00919e-05
4.78483e-05
-5.99814e-05
5.41222e-05
-8.07354e-05
5.87772e-05
-9.01815e-05
4.68122e-05
-4.02187e-05
2.37458e-05
4.32491e-05
1.96953e-05
8.65836e-05
2.5064e-05
9.07595e-05
2.76979e-05
8.18868e-05
2.62248e-05
7.29479e-05
2.20527e-05
6.91451e-05
1.53206e-05
7.28226e-05
9.13735e-05
2.95411e-06
-2.48375e-05
6.03408e-06
-2.61941e-05
9.13219e-06
-2.63831e-05
1.2321e-05
-2.73629e-05
1.5639e-05
-2.88213e-05
1.9123e-05
-3.0787e-05
2.28104e-05
-3.3381e-05
2.67364e-05
-3.67836e-05
3.09206e-05
-4.12019e-05
3.54045e-05
-4.72173e-05
3.97706e-05
-5.4458e-05
4.42733e-05
-6.44841e-05
4.87556e-05
-8.52177e-05
5.10301e-05
-9.24561e-05
3.61571e-05
-2.5346e-05
1.89008e-05
6.05062e-05
1.91059e-05
8.6378e-05
2.37062e-05
8.61594e-05
2.5914e-05
7.96787e-05
2.53811e-05
7.34802e-05
2.28832e-05
7.16423e-05
1.72926e-05
7.84137e-05
0.000108666
2.72772e-06
-2.72772e-06
5.03852e-06
-2.31091e-06
6.48708e-06
-1.4486e-06
7.20802e-06
-7.21034e-07
7.40647e-06
-1.98551e-07
7.26418e-06
1.42245e-07
6.91203e-06
3.52075e-07
6.43733e-06
4.74816e-07
5.89304e-06
5.44362e-07
5.31214e-06
5.81031e-07
4.71415e-06
5.97827e-07
4.11089e-06
6.03024e-07
3.50885e-06
6.01878e-07
2.91139e-06
5.97536e-07
2.31962e-06
5.91871e-07
1.73344e-06
5.86161e-07
1.15201e-06
5.81257e-07
5.74172e-07
5.77572e-07
5.73908e-07
2.86422e-06
-5.59199e-06
5.27784e-06
-4.7247e-06
6.74843e-06
-2.91933e-06
7.45426e-06
-1.42698e-06
7.6331e-06
-3.77508e-07
7.47846e-06
2.96985e-07
7.11494e-06
7.15642e-07
6.6257e-06
9.64276e-07
6.06477e-06
1.10513e-06
5.46619e-06
1.17941e-06
4.85013e-06
1.21359e-06
4.22884e-06
1.22426e-06
3.60901e-06
1.22172e-06
2.9941e-06
1.21246e-06
2.38525e-06
1.20057e-06
1.78231e-06
1.18877e-06
1.18438e-06
1.1788e-06
5.89913e-07
1.17162e-06
1.16359e-06
3.03726e-06
-8.6293e-06
5.56485e-06
-7.2524e-06
7.00925e-06
-4.3638e-06
7.6437e-06
-2.06145e-06
7.75425e-06
-4.88069e-07
7.54596e-06
5.05398e-07
7.14564e-06
1.11588e-06
6.63437e-06
1.47559e-06
6.06118e-06
1.67816e-06
5.45628e-06
1.78421e-06
4.83756e-06
1.83213e-06
4.21577e-06
1.84598e-06
3.59669e-06
1.84071e-06
2.98322e-06
1.82585e-06
2.37624e-06
1.80743e-06
1.77542e-06
1.78938e-06
1.17974e-06
1.7742e-06
5.87623e-07
1.76336e-06
1.75099e-06
3.31291e-06
-1.19422e-05
6.02404e-06
-9.96358e-06
7.41333e-06
-5.7531e-06
7.92794e-06
-2.57601e-06
7.9358e-06
-4.95936e-07
7.65643e-06
7.84875e-07
7.20985e-06
1.56234e-06
6.66977e-06
2.01566e-06
6.07911e-06
2.26869e-06
5.46382e-06
2.39944e-06
4.83913e-06
2.45667e-06
4.21406e-06
2.47091e-06
3.59341e-06
2.46121e-06
2.97944e-06
2.43973e-06
2.37263e-06
2.41414e-06
1.77244e-06
2.38944e-06
1.17762e-06
2.36876e-06
5.86559e-07
2.35404e-06
2.3373e-06
3.70087e-06
-1.56431e-05
6.68898e-06
-1.29517e-05
7.97344e-06
-7.03754e-06
8.30642e-06
-2.90891e-06
8.17066e-06
-3.60166e-07
7.79765e-06
1.15797e-06
7.2917e-06
2.06818e-06
6.71511e-06
2.59225e-06
6.10233e-06
2.88138e-06
5.47382e-06
3.02788e-06
4.84145e-06
3.08887e-06
4.21215e-06
3.10005e-06
3.58943e-06
3.08379e-06
2.97475e-06
3.05432e-06
2.36814e-06
3.0207e-06
1.76868e-06
2.98875e-06
1.17496e-06
2.96222e-06
5.85195e-07
2.94341e-06
2.92225e-06
4.16211e-06
-1.98052e-05
7.59703e-06
-1.63866e-05
8.70182e-06
-8.14236e-06
8.77185e-06
-2.97888e-06
8.45221e-06
-4.05136e-08
7.9632e-06
1.64708e-06
7.38657e-06
2.64476e-06
6.76708e-06
3.21178e-06
6.12845e-06
3.51993e-06
5.48454e-06
3.6717e-06
4.84324e-06
3.72997e-06
4.20905e-06
3.73408e-06
3.584e-06
3.70871e-06
2.96861e-06
3.66965e-06
2.36232e-06
3.62693e-06
1.76387e-06
3.58706e-06
1.17155e-06
3.55424e-06
5.83445e-07
3.53109e-06
3.50545e-06
5.28831e-06
-2.50935e-05
8.92449e-06
-2.00227e-05
9.6133e-06
-8.8313e-06
9.30959e-06
-2.67518e-06
8.77018e-06
4.98873e-07
8.14483e-06
2.27248e-06
7.48931e-06
3.30024e-06
6.82257e-06
3.87853e-06
6.15559e-06
4.18683e-06
5.49481e-06
4.33237e-06
4.84378e-06
4.38082e-06
4.20432e-06
4.3734e-06
3.57684e-06
4.3361e-06
2.96083e-06
4.2856e-06
2.35508e-06
4.2326e-06
1.75791e-06
4.18405e-06
1.16736e-06
4.14446e-06
5.81299e-07
4.11673e-06
4.08652e-06
1.05196e-05
-3.56132e-05
1.14159e-05
-2.09192e-05
1.07425e-05
-8.15798e-06
9.90089e-06
-1.83363e-06
9.09926e-06
1.30041e-06
8.33279e-06
3.03891e-06
7.59479e-06
4.03815e-06
6.87879e-06
4.59447e-06
6.18218e-06
4.88331e-06
5.50376e-06
5.01065e-06
4.84257e-06
5.04185e-06
4.19767e-06
5.01819e-06
3.56779e-06
4.96593e-06
2.9513e-06
4.90202e-06
2.34634e-06
4.83745e-06
1.75078e-06
4.7794e-06
1.16236e-06
4.73256e-06
5.7875e-07
4.69997e-06
4.66513e-06
6.05807e-06
-3.08956e-05
1.23377e-05
-3.24737e-05
1.86443e-05
-3.26897e-05
2.51066e-05
-3.38252e-05
3.17827e-05
-3.54975e-05
3.87231e-05
-3.77273e-05
4.59714e-05
-4.06292e-05
5.3549e-05
-4.43612e-05
6.14653e-05
-4.91182e-05
6.95159e-05
-5.52679e-05
7.78727e-05
-6.28149e-05
8.5654e-05
-7.22655e-05
9.17596e-05
-9.13232e-05
9.07881e-05
-9.14845e-05
5.31674e-05
1.2275e-05
3.73722e-05
7.63018e-05
4.09242e-05
8.28258e-05
4.72959e-05
7.97878e-05
5.13694e-05
7.56048e-05
5.3212e-05
7.16372e-05
5.53935e-05
6.9461e-05
6.42725e-05
6.95352e-05
7.19521e-05
0.000100987
5.70226e-06
-3.65978e-05
1.1556e-05
-3.83274e-05
1.74251e-05
-3.85589e-05
2.33962e-05
-3.97963e-05
2.94977e-05
-4.15989e-05
3.57467e-05
-4.39763e-05
4.21438e-05
-4.70263e-05
4.86587e-05
-5.08761e-05
5.52164e-05
-5.56759e-05
6.16225e-05
-6.16739e-05
6.76642e-05
-6.88566e-05
7.28441e-05
-7.74454e-05
7.61091e-05
-9.45883e-05
6.83247e-05
-8.36998e-05
3.93638e-05
4.12357e-05
3.56846e-05
7.99806e-05
3.92931e-05
7.92173e-05
4.37906e-05
7.52903e-05
4.78388e-05
7.15565e-05
5.18573e-05
6.76187e-05
5.77007e-05
6.36179e-05
6.79892e-05
5.92473e-05
5.48025e-05
8.51388e-05
5.30951e-06
-4.19074e-05
1.07034e-05
-4.37213e-05
1.61034e-05
-4.39589e-05
2.15575e-05
-4.52504e-05
2.70694e-05
-4.71109e-05
3.26316e-05
-4.95385e-05
3.82157e-05
-5.26103e-05
4.376e-05
-5.64204e-05
4.91547e-05
-6.10707e-05
5.42035e-05
-6.67227e-05
5.8632e-05
-7.32851e-05
6.20943e-05
-8.09076e-05
6.38287e-05
-9.63227e-05
4.94511e-05
-6.93221e-05
3.17309e-05
5.89559e-05
3.26118e-05
7.90992e-05
3.64734e-05
7.53555e-05
4.03342e-05
7.14297e-05
4.40807e-05
6.78105e-05
4.78909e-05
6.38086e-05
5.21431e-05
5.93657e-05
5.723e-05
5.41604e-05
4.74329e-05
6.45996e-05
4.89348e-06
-4.68008e-05
9.81218e-06
-4.864e-05
1.47305e-05
-4.88773e-05
1.96626e-05
-5.01825e-05
2.45943e-05
-5.20425e-05
2.95009e-05
-5.44452e-05
3.43374e-05
-5.74468e-05
3.9028e-05
-6.1111e-05
4.34557e-05
-6.54983e-05
4.74384e-05
-7.07055e-05
5.07406e-05
-7.65872e-05
5.31248e-05
-8.32918e-05
5.40897e-05
-9.72876e-05
3.47981e-05
-5.00301e-05
2.70674e-05
6.66866e-05
2.97697e-05
7.6397e-05
3.33749e-05
7.17506e-05
3.67449e-05
6.806e-05
4.00026e-05
6.45528e-05
4.31746e-05
6.06365e-05
4.63268e-05
5.62137e-05
4.94718e-05
5.10156e-05
4.46344e-05
5.22705e-05
4.46721e-06
-5.1268e-05
8.91057e-06
-5.30834e-05
1.33496e-05
-5.33164e-05
1.77712e-05
-5.46041e-05
2.21486e-05
-5.64199e-05
2.64476e-05
-5.87441e-05
3.06154e-05
-6.16146e-05
3.45739e-05
-6.50695e-05
3.82136e-05
-6.9138e-05
4.13797e-05
-7.38716e-05
4.38918e-05
-7.90993e-05
4.56003e-05
-8.50004e-05
4.61557e-05
-9.78431e-05
2.65188e-05
-3.03933e-05
2.36174e-05
6.95882e-05
2.68999e-05
7.31149e-05
3.01935e-05
6.84567e-05
3.31839e-05
6.50693e-05
3.60036e-05
6.17328e-05
3.86301e-05
5.80098e-05
4.10228e-05
5.38211e-05
4.29987e-05
4.90399e-05
4.35575e-05
4.40758e-05
4.04147e-06
-5.53095e-05
8.02063e-06
-5.70625e-05
1.1994e-05
-5.72898e-05
1.59272e-05
-5.85373e-05
1.97861e-05
-6.02789e-05
2.35321e-05
-6.24902e-05
2.71111e-05
-6.51936e-05
3.04497e-05
-6.8408e-05
3.34523e-05
-7.21406e-05
3.59933e-05
-7.64126e-05
3.79409e-05
-8.10469e-05
3.92013e-05
-8.62607e-05
3.95008e-05
-9.81426e-05
2.10555e-05
-1.19478e-05
2.0445e-05
7.01991e-05
2.39733e-05
6.95864e-05
2.70685e-05
6.53608e-05
2.97777e-05
6.23595e-05
3.22203e-05
5.92898e-05
3.43709e-05
5.58593e-05
3.61619e-05
5.20304e-05
3.74375e-05
4.77644e-05
4.30599e-05
3.79354e-05
3.62465e-06
-5.89342e-05
7.15858e-06
-6.05965e-05
1.06872e-05
-6.08184e-05
1.41605e-05
-6.20105e-05
1.75412e-05
-6.36596e-05
2.07896e-05
-6.57386e-05
2.38543e-05
-6.82584e-05
2.66699e-05
-7.12236e-05
2.91563e-05
-7.4627e-05
3.12148e-05
-7.84711e-05
3.2752e-05
-8.25841e-05
3.37126e-05
-8.72213e-05
3.3878e-05
-9.83081e-05
1.53991e-05
6.53139e-06
1.74968e-05
6.81011e-05
2.12369e-05
6.58458e-05
2.41847e-05
6.24122e-05
2.66405e-05
5.99035e-05
2.8741e-05
5.71894e-05
3.04885e-05
5.41121e-05
3.18398e-05
5.06794e-05
3.27014e-05
4.69029e-05
4.28323e-05
3.29293e-05
3.22277e-06
-6.21569e-05
6.33521e-06
-6.37089e-05
9.44425e-06
-6.39274e-05
1.24892e-05
-6.50555e-05
1.54325e-05
-6.66029e-05
1.82359e-05
-6.8542e-05
2.08525e-05
-7.0875e-05
2.32258e-05
-7.3597e-05
2.52906e-05
-7.66918e-05
2.69702e-05
-8.01507e-05
2.81996e-05
-8.38135e-05
2.8945e-05
-8.79667e-05
2.90024e-05
-9.83656e-05
1.20118e-05
2.35221e-05
1.54489e-05
6.46634e-05
1.9061e-05
6.22336e-05
2.1733e-05
5.97402e-05
2.38747e-05
5.77621e-05
2.56279e-05
5.54366e-05
2.70178e-05
5.27228e-05
2.80283e-05
4.96693e-05
2.86097e-05
4.63215e-05
4.27538e-05
2.86885e-05
2.83972e-06
-6.49966e-05
5.55677e-06
-6.64259e-05
8.27329e-06
-6.66439e-05
1.09221e-05
-6.77043e-05
1.34672e-05
-6.9148e-05
1.58731e-05
-7.09479e-05
1.80984e-05
-7.31003e-05
2.00955e-05
-7.55941e-05
2.18119e-05
-7.84081e-05
2.31882e-05
-8.15271e-05
2.41795e-05
-8.48048e-05
2.4763e-05
-8.85502e-05
2.47208e-05
-9.83234e-05
1.18378e-05
3.64051e-05
1.47278e-05
6.17729e-05
1.76249e-05
5.93366e-05
1.97907e-05
5.75747e-05
2.15147e-05
5.60384e-05
2.28882e-05
5.40633e-05
2.39354e-05
5.16759e-05
2.46537e-05
4.89509e-05
2.50209e-05
4.59546e-05
4.2772e-05
2.5003e-05
2.47756e-06
-6.74742e-05
4.82575e-06
-6.87741e-05
7.17697e-06
-6.89951e-05
9.46071e-06
-6.9988e-05
1.16436e-05
-7.13309e-05
1.36941e-05
-7.29983e-05
1.5576e-05
-7.49823e-05
1.725e-05
-7.72681e-05
1.86743e-05
-7.98324e-05
1.98035e-05
-8.26562e-05
2.06067e-05
-8.5608e-05
2.10672e-05
-8.90107e-05
2.09489e-05
-9.82054e-05
1.29441e-05
4.44101e-05
1.4739e-05
5.99779e-05
1.67203e-05
5.73553e-05
1.82724e-05
5.60225e-05
1.95147e-05
5.47961e-05
2.04806e-05
5.30972e-05
2.11859e-05
5.09708e-05
2.16342e-05
4.85026e-05
2.18171e-05
4.57718e-05
4.28696e-05
2.17198e-05
2.13702e-06
-6.96112e-05
4.14206e-06
-7.07791e-05
6.15413e-06
-7.10071e-05
8.10192e-06
-7.19358e-05
9.95516e-06
-7.31842e-05
1.16863e-05
-7.47294e-05
1.32646e-05
-7.65607e-05
1.46577e-05
-7.86613e-05
1.58328e-05
-8.10075e-05
1.67552e-05
-8.35787e-05
1.74072e-05
-8.62599e-05
1.77744e-05
-8.9378e-05
1.75969e-05
-9.8028e-05
1.34672e-05
4.85399e-05
1.4747e-05
5.86979e-05
1.60511e-05
5.6051e-05
1.7042e-05
5.50314e-05
1.77938e-05
5.40445e-05
1.8337e-05
5.25536e-05
1.86958e-05
5.06123e-05
1.88825e-05
4.83166e-05
1.88941e-05
4.57601e-05
4.30412e-05
1.87224e-05
1.81785e-06
-7.14291e-05
3.5039e-06
-7.24652e-05
5.20123e-06
-7.27044e-05
6.83977e-06
-7.35744e-05
8.39221e-06
-7.47367e-05
9.83499e-06
-7.61722e-05
1.11423e-05
-7.7868e-05
1.22879e-05
-7.98068e-05
1.32454e-05
-8.1965e-05
1.39869e-05
-8.43202e-05
1.45092e-05
-8.67821e-05
1.47982e-05
-8.96669e-05
1.4525e-05
-9.77548e-05
1.34636e-05
4.96012e-05
1.46747e-05
5.74863e-05
1.55419e-05
5.51836e-05
1.60321e-05
5.45411e-05
1.62822e-05
5.37947e-05
1.6381e-05
5.24547e-05
1.6381e-05
5.06117e-05
1.63066e-05
4.83912e-05
1.61556e-05
4.59114e-05
4.32815e-05
1.59153e-05
1.5182e-06
-7.29473e-05
2.90735e-06
-7.38544e-05
4.31206e-06
-7.41091e-05
5.66421e-06
-7.49265e-05
6.94013e-06
-7.60126e-05
8.11971e-06
-7.73518e-05
9.18204e-06
-7.89303e-05
1.01069e-05
-8.07316e-05
1.08733e-05
-8.27314e-05
1.14583e-05
-8.49052e-05
1.1868e-05
-8.71918e-05
1.20509e-05
-8.98499e-05
1.18713e-05
-9.75753e-05
1.35421e-05
4.79302e-05
1.48264e-05
5.62017e-05
1.53131e-05
5.46968e-05
1.52499e-05
5.46039e-05
1.49266e-05
5.41182e-05
1.45277e-05
5.28537e-05
1.41454e-05
5.09942e-05
1.38087e-05
4.87276e-05
1.35065e-05
4.62136e-05
4.35768e-05
1.32111e-05
1.23765e-06
-7.41849e-05
2.34741e-06
-7.49641e-05
3.47794e-06
-7.52396e-05
4.56221e-06
-7.60108e-05
5.5812e-06
-7.70316e-05
6.51748e-06
-7.82881e-05
7.354e-06
-7.97668e-05
8.07602e-06
-8.14536e-05
8.66783e-06
-8.33232e-05
9.12619e-06
-8.53635e-05
9.48733e-06
-8.75529e-05
9.44341e-06
-8.9806e-05
1.10505e-05
-9.91825e-05
1.43252e-05
4.46556e-05
1.57225e-05
5.48045e-05
1.56008e-05
5.48187e-05
1.47267e-05
5.54776e-05
1.36544e-05
5.51907e-05
1.26616e-05
5.38468e-05
1.18659e-05
5.17903e-05
1.12755e-05
4.93179e-05
1.08486e-05
4.66404e-05
4.38976e-05
1.0528e-05
9.79815e-07
-7.51647e-05
1.82582e-06
-7.58101e-05
2.70261e-06
-7.61164e-05
3.54133e-06
-7.68495e-05
4.32758e-06
-7.78178e-05
5.04554e-06
-7.9006e-05
5.67963e-06
-8.04009e-05
6.21357e-06
-8.19875e-05
6.62221e-06
-8.37319e-05
6.88961e-06
-8.56309e-05
7.15219e-06
-8.78155e-05
6.46666e-06
-8.91204e-05
9.13037e-06
-0.000101846
1.6404e-05
3.7382e-05
1.80155e-05
5.31929e-05
1.65978e-05
5.62367e-05
1.44199e-05
5.76555e-05
1.23141e-05
5.72965e-05
1.06099e-05
5.55509e-05
9.38838e-06
5.30119e-05
8.58191e-06
5.01243e-05
8.08393e-06
4.71384e-05
4.41915e-05
7.79007e-06
7.40844e-07
-7.59056e-05
1.3643e-06
-7.64336e-05
2.02762e-06
-7.67797e-05
2.65775e-06
-7.74796e-05
3.24618e-06
-7.84062e-05
3.78276e-06
-7.95426e-05
4.25563e-06
-8.08737e-05
4.64343e-06
-8.23753e-05
4.91567e-06
-8.40041e-05
4.91309e-06
-8.56283e-05
4.52959e-06
-8.7432e-05
1.82443e-06
-8.64152e-05
-3.10055e-06
-9.69213e-05
1.96731e-05
1.46084e-05
2.24246e-05
5.0441e-05
1.84664e-05
6.01956e-05
1.41363e-05
6.19855e-05
1.06147e-05
6.08183e-05
8.10766e-06
5.80581e-05
6.50739e-06
5.46122e-05
5.57978e-06
5.10519e-05
5.11079e-06
4.76074e-05
4.43725e-05
4.92978e-06
5.57567e-07
-7.64632e-05
9.97489e-07
-7.68736e-05
1.4731e-06
-7.72553e-05
1.93128e-06
-7.79378e-05
2.35705e-06
-7.8832e-05
2.74027e-06
-7.99258e-05
3.06768e-06
-8.12012e-05
3.31997e-06
-8.26276e-05
3.52306e-06
-8.42072e-05
3.58526e-06
-8.56905e-05
3.22242e-06
-8.70691e-05
7.72032e-06
-9.09132e-05
3.65263e-07
-8.95662e-05
3.10557e-05
-1.60819e-05
3.15455e-05
4.99511e-05
2.09987e-05
7.07426e-05
1.32679e-05
6.97163e-05
7.97633e-06
6.61103e-05
4.73534e-06
6.12993e-05
2.96791e-06
5.63795e-05
2.12232e-06
5.18975e-05
1.84717e-06
4.78824e-05
4.4318e-05
1.90148e-06
2.77373e-07
-7.67405e-05
4.8054e-07
-7.70767e-05
7.18218e-07
-7.7493e-05
9.31059e-07
-7.81507e-05
1.11393e-06
-7.90149e-05
1.25457e-06
-8.00664e-05
1.33606e-06
-8.12826e-05
1.3684e-06
-8.26599e-05
1.30243e-06
-8.41413e-05
2.36514e-06
-8.67532e-05
4.5218e-06
-8.92258e-05
2.85342e-05
-0.000114926
4.43979e-05
-0.00010543
7.35843e-05
-4.52683e-05
4.61344e-05
7.7401e-05
2.38106e-05
9.30669e-05
1.04553e-05
8.30718e-05
3.42118e-06
7.31448e-05
2.71285e-08
6.46934e-05
-1.49798e-06
5.79047e-05
-1.92102e-06
5.23206e-05
-1.75722e-06
4.77185e-05
4.38675e-05
-1.30703e-06
-6.36164e-07
-7.61043e-05
-1.38513e-06
-7.63275e-05
-2.05506e-06
-7.68228e-05
-2.79881e-06
-7.74067e-05
-3.57251e-06
-7.8241e-05
-4.36354e-06
-7.92751e-05
-5.04908e-06
-8.05968e-05
-5.33857e-06
-8.23701e-05
-5.74403e-06
-8.37354e-05
-1.53361e-06
-9.09634e-05
1.67161e-05
-0.000107475
2.95601e-05
-0.000127769
8.17265e-05
-0.000157596
6.22022e-05
-2.57438e-05
6.08515e-05
7.87518e-05
2.55914e-05
0.000128327
3.48135e-06
0.000105182
-4.27903e-06
8.09055e-05
-6.83143e-06
6.7246e-05
-7.16617e-06
5.82395e-05
-6.59717e-06
5.17515e-05
-5.67313e-06
4.67942e-05
4.28389e-05
-4.64473e-06
-3.31722e-06
-7.27869e-05
-6.73722e-06
-7.29099e-05
-1.0217e-05
-7.33434e-05
-1.37161e-05
-7.39072e-05
-1.7227e-05
-7.47292e-05
-2.05922e-05
-7.59103e-05
-2.34864e-05
-7.77026e-05
-2.55432e-05
-8.03134e-05
-2.43545e-05
-8.49241e-05
-1.809e-05
-9.72279e-05
-5.4417e-06
-0.000120124
1.49432e-06
-0.000134706
6.75072e-06
-0.000162853
-7.64167e-07
-1.82289e-05
-2.40601e-05
0.000102048
-2.49051e-05
0.000129173
-2.04339e-05
0.000100711
-1.82088e-05
7.86805e-05
-1.60352e-05
6.50726e-05
-1.38064e-05
5.60108e-05
-1.16744e-05
4.96193e-05
-9.72251e-06
4.48421e-05
4.10977e-05
-7.98144e-06
-3.51165e-06
-6.92736e-05
-6.78286e-06
-6.96383e-05
-1.02461e-05
-6.98811e-05
-1.38324e-05
-7.03221e-05
-1.75951e-05
-7.09674e-05
-2.1583e-05
-7.19224e-05
-2.59711e-05
-7.33152e-05
-3.09035e-05
-7.53817e-05
-3.65258e-05
-7.93026e-05
-4.84904e-05
-8.52639e-05
-7.56048e-05
-9.30098e-05
-0.000100202
-0.000110109
-0.000160347
-0.000102707
-0.000158941
-1.96355e-05
-0.000118608
6.17157e-05
-7.30453e-05
8.36101e-05
-4.71027e-05
7.47689e-05
-3.37697e-05
6.53476e-05
-2.58388e-05
5.71418e-05
-2.05331e-05
5.07049e-05
-1.66341e-05
4.57201e-05
-1.35857e-05
4.17936e-05
3.86269e-05
-1.11151e-05
-3.56462e-06
-6.57097e-05
-7.12698e-06
-6.60751e-05
-1.07855e-05
-6.62219e-05
-1.46263e-05
-6.64802e-05
-1.87232e-05
-6.68704e-05
-2.32113e-05
-6.74338e-05
-2.83086e-05
-6.82174e-05
-3.43142e-05
-6.93755e-05
-4.25528e-05
-7.10638e-05
-5.55758e-05
-7.22409e-05
-7.37018e-05
-7.48838e-05
-0.000105525
-7.82859e-05
-0.000147282
-6.09499e-05
-0.000150123
-1.67948e-05
-0.000119597
3.11901e-05
-8.34366e-05
4.74497e-05
-5.89416e-05
5.0274e-05
-4.31508e-05
4.95568e-05
-3.28493e-05
4.684e-05
-2.5811e-05
4.36664e-05
-2.07239e-05
4.06328e-05
-1.68616e-05
3.79311e-05
3.55802e-05
-1.3815e-05
-3.60065e-06
-6.21095e-05
-7.26347e-06
-6.2413e-05
-1.10333e-05
-6.24529e-05
-1.50065e-05
-6.25076e-05
-1.92806e-05
-6.2596e-05
-2.40079e-05
-6.2707e-05
-2.93952e-05
-6.28304e-05
-3.57973e-05
-6.29735e-05
-4.39381e-05
-6.29229e-05
-5.41354e-05
-6.20435e-05
-6.79652e-05
-6.1054e-05
-8.97345e-05
-5.65166e-05
-0.00011048
-4.0205e-05
-0.000113375
-1.38991e-05
-9.43387e-05
1.21533e-05
-7.42281e-05
2.7339e-05
-5.81557e-05
3.42015e-05
-4.55602e-05
3.6961e-05
-3.60613e-05
3.73408e-05
-2.89311e-05
3.6536e-05
-2.35038e-05
3.52053e-05
-1.92795e-05
3.37066e-05
3.22137e-05
-1.59133e-05
-3.61223e-06
-5.8497e-05
-7.28614e-06
-5.87384e-05
-1.10883e-05
-5.86499e-05
-1.50866e-05
-5.85096e-05
-1.93832e-05
-5.82988e-05
-2.41016e-05
-5.79885e-05
-2.94185e-05
-5.75134e-05
-3.56118e-05
-5.67805e-05
-4.30343e-05
-5.55007e-05
-5.17308e-05
-5.33471e-05
-6.26725e-05
-5.01123e-05
-7.57758e-05
-4.34135e-05
-8.54311e-05
-3.05499e-05
-8.61234e-05
-1.32069e-05
-7.73786e-05
3.40833e-06
-6.55141e-05
1.54742e-05
-5.43478e-05
2.30349e-05
-4.4676e-05
2.72889e-05
-3.66843e-05
2.93489e-05
-3.02143e-05
3.00657e-05
-2.50059e-05
2.99968e-05
-2.07948e-05
2.94952e-05
2.87738e-05
-1.73551e-05
-3.56428e-06
-5.49333e-05
-7.18942e-06
-5.51143e-05
-1.0932e-05
-5.49077e-05
-1.48515e-05
-5.459e-05
-1.90304e-05
-5.41203e-05
-2.35676e-05
-5.34512e-05
-2.85789e-05
-5.2502e-05
-3.42163e-05
-5.1143e-05
-4.05769e-05
-4.91401e-05
-4.76929e-05
-4.62312e-05
-5.58186e-05
-4.19868e-05
-6.39987e-05
-3.52336e-05
-6.93204e-05
-2.52285e-05
-6.94221e-05
-1.31052e-05
-6.4741e-05
-1.27305e-06
-5.75389e-05
8.27179e-06
-4.97422e-05
1.52378e-05
-4.23604e-05
1.9907e-05
-3.5819e-05
2.28072e-05
-3.02102e-05
2.44568e-05
-2.54783e-05
2.52646e-05
-2.15091e-05
2.55258e-05
2.54411e-05
-1.81766e-05
-3.45796e-06
-5.14748e-05
-6.98003e-06
-5.15919e-05
-1.0593e-05
-5.12952e-05
-1.43548e-05
-5.08278e-05
-1.83245e-05
-5.01512e-05
-2.25644e-05
-4.92112e-05
-2.71406e-05
-4.79259e-05
-3.21116e-05
-4.61721e-05
-3.74771e-05
-4.37746e-05
-4.31891e-05
-4.05193e-05
-4.91004e-05
-3.60757e-05
-5.43894e-05
-2.99446e-05
-5.76166e-05
-2.20015e-05
-5.77477e-05
-1.29742e-05
-5.49591e-05
-4.06186e-06
-5.03304e-05
3.64297e-06
-4.4867e-05
9.77427e-06
-3.93031e-05
1.43431e-05
-3.40618e-05
1.75658e-05
-2.93355e-05
1.97304e-05
-2.51786e-05
2.11076e-05
-2.15714e-05
2.19186e-05
2.23295e-05
-1.84598e-05
-3.3056e-06
-4.81697e-05
-6.66999e-06
-4.82277e-05
-1.01021e-05
-4.7863e-05
-1.36485e-05
-4.72819e-05
-1.73456e-05
-4.6454e-05
-2.12281e-05
-4.53286e-05
-2.53216e-05
-4.38327e-05
-2.96289e-05
-4.18651e-05
-3.41046e-05
-3.9299e-05
-3.86426e-05
-3.59815e-05
-4.29994e-05
-3.17189e-05
-4.66152e-05
-2.63289e-05
-4.87436e-05
-1.98732e-05
-4.8909e-05
-1.28089e-05
-4.71681e-05
-5.80275e-06
-4.40748e-05
5.49748e-07
-4.01759e-05
5.87545e-06
-3.59757e-05
1.01429e-05
-3.18169e-05
1.3407e-05
-2.79016e-05
1.5815e-05
-2.43288e-05
1.75348e-05
-2.11312e-05
1.8721e-05
1.94999e-05
-1.83016e-05
-3.11955e-06
-4.50502e-05
-6.28337e-06
-4.50641e-05
-9.49829e-06
-4.46479e-05
-1.27915e-05
-4.39893e-05
-1.61829e-05
-4.30625e-05
-1.96865e-05
-4.18252e-05
-2.33012e-05
-4.02183e-05
-2.70007e-05
-3.81657e-05
-3.07189e-05
-3.55808e-05
-3.43328e-05
-3.23676e-05
-3.76204e-05
-2.84314e-05
-4.02218e-05
-2.37275e-05
-4.17352e-05
-1.83598e-05
-4.19205e-05
-1.26236e-05
-4.08009e-05
-6.92216e-06
-3.86613e-05
-1.58965e-06
-3.58321e-05
3.04634e-06
-3.26413e-05
6.95214e-06
-2.93497e-05
1.01155e-05
-2.61357e-05
1.26011e-05
-2.31075e-05
1.45066e-05
-2.0321e-05
1.59345e-05
1.69754e-05
-1.77966e-05
-2.90888e-06
-4.21414e-05
-5.84632e-06
-4.21267e-05
-8.81995e-06
-4.16748e-05
-1.18399e-05
-4.09695e-05
-1.49142e-05
-3.99881e-05
-1.80425e-05
-3.86972e-05
-2.12083e-05
-3.70527e-05
-2.43724e-05
-3.50017e-05
-2.74639e-05
-3.24892e-05
-3.03692e-05
-2.94625e-05
-3.29151e-05
-2.58855e-05
-3.48724e-05
-2.17701e-05
-3.60148e-05
-1.72172e-05
-3.62114e-05
-1.24268e-05
-3.54805e-05
-7.65285e-06
-3.39472e-05
-3.12284e-06
-3.18689e-05
9.68125e-07
-2.94272e-05
4.51062e-06
-2.68196e-05
7.50798e-06
-2.41931e-05
9.97466e-06
-2.16487e-05
1.19623e-05
-1.92493e-05
1.35351e-05
1.47548e-05
-1.70288e-05
-2.6807e-06
-3.94608e-05
-5.37919e-06
-3.94282e-05
-8.09801e-06
-3.89562e-05
-1.0838e-05
-3.82293e-05
-1.35986e-05
-3.72275e-05
-1.63697e-05
-3.59264e-05
-1.91273e-05
-3.42951e-05
-2.18292e-05
-3.22999e-05
-2.44091e-05
-2.99093e-05
-2.6772e-05
-2.70997e-05
-2.87908e-05
-2.38667e-05
-3.03178e-05
-2.0243e-05
-3.12193e-05
-1.63155e-05
-3.14209e-05
-1.22251e-05
-3.09328e-05
-8.14077e-06
-2.98285e-05
-4.22707e-06
-2.82802e-05
-5.80069e-07
-2.63902e-05
2.62072e-06
-2.43175e-05
5.43535e-06
-2.2175e-05
7.83223e-06
-2.00492e-05
9.83641e-06
-1.80006e-05
1.14864e-05
1.28222e-05
-1.60681e-05
-2.44199e-06
-3.70186e-05
-4.89615e-06
-3.69741e-05
-7.35609e-06
-3.64961e-05
-9.81882e-06
-3.57664e-05
-1.22774e-05
-3.47693e-05
-1.47161e-05
-3.34877e-05
-1.71089e-05
-3.19022e-05
-1.94153e-05
-2.99936e-05
-2.15778e-05
-2.77468e-05
-2.35211e-05
-2.51563e-05
-2.51539e-05
-2.22337e-05
-2.63794e-05
-1.90174e-05
-2.71156e-05
-1.55792e-05
-2.73189e-05
-1.20218e-05
-2.69955e-05
-8.46408e-06
-2.62009e-05
-5.0216e-06
-2.49994e-05
-1.7815e-06
-2.3541e-05
1.16226e-06
-2.18914e-05
3.78569e-06
-2.01453e-05
6.08603e-06
-1.83759e-05
8.06691e-06
-1.6638e-05
9.74844e-06
1.11546e-05
-1.49704e-05
-2.19964e-06
-3.4819e-05
-4.40833e-06
-3.47654e-05
-6.61223e-06
-3.42919e-05
-8.80599e-06
-3.35727e-05
-1.09785e-05
-3.25969e-05
-1.31121e-05
-3.13539e-05
-1.51811e-05
-2.9833e-05
-1.71491e-05
-2.80255e-05
-1.89686e-05
-2.59273e-05
-2.05814e-05
-2.35434e-05
-2.19221e-05
-2.08929e-05
-2.29259e-05
-1.80134e-05
-2.35408e-05
-1.49642e-05
-2.374e-05
-1.18227e-05
-2.35283e-05
-8.67584e-06
-2.29413e-05
-5.60859e-06
-2.20285e-05
-2.69433e-06
-2.08869e-05
2.0591e-08
-1.95657e-05
2.46436e-06
-1.81421e-05
4.66224e-06
-1.66737e-05
6.5983e-06
-1.52073e-05
8.2819e-06
9.72599e-06
-1.37788e-05
-1.95913e-06
-3.286e-05
-3.92506e-06
-3.27992e-05
-5.87989e-06
-3.2337e-05
-7.81596e-06
-3.16367e-05
-9.72031e-06
-3.06924e-05
-1.15752e-05
-2.94986e-05
-1.33568e-05
-2.80513e-05
-1.50338e-05
-2.63485e-05
-1.65676e-05
-2.43934e-05
-1.7914e-05
-2.21968e-05
-1.9026e-05
-1.97807e-05
-1.98594e-05
-1.71799e-05
-2.03802e-05
-1.44434e-05
-2.05716e-05
-1.16313e-05
-2.04379e-05
-8.80961e-06
-2.00034e-05
-6.0432e-06
-1.9308e-05
-3.38987e-06
-1.83998e-05
-8.87726e-07
-1.73452e-05
1.40956e-06
-1.61863e-05
3.5031e-06
-1.49715e-05
5.38336e-06
-1.37406e-05
7.05093e-06
8.51091e-06
-1.25256e-05
-1.72428e-06
-3.11356e-05
-3.4535e-06
-3.10697e-05
-5.1683e-06
-3.06221e-05
-6.85934e-06
-2.99456e-05
-8.51345e-06
-2.9038e-05
-1.01138e-05
-2.78981e-05
-1.16391e-05
-2.6526e-05
-1.3063e-05
-2.49246e-05
-1.43549e-05
-2.31013e-05
-1.54812e-05
-2.10702e-05
-1.6408e-05
-1.88537e-05
-1.71046e-05
-1.64832e-05
-1.75483e-05
-1.39997e-05
-1.77285e-05
-1.14512e-05
-1.76487e-05
-8.88948e-06
-1.73264e-05
-6.36558e-06
-1.6791e-05
-3.92552e-06
-1.60739e-05
-1.60496e-06
-1.52304e-05
5.65884e-07
-1.42879e-05
2.56049e-06
-1.32868e-05
4.38216e-06
-1.22598e-05
6.02389e-06
7.48543e-06
-1.12344e-05
-1.49744e-06
-2.96379e-05
-2.99796e-06
-2.95693e-05
-4.48269e-06
-2.91374e-05
-5.94169e-06
-2.84864e-05
-7.36237e-06
-2.76172e-05
-8.72938e-06
-2.65311e-05
-1.00242e-05
-2.52312e-05
-1.12252e-05
-2.37234e-05
-1.23083e-05
-2.20179e-05
-1.32483e-05
-2.01301e-05
-1.40202e-05
-1.80816e-05
-1.46025e-05
-1.59008e-05
-1.49799e-05
-1.36223e-05
-1.51454e-05
-1.12857e-05
-1.51023e-05
-8.93271e-06
-1.48634e-05
-6.60469e-06
-1.44495e-05
-4.33953e-06
-1.38845e-05
-2.17013e-06
-1.32151e-05
-1.03542e-07
-1.24493e-05
1.79464e-06
-1.1629e-05
3.56182e-06
-1.0779e-05
5.1738e-06
6.62825e-06
-9.9219e-06
-1.27947e-06
-2.83584e-05
-2.56005e-06
-2.82889e-05
-3.82488e-06
-2.78726e-05
-5.06425e-06
-2.72471e-05
-6.26659e-06
-2.6415e-05
-7.41831e-06
-2.53795e-05
-8.50384e-06
-2.41456e-05
-9.50576e-06
-2.27213e-05
-1.04053e-05
-2.11181e-05
-1.11834e-05
-1.93518e-05
-1.18218e-05
-1.74431e-05
-1.23053e-05
-1.54173e-05
-1.26232e-05
-1.33044e-05
-1.27713e-05
-1.11376e-05
-1.27524e-05
-8.95174e-06
-1.25762e-05
-6.78099e-06
-1.22587e-05
-4.65712e-06
-1.18213e-05
-2.60757e-06
-1.12755e-05
-6.49255e-07
-1.06657e-05
1.18485e-06
-1.00017e-05
2.89786e-06
-9.30648e-06
4.47853e-06
5.92102e-06
-8.59937e-06
-1.06998e-06
-2.72886e-05
-2.13937e-06
-2.72198e-05
-3.19408e-06
-2.6818e-05
-4.22511e-06
-2.62163e-05
-5.22221e-06
-2.54181e-05
-6.17385e-06
-2.44279e-05
-7.06731e-06
-2.3252e-05
-7.88881e-06
-2.18996e-05
-8.6239e-06
-2.03828e-05
-9.25816e-06
-1.87175e-05
-9.77833e-06
-1.69228e-05
-1.01735e-05
-1.5022e-05
-1.04365e-05
-1.30414e-05
-1.05645e-05
-1.10095e-05
-1.05601e-05
-8.95619e-06
-1.04306e-05
-6.91053e-06
-1.01878e-05
-4.89992e-06
-9.8469e-06
-2.94848e-06
-9.42106e-06
-1.07503e-06
-8.9367e-06
7.00574e-07