/*--------------------------------*- C++ -*----------------------------------*\
| =========                 |                                                 |
| \\      /  F ield         | OpenFOAM: The Open Source CFD Toolbox           |
|  \\    /   O peration     | Version:  5.x                                   |
|   \\  /    A nd           | Web:      www.OpenFOAM.org                      |
|    \\/     M anipulation  |                                                 |
\*---------------------------------------------------------------------------*/
FoamFile
{
    version     2.0;
    format      ascii;
    class       volScalarField;
    location    "0.55";
    object      alpha.water;
}
// * * * * * * * * * * * * * * * * * * * * * * * * * * * * * * * * * * * * * //

dimensions      [0 0 0 0 0 0 0];

internalField   nonuniform List<scalar> 
2268
(
1
1
1
1
1
1
1
1
1
1
1
1
1
1
1
1
1
1
0.992218
0.865898
0.890938
1
1
1
1
1
1
1
1
1
1
1
1
1
1
1
1
1
1
1
1
1
0.9357
0.878783
0.99968
0.998646
1
1
1
1
1
1
1
1
1
1
1
1
1
1
1
1
1
1
1
0.999813
0.878947
0.987466
0.995402
1
1
1
1
1
1
1
1
1
1
1
1
1
1
1
1
1
1
1
1
0.972385
0.995935
0.999385
1
1
1
1
1
1
1
1
1
1
1
1
1
1
1
1
1
1
1
1
1
0.999956
1
1
1
1
1
1
1
1
1
1
1
1
1
1
1
1
1
1
1
1
1
1
1
0.999986
1
1
1
0.999999
0.999999
0.999999
0.999999
1
1
1
1
1
1
1
1
1
1
1
1
1
1
1
0.999902
1
0.999997
0.999973
0.999942
0.999931
0.999944
0.99997
0.999989
0.999997
1
1
1
1
1
1
1
1
1
1
1
1
1
0.99989
0.333693
0.259999
0.19506
0.175534
0.0657378
0
0.0463467
0.449954
0.447683
0.26124
0.302818
0.596627
0.73029
0.790432
0.844297
0.893338
0.927071
0.940995
0.808807
0.633352
0.218999
0.220327
0.0543229
0.00934118
0.00726165
0.0898365
0.116931
0.00921715
1.55531e-05
2.09318e-05
0.00095755
0.0448259
0.115982
0.185104
0.301605
0.521858
0.814439
0.94799
0.60111
0.791875
0.927502
0.0859521
0.0120584
0.010155
0.0881228
0.000184358
1.55463e-05
1.42044e-05
1.45948e-05
1.72461e-05
2.93441e-05
9.08917e-05
0.000421563
0.00206868
0.0274171
0.479116
0.949383
0.871585
1
1
0.0996933
0.0149575
0.0131296
0.0681422
2.12791e-05
1.4206e-05
1.4206e-05
1.41405e-05
1.46162e-05
1.74543e-05
2.6345e-05
4.72076e-05
0.000390584
0.00262928
0.176449
0.807959
1
1
1
0.704074
0.0286993
0.0390365
0.0381629
1.47515e-05
1.42782e-05
1.41101e-05
1.42782e-05
1.5801e-05
2.10311e-05
2.81514e-05
1.77402e-05
1.08222e-05
0.000477591
0.118099
0.945662
1
1
1
1
0.0737047
0.0318016
0.0222962
1.52147e-05
1.47523e-05
1.58834e-05
3.17632e-05
2.1036e-05
2.78817e-05
1.76314e-05
1.14337e-05
1.14443e-05
5.91686e-06
0.0760009
0.998805
1
1
1
0.985701
0.136613
0.0127631
0.00709939
1.72776e-05
1.52153e-05
1.68068e-05
0.000195685
0.000295366
0.000164201
5.23838e-05
1.77563e-05
1.14415e-05
1.82425e-05
0.0321422
0.907538
1
1
1
0.968489
0.310905
0.00971803
0.00401622
0.00437582
1.72779e-05
1.96778e-05
8.13676e-05
0.000931117
0.00121243
0.000242815
6.45509e-05
1.85749e-05
2.74678e-05
0.0154712
0.84232
0.973974
0.892864
0.765222
0.668681
0.692275
0.769731
0.857094
0.911077
0.950498
0.980885
0.996712
0.999962
1
1
1
1
1
1
1
1
1
1
0.999995
0.289332
0.14622
0.0326621
0.0281472
0.0886861
0.166949
0.204788
0.231893
0.286424
0.373291
0.483482
0.613067
0.760003
0.9003
0.999998
1
1
1
1
1
1
1
0.999999
2.13275e-40
1.0457e-12
2.05423e-08
1.66864e-11
5.60473e-12
8.7307e-12
6.92743e-11
5.09812e-10
4.25804e-10
6.55716e-10
6.50086e-09
0.00873004
0.0640828
0.152015
0.296865
0.491363
0.727271
0.964983
1
0.999969
1
0.999999
0.999998
1.83408e-50
3.37014e-09
1.09029e-07
5.60473e-12
5.53884e-12
5.60473e-12
8.08154e-12
1.24286e-10
4.18513e-10
4.27109e-10
6.55697e-10
6.50086e-09
1.16638e-07
1.813e-06
4.72097e-06
0.0116742
0.0492174
0.156779
0.335733
0.566636
0.792066
0.894699
0.914434
6.15568e-15
2.27349e-11
9.31878e-10
5.52504e-12
5.53884e-12
9.10042e-12
9.16873e-12
1.22865e-10
1.60111e-09
8.77296e-10
9.18049e-10
2.80482e-09
1.09049e-05
1.99885e-05
5.00881e-06
4.5917e-06
4.49867e-06
4.5917e-06
4.83353e-06
5.53908e-06
0.0262707
0.0887902
0.150593
9.53741e-19
2.31777e-15
2.81279e-14
4.33999e-12
3.19956e-11
5.90279e-11
6.06242e-11
6.07489e-11
2.07378e-08
1.01721e-07
8.99024e-08
3.76366e-09
5.32229e-06
5.91616e-05
5.93503e-05
2.34456e-05
4.45176e-06
4.81336e-06
4.859e-06
4.96064e-06
5.53908e-06
7.98459e-06
1.04888e-05
1.65856e-19
1.26876e-16
6.87138e-14
4.2754e-12
4.5742e-11
1.21453e-10
1.49815e-10
6.79331e-11
2.5e-08
1.68563e-07
1.68563e-07
1.23003e-07
1.241e-07
8.43902e-08
2.58983e-06
2.30486e-11
4.39863e-06
5.99933e-06
1.20126e-05
6.07182e-05
0.00017695
0.000205699
0.000117295
2.73528e-20
3.05405e-18
1.52365e-14
2.13921e-12
3.64651e-11
1.31076e-10
1.79901e-10
1.48732e-10
1.51151e-09
7.63557e-08
1.67059e-07
1.04011e-07
1.06777e-07
1.16795e-07
2.30486e-11
1.47499e-11
1.60654e-11
1.6605e-11
7.56335e-06
7.85642e-06
0.000229095
0.000248238
0.000233606
3.02003e-21
3.56189e-20
1.61233e-15
5.68114e-13
1.76044e-11
9.85921e-11
1.74676e-10
1.56862e-10
5.03488e-11
3.49695e-09
2.58605e-08
1.60173e-11
1.36202e-07
4.84693e-07
1.99691e-07
6.36589e-12
1.56966e-11
8.41766e-12
5.19515e-06
3.28217e-06
3.28492e-05
0.000250295
0.000273983
4.50585e-23
9.00576e-22
1.94696e-16
1.29265e-13
5.67037e-12
4.13545e-11
8.92159e-11
9.26132e-11
5.03887e-11
1.60659e-11
1.60173e-11
1.60173e-11
2.92847e-08
3.26649e-07
4.84045e-08
-9.43422e-28
2.46005e-14
1.96717e-13
1.67094e-07
3.01212e-06
6.56991e-07
0.00022441
0.000353848
-4.74098e-21
3.44377e-36
2.85338e-17
2.98761e-14
1.51426e-12
1.17237e-11
2.60444e-11
2.62435e-11
1.95689e-11
4.74937e-11
3.47295e-11
1.6023e-11
1.29842e-09
-2.33039e-28
-8.72246e-13
-1.37993e-12
-4.86388e-14
4.30077e-33
1.96717e-13
3.37579e-11
4.27359e-09
5.90046e-05
0.000353848
-1.75963e-20
-4.35427e-37
3.88658e-18
5.99449e-15
3.43041e-13
2.70315e-12
6.08273e-12
6.07163e-12
8.31506e-12
5.96858e-11
4.06254e-11
1.62355e-11
0
-1.91742e-14
-2.95883e-12
-2.02001e-12
-3.16624e-13
-4.82746e-34
2.42015e-14
2.51068e-13
1.03253e-11
4.0568e-10
5.95154e-05
-1.5233e-20
2.55396e-25
8.99158e-19
1.04458e-15
6.80087e-14
5.25448e-13
1.13781e-12
1.1736e-12
3.44205e-12
2.86752e-11
1.65923e-11
9.79997e-12
3.02081e-12
2.44924e-13
-2.26505e-12
-1.98725e-12
-5.43686e-13
-4.08868e-14
6.46334e-14
6.76616e-14
2.62311e-13
9.17749e-13
2.26148e-12
-1.03458e-20
3.04737e-23
5.91972e-19
1.55155e-16
1.11201e-14
8.5077e-14
1.81269e-13
2.00177e-13
4.62341e-13
1.75028e-12
2.4883e-12
3.28224e-12
3.27092e-12
3.91104e-13
-9.20396e-13
-9.16481e-13
-3.76003e-13
1.75387e-14
3.5151e-13
6.68559e-13
6.62881e-13
7.0387e-13
1.06116e-12
-7.31003e-21
0
2.09342e-19
1.95826e-17
1.41111e-15
1.07846e-14
2.53288e-14
3.53213e-14
6.39713e-14
1.76235e-13
5.46299e-13
8.93792e-13
9.52175e-13
1.79499e-13
-1.82781e-13
-2.42023e-13
-9.05582e-14
3.72359e-14
3.79849e-13
1.35614e-12
5.35618e-12
4.43361e-11
2.20549e-10
-5.45989e-21
-1.3358e-21
5.38129e-20
2.11303e-18
1.39923e-16
1.06375e-15
3.02446e-15
7.0166e-15
1.94955e-14
5.97208e-14
1.3451e-13
1.5849e-13
1.19209e-13
4.34165e-14
3.30222e-15
-2.64929e-14
-1.40627e-14
1.44409e-15
6.33705e-14
8.10242e-13
5.89307e-12
3.077e-11
7.75051e-11
-3.91692e-21
-3.12992e-21
8.60317e-21
1.82612e-19
1.0239e-17
8.41955e-17
3.60922e-16
1.64295e-15
5.51723e-15
1.23966e-14
1.80627e-14
1.74531e-14
1.11886e-14
7.55554e-15
6.001e-15
3.07421e-15
1.62345e-15
1.69181e-15
8.32564e-15
1.48943e-13
2.03442e-12
2.96725e-11
2.23488e-10
-2.50328e-21
-2.21516e-21
2.2763e-22
1.27612e-20
5.1865e-19
5.57647e-18
5.26468e-17
3.94157e-16
1.48225e-15
2.88747e-15
3.41002e-15
3.02274e-15
1.84622e-15
6.34868e-16
1.21233e-16
1.96538e-17
1.12789e-17
1.21233e-16
3.74377e-15
6.44641e-14
7.62095e-13
1.17271e-11
1.49544e-10
-1.37672e-21
-1.12942e-21
-4.82433e-22
6.01361e-22
1.84883e-20
3.76951e-19
8.42256e-18
7.82706e-17
3.17817e-16
6.29643e-16
7.41671e-16
6.63427e-16
4.06271e-16
1.44332e-16
2.75423e-17
4.1712e-18
2.48086e-18
3.25968e-17
1.35138e-15
2.9144e-14
3.2842e-13
4.03407e-12
6.41304e-11
-6.39441e-22
-4.59337e-22
-5.177e-22
1.00735e-24
3.74863e-22
3.18391e-20
1.10462e-18
1.17217e-17
5.25021e-17
1.12415e-16
1.38651e-16
1.29148e-16
8.04577e-17
2.86422e-17
5.2004e-18
7.1595e-19
4.40164e-19
8.07908e-18
4.4459e-16
1.33014e-14
1.62213e-13
1.40876e-12
1.80454e-11
-2.47092e-22
-1.40638e-22
-2.53647e-22
-5.82917e-23
5.08851e-24
2.32655e-21
1.01682e-19
1.32497e-18
6.61496e-18
1.53862e-17
2.00029e-17
1.95376e-17
1.3115e-17
5.01446e-18
9.3423e-19
1.19724e-19
7.48869e-20
1.9379e-18
1.26065e-16
4.80864e-15
7.00282e-14
6.02989e-13
7.11664e-12
-7.8473e-23
-2.96534e-23
-7.16965e-23
-2.46183e-23
6.07071e-26
9.18507e-23
6.5633e-21
1.13357e-19
6.20255e-19
1.5349e-18
2.09659e-18
2.11786e-18
1.54245e-18
6.44991e-19
1.31276e-19
1.96827e-20
1.3746e-20
4.82396e-19
3.64507e-17
1.66721e-15
2.80936e-14
2.62731e-13
3.38738e-12
-2.03481e-23
-3.7693e-24
-1.10471e-23
-4.24774e-24
-4.12436e-25
1.57827e-24
3.23416e-22
7.09814e-21
4.11187e-20
1.05736e-19
1.50879e-19
1.56868e-19
1.23343e-19
5.63304e-20
1.27958e-20
2.63357e-21
2.554e-21
1.17327e-19
1.01192e-17
6.04456e-16
1.25175e-14
1.14677e-13
1.08457e-12
-4.31671e-24
-2.53782e-25
-1.00825e-24
-4.29928e-25
-6.38245e-26
4.37275e-26
1.16107e-23
2.87821e-22
1.76215e-21
4.73236e-21
7.0954e-21
7.6234e-21
6.34868e-21
3.1016e-21
7.92391e-22
2.51249e-22
4.60347e-22
2.79383e-20
2.62223e-18
1.89485e-16
4.74113e-15
4.6461e-14
3.73214e-13
-7.56304e-25
-2.80508e-27
-4.50215e-26
-2.45946e-26
-4.09188e-27
4.21129e-28
1.54739e-25
5.51823e-24
4.00921e-23
1.19132e-22
1.936e-22
2.17062e-22
1.84723e-22
9.1741e-23
2.61696e-23
1.23143e-23
9.30606e-23
6.26699e-21
6.15268e-19
5.26889e-17
1.62893e-15
1.79131e-14
1.29072e-13
-1.11262e-25
-2.71263e-29
-1.41162e-27
-1.00571e-27
-1.76322e-28
1.77181e-30
6.25419e-28
2.98063e-26
2.69584e-25
9.01365e-25
1.5354e-24
1.73942e-24
1.51527e-24
8.43212e-25
4.75913e-25
5.14938e-25
1.79612e-23
1.3149e-21
1.31707e-19
1.33317e-17
5.31698e-16
6.74259e-15
4.12306e-14
-1.40082e-26
-3.06759e-31
-3.60841e-29
-3.32772e-29
-6.02827e-30
8.77388e-33
2.30808e-30
1.17144e-28
1.32804e-27
5.68348e-27
1.30111e-26
1.83159e-26
1.91138e-26
1.61347e-26
1.43224e-26
5.32949e-26
3.29953e-24
2.58347e-22
2.64536e-20
3.07596e-18
1.53915e-16
2.26614e-15
1.33881e-14
-1.53675e-27
-4.24077e-33
-8.09258e-31
-9.53565e-31
-1.7705e-31
5.58207e-35
1.00573e-32
3.69723e-31
4.64262e-30
3.20563e-29
1.19763e-28
2.34348e-28
2.80534e-28
2.89615e-28
3.2937e-28
7.4133e-27
5.64501e-25
4.6379e-23
4.87644e-21
6.30038e-19
3.83163e-17
6.65776e-16
4.3735e-15
-1.49124e-28
-6.50685e-35
-1.65866e-32
-2.4635e-32
-4.66905e-33
3.75329e-37
5.83552e-35
1.90844e-33
2.14218e-32
1.57294e-31
6.94764e-31
1.57021e-30
2.05063e-30
2.31357e-30
1.4601e-29
1.07216e-27
8.4199e-26
7.2492e-24
7.87457e-22
1.11033e-19
8.18877e-18
1.72135e-16
1.36698e-15
-1.29448e-29
-9.46158e-34
-3.1848e-34
-5.88397e-34
-1.13541e-34
2.5563e-39
3.72215e-37
1.20733e-35
1.28595e-34
7.76665e-34
2.97487e-33
6.25256e-33
9.16929e-33
2.89389e-32
1.61038e-30
1.32745e-28
1.0317e-26
9.35061e-25
1.05574e-22
1.62097e-20
1.49283e-18
3.85136e-17
3.69258e-16
-1.01253e-30
-5.82594e-34
-5.82174e-36
-1.32056e-35
-2.58955e-36
1.76601e-41
2.47413e-39
8.0801e-38
8.73307e-37
5.03959e-36
1.72635e-35
3.47319e-35
7.40968e-35
2.1079e-33
1.79582e-31
1.3062e-29
1.01182e-27
9.49011e-26
1.10957e-23
1.84297e-21
2.22359e-19
7.2252e-18
7.79583e-17
-7.16787e-32
-8.1609e-35
-1.02499e-37
-2.81566e-37
-5.60208e-38
1.25227e-43
1.70843e-41
5.62292e-40
6.23349e-39
3.64638e-38
1.22282e-37
2.91928e-37
2.50789e-36
1.88344e-34
1.52673e-32
1.06628e-30
8.10627e-29
7.47382e-27
8.84962e-25
1.55443e-22
2.54941e-20
1.09401e-18
1.27272e-17
-4.60322e-33
-7.80776e-36
-1.75414e-39
-5.75098e-39
-1.15885e-39
9.16574e-46
1.22538e-43
4.06412e-42
4.60528e-41
2.72472e-40
9.56246e-40
3.60365e-39
1.44775e-37
1.34414e-35
1.0611e-33
7.68967e-32
5.66819e-30
4.87744e-28
5.58133e-26
9.94806e-24
2.2284e-21
1.33855e-19
1.67346e-18
-2.68319e-34
-6.01799e-37
-2.941e-41
-1.13236e-40
-2.30734e-41
6.94762e-48
9.10873e-46
3.04097e-44
3.50935e-43
2.06981e-42
8.26642e-42
8.39223e-41
7.84287e-39
7.48436e-37
6.40033e-35
4.99008e-33
3.69307e-31
2.99423e-29
3.17529e-27
5.49503e-25
1.61571e-22
1.3853e-20
1.87921e-19
-1.41814e-35
-3.90157e-38
-4.86347e-43
-2.16115e-42
-4.45033e-43
5.43212e-50
6.99574e-48
2.3473e-46
2.74396e-45
1.62937e-44
8.33079e-44
2.67827e-42
3.34712e-40
3.37371e-38
3.21595e-36
2.82289e-34
2.22955e-32
1.83288e-30
1.87139e-28
3.14154e-26
1.12383e-23
1.2799e-21
1.87618e-20
-6.78567e-37
-2.18006e-39
-7.97557e-45
-4.01856e-44
-8.361e-45
4.34758e-52
5.51866e-50
1.85808e-48
2.18844e-47
1.35018e-46
1.00207e-45
7.48088e-44
1.03662e-41
1.17028e-39
1.27216e-37
1.29758e-35
1.16823e-33
1.05923e-31
1.16488e-29
2.03251e-27
8.23225e-25
1.079e-22
1.63588e-21
-2.93549e-38
-1.06967e-40
-9.64637e-46
-7.31132e-46
-1.53737e-46
3.54844e-54
4.44035e-52
1.50063e-50
1.77765e-49
1.15529e-48
1.21687e-47
1.47663e-45
2.20401e-43
2.92895e-41
3.76765e-39
4.45912e-37
4.78519e-35
5.26423e-33
6.99513e-31
1.374e-28
6.03553e-26
7.95985e-24
1.1626e-22
-1.14719e-39
-4.58944e-42
-2.13141e-46
-1.30571e-47
-2.77625e-48
2.94195e-56
3.6223e-54
1.23124e-52
1.4731e-51
9.98127e-51
1.24879e-49
1.81895e-47
3.09807e-45
5.08971e-43
7.60913e-41
1.03708e-38
1.38468e-36
2.03565e-34
3.52481e-32
8.13183e-30
3.82539e-27
4.72868e-25
6.12608e-24
-4.05805e-41
-1.72152e-43
-1.39006e-47
-2.29307e-49
-4.93633e-50
2.47583e-58
2.97335e-56
1.01953e-54
1.24226e-53
8.66871e-53
1.06e-51
1.58632e-49
3.04399e-47
5.65048e-45
9.48212e-43
1.51741e-40
2.66545e-38
5.54294e-36
1.26925e-33
3.48127e-31
1.69788e-28
1.94668e-26
2.12599e-25
-1.30753e-42
-5.71163e-45
-7.75811e-49
-3.96143e-51
-8.6413e-52
2.10295e-60
2.43914e-58
8.47618e-57
1.05971e-55
7.47372e-55
6.76179e-54
9.88869e-52
2.1746e-49
4.1733e-47
7.06602e-45
1.2484e-42
3.064e-40
9.74732e-38
2.94417e-35
9.25157e-33
4.30643e-30
4.65816e-28
4.26432e-27
-3.87511e-44
-1.67925e-46
-3.22069e-50
-6.72555e-53
-1.48678e-53
1.8111e-62
1.9946e-60
7.04195e-59
9.03106e-58
6.30534e-57
3.9501e-56
4.98397e-54
1.10897e-51
2.06222e-49
3.19106e-47
5.37556e-45
1.6176e-42
9.89114e-40
4.47063e-37
1.49561e-34
5.75754e-32
5.81685e-30
4.83984e-29
-1.07078e-45
-4.37393e-48
-1.00536e-51
-1.11946e-54
-2.50809e-55
7.25931e-65
8.2663e-63
3.44439e-61
9.77934e-60
1.21875e-58
8.27752e-58
5.30559e-57
1.16848e-54
2.06926e-52
2.42056e-50
3.20082e-48
9.68747e-46
2.14903e-42
2.50363e-39
9.93755e-37
3.02264e-34
2.77221e-32
2.53467e-31
0.999995
0.999998
1
1
0.999997
0.999998
1
1
0.999995
0.999993
0.999992
0.999992
0.922339
0.929169
0.945002
0.969436
0.19758
0.239611
0.301354
0.373806
1.10314e-05
1.24991e-05
2.2591e-05
3.20388e-05
2.67576e-05
2.77666e-05
3.07099e-05
3.13361e-05
0.000120774
2.98543e-05
3.04022e-05
3.17932e-05
0.000113353
4.8049e-05
3.21678e-05
3.26727e-05
0.000240261
7.45871e-05
5.66162e-05
5.24243e-05
0.000353218
0.000153446
8.71937e-05
9.39914e-05
0.000353475
0.000437374
0.00043931
0.000440382
1.75278e-11
5.24098e-06
6.587e-05
8.91111e-05
3.01838e-12
1.83245e-11
1.62158e-10
4.59682e-10
3.75876e-10
4.11051e-10
4.26054e-10
3.27662e-10
9.30681e-11
9.43164e-11
9.70243e-11
9.82108e-11
5.11621e-10
5.80169e-10
5.85758e-10
5.96106e-10
5.71578e-10
1.00845e-09
1.23363e-09
1.24429e-09
3.25598e-10
7.0563e-10
1.00018e-09
1.12949e-09
1.06732e-10
2.99375e-10
5.0185e-10
6.42235e-10
4.89837e-11
1.97046e-10
4.11852e-10
5.90021e-10
2.69724e-11
1.49173e-10
3.86562e-10
6.2932e-10
8.23563e-12
6.73894e-11
2.44762e-10
4.84589e-10
2.47297e-12
2.22216e-11
9.37497e-11
2.13532e-10
6.96683e-13
5.97414e-12
2.81412e-11
7.49534e-11
1.46875e-13
9.84749e-13
6.59159e-12
2.76524e-11
3.84412e-14
2.40824e-13
2.89639e-12
1.79236e-11
1.29261e-14
7.17228e-14
1.10669e-12
9.84796e-12
4.70545e-15
1.81645e-14
1.48708e-13
1.89807e-12
1.56073e-15
4.95816e-15
1.12378e-14
1.10793e-14
3.66704e-16
1.17907e-15
2.0978e-15
1.16945e-15
6.09114e-17
2.34612e-16
4.47382e-16
1.20304e-16
7.39787e-18
3.43515e-17
7.31174e-17
5.72146e-18
6.96903e-19
3.8445e-18
9.72601e-18
9.20561e-20
5.86006e-20
3.86964e-19
1.22818e-18
1.9349e-20
4.7001e-21
3.78044e-20
1.42285e-19
2.37303e-21
3.21192e-22
3.03404e-21
1.24635e-20
3.79364e-22
1.52578e-23
1.48156e-22
6.60571e-22
2.72304e-23
4.29965e-25
3.76869e-24
1.99027e-23
1.75056e-24
6.77516e-27
6.6742e-26
4.71475e-25
5.11266e-26
6.78206e-29
8.20066e-28
7.47767e-27
8.54214e-28
1.40537e-30
5.08522e-30
4.46767e-29
1.61011e-28
1
1
1
0.950493
0.318969
0.00435286
0.0025667
0.00644155
0.000711774
3.70816e-05
4.35448e-05
0.000598068
0.00211686
0.00626381
0.000960501
0.000906212
2.91314e-05
0.00257721
0.835131
1
1
1
0.900375
0.10918
0.00713023
0.0011351
0.00630505
0.00264488
4.35448e-05
6.89519e-05
0.000489861
0.00036244
0.0147766
0.016349
0.0045589
4.23563e-05
5.48401e-05
0.90752
0.999994
0.999997
1
0.862498
0.0217384
0.00838725
0.00054352
0.000875817
0.00259086
0.000445042
8.33234e-05
0.000239818
0.000288929
0.00658446
0.0208638
0.0053787
5.48401e-05
0.113596
0.970742
0.995329
0.999922
0.999993
0.871257
0.0022698
0.00086573
0.000335407
0.000516382
0.00123503
0.00185676
0.00102507
0.000332971
0.00034181
0.000405904
0.0209359
0.00499643
9.2283e-05
0.448335
0.992657
0.541874
0.865699
0.999866
0.856412
0.000452643
0.000335407
0.000300257
0.000854712
0.00185676
0.00189482
0.00191138
0.00191663
0.000783581
0.000448846
0.0178045
0.00694033
0.000282974
0.644536
0.998562
0.0158662
0.228945
0.812174
0.927096
0.38479
0.000300257
0.000288382
0.000401722
0.00189482
0.00191138
0.00191878
0.00191649
0.00131606
0.000457763
0.000478767
0.012715
0.00332975
0.759013
0.963265
3.20388e-05
8.26537e-05
0.137918
0.880772
0.893821
0.203091
0.000289887
0.000289098
0.000456198
0.000813022
0.00160894
0.00191813
0.000780352
0.000450018
0.000467827
0.000563703
0.329805
0.913996
0.869831
3.3035e-05
3.37243e-05
6.57644e-05
0.119108
0.888373
0.886
0.457708
0.138137
0.000536292
0.000576371
0.000551115
0.000507643
0.000430723
0.000430723
0.000474332
0.0377811
0.681188
0.957337
0.888597
4.34639e-05
4.71841e-05
4.78363e-05
7.25668e-05
0.0726462
0.662274
0.664588
0.660839
0.367367
0.0594302
0.000573228
0.000458858
0.00043072
0.00045886
0.0965027
0.656821
0.956246
0.960288
0.988229
5.82497e-05
9.06196e-05
0.000119336
0.000111993
4.19051e-05
0.0338489
0.344
0.647364
0.644908
0.624964
0.282135
0.235107
0.417901
0.708952
0.772413
0.772101
0.663625
0.678668
0.894894
9.77147e-05
0.000134585
0.000440497
0.000348675
4.19051e-05
4.18087e-05
0.00342114
0.118862
0.356049
0.47713
0.651789
0.72759
0.731848
0.731131
0.522002
0.20705
0.203339
0.257742
0.851767
0.000440995
0.00044091
0.000428594
6.65973e-05
4.19051e-05
0.000687511
0.00193217
0.00144723
0.0208822
0.146857
0.375895
0.609774
0.731545
0.733103
0.366971
0.24172
0.203339
0.335347
0.896971
7.762e-05
3.42068e-05
1.99746e-05
4.36395e-06
0.000101819
0.000164835
5.09399e-05
0.000226812
0.000949335
0.00611975
0.242331
0.560845
0.652665
0.731595
0.879993
0.882584
0.538237
0.705429
0.972005
1.27111e-09
5.42252e-09
2.43836e-08
4.14582e-06
2.10723e-05
8.74403e-07
4.50918e-06
0.000568333
0.00280062
0.00355317
0.00480441
0.00750775
0.0011626
0.169913
0.824019
0.964059
0.965033
0.96681
0.999967
1.2406e-10
2.93665e-10
5.82065e-09
2.6196e-07
3.4383e-08
5.44499e-08
3.02431e-07
6.27559e-05
0.000667689
0.00133426
0.00123858
0.000431066
0.000475221
0.0011626
0.265261
0.901446
0.982321
0.983907
1
1.02755e-10
1.4241e-10
8.55867e-10
1.05771e-09
7.33369e-09
2.51987e-08
4.8669e-08
2.07314e-07
3.30871e-06
0.000729151
0.00128468
0.000421103
0.000299993
0.00047822
0.0506849
0.390376
0.940854
0.929744
0.657415
5.73282e-10
5.56861e-10
7.01575e-10
7.44576e-10
7.25633e-09
2.27912e-08
2.45367e-08
3.94228e-08
1.86215e-07
0.00018945
0.000702399
1.64457e-05
2.68039e-05
0.00424547
0.0211751
0.146332
0.685833
0.929253
0.57665
1.24429e-09
1.23386e-09
1.12502e-09
1.06226e-09
1.08679e-09
1.52372e-08
8.1198e-08
7.98547e-08
1.02823e-07
2.09349e-07
2.67435e-06
1.21024e-05
1.64456e-05
9.03125e-05
0.0252829
0.152293
0.474861
0.927222
0.97415
1.16551e-09
1.08832e-09
8.89103e-10
4.59919e-09
2.09018e-08
4.7617e-08
8.98246e-08
1.96317e-07
2.08558e-07
1.50504e-07
2.2307e-07
1.1756e-06
7.42625e-06
0.000123748
0.0430637
0.18921
0.246535
0.406016
0.659494
7.34776e-10
7.60876e-10
7.64157e-10
7.61612e-09
1.35611e-07
1.94344e-07
1.9423e-07
1.16923e-07
1.30559e-07
1.18723e-07
1.52771e-07
2.20802e-07
1.0959e-06
9.83517e-06
0.000126478
0.0269942
0.133181
0.204363
0.108158
7.35401e-10
8.1318e-10
8.04887e-10
1.2615e-09
7.69684e-08
1.94316e-07
1.94333e-07
1.16766e-07
1.1682e-07
1.1696e-07
1.18723e-07
2.87319e-06
1.69375e-05
9.63047e-06
1.76883e-05
0.00012956
0.0212377
0.381355
0.694633
8.56842e-10
9.76269e-10
9.75593e-10
9.75761e-10
2.45096e-09
4.02722e-08
1.2896e-07
1.1682e-07
1.16793e-07
1.16832e-07
1.17169e-07
3.30847e-06
8.82029e-06
8.84088e-06
9.60029e-06
1.98417e-05
0.000132612
0.0690644
0.642354
7.63338e-10
9.6892e-10
9.98966e-10
9.97705e-10
9.98946e-10
1.01814e-09
1.88517e-08
6.05286e-07
6.62529e-07
1.16973e-07
1.17694e-07
3.03773e-06
4.62828e-06
3.0679e-05
9.91136e-05
8.33563e-05
0.000101411
0.0493475
0.499604
4.05578e-10
6.32795e-10
9.40994e-10
2.6534e-09
4.59319e-09
3.63411e-09
3.936e-09
5.73268e-07
1.14091e-06
9.4525e-07
1.18287e-07
2.28033e-06
4.53516e-08
0.000140451
0.000159954
0.000101578
0.0015716
0.0446991
0.565354
1.80615e-10
3.45409e-10
6.39763e-10
1.88506e-09
5.47326e-09
1.12364e-08
1.63823e-08
1.34233e-07
1.01068e-06
1.21263e-06
1.12575e-06
8.01064e-07
1.8393e-08
0.000110229
0.000159954
0.000103592
0.00655543
0.0096181
0.0578872
9.8617e-11
2.14512e-10
3.69015e-10
1.09285e-09
1.11928e-08
2.66073e-08
2.65563e-08
2.16135e-08
7.08308e-08
9.31802e-07
1.15965e-06
1.84147e-07
1.28768e-08
7.15414e-05
7.82184e-05
0.00011176
0.00710833
0.00224194
-2.21676e-23
6.95804e-11
1.41144e-10
1.94882e-10
1.04754e-09
1.49175e-08
2.66073e-08
2.66073e-08
2.14909e-08
1.6276e-08
4.9933e-08
2.80549e-07
1.94614e-08
1.2995e-08
7.33835e-05
2.07086e-05
4.85667e-05
0.00711418
0.00300245
-5.00442e-19
4.68121e-11
9.79538e-11
1.34414e-10
8.53048e-10
7.14768e-09
1.3329e-08
1.95112e-08
2.22801e-08
1.62067e-08
8.48459e-09
4.41886e-09
4.80835e-09
5.07923e-09
6.1472e-05
1.96785e-05
0.00202304
0.00710487
0.0036129
0.0882041
1.95956e-11
5.8447e-11
1.98229e-10
1.04885e-09
2.03993e-09
1.69383e-09
2.81485e-09
1.15821e-08
1.3742e-08
8.98216e-09
4.06948e-09
4.5948e-09
4.80835e-09
1.69034e-05
1.74723e-05
0.0116855
0.0043941
0.00371624
0.261877
4.77421e-12
3.00606e-11
2.54964e-10
9.4005e-10
1.14132e-09
5.73806e-10
5.32567e-10
1.72556e-09
4.18117e-09
4.17542e-09
4.06305e-09
4.06948e-09
1.14073e-05
7.40931e-08
6.23024e-05
0.0135874
0.00421268
0.00388777
0.265399
1.05375e-12
1.4787e-11
2.08252e-10
6.66076e-10
6.8237e-10
2.53074e-10
1.75682e-10
1.75872e-10
1.87205e-10
2.18397e-10
2.81214e-08
4.29253e-06
1.56829e-05
3.4747e-08
0.00246095
0.0137688
0.0108462
0.00422302
0.0869763
2.47499e-13
4.72439e-12
8.63037e-11
2.93927e-10
2.92553e-10
1.75611e-10
1.75611e-10
1.75992e-10
1.7599e-10
2.61117e-10
7.56403e-07
4.28631e-06
7.73691e-06
2.38734e-09
0.00598516
0.0139116
0.0138255
0.00525095
0.0484492
4.58235e-14
8.80294e-13
1.52959e-11
5.86295e-11
2.57815e-11
4.09074e-08
2.01397e-07
8.83844e-08
2.61117e-10
2.84791e-08
3.31435e-07
3.64759e-07
1.32755e-09
1.58719e-10
0.00120618
0.0134883
0.0139096
0.00486027
0.150764
5.62949e-15
1.00125e-13
1.66301e-12
9.33228e-12
2.42925e-11
8.30603e-11
4.42321e-07
1.37664e-06
7.26925e-07
8.97493e-09
5.60396e-09
1.32755e-09
1.58719e-10
1.23011e-10
5.22171e-11
0.00335905
0.0115573
0.00460266
0.255191
5.41689e-16
9.86558e-15
1.41634e-13
1.46219e-12
3.68364e-12
1.47283e-13
3.3093e-08
1.3813e-06
1.64859e-06
1.40067e-06
1.11064e-06
3.58954e-07
1.54865e-09
5.28048e-11
4.29436e-11
5.28048e-11
0.00190296
0.00411555
0.396173
5.62398e-17
1.22428e-15
1.71226e-14
1.495e-13
3.42283e-13
2.84536e-15
1.47258e-13
8.7067e-08
1.0926e-06
1.69418e-06
1.69418e-06
1.41811e-06
7.47928e-08
4.53032e-11
1.03095e-11
5.53542e-11
0.00377774
0.0388501
0.444384
6.67192e-18
1.62895e-16
3.43842e-15
8.91708e-15
1.64407e-14
1.23562e-15
2.28236e-15
1.62859e-12
3.33056e-09
4.65206e-07
7.25513e-07
3.79592e-07
1.83656e-08
2.51658e-13
6.81585e-15
1.03095e-11
0.00566797
0.0288827
0.0744995
7.09365e-19
1.70718e-17
4.95439e-16
4.04065e-16
3.28965e-16
2.00054e-16
7.28211e-17
6.22427e-15
4.60671e-17
-7.06812e-15
-6.65251e-15
-7.33607e-15
-2.55972e-15
-1.57775e-18
-9.10943e-31
3.95865e-05
0.00611471
0.000714057
0
5.18611e-20
1.17121e-18
2.83947e-17
1.49394e-17
6.09594e-18
1.60554e-18
-9.25097e-21
8.39345e-18
-2.13968e-20
-2.79834e-17
-1.94556e-17
-1.55137e-17
-1.25694e-17
-1.3126e-17
-6.21048e-18
2.38632e-25
0.00488264
0.00246376
0.0468008
2.24492e-21
4.39419e-20
5.64072e-19
4.93467e-19
1.85806e-19
-1.30235e-17
-2.43023e-17
0
-3.23503e-16
-4.57454e-16
-4.20574e-16
-3.09369e-16
-1.66936e-16
-6.58831e-17
-2.0351e-17
3.81812e-24
0.00074084
1.29095e-07
0.0794396
4.18406e-23
6.65196e-22
5.14193e-21
2.0629e-20
6.50823e-21
-7.04359e-18
-1.31757e-17
-3.20566e-17
-1.63835e-16
-1.57246e-16
-9.70475e-17
-5.03501e-17
-1.97807e-17
-6.14274e-18
-1.27546e-18
1.21298e-06
1.82038e-05
-1.52724e-23
0.0188426
2.22462e-25
3.06942e-24
2.18727e-23
2.88858e-22
5.88722e-23
-1.76023e-18
-1.22299e-18
-6.32504e-18
-4.3341e-17
-2.48684e-17
-7.97446e-18
-2.05267e-18
-3.98326e-19
-6.37174e-20
-7.41865e-21
-2.76012e-21
-4.78578e-22
-1.14209e-22
-5.6749e-21
)
;

boundaryField
{
    leftWall
    {
        type            zeroGradient;
    }
    rightWall
    {
        type            zeroGradient;
    }
    lowerWall
    {
        type            zeroGradient;
    }
    atmosphere
    {
        type            inletOutlet;
        inletValue      uniform 0;
        value           nonuniform List<scalar> 
46
(
-1.07078e-45
-4.37393e-48
-1.00536e-51
-1.11946e-54
-2.50809e-55
7.25931e-65
8.2663e-63
3.44439e-61
9.77934e-60
1.21875e-58
8.27752e-58
5.30559e-57
1.16848e-54
2.06926e-52
2.42056e-50
3.20082e-48
9.68747e-46
2.14903e-42
2.50363e-39
9.93755e-37
3.02264e-34
2.77221e-32
2.53467e-31
1.40537e-30
5.08522e-30
4.46767e-29
1.61011e-28
2.22462e-25
3.06942e-24
2.18727e-23
2.88858e-22
5.88722e-23
-1.76023e-18
-1.22299e-18
0
0
0
0
0
0
0
0
0
0
0
-5.6749e-21
)
;
    }
    defaultFaces
    {
        type            empty;
    }
}


// ************************************************************************* //
