/*--------------------------------*- C++ -*----------------------------------*\
| =========                 |                                                 |
| \\      /  F ield         | OpenFOAM: The Open Source CFD Toolbox           |
|  \\    /   O peration     | Version:  5.x                                   |
|   \\  /    A nd           | Web:      www.OpenFOAM.org                      |
|    \\/     M anipulation  |                                                 |
\*---------------------------------------------------------------------------*/
FoamFile
{
    version     2.0;
    format      ascii;
    class       surfaceScalarField;
    location    "0.55";
    object      alphaPhi10;
}
// * * * * * * * * * * * * * * * * * * * * * * * * * * * * * * * * * * * * * //

dimensions      [0 3 -1 0 0 0 0];

internalField   nonuniform List<scalar> 
4432
(
-3.45069e-06
3.45069e-06
-5.51862e-06
2.06792e-06
-4.78207e-06
-7.3655e-07
-2.16839e-06
-2.61368e-06
1.90209e-06
-4.07047e-06
6.75814e-06
-4.85605e-06
1.14147e-05
-4.65656e-06
1.5086e-05
-3.67125e-06
1.7503e-05
-2.41703e-06
1.87838e-05
-1.28087e-06
1.91496e-05
-3.65788e-07
1.87562e-05
3.9346e-07
1.76839e-05
1.07229e-06
1.59762e-05
1.70763e-06
1.34972e-05
2.47908e-06
9.91035e-06
3.58681e-06
4.92337e-06
4.98698e-06
-1.10894e-06
6.03231e-06
-4.76315e-06
4.03509e-06
-8.15577e-06
4.24603e-06
-1.76596e-05
7.07589e-06
-1.53465e-05
-2.31315e-06
-1.53465e-05
-3.84847e-06
7.29916e-06
-5.19539e-06
3.41484e-06
-4.17859e-06
-1.75335e-06
-1.6511e-06
-5.14117e-06
2.23382e-06
-7.95539e-06
7.01199e-06
-9.63422e-06
1.1641e-05
-9.2856e-06
1.52687e-05
-7.29889e-06
1.7628e-05
-4.77633e-06
1.88828e-05
-2.53572e-06
1.93438e-05
-8.26754e-07
1.93061e-05
4.31142e-07
1.89938e-05
1.38459e-06
1.84902e-05
2.2112e-06
1.78162e-05
3.15307e-06
1.67679e-05
4.63513e-06
1.4703e-05
7.05195e-06
1.04509e-05
1.02844e-05
3.27614e-06
1.12099e-05
-5.03278e-06
1.3443e-05
-1.18497e-05
1.28968e-05
-9.58049e-06
-4.65836e-06
-2.48912e-05
-3.04485e-06
1.0344e-05
-3.95208e-06
4.32206e-06
-3.07734e-06
-2.62809e-06
-9.97044e-07
-7.22147e-06
2.41643e-06
-1.13689e-05
6.99431e-06
-1.42121e-05
1.15708e-05
-1.38621e-05
1.51221e-05
-1.08501e-05
1.73514e-05
-7.00566e-06
1.84818e-05
-3.66612e-06
1.88434e-05
-1.18836e-06
1.86948e-05
5.79725e-07
1.82058e-05
1.87361e-06
1.7533e-05
2.88402e-06
1.6841e-05
3.84503e-06
1.63643e-05
5.11192e-06
1.62702e-05
7.14603e-06
1.57076e-05
1.08469e-05
1.21692e-05
1.47483e-05
5.57145e-06
2.0066e-05
-1.44956e-06
1.89168e-05
-1.88602e-06
-4.24289e-06
-2.6778e-05
-1.86906e-06
1.22131e-05
-2.16135e-06
4.61435e-06
-1.43196e-06
-3.35748e-06
1.3656e-07
-8.78999e-06
3.0155e-06
-1.42478e-05
7.19786e-06
-1.83945e-05
1.1492e-05
-1.81562e-05
1.48048e-05
-1.4163e-05
1.68416e-05
-9.04236e-06
1.78488e-05
-4.67334e-06
1.81716e-05
-1.51116e-06
1.80539e-05
6.97382e-07
1.76529e-05
2.27462e-06
1.70746e-05
3.46233e-06
1.64172e-05
4.50245e-06
1.58335e-05
5.69555e-06
1.56856e-05
7.29403e-06
1.63874e-05
1.01451e-05
1.67892e-05
1.43464e-05
1.5675e-05
2.11802e-05
1.29356e-05
2.37563e-05
7.39006e-06
1.62046e-06
-1.94721e-05
-3.16041e-07
1.25291e-05
4.91877e-07
3.80643e-06
1.4786e-06
-4.3442e-06
3.0314e-06
-1.03428e-05
5.6634e-06
-1.68798e-05
9.03104e-06
-2.17621e-05
1.23032e-05
-2.14284e-05
1.47456e-05
-1.66053e-05
1.62358e-05
-1.05326e-05
1.7018e-05
-5.45548e-06
1.73321e-05
-1.8253e-06
1.73103e-05
7.19208e-07
1.70673e-05
2.51764e-06
1.66929e-05
3.8367e-06
1.62697e-05
4.92564e-06
1.58784e-05
6.08686e-06
1.56817e-05
7.49076e-06
1.622e-05
9.60678e-06
1.78757e-05
1.26908e-05
2.04458e-05
1.861e-05
2.10453e-05
2.31568e-05
1.38201e-05
8.85132e-06
-5.65201e-06
1.90238e-06
1.06267e-05
4.41154e-06
1.29726e-06
6.67978e-06
-6.61244e-06
9.18065e-06
-1.28437e-05
1.16958e-05
-1.9395e-05
1.35708e-05
-2.3637e-05
1.48375e-05
-2.26952e-05
1.5602e-05
-1.73698e-05
1.5997e-05
-1.09276e-05
1.62382e-05
-5.69672e-06
1.64344e-05
-2.02146e-06
1.65249e-05
6.28695e-07
1.64799e-05
2.56262e-06
1.6333e-05
3.98369e-06
1.61548e-05
5.10383e-06
1.60117e-05
6.22994e-06
1.60531e-05
7.44932e-06
1.65285e-05
9.13139e-06
1.78697e-05
1.13496e-05
2.10735e-05
1.54062e-05
2.33661e-05
2.08642e-05
1.683e-05
1.53874e-05
1.11771e-05
4.38911e-06
6.23762e-06
9.53903e-06
-3.85267e-06
1.44489e-05
-1.15223e-05
1.84525e-05
-1.68473e-05
2.03208e-05
-2.12633e-05
1.98718e-05
-2.3188e-05
1.85878e-05
-2.14111e-05
1.74595e-05
-1.62415e-05
1.663e-05
-1.00981e-05
1.61247e-05
-5.19146e-06
1.58708e-05
-1.76752e-06
1.59078e-05
5.91689e-07
1.59587e-05
2.51172e-06
1.60144e-05
3.92792e-06
1.60854e-05
5.03284e-06
1.61664e-05
6.14895e-06
1.64465e-05
7.1693e-06
1.71163e-05
8.46153e-06
1.81542e-05
1.03117e-05
2.0589e-05
1.29715e-05
2.31795e-05
1.82736e-05
1.92681e-05
1.92988e-05
3.04418e-05
6.77795e-06
-5.40333e-07
1.55784e-05
-1.26529e-05
2.35142e-05
-1.94578e-05
2.77249e-05
-2.10579e-05
2.74019e-05
-2.09402e-05
2.43103e-05
-2.00962e-05
2.11892e-05
-1.82898e-05
1.90982e-05
-1.41504e-05
1.7819e-05
-8.81883e-06
1.70542e-05
-4.42665e-06
1.66183e-05
-1.3316e-06
1.61778e-05
1.03216e-06
1.59158e-05
2.77377e-06
1.58319e-05
4.01182e-06
1.59447e-05
4.92001e-06
1.61618e-05
5.93182e-06
1.66991e-05
6.632e-06
1.76863e-05
7.47437e-06
1.89031e-05
9.09483e-06
2.07492e-05
1.11254e-05
2.28794e-05
1.61434e-05
2.00619e-05
2.21163e-05
5.05059e-05
8.24308e-06
-1.23199e-05
4.00438e-06
-2.70214e-06
1.13575e-05
-2.4186e-06
1.71739e-05
-5.05556e-06
1.7427e-06
1.01756e-06
8.2565e-07
9.1705e-07
-2.99745e-05
9.1132e-06
-8.53419e-05
2.49968e-05
-7.44766e-05
8.10784e-06
-5.68393e-05
-4.55554e-07
-8.63462e-05
-1.5463e-06
-0.000124217
-2.99719e-06
-0.000134441
-4.45525e-06
-0.000134469
-6.75504e-06
-0.000128681
-1.04545e-05
-0.000117245
-1.48992e-05
-9.68404e-05
-2.39842e-05
-3.58348e-05
-6.47975e-05
-3.26322e-05
8.75463e-07
-1.18993e-05
5.2229e-06
-5.40122e-05
2.03097e-05
-8.66089e-05
3.19476e-06
-7.01271e-06
2.03593e-06
2.8043e-07
-2.66333e-06
3.56415e-06
-2.98235e-05
2.56036e-05
-9.65672e-06
6.57619e-06
-1.90194e-07
2.69856e-07
-6.4565e-07
-7.14864e-10
-2.18141e-06
-1.15453e-08
-5.96912e-06
-4.73252e-08
-2.12865e-05
-1.9547e-07
-3.38064e-05
-6.75365e-07
-4.50858e-05
-2.25436e-06
-6.10869e-05
-6.5162e-06
-8.13259e-05
-1.96286e-05
-4.08877e-05
-0.000120533
-8.10451e-05
-1.12359e-05
-9.143e-06
-1.86179e-06
-9.20423e-05
1.85199e-05
-0.000172796
3.10954e-06
-4.40843e-06
3.46667e-07
9.69555e-07
-6.63476e-06
9.98123e-06
-4.89341e-06
1.42451e-05
-2.5659e-07
2.40832e-06
-7.90081e-09
2.05552e-08
-9.22815e-09
1.29106e-10
-2.07513e-08
-5.55595e-10
-6.62881e-08
-2.49329e-09
-2.5541e-07
-7.62505e-09
-9.07418e-07
-2.77564e-08
-2.96235e-06
-2.01407e-07
-8.2932e-06
-1.24463e-06
-2.7199e-05
-5.95886e-06
-4.58472e-05
-0.000108079
-0.000119199
-1.04666e-05
-4.99522e-06
3.69545e-06
-0.000106204
9.07466e-06
-0.000178175
3.29499e-06
-4.486e-05
2.84798e-07
1.52308e-06
-7.57919e-06
2.05337e-05
-1.85765e-06
6.89423e-06
-2.11422e-08
5.72163e-07
-4.30037e-09
3.22958e-09
-5.27069e-09
6.15616e-10
-5.80883e-09
-5.17577e-10
-7.34227e-09
-1.49658e-09
-1.20688e-08
-3.66812e-09
-3.98654e-08
-2.81828e-09
-2.27157e-07
-1.88397e-08
-1.2354e-06
-2.35544e-07
-4.65326e-06
-2.55578e-06
-3.48499e-05
-8.35339e-05
-0.000173876
1.38637e-06
-6.38159e-06
1.50262e-05
-0.000119844
1.2588e-05
-0.000175737
1.21367e-05
-0.00016776
-8.4707e-08
4.18193e-06
-6.28294e-06
2.61485e-05
-4.48475e-07
1.11368e-06
-4.05262e-09
1.27233e-07
-4.42952e-09
3.05865e-09
-5.6573e-09
1.33303e-09
-6.48328e-09
-2.39424e-10
-6.92645e-09
-1.85875e-09
-3.11501e-09
-9.12098e-09
-4.50596e-09
-5.74051e-09
-2.30423e-08
-3.70316e-09
-2.58816e-07
-9.37529e-10
-1.81507e-06
-1.00278e-06
-3.14554e-05
-5.58524e-05
-0.000242361
1.30596e-05
-1.94412e-05
2.58967e-05
-0.000132681
2.37665e-05
-0.000173606
2.18893e-05
-0.000188395
-9.25838e-07
6.81255e-06
-1.84355e-06
1.74228e-05
-9.60878e-08
9.69466e-07
-3.88669e-09
3.44832e-08
-5.97196e-09
4.63576e-09
-1.02362e-08
3.93145e-09
-1.3069e-08
-3.43423e-09
-2.00335e-08
3.47062e-09
-1.33787e-08
-2.03958e-08
-2.09098e-09
-2.03625e-08
4.42668e-10
-7.47351e-09
6.20712e-11
-1.79897e-09
-9.07967e-07
-9.59479e-08
-2.48786e-05
-2.91905e-05
-0.000265929
2.7452e-05
-4.68932e-05
3.64973e-05
-0.000141727
3.16875e-05
-0.000168797
1.61583e-05
-0.000178355
4.34525e-07
-3.1644e-07
-5.73228e-08
1.62519e-05
-9.05971e-09
1.84403e-06
-3.78944e-09
2.79444e-08
-7.07404e-09
7.37179e-09
-1.28153e-08
8.45338e-09
-7.25103e-08
-4.17564e-09
-6.86862e-08
-7.67968e-08
-4.60544e-08
-9.45847e-08
-1.09679e-08
-6.8581e-08
-5.31745e-10
-2.13222e-08
2.98387e-09
-6.55633e-09
-9.31039e-08
-2.90073e-09
-1.8093e-05
-1.20137e-05
-0.000269506
4.29294e-05
-8.98226e-05
4.51122e-05
-0.000143909
3.5692e-05
-0.000159376
1.81136e-05
-0.000167482
1.12988e-06
-1.73165e-05
-3.30689e-08
1.77711e-05
-4.54421e-10
2.14764e-06
-4.91128e-09
2.31652e-06
-8.71734e-09
9.9098e-09
-2.86623e-09
1.05526e-08
-2.14039e-08
-1.45785e-09
-1.72074e-07
-1.29881e-07
-1.65588e-07
-3.55854e-07
-3.72732e-08
-2.2313e-07
-9.28322e-09
-6.60003e-08
5.49656e-09
-2.4432e-08
3.48294e-09
-6.00673e-09
-1.06122e-05
-2.04697e-06
-0.000276328
2.09156e-05
-1.62075e-05
3.97456e-05
-2.06157e-05
4.35945e-05
-1.04513e-05
4.11896e-05
-5.24918e-06
3.80967e-05
-4.59992e-06
3.54227e-05
-5.85165e-06
3.2477e-05
-7.20567e-06
3.12205e-05
-7.42388e-06
3.25481e-05
-6.60441e-06
3.48342e-05
-4.9225e-06
3.66201e-05
-2.62017e-06
3.77975e-05
-1.2487e-07
3.79239e-05
2.64735e-06
3.74277e-05
4.50806e-06
3.67497e-05
5.59801e-06
3.59123e-05
6.76924e-06
3.63213e-05
6.22297e-06
3.84445e-05
5.35119e-06
4.18455e-05
5.69382e-06
4.71043e-05
5.86663e-06
5.6873e-05
6.37466e-06
7.2992e-05
5.99735e-06
1.47374e-05
0.000108762
7.7373e-06
-6.14843e-15
3.24839e-06
-8.94659e-11
6.90137e-07
-7.11841e-09
-1.41243e-07
7.20677e-09
-1.05463e-06
-4.65748e-14
-1.70813e-06
-1.25606e-12
-2.60044e-06
-2.63236e-11
-2.82994e-06
-4.44527e-10
-1.55665e-06
-6.59023e-09
1.78822e-06
-8.9101e-08
9.18212e-06
-9.28743e-07
2.10349e-05
-3.05602e-06
3.24086e-05
-2.21521e-06
3.94058e-05
5.64835e-07
4.07482e-05
4.25896e-06
3.85979e-05
8.91952e-06
3.85201e-05
6.30084e-06
4.05173e-05
3.3539e-06
4.32752e-05
2.93598e-06
4.79204e-05
1.22143e-06
5.59236e-05
-1.62859e-06
6.59405e-05
-4.01948e-06
-5.99065e-06
8.66687e-05
4.74836e-18
-6.15318e-15
-8.84082e-11
-1.05771e-12
-7.17548e-09
-3.24709e-11
-1.96711e-15
3.12963e-11
-4.86561e-14
9.01677e-17
-1.30344e-12
-1.18086e-15
-2.75909e-11
-3.32289e-14
-4.72102e-10
7.0913e-15
-7.06235e-09
-3.30505e-15
-9.61624e-08
-9.84867e-13
-1.02488e-06
-2.41169e-11
-1.96403e-06
-4.73144e-10
-1.95643e-06
-7.39539e-09
3.40703e-08
-9.01808e-08
6.18959e-06
-6.51526e-07
1.75416e-05
-5.82019e-07
3.42289e-05
-2.18253e-06
4.50789e-05
-1.94786e-06
4.70994e-05
9.15439e-07
4.96763e-05
-1.32866e-06
5.5233e-05
-7.18519e-06
6.27577e-05
-1.15441e-05
-1.68868e-05
7.36543e-05
-6.12527e-15
-2.79087e-17
-1.611e-12
-4.40472e-15
-3.12651e-11
6.40703e-14
-4.35278e-16
3.17012e-14
-3.9878e-16
2.72954e-17
-1.75293e-15
1.49228e-16
-3.51173e-14
1.74503e-16
-2.23495e-14
-1.34018e-15
-4.30953e-14
8.64393e-16
-1.04483e-12
7.19604e-17
-2.50902e-11
-9.26632e-14
-4.8152e-10
-1.68286e-11
-7.06384e-09
-8.15025e-10
-9.54176e-08
-1.86668e-09
-7.43323e-07
-3.49805e-09
-1.38944e-06
-1.64026e-09
-2.60014e-06
-6.83054e-10
-6.13699e-07
-3.06029e-09
8.28018e-06
-6.13575e-08
2.51433e-05
-1.29271e-06
4.40131e-05
-6.82562e-06
5.42861e-05
-8.96227e-06
-1.26686e-05
6.11043e-05
-3.37817e-17
-2.45427e-21
-1.22129e-14
-2.26566e-17
-3.1605e-14
-1.05969e-16
-2.93114e-17
9.83705e-17
-6.48007e-17
3.64106e-17
-2.67087e-17
1.76533e-16
5.14631e-17
1.61365e-16
2.36193e-15
1.00644e-15
1.82306e-14
3.41128e-14
1.11764e-14
1.51826e-13
-7.53611e-14
1.21995e-13
-1.89951e-11
-2.22774e-14
-8.61505e-10
-1.8046e-10
-4.50425e-10
-2.05357e-09
-3.02101e-10
-3.38904e-09
-3.13184e-10
-1.41848e-09
-4.66167e-10
-3.30629e-10
-2.99067e-09
-3.25088e-10
-6.36705e-08
-4.99674e-10
-1.35253e-06
-3.62346e-09
-1.02637e-06
-1.29389e-08
5.59896e-07
-1.02671e-08
-1.60653e-09
3.64016e-06
-4.07263e-21
3.32401e-24
-2.54056e-17
-6.12598e-21
-1.3912e-16
-6.98803e-19
-1.65713e-16
2.00247e-17
-4.63112e-16
3.0515e-16
-2.56741e-16
1.08375e-15
-5.93307e-17
1.26874e-15
1.5798e-15
6.78201e-16
8.40703e-14
7.79223e-14
8.04273e-13
-4.42976e-13
2.34495e-12
-9.89528e-13
2.32389e-12
-4.15248e-13
-9.51761e-11
-2.66886e-12
-3.22773e-10
-2.01234e-12
-7.28961e-10
-1.17063e-09
-1.89644e-10
-2.41849e-11
-1.31429e-10
-1.94272e-10
-6.40512e-11
-2.6394e-10
-4.82814e-11
-3.87957e-10
-8.51593e-11
-3.45138e-09
-2.39327e-10
-1.25669e-08
-3.45111e-10
-9.86763e-09
-7.65117e-10
-8.74504e-10
-1.42246e-23
1.5558e-24
-1.54706e-20
-4.00656e-22
-2.62045e-18
1.27487e-19
-9.44872e-17
1.81e-17
-4.8705e-16
3.3253e-16
-3.24812e-16
1.26498e-15
1.65469e-16
1.56999e-15
1.20156e-14
6.75179e-16
1.36357e-13
9.18915e-14
-5.19393e-14
-2.41258e-13
1.48845e-13
-1.17689e-12
6.81751e-13
-1.12507e-12
1.10534e-12
-1.33476e-12
1.9866e-13
-3.34503e-12
8.69213e-14
-9.49008e-12
-2.40695e-11
-2.60502e-14
-1.45649e-12
-2.63028e-15
3.81209e-11
-2.13094e-15
7.39932e-10
-4.04487e-10
4.94507e-09
-8.81629e-10
8.14479e-09
-1.16415e-08
6.82457e-09
-9.9351e-09
-1.37831e-09
1.67411e-09
-6.75308e-25
1.82732e-25
-8.91179e-22
-2.93031e-23
-6.36002e-19
9.98352e-21
-4.33961e-17
6.10689e-18
-2.76803e-16
1.87927e-16
-1.38517e-16
1.00526e-15
2.16099e-16
1.53968e-15
1.47978e-15
1.17731e-15
6.53558e-14
1.40315e-15
3.0071e-13
-4.37262e-14
1.14054e-13
-8.13097e-13
1.91965e-13
-4.76044e-14
6.46327e-13
-1.63639e-12
9.4255e-13
-8.96519e-12
1.02132e-14
-8.55527e-12
3.75927e-17
-1.04145e-14
1.30772e-17
-1.13582e-15
2.86376e-16
-8.38099e-16
1.48244e-10
-5.59459e-10
1.78857e-09
-2.76848e-10
6.8044e-09
-9.92218e-09
7.98665e-09
-1.64901e-08
-4.47351e-09
5.33694e-09
-3.60722e-26
1.41533e-26
-3.69281e-23
-2.43108e-24
-6.19005e-20
5.25658e-22
-8.5336e-18
9.94688e-19
-8.65438e-17
5.41255e-17
3.71232e-17
4.61636e-16
4.1836e-16
1.08578e-15
6.15207e-16
9.17405e-16
1.62784e-15
1.82335e-16
2.34147e-14
-3.5177e-17
5.8698e-14
-1.91553e-16
1.12495e-14
-1.56565e-16
6.36837e-13
-9.9339e-13
2.93686e-12
-6.48468e-12
4.94442e-15
-2.8584e-12
-2.22911e-16
-5.63165e-16
4.3742e-17
-5.18655e-17
2.65759e-14
-2.65913e-14
2.46556e-11
-1.37927e-10
1.14887e-10
-2.44613e-10
1.62262e-09
-6.66784e-10
6.09243e-09
-2.58898e-08
-2.35228e-08
3.96943e-09
-1.16179e-27
1.0378e-26
-2.20029e-24
-2.33873e-25
-7.30481e-21
5.27007e-23
-1.51667e-18
1.88988e-19
-1.9493e-17
1.15583e-17
2.34448e-17
1.01012e-16
1.97224e-16
2.45392e-16
3.58649e-16
2.45824e-16
1.6355e-16
1.18865e-16
9.21903e-17
-2.19352e-17
8.56351e-17
-1.85648e-16
7.43872e-17
-1.45967e-16
6.17316e-13
-1.20412e-13
8.20514e-13
-3.40632e-15
5.89968e-16
2.0837e-17
-1.14278e-17
3.82306e-17
5.47142e-16
1.52393e-18
-2.59979e-14
-5.74409e-17
-1.81403e-11
-1.40998e-13
6.85654e-12
-1.40943e-11
-6.89956e-10
-4.64396e-11
-4.61829e-09
-1.36849e-08
-2.44223e-08
-2.14308e-09
-5.43538e-26
-9.69904e-26
-2.67105e-25
-2.1122e-26
-1.0356e-21
6.73958e-24
-2.8166e-19
3.80349e-20
-4.10806e-18
2.33867e-18
3.25274e-18
1.80118e-17
3.80278e-17
3.69695e-17
7.61085e-17
2.87354e-17
8.06917e-17
1.36423e-17
2.27672e-16
-7.22095e-17
1.31098e-16
-1.82467e-16
1.10732e-16
-1.34509e-16
3.40718e-15
-4.67834e-17
5.41996e-19
3.15926e-19
3.94776e-18
6.12217e-17
3.00198e-19
4.92755e-17
-3.62257e-18
8.95921e-18
-5.69687e-17
-4.09479e-18
-1.39657e-13
-1.40921e-15
-1.40563e-11
-1.78388e-13
-5.66476e-11
-3.82382e-12
-1.01511e-08
-9.40715e-10
-1.02294e-08
-2.27682e-08
-2.88191e-27
-3.71903e-25
-2.17218e-26
-2.28215e-27
-1.41267e-22
1.20755e-24
-5.36732e-20
6.53217e-21
-1.04282e-18
4.30412e-19
-1.75507e-18
3.08005e-18
2.50156e-18
5.74286e-18
7.6339e-18
3.9029e-18
1.66948e-17
2.22712e-18
1.39653e-16
-4.42377e-17
5.98512e-17
-1.06169e-16
1.50517e-17
-9.41076e-17
1.60983e-20
-3.17478e-17
1.00859e-17
-3.44444e-18
1.33965e-17
3.95659e-17
3.17053e-18
4.1756e-17
-6.5548e-19
1.34657e-17
-5.9663e-18
1.21603e-18
-1.41211e-15
-2.7519e-18
-1.79319e-13
-5.36745e-16
-3.97042e-12
-3.54713e-14
-9.43125e-10
-1.66577e-12
-5.50278e-11
-4.94012e-09
-1.92429e-28
-3.26875e-25
-1.60548e-27
-8.98159e-28
-1.91515e-23
6.40798e-25
-1.08748e-20
1.02014e-21
-2.75351e-19
7.29316e-20
-9.60264e-19
4.89111e-19
-7.082e-19
8.29076e-19
-4.94269e-19
5.69651e-19
-6.28656e-18
4.92641e-19
-8.14347e-18
-4.49347e-18
-1.42522e-17
-1.46036e-17
-1.19715e-17
-2.96878e-17
-6.82619e-18
-2.79614e-17
1.56383e-17
-4.46042e-18
1.99116e-17
1.32094e-17
7.38475e-18
1.59916e-17
7.20175e-19
7.79694e-18
-1.61676e-18
-4.80467e-19
-2.17729e-18
-9.25185e-18
-5.25922e-16
-2.08249e-17
-3.59118e-14
-1.4624e-16
-1.70035e-12
-1.44012e-15
-8.06218e-15
-5.67203e-11
-3.74663e-29
-2.23528e-25
-1.8721e-27
-5.00887e-28
-3.05004e-24
5.21163e-25
-2.00771e-21
1.40324e-22
-6.01881e-20
1.02258e-20
-2.43342e-19
6.78947e-20
-2.85211e-19
1.20783e-19
-4.20667e-19
1.02765e-19
-2.60797e-18
6.95602e-20
-5.54478e-18
-2.21839e-19
-1.19339e-17
-2.188e-18
-1.6828e-17
-6.41945e-18
-9.24461e-18
-1.0232e-17
8.92972e-18
-2.31911e-18
1.17974e-17
2.04366e-18
6.27607e-18
3.29874e-18
-4.167e-19
1.46636e-18
-5.03784e-18
-7.37949e-19
-2.18656e-17
-8.33252e-18
-2.97493e-17
-3.3931e-17
-4.91522e-17
-1.46615e-16
-2.58383e-16
-1.25546e-15
-5.9902e-15
-2.39698e-15
-6.4379e-30
-1.58627e-25
-4.91773e-27
4.4104e-27
-5.61793e-25
1.73766e-25
-2.97855e-22
1.68728e-23
-9.03023e-21
1.12469e-21
-4.00547e-20
7.56044e-21
-6.69065e-20
1.68587e-20
-1.1665e-19
2.42899e-20
-3.10674e-19
2.97587e-20
-1.58162e-18
6.0214e-21
-4.65286e-18
-2.85102e-19
-6.7794e-18
-7.7484e-19
-3.92396e-18
-9.60325e-19
2.15203e-18
-4.47297e-19
3.61915e-18
-2.72827e-20
1.70535e-18
2.58362e-19
-9.62583e-19
1.61445e-19
-3.72656e-18
-2.92799e-20
-2.07687e-17
-1.76027e-18
-8.16885e-17
-1.80806e-17
-7.27723e-16
-9.24953e-17
-8.59575e-15
-3.97944e-16
-5.4795e-16
-2.99289e-14
1.51051e-28
-1.19096e-25
-3.96836e-26
8.43678e-27
-1.09974e-25
4.35441e-26
-3.49479e-23
1.71884e-24
-9.44689e-22
9.7086e-23
-4.47212e-21
6.82085e-22
-1.24991e-20
2.21156e-21
-3.74645e-20
7.01926e-21
-1.5263e-19
1.80774e-20
-6.49068e-19
2.91984e-20
-1.09478e-18
2.72592e-21
-1.24697e-18
-3.39983e-20
-7.45065e-19
-4.68884e-20
-2.71329e-19
-4.88486e-20
4.33082e-19
-2.94571e-20
2.81729e-19
-1.86951e-20
-5.87183e-20
-1.15074e-20
-2.16321e-19
-1.55668e-20
-6.19644e-18
-1.2316e-19
-7.63414e-17
-2.09501e-18
-7.61773e-16
-2.24009e-17
-3.86478e-15
-9.76166e-17
2.50725e-16
-6.62243e-15
5.07773e-28
-8.60752e-26
-7.08049e-27
4.53926e-27
-1.69281e-26
4.55186e-27
-2.77902e-24
1.36376e-25
-6.55603e-23
5.92318e-24
-4.15e-22
5.18211e-23
-2.55304e-21
3.46958e-22
-1.37141e-20
2.25175e-21
-5.04858e-20
7.07879e-21
-1.18673e-19
1.01243e-20
-1.43571e-19
7.39576e-21
-1.3081e-19
2.64318e-21
-1.01921e-19
-8.67282e-22
-1.00231e-19
-1.26093e-21
-6.98488e-20
-4.15356e-22
-3.36872e-20
-9.06974e-23
-4.03557e-20
-6.51502e-23
-6.29616e-20
-7.91407e-22
-7.33281e-19
-1.72501e-20
-1.33011e-17
-1.78943e-19
-2.90429e-16
5.03334e-19
-5.11269e-15
1.29135e-16
2.28387e-15
-2.81777e-14
4.88708e-28
-5.55625e-26
-2.25332e-28
1.5356e-27
-8.81151e-28
8.95406e-28
-1.331e-25
8.18421e-27
-2.91469e-24
2.44285e-25
-3.99512e-23
3.70097e-24
-5.72095e-22
6.80042e-23
-4.44301e-21
6.32036e-22
-1.53557e-20
2.30488e-21
-2.49932e-20
3.68537e-21
-2.90437e-20
3.34836e-21
-2.55816e-20
2.3071e-21
-1.24531e-20
1.0445e-21
-3.07298e-21
2.17996e-22
-4.70517e-22
2.42347e-23
-2.55249e-22
2.65e-24
-4.11424e-22
1.8771e-24
-1.11226e-20
5.17727e-23
-3.17466e-19
4.59519e-21
-4.76164e-18
1.47743e-19
-8.08902e-17
2.98869e-18
-1.88102e-15
7.04545e-17
1.69716e-15
-2.07573e-14
3.1198e-28
-3.0938e-26
4.87072e-28
2.87584e-28
-1.13377e-27
-2.09501e-27
-3.66187e-27
1.98488e-28
-1.08778e-25
6.77632e-27
-4.69284e-24
3.27279e-25
-1.12715e-22
1.22471e-23
-1.01503e-21
1.25665e-22
-3.62742e-21
5.14576e-22
-5.82874e-21
9.82408e-22
-6.71985e-21
1.08411e-21
-5.87101e-21
9.08525e-22
-2.90278e-21
5.17868e-22
-7.11669e-22
1.75676e-22
-9.72814e-23
3.21819e-23
-5.67045e-23
4.72023e-24
-9.08626e-23
3.69834e-24
-3.1881e-21
8.74432e-23
-1.27612e-19
4.77342e-21
-2.02047e-18
1.49913e-19
-2.54295e-17
2.32476e-18
-5.68986e-16
3.26727e-17
6.56064e-16
-9.49463e-15
1.47383e-28
-1.45749e-26
5.67554e-28
-6.86738e-29
-6.35197e-30
-2.64086e-27
-1.96127e-29
2.37068e-29
-4.5253e-27
1.16872e-28
-5.4047e-25
3.27206e-26
-1.63308e-23
1.47506e-24
-1.66195e-22
1.7428e-23
-6.55286e-22
8.24352e-23
-1.13464e-21
1.82675e-22
-1.31381e-21
2.27317e-22
-1.17983e-21
2.13699e-22
-5.82188e-22
1.35731e-22
-1.35132e-22
4.98778e-23
-1.57331e-23
9.23468e-24
-1.03342e-23
1.26445e-24
-1.72098e-23
1.09214e-24
-8.01415e-22
3.75461e-23
-4.78325e-20
2.35987e-21
-9.99936e-19
9.20737e-20
-9.86142e-18
1.4627e-18
-1.38305e-16
1.45709e-17
2.02319e-16
-2.57603e-15
4.93544e-29
-5.71875e-27
2.95332e-28
-1.3544e-28
1.13343e-28
-1.49178e-27
-2.83086e-29
-4.44903e-28
-2.23838e-28
2.41744e-30
-4.27107e-26
2.02168e-27
-1.70896e-24
1.12851e-25
-2.01875e-23
1.77669e-24
-8.83803e-23
9.55315e-24
-1.66943e-22
2.34555e-23
-1.93552e-22
3.16984e-23
-1.86833e-22
3.21386e-23
-9.95446e-23
2.33788e-23
-2.3832e-23
9.85275e-24
-2.4262e-24
2.0148e-24
-1.80575e-24
2.85137e-25
-3.18943e-24
2.77859e-25
-1.83825e-22
1.25366e-23
-1.35406e-20
8.49135e-22
-3.6889e-19
3.76424e-20
-3.82504e-18
7.01643e-19
-4.52016e-17
7.52678e-18
1.03201e-16
-9.523e-16
1.08537e-29
-1.84492e-27
8.66609e-29
-5.35496e-29
4.92351e-29
-4.78403e-28
-7.66581e-31
-2.05612e-28
-5.93968e-30
2.35241e-30
-2.10935e-27
5.15252e-29
-1.32837e-25
6.1556e-27
-1.82077e-24
1.3247e-25
-8.57513e-24
7.74672e-25
-1.74081e-23
2.01536e-24
-2.0435e-23
2.8984e-24
-2.09301e-23
3.06164e-24
-1.22494e-23
2.46016e-24
-3.19075e-24
1.15967e-24
-3.62599e-25
2.71702e-25
-3.04119e-25
5.30874e-26
-6.28267e-25
7.02485e-26
-4.36994e-23
3.96609e-24
-3.75427e-21
2.97756e-22
-1.2144e-19
1.5195e-20
-1.37058e-18
3.18891e-19
-1.68459e-17
3.56132e-18
4.90864e-17
-4.31941e-16
1.3865e-30
-4.85875e-28
1.3576e-29
-1.00527e-29
8.58018e-30
-8.24524e-29
1.12947e-30
-3.85297e-29
-9.36363e-30
-3.74974e-30
-7.69872e-29
9.55535e-31
-7.73262e-27
2.60106e-28
-1.17181e-25
6.68157e-27
-5.71943e-25
4.09396e-26
-1.21287e-24
1.10511e-25
-1.49446e-24
1.67464e-25
-1.57843e-24
1.83599e-25
-1.01299e-24
1.59123e-25
-2.89735e-25
8.18172e-26
-4.07969e-26
2.17799e-26
-4.46855e-26
6.63727e-27
-1.23883e-25
1.63501e-26
-9.81253e-24
1.13631e-24
-1.03174e-21
9.43626e-23
-4.65251e-20
5.94253e-21
-5.91876e-19
1.49028e-19
-5.45534e-18
1.54988e-18
1.39049e-17
-1.14577e-16
9.09688e-32
-1.04623e-28
1.23193e-30
-8.95961e-31
8.60569e-31
-8.31155e-30
1.7302e-31
-4.20464e-30
-2.77958e-31
-6.27113e-31
-2.45811e-30
2.5573e-32
-2.96872e-28
6.38319e-30
-4.84404e-27
1.8421e-28
-2.46044e-26
1.23708e-27
-5.49817e-26
3.57836e-27
-7.15144e-26
5.80312e-27
-7.69917e-26
6.6456e-27
-5.29344e-26
5.99124e-27
-1.63119e-26
3.21461e-27
-3.67833e-27
9.64104e-28
-4.13256e-27
4.86956e-28
-2.37167e-26
3.59194e-27
-2.11367e-24
2.90871e-25
-2.50555e-22
2.57226e-23
-1.44752e-20
1.83259e-21
-2.20968e-19
5.41567e-20
-1.87163e-18
6.18624e-19
4.96359e-18
-3.07293e-17
9.50803e-34
-1.85867e-29
5.34222e-32
-1.2281e-32
4.77908e-32
-4.05199e-31
1.07848e-32
-2.57565e-31
-4.06724e-33
-4.31231e-32
-2.74242e-32
1.86467e-34
-5.01813e-30
4.48443e-32
-1.03079e-28
1.91176e-30
-5.90574e-28
1.60448e-29
-1.45523e-27
5.28435e-29
-2.03001e-27
9.37049e-29
-2.19533e-27
1.12168e-28
-1.53356e-27
1.01723e-28
-4.86517e-28
5.50677e-29
-1.8038e-28
2.09011e-29
-2.22694e-28
1.95947e-29
-4.49202e-27
7.91167e-28
-4.16873e-25
6.63876e-26
-5.349e-23
6.18217e-24
-3.9404e-21
5.0433e-22
-7.6547e-20
1.83246e-20
-6.521e-19
2.36479e-19
1.67494e-18
-7.84632e-18
8.358e-36
-2.76861e-30
1.58454e-33
-1.40855e-34
1.85655e-33
-1.37261e-32
4.43213e-34
-1.12037e-32
-3.58655e-35
-1.97932e-33
-1.57258e-34
1.19142e-36
-3.18123e-32
1.93999e-34
-7.99104e-31
8.01479e-33
-5.24948e-30
7.62705e-32
-1.37882e-29
2.80434e-31
-1.97469e-29
5.41778e-31
-2.14376e-29
6.92117e-31
-1.54374e-29
6.82828e-31
-6.34146e-30
4.86376e-31
-6.9529e-30
4.095e-31
-1.38175e-29
1.63476e-30
-7.94657e-28
1.54636e-28
-7.54818e-26
1.38243e-26
-1.01979e-23
1.35569e-24
-9.90921e-22
1.2666e-22
-2.69476e-20
5.79282e-21
-2.39737e-19
8.57453e-20
5.22443e-19
-1.61217e-18
8.0216e-38
-3.5224e-31
3.72614e-35
-1.82943e-36
5.71012e-35
-3.75526e-34
1.41741e-35
-3.91855e-34
-2.73388e-37
-7.15877e-35
-9.46791e-37
9.31788e-39
-1.72071e-34
1.25233e-36
-4.70926e-33
4.72287e-35
-3.50634e-32
4.78206e-34
-1.13488e-31
2.12688e-33
-2.06893e-31
5.55867e-33
-2.3663e-31
9.17677e-33
-2.19221e-31
1.07908e-32
-1.71163e-31
1.11435e-32
-1.94118e-31
1.41047e-32
-1.66668e-30
2.85192e-31
-1.30842e-28
2.77703e-29
-1.27844e-26
2.62041e-27
-1.80939e-24
2.71859e-25
-2.20915e-22
2.83319e-23
-7.94884e-21
1.55388e-21
-7.89792e-20
2.66557e-20
1.71609e-19
-3.95481e-19
8.25953e-40
-3.89413e-32
7.46597e-37
-2.83772e-38
1.48872e-36
-8.93872e-36
3.82071e-37
-1.17977e-35
-1.9728e-39
-2.20978e-36
-6.21004e-39
7.48381e-41
-9.39189e-37
8.90671e-39
-2.40284e-35
3.06536e-37
-2.00249e-34
3.07855e-36
-8.75519e-34
1.58032e-35
-2.20426e-33
5.33326e-35
-3.0582e-33
1.11228e-34
-3.18146e-33
1.45371e-34
-3.51755e-33
1.69767e-34
-5.55157e-33
5.06127e-34
-2.23814e-31
4.60922e-32
-1.95395e-29
4.39254e-30
-1.96745e-27
4.32902e-28
-2.90121e-25
4.75937e-26
-4.20154e-23
5.44575e-24
-1.86985e-21
3.52238e-22
-2.20568e-20
7.18548e-21
5.54645e-20
-1.16769e-19
6.29678e-42
-3.79324e-33
1.32336e-38
-4.81024e-40
3.42797e-38
-1.93055e-37
9.07279e-39
-3.18378e-37
-1.38113e-41
-6.0864e-38
-4.08976e-41
5.98564e-43
-5.65091e-39
6.69272e-41
-1.39256e-37
2.25957e-39
-1.19381e-36
2.2681e-38
-5.85134e-36
1.16019e-37
-1.68524e-35
3.87124e-37
-2.60681e-35
8.03819e-37
-2.96332e-35
1.09111e-36
-3.52641e-35
1.64386e-36
-3.39768e-34
5.01482e-35
-2.75908e-32
6.22718e-33
-2.49513e-30
5.69533e-31
-2.60233e-28
5.89779e-29
-3.97771e-26
6.918e-27
-6.68399e-24
8.73401e-25
-3.60967e-22
6.80901e-23
-5.33457e-21
1.69562e-21
1.62655e-20
-3.6919e-20
-4.38075e-37
-3.28836e-34
2.13039e-40
-7.65948e-39
7.18065e-40
-3.88252e-39
1.95417e-40
-7.89897e-39
-9.49471e-44
-1.53682e-39
-2.68068e-43
4.78142e-45
-3.50007e-41
5.10921e-43
-8.6408e-40
1.71366e-41
-7.51994e-39
1.7514e-40
-3.73659e-38
8.9359e-40
-1.05631e-37
2.89191e-39
-1.53251e-37
5.84665e-39
-2.05965e-37
8.67964e-39
-5.75867e-37
5.95539e-38
-3.26851e-35
7.07101e-36
-2.77898e-33
6.43874e-34
-2.55462e-31
5.7633e-32
-2.77134e-29
6.26801e-30
-4.37336e-27
7.88826e-28
-8.729e-25
1.11469e-25
-5.87301e-23
1.09602e-23
-1.05112e-21
3.38594e-22
3.82231e-21
-1.04972e-20
-1.95535e-37
-2.55258e-35
3.11711e-42
-5.14079e-39
1.39468e-41
-7.40033e-41
3.89899e-42
-1.83215e-40
-6.46414e-46
-3.62033e-41
-1.7596e-45
3.82755e-47
-2.20254e-43
3.95744e-45
-5.48136e-42
1.32124e-43
-4.91581e-41
1.38229e-42
-2.48604e-40
7.27766e-42
-6.80028e-40
2.39469e-41
-1.0021e-39
5.02726e-41
-1.76348e-39
1.21119e-40
-3.4879e-38
6.21407e-39
-2.78087e-36
6.92824e-37
-2.19154e-34
5.17718e-35
-2.00944e-32
4.54032e-33
-2.22957e-30
4.98972e-31
-3.5677e-28
6.65323e-29
-8.7271e-26
1.05571e-26
-7.9981e-24
1.37342e-24
-1.66941e-22
5.46814e-23
6.63694e-22
-2.01098e-21
-2.53489e-38
-1.78166e-36
4.14938e-44
-7.82024e-40
2.5562e-43
-1.35449e-42
7.37353e-44
-4.02145e-42
-4.42537e-48
-8.05397e-43
-1.1755e-47
3.0848e-49
-1.42002e-45
3.11083e-47
-3.56687e-44
1.03615e-45
-3.29869e-43
1.1076e-44
-1.67992e-42
6.01191e-44
-4.03203e-42
2.03665e-43
-7.40272e-42
4.78299e-43
-3.62364e-41
4.71748e-42
-2.4783e-39
5.73425e-40
-1.91271e-37
4.80502e-38
-1.41928e-35
3.58641e-36
-1.22949e-33
2.97273e-34
-1.3267e-31
3.06997e-32
-2.07841e-29
4.15747e-30
-6.1757e-27
7.25498e-28
-8.4697e-25
1.27192e-25
-2.0396e-23
6.93403e-24
8.89695e-23
-2.47571e-22
-2.36833e-39
-1.12051e-37
5.05762e-46
-8.10879e-41
4.53766e-45
-2.40586e-44
1.34635e-45
-8.4282e-44
-3.09935e-50
-1.70795e-44
-8.08997e-50
2.51251e-51
-9.53255e-48
2.48339e-49
-2.4197e-46
8.26002e-48
-2.28896e-45
9.00173e-47
-1.14371e-44
5.01037e-46
-2.50705e-44
1.76635e-45
-6.72883e-44
5.82305e-45
-1.63213e-42
2.98946e-43
-1.46297e-40
3.45475e-41
-1.14771e-38
2.89293e-39
-8.31332e-37
2.29418e-37
-6.49336e-35
1.80668e-35
-6.36048e-33
1.6803e-33
-9.15629e-31
2.15699e-31
-3.09287e-28
3.96176e-29
-6.83243e-26
9.14557e-27
-1.96453e-24
7.14789e-25
9.87808e-24
-2.01515e-23
-1.80198e-40
-6.35121e-39
5.48316e-48
-6.76646e-42
7.86667e-47
-4.18319e-46
2.41091e-47
-1.69915e-45
-2.26325e-52
-3.48151e-46
-5.82682e-52
2.07501e-53
-6.71841e-50
2.01483e-51
-1.72787e-48
6.69342e-50
-1.66083e-47
7.42572e-49
-7.49163e-47
4.22132e-48
-1.87766e-46
1.58665e-47
-1.06579e-45
1.21717e-46
-7.61045e-44
1.55553e-44
-7.41809e-42
1.62414e-42
-6.33965e-40
1.54028e-40
-4.71993e-38
1.3398e-38
-3.4289e-36
1.07702e-36
-2.93714e-34
9.48175e-35
-3.67944e-32
1.12761e-32
-1.28903e-29
2.0953e-30
-4.60805e-27
5.96614e-28
-1.6541e-25
6.4321e-26
9.64729e-25
-1.15513e-24
-1.13897e-41
-3.24291e-40
5.1089e-50
-4.74121e-43
1.34458e-48
-7.16918e-48
4.28739e-49
-3.31665e-47
-1.71789e-54
-6.8689e-48
-4.38872e-54
1.74008e-55
-4.97727e-52
1.66246e-53
-1.29931e-50
5.5169e-52
-1.24758e-49
6.21741e-51
-4.77634e-49
3.6145e-50
-1.62839e-48
1.52516e-49
-2.84962e-47
3.61985e-48
-3.07097e-45
5.60483e-46
-3.2378e-43
6.23158e-44
-3.13004e-41
6.68591e-42
-2.54891e-39
6.67824e-40
-1.88563e-37
5.95627e-38
-1.513e-35
5.55448e-36
-1.70369e-33
6.69034e-34
-5.99789e-31
1.28016e-31
-3.10469e-28
4.10989e-29
-1.36722e-26
5.30455e-27
8.38914e-26
-6.02158e-26
-6.08629e-43
-1.49085e-41
3.23129e-52
-2.85362e-44
2.24602e-50
-1.21702e-49
7.47346e-51
-6.30176e-49
-1.3362e-56
-1.31938e-49
-3.39443e-56
1.48018e-57
-3.80617e-54
1.39447e-55
-1.00372e-52
4.62224e-54
-9.43661e-52
5.28279e-53
-3.41028e-51
3.1532e-52
-1.65689e-50
1.60506e-51
-7.67232e-49
9.23852e-50
-9.77134e-47
1.41705e-47
-1.14744e-44
1.81035e-45
-1.27641e-42
2.24035e-43
-1.19535e-40
2.60513e-41
-9.83654e-39
2.75261e-39
-8.49544e-37
3.03568e-37
-9.90087e-35
4.26796e-35
-3.69361e-32
8.94592e-33
-2.37567e-29
3.02402e-30
-1.18641e-27
3.95954e-28
6.13681e-27
-4.18606e-27
-2.79288e-44
-6.17016e-43
-1.24792e-48
-1.50069e-45
3.62485e-52
-1.52093e-50
1.25985e-52
-1.1702e-50
-1.03976e-58
-2.47795e-51
-2.63296e-58
1.27349e-59
-2.92073e-56
1.18625e-57
-7.77682e-55
3.93192e-56
-7.00342e-54
4.55401e-55
-2.668e-53
2.79485e-54
-1.87312e-52
1.7612e-53
-1.5683e-50
1.59652e-51
-2.26438e-48
2.54831e-49
-3.09705e-46
3.83768e-47
-3.93947e-44
5.52598e-45
-4.27157e-42
7.36314e-43