/*--------------------------------*- C++ -*----------------------------------*\
| =========                 |                                                 |
| \\      /  F ield         | OpenFOAM: The Open Source CFD Toolbox           |
|  \\    /   O peration     | Version:  5.x                                   |
|   \\  /    A nd           | Web:      www.OpenFOAM.org                      |
|    \\/     M anipulation  |                                                 |
\*---------------------------------------------------------------------------*/
FoamFile
{
    version     2.0;
    format      ascii;
    class       volScalarField;
    location    "0.55";
    object      p;
}
// * * * * * * * * * * * * * * * * * * * * * * * * * * * * * * * * * * * * * //

dimensions      [1 -1 -2 0 0 0 0];

internalField   nonuniform List<scalar> 
2268
(
574.884
571.337
572.027
576.798
586.827
599.5
611.651
622.25
632.857
645.321
660.442
678.115
697.899
719.411
742.233
765.765
788.915
809.722
825.802
838.32
827.962
832.783
870.083
515.948
511.627
511.927
516.471
526.417
539.374
551.799
562.552
573.241
585.787
600.913
618.502
638.238
659.725
682.488
705.987
729.384
751.091
768.329
785.65
772.246
762.487
805.996
456.483
451.428
451.044
454.779
464.566
478.011
490.992
502.058
512.904
525.619
540.937
558.718
578.576
600.114
622.794
645.997
668.842
690.578
708.955
725.966
717.961
698.087
745.467
397.21
391.103
389.382
391.794
401.335
415.398
429.302
440.876
451.96
464.906
480.466
498.456
518.481
540.172
562.97
586.176
608.913
630.482
648.957
664.411
663.126
647.446
694.247
338.826
331.024
327.246
327.934
336.737
351.739
366.903
379.126
390.502
403.739
419.587
437.815
458.057
480.01
503.08
526.502
549.467
571.19
589.991
605.457
611.351
610.219
649.384
281.684
272.3
265.256
264.043
272.339
288.194
304.297
316.962
328.574
342.121
358.335
376.799
397.275
419.606
443.115
466.921
490.307
512.499
532.055
548.561
559.94
567.501
604.056
226.082
215.181
203.903
201.009
209.591
225.752
241.665
254.263
266.133
280.017
296.615
315.528
336.354
359.155
383.193
407.464
431.38
454.212
474.646
492.226
506.479
518.566
546.594
171.792
160.393
141.308
135.069
145.13
162.235
177.671
189.947
202.583
217.32
234.28
253.524
274.536
298.041
323.052
348.056
372.807
396.514
417.78
436.22
451.434
466.302
482.605
883.926
919.933
873.16
636.001
554.167
551.549
563.588
401.704
271.915
210.68
211.006
225.006
239.08
258.22
274.506
307.159
604.662
1281.19
1406.74
826.131
898.709
837.081
586.487
546.104
541.978
507.643
248.313
205.909
200.732
199.555
200.985
205.338
211.202
217.501
229.833
414.074
1099.5
1331.38
729.486
809.262
715.604
554.358
542.416
510.191
354.449
220.623
203.892
200.533
199.55
201.095
204.005
206.915
208.872
210.626
273.178
706.228
1219.22
608.163
618.833
587.064
523.723
540.57
460.596
255.569
210.041
202.968
199.917
198.997
200.877
204.117
206.875
208.498
209.635
233.936
392.097
1076.49
443.917
464.436
497.769
468.15
535.044
365.783
217.724
206.33
202.099
199.035
198.107
200.234
203.922
206.929
208.623
209.466
217.569
259.474
906.61
333.84
358.439
424.767
391.648
500.081
267.905
205.837
204.757
200.793
197.63
196.72
199.106
203.463
206.913
208.611
209.49
211.016
220.486
704.672
213.619
288.487
373.137
349.471
444.051
226.532
204.451
203.739
199.181
195.949
194.938
197.377
202.555
206.713
208.606
209.415
209.699
213.759
507.757
72.5075
250.12
343.452
329.829
366.093
203.392
202.942
202.532
197.567
194.259
193.015
194.948
200.883
206.3
208.564
209.055
209.718
210.35
350.889
90.3488
79.5514
53.5873
44.8133
56.0562
72.2789
83.2025
91.2278
102.529
118.302
136.82
157.007
178.54
203.528
229.701
255.41
281.205
306.404
329.08
348.866
362.387
365.293
327.91
18.2883
9.17663
2.31647
1.88737
5.3384
10.3325
12.7761
14.4428
17.8106
23.4031
31.0066
41.3909
55.2872
75.0834
101.147
129.039
158.49
186.607
211.014
234.253
256.557
274.531
292.599
-0.0540321
-0.1019
-0.0725359
-0.0697551
-0.083121
-0.0902245
-0.108252
-0.128752
-0.134737
-0.102678
-0.0234608
0.243927
3.01108
8.85772
18.4941
32.9334
52.0281
72.8973
94.75
120.475
141.635
154.254
161.908
-0.175219
-0.197887
-0.201617
-0.248728
-0.286939
-0.293065
-0.325482
-0.34715
-0.345301
-0.335727
-0.348371
-0.365641
-0.410154
-0.394604
-0.22813
0.423707
2.70963
9.24084
20.6835
36.1473
54.9733
64.4113
72.5999
-0.317632
-0.329128
-0.351876
-0.384379
-0.393072
-0.412167
-0.442723
-0.466825
-0.488115
-0.506625
-0.526646
-0.562071
-0.587765
-0.522332
-0.429308
-0.384619
-0.367116
-0.362703
-0.341191
-0.0906213
1.2883
5.1185
9.10434
-0.498605
-0.505695
-0.510052
-0.533087
-0.547679
-0.559249
-0.574798
-0.590472
-0.600646
-0.605471
-0.616807
-0.634915
-0.642415
-0.630323
-0.594665
-0.579446
-0.572874
-0.55365
-0.502385
-0.433621
-0.389757
-0.279873
-0.181725
-0.651877
-0.656408
-0.664829
-0.680403
-0.691851
-0.703648
-0.717665
-0.732069
-0.744723
-0.75725
-0.76377
-0.771677
-0.768205
-0.754423
-0.725667
-0.700137
-0.684062
-0.662699
-0.629103
-0.606814
-0.600869
-0.55622
-0.537773
-0.809441
-0.812669
-0.818096
-0.827994
-0.83699
-0.846393
-0.856351
-0.865608
-0.872546
-0.875766
-0.88176
-0.886829
-0.885447
-0.877578
-0.862348
-0.844919
-0.830924
-0.811606
-0.790257
-0.778301
-0.772935
-0.766725
-0.774567
-0.962716
-0.964658
-0.968359
-0.975448
-0.982296
-0.989622
-0.997309
-1.005
-1.01235
-1.01966
-1.02037
-1.01986
-1.01507
-1.00763
-0.996319
-0.983197
-0.971728
-0.957689
-0.946459
-0.941599
-0.951342
-0.973527
-1.01814
-1.11339
-1.11453
-1.11719
-1.1221
-1.12726
-1.13281
-1.13842
-1.14369
-1.14782
-1.14973
-1.15296
-1.15275
-1.14914
-1.14286
-1.1342
-1.12397
-1.11444
-1.10461
-1.09827
-1.09799
-1.11097
-1.14955
-1.20785
-1.26199
-1.26269
-1.2646
-1.26809
-1.27189
-1.27601
-1.28009
-1.28379
-1.28674
-1.28869
-1.28938
-1.28832
-1.28511
-1.28003
-1.2732
-1.26584
-1.25847
-1.25168
-1.24798
-1.25013
-1.26488
-1.30363
-1.34995
-1.40905
-1.40955
-1.41097
-1.41348
-1.41628
-1.41932
-1.4223
-1.4249
-1.42685
-1.42796
-1.428
-1.4267
-1.42392
-1.41982
-1.41466
-1.40902
-1.40332
-1.39828
-1.39563
-1.3983
-1.41272
-1.44534
-1.4882
-1.55508
-1.55547
-1.55657
-1.5584
-1.56049
-1.56274
-1.56491
-1.56678
-1.56813
-1.56877
-1.56852
-1.56728
-1.56501
-1.56178
-1.55785
-1.55354
-1.54922
-1.54543
-1.54326
-1.54501
-1.55549
-1.57886
-1.61216
-1.70038
-1.70072
-1.7016
-1.70297
-1.70456
-1.70626
-1.7079
-1.7093
-1.7103
-1.71073
-1.71049
-1.70951
-1.70779
-1.70541
-1.70253
-1.6994
-1.6963
-1.69366
-1.6921
-1.69294
-1.69865
-1.71142
-1.73029
-1.84517
-1.84549
-1.84622
-1.84728
-1.84853
-1.84987
-1.85117
-1.8523
-1.85313
-1.85355
-1.85349
-1.8529
-1.8518
-1.85026
-1.84842
-1.84646
-1.84462
-1.84323
-1.84272
-1.8438
-1.84744
-1.85428
-1.86396
-1.98959
-1.98989
-1.99052
-1.99139
-1.99242
-1.99354
-1.99466
-1.99567
-1.99648
-1.99702
-1.99723
-1.99712
-1.99669
-1.99602
-1.99524
-1.99448
-1.99397
-1.99397
-1.99486
-1.9972
-2.00166
-2.00858
-2.01808
-2.13374
-2.13403
-2.13458
-2.13533
-2.13623
-2.13724
-2.13828
-2.13928
-2.14019
-2.14094
-2.14152
-2.14192
-2.14219
-2.1424
-2.14267
-2.14314
-2.144
-2.14551
-2.14797
-2.15182
-2.15755
-2.1657
-2.1763
-2.27765
-2.27792
-2.27843
-2.27912
-2.27997
-2.28094
-2.28198
-2.28306
-2.28412
-2.28514
-2.28613
-2.28708
-2.28807
-2.28916
-2.29047
-2.29215
-2.29438
-2.29743
-2.30159
-2.30729
-2.31502
-2.32494
-2.33791
-2.42135
-2.42161
-2.42209
-2.42276
-2.4236
-2.42459
-2.4257
-2.42689
-2.42816
-2.4295
-2.4309
-2.43242
-2.4341
-2.43604
-2.43836
-2.44121
-2.44477
-2.44929
-2.45507
-2.46248
-2.47198
-2.48399
-2.49921
-2.56484
-2.56509
-2.56556
-2.56624
-2.56711
-2.56815
-2.56936
-2.57071
-2.57221
-2.57387
-2.5757
-2.57775
-2.5801
-2.58284
-2.58609
-2.59
-2.59478
-2.60064
-2.60789
-2.61689
-2.62809
-2.64194
-2.65906
-2.70812
-2.70837
-2.70884
-2.70955
-2.71046
-2.71158
-2.7129
-2.71443
-2.71618
-2.71815
-2.72039
-2.72295
-2.72591
-2.72937
-2.73346
-2.73832
-2.74417
-2.75122
-2.75975
-2.77013
-2.78276
-2.79808
-2.81665
-2.85119
-2.85144
-2.85192
-2.85266
-2.85363
-2.85484
-2.85629
-2.858
-2.85997
-2.86224
-2.86486
-2.86787
-2.87138
-2.87547
-2.88029
-2.88598
-2.89273
-2.90077
-2.91037
-2.92185
-2.9356
-2.95201
-2.97157
-2.99404
-2.99428
-2.99478
-2.99556
-2.99659
-2.99789
-2.99947
-3.00134
-3.00352
-3.00606
-3.00901
-3.01242
-3.01639
-3.02102
-3.02645
-3.03281
-3.0403
-3.04913
-3.05955
-3.07186
-3.0864
-3.10352
-3.12365
-3.13666
-3.1369
-3.13741
-3.13823
-3.13932
-3.1407
-3.14239
-3.1444
-3.14677
-3.14954
-3.15277
-3.15651
-3.16086
-3.16592
-3.17183
-3.17872
-3.18676
-3.19617
-3.20717
-3.22003
-3.23505
-3.25255
-3.27288
-3.27903
-3.27926
-3.27979
-3.28064
-3.28178
-3.28324
-3.28502
-3.28716
-3.28968
-3.29263
-3.29607
-3.30007
-3.30471
-3.3101
-3.31636
-3.32362
-3.33205
-3.34183
-3.35318
-3.36634
-3.38156
-3.39912
-3.41932
-3.42115
-3.42137
-3.4219
-3.42279
-3.42396
-3.42547
-3.42733
-3.42956
-3.43219
-3.43528
-3.43889
-3.44307
-3.44791
-3.45352
-3.46
-3.46749
-3.47613
-3.4861
-3.49758
-3.51079
-3.52596
-3.5433
-3.5631
-3.563
-3.56321
-3.56374
-3.56464
-3.56584
-3.56738
-3.56929
-3.57158
-3.57429
-3.57747
-3.58117
-3.58546
-3.59042
-3.59614
-3.60273
-3.61031
-3.61901
-3.62899
-3.64041
-3.65346
-3.66834
-3.68523
-3.70437
-3.70456
-3.70477
-3.70528
-3.70619
-3.70739
-3.70896
-3.71089
-3.71321
-3.71595
-3.71917
-3.72291
-3.72724
-3.73222
-3.73796
-3.74455
-3.75209
-3.7607
-3.77053
-3.78172
-3.79443
-3.80882
-3.82506
-3.84333
-3.84583
-3.84606
-3.84653
-3.84744
-3.84863
-3.85019
-3.85211
-3.85443
-3.85717
-3.86038
-3.8641
-3.86839
-3.87333
-3.879
-3.88548
-3.89286
-3.90127
-3.91081
-3.92161
-3.93382
-3.94755
-3.96296
-3.98019
-3.98677
-3.98707
-3.98747
-3.98838
-3.98954
-3.99107
-3.99297
-3.99525
-3.99795
-4.0011
-4.00475
-4.00895
-4.01377
-4.01928
-4.02556
-4.0327
-4.04078
-4.04991
-4.0602
-4.07175
-4.0847
-4.09913
-4.11517
-4.1274
-4.12777
-4.1281
-4.12901
-4.13012
-4.13161
-4.13345
-4.13567
-4.13829
-4.14134
-4.14486
-4.14892
-4.15356
-4.15885
-4.16485
-4.17165
-4.17931
-4.18793
-4.1976
-4.2084
-4.22044
-4.23378
-4.24852
-4.26775
-4.26815
-4.26843
-4.26933
-4.27038
-4.27181
-4.27357
-4.27569
-4.2782
-4.28111
-4.28447
-4.28833
-4.29273
-4.29774
-4.3034
-4.30978
-4.31696
-4.32499
-4.33395
-4.34392
-4.35496
-4.36714
-4.3805
-4.40783
-4.40823
-4.40846
-4.40934
-4.41032
-4.41168
-4.41334
-4.41535
-4.4177
-4.42044
-4.4236
-4.42721
-4.43133
-4.436
-4.44127
-4.44718
-4.4538
-4.46118
-4.46938
-4.47845
-4.48845
-4.4994
-4.51135
-4.54764
-4.54801
-4.54822
-4.54907
-4.54997
-4.55125
-4.55279
-4.55464
-4.55683
-4.55936
-4.56228
-4.56562
-4.56941
-4.57369
-4.57851
-4.58391
-4.58992
-4.5966
-4.604
-4.61213
-4.62105
-4.63076
-4.64127
-4.68721
-4.68754
-4.68774
-4.68855
-4.68935
-4.69053
-4.69193
-4.69362
-4.6956
-4.69791
-4.70055
-4.70358
-4.707
-4.71087
-4.7152
-4.72003
-4.7254
-4.73135
-4.7379
-4.74508
-4.7529
-4.76137
-4.77046
-4.82656
-4.82683
-4.82704
-4.82778
-4.82849
-4.82955
-4.83079
-4.83229
-4.83405
-4.8361
-4.83845
-4.84113
-4.84416
-4.84756
-4.85137
-4.85561
-4.86031
-4.8655
-4.87119
-4.8774
-4.88412
-4.89136
-4.89906
-4.96569
-4.96588
-4.96615
-4.9668
-4.96739
-4.96833
-4.96939
-4.97069
-4.97221
-4.97397
-4.976
-4.9783
-4.98091
-4.98383
-4.98708
-4.9907
-4.99471
-4.99912
-5.00394
-5.00917
-5.01481
-5.02084
-5.02721
-5.10468
-5.10482
-5.10508
-5.10563
-5.10612
-5.10691
-5.10779
-5.10887
-5.11013
-5.1116
-5.11328
-5.11519
-5.11734
-5.11976
-5.12244
-5.12542
-5.12871
-5.13233
-5.13627
-5.14053
-5.1451
-5.14997
-5.15507
-5.24358
-5.24367
-5.2439
-5.24435
-5.24472
-5.24536
-5.24605
-5.2469
-5.24789
-5.24905
-5.25037
-5.25187
-5.25355
-5.25544
-5.25755
-5.25987
-5.26245
-5.26526
-5.26833
-5.27163
-5.27516
-5.27889
-5.28278
-5.38241
-5.38244
-5.38262
-5.38295
-5.38321
-5.38369
-5.38418
-5.38479
-5.38551
-5.38634
-5.38729
-5.38837
-5.38958
-5.39093
-5.39244
-5.39411
-5.39596
-5.39798
-5.40017
-5.40252
-5.40503
-5.40767
-5.41041
-5.52112
-5.52112
-5.52124
-5.52144
-5.5216
-5.52188
-5.52217
-5.52255
-5.52298
-5.52348
-5.52405
-5.5247
-5.52543
-5.52625
-5.52715
-5.52816
-5.52927
-5.53049
-5.5318
-5.53321
-5.53471
-5.53629
-5.53792
-5.65975
-5.65974
-5.65979
-5.65985
-5.65991
-5.66
-5.6601
-5.66022
-5.66037
-5.66053
-5.66073
-5.66094
-5.66119
-5.66146
-5.66176
-5.6621
-5.66247
-5.66287
-5.66331
-5.66378
-5.66428
-5.6648
-5.66534
218.084
227.718
256.368
248.543
290.292
285.159
278.743
274.007
162.443
163.64
167.844
174.457
80.1463
87.2548
97.1654
107.455
12.1027
14.9816
19.8825
27.6243
-0.223787
-0.292225
-0.336249
-0.197839
-0.552176
-0.622477
-0.706707
-0.757214
-0.804706
-0.831333
-0.860201
-0.867907
-1.05345
-1.06434
-1.05851
-1.0209
-1.24555
-1.2539
-1.25806
-1.19996
-1.36773
-1.37156
-1.3633
-1.32585
-1.50807
-1.5133
-1.50646
-1.4826
-1.63909
-1.65381
-1.66093
-1.65548
-1.74585
-1.75556
-1.76496
-1.77331
-1.87269
-1.87949
-1.88543
-1.89187
-2.02719
-2.03314
-2.04096
-2.05025
-2.18663
-2.19431
-2.20358
-2.21489
-2.35059
-2.36
-2.37082
-2.38327
-2.51367
-2.52425
-2.53626
-2.54979
-2.67483
-2.68616
-2.69882
-2.71289
-2.83334
-2.84515
-2.85817
-2.87246
-2.98879
-3.00085
-3.01399
-3.02828
-3.1411
-3.1532
-3.16627
-3.18036
-3.29027
-3.30225
-3.31509
-3.32885
-3.43642
-3.44813
-3.46062
-3.47392
-3.5797
-3.59102
-3.60303
-3.61577
-3.7203
-3.73112
-3.74256
-3.75465
-3.85844
-3.86868
-3.87945
-3.89079
-3.99435
-4.00392
-4.01396
-4.02449
-4.12829
-4.13713
-4.14638
-4.15604
-4.26051
-4.26857
-4.27699
-4.28575
-4.39131
-4.39855
-4.4061
-4.41393
-4.52094
-4.52734
-4.534
-4.54089
-4.64964
-4.65521
-4.66097
-4.66691
-4.77763
-4.78237
-4.78725
-4.79227
-4.90508
-4.90904
-4.91308
-4.91722
-5.03214
-5.03536
-5.03863
-5.04195
-5.15897
-5.16151
-5.16407
-5.16665
-5.28573
-5.28765
-5.28956
-5.29148
-5.41247
-5.4138
-5.41513
-5.41644
-5.53914
-5.53993
-5.5407
-5.54147
-5.66574
-5.666
-5.66626
-5.66651
190.543
254.143
309.494
268.356
198.421
183.57
201.005
198.255
194.959
192.113
190.652
191.854
197.08
204.615
208.307
208.475
209.56
206.328
223.366
252.51
249.844
268.275
221.268
159.966
196.476
203.338
196.43
192.899
191.387
190.556
191.752
195.1
199.931
207.295
207.954
209.411
206.959
208.824
184.557
200.218
223.749
211.496
181.854
212.162
208.612
201.543
195.78
193.475
192.738
193.872
196.059
201.726
204.808
207.885
209.225
207.235
211.157
121.056
141.238
177.094
211.93
201.777
216.133
211.851
206.182
201.515
197.964
196.24
196.764
198.589
202.512
203.701
208.637
209.417
210.272
238.426
44.3217
62.5925
109.142
211.935
213.487
217.353
212.826
208.375
204.375
202.278
200.868
200.041
201.617
204.942
211.464
211.416
211.408
219.264
285.755
0.41724
8.22516
32.894
144.253
208.945
215.594
211.2
208.847
206.84
206.189
205.991
205.251
206.006
208.811
213.494
215.611
218.2
237.279
353.558
-0.80314
-0.889862
2.029
34.2352
176.929
209.436
209.279
208.538
208.6
209.958
210.933
211.009
211.337
212.215
214.05
217.528
221.059
295.061
464.175
-0.852708
-0.80148
-0.864336
2.89242
47.8257
146.354
180.485
203.564
209.983
212.391
214.581
215.6
216.049
215.162
215.974
219.31
258.782
403.875
602.715
-0.930849
-0.848664
-0.72829
-0.744156
2.47435
32.7927
103.386
160.059
188.845
213.389
219.68
220.032
220.11
219.207
215.856
241.177
323.092
472.7
670.836
-1.06406
-0.934803
-0.87504
-0.75608
-0.660414
0.418619
16.7632
56.3126
116.685
190.051
211.763
214.282
197.576
182.937
212.69
259.357
301.159
415.216
596.824
-1.22273
-1.13324
-1.06282
-1.02632
-0.903464
-1.36281
-2.12602
2.74171
15.7456
63.4355
174.918
315.459
427.483
406.126
270.27
225.163
241.859
311.64
412.399
-1.42601
-1.35607
-1.25351
-1.09762
-1.15378
-1.5413
-2.65321
-5.38523
-6.79325
11.9152
130.42
376.244
467.198
357.75
248.131
183.184
185.46
242.924
302.379
-1.63423
-1.60468
-1.56113
-1.50441
-1.5904
-1.87121
-2.55677
-4.09693
-5.75706
-1.98091
14.1743
48.8843
71.9684
179.678
210.248
179.68
184.942
211.261
252.185
-1.78077
-1.77555
-1.77
-1.81175
-2.01354
-2.34359
-2.69204
-3.12865
-3.41125
-2.32335
-0.668424
0.445931
5.40125
22.9665
121.185
156.037
179.701
203.248
219.499
-1.90489
-1.92534
-1.94978
-2.01469
-2.1852
-2.428
-2.67512
-2.97382
-3.17298
-2.76472
-1.61355
-0.952494
-0.294585
2.04101
24.0429
76.6014
123.952
164.392
183.816
-2.06645
-2.09624
-2.13772
-2.20512
-2.32799
-2.50298
-2.70216
-2.91605
-3.05131
-2.93797
-2.33896
-1.66428
-1.35028
-0.675134
1.61857
13.2293
52.5475
111.496
153.75
-2.23638
-2.27443
-2.32419
-2.39214
-2.48945
-2.61776
-2.76112
-2.8915
-2.95432
-2.85684
-2.51317
-2.16168
-1.882
-1.50938
-1.48849
0.942459
21.2406
89.4626
136.983
-2.40675
-2.44904
-2.50177
-2.5669
-2.64824
-2.74568
-2.84923
-2.93645
-2.96411
-2.8958
-2.70233
-2.46576
-2.23085
-2.2584
-2.98401
1.15767
30.4093
108.442
131.964
-2.5748
-2.61858
-2.67144
-2.73269
-2.80283
-2.88134
-2.96259
-3.03279
-3.0757
-3.04691
-2.93998
-2.85011
-2.84149
-2.88846
-2.23051
6.8979
33.4802
90.975
134.91
-2.73871
-2.78278
-2.83471
-2.89282
-2.9563
-3.0252
-3.09811
-3.17001
-3.23504
-3.2736
-3.28678
-3.40638
-3.6018
-3.82358
-4.03448
-2.90238
12.5088
60.972
116.398
-2.89842
-2.94192
-2.99245
-3.04826
-3.10814
-3.17268
-3.24374
-3.32229
-3.41193
-3.51988
-3.6548
-3.97551
-4.33892
-4.57132
-4.6664
-4.3084
-0.00247168
31.6899
94.3182
-3.05402
-3.09643
-3.14526
-3.19909
-3.25677
-3.31907
-3.38934
-3.47217
-3.57649
-3.7223
-3.93417
-4.37444
-4.81801
-5.07271
-5.0957
-4.90328
-3.39802
4.62778
81.3938
-3.20561
-3.24661
-3.2935
-3.34529
-3.40104
-3.46144
-3.53005
-3.61191
-3.72077
-3.87864
-4.12151
-4.55083
-5.0106
-5.27185
-5.24274
-5.03079
-4.34425
-2.46112
53.5376
-3.35336
-3.39274
-3.43749
-3.487
-3.54058
-3.59858
-3.66318
-3.74234
-3.84455
-3.98922
-4.20794
-4.57632
-4.97267
-5.20813
-5.15672
-4.97614
-4.35376
-2.71198
33.8269
-3.49751
-3.53506
-3.57749
-3.62449
-3.67565
-3.73142
-3.79192
-3.86593
-3.95668
-4.07642
-4.24574
-4.51312
-4.79865
-4.97197
-4.92656
-4.78986
-4.36393
-3.51033
2.63161
-3.63828
-3.67382
-3.71374
-3.75798
-3.80641
-3.85939
-3.91855
-3.98708
-4.06645
-4.16024
-4.27475
-4.42944
-4.57957
-4.63746
-4.60022
-4.51612
-4.1342
-2.89413
-1.103
-3.77593
-3.80929
-3.8465
-3.88772
-3.93331
-3.98425
-4.04194
-4.10666
-4.17702
-4.25088
-4.32037
-4.38248
-4.41861
-4.40168
-4.35398
-4.28231
-3.88081
-2.15963
-0.431314
-3.91071
-3.94172
-3.97606
-4.01394
-4.05635
-4.10538
-4.16144
-4.22282
-4.28599
-4.34732
-4.38786
-4.39184
-4.3545
-4.29143
-4.24798
-4.12345
-3.70008
-2.69835
-3.04507
-4.04293
-4.07147
-4.10282
-4.13714
-4.17585
-4.22207
-4.27562
-4.33225
-4.38838
-4.44102
-4.46752
-4.44791
-4.3822
-4.323
-4.26201
-4.2508
-3.42262
-3.28074
-2.83445
-4.17292
-4.1989
-4.22726
-4.25806
-4.29255
-4.33452
-4.38343
-4.43242
-4.47944
-4.52514
-4.54781
-4.53099
-4.46856
-4.48341
-4.3507
-4.40863
-3.23169
-3.30691
-1.25463
-4.30101
-4.32438
-4.34975
-4.37722
-4.40725
-4.44308
-4.48454
-4.52416
-4.5611
-4.59682
-4.61954
-4.62525
-4.58163
-4.69799
-4.66408
-4.59259
-3.04811
-2.91962
-0.383386
-4.42753
-4.44824
-4.4706
-4.49481
-4.52084
-4.54918
-4.5798
-4.60846
-4.63407
-4.65916
-4.68228
-4.70746
-4.71531
-4.84092
-5.14863
-4.79895
-2.79529
-2.2026
1.87589
-4.55281
-4.5708
-4.59014
-4.61098
-4.63325
-4.65482
-4.67333
-4.68841
-4.703
-4.72047
-4.74413
-4.77657
-4.79738
-4.84875
-4.95345
-4.81833
-3.6429
-2.6524
2.19637
-4.67715
-4.69241
-4.70864
-4.72587
-4.74404
-4.76076
-4.77086
-4.7744
-4.7773
-4.78975
-4.81454
-4.84763
-4.86129
-4.86433
-4.86308
-4.92227
-5.10448
-5.01103
-0.460662
-4.80087
-4.81348
-4.8266
-4.84004
-4.85347
-4.86582
-4.87297
-4.87261
-4.86548
-4.87197
-4.89434
-4.92129
-4.93087
-4.91893
-4.94156
-5.06799
-5.25211
-7.20756
-7.30036
-4.92425
-4.93438
-4.94458
-4.95452
-4.96369
-4.97154
-4.97615
-4.97544
-4.96906
-4.96772
-4.97959
-4.99436
-4.9973
-4.98202
-4.97104
-5.0676
-5.11218
-6.77241
18.2768
-5.04755
-5.05544
-5.06309
-5.07016
-5.07608
-5.08036
-5.08221
-5.08033
-5.07459
-5.07057
-5.07235
-5.0735
-5.06607
-5.04545
-4.98805
-5.04826
-5.02276
-3.36067
7.90962
-5.17097
-5.17693
-5.18245
-5.18731
-5.19091
-5.19272
-5.19261
-5.189
-5.18272
-5.17756
-5.17307
-5.16409
-5.14768
-5.1224
-5.06584
-5.12871
-4.78192
-5.11671
-1.75649
-5.29466
-5.29896
-5.30277
-5.30597
-5.30792
-5.30823
-5.3071
-5.30268
-5.29651
-5.29041
-5.28207
-5.26633
-5.24635
-5.22382
-5.22692
-5.29802
-5.08313
-5.45101
-6.22926
-5.41861
-5.42151
-5.42395
-5.42588
-5.42677
-5.42642
-5.42486
-5.42067
-5.41586
-5.41064
-5.4026
-5.38648
-5.36961
-5.34008
-5.3778
-5.41927
-5.38149
-5.19674
-5.59265
-5.54273
-5.54439
-5.54572
-5.54671
-5.547
-5.54657
-5.5453
-5.54277
-5.54
-5.53731
-5.53336
-5.52328
-5.51464
-5.48354
-5.51353
-5.42925
-5.40134
-5.25708
-4.44647
-5.66692
-5.66745
-5.66786
-5.66813
-5.66815
-5.66795
-5.66747
-5.66656
-5.66644
-5.66726
-5.66849
-5.66829
-5.67412
-5.67697
-5.72425
-5.69427
-5.54341
-5.83827
-5.28955
)
;

boundaryField
{
    leftWall
    {
        type            calculated;
        value           nonuniform List<scalar> 
50
(
574.884
515.948
456.483
397.21
338.826
281.684
226.082
171.792
90.3488
18.2883
-0.0540321
-0.175219
-0.317632
-0.498605
-0.651877
-0.809441
-0.962716
-1.11339
-1.26199
-1.40905
-1.55508
-1.70038
-1.84517
-1.98959
-2.13374
-2.27765
-2.42135
-2.56484
-2.70812
-2.85119
-2.99404
-3.13666
-3.27903
-3.42115
-3.563
-3.70456
-3.84583
-3.98677
-4.1274
-4.26775
-4.40783
-4.54764
-4.68721
-4.82656
-4.96569
-5.10468
-5.24358
-5.38241
-5.52112
-5.65975
)
;
    }
    rightWall
    {
        type            calculated;
        value           nonuniform List<scalar> 
50
(
1406.74
1331.38
1219.22
1076.49
906.61
704.672
507.757
350.889
223.366
208.824
211.157
238.426
285.755
353.558
464.175
602.715
670.836
596.824
412.399
302.379
252.185
219.499
183.816
153.75
136.983
131.964
134.91
116.398
94.3182
81.3938
53.5376
33.8269
2.63161
-1.103
-0.431314
-3.04507
-2.83445
-1.25463
-0.383386
1.87589
2.19637
-0.460662
-7.30036
18.2768
7.90962
-1.75649
-6.22926
-5.59265
-4.44647
-5.28955
)
;
    }
    lowerWall
    {
        type            calculated;
        value           nonuniform List<scalar> 
62
(
604.313
600.766
601.457
606.228
616.256
628.929
641.08
651.679
662.286
674.75
689.871
707.544
727.329
748.84
771.662
795.195
818.344
839.151
855.003
863.807
854.185
862.213
899.513
870.083
805.996
745.467
694.247
649.384
604.056
546.594
482.605
280.681
290.315
318.965
311.14
883.926
826.131
729.486
608.163
443.917
333.84
213.619
72.5075
893.766
927.606
878.924
641.191
556.129
551.578
564.98
414.962
285.107
218.39
219.939
242.576
260.58
281.488
299.357
333.452
631.948
1308.88
1430.54
)
;
    }
    atmosphere
    {
        type            calculated;
        value           nonuniform List<scalar> 
46
(
-5.72904
-5.72904
-5.72904
-5.72904
-5.72904
-5.72904
-5.72904
-5.72904
-5.72904
-5.72904
-5.72904
-5.72904
-5.72904
-5.72904
-5.72904
-5.72904
-5.72904
-5.72904
-5.72904
-5.72904
-5.72904
-5.72904
-5.72904
-5.72904
-5.72904
-5.72904
-5.72904
-5.72904
-5.72904
-5.72904
-5.72904
-5.72904
-5.72904
-5.72904
-5.7291
-5.73052
-5.7335
-5.73801
-5.74381
-5.76116
-5.78415
-5.87373
-5.78726
-5.90225
-6.73643
-5.72904
)
;
    }
    defaultFaces
    {
        type            empty;
    }
}


// ************************************************************************* //
