/*--------------------------------*- C++ -*----------------------------------*\
| =========                 |                                                 |
| \\      /  F ield         | OpenFOAM: The Open Source CFD Toolbox           |
|  \\    /   O peration     | Version:  5.x                                   |
|   \\  /    A nd           | Web:      www.OpenFOAM.org                      |
|    \\/     M anipulation  |                                                 |
\*---------------------------------------------------------------------------*/
FoamFile
{
    version     2.0;
    format      ascii;
    class       volScalarField;
    location    "0.55";
    object      p_rgh;
}
// * * * * * * * * * * * * * * * * * * * * * * * * * * * * * * * * * * * * * //

dimensions      [1 -1 -2 0 0 0 0];

internalField   nonuniform List<scalar> 
2268
(
604.313
600.766
601.457
606.228
616.256
628.929
641.08
651.679
662.286
674.75
689.871
707.544
727.329
748.84
771.662
795.195
818.344
839.151
855.003
863.807
854.185
862.213
899.513
604.236
599.915
600.215
604.759
614.705
627.662
640.087
650.84
661.529
674.075
689.201
706.79
726.526
748.013
770.776
794.275
817.672
839.379
856.617
868.266
849.843
850.747
894.164
603.63
598.575
598.191
601.926
611.713
625.157
638.139
649.204
660.051
672.766
688.084
705.865
725.723
747.261
769.941
793.144
815.989
837.725
856.102
873.085
847.313
843.391
891.938
603.215
597.109
595.388
597.799
607.34
621.403
635.307
646.882
657.966
670.912
686.472
704.462
724.487
746.178
768.975
792.182
814.919
836.487
854.962
870.416
863.449
852.615
900.126
603.69
595.888
592.111
592.798
601.601
616.604
631.767
643.99
655.366
668.604
684.451
702.679
722.922
744.875
767.944
791.366
814.332
836.054
854.855
870.321
876.216
875.072
914.248
605.407
596.023
588.979
587.766
596.062
611.917
628.02
640.685
652.297
665.844
682.058
700.522
720.998
743.329
766.838
790.644
814.03
836.222
855.778
872.284
883.663
891.224
927.774
608.664
597.763
586.485
583.59
592.172
608.333
624.246
636.844
648.715
662.598
679.196
698.11
718.935
741.736
765.775
790.046
813.962
836.794
857.227
874.808
889.06
901.148
929.139
613.232
601.832
582.737
576.484
586.54
603.651
619.098
631.383
644.022
658.76
675.72
694.964
715.977
739.482
764.492
789.496
814.247
837.954
859.221
877.661
892.874
907.742
923.997
893.766
927.606
878.924
641.191
556.129
551.578
564.98
414.962
285.107
218.39
219.939
242.576
260.58
281.488
299.357
333.452
631.948
1308.88
1430.54
882.081
918.113
856.602
591.367
547.017
542.707
515.654
258.715
206.81
200.822
199.645
201.158
209.38
221.52
233.915
256.523
460.19
1171.43
1415.08
817.996
925.815
852.093
567.14
544.335
511.831
367.55
220.797
204.042
200.682
199.7
201.245
204.157
207.076
209.081
211.078
277.356
776.805
1358.92
787.741
824.839
793.07
544.446
543.854
463.504
269.799
210.252
203.177
200.126
199.206
201.086
204.327
207.086
208.714
209.921
234.683
428.616
1242.97
708.781
729.301
762.633
654.713
542.903
376.377
228.087
206.599
202.367
199.303
198.375
200.503
204.192
207.201
208.893
209.733
217.96
290.988
1157.1
657.563
682.162
748.49
715.371
524.241
278.513
213.371
205.086
201.122
197.958
197.054
199.436
203.796
207.243
208.939
209.817
211.342
245.389
1028.01
596.201
671.069
755.719
726.588
496.647
231.792
207.547
204.128
199.57
196.338
195.395
197.872
203
207.116
208.995
209.802
210.088
226.427
855
513.948
691.561
784.892
757.373
503.643
208.119
205.154
204.903
198.016
194.709
193.492
195.8
201.859
206.849
209.034
209.505
210.171
217.615
722.793
609.946
555.922
461.933
401.71
425.526
483.028
540.51
577.305
609.615
641.582
668.535
690.454
712.007
736.995
763.169
788.877
814.672
839.871
862.547
882.333
895.854
898.76
861.375
209.329
106.049
24.4669
21.067
64.3528
120.844
148.186
167.688
206.937
269.688
349.798
445.45
556.03
668.142
759.808
787.701
817.152
845.269
869.675
892.914
915.218
933.193
951.26
0.729824
0.681957
0.711336
0.714101
0.700735
0.693632
0.675604
0.655104
0.649119
0.681179
0.7604
7.86403
53.9764
128.68
251.745
418.49
622.318
829.333
878.606
904.307
925.491
938.11
945.763
0.733831
0.711167
0.707532
0.660323
0.622112
0.615985
0.583569
0.561901
0.56375
0.573324
0.56068
0.543416
0.499003
0.516093
0.685208
11.9346
48.3151
152.527
326.485
551.642
775.19
877.834
903.945
0.716614
0.705117
0.68237
0.649866
0.641173
0.622079
0.591522
0.56742
0.546132
0.527621
0.5076
0.472178
0.457747
0.532565
0.610112
0.65437
0.671777
0.676286
0.698049
0.949347
29.4657
97.8918
165.733
0.660835
0.653745
0.649387
0.626353
0.611761
0.60019
0.584642
0.568968
0.558818
0.554086
0.542736
0.524529
0.523189
0.597643
0.633519
0.60715
0.591722
0.611365
0.662683
0.731565
0.776098
0.888815
0.989864
0.632757
0.628226
0.619805
0.604231
0.592783
0.580986
0.56697
0.552566
0.539943
0.527601
0.52108
0.513115
0.516589
0.530319
0.562291
0.584497
0.606217
0.629634
0.670947
0.755743
0.910854
0.992398
0.897392
0.600388
0.59716
0.591733
0.581835
0.572839
0.563436
0.553478
0.544221
0.537285
0.534171
0.528304
0.523146
0.524532
0.532415
0.547481
0.56491
0.578905
0.598223
0.630224
0.642593
0.959556
0.992727
0.964277
0.572307
0.570365
0.566665
0.559575
0.552728
0.545402
0.537715
0.530022
0.522673
0.515365
0.514693
0.515167
0.52016
0.528137
0.539011
0.551826
0.563296
0.577334
0.596531
0.598458
0.634055
0.94532
0.937032
0.546833
0.545691
0.543024
0.53812
0.53296
0.527411
0.521794
0.516531
0.512399
0.51049
0.507262
0.507473
0.511126
0.5179
0.526102
0.536246
0.545778
0.555606
0.56222
0.567222
0.550342
0.882867
1.03924
0.523426
0.522724
0.520817
0.517326
0.51352
0.509402
0.505322
0.501624
0.498677
0.496725
0.49603
0.497095
0.500308
0.505382
0.512208
0.519575
0.526939
0.533729
0.537432
0.535281
0.520544
0.587027
1.06659
0.501554
0.501055
0.499632
0.497128
0.494324
0.491286
0.488308
0.485712
0.483754
0.482647
0.482609
0.483912
0.486683
0.49079
0.495945
0.50159
0.507284
0.512331
0.514978
0.512305
0.497888
0.465271
0.536005
0.48072
0.480327
0.479227
0.477396
0.475315
0.473063
0.470888
0.469017
0.467668
0.467033
0.467277
0.468519
0.470795
0.474022
0.477954
0.482259
0.486585
0.490372
0.492541
0.490796
0.480315
0.456941
0.423641
0.460612
0.460274
0.459394
0.458022
0.45644
0.454737
0.453095
0.451693
0.4507
0.450269
0.450509
0.451484
0.453203
0.455591
0.458468
0.461601
0.464692
0.467333
0.468895
0.468055
0.462343
0.449579
0.430705
0.44102
0.440704
0.439975
0.438909
0.437665
0.436323
0.435019
0.433888
0.433058
0.43264
0.432705
0.433292
0.434391
0.435927
0.437769
0.439732
0.441569
0.44296
0.443473
0.442395
0.438751
0.431908
0.422236
0.421791
0.42149
0.420867
0.419996
0.418968
0.417846
0.416729
0.415719
0.414905
0.414362
0.414152
0.414269
0.414697
0.415361
0.416148
0.416901
0.417412
0.417413
0.416529
0.414182
0.409724
0.402807
0.3933
0.402842
0.402554
0.402003
0.40125
0.400345
0.399338
0.398297
0.397295
0.396393
0.39564
0.395061
0.394661
0.394393
0.394176
0.393907
0.393439
0.392575
0.391072
0.388612
0.384758
0.379031
0.370875
0.36028
0.384125
0.383851
0.383346
0.382653
0.381805
0.380834
0.379789
0.378716
0.377655
0.37663
0.375649
0.374692
0.373706
0.372616
0.371304
0.369627
0.367391
0.364344
0.360181
0.35448
0.346752
0.336835
0.323869
0.365621
0.365359
0.36488
0.364208
0.363368
0.362379
0.361271
0.360074
0.358805
0.357473
0.356066
0.354552
0.352868
0.350925
0.348607
0.345761
0.342196
0.337678
0.331901
0.324487
0.31499
0.302982
0.287759
0.347324
0.347071
0.346601
0.345922
0.345058
0.344013
0.342807
0.341451
0.33995
0.338296
0.336464
0.33441
0.332061
0.329323
0.326075
0.32216
0.317387
0.311523
0.304274
0.29527
0.284073
0.270224
0.253107
0.329235
0.32899
0.328515
0.327811
0.3269
0.325778
0.324453
0.322923
0.321182
0.31921
0.31697
0.314409
0.311449
0.307988
0.303902
0.299033
0.29319
0.286141
0.277603
0.267229
0.254602
0.239278
0.220707
0.311358
0.311115
0.310632
0.309892
0.308923
0.307713
0.306261
0.304557
0.302583
0.300311
0.297696
0.294678
0.291173
0.287078
0.282264
0.276575
0.269822
0.261781
0.252181
0.240698
0.226955
0.210544
0.190984
0.293703
0.293463
0.292965
0.292185
0.291154
0.289855
0.288279
0.286411
0.284224
0.281684
0.278739
0.275324
0.271354
0.266722
0.261301
0.254937
0.247448
0.23862
0.2282
0.215889
0.201351
0.184224
0.164092
0.276281
0.276045
0.275531
0.274711
0.273622
0.27224
0.270552
0.268538
0.266167
0.263397
0.260175
0.256432
0.252081
0.247017
0.241114
0.234226
0.226179
0.216773
0.205773
0.192911
0.177889
0.160389
0.140058
0.259101
0.258873
0.258347
0.257491
0.256353
0.254899
0.253116
0.25098
0.248458
0.245504
0.242062
0.238063
0.233421
0.228032
0.221775
0.214513
0.206085
0.196303
0.184955
0.171799
0.156577
0.139017
0.118813
0.242178
0.241958
0.241427
0.240544
0.239368
0.237859
0.236002
0.233773
0.231136
0.228046
0.224444
0.220264
0.21542
0.209813
0.203329
0.19584
0.187197
0.17723
0.165748
0.152537
0.137373
0.120025
0.100233
0.225525
0.225313
0.224787
0.223887
0.222689
0.221143
0.219236
0.216945
0.214233
0.211054
0.207354
0.203065
0.198107
0.192385
0.185795
0.178217
0.169516
0.15954
0.148117
0.135064
0.120186
0.103291
0.0841555
0.209157
0.208945
0.208436
0.207529
0.206325
0.204763
0.202834
0.200512
0.197765
0.194548
0.190809
0.186483
0.181495
0.175756
0.169171
0.161632
0.153016
0.143188
0.131998
0.11929
0.104897
0.0886588
0.0703904
0.193089
0.192853
0.192383
0.191476
0.190283
0.188725
0.186801
0.184483
0.181741
0.178534
0.174814
0.170519
0.165579
0.159914
0.153436
0.146049
0.137645
0.128106
0.117301
0.105099
0.0913605
0.0759547
0.0587285
0.177339
0.17704
0.176636
0.175729
0.174566
0.173034
0.171141
0.168859
0.16616
0.163009
0.159361
0.15516
0.150339
0.144828
0.138548
0.131413
0.123331
0.114201
0.103913
0.0923537
0.0794101
0.0649815
0.0489415
0.1619
0.16153
0.161201
0.160294
0.159179
0.15769
0.155852
0.153636
0.151018
0.147966
0.144439
0.140385
0.135746
0.130457
0.124453
0.117657
0.109991
0.10137
0.0917041
0.0808999
0.0688646
0.0555242
0.0407824
0.146743
0.146345
0.146071
0.14517
0.144119
0.142686
0.140926
0.138804
0.1363
0.133387
0.130026
0.126169
0.121767
0.116762
0.111098
0.104713
0.0975388
0.0895065
0.0805448
0.0705796
0.0595361
0.0473617
0.0339972
0.131862
0.131466
0.131232
0.130349
0.129372
0.12801
0.126349
0.124346
0.121989
0.11925
0.116093
0.112478
0.108361
0.103693
0.0984268
0.0925108
0.0858911
0.078511
0.0703134
0.0612415
0.0512443
0.0402884
0.0283467
0.117246
0.116873
0.116662
0.115812
0.114917
0.113639
0.1121
0.110242
0.108059
0.105524
0.102606
0.0992697
0.0954786
0.0911941
0.0863755
0.0809809
0.0749658
0.0682843
0.0608914
0.0527522
0.0438357
0.0341234
0.0236174
0.102872
0.102543
0.102339
0.101533
0.10073
0.0995494
0.0981518
0.0964625
0.0944788
0.0921753
0.0895264
0.0865034
0.0830767
0.0792152
0.0748859
0.0700534
0.0646802
0.0587313
0.0521764
0.0449971
0.0371792
0.0287098
0.0196241
0.0887205
0.0884501
0.0882397
0.0874942
0.08679
0.0857237
0.0844858
0.0829838
0.0812215
0.0791757
0.0768257
0.0741481
0.0711198
0.0677152
0.0639078
0.0596688
0.0549676
0.0497792
0.0440859
0.0378788
0.0311544
0.0239159
0.0162156
0.0747782
0.0745854
0.0743231
0.0736731
0.0730778
0.0721425
0.0710797
0.0697811
0.0682605
0.0664958
0.0644703
0.0621653
0.0595627
0.0566443
0.0533858
0.0497656
0.0457615
0.0413534
0.036533
0.0313012
0.0256597
0.0196261
0.0132581
0.0609814
0.0608434
0.0605852
0.0600329
0.0595445
0.0587538
0.0578745
0.0567945
0.0555306
0.0540655
0.0523844
0.0504749
0.0483207
0.0459093
0.0432227
0.0402402
0.0369499
0.0333343
0.0293911
0.02513
0.0205612
0.0156945
0.010597
0.047275
0.0471876
0.0469574
0.0465111
0.0461377
0.0454966
0.0448111
0.0439597
0.0429644
0.0418111
0.0404903
0.0389919
0.0373044
0.0354149
0.0333138
0.0309845
0.0284128
0.0255943
0.0225304
0.0192274
0.0157031
0.0119692
0.00807823
0.033645
0.0336137
0.0334337
0.0331044
0.0328408
0.0323671
0.0318783
0.0312647
0.0305468
0.0297164
0.0287649
0.0276877
0.0264755
0.0251211
0.0236132
0.0219435
0.0200976
0.0180773
0.0158874
0.0135357
0.0110281
0.0083853
0.00564811
0.020129
0.0201268
0.0200102
0.0198119
0.019652
0.0193643
0.0190744
0.0187011
0.0182702
0.0177694
0.0171957
0.0165454
0.0158162
0.0150011
0.0140935
0.0130873
0.0119774
0.0107616
0.00944481
0.00803492
0.00653581
0.00495838
0.00333056
0.0066914
0.00669873
0.00665566
0.00658989
0.00653719
0.00644003
0.0063455
0.0062184
0.00607598
0.00590892
0.00571737
0.00550025
0.00525697
0.00498479
0.00468199
0.00434565
0.00397577
0.00357123
0.00313327
0.0026633
0.00216561
0.00164194
0.00110236
751.549
761.184
789.835
782.01
948.951
943.82
937.404
932.668
946.295
947.491
951.694
958.307
918.669
931.981
956.27
988.749
217.279
263.585
332.278
414.879
0.94843
0.881692
0.849357
0.99871
0.766797
0.697791
0.617338
0.567636
0.775223
0.620543
0.592447
0.5867
0.655397
0.544369
0.525846
0.564225
0.813155
0.530027
0.496058
0.547202
1.04769
0.687539
0.577638
0.627211
1.07721
1.23212
1.24266
1.26856
0.396712
0.392646
0.508831
0.56155
0.415143
0.405437
0.396033
0.387692
0.413498
0.406705
0.40076
0.394316
0.384197
0.378247
0.370428
0.361137
0.349956
0.342266
0.332999
0.32169
0.311185
0.30178
0.290957
0.278504
0.2733
0.26272
0.250708
0.237179
0.237335
0.226003
0.213345
0.199272
0.204019
0.192203
0.179189
0.164903
0.173757
0.161698
0.14856
0.134278
0.14665
0.134549
0.121481
0.107387
0.122671
0.110694
0.0978512
0.0840937
0.101718
0.0900067
0.0775201
0.0642185
0.0836326
0.0723117
0.0602984
0.0475581
0.0682238
0.0574005
0.0459618
0.0338794
0.0552775
0.0450429
0.0342663
0.0229276
0.0445615
0.0349937
0.0249512
0.0144252
0.035822
0.0269828
0.0177313
0.00807034
0.0287908
0.0207295
0.012312
0.00355254
0.0231909
0.0159457
0.00839731
0.000565215
0.0187563
0.012349
0.00569251
-0.00119765
0.0152473
0.00967936
0.00392092
-0.00202585
0.0124546
0.00770633
0.00282802
-0.00219124
0.0102003
0.00623737
0.00219323
-0.00194003
0.00833322
0.00510837
0.00183883
-0.00147912
0.00669237
0.00415056
0.0015903
-0.000986192
0.00512471
0.00321302
0.00129873
-0.000616144
0.0035852
0.00225432
0.000928075
-0.00038823
0.00210923
0.00132315
0.00054501
-0.000222855
0.000698774
0.000439855
0.000185274
-6.50808e-05
724.01
787.61
842.961
775.44
368.944
186.423
202.906
202.221
195.871
192.666
191.209
192.707
198.742
208.487
209.353
209.492
210.109
208.235
668.969
911.172
908.505
926.936
814.377
232.465
201.827
204.743
201.237
195.298
192.074
191.26
192.733
195.997
210.313
218.711
211.612
210.097
207.653
806.634
968.409
984.071
1007.61
887.678
199.66
219.514
209.822
203.013
198.592
194.608
193.587
194.843
197.069
207.666
221.929
212.881
210.052
296.973
972.102
1025.86
1050.22
1086.14
1004.06
204.747
217.828
213.065
207.56
203.545
200.559
198.08
197.975
199.808
203.79
223.623
214.084
210.41
618.332
1140.81
605.226
958.077
1143.25
1097.82
214.989
218.734
214.17
210.292
207.328
205.27
203.877
203.055
203.461
206.44
230.894
219.621
212.734
886.24
1318.51
19.9541
274.567
974.779
1219.25
655.799
217.101
212.694
210.471
210.195
209.563
209.373
208.63
208.689
210.5
215.208
231.498
223.216
1117.59
1470.45
0.522612
0.500846
180.311
1165.86
1325.3
471.358
210.936
210.194
210.47
212.286
214.283
214.755
213.623
214.077
215.935
219.536
645.598
1469.32
1581.76
0.603648
0.655847
0.638116
172.056
1300.44
1395.62
826.54
399.529
212.149
214.612
216.767
217.725
218.066
217.178
218.052
273.931
1219.59
1753.62
1855.64
0.670826
0.758715
0.88009
0.902148
115.411
1049.92
1124.06
1174.98
753.733
306.059
222.095
222.271
222.305
221.446
365.377
1249.94
1791.02
1946.83
2187.81
0.692766
0.875713
0.983103
1.08988
1.06931
58.2192
588.967
1131.66
1187.96
1228.25
681.361
605.881
892.349
1360.43
1495.44
1541.59
1403.48
1542.49
2082.72
0.736966
0.892221
1.50827
1.381
0.956692
0.497176
5.76143
216.533
652.59
916.243
1339.25
1614.99
1734.61
1711.98
1203.11
596.248
606.326
773.141
1933.42
1.32632
1.39609
1.47515
0.940096
0.836812
1.68155
2.94533
-0.712301
34.9751
294.131
849.8
1542.03
1865.41
1758.93
950.476
646.464
575.483
884.909
2016.34
0.559429
0.500692
0.515298
0.540265
0.652475
0.499827
-0.417368
-1.59985
-1.79053
12.501
509.054
1191.55
1401.37
1669.61
2001.98
1976.68
1281.62
1647.97
2231.05
0.380231
0.385453
0.391047
0.358193
0.192944
-0.180702
-0.521313
0.259285
4.79583
7.50835
11.8645
18.8149
10.0721
391.942
1902.27
2239.44
2265.21
2292.59
2380.42
0.381304
0.360854
0.336426
0.272097
0.101068
-0.14168
-0.388241
-0.544305
0.638145
2.56879
3.50143
2.31821
3.07697
6.98245
632.16
2137.7
2369.77
2413.83
2470.01
0.344934
0.315147
0.273671
0.206264
0.0834077
-0.0915327
-0.290662
-0.504162
-0.631958
1.22992
3.16719
1.76153
1.78378
2.88827
126.129
956.046
2321.45
2353.64
1739.86
0.300204
0.262154
0.212387
0.144441
0.0471505
-0.0811178
-0.22448
-0.354818
-0.417271
0.159817
1.80332
0.416574
0.722497
11.7854
54.7066
374.291
1761.71
2446.77
1600.78
0.255024
0.212737
0.160007
0.0948753
0.0135375
-0.0838669
-0.18724
-0.274466
-0.302067
-0.23347
-0.0334448
0.228192
0.474654
0.64352
66.9077
408.783
1295.78
2576.69
2725
0.212168
0.168389
0.115535
0.0542956
-0.0158078
-0.0942345
-0.175369
-0.245277
-0.288147
-0.25952
-0.15239
-0.0598703
-0.033842
0.24304
120.454
536.479
722.665
1224.19
1973.85
0.173456
0.129385
0.0774565
0.0193612
-0.0437463
-0.112469
-0.18538
-0.25751
-0.322497
-0.361087
-0.374169
-0.493572
-0.686444
-0.882802
-0.754361
78.5426
402.879
658.427
433.97
0.138939
0.0954448
0.0449086
-0.0108971
-0.0705443
-0.13473
-0.205791
-0.284575
-0.374221
-0.482167
-0.617086
-0.929437
-1.25017
-1.50474
-1.57537
-0.877915
67.4767
1191.88
2205.09
0.10853
0.066127
0.0172976
-0.0365328
-0.0942056
-0.156388
-0.226385
-0.309253
-0.413567
-0.559374
-0.771252
-1.20144
-1.62759
-1.88223
-1.90282
-1.67804
0.183504
225.992
2114
0.0821423
0.041135
-0.00575475
-0.057545
-0.113292
-0.173694
-0.242243
-0.322172
-0.430849
-0.590512
-0.83338
-1.25311
-1.70765
-1.88334
-1.62946
-1.46926
-0.723424
162.906
1697.75
0.0595837
0.0202051
-0.0245439
-0.0740531
-0.127621
-0.185628
-0.250229
-0.327449
-0.427715
-0.573053
-0.794594
-1.1556
-1.55957
-1.31632
-1.19841
-1.21686
4.41758
153.104
1964.83
0.040628
0.00307764
-0.0393496
-0.086348
-0.137499
-0.193248
-0.253721
-0.327323
-0.414969
-0.533999
-0.703626
-0.972149
-1.26045
-1.04422
-0.823054
-0.885569
22.345
34.0239
210.778
0.0250476
-0.0104939
-0.0504116
-0.0946486
-0.14304
-0.195966
-0.25512
-0.323666
-0.402862
-0.493504
-0.607179
-0.765434
-0.916188
-0.712313
-0.650638
-0.443783
25.5432
8.97395
2.56033
0.0125995
-0.0207601
-0.0579734
-0.0991883
-0.144733
-0.195622
-0.253315
-0.318055
-0.388438
-0.462169
-0.530784
-0.593877
-0.630038
-0.33542
-0.487076
-0.309977
26.833
12.9924
3.35721
0.00301232
-0.0280047
-0.062339
-0.100214
-0.142608
-0.191606
-0.247649
-0.309014
-0.37221
-0.433566
-0.474122
-0.478104
-0.44076
-0.137364
-0.257323
7.69998
27.9923
15.3411
345.73
-0.00401501
-0.0325606
-0.0639069
-0.0982245
-0.136931
-0.183148
-0.236695
-0.293292
-0.349409
-0.402066
-0.428585
-0.408976
-0.34327
-0.215883
-0.152601
46.9377
18.3459
15.7527
1057.85
-0.00881063
-0.0347941
-0.063147
-0.0939502
-0.128434
-0.170408
-0.21932
-0.268302
-0.315313
-0.361019
-0.383681
-0.366864
-0.256998
-0.318996
0.0725814
56.2785
18.4569
17.0301
1106.96
-0.0117092
-0.0350728
-0.0604424
-0.0879092
-0.117945
-0.153775
-0.195235
-0.234857
-0.271791
-0.307516
-0.33012
-0.317553
-0.225124
-0.408542
10.1704
58.6961
47.7173
19.4654
376.601
-0.0130352
-0.0337385
-0.0561036
-0.0803076
-0.106342
-0.134677
-0.165298
-0.19396
-0.219574
-0.244659
-0.264444
-0.274064
-0.266696
-0.426416
25.6609
60.9668
62.5907
25.369
219.955
-0.0131135
-0.0311052
-0.0504454
-0.071285
-0.0935604
-0.114943
-0.132729
-0.148315
-0.163302
-0.18065
-0.202938
-0.23522
-0.257681
-0.309059
5.05646
60.893
63.9791
23.9294
690.475
-0.012268
-0.0275241
-0.0437573
-0.0609815
-0.0791486
-0.0958715
-0.103914
-0.103103
-0.109025
-0.124826
-0.149623
-0.182742
-0.196408
-0.19944
-0.198197
15.3965
53.42
21.1033
1193.45
-0.0107871
-0.0234023
-0.0365207
-0.0499542
-0.0633855
-0.07574
-0.0827347
-0.075915
-0.0675064
-0.0751882
-0.0989431
-0.129488
-0.140781
-0.128844
-0.151475
-0.277905
8.6442
17.2766
1893.29
-0.00897495
-0.0191031
-0.0293091
-0.0392481
-0.0484154
-0.0562595
-0.0608705
-0.0597414
-0.0484162
-0.0441281
-0.0559939
-0.0721203
-0.0816546
-0.0667479
-0.0557669
-0.152321
18.3532
188.911
2205.28
-0.00707922
-0.0149697
-0.022623
-0.0296897
-0.0356146
-0.0398863
-0.0417437
-0.039855
-0.0341001
-0.0277602
-0.0282251
-0.0311196
-0.0255122
-0.00498043
0.0524168
-0.00779131
28.5584
147.116
388.087
-0.00530845
-0.0112615
-0.0167895
-0.0216485
-0.0252455
-0.0270512
-0.0269487
-0.0233338
-0.0170539
-0.0118956
-0.0074056
0.00157321
0.0179854
0.0432696
0.0998238
0.241244
31.9387
3.73385
3.40918
-0.00380046
-0.00810361
-0.0119155
-0.0151084
-0.0170623
-0.0173746
-0.0162421
-0.0118181
-0.00564833
0.000446264
0.0087915
0.0245248
0.0445124
0.067039
0.0639403
-0.00716386
26.0152
12.8622
246.431
-0.00255846
-0.00545542
-0.00789302
-0.00982958
-0.0107212
-0.0103682
-0.00880186
-0.0046143
0.000198
0.00541007
0.0134543
0.0295715
0.0464428
0.0759763
0.0382492
-0.00321735
4.04298
0.220012
429.642
-0.00148514
-0.00314044
-0.00447514
-0.00546628
-0.00575606
-0.00532049
-0.00405551
-0.00151905
0.00124987
0.00394153
0.00788967
0.0179654
0.0266129
0.0577063
0.0277229
0.118711
0.240677
0.284167
105.402
-0.000477741
-0.00100775
-0.00141334
-0.00168597
-0.00170756
-0.00150584
-0.00103215
-0.000114191
-4.52878e-07
-0.00082196
-0.00205014
-0.00184401
-0.00767527
-0.0105318
-0.0578107
-0.0278305
0.123037
-0.171831
0.376897
)
;

boundaryField
{
    leftWall
    {
        type            fixedFluxPressure;
        gradient        uniform 0;
        value           nonuniform List<scalar> 
50
(
604.313
604.236
603.63
603.215
603.69
605.407
608.664
613.232
609.946
209.329
0.729824
0.733831
0.716614
0.660835
0.632757
0.600388
0.572307
0.546833
0.523426
0.501554
0.48072
0.460612
0.44102
0.421791
0.402842
0.384125
0.365621
0.347324
0.329235
0.311358
0.293703
0.276281
0.259101
0.242178
0.225525
0.209157
0.193089
0.177339
0.1619
0.146743
0.131862
0.117246
0.102872
0.0887205
0.0747782
0.0609814
0.047275
0.033645
0.020129
0.0066914
)
;
    }
    rightWall
    {
        type            fixedFluxPressure;
        gradient        uniform 0;
        value           nonuniform List<scalar> 
50
(
1430.54
1415.08
1358.92
1242.97
1157.1
1028.01
855
722.793
668.969
806.634
972.102
1140.81
1318.51
1470.45
1581.76
1855.64
2187.81
2082.72
1933.42
2016.34
2231.05
2380.42
2470.01
1739.86
1600.78
2725
1973.85
433.97
2205.09
2114
1697.75
1964.83
210.778
2.56033
3.35721
345.73
1057.85
1106.96
376.601
219.955
690.475
1193.45
1893.29
2205.28
388.087
3.40918
246.431
429.642
105.402
0.376897
)
;
    }
    lowerWall
    {
        type            fixedFluxPressure;
        gradient        uniform 0;
        value           nonuniform List<scalar> 
62
(
604.313
600.766
601.457
606.228
616.256
628.929
641.08
651.679
662.286
674.75
689.871
707.544
727.329
748.84
771.662
795.195
818.344
839.151
855.003
863.807
854.185
862.213
899.513
899.513
894.164
891.938
900.126
914.248
927.774
929.139
923.997
751.549
761.184
789.835
782.01
893.766
882.081
817.996
787.741
708.781
657.563
596.201
513.948
893.766
927.606
878.924
641.191
556.129
551.578
564.98
414.962
285.107
218.39
219.939
242.576
260.58
281.488
299.357
333.452
631.948
1308.88
1430.54
)
;
    }
    atmosphere
    {
        type            totalPressure;
        rho             rho;
        psi             none;
        gamma           1;
        p0              uniform 0;
        value           nonuniform List<scalar> 
46
(
0
0
0
0
0
0
0
0
0
0
0
0
0
0
0
0
0
0
0
0
0
0
0
0
0
0
0
0
0
0
0
0
0
0
-6.335e-05
-0.00147575
-0.00445764
-0.00896951
-0.0147722
-0.0321168
-0.0551087
-0.144693
-0.058224
-0.173205
-1.00739
0
)
;
    }
    defaultFaces
    {
        type            empty;
    }
}


// ************************************************************************* //
