/*--------------------------------*- C++ -*----------------------------------*\
| =========                 |                                                 |
| \\      /  F ield         | OpenFOAM: The Open Source CFD Toolbox           |
|  \\    /   O peration     | Version:  5.x                                   |
|   \\  /    A nd           | Web:      www.OpenFOAM.org                      |
|    \\/     M anipulation  |                                                 |
\*---------------------------------------------------------------------------*/
FoamFile
{
    version     2.0;
    format      ascii;
    class       surfaceScalarField;
    location    "0.55";
    object      phi;
}
// * * * * * * * * * * * * * * * * * * * * * * * * * * * * * * * * * * * * * //

dimensions      [0 3 -1 0 0 0 0];

internalField   nonuniform List<scalar> 
4432
(
-3.44226e-06
3.44226e-06
-5.52097e-06
2.07871e-06
-4.81137e-06
-7.09603e-07
-2.23561e-06
-2.57576e-06
1.79706e-06
-4.03267e-06
6.63117e-06
-4.83412e-06
1.12811e-05
-4.64996e-06
1.49537e-05
-3.67258e-06
1.73719e-05
-2.41819e-06
1.86506e-05
-1.2787e-06
1.90107e-05
-3.60116e-07
1.8609e-05
4.01728e-07
1.75279e-05
1.08109e-06
1.58127e-05
1.71523e-06
1.33293e-05
2.4834e-06
9.74349e-06
3.58579e-06
4.76691e-06
4.97657e-06
-1.2375e-06
6.00441e-06
-5.26596e-06
4.02845e-06
-9.75277e-06
4.48682e-06
-1.77175e-05
7.96473e-06
-1.53599e-05
-2.3576e-06
-1.53599e-05
-3.8425e-06
7.28476e-06
-5.1981e-06
3.4343e-06
-4.20583e-06
-1.70187e-06
-1.7191e-06
-5.0625e-06
2.1264e-06
-7.87817e-06
6.88137e-06
-9.58909e-06
1.15054e-05
-9.27393e-06
1.51362e-05
-7.30338e-06
1.74974e-05
-4.77944e-06
1.87501e-05
-2.5314e-06
1.92067e-05
-8.16736e-07
1.91641e-05
4.44357e-07
1.88461e-05
1.39915e-06
1.83363e-05
2.22503e-06
1.76554e-05
3.16432e-06
1.65986e-05
4.64254e-06
1.45256e-05
7.04956e-06
1.02722e-05
1.02579e-05
3.15511e-06
1.11455e-05
-5.80677e-06
1.34487e-05
-1.2072e-05
1.423e-05
-9.63313e-06
-4.79651e-06
-2.4993e-05
-3.03529e-06
1.03201e-05
-3.94828e-06
4.34729e-06
-3.1001e-06
-2.55005e-06
-1.06567e-06
-7.09693e-06
2.30573e-06
-1.12496e-05
6.85714e-06
-1.41405e-05
1.143e-05
-1.38468e-05
1.49876e-05
-1.0861e-05
1.72209e-05
-7.01277e-06
1.83494e-05
-3.65984e-06
1.87049e-05
-1.17229e-06
1.85489e-05
6.00407e-07
1.80529e-05
1.89506e-06
1.73753e-05
2.90266e-06
1.66818e-05
3.85786e-06
1.62068e-05
5.11751e-06
1.61145e-05
7.14189e-06
1.55478e-05
1.08245e-05
1.20088e-05
1.46845e-05
5.46566e-06
1.99919e-05
-1.54536e-06
2.1241e-05
-1.95118e-06
-4.39069e-06
-2.69442e-05
-1.85376e-06
1.21738e-05
-2.1471e-06
4.64062e-06
-1.44359e-06
-3.25356e-06
8.90835e-08
-8.6296e-06
2.92155e-06
-1.4082e-05
7.07222e-06
-1.82912e-05
1.13565e-05
-1.81311e-05
1.46717e-05
-1.41761e-05
1.67107e-05
-9.05185e-06
1.77153e-05
-4.66441e-06
1.80312e-05
-1.48822e-06
1.79051e-05
7.2656e-07
1.74955e-05
2.30471e-06
1.69105e-05
3.48758e-06
1.62502e-05
4.51816e-06
1.56685e-05
5.69919e-06
1.55279e-05
7.28249e-06
1.62372e-05
1.01153e-05
1.66396e-05
1.4282e-05
1.55511e-05
2.10804e-05
1.31748e-05
2.36173e-05
7.33466e-06
1.44942e-06
-1.96095e-05
-2.93875e-07
1.24677e-05
5.22019e-07
3.82473e-06
1.49256e-06
-4.2241e-06
3.02173e-06
-1.01588e-05
5.62381e-06
-1.66841e-05
8.9573e-06
-2.16246e-05
1.22035e-05
-2.13773e-05
1.46304e-05
-1.66031e-05
1.61106e-05
-1.05321e-05
1.68837e-05
-5.43744e-06
1.71885e-05
-1.79303e-06
1.71573e-05
7.57713e-07
1.69047e-05
2.5573e-06
1.65231e-05
3.86926e-06
1.60964e-05
4.9448e-06
1.57055e-05
6.09013e-06
1.55135e-05
7.47444e-06
1.60625e-05
9.56633e-06
1.77276e-05
1.26169e-05
2.03088e-05
1.84992e-05
2.09327e-05
2.29935e-05
1.37547e-05
8.62736e-06
-5.85482e-06
1.93594e-06
1.05317e-05
4.46301e-06
1.29766e-06
6.72977e-06
-6.49085e-06
9.2273e-06
-1.26563e-05
1.17335e-05
-1.91903e-05
1.35769e-05
-2.3468e-05
1.47993e-05
-2.25997e-05
1.55247e-05
-1.73284e-05
1.58899e-05
-1.08973e-05
1.61084e-05
-5.6559e-06
1.62885e-05
-1.97318e-06
1.63667e-05
6.79516e-07
1.63104e-05
2.61355e-06
1.61557e-05
4.02396e-06
1.59745e-05
5.12602e-06
1.58319e-05
6.23278e-06
1.58762e-05
7.43013e-06
1.63596e-05
9.0829e-06
1.77121e-05
1.12643e-05
2.09301e-05
1.52813e-05
2.324e-05
2.06836e-05
1.6747e-05
1.51203e-05
1.08922e-05
4.42428e-06
6.10747e-06
9.60696e-06
-3.88501e-06
1.45266e-05
-1.14105e-05
1.8545e-05
-1.66747e-05
2.04174e-05
-2.10627e-05
1.99391e-05
-2.29897e-05
1.86012e-05
-2.12618e-05
1.74197e-05
-1.61469e-05
1.65471e-05
-1.00248e-05
1.60066e-05
-5.11541e-06
1.57274e-05
-1.69389e-06
1.57455e-05
6.61324e-07
1.57818e-05
2.57724e-06
1.58289e-05
3.97687e-06
1.58973e-05
5.05767e-06
1.59791e-05
6.15094e-06
1.62615e-05
7.14779e-06
1.69379e-05
8.40651e-06
1.79853e-05
1.02169e-05
2.04331e-05
1.28335e-05
2.30395e-05
1.80772e-05
1.91648e-05
1.8995e-05
3.0057e-05
6.81591e-06
-7.08441e-07
1.57005e-05
-1.27696e-05
2.37297e-05
-1.94397e-05
2.79935e-05
-2.09385e-05
2.76414e-05
-2.07106e-05
2.44539e-05
-1.98023e-05
2.12402e-05
-1.80481e-05
1.90788e-05
-1.39855e-05
1.77484e-05
-8.69433e-06
1.69446e-05
-4.31166e-06
1.6477e-05
-1.22626e-06
1.60191e-05
1.11926e-06
1.57358e-05
2.86048e-06
1.56381e-05
4.07462e-06
1.57481e-05
4.94761e-06
1.59653e-05
5.93374e-06
1.65036e-05
6.60948e-06
1.74975e-05
7.41264e-06
1.87238e-05
8.99067e-06
2.05793e-05
1.09781e-05
2.27159e-05
1.59406e-05
1.99197e-05
2.17912e-05
4.99766e-05
2.90196e-05
-2.90196e-05
8.01175e-05
-5.10978e-05
0.000153264
-7.31468e-05
0.000188373
-3.51089e-05
0.000177317
1.10561e-05
1.93536e-05
0.000157964
-0.000112129
0.000131482
-0.000207707
9.55779e-05
-0.000235333
2.76268e-05
-0.000224666
-1.06678e-05
-0.000206679
-1.79863e-05
-0.000193417
-1.32624e-05
-0.000179936
-1.3481e-05
-0.000165745
-1.41909e-05
-0.00014835
-1.73946e-05
-0.000128849
-1.95015e-05
-0.000103256
-2.55926e-05
-3.86014e-05
-6.46549e-05
-3.86014e-05
-5.22586e-07
-2.84971e-05
2.2166e-05
-7.37864e-05
9.36752e-05
-0.000144656
0.000154728
-9.61617e-05
0.000153898
1.18866e-05
-4.24696e-05
0.000354331
-0.000259847
0.000348859
-0.000357577
0.000193308
-0.000359726
2.97758e-05
-0.000355147
-1.52459e-05
-0.000333268
-3.98653e-05
-0.000297173
-4.93574e-05
-0.000270818
-3.98364e-05
-0.0002481
-3.69088e-05
-0.000215925
-4.95688e-05
-0.000174408
-6.10189e-05
-0.000129265
-7.07353e-05
-4.64041e-05
-0.000147516
-8.50055e-05
-1.68666e-05
-1.16304e-05
-1.80861e-06
-8.88444e-05
2.45576e-05
-0.000171022
6.77306e-05
-0.000139335
5.20114e-05
2.76059e-05
-0.000113939
0.000520281
-0.000248762
0.000483683
-0.000301091
0.000245636
-0.000338777
6.7462e-05
-0.000366511
1.24874e-05
-0.00038135
-2.50257e-05
-0.000370456
-6.02518e-05
-0.000352046
-5.82466e-05
-0.000335094
-5.38604e-05
-0.000300459
-8.42037e-05
-0.000247862
-0.000113616
-0.000177031
-0.000141566
-5.63954e-05
-0.000268152
-0.000141401
-9.71541e-06
-1.915e-06
5.13446e-06
-0.000103694
1.05045e-05
-0.000176392
4.16107e-05
-0.000170441
3.08488e-05
3.83678e-05
-0.00014963
0.00070076
-0.000212012
0.000546064
-0.000240401
0.000274026
-0.000294727
0.000121789
-0.00033235
5.01106e-05
-0.000323786
-3.35901e-05
-0.000285312
-9.87254e-05
-0.000246556
-9.70021e-05
-0.000234644
-6.57719e-05
-0.000228029
-9.08192e-05
-0.000224305
-0.000117341
-0.000178389
-0.000187482
-5.82545e-05
-0.000388286
-0.000199655
1.87629e-06
-3.79129e-06
1.62904e-05
-0.000118108
1.44537e-05
-0.000174556
3.34574e-05
-0.000189445
2.59155e-05
4.59098e-05
-0.0001214
0.000848075
-0.000166733
0.000591397
-0.000203081
0.000310374
-0.000287599
0.000206306
-0.000333102
9.56149e-05
-0.000327117
-3.95754e-05
-0.000267469
-0.000158373
-0.000168748
-0.000195723
-9.1529e-05
-0.000142991
-7.72644e-05
-0.000105084
-0.000112793
-8.18115e-05
-0.000107073
-0.000193203
-4.51025e-05
-0.000450257
-0.000244758
1.35526e-05
-1.73439e-05
2.69576e-05
-0.000131513
2.53458e-05
-0.000172944
2.83206e-05
-0.00019242
3.71693e-05
3.7061e-05
-5.29283e-05
0.000938173
-0.000127812
0.000666281
-0.000180195
0.000362757
-0.000266109
0.000292219
-0.000315034
0.00014454
-0.000320971
-3.36389e-05
-0.000276417
-0.000202926
-0.000188588
-0.000283552
-8.55415e-05
-0.000246038
7.21042e-06
-0.000197836
-1.99121e-06
-7.261e-05
-5.74587e-05
-0.000137735
-3.38359e-05
-0.00047388
-0.000278594
2.79813e-05
-4.53252e-05
3.74089e-05
-0.000140941
3.28385e-05
-0.000168373
2.38224e-05
-0.000183403
6.46297e-05
-3.74634e-06
1.24595e-05
0.000990343
-7.81135e-05
0.000756854
-0.000153931
0.000438574
-0.000227083
0.000365371
-0.000270711
0.000188169
-0.000279562
-2.47883e-05
-0.000245379
-0.000237109
-0.000173494
-0.000355437
-9.47345e-05
-0.000324798
-2.93055e-05
-0.000263265
1.72363e-05
-0.000119152
-1.18351e-05
-0.000108664
-2.74035e-05
-0.000458311
-0.000305997
4.335e-05
-8.86752e-05
4.57706e-05
-0.000143362
3.6413e-05
-0.000159016
2.60647e-05
-0.000173055
8.34855e-05
-6.11671e-05
5.72973e-05
0.00101653
-1.08667e-05
0.000825018
-8.93866e-05
0.000517094
-0.000160465
0.000436449
-0.000209242
0.000236946
-0.000221904
-1.21266e-05
-0.000194889
-0.000264124
-0.000128818
-0.000421508
-7.53085e-05
-0.000378307
-4.23844e-05
-0.000296189
3.03826e-05
-0.000191919
5.36908e-05
-0.000131972
-1.78254e-05
-0.000386795
-0.000323823
2.18385e-05
-2.2547e-05
4.927e-05
-4.02011e-05
6.36579e-05
-3.38276e-05
6.08252e-05
-1.81058e-05
5.13123e-05
-1.11976e-05
4.20717e-05
-1.05617e-05
3.56665e-05
-1.16429e-05
3.29421e-05
-1.12611e-05
3.32631e-05
-9.01531e-06
3.4816e-05
-5.86458e-06
3.62985e-05
-2.70869e-06
3.74285e-05
-1.08198e-08
3.75052e-05
2.7838e-06
3.69974e-05
4.58242e-06
3.63281e-05
5.61694e-06
3.5491e-05
6.77079e-06
3.58885e-05
6.21202e-06
3.80159e-05
5.28527e-06
4.14314e-05
5.57516e-06
4.67077e-05
5.70169e-06
5.64747e-05
6.17365e-06
7.25226e-05
5.74322e-06
1.44389e-05
0.00010806
3.02588e-05
-5.28058e-05
4.75592e-05
-5.75015e-05
2.20105e-05
-8.27896e-06
-5.62837e-06
9.53312e-06
-9.89436e-06
-6.93166e-06
-1.07268e-05
-9.7292e-06
-1.37677e-05
-8.60207e-06
-1.30427e-05
-1.19861e-05
-6.11803e-06
-1.59399e-05
3.15115e-06
-1.51338e-05
1.45062e-05
-1.40637e-05
2.7704e-05
-1.32086e-05
3.66549e-05
-6.16709e-06
4.02362e-05
1.0011e-06
4.04016e-05
5.45151e-06
3.81735e-05
8.99894e-06
3.80478e-05
6.33772e-06
4.00524e-05
3.28066e-06
4.28131e-05
2.81444e-06
4.74325e-05
1.0823e-06
5.53847e-05
-1.77851e-06
6.53327e-05
-4.20483e-06
-6.15423e-06
8.59258e-05
1.45811e-06
-5.42639e-05
-2.75818e-05
-2.84617e-05
-5.73965e-05
2.15356e-05
-7.08409e-05
2.29774e-05
-8.18422e-05
4.06964e-06
-0.00010582
1.42486e-05
-0.000132231
1.7809e-05
-0.000152151
7.93394e-06
-0.000163043
-5.04813e-06
-0.000157958
-2.02187e-05
-0.000129665
-4.23565e-05
-7.93874e-05
-6.34867e-05
-2.69007e-05
-5.86538e-05
-4.09202e-07
-2.54904e-05
1.25861e-05
-7.54382e-06
2.44369e-05
-2.85179e-06
3.75671e-05
-6.79253e-06
4.48368e-05
-3.98905e-06
4.66909e-05
9.60394e-07
4.92915e-05
-1.51837e-06
5.49197e-05
-7.40669e-06
6.24647e-05
-1.17499e-05
-1.70273e-05
7.33378e-05
-2.69559e-05
-2.73081e-05
-4.62604e-05
-9.1573e-06
-4.51911e-05
2.04661e-05
-3.30299e-05
1.08161e-05
-3.41248e-05
5.16444e-06
-4.05338e-05
2.06575e-05
-4.60111e-05
2.32863e-05
-5.31998e-05
1.51226e-05
-6.65752e-05
8.32718e-06
-8.74676e-05
6.73654e-07
-0.000115797
-1.40268e-05
-0.000141185
-3.80993e-05
-0.000154451
-4.5387e-05
-0.000144793
-3.51491e-05
-0.00012168
-3.06563e-05
-8.11213e-05
-4.34107e-05
-4.01274e-05
-4.77865e-05
-4.46432e-06
-3.96521e-05
1.46985e-05
-1.82024e-05
3.20555e-05
-1.88754e-05
4.85275e-05
-2.38787e-05
5.85415e-05
-2.17639e-05
-2.412e-05
6.56342e-05
-2.25021e-05
-4.80615e-06
-2.07653e-05
-1.08942e-05
-9.31755e-06
9.01824e-06
-5.0738e-06
6.57227e-06
-6.79508e-06
6.88564e-06
-2.72524e-06
1.65876e-05
4.0794e-06
1.64816e-05
8.97863e-06
1.02234e-05
1.15181e-05
5.78769e-06
8.22375e-06
3.96795e-06
-9.93485e-06
4.13174e-06
-4.16825e-05
-6.35165e-06
-6.62004e-05
-2.08691e-05
-6.68182e-05
-3.45313e-05
-6.06766e-05
-3.67979e-05
-6.73373e-05
-3.67501e-05
-7.94126e-05
-3.57112e-05
-8.72458e-05
-3.18188e-05
-7.9896e-05
-2.55521e-05
-6.24953e-05
-3.62761e-05
-2.17478e-05
-6.46263e-05
2.65069e-06
-4.61623e-05
-3.72913e-05
1.5822e-05
-8.60163e-06
3.79539e-06
-1.06793e-05
-8.81664e-06
-7.13541e-06
5.4742e-06
-6.90914e-06
6.34592e-06
-7.79977e-06
7.77622e-06
-3.96213e-06
1.27499e-05
-1.2495e-06
1.37689e-05
-1.13987e-06
1.01137e-05
1.32206e-06
3.32572e-06
8.67494e-06
-3.38497e-06
1.8645e-05
-5.83835e-06
1.58497e-05
-3.55633e-06
-1.64743e-06
-3.37202e-06
-1.2186e-05
-2.39927e-05
-1.00704e-05
-3.89135e-05
-1.01822e-05
-3.66382e-05
-1.38184e-05
-3.20749e-05
-1.44368e-05
-3.12004e-05
-9.88043e-06
-3.01085e-05
-9.24617e-06
-3.69103e-05
-2.0837e-05
-5.30354e-05
-3.18386e-05
-3.51608e-05
-5.66835e-06
-6.34616e-05
-6.07001e-06
9.86532e-06
-7.42418e-06
-7.46257e-06
-5.28632e-06
3.33627e-06
-4.81819e-06
5.87774e-06
-4.65774e-06
7.61574e-06
-1.95423e-06
1.00464e-05
1.071e-06
1.07437e-05
2.47297e-06
8.71167e-06
1.65294e-06
4.14571e-06
-1.65708e-07
-1.56638e-06
9.61893e-07
-6.96598e-06
5.56478e-06
-8.15922e-06
8.29428e-06
-6.1015e-06
2.13702e-06
-1.78354e-05
-4.64845e-06
-3.2128e-05
-5.88247e-06
-3.54041e-05
-3.51706e-06
-3.44403e-05
1.99706e-06
-3.67145e-05
1.31599e-05
-4.12714e-05
2.518e-05
-4.89304e-05
3.39345e-05
-6.17899e-05
5.44247e-05
-5.56508e-05
-1.69891e-05
6.57461e-05
-4.34152e-06
1.42068e-05
-5.18833e-06
-6.61584e-06
-4.32232e-06
2.47021e-06
-3.72133e-06
5.27673e-06
-2.66173e-06
6.55612e-06
-6.08891e-07
7.99353e-06
1.31451e-06
8.82025e-06
2.26698e-06
7.75917e-06
2.24031e-06
4.17233e-06
1.80178e-06
-1.1279e-06
8.1408e-07
-5.97831e-06
2.59394e-06
-9.93907e-06
7.2938e-06
-1.08013e-05
7.86295e-06
-1.84045e-05
4.23108e-06
-2.84961e-05
1.06719e-06
-3.22402e-05
5.46152e-07
-3.39192e-05
3.05084e-06
-3.92192e-05
9.00314e-06
-4.72236e-05
1.49815e-05
-5.49087e-05
2.24322e-05
-6.92406e-05
3.90606e-05
-7.22794e-05
-4.89179e-05
7.0989e-05
-3.2389e-06
1.74456e-05
-3.79485e-06
-6.05995e-06
-2.89957e-06
1.57489e-06
-2.31727e-06
4.69441e-06
-1.34735e-06
5.5862e-06
3.92447e-07
6.25373e-06
2.51882e-06
6.69386e-06
4.17655e-06
6.10141e-06
4.39885e-06
3.94999e-06
3.06885e-06
2.02075e-07
1.92712e-06
-4.83659e-06
1.62858e-06
-9.6405e-06
4.54182e-06
-1.37146e-05
5.84467e-06
-1.97073e-05
3.68978e-06
-2.63412e-05
1.72541e-06
-3.02758e-05
9.68181e-07
-3.3162e-05
8.7551e-07
-3.91264e-05
2.3752e-06
-4.87232e-05
6.17273e-06
-5.87061e-05
8.27186e-06
-7.13396e-05
1.56466e-05
-7.9654e-05
-6.63838e-05
3.31127e-05
-2.09704e-06
1.95426e-05
-2.55148e-06
-5.60557e-06
-2.14887e-06
1.17226e-06
-1.64921e-06
4.19475e-06
-8.43163e-07
4.78016e-06
4.7108e-07
4.9395e-06
2.22057e-06
4.94437e-06
3.94952e-06
4.37245e-06
5.24226e-06
2.65723e-06
5.76413e-06
-3.19799e-07
5.32761e-06
-4.40005e-06
4.58938e-06
-8.90224e-06
4.33164e-06
-1.34568e-05
3.07334e-06
-1.8449e-05
3.5793e-07
-2.36257e-05
-2.52604e-06
-2.73919e-05
-4.69405e-06
-3.0994e-05
-6.57791e-06
-3.72425e-05
-8.0071e-06
-4.7294e-05
-8.30317e-06
-5.841e-05
-1.0755e-05
-6.88877e-05
-1.33477e-05
-7.70612e-05
-7.03411e-05
-9.39058e-06
-1.24958e-06
2.07922e-05
-1.72269e-06
-5.13251e-06
-1.55575e-06
1.0053e-06
-1.22395e-06
3.86297e-06
-6.44835e-07
4.20107e-06
2.51043e-07
4.04366e-06
1.50862e-06
3.68683e-06
2.94394e-06
2.93715e-06
4.14707e-06
1.45412e-06
4.80176e-06
-9.74474e-07
4.66911e-06
-4.26736e-06
3.82579e-06
-8.05888e-06
2.42668e-06
-1.20577e-05
1.9774e-07
-1.622e-05
-3.02877e-06
-2.03993e-05
-6.35078e-06
-2.40699e-05
-9.39556e-06
-2.79492e-05
-1.27415e-05
-3.38966e-05
-1.71049e-05
-4.29304e-05
-2.23141e-05
-5.32009e-05
-2.88059e-05
-6.23959e-05
-3.78707e-05
-6.79965e-05
-6.31558e-05
-4.5056e-05
-6.68588e-07
2.14607e-05
-1.16958e-06
-4.63155e-06
-1.21042e-06
1.04614e-06
-1.06479e-06
3.71737e-06
-7.428e-07
3.87912e-06
-2.39093e-07
3.54002e-06
4.54302e-07
2.99351e-06
1.28613e-06
2.10537e-06
2.02324e-06
7.17077e-07
2.33561e-06
-1.28678e-06
1.97476e-06
-3.90644e-06
8.73481e-07
-6.95755e-06
-9.31714e-07
-1.02524e-05
-3.52893e-06
-1.36228e-05
-6.76996e-06
-1.71582e-05
-1.01638e-05
-2.06761e-05
-1.37036e-05
-2.44094e-05
-1.82405e-05
-2.93596e-05
-2.49496e-05
-3.62213e-05
-3.36313e-05
-4.45191e-05
-4.32839e-05
-5.27432e-05
-5.36767e-05
-5.76037e-05
-5.4336e-05
-6.24965e-05
-3.15904e-07
2.17766e-05
-8.45973e-07
-4.10149e-06
-1.05371e-06
1.25388e-06
-1.09327e-06
3.75697e-06
-1.0052e-06
3.79112e-06
-8.31584e-07
3.3665e-06
-5.89964e-07
2.75198e-06
-3.41318e-07
1.85681e-06
-2.1032e-07
5.86165e-07
-3.96466e-07
-1.10055e-06
-1.10745e-06
-3.19538e-06
-2.44895e-06
-5.61599e-06
-4.43578e-06
-8.26557e-06
-6.99895e-06
-1.10596e-05
-1.01324e-05
-1.40248e-05
-1.37102e-05
-1.70983e-05
-1.7758e-05
-2.03615e-05
-2.30334e-05
-2.40842e-05
-3.07175e-05
-2.85372e-05
-4.12654e-05
-3.39712e-05
-5.423e-05
-3.97786e-05
-6.84546e-05
-4.3379e-05
-4.10326e-05
-8.1758e-05
-1.41014e-07
2.19176e-05
-6.87534e-07
-3.55497e-06
-1.04205e-06
1.60842e-06
-1.24356e-06
3.95853e-06
-1.35879e-06
3.90643e-06
-1.43941e-06
3.44723e-06
-1.53571e-06
2.84839e-06
-1.7021e-06
2.0233e-06
-2.02933e-06
9.13502e-07
-2.63955e-06
-4.90227e-07
-3.65676e-06
-2.17808e-06
-5.16373e-06
-4.10895e-06
-7.2003e-06
-6.22896e-06
-9.77541e-06
-8.48453e-06
-1.29618e-05
-1.08385e-05
-1.67957e-05
-1.32644e-05
-2.13556e-05
-1.58016e-05
-2.69682e-05
-1.84716e-05
-3.43241e-05
-2.11814e-05
-4.44427e-05
-2.38526e-05
-5.81157e-05
-2.61056e-05
-7.49613e-05
-2.65335e-05
-2.2914e-05
-9.308e-05
-8.83759e-08
2.2006e-05
-6.61151e-07
-2.98218e-06
-1.12106e-06
2.06836e-06
-1.4593e-06
4.29681e-06
-1.74506e-06
4.19227e-06
-2.03491e-06
3.73718e-06
-2.37289e-06
3.18648e-06
-2.81678e-06
2.46729e-06
-3.43806e-06
1.53487e-06
-4.31319e-06
3.84998e-07
-5.52645e-06
-9.64742e-07
-7.14571e-06
-2.48964e-06
-9.22842e-06
-4.14624e-06
-1.18275e-05
-5.88549e-06
-1.50197e-05
-7.64624e-06
-1.89096e-05
-9.37452e-06
-2.3634e-05
-1.10772e-05
-2.93388e-05
-1.27668e-05
-3.62448e-05
-1.42754e-05
-4.4939e-05
-1.51585e-05
-5.63175e-05
-1.47271e-05
-7.07714e-05
-1.20796e-05
-6.38806e-06
-8.72974e-05
-1.07741e-07
2.21137e-05
-7.09178e-07
-2.38074e-06
-1.25842e-06
2.61763e-06
-1.70873e-06
4.74716e-06
-2.13153e-06
4.61513e-06
-2.58241e-06
4.18814e-06
-3.10382e-06
3.70796e-06
-3.73606e-06
3.09961e-06
-4.53966e-06
2.33855e-06
-5.57882e-06
1.42423e-06
-6.91441e-06
3.70911e-07
-8.60799e-06
-7.95994e-07
-1.07152e-05
-2.03902e-06
-1.32897e-05
-3.31094e-06
-1.63898e-05
-4.54619e-06
-2.00845e-05
-5.67982e-06
-2.44947e-05
-6.66686e-06
-2.98026e-05
-7.4589e-06
-3.61744e-05
-7.90361e-06
-4.36913e-05
-7.6415e-06
-5.23346e-05
-6.0839e-06
-6.19973e-05
-2.41691e-06
4.01743e-06
-7.24028e-05
-1.57314e-07
2.22711e-05
-7.99637e-07
-1.73841e-06
-1.42206e-06
3.24006e-06
-1.95219e-06
5.27732e-06
-2.48608e-06
5.14906e-06
-3.0652e-06
4.76731e-06
-3.72343e-06
4.36623e-06
-4.49232e-06
3.86855e-06
-5.42256e-06
3.26884e-06
-6.56564e-06
2.56735e-06
-7.97349e-06
1.77879e-06
-9.69818e-06
9.28721e-07
-1.17911e-05
5.39138e-08
-1.42989e-05
-8.03138e-07
-1.72714e-05
-1.57368e-06
-2.076e-05
-2.19116e-06
-2.48333e-05
-2.59345e-06
-2.959e-05
-2.70224e-06
-3.51391e-05
-2.35439e-06
-4.15285e-05
-1.25209e-06
-4.85795e-05
9.6706e-07
-5.58851e-05
4.88875e-06
1.10426e-05
-6.29103e-05
-2.16033e-07
2.24871e-05
-9.01924e-07
-1.05252e-06
-1.58081e-06
3.91895e-06
-2.18152e-06
5.87804e-06
-2.79706e-06
5.76463e-06
-3.4711e-06
5.44137e-06
-4.22268e-06
5.11784e-06
-5.09113e-06
4.73703e-06
-6.10675e-06
4.28448e-06
-7.31204e-06
3.77267e-06
-8.75061e-06
3.2174e-06
-1.0465e-05
2.64312e-06
-1.24922e-05
2.08118e-06
-1.48772e-05
1.58194e-06
-1.76525e-05
1.2016e-06
-2.0855e-05
1.01134e-06
-2.45272e-05
1.07885e-06
-2.87021e-05
1.47268e-06
-3.33922e-05
2.3357e-06
-3.85518e-05
3.90756e-06
-4.40671e-05
6.48248e-06
-4.95924e-05
1.04141e-05
1.60528e-05
-5.46026e-05
-2.71922e-07
2.2759e-05
-1.00194e-06
-3.22522e-07
-1.72511e-06
4.6421e-06
-2.37694e-06
6.52987e-06
-3.05057e-06
6.43827e-06
-3.78825e-06
6.17907e-06
-4.60831e-06
5.93792e-06
-5.53516e-06
5.6639e-06
-6.59909e-06
5.34844e-06
-7.8303e-06
5.00389e-06
-9.26069e-06
4.64781e-06
-1.09249e-05
4.30736e-06
-1.28569e-05
4.0132e-06
-1.50798e-05
3.80487e-06
-1.76199e-05
3.7418e-06
-2.04886e-05
3.88002e-06
-2.37098e-05
4.30013e-06
-2.72922e-05
5.05513e-06
-3.12184e-05
6.26198e-06
-3.54105e-05
8.09963e-06
-3.97127e-05
1.07848e-05
-4.38366e-05
1.4538e-05
1.9568e-05
-4.73518e-05
-3.16784e-07
2.30758e-05
-1.0888e-06
4.49482e-07
-1.8439e-06
5.3972e-06
-2.53052e-06
7.2165e-06
-3.24317e-06
7.15095e-06
-4.02219e-06
6.9581e-06
-4.87854e-06
6.79429e-06
-5.83458e-06
6.61996e-06
-6.91245e-06
6.42632e-06
-8.13691e-06
6.22837e-06
-9.53298e-06
6.04391e-06
-1.11243e-05
5.89877e-06
-1.29305e-05
5.81941e-06
-1.49746e-05
5.84905e-06
-1.72659e-05
6.03304e-06
-1.98141e-05
6.42833e-06
-2.26117e-05
7.09773e-06
-2.56473e-05
8.09081e-06
-2.88778e-05
9.4925e-06
-3.22237e-05
1.14456e-05
-3.55346e-05
1.40958e-05
-3.85711e-05
1.75746e-05
2.20042e-05
-4.10073e-05
-3.47085e-07
2.34229e-05
-1.15678e-06
1.25917e-06
-1.93333e-06
6.17376e-06
-2.64019e-06
7.92339e-06
-3.37735e-06
7.88815e-06
-4.17421e-06
7.755e-06
-5.04605e-06
7.66617e-06
-6.00864e-06
7.58259e-06
-7.07613e-06
7.49384e-06
-8.26877e-06
7.42104e-06
-9.60462e-06
7.37979e-06
-1.11007e-05
7.39489e-06
-1.27736e-05
7.49237e-06
-1.46321e-05
7.70756e-06
-1.66789e-05
8.07983e-06
-1.89063e-05
8.65577e-06
-2.13055e-05
9.4969e-06
-2.38469e-05
1.06322e-05
-2.64854e-05
1.21311e-05
-2.91281e-05
1.40884e-05
-3.16463e-05
1.6614e-05
-3.38448e-05
1.97731e-05
2.3645e-05
-3.54856e-05
-3.6226e-07
2.37851e-05
-1.20104e-06
2.09796e-06
-1.98841e-06
6.96116e-06
-2.70429e-06
8.63931e-06
-3.44928e-06
8.63319e-06
-4.25192e-06
8.55769e-06
-5.12119e-06
8.5355e-06
-6.06638e-06
8.52784e-06
-7.10483e-06
8.53233e-06
-8.2483e-06
8.56452e-06
-9.5108e-06
8.64229e-06
-1.09027e-05
8.78675e-06
-1.24333e-05
9.02299e-06
-1.41058e-05
9.38013e-06
-1.59162e-05
9.89021e-06
-1.7854e-05
1.05935e-05
-1.98937e-05
1.15367e-05
-2.20082e-05
1.27467e-05
-2.41425e-05
1.42656e-05
-2.62141e-05
1.616e-05
-2.81081e-05
1.85081e-05
-2.96764e-05
2.13415e-05
2.47054e-05
-3.07368e-05
-3.64123e-07
2.41493e-05
-1.22102e-06
2.95487e-06
-2.00791e-06
7.74808e-06
-2.72247e-06
9.35391e-06
-3.46476e-06
9.3755e-06
-4.25885e-06
9.35182e-06
-5.11074e-06
9.38743e-06
-6.02867e-06
9.44581e-06
-7.02383e-06
9.52752e-06
-8.106e-06
9.64671e-06
-9.28408e-06
9.82037e-06
-1.05648e-05
1.00675e-05
-1.19522e-05
1.04104e-05
-1.34445e-05
1.08725e-05
-1.50334e-05
1.14791e-05
-1.6704e-05
1.22641e-05
-1.843e-05
1.32626e-05
-2.01769e-05
1.44937e-05
-2.18979e-05
1.59866e-05
-2.35145e-05
1.77768e-05
-2.49307e-05
1.99243e-05
-2.6034e-05
2.24448e-05
2.53631e-05
-2.66918e-05
-3.54741e-07
2.4504e-05
-1.21374e-06
3.81388e-06
-1.98915e-06
8.52351e-06
-2.69402e-06
1.00588e-05
-3.42346e-06
1.0105e-05
-4.19901e-06
1.01274e-05
-5.02374e-06
1.02122e-05
-5.90422e-06
1.03263e-05
-6.84852e-06
1.04719e-05
-7.86329e-06
1.06615e-05
-8.95333e-06
1.09104e-05
-1.01217e-05
1.12359e-05
-1.13686e-05
1.16573e-05
-1.26898e-05
1.21937e-05
-1.40764e-05
1.28657e-05
-1.55102e-05
1.36979e-05
-1.69638e-05
1.47162e-05
-1.8408e-05
1.59379e-05
-1.97929e-05
1.73715e-05
-2.10518e-05
1.90358e-05
-2.21052e-05
2.09777e-05
-2.2871e-05
2.32107e-05
2.57456e-05
-2.32536e-05
-3.35251e-07
2.48393e-05
-1.17831e-06
4.65695e-06
-1.93025e-06
9.27546e-06
-2.61818e-06
1.07468e-05
-3.32655e-06
1.08134e-05
-4.07497e-06
1.08759e-05
-4.86483e-06
1.10021e-05
-5.70029e-06
1.11618e-05
-6.58754e-06
1.13591e-05
-7.52983e-06
1.16038e-05
-8.53086e-06
1.19115e-05
-9.59116e-06
1.22962e-05
-1.07084e-05
1.27746e-05
-1.18734e-05
1.33587e-05
-1.30794e-05
1.40717e-05
-1.43073e-05
1.49257e-05
-1.55302e-05
1.59391e-05
-1.67216e-05
1.71293e-05
-1.78362e-05
1.84861e-05
-1.88211e-05
2.00208e-05
-1.96056e-05
2.17621e-05
-2.01315e-05
2.37366e-05
2.5952e-05
-2.0338e-05
-3.04455e-07
2.51437e-05
-1.11416e-06
5.46664e-06
-1.83288e-06
9.99417e-06
-2.49574e-06
1.14096e-05
-3.17765e-06
1.14953e-05
-3.8904e-06
1.15886e-05
-4.63969e-06
1.17514e-05
-5.42495e-06
1.19471e-05
-6.25285e-06
1.21871e-05
-7.12411e-06
1.24751e-05
-8.03893e-06
1.28263e-05
-8.99615e-06
1.32535e-05
-9.99116e-06
1.37697e-05
-1.10187e-05
1.43863e-05
-1.20651e-05
1.51182e-05
-1.31153e-05
1.59759e-05
-1.41481e-05
1.69718e-05
-1.51303e-05
1.81115e-05
-1.60362e-05
1.9392e-05
-1.68134e-05
2.0798e-05
-1.74079e-05
2.23566e-05
-1.77699e-05
2.40986e-05
2.60515e-05
-1.78695e-05
-2.57972e-07
2.54017e-05
-1.02436e-06
6.23299e-06
-1.70269e-06
1.06725e-05
-2.33312e-06
1.20401e-05
-2.97767e-06
1.21399e-05
-3.65159e-06
1.22625e-05
-4.35189e-06
1.24516e-05
-5.08527e-06
1.26804e-05
-5.85033e-06
1.29521e-05
-6.64945e-06
1.32742e-05
-7.48164e-06
1.36586e-05
-8.34351e-06
1.41154e-05
-9.22924e-06
1.46554e-05
-1.01318e-05
1.52888e-05
-1.10418e-05
1.60282e-05
-1.1943e-05
1.68771e-05
-1.28135e-05
1.78423e-05
-1.36372e-05
1.89351e-05
-1.43807e-05
2.01355e-05
-1.50105e-05
2.14279e-05
-1.54744e-05
2.28203e-05
-1.57399e-05
2.43642e-05
2.61005e-05
-1.5789e-05
-1.91444e-07
2.55931e-05
-9.14479e-07
6.95603e-06
-1.54804e-06
1.13061e-05
-2.13979e-06
1.26319e-05
-2.74029e-06
1.27404e-05
-3.3643e-06
1.28866e-05
-4.01166e-06
1.3099e-05
-4.68491e-06
1.33536e-05
-5.38393e-06
1.36511e-05
-6.10917e-06
1.39994e-05
-6.8585e-06
1.44079e-05
-7.6284e-06
1.48853e-05
-8.41409e-06
1.54412e-05
-9.20456e-06
1.60793e-05
-9.99506e-06
1.68187e-05
-1.07704e-05
1.76524e-05
-1.15139e-05
1.85857e-05
-1.22057e-05
1.96269e-05
-1.28305e-05
2.07603e-05
-1.33565e-05
2.19539e-05
-1.37491e-05
2.32129e-05
-1.39721e-05
2.45871e-05
2.61439e-05
-1.40155e-05
-9.36475e-08
2.56868e-05
-7.90025e-07
7.65244e-06
-1.37852e-06
1.18947e-05
-1.92515e-06
1.31785e-05
-2.47447e-06
1.32898e-05
-3.04495e-06
1.34571e-05
-3.6308e-06
1.36848e-05
-4.23778e-06
1.39606e-05
-4.86503e-06
1.42783e-05
-5.51222e-06
1.46466e-05
-6.17248e-06
1.50681e-05
-6.85126e-06
1.55641e-05
-7.5364e-06
1.61263e-05
-8.22626e-06
1.67692e-05
-8.90491e-06
1.74973e-05
-9.56658e-06
1.83141e-05
-1.02008e-05
1.922e-05
-1.07828e-05
2.02089e-05
-1.13106e-05
2.1288e-05
-1.17688e-05
2.2412e-05
-1.21242e-05
2.35682e-05
-1.2342e-05
2.48048e-05
2.6224e-05
-1.24221e-05
3.70332e-08
2.56497e-05
-6.61363e-07
8.35087e-06
-1.20768e-06
1.2441e-05
-1.70343e-06
1.36743e-05
-2.19801e-06
1.37845e-05
-2.70952e-06
1.39686e-05
-3.23071e-06
1.4206e-05
-3.76646e-06
1.44963e-05
-4.31512e-06
1.4827e-05
-4.87525e-06
1.52067e-05
-5.44844e-06
1.56413e-05
-6.02782e-06
1.61435e-05
-6.61197e-06
1.67105e-05
-7.18888e-06
1.73461e-05
-7.75914e-06
1.80676e-05
-8.30977e-06
1.88647e-05
-8.83114e-06
1.97413e-05
-9.31496e-06
2.06927e-05
-9.75036e-06
2.17234e-05
-1.01393e-05
2.28009e-05
-1.04571e-05
2.3886e-05
-1.06846e-05
2.50322e-05
2.63391e-05
-1.07997e-05
1.96359e-07
2.54534e-05
-5.28126e-07
9.07535e-06
-1.04381e-06
1.29566e-05
-1.48845e-06
1.4119e-05
-1.92842e-06
1.42245e-05
-2.37957e-06
1.44198e-05
-2.84075e-06
1.46672e-05
-3.30414e-06
1.49597e-05
-3.77316e-06
1.52959e-05
-4.24782e-06
1.56813e-05
-4.72807e-06
1.61215e-05
-5.20711e-06
1.66225e-05
-5.67874e-06
1.71821e-05
-6.14727e-06
1.78147e-05
-6.59613e-06
1.85165e-05
-7.02846e-06
1.92971e-05
-7.42933e-06
2.01422e-05
-7.79629e-06
2.10597e-05
-8.11416e-06
2.20412e-05
-8.39716e-06
2.30838e-05
-8.64505e-06
2.41339e-05
-8.82785e-06
2.5215e-05
2.64373e-05
-8.92608e-06
3.56871e-07
2.50965e-05
-3.97767e-07
9.82992e-06
-8.95938e-07
1.34547e-05
-1.2995e-06
1.45226e-05
-1.69078e-06
1.46158e-05
-2.09415e-06
1.48232e-05
-2.49536e-06
1.50684e-05
-2.89532e-06
1.53596e-05
-3.29301e-06
1.56935e-05
-3.68787e-06
1.60761e-05
-4.07775e-06
1.65114e-05
-4.45836e-06
1.70032e-05
-4.83151e-06
1.75553e-05
-5.18754e-06
1.81707e-05
-5.52229e-06
1.88513e-05
-5.8229e-06
1.95977e-05
-6.09025e-06
2.04096e-05
-6.31043e-06
2.12798e-05
-6.4943e-06
2.22251e-05
-6.62525e-06
2.32148e-05
-6.71722e-06
2.42258e-05
-6.76435e-06
2.52621e-05
2.64099e-05
-6.73702e-06
5.17471e-07
2.4579e-05
-2.81494e-07
1.06288e-05
-7.77536e-07
1.39508e-05
-1.14573e-06
1.48908e-05
-1.50265e-06
1.49728e-05
-1.86928e-06
1.51899e-05
-2.23061e-06
1.54298e-05
-2.58176e-06
1.57107e-05
-2.92084e-06
1.60325e-05
-3.25463e-06
1.64098e-05
-3.57618e-06
1.68329e-05
-3.88197e-06
1.7309e-05
-4.16782e-06
1.78412e-05
-4.42615e-06
1.84291e-05
-4.65124e-06
1.90764e-05
-4.83658e-06
1.9783e-05
-4.97281e-06
2.05458e-05
-5.05989e-06
2.13669e-05
-5.07815e-06
2.22433e-05
-5.02783e-06
2.31644e-05
-4.9072e-06
2.41051e-05
-4.72719e-06
2.5082e-05
2.61403e-05
-4.45764e-06
6.74266e-07
2.39047e-05
-1.798e-07
1.14827e-05
-6.83784e-07
1.44547e-05
-1.0297e-06
1.52367e-05
-1.37568e-06
1.53188e-05
-1.7177e-06
1.5532e-05
-2.05016e-06
1.57622e-05
-2.37176e-06
1.60322e-05
-2.68411e-06
1.63448e-05
-2.97875e-06
1.67044e-05
-3.25606e-06
1.71102e-05
-3.51093e-06
1.75638e-05
-3.73802e-06
1.80683e-05
-3.93261e-06
1.86237e-05
-4.08546e-06
1.92292e-05
-4.1856e-06
1.98832e-05
-4.22663e-06
2.05868e-05
-4.19521e-06
2.13355e-05
-4.07781e-06
2.21259e-05
-3.85527e-06
2.29418e-05
-3.54444e-06
2.37941e-05
-3.12009e-06
2.46575e-05
2.55814e-05
-2.56124e-06
8.05662e-07
2.3099e-05
-9.85204e-08
1.23868e-05
-6.11897e-07
1.49681e-05
-9.49286e-07
1.55741e-05
-1.29093e-06
1.56605e-05
-1.62297e-06
1.5864e-05
-1.94228e-06
1.60815e-05
-2.25235e-06
1.63422e-05
-2.54738e-06
1.66398e-05
-2.82518e-06
1.69821e-05
-3.08356e-06
1.73686e-05
-3.31812e-06
1.77984e-05
-3.52159e-06
1.82717e-05
-3.68826e-06
1.87903e-05
-3.80631e-06
1.93472e-05
-3.86672e-06
1.99436e-05
-3.85863e-06
2.05788e-05
-3.7661e-06
2.1243e-05
-3.57163e-06
2.19314e-05
-3.26831e-06
2.26384e-05
-2.82663e-06
2.33523e-05
-2.23527e-06
2.4066e-05
2.48171e-05
-1.47108e-06
8.99314e-07
2.21996e-05
-3.39252e-08
1.33199e-05
-5.49552e-07
1.54837e-05
-8.81222e-07
1.59058e-05
-1.22326e-06
1.60025e-05
-1.54852e-06
1.61892e-05
-1.86327e-06
1.63962e-05
-2.16428e-06
1.66432e-05
-2.45316e-06
1.69286e-05
-2.72685e-06
1.72558e-05
-2.98065e-06
1.76223e-05
-3.2133e-06
1.80309e-05
-3.4135e-06
1.84718e-05
-3.57726e-06
1.89539e-05
-3.69603e-06
1.94659e-05
-3.75377e-06
2.00013e-05
-3.74478e-06
2.05698e-05
-3.65118e-06
2.11494e-05
-3.45364e-06
2.17339e-05
-3.14089e-06
2.23256e-05
-2.68176e-06
2.28931e-05
-2.0589e-06
2.3443e-05
2.40008e-05
-1.24266e-06
9.53355e-07
2.12461e-05
1.66995e-08
1.42565e-05
-4.87886e-07
1.59882e-05
-8.08668e-07
1.62265e-05
-1.14365e-06
1.63375e-05
-1.45858e-06
1.65041e-05
-1.76179e-06
1.66993e-05
-2.05546e-06
1.69368e-05
-2.33669e-06
1.72098e-05
-2.6066e-06
1.75257e-05
-2.85681e-06
1.78725e-05
-3.0926e-06
1.82666e-05
-3.28989e-06
1.8669e-05
-3.46354e-06
1.91275e-05
-3.59849e-06
1.96008e-05
-3.6667e-06
2.00695e-05