/*--------------------------------*- C++ -*----------------------------------*\
| =========                 |                                                 |
| \\      /  F ield         | OpenFOAM: The Open Source CFD Toolbox           |
|  \\    /   O peration     | Version:  5.x                                   |
|   \\  /    A nd           | Web:      www.OpenFOAM.org                      |
|    \\/     M anipulation  |                                                 |
\*---------------------------------------------------------------------------*/
FoamFile
{
    version     2.0;
    format      ascii;
    class       volVectorField;
    location    "0.55";
    object      U;
}
// * * * * * * * * * * * * * * * * * * * * * * * * * * * * * * * * * * * * * //

dimensions      [0 1 -1 0 0 0 0];

internalField   nonuniform List<vector> 
2268
(
(-0.0257514 0.00934497 0)
(-0.0580991 0.00644143 0)
(-0.065926 -0.00160179 0)
(-0.0439368 -0.00694596 0)
(-0.0048902 -0.010987 0)
(0.0475895 -0.0130936 0)
(0.102676 -0.0125476 0)
(0.151496 -0.00988664 0)
(0.187265 -0.00647557 0)
(0.208506 -0.0033656 0)
(0.217534 -0.000825871 0)
(0.217125 0.00154813 0)
(0.208266 0.00381516 0)
(0.192456 0.00610723 0)
(0.169458 0.00905568 0)
(0.136865 0.0132905 0)
(0.0888944 0.0183433 0)
(0.0242643 0.0201374 0)
(-0.0529062 0.00394055 0)
(-0.0574896 0.00724815 0)
(-0.184059 0.0240294 0)
(-0.234854 -0.010165 0)
(-0.0852468 -0.0516756 0)
(-0.036165 0.0289081 0)
(-0.0573689 0.0151791 0)
(-0.0591644 -0.00665941 0)
(-0.0372693 -0.0213497 0)
(-0.000232079 -0.0328755 0)
(0.0508899 -0.0393396 0)
(0.105573 -0.0378355 0)
(0.154018 -0.0299098 0)
(0.189078 -0.0197427 0)
(0.209694 -0.0105486 0)
(0.218746 -0.00330591 0)
(0.220191 0.00235918 0)
(0.21787 0.00702203 0)
(0.213009 0.011283 0)
(0.206339 0.0163453 0)
(0.198044 0.0238924 0)
(0.183131 0.0349722 0)
(0.152982 0.0477893 0)
(0.0770784 0.0430851 0)
(0.00551121 0.0457446 0)
(-0.15156 0.055999 0)
(-0.146255 -0.0213197 0)
(-0.0450951 -0.124259 0)
(-0.0317188 0.0477239 0)
(-0.0429417 0.0209426 0)
(-0.0452746 -0.0121296 0)
(-0.0269691 -0.0339566 0)
(0.0038525 -0.052437 0)
(0.0513698 -0.0644452 0)
(0.105056 -0.0626051 0)
(0.152987 -0.049266 0)
(0.186794 -0.0321571 0)
(0.20574 -0.0170082 0)
(0.213525 -0.00549977 0)
(0.21406 0.00273109 0)
(0.209955 0.00870965 0)
(0.202961 0.0135129 0)
(0.19467 0.0184906 0)
(0.187586 0.0258954 0)
(0.183805 0.0385007 0)
(0.18728 0.0589706 0)
(0.166496 0.0739213 0)
(0.121589 0.0933671 0)
(-0.000846821 0.0940401 0)
(-0.0450558 -0.0365729 0)
(0.0150395 -0.154933 0)
(-0.0226969 0.0614459 0)
(-0.0240311 0.0247922 0)
(-0.0237872 -0.016397 0)
(-0.0109716 -0.0433713 0)
(0.0137366 -0.0694118 0)
(0.0561391 -0.0886648 0)
(0.105804 -0.0872828 0)
(0.150618 -0.0682764 0)
(0.181946 -0.0438013 0)
(0.199025 -0.0227516 0)
(0.205815 -0.00735504 0)
(0.20634 0.00361082 0)
(0.203008 0.0114818 0)
(0.197191 0.0174694 0)
(0.189916 0.0228364 0)
(0.182564 0.0293472 0)
(0.176643 0.0389201 0)
(0.180564 0.0568435 0)
(0.190796 0.0811621 0)
(0.198766 0.117344 0)
(0.155573 0.128539 0)
(0.115803 -0.00844904 0)
(0.0788767 -0.129242 0)
(-0.0114637 0.0680244 0)
(0.00278167 0.0232086 0)
(0.00898362 -0.0201704 0)
(0.0230057 -0.0516196 0)
(0.0485701 -0.0852081 0)
(0.0842367 -0.110603 0)
(0.121416 -0.109287 0)
(0.154249 -0.0850923 0)
(0.1773 -0.0540043 0)
(0.190104 -0.027601 0)
(0.195791 -0.00879443 0)
(0.197021 0.0041782 0)
(0.195221 0.0133422 0)
(0.191497 0.0201548 0)
(0.18681 0.0259088 0)
(0.182089 0.032232 0)
(0.17812 0.0401345 0)
(0.17852 0.052957 0)
(0.189188 0.0730441 0)
(0.220688 0.111004 0)
(0.240873 0.133559 0)
(0.211628 0.0296782 0)
(0.133035 -0.0726038 0)
(0.000952332 0.0648375 0)
(0.0387641 0.0169898 0)
(0.0604779 -0.0271769 0)
(0.0897709 -0.060363 0)
(0.124459 -0.0976387 0)
(0.149165 -0.124446 0)
(0.162366 -0.121736 0)
(0.172398 -0.0940976 0)
(0.179477 -0.0598249 0)
(0.183078 -0.0310904 0)
(0.185262 -0.0102805 0)
(0.186879 0.0036705 0)
(0.187158 0.0138326 0)
(0.185983 0.0212472 0)
(0.184009 0.0272483 0)
(0.182028 0.033462 0)
(0.181117 0.0406717 0)
(0.18354 0.0507916 0)
(0.190884 0.0642279 0)
(0.215231 0.0911975 0)
(0.26104 0.119292 0)
(0.249972 0.0666263 0)
(0.161609 0.0168195 0)
(0.0155552 0.0481163 0)
(0.0789731 -0.00407253 0)
(0.134102 -0.0426781 0)
(0.193553 -0.0721917 0)
(0.234748 -0.105261 0)
(0.237662 -0.125847 0)
(0.218741 -0.119922 0)
(0.202774 -0.0910763 0)
(0.192566 -0.0570688 0)
(0.185144 -0.0303238 0)
(0.180591 -0.0112069 0)
(0.179333 0.00417165 0)
(0.180089 0.0155462 0)
(0.180901 0.0232542 0)
(0.181698 0.0285918 0)
(0.182482 0.0337298 0)
(0.18409 0.0389618 0)
(0.189193 0.0466757 0)
(0.198508 0.057305 0)
(0.212515 0.0741622 0)
(0.252593 0.103006 0)
(0.261084 0.0921937 0)
(0.198342 0.0947594 0)
(0.0290408 0.0190594 0)
(0.121359 -0.0345646 0)
(0.225169 -0.0771919 0)
(0.311097 -0.104445 0)
(0.335445 -0.118238 0)
(0.302541 -0.119566 0)
(0.255796 -0.108295 0)
(0.225594 -0.0816057 0)
(0.208487 -0.048956 0)
(0.197248 -0.0235119 0)
(0.190023 -0.00806154 0)
(0.184999 0.00232416 0)
(0.181228 0.0106023 0)
(0.179067 0.0178184 0)
(0.179284 0.0251637 0)
(0.181283 0.0330916 0)
(0.185265 0.0393445 0)
(0.193506 0.0452831 0)
(0.20698 0.0537668 0)
(0.221464 0.0642983 0)
(0.246292 0.0912467 0)
(0.271484 0.121506 0)
(0.188337 0.253572 0)
(0.1104 -0.113108 0)
(0.565605 -0.214818 0)
(1.26838 -0.181919 0)
(1.96197 -0.134798 0)
(2.16779 -0.0999741 0)
(1.84867 0.25671 0)
(-0.959455 0.202298 0)
(-2.1022 0.000127813 0)
(-2.69968 -0.228466 0)
(-2.6746 -0.227753 0)
(-2.42892 -0.146948 0)
(-2.28307 -0.0943959 0)
(-2.13171 -0.0377583 0)
(-1.97409 0.00935222 0)
(-1.81441 0.0296457 0)
(-1.63739 0.0295177 0)
(-1.348 0.00480585 0)
(-0.805667 -0.0860933 0)
(-0.162554 -0.0789629 0)
(-0.0636175 -0.207213 0)
(0.0797472 -0.252813 0)
(0.371978 -0.561617 0)
(1.16059 -0.267409 0)
(2.70003 0.136648 0)
(1.39761 1.1131 0)
(-2.47536 1.01984 0)
(-3.93304 0.663421 0)
(-4.27325 0.241998 0)
(-3.97619 0.0690808 0)
(-4.04032 -0.0744829 0)
(-3.54892 -0.0937689 0)
(-3.20388 -0.128722 0)
(-2.97202 -0.181447 0)
(-2.6953 -0.232779 0)
(-2.32448 -0.25701 0)
(-1.76011 -0.309305 0)
(-0.937145 -0.488802 0)
(-0.165637 -0.293038 0)
(-0.205906 -0.0746019 0)
(-0.11278 -0.437016 0)
(0.0554883 -0.836048 0)
(0.327695 -0.672109 0)
(1.59114 0.0338455 0)
(-0.0615427 2.15288 0)
(-3.10525 1.95689 0)
(-3.46919 1.06576 0)
(-3.08256 0.25941 0)
(-3.99025 -0.128581 0)
(-4.36034 -0.210915 0)
(-4.23486 -0.282155 0)
(-4.08555 -0.225656 0)
(-3.92627 -0.223452 0)
(-3.75036 -0.33867 0)
(-3.38957 -0.455459 0)
(-2.39942 -0.638384 0)
(-1.02445 -1.07722 0)
(-0.152192 -0.541469 0)
(-0.189497 -0.0315973 0)
(-0.009409 -0.500164 0)
(0.121269 -0.85055 0)
(0.0443006 -0.700847 0)
(1.36961 0.283186 0)
(-0.801963 2.91896 0)
(-3.11982 2.59042 0)
(-2.33872 1.29847 0)
(-2.66095 0.502986 0)
(-3.79233 0.230926 0)
(-3.84315 -0.0712959 0)
(-3.39967 -0.29834 0)
(-2.87879 -0.269998 0)
(-2.69933 -0.242346 0)
(-2.78239 -0.431695 0)
(-3.05439 -0.569474 0)
(-2.39491 -0.811996 0)
(-0.952006 -1.66548 0)
(-0.115365 -0.839045 0)
(-0.104831 -0.00778651 0)
(0.149153 -0.535857 0)
(0.232494 -0.846534 0)
(0.0878595 -0.922236 0)
(1.13587 0.30401 0)
(-0.980041 3.64379 0)
(-2.12176 2.74637 0)
(-1.71884 1.47362 0)
(-2.75202 0.76961 0)
(-3.79253 0.303841 0)
(-3.9051 -0.225127 0)
(-3.41004 -0.650304 0)
(-2.44986 -0.687367 0)
(-1.34675 -0.359701 0)
(-0.8644 -0.334117 0)
(-1.41213 -0.558588 0)
(-1.376 -1.02893 0)
(-0.74233 -2.06536 0)
(0.0144818 -1.09933 0)
(0.0143537 -0.0105 0)
(0.296867 -0.605168 0)
(0.340455 -0.845675 0)
(0.218711 -0.9449 0)
(0.742427 0.0187535 0)
(-0.42836 4.37048 0)
(-0.656911 3.09627 0)
(-1.81009 1.67394 0)
(-2.58823 1.19542 0)
(-3.54045 0.565106 0)
(-3.77625 -0.192268 0)
(-3.41621 -0.884943 0)
(-2.64305 -1.19208 0)
(-1.59225 -0.998897 0)
(-0.487761 -0.734541 0)
(0.518109 -0.155424 0)
(-0.691594 -0.894503 0)
(-0.597707 -2.25672 0)
(0.109471 -1.28296 0)
(0.213344 -0.156591 0)
(0.451172 -0.67095 0)
(0.422059 -0.83321 0)
(0.30499 -0.903026 0)
(0.446419 0.226433 0)
(0.377487 4.81813 0)
(0.178741 3.46145 0)
(-1.64416 1.93616 0)
(-2.14721 1.57808 0)
(-3.03922 0.785345 0)
(-3.29883 -0.18292 0)
(-2.98745 -1.08978 0)
(-2.346 -1.53001 0)
(-1.52258 -1.40806 0)
(-0.752388 -1.16343 0)
(0.0348907 -0.471839 0)
(0.0933861 -0.159269 0)
(-0.469198 -2.30014 0)
(0.147286 -1.43907 0)
(0.472694 -0.371668 0)
(0.576646 -0.703262 0)
(0.472048 -0.795715 0)
(0.340753 -0.860095 0)
(0.336493 -0.269456 0)
(1.06403 4.81157 0)
(0.631929 3.86439 0)
(-0.86477 2.31667 0)
(-1.32392 1.97737 0)
(-2.35115 0.982528 0)
(-2.62753 -0.146978 0)
(-2.3848 -1.36466 0)
(-1.78149 -1.964 0)
(-0.983216 -1.72034 0)
(-0.81569 -1.39021 0)
(-0.318541 -0.806059 0)
(1.1155 -0.615387 0)
(-0.305621 -2.14742 0)
(0.164222 -1.54838 0)
(0.0448672 -0.0510513 0)
(0.189591 -0.133639 0)
(0.319316 -0.171166 0)
(0.353603 -0.153649 0)
(0.313859 -0.118162 0)
(0.248198 -0.0947828 0)
(0.199198 -0.0866524 0)
(0.177531 -0.0742458 0)
(0.175991 -0.051046 0)
(0.183233 -0.0242447 0)
(0.191524 -0.000982521 0)
(0.198401 0.0163499 0)
(0.201872 0.0297553 0)
(0.200925 0.0353872 0)
(0.197633 0.0324287 0)
(0.192959 0.0292573 0)
(0.190754 0.0251258 0)
(0.19708 0.0259399 0)
(0.212227 0.0350349 0)
(0.237458 0.0453227 0)
(0.270723 0.0620013 0)
(0.358107 0.0738205 0)
(0.456451 0.208591 0)
(0.0782301 -0.178112 0)
(0.229246 -0.317137 0)
(0.245202 -0.211305 0)
(-0.00220924 -0.0397523 0)
(-0.0488998 -0.00612873 0)
(-0.0499597 -0.024259 0)
(-0.0693431 -0.0450315 0)
(-0.0836241 -0.0547541 0)
(-0.0566689 -0.0549389 0)
(-0.00800766 -0.0476091 0)
(0.0424253 -0.0347249 0)
(0.113042 -0.0177118 0)
(0.181218 -0.00476163 0)
(0.213537 0.00871223 0)
(0.222005 0.0259637 0)
(0.213156 0.0457571 0)
(0.202409 0.0439677 0)
(0.207056 0.0314234 0)
(0.221177 0.0245959 0)
(0.240858 0.0174272 0)
(0.272863 0.0127873 0)
(0.31674 0.00228411 0)
(0.401588 -0.0123892 0)
(0.031199 -0.39331 0)
(-0.0268473 -0.302136 0)
(-0.243047 0.0981439 0)
(-0.371899 0.139916 0)
(-0.383842 -0.0393588 0)
(-0.496558 -0.0479171 0)
(-0.648539 -0.0225326 0)
(-0.777088 -0.0477519 0)
(-0.867411 -0.0865298 0)
(-0.896005 -0.113153 0)
(-0.819875 -0.155786 0)
(-0.572889 -0.152542 0)
(-0.241448 -0.0620548 0)
(-0.0419454 0.00313396 0)
(0.0379407 0.0295622 0)
(0.103 0.0468967 0)
(0.168258 0.0268767 0)
(0.232509 0.00694002 0)
(0.253394 0.0075818 0)
(0.254779 -0.00719649 0)
(0.274576 -0.0359121 0)
(0.312171 -0.0568649 0)
(0.363745 -0.0720187 0)
(-0.103089 -0.201768 0)
(-0.207572 0.014501 0)
(-0.260744 0.175919 0)
(-0.236641 0.102494 0)
(-0.130612 0.0541264 0)
(-0.210086 0.157245 0)
(-0.24735 0.172665 0)
(-0.255495 0.106558 0)
(-0.301581 0.0111174 0)
(-0.397112 -0.112263 0)
(-0.542727 -0.26381 0)
(-0.707998 -0.459583 0)
(-0.833268 -0.448803 0)
(-0.855422 -0.225197 0)
(-0.740184 -0.114747 0)
(-0.519623 -0.0878074 0)
(-0.320537 -0.101624 0)
(-0.0852938 -0.0423499 0)
(0.0408097 0.00682365 0)
(0.126562 -0.00524933 0)
(0.220575 -0.0320631 0)
(0.294542 -0.054829 0)
(0.334925 -0.0919383 0)
(-0.122813 -0.0775195 0)
(-0.122977 -0.103264 0)
(-0.098719 0.0474923 0)
(-0.0126995 0.0286672 0)
(-0.0322508 0.0190838 0)
(-0.0382114 0.0947629 0)
(0.00387103 0.110697 0)
(0.0410287 0.081513 0)
(0.0572948 0.0880521 0)
(0.0657014 0.118285 0)
(0.0299654 0.124822 0)
(-0.149229 -0.0142899 0)
(-0.328009 -0.158657 0)
(-0.36293 -0.214577 0)
(-0.316946 -0.217945 0)
(-0.334939 -0.325956 0)
(-0.414665 -0.351573 0)
(-0.465466 -0.314361 0)
(-0.506793 -0.203258 0)
(-0.411349 -0.233114 0)
(-0.186735 -0.239709 0)
(-0.0308638 -0.172377 0)
(0.0618408 -0.160845 0)
(-0.0530092 0.0121289 0)
(-0.0453478 -0.0344694 0)
(-0.0599114 0.0439651 0)
(-0.0260385 0.0366522 0)
(-0.0438541 0.042693 0)
(-0.0350967 0.072131 0)
(-0.00992496 0.0689055 0)
(-0.00585202 0.0368985 0)
(-0.00545147 -0.0127634 0)
(0.0219104 -0.0604081 0)
(0.0691394 -0.0636619 0)
(0.120369 -0.0314754 0)
(0.04172 -0.0265693 0)
(-0.0616522 -0.141403 0)
(-0.0542851 -0.181986 0)
(-0.0568422 -0.121969 0)
(-0.0630851 -0.0998388 0)
(-0.0816255 -0.105554 0)
(-0.0608791 -0.10333 0)
(-0.0421156 -0.143651 0)
(-0.0786086 -0.382919 0)
(-0.116104 -0.249573 0)
(-0.186586 -0.160821 0)
(-0.0343723 0.0349544 0)
(-0.0338781 -0.0484753 0)
(-0.0410304 0.016909 0)
(-0.0214109 0.0329064 0)
(-0.0278275 0.0461366 0)
(-0.0193257 0.0646254 0)
(-0.00172012 0.0710354 0)
(0.0126202 0.0616501 0)
(0.014366 0.0404198 0)
(0.00197947 0.0118362 0)
(-0.00269243 -0.0147437 0)
(0.0108867 -0.0183361 0)
(0.0510896 -0.0202607 0)
(0.0321177 -0.113973 0)
(-0.00441269 -0.212209 0)
(-0.0418757 -0.235267 0)
(-0.027611 -0.20534 0)
(-0.00889401 -0.19055 0)
(0.0358736 -0.185832 0)
(0.0972116 -0.220179 0)
(0.155897 -0.264453 0)
(0.232562 -0.210199 0)
(0.356537 0.0598352 0)
(-0.0230167 0.0663189 0)
(-0.0250373 -0.0372939 0)
(-0.0288618 0.0179108 0)
(-0.0203913 0.0295406 0)
(-0.0182845 0.0367747 0)
(-0.00927926 0.0464478 0)
(0.00267346 0.0500785 0)
(0.0107748 0.0394548 0)
(0.013782 0.0113153 0)
(0.0122621 -0.0217192 0)
(0.00567643 -0.0473563 0)
(0.00178412 -0.0576322 0)
(0.0271118 -0.0389302 0)
(0.0485703 -0.0812925 0)
(0.0393956 -0.145723 0)
(0.00967798 -0.167056 0)
(-0.000636716 -0.184422 0)
(0.00800806 -0.219532 0)
(0.0287718 -0.264007 0)
(0.0629184 -0.302128 0)
(0.0996061 -0.383446 0)
(0.146507 -0.375491 0)
(0.278951 -0.215588 0)
(-0.0156227 0.0866289 0)
(-0.0188314 -0.0345881 0)
(-0.0200837 0.00955795 0)
(-0.0133807 0.0269844 0)
(-0.0107329 0.0331409 0)
(-0.0032498 0.0385855 0)
(0.00753286 0.0425359 0)
(0.0189893 0.0400623 0)
(0.0247863 0.0287088 0)
(0.0209057 0.00463292 0)
(0.0130605 -0.0257845 0)
(0.0061338 -0.0572004 0)
(0.012502 -0.0796247 0)
(0.0346131 -0.11535 0)
(0.0294254 -0.154045 0)
(0.0128208 -0.171736 0)
(0.00461375 -0.18152 0)
(0.00767612 -0.206751 0)
(0.00310373 -0.252893 0)
(0.025173 -0.301229 0)
(0.0420457 -0.377395 0)
(0.046264 -0.416372 0)
(0.113242 -0.327793 0)
(-0.00949842 0.101584 0)
(-0.0122403 -0.0312924 0)
(-0.0143106 0.00719996 0)
(-0.0101259 0.0237047 0)
(-0.00735556 0.0275462 0)
(-0.00165035 0.0294758 0)
(0.00663461 0.0306061 0)
(0.0166401 0.0276275 0)
(0.0253971 0.0168447 0)
(0.0303038 -0.00145196 0)
(0.0297951 -0.0234469 0)
(0.0265015 -0.0487054 0)
(0.0238237 -0.0732728 0)
(0.0222655 -0.10303 0)
(0.0116651 -0.134962 0)
(-0.00686383 -0.155826 0)
(-0.020333 -0.17474 0)
(-0.0280697 -0.210659 0)
(-0.0415017 -0.265753 0)
(-0.040522 -0.326165 0)
(-0.0443223 -0.387149 0)
(-0.075946 -0.429012 0)
(-0.0761851 -0.377377 0)
(-0.00490084 0.110335 0)
(-0.00789791 -0.0287684 0)
(-0.0100751 0.00566211 0)
(-0.00760395 0.0215505 0)
(-0.00555438 0.0239333 0)
(-0.0015775 0.0237695 0)
(0.00416763 0.022605 0)
(0.011711 0.0190483 0)
(0.0193143 0.0110078 0)
(0.0246149 -0.00329196 0)
(0.0260532 -0.0233061 0)
(0.0237045 -0.0459454 0)
(0.0179021 -0.0697623 0)
(0.00875466 -0.0951425 0)
(-0.00610202 -0.119691 0)
(-0.0258575 -0.138752 0)
(-0.0414664 -0.158895 0)
(-0.0571945 -0.192392 0)
(-0.0773877 -0.245371 0)
(-0.101208 -0.305092 0)
(-0.132934 -0.357912 0)
(-0.185687 -0.392778 0)
(-0.233166 -0.355191 0)
(-0.00180436 0.114852 0)
(-0.00496067 -0.0261637 0)
(-0.0073545 0.00531526 0)
(-0.006299 0.0203079 0)
(-0.00524926 0.021552 0)
(-0.00299546 0.0200457 0)
(0.000233081 0.0173671 0)
(0.00451127 0.0127099 0)
(0.00904643 0.00488607 0)
(0.0122423 -0.00691725 0)
(0.0124184 -0.0227326 0)
(0.00871141 -0.0411299 0)
(0.00085116 -0.0606848 0)
(-0.0106661 -0.0808958 0)
(-0.0267737 -0.10142 0)
(-0.0451902 -0.120766 0)
(-0.0627806 -0.141517 0)
(-0.0823388 -0.171401 0)
(-0.110639 -0.215018 0)
(-0.15216 -0.26618 0)
(-0.205291 -0.314373 0)
(-0.266338 -0.343698 0)
(-0.323262 -0.322697 0)
(1.77227e-05 0.117161 0)
(-0.00316853 -0.02338 0)
(-0.00584148 0.00606677 0)
(-0.00597166 0.0200258 0)
(-0.00590247 0.0204724 0)
(-0.00515384 0.0182803 0)
(-0.00401211 0.015026 0)
(-0.00257449 0.0100281 0)
(-0.00128943 0.002704 0)
(-0.00110939 -0.00731642 0)
(-0.00325846 -0.0199483 0)
(-0.00862555 -0.0345592 0)
(-0.0174715 -0.0504294 0)
(-0.0295853 -0.0668866 0)
(-0.044923 -0.0843733 0)
(-0.063153 -0.102179 0)
(-0.0830116 -0.121229 0)
(-0.106117 -0.144273 0)
(-0.138631 -0.174047 0)
(-0.187144 -0.211188 0)
(-0.253627 -0.250251 0)
(-0.332295 -0.275222 0)
(-0.408963 -0.266241 0)
(0.000868611 0.118107 0)
(-0.00224636 -0.0205261 0)
(-0.00521564 0.00762961 0)
(-0.0063218 0.020705 0)
(-0.00716257 0.0205822 0)
(-0.00764436 0.0181042 0)
(-0.00806381 0.0147773 0)
(-0.00868144 0.0100417 0)
(-0.00985578 0.00352656 0)
(-0.0121429 -0.00486565 0)
(-0.0162705 -0.0150248 0)
(-0.0228745 -0.0266564 0)
(-0.0322707 -0.0394074 0)
(-0.0445071 -0.0529659 0)
(-0.0598846 -0.0672367 0)
(-0.0786289 -0.0821281 0)
(-0.100872 -0.0979183 0)
(-0.127401 -0.114864 0)
(-0.160527 -0.13319 0)
(-0.205836 -0.153999 0)
(-0.270468 -0.175682 0)
(-0.355858 -0.18698 0)
(-0.452533 -0.16961 0)
(0.00109786 0.118559 0)
(-0.00196626 -0.017554 0)
(-0.00522226 0.00985603 0)
(-0.00708075 0.0221935 0)
(-0.00870801 0.0217162 0)
(-0.0102185 0.0191894 0)
(-0.0118443 0.0160504 0)
(-0.0138541 0.011839 0)
(-0.0165928 0.00629221 0)
(-0.0204547 -0.000605338 0)
(-0.0258927 -0.00877333 0)
(-0.0333393 -0.0180381 0)
(-0.043119 -0.0281558 0)
(-0.0555707 -0.0388455 0)
(-0.0709821 -0.0498538 0)
(-0.0897651 -0.0609508 0)
(-0.112652 -0.0723167 0)
(-0.14042 -0.0840705 0)
(-0.173733 -0.095206 0)
(-0.21472 -0.103645 0)
(-0.268139 -0.106625 0)
(-0.33827 -0.0994517 0)
(-0.423225 -0.0758956 0)
(0.000983381 0.119008 0)
(-0.00208051 -0.0144248 0)
(-0.00562871 0.0126067 0)
(-0.00807887 0.0243104 0)
(-0.0103623 0.0236568 0)
(-0.0126777 0.0212323 0)
(-0.0152385 0.0184196 0)
(-0.0182573 0.0148225 0)
(-0.0220115 0.0102477 0)
(-0.0268401 0.00469199 0)
(-0.0330891 -0.00176758 0)
(-0.0410776 -0.00898685 0)
(-0.0511365 -0.0167456 0)
(-0.0636127 -0.0247969 0)
(-0.0787538 -0.0327852 0)
(-0.0968534 -0.0403715 0)
(-0.118389 -0.0474184 0)
(-0.144166 -0.053913 0)
(-0.175323 -0.0591191 0)
(-0.212811 -0.0607032 0)
(-0.256774 -0.0546386 0)
(-0.306243 -0.0356759 0)
(-0.359895 0.00058633 0)
(0.000738513 0.119671 0)
(-0.00239375 -0.0110945 0)
(-0.00626251 0.0157759 0)
(-0.0091343 0.0269701 0)
(-0.0119294 0.0262652 0)
(-0.0148897 0.0240562 0)
(-0.0181727 0.0216249 0)
(-0.0219416 0.0186602 0)
(-0.0264211 0.0149928 0)
(-0.0318895 0.0106478 0)
(-0.0386386 0.00571124 0)
(-0.0469277 0.000314356 0)
(-0.0570593 -0.00534111 0)
(-0.0693315 -0.0110118 0)
(-0.0839647 -0.0163477 0)
(-0.10122 -0.0209936 0)
(-0.121411 -0.0246221 0)
(-0.144951 -0.0267888 0)
(-0.172486 -0.0265701 0)
(-0.204718 -0.0223544 0)
(-0.241497 -0.0117675 0)
(-0.280715 0.00855634 0)
(-0.319328 0.0423206 0)
(0.000467084 0.120673 0)
(-0.00278222 -0.00752838 0)
(-0.00694341 0.0192995 0)
(-0.0101418 0.0300661 0)
(-0.013356 0.0293867 0)
(-0.0167901 0.0274675 0)
(-0.0205852 0.0254781 0)
(-0.0248856 0.0231224 0)
(-0.0298791 0.0202927 0)
(-0.0357623 0.0170368 0)
(-0.042783 0.0134442 0)
(-0.0511446 0.00964902 0)
(-0.0611034 0.00583416 0)
(-0.0728966 0.00224962 0)
(-0.0866836 -0.000762543 0)
(-0.102669 -0.00283232 0)
(-0.121071 -0.00360332 0)
(-0.142085 -0.00269296 0)
(-0.165892 0.000696995 0)
(-0.192505 0.00810031 0)
(-0.221612 0.0215211 0)
(-0.251755 0.0431178 0)
(-0.280252 0.0750668 0)
(0.000229235 0.121999 0)
(-0.00316065 -0.00372155 0)
(-0.00760522 0.023085 0)
(-0.0110254 0.0334561 0)
(-0.0145471 0.0328831 0)
(-0.0183061 0.031305 0)
(-0.0224612 0.0297763 0)
(-0.0271108 0.0280057 0)
(-0.0324024 0.0259471 0)
(-0.0385012 0.0236564 0)
(-0.0455909 0.0212279 0)
(-0.0538265 0.0188066 0)
(-0.0634151 0.0165525 0)
(-0.0745265 0.0147095 0)
(-0.087268 0.0135994 0)
(-0.101756 0.0135691 0)
(-0.118082 0.0149809 0)
(-0.136334 0.0182692 0)
(-0.156542 0.0240824 0)
(-0.178508 0.0335326 0)
(-0.20167 0.0478668 0)
(-0.224667 0.0685546 0)
(-0.245336 0.0972172 0)
(6.35664e-05 0.123601 0)
(-0.00347604 0.000321029 0)
(-0.00818448 0.0270743 0)
(-0.0117324 0.0370716 0)
(-0.015469 0.0366418 0)
(-0.0194436 0.0354091 0)
(-0.0238175 0.0343258 0)
(-0.0286508 0.0331208 0)
(-0.0340679 0.0317574 0)
(-0.0402066 0.0303126 0)
(-0.0471944 0.0288868 0)
(-0.0551498 0.0276159 0)
(-0.0642338 0.0266533 0)
(-0.0745402 0.0262307 0)
(-0.0861418 0.0266285 0)
(-0.0991334 0.0281701 0)
(-0.113484 0.0311805 0)
(-0.129148 0.0360113 0)
(-0.146035 0.043171 0)
(-0.163843 0.0535453 0)
(-0.181987 0.0680667 0)
(-0.199316 0.0875606 0)
(-0.214136 0.112979 0)
(-1.61375e-05 0.125406 0)
(-0.00370715 0.00458351 0)
(-0.0086464 0.0312131 0)
(-0.0122442 0.0408381 0)
(-0.0161185 0.0405647 0)
(-0.0202073 0.0396739 0)
(-0.0246766 0.0390063 0)
(-0.0295745 0.038309 0)
(-0.0349857 0.037568 0)
(-0.0410182 0.0368521 0)
(-0.0477764 0.0362765 0)
(-0.0553452 0.0359589 0)
(-0.0638267 0.0360512 0)
(-0.0732793 0.0367612 0)
(-0.0837364 0.038319 0)
(-0.0952229 0.0410158 0)
(-0.10766 0.0451567 0)
(-0.120943 0.0510015 0)
(-0.134923 0.0589136 0)
(-0.149232 0.0695387 0)
(-0.163288 0.0835661 0)
(-0.176159 0.10146 0)
(-0.186573 0.123782 0)
(-1.73692e-05 0.127335 0)
(-0.00384566 0.00903805 0)
(-0.00895606 0.0354399 0)
(-0.0125467 0.0446862 0)
(-0.0164885 0.0445717 0)
(-0.0206151 0.0440099 0)
(-0.0250956 0.0437166 0)
(-0.029946 0.0434694 0)
(-0.0352475 0.0432648 0)
(-0.0410797 0.0431704 0)
(-0.0475113 0.0432976 0)
(-0.0546109 0.0437598 0)
(-0.0624381 0.044698 0)
(-0.0710177 0.0462843 0)
(-0.0803509 0.0487102 0)
(-0.0904266 0.0522236 0)
(-0.101125 0.0570818 0)
(-0.112302 0.0634792 0)
(-0.12378 0.0716648 0)
(-0.135194 0.0821032 0)
(-0.145997 0.09528 0)
(-0.155432 0.111428 0)
(-0.162564 0.130862 0)
(4.07545e-05 0.129303 0)
(-0.00389695 0.0136271 0)
(-0.00909903 0.0396938 0)
(-0.0126293 0.0485475 0)
(-0.0165835 0.0485879 0)
(-0.0206799 0.0483252 0)
(-0.0250947 0.0483686 0)
(-0.0298302 0.0485146 0)
(-0.0349484 0.04876 0)
(-0.0405053 0.0491866 0)
(-0.0465531 0.0498874 0)
(-0.0531349 0.0509705 0)
(-0.0602824 0.052565 0)
(-0.068005 0.0548112 0)
(-0.0762757 0.0578592 0)
(-0.0850426 0.0619141 0)
(-0.0941862 0.0671954 0)
(-0.103538 0.0738376 0)
(-0.112906 0.0819863 0)
(-0.121967 0.0919544 0)
(-0.130225 0.104091 0)
(-0.13708 0.118506 0)
(-0.141871 0.13537 0)
(0.000124593 0.131246 0)
(-0.00385456 0.0182719 0)
(-0.00905521 0.0439146 0)
(-0.012485 0.0523768 0)
(-0.0164021 0.0525599 0)
(-0.0204142 0.0525633 0)
(-0.0247091 0.0528955 0)
(-0.0292741 0.0533706 0)
(-0.0341576 0.0539964 0)
(-0.0393972 0.0548461 0)
(-0.0450298 0.0560051 0)
(-0.0510761 0.0575722 0)
(-0.0575494 0.0596614 0)
(-0.0644514 0.0623838 0)
(-0.0717332 0.0658641 0)
(-0.0793212 0.0702559 0)
(-0.0870984 0.0757294 0)
(-0.0949023 0.0823939 0)
(-0.102539 0.0902995 0)
(-0.109728 0.0996274 0)
(-0.116032 0.110653 0)
(-0.120951 0.123444 0)
(-0.12408 0.138084 0)
(0.00020458 0.133108 0)
(-0.00370502 0.0228786 0)
(-0.00881516 0.048038 0)
(-0.0121087 0.0561345 0)
(-0.0159463 0.0564458 0)
(-0.0198277 0.0566756 0)
(-0.0239603 0.0572518 0)
(-0.0283144 0.0579996 0)
(-0.0329298 0.0589363 0)
(-0.0378315 0.0601247 0)
(-0.0430406 0.0616405 0)
(-0.0485589 0.063577 0)
(-0.0543904 0.0660281 0)
(-0.060525 0.0690778 0)
(-0.0669067 0.0728355 0)
(-0.073456 0.07741 0)
(-0.0800531 0.0829214 0)
(-0.0865541 0.0894411 0)
(-0.0927877 0.0969834 0)
(-0.0985037 0.105611 0)
(-0.103326 0.115541 0)
(-0.106841 0.12686 0)
(-0.108836 0.139615 0)
(0.00027267 0.134836 0)
(-0.00343059 0.027347 0)
(-0.0083884 0.0520074 0)
(-0.011503 0.0597802 0)
(-0.0152282 0.0602001 0)
(-0.0189375 0.0606302 0)
(-0.0228694 0.0614068 0)
(-0.0269813 0.0623824 0)
(-0.0313059 0.0635629 0)
(-0.0358627 0.0650145 0)
(-0.0406522 0.0668039 0)
(-0.045664 0.0690124 0)
(-0.0509047 0.0717145 0)
(-0.0563446 0.0749775 0)
(-0.0619182 0.0788937 0)
(-0.0675598 0.0835304 0)
(-0.07317 0.0889741 0)
(-0.0785989 0.0952683 0)
(-0.0836969 0.102383 0)
(-0.0882823 0.110312 0)
(-0.0920334 0.119203 0)
(-0.0945588 0.129203 0)
(-0.0957993 0.140399 0)
(0.000361319 0.136386 0)
(-0.0030211 0.0315983 0)
(-0.00781151 0.0557784 0)
(-0.0106972 0.0632759 0)
(-0.0142666 0.0637784 0)
(-0.0177634 0.0643763 0)
(-0.0214635 0.0653233 0)
(-0.0253058 0.0664851 0)
(-0.0293251 0.0678631 0)
(-0.033522 0.0695193 0)
(-0.0378972 0.0715168 0)
(-0.0424318 0.073917 0)
(-0.0471288 0.076776 0)
(-0.0519428 0.0801686 0)
(-0.0568138 0.0841568 0)
(-0.0616848 0.0887755 0)
(-0.0664559 0.0940812 0)
(-0.0710215 0.100109 0)
(-0.0752434 0.106786 0)
(-0.0789745 0.114058 0)
(-0.0819933 0.122005 0)
(-0.0838969 0.13085 0)
(-0.084694 0.140768 0)
(0.000514378 0.137634 0)
(-0.00248099 0.0355965 0)
(-0.00713568 0.0593121 0)
(-0.00973497 0.0665765 0)
(-0.0131255 0.067141 0)
(-0.0163577 0.0678756 0)
(-0.0197867 0.0689629 0)
(-0.0233256 0.0702745 0)
(-0.027009 0.0718164 0)
(-0.030829 0.0736334 0)
(-0.0347846 0.0757831 0)
(-0.0388637 0.0783204 0)
(-0.0430456 0.0812833 0)
(-0.0472802 0.0847472 0)
(-0.05153 0.0887294 0)
(-0.0557444 0.0932805 0)
(-0.0598274 0.0984224 0)
(-0.063706 0.104167 0)
(-0.0672468 0.11046 0)
(-0.0703497 0.117168 0)
(-0.0729091 0.124275 0)
(-0.0745095 0.132129 0)
(-0.0751343 0.141005 0)
(0.000820684 0.138443 0)
(-0.00179776 0.0393979 0)
(-0.00642328 0.0626003 0)
(-0.008664 0.0696449 0)
(-0.0118563 0.0702469 0)
(-0.0147883 0.0710997 0)
(-0.0179149 0.0722995 0)
(-0.0211102 0.0737342 0)
(-0.0244244 0.0754012 0)
(-0.0278402 0.0773429 0)
(-0.0313487 0.0796048 0)
(-0.0349496 0.0822288 0)
(-0.0386144 0.0852577 0)
(-0.0423104 0.0887362 0)
(-0.0459904 0.0926909 0)
(-0.0495965 0.097146 0)
(-0.0530743 0.102119 0)
(-0.0563532 0.1076 0)
(-0.0593432 0.113565 0)
(-0.0620063 0.119824 0)
(-0.0642671 0.126279 0)
(-0.0657609 0.133313 0)
(-0.0664518 0.141331 0)
(0.00135018 0.138695 0)
(-0.00100099 0.0430466 0)
(-0.00575744 0.0656528 0)
(-0.00754844 0.0724562 0)
(-0.010547 0.0730649 0)
(-0.0131413 0.0740182 0)
(-0.0159432 0.0753091 0)
(-0.0187737 0.0768226 0)
(-0.0216902 0.0785796 0)
(-0.0246671 0.0806133 0)
(-0.0277073 0.0829518 0)
(-0.0308051 0.0856218 0)
(-0.0339346 0.0886796 0)
(-0.0370536 0.0921492 0)
(-0.040142 0.0960589 0)
(-0.0431571 0.100419 0)
(-0.0460435 0.105233 0)
(-0.0487477 0.110485 0)
(-0.0512143 0.116165 0)
(-0.0534308 0.122117 0)
(-0.0553759 0.12816 0)
(-0.05681 0.134547 0)
(-0.0576166 0.14189 0)
(0.00206578 0.138015 0)
(-0.000133773 0.046962 0)
(-0.00515007 0.06851 0)
(-0.006447 0.0750183 0)
(-0.00928615 0.0755891 0)
(-0.0115262 0.0766203 0)
(-0.0140295 0.0779522 0)
(-0.0165001 0.0795155 0)
(-0.0190025 0.0813238 0)
(-0.0215366 0.0834028 0)
(-0.0241044 0.0857797 0)
(-0.0266793 0.0884863 0)
(-0.0292351 0.091558 0)
(-0.0317628 0.0950109 0)
(-0.0342293 0.0988395 0)
(-0.036598 0.103084 0)
(-0.0388481 0.107733 0)
(-0.04092 0.112796 0)
(-0.0427457 0.11826 0)
(-0.0443592 0.123981 0)
(-0.0458272 0.129775 0)
(-0.0469511 0.135734 0)
(-0.0475746 0.142571 0)
(0.00286238 0.136519 0)
(0.000701858 0.0509312 0)
(-0.0045998 0.0712308 0)
(-0.00543764 0.0773039 0)
(-0.00820907 0.0778201 0)
(-0.0101065 0.0789159 0)
(-0.0123458 0.0802562 0)
(-0.0144842 0.0818326 0)
(-0.0166286 0.0836455 0)
(-0.0187574 0.0857307 0)
(-0.0208665 0.088106 0)
(-0.0229388 0.0908031 0)
(-0.02496 0.0938318 0)
(-0.0269274 0.097214 0)
(-0.0287862 0.100952 0)
(-0.0304993 0.105064 0)
(-0.0320413 0.109549 0)
(-0.0333546 0.114425 0)
(-0.0344374 0.119648 0)
(-0.0352688 0.125129 0)
(-0.035907 0.130729 0)
(-0.0362595 0.136468 0)
(-0.0361391 0.142897 0)
(0.00373514 0.134164 0)
(0.00148999 0.0550723 0)
(-0.00418298 0.0738759 0)
(-0.00458971 0.0793324 0)
(-0.00737033 0.079829 0)
(-0.00896514 0.0809521 0)
(-0.0110427 0.0822783 0)
(-0.0129382 0.0838353 0)
(-0.0147944 0.0856236 0)
(-0.0166039 0.0876596 0)
(-0.0183667 0.0899772 0)
(-0.0200563 0.0925938 0)
(-0.0216445 0.0955234 0)
(-0.0231171 0.0987825 0)
(-0.0244316 0.102388 0)
(-0.025541 0.10633 0)
(-0.0264145 0.110609 0)
(-0.0270245 0.115222 0)
(-0.0273285 0.120128 0)
(-0.0272386 0.125327 0)
(-0.0267865 0.130691 0)
(-0.0259846 0.136159 0)
(-0.0245727 0.142168 0)
(0.00466952 0.130904 0)
(0.00220343 0.0595117 0)
(-0.00386728 0.076536 0)
(-0.00389056 0.0812112 0)
(-0.00680824 0.081678 0)
(-0.00818314 0.0828088 0)
(-0.010162 0.0840817 0)
(-0.0118945 0.0855938 0)
(-0.0136013 0.087321 0)
(-0.0152331 0.0892792 0)
(-0.0167745 0.0915092 0)
(-0.0182113 0.09402 0)
(-0.0195131 0.0968217 0)
(-0.0206564 0.0999126 0)
(-0.0215973 0.10331 0)
(-0.0222916 0.106997 0)
(-0.0226895 0.110976 0)
(-0.0227393 0.115226 0)
(-0.022365 0.119748 0)
(-0.0214521 0.124515 0)
(-0.0200541 0.129426 0)
(-0.0181271 0.134419 0)
(-0.0152236 0.139852 0)
(0.00553885 0.126927 0)
(0.00275033 0.0643495 0)
(-0.0036144 0.079371 0)
(-0.00335446 0.0831167 0)
(-0.00646359 0.0835693 0)
(-0.00765383 0.0846937 0)
(-0.00962815 0.0858993 0)
(-0.0112803 0.0873321 0)
(-0.0129142 0.0889775 0)
(-0.0144567 0.0908638 0)
(-0.0159012 0.0929971 0)
(-0.0172333 0.0953876 0)
(-0.0184193 0.098026 0)
(-0.0194227 0.100914 0)
(-0.0202019 0.104053 0)
(-0.0207021 0.107428 0)
(-0.0208649 0.111044 0)
(-0.0206203 0.114862 0)
(-0.0198814 0.11887 0)
(-0.0185555 0.123027 0)
(-0.0166027 0.127241 0)
(-0.013927 0.131539 0)
(-0.00999953 0.136125 0)
(0.00621478 0.122423 0)
(0.00312317 0.0694504 0)
(-0.00337481 0.0822877 0)
(-0.00289842 0.085057 0)
(-0.00618612 0.0855359 0)
(-0.00722815 0.0866105 0)
(-0.00922865 0.0877466 0)
(-0.0108285 0.0891121 0)
(-0.012422 0.0906878 0)
(-0.013936 0.092491 0)
(-0.0153581 0.0945181 0)
(-0.0166728 0.0967747 0)
(-0.0178454 0.099236 0)
(-0.0188357 0.10193 0)
(-0.0196094 0.104804 0)
(-0.0201021 0.107851 0)
(-0.0202576 0.111091 0)
(-0.0200093 0.114438 0)
(-0.0192541 0.117872 0)
(-0.0179145 0.121359 0)
(-0.0158922 0.12482 0)
(-0.0130949 0.128206 0)
(-0.00898413 0.131744 0)
(0.00666027 0.117359 0)
(0.00331889 0.0744487 0)
(-0.00310367 0.0849722 0)
(-0.00247005 0.086735 0)
(-0.00584303 0.0873288 0)
(-0.00673195 0.0882477 0)
(-0.00872656 0.0893433 0)
(-0.0102573 0.0906458 0)
(-0.0118118 0.0921425 0)
(-0.0132947 0.0938809 0)
(-0.014696 0.0958076 0)
(-0.0160131 0.0979587 0)
(-0.0171782 0.100292 0)
(-0.0181875 0.102762 0)
(-0.0190378 0.105417 0)
(-0.0195904 0.108181 0)
(-0.0198508 0.111042 0)
(-0.0197662 0.113951 0)
(-0.0191928 0.116859 0)
(-0.0180941 0.119687 0)
(-0.0164084 0.122442 0)
(-0.0139696 0.124951 0)
(-0.0102958 0.127397 0)
(0.00661205 0.111871 0)
(0.00321055 0.0792425 0)
(-0.00272074 0.0873688 0)
(-0.00200781 0.088146 0)
(-0.0053151 0.0888433 0)
(-0.00608156 0.0896266 0)
(-0.00792923 0.0906562 0)
(-0.00937931 0.0919035 0)
(-0.010817 0.0933508 0)
(-0.012205 0.0950088 0)
(-0.0135287 0.0968707 0)
(-0.01476 0.0989021 0)
(-0.0159402 0.101109 0)
(-0.0169433 0.103422 0)
(-0.0177776 0.105854 0)