/*--------------------------------*- C++ -*----------------------------------*\
| =========                 |                                                 |
| \\      /  F ield         | OpenFOAM: The Open Source CFD Toolbox           |
|  \\    /   O peration     | Version:  5.x                                   |
|   \\  /    A nd           | Web:      www.OpenFOAM.org                      |
|    \\/     M anipulation  |                                                 |
\*---------------------------------------------------------------------------*/
FoamFile
{
    version     2.0;
    format      ascii;
    class       volScalarField;
    location    "0.45";
    object      alpha.water;
}
// * * * * * * * * * * * * * * * * * * * * * * * * * * * * * * * * * * * * * //

dimensions      [0 0 0 0 0 0 0];

internalField   nonuniform List<scalar> 
2268
(
1
1
1
1
1
1
1
1
1
1
1
1
1
1
1
1
1
1
1
0.925479
0.737005
1
1
1
1
1
1
1
1
1
1
1
1
1
1
1
1
1
1
1
1
1
0.988277
0.808348
0.962695
1
1
1
1
1
1
1
1
1
1
1
1
1
1
1
1
1
1
1
1
1
0.984335
0.993476
0.997766
1
1
1
1
1
1
1
1
1
1
1
1
1
1
1
1
1
1
1
1
0.999979
0.999979
0.993907
1
1
1
1
1
1
1
1
1
1
1
1
1
1
1
1
1
1
1
1
0.999998
0.999995
0.999903
1
1
1
1
0.999999
1
1
1
1
1
1
1
1
1
1
1
1
1
1
1
1
1
0.999783
1
1
1
0.999994
0.999993
0.999995
0.999998
0.999999
1
1
1
1
1
1
1
1
1
1
1
1
1
1
0.999981
1
1
0.999985
0.999932
0.999925
0.999951
0.999976
0.999991
0.999997
0.999999
1
1
1
1
1
1
1
1
1
1
1
1
1
-6.69149e-22
2.09316e-21
9.4897e-06
4.74574e-06
-9.23307e-09
-1.84699e-09
-3.60773e-10
-5.27631e-12
-1.56992e-13
2.94602e-14
2.03489e-17
2.36374e-15
7.95069e-14
6.8924e-13
1.18852e-12
2.16458e-10
1.20095e-09
5.35548e-24
0
-5.2329e-22
5.66102e-05
6.80797e-05
3.32525e-05
1.38554e-06
1.90566e-07
1.89107e-08
1.00261e-09
1.57969e-11
-4.1276e-14
1.53704e-16
1.119e-14
3.51316e-13
4.39545e-12
4.29616e-11
3.41007e-09
2.44113e-08
1.98485e-08
-9.52319e-13
-3.91747e-08
0.000377743
0.00042535
0.000153219
9.86487e-06
1.14012e-06
7.97131e-08
2.73434e-09
1.50073e-11
1.32512e-13
1.23623e-14
7.19916e-14
3.45436e-12
6.83418e-11
9.02157e-10
2.99169e-08
2.58235e-07
3.68878e-07
-3.39097e-11
-1.19985e-07
0.0103862
0.00780993
0.00173239
2.78876e-05
2.73216e-06
1.62397e-07
4.66523e-09
3.97153e-11
1.00393e-12
1.3251e-13
5.85412e-13
1.86351e-11
5.03921e-10
7.34996e-09
1.91031e-07
2.13898e-06
3.52478e-06
-3.59422e-10
-5.36881e-07
0.020814
0.0148252
0.00239617
3.00494e-05
2.59679e-06
1.44451e-07
4.46157e-09
6.34565e-12
5.9003e-12
1.00393e-12
5.64484e-12
1.2296e-10
3.23029e-09
4.72896e-08
9.25477e-07
1.36004e-05
2.265e-05
-3.32385e-09
-3.33501e-06
0.0180993
0.000486689
0.000665806
0.000160729
7.90103e-06
1.27445e-07
2.25147e-09
3.05388e-11
1.93485e-11
5.9003e-12
2.69709e-11
-1.89226e-10
1.52739e-08
5.42901e-08
2.86934e-06
6.8302e-05
9.85492e-05
-3.22562e-08
0.182879
0.000259775
0.000149317
0.000169335
0.000103341
7.98974e-06
2.77972e-08
7.83058e-10
2.6224e-11
2.4152e-11
1.93485e-11
8.7527e-11
2.58917e-09
-7.62248e-09
8.34878e-07
6.9629e-06
0.000241938
0.000322745
-3.93416e-07
0.574877
0.000288798
4.1468e-05
4.58393e-05
1.69643e-05
1.96775e-06
1.02368e-08
2.33928e-10
2.44048e-11
2.44048e-11
3.46469e-10
2.85133e-10
6.42066e-09
1.38916e-07
1.98921e-06
2.54162e-05
0.000608938
0.0015182
-3.09725e-06
1
1
0.999707
0.999269
0.999271
0.999492
0.999698
0.999842
0.999923
0.999965
0.999985
0.999995
0.999999
1
0.999999
1
1
1
1
1
1
1
1
1
0.985043
0.866296
0.771587
0.79689
0.836519
0.857603
0.879936
0.908199
0.936324
0.960339
0.979561
0.992916
0.998853
0.999859
1
1
1
1
1
1
1
1
0.769824
0.416248
0.13291
0.0768924
0.119278
0.143984
0.1464
0.161789
0.195053
0.240529
0.295268
0.364436
0.45717
0.581176
0.721227
0.890804
0.999998
1
1
1
1
1
1
0.0137126
5.08092e-17
9.15651e-16
6.95962e-15
1.21289e-14
4.01172e-14
4.46197e-13
5.04242e-12
7.40492e-11
7.73629e-10
2.39924e-09
1.46927e-08
2.477e-07
3.08379e-06
0.0305614
0.0848557
0.192104
0.418498
0.797441
0.999995
1
1
1
-1.68511e-29
1.86421e-18
5.07088e-17
6.68645e-15
4.03651e-13
2.27261e-12
2.7649e-12
3.47845e-12
6.67176e-12
7.40492e-11
7.73629e-10
2.39923e-09
1.46924e-08
2.4769e-07
3.08363e-06
2.02809e-05
0.000118128
0.0104508
0.0618687
0.179502
0.423117
0.856829
0.999987
-1.27222e-29
8.72008e-18
3.98125e-15
2.33511e-13
6.22398e-12
3.86703e-11
6.63509e-11
6.67176e-12
2.81119e-09
4.93171e-08
8.0488e-08
2.49864e-08
4.3786e-08
4.15471e-05
0.000311213
0.00032714
0.000196586
0.000195945
0.000205378
0.000219608
0.00546595
0.0824255
0.252912
-1.23325e-33
2.7133e-18
4.01232e-15
4.33874e-13
1.42017e-11
9.09205e-11
1.57341e-10
8.24428e-11
1.74271e-09
1.16826e-07
1.81836e-07
1.38777e-07
7.83601e-08
2.16268e-05
0.000270141
0.000336513
0.00014197
0.000194609
0.000273973
0.000524983
0.000242028
0.000181938
0.000101444
7.70778e-35
5.87361e-19
9.00525e-16
3.48561e-13
1.44498e-11
1.02285e-10
1.89868e-10
1.46092e-10
2.58916e-10
8.44254e-08
1.81921e-07
1.7011e-07
9.51447e-08
1.13085e-07
4.2844e-08
1.76923e-05
3.95124e-10
5.6665e-05
8.59685e-05
0.000220802
0.000515007
0.000230204
8.24904e-05
-2.84465e-35
-6.69962e-19
5.35063e-17
1.46279e-13
9.39382e-12
8.55237e-11
1.87209e-10
1.78656e-10
6.26117e-11
1.52197e-08
1.03397e-07
6.8946e-09
1.44531e-07
9.76644e-07
6.41688e-08
2.12687e-10
3.48089e-10
3.95124e-10
7.46011e-05
0.000178678
8.4177e-05
8.24904e-05
8.20229e-05
-4.54049e-22
1.09227e-20
1.02702e-17
4.95939e-14
4.02308e-12
4.29547e-11
1.12309e-10
1.16781e-10
6.24066e-11
3.3343e-11
3.33846e-11
3.3343e-11
1.9602e-07
9.71457e-07
1.49482e-07
8.05342e-13
3.20138e-10
2.11644e-10
6.94423e-05
0.000131095
0.000189
0.000103085
8.15568e-05
-1.96429e-20
-4.76416e-29
1.9496e-18
1.5902e-14
1.37712e-12
1.42736e-11
3.84192e-11
3.86155e-11
2.52965e-11
3.85201e-11
3.33475e-11
6.70542e-11
4.97193e-08
2.0963e-08
-9.01101e-31
1.01825e-30
2.09605e-12
2.86115e-11
1.0313e-08
5.16749e-05
0.000291287
0.000307368
0.000120149
-2.40241e-20
4.8554e-37
3.06379e-19
3.87171e-15
3.68751e-13
3.62405e-12
1.00505e-11
1.00388e-11
1.08594e-11
7.84922e-11
4.30616e-11
1.58947e-11
1.33289e-14
0
-3.38968e-12
-3.12686e-13
7.42949e-13
2.08423e-13
8.47251e-12
2.61367e-10
7.0161e-05
0.000303208
0.000440897
-1.37446e-20
-3.82787e-26
4.15092e-19
6.89216e-16
7.96605e-14
7.62463e-13
2.01109e-12
2.09017e-12
4.00148e-12
4.51123e-11
3.32782e-11
1.57607e-11
2.06835e-12
5.73002e-13
-4.25223e-12
-5.20563e-12
-7.70935e-13
-1.15809e-15
9.44792e-15
-2.76538e-13
8.89374e-14
8.91012e-14
5.77452e-13
-8.61309e-21
-1.29305e-23
7.27319e-19
9.85763e-17
1.35468e-14
1.303e-13
3.31363e-13
3.59592e-13
6.77514e-13
4.1504e-12
5.36634e-12
6.87062e-12
4.95316e-12
1.49435e-12
-1.90053e-12
-2.68162e-12
-1.66576e-12
-5.38663e-13
-2.73225e-16
2.25403e-14
5.60943e-14
8.89374e-14
1.65463e-13
-6.39512e-21
-7.70039e-25
3.32217e-19
1.21176e-17
1.77664e-15
1.70106e-14
4.59006e-14
6.08866e-14
1.01157e-13
2.38677e-13
8.99061e-13
1.8309e-12
2.76675e-12
1.13583e-12
-3.11396e-13
-7.83846e-13
-5.43939e-13
-1.31881e-13
2.32851e-13
6.91757e-13
9.99213e-13
1.4279e-12
1.59755e-12
-4.85556e-21
-3.59692e-21
9.94837e-20
1.32868e-18
1.81808e-16
1.70802e-15
5.09656e-15
1.06027e-14
2.64866e-14
7.57247e-14
2.46294e-13
3.95037e-13
4.28092e-13
1.82763e-13
7.56644e-14
-7.96134e-14
-8.18606e-14
-2.70971e-14
8.19519e-15
1.12335e-13
8.2345e-13
2.93572e-12
6.1311e-12
-3.31735e-21
-4.5723e-21
1.77469e-20
1.36188e-19
1.38298e-17
1.31908e-16
5.07956e-16
2.06306e-15
7.05637e-15
1.67839e-14
3.4816e-14
4.12961e-14
3.22207e-14
2.2717e-14
2.15046e-14
1.21247e-14
3.3525e-15
3.36675e-15
2.86286e-15
1.362e-14
1.32702e-13
9.06386e-13
3.98079e-12
-1.92743e-21
-3.15356e-21
1.1227e-21
1.32942e-20
7.34306e-19
7.72889e-18
5.85608e-17
4.29888e-16
1.77592e-15
4.19344e-15
6.08556e-15
6.08418e-15
4.88073e-15
2.47489e-15
7.04577e-16
1.20535e-16
2.65024e-17
4.49739e-17
3.02917e-16
4.04877e-15
4.71006e-14
3.99706e-13
1.97565e-12
-9.21951e-22
-1.63987e-21
-5.70894e-22
8.90648e-22
2.59239e-20
3.89571e-19
8.05533e-18
7.88776e-17
3.61667e-16
8.94051e-16
1.25039e-15
1.23855e-15
9.82606e-16
5.02515e-16
1.41549e-16
2.0715e-17
4.56233e-18
7.4969e-18
7.13096e-17
9.74798e-16
1.57437e-14
1.81119e-13
9.98142e-13
-3.50718e-22
-6.66673e-22
-6.75497e-22
-1.40587e-23
4.46505e-22
2.47961e-20
9.70634e-19
1.09365e-17
5.57237e-17
1.47969e-16
2.23887e-16
2.26879e-16
1.82717e-16
9.35549e-17
2.48689e-17
3.01272e-18
6.51012e-19
1.42922e-18
1.44555e-17
2.26424e-16
5.24967e-15
8.14548e-14
5.19235e-13
-1.01164e-22
-2.01511e-22
-3.34505e-22
-8.15536e-23
9.61807e-27
1.7018e-21
7.76644e-20
1.12228e-18
6.46827e-18
1.84475e-17
3.03411e-17
3.16719e-17
2.69062e-17
1.48522e-17
4.09797e-18
4.28139e-19
8.66194e-20
2.46508e-19
2.80461e-18
5.07518e-17
1.74844e-15
3.65823e-14
2.63459e-13
-2.06113e-23
-4.15013e-23
-9.0631e-23
-3.1759e-23
-1.99378e-24
5.5821e-23
3.87966e-21
8.64459e-20
5.57411e-19
1.67951e-18
2.91172e-18
3.12598e-18
2.77881e-18
1.65979e-18
4.97375e-19
5.52791e-20
1.2725e-20
4.36918e-20
5.39738e-19
1.12712e-17
5.70736e-16
1.628e-14
1.33119e-13
-2.64856e-24
-5.10058e-24
-1.19608e-23
-4.11853e-24
-8.79922e-25
1.7864e-26
1.39177e-22
4.91379e-21
3.40693e-20
1.05569e-19
1.88e-19
2.07943e-19
1.91709e-19
1.22699e-19
3.99854e-20
5.05119e-21
1.72454e-21
7.54394e-21
1.06015e-19
2.53054e-18
1.77377e-16
6.85961e-15
6.53249e-14
-1.69863e-25
-3.14529e-25
-7.68368e-25
-2.57522e-25
-5.45657e-26
3.77023e-28
4.25164e-24
1.79897e-22
1.32855e-21
4.26153e-21
7.79266e-21
8.99895e-21
8.48228e-21
5.67195e-21
1.95564e-21
2.94017e-22
1.73059e-22
1.25125e-21
2.17979e-20
5.77142e-19
5.22478e-17
2.71647e-15
2.93567e-14
0
0
-8.55736e-51
2.67933e-32
1.43868e-30
1.08539e-30
2.28696e-26
2.72665e-24
2.57427e-23
9.22285e-23
1.80857e-22
2.23916e-22
2.11403e-22
1.39804e-22
4.6979e-23
9.55302e-24
1.4645e-23
2.19652e-22
4.748e-21
1.31414e-19
1.39788e-17
9.84154e-16
1.21996e-14
-5.25165e-44
0
3.42139e-42
4.7096e-39
2.07173e-36
9.87766e-34
2.71294e-29
8.01534e-27
1.04515e-25
4.40157e-25
9.32844e-25
1.08213e-24
1.00898e-24
7.15824e-25
3.5818e-25
2.86373e-25
1.57914e-24
4.22953e-23
1.06772e-21
2.95414e-20
3.36595e-18
3.24919e-16
4.69569e-15
-2.2833e-44
-1.39596e-42
-4.17954e-50
-1.5325e-45
1.02416e-40
2.18054e-37
4.04699e-32
2.74385e-29
5.37335e-28
2.96421e-27
8.48261e-27
1.52934e-26
1.71896e-26
1.63881e-26
1.20021e-26
1.55564e-26
2.51672e-25
8.43865e-24
2.33297e-22
6.40487e-21
7.37258e-19
9.89499e-17
1.67482e-15
-5.82196e-45
-3.55483e-43
-9.22075e-42
-1.28418e-42
8.08705e-57
2.08456e-41
8.43179e-39
4.65943e-34
3.97794e-31
9.09195e-30
5.30955e-29
1.48832e-28
2.0591e-28
1.96859e-28
1.59229e-28
1.05289e-27
4.38412e-26
1.59156e-24
4.65702e-23
1.29659e-21
1.45063e-19
2.75153e-17
5.49345e-16
-7.50682e-46
-3.99511e-44
-1.161e-42
-3.1919e-43
2.83508e-49
5.29545e-46
2.68506e-43
2.02464e-38
3.20292e-34
2.18334e-32
1.69958e-31
5.56149e-31
8.27211e-31
7.78985e-31
3.35567e-30
1.60479e-28
6.98853e-27
2.66115e-25
8.34604e-24
2.41755e-22
2.46304e-20
6.77355e-18
1.62081e-16
-1.13034e-55
-6.95062e-54
0
2.16676e-49
2.59984e-47
7.48327e-48
1.40355e-46
1.16585e-44
2.71493e-39
4.10192e-36
1.15604e-34
6.47328e-34
1.1119e-33
6.84042e-33
4.08152e-31
2.10261e-29
9.50298e-28
3.92252e-26
1.35365e-24
4.18456e-23
3.43953e-21
1.40875e-18
4.18781e-17
-5.56893e-56
-3.48302e-54
-2.63615e-53
3.45283e-55
2.78005e-50
2.71509e-48
1.15267e-46
5.22292e-45
2.36036e-43
3.04622e-41
5.70815e-39
1.38135e-37
8.76504e-36
7.02223e-34
4.31424e-32
2.30469e-30
1.13281e-28
5.11325e-27
1.9682e-25
6.71929e-24
3.9832e-22
2.38671e-19
9.261e-18
-2.03971e-56
-1.20505e-54
-9.89535e-54
-5.4842e-55
1.21326e-52
1.46847e-50
1.39973e-48
1.42258e-46
1.74185e-44
1.19671e-42
1.03453e-40
9.46345e-39
8.98297e-37
5.76088e-35
3.65747e-33
2.17865e-31
1.17915e-29
5.76563e-28
2.50006e-26
9.73943e-25
4.32422e-23
3.34237e-20
1.73129e-18
-4.93374e-57
-2.81366e-55
-2.46523e-54
-4.83496e-55
1.43659e-54
2.468e-52
3.06671e-50
4.31854e-48
5.2009e-46
6.36119e-44
7.1196e-42
5.96445e-40
5.0881e-38
3.72337e-36
2.71971e-34
1.76228e-32
1.04251e-30
5.5788e-29
2.76126e-27
1.2392e-25
4.67748e-24
4.15328e-21
2.72873e-19
-5.90914e-58
-3.33414e-56
-3.09335e-55
-5.90385e-56
1.54566e-56
4.111e-54
7.20175e-52
1.22477e-49
1.8255e-47
2.22463e-45
2.62457e-43
2.52975e-41
2.53207e-39
2.04539e-37
1.62648e-35
1.18927e-33
7.74723e-32
4.64368e-30
2.62394e-28
1.35029e-26
4.59759e-25
4.89058e-22
3.62075e-20
-4.50364e-75
-1.81622e-72
1.32665e-62
3.36573e-59
1.87824e-58
5.6288e-56
1.33929e-53
2.48621e-51
4.22351e-49
5.74435e-47
7.68496e-45
8.35916e-43
9.42712e-41
8.65777e-39
7.45492e-37
6.44947e-35
4.71288e-33
3.16706e-31
2.04845e-29
1.22108e-27
3.73807e-26
5.09826e-23
4.00601e-21
-2.23252e-75
-9.16143e-73
1.55905e-71
6.96203e-65
1.52623e-60
5.03618e-58
1.45735e-55
3.19879e-53
5.91613e-51
1.01484e-48
1.44563e-46
1.93183e-44
2.46038e-42
2.55924e-40
2.57879e-38
2.58533e-36
2.2646e-34
1.69426e-32
1.29337e-30
8.85251e-29
2.42547e-27
4.53424e-24
3.59599e-22
-8.25495e-76
-3.54119e-73
0
3.14311e-68
4.07686e-63
2.22398e-60
6.30525e-58
1.86034e-55
4.17387e-53
9.04937e-51
1.4918e-48
2.7702e-46
3.87559e-44
4.88774e-42
6.24175e-40
7.23933e-38
7.31922e-36
6.60313e-34
6.43438e-32
4.60757e-30
1.24526e-28
3.46037e-25
2.49604e-23
-2.0304e-76
-9.3356e-74
-8.15248e-71
2.06957e-71
2.1447e-66
1.30295e-63
6.89789e-61
2.16687e-58
9.02653e-56
2.19151e-53
7.19042e-51
1.38373e-48
2.58198e-46
5.52322e-44
8.20165e-42
1.09466e-39
1.34216e-37
1.55579e-35
2.16804e-33
1.34934e-31
4.93974e-30
2.07681e-26
1.23815e-24
-2.50491e-77
-1.25781e-74
-1.21341e-71
1.09068e-85
2.55244e-71
6.32808e-68
2.77156e-65
2.05049e-62
1.27361e-59
5.08567e-57
1.90475e-54
8.71585e-52
2.55175e-49
6.84054e-47
2.44216e-44
5.46812e-42
1.02726e-39
1.72105e-37
2.86437e-35
1.6091e-33
9.95312e-32
6.86927e-28
3.64657e-26
1.15858e-98
1.26964e-117
0
3.97591e-90
5.32777e-80
5.85236e-75
7.33469e-72
1.32141e-68
2.04411e-65
1.16728e-62
1.40856e-59
7.73885e-57
4.01136e-54
3.49366e-51
1.38804e-48
5.68141e-46
2.03419e-43
6.23244e-41
1.38858e-38
1.4679e-36
4.99431e-34
9.44713e-30
4.74717e-28
-8.25322e-104
-2.92451e-105
-8.52041e-110
-1.21484e-95
1.41602e-92
1.16179e-98
2.38315e-85
5.9871e-82
2.78267e-78
4.62766e-75
2.94846e-71
5.03785e-68
7.95923e-65
2.29474e-61
2.80299e-58
3.40008e-55
2.68113e-52
2.07147e-49
9.75924e-47
2.1361e-43
1.15157e-36
3.10204e-32
1.16936e-30
-9.89416e-105
-1.82358e-106
-7.42594e-109
0
-5.40751e-113
9.08005e-106
3.14628e-98
1.01696e-94
3.21982e-91
1.99348e-87
0
1.0232e-84
9.11389e-78
1.4787e-74
1.76839e-71
1.34026e-68
2.26913e-65
1.3191e-62
6.79761e-65
2.14117e-57
1.07556e-53
1.30615e-45
6.55199e-45
1
1
1
0.998822
1
1
0.999989
0.999995
1
1
0.99999
0.999996
1
1
0.999999
0.999999
0.999998
1
0.999999
0.999999
0.431689
0.613802
0.931464
0.999978
0.00194998
0.0169852
0.0690023
0.146817
8.6855e-05
9.70557e-05
9.42252e-05
0.000142414
8.15319e-05
8.18723e-05
8.24275e-05
8.56603e-05
8.15539e-05
8.15343e-05
8.18726e-05
8.24167e-05
0.000157098
0.00019671
0.000174102
0.000186417
0.000471884
0.000476719
0.000492578
0.000504003
1.45689e-05
5.95924e-05
0.000103008
0.0001224
5.77474e-13
1.95243e-12
6.06364e-12
2.68887e-11
1.57359e-12
1.74406e-12
2.41147e-12
6.06364e-12
8.3983e-12
9.70882e-12
1.14979e-11
1.5873e-11
8.77224e-12
1.36117e-11
2.45207e-11
6.97488e-11
4.7298e-12
8.39591e-12
1.632e-11
5.59851e-11
2.42472e-12
4.20168e-12
6.90449e-12
1.80736e-11
1.36848e-12
2.5263e-12
3.66141e-12
4.17033e-12
7.18651e-13
1.48916e-12
2.43352e-12
2.66385e-12
3.59879e-13
7.42304e-13
1.33337e-12
1.46968e-12
1.8397e-13
3.71781e-13
6.17045e-13
6.88501e-13
8.32537e-14
1.80953e-13
3.41754e-13
4.33054e-13
3.47514e-14
7.6292e-14
1.5079e-13
1.54825e-13
1.3521e-14
2.93176e-14
5.75315e-14
5.80573e-14
4.82577e-15
1.06744e-14
2.26829e-14
2.26946e-14
1.57447e-15
3.612e-15
8.78257e-15
8.37509e-15
4.58428e-16
1.07631e-15
3.29168e-15
2.97618e-15
1.16986e-16
2.76788e-16
1.08847e-15
1.02099e-15
2.5494e-17
5.83392e-17
3.10135e-16
6.12169e-16
4.66941e-18
1.08461e-17
7.2382e-17
3.54817e-16
7.14264e-19
1.75114e-18
1.39507e-17
7.31695e-17
9.14749e-20
2.46235e-19
2.32223e-18
1.15483e-17
9.72025e-21
2.99028e-20
3.34902e-19
1.54528e-18
8.24665e-22
2.94591e-21
3.78208e-20
1.64096e-19
5.19026e-23
2.00087e-22
2.74211e-21
1.26224e-20
2.15695e-24
7.02661e-24
1.03483e-22
7.36374e-22
4.99933e-26
1.20911e-25
2.96305e-24
4.30582e-23
3.61718e-28
1.76037e-27
1.00369e-25
1.86359e-24
5.32789e-31
1.77257e-31
7.91894e-30
2.92286e-28
4.18869e-45
0
-2.46912e-45
-5.3147e-46
0.840081
0.00331502
7.60544e-06
3.73538e-06
6.01302e-07
4.20332e-07
2.36097e-09
3.04436e-10
2.35938e-10
3.89457e-08
4.7049e-08
6.77284e-09
1.88906e-08
2.89194e-07
4.94497e-06
5.96813e-05
0.00322775
0.0148801
-7.20339e-06
0.999998
0.430958
4.03027e-05
1.62662e-07
8.85113e-09
2.24018e-08
2.67632e-07
2.65367e-07
3.04436e-10
2.8983e-08
1.85043e-08
1.46894e-08
1.85038e-08
1.55358e-07
2.46002e-06
4.19695e-05
0.00417034
0.0276747
0.00142215
0.999999
0.896648
0.0490246
-6.23415e-07
1.28418e-10
1.63726e-08
2.81032e-07
2.74456e-07
3.49455e-06
3.38591e-05
3.21991e-05
1.85038e-08
2.0504e-08
5.50087e-08
3.77917e-07
7.54246e-05
0.00127453
0.0111719
0.363745
0.999999
0.999999
0.497475
-1.67301e-07
-7.9549e-15
1.16102e-08
1.07941e-07
7.068e-08
1.214e-06
1.93919e-05
1.42601e-05
7.60987e-06
0.000452098
3.77917e-07
0.000140897
0.000170297
0.000190411
0.000196072
0.807233
0.999999
0.999999
0.987671
0.14994
-5.51187e-09
0
1.06733e-09
7.35819e-09
1.98902e-08
1.75732e-07
1.45281e-06
1.75483e-06
4.85019e-06
0.0371095
0.00168813
0.000190411
0.000196072
0.00051089
0.901036
0.999997
0.999998
0.999854
0.896221
0.477697
0.307676
0.14478
1.98902e-08
1.75732e-07
0.0822917
0.124997
0.122722
0.127129
0.375524
0.00385689
0.0372548
0.0509249
0.275394
0.935572
0.418295
0.953703
0.999295
0.994019
0.983348
0.949623
0.889117
0.699945
0.610786
0.700873
0.813441
0.838236
0.842639
0.899026
0.80475
0.833197
0.872953
0.919861
0.977329
0.00375569
0.124697
0.395751
0.72359
0.957291
0.943644
0.936535
0.93254
0.920917
0.918736
0.924473
0.929614
0.933389
0.936958
0.941795
0.944559
0.944475
0.963442
0.983365
0.000103883
0.000123776
0.00045168
0.0469663
0.181408
0.381345
0.561717
0.666918
0.728973
0.746968
0.742718
0.732182
0.717954
0.730791
0.849368
0.943522
0.950758
0.953486
0.883526
8.5665e-05
0.000124964
0.00013536
0.000272313
0.00021793
0.00059243
0.0125702
0.0363855
0.0673616
0.0827405
0.0802623
0.0746364
0.0702296
0.0724445
0.101202
0.322187
0.843757
0.950758
0.859022
0.000119316
0.000223147
0.000571811
0.000416522
0.000174836
4.88279e-06
1.21846e-05
2.97424e-05
5.71247e-05
8.12832e-05
8.69592e-05
7.66889e-05
0.000139621
0.000329528
0.00170652
0.00733076
0.524355
0.920947
0.920809
0.000517451
0.000573959
0.000571811
0.000542627
0.000183114
1.39714e-07
4.69701e-07
7.60079e-07
1.21745e-06
3.07741e-06
5.51538e-06
1.00279e-05
8.99718e-05
0.000139468
0.000329179
0.00271095
0.556132
0.906672
0.891934
0.000135571
0.000169715
0.000126989
4.39966e-05
9.58057e-06
5.95334e-09
1.10553e-08
1.90064e-08
7.78699e-08
1.70147e-06
3.31523e-06
5.51493e-06
9.97289e-06
6.46173e-05
0.000724092
0.107877
0.722924
0.90983
0.659621
1.43342e-10
1.18894e-09
5.62084e-09
8.77671e-09
4.26302e-09
1.5119e-09
1.72332e-09
3.56374e-09
2.84387e-08
1.65708e-06
3.46145e-06
4.56424e-06
2.49204e-05
0.000297787
0.00609243
0.446469
0.894423
0.91205
0.584948
9.98467e-11
1.47359e-09
1.21353e-10
4.41133e-10
8.37813e-10
1.40377e-09
1.51249e-09
1.74806e-09
3.57762e-09
1.5024e-06
4.83631e-06
5.52937e-06
1.75611e-05
0.000177109
0.0017514
0.24998
0.820235
0.91466
0.839837
2.64984e-11
3.47682e-11
4.0502e-11
3.17955e-10
8.22222e-10
1.14215e-09
8.35366e-09
2.22388e-08
1.94166e-08
3.36939e-07
4.2703e-06
4.49465e-06
2.32058e-05
0.000238776
0.000608585
0.0649626
0.671552
0.919218
0.971635
3.16397e-10
7.03139e-10
9.40212e-10
9.91494e-10
9.14145e-10
9.30319e-10
3.78109e-09
1.71682e-07
2.81666e-07
2.7669e-07
9.18399e-07
6.65684e-06
1.15035e-05
5.1415e-05
0.00010402
0.129787
0.63294
0.675141
0.779198
4.3748e-10
1.15597e-09
1.63215e-09
1.70921e-09
1.6437e-09
1.38436e-09
1.58994e-09
1.44533e-07
3.37815e-07
3.1658e-07
6.21185e-07
6.37289e-06
6.36982e-06
1.14574e-05
7.45847e-05
0.222677
0.613609
0.16075
0.137715
2.563e-10
7.83954e-10
1.06249e-09
9.68358e-10
2.09212e-09
2.27109e-08
6.08607e-08
6.12427e-08
6.64532e-08
4.71568e-07
4.82082e-07
1.93546e-06
3.80497e-06
2.94294e-05
0.000541281
0.24468
0.551512
0.0183362
-1.39144e-18
1.12272e-10
4.75771e-10
7.23227e-10
7.25079e-10
7.48477e-10
1.74048e-08
2.28567e-07
2.61675e-07
7.40732e-08
4.50168e-07
7.89992e-07
2.11801e-06
3.23562e-06
1.93623e-05
0.00024611
0.0609745
0.364764
0.0658549
0
1.15339e-10
6.39484e-10
1.04187e-09
9.88191e-10
8.43297e-10
2.60003e-09
1.63334e-07
3.11152e-07
2.32948e-07
7.22973e-07
2.45729e-06
2.85613e-06
3.17836e-06
1.34448e-05
0.000134115
0.000729478
0.233118
0.485869
0
1.20985e-10
7.05778e-10
1.12043e-09
1.06894e-09
9.15934e-10
9.15934e-10
3.75815e-09
2.96787e-07
5.98882e-07
1.01472e-06
1.19523e-06
1.16023e-06
1.73119e-06
9.09962e-06
0.0001038
0.00116618
0.230573
0.549604
0.429845
4.55127e-11
3.7211e-10
7.86103e-10
8.62176e-10
9.44739e-10
2.13096e-09
2.27865e-09
1.0385e-07
4.78341e-07
5.34304e-07
3.89773e-07
5.0377e-07
1.60529e-06
1.45799e-05
0.000135359
0.00101522
0.0748706
0.379595
0.711438
3.99886e-11
1.77846e-10
3.09364e-10
5.04523e-10
1.96984e-09
1.1722e-08
1.51891e-08
1.87247e-08
1.68893e-07
2.69825e-07
2.21451e-07
3.46834e-07
1.73964e-06
7.41409e-05
0.00134532
0.00204758
0.00228845
0.035617
0.288963
2.08708e-11
1.04567e-10
2.77337e-10
5.84716e-10
6.88468e-10
5.31104e-09
1.5555e-08
1.54697e-08
1.5473e-08
3.11792e-08
4.37119e-08
1.56405e-07
1.35025e-06
0.000180597
0.000611978
0.00036998
0.00961083
0.0287698
2.55859e-20
8.51681e-12
6.60659e-11
1.75471e-10
3.2603e-10
5.17578e-10
1.23472e-08
2.77082e-08
2.67116e-08
1.62916e-08
1.5311e-08
2.2653e-08
1.16764e-07
2.77379e-05
0.000178838
8.31068e-06
1.36006e-05
0.0142691
0.0727076
0.0130464
4.27527e-12
5.4877e-11
1.32978e-10
1.19635e-10
5.05357e-10
1.35756e-08
2.77082e-08
2.76591e-08
2.24881e-08
1.20663e-08
1.74597e-08
1.98424e-06
2.99502e-05
2.91541e-05
4.14394e-06
1.00259e-05
1.36006e-05
0.070771
0.343656
1.79745e-12
2.61347e-11
9.6087e-11
8.33019e-11
4.84287e-10
7.03162e-09
1.2248e-08
1.53913e-08
1.70676e-08
9.20527e-09
1.1664e-08
1.58592e-06
6.08188e-06
1.47433e-06
3.16417e-06
4.14394e-06
3.25159e-05
0.0286423
0.615053
1.04424e-12
8.06072e-12
3.95207e-11
7.65223e-11
1.1752e-09
2.63603e-09
6.71789e-10
1.80412e-09
5.23476e-09
8.21511e-09
2.14396e-08
2.95731e-07
1.12687e-07
7.72846e-07
1.47433e-06
1.78551e-05
0.000589307
0.0199121
0.462115
4.53737e-13
2.8643e-12
1.48782e-11
1.12751e-10
1.13802e-09
1.09719e-09
4.54863e-10
5.81024e-10
7.94836e-10
4.18542e-09
6.74348e-09
3.6889e-09
2.82601e-08
1.12687e-07
0.000371871
0.0134766
0.0354692
0.0559963
0.405981
1.28657e-13
9.60599e-13
8.22954e-12
2.87922e-11
3.1141e-10
5.23246e-10
1.94604e-10
1.95521e-10
4.97082e-10
7.90104e-10
3.78477e-10
8.92744e-10
3.6889e-09
4.14324e-06
0.0180531
0.073423
0.0716491
0.0584878
0.398539
2.81828e-14
2.52275e-13
3.32128e-12
1.92484e-11
2.16016e-11
1.86169e-10
1.26362e-10
1.56025e-10
1.56025e-10
1.53906e-10
1.83769e-10
0.000156603
0.00143786
0.000512157
0.0113603
0.0716491
0.0536485
0.00830414
0.424388
4.92032e-15
5.98249e-14
5.26796e-13
9.98071e-12
1.00707e-11
2.74488e-11
5.98739e-14
1.00381e-06
3.48454e-07
1.83769e-10
2.53915e-10
4.86788e-10
0.00501498
0.019181
0.0187587
0.0137992
0.00452537
0.0023856
0.438828
7.31494e-16
1.26111e-14
1.36145e-13
1.58053e-12
2.351e-12
1.40385e-12
6.43596e-15
2.24115e-06
2.87771e-06
1.55453e-06
1.57867e-09
1.08473e-08
0.00638882
0.0201723
0.0190365
0.00451231
0.00236877
0.00221855
0.3674
1.07711e-16
2.4561e-15
3.46391e-14
2.20444e-13
2.91106e-13
1.71913e-13
3.15652e-16
1.68763e-06
2.87818e-06
2.4099e-06
9.38735e-08
4.80343e-09
0.00475266
0.0212986
0.0160625
0.00248089
0.00221855
0.00218667
0.189451
1.59399e-17
4.07517e-16
8.43181e-15
2.31698e-14
2.21554e-14
1.09425e-14
3.94639e-32
9.29999e-08
1.38394e-06
7.30488e-07
4.733e-09
-3.8306e-30
0.00544726
0.022419
0.0171713
0.00243583
0.00218667
0.0021836
0.224982
2.04848e-18
5.25171e-17
1.49945e-15
1.6478e-15
1.15508e-15
2.30104e-16
-1.03293e-16
-3.02339e-16
-5.10756e-16
-6.68821e-13
-4.90147e-13
-1.02685e-13
0.00907589
0.0230106
0.0176781
0.00238699
0.0021835
0.00218667
0.46688
1.90644e-19
4.76659e-18
9.89321e-17
9.71881e-17
4.11609e-17
-3.1929e-17
-2.31632e-16
-4.68255e-16
-1.03247e-15
-1.23312e-15
-8.09696e-16
-1.6792e-16
0.0181528
0.0230106
0.0186825
0.00255224
0.00230013
0.00218667
0.835813
1.14033e-20
2.66697e-19
4.36305e-18
4.26709e-18
1.73149e-18
-4.08557e-17
-1.66901e-16
-3.729e-16
-1.26655e-15
-1.70337e-15
-9.53284e-16
-1.90577e-16
0.010019
0.0230106
0.0209332
0.00317933
0.00246215
0.0122847
0.83262
4.1127e-22
7.23817e-21
7.0856e-20
2.12689e-19
9.44742e-20
-2.15387e-17
-7.21281e-17
-1.92984e-16
-1.01096e-15
-1.33499e-15
-8.13057e-16
-2.91838e-16
-3.13484e-17
0.0172856
0.0205596
0.00499248
0.00789913
0.071552
0.415385
1.24922e-25
1.02657e-23
2.99203e-22
1.15363e-20
3.49651e-21
-6.82421e-18
-1.54238e-17
-6.85494e-17
-5.36435e-16
-5.91835e-16
-3.88216e-16
-1.74569e-16
-5.44735e-17
0.00109342
0.0128163
0.0124921
0.0290668
0.0766632
0.00779226
-8.57637e-42
-8.33523e-43
-7.91993e-41
-9.84762e-42
-7.60552e-43
-9.51786e-19
-2.27493e-19
-1.42599e-17
-1.59165e-16
-1.19849e-16
-4.78522e-17
-1.3659e-17
-3.72529e-18
-1.24155e-18
0.00182313
0.00790951
0.0205213
0.0168839
1.39144e-18
)
;

boundaryField
{
    leftWall
    {
        type            zeroGradient;
    }
    rightWall
    {
        type            zeroGradient;
    }
    lowerWall
    {
        type            zeroGradient;
    }
    atmosphere
    {
        type            inletOutlet;
        inletValue      uniform 0;
        value           nonuniform List<scalar> 
46
(
0
0
0
0
0
0
0
0
0
0
0
0
0
0
0
0
0
0
0
0
0
0
0
0
0
0
0
0
0
0
0
0
0
0
0
0
0
0
0
0
0
0.00182313
0.00790951
0.0205213
0.0168839
1.39144e-18
)
;
    }
    defaultFaces
    {
        type            empty;
    }
}


// ************************************************************************* //
