/*--------------------------------*- C++ -*----------------------------------*\
| =========                 |                                                 |
| \\      /  F ield         | OpenFOAM: The Open Source CFD Toolbox           |
|  \\    /   O peration     | Version:  5.x                                   |
|   \\  /    A nd           | Web:      www.OpenFOAM.org                      |
|    \\/     M anipulation  |                                                 |
\*---------------------------------------------------------------------------*/
FoamFile
{
    version     2.0;
    format      ascii;
    class       surfaceScalarField;
    location    "0.45";
    object      alphaPhi10;
}
// * * * * * * * * * * * * * * * * * * * * * * * * * * * * * * * * * * * * * //

dimensions      [0 3 -1 0 0 0 0];

internalField   nonuniform List<scalar> 
4432
(
-3.79564e-06
3.79564e-06
-4.19823e-06
4.02586e-07
-7.12253e-07
-3.48598e-06
4.8881e-06
-5.60036e-06
1.11879e-05
-6.29985e-06
1.69914e-05
-5.8034e-06
2.16901e-05
-4.69874e-06
2.51726e-05
-3.48254e-06
2.75821e-05
-2.40949e-06
2.91379e-05
-1.55574e-06
3.00377e-05
-8.99819e-07
3.04056e-05
-3.6796e-07
3.02196e-05
1.86019e-07
2.92822e-05
9.37414e-07
2.72594e-05
2.02277e-06
2.36019e-05
3.65756e-06
1.76396e-05
5.96222e-06
9.24939e-06
8.39025e-06
5.92184e-07
8.65719e-06
-5.17824e-06
6.5743e-06
-1.55495e-05
8.41266e-06
-1.54458e-05
-1.03749e-07
-1.54458e-05
-3.94029e-06
7.73593e-06
-3.90336e-06
3.65653e-07
-2.92222e-07
-7.09712e-06
5.28366e-06
-1.11762e-05
1.15301e-05
-1.25463e-05
1.72552e-05
-1.15285e-05
2.18724e-05
-9.31598e-06
2.52907e-05
-6.90075e-06
2.7673e-05
-4.79189e-06
2.92461e-05
-3.12882e-06
3.02063e-05
-1.85999e-06
3.06961e-05
-8.57776e-07
3.08504e-05
3.17234e-08
3.08161e-05
9.71682e-07
3.06107e-05
2.22824e-06
3.00642e-05
4.20402e-06
2.84715e-05
7.55496e-06
2.41409e-05
1.27209e-05
1.49716e-05
1.78264e-05
1.46518e-06
2.03476e-05
-7.84103e-06
1.85627e-05
-8.91171e-06
1.38584e-07
-2.43575e-05
-3.51428e-06
1.12502e-05
-3.30726e-06
1.58632e-07
3.09053e-07
-1.07134e-05
5.86957e-06
-1.67368e-05
1.19606e-05
-1.86373e-05
1.74761e-05
-1.7044e-05
2.1872e-05
-1.37119e-05
2.51049e-05
-1.01337e-05
2.73749e-05
-7.06186e-06
2.89182e-05
-4.67214e-06
2.99203e-05
-2.86211e-06
3.04958e-05
-1.4333e-06
3.06912e-05
-1.63605e-07
3.05055e-05
1.15733e-06
2.99647e-05
2.76904e-06
2.92168e-05
4.95189e-06
2.85956e-05
8.17615e-06
2.78895e-05
1.34271e-05
2.47819e-05
2.0934e-05
1.65594e-05
2.85701e-05
6.7307e-06
2.91484e-05
1.43787e-06
5.56946e-06
-2.2921e-05
-2.89209e-06
1.41423e-05
-2.41987e-06
-3.13593e-07
1.15006e-06
-1.42834e-05
6.56319e-06
-2.21499e-05
1.24287e-05
-2.45028e-05
1.76796e-05
-2.22949e-05
2.17949e-05
-1.78272e-05
2.47961e-05
-1.31349e-05
2.69368e-05
-9.20254e-06
2.84646e-05
-6.1999e-06
2.95448e-05
-3.94233e-06
3.02623e-05
-2.15077e-06
3.06396e-05
-5.4092e-07
3.06494e-05
1.14751e-06
3.02587e-05
3.15971e-06
2.94781e-05
5.73247e-06
2.85237e-05
9.13061e-06
2.81006e-05
1.38502e-05
2.82624e-05
2.07721e-05
2.68332e-05
2.99993e-05
2.17941e-05
3.41879e-05
1.13276e-05
1.60385e-05
-1.15842e-05
-2.09613e-06
1.62384e-05
-1.2076e-06
-1.20213e-06
2.17605e-06
-1.7667e-05
7.23817e-06
-2.7212e-05
1.28053e-05
-3.00699e-05
1.77745e-05
-2.72641e-05
2.16027e-05
-2.16554e-05
2.4375e-05
-1.59072e-05
2.64042e-05
-1.12317e-05
2.79471e-05
-7.7428e-06
2.91433e-05
-5.13848e-06
3.0042e-05
-3.04956e-06
3.06346e-05
-1.13343e-06
3.08793e-05
9.02747e-07
3.07494e-05
3.28967e-06
3.02482e-05
6.23365e-06
2.94359e-05
9.94291e-06
2.86826e-05
1.46035e-05
2.89976e-05
2.0457e-05
3.03592e-05
2.86377e-05
2.88738e-05
3.56733e-05
1.81402e-05
2.67722e-05
6.52198e-06
-1.06645e-06
1.73049e-05
3.82793e-07
-2.65138e-06
3.50517e-06
-2.07894e-05
8.09481e-06
-3.18016e-05
1.32229e-05
-3.5198e-05
1.78036e-05
-3.18447e-05
2.12962e-05
-2.51481e-05
2.38494e-05
-1.84604e-05
2.58148e-05
-1.31971e-05
2.74333e-05
-9.36136e-06
2.88021e-05
-6.50731e-06
2.99273e-05
-4.17473e-06
3.07654e-05
-1.9715e-06
3.12468e-05
4.2131e-07
3.13464e-05
3.19012e-06
3.10934e-05
6.48659e-06
3.05763e-05
1.046e-05
2.98989e-05
1.5281e-05
2.95764e-05
2.07795e-05
3.06859e-05
2.75281e-05
3.0674e-05
3.56852e-05
2.14407e-05
3.60055e-05
2.79603e-05
1.54602e-07
1.71503e-05
2.45553e-06
-4.9523e-06
5.76492e-06
-2.40988e-05
9.91635e-06
-3.59529e-05
1.42949e-05
-3.95762e-05
1.8143e-05
-3.56927e-05
2.10951e-05
-2.81001e-05
2.33512e-05
-2.07164e-05
2.52446e-05
-1.50906e-05
2.69597e-05
-1.10764e-05
2.85307e-05
-8.07835e-06
2.99138e-05
-5.55783e-06
3.10291e-05
-3.08676e-06
3.17889e-05
-3.38471e-07
3.21226e-05
2.85644e-06
3.20718e-05
6.53737e-06
3.17427e-05
1.07891e-05
3.12637e-05
1.576e-05
3.07e-05
2.13433e-05
3.0815e-05
2.74131e-05
3.0715e-05
3.57852e-05
2.38805e-05
4.28401e-05
5.18437e-05
2.12241e-06
1.50279e-05
5.59275e-06
-8.42264e-06
9.76118e-06
-2.82664e-05
1.34836e-05
-3.96735e-05
1.65891e-05
-4.26792e-05
1.92125e-05
-3.83143e-05
2.13956e-05
-3.02822e-05
2.32889e-05
-2.26093e-05
2.50773e-05
-1.68789e-05
2.68354e-05
-1.28344e-05
2.8529e-05
-9.77195e-06
3.0079e-05
-7.1078e-06
3.13891e-05
-4.39694e-06
3.23546e-05
-1.30396e-06
3.29301e-05
2.28096e-06
3.31428e-05
6.32472e-06
3.30245e-05
1.09074e-05
3.27037e-05
1.60807e-05
3.22376e-05
2.18094e-05
3.18066e-05
2.78442e-05
3.11078e-05
3.6484e-05
2.54306e-05
4.85172e-05
7.72743e-05
2.22971e-10
-2.22971e-10
6.54461e-09
-6.32164e-09
2.64823e-09
2.19824e-09
4.15132e-10
1.13667e-09
4.01934e-11
3.7666e-10
2.19259e-12
3.8156e-11
1.12205e-13
2.17489e-12
2.5104e-15
1.11341e-13
2.02808e-17
2.53859e-15
-5.95781e-21
2.03789e-17
-2.12668e-20
7.28525e-21
-1.16178e-18
2.38187e-19
-3.65404e-17
4.92145e-18
-4.14846e-16
1.22729e-16
-4.25063e-15
3.55946e-15
-9.30706e-14
8.91582e-15
-8.80367e-13
3.42933e-13
-6.81991e-13
-1.98376e-13
-6.81991e-13
3.47223e-09
-3.69605e-09
4.78744e-08
-5.96067e-08
2.02646e-08
2.04977e-08
4.57672e-09
1.07069e-08
5.79257e-10
4.07759e-09
4.44558e-11
5.32245e-10
2.16726e-12
3.99647e-11
6.3377e-14
1.97517e-12
7.32576e-16
6.13396e-14
-1.84931e-18
7.71337e-16
-2.41005e-18
5.01629e-19
-2.35295e-17
1.7142e-17
-5.31363e-16
3.84089e-16
-1.15882e-14
9.5742e-15
-1.52151e-13
1.28286e-13
-1.69708e-12
2.94909e-13
-1.59192e-11
5.65391e-12
-1.29199e-11
-1.02317e-11
-1.36016e-11
2.00861e-08
-2.37692e-08
1.59056e-07
-2.49288e-07
9.4623e-08
1.11706e-08
1.86705e-08
5.50338e-08
1.90507e-09
1.90935e-08
1.34381e-10
2.07567e-09
5.51955e-12
1.51482e-10
1.32881e-13
6.67098e-12
1.29545e-15
1.89529e-13
-1.00929e-17
2.02738e-15
-2.15941e-17
7.33843e-18
-3.04199e-16
2.73415e-16
-8.64121e-15
7.44481e-15
-1.79335e-13
1.5518e-13
-2.10489e-12
1.72356e-12
-1.73426e-11
4.49427e-12
-1.51389e-10
4.76195e-11
-1.32559e-10
-1.5583e-10
-1.46148e-10
1.32075e-07
-1.55864e-07
5.7276e-07
-3.94488e-06
3.10957e-07
-1.08905e-06
3.02522e-08
9.39382e-08
2.77805e-09
4.19444e-08
1.91523e-10
4.16072e-09
7.1811e-12
3.01476e-10
1.7191e-13
1.26478e-11
2.07261e-15
3.45645e-13
-3.31607e-17
3.76508e-15
-1.49156e-16
7.38354e-17
-3.0325e-15
2.93467e-15
-8.4428e-14
8.21646e-14
-1.51987e-12
1.40886e-12
-1.81085e-11
1.57027e-11
-1.30193e-10
4.80639e-11
-1.07657e-09
2.53602e-10
-9.72432e-10
-1.425e-09
-1.11845e-09
4.68678e-07
-6.24469e-07
6.93063e-07
-4.91644e-06
1.42838e-07
-1.07652e-06
-8.70253e-09
5.07547e-08
7.04809e-11
3.04133e-08
8.27162e-12
3.91293e-09
-8.71443e-13
2.89741e-10
-3.89587e-14
1.08947e-11
1.93536e-15
2.99991e-13
-5.00161e-17
3.64156e-15
-8.7888e-16
5.34614e-16
-2.08886e-14
2.09197e-14
-5.29608e-13
5.47039e-13
-9.18322e-12
8.9318e-12
-1.16121e-10
1.06203e-10
-7.79523e-10
3.90621e-10
-5.91146e-09
8.52867e-10
-5.51985e-09
-8.94208e-09
-6.6371e-09
5.88493e-07
-1.21298e-06
6.0655e-08
-1.53251e-06
1.62936e-09
-7.74156e-08
1.42547e-08
-2.76843e-09
-9.93017e-10
1.20657e-08
-2.00002e-10
1.72535e-09
-7.33734e-12
6.91743e-11
-1.74531e-13
3.3764e-12
5.0488e-15
1.07536e-13
-1.58254e-16
2.66898e-15
-4.61724e-15
2.96121e-15
-9.47524e-14
1.01777e-13
-2.35095e-12
2.86984e-12
-4.05319e-11
4.19651e-11
-5.61431e-10
6.12731e-10
-3.94481e-09
2.83159e-09
-2.47868e-08
3.54836e-10
-2.5387e-08
-3.7066e-08
-3.20127e-08
-5.87956e-07
-3.48865e-05
-2.29574e-08
-1.12134e-06
-8.07315e-09
-7.33334e-08
2.52031e-10
-7.8397e-10
2.7435e-10
-6.15622e-10
-5.11625e-11
3.58158e-10
-2.02418e-12
1.55853e-11
-6.7915e-14
1.29765e-12
2.52263e-15
3.39016e-14
-5.54118e-16
2.0364e-15
-2.02727e-14
1.65054e-14
-2.90019e-13
3.45687e-13
-8.38532e-12
1.01314e-11
-1.28899e-10
1.65791e-10
-2.27865e-09
2.502e-09
-1.63429e-08
1.48297e-08
-7.79774e-08
-6.82736e-09
-9.9572e-08
-1.01492e-07
-1.31452e-07
-2.92873e-06
-7.11888e-05
-1.30026e-07
-3.93001e-06
-1.49211e-08
-1.80067e-07
-1.42857e-09
-6.65924e-10
-4.2879e-11
2.96178e-11
-7.30198e-12
7.0204e-11
-2.888e-13
6.38423e-12
-1.28539e-14
9.84985e-13
7.33547e-16
1.73119e-14
-2.03637e-15
1.80314e-15
-1.06278e-13
2.95694e-14
-6.08455e-13
7.64263e-13
-1.7695e-11
2.53283e-11
-3.1125e-10
4.19081e-10
-5.66336e-09
7.28516e-09
-4.5606e-08
4.78327e-08
-1.58588e-07
-6.20509e-08
-2.14287e-07
-5.11498e-07
-3.44751e-07
1.20433e-05
2.98451e-06
2.70801e-05
-2.34594e-05
3.92594e-05
-4.0422e-05
4.37577e-05
-4.41226e-05
4.42692e-05
-4.31363e-05
4.49943e-05
-3.89973e-05
4.73527e-05
-3.26145e-05
5.1001e-05
-2.62438e-05
5.52687e-05
-2.114e-05
5.96557e-05
-1.72185e-05
6.37616e-05
-1.38766e-05
6.72981e-05
-1.06439e-05
7.01072e-05
-7.20592e-06
7.20464e-05
-3.24316e-06
7.29079e-05
1.41942e-06
7.35455e-05
5.68704e-06
7.37658e-05
1.06871e-05
7.36909e-05
1.61556e-05
7.37139e-05
2.17864e-05
7.3958e-05
2.76001e-05
7.55529e-05
3.48891e-05
8.18317e-05
4.22384e-05
5.70504e-05
0.000102056
2.29205e-05
-1.9936e-05
4.71618e-05
-4.32771e-05
5.12841e-05
-2.84231e-05
4.69634e-05
-1.63845e-05
4.19392e-05
-1.61297e-05
3.8995e-05
-1.76089e-05
3.99996e-05
-1.74283e-05
4.49072e-05
-1.69056e-05
5.20765e-05
-1.65412e-05
5.98843e-05
-1.60209e-05
6.71737e-05
-1.48187e-05
7.30522e-05
-1.26337e-05
7.68886e-05
-9.28781e-06
7.88765e-05
-4.8484e-06
8.01563e-05
1.56699e-07
7.98582e-05
5.98519e-06
7.94073e-05
1.1138e-05
7.89489e-05
1.6614e-05
7.96878e-05
2.10475e-05
8.21613e-05
2.51266e-05
8.72009e-05
2.98495e-05
9.62299e-05
3.32094e-05
3.89168e-05
0.000114364
2.16934e-05
-1.46601e-05
1.09347e-05
-9.50604e-07
4.96142e-06
-1.85893e-08
3.88588e-06
-4.18202e-18
4.00476e-06
-4.35428e-17
3.26161e-06
-6.15835e-16
3.10303e-06
-1.87632e-14
4.21304e-06
-4.55911e-13
6.78782e-06
-8.75133e-12
1.09126e-05
-1.34514e-10
1.69431e-05
-1.74036e-09
2.56308e-05
-1.93856e-08
3.79869e-05
-1.8947e-07
5.50284e-05
-1.99321e-06
7.13643e-05
-2.06105e-06
8.36515e-05
1.70627e-06
8.46999e-05
1.00897e-05
8.14956e-05
1.98183e-05
8.09252e-05
2.16179e-05
8.32582e-05
2.27936e-05
8.75633e-05
2.55444e-05
9.32259e-05
2.75468e-05
2.90205e-05
0.000103122
9.69193e-07
-3.78668e-21
1.85893e-08
-9.49102e-20
-1.81569e-20
-1.45274e-18
-9.01802e-19
-2.21693e-19
-1.42592e-17
-6.85301e-18
-5.48583e-16
-6.2468e-17
-1.88981e-14
-3.40007e-16
-4.72068e-13
-2.91743e-15
-9.13561e-12
-8.97516e-14
-1.42858e-10
-7.7913e-13
-1.88157e-09
-1.53383e-12
-2.12501e-08
-1.65012e-11
-2.10378e-07
-3.33311e-10
-5.88362e-07
-5.05978e-09
1.83351e-06
-3.59737e-08
9.58217e-06
-8.61845e-08
2.70047e-05
-1.68205e-08
5.56824e-05
3.84851e-07
8.25308e-05
5.69528e-06
8.99946e-05
1.533e-05
9.21852e-05
2.33538e-05
9.47321e-05
2.49999e-05
2.54577e-05
9.82949e-05
-2.02283e-21
-1.76385e-21
-5.07998e-20
-4.63293e-20
-9.54463e-19
-5.5631e-19
-2.20215e-18
-3.47177e-18
-3.00413e-17
-6.30411e-17
-4.4319e-17
-3.62548e-16
-7.42321e-17
-6.37984e-16
-1.77323e-15
-1.4993e-15
-2.1418e-14
-7.04877e-14
-6.92303e-14
-7.33278e-13
-5.50743e-13
-1.03917e-12
-1.64257e-11
-5.16183e-13
-3.33119e-10
-1.60052e-11
-3.0537e-09
-2.33048e-09
-1.19392e-08
-2.70491e-08
-6.36896e-08
-3.41088e-08
-8.44653e-08
-2.01557e-08
5.45158e-07
-3.17682e-08
8.33579e-06
-3.33041e-08
2.86127e-05
2.05734e-08
6.2659e-05
4.99682e-07
9.21775e-05
7.95331e-06
1.68591e-05
0.000100776
-1.45003e-21
-3.1382e-22
-2.81249e-20
-2.02221e-20
-5.17723e-19
-4.13661e-19
-2.24659e-17
-1.50488e-17
-3.88206e-16
-3.29664e-16
-1.01341e-15
-1.69598e-15
-6.08339e-16
-2.45373e-15
-2.44173e-16
-2.2443e-15
-3.13171e-13
-5.44752e-14
-1.3223e-12
-1.65075e-12
-2.1145e-13
-3.57856e-12
1.20057e-13
-7.0409e-13
-1.85835e-11
5.31192e-12
-5.85455e-09
-4.65214e-10
-1.10155e-08
-2.01873e-08
-7.41766e-09
-2.62326e-08
-8.95336e-10
-1.78772e-08
2.05332e-09
-2.29853e-08
5.22926e-09
-2.33812e-08
5.38193e-08
-1.4225e-08
9.38802e-07
-9.66302e-09
1.35483e-05
-5.15621e-08
4.22904e-08
4.22896e-05
-2.65008e-22
-4.88123e-23
-1.27096e-20
-7.87015e-21
-5.44854e-19
-2.66671e-19
-4.35406e-17
-1.45422e-17
-8.59286e-16
-3.46966e-16
-2.44873e-15
-2.14978e-15
-1.8355e-15
-3.49552e-15
-6.35943e-15
-2.4342e-15
-3.49887e-13
-2.39954e-14
-2.99254e-12
-2.51589e-12
-2.06597e-12
-3.79108e-12
1.49463e-13
-2.46431e-12
7.39676e-12
-2.31996e-13
-3.33198e-10
-3.3967e-11
-2.00459e-09
-2.24251e-12
-2.64181e-09
-1.32055e-08
-5.1965e-10
-3.86176e-11
3.74076e-09
-1.43639e-08
1.59911e-08
-1.28775e-08
3.72768e-08
-2.8251e-08
5.66761e-08
-2.08633e-08
2.4563e-08
-8.10824e-09
6.31808e-11
7.95603e-08
-4.24223e-23
-6.38996e-24
-6.21873e-21
-1.72801e-21
-2.47073e-19
-8.23664e-20
-3.13681e-17
-7.93204e-18
-7.13745e-16
-2.96822e-16
-2.24143e-15
-2.11628e-15
-1.70853e-15
-3.5408e-15
-3.60455e-15
-3.05285e-15
-4.97107e-14
-3.38119e-15
-2.09442e-12
-1.03369e-12
-2.07442e-12
-2.76878e-12
-5.59188e-13
-1.90507e-12
6.36624e-13
-2.21496e-12
2.34539e-12
-3.20815e-11
3.57795e-13
-5.17552e-12
4.87362e-13
-1.20337e-12
-3.79844e-11
-8.57483e-14
7.27604e-10
-1.88755e-13
4.7951e-09
-9.83448e-09
2.30861e-08
-2.66203e-08
2.68678e-08
-2.24733e-08
1.76869e-08
-3.89464e-09
1.3568e-09
1.64081e-08
-5.70293e-24
-6.87034e-25
-1.49089e-21
-2.29602e-22
-6.57642e-20
-2.06418e-20
-1.21537e-17
-2.79345e-18
-3.99208e-16
-1.46038e-16
-1.66974e-15
-1.34902e-15
-1.45715e-15
-3.01195e-15
-5.34553e-16
-2.74998e-15
-1.09477e-15
-1.62474e-15
-5.9444e-13
-8.26555e-16
-2.29857e-14
-8.50087e-16
1.48806e-13
-1.44165e-15
3.89754e-12
-5.00955e-12
1.13151e-11
-4.17317e-11
1.00273e-12
-6.73686e-12
7.70273e-15
-1.75556e-13
4.10247e-15
-3.07322e-14
2.09175e-14
-1.45426e-13
3.08254e-09
-8.22874e-09
3.47966e-09
-2.55092e-08
3.88263e-09
-2.07367e-08
5.74089e-09
-5.73805e-09
-1.32268e-09
8.12969e-09
-8.99884e-25
1.90259e-25
-1.981e-22
-3.25627e-23
-1.66937e-20
-4.46114e-21
-3.38572e-18
-8.66379e-19
-1.33616e-16
-5.30648e-17
-7.40776e-16
-5.09374e-16
-6.60005e-16
-1.26705e-15
-3.27974e-16
-1.18849e-15
-8.32611e-17
-6.91393e-16
-4.88722e-17
-9.04535e-16
-1.76456e-17
-9.19701e-16
1.4509e-15
-2.95378e-15
2.23753e-12
-3.69559e-12
9.61185e-12
-6.4925e-12
1.7082e-13
-1.73066e-13
-4.11466e-15
-6.07419e-16
8.9972e-15
-2.42431e-15
1.35752e-12
-1.43109e-12
-1.31433e-11
-1.20385e-09
-1.07305e-10
-1.20483e-08
-2.48798e-10
-1.6868e-08
5.64749e-10
-2.15624e-08
-3.98268e-09
2.53836e-09
-1.53428e-24
1.8868e-25
-3.01714e-23
-3.92555e-24
-3.76908e-21
-7.60126e-22
-8.89635e-19
-2.10188e-19
-3.38419e-17
-1.48676e-17
-2.03052e-16
-1.38696e-16
-1.62878e-16
-3.68659e-16
-6.36743e-17
-3.52151e-16
-2.24578e-17
-3.29565e-16
4.50024e-17
-1.73176e-15
1.2197e-16
-1.04034e-15
3.35345e-14
-4.45209e-16
2.80324e-13
-1.13563e-16
1.73843e-13
-2.11508e-17
6.29777e-16
1.47881e-16
6.75548e-18
1.56022e-17
-9.33054e-16
-1.42571e-15
-1.1515e-12
-2.44962e-13
-3.51353e-10
-4.00465e-11
-2.18778e-09
-1.0669e-09
-7.5043e-09
-1.91124e-08
-4.01784e-09
-2.10877e-08
-7.10071e-09
-3.48008e-09
-1.11302e-25
9.30772e-26
-3.62251e-24
-4.14346e-25
-6.54289e-22
-1.11281e-22
-1.90326e-19
-3.79485e-20
-6.74009e-18
-3.31719e-18
-4.36434e-17
-3.05588e-17
-3.59459e-17
-7.93188e-17
-2.29805e-17
-8.05737e-17
-5.15944e-17
-1.42915e-16
7.42413e-17
-1.06468e-15
6.15903e-17
-1.03439e-15
4.8413e-17
-4.51447e-16
4.97919e-19
-6.59757e-17
6.45383e-20
-2.07174e-17
3.93394e-20
1.74681e-16
-1.16864e-16
2.39359e-16
-1.57607e-15
3.89796e-17
-2.46145e-13
-3.2455e-16
-4.0275e-11
-1.51919e-14
-1.10672e-09
-3.87717e-13
-3.26226e-09
-8.71255e-12
-5.2116e-09
-1.32805e-10
-1.61475e-09
-8.61823e-09
-7.44272e-27
5.28101e-26
-3.41097e-25
-8.06846e-26
-3.58806e-23
-3.64448e-23
-3.33289e-20
-5.45412e-21
-1.23668e-18
-5.7902e-19
-7.33642e-18
-5.42367e-18
-6.85572e-18
-1.36391e-17
-5.81055e-18
-1.45421e-17
-7.55619e-17
-2.80749e-17
-2.84786e-17
-1.94454e-16
-5.99169e-19
-2.44878e-16
9.77802e-19
-2.88288e-16
-8.32108e-19
-1.54291e-16
8.492e-18
-5.16715e-17
2.45604e-17
7.29019e-17
6.55732e-18
1.13146e-16
-5.56983e-18
7.62931e-17
-3.57213e-16
2.67103e-17
-1.55354e-14
-1.57566e-17
-4.03214e-13
-3.29067e-17
-9.11581e-12
-5.26638e-17
-1.41921e-10
-8.81874e-17
-6.16995e-16
-1.75667e-09
-1.01541e-27
3.65158e-26
-5.73656e-26
-2.49107e-26
-5.17682e-24
-1.46336e-23
-4.72467e-21
-6.60184e-22
-1.91885e-19
-7.72461e-20
-1.07759e-18
-7.2829e-19
-1.14734e-18
-1.94185e-18
-1.23014e-18
-2.48399e-18
-9.21177e-18
-4.0731e-18
-1.17967e-17
-1.00364e-17
-1.68023e-17
-3.89726e-17
-1.75735e-17
-8.33785e-17
-1.23487e-17
-1.18156e-16
1.0631e-17
-4.59721e-17
2.211e-17
1.11192e-17
1.96485e-17
3.02899e-17
8.65872e-18
2.25854e-17
-4.18375e-19
5.84585e-18
-1.48208e-18
-1.11588e-17
-2.98007e-18
-3.35068e-17
-7.63876e-18
-5.0745e-17
-4.56255e-17
-5.47263e-17
-8.21204e-17
-5.87828e-16
-1.62689e-28
2.61236e-26
-1.40834e-25
1.15751e-25
-1.03164e-24
-4.41087e-24
-5.53512e-22
-6.97444e-23
-2.22701e-20
-7.97361e-21
-1.23578e-19
-7.4242e-20
-1.78859e-19
-2.18313e-19
-2.55987e-19
-4.26777e-19
-4.66037e-19
-1.01704e-18
-1.99514e-18
-2.97735e-18
-5.85999e-18
-1.05937e-17
-1.39764e-17
-1.87275e-17
-1.20443e-17
-2.25179e-17
2.55027e-18
-1.00269e-17
8.48021e-18
-2.51108e-18
7.76559e-18
2.8012e-18
2.45819e-18
3.04189e-18
-5.76872e-18
1.05444e-18
-1.55502e-17
-7.08312e-19
-3.13185e-17
-8.80965e-18
-5.99538e-17
-3.83286e-17
-8.50247e-17
-1.0633e-16
-1.86732e-16
-1.05134e-16
1.09132e-27
1.68412e-26
-1.2442e-25
1.4315e-25
-2.25666e-25
-8.32808e-25
-5.41849e-23
-6.68675e-24
-2.01479e-21
-6.09202e-22
-1.03768e-20
-5.76508e-21
-2.46632e-20
-2.14778e-20
-5.92312e-20
-8.08343e-20
-1.66518e-19
-2.67724e-19
-8.17481e-19
-6.6526e-19
-2.06289e-18
-1.52797e-18
-2.8438e-18
-1.94836e-18
-2.08563e-18
-1.61523e-18
-1.39071e-18
-1.19682e-18
9.94157e-19
-1.12626e-18
1.28552e-18
-3.90128e-19
5.32341e-19
-1.11371e-19
-3.13205e-19
-1.15327e-19
-7.91893e-19
-1.78909e-19
-1.13098e-17
-9.17387e-19
-7.25319e-17
-7.64247e-18
-2.23327e-16
-4.0956e-17
-1.27051e-16
-4.2184e-16
1.40256e-27
9.19388e-27
-2.06511e-26
9.61909e-26
-3.65355e-26
-6.85808e-26
-4.02206e-24
-6.07333e-25
-1.28925e-22
-3.23543e-23
-7.30605e-22
-3.37496e-22
-3.52822e-21
-2.39953e-21
-1.68504e-20
-1.65941e-20
-5.24869e-20
-6.74606e-20
-1.71176e-19
-1.62035e-19
-2.72149e-19
-2.50701e-19
-2.86217e-19
-2.62171e-19
-2.21826e-19
-2.18143e-19
-2.5478e-19
-1.17051e-19
-2.27635e-19
-3.57226e-20
-5.55627e-20
-6.48312e-21
-6.77642e-20
-1.47223e-21
-7.56739e-20
-2.81252e-21
-1.27107e-19
-1.99166e-20
-1.20425e-18
-2.29194e-19
-1.25594e-17
-2.19774e-18
-8.49094e-17
-1.44445e-17
-5.56352e-17
-3.39685e-16
1.00502e-27
4.10394e-27
-1.31785e-27
4.8754e-26
-2.57462e-27
1.38713e-26
-2.06605e-25
-4.02742e-26
-4.93848e-24
-1.14543e-24
-5.13102e-23
-1.70106e-23
-5.90245e-22
-3.22944e-22
-4.39988e-21
-3.05821e-21
-1.71922e-20
-1.39009e-20
-3.84354e-20
-3.45736e-20
-4.4505e-20
-4.93096e-20
-4.86589e-20
-4.99673e-20
-3.54046e-20
-4.0713e-20
-1.38412e-20
-2.13955e-20
-2.92004e-21
-6.2226e-21
-4.62292e-22
-9.54058e-22
-5.81537e-22
-2.14224e-22
-1.79329e-21
-4.05182e-22
-2.22645e-20
-4.06036e-21
-3.47522e-19
-5.25477e-20
-4.52023e-18
-6.49338e-19
-3.52292e-17
-5.461e-18
-2.30941e-17
-1.58205e-16
5.40704e-28
1.44554e-27
6.22308e-28
1.93135e-26
-1.82951e-27
1.59111e-26
-6.41991e-27
2.99235e-28
-1.38343e-25
-2.1324e-26
-4.40411e-24
-1.08765e-24
-9.88281e-23
-3.89485e-23
-9.02433e-22
-4.26774e-22
-3.98553e-21
-2.15174e-21
-8.45532e-21
-5.71705e-21
-9.7759e-21
-8.68824e-21
-1.04502e-20
-8.90822e-21
-7.54276e-21
-7.26271e-21
-2.90449e-21
-3.76567e-21
-5.14676e-22
-1.01804e-21
-7.95261e-23
-1.27239e-22
-9.68734e-23
-2.80557e-23
-3.40679e-22
-7.00604e-23
-4.70282e-21
-7.90621e-22
-8.84281e-20
-1.19316e-20
-1.64717e-18
-1.93467e-19
-1.56657e-17
-2.0786e-18
-9.94759e-18
-7.2928e-17
2.20157e-28
3.83549e-28
7.39581e-28
5.68367e-27
2.58493e-29
7.63034e-27
-1.43249e-27
1.68315e-27
-3.82913e-27
-2.09452e-28
-4.2712e-25
-7.48151e-26
-1.27588e-23
-3.14523e-24
-1.35135e-22
-4.35901e-23
-6.47279e-22
-2.48051e-22
-1.55601e-21
-7.05973e-22
-1.84236e-21
-1.16289e-21
-1.99315e-21
-1.21981e-21
-1.43982e-21
-1.03869e-21
-5.2396e-22
-5.72251e-22
-7.53278e-23
-1.57458e-22
-1.12442e-23
-1.65029e-23
-1.406e-23
-3.37981e-24
-6.29826e-23
-1.13856e-23
-9.50831e-22
-1.52481e-22
-2.267e-20
-2.76243e-21
-5.8897e-19
-5.83787e-20
-6.84485e-18
-7.89905e-19
-4.19777e-18
-3.62166e-17
6.43678e-29
7.156e-29
3.67035e-28
1.13827e-27
1.50349e-28
1.99972e-27
-2.11713e-29
6.34855e-28
-2.77579e-28
3.96791e-29
-2.81983e-26
-2.61031e-27
-1.16028e-24
-1.58054e-25
-1.49308e-23
-3.30957e-24
-7.75009e-23
-2.10524e-23
-2.08997e-22
-6.31899e-23
-2.61057e-22
-1.09522e-22
-2.87114e-22
-1.17473e-22
-2.23509e-22
-1.04017e-22
-8.55813e-23
-6.16009e-23
-1.06044e-23
-1.82142e-23
-1.4673e-24
-1.97781e-24
-1.88728e-24
-4.51431e-25
-1.10075e-23
-1.92703e-24
-1.94372e-22
-3.05178e-23
-5.89095e-21
-6.65263e-22
-2.12558e-19
-1.76285e-20
-3.00253e-18
-2.98836e-19
-1.74908e-18
-1.67766e-17
1.23387e-29
8.40779e-30
9.90251e-29
1.35838e-28
5.83134e-29
2.55014e-28
4.9478e-30
7.96697e-29
-2.44332e-28
1.69409e-29
-9.68913e-28
-1.56413e-29
-7.61487e-26
-5.69281e-27
-1.21897e-24
-1.84567e-25
-6.79143e-24
-1.26088e-24
-1.95499e-23
-3.88076e-24
-2.56576e-23
-6.88249e-24
-2.85459e-23
-7.5615e-24
-2.3859e-23
-6.90171e-24
-9.98124e-24
-4.35458e-24
-1.2979e-24
-1.39141e-24
-2.09222e-25
-1.69782e-25
-2.74834e-25
-5.76054e-26
-1.9872e-24
-3.30966e-25
-4.18333e-23
-6.39741e-24
-1.54454e-21
-1.64766e-22
-7.56175e-20
-5.16779e-21
-1.34979e-18
-1.08055e-19
-7.08757e-19
-7.62757e-18
1.37344e-30
4.93468e-31
1.28793e-29
8.12246e-30
7.46312e-30
1.58172e-29
2.15395e-30
4.81782e-30
-2.54732e-30
1.01547e-30
-1.90583e-29
-4.58593e-31
-3.7868e-27
-1.72585e-28
-7.13332e-26
-6.62768e-27
-4.12932e-25
-4.80285e-26
-1.2116e-24
-1.52336e-25
-1.67263e-24
-2.75928e-25
-1.87285e-24
-3.14718e-25
-1.66087e-24
-2.9197e-25
-7.57213e-25
-1.91416e-25
-1.05361e-25
-6.43803e-26
-2.75454e-26
-9.26594e-27
-3.74781e-26
-5.74847e-27
-3.66122e-25
-5.69741e-26
-9.4157e-24
-1.38227e-24
-4.00989e-22
-4.07878e-23
-2.51837e-20
-1.44844e-21
-5.69658e-19
-3.65794e-20
-2.611e-19
-3.50708e-18
7.40449e-32
-5.83067e-47
8.0153e-31
-2.10828e-42
4.54147e-31
-1.32283e-39
1.30097e-31
-5.56275e-37
-7.58442e-32
-3.74756e-35
-5.3709e-31
-3.02654e-33
-1.25847e-28
-1.06782e-30
-2.62029e-27
-9.85079e-29
-1.58923e-26
-9.06498e-28
-4.71392e-26
-3.19824e-27
-6.9992e-26
-6.18279e-27
-7.84457e-26
-7.5294e-27
-7.20138e-26
-6.95687e-27
-3.45635e-26
-4.48279e-27
-4.7373e-27
-1.45797e-27
-2.7998e-27
-2.81688e-28
-4.22055e-27
-5.22859e-28
-6.84682e-26
-1.01184e-26
-2.14413e-24
-2.94966e-25
-1.01058e-22
-9.64029e-24
-7.95682e-21
-3.74509e-22
-2.24655e-19
-1.12881e-20
-8.6563e-20
-1.41054e-18
-5.84366e-47
1.2986e-49
-2.10798e-42
-3.51602e-46
-1.32472e-39
-2.21354e-43
-1.71489e-36
-5.01239e-41
-4.5548e-36
-1.79709e-38
-3.08984e-33
-5.08689e-36
-1.36971e-30
-1.63835e-33
-4.3325e-29
-2.81868e-31
-3.10975e-28
-3.55084e-30
-9.92459e-28
-1.46569e-29
-1.65857e-27
-3.04963e-29
-1.85226e-27
-3.45579e-29
-1.6846e-27
-3.13161e-29
-7.69134e-28
-2.14485e-29
-1.11914e-28
-1.02321e-29
-1.26969e-28
-8.22016e-30
-4.7487e-28
-6.05545e-29
-1.29622e-26
-1.82899e-27
-4.68447e-25
-6.02304e-26
-2.36443e-23
-2.12269e-24
-2.27058e-21
-8.84069e-23
-8.18167e-20
-3.14842e-21
-2.57259e-20
-5.25516e-19
-1.024e-48
5.30443e-50
-3.85381e-46
3.27548e-47
-2.22111e-43
-5.37641e-46
-5.07571e-41
-9.99501e-44
-1.81291e-38
-3.89358e-41
-5.16394e-36
-1.18892e-38
-2.75717e-33
-3.62389e-36
-1.4061e-31
-9.42016e-34
-1.30208e-30
-1.75739e-32
-5.04157e-30
-9.45368e-32
-7.53101e-30
-2.63556e-31
-8.33373e-30
-4.61269e-31
-7.63546e-30
-5.01092e-31
-3.85093e-30
-4.58285e-31
-3.32434e-30
-3.19443e-31
-4.37896e-30
-4.67432e-31
-6.52288e-29
-9.03006e-30
-2.40533e-27
-3.23296e-28
-9.52442e-26
-1.14837e-26
-5.06248e-24
-4.33679e-25
-5.79583e-22
-1.92212e-23
-2.72654e-20
-8.03388e-22
-6.80014e-21
-1.81337e-19
1.24723e-49
1.30052e-50
-8.77307e-48
8.08633e-48
-7.11344e-46
1.6493e-46
-1.00682e-43
2.10105e-47
-3.90478e-41
-2.01002e-45
-1.19596e-38
-6.76521e-43
-6.01289e-36
-1.8388e-40
-5.15944e-34
-4.91174e-38
-6.45871e-33
-1.30592e-35
-3.10635e-32
-2.79829e-34
-8.89295e-32
-1.57909e-33
-1.2381e-31
-4.28249e-33
-1.36503e-31
-5.71428e-33
-1.066e-31
-5.23187e-33
-1.18375e-31
-4.23843e-33
-3.16925e-31
-3.51219e-32
-1.00835e-29
-1.37975e-30
-4.18837e-28
-5.25337e-29
-1.7627e-26
-1.97385e-27
-9.89649e-25
-8.02317e-26
-1.34022e-22
-3.82587e-24
-8.39294e-21
-1.86561e-22
-1.56087e-21
-5.65458e-20
3.54366e-51
1.66941e-51
6.26945e-48
8.82019e-49
1.62468e-48
2.00872e-47
-2.24221e-46
5.05886e-48
-2.23319e-45
-1.05628e-48
-6.80416e-43
-3.79861e-46
-1.85232e-40
-1.1565e-43
-8.18687e-38
-2.96737e-41
-8.57567e-36
-1.11124e-38
-1.19763e-34
-6.47628e-37
-6.60705e-34
-4.84935e-36
-1.34246e-33
-1.53184e-35
-1.46833e-33
-2.1925e-35
-1.35509e-33
-2.01758e-35
-1.74216e-33
-1.06555e-34
-3.11588e-32
-4.56953e-33
-1.47197e-30
-1.90131e-31
-6.42071e-29
-7.43435e-30
-2.84485e-27
-2.92339e-28
-1.70894e-25
-1.2852e-26
-2.75184e-23
-6.70213e-25
-2.34847e-21
-3.85197e-23
-3.00415e-22
-1.57747e-20
-7.11479e-53
2.62084e-61
6.29017e-49
1.49027e-58
3.47405e-49
-4.81518e-57
-1.01545e-49
-3.73872e-54
-1.15693e-48
-8.73114e-52
-3.81065e-46
-1.36516e-50
-1.16055e-43
-4.66175e-48
-3.0924e-41
-1.34784e-45
-1.28711e-38
-3.72328e-43
-2.92619e-37
-1.22366e-40
-2.05731e-36
-3.1817e-39
-4.77373e-36
-1.71442e-38
-5.11094e-36
-2.89595e-38
-6.0763e-36
-2.1429e-37
-7.34318e-35
-1.12081e-35
-3.81844e-33
-5.3046e-34
-1.83527e-31
-2.24074e-32
-8.21991e-30
-9.01334e-31
-3.7729e-28
-3.61869e-29
-2.4341e-26
-1.68812e-27
-4.74233e-24
-9.73564e-26
-5.75694e-22
-6.86567e-24
-4.63945e-23
-3.80396e-21
-2.41905e-62
1.41039e-61
-1.15644e-58
7.25314e-59
-5.35896e-57
4.28142e-58
-1.82842e-53
-7.62818e-58
-3.01478e-53
-9.16067e-55
-1.0271e-50
-6.68854e-53
-4.66582e-48
-2.90936e-51
-1.35323e-45
-1.41977e-49
-6.19712e-43
-9.55169e-48
-9.54461e-41
-1.19905e-45
-1.75601e-39
-1.62566e-43
-3.37242e-39
-4.37741e-42
-6.94062e-39
-2.76084e-40
-1.16912e-37
-1.92057e-38
-7.22904e-36
-1.08216e-36
-3.84089e-34
-5.28806e-35
-1.88365e-32
-2.35027e-33
-8.58123e-31
-9.68844e-32
-3.8978e-29
-3.81124e-30
-2.61025e-27
-1.75821e-28
-6.2663e-25
-1.11494e-26
-1.16215e-22
-1.05528e-24
-6.66903e-24
-7.50253e-22
-1.93779e-62
5.87537e-62
7.17009e-60
2.4347e-59
-3.86932e-59
1.55902e-58
-8.19914e-58
7.98538e-60
-1.4502e-55
-3.96779e-57
-1.01317e-53
-4.76312e-55
-5.16256e-52
-4.64057e-53
-2.30574e-50
-4.76493e-51
-2.09462e-48
-5.30396e-49
-9.03049e-46
-3.81403e-47
-3.3079e-44
-3.30448e-45
-1.3841e-42
-2.85894e-43
-1.20562e-40
-2.40895e-41
-9.28575e-39
-1.478e-39
-5.80906e-37
-8.67727e-38
-3.23219e-35
-4.66854e-36
-1.65072e-33
-2.24646e-34
-7.48288e-32
-9.64581e-33
-3.16568e-30
-3.77541e-31
-1.93054e-28
-1.592e-29
-5.75055e-26
-1.0225e-27
-1.79834e-23
-1.48333e-25
-1.57792e-24
-1.09841e-22
-1.00869e-62
1.66509e-62
1.56402e-60
5.50113e-60
3.44535e-61
3.76809e-59
-1.51619e-58
6.8735e-60
-3.96707e-58
-4.74308e-59
-5.29155e-56
-7.99589e-57
-6.24768e-54
-1.02468e-54
-1.03185e-51
-1.41538e-52
-9.59393e-50
-1.70133e-50
-8.56151e-48
-1.9844e-48
-8.67119e-46
-2.06249e-46
-1.00867e-43
-1.68214e-44
-8.19393e-42
-1.34744e-42
-5.74931e-40
-9.30259e-41
-3.84646e-38
-6.20724e-39
-2.32755e-36
-3.64049e-37
-1.25006e-34
-1.91348e-35
-5.7376e-33
-8.91996e-34
-2.30764e-31
-3.7665e-32
-1.01807e-29
-1.51029e-30
-3.55552e-27
-8.12279e-29
-1.92882e-24
-2.08081e-26
-5.09335e-25
-9.85013e-24
-3.20559e-63
2.37815e-63
1.63861e-61
6.27994e-61
2.58326e-61
4.58348e-60
-1.66839e-60
8.20791e-61
-4.47402e-60
-5.40687e-61
-8.04965e-58
-1.37615e-58
-1.41153e-55
-2.43167e-56
-2.17857e-53
-4.03467e-54
-3.1927e-51
-5.77096e-52
-4.58908e-49
-6.88112e-50
-4.77215e-47
-7.68515e-48
-4.63371e-45
-7.17482e-46
-3.88378e-43
-6.63079e-44
-3.11297e-41
-5.05522e-42
-2.25614e-39
-3.70195e-40
-1.45121e-37
-2.44487e-38
-8.17373e-36
-1.42485e-36
-4.01825e-34
-7.49508e-35
-1.67352e-32
-3.60782e-33
-4.71569e-31
-1.5527e-31
-1.57132e-28
-6.13074e-30
-1.08259e-25
-3.06447e-27
-1.33629e-25
-1.19362e-25
-4.71595e-64
2.1719e-80
1.59477e-63
3.27503e-77
2.81881e-62
-4.36377e-67
-1.8667e-62
-4.61509e-64
-5.05563e-62
-6.72055e-63
-1.40321e-59
-1.97772e-60
-3.1723e-57
-4.55986e-58
-6.34717e-55
-8.34319e-56
-9.8516e-53
-1.35657e-53
-1.41434e-50
-1.8093e-51
-1.62102e-48
-2.28638e-49
-1.84843e-46
-2.41165e-47
-1.73072e-44
-2.51202e-45
-1.47927e-42
-2.17064e-43
-1.1786e-40
-1.74475e-41
-8.13778e-39
-1.35802e-39
-4.88358e-37
-8.93732e-38
-2.62107e-35
-5.34705e-36
-1.25605e-33
-2.99591e-34
-2.36484e-32
-1.50463e-32
-5.3321e-30
-4.58316e-31
3.08868e-28
-4.21368e-28
-2.50544e-26
1.01789e-25
-4.13519e-81
1.28163e-80
-3.86365e-80
1.56984e-77
-2.18627e-66
-1.93736e-71
-2.50019e-65
-3.47695e-68
-5.72996e-64
-5.6146e-65
-2.15652e-61
-1.86191e-62
-5.71302e-59
-5.15995e-60
-1.28798e-56
-1.10543e-57
-2.23908e-54
-2.00478e-55
-3.6153e-52
-3.27289e-53
-4.68029e-50
-4.52217e-51
-5.96651e-48
-5.7584e-49
-6.37403e-46
-6.78457e-47
-5.81147e-44
-6.69657e-45
-5.31083e-42
-6.30651e-43
-4.13533e-40
-5.72037e-41
-2.70203e-38
-4.50814e-39
-1.59335e-36
-3.05962e-37
-1.00079e-34
-2.05349e-35
-1.42678e-33
-1.2196e-33
-1.43079e-31
-3.62605e-32
9.95562e-29
-4.79608e-29
-3.33106e-27
1.68165e-26
-2.2394e-81
5.56704e-81
-3.37597e-80
5.7258e-78
-1.93128e-71
-5.48185e-74
-5.29912e-69
-1.03831e-70
-4.5513e-66
-1.74353e-67
-2.03013e-63
-8.38029e-65
-6.54481e-61
-2.48011e-62
-1.60271e-58
-6.92437e-60
-3.46732e-56
-1.53432e-57
-6.12655e-54
-3.11516e-55
-9.45296e-52
-5.1309e-53
-1.39756e-49
-8.57065e-51
-1.67191e-47
-1.13643e-48
-1.76454e-45
-1.36586e-46
-1.84861e-43
-1.60111e-44
-1.73612e-41
-1.68844e-42
-1.27093e-39
-1.55869e-40
-8.69258e-38
-1.29418e-38
-7.16523e-36
-1.10636e-36
-1.00888e-34
-7.20779e-35
-1.20209e-32
-2.88188e-33
8.85111e-30
-4.4778e-30
-3.09007e-28
1.48785e-27
-8.61037e-82
1.58108e-81
-1.5343e-80
1.41615e-78