/*--------------------------------*- C++ -*----------------------------------*\
| =========                 |                                                 |
| \\      /  F ield         | OpenFOAM: The Open Source CFD Toolbox           |
|  \\    /   O peration     | Version:  5.x                                   |
|   \\  /    A nd           | Web:      www.OpenFOAM.org                      |
|    \\/     M anipulation  |                                                 |
\*---------------------------------------------------------------------------*/
FoamFile
{
    version     2.0;
    format      ascii;
    class       volScalarField;
    location    "0.45";
    object      p;
}
// * * * * * * * * * * * * * * * * * * * * * * * * * * * * * * * * * * * * * //

dimensions      [1 -1 -2 0 0 0 0];

internalField   nonuniform List<scalar> 
2268
(
742.182
741.779
747.158
756.238
763.48
766.979
767.402
767.58
769.875
775.257
783.862
795.612
810.454
828.252
848.892
872.164
897.125
921.354
938.89
953.06
933.796
928.546
965.975
682.585
681.61
686.819
695.947
703.196
706.745
707.252
707.566
710.018
715.539
724.24
735.995
750.619
768.07
788.207
810.877
835.475
860.478
881.107
896.929
884.299
856.828
900.35
622.124
620.418
624.998
634.312
641.499
645.165
645.847
646.429
649.19
654.984
663.884
675.761
690.49
707.901
727.83
749.858
773.204
796.668
817.454
833.089
826.292
794.78
840.541
561.188
558.407
562.215
571.025
578.448
582.356
583.302
584.266
587.466
593.649
602.833
614.895
629.708
647.115
666.888
688.545
711.173
733.308
752.642
766.874
765.577
752.683
791.562
500.301
495.889
498.486
506.406
514.183
518.482
519.753
521.185
524.937
531.598
541.126
553.413
568.351
585.792
605.486
626.932
649.222
670.814
689.494
703.585
709.323
711.193
749.48
440.07
433.412
433.899
440.49
448.751
453.667
455.298
457.227
461.614
468.836
478.77
491.329
506.437
523.954
543.649
565.032
587.227
608.725
627.572
642.412
652.902
663.102
700.288
381.135
371.28
368.737
373.561
382.341
388.091
390.162
392.585
397.588
405.361
415.702
428.568
443.909
461.599
481.395
502.837
525.133
546.802
566.145
581.664
593.637
605.192
633.144
324.443
311.29
304.521
306.779
315.512
321.914
324.572
327.712
333.398
341.635
352.243
365.273
380.723
398.555
418.662
440.424
463.059
485.069
504.953
520.938
532.106
540.462
545.083
275.674
275.332
273.611
272.073
271.661
271.76
271.764
271.687
271.626
271.595
271.596
271.644
271.757
271.957
272.295
272.843
273.585
274.276
274.572
275.651
275.213
273.308
271.783
271.493
271.694
271.711
271.624
271.559
271.526
271.524
271.569
271.677
271.87
272.197
272.748
273.521
274.25
274.546
275.655
275.044
272.647
271.28
271.23
271.579
271.623
271.54
271.477
271.443
271.438
271.476
271.574
271.752
272.06
272.615
273.45
274.258
274.555
275.726
274.625
271.28
270.414
270.871
271.411
271.498
271.437
271.383
271.348
271.338
271.366
271.448
271.603
271.877
272.429
273.359
274.299
274.596
276.054
273.441
269.303
269.391
270.543
271.223
271.353
271.323
271.28
271.244
271.226
271.24
271.301
271.424
271.641
272.165
273.225
274.365
274.671
277.167
271.592
268.71
269.184
270.349
271.046
271.209
271.207
271.172
271.132
271.104
271.099
271.135
271.215
271.344
271.783
272.986
274.43
274.801
274.212
270.699
268.831
269.354
270.299
270.912
271.082
271.094
271.061
271.016
270.974
270.947
270.95
270.979
270.979
271.221
272.516
274.431
275.007
263.752
270.079
269.163
269.711
270.354
270.834
270.977
270.988
270.951
270.896
270.838
270.785
270.752
270.718
270.542
270.396
271.563
274.05
275.213
239.244
222.808
207.246
202.616
210.155
216.855
220.036
224.551
231.795
241.131
252.379
265.828
281.411
298.916
318.886
341.359
365.144
388.443
409.807
426.875
435.023
428.071
360.866
133.539
111.266
81.8448
65.9307
71.8606
77.7577
79.2831
82.9808
89.968
99.0682
110.108
124.278
142.831
164.721
186.737
208.925
233.71
258.673
282.486
301.957
311.967
309.193
291.099
53.4647
26.7303
8.35772
4.95159
7.58329
9.15085
9.29937
10.2445
12.3105
15.1533
18.5906
22.994
28.9902
37.6685
49.7258
69.0598
95.3986
126.869
160.738
186.715
203.706
216.138
225.888
1.05083
-0.0667731
-0.135386
-0.0319744
-0.0227081
-0.0102875
-0.000189537
0.00527518
0.0134294
0.0342933
0.0775303
0.149735
0.206737
0.0757604
0.879229
4.915
11.7911
27.0332
53.2429
78.8989
103.844
127.764
143.597
-0.15742
-0.23387
-0.222258
-0.17706
-0.164232
-0.156114
-0.149312
-0.143871
-0.137312
-0.125385
-0.103866
-0.0757141
-0.0910381
-0.182319
-0.301433
-0.204622
-0.045582
0.451192
3.65913
10.981
26.0026
48.2199
65.99
-0.297215
-0.308298
-0.317108
-0.310948
-0.306356
-0.301149
-0.2963
-0.292467
-0.288438
-0.283613
-0.27962
-0.28582
-0.332011
-0.43809
-0.463395
-0.331546
-0.224432
-0.19087
-0.141494
-0.0261242
0.144381
3.75857
15.0776
-0.448729
-0.456914
-0.45801
-0.453664
-0.450167
-0.446805
-0.443834
-0.441639
-0.439975
-0.438702
-0.439117
-0.444386
-0.459733
-0.546498
-0.5691
-0.5026
-0.45088
-0.443502
-0.424499
-0.397421
-0.493111
-0.637542
-0.543703
-0.596491
-0.597592
-0.596927
-0.596084
-0.594352
-0.59247
-0.590933
-0.590228
-0.590432
-0.591669
-0.594982
-0.603187
-0.621625
-0.659517
-0.680581
-0.655676
-0.62236
-0.627694
-0.62246
-0.64661
-0.721898
-0.878584
-0.918217
-0.74208
-0.74138
-0.740541
-0.740128
-0.739265
-0.738341
-0.737736
-0.737922
-0.739154
-0.741575
-0.74557
-0.751963
-0.76326
-0.780804
-0.794129
-0.790904
-0.781822
-0.791739
-0.805542
-0.853056
-0.94137
-1.0614
-1.12447
-0.88773
-0.886519
-0.885475
-0.885115
-0.884687
-0.884302
-0.884232
-0.884837
-0.88639
-0.889056
-0.893038
-0.898118
-0.90575
-0.915362
-0.923724
-0.92727
-0.929803
-0.941369
-0.966257
-1.01551
-1.08626
-1.19505
-1.27257
-1.03285
-1.03167
-1.03079
-1.03051
-1.03029
-1.03019
-1.03037
-1.03106
-1.03248
-1.03476
-1.03798
-1.04214
-1.04746
-1.05352
-1.05971
-1.06536
-1.07231
-1.08489
-1.11218
-1.15648
-1.21765
-1.29245
-1.34361
-1.17786
-1.17693
-1.17627
-1.17604
-1.17591
-1.17592
-1.17616
-1.17677
-1.17788
-1.1796
-1.18196
-1.18501
-1.18878
-1.19312
-1.19814
-1.2039
-1.21168
-1.224
-1.2466
-1.28343
-1.33678
-1.39285
-1.42502
-1.32292
-1.32226
-1.32178
-1.32158
-1.32147
-1.32147
-1.32164
-1.32207
-1.32283
-1.32398
-1.32559
-1.32765
-1.33027
-1.33342
-1.3374
-1.34255
-1.34967
-1.36036
-1.37714
-1.4026
-1.43875
-1.47932
-1.50677
-1.4681
-1.46765
-1.4673
-1.4671
-1.46695
-1.46687
-1.46689
-1.46707
-1.46745
-1.46808
-1.469
-1.47024
-1.47187
-1.47398
-1.4768
-1.48068
-1.48618
-1.49422
-1.50585
-1.52208
-1.54271
-1.56324
-1.5757
-1.61344
-1.61313
-1.61285
-1.61262
-1.61238
-1.61216
-1.61197
-1.61186
-1.61185
-1.61197
-1.61225
-1.61273
-1.61345
-1.61451
-1.61609
-1.61841
-1.62182
-1.62679
-1.63375
-1.6429
-1.65336
-1.66222
-1.66545
-1.75895
-1.75873
-1.75845
-1.75815
-1.7578
-1.7574
-1.75698
-1.75655
-1.75614
-1.75576
-1.75542
-1.75516
-1.755
-1.75503
-1.75534
-1.75608
-1.75743
-1.75957
-1.76257
-1.76622
-1.76965
-1.77106
-1.76831
-1.90464
-1.90445
-1.90415
-1.90376
-1.90326
-1.90267
-1.90199
-1.90124
-1.90042
-1.89954
-1.8986
-1.89762
-1.89661
-1.89561
-1.89468
-1.89387
-1.89326
-1.89286
-1.8926
-1.89215
-1.89079
-1.88728
-1.88029
-2.05054
-2.05034
-2.04998
-2.04949
-2.04884
-2.04804
-2.0471
-2.04601
-2.04479
-2.04342
-2.0419
-2.04022
-2.03839
-2.03642
-2.03431
-2.03206
-2.02967
-2.02707
-2.0241
-2.02042
-2.0155
-2.00851
-1.99862
-2.19666
-2.19643
-2.196
-2.19539
-2.19458
-2.19358
-2.19237
-2.19096
-2.18934
-2.1875
-2.18542
-2.18308
-2.18048
-2.17759
-2.17438
-2.17083
-2.16688
-2.16242
-2.15726
-2.15112
-2.14357
-2.13405
-2.12201
-2.34302
-2.34276
-2.34225
-2.34153
-2.34056
-2.33935
-2.33789
-2.33617
-2.33417
-2.33187
-2.32926
-2.32631
-2.32299
-2.31925
-2.31506
-2.31035
-2.30505
-2.29902
-2.29208
-2.28399
-2.27444
-2.26302
-2.24937
-2.48966
-2.48936
-2.48878
-2.48795
-2.48683
-2.48542
-2.48372
-2.4817
-2.47935
-2.47664
-2.47354
-2.47002
-2.46604
-2.46154
-2.45647
-2.45075
-2.44429
-2.43694
-2.42856
-2.41895
-2.40785
-2.39497
-2.38007
-2.63661
-2.63627
-2.63562
-2.63469
-2.63343
-2.63185
-2.62992
-2.62764
-2.62496
-2.62187
-2.61833
-2.6143
-2.60973
-2.60456
-2.59872
-2.59213
-2.58468
-2.57626
-2.56671
-2.55587
-2.54355
-2.52953
-2.51364
-2.7839
-2.78352
-2.7828
-2.78178
-2.78041
-2.77867
-2.77654
-2.77402
-2.77106
-2.76763
-2.7637
-2.75923
-2.75414
-2.74839
-2.74189
-2.73456
-2.7263
-2.71699
-2.7065
-2.69469
-2.6814
-2.66646
-2.64977
-2.93155
-2.93114
-2.93037
-2.92927
-2.92779
-2.92591
-2.92362
-2.92089
-2.91768
-2.91398
-2.90972
-2.90486
-2.89934
-2.89309
-2.88605
-2.87811
-2.86919
-2.85916
-2.84792
-2.83533
-2.82127
-2.8056
-2.78823
-3.07959
-3.07916
-3.07833
-3.07718
-3.0756
-3.07361
-3.07118
-3.06828
-3.06488
-3.06094
-3.05641
-3.05124
-3.04537
-3.03873
-3.03124
-3.02282
-3.01337
-3.00278
-2.99094
-2.97774
-2.96307
-2.94681
-2.92887
-3.22804
-3.22759
-3.22672
-3.22552
-3.22387
-3.22179
-3.21925
-3.21623
-3.21267
-3.20856
-3.20382
-3.19841
-3.19227
-3.18533
-3.17751
-3.16872
-3.15887
-3.14785
-3.13557
-3.12191
-3.10676
-3.09002
-3.07161
-3.37691
-3.37644
-3.37555
-3.3743
-3.37261
-3.37047
-3.36786
-3.36474
-3.36108
-3.35684
-3.35196
-3.34639
-3.34006
-3.33291
-3.32486
-3.31582
-3.30569
-3.29438
-3.28178
-3.26779
-3.2523
-3.2352
-3.2164
-3.52619
-3.52574
-3.52481
-3.52355
-3.52182
-3.51965
-3.517
-3.51384
-3.51012
-3.50581
-3.50085
-3.49519
-3.48876
-3.48149
-3.47331
-3.46413
-3.45385
-3.44237
-3.42958
-3.41539
-3.39968
-3.38233
-3.36324
-3.6759
-3.67547
-3.67452
-3.67325
-3.67152
-3.66934
-3.66669
-3.66352
-3.6598
-3.65547
-3.65049
-3.64481
-3.63837
-3.63108
-3.62288
-3.61366
-3.60334
-3.59182
-3.57898
-3.56472
-3.54891
-3.53143
-3.51216
-3.82602
-3.82561
-3.82467
-3.82341
-3.82169
-3.81954
-3.81691
-3.81378
-3.81009
-3.80581
-3.80089
-3.79527
-3.78889
-3.78167
-3.77354
-3.76441
-3.75417
-3.74273
-3.72998
-3.71579
-3.70004
-3.68258
-3.66325
-3.97655
-3.97616
-3.97523
-3.97401
-3.97233
-3.97023
-3.96767
-3.96461
-3.96101
-3.95683
-3.95202
-3.94653
-3.9403
-3.93324
-3.92529
-3.91635
-3.90632
-3.8951
-3.88258
-3.86862
-3.85309
-3.83582
-3.81666
-4.12748
-4.12711
-4.1262
-4.12504
-4.12342
-4.12141
-4.11894
-4.11599
-4.11253
-4.1085
-4.10387
-4.09858
-4.09258
-4.08577
-4.0781
-4.06946
-4.05977
-4.04891
-4.03677
-4.0232
-4.00806
-3.99118
-3.97238
-4.27878
-4.27846
-4.27756
-4.27649
-4.27494
-4.27305
-4.27071
-4.26791
-4.26463
-4.26081
-4.25642
-4.2514
-4.24569
-4.23922
-4.23192
-4.2237
-4.21447
-4.20411
-4.1925
-4.1795
-4.16495
-4.14868
-4.13046
-4.43045
-4.4302
-4.42926
-4.42831
-4.42688
-4.42513
-4.42294
-4.42034
-4.41727
-4.41371
-4.40961
-4.40492
-4.39959
-4.39354
-4.38671
-4.37902
-4.37037
-4.36064
-4.34972
-4.33746
-4.3237
-4.30827
-4.29092
-4.58243
-4.58224
-4.58128
-4.58047
-4.57918
-4.57758
-4.57559
-4.5732
-4.5704
-4.56713
-4.56338
-4.55908
-4.55419
-4.54864
-4.54237
-4.53531
-4.52735
-4.51839
-4.50831
-4.49696
-4.48421
-4.46985
-4.45366
-4.7347
-4.73453
-4.73369
-4.73299
-4.73183
-4.73041
-4.72862
-4.72649
-4.72398
-4.72106
-4.71769
-4.71383
-4.70944
-4.70447
-4.69885
-4.6925
-4.68535
-4.67728
-4.66818
-4.65794
-4.64639
-4.63335
-4.61858
-4.88729
-4.88719
-4.88647
-4.88588
-4.88487
-4.88364
-4.88208
-4.88023
-4.87804
-4.87549
-4.87256
-4.86919
-4.86536
-4.86103
-4.85613
-4.85059
-4.84433
-4.83727
-4.8293
-4.82032
-4.81016
-4.79867
-4.78561
-5.04022
-5.04021
-5.03959
-5.03913
-5.03827
-5.03724
-5.03594
-5.03438
-5.03255
-5.03041
-5.02794
-5.02512
-5.02191
-5.01827
-5.01416
-5.0095
-5.00424
-4.9983
-4.9916
-4.98402
-4.97545
-4.96572
-4.95463
-5.19331
-5.19337
-5.19284
-5.1925
-5.19181
-5.191
-5.18996
-5.18873
-5.18727
-5.18557
-5.1836
-5.18136
-5.17882
-5.17593
-5.17266
-5.16896
-5.16478
-5.16006
-5.15472
-5.14869
-5.14185
-5.13407
-5.12516
-5.34636
-5.34645
-5.34604
-5.34581
-5.34529
-5.3447
-5.34395
-5.34304
-5.34197
-5.34073
-5.33929
-5.33766
-5.3358
-5.3337
-5.33132
-5.32862
-5.32558
-5.32214
-5.31825
-5.31385
-5.30885
-5.30317
-5.29663
-5.49926
-5.49939
-5.4991
-5.49898
-5.49865
-5.49828
-5.4978
-5.49723
-5.49655
-5.49576
-5.49486
-5.49383
-5.49266
-5.49135
-5.48986
-5.48817
-5.48628
-5.48415
-5.48174
-5.47902
-5.47594
-5.47245
-5.46843
-5.65296
-5.65318
-5.65302
-5.65303
-5.65289
-5.65275
-5.65256
-5.65233
-5.65206
-5.65174
-5.65139
-5.65099
-5.65054
-5.65004
-5.64948
-5.64886
-5.64818
-5.64742
-5.64657
-5.64563
-5.64457
-5.6434
-5.64208
221.629
229.174
245.264
237.159
259.739
247.696
234.568
224.219
225.767
223.282
224.556
232.304
150.477
156.816
166.828
179.978
79.0844
90.2091
103.345
117.18
25.6983
34.7918
46.5177
57.7605
-0.403038
0.0250685
2.7112
8.36084
-0.889406
-0.875252
-0.812185
-0.677391
-1.10614
-1.07808
-1.05302
-1.02362
-1.27383
-1.25131
-1.21548
-1.1783
-1.34318
-1.32899
-1.30441
-1.27006
-1.42092
-1.40916
-1.38938
-1.36666
-1.51118
-1.50836
-1.4986
-1.48285
-1.57619
-1.57423
-1.56908
-1.56055
-1.66197
-1.65766
-1.65126
-1.64311
-1.76197
-1.75646
-1.74963
-1.74157
-1.87176
-1.86518
-1.85766
-1.84928
-1.98857
-1.98123
-1.97316
-1.96443
-2.11083
-2.10292
-2.09444
-2.08545
-2.23735
-2.22902
-2.22023
-2.21101
-2.36739
-2.35874
-2.34968
-2.34028
-2.50042
-2.49149
-2.48221
-2.47263
-2.63609
-2.6269
-2.6174
-2.60762
-2.77414
-2.76472
-2.75499
-2.74501
-2.91442
-2.90478
-2.89481
-2.88459
-3.05683
-3.04698
-3.03679
-3.02631
-3.20134
-3.1913
-3.1809
-3.17017
-3.34795
-3.33775
-3.32716
-3.31619
-3.49671
-3.48638
-3.47564
-3.46447
-3.64772
-3.63732
-3.62647
-3.61516
-3.80112
-3.79071
-3.77982
-3.76843
-3.95699
-3.94667
-3.93586
-3.92452
-4.11547
-4.10533
-4.09476
-4.08363
-4.27665
-4.26701
-4.25677
-4.24599
-4.44027
-4.4312
-4.42161
-4.41147
-4.60634
-4.59803
-4.58922
-4.57989
-4.77476
-4.76738
-4.75955
-4.75124
-4.9454
-4.93912
-4.93245
-4.92537
-5.11777
-5.11274
-5.10739
-5.10171
-5.29121
-5.28752
-5.2836
-5.27943
-5.46512
-5.46287
-5.46048
-5.45793
-5.64102
-5.64032
-5.63959
-5.63883
226.286
269.208
269.892
270.236
270.532
270.775
270.846
270.837
270.784
270.708
270.621
270.522
270.425
270.284
269.752
268.616
268.459
271.485
275.902
230.577
265.682
270.31
270.674
270.74
270.751
270.737
270.67
270.573
270.462
270.331
270.16
269.974
269.733
268.758
266.143
261.724
258.907
282.18
248.794
258.903
270.968
270.714
270.771
270.723
270.666
270.532
270.368
270.215
270.064
269.851
269.634
269.495
268.33
265.421
261.454
251.021
281.453
205.293
245.386
268.015
270.989
270.679
270.662
270.664
270.42
270.133
269.951
269.836
269.611
269.171
269.228
268.043
266.13
264.697
262.761
280.861
144.251
195.412
252.478
270.374
270.664
270.552
270.667
270.369
269.889
269.646
269.59
269.35
268.651
267.256
266.247
267.172
268.155
272.995
290.36
79.5043
123.466
175.099
225.498
240.404
251.231
263.386
270.656
269.127
263.764
261.688
261.597
260.517
254.364
260.952
263.663
266.062
288.687
396.844
24.5298
51.5924
86.5388
133.569
174.214
195.596
206.791
228.406
235.851
210.986
202.126
203.656
196.418
169.413
209.634
210.595
239.528
412.793
700.87
-0.413026
5.7765
23.793
44.7623
72.6468
98.0321
114.441
133.476
144.312
130.136
120.521
117.792
115.492
115.603
161.914
246.659
417.781
687.844
1000.87
-1.00133
-1.04106
-0.735188
1.24778
10.2919
23.0379
34.2162
42.6256
49.6787
51.03
49.3529
48.0691
48.1043
53.5555
87.8129
200.919
444.372
762.249
1035.32
-1.12908
-1.16421
-1.09118
-1.10727
-1.01536
-0.810274
-0.107956
1.63865
3.78835
4.91646
4.83441
4.5341
4.48737
5.40194
12.8735
59.0315
279.199
626.75
839.939
-1.21837
-1.20442
-1.16579
-1.17892
-1.08303
-0.970289
-0.878224
-0.726662
-0.542047
-0.365504
-0.236334
-0.143742
0.00251918
0.324432
2.30589
13.859
72.9852
421.371
605.653
-1.32872
-1.29959
-1.26767
-1.22675
-1.15205
-1.05773
-0.956205
-0.833518
-0.69508
-0.562265
-0.431539
-0.280418
-0.0433057
0.195337
1.21232
6.36736
20.3566
284.316
387.908
-1.45232
-1.41713
-1.37884
-1.33346
-1.25942
-1.16403
-1.06321
-0.95256
-0.835495
-0.720108
-0.60038
-0.445003
-0.228981
0.0606132
0.818511
2.75041
53.4485
204.353
253.72
-1.54293
-1.51671
-1.47994
-1.42404
-1.3526
-1.26946
-1.17946
-1.08268
-0.981011
-0.878591
-0.772798
-0.641514
-0.510009
-0.525307
-0.268128
7.48972
87.0962
155.276
186.874
-1.62708
-1.59629
-1.56036
-1.51317
-1.45295
-1.38169
-1.30233
-1.21751
-1.12942
-1.04017
-0.95376
-0.867568
-0.821235
-1.15396
-2.76153
-0.528217
66.9993
110.814
133.169
-1.72591
-1.69776
-1.66102
-1.6173
-1.56421
-1.50142
-1.43114
-1.35669
-1.28054
-1.20436
-1.13464
-1.0952
-1.11877
-1.22317
-2.43378
-5.37071
20.9525
36.7698
70.4856
-1.83351
-1.80595
-1.77198
-1.73151
-1.68338
-1.62712
-1.56464
-1.49929
-1.43306
-1.3674
-1.30613
-1.27094
-1.28264
-1.20513
-1.14965
-3.20645
-4.04999
-19.1674
31.0783
-1.9484
-1.9212
-1.88913
-1.85173
-1.80793
-1.75733
-1.70185
-1.64462
-1.58655
-1.52718
-1.46587
-1.40568
-1.35426
-1.17358
-0.688725
-0.60869
-6.20264
-4.24302
12.7166
-2.0692
-2.04245
-2.01172
-1.97679
-1.93665
-1.89099
-1.84165
-1.79146
-1.74044
-1.68591
-1.62482
-1.54721
-1.46557
-1.36601
-1.06748
0.140634
2.33939
3.89326
6.28052
-2.1946
-2.16823
-2.13859
-2.10558
-2.06847
-2.02701
-1.98279
-1.93837
-1.89378
-1.84579
-1.79162
-1.72197
-1.63439
-1.58629
-1.56536
-0.999361
0.515421
6.12785
6.59689
-2.32371
-2.2976
-2.26877
-2.23721
-2.20248
-2.16442
-2.12426
-2.08433
-2.04553
-2.00574
-1.96268
-1.9113
-1.82798
-1.67037
-1.38614
-1.97401
-4.88937
6.1128
6.31044
-2.45588
-2.42987
-2.40153
-2.37097
-2.33795
-2.30241
-2.26533
-2.2289
-2.19509
-2.16399
-2.13436
-2.1012
-2.02731
-1.78278
-1.40429
-1.56605
-1.15951
5.64786
-21.1411
-2.59062
-2.56452
-2.53637
-2.50634
-2.47438
-2.44048
-2.40553
-2.37177
-2.34209
-2.31975
-2.3065
-2.29922
-2.26788
-2.1573
-2.08525
-1.90708
0.198501
14.18
25.9926
-2.7277
-2.70128
-2.67297
-2.64304
-2.61152
-2.57832
-2.54419
-2.51184
-2.48531
-2.47023
-2.47358
-2.50221
-2.5629
-2.69705
-2.94537
-2.89155
-2.33412
0.76959
18.3798
-2.86691
-2.83999
-2.81116
-2.78086
-2.74919
-2.71561
-2.6806
-2.64749
-2.62139
-2.60948
-2.62261
-2.68282
-2.83301
-3.13643
-3.4862
-3.52776
-2.9231
1.05935
2.14497
-3.0082
-2.98059
-2.95097
-2.91983
-2.88731
-2.85229
-2.81486
-2.77866
-2.7497
-2.73555
-2.74709
-2.81409
-3.00367
-3.37751
-3.75042
-3.92949
-3.25622
-1.31178
1.813
-3.15156
-3.12316
-3.09254
-3.0602
-3.02624
-2.98878
-2.9479
-2.90662
-2.87238
-2.85242
-2.8541
-2.90229
-3.06946
-3.42993
-3.7958
-4.0085
-3.84725
-3.68202
-11.514
-3.29709
-3.26785
-3.23614
-3.20235
-3.16667
-3.12654
-3.08113
-3.03352
-2.99079
-2.96161
-2.94916
-2.96467
-3.05587
-3.2988
-3.58566
-3.65106
-3.30291
-2.29482
23.9706
-3.44495
-3.4149
-3.38212
-3.34688
-3.30955
-3.26683
-3.21617
-3.16002
-3.10712
-3.06413
-3.03311
-3.00882
-3.00421
-3.08622
-3.27279
-3.17195
-1.68629
5.35339
47.4278
-3.59531
-3.56459
-3.53091
-3.49447
-3.45597
-3.41179
-3.35666
-3.29179
-3.22795
-3.17096
-3.1228
-3.05915
-2.96737
-2.90029
-3.05889
-3.74052
-0.748933
23.0542
75.1386
-3.74844
-3.71726
-3.68288
-3.64557
-3.6064
-3.56246
-3.50403
-3.43169
-3.35597
-3.28998
-3.23695
-3.15768
-2.98623
-2.86461
-2.75376
-0.231127
9.59408
31.1102
61.5776
-3.90457
-3.87329
-3.83843
-3.80041
-3.76081
-3.71837
-3.66021
-3.57931
-3.49106
-3.41866
-3.37104
-3.32652
-3.15706
-2.60027
-0.921418
3.8512
8.59485
16.3048
45.554
-4.064
-4.03297
-3.99829
-3.9602
-3.91961
-3.87708
-3.82272
-3.73936
-3.6406
-3.57172
-3.52695
-3.4856
-3.36443
-2.63826
-0.198909
2.59336
4.21728
6.25863
14.7823
-4.22695
-4.19672
-4.16275
-4.12497
-4.08383
-4.04041
-3.98979
-3.91911
-3.8265
-3.75979
-3.71242
-3.65652
-3.51444
-2.38774
0.20602
1.84518
2.79891
3.07917
6.79886
-4.39347
-4.36461
-4.332
-4.29535
-4.25478
-4.21093
-4.16206
-4.1025
-4.03139
-3.97023
-3.9199
-3.86185
-3.79996
-2.70935
0.00875835
1.29962
2.22183
2.48267
4.66869
-4.56329
-4.53656
-4.50611
-4.47165
-4.43289
-4.39038
-4.34427
-4.29226
-4.23673
-4.18424
-4.13057
-4.07852
-4.02866
-2.95805
-0.348537
0.747368
1.59101
1.76427
3.96889
-4.73644
-4.71254
-4.68519
-4.65424
-4.61927
-4.58085
-4.54055
-4.49531
-4.45546
-4.41809
-4.36521
-4.37068
-4.49214
-3.57056
-1.1266
-0.213791
0.404878
0.393824
3.6894
-4.91276
-4.89236
-4.869
-4.84268
-4.81295
-4.78093
-4.74885
-4.71121
-4.68813
-4.67479
-4.61788
-4.71722
-4.99134
-4.28672
-2.226
-1.50837
-1.09
-1.36416
5.18936
-5.09158
-5.07521
-5.05653
-5.03559
-5.01214
-4.98766
-4.96418
-4.93711
-4.92655
-4.93474
-4.88412
-4.95646
-4.76813
-4.69985
-3.97309
-3.19495
-2.93413
-2.86119
20.6042
-5.27201
-5.26002
-5.24642
-5.23129
-5.21465
-5.19795
-5.18254
-5.16823
-5.16835
-5.19266
-5.18343
-5.18146
-5.06612
-3.7857
-3.1122
-4.67909
-5.57812
-4.52358
29.1073
-5.45341
-5.44617
-5.4381
-5.42938
-5.4203
-5.41221
-5.40614
-5.40525
-5.41863
-5.45741
-5.5116
-5.57438
-5.91705
-4.98546
-8.06229
-13.495
-17.9318
-18.1884
-2.17509
-5.63755
-5.63569
-5.63401
-5.63295
-5.63325
-5.63653
-5.64439
-5.66264
-5.69839
-5.76044
-5.86982
-6.16466
-7.63818
-9.42909
-15.6512
-29.7956
-58.6617
-47.7489
-10.5901
)
;

boundaryField
{
    leftWall
    {
        type            calculated;
        value           nonuniform List<scalar> 
50
(
742.182
682.585
622.124
561.188
500.301
440.07
381.135
324.443
239.244
133.539
53.4647
1.05083
-0.15742
-0.297215
-0.448729
-0.596491
-0.74208
-0.88773
-1.03285
-1.17786
-1.32292
-1.4681
-1.61344
-1.75895
-1.90464
-2.05054
-2.19666
-2.34302
-2.48966
-2.63661
-2.7839
-2.93155
-3.07959
-3.22804
-3.37691
-3.52619
-3.6759
-3.82602
-3.97655
-4.12748
-4.27878
-4.43045
-4.58243
-4.7347
-4.88729
-5.04022
-5.19331
-5.34636
-5.49926
-5.65296
)
;
    }
    rightWall
    {
        type            calculated;
        value           nonuniform List<scalar> 
50
(
274.572
274.546
274.555
274.596
274.671
274.801
275.007
275.213
275.902
282.18
281.453
280.861
290.36
396.844
700.87
1000.87
1035.32
839.939
605.653
387.908
253.72
186.874
133.169
70.4856
31.0783
12.7166
6.28052
6.59689
6.31044
-21.1411
25.9926
18.3798
2.14497
1.813
-11.514
23.9706
47.4278
75.1386
61.5776
45.554
14.7823
6.79886
4.66869
3.96889
3.6894
5.18936
20.6042
29.1073
-2.17509
-10.5901
)
;
    }
    lowerWall
    {
        type            calculated;
        value           nonuniform List<scalar> 
62
(
771.611
771.208
776.588
785.667
792.909
796.408
796.831
797.009
799.304
804.687
813.291
825.041
839.883
857.681
878.321
901.594
926.554
950.783
968.32
980.299
955.494
957.975
995.405
965.975
900.35
840.541
791.562
749.48
700.288
633.144
545.083
284.226
291.771
307.862
299.683
275.674
275.651
275.655
275.726
276.054
277.167
274.212
263.752
275.704
275.361
273.641
272.103
271.69
271.789
271.794
271.716
271.655
271.624
271.625
271.673
271.786
271.987
272.325
272.872
273.615
274.306
274.601
)
;
    }
    atmosphere
    {
        type            calculated;
        value           nonuniform List<scalar> 
46
(
-5.73043
-5.73083
-5.73072
-5.73078
-5.73074
-5.73071
-5.73067
-5.73062
-5.73056
-5.73049
-5.73042
-5.73034
-5.73026
-5.73019
-5.73012
-5.73005
-5.73
-5.72996
-5.72994
-5.72995
-5.72999
-5.73007
-5.73023
-5.73042
-5.73058
-5.73079
-5.73105
-5.73162
-5.73291
-5.73508
-5.73877
-5.74509
-5.75607
-5.77368
-5.80712
-5.85965
-5.93226
-6.05571
-6.44897
-7.71924
-8.24028
-16.1634
-50.9976
-123.179
-102.361
-5.72904
)
;
    }
    defaultFaces
    {
        type            empty;
    }
}


// ************************************************************************* //
