/*--------------------------------*- C++ -*----------------------------------*\
| =========                 |                                                 |
| \\      /  F ield         | OpenFOAM: The Open Source CFD Toolbox           |
|  \\    /   O peration     | Version:  5.x                                   |
|   \\  /    A nd           | Web:      www.OpenFOAM.org                      |
|    \\/     M anipulation  |                                                 |
\*---------------------------------------------------------------------------*/
FoamFile
{
    version     2.0;
    format      ascii;
    class       volScalarField;
    location    "0.45";
    object      p_rgh;
}
// * * * * * * * * * * * * * * * * * * * * * * * * * * * * * * * * * * * * * //

dimensions      [1 -1 -2 0 0 0 0];

internalField   nonuniform List<scalar> 
2268
(
771.611
771.208
776.588
785.667
792.909
796.408
796.831
797.009
799.304
804.687
813.291
825.041
839.883
857.681
878.321
901.594
926.554
950.783
968.32
980.299
955.494
957.975
995.405
770.873
769.898
775.107
784.236
791.484
795.033
795.54
795.854
798.306
803.827
812.528
824.283
838.907
856.358
876.495
899.165
923.763
948.766
969.395
984.183
955.683
941.826
988.638
769.271
767.565
772.145
781.459
788.646
792.312
792.994
793.576
796.336
802.131
811.031
822.908
837.636
855.048
874.976
897.004
920.351
943.815
964.601
980.235
971.136
940.967
987.359
767.193
764.413
768.221
777.03
784.454
788.362
789.307
790.271
793.472
799.655
808.839
820.9
835.714
853.121
872.893
894.551
917.178
939.313
958.648
972.88
971.578
958.684
996.314
765.166
760.753
763.35
771.271
779.048
783.346
784.618
786.049
789.801
796.462
805.991
818.277
833.216
850.656
870.35
891.796
914.086
935.678
954.359
968.45
974.187
976.056
1014.32
763.793
757.135
757.622
764.213
772.474
777.39
779.021
780.95
785.337
792.559
802.493
815.052
830.16
847.677
867.372
888.755
910.95
932.448
951.295
966.135
976.625
986.825
1023.94
763.717
753.861
751.318
756.14
764.92
770.671
772.743
775.166
780.17
787.942
798.284
811.149
826.491
844.181
863.977
885.419
907.714
929.384
948.726
964.246
976.218
987.773
1015.72
765.884
752.731
745.955
748.189
756.919
763.333
766.002
769.148
774.837
783.075
793.683
806.713
822.164
839.996
860.103
881.865
904.5
926.51
946.393
962.379
973.546
981.903
986.523
275.704
275.361
273.641
272.103
271.69
271.789
271.794
271.716
271.655
271.624
271.625
271.673
271.786
271.987
272.325
272.872
273.615
274.306
274.601
275.739
275.306
273.402
271.874
271.582
271.783
271.799
271.712
271.647
271.614
271.612
271.658
271.765
271.958
272.285
272.836
273.609
274.338
274.634
275.802
275.246
272.856
271.449
271.379
271.726
271.77
271.687
271.625
271.59
271.585
271.623
271.721
271.899
272.207
272.763
273.597
274.405
274.702
275.932
276.968
273.093
270.976
271.083
271.617
271.704
271.643
271.589
271.554
271.544
271.572
271.654
271.809
272.083
272.635
273.566
274.506
274.802
276.319
279.213
273.491
270.29
270.816
271.488
271.618
271.587
271.545
271.509
271.491
271.504
271.566
271.689
271.906
272.43
273.493
274.636
274.935
277.49
277.769
269.191
269.723
270.725
271.372
271.533
271.53
271.496
271.456
271.428
271.423
271.458
271.539
271.668
272.108
273.332
274.786
275.124
344.491
271.18
269.271
269.801
270.721
271.298
271.465
271.477
271.444
271.398
271.356
271.329
271.333
271.361
271.362
271.606
272.991
274.937
275.389
517.714
270.648
269.623
270.173
270.803
271.276
271.418
271.43
271.393
271.337
271.28
271.227
271.193
271.16
270.985
270.848
272.273
275.161
275.653
772.711
756.275
740.557
735.694
743.234
750.052
753.342
757.934
765.221
774.579
785.838
799.292
814.878
832.383
852.353
874.826
898.611
921.91
943.274
960.342
968.49
961.538
894.333
792.2
760.086
652.529
574.296
596.875
628.848
644.247
662.64
688.224
715.831
742.673
769.491
796.831
822.629
845.306
867.587
892.371
917.334
941.147
960.619
970.629
967.855
949.761
657.076
353.467
113.22
65.9478
101.771
122.685
124.725
137.721
165.835
204.289
250.591
309.157
387.771
493.555
615.282
767.408
879.253
910.725
944.594
970.571
987.562
999.994
1009.74
14.4129
0.842278
0.773665
0.877076
0.886343
0.898763
0.908861
0.914326
0.92248
0.943345
0.986583
1.0588
1.11601
0.987612
29.5424
82.8851
187.158
407.998
778.341
987.945
1012.89
1036.81
1052.65
0.876826
0.800375
0.811988
0.857186
0.870013
0.878131
0.884933
0.890374
0.896933
0.908861
0.93038
0.958534
0.943222
0.852182
0.735998
0.850578
1.11071
12.2833
68.6168
197.479
464.206
934.539
1100.22
0.862224
0.851141
0.842332
0.848492
0.853083
0.858291
0.86314
0.866972
0.871005
0.875883
0.879913
0.873649
0.827479
0.769473
1.05652
1.20681
1.16271
1.19553
1.25583
1.38768
7.63492
100.39
309.18
0.835906
0.82772
0.826625
0.83097
0.834467
0.837829
0.840801
0.842996
0.844662
0.846082
0.845751
0.840426
0.825002
0.765891
1.06222
1.2139
1.01595
1.09088
1.21174
1.56095
1.10213
0.880583
0.871119
0.813338
0.812236
0.812902
0.813744
0.815477
0.817359
0.818896
0.819601
0.819397
0.818278
0.815103
0.806881
0.788338
0.750472
0.729308
0.779071
0.787469
0.861943
0.908448
1.0742
1.41328
0.855469
0.607793
0.792943
0.793643
0.794482
0.794895
0.795758
0.796683
0.797287
0.797101
0.79587
0.793472
0.789612
0.783071
0.771985
0.755717
0.740992
0.74412
0.753201
0.743285
0.843881
0.955968
0.722738
0.600124
0.536339
0.772488
0.773698
0.774743
0.775103
0.775531
0.775916
0.775986
0.775381
0.773828
0.771162
0.76718
0.7621
0.754793
0.746467
0.736742
0.732948
0.730415
0.718849
0.809134
0.862141
0.887424
0.636136
0.522913
0.752563
0.753744
0.754624
0.754905
0.755123
0.755225
0.755046
0.754351
0.75293
0.750648
0.74743
0.743274
0.738042
0.731925
0.725707
0.720055
0.713097
0.700523
0.67325
0.7211
1.08731
1.04119
0.656104
0.732751
0.733677
0.734338
0.734572
0.734697
0.734688
0.73445
0.733841
0.732727
0.731011
0.728643
0.725599
0.721824
0.717485
0.71247
0.706704
0.698931
0.686604
0.664004
0.627175
0.707746
1.09649
1.32713
0.712886
0.713545
0.714021
0.714222
0.714333
0.714331
0.714159
0.713733
0.712975
0.711817
0.71021
0.708155
0.705528
0.702378
0.698398
0.693248
0.68613
0.675437
0.65866
0.633204
0.597056
0.556484
0.529028
0.692901
0.693346
0.693693
0.693893
0.694045
0.69413
0.694107
0.69393
0.693547
0.692917
0.691999
0.69076
0.689127
0.68702
0.684195
0.680319
0.674819
0.666778
0.655148
0.638915
0.618286
0.597759
0.5853
0.672755
0.673055
0.673341
0.673574
0.673811
0.674034
0.674217
0.674328
0.674339
0.674218
0.673937
0.673463
0.67274
0.671676
0.670099
0.667779
0.66437
0.659405
0.652443
0.643295
0.632827
0.62397
0.620736
0.652436
0.652658
0.652933
0.653232
0.653587
0.653984
0.654405
0.654831
0.655244
0.655627
0.655961
0.656225
0.656381
0.656357
0.656047
0.655307
0.653957
0.651817
0.648818
0.645167
0.641736
0.640323
0.643079
0.631935
0.63213
0.632433
0.632821
0.633317
0.633908
0.634586
0.63534
0.636161
0.637042
0.637977
0.638958
0.639968
0.640966
0.641899
0.642706
0.643321
0.643716
0.643982
0.644431
0.645792
0.649299
0.656291
0.611235
0.611437
0.611795
0.612288
0.612937
0.613735
0.614678
0.615763
0.616988
0.618358
0.619878
0.621551
0.623381
0.625357
0.627468
0.629714
0.632104
0.634701
0.637676
0.64135
0.646276
0.653263
0.663155
0.590313
0.590542
0.590971
0.591577
0.592386
0.593393
0.594599
0.596009
0.59763
0.599474
0.601553
0.603886
0.606492
0.609383
0.612586
0.616136
0.620087
0.62455
0.629711
0.635853
0.6434
0.652919
0.664962
0.569142
0.569407
0.569914
0.570634
0.571601
0.572812
0.574275
0.575998
0.577996
0.580289
0.582898
0.585851
0.589176
0.592909
0.597102
0.60181
0.607115
0.613148
0.620088
0.628172
0.637723
0.649143
0.662795
0.547694
0.547997
0.548582
0.549411
0.550529
0.551933
0.553637
0.555655
0.558007
0.560718
0.563816
0.567337
0.571319
0.575815
0.580887
0.586608
0.593072
0.600414
0.608793
0.61841
0.629512
0.642391
0.65729
0.525939
0.526279
0.526937
0.527866
0.529122
0.530703
0.532629
0.534916
0.537591
0.54068
0.544221
0.548252
0.552823
0.557994
0.563835
0.570427
0.577871
0.586294
0.595841
0.60668
0.619001
0.633025
0.648915
0.503848
0.504222
0.504944
0.505962
0.507342
0.509081
0.511204
0.513731
0.516689
0.520113
0.524042
0.528521
0.533606
0.539361
0.545859
0.553187
0.561446
0.570754
0.581244
0.593059
0.606347
0.621283
0.63798
0.481392
0.481797
0.482574
0.483668
0.485154
0.48703
0.489323
0.492055
0.495256
0.498965
0.503224
0.508083
0.513603
0.519848
0.526894
0.534829
0.543753
0.553778
0.565023
0.577613
0.591673
0.607344
0.624714
0.458546
0.458977
0.459802
0.460959
0.462533
0.464522
0.466955
0.469855
0.473255
0.477196
0.481723
0.486892
0.492765
0.499407
0.506894
0.515314
0.524766
0.535356
0.547193
0.560391
0.575062
0.591329
0.609264
0.435292
0.435744
0.436608
0.437815
0.439459
0.441536
0.444075
0.447103
0.450656
0.454775
0.45951
0.464918
0.471061
0.478003
0.485823
0.494611
0.504462
0.515476
0.527761
0.541424
0.55657
0.573309
0.591719
0.411618
0.412082
0.412978
0.414223
0.415917
0.418054
0.420668
0.423783
0.42744
0.431683
0.436563
0.442137
0.448465
0.455614
0.463665
0.472706
0.482832
0.494144
0.506741
0.520737
0.536227
0.553326
0.572121
0.387527
0.38798
0.388905
0.390173
0.391898
0.394067
0.396719
0.399882
0.403596
0.407908
0.412869
0.418533
0.424963
0.432226
0.440405
0.449588
0.459871
0.471353
0.484136
0.498332
0.514043
0.531392
0.550477
0.363016
0.363449
0.36439
0.365664
0.367397
0.369571
0.372227
0.375396
0.379119
0.383443
0.388419
0.3941
0.400546
0.407831
0.416036
0.425251
0.435572
0.447098
0.459934
0.474198
0.490002
0.507481
0.526753
0.338084
0.338501
0.339443
0.340701
0.34242
0.344569
0.347196
0.35033
0.354015
0.358296
0.36322
0.368842
0.375223
0.382436
0.390566
0.399702
0.409938
0.421376
0.434128
0.448317
0.464069
0.481532
0.500858
0.312748
0.313144
0.314075
0.315295
0.316977
0.319071
0.321635
0.324695
0.328294
0.332475
0.337284
0.342773
0.349007
0.35606
0.364013
0.372957
0.382983
0.394198
0.406721
0.420682
0.436217
0.453483
0.472642
0.287022
0.287386
0.288298
0.289458
0.291081
0.293091
0.295558
0.298505
0.301972
0.305997
0.310627
0.315913
0.321921
0.328725
0.336402
0.34504
0.354731
0.365586
0.377731
0.3913
0.40644
0.423318
0.442122
0.260914
0.261235
0.262131
0.263207
0.264747
0.266643
0.268983
0.271778
0.275066
0.278884
0.283275
0.288292
0.294
0.300468
0.30777
0.315988
0.325219
0.335577
0.347189
0.360194
0.374745
0.391016
0.409232
0.234439
0.234691
0.235631
0.236578
0.238006
0.239761
0.241943
0.24455
0.247617
0.251179
0.255277
0.259963
0.265299
0.271347
0.278177
0.285868
0.294518
0.304243
0.315168
0.327429
0.341186
0.356612
0.373962
0.207647
0.20784
0.2088
0.209609
0.210905
0.212497
0.214493
0.216878
0.219686
0.222946
0.226701
0.231
0.235896
0.241445
0.247711
0.254774
0.262731
0.271692
0.281776
0.293116
0.305873
0.320226
0.336423
0.180574
0.180742
0.181583
0.182286
0.183449
0.184863
0.186651
0.188785
0.191298
0.194218
0.197585
0.201441
0.205832
0.210808
0.216429
0.222772
0.229928
0.237999
0.247093
0.257337
0.268889
0.28193
0.296695
0.153179
0.153277
0.154
0.154585
0.155604
0.156829
0.158386
0.160243
0.162431
0.164977
0.167915
0.171279
0.175107
0.179443
0.184345
0.189884
0.196141
0.203203
0.211168
0.220153
0.230307
0.241804
0.254862
0.125448
0.125455
0.126077
0.126537
0.127399
0.128421
0.129726
0.131282
0.133118
0.135257
0.137724
0.140548
0.143758
0.147394
0.151507
0.15616
0.161421
0.167362
0.174067
0.181641
0.190216
0.199947
0.21104
0.0975504
0.0974927
0.0980169
0.0983561
0.0990504
0.0998575
0.100894
0.10213
0.10359
0.105292
0.107254
0.109497
0.112043
0.114928
0.118196
0.121896
0.126079
0.130802
0.136136
0.14217
0.149014
0.156787
0.165696
0.0696944
0.0696064
0.0700167
0.0702475
0.0707623
0.07135
0.0721077
0.073012
0.0740806
0.0753259
0.0767596
0.0783947
0.0802499
0.0823525
0.0847348
0.0874311
0.0904769
0.0939151
0.0978017
0.102204
0.107201
0.112879
0.119428
0.0419899
0.0418607
0.0421501
0.0422695
0.0425994
0.0429687
0.0434475
0.0440211
0.044699
0.0454874
0.0463921
0.0474204
0.0485844
0.0499017
0.0513925
0.0530755
0.05497
0.0571018
0.0595057
0.0622251
0.0653054
0.0688023
0.0728157
0.0134788
0.0132622
0.0134209
0.0134129
0.0135524
0.0136948
0.0138854
0.0141151
0.0143866
0.0147005
0.0150568
0.0154561
0.0159022
0.0164014
0.0169592
0.0175789
0.0182645
0.0190246
0.0198711
0.0208146
0.0218712
0.0230444
0.0243592
755.096
762.641
778.732
769.998
918.401
906.357
893.223
882.877
1009.62
1007.14
1008.4
1016.16
1059.53
1065.87
1075.88
1089.03
1113.33
1124.45
1137.59
1151.42
526.875
746.906
1126.57
1217.18
3.38411
23.1077
92.5499
198.063
0.642751
0.671272
0.730352
0.933016
0.553916
0.582498
0.608402
0.642758
0.521645
0.544136
0.580531
0.618613
0.722439
0.807281
0.791536
0.847851
1.39037
1.41136
1.46141
1.50593
0.554246
0.648633
0.746699
0.801882
0.584802
0.586768
0.591913
0.600442
0.624216
0.628528
0.634935
0.643084
0.649412
0.654929
0.661757
0.669814
0.664818
0.671404
0.678922
0.687296
0.673205
0.680548
0.688614
0.69734
0.676137
0.684046
0.692526
0.701523
0.674812
0.68314
0.691938
0.701152
0.669963
0.67862
0.687674
0.697075
0.662128
0.671062
0.680345
0.689927
0.651656
0.660842
0.670349
0.680126
0.638797
0.64822
0.657952
0.667936
0.623713
0.63336
0.643323
0.653544
0.606495
0.616354
0.626545
0.637018
0.58718
0.597221
0.607628
0.618357
0.565766
0.575972
0.586561
0.597531
0.542199
0.55253
0.563273
0.574446
0.516386
0.526788
0.537634
0.548953
0.488181
0.498597
0.509488
0.520873
0.457505
0.467823
0.478639
0.489978
0.424222
0.434358
0.444933
0.456058
0.388235
0.397877
0.408121
0.418899
0.34981
0.358881
0.368475
0.378616
0.308938
0.31725
0.326054
0.335387
0.265713
0.273092
0.280918
0.289228
0.220269
0.226547
0.233212
0.240292
0.173087
0.178119
0.183467
0.189151
0.124845
0.128534
0.132455
0.136624
0.0761264
0.0783775
0.0807727
0.083319
0.0254206
0.0261257
0.026855
0.0276089
674.527
271.508
270.43
270.772
271.066
271.309
271.379
271.371
271.317
271.241
271.154
271.056
270.959
270.817
270.288
269.181
270.713
279.949
276.432
889.238
549.912
270.995
271.333
271.399
271.41
271.395
271.329
271.232
271.12
270.99
270.819
270.633
270.392
269.418
266.829
265.126
277.776
283.774
1032.65
961.827
310.141
271.498
271.555
271.507
271.45
271.316
271.154
271.025
270.873
270.635
270.418
270.279
269.114
266.264
263.236
260.553
567.075
1114.34
1154.44
720.701
271.897
271.588
271.571
271.573
271.329
271.043
270.877
270.758
270.527
270.49
270.137
269.08
267.194
265.779
263.848
1014.85
1178.5
1229.66
1273.98
426.329
271.699
271.586
271.701
271.403
270.923
270.68
270.626
270.386
269.69
306.632
269.025
268.403
269.392
274.557
1222.35
1238.94
1282.9
1334.37
1264.73
794.871
608.766
432.241
271.816
270.286
360.241
407.629
404.903
408.928
690.486
266.579
307.974
326.207
608.83
1481.66
562.633
1276.81
1370.27
1410.53
1437.48
1415.58
1349.12
1127.96
1020.99
1111.74
1247.34
1280.69
1279.1
1324.46
1243.69
1281.16
1361.12
1594.58
1956.41
6.28639
182.812
582.587
1065.29
1422.32
1428.49
1434.88
1448.29
1442.76
1425.51
1423.98
1428.49
1431.5
1436.64
1489.77
1578.4
1749.41
2046.18
2387.27
0.692995
0.683773
1.49248
74.805
290.014
609.36
897.137
1066.87
1169.09
1198.03
1189.84
1172.4
1150.61
1175.75
1391.84
1649.33
1903.88
2225.94
2391.73
0.673219
0.703272
0.793541
1.00459
1.00631
1.83252
22.4006
63.6462
117.172
143.807
139.614
129.983
122.627
127.216
182.383
595.057
1680.28
2205.3
2266.34
0.779861
0.979008
1.63952
1.34942
1.01423
0.823832
0.928921
1.1118
1.34525
1.56489
1.70418
1.77845
2.03696
2.6976
7.1351
28.7197
1010.03
2065.78
2249.82
1.56954
1.70653
1.73435
1.71956
1.10807
0.85314
0.955299
1.07854
1.21785
1.35422
1.48959
1.64933
2.03903
2.37215
3.75123
13.4523
1083.75
2016.79
2092.25
0.859202
0.963832
0.915229
0.791815
0.795867
0.871784
0.972612
1.08328
1.20046
1.31915
1.44216
1.60201
1.8271
2.22783
4.32695
224.182
1525.74
2056.77
1597.27
0.61807
0.644288
0.681071
0.736971
0.808409
0.891535
0.981541
1.07832
1.18005
1.28598
1.39567
1.52934
1.70479
2.27856
15.0454
973.504
2020.17
2126.4
1451.84
0.659115
0.689899
0.72583
0.77302
0.833244
0.904502
0.983868
1.06869
1.15677
1.24945
1.34348
1.43125
1.50506
1.53673
3.52469
572.687
1942.62
2202.1
2053.56
0.685477
0.713621
0.750363
0.79409
0.847173
0.909964
0.980266
1.05474
1.13089
1.20784
1.28703
1.32701
1.34852
1.76342
1.44367
153.534
1641.12
2253.55
2413.54
0.703069
0.730633
0.764607
0.80507
0.853205
0.909466
0.971944
1.03773
1.10423
1.16988
1.23277
1.28251
1.28309
1.46174
1.65052
328.215
1602.38
1694.2
2008.14
0.71338
0.740574
0.772649
0.810044
0.853853
0.90445
0.959928
1.01754
1.07612
1.13544
1.19756
1.27304
1.32445
1.51866
2.17138
594.176
1628.11
425.871
381.577
0.717771
0.744518
0.775247
0.810185
0.850328
0.896038
0.945492
0.995683
1.04672
1.10237
1.16349
1.24515
1.33199
1.50289
3.22651
684.162
1540.63
57.7317
9.06749
0.717565
0.743935
0.773572
0.806582
0.843697
0.8852
0.930034
0.974552
1.0186
1.06768
1.12284
1.19635
1.28719
1.38221
2.06279
179.303
1064.62
200.628
9.50906
0.713645
0.739755
0.768593
0.800154
0.834877
0.872947
0.913589
0.953972
0.992534
1.03381
1.08213
1.13472
1.21902
1.40779
2.05817
3.27682
705.504
1483.43
9.3478
0.706675
0.732689
0.761026
0.79159
0.824605
0.86014
0.89723
0.934593
0.969354
1.00177
1.03196
1.06502
1.14071
1.40852
2.0862
5.28093
730.473
1745.22
1340.07
0.697129
0.723231
0.751381
0.781405
0.813373
0.84727
0.88222
0.916313
0.947225
0.969747
0.982527
0.990184
1.02514
1.17834
1.64708
4.71513
249.396
1264.23
2365.97
0.685239
0.711665
0.739976
0.769903
0.801426
0.83466
0.868805
0.901167
0.928209
0.943632
0.940119
0.91191
0.855973
0.968674
5.05449
7.50267
8.88135
125.62
1007.02
0.671221
0.698149
0.726981
0.757278
0.788952
0.822545
0.857594
0.890699
0.916796
0.928768
0.915679
0.855867
0.709893
1.04004
2.21503
1.3181
34.5854
106.287
5.68311
0.655133
0.682736
0.712364
0.743498
0.776024
0.811082
0.848572
0.884768
0.913692
0.927835
0.916326
0.849667
0.761175
0.940304
-0.0566729
-0.216387
52.6274
268.437
53.2219
0.636961
0.665364
0.695985
0.728329
0.762286
0.7998
0.840728
0.882012
0.916228
0.936146
0.934491
0.893744
0.832419
0.468931
0.00840547
-0.182025
-0.00725348
267.956
1292.92
0.616628
0.645866
0.677583
0.71137
0.747048
0.787208
0.832634
0.880258
0.922991
0.952142
0.964605
0.955249
0.881632
0.620681
0.340426
0.278857
0.737938
113.605
2432.62
0.593969
0.624014
0.656798
0.692034
0.729371
0.772092
0.822749
0.878902
0.931817
0.974815
1.00589
1.03129
1.03516
0.955809
0.772076
0.93901
4.7304
89.735
1916.04
0.568794
0.599517
0.633203
0.669641
0.708141
0.752323
0.807447
0.872321
0.936161
0.993169
1.04133
1.10497
1.19686
1.26428
2.65218
56.4855
150.965
260.16
1768.16
0.540867
0.572038
0.606426
0.643737
0.682903
0.726841
0.785274
0.857617
0.933333
0.999328
1.05235
1.13163
1.30309
1.44245
78.8932
318.677
320.901
286.02
1773.61
0.509932
0.541204
0.576071
0.614086
0.653691
0.696128
0.754291
0.835189
0.923442
0.995836
1.04346
1.77861
7.59852
4.07289
53.5928
324.244
249.604
57.3412
1921.56
0.475689
0.50672
0.541405
0.579494
0.620087
0.662612
0.716969
0.80488
0.900675
0.967977
1.01274
1.0541
23.919
88.8904
89.4141
69.7147
29.2802
21.6174
2009.47
0.43794
0.468164
0.502133
0.53992
0.581057
0.624477
0.675093
0.756225
0.851795
0.912346
0.952471
1.00842
30.9238
96.2843
93.5853
27.5384
18.5028
18.083
1723.63
0.396612
0.425467
0.458082
0.494734
0.535298
0.579146
0.628021
0.695653
0.772468
0.831385
0.870627
0.928256
23.733
104.001
81.6626
17.9615
17.6283
17.7366
916.036
0.351989
0.378719
0.409163
0.443623
0.482389
0.524892
0.571005
0.623469
0.685341
0.734623
0.784731
0.836753
27.6346
112.042
88.8838
17.6235
17.2436
17.4018
1113.62
0.30403
0.327932
0.355276
0.386226
0.421202
0.459615
0.499925
0.545157
0.585005
0.62238
0.675255
0.669792
46.2494
117.338
92.9308
16.8462
16.4402
16.4451
2359.67
0.252907
0.273309
0.296662
0.322987
0.352715
0.384737
0.416817
0.454459
0.477533
0.490871
0.547781
0.44844
93.8521
119.625
99.3508
16.8281
15.9455
15.0858
4323.57
0.199275
0.215646
0.234326
0.255271
0.278715
0.303197
0.326684
0.353747
0.364311
0.356116
0.406742
0.334397
53.4787
122.215
111.962
18.9005
15.3706
67.3614
4426.77
0.144041
0.156039
0.169638
0.184767
0.201401
0.218108
0.233511
0.247828
0.247701
0.223391
0.232621
0.234592
0.349932
95.1565
113.544
27.7495
42.5773
388.034
2282.02
0.0878372
0.0950786
0.103144
0.11187
0.120952
0.12904
0.135104
0.135994
0.122618
0.0838398
0.029644
-0.0331314
-0.375805
6.60866
68.4263
61.1987
148.515
411.738
46.5019
0.0288933
0.0307562
0.0324333
0.0334967
0.0331965
0.0299175
0.0220523
0.00380194
-0.0319482
-0.0939929
-0.20338
-0.498217
-1.97174
-3.76265
0.335568
20.6448
63.1713
53.4934
-4.92361
)
;

boundaryField
{
    leftWall
    {
        type            fixedFluxPressure;
        gradient        uniform 0;
        value           nonuniform List<scalar> 
50
(
771.611
770.873
769.271
767.193
765.166
763.793
763.717
765.884
772.711
792.2
657.076
14.4129
0.876826
0.862224
0.835906
0.813338
0.792943
0.772488
0.752563
0.732751
0.712886
0.692901
0.672755
0.652436
0.631935
0.611235
0.590313
0.569142
0.547694
0.525939
0.503848
0.481392
0.458546
0.435292
0.411618
0.387527
0.363016
0.338084
0.312748
0.287022
0.260914
0.234439
0.207647
0.180574
0.153179
0.125448
0.0975504
0.0696944
0.0419899
0.0134788
)
;
    }
    rightWall
    {
        type            fixedFluxPressure;
        gradient        uniform 0;
        value           nonuniform List<scalar> 
50
(
274.601
274.634
274.702
274.802
274.935
275.124
275.389
275.653
276.432
283.774
567.075
1014.85
1222.35
1481.66
1956.41
2387.27
2391.73
2266.34
2249.82
2092.25
1597.27
1451.84
2053.56
2413.54
2008.14
381.577
9.06749
9.50906
9.3478
1340.07
2365.97
1007.02
5.68311
53.2219
1292.92
2432.62
1916.04
1768.16
1773.61
1921.56
2009.47
1723.63
916.036
1113.62
2359.67
4323.57
4426.77
2282.02
46.5019
-4.92361
)
;
    }
    lowerWall
    {
        type            fixedFluxPressure;
        gradient        uniform 0;
        value           nonuniform List<scalar> 
62
(
771.611
771.208
776.588
785.667
792.909
796.408
796.831
797.009
799.304
804.687
813.291
825.041
839.883
857.681
878.321
901.594
926.554
950.783
968.32
980.299
955.494
957.975
995.405
995.405
988.638
987.359
996.314
1014.32
1023.94
1015.72
986.523
755.096
762.641
778.732
769.998
275.704
275.739
275.802
275.932
276.319
277.49
344.491
517.714
275.704
275.361
273.641
272.103
271.69
271.789
271.794
271.716
271.655
271.624
271.625
271.673
271.786
271.987
272.325
272.872
273.615
274.306
274.601
)
;
    }
    atmosphere
    {
        type            totalPressure;
        rho             rho;
        psi             none;
        gamma           1;
        p0              uniform 0;
        value           nonuniform List<scalar> 
46
(
-0.00138911
-0.00178971
-0.00168015
-0.00173535
-0.00169798
-0.00167431
-0.00163161
-0.00157914
-0.00151773
-0.00144934
-0.0013758
-0.00129954
-0.00122285
-0.00114809
-0.00107764
-0.00101468
-0.000962279
-0.000923731
-0.000903812
-0.000907976
-0.000946398
-0.00103223
-0.00118853
-0.0013785
-0.00154026
-0.00174766
-0.00201278
-0.00258493
-0.00386864
-0.00603791
-0.00973174
-0.0160468
-0.0270329
-0.0446411
-0.0780837
-0.130614
-0.203219
-0.326669
-0.719933
-1.9902
-2.51124
0
0
0
0
0
)
;
    }
    defaultFaces
    {
        type            empty;
    }
}


// ************************************************************************* //
