/*--------------------------------*- C++ -*----------------------------------*\
| =========                 |                                                 |
| \\      /  F ield         | OpenFOAM: The Open Source CFD Toolbox           |
|  \\    /   O peration     | Version:  5.x                                   |
|   \\  /    A nd           | Web:      www.OpenFOAM.org                      |
|    \\/     M anipulation  |                                                 |
\*---------------------------------------------------------------------------*/
FoamFile
{
    version     2.0;
    format      ascii;
    class       surfaceScalarField;
    location    "0.45";
    object      phi;
}
// * * * * * * * * * * * * * * * * * * * * * * * * * * * * * * * * * * * * * //

dimensions      [0 3 -1 0 0 0 0];

internalField   nonuniform List<scalar> 
4432
(
-3.80971e-06
3.80971e-06
-4.28889e-06
4.79182e-07
-8.92417e-07
-3.39648e-06
4.64682e-06
-5.53924e-06
1.09172e-05
-6.27041e-06
1.67183e-05
-5.80111e-06
2.1424e-05
-4.70564e-06
2.49094e-05
-3.48543e-06
2.73128e-05
-2.40344e-06
2.88534e-05
-1.54054e-06
2.97306e-05
-8.77174e-07
3.00698e-05
-3.39248e-07
2.98516e-05
2.18233e-07
2.88838e-05
9.67776e-07
2.68388e-05
2.04498e-06
2.31739e-05
3.6649e-06
1.72306e-05
5.94329e-06
8.91501e-06
8.31563e-06
4.44856e-07
8.47015e-06
-6.3842e-06
6.82906e-06
-1.5606e-05
9.22181e-06
-1.54235e-05
-1.82494e-07
-1.54235e-05
-3.9608e-06
7.77051e-06
-3.98895e-06
5.07324e-07
-4.73489e-07
-6.91194e-06
5.04879e-06
-1.10615e-05
1.12647e-05
-1.24864e-05
1.6987e-05
-1.15234e-05
2.16102e-05
-9.32878e-06
2.50294e-05
-6.90467e-06
2.74035e-05
-4.77749e-06
2.89593e-05
-3.09641e-06
2.98961e-05
-1.81394e-06
3.03618e-05
-8.04932e-07
3.04953e-05
8.4697e-08
3.04459e-05
1.01718e-06
3.02283e-05
2.26262e-06
2.96702e-05
4.22297e-06
2.80643e-05
7.54925e-06
2.37232e-05
1.26567e-05
1.45672e-05
1.76261e-05
1.27057e-06
2.01257e-05
-8.79556e-06
1.92879e-05
-8.95027e-06
-2.77557e-08
-2.43738e-05
-3.52386e-06
1.12944e-05
-3.37259e-06
3.56058e-07
1.81915e-07
-1.04665e-05
5.64633e-06
-1.65259e-05
1.17017e-05
-1.85418e-05
1.72152e-05
-1.70368e-05
2.16162e-05
-1.37297e-05
2.48465e-05
-1.0135e-05
2.71034e-05
-7.03441e-06
2.86254e-05
-4.61835e-06
2.96009e-05
-2.78951e-06
3.0148e-05
-1.35195e-06
3.03175e-05
-8.47954e-08
3.0112e-05
1.22263e-06
2.9563e-05
2.81167e-06
2.88218e-05
4.9641e-06
2.82204e-05
8.15066e-06
2.75202e-05
1.33569e-05
2.43793e-05
2.0767e-05
1.61777e-05
2.83273e-05
6.54223e-06
2.89234e-05
1.33188e-06
5.18262e-06
-2.30419e-05
-2.88688e-06
1.41812e-05
-2.46192e-06
-6.89093e-08
1.01806e-06
-1.39464e-05
6.33966e-06
-2.18476e-05
1.21673e-05
-2.43694e-05
1.7421e-05
-2.22905e-05
2.15439e-05
-1.78527e-05
2.45395e-05
-1.31307e-05
2.66613e-05
-9.15614e-06
2.81619e-05
-6.11896e-06
2.92113e-05
-3.83893e-06
2.98982e-05
-2.03882e-06
3.02485e-05
-4.35157e-07
3.02382e-05
1.23298e-06
2.98371e-05
3.21275e-06
2.90591e-05
5.74209e-06
2.81257e-05
9.08404e-06
2.77373e-05
1.37454e-05
2.79067e-05
2.05976e-05
2.64704e-05
2.97637e-05
2.15234e-05
3.38704e-05
1.11583e-05
1.55477e-05
-1.18836e-05
-2.06833e-06
1.62496e-05
-1.21881e-06
-9.18437e-07
2.06011e-06
-1.72254e-05
7.01699e-06
-2.68044e-05
1.25387e-05
-2.98911e-05
1.75128e-05
-2.72647e-05
2.13507e-05
-2.16906e-05
2.41152e-05
-1.58951e-05
2.61205e-05
-1.11614e-05
2.7631e-05
-7.62946e-06
2.87922e-05
-5.00022e-06
2.96582e-05
-2.90473e-06
3.02232e-05
-1.00022e-06
3.04487e-05
1.0075e-06
3.03093e-05
3.35217e-06
2.98097e-05
6.24167e-06
2.90128e-05
9.8809e-06
2.82952e-05
1.4463e-05
2.86552e-05
2.02377e-05
3.00534e-05
2.83654e-05
2.86202e-05
3.53036e-05
1.79636e-05
2.62043e-05
6.07996e-06
-1.01322e-06
1.72628e-05
4.29944e-07
-2.36161e-06
3.45846e-06
-2.02539e-05
7.93873e-06
-3.12847e-05
1.3001e-05
-3.49533e-05
1.75655e-05
-3.18292e-05
2.10513e-05
-2.51764e-05
2.35839e-05
-1.84277e-05
2.55163e-05
-1.30938e-05
2.70969e-05
-9.21005e-06
2.8428e-05
-6.33123e-06
2.95195e-05
-3.99623e-06
3.03309e-05
-1.81168e-06
3.07948e-05
5.43611e-07
3.08864e-05
3.2606e-06
3.06352e-05
6.49286e-06
3.0133e-05
1.03831e-05
2.94866e-05
1.51094e-05
2.9216e-05
2.05083e-05
3.03974e-05
2.7184e-05
3.04556e-05
3.52455e-05
2.12839e-05
3.5376e-05
2.73638e-05
2.90019e-07
1.69728e-05
2.61196e-06
-4.68355e-06
5.887e-06
-2.35289e-05
9.95053e-06
-3.53482e-05
1.42262e-05
-3.9229e-05
1.80004e-05
-3.56034e-05
2.08991e-05
-2.80751e-05
2.31029e-05
-2.06314e-05
2.49425e-05
-1.49335e-05
2.66063e-05
-1.08739e-05
2.81317e-05
-7.8566e-06
2.94775e-05
-5.34207e-06
3.05661e-05
-2.90024e-06
3.13101e-05
-2.00415e-07
3.16393e-05
2.93136e-06
3.15915e-05
6.54071e-06
3.12787e-05
1.06959e-05
3.08299e-05
1.55582e-05
3.03131e-05
2.10251e-05
3.05078e-05
2.69893e-05
3.04978e-05
3.52555e-05
2.37437e-05
4.213e-05
5.11076e-05
2.287e-06
1.46858e-05
5.89149e-06
-8.28804e-06
1.01355e-05
-2.77729e-05
1.38017e-05
-3.90144e-05
1.67528e-05
-4.21802e-05
1.92189e-05
-3.80695e-05
2.12892e-05
-3.01454e-05
2.30968e-05
-2.2439e-05
2.48105e-05
-1.66472e-05
2.65009e-05
-1.25642e-05
2.81343e-05
-9.48998e-06
2.96348e-05
-6.84262e-06
3.09081e-05
-4.17346e-06
3.18497e-05
-1.1421e-06
3.24178e-05
2.36329e-06
3.26318e-05
6.32671e-06
3.25329e-05
1.07948e-05
3.22464e-05
1.58447e-05
3.18265e-05
2.14449e-05
3.14707e-05
2.73452e-05
3.08719e-05
3.58542e-05
2.52932e-05
4.77087e-05
7.64008e-05
3.22578e-05
-3.22578e-05
0.000116578
-8.43199e-05
0.00015058
-3.4002e-05
0.000121011
2.9569e-05
7.29243e-05
4.8087e-05
4.47295e-05
2.81947e-05
3.15459e-05
1.31837e-05
2.0636e-05
1.09097e-05
9.291e-06
1.1345e-05
-2.15068e-06
1.14417e-05
-1.34643e-05
1.13136e-05
-2.5182e-05
1.17177e-05
-3.75593e-05
1.23774e-05
-5.06613e-05
1.31021e-05
-6.25449e-05
1.18837e-05
-6.65343e-05
3.98949e-06
-5.46034e-05
-1.19312e-05
-2.62172e-05
-2.83865e-05
-2.62174e-05
3.53654e-05
-6.76231e-05
0.000111202
-0.000160157
0.000154934
-7.77331e-05
0.000145586
3.89171e-05
0.000105829
8.78433e-05
6.76822e-05
6.63416e-05
4.05002e-05
4.03658e-05
2.18392e-05
2.95706e-05
7.82326e-06
2.53606e-05
-3.98264e-06
2.32476e-05
-1.51033e-05
2.24345e-05
-2.66698e-05
2.32844e-05
-3.90821e-05
2.47899e-05
-5.2323e-05
2.63431e-05
-6.44252e-05
2.39857e-05
-6.90713e-05
8.63543e-06
-5.7097e-05
-2.39056e-05
-2.72101e-05
-5.82736e-05
-5.34277e-05
3.70646e-05
-0.000104688
9.09001e-05
-0.000213992
0.00013084
-0.000117673
0.000132903
3.68539e-05
0.000100178
0.000120569
6.40679e-05
0.000102451
3.6514e-05
6.79197e-05
1.88092e-05
4.72755e-05
6.4976e-06
3.7672e-05
-3.97706e-06
3.37222e-05
-1.43366e-05
3.27943e-05
-2.56311e-05
3.45792e-05
-3.81202e-05
3.72792e-05
-5.22014e-05
4.04242e-05
-6.67415e-05
3.85253e-05
-7.43287e-05
1.62223e-05
-6.2648e-05
-3.55864e-05
-2.93471e-05
-9.15747e-05
-8.27749e-05
3.65459e-05
-0.000141233
5.51589e-05
-0.000232605
8.54989e-05
-0.000148013
9.8604e-05
2.37489e-05
8.15471e-05
0.000137626
5.32165e-05
0.000130782
3.06925e-05
9.04434e-05
1.66634e-05
6.13047e-05
6.07168e-06
4.82637e-05
-3.85499e-06
4.36488e-05
-1.40069e-05
4.2946e-05
-2.53066e-05
4.58789e-05
-3.79885e-05
4.99613e-05
-5.3003e-05
5.54389e-05
-7.04727e-05
5.59951e-05
-8.24718e-05
2.82208e-05
-7.14331e-05
-4.66253e-05
-3.26642e-05
-0.000130344
-0.000115439
3.14087e-05
-0.000172642
3.01736e-05
-0.00023137
5.46398e-05
-0.000172479
6.44627e-05
1.39259e-05
5.82767e-05
0.000143812
3.99447e-05
0.000149114
2.50408e-05
0.000105347
1.47499e-05
7.15955e-05
5.4533e-06
5.75605e-05
-3.95473e-06
5.30571e-05
-1.371e-05
5.27014e-05
-2.48292e-05
5.69982e-05
-3.75382e-05
6.26701e-05
-5.35355e-05
7.1436e-05
-7.49204e-05
7.73803e-05
-9.35823e-05
4.68826e-05
-8.35151e-05
-5.66929e-05
-3.71072e-05
-0.000176752
-0.000152547
1.41304e-05
-0.000186772
-4.92938e-06
-0.00021231
1.35233e-05
-0.000190932
2.84226e-05
-9.73434e-07
3.20617e-05
0.000140173
2.63362e-05
0.000154839
1.97178e-05
0.000111966
1.26945e-05
7.86186e-05
4.5279e-06
6.57271e-05
-4.16397e-06
6.17492e-05
-1.32604e-05
6.17979e-05
-2.40005e-05
6.77384e-05
-3.65455e-05
7.52149e-05
-5.34451e-05
8.83351e-05
-7.95138e-05
0.000103449
-0.000106745
7.41137e-05
-9.66655e-05
-6.67722e-05
-4.11817e-05
-0.000232235
-0.000193728
-2.35563e-05
-0.000163216
-4.28013e-05
-0.000193065
-2.98467e-05
-0.000203886
-4.09042e-06
-2.67294e-05
8.83235e-06
0.00012725
1.45088e-05
0.000149163
1.47126e-05
0.000111762
1.02419e-05
8.30892e-05
3.4186e-06
7.25503e-05
-4.21292e-06
6.93808e-05
-1.24563e-05
7.00414e-05
-2.27461e-05
7.80287e-05
-3.47711e-05
8.72403e-05
-5.21614e-05
0.000105725
-8.29772e-05
0.000134265
-0.000117989
0.000109126
-0.000104721
-8.00409e-05
-4.17212e-05
-0.000295235
-0.00023545
-3.08297e-05
-0.000132386
-4.9647e-05
-0.000174248
-5.06829e-05
-0.000202851
-2.96061e-05
-4.78064e-05
-8.08777e-06
0.000105732
5.89942e-06
0.000135175
1.07216e-05
0.00010694
8.30826e-06
8.55027e-05
2.75244e-06
7.81062e-05
-3.92855e-06
7.6062e-05
-1.1205e-05
7.73177e-05
-2.06794e-05
8.75031e-05
-3.15477e-05
9.81092e-05
-4.85485e-05
0.000122726
-8.28317e-05
0.000168548
-0.000120331
0.000146625
-0.000102392
-9.79799e-05
-4.03724e-05
-0.000357254
-0.000275822
1.25208e-05
2.16499e-06
2.817e-05
-2.39372e-05
4.09571e-05
-4.056e-05
4.53888e-05
-4.34462e-05
4.53309e-05
-4.21223e-05
4.54414e-05
-3.818e-05
4.73896e-05
-3.20936e-05
5.0776e-05
-2.58254e-05
5.48571e-05
-2.07283e-05
5.909e-05
-1.67972e-05
6.30524e-05
-1.34523e-05
6.64625e-05
-1.02528e-05
6.91659e-05
-6.87683e-06
7.10047e-05
-2.98095e-06
7.18042e-05
1.56387e-06
7.23863e-05
5.74455e-06
7.26173e-05
1.05638e-05
7.26004e-05
1.58615e-05
7.2718e-05
2.13274e-05
7.3114e-05
2.69491e-05
7.49321e-05
3.40361e-05
8.14937e-05
4.11471e-05
5.56935e-05
0.000102201
2.36123e-05
-2.14473e-05
5.14504e-05
-5.17753e-05
6.63274e-05
-5.5437e-05
6.13723e-05
-3.8491e-05
5.10764e-05
-3.18265e-05
4.51514e-05
-3.2255e-05
4.50563e-05
-3.19986e-05
4.9125e-05
-2.9894e-05
5.52944e-05
-2.68977e-05
6.20658e-05
-2.35687e-05
6.83149e-05
-1.97014e-05
7.31921e-05
-1.513e-05
7.628e-05
-9.96476e-06
7.79291e-05
-4.63004e-06
7.9074e-05
4.19022e-07
7.86924e-05
6.12609e-06
7.82356e-05
1.10206e-05
7.77857e-05
1.63115e-05
7.85587e-05
2.05544e-05
8.1134e-05
2.43739e-05
8.63373e-05
2.88328e-05
9.5556e-05
3.19284e-05
3.72942e-05
0.000113955
3.3607e-05
-5.50543e-05
6.23245e-05
-8.04929e-05
6.22978e-05
-5.54103e-05
4.00824e-05
-1.62756e-05
2.44128e-05
-1.61569e-05
1.83322e-05
-2.61744e-05
1.64201e-05
-3.00865e-05
1.89735e-05
-3.24474e-05
2.52283e-05
-3.31524e-05
3.37246e-05
-3.2065e-05
4.34289e-05
-2.94056e-05
5.35135e-05
-2.52145e-05
6.36979e-05
-2.01492e-05
7.50018e-05
-1.59339e-05
8.2884e-05
-7.46313e-06
8.62342e-05
2.77583e-06
8.44406e-05
1.28142e-05
8.04727e-05
2.02794e-05
7.97264e-05
2.13007e-05
8.20474e-05
2.20529e-05
8.63987e-05
2.44814e-05
9.21915e-05
2.61356e-05
2.72469e-05
0.000102239
2.53976e-05
-8.04519e-05
1.21663e-05
-6.72615e-05
-4.67906e-06
-3.85648e-05
-1.50548e-05
-5.8997e-06
-1.82698e-05
-1.29417e-05
-2.37473e-05
-2.06968e-05
-3.33746e-05
-2.0459e-05
-4.37432e-05
-2.20789e-05
-5.52004e-05
-2.16953e-05
-6.71246e-05
-2.0141e-05
-8.02296e-05
-1.63007e-05
-9.17351e-05
-1.37091e-05
-8.50196e-05
-2.68647e-05
-4.35536e-05
-5.73999e-05
2.35226e-05
-7.45394e-05
5.7521e-05
-3.12226e-05
7.12334e-05
-8.98181e-07
7.88564e-05
1.26564e-05
8.68378e-05
1.33193e-05
9.00082e-05
1.88825e-05
9.1069e-05
2.34207e-05
9.36028e-05
2.36018e-05
2.35622e-05
9.72876e-05
-1.9406e-05
-6.10459e-05
-3.18343e-05
-5.4833e-05
-3.95433e-05
-3.08555e-05
-2.39691e-05
-2.14737e-05
-1.57997e-05
-2.1111e-05
-1.62319e-05
-2.02645e-05
-1.83694e-05
-1.83218e-05
-2.2469e-05
-1.79796e-05
-2.63239e-05
-1.78408e-05
-2.80065e-05
-1.84588e-05
-2.98488e-05
-1.44587e-05
-3.9573e-05
-3.98514e-06
-6.2898e-05
-3.53987e-06
-9.01266e-05
-3.01714e-05
-0.000103712
-6.09544e-05
-7.34015e-05
-6.15327e-05
-4.20236e-05
-3.2276e-05
1.27469e-05
-4.21141e-05
5.74639e-05
-3.13978e-05
7.53365e-05
1.00987e-06
8.6472e-05
1.22851e-05
9.60725e-05
1.40012e-05
1.88549e-05
0.00010078
-2.57111e-05
-3.53346e-05
-2.87196e-05
-5.18243e-05
-2.30335e-05
-3.65413e-05
-1.8251e-05
-2.62559e-05
-1.70462e-05
-2.23157e-05
-1.73275e-05
-1.99832e-05
-1.82631e-05
-1.73862e-05
-2.01919e-05
-1.60509e-05
-2.09658e-05
-1.70672e-05
-1.97409e-05
-1.96839e-05
-1.61403e-05
-1.80595e-05
-1.38995e-05
-6.22614e-06
-2.37489e-05
6.30934e-06
-4.00089e-05
-1.39116e-05
-3.89926e-05
-6.19709e-05
-2.6243e-05
-7.42824e-05
-5.53048e-06
-5.29886e-05
6.97941e-06
-5.4624e-05
1.85574e-05
-4.29757e-05
3.03775e-05
-1.08102e-05
2.58809e-05
1.67818e-05
6.61753e-05
-2.62931e-05
-1.24944e-06
8.62797e-05
-1.15881e-05
-2.37464e-05
-1.51316e-05
-4.82807e-05
-1.68906e-05
-3.47822e-05
-1.62934e-05
-2.6853e-05
-1.58324e-05
-2.27767e-05
-1.56335e-05
-2.01821e-05
-1.56525e-05
-1.73674e-05
-1.59581e-05
-1.57455e-05
-1.63062e-05
-1.67193e-05
-1.64354e-05
-1.9555e-05
-1.45581e-05
-1.9937e-05
-8.39133e-06
-1.23931e-05
-5.57183e-07
-1.525e-06
-1.39529e-06
-1.30737e-05
-7.51323e-06
-5.58531e-05
-1.18635e-05
-6.99322e-05
-3.64286e-06
-6.12092e-05
7.57056e-06
-6.58373e-05
2.6523e-05
-6.19281e-05
6.72162e-05
-5.15032e-05
0.000106163
-2.21653e-05
0.000100163
-2.02931e-05
1.66735e-05
8.22403e-05
-6.77091e-06
-1.69754e-05
-1.09598e-05
-4.40918e-05
-1.27313e-05
-3.30106e-05
-1.29174e-05
-2.66667e-05
-1.2387e-05
-2.3307e-05
-1.17681e-05
-2.0801e-05
-1.11123e-05
-1.80233e-05
-1.08193e-05
-1.60387e-05
-1.12764e-05
-1.62625e-05
-1.227e-05
-1.85616e-05
-1.16398e-05
-2.05675e-05
-4.76803e-06
-1.92652e-05
8.21371e-06
-1.4507e-05
1.65058e-05
-2.13659e-05
8.9633e-06
-4.83107e-05
-1.79861e-07
-6.0789e-05
-2.25177e-07
-6.11638e-05
6.1156e-06
-7.2178e-05
2.08656e-05
-7.6678e-05
4.65734e-05
-7.7211e-05
8.93952e-05
-6.49871e-05
0.000109954
-4.08516e-05
8.49067e-06
0.000118137
-5.02937e-06
-1.19459e-05
-8.17647e-06
-4.09446e-05
-9.31377e-06
-3.18733e-05
-9.79622e-06
-2.61842e-05
-9.56715e-06
-2.35359e-05
-8.93719e-06
-2.14309e-05
-7.88923e-06
-1.90713e-05
-6.81525e-06
-1.71127e-05
-6.33206e-06
-1.67458e-05
-6.58321e-06
-1.83107e-05
-6.38546e-06
-2.07656e-05
-2.54933e-06
-2.31016e-05
8.00645e-06
-2.5063e-05
1.69449e-05
-3.03045e-05
1.37725e-05
-4.51383e-05
8.3056e-06
-5.5322e-05
7.86311e-06
-6.07211e-05
7.20557e-06
-7.15203e-05
1.37338e-05
-8.32061e-05
2.29783e-05
-8.64556e-05
4.07589e-05
-8.27678e-05
6.56635e-05
-6.57562e-05
-2.14835e-05
9.56376e-05
-3.11577e-06
-8.83014e-06
-5.64037e-06
-3.842e-05
-6.89675e-06
-3.06169e-05
-7.43765e-06
-2.56432e-05
-7.38461e-06
-2.35889e-05
-6.79816e-06
-2.20173e-05
-5.56211e-06
-2.03074e-05
-3.87128e-06
-1.88037e-05
-2.29186e-06
-1.83254e-05
-1.17112e-06
-1.94317e-05
-7.82436e-08
-2.18587e-05
2.07346e-06
-2.52535e-05
6.64414e-06
-2.96338e-05
1.12867e-05
-3.49471e-05
1.06074e-05
-4.44588e-05
7.6858e-06
-5.24003e-05
5.87128e-06
-5.89065e-05
2.63613e-06
-6.8285e-05
-3.93961e-07
-8.0176e-05
-1.55199e-06
-8.52976e-05
-1.09535e-06
-8.32246e-05
6.14738e-06
-7.29989e-05
-4.42953e-05
2.89593e-05
-1.84131e-06
-6.98884e-06
-3.89537e-06
-3.6366e-05
-5.11329e-06
-2.93989e-05
-5.67289e-06
-2.50836e-05
-5.70957e-06
-2.35521e-05
-5.23871e-06
-2.24881e-05
-4.13235e-06
-2.14137e-05
-2.42034e-06
-2.05158e-05
-4.59803e-07
-2.02862e-05
1.32896e-06
-2.12207e-05
2.89519e-06
-2.34251e-05
4.37822e-06
-2.67366e-05
5.77233e-06
-3.10279e-05
6.98762e-06
-3.61623e-05
5.38178e-06
-4.28529e-05
2.00921e-06
-4.90275e-05
-2.05139e-06
-5.48457e-05
-7.7318e-06
-6.26046e-05
-1.50608e-05
-7.28471e-05
-2.08006e-05
-7.9558e-05
-2.46109e-05
-7.94145e-05
-2.86198e-05
-6.89901e-05
-4.63715e-05
-2.65438e-05
-1.09512e-06
-5.89374e-06
-2.76048e-06
-3.47007e-05
-3.84742e-06
-2.83119e-05
-4.40961e-06
-2.45213e-05
-4.54883e-06
-2.34128e-05
-4.27721e-06
-2.27597e-05
-3.51435e-06
-2.21765e-05
-2.22651e-06
-2.18037e-05
-6.00497e-07
-2.19123e-05
1.01195e-06
-2.28332e-05
2.3133e-06
-2.47265e-05
3.11113e-06
-2.75344e-05
3.22371e-06
-3.11404e-05
2.4188e-06
-3.53572e-05
-1.36134e-07
-4.02978e-05
-4.0057e-06
-4.51579e-05
-9.14496e-06
-4.97064e-05
-1.63526e-05
-5.53971e-05
-2.59947e-05
-6.32052e-05
-3.48324e-05
-7.07204e-05
-4.02092e-05
-7.40377e-05
-4.17394e-05
-6.746e-05
-4.9765e-05
-3.83458e-05
-6.53144e-07
-5.24064e-06
-2.02675e-06
-3.33272e-05
-3.00939e-06
-2.73293e-05
-3.57008e-06
-2.39605e-05
-3.80446e-06
-2.31783e-05
-3.73928e-06
-2.28248e-05
-3.35154e-06
-2.25643e-05
-2.62771e-06
-2.25276e-05
-1.65929e-06
-2.28808e-05
-6.91207e-07
-2.38013e-05
-1.74761e-08
-2.54002e-05
1.20468e-07
-2.76722e-05
-4.96316e-07
-3.05234e-05
-2.0137e-06
-3.38396e-05
-4.7109e-06
-3.76004e-05
-8.43062e-06
-4.14381e-05
-1.30642e-05
-4.50729e-05
-1.95556e-05
-4.89058e-05
-2.94078e-05
-5.33532e-05
-4.20192e-05
-5.81092e-05
-5.51002e-05
-6.09568e-05
-6.4646e-05
-5.79142e-05
-4.77164e-05
-6.66947e-05
-4.32325e-07
-4.80837e-06
-1.57789e-06
-3.21817e-05
-2.46817e-06
-2.64391e-05
-3.03888e-06
-2.33898e-05
-3.36221e-06
-2.2855e-05
-3.47835e-06
-2.27088e-05
-3.40009e-06
-2.26426e-05
-3.14874e-06
-2.2779e-05
-2.79288e-06
-2.32366e-05
-2.49226e-06
-2.41019e-05
-2.45025e-06
-2.5442e-05
-2.86469e-06
-2.72576e-05
-3.88403e-06
-2.95039e-05
-5.61712e-06
-3.21064e-05
-8.24757e-06
-3.49699e-05
-1.17548e-05
-3.79309e-05
-1.59726e-05
-4.08553e-05
-2.1146e-05
-4.37325e-05
-2.82281e-05
-4.62712e-05
-3.83289e-05
-4.80086e-05
-5.12177e-05
-4.8068e-05
-6.3983e-05
-4.51489e-05
-3.86757e-05
-7.30236e-05
-3.39323e-07
-4.46911e-06
-1.32045e-06
-3.12006e-05
-2.14403e-06
-2.56155e-05
-2.72662e-06
-2.28073e-05
-3.13343e-06
-2.24483e-05
-3.40104e-06
-2.24412e-05
-3.55543e-06
-2.24883e-05
-3.63685e-06
-2.26976e-05
-3.71299e-06
-2.31604e-05
-3.88502e-06
-2.39297e-05
-4.29115e-06
-2.50356e-05
-5.06823e-06
-2.64803e-05
-6.34218e-06
-2.82297e-05
-8.22916e-06
-3.02193e-05
-1.08457e-05
-3.23534e-05
-1.42794e-05
-3.44974e-05
-1.86094e-05
-3.65254e-05
-2.39843e-05
-3.83578e-05
-3.04688e-05
-3.97867e-05
-3.8088e-05
-4.03893e-05
-4.67179e-05
-3.94382e-05
-5.55901e-05
-3.62767e-05
-3.0985e-05
-6.32808e-05
-3.12235e-07
-4.15698e-06
-1.18611e-06
-3.03269e-05
-1.96877e-06
-2.48329e-05
-2.56673e-06
-2.22094e-05
-3.04555e-06
-2.19696e-05
-3.43903e-06
-2.20479e-05
-3.77165e-06
-2.21557e-05
-4.08421e-06
-2.2385e-05
-4.43834e-06
-2.28061e-05
-4.91427e-06
-2.34535e-05
-5.60847e-06
-2.43412e-05
-6.62336e-06
-2.54652e-05
-8.05982e-06
-2.67932e-05
-1.00081e-05
-2.8271e-05
-1.25551e-05
-2.98064e-05
-1.57625e-05
-3.129e-05
-1.96916e-05
-3.25964e-05
-2.44426e-05
-3.36069e-05
-3.0073e-05
-3.41562e-05
-3.64691e-05
-3.39932e-05
-4.32258e-05
-3.26814e-05
-4.96871e-05
-2.98153e-05
-2.54447e-05
-5.52274e-05
-3.15714e-07
-3.84129e-06
-1.12603e-06
-2.95166e-05
-1.88658e-06
-2.40724e-05
-2.50261e-06
-2.15935e-05
-3.0417e-06
-2.14306e-05
-3.53767e-06
-2.1552e-05
-4.01127e-06
-2.16821e-05
-4.49626e-06
-2.18999e-05
-5.04434e-06
-2.22578e-05
-5.72133e-06
-2.27762e-05
-6.60147e-06
-2.34608e-05
-7.76393e-06
-2.43025e-05
-9.29276e-06
-2.52643e-05
-1.12508e-05
-2.6313e-05
-1.37035e-05
-2.73538e-05
-1.66968e-05
-2.82967e-05
-2.0258e-05
-2.90353e-05
-2.44108e-05
-2.9454e-05
-2.91436e-05
-2.94233e-05
-3.436e-05
-2.87768e-05
-3.9792e-05
-2.72493e-05
-4.5008e-05
-2.45993e-05
-2.09303e-05
-4.95224e-05
-3.28493e-07
-3.51283e-06
-1.10768e-06
-2.87375e-05
-1.86057e-06
-2.33196e-05
-2.49382e-06
-2.09603e-05
-3.0808e-06
-2.08437e-05
-3.6559e-06
-2.09769e-05
-4.23695e-06
-2.1101e-05
-4.85193e-06
-2.12847e-05
-5.5411e-06
-2.15683e-05
-6.35662e-06
-2.19604e-05
-7.35874e-06
-2.24584e-05
-8.60999e-06
-2.30512e-05
-1.0159e-05
-2.37152e-05
-1.20782e-05
-2.43938e-05
-1.43999e-05
-2.50321e-05
-1.71529e-05
-2.55437e-05
-2.03516e-05
-2.58366e-05
-2.39857e-05
-2.58197e-05
-2.80129e-05
-2.53961e-05
-3.23236e-05
-2.44661e-05
-3.67097e-05
-2.28631e-05
-4.08926e-05
-2.04163e-05
-1.7225e-05
-4.45978e-05
-3.40742e-07
-3.17211e-06
-1.11066e-06
-2.79675e-05
-1.86263e-06
-2.25677e-05
-2.51036e-06
-2.03126e-05
-3.13339e-06
-2.02207e-05
-3.76604e-06
-2.03442e-05
-4.4245e-06
-2.04424e-05
-5.1295e-06
-2.05794e-05
-5.91565e-06
-2.07819e-05
-6.82224e-06
-2.10535e-05
-7.88968e-06
-2.13908e-05
-9.16875e-06
-2.1772e-05
-1.07126e-05
-2.21714e-05
-1.25448e-05
-2.25615e-05
-1.47048e-05
-2.28721e-05
-1.72079e-05
-2.30406e-05
-2.00389e-05
-2.30055e-05
-2.31892e-05
-2.26693e-05
-2.6608e-05
-2.19771e-05
-3.0205e-05
-2.0869e-05
-3.38203e-05
-1.92479e-05
-3.72634e-05
-1.69731e-05
-1.41305e-05
-4.03579e-05
-3.42777e-07
-2.82932e-06
-1.119e-06
-2.71913e-05
-1.87399e-06
-2.18127e-05
-2.53185e-06
-1.96548e-05
-3.17917e-06
-1.95733e-05
-3.8498e-06
-1.96734e-05
-4.55576e-06
-1.97362e-05
-5.31652e-06
-1.98184e-05
-6.15712e-06
-1.9941e-05
-7.10934e-06
-2.01011e-05
-8.20904e-06
-2.0291e-05
-9.48894e-06
-2.0492e-05
-1.09729e-05
-2.06874e-05
-1.27028e-05
-2.08316e-05
-1.46901e-05
-2.08848e-05
-1.69395e-05
-2.07911e-05
-1.94493e-05
-2.04956e-05
-2.21881e-05
-1.99305e-05
-2.5108e-05
-1.90572e-05
-2.81313e-05
-1.78456e-05
-3.11523e-05
-1.62268e-05
-3.40296e-05
-1.40957e-05
-1.1514e-05
-3.6646e-05
-3.33568e-07
-2.49573e-06
-1.12467e-06
-2.64002e-05
-1.88368e-06
-2.10537e-05
-2.54583e-06
-1.89926e-05
-3.20742e-06
-1.89116e-05
-3.89911e-06
-1.89815e-05
-4.63204e-06
-1.90029e-05
-5.42174e-06
-1.90284e-05
-6.2891e-06
-1.90734e-05
-7.25416e-06
-1.91359e-05
-8.34437e-06
-1.92007e-05
-9.58486e-06
-1.92515e-05
-1.10034e-05
-1.92688e-05
-1.26157e-05
-1.92193e-05
-1.44317e-05
-1.90688e-05
-1.64479e-05
-1.87749e-05
-1.86587e-05
-1.82848e-05
-2.10321e-05
-1.75571e-05
-2.35343e-05
-1.6555e-05
-2.61056e-05
-1.52744e-05
-2.86573e-05
-1.36751e-05
-3.1091e-05
-1.1662e-05
-9.2776e-06
-3.33274e-05
-3.13084e-07
-2.18261e-06
-1.12291e-06
-2.55903e-05
-1.88051e-06
-2.0296e-05
-2.54088e-06
-1.83321e-05
-3.20529e-06
-1.8247e-05
-3.90501e-06
-1.82815e-05
-4.64657e-06
-1.82611e-05
-5.44194e-06
-1.82328e-05
-6.30689e-06
-1.82082e-05
-7.26141e-06
-1.81812e-05
-8.32377e-06
-1.81382e-05
-9.51159e-06
-1.80636e-05
-1.08434e-05
-1.7937e-05
-1.23312e-05
-1.77315e-05
-1.39808e-05
-1.74193e-05
-1.57837e-05
-1.6972e-05
-1.77288e-05
-1.63397e-05
-1.97951e-05
-1.54909e-05
-2.19407e-05
-1.44095e-05
-2.41327e-05
-1.30823e-05
-2.6307e-05
-1.15008e-05
-2.83878e-05
-9.5811e-06
-7.34445e-06
-3.0321e-05
-2.86506e-07
-1.89609e-06
-1.10946e-06
-2.47673e-05
-1.85997e-06
-1.95454e-05
-2.51199e-06
-1.76799e-05
-3.17176e-06
-1.75871e-05
-3.86728e-06
-1.75858e-05
-4.60321e-06
-1.75249e-05
-5.38861e-06
-1.74472e-05
-6.23612e-06
-1.73606e-05
-7.16021e-06
-1.7257e-05
-8.17508e-06
-1.71232e-05
-9.29398e-06
-1.69447e-05
-1.05293e-05
-1.67017e-05
-1.1888e-05
-1.6373e-05
-1.33692e-05
-1.59382e-05
-1.4972e-05
-1.53692e-05
-1.668e-05
-1.46319e-05
-1.84715e-05
-1.36995e-05
-2.03256e-05
-1.25554e-05
-2.22091e-05
-1.11988e-05
-2.4074e-05
-9.63595e-06
-2.58654e-05
-7.78987e-06
-5.65787e-06
-2.75522e-05
-2.53907e-07
-1.64217e-06
-1.07772e-06
-2.39434e-05
-1.81415e-06
-1.88089e-05
-2.45225e-06
-1.70417e-05
-3.09981e-06
-1.69394e-05
-3.78181e-06
-1.69036e-05
-4.50111e-06
-1.68055e-05
-5.26486e-06
-1.66833e-05
-6.08325e-06
-1.65421e-05
-6.96706e-06
-1.63731e-05
-7.92489e-06
-1.61653e-05
-8.96541e-06
-1.59041e-05
-1.00965e-05
-1.55707e-05
-1.13232e-05
-1.51463e-05
-1.26466e-05
-1.4615e-05
-1.40625e-05
-1.39535e-05
-1.55572e-05
-1.31374e-05
-1.71133e-05
-1.21435e-05
-1.87161e-05
-1.09527e-05
-2.03282e-05
-9.58681e-06
-2.19314e-05
-8.03276e-06
-2.34787e-05
-6.2427e-06
-4.1804e-06
-2.49564e-05
-2.16271e-07
-1.42588e-06
-1.02504e-06
-2.31346e-05
-1.73602e-06
-1.80979e-05
-2.35599e-06
-1.64216e-05
-2.98472e-06
-1.63106e-05
-3.64506e-06
-1.62432e-05
-4.33839e-06
-1.61121e-05
-5.07001e-06
-1.59516e-05
-5.84735e-06
-1.57647e-05
-6.67789e-06
-1.55424e-05
-7.56939e-06
-1.52738e-05
-8.5288e-06
-1.49448e-05
-9.56125e-06
-1.45383e-05
-1.06621e-05
-1.40456e-05
-1.18372e-05
-1.344e-05
-1.30808e-05
-1.27099e-05
-1.4383e-05
-1.18353e-05
-1.57309e-05
-1.07956e-05
-1.70978e-05
-9.58587e-06
-1.84837e-05
-8.20091e-06
-1.98585e-05
-6.6581e-06
-2.11927e-05
-4.90852e-06
-2.89256e-06
-2.24806e-05
-1.69754e-07
-1.25609e-06
-9.46567e-07
-2.23578e-05
-1.62528e-06
-1.74191e-05
-2.22139e-06
-1.58255e-05
-2.82512e-06
-1.57069e-05
-3.45682e-06
-1.56115e-05
-4.1172e-06
-1.54517e-05
-4.81027e-06
-1.52584e-05
-5.54143e-06
-1.50334e-05
-6.31585e-06
-1.4768e-05
-7.13855e-06
-1.44511e-05
-8.01333e-06
-1.40702e-05
-8.94164e-06
-1.36102e-05
-9.92571e-06
-1.30617e-05
-1.09617e-05
-1.24042e-05
-1.20468e-05
-1.1625e-05
-1.31721e-05
-1.07102e-05
-1.43223e-05
-9.64566e-06
-1.54959e-05
-8.4124e-06
-1.667e-05
-7.02694e-06
-1.78478e-05
-5.48037e-06
-1.89855e-05
-3.77083e-06
-1.78381e-06
-2.00943e-05
-1.0961e-07
-1.14645e-06
-8.43258e-07
-2.16241e-05
-1.48386e-06
-1.67785e-05
-2.0509e-06
-1.52585e-05
-2.623e-06
-1.51348e-05
-3.21899e-06
-1.50156e-05
-3.83933e-06
-1.48313e-05
-4.48711e-06
-1.46106e-05
-5.16617e-06
-1.43543e-05
-5.88003e-06
-1.40541e-05
-6.63197e-06
-1.36993e-05
-7.42485e-06
-1.32774e-05
-8.25245e-06
-1.27827e-05
-9.12156e-06
-1.21927e-05
-1.00271e-05
-1.14988e-05
-1.0965e-05
-1.06872e-05
-1.19259e-05
-9.74945e-06
-1.29102e-05
-8.66151e-06
-1.38933e-05
-7.42947e-06
-1.48886e-05
-6.03169e-06
-1.58706e-05
-4.49843e-06
-1.68342e-05
-2.80727e-06
-8.40748e-07
-1.77773e-05
-3.01867e-08
-1.11625e-06
-7.18016e-07
-2.09363e-05
-1.32113e-06
-1.61754e-05
-1.85252e-06
-1.47272e-05
-2.38563e-06
-1.46018e-05
-2.9387e-06
-1.44626e-05
-3.51154e-06
-1.42585e-05
-4.10652e-06
-1.40156e-05
-4.72632e-06
-1.37345e-05
-5.37318e-06
-1.34073e-05
-6.0493e-06
-1.30233e-05
-6.75203e-06
-1.25748e-05
-7.48435e-06
-1.20504e-05
-8.24246e-06
-1.14346e-05
-9.02279e-06
-1.07185e-05
-9.81907e-06
-9.89106e-06
-1.06297e-05
-8.93891e-06
-1.1443e-05
-7.84837e-06
-1.226e-05
-6.61247e-06
-1.30777e-05
-5.21393e-06
-1.38837e-05
-3.69236e-06
-1.46799e-05
-2.01104e-06
-7.5919e-08
-1.54447e-05
7.48876e-08
-1.19112e-06
-5.8026e-07
-2.02812e-05
-1.14471e-06
-1.5611e-05
-1.63724e-06
-1.42347e-05
-2.12539e-06
-1.41137e-05
-2.62864e-06
-1.39593e-05
-3.14656e-06
-1.37405e-05
-3.6812e-06
-1.3481e-05
-4.23417e-06
-1.31817e-05
-4.80711e-06
-1.28345e-05
-5.39744e-06
-1.24331e-05
-6.00787e-06
-1.19644e-05
-6.63724e-06
-1.1421e-05
-7.27974e-06
-1.07921e-05
-7.93279e-06
-1.00655e-05
-8.59138e-06
-9.23265e-06
-9.25329e-06
-8.27718e-06
-9.90064e-06
-7.2011e-06
-1.05428e-05
-5.97028e-06
-1.11689e-05
-4.58766e-06
-1.17976e-05
-3.0635e-06
-1.24116e-05
-1.39701e-06
5.08364e-07
-1.29957e-05
1.94821e-07
-1.38595e-06
-4.40724e-07
-1.96457e-05
-9.72173e-07
-1.50797e-05
-1.42022e-06
-1.37867e-05
-1.85894e-06
-1.36749e-05
-2.31027e-06
-1.35078e-05
-2.76896e-06
-1.32817e-05
-3.23547e-06
-1.30145e-05
-3.71302e-06
-1.27042e-05
-4.2022e-06
-1.23454e-05
-4.70326e-06
-1.1932e-05
-5.21227e-06
-1.14553e-05
-5.72922e-06
-1.09039e-05
-6.24918e-06
-1.0272e-05
-6.76746e-06
-9.5473e-06
-7.27799e-06
-8.7223e-06
-7.77415e-06
-7.78115e-06
-8.25341e-06
-6.72188e-06
-8.70643e-06
-5.51722e-06
-9.13247e-06
-4.16158e-06
-9.54304e-06
-2.65293e-06
-9.9247e-06
-1.01539e-06
8.53174e-07
-1.02695e-05
3.29323e-07
-1.71532e-06
-3.09826e-07
-1.90067e-05
-8.13227e-07
-1.45764e-05
-1.21755e-06
-1.33824e-05
-1.60767e-06
-1.32847e-05
-2.00307e-06
-1.31123e-05
-2.40152e-06
-1.28832e-05
-2.80304e-06
-1.2613e-05
-3.20676e-06
-1.23005e-05
-3.61168e-06
-1.19405e-05
-4.01839e-06
-1.15251e-05
-4.42583e-06
-1.10475e-05
-4.82608e-06
-1.05034e-05
-5.22137e-06
-9.87669e-06
-5.59722e-06
-9.17153e-06
-5.95647e-06
-8.36314e-06
-6.2781e-06
-7.45952e-06
-6.56616e-06
-6.43376e-06
-6.803e-06
-5.28036e-06
-6.98751e-06
-3.97712e-06
-7.11475e-06
-2.52579e-06
-7.19234e-06
-9.37873e-07
8.52274e-07
-7.1915e-06
4.76509e-07
-2.19191e-06
-1.95208e-07
-1.83352e-05
-6.81918e-07
-1.40898e-05
-1.04386e-06
-1.30204e-05
-1.39051e-06
-1.29379e-05
-1.74216e-06
-1.27605e-05
-2.08943e-06
-1.25359e-05
-2.43156e-06
-1.22709e-05
-2.76858e-06
-1.19635e-05
-3.09947e-06
-1.16095e-05
-3.42203e-06
-1.12023e-05
-3.73321e-06
-1.07361e-05
-4.03061e-06
-1.02059e-05
-4.30305e-06
-9.60432e-06
-4.54996e-06
-8.92475e-06
-4.75005e-06
-8.16308e-06
-4.9043e-06
-7.3052e-06
-4.99601e-06
-6.34196e-06
-5.01082e-06
-5.26554e-06
-4.92692e-06
-4.06111e-06
-4.73545e-06
-2.71734e-06
-4.44052e-06
-1.23284e-06
4.21362e-07
-4.00964e-06
6.32475e-07
-2.82451e-06
-1.03271e-07
-1.75997e-05
-5.85764e-07
-1.36073e-05
-9.15796e-07
-1.26903e-05
-1.23279e-06
-1.26208e-05
-1.55139e-06
-1.24418e-05
-1.86116e-06
-1.22261e-05
-2.16067e-06
-1.19714e-05
-2.44861e-06
-1.16756e-05
-2.72391e-06
-1.1334e-05
-2.98423e-06
-1.09418e-05
-3.2238e-06
-1.04964e-05
-3.43914e-06
-9.99063e-06
-3.61725e-06
-9.42638e-06
-3.75122e-06
-8.7909e-06
-3.83227e-06
-8.08201e-06
-3.84171e-06
-7.2957e-06
-3.75984e-06
-6.42386e-06
-3.56753e-06
-5.45798e-06
-3.24061e-06
-4.38814e-06
-2.75227e-06
-3.20572e-06
-2.07137e-06
-1.91378e-06
-4.73257e-07
-1.17685e-06
7.82766e-07
-3.60744e-06
-3.64391e-08
-1.67807e-05
-5.24395e-07
-1.31194e-05
-8.3329e-07
-1.23813e-05
-1.13527e-06
-1.23187e-05
-1.43532e-06
-1.21417e-05
-1.72313e-06
-1.19383e-05
-1.99825e-06
-1.16962e-05
-2.25919e-06
-1.14145e-05
-2.50355e-06
-1.10895e-05
-2.72682e-06
-1.07183e-05
-2.92559e-06
-1.02977e-05
-3.09022e-06
-9.82616e-06
-3.21437e-06
-9.30237e-06
-3.28475e-06
-8.72051e-06
-3.28232e-06
-8.08436e-06
-3.19383e-06
-7.38421e-06
-2.9967e-06
-6.62118e-06
-2.66255e-06
-5.79233e-06
-2.15516e-06
-4.89557e-06
-1.43718e-06
-3.92362e-06
-4.75183e-07
-2.87576e-06
-1.73751e-06
7.88918e-07
9.05062e-07
-4.51267e-06
-2.41777e-09
-1.58734e-05
-4.88218e-07
-1.26336e-05
-7.8366e-07
-1.20858e-05
-1.08407e-06
-1.20182e-05
-1.37422e-06
-1.18516e-05
-1.65194e-06
-1.16607e-05
-1.9167e-06
-1.14315e-05
-2.16624e-06
-1.11649e-05
-2.39821e-06
-1.08574e-05
-2.60895e-06
-1.05076e-05
-2.79184e-06
-1.0115e-05
-2.93913e-06
-9.67907e-06
-3.04125e-06
-9.20032e-06
-3.08126e-06
-8.68041e-06
-3.04811e-06
-8.11747e-06
-2.91955e-06
-7.51291e-06
-2.67123e-06
-6.86975e-06
-2.27216e-06
-6.19151e-06
-1.68595e-06
-5.48165e-06
-8.66668e-07
-4.74273e-06
2.3444e-07
-3.97688e-06
-3.19088e-06
1.68762e-06
9.90343e-07
-5.50312e-06
1.36045e-08
-1.48967e-05
-4.60277e-07
-1.21597e-05
-7.45018e-07
-1.18011e-05
-1.0432e-06
-1.17201e-05
-1.32636e-06
-1.15686e-05
-1.59848e-06
-1.13887e-05
-1.85735e-06
-1.11726e-05
-2.10231e-06
-1.09198e-05
-2.33074e-06
-1.06289e-05
-2.5383e-06
-1.03002e-05
-2.71875e-06
-9.9348e-06
-2.86365e-06
-9.53437e-06
-2.96242e-06
-9.10159e-06
-3.00321e-06
-8.63958e-06
-2.96951e-06
-8.15127e-06
-2.84125e-06
-7.64141e-06
-2.59361e-06
-7.11757e-06
-2.19681e-06
-6.58824e-06
-1.61449e-06
-6.06377e-06
-8.01663e-07
-5.5555e-06