/*--------------------------------*- C++ -*----------------------------------*\
| =========                 |                                                 |
| \\      /  F ield         | OpenFOAM: The Open Source CFD Toolbox           |
|  \\    /   O peration     | Version:  5.x                                   |
|   \\  /    A nd           | Web:      www.OpenFOAM.org                      |
|    \\/     M anipulation  |                                                 |
\*---------------------------------------------------------------------------*/
FoamFile
{
    version     2.0;
    format      ascii;
    class       volVectorField;
    location    "0.45";
    object      U;
}
// * * * * * * * * * * * * * * * * * * * * * * * * * * * * * * * * * * * * * //

dimensions      [0 1 -1 0 0 0 0];

internalField   nonuniform List<vector> 
2268
(
(-0.0357584 0.0104073 0)
(-0.0579577 0.00188794 0)
(-0.0359695 -0.00909353 0)
(0.0183248 -0.0148801 0)
(0.0879237 -0.0169059 0)
(0.157694 -0.0156616 0)
(0.219137 -0.0126921 0)
(0.266946 -0.00936761 0)
(0.300648 -0.00640787 0)
(0.32269 -0.00403855 0)
(0.335985 -0.00221702 0)
(0.342601 -0.000766443 0)
(0.343775 0.000910316 0)
(0.33761 0.00325552 0)
(0.321816 0.00700979 0)
(0.291826 0.0129254 0)
(0.240592 0.0213289 0)
(0.161471 0.0296923 0)
(0.0457962 0.026189 0)
(-0.0282679 0.0105728 0)
(-0.14852 0.028685 0)
(-0.229359 0.00663639 0)
(-0.0716183 -0.056667 0)
(-0.0431372 0.0311166 0)
(-0.0546874 0.00289788 0)
(-0.0322311 -0.0279856 0)
(0.0231553 -0.044977 0)
(0.0926218 -0.0509017 0)
(0.161664 -0.0471085 0)
(0.221985 -0.0382346 0)
(0.268708 -0.028351 0)
(0.301747 -0.0196047 0)
(0.323699 -0.0126388 0)
(0.337438 -0.00729767 0)
(0.345139 -0.00306486 0)
(0.347897 0.000955341 0)
(0.348216 0.00573412 0)
(0.346843 0.0123925 0)
(0.343747 0.022685 0)
(0.335329 0.0385091 0)
(0.310634 0.060214 0)
(0.234682 0.0753356 0)
(0.117289 0.0734078 0)
(-0.0943852 0.0669836 0)
(-0.149351 -0.0147404 0)
(-0.00508548 -0.129431 0)
(-0.0391812 0.0512623 0)
(-0.048784 0.00245785 0)
(-0.0243477 -0.047212 0)
(0.0309883 -0.0748576 0)
(0.0988983 -0.0842049 0)
(0.165858 -0.0775908 0)
(0.223522 -0.0627284 0)
(0.267633 -0.0463887 0)
(0.298785 -0.0321225 0)
(0.319856 -0.020898 0)
(0.333666 -0.0123643 0)
(0.342105 -0.00565525 0)
(0.346146 0.000122528 0)
(0.346017 0.006127 0)
(0.341744 0.0135098 0)
(0.334036 0.0242977 0)
(0.325482 0.0416839 0)
(0.321755 0.0705039 0)
(0.310096 0.106402 0)
(0.258807 0.135119 0)
(0.112877 0.130747 0)
(-0.00445316 0.011718 0)
(0.0563928 -0.144341 0)
(-0.0341488 0.0687612 0)
(-0.0394957 0.00103667 0)
(-0.0131126 -0.0664615 0)
(0.0406143 -0.104208 0)
(0.105728 -0.116386 0)
(0.170008 -0.106698 0)
(0.224448 -0.0857747 0)
(0.265348 -0.063236 0)
(0.294218 -0.0439687 0)
(0.31438 -0.0290538 0)
(0.32856 -0.0177982 0)
(0.338308 -0.00894731 0)
(0.344257 -0.00114671 0)
(0.346394 0.00691259 0)
(0.34437 0.0165513 0)
(0.337839 0.02916 0)
(0.327379 0.0466145 0)
(0.317189 0.0730326 0)
(0.318684 0.113198 0)
(0.325175 0.162925 0)
(0.276324 0.178944 0)
(0.175941 0.0609806 0)
(0.124281 -0.093945 0)
(-0.0286823 0.0822853 0)
(-0.0260754 -0.00252401 0)
(0.000871203 -0.0845602 0)
(0.0507448 -0.131757 0)
(0.111715 -0.146817 0)
(0.172815 -0.134128 0)
(0.223971 -0.10709 0)
(0.261672 -0.0785838 0)
(0.288381 -0.054905 0)
(0.307923 -0.0370105 0)
(0.322886 -0.0236425 0)
(0.3344 -0.0130668 0)
(0.342679 -0.00357739 0)
(0.34742 0.00636684 0)
(0.348206 0.0180825 0)
(0.344784 0.0327585 0)
(0.337527 0.0516515 0)
(0.327111 0.0763041 0)
(0.320672 0.110132 0)
(0.335586 0.159679 0)
(0.347466 0.19347 0)
(0.281303 0.118776 0)
(0.174874 -0.0159279 0)
(-0.0217827 0.0908586 0)
(-0.00759047 -0.00860442 0)
(0.0187465 -0.101445 0)
(0.0645171 -0.157497 0)
(0.119786 -0.175791 0)
(0.175666 -0.16027 0)
(0.222391 -0.127248 0)
(0.256625 -0.0931583 0)
(0.2815 -0.0656139 0)
(0.301072 -0.0452673 0)
(0.317528 -0.030187 0)
(0.33142 -0.0181331 0)
(0.342484 -0.00711303 0)
(0.350042 0.00447714 0)
(0.353482 0.0180756 0)
(0.35267 0.0346453 0)
(0.348335 0.055106 0)
(0.341519 0.080229 0)
(0.333099 0.109554 0)
(0.333678 0.148798 0)
(0.357501 0.190638 0)
(0.321917 0.167876 0)
(0.203203 0.0934785 0)
(-0.012538 0.0934665 0)
(0.0163009 -0.0203444 0)
(0.0463689 -0.119207 0)
(0.0919041 -0.181481 0)
(0.139236 -0.202167 0)
(0.184684 -0.183684 0)
(0.223287 -0.145089 0)
(0.252388 -0.106577 0)
(0.274939 -0.0765487 0)
(0.294586 -0.0547846 0)
(0.312787 -0.03853 0)
(0.329372 -0.025091 0)
(0.343553 -0.0122422 0)
(0.354374 0.00162594 0)
(0.360816 0.0172707 0)
(0.362489 0.0353218 0)
(0.360214 0.0568566 0)
(0.35549 0.082934 0)
(0.349853 0.112309 0)
(0.34175 0.145169 0)
(0.352635 0.188819 0)
(0.334144 0.20923 0)
(0.233067 0.205891 0)
(-0.00111276 0.0884648 0)
(0.0438708 -0.0333976 0)
(0.0924673 -0.137406 0)
(0.142566 -0.201008 0)
(0.177305 -0.221684 0)
(0.204822 -0.200418 0)
(0.231058 -0.157156 0)
(0.253718 -0.115259 0)
(0.273607 -0.0841102 0)
(0.292899 -0.0624551 0)
(0.312017 -0.0464929 0)
(0.330165 -0.0330587 0)
(0.346293 -0.0196128 0)
(0.359299 -0.0038941 0)
(0.36829 0.0153095 0)
(0.372849 0.0363224 0)
(0.373466 0.0592318 0)
(0.370654 0.0850103 0)
(0.367203 0.114095 0)
(0.359996 0.145117 0)
(0.357241 0.18938 0)
(0.348604 0.245518 0)
(0.228518 0.353898 0)
(0.107677 -0.0752025 0)
(0.815736 -0.201945 0)
(1.53506 -0.0640691 0)
(1.69737 0.0873092 0)
(1.19251 0.127904 0)
(0.622825 0.0654375 0)
(0.390012 0.0233172 0)
(0.293725 0.0227696 0)
(0.170064 0.0273524 0)
(0.0366506 0.0285334 0)
(-0.0926362 0.0282915 0)
(-0.22313 0.0290228 0)
(-0.360374 0.0302223 0)
(-0.508227 0.0315028 0)
(-0.658133 0.0280373 0)
(-0.754219 0.00858433 0)
(-0.696092 -0.0300526 0)
(-0.458878 -0.0700046 0)
(-0.147479 -0.0646919 0)
(0.155242 -0.237581 0)
(0.786147 -0.618831 0)
(1.49407 -0.238785 0)
(1.87436 0.180894 0)
(1.58167 0.329825 0)
(0.968605 0.233175 0)
(0.552862 0.128327 0)
(0.333535 0.0963946 0)
(0.160371 0.0891911 0)
(0.014348 0.0847646 0)
(-0.11246 0.0824504 0)
(-0.240297 0.0853269 0)
(-0.376807 0.0903335 0)
(-0.527051 0.0955242 0)
(-0.680936 0.0866058 0)
(-0.777663 0.0305908 0)
(-0.728389 -0.085307 0)
(-0.482124 -0.207473 0)
(-0.151689 -0.192085 0)
(0.29499 -0.426424 0)
(0.616519 -0.95341 0)
(1.21229 -0.47927 0)
(1.67621 0.237109 0)
(1.49317 0.521696 0)
(0.916728 0.411067 0)
(0.504734 0.261879 0)
(0.290651 0.18643 0)
(0.135284 0.153194 0)
(0.00888603 0.138401 0)
(-0.106325 0.133964 0)
(-0.228966 0.14021 0)
(-0.364144 0.150248 0)
(-0.518746 0.161336 0)
(-0.692693 0.150753 0)
(-0.825799 0.0601604 0)
(-0.795922 -0.141474 0)
(-0.53099 -0.358087 0)
(-0.161806 -0.327192 0)
(0.417784 -0.642998 0)
(0.363781 -1.1098 0)
(0.708989 -0.752904 0)
(1.17455 0.0534364 0)
(1.20597 0.61635 0)
(0.74226 0.570191 0)
(0.41291 0.386436 0)
(0.251857 0.265483 0)
(0.12446 0.209003 0)
(0.00877404 0.187636 0)
(-0.103246 0.183655 0)
(-0.224745 0.19497 0)
(-0.36042 0.211221 0)
(-0.520017 0.231604 0)
(-0.718489 0.227446 0)
(-0.898581 0.107195 0)
(-0.900784 -0.194219 0)
(-0.607459 -0.528811 0)
(-0.176465 -0.477427 0)
(0.404636 -0.790924 0)
(0.16392 -1.15025 0)
(0.410755 -0.813029 0)
(0.82466 0.0422637 0)
(0.825254 0.679755 0)
(0.517749 0.686697 0)
(0.321235 0.480694 0)
(0.218132 0.325034 0)
(0.1132 0.25766 0)
(0.00518999 0.235303 0)
(-0.101787 0.232289 0)
(-0.219703 0.249437 0)
(-0.353466 0.273056 0)
(-0.515907 0.306768 0)
(-0.745459 0.320733 0)
(-0.995364 0.182245 0)
(-1.04699 -0.23818 0)
(-0.709501 -0.731215 0)
(-0.19352 -0.651354 0)
(0.304842 -0.890475 0)
(-0.171443 -1.11241 0)
(-0.0264442 -0.871385 0)
(0.393659 0.0730305 0)
(0.436921 0.699678 0)
(0.294085 0.746478 0)
(0.237165 0.534053 0)
(0.183493 0.366476 0)
(0.0980867 0.298005 0)
(-0.00102613 0.276842 0)
(-0.0998721 0.27728 0)
(-0.211513 0.303106 0)
(-0.341047 0.334479 0)
(-0.502215 0.386453 0)
(-0.767146 0.43502 0)
(-1.11275 0.295874 0)
(-1.2226 -0.276078 0)
(-0.800592 -0.974772 0)
(-0.203866 -0.83833 0)
(0.146868 -0.80547 0)
(-0.740665 -0.942189 0)
(-0.38716 -1.00608 0)
(-0.12152 -0.0433942 0)
(0.0902425 0.669378 0)
(0.111352 0.747304 0)
(0.164393 0.548068 0)
(0.145156 0.394659 0)
(0.0795679 0.339213 0)
(-0.0071125 0.323053 0)
(-0.0943383 0.322703 0)
(-0.199009 0.353323 0)
(-0.32193 0.394285 0)
(-0.473314 0.470249 0)
(-0.77166 0.573309 0)
(-1.23213 0.449929 0)
(-1.36867 -0.3185 0)
(-0.800196 -1.23997 0)
(-0.204411 -1.02444 0)
(0.145139 -0.674249 0)
(-0.75333 -0.94468 0)
(-0.56675 -0.971501 0)
(-0.448591 -0.175774 0)
(-0.156853 0.587763 0)
(-0.0134885 0.705368 0)
(0.109461 0.536755 0)
(0.114139 0.409845 0)
(0.0678026 0.360055 0)
(-0.00946417 0.344104 0)
(-0.0848403 0.353599 0)
(-0.179501 0.40354 0)
(-0.290532 0.450947 0)
(-0.418023 0.553466 0)
(-0.738127 0.730063 0)
(-1.30879 0.624784 0)
(-1.37691 -0.374231 0)
(-0.70933 -1.58496 0)
(-0.214577 -1.28342 0)
(0.0183906 0.0555437 0)
(0.101689 -0.0687443 0)
(0.195761 -0.172827 0)
(0.247626 -0.224557 0)
(0.247944 -0.235634 0)
(0.238351 -0.212664 0)
(0.245401 -0.17057 0)
(0.26238 -0.128571 0)
(0.283075 -0.0964606 0)
(0.305761 -0.0736631 0)
(0.328217 -0.0562392 0)
(0.348392 -0.0413373 0)
(0.364924 -0.0275679 0)
(0.377098 -0.0135472 0)
(0.384417 0.00272363 0)
(0.388096 0.0256562 0)
(0.390179 0.0544359 0)
(0.390845 0.0865435 0)
(0.39101 0.119818 0)
(0.393512 0.152824 0)
(0.39634 0.194755 0)
(0.436763 0.24833 0)
(0.468616 0.411404 0)
(0.0406148 -0.0362542 0)
(0.197787 -0.17947 0)
(0.338736 -0.257777 0)
(0.369894 -0.254661 0)
(0.304037 -0.23236 0)
(0.245444 -0.213035 0)
(0.233824 -0.190824 0)
(0.249621 -0.164484 0)
(0.278862 -0.139226 0)
(0.314717 -0.116552 0)
(0.350687 -0.0939842 0)
(0.381905 -0.0688317 0)
(0.404149 -0.0403988 0)
(0.416064 -0.0105031 0)
(0.421649 0.0203393 0)
(0.424066 0.0443689 0)
(0.422201 0.0643115 0)
(0.419287 0.085002 0)
(0.419103 0.105919 0)
(0.428429 0.131978 0)
(0.44505 0.167175 0)
(0.484019 0.199911 0)
(0.545777 0.257497 0)
(0.076822 -0.167332 0)
(0.259336 -0.370634 0)
(0.378156 -0.371754 0)
(0.299241 -0.193639 0)
(0.157591 -0.133057 0)
(0.104044 -0.155132 0)
(0.0864322 -0.174323 0)
(0.0894602 -0.178151 0)
(0.115722 -0.171318 0)
(0.155693 -0.158534 0)
(0.205646 -0.140473 0)
(0.259402 -0.117507 0)
(0.313641 -0.0899344 0)
(0.370496 -0.0571261 0)
(0.430958 -0.0224142 0)
(0.461466 0.00870323 0)
(0.464051 0.0490458 0)
(0.445323 0.0948417 0)
(0.426884 0.119897 0)
(0.429234 0.134142 0)
(0.44877 0.14897 0)
(0.477022 0.157632 0)
(0.517021 0.158378 0)
(0.0596329 -0.433505 0)
(0.125228 -0.544924 0)
(0.0670105 -0.282076 0)
(-0.0867526 0.0164571 0)
(-0.112597 -0.024311 0)
(-0.0951145 -0.104958 0)
(-0.152657 -0.124432 0)
(-0.208673 -0.141165 0)
(-0.266913 -0.148094 0)
(-0.328486 -0.142 0)
(-0.38514 -0.123737 0)
(-0.460663 -0.106468 0)
(-0.516484 -0.125795 0)
(-0.457854 -0.162265 0)
(0.0167239 -0.0690982 0)
(0.248493 0.0137986 0)
(0.362353 0.0693586 0)
(0.410418 0.106262 0)
(0.452394 0.109913 0)
(0.47953 0.115275 0)
(0.487996 0.128985 0)
(0.493556 0.128725 0)
(0.509695 0.124285 0)
(-0.0628827 -0.439178 0)
(-0.163614 -0.177102 0)
(-0.196254 -0.0569241 0)
(-0.175604 -0.0568837 0)
(-0.095878 -0.103153 0)
(-0.083342 -0.106618 0)
(-0.0915275 -0.0946119 0)
(-0.108888 -0.10292 0)
(-0.134074 -0.104035 0)
(-0.149094 -0.104046 0)
(-0.145914 -0.0904594 0)
(-0.149217 -0.0750704 0)
(-0.261894 -0.158304 0)
(-0.467693 -0.374117 0)
(-0.559482 -0.533865 0)
(-0.511738 -0.28408 0)
(-0.364405 -0.0534147 0)
(-0.0560805 0.0426725 0)
(0.24891 0.055313 0)
(0.380134 0.0889645 0)
(0.442115 0.124016 0)
(0.497267 0.137967 0)
(0.531212 0.141452 0)
(-0.116389 -0.2294 0)
(-0.158611 -0.311319 0)
(-0.148179 -0.239537 0)
(-0.102303 -0.147849 0)
(-0.0914191 -0.119397 0)
(-0.0900359 -0.107612 0)
(-0.0945531 -0.0950545 0)
(-0.103961 -0.0875529 0)
(-0.112802 -0.0904348 0)
(-0.111333 -0.100553 0)
(-0.0939141 -0.078946 0)
(-0.0579722 0.011673 0)
(-0.0975747 0.0973315 0)
(-0.222254 -0.024506 0)
(-0.208618 -0.317035 0)
(-0.157036 -0.432244 0)
(-0.0929314 -0.324873 0)
(0.0160524 -0.414643 0)
(0.0367056 -0.325183 0)
(0.140159 -0.0421228 0)
(0.068296 0.0470786 0)
(0.316269 0.0534953 0)
(0.427022 0.0930647 0)
(-0.0677358 -0.162034 0)
(-0.0641356 -0.28414 0)
(-0.0944167 -0.197075 0)
(-0.0868036 -0.146583 0)
(-0.0866981 -0.121771 0)
(-0.0827401 -0.107508 0)
(-0.0837755 -0.0931403 0)
(-0.085039 -0.0866666 0)
(-0.0865326 -0.094445 0)
(-0.0884365 -0.110476 0)
(-0.0863209 -0.107489 0)
(-0.062047 -0.0561233 0)
(-0.00292645 0.00123359 0)
(-0.0191638 -0.0789325 0)
(-0.00178847 -0.320682 0)
(-0.0541082 -0.393042 0)
(-0.0568798 -0.300518 0)
(0.00566949 -0.28363 0)
(0.0777154 -0.250039 0)
(0.250823 -0.146627 0)
(0.439371 0.0750613 0)
(0.610891 -0.223799 0)
(0.474774 -0.0766287 0)
(-0.0327464 -0.105318 0)
(-0.0433541 -0.242562 0)
(-0.0694306 -0.179216 0)
(-0.0697901 -0.145484 0)
(-0.0683174 -0.124718 0)
(-0.0642851 -0.110091 0)
(-0.0610944 -0.0943481 0)
(-0.0583562 -0.0843928 0)
(-0.0582614 -0.0876197 0)
(-0.0628883 -0.101923 0)
(-0.0674875 -0.108912 0)
(-0.0519958 -0.0842104 0)
(0.0103422 -0.0306973 0)
(0.0633899 -0.0682198 0)
(0.0962793 -0.272842 0)
(0.0169162 -0.350617 0)
(-0.013554 -0.335957 0)
(0.00565612 -0.396223 0)
(0.0729551 -0.394455 0)
(0.1587 -0.385596 0)
(0.335676 -0.299772 0)
(0.548663 -0.118161 0)
(0.660385 0.154403 0)
(-0.0176383 -0.0753372 0)
(-0.0352084 -0.229802 0)
(-0.0502401 -0.176201 0)
(-0.0519038 -0.142922 0)
(-0.0525642 -0.126854 0)
(-0.0498477 -0.114018 0)
(-0.0453433 -0.0996355 0)
(-0.0391887 -0.0883043 0)
(-0.0343543 -0.0874073 0)
(-0.034111 -0.0978326 0)
(-0.0360306 -0.111511 0)
(-0.0289248 -0.119485 0)
(0.00436203 -0.119116 0)
(0.0751062 -0.150946 0)
(0.0947275 -0.246753 0)
(0.0611543 -0.304427 0)
(0.0410925 -0.323805 0)
(0.034869 -0.383218 0)
(0.0539759 -0.439475 0)
(0.0918296 -0.451624 0)
(0.14481 -0.427141 0)
(0.250308 -0.317674 0)
(0.438403 -0.0379109 0)
(-0.0083542 -0.05386 0)
(-0.023063 -0.213924 0)
(-0.0361201 -0.168972 0)
(-0.0392251 -0.140073 0)
(-0.0404051 -0.127331 0)
(-0.0386033 -0.117301 0)
(-0.0338128 -0.10614 0)
(-0.025571 -0.0963436 0)
(-0.0161035 -0.093313 0)
(-0.008795 -0.0999399 0)
(-0.00370625 -0.113448 0)
(0.00402007 -0.131675 0)
(0.0182238 -0.153889 0)
(0.0513562 -0.184383 0)
(0.0646588 -0.244759 0)
(0.0537174 -0.291599 0)
(0.0361929 -0.323886 0)
(0.0278326 -0.379866 0)
(0.00418741 -0.44653 0)
(-0.0100961 -0.463021 0)
(-0.00606175 -0.441287 0)
(-0.0153355 -0.380815 0)
(0.0648553 -0.197835 0)
(-0.00332431 -0.0409559 0)
(-0.0148245 -0.201139 0)
(-0.0261221 -0.161671 0)
(-0.0296755 -0.136944 0)
(-0.031109 -0.127358 0)
(-0.0299757 -0.120315 0)
(-0.0258941 -0.112901 0)
(-0.0181616 -0.106339 0)
(-0.00775457 -0.103961 0)
(0.00272805 -0.10889 0)
(0.01159 -0.12129 0)
(0.0198518 -0.139889 0)
(0.0269637 -0.164967 0)
(0.0354686 -0.195373 0)
(0.0378462 -0.238519 0)
(0.0223571 -0.274271 0)
(0.00199519 -0.306884 0)
(-0.0196754 -0.355179 0)
(-0.0629612 -0.414921 0)
(-0.103039 -0.447383 0)
(-0.127759 -0.435168 0)
(-0.155466 -0.371526 0)
(-0.169043 -0.236281 0)
(-0.000693518 -0.034023 0)
(-0.00993259 -0.191342 0)
(-0.0191913 -0.155572 0)
(-0.0227108 -0.133809 0)
(-0.0245102 -0.12681 0)
(-0.0241548 -0.122314 0)
(-0.021501 -0.118049 0)
(-0.0159803 -0.114813 0)
(-0.0078028 -0.114459 0)
(0.00139216 -0.119236 0)
(0.00952683 -0.130116 0)
(0.0154049 -0.146602 0)
(0.0180594 -0.168071 0)
(0.0173031 -0.194071 0)
(0.00849967 -0.224758 0)
(-0.00951276 -0.253846 0)
(-0.0307046 -0.280986 0)
(-0.0618911 -0.316834 0)
(-0.112786 -0.366776 0)
(-0.169881 -0.41 0)
(-0.214297 -0.419449 0)
(-0.229832 -0.366164 0)
(-0.22294 -0.261826 0)
(0.000557974 -0.029732 0)
(-0.00683843 -0.183185 0)
(-0.0145989 -0.149932 0)
(-0.0180952 -0.13077 0)
(-0.0201311 -0.125768 0)
(-0.0205695 -0.123168 0)
(-0.0193996 -0.121073 0)
(-0.0164058 -0.120206 0)
(-0.0116487 -0.121631 0)
(-0.00603921 -0.126607 0)
(-0.00124256 -0.13589 0)
(0.00112878 -0.149434 0)
(0.000187157 -0.166693 0)
(-0.00509712 -0.18666 0)
(-0.0161409 -0.209972 0)
(-0.0334868 -0.233075 0)
(-0.0549199 -0.254617 0)
(-0.0826687 -0.278797 0)
(-0.126205 -0.311165 0)
(-0.190608 -0.347518 0)
(-0.267825 -0.370764 0)
(-0.334164 -0.34772 0)
(-0.363208 -0.266241 0)
(0.000884468 -0.0270957 0)
(-0.00505668 -0.176457 0)
(-0.0116496 -0.144921 0)
(-0.0151045 -0.127704 0)
(-0.0174074 -0.124241 0)
(-0.0185701 -0.122974 0)
(-0.0186508 -0.1222 0)
(-0.0177231 -0.122622 0)
(-0.0159671 -0.124962 0)
(-0.0139348 -0.129833 0)
(-0.012688 -0.137687 0)
(-0.013409 -0.148552 0)
(-0.0170396 -0.162097 0)
(-0.0241963 -0.177877 0)
(-0.035697 -0.195473 0)
(-0.0521458 -0.213629 0)
(-0.0729823 -0.231344 0)
(-0.0978332 -0.249031 0)
(-0.12956 -0.266311 0)
(-0.175702 -0.281625 0)
(-0.240771 -0.290428 0)
(-0.314249 -0.280683 0)
(-0.374122 -0.242694 0)
(0.000777078 -0.0251133 0)
(-0.00412123 -0.170798 0)
(-0.00986922 -0.140327 0)
(-0.0133188 -0.124595 0)
(-0.0158765 -0.122248 0)
(-0.0176692 -0.121894 0)
(-0.0187603 -0.121901 0)
(-0.0193236 -0.122902 0)
(-0.0196384 -0.125451 0)
(-0.0201444 -0.129887 0)
(-0.0214959 -0.136434 0)
(-0.0244726 -0.145111 0)
(-0.0297741 -0.155742 0)
(-0.0380996 -0.167946 0)
(-0.0500359 -0.181238 0)
(-0.0661352 -0.194776 0)
(-0.0868557 -0.207989 0)
(-0.113012 -0.220614 0)
(-0.145282 -0.231065 0)
(-0.183787 -0.236225 0)
(-0.228485 -0.231363 0)
(-0.276387 -0.213005 0)
(-0.321091 -0.182845 0)
(0.000533161 -0.0233687 0)
(-0.00369735 -0.165851 0)
(-0.00889024 -0.136017 0)
(-0.0123535 -0.12141 0)
(-0.0151524 -0.11984 0)
(-0.0174772 -0.120078 0)
(-0.0193906 -0.120534 0)
(-0.0210562 -0.121744 0)
(-0.0227576 -0.124143 0)
(-0.0248755 -0.127958 0)
(-0.0278871 -0.133293 0)
(-0.0323232 -0.140141 0)
(-0.0387177 -0.148319 0)
(-0.047704 -0.157537 0)
(-0.0597179 -0.167265 0)
(-0.0750853 -0.17686 0)
(-0.0942341 -0.185599 0)
(-0.117627 -0.19298 0)
(-0.145757 -0.19829 0)
(-0.178714 -0.200025 0)
(-0.214977 -0.195134 0)
(-0.250951 -0.179985 0)
(-0.283038 -0.153922 0)
(0.000274977 -0.0216594 0)
(-0.00355381 -0.16135 0)
(-0.00842581 -0.13187 0)
(-0.0119129 -0.118134 0)
(-0.0149301 -0.117079 0)
(-0.0176909 -0.11765 0)
(-0.0202679 -0.11832 0)
(-0.0227915 -0.11954 0)
(-0.0254958 -0.12164 0)
(-0.0286961 -0.124764 0)
(-0.0327868 -0.128959 0)
(-0.0381564 -0.13419 0)
(-0.0452457 -0.140273 0)
(-0.0545416 -0.146969 0)
(-0.0663601 -0.153793 0)
(-0.0809601 -0.160206 0)
(-0.0986129 -0.165582 0)
(-0.119448 -0.169295 0)
(-0.143516 -0.170482 0)
(-0.170631 -0.167997 0)
(-0.199802 -0.160108 0)
(-0.228686 -0.145414 0)
(-0.254769 -0.124477 0)
(7.37408e-05 -0.0198931 0)
(-0.00353706 -0.157094 0)
(-0.0082703 -0.1278 0)
(-0.0117808 -0.114764 0)
(-0.0149868 -0.11403 0)
(-0.0180876 -0.114737 0)
(-0.0211713 -0.115438 0)
(-0.0243465 -0.116529 0)
(-0.0277979 -0.118254 0)
(-0.0317664 -0.120686 0)
(-0.0365825 -0.123832 0)
(-0.0425327 -0.127636 0)
(-0.0499682 -0.131937 0)
(-0.0592651 -0.136493 0)
(-0.0706366 -0.140914 0)
(-0.0842585 -0.144717 0)
(-0.100316 -0.147387 0)
(-0.118782 -0.148379 0)
(-0.139521 -0.147129 0)
(-0.162202 -0.142963 0)
(-0.185922 -0.134734 0)
(-0.209066 -0.121262 0)
(-0.230147 -0.103059 0)
(-4.0456e-05 -0.0180645 0)
(-0.00355707 -0.152939 0)
(-0.00828122 -0.123753 0)
(-0.0118011 -0.111309 0)
(-0.0151577 -0.110759 0)
(-0.0185078 -0.111461 0)
(-0.0219546 -0.112066 0)
(-0.0255864 -0.112933 0)
(-0.0295511 -0.114234 0)
(-0.0340356 -0.115998 0)
(-0.0393003 -0.118214 0)
(-0.0455534 -0.120782 0)
(-0.0530614 -0.123577 0)
(-0.0621155 -0.126383 0)
(-0.0728403 -0.12885 0)
(-0.0853565 -0.130595 0)
(-0.0997619 -0.131225 0)
(-0.115933 -0.130213 0)
(-0.133692 -0.127175 0)
(-0.152739 -0.121694 0)
(-0.17236 -0.113084 0)
(-0.19138 -0.10051 0)
(-0.208792 -0.084452 0)
(-6.44099e-05 -0.016199 0)
(-0.00356382 -0.148788 0)
(-0.00836079 -0.119695 0)
(-0.0118656 -0.107789 0)
(-0.0153308 -0.107327 0)
(-0.0188479 -0.107934 0)
(-0.0225369 -0.108369 0)
(-0.0264565 -0.108954 0)
(-0.0307249 -0.109817 0)
(-0.035507 -0.110959 0)
(-0.0409875 -0.112344 0)
(-0.0473107 -0.113867 0)
(-0.05471 -0.11542 0)
(-0.0633582 -0.116794 0)
(-0.0733191 -0.117708 0)
(-0.084738 -0.117846 0)
(-0.0975936 -0.116895 0)
(-0.11173 -0.114428 0)
(-0.127003 -0.110195 0)
(-0.143131 -0.103975 0)
(-0.159557 -0.0953137 0)
(-0.175423 -0.0835504 0)
(-0.189988 -0.0690639 0)
(-3.03034e-06 -0.0143611 0)
(-0.00353117 -0.144574 0)
(-0.00844342 -0.115615 0)
(-0.011905 -0.10423 0)
(-0.0154346 -0.103794 0)
(-0.0190477 -0.104253 0)
(-0.022872 -0.104476 0)
(-0.0269445 -0.104757 0)
(-0.0313597 -0.105194 0)
(-0.0362525 -0.105774 0)
(-0.0417646 -0.106431 0)
(-0.0480113 -0.107073 0)
(-0.0551413 -0.107599 0)
(-0.0632787 -0.107804 0)
(-0.072459 -0.10749 0)
(-0.0827897 -0.106399 0)
(-0.0942267 -0.104238 0)
(-0.106585 -0.100728 0)
(-0.119756 -0.0956699 0)
(-0.133485 -0.088974 0)
(-0.147358 -0.0803497 0)
(-0.160768 -0.0692526 0)
(-0.173077 -0.0559491 0)
(0.00012311 -0.0126073 0)
(-0.00345326 -0.140258 0)
(-0.00848103 -0.111528 0)
(-0.0118697 -0.100664 0)
(-0.0154224 -0.100217 0)
(-0.0190675 -0.100496 0)
(-0.022937 -0.100493 0)
(-0.0270549 -0.100476 0)
(-0.0315008 -0.100517 0)
(-0.0363732 -0.100593 0)
(-0.0417753 -0.100626 0)
(-0.0478051 -0.100529 0)
(-0.0545664 -0.100195 0)
(-0.062138 -0.099467 0)
(-0.070539 -0.0981801 0)
(-0.0798298 -0.0961494 0)
(-0.0899613 -0.0930957 0)
(-0.100762 -0.0888293 0)
(-0.112142 -0.0832148 0)
(-0.1239 -0.076195 0)
(-0.135713 -0.067658 0)
(-0.147164 -0.0571053 0)
(-0.157672 -0.0447037 0)
(0.000289481 -0.0109904 0)
(-0.0033316 -0.135849 0)
(-0.00843474 -0.107458 0)
(-0.0117179 -0.097127 0)
(-0.0152578 -0.0966466 0)
(-0.0188801 -0.096732 0)
(-0.0227261 -0.0965058 0)
(-0.0268066 -0.0962101 0)
(-0.0311848 -0.0958974 0)
(-0.0359329 -0.0955268 0)
(-0.0411308 -0.0950279 0)
(-0.0468541 -0.0943197 0)
(-0.053171 -0.0932946 0)
(-0.0601418 -0.0918197 0)
(-0.0677792 -0.0897788 0)
(-0.0760881 -0.0870128 0)
(-0.0850264 -0.0833021 0)
(-0.0944731 -0.0784928 0)
(-0.104303 -0.0724867 0)
(-0.114393 -0.0652635 0)
(-0.124523 -0.0568105 0)
(-0.13438 -0.0466886 0)
(-0.143418 -0.0349432 0)
(0.000458966 -0.00953767 0)
(-0.00315601 -0.131395 0)
(-0.00826336 -0.103444 0)
(-0.0114148 -0.0936516 0)
(-0.0149081 -0.0931238 0)
(-0.0184622 -0.0930187 0)
(-0.0222289 -0.0925829 0)
(-0.0262075 -0.0920341 0)
(-0.0304479 -0.0914074 0)
(-0.035002 -0.0906566 0)
(-0.0399315 -0.0897181 0)
(-0.0452897 -0.0885129 0)
(-0.0511186 -0.0869356 0)
(-0.0574797 -0.0848823 0)
(-0.0643665 -0.0822546 0)
(-0.0717511 -0.0789175 0)
(-0.0796075 -0.0747164 0)
(-0.0878313 -0.069512 0)
(-0.0963224 -0.063217 0)
(-0.105001 -0.0558875 0)
(-0.113703 -0.047501 0)
(-0.122217 -0.0377099 0)
(-0.130013 -0.0264144 0)
(0.000605677 -0.00827745 0)
(-0.00290426 -0.126976 0)
(-0.00793229 -0.0995387 0)
(-0.0109339 -0.0902627 0)
(-0.0143473 -0.0896859 0)
(-0.0177927 -0.0894021 0)
(-0.0214355 -0.0887777 0)
(-0.0252626 -0.0880073 0)
(-0.0293144 -0.0871126 0)
(-0.0336303 -0.0860454 0)
(-0.0382557 -0.0847466 0)
(-0.0432168 -0.0831388 0)
(-0.0485458 -0.0811228 0)
(-0.0542976 -0.0786366 0)
(-0.0604523 -0.0755529 0)
(-0.0669712 -0.0717866 0)
(-0.0738346 -0.0672164 0)
(-0.080959 -0.0617316 0)
(-0.0882839 -0.0552613 0)
(-0.0957232 -0.0478521 0)
(-0.103166 -0.0395106 0)
(-0.110522 -0.0299757 0)
(-0.117217 -0.018981 0)
(0.000735633 -0.00723715 0)
(-0.00255006 -0.122687 0)
(-0.00742948 -0.0957933 0)
(-0.0102603 -0.0869857 0)
(-0.0135657 -0.0863643 0)
(-0.0168625 -0.0859199 0)
(-0.0203436 -0.0851301 0)
(-0.02398 -0.0841699 0)
(-0.0278069 -0.0830516 0)
(-0.0318518 -0.0817273 0)
(-0.0361456 -0.0801378 0)
(-0.0406926 -0.0782096 0)
(-0.0455394 -0.0758615 0)
(-0.050703 -0.0730411 0)
(-0.0561475 -0.069623 0)
(-0.0618591 -0.0655422 0)
(-0.0678145 -0.0607129 0)
(-0.0739536 -0.0550398 0)
(-0.08022 -0.0484552 0)
(-0.0865414 -0.0409933 0)
(-0.0928767 -0.0326702 0)
(-0.0992008 -0.0233576 0)
(-0.104876 -0.0125549 0)
(0.000890281 -0.00647394 0)
(-0.00207176 -0.118616 0)
(-0.00677632 -0.0922405 0)
(-0.00940565 -0.0838519 0)
(-0.0125766 -0.0831945 0)
(-0.0156839 -0.0826104 0)
(-0.0189656 -0.0816777 0)
(-0.022373 -0.0805565 0)
(-0.0259403 -0.0792529 0)
(-0.0296849 -0.077721 0)
(-0.0336251 -0.0759006 0)
(-0.037757 -0.0737274 0)
(-0.0421216 -0.071148 0)
(-0.0467154 -0.0680667 0)
(-0.0514921 -0.0644145 0)
(-0.056455 -0.060119 0)
(-0.0615763 -0.055123 0)
(-0.0668019 -0.049315 0)
(-0.0721172 -0.0426779 0)
(-0.0774099 -0.0351777 0)
(-0.0827414 -0.0268904 0)
(-0.0881413 -0.017732 0)
(-0.0928484 -0.00706112 0)
(0.00112265 -0.00608142 0)
(-0.00146865 -0.114802 0)
(-0.00602256 -0.0888993 0)
(-0.00841052 -0.0808958 0)
(-0.0114203 -0.0802186 0)
(-0.0142965 -0.0795169 0)
(-0.0173395 -0.0784642 0)
(-0.0204771 -0.0772085 0)
(-0.0237453 -0.0757548 0)
(-0.0271498 -0.074058 0)
(-0.0307044 -0.0720601 0)
(-0.0344148 -0.0697085 0)
(-0.0382836 -0.0669549 0)
(-0.0423021 -0.0636975 0)
(-0.0464418 -0.0598907 0)
(-0.0506976 -0.0554693 0)
(-0.0550172 -0.0503706 0)
(-0.0594036 -0.0445001 0)
(-0.0638213 -0.0378496 0)
(-0.0681598 -0.0303174 0)
(-0.0725377 -0.022099 0)
(-0.0770132 -0.0130169 0)
(-0.0808533 -0.00248939 0)
(0.00146153 -0.00619453 0)
(-0.000774126 -0.111207 0)
(-0.00523104 -0.0857709 0)
(-0.0073342 -0.0781438 0)
(-0.0101616 -0.0774735 0)
(-0.0127666 -0.0766759 0)
(-0.0155334 -0.0755305 0)
(-0.0183608 -0.0741704 0)
(-0.021287 -0.0726001 0)
(-0.0243077 -0.0707765 0)
(-0.0274374 -0.0686556 0)
(-0.0306799 -0.0661786 0)
(-0.0340191 -0.0632937 0)
(-0.0374465 -0.0599361 0)
(-0.0409416 -0.0560424 0)
(-0.0444824 -0.0515651 0)
(-0.0480147 -0.0464187 0)
(-0.0515559 -0.0405824 0)
(-0.0550654 -0.0339313 0)
(-0.0584785 -0.0264393 0)
(-0.0618531 -0.0182324 0)
(-0.0653193 -0.00921959 0)
(-0.0682067 0.00115291 0)
(0.00193652 -0.00690427 0)
(-2.77266e-05 -0.107758 0)
(-0.00448161 -0.082827 0)
(-0.00624226 -0.0756091 0)
(-0.00888499 -0.0749767 0)
(-0.011188 -0.0741049 0)
(-0.0136578 -0.0729002 0)
(-0.0161447 -0.0714745 0)
(-0.0186933 -0.0698251 0)
(-0.0212981 -0.0679164 0)
(-0.0239617 -0.0657143 0)
(-0.0266826 -0.0631613 0)
(-0.0294547 -0.0602062 0)
(-0.0322516 -0.0568036 0)
(-0.035058 -0.052889 0)
(-0.0378371 -0.0484154 0)
(-0.0405603 -0.0433007 0)
(-0.0432019 -0.0375412 0)
(-0.0457233 -0.0309715 0)
(-0.0480981 -0.0235814 0)
(-0.0503059 -0.015393 0)
(-0.052546 -0.00648474 0)
(-0.0542001 0.00374519 0)
(0.00254566 -0.00828518 0)
(0.000730232 -0.104346 0)
(-0.00384528 -0.0800352 0)
(-0.00520901 -0.0732992 0)
(-0.00769223 -0.0727328 0)
(-0.00968377 -0.0718154 0)
(-0.0118684 -0.0705827 0)
(-0.0140131 -0.0691275 0)
(-0.0161783 -0.0674431 0)
(-0.0183583 -0.0655002 0)
(-0.0205494 -0.0632601 0)
(-0.0227384 -0.0606816 0)
(-0.0249194 -0.0577247 0)
(-0.0270673 -0.0543249 0)
(-0.0291553 -0.0504663 0)
(-0.031137 -0.046056 0)
(-0.032991 -0.0410772 0)
(-0.0346605 -0.0354443 0)
(-0.0360928 -0.0290738 0)
(-0.037253 -0.0218823 0)
(-0.0380768 -0.0138696 0)
(-0.038721 -0.00514105 0)
(-0.038592 0.00481094 0)
(0.00329017 -0.0104397 0)
(0.00146654 -0.100859 0)
(-0.00337848 -0.077383 0)
(-0.00430322 -0.0712434 0)
(-0.00670369 -0.0707604 0)
(-0.00839696 -0.0698161 0)
(-0.0103346 -0.0685892 0)
(-0.012183 -0.0671423 0)
(-0.0140153 -0.0654674 0)
(-0.0158164 -0.0635381 0)
(-0.0175773 -0.061316 0)
(-0.0192926 -0.0587672 0)
(-0.0209271 -0.0558651 0)
(-0.0224735 -0.0525485 0)
(-0.0238806 -0.0488076 0)
(-0.0251011 -0.0445668 0)
(-0.0260996 -0.0398056 0)
(-0.0267803 -0.0344265 0)
(-0.027085 -0.028392 0)
(-0.026929 -0.0215979 0)
(-0.0261995 -0.0140115 0)
(-0.0249885 -0.00565963 0)
(-0.0226714 0.00372912 0)
(0.00416056 -0.013485 0)
(0.00214594 -0.097165 0)
(-0.00311192 -0.0748498 0)
(-0.00358108 -0.0694595 0)
(-0.00600019 -0.0690584 0)
(-0.00743863 -0.0680962 0)
(-0.00921331 -0.0669084 0)
(-0.0108435 -0.0655071 0)
(-0.01243 -0.0638809 0)
(-0.0139524 -0.0620054 0)
(-0.0153959 -0.0598502 0)
(-0.0167512 -0.0573927 0)
(-0.0179757 -0.0545977 0)
(-0.0190495 -0.0514537 0)
(-0.0199226 -0.0479035 0)
(-0.0205218 -0.0439328 0)
(-0.0207869 -0.0394907 0)
(-0.0206238 -0.0345295 0)
(-0.0199353 -0.0290021 0)
(-0.0185758 -0.0228383 0)
(-0.0163556 -0.015977 0)
(-0.0133424 -0.00841415 0)
(-0.00874944 4.08827e-05 0)
(0.00508369 -0.0173801 0)
(0.00271268 -0.0930259 0)
(-0.00302212 -0.0722842 0)
(-0.00305356 -0.0678019 0)
(-0.005599 -0.0674575 0)
(-0.00683389 -0.0664971 0)
(-0.00853833 -0.0653697 0)
(-0.0100412 -0.0640335 0)
(-0.0114864 -0.062481 0)
(-0.0128493 -0.0606893 0)
(-0.0141154 -0.0586368 0)
(-0.0152625 -0.0563067 0)
(-0.0162538 -0.0536765 0)
(-0.0170471 -0.0507467 0)
(-0.0175774 -0.0474678 0)
(-0.0177876 -0.0438438 0)
(-0.0175876 -0.039836 0)
(-0.0168559 -0.0354246 0)
(-0.0154676 -0.0305777 0)
(-0.0132503 -0.0252607 0)
(-0.00998726 -0.0194263 0)
(-0.00562825 -0.013069 0)
(0.00075884 -0.00603576 0)
(0.00592013 -0.0218016 0)
(0.0031252 -0.0881775 0)
(-0.00302704 -0.069464 0)
(-0.00267772 -0.0659965 0)
(-0.00541315 -0.0656561 0)
(-0.00648715 -0.0647283 0)
(-0.00818487 -0.0636684 0)
(-0.00962523 -0.062402 0)
(-0.0110117 -0.0609293 0)
(-0.0123139 -0.0592295 0)
(-0.013512 -0.0572908 0)
(-0.0145812 -0.0551025 0)
(-0.0154839 -0.052661 0)
(-0.0161642 -0.0499629 0)
(-0.0165677 -0.0469988 0)
(-0.0166207 -0.0437715 0)
(-0.0162178 -0.0402589 0)
(-0.0152427 -0.0364721 0)
(-0.0135474 -0.0324134 0)
(-0.0109453 -0.0280862 0)
(-0.00720828 -0.0234766 0)
(-0.00221341 -0.0185795 0)
(0.00502306 -0.0133757 0)
(0.00655219 -0.0267056 0)
(0.00336987 -0.0828605 0)
(-0.00303398 -0.0666335 0)
(-0.00236548 -0.06421 0)
(-0.00528123 -0.0638171 0)
(-0.00621926 -0.0629571 0)
(-0.0079161 -0.0619607 0)
(-0.00931584 -0.0607642 0)
(-0.0106743 -0.0593678 0)
(-0.0119526 -0.0577581 0)
(-0.0131329 -0.0559322 0)
(-0.0141864 -0.0538925 0)
(-0.0150741 -0.0516428 0)
(-0.0157452 -0.049192 0)
(-0.01614 -0.046553 0)
(-0.0161845 -0.0437284 0)
(-0.0157798 -0.0407352 0)
(-0.0148057 -0.0376025 0)
(-0.0131123 -0.0343642 0)
(-0.0105247 -0.0310579 0)
(-0.00681979 -0.02772 0)
(-0.00184022 -0.0243819 0)
(0.00532625 -0.0211366 0)
(0.00685519 -0.0326637 0)
(0.00342011 -0.0778862 0)
(-0.0029604 -0.0645702 0)
(-0.00205823 -0.0631658 0)
(-0.00504135 -0.0626767 0)
(-0.00585182 -0.0619182 0)
(-0.0075046 -0.0609827 0)
(-0.00884253 -0.0598554 0)
(-0.0101504 -0.0585336 0)
(-0.0113868 -0.057015 0)
(-0.0125347 -0.0553064 0)
(-0.0135647 -0.0534186 0)
(-0.0144389 -0.0513646 0)
(-0.015111 -0.0491645 0)
(-0.0155263 -0.0468408 0)
(-0.0156169 -0.0444196 0)
(-0.0152917 -0.0419363 0)
(-0.0144355 -0.0394458 0)
(-0.0129095 -0.0369998 0)
(-0.0105599 -0.0346789 0)
(-0.007179 -0.0325563 0)
(-0.00260578 -0.0307239 0)
(0.00393847 -0.0293296 0)
(0.00658501 -0.0391475 0)
(0.0031788 -0.0732553 0)