/*--------------------------------*- C++ -*----------------------------------*\
| =========                 |                                                 |
| \\      /  F ield         | OpenFOAM: The Open Source CFD Toolbox           |
|  \\    /   O peration     | Version:  5.x                                   |
|   \\  /    A nd           | Web:      www.OpenFOAM.org                      |
|    \\/     M anipulation  |                                                 |
\*---------------------------------------------------------------------------*/
FoamFile
{
    version     2.0;
    format      ascii;
    class       surfaceScalarField;
    location    "0.25";
    object      alphaPhi10;
}
// * * * * * * * * * * * * * * * * * * * * * * * * * * * * * * * * * * * * * //

dimensions      [0 3 -1 0 0 0 0];

internalField   nonuniform List<scalar> 
4432
(
4.8277e-07
-4.8277e-07
5.12012e-06
-4.63736e-06
1.13157e-05
-6.19561e-06
1.73515e-05
-6.03578e-06
2.26643e-05
-5.31282e-06
2.73281e-05
-4.6638e-06
3.15963e-05
-4.2682e-06
3.568e-05
-4.08367e-06
3.96823e-05
-4.00226e-06
4.36042e-05
-3.92191e-06
4.7373e-05
-3.76886e-06
5.08646e-05
-3.49153e-06
5.39148e-05
-3.05022e-06
5.62785e-05
-2.36374e-06
5.7607e-05
-1.3285e-06
5.70318e-05
5.75224e-07
5.28657e-05
4.16605e-06
4.34168e-05
9.44893e-06
2.75032e-05
1.59136e-05
6.50074e-06
2.10025e-05
-9.99592e-06
1.81594e-05
-1.42505e-05
5.58327e-06
-1.8097e-05
5.44469e-07
-1.02723e-06
5.21498e-06
-9.30788e-06
1.14165e-05
-1.23971e-05
1.74435e-05
-1.20628e-05
2.2748e-05
-1.06173e-05
2.7416e-05
-9.3318e-06
3.17064e-05
-8.55855e-06
3.58268e-05
-8.20408e-06
3.98742e-05
-8.04967e-06
4.38461e-05
-7.89383e-06
4.76696e-05
-7.59231e-06
5.12239e-05
-7.04586e-06
5.43423e-05
-6.16864e-06
5.68356e-05
-4.85707e-06
5.84618e-05
-2.95466e-06
5.92835e-05
-2.46503e-07
5.96206e-05
3.82897e-06
5.8463e-05
1.06065e-05
5.28076e-05
2.1569e-05
3.87653e-05
3.50448e-05
1.72103e-05
3.99563e-05
1.83336e-06
2.18464e-05
-1.62636e-05
6.4591e-07
-1.67314e-06
5.35534e-06
-1.40173e-05
1.15227e-05
-1.85644e-05
1.74719e-05
-1.80121e-05
2.27038e-05
-1.58491e-05
2.73333e-05
-1.39613e-05
3.1625e-05
-1.28503e-05
3.57773e-05
-1.23564e-05
3.98744e-05
-1.21468e-05
4.39057e-05
-1.19251e-05
4.77967e-05
-1.14833e-05
5.14299e-05
-1.0679e-05
5.46525e-05
-9.39127e-06
5.72777e-05
-7.48223e-06
5.90787e-05
-4.75564e-06
5.97672e-05
-9.35055e-07
5.92349e-05
4.36126e-06
5.80028e-05
1.18387e-05
5.67511e-05
2.28207e-05
5.32156e-05
3.85802e-05
4.12304e-05
5.19416e-05
2.04458e-05
4.26311e-05
3.84885e-06
7.99404e-07
-2.47254e-06
5.57243e-06
-1.87903e-05
1.16866e-05
-2.46786e-05
1.75191e-05
-2.38446e-05
2.26481e-05
-2.09781e-05
2.72303e-05
-1.85436e-05
3.15335e-05
-1.71535e-05
3.57394e-05
-1.65623e-05
3.99138e-05
-1.63211e-05
4.40351e-05
-1.60464e-05
4.80273e-05
-1.54756e-05
5.17786e-05
-1.44303e-05
5.51476e-05
-1.27602e-05
5.79614e-05
-1.0296e-05
6.00134e-05
-6.80767e-06
6.10593e-05
-1.98095e-06
6.0826e-05
4.59456e-06
5.9259e-05
1.34057e-05
5.72672e-05
2.48125e-05
5.59801e-05
3.98673e-05
5.03152e-05
5.76064e-05
3.14212e-05
6.15251e-05
3.53243e-05
1.0032e-06
-3.47574e-06
5.85233e-06
-2.36395e-05
1.18859e-05
-3.07121e-05
1.75637e-05
-2.95224e-05
2.25651e-05
-2.59795e-05
2.70958e-05
-2.30743e-05
3.14215e-05
-2.14792e-05
3.56995e-05
-2.08403e-05
3.99719e-05
-2.05935e-05
4.42054e-05
-2.02799e-05
4.83233e-05
-1.95935e-05
5.22216e-05
-1.83286e-05
5.57727e-05
-1.63113e-05
5.88225e-05
-1.33458e-05
6.11879e-05
-9.17299e-06
6.26537e-05
-3.44679e-06
6.29792e-05
4.26906e-06
6.19522e-05
1.44327e-05
5.94778e-05
2.7287e-05
5.67318e-05
4.26132e-05
5.22259e-05
6.21124e-05
3.61801e-05
7.7571e-05
7.15044e-05
1.25253e-06
-4.72827e-06
6.17904e-06
-2.8566e-05
1.21e-05
-3.66331e-05
1.75899e-05
-3.50123e-05
2.24475e-05
-3.08371e-05
2.69289e-05
-2.75558e-05
3.12895e-05
-2.58397e-05
3.56543e-05
-2.52051e-05
4.00392e-05
-2.49784e-05
4.43989e-05
-2.46396e-05
4.86586e-05
-2.38532e-05
5.27251e-05
-2.23952e-05
5.64876e-05
-2.00738e-05
5.98123e-05
-1.66704e-05
6.25365e-05
-1.18972e-05
6.44635e-05
-5.3738e-06
6.53583e-05
3.37423e-06
6.5004e-05
1.4787e-05
6.29827e-05
2.93082e-05
5.9161e-05
4.64349e-05
5.34498e-05
6.78236e-05
3.87022e-05
9.23186e-05
0.000110207
1.53914e-06
-6.26742e-06
6.53788e-06
-3.35647e-05
1.23121e-05
-4.24073e-05
1.75876e-05
-4.02878e-05
2.22955e-05
-3.5545e-05
2.67362e-05
-3.19965e-05
3.11446e-05
-3.02481e-05
3.56071e-05
-2.96676e-05
4.01122e-05
-2.94835e-05
4.46048e-05
-2.91322e-05
4.9016e-05
-2.82643e-05
5.32674e-05
-2.66466e-05
5.72673e-05
-2.40737e-05
6.09009e-05
-2.03041e-05
6.4023e-05
-1.50193e-05
6.64532e-05
-7.80399e-06
6.79511e-05
1.87626e-06
6.82772e-05
1.4461e-05
6.70579e-05
3.05275e-05
6.34825e-05
5.00103e-05
5.68655e-05
7.44407e-05
4.39215e-05
0.000105263
0.000154128
1.84976e-06
-8.11718e-06
6.90763e-06
-3.86226e-05
1.25064e-05
-4.80061e-05
1.75573e-05
-4.53387e-05
2.2123e-05
-4.01106e-05
2.65371e-05
-3.64107e-05
3.10046e-05
-3.47155e-05
3.55702e-05
-3.42332e-05
4.01971e-05
-3.41104e-05
4.48258e-05
-3.37609e-05
4.93993e-05
-3.28378e-05
5.38591e-05
-3.11064e-05
5.81318e-05
-2.83464e-05
6.21169e-05
-2.42892e-05
6.56804e-05
-1.85828e-05
6.86515e-05
-1.0775e-05
7.07919e-05
-2.64187e-07
7.18337e-05
1.34191e-05
7.15062e-05
3.0855e-05
6.9074e-05
5.24425e-05
6.27534e-05
8.07613e-05
4.93691e-05
0.000118647
0.00019733
3.54265e-18
-3.51561e-18
1.00579e-19
-3.40689e-19
1.16775e-21
-2.64426e-21
2.09717e-23
-1.49642e-22
3.7753e-25
-1.70423e-24
7.84267e-27
-1.90475e-26
1.79549e-28
-2.49529e-28
3.96641e-30
-3.46338e-30
7.74018e-32
-2.17562e-32
1.8889e-33
5.44242e-34
4.56906e-35
3.08256e-35
1.0094e-36
1.31252e-36
1.98808e-38
4.32779e-38
3.33512e-40
1.16733e-39
4.47774e-42
2.62772e-41
4.39227e-44
4.66402e-43
2.67789e-46
6.1897e-45
6.89111e-49
5.41957e-47
2.32847e-49
2.49969e-16
-2.53485e-16
5.89256e-18
4.01174e-17
1.12918e-19
-3.68643e-19
2.6918e-21
-2.78665e-20
5.40147e-23
-4.26097e-22
1.12942e-24
-5.81153e-24
2.44766e-26
-8.5104e-26
5.23706e-28
-1.16085e-27
1.09423e-29
-9.85005e-30
2.38734e-31
1.7195e-31
6.32746e-33
1.28105e-32
1.52878e-34
6.30219e-34
3.33108e-36
2.35951e-35
6.21978e-38
7.20965e-37
9.34043e-40
1.81678e-38
1.02842e-41
3.62884e-40
7.04751e-44
5.41636e-42
2.57448e-46
5.33147e-44
2.57395e-46
1.59942e-14
-1.62477e-14
7.73207e-17
1.43011e-14
4.94176e-18
8.68016e-18
1.28932e-19
-1.46325e-18
2.77586e-21
-2.45546e-20
6.3224e-23
-3.71861e-22
1.4876e-24
-6.37394e-24
3.29431e-26
-1.04174e-25
6.82719e-28
-1.07971e-27
1.38812e-29
1.13768e-29
3.72466e-31
1.08085e-30
8.9245e-33
5.4389e-32
1.93258e-34
2.05634e-33
3.57175e-36
6.29073e-35
5.30694e-38
1.57599e-36
6.20357e-40
3.12578e-38
5.23221e-42
4.62785e-40
2.14016e-44
4.52786e-42
2.16424e-44
6.30171e-13
-6.46406e-13
3.72167e-15
5.72968e-13
1.28251e-16
1.28924e-15
3.39274e-18
-3.82344e-17
7.60909e-20
-7.80647e-19
1.96322e-21
-1.24453e-20
5.0024e-23
-2.47385e-22
1.2664e-24
-4.67124e-24
2.94967e-26
-6.08659e-26
6.34834e-28
4.94928e-28
1.71377e-29
6.30558e-29
4.16071e-31
3.28179e-30
9.06821e-33
1.26269e-31
1.68357e-34
3.90988e-33
2.7701e-36
9.84429e-35
3.65923e-38
1.96949e-36
3.20293e-40
2.93803e-38
1.36612e-42
2.88738e-40
1.38696e-42
1.7185e-11
-1.783e-11
1.17607e-13
1.55332e-11
2.73241e-15
4.50767e-14
5.88928e-17
2.36114e-16
1.58468e-18
-1.33753e-17
5.04428e-20
-3.0619e-19
1.44418e-21
-7.79239e-21
4.09854e-23
-1.73965e-22
1.0204e-24
-2.68193e-24
2.3661e-26
1.66574e-26
6.48027e-28
2.76712e-27
1.6084e-29
1.51577e-28
3.56179e-31
5.97906e-30
7.15951e-33
1.88911e-31
1.29852e-34
4.84309e-33
1.77678e-36
9.86942e-35
1.61161e-38
1.49391e-36
7.13913e-41
1.49182e-38
7.27441e-41
3.28767e-10
-3.466e-10
3.33831e-12
2.03404e-10
5.14798e-14
-1.05488e-12
1.04266e-15
3.03576e-14
1.72802e-17
3.59025e-16
1.25763e-18
-3.34258e-18
3.73072e-20
-2.12413e-19
1.35218e-21
-5.47816e-21
3.57293e-23
-1.12729e-22
7.30483e-25
2.39659e-25
2.08846e-26
9.91593e-26
5.30764e-28
5.6442e-27
1.19953e-29
2.31202e-28
2.72911e-31
7.46969e-30
5.13467e-33
1.96489e-31
7.27477e-35
4.09074e-33
6.83576e-37
6.32704e-35
3.13882e-39
6.45127e-37
3.21028e-39
4.08314e-09
-4.42969e-09
2.87047e-10
-3.31431e-09
2.89559e-13
1.25446e-13
2.52117e-14
-1.47522e-13
5.66783e-16
1.10681e-14
2.83195e-17
4.18724e-18
8.7235e-19
-8.4831e-18
4.42425e-20
-2.12475e-19
1.45055e-21
-6.14375e-21
2.0845e-23
-1.39937e-23
5.99994e-25
3.26266e-24
1.61654e-26
1.85256e-25
3.73792e-28
7.97643e-27
9.43144e-30
2.64926e-28
1.84989e-31
7.16768e-30
2.72079e-33
1.53335e-31
2.65316e-35
2.43276e-33
1.26465e-37
2.542e-35
1.29631e-37
2.85768e-08
-3.30063e-08
8.3606e-10
-4.53306e-09
1.36731e-11
1.17741e-10
2.38543e-12
-2.16896e-12
2.04091e-14
1.97353e-12
6.80173e-16
8.26202e-15
3.18149e-17
1.36482e-16
1.12538e-18
1.36991e-17
2.86049e-20
4.61567e-19
7.63328e-22
3.82698e-21
1.97271e-23
1.40067e-22
5.74026e-25
6.78827e-24
1.36855e-26
3.13044e-25
3.74519e-28
1.07164e-26
7.68103e-30
2.99959e-28
1.18065e-31
6.6237e-30
1.20401e-33
1.08337e-31
5.99264e-36
1.16622e-33
6.12055e-36
4.92789e-06
-1.30451e-05
1.59148e-05
-4.96095e-05
2.71986e-05
-5.929e-05
3.71808e-05
-5.53208e-05
4.64881e-05
-4.94179e-05
5.58676e-05
-4.57902e-05
6.56034e-05
-4.44513e-05
7.56628e-05
-4.42925e-05
8.59174e-05
-4.4365e-05
9.62579e-05
-4.41014e-05
0.000106623
-4.32028e-05
0.000116938
-4.1421e-05
0.000127067
-3.84764e-05
0.000136844
-3.40653e-05
0.000146072
-2.78114e-05
0.000154487
-1.919e-05
0.000161571
-7.34834e-06
0.000166457
8.53337e-06
0.000168908
2.84038e-05
0.000168556
5.27943e-05
0.000165859
8.34583e-05
0.000168859
0.000115648
0.00016256
0.000191092
6.348e-06
-1.93931e-05
1.74145e-05
-6.0676e-05
2.77953e-05
-6.96707e-05
3.68828e-05
-6.44084e-05
4.58044e-05
-5.83395e-05
5.52717e-05
-5.52576e-05
6.53616e-05
-5.45412e-05
7.59009e-05
-5.48319e-05
8.67376e-05
-5.52017e-05
9.78117e-05
-5.51755e-05
0.000109123
-5.4514e-05
0.000120575
-5.28735e-05
0.000131996
-4.98973e-05
0.000143399
-4.54682e-05
0.000154883
-3.92956e-05
0.000166509
-3.08152e-05
0.000177982
-1.88214e-05
0.000187815
-1.29935e-06
0.000196407
1.98118e-05
0.000203069
4.61328e-05
0.00021175
7.47773e-05
0.000226176
0.000101221
0.000136107
0.000256079
7.7513e-06
-2.71444e-05
1.87258e-05
-7.16505e-05
2.81066e-05
-7.90515e-05
3.64148e-05
-7.27166e-05
4.51369e-05
-6.70615e-05
5.47884e-05
-6.49091e-05
6.52019e-05
-6.49546e-05
7.60982e-05
-6.57282e-05
8.73203e-05
-6.64238e-05
9.88181e-05
-6.66733e-05
0.000110555
-6.62505e-05
0.000122336
-6.46545e-05
0.000134196
-6.1757e-05
0.00014694
-5.82123e-05
0.000160956
-5.33106e-05
0.000176481
-4.63414e-05
0.00019168
-3.40209e-05
0.000206549
-1.61687e-05
0.000220129
6.23186e-06
0.000229521
3.67407e-05
0.00024044
6.38578e-05
0.000252623
8.90379e-05
0.000112922
0.000275806
9.0685e-06
-3.62129e-05
1.97194e-05
-8.23013e-05
2.8065e-05
-8.7397e-05
3.57615e-05
-8.04131e-05
4.43959e-05
-7.56958e-05
5.41217e-05
-7.46349e-05
6.45054e-05
-7.53382e-05
7.51853e-05
-7.64077e-05
8.59901e-05
-7.7228e-05
9.68635e-05
-7.75457e-05
0.000107884
-7.72683e-05
0.000119229
-7.59954e-05
0.000131969
-7.44907e-05
0.000148472
-7.46993e-05
0.000166543
-7.13776e-05
0.000183625
-6.12773e-05
0.000192823
-3.8411e-05
0.000201427
-1.88728e-05
0.000212458
-2.32079e-06
0.000234103
1.62454e-05
0.000255351
4.1946e-05
0.000268623
7.57666e-05
9.72403e-05
0.000284374
1.03253e-05
-4.65382e-05
2.0177e-05
-9.21517e-05
2.73093e-05
-9.45277e-05
3.44195e-05
-8.7522e-05
4.27819e-05
-8.4057e-05
5.205e-05
-8.39011e-05
6.15893e-05
-8.48737e-05
7.11114e-05
-8.59229e-05
8.06527e-05
-8.67589e-05
9.05397e-05
-8.74143e-05
0.000101616
-8.82969e-05
0.000115614
-8.99075e-05
0.000130821
-8.65202e-05
0.000131357
-5.85538e-05
9.79436e-05
-1.93926e-05
5.90485e-05
-5.27798e-06
3.59603e-05
-1.25302e-06
2.57179e-05
-2.83213e-07
2.40298e-05
-7.34153e-08
3.95445e-05
7.09014e-07
7.89149e-05
1.48452e-06
0.000148037
3.16607e-06
1.22002e-05
0.000228278
1.15434e-05
-5.80816e-05
1.9862e-05
-0.000100453
2.53402e-05
-9.99861e-05
3.16799e-05
-9.38435e-05
3.93967e-05
-9.17551e-05
4.77267e-05
-9.22036e-05
5.61813e-05
-9.327e-05
6.50726e-05
-9.47088e-05
7.54814e-05
-9.70032e-05
8.66012e-05
-9.29147e-05
9.08455e-05
-7.12057e-05
7.63123e-05
-3.28887e-05
4.28533e-05
-7.38339e-06
2.57977e-05
-1.62252e-06
6.77257e-06
-3.06889e-07
1.56963e-06
-6.35513e-08
3.32362e-07
-1.24772e-08
7.49456e-08
-6.84696e-09
6.68966e-08
-1.66095e-08
8.47898e-07
-8.54672e-09
2.22655e-06
1.16696e-07
4.84322e-06
4.27582e-07
7.93699e-07
1.54444e-05
1.33206e-05
-7.14022e-05
1.9442e-05
-0.000106365
2.25726e-05
-0.00010288
2.84001e-05
-9.94412e-05
3.60881e-05
-9.91773e-05
4.45287e-05
-9.40197e-05
5.16153e-05
-8.01422e-05
5.49757e-05
-6.07971e-05
5.02778e-05
-3.53853e-05
3.2331e-05
-6.18422e-06
1.47929e-05
-1.0568e-06
9.34485e-06
-8.44395e-08
1.98521e-06
-1.85706e-08
3.79662e-07
-1.62181e-08
8.41003e-08
-1.21749e-08
2.40267e-08
-4.00555e-09
1.3135e-08
-1.85695e-09
2.67272e-08
-1.71728e-08
1.88461e-07
-9.54944e-08
3.47555e-07
-1.15306e-07
4.59987e-07
-1.03573e-08
6.76986e-07
2.53075e-08
5.13252e-08
1.37967e-06
1.64296e-05
-6.65564e-05
1.66426e-05
-4.67937e-05
1.75579e-05
-4.10649e-05
2.08323e-05
-3.67886e-05
2.28708e-05
-2.79135e-05
2.06303e-05
-2.03938e-06
1.53561e-05
-1.64874e-07
8.47413e-06
-1.54709e-08
7.3489e-06
-1.67807e-09
1.16527e-06
-2.01971e-10
1.08549e-07
-1.54339e-11
2.64166e-08
-2.21021e-09
1.43328e-08
-6.8131e-09
1.37271e-08
-1.42177e-08
1.23349e-08
-1.14541e-08
1.11113e-08
-3.14069e-09
9.96169e-09
-1.23467e-09
3.83525e-07
-4.32358e-08
5.51593e-07
-1.97466e-07
6.7565e-07
-1.92106e-07
3.94258e-07
-4.77207e-08
1.14093e-07
1.47688e-08
6.57735e-09
1.42666e-07
6.68211e-06
1.51575e-23
2.07086e-06
3.10874e-23
2.46769e-06
-2.04944e-21
1.98417e-06
-2.37345e-19
2.22163e-06
-2.61574e-17
1.82247e-07
-9.682e-16
1.7372e-08
-9.33057e-15
1.90114e-09
-1.12183e-14
2.22999e-10
-3.59869e-15
2.09901e-11
-9.43813e-14
1.26468e-11
-5.58098e-12
1.31998e-09
-3.45762e-09
9.14002e-09
-1.45245e-08
2.33837e-08
-6.44165e-08
1.58691e-08
-1.1674e-08
1.42246e-08
-2.0229e-09
1.85671e-08
-5.9674e-09
4.50103e-07
-9.07394e-08
5.18645e-07
-2.17979e-07
5.36936e-07
-1.65887e-07
1.70667e-07
-4.53167e-08
1.54615e-08
5.08785e-09
7.29235e-10
1.88016e-08
-1.71486e-24
4.79476e-23
-8.23502e-24
7.59806e-23
8.36621e-23
-2.14134e-21
1.2272e-20
-2.49785e-19
1.53634e-18
-2.77082e-17
6.66436e-17
-1.03604e-15
6.53729e-16
-1.002e-14
1.81692e-15
-1.34565e-14
2.06811e-15
-4.54718e-15
2.81679e-14
-1.20404e-13
3.61041e-11
-4.17724e-11
1.93312e-08
-2.27604e-08
6.72127e-08
-9.10491e-08
9.43629e-08
-7.25319e-08
3.12042e-08
-1.8729e-08
2.85203e-08
-9.48809e-10
3.05302e-07
-4.28997e-09
4.27158e-07
-1.28334e-07
4.50093e-07
-1.86305e-07
1.91766e-07
-1.33965e-07
-2.57531e-09
-2.93535e-09
1.11121e-09
1.5178e-10
1.26217e-12
1.61568e-09
-6.69234e-25
5.81475e-23
-8.20802e-24
3.80578e-23
7.73584e-22
-6.07154e-21
1.08631e-19
-6.06339e-19
1.2618e-17
-5.44914e-17
5.61866e-16
-2.47798e-15
6.0538e-15
-3.06257e-14
9.05832e-15
-4.11156e-14
1.30872e-14
-8.25921e-15
6.29584e-13
-7.36092e-13
2.60773e-10
-3.01932e-10
4.57391e-08
-7.67177e-08
8.9797e-08
-1.12458e-07
6.61909e-08
-2.83763e-08
4.34962e-08
-2.31335e-09
4.31492e-08
-5.99771e-09
2.74465e-07
-4.5032e-08
3.51066e-07
-1.62925e-07
3.16379e-07
-9.04325e-08
3.46168e-09
-1.22896e-08
1.0752e-11
-6.39355e-11
1.12499e-10
2.96938e-13
-2.31666e-12
1.08936e-10
-2.06037e-24
5.06976e-23
-4.00629e-24
-7.06545e-23
5.75847e-21
-3.76151e-20
9.15702e-19
-4.58216e-18
1.16431e-16
-4.87376e-16
4.19905e-15
-1.63003e-14
1.71247e-14
-8.2579e-14
1.85267e-14
-7.50532e-14
2.33707e-14
-1.10553e-14
3.26706e-12
-3.9817e-12
1.26102e-09
-1.56039e-09
3.25315e-08
-3.47741e-08
4.68086e-08
-9.97542e-08
2.66024e-08
-1.60703e-08
3.16069e-08
-1.74457e-08
1.38994e-07
-8.54689e-08
2.89247e-07
-1.58441e-07
2.35705e-07
-7.74209e-08
1.64972e-08
-1.83666e-08
5.16553e-11
-2.74491e-10
2.13894e-12
-1.99046e-11
4.1842e-12
-2.32577e-12
-5.34319e-13
2.95717e-12
-3.13125e-24
3.42258e-23
1.63423e-23
-2.16551e-22
1.36028e-20
-7.91993e-20
2.77452e-18
-1.22661e-17
4.00734e-16
-1.73445e-15
9.2285e-15
-4.0227e-14
1.96355e-14
-1.06991e-13
1.30982e-14
-7.6798e-14
1.74476e-14
-1.70793e-14
1.73424e-11
-2.12873e-11
8.786e-10
-2.91293e-09
7.78319e-09
-2.37691e-09
2.22927e-08
-7.33786e-08
1.06632e-08
-1.59499e-07
1.39245e-08
-1.45221e-07
1.39676e-07
-1.43633e-07
1.01391e-07
-7.16606e-08
1.86638e-08
-5.50374e-16
2.97196e-10
-5.62756e-15
2.27137e-11
-9.38763e-15
2.82352e-12
-1.38198e-14
5.00659e-13
-3.72611e-15
-2.08766e-13
5.60288e-13
-1.97419e-24
1.71126e-23
3.89158e-23
-3.9463e-22
1.53221e-20
-9.28726e-20
4.09797e-18
-1.76577e-17
6.27513e-16
-3.16966e-15
5.82068e-15
-5.28054e-14
1.21219e-14
-1.04349e-13
6.49518e-15
-6.58936e-14
5.12793e-14
-5.77777e-14
-5.25391e-11
-2.80874e-12
5.91278e-11
-8.71711e-11
-1.461e-09
-5.04434e-10
-2.17443e-08
-1.44519e-08
-6.64455e-08
-1.56263e-07
-3.92552e-08
-3.95487e-08
-1.79875e-08
-3.2575e-16
-5.69626e-17
-3.76019e-15
5.66081e-17
-1.37479e-15
3.29385e-16
-6.61022e-15
1.14359e-15
-1.13901e-14
3.22302e-15
-1.67202e-14
1.08405e-14
-1.25245e-14
-3.1958e-13
4.97415e-13
-7.43402e-25
5.75281e-24
3.62053e-23
-3.75279e-22
1.1734e-20
-8.0946e-20
3.59146e-18
-1.77475e-17
5.53218e-16
-3.56722e-15
5.00555e-15
-5.18745e-14
4.91403e-15
-9.53141e-14
-5.74686e-18
-3.87789e-14
-9.61521e-15
-2.7238e-14
-2.89149e-12
-5.44743e-14
-6.71734e-11
-3.50068e-14
-5.71584e-10
-1.52543e-14
-9.27506e-09
-1.45116e-14
-3.18208e-08
-1.14165e-14
-6.87e-17
-2.15125e-15
-2.18003e-16
-1.07593e-16
-5.51282e-16
-9.05232e-16
9.66541e-17
-2.91049e-15
2.80993e-15
-6.70572e-15
8.67989e-15
-1.03207e-14
1.57378e-14
-1.87387e-14
2.52205e-14
-2.69643e-14
-3.54199e-13
4.37672e-13
-1.67851e-25
1.1553e-24
1.89691e-23
-1.2922e-22
5.06905e-21
-2.30581e-20
2.07303e-18
-1.05493e-17
3.25639e-16
-3.02969e-15
2.36951e-15
-3.15395e-14
9.7711e-16
-5.10755e-14
-1.04762e-15
-2.0649e-14
-1.88361e-15
-2.59392e-14
-1.51891e-15
-2.89803e-14
-1.59476e-15
-2.63846e-14
-1.20248e-15
-1.76092e-14
-9.074e-16
-1.54034e-14
-2.00104e-16
-1.21323e-14
-4.34636e-17
-2.23904e-15
-1.0575e-16
-6.25439e-17
-3.261e-16
-8.89228e-16
2.24673e-16
-3.29514e-15
2.35831e-15
-7.05056e-15
6.15749e-15
-1.20852e-14
1.76034e-14
-2.41741e-14
4.68282e-14
-5.15391e-14
-2.28594e-13
3.08612e-13
-2.01544e-26
6.34589e-25
2.75683e-24
-6.74475e-24
6.25894e-22
-4.16745e-22
4.25414e-19
-2.14788e-18
9.03464e-17
-9.22692e-16
3.11346e-16
-8.22936e-15
-1.12224e-16
-1.29709e-14
-9.17941e-16
-9.19938e-15
-2.98528e-15
-2.4411e-14
-3.52159e-15
-3.89096e-14
-4.96891e-15
-3.98702e-14
-4.91331e-15
-3.66667e-14
-4.86905e-15
-2.9282e-14
-1.5838e-15
-2.12745e-14
-2.01829e-17
-4.95333e-15
-8.1601e-17
-3.93973e-17
-1.9747e-16
-5.63332e-16
9.03774e-17
-1.85349e-15
1.43024e-15
-4.47191e-15
5.23911e-15
-1.0512e-14
1.59177e-14
-2.46804e-14
4.5535e-14
-5.66056e-14
-2.36241e-13
1.39009e-13
-5.62958e-27
1.36932e-24
9.27401e-26
-2.95849e-24
8.55387e-24
-1.11098e-21
2.02664e-20
-1.64902e-19
2.24303e-18
-1.1852e-16
-5.07403e-17
-1.09108e-15
-1.21235e-16
-1.86654e-15
-6.42315e-16
-2.95317e-15
-2.8642e-15
-1.59504e-14
-4.82071e-15
-2.84146e-14
-6.32259e-15
-2.98298e-14
-7.42906e-15
-3.00618e-14
-6.92874e-15
-2.33939e-14
-2.42916e-15
-1.66892e-14
-8.51687e-18
-4.5322e-15
-2.09344e-17
-2.2478e-18
-6.44949e-17
-9.90198e-17
3.78756e-18
-6.37179e-16
5.5143e-16
-2.31132e-15
2.75546e-15
-7.16642e-15
1.01096e-14
-1.99337e-14
3.33357e-14
-5.34405e-14
-2.32411e-13
1.19378e-13
-3.93692e-27
2.25932e-24
9.72484e-27
-4.30577e-24
-1.44489e-24
-2.58002e-21
-3.66975e-20
-3.64165e-20
-4.25089e-18
-6.32479e-18
-1.59119e-17
-5.54601e-17
-3.61729e-17
-1.50668e-16
-2.546e-16
-7.12635e-16
-1.46771e-15
-4.08332e-15
-2.97484e-15
-9.47187e-15
-3.43715e-15
-1.16806e-14
-3.24501e-15
-5.31496e-15
-2.80893e-15
-1.17881e-15
-1.17419e-15
-7.46211e-17
-9.26289e-19
-8.88261e-18
-1.44501e-18
-8.43665e-19
-1.26596e-17
-2.00757e-17
-1.48689e-17
-1.70193e-16
1.50395e-16
-1.04637e-15
1.17351e-15
-4.54029e-15
5.27004e-15
-1.4633e-14
2.03483e-14
-4.47769e-14
-1.78425e-13
8.54631e-14
-5.50877e-27
2.5729e-24
-1.40347e-24
1.69536e-25
-2.4695e-23
-2.04266e-21
-5.88805e-21
-1.14043e-20
-2.54824e-19
-1.53704e-20
-1.28086e-18
-1.48543e-18
-6.62214e-18
-3.63202e-17
-7.13702e-17
-1.73821e-16
-3.52168e-16
-5.62707e-16
-6.70305e-16
-1.31618e-15
-5.55741e-16
-1.61525e-15
-1.67907e-16
-8.68029e-16
-1.31737e-17
-2.3801e-16
-2.09831e-18
-4.24542e-17
-9.58456e-20
-1.50322e-17
-2.51639e-19
-2.67573e-19
-2.45366e-18
-3.92052e-18
-1.10835e-17
-4.84723e-17
5.13977e-18
-4.41518e-16
3.27038e-16
-2.59702e-15
2.0484e-15
-1.01234e-14
9.26389e-15
-3.32487e-14
-1.29153e-13
5.08968e-14
6.6029e-28
1.82151e-24
-1.34549e-23
1.46885e-23
-8.43794e-23
2.01952e-23
-1.45866e-22
-1.34084e-23
-1.68781e-21
-3.04198e-21
-2.65993e-19
-8.29372e-19
-2.79721e-18
-1.60864e-17
-1.33811e-17
-5.50477e-17
-5.44504e-17
-1.08323e-16
-9.32471e-17
-1.33327e-16
-8.40388e-17
-1.05033e-16
-3.07515e-17
-5.07883e-17
-9.0328e-18
-1.63216e-17
-3.92178e-18
-1.13623e-17
-2.63771e-20
-1.09218e-17
-4.57062e-20
-6.18834e-20
-5.75917e-19
-8.0241e-19
-5.72951e-18
-1.25932e-17
-3.07787e-17
-1.66638e-16
-4.06807e-17
-1.38395e-15
2.86852e-16
-6.67474e-15
2.25448e-15
-2.28725e-14
-8.06841e-14
1.76323e-14
8.71731e-26
5.28592e-25
2.61711e-25
4.39843e-24
-3.16563e-25
9.04193e-24
-1.36059e-23
-1.19055e-25
-2.47312e-21
-2.48299e-23
-1.70279e-19
-4.06997e-21
-1.29314e-18
-8.17663e-19
-4.65403e-18
-1.31419e-17
-8.95052e-18
-4.72607e-17
-1.036e-17
-7.42076e-17
-7.44792e-18
-7.8652e-17
-2.14409e-18
-3.68629e-17
-9.96606e-19
-7.29143e-18
-1.14704e-18
-9.69783e-19
-6.18339e-21
-1.04052e-19
-9.80103e-21
-1.77985e-20
-1.3587e-19
-1.82082e-19
-2.22508e-18
-3.41633e-18
-2.65658e-17
-5.79937e-17
-1.57402e-16
-6.57634e-16
-4.64131e-16
-4.0156e-15
-2.02549e-15
-1.62887e-14
-8.12815e-14
-1.05134e-16
3.30217e-26
7.57699e-26
1.4389e-25
6.24216e-25
-3.478e-27
1.27543e-24
-1.05812e-25
-1.67209e-26
-1.99746e-23
-3.15416e-24
-2.5984e-21
-4.65994e-22
-1.56407e-19
-9.03868e-20
-1.72481e-18
-2.49804e-18
-4.71524e-18
-1.23886e-17
-7.48674e-18
-2.46384e-17
-5.79358e-18
-2.97673e-17
-1.37727e-18
-1.2687e-17
-1.74676e-19
-3.83626e-18
-1.71067e-20
-3.60942e-19
-1.98191e-21
-2.44273e-20
-2.81932e-21
-6.55313e-21
-3.7637e-20
-5.11143e-20
-7.97633e-19
-1.0414e-18
-1.48221e-17
-1.98115e-17
-1.40665e-16
-2.86225e-16
-6.10839e-16
-2.27453e-15
-4.56489e-15
-1.14917e-14
-8.46833e-14
-2.86515e-15
5.46468e-27
-3.7233e-36
2.3309e-26
-2.88893e-33
-5.53084e-28
-1.07031e-30
-1.70364e-26
-2.37573e-28
-2.87856e-24
-4.03415e-26
-3.91078e-22
-5.4606e-24
-2.2956e-20
-6.56361e-22
-3.52186e-19
-9.33463e-20
-1.31561e-18
-9.7357e-19
-2.137e-18
-2.52101e-18
-1.48632e-18
-3.02848e-18
-6.4585e-19
-1.97128e-18
-7.24481e-20
-1.14798e-18
-4.61591e-21
-1.07825e-19
-8.02646e-22
-8.4599e-21
-1.08178e-21
-2.35852e-21
-1.30011e-20
-1.82307e-20
-2.96984e-19
-3.73124e-19
-6.84224e-18
-7.49914e-18
-9.18762e-17
-1.27113e-16
-5.36391e-16
-1.28212e-15
-4.07071e-15
-8.86776e-15
-9.08598e-14
2.16145e-15
-3.68363e-36
-3.96667e-38
-2.86385e-33
-2.87577e-35
-1.06316e-30
-1.00066e-32
-2.31981e-28
-1.17195e-30
-3.8646e-26
-1.92111e-28
-5.3347e-24
-2.48018e-26
-4.78206e-22
-2.79262e-24
-2.02937e-20
-4.04103e-22
-1.24292e-19
-5.21687e-21
-1.99953e-19
-1.44711e-20
-1.83124e-19
-1.87245e-20
-1.40905e-19
-1.63715e-20
-1.95845e-20
-5.77028e-21
-1.5963e-21
-1.89365e-21
-3.06105e-22
-9.32496e-22
-4.29693e-22
-6.93822e-22
-5.43146e-21
-6.61485e-21
-1.2652e-19
-1.39854e-19
-3.13362e-18
-2.88227e-18
-5.43747e-17
-5.3253e-17
-4.23422e-16
-7.48322e-16
-2.57588e-15
-7.63265e-15
-9.09914e-14
7.47306e-15
-3.94513e-38
-2.15426e-40
-2.84814e-35
-1.4894e-37
-9.88916e-33
-4.97012e-35
-1.17276e-30
-5.591e-33
-1.84199e-28
-8.91816e-31
-2.42157e-26
-1.13079e-28
-2.25752e-24
-1.2086e-26
-1.03194e-22
-1.75905e-24
-6.72894e-22
-3.71509e-23
-1.24335e-21
-1.53791e-22
-1.37258e-21
-2.77486e-22
-7.26697e-22
-3.24531e-22
-2.5215e-22
-3.04044e-22
-1.14654e-22
-1.71647e-22
-9.21157e-23
-1.06409e-22
-1.49927e-22
-2.16728e-22
-2.38478e-21
-3.17685e-21
-5.73988e-20
-7.24198e-20
-1.34831e-18
-1.52448e-18
-2.86979e-17
-2.8668e-17
-3.67719e-16
-4.65452e-16
-1.26338e-15
-6.01989e-15
-7.74832e-14
1.20781e-14
-2.15356e-40
-7.02358e-44
-1.48949e-37
-4.72091e-41
-4.97928e-35
-1.53817e-38
-5.74333e-33
-1.71043e-36
-8.95949e-31
-2.6595e-34
-1.13678e-28
-3.29271e-32
-1.10157e-26
-3.32652e-30
-5.20797e-25
-2.88968e-28
-5.65779e-24
-3.45099e-26
-1.68652e-23
-8.31848e-25
-2.55605e-23
-3.65293e-24
-2.85668e-23
-6.49229e-24
-2.18122e-23
-7.25156e-24
-1.2102e-23
-5.10621e-24
-1.42139e-23
-3.7617e-24
-8.36913e-23
-6.8444e-23
-1.37188e-21
-1.67081e-21
-3.50254e-20
-3.89345e-20
-8.14358e-19
-8.1522e-19
-1.7766e-17
-1.52052e-17
-2.82648e-16
-2.50407e-16
-2.32649e-15
-3.54135e-15
-4.53128e-14
-2.96466e-14
-7.01936e-44
-4.22576e-47
-4.73853e-41
-3.71286e-44
-1.55242e-38
-1.54258e-41
-1.76617e-36
-2.32763e-39
-2.63522e-34
-3.53715e-37
-3.27609e-32
-4.36661e-35
-3.32978e-30
-4.39669e-33
-2.73321e-28
-3.71592e-31
-1.3043e-26
-3.39829e-29
-1.59696e-25
-2.44981e-27
-4.7947e-25
-1.66967e-26
-6.63302e-25
-3.6895e-26
-5.8505e-25
-4.54587e-26
-4.223e-25
-5.35278e-26
-3.15652e-24
-7.5066e-25
-4.76178e-23
-2.05425e-23
-1.15045e-21
-5.31429e-22
-2.76298e-20
-1.22929e-20
-6.01422e-19
-2.53008e-19
-1.16909e-17
-4.61182e-18
-2.01631e-16
-7.4036e-17
-2.90442e-15
-1.04562e-15
-1.42719e-14
-3.74895e-14
-8.62211e-47
-1.16091e-50
-6.91613e-44
-7.62155e-48
-2.62724e-41
-2.42452e-45
-2.35197e-39
-3.4809e-43
-3.55844e-37
-5.29227e-41
-4.39503e-35
-6.55878e-39
-4.43554e-33
-6.62798e-37
-3.75636e-31
-5.60798e-35
-2.43983e-29
-4.08922e-33
-6.07955e-28
-3.83124e-31
-2.56323e-27
-1.37861e-29
-3.90265e-27
-7.91804e-29
-3.83162e-27
-2.28405e-28
-1.01537e-26
-3.51792e-27
-6.43812e-25
-1.07475e-25
-1.86797e-23
-3.09364e-24
-4.93204e-22
-7.93686e-23
-1.16762e-20
-1.80767e-21
-2.46488e-19
-3.64584e-20
-4.61908e-18
-6.48857e-19
-7.60064e-17
-1.01543e-17
-1.1402e-15
-1.40795e-16
-2.09147e-15
-1.88832e-14
-1.16025e-50
-6.68198e-54
-7.61328e-48
-4.43994e-51
-2.42639e-45
-1.43099e-48
-3.49524e-43
-2.08761e-46
-5.31223e-41
-3.21889e-44
-6.58151e-39
-4.01017e-42
-6.67069e-37
-4.07285e-40
-5.66023e-35
-3.46103e-38
-4.0665e-33
-2.5044e-36
-1.96393e-31
-1.58646e-34
-3.42301e-30
-1.06639e-32
-8.22811e-30
-2.74497e-31
-3.80695e-29
-8.43074e-30
-3.26198e-27
-3.00544e-28
-1.05003e-25
-9.80225e-27
-3.07212e-24
-2.83789e-25
-8.02143e-23
-7.27716e-24
-1.86325e-21
-1.65082e-22
-3.84199e-20
-3.30676e-21
-7.01067e-19
-5.83316e-20
-1.11932e-17
-9.03072e-19
-2.00349e-16
-1.22755e-17
-1.92003e-16
-3.24889e-15
-6.54476e-54
-1.37227e-55
-4.32611e-51
-9.33823e-53
-1.38898e-48
-3.08788e-50
-2.02526e-46
-4.62968e-48
-3.07366e-44
-7.43498e-46
-3.84585e-42
-9.58862e-44
-3.93553e-40
-1.00773e-41
-3.36975e-38
-8.8494e-40
-2.45819e-36
-6.60696e-38
-1.63496e-34
-4.24644e-36
-1.58002e-33
-2.37097e-34
-6.97343e-32
-1.14968e-32
-7.95911e-30
-4.90585e-31
-3.01651e-28
-1.85294e-29
-9.9878e-27
-6.18175e-28
-2.93393e-25
-1.82225e-26
-7.64843e-24
-4.74556e-25
-1.76831e-22
-1.09101e-23
-3.62135e-21
-2.21104e-22
-6.55572e-20
-3.93906e-21
-1.0379e-18
-6.15011e-20
-1.83254e-17
-8.40786e-19
-1.35145e-17
-3.41878e-16
-1.34021e-55
-3.20627e-57
-9.1055e-53
-2.27299e-54
-3.00873e-50
-7.84614e-52
-4.53338e-48
-1.22782e-49
-7.25308e-46
-2.08583e-47
-9.38109e-44
-2.81725e-45
-9.89887e-42
-3.1001e-43
-8.73468e-40
-2.84892e-41
-6.55823e-38
-2.22416e-39
-4.24244e-36
-1.49324e-37
-2.38355e-34
-8.69692e-36
-1.16489e-32
-4.42239e-34
-5.027e-31
-1.97215e-32
-1.92016e-29
-7.73571e-31
-6.48735e-28
-2.67368e-29
-1.94025e-26
-8.15163e-28
-5.13954e-25
-2.19121e-26
-1.2062e-23
-5.18816e-25
-2.50801e-22
-1.08185e-23
-4.5687e-21
-1.98357e-22
-7.18667e-20
-3.19088e-21
-1.22639e-18
-4.49029e-20
-7.49076e-19
-2.69072e-17
-3.16997e-57
-3.62958e-59
-2.24731e-54
-2.91805e-56
-7.75678e-52
-1.12759e-53
-1.22224e-49
-1.99911e-51
-2.06777e-47
-3.62806e-49
-2.80217e-45
-5.21172e-47
-3.09644e-43
-6.09758e-45
-2.85956e-41
-5.95521e-43
-2.24513e-39
-4.93817e-41
-1.517e-37
-3.51912e-39
-8.90212e-36
-2.1732e-37
-4.56537e-34
-1.16988e-35
-2.05559e-32
-5.51548e-34
-8.15487e-31
-2.28397e-32
-2.85866e-29
-8.32215e-31
-8.85826e-28
-2.67056e-29
-2.41798e-26
-7.54861e-28
-5.79838e-25
-1.8789e-26
-1.22656e-23
-4.1155e-25
-2.2867e-22
-7.92322e-24
-3.7167e-21
-1.33839e-22
-6.63486e-20
-1.97594e-21
-3.48097e-20
-1.62842e-18
-3.66789e-59
-2.32188e-61
-2.83912e-56
-1.91975e-58
-1.06753e-53
-7.68534e-56
-1.99539e-51
-1.77513e-53
-3.6355e-49
-3.49917e-51
-5.24289e-47
-5.44462e-49
-6.16306e-45
-6.89581e-47
-6.05251e-43
-7.28628e-45
-5.05245e-41
-6.53223e-43
-3.62699e-39
-5.02827e-41
-2.25543e-37
-3.35199e-39
-1.22141e-35
-1.94677e-37
-5.79592e-34
-9.89003e-36
-2.41725e-32
-4.4073e-34
-8.87675e-31
-1.72579e-32
-2.87442e-29
-5.94645e-31
-8.21029e-28
-1.80328e-29
-2.06853e-26
-4.81161e-28
-4.59568e-25
-1.12911e-26
-8.99815e-24
-2.32806e-25
-1.53923e-22
-4.21097e-24
-2.9561e-21
-6.65261e-23
-1.25835e-21
-8.22503e-20
-2.31432e-61
-7.4014e-64
-1.91612e-58
-6.9739e-61
-7.68614e-56
-3.12765e-58
-1.78162e-53
-8.05934e-56
-3.53149e-51
-1.76846e-53
-5.51006e-49
-3.05527e-51
-6.99772e-47
-4.29006e-49
-7.41676e-45
-5.01936e-47
-6.67283e-43
-4.97751e-45
-5.15665e-41
-4.23342e-43
-3.45253e-39
-3.11487e-41
-2.01488e-37
-1.99468e-39
-1.02916e-35
-1.11619e-37
-4.61433e-34
-5.47335e-36
-1.81938e-32
-2.35595e-34
-6.31833e-31
-8.91419e-33
-1.93408e-29
-2.96692e-31
-5.21943e-28
-8.68497e-30
-1.24152e-26
-2.23459e-28
-2.6023e-25
-5.04955e-27
-4.77408e-24
-1.00069e-25
-1.00374e-22
-1.73118e-24
-3.58835e-23
-3.20403e-21
-7.39195e-64
-9.45363e-67
-6.97623e-61
-1.07703e-63
-3.13721e-58
-5.64301e-61
-8.10526e-56
-1.68215e-58
-1.78094e-53
-4.24345e-56
-3.08295e-51
-8.40371e-54
-4.33854e-49
-1.34942e-51
-5.08858e-47
-1.80175e-49
-5.05997e-45
-2.03519e-47
-4.3168e-43
-1.96833e-45
-3.18721e-41
-1.64439e-43
-2.04902e-39
-1.19408e-41
-1.15174e-37
-7.56859e-40
-5.67684e-36
-4.19986e-38
-2.45814e-34
-2.04402e-36
-9.3654e-33
-8.73748e-35
-3.14229e-31
-3.28266e-33
-9.29247e-30
-1.08455e-31
-2.4211e-28
-3.14783e-30
-5.55705e-27
-8.01905e-29
-1.11794e-25
-1.79036e-27
-2.62591e-24
-3.48671e-26
-8.12377e-25
-9.74931e-23
-9.44994e-67
-3.69088e-70
-1.07826e-63
-5.49935e-67
-5.6562e-61
-3.54068e-64
-1.6872e-58
-1.27267e-61
-4.26533e-56
-3.85515e-59
-8.45915e-54
-9.11208e-57
-1.36053e-51
-1.74116e-54
-1.81988e-49
-2.75945e-52
-2.05985e-47
-3.69085e-50