/*--------------------------------*- C++ -*----------------------------------*\
| =========                 |                                                 |
| \\      /  F ield         | OpenFOAM: The Open Source CFD Toolbox           |
|  \\    /   O peration     | Version:  5.x                                   |
|   \\  /    A nd           | Web:      www.OpenFOAM.org                      |
|    \\/     M anipulation  |                                                 |
\*---------------------------------------------------------------------------*/
FoamFile
{
    version     2.0;
    format      ascii;
    class       volScalarField;
    location    "0.25";
    object      alpha.water;
}
// * * * * * * * * * * * * * * * * * * * * * * * * * * * * * * * * * * * * * //

dimensions      [0 0 0 0 0 0 0];

internalField   nonuniform List<scalar> 
2268
(
1
1
1
1
1
1
1
1
1
1
1
1
1
1
1
1
1
1
1
1
0.974965
0.729053
0.718752
1
1
1
1
1
1
1
1
1
1
1
1
1
1
1
1
1
1
1
1
0.996747
0.955598
1
1
1
1
1
1
1
1
1
1
1
1
1
1
1
1
1
1
1
1
1
1
0.999932
0.985154
1
1
1
1
1
1
1
1
1
1
1
1
1
1
1
1
1
1
1
1
1
0.999993
0.992529
1
1
1
1
1
1
1
1
1
1
1
1
1
1
1
1
1
1
1
1
1
0.999999
1
1
1
1
1
1
1
1
1
1
1
1
1
1
1
1
1
1
1
1
1
1
1
1
1
1
1
1
1
1
1
1
1
1
1
1
1
1
1
1
1
1
1
1
1
1
1
1
1
1
1
1
1
1
1
1
1
1
1
1
1
1
1
1
1
1
1
1
1
0.969659
4.87443e-17
1.07111e-14
2.74679e-16
-1.63881e-27
-6.02519e-30
-1.95083e-31
7.60103e-25
6.24696e-26
2.72747e-27
1.10633e-28
3.96149e-30
9.74482e-32
2.10693e-33
4.05746e-35
6.61576e-37
8.57359e-39
8.00696e-41
4.5028e-43
9.55855e-46
0
6.54715e-13
1.80192e-14
1.10255e-17
2.55649e-19
6.19062e-21
1.54665e-22
3.94182e-24
1.58858e-25
9.89848e-27
4.57619e-28
1.27601e-29
2.85397e-31
5.67464e-33
9.47826e-35
1.21919e-36
1.03185e-38
3.6074e-41
5.99806e-46
0
6.72844e-12
3.1722e-13
9.74831e-16
2.29902e-17
5.72534e-19
1.48037e-20
3.90991e-22
1.04439e-23
5.25691e-25
2.58186e-26
7.05701e-28
1.55421e-29
2.8675e-31
4.34572e-33
4.72576e-35
3.3815e-37
1.56496e-39
3.49299e-44
-1.46876e-12
1.85218e-10
6.46801e-12
5.0775e-14
1.28683e-15
3.29744e-17
8.68034e-19
2.31894e-20
6.87562e-22
2.70653e-23
1.1738e-24
3.1718e-26
6.77076e-28
1.1712e-29
1.56677e-31
1.75148e-33
1.60446e-35
7.51862e-38
1.70958e-42
-3.57144e-12
5.7268e-09
1.97563e-10
1.6279e-12
4.57017e-14
1.7754e-15
4.28186e-17
1.21752e-18
3.48791e-20
1.13918e-21
4.45052e-23
1.21892e-24
2.55438e-26
4.06839e-28
5.30657e-30
7.12799e-32
6.67335e-34
3.16063e-36
7.4956e-41
-6.79115e-11
4.87958e-07
1.38336e-08
4.50542e-11
1.31091e-12
5.07213e-14
1.68753e-15
4.92394e-17
9.11418e-19
2.81343e-20
1.34376e-21
4.22444e-23
8.89347e-25
1.25423e-26
1.82857e-28
2.54016e-30
2.41891e-32
1.16716e-34
2.91688e-39
-1.97887e-10
4.23187e-05
1.44005e-06
1.13979e-09
3.31931e-11
9.57922e-13
2.94009e-14
1.5916e-15
2.25028e-17
6.51164e-19
2.99156e-20
1.47018e-21
3.39454e-23
3.93986e-25
5.96003e-27
8.54646e-29
8.31889e-31
4.1019e-33
1.08775e-37
-3.39336e-09
0.000191022
3.94392e-06
2.79106e-08
8.35187e-10
2.48016e-11
7.60409e-13
2.36904e-14
6.91719e-16
2.20745e-17
8.8039e-19
5.95302e-20
1.62263e-21
1.56836e-23
2.378e-25
3.56701e-27
3.58988e-29
1.81174e-31
5.12107e-36
1
1
1
1
1
1
1
1
1
1
1
1
1
1
1
1
1
1
1
1
1
1
0.949756
1
1
1
1
1
1
1
1
1
1
1
1
1
1
1
1
1
0.999996
1
1
1
1
0.976067
1
1
1
1
1
1
1
1
1
1
0.999999
0.999999
0.999998
0.999994
0.999986
0.999979
0.99998
0.999994
0.999999
1
1
1
1.00001
1
1
0.999999
1
1
0.999999
0.999999
0.999998
0.999997
0.999993
0.999984
0.999963
0.999927
0.999804
0.999575
0.989218
0.947286
0.892439
0.856772
0.894577
0.999996
0.999999
0.999358
1
0.999995
0.999993
0.999993
0.999993
0.99999
0.999983
0.999967
0.999935
0.999877
0.999708
0.999303
0.99237
0.914746
0.718376
0.454875
0.243436
0.139058
0.0799769
0.101859
0.174394
0.339126
0.580389
1
0.999917
0.999905
0.99991
0.999893
0.999852
0.999742
0.999495
0.999021
0.990206
0.927306
0.756635
0.485912
0.156526
0.000177258
6.76902e-05
4.50199e-05
6.13075e-05
0.000150809
0.000225727
0.000563375
0.00122235
0.0162087
1
0.998977
0.99887
0.99884
0.998558
0.990244
0.95606
0.87533
0.724106
0.47392
0.230533
0.0035112
3.40558e-05
4.09979e-05
4.10175e-05
3.98775e-05
3.96367e-05
4.50199e-05
0.000254845
0.000556769
0.000623728
0.000617942
0.000332356
0.954729
0.760782
0.749266
0.712475
0.624292
0.474201
0.309997
0.158382
0.0199864
7.21937e-08
3.80775e-08
2.24213e-06
1.80005e-05
3.5489e-05
3.97726e-05
3.97041e-05
3.98775e-05
0.00030281
0.00220025
0.00222058
0.0022083
0.000554602
7.49574e-05
0.293195
0.0827313
0.0665727
0.0438389
0.00575902
4.20291e-13
4.61481e-12
1.22874e-11
1.02442e-11
5.6167e-11
1.74881e-08
3.82765e-08
2.24365e-06
7.41924e-05
4.51162e-05
3.98775e-05
3.97436e-05
0.00149266
0.00222058
0.00222058
0.00198841
0.000264532
1.08729e-05
-1.32476e-19
-2.63561e-19
2.19664e-34
8.73437e-19
1.01478e-16
1.10475e-14
4.22883e-13
4.62635e-12
1.1145e-11
1.33436e-11
-9.82852e-11
1.12724e-08
0.000213562
0.000440129
0.00021141
4.23854e-05
0.000132592
0.00218381
0.00221306
0.00218567
0.000383927
5.63205e-06
1.03788e-06
-3.76465e-19
-5.57649e-19
6.42235e-18
4.73531e-16
2.48327e-14
1.70187e-12
4.51566e-11
8.57557e-11
1.34383e-11
1.85191e-11
4.63754e-11
0.000168411
0.000454731
0.000445111
0.000227149
5.78921e-05
0.00102416
0.00218835
0.00220554
0.000697241
3.60182e-06
3.68265e-07
5.02778e-08
-4.50267e-19
-2.55091e-19
1.08385e-16
1.18252e-14
1.08105e-12
4.01831e-11
2.84293e-10
2.681e-10
2.2875e-11
3.14995e-11
1.49461e-09
0.000334269
0.000454731
0.000268673
0.000241588
0.000480346
0.00206784
0.00211629
0.00107829
6.91276e-06
6.32965e-08
6.60827e-09
2.46043e-09
-3.79145e-19
3.68795e-19
3.43066e-16
4.70303e-14
5.6427e-12
1.4561e-10
4.89923e-10
3.56057e-10
3.79997e-11
1.20751e-11
5.16486e-06
1.53942e-05
0.000434525
0.000791504
0.000480131
0.0019674
0.00201954
0.00102767
-1.64401e-12
1.4874e-11
2.58996e-11
3.54563e-11
1.79869e-09
-2.4107e-19
1.7496e-18
5.21695e-16
8.62004e-14
1.33033e-11
2.53537e-10
5.47445e-10
3.54531e-10
4.98091e-11
7.68748e-08
1.02695e-05
9.24567e-07
0.000117588
0.00138468
0.00151378
0.0014806
0.000406473
8.00531e-12
8.00441e-12
1.5409e-11
2.53908e-11
2.75527e-11
1.79848e-09
-1.13959e-19
2.36314e-18
5.65081e-16
1.03758e-13
1.9037e-11
2.91262e-10
5.47445e-10
2.56069e-10
8.54163e-11
3.50296e-09
2.96816e-07
1.90498e-11
1.1916e-05
0.000172738
0.000349178
5.13635e-13
6.51755e-13
1.60856e-11
5.78399e-11
1.13315e-10
1.61527e-10
1.41012e-10
2.86316e-09
-3.67153e-20
1.8374e-18
3.57511e-16
9.66442e-14
2.03922e-11
2.58397e-10
4.59951e-10
1.452e-10
1.23734e-10
7.35757e-11
1.90499e-11
1.20079e-11
5.70012e-12
1.34985e-12
5.13635e-13
3.88698e-13
4.81054e-12
2.99337e-11
6.59945e-11
9.2291e-11
1.6502e-10
2.53997e-10
2.29257e-09
-7.16426e-21
4.21838e-19
7.2771e-17
3.89041e-14
1.2757e-11
1.14414e-10
1.71876e-10
7.75266e-11
1.26617e-10
1.51653e-10
9.16651e-11
9.56232e-11
6.88789e-11
6.22579e-11
1.32675e-11
3.20959e-13
6.96703e-12
2.1259e-11
4.4705e-11
8.65024e-11
1.71194e-10
3.31797e-10
1.15173e-09
-3.86775e-21
2.80051e-20
2.24932e-18
6.62984e-15
2.96816e-12
2.55524e-11
3.95325e-11
3.27109e-11
1.25077e-10
1.96028e-10
1.96028e-10
1.87567e-10
1.57784e-10
1.23493e-10
3.0606e-11
1.42434e-13
2.34824e-12
8.54547e-12
2.20898e-11
5.47702e-11
1.29529e-10
2.91731e-10
1.12247e-09
-8.27247e-21
1.65961e-20
9.8091e-18
4.16874e-16
3.46979e-13
3.13865e-12
5.41463e-12
9.84609e-12
5.70571e-11
1.32379e-10
1.59135e-10
1.13566e-10
8.58308e-11
6.15395e-11
1.91775e-11
5.17043e-15
3.43495e-13
2.46594e-12
9.92767e-12
3.27345e-11
9.10109e-11
2.38621e-10
9.27919e-10
-1.36101e-20
2.1494e-20
1.52295e-17
1.12802e-16
1.7423e-14
1.5389e-13
4.80662e-13
2.3635e-12
1.26386e-11
2.87604e-11
3.52981e-11
1.55081e-11
3.34232e-12
2.32556e-13
3.77573e-14
2.7323e-15
6.53412e-14
6.00374e-13
4.08159e-12
1.8786e-11
6.09045e-11
1.78516e-10
6.0904e-10
-1.55161e-20
-1.00142e-21
7.99318e-18
3.75718e-17
3.24844e-17
5.52332e-15
1.36516e-13
6.11441e-13
1.78196e-12
3.91006e-12
4.68123e-12
2.55376e-12
7.27886e-13
2.17235e-13
8.643e-14
8.08073e-16
1.16958e-14
1.58095e-13
1.57766e-12
9.94282e-12
3.95263e-11
1.23148e-10
4.26679e-10
-1.10286e-20
-8.72317e-20
-1.19542e-19
-3.24001e-33
1.65381e-18
3.11634e-15
5.69778e-14
1.95065e-13
4.08313e-13
5.32097e-13
4.80471e-13
2.26619e-13
6.07154e-14
3.48401e-14
3.9271e-14
1.83728e-16
2.2012e-15
3.71732e-14
5.43208e-13
4.90817e-12
2.44829e-11
8.27932e-11
2.99028e-10
-3.21992e-21
-2.63072e-20
-5.39474e-20
-8.89704e-35
2.32274e-21
2.13317e-18
2.29054e-15
4.40519e-14
1.80529e-13
3.09044e-13
3.71972e-13
1.69345e-13
3.06734e-14
3.40192e-15
3.25246e-16
5.63724e-17
4.52667e-16
9.08322e-15
1.71802e-13
2.15931e-12
1.38317e-11
5.74691e-11
2.81064e-10
-4.6511e-22
-3.76527e-21
-7.67941e-21
-1.58934e-36
3.20981e-22
1.48145e-19
2.36146e-16
7.69958e-15
4.02346e-14
8.25337e-14
9.96029e-14
4.2627e-14
1.50906e-14
1.33866e-15
8.73087e-17
2.12681e-17
1.14158e-16
2.43435e-15
5.22663e-14
8.71867e-13
7.32007e-12
3.5323e-11
2.19246e-10
0
-3.19653e-45
0
3.25495e-27
2.56013e-24
2.50673e-22
4.64508e-19
2.57962e-16
2.84591e-15
7.43939e-15
8.90838e-15
5.94509e-15
3.65929e-15
3.43968e-16
2.86442e-17
7.12706e-18
3.48254e-17
7.10679e-16
1.63019e-14
3.34142e-13
3.44139e-12
1.78582e-11
1.46133e-10
-2.43876e-50
7.03108e-35
5.0155e-32
5.39162e-30
1.21116e-26
1.17294e-24
1.57291e-21
1.09898e-18
1.4931e-17
4.15124e-17
5.36704e-17
4.69417e-17
1.66939e-17
5.59878e-18
2.83381e-18
1.81211e-18
8.9107e-18
1.79049e-16
4.04822e-15
8.8393e-14
1.20261e-12
8.40139e-12
9.14747e-11
-9.52639e-53
8.4105e-38
2.69464e-35
-6.62839e-32
2.33255e-30
4.12331e-28
3.46948e-24
4.5579e-21
1.06937e-19
4.48244e-19
8.12614e-19
9.52828e-19
9.07429e-19
5.18132e-19
3.08564e-19
3.62374e-19
2.02678e-18
4.55031e-17
1.0282e-15
2.17045e-14
3.46431e-13
3.76016e-12
5.88325e-11
0
-5.04395e-41
-5.29808e-38
-1.42936e-35
5.32754e-33
5.89423e-31
4.59839e-29
6.18438e-26
8.62786e-23
2.42581e-21
1.08311e-20
1.92824e-20
2.15502e-20
1.48038e-20
4.31764e-21
2.25993e-20
5.36325e-19
1.30339e-17
2.85246e-16
5.59623e-15
9.73707e-14
1.57635e-12
3.09807e-11
-1.98814e-44
-1.72375e-41
-7.06996e-39
1.21443e-39
2.76358e-37
9.58545e-35
7.61715e-33
2.38089e-30
4.74769e-26
7.13582e-24
5.00829e-23
1.10927e-22
1.33746e-22
9.09348e-23
2.34924e-22
4.34406e-21
1.19112e-19
2.95716e-18
6.56023e-17
1.2958e-15
2.1216e-14
6.57062e-13
1.58681e-11
-2.16067e-51
1.04151e-47
3.43139e-45
7.42003e-43
2.58831e-40
4.64336e-38
3.99815e-36
2.87846e-34
3.14242e-31
8.26209e-28
4.1602e-26
2.33406e-25
4.13155e-25
9.25679e-25
1.73455e-23
5.3663e-22
1.50557e-20
3.76591e-19
8.37782e-18
1.65326e-16
2.66519e-15
1.37157e-13
2.45542e-12
-8.17794e-66
1.5577e-50
1.04307e-47
3.31672e-45
1.94609e-42
2.69646e-40
2.91472e-38
2.65436e-36
2.01517e-34
5.35699e-32
1.69744e-29
2.29953e-28
1.49924e-27
3.98589e-26
1.41327e-24
4.54146e-23
1.29812e-21
3.29352e-20
7.40239e-19
1.46923e-17
2.35357e-16
9.7018e-15
2.76333e-13
4.11721e-68
3.26221e-52
2.23696e-49
1.17607e-47
2.70195e-44
4.20059e-42
5.12044e-40
5.13109e-38
4.32642e-36
3.12328e-34
1.96776e-32
1.08571e-30
5.13844e-29
2.17487e-27
8.15246e-26
2.70817e-24
7.95856e-23
2.07063e-21
4.71996e-20
9.21034e-19
1.41896e-17
5.72749e-16
2.18572e-14
-5.41325e-71
-9.52833e-55
-8.94673e-52
3.92202e-50
6.28849e-46
1.04147e-43
1.35219e-41
1.43881e-39
1.28589e-37
9.8235e-36
6.46483e-34
3.71165e-32
1.87115e-30
8.28572e-29
3.21969e-27
1.10837e-25
3.30322e-24
8.45947e-23
1.91982e-21
3.86199e-20
6.36753e-19
2.99194e-17
1.35098e-15
-1.29e-56
-9.65812e-54
-3.45038e-51
2.92074e-50
9.16102e-48
1.62128e-45
2.24808e-43
2.54604e-41
2.40451e-39
1.94833e-37
1.34337e-35
7.87726e-34
4.04706e-32
1.8274e-30
7.26728e-29
2.56648e-27
8.0314e-26
2.22715e-24
5.47668e-23
1.19513e-21
2.14853e-20
1.28054e-18
6.83099e-17
-1.67772e-62
7.29357e-58
6.12812e-55
2.51904e-52
7.05511e-50
1.21932e-47
1.69851e-45
1.98777e-43
1.98515e-41
1.70266e-39
1.26518e-37
8.19584e-36
4.64955e-34
2.31741e-32
1.01708e-30
3.93694e-29
1.35855e-27
4.16856e-26
1.13508e-24
2.74643e-23
5.51192e-22
4.23754e-20
2.68014e-18
3.1645e-78
2.34084e-60
1.88353e-57
6.55306e-55
1.66757e-52
3.32106e-50
5.36242e-48
7.20807e-46
8.20717e-44
8.01397e-42
6.77129e-40
4.98325e-38
3.20962e-36
1.81554e-34
9.04191e-33
3.97204e-31
1.54128e-29
5.37228e-28
1.66497e-26
4.58995e-25
1.05758e-23
1.09649e-21
8.30058e-20
6.07526e-79
1.79895e-63
1.18043e-60
8.35208e-59
1.5212e-55
3.63262e-53
6.9843e-51
1.1152e-48
1.50498e-46
1.73815e-44
1.73383e-42
1.50406e-40
1.14052e-38
7.58962e-37
4.44543e-35
2.29701e-33
1.04887e-31
4.2554e-30
1.55577e-28
5.06187e-27
1.38758e-25
2.19131e-23
1.99946e-21
-2.7748e-82
-9.53741e-67
-1.31145e-63
-4.68784e-61
3.70204e-59
1.10799e-56
2.67609e-54
5.3547e-52
9.03477e-50
1.30156e-47
1.61565e-45
1.7374e-43
1.62871e-41
1.34032e-39
9.71455e-38
6.21969e-36
3.51067e-34
1.75412e-32
7.88296e-31
3.17819e-29
1.08878e-27
3.20034e-25
3.48456e-23
-5.11485e-72
-9.59383e-69
-6.96312e-66
2.01039e-66
1.07547e-63
4.43092e-61
1.46865e-58
4.02295e-56
9.1794e-54
1.77101e-51
2.56164e-49
3.16022e-47
4.16518e-45
5.24845e-43
5.90585e-41
5.20332e-39
3.97963e-37
2.66815e-35
1.58761e-33
8.56475e-32
3.95882e-30
3.19795e-27
3.95355e-25
5.04551e-93
1.70687e-79
3.77371e-76
4.78602e-73
4.26138e-70
2.8224e-67
6.3277e-65
-9.49105e-61
-7.00732e-58
-2.18913e-55
-4.72306e-53
-7.68789e-51
-9.5704e-49
-8.64574e-47
-4.27467e-45
2.31363e-43
5.31912e-41
6.12678e-39
5.79591e-37
4.90192e-35
3.60754e-33
2.1886e-29
2.37655e-27
2.53295e-100
7.1965e-94
4.89456e-90
-3.57415e-81
-9.49443e-76
-7.47896e-72
-9.08012e-69
-6.42775e-66
-3.30993e-63
-1.32987e-60
-4.29756e-58
-1.13171e-55
-2.43165e-53
-4.21147e-51
-5.65822e-49
-5.21041e-47
-1.09611e-45
-2.73522e-44
2.38728e-43
7.3237e-41
1.60905e-38
9.46127e-32
4.58964e-30
0
0
-9.37697e-96
-4.69213e-90
-2.05319e-87
-4.75243e-84
-1.13136e-80
-2.05419e-77
-2.96846e-74
-3.4932e-71
-3.39857e-68
-2.7497e-65
-1.8501e-62
-1.02626e-59
-4.58675e-57
-1.55719e-54
-3.26419e-52
-6.76965e-51
-3.0228e-49
-9.39582e-49
-2.53973e-49
9.61416e-37
1.28535e-34
0.955426
1
0.567598
0
0.98337
0.998149
0.963881
0.91568
0.999376
0.998734
0.998604
0.998127
0.998729
0.998723
0.998728
0.998591
0.800953
0.996625
0.998591
0.998125
0.0499886
0.115074
0.197714
0.289317
0.000357393
0.000455778
0.0007283
0.0010267
2.8162e-05
5.33027e-05
4.60494e-05
0.00010327
5.63801e-06
-2.27427e-06
5.96787e-06
1.22868e-06
4.50565e-07
2.47811e-07
-1.09616e-06
-2.42216e-07
1.17065e-08
1.09006e-09
-6.73889e-08
9.51168e-09
2.98193e-09
3.20329e-09
2.80058e-09
7.1621e-09
3.07657e-09
2.80714e-09
2.63103e-09
5.5741e-09
3.11553e-09
2.24188e-09
2.34813e-09
6.36323e-08
2.89315e-09
1.70273e-09
1.85741e-09
2.79497e-09
1.49349e-09
1.36118e-09
1.59982e-09
1.36926e-08
9.70651e-10
1.04046e-09
4.2065e-09
4.82854e-08
7.40378e-10
8.5688e-10
4.12919e-07
5.75304e-07
6.7234e-10
7.17521e-09
3.40114e-07
6.31446e-07
5.27434e-10
5.56895e-08
3.33758e-07
3.6868e-07
3.85607e-10
4.83211e-08
3.42075e-07
6.06551e-07
3.1111e-10
2.38157e-08
1.95984e-07
6.59074e-07
3.31306e-10
8.8031e-09
1.16125e-07
5.16366e-07
3.49993e-10
1.17152e-08
8.8495e-08
2.34874e-07
3.80595e-10
8.24621e-09
5.79391e-08
2.01771e-07
3.02232e-10
6.91575e-09
4.09552e-08
1.72046e-07
3.09985e-10
3.69517e-09
2.1182e-08
8.96168e-08
1.81447e-10
1.65285e-09
8.78147e-09
4.1064e-08
5.47836e-11
2.55218e-10
1.19648e-09
5.32403e-09
6.70936e-12
2.589e-11
1.09819e-10
4.89408e-10
1.21581e-12
5.33967e-12
1.31274e-11
4.00918e-11
1.19095e-13
1.28755e-12
2.78306e-12
3.03036e-12
7.49794e-15
1.04537e-13
2.2176e-13
2.14363e-13
3.8022e-16
6.10268e-15
1.42333e-14
1.27035e-14
1.50236e-17
2.78403e-16
7.26709e-16
6.43739e-16
4.68729e-19
1.02891e-17
3.13579e-17
2.87072e-17
1.1159e-20
3.03102e-19
1.11121e-18
1.05875e-18
1.84441e-22
6.38305e-21
3.04741e-20
3.07147e-20
1.83793e-24
8.95884e-23
5.90004e-22
6.34399e-22
7.5431e-27
6.91437e-25
6.78184e-24
7.74903e-24
8.87277e-31
2.13441e-27
2.91595e-26
1.36109e-26
3.36873e-43
1.45643e-35
9.71829e-34
-8.77678e-30
0.0362483
0.000123552
4.56274e-06
8.04192e-07
1.33668e-07
6.10337e-10
1.89684e-11
8.59698e-13
5.05611e-14
1.70967e-15
2.03164e-17
3.52765e-18
1.65599e-19
2.8997e-21
3.02428e-23
2.35915e-25
2.71723e-27
1.65024e-29
5.83391e-34
0.583235
0.000221097
0.000128601
1.60717e-05
8.05392e-07
1.06311e-08
5.93981e-10
2.19263e-11
1.19232e-12
2.39856e-14
7.05894e-16
3.73503e-16
2.67566e-17
5.20133e-19
6.03465e-21
1.92917e-23
2.76339e-25
2.99672e-27
2.05649e-31
0.996407
0.837649
0.126728
0.000217262
4.18283e-06
3.50064e-07
1.06311e-08
5.96091e-10
6.07604e-11
3.73005e-12
6.15605e-14
2.10622e-14
2.69721e-15
6.64322e-17
6.64217e-19
3.26071e-21
5.28074e-23
6.24257e-25
5.25521e-29
0.998125
0.996407
0.905593
0.263662
0.000203526
4.98167e-06
3.33635e-07
4.15368e-08
4.08505e-09
3.01325e-10
1.35419e-11
2.30239e-13
2.56272e-14
4.09308e-15
7.01362e-17
5.49964e-19
1.0268e-20
1.30828e-22
1.37206e-26
0.996407
0.994707
0.993793
0.933544
0.296346
1.87583e-05
2.81604e-05
3.35253e-06
2.2683e-07
1.615e-08
8.15873e-10
2.2689e-11
7.29884e-13
3.12356e-14
2.01618e-15
6.55229e-17
1.38093e-18
1.60362e-20
1.78383e-24
0.590132
0.993793
0.987111
0.975279
0.879245
0.223028
0.000797915
7.27448e-05
8.6083e-06
6.08086e-07
2.98129e-08
1.22699e-09
5.49604e-11
2.14774e-12
8.69445e-14
4.99492e-15
1.15507e-16
1.14329e-18
1.19116e-22
0.0139337
0.122952
0.669474
0.965497
0.933088
0.661653
0.0842967
0.00138599
0.000121635
9.72697e-06
6.36923e-07
3.82993e-08
2.14794e-09
1.06594e-10
4.55683e-12
1.72966e-13
4.66792e-15
4.63431e-17
5.59895e-21
0.00022097
0.000550549
0.0199181
0.60512
0.904702
0.867723
0.316562
0.00833587
0.000714442
7.03102e-05
6.27152e-06
4.97116e-07
3.35733e-08
1.86413e-09
8.15754e-11
2.67873e-12
8.13333e-14
8.87327e-16
1.30083e-19
2.08154e-05
5.31229e-05
0.000212743
0.0788578
0.748608
0.815501
0.55728
0.0551273
0.00208089
0.000266926
2.88307e-05
2.64098e-06
2.01547e-07
1.24689e-08
6.0266e-10
2.17067e-11
6.66652e-13
7.98411e-15
1.36691e-18
1.50104e-06
5.24261e-06
1.68329e-05
0.000212755
0.408283
0.786764
0.659196
0.125687
0.00378366
0.00057232
7.1848e-05
7.43756e-06
6.28695e-07
4.25566e-08
2.23782e-09
8.79329e-11
2.6882e-12
3.61067e-14
6.87442e-18
4.98911e-08
4.22686e-07
1.57048e-06
1.65388e-05
0.125053
0.689086
0.65764
0.238828
0.0062963
0.000881582
0.000122074
1.37962e-05
1.25817e-06
9.12481e-08
5.11262e-09
2.12166e-10
6.40269e-12
9.7423e-14
1.96786e-17
1.14715e-08
4.90838e-08
2.06737e-07
1.22436e-06
0.00992545
0.555259
0.611586
0.299183
0.009668
0.00105462
0.000154393
1.83863e-05
1.76045e-06
1.3375e-07
7.8355e-09
3.36689e-10
1.03014e-11
1.71639e-13
3.32443e-17
2.00855e-08
5.29735e-08
9.71508e-08
2.18313e-07
1.22436e-06
0.407679
0.591158
0.277757
0.00864513
0.0010382
0.00015516
1.88578e-05
1.84631e-06
1.43816e-07
8.65689e-09
3.80872e-10
1.21968e-11
2.14806e-13
2.8409e-15
3.18562e-07
8.30578e-07
4.22926e-07
4.4862e-07
6.02211e-07
0.339974
0.551272
0.232797
0.00588367
0.000863805
0.000127537
1.53998e-05
1.51101e-06
1.18712e-07
7.24081e-09
3.24729e-10
1.13139e-11
3.0409e-13
1.21173e-14
1.47418e-05
1.17886e-05
1.14511e-06
6.02212e-07
0.00561883
0.356216
0.502468
0.177381
0.00370791
0.000627638
8.88248e-05
1.04119e-05
1.00623e-06
7.86534e-08
4.80751e-09
2.17601e-10
8.27169e-12
8.25479e-13
2.03873e-14
2.59892e-05
2.55216e-05
1.86017e-06
9.03416e-07
0.0591221
0.39503
0.432219
0.113823
0.00254153
0.000399069
5.27236e-05
5.91384e-06
5.57209e-07
4.30037e-08
2.62207e-09
1.19659e-10
5.71259e-12
9.56351e-13
1.85153e-14
2.52191e-05
1.22847e-05
1.06974e-05
3.41864e-06
0.232953
0.379889
0.294209
0.0438764
0.00137338
0.000199628
2.64272e-05
3.00856e-06
2.68812e-07
1.97361e-08
1.19917e-09
7.06509e-11
7.7278e-12
7.24306e-13
1.0531e-14
2.24698e-06
3.08769e-06
7.96646e-06
0.0993243
0.283858
0.327504
0.0981545
0.00653059
0.00057806
0.000114503
1.28516e-05
1.17123e-06
1.09799e-07
8.31481e-09
5.4447e-10
3.7864e-11
8.01878e-12
3.88655e-13
5.03768e-15
6.86528e-07
2.07736e-05
1.62131e-05
0.158872
0.254546
0.118458
0.00655182
0.00128461
0.000222937
5.17263e-05
5.77928e-06
4.68083e-07
3.75426e-08
2.98044e-09
2.28249e-10
4.09784e-11
5.02685e-12
1.52665e-13
2.14281e-15
2.99378e-06
6.07183e-05
1.90887e-05
0.148392
0.250575
0.0967638
0.00258465
0.000396123
4.63455e-05
6.07509e-06
1.16269e-06
1.34483e-07
1.23448e-08
1.16786e-09
1.67915e-10
3.04422e-11
1.83866e-12
5.53853e-14
8.13289e-16
2.16992e-06
6.20421e-05
1.55395e-05
0.0582223
0.250595
0.246891
0.00991664
0.00014434
1.05911e-05
1.23082e-06
1.9531e-07
2.56588e-08
3.05598e-09
3.6183e-10
1.07244e-10
1.26002e-11
6.08585e-13
1.88658e-14
2.83736e-16
3.7842e-06
3.75209e-06
9.15041e-06
2.1844e-05
0.241423
0.235503
0.0786987
0.000629173
1.15375e-05
5.14175e-07
5.41614e-08
6.99481e-09
7.82176e-10
9.55885e-11
3.63916e-11
3.63577e-12
1.87779e-13
6.0411e-15
9.27955e-17
1.49161e-06
1.01621e-05
0.000158145
8.57442e-05
0.144342
0.227855
0.223677
0.0101327
0.000141892
9.06296e-06
4.71731e-07
2.04616e-08
8.12334e-10
3.58067e-11
3.78427e-12
5.46496e-13
3.53391e-14
1.61152e-15
2.8015e-17
8.62745e-07
1.29109e-06
0.000122194
0.000627187
0.00489053
0.223677
0.21368
0.123695
0.00694558
0.000131038
9.05957e-06
4.594e-07
1.4828e-08
3.43497e-10
5.97646e-12
1.60296e-13
4.48639e-15
3.84742e-16
7.95939e-18
1.1407e-06
2.85749e-06
2.69433e-05
0.000458108
0.000498597
0.115482
0.205686
0.195776
0.0223092
0.000275517
2.16422e-05
1.02473e-06
3.09939e-08
6.31283e-10
9.0955e-12
3.05308e-13
1.31458e-14
2.84708e-16
2.78802e-18
8.03463e-07
2.52274e-06
1.18308e-05
0.000337074
0.00346247
0.0071598
0.107055
0.0984849
0.0259849
0.000291407
1.70913e-05
1.60699e-06
7.17706e-08
2.33148e-09
6.05785e-11
2.04942e-12
3.42122e-14
2.54679e-16
1.14673e-18
4.15464e-07
1.51815e-06
8.98768e-06
5.78256e-05
0.000955747
0.00345652
0.00687776
0.00592372
0.0102772
0.000858525
5.80164e-05
3.70941e-06
1.4554e-07
4.06894e-09
8.55428e-11
1.7239e-12
2.06794e-14
1.22567e-16
3.13787e-19
1.77944e-07
8.08139e-07
5.23193e-06
3.07175e-05
0.000553974
0.00169965
0.00104963
0.00133655
0.000261407
0.00023676
2.10614e-05
1.22391e-06
4.52392e-08
1.14863e-09
2.57072e-11
3.40317e-13
2.90498e-15
1.86421e-17
5.89254e-20
2.23765e-08
1.62058e-07
9.93678e-07
5.15334e-06
0.000140447
0.000327978
0.000201043
0.000287262
7.27128e-05
6.0078e-06
2.82376e-07
3.83043e-09
-7.52463e-11
-5.38781e-12
7.42551e-13
4.79954e-14
4.90788e-16
3.4054e-18
1.21762e-20
2.09903e-09
1.58551e-08
1.02848e-07
5.66074e-07
1.78896e-05
3.93691e-05
3.41891e-05
5.25305e-05
1.78999e-05
1.45865e-06
6.88393e-08
8.79088e-10
-4.18195e-11
-6.78936e-13
4.26355e-13
1.05282e-14
1.06957e-16
7.6064e-19
2.62649e-21
1.79822e-10
1.43339e-09
9.63945e-09
6.11373e-08
1.71577e-06
4.03883e-06
5.09416e-06
8.40195e-06
3.88546e-06
3.20913e-07
1.56052e-08
2.33334e-10
-9.17638e-12
-6.83229e-15
1.42505e-13
2.18947e-15
2.24525e-17
1.64155e-19
5.46497e-22
1.39853e-11
1.13205e-10
8.71859e-10
6.34524e-09
9.83475e-08
3.4697e-07
6.82344e-07
1.20747e-06
7.08126e-07
6.43344e-08
3.26273e-09
6.16022e-11
-1.35844e-12
2.90255e-13
2.87391e-14
4.35237e-16
4.53886e-18
3.42821e-20
1.10112e-22
1.0903e-12
9.39659e-12
8.28955e-11
7.06216e-10
4.48793e-09
2.41817e-08
8.38947e-08
1.59233e-07
1.06605e-07
1.18366e-08
6.34291e-10
1.56541e-11
1.84064e-13
2.30263e-13
5.42814e-15
8.3879e-17
8.91541e-19
6.95956e-21
2.15173e-23
2.0497e-13
2.44641e-12
1.49792e-11
7.45969e-11
4.51526e-10
2.62899e-09
9.72379e-09
1.95845e-08
1.47128e-08
2.02684e-09
1.15617e-10
4.34172e-12
6.10464e-13
4.96908e-14
9.96974e-16
1.57207e-17
1.70337e-19
1.37307e-21
4.07911e-24
1.25111e-14
2.13584e-13
2.4641e-12
1.05129e-11
4.73736e-11
2.80103e-10
1.07122e-09
2.28265e-09
1.88408e-09
3.27122e-10
2.08323e-11
1.8018e-12
3.06914e-13
7.44132e-15
1.78548e-16
2.8688e-18
3.16712e-20
2.63189e-22
7.50825e-25
6.54896e-16
1.22191e-14
1.54395e-13
9.04895e-13
7.88882e-12
3.65019e-11
1.41481e-10
2.56387e-10
2.32244e-10
5.50519e-11
4.86962e-12
7.9918e-13
4.25922e-14
1.26674e-15
3.12e-17
5.10563e-19
5.73769e-21
4.90426e-23
1.34411e-25
3.0085e-17
6.24505e-16
5.98421e-15
4.84112e-14
7.5138e-13
1.1042e-11
2.93664e-11
3.41544e-11
3.20889e-11
9.11382e-12
1.42996e-12
1.51608e-13
6.51254e-15
2.11787e-16
5.33095e-18
8.88101e-20
1.01472e-21
8.89693e-24
2.34578e-26
1.16042e-18
2.71048e-17
2.11583e-16
2.10884e-15
5.00571e-14
1.27322e-12
5.2044e-12
5.84153e-12
5.06638e-12
1.53798e-12
2.70087e-13
2.0633e-14
1.03576e-15
3.46942e-17
8.93067e-19
1.51389e-20
1.75623e-22
1.57476e-24
4.00299e-27
3.38728e-20
9.50139e-19
6.46651e-18
1.28689e-16
2.83601e-15
8.56709e-14
5.37095e-13
8.57407e-13
8.03512e-13
2.33254e-13
3.57113e-14
3.11008e-15
1.62327e-16
5.59155e-18
1.47152e-19
2.53682e-21
2.98373e-23
2.72718e-25
6.70238e-28
6.29154e-22
1.96636e-20
2.5093e-19
6.46651e-18
1.29565e-16
5.85178e-15
4.43948e-14
9.2024e-14
9.83849e-14
3.10466e-14
5.05093e-15
4.64056e-16
2.51155e-17
8.90058e-19
2.394e-20
4.19438e-22
4.99425e-24
4.63663e-26
1.10524e-28
6.61846e-24
9.45599e-23
7.04268e-21
2.65309e-19
6.95123e-18
3.88172e-16
3.6218e-15
8.32089e-15
9.12441e-15
3.87944e-15
7.13152e-16
6.89773e-17
3.879e-18
1.4156e-19
3.89306e-21
6.93155e-23
8.3485e-25
7.84828e-27
1.82094e-29
1.27529e-27
8.46612e-25
9.45599e-23
7.04268e-21
2.8827e-19
9.80904e-18
1.66899e-16
1.10764e-15
2.0748e-15
3.87191e-16
4.89697e-17
5.02571e-18
2.96223e-19
1.12275e-20
3.18005e-22
5.79051e-24
7.09616e-26
6.79083e-28
1.54122e-30
)
;

boundaryField
{
    leftWall
    {
        type            zeroGradient;
    }
    rightWall
    {
        type            zeroGradient;
    }
    lowerWall
    {
        type            zeroGradient;
    }
    atmosphere
    {
        type            inletOutlet;
        inletValue      uniform 0;
        value           nonuniform List<scalar> 
46
(
0
0
0
0
0
0
0
0
0
0
0
0
0
0
0
0
0
0
0
0
0
0
0
0
0
0
0
0
8.46612e-25
9.45599e-23
7.04268e-21
2.8827e-19
9.80904e-18
1.66899e-16
1.10764e-15
2.0748e-15
3.87191e-16
4.89697e-17
5.02571e-18
2.96223e-19
1.12275e-20
3.18005e-22
5.79051e-24
7.09616e-26
6.79083e-28
1.54122e-30
)
;
    }
    defaultFaces
    {
        type            empty;
    }
}


// ************************************************************************* //
