/*--------------------------------*- C++ -*----------------------------------*\
| =========                 |                                                 |
| \\      /  F ield         | OpenFOAM: The Open Source CFD Toolbox           |
|  \\    /   O peration     | Version:  5.x                                   |
|   \\  /    A nd           | Web:      www.OpenFOAM.org                      |
|    \\/     M anipulation  |                                                 |
\*---------------------------------------------------------------------------*/
FoamFile
{
    version     2.0;
    format      ascii;
    class       volScalarField;
    location    "0.25";
    object      p;
}
// * * * * * * * * * * * * * * * * * * * * * * * * * * * * * * * * * * * * * //

dimensions      [1 -1 -2 0 0 0 0];

internalField   nonuniform List<scalar> 
2268
(
1597.56
1603.79
1605.85
1602.72
1594.51
1583.47
1571.49
1559.42
1547.71
1536.84
1527.56
1520.91
1518.38
1521.96
1534.26
1558.85
1598.47
1653.53
1718.81
1777.41
1799.75
1781.8
1838.43
1537.86
1543.98
1546.01
1542.82
1534.59
1523.57
1511.6
1499.51
1487.72
1476.73
1467.28
1460.41
1457.61
1460.78
1472.17
1493.82
1529.38
1580.43
1644.84
1707.39
1736.24
1706.81
1778.46
1477.31
1483.25
1485.2
1481.89
1473.61
1462.64
1450.69
1438.54
1426.6
1415.35
1405.55
1398.24
1394.89
1397.34
1407.75
1428.53
1461.28
1506.91
1562.9
1620.44
1662.81
1673.35
1739.53
1415.95
1421.63
1423.44
1419.94
1411.61
1400.69
1388.77
1376.53
1364.34
1352.71
1342.38
1334.41
1330.24
1331.67
1340.76
1359.65
1389.74
1431.28
1481.31
1533.33
1584.12
1628.35
1721.32
1353.82
1359.19
1360.81
1357.05
1348.64
1337.78
1325.87
1313.47
1300.94
1288.78
1277.74
1268.88
1263.62
1263.71
1271.12
1287.79
1315
1352.86
1399.07
1448.08
1501.05
1559.18
1663.75
1290.98
1296.01
1297.35
1293.27
1284.76
1273.95
1262.01
1249.38
1236.39
1223.54
1211.59
1201.6
1194.96
1193.37
1198.73
1212.86
1236.99
1271.19
1313.79
1359.96
1409.88
1465.42
1559.07
1227.49
1232.17
1233.09
1228.61
1220.02
1209.26
1197.24
1184.29
1170.72
1157.02
1143.95
1132.58
1124.26
1120.65
1123.56
1134.75
1155.43
1185.73
1224.13
1266.04
1308.02
1347.79
1390.13
1163.43
1167.72
1168.02
1163.06
1154.42
1143.71
1131.58
1118.23
1103.95
1089.26
1074.91
1061.95
1051.68
1045.71
1045.78
1053.6
1070.3
1096.29
1129.79
1165.49
1194.38
1210.18
1141.55
15.278
15.2422
15.1977
15.1522
15.097
15.0328
14.9654
14.8989
14.8364
14.7796
14.7289
14.6843
14.6458
14.6129
14.5855
14.5636
14.5472
14.5362
14.5308
15.2236
15.184
15.1389
15.095
15.0397
14.9746
14.9063
14.8393
14.7765
14.7195
14.6688
14.6243
14.5858
14.5529
14.5255
14.5036
14.4872
14.4762
14.4708
15.1747
15.126
15.0799
15.0398
14.9842
14.917
14.847
14.7789
14.7156
14.6584
14.6077
14.5632
14.5247
14.4918
14.4644
14.4424
14.4259
14.4149
14.4094
15.1315
15.0666
15.0197
14.9872
14.9307
14.86
14.7874
14.7177
14.6536
14.596
14.5454
14.501
14.4625
14.4297
14.4022
14.38
14.3634
14.3522
14.3466
15.0948
15.002
14.957
14.9388
14.8796
14.8034
14.7273
14.6555
14.5903
14.5325
14.4819
14.4377
14.3993
14.3664
14.3387
14.3164
14.2995
14.2882
14.2825
15.0786
14.9264
14.8898
14.8976
14.8313
14.7469
14.6665
14.5921
14.5257
14.4676
14.4172
14.3733
14.335
14.302
14.2741
14.2515
14.2344
14.2228
14.217
15.0811
14.8256
14.8152
14.8685
14.7858
14.6899
14.6047
14.5273
14.4596
14.4014
14.3512
14.3077
14.2696
14.2365
14.2083
14.1854
14.1679
14.1561
14.1501
15.0343
14.6566
14.7239
14.8595
14.7424
14.6316
14.5417
14.4608
14.3917
14.3336
14.284
14.2409
14.203
14.1699
14.1414
14.118
14.1001
14.0879
14.0818
1062.42
1066
1065.22
1059.52
1050.71
1039.96
1027.49
1013.3
997.685
981.158
964.477
948.606
934.76
924.472
919.388
921.214
931.142
949.17
974.385
998.105
999.411
943.707
588.514
922.899
925.46
923.131
916.296
906.92
895.558
881.929
865.886
847.636
827.614
806.464
784.982
764.296
746.053
731.708
723.076
721.003
723.347
734.919
738.503
716.755
640.11
465.149
781.984
783.365
779.113
770.951
760.733
748.239
732.791
714.131
692.364
667.773
640.907
612.425
583.531
555.829
529.799
507.375
492.415
491.756
490.799
490.794
489.99
459.9
398.919
640.076
639.897
633.47
623.878
612.512
598.296
580.361
558.451
532.567
502.871
469.864
433.665
394.569
352.215
303.786
255.22
203.857
160.037
138.243
148.051
191.043
225.631
224.413
497.789
495.086
486.507
475.717
463.052
446.604
425.918
400.754
370.803
335.785
295.788
248.56
193.917
132.896
66.8059
31.6129
14.856
7.61975
3.9537
5.48072
9.88924
19.6289
36.2291
355.624
350.556
340.322
328.482
314.326
294.843
271.048
242.382
207.74
163.884
119.376
68.5536
31.5815
7.32826
-1.54641
-2.49194
-2.2521
-2.01399
-1.73627
-1.69111
-2.331
-3.5526
-4.24845
214.766
207.836
195.137
181.998
166.759
143.097
117.042
90.0796
61.623
28.9572
9.87715
-2.81016
-3.27215
-3.23502
-3.04998
-3.03925
-2.89091
-2.64208
-2.47942
-2.79927
-3.61511
-4.62852
-5.5361
87.7727
73.1313
61.5234
53.578
44.4955
26.9887
15.7687
5.87948
-2.178
-3.47928
-3.8894
-3.81645
-3.8466
-3.82809
-3.73476
-3.60098
-3.46903
-3.24749
-3.39803
-4.18247
-5.22138
-5.97047
-6.34842
14.8113
1.46209
0.329108
-1.159
-3.16965
-3.62033
-3.82469
-3.90614
-3.87543
-3.92339
-4.06115
-4.16086
-4.25267
-4.35791
-4.39473
-4.29487
-4.11688
-4.00633
-4.53561
-5.44457
-6.29917
-6.67303
-6.69739
-3.99499
-3.98496
-3.9764
-3.96945
-3.92053
-3.92228
-3.97323
-4.02681
-4.07237
-4.16026
-4.3189
-4.52109
-4.78417
-5.0624
-5.16999
-5.03538
-4.74265
-4.77242
-5.36912
-6.141
-6.59104
-6.74281
-6.72835
-4.12733
-4.10673
-4.11171
-4.11569
-4.11216
-4.12271
-4.15705
-4.21072
-4.28979
-4.43363
-4.64868
-4.93127
-5.35466
-5.75789
-5.85165
-5.63685
-5.3248
-5.44252
-6.03117
-6.49944
-6.69179
-6.75386
-6.77019
-4.28358
-4.26973
-4.27684
-4.28768
-4.30013
-4.32432
-4.36518
-4.42621
-4.5262
-4.70485
-4.96631
-5.31229
-5.79139
-6.18869
-6.2594
-6.04235
-5.86027
-6.08526
-6.45646
-6.65424
-6.75045
-6.81478
-6.88085
-4.44044
-4.44246
-4.44931
-4.46441
-4.48662
-4.52033
-4.56925
-4.63886
-4.7514
-4.94198
-5.21875
-5.57859
-6.03498
-6.41275
-6.47117
-6.33141
-6.31801
-6.49041
-6.63076
-6.74247
-6.83645
-6.9321
-7.04919
-4.5954
-4.6054
-4.61644
-4.63754
-4.66756
-4.70951
-4.76631
-4.84308
-4.95697
-5.13711
-5.39283
-5.71408
-6.09467
-6.42143
-6.49658
-6.47481
-6.54889
-6.64059
-6.73322
-6.84586
-6.97247
-7.11766
-7.29141
-4.74979
-4.76455
-4.77887
-4.80475
-4.84087
-4.88951
-4.9531
-5.03607
-5.14145
-5.3017
-5.5176
-5.78148
-6.05742
-6.2954
-6.43991
-6.53989
-6.61956
-6.71266
-6.84188
-6.99092
-7.16037
-7.35597
-7.58537
-4.90041
-4.91648
-4.93384
-4.96333
-5.00407
-5.05768
-5.12576
-5.2102
-5.31614
-5.45668
-5.63559
-5.84675
-6.06612
-6.26423
-6.42395
-6.55866
-6.68551
-6.82473
-6.98535
-7.16773
-7.37639
-7.62024
-7.90674
-5.04438
-5.0599
-5.07979
-5.11182
-5.15577
-5.2128
-5.28398
-5.36931
-5.47473
-5.60441
-5.76025
-5.93847
-6.12655
-6.30744
-6.47418
-6.63266
-6.79125
-6.95896
-7.14288
-7.35559
-7.60235
-7.89228
-8.23528
-5.17967
-5.19407
-5.21569
-5.24934
-5.29522
-5.35392
-5.42614
-5.51262
-5.61614
-5.73892
-5.88171
-6.04198
-6.2127
-6.38562
-6.55727
-6.72905
-6.90602
-7.09622
-7.29854
-7.54049
-7.82143
-8.15254
-8.54793
-5.30517
-5.3185
-5.34091
-5.37542
-5.42214
-5.48142
-5.55375
-5.63974
-5.74078
-5.85822
-5.99254
-6.14235
-6.30379
-6.47233
-6.646
-6.82583
-7.01546
-7.22091
-7.44785
-7.71063
-8.01835
-8.38176
-8.81783
-5.42028
-5.43249
-5.45544
-5.49016
-5.53687
-5.59583
-5.66735
-5.75184
-5.85008
-5.96295
-6.09091
-6.23342
-6.38855
-6.55407
-6.72903
-6.91434
-7.1132
-7.33127
-7.57621
-7.85422
-8.18216
-8.56798
-9.02935
-5.52476
-5.53622
-5.55908
-5.59349
-5.63962
-5.69761
-5.76766
-5.85002
-5.94521
-6.05385
-6.17649
-6.31319
-6.46327
-6.62585
-6.80068
-6.98883
-7.19333
-7.41949
-7.67453
-7.96684
-8.3062
-8.70487
-9.179
-5.61861
-5.62963
-5.65198
-5.68566
-5.73072
-5.78723
-5.85531
-5.9351
-6.02697
-6.13145
-6.24915
-6.3805
-6.52561
-6.68445
-6.85733
-7.04555
-7.25204
-7.48177
-7.74156
-8.0397
-8.38545
-8.7892
-9.26649
-5.70218
-5.71279
-5.73441
-5.76702
-5.8106
-5.86522
-5.93089
-6.00773
-6.09599
-6.19612
-6.30877
-6.43461
-6.5742
-6.72807
-6.89696
-7.08235
-7.2871
-7.51582
-7.77484
-8.07202
-8.41614
-8.81735
-9.29237
-5.77589
-5.78604
-5.80676
-5.83803
-5.87981
-5.93214
-5.99503
-6.06853
-6.15282
-6.24829
-6.35557
-6.47542
-6.60866
-6.75612
-6.91884
-7.09845
-7.29771
-7.5208
-7.77351
-8.06306
-8.39778
-8.78805
-9.25179
-5.84024
-5.84987
-5.86955
-5.89925
-5.93894
-5.98865
-6.04838
-6.11816
-6.1981
-6.28852
-6.38998
-6.50323
-6.62918
-6.7688
-6.92328
-7.09429
-7.2844
-7.49737
-7.73829
-8.01363
-8.33109
-8.70105
-9.14189
-5.89577
-5.90484
-5.92335
-5.95128
-5.98863
-6.03542
-6.09166
-6.15734
-6.23253
-6.31748
-6.41263
-6.51865
-6.63642
-6.76692
-6.91134
-7.07127
-7.24898
-7.44771
-7.67178
-7.92672
-8.21938
-8.5595
-8.96473
-5.94304
-5.9515
-5.96874
-5.99476
-6.02955
-6.07316
-6.1256
-6.18684
-6.25691
-6.33596
-6.42433
-6.52255
-6.63137
-6.75169
-6.88457
-7.03141
-7.19411
-7.37525
-7.57825
-7.80752
-8.06868
-8.37009
-8.7267
-5.98263
-5.99044
-6.00633
-6.0303
-6.06238
-6.10261
-6.15099
-6.2075
-6.27212
-6.34491
-6.42608
-6.51601
-6.61528
-6.7246
-6.84486
-6.97716
-7.12295
-7.2841
-7.46301
-7.66282
-7.88761
-8.14356
-8.44127
-6.01511
-6.02225
-6.03673
-6.05858
-6.08783
-6.12452
-6.16866
-6.22021
-6.27911
-6.34535
-6.41901
-6.5003
-6.5896
-6.6874
-6.79435
-6.91122
-7.03897
-7.17873
-7.33191
-7.50032
-7.6864
-7.89383
-8.12842
-6.04108
-6.04752
-6.06057
-6.08026
-6.10661
-6.13968
-6.17945
-6.22588
-6.27889
-6.33839
-6.40434
-6.47679
-6.5559
-6.64195
-6.73531
-6.8364
-6.9457
-7.06367
-7.19081
-7.32771
-7.47524
-7.63479
-7.80796
-6.06115
-6.06689
-6.0785
-6.09601
-6.11946
-6.14886
-6.18422
-6.22547
-6.27251
-6.32518
-6.38335
-6.4469
-6.51583
-6.59016
-6.67
-6.75546
-6.84658
-6.94324
-7.04516
-7.15195
-7.2632
-7.37842
-7.49618
-6.07595
-6.081
-6.09118
-6.10654
-6.12709
-6.15286
-6.18382
-6.2199
-6.26098
-6.30685
-6.35729
-6.41206
-6.47098
-6.53387
-6.6006
-6.671
-6.74475
-6.82128
-6.8997
-6.97889
-7.05754
-7.13387
-7.20467
-6.0861
-6.09046
-6.09925
-6.1125
-6.13022
-6.15242
-6.17905
-6.21005
-6.24527
-6.28447
-6.32736
-6.37361
-6.42287
-6.47481
-6.5291
-6.58535
-6.64296
-6.70105
-6.75832
-6.81316
-6.86369
-6.90744
-6.94044
-6.09222
-6.09592
-6.10336
-6.11458
-6.12955
-6.14828
-6.17071
-6.19678
-6.22631
-6.25906
-6.29469
-6.33279
-6.3729
-6.41456
-6.45728
-6.50051
-6.5435
-6.58516
-6.624
-6.65813
-6.68538
-6.70302
-6.70705
-6.09502
-6.09808
-6.10423
-6.1135
-6.12584
-6.14124
-6.15965
-6.18097
-6.20505
-6.23163
-6.26036
-6.29077
-6.32235
-6.35451
-6.38667
-6.41818
-6.44821
-6.47562
-6.49885
-6.51597
-6.52474
-6.52248
-6.50556
-6.0951
-6.09757
-6.10249
-6.10991
-6.11976
-6.13201
-6.14659
-6.16342
-6.18233
-6.20309
-6.22533
-6.24859
-6.27231
-6.29585
-6.31855
-6.33971
-6.35849
-6.3738
-6.38418
-6.38781
-6.38258
-6.36606
-6.33516
-6.09252
-6.09444
-6.09821
-6.10391
-6.11141
-6.1207
-6.1317
-6.14432
-6.1584
-6.17373
-6.18996
-6.20665
-6.22324
-6.23909
-6.25349
-6.26574
-6.27501
-6.28034
-6.28046
-6.27381
-6.25857
-6.23267
-6.19366
-6.08736
-6.0888
-6.09148
-6.09556
-6.10086
-6.10739
-6.11504
-6.12372
-6.1333
-6.14359
-6.15427
-6.16496
-6.17512
-6.18416
-6.1914
-6.19612
-6.19761
-6.19501
-6.1873
-6.17327
-6.15147
-6.1203
-6.07795
-6.08206
-6.08308
-6.08474
-6.08728
-6.09052
-6.09443
-6.09892
-6.1039
-6.10926
-6.11481
-6.12029
-6.12538
-6.12963
-6.13251
-6.1334
-6.1317
-6.12677
-6.11792
-6.10442
-6.08539
-6.05984
-6.02665
-5.98465
-6.08015
-6.0808
-6.08155
-6.08268
-6.084
-6.08549
-6.08705
-6.08859
-6.09
-6.09113
-6.09175
-6.09159
-6.09032
-6.08748
-6.08262
-6.07523
-6.06482
-6.05089
-6.03296
-6.01052
-5.98305
-5.94998
-5.91075
-6.0766
-6.07701
-6.07697
-6.07682
-6.07639
-6.07565
-6.07452
-6.07293
-6.07075
-6.06786
-6.06407
-6.05918
-6.05294
-6.04506
-6.03522
-6.02309
-6.00835
-5.99069
-5.96984
-5.94562
-5.91793
-5.88674
-5.85215
-6.05313
-6.05376
-6.05293
-6.05143
-6.0492
-6.04622
-6.04245
-6.03781
-6.03221
-6.02555
-6.01772
-6.00859
-5.99805
-5.98596
-5.97223
-5.95673
-5.93935
-5.92002
-5.89871
-5.87551
-5.85072
-5.82482
-5.79843
-64.082
-13.9966
9.08704
11.6194
221.222
97.7895
-18.6091
-56.2386
295.83
199.845
123.64
92.2322
185.77
147.337
115.086
98.187
44.9975
46.6126
44.2719
41.5056
-3.53122
-1.04684
4.30205
10.4039
-5.85743
-6.00456
-6.06759
-6.03115
-6.39155
-6.40398
-6.46627
-6.53885
-6.65886
-6.66339
-6.6993
-6.74681
-6.71872
-6.73836
-6.77675
-6.83801
-6.80284
-6.84263
-6.89986
-6.98035
-6.95349
-7.01417
-7.09044
-7.18139
-7.16295
-7.25117
-7.35568
-7.47584
-7.44993
-7.5685
-7.70653
-7.86549
-7.78871
-7.93723
-8.10562
-8.29351
-8.15924
-8.34197
-8.54424
-8.76914
-8.54124
-8.76307
-9.00857
-9.28918
-8.90722
-9.16899
-9.46531
-9.80427
-9.21673
-9.50746
-9.8396
-10.2195
-9.44723
-9.74821
-10.0873
-10.4738
-9.60345
-9.90475
-10.2382
-10.613
-9.69128
-9.99061
-10.3196
-10.6874
-9.71416
-10.011
-10.3373
-10.7025
-9.66515
-9.9577
-10.2813
-10.6431
-9.53665
-9.81828
-10.1317
-10.4796
-9.32763
-9.58771
-9.87716
-10.1936
-9.04296
-9.26874
-9.51832
-9.78694
-8.69883
-8.87979
-9.07642
-9.28415
-8.32339
-8.45687
-8.59842
-8.74446
-7.9439
-8.03362
-8.12567
-8.21768
-7.58083
-7.63337
-7.68421
-7.7322
-7.24786
-7.27113
-7.29012
-7.30469
-6.95209
-6.95386
-6.94999
-6.94075
-6.69593
-6.68288
-6.66383
-6.63903
-6.47904
-6.45651
-6.42836
-6.39459
-6.29936
-6.27156
-6.23884
-6.2011
-6.15353
-6.12372
-6.08982
-6.05174
-6.03738
-6.00813
-5.97566
-5.93991
-5.9466
-5.91982
-5.89071
-5.85926
-5.87718
-5.8542
-5.8298
-5.80404
-5.8245
-5.8062
-5.78743
-5.7683
-5.77926
-5.7673
-5.75582
-5.745
12.7381
14.2501
14.5708
14.8958
14.6791
14.5377
14.4405
14.3535
14.2824
14.2249
14.1768
14.1348
14.0973
14.0639
14.0348
14.0105
13.9918
13.9791
13.9726
8.43256
13.8434
14.7371
14.9323
14.6057
14.413
14.2937
14.1935
14.1217
14.0686
14.0251
13.9857
13.949
13.915
13.8844
13.8583
13.8378
13.8238
13.8166
24.225
-37.4097
8.10994
15.1763
14.7113
14.3013
14.1233
14.0085
13.9445
13.903
13.8686
13.833
13.797
13.7616
13.7283
13.6993
13.6762
13.6602
13.6521
50.654
-16.1885
-13.7057
7.1089
14.2218
13.6818
13.8361
13.7722
13.746
13.7291
13.707
13.6781
13.6423
13.6037
13.5661
13.5326
13.5057
13.4869
13.4774
39.3615
16.2169
5.22226
-5.43707
-0.11463
13.6036
13.5664
13.4994
13.5282
13.5534
13.5499
13.5247
13.4858
13.4411
13.3966
13.3566
13.3243
13.3019
13.2905
21.9007
19.8243
2.36437
-10.3455
-7.5473
7.25427
13.2227
13.2455
13.3034
13.3821
13.4014
13.3755
13.328
13.2726
13.2178
13.1688
13.1296
13.1025
13.0888
-6.06778
-1.99484
13.6501
-15.8999
-9.77099
-0.0154126
10.9121
12.9579
13.1681
13.237
13.2669
13.2317
13.167
13.0952
13.0262
12.9657
12.918
12.8853
12.8688
-6.71283
-7.09355
-6.64977
-8.67048
-20.2457
-6.59273
10.5076
12.9954
13.0832
13.1222
13.143
13.0896
12.9972
12.903
12.8163
12.7424
12.6849
12.6461
12.6266
-6.85086
-7.06592
-7.34775
-6.26228
-36.8751
-24.8803
-2.04311
12.2488
13.1652
13.0606
13.0299
12.9384
12.8093
12.6871
12.5808
12.4926
12.4253
12.3802
12.3578
-6.98183
-7.22455
-7.55306
-7.60567
-16.1005
-28.1689
-14.51
11.9423
13.0659
12.9682
12.8588
12.7367
12.582
12.4345
12.3102
12.2094
12.1334
12.083
12.058
-7.15296
-7.41864
-7.68454
-7.8682
-7.22381
-22.6439
-23.5606
8.77144
12.3236
12.77
12.6148
12.4622
12.2961
12.1324
11.9956
11.8861
11.8042
11.7501
11.7234
-7.37075
-7.66016
-7.904
-8.02291
-6.29478
-12.0541
-22.7603
6.3622
11.8865
12.4898
12.2679
12.1072
11.9414
11.7718
11.6305
11.5178
11.4338
11.3783
11.3509
-7.7139
-8.04744
-8.28759
-8.47208
-7.60682
-2.0367
-16.1121
6.41616
11.8097
12.0963
11.8121
11.6727
11.5142
11.3493
11.2121
11.1023
11.0202
10.966
10.9392
-8.17515
-8.59934
-8.89663
-9.26072
-10.101
-0.556956
-11.2262
6.86998
11.5693
11.5156
11.2565
11.1584
11.0148
10.8664
10.7416
10.6403
10.5643
10.5137
10.4887
-8.64368
-9.10094
-9.45461
-9.95801
-11.9764
-9.39302
-8.24933
7.53457
11.0902
10.7373
10.6236
10.5752
10.4533
10.3307
10.2241
10.1359
10.0689
10.0241
10.0018
-9.17209
-9.64885
-9.72737
-10.3323
-11.6105
-16.2528
-4.45828
7.68399
10.2205
9.86761
9.96014
9.93717
9.84521
9.75267
9.66713
9.59475
9.53893
9.50118
9.48241
-9.78209
-10.3805
-10.5642
-12.6277
-14.2108
-4.41383
3.20063
9.67278
9.30113
9.14071
9.28604
9.2646
9.20808
9.14357
9.07963
9.02405
8.98021
8.95025
8.9354
-10.4244
-11.3208
-13.3567
-37.164
-58.3081
-5.57906
6.15877
8.81845
8.3925
8.55332
8.60363
8.5834
8.55437
8.51343
8.47031
8.43106
8.39906
8.37692
8.36597
-10.9699
-12.2268
-14.0566
-15.5235
-61.2605
-5.89784
5.25534
7.65357
7.68548
7.92138
7.90436
7.89824
7.88934
7.87042
7.84687
7.8227
7.80163
7.78667
7.77925
-11.2334
-12.3829
-14.0421
-15.5848
-54.5201
-4.98964
4.70235
6.83497
7.07785
7.16165
7.17301
7.20202
7.21792
7.22174
7.21616
7.20512
7.19335
7.18439
7.17986
-11.3166
-12.2704
-13.4671
-11.5223
-39.648
-16.3733
3.74912
6.12833
6.30609
6.25412
6.41195
6.50111
6.55018
6.57587
6.58493
6.5837
6.57869
6.57404
6.57154
-11.3726
-12.4384
-13.2923
-13.876
-15.0682
-14.0142
3.92273
5.42982
5.4561
5.26627
5.61253
5.82095
5.90334
5.94296
5.95949
5.96268
5.96092
5.95848
5.95705
-11.3863
-12.4767
-13.1573
-14.1334
-13.2459
-17.0379
-1.42215
5.02321
4.75781
4.40616
4.89908
5.21779
5.30144
5.3322
5.34339
5.34388
5.34146
5.3392
5.3381
-11.3205
-12.4298
-13.3949
-14.3767
-13.4574
-16.0918
-12.8925
2.74995
4.37137
4.33379
4.56791
4.74827
4.75595
4.74296
4.73364
4.7253
4.71959
4.71639
4.71554
-11.1368
-12.3366
-13.7283
-15.401
-18.6981
-22.6166
-22.7237
-0.81694
4.58117
4.82632
4.41194
4.31037
4.20891
4.14721
4.1167
4.10068
4.09286
4.08932
4.08989
-10.7931
-11.9494
-13.5016
-15.9467
-21.1463
-28.6929
-27.3238
-9.18651
2.50811
3.86393
3.78676
3.66459
3.56093
3.50337
3.47562
3.46336
3.45913
3.45684
3.46275
-10.2938
-11.2945
-12.7551
-15.209
-19.5135
-24.7445
-24.2533
-11.5507
-0.799112
2.11891
2.7433
2.79942
2.80844
2.80436
2.80751
2.81292
2.81958
2.82037
2.83518
-9.66944
-10.3986
-11.4616
-13.2075
-15.7
-17.2309
-15.3881
-8.8973
-2.23831
0.685343
1.62816
1.8834
2.01232
2.08153
2.12584
2.15602
2.17725
2.1869
2.20692
-9.00767
-9.46466
-10.052
-10.8286
-11.4994
-11.2706
-9.57393
-5.97096
-2.32719
-0.37772
0.55119
0.982219
1.22025
1.35826
1.44509
1.50172
1.53902
1.55884
1.58153
-8.37686
-8.62318
-8.88154
-9.0989
-9.01558
-8.28557
-6.69235
-4.44613
-2.41777
-1.0856
-0.285356
0.187389
0.477505
0.660604
0.779962
0.85878
0.910343
0.939739
0.963549
-7.80863
-7.89673
-7.93501
-7.85668
-7.52148
-6.75097
-5.50278
-3.98279
-2.6299
-1.63722
-0.957874
-0.505829
-0.203241
0.000858832
0.139551
0.233489
0.295661
0.33265
0.356376
-7.32022
-7.30011
-7.20697
-6.98897
-6.57261
-5.88507
-4.94318
-3.87643
-2.89497
-2.11602
-1.53814
-1.12306
-0.828205
-0.619665
-0.47288
-0.37092
-0.302313
-0.260393
-0.237761
-6.91407
-6.82667
-6.66422
-6.39369
-5.97957
-5.39578
-4.66994
-3.88507
-3.14997
-2.5335
-2.04792
-1.67916
-1.40485
-1.20339
-1.05733
-0.953532
-0.882516
-0.83835
-0.817592
-6.58555
-6.46148
-6.27083
-5.99581
-5.61596
-5.13048
-4.56295
-3.96564
-3.40043
-2.90932
-2.50602
-2.18692
-1.94069
-1.75416
-1.61545
-1.5149
-1.44503
-1.40103
-1.38267
-6.32655
-6.18724
-5.99268
-5.7344
-5.40313
-5.00407
-4.55659
-4.09392
-3.65303
-3.26075
-2.92896
-2.65835
-2.44352
-2.27668
-2.14996
-2.05652
-1.99074
-1.94888
-1.93326
-6.12775
-5.98821
-5.80618
-5.57456
-5.29356
-4.96897
-4.61541
-4.25454
-3.90932
-3.5973
-3.32774
-3.10284
-2.92033
-2.77574
-2.66403
-2.58051
-2.52103
-2.48285
-2.47013
-5.97965
-5.84928
-5.68662
-5.48847
-5.25653
-4.99655
-4.71925
-4.43894
-4.17036
-3.92513
-3.71008
-3.52762
-3.37705
-3.25589
-3.16099
-3.08923
-3.03765
-3.00424
-2.99449
-5.87365
-5.75864
-5.62041
-5.45758
-5.27219
-5.06903
-4.85576
-4.64188
-4.43694
-4.24862
-4.08178
-3.93851
-3.81878
-3.72129
-3.6441
-3.58521
-3.54255
-3.5146
-3.50781
-5.8021
-5.70665
-5.59582
-5.46874
-5.32729
-5.17504
-5.01724
-4.86009
-4.70968
-4.57099
-4.4473
-4.34019
-4.24989
-4.1757
-4.11648
-4.07097
-4.0378
-4.01569
-4.01179
-5.75836
-5.68597
-5.60385
-5.51251
-5.41288
-5.30725
-5.19894
-5.09175
-4.98941
-4.89493
-4.81036
-4.73674
-4.67429
-4.62267
-4.58121
-4.54918
-4.52572
-4.50959
-4.50832
-5.73568
-5.68815
-5.63721
-5.58194
-5.52267
-5.46063
-5.39762
-5.33567
-5.27672
-5.22236
-5.17365
-5.13114
-5.09497
-5.06495
-5.04075
-5.02197
-5.00817
-4.99796
-4.99906
-5.72835
-5.70943
-5.6917
-5.67293
-5.6532
-5.63289
-5.61257
-5.59284
-5.57425
-5.55722
-5.54201
-5.52875
-5.51745
-5.50804
-5.50042
-5.49446
-5.49019
-5.48661
-5.48748
)
;

boundaryField
{
    leftWall
    {
        type            calculated;
        value           nonuniform List<scalar> 
50
(
1597.56
1537.86
1477.31
1415.95
1353.82
1290.98
1227.49
1163.43
1062.42
922.899
781.984
640.076
497.789
355.624
214.766
87.7727
14.8113
-3.99499
-4.12733
-4.28358
-4.44044
-4.5954
-4.74979
-4.90041
-5.04438
-5.17967
-5.30517
-5.42028
-5.52476
-5.61861
-5.70218
-5.77589
-5.84024
-5.89577
-5.94304
-5.98263
-6.01511
-6.04108
-6.06115
-6.07595
-6.0861
-6.09222
-6.09502
-6.0951
-6.09252
-6.08736
-6.08206
-6.08015
-6.0766
-6.05313
)
;
    }
    rightWall
    {
        type            calculated;
        value           nonuniform List<scalar> 
50
(
14.5308
14.4708
14.4094
14.3466
14.2825
14.217
14.1501
14.0818
13.9726
13.8166
13.6521
13.4774
13.2905
13.0888
12.8688
12.6266
12.3578
12.058
11.7234
11.3509
10.9392
10.4887
10.0018
9.48241
8.9354
8.36597
7.77925
7.17986
6.57154
5.95705
5.3381
4.71554
4.08989
3.46275
2.83518
2.20692
1.58153
0.963549
0.356376
-0.237761
-0.817592
-1.38267
-1.93326
-2.47013
-2.99449
-3.50781
-4.01179
-4.50832
-4.99906
-5.48748
)
;
    }
    lowerWall
    {
        type            calculated;
        value           nonuniform List<scalar> 
62
(
1626.99
1633.22
1635.28
1632.15
1623.94
1612.9
1600.92
1588.85
1577.13
1566.27
1556.99
1550.34
1547.81
1551.39
1563.69
1588.28
1627.89
1682.96
1748.24
1806.84
1828.44
1803.26
1859.59
1838.43
1778.46
1739.53
1721.32
1663.75
1559.07
1390.13
1141.55
-4.2721
48.6008
44.6442
11.682
15.278
15.2236
15.1747
15.1315
15.0948
15.0786
15.0811
15.0343
15.3074
15.2716
15.2271
15.1816
15.1264
15.0623
14.9948
14.9283
14.8658
14.809
14.7583
14.7137
14.6752
14.6423
14.6149
14.593
14.5766
14.5656
14.5602
)
;
    }
    atmosphere
    {
        type            calculated;
        value           nonuniform List<scalar> 
46
(
-6.02324
-6.02461
-6.02322
-6.02096
-6.01774
-6.01358
-6.00844
-6.00227
-5.995
-5.98657
-5.97689
-5.96592
-5.95361
-5.93996
-5.92499
-5.90872
-5.8912
-5.87246
-5.85262
-5.83191
-5.81081
-5.79011
-5.77062
-5.75754
-5.75008
-5.74349
-5.73792
-5.73141
-5.72904
-5.72904
-5.72904
-5.72904
-5.72904
-5.72904
-5.72904
-5.72904
-5.72904
-5.72904
-5.72904
-5.72904
-5.72904
-5.72904
-5.72904
-5.72904
-5.72904
-5.72904
)
;
    }
    defaultFaces
    {
        type            empty;
    }
}


// ************************************************************************* //
