/*--------------------------------*- C++ -*----------------------------------*\
| =========                 |                                                 |
| \\      /  F ield         | OpenFOAM: The Open Source CFD Toolbox           |
|  \\    /   O peration     | Version:  5.x                                   |
|   \\  /    A nd           | Web:      www.OpenFOAM.org                      |
|    \\/     M anipulation  |                                                 |
\*---------------------------------------------------------------------------*/
FoamFile
{
    version     2.0;
    format      ascii;
    class       volScalarField;
    location    "0.25";
    object      p_rgh;
}
// * * * * * * * * * * * * * * * * * * * * * * * * * * * * * * * * * * * * * //

dimensions      [1 -1 -2 0 0 0 0];

internalField   nonuniform List<scalar> 
2268
(
1626.99
1633.22
1635.28
1632.15
1623.94
1612.9
1600.92
1588.85
1577.13
1566.27
1556.99
1550.34
1547.81
1551.39
1563.69
1588.28
1627.89
1682.96
1748.24
1806.84
1828.44
1803.26
1859.59
1626.15
1632.27
1634.3
1631.11
1622.88
1611.86
1599.89
1587.8
1576.01
1565.02
1555.56
1548.7
1545.9
1549.07
1560.46
1582.11
1617.66
1668.72
1733.13
1795.68
1824.24
1791.18
1866.75
1624.46
1630.39
1632.34
1629.03
1620.76
1609.78
1597.84
1585.69
1573.74
1562.5
1552.7
1545.39
1542.04
1544.49
1554.89
1575.68
1608.43
1654.06
1710.05
1767.59
1809.95
1820.49
1884.5
1621.96
1627.63
1629.45
1625.95
1617.62
1606.7
1594.78
1582.53
1570.35
1558.71
1548.38
1540.42
1536.25
1537.67
1546.77
1565.66
1595.74
1637.29
1687.31
1739.33
1790.13
1834.35
1925.79
1618.69
1624.05
1625.67
1621.91
1613.5
1602.64
1590.73
1578.34
1565.81
1553.64
1542.6
1533.75
1528.49
1528.57
1535.98
1552.65
1579.87
1617.72
1663.94
1712.95
1765.91
1824.04
1928.61
1614.7
1619.73
1621.07
1616.99
1608.49
1597.67
1585.73
1573.11
1560.12
1547.26
1535.31
1525.32
1518.68
1517.09
1522.45
1536.58
1560.72
1594.91
1637.51
1683.68
1733.61
1789.14
1882.79
1610.07
1614.75
1615.67
1611.19
1602.6
1591.84
1579.82
1566.87
1553.3
1539.6
1526.54
1515.17
1506.85
1503.23
1506.14
1517.33
1538.01
1568.31
1606.71
1648.62
1690.6
1730.37
1772.71
1604.87
1609.16
1609.46
1604.5
1595.86
1585.16
1573.02
1559.67
1545.39
1530.7
1516.35
1503.39
1493.12
1487.15
1487.22
1495.04
1511.74
1537.73
1571.23
1606.93
1635.82
1651.62
1569.61
15.3074
15.2716
15.2271
15.1816
15.1264
15.0623
14.9948
14.9283
14.8658
14.809
14.7583
14.7137
14.6752
14.6423
14.6149
14.593
14.5766
14.5656
14.5602
15.3119
15.2723
15.2272
15.1833
15.128
15.0629
14.9946
14.9276
14.8648
14.8078
14.7571
14.7126
14.674
14.6412
14.6138
14.5919
14.5755
14.5645
14.5591
15.3218
15.2732
15.227
15.1869
15.1313
15.0642
14.9942
14.9261
14.8627
14.8055
14.7548
14.7103
14.6718
14.639
14.6116
14.5896
14.5731
14.562
14.5565
15.3375
15.2726
15.2257
15.1932
15.1367
15.066
14.9934
14.9237
14.8596
14.802
14.7514
14.707
14.6686
14.6357
14.6082
14.5861
14.5694
14.5582
14.5526
15.3596
15.2669
15.2219
15.2037
15.1444
15.0682
14.9922
14.9204
14.8552
14.7974
14.7468
14.7026
14.6642
14.6313
14.6036
14.5813
14.5644
14.5531
14.5474
15.4024
15.2503
15.2135
15.2213
15.155
15.0706
14.9902
14.9158
14.8494
14.7914
14.7409
14.697
14.6587
14.6257
14.5979
14.5752
14.5581
14.5465
14.5407
15.4637
15.2244
15.1983
15.251
15.1684
15.0725
14.9873
14.9099
14.8422
14.7839
14.7338
14.6902
14.6522
14.6191
14.5909
14.568
14.5505
14.5387
14.5327
15.4758
15.1822
15.1671
15.301
15.1839
15.073
14.9831
14.9023
14.8331
14.775
14.7254
14.6823
14.6445
14.6113
14.5828
14.5594
14.5415
14.5294
14.5233
1595.88
1599.47
1598.69
1592.98
1584.17
1573.43
1560.95
1546.77
1531.15
1514.63
1497.94
1482.07
1468.23
1457.94
1452.86
1454.68
1464.61
1482.64
1507.85
1531.57
1532.88
1477.17
1095.2
1581.56
1584.12
1581.79
1574.96
1565.58
1554.22
1540.59
1524.55
1506.3
1486.28
1465.13
1443.64
1422.96
1404.71
1390.37
1381.74
1379.66
1382.01
1393.58
1397.16
1375.42
1298.77
1108.06
1565.84
1567.22
1562.97
1554.81
1544.59
1532.1
1516.65
1497.99
1476.22
1451.63
1424.76
1396.28
1367.39
1339.68
1313.64
1291.22
1276.26
1275.61
1274.65
1274.65
1273.85
1243.76
1182.78
1549.13
1548.95
1542.52
1532.93
1521.56
1507.35
1489.41
1467.5
1441.61
1411.92
1378.9
1342.68
1303.55
1261.09
1212.45
1154.48
1065.04
971.407
917.222
961.362
1100.09
1134.68
1132.88
1532.03
1529.33
1520.75
1509.96
1497.29
1480.84
1460.15
1434.96
1404.98
1369.9
1329.73
1282.08
1220.28
1079.06
810.074
502.629
267.411
152.33
87.6209
111.756
191.11
371.052
636.928
1515.06
1509.9
1499.65
1487.82
1473.64
1454.11
1430.19
1401.24
1366.05
1311.98
1194.62
946.109
595.563
189.789
-0.181655
-1.2541
-1.04051
-0.783541
-0.402154
-0.270214
-0.519019
-0.977337
15.6852
1499.4
1491.16
1478.32
1465.14
1449.54
1415.21
1345.29
1214.72
992.189
638.447
307.017
2.98058
-1.94381
-1.89777
-1.71271
-1.70344
-1.55541
-1.29967
-0.867729
-0.800111
-1.53001
-2.55085
-3.82494
1433.84
1146.04
1118.21
1058.45
925.17
696.272
453.785
230.357
27.3811
-2.06935
-2.47951
-2.40347
-2.41142
-2.36828
-2.26892
-2.13523
-2.00303
-1.41118
1.11067
0.354864
-0.701346
-3.77953
-4.83302
465.958
129.865
103.953
67.6025
7.19676
-2.08531
-2.28966
-2.37111
-2.3404
-2.38836
-2.5261
-2.62578
-2.7142
-2.70911
-2.79052
-2.6987
-2.52091
-0.182329
0.404651
-0.504312
-1.71493
-4.73235
-5.14569
-2.33478
-2.32475
-2.31618
-2.30923
-2.26031
-2.26206
-2.31301
-2.36659
-2.41216
-2.50004
-2.65868
-2.86085
-2.76975
-2.6722
-3.15913
-3.30486
-2.86252
0.509775
-0.0384109
-0.855711
-4.29406
-5.07325
-5.06641
-2.34192
-2.32132
-2.3263
-2.33028
-2.32675
-2.3373
-2.37164
-2.4253
-2.50437
-2.64822
-2.86327
-2.84548
-2.75817
-3.17856
-3.66109
-3.74818
-1.71267
0.246085
-0.31189
-3.47041
-4.89995
-4.96779
-4.98468
-2.37297
-2.35912
-2.36624
-2.37707
-2.38953
-2.41371
-2.45457
-2.5156
-2.6156
-2.79424
-3.0557
-2.76366
-3.01284
-3.76527
-3.88767
-3.21491
-0.00278894
-0.135306
-2.48771
-4.73044
-4.83972
-4.90416
-4.97024
-2.40464
-2.40666
-2.41351
-2.42861
-2.45082
-2.48453
-2.53345
-2.60306
-2.7156
-2.90618
-3.17245
-3.51148
-3.11546
-2.76722
-3.45889
-0.294367
-0.174929
-2.36456
-4.59495
-4.70667
-4.80065
-4.8963
-5.01339
-2.4344
-2.44441
-2.45544
-2.47654
-2.50656
-2.54851
-2.60532
-2.68208
-2.79597
-2.97595
-3.20967
-3.55109
-3.67982
-1.27114
-1.06759
-1.11745
-3.51038
-4.4796
-4.57223
-4.68486
-4.81147
-4.95666
-5.13041
-2.46359
-2.47836
-2.49268
-2.51856
-2.55468
-2.60331
-2.66691
-2.74988
-2.85526
-3.0155
-3.23073
-3.49529
-3.74402
-3.6147
-3.35623
-4.2537
-4.33337
-4.42647
-4.55569
-4.70473
-4.87417
-5.06978
-5.29917
-2.48903
-2.50509
-2.52245
-2.55195
-2.59268
-2.6463
-2.71437
-2.79881
-2.90475
-3.04529
-3.22421
-3.43536
-3.65473
-3.85284
-4.01256
-4.14727
-4.27412
-4.41335
-4.57396
-4.75634
-4.965
-5.20885
-5.49535
-2.5078
-2.52332
-2.54321
-2.57524
-2.61919
-2.67622
-2.7474
-2.83273
-2.93815
-3.06783
-3.22367
-3.40189
-3.58997
-3.77086
-3.9376
-4.09608
-4.25467
-4.42238
-4.6063
-4.81901
-5.06577
-5.3557
-5.6987
-2.5179
-2.5323
-2.55392
-2.58757
-2.63344
-2.69214
-2.76437
-2.85085
-2.95436
-3.07715
-3.21994
-3.3802
-3.55092
-3.72385
-3.89549
-4.06727
-4.24425
-4.43444
-4.63676
-4.87872
-5.15966
-5.49077
-5.88615
-2.51821
-2.53154
-2.55394
-2.58846
-2.63517
-2.69445
-2.76678
-2.85277
-2.95381
-3.07125
-3.20557
-3.35538
-3.51682
-3.68536
-3.85903
-4.03886
-4.22849
-4.43394
-4.66089
-4.92366
-5.23138
-5.59479
-6.03086
-2.50811
-2.52033
-2.54328
-2.57799
-2.62471
-2.68367
-2.75519
-2.83968
-2.93792
-3.05078
-3.17875
-3.32125
-3.47638
-3.64191
-3.81687
-4.00218
-4.20104
-4.4191
-4.66405
-4.94206
-5.26999
-5.65582
-6.11718
-2.4874
-2.49886
-2.52172
-2.55614
-2.60226
-2.66026
-2.7303
-2.81267
-2.90785
-3.01649
-3.13913
-3.27583
-3.42591
-3.58849
-3.76332
-3.95147
-4.15597
-4.38214
-4.63717
-4.92949
-5.26884
-5.66751
-6.14164
-2.45606
-2.46708
-2.48943
-2.52311
-2.56816
-2.62468
-2.69276
-2.77255
-2.86442
-2.9689
-3.0866
-3.21795
-3.36306
-3.5219
-3.69478
-3.88299
-4.08949
-4.31921
-4.57901
-4.87715
-5.22289
-5.62665
-6.10393
-2.41444
-2.42504
-2.44666
-2.47927
-2.52286
-2.57747
-2.64315
-2.71999
-2.80824
-2.90838
-3.02103
-3.14686
-3.28646
-3.44033
-3.60921
-3.7946
-3.99935
-4.22807
-4.48709
-4.78427
-5.12839
-5.5296
-6.00462
-2.36295
-2.3731
-2.39382
-2.42509
-2.46687
-2.5192
-2.58209
-2.65559
-2.73988
-2.83535
-2.94263
-3.06248
-3.19572
-3.34318
-3.5059
-3.68551
-3.88476
-4.10786
-4.36057
-4.65012
-4.98484
-5.37511
-5.83885
-2.3021
-2.31173
-2.33142
-2.36111
-2.4008
-2.45051
-2.51025
-2.58002
-2.65996
-2.75039
-2.85184
-2.9651
-3.09104
-3.23067
-3.38515
-3.55616
-3.74627
-3.95923
-4.20015
-4.47549
-4.79296
-5.16291
-5.60375
-2.23244
-2.24151
-2.26002
-2.28795
-2.3253
-2.37209
-2.42833
-2.49401
-2.5692
-2.65415
-2.7493
-2.85532
-2.97309
-3.10359
-3.24801
-3.40794
-3.58565
-3.78438
-4.00845
-4.26339
-4.55605
-4.89617
-5.3014
-2.15452
-2.16298
-2.18022
-2.20623
-2.24103
-2.28464
-2.33707
-2.39831
-2.46838
-2.54744
-2.6358
-2.73403
-2.84285
-2.96316
-3.09604
-3.24288
-3.40559
-3.58673
-3.78972
-4.01899
-4.28016
-4.58156
-4.93817
-2.06891
-2.07672
-2.09261
-2.11658
-2.14866
-2.18889
-2.23727
-2.29378
-2.3584
-2.43119
-2.51236
-2.6023
-2.70156
-2.81088
-2.93114
-3.06344
-3.20923
-3.37038
-3.54929
-3.7491
-3.97389
-4.22984
-4.52755
-1.9762
-1.98333
-1.99781
-2.01967
-2.04892
-2.08561
-2.12975
-2.18129
-2.24019
-2.30644
-2.3801
-2.46139
-2.55069
-2.64849
-2.75544
-2.87231
-3.00005
-3.13981
-3.29299
-3.46141
-3.64748
-3.85492
-4.08951
-1.87697
-1.88342
-1.89646
-1.91615
-1.9425
-1.97557
-2.01534
-2.06177
-2.11478
-2.17428
-2.24023
-2.31268
-2.3918
-2.47785
-2.5712
-2.67229
-2.78159
-2.89957
-3.0267
-3.1636
-3.31113
-3.47068
-3.64385
-1.77185
-1.77759
-1.7892
-1.80671
-1.83015
-1.85956
-1.89492
-1.93617
-1.98321
-2.03588
-2.09404
-2.1576
-2.22652
-2.30086
-2.3807
-2.46616
-2.55728
-2.65394
-2.75586
-2.86265
-2.9739
-3.08912
-3.20688
-1.66145
-1.6665
-1.67668
-1.69204
-1.7126
-1.73836
-1.76932
-1.80541
-1.84649
-1.89236
-1.94279
-1.99757
-2.05648
-2.11937
-2.18611
-2.25651
-2.33026
-2.40678
-2.4852
-2.5644
-2.64304
-2.71938
-2.79017
-1.54641
-1.55077
-1.55956
-1.57281
-1.59053
-1.61272
-1.63936
-1.67036
-1.70558
-1.74478
-1.78767
-1.83392
-1.88318
-1.93512
-1.98941
-2.04566
-2.10327
-2.16135
-2.21863
-2.27347
-2.324
-2.36775
-2.40074
-1.42733
-1.43103
-1.43847
-1.44969
-1.46467
-1.48339
-1.50583
-1.53189
-1.56143
-1.59418
-1.6298
-1.6679
-1.70801
-1.74967
-1.79239
-1.83562
-1.87861
-1.92028
-1.95911
-1.99324
-2.02049
-2.03814
-2.04217
-1.30494
-1.308
-1.31415
-1.32342
-1.33576
-1.35116
-1.36956
-1.39089
-1.41497
-1.44155
-1.47028
-1.50069
-1.53227
-1.56443
-1.59659
-1.6281
-1.65813
-1.68554
-1.70877
-1.72588
-1.73466
-1.7324
-1.71547
-1.17982
-1.18229
-1.18721
-1.19464
-1.20448
-1.21673
-1.23131
-1.24814
-1.26706
-1.28781
-1.31006
-1.33332
-1.35703
-1.38057
-1.40327
-1.42443
-1.44321
-1.45852
-1.4689
-1.47253
-1.46731
-1.45078
-1.41988
-1.05205
-1.05397
-1.05774
-1.06344
-1.07094
-1.08023
-1.09123
-1.10385
-1.11793
-1.13326
-1.14949
-1.16618
-1.18277
-1.19862
-1.21302
-1.22527
-1.23454
-1.23987
-1.23999
-1.23334
-1.2181
-1.1922
-1.15319
-0.921694
-0.923136
-0.925817
-0.929896
-0.9352
-0.941723
-0.949372
-0.958055
-0.96764
-0.977923
-0.988608
-0.999292
-1.00946
-1.0185
-1.02573
-1.03046
-1.03194
-1.02934
-1.02164
-1.0076
-0.98581
-0.954633
-0.912284
-0.791201
-0.792219
-0.793877
-0.796424
-0.799658
-0.803567
-0.808059
-0.813044
-0.8184
-0.823947
-0.829435
-0.834524
-0.838773
-0.841646
-0.842546
-0.840845
-0.835909
-0.827065
-0.813562
-0.79453
-0.76898
-0.735791
-0.693791
-0.664094
-0.664749
-0.665493
-0.666626
-0.667951
-0.669436
-0.670995
-0.672538
-0.67395
-0.675072
-0.675694
-0.675541
-0.674262
-0.671431
-0.666569
-0.659178
-0.648763
-0.634837
-0.616904
-0.594464
-0.566993
-0.533921
-0.494701
-0.535352
-0.535761
-0.535725
-0.535571
-0.53514
-0.534397
-0.533273
-0.531681
-0.529507
-0.52661
-0.522821
-0.517931
-0.511689
-0.503809
-0.493971
-0.481845
-0.467102
-0.449439
-0.428591
-0.404373
-0.376686
-0.345496
-0.310902
-0.386686
-0.387315
-0.386487
-0.384992
-0.38276
-0.379782
-0.376006
-0.371363
-0.365767
-0.359111
-0.35128
-0.342151
-0.331603
-0.31952
-0.305784
-0.290283
-0.27291
-0.253579
-0.232263
-0.209065
-0.184279
-0.158377
-0.131988
445.63
519.472
312.113
12.1529
868.941
755.233
616.286
546.94
1079.2
982.71
906.403
874.622
1093.67
1055.23
1022.98
1005.96
873.585
1077.37
1077.06
1073.81
55.5291
133.4
234.47
346.674
-4.11414
-4.135
-3.84829
-3.4289
-4.94206
-4.91908
-4.99158
-4.98357
-5.11519
-5.13185
-5.15512
-5.2099
-5.05776
-5.07773
-5.11835
-5.1782
-5.01741
-5.05722
-5.11457
-5.19492
-5.04288
-5.10355
-5.17983
-5.27077
-5.12714
-5.21536
-5.31987
-5.44003
-5.28893
-5.4075
-5.54552
-5.70436
-5.50251
-5.65104
-5.81943
-6.00731
-5.74785
-5.93059
-6.13285
-6.35772
-6.00465
-6.22649
-6.47198
-6.75248
-6.24545
-6.50721
-6.80244
-7.14096
-6.42976
-6.72047
-7.05168
-7.43074
-6.53506
-6.83589
-7.17416
-7.56053
-6.56609
-6.86725
-7.19983
-7.57379
-6.52873
-6.82798
-7.15638
-7.52278
-6.42641
-6.7232
-7.04918
-7.41306
-6.25221
-6.54472
-6.86809
-7.22939
-5.99852
-6.28012
-6.59334
-6.94072
-5.6643
-5.92435
-6.21368
-6.52964
-5.25444
-5.4802
-5.72971
-5.99808
-4.78511
-4.96606
-5.16267
-5.37027
-4.28447
-4.41796
-4.55951
-4.70553
-3.77979
-3.86951
-3.96156
-4.05357
-3.29153
-3.34407
-3.3949
-3.4429
-2.83337
-2.85664
-2.87562
-2.89019
-2.41239
-2.41417
-2.41029
-2.40106
-2.03105
-2.01799
-1.99894
-1.97414
-1.68896
-1.66643
-1.63828
-1.60451
-1.38408
-1.35628
-1.32356
-1.28582
-1.11306
-1.08325
-1.04935
-1.01127
-0.871718
-0.842465
-0.809991
-0.774246
-0.65574
-0.628965
-0.599854
-0.568404
-0.461129
-0.438142
-0.413744
-0.387983
-0.283253
-0.264956
-0.246184
-0.227048
-0.11282
-0.100861
-0.0893768
-0.0785524
32.5895
14.8494
15.1067
15.4297
15.2127
15.0712
14.974
14.887
14.8158
14.7584
14.7102
14.6682
14.6308
14.5974
14.5683
14.544
14.5253
14.5125
14.5061
392.862
14.6476
15.4804
15.6015
15.2649
15.0716
14.9524
14.8521
14.7804
14.7272
14.6837
14.6443
14.6077
14.5737
14.5431
14.517
14.4965
14.4824
14.4753
805.268
619.314
108.131
16.1303
15.4984
15.0854
14.9072
14.7923
14.7283
14.6869
14.6524
14.6168
14.5809
14.5454
14.5122
14.4832
14.4601
14.4441
14.4359
958.002
889.599
809.61
247.461
15.3156
14.5954
14.7454
14.6813
14.6551
14.6382
14.616
14.5871
14.5513
14.5127
14.4751
14.4417
14.4147
14.396
14.3864
1069.89
1044.99
1033.05
960.145
307.108
14.6572
14.6297
14.5371
14.5626
14.5877
14.5841
14.5589
14.5201
14.4754
14.4308
14.3908
14.3586
14.3362
14.3248
706.599
1172.07
1146.88
1120.46
1012.02
266.743
15.3063
14.4892
14.4728
14.5422
14.5609
14.5349
14.4874
14.4321
14.3772
14.3283
14.289
14.262
14.2482
13.0986
157.08
874.104
1224.46
1188.99
850.401
120.379
16.0212
14.6089
14.5341
14.5523
14.5164
14.4516
14.3799
14.3108
14.2503
14.2026
14.1699
14.1534
-4.99178
-4.90832
22.8131
845.002
1255.36
1216.93
457.769
26.1457
15.4992
14.6311
14.5616
14.5001
14.4071
14.3129
14.2262
14.1522
14.0948
14.0559
14.0364
-5.28392
-5.44943
-5.48648
116.2
1112.64
1227.22
854.074
98.321
17.8912
15.005
14.6091
14.4775
14.3446
14.2221
14.1158
14.0276
13.9603
13.9153
13.8928
-5.31912
-5.55564
-5.86493
-5.59258
662.721
1278.39
1080.47
222.061
21.0015
15.5777
14.6382
14.4092
14.2433
14.0948
13.9705
13.8696
13.7937
13.7432
13.7182
-5.36746
-5.63248
-5.89632
-6.05329
217.609
1208.21
1151.21
436.536
25.3393
16.1278
14.6179
14.2722
14.0838
13.9179
13.7811
13.6716
13.5896
13.5355
13.5088
-5.46012
-5.74946
-5.993
-6.10997
14.5605
1049.68
1146.48
579.322
32.2504
16.4133
14.4731
14.0529
13.8554
13.6826
13.5411
13.4284
13.3444
13.2889
13.2615
-5.67806
-6.01153
-6.25159
-6.43584
-5.56852
829.122
1188.2
573.344
31.4277
16.2436
14.1634
13.7469
13.5538
13.3854
13.2479
13.1381
13.056
13.0018
12.975
-6.01346
-6.43656
-6.73472
-7.09876
-7.9387
735.551
1181.04
511.601
26.4322
15.5414
13.6928
13.3527
13.179
13.0277
12.9026
12.8013
12.7253
12.6747
12.6497
-6.32382
-6.78782
-7.16581
-7.67044
3.14267
806.455
1141.63
414.942
21.8449
14.457
13.1127
12.8851
12.7418
12.6171
12.5103
12.4221
12.3551
12.3103
12.288
-6.69809
-7.17598
-7.3115
-7.91871
133.224
937.775
1039.16
284.292
18.7543
13.2403
12.4985
12.3628
12.2579
12.1642
12.0785
12.0061
11.9503
11.9126
11.8938
-7.18161
-7.8128
-8.00054
-10.0825
578.638
960.777
751.274
123.394
15.3179
12.1832
11.8896
11.8088
11.7453
11.6802
11.6162
11.5606
11.5168
11.4868
11.472
-7.75661
-8.65081
-10.6737
229.612
699.164
867.953
269.824
28.8458
12.5914
11.5196
11.2996
11.2483
11.2164
11.1752
11.1321
11.0928
11.0608
11.0387
11.0277
-8.18102
-9.38199
-11.2245
429.592
650.229
326.698
26.2838
14.0171
11.0931
10.8524
10.7074
10.6865
10.6764
10.6574
10.6338
10.6097
10.5886
10.5736
10.5662
-8.31256
-9.29414
-11.0744
419.037
677.377
279.433
15.1339
10.8996
10.1248
10.0915
10.0886
10.1146
10.1301
10.1339
10.1283
10.1173
10.1055
10.0966
10.092
-8.27265
-9.04484
-10.3826
168.18
723.776
735.81
36.8767
9.60366
9.37559
9.29521
9.4499
9.53854
9.58754
9.61323
9.62229
9.62106
9.61605
9.6114
9.6089
-8.19808
-9.26402
-10.1008
-10.6445
750.843
733.196
255.725
10.5802
8.6551
8.43044
8.77525
8.98352
9.06589
9.10552
9.12204
9.12523
9.12347
9.12103
9.1196
-8.09368
-9.15559
-9.35013
-10.564
464.127
734.632
736.525
41.5913
8.5116
7.72367
8.18837
8.5056
8.58919
8.61995
8.63114
8.63163
8.6292
8.62694
8.62585
-7.90464
-9.01242
-9.56536
-8.82531
6.62997
749.956
719.069
427.906
31.4655
8.19351
8.01174
8.16277
8.16894
8.1559
8.14659
8.13824
8.13253
8.12933
8.12849
-7.59461
-8.78834
-10.0949
-10.2436
-13.3976
389.104
707.832
694.71
86.9735
9.3383
8.02657
7.85212
7.74715
7.68535
7.65483
7.63882
7.63099
7.62745
7.62803
-7.12681
-8.27683
-9.79502
-11.0497
-4.81146
1.17288
368.126
354.899
101.267
8.59371
7.51264
7.3338
7.22453
7.16671
7.13895
7.12669
7.12246
7.12017
7.12608
-6.50375
-7.50024
-8.93257
-11.2016
-12.1077
-7.87391
5.56577
14.6576
41.8858
9.15673
6.7514
6.60199
6.59751
6.5929
6.59604
6.60145
6.60811
6.60889
6.62371
-5.75502
-6.48172
-7.52744
-9.17371
-9.62031
-6.67192
-7.37047
0.24209
2.69746
5.52475
5.62422
5.80191
5.92622
5.99525
6.03956
6.06974
6.09097
6.10062
6.12064
-4.96866
-5.4251
-6.00905
-6.76887
-6.89385
-5.90835
-4.72383
-0.772986
2.00512
3.68543
4.59124
5.02115
5.25917
5.39717
5.484
5.54064
5.57794
5.59775
5.62044
-4.21274
-4.45901
-4.71701
-4.93244
-4.77706
-3.95768
-2.38602
-0.063496
1.8208
3.08458
3.87904
4.3515
4.64161
4.82471
4.94407
5.02289
5.07445
5.10385
5.12766
-3.51932
-3.60742
-3.64566
-3.56711
-3.22483
-2.44436
-1.19165
0.342512
1.67605
2.65346
3.3315
3.78348
4.08606
4.29016
4.42885
4.52279
4.58496
4.62195
4.64568
-2.90572
-2.88562
-2.79247
-2.57444
-2.15768
-1.46904
-0.525673
0.543389
1.52265
2.29876
2.87637
3.29144
3.58629
3.79483
3.94162
4.04358
4.11218
4.1541
4.17674
-2.37438
-2.28698
-2.12452
-1.85399
-1.43986
-0.855978
-0.129865
0.655344
1.39021
2.00625
2.49177
2.86053
3.13484
3.3363
3.48237
3.58616
3.65718
3.70134
3.7221
-1.92066
-1.79659
-1.60594
-1.33093
-0.951071
-0.465577
0.101979
0.699339
1.26452
1.75558
2.15887
2.47797
2.7242
2.91072
3.04944
3.14999
3.21986
3.26386
3.28221
-1.53647
-1.39716
-1.2026
-0.94432
-0.613049
-0.213985
0.233498
0.69617
1.13706
1.52933
1.86112
2.13173
2.34656
2.5134
2.64012
2.73356
2.79934
2.8412
2.85682
-1.21247
-1.07293
-0.890903
-0.659287
-0.378281
-0.0536941
0.299864
0.66074
1.00596
1.31797
1.58754
1.81244
1.99495
2.13953
2.25124
2.33477
2.39424
2.43242
2.44514
-0.939182
-0.808815
-0.646147
-0.447997
-0.216064
0.0439156
0.321224
0.601528
0.870108
1.11534
1.33039
1.51285
1.66342
1.78458
1.87948
1.95124
2.00282
2.03623
2.04598
-0.707981
-0.592977
-0.454746
-0.29192
-0.106527
0.0966309
0.309905
0.523784
0.728727
0.917046
1.08389
1.22716
1.34688
1.44437
1.52156
1.58046
1.62311
1.65106
1.65785
-0.511243
-0.415794
-0.304956
-0.177878
-0.0364262
0.115816
0.273616
0.430773
0.581184
0.719874
0.843559
0.950665
1.04097
1.11516
1.17438
1.21989
1.25306
1.27517
1.27907
-0.342304
-0.269912
-0.187793
-0.0964609
0.0031694
0.108801
0.217118
0.3243
0.426645
0.521125
0.605696
0.679316
0.741765
0.793387
0.834844
0.866875
0.890336
0.906465
0.907737
-0.19443
-0.146899
-0.0959659
-0.0406954
0.0185778
0.0806191
0.143631
0.20558
0.264524
0.318886
0.367597
0.410104
0.446279
0.476294
0.500497
0.519275
0.533077
0.543287
0.542192
-0.0619094
-0.0429846
-0.025258
-0.00648925
0.0132474
0.0335548
0.0538731
0.0736004
0.0921909
0.109224
0.124432
0.137692
0.148994
0.158402
0.166027
0.171982
0.176251
0.179835
0.178964
)
;

boundaryField
{
    leftWall
    {
        type            fixedFluxPressure;
        gradient        uniform 0;
        value           nonuniform List<scalar> 
50
(
1626.99
1626.15
1624.46
1621.96
1618.69
1614.7
1610.07
1604.87
1595.88
1581.56
1565.84
1549.13
1532.03
1515.06
1499.4
1433.84
465.958
-2.33478
-2.34192
-2.37297
-2.40464
-2.4344
-2.46359
-2.48903
-2.5078
-2.5179
-2.51821
-2.50811
-2.4874
-2.45606
-2.41444
-2.36295
-2.3021
-2.23244
-2.15452
-2.06891
-1.9762
-1.87697
-1.77185
-1.66145
-1.54641
-1.42733
-1.30494
-1.17982
-1.05205
-0.921694
-0.791201
-0.664094
-0.535352
-0.386686
)
;
    }
    rightWall
    {
        type            fixedFluxPressure;
        gradient        uniform 0;
        value           nonuniform List<scalar> 
50
(
14.5602
14.5591
14.5565
14.5526
14.5474
14.5407
14.5327
14.5233
14.5061
14.4753
14.4359
14.3864
14.3248
14.2482
14.1534
14.0364
13.8928
13.7182
13.5088
13.2615
12.975
12.6497
12.288
11.8938
11.472
11.0277
10.5662
10.092
9.6089
9.1196
8.62585
8.12849
7.62803
7.12608
6.62371
6.12064
5.62044
5.12766
4.64568
4.17674
3.7221
3.28221
2.85682
2.44514
2.04598
1.65785
1.27907
0.907737
0.542192
0.178964
)
;
    }
    lowerWall
    {
        type            fixedFluxPressure;
        gradient        uniform 0;
        value           nonuniform List<scalar> 
62
(
1626.99
1633.22
1635.28
1632.15
1623.94
1612.9
1600.92
1588.85
1577.13
1566.27
1556.99
1550.34
1547.81
1551.39
1563.69
1588.28
1627.89
1682.96
1748.24
1806.84
1828.44
1803.26
1859.59
1859.59
1866.75
1884.5
1925.79
1928.61
1882.79
1772.71
1569.61
445.63
519.472
312.113
12.1529
15.3074
15.3119
15.3218
15.3375
15.3596
15.4024
15.4637
15.4758
15.3074
15.2716
15.2271
15.1816
15.1264
15.0623
14.9948
14.9283
14.8658
14.809
14.7583
14.7137
14.6752
14.6423
14.6149
14.593
14.5766
14.5656
14.5602
)
;
    }
    atmosphere
    {
        type            totalPressure;
        rho             rho;
        psi             none;
        gamma           1;
        p0              uniform 0;
        value           nonuniform List<scalar> 
46
(
-0.294198
-0.295568
-0.294183
-0.291915
-0.288703
-0.284543
-0.279403
-0.273231
-0.265963
-0.257526
-0.247851
-0.236878
-0.224571
-0.210924
-0.195952
-0.179685
-0.162157
-0.143421
-0.12358
-0.102871
-0.081773
-0.0610733
-0.0415801
-0.0284994
-0.0210383
-0.0144457
-0.00887672
-0.00236784
0
0
0
0
0
0
0
0
0
0
0
0
0
0
0
0
0
0
)
;
    }
    defaultFaces
    {
        type            empty;
    }
}


// ************************************************************************* //
