/*--------------------------------*- C++ -*----------------------------------*\
| =========                 |                                                 |
| \\      /  F ield         | OpenFOAM: The Open Source CFD Toolbox           |
|  \\    /   O peration     | Version:  5.x                                   |
|   \\  /    A nd           | Web:      www.OpenFOAM.org                      |
|    \\/     M anipulation  |                                                 |
\*---------------------------------------------------------------------------*/
FoamFile
{
    version     2.0;
    format      ascii;
    class       surfaceScalarField;
    location    "0.25";
    object      phi;
}
// * * * * * * * * * * * * * * * * * * * * * * * * * * * * * * * * * * * * * //

dimensions      [0 3 -1 0 0 0 0];

internalField   nonuniform List<scalar> 
4432
(
4.23637e-07
-4.23637e-07
5.02051e-06
-4.59688e-06
1.1216e-05
-6.19547e-06
1.72725e-05
-6.05656e-06
2.26024e-05
-5.32991e-06
2.72672e-05
-4.66478e-06
3.15186e-05
-4.25142e-06
3.55712e-05
-4.05261e-06
3.95327e-05
-3.96145e-06
4.34076e-05
-3.8749e-06
4.71253e-05
-3.71772e-06
5.05626e-05
-3.43725e-06
5.35564e-05
-2.99387e-06
5.58627e-05
-2.30622e-06
5.71286e-05
-1.26599e-06
5.6486e-05
6.42632e-07
5.22668e-05
4.21919e-06
4.27817e-05
9.48507e-06
2.68902e-05
1.58915e-05
6.02974e-06
2.08605e-05
-1.21859e-05
1.82156e-05
-1.85069e-05
6.32104e-06
-1.85069e-05
4.85718e-07
-9.09359e-07
5.11727e-06
-9.22844e-06
1.13193e-05
-1.23975e-05
1.73664e-05
-1.21037e-05
2.26871e-05
-1.06506e-05
2.73554e-05
-9.33306e-06
3.16286e-05
-8.52463e-06
3.5718e-05
-8.14201e-06
3.9725e-05
-7.96847e-06
4.36505e-05
-7.80038e-06
4.74233e-05
-7.49047e-06
5.09236e-05
-6.93759e-06
5.39854e-05
-6.05568e-06
5.64217e-05
-4.74258e-06
5.80024e-05
-2.84665e-06
5.87831e-05
-1.38046e-07
5.90868e-05
3.9155e-06
5.78838e-05
1.0688e-05
5.21562e-05
2.16191e-05
3.80513e-05
3.49654e-05
1.66582e-05
3.96087e-05
1.61237e-06
2.13669e-05
-1.68945e-05
5.88655e-07
-1.49802e-06
5.26148e-06
-1.39013e-05
1.14305e-05
-1.85665e-05
1.73989e-05
-1.80721e-05
2.2645e-05
-1.58967e-05
2.72729e-05
-1.3961e-05
3.15464e-05
-1.27981e-05
3.56676e-05
-1.22632e-05
3.97249e-05
-1.20258e-05
4.37105e-05
-1.17861e-05
4.75515e-05
-1.13314e-05
5.11308e-05
-1.05169e-05
5.42965e-05
-9.22141e-06
5.68633e-05
-7.30937e-06
5.86051e-05
-4.58848e-06
5.9248e-05
-7.80913e-07
5.8685e-05
4.47856e-06
5.7459e-05
1.1914e-05
5.62252e-05
2.28529e-05
5.26548e-05
3.85359e-05
4.06344e-05
5.16291e-05
2.00813e-05
4.192e-05
3.18673e-06
7.44628e-07
-2.24265e-06
5.48404e-06
-1.86407e-05
1.16012e-05
-2.46837e-05
1.74516e-05
-2.39225e-05
2.2592e-05
-2.10371e-05
2.717e-05
-1.8539e-05
3.14535e-05
-1.70816e-05
3.56283e-05
-1.64379e-05
3.97637e-05
-1.61612e-05
4.38406e-05
-1.58629e-05
4.77836e-05
-1.52745e-05
5.14812e-05
-1.42145e-05
5.47923e-05
-1.25325e-05
5.75455e-05
-1.00626e-05
5.95368e-05
-6.57986e-06
6.05307e-05
-1.77476e-06
6.0258e-05
4.75129e-06
5.8684e-05
1.3488e-05
5.67416e-05
2.47953e-05
5.55204e-05
3.9757e-05
4.98612e-05
5.72883e-05
3.10306e-05
6.07506e-05
3.42173e-05
9.51762e-07
-3.19441e-06
5.77067e-06
-2.34596e-05
1.18087e-05
-3.07217e-05
1.75026e-05
-2.96164e-05
2.25118e-05
-2.60464e-05
2.70352e-05
-2.30625e-05
3.13398e-05
-2.13862e-05
3.55868e-05
-2.06849e-05
3.98216e-05
-2.0396e-05
4.40121e-05
-2.00534e-05
4.80817e-05
-1.93442e-05
5.19263e-05
-1.8059e-05
5.54182e-05
-1.60244e-05
5.84044e-05
-1.30488e-05
6.0705e-05
-8.88044e-06
6.21124e-05
-3.18218e-06
6.23937e-05
4.47001e-06
6.13481e-05
1.45335e-05
5.89014e-05
2.7242e-05
5.62535e-05
4.24049e-05
5.18322e-05
6.17096e-05
3.58214e-05
7.67613e-05
7.00387e-05
1.20508e-06
-4.39949e-06
6.10517e-06
-2.83597e-05
1.20319e-05
-3.66484e-05
1.75354e-05
-3.512e-05
2.2397e-05
-3.09079e-05
2.68679e-05
-2.75334e-05
3.12061e-05
-2.57244e-05
3.55407e-05
-2.50195e-05
3.98898e-05
-2.4745e-05
4.42082e-05
-2.43718e-05
4.84207e-05
-2.35566e-05
5.24331e-05
-2.20715e-05
5.61344e-05
-1.97257e-05
5.93917e-05
-1.63061e-05
6.20455e-05
-1.15343e-05
6.39062e-05
-5.04291e-06
6.47484e-05
3.6278e-06
6.43679e-05
1.4914e-05
6.23555e-05
2.92545e-05
5.86119e-05
4.61484e-05
5.30178e-05
6.73037e-05
3.83346e-05
9.14445e-05
0.000108373
1.4962e-06
-5.8957e-06
6.47293e-06
-3.33364e-05
1.22539e-05
-4.24293e-05
1.75404e-05
-4.04065e-05
2.2248e-05
-3.56156e-05
2.66753e-05
-3.19606e-05
3.10606e-05
-3.01098e-05
3.54942e-05
-2.94531e-05
3.99655e-05
-2.92163e-05
4.44189e-05
-2.88252e-05
4.87837e-05
-2.79215e-05
5.29807e-05
-2.62684e-05
5.69173e-05
-2.36623e-05
6.04795e-05
-1.98683e-05
6.35245e-05
-1.45792e-05
6.58785e-05
-7.39694e-06
6.73118e-05
2.19452e-06
6.75993e-05
1.46266e-05
6.63781e-05
3.04756e-05
6.28513e-05
4.96753e-05
5.63405e-05
7.38144e-05
4.34922e-05
0.000104293
0.000151866
1.81179e-06
-7.70749e-06
6.8527e-06
-3.83773e-05
1.24587e-05
-4.80354e-05
1.75175e-05
-4.54653e-05
2.2079e-05
-4.01771e-05
2.64774e-05
-3.6359e-05
3.0922e-05
-3.45544e-05
3.54605e-05
-3.39917e-05
4.00562e-05
-3.38121e-05
4.46478e-05
-3.34168e-05
4.91764e-05
-3.24501e-05
5.3582e-05
-3.0674e-05
5.77898e-05
-2.78701e-05
6.16993e-05
-2.37778e-05
6.51782e-05
-1.80581e-05
6.80621e-05
-1.02809e-05
7.01204e-05
1.36303e-07
7.11059e-05
1.3641e-05
7.0764e-05
3.08175e-05
6.83602e-05
5.20791e-05
6.21432e-05
8.00315e-05
4.89201e-05
0.000117516
0.000200786
7.05233e-06
-7.05233e-06
1.08819e-05
-3.8294e-06
1.24919e-05
-1.61001e-06
1.35884e-05
-1.09643e-06
1.43518e-05
-7.63509e-07
1.48657e-05
-5.13756e-07
1.51858e-05
-3.20209e-07
1.53406e-05
-1.5485e-07
1.5324e-05
1.65199e-08
1.50788e-05
2.45146e-07
1.45357e-05
5.4294e-07
1.36592e-05
8.76354e-07
1.24498e-05
1.20945e-06
1.0932e-05
1.51779e-06
9.1164e-06
1.81562e-06
7.05914e-06
2.05739e-06
4.80958e-06
2.2496e-06
2.43216e-06
2.37754e-06
2.43222e-06
6.07024e-06
-1.31226e-05
1.00411e-05
-7.80011e-06
1.19726e-05
-3.54149e-06
1.35889e-05
-2.71264e-06
1.46831e-05
-1.85781e-06
1.5396e-05
-1.22657e-06
1.58835e-05
-8.07877e-07
1.61917e-05
-4.63259e-07
1.63073e-05
-9.92418e-08
1.61687e-05
3.83614e-07
1.57335e-05
9.78031e-07
1.4942e-05
1.66783e-06
1.37559e-05
2.39569e-06
1.21707e-05
3.1029e-06
1.022e-05
3.76632e-06
7.95274e-06
4.32502e-06
5.43466e-06
4.76769e-06
2.7497e-06
5.06245e-06
5.18201e-06
7.05392e-06
-2.01766e-05
1.08759e-05
-1.1622e-05
1.23771e-05
-5.04262e-06
1.38425e-05
-4.17789e-06
1.4825e-05
-2.84041e-06
1.54493e-05
-1.85087e-06
1.58886e-05
-1.24735e-06
1.61793e-05
-7.54123e-07
1.62992e-05
-2.1921e-07
1.61717e-05
5.10953e-07
1.57289e-05
1.42083e-06
1.49228e-05
2.47394e-06
1.37209e-05
3.59762e-06
1.21262e-05
4.69759e-06
1.01727e-05
5.71984e-06
7.90991e-06
6.58817e-06
5.40398e-06
7.27364e-06
2.73285e-06
7.73361e-06
7.9151e-06
8.37395e-06
-2.85505e-05
1.17109e-05
-1.49588e-05
1.25778e-05
-5.90948e-06
1.40544e-05
-5.65444e-06
1.49978e-05
-3.78384e-06
1.55434e-05
-2.39657e-06
1.59395e-05
-1.64353e-06
1.62441e-05
-1.05879e-06
1.63907e-05
-3.65985e-07
1.62946e-05
6.07011e-07
1.58716e-05
1.84379e-06
1.50703e-05
3.27518e-06
1.38593e-05
4.80868e-06
1.22421e-05
6.31489e-06
1.02696e-05
7.69237e-06
7.98161e-06
8.87645e-06
5.45022e-06
9.80503e-06
2.75732e-06
1.04266e-05
1.06728e-05
1.02526e-05
-3.88031e-05
1.27467e-05
-1.74528e-05
1.25527e-05
-5.71533e-06
1.42886e-05
-7.39033e-06
1.52353e-05
-4.73061e-06
1.56614e-05
-2.82284e-06
1.60147e-05
-1.99687e-06
1.63389e-05
-1.38304e-06
1.65334e-05
-5.60607e-07
1.64939e-05
6.46476e-07
1.61122e-05
2.22565e-06
1.53253e-05
4.06198e-06
1.41156e-05
6.01838e-06
1.24815e-05
7.9491e-06
1.04699e-05
9.704e-06
8.13534e-06
1.12113e-05
5.55905e-06
1.23814e-05
2.8115e-06
1.31743e-05
1.34845e-05
1.36749e-05
-5.2478e-05
1.45984e-05
-1.83763e-05
1.2156e-05
-3.27287e-06
1.44887e-05
-9.72295e-06
1.54662e-05
-5.70815e-06
1.5748e-05
-3.10474e-06
1.60707e-05
-2.31949e-06
1.64368e-05
-1.74922e-06
1.67177e-05
-8.41525e-07
1.67524e-05
6.11715e-07
1.64263e-05
2.55182e-06
1.56682e-05
4.82003e-06
1.44453e-05
7.24122e-06
1.27905e-05
9.60401e-06
1.0732e-05
1.17624e-05
8.34468e-06
1.35987e-05
5.70069e-06
1.50255e-05
2.88264e-06
1.59924e-05
1.63671e-05
1.67112e-05
-6.9189e-05
1.56187e-05
-1.72838e-05
1.08995e-05
1.4465e-06
1.46811e-05
-1.35045e-05
1.56446e-05
-6.67162e-06
1.5769e-05
-3.22913e-06
1.60804e-05
-2.63082e-06
1.65318e-05
-2.20066e-06
1.69185e-05
-1.22824e-06
1.70551e-05
4.75148e-07
1.68128e-05
2.79414e-06
1.60846e-05
5.54796e-06
1.48625e-05
8.46326e-06
1.31671e-05
1.12995e-05
1.10573e-05
1.38722e-05
8.59609e-06
1.60599e-05
5.87055e-06
1.77511e-05
2.96879e-06
1.88941e-05
1.93359e-05
1.25767e-05
-8.17656e-05
9.47047e-06
-1.41775e-05
7.70256e-06
3.21447e-06
1.53374e-05
-2.11393e-05
1.60267e-05
-7.36088e-06
1.58271e-05
-3.02943e-06
1.61156e-05
-2.91927e-06
1.66479e-05
-2.73297e-06
1.71674e-05
-1.7478e-06
1.74312e-05
2.11311e-07
1.72698e-05
2.95539e-06
1.65837e-05
6.23407e-06
1.5355e-05
9.69203e-06
1.36195e-05
1.3035e-05
1.14386e-05
1.60529e-05
8.89413e-06
1.86044e-05
6.07544e-06
2.057e-05
3.07134e-06
2.18981e-05
2.24072e-05
4.86653e-06
-1.2574e-05
1.58304e-05
-4.93412e-05
2.71336e-05
-5.93386e-05
3.71242e-05
-5.54559e-05
4.64121e-05
-4.9465e-05
5.57545e-05
-4.57014e-05
6.54465e-05
-4.42463e-05
7.54579e-05
-4.40032e-05
8.56569e-05
-4.4011e-05
9.59275e-05
-4.36874e-05
0.000106202
-4.27246e-05
0.0001164
-4.08725e-05
0.000126382
-3.78513e-05
0.000135972
-3.33678e-05
0.000144977
-2.70634e-05
0.000153149
-1.8453e-05
0.000160009
-6.72333e-06
0.000164698
8.95149e-06
0.000167076
2.84402e-05
0.000166742
5.24122e-05
0.000164193
8.25811e-05
0.000167476
0.000114233
0.000168562
0.000199699
6.31271e-06
-1.88867e-05
1.73803e-05
-6.04089e-05
2.77824e-05
-6.97406e-05
3.68667e-05
-6.45402e-05
4.57603e-05
-5.83586e-05
5.51931e-05
-5.51341e-05
6.5251e-05
-5.43043e-05
7.57584e-05
-5.45106e-05
8.65538e-05
-5.48064e-05
9.75653e-05
-5.46989e-05
0.000108782
-5.39416e-05
0.000120101
-5.21917e-05
0.000131339
-4.90888e-05
0.000142499
-4.45277e-05
0.000153671
-3.82355e-05
0.000164954
-2.97365e-05
0.000176147
-1.79157e-05
0.000185596
-4.97919e-07
0.000194052
1.99845e-05
0.000200694
4.57704e-05
0.000209447
7.38282e-05
0.000224024
9.96553e-05
0.000134366
0.000258221
7.74482e-06
-2.66316e-05
1.87463e-05
-7.14104e-05
2.81499e-05
-7.91442e-05
3.64456e-05
-7.28359e-05
4.51383e-05
-6.70513e-05
5.47633e-05
-6.47592e-05
6.51551e-05
-6.4696e-05
7.60234e-05
-6.53789e-05
8.71952e-05
-6.59781e-05
9.8603e-05
-6.61067e-05
0.000110209
-6.55472e-05
0.000121821
-6.38038e-05
0.000133475
-6.07432e-05
0.000145979
-5.70318e-05
0.000159717
-5.19738e-05
0.000174894
-4.49135e-05
0.000189696
-3.2717e-05
0.000204276
-1.50778e-05
0.000217256
7.00364e-06
0.000226528
3.64987e-05
0.000237386
6.29702e-05
0.000249532
8.75095e-05
0.00011084
0.000273058
9.09823e-06
-3.57298e-05
1.97888e-05
-8.21009e-05
2.81447e-05
-8.75001e-05
3.58158e-05
-8.05069e-05
4.44174e-05
-7.56529e-05
5.41097e-05
-7.44515e-05
6.44519e-05
-7.50382e-05
7.5069e-05
-7.59961e-05
8.5781e-05
-7.66901e-05
9.65354e-05
-7.68611e-05
0.000107465
-7.64771e-05
0.00011882
-7.5158e-05
0.000131742
-7.36657e-05
0.000148758
-7.40478e-05
0.000167887
-7.11024e-05
0.000189583
-6.66098e-05
0.000211272
-5.44056e-05
0.000230293
-3.4099e-05
0.000242021
-4.72478e-06
0.000249124
2.9396e-05
0.000256436
5.56577e-05
0.000266051
7.78946e-05
9.58949e-05
0.000280996
1.04026e-05
-4.61324e-05
2.02672e-05
-9.19655e-05
2.73623e-05
-9.45952e-05
3.44218e-05
-8.75664e-05
4.27416e-05
-8.39728e-05
5.19528e-05
-8.36626e-05
6.14407e-05
-8.45261e-05
7.09442e-05
-8.54996e-05
8.05527e-05
-8.62987e-05
9.07064e-05
-8.70148e-05
0.000102482
-8.82525e-05
0.000117721
-9.03977e-05
0.000138273
-9.42174e-05
0.000168185
-0.00010396
0.000196365
-9.92825e-05
0.00022338
-9.3624e-05
0.000243955
-7.49814e-05
0.000259526
-4.96701e-05
0.000263151
-8.34933e-06
0.000265214
2.73331e-05
0.000266743
5.41288e-05
0.000270953
7.36846e-05
8.70453e-05
0.000279802
1.17027e-05
-5.78351e-05
2.00239e-05
-0.000100287
2.53724e-05
-9.99438e-05
3.16528e-05
-9.38468e-05
3.94249e-05
-9.17449e-05
4.78616e-05
-9.20993e-05
5.6637e-05
-9.33016e-05
6.6181e-05
-9.50435e-05
7.77736e-05
-9.78913e-05
9.26525e-05
-0.000101894
0.000114166
-0.000109766
0.000143592
-0.000119824
0.000181562
-0.000132187
0.000229079
-0.000151476
0.000263195
-0.000133399
0.000282332
-0.000112761
0.000277796
-7.04455e-05
0.000268899
-4.07729e-05
0.000285588
-2.50386e-05
0.000303628
9.29327e-06
0.000304118
5.36387e-05
0.00029279
8.50134e-05
9.46629e-05
0.000285172
1.38225e-05
-7.16576e-05
2.03069e-05
-0.000106771
2.31979e-05
-0.000102835
2.90519e-05
-9.97009e-05
3.7408e-05
-0.000100101
4.72048e-05
-0.000101896
5.89925e-05
-0.000105089
7.47315e-05
-0.000110783
9.73885e-05
-0.000120548
0.00012752
-0.000132026
0.000179644
-0.000161889
0.000228921
-0.000169101
0.000270264
-0.00017353
0.000288885
-0.000170097
0.0002984
-0.000142914
0.00027433
-8.86914e-05
0.00024317
-3.92863e-05
0.000247521
-4.51232e-05
0.000294168
-7.1686e-05
0.000357934
-5.44726e-05
0.000398706
1.28665e-05
0.000395903
8.78162e-05
0.000124252
0.000366314
1.89358e-05
-9.05933e-05
2.41657e-05
-0.000112001
2.54164e-05
-0.000104085
3.35963e-05
-0.000107881
4.68734e-05
-0.000113378
6.3118e-05
-0.000118141
8.50505e-05
-0.000127022
0.000119402
-0.000145134
0.000157545
-0.000158691
0.000195972
-0.000170453
0.00022739
-0.000193307
0.000263205
-0.000204916
0.000291207
-0.000201533
0.000301575
-0.000180465
0.000294613
-0.000135952
0.000267044
-6.11233e-05
0.000243044
-1.52862e-05
0.000256438
-5.85165e-05
0.000277143
-9.23912e-05
0.000308955
-8.62851e-05
0.000355311
-3.34888e-05
0.000393022
5.01049e-05
0.000114127
0.000403147
2.56251e-05
-0.000116218
3.26237e-05
-0.000119
4.08103e-05
-0.000112272
5.71198e-05
-0.00012419
7.84907e-05
-0.000134749
0.000100394
-0.000140044
0.000122717
-0.000149344
0.000142711
-0.000165129
0.000169372
-0.000185351
0.000205088
-0.000206169
0.000235284
-0.000223503
0.000263617
-0.000233248
0.000286418
-0.000224334
0.000296836
-0.000190883
0.000287699
-0.000126814
0.000261006
-3.44304e-05
0.000249234
-3.51424e-06
0.000249724
-5.90064e-05
0.000248218
-9.08857e-05
0.000247262
-8.53289e-05
0.000254916
-4.11423e-05
0.000280592
2.44284e-05
8.06637e-05
0.000314056
1.08067e-05
-0.000127025
2.85995e-05
-0.000136792
4.57302e-05
-0.000129403
5.74484e-05
-0.000135908
6.86651e-05
-0.000145966
8.42259e-05
-0.000155605
0.000102452
-0.00016757
0.000122694
-0.000185371
0.000147351
-0.000210009
0.000176768
-0.000235586
0.000204808
-0.000251542
0.000229137
-0.000257577
0.000245342
-0.000240539
0.000249441
-0.000194983
0.000239396
-0.00011677
0.000223407
-1.84416e-05
0.000226432
-6.53854e-06
0.000222181
-5.47554e-05
0.000211524
-8.02291e-05
0.000193164
-6.69691e-05
0.00017506
-2.30376e-05
0.000179384
2.01043e-05
4.72165e-05
0.000212831
1.23268e-06
-0.000128258
1.41161e-05
-0.000149676
3.06589e-05
-0.000145945
4.36749e-05
-0.000148924
5.45808e-05
-0.000156872
6.61759e-05
-0.0001672
7.95813e-05
-0.000180975
9.59164e-05
-0.000201706
0.00011653
-0.000230622
0.000138915
-0.000257972
0.000157466
-0.000270093
0.000171661
-0.000271773
0.000177763
-0.000246641
0.000171839
-0.000189059
0.000154457
-9.93871e-05
0.000157643
-2.16274e-05
0.000177973
-2.68688e-05
0.000180545
-5.73275e-05
0.000166498
-6.61821e-05
0.000141053
-4.15238e-05
0.000126512
-8.49738e-06
0.000138559
8.058e-06
1.18212e-05
0.000173954
4.87879e-06
-0.000133136
1.54758e-05
-0.000160273
2.50154e-05
-0.000155485
3.40062e-05
-0.000157915
4.24998e-05
-0.000165365
5.06703e-05
-0.000175371
5.91558e-05
-0.00018946
6.91452e-05
-0.000211695
8.05556e-05
-0.000242032
9.12684e-05
-0.000268684
9.92957e-05
-0.00027812
9.99433e-05
-0.00027242
9.58821e-05
-0.000242579
8.17258e-05
-0.000174902
7.02022e-05
-8.78634e-05
9.8195e-05
-4.96203e-05
0.000124004
-5.26775e-05
0.000124846
-5.81702e-05
0.000106534
-4.78695e-05
9.45277e-05
-2.95175e-05
0.000106304
-2.02733e-05
0.000137654
-2.32924e-05
-3.02651e-05
0.00017974
8.35583e-06
-0.000141492
1.35478e-05
-0.000165465
1.927e-05
-0.000161207
2.56543e-05
-0.000164299
3.13678e-05
-0.000171079
3.58929e-05
-0.000179896
3.91184e-05
-0.000192686
4.10393e-05
-0.000213616
4.10055e-05
-0.000241998
3.87734e-05
-0.000266452
3.55382e-05
-0.000274885
2.68194e-05
-0.000263702
1.53247e-05
-0.000231085
4.98473e-06
-0.000164562
1.74315e-05
-0.00010031
4.90278e-05
-8.12167e-05
6.40167e-05
-6.76665e-05
5.52424e-05
-4.93959e-05
5.35001e-05
-4.61272e-05
7.14377e-05
-4.7455e-05
0.000103708
-5.25433e-05
0.000141814
-6.13979e-05
-7.23179e-05
0.000183866
8.15575e-06
-0.000149648
1.04401e-05
-0.000167749
1.43626e-05
-0.00016513
1.86383e-05
-0.000168575
2.17758e-05
-0.000174216
2.31605e-05
-0.00018128
2.18356e-05
-0.000191361
1.66073e-05
-0.000208388
6.86098e-06
-0.000232252
-6.60265e-06
-0.000252989
-2.13166e-05
-0.000260171
-3.6681e-05
-0.000248337
-5.05472e-05
-0.000217218
-4.72352e-05
-0.000167874
-2.96044e-05
-0.000117941
-1.62709e-05
-9.45502e-05
-6.35421e-06
-7.75832e-05
9.42724e-06
-6.51774e-05
3.79352e-05
-7.46351e-05
6.94374e-05
-7.89572e-05
0.000102298
-8.54039e-05
0.000136587
-9.56864e-05
-0.000109767
0.000174036
6.53275e-06
-0.000156181
7.61931e-06
-0.000168835
1.03951e-05
-0.000167905
1.29182e-05
-0.000171098
1.42233e-05
-0.000175521
1.3728e-05
-0.000180785
1.01412e-05
-0.000187774
1.56784e-06
-0.000199814
-1.39024e-05
-0.000216782
-3.45029e-05
-0.000232388
-5.69321e-05
-0.000237742
-7.70097e-05
-0.00022826
-9.13667e-05
-0.000202861
-9.15625e-05
-0.000167679
-7.64721e-05
-0.000133031
-5.66098e-05
-0.000114413
-2.8612e-05
-0.000105581
7.91236e-06
-0.000101702
3.74179e-05
-0.000104141
6.57454e-05
-0.000107285
9.48324e-05
-0.000114491
0.000124893
-0.000125747
-0.000142175
0.000157301
4.65866e-06
-0.000160839
5.30727e-06
-0.000169484
7.11714e-06
-0.000169715
8.41151e-06
-0.000172393
8.73154e-06
-0.000175841
7.65615e-06
-0.00017971
4.02884e-06
-0.000184146
-4.64121e-06
-0.000191144
-1.95011e-05
-0.000201922
-3.96187e-05
-0.000212271
-6.11127e-05
-0.000216248
-7.91895e-05
-0.000210183
-8.82586e-05
-0.000193792
-8.45977e-05
-0.00017134
-6.66855e-05
-0.000150944
-4.22473e-05
-0.000138851
-1.57956e-05
-0.000132033
1.01827e-05
-0.00012768
3.3852e-05
-0.00012781
5.9129e-05
-0.000132561
8.51448e-05
-0.000140507
0.000111952
-0.000152554
-0.000170826
0.000140602
2.98049e-06
-0.000163819
3.44204e-06
-0.000169945
4.47217e-06
-0.000170745
4.98416e-06
-0.000172905
4.75852e-06
-0.000175616
3.60026e-06
-0.000178551
9.06098e-07
-0.000181452
-4.87594e-06
-0.000185362
-1.53199e-05
-0.000191478
-2.9561e-05
-0.00019803
-4.45702e-05
-0.000201239
-5.64147e-05
-0.000198338
-6.098e-05
-0.000189227
-5.5943e-05
-0.000176377
-4.28994e-05
-0.000163987
-2.68795e-05
-0.000154871
-9.91309e-06
-0.000148999
8.77492e-06
-0.000146368
2.94432e-05
-0.000148478
5.11889e-05
-0.000154307
7.39008e-05
-0.000163219
9.75873e-05
-0.00017624
-0.000195909
0.00012267
1.68624e-06
-0.000165506
1.95138e-06
-0.00017021
2.34859e-06
-0.000171143
2.31352e-06
-0.00017287
1.71885e-06
-0.000175021
5.39042e-07
-0.000177372
-1.28943e-06
-0.000179623
-4.56783e-06
-0.000182084
-1.04948e-05
-0.000185551
-1.89421e-05
-0.000189582
-2.81603e-05
-0.000192021
-3.565e-05
-0.000190849
-3.91131e-05
-0.000185764
-3.72346e-05
-0.000178255
-3.05118e-05
-0.00017071
-2.05948e-05
-0.000164788
-8.18699e-06
-0.000161407
6.95753e-06
-0.000161513
2.37224e-05
-0.000165243
4.17237e-05
-0.000172308
6.09399e-05
-0.000182435
8.12323e-05
-0.000196533
-0.000217403
0.000102726
7.46287e-07
-0.000166252
7.32128e-07
-0.000170196
6.41643e-07
-0.000171052
1.9637e-07
-0.000172425
-6.90213e-07
-0.000174135
-2.00801e-06
-0.000176054
-3.65257e-06
-0.000177979
-5.85199e-06
-0.000179884
-9.34031e-06
-0.000182063
-1.44749e-05
-0.000184448
-2.04843e-05
-0.000186011
-2.57849e-05
-0.000185548
-2.87387e-05
-0.00018281
-2.83343e-05
-0.00017866
-2.4541e-05
-0.000174503
-1.77233e-05
-0.000171605
-8.19905e-06
-0.000170931
3.45124e-06
-0.000173163
1.6632e-05
-0.000178424
3.10449e-05
-0.000186721
4.6438e-05
-0.000197828
6.28968e-05
-0.000212992
-0.000234826
8.03198e-05
9.52193e-08
-0.000166347
-2.38027e-07
-0.000169863
-7.21747e-07
-0.000170568
-1.48141e-06
-0.000171665
-2.59882e-06
-0.000173017
-4.09741e-06
-0.000174555
-5.90189e-06
-0.000176175
-8.00498e-06
-0.000177781
-1.0706e-05
-0.000179362
-1.42919e-05
-0.000180862
-1.84179e-05
-0.000181885
-2.2133e-05
-0.000181833
-2.43937e-05
-0.00018055
-2.44222e-05
-0.000178631
-2.18972e-05
-0.000177028
-1.69387e-05
-0.000176564
-9.94589e-06
-0.000177924
-1.40643e-06
-0.000181702
8.37867e-06
-0.000188209
1.90403e-05
-0.000197383
3.06349e-05
-0.000209423
4.28591e-05
-0.000225216
-0.000247435
5.5468e-05
-3.76784e-07
-0.00016597
-1.00487e-06
-0.000169235
-1.79528e-06
-0.000169778
-2.80638e-06
-0.000170654
-4.09807e-06
-0.000171725
-5.7112e-06
-0.000172942
-7.63897e-06
-0.000174247
-9.8437e-06
-0.000175577
-1.2355e-05
-0.000176851
-1.52387e-05
-0.000177978
-1.83187e-05
-0.000178805
-2.10386e-05
-0.000179113
-2.27073e-05
-0.000178881
-2.28272e-05
-0.000178511
-2.12206e-05
-0.000178635
-1.79729e-05
-0.000179811
-1.33329e-05
-0.000182564
-7.60861e-06
-0.000187427
-1.04149e-06
-0.000194776
6.25823e-06
-0.000204683
1.40204e-05
-0.000217185
2.20482e-05
-0.000233244
-0.000254998
2.9612e-05
-7.14121e-07
-0.000165256
-1.61437e-06
-0.000168334
-2.64484e-06
-0.000168748
-3.8545e-06
-0.000169444
-5.28147e-06
-0.000170299
-6.95505e-06
-0.000171269
-8.88979e-06
-0.000172313
-1.1072e-05
-0.000173394
-1.34611e-05
-0.000174461
-1.59988e-05
-0.00017544
-1.85416e-05
-0.000176262
-2.07709e-05
-0.000176884
-2.22706e-05
-0.000177381
-2.27425e-05
-0.000178039
-2.21103e-05
-0.000179267
-2.0447e-05
-0.000181475
-1.79023e-05
-0.000185108
-1.46773e-05
-0.000190652
-1.09884e-05
-0.000198465
-7.03726e-06
-0.000208634
-3.05434e-06
-0.000221168
5.93787e-07
-0.000236892
-0.000257985
3.58009e-06
-9.71441e-07
-0.000164285
-2.09485e-06
-0.000167211
-3.31962e-06
-0.000167523
-4.68979e-06
-0.000168074
-6.23237e-06
-0.000168756
-7.96303e-06
-0.000169538
-9.88806e-06
-0.000170388
-1.20039e-05
-0.000171279
-1.42808e-05
-0.000172184
-1.66465e-05
-0.000173075
-1.89742e-05
-0.000173934
-2.10673e-05
-0.000174791
-2.26993e-05
-0.000175749
-2.3719e-05
-0.000177019
-2.40966e-05
-0.000178889
-2.3883e-05
-0.000181688
-2.31944e-05
-0.000185797
-2.2216e-05
-0.00019163
-2.11707e-05
-0.000199511
-2.02757e-05
-0.000209529
-1.97781e-05
-0.000221666
-2.00428e-05
-0.000236627
-0.000256484
-2.15443e-05
-1.17305e-06
-0.000163112
-2.4744e-06
-0.00016591
-3.8567e-06
-0.00016614
-5.35838e-06
-0.000166572
-7.0026e-06
-0.000167112
-8.8013e-06
-0.000167739
-1.07556e-05
-0.000168433
-1.28581e-05
-0.000169176
-1.50871e-05
-0.000169955
-1.73915e-05
-0.00017077
-1.96853e-05
-0.000171641
-2.1857e-05
-0.000172619
-2.37938e-05
-0.000173812
-2.54257e-05
-0.000175387
-2.67511e-05
-0.000177564
-2.78314e-05
-0.000180608
-2.87946e-05
-0.000184834
-2.98372e-05
-0.000190587
-3.11904e-05
-0.000198158
-3.30844e-05
-0.000207636
-3.5772e-05
-0.000218978
-3.96326e-05
-0.000232766
-0.00025095
-4.51662e-05
-1.33141e-06
-0.00016178
-2.77272e-06
-0.000164468
-4.28128e-06
-0.000164632
-5.8905e-06
-0.000164963
-7.62209e-06
-0.00016538
-9.48845e-06
-0.000165873
-1.14928e-05
-0.000166429
-1.3628e-05
-0.00016704
-1.5877e-05
-0.000167706
-1.82115e-05
-0.000168436
-2.05889e-05
-0.000169263
-2.2955e-05
-0.000170253
-2.52615e-05
-0.000171505
-2.74922e-05
-0.000173156
-2.9679e-05
-0.000175377
-3.19087e-05
-0.000178378
-3.43299e-05
-0.000182413
-3.71555e-05
-0.000187762
-4.06364e-05
-0.000194677
-4.50311e-05
-0.000203241
-5.06297e-05
-0.000213379
-5.78896e-05
-0.000225507
-0.000241364
-6.7476e-05
-1.4532e-06
-0.000160327
-3.00259e-06
-0.000162919
-4.61006e-06
-0.000163025
-6.30571e-06
-0.000163267
-8.11053e-06
-0.000163576
-1.00378e-05
-0.000163946
-1.20951e-05
-0.000164371
-1.42829e-05
-0.000164853
-1.65945e-05
-0.000165395
-1.90172e-05
-0.000166013
-2.15365e-05
-0.000166744
-2.41401e-05
-0.00016765
-2.6826e-05
-0.00016882
-2.96165e-05
-0.000170366
-3.2572e-05
-0.000172421
-3.5803e-05
-0.000175147
-3.94775e-05
-0.000178738
-4.38226e-05
-0.000183417
-4.91133e-05
-0.000189386
-5.56456e-05
-0.000196709
-6.37555e-05
-0.000205269
-7.39909e-05
-0.000215271
-0.000228108
-8.72469e-05
-1.54255e-06
-0.000158785
-3.17198e-06
-0.00016129
-4.85358e-06
-0.000161343
-6.61574e-06
-0.000161505
-8.47933e-06
-0.000161712
-1.04597e-05
-0.000161966
-1.25686e-05
-0.000162262
-1.48144e-05
-0.000162607
-1.72019e-05
-0.000163007
-1.97336e-05
-0.000163481
-2.24145e-05
-0.000164063
-2.52591e-05
-0.000164805
-2.82973e-05
-0.000165781
-3.15812e-05
-0.000167082
-3.51939e-05
-0.000168808
-3.92622e-05
-0.000171078
-4.39663e-05
-0.000174034
-4.95453e-05
-0.000177838
-5.62911e-05
-0.000182641
-6.45222e-05
-0.000188478
-7.46052e-05
-0.000195186
-8.71084e-05
-0.000202768
-0.000212195
-0.000103022
-1.60241e-06
-0.000157182
-3.28598e-06
-0.000159606
-5.01804e-06
-0.000159611
-6.82654e-06
-0.000159697
-8.73232e-06
-0.000159806
-1.07536e-05
-0.000159944
-1.29064e-05
-0.00016011
-1.52054e-05
-0.000160308
-1.76646e-05
-0.000160548
-2.02997e-05
-0.000160846
-2.31317e-05
-0.000161231
-2.61929e-05
-0.000161744
-2.95327e-05
-0.000162442
-3.32226e-05
-0.000163392
-3.73623e-05
-0.000164668
-4.20887e-05
-0.000166352
-4.75875e-05
-0.000168535
-5.41008e-05
-0.000171325
-6.19245e-05
-0.000174817
-7.13927e-05
-0.000179009
-8.28778e-05
-0.000183701
-9.69417e-05
-0.000188705
-0.000194562
-0.000114575
-1.63535e-06
-0.000155547
-3.34824e-06
-0.000157893
-5.1073e-06
-0.000157852
-6.94076e-06
-0.000157863
-8.86945e-06
-0.000157878
-1.09142e-05
-0.000157899
-1.30947e-05
-0.000157929
-1.54312e-05
-0.000157971
-1.79453e-05
-0.000158034
-2.06623e-05
-0.000158129
-2.36147e-05
-0.000158279
-2.68467e-05
-0.000158512
-3.04194e-05
-0.000158869
-3.4415e-05
-0.000159396
-3.89419e-05
-0.000160142
-4.41414e-05
-0.000161152
-5.01982e-05
-0.000162479
-5.7346e-05
-0.000164177
-6.58723e-05
-0.000166291
-7.6103e-05
-0.000168778
-8.83949e-05
-0.000171409
-0.000103251
-0.000173849
-0.000176255
-0.000121558
-1.64373e-06
-0.000153903
-3.36157e-06
-0.000156175
-5.12392e-06
-0.000156089
-6.95955e-06
-0.000156027
-8.88936e-06
-0.000155948
-1.09362e-05
-0.000155852
-1.31226e-05
-0.000155743
-1.54731e-05
-0.000155621
-1.80151e-05
-0.000155492
-2.07803e-05
-0.000155364
-2.38087e-05
-0.00015525
-2.7152e-05
-0.000155169
-3.08773e-05
-0.000155144
-3.50714e-05
-0.000155202
-3.98444e-05
-0.000155369
-4.53352e-05
-0.000155661
-5.17198e-05
-0.000156094
-5.9217e-05
-0.00015668
-6.80912e-05
-0.000157417
-7.86434e-05
-0.000158226
-9.11902e-05
-0.000158863
-0.000106143
-0.000158896
-0.0001582
-0.000124198
-1.62935e-06
-0.000152274
-3.32802e-06
-0.000154477
-5.06967e-06
-0.000154348
-6.88354e-06
-0.000154214
-8.79058e-06
-0.000154041
-1.08148e-05
-0.000153828
-1.29809e-05
-0.000153577
-1.53163e-05
-0.000153286
-1.78519e-05
-0.000152956
-2.06238e-05
-0.000152592
-2.36761e-05
-0.000152198
-2.70641e-05
-0.000151781
-3.08569e-05
-0.000151351
-3.51408e-05
-0.000150918
-4.00227e-05
-0.000150487
-4.5633e-05
-0.000150051
-5.21327e-05
-0.000149594
-5.97178e-05
-0.000149095
-6.86235e-05
-0.000148511
-7.91084e-05
-0.000147741
-9.14405e-05
-0.000146531
-0.00010592
-0.000144417
-0.000141079
-0.000123041
-1.59286e-06
-0.000150681
-3.24875e-06
-0.000152821
-4.94574e-06
-0.000152651
-6.71349e-06
-0.000152446
-8.5726e-06
-0.000152182
-1.05475e-05
-0.000151854
-1.26641e-05
-0.00015146
-1.49514e-05
-0.000150998
-1.74423e-05
-0.000150466
-2.0175e-05
-0.000149859
-2.31951e-05
-0.000149177
-2.65584e-05
-0.000148417
-3.03327e-05
-0.000147577
-3.46009e-05
-0.00014665
-3.94623e-05
-0.000145626
-4.50347e-05
-0.000144479
-5.14601e-05
-0.000143169
-5.89099e-05
-0.000141645
-6.75808e-05
-0.00013984
-7.76851e-05
-0.000137637
-8.94315e-05
-0.000134784
-0.000103019
-0.000130829
-0.000125344
-0.000118754
-1.53282e-06
-0.000149148
-3.1231e-06
-0.000151231
-4.7522e-06
-0.000151022
-6.44987e-06
-0.000150748
-8.23588e-06
-0.000150396
-1.01342e-05
-0.000149955
-1.2171e-05
-0.000149423
-1.43757e-05
-0.000148794
-1.67817e-05
-0.000148059
-1.94277e-05
-0.000147213
-2.23588e-05
-0.000146246
-2.56289e-05
-0.000145147
-2.93022e-05
-0.000143903
-3.34557e-05
-0.000142497
-3.81791e-05
-0.000140902
-4.35757e-05
-0.000139082
-4.9766e-05
-0.000136979
-5.68925e-05
-0.000134519
-6.51155e-05
-0.000131617
-7.46024e-05
-0.00012815
-8.55011e-05
-0.000123886
-9.79303e-05
-0.0001184
-0.000111233
-0.000112042
-1.44456e-06
-0.000147704
-2.94744e-06
-0.000149728
-4.48682e-06
-0.000149482
-6.09158e-06
-0.000149143
-7.78034e-06
-0.000148707
-9.57577e-06
-0.00014816
-1.15034e-05
-0.000147496
-1.35918e-05
-0.000146705
-1.58736e-05
-0.000145777
-1.83864e-05
-0.0001447
-2.11738e-05
-0.000143459
-2.42859e-05
-0.000142035
-2.77817e-05
-0.000140407
-3.17307e-05
-0.000138548
-3.6212e-05
-0.000136421
-4.13142e-05
-0.00013398
-4.71364e-05
-0.000131156
-5.37916e-05
-0.000127864
-6.14063e-05
-0.000124002
-7.01049e-05
-0.000119451
-7.99868e-05
-0.000114004
-9.11016e-05
-0.000107285
-9.88419e-05
-0.000103493
-1.3204e-06
-0.000146383
-2.71529e-06
-0.000148333
-4.14458e-06
-0.000148053
-5.63445e-06
-0.000147654
-7.20296e-06
-0.000147139
-8.87087e-06
-0.000146492
-1.06621e-05
-0.000145705
-1.26034e-05
-0.000144764
-1.47251e-05
-0.000143656
-1.70625e-05
-0.000142363
-1.96558e-05
-0.000140866
-2.25511e-05
-0.00013914
-2.58013e-05
-0.000137157
-2.9467e-05
-0.000134882
-3.36166e-05
-0.000132272
-3.83248e-05
-0.000129272
-4.36713e-05
-0.00012581
-4.97422e-05
-0.000121793
-5.66324e-05
-0.000117112
-6.44332e-05
-0.000111651
-7.3202e-05
-0.000105235
-8.2942e-05
-9.75453e-05
-8.81583e-05
-9.36255e-05
-1.15361e-06
-0.00014523
-2.42096e-06
-0.000147065
-3.72047e-06
-0.000146753
-5.07339e-06
-0.000146301
-6.49854e-06
-0.000145714
-8.01482e-06
-0.000144976
-9.64419e-06
-0.000144075
-1.14105e-05
-0.000142998
-1.33409e-05
-0.000141725
-1.54667e-05
-0.000140237
-1.78234e-05
-0.000138509
-2.04516e-05
-0.000136512
-2.33976e-05
-0.000134211
-2.67137e-05
-0.000131566
-3.04575e-05
-0.000128528
-3.46912e-05
-0.000125038
-3.9478e-05
-0.000121023
-4.48812e-05
-0.000116389
-5.09677e-05
-0.000111026
-5.78022e-05
-0.000104816
-6.54165e-05
-9.76209e-05
-7.37789e-05
-8.91829e-05
-7.91146e-05
-8.28228e-05
-9.46538e-07
-0.000144283
-2.06884e-06
-0.000145943
-3.21971e-06
-0.000145603
-4.41381e-06
-0.000145107
-5.67182e-06
-0.000144455
-7.01155e-06
-0.000143636
-8.45313e-06
-0.000142634
-1.00176e-05