# Region type : patch outlet
# Faces  :   4
# Area   :   1.000000e-02
# Time       	sum(phi)
0.005        	9.998136e-03
0.01         	9.999218e-03
0.015        	9.996660e-03
0.02         	9.996252e-03
0.025        	9.997289e-03
0.03         	9.998600e-03
0.035        	1.000062e-02
0.04         	1.000257e-02
0.045        	9.999629e-03
0.05         	9.995712e-03
0.055        	9.995393e-03
0.06         	9.996702e-03
0.065        	9.998535e-03
0.07         	9.999866e-03
0.075        	1.000139e-02
0.08         	9.999962e-03
0.085        	9.996196e-03
0.09         	9.994992e-03
0.095        	9.996105e-03
0.1          	9.997826e-03
0.105        	9.999810e-03
0.11         	9.999827e-03
0.115        	9.998573e-03
0.12         	9.997596e-03
0.125        	9.996747e-03
0.13         	9.996897e-03
0.135        	9.997979e-03
0.14         	9.998319e-03
0.145        	9.998572e-03
0.15         	9.997853e-03
0.155        	9.998087e-03
0.16         	9.998663e-03
0.165        	9.997914e-03
0.17         	9.997894e-03
0.175        	9.998954e-03
0.18         	9.999681e-03
0.185        	9.999945e-03
0.19         	1.000002e-02
0.195        	9.999954e-03
0.2          	9.999747e-03
0.205        	9.999846e-03
0.21         	9.999983e-03
0.215        	1.000050e-02
0.22         	9.999801e-03
0.225        	1.000030e-02
0.23         	1.000023e-02
0.235        	1.000089e-02
0.24         	1.000020e-02
0.245        	1.000068e-02
0.25         	1.000108e-02
0.255        	1.000036e-02
0.26         	1.000071e-02
0.265        	1.000025e-02
0.27         	1.000052e-02
0.275        	9.999371e-03
0.28         	1.000042e-02
0.285        	1.000059e-02
0.29         	1.000151e-02
0.295        	1.000011e-02
0.3          	1.000152e-02
0.305        	1.000144e-02
0.31         	1.000143e-02
0.315        	1.000102e-02
0.32         	1.000136e-02
0.325        	1.000206e-02
0.33         	1.000270e-02
0.335        	1.000126e-02
0.34         	1.000056e-02
0.345        	1.000117e-02
0.35         	1.000112e-02
0.355        	1.000174e-02
0.36         	1.000212e-02
0.365        	1.000058e-02
0.37         	1.000146e-02
0.375        	1.000248e-02
0.38         	1.000156e-02
0.385        	1.000088e-02
0.39         	1.000093e-02
0.395        	1.000069e-02
0.4          	1.000064e-02
0.405        	1.000094e-02
0.41         	1.000072e-02
0.415        	1.000040e-02
0.42         	9.999877e-03
0.425        	1.000111e-02
0.43         	1.000177e-02
0.435        	1.000225e-02
0.44         	1.000168e-02
0.445        	1.000153e-02
0.45         	1.000049e-02
0.455        	1.000115e-02
0.46         	1.000154e-02
0.465        	1.000135e-02
0.47         	1.000063e-02
0.475        	1.000102e-02
0.48         	1.000035e-02
0.485        	1.000162e-02
0.49         	1.000017e-02
0.495        	1.000017e-02
0.5          	9.999566e-03
0.505        	9.999755e-03
0.51         	9.999335e-03
0.515        	9.998954e-03
0.52         	9.998660e-03
0.525        	1.000031e-02
0.53         	9.999981e-03
0.535        	1.000017e-02
0.54         	9.999631e-03
0.545        	9.999865e-03
0.55         	9.999558e-03
0.555        	9.999553e-03
0.56         	9.999431e-03
0.565        	9.999378e-03
0.57         	9.998623e-03
0.575        	9.998212e-03
0.58         	9.998079e-03
0.585        	9.997937e-03
0.59         	9.997911e-03
0.595        	9.997846e-03
0.6          	9.997841e-03
0.605        	9.997856e-03
0.61         	9.997845e-03
0.615        	9.997834e-03
0.62         	9.997865e-03
0.625        	9.997946e-03
0.63         	9.998079e-03
0.635        	9.998233e-03
0.64         	9.998380e-03
0.645        	9.998590e-03
0.65         	9.998861e-03
0.655        	9.998956e-03
0.66         	9.999006e-03
0.665        	9.999128e-03
0.67         	9.999215e-03
0.675        	9.999254e-03
0.68         	9.999365e-03
0.685        	9.999384e-03
0.69         	9.999356e-03
0.695        	9.999398e-03
0.7          	9.999393e-03
0.705        	9.999333e-03
0.71         	9.999338e-03
0.715        	9.999237e-03
0.72         	9.999200e-03
0.725        	9.999074e-03
0.73         	9.999007e-03
0.735        	9.998882e-03
0.74         	9.998812e-03
0.745        	9.998663e-03
0.75         	9.998530e-03
0.755        	9.998444e-03
0.76         	9.998399e-03
0.765        	9.998229e-03
0.77         	9.998171e-03
0.775        	9.998147e-03
0.78         	9.998064e-03
0.785        	9.998059e-03
0.79         	9.998060e-03
0.795        	9.998107e-03
0.8          	9.998158e-03
0.805        	9.998233e-03
0.81         	9.998310e-03
0.815        	9.998396e-03
0.82         	9.998479e-03
0.825        	9.998560e-03
0.83         	9.998631e-03
0.835        	9.998693e-03
0.84         	9.998739e-03
0.845        	9.998772e-03
0.85         	9.998788e-03
0.855        	9.998788e-03
0.86         	9.998773e-03
0.865        	1.000091e-02
0.87         	1.000099e-02
0.875        	1.000161e-02
0.88         	1.000178e-02
0.885        	1.000183e-02
0.89         	1.000191e-02
0.895        	1.000185e-02
0.9          	1.000184e-02
0.905        	1.000174e-02
0.91         	1.000164e-02
0.915        	1.000158e-02
0.92         	1.000147e-02
0.925        	1.000135e-02
0.93         	1.000122e-02
0.935        	1.000111e-02
0.94         	1.000099e-02
0.945        	1.000086e-02
0.95         	1.000075e-02
0.955        	1.000066e-02
0.96         	1.000056e-02
0.965        	1.000049e-02
0.97         	1.000046e-02
0.975        	1.000042e-02
0.98         	1.000041e-02
0.985        	1.000044e-02
0.99         	1.000045e-02
0.995        	1.000046e-02
1            	1.000048e-02
1.005        	1.000055e-02
1.01         	1.000061e-02
1.015        	1.000065e-02
1.02         	1.000068e-02
1.025        	1.000070e-02
1.03         	1.000076e-02
1.035        	1.000086e-02
1.04         	1.000095e-02
1.045        	1.000103e-02
1.05         	1.000106e-02
1.055        	1.000113e-02
1.06         	1.000118e-02
1.065        	1.000122e-02
1.07         	1.000127e-02
1.075        	1.000131e-02
1.08         	1.000133e-02
1.085        	1.000135e-02
1.09         	1.000135e-02
1.095        	1.000135e-02
1.1          	1.000133e-02
1.105        	1.000131e-02
1.11         	1.000127e-02
1.115        	1.000124e-02
1.12         	1.000120e-02
1.125        	1.000116e-02
1.13         	1.000112e-02
1.135        	1.000109e-02
1.14         	9.998920e-03
1.145        	9.998866e-03
1.15         	9.998417e-03
1.155        	9.998450e-03
1.16         	9.998246e-03
1.165        	9.998045e-03
1.17         	9.997971e-03
1.175        	9.997917e-03
1.18         	9.997861e-03
1.185        	9.997859e-03
1.19         	9.997890e-03
1.195        	9.997918e-03
1.2          	9.997978e-03
1.205        	9.998065e-03
1.21         	9.998151e-03
1.215        	9.998236e-03
1.22         	9.998331e-03
1.225        	9.998425e-03
1.23         	9.998532e-03
1.235        	9.998637e-03
1.24         	9.998726e-03
1.245        	9.998816e-03
1.25         	9.998905e-03
1.255        	9.998993e-03
1.26         	9.999051e-03
1.265        	9.999095e-03
1.27         	9.999140e-03
1.275        	9.999186e-03
1.28         	9.999232e-03
1.285        	9.999249e-03
1.29         	9.999237e-03
1.295        	9.999226e-03
1.3          	9.999217e-03
1.305        	9.999187e-03
1.31         	9.999135e-03
1.315        	9.999084e-03
1.32         	9.999034e-03
1.325        	9.998970e-03
1.33         	9.998907e-03
1.335        	9.998838e-03
1.34         	9.998767e-03
1.345        	9.998697e-03
1.35         	9.998630e-03
1.355        	9.998572e-03
1.36         	9.998517e-03
1.365        	9.998464e-03
1.37         	9.998430e-03
1.375        	9.998404e-03
1.38         	9.998400e-03
1.385        	9.998405e-03
1.39         	9.998431e-03
1.395        	9.998461e-03
1.4          	9.998508e-03
1.405        	9.998554e-03
1.41         	9.998610e-03
1.415        	9.998661e-03
1.42         	9.998715e-03
1.425        	9.998760e-03
1.43         	9.998804e-03
1.435        	9.998834e-03
1.44         	1.000071e-02
1.445        	1.000097e-02
1.45         	1.000179e-02
1.455        	1.000186e-02
1.46         	1.000211e-02
1.465        	1.000226e-02
1.47         	1.000234e-02
1.475        	1.000232e-02
1.48         	1.000226e-02
1.485        	1.000215e-02
1.49         	1.000200e-02
1.495        	1.000185e-02
1.5          	1.000169e-02
