# Region type : patch wall
# Faces  :   264
# Area   :   8.000000e-01
# Time       	sum(phi)
0.005        	1.826399e-06
0.01         	8.488798e-07
0.015        	3.364698e-06
0.02         	5.290293e-06
0.025        	2.976328e-06
0.03         	1.297442e-06
0.035        	-4.511519e-07
0.04         	-2.414982e-06
0.045        	-2.638456e-07
0.05         	3.431753e-06
0.055        	3.980449e-06
0.06         	3.538175e-06
0.065        	2.311071e-06
0.07         	-2.334412e-08
0.075        	-1.136183e-06
0.08         	1.893219e-07
0.085        	3.059835e-06
0.09         	4.319168e-06
0.095        	2.836151e-06
0.1          	8.065296e-07
0.105        	1.737272e-07
0.11         	5.044679e-07
0.115        	1.372983e-06
0.12         	1.992080e-06
0.125        	2.151511e-06
0.13         	1.832260e-06
0.135        	1.239369e-06
0.14         	7.550161e-07
0.145        	7.963859e-07
0.15         	1.087608e-06
0.155        	1.183830e-06
0.16         	1.032144e-06
0.165        	8.970909e-07
0.17         	8.486401e-07
0.175        	7.687596e-07
0.18         	6.136412e-07
0.185        	4.943356e-07
0.19         	4.488764e-07
0.195        	4.364430e-07
0.2          	4.089859e-07
0.205        	3.400042e-07
0.21         	-4.475439e-08
0.215        	-1.236385e-07
0.22         	-1.060283e-07
0.225        	-2.476427e-07
0.23         	-2.392851e-07
0.235        	-2.312628e-07
0.24         	-3.083982e-07
0.245        	-4.501403e-07
0.25         	-5.947153e-07
0.255        	-7.000661e-07
0.26         	-7.529871e-07
0.265        	-7.526663e-07
0.27         	-7.449768e-07
0.275        	-7.921729e-07
0.28         	-9.041842e-07
0.285        	-1.042068e-06
0.29         	-1.153751e-06
0.295        	-1.209709e-06
0.3          	-1.222258e-06
0.305        	-1.228203e-06
0.31         	-1.259224e-06
0.315        	-1.325477e-06
0.32         	-1.409248e-06
0.325        	-1.480130e-06
0.33         	-1.523691e-06
0.335        	-1.547383e-06
0.34         	-1.565676e-06
0.345        	-1.587397e-06
0.35         	-1.611336e-06
0.355        	-1.632632e-06
0.36         	-1.646769e-06
0.365        	-1.654251e-06
0.37         	-1.657627e-06
0.375        	-1.658475e-06
0.38         	-1.774893e-06
0.385        	-1.756957e-06
0.39         	-1.662128e-06
0.395        	-1.653354e-06
0.4          	-1.653770e-06
0.405        	-1.587304e-06
0.41         	-1.529059e-06
0.415        	-1.503614e-06
0.42         	-1.452238e-06
0.425        	-1.376607e-06
0.43         	-1.313945e-06
0.435        	-1.253080e-06
0.44         	-1.172496e-06
0.445        	-1.085782e-06
0.45         	-1.003650e-06
0.455        	-9.162437e-07
0.46         	-8.233880e-07
0.465        	-7.334569e-07
0.47         	-6.437748e-07
0.475        	-5.473789e-07
0.48         	-4.450007e-07
0.485        	-3.368079e-07
0.49         	-1.612562e-07
0.495        	4.103801e-08
0.5          	2.208221e-07
0.505        	1.462941e-07
0.51         	3.321498e-07
0.515        	4.347741e-07
0.52         	4.899999e-07
0.525        	6.048300e-07
0.53         	7.101321e-07
0.535        	7.888196e-07
0.54         	8.726710e-07
0.545        	9.610358e-07
0.55         	1.042103e-06
0.555        	1.116101e-06
0.56         	1.187367e-06
0.565        	1.258209e-06
0.57         	1.324626e-06
0.575        	1.384119e-06
0.58         	1.438823e-06
0.585        	1.489847e-06
0.59         	1.535937e-06
0.595        	1.575022e-06
0.6          	1.608748e-06
0.605        	1.638051e-06
0.61         	1.660895e-06
0.615        	1.677733e-06
0.62         	1.690230e-06
0.625        	1.697810e-06
0.63         	1.699585e-06
0.635        	1.695620e-06
0.64         	1.684525e-06
0.645        	1.669728e-06
0.65         	1.649114e-06
0.655        	1.623956e-06
0.66         	1.594926e-06
0.665        	1.562284e-06
0.67         	1.525213e-06
0.675        	1.606270e-06
0.68         	1.576103e-06
0.685        	1.438178e-06
0.69         	1.393737e-06
0.695        	1.388666e-06
0.7          	1.307158e-06
0.705        	1.214078e-06
0.71         	1.169801e-06
0.715        	1.117403e-06
0.72         	1.029771e-06
0.725        	9.527174e-07
0.73         	8.940241e-07
0.735        	8.210378e-07
0.74         	7.367132e-07
0.745        	6.634107e-07
0.75         	5.936160e-07
0.755        	5.145244e-07
0.76         	4.345122e-07
0.765        	3.598259e-07
0.77         	2.839185e-07
0.775        	2.041515e-07
0.78         	1.256441e-07
0.785        	4.923311e-08
0.79         	-2.614716e-08
0.795        	-9.648322e-08
0.8          	-1.698867e-07
0.805        	-2.424126e-07
0.81         	-3.138396e-07
0.815        	-3.859800e-07
0.82         	-4.576872e-07
0.825        	-5.285215e-07
0.83         	-5.989485e-07
0.835        	-6.687216e-07
0.84         	-7.376170e-07
0.845        	-8.053237e-07
0.85         	-8.718352e-07
0.855        	-9.371748e-07
0.86         	-1.000871e-06
0.865        	-1.062788e-06
0.87         	-1.122731e-06
0.875        	-1.179908e-06
0.88         	-1.234350e-06
0.885        	-1.286902e-06
0.89         	-1.336626e-06
0.895        	-1.383724e-06
0.9          	-1.426511e-06
0.905        	-1.463949e-06
0.91         	-1.497063e-06
0.915        	-1.527473e-06
0.92         	-1.553028e-06
0.925        	-1.574381e-06
0.93         	-1.590802e-06
0.935        	-1.601785e-06
0.94         	-1.606781e-06
0.945        	-1.605941e-06
0.95         	-1.605005e-06
0.955        	-1.727387e-06
0.96         	-1.668131e-06
0.965        	-1.590143e-06
0.97         	-1.598129e-06
0.975        	-1.586219e-06
0.98         	-1.513379e-06
0.985        	-1.460935e-06
0.99         	-1.431540e-06
0.995        	-1.371021e-06
1            	-1.295221e-06
1.005        	-1.234231e-06
1.01         	-1.169681e-06
1.015        	-1.087387e-06
1.02         	-1.004564e-06
1.025        	-9.257597e-07
1.03         	-8.388784e-07
1.035        	-7.455466e-07
1.04         	-6.533788e-07
1.045        	-5.597896e-07
1.05         	-4.614209e-07
1.055        	-3.613402e-07
1.06         	-2.615501e-07
1.065        	-1.602782e-07
1.07         	-5.742326e-08
1.075        	4.516440e-08
1.08         	1.450602e-07
1.085        	2.409272e-07
1.09         	3.393134e-07
1.095        	4.356327e-07
1.1          	5.298996e-07
1.105        	6.232766e-07
1.11         	7.144222e-07
1.115        	8.029472e-07
1.12         	8.889973e-07
1.125        	9.720989e-07
1.13         	1.051833e-06
1.135        	1.128001e-06
1.14         	1.200280e-06
1.145        	1.268456e-06
1.15         	1.331777e-06
1.155        	1.390392e-06
1.16         	1.445206e-06
1.165        	1.495276e-06
1.17         	1.540759e-06
1.175        	1.580197e-06
1.18         	1.612592e-06
1.185        	1.639706e-06
1.19         	1.662247e-06
1.195        	1.679491e-06
1.2          	1.691382e-06
1.205        	1.697952e-06
1.21         	1.698758e-06
1.215        	1.693285e-06
1.22         	1.681214e-06
1.225        	1.666123e-06
1.23         	1.646139e-06
1.235        	1.621459e-06
1.24         	1.591864e-06
1.245        	1.557776e-06
1.25         	1.519316e-06
1.255        	1.580802e-06
1.26         	1.577189e-06
1.265        	1.437556e-06
1.27         	1.380453e-06
1.275        	1.378768e-06
1.28         	1.304224e-06
1.285        	1.206633e-06
1.29         	1.157424e-06
1.295        	1.108195e-06
1.3          	1.022199e-06
1.305        	9.419691e-07
1.31         	8.825428e-07
1.315        	8.115983e-07
1.32         	7.269897e-07
1.325        	6.520734e-07
1.33         	5.821298e-07
1.335        	5.034225e-07
1.34         	4.225037e-07
1.345        	3.470831e-07
1.35         	2.713448e-07
1.355        	1.915613e-07
1.36         	1.125316e-07
1.365        	3.582735e-08
1.37         	-3.924853e-08
1.375        	-1.101389e-07
1.38         	-1.840663e-07
1.385        	-2.567793e-07
1.39         	-3.285595e-07
1.395        	-4.010302e-07
1.4          	-4.729186e-07
1.405        	-5.439283e-07
1.41         	-6.145191e-07
1.415        	-6.844559e-07
1.42         	-7.534662e-07
1.425        	-8.215694e-07
1.43         	-8.881867e-07
1.435        	-9.536776e-07
1.44         	-1.017527e-06
1.445        	-1.079454e-06
1.45         	-1.138926e-06
1.455        	-1.195925e-06
1.46         	-1.251334e-06
1.465        	-1.304160e-06
1.47         	-1.354565e-06
1.475        	-1.400819e-06
1.48         	-1.441934e-06
1.485        	-1.479530e-06
1.49         	-1.513628e-06
1.495        	-1.544082e-06
1.5          	-1.569785e-06
