/*--------------------------------*- C++ -*----------------------------------*\
| =========                 |                                                 |
| \\      /  F ield         | OpenFOAM: The Open Source CFD Toolbox           |
|  \\    /   O peration     | Version:  5.x                                   |
|   \\  /    A nd           | Web:      www.OpenFOAM.org                      |
|    \\/     M anipulation  |                                                 |
\*---------------------------------------------------------------------------*/
FoamFile
{
    version     2.0;
    format      ascii;
    class       volScalarField;
    location    "0.85";
    object      alpha.water;
}
// * * * * * * * * * * * * * * * * * * * * * * * * * * * * * * * * * * * * * //

dimensions      [0 0 0 0 0 0 0];

internalField   nonuniform List<scalar> 
2268
(
1
1
1
1
1
1
1
1
1
1
1
1
1
1
1
0.994611
0.941752
0.918637
1
0.998774
0.996985
0.997952
0.999716
1
1
1
1
1
1
1
1
1
1
1
1
1
1
0.998812
0.948474
0.930253
0.946542
0.999977
0.975794
0.966447
0.991967
1
1
1
1
1
1
1
1
1
1
1
1
1
1
1
0.999965
0.98989
0.961733
0.962868
0.962645
0.962702
0.963025
0.993173
1
1
1
1
1
1
1
1
1
1
1
1
1
1
1
1
1
0.999944
0.999261
0.997926
0.99803
0.993312
1
0.999981
0.999999
1
1
1
1
1
1
1
1
1
1
1
1
1
1
1
1
1
1
1
1
1
1
1
1
1
1
1
1
1
1
1
1
1
1
1
1
1
1
1
1
1
1
1
1
1
1
1
1
1
1
0.99999
0.999858
1
1
1
1
1
1
1
1
1
1
1
1
1
1
1
1
1
1
1
1
1
0.999061
0.9904
1
1
1
0.999999
0.999997
0.999993
0.999994
0.999998
1
1
1
1
1
1
0.999999
1
0.981979
1
0.999868
1
0.99919
0.996936
1
0.854066
0.889152
0.628679
0.613368
0.749505
0.79613
0.777734
0.892009
0.999171
1
0.909954
0.602812
0.999744
0.999949
0.990687
0.955585
0.998514
0.999784
0.999972
0.877247
0.410274
0.163298
0.215036
0.487966
0.690882
0.708044
0.806983
0.985168
0.867928
0.459039
0.523293
1
0.999094
0.884086
0.744832
0.992167
0.999764
0.998445
0.658481
0.144316
0.155207
0.189574
0.461462
0.673016
0.704235
0.721101
0.940269
0.785463
0.457408
0.999826
0.844941
0.981914
0.720265
0.720247
0.987844
0.999618
0.930727
0.265853
0.144316
0.330841
0.331562
0.118724
0.160838
0.525412
0.635468
0.805475
0.862544
0.830711
0.975918
0.911345
0.877236
0.720236
0.907537
0.989003
0.997633
0.759116
0.145416
0.144595
0.331573
0.138935
0.00622121
0.00619347
0.0178208
0.287045
0.697565
0.912849
0.913458
0.859699
0.997958
0.857161
0.720294
0.987693
0.988683
0.980841
0.510846
0.146155
0.162704
0.318638
0.00622116
0.00619347
0.00619161
0.00619347
0.0241934
0.451945
0.913458
0.913494
0.84319
1
0.956908
0.740606
0.966768
0.987766
0.870404
0.170408
0.146101
0.168057
0.03023
0.006537
0.00619161
0.00619161
0.00619161
0.00631729
0.209275
0.91349
0.913489
0.868083
1
0.999959
0.906822
0.953971
0.979994
0.669979
0.14662
0.146155
0.164953
0.00935965
0.00706975
0.00623025
0.0061916
0.00623027
0.00692329
0.262193
0.845265
0.877168
0.58777
0.967408
1
1
1
0.982571
0.996445
0.999999
1
0.999995
0.99999
0.999946
0.995693
0.985812
0.982214
0.99126
0.999216
0.999963
0.999937
0.999904
0.999911
0.999963
0.999927
0.999984
0.709914
0.645545
0.759681
0.751117
0.667466
0.668743
0.788419
0.883716
0.892722
0.841055
0.680899
0.514621
0.423759
0.406128
0.457205
0.560977
0.592626
0.587075
0.584505
0.587862
0.601044
0.592757
0.624548
0.397453
0.18399
0.192298
0.339307
0.678573
0.681177
0.652392
0.198229
0.115095
0.115766
0.118814
0.076188
0.0597976
0.0509806
0.0162309
0.000668914
0.000657717
0.00065751
0.000657641
0.000657707
0.000658572
0.000669809
0.000791413
0.157238
0.18585
0.211854
0.200617
0.190158
0.187123
0.182422
0.182672
0.20441
0.211432
0.211977
0.135362
0.129086
0.110105
0.0193183
0.000657717
0.00065751
0.00065751
0.00065751
0.000657695
0.000660151
0.000685168
0.000923632
0.0928751
0.119238
0.0597169
0.07631
0.190553
0.193604
0.192739
0.191318
0.207207
0.213298
0.213877
0.213877
0.213877
0.213462
0.151965
0.00065829
0.000657717
0.00065751
0.000657695
0.000675313
0.000685168
0.00097018
0.00129995
0.0286846
0.00747166
0.000477218
9.63048e-05
0.00167304
5.20883e-05
5.8301e-05
5.4954e-05
0.00314796
0.0835461
0.174924
0.210925
0.213462
0.210091
0.20746
0.0588574
0.00065829
0.000658221
0.00131895
0.0036151
0.0014379
0.00355737
0.00229651
-5.60488e-05
0.000309831
5.77599e-05
3.92672e-06
1.10949e-06
4.71871e-05
7.00548e-05
5.07501e-05
2.47147e-05
1.3025e-05
9.52441e-05
0.000686413
0.0827332
0.20746
0.203339
0.193805
0.0270753
0.000747129
0.00113254
0.0407414
0.248396
0.299893
0.0576808
-1.13276e-05
4.38464e-05
3.371e-06
2.52345e-07
2.5719e-09
2.32154e-06
3.63569e-05
5.53236e-05
2.25627e-05
6.28584e-07
2.55891e-06
2.32487e-05
0.000182709
0.0512714
0.191169
0.193121
0.18735
0.0917655
0.00569548
0.142979
0.528461
0.531032
0.428236
-1.30993e-06
6.45574e-06
2.53478e-07
5.14844e-09
4.2191e-09
3.84917e-09
8.15756e-08
1.63304e-06
2.61493e-06
2.70688e-07
8.88131e-09
1.27954e-07
7.60629e-07
6.53453e-06
0.00192025
0.110293
0.148275
0.14441
0.268114
0.406638
0.52902
0.531032
0.52902
-1.706e-07
0.000127835
8.01184e-06
4.21927e-09
3.86707e-09
3.77416e-09
3.08731e-09
2.37782e-09
1.8237e-09
1.33203e-08
4.27285e-10
-3.81205e-09
-9.6915e-08
-2.38906e-07
-3.15725e-08
-1.37341e-06
3.04128e-07
0.0378084
0.22051
0.242258
0.24445
0.280534
0.201979
-3.87038e-08
0.000463098
6.97488e-05
9.94684e-09
3.5899e-09
3.25185e-09
3.22828e-09
2.82318e-09
1.75683e-09
5.72238e-10
3.53466e-10
3.58743e-10
3.5272e-10
5.70558e-10
1.42389e-09
9.70386e-09
6.19307e-08
3.44112e-07
1.55093e-06
5.44538e-06
1.22058e-05
2.05125e-05
3.28467e-05
2.50075e-06
0.000435163
0.000209854
3.59897e-06
9.58935e-09
3.03357e-09
2.86811e-09
2.88541e-09
2.24709e-09
1.03625e-09
3.51173e-10
3.51173e-10
4.35373e-10
2.01502e-09
3.41077e-09
2.71156e-08
2.68594e-07
1.29937e-05
0.000105903
0.000138139
9.74274e-05
3.28467e-05
3.53814e-05
-4.22536e-09
0.00016066
0.00021328
3.62146e-05
1.39847e-07
7.00727e-09
2.36412e-09
2.22278e-09
2.24389e-09
1.4968e-09
3.5253e-10
4.51183e-10
5.86935e-09
5.72794e-09
6.10004e-09
9.19161e-09
1.27534e-07
1.82101e-06
0.000211492
0.00106098
0.0011852
0.000370888
0.000121063
-2.88934e-10
7.41626e-06
6.65208e-05
4.94802e-05
2.37524e-06
2.9872e-08
3.08765e-09
1.51303e-09
1.41816e-09
1.04703e-09
2.32348e-10
3.35592e-09
1.99214e-08
1.91119e-08
8.44444e-09
2.52315e-09
3.40691e-06
7.04894e-05
0.000119921
0.000919354
0.0012083
0.00125395
0.00124836
-2.22903e-10
6.57191e-07
3.56948e-06
2.46679e-05
1.3356e-05
9.59304e-07
1.17126e-08
1.0846e-09
3.77819e-10
2.88962e-10
2.32349e-10
6.01474e-09
2.16881e-08
2.17013e-08
1.09461e-08
1.43904e-09
2.30475e-09
5.2726e-05
0.000317668
0.000339486
0.000363094
0.000697831
0.00140099
-6.47107e-12
5.80501e-08
7.62733e-07
1.39365e-06
8.92269e-06
5.18215e-06
1.10973e-07
3.18212e-09
4.16493e-10
2.34195e-10
2.22885e-10
1.88389e-09
1.89257e-08
2.16994e-08
1.26193e-08
1.03579e-09
7.57139e-10
1.95474e-06
5.80115e-05
0.00017863
0.000927741
0.00100342
0.000820081
-3.09979e-12
3.5079e-09
1.50858e-07
1.56796e-07
6.56447e-07
1.80951e-06
7.62527e-07
4.09096e-09
4.95062e-10
2.24977e-10
2.06468e-10
2.73867e-10
5.41352e-09
1.19393e-08
7.7043e-09
8.79134e-10
1.55275e-10
7.57139e-10
5.73704e-08
4.08014e-08
0.000890622
0.00148957
0.0014992
6.5156e-10
1.45794e-09
2.71169e-08
2.66584e-08
2.02576e-08
1.12896e-08
1.45816e-07
4.7215e-08
3.64508e-10
1.97758e-10
1.91048e-10
2.62159e-10
3.04474e-10
7.41736e-10
1.44328e-09
7.27248e-10
1.323e-10
1.18393e-10
2.57628e-09
1.69077e-09
2.57881e-08
0.000799069
0.00192657
5.24163e-10
7.53551e-10
4.35287e-09
3.94635e-09
2.72768e-09
1.38381e-09
6.84187e-10
6.59211e-09
1.63868e-09
1.76995e-10
1.61005e-10
2.00819e-10
1.68541e-10
1.40185e-10
2.23183e-10
3.09695e-10
1.31299e-10
4.83298e-11
1.08291e-10
7.38113e-11
6.44763e-10
1.1535e-10
0.00020625
2.75077e-10
3.05191e-10
7.70993e-10
7.12828e-10
5.59061e-10
3.43437e-10
1.74101e-10
1.42594e-10
3.65205e-10
1.12136e-10
9.21282e-11
1.09494e-10
1.00886e-10
8.66625e-11
8.98934e-11
1.2535e-10
9.79936e-11
3.76389e-11
1.84774e-11
1.44468e-11
2.42532e-11
2.58815e-11
3.52244e-05
9.37347e-11
1.80939e-10
1.90824e-10
1.72704e-10
1.65879e-10
1.90984e-10
1.33141e-10
7.0374e-11
5.01076e-11
2.89248e-11
3.03958e-11
3.78591e-11
4.23771e-11
4.08811e-11
3.90649e-11
4.97345e-11
5.32385e-11
3.64168e-11
1.56953e-11
1.27265e-11
1.27076e-11
2.35588e-11
1.4422e-11
2.12534e-11
9.688e-11
1.09165e-10
1.02859e-10
1.01101e-10
8.89426e-11
5.2532e-11
1.94816e-11
7.95517e-12
7.02168e-12
8.23803e-12
1.06207e-11
1.29639e-11
1.36988e-11
1.33654e-11
1.45645e-11
2.10338e-11
2.01029e-11
1.39211e-11
1.19619e-11
1.20281e-11
1.83726e-11
1.44003e-11
3.77004e-12
2.91422e-11
3.97641e-11
3.76914e-11
3.33843e-11
2.21004e-11
1.02817e-11
3.46306e-12
1.42386e-12
1.6751e-12
2.44249e-12
3.18601e-12
3.51686e-12
3.51853e-12
3.35078e-12
3.2769e-12
5.20504e-12
8.33316e-12
8.70986e-12
9.16851e-12
1.03916e-11
1.71519e-11
1.45264e-11
6.03958e-13
5.07759e-12
7.47247e-12
6.96819e-12
5.58311e-12
3.25617e-12
1.35883e-12
4.8985e-13
2.43192e-13
3.25576e-13
6.32335e-13
8.67828e-13
8.52848e-13
7.79869e-13
6.52461e-13
6.13521e-13
1.09766e-12
2.39098e-12
4.55678e-12
1.00737e-11
2.09214e-11
2.26062e-11
1.7668e-11
9.00008e-14
6.87002e-13
9.55277e-13
8.67546e-13
6.70794e-13
3.81369e-13
1.60297e-13
6.15811e-14
3.55828e-14
4.84022e-14
1.11539e-13
1.73716e-13
1.68393e-13
1.47553e-13
1.09408e-13
1.0209e-13
2.3762e-13
5.92045e-13
2.4561e-12
1.35693e-11
2.40723e-11
2.47041e-11
1.90922e-11
1.23257e-14
8.69872e-14
1.06966e-13
9.49011e-14
7.25861e-14
4.167e-14
1.78484e-14
7.14436e-15
4.54695e-15
5.87683e-15
1.33019e-14
2.47822e-14
2.53118e-14
2.29569e-14
1.66458e-14
1.43018e-14
3.9206e-14
1.05646e-13
1.12032e-12
7.95601e-12
1.50314e-11
1.37027e-11
8.20768e-12
1.55572e-15
1.04391e-14
1.13425e-14
9.92508e-15
7.522e-15
4.29982e-15
1.85033e-15
7.72282e-16
5.36981e-16
6.7301e-16
1.3672e-15
2.79264e-15
3.14413e-15
2.94685e-15
2.26419e-15
1.60357e-15
3.24706e-15
9.17117e-15
2.08488e-13
1.67134e-12
2.55244e-12
2.00634e-12
1.0125e-12
1.82813e-16
1.16177e-15
1.12899e-15
9.78871e-16
7.33275e-16
4.13925e-16
1.78343e-16
7.81296e-17
6.01481e-17
7.75978e-17
1.47322e-16
2.92264e-16
3.49842e-16
3.31019e-16
2.66028e-16
1.60611e-16
1.54415e-16
3.44642e-16
6.62414e-15
6.03769e-14
8.68605e-14
7.14867e-14
4.5554e-14
2.01502e-17
1.19359e-16
1.05821e-16
8.97766e-17
6.67963e-17
3.72591e-17
1.60793e-17
7.435e-18
6.3847e-18
8.77963e-18
1.63978e-17
3.05357e-17
3.63776e-17
3.41733e-17
2.75132e-17
1.67161e-17
8.9533e-18
1.17875e-17
1.07043e-17
3.25636e-16
1.21958e-15
1.69589e-15
1.68447e-15
2.09429e-18
1.1417e-17
9.34251e-18
7.72476e-18
5.71386e-18
3.15359e-18
1.36426e-18
6.69698e-19
6.37851e-19
9.42068e-19
1.7602e-18
3.1466e-18
3.56038e-18
3.30035e-18
2.59455e-18
1.58578e-18
7.60672e-19
6.74828e-19
1.35852e-19
4.4221e-18
3.07241e-17
5.11994e-17
6.39496e-17
2.06154e-19
1.02512e-18
7.79301e-19
6.28676e-19
4.61739e-19
2.52189e-19
1.0949e-19
5.74904e-20
5.98018e-20
9.46738e-20
1.76531e-19
3.08973e-19
3.27121e-19
2.98604e-19
2.26163e-19
1.30996e-19
6.29515e-20
5.00582e-20
2.12291e-20
2.04793e-19
1.00546e-18
1.9381e-18
4.96518e-18
1.92716e-20
8.69782e-20
6.1643e-20
4.86427e-20
3.54315e-20
1.91387e-20
8.35065e-21
4.72997e-21
5.28792e-21
8.93109e-21
1.65281e-20
2.81363e-20
2.83685e-20
2.5294e-20
1.78031e-20
8.60359e-21
3.52734e-21
2.86728e-21
2.6092e-21
1.01914e-20
3.84541e-20
1.46634e-19
1.30871e-18
1.70194e-21
7.01033e-21
4.64072e-21
3.59213e-21
2.59312e-21
1.38428e-21
6.08218e-22
3.74245e-22
4.44943e-22
7.97171e-22
1.45736e-21
2.36629e-21
2.33794e-21
1.98864e-21
9.73583e-22
2.29199e-22
6.06076e-23
3.36298e-23
1.1028e-22
4.71897e-22
2.46828e-21
2.82973e-20
4.54902e-19
1.34102e-22
5.37823e-22
3.32924e-22
2.53748e-22
1.81662e-22
9.58103e-23
4.25054e-23
2.85035e-23
3.60451e-23
6.77727e-23
1.21967e-22
1.87186e-22
1.8186e-22
1.3207e-22
1.51134e-23
-1.18495e-22
-1.41999e-22
-4.77122e-23
6.89333e-41
1.47532e-23
2.7174e-22
6.38205e-21
1.14827e-19
5.21329e-24
3.85416e-23
2.2331e-23
1.701e-23
1.21862e-23
6.36605e-24
2.86288e-24
2.09742e-24
2.82787e-24
5.51844e-24
9.74418e-24
1.40885e-23
1.33963e-23
7.67311e-24
-1.42463e-22
-2.99372e-22
-2.4247e-22
-1.12634e-22
-3.27677e-23
-2.82659e-24
3.33216e-23
1.02629e-21
1.77576e-20
3.72664e-26
2.05583e-24
1.15541e-24
1.00006e-24
7.64995e-25
4.05965e-25
1.8654e-25
1.49704e-25
2.15639e-25
4.32479e-25
7.46756e-25
1.01399e-24
9.40033e-25
4.93063e-25
-1.38511e-22
-2.27894e-22
-1.73326e-22
-8.30314e-23
-2.74634e-23
-6.21433e-24
8.60164e-25
1.14711e-22
1.89832e-21
-2.36415e-24
7.99992e-27
1.48061e-26
1.59588e-26
3.47377e-26
2.33846e-26
1.16632e-26
1.03765e-26
1.60712e-26
3.27962e-26
5.51677e-26
7.00758e-26
6.31417e-26
3.14345e-26
-7.95598e-23
-1.18631e-22
-8.57845e-23
-4.01696e-23
-1.34328e-23
-3.33353e-24
-2.39001e-25
1.19589e-23
2.04318e-22
-2.45732e-24
-1.34115e-25
-5.15247e-26
1.3442e-43
1.80539e-28
5.42331e-28
6.08875e-28
6.97476e-28
1.1833e-27
2.42116e-27
3.95027e-27
4.67127e-27
4.07712e-27
1.90495e-27
-3.55124e-23
-4.91502e-23
-3.35309e-23
-1.49342e-23
-4.80257e-24
-1.16665e-24
-1.6154e-25
1.56768e-24
2.74957e-23
-1.53406e-24
-1.77689e-25
-7.25235e-26
-2.08657e-26
-2.58361e-27
0
5.48411e-30
4.18309e-29
8.61514e-29
1.75232e-28
2.75816e-28
3.01782e-28
2.54141e-28
1.10461e-28
-1.34308e-23
-1.72645e-23
-1.09859e-23
-4.56232e-24
-1.36765e-24
-3.09491e-25
-4.492e-26
2.51051e-25
3.9091e-24
-7.5427e-25
-1.08289e-25
-4.21256e-26
-1.44789e-26
-2.73118e-27
-2.70645e-28
-6.19853e-30
1.23274e-31
6.23127e-30
1.25862e-29
1.89523e-29
1.90266e-29
1.53676e-29
6.17805e-30
-4.49086e-24
-5.32533e-24
-3.12083e-24
-1.18763e-24
-3.24049e-25
-6.61129e-26
-8.74299e-27
3.94447e-26
4.55242e-25
-3.1874e-25
-4.95075e-26
-1.80503e-26
-6.5805e-27
-1.41388e-27
-1.85651e-28
-1.28346e-29
0
4.42152e-31
8.7752e-31
1.17832e-30
1.11235e-30
8.84404e-31
3.40026e-31
-1.35748e-24
-1.4751e-24
-7.88321e-25
-2.71485e-25
-6.63473e-26
-1.19507e-26
-1.34605e-27
4.89058e-27
3.7368e-26
-1.20545e-25
-1.90985e-26
-6.53091e-27
-2.43457e-27
-5.44926e-28
-7.6992e-29
-6.33691e-30
-1.62767e-31
9.38083e-33
4.14978e-32
8.38589e-32
7.19525e-32
3.39134e-32
9.15414e-33
-3.83003e-25
-3.72698e-25
-1.76839e-25
-5.34211e-26
-1.12603e-26
-1.70652e-27
-1.44894e-28
2.70009e-28
1.21494e-27
1
1
1
1
0.739851
0.833119
0.916946
0.971098
0.0213658
0.207601
0.498629
0.689968
0.00319149
0.189406
0.723405
0.822178
0.00216844
0.0318519
0.448486
0.759337
0.00396634
0.00532621
0.0119638
0.0688613
0.0370599
0.218636
0.281433
0.265982
0.372859
0.765514
0.784072
0.795797
0.523531
0.357894
0.326088
0.518479
0.0194339
0.0012199
0.0020747
0.0205279
3.53814e-05
3.41542e-05
0.0013437
0.0414496
3.41542e-05
2.47403e-05
9.6067e-06
3.8073e-06
2.498e-05
9.60666e-06
3.80544e-06
3.0469e-06
0.000380829
0.000223538
4.95814e-05
2.48096e-06
0.00146201
0.0015261
0.00127017
0.000101423
0.000820081
0.00154195
0.0018734
0.00190365
0.00117565
0.000891821
0.00116844
0.00190104
0.00190765
0.00153199
0.00190104
0.00190307
0.00173487
0.00171688
0.00141894
0.001513
1.73183e-10
9.14366e-07
2.02918e-10
3.06643e-10
1.49177e-11
1.08367e-10
1.84156e-10
2.01839e-10
6.26311e-10
1.17453e-09
6.5418e-11
3.45131e-09
1.0895e-11
1.07183e-11
1.14427e-11
1.14576e-11
1.18606e-11
1.04901e-11
1.12024e-11
1.65296e-11
1.07997e-11
5.52427e-12
3.50337e-12
3.53869e-12
3.34704e-12
1.56751e-12
1.05702e-12
1.03191e-12
3.95658e-13
2.49656e-13
2.12339e-13
2.07481e-13
3.0634e-14
2.71116e-14
2.56186e-14
2.44803e-14
1.63292e-15
1.59822e-15
1.58937e-15
1.60436e-15
7.45176e-17
8.77965e-17
1.18432e-16
1.58644e-16
1.01672e-17
1.73698e-17
3.31196e-17
5.2884e-17
3.6352e-18
6.97489e-18
1.4212e-17
2.32566e-17
1.31636e-18
2.52634e-18
5.01916e-18
8.13551e-18
3.2549e-19
6.06933e-19
1.15158e-18
1.81767e-18
4.90228e-20
8.88084e-20
1.60059e-19
2.42818e-19
5.19468e-21
9.25243e-21
1.58702e-20
2.34538e-20
5.62448e-22
9.7808e-22
1.63189e-21
2.5362e-21
7.36583e-23
1.18961e-22
2.08917e-22
3.90132e-22
9.44708e-24
1.37918e-23
3.10292e-23
6.97433e-23
9.09251e-25
1.22e-24
4.17166e-24
8.3782e-24
5.6293e-26
7.18764e-26
3.36711e-25
4.21311e-25
1.5505e-27
2.15741e-27
7.22473e-27
1.12936e-26
1
0.994866
0.944708
0.953142
0.912643
0.333649
0.145582
0.158423
0.0772214
0.0140702
0.0861239
0.0819345
0.00623028
0.00655972
0.0157361
0.407889
0.807487
0.882474
0.462501
1
0.998064
0.798858
0.950523
0.699474
0.0945021
0.141576
0.230743
0.0675333
0.0690302
0.326054
0.308448
0.0201023
0.00974201
0.11941
0.639514
0.845268
0.924747
1
0.772086
0.67623
0.676096
0.936955
0.458593
0.0732106
0.147154
0.240082
0.100022
0.0948755
0.326707
0.329265
0.248596
0.0191848
0.0474121
0.125961
0.305494
0.355157
0.972253
0.823261
0.815901
0.820129
0.794865
0.21526
0.0697008
0.218746
0.242965
0.158345
0.0770188
0.320081
0.329265
0.329265
0.171428
0.0622113
0.110483
0.0540793
0.00170761
0.32737
0.824967
0.825115
0.824967
0.712385
0.120801
0.0677107
0.243475
0.243894
0.21622
0.0628679
0.301111
0.329265
0.327558
0.3228
0.195689
0.0475667
5.39931e-06
1.09147e-06
-1.59351e-22
0.551571
0.824967
0.825116
0.776357
0.142947
0.0303731
0.20009
0.242965
0.223626
0.015191
0.011365
0.0170148
0.0151852
0.0130158
0.00141901
0.000155006
8.49169e-05
7.32607e-06
2.54856e-21
0.495069
0.824967
0.823086
0.770077
0.123068
0.0299215
0.0302074
0.0883481
0.125118
0.000257344
3.10992e-05
3.12354e-05
3.06556e-05
3.12354e-05
3.73985e-05
0.000841998
0.00243856
2.74994e-05
0
0.804509
0.818027
0.747077
0.324238
0.0344709
0.0298978
0.0298815
0.0585175
0.303999
0.0293807
9.75665e-05
3.12034e-05
3.12334e-05
3.2687e-05
3.35533e-05
0.00111064
0.00302135
0.00100951
-3.36337e-15
0.701787
0.805701
0.664915
0.135666
0.0298978
0.0298842
0.0298842
0.47757
0.55724
0.184371
0.026423
9.74336e-05
3.50724e-05
3.3541e-05
4.30293e-05
0.000242719
0.00300492
0.00550076
0.00685671
0.112025
0.473784
0.681478
0.570104
0.342704
0.338569
0.518633
0.65348
0.653497
0.560403
0.258819
0.0336176
0.000305167
7.26139e-05
4.88616e-05
7.52094e-05
0.00250803
0.00424341
0.0215002
0.0884126
0.141282
0.3261
0.533639
0.606154
0.608125
0.608125
0.607473
0.287254
0.071329
0.114065
0.142552
0.0705019
0.00051714
9.16088e-05
0.000114823
0.00252353
0.000536314
0.00222168
3.04688e-06
2.89112e-06
0.109288
0.24721
0.329861
0.334078
0.225124
0.0742913
4.91992e-07
4.6179e-07
3.89046e-07
0.0228032
0.0448425
0.011401
0.000113083
8.60891e-05
0.00251041
3.39677e-05
3.97373e-23
1.78253e-06
3.85685e-07
6.06312e-07
1.80243e-06
0.00808289
0.000464121
6.77485e-07
5.95427e-07
5.24907e-07
4.67519e-07
2.81629e-07
2.6288e-07
0.0124612
0.00650592
0.000143552
8.09175e-05
0.000937826
7.01123e-05
7.94747e-23
3.85938e-07
3.00618e-07
3.86117e-07
6.18733e-07
1.34676e-06
8.0612e-07
8.19277e-07
7.47792e-07
9.54714e-07
6.84439e-07
1.9878e-07
1.70171e-08
1.90536e-07
0.000807297
3.72266e-05
8.05205e-05
3.39572e-06
3.30168e-06
7.02577e-09
4.15065e-05
2.11915e-07
2.14003e-06
3.20236e-06
1.85217e-06
7.87004e-07
9.00888e-07
2.76987e-06
3.75776e-06
2.81428e-06
2.2611e-07
8.25556e-09
4.82077e-09
4.87605e-09
2.20956e-08
2.20527e-05
3.68359e-06
4.59238e-07
-1.58949e-22
0.00122522
1.0252e-07
9.77269e-08
3.67532e-07
1.07776e-06
7.85415e-07
2.30804e-06
3.75776e-06
3.75776e-06
3.75776e-06
1.07833e-06
5.2783e-09
4.87224e-09
4.75694e-09
3.92127e-09
8.18768e-06
4.69803e-06
5.65508e-07
0
0.0018859
9.77269e-08
9.46999e-08
1.47811e-07
9.59898e-07
3.00721e-07
2.10493e-06
3.75377e-06
3.75776e-06
1.90958e-06
5.5573e-07
8.67944e-08
4.88032e-09
4.72389e-09
3.95582e-09
2.09645e-05
2.02888e-05
3.41523e-05
1.37202e-05
0.000721577
2.93563e-07
8.40163e-08
4.80644e-10
3.0838e-10
2.89313e-10
2.8328e-08
1.1097e-06
5.18144e-07
2.75834e-10
3.34828e-10
4.02182e-10
6.19328e-09
5.8397e-09
2.60443e-09
1.01165e-05
3.20374e-05
0.000188814
0.00017939
0.00043518
4.86436e-07
3.47659e-08
1.23248e-09
2.11716e-10
2.33676e-10
2.55918e-10
2.58142e-10
2.6078e-10
2.63078e-10
3.29256e-10
4.00132e-10
1.93603e-09
5.35336e-09
2.56666e-09
2.60443e-09
7.8678e-05
0.000236957
0.000306855
6.17578e-05
5.27704e-05
1.0284e-06
1.40864e-10
9.66637e-11
1.53434e-10
2.48431e-10
2.55918e-10
2.60371e-10
5.43566e-10
1.41071e-09
1.33066e-09
1.67635e-09
4.216e-09
2.50884e-09
2.54099e-09
0.000159321
0.000234663
3.55503e-07
3.06643e-10
7.91721e-10
9.17638e-10
8.76467e-11
9.33349e-11
1.51516e-10
2.83516e-10
3.72755e-10
4.19325e-10
8.66175e-10
1.66638e-09
1.70837e-09
2.01131e-09
2.49671e-09
2.49258e-09
2.50884e-09
0.000183058
0.000229457
2.46311e-05
3.58316e-08
3.68009e-08
1.43692e-08
9.97947e-11
6.61708e-11
1.34691e-10
2.86255e-10
3.92662e-10
4.39341e-10
7.08421e-10
1.2541e-09
1.37128e-09
2.4703e-09
2.47847e-09
2.49004e-09
4.56947e-06
0.000199573
0.000200383
8.7691e-06
1.16128e-11
1.63855e-11
1.60107e-11
4.06667e-11
6.56756e-11
1.19273e-10
2.21957e-10
2.91557e-10
3.42985e-10
4.39009e-10
5.19947e-10
7.23626e-10
2.68405e-09
2.52748e-09
2.49998e-09
2.50925e-09
0.000180101
2.84983e-05
2.02944e-23
3.20594e-11
3.29847e-11
3.30451e-11
3.30097e-11
4.14386e-11
8.26561e-11
1.60902e-10
2.14052e-10
2.77841e-10
3.17983e-10
3.39954e-10
1.44564e-09
3.23715e-09
2.72066e-09
2.50925e-09
2.81678e-09
3.83364e-05
1.17018e-11
-9.07594e-28
7.90938e-12
8.62158e-12
7.33123e-12
8.91215e-12
2.02041e-11
6.06471e-11
1.07141e-10
1.07347e-10
1.93261e-10
2.3698e-10
5.39365e-10
2.17197e-07
6.47649e-09
2.53261e-09
3.06409e-09
1.47503e-06
9.80702e-12
1.28573e-12
-1.10652e-28
1.33025e-12
1.63952e-12
2.10469e-12
4.8401e-12
1.53943e-11
5.80726e-11
5.39632e-11
1.46108e-09
2.3698e-10
6.20108e-10
6.1152e-07
3.05127e-06
1.61177e-07
1.57646e-09
1.77463e-09
5.15301e-10
4.4191e-10
5.6864e-10
-2.75029e-29
2.17912e-13
2.85073e-13
7.16227e-13
3.29249e-12
1.41908e-11
5.03447e-11
2.81968e-11
2.60095e-08
1.66511e-08
1.44043e-07
3.35865e-06
3.56319e-06
2.06864e-06
1.07403e-09
8.07459e-10
7.95308e-10
1.34916e-09
1.23157e-09
-7.7611e-26
2.48784e-14
6.28562e-14
4.23118e-13
3.18088e-12
2.29003e-11
4.07459e-11
2.81992e-11
3.54854e-08
3.17511e-07
5.55241e-07
3.56319e-06
3.56319e-06
3.56319e-06
2.72767e-07
9.25972e-10
8.07459e-10
1.80157e-09
1.2042e-09
-1.91591e-14
2.30047e-15
3.82578e-14
3.87243e-13
7.0967e-12
3.8328e-11
4.11982e-11
2.81937e-11
2.28183e-09
4.49482e-07
6.62841e-07
3.05073e-06
3.56319e-06
3.536e-06
2.86249e-06
3.93378e-07
4.43671e-09
2.33785e-09
1.14215e-09
0
9.11535e-16
3.31504e-14
3.92044e-13
1.1531e-11
4.24126e-11
4.68046e-11
2.85841e-11
1.51144e-12
2.93169e-08
2.65654e-07
8.0667e-12
1.1448e-06
2.94312e-06
3.04085e-06
1.67426e-06
6.98235e-08
5.48133e-09
4.48645e-07
-1.00951e-12
7.72059e-16
1.82516e-14
3.51002e-13
8.35042e-12
3.83165e-11
4.61724e-11
2.9971e-11
1.45383e-12
1.23819e-14
1.15305e-14
1.23905e-14
8.0667e-12
3.44328e-11
1.14422e-06
9.44321e-07
9.7395e-08
7.09812e-09
2.81397e-06
6.0831e-05
2.91241e-16
9.30651e-15
1.25321e-13
2.53364e-12
1.73331e-11
2.596e-11
1.98957e-11
6.26055e-12
3.47241e-13
6.56448e-15
3.58269e-10
1.04199e-09
4.85467e-10
4.37124e-10
4.45142e-10
1.43796e-08
7.60822e-09
3.3618e-06
0.000578484
6.75146e-17
3.39369e-15
6.71806e-14
8.85932e-13
4.33415e-12
6.55966e-12
5.68776e-12
3.2014e-12
5.15885e-13
1.38285e-15
2.10187e-09
3.1632e-09
2.32373e-09
1.3261e-09
5.22917e-10
5.32588e-10
1.43558e-08
3.73355e-11
0.000569699
1.59191e-17
9.65128e-16
1.54009e-14
1.29723e-13
5.94326e-13
1.09947e-12
9.9766e-13
6.2907e-13
1.49376e-13
1.56786e-16
2.38768e-09
3.14605e-09
3.13539e-09
2.63872e-09
8.69174e-10
5.5172e-10
1.16318e-09
3.69943e-11
3.78965e-29
3.45377e-18
1.46887e-16
1.70583e-15
7.23199e-15
3.63535e-14
1.16052e-13
1.17724e-13
8.44506e-14
2.27467e-14
8.60022e-18
3.33314e-10
1.14971e-09
1.66264e-09
2.02165e-09
8.01359e-10
6.05559e-10
1.85508e-11
1.8534e-11
3.28645e-13
5.91241e-19
1.64599e-17
1.38374e-16
6.29475e-16
4.38335e-15
1.21648e-14
1.11906e-14
6.29014e-15
1.32017e-15
2.04204e-18
-2.9385e-17
-3.93854e-17
7.66118e-11
3.76624e-10
9.44486e-11
3.74441e-10
8.84674e-11
2.09948e-11
8.00765e-13
9.85196e-20
2.78069e-18
4.18751e-17
2.0798e-16
6.51994e-16
6.23306e-16
4.2125e-16
1.41415e-16
0
-2.86317e-17
-4.02973e-17
-3.59841e-17
-2.47555e-17
-1.43226e-17
-7.311e-18
9.25236e-11
2.3927e-11
2.00292e-11
1.40095e-12
2.75352e-20
7.6417e-19
2.21204e-17
8.53887e-17
7.11239e-17
3.5697e-17
6.16477e-18
-2.59909e-19
-1.54449e-17
-2.76579e-17
-2.79617e-17
-2.07999e-17
-1.24953e-17
-6.46181e-18
-2.94787e-18
4.75366e-12
9.1772e-13
1.41859e-11
1.13591e-12
9.05001e-21
1.81352e-19
8.53876e-18
8.47297e-18
4.69781e-18
0
-2.01978e-18
-3.6444e-18
-1.2262e-17
-1.66066e-17
-1.35708e-17
-8.39913e-18
-4.29542e-18
-1.92287e-18
-7.57368e-19
-1.85496e-19
-2.66142e-20
6.08282e-12
2.7955e-13
2.02638e-21
2.46087e-20
4.5009e-19
3.68165e-19
9.6386e-20
-1.13894e-18
-1.80614e-18
-2.41398e-18
-6.42038e-18
-6.66687e-18
-4.20535e-18
-2.05666e-18
-8.5329e-19
-3.17233e-19
-1.04235e-19
-2.28553e-20
-2.99667e-21
1.02781e-12
3.71798e-14
2.23631e-22
1.52442e-21
8.39607e-21
5.33302e-21
1.04182e-21
-6.21141e-19
-6.98803e-19
-8.68521e-19
-2.04954e-18
-1.50634e-18
-6.55634e-19
-2.20781e-19
-6.34408e-20
-1.65964e-20
-3.87321e-21
-6.57021e-22
-6.89114e-23
6.07835e-14
1.67623e-15
6.92759e-24
1.83647e-23
2.04871e-23
1.25789e-23
1.45853e-24
-1.54482e-19
-8.80545e-20
-1.09541e-19
-3.06365e-19
-1.40971e-19
-3.49891e-20
-6.38401e-21
-9.39828e-22
-1.18666e-22
-1.28832e-23
-1.18157e-24
-1.07169e-25
-8.28577e-27
-1.77048e-28
)
;

boundaryField
{
    leftWall
    {
        type            zeroGradient;
    }
    rightWall
    {
        type            zeroGradient;
    }
    lowerWall
    {
        type            zeroGradient;
    }
    atmosphere
    {
        type            inletOutlet;
        inletValue      uniform 0;
        value           nonuniform List<scalar> 
46
(
-1.20545e-25
-1.90985e-26
-6.53091e-27
-2.43457e-27
-5.44926e-28
-7.6992e-29
-6.33691e-30
-1.62767e-31
9.38083e-33
4.14978e-32
8.38589e-32
7.19525e-32
3.39134e-32
9.15414e-33
-3.83003e-25
-3.72698e-25
-1.76839e-25
-5.34211e-26
-1.12603e-26
-1.70652e-27
-1.44894e-28
2.70009e-28
1.21494e-27
1.5505e-27
2.15741e-27
0
0
0
0
0
0
0
0
0
0
0
0
0
0
0
0
0
0
0
0
0
)
;
    }
    defaultFaces
    {
        type            empty;
    }
}


// ************************************************************************* //
