/*--------------------------------*- C++ -*----------------------------------*\
| =========                 |                                                 |
| \\      /  F ield         | OpenFOAM: The Open Source CFD Toolbox           |
|  \\    /   O peration     | Version:  5.x                                   |
|   \\  /    A nd           | Web:      www.OpenFOAM.org                      |
|    \\/     M anipulation  |                                                 |
\*---------------------------------------------------------------------------*/
FoamFile
{
    version     2.0;
    format      ascii;
    class       surfaceScalarField;
    location    "0.85";
    object      alphaPhi10;
}
// * * * * * * * * * * * * * * * * * * * * * * * * * * * * * * * * * * * * * //

dimensions      [0 3 -1 0 0 0 0];

internalField   nonuniform List<scalar> 
4432
(
-4.32272e-06
4.32272e-06
-9.57947e-06
5.25675e-06
-1.53021e-05
5.72259e-06
-2.11338e-05
5.83174e-06
-2.49023e-05
3.76848e-06
-2.4804e-05
-9.83204e-08
-2.2432e-05
-2.37192e-06
-2.01304e-05
-2.3016e-06
-1.86093e-05
-1.52115e-06
-1.75188e-05
-1.09046e-06
-1.66258e-05
-8.92981e-07
-1.59593e-05
-6.66515e-07
-1.54641e-05
-4.95183e-07
-1.47147e-05
-7.49432e-07
-1.32993e-05
-1.4154e-06
-1.25728e-05
-4.58199e-07
-1.5924e-05
3.79806e-06
-2.39494e-05
6.94969e-06
-2.64037e-05
2.45434e-06
-2.2735e-05
-3.62042e-06
-1.55567e-05
-7.1126e-06
-7.06788e-06
-8.48137e-06
-7.07283e-06
-8.058e-06
1.23807e-05
-1.55875e-05
1.27862e-05
-2.19598e-05
1.20949e-05
-2.6354e-05
1.02259e-05
-2.76119e-05
5.02639e-06
-2.61108e-05
-1.59933e-06
-2.32238e-05
-5.25895e-06
-2.05704e-05
-4.95497e-06
-1.88078e-05
-3.28383e-06
-1.75222e-05
-2.37604e-06
-1.62915e-05
-2.12367e-06
-1.50517e-05
-1.90631e-06
-1.4039e-05
-1.50781e-06
-1.38308e-05
-9.57635e-07
-1.50335e-05
-3.29974e-08
-1.71756e-05
2.68912e-06
-2.10091e-05
7.15393e-06
-2.23999e-05
7.79305e-06
-1.91302e-05
-8.14505e-07
-1.4142e-05
-8.37719e-06
-9.52403e-06
-1.16805e-05
-4.55628e-06
-1.36187e-05
-1.16291e-05
-8.39264e-06
2.07734e-05
-1.56094e-05
2.0003e-05
-2.15711e-05
1.80566e-05
-2.5997e-05
1.46518e-05
-2.79477e-05
6.97708e-06
-2.68772e-05
-2.66975e-06
-2.41466e-05
-7.98958e-06
-2.15335e-05
-7.56811e-06
-1.96302e-05
-5.18708e-06
-1.80918e-05
-3.91439e-06
-1.64198e-05
-3.79567e-06
-1.44258e-05
-3.90041e-06
-1.23349e-05
-3.59866e-06
-1.07884e-05
-2.50413e-06
-1.07327e-05
-8.10037e-08
-1.17541e-05
4.18188e-06
-1.23173e-05
8.27271e-06
-1.02095e-05
5.63223e-06
-7.13829e-06
-3.94333e-06
-4.4397e-06
-1.11345e-05
-2.94273e-06
-1.3267e-05
-1.28963e-06
-1.54571e-05
-1.29187e-05
-7.45798e-06
2.82313e-05
-1.39968e-05
2.65418e-05
-1.96739e-05
2.37337e-05
-2.41022e-05
1.908e-05
-2.61796e-05
9.05455e-06
-2.56376e-05
-3.21177e-06
-2.39199e-05
-9.70726e-06
-2.23107e-05
-9.17734e-06
-2.08154e-05
-6.68241e-06
-1.92916e-05
-5.43814e-06
-1.75428e-05
-5.54445e-06
-1.53925e-05
-6.05079e-06
-1.29293e-05
-6.06183e-06
-1.04602e-05
-4.97328e-06
-8.29682e-06
-2.24431e-06
-6.22021e-06
2.10529e-06
-3.43184e-06
5.50214e-06
-6.94737e-07
2.93759e-06
8.85724e-07
-5.61042e-06
1.21558e-06
-1.16698e-05
4.20502e-07
-1.28589e-05
1.92177e-07
-1.52288e-05
-1.27268e-05
-6.11202e-06
3.43433e-05
-1.17959e-05
3.22257e-05
-1.66714e-05
2.86092e-05
-2.01804e-05
2.2589e-05
-2.17127e-05
1.05869e-05
-2.1809e-05
-3.11552e-06
-2.20137e-05
-9.50251e-06
-2.24179e-05
-8.77319e-06
-2.20221e-05
-7.07821e-06
-2.07138e-05
-6.74643e-06
-1.87914e-05
-7.46684e-06
-1.63896e-05
-8.45258e-06
-1.36718e-05
-8.7796e-06
-1.09227e-05
-7.72245e-06
-8.26058e-06
-4.90638e-06
-5.12322e-06
-1.03207e-06
-1.30071e-06
1.67963e-06
1.50304e-06
1.33845e-07
1.74939e-06
-5.85677e-06
1.04407e-06
-1.09645e-05
6.36805e-09
-1.18212e-05
-9.98309e-09
-1.52125e-05
-1.27368e-05
-4.4077e-06
3.8751e-05
-8.91891e-06
3.67369e-05
-1.25726e-05
3.2263e-05
-1.47591e-05
2.47755e-05
-1.56229e-05
1.14506e-05
-1.64808e-05
-2.25759e-06
-1.91515e-05
-6.83182e-06
-2.20649e-05
-5.8598e-06
-2.31503e-05
-5.99277e-06
-2.22977e-05
-7.5991e-06
-2.01727e-05
-9.59176e-06
-1.72974e-05
-1.13279e-05
-1.40226e-05
-1.20543e-05
-1.08228e-05
-1.09223e-05
-8.11112e-06
-7.61801e-06
-5.54513e-06
-3.59806e-06
-2.64739e-06
-1.21811e-06
-4.94095e-07
-2.01945e-06
-1.99592e-07
-6.15126e-06
-4.8497e-07
-1.06791e-05
-7.10971e-07
-1.15952e-05
-3.3419e-07
-1.55892e-05
-1.3071e-05
-2.48013e-06
4.12312e-05
-5.92376e-06
4.01805e-05
-8.40961e-06
3.47488e-05
-8.97314e-06
2.5339e-05
-8.85406e-06
1.13315e-05
-1.1004e-05
-1.06064e-07
-1.68135e-05
-1.01402e-06
-2.19687e-05
-7.04568e-07
-2.42604e-05
-3.70111e-06
-2.37545e-05
-8.10496e-06
-2.11062e-05
-1.224e-05
-1.72209e-05
-1.52133e-05
-1.28839e-05
-1.63914e-05
-8.99971e-06
-1.48065e-05
-6.32428e-06
-1.02934e-05
-4.40619e-06
-5.51615e-06
-2.42298e-06
-3.20132e-06
-7.53924e-07
-3.6885e-06
-1.1453e-07
-6.79065e-06
6.88142e-08
-1.08625e-05
2.70774e-07
-1.17972e-05
4.09998e-07
-1.57285e-05
-1.2661e-05
-2.80671e-07
4.15118e-05
-1.65145e-06
4.15513e-05
-2.0012e-06
3.50986e-05
-5.14102e-07
2.38519e-05
-6.76595e-07
1.1494e-05
-7.10241e-06
6.365e-06
-1.62131e-05
7.88744e-06
-2.23525e-05
5.43481e-06
-2.4782e-05
-1.2716e-06
-2.36556e-05
-9.23134e-06
-1.97371e-05
-1.61585e-05
-1.45758e-05
-2.03742e-05
-9.34966e-06
-2.16168e-05
-5.09562e-06
-1.90601e-05
-2.85348e-06
-1.25356e-05
-1.77356e-06
-6.59609e-06
-5.38902e-07
-4.43598e-06
7.05463e-07
-4.93286e-06
1.54063e-06
-7.62581e-06
1.63646e-06
-1.09583e-05
1.97904e-06
-1.21398e-05
1.24683e-06
-1.49963e-05
-1.14141e-05
-1.29434e-05
1.28318e-05
-3.3531e-05
2.05876e-05
-3.26345e-05
-8.81942e-07
-6.95689e-06
-2.56776e-05
1.38069e-05
-2.07827e-05
1.53581e-05
-1.59804e-06
7.2149e-06
8.14321e-06
-2.29421e-05
2.54321e-05
-3.30562e-05
1.56668e-05
-1.65323e-05
-7.35941e-06
3.17155e-06
-1.48249e-05
1.98246e-05
-1.38892e-05
3.09363e-05
-1.1144e-05
3.08859e-05
6.96753e-07
1.27331e-05
1.78985e-05
-7.0461e-06
1.97698e-05
-1.60014e-05
8.95525e-06
-1.8618e-05
7.25658e-06
-7.77674e-06
-2.36557e-05
3.65938e-05
-3.4744e-05
3.16822e-05
-2.51588e-05
-9.32343e-06
-1.83881e-06
-4.47527e-05
1.40186e-05
-3.64993e-05
8.20469e-06
4.21851e-06
-2.1774e-05
3.79267e-05
-3.77544e-05
4.67571e-05
-6.84116e-06
7.81613e-07
2.02318e-06
-1.69868e-05
1.06011e-05
-1.56215e-05
2.38675e-05
-1.54917e-05
2.76535e-05
-1.25752e-05
3.10784e-05
-2.77225e-06
2.78674e-05
1.81642e-05
1.26392e-06
4.56172e-05
-1.51378e-05
2.81867e-05
-2.15868e-05
5.73941e-06
-5.35854e-05
-2.18333e-05
5.84271e-05
-2.61681e-05
3.61947e-05
-1.37207e-05
-1.31414e-05
7.03489e-07
-5.4493e-05
7.79014e-06
-4.30849e-05
-1.12198e-05
2.32331e-05
-4.1622e-05
6.84134e-05
-7.45649e-06
2.02457e-05
-1.75226e-06
-5.07027e-06
4.65509e-06
-3.09882e-05
1.40016e-05
-1.54301e-05
2.21398e-05
-8.65119e-06
1.99117e-05
-3.83627e-06
2.15895e-05
-3.26e-06
2.25567e-05
1.35634e-05
7.4632e-06
5.45339e-05
-9.26182e-06
5.74524e-05
-1.91918e-05
5.27928e-06
-7.26304e-05
-1.56281e-05
6.94938e-05
-1.37491e-05
3.61624e-05
-7.77837e-06
-1.93231e-05
1.26723e-06
-6.17725e-05
-5.68415e-06
-3.59155e-05
-3.35482e-05
5.11092e-05
-3.13602e-05
7.28502e-05
-4.41845e-06
9.03806e-06
1.25698e-06
-1.08934e-05
5.48238e-06
-3.26345e-05
8.37554e-06
-2.05832e-05
4.37833e-06
-1.47674e-06
6.56112e-06
1.47255e-08
1.06219e-05
1.16272e-06
1.45565e-05
8.50767e-06
1.38639e-05
4.26872e-05
-3.70011e-06
7.97175e-05
-4.13535e-06
1.01155e-05
-7.52731e-05
-9.61025e-06
8.32723e-05
-9.10852e-06
3.58927e-05
-4.91569e-06
-2.4403e-05
-2.30275e-06
-8.16068e-05
-2.29529e-05
-1.5401e-05
-4.95526e-05
7.79387e-05
-1.13896e-05
4.56106e-05
-2.09685e-06
-4.01847e-07
1.86573e-06
-1.49834e-05
2.05187e-06
-3.07368e-05
1.50887e-06
-1.37865e-06
3.38117e-07
-3.06908e-07
2.58584e-07
9.15736e-08
4.98157e-07
1.64283e-07
5.99919e-06
5.03203e-07
1.35839e-05
2.90657e-05
1.02848e-05
8.29261e-05
8.05797e-06
1.23525e-05
-6.74134e-05
-3.57912e-06
8.77454e-05
-3.67342e-06
4.05485e-05
-1.71209e-06
-2.73001e-05
-1.06957e-05
-7.27117e-05
-4.13604e-05
1.51267e-05
-5.47184e-05
9.26062e-05
-7.42316e-06
1.55181e-05
-1.40662e-06
-6.55076e-06
-1.29241e-06
-1.68608e-05
4.72397e-07
-2.09516e-05
1.0379e-07
-1.01095e-06
1.79182e-07
-3.84985e-07
1.553e-07
1.13488e-07
-1.47408e-08
3.31639e-07
-2.40117e-06
2.83952e-07
3.68256e-06
7.94408e-06
1.38734e-05
7.27456e-05
1.40763e-05
1.21578e-05
-5.40699e-05
2.45003e-06
8.52953e-05
3.4386e-06
4.26279e-05
4.53285e-07
-2.49894e-05
-2.13862e-05
-5.07756e-05
-5.45326e-05
4.8171e-05
-2.71395e-05
7.51086e-05
-5.59012e-06
8.51026e-06
-2.71933e-06
-9.60854e-06
-1.28594e-06
-1.30887e-05
-4.4027e-07
-1.26729e-06
-2.63507e-07
-1.17219e-06
-4.92183e-08
-6.01242e-07
-4.86988e-08
1.11e-07
-2.31368e-07
5.1234e-07
-7.37609e-07
7.6161e-07
-2.02824e-05
6.08527e-06
6.1383e-06
4.6334e-05
6.0795e-06
1.22239e-05
-4.0522e-05
8.07539e-06
7.72199e-05
1.12872e-05
3.94193e-05
9.0597e-07
-2.03572e-05
-3.28593e-05
-1.82934e-05
-6.19579e-05
7.79163e-05
-1.20962e-05
4.3498e-05
-5.11015e-06
1.53772e-06
-4.90952e-06
-9.94155e-06
-1.04511e-06
-1.09159e-05
-1.50889e-06
-1.07576e-06
-8.18574e-07
-1.97636e-06
-2.49524e-07
-1.17659e-06
-3.48904e-07
2.08415e-07
-6.58766e-07
8.15901e-07
-1.56227e-06
1.57294e-06
-3.49071e-05
8.08895e-06
-2.72462e-05
1.76629e-05
-1.19829e-05
-3.48158e-06
-4.38172e-05
8.18207e-06
2.60462e-05
5.2899e-06
4.44435e-05
-6.76872e-07
4.10653e-05
-1.11794e-05
3.43544e-05
-2.58198e-05
2.12626e-05
-4.09603e-05
1.82278e-05
-5.04175e-05
1.73453e-05
-5.57438e-05
1.07611e-05
-5.67728e-05
-2.36634e-07
-5.27226e-05
-1.32792e-05
-4.53358e-05
-2.35353e-05
-3.60294e-05
-2.72713e-05
-2.47543e-05
-2.81085e-05
-1.32601e-05
-2.58984e-05
-8.53361e-06
-1.56637e-05
-8.79399e-06
-6.20888e-06
-6.93969e-06
-6.26847e-06
-3.87801e-06
-7.94573e-06
-1.34152e-06
-1.00885e-05
2.46034e-08
-1.22568e-05
1.10714e-06
-1.32045e-05
-6.69885e-08
-1.37764e-05
-9.49619e-06
-1.98545e-06
-1.40528e-05
1.75665e-05
-2.73609e-05
1.52633e-05
-4.65619e-05
2.36198e-05
-5.45547e-05
1.7714e-05
-5.31507e-05
1.30128e-05
-5.23989e-05
9.54433e-06
-6.82879e-05
9.03486e-06
-7.6469e-05
8.27261e-06
-8.62841e-05
7.54159e-06
-8.66149e-05
-1.12804e-06
-6.87171e-05
-8.42621e-06
-4.55477e-05
-1.19027e-05
-2.80246e-05
-1.43883e-05
-1.3653e-05
-1.47732e-05
-9.69676e-06
-6.41489e-06
-1.40466e-05
-2.37255e-07
-1.59971e-05
-3.66584e-08
-1.52347e-05
-6.80557e-09
-1.4455e-05
-7.70855e-09
-1.45887e-05
-1.21196e-08
-1.22187e-05
-4.66584e-08
-8.4069e-06
-3.77243e-07
-2.14798e-06
-5.47246e-06
-3.29759e-05
1.07423e-05
-3.25987e-05
2.98264e-06
-3.2117e-05
4.40361e-06
-0.000121969
5.42557e-06
-0.000176338
2.01605e-05
-0.000167053
1.97035e-05
-0.000121965
1.47044e-05
-4.10261e-05
6.10805e-06
-3.5801e-05
-2.14587e-07
-3.31069e-05
-6.97204e-06
-2.38732e-05
-1.9784e-05
-1.43648e-05
-1.72043e-05
-8.82198e-06
-2.06784e-05
-1.86809e-06
-1.83303e-05
2.91262e-07
-4.84666e-06
8.59475e-08
-2.89981e-08
2.47919e-08
2.44631e-08
-2.87641e-08
4.66737e-08
-7.05893e-08
3.39958e-08
-9.68668e-08
1.40259e-08
-1.4156e-07
-2.04676e-09
-4.72444e-07
-4.63541e-08
-4.59879e-07
-2.16782e-06
-4.30269e-05
-6.76424e-07
-5.92718e-05
8.16754e-06
-8.29764e-05
1.28049e-05
-8.70805e-05
2.09077e-06
-8.28063e-05
1.45557e-06
-7.76916e-05
6.10466e-07
-7.29775e-05
3.19299e-07
-7.63501e-05
-8.16772e-07
-7.08112e-05
-6.05191e-06
-6.39842e-05
-1.19654e-05
-6.22159e-05
-1.7376e-05
-4.57349e-05
-2.36502e-05
-4.07907e-05
-2.88681e-05
-1.87017e-05
-2.82636e-05
-3.20831e-07
-9.31962e-06
-1.14628e-07
-2.35235e-07
-8.74042e-08
-2.83784e-09
-8.0986e-08
4.01787e-08
-9.91053e-08
5.20385e-08
-1.17557e-07
3.22913e-08
-1.23625e-07
2.70868e-09
-1.69887e-07
-1.16585e-08
-9.59995e-08
-6.47843e-07
-3.85875e-05
2.32524e-06
-3.40515e-05
4.57659e-06
-2.44767e-05
1.02612e-06
-5.16431e-05
4.48482e-07
-7.43337e-05
1.62059e-06
-7.11824e-05
-8.51377e-08
-6.67202e-05
-4.12575e-07
-6.49073e-05
-1.09265e-06
-6.95943e-05
-3.03117e-06
-6.95206e-05
-9.99357e-06
-6.74119e-05
-1.73126e-05
-6.45965e-05
-2.42936e-05
-6.10981e-05
-3.01945e-05
-5.58594e-05
-3.10347e-05
-5.20754e-06
-1.97387e-05
-1.96865e-07
-5.24053e-06
-1.94468e-07
-5.2687e-09
-1.92511e-07
3.81452e-08
-1.9579e-07
5.51309e-08
-2.01563e-07
1.22866e-08
-1.73378e-07
-3.70427e-08
-1.49165e-07
-1.97868e-07
-6.0469e-09
-4.39889e-07
-5.93597e-06
-6.97332e-07
-1.95846e-06
6.2435e-07
-1.31062e-06
2.75524e-07
-9.39568e-07
6.10913e-08
-2.48242e-08
-6.06434e-09
-1.20994e-07
-3.02364e-09
-5.35105e-07
-2.21789e-10
-1.62591e-06
-6.89497e-10
-7.43948e-06
-4.70724e-08
-2.6889e-05
-5.01047e-07
-4.74416e-05
-2.55245e-06
-6.20684e-05
-9.64891e-06
-6.69226e-05
-2.28728e-05
-6.30199e-05
-3.10291e-05
-5.24862e-05
-2.57442e-05
-7.60057e-07
-9.93109e-06
-3.45191e-07
-4.14757e-07
-3.93321e-07
8.58454e-08
-8.96944e-07
8.83073e-08
-1.6628e-06
-1.57172e-07
-1.4674e-06
-1.15069e-06
-4.47333e-07
-3.17647e-06
-3.72038e-07
-4.52139e-07
-6.82674e-07
1.67096e-08
-2.57608e-07
2.25638e-07
-5.83954e-08
5.73582e-08
-3.16849e-09
5.42369e-09
-9.31564e-09
1.43173e-11
-1.80408e-08
-8.54315e-11
-1.64698e-08
-6.78577e-11
-1.21519e-08
-6.39806e-10
-5.67505e-08
-2.1869e-09
-5.51544e-07
-9.37925e-09
-3.04097e-06
-8.80292e-08
-1.21876e-05
-6.70745e-07
-5.2537e-05
-4.99224e-06
-6.23531e-05
-1.66847e-05
-6.0562e-05
-2.40641e-05
-4.22107e-05
-1.76206e-05
-1.18605e-06
-6.42028e-06
-1.23156e-06
8.64626e-08
-1.51028e-06
1.6452e-07
-2.55927e-05
-1.86576e-06
-5.94781e-05
-3.21252e-05
-3.25057e-05
-4.98064e-05
-1.43482e-05
-5.26647e-06
-1.6478e-07
1.8905e-07
-5.22006e-08
1.02323e-07
-5.07033e-09
1.06446e-08
-3.301e-10
4.52692e-10
-3.14286e-10
1.98331e-12
-2.49169e-09
-8.07272e-12
-8.12135e-09
6.01443e-13
-8.21278e-09
4.53441e-11
-3.15609e-09
-1.69995e-10
-1.16566e-08
-4.45633e-10
-9.65748e-08
-3.52552e-09
-7.36227e-07
-3.40525e-08
-5.45564e-06
-2.91411e-07
-3.64205e-05
-2.25308e-06
-5.6915e-05
-1.18361e-05
-5.85942e-05
-1.33919e-05
-4.63196e-05
-1.6535e-05
-6.47233e-06
-2.59399e-06
-2.16838e-06
-5.36644e-06
-6.23232e-05
-1.7537e-05
-0.000105537
-4.52098e-05
-8.76919e-05
-4.84345e-05
-4.23834e-05
-4.03819e-05
-1.90543e-09
1.91267e-07
-9.04537e-09
1.07265e-07
-4.36317e-10
1.92763e-09
-4.07914e-12
2.06617e-11
-1.59335e-12
-1.52645e-13
-8.78684e-12
-4.3412e-13
-1.0649e-10
-5.85869e-13
-2.88541e-10
-6.42639e-13
-1.08382e-10
-1.69998e-13
-6.2842e-11
-6.48232e-13
-3.57332e-09
-1.82749e-11
-3.73525e-08
-3.07619e-10
-3.25226e-07
-3.60123e-09
-2.54371e-06
-3.50918e-08
-1.60796e-05
-1.30563e-07
-2.94213e-05
-1.71737e-06
-2.2557e-05
-4.72464e-06
-1.37763e-05
-8.86814e-06
-2.87673e-05
-2.24003e-05
-9.33284e-05
-4.18553e-05
-9.14491e-05
-2.64808e-05
-8.85653e-05
-3.14967e-05
-2.59989e-05
-8.43414e-05
6.60725e-08
1.24934e-07
-8.47341e-10
3.64796e-07
-2.09802e-11
1.14541e-08
-1.10201e-12
9.36725e-13
-5.27419e-13
-3.11028e-13
-3.25117e-13
-1.9089e-13
-3.15706e-13
-2.47066e-13
-6.81906e-13
-1.2128e-13
-6.31918e-13
-6.02484e-14
-4.80551e-13
-1.08049e-13
-1.87776e-11
1.4271e-14
-3.24049e-10
-8.43924e-15
-3.88164e-09
-5.97048e-13
-3.89715e-08
-2.87465e-12
-1.69511e-07
-1.52469e-11
-1.88655e-06
-1.69756e-10
-6.6104e-06
-9.01206e-10
-3.28457e-05
-4.26192e-09
-4.56452e-05
-1.24363e-08
-5.05773e-05
-1.89365e-08
-5.38598e-05
-2.35581e-08
-5.34808e-05
-4.00945e-08
-1.59638e-07
-1.13127e-05
6.00729e-08
6.48477e-08
3.60679e-08
2.93551e-07
4.91274e-10
8.75844e-08
-1.13126e-11
4.97569e-10
-4.76453e-13
-1.09487e-11
-2.19881e-13
-3.00412e-13
-1.42658e-13
-1.67496e-13
-5.86623e-14
-1.14894e-13
-8.47483e-15
-1.64328e-14
-4.69262e-15
1.00758e-14
-1.10087e-14
1.45827e-14
-2.78531e-14
1.49962e-14
-1.89905e-13
5.57014e-15
-2.8044e-12
-5.71622e-15
-1.68204e-11
-1.47303e-12
-1.53899e-10
-3.62097e-11
-7.85325e-10
-2.92647e-10
-2.98404e-09
-2.18227e-09
-6.15414e-09
-9.75431e-09
-9.82581e-09
-1.65127e-08
-1.5645e-08
-1.79682e-08
-4.22177e-08
-1.31581e-08
-1.42112e-08
-1.89319e-07
4.40726e-08
1.81129e-08
7.45124e-08
1.85667e-07
7.38851e-09
1.17522e-07
1.03963e-10
5.45118e-09
-2.28608e-12
8.91595e-11
-8.40616e-14
-2.52897e-12
-3.57197e-14
-1.76635e-13
-1.12263e-15
-1.17846e-13
1.84527e-14
-4.05003e-14
1.49201e-14
1.77572e-14
4.90948e-15
1.40517e-14
-2.1334e-15
1.99325e-14
1.83323e-15
1.16324e-13
7.78871e-13
3.27103e-13
-1.30033e-12
1.09465e-12
-5.22295e-11
2.65519e-12
-4.4807e-10
-2.87301e-11
-1.11182e-08
-3.32921e-10
-4.85499e-08
-1.23308e-08
-5.27311e-08
-5.30986e-08
-2.40551e-08
-6.84087e-08
-1.91895e-08
-1.58739e-08
-1.67981e-08
-1.34172e-08
1.60302e-08
2.08528e-09
5.95709e-08
2.36093e-08
3.12874e-08
5.89384e-08
4.77831e-10
1.72524e-08
1.03556e-11
4.97229e-10
-2.93912e-13
6.55285e-12
6.19862e-14
-5.52153e-13
6.18814e-14
-1.02408e-13
6.84557e-14
-3.54134e-14
3.53614e-14
1.689e-14
1.49192e-14
1.42065e-14
3.75752e-14
5.08557e-14
1.4333e-13
1.21356e-12
-7.14155e-15
1.2091e-12
7.12964e-13
1.02764e-12
-3.93689e-12
7.95238e-12
-1.59761e-10
8.68443e-11
-1.63334e-09
5.9309e-10
-1.10626e-07
-2.71111e-09
-2.79872e-07
-6.71717e-08
-3.01066e-07
-1.08359e-07
-1.17453e-07
-1.73212e-07
-9.89708e-08
-2.44518e-08
1.7458e-09
3.3995e-10
1.49489e-08
4.11606e-09
1.7805e-08
4.55856e-09
5.95708e-10
8.86328e-09
6.53828e-11
1.77334e-09
6.63667e-13
5.85829e-11
-3.8312e-14
-4.86227e-13
4.53404e-14
-1.66753e-13
7.00834e-14
-1.05871e-14
4.8327e-14
1.29051e-14
4.14449e-14
1.06665e-14
6.14371e-13
3.16236e-13
1.12231e-12
1.7861e-12
7.66502e-13
1.78264e-12
3.07005e-13
1.05501e-12
6.56958e-12
2.20828e-12
-9.60192e-11
5.0396e-10
2.3991e-09
4.24026e-09
-2.62169e-08
3.09975e-09
-1.693e-07
-2.50685e-08
-2.27322e-07
-5.13648e-08
-3.01998e-07
-9.11016e-08
-1.45516e-07
-2.42875e-07
3.1197e-10
2.82651e-11
3.51098e-09
6.25907e-10
5.14554e-09
1.08206e-09
3.98437e-09
3.91674e-10
5.58437e-11
2.46257e-09
9.05421e-12
3.83076e-10
2.55773e-13
6.88632e-12
2.34215e-14
-7.4151e-15
1.66425e-14
1.24663e-14
3.09261e-14
1.04557e-14
1.69513e-14
1.13728e-14
9.01702e-13
3.65723e-13
1.54012e-12
1.43384e-12
1.65441e-12
1.95882e-12
8.96315e-13
1.23347e-12
2.61418e-12
2.3205e-13
4.78829e-10
2.76682e-11
6.69378e-09
2.63623e-09
8.47016e-10
8.72969e-09
-4.90451e-09
1.83723e-12
-5.92288e-09
-4.26246e-08
-9.5005e-08
-3.47733e-08
-1.12285e-07
-1.54001e-07
2.72266e-11
1.04725e-12
5.55773e-10
7.23298e-11
9.96366e-10
2.34372e-10
1.23312e-09
1.1434e-10
1.30922e-09
3.2129e-10
5.81139e-11
5.15882e-10
3.07364e-12
3.1889e-11
2.99814e-13
1.823e-12
7.63898e-14
1.60744e-13
4.84971e-14
2.21008e-14
3.12427e-14
1.38989e-14
7.13393e-13
4.63753e-14
1.58133e-12
8.82108e-13
1.98569e-12
1.84388e-12
7.28308e-13
9.94731e-13
6.20034e-13
1.15965e-13
2.68398e-11
1.49486e-12
2.30092e-09
5.71221e-11
1.5281e-08
4.6012e-10
4.67392e-08
3.48594e-09
4.51573e-08
-3.10672e-08
2.20924e-09
-9.54116e-08
-1.38337e-07
-3.45839e-08
9.6824e-13
8.29494e-14
6.56759e-11
6.26963e-12
1.78237e-10
3.87751e-11
1.9808e-10
2.52523e-11
3.10509e-10
8.34437e-12
2.92223e-10
-1.3055e-11
3.03755e-12
5.41048e-11
3.76841e-13
2.84637e-12
6.26362e-14
3.41193e-13
3.69283e-14
3.6647e-14
2.55362e-14
1.53389e-14
1.1401e-13
1.88653e-14
9.44438e-13
6.05493e-14
1.05398e-12
2.92802e-13
4.16038e-13
3.04467e-13
2.4932e-13
7.86559e-14
1.64332e-12
7.38712e-14
5.61612e-11
2.65056e-12
5.12139e-10
1.78337e-11
3.96949e-09
5.06055e-11
5.54878e-08
3.82833e-09
5.93074e-08
-3.61467e-08
-1.6402e-07
7.96548e-09
-1.94798e-13
1.02435e-13
5.2397e-12
5.50658e-13
2.4227e-11
4.66815e-12
3.41545e-11
2.92938e-12
3.36913e-11
8.27108e-13
1.72918e-11
-6.96606e-13
2.10669e-11
-1.10403e-12
-6.35422e-14
2.64279e-12
3.823e-14
1.36516e-13
2.30004e-14
2.34665e-14
2.23042e-14
1.46996e-14
3.24734e-14
1.86747e-14
5.57062e-14
1.16632e-14
1.27469e-13
6.80012e-15
1.67448e-13
2.48512e-14
7.40311e-14
4.58742e-14
1.14571e-13
1.1262e-14
2.66473e-12
9.0328e-14
2.06879e-11
6.07259e-13
7.25299e-11
-2.16791e-13
3.92085e-09
8.0897e-12
1.13659e-07
-1.02678e-12
-3.18701e-08
4.20591e-08
-3.66749e-14
5.62033e-14
2.17478e-13
1.10274e-13
2.42763e-12
5.4051e-13
3.47686e-12
3.58597e-13
3.1778e-12
4.44016e-14
2.04284e-12
-3.37486e-14
7.39495e-13
-2.09739e-14
7.18162e-13
-8.45685e-14
5.12205e-14
1.14919e-13
1.90541e-14
1.5353e-14
1.85601e-14
1.18252e-14
2.18966e-14
1.30224e-14
1.82719e-14
9.30945e-15
1.81784e-14
7.0405e-15
3.29586e-14
7.86428e-15
3.81299e-14
1.32458e-14
1.83013e-14
8.49857e-15
1.05258e-13
2.21411e-15
7.30526e-13
1.94737e-14
5.59764e-13
-4.0686e-15
9.19344e-12
2.62635e-13
8.18951e-12
9.97161e-14
-1.31403e-09
1.41304e-07
-6.86107e-15
2.46898e-14
9.23931e-15
3.81268e-14
2.30393e-13
8.3297e-14
3.34931e-13
6.45734e-14
2.56109e-13
1.39422e-15
1.34338e-13
2.37105e-14
6.24783e-14
1.72282e-14
4.12805e-14
8.49302e-15
3.59973e-14
1.12846e-14
1.05986e-14
6.21992e-15
1.02263e-14
5.1386e-15
1.19209e-14
5.66088e-15
1.05221e-14
5.3144e-15
9.85055e-15
4.44006e-15
1.12297e-14
3.76663e-15
1.54221e-14
4.96774e-15
1.03108e-14
5.03987e-15
7.08294e-15
2.18482e-15
2.54676e-14
7.85599e-16
2.19002e-14
5.8197e-16
3.01277e-13
1.46884e-15
4.04604e-13
5.80898e-16
-1.63777e-15
6.14594e-09
-5.31921e-16
6.70478e-15
3.4893e-15
2.47767e-14
2.58113e-14
2.84481e-14
3.66615e-14
2.58733e-14
3.18385e-14
2.22678e-14
2.51818e-14
1.89707e-14
1.3704e-14
1.13106e-14
7.47707e-15
4.30049e-15
4.69336e-15
1.66212e-15
3.19172e-15
1.17774e-15
3.33547e-15
1.26893e-15
4.3372e-15
1.51457e-15
4.55044e-15
1.75881e-15
4.40474e-15
1.71253e-15
4.47456e-15
1.49563e-15
6.20881e-15
1.65465e-15
6.61956e-15
2.01683e-15
3.68712e-15
1.63072e-15
2.16338e-15
6.04508e-16
2.18069e-15
3.79202e-16
4.02805e-15
2.3932e-16
4.78094e-15
1.75325e-16
-1.10161e-16
2.77809e-15
1.30952e-16
1.22941e-15
2.12932e-15
9.93295e-15
5.75573e-15
1.16621e-14
8.04873e-15
1.05856e-14
8.93489e-15
1.00305e-14
7.18624e-15
6.3917e-15
3.44094e-15
3.01281e-15
1.23852e-15
8.72022e-16
7.71344e-16
2.90316e-16
7.4284e-16
2.78432e-16
9.22988e-16
3.32496e-16
1.21977e-15
4.00341e-16
1.40641e-15
4.48172e-16
1.45809e-15
4.47656e-16
1.47284e-15
4.04274e-16
1.80758e-15
3.65781e-16
2.50439e-15
5.59345e-16
2.35742e-15
6.016e-16
1.62933e-15
4.30699e-16
1.64463e-15
2.71132e-16
1.76996e-15
1.38235e-16
2.86175e-15
-2.93864e-19
-1.95438e-16
2.40917e-15
3.80949e-17
1.89691e-16
7.87859e-16
1.98127e-15
1.56759e-15
2.65151e-15
2.01603e-15
2.35003e-15
2.02206e-15
1.83732e-15
1.32368e-15
1.03725e-15
5.47048e-16
4.06198e-16
1.94269e-16
1.27292e-16
1.4871e-16
5.0736e-17
1.71386e-16
5.96549e-17
2.69474e-16
9.42786e-17
3.32732e-16
1.15051e-16
3.51213e-16
1.08599e-16
3.61267e-16
9.49377e-17
3.50945e-16
7.8144e-17
3.63038e-16
6.48667e-17
7.27652e-16
9.86937e-17
1.00306e-15
1.82199e-16
1.06732e-15
2.06276e-16
1.17321e-15
1.9938e-16
1.44179e-15
1.02286e-16
2.19891e-15
-5.85689e-17
-2.48828e-16
1.65888e-15
6.4426e-18
2.73127e-17
1.57144e-16
2.65855e-16
2.84653e-16
3.43675e-16
3.39118e-16
2.96117e-16
3.05052e-16
2.21685e-16
1.72809e-16
1.18299e-16
6.81351e-17
4.55275e-17
2.77342e-17
1.57488e-17
2.32389e-17
7.70537e-18
3.41055e-17
9.57185e-18
6.80882e-17
1.99607e-17
7.90011e-17
2.63928e-17
8.00002e-17
2.27093e-17
7.18466e-17
1.80005e-17
6.33574e-17
1.24252e-17
6.46423e-17
1.0158e-17
1.56397e-16
1.82835e-17
3.47779e-16
3.90158e-17
6.78057e-16
9.34007e-17
1.55194e-15
2.14428e-16
2.52467e-15
2.10028e-16
2.53571e-15
-5.408e-17
-2.51698e-16
1.61082e-15
9.11585e-19
3.64371e-18
2.17708e-17
3.17361e-17
3.71424e-17
3.66881e-17
4.11954e-17
3.06092e-17
3.51299e-17
2.26228e-17
1.92343e-17
1.22921e-17
7.71597e-18
4.90432e-18
3.5059e-18
1.78151e-18
3.13071e-18
9.79462e-19
4.97619e-18
1.17513e-18
1.20943e-17
2.59722e-18
1.49978e-17
4.05222e-18
1.47445e-17
3.63355e-18
1.2417e-17
2.85868e-18
9.93832e-18
1.80243e-18
1.01223e-17
1.42557e-18
3.35787e-17
3.3725e-18
9.02146e-17
7.54461e-18
4.1672e-16
4.49156e-17
1.95138e-15
2.48432e-16
2.43714e-15
2.1114e-16
2.50893e-15
-1.40567e-17
-1.34869e-16
1.50485e-15
1.17074e-19
4.46491e-19
2.53715e-18
3.64542e-18
4.08366e-18
3.69515e-18
4.29871e-18
3.03165e-18
3.60488e-18
2.23723e-18
1.97229e-18
1.22654e-18
8.07274e-19
4.95887e-19
3.98543e-19
1.86948e-19
3.72265e-19
1.11398e-19
5.71987e-19
1.26392e-19
1.48116e-18
2.49394e-19
2.09145e-18
4.54271e-19
2.16894e-18
4.42872e-19
1.85023e-18
3.68792e-19
1.35244e-18
2.40061e-19
1.33429e-18
1.63101e-19
5.35769e-18
3.76176e-19
1.58685e-17
8.7241e-19
1.89175e-16
1.48835e-17
1.07104e-15
8.6028e-17
1.39558e-15
8.50541e-17
1.168e-15
4.09888e-19
-1.62583e-17
4.70337e-16
1.38538e-20
5.07095e-20
2.63697e-19
3.90067e-19
4.07053e-19
3.52453e-19
4.14069e-19
2.87102e-19
3.43393e-19
2.10532e-19
1.87068e-19
1.14509e-19
7.80752e-20
4.64201e-20
4.1879e-20
1.82801e-20
4.06311e-20
1.1933e-20
6.05207e-20
1.35703e-20
1.48559e-19
2.3967e-20
2.43426e-19
4.43667e-20
2.56752e-19
4.72766e-20
2.29622e-19
4.01769e-20
1.62672e-19
2.81756e-20
1.41613e-19
1.53237e-20
4.15953e-19
1.81697e-20
1.35539e-18
3.95616e-20
3.34587e-17
1.09419e-18
1.89842e-16
6.55597e-18
2.16437e-16
4.39414e-18
1.3811e-16
3.4507e-19
-6.05495e-19
4.65837e-17
1.51749e-21
5.39061e-21
2.48836e-20
3.85381e-20
3.70384e-20
3.14205e-20
3.71279e-20
2.54121e-20
3.04419e-20
1.85102e-20
1.64546e-20
9.95892e-21
7.0217e-21
4.04696e-21
4.13705e-21
1.67453e-21
4.16523e-21
1.21541e-21
6.41965e-21
1.46693e-21
1.45606e-20
2.4929e-21
2.49289e-20
4.32137e-21
2.68781e-20
4.71375e-21
2.44682e-20
3.98175e-21
1.76637e-20
2.85325e-21
1.305e-20
1.41946e-21
1.55358e-20
7.35992e-22
5.10729e-20
1.00154e-21
1.12565e-18
8.36572e-21
6.5237e-18
5.25389e-20
7.08974e-18
4.24342e-20
4.63546e-18
8.05361e-21
-1.71051e-20
2.56324e-18
1.54803e-22
5.39758e-22
2.34871e-21
3.5332e-21
2.9831e-21
2.63858e-21
3.08436e-21
2.09907e-21
2.52185e-21
1.52424e-21
1.35064e-21
8.12225e-22
5.90822e-22
3.31008e-22
3.86717e-22
1.44644e-22
4.02787e-22
1.16988e-22
6.72983e-22
1.52761e-22
1.44128e-21
2.59857e-22
2.39666e-21
4.24725e-22
2.59618e-21
4.46329e-22
2.34328e-21
3.71153e-22
1.70279e-21
2.60029e-22
9.47052e-22
1.36402e-22
7.73179e-22
5.00542e-23
1.34869e-21
3.91024e-23
8.63507e-21
4.42391e-23
6.88978e-20
2.66173e-22
1.16204e-19
5.47035e-22
1.20253e-19
2.56578e-22
-4.5592e-22
1.12754e-19
1.48127e-23
5.11617e-23
2.06241e-22
3.03465e-22
2.30561e-22
2.09214e-22
2.39609e-22
1.63645e-22
1.95898e-22
1.18353e-22
1.03997e-22
6.2484e-23
4.67796e-23
2.55525e-23
3.42733e-23
1.18657e-23
3.66367e-23
1.05914e-23
6.72445e-23
1.49262e-23
1.38843e-22
2.55016e-23
2.19248e-22
4.05619e-23
2.34304e-22
3.98922e-23
2.07007e-22
3.26176e-23
1.4712e-22
2.20222e-23
7.8189e-23
1.13896e-23
5.24656e-23
4.38704e-24
5.06115e-23
2.62318e-24
9.36543e-23
1.02914e-24
9.69489e-22
6.13458e-24
2.9195e-21
1.85899e-23
3.73495e-21
1.25081e-23
-2.07395e-23
4.32665e-21
1.33858e-24
4.60903e-24
1.69233e-23
2.45901e-23
1.69255e-23
1.57412e-23
1.75365e-23
1.21162e-23
1.43303e-23
8.71536e-24
7.54352e-24
4.55631e-24
3.50509e-24
1.8716e-24
2.85625e-24
9.3064e-25
3.15792e-24
9.03683e-25
6.2871e-24
1.36493e-24
1.26213e-23
2.32484e-24
1.8805e-23
3.63161e-24
1.97779e-23
3.35843e-24
1.69973e-23
2.6922e-24
1.15279e-23
1.72159e-24
5.80153e-24
7.93558e-25
3.38899e-24
3.03879e-25
2.78917e-24
1.82948e-25
1.95722e-24
1.04049e-25
2.64195e-23
3.09829e-25
8.94074e-23
7.46584e-25
1.52377e-22
9.33682e-25
-2.62735e-24
3.95503e-22
1.14876e-25
3.9474e-25
1.3066e-24
1.89151e-24
1.18006e-24
1.12842e-24
1.21612e-24
8.56102e-25
9.91494e-25
6.11722e-25
5.17541e-25
3.16417e-25
2.49871e-25
1.3074e-25
2.21805e-25
7.01619e-26
2.60049e-25
7.3225e-26
5.48782e-25
1.17745e-25
1.07113e-24
1.98766e-25
1.50009e-24
2.99804e-25
1.56913e-24
2.68372e-25
1.29291e-24
2.0784e-25
7.89423e-25
1.11133e-25
3.23825e-25
3.65393e-26
1.77874e-25
1.08873e-26
1.57311e-25
6.50186e-27
1.50168e-25
7.73258e-27
9.74741e-25
1.56023e-26
3.43001e-24
4.12434e-26
1.28159e-23
1.81026e-25
-2.01679e-25
1.09655e-22
9.3658e-27
3.14867e-26
9.54715e-26
1.38774e-25
7.83254e-26
7.73337e-26
8.02579e-26
5.79487e-26
6.51556e-26
4.11067e-26
3.37199e-26
2.1023e-26
1.70385e-26
8.75597e-27
1.59748e-26
5.10342e-27
2.06898e-26
5.68879e-27
4.49906e-26
9.67179e-27
8.49971e-26
1.61134e-26
1.14671e-25
2.30526e-26
1.15603e-25
2.03968e-26
8.86351e-26
1.44153e-26
3.26365e-26
4.03092e-27
7.57578e-27
1.68277e-26
3.27887e-27
4.72175e-27
2.97712e-27
2.34513e-27
8.72497e-27
2.21838e-27
4.10515e-26
6.23045e-28
2.135e-25
4.34777e-27
2.47908e-24
5.52481e-26
1.22997e-25
3.5223e-23
7.00738e-28
1.97785e-27
6.62737e-27
9.68449e-27
4.95702e-27
5.04787e-27
5.05597e-27
3.75755e-27
4.08242e-27
2.65268e-27
2.09463e-27
1.3419e-27
1.11582e-27
5.65041e-28
1.08829e-27
3.58871e-28
1.5758e-27
4.28433e-28
3.48229e-27
7.61048e-28
6.35021e-27
1.2477e-27
8.25715e-27
1.68608e-27
8.00906e-27
1.46612e-27
4.75223e-27
8.41664e-28
2.01261e-27
1.92593e-27
-4.85164e-27
-4.01882e-27
-5.92073e-27
-4.18422e-27
-2.01371e-27
-1.18835e-27
1.92466e-28
1.22035e-29
1.42864e-27
3.15989e-28
2.25951e-26
6.26755e-28
5.1549e-25
1.27217e-26
5.04163e-26
8.0015e-24
3.48408e-29
7.05392e-29
4.33266e-28
6.02499e-28
2.96915e-28
2.95864e-28
3.0385e-28
2.27547e-28
2.44863e-28
1.63483e-28
1.2453e-28
8.24976e-29
7.04803e-29
3.52967e-29
7.13371e-29
2.45147e-29
1.14699e-28
3.14043e-29
2.55858e-28
5.76877e-29
4.49182e-28
9.27715e-29
5.61944e-28
1.18181e-28
5.21841e-28
1.004e-28
4.17537e-28
4.7793e-29
-5.10103e-27
-5.29193e-27
-1.09823e-26
-9.89038e-27
-9.05589e-27
-6.98367e-27
-4.2571e-27
-2.75494e-27
-1.24601e-27
-6.56252e-28
-1.07525e-28
-4.38943e-29
2.65968e-27
5.48928e-29
7.47342e-26
1.61795e-27
7.62654e-27
1.10563e-24
1.19775e-30
5.18167e-29
2.3577e-29
2.71487e-29
1.57133e-29
1.23053e-29
1.71343e-29
1.03143e-29
1.41513e-29
8.91947e-30
7.13135e-30
4.80606e-30
4.31027e-30
2.13539e-30
4.51075e-30
1.63239e-30
8.02069e-30
2.25031e-30
1.79215e-29
4.23445e-30
3.01814e-29
6.65651e-30
3.63119e-29
7.96706e-30
3.21408e-29
6.59127e-30
2.34691e-29
3.00268e-30
-4.41879e-27
-5.01128e-27
-7.44649e-27
-7.35278e-27
-5.7636e-27
-4.89205e-27
-2.7927e-27
-1.99923e-27
-9.28821e-28
-5.44908e-28
-2.10146e-28
-9.6528e-29
2.64002e-28
1.34745e-29
7.52681e-27
1.55126e-28
8.65193e-28
1.04869e-25
-6.68712e-30
-1.61986e-28
7.1064e-31
1.66928e-29
4.97525e-31
8.17749e-30
5.85942e-31
2.93701e-30
7.77117e-31
3.25162e-31
4.00719e-31
2.20192e-31
2.55372e-31
1.19779e-31
2.74997e-31
1.06011e-31
5.41427e-31
1.58898e-31
1.20012e-30
3.02804e-31
1.92863e-30
4.63424e-31
2.23193e-30
5.18854e-31
1.87434e-30
4.16807e-31
1.30304e-30
1.81094e-31
-2.24017e-27
-2.81188e-27
-3.4183e-27
-3.74948e-27
-2.51266e-27
-2.38041e-27
-1.18833e-27
-9.55453e-28
-3.98861e-28
-2.65041e-28
-9.87593e-29
-5.20039e-29
-7.02437e-30
-2.72605e-30
6.94905e-28
1.84712e-29
1.27574e-28
9.82044e-27
-6.48727e-30
-1.61883e-28
-6.6337e-31
-9.05674e-30
-3.56364e-31