/*--------------------------------*- C++ -*----------------------------------*\
| =========                 |                                                 |
| \\      /  F ield         | OpenFOAM: The Open Source CFD Toolbox           |
|  \\    /   O peration     | Version:  5.x                                   |
|   \\  /    A nd           | Web:      www.OpenFOAM.org                      |
|    \\/     M anipulation  |                                                 |
\*---------------------------------------------------------------------------*/
FoamFile
{
    version     2.0;
    format      ascii;
    class       volScalarField;
    location    "0.85";
    object      p;
}
// * * * * * * * * * * * * * * * * * * * * * * * * * * * * * * * * * * * * * //

dimensions      [1 -1 -2 0 0 0 0];

internalField   nonuniform List<scalar> 
2268
(
1043.91
1034.97
1018.75
997.559
976.92
959.82
945.325
930.41
914.549
897.704
879.147
858.464
835.913
812.705
790.061
767.623
747.409
730.756
720.329
719.595
727.977
736.372
737.326
987.134
977.298
959.68
936.826
915.061
899.14
886.015
871.433
855.799
839.161
820.704
799.965
777.234
753.744
731.244
711.783
692.319
671.738
656.671
657.369
666.113
673.226
676.082
927.753
917.065
898.806
875.021
852.988
838.064
826.126
812.301
797.123
780.884
762.604
741.714
718.559
694.492
672.277
653.482
634.493
612.384
597.769
599.146
606.803
611.097
614.372
866.473
855.17
836.776
812.243
789.511
775.76
765.858
753.213
738.669
722.993
704.941
683.761
659.86
634.736
611.337
591.93
573.892
554.157
541.358
541.564
547.434
549.431
552.599
804.516
792.571
774.262
749.299
726.109
714.012
706.312
694.604
680.567
665.521
647.688
626.028
601.021
574.34
549.282
528.961
511.715
495.769
484.821
482.701
486.971
487.667
490.987
743.124
730.018
712.09
687.783
664.75
654.333
647.813
636.412
622.82
608.57
591.028
568.732
542.224
513.328
486.027
464.942
448.418
434.53
424.937
422.291
425.43
426.12
429.779
683.346
667.992
651.041
629.147
606.604
596.444
589.27
577.773
565.279
552.322
535.01
511.621
483.055
451.129
420.937
399.557
383.972
371.724
363.558
360.961
363.876
364.763
369.224
626.909
607.029
591.875
574.634
552.059
541.293
532.752
519.336
507.923
496.489
478.664
453.668
422.598
386.457
352.081
331.733
318.256
307.914
301.405
299.296
302.47
304.303
309.788
781.302
701.871
666.708
709.38
648.82
552.012
534.395
468.909
381.237
360.998
348.237
335.22
324.489
357.653
432.984
566.547
671.264
720.38
835.183
727.634
629.695
583.718
636.322
569.843
483.929
474.365
398.716
314.467
315.537
308.501
277.644
267.788
293.582
365.902
500.272
625.632
670.582
797.761
659.606
551.416
504.959
565.703
482.826
410.436
412.002
325.907
295.876
296.832
274.561
217.222
207.833
243.125
291.763
411.392
557.519
589.516
725.957
586.776
481.058
445.945
502.638
402.578
348.034
346.515
291.384
281.077
269.79
221.861
173.484
166.851
181.218
222.206
319.845
483.272
529.721
660.912
516.834
423.242
403.779
443.638
343.933
305.721
301.213
277.334
264.625
232.894
178.361
166.552
162.101
163.803
174.27
243.395
428.211
572.584
641.225
454.976
375.213
375.005
399.913
316.49
279.898
280.33
267.077
246.137
190.537
173.502
165.28
160.705
162.396
165.295
183.071
406.616
635.719
657.672
403.808
336.705
359.161
384.049
308.726
257.862
262.861
252.155
223.494
186.734
173.631
164.27
158.763
161.238
164.181
170.19
405.561
693.103
680.999
359.443
316.475
352.865
387.114
308.258
250.462
251.111
235.826
201.635
187.886
174.052
163.161
156.95
159.448
162.767
172.761
426.037
745.803
677.432
542.86
513.32
502.433
499.94
477.782
450.233
433.319
421.492
417.548
411.452
393.384
365.507
330.526
285.961
240.08
222.161
212.76
205.428
202.171
201.469
205.55
209.909
218.921
431.654
392.169
386.013
398.64
375.223
336.431
300.654
274.558
289.661
318.687
313.5
284.202
249.25
190.239
119.383
88.3112
88.8226
89.598
90.5954
91.7252
93.0458
92.5785
93.2483
472.748
361.062
315.336
283.165
237.135
202.791
190.485
201.749
222.171
230.031
224.781
214.673
185.625
119.092
55.8319
51.1239
52.2627
53.6921
54.3988
54.9161
55.2452
55.2282
54.7062
439.944
300.414
189.994
143.039
115.825
107.179
106.323
127.98
151.357
164.243
168.161
169.922
146.347
89.7944
52.6674
50.6663
51.1465
52.3827
53.6227
54.529
54.9757
55.0025
54.838
185.383
79.7846
16.4787
8.83604
12.1157
8.90097
8.70906
9.78126
21.7996
51.7823
76.4093
91.9323
86.9778
62.4938
52.0229
51.6375
51.3978
52.1531
53.3185
54.3107
54.7592
54.5877
53.9505
27.8255
10.8286
1.0868
-1.97461
-4.06864
-4.29278
-4.01384
-3.85035
-2.56457
2.14237
9.71826
19.639
30.6459
30.4477
35.4078
51.3851
51.6196
51.858
52.643
54.3285
55.1049
54.0973
53.3024
6.06352
-0.124733
-2.89338
-3.92011
-4.2989
-4.20153
-4.08162
-3.96437
-3.785
-3.62938
-3.28872
-2.17842
1.39094
7.80942
17.2799
34.1138
50.1595
51.2859
50.8974
49.9982
40.5029
36.5551
50.4173
-2.63854
-4.74526
-5.03925
-5.26745
-5.18407
-4.91839
-4.57514
-4.27084
-4.04618
-3.87292
-3.65484
-3.38036
-3.19321
-1.79738
3.62287
20.3102
41.9798
45.4614
44.1004
38.9606
29.6567
26.3716
27.1528
-4.06327
-8.3253
-7.46439
-6.85699
-6.0936
-5.45659
-4.94523
-4.54448
-4.23457
-3.98804
-3.77268
-3.58023
-3.40562
-3.45282
-3.14497
2.22698
7.46269
20.3572
18.7159
6.99487
15.4309
25.9336
38.182
-4.06532
-10.2216
-9.59321
-8.30465
-6.90628
-5.8848
-5.16254
-4.65764
-4.31174
-4.04688
-3.81558
-3.63476
-3.47975
-3.33515
-3.26354
-3.49558
-3.29803
-0.674377
10.6956
11.3593
11.5372
14.4796
9.05985
-3.79527
-8.62183
-10.0636
-8.66265
-7.13802
-6.02925
-5.24528
-4.69216
-4.3159
-4.04203
-3.82464
-3.64581
-3.51645
-3.4226
-3.37804
-3.37805
-3.42619
-3.54703
-3.75753
-3.86179
-3.7306
-3.50143
-3.39692
-3.36515
-5.8567
-8.15657
-7.80295
-6.69693
-5.816
-5.13649
-4.60994
-4.26556
-4.00848
-3.82055
-3.67733
-3.5754
-3.52094
-3.52588
-3.57056
-3.67017
-3.88378
-4.10444
-4.15816
-4.00953
-3.76717
-3.43443
-3.15284
-4.08375
-5.77473
-6.25269
-5.87195
-5.36247
-4.87632
-4.44607
-4.13881
-3.93493
-3.79731
-3.70192
-3.64298
-3.62616
-3.66361
-3.74927
-3.90501
-4.1503
-4.41335
-4.55971
-4.46601
-4.16947
-3.79672
-3.17774
-3.4022
-4.23765
-4.84739
-4.96784
-4.80698
-4.51915
-4.2092
-3.97458
-3.83502
-3.75538
-3.71111
-3.69727
-3.7191
-3.79155
-3.92245
-4.12799
-4.40611
-4.70654
-4.95625
-4.93235
-4.6049
-4.1263
-3.28869
-3.2425
-3.44017
-3.83467
-4.13483
-4.20882
-4.10196
-3.93323
-3.79093
-3.72467
-3.70344
-3.70587
-3.72993
-3.78191
-3.87456
-4.02098
-4.22759
-4.48214
-4.76136
-4.99204
-4.9342
-4.69423
-4.26031
-3.33889
-3.20472
-3.00009
-3.11629
-3.41388
-3.6197
-3.66574
-3.62546
-3.6086
-3.62105
-3.65289
-3.6939
-3.7458
-3.81545
-3.91236
-4.04731
-4.22422
-4.42402
-4.60496
-4.69931
-4.72751
-4.59562
-4.23107
-3.24943
-3.09
-2.72485
-2.66708
-2.89515
-3.14751
-3.30636
-3.39431
-3.46749
-3.54123
-3.61312
-3.68204
-3.75242
-3.83055
-3.92304
-4.03594
-4.17136
-4.31759
-4.44787
-4.51172
-4.51073
-4.44463
-4.24737
-3.05526
-2.90255
-2.57824
-2.47856
-2.63566
-2.87785
-3.08816
-3.24903
-3.37989
-3.49184
-3.5886
-3.67455
-3.7553
-3.83615
-3.92162
-4.01475
-4.11651
-4.22232
-4.32239
-4.39526
-4.41223
-4.36948
-4.26832
-2.88428
-2.77746
-2.56186
-2.48985
-2.60246
-2.80794
-3.01623
-3.19575
-3.34658
-3.47347
-3.58102
-3.6745
-3.75905
-3.83883
-3.91699
-3.99514
-4.07349
-4.14981
-4.22014
-4.27738
-4.31054
-4.30484
-4.2341
-2.83879
-2.78191
-2.65103
-2.61936
-2.70743
-2.86905
-3.04644
-3.2117
-3.35727
-3.48276
-3.59056
-3.68433
-3.76777
-3.84386
-3.9146
-3.98085
-4.04222
-4.09677
-4.14159
-4.17312
-4.18818
-4.18225
-4.13828
-2.89936
-2.87445
-2.80451
-2.79808
-2.86814
-2.99005
-3.13082
-3.27043
-3.39961
-3.51496
-3.61642
-3.7056
-3.78458
-3.85514
-3.91839
-3.97462
-4.0232
-4.06243
-4.08988
-4.10264
-4.09839
-4.07587
-4.03485
-3.00994
-3.0032
-2.97234
-2.98066
-3.03719
-3.12928
-3.23914
-3.35337
-3.4636
-3.5654
-3.65713
-3.73886
-3.81133
-3.87531
-3.93124
-3.97903
-4.01804
-4.04698
-4.06408
-4.06706
-4.05367
-4.02057
-3.98029
-3.14287
-3.14129
-3.13388
-3.15115
-3.1986
-3.27033
-3.35693
-3.44976
-3.54222
-3.62999
-3.71081
-3.78378
-3.84875
-3.90578
-3.95482
-3.99558
-4.02748
-4.04961
-4.06096
-4.06047
-4.04786
-4.02524
-3.98063
-3.28489
-3.28321
-3.2881
-3.30988
-3.35096
-3.40867
-3.47807
-3.55376
-3.63081
-3.70551
-3.7755
-3.83948
-3.89675
-3.94692
-3.98965
-4.02453
-4.05107
-4.06864
-4.07668
-4.07473
-4.06258
-4.03933
-4.00375
-3.42866
-3.42734
-3.43746
-3.46033
-3.4962
-3.54367
-3.60017
-3.66227
-3.72637
-3.78947
-3.84942
-3.90479
-3.95464
-3.99833
-4.03536
-4.06529
-4.08765
-4.102
-4.10797
-4.10528
-4.09373
-4.07306
-4.04422
-3.57187
-3.57137
-3.58313
-3.60507
-3.63624
-3.67581
-3.72235
-3.77361
-3.82696
-3.88005
-3.93102
-3.97849
-4.02147
-4.05921
-4.09116
-4.11682
-4.1358
-4.14776
-4.15242
-4.14964
-4.13929
-4.12097
-4.09809
-3.7138
-3.71397
-3.72568
-3.74568
-3.77257
-3.80575
-3.84439
-3.88689
-3.93134
-3.9759
-4.01901
-4.05943
-4.09621
-4.1286
-4.15601
-4.17799
-4.19418
-4.20429
-4.20816
-4.2058
-4.19742
-4.18375
-4.16305
-3.85399
-3.85459
-3.86548
-3.88317
-3.90617
-3.93406
-3.96626
-4.00161
-4.03867
-4.07599
-4.11231
-4.14654
-4.17783
-4.20546
-4.22889
-4.24767
-4.26149
-4.27013
-4.27347
-4.27156
-4.26457
-4.2528
-4.23596
-3.99226
-3.99307
-4.00284
-4.01818
-4.03772
-4.06113
-4.08801
-4.11745
-4.14833
-4.17954
-4.21002
-4.23889
-4.26537
-4.28882
-4.30875
-4.32476
-4.33655
-4.34394
-4.34686
-4.34534
-4.33952
-4.32961
-4.31576
-4.12858
-4.12948
-4.13805
-4.15116
-4.16764
-4.18726
-4.20967
-4.23417
-4.25988
-4.28591
-4.31142
-4.33565
-4.35795
-4.37777
-4.39463
-4.40821
-4.41824
-4.42456
-4.42712
-4.42593
-4.42111
-4.41286
-4.40141
-4.26306
-4.26395
-4.27134
-4.28244
-4.29625
-4.31262
-4.33126
-4.35161
-4.37296
-4.39461
-4.41588
-4.43614
-4.45483
-4.47147
-4.48567
-4.49713
-4.50561
-4.511
-4.51321
-4.51229
-4.50833
-4.50148
-4.49199
-4.39581
-4.39666
-4.40295
-4.41225
-4.42376
-4.43735
-4.4528
-4.46964
-4.48731
-4.50525
-4.5229
-4.53975
-4.55532
-4.56922
-4.5811
-4.59071
-4.59785
-4.60239
-4.60429
-4.60357
-4.60031
-4.59464
-4.58673
-4.52701
-4.5278
-4.53308
-4.54081
-4.55033
-4.56154
-4.57428
-4.58816
-4.60271
-4.6175
-4.63207
-4.64599
-4.65889
-4.67041
-4.68028
-4.68827
-4.69422
-4.69802
-4.69962
-4.69904
-4.69636
-4.69167
-4.68516
-4.65682
-4.65754
-4.66193
-4.6683
-4.6761
-4.68529
-4.69572
-4.70707
-4.71899
-4.73109
-4.74303
-4.75445
-4.76503
-4.77451
-4.78263
-4.78922
-4.79412
-4.79724
-4.79856
-4.79807
-4.79585
-4.79198
-4.78661
-4.78543
-4.78608
-4.78966
-4.79487
-4.8012
-4.80866
-4.81713
-4.82633
-4.83599
-4.84581
-4.85549
-4.86476
-4.87336
-4.88107
-4.88767
-4.89302
-4.897
-4.89952
-4.90056
-4.90013
-4.89827
-4.89505
-4.89059
-4.91304
-4.91358
-4.91648
-4.92069
-4.92575
-4.93173
-4.93851
-4.94588
-4.95361
-4.96146
-4.96921
-4.97664
-4.98353
-4.9897
-4.99498
-4.99926
-5.00241
-5.0044
-5.00518
-5.00476
-5.00318
-5.0005
-4.99681
-5.03982
-5.04022
-5.04254
-5.04589
-5.04987
-5.05457
-5.0599
-5.06569
-5.07176
-5.07792
-5.08401
-5.08984
-5.09525
-5.10008
-5.10422
-5.10754
-5.10998
-5.11149
-5.11203
-5.11162
-5.11028
-5.10806
-5.10504
-5.16595
-5.16618
-5.16801
-5.17061
-5.17364
-5.17724
-5.18132
-5.18574
-5.19037
-5.19508
-5.19972
-5.20417
-5.20828
-5.21196
-5.21509
-5.21759
-5.21941
-5.2205
-5.22084
-5.22044
-5.21931
-5.21752
-5.21512
-5.29156
-5.2916
-5.29302
-5.29497
-5.29717
-5.29981
-5.30279
-5.30601
-5.3094
-5.31283
-5.31622
-5.31945
-5.32245
-5.32511
-5.32737
-5.32916
-5.33044
-5.33119
-5.33137
-5.331
-5.3301
-5.32871
-5.3269
-5.41684
-5.41668
-5.41774
-5.41908
-5.42056
-5.42235
-5.42436
-5.42654
-5.42882
-5.43113
-5.43341
-5.43558
-5.43759
-5.43936
-5.44087
-5.44205
-5.44288
-5.44334
-5.44342
-5.44312
-5.44246
-5.44147
-5.44022
-5.54176
-5.54147
-5.54222
-5.54301
-5.54384
-5.54487
-5.54601
-5.54725
-5.54855
-5.54987
-5.55117
-5.5524
-5.55354
-5.55454
-5.55539
-5.55605
-5.5565
-5.55674
-5.55676
-5.55655
-5.55614
-5.55555
-5.55482
-5.66707
-5.66666
-5.66689
-5.66714
-5.66739
-5.66772
-5.66806
-5.66843
-5.66881
-5.6692
-5.66958
-5.66993
-5.67026
-5.67054
-5.67078
-5.67095
-5.67106
-5.67111
-5.67108
-5.67099
-5.67083
-5.67062
-5.67037
237.621
247.2
260.824
260.866
111.54
137.348
158.525
172.881
55.1406
55.0516
54.6574
62.0195
54.506
53.9739
59.0973
57.7113
53.9867
55.2304
64.2015
71.8358
53.3409
53.0754
51.152
48.2913
47.1876
38.6149
27.835
17.5302
17.1607
16.8339
13.7678
4.232
31.3126
21.2587
21.4917
26.5453
0.797373
0.0476245
-0.699841
-1.43977
-2.92769
-2.49638
-2.19969
-1.82218
-3.18687
-3.09079
-3.09868
-3.35951
-3.56892
-3.4705
-3.45836
-3.46932
-3.76396
-3.55172
-3.4033
-3.29407
-3.91752
-3.73035
-3.52889
-3.30428
-3.98506
-3.85681
-3.70543
-3.49462
-4.08117
-3.99432
-3.89322
-3.73039
-4.18062
-4.10679
-4.00817
-3.8806
-4.13082
-4.07074
-4.00782
-3.92079
-4.08461
-4.0359
-3.97547
-3.90909
-3.98968
-3.95282
-3.90826
-3.85664
-3.934
-3.89908
-3.8614
-3.82197
-3.94043
-3.91168
-3.88138
-3.85003
-3.9707
-3.94742
-3.92313
-3.89819
-4.01727
-3.99849
-3.979
-3.95889
-4.07618
-4.06086
-4.04485
-4.02824
-4.1446
-4.13181
-4.11845
-4.10458
-4.22062
-4.20999
-4.19886
-4.18724
-4.30305
-4.29422
-4.28493
-4.27518
-4.39087
-4.38353
-4.37577
-4.3676
-4.48324
-4.47714
-4.47066
-4.46382
-4.57949
-4.57442
-4.56904
-4.56333
-4.67911
-4.6749
-4.67041
-4.66565
-4.78157
-4.77807
-4.77433
-4.77037
-4.88643
-4.88353
-4.88044
-4.87715
-4.99339
-4.99102
-4.98849
-4.9858
-5.10228
-5.10037
-5.09835
-5.0962
-5.21296
-5.21149
-5.20993
-5.2083
-5.32531
-5.32423
-5.32311
-5.32196
-5.43916
-5.43844
-5.43772
-5.43699
-5.55423
-5.55384
-5.55343
-5.55307
-5.67018
-5.67006
-5.67
-5.67
293.461
296.874
336.669
374.036
281.971
244.207
233.655
218.912
189.718
182.745
168.01
156.847
154.758
155.842
156.713
161.247
371.901
623.311
634.904
196.141
208.105
245.537
273.515
195.6
198.187
196.902
180.325
157.979
142.673
132.086
140.888
156.36
144.072
127.287
100.063
183.134
323.987
434.221
92.2233
83.989
125.983
182.195
166.519
162.424
161.037
140.151
119.628
94.2692
97.5968
115.92
144.72
128.446
98.8995
64.6233
51.7542
60.4586
170.438
52.3549
36.5392
77.6233
136.134
146.68
134.094
126.963
110.744
98.4722
74.1475
71.1149
63.3459
75.9606
110.71
87.6543
52.3736
11.0283
8.76761
27.6511
76.2942
68.8897
93.01
111.921
99.7146
88.553
81.7539
80.9143
83.4526
48.8973
38.5872
24.6422
19.3276
29.4525
19.5682
9.01396
7.36268
6.93667
6.45595
42.3082
48.0451
74.1541
74.3557
43.7936
38.8283
42.2256
66.9188
62.4943
18.0521
5.39501
3.0253
1.62114
1.92438
2.7101
4.1237
6.0392
6.11614
5.95861
-1.61093
-3.7885
30.0537
44.5793
27.1225
19.9127
24.0997
41.3658
28.0529
10.8807
3.67095
1.82771
0.913102
0.680096
1.01091
1.99006
4.3285
5.33931
5.54859
-11.0032
-8.41138
39.9752
48.1375
33.0361
21.5788
22.5169
34.3444
40.1471
8.13887
3.60414
1.60238
0.669529
-0.11445
-0.197182
0.132268
1.89612
4.27249
5.40906
29.6931
53.2482
67.6922
66.1633
45.2543
28.5777
27.2145
28.6457
27.1393
10.1637
3.03915
1.35801
0.0929849
-0.502167
-0.464365
-0.39216
0.22277
1.96244
5.07045
1.23667
25.9785
65.7211
78.1042
45.9107
19.7494
-0.615278
14.4613
13.2508
15.329
-4.80644
-1.81559
-0.520579
-0.690399
-0.533806
-0.363186
-0.106675
-0.962962
2.68041
-0.0528344
4.59217
23.5125
45.6674
43.138
35.6699
29.4331
30.3309
15.4424
3.04864
5.44646
2.07192
-3.87108
-1.75459
-1.00134
-0.649807
-0.570485
-1.38718
-0.243078
-3.81054
-2.80202
3.03648
11.4961
17.8261
17.5847
11.2677
2.19169
-1.33545
-1.52657
-1.80554
-1.76668
-5.32989
-2.9653
-1.6012
-1.11782
-1.07409
-1.11723
-0.881046
-3.37735
-3.15496
-3.46237
-3.67121
-2.3686
-2.24941
-2.58645
-2.35883
-2.02611
-1.91342
-2.10429
-2.7998
-3.02619
-2.76472
-1.8012
-1.43634
-1.58926
-1.21602
-1.06583
-3.12745
-3.07702
-3.16909
-3.15516
-3.00083
-2.92803
-2.83406
-2.55838
-2.31579
-2.21777
-2.27273
-2.58042
-2.65088
-2.33936
-1.75224
-1.51102
-1.63297
-1.34277
-1.15905
-3.02555
-2.97426
-2.97564
-2.93847
-2.93155
-3.01487
-2.99923
-2.79447
-2.57251
-2.41092
-2.33917
-2.35367
-2.22325
-1.86512
-1.57996
-1.44449
-1.48739
-1.32693
-1.17019
-3.13666
-3.06095
-3.02073
-2.97754
-3.01514
-3.07948
-3.04692
-2.87003
-2.67455
-2.5142
-2.40007
-2.30548
-2.14718
-1.8924
-1.61072
-1.48626
-1.44527
-1.32445
-1.20735
-3.34316
-3.19378
-3.142
-3.06071
-3.05981
-3.07345
-3.02537
-2.89505
-2.73793
-2.59702
-2.47746
-2.35904
-2.20768
-2.01201
-1.80174
-1.66024
-1.55557
-1.4255
-1.31816
-3.59194
-3.34878
-3.27425
-3.17159
-3.12779
-3.10418
-3.04526
-2.94139
-2.81627
-2.69413
-2.57769
-2.45629
-2.31662
-2.1586
-1.99432
-1.86085
-1.74238
-1.61112
-1.50856
-3.72944
-3.5
-3.38377
-3.28206
-3.21498
-3.16688
-3.102
-3.01223
-2.90745
-2.79974
-2.69128
-2.57741
-2.45372
-2.32269
-2.18934
-2.07096
-1.95458
-1.83755
-1.76598
-3.77646
-3.58803
-3.4571
-3.36157
-3.29195
-3.23478
-3.17008
-3.09145
-3.00252
-2.90896
-2.81234
-2.71123
-2.60466
-2.49497
-2.3845
-2.28128
-2.17388
-2.06749
-2.01517
-3.76091
-3.62484
-3.5134
-3.43237
-3.36945
-3.31193
-3.24992
-3.1799
-3.10309
-3.02224
-2.9386
-2.8525
-2.76389
-2.67325
-2.58125
-2.49126
-2.39421
-2.29944
-2.24359
-3.7565
-3.66301
-3.57781
-3.50978
-3.45234
-3.3969
-3.33842
-3.27517
-3.20778
-3.13813
-3.06772
-2.99804
-2.92842
-2.85627
-2.78072
-2.70193
-2.61181
-2.53115
-2.48145
-3.79714
-3.72444
-3.65569
-3.59509
-3.54053
-3.4873
-3.43228
-3.37465
-3.31498
-3.25534
-3.19796
-3.14534
-3.09501
-3.04069
-2.98041
-2.90957
-2.82632
-2.74904
-2.71222
-3.85594
-3.79675
-3.73844
-3.68366
-3.63232
-3.58195
-3.53061
-3.47789
-3.42454
-3.37353
-3.32786
-3.29099
-3.25788
-3.21996
-3.17341
-3.1053
-3.02783
-2.9494
-2.93035
-3.92432
-3.87441
-3.82417
-3.77519
-3.7278
-3.68086
-3.6333
-3.58497
-3.53693
-3.49285
-3.45597
-3.4304
-3.40917
-3.38505
-3.34983
-3.28024
-3.20466
-3.14645
-3.13261
-3.99949
-3.95717
-3.91369
-3.87022
-3.82721
-3.78423
-3.74072
-3.69673
-3.6535
-3.61438
-3.58212
-3.5609
-3.54411
-3.52829
-3.4963
-3.4339
-3.36916
-3.33197
-3.31788
-4.0805
-4.04454
-4.00704
-3.9689
-3.93058
-3.89202
-3.85304
-3.81385
-3.77542
-3.73975
-3.70875
-3.68516
-3.66669
-3.64985
-3.61919
-3.57271
-3.5267
-3.50542
-3.49177
-4.16699
-4.13645
-4.10423
-4.0711
-4.03754
-4.00369
-3.96963
-3.9357
-3.90216
-3.86933
-3.83825
-3.8114
-3.78874
-3.76654
-3.73948
-3.71241
-3.6831
-3.66779
-3.65743
-4.25813
-4.23223
-4.2047
-4.17622
-4.14728
-4.11809
-4.0889
-4.06004
-4.03111
-4.00132
-3.97159
-3.94433
-3.91997
-3.89691
-3.87533
-3.8593
-3.83694
-3.82471
-3.81376
-4.35325
-4.33135
-4.30795
-4.28364
-4.25888
-4.23389
-4.2089
-4.18418
-4.15912
-4.1328
-4.10612
-4.08132
-4.05867
-4.0394
-4.02038
-4.00865
-3.9868
-3.98232
-3.96211
-4.45179
-4.43331
-4.41348
-4.39278
-4.37161
-4.35011
-4.32843
-4.30678
-4.2848
-4.26205
-4.23937
-4.2184
-4.19935
-4.18312
-4.16764
-4.15723
-4.1374
-4.14643
-4.10752
-4.55326
-4.53769
-4.52091
-4.5033
-4.48513
-4.46651
-4.44752
-4.42835
-4.40904
-4.3897
-4.37108
-4.35416
-4.33891
-4.32582
-4.31375
-4.3053
-4.29281
-4.30645
-4.27405
-4.65723
-4.64415
-4.62998
-4.61501
-4.59945
-4.58337
-4.56685
-4.55014
-4.53352
-4.51737
-4.50232
-4.48901
-4.47717
-4.46712
-4.45806
-4.45149
-4.44702
-4.45241
-4.46078
-4.76335
-4.75239
-4.74049
-4.72786
-4.71468
-4.70103
-4.68703
-4.67299
-4.65923
-4.6461
-4.63409
-4.6237
-4.61453
-4.60694
-4.60009
-4.59489
-4.5934
-4.5937
-4.61111
-4.87133
-4.86224
-4.85236
-4.84189
-4.831
-4.81977
-4.80838
-4.7971
-4.78619
-4.77586
-4.7665
-4.75844
-4.75135
-4.74559
-4.74034
-4.73624
-4.73503
-4.73237
-4.73816
-4.98105
-4.97364
-4.96565
-4.95726
-4.94861
-4.93978
-4.93096
-4.92233
-4.91403
-4.9062
-4.89913
-4.89307
-4.88775
-4.88346
-4.8795
-4.87649
-4.87527
-4.87293
-4.87526
-5.09243
-5.08662
-5.08044
-5.07406
-5.06759
-5.06107
-5.05463
-5.04838
-5.04239
-5.03678
-5.03179
-5.02753
-5.02383
-5.02085
-5.01807
-5.0161
-5.01499
-5.01353
-5.01463
-5.20545
-5.20116
-5.19672
-5.19225
-5.18782
-5.18341
-5.17912
-5.17501
-5.17113
-5.16759
-5.16452
-5.16195
-5.15977
-5.158
-5.15634
-5.15528
-5.15447
-5.15379
-5.15424
-5.31997
-5.31711
-5.3143
-5.31161
-5.30903
-5.30656
-5.30425
-5.30213
-5.30024
-5.29864
-5.29736
-5.29636
-5.29556
-5.29493
-5.29432
-5.29403
-5.29371
-5.29362
-5.29379
-5.43579
-5.43424
-5.43294
-5.43188
-5.43104
-5.43038
-5.42994
-5.42972
-5.42972
-5.42991
-5.43027
-5.43072
-5.43119
-5.43164
-5.43201
-5.43244
-5.43267
-5.43301
-5.43314
-5.55257
-5.55226
-5.5524
-5.55291
-5.55376
-5.5549
-5.5563
-5.55793
-5.55974
-5.56164
-5.56355
-5.56539
-5.56709
-5.56861
-5.56993
-5.57108
-5.57191
-5.57262
-5.5728
-5.6702
-5.67109
-5.67262
-5.6747
-5.67724
-5.68019
-5.68345
-5.68696
-5.6906
-5.69423
-5.69774
-5.701
-5.70395
-5.70657
-5.70885
-5.71081
-5.71229
-5.71346
-5.71355
)
;

boundaryField
{
    leftWall
    {
        type            calculated;
        value           nonuniform List<scalar> 
50
(
1043.91
987.134
927.753
866.473
804.516
743.124
683.346
626.909
542.86
431.654
472.748
439.944
185.383
27.8255
6.06352
-2.63854
-4.06327
-4.06532
-3.79527
-3.36515
-3.15284
-3.17774
-3.28869
-3.33889
-3.24943
-3.05526
-2.88428
-2.83879
-2.89936
-3.00994
-3.14287
-3.28489
-3.42866
-3.57187
-3.7138
-3.85399
-3.99226
-4.12858
-4.26306
-4.39581
-4.52701
-4.65682
-4.78543
-4.91304
-5.03982
-5.16595
-5.29156
-5.41684
-5.54176
-5.66707
)
;
    }
    rightWall
    {
        type            calculated;
        value           nonuniform List<scalar> 
50
(
835.183
797.761
725.957
660.912
641.225
657.672
680.999
677.432
634.904
434.221
170.438
27.6511
6.45595
5.95861
5.54859
5.40906
5.07045
2.68041
-0.243078
-0.881046
-1.06583
-1.15905
-1.17019
-1.20735
-1.31816
-1.50856
-1.76598
-2.01517
-2.24359
-2.48145
-2.71222
-2.93035
-3.13261
-3.31788
-3.49177
-3.65743
-3.81376
-3.96211
-4.10752
-4.27405
-4.46078
-4.61111
-4.73816
-4.87526
-5.01463
-5.15424
-5.29379
-5.43314
-5.5728
-5.71355
)
;
    }
    lowerWall
    {
        type            calculated;
        value           nonuniform List<scalar> 
62
(
1073.34
1064.4
1048.18
1026.99
1006.35
989.249
974.754
959.84
943.979
927.134
908.577
887.894
865.342
842.134
819.49
796.894
775.126
757.793
749.758
748.988
757.317
765.741
766.747
737.326
676.082
614.372
552.599
490.987
429.779
369.224
309.788
300.218
309.797
323.422
323.464
781.302
727.634
659.606
586.776
516.834
454.976
403.808
359.443
810.202
731.3
696.134
738.809
678.226
581.351
563.824
494.047
407.407
379.51
366.3
357.285
347.925
380.547
459.238
595.952
700.693
747.163
852.935
)
;
    }
    atmosphere
    {
        type            calculated;
        value           nonuniform List<scalar> 
46
(
-5.72904
-5.72904
-5.72904
-5.72904
-5.72904
-5.72904
-5.72904
-5.72904
-5.72904
-5.72904
-5.72904
-5.72904
-5.72904
-5.72904
-5.72904
-5.72904
-5.72904
-5.72904
-5.72904
-5.72904
-5.72904
-5.72904
-5.72904
-5.72904
-5.72904
-5.72904
-5.72912
-5.72958
-5.73097
-5.73315
-5.736
-5.73937
-5.74324
-5.74747
-5.75197
-5.75662
-5.76121
-5.7656
-5.76963
-5.77326
-5.77645
-5.77924
-5.78172
-5.78354
-5.78513
-5.78493
)
;
    }
    defaultFaces
    {
        type            empty;
    }
}


// ************************************************************************* //
