/*--------------------------------*- C++ -*----------------------------------*\
| =========                 |                                                 |
| \\      /  F ield         | OpenFOAM: The Open Source CFD Toolbox           |
|  \\    /   O peration     | Version:  5.x                                   |
|   \\  /    A nd           | Web:      www.OpenFOAM.org                      |
|    \\/     M anipulation  |                                                 |
\*---------------------------------------------------------------------------*/
FoamFile
{
    version     2.0;
    format      ascii;
    class       volScalarField;
    location    "0.85";
    object      p_rgh;
}
// * * * * * * * * * * * * * * * * * * * * * * * * * * * * * * * * * * * * * //

dimensions      [1 -1 -2 0 0 0 0];

internalField   nonuniform List<scalar> 
2268
(
1073.34
1064.4
1048.18
1026.99
1006.35
989.249
974.754
959.84
943.979
927.134
908.577
887.894
865.342
842.134
819.49
796.894
775.126
757.793
749.758
748.988
757.317
765.741
766.747
1075.42
1065.59
1047.97
1025.11
1003.35
987.428
974.303
959.721
944.087
927.449
908.992
888.253
865.522
842.032
819.427
795.526
774.455
755.311
744.957
743.522
751.442
760.805
764.37
1074.9
1064.21
1045.95
1022.17
1000.14
985.211
973.273
959.448
944.27
928.031
909.751
888.861
865.706
841.639
819.419
799.143
776.015
754.073
739.425
740.81
748.514
757.241
761.519
1072.48
1061.18
1042.78
1018.25
995.517
981.766
971.863
959.218
944.674
928.998
910.947
889.766
865.865
840.741
817.342
797.936
779.886
760.01
746.936
747.165
752.064
755.436
758.6
1069.38
1057.43
1039.13
1014.16
990.973
978.876
971.176
959.468
945.431
930.385
912.552
890.892
865.885
839.204
814.146
793.825
776.58
760.633
749.685
747.566
751.835
752.532
755.851
1066.85
1053.74
1035.81
1011.51
988.473
978.056
971.536
960.135
946.543
932.293
914.751
892.455
865.947
837.051
809.749
788.665
772.141
758.253
748.66
746.014
749.153
749.843
753.502
1065.93
1050.57
1033.62
1011.73
989.186
979.022
971.798
960.355
947.86
934.904
917.591
894.203
865.636
833.711
803.519
782.139
766.554
754.306
746.14
743.543
746.458
747.345
751.806
1068.35
1048.47
1033.32
1016.07
993.499
982.32
969.958
960.777
949.363
937.93
920.104
895.107
864.035
827.895
793.521
773.173
759.696
749.354
742.845
740.737
743.911
745.743
751.229
810.202
731.3
696.134
738.809
678.226
581.351
563.824
494.047
407.407
379.51
366.3
357.285
347.925
380.547
459.238
595.952
700.693
747.163
852.935
815.9
717.978
671.185
720.692
658
572.198
562.65
476.177
350.741
330.028
327.556
320.771
328.812
356.12
437.166
587.252
702.271
711.158
844.004
806.752
698.429
635.067
675.34
628.822
557.548
558.921
422.851
317.237
319.795
302.575
285.204
306.914
346.795
397.911
549.758
673.129
656.902
873.078
760.871
683.341
594.381
651.071
606.082
553.961
538.264
346.302
310.983
338.083
290.302
198.123
200.158
289.553
353.191
485.817
660.989
700.887
861.961
758.24
655.623
594.618
684.036
605.888
569.959
502.34
316.075
303.15
320.893
215.388
168.463
164.005
168.783
250.487
428.236
670.015
814.549
868.966
778.039
652.742
608.271
719.656
636.553
597.425
445.861
314.667
299.079
293.909
175.838
167.606
163.031
164.722
173.443
329.554
702.352
931.466
930.682
786.39
702.817
642.603
753.93
686.632
590.912
328.374
308.377
288.108
198.671
176.512
167.019
161.512
163.987
166.978
250.558
755.079
1042.62
1013.16
800.884
757.897
753.214
808.256
740.876
546.363
316.211
300.721
274.82
192.455
177.611
166.35
160.122
162.637
166.262
288.83
799.239
1133.07
937.08
1058.96
1046.79
1035.9
1033.41
1001.96
981.805
966.786
954.959
951.012
944.913
926.822
896.679
856.432
809.949
768.889
755.211
746.207
738.861
735.587
734.888
738.997
743.338
752.38
899.438
817.598
886.544
893.536
815.076
777.125
820.095
856.704
877.734
872.762
762.193
623.483
528.743
458.131
420.883
458.094
479.431
476.554
475.86
479.199
489.193
483.273
504.862
784.766
505.924
466.703
549.65
769.291
736.986
702.139
357.76
313.082
321.468
318.604
275.118
233.235
159.798
69.3257
52.4315
53.5616
54.9909
55.6976
56.215
56.5448
56.5366
56.1098
583.648
470.101
383.297
326.137
289.424
278.022
272.897
294.781
337.9
357.162
361.576
293.759
264.485
190.694
71.1203
52.1726
52.6527
53.8889
55.1289
56.0354
56.4843
56.5338
56.5859
282.377
204.017
79.213
88.7146
210.032
209.969
208.884
208.487
236.923
273.198
298.423
313.946
308.992
284.079
210.069
53.3519
53.1116
53.8667
55.0323
56.0427
56.5014
56.6243
56.3278
62.2098
20.6423
2.79899
-0.703622
-0.971346
-3.07301
-2.78688
-2.62726
2.2411
100.072
213.489
265.109
279.054
274.951
276.864
120.718
53.5415
53.7799
55.3302
59.6752
57.9298
59.3772
57.1218
7.27623
1.55752
-1.53462
-2.63044
-3.01285
-2.85634
-2.70708
-2.6146
-2.46865
-2.32803
-1.88186
-0.012883
108.851
275.338
279.52
284.118
86.1912
53.5293
53.6355
103.568
360.567
422.708
125.727
-1.24467
-3.27368
-3.62467
-3.85726
-3.77423
-3.5053
-3.11411
-2.7831
-2.60457
-2.46221
-2.2414
-1.93778
-1.52605
71.8241
274.279
293.716
307.257
176.115
53.5318
241.744
775.362
775.696
631.699
-2.53026
-6.78038
-5.92898
-5.32196
-4.55857
-3.92156
-3.41008
-3.00695
-2.69554
-2.4526
-2.23764
-2.04501
-1.86943
-1.90778
1.33473
172.894
236.376
243.343
431.401
632.104
828.213
841.799
850.964
-2.40538
-8.34941
-7.91971
-6.64442
-5.24605
-4.22457
-3.50232
-2.99742
-2.65152
-2.38664
-2.15536
-1.97455
-1.81969
-1.67532
-1.60337
-1.83764
-1.63731
63.6933
378.084
414.819
418.633
481.422
345.713
-2.00993
-6.01043
-8.15381
-6.87722
-5.3526
-4.24383
-3.45986
-2.90675
-2.53049
-2.25662
-2.03923
-1.86039
-1.73104
-1.63719
-1.59263
-1.59262
-1.64067
-1.761
-1.96935
-2.06667
-1.92341
-1.67943
-1.55293
-1.44977
-3.1155
-5.84541
-5.88548
-4.78631
-3.90539
-3.22588
-2.69933
-2.35495
-2.09787
-1.90994
-1.76672
-1.6648
-1.61033
-1.61527
-1.6599
-1.75905
-1.94837
-1.99169
-1.98388
-1.91297
-1.79387
-1.45629
-1.11704
-1.7212
-3.30516
-4.14324
-3.83586
-3.32665
-2.84051
-2.41026
-2.103
-1.89912
-1.76151
-1.66611
-1.60716
-1.59035
-1.62779
-1.71345
-1.86895
-2.1108
-1.94743
-0.366128
-0.0197918
-1.37937
-1.51471
-1.01674
-1.22519
-1.93305
-2.57957
-2.80172
-2.64592
-2.35814
-2.0482
-1.81358
-1.67402
-1.59438
-1.5501
-1.53623
-1.55807
-1.63053
-1.76145
-1.95964
-2.09294
-2.28665
-0.810517
-0.162837
0.263164
0.729709
-1.0025
-0.954808
-1.14582
-1.49214
-1.81813
-1.92044
-1.81574
-1.64704
-1.50474
-1.43848
-1.41725
-1.41967
-1.44369
-1.49567
-1.58834
-1.73478
-1.94139
-2.07553
-1.74965
-1.9305
-1.81874
-0.814264
1.22562
-0.927504
-0.793196
-0.586868
-0.701545
-0.980996
-1.19583
-1.25409
-1.21407
-1.19722
-1.20967
-1.2415
-1.28251
-1.33437
-1.40402
-1.50094
-1.63592
-1.81283
-2.00792
-2.05383
-1.85761
-0.0812206
0.232975
0.155871
-0.712854
-0.553412
-0.187884
-0.130102
-0.356904
-0.606348
-0.767845
-0.857718
-0.930907
-1.00465
-1.07654
-1.14546
-1.21583
-1.29394
-1.38644
-1.49936
-1.63478
-1.78101
-1.91114
-1.97504
0.282729
1.86658
2.08825
-0.39348
-0.240768
0.0836013
0.183282
0.0261723
-0.216048
-0.425995
-0.587134
-0.718119
-0.830061
-0.926825
-1.01278
-1.09353
-1.17437
-1.25984
-1.35297
-1.45473
-1.56055
-1.66061
-1.73348
-1.75038
0.41711
3.51643
-0.0973061
0.0095147
0.225124
0.297134
0.184514
-0.0209649
-0.229263
-0.408766
-0.559611
-0.686506
-0.794053
-0.887532
-0.972076
-1.05187
-1.13002
-1.20817
-1.28652
-1.36284
-1.43317
-1.49041
-1.52357
-1.51787
-0.872892
0.0733697
0.13025
0.261133
0.292806
0.204738
0.0431166
-0.13428
-0.299532
-0.445108
-0.570599
-0.678392
-0.772163
-0.85561
-0.931694
-1.00244
-1.06869
-1.13006
-1.1846
-1.22942
-1.26095
-1.27602
-1.27008
-1.12364
0.137999
0.162904
0.23285
0.23928
0.169223
0.0473054
-0.0934601
-0.233074
-0.362255
-0.477607
-0.579062
-0.668241
-0.747223
-0.817782
-0.881034
-0.937261
-0.985846
-1.02507
-1.05252
-1.06528
-1.06103
-1.03852
-0.997495
0.152609
0.159351
0.190212
0.181894
0.125363
0.0332708
-0.0765863
-0.190821
-0.30105
-0.402843
-0.494579
-0.576306
-0.648774
-0.712755
-0.768685
-0.816474
-0.85549
-0.884429
-0.901527
-0.904511
-0.891115
-0.858016
-0.817737
0.144877
0.146456
0.153867
0.136592
0.0891444
0.0174125
-0.0691795
-0.162015
-0.254475
-0.342247
-0.423059
-0.496033
-0.561008
-0.618034
-0.667075
-0.707831
-0.73973
-0.761868
-0.77321
-0.77272
-0.760115
-0.737495
-0.692883
0.128054
0.129732
0.124842
0.10306
0.0619795
0.0042726
-0.0651334
-0.140823
-0.217869
-0.292564
-0.362559
-0.426538
-0.483811
-0.533979
-0.576707
-0.61159
-0.638128
-0.655703
-0.663736
-0.661792
-0.64964
-0.626393
-0.590813
0.10948
0.110799
0.100679
0.0778019
0.0419404
-0.00553073
-0.0620345
-0.124132
-0.188229
-0.251331
-0.311284
-0.366656
-0.416506
-0.460196
-0.497229
-0.527151
-0.549513
-0.563868
-0.569838
-0.567148
-0.555596
-0.534927
-0.506087
0.0914591
0.0919599
0.080201
0.0582622
0.0270877
-0.0124784
-0.0590239
-0.11028
-0.163629
-0.216717
-0.267688
-0.315165
-0.358142
-0.395885
-0.427825
-0.45349
-0.472473
-0.484426
-0.48909
-0.486305
-0.475958
-0.457643
-0.434761
0.0747253
0.0745542
0.0628473
0.0428452
0.0159576
-0.0172289
-0.0558625
-0.0983695
-0.142819
-0.187373
-0.230482
-0.270907
-0.307685
-0.340071
-0.367487
-0.38947
-0.405652
-0.415761
-0.419639
-0.417276
-0.408894
-0.395222
-0.374528
0.0597262
0.0591323
0.04824
0.0305531
0.00754851
-0.0203397
-0.0525377
-0.0878943
-0.124952
-0.162273
-0.198588
-0.232824
-0.264108
-0.291741
-0.315168
-0.333955
-0.347775
-0.356407
-0.359751
-0.357836
-0.350848
-0.339082
-0.322236
0.0466588
0.0458433
0.0360721
0.0207371
0.00119778
-0.0222197
-0.0490913
-0.0785333
-0.109421
-0.140623
-0.17111
-0.199975
-0.226451
-0.249908
-0.269837
-0.285842
-0.297634
-0.305028
-0.30795
-0.306429
-0.300609
-0.290697
-0.276845
0.0355286
0.0346306
0.0260633
0.0129497
-0.00353514
-0.0231493
-0.0455593
-0.0700612
-0.0957717
-0.1218
-0.14731
-0.171544
-0.193846
-0.213657
-0.230526
-0.244103
-0.254132
-0.260456
-0.263009
-0.261819
-0.257005
-0.24875
-0.237304
0.0262477
0.0253528
0.0179616
0.00686737
-0.00695013
-0.0233166
-0.0419606
-0.0623085
-0.0836606
-0.10531
-0.126578
-0.146835
-0.165524
-0.182166
-0.196368
-0.207824
-0.216312
-0.221693
-0.223912
-0.222988
-0.219022
-0.212176
-0.202686
0.0186846
0.017836
0.0115435
0.00224385
-0.00926111
-0.0228515
-0.0383028
-0.0551433
-0.0728161
-0.0907554
-0.108407
-0.125253
-0.140826
-0.154723
-0.166606
-0.176212
-0.183348
-0.187893
-0.189796
-0.189075
-0.185812
-0.180138
-0.172228
0.0126834
0.0118951
0.00660715
-0.00112233
-0.0106341
-0.0218522
-0.0345915
-0.0484632
-0.0630215
-0.0778103
-0.0923782
-0.106301
-0.119193
-0.130717
-0.140588
-0.14858
-0.154527
-0.158325
-0.159928
-0.159351
-0.156665
-0.151983
-0.145467
0.00806836
0.00734501
0.00296087
-0.00341071
-0.011211
-0.0204028
-0.0308355
-0.0421875
-0.0541012
-0.0662076
-0.0781417
-0.0895599
-0.100147
-0.109622
-0.117746
-0.124329
-0.129229
-0.132356
-0.133672
-0.133188
-0.130965
-0.127097
-0.121723
0.00465044
0.00400465
0.000417756
-0.00478882
-0.0111201
-0.0185801
-0.0270462
-0.0362517
-0.0459104
-0.0557263
-0.0654073
-0.0746779
-0.0832808
-0.0909849
-0.0975922
-0.102943
-0.106918
-0.109442
-0.110484
-0.11005
-0.108187
-0.104972
-0.10051
0.00223863
0.00169649
-0.00120291
-0.00541213
-0.0104794
-0.016456
-0.0232382
-0.030606
-0.0383343
-0.046188
-0.0539369
-0.0613612
-0.0682525
-0.0744223
-0.0797085
-0.0839799
-0.0871389
-0.0891227
-0.0899036
-0.0894866
-0.0879083
-0.0852289
-0.0815335
0.000651137
0.000247301
-0.00207049
-0.00542176
-0.00939759
-0.0140989
-0.0194311
-0.0252177
-0.0312861
-0.0374523
-0.0435375
-0.0493677
-0.0547761
-0.0596122
-0.0637463
-0.0670732
-0.0695145
-0.0710188
-0.0715624
-0.0711484
-0.0698068
-0.0675878
-0.0645673
-0.000282328
-0.000514261
-0.00234319
-0.00494785
-0.00797766
-0.0115769
-0.0156524
-0.0200711
-0.0247046
-0.0294112
-0.0340551
-0.0385008
-0.0426188
-0.0462929
-0.0494229
-0.0519273
-0.0537446
-0.0548337
-0.0551753
-0.0547717
-0.0536489
-0.0518518
-0.049452
-0.00070468
-0.000741052
-0.00216162
-0.004107
-0.00631162
-0.00895064
-0.011928
-0.0151549
-0.0185383
-0.0219725
-0.0253583
-0.0285947
-0.0315861
-0.0342477
-0.036506
-0.0383002
-0.0395842
-0.0403262
-0.0405113
-0.0401423
-0.0392427
-0.037853
-0.0360406
-0.000785358
-0.000627514
-0.0016824
-0.00302899
-0.0045072
-0.00630033
-0.00830785
-0.0104855
-0.012767
-0.0150795
-0.0173567
-0.0195291
-0.0215326
-0.0233102
-0.0248116
-0.0259951
-0.0268284
-0.027289
-0.0273667
-0.0270648
-0.0264035
-0.0254183
-0.0241708
-0.000509307
-0.00022171
-0.000970857
-0.00176349
-0.00259115
-0.00362306
-0.00476368
-0.00600668
-0.00730668
-0.00862295
-0.00991828
-0.0111516
-0.012287
-0.0132918
-0.014137
-0.0147979
-0.0152549
-0.0154945
-0.0155104
-0.0153053
-0.0148931
-0.0142986
-0.0135715
-0.000623667
-0.000213629
-0.000447035
-0.000694597
-0.000950275
-0.0012784
-0.00161436
-0.0019879
-0.00237171
-0.00275797
-0.00313549
-0.00349151
-0.00381624
-0.00409966
-0.00433265
-0.00450771
-0.00461902
-0.00466284
-0.00463728
-0.00454365
-0.00438657
-0.00417421
-0.00392548
771.088
780.667
794.292
794.333
599.023
686.201
762.537
812.525
72.6554
218.402
445.904
603.098
58.3133
226.89
716.96
805.274
57.2614
89.1743
528.617
857.426
59.0945
60.404
66.1689
129.211
96.0331
320.486
390.296
360.162
543.712
1096.41
1119.48
1126.46
835.677
571.62
523.079
823.161
34.6898
3.73112
4.40139
34.2671
-1.07917
-0.650054
1.98237
73.8938
-1.21108
-1.13297
-1.16973
-1.44164
-1.48231
-1.41516
-1.41482
-1.42732
-0.780821
-0.908142
-1.13527
-1.12772
1.70776
2.04131
1.65826
-0.786455
0.401881
2.26911
3.21892
3.50261
1.43455
0.802172
1.60423
3.62352
3.55379
2.62872
3.70869
3.84164
3.48635
3.49633
2.72974
3.07865
-1.17245
-1.12108
-1.06331
-0.996922
-0.952318
-0.915459
-0.870904
-0.819277
-0.771443
-0.736527
-0.698851
-0.659405
-0.652684
-0.623937
-0.593634
-0.562284
-0.557758
-0.534479
-0.510185
-0.485251
-0.479132
-0.460358
-0.44086
-0.420759
-0.41285
-0.397527
-0.381522
-0.364914
-0.356076
-0.343284
-0.329929
-0.316053
-0.306904
-0.296273
-0.285145
-0.273525
-0.264135
-0.255304
-0.246017
-0.236271
-0.226765
-0.21942
-0.21166
-0.203489
-0.193939
-0.187833
-0.181359
-0.174521
-0.164988
-0.159925
-0.15454
-0.148832
-0.13942
-0.135205
-0.130719
-0.125958
-0.116688
-0.113182
-0.109447
-0.105481
-0.0963498
-0.0934507
-0.0903584
-0.0870734
-0.0781192
-0.0757438
-0.0732121
-0.0705252
-0.0618094
-0.0599014
-0.0578758
-0.0557344
-0.0472975
-0.0458213
-0.0442664
-0.0426347
-0.0344504
-0.033373
-0.0322551
-0.0310998
-0.0231058
-0.0223861
-0.0216633
-0.0209389
-0.0129779
-0.0125879
-0.0121778
-0.0118214
-0.00373463
-0.0036213
-0.00355602
-0.00356045
826.928
827.605
840.669
882.531
768.883
422.553
311.774
303.875
231.406
190.777
214.442
201.046
158.612
159.871
165.633
379.158
802.772
1094.14
881.919
854.802
865.493
771.847
899.62
656.515
261.028
290.718
332.813
203.075
188.753
347.289
344.506
170.246
151.141
206.518
521.523
739.982
933.131
1092.88
697.606
614.31
656.199
916.683
526.414
220.537
277.054
328.936
198.736
169.347
354.216
374.543
340.173
144.253
136.81
164.044
291.762
339.356
932.566
800.901
778.402
823.326
858.893
343.076
198.302
326.524
332.3
243.181
145.001
362.703
363.274
375.889
267.299
145.06
153.617
61.049
11.2274
325.859
929.693
922.442
946.409
848.999
225.562
159.547
334.349
333.942
307.888
114.887
350.732
365.877
358.798
364.007
222.79
59.1946
8.4025
7.97205
7.49019
682.342
1004.75
1031.03
974.754
210.526
75.1683
275.145
349.499
322.675
36.8071
19.7183
23.8926
20.3693
18.1597
5.51315
5.46268
7.297
7.28406
7.11805
635.021
1056.22
1087.65
1034.14
186.346
59.5972
64.151
156.032
189.907
12.4956
4.9955
3.15243
2.23708
2.00482
2.34354
4.35527
8.74266
6.65923
6.83323
1123.49
1145.12
1093.58
506.21
82.9954
65.0973
66.0125
118.171
469.715
50.9291
5.15139
3.05616
2.12335
1.34142
1.2599
3.10635
7.56128
7.10414
6.81889
1107.41
1290.32
1088.87
275.74
92.6373
75.9398
74.5766
762.529
883.195
294.429
45.0935
3.04245
1.68179
1.08429
1.13664
1.51507
6.3658
11.9328
17.1202
188.696
813.436
1197.65
1025.32
615.965
582.946
861.228
1099.96
1098.77
946.45
426.12
55.6014
1.64578
1.09025
1.20745
1.42177
5.71325
7.7352
40
159.428
258.371
606.939
999.265
1126.08
1122.12
1115.89
1115.62
529.581
132.058
210.681
258.116
123.664
0.95321
0.947465
1.34041
5.71596
1.35482
5.50499
-1.89412
-0.88589
213.544
485.255
649.341
657.148
442.871
145.902
0.576093
0.38492
0.105808
43.6683
82.1715
20.7063
0.525251
0.957108
5.62813
0.858206
1.02956
-1.33793
-1.11837
-1.42534
-1.63174
16.1059
0.730302
-0.549274
-0.321821
0.0107552
0.123328
-0.0679153
-0.763468
24.3528
12.5026
0.52655
0.764028
2.35386
0.962371
0.96997
-0.965618
-0.915374
-1.00726
-0.992827
-0.836927
-0.765297
-0.671294
-0.395774
-0.152734
-0.0552929
-0.111303
-0.419384
-0.489477
1.56445
0.48912
0.823802
0.535359
0.825355
1.00196
-0.644564
-0.687588
-0.684559
-0.644966
-0.641129
-0.726878
-0.710984
-0.501955
-0.277739
-0.1183
-0.052462
-0.0674586
0.0629491
0.421084
0.706282
0.892067
0.807218
0.96031
1.116
2.22625
-0.649318
-0.609115
-0.565268
-0.601157
-0.666198
-0.62998
-0.449595
-0.254108
-0.0937618
0.0139081
0.105921
0.264213
0.519001
0.800675
0.944853
0.97743
1.0883
1.20404
3.97237
-0.656955
-0.60518
-0.523752
-0.520803
-0.536105
-0.483459
-0.348957
-0.191823
-0.0556062
0.0605241
0.177762
0.328909
0.524578
0.734845
0.929469
1.03242
1.19763
1.25319
0.988585
-0.686224
-0.612255
-0.509814
-0.466014
-0.442407
-0.383409
-0.276664
-0.153116
-0.0323555
0.0840822
0.205485
0.345173
0.503185
0.667466
0.827829
1.00459
1.55273
1.63023
0.269146
-0.711676
-0.596707
-0.495084
-0.428012
-0.379915
-0.315029
-0.225257
-0.120485
-0.0127695
0.0956864
0.209558
0.333259
0.464297
0.597635
0.716021
1.05145
1.60915
1.87533
-0.684629
-0.522344
-0.541941
-0.449403
-0.379791
-0.322617
-0.257911
-0.179285
-0.0903597
0.00320926
0.0998296
0.200937
0.307508
0.417208
0.527666
0.63089
1.20179
1.52737
0.898026
-0.723553
-0.587483
-0.476037
-0.395014
-0.33209
-0.274568
-0.212563
-0.142543
-0.0657342
0.0151212
0.0987644
0.184858
0.273471
0.364118
0.456119
0.546107
1.1986
1.43416
0.868503
-0.593835
-0.500346
-0.415208
-0.347224
-0.289784
-0.234346
-0.17587
-0.11262
-0.045224
0.0244263
0.0948382
0.164514
0.234135
0.306294
0.381837
0.475063
1.18127
1.26449
0.708803
-0.509391
-0.43669
-0.367946
-0.307347
-0.252783
-0.199548
-0.144533
-0.086903
-0.0272285
0.0324094
0.0897916
0.142406
0.192745
0.247063
0.307349
0.378189
1.05296
0.632309
0.575524
-0.443003
-0.383807
-0.325497
-0.270716
-0.21938
-0.169012
-0.117666
-0.0649439
-0.0116009
0.0394155
0.085083
0.121953
0.155074
0.192991
0.239537
0.30765
0.515822
0.463539
0.482595
-0.386181
-0.336271
-0.28603
-0.237059
-0.189662
-0.142724
-0.095164
-0.0468309
0.00120209
0.0452905
0.0821631
0.108506
0.128988
0.153093
0.188316
0.263114
0.333476
0.391685
0.405527
-0.336155
-0.293839
-0.25036
-0.206888
-0.163875
-0.120896
-0.07739
-0.0333921
0.00983405
0.0489503
0.0834519
0.113601
0.119811
0.135046
0.167032
0.229433
0.294172
0.331359
0.345447
-0.291973
-0.25602
-0.218513
-0.180372
-0.142055
-0.103497
-0.0645113
-0.0252237
0.0131662
0.0493174
0.0924896
0.116849
0.129668
0.138679
0.169333
0.215819
0.261831
0.283112
0.29675
-0.253267
-0.222728
-0.19051
-0.157377
-0.123817
-0.0899692
-0.0559104
-0.0218399
0.0127986
0.0465627
0.0893975
0.11625
0.138906
0.148249
0.174244
0.201312
0.230628
0.245932
0.256294
-0.219214
-0.193312
-0.165789
-0.137307
-0.108361
-0.0791779
-0.0499853
-0.0211158
0.00961937
0.0402694
0.0796304
0.108962
0.133209
0.153554
0.165175
0.179633
0.201982
0.214212
0.225149
-0.189146
-0.167238
-0.143841
-0.119532
-0.094771
-0.0697798
-0.0447937
-0.020075
0.00510805
0.0324147
0.0579867
0.0875537
0.117677
0.137359
0.15069
0.155748
0.177327
0.183651
0.201995
-0.162487
-0.144003
-0.124172
-0.103479
-0.0823032
-0.0608022
-0.0391262
-0.0174786
0.00450252
0.0272495
0.0499335
0.0709019
0.0899554
0.111091
0.125712
0.132487
0.151934
0.154929
0.442441
-0.138758
-0.123193
-0.106413
-0.0887993
-0.0706346
-0.052014
-0.0330197
-0.0138535
0.0054542
0.0247927
0.0434218
0.0603429
0.075589
0.088681
0.100748
0.109259
0.121722
0.122876
2.69161
-0.117538
-0.104457
-0.0902871
-0.0753198
-0.0597619
-0.0436814
-0.0271574
-0.0104449
0.00616876
0.0223186
0.0373849
0.0506933
0.0625331
0.0725734
0.0816379
0.0882051
0.0927326
0.0872802
2.66258
-0.0984599
-0.0875069
-0.0756007
-0.0629738
-0.0497973
-0.0361465
-0.0221471
-0.00810056
0.00566039
0.0187898
0.0308047
0.0411992
0.0503717
0.0579612
0.0647964
0.0699992
0.0714947
0.0711855
0.0537759
-0.081253
-0.0721595
-0.0622766
-0.0518091
-0.0409188
-0.0296897
-0.0182951
-0.00702271
0.0038925
0.014217
0.0235854
0.031644
0.0387367
0.0445018
0.0497432
0.0538449
0.0550551
0.05771
0.0519241
-0.0657706
-0.0583664
-0.0503719
-0.0419797
-0.0333356
-0.0245078
-0.0156802
-0.00705876
0.00124517
0.00907433
0.0161435
0.0222087
0.0275263
0.0318179
0.0357773
0.0387871
0.0400023
0.0423436
0.040019
-0.0519622
-0.046152
-0.0399736
-0.0335947
-0.0271246
-0.0205954
-0.0141564
-0.00791335
-0.00191976
0.00368787
0.00868509
0.0129423
0.0166364
0.0196192
0.0223982
0.0243676
0.0254761
0.0269374
0.0258426
-0.0397819
-0.035491
-0.0310539
-0.0265878
-0.0221517
-0.0177429
-0.0134591
-0.00934848
-0.00546462
-0.00192091
0.00114378
0.00371107
0.00589566
0.00766469
0.0093209
0.0103887
0.0111926
0.0118729
0.0114208
-0.0291097
-0.0262521
-0.0234443
-0.0207476
-0.0181741
-0.015702
-0.0133901
-0.0112666
-0.00937775
-0.00777655
-0.00650209
-0.00550155
-0.00470174
-0.00406871
-0.00345836
-0.00317158
-0.0028459
-0.0027613
-0.00292587
-0.0197345
-0.0181908
-0.0168842
-0.0158256
-0.0149835
-0.0143283
-0.0138879
-0.0136656
-0.0136621
-0.0138576
-0.0142183
-0.0146649
-0.0151396
-0.0155878
-0.015956
-0.0163851
-0.0166202
-0.0169588
-0.0170823
-0.0113196
-0.0110125
-0.0111469
-0.0116652
-0.0125122
-0.0136486
-0.0150538
-0.0166861
-0.0184891
-0.0203874
-0.0223019
-0.0241398
-0.0258427
-0.0273618
-0.0286794
-0.0298327
-0.0306641
-0.0313744
-0.0315481
-0.00375973
-0.00465052
-0.00618182
-0.00825899
-0.0107975
-0.0137431
-0.0170115
-0.0205172
-0.0241533
-0.0277883
-0.0312977
-0.0345566
-0.0375112
-0.0401242
-0.0424031
-0.0443718
-0.0458437
-0.0470158
-0.0471114
)
;

boundaryField
{
    leftWall
    {
        type            fixedFluxPressure;
        gradient        uniform 0;
        value           nonuniform List<scalar> 
50
(
1073.34
1075.42
1074.9
1072.48
1069.38
1066.85
1065.93
1068.35
1058.96
899.438
784.766
583.648
282.377
62.2098
7.27623
-1.24467
-2.53026
-2.40538
-2.00993
-1.44977
-1.11704
-1.01674
-1.0025
-0.927504
-0.712854
-0.39348
-0.0973061
0.0733697
0.137999
0.152609
0.144877
0.128054
0.10948
0.0914591
0.0747253
0.0597262
0.0466588
0.0355286
0.0262477
0.0186846
0.0126834
0.00806836
0.00465044
0.00223863
0.000651137
-0.000282328
-0.00070468
-0.000785358
-0.000509307
-0.000623667
)
;
    }
    rightWall
    {
        type            fixedFluxPressure;
        gradient        uniform 0;
        value           nonuniform List<scalar> 
50
(
852.935
844.004
873.078
861.961
868.966
930.682
1013.16
937.08
881.919
1092.88
932.566
325.859
7.49019
7.11805
6.83323
6.81889
17.1202
40
5.50499
1.02956
0.96997
1.00196
1.116
1.20404
1.25319
1.63023
1.87533
0.898026
0.868503
0.708803
0.575524
0.482595
0.405527
0.345447
0.29675
0.256294
0.225149
0.201995
0.442441
2.69161
2.66258
0.0537759
0.0519241
0.040019
0.0258426
0.0114208
-0.00292587
-0.0170823
-0.0315481
-0.0471114
)
;
    }
    lowerWall
    {
        type            fixedFluxPressure;
        gradient        uniform 0;
        value           nonuniform List<scalar> 
62
(
1073.34
1064.4
1048.18
1026.99
1006.35
989.249
974.754
959.84
943.979
927.134
908.577
887.894
865.342
842.134
819.49
796.894
775.126
757.793
749.758
748.988
757.317
765.741
766.747
766.747
764.37
761.519
758.6
755.851
753.502
751.806
751.229
771.088
780.667
794.292
794.333
810.202
815.9
806.752
760.871
758.24
778.039
786.39
800.884
810.202
731.3
696.134
738.809
678.226
581.351
563.824
494.047
407.407
379.51
366.3
357.285
347.925
380.547
459.238
595.952
700.693
747.163
852.935
)
;
    }
    atmosphere
    {
        type            totalPressure;
        rho             rho;
        psi             none;
        gamma           1;
        p0              uniform 0;
        value           nonuniform List<scalar> 
46
(
0
0
0
0
0
0
0
0
0
0
0
0
0
0
0
0
0
0
0
0
0
0
0
0
0
-4.8417e-07
-7.86853e-05
-0.00053934
-0.00193273
-0.00411205
-0.00696411
-0.0103344
-0.0141987
-0.0184279
-0.0229336
-0.0275757
-0.0321702
-0.0365625
-0.0405873
-0.0442153
-0.0474064
-0.0502013
-0.0526794
-0.0545024
-0.0560873
-0.0558867
)
;
    }
    defaultFaces
    {
        type            empty;
    }
}


// ************************************************************************* //
