ITEM: TIMESTEP
25400
ITEM: NUMBER OF ATOMS
3000
ITEM: BOX BOUNDS mm mm mm
0 1.32186
0 0.85
0 0.86
ITEM: ATOMS id mass type x y z ix iy iz vx vy vz fx fy fz xs ys zs 
2788 0.000282743 1 0.23138 0.00364332 0.00299472 0 0 0 28.2734 0 5.13963e-15 1.99861 0 0 0.175041 0.00428626 0.00348224 
1319 0.000282743 1 0.543018 0.00389763 0.00299472 0 0 0 28.2734 0 -1.59229e-14 1.99861 0 -4.33681e-19 0.410799 0.00458545 0.00348224 
24 0.000282743 1 0.329082 0.00725002 0.00659007 0 0 0 28.2942 0 0.67424 2 0 -0.00277371 0.248955 0.00852944 0.00766288 
315 0.000282743 1 0.49826 0.0078913 0.00299472 0 0 0 28.2734 0 1.17896e-14 1.99861 0 0 0.376939 0.00928389 0.00348224 
926 0.000282743 1 0.847431 0.00637354 0.00299506 0 0 0 -0.0200997 0 0.00167924 -0.0264968 0 -0.00248945 0.641091 0.00749829 0.00348262 
610 0.000282743 1 0.134271 0.013257 0.0037941 0 0 0 28.2942 0 -0.0116984 2 0 -0.00277371 0.101578 0.0155965 0.00441174 
626 0.000282743 1 0.199114 0.0136063 0.00299472 0 0 0 28.2734 0 7.35628e-15 1.99861 0 0 0.150632 0.0160075 0.00348224 
229 0.000282743 1 0.407018 0.0159379 0.00364823 0 0 0 28.2942 0 0.0624104 2 0 -0.00277371 0.307913 0.0187505 0.00424212 
1485 0.000282743 1 0.575689 0.0121932 0.00299472 0 0 0 28.2734 0 1.17482e-07 1.99861 0 -4.92154e-08 0.435515 0.0143449 0.00348224 
281 0.000282743 1 0.648718 0.0121888 0.00299472 0 0 0 28.2734 0 -7.0555e-15 1.99861 0 0 0.490762 0.0143397 0.00348224 
1922 0.000282743 1 0.681254 0.0120769 0.00299472 0 0 0 28.2715 0.0118845 6.35425e-14 1.99861 2.92345e-19 1.59691e-13 0.515376 0.0142081 0.00348224 
2338 0.000282743 1 0.230413 0.0166446 0.00299662 0 0 0 28.2928 0 -0.0272667 1.99551 0 0.00620422 0.17431 0.0195819 0.00348444 
2752 0.000282743 1 0.349269 0.0171987 0.00299472 0 0 0 28.2734 0 -1.69913e-14 1.99861 0 -1.30104e-17 0.264226 0.0202338 0.00348224 
662 0.000282743 1 0.142674 0.0227621 0.00299472 0 0 0 28.2734 0 3.34137e-14 1.99861 0 1.54564e-15 0.107934 0.026779 0.00348224 
136 0.000282743 1 0.813483 0.0228154 0.00373055 0 0 0 28.2942 0 -0.0335455 2 0 -0.00277371 0.615409 0.0268417 0.00433785 
312 0.000282743 1 0.830128 0.0237223 0.00299472 0 0 0 28.2734 0 -1.03798e-14 1.99861 0 0 0.628001 0.0279086 0.00348224 
2385 0.000282743 1 0.0827434 0.0271591 0.00299472 0 0 0 28.2734 0 -4.84163e-15 1.99861 0 0 0.0625963 0.0319519 0.00348224 
356 0.000282743 1 0.739796 0.0274179 0.00380814 0 0 0 28.2942 0 0.0120855 2 0 -0.00277371 0.559664 0.0322564 0.00442807 
2171 0.000282743 1 0.75007 0.0307014 0.00299472 0 0 0 28.2734 0 -9.27214e-15 1.99861 0 0 0.567436 0.0361193 0.00348224 
2212 0.000282743 1 0.847093 0.0291994 0.00550727 0 0 0 -5.94147 0 0.591108 5.61708 0 0.0631889 0.640836 0.0343523 0.0064038 
2165 0.000282743 1 0.735606 0.0336834 0.00299472 0 0 0 28.2734 0 4.02921e-15 1.99861 0 0 0.556494 0.0396276 0.00348224 
1995 0.000282743 1 0.84627 0.0358753 0.0066389 0 0 0 1.2437 0 1.89865 2 0 -0.00277371 0.640213 0.0422062 0.00771965 
284 0.000282743 1 0.459768 0.0405785 0.00623227 0 0 0 28.2942 0 0.674597 2 0 -0.00277371 0.34782 0.0477394 0.00724682 
153 0.000282743 1 0.756544 0.0455722 0.00299473 0 0 0 28.2734 0 -5.20186e-07 1.99861 0 -2.99349e-08 0.572334 0.0536144 0.00348224 
2946 0.000282743 1 0.101204 0.0503255 0.00299472 0 0 0 28.2734 0 -1.19091e-11 1.99861 0 2.17082e-11 0.0765622 0.0592065 0.00348224 
2245 0.000282743 1 0.202403 0.0511328 0.00299472 0 0 0 28.2734 0 -4.02713e-16 1.99861 0 0 0.15312 0.0601563 0.00348224 
338 0.000282743 1 0.364494 0.0513337 0.00299472 0 0 0 28.2734 0 -1.51454e-15 1.99861 0 0 0.275743 0.0603925 0.00348224 
1949 0.000282743 1 0.607199 0.0494126 0.00299472 0 0 0 28.2734 0 1.4009e-14 1.99861 0 0 0.459353 0.0581325 0.00348224 
1304 0.000282743 1 0.223132 0.0557894 0.00319782 0 0 0 28.2942 0 -0.103793 2 0 -0.00277371 0.168802 0.0656346 0.0037184 
954 0.000282743 1 0.792958 0.0549755 0.00299472 0 0 0 28.2734 0 2.0659e-14 1.99861 0 0 0.599882 0.064677 0.00348224 
2678 0.000282743 1 0.250139 0.0574585 0.00331248 0 0 0 28.2942 0 -0.0920539 2 0 -0.00277371 0.189233 0.0675982 0.00385173 
2170 0.000282743 1 0.389376 0.0584649 0.00299472 0 0 0 28.2734 0 1.28986e-14 1.99861 0 0 0.294568 0.0687823 0.00348224 
1124 0.000282743 1 0.447082 0.0586676 0.00299472 0 0 0 28.2734 0 1.51167e-14 1.99861 0 0 0.338222 0.0690207 0.00348224 
849 0.000282743 1 0.485316 0.0567479 0.00299472 0 0 0 28.2734 0 -4.07284e-15 1.99861 0 -4.365e-15 0.367147 0.0667623 0.00348224 
2717 0.000282743 1 0.569886 0.0596844 0.00299472 0 0 0 28.267 -0.00913781 6.24725e-15 1.99861 8.53563e-23 0 0.431125 0.0702169 0.00348224 
2515 0.000282743 1 0.55612 0.0626138 0.00299472 0 0 0 28.2734 0 -1.03798e-14 1.99861 0 0 0.420711 0.0736633 0.00348224 
2174 0.000282743 1 0.773083 0.0611444 0.00299472 0 0 0 28.2734 0 2.0659e-14 1.99861 0 0 0.584846 0.0719345 0.00348224 
795 0.000282743 1 0.680973 0.0677722 0.00380997 0 0 0 28.3057 -0.0163322 0.00179518 2 0 -0.00277371 0.515164 0.0797319 0.0044302 
1156 0.000282743 1 0.687512 0.064281 0.00299472 0 0 0 28.2734 0 1.51153e-14 1.99861 0 0 0.52011 0.0756247 0.00348224 
2920 0.000282743 1 0.755483 0.0670631 0.00299472 0 0 0 28.2734 0 9.57294e-15 1.99861 0 0 0.571532 0.0788978 0.00348224 
1678 0.000282743 1 0.442177 0.0721212 0.00299472 0 0 0 28.2734 0 -2.61937e-15 1.99861 0 0 0.334512 0.0848485 0.00348224 
1599 0.000282743 1 0.645282 0.0709061 0.00299472 0 0 0 28.2734 0 1.0682e-14 1.99861 0 0 0.488163 0.083419 0.00348224 
367 0.000282743 1 0.26056 0.0743494 0.00299492 0 0 0 28.272 0 -0.000382886 1.99863 0 -3.50833e-05 0.197116 0.0874699 0.00348246 
2586 0.000282743 1 0.307043 0.0759655 0.00299472 0 0 0 28.2734 0 -1.14902e-14 1.99861 0 0 0.232281 0.0893711 0.00348224 
2800 0.000282743 1 0.192695 0.0791022 0.00299472 0 0 0 28.2734 0 1.8142e-11 1.99861 0 1.03429e-11 0.145776 0.0930614 0.00348224 
1017 0.000282743 1 0.253181 0.0776333 0.00299472 0 0 0 28.2734 0 7.35628e-15 1.99861 0 0 0.191535 0.0913333 0.00348224 
1814 0.000282743 1 0.472471 0.0771766 0.00299472 0 0 0 28.2734 0 -7.05549e-15 1.99861 0 0 0.357429 0.090796 0.00348224 
2129 0.000282743 1 0.616203 0.0775321 0.00299472 0 0 0 28.2734 0 7.35628e-15 1.99861 0 0 0.466164 0.0912142 0.00348224 
2636 0.000282743 1 0.655846 0.0790148 0.00651605 0 0 0 28.2942 0 0.669082 2 0 -0.00277371 0.496155 0.0929586 0.00757681 
2996 0.000282743 1 0.297305 0.0806714 0.00299736 0 0 0 28.2652 0 -0.00280536 1.99915 0 -0.00107052 0.224914 0.0949075 0.00348531 
1806 0.000282743 1 0.302738 0.0875507 0.0037757 0 0 0 28.2942 0 0.030745 2 0 -0.00277371 0.229025 0.103001 0.00439035 
2606 0.000282743 1 0.482232 0.0844638 0.00299472 0 0 0 28.2734 0 1.35997e-06 1.99861 0 4.34388e-07 0.364814 0.0993692 0.00348224 
2881 0.000282743 1 0.587001 0.0858287 0.00358017 0 0 0 27.8107 -0.0531234 0.222218 2 0 -0.00277371 0.444073 0.100975 0.00416299 
876 0.000282743 1 0.639771 0.0863357 0.00299685 0 0 0 28.2661 0 0.00501352 1.99995 0 -0.00286943 0.483994 0.101571 0.00348471 
501 0.000282743 1 0.623405 0.088679 0.00299472 0 0 0 28.2741 -0.0928269 -3.93495e-13 1.99861 -8.74755e-19 2.0277e-13 0.471613 0.104328 0.00348224 
1113 0.000282743 1 0.841497 0.0889409 0.0029996 0 0 0 28.0631 -0.0211439 0.0179524 1.99857 2.13386e-09 -0.00563524 0.636602 0.104636 0.00348791 
2182 0.000282743 1 0.849857 0.0886026 0.00299533 0 0 0 4.90763 -0.0110359 0.00642973 -41.3632 0.0471951 0.00455421 0.642927 0.104238 0.00348294 
2062 0.000282743 1 0.127651 0.0928605 0.00358647 0 0 0 28.2942 0 -0.0596709 2 0 -0.00277371 0.0965691 0.109248 0.00417031 
1907 0.000282743 1 0.846768 0.097547 0.00300831 0 0 0 -5.31358 0.0160649 0.0170812 2 0 -0.00277371 0.64059 0.114761 0.00349804 
2548 0.000282743 1 0.215101 0.103172 0.00299472 0 0 0 28.2734 0 4.02921e-15 1.99861 0 0 0.162726 0.121379 0.00348224 
1743 0.000282743 1 0.625828 0.101366 0.00299472 0 0 0 28.304 0.00182936 -8.16732e-15 1.99861 1.06695e-23 0 0.473446 0.119255 0.00348224 
676 0.000282743 1 0.723892 0.101439 0.00312271 0 0 0 32.3644 1.47994 1.36827 1.57296 0.750824 0.473869 0.547633 0.11934 0.00363106 
1973 0.000282743 1 0.783922 0.102777 0.00274391 0 0 0 39.0679 -0.264175 0.220428 1.61514 0.00074764 0.766947 0.593046 0.120914 0.0031906 
1747 0.000282743 1 0.198715 0.104694 0.00299472 0 0 0 28.2734 0 -2.48881e-07 1.99861 0 1.23682e-06 0.15033 0.123169 0.00348224 
1183 0.000282743 1 0.694948 0.107623 0.00299472 0 0 0 28.2734 0 1.80974e-15 1.99861 0 0 0.525736 0.126615 0.00348224 
1692 0.000282743 1 0.710297 0.105963 0.00297265 0 0 0 30.1218 0.04506 -0.206798 1.93496 -0.000265821 0.127301 0.537348 0.124662 0.00345657 
1735 0.000282743 1 0.796419 0.106014 0.00294714 0 0 0 33.3462 1.54843 -0.456974 12.9687 3.2788 -5.22014 0.6025 0.124722 0.00342691 
886 0.000282743 1 0.711436 0.112226 0.00299472 0 0 0 28.2734 0 2.92157e-15 1.99861 0 0 0.538209 0.132031 0.00348224 
220 0.000282743 1 0.807931 0.108588 0.00299473 0 0 0 28.2734 0 -5.09533e-07 1.99861 0 -6.46118e-08 0.611209 0.12775 0.00348224 
2801 0.000282743 1 0.163364 0.115869 0.00299472 0 0 0 28.2734 0 -9.03015e-14 1.99861 0 1.99784e-14 0.123587 0.136317 0.00348224 
1801 0.000282743 1 0.402124 0.113038 0.00299472 0 0 0 28.2734 0 -6.17961e-09 1.99861 0 -7.74879e-10 0.304212 0.132986 0.00348224 
140 0.000282743 1 0.526082 0.114857 0.00299472 0 0 0 28.2734 0 -7.05549e-15 1.99861 0 0 0.397987 0.135126 0.00348224 
1963 0.000282743 1 0.658701 0.113076 0.00312151 0 0 0 28.148 0.275908 0.162217 2 0 -0.00277371 0.498314 0.13303 0.00362966 
2449 0.000282743 1 0.741824 0.112484 0.00359543 0 0 0 28.2942 0 0.0714239 2 0 -0.00277371 0.561198 0.132334 0.00418073 
934 0.000282743 1 0.848395 0.114351 0.00299951 0 0 0 -9.68365 0 0.00747461 2.1644 0 -0.0110912 0.64182 0.13453 0.0034878 
392 0.000282743 1 0.243524 0.116778 0.00299472 0 0 0 28.2734 0 8.4639e-15 1.99861 0 0 0.184229 0.137385 0.00348224 
1400 0.000282743 1 0.334096 0.118653 0.0034764 0 0 0 28.2942 0 -0.0739074 2 0 -0.00277371 0.252747 0.139592 0.00404233 
2620 0.000282743 1 0.290558 0.122546 0.00299472 0 0 0 28.2734 0 -1.50929e-09 1.99861 0 1.8864e-09 0.219811 0.144171 0.00348224 
2955 0.000282743 1 0.385334 0.121181 0.00299472 0 0 0 28.2734 0 1.35129e-07 1.99861 0 5.97295e-08 0.29151 0.142565 0.00348224 
2869 0.000282743 1 0.565172 0.121357 0.00299472 0 0 0 28.0422 -0.0239456 9.7969e-08 1.99861 -6.48672e-14 -1.27439e-08 0.427559 0.142773 0.00348224 
2063 0.000282743 1 0.679828 0.121177 0.00299472 0 0 0 28.2734 0 6.24586e-15 1.99861 0 0 0.514297 0.142561 0.00348224 
2918 0.000282743 1 0.406569 0.125633 0.00380396 0 0 0 28.2942 0 0.0153982 2 0 -0.00277371 0.307574 0.147804 0.00442321 
2312 0.000282743 1 0.846748 0.125933 0.00300105 0 0 0 -5.27943 0 0.00591235 2 0 -0.00277371 0.640575 0.148157 0.0034896 
1860 0.000282743 1 0.164781 0.130739 0.00299472 0 0 0 28.2734 0 8.61759e-07 1.99861 0 7.97422e-07 0.124659 0.153811 0.00348224 
719 0.000282743 1 0.571091 0.130428 0.00299472 0 0 0 28.1785 0.0181812 -3.6102e-11 1.99861 3.0745e-18 1.33296e-11 0.432037 0.153445 0.00348224 
1378 0.000282743 1 0.747187 0.132815 0.00379757 0 0 0 28.2942 0 0.0203101 2 0 -0.00277371 0.565255 0.156252 0.00441578 
202 0.000282743 1 0.154616 0.137364 0.00299472 0 0 0 28.2734 0 -2.75507e-06 1.99861 0 1.42017e-06 0.116969 0.161605 0.00348224 
2160 0.000282743 1 0.461172 0.137567 0.00299472 0 0 0 28.1782 -0.116954 -1.14916e-14 1.99861 -1.3657e-21 0 0.348882 0.161844 0.00348224 
1451 0.000282743 1 0.579344 0.139097 0.00299473 0 0 0 28.2264 0.253923 -2.9582e-07 1.99861 -6.46179e-12 -8.92898e-08 0.43828 0.163643 0.00348224 
768 0.000282743 1 0.818301 0.136757 0.00299472 0 0 0 28.2734 0 -8.48869e-12 1.99861 0 3.82996e-13 0.619053 0.16089 0.00348224 
2451 0.000282743 1 0.059682 0.14389 0.00339359 0 0 0 28.2942 0 -0.0835586 2 0 -0.00277371 0.0451501 0.169282 0.00394604 
1582 0.000282743 1 0.308615 0.143686 0.00299472 0 0 0 28.2734 0 5.15102e-11 1.99861 0 -6.83051e-11 0.23347 0.169042 0.00348224 
410 0.000282743 1 0.527442 0.144092 0.00302185 0 0 0 28.2942 0 -0.0205786 2 0 -0.00277371 0.399016 0.169519 0.00351378 
1246 0.000282743 1 0.117422 0.149047 0.00299472 0 0 0 28.2924 0.0126758 5.71147e-14 1.99861 -3.36901e-19 -2.13881e-13 0.0888311 0.175349 0.00348224 
2461 0.000282743 1 0.515311 0.148491 0.00299473 0 0 0 28.2733 0 -3.5583e-05 1.99861 0 9.78855e-06 0.389838 0.174695 0.00348224 
2448 0.000282743 1 0.783102 0.149093 0.00299472 0 0 0 28.2734 0 -1.92506e-14 1.99861 0 0 0.592425 0.175404 0.00348224 
233 0.000282743 1 0.840321 0.14892 0.00309653 0 0 0 28.2971 -0.0184066 0.00750648 2 0 -0.00277371 0.635712 0.175201 0.00360062 
2991 0.000282743 1 0.543532 0.153952 0.00299472 0 0 0 28.2734 0 -8.93419e-15 1.99861 0 2.67199e-14 0.411188 0.181119 0.00348224 
1051 0.000282743 1 0.791238 0.153803 0.00360327 0 0 0 28.2942 0 0.0702282 2 0 -0.00277371 0.59858 0.180945 0.00418985 
1576 0.000282743 1 0.615297 0.15931 0.00299472 0 0 0 28.2734 0 8.46391e-15 1.99861 0 0 0.465479 0.187424 0.00348224 
2643 0.000282743 1 0.632897 0.158048 0.00299472 0 0 0 28.2734 0 -5.00416e-12 1.99861 0 2.5146e-12 0.478794 0.185939 0.00348224 
55 0.000282743 1 0.0910254 0.161299 0.00520859 0 0 0 26.9379 0 0.699069 2 0 -0.00277371 0.0688617 0.189764 0.0060565 
1415 0.000282743 1 0.226844 0.161792 0.00299538 0 0 0 28.2662 0 0.00732354 1.99996 0 -0.0027005 0.17161 0.190344 0.003483 
1669 0.000282743 1 0.311499 0.163659 0.00299472 0 0 0 28.2734 0 -1.48173e-14 1.99861 0 0 0.235652 0.19254 0.00348224 
1592 0.000282743 1 0.246612 0.165431 0.00299472 0 0 0 28.2734 0 -1.48159e-14 1.99861 0 0 0.186565 0.194625 0.00348224 
2682 0.000282743 1 0.318326 0.164924 0.00299472 0 0 0 28.2734 0 1.17896e-14 1.99861 0 0 0.240817 0.194028 0.00348224 
2962 0.000282743 1 0.511823 0.168313 0.00299472 0 0 0 28.2734 0 5.13963e-15 1.99861 0 0 0.3872 0.198015 0.00348224 
344 0.000282743 1 0.570237 0.167356 0.00299666 0 0 0 28.2662 0 0.00530164 1.99996 0 -0.00284899 0.431391 0.196889 0.00348449 
989 0.000282743 1 0.154612 0.17194 0.00352216 0 0 0 28.5932 0.184532 -0.0294643 2 0 -0.00277371 0.116965 0.202282 0.00409553 
330 0.000282743 1 0.301979 0.167661 0.00299472 0 0 0 28.4337 -0.198191 5.33953e-07 1.99861 -1.68155e-12 -1.15896e-07 0.22845 0.197248 0.00348224 
826 0.000282743 1 0.845872 0.171297 0.00299998 0 0 0 -3.04599 0 -0.000208552 2.00001 0 -0.00276127 0.639911 0.201525 0.00348835 
543 0.000282743 1 0.0947822 0.17302 0.00303452 0 0 0 28.2942 0 -0.0139 2 0 -0.00277371 0.0717038 0.203553 0.00352851 
1293 0.000282743 1 0.359949 0.174331 0.00299472 0 0 0 28.2734 0 1.81113e-15 1.99861 0 0 0.272306 0.205096 0.00348224 
221 0.000282743 1 0.41993 0.172561 0.00299472 0 0 0 28.2734 0 6.24724e-15 1.99861 0 0 0.317682 0.203013 0.00348224 
113 0.000282743 1 0.432068 0.174128 0.00299472 0 0 0 28.2734 0 -3.73119e-15 1.99861 0 0 0.326864 0.204856 0.00348224 
178 0.000282743 1 0.667906 0.174539 0.00321058 0 0 0 27.8943 0 0.114911 2 0 -0.00277371 0.505278 0.20534 0.00373323 
2278 0.000282743 1 0.316911 0.179744 0.00299472 0 0 0 28.2734 0 -1.37069e-14 1.99861 0 0 0.239747 0.211463 0.00348224 
2281 0.000282743 1 0.451529 0.179038 0.00304354 0 0 0 28.2119 0 0.00342371 2 0 -0.00277371 0.341587 0.210633 0.00353899 
418 0.000282743 1 0.71943 0.176458 0.00299472 0 0 0 28.2734 0 -3.60228e-11 1.99861 0 2.37937e-11 0.544257 0.207597 0.00348224 
921 0.000282743 1 0.846411 0.178483 0.00354063 0 0 0 -4.67033 0 0.045771 2 0 -0.00277371 0.640319 0.20998 0.00411701 
1998 0.000282743 1 0.161924 0.183085 0.00296165 0 0 0 28.2264 0 0.00977286 1.97508 0 0.047068 0.122497 0.215394 0.00344378 
2976 0.000282743 1 0.294415 0.187985 0.00299472 0 0 0 28.2918 -0.00281716 8.4639e-15 1.99861 0 0 0.222728 0.221159 0.00348224 
538 0.000282743 1 0.690464 0.184748 0.00299472 0 0 0 28.2247 -0.149661 -9.8065e-09 1.99861 -6.03345e-13 3.31105e-08 0.522343 0.217351 0.00348224 
1164 0.000282743 1 0.504671 0.191005 0.00299472 0 0 0 28.5377 0.324661 -3.33764e-07 1.99861 -4.84567e-12 1.28278e-09 0.381789 0.224712 0.00348224 
87 0.000282743 1 0.567456 0.189503 0.00299472 0 0 0 28.2734 0 7.35628e-15 1.99861 0 0 0.429287 0.222945 0.00348224 
2327 0.000282743 1 0.613519 0.192086 0.00299801 0 0 0 28.2661 0 0.00139867 1.99985 0 -0.00248143 0.464134 0.225984 0.00348606 
2888 0.000282743 1 0.269568 0.194376 0.00299475 0 0 0 28.1459 0.0698881 -1.16879e-05 1.99862 -1.61367e-10 -1.33158e-05 0.203931 0.228677 0.00348226 
371 0.000282743 1 0.352819 0.193043 0.00299472 0 0 0 28.2734 0 1.29e-14 1.99861 0 0 0.266912 0.22711 0.00348224 
2202 0.000282743 1 0.148696 0.202405 0.00380842 0 0 0 28.2942 0 0.00615449 2 0 -0.00277371 0.11249 0.238123 0.0044284 
2830 0.000282743 1 0.556229 0.204474 0.00299472 0 0 0 28.2734 0 -1.03798e-14 1.99861 0 0 0.420794 0.240558 0.00348224 
961 0.000282743 1 0.84991 0.208214 0.00299688 0 0 0 1.4143 0 0.0183606 -37.0314 0 0.00580057 0.642966 0.244958 0.00348474 
1172 0.000282743 1 0.109458 0.211557 0.00299472 0 0 0 28.2734 0 7.80411e-07 1.99861 0 8.37816e-07 0.0828059 0.24889 0.00348224 
2621 0.000282743 1 0.166202 0.209732 0.00299472 0 0 0 28.2734 0 -7.05689e-15 1.99861 0 0 0.125733 0.246743 0.00348224 
2109 0.000282743 1 0.37836 0.210491 0.00299472 0 0 0 28.2734 0 2.06604e-14 1.99861 0 0 0.286234 0.247637 0.00348224 
1885 0.000282743 1 0.398179 0.209041 0.00616809 0 0 0 28.2942 0 0.681797 2 0 -0.00277371 0.301227 0.245931 0.0071722 
1957 0.000282743 1 0.846429 0.213694 0.00680529 0 0 0 1.64512 0 2.0206 2 0 -0.00277371 0.640333 0.251405 0.00791313 
2297 0.000282743 1 0.100215 0.216772 0.00299472 0 0 0 28.304 -0.0188337 -2.56657e-07 1.99861 -3.32302e-14 9.89598e-08 0.0758139 0.255026 0.00348224 
2132 0.000282743 1 0.529426 0.218281 0.00299472 0 0 0 28.2734 0 -8.16593e-15 1.99861 0 0 0.400516 0.256801 0.00348224 
1444 0.000282743 1 0.772175 0.218083 0.00366562 0 0 0 28.2942 0 0.059759 2 0 -0.00277371 0.584159 0.256568 0.00426235 
145 0.000282743 1 0.061848 0.22147 0.00299472 0 0 0 28.3134 0.019198 8.00698e-07 1.99861 1.89162e-12 4.60896e-07 0.0467887 0.260553 0.00348224 
2512 0.000282743 1 0.753882 0.221315 0.00301255 0 0 0 28.4468 -0.3782 0.0399269 2 0 -0.00277371 0.57032 0.260371 0.00350296 
254 0.000282743 1 0.452342 0.224656 0.00298744 0 0 0 28.2823 0 -0.0108773 1.99278 0 0.011666 0.342201 0.264301 0.00347377 
2849 0.000282743 1 0.597095 0.227689 0.00299472 0 0 0 28.2734 0 2.74116e-12 1.99861 0 3.62173e-13 0.451709 0.267869 0.00348224 
296 0.000282743 1 0.624807 0.223828 0.00324405 0 0 0 27.9322 -0.409167 0.00892069 2 0 -0.00277371 0.472674 0.263327 0.00377215 
256 0.000282743 1 0.731723 0.227282 0.00299472 0 0 0 28.2734 0 1.4009e-14 1.99861 0 0 0.553557 0.26739 0.00348224 
2268 0.000282743 1 0.767024 0.228448 0.00299472 0 0 0 28.2734 0 2.74488e-12 1.99861 0 -2.82468e-13 0.580262 0.268762 0.00348224 
757 0.000282743 1 0.708823 0.241254 0.0032883 0 0 0 28.411 0.417477 0.0633436 2 0 -0.00277371 0.536233 0.283829 0.0038236 
887 0.000282743 1 0.846805 0.240877 0.00298157 0 0 0 -1.86981 0.68861 -0.00350913 2.00928 -0.00334251 0.01695 0.640618 0.283385 0.00346694 
2986 0.000282743 1 0.731654 0.242 0.00299472 0 0 0 28.2757 -0.198296 1.95129e-09 1.99861 -1.41721e-14 -1.24255e-10 0.553504 0.284706 0.00348224 
188 0.000282743 1 0.847395 0.249836 0.0030187 0 0 0 -2.84242 8.0105 -0.137846 11.9516 -13.2204 -1.11012 0.641064 0.293925 0.00351012 
2563 0.000282743 1 0.746111 0.250279 0.00309813 0 0 0 28.5857 0.0378063 -0.09621 2 0 -0.00277371 0.564442 0.294446 0.00360248 
1096 0.000282743 1 0.841721 0.249489 0.00299472 0 0 0 27.7339 0.244136 -0.0102985 -14.9598 7.49904 -0.355599 0.636771 0.293516 0.00348224 
399 0.000282743 1 0.725555 0.253177 0.00299472 0 0 0 28.2734 0 -7.05548e-15 1.99861 0 0 0.54889 0.297855 0.00348224 
253 0.000282743 1 0.32521 0.260054 0.00299472 0 0 0 28.2734 0 1.73319e-14 1.99861 0 0 0.246025 0.305946 0.00348224 
185 0.000282743 1 0.482293 0.259601 0.00299472 0 0 0 28.2734 0 -1.6597e-14 1.99861 0 -4.79651e-16 0.36486 0.305413 0.00348224 
211 0.000282743 1 0.566448 0.256715 0.00299472 0 0 0 28.2734 0 -1.03812e-14 1.99861 0 0 0.428524 0.302018 0.00348224 
2020 0.000282743 1 0.770003 0.258997 0.00374634 0 0 0 28.2942 0 -0.0266492 2 0 -0.00277371 0.582516 0.304702 0.00435621 
2140 0.000282743 1 0.623564 0.262948 0.00305344 0 0 0 28.3441 -0.170581 -0.0272334 2 0 -0.00277371 0.471733 0.309351 0.00355052 
1897 0.000282743 1 0.637849 0.261805 0.00299482 0 0 0 28.6728 -0.41974 -0.00022833 1.99861 4.98945e-09 -3.35993e-06 0.48254 0.308006 0.00348235 
1100 0.000282743 1 0.835378 0.264068 0.00297117 0 0 0 28.1726 -0.0864587 -0.00607086 1.9807 6.32638e-08 0.0358217 0.631973 0.310668 0.00345485 
2290 0.000282743 1 0.662585 0.26657 0.00299472 0 0 0 28.4446 0.193438 -6.12292e-07 1.99861 2.01367e-12 2.8197e-07 0.501253 0.313612 0.00348224 
1831 0.000282743 1 0.847903 0.267218 0.00299417 0 0 0 24.5461 0.170817 -0.0347504 -32.2421 -0.184032 -0.311407 0.641448 0.314374 0.00348159 
1816 0.000282743 1 0.370417 0.27068 0.00371298 0 0 0 28.2942 0 0.0497238 2 0 -0.00277371 0.280225 0.318447 0.00431742 
2558 0.000282743 1 0.610667 0.268741 0.00313869 0 0 0 27.9474 -0.229306 0.0843063 2 0 -0.00277371 0.461976 0.316166 0.00364964 
2901 0.000282743 1 0.114664 0.273057 0.0036725 0 0 0 28.2942 0 0.0586613 2 0 -0.00277371 0.0867444 0.321243 0.00427035 
823 0.000282743 1 0.591888 0.273054 0.00299472 0 0 0 28.2734 0 2.26883e-10 1.99861 0 2.75686e-11 0.44777 0.32124 0.00348224 
1670 0.000282743 1 0.177973 0.28049 0.00300058 0 0 0 28.2005 0 0.0297956 2 0 -0.00277371 0.134638 0.329989 0.00348904 
2522 0.000282743 1 0.354493 0.277552 0.00299472 0 0 0 28.2734 0 -7.05688e-15 1.99861 0 0 0.268178 0.326531 0.00348224 
63 0.000282743 1 0.400162 0.281348 0.00299472 0 0 0 28.2734 0 -6.7748e-15 1.99861 0 -3.87017e-15 0.302727 0.330997 0.00348224 
1438 0.000282743 1 0.847776 0.280451 0.00307657 0 0 0 0.84276 -0.610916 0.182399 -4.18793 4.48865 0.282404 0.641352 0.329943 0.0035774 
1887 0.000282743 1 0.0825347 0.286407 0.00299531 0 0 0 28.2558 0 -0.0032954 1.99834 0 0.00053929 0.0624384 0.336949 0.00348292 
526 0.000282743 1 0.128441 0.287042 0.00487628 0 0 0 28.3088 -0.212308 0.450927 2 0 -0.00277371 0.0971673 0.337697 0.00567009 
2585 0.000282743 1 0.153721 0.286395 0.00318424 0 0 0 28.1442 -0.206282 -0.0166721 2 0 -0.00277371 0.116291 0.336935 0.00370261 
1911 0.000282743 1 0.185778 0.285594 0.00299472 0 0 0 28.2734 0 1.51167e-14 1.99861 0 0 0.140543 0.335993 0.00348224 
706 0.000282743 1 0.214403 0.286103 0.00299472 0 0 0 28.2734 0 -5.70731e-08 1.99861 0 4.6217e-09 0.162199 0.336592 0.00348224 
2507 0.000282743 1 0.401579 0.288627 0.00299472 0 0 0 28.2734 0 -1.37083e-14 1.99861 0 0 0.303799 0.339562 0.00348224 
2737 0.000282743 1 0.849482 0.286057 0.00340679 0 0 0 4.2533 2.30907 0.280368 -29.2931 -0.00174206 -0.236912 0.642642 0.336538 0.00396138 
987 0.000282743 1 0.0737722 0.291819 0.00296369 0 0 0 28.2184 0 0.025174 1.98109 0 0.035045 0.0558095 0.343316 0.00344615 
1265 0.000282743 1 0.242237 0.288106 0.00299494 0 0 0 27.3899 -0.38328 -0.000155684 1.99867 8.4179e-09 -0.000121569 0.183255 0.338948 0.00348249 
1696 0.000282743 1 0.848875 0.29082 0.00297971 0 0 0 13.9277 4.62894 -0.235661 -39.852 1.29678 -0.399582 0.642183 0.342141 0.00346478 
2206 0.000282743 1 0.349919 0.295749 0.00299472 0 0 0 28.2212 -0.133467 7.62017e-09 1.99861 2.30037e-13 -1.53034e-08 0.264717 0.34794 0.00348224 
2838 0.000282743 1 0.739819 0.296926 0.00299471 0 0 0 28.2734 0 9.38829e-06 1.99861 0 6.35871e-06 0.559681 0.349325 0.00348222 
818 0.000282743 1 0.100815 0.301929 0.00299472 0 0 0 28.2734 0 5.13823e-15 1.99861 0 0 0.0762675 0.35521 0.00348224 
2407 0.000282743 1 0.225834 0.304103 0.00299472 0 0 0 28.2734 0 -1.51454e-15 1.99861 0 0 0.170846 0.357769 0.00348224 
1751 0.000282743 1 0.710057 0.304422 0.00299472 0 0 0 28.39 -0.0736444 1.73319e-14 1.99861 -1.3657e-21 0 0.537166 0.358144 0.00348224 
1687 0.000282743 1 0.846999 0.301467 0.00260993 0 0 0 -1.23744 -1.11486 1.40485 0.941867 -0.012401 0.497867 0.640764 0.354667 0.0030348 
2457 0.000282743 1 0.421961 0.305371 0.00299472 0 0 0 28.2734 0 8.46548e-09 1.99861 0 1.07723e-08 0.319218 0.359261 0.00348224 
2082 0.000282743 1 0.434604 0.30527 0.00299472 0 0 0 28.2734 0 1.45663e-07 1.99861 0 -3.88746e-08 0.328783 0.359142 0.00348224 
1274 0.000282743 1 0.763217 0.305677 0.00337533 0 0 0 28.1715 0 0.0991978 2 0 -0.00277371 0.577382 0.359621 0.00392481 
2380 0.000282743 1 0.510921 0.312551 0.00299472 0 0 0 28.2734 0 7.0632e-16 1.99861 0 0 0.386518 0.367707 0.00348224 
468 0.000282743 1 0.783307 0.310431 0.00378046 0 0 0 28.2942 0 -0.0179883 2 0 -0.00277371 0.59258 0.365213 0.00439588 
2146 0.000282743 1 0.558455 0.315994 0.00347253 0 0 0 28.2942 0 -0.0750059 2 0 -0.00277371 0.422477 0.371757 0.00403783 
1032 0.000282743 1 0.847555 0.318522 0.00319334 0 0 0 26.2813 0.199087 -0.17369 -27.4388 -0.188051 -0.0688844 0.641185 0.374732 0.00371318 
1872 0.000282743 1 0.180916 0.323869 0.00314457 0 0 0 28.5687 0.396509 0.0224384 2 0 -0.00277371 0.136865 0.381022 0.00365648 
1798 0.000282743 1 0.561142 0.324741 0.00299472 0 0 0 28.2734 0 -8.17911e-12 1.99861 0 1.03465e-12 0.42451 0.382048 0.00348224 
2022 0.000282743 1 0.150777 0.327677 0.00380478 0 0 0 28.2942 0 -0.0042301 2 0 -0.00277371 0.114064 0.385502 0.00442417 
677 0.000282743 1 0.165089 0.32702 0.00347634 0 0 0 28.2942 0 0.0871324 2 0 -0.00277371 0.124892 0.384729 0.00404226 
401 0.000282743 1 0.735617 0.326817 0.0034483 0 0 0 28.2942 0 -0.077988 2 0 -0.00277371 0.556502 0.38449 0.00400965 
1709 0.000282743 1 0.806469 0.327373 0.00297444 0 0 0 28.2716 0 -0.0769471 1.96734 0 0.0625466 0.610102 0.385144 0.00345865 
1869 0.000282743 1 0.828385 0.328117 0.00299398 0 0 0 28.4428 -0.0917283 -0.0718888 1.98678 -2.91458e-08 0.0236624 0.626683 0.38602 0.00348137 
2007 0.000282743 1 0.56643 0.332481 0.00296142 0 0 0 28.2334 0 -0.00357444 1.97142 0 0.0543825 0.428511 0.391154 0.00344351 
889 0.000282743 1 0.812554 0.331969 0.00299473 0 0 0 28.3287 -0.113567 1.70401e-06 1.99861 7.96402e-12 -1.08935e-06 0.614706 0.390551 0.00348224 
1352 0.000282743 1 0.819115 0.329447 0.00378088 0 0 0 28.2942 0 0.0286987 2 0 -0.00277371 0.619669 0.387585 0.00439637 
1496 0.000282743 1 0.842537 0.329645 0.00299472 0 0 0 28.2734 0 2.92156e-15 1.99861 0 0 0.637389 0.387817 0.00348224 
1236 0.000282743 1 0.0877844 0.333239 0.00299489 0 0 0 28.2768 0 0.000693122 1.99878 0 -0.000342606 0.0664099 0.392045 0.00348243 
2590 0.000282743 1 0.663279 0.333953 0.00299472 0 0 0 28.0477 0.142456 1.74564e-14 1.99861 2.7314e-21 -3.90313e-17 0.501778 0.392886 0.00348224 
2583 0.000282743 1 0.661078 0.343757 0.00299472 0 0 0 28.2734 0 1.70607e-08 1.99861 0 -3.75499e-09 0.500113 0.40442 0.00348224 
1892 0.000282743 1 0.383477 0.348409 0.00299472 0 0 0 28.2734 0 -1.37069e-14 1.99861 0 0 0.290104 0.409893 0.00348224 
2074 0.000282743 1 0.440496 0.349539 0.00314153 0 0 0 28.0141 0.335018 -0.0682735 2 0 -0.00277371 0.33324 0.411223 0.00365294 
95 0.000282743 1 0.7071 0.347146 0.00299475 0 0 0 28.2733 0 -3.68162e-05 1.99862 0 -1.22175e-05 0.534929 0.408407 0.00348227 
1785 0.000282743 1 0.410281 0.355491 0.00299472 0 0 0 28.2734 0 1.37561e-07 1.99861 0 -4.3186e-08 0.310382 0.418224 0.00348224 
551 0.000282743 1 0.788266 0.356596 0.00299472 0 0 0 28.1503 0.095599 2.0003e-11 1.99861 -1.91746e-15 2.65175e-11 0.596332 0.419524 0.00348224 
130 0.000282743 1 0.164896 0.363226 0.00299472 0 0 0 28.2734 0 8.4639e-15 1.99861 0 0 0.124746 0.427324 0.00348224 
1601 0.000282743 1 0.396287 0.363003 0.00367726 0 0 0 28.2599 0.0343134 -0.0780602 2 0 -0.00277371 0.299795 0.427062 0.00427589 
1535 0.000282743 1 0.554317 0.361707 0.00299472 0 0 0 28.2734 0 -7.05549e-15 1.99861 0 0 0.419347 0.425537 0.00348224 
1273 0.000282743 1 0.801726 0.362216 0.00299472 0 0 0 28.2734 0 2.97136e-14 1.99861 0 -7.2802e-15 0.606514 0.426136 0.00348224 
2253 0.000282743 1 0.490796 0.366363 0.00299472 0 0 0 28.2734 0 -9.75615e-14 1.99861 0 -1.56012e-14 0.371293 0.431015 0.00348224 
2998 0.000282743 1 0.464852 0.371522 0.00299472 0 0 0 28.2734 0 1.51819e-08 1.99861 0 6.56356e-09 0.351665 0.437085 0.00348224 
1754 0.000282743 1 0.251216 0.373992 0.00485153 0 0 0 28.1419 -0.0341775 0.423588 2 0 -0.00277371 0.190048 0.43999 0.00564132 
2273 0.000282743 1 0.329768 0.374454 0.00299472 0 0 0 28.2734 0 -1.25978e-14 1.99861 0 0 0.249473 0.440534 0.00348224 
1390 0.000282743 1 0.515477 0.378701 0.00299472 0 0 0 28.2734 0 1.17896e-14 1.99861 0 0 0.389964 0.445531 0.00348224 
1874 0.000282743 1 0.733148 0.377688 0.00299472 0 0 0 28.2734 0 1.06834e-14 1.99861 0 0 0.554635 0.444339 0.00348224 
1065 0.000282743 1 0.81255 0.379159 0.00299472 0 0 0 28.2734 0 -1.36338e-10 1.99861 0 2.02809e-10 0.614703 0.446069 0.00348224 
1818 0.000282743 1 0.84729 0.373759 0.00301736 0 0 0 0.661796 -10.2503 0.0259027 0.319925 0.0917885 -0.00267865 0.640984 0.439716 0.00350855 
161 0.000282743 1 0.112096 0.381082 0.00299461 0 0 0 28.2732 0 -2.94849e-05 1.99856 0 0.000103426 0.084802 0.448331 0.0034821 
2855 0.000282743 1 0.594235 0.382071 0.00306929 0 0 0 28.3555 -0.0717648 -0.114977 2 0 -0.00277371 0.449545 0.449496 0.00356894 
2064 0.000282743 1 0.622486 0.383106 0.00365408 0 0 0 28.2942 0 -0.0496566 2 0 -0.00277371 0.470917 0.450713 0.00424893 
2148 0.000282743 1 0.831869 0.382648 0.00299472 0 0 0 28.2734 0 1.41565e-11 1.99861 0 1.27394e-11 0.629318 0.450175 0.00348224 
1280 0.000282743 1 0.846215 0.382207 0.00299206 0 0 0 -3.7175 -1.3404 -0.00138663 2.00264 0.000946656 0.00284391 0.640171 0.449655 0.00347913 
417 0.000282743 1 0.590843 0.387393 0.00299475 0 0 0 28.3447 -0.0242255 -0.000135838 1.9986 1.32247e-09 2.36859e-05 0.446979 0.455756 0.00348227 
2655 0.000282743 1 0.681007 0.387301 0.00299472 0 0 0 28.2734 0 3.20241e-14 1.99861 0 -4.21364e-15 0.515189 0.455648 0.00348224 
2944 0.000282743 1 0.75585 0.386798 0.00379119 0 0 0 28.2942 0 0.0245266 2 0 -0.00277371 0.571809 0.455057 0.00440836 
800 0.000282743 1 0.77381 0.388414 0.00299472 0 0 0 28.2734 0 2.02616e-09 1.99861 0 3.25915e-10 0.585396 0.456958 0.00348224 
354 0.000282743 1 0.385097 0.389325 0.00299473 0 0 0 28.2734 0 4.97619e-06 1.99862 0 -4.365e-06 0.29133 0.458029 0.00348224 
2735 0.000282743 1 0.847424 0.391249 0.00375989 0 0 0 -0.0164359 0 0.0135672 0.0140143 0 -0.00188941 0.641086 0.460292 0.00437197 