ITEM: TIMESTEP
25100
ITEM: NUMBER OF ATOMS
3000
ITEM: BOX BOUNDS mm mm mm
0 0.864446
0 0.85
0 0.86
ITEM: ATOMS id mass type x y z ix iy iz vx vy vz fx fy fz xs ys zs 
2788 0.000282743 1 0.178368 0.00364332 0.00299472 0 0 0 7.06745 0 5.13963e-15 1.99861 0 0 0.206338 0.00428626 0.00348224 
1319 0.000282743 1 0.490006 0.00389763 0.00299472 0 0 0 7.06745 0 -1.58925e-14 1.99861 0 -9.97466e-18 0.566845 0.00458545 0.00348224 
24 0.000282743 1 0.276031 0.00725002 0.00452321 0 0 0 7.07355 0 0.70367 2 0 -0.00277371 0.319315 0.00852944 0.00525954 
315 0.000282743 1 0.445248 0.0078913 0.00299472 0 0 0 7.06745 0 1.17896e-14 1.99861 0 0 0.515068 0.00928389 0.00348224 
926 0.000282743 1 0.847466 0.00637354 0.00299481 0 0 0 5.54902 0 0.00231029 -5.64787 0 0.00927651 0.980358 0.00749829 0.00348233 
610 0.000282743 1 0.0812195 0.013257 0.00378505 0 0 0 7.07355 0 0.0177316 2 0 -0.00277371 0.0939556 0.0155965 0.00440122 
626 0.000282743 1 0.146103 0.0136063 0.00299472 0 0 0 7.06745 0 7.35628e-15 1.99861 0 0 0.169013 0.0160075 0.00348224 
229 0.000282743 1 0.353966 0.0159379 0.00341685 0 0 0 7.07355 0 0.0918404 2 0 -0.00277371 0.409472 0.0187505 0.00397308 
1485 0.000282743 1 0.522678 0.0121932 0.00299473 0 0 0 7.06745 0 -3.37792e-07 1.99861 0 -2.25568e-07 0.604639 0.0143449 0.00348224 
281 0.000282743 1 0.595707 0.0121888 0.00299472 0 0 0 7.06745 0 -7.0555e-15 1.99861 0 0 0.68912 0.0143397 0.00348224 
1922 0.000282743 1 0.628248 0.0120412 0.00299472 0 0 0 7.06555 0.0118845 1.97203e-12 1.99861 1.16893e-18 -4.21714e-13 0.726765 0.0141662 0.00348224 
2338 0.000282743 1 0.177361 0.0166446 0.00304268 0 0 0 7.07355 0 -0.00068594 2 0 -0.00277371 0.205173 0.0195819 0.003538 
2752 0.000282743 1 0.296257 0.0171987 0.00299472 0 0 0 7.06745 0 -1.59052e-14 1.99861 0 -3.4998e-16 0.342714 0.0202338 0.00348224 
662 0.000282743 1 0.0896623 0.0227621 0.00299472 0 0 0 7.06745 0 8.85409e-14 1.99861 0 -9.08752e-14 0.103722 0.026779 0.00348224 
136 0.000282743 1 0.760431 0.0228154 0.00378705 0 0 0 7.07355 0 -0.00411546 2 0 -0.00277371 0.879675 0.0268417 0.00440354 
312 0.000282743 1 0.777117 0.0237223 0.00299472 0 0 0 7.06745 0 -1.03798e-14 1.99861 0 0 0.898977 0.0279086 0.00348224 
2385 0.000282743 1 0.0297322 0.0271591 0.00299472 0 0 0 7.06745 0 -4.84163e-15 1.99861 0 0 0.0343945 0.0319519 0.00348224 
356 0.000282743 1 0.686745 0.0274179 0.00372774 0 0 0 7.07355 0 0.0415155 2 0 -0.00277371 0.794434 0.0322564 0.00433458 
2171 0.000282743 1 0.697059 0.0307014 0.00299472 0 0 0 7.06745 0 -9.27214e-15 1.99861 0 0 0.806365 0.0361193 0.00348224 
2212 0.000282743 1 0.80952 0.0291994 0.00348173 0 0 0 6.86089 0 0.721811 2 0 -0.00277371 0.936462 0.0343523 0.00404853 
2165 0.000282743 1 0.682594 0.0336834 0.00299472 0 0 0 7.06745 0 4.02921e-15 1.99861 0 0 0.789633 0.0396276 0.00348224 
1995 0.000282743 1 0.82834 0.0358753 0.00296935 0 0 0 5.19572 0 0.766412 1.53633 0 -0.333882 0.958233 0.0422062 0.00345273 
284 0.000282743 1 0.406716 0.0405785 0.00416433 0 0 0 7.07355 0 0.704027 2 0 -0.00277371 0.470494 0.0477394 0.00484225 
153 0.000282743 1 0.703533 0.0455722 0.00299472 0 0 0 7.06744 0 -1.37517e-06 1.99861 0 1.39954e-06 0.813854 0.0536144 0.00348224 
2946 0.000282743 1 0.0481931 0.0503255 0.00299472 0 0 0 7.06745 0 2.2789e-10 1.99861 0 -4.1678e-12 0.0557503 0.0592065 0.00348224 
2245 0.000282743 1 0.149392 0.0511328 0.00299472 0 0 0 7.06745 0 -4.02713e-16 1.99861 0 0 0.172818 0.0601563 0.00348224 
338 0.000282743 1 0.311482 0.0513337 0.00299472 0 0 0 7.06745 0 -1.51454e-15 1.99861 0 0 0.360326 0.0603925 0.00348224 
1949 0.000282743 1 0.554188 0.0494126 0.00299472 0 0 0 7.06745 0 1.4009e-14 1.99861 0 0 0.64109 0.0581325 0.00348224 
1304 0.000282743 1 0.170081 0.0557894 0.00346506 0 0 0 7.07355 0 -0.0743635 2 0 -0.00277371 0.196751 0.0656346 0.00402914 
954 0.000282743 1 0.739947 0.0549755 0.00299472 0 0 0 7.06745 0 2.0659e-14 1.99861 0 0 0.855978 0.064677 0.00348224 
2678 0.000282743 1 0.197088 0.0574585 0.0035445 0 0 0 7.07355 0 -0.0626239 2 0 -0.00277371 0.227993 0.0675982 0.00412151 
2170 0.000282743 1 0.336365 0.0584649 0.00299472 0 0 0 7.06745 0 1.28986e-14 1.99861 0 0 0.389111 0.0687823 0.00348224 
1124 0.000282743 1 0.39407 0.0586676 0.00299472 0 0 0 7.06745 0 1.51167e-14 1.99861 0 0 0.455865 0.0690207 0.00348224 
849 0.000282743 1 0.432304 0.0567479 0.00299472 0 0 0 7.06745 0 -8.7818e-14 1.99861 0 1.92077e-14 0.500094 0.0667623 0.00348224 
2717 0.000282743 1 0.516894 0.0597118 0.00299472 0 0 0 7.06107 -0.00913781 6.24725e-15 1.99861 3.42982e-22 0 0.597949 0.0702492 0.00348224 
2515 0.000282743 1 0.503108 0.0626138 0.00299472 0 0 0 7.06745 0 -1.03798e-14 1.99861 0 0 0.582001 0.0736633 0.00348224 
2174 0.000282743 1 0.720072 0.0611444 0.00299472 0 0 0 7.06745 0 2.0659e-14 1.99861 0 0 0.832987 0.0719345 0.00348224 
795 0.000282743 1 0.627887 0.0678211 0.00376044 0 0 0 7.08505 -0.0163322 0.0312252 2 0 -0.00277371 0.726346 0.0797896 0.00437261 
1156 0.000282743 1 0.6345 0.064281 0.00299472 0 0 0 7.06745 0 1.51153e-14 1.99861 0 0 0.733997 0.0756247 0.00348224 
2920 0.000282743 1 0.702472 0.0670631 0.00299472 0 0 0 7.06745 0 9.57294e-15 1.99861 0 0 0.812627 0.0788978 0.00348224 
1678 0.000282743 1 0.389165 0.0721212 0.00299472 0 0 0 7.06745 0 -2.61937e-15 1.99861 0 0 0.450191 0.0848485 0.00348224 
1599 0.000282743 1 0.592271 0.0709061 0.00299472 0 0 0 7.06745 0 1.0682e-14 1.99861 0 0 0.685146 0.083419 0.00348224 
367 0.000282743 1 0.207554 0.0743494 0.00299388 0 0 0 7.06652 0 -0.00123161 1.99807 0 0.00109045 0.2401 0.0874699 0.00348126 
2586 0.000282743 1 0.254032 0.0759655 0.00299472 0 0 0 7.06745 0 -1.14902e-14 1.99861 0 0 0.293866 0.0893711 0.00348224 
2800 0.000282743 1 0.139684 0.0791022 0.00299472 0 0 0 7.06745 0 1.5566e-10 1.99861 0 -6.38394e-11 0.161587 0.0930614 0.00348224 
1017 0.000282743 1 0.20017 0.0776333 0.00299472 0 0 0 7.06745 0 7.35628e-15 1.99861 0 0 0.231559 0.0913333 0.00348224 
1814 0.000282743 1 0.41946 0.0771766 0.00299472 0 0 0 7.06745 0 -7.05549e-15 1.99861 0 0 0.485235 0.090796 0.00348224 
2129 0.000282743 1 0.563191 0.0775321 0.00299472 0 0 0 7.06745 0 7.35628e-15 1.99861 0 0 0.651506 0.0912142 0.00348224 
2636 0.000282743 1 0.602795 0.0790148 0.00446466 0 0 0 7.07355 0 0.698512 2 0 -0.00277371 0.697319 0.0929586 0.00519147 
2996 0.000282743 1 0.244325 0.0806714 0.00299233 0 0 0 7.06878 0 -0.0218429 1.99384 0 0.00954778 0.282637 0.0949075 0.00347945 
1806 0.000282743 1 0.249686 0.0875507 0.00363932 0 0 0 7.07355 0 0.060175 2 0 -0.00277371 0.28884 0.103001 0.00423177 
2606 0.000282743 1 0.429221 0.0844638 0.00299473 0 0 0 7.06745 0 7.71789e-06 1.99862 0 -4.23409e-06 0.496527 0.0993692 0.00348224 
2881 0.000282743 1 0.53537 0.0859971 0.00284749 0 0 0 6.70132 -0.0841701 0.257083 1.94623 -0.0166178 0.123559 0.619322 0.101173 0.00331103 
876 0.000282743 1 0.586763 0.0863357 0.00301837 0 0 0 7.07355 0 -0.0217434 2 0 -0.00277371 0.678774 0.101571 0.00350973 
501 0.000282743 1 0.570392 0.0889575 0.00299472 0 0 0 7.06811 -0.0928269 1.55837e-12 1.99861 7.37017e-19 6.97808e-13 0.659835 0.104656 0.00348224 
1113 0.000282743 1 0.789029 0.0890043 0.00308408 0 0 0 6.90733 -0.0211443 -0.0687362 2 0 -0.00277371 0.912757 0.104711 0.00358613 
2182 0.000282743 1 0.798684 0.088742 0.00299472 0 0 0 7.03554 -0.0474681 -4.73247e-10 1.99861 2.59739e-16 -1.17145e-10 0.923927 0.104402 0.00348224 
2062 0.000282743 1 0.074599 0.0928605 0.00372134 0 0 0 7.07355 0 -0.0302409 2 0 -0.00277371 0.0862969 0.109248 0.00432713 
1907 0.000282743 1 0.81038 0.0974767 0.00299472 0 0 0 7.10698 0.0259884 -8.16592e-15 1.99861 3.09027e-125 0 0.937456 0.114678 0.00348224 
2548 0.000282743 1 0.162089 0.103172 0.00299472 0 0 0 7.06745 0 4.02921e-15 1.99861 0 0 0.187507 0.121379 0.00348224 
1743 0.000282743 1 0.572725 0.101361 0.00299472 0 0 0 7.09807 0.00182936 -8.16732e-15 1.99861 4.28727e-23 0 0.662535 0.119248 0.00348224 
676 0.000282743 1 0.66574 0.101408 0.00299531 0 0 0 6.7741 0 0.13549 1.98076 0 -0.0412606 0.770135 0.119304 0.00348292 
1973 0.000282743 1 0.727104 0.102872 0.00299472 0 0 0 7.06745 0 1.82144e-11 1.99861 0 -6.72618e-12 0.841122 0.121026 0.00348224 
1747 0.000282743 1 0.145703 0.104694 0.00299472 0 0 0 7.06744 0 1.38319e-05 1.99861 0 -1.3545e-06 0.168551 0.123169 0.00348223 
1183 0.000282743 1 0.641937 0.107623 0.00299472 0 0 0 7.06745 0 1.80974e-15 1.99861 0 0 0.7426 0.126615 0.00348224 
1692 0.000282743 1 0.655039 0.105908 0.00341895 0 0 0 7.07355 0 -0.0783351 2 0 -0.00277371 0.757757 0.124598 0.00397552 
1735 0.000282743 1 0.743035 0.105958 0.00299472 0 0 0 7.06745 0 -7.24496e-08 1.99861 0 1.42893e-07 0.859551 0.124656 0.00348224 
886 0.000282743 1 0.658425 0.112226 0.00299472 0 0 0 7.06745 0 2.92157e-15 1.99861 0 0 0.761673 0.132031 0.00348224 
220 0.000282743 1 0.75492 0.108588 0.00299472 0 0 0 7.06744 0 -1.75578e-06 1.99861 0 1.42792e-06 0.8733 0.12775 0.00348224 
2801 0.000282743 1 0.110353 0.115869 0.00299472 0 0 0 7.06745 0 1.02488e-13 1.99861 0 1.84065e-13 0.127657 0.136317 0.00348224 
1801 0.000282743 1 0.349113 0.113038 0.00299472 0 0 0 7.06745 0 -2.11912e-08 1.99861 0 1.73028e-08 0.403858 0.132986 0.00348224 
140 0.000282743 1 0.473071 0.114857 0.00299472 0 0 0 7.06745 0 -7.05549e-15 1.99861 0 0 0.547253 0.135126 0.00348224 
1963 0.000282743 1 0.605777 0.11253 0.00299472 0 0 0 7.06745 0 -4.02723e-16 1.99861 0 0 0.700769 0.132388 0.00348224 
2449 0.000282743 1 0.688773 0.112484 0.00333701 0 0 0 7.07355 0 0.100854 2 0 -0.00277371 0.79678 0.132334 0.00388024 
934 0.000282743 1 0.804888 0.114351 0.00299472 0 0 0 7.06745 0 -4.02724e-16 1.99861 0 0 0.931103 0.13453 0.00348224 
392 0.000282743 1 0.190513 0.116778 0.00299472 0 0 0 7.06745 0 8.4639e-15 1.99861 0 0 0.220387 0.137385 0.00348224 
1400 0.000282743 1 0.281044 0.118653 0.00365398 0 0 0 7.07355 0 -0.0444774 2 0 -0.00277371 0.325115 0.139592 0.00424881 
2620 0.000282743 1 0.237547 0.122546 0.00299472 0 0 0 7.06745 0 1.88656e-08 1.99861 0 8.70474e-10 0.274797 0.144171 0.00348224 
2955 0.000282743 1 0.332323 0.121181 0.00299473 0 0 0 7.06745 0 9.58921e-07 1.99861 0 -4.47525e-07 0.384435 0.142565 0.00348224 
2869 0.000282743 1 0.512854 0.121429 0.00299473 0 0 0 6.83621 -0.0239456 4.60615e-08 1.99861 -4.98006e-13 -2.33848e-07 0.593275 0.142857 0.00348224 
2063 0.000282743 1 0.626816 0.121177 0.00299472 0 0 0 7.06745 0 6.24586e-15 1.99861 0 0 0.725108 0.142561 0.00348224 
2918 0.000282743 1 0.353517 0.125633 0.00371362 0 0 0 7.07355 0 0.0448282 2 0 -0.00277371 0.408953 0.147804 0.00431816 
2312 0.000282743 1 0.810553 0.125933 0.00299472 0 0 0 7.06745 0 -1.4813e-14 1.99861 0 -1.30104e-18 0.937656 0.148157 0.00348224 
1860 0.000282743 1 0.11177 0.130739 0.00299473 0 0 0 7.06744 0 1.09375e-05 1.99861 0 -3.52775e-06 0.129296 0.153811 0.00348224 
719 0.000282743 1 0.518364 0.130374 0.00299472 0 0 0 6.97255 0.0181812 8.30277e-11 1.99861 -6.01697e-17 7.22164e-11 0.59965 0.153381 0.00348224 
1378 0.000282743 1 0.694135 0.132815 0.0036925 0 0 0 7.07355 0 0.0497401 2 0 -0.00277371 0.802983 0.156252 0.0042936 
202 0.000282743 1 0.101605 0.137364 0.00299471 0 0 0 7.06743 0 1.10035e-05 1.99861 0 4.86027e-06 0.117537 0.161605 0.00348223 
2160 0.000282743 1 0.408446 0.137918 0.00299472 0 0 0 6.97224 -0.116954 -1.14916e-14 1.99861 -5.48771e-21 0 0.472495 0.162257 0.00348224 
1451 0.000282743 1 0.526473 0.138335 0.00299472 0 0 0 7.02042 0.253923 -1.61907e-06 1.99861 -3.23244e-11 9.1269e-07 0.60903 0.162747 0.00348224 
768 0.000282743 1 0.765289 0.136757 0.00299472 0 0 0 7.06745 0 -1.23471e-11 1.99861 0 2.14296e-11 0.885295 0.16089 0.00348224 
2451 0.000282743 1 0.00663036 0.14389 0.00360012 0 0 0 7.07355 0 -0.0541286 2 0 -0.00277371 0.00767007 0.169282 0.00418619 
1582 0.000282743 1 0.255603 0.143686 0.00299472 0 0 0 7.06745 0 -6.8932e-10 1.99861 0 -2.33601e-11 0.295685 0.169042 0.00348224 
410 0.000282743 1 0.474391 0.144092 0.00303945 0 0 0 7.07355 0 0.00885143 2 0 -0.00277371 0.54878 0.169519 0.00353424 
1246 0.000282743 1 0.0643538 0.149009 0.00299472 0 0 0 7.08647 0.0126758 -2.37065e-12 1.99861 -1.173e-18 1.97762e-13 0.0744452 0.175304 0.00348224 
2461 0.000282743 1 0.4623 0.148491 0.00299461 0 0 0 7.06727 0 4.29947e-05 1.99857 0 7.68936e-05 0.534794 0.174695 0.00348211 
2448 0.000282743 1 0.73009 0.149093 0.00299472 0 0 0 7.06745 0 -1.92506e-14 1.99861 0 0 0.844577 0.175404 0.00348224 
233 0.000282743 1 0.78726 0.148976 0.00302987 0 0 0 7.07648 -0.0184066 0.0369365 2 0 -0.00277371 0.910711 0.175266 0.00352311 
2991 0.000282743 1 0.490521 0.153952 0.00299472 0 0 0 7.06745 0 2.93446e-13 1.99861 0 -3.23496e-14 0.56744 0.181119 0.00348224 
1051 0.000282743 1 0.738186 0.153803 0.00334844 0 0 0 7.07355 0 0.0996582 2 0 -0.00277371 0.853942 0.180945 0.00389353 
1576 0.000282743 1 0.562286 0.15931 0.00299472 0 0 0 7.06745 0 8.46391e-15 1.99861 0 0 0.650459 0.187424 0.00348224 
2643 0.000282743 1 0.579886 0.158048 0.00299472 0 0 0 7.06745 0 1.92363e-11 1.99861 0 8.93177e-12 0.670818 0.185939 0.00348224 
55 0.000282743 1 0.0420427 0.161299 0.00306723 0 0 0 5.71724 0 0.728499 2 0 -0.00277371 0.0486354 0.189764 0.00356655 
1415 0.000282743 1 0.17383 0.161792 0.00302296 0 0 0 7.07355 0 -0.0192197 2 0 -0.00277371 0.201088 0.190344 0.00351508 
1669 0.000282743 1 0.258487 0.163659 0.00299472 0 0 0 7.06745 0 -1.48173e-14 1.99861 0 0 0.299021 0.19254 0.00348224 
1592 0.000282743 1 0.193601 0.165431 0.00299472 0 0 0 7.06745 0 -1.48152e-14 1.99861 0 -4.33681e-19 0.223959 0.194625 0.00348224 
2682 0.000282743 1 0.265315 0.164924 0.00299472 0 0 0 7.06745 0 1.17896e-14 1.99861 0 0 0.306919 0.194028 0.00348224 
2962 0.000282743 1 0.458812 0.168313 0.00299472 0 0 0 7.06745 0 5.13963e-15 1.99861 0 0 0.530758 0.198015 0.00348224 
344 0.000282743 1 0.517229 0.167356 0.00301883 0 0 0 7.07355 0 -0.0211788 2 0 -0.00277371 0.598336 0.196889 0.00351026 
989 0.000282743 1 0.100663 0.171386 0.00356641 0 0 0 7.3725 0.184532 -3.42707e-05 2 0 -0.00277371 0.116448 0.201631 0.00414698 
330 0.000282743 1 0.248487 0.168256 0.00299473 0 0 0 7.22774 -0.198191 -2.86847e-07 1.99861 -1.78139e-11 -1.19939e-06 0.287452 0.197948 0.00348224 
826 0.000282743 1 0.81622 0.171297 0.00299472 0 0 0 7.06745 0 8.46389e-15 1.99861 0 0 0.944212 0.201525 0.00348224 
543 0.000282743 1 0.0417306 0.17302 0.00303207 0 0 0 7.07355 0 0.01553 2 0 -0.00277371 0.0482744 0.203553 0.00352567 
1293 0.000282743 1 0.306938 0.174331 0.00299472 0 0 0 7.06745 0 1.81113e-15 1.99861 0 0 0.355069 0.205096 0.00348224 
221 0.000282743 1 0.366919 0.172561 0.00299472 0 0 0 7.06745 0 6.24724e-15 1.99861 0 0 0.424456 0.203013 0.00348224 
113 0.000282743 1 0.379057 0.174128 0.00299472 0 0 0 7.06745 0 -3.73119e-15 1.99861 0 0 0.438497 0.204856 0.00348224 
178 0.000282743 1 0.615899 0.174539 0.00302474 0 0 0 7.07355 0 -0.454819 2 0 -0.00277371 0.712479 0.20534 0.00351714 
2278 0.000282743 1 0.2639 0.179744 0.00299472 0 0 0 7.06745 0 -1.37069e-14 1.99861 0 0 0.305282 0.211463 0.00348224 
2281 0.000282743 1 0.398724 0.179038 0.00298762 0 0 0 6.99562 0 0.0416952 1.99699 0 -0.00878736 0.461248 0.210633 0.00347398 
418 0.000282743 1 0.666419 0.176458 0.00299472 0 0 0 7.06745 0 2.04396e-10 1.99861 0 5.50855e-11 0.770921 0.207597 0.00348224 
921 0.000282743 1 0.812228 0.178483 0.00329532 0 0 0 7.07355 0 0.105022 2 0 -0.00277371 0.939594 0.20998 0.00383176 
1998 0.000282743 1 0.108894 0.183085 0.00325255 0 0 0 7.07355 0 -0.0963345 2 0 -0.00277371 0.125969 0.215394 0.00378203 
2976 0.000282743 1 0.241349 0.187994 0.00299472 0 0 0 7.08588 -0.00281716 8.4639e-15 1.99861 -1.96163e-126 0 0.279195 0.221169 0.00348224 
538 0.000282743 1 0.637598 0.185197 0.00299472 0 0 0 7.01874 -0.149661 3.64115e-07 1.99861 -2.09181e-12 -2.80575e-08 0.737581 0.217879 0.00348224 
1164 0.000282743 1 0.450867 0.190031 0.00299472 0 0 0 7.33172 0.324661 -6.44982e-07 1.99861 -2.99173e-11 8.64837e-07 0.521568 0.223566 0.00348224 
87 0.000282743 1 0.514445 0.189503 0.00299472 0 0 0 7.06745 0 7.35628e-15 1.99861 0 0 0.595115 0.222945 0.00348224 
2327 0.000282743 1 0.560521 0.192086 0.00300942 0 0 0 7.07355 0 -0.0252288 2 0 -0.00277371 0.648417 0.225984 0.00349933 
2888 0.000282743 1 0.216939 0.194166 0.00299473 0 0 0 6.94005 0.0698881 -0.00017786 1.99859 -7.06291e-10 5.17478e-05 0.250957 0.22843 0.00348224 
371 0.000282743 1 0.299808 0.193043 0.00299472 0 0 0 7.06745 0 1.29e-14 1.99861 0 0 0.346821 0.22711 0.00348224 
2202 0.000282743 1 0.0956444 0.202405 0.00374581 0 0 0 7.07355 0 0.0355845 2 0 -0.00277371 0.110642 0.238123 0.0043556 
2830 0.000282743 1 0.503218 0.204474 0.00299472 0 0 0 7.06745 0 -1.03798e-14 1.99861 0 0 0.582128 0.240558 0.00348224 
961 0.000282743 1 0.799279 0.208214 0.00299472 0 0 0 7.06745 0 -1.37069e-14 1.99861 0 0 0.924615 0.244958 0.00348224 
1172 0.000282743 1 0.0564463 0.211557 0.00299472 0 0 0 7.06744 0 1.12446e-05 1.99861 0 -3.38188e-06 0.0652977 0.24889 0.00348224 
2621 0.000282743 1 0.11319 0.209732 0.00299472 0 0 0 7.06745 0 -7.05689e-15 1.99861 0 0 0.13094 0.246743 0.00348224 
2109 0.000282743 1 0.325349 0.210491 0.00299472 0 0 0 7.06745 0 2.06604e-14 1.99861 0 0 0.376367 0.247637 0.00348224 
1885 0.000282743 1 0.345127 0.209041 0.00407856 0 0 0 7.07355 0 0.711227 2 0 -0.00277371 0.399247 0.245931 0.00474251 
1957 0.000282743 1 0.82925 0.213694 0.00292156 0 0 0 5.12552 0 0.841382 1.59021 0 -0.357331 0.959285 0.251405 0.00339717 
2297 0.000282743 1 0.0471121 0.216828 0.00299472 0 0 0 7.09804 -0.0188337 6.38832e-07 1.99861 4.03398e-13 5.06641e-07 0.0544998 0.255092 0.00348224 
2132 0.000282743 1 0.476415 0.218281 0.00299472 0 0 0 7.06745 0 -8.16593e-15 1.99861 0 0 0.551122 0.256801 0.00348224 
1444 0.000282743 1 0.719124 0.218083 0.0034422 0 0 0 7.07355 0 0.089189 2 0 -0.00277371 0.83189 0.256568 0.00400256 
145 0.000282743 1 0.0087168 0.221412 0.00299473 0 0 0 7.10741 0.019198 6.92008e-06 1.99861 8.72775e-12 -2.82475e-06 0.0100837 0.260485 0.00348224 
2512 0.000282743 1 0.700172 0.222461 0.00317566 0 0 0 7.35028 -0.385685 -0.149395 2 0 -0.00277371 0.809967 0.261719 0.00369263 
254 0.000282743 1 0.399293 0.224656 0.00304145 0 0 0 7.07355 0 -0.00528996 2 0 -0.00277371 0.461906 0.264301 0.00353656 
2849 0.000282743 1 0.544083 0.227689 0.00299472 0 0 0 7.06745 0 9.61496e-12 1.99861 0 -7.70023e-12 0.629402 0.267869 0.00348224 
296 0.000282743 1 0.572842 0.225055 0.00317315 0 0 0 6.71149 -0.409167 0.0383507 2 0 -0.00277371 0.662669 0.264771 0.0036897 
256 0.000282743 1 0.678712 0.227282 0.00299472 0 0 0 7.06745 0 1.4009e-14 1.99861 0 0 0.785141 0.26739 0.00348224 
2268 0.000282743 1 0.714013 0.228448 0.00299472 0 0 0 7.06745 0 2.15209e-12 1.99861 0 -6.66788e-12 0.825978 0.268762 0.00348224 
757 0.000282743 1 0.655421 0.240002 0.00305412 0 0 0 7.19035 0.417477 0.0927736 2 0 -0.00277371 0.758199 0.282355 0.00355131 
887 0.000282743 1 0.847868 0.240451 0.00299369 0 0 0 -0.347175 -0.0553635 -0.0025202 -3.4583 -0.00103726 0.00106977 0.980823 0.282883 0.00348103 
2986 0.000282743 1 0.678636 0.242595 0.00299472 0 0 0 7.06972 -0.198296 2.41821e-09 1.99861 -9.51099e-14 -4.86716e-09 0.785053 0.285406 0.00348224 
188 0.000282743 1 0.812791 0.24348 0.00299472 0 0 0 7.0933 -0.0558365 -1.14902e-14 1.99861 -6.17859e-125 0 0.940246 0.286447 0.00348224 
2563 0.000282743 1 0.692185 0.250166 0.00334262 0 0 0 7.36504 0.0378063 -0.06678 2 0 -0.00277371 0.800727 0.294313 0.00388676 
1096 0.000282743 1 0.788712 0.249488 0.00299483 0 0 0 7.0677 0 -0.000375894 1.9986 0 3.0626e-05 0.912391 0.293515 0.00348236 
399 0.000282743 1 0.672543 0.253177 0.00299472 0 0 0 7.06745 0 -7.05548e-15 1.99861 0 0 0.778005 0.297855 0.00348224 
253 0.000282743 1 0.272199 0.260054 0.00299472 0 0 0 7.06745 0 1.73319e-14 1.99861 0 0 0.314882 0.305946 0.00348224 
185 0.000282743 1 0.429282 0.259601 0.00299472 0 0 0 7.06745 0 2.33438e-14 1.99861 0 -1.14943e-14 0.496598 0.305413 0.00348224 
211 0.000282743 1 0.513437 0.256715 0.00299472 0 0 0 7.06745 0 -1.03812e-14 1.99861 0 0 0.59395 0.302018 0.00348224 
2020 0.000282743 1 0.716951 0.258997 0.00378214 0 0 0 7.07355 0 0.00278081 2 0 -0.00277371 0.829377 0.304702 0.00439784 
2140 0.000282743 1 0.570363 0.26346 0.003091 0 0 0 7.12345 -0.170581 0.00219664 2 0 -0.00277371 0.659802 0.309953 0.00359418 
1897 0.000282743 1 0.58364 0.263065 0.00299417 0 0 0 7.46699 -0.41974 -0.000509134 1.99831 3.559e-08 0.000613502 0.675161 0.309488 0.00348159 
1100 0.000282743 1 0.782581 0.264327 0.00316722 0 0 0 6.99271 -0.0864587 -0.0581664 2 0 -0.00277371 0.905298 0.310973 0.00368281 
2290 0.000282743 1 0.60906 0.26599 0.00299472 0 0 0 7.23861 0.193438 2.05554e-06 1.99861 -5.40822e-12 1.1345e-06 0.704567 0.312929 0.00348224 
1831 0.000282743 1 0.796267 0.266649 0.00299475 0 0 0 6.62551 0.189503 1.22363e-05 1.99862 3.82913e-10 -1.99015e-05 0.92113 0.313705 0.00348226 
1816 0.000282743 1 0.317366 0.27068 0.00351967 0 0 0 7.07355 0 0.0791538 2 0 -0.00277371 0.367132 0.318447 0.00409264 
2558 0.000282743 1 0.558499 0.269412 0.00299371 0 0 0 7.066 -0.00401306 -0.0631537 1.97799 -0.0461589 -0.585228 0.646078 0.316956 0.00348106 
2901 0.000282743 1 0.0616122 0.273057 0.00345237 0 0 0 7.07355 0 0.0880913 2 0 -0.00277371 0.0712736 0.321243 0.00401439 
823 0.000282743 1 0.538877 0.273054 0.00299472 0 0 0 7.06745 0 7.67824e-10 1.99861 0 -6.33845e-10 0.623379 0.32124 0.00348224 
1670 0.000282743 1 0.125033 0.28049 0.00314566 0 0 0 7.07355 0 -0.106225 2 0 -0.00277371 0.144639 0.329989 0.00365775 
2522 0.000282743 1 0.301482 0.277552 0.00299472 0 0 0 7.06745 0 -7.05688e-15 1.99861 0 0 0.348758 0.326531 0.00348224 
63 0.000282743 1 0.347151 0.281348 0.00299472 0 0 0 7.06745 0 -7.72303e-14 1.99861 0 2.58968e-14 0.401588 0.330997 0.00348224 
1438 0.000282743 1 0.817784 0.281012 0.00299472 0 0 0 7.40368 0.0773026 8.34641e-13 1.99861 1.93369e-16 -2.99264e-11 0.946022 0.330603 0.00348224 
1887 0.000282743 1 0.0295856 0.286407 0.00298613 0 0 0 7.04773 0 0.00111562 1.99428 0 0.00867158 0.034225 0.336949 0.00347225 
526 0.000282743 1 0.0753459 0.287679 0.00347935 0 0 0 7.08814 -0.212308 0.480357 2 0 -0.00277371 0.087161 0.338446 0.00404576 
2585 0.000282743 1 0.101119 0.287014 0.00319011 0 0 0 6.92356 -0.206282 0.0127579 2 0 -0.00277371 0.116975 0.337663 0.00370944 
1911 0.000282743 1 0.132767 0.285594 0.00299472 0 0 0 7.06745 0 1.51167e-14 1.99861 0 0 0.153586 0.335993 0.00348224 
706 0.000282743 1 0.161392 0.286103 0.00299472 0 0 0 7.06745 0 -5.92948e-08 1.99861 0 1.40764e-07 0.1867 0.336592 0.00348224 
2507 0.000282743 1 0.348567 0.288627 0.00299472 0 0 0 7.06745 0 -1.37083e-14 1.99861 0 0 0.403226 0.339562 0.00348224 
2737 0.000282743 1 0.800419 0.284915 0.00341239 0 0 0 7.07848 0.113455 -0.0188838 2 0 -0.00277371 0.925934 0.335194 0.00396789 
987 0.000282743 1 0.0207494 0.291819 0.00324125 0 0 0 7.07355 0 -0.0969815 2 0 -0.00277371 0.0240031 0.343316 0.0037689 
1265 0.000282743 1 0.191876 0.289256 0.00299467 0 0 0 6.18479 -0.383281 -0.00177083 1.99832 4.72246e-08 0.000592526 0.221964 0.340301 0.00348218 
1696 0.000282743 1 0.796614 0.289633 0.00299477 0 0 0 7.09131 0.139312 5.85645e-05 1.99864 8.18861e-10 -4.99424e-05 0.921532 0.340745 0.00348228 
2206 0.000282743 1 0.297064 0.296149 0.00299472 0 0 0 7.01522 -0.133467 -1.62187e-07 1.99861 7.47651e-13 4.94767e-09 0.343647 0.348411 0.00348224 
2838 0.000282743 1 0.686808 0.296926 0.00299473 0 0 0 7.06743 0 9.20291e-05 1.99863 0 -3.46775e-05 0.794507 0.349325 0.00348225 
818 0.000282743 1 0.0478035 0.301929 0.00299472 0 0 0 7.06745 0 5.13823e-15 1.99861 0 0 0.0552996 0.35521 0.00348224 
2407 0.000282743 1 0.172823 0.304103 0.00299472 0 0 0 7.06745 0 -1.51454e-15 1.99861 0 0 0.199923 0.357769 0.00348224 
1751 0.000282743 1 0.656695 0.304643 0.00299472 0 0 0 7.1841 -0.0736444 1.73319e-14 1.99861 -5.48771e-21 0 0.759672 0.358404 0.00348224 
1687 0.000282743 1 0.815268 0.302075 0.00299613 0 0 0 7.12395 -0.0416125 -0.00854726 1.9979 2.86713e-09 0.00141899 0.943111 0.355383 0.00348387 
2457 0.000282743 1 0.36895 0.305371 0.00299472 0 0 0 7.06745 0 1.41504e-07 1.99861 0 -3.94019e-08 0.426805 0.359261 0.00348224 
2082 0.000282743 1 0.381593 0.30527 0.00299473 0 0 0 7.06745 0 -1.62313e-07 1.99861 0 -3.15476e-07 0.441431 0.359142 0.00348224 
1274 0.000282743 1 0.710534 0.305677 0.0030336 0 0 0 6.95087 0 0.128628 2 0 -0.00277371 0.821953 0.359621 0.00352744 
2380 0.000282743 1 0.45791 0.312551 0.00299472 0 0 0 7.06745 0 7.0632e-16 1.99861 0 0 0.529715 0.367707 0.00348224 
468 0.000282743 1 0.730255 0.310431 0.00379028 0 0 0 7.07355 0 0.0114417 2 0 -0.00277371 0.844767 0.365213 0.0044073 
2146 0.000282743 1 0.505403 0.315994 0.00365341 0 0 0 7.07355 0 -0.0455759 2 0 -0.00277371 0.584656 0.371757 0.00424815 
1032 0.000282743 1 0.795316 0.317891 0.0036565 0 0 0 6.80801 0.210487 -0.139656 2 0 -0.00277371 0.92003 0.373989 0.00425174 
1872 0.000282743 1 0.127041 0.322679 0.00303311 0 0 0 7.34801 0.396509 0.0518684 2 0 -0.00277371 0.146962 0.379623 0.00352688 
1798 0.000282743 1 0.508131 0.324741 0.00299472 0 0 0 7.06745 0 -4.19989e-12 1.99861 0 1.95724e-11 0.587811 0.382048 0.00348224 
2022 0.000282743 1 0.0977254 0.327677 0.00377333 0 0 0 7.07355 0 0.0251999 2 0 -0.00277371 0.11305 0.385502 0.00438759 
677 0.000282743 1 0.112038 0.32702 0.0031708 0 0 0 7.07355 0 0.116562 2 0 -0.00277371 0.129607 0.384729 0.00368697 
401 0.000282743 1 0.682565 0.326817 0.00363812 0 0 0 7.07355 0 -0.048558 2 0 -0.00277371 0.789599 0.38449 0.00423037 
1709 0.000282743 1 0.753419 0.327373 0.00329158 0 0 0 7.07355 0 -0.0926553 2 0 -0.00277371 0.871564 0.385144 0.00382741 
1869 0.000282743 1 0.774879 0.328392 0.003183 0 0 0 7.22506 -0.0917282 -0.0483596 2 0 -0.00277371 0.896389 0.386344 0.00370116 
2007 0.000282743 1 0.513395 0.332481 0.00326009 0 0 0 7.07355 0 -0.0957799 2 0 -0.00277371 0.593901 0.391154 0.0037908 
889 0.000282743 1 0.759377 0.332309 0.00299473 0 0 0 7.1228 -0.113567 -9.24848e-06 1.99861 8.61203e-12 -2.66495e-06 0.878455 0.390952 0.00348225 
1352 0.000282743 1 0.766063 0.329447 0.00365064 0 0 0 7.07355 0 0.0581287 2 0 -0.00277371 0.88619 0.387585 0.00424493 
1496 0.000282743 1 0.789526 0.329645 0.00299472 0 0 0 7.06745 0 2.92156e-15 1.99861 0 0 0.913332 0.387817 0.00348224 
1236 0.000282743 1 0.0347606 0.333239 0.00299743 0 0 0 7.07251 0 -0.00256831 1.9992 0 -0.00117423 0.0402114 0.392045 0.00348538 
2590 0.000282743 1 0.610944 0.333525 0.00299472 0 0 0 6.84179 0.142456 2.06987e-14 1.99861 1.09754e-20 -1.04474e-15 0.706747 0.392383 0.00348224 
2583 0.000282743 1 0.608067 0.343757 0.00299472 0 0 0 7.06745 0 -9.76578e-09 1.99861 0 -3.82409e-08 0.703418 0.40442 0.00348224 
1892 0.000282743 1 0.330465 0.348409 0.00299472 0 0 0 7.06745 0 -1.37069e-14 1.99861 0 0 0.382286 0.409893 0.00348224 
2074 0.000282743 1 0.388285 0.348534 0.00330221 0 0 0 6.79343 0.335018 -0.0388435 2 0 -0.00277371 0.449172 0.41004 0.00383977 
95 0.000282743 1 0.654089 0.347146 0.00299466 0 0 0 7.06741 0 -0.000215672 1.99856 0 0.000115621 0.756658 0.408407 0.00348217 
1785 0.000282743 1 0.35727 0.355491 0.00299473 0 0 0 7.06745 0 -2.28264e-07 1.99861 0 -2.87465e-07 0.413294 0.418224 0.00348224 
551 0.000282743 1 0.735624 0.356309 0.00299472 0 0 0 6.94436 0.095599 3.4666e-10 1.99861 -7.65086e-15 -9.48132e-11 0.850978 0.419187 0.00348224 
130 0.000282743 1 0.111885 0.363226 0.00299472 0 0 0 7.06745 0 8.4639e-15 1.99861 0 0 0.129429 0.427324 0.00348224 
1601 0.000282743 1 0.343338 0.3629 0.0038673 0 0 0 7.03921 0.0343134 -0.0486302 2 0 -0.00277371 0.397177 0.426941 0.00449686 
1535 0.000282743 1 0.501306 0.361707 0.00299472 0 0 0 7.06745 0 -7.05549e-15 1.99861 0 0 0.579916 0.425537 0.00348224 
1273 0.000282743 1 0.748714 0.362216 0.00299472 0 0 0 7.06745 0 4.11249e-15 1.99861 0 -7.50008e-14 0.866121 0.426136 0.00348224 
2253 0.000282743 1 0.437785 0.366363 0.00299472 0 0 0 7.06745 0 -3.73781e-13 1.99861 0 2.79196e-13 0.506434 0.431015 0.00348224 
2998 0.000282743 1 0.41184 0.371522 0.00299472 0 0 0 7.06745 0 1.06034e-07 1.99861 0 -5.00421e-08 0.476422 0.437085 0.00348224 
1754 0.000282743 1 0.198621 0.374094 0.00353662 0 0 0 6.92127 -0.0341775 0.453018 2 0 -0.00277371 0.229767 0.440111 0.00411235 
2273 0.000282743 1 0.276757 0.374454 0.00299472 0 0 0 7.06745 0 -1.25978e-14 1.99861 0 0 0.320156 0.440534 0.00348224 
1390 0.000282743 1 0.462466 0.378701 0.00299472 0 0 0 7.06745 0 1.17896e-14 1.99861 0 0 0.534985 0.445531 0.00348224 
1874 0.000282743 1 0.680137 0.377688 0.00299472 0 0 0 7.06745 0 1.06834e-14 1.99861 0 0 0.78679 0.444339 0.00348224 
1065 0.000282743 1 0.759538 0.379159 0.00299472 0 0 0 7.06745 0 2.0795e-09 1.99861 0 2.62473e-11 0.878642 0.446069 0.00348224 
1818 0.000282743 1 0.81298 0.380627 0.002989 0 0 0 7.04592 0 0.00955867 1.99759 0 0.00205045 0.940464 0.447796 0.00347558 
161 0.000282743 1 0.0590857 0.381082 0.00299441 0 0 0 7.06667 0 0.00112962 1.99866 0 -0.000100674 0.068351 0.448331 0.00348187 
2855 0.000282743 1 0.541 0.382287 0.00337007 0 0 0 7.13484 -0.0717648 -0.0855472 2 0 -0.00277371 0.625834 0.449749 0.00391869 
2064 0.000282743 1 0.569434 0.383106 0.00375891 0 0 0 7.07355 0 -0.0202266 2 0 -0.00277371 0.658727 0.450713 0.00437082 
2148 0.000282743 1 0.778858 0.382648 0.00299472 0 0 0 7.06745 0 1.75544e-10 1.99861 0 -5.73647e-11 0.900991 0.450175 0.00348224 
1280 0.000282743 1 0.819267 0.382849 0.00299472 0 0 0 7.06745 0 -5.94646e-15 1.99861 0 0 0.947736 0.450411 0.00348224 
417 0.000282743 1 0.537618 0.387465 0.00299433 0 0 0 7.13864 -0.0242256 3.58866e-06 1.99845 6.27208e-09 0.000319507 0.621923 0.455841 0.00348178 
2655 0.000282743 1 0.627995 0.387301 0.00299472 0 0 0 7.06745 0 3.57897e-14 1.99861 0 -8.2421e-14 0.726472 0.455648 0.00348224 
2944 0.000282743 1 0.702798 0.386798 0.00367347 0 0 0 7.07355 0 0.0539566 2 0 -0.00277371 0.813005 0.455057 0.00427147 
800 0.000282743 1 0.720799 0.388414 0.00299472 0 0 0 7.06745 0 7.78029e-09 1.99861 0 -5.78937e-09 0.833828 0.456958 0.00348224 
354 0.000282743 1 0.332086 0.389325 0.00299475 0 0 0 7.06749 0 -4.07205e-05 1.99862 0 -5.87824e-06 0.384161 0.458029 0.00348227 
2735 0.000282743 1 0.847876 0.391249 0.00368962 0 0 0 -0.293971 0 0.0268734 -3.68657 0 0.00367147 0.980833 0.460292 0.00429025 
2242 0.000282743 1 0.206056 0.397517 0.00299472 0 0 0 7.06745 0 6.87085e-09 1.99861 0 -5.76758e-09 0.238368 0.467668 0.00348224 