ITEM: TIMESTEP
25600
ITEM: NUMBER OF ATOMS
3000
ITEM: BOX BOUNDS mm mm mm
0 1.98024
0 0.85
0 0.86
ITEM: ATOMS id mass type x y z ix iy iz vx vy vz fx fy fz xs ys zs 
2788 0.000282743 1 0.302064 0.00364332 0.00299472 0 0 0 42.4107 0 5.13963e-15 1.99861 0 0 0.152539 0.00428626 0.00348224 
1319 0.000282743 1 0.613702 0.00389763 0.00299472 0 0 0 42.4107 0 -1.59235e-14 1.99861 0 0 0.309912 0.00458545 0.00348224 
24 0.000282743 1 0.399818 0.00725002 0.00791893 0 0 0 42.4413 0 0.65462 2 0 -0.00277371 0.201903 0.00852944 0.00920806 
315 0.000282743 1 0.568944 0.0078913 0.00299472 0 0 0 42.4107 0 1.17896e-14 1.99861 0 0 0.28731 0.00928389 0.00348224 
926 0.000282743 1 0.880101 0.0140953 0.00295675 0 0 0 33.9718 7.84188 0.462119 1.91786 -0.034024 -0.180594 0.444441 0.0165827 0.00343809 
610 0.000282743 1 0.205007 0.013257 0.00375108 0 0 0 42.4413 0 -0.0313184 2 0 -0.00277371 0.103526 0.0155965 0.00436172 
626 0.000282743 1 0.269798 0.0136063 0.00299472 0 0 0 42.4107 0 7.35628e-15 1.99861 0 0 0.136245 0.0160075 0.00348224 
229 0.000282743 1 0.477753 0.0159379 0.00375343 0 0 0 42.4413 0 0.0427904 2 0 -0.00277371 0.24126 0.0187505 0.00436445 
1485 0.000282743 1 0.646373 0.0121932 0.00299472 0 0 0 42.4107 0 -3.86694e-08 1.99861 0 1.67469e-08 0.326411 0.0143449 0.00348224 
281 0.000282743 1 0.719402 0.0121888 0.00299472 0 0 0 42.4107 0 -7.0555e-15 1.99861 0 0 0.36329 0.0143397 0.00348224 
1922 0.000282743 1 0.751934 0.0121007 0.00299472 0 0 0 42.4088 0.0118845 -2.60958e-14 1.99861 2.14426e-19 -5.18726e-14 0.379718 0.0142361 0.00348224 
2338 0.000282743 1 0.301109 0.0166446 0.00299597 0 0 0 42.4131 0 0.00659578 1.99997 0 -0.00284138 0.152056 0.0195819 0.00348369 
2752 0.000282743 1 0.419953 0.0171987 0.00299472 0 0 0 42.4107 0 -1.70286e-14 1.99861 0 -1.30104e-18 0.212071 0.0202338 0.00348224 
662 0.000282743 1 0.213358 0.0227621 0.00299472 0 0 0 42.4107 0 -1.11451e-14 1.99861 0 -2.51448e-15 0.107743 0.026779 0.00348224 
136 0.000282743 1 0.864207 0.0228154 0.0036846 0 0 0 19.2174 0 -0.00404733 2 0 -0.00277371 0.436414 0.0268417 0.00428442 
312 0.000282743 1 0.870647 0.0237223 0.002996 0 0 0 19.9662 0 -0.00359294 1.99857 0 9.38545e-05 0.439666 0.0279086 0.00348372 
2385 0.000282743 1 0.153428 0.0271591 0.00299472 0 0 0 42.4107 0 -4.84163e-15 1.99861 0 0 0.0774791 0.0319519 0.00348224 
356 0.000282743 1 0.810532 0.0274179 0.00381269 0 0 0 42.4413 0 -0.0075345 2 0 -0.00277371 0.409309 0.0322564 0.00443336 
2171 0.000282743 1 0.820754 0.0307014 0.00299472 0 0 0 42.4107 0 -9.27214e-15 1.99861 0 0 0.414471 0.0361193 0.00348224 
2212 0.000282743 1 0.847364 0.028001 0.0104341 0 0 0 0.510018 -0.984578 3.73047 -0.0420373 0.00746532 -0.0326731 0.427909 0.0329423 0.0121327 
2165 0.000282743 1 0.80629 0.0336834 0.00299472 0 0 0 42.4107 0 4.02921e-15 1.99861 0 0 0.407167 0.0396276 0.00348224 
1995 0.000282743 1 0.848306 0.0402396 0.0134685 0 0 0 -5.09682 -1.36091 -1.26367 -2.62232 2.36798 1.97405 0.428384 0.0473407 0.0156611 
284 0.000282743 1 0.530504 0.0405785 0.00756184 0 0 0 42.4413 0 0.654977 2 0 -0.00277371 0.267898 0.0477394 0.00879284 
153 0.000282743 1 0.827228 0.0455722 0.00299472 0 0 0 42.4107 0 1.75503e-07 1.99861 0 7.89301e-09 0.41774 0.0536144 0.00348224 
2946 0.000282743 1 0.171888 0.0503255 0.00299472 0 0 0 42.4107 0 3.63195e-12 1.99861 0 -7.2329e-12 0.0868016 0.0592065 0.00348224 
2245 0.000282743 1 0.273087 0.0511328 0.00299472 0 0 0 42.4107 0 -4.02713e-16 1.99861 0 0 0.137906 0.0601563 0.00348224 
338 0.000282743 1 0.435178 0.0513337 0.00299472 0 0 0 42.4107 0 -1.51454e-15 1.99861 0 0 0.21976 0.0603925 0.00348224 
1949 0.000282743 1 0.677883 0.0494126 0.00299472 0 0 0 42.4107 0 1.4009e-14 1.99861 0 0 0.342323 0.0581325 0.00348224 
1304 0.000282743 1 0.293866 0.0557894 0.00297511 0 0 0 42.4199 0 -0.080489 1.96723 0 0.062769 0.148399 0.0656346 0.00345942 
954 0.000282743 1 0.856039 0.0549755 0.002997 0 0 0 18.863 0 0.000356028 1.99946 0 -0.00168586 0.43229 0.064677 0.00348488 
2678 0.000282743 1 0.320875 0.0574585 0.00310876 0 0 0 42.4413 0 -0.111674 2 0 -0.00277371 0.162038 0.0675982 0.00361483 
2170 0.000282743 1 0.460061 0.0584649 0.00299472 0 0 0 42.4107 0 1.28986e-14 1.99861 0 0 0.232325 0.0687823 0.00348224 
1124 0.000282743 1 0.517766 0.0586676 0.00299472 0 0 0 42.4107 0 1.51167e-14 1.99861 0 0 0.261466 0.0690207 0.00348224 
849 0.000282743 1 0.556 0.0567479 0.00299472 0 0 0 42.4107 0 -1.65758e-14 1.99861 0 -4.8659e-16 0.280773 0.0667623 0.00348224 
2717 0.000282743 1 0.640558 0.0596661 0.00299472 0 0 0 42.4043 -0.00913781 6.24725e-15 1.99861 5.68769e-23 0 0.323474 0.0701954 0.00348224 
2515 0.000282743 1 0.626804 0.0626138 0.00299472 0 0 0 42.4107 0 -1.03798e-14 1.99861 0 0 0.316529 0.0736633 0.00348224 
2174 0.000282743 1 0.843767 0.0611444 0.00299472 0 0 0 42.4107 0 2.0659e-14 1.99861 0 0 0.426092 0.0719345 0.00348224 
795 0.000282743 1 0.751731 0.0677395 0.00379394 0 0 0 42.4528 -0.0163322 -0.0178248 2 0 -0.00277371 0.379616 0.0796935 0.00441156 
1156 0.000282743 1 0.758196 0.064281 0.00299472 0 0 0 42.4107 0 1.51153e-14 1.99861 0 0 0.38288 0.0756247 0.00348224 
2920 0.000282743 1 0.826167 0.0670631 0.00299472 0 0 0 42.4107 0 9.57294e-15 1.99861 0 0 0.417205 0.0788978 0.00348224 
1678 0.000282743 1 0.512861 0.0721212 0.00299472 0 0 0 42.4107 0 -2.61937e-15 1.99861 0 0 0.258989 0.0848485 0.00348224 
1599 0.000282743 1 0.715967 0.0709061 0.00299472 0 0 0 42.4107 0 1.0682e-14 1.99861 0 0 0.361555 0.083419 0.00348224 
367 0.000282743 1 0.331241 0.0743494 0.00299466 0 0 0 42.4091 0 0.000129528 1.99861 0 9.7539e-06 0.167273 0.0874699 0.00348217 
2586 0.000282743 1 0.377727 0.0759655 0.00299472 0 0 0 42.4107 0 -1.14902e-14 1.99861 0 0 0.190748 0.0893711 0.00348224 
2800 0.000282743 1 0.263379 0.0791022 0.00299472 0 0 0 42.4107 0 -6.282e-12 1.99861 0 -3.35219e-12 0.133003 0.0930614 0.00348224 
1017 0.000282743 1 0.323865 0.0776333 0.00299472 0 0 0 42.4107 0 7.35628e-15 1.99861 0 0 0.163548 0.0913333 0.00348224 
1814 0.000282743 1 0.544275 0.0767449 0.00237831 0 0 0 49.8504 -2.22428 -3.14219 3.17197 0.746956 2.26836 0.274853 0.0902881 0.00276548 
2129 0.000282743 1 0.686887 0.0775321 0.00299472 0 0 0 42.4107 0 7.35628e-15 1.99861 0 0 0.34687 0.0912142 0.00348224 
2636 0.000282743 1 0.726582 0.0790148 0.0078346 0 0 0 42.4413 0 0.649462 2 0 -0.00277371 0.366915 0.0929586 0.00911 
2996 0.000282743 1 0.367971 0.0806714 0.00299389 0 0 0 42.4006 0 0.000980766 1.99843 0 0.000370335 0.185821 0.0949075 0.00348127 
1806 0.000282743 1 0.373474 0.0875507 0.00381757 0 0 0 42.4413 0 0.011125 2 0 -0.00277371 0.1886 0.103001 0.00443904 
2606 0.000282743 1 0.552916 0.0844638 0.00299473 0 0 0 42.4107 0 -4.64982e-07 1.99861 0 -1.38525e-07 0.279216 0.0993692 0.00348224 
2881 0.000282743 1 0.656769 0.0857224 0.00400498 0 0 0 41.9578 -0.0531234 0.202598 2 0 -0.00277371 0.331661 0.10085 0.00465696 
876 0.000282743 1 0.710447 0.0863357 0.00299428 0 0 0 42.407 0 -0.00224222 1.99808 0 0.00107413 0.358767 0.101571 0.00348172 
501 0.000282743 1 0.69409 0.0884933 0.00299472 0 0 0 42.4113 -0.0928269 1.2998e-13 1.99861 -6.52035e-19 -6.79621e-14 0.350507 0.10411 0.00348224 
1113 0.000282743 1 0.83323 0.0962577 0.00316611 0 0 0 -3.18194 4.43129 0.090342 2 0 -0.00277371 0.420771 0.113244 0.00368152 
2182 0.000282743 1 0.845155 0.0882364 0.00299199 0 0 0 2.36277 -0.248517 0.00359694 1.99802 0.000166292 0.00119288 0.426793 0.103808 0.00347906 
2062 0.000282743 1 0.198386 0.0928605 0.00344751 0 0 0 42.4413 0 -0.0792909 2 0 -0.00277371 0.100183 0.109248 0.00400873 
1907 0.000282743 1 0.847372 0.0990178 0.00327608 0 0 0 -2.78514 2.52852 0.246206 2.89299 -0.18529 0.130163 0.427913 0.116491 0.0038094 
2548 0.000282743 1 0.285785 0.103172 0.00299472 0 0 0 42.4107 0 4.02921e-15 1.99861 0 0 0.144318 0.121379 0.00348224 
1743 0.000282743 1 0.696573 0.10137 0.00299472 0 0 0 42.4413 0.00182936 -8.16732e-15 1.99861 7.10962e-24 0 0.351761 0.119259 0.00348224 
676 0.000282743 1 0.802825 0.104164 0.0055097 0 0 0 46.5468 1.34416 1.16487 2 0 -0.00277371 0.405417 0.122546 0.00640663 
1973 0.000282743 1 0.861062 0.102666 0.00395393 0 0 0 23.6874 -0.30682 0.12927 2 0 -0.00277371 0.434826 0.120784 0.00459759 
1747 0.000282743 1 0.269399 0.104694 0.00299473 0 0 0 42.4107 0 6.23186e-08 1.99861 0 -4.10352e-07 0.136043 0.123169 0.00348224 
1183 0.000282743 1 0.765633 0.107623 0.00299472 0 0 0 42.4107 0 1.80974e-15 1.99861 0 0 0.386635 0.126615 0.00348224 
1692 0.000282743 1 0.784413 0.106052 0.0030465 0 0 0 44.1008 0.0444349 0.0624118 2 0 -0.00277371 0.396119 0.124767 0.00354244 
1735 0.000282743 1 0.859368 0.109116 0.00917233 0 0 0 17.2995 0.594305 3.86237 2 0 -0.00277371 0.43397 0.128371 0.0106655 
886 0.000282743 1 0.78212 0.112226 0.00299472 0 0 0 42.4107 0 2.92157e-15 1.99861 0 0 0.394961 0.132031 0.00348224 
220 0.000282743 1 0.863154 0.108761 0.00313444 0 0 0 19.0892 0.00965389 1.49342 2 0 -0.00277371 0.435882 0.127954 0.00364469 
2801 0.000282743 1 0.234048 0.115869 0.00299472 0 0 0 42.4107 0 2.50103e-14 1.99861 0 -1.13238e-14 0.118191 0.136317 0.00348224 
1801 0.000282743 1 0.472808 0.113038 0.00299472 0 0 0 42.4107 0 2.09215e-09 1.99861 0 2.32564e-10 0.238763 0.132986 0.00348224 
140 0.000282743 1 0.596766 0.114857 0.00299472 0 0 0 42.4107 0 -7.05549e-15 1.99861 0 0 0.30136 0.135126 0.00348224 
1963 0.000282743 1 0.729144 0.113628 0.00342633 0 0 0 42.2951 0.275908 0.142597 2 0 -0.00277371 0.368209 0.13368 0.0039841 
2449 0.000282743 1 0.81256 0.112484 0.00371865 0 0 0 42.4413 0 0.0518039 2 0 -0.00277371 0.410333 0.132334 0.00432402 
934 0.000282743 1 0.848075 0.114135 0.00299298 0 0 0 -0.111054 -1.48978 -0.118027 -6.07451 0.230451 0.0864418 0.428268 0.134277 0.00348021 
392 0.000282743 1 0.314208 0.116778 0.00299472 0 0 0 42.4107 0 8.4639e-15 1.99861 0 0 0.158671 0.137385 0.00348224 
1400 0.000282743 1 0.404831 0.118653 0.00330897 0 0 0 42.4413 0 -0.0935274 2 0 -0.00277371 0.204435 0.139592 0.00384764 
2620 0.000282743 1 0.361242 0.122546 0.00299472 0 0 0 42.4107 0 4.75116e-10 1.99861 0 -6.30302e-10 0.182423 0.144171 0.00348224 
2955 0.000282743 1 0.456018 0.121181 0.00299472 0 0 0 42.4107 0 -4.64881e-08 1.99861 0 -1.92486e-08 0.230284 0.142565 0.00348224 
2869 0.000282743 1 0.635393 0.121309 0.00299472 0 0 0 42.1795 -0.0239456 -3.27356e-08 1.99861 -4.70104e-14 4.59818e-09 0.320866 0.142716 0.00348224 
2063 0.000282743 1 0.750512 0.121177 0.00299472 0 0 0 42.4107 0 6.24586e-15 1.99861 0 0 0.379 0.142561 0.00348224 
2918 0.000282743 1 0.477305 0.125633 0.00381513 0 0 0 42.4413 0 -0.00422182 2 0 -0.00277371 0.241033 0.147804 0.0044362 
2312 0.000282743 1 0.847823 0.125933 0.00299733 0 0 0 -1.78583 0 -0.00314318 -1.48331 0 -0.00456573 0.42814 0.148157 0.00348527 
1860 0.000282743 1 0.235465 0.130739 0.00299473 0 0 0 42.4107 0 -3.03667e-07 1.99861 0 -2.60615e-07 0.118907 0.153811 0.00348224 
719 0.000282743 1 0.641585 0.130464 0.00299472 0 0 0 42.3158 0.0181812 1.19135e-11 1.99861 2.42277e-18 -4.55272e-12 0.323993 0.153488 0.00348224 
1378 0.000282743 1 0.817922 0.132815 0.00381857 0 0 0 42.4413 0 0.000690123 2 0 -0.00277371 0.413041 0.156252 0.0044402 
202 0.000282743 1 0.2253 0.137364 0.00299473 0 0 0 42.4107 0 9.02144e-07 1.99861 0 -4.8078e-07 0.113774 0.161605 0.00348224 
2160 0.000282743 1 0.531666 0.137333 0.00299472 0 0 0 42.3155 -0.116954 -1.14916e-14 1.99861 -9.10031e-22 0 0.268485 0.161569 0.00348224 
1451 0.000282743 1 0.649934 0.139605 0.00299472 0 0 0 42.3637 0.253923 1.01054e-07 1.99861 -4.72321e-12 2.84114e-08 0.328209 0.164241 0.00348224 
768 0.000282743 1 0.865876 0.136757 0.00299632 0 0 0 19.1696 0 -0.00270263 1.99881 0 -0.000400851 0.437257 0.16089 0.0034841 
2451 0.000282743 1 0.130418 0.14389 0.00320686 0 0 0 42.4413 0 -0.103179 2 0 -0.00277371 0.0658593 0.169282 0.0037289 
1582 0.000282743 1 0.379299 0.143686 0.00299472 0 0 0 42.4107 0 -1.6147e-11 1.99861 0 2.2811e-11 0.191541 0.169042 0.00348224 
410 0.000282743 1 0.598165 0.144092 0.00298683 0 0 0 42.4178 0 0.00682157 1.99584 0 0.00555536 0.302066 0.169519 0.00347306 
1246 0.000282743 1 0.188144 0.149072 0.00299472 0 0 0 42.4297 0.0126758 -1.74631e-14 1.99861 -2.47415e-19 7.16701e-14 0.0950106 0.175379 0.00348224 
2461 0.000282743 1 0.585995 0.148491 0.00299472 0 0 0 42.4105 0 1.17936e-05 1.99861 0 -3.38087e-06 0.29592 0.174695 0.00348224 
2448 0.000282743 1 0.851666 0.149093 0.00299651 0 0 0 21.5863 0.00843034 0.0103572 -15.8894 0.271117 0.00099178 0.430081 0.175403 0.00348431 
233 0.000282743 1 0.873703 0.148923 0.00309332 0 0 0 20.0963 0.00610534 -0.0127327 2 0 -0.00277371 0.44121 0.175204 0.00359688 
2991 0.000282743 1 0.614216 0.153952 0.00299472 0 0 0 42.4107 0 -9.5233e-16 1.99861 0 -5.67645e-15 0.310172 0.181119 0.00348224 
1051 0.000282743 1 0.854917 0.153805 0.00371095 0 0 0 17.7784 0.0756462 0.00937089 4.13843 0.531396 0.0796384 0.431723 0.180947 0.00431506 
1576 0.000282743 1 0.685981 0.15931 0.00299472 0 0 0 42.4107 0 8.46391e-15 1.99861 0 0 0.346412 0.187424 0.00348224 
2643 0.000282743 1 0.703581 0.158048 0.00299472 0 0 0 42.4107 0 1.64007e-12 1.99861 0 -8.51126e-13 0.3553 0.185939 0.00348224 
55 0.000282743 1 0.159048 0.161299 0.0065871 0 0 0 41.085 0 0.679449 2 0 -0.00277371 0.0803175 0.189764 0.00765942 
1415 0.000282743 1 0.297521 0.161792 0.0029949 0 0 0 42.4086 0 -0.00300691 1.99822 0 0.000789499 0.150245 0.190344 0.00348244 
1669 0.000282743 1 0.382183 0.163659 0.00299472 0 0 0 42.4107 0 -1.48173e-14 1.99861 0 0 0.192998 0.19254 0.00348224 
1592 0.000282743 1 0.317296 0.165431 0.00299472 0 0 0 42.4107 0 -1.48159e-14 1.99861 0 0 0.160231 0.194625 0.00348224 
2682 0.000282743 1 0.38901 0.164924 0.00299472 0 0 0 42.4107 0 1.17896e-14 1.99861 0 0 0.196446 0.194028 0.00348224 
2962 0.000282743 1 0.582507 0.168313 0.00299472 0 0 0 42.4107 0 5.13963e-15 1.99861 0 0 0.294159 0.198015 0.00348224 
344 0.000282743 1 0.640914 0.167356 0.00299435 0 0 0 42.4073 0 -0.00233562 1.99809 0 0.00103826 0.323654 0.196889 0.0034818 
989 0.000282743 1 0.225945 0.172309 0.00344361 0 0 0 42.7403 0.184532 -0.0490843 2 0 -0.00277371 0.1141 0.202716 0.0040042 
330 0.000282743 1 0.372984 0.167265 0.00299472 0 0 0 42.571 -0.198191 -1.77615e-07 1.99861 -1.20738e-12 4.04332e-08 0.188352 0.196782 0.00348224 
826 0.000282743 1 0.847549 0.168769 0.0115635 0 0 0 -0.306206 1.65136 7.18599 -0.654136 0.472999 -0.117676 0.428002 0.198552 0.0134459 
543 0.000282743 1 0.165516 0.17302 0.00298977 0 0 0 42.4336 0 -0.0181704 1.99291 0 0.0114016 0.0835838 0.203553 0.00347648 
1293 0.000282743 1 0.430633 0.174331 0.00299472 0 0 0 42.4107 0 1.81113e-15 1.99861 0 0 0.217465 0.205096 0.00348224 
221 0.000282743 1 0.490614 0.172561 0.00299472 0 0 0 42.4107 0 6.24724e-15 1.99861 0 0 0.247754 0.203013 0.00348224 
113 0.000282743 1 0.502752 0.174128 0.00299472 0 0 0 42.4107 0 -3.73119e-15 1.99861 0 0 0.253884 0.204856 0.00348224 
178 0.000282743 1 0.737842 0.174539 0.00342078 0 0 0 42.0414 0 0.0952911 2 0 -0.00277371 0.372601 0.20534 0.00397766 
2278 0.000282743 1 0.387595 0.179744 0.00299472 0 0 0 42.4107 0 -1.37069e-14 1.99861 0 0 0.195731 0.211463 0.00348224 
2281 0.000282743 1 0.5221 0.179038 0.00303076 0 0 0 42.359 0 -0.0161963 2 0 -0.00277371 0.263654 0.210633 0.00352414 
418 0.000282743 1 0.790115 0.176458 0.00299472 0 0 0 42.4107 0 1.17104e-11 1.99861 0 -8.01564e-12 0.398999 0.207597 0.00348224 
921 0.000282743 1 0.847626 0.178483 0.00361481 0 0 0 -1.91413 0 0.0309471 0.371541 0 -0.00123158 0.428041 0.20998 0.00420327 
1998 0.000282743 1 0.23248 0.183085 0.00302472 0 0 0 42.3473 0 0.0206326 2 0 -0.00277371 0.117399 0.215394 0.00351711 
2976 0.000282743 1 0.365136 0.18798 0.00299472 0 0 0 42.4291 -0.00281716 8.4639e-15 1.99861 0 0 0.184389 0.221153 0.00348224 
538 0.000282743 1 0.76105 0.184449 0.00299472 0 0 0 42.362 -0.149661 2.72667e-09 1.99861 -4.43129e-13 -1.09985e-08 0.384321 0.216999 0.00348224 
1164 0.000282743 1 0.575884 0.191654 0.00299472 0 0 0 42.675 0.324661 1.12253e-07 1.99861 -3.52858e-12 -1.71821e-09 0.290815 0.225476 0.00348224 
87 0.000282743 1 0.63814 0.189503 0.00299472 0 0 0 42.4107 0 7.35628e-15 1.99861 0 0 0.322253 0.222945 0.00348224 
2327 0.000282743 1 0.684192 0.192086 0.00299372 0 0 0 42.4045 0 -0.000748132 1.99808 0 0.0010761 0.345509 0.225984 0.00348107 
2888 0.000282743 1 0.339997 0.194515 0.00299472 0 0 0 42.2832 0.0698881 4.16082e-06 1.99861 -1.19018e-10 4.36727e-06 0.171694 0.228842 0.00348223 
371 0.000282743 1 0.423503 0.193043 0.00299472 0 0 0 42.4107 0 1.29e-14 1.99861 0 0 0.213864 0.22711 0.00348224 
2202 0.000282743 1 0.219432 0.202405 0.00380111 0 0 0 42.4413 0 -0.0134655 2 0 -0.00277371 0.11081 0.238123 0.0044199 
2830 0.000282743 1 0.626913 0.204474 0.00299472 0 0 0 42.4107 0 -1.03798e-14 1.99861 0 0 0.316584 0.240558 0.00348224 
961 0.000282743 1 0.846078 0.208226 0.00300592 0 0 0 5.59347 0.0138711 0.00197998 2 0 -0.00277371 0.427259 0.244972 0.00349526 
1172 0.000282743 1 0.180142 0.211557 0.00299473 0 0 0 42.4107 0 -2.77002e-07 1.99861 0 -2.743e-07 0.0909694 0.24889 0.00348224 
2621 0.000282743 1 0.236886 0.209732 0.00299472 0 0 0 42.4107 0 -7.05689e-15 1.99861 0 0 0.119625 0.246743 0.00348224 
2109 0.000282743 1 0.449044 0.210491 0.00299472 0 0 0 42.4107 0 2.06604e-14 1.99861 0 0 0.226762 0.247637 0.00348224 
1885 0.000282743 1 0.468914 0.209041 0.00751207 0 0 0 42.4413 0 0.662177 2 0 -0.00277371 0.236796 0.245931 0.00873496 
1957 0.000282743 1 0.84746 0.213694 0.0108206 0 0 0 -0.0678281 0 1.99693 -0.197088 0 0.00146687 0.427957 0.251405 0.0125821 
2297 0.000282743 1 0.17096 0.216734 0.00299472 0 0 0 42.4413 -0.0188337 8.46264e-08 1.99861 -2.56076e-14 -3.37531e-08 0.086333 0.254981 0.00348224 
2132 0.000282743 1 0.600837 0.218317 0.00299334 0 0 0 43.1918 0.0392827 0.00102482 1.9982 1.04812e-06 0.000831265 0.303416 0.256843 0.00348063 
1444 0.000282743 1 0.842911 0.218083 0.00376552 0 0 0 42.4413 0 0.040139 2 0 -0.00277371 0.42566 0.256568 0.00437851 
145 0.000282743 1 0.132612 0.221508 0.00299473 0 0 0 42.4507 0.019198 -2.7731e-07 1.99861 1.38397e-12 -1.49463e-07 0.0669675 0.260598 0.00348224 
2512 0.000282743 1 0.824923 0.220559 0.00307278 0 0 0 42.5939 -0.3782 0.0203069 2 0 -0.00277371 0.416576 0.259481 0.003573 
254 0.000282743 1 0.536855 0.224944 0.00310795 0 0 0 51.29 0.18288 0.227231 2 0 -0.00277371 0.271105 0.26464 0.0036139 
2849 0.000282743 1 0.669581 0.227858 0.00291626 0 0 0 47.3327 0.42784 -0.0668846 1.89052 -0.00193079 0.216219 0.338131 0.268068 0.00339099 
296 0.000282743 1 0.698784 0.223391 0.00280254 0 0 0 74.1039 1.60501 -2.72994 0.622747 -0.0417598 2.753 0.352877 0.262813 0.00325876 
256 0.000282743 1 0.802407 0.227282 0.00299472 0 0 0 42.4107 0 1.4009e-14 1.99861 0 0 0.405206 0.26739 0.00348224 
2268 0.000282743 1 0.837708 0.228448 0.00299472 0 0 0 42.4107 0 -9.17647e-13 1.99861 0 1.05025e-13 0.423033 0.268762 0.00348224 
757 0.000282743 1 0.779793 0.242089 0.00339537 0 0 0 42.5581 0.417477 0.0437236 2 0 -0.00277371 0.393786 0.284811 0.0039481 
887 0.000282743 1 0.847401 0.24232 0.00299632 0 0 0 0.28199 0.738979 0.00536047 -0.0937188 -0.00590013 -0.00163279 0.427927 0.285082 0.00348409 
2986 0.000282743 1 0.802343 0.241604 0.00299472 0 0 0 42.413 -0.198296 -6.5425e-10 1.99861 -1.03024e-14 4.86923e-11 0.405173 0.28424 0.00348224 
188 0.000282743 1 0.84757 0.250585 0.00303439 0 0 0 -0.331334 -0.13652 0.180176 -0.801683 -0.49115 0.0866466 0.428013 0.294806 0.00352837 
2563 0.000282743 1 0.817386 0.250355 0.00297459 0 0 0 42.6554 0.0378102 0.0389199 1.9942 2.6837e-07 0.00883188 0.41277 0.294535 0.00345883 
1096 0.000282743 1 0.840001 0.243192 0.0034672 0 0 0 1.71561 -4.11244 0.410409 2 0 -0.00277371 0.424191 0.286109 0.00403163 
399 0.000282743 1 0.796239 0.253177 0.00299472 0 0 0 42.4107 0 -7.05548e-15 1.99861 0 0 0.402091 0.297855 0.00348224 
253 0.000282743 1 0.395894 0.260054 0.00299472 0 0 0 42.4107 0 1.73319e-14 1.99861 0 0 0.199922 0.305946 0.00348224 
185 0.000282743 1 0.552977 0.259601 0.00299472 0 0 0 42.4107 0 -1.79713e-14 1.99861 0 -5.33427e-17 0.279247 0.305413 0.00348224 
211 0.000282743 1 0.637132 0.256715 0.00299472 0 0 0 42.4107 0 -1.03812e-14 1.99861 0 0 0.321744 0.302018 0.00348224 
2020 0.000282743 1 0.840739 0.258997 0.00367342 0 0 0 42.4413 0 -0.0462692 2 0 -0.00277371 0.424563 0.304702 0.00427142 
2140 0.000282743 1 0.694396 0.262607 0.0029849 0 0 0 42.4774 -0.170581 -0.0192649 1.98935 7.27421e-08 0.0185265 0.350662 0.308949 0.00347081 
1897 0.000282743 1 0.709331 0.260966 0.00299469 0 0 0 42.8099 -0.41974 7.68604e-05 1.99861 3.60919e-09 6.85995e-08 0.358204 0.307019 0.0034822 
1100 0.000282743 1 0.847559 0.260648 0.00294405 0 0 0 0.841811 -1.01699 0.0178754 -1.90194 -0.239735 -0.032248 0.428007 0.306645 0.00342331 
2290 0.000282743 1 0.733611 0.266957 0.00299472 0 0 0 42.5819 0.193438 2.01093e-07 1.99861 1.50752e-12 -9.57126e-08 0.370465 0.314067 0.00348224 
1831 0.000282743 1 0.847638 0.267104 0.00298134 0 0 0 -0.314575 -0.333901 0.0151458 -1.38813 0.026371 0.0506231 0.428047 0.31424 0.00346668 
1816 0.000282743 1 0.441153 0.27068 0.00379281 0 0 0 42.4413 0 0.0301038 2 0 -0.00277371 0.222777 0.318447 0.00441024 
2558 0.000282743 1 0.680709 0.268282 0.00328769 0 0 0 42.0945 -0.229306 0.0646863 2 0 -0.00277371 0.34375 0.315626 0.00382289 
2901 0.000282743 1 0.185399 0.273057 0.00377021 0 0 0 42.4413 0 0.0390413 2 0 -0.00277371 0.0936245 0.321243 0.00438396 
823 0.000282743 1 0.662572 0.273054 0.00299472 0 0 0 42.4107 0 -7.67992e-11 1.99861 0 -8.24697e-12 0.334591 0.32124 0.00348224 
1670 0.000282743 1 0.248521 0.28049 0.00304055 0 0 0 42.3476 0 0.0101756 2 0 -0.00277371 0.1255 0.329989 0.00353552 
2522 0.000282743 1 0.425177 0.277552 0.00299472 0 0 0 42.4107 0 -7.05688e-15 1.99861 0 0 0.21471 0.326531 0.00348224 
63 0.000282743 1 0.470846 0.281348 0.00299472 0 0 0 42.4107 0 -1.78599e-14 1.99861 0 -4.31079e-16 0.237772 0.330997 0.00348224 
1438 0.000282743 1 0.847409 0.281158 0.00346033 0 0 0 -0.0132304 0.312047 0.183518 0.117102 0.000518746 -0.001804 0.427932 0.330774 0.00402364 
1887 0.000282743 1 0.153181 0.286407 0.00299458 0 0 0 42.391 0 0.00106564 1.99872 0 -0.000220882 0.0773545 0.336949 0.00348208 
526 0.000282743 1 0.199206 0.286617 0.00575851 0 0 0 42.4559 -0.212308 0.431307 2 0 -0.00277371 0.100597 0.337197 0.00669594 
2585 0.000282743 1 0.224156 0.285982 0.00313128 0 0 0 42.2913 -0.206282 -0.0362921 2 0 -0.00277371 0.113196 0.33645 0.00364102 
1911 0.000282743 1 0.256462 0.285594 0.00299472 0 0 0 42.4107 0 1.51167e-14 1.99861 0 0 0.129511 0.335993 0.00348224 
706 0.000282743 1 0.285087 0.286103 0.00299472 0 0 0 42.4107 0 1.9119e-08 1.99861 0 -1.75107e-09 0.143966 0.336592 0.00348224 
2507 0.000282743 1 0.472263 0.288627 0.00299472 0 0 0 42.4107 0 -1.37083e-14 1.99861 0 0 0.238487 0.339562 0.00348224 
2737 0.000282743 1 0.845693 0.288112 0.00415008 0 0 0 4.81315 0.784431 0.378605 2 0 -0.00277371 0.427065 0.338955 0.00482567 
987 0.000282743 1 0.144326 0.291819 0.00302659 0 0 0 42.3477 0 0.019381 2 0 -0.00277371 0.0728829 0.343316 0.0035193 
1265 0.000282743 1 0.311154 0.287339 0.00299465 0 0 0 41.5271 -0.38328 5.44654e-05 1.99859 6.55552e-09 4.00186e-05 0.157129 0.338046 0.00348215 
1696 0.000282743 1 0.84738 0.294221 0.00346164 0 0 0 -0.361914 -0.485558 0.467334 0.363961 -0.442806 0.0358253 0.427917 0.346142 0.00402517 
2206 0.000282743 1 0.420498 0.295482 0.00299472 0 0 0 42.3585 -0.133467 -2.29893e-09 1.99861 1.69071e-13 5.09539e-09 0.212347 0.347626 0.00348224 
2838 0.000282743 1 0.810503 0.296926 0.00299473 0 0 0 42.4107 0 -3.26789e-06 1.99861 0 -2.06758e-06 0.409295 0.349325 0.00348224 
818 0.000282743 1 0.171499 0.301929 0.00299472 0 0 0 42.4107 0 5.13823e-15 1.99861 0 0 0.0866049 0.35521 0.00348224 
2407 0.000282743 1 0.296518 0.304103 0.00299472 0 0 0 42.4107 0 -1.51454e-15 1.99861 0 0 0.149738 0.357769 0.00348224 
1751 0.000282743 1 0.780974 0.304275 0.00299472 0 0 0 42.5273 -0.0736444 1.73319e-14 1.99861 -9.10031e-22 0 0.394383 0.35797 0.00348224 
1687 0.000282743 1 0.847477 0.299811 0.00346647 0 0 0 0.137137 1.00736 0.255621 -0.247638 -0.0557883 0.00562112 0.427966 0.352719 0.00403078 
2457 0.000282743 1 0.492645 0.305371 0.00299472 0 0 0 42.4107 0 -3.03384e-09 1.99861 0 -3.53314e-09 0.24878 0.359261 0.00348224 
2082 0.000282743 1 0.505289 0.30527 0.00299472 0 0 0 42.4107 0 -4.83279e-08 1.99861 0 1.3433e-08 0.255165 0.359142 0.00348224 
1274 0.000282743 1 0.833708 0.305677 0.00355411 0 0 0 42.3186 0 0.0795778 2 0 -0.00277371 0.421013 0.359621 0.00413269 
2380 0.000282743 1 0.581605 0.312551 0.00299472 0 0 0 42.4107 0 7.0632e-16 1.99861 0 0 0.293704 0.367707 0.00348224 
468 0.000282743 1 0.851059 0.310232 0.00370903 0 0 0 17.8391 -1.43444 -0.360401 -2.70727 3.5446 1.1771 0.429775 0.364979 0.00431282 
2146 0.000282743 1 0.62919 0.315994 0.0033029 0 0 0 42.4413 0 -0.0946259 2 0 -0.00277371 0.317734 0.371757 0.00384058 
1032 0.000282743 1 0.876237 0.318403 0.00319786 0 0 0 20.7015 -0.0819054 0.0181179 2 0 -0.00277371 0.442489 0.374591 0.00371844 
1872 0.000282743 1 0.2522 0.324662 0.00316983 0 0 0 42.7158 0.396509 0.00281836 2 0 -0.00277371 0.127358 0.381955 0.00368585 
1798 0.000282743 1 0.6525 0.326664 0.00297088 0 0 0 65.406 2.06277 0.0336475 1.9899 -0.000344656 0.0174302 0.329505 0.384311 0.00345451 
2022 0.000282743 1 0.221513 0.327677 0.0037767 0 0 0 42.4413 0 -0.0238501 2 0 -0.00277371 0.111861 0.385502 0.00439151 
677 0.000282743 1 0.235825 0.32702 0.00363098 0 0 0 42.4413 0 0.0675124 2 0 -0.00277371 0.119089 0.384729 0.00422207 
401 0.000282743 1 0.806352 0.326817 0.0032727 0 0 0 42.4413 0 -0.097608 2 0 -0.00277371 0.407198 0.38449 0.00380547 
1709 0.000282743 1 0.85874 0.326883 0.00299972 0 0 0 15.2703 -0.42422 0.0233782 1.99828 -2.13226e-05 -0.00621024 0.433654 0.384569 0.00348805 
1869 0.000282743 1 0.873733 0.325651 0.00307703 0 0 0 23.7075 -2.3914 0.248778 2 0 -0.00277371 0.441225 0.383119 0.00357794 
2007 0.000282743 1 0.636987 0.332481 0.0030231 0 0 0 42.3472 0 0.021302 2 0 -0.00277371 0.321671 0.391154 0.00351523 
889 0.000282743 1 0.846726 0.333077 0.00296336 0 0 0 -1.2869 -0.231981 0.424201 2.06523 0.0489983 -0.165945 0.427587 0.391855 0.00344577 
1352 0.000282743 1 0.866577 0.32792 0.00556715 0 0 0 20.8649 -1.67164 1.88898 2 0 -0.00277371 0.437611 0.385788 0.00647343 
1496 0.000282743 1 0.879056 0.329969 0.00295909 0 0 0 23.7235 0.235541 0.129666 1.99652 -7.27456e-05 -0.00972595 0.443913 0.388199 0.00344081 
1236 0.000282743 1 0.158476 0.333239 0.00299467 0 0 0 42.4146 0 -0.000233069 1.99855 0 0.000116763 0.0800286 0.392045 0.00348217 
2590 0.000282743 1 0.733511 0.334238 0.00299472 0 0 0 42.185 0.142456 1.73452e-14 1.99861 1.82006e-21 -4.33681e-18 0.370415 0.393221 0.00348224 
2583 0.000282743 1 0.731762 0.343757 0.00299472 0 0 0 42.4107 0 -5.67416e-09 1.99861 0 1.30911e-09 0.369531 0.40442 0.00348224 
1892 0.000282743 1 0.454161 0.348409 0.00299472 0 0 0 42.4107 0 -1.37069e-14 1.99861 0 0 0.229346 0.409893 0.00348224 
2074 0.000282743 1 0.510671 0.350209 0.00298663 0 0 0 42.1524 0.334963 -0.0703928 1.98058 -0.00012096 0.0360667 0.257883 0.412011 0.00347283 
95 0.000282743 1 0.777784 0.347146 0.00299471 0 0 0 42.4105 0 1.2599e-05 1.99861 0 3.90285e-06 0.392772 0.408407 0.00348223 
1785 0.000282743 1 0.480965 0.355491 0.00299472 0 0 0 42.4107 0 -4.55281e-08 1.99861 0 1.48288e-08 0.242882 0.418224 0.00348224 
551 0.000282743 1 0.852594 0.356442 0.00298753 0 0 0 12.8524 -1.21877 -0.0162382 -6.39374 0.64223 0.0250288 0.43055 0.419344 0.00347388 
130 0.000282743 1 0.23558 0.363226 0.00299472 0 0 0 42.4107 0 8.4639e-15 1.99861 0 0 0.118965 0.427324 0.00348224 
1601 0.000282743 1 0.466953 0.363072 0.00350152 0 0 0 42.407 0.0343134 -0.0976802 2 0 -0.00277371 0.235806 0.427143 0.00407154 
1535 0.000282743 1 0.625001 0.361707 0.00299472 0 0 0 42.4107 0 -7.05549e-15 1.99861 0 0 0.315618 0.425537 0.00348224 
1273 0.000282743 1 0.847771 0.365144 0.00291683 0 0 0 -0.528161 2.36208 -0.00819717 2.81895 -12.2741 -0.0682989 0.428114 0.429581 0.00339167 
2253 0.000282743 1 0.56148 0.366363 0.00299472 0 0 0 42.4107 0 3.20629e-14 1.99861 0 5.40453e-15 0.283541 0.431015 0.00348224 
2998 0.000282743 1 0.535536 0.371522 0.00299472 0 0 0 42.4107 0 -5.22044e-09 1.99861 0 -2.11391e-09 0.270439 0.437085 0.00348224 
1754 0.000282743 1 0.321647 0.373923 0.00567909 0 0 0 42.289 -0.0341775 0.403968 2 0 -0.00277371 0.162428 0.43991 0.00660359 
2273 0.000282743 1 0.400452 0.374454 0.00299472 0 0 0 42.4107 0 -1.25978e-14 1.99861 0 0 0.202224 0.440534 0.00348224 
1390 0.000282743 1 0.586161 0.378701 0.00299472 0 0 0 42.4107 0 1.17896e-14 1.99861 0 0 0.296004 0.445531 0.00348224 
1874 0.000282743 1 0.803832 0.377688 0.00299472 0 0 0 42.4107 0 1.06834e-14 1.99861 0 0 0.405926 0.444339 0.00348224 
1065 0.000282743 1 0.847038 0.369318 0.0030635 0 0 0 -1.51685 -5.04051 0.0862261 -2.38623 16.9748 0.235855 0.427744 0.434492 0.00356221 
1818 0.000282743 1 0.856719 0.359733 0.00306181 0 0 0 17.8621 2.51799 0.0754318 0.409703 0.841348 0.0203049 0.432633 0.423216 0.00356025 
161 0.000282743 1 0.18278 0.381082 0.00299476 0 0 0 42.4105 0 7.90343e-06 1.99863 0 -3.40958e-05 0.0923016 0.448331 0.00348228 
2855 0.000282743 1 0.665007 0.381928 0.00299055 0 0 0 42.4112 -0.0714536 0.0403831 1.99609 1.12158e-05 -0.0106026 0.335821 0.449327 0.00347738 
2064 0.000282743 1 0.693221 0.383106 0.00353515 0 0 0 42.4413 0 -0.0692766 2 0 -0.00277371 0.350068 0.450713 0.00411064 
2148 0.000282743 1 0.844789 0.388168 0.00281634 0 0 0 18.1045 -0.524412 0.219472 25.673 -4.61831 -0.8785 0.426608 0.456668 0.00327481 
1280 0.000282743 1 0.845679 0.379715 0.00298674 0 0 0 -2.52837 -1.76636 0.0140657 2.0023 0.00160726 0.00283073 0.427058 0.446724 0.00347296 
417 0.000282743 1 0.661669 0.387344 0.00299472 0 0 0 42.4819 -0.0242255 4.5224e-05 1.99862 8.74223e-10 -8.42113e-06 0.334135 0.455699 0.00348223 
2655 0.000282743 1 0.751691 0.387301 0.00299472 0 0 0 42.4107 0 -1.26463e-14 1.99861 0 -2.04871e-15 0.379595 0.455648 0.00348224 
2944 0.000282743 1 0.826585 0.386798 0.00382062 0 0 0 42.4413 0 0.0049066 2 0 -0.00277371 0.417416 0.455057 0.00444259 
800 0.000282743 1 0.842622 0.388493 0.00297422 0 0 0 18.1494 1.01924 -0.00926661 -37.1824 1.31518 0.61711 0.425514 0.457051 0.00345839 