ITEM: TIMESTEP
25250
ITEM: NUMBER OF ATOMS
3000
ITEM: BOX BOUNDS mm mm mm
0 1.01375
0 0.85
0 0.86
ITEM: ATOMS id mass type x y z ix iy iz vx vy vz fx fy fz xs ys zs 
2788 0.000282743 1 0.196922 0.00364332 0.00299472 0 0 0 17.6704 0 5.13963e-15 1.99861 0 0 0.194251 0.00428626 0.00348224 
1319 0.000282743 1 0.50856 0.00389763 0.00299472 0 0 0 17.6704 0 -1.59181e-14 1.99861 0 -1.73472e-18 0.501663 0.00458545 0.00348224 
24 0.000282743 1 0.294599 0.00725002 0.00556768 0 0 0 17.6839 0 0.688955 2 0 -0.00277371 0.290604 0.00852944 0.00647404 
315 0.000282743 1 0.463802 0.0078913 0.00299472 0 0 0 17.6704 0 1.17896e-14 1.99861 0 0 0.457512 0.00928389 0.00348224 
926 0.000282743 1 0.847502 0.00637354 0.00299715 0 0 0 0.0963789 0 -0.000721826 -0.680362 0 -0.000775405 0.836008 0.00749829 0.00348505 
610 0.000282743 1 0.0997876 0.013257 0.00380061 0 0 0 17.6839 0 0.0030166 2 0 -0.00277371 0.0984342 0.0155965 0.00441931 
626 0.000282743 1 0.164656 0.0136063 0.00299472 0 0 0 17.6704 0 7.35628e-15 1.99861 0 0 0.162423 0.0160075 0.00348224 
229 0.000282743 1 0.372534 0.0159379 0.00354357 0 0 0 17.6839 0 0.0771254 2 0 -0.00277371 0.367482 0.0187505 0.00412044 
1485 0.000282743 1 0.541231 0.0121932 0.00299472 0 0 0 17.6704 0 -8.28467e-08 1.99861 0 1.46765e-07 0.533891 0.0143449 0.00348224 
281 0.000282743 1 0.61426 0.0121888 0.00299472 0 0 0 17.6704 0 -7.0555e-15 1.99861 0 0 0.60593 0.0143397 0.00348224 
1922 0.000282743 1 0.646799 0.0120591 0.00299472 0 0 0 17.6685 0.0118845 -7.01494e-13 1.99861 5.70693e-19 -1.23677e-13 0.638027 0.0141871 0.00348224 
2338 0.000282743 1 0.195929 0.0166446 0.00303061 0 0 0 17.6839 0 -0.0154009 2 0 -0.00277371 0.193272 0.0195819 0.00352397 
2752 0.000282743 1 0.314811 0.0171987 0.00299472 0 0 0 17.6704 0 -1.68157e-14 1.99861 0 -6.76542e-17 0.310541 0.0202338 0.00348224 
662 0.000282743 1 0.108216 0.0227621 0.00299472 0 0 0 17.6704 0 -8.55827e-14 1.99861 0 2.19534e-14 0.106748 0.026779 0.00348224 
136 0.000282743 1 0.778999 0.0228154 0.00376984 0 0 0 17.6839 0 -0.0188305 2 0 -0.00277371 0.768434 0.0268417 0.00438353 
312 0.000282743 1 0.79567 0.0237223 0.00299472 0 0 0 17.6704 0 -1.03798e-14 1.99861 0 0 0.784879 0.0279086 0.00348224 
2385 0.000282743 1 0.0482856 0.0271591 0.00299472 0 0 0 17.6704 0 -4.84163e-15 1.99861 0 0 0.0476307 0.0319519 0.00348224 
356 0.000282743 1 0.705313 0.0274179 0.00377897 0 0 0 17.6839 0 0.0268005 2 0 -0.00277371 0.695747 0.0322564 0.00439415 
2171 0.000282743 1 0.715612 0.0307014 0.00299472 0 0 0 17.6704 0 -9.27214e-15 1.99861 0 0 0.705907 0.0361193 0.00348224 
2212 0.000282743 1 0.827769 0.0291994 0.00455341 0 0 0 17.4712 0 0.707096 2 0 -0.00277371 0.816543 0.0343523 0.00529467 
2165 0.000282743 1 0.701148 0.0336834 0.00299472 0 0 0 17.6704 0 4.02921e-15 1.99861 0 0 0.691639 0.0396276 0.00348224 
1995 0.000282743 1 0.84401 0.0358753 0.00404715 0 0 0 15.7512 0 0.710658 2 0 -0.00277371 0.832564 0.0422062 0.00470599 
284 0.000282743 1 0.425285 0.0405785 0.00520934 0 0 0 17.6839 0 0.689312 2 0 -0.00277371 0.419517 0.0477394 0.00605737 
153 0.000282743 1 0.722086 0.0455722 0.00299472 0 0 0 17.6704 0 1.24314e-06 1.99861 0 -3.79838e-07 0.712293 0.0536144 0.00348224 
2946 0.000282743 1 0.0667465 0.0503255 0.00299472 0 0 0 17.6704 0 -5.07201e-11 1.99861 0 -3.3089e-11 0.0658413 0.0592065 0.00348224 
2245 0.000282743 1 0.167945 0.0511328 0.00299472 0 0 0 17.6704 0 -4.02713e-16 1.99861 0 0 0.165668 0.0601563 0.00348224 
338 0.000282743 1 0.330036 0.0513337 0.00299472 0 0 0 17.6704 0 -1.51454e-15 1.99861 0 0 0.32556 0.0603925 0.00348224 
1949 0.000282743 1 0.572741 0.0494126 0.00299472 0 0 0 17.6704 0 1.4009e-14 1.99861 0 0 0.564973 0.0581325 0.00348224 
1304 0.000282743 1 0.188649 0.0557894 0.00334248 0 0 0 17.6839 0 -0.0890785 2 0 -0.00277371 0.18609 0.0656346 0.0038866 
954 0.000282743 1 0.7585 0.0549755 0.00299472 0 0 0 17.6704 0 2.0659e-14 1.99861 0 0 0.748213 0.064677 0.00348224 
2678 0.000282743 1 0.215656 0.0574585 0.00343953 0 0 0 17.6839 0 -0.0773389 2 0 -0.00277371 0.212731 0.0675982 0.00399945 
2170 0.000282743 1 0.354919 0.0584649 0.00299472 0 0 0 17.6704 0 1.28986e-14 1.99861 0 0 0.350105 0.0687823 0.00348224 
1124 0.000282743 1 0.412624 0.0586676 0.00299472 0 0 0 17.6704 0 1.51167e-14 1.99861 0 0 0.407028 0.0690207 0.00348224 
849 0.000282743 1 0.450858 0.0567479 0.00299472 0 0 0 17.6704 0 3.20839e-14 1.99861 0 3.33414e-15 0.444743 0.0667623 0.00348224 
2717 0.000282743 1 0.535438 0.0596981 0.00299472 0 0 0 17.664 -0.00913781 6.24725e-15 1.99861 1.3669e-22 0 0.528176 0.070233 0.00348224 
2515 0.000282743 1 0.521662 0.0626138 0.00299472 0 0 0 17.6704 0 -1.03798e-14 1.99861 0 0 0.514587 0.0736633 0.00348224 
2174 0.000282743 1 0.738625 0.0611444 0.00299472 0 0 0 17.6704 0 2.0659e-14 1.99861 0 0 0.728608 0.0719345 0.00348224 
795 0.000282743 1 0.646472 0.0677966 0.00379624 0 0 0 17.6954 -0.0163322 0.0165102 2 0 -0.00277371 0.637705 0.0797608 0.00441424 
1156 0.000282743 1 0.653054 0.064281 0.00299472 0 0 0 17.6704 0 1.51153e-14 1.99861 0 0 0.644197 0.0756247 0.00348224 
2920 0.000282743 1 0.721025 0.0670631 0.00299472 0 0 0 17.6704 0 9.57294e-15 1.99861 0 0 0.711247 0.0788978 0.00348224 
1678 0.000282743 1 0.407719 0.0721212 0.00299472 0 0 0 17.6704 0 -2.61937e-15 1.99861 0 0 0.402189 0.0848485 0.00348224 
1599 0.000282743 1 0.610825 0.0709061 0.00299472 0 0 0 17.6704 0 1.0682e-14 1.99861 0 0 0.602541 0.083419 0.00348224 
367 0.000282743 1 0.226104 0.0743494 0.0029947 0 0 0 17.6684 0 0.000947161 1.99875 0 -0.000271019 0.223038 0.0874699 0.0034822 
2586 0.000282743 1 0.272585 0.0759655 0.00299472 0 0 0 17.6704 0 -1.14902e-14 1.99861 0 0 0.268888 0.0893711 0.00348224 
2800 0.000282743 1 0.158237 0.0791022 0.00299472 0 0 0 17.6704 0 -7.6235e-11 1.99861 0 3.11602e-12 0.156091 0.0930614 0.00348224 
1017 0.000282743 1 0.218724 0.0776333 0.00299472 0 0 0 17.6704 0 7.35628e-15 1.99861 0 0 0.215757 0.0913333 0.00348224 
1814 0.000282743 1 0.438013 0.0771766 0.00299472 0 0 0 17.6704 0 -7.05549e-15 1.99861 0 0 0.432073 0.090796 0.00348224 
2129 0.000282743 1 0.581745 0.0775321 0.00299472 0 0 0 17.6704 0 7.35628e-15 1.99861 0 0 0.573855 0.0912142 0.00348224 
2636 0.000282743 1 0.621363 0.0790148 0.00550139 0 0 0 17.6839 0 0.683797 2 0 -0.00277371 0.612936 0.0929586 0.00639697 
2996 0.000282743 1 0.262863 0.0806714 0.00299332 0 0 0 17.6562 0 0.00932844 1.99956 0 -0.00188863 0.259298 0.0949075 0.00348061 
1806 0.000282743 1 0.268255 0.0875507 0.00371855 0 0 0 17.6839 0 0.04546 2 0 -0.00277371 0.264616 0.103001 0.00432389 
2606 0.000282743 1 0.447774 0.0844638 0.00299473 0 0 0 17.6704 0 -4.50939e-06 1.99861 0 6.04905e-07 0.441702 0.0993692 0.00348224 
2881 0.000282743 1 0.553242 0.0859083 0.00323581 0 0 0 17.2004 -0.0531234 0.236933 2 0 -0.00277371 0.545739 0.101069 0.00376257 
876 0.000282743 1 0.605326 0.0863357 0.00298614 0 0 0 17.6673 0 -0.0033288 1.9934 0 0.0104201 0.597116 0.101571 0.00347225 
501 0.000282743 1 0.588946 0.0888182 0.00299472 0 0 0 17.6711 -0.0928269 1.47729e-13 1.99861 -2.27667e-18 -5.34673e-13 0.580959 0.104492 0.00348224 
1113 0.000282743 1 0.807344 0.0889726 0.00297702 0 0 0 17.4955 -0.0211442 -0.0391469 1.97851 1.49342e-07 0.0402153 0.796395 0.104674 0.00346165 
2182 0.000282743 1 0.81719 0.0886708 0.00299472 0 0 0 17.6385 -0.0474681 1.95486e-11 1.99861 4.11243e-16 1.21758e-10 0.806107 0.104319 0.00348224 
2062 0.000282743 1 0.0931671 0.0928605 0.00366494 0 0 0 17.6839 0 -0.0449559 2 0 -0.00277371 0.0919035 0.109248 0.00426156 
1907 0.000282743 1 0.828992 0.0975157 0.00299472 0 0 0 17.71 0.0259884 -8.16592e-15 1.99861 0 0 0.817749 0.114724 0.00348224 
2548 0.000282743 1 0.180643 0.103172 0.00299472 0 0 0 17.6704 0 4.02921e-15 1.99861 0 0 0.178193 0.121379 0.00348224 
1743 0.000282743 1 0.591324 0.101364 0.00299472 0 0 0 17.701 0.00182936 -8.16732e-15 1.99861 1.70862e-23 0 0.583305 0.119251 0.00348224 
676 0.000282743 1 0.683856 0.101408 0.00318168 0 0 0 17.3825 0 0.116849 2 0 -0.00277371 0.674582 0.119304 0.00369963 
1973 0.000282743 1 0.745657 0.102872 0.00299472 0 0 0 17.6704 0 -8.41314e-12 1.99861 0 5.17459e-14 0.735545 0.121026 0.00348224 
1747 0.000282743 1 0.164257 0.104694 0.00299473 0 0 0 17.6704 0 -3.82878e-06 1.99861 0 -1.5445e-06 0.162029 0.123169 0.00348224 
1183 0.000282743 1 0.660491 0.107623 0.00299472 0 0 0 17.6704 0 1.80974e-15 1.99861 0 0 0.651533 0.126615 0.00348224 
1692 0.000282743 1 0.673608 0.105908 0.00329041 0 0 0 17.6839 0 -0.0930501 2 0 -0.00277371 0.664472 0.124598 0.00382606 
1735 0.000282743 1 0.761588 0.105958 0.00299472 0 0 0 17.6704 0 1.12657e-07 1.99861 0 -4.91726e-08 0.75126 0.124656 0.00348224 
886 0.000282743 1 0.676978 0.112226 0.00299472 0 0 0 17.6704 0 2.92157e-15 1.99861 0 0 0.667797 0.132031 0.00348224 
220 0.000282743 1 0.773473 0.108588 0.00299472 0 0 0 17.6704 0 1.34246e-06 1.99861 0 -3.33617e-07 0.762983 0.12775 0.00348224 
2801 0.000282743 1 0.128906 0.115869 0.00299472 0 0 0 17.6704 0 1.02728e-13 1.99861 0 -9.32136e-14 0.127158 0.136317 0.00348224 
1801 0.000282743 1 0.367667 0.113038 0.00299472 0 0 0 17.6704 0 1.62508e-08 1.99861 0 -4.05547e-09 0.36268 0.132986 0.00348224 
140 0.000282743 1 0.491624 0.114857 0.00299472 0 0 0 17.6704 0 -7.05549e-15 1.99861 0 0 0.484956 0.135126 0.00348224 
1963 0.000282743 1 0.624396 0.112653 0.00286033 0 0 0 17.7218 0.317389 0.00107483 1.83597 0.0090973 0.351656 0.615928 0.132533 0.00332596 
2449 0.000282743 1 0.707341 0.112484 0.00347725 0 0 0 17.6839 0 0.0861389 2 0 -0.00277371 0.697748 0.132334 0.00404332 
934 0.000282743 1 0.823441 0.114351 0.00299472 0 0 0 17.6704 0 -4.02724e-16 1.99861 0 0 0.812273 0.13453 0.00348224 
392 0.000282743 1 0.209066 0.116778 0.00299472 0 0 0 17.6704 0 8.4639e-15 1.99861 0 0 0.206231 0.137385 0.00348224 
1400 0.000282743 1 0.299612 0.118653 0.00357623 0 0 0 17.6839 0 -0.0591924 2 0 -0.00277371 0.295549 0.139592 0.0041584 
2620 0.000282743 1 0.2561 0.122546 0.00299472 0 0 0 17.6704 0 -3.37002e-09 1.99861 0 -3.25174e-09 0.252627 0.144171 0.00348224 
2955 0.000282743 1 0.350876 0.121181 0.00299472 0 0 0 17.6704 0 -5.06635e-07 1.99861 0 4.20684e-08 0.346118 0.142565 0.00348224 
2869 0.000282743 1 0.531061 0.121393 0.00299472 0 0 0 17.4392 -0.0239456 -1.69139e-07 1.99861 -9.54844e-14 9.15601e-08 0.523858 0.142815 0.00348224 
2063 0.000282743 1 0.64537 0.121177 0.00299472 0 0 0 17.6704 0 6.24586e-15 1.99861 0 0 0.636617 0.142561 0.00348224 
2918 0.000282743 1 0.372086 0.125633 0.00376982 0 0 0 17.6839 0 0.0301132 2 0 -0.00277371 0.367039 0.147804 0.00438352 
2312 0.000282743 1 0.829106 0.125933 0.00299472 0 0 0 17.6704 0 -1.48159e-14 1.99861 0 0 0.817862 0.148157 0.00348224 
1860 0.000282743 1 0.130323 0.130739 0.00299473 0 0 0 17.6704 0 -4.70351e-06 1.99861 0 -1.85554e-07 0.128556 0.153811 0.00348224 
719 0.000282743 1 0.536776 0.130401 0.00299472 0 0 0 17.5755 0.0181812 3.17993e-11 1.99861 1.55919e-17 -4.31451e-11 0.529496 0.153413 0.00348224 
1378 0.000282743 1 0.712703 0.132815 0.00375607 0 0 0 17.6839 0 0.0350251 2 0 -0.00277371 0.703037 0.156252 0.00436752 
202 0.000282743 1 0.120158 0.137364 0.00299473 0 0 0 17.6704 0 1.00113e-06 1.99862 0 -3.7306e-06 0.118528 0.161605 0.00348224 
2160 0.000282743 1 0.426857 0.137743 0.00299472 0 0 0 17.5752 -0.116954 -1.14916e-14 1.99861 -2.18703e-21 0 0.421068 0.16205 0.00348224 
1451 0.000282743 1 0.544956 0.138716 0.00299472 0 0 0 17.6234 0.253923 9.6248e-07 1.99861 -1.18012e-11 -1.3728e-07 0.537566 0.163195 0.00348224 
768 0.000282743 1 0.783843 0.136757 0.00299472 0 0 0 17.6704 0 1.72054e-11 1.99861 0 -7.14744e-12 0.773212 0.16089 0.00348224 
2451 0.000282743 1 0.0251984 0.14389 0.00350789 0 0 0 17.6839 0 -0.0688436 2 0 -0.00277371 0.0248567 0.169282 0.00407895 
1582 0.000282743 1 0.274157 0.143686 0.00299472 0 0 0 17.6704 0 1.28896e-10 1.99861 0 1.15253e-10 0.270439 0.169042 0.00348224 
410 0.000282743 1 0.492959 0.144092 0.00304169 0 0 0 17.6839 0 -0.00586357 2 0 -0.00277371 0.486273 0.169519 0.00353684 
1246 0.000282743 1 0.0829358 0.149028 0.00299472 0 0 0 17.6894 0.0126758 6.31519e-13 1.99861 -6.80322e-19 2.78921e-13 0.081811 0.175327 0.00348224 
2461 0.000282743 1 0.480853 0.148491 0.00299476 0 0 0 17.6702 0 4.30148e-05 1.99863 0 -3.88118e-05 0.474332 0.174695 0.00348228 
2448 0.000282743 1 0.748644 0.149093 0.00299472 0 0 0 17.6704 0 -1.92506e-14 1.99861 0 0 0.738491 0.175404 0.00348224 
233 0.000282743 1 0.805833 0.148948 0.00307424 0 0 0 17.6868 -0.0184066 0.0222215 2 0 -0.00277371 0.794904 0.175233 0.0035747 
2991 0.000282743 1 0.509074 0.153952 0.00299472 0 0 0 17.6704 0 -8.37481e-14 1.99861 0 -3.05485e-14 0.50217 0.181119 0.00348224 
1051 0.000282743 1 0.756754 0.153803 0.00348689 0 0 0 17.6839 0 0.0849432 2 0 -0.00277371 0.746491 0.180945 0.00405452 
1576 0.000282743 1 0.580839 0.15931 0.00299472 0 0 0 17.6704 0 8.46391e-15 1.99861 0 0 0.572962 0.187424 0.00348224 
2643 0.000282743 1 0.598439 0.158048 0.00299472 0 0 0 17.6704 0 2.0493e-12 1.99861 0 -6.70787e-12 0.590323 0.185939 0.00348224 
55 0.000282743 1 0.0585763 0.161299 0.00414895 0 0 0 16.3276 0 0.713784 2 0 -0.00277371 0.0577819 0.189764 0.00482436 
1415 0.000282743 1 0.192395 0.161792 0.00298806 0 0 0 17.6732 0 -0.0125832 1.99286 0 0.0115132 0.189786 0.190344 0.00347449 
1669 0.000282743 1 0.277041 0.163659 0.00299472 0 0 0 17.6704 0 -1.48173e-14 1.99861 0 0 0.273283 0.19254 0.00348224 
1592 0.000282743 1 0.212154 0.165431 0.00299472 0 0 0 17.6704 0 -1.48159e-14 1.99861 0 0 0.209277 0.194625 0.00348224 
2682 0.000282743 1 0.283868 0.164924 0.00299472 0 0 0 17.6704 0 1.17896e-14 1.99861 0 0 0.280018 0.194028 0.00348224 
2962 0.000282743 1 0.477365 0.168313 0.00299472 0 0 0 17.6704 0 5.13963e-15 1.99861 0 0 0.470891 0.198015 0.00348224 
344 0.000282743 1 0.535791 0.167356 0.00298635 0 0 0 17.6682 0 -0.00450873 1.99331 0 0.0106128 0.528525 0.196889 0.0034725 
989 0.000282743 1 0.11968 0.171663 0.00355532 0 0 0 17.9828 0.184532 -0.0147493 2 0 -0.00277371 0.118057 0.201957 0.00413409 
330 0.000282743 1 0.267281 0.167958 0.00299472 0 0 0 17.8307 -0.198191 -7.57679e-07 1.99861 -1.82588e-12 5.49624e-07 0.263656 0.197598 0.00348224 
826 0.000282743 1 0.834773 0.171297 0.00299472 0 0 0 17.6704 0 8.46389e-15 1.99861 0 0 0.823452 0.201525 0.00348224 
543 0.000282743 1 0.0602986 0.17302 0.00304433 0 0 0 17.6839 0 0.000814991 2 0 -0.00277371 0.0594809 0.203553 0.00353992 
1293 0.000282743 1 0.325491 0.174331 0.00299472 0 0 0 17.6704 0 1.81113e-15 1.99861 0 0 0.321077 0.205096 0.00348224 
221 0.000282743 1 0.385472 0.172561 0.00299472 0 0 0 17.6704 0 6.24724e-15 1.99861 0 0 0.380244 0.203013 0.00348224 
113 0.000282743 1 0.39761 0.174128 0.00299472 0 0 0 17.6704 0 -3.73119e-15 1.99861 0 0 0.392218 0.204856 0.00348224 
178 0.000282743 1 0.634022 0.174539 0.00302718 0 0 0 17.2839 0 0.129626 2 0 -0.00277371 0.625424 0.20534 0.00351998 
2278 0.000282743 1 0.282453 0.179744 0.00299472 0 0 0 17.6704 0 -1.37069e-14 1.99861 0 0 0.278622 0.211463 0.00348224 
2281 0.000282743 1 0.417169 0.179038 0.00302736 0 0 0 17.6015 0 0.0181387 2 0 -0.00277371 0.411511 0.210633 0.00352019 
418 0.000282743 1 0.684973 0.176458 0.00299472 0 0 0 17.6704 0 -5.37847e-12 1.99861 0 -5.44808e-11 0.675683 0.207597 0.00348224 
921 0.000282743 1 0.830796 0.178483 0.00344181 0 0 0 17.6839 0 0.0903072 2 0 -0.00277371 0.819529 0.20998 0.00400211 
1998 0.000282743 1 0.127462 0.183085 0.00309701 0 0 0 17.6839 0 -0.111049 2 0 -0.00277371 0.125733 0.215394 0.00360118 
2976 0.000282743 1 0.25993 0.187989 0.00299472 0 0 0 17.6889 -0.00281716 8.4639e-15 1.99861 0 0 0.256405 0.221164 0.00348224 
538 0.000282743 1 0.656079 0.184973 0.00299472 0 0 0 17.6217 -0.149661 -9.56306e-08 1.99861 -1.22437e-12 -4.38459e-08 0.647181 0.217615 0.00348224 
1164 0.000282743 1 0.469817 0.190518 0.00299472 0 0 0 17.9347 0.324661 7.25187e-07 1.99861 -8.09739e-12 -2.66031e-07 0.463445 0.224139 0.00348224 
87 0.000282743 1 0.532998 0.189503 0.00299472 0 0 0 17.6704 0 7.35628e-15 1.99861 0 0 0.525769 0.222945 0.00348224 
2327 0.000282743 1 0.579076 0.192086 0.00298714 0 0 0 17.6604 0 0.00711912 1.99607 0 0.00507901 0.571223 0.225984 0.00347341 
2888 0.000282743 1 0.235301 0.194271 0.00299469 0 0 0 17.5429 0.0698881 7.26765e-05 1.99861 -3.12368e-10 5.22085e-06 0.23211 0.228554 0.0034822 
371 0.000282743 1 0.318361 0.193043 0.00299472 0 0 0 17.6704 0 1.29e-14 1.99861 0 0 0.314044 0.22711 0.00348224 
2202 0.000282743 1 0.114212 0.202405 0.00378815 0 0 0 17.6839 0 0.0208695 2 0 -0.00277371 0.112663 0.238123 0.00440483 
2830 0.000282743 1 0.521771 0.204474 0.00299472 0 0 0 17.6704 0 -1.03798e-14 1.99861 0 0 0.514695 0.240558 0.00348224 
961 0.000282743 1 0.817833 0.208214 0.00299472 0 0 0 17.6704 0 -1.37069e-14 1.99861 0 0 0.806741 0.244958 0.00348224 
1172 0.000282743 1 0.0749997 0.211557 0.00299473 0 0 0 17.6704 0 -4.66845e-06 1.99861 0 -2.94042e-07 0.0739826 0.24889 0.00348224 
2621 0.000282743 1 0.131744 0.209732 0.00299472 0 0 0 17.6704 0 -7.05689e-15 1.99861 0 0 0.129957 0.246743 0.00348224 
2109 0.000282743 1 0.343902 0.210491 0.00299472 0 0 0 17.6704 0 2.06604e-14 1.99861 0 0 0.339238 0.247637 0.00348224 
1885 0.000282743 1 0.363695 0.209041 0.00513436 0 0 0 17.6839 0 0.696512 2 0 -0.00277371 0.358763 0.245931 0.00597019 
1957 0.000282743 1 0.844704 0.213694 0.004006 0 0 0 15.6039 0 0.712025 2 0 -0.00277371 0.833248 0.251405 0.00465814 
2297 0.000282743 1 0.0657114 0.2168 0.00299473 0 0 0 17.701 -0.0188337 2.1124e-07 1.99861 -1.3607e-13 -3.11298e-07 0.0648202 0.255059 0.00348224 
2132 0.000282743 1 0.494968 0.218281 0.00299472 0 0 0 17.6704 0 -8.16593e-15 1.99861 0 0 0.488255 0.256801 0.00348224 
1444 0.000282743 1 0.737692 0.218083 0.00356495 0 0 0 17.6839 0 0.074474 2 0 -0.00277371 0.727687 0.256568 0.00414529 
145 0.000282743 1 0.0273302 0.221441 0.00299473 0 0 0 17.7104 0.019198 -3.38024e-06 1.99861 3.54983e-12 1.32674e-07 0.0269595 0.260519 0.00348224 
2512 0.000282743 1 0.719147 0.221883 0.00295725 0 0 0 17.9089 -0.382248 -0.0605138 1.95191 0.00298834 0.0935917 0.709394 0.261039 0.00343866 
254 0.000282743 1 0.417861 0.224656 0.00302247 0 0 0 17.6839 0 -0.020005 2 0 -0.00277371 0.412194 0.264301 0.0035145 
2849 0.000282743 1 0.562637 0.227689 0.00299472 0 0 0 17.6704 0 -7.2696e-12 1.99861 0 1.77636e-12 0.555006 0.267869 0.00348224 
296 0.000282743 1 0.590867 0.224442 0.00321964 0 0 0 17.3218 -0.409167 0.0236357 2 0 -0.00277371 0.582853 0.264049 0.00374376 
256 0.000282743 1 0.697265 0.227282 0.00299472 0 0 0 17.6704 0 1.4009e-14 1.99861 0 0 0.687809 0.26739 0.00348224 
2268 0.000282743 1 0.732566 0.228448 0.00299472 0 0 0 17.6704 0 -4.99867e-12 1.99861 0 2.48229e-12 0.722631 0.268762 0.00348224 
757 0.000282743 1 0.674165 0.240628 0.00318225 0 0 0 17.8007 0.417477 0.0780586 2 0 -0.00277371 0.665022 0.283092 0.00370029 
887 0.000282743 1 0.847455 0.240364 0.00299509 0 0 0 -0.167368 -0.0580705 0.00415124 -0.0674034 -0.000242332 -0.00278134 0.835962 0.282781 0.00348267 
2986 0.000282743 1 0.697193 0.242298 0.00299472 0 0 0 17.6727 -0.198296 -3.82692e-09 1.99861 -2.26742e-14 1.68248e-09 0.687737 0.285056 0.00348224 
188 0.000282743 1 0.831383 0.243396 0.00299472 0 0 0 17.6963 -0.0558365 -1.14902e-14 1.99861 0 0 0.820108 0.286348 0.00348224 
2563 0.000282743 1 0.711191 0.250223 0.00323141 0 0 0 17.9754 0.0378063 -0.081495 2 0 -0.00277371 0.701545 0.29438 0.00375745 
1096 0.000282743 1 0.807266 0.249488 0.00299463 0 0 0 17.6704 0 0.000100516 1.99859 0 4.41419e-05 0.796317 0.293515 0.00348213 
399 0.000282743 1 0.691097 0.253177 0.00299472 0 0 0 17.6704 0 -7.05548e-15 1.99861 0 0 0.681724 0.297855 0.00348224 
253 0.000282743 1 0.290752 0.260054 0.00299472 0 0 0 17.6704 0 1.73319e-14 1.99861 0 0 0.286809 0.305946 0.00348224 
185 0.000282743 1 0.447835 0.259601 0.00299472 0 0 0 17.6704 0 -1.01235e-14 1.99861 0 -2.48803e-15 0.441762 0.305413 0.00348224 
211 0.000282743 1 0.531991 0.256715 0.00299472 0 0 0 17.6704 0 -1.03812e-14 1.99861 0 0 0.524776 0.302018 0.00348224 
2020 0.000282743 1 0.735519 0.258997 0.00377528 0 0 0 17.6839 0 -0.0119342 2 0 -0.00277371 0.725544 0.304702 0.00438986 
2140 0.000282743 1 0.589005 0.263204 0.00308326 0 0 0 17.7338 -0.170581 -0.0125184 2 0 -0.00277371 0.581017 0.309652 0.00358518 
1897 0.000282743 1 0.602792 0.262435 0.00299475 0 0 0 18.0695 -0.41974 0.000505509 1.9987 7.83423e-09 -0.000178535 0.594617 0.308747 0.00348227 
1100 0.000282743 1 0.801027 0.264197 0.00306893 0 0 0 17.603 -0.0864587 -0.0728814 2 0 -0.00277371 0.790164 0.310821 0.00356853 
2290 0.000282743 1 0.62787 0.26628 0.00299473 0 0 0 17.8416 0.193438 3.41665e-07 1.99861 5.72457e-12 -7.92609e-07 0.619355 0.313271 0.00348224 
1831 0.000282743 1 0.814157 0.266934 0.00299472 0 0 0 17.2285 0.189503 -1.61651e-05 1.99861 9.8257e-11 6.5247e-06 0.803115 0.31404 0.00348224 
1816 0.000282743 1 0.335934 0.27068 0.00362736 0 0 0 17.6839 0 0.0644388 2 0 -0.00277371 0.331378 0.318447 0.00421786 
2558 0.000282743 1 0.576704 0.269085 0.0030012 0 0 0 17.3371 -0.229306 0.0990213 2 0 -0.00277371 0.568883 0.31657 0.00348976 
2901 0.000282743 1 0.0801802 0.273057 0.00357348 0 0 0 17.6839 0 0.0733763 2 0 -0.00277371 0.0790928 0.321243 0.0041552 
823 0.000282743 1 0.55743 0.273054 0.00299472 0 0 0 17.6704 0 -5.93529e-10 1.99861 0 1.49856e-10 0.54987 0.32124 0.00348224 
1670 0.000282743 1 0.143599 0.28049 0.00297835 0 0 0 17.6667 0 -0.0866556 1.96922 0 0.0587921 0.141652 0.329989 0.0034632 
2522 0.000282743 1 0.320035 0.277552 0.00299472 0 0 0 17.6704 0 -7.05688e-15 1.99861 0 0 0.315695 0.326531 0.00348224 
63 0.000282743 1 0.365704 0.281348 0.00299472 0 0 0 17.6704 0 3.28516e-14 1.99861 0 -1.71868e-15 0.360744 0.330997 0.00348224 
1438 0.000282743 1 0.836842 0.281128 0.00299472 0 0 0 18.0067 0.0773026 -2.05798e-11 1.99861 3.11584e-17 1.24907e-11 0.825493 0.330739 0.00348224 
1887 0.000282743 1 0.0481046 0.286407 0.00299738 0 0 0 17.6494 0 0.00365112 1.99999 0 -0.00275893 0.0474522 0.336949 0.00348532 
526 0.000282743 1 0.0939359 0.28736 0.00418885 0 0 0 17.6985 -0.212308 0.465642 2 0 -0.00277371 0.0926619 0.338071 0.00487076 
2585 0.000282743 1 0.119462 0.286704 0.00319821 0 0 0 17.5339 -0.206282 -0.00195712 2 0 -0.00277371 0.117842 0.337299 0.00371885 
1911 0.000282743 1 0.151321 0.285594 0.00299472 0 0 0 17.6704 0 1.51167e-14 1.99861 0 0 0.149268 0.335993 0.00348224 
706 0.000282743 1 0.179946 0.286103 0.00299472 0 0 0 17.6704 0 1.08442e-07 1.99861 0 -5.02865e-08 0.177505 0.336592 0.00348224 
2507 0.000282743 1 0.367121 0.288627 0.00299472 0 0 0 17.6704 0 -1.37083e-14 1.99861 0 0 0.362142 0.339562 0.00348224 
2737 0.000282743 1 0.818995 0.285085 0.00337303 0 0 0 17.6888 0.113455 -0.0335988 2 0 -0.00277371 0.807888 0.335394 0.00392212 
987 0.000282743 1 0.0393174 0.291819 0.00308474 0 0 0 17.6839 0 -0.111697 2 0 -0.00277371 0.0387842 0.343316 0.00358691 
1265 0.000282743 1 0.209104 0.288681 0.00299442 0 0 0 16.7865 -0.38328 0.000773123 1.99861 1.6798e-08 5.79092e-06 0.206269 0.339624 0.00348188 
1696 0.000282743 1 0.815203 0.289842 0.00299473 0 0 0 17.6943 0.139312 -4.64902e-05 1.99861 2.64568e-10 1.21012e-05 0.804147 0.340991 0.00348224 
2206 0.000282743 1 0.315539 0.295949 0.00299472 0 0 0 17.6182 -0.133467 3.74488e-08 1.99861 4.73443e-13 2.27134e-08 0.31126 0.348175 0.00348224 
2838 0.000282743 1 0.705361 0.296926 0.00299474 0 0 0 17.6705 0 -4.30026e-05 1.99861 0 5.05701e-07 0.695795 0.349325 0.00348226 
818 0.000282743 1 0.0663569 0.301929 0.00299472 0 0 0 17.6704 0 5.13823e-15 1.99861 0 0 0.065457 0.35521 0.00348224 
2407 0.000282743 1 0.191376 0.304103 0.00299472 0 0 0 17.6704 0 -1.51454e-15 1.99861 0 0 0.188781 0.357769 0.00348224 
1751 0.000282743 1 0.675424 0.304533 0.00299472 0 0 0 17.7871 -0.0736444 1.73319e-14 1.99861 -2.18703e-21 0 0.666264 0.358274 0.00348224 
1687 0.000282743 1 0.833901 0.302013 0.00299306 0 0 0 17.7212 -0.0416124 0.00297796 1.9984 2.80576e-09 0.000430395 0.822592 0.355309 0.0034803 
2457 0.000282743 1 0.387503 0.305371 0.00299472 0 0 0 17.6704 0 -5.65972e-08 1.99861 0 -5.02338e-09 0.382248 0.359261 0.00348224 
2082 0.000282743 1 0.400147 0.30527 0.00299472 0 0 0 17.6704 0 -1.81025e-07 1.99861 0 1.57843e-07 0.39472 0.359142 0.00348224 
1274 0.000282743 1 0.728918 0.305677 0.0032155 0 0 0 17.5612 0 0.113913 2 0 -0.00277371 0.719032 0.359621 0.00373895 
2380 0.000282743 1 0.476463 0.312551 0.00299472 0 0 0 17.6704 0 7.0632e-16 1.99861 0 0 0.470002 0.367707 0.00348224 
468 0.000282743 1 0.748824 0.310431 0.00379641 0 0 0 17.6839 0 -0.00327335 2 0 -0.00277371 0.738668 0.365213 0.00441443 
2146 0.000282743 1 0.523971 0.315994 0.00357401 0 0 0 17.6839 0 -0.0602909 2 0 -0.00277371 0.516865 0.371757 0.00415582 
1032 0.000282743 1 0.813486 0.318207 0.00343598 0 0 0 17.4183 0.210487 -0.154371 2 0 -0.00277371 0.802453 0.374361 0.00399532 
1872 0.000282743 1 0.14602 0.323274 0.00309988 0 0 0 17.9583 0.396509 0.0371534 2 0 -0.00277371 0.14404 0.380322 0.00360451 
1798 0.000282743 1 0.526684 0.324741 0.00299472 0 0 0 17.6704 0 1.42294e-11 1.99861 0 -7.61127e-12 0.519541 0.382048 0.00348224 
2022 0.000282743 1 0.116293 0.327677 0.00380009 0 0 0 17.6839 0 0.0104849 2 0 -0.00277371 0.114716 0.385502 0.00441871 
677 0.000282743 1 0.130606 0.32702 0.0033346 0 0 0 17.6839 0 0.101847 2 0 -0.00277371 0.128835 0.384729 0.00387745 
401 0.000282743 1 0.701133 0.326817 0.00355424 0 0 0 17.6839 0 -0.063273 2 0 -0.00277371 0.691624 0.38449 0.00413284 
1709 0.000282743 1 0.771987 0.327373 0.00314156 0 0 0 17.6839 0 -0.10737 2 0 -0.00277371 0.761518 0.385144 0.00365297 
1869 0.000282743 1 0.793675 0.328255 0.00309942 0 0 0 17.8354 -0.0917282 -0.0630746 2 0 -0.00277371 0.782911 0.386182 0.00360398 
2007 0.000282743 1 0.531963 0.332481 0.00310538 0 0 0 17.6839 0 -0.110495 2 0 -0.00277371 0.524748 0.391154 0.00361091 
889 0.000282743 1 0.778013 0.332139 0.00299472 0 0 0 17.7258 -0.113567 1.25683e-07 1.99861 1.87001e-11 2.5383e-06 0.767462 0.390752 0.00348223 
1352 0.000282743 1 0.784631 0.329447 0.0037268 0 0 0 17.6839 0 0.0434137 2 0 -0.00277371 0.77399 0.387585 0.00433349 
1496 0.000282743 1 0.808079 0.329645 0.00299472 0 0 0 17.6704 0 2.92156e-15 1.99861 0 0 0.79712 0.387817 0.00348224 
1236 0.000282743 1 0.0533215 0.333239 0.00299369 0 0 0 17.6744 0 -0.000369921 1.99812 0 0.000978146 0.0525984 0.392045 0.00348104 
2590 0.000282743 1 0.629159 0.333739 0.00299472 0 0 0 17.4448 0.142456 1.79806e-14 1.99861 4.37407e-21 -2.01662e-16 0.620627 0.392634 0.00348224 
2583 0.000282743 1 0.62662 0.343757 0.00299472 0 0 0 17.6704 0 -2.40244e-08 1.99861 0 1.76176e-08 0.618122 0.40442 0.00348224 
1892 0.000282743 1 0.349019 0.348409 0.00299472 0 0 0 17.6704 0 -1.37069e-14 1.99861 0 0 0.344285 0.409893 0.00348224 
2074 0.000282743 1 0.406433 0.349037 0.0032329 0 0 0 17.4038 0.335018 -0.0535585 2 0 -0.00277371 0.400921 0.410631 0.00375919 
95 0.000282743 1 0.672642 0.347146 0.0029947 0 0 0 17.6702 0 0.000123642 1.99862 0 -1.59928e-05 0.66352 0.408407 0.00348221 
1785 0.000282743 1 0.375823 0.355491 0.00299472 0 0 0 17.6704 0 -1.48067e-07 1.99861 0 1.56116e-07 0.370726 0.418224 0.00348224 
551 0.000282743 1 0.753993 0.356452 0.00299472 0 0 0 17.5473 0.095599 -1.37486e-10 1.99861 -2.934e-15 -1.30289e-11 0.743767 0.419356 0.00348224 
130 0.000282743 1 0.130438 0.363226 0.00299472 0 0 0 17.6704 0 8.4639e-15 1.99861 0 0 0.128669 0.427324 0.00348224 
1601 0.000282743 1 0.361854 0.362951 0.00378332 0 0 0 17.6495 0.0343134 -0.0633452 2 0 -0.00277371 0.356947 0.427002 0.00439921 
1535 0.000282743 1 0.519859 0.361707 0.00299472 0 0 0 17.6704 0 -7.05549e-15 1.99861 0 0 0.512809 0.425537 0.00348224 
1273 0.000282743 1 0.767268 0.362216 0.00299472 0 0 0 17.6704 0 -5.79436e-14 1.99861 0 3.05758e-14 0.756862 0.426136 0.00348224 
2253 0.000282743 1 0.456338 0.366363 0.00299472 0 0 0 17.6704 0 2.68335e-13 1.99861 0 -6.10146e-14 0.450149 0.431015 0.00348224 
2998 0.000282743 1 0.430394 0.371522 0.00299472 0 0 0 17.6704 0 -5.64007e-08 1.99861 0 4.88682e-09 0.424557 0.437085 0.00348224 
1754 0.000282743 1 0.216961 0.374043 0.00420511 0 0 0 17.5316 -0.0341775 0.438303 2 0 -0.00277371 0.214018 0.44005 0.00488967 
2273 0.000282743 1 0.29531 0.374454 0.00299472 0 0 0 17.6704 0 -1.25978e-14 1.99861 0 0 0.291305 0.440534 0.00348224 
1390 0.000282743 1 0.481019 0.378701 0.00299472 0 0 0 17.6704 0 1.17896e-14 1.99861 0 0 0.474495 0.445531 0.00348224 
1874 0.000282743 1 0.69869 0.377688 0.00299472 0 0 0 17.6704 0 1.06834e-14 1.99861 0 0 0.689214 0.444339 0.00348224 
1065 0.000282743 1 0.778092 0.379159 0.00299472 0 0 0 17.6704 0 -4.18996e-10 1.99861 0 -3.2904e-10 0.767539 0.446069 0.00348224 
1818 0.000282743 1 0.831504 0.380627 0.00299807 0 0 0 17.6538 0 -0.000297466 1.99966 0 -0.00209546 0.820227 0.447796 0.00348612 
161 0.000282743 1 0.0776385 0.381082 0.00299501 0 0 0 17.6704 0 -0.000299933 1.99868 0 -0.000134194 0.0765855 0.448331 0.00348257 
2855 0.000282743 1 0.55966 0.382179 0.00323072 0 0 0 17.7452 -0.0717648 -0.100262 2 0 -0.00277371 0.552069 0.449622 0.00375665 
2064 0.000282743 1 0.588002 0.383106 0.00371753 0 0 0 17.6839 0 -0.0349416 2 0 -0.00277371 0.580027 0.450713 0.00432271 
2148 0.000282743 1 0.797411 0.382648 0.00299472 0 0 0 17.6704 0 -7.59992e-11 1.99861 0 -2.65428e-12 0.786597 0.450175 0.00348224 
1280 0.000282743 1 0.83782 0.382849 0.00299472 0 0 0 17.6704 0 -5.94646e-15 1.99861 0 0 0.826457 0.450411 0.00348224 
417 0.000282743 1 0.556278 0.387429 0.00299481 0 0 0 17.7415 -0.0242255 0.000210851 1.99868 1.98248e-09 -0.000133067 0.548734 0.455799 0.00348234 
2655 0.000282743 1 0.646549 0.387301 0.00299472 0 0 0 17.6704 0 -6.93757e-14 1.99861 0 2.89634e-14 0.63778 0.455648 0.00348224 
2944 0.000282743 1 0.721366 0.386798 0.00374336 0 0 0 17.6839 0 0.0392416 2 0 -0.00277371 0.711583 0.455057 0.00435275 
800 0.000282743 1 0.739352 0.388414 0.00299472 0 0 0 17.6704 0 -5.58232e-09 1.99861 0 1.25143e-09 0.729325 0.456958 0.00348224 
354 0.000282743 1 0.35064 0.389325 0.00299471 0 0 0 17.6704 0 4.55121e-06 1.99861 0 8.70727e-06 0.345884 0.458029 0.00348222 
2735 0.000282743 1 0.847456 0.391249 0.00373199 0 0 0 -0.172675 0 0.023548 -0.070607 0 -0.00179272 0.835963 0.460292 0.00433953 
2242 0.000282743 1 0.224609 0.397517 0.00299472 0 0 0 17.6704 0 -5.37639e-09 1.99861 0 1.3813e-09 0.221563 0.467668 0.00348224 