ITEM: TIMESTEP
25050
ITEM: NUMBER OF ATOMS
3000
ITEM: BOX BOUNDS mm mm mm
0 0.850471
0 0.85
0 0.86
ITEM: ATOMS id mass type x y z ix iy iz vx vy vz fx fy fz xs ys zs 
2788 0.000282743 1 0.175718 0.00364332 0.00299472 0 0 0 3.53312 0 5.13963e-15 1.99861 0 0 0.206613 0.00428626 0.00348224 
1319 0.000282743 1 0.487356 0.00389763 0.00299472 0 0 0 3.53312 0 -1.58694e-14 1.99861 0 -1.69136e-17 0.573043 0.00458545 0.00348224 
24 0.000282743 1 0.273378 0.00725002 0.00417015 0 0 0 3.53678 0 0.708575 2 0 -0.00277371 0.321444 0.00852944 0.00484901 
315 0.000282743 1 0.442598 0.0078913 0.00299472 0 0 0 3.53312 0 1.17896e-14 1.99861 0 0 0.520416 0.00928389 0.00348224 
926 0.000282743 1 0.844865 0.00637354 0.00299472 0 0 0 3.53312 0 1.28986e-14 1.99861 0 0 0.993409 0.00749829 0.00348224 
610 0.000282743 1 0.0785669 0.013257 0.00377496 0 0 0 3.53678 0 0.0226366 2 0 -0.00277371 0.0923805 0.0155965 0.00438948 
626 0.000282743 1 0.143452 0.0136063 0.00299472 0 0 0 3.53312 0 7.35628e-15 1.99861 0 0 0.168674 0.0160075 0.00348224 
229 0.000282743 1 0.351314 0.0159379 0.0033697 0 0 0 3.53678 0 0.0967454 2 0 -0.00277371 0.413081 0.0187505 0.00391826 
1485 0.000282743 1 0.520028 0.0121932 0.00299473 0 0 0 3.53312 0 2.68878e-07 1.99861 0 -4.40198e-07 0.611459 0.0143449 0.00348224 
281 0.000282743 1 0.593057 0.0121888 0.00299472 0 0 0 3.53312 0 -7.0555e-15 1.99861 0 0 0.697328 0.0143397 0.00348224 
1922 0.000282743 1 0.625599 0.0120353 0.00299472 0 0 0 3.53123 0.0118845 2.06481e-12 1.99861 1.50778e-18 3.99345e-13 0.735592 0.0141592 0.00348224 
2338 0.000282743 1 0.174709 0.0166446 0.0030418 0 0 0 3.53678 0 0.00421906 2 0 -0.00277371 0.205426 0.0195819 0.00353697 
2752 0.000282743 1 0.293607 0.0171987 0.00299472 0 0 0 3.53312 0 -1.50808e-14 1.99861 0 -6.05852e-16 0.345229 0.0202338 0.00348224 
662 0.000282743 1 0.0870122 0.0227621 0.00299472 0 0 0 3.53312 0 2.43412e-13 1.99861 0 -7.21992e-14 0.102311 0.026779 0.00348224 
136 0.000282743 1 0.757779 0.0228154 0.00378788 0 0 0 3.53678 0 0.000789538 2 0 -0.00277371 0.891011 0.0268417 0.00440451 
312 0.000282743 1 0.774467 0.0237223 0.00299472 0 0 0 3.53312 0 -1.03798e-14 1.99861 0 0 0.910633 0.0279086 0.00348224 
2385 0.000282743 1 0.027082 0.0271591 0.00299472 0 0 0 3.53312 0 -4.84163e-15 1.99861 0 0 0.0318436 0.0319519 0.00348224 
356 0.000282743 1 0.684092 0.0274179 0.00370575 0 0 0 3.53678 0 0.0464205 2 0 -0.00277371 0.804369 0.0322564 0.00430901 
2171 0.000282743 1 0.694408 0.0307014 0.00299472 0 0 0 3.53312 0 -9.27214e-15 1.99861 0 0 0.816499 0.0361193 0.00348224 
2212 0.000282743 1 0.806974 0.0291994 0.0031196 0 0 0 3.32411 0 0.726716 2 0 -0.00277371 0.948856 0.0343523 0.00362744 
2165 0.000282743 1 0.679944 0.0336834 0.00299472 0 0 0 3.53312 0 4.02921e-15 1.99861 0 0 0.799492 0.0396276 0.00348224 
1995 0.000282743 1 0.826476 0.0358753 0.00258045 0 0 0 2.37871 0 0.0863562 1.17899 0 1.91625 0.971787 0.0422062 0.00300052 
284 0.000282743 1 0.404064 0.0405785 0.00381109 0 0 0 3.53678 0 0.708932 2 0 -0.00277371 0.475106 0.0477394 0.0044315 
153 0.000282743 1 0.700883 0.0455722 0.00299472 0 0 0 3.53312 0 -3.75247e-06 1.99861 0 1.10344e-06 0.824112 0.0536144 0.00348224 
2946 0.000282743 1 0.045543 0.0503255 0.00299472 0 0 0 3.53312 0 1.45559e-10 1.99861 0 1.0166e-10 0.0535503 0.0592065 0.00348224 
2245 0.000282743 1 0.146742 0.0511328 0.00299472 0 0 0 3.53312 0 -4.02713e-16 1.99861 0 0 0.172542 0.0601563 0.00348224 
338 0.000282743 1 0.308832 0.0513337 0.00299472 0 0 0 3.53312 0 -1.51454e-15 1.99861 0 0 0.363131 0.0603925 0.00348224 
1949 0.000282743 1 0.551537 0.0494126 0.00299472 0 0 0 3.53312 0 1.4009e-14 1.99861 0 0 0.648509 0.0581325 0.00348224 
1304 0.000282743 1 0.167428 0.0557894 0.00350101 0 0 0 3.53678 0 -0.0694585 2 0 -0.00277371 0.196865 0.0656346 0.00407095 
954 0.000282743 1 0.737297 0.0549755 0.00299472 0 0 0 3.53312 0 2.0659e-14 1.99861 0 0 0.866928 0.064677 0.00348224 
2678 0.000282743 1 0.194435 0.0574585 0.00357459 0 0 0 3.53678 0 -0.0577189 2 0 -0.00277371 0.22862 0.0675982 0.0041565 
2170 0.000282743 1 0.333715 0.0584649 0.00299472 0 0 0 3.53312 0 1.28986e-14 1.99861 0 0 0.392389 0.0687823 0.00348224 
1124 0.000282743 1 0.39142 0.0586676 0.00299472 0 0 0 3.53312 0 1.51167e-14 1.99861 0 0 0.46024 0.0690207 0.00348224 
849 0.000282743 1 0.429654 0.0567479 0.00299472 0 0 0 3.53312 0 -9.62411e-14 1.99861 0 -1.25715e-14 0.505196 0.0667623 0.00348224 
2717 0.000282743 1 0.514247 0.0597164 0.00299472 0 0 0 3.52674 -0.00913781 6.24725e-15 1.99861 6.90613e-22 0 0.604662 0.0702545 0.00348224 
2515 0.000282743 1 0.500458 0.0626138 0.00299472 0 0 0 3.53312 0 -1.03798e-14 1.99861 0 0 0.588449 0.0736633 0.00348224 
2174 0.000282743 1 0.717421 0.0611444 0.00299472 0 0 0 3.53312 0 2.0659e-14 1.99861 0 0 0.843558 0.0719345 0.00348224 
795 0.000282743 1 0.625228 0.0678293 0.0037436 0 0 0 3.54827 -0.0163322 0.0361302 2 0 -0.00277371 0.735156 0.0797992 0.00435303 
1156 0.000282743 1 0.63185 0.064281 0.00299472 0 0 0 3.53312 0 1.51153e-14 1.99861 0 0 0.742942 0.0756247 0.00348224 
2920 0.000282743 1 0.699822 0.0670631 0.00299472 0 0 0 3.53312 0 9.57294e-15 1.99861 0 0 0.822864 0.0788978 0.00348224 
1678 0.000282743 1 0.386515 0.0721212 0.00299472 0 0 0 3.53312 0 -2.61937e-15 1.99861 0 0 0.454472 0.0848485 0.00348224 
1599 0.000282743 1 0.589621 0.0709061 0.00299472 0 0 0 3.53312 0 1.0682e-14 1.99861 0 0 0.693288 0.083419 0.00348224 
367 0.000282743 1 0.204904 0.0743494 0.00299496 0 0 0 3.53307 0 -0.00297506 1.99825 0 0.000727084 0.24093 0.0874699 0.00348251 
2586 0.000282743 1 0.251381 0.0759655 0.00299472 0 0 0 3.53312 0 -1.14902e-14 1.99861 0 0 0.295579 0.0893711 0.00348224 
2800 0.000282743 1 0.137033 0.0791022 0.00299472 0 0 0 3.53312 0 2.26974e-10 1.99861 0 -6.75694e-12 0.161127 0.0930614 0.00348224 
1017 0.000282743 1 0.19752 0.0776333 0.00299472 0 0 0 3.53312 0 7.35628e-15 1.99861 0 0 0.232248 0.0913333 0.00348224 
1814 0.000282743 1 0.41681 0.0771766 0.00299472 0 0 0 3.53312 0 -7.05549e-15 1.99861 0 0 0.490093 0.090796 0.00348224 
2129 0.000282743 1 0.560541 0.0775321 0.00299472 0 0 0 3.53312 0 7.35628e-15 1.99861 0 0 0.659096 0.0912142 0.00348224 
2636 0.000282743 1 0.600142 0.0790148 0.00411418 0 0 0 3.53678 0 0.703417 2 0 -0.00277371 0.705659 0.0929586 0.00478393 
2996 0.000282743 1 0.241673 0.0806714 0.00300559 0 0 0 3.53678 0 -0.0264786 2 0 -0.00277371 0.284163 0.0949075 0.00349487 
1806 0.000282743 1 0.247034 0.0875507 0.00360801 0 0 0 3.53678 0 0.06508 2 0 -0.00277371 0.290467 0.103001 0.00419536 
2606 0.000282743 1 0.426571 0.0844638 0.00299472 0 0 0 3.53312 0 1.34898e-05 1.99861 0 -1.67118e-06 0.50157 0.0993692 0.00348223 
2881 0.000282743 1 0.532887 0.0860117 0.00275777 0 0 0 3.22541 0.0649999 0.140053 1.92225 -0.136572 0.0910834 0.626579 0.10119 0.00320671 
876 0.000282743 1 0.584111 0.0863357 0.00302802 0 0 0 3.53678 0 -0.0168384 2 0 -0.00277371 0.686809 0.101571 0.00352095 
501 0.000282743 1 0.567741 0.0890039 0.00299472 0 0 0 3.53379 -0.0928269 -5.23887e-13 1.99861 3.4896e-18 1.60276e-12 0.667561 0.10471 0.00348224 
1113 0.000282743 1 0.78646 0.0890149 0.00311722 0 0 0 3.37055 -0.0211443 -0.0638312 2 0 -0.00277371 0.924735 0.104723 0.00362467 
2182 0.000282743 1 0.79605 0.0887657 0.00299472 0 0 0 3.50122 -0.0474681 -3.91925e-11 1.99861 6.08039e-17 -3.68275e-10 0.936012 0.10443 0.00348224 
2062 0.000282743 1 0.0719464 0.0928605 0.00373523 0 0 0 3.53678 0 -0.0253359 2 0 -0.00277371 0.084596 0.109248 0.00434329 
1907 0.000282743 1 0.80771 0.0974637 0.00299472 0 0 0 3.57265 0.0259884 -8.16592e-15 1.99861 3.6944e-58 0 0.949721 0.114663 0.00348224 
2548 0.000282743 1 0.159439 0.103172 0.00299472 0 0 0 3.53312 0 4.02921e-15 1.99861 0 0 0.187472 0.121379 0.00348224 
1743 0.000282743 1 0.57006 0.10136 0.00299472 0 0 0 3.56375 0.00182936 -8.16732e-15 1.99861 8.63266e-23 0 0.670287 0.119247 0.00348224 
676 0.000282743 1 0.663229 0.101408 0.00291304 0 0 0 3.26969 0 0.155372 1.955 0 0.0872311 0.779838 0.119304 0.00338726 
1973 0.000282743 1 0.724454 0.102872 0.00299472 0 0 0 3.53312 0 2.50044e-11 1.99861 0 1.37962e-13 0.851827 0.121026 0.00348224 
1747 0.000282743 1 0.143053 0.104694 0.00299471 0 0 0 3.53311 0 1.11365e-05 1.99861 0 4.79727e-06 0.168205 0.123169 0.00348223 
1183 0.000282743 1 0.639287 0.107623 0.00299472 0 0 0 3.53312 0 1.80974e-15 1.99861 0 0 0.751686 0.126615 0.00348224 
1692 0.000282743 1 0.652387 0.105908 0.00345689 0 0 0 3.53678 0 -0.0734301 2 0 -0.00277371 0.767089 0.124598 0.00401964 
1735 0.000282743 1 0.740385 0.105958 0.00299472 0 0 0 3.53312 0 -3.42328e-07 1.99861 0 1.44538e-07 0.870559 0.124656 0.00348224 
886 0.000282743 1 0.655775 0.112226 0.00299472 0 0 0 3.53312 0 2.92157e-15 1.99861 0 0 0.771073 0.132031 0.00348224 
220 0.000282743 1 0.75227 0.108588 0.00299473 0 0 0 3.53312 0 -4.04036e-06 1.99861 0 9.60402e-07 0.884534 0.12775 0.00348224 
2801 0.000282743 1 0.107703 0.115869 0.00299472 0 0 0 3.53312 0 -3.23218e-13 1.99861 0 2.77955e-13 0.126639 0.136317 0.00348224 
1801 0.000282743 1 0.346463 0.113038 0.00299472 0 0 0 3.53312 0 -4.89093e-08 1.99861 0 1.16786e-08 0.407378 0.132986 0.00348224 
140 0.000282743 1 0.47042 0.114857 0.00299472 0 0 0 3.53312 0 -7.05549e-15 1.99861 0 0 0.55313 0.135126 0.00348224 
1963 0.000282743 1 0.603127 0.11253 0.00299472 0 0 0 3.53312 0 -4.02723e-16 1.99861 0 0 0.709168 0.132388 0.00348224 
2449 0.000282743 1 0.68612 0.112484 0.00328536 0 0 0 3.53678 0 0.105759 2 0 -0.00277371 0.806754 0.132334 0.00382018 
934 0.000282743 1 0.802237 0.114351 0.00299472 0 0 0 3.53312 0 -4.02724e-16 1.99861 0 0 0.943287 0.13453 0.00348224 
392 0.000282743 1 0.187863 0.116778 0.00299472 0 0 0 3.53312 0 8.4639e-15 1.99861 0 0 0.220893 0.137385 0.00348224 
1400 0.000282743 1 0.278392 0.118653 0.00367499 0 0 0 3.53678 0 -0.0395724 2 0 -0.00277371 0.327338 0.139592 0.00427325 
2620 0.000282743 1 0.234897 0.122546 0.00299472 0 0 0 3.53312 0 9.50791e-09 1.99861 0 9.93441e-09 0.276196 0.144171 0.00348224 
2955 0.000282743 1 0.329673 0.121181 0.00299472 0 0 0 3.53312 0 1.5117e-06 1.99861 0 -1.09412e-07 0.387636 0.142565 0.00348224 
2869 0.000282743 1 0.51032 0.121441 0.00299472 0 0 0 3.30189 -0.0239456 5.16693e-07 1.99861 -7.84563e-13 -2.70543e-07 0.600044 0.142871 0.00348224 
2063 0.000282743 1 0.624166 0.121177 0.00299472 0 0 0 3.53312 0 6.24586e-15 1.99861 0 0 0.733907 0.142561 0.00348224 
2918 0.000282743 1 0.350865 0.125633 0.00368998 0 0 0 3.53678 0 0.0497332 2 0 -0.00277371 0.412554 0.147804 0.00429067 
2312 0.000282743 1 0.807902 0.125933 0.00299472 0 0 0 3.53312 0 -1.48104e-14 1.99861 0 -1.73472e-18 0.949948 0.148157 0.00348224 
1860 0.000282743 1 0.109119 0.130739 0.00299472 0 0 0 3.53312 0 1.39454e-05 1.99861 0 7.22084e-07 0.128305 0.153811 0.00348223 
719 0.000282743 1 0.515762 0.130365 0.00299472 0 0 0 3.43823 0.0181812 -1.01167e-10 1.99861 -1.2093e-16 1.29155e-10 0.606443 0.15337 0.00348224 
1378 0.000282743 1 0.691482 0.132815 0.0036664 0 0 0 3.53678 0 0.0546451 2 0 -0.00277371 0.813059 0.156252 0.00426325 
202 0.000282743 1 0.0989545 0.137364 0.00299471 0 0 0 3.53311 0 -3.56164e-06 1.99861 0 1.12372e-05 0.116353 0.161605 0.00348222 
2160 0.000282743 1 0.405844 0.137977 0.00299472 0 0 0 3.43792 -0.116954 -1.14916e-14 1.99861 -1.10498e-20 0 0.477199 0.162326 0.00348224 
1451 0.000282743 1 0.523847 0.138208 0.00299473 0 0 0 3.4861 0.253923 -2.88083e-06 1.99861 -4.55098e-11 3.8091e-07 0.615949 0.162598 0.00348224 
768 0.000282743 1 0.762639 0.136757 0.00299472 0 0 0 3.53312 0 -5.22288e-11 1.99861 0 2.09812e-11 0.896726 0.16089 0.00348224 
2451 0.000282743 1 0.00397778 0.14389 0.00362596 0 0 0 3.53678 0 -0.0492236 2 0 -0.00277371 0.00467715 0.169282 0.00421623 
1582 0.000282743 1 0.252953 0.143686 0.00299472 0 0 0 3.53312 0 -3.65066e-10 1.99861 0 -3.52437e-10 0.297427 0.169042 0.00348224 
410 0.000282743 1 0.471738 0.144092 0.00303379 0 0 0 3.53678 0 0.0137564 2 0 -0.00277371 0.554679 0.169519 0.00352767 
1246 0.000282743 1 0.0616942 0.149002 0.00299472 0 0 0 3.55214 0.0126758 -1.83681e-12 1.99861 -1.40977e-18 -8.65151e-13 0.0725412 0.175297 0.00348224 
2461 0.000282743 1 0.45965 0.148491 0.00299463 0 0 0 3.53303 0 -0.000135218 1.99855 0 0.00011636 0.540466 0.174695 0.00348213 
2448 0.000282743 1 0.72744 0.149093 0.00299472 0 0 0 3.53312 0 -1.92506e-14 1.99861 0 0 0.855339 0.175404 0.00348224 
233 0.000282743 1 0.784606 0.148985 0.00301018 0 0 0 3.5397 -0.0184066 0.0418415 2 0 -0.00277371 0.922556 0.175276 0.0035002 
2991 0.000282743 1 0.487871 0.153952 0.00299472 0 0 0 3.53312 0 2.42208e-13 1.99861 0 9.87613e-14 0.573648 0.181119 0.00348224 
1051 0.000282743 1 0.735534 0.153803 0.00329738 0 0 0 3.53678 0 0.104563 2 0 -0.00277371 0.864855 0.180945 0.00383417 
1576 0.000282743 1 0.559636 0.15931 0.00299472 0 0 0 3.53312 0 8.46391e-15 1.99861 0 0 0.658031 0.187424 0.00348224 
2643 0.000282743 1 0.577236 0.158048 0.00299472 0 0 0 3.53312 0 -7.1275e-12 1.99861 0 2.01787e-11 0.678725 0.185939 0.00348224 
55 0.000282743 1 0.0400125 0.161299 0.002641 0 0 0 2.44684 0 0.75366 1.54825 0 0.900716 0.0470475 0.189764 0.00307092 
1415 0.000282743 1 0.171177 0.161792 0.00303135 0 0 0 3.53678 0 -0.0143147 2 0 -0.00277371 0.201273 0.190344 0.00352482 
1669 0.000282743 1 0.255837 0.163659 0.00299472 0 0 0 3.53312 0 -1.48173e-14 1.99861 0 0 0.300818 0.19254 0.00348224 
1592 0.000282743 1 0.190951 0.165431 0.00299472 0 0 0 3.53312 0 -1.48143e-14 1.99861 0 -8.67362e-19 0.224523 0.194625 0.00348224 
2682 0.000282743 1 0.262665 0.164924 0.00299472 0 0 0 3.53312 0 1.17896e-14 1.99861 0 0 0.308846 0.194028 0.00348224 
2962 0.000282743 1 0.456162 0.168313 0.00299472 0 0 0 3.53312 0 5.13963e-15 1.99861 0 0 0.536364 0.198015 0.00348224 
344 0.000282743 1 0.514576 0.167356 0.00302819 0 0 0 3.53678 0 -0.0162738 2 0 -0.00277371 0.605049 0.196889 0.00352115 
989 0.000282743 1 0.0978611 0.171294 0.0035652 0 0 0 3.83572 0.184532 0.00487073 2 0 -0.00277371 0.115067 0.201522 0.00414558 
330 0.000282743 1 0.245757 0.168355 0.00299473 0 0 0 3.69342 -0.198191 2.33595e-06 1.99861 -2.95918e-11 -1.63289e-06 0.288965 0.198064 0.00348224 
826 0.000282743 1 0.813569 0.171297 0.00299472 0 0 0 3.53312 0 8.46389e-15 1.99861 0 0 0.956611 0.201525 0.00348224 
543 0.000282743 1 0.039078 0.17302 0.00302308 0 0 0 3.53678 0 0.020435 2 0 -0.00277371 0.0459487 0.203553 0.00351521 
1293 0.000282743 1 0.304288 0.174331 0.00299472 0 0 0 3.53312 0 1.81113e-15 1.99861 0 0 0.357788 0.205096 0.00348224 
221 0.000282743 1 0.364269 0.172561 0.00299472 0 0 0 3.53312 0 6.24724e-15 1.99861 0 0 0.428314 0.203013 0.00348224 
113 0.000282743 1 0.376407 0.174128 0.00299472 0 0 0 3.53312 0 -3.73119e-15 1.99861 0 0 0.442586 0.204856 0.00348224 
178 0.000282743 1 0.613247 0.174539 0.00325092 0 0 0 3.53678 0 -0.449914 2 0 -0.00277371 0.721067 0.20534 0.00378014 
2278 0.000282743 1 0.26125 0.179744 0.00299472 0 0 0 3.53312 0 -1.37069e-14 1.99861 0 0 0.307182 0.211463 0.00348224 
2281 0.000282743 1 0.396109 0.179038 0.00296638 0 0 0 3.46751 0 0.032973 1.98565 0 0.0259173 0.465753 0.210633 0.00344928 
418 0.000282743 1 0.663769 0.176458 0.00299472 0 0 0 3.53312 0 7.53665e-12 1.99861 0 1.64668e-10 0.780473 0.207597 0.00348224 
921 0.000282743 1 0.809576 0.178483 0.00324158 0 0 0 3.53678 0 0.109927 2 0 -0.00277371 0.951915 0.20998 0.00376928 
1998 0.000282743 1 0.106241 0.183085 0.00329949 0 0 0 3.53678 0 -0.0914295 2 0 -0.00277371 0.12492 0.215394 0.00383662 
2976 0.000282743 1 0.238689 0.187995 0.00299472 0 0 0 3.55156 -0.00281716 8.4639e-15 1.99861 -2.34512e-59 0 0.280656 0.221171 0.00348224 
538 0.000282743 1 0.634973 0.185272 0.00299472 0 0 0 3.48442 -0.149661 2.77315e-07 1.99861 -2.50208e-12 1.357e-07 0.746613 0.217967 0.00348224 
1164 0.000282743 1 0.448085 0.189869 0.00299472 0 0 0 3.7974 0.324661 -2.19586e-06 1.99861 -4.48524e-11 7.77929e-07 0.526867 0.223375 0.00348224 
87 0.000282743 1 0.511794 0.189503 0.00299472 0 0 0 3.53312 0 7.35628e-15 1.99861 0 0 0.601778 0.222945 0.00348224 
2327 0.000282743 1 0.557869 0.192086 0.00302081 0 0 0 3.53678 0 -0.0203238 2 0 -0.00277371 0.655953 0.225984 0.00351257 
2888 0.000282743 1 0.214353 0.194131 0.00299483 0 0 0 3.40574 0.0698881 -0.000214982 1.99862 -9.1142e-10 -1.86525e-05 0.25204 0.228389 0.00348236 
371 0.000282743 1 0.297158 0.193043 0.00299472 0 0 0 3.53312 0 1.29e-14 1.99861 0 0 0.349404 0.22711 0.00348224 
2202 0.000282743 1 0.0929918 0.202405 0.00372679 0 0 0 3.53678 0 0.0404895 2 0 -0.00277371 0.109342 0.238123 0.00433348 
2830 0.000282743 1 0.500568 0.204474 0.00299472 0 0 0 3.53312 0 -1.03798e-14 1.99861 0 0 0.588578 0.240558 0.00348224 
961 0.000282743 1 0.796629 0.208214 0.00299472 0 0 0 3.53312 0 -1.37069e-14 1.99861 0 0 0.936692 0.244958 0.00348224 
1172 0.000282743 1 0.0537962 0.211557 0.00299472 0 0 0 3.53312 0 1.38246e-05 1.99861 0 1.04852e-06 0.0632546 0.24889 0.00348223 
2621 0.000282743 1 0.11054 0.209732 0.00299472 0 0 0 3.53312 0 -7.05689e-15 1.99861 0 0 0.129975 0.246743 0.00348224 
2109 0.000282743 1 0.322699 0.210491 0.00299472 0 0 0 3.53312 0 2.06604e-14 1.99861 0 0 0.379436 0.247637 0.00348224 
1885 0.000282743 1 0.342475 0.209041 0.00372172 0 0 0 3.53678 0 0.716132 2 0 -0.00277371 0.402688 0.245931 0.00432758 
1957 0.000282743 1 0.827434 0.213694 0.00258789 0 0 0 2.40018 0 -0.357049 0.961243 0 2.27692 0.972913 0.251405 0.00300918 
2297 0.000282743 1 0.0444467 0.216838 0.00299472 0 0 0 3.56371 -0.0188337 -6.75936e-07 1.99861 8.41413e-13 9.32538e-07 0.0522613 0.255103 0.00348224 
2132 0.000282743 1 0.473764 0.218281 0.00299472 0 0 0 3.53312 0 -8.16593e-15 1.99861 0 0 0.557062 0.256801 0.00348224 
1444 0.000282743 1 0.716471 0.218083 0.00339638 0 0 0 3.53678 0 0.094094 2 0 -0.00277371 0.842441 0.256568 0.00394928 
145 0.000282743 1 0.00604668 0.221403 0.00299472 0 0 0 3.57309 0.019198 1.00629e-05 1.99861 1.19568e-11 -2.83982e-07 0.0071098 0.260474 0.00348223 
2512 0.000282743 1 0.697381 0.222654 0.00324914 0 0 0 3.8135 -0.385685 -0.14449 2 0 -0.00277371 0.819995 0.261946 0.00377807 
254 0.000282743 1 0.39664 0.224656 0.00304286 0 0 0 3.53678 0 -0.000384961 2 0 -0.00277371 0.466378 0.264301 0.00353821 
2849 0.000282743 1 0.541433 0.227689 0.00299472 0 0 0 3.53312 0 2.18771e-11 1.99861 0 -5.11141e-12 0.636628 0.267869 0.00348224 
296 0.000282743 1 0.57037 0.22526 0.00315274 0 0 0 3.17472 -0.409167 0.0432557 2 0 -0.00277371 0.670652 0.265012 0.00366598 
256 0.000282743 1 0.676062 0.227282 0.00299472 0 0 0 3.53312 0 1.4009e-14 1.99861 0 0 0.794927 0.26739 0.00348224 
2268 0.000282743 1 0.711362 0.228448 0.00299472 0 0 0 3.53312 0 1.52356e-11 1.99861 0 -7.32015e-12 0.836434 0.268762 0.00348224 
757 0.000282743 1 0.65271 0.239793 0.00300651 0 0 0 3.65358 0.417477 0.0976786 2 0 -0.00277371 0.76747 0.28211 0.00349594 
887 0.000282743 1 0.846441 0.24048 0.00299472 0 0 0 3.50824 -0.0608016 6.208e-11 1.99861 -2.27207e-16 3.19923e-11 0.995262 0.282918 0.00348224 
2986 0.000282743 1 0.675985 0.242694 0.00299472 0 0 0 3.5354 -0.198296 1.16305e-08 1.99861 -1.4556e-13 -4.94645e-09 0.794836 0.285523 0.00348224 
188 0.000282743 1 0.810128 0.243508 0.00299472 0 0 0 3.55897 -0.0558365 -1.14902e-14 1.99861 -7.38647e-58 0 0.952565 0.28648 0.00348224 
2563 0.000282743 1 0.689387 0.250147 0.00337478 0 0 0 3.82826 0.0378063 -0.061875 2 0 -0.00277371 0.810595 0.294291 0.00392416 
1096 0.000282743 1 0.786062 0.249488 0.00299501 0 0 0 3.53333 0 -0.000291234 1.99868 0 -0.000135662 0.924267 0.293515 0.00348257 
399 0.000282743 1 0.669893 0.253177 0.00299472 0 0 0 3.53312 0 -7.05548e-15 1.99861 0 0 0.787674 0.297855 0.00348224 
253 0.000282743 1 0.269548 0.260054 0.00299472 0 0 0 3.53312 0 1.73319e-14 1.99861 0 0 0.31694 0.305946 0.00348224 
185 0.000282743 1 0.426632 0.259601 0.00299472 0 0 0 3.53312 0 3.20092e-14 1.99861 0 3.01278e-15 0.501642 0.305413 0.00348224 
211 0.000282743 1 0.510787 0.256715 0.00299472 0 0 0 3.53312 0 -1.03812e-14 1.99861 0 0 0.600593 0.302018 0.00348224 
2020 0.000282743 1 0.714299 0.258997 0.00377953 0 0 0 3.53678 0 0.00768581 2 0 -0.00277371 0.839887 0.304702 0.0043948 
2140 0.000282743 1 0.567685 0.263545 0.00308867 0 0 0 3.58667 -0.170581 0.00710164 2 0 -0.00277371 0.667495 0.310053 0.00359148 
1897 0.000282743 1 0.58079 0.263275 0.0029947 0 0 0 3.9332 -0.41974 -0.00157689 1.99836 5.21145e-08 0.000510482 0.682904 0.309735 0.00348221 
1100 0.000282743 1 0.779969 0.26437 0.00319508 0 0 0 3.45594 -0.0864587 -0.0532614 2 0 -0.00277371 0.917102 0.311024 0.00371521 
2290 0.000282743 1 0.606324 0.265893 0.00299472 0 0 0 3.70429 0.193438 -1.13842e-06 1.99861 -1.50492e-11 2.38145e-06 0.712928 0.312816 0.00348224 
1831 0.000282743 1 0.793837 0.266555 0.00299473 0 0 0 3.09117 0.189503 4.89767e-05 1.99862 5.80158e-10 -1.91413e-05 0.93341 0.313594 0.00348224 
1816 0.000282743 1 0.314713 0.27068 0.00347886 0 0 0 3.53678 0 0.0840588 2 0 -0.00277371 0.370046 0.318447 0.00404519 
2558 0.000282743 1 0.555849 0.269412 0.00299472 0 0 0 3.53312 0 -9.87318e-14 1.99861 0 6.08541e-15 0.653579 0.316956 0.00348224 
2901 0.000282743 1 0.0589596 0.273057 0.0034071 0 0 0 3.53678 0 0.0929963 2 0 -0.00277371 0.0693258 0.321243 0.00396175 
823 0.000282743 1 0.536227 0.273054 0.00299472 0 0 0 3.53312 0 1.78658e-09 1.99861 0 -4.31782e-10 0.630506 0.32124 0.00348224 
1670 0.000282743 1 0.12238 0.28049 0.00319755 0 0 0 3.53678 0 -0.10132 2 0 -0.00277371 0.143897 0.329989 0.00371808 
2522 0.000282743 1 0.298832 0.277552 0.00299472 0 0 0 3.53312 0 -7.05688e-15 1.99861 0 0 0.351372 0.326531 0.00348224 
63 0.000282743 1 0.344501 0.281348 0.00299472 0 0 0 3.53312 0 -1.01412e-13 1.99861 0 -9.93563e-16 0.405071 0.330997 0.00348224 
1438 0.000282743 1 0.814966 0.280974 0.00299472 0 0 0 3.86936 0.0773026 6.30869e-11 1.99861 3.103e-16 -3.6997e-11 0.958253 0.330557 0.00348224 
1887 0.000282743 1 0.0269431 0.286407 0.00299012 0 0 0 3.52284 0 -0.0177636 1.99321 0 0.0108123 0.0316802 0.336949 0.00347689 
526 0.000282743 1 0.0726861 0.287785 0.00323795 0 0 0 3.55136 -0.212308 0.485262 2 0 -0.00277371 0.0854657 0.338571 0.00376506 
2585 0.000282743 1 0.0985413 0.287117 0.00318251 0 0 0 3.38678 -0.206282 0.0176629 2 0 -0.00277371 0.115867 0.337784 0.00370059 
1911 0.000282743 1 0.130117 0.285594 0.00299472 0 0 0 3.53312 0 1.51167e-14 1.99861 0 0 0.152994 0.335993 0.00348224 
706 0.000282743 1 0.158742 0.286103 0.00299472 0 0 0 3.53312 0 -3.29977e-07 1.99861 0 1.48047e-07 0.186652 0.336592 0.00348224 
2507 0.000282743 1 0.345917 0.288627 0.00299472 0 0 0 3.53312 0 -1.37083e-14 1.99861 0 0 0.406736 0.339562 0.00348224 
2737 0.000282743 1 0.797764 0.284858 0.0034206 0 0 0 3.5417 0.113455 -0.0139788 2 0 -0.00277371 0.938027 0.335127 0.00397745 
987 0.000282743 1 0.0180968 0.291819 0.00328852 0 0 0 3.53678 0 -0.0920765 2 0 -0.00277371 0.0212785 0.343316 0.00382386 
1265 0.000282743 1 0.189667 0.289447 0.00299574 0 0 0 2.65073 -0.383281 -0.00229077 1.99866 4.96371e-08 -9.0079e-05 0.223015 0.340526 0.00348342 
1696 0.000282743 1 0.793952 0.289563 0.00299471 0 0 0 3.55695 0.139312 0.000139714 1.99863 1.19682e-09 -3.50621e-05 0.933544 0.340663 0.00348223 
2206 0.000282743 1 0.29444 0.296216 0.00299472 0 0 0 3.4809 -0.133467 -1.07736e-07 1.99861 8.59674e-13 -6.98753e-08 0.346209 0.348489 0.00348224 
2838 0.000282743 1 0.684158 0.296926 0.00299468 0 0 0 3.53309 0 0.000127829 1.99861 0 -1.85598e-07 0.804446 0.349325 0.00348218 
818 0.000282743 1 0.0451534 0.301929 0.00299472 0 0 0 3.53312 0 5.13823e-15 1.99861 0 0 0.0530922 0.35521 0.00348224 
2407 0.000282743 1 0.170173 0.304103 0.00299472 0 0 0 3.53312 0 -1.51454e-15 1.99861 0 0 0.200093 0.357769 0.00348224 
1751 0.000282743 1 0.653987 0.30468 0.00299472 0 0 0 3.64978 -0.0736444 1.73319e-14 1.99861 -1.10498e-20 0 0.768971 0.358447 0.00348224 
1687 0.000282743 1 0.81259 0.302096 0.00300054 0 0 0 3.58927 -0.0416125 -0.00784908 2 0 -0.00277371 0.955459 0.355407 0.003489 
2457 0.000282743 1 0.3663 0.305371 0.00299472 0 0 0 3.53312 0 1.67369e-07 1.99861 0 1.71339e-08 0.430702 0.359261 0.00348224 
2082 0.000282743 1 0.378943 0.30527 0.00299473 0 0 0 3.53312 0 5.62271e-07 1.99861 0 -4.70232e-07 0.445569 0.359142 0.00348224 
1274 0.000282743 1 0.707941 0.305677 0.00296386 0 0 0 3.43182 0 0.168973 1.98253 0 -0.0377096 0.83241 0.359621 0.00344635 
2380 0.000282743 1 0.45526 0.312551 0.00299472 0 0 0 3.53312 0 7.0632e-16 1.99861 0 0 0.535304 0.367707 0.00348224 
468 0.000282743 1 0.727603 0.310431 0.00378333 0 0 0 3.53678 0 0.0163467 2 0 -0.00277371 0.85553 0.365213 0.00439923 
2146 0.000282743 1 0.50275 0.315994 0.00367497 0 0 0 3.53678 0 -0.0406709 2 0 -0.00277371 0.591144 0.371757 0.00427322 
1032 0.000282743 1 0.792796 0.317786 0.0037251 0 0 0 3.27123 0.210487 -0.134751 2 0 -0.00277371 0.932185 0.373866 0.00433151 
1872 0.000282743 1 0.124251 0.322481 0.00300595 0 0 0 3.81123 0.396509 0.0567734 2 0 -0.00277371 0.146096 0.379389 0.00349529 
1798 0.000282743 1 0.505481 0.324741 0.00299472 0 0 0 3.53312 0 -4.34519e-11 1.99861 0 2.24814e-11 0.594354 0.382048 0.00348224 
2022 0.000282743 1 0.0950728 0.327677 0.0037595 0 0 0 3.53678 0 0.0301049 2 0 -0.00277371 0.111788 0.385502 0.00437151 
677 0.000282743 1 0.109385 0.32702 0.00311129 0 0 0 3.53678 0 0.121467 2 0 -0.00277371 0.128617 0.384729 0.00361778 
401 0.000282743 1 0.679912 0.326817 0.00366117 0 0 0 3.53678 0 -0.043653 2 0 -0.00277371 0.799454 0.38449 0.00425717 
1709 0.000282743 1 0.750767 0.327373 0.00333668 0 0 0 3.53678 0 -0.0877503 2 0 -0.00277371 0.882766 0.385144 0.00387986 
1869 0.000282743 1 0.772151 0.328438 0.00320595 0 0 0 3.68828 -0.0917282 -0.0434546 2 0 -0.00277371 0.90791 0.386398 0.00372785 
2007 0.000282743 1 0.510742 0.332481 0.00330675 0 0 0 3.53678 0 -0.0908749 2 0 -0.00277371 0.600541 0.391154 0.00384506 
889 0.000282743 1 0.756699 0.332366 0.00299473 0 0 0 3.58847 -0.113567 1.69044e-08 1.99862 -2.82724e-12 -7.66317e-06 0.889741 0.391019 0.00348225 
1352 0.000282743 1 0.76341 0.329447 0.00362035 0 0 0 3.53678 0 0.0630337 2 0 -0.00277371 0.897633 0.387585 0.00420971 
1496 0.000282743 1 0.786876 0.329645 0.00299472 0 0 0 3.53312 0 2.92156e-15 1.99861 0 0 0.925224 0.387817 0.00348224 
1236 0.000282743 1 0.0321083 0.333239 0.00299802 0 0 0 3.53662 0 0.000557256 1.99975 0 -0.00227786 0.0377535 0.392045 0.00348606 
2590 0.000282743 1 0.608407 0.333454 0.00299472 0 0 0 3.30747 0.142456 2.06091e-14 1.99861 -1.10498e-20 1.73559e-15 0.715377 0.392299 0.00348224 
2583 0.000282743 1 0.605416 0.343757 0.00299472 0 0 0 3.53312 0 7.41071e-08 1.99861 0 -5.23532e-08 0.711861 0.40442 0.00348224 
1892 0.000282743 1 0.327815 0.348409 0.00299472 0 0 0 3.53312 0 -1.37069e-14 1.99861 0 0 0.385451 0.409893 0.00348224 
2074 0.000282743 1 0.385773 0.348367 0.0033204 0 0 0 3.25666 0.335018 -0.0339385 2 0 -0.00277371 0.453599 0.409843 0.00386093 
95 0.000282743 1 0.651439 0.347146 0.00299482 0 0 0 3.53316 0 -0.000370638 1.99859 0 4.26672e-05 0.765975 0.408407 0.00348234 
1785 0.000282743 1 0.35462 0.355491 0.00299473 0 0 0 3.53312 0 4.6409e-07 1.99861 0 -4.66165e-07 0.416969 0.418224 0.00348224 
551 0.000282743 1 0.733035 0.356261 0.00299472 0 0 0 3.41003 0.095599 4.06438e-10 1.99861 -1.66948e-14 4.41167e-11 0.861917 0.419131 0.00348224 
130 0.000282743 1 0.109234 0.363226 0.00299472 0 0 0 3.53312 0 8.4639e-15 1.99861 0 0 0.12844 0.427324 0.00348224 
1601 0.000282743 1 0.340703 0.362883 0.00389039 0 0 0 3.50243 0.0343134 -0.0437252 2 0 -0.00277371 0.400605 0.426921 0.00452371 
1535 0.000282743 1 0.498655 0.361707 0.00299472 0 0 0 3.53312 0 -7.05549e-15 1.99861 0 0 0.586329 0.425537 0.00348224 
1273 0.000282743 1 0.746064 0.362216 0.00299472 0 0 0 3.53312 0 1.59499e-13 1.99861 0 -9.19091e-14 0.877237 0.426136 0.00348224 
2253 0.000282743 1 0.435135 0.366363 0.00299472 0 0 0 3.53312 0 -8.08491e-13 1.99861 0 1.73995e-13 0.51164 0.431015 0.00348224 
2998 0.000282743 1 0.40919 0.371522 0.00299472 0 0 0 3.53312 0 1.68321e-07 1.99861 0 -1.27926e-08 0.481134 0.437085 0.00348224 
1754 0.000282743 1 0.196045 0.374111 0.00330889 0 0 0 3.38449 -0.0341775 0.457923 2 0 -0.00277371 0.230513 0.440131 0.00384754 
2273 0.000282743 1 0.274107 0.374454 0.00299472 0 0 0 3.53312 0 -1.25978e-14 1.99861 0 0 0.3223 0.440534 0.00348224 
1390 0.000282743 1 0.459816 0.378701 0.00299472 0 0 0 3.53312 0 1.17896e-14 1.99861 0 0 0.54066 0.445531 0.00348224 
1874 0.000282743 1 0.677487 0.377688 0.00299472 0 0 0 3.53312 0 1.06834e-14 1.99861 0 0 0.796602 0.444339 0.00348224 
1065 0.000282743 1 0.756888 0.379159 0.00299472 0 0 0 3.53312 0 1.1938e-09 1.99861 0 1.00796e-09 0.889964 0.446069 0.00348224 
1818 0.000282743 1 0.81034 0.380627 0.00298617 0 0 0 3.51659 0 -0.000427926 1.994 0 0.00922945 0.952813 0.447796 0.00347229 
161 0.000282743 1 0.0564359 0.381082 0.00299387 0 0 0 3.53247 0 0.000875851 1.9984 0 0.00042462 0.0663585 0.448331 0.00348124 
2855 0.000282743 1 0.538316 0.382323 0.00341162 0 0 0 3.59806 -0.0717648 -0.0806422 2 0 -0.00277371 0.632963 0.449791 0.003967 
2064 0.000282743 1 0.566781 0.383106 0.00376779 0 0 0 3.53678 0 -0.0153216 2 0 -0.00277371 0.666433 0.450713 0.00438115 
2148 0.000282743 1 0.776208 0.382648 0.00299472 0 0 0 3.53312 0 2.25372e-10 1.99861 0 1.06575e-11 0.91268 0.450175 0.00348224 
1280 0.000282743 1 0.816616 0.382849 0.00299472 0 0 0 3.53312 0 -5.94646e-15 1.99861 0 0 0.960194 0.450411 0.00348224 
417 0.000282743 1 0.534932 0.387477 0.00299449 0 0 0 3.60465 -0.0242256 -0.000666384 1.99841 1.26872e-08 0.000399352 0.628984 0.455856 0.00348196 
2655 0.000282743 1 0.625345 0.387301 0.00299472 0 0 0 3.53312 0 1.94234e-13 1.99861 0 -8.68641e-14 0.735293 0.455648 0.00348224 
2944 0.000282743 1 0.700146 0.386798 0.00364526 0 0 0 3.53678 0 0.0588616 2 0 -0.00277371 0.823245 0.455057 0.00423868 
800 0.000282743 1 0.718149 0.388414 0.00299472 0 0 0 3.53312 0 1.67789e-08 1.99861 0 -3.58402e-09 0.844414 0.456958 0.00348224 
354 0.000282743 1 0.329436 0.389325 0.00299476 0 0 0 3.53315 0 -1.21974e-05 1.99863 0 -2.63905e-05 0.387357 0.458029 0.00348228 
2735 0.000282743 1 0.846406 0.391249 0.0036695 0 0 0 3.53678 0 0.0537519 2 0 -0.00277371 0.995221 0.460292 0.00426686 
2242 0.000282743 1 0.203406 0.397517 0.00299472 0 0 0 3.53312 0 1.61872e-08 1.99861 0 -3.98329e-09 0.239168 0.467668 0.00348224 
1642 0.000282743 1 0.616951 0.399082 0.00299472 0 0 0 3.53312 0 1.84424e-14 1.99861 0 0 0.725423 0.469508 0.00348224 