ITEM: TIMESTEP
25300
ITEM: NUMBER OF ATOMS
3000
ITEM: BOX BOUNDS mm mm mm
0 1.09877
0 0.85
0 0.86
ITEM: ATOMS id mass type x y z ix iy iz vx vy vz fx fy fz xs ys zs 
2788 0.000282743 1 0.20664 0.00364332 0.00299472 0 0 0 21.2047 0 5.13963e-15 1.99861 0 0 0.188066 0.00428626 0.00348224 
1319 0.000282743 1 0.518278 0.00389763 0.00299472 0 0 0 21.2047 0 -1.59207e-14 1.99861 0 -1.30104e-18 0.471691 0.00458545 0.00348224 
24 0.000282743 1 0.304325 0.00725002 0.00591093 0 0 0 21.2207 0 0.68405 2 0 -0.00277371 0.276969 0.00852944 0.00687317 
315 0.000282743 1 0.473521 0.0078913 0.00299472 0 0 0 21.2047 0 1.17896e-14 1.99861 0 0 0.430956 0.00928389 0.00348224 
926 0.000282743 1 0.847413 0.00637354 0.00299568 0 0 0 -0.160765 0 -0.00453869 0.232801 0 -0.000496398 0.771239 0.00749829 0.00348335 
610 0.000282743 1 0.109514 0.013257 0.00380089 0 0 0 21.2207 0 -0.0018884 2 0 -0.00277371 0.0996696 0.0155965 0.00441964 
626 0.000282743 1 0.174375 0.0136063 0.00299472 0 0 0 21.2047 0 7.35628e-15 1.99861 0 0 0.1587 0.0160075 0.00348224 
229 0.000282743 1 0.38226 0.0159379 0.00358091 0 0 0 21.2207 0 0.0722204 2 0 -0.00277371 0.347899 0.0187505 0.00416385 
1485 0.000282743 1 0.55095 0.0121932 0.00299472 0 0 0 21.2047 0 1.17528e-07 1.99861 0 7.3362e-08 0.501425 0.0143449 0.00348224 
281 0.000282743 1 0.623979 0.0121888 0.00299472 0 0 0 21.2047 0 -7.0555e-15 1.99861 0 0 0.56789 0.0143397 0.00348224 
1922 0.000282743 1 0.656517 0.012065 0.00299472 0 0 0 21.2028 0.0118845 -6.55791e-13 1.99861 4.28704e-19 1.47259e-13 0.597503 0.0141941 0.00348224 
2338 0.000282743 1 0.205655 0.0166446 0.00302169 0 0 0 21.2207 0 -0.0203059 2 0 -0.00277371 0.187169 0.0195819 0.00351359 
2752 0.000282743 1 0.32453 0.0171987 0.00299472 0 0 0 21.2047 0 -1.69076e-14 1.99861 0 -3.90313e-17 0.295358 0.0202338 0.00348224 
662 0.000282743 1 0.117934 0.0227621 0.00299472 0 0 0 21.2047 0 -3.44829e-14 1.99861 0 3.08642e-14 0.107333 0.026779 0.00348224 
136 0.000282743 1 0.788725 0.0228154 0.00375919 0 0 0 21.2207 0 -0.0237355 2 0 -0.00277371 0.717827 0.0268417 0.00437116 
312 0.000282743 1 0.805389 0.0237223 0.00299472 0 0 0 21.2047 0 -1.03798e-14 1.99861 0 0 0.732993 0.0279086 0.00348224 
2385 0.000282743 1 0.0580044 0.0271591 0.00299472 0 0 0 21.2047 0 -4.84163e-15 1.99861 0 0 0.0527904 0.0319519 0.00348224 
356 0.000282743 1 0.715039 0.0274179 0.00379115 0 0 0 21.2207 0 0.0218955 2 0 -0.00277371 0.650764 0.0322564 0.00440831 
2171 0.000282743 1 0.725331 0.0307014 0.00299472 0 0 0 21.2047 0 -9.27214e-15 1.99861 0 0 0.660131 0.0361193 0.00348224 
2212 0.000282743 1 0.837389 0.0291994 0.00490573 0 0 0 21.008 0 0.702191 2 0 -0.00277371 0.762116 0.0343523 0.00570434 
2165 0.000282743 1 0.710867 0.0336834 0.00299472 0 0 0 21.2047 0 4.02921e-15 1.99861 0 0 0.646967 0.0396276 0.00348224 
1995 0.000282743 1 0.84883 0.0358753 0.00473891 0 0 0 -4.90676 0 2.05883 -9.61633 0 -0.574632 0.772529 0.0422062 0.00551036 
284 0.000282743 1 0.435011 0.0405785 0.00555277 0 0 0 21.2207 0 0.684407 2 0 -0.00277371 0.395908 0.0477394 0.0064567 
153 0.000282743 1 0.731805 0.0455722 0.00299473 0 0 0 21.2047 0 4.38349e-07 1.99861 0 -4.6858e-07 0.666023 0.0536144 0.00348224 
2946 0.000282743 1 0.0764653 0.0503255 0.00299472 0 0 0 21.2047 0 -7.65885e-11 1.99861 0 2.26131e-12 0.0695919 0.0592065 0.00348224 
2245 0.000282743 1 0.177664 0.0511328 0.00299472 0 0 0 21.2047 0 -4.02713e-16 1.99861 0 0 0.161694 0.0601563 0.00348224 
338 0.000282743 1 0.339754 0.0513337 0.00299472 0 0 0 21.2047 0 -1.51454e-15 1.99861 0 0 0.309214 0.0603925 0.00348224 
1949 0.000282743 1 0.58246 0.0494126 0.00299472 0 0 0 21.2047 0 1.4009e-14 1.99861 0 0 0.530103 0.0581325 0.00348224 
1304 0.000282743 1 0.198375 0.0557894 0.00329671 0 0 0 21.2207 0 -0.0939835 2 0 -0.00277371 0.180543 0.0656346 0.00383338 
954 0.000282743 1 0.768219 0.0549755 0.00299472 0 0 0 21.2047 0 2.0659e-14 1.99861 0 0 0.699164 0.064677 0.00348224 
2678 0.000282743 1 0.225382 0.0574585 0.00339963 0 0 0 21.2207 0 -0.0822439 2 0 -0.00277371 0.205122 0.0675982 0.00395306 
2170 0.000282743 1 0.364637 0.0584649 0.00299472 0 0 0 21.2047 0 1.28986e-14 1.99861 0 0 0.33186 0.0687823 0.00348224 
1124 0.000282743 1 0.422343 0.0586676 0.00299472 0 0 0 21.2047 0 1.51167e-14 1.99861 0 0 0.384378 0.0690207 0.00348224 
849 0.000282743 1 0.460576 0.0567479 0.00299472 0 0 0 21.2047 0 2.3855e-14 1.99861 0 -1.13087e-14 0.419175 0.0667623 0.00348224 
2717 0.000282743 1 0.545154 0.0596935 0.00299472 0 0 0 21.1984 -0.00913781 6.24725e-15 1.99861 1.13864e-22 0 0.49615 0.0702277 0.00348224 
2515 0.000282743 1 0.531381 0.0626138 0.00299472 0 0 0 21.2047 0 -1.03798e-14 1.99861 0 0 0.483615 0.0736633 0.00348224 
2174 0.000282743 1 0.748344 0.0611444 0.00299472 0 0 0 21.2047 0 2.0659e-14 1.99861 0 0 0.681075 0.0719345 0.00348224 
795 0.000282743 1 0.656204 0.0677885 0.00380327 0 0 0 21.2322 -0.0163322 0.0116052 2 0 -0.00277371 0.597218 0.0797512 0.00442241 
1156 0.000282743 1 0.662772 0.064281 0.00299472 0 0 0 21.2047 0 1.51153e-14 1.99861 0 0 0.603196 0.0756247 0.00348224 
2920 0.000282743 1 0.730744 0.0670631 0.00299472 0 0 0 21.2047 0 9.57294e-15 1.99861 0 0 0.665058 0.0788978 0.00348224 
1678 0.000282743 1 0.417438 0.0721212 0.00299472 0 0 0 21.2047 0 -2.61937e-15 1.99861 0 0 0.379914 0.0848485 0.00348224 
1599 0.000282743 1 0.620543 0.0709061 0.00299472 0 0 0 21.2047 0 1.0682e-14 1.99861 0 0 0.564763 0.083419 0.00348224 
367 0.000282743 1 0.235822 0.0743494 0.00299503 0 0 0 21.203 0 0.000360497 1.99879 0 -0.000347075 0.214624 0.0874699 0.00348259 
2586 0.000282743 1 0.282304 0.0759655 0.00299472 0 0 0 21.2047 0 -1.14902e-14 1.99861 0 0 0.256928 0.0893711 0.00348224 
2800 0.000282743 1 0.167956 0.0791022 0.00299472 0 0 0 21.2047 0 -5.12597e-11 1.99861 0 2.17354e-11 0.152858 0.0930614 0.00348224 
1017 0.000282743 1 0.228442 0.0776333 0.00299472 0 0 0 21.2047 0 7.35628e-15 1.99861 0 0 0.207908 0.0913333 0.00348224 
1814 0.000282743 1 0.447732 0.0771766 0.00299472 0 0 0 21.2047 0 -7.05549e-15 1.99861 0 0 0.407485 0.090796 0.00348224 
2129 0.000282743 1 0.591464 0.0775321 0.00299472 0 0 0 21.2047 0 7.35628e-15 1.99861 0 0 0.538297 0.0912142 0.00348224 
2636 0.000282743 1 0.631089 0.0790148 0.00584207 0 0 0 21.2207 0 0.678892 2 0 -0.00277371 0.574361 0.0929586 0.0067931 
2996 0.000282743 1 0.272575 0.0806714 0.00299691 0 0 0 21.1927 0 0.00476132 1.99997 0 -0.00283022 0.248074 0.0949075 0.00348478 
1806 0.000282743 1 0.277981 0.0875507 0.00374005 0 0 0 21.2207 0 0.040555 2 0 -0.00277371 0.252993 0.103001 0.0043489 
2606 0.000282743 1 0.457493 0.0844638 0.00299472 0 0 0 21.2047 0 -2.52386e-06 1.99861 0 1.43167e-06 0.416369 0.0993692 0.00348224 
2881 0.000282743 1 0.562727 0.0858818 0.00335305 0 0 0 20.7372 -0.0531234 0.232028 2 0 -0.00277371 0.512144 0.101037 0.00389889 
876 0.000282743 1 0.615041 0.0863357 0.00298811 0 0 0 21.1955 0 0.00902499 1.997 0 0.0032227 0.559755 0.101571 0.00347455 
501 0.000282743 1 0.598665 0.0887718 0.00299472 0 0 0 21.2054 -0.0928269 -5.38938e-13 1.99861 -1.77269e-18 -2.25351e-13 0.544851 0.104437 0.00348224 
1113 0.000282743 1 0.816967 0.088962 0.00297365 0 0 0 21.0007 -0.0211439 0.019147 1.98885 7.07889e-08 0.019527 0.743531 0.104661 0.00345773 
2182 0.000282743 1 0.826893 0.088647 0.00299472 0 0 0 21.1728 -0.0474681 1.61222e-10 1.99861 3.15646e-16 3.69445e-11 0.752564 0.104291 0.00348224 
2062 0.000282743 1 0.102893 0.0928605 0.00364123 0 0 0 21.2207 0 -0.0498609 2 0 -0.00277371 0.0936442 0.109248 0.00423399 
1907 0.000282743 1 0.838731 0.0975287 0.00299472 0 0 0 21.2443 0.0259884 -8.16592e-15 1.99861 0 0 0.763338 0.11474 0.00348224 
2548 0.000282743 1 0.190361 0.103172 0.00299472 0 0 0 21.2047 0 4.02921e-15 1.99861 0 0 0.17325 0.121379 0.00348224 
1743 0.000282743 1 0.601058 0.101365 0.00299472 0 0 0 21.2354 0.00182936 -8.16732e-15 1.99861 1.42329e-23 0 0.54703 0.119252 0.00348224 
676 0.000282743 1 0.693829 0.10139 0.00317076 0 0 0 26.9843 -0.213867 -0.602267 2 0 -0.00277371 0.631461 0.119282 0.00368693 
1973 0.000282743 1 0.755376 0.102872 0.00299472 0 0 0 21.2047 0 -6.00938e-12 1.99861 0 2.29749e-12 0.687476 0.121026 0.00348224 
1747 0.000282743 1 0.173976 0.104694 0.00299473 0 0 0 21.2047 0 -4.62988e-06 1.99861 0 5.01359e-07 0.158337 0.123169 0.00348224 
1183 0.000282743 1 0.670209 0.107623 0.00299472 0 0 0 21.2047 0 1.80974e-15 1.99861 0 0 0.609965 0.126615 0.00348224 
1692 0.000282743 1 0.683692 0.105918 0.00321395 0 0 0 23.069 0.0451462 -0.238515 2 0 -0.00277371 0.622236 0.124609 0.00373715 
1735 0.000282743 1 0.771307 0.105958 0.00299472 0 0 0 21.2047 0 2.19018e-08 1.99861 0 -4.75819e-08 0.701975 0.124656 0.00348224 
886 0.000282743 1 0.686697 0.112226 0.00299472 0 0 0 21.2047 0 2.92157e-15 1.99861 0 0 0.62497 0.132031 0.00348224 
220 0.000282743 1 0.783192 0.108588 0.00299473 0 0 0 21.2047 0 5.65883e-07 1.99861 0 -4.79454e-07 0.712791 0.12775 0.00348224 
2801 0.000282743 1 0.138625 0.115869 0.00299472 0 0 0 21.2047 0 -3.84933e-14 1.99861 0 -6.00639e-14 0.126164 0.136317 0.00348224 
1801 0.000282743 1 0.377385 0.113038 0.00299472 0 0 0 21.2047 0 6.82952e-09 1.99861 0 -5.80985e-09 0.343462 0.132986 0.00348224 
140 0.000282743 1 0.501343 0.114857 0.00299472 0 0 0 21.2047 0 -7.05549e-15 1.99861 0 0 0.456277 0.135126 0.00348224 
1963 0.000282743 1 0.634086 0.1128 0.00294752 0 0 0 21.0998 0.277083 0.222772 1.98232 -0.000854239 -0.038174 0.577088 0.132706 0.00342735 
2449 0.000282743 1 0.717067 0.112484 0.0035191 0 0 0 21.2207 0 0.0812339 2 0 -0.00277371 0.65261 0.132334 0.00409197 
934 0.000282743 1 0.83316 0.114351 0.00299472 0 0 0 21.2047 0 -4.02724e-16 1.99861 0 0 0.758267 0.13453 0.00348224 
392 0.000282743 1 0.218785 0.116778 0.00299472 0 0 0 21.2047 0 8.4639e-15 1.99861 0 0 0.199118 0.137385 0.00348224 
1400 0.000282743 1 0.309338 0.118653 0.0035454 0 0 0 21.2207 0 -0.0640974 2 0 -0.00277371 0.281532 0.139592 0.00412256 
2620 0.000282743 1 0.265819 0.122546 0.00299472 0 0 0 21.2047 0 -6.36124e-09 1.99861 0 -2.15055e-10 0.241925 0.144171 0.00348224 
2955 0.000282743 1 0.360595 0.121181 0.00299472 0 0 0 21.2047 0 -3.14849e-07 1.99861 0 1.5186e-07 0.328181 0.142565 0.00348224 
2869 0.000282743 1 0.540664 0.121381 0.00299472 0 0 0 20.9735 -0.0239456 -1.14551e-08 1.99861 -6.79462e-14 7.75902e-08 0.492064 0.142801 0.00348224 
2063 0.000282743 1 0.655089 0.121177 0.00299472 0 0 0 21.2047 0 6.24586e-15 1.99861 0 0 0.596203 0.142561 0.00348224 
2918 0.000282743 1 0.381812 0.125633 0.00378365 0 0 0 21.2207 0 0.0252082 2 0 -0.00277371 0.347491 0.147804 0.0043996 
2312 0.000282743 1 0.838825 0.125933 0.00299472 0 0 0 21.2047 0 -1.48159e-14 1.99861 0 0 0.763423 0.148157 0.00348224 
1860 0.000282743 1 0.140042 0.130739 0.00299472 0 0 0 21.2047 0 -3.61911e-06 1.99861 0 1.20998e-06 0.127454 0.153811 0.00348224 
719 0.000282743 1 0.546447 0.13041 0.00299472 0 0 0 21.1099 0.0181812 -2.91777e-11 1.99861 1.28279e-17 -2.35841e-11 0.497327 0.153423 0.00348224 
1378 0.000282743 1 0.722429 0.132815 0.00377236 0 0 0 21.2207 0 0.0301201 2 0 -0.00277371 0.65749 0.156252 0.00438646 
202 0.000282743 1 0.129877 0.137364 0.00299473 0 0 0 21.2047 0 -3.78515e-06 1.99861 0 -1.56585e-06 0.118202 0.161605 0.00348224 
2160 0.000282743 1 0.436528 0.137684 0.00299472 0 0 0 21.1095 -0.116954 -1.14916e-14 1.99861 -1.82182e-21 0 0.397289 0.161982 0.00348224 
1451 0.000282743 1 0.554652 0.138843 0.00299473 0 0 0 21.1577 0.253923 5.28832e-07 1.99861 -8.75416e-12 -3.08392e-07 0.504794 0.163345 0.00348224 
768 0.000282743 1 0.793562 0.136757 0.00299472 0 0 0 21.2047 0 3.78241e-12 1.99861 0 -7.14132e-12 0.722229 0.16089 0.00348224 
2451 0.000282743 1 0.0349246 0.14389 0.00347225 0 0 0 21.2207 0 -0.0737486 2 0 -0.00277371 0.0317852 0.169282 0.0040375 
1582 0.000282743 1 0.283876 0.143686 0.00299472 0 0 0 21.2047 0 2.32285e-10 1.99861 0 5.06183e-12 0.258358 0.169042 0.00348224 
410 0.000282743 1 0.502685 0.144092 0.00303753 0 0 0 21.2207 0 -0.0107686 2 0 -0.00277371 0.457499 0.169519 0.00353201 
1246 0.000282743 1 0.0926641 0.149034 0.00299472 0 0 0 21.2238 0.0126758 7.9224e-13 1.99861 -5.13427e-19 -7.497e-14 0.0843345 0.175334 0.00348224 
2461 0.000282743 1 0.490572 0.148491 0.00299476 0 0 0 21.2046 0 -1.58481e-05 1.99863 0 -2.51332e-05 0.446475 0.174695 0.00348228 
2448 0.000282743 1 0.758363 0.149093 0.00299472 0 0 0 21.2047 0 -1.92506e-14 1.99861 0 0 0.690194 0.175404 0.00348224 
233 0.000282743 1 0.81556 0.148939 0.00308412 0 0 0 21.2236 -0.0184066 0.0173165 2 0 -0.00277371 0.74225 0.175222 0.00358619 
2991 0.000282743 1 0.518793 0.153952 0.00299472 0 0 0 21.2047 0 -9.97927e-14 1.99861 0 8.8215e-15 0.472159 0.181119 0.00348224 
1051 0.000282743 1 0.76648 0.153803 0.00352814 0 0 0 21.2207 0 0.0800382 2 0 -0.00277371 0.697582 0.180945 0.00410248 
1576 0.000282743 1 0.590558 0.15931 0.00299472 0 0 0 21.2047 0 8.46391e-15 1.99861 0 0 0.537473 0.187424 0.00348224 
2643 0.000282743 1 0.608158 0.158048 0.00299472 0 0 0 21.2047 0 -6.62623e-12 1.99861 0 -2.88257e-12 0.553491 0.185939 0.00348224 
55 0.000282743 1 0.0676243 0.161299 0.00450461 0 0 0 19.8643 0 0.708879 2 0 -0.00277371 0.0615456 0.189764 0.00523792 
1415 0.000282743 1 0.202113 0.161792 0.00298648 0 0 0 21.1988 0 0.00480044 1.99522 0 0.00678313 0.183945 0.190344 0.00347265 
1669 0.000282743 1 0.286759 0.163659 0.00299472 0 0 0 21.2047 0 -1.48173e-14 1.99861 0 0 0.260983 0.19254 0.00348224 
1592 0.000282743 1 0.221873 0.165431 0.00299472 0 0 0 21.2047 0 -1.48159e-14 1.99861 0 0 0.201929 0.194625 0.00348224 
2682 0.000282743 1 0.293587 0.164924 0.00299472 0 0 0 21.2047 0 1.17896e-14 1.99861 0 0 0.267197 0.194028 0.00348224 
2962 0.000282743 1 0.487084 0.168313 0.00299472 0 0 0 21.2047 0 5.13963e-15 1.99861 0 0 0.4433 0.198015 0.00348224 
344 0.000282743 1 0.545507 0.167356 0.00298788 0 0 0 21.196 0 0.00852909 1.99678 0 0.00367056 0.496472 0.196889 0.00347428 
989 0.000282743 1 0.129555 0.171755 0.00354672 0 0 0 21.5196 0.184532 -0.0196543 2 0 -0.00277371 0.11791 0.202065 0.00412409 
330 0.000282743 1 0.27708 0.167859 0.00299472 0 0 0 21.365 -0.198191 1.17196e-07 1.99861 -1.19781e-12 3.95959e-07 0.252173 0.197481 0.00348224 
826 0.000282743 1 0.844492 0.171297 0.00299472 0 0 0 21.2047 0 8.46389e-15 1.99861 0 0 0.768581 0.201525 0.00348224 
543 0.000282743 1 0.0700248 0.17302 0.00304351 0 0 0 21.2207 0 -0.00409001 2 0 -0.00277371 0.0637303 0.203553 0.00353897 
1293 0.000282743 1 0.33521 0.174331 0.00299472 0 0 0 21.2047 0 1.81113e-15 1.99861 0 0 0.305078 0.205096 0.00348224 
221 0.000282743 1 0.395191 0.172561 0.00299472 0 0 0 21.2047 0 6.24724e-15 1.99861 0 0 0.359667 0.203013 0.00348224 
113 0.000282743 1 0.407329 0.174128 0.00299472 0 0 0 21.2047 0 -3.73119e-15 1.99861 0 0 0.370714 0.204856 0.00348224 
178 0.000282743 1 0.643549 0.174539 0.00309077 0 0 0 20.8207 0 0.124721 2 0 -0.00277371 0.5857 0.20534 0.00359391 
2278 0.000282743 1 0.292172 0.179744 0.00299472 0 0 0 21.2047 0 -1.37069e-14 1.99861 0 0 0.265909 0.211463 0.00348224 
2281 0.000282743 1 0.426854 0.179038 0.00303521 0 0 0 21.1383 0 0.0132337 2 0 -0.00277371 0.388484 0.210633 0.00352931 
418 0.000282743 1 0.694691 0.176458 0.00299472 0 0 0 21.2047 0 -6.97074e-11 1.99861 0 -1.74442e-11 0.632246 0.207597 0.00348224 
921 0.000282743 1 0.840523 0.178483 0.00348574 0 0 0 21.2207 0 0.0854022 2 0 -0.00277371 0.764968 0.20998 0.00405319 
1998 0.000282743 1 0.137188 0.183085 0.00304026 0 0 0 21.2207 0 -0.115954 2 0 -0.00277371 0.124856 0.215394 0.00353519 
2976 0.000282743 1 0.269658 0.187988 0.00299472 0 0 0 21.2232 -0.00281716 8.4639e-15 1.99861 0 0 0.245418 0.221162 0.00348224 
538 0.000282743 1 0.665773 0.184898 0.00299472 0 0 0 21.156 -0.149661 -1.22e-07 1.99861 -9.23694e-13 1.06983e-08 0.605927 0.217527 0.00348224 
1164 0.000282743 1 0.479668 0.19068 0.00299473 0 0 0 21.469 0.324661 2.02001e-07 1.99861 -5.91267e-12 -2.8877e-07 0.436551 0.22433 0.00348224 
87 0.000282743 1 0.542717 0.189503 0.00299472 0 0 0 21.2047 0 7.35628e-15 1.99861 0 0 0.493932 0.222945 0.00348224 
2327 0.000282743 1 0.588789 0.192086 0.0029919 0 0 0 21.1932 0 0.0101385 1.99911 0 -0.000985561 0.535863 0.225984 0.00347896 
2888 0.000282743 1 0.244956 0.194306 0.00299472 0 0 0 21.0772 0.0698881 5.87491e-05 1.99862 -2.3165e-10 -1.78807e-05 0.222937 0.228595 0.00348224 
371 0.000282743 1 0.32808 0.193043 0.00299472 0 0 0 21.2047 0 1.29e-14 1.99861 0 0 0.298589 0.22711 0.00348224 
2202 0.000282743 1 0.123939 0.202405 0.00379736 0 0 0 21.2207 0 0.0159645 2 0 -0.00277371 0.112798 0.238123 0.00441554 
2830 0.000282743 1 0.53149 0.204474 0.00299472 0 0 0 21.2047 0 -1.03798e-14 1.99861 0 0 0.483715 0.240558 0.00348224 
961 0.000282743 1 0.827552 0.208214 0.00299472 0 0 0 21.2047 0 -1.37069e-14 1.99861 0 0 0.753163 0.244958 0.00348224 
1172 0.000282743 1 0.0847185 0.211557 0.00299472 0 0 0 21.2047 0 -3.72491e-06 1.99861 0 1.16283e-06 0.0771032 0.24889 0.00348224 
2621 0.000282743 1 0.141463 0.209732 0.00299472 0 0 0 21.2047 0 -7.05689e-15 1.99861 0 0 0.128747 0.246743 0.00348224 
2109 0.000282743 1 0.353621 0.210491 0.00299472 0 0 0 21.2047 0 2.06604e-14 1.99861 0 0 0.321834 0.247637 0.00348224 
1885 0.000282743 1 0.373421 0.209041 0.00548139 0 0 0 21.2207 0 0.691607 2 0 -0.00277371 0.339855 0.245931 0.00637371 
1957 0.000282743 1 0.848595 0.213694 0.00478856 0 0 0 -5.75173 0 2.10903 -5.30121 0 -0.612155 0.772315 0.251405 0.00556809 
2297 0.000282743 1 0.0754455 0.216791 0.00299473 0 0 0 21.2353 -0.0188337 -2.23651e-07 1.99861 -1.10413e-13 -1.65231e-07 0.0686637 0.255048 0.00348224 
2132 0.000282743 1 0.504687 0.218281 0.00299472 0 0 0 21.2047 0 -8.16593e-15 1.99861 0 0 0.459321 0.256801 0.00348224 
1444 0.000282743 1 0.747418 0.218083 0.00360096 0 0 0 21.2207 0 0.069569 2 0 -0.00277371 0.680233 0.256568 0.00418716 
145 0.000282743 1 0.0370689 0.221451 0.00299472 0 0 0 21.2447 0.019198 -2.27947e-06 1.99861 2.64622e-12 9.61873e-07 0.0337368 0.26053 0.00348224 
2512 0.000282743 1 0.728968 0.221693 0.00296101 0 0 0 21.386 -0.378807 0.0541353 1.98581 0.000738264 0.025652 0.663442 0.260816 0.00344304 
254 0.000282743 1 0.427587 0.224656 0.00301125 0 0 0 21.2207 0 -0.02491 2 0 -0.00277371 0.389152 0.264301 0.00350145 
2849 0.000282743 1 0.572356 0.227689 0.00299472 0 0 0 21.2047 0 -3.1004e-12 1.99861 0 2.5864e-12 0.520907 0.267869 0.00348224 
296 0.000282743 1 0.600412 0.224237 0.00323023 0 0 0 20.8586 -0.409167 0.0187307 2 0 -0.00277371 0.546441 0.263808 0.00375608 
256 0.000282743 1 0.706984 0.227282 0.00299472 0 0 0 21.2047 0 1.4009e-14 1.99861 0 0 0.643433 0.26739 0.00348224 
2268 0.000282743 1 0.742285 0.228448 0.00299472 0 0 0 21.2047 0 -6.08812e-13 1.99861 0 2.21584e-12 0.675561 0.268762 0.00348224 
757 0.000282743 1 0.683949 0.240837 0.00322005 0 0 0 21.3375 0.417477 0.0731536 2 0 -0.00277371 0.622469 0.283338 0.00374424 
887 0.000282743 1 0.847407 0.240335 0.00299641 0 0 0 0.0196417 -0.0584164 0.00144783 0.100237 -0.000263625 -0.00098136 0.771234 0.282747 0.0034842 
2986 0.000282743 1 0.706913 0.242199 0.00299472 0 0 0 21.207 -0.198296 -7.29362e-10 1.99861 -1.64177e-14 1.62054e-09 0.643368 0.28494 0.00348224 
188 0.000282743 1 0.841115 0.243368 0.00299472 0 0 0 21.2306 -0.0558365 -1.14902e-14 1.99861 0 0 0.765508 0.286315 0.00348224 
2563 0.000282743 1 0.721063 0.250242 0.00318944 0 0 0 21.5121 0.0378063 -0.0864 2 0 -0.00277371 0.656247 0.294402 0.00370865 
1096 0.000282743 1 0.816984 0.249488 0.00299469 0 0 0 21.2047 0 0.000125693 1.99862 0 -1.20474e-05 0.743546 0.293515 0.0034822 
399 0.000282743 1 0.700815 0.253177 0.00299472 0 0 0 21.2047 0 -7.05548e-15 1.99861 0 0 0.637819 0.297855 0.00348224 
253 0.000282743 1 0.300471 0.260054 0.00299472 0 0 0 21.2047 0 1.73319e-14 1.99861 0 0 0.273462 0.305946 0.00348224 
185 0.000282743 1 0.457554 0.259601 0.00299472 0 0 0 21.2047 0 -1.351e-14 1.99861 0 -1.43765e-15 0.416425 0.305413 0.00348224 
211 0.000282743 1 0.541709 0.256715 0.00299472 0 0 0 21.2047 0 -1.03812e-14 1.99861 0 0 0.493015 0.302018 0.00348224 
2020 0.000282743 1 0.745246 0.258997 0.00376808 0 0 0 21.2207 0 -0.0168392 2 0 -0.00277371 0.678256 0.304702 0.00438149 
2140 0.000282743 1 0.598757 0.263119 0.00307577 0 0 0 21.2706 -0.170581 -0.0174234 2 0 -0.00277371 0.544935 0.309551 0.00357648 
1897 0.000282743 1 0.61271 0.262225 0.00299492 0 0 0 21.604 -0.41974 0.000150518 1.99871 5.76847e-09 -0.000197916 0.557634 0.3085 0.00348246 
1100 0.000282743 1 0.810713 0.264154 0.00303127 0 0 0 21.1398 -0.0864587 -0.0777864 2 0 -0.00277371 0.737839 0.31077 0.00352473 
2290 0.000282743 1 0.637674 0.266377 0.00299473 0 0 0 21.3759 0.193438 -7.11057e-07 1.99861 4.50452e-12 -3.6756e-07 0.580354 0.313385 0.00348224 
1831 0.000282743 1 0.823655 0.267028 0.00299472 0 0 0 20.7628 0.189503 -3.78285e-06 1.99861 7.14311e-11 6.64419e-06 0.749617 0.314151 0.00348223 
1816 0.000282743 1 0.34566 0.27068 0.00365835 0 0 0 21.2207 0 0.0595338 2 0 -0.00277371 0.314589 0.318447 0.0042539 
2558 0.000282743 1 0.586257 0.26897 0.00304948 0 0 0 20.8738 -0.229306 0.0941163 2 0 -0.00277371 0.533558 0.316436 0.00354591 
2901 0.000282743 1 0.0899064 0.273057 0.00360894 0 0 0 21.2207 0 0.0684713 2 0 -0.00277371 0.0818247 0.321243 0.00419644 
823 0.000282743 1 0.567149 0.273054 0.00299472 0 0 0 21.2047 0 -2.47335e-10 1.99861 0 2.12796e-10 0.516168 0.32124 0.00348224 
1670 0.000282743 1 0.153302 0.28049 0.00296242 0 0 0 21.1491 0 0.0171963 1.97778 0 0.0416728 0.139522 0.329989 0.00344467 
2522 0.000282743 1 0.329754 0.277552 0.00299472 0 0 0 21.2047 0 -7.05688e-15 1.99861 0 0 0.300113 0.326531 0.00348224 
63 0.000282743 1 0.375423 0.281348 0.00299472 0 0 0 21.2047 0 1.81232e-14 1.99861 0 -1.1594e-14 0.341676 0.330997 0.00348224 
1438 0.000282743 1 0.846729 0.281167 0.00299472 0 0 0 21.541 0.0773026 2.37076e-13 1.99861 2.18162e-17 9.90875e-12 0.770617 0.330785 0.00348224 
1887 0.000282743 1 0.0578135 0.286407 0.00299807 0 0 0 21.1859 0 -0.000651673 1.99962 0 -0.00201183 0.0526167 0.336949 0.00348613 
526 0.000282743 1 0.103669 0.287254 0.00442045 0 0 0 21.2352 -0.212308 0.460737 2 0 -0.00277371 0.0943505 0.337946 0.00514005 
2585 0.000282743 1 0.129113 0.286601 0.00319601 0 0 0 21.0707 -0.206282 -0.00686212 2 0 -0.00277371 0.117507 0.337178 0.00371629 
1911 0.000282743 1 0.161039 0.285594 0.00299472 0 0 0 21.2047 0 1.51167e-14 1.99861 0 0 0.146564 0.335993 0.00348224 
706 0.000282743 1 0.189664 0.286103 0.00299472 0 0 0 21.2047 0 1.75134e-08 1.99861 0 -4.68263e-08 0.172615 0.336592 0.00348224 
2507 0.000282743 1 0.376839 0.288627 0.00299472 0 0 0 21.2047 0 -1.37083e-14 1.99861 0 0 0.342966 0.339562 0.00348224 
2737 0.000282743 1 0.828723 0.285142 0.003355 0 0 0 21.2256 0.113455 -0.0385038 2 0 -0.00277371 0.75423 0.335461 0.00390116 
987 0.000282743 1 0.0490436 0.291819 0.00302767 0 0 0 21.2207 0 -0.116602 2 0 -0.00277371 0.0446351 0.343316 0.00352055 
1265 0.000282743 1 0.218381 0.288489 0.00299477 0 0 0 20.3209 -0.38328 0.000564446 1.99872 1.15571e-08 -0.000206834 0.198751 0.339399 0.00348229 
1696 0.000282743 1 0.824934 0.289912 0.00299471 0 0 0 21.2286 0.139312 -1.89249e-05 1.9986 1.9504e-10 1.68023e-05 0.750781 0.341072 0.00348222 
2206 0.000282743 1 0.325232 0.295882 0.00299472 0 0 0 21.1525 -0.133467 5.44726e-08 1.99861 3.57912e-13 -2.26633e-09 0.295997 0.348097 0.00348224 
2838 0.000282743 1 0.71508 0.296926 0.00299472 0 0 0 21.2048 0 -3.04279e-05 1.99861 0 1.1829e-05 0.650802 0.349325 0.00348223 
818 0.000282743 1 0.0760757 0.301929 0.00299472 0 0 0 21.2047 0 5.13823e-15 1.99861 0 0 0.0692373 0.35521 0.00348224 
2407 0.000282743 1 0.201095 0.304103 0.00299472 0 0 0 21.2047 0 -1.51454e-15 1.99861 0 0 0.183019 0.357769 0.00348224 
1751 0.000282743 1 0.685201 0.304496 0.00299472 0 0 0 21.3214 -0.0736444 1.73319e-14 1.99861 -1.82182e-21 0 0.623608 0.35823 0.00348224 
1687 0.000282743 1 0.843645 0.301992 0.00299454 0 0 0 21.2557 -0.0416124 0.0026239 1.99895 1.01943e-09 -0.000674726 0.767811 0.355285 0.00348203 
2457 0.000282743 1 0.397222 0.305371 0.00299472 0 0 0 21.2047 0 -4.69199e-08 1.99861 0 1.35914e-08 0.361516 0.359261 0.00348224 
2082 0.000282743 1 0.409865 0.30527 0.00299472 0 0 0 21.2047 0 6.00504e-08 1.99861 0 1.03806e-07 0.373023 0.359142 0.00348224 
1274 0.000282743 1 0.738583 0.305677 0.00327123 0 0 0 21.098 0 0.109008 2 0 -0.00277371 0.672192 0.359621 0.00380376 
2380 0.000282743 1 0.486182 0.312551 0.00299472 0 0 0 21.2047 0 7.0632e-16 1.99861 0 0 0.44248 0.367707 0.00348224 
468 0.000282743 1 0.75855 0.310431 0.00379354 0 0 0 21.2207 0 -0.00817835 2 0 -0.00277371 0.690364 0.365213 0.0044111 
2146 0.000282743 1 0.533697 0.315994 0.00354263 0 0 0 21.2207 0 -0.0651959 2 0 -0.00277371 0.485723 0.371757 0.00411934 
1032 0.000282743 1 0.823079 0.318312 0.00335757 0 0 0 20.9551 0.210487 -0.159276 2 0 -0.00277371 0.749093 0.374485 0.00390415 
1872 0.000282743 1 0.155884 0.323472 0.00311723 0 0 0 21.4951 0.396509 0.0322484 2 0 -0.00277371 0.141871 0.380556 0.00362469 
1798 0.000282743 1 0.536403 0.324741 0.00299472 0 0 0 21.2047 0 1.07365e-12 1.99861 0 -6.49634e-12 0.488186 0.382048 0.00348224 
2022 0.000282743 1 0.12602 0.327677 0.00380411 0 0 0 21.2207 0 0.0055799 2 0 -0.00277371 0.114692 0.385502 0.00442338 
677 0.000282743 1 0.140332 0.32702 0.0033843 0 0 0 21.2207 0 0.0969424 2 0 -0.00277371 0.127718 0.384729 0.00393524 
401 0.000282743 1 0.710859 0.326817 0.00352138 0 0 0 21.2207 0 -0.068178 2 0 -0.00277371 0.64696 0.38449 0.00409463 
1709 0.000282743 1 0.781714 0.327373 0.00308665 0 0 0 21.2207 0 -0.112275 2 0 -0.00277371 0.711446 0.385144 0.00358912 
1869 0.000282743 1 0.803476 0.328209 0.00306666 0 0 0 21.3722 -0.0917282 -0.0679796 2 0 -0.00277371 0.731252 0.386128 0.00356588 
2007 0.000282743 1 0.541689 0.332481 0.00304891 0 0 0 21.2207 0 -0.1154 2 0 -0.00277371 0.492997 0.391154 0.00354524 
889 0.000282743 1 0.78776 0.332082 0.00299472 0 0 0 21.2601 -0.113567 3.15734e-06 1.99861 1.43834e-11 8.46343e-07 0.716948 0.390685 0.00348224 
1352 0.000282743 1 0.794357 0.329447 0.00374728 0 0 0 21.2207 0 0.0385087 2 0 -0.00277371 0.722953 0.387585 0.0043573 
1496 0.000282743 1 0.817798 0.329645 0.00299472 0 0 0 21.2047 0 2.92156e-15 1.99861 0 0 0.744287 0.387817 0.00348224 
1236 0.000282743 1 0.0630421 0.333239 0.00299387 0 0 0 21.2081 0 0.000897209 1.9984 0 0.00041929 0.0573753 0.392045 0.00348124 
2590 0.000282743 1 0.638765 0.33381 0.00299472 0 0 0 20.9791 0.142456 1.77064e-14 1.99861 3.64363e-21 -1.16226e-16 0.581347 0.392718 0.00348224 
2583 0.000282743 1 0.636339 0.343757 0.00299472 0 0 0 21.2047 0 3.94586e-09 1.99861 0 1.2621e-08 0.579139 0.40442 0.00348224 
1892 0.000282743 1 0.358737 0.348409 0.00299472 0 0 0 21.2047 0 -1.37069e-14 1.99861 0 0 0.326491 0.409893 0.00348224 
2074 0.000282743 1 0.416019 0.349204 0.0032049 0 0 0 20.9405 0.335018 -0.0584635 2 0 -0.00277371 0.378623 0.410828 0.00372663 
95 0.000282743 1 0.682361 0.347146 0.00299475 0 0 0 21.2046 0 6.99554e-05 1.99863 0 -3.90005e-05 0.621024 0.408407 0.00348226 
1785 0.000282743 1 0.385542 0.355491 0.00299472 0 0 0 21.2047 0 8.17522e-08 1.99861 0 9.42771e-08 0.350886 0.418224 0.00348224 
551 0.000282743 1 0.76365 0.3565 0.00299472 0 0 0 21.0817 0.095599 -1.14976e-10 1.99861 -2.51257e-15 3.27305e-11 0.695006 0.419412 0.00348224 
130 0.000282743 1 0.140157 0.363226 0.00299472 0 0 0 21.2047 0 8.4639e-15 1.99861 0 0 0.127558 0.427324 0.00348224 
1601 0.000282743 1 0.371563 0.362969 0.00375042 0 0 0 21.1863 0.0343134 -0.0682502 2 0 -0.00277371 0.338164 0.427022 0.00436095 
1535 0.000282743 1 0.529578 0.361707 0.00299472 0 0 0 21.2047 0 -7.05549e-15 1.99861 0 0 0.481974 0.425537 0.00348224 
1273 0.000282743 1 0.776987 0.362216 0.00299472 0 0 0 21.2047 0 -5.21432e-15 1.99861 0 2.55659e-14 0.707144 0.426136 0.00348224 
2253 0.000282743 1 0.466057 0.366363 0.00299472 0 0 0 21.2047 0 1.19913e-13 1.99861 0 -9.37297e-14 0.424163 0.431015 0.00348224 
2998 0.000282743 1 0.440113 0.371522 0.00299472 0 0 0 21.2047 0 -3.48043e-08 1.99861 0 1.69763e-08 0.400551 0.437085 0.00348224 
1754 0.000282743 1 0.226611 0.374026 0.00442304 0 0 0 21.0684 -0.0341775 0.433398 2 0 -0.00277371 0.206241 0.44003 0.00514307 
2273 0.000282743 1 0.305029 0.374454 0.00299472 0 0 0 21.2047 0 -1.25978e-14 1.99861 0 0 0.27761 0.440534 0.00348224 
1390 0.000282743 1 0.490738 0.378701 0.00299472 0 0 0 21.2047 0 1.17896e-14 1.99861 0 0 0.446626 0.445531 0.00348224 
1874 0.000282743 1 0.708409 0.377688 0.00299472 0 0 0 21.2047 0 1.06834e-14 1.99861 0 0 0.64473 0.444339 0.00348224 
1065 0.000282743 1 0.787811 0.379159 0.00299472 0 0 0 21.2047 0 -6.99977e-10 1.99861 0 -6.32179e-13 0.716995 0.446069 0.00348224 
1818 0.000282743 1 0.841214 0.380627 0.00299715 0 0 0 21.1895 0 -0.00299813 1.99906 0 -0.000884851 0.765598 0.447796 0.00348506 
161 0.000282743 1 0.0873572 0.381082 0.00299483 0 0 0 21.2047 0 -0.000380409 1.9986 0 3.34978e-05 0.0795047 0.448331 0.00348236 
2855 0.000282743 1 0.569416 0.382143 0.00317936 0 0 0 21.2819 -0.0717648 -0.105167 2 0 -0.00277371 0.518232 0.44958 0.00369693 
2064 0.000282743 1 0.597728 0.383106 0.00369883 0 0 0 21.2207 0 -0.0398466 2 0 -0.00277371 0.543999 0.450713 0.00430097 
2148 0.000282743 1 0.80713 0.382648 0.00299472 0 0 0 21.2047 0 -5.80622e-11 1.99861 0 1.9669e-11 0.734577 0.450175 0.00348224 
1280 0.000282743 1 0.847522 0.382849 0.00299475 0 0 0 19.6305 0 0.00233794 -20.1802 0 0.0301683 0.771339 0.450411 0.00348227 
417 0.000282743 1 0.566033 0.387417 0.00299486 0 0 0 21.2759 -0.0242255 -8.3867e-06 1.99866 1.65694e-09 -0.000103276 0.515152 0.455784 0.00348239 
2655 0.000282743 1 0.656268 0.387301 0.00299472 0 0 0 21.2047 0 -1.55863e-14 1.99861 0 2.87838e-14 0.597276 0.455648 0.00348224 
2944 0.000282743 1 0.731092 0.386798 0.00376176 0 0 0 21.2207 0 0.0343366 2 0 -0.00277371 0.665375 0.455057 0.00437414 
800 0.000282743 1 0.749071 0.388414 0.00299472 0 0 0 21.2047 0 -2.51718e-09 1.99861 0 1.9466e-09 0.681738 0.456958 0.00348224 
354 0.000282743 1 0.360358 0.389325 0.00299472 0 0 0 21.2048 0 1.38018e-05 1.99861 0 1.78465e-06 0.327966 0.458029 0.00348223 
2735 0.000282743 1 0.847406 0.391249 0.00374297 0 0 0 0.0203126 0 0.0203054 0.10765 0 -0.00190084 0.771233 0.460292 0.00435229 
2242 0.000282743 1 0.234328 0.397517 0.00299472 0 0 0 21.2047 0 -2.21163e-09 1.99861 0 1.93586e-09 0.213264 0.467668 0.00348224 