ITEM: TIMESTEP
25700
ITEM: NUMBER OF ATOMS
3000
ITEM: BOX BOUNDS mm mm mm
0 2.4156
0 0.85
0 0.86
ITEM: ATOMS id mass type x y z ix iy iz vx vy vz fx fy fz xs ys zs 
2788 0.000282743 1 0.348009 0.00364332 0.00299472 0 0 0 49.4793 0 5.13963e-15 1.99861 0 0 0.144067 0.00428626 0.00348224 
1319 0.000282743 1 0.659647 0.00389763 0.00299472 0 0 0 49.4793 0 -1.59235e-14 1.99861 0 0 0.273078 0.00458545 0.00348224 
24 0.000282743 1 0.445796 0.00725002 0.00856865 0 0 0 49.5149 0 0.64481 2 0 -0.00277371 0.184549 0.00852944 0.00996355 
315 0.000282743 1 0.614889 0.0078913 0.00299472 0 0 0 49.4793 0 1.17896e-14 1.99861 0 0 0.254549 0.00928389 0.00348224 
926 0.000282743 1 0.917585 0.0219271 0.003361 0 0 0 41.0197 7.83135 0.396786 2 0 -0.00277371 0.379858 0.0257966 0.00390813 
610 0.000282743 1 0.250985 0.013257 0.00371486 0 0 0 49.5149 0 -0.0411284 2 0 -0.00277371 0.103902 0.0155965 0.0043196 
626 0.000282743 1 0.315743 0.0136063 0.00299472 0 0 0 49.4793 0 7.35628e-15 1.99861 0 0 0.13071 0.0160075 0.00348224 
229 0.000282743 1 0.523731 0.0159379 0.00379131 0 0 0 49.5149 0 0.0329804 2 0 -0.00277371 0.216812 0.0187505 0.0044085 
1485 0.000282743 1 0.692318 0.0121932 0.00299472 0 0 0 49.4793 0 1.41374e-08 1.99861 0 7.73017e-09 0.286603 0.0143449 0.00348224 
281 0.000282743 1 0.765347 0.0121888 0.00299472 0 0 0 49.4793 0 -7.0555e-15 1.99861 0 0 0.316835 0.0143397 0.00348224 
1922 0.000282743 1 0.797877 0.0121125 0.00299472 0 0 0 49.4774 0.0118845 -6.86962e-14 1.99861 1.79528e-19 2.08418e-14 0.330302 0.0142501 0.00348224 
2338 0.000282743 1 0.347058 0.0166446 0.00299785 0 0 0 49.486 0 -0.00203995 1.99939 0 -0.00155581 0.143674 0.0195819 0.00348587 
2752 0.000282743 1 0.465898 0.0171987 0.00299472 0 0 0 49.4793 0 -1.70316e-14 1.99861 0 -4.33681e-19 0.19287 0.0202338 0.00348224 
662 0.000282743 1 0.259303 0.0227621 0.00299472 0 0 0 49.4793 0 -1.65446e-14 1.99861 0 -8.39172e-16 0.107345 0.026779 0.00348224 
136 0.000282743 1 0.886961 0.0228154 0.00367565 0 0 0 26.2909 0 -0.0138573 2 0 -0.00277371 0.36718 0.0268417 0.00427401 
312 0.000282743 1 0.894146 0.0237223 0.00299367 0 0 0 27.0333 0 -0.000509396 1.99809 0 0.00104678 0.370155 0.0279086 0.00348101 
2385 0.000282743 1 0.199373 0.0271591 0.00299472 0 0 0 49.4793 0 -4.84163e-15 1.99861 0 0 0.0825354 0.0319519 0.00348224 
356 0.000282743 1 0.853427 0.0274179 0.00380161 0 0 0 25.1681 -0.000825543 -0.00422718 1.96643 -0.00371709 0.00454809 0.353298 0.0322564 0.00442047 
2171 0.000282743 1 0.858372 0.0307014 0.00299723 0 0 0 25.0251 0.000992368 0.000995382 2.03319 0.00371706 -0.00934638 0.355345 0.0361193 0.00348515 
2212 0.000282743 1 0.847407 0.0270249 0.0141292 0 0 0 -0.0192527 -0.978384 3.70075 0.139432 -0.000714131 0.000777668 0.350806 0.031794 0.0164293 
2165 0.000282743 1 0.851075 0.0336834 0.00299584 0 0 0 30.271 0 0.012223 -19.963 0 -0.0452079 0.352325 0.0396276 0.00348353 
1995 0.000282743 1 0.848025 0.0398246 0.0130256 0 0 0 12.5663 4.14856 -0.19403 -20.3993 18.6958 1.86808 0.351062 0.0468525 0.015146 
284 0.000282743 1 0.576482 0.0405785 0.00821191 0 0 0 49.5149 0 0.645167 2 0 -0.00277371 0.23865 0.0477394 0.00954873 
153 0.000282743 1 0.861523 0.0455722 0.00299723 0 0 0 25.1418 0 0.000424523 1.99953 0 -0.00183735 0.35665 0.0536144 0.00348515 
2946 0.000282743 1 0.217833 0.0503255 0.00299472 0 0 0 49.4793 0 -8.63673e-12 1.99861 0 4.45088e-13 0.0901778 0.0592065 0.00348224 
2245 0.000282743 1 0.319032 0.0511328 0.00299472 0 0 0 49.4793 0 -4.02713e-16 1.99861 0 0 0.132072 0.0601563 0.00348224 
338 0.000282743 1 0.481123 0.0513337 0.00299472 0 0 0 49.4793 0 -1.51454e-15 1.99861 0 0 0.199173 0.0603925 0.00348224 
1949 0.000282743 1 0.723828 0.0494126 0.00299472 0 0 0 49.4793 0 1.4009e-14 1.99861 0 0 0.299647 0.0581325 0.00348224 
1304 0.000282743 1 0.339776 0.0557894 0.00298312 0 0 0 49.425 0 0.0457404 1.99848 0 -0.00581635 0.140659 0.0656346 0.00346875 
954 0.000282743 1 0.878438 0.0549755 0.00299541 0 0 0 25.933 0 -0.00238211 1.99852 0 0.000187669 0.363652 0.064677 0.00348304 
2678 0.000282743 1 0.366853 0.0574585 0.0029924 0 0 0 49.511 0 -0.113662 1.97827 0 0.0406858 0.151868 0.0675982 0.00347954 
2170 0.000282743 1 0.506006 0.0584649 0.00299472 0 0 0 49.4793 0 1.28986e-14 1.99861 0 0 0.209474 0.0687823 0.00348224 
1124 0.000282743 1 0.563711 0.0586676 0.00299472 0 0 0 49.4793 0 1.51167e-14 1.99861 0 0 0.233363 0.0690207 0.00348224 
849 0.000282743 1 0.601945 0.0567479 0.00299472 0 0 0 49.4793 0 -1.76203e-14 1.99861 0 -1.62197e-16 0.249191 0.0667623 0.00348224 
2717 0.000282743 1 0.686496 0.059657 0.00299472 0 0 0 49.473 -0.00913781 6.24725e-15 1.99861 4.8745e-23 0 0.284193 0.0701847 0.00348224 
2515 0.000282743 1 0.672749 0.0626138 0.00299472 0 0 0 49.4793 0 -1.03798e-14 1.99861 0 0 0.278502 0.0736633 0.00348224 
2174 0.000282743 1 0.868112 0.0611444 0.00299722 0 0 0 23.9816 0 -0.0017438 1.99924 0 -0.00126097 0.359377 0.0719345 0.00348514 
795 0.000282743 1 0.797721 0.0677232 0.00377121 0 0 0 49.5264 -0.0163322 -0.0276348 2 0 -0.00277371 0.330237 0.0796743 0.00438513 
1156 0.000282743 1 0.804141 0.064281 0.00299472 0 0 0 49.4793 0 1.51153e-14 1.99861 0 0 0.332895 0.0756247 0.00348224 
2920 0.000282743 1 0.860412 0.0670631 0.00299701 0 0 0 23.7106 0 0.000196922 1.99944 0 -0.00164794 0.35619 0.0788978 0.00348489 
1678 0.000282743 1 0.558806 0.0721212 0.00299472 0 0 0 49.4793 0 -2.61937e-15 1.99861 0 0 0.231332 0.0848485 0.00348224 
1599 0.000282743 1 0.761912 0.0709061 0.00299472 0 0 0 49.4793 0 1.0682e-14 1.99861 0 0 0.315413 0.083419 0.00348224 
367 0.000282743 1 0.377184 0.0743494 0.00299476 0 0 0 49.4778 0 3.76842e-05 1.99863 0 -3.94691e-05 0.156145 0.0874699 0.00348228 
2586 0.000282743 1 0.423672 0.0759655 0.00299472 0 0 0 49.4793 0 -1.14902e-14 1.99861 0 0 0.17539 0.0893711 0.00348224 
2800 0.000282743 1 0.309324 0.0791022 0.00299472 0 0 0 49.4793 0 -5.54408e-12 1.99861 0 2.51358e-12 0.128053 0.0930614 0.00348224 
1017 0.000282743 1 0.36981 0.0776333 0.00299472 0 0 0 49.4793 0 7.35628e-15 1.99861 0 0 0.153093 0.0913333 0.00348224 
1814 0.000282743 1 0.595156 0.0748405 0.0037547 0 0 0 53.6451 -1.84952 2.0466 2 0 -0.00277371 0.24638 0.0880476 0.00436593 
2129 0.000282743 1 0.732832 0.0775321 0.00299472 0 0 0 49.4793 0 7.35628e-15 1.99861 0 0 0.303375 0.0912142 0.00348224 
2636 0.000282743 1 0.77256 0.0790148 0.00847915 0 0 0 49.5149 0 0.639652 2 0 -0.00277371 0.319821 0.0929586 0.00985948 
2996 0.000282743 1 0.413906 0.0806714 0.00299492 0 0 0 49.4694 0 0.000649711 1.99879 0 -0.000355979 0.171347 0.0949075 0.00348247 
1806 0.000282743 1 0.419452 0.0875507 0.00382379 0 0 0 49.5149 0 0.00131496 2 0 -0.00277371 0.173643 0.103001 0.00444627 
2606 0.000282743 1 0.598861 0.0844638 0.00299472 0 0 0 49.4793 0 -2.68896e-07 1.99861 0 1.63309e-07 0.247914 0.0993692 0.00348224 
2881 0.000282743 1 0.702264 0.0856693 0.00420268 0 0 0 49.0314 -0.0531234 0.192788 2 0 -0.00277371 0.29072 0.100787 0.00488683 
876 0.000282743 1 0.756387 0.0863357 0.00299386 0 0 0 49.474 0 0.000966439 1.99841 0 0.000402228 0.313126 0.101571 0.00348123 
501 0.000282743 1 0.740036 0.0884005 0.00299472 0 0 0 49.48 -0.0928269 -6.29308e-14 1.99861 -5.68172e-19 -2.46253e-14 0.306357 0.104001 0.00348224 
1113 0.000282743 1 0.833591 0.100688 0.00325133 0 0 0 4.94587 4.24105 0.0498931 23.9573 -4.12881 -0.532454 0.345087 0.118456 0.00378062 
2182 0.000282743 1 0.847675 0.0879439 0.00299187 0 0 0 -1.99265 -0.327589 -0.0015707 0.055366 0.00992035 0.00176064 0.350917 0.103463 0.00347891 
2062 0.000282743 1 0.244364 0.0928605 0.00336331 0 0 0 49.5149 0 -0.0891009 2 0 -0.00277371 0.101161 0.109248 0.00391083 
1907 0.000282743 1 0.847946 0.10153 0.00360234 0 0 0 2.59233 3.66921 1.78793 -7.74368 4.26622 2.35515 0.351029 0.119447 0.00418877 
2548 0.000282743 1 0.33173 0.103172 0.00299472 0 0 0 49.4793 0 4.02921e-15 1.99861 0 0 0.137328 0.121379 0.00348224 
1743 0.000282743 1 0.742549 0.101372 0.00299472 0 0 0 49.51 0.00182936 -8.16732e-15 1.99861 6.09313e-24 0 0.307397 0.119261 0.00348224 
676 0.000282743 1 0.851161 0.105708 0.00688075 0 0 0 28.7153 2.2417 2.47251 -18.6672 -10.4999 -10.993 0.35236 0.124362 0.00800087 
1973 0.000282743 1 0.888286 0.102359 0.00407829 0 0 0 30.7609 -0.30682 0.11946 2 0 -0.00277371 0.367729 0.120423 0.0047422 
1747 0.000282743 1 0.315344 0.104694 0.00299472 0 0 0 49.4793 0 -5.17807e-07 1.99861 0 6.68934e-08 0.130545 0.123169 0.00348224 
1183 0.000282743 1 0.811578 0.107623 0.00299472 0 0 0 49.4793 0 1.80974e-15 1.99861 0 0 0.335974 0.126615 0.00348224 
1692 0.000282743 1 0.832044 0.106098 0.00310422 0 0 0 50.1201 0.234678 0.0832406 -19.9573 4.12881 0.526907 0.344446 0.124821 0.00360956 
1735 0.000282743 1 0.880204 0.10971 0.0130298 0 0 0 24.3731 0.594305 3.85256 2 0 -0.00277371 0.364383 0.12907 0.0151509 
886 0.000282743 1 0.828065 0.112226 0.00299472 0 0 0 49.4793 0 2.92157e-15 1.99861 0 0 0.342799 0.132031 0.00348224 
220 0.000282743 1 0.88578 0.108771 0.00462295 0 0 0 26.1628 0.00965389 1.48361 2 0 -0.00277371 0.366691 0.127966 0.00537552 
2801 0.000282743 1 0.279993 0.115869 0.00299472 0 0 0 49.4793 0 -5.08184e-15 1.99861 0 -4.7397e-15 0.11591 0.136317 0.00348224 
1801 0.000282743 1 0.518753 0.113038 0.00299472 0 0 0 49.4793 0 7.05357e-10 1.99861 0 -6.53918e-10 0.214751 0.132986 0.00348224 
140 0.000282743 1 0.642711 0.114857 0.00299472 0 0 0 49.4793 0 -7.05549e-15 1.99861 0 0 0.266067 0.135126 0.00348224 
1963 0.000282743 1 0.774976 0.113904 0.00356402 0 0 0 49.3687 0.275908 0.132787 2 0 -0.00277371 0.320821 0.134004 0.00414421 
2449 0.000282743 1 0.848728 0.110981 0.00503845 0 0 0 -0.205068 -7.47281 6.85394 -7.92526 4.12886 -3.29046 0.351353 0.130566 0.00585866 
934 0.000282743 1 0.851755 0.113642 0.00269349 0 0 0 15.0525 1.79439 -1.07939 -13.9455 -1.29623 1.48498 0.352606 0.133696 0.00313197 
392 0.000282743 1 0.360153 0.116778 0.00299472 0 0 0 49.4793 0 8.4639e-15 1.99861 0 0 0.149095 0.137385 0.00348224 
1400 0.000282743 1 0.45081 0.118653 0.00321053 0 0 0 49.5149 0 -0.103337 2 0 -0.00277371 0.186624 0.139592 0.00373318 
2620 0.000282743 1 0.407187 0.122546 0.00299472 0 0 0 49.4793 0 -7.21881e-10 1.99861 0 -7.10177e-12 0.168566 0.144171 0.00348224 
2955 0.000282743 1 0.501963 0.121181 0.00299472 0 0 0 49.4793 0 -3.38551e-08 1.99861 0 1.74449e-08 0.207801 0.142565 0.00348224 
2869 0.000282743 1 0.681107 0.121285 0.00299472 0 0 0 49.2481 -0.0239456 -4.00649e-10 1.99861 -3.82986e-14 8.52676e-09 0.281962 0.142688 0.00348224 
2063 0.000282743 1 0.796457 0.121177 0.00299472 0 0 0 49.4793 0 6.24586e-15 1.99861 0 0 0.329714 0.142561 0.00348224 
2918 0.000282743 1 0.523283 0.125633 0.00380601 0 0 0 49.5149 0 -0.0140318 2 0 -0.00277371 0.216626 0.147804 0.00442559 
2312 0.000282743 1 0.847462 0.125933 0.00299447 0 0 0 0.356606 0 0.00199151 -0.621535 0 -0.000246879 0.350829 0.148157 0.00348194 
1860 0.000282743 1 0.28141 0.130739 0.00299472 0 0 0 49.4793 0 -3.95316e-07 1.99861 0 1.41872e-07 0.116497 0.153811 0.00348224 
719 0.000282743 1 0.687435 0.130483 0.00299472 0 0 0 49.3844 0.0181812 -3.5709e-12 1.99861 2.37273e-18 -2.50664e-12 0.284582 0.153509 0.00348224 
1378 0.000282743 1 0.856962 0.132815 0.0038157 0 0 0 24.7561 0 -0.00396974 2 0 -0.00277371 0.354761 0.156252 0.00443685 
202 0.000282743 1 0.271245 0.137364 0.00299473 0 0 0 49.4793 0 -4.46134e-07 1.99861 0 -1.61702e-07 0.112289 0.161605 0.00348224 
2160 0.000282743 1 0.577516 0.137217 0.00299472 0 0 0 49.3841 -0.116954 -1.14916e-14 1.99861 -7.79921e-22 0 0.239077 0.161431 0.00348224 
1451 0.000282743 1 0.695832 0.139859 0.00299472 0 0 0 49.4323 0.253923 5.62508e-08 1.99861 -3.93008e-12 -3.51409e-08 0.288057 0.16454 0.00348224 
768 0.000282743 1 0.88858 0.136757 0.00299405 0 0 0 26.2375 0 -0.00106456 1.99817 0 0.000893447 0.36785 0.16089 0.00348145 
2451 0.000282743 1 0.176396 0.14389 0.00309877 0 0 0 49.5149 0 -0.112989 2 0 -0.00277371 0.0730235 0.169282 0.00360322 
1582 0.000282743 1 0.425244 0.143686 0.00299472 0 0 0 49.4793 0 2.63286e-11 1.99861 0 -4.6537e-14 0.176041 0.169042 0.00348224 
410 0.000282743 1 0.644116 0.144092 0.00299601 0 0 0 49.4866 0 0.00659246 1.99996 0 -0.00286306 0.266648 0.169519 0.00348374 
1246 0.000282743 1 0.234108 0.149085 0.00299472 0 0 0 49.4984 0.0126758 8.86147e-14 1.99861 -2.08386e-19 -9.38876e-15 0.0969152 0.175394 0.00348224 
2461 0.000282743 1 0.631939 0.148491 0.00299473 0 0 0 49.4792 0 -2.08106e-06 1.99861 0 -2.71522e-06 0.261608 0.174695 0.00348224 
2448 0.000282743 1 0.873129 0.148925 0.00298613 0 0 0 24.9201 -0.185844 0.0045452 1.99495 3.82032e-05 0.00731914 0.361454 0.175206 0.00347224 
233 0.000282743 1 0.897336 0.148929 0.00307568 0 0 0 27.1698 0.00610534 -0.0225427 2 0 -0.00277371 0.371476 0.175211 0.00357637 
2991 0.000282743 1 0.660161 0.153952 0.00299472 0 0 0 49.4793 0 -1.31422e-14 1.99861 0 -1.89475e-15 0.273291 0.181119 0.00348224 
1051 0.000282743 1 0.876381 0.154239 0.00377049 0 0 0 24.9564 0.457957 0.0583968 2 0 -0.00277371 0.3628 0.181458 0.00438429 
1576 0.000282743 1 0.731926 0.15931 0.00299472 0 0 0 49.4793 0 8.46391e-15 1.99861 0 0 0.303 0.187424 0.00348224 
2643 0.000282743 1 0.749526 0.158048 0.00299472 0 0 0 49.4793 0 -7.82183e-13 1.99861 0 -2.98809e-13 0.310286 0.185939 0.00348224 
55 0.000282743 1 0.20367 0.161299 0.00726165 0 0 0 48.1586 0 0.669639 2 0 -0.00277371 0.0843145 0.189764 0.00844378 
1415 0.000282743 1 0.343463 0.161792 0.00299369 0 0 0 49.4755 0 0.000502784 1.99827 0 0.000696221 0.142186 0.190344 0.00348104 
1669 0.000282743 1 0.428128 0.163659 0.00299472 0 0 0 49.4793 0 -1.48173e-14 1.99861 0 0 0.177234 0.19254 0.00348224 
1592 0.000282743 1 0.363241 0.165431 0.00299472 0 0 0 49.4793 0 -1.48159e-14 1.99861 0 0 0.150373 0.194625 0.00348224 
2682 0.000282743 1 0.434955 0.164924 0.00299472 0 0 0 49.4793 0 1.17896e-14 1.99861 0 0 0.180061 0.194028 0.00348224 
2962 0.000282743 1 0.628452 0.168313 0.00299472 0 0 0 49.4793 0 5.13963e-15 1.99861 0 0 0.260164 0.198015 0.00348224 
344 0.000282743 1 0.686854 0.167356 0.00299384 0 0 0 49.4743 0 0.000909301 1.99839 0 0.000438099 0.284341 0.196889 0.00348121 
989 0.000282743 1 0.272222 0.172494 0.00338962 0 0 0 49.8138 0.184532 -0.0588943 2 0 -0.00277371 0.112693 0.202934 0.00394142 
330 0.000282743 1 0.419089 0.167066 0.00299472 0 0 0 49.6396 -0.198191 1.78206e-08 1.99861 -9.60282e-13 4.30588e-08 0.173493 0.196549 0.00348224 
826 0.000282743 1 0.848788 0.170682 0.0188229 0 0 0 5.85492 8.68207 7.72738 -23.6143 11.6027 0.464099 0.351378 0.200803 0.0218871 
543 0.000282743 1 0.211475 0.17302 0.00298937 0 0 0 49.488 0 0.0104239 1.99794 0 0.00134074 0.0875457 0.203553 0.00347601 
1293 0.000282743 1 0.476578 0.174331 0.00299472 0 0 0 49.4793 0 1.81113e-15 1.99861 0 0 0.197292 0.205096 0.00348224 
221 0.000282743 1 0.536559 0.172561 0.00299472 0 0 0 49.4793 0 6.24724e-15 1.99861 0 0 0.222123 0.203013 0.00348224 
113 0.000282743 1 0.548697 0.174128 0.00299472 0 0 0 49.4793 0 -3.73119e-15 1.99861 0 0 0.227147 0.204856 0.00348224 
178 0.000282743 1 0.78342 0.174539 0.00351117 0 0 0 49.1149 0 0.0854811 2 0 -0.00277371 0.324317 0.20534 0.00408276 
2278 0.000282743 1 0.43354 0.179744 0.00299472 0 0 0 49.4793 0 -1.37069e-14 1.99861 0 0 0.179475 0.211463 0.00348224 
2281 0.000282743 1 0.567996 0.179038 0.00300966 0 0 0 49.4325 0 -0.0260063 2 0 -0.00277371 0.235136 0.210633 0.00349961 
418 0.000282743 1 0.83606 0.176458 0.00299472 0 0 0 49.4793 0 -8.08369e-12 1.99861 0 -1.73088e-12 0.346108 0.207597 0.00348224 
921 0.000282743 1 0.847486 0.178483 0.00364318 0 0 0 0.128826 0 0.0247819 -0.585283 0 -0.0020622 0.350839 0.20998 0.00423626 
1998 0.000282743 1 0.278364 0.183085 0.00304044 0 0 0 49.4209 0 0.0108226 2 0 -0.00277371 0.115236 0.215394 0.0035354 
2976 0.000282743 1 0.4111 0.187977 0.00299472 0 0 0 49.4978 -0.00281716 8.4639e-15 1.99861 0 0 0.170185 0.221149 0.00348224 
538 0.000282743 1 0.806947 0.184299 0.00299472 0 0 0 49.4306 -0.149661 -1.36737e-08 1.99861 -3.7309e-13 1.48711e-09 0.334056 0.216823 0.00348224 
1164 0.000282743 1 0.622093 0.191979 0.00299472 0 0 0 49.7436 0.324661 1.95148e-08 1.99861 -2.90933e-12 -3.21469e-08 0.257532 0.225858 0.00348224 
87 0.000282743 1 0.684085 0.189503 0.00299472 0 0 0 49.4793 0 7.35628e-15 1.99861 0 0 0.283195 0.222945 0.00348224 
2327 0.000282743 1 0.73013 0.192086 0.00299429 0 0 0 49.4722 0 0.00119374 1.99863 0 -2.42976e-05 0.302256 0.225984 0.00348173 
2888 0.000282743 1 0.385814 0.194585 0.00299472 0 0 0 49.3518 0.0698881 6.44272e-06 1.99861 -9.93456e-11 -2.10874e-06 0.159718 0.228924 0.00348224 
371 0.000282743 1 0.469448 0.193043 0.00299472 0 0 0 49.4793 0 1.29e-14 1.99861 0 0 0.19434 0.22711 0.00348224 
2202 0.000282743 1 0.26541 0.202405 0.00378274 0 0 0 49.5149 0 -0.0232755 2 0 -0.00277371 0.109873 0.238123 0.00439854 
2830 0.000282743 1 0.672858 0.204474 0.00299472 0 0 0 49.4793 0 -1.03798e-14 1.99861 0 0 0.278547 0.240558 0.00348224 
961 0.000282743 1 0.847187 0.207824 0.00312153 0 0 0 -0.534834 -0.473702 0.132148 1.8405 -0.0379183 0.00864985 0.350715 0.244498 0.00362968 
1172 0.000282743 1 0.226087 0.211557 0.00299472 0 0 0 49.4793 0 -4.07824e-07 1.99861 0 1.36984e-07 0.0935944 0.24889 0.00348224 
2621 0.000282743 1 0.282831 0.209732 0.00299472 0 0 0 49.4793 0 -7.05689e-15 1.99861 0 0 0.117085 0.246743 0.00348224 
2109 0.000282743 1 0.494989 0.210491 0.00299472 0 0 0 49.4793 0 2.06604e-14 1.99861 0 0 0.204914 0.247637 0.00348224 
1885 0.000282743 1 0.514892 0.209041 0.00816934 0 0 0 49.5149 0 0.652367 2 0 -0.00277371 0.213153 0.245931 0.00949923 
1957 0.000282743 1 0.847425 0.213694 0.0128211 0 0 0 0.0312727 0 1.99731 -0.0341282 0 -0.00365872 0.350813 0.251405 0.0149083 
2297 0.000282743 1 0.216936 0.216715 0.00299472 0 0 0 49.5099 -0.0188337 -2.71985e-08 1.99861 -2.39926e-14 -1.75168e-08 0.0898063 0.254959 0.00348224 
2132 0.000282743 1 0.647563 0.218356 0.00299484 0 0 0 50.2604 0.0392854 0.00120243 1.99885 5.74885e-07 -0.000464659 0.268075 0.25689 0.00348238 
1444 0.000282743 1 0.867648 0.218083 0.00377277 0 0 0 23.8399 0 -0.00447462 2 0 -0.00277371 0.359185 0.256568 0.00438694 
145 0.000282743 1 0.178597 0.221527 0.00299472 0 0 0 49.5193 0.019198 -2.46685e-07 1.99861 1.15511e-12 1.11233e-07 0.0739348 0.260621 0.00348224 
2512 0.000282743 1 0.860273 0.220309 0.00307253 0 0 0 25.8908 0.028495 -0.0599036 72.5058 5.3876 -2.47128 0.356132 0.259187 0.0035727 
254 0.000282743 1 0.591681 0.225127 0.00333028 0 0 0 58.3635 0.18288 0.217421 2 0 -0.00277371 0.244942 0.264855 0.00387242 
2849 0.000282743 1 0.720362 0.228284 0.00300655 0 0 0 54.2876 0.425826 0.0955898 2 0 -0.00277371 0.298213 0.268569 0.00349599 
296 0.000282743 1 0.774738 0.224948 0.00322617 0 0 0 79.0164 1.54281 0.951597 2 0 -0.00277371 0.320723 0.264644 0.00375136 
256 0.000282743 1 0.848299 0.227282 0.0029948 0 0 0 44.6431 0 0.00626067 -64.6916 0 0.0741208 0.351175 0.26739 0.00348232 
2268 0.000282743 1 0.866505 0.228448 0.00299678 0 0 0 25.3386 0 -0.00117935 1.99918 0 -0.00113301 0.358712 0.268762 0.00348462 
757 0.000282743 1 0.825887 0.242507 0.00343418 0 0 0 49.6317 0.417477 0.0339136 2 0 -0.00277371 0.341897 0.285302 0.00399324 
887 0.000282743 1 0.848474 0.243059 0.00304635 0 0 0 9.31814 -1.53367 0.881478 6.21261 -6.14067 1.61652 0.351248 0.285951 0.00354227 
2986 0.000282743 1 0.84488 0.241554 0.00281115 0 0 0 17.4951 3.4061 -2.22794 -29.3701 1.69088 -0.353402 0.34976 0.284181 0.00326878 
188 0.000282743 1 0.854202 0.250301 0.00330864 0 0 0 15.1778 -0.197122 0.626293 2 0 -0.00277371 0.353619 0.294472 0.00384725 
2563 0.000282743 1 0.84808 0.25032 0.00278719 0 0 0 -0.766272 -0.486776 -0.170102 -4.95996 -0.43522 1.25326 0.351085 0.294494 0.00324092 
1096 0.000282743 1 0.846809 0.238636 0.00411488 0 0 0 23.5318 -9.1855 2.97602 3.45982 -6.31277 2.25982 0.350559 0.280748 0.00478474 
399 0.000282743 1 0.842184 0.253177 0.00299472 0 0 0 49.4793 0 -7.05548e-15 1.99861 0 0 0.348644 0.297855 0.00348224 
253 0.000282743 1 0.441839 0.260054 0.00299472 0 0 0 49.4793 0 1.73319e-14 1.99861 0 0 0.182911 0.305946 0.00348224 
185 0.000282743 1 0.598922 0.259601 0.00299472 0 0 0 49.4793 0 -1.80861e-14 1.99861 0 -1.77809e-17 0.247939 0.305413 0.00348224 
211 0.000282743 1 0.683077 0.256715 0.00299472 0 0 0 49.4793 0 -1.03812e-14 1.99861 0 0 0.282778 0.302018 0.00348224 
2020 0.000282743 1 0.84792 0.255909 0.00364357 0 0 0 0.751438 -0.256435 1.19891 -5.63465 3.00097 2.7993 0.351018 0.30107 0.0042367 
2140 0.000282743 1 0.740396 0.262436 0.00298959 0 0 0 49.5286 -0.170581 0.0156173 1.99901 3.10557e-09 -0.000800506 0.306506 0.308749 0.00347627 
1897 0.000282743 1 0.759208 0.260571 0.00294769 0 0 0 54.0031 -0.391467 0.115466 1.9882 -5.24152e-06 0.0208293 0.314294 0.306554 0.00342754 
1100 0.000282743 1 0.858551 0.26124 0.00284681 0 0 0 18.7632 0.984245 0.627838 1.99245 -0.00239114 -0.0186166 0.35542 0.307342 0.00331024 
2290 0.000282743 1 0.779727 0.267151 0.00299472 0 0 0 49.6505 0.193438 -8.46535e-08 1.99861 1.32737e-12 -3.84146e-08 0.322788 0.314295 0.00348224 
1831 0.000282743 1 0.847424 0.266775 0.00300676 0 0 0 0.200452 -0.328577 0.019397 -0.186027 0.00225625 -0.00189051 0.350813 0.313853 0.00349623 
1816 0.000282743 1 0.487131 0.27068 0.00381801 0 0 0 49.5149 0 0.0202938 2 0 -0.00277371 0.20166 0.318447 0.00443955 
2558 0.000282743 1 0.72634 0.268053 0.00334747 0 0 0 49.168 -0.229306 0.0548763 2 0 -0.00277371 0.300687 0.315356 0.0038924 
2901 0.000282743 1 0.231377 0.273057 0.00380434 0 0 0 49.5149 0 0.0292313 2 0 -0.00277371 0.0957847 0.321243 0.00442365 
823 0.000282743 1 0.708517 0.273054 0.00299472 0 0 0 49.4793 0 -2.55163e-11 1.99861 0 2.39444e-11 0.293309 0.32124 0.00348224 
1670 0.000282743 1 0.294405 0.28049 0.00304582 0 0 0 49.4212 0 0.000365642 2 0 -0.00277371 0.121877 0.329989 0.00354165 
2522 0.000282743 1 0.471122 0.277552 0.00299472 0 0 0 49.4793 0 -7.05688e-15 1.99861 0 0 0.195033 0.326531 0.00348224 
63 0.000282743 1 0.516791 0.281348 0.00299472 0 0 0 49.4793 0 -1.87859e-14 1.99861 0 -1.43982e-16 0.213939 0.330997 0.00348224 
1438 0.000282743 1 0.847854 0.280678 0.00386054 0 0 0 -3.58907 -2.13303 0.896413 0.239633 1.3857 -0.464317 0.350991 0.33021 0.00448899 
1887 0.000282743 1 0.199106 0.286407 0.00299509 0 0 0 49.4602 0 -6.98672e-05 1.99874 0 -0.000262952 0.0824252 0.336949 0.00348266 
526 0.000282743 1 0.245199 0.286405 0.00618491 0 0 0 49.5295 -0.212308 0.421497 2 0 -0.00277371 0.101506 0.336947 0.00719176 
2585 0.000282743 1 0.269984 0.285776 0.00309008 0 0 0 49.3649 -0.206282 -0.0461021 2 0 -0.00277371 0.111767 0.336207 0.00359312 
1911 0.000282743 1 0.302407 0.285594 0.00299472 0 0 0 49.4793 0 1.51167e-14 1.99861 0 0 0.125189 0.335993 0.00348224 
706 0.000282743 1 0.331032 0.286103 0.00299472 0 0 0 49.4793 0 1.44061e-09 1.99861 0 -5.17342e-09 0.137039 0.336592 0.00348224 
2507 0.000282743 1 0.518208 0.288627 0.00299472 0 0 0 49.4793 0 -1.37083e-14 1.99861 0 0 0.214525 0.339562 0.00348224 
2737 0.000282743 1 0.847327 0.288021 0.00476354 0 0 0 -1.03866 -0.389155 0.734692 1.58258 -0.029416 0.0268038 0.350773 0.338848 0.005539 
987 0.000282743 1 0.19021 0.291819 0.00304107 0 0 0 49.4212 0 0.00957102 2 0 -0.00277371 0.0787425 0.343316 0.00353613 
1265 0.000282743 1 0.356215 0.286956 0.00299473 0 0 0 48.5958 -0.38328 6.20313e-05 1.99863 5.35001e-09 -2.40423e-05 0.147465 0.337595 0.00348225 
1696 0.000282743 1 0.84913 0.293601 0.0038789 0 0 0 0.664173 -0.709803 0.596791 -19.8286 2.27808 -1.72825 0.351519 0.345413 0.00451035 
2206 0.000282743 1 0.466391 0.295348 0.00299472 0 0 0 49.4271 -0.133467 6.13424e-09 1.99861 1.42582e-13 -3.8906e-10 0.193075 0.347469 0.00348224 
2838 0.000282743 1 0.849368 0.29745 0.00244015 0 0 0 1.58833 3.46602 -2.94974 -34.276 -1.13266 3.9127 0.351618 0.349941 0.00283738 
818 0.000282743 1 0.217444 0.301929 0.00299472 0 0 0 49.4793 0 5.13823e-15 1.99861 0 0 0.0900165 0.35521 0.00348224 
2407 0.000282743 1 0.342463 0.304103 0.00299472 0 0 0 49.4793 0 -1.51454e-15 1.99861 0 0 0.141772 0.357769 0.00348224 
1751 0.000282743 1 0.827036 0.304201 0.00299472 0 0 0 49.596 -0.0736444 1.73319e-14 1.99861 -7.79921e-22 0 0.342373 0.357884 0.00348224 
1687 0.000282743 1 0.848368 0.301656 0.00379101 0 0 0 0.522839 3.78893 0.729846 -8.62436 2.40583 0.0324037 0.351204 0.35489 0.00440815 
2457 0.000282743 1 0.53859 0.305371 0.00299472 0 0 0 49.4793 0 -5.1495e-09 1.99861 0 1.60978e-09 0.222963 0.359261 0.00348224 
2082 0.000282743 1 0.551234 0.30527 0.00299472 0 0 0 49.4793 0 7.98832e-09 1.99861 0 1.12127e-08 0.228197 0.359142 0.00348224 
1274 0.000282743 1 0.862762 0.305692 0.00361903 0 0 0 22.3621 -0.170679 0.0301729 2 0 -0.00277371 0.357163 0.359638 0.00420817 
2380 0.000282743 1 0.62755 0.312551 0.00299472 0 0 0 49.4793 0 7.0632e-16 1.99861 0 0 0.259791 0.367707 0.00348224 
468 0.000282743 1 0.869428 0.309474 0.00350552 0 0 0 21.7175 -0.725749 -0.201661 2 0 -0.00277371 0.359922 0.364087 0.00407619 
2146 0.000282743 1 0.675168 0.315994 0.00320337 0 0 0 49.5149 0 -0.104436 2 0 -0.00277371 0.279503 0.371757 0.00372485 
1032 0.000282743 1 0.908584 0.316919 0.00279848 0 0 0 60.6249 -5.67836 -1.14847 1.22571 0.0806643 1.55418 0.376132 0.372845 0.00325404 
1872 0.000282743 1 0.298452 0.325058 0.00316774 0 0 0 49.7893 0.396509 -0.00699164 2 0 -0.00277371 0.123552 0.382422 0.00368342 
1798 0.000282743 1 0.721437 0.328727 0.0030044 0 0 0 72.47 2.06245 0.0238143 2 0 -0.00277371 0.298657 0.386737 0.00349349 
2022 0.000282743 1 0.267491 0.327677 0.00374795 0 0 0 49.5149 0 -0.0336601 2 0 -0.00277371 0.110735 0.385502 0.00435808 
677 0.000282743 1 0.281803 0.32702 0.00369359 0 0 0 49.5149 0 0.0577024 2 0 -0.00277371 0.11666 0.384729 0.00429487 
401 0.000282743 1 0.851134 0.326817 0.00317267 0 0 0 29.8182 0 -0.0522015 -19.9199 0 0.171953 0.352349 0.38449 0.00368915 
1709 0.000282743 1 0.877547 0.326459 0.00301806 0 0 0 22.3438 -0.424221 0.0134305 2 0 -0.00277371 0.363283 0.38407 0.00350937 
1869 0.000282743 1 0.903263 0.323545 0.0033959 0 0 0 40.267 -1.5899 0.488167 2 0 -0.00277371 0.373929 0.380641 0.00394872 
2007 0.000282743 1 0.682871 0.332481 0.0030395 0 0 0 49.4208 0 0.011492 2 0 -0.00277371 0.282692 0.391154 0.0035343 
889 0.000282743 1 0.847653 0.333424 0.00330475 0 0 0 -0.391036 1.05985 0.285548 -1.44705 -0.513958 0.0274086 0.350908 0.392263 0.00384273 
1352 0.000282743 1 0.890979 0.326248 0.00745122 0 0 0 27.9384 -1.67164 1.87917 2 0 -0.00277371 0.368844 0.383821 0.00866421 
1496 0.000282743 1 0.906304 0.330204 0.00305863 0 0 0 30.7814 0.23523 0.0884669 2 0 -0.00277371 0.375188 0.388476 0.00355654 
1236 0.000282743 1 0.204425 0.333239 0.00299463 0 0 0 49.4831 0 0.000105764 1.99859 0 4.30051e-05 0.084627 0.392045 0.00348213 
2590 0.000282743 1 0.779231 0.33438 0.00299472 0 0 0 49.2537 0.142456 1.73359e-14 1.99861 1.55984e-21 -1.30104e-18 0.322583 0.393388 0.00348224 
2583 0.000282743 1 0.777707 0.343757 0.00299472 0 0 0 49.4793 0 5.91792e-10 1.99861 0 1.37197e-09 0.321952 0.40442 0.00348224 
1892 0.000282743 1 0.500106 0.348409 0.00299472 0 0 0 49.4793 0 -1.37069e-14 1.99861 0 0 0.207032 0.409893 0.00348224 
2074 0.000282743 1 0.556325 0.350544 0.00298113 0 0 0 49.1694 0.334631 0.0330124 1.99761 -1.27298e-05 0.00200105 0.230305 0.412405 0.00346643 
95 0.000282743 1 0.823729 0.347146 0.00299473 0 0 0 49.4792 0 7.47652e-06 1.99862 0 -4.45516e-06 0.341004 0.408407 0.00348224 
1785 0.000282743 1 0.52691 0.355491 0.00299472 0 0 0 49.4793 0 1.03327e-08 1.99861 0 1.01131e-08 0.218128 0.418224 0.00348224 
551 0.000282743 1 0.868807 0.35543 0.00299084 0 0 0 19.7781 -0.996885 0.0111111 1.9988 6.5915e-05 -0.000365705 0.359665 0.418153 0.00347772 
130 0.000282743 1 0.281525 0.363226 0.00299472 0 0 0 49.4793 0 8.4639e-15 1.99861 0 0 0.116545 0.427324 0.00348224 
1601 0.000282743 1 0.512897 0.363106 0.00339894 0 0 0 49.4805 0.0343134 -0.10749 2 0 -0.00277371 0.212327 0.427183 0.00395225 
1535 0.000282743 1 0.670946 0.361707 0.00299472 0 0 0 49.4793 0 -7.05549e-15 1.99861 0 0 0.277755 0.425537 0.00348224 
1273 0.000282743 1 0.847307 0.364299 0.00295153 0 0 0 0.148892 0.401202 0.071414 0.651257 0.015395 -0.0139614 0.350765 0.428587 0.00343202 
2253 0.000282743 1 0.607425 0.366363 0.00299472 0 0 0 49.4793 0 7.79877e-15 1.99861 0 -8.39129e-15 0.251459 0.431015 0.00348224 
2998 0.000282743 1 0.581481 0.371522 0.00299472 0 0 0 49.4793 0 -3.74029e-09 1.99861 0 1.94913e-09 0.240719 0.437085 0.00348224 
1754 0.000282743 1 0.367473 0.373889 0.00607815 0 0 0 49.3626 -0.0341775 0.394158 2 0 -0.00277371 0.152125 0.439869 0.00706762 
2273 0.000282743 1 0.446397 0.374454 0.00299472 0 0 0 49.4793 0 -1.25978e-14 1.99861 0 0 0.184798 0.440534 0.00348224 
1390 0.000282743 1 0.632106 0.378701 0.00299472 0 0 0 49.4793 0 1.17896e-14 1.99861 0 0 0.261677 0.445531 0.00348224 
1874 0.000282743 1 0.846943 0.377477 0.0029927 0 0 0 20.6152 -2.82204 -0.0845669 -33.4489 -6.14288 -0.388037 0.350614 0.444091 0.00347988 
1065 0.000282743 1 0.845806 0.371085 0.00350096 0 0 0 1.83238 2.10984 0.493105 2 0 -0.00277371 0.350143 0.436571 0.00407088 
1818 0.000282743 1 0.877276 0.362137 0.00313117 0 0 0 24.044 2.38971 0.0642164 2 0 -0.00277371 0.363171 0.426044 0.0036409 
161 0.000282743 1 0.228725 0.381082 0.00299474 0 0 0 49.4791 0 -4.25752e-05 1.99861 0 4.75256e-06 0.0946864 0.448331 0.00348225 
2855 0.000282743 1 0.710952 0.381857 0.00301973 0 0 0 49.4812 -0.0714435 0.0233786 2 0 -0.00277371 0.294317 0.449243 0.00351131 
2064 0.000282743 1 0.739199 0.383106 0.00346097 0 0 0 49.5149 0 -0.0790866 2 0 -0.00277371 0.306011 0.450713 0.00402438 
2148 0.000282743 1 0.853952 0.38698 0.00252464 0 0 0 7.74377 -1.36836 1.80128 1.67174 0.0708958 0.668876 0.353515 0.455271 0.00293562 
1280 0.000282743 1 0.849082 0.378114 0.0029991 0 0 0 22.0094 0.141145 -0.040104 -15.6683 3.53895 0.641075 0.351499 0.44484 0.00348733 
417 0.000282743 1 0.707686 0.38732 0.00299474 0 0 0 49.5505 -0.0242255 -2.10201e-06 1.99862 7.45642e-10 -1.13512e-05 0.292965 0.45567 0.00348226 
2655 0.000282743 1 0.797636 0.387301 0.00299472 0 0 0 49.4793 0 -1.70456e-14 1.99861 0 -6.83915e-16 0.330202 0.455648 0.00348224 
2944 0.000282743 1 0.848361 0.381188 0.00793121 0 0 0 -1.37687 -9.69662 6.71383 -7.2427 -0.210383 -1.9653 0.351201 0.448456 0.00922233 
800 0.000282743 1 0.847945 0.387632 0.00283891 0 0 0 6.09909 -1.06542 -0.406017 -11.1378 5.85688 2.80772 0.351029 0.456038 0.00330105 