ITEM: TIMESTEP
25450
ITEM: NUMBER OF ATOMS
3000
ITEM: BOX BOUNDS mm mm mm
0 1.45993
0 0.85
0 0.86
ITEM: ATOMS id mass type x y z ix iy iz vx vy vz fx fy fz xs ys zs 
2788 0.000282743 1 0.2464 0.00364332 0.00299472 0 0 0 31.8077 0 5.13963e-15 1.99861 0 0 0.168775 0.00428626 0.00348224 
1319 0.000282743 1 0.558038 0.00389763 0.00299472 0 0 0 31.8077 0 -1.59235e-14 1.99861 0 0 0.382236 0.00458545 0.00348224 
24 0.000282743 1 0.344114 0.00725002 0.00692597 0 0 0 31.831 0 0.669335 2 0 -0.00277371 0.235706 0.00852944 0.00805345 
315 0.000282743 1 0.51328 0.0078913 0.00299472 0 0 0 31.8077 0 1.17896e-14 1.99861 0 0 0.351579 0.00928389 0.00348224 
926 0.000282743 1 0.847951 0.00630207 0.00298657 0 0 0 3.76693 -0.990249 -0.0704832 -0.642906 -1.26466 -0.00537283 0.580816 0.0074142 0.00347276 
610 0.000282743 1 0.149302 0.013257 0.00378702 0 0 0 31.831 0 -0.0166034 2 0 -0.00277371 0.102267 0.0155965 0.00440352 
626 0.000282743 1 0.214134 0.0136063 0.00299472 0 0 0 31.8077 0 7.35628e-15 1.99861 0 0 0.146674 0.0160075 0.00348224 
229 0.000282743 1 0.422049 0.0159379 0.00367821 0 0 0 31.831 0 0.0575054 2 0 -0.00277371 0.289089 0.0187505 0.00427698 
1485 0.000282743 1 0.590709 0.0121932 0.00299472 0 0 0 31.8077 0 2.53323e-08 1.99861 0 -4.89039e-08 0.404615 0.0143449 0.00348224 
281 0.000282743 1 0.663738 0.0121888 0.00299472 0 0 0 31.8077 0 -7.0555e-15 1.99861 0 0 0.454638 0.0143397 0.00348224 
1922 0.000282743 1 0.696273 0.0120828 0.00299472 0 0 0 31.8058 0.0118845 2.38285e-13 1.99861 2.67177e-19 3.87594e-14 0.476923 0.0142151 0.00348224 
2338 0.000282743 1 0.245441 0.0166446 0.00298707 0 0 0 31.8182 0 -0.00937694 1.99283 0 0.0115731 0.168118 0.0195819 0.00347333 
2752 0.000282743 1 0.364289 0.0171987 0.00299472 0 0 0 31.8077 0 -1.7009e-14 1.99861 0 -7.37257e-18 0.249525 0.0202338 0.00348224 
662 0.000282743 1 0.157694 0.0227621 0.00299472 0 0 0 31.8077 0 2.2751e-14 1.99861 0 -1.23421e-14 0.108015 0.026779 0.00348224 
136 0.000282743 1 0.828514 0.0228154 0.00371256 0 0 0 31.831 0 -0.0384505 2 0 -0.00277371 0.567503 0.0268417 0.00431692 
312 0.000282743 1 0.845149 0.0237223 0.00299472 0 0 0 31.8077 0 -1.03798e-14 1.99861 0 0 0.578897 0.0279086 0.00348224 
2385 0.000282743 1 0.0977637 0.0271591 0.00299472 0 0 0 31.8077 0 -4.84163e-15 1.99861 0 0 0.0669647 0.0319519 0.00348224 
356 0.000282743 1 0.754828 0.0274179 0.00381295 0 0 0 31.831 0 0.0071805 2 0 -0.00277371 0.517031 0.0322564 0.00443367 
2171 0.000282743 1 0.76509 0.0307014 0.00299472 0 0 0 31.8077 0 -9.27214e-15 1.99861 0 0 0.52406 0.0361193 0.00348224 
2212 0.000282743 1 0.846184 0.0291914 0.00579691 0 0 0 2.71753 -0.0391764 0.570936 2 0 -0.00277371 0.579606 0.0343428 0.0067406 
2165 0.000282743 1 0.750626 0.0336834 0.00299472 0 0 0 31.8077 0 4.02921e-15 1.99861 0 0 0.514153 0.0396276 0.00348224 
1995 0.000282743 1 0.84868 0.0361755 0.00798794 0 0 0 4.60745 3.58761 7.23144 -20.2419 3.68903 6.2082 0.581316 0.0425594 0.0092883 
284 0.000282743 1 0.474799 0.0405785 0.00656834 0 0 0 31.831 0 0.669692 2 0 -0.00277371 0.325221 0.0477394 0.0076376 
153 0.000282743 1 0.771564 0.0455722 0.00299472 0 0 0 31.8077 0 -4.11627e-07 1.99861 0 1.30551e-07 0.528495 0.0536144 0.00348224 
2946 0.000282743 1 0.116225 0.0503255 0.00299472 0 0 0 31.8077 0 1.76328e-11 1.99861 0 1.07578e-11 0.0796098 0.0592065 0.00348224 
2245 0.000282743 1 0.217424 0.0511328 0.00299472 0 0 0 31.8077 0 -4.02713e-16 1.99861 0 0 0.148928 0.0601563 0.00348224 
338 0.000282743 1 0.379514 0.0513337 0.00299472 0 0 0 31.8077 0 -1.51454e-15 1.99861 0 0 0.259954 0.0603925 0.00348224 
1949 0.000282743 1 0.622219 0.0494126 0.00299472 0 0 0 31.8077 0 1.4009e-14 1.99861 0 0 0.426198 0.0581325 0.00348224 
1304 0.000282743 1 0.238164 0.0557894 0.0031447 0 0 0 31.831 0 -0.108698 2 0 -0.00277371 0.163134 0.0656346 0.00365663 
954 0.000282743 1 0.807978 0.0549755 0.00299472 0 0 0 31.8077 0 2.0659e-14 1.99861 0 0 0.553437 0.064677 0.00348224 
2678 0.000282743 1 0.26517 0.0574585 0.00326523 0 0 0 31.831 0 -0.0969589 2 0 -0.00277371 0.181632 0.0675982 0.00379678 
2170 0.000282743 1 0.404397 0.0584649 0.00299472 0 0 0 31.8077 0 1.28986e-14 1.99861 0 0 0.276998 0.0687823 0.00348224 
1124 0.000282743 1 0.462102 0.0586676 0.00299472 0 0 0 31.8077 0 1.51167e-14 1.99861 0 0 0.316524 0.0690207 0.00348224 
849 0.000282743 1 0.500336 0.0567479 0.00299472 0 0 0 31.8077 0 -1.00142e-14 1.99861 0 -2.52185e-15 0.342713 0.0667623 0.00348224 
2717 0.000282743 1 0.584903 0.0596798 0.00299472 0 0 0 31.8013 -0.00913781 6.24725e-15 1.99861 7.58601e-23 0 0.400638 0.0702115 0.00348224 
2515 0.000282743 1 0.57114 0.0626138 0.00299472 0 0 0 31.8077 0 -1.03798e-14 1.99861 0 0 0.391211 0.0736633 0.00348224 
2174 0.000282743 1 0.788103 0.0611444 0.00299472 0 0 0 31.8077 0 2.0659e-14 1.99861 0 0 0.539823 0.0719345 0.00348224 
795 0.000282743 1 0.69601 0.067764 0.00380964 0 0 0 31.8425 -0.0163322 -0.00310982 2 0 -0.00277371 0.476742 0.0797223 0.00442982 
1156 0.000282743 1 0.702532 0.064281 0.00299472 0 0 0 31.8077 0 1.51153e-14 1.99861 0 0 0.48121 0.0756247 0.00348224 
2920 0.000282743 1 0.770504 0.0670631 0.00299472 0 0 0 31.8077 0 9.57294e-15 1.99861 0 0 0.527768 0.0788978 0.00348224 
1678 0.000282743 1 0.457197 0.0721212 0.00299472 0 0 0 31.8077 0 -2.61937e-15 1.99861 0 0 0.313164 0.0848485 0.00348224 
1599 0.000282743 1 0.660303 0.0709061 0.00299472 0 0 0 31.8077 0 1.0682e-14 1.99861 0 0 0.452284 0.083419 0.00348224 
367 0.000282743 1 0.275579 0.0743494 0.00299473 0 0 0 31.8063 0 -0.000319261 1.99857 0 9.1463e-05 0.188762 0.0874699 0.00348225 
2586 0.000282743 1 0.322063 0.0759655 0.00299472 0 0 0 31.8077 0 -1.14902e-14 1.99861 0 0 0.220602 0.0893711 0.00348224 
2800 0.000282743 1 0.207715 0.0791022 0.00299472 0 0 0 31.8077 0 2.55907e-11 1.99861 0 -1.32777e-12 0.142278 0.0930614 0.00348224 
1017 0.000282743 1 0.268202 0.0776333 0.00299472 0 0 0 31.8077 0 7.35628e-15 1.99861 0 0 0.183709 0.0913333 0.00348224 
1814 0.000282743 1 0.487491 0.0771766 0.00299472 0 0 0 31.8077 0 -7.05549e-15 1.99861 0 0 0.333914 0.090796 0.00348224 
2129 0.000282743 1 0.631223 0.0775321 0.00299472 0 0 0 31.8077 0 7.35628e-15 1.99861 0 0 0.432366 0.0912142 0.00348224 
2636 0.000282743 1 0.670878 0.0790148 0.00684937 0 0 0 31.831 0 0.664177 2 0 -0.00277371 0.459528 0.0929586 0.00796438 
2996 0.000282743 1 0.312321 0.0806714 0.00299569 0 0 0 31.7998 0 -0.0034678 1.99847 0 0.000290989 0.213929 0.0949075 0.00348336 
1806 0.000282743 1 0.317769 0.0875507 0.00378985 0 0 0 31.831 0 0.02584 2 0 -0.00277371 0.217661 0.103001 0.0044068 
2606 0.000282743 1 0.497252 0.0844638 0.00299472 0 0 0 31.8077 0 1.50641e-06 1.99861 0 -2.17777e-07 0.340601 0.0993692 0.00348224 
2881 0.000282743 1 0.60179 0.0858021 0.00369005 0 0 0 31.3475 -0.0531234 0.217313 2 0 -0.00277371 0.412205 0.100944 0.00429076 
876 0.000282743 1 0.654788 0.0863357 0.00299815 0 0 0 31.8027 0 0.000346002 1.99976 0 -0.00228951 0.448507 0.101571 0.00348622 
501 0.000282743 1 0.638425 0.0886326 0.00299472 0 0 0 31.8084 -0.0928269 -3.94601e-14 1.99861 -7.05807e-19 1.76512e-13 0.437299 0.104274 0.00348224 
1113 0.000282743 1 0.846012 0.0896323 0.00302 0 0 0 -11.5825 3.82562 0.0904583 -8.18185 1.91203 0.0469106 0.579488 0.10545 0.00351162 
2182 0.000282743 1 0.849642 0.0884887 0.00299529 0 0 0 -4.80871 0.0267728 -0.00249353 -12.1951 1.02192 0.0140939 0.581975 0.104104 0.0034829 
2062 0.000282743 1 0.142682 0.0928605 0.00355541 0 0 0 31.831 0 -0.0645759 2 0 -0.00277371 0.0977321 0.109248 0.00413419 
1907 0.000282743 1 0.845118 0.097558 0.00301969 0 0 0 -0.544407 0.0524415 0.0620348 2 0 -0.00277371 0.578876 0.114774 0.00351126 
2548 0.000282743 1 0.230121 0.103172 0.00299472 0 0 0 31.8077 0 4.02921e-15 1.99861 0 0 0.157625 0.121379 0.00348224 
1743 0.000282743 1 0.640864 0.101367 0.00299472 0 0 0 31.8383 0.00182936 -8.16732e-15 1.99861 9.48251e-24 0 0.438969 0.119256 0.00348224 
676 0.000282743 1 0.740962 0.102147 0.00375136 0 0 0 35.9364 1.34416 1.17958 2 0 -0.00277371 0.507533 0.120173 0.00436205 
1973 0.000282743 1 0.804268 0.102645 0.00297804 0 0 0 42.3894 -0.263798 0.431149 1.91611 0.000112856 -0.170556 0.550895 0.120758 0.00346284 
1747 0.000282743 1 0.213735 0.104694 0.00299472 0 0 0 31.8077 0 1.31469e-06 1.99861 0 4.96475e-07 0.146401 0.123169 0.00348224 
1183 0.000282743 1 0.709969 0.107623 0.00299472 0 0 0 31.8077 0 1.80974e-15 1.99861 0 0 0.486304 0.126615 0.00348224 
1692 0.000282743 1 0.726209 0.105985 0.00293419 0 0 0 33.532 0.0445753 0.041505 1.95044 -0.000177384 0.0963556 0.497428 0.124689 0.00341185 
1735 0.000282743 1 0.815685 0.107161 0.0024331 0 0 0 39.4207 2.16196 1.74245 1.30843 0.0135073 1.38063 0.558716 0.126072 0.00282918 
886 0.000282743 1 0.726456 0.112226 0.00299472 0 0 0 31.8077 0 2.92157e-15 1.99861 0 0 0.497597 0.132031 0.00348224 
220 0.000282743 1 0.822952 0.108588 0.00299472 0 0 0 31.8077 0 -4.45836e-07 1.99861 0 1.15634e-07 0.563693 0.12775 0.00348224 
2801 0.000282743 1 0.178384 0.115869 0.00299472 0 0 0 31.8077 0 -4.02955e-14 1.99861 0 3.12909e-14 0.122187 0.136317 0.00348224 
1801 0.000282743 1 0.417145 0.113038 0.00299472 0 0 0 31.8077 0 -5.39653e-09 1.99861 0 1.40545e-09 0.28573 0.132986 0.00348224 
140 0.000282743 1 0.541102 0.114857 0.00299472 0 0 0 31.8077 0 -7.05549e-15 1.99861 0 0 0.370636 0.135126 0.00348224 
1963 0.000282743 1 0.673659 0.113214 0.00320139 0 0 0 31.6848 0.275908 0.157312 2 0 -0.00277371 0.461433 0.133193 0.00372255 
2449 0.000282743 1 0.756856 0.112484 0.00362991 0 0 0 31.831 0 0.0665189 2 0 -0.00277371 0.51842 0.132334 0.00422083 
934 0.000282743 1 0.845382 0.114351 0.00300151 0 0 0 -3.79894 0 0.00153387 2 0 -0.00277371 0.579057 0.13453 0.00349012 
392 0.000282743 1 0.258544 0.116778 0.00299472 0 0 0 31.8077 0 8.4639e-15 1.99861 0 0 0.177094 0.137385 0.00348224 
1400 0.000282743 1 0.349127 0.118653 0.00343822 0 0 0 31.831 0 -0.0788124 2 0 -0.00277371 0.23914 0.139592 0.00399793 
2620 0.000282743 1 0.305579 0.122546 0.00299472 0 0 0 31.8077 0 1.18983e-09 1.99861 0 1.06336e-09 0.209311 0.144171 0.00348224 
2955 0.000282743 1 0.400355 0.121181 0.00299472 0 0 0 31.8077 0 1.697e-07 1.99861 0 -1.58898e-08 0.274229 0.142565 0.00348224 
2869 0.000282743 1 0.580076 0.121345 0.00299472 0 0 0 31.5765 -0.0239456 5.53142e-08 1.99861 -6.45612e-14 -3.09644e-08 0.397332 0.142759 0.00348224 
2063 0.000282743 1 0.694848 0.121177 0.00299472 0 0 0 31.8077 0 6.24586e-15 1.99861 0 0 0.475946 0.142561 0.00348224 
2918 0.000282743 1 0.4216 0.125633 0.00381043 0 0 0 31.831 0 0.0104932 2 0 -0.00277371 0.288782 0.147804 0.00443073 
2312 0.000282743 1 0.844993 0.125933 0.00300278 0 0 0 -1.74266 0 0.00100735 2 0 -0.00277371 0.578791 0.148157 0.00349161 
1860 0.000282743 1 0.179801 0.130739 0.00299472 0 0 0 31.8077 0 1.58542e-06 1.99861 0 4.31344e-08 0.123158 0.153811 0.00348224 
719 0.000282743 1 0.586064 0.130437 0.00299472 0 0 0 31.7128 0.0181812 -9.95209e-12 1.99861 1.19521e-18 1.44055e-11 0.401433 0.153456 0.00348224 
1378 0.000282743 1 0.762218 0.132815 0.0038065 0 0 0 31.831 0 0.0154051 2 0 -0.00277371 0.522093 0.156252 0.00442616 
202 0.000282743 1 0.169636 0.137364 0.00299472 0 0 0 31.8077 0 -2.7261e-07 1.99861 0 1.23916e-06 0.116195 0.161605 0.00348224 
2160 0.000282743 1 0.476145 0.137509 0.00299472 0 0 0 31.7125 -0.116954 -1.14916e-14 1.99861 -1.21376e-21 0 0.326142 0.161775 0.00348224 
1451 0.000282743 1 0.59434 0.139224 0.00299472 0 0 0 31.7607 0.253923 -3.21399e-07 1.99861 -6.04637e-12 4.91703e-08 0.407102 0.163793 0.00348224 
768 0.000282743 1 0.833321 0.136757 0.00299472 0 0 0 31.8077 0 -5.66374e-12 1.99861 0 2.43308e-12 0.570796 0.16089 0.00348224 
2451 0.000282743 1 0.0747133 0.14389 0.00335059 0 0 0 31.831 0 -0.0884636 2 0 -0.00277371 0.051176 0.169282 0.00389603 
1582 0.000282743 1 0.323635 0.143686 0.00299472 0 0 0 31.8077 0 -4.53496e-11 1.99861 0 -3.76533e-11 0.221679 0.169042 0.00348224 
410 0.000282743 1 0.542474 0.144092 0.00301034 0 0 0 31.831 0 -0.0254836 2 0 -0.00277371 0.371576 0.169519 0.00350039 
1246 0.000282743 1 0.132452 0.149053 0.00299472 0 0 0 31.8267 0.0126758 -2.17285e-13 1.99861 -3.0397e-19 -8.95477e-14 0.0907249 0.175357 0.00348224 
2461 0.000282743 1 0.530331 0.148491 0.00299471 0 0 0 31.8076 0 -1.38504e-05 1.99861 0 1.30415e-05 0.363258 0.174695 0.00348223 
2448 0.000282743 1 0.798122 0.149093 0.00299472 0 0 0 31.8077 0 -1.92506e-14 1.99861 0 0 0.546686 0.175404 0.00348224 
233 0.000282743 1 0.851245 0.148914 0.00310117 0 0 0 12.6473 0.00465204 0.0067731 2.22291 0.0161074 -0.0230385 0.583073 0.175193 0.00360601 
2991 0.000282743 1 0.558552 0.153952 0.00299472 0 0 0 31.8077 0 2.6848e-14 1.99861 0 1.21817e-14 0.382589 0.181119 0.00348224 
1051 0.000282743 1 0.806269 0.153803 0.00363716 0 0 0 31.831 0 0.0653232 2 0 -0.00277371 0.552266 0.180945 0.00422925 
1576 0.000282743 1 0.630318 0.15931 0.00299472 0 0 0 31.8077 0 8.46391e-15 1.99861 0 0 0.431745 0.187424 0.00348224 
2643 0.000282743 1 0.647917 0.158048 0.00299472 0 0 0 31.8077 0 -5.74283e-13 1.99861 0 2.22748e-12 0.443801 0.185939 0.00348224 
55 0.000282743 1 0.105379 0.161299 0.00555689 0 0 0 30.4747 0 0.694164 2 0 -0.00277371 0.0721806 0.189764 0.0064615 
1415 0.000282743 1 0.241861 0.161792 0.0029978 0 0 0 31.803 0 0.0023959 1.99993 0 -0.00263331 0.165667 0.190344 0.00348582 
1669 0.000282743 1 0.326519 0.163659 0.00299472 0 0 0 31.8077 0 -1.48173e-14 1.99861 0 0 0.223654 0.19254 0.00348224 
1592 0.000282743 1 0.261632 0.165431 0.00299472 0 0 0 31.8077 0 -1.48159e-14 1.99861 0 0 0.179209 0.194625 0.00348224 
2682 0.000282743 1 0.333346 0.164924 0.00299472 0 0 0 31.8077 0 1.17896e-14 1.99861 0 0 0.228331 0.194028 0.00348224 
2962 0.000282743 1 0.526843 0.168313 0.00299472 0 0 0 31.8077 0 5.13963e-15 1.99861 0 0 0.360869 0.198015 0.00348224 
344 0.000282743 1 0.585255 0.167356 0.0029981 0 0 0 31.8029 0 0.000607711 1.99978 0 -0.00232791 0.400879 0.196889 0.00348616 
989 0.000282743 1 0.169792 0.172032 0.0035062 0 0 0 32.1299 0.184532 -0.0343693 2 0 -0.00277371 0.116302 0.202391 0.00407698 
330 0.000282743 1 0.317079 0.167562 0.00299472 0 0 0 31.968 -0.198191 2.45367e-07 1.99861 -1.78295e-12 -1.84873e-07 0.217188 0.197132 0.00348224 
826 0.000282743 1 0.845443 0.171318 0.0029726 0 0 0 9.96659 1.5528 -1.83815 3.32799 2.81264 -2.94414 0.579099 0.20155 0.00345652 
543 0.000282743 1 0.109814 0.17302 0.00302634 0 0 0 31.831 0 -0.018805 2 0 -0.00277371 0.0752184 0.203553 0.003519 
1293 0.000282743 1 0.374969 0.174331 0.00299472 0 0 0 31.8077 0 1.81113e-15 1.99861 0 0 0.256841 0.205096 0.00348224 
221 0.000282743 1 0.43495 0.172561 0.00299472 0 0 0 31.8077 0 6.24724e-15 1.99861 0 0 0.297926 0.203013 0.00348224 
113 0.000282743 1 0.447088 0.174128 0.00299472 0 0 0 31.8077 0 -3.73119e-15 1.99861 0 0 0.30624 0.204856 0.00348224 
178 0.000282743 1 0.682737 0.174539 0.00326681 0 0 0 31.431 0 0.110006 2 0 -0.00277371 0.467651 0.20534 0.00379862 
2278 0.000282743 1 0.331931 0.179744 0.00299472 0 0 0 31.8077 0 -1.37069e-14 1.99861 0 0 0.227361 0.211463 0.00348224 
2281 0.000282743 1 0.466519 0.179038 0.00304402 0 0 0 31.7486 0 -0.00148129 2 0 -0.00277371 0.319549 0.210633 0.00353956 
418 0.000282743 1 0.734451 0.176458 0.00299472 0 0 0 31.8077 0 2.7489e-12 1.99861 0 1.80152e-11 0.503073 0.207597 0.00348224 
921 0.000282743 1 0.84496 0.178483 0.00356229 0 0 0 -1.13356 0 0.040866 2 0 -0.00277371 0.578768 0.20998 0.0041422 
1998 0.000282743 1 0.176915 0.183085 0.00297933 0 0 0 31.7425 0 0.0462558 1.99929 0 -0.00135133 0.12118 0.215394 0.00346434 
2976 0.000282743 1 0.309445 0.187984 0.00299472 0 0 0 31.8261 -0.00281716 8.4639e-15 1.99861 0 0 0.211959 0.221157 0.00348224 
538 0.000282743 1 0.70546 0.184674 0.00299472 0 0 0 31.759 -0.149661 3.29268e-08 1.99861 -5.43919e-13 1.41438e-08 0.483215 0.217263 0.00348224 
1164 0.000282743 1 0.519824 0.191167 0.00299472 0 0 0 32.072 0.324661 -2.39353e-07 1.99861 -4.66049e-12 9.08734e-08 0.356061 0.224903 0.00348224 
87 0.000282743 1 0.582476 0.189503 0.00299472 0 0 0 31.8077 0 7.35628e-15 1.99861 0 0 0.398976 0.222945 0.00348224 
2327 0.000282743 1 0.628536 0.192086 0.00299775 0 0 0 31.8022 0 -0.00216805 1.99935 0 -0.0014648 0.430525 0.225984 0.00348575 
2888 0.000282743 1 0.284524 0.194411 0.00299474 0 0 0 31.6802 0.0698881 -2.45346e-05 1.99861 -1.49052e-10 -1.4611e-06 0.194889 0.228718 0.00348225 
371 0.000282743 1 0.36784 0.193043 0.00299472 0 0 0 31.8077 0 1.29e-14 1.99861 0 0 0.251957 0.22711 0.00348224 
2202 0.000282743 1 0.163727 0.202405 0.00381027 0 0 0 31.831 0 0.00124949 2 0 -0.00277371 0.112147 0.238123 0.00443055 
2830 0.000282743 1 0.57125 0.204474 0.00299472 0 0 0 31.8077 0 -1.03798e-14 1.99861 0 0 0.391286 0.240558 0.00348224 
961 0.000282743 1 0.846257 0.208214 0.0030022 0 0 0 -5.73751 0 0.00619208 2 0 -0.00277371 0.579656 0.244958 0.00349093 
1172 0.000282743 1 0.124478 0.211557 0.00299472 0 0 0 31.8077 0 1.57551e-06 1.99861 0 7.91868e-08 0.085263 0.24889 0.00348224 
2621 0.000282743 1 0.181222 0.209732 0.00299472 0 0 0 31.8077 0 -7.05689e-15 1.99861 0 0 0.124131 0.246743 0.00348224 
2109 0.000282743 1 0.393381 0.210491 0.00299472 0 0 0 31.8077 0 2.06604e-14 1.99861 0 0 0.269452 0.247637 0.00348224 
1885 0.000282743 1 0.41321 0.209041 0.00650777 0 0 0 31.831 0 0.676892 2 0 -0.00277371 0.283034 0.245931 0.00756717 
1957 0.000282743 1 0.847692 0.213694 0.00781636 0 0 0 1.2119 0 2.00177 -3.5013 0 -0.089641 0.58064 0.251405 0.0090888 
2297 0.000282743 1 0.115251 0.216762 0.00299472 0 0 0 31.8383 -0.0188337 -6.56829e-08 1.99861 -1.84095e-14 1.03869e-07 0.0789427 0.255014 0.00348224 
2132 0.000282743 1 0.544446 0.218281 0.00299472 0 0 0 31.8077 0 -8.16593e-15 1.99861 0 0 0.372927 0.256801 0.00348224 
1444 0.000282743 1 0.787207 0.218083 0.00369428 0 0 0 31.831 0 0.054854 2 0 -0.00277371 0.539209 0.256568 0.00429567 
145 0.000282743 1 0.0768882 0.221479 0.00299472 0 0 0 31.8477 0.019198 1.13477e-06 1.99861 1.75352e-12 -5.70529e-08 0.0526658 0.260564 0.00348224 
2512 0.000282743 1 0.76899 0.221126 0.00303129 0 0 0 31.9835 -0.3782 0.0350219 2 0 -0.00277371 0.526731 0.260148 0.00352475 
254 0.000282743 1 0.467715 0.224668 0.0029449 0 0 0 41.2219 0.188907 -0.690973 1.75922 -0.00301527 0.478829 0.320369 0.264315 0.0034243 
2849 0.000282743 1 0.612115 0.227689 0.00299472 0 0 0 31.8077 0 2.41691e-12 1.99861 0 -6.16128e-13 0.419277 0.267869 0.00348224 
296 0.000282743 1 0.639657 0.223623 0.00324729 0 0 0 31.4689 -0.409167 0.00401569 2 0 -0.00277371 0.438143 0.263086 0.00377592 
256 0.000282743 1 0.746743 0.227282 0.00299472 0 0 0 31.8077 0 1.4009e-14 1.99861 0 0 0.511493 0.26739 0.00348224 
2268 0.000282743 1 0.782044 0.228448 0.00299472 0 0 0 31.8077 0 1.64019e-12 1.99861 0 -8.41877e-13 0.535673 0.268762 0.00348224 
757 0.000282743 1 0.723913 0.241463 0.00331874 0 0 0 31.9478 0.417477 0.0584386 2 0 -0.00277371 0.495855 0.284074 0.00385901 
887 0.000282743 1 0.846757 0.241219 0.00298547 0 0 0 1.67029 0.681155 0.0151532 1.9969 -0.00123821 0.00391052 0.579999 0.283787 0.00347148 
2986 0.000282743 1 0.746675 0.241901 0.00299472 0 0 0 31.81 -0.198296 1.25827e-09 1.99861 -1.38002e-14 -5.7178e-10 0.511446 0.28459 0.00348224 
188 0.000282743 1 0.849323 0.250639 0.00274845 0 0 0 -3.71935 1.04803 -0.229643 -7.02374 0.505842 0.00307919 0.581757 0.294869 0.00319587 
2563 0.000282743 1 0.761288 0.250298 0.0030488 0 0 0 32.1225 0.0378063 -0.101115 2 0 -0.00277371 0.521456 0.294468 0.00354512 
1096 0.000282743 1 0.845321 0.249317 0.00283707 0 0 0 -5.60435 -3.31655 0.305215 -7.51133 -1.77969 0.633707 0.579016 0.293314 0.00329892 
399 0.000282743 1 0.740575 0.253177 0.00299472 0 0 0 31.8077 0 -7.05548e-15 1.99861 0 0 0.507268 0.297855 0.00348224 
253 0.000282743 1 0.34023 0.260054 0.00299472 0 0 0 31.8077 0 1.73319e-14 1.99861 0 0 0.233046 0.305946 0.00348224 
185 0.000282743 1 0.497313 0.259601 0.00299472 0 0 0 31.8077 0 -1.725e-14 1.99861 0 -2.77122e-16 0.340642 0.305413 0.00348224 
211 0.000282743 1 0.581469 0.256715 0.00299472 0 0 0 31.8077 0 -1.03812e-14 1.99861 0 0 0.398286 0.302018 0.00348224 
2020 0.000282743 1 0.785034 0.258997 0.00373179 0 0 0 31.831 0 -0.0315542 2 0 -0.00277371 0.537721 0.304702 0.00433929 
2140 0.000282743 1 0.63862 0.262863 0.0030386 0 0 0 31.8809 -0.170581 -0.0321384 2 0 -0.00277371 0.437432 0.30925 0.00353326 
1897 0.000282743 1 0.653069 0.261596 0.00299471 0 0 0 32.2071 -0.41974 -0.00016892 1.99858 4.86112e-09 6.07467e-05 0.447329 0.30776 0.00348223 
1100 0.000282743 1 0.848332 0.263397 0.00297926 0 0 0 11.0772 -8.5745 0.086243 -26.4591 -10.1411 0.190767 0.581078 0.309879 0.00346426 
2290 0.000282743 1 0.67769 0.266667 0.00299472 0 0 0 31.9789 0.193438 -1.01252e-07 1.99861 1.53946e-12 2.63715e-07 0.464194 0.313726 0.00348224 
1831 0.000282743 1 0.848425 0.267417 0.00293669 0 0 0 -1.31549 2.16588 -0.103887 -5.62056 0.427444 0.076615 0.581141 0.314608 0.00341476 
1816 0.000282743 1 0.385449 0.27068 0.00373662 0 0 0 31.831 0 0.0448188 2 0 -0.00277371 0.264019 0.318447 0.00434491 
2558 0.000282743 1 0.625525 0.268626 0.00317962 0 0 0 31.4842 -0.229306 0.0794013 2 0 -0.00277371 0.428463 0.316031 0.00369723 
2901 0.000282743 1 0.129695 0.273057 0.00370061 0 0 0 31.831 0 0.0537563 2 0 -0.00277371 0.0888366 0.321243 0.00430303 
823 0.000282743 1 0.606908 0.273054 0.00299472 0 0 0 31.8077 0 1.97068e-10 1.99861 0 -5.19057e-11 0.415711 0.32124 0.00348224 
1670 0.000282743 1 0.192957 0.28049 0.00301425 0 0 0 31.7373 0 0.0248906 2 0 -0.00277371 0.132169 0.329989 0.00350494 
2522 0.000282743 1 0.369514 0.277552 0.00299472 0 0 0 31.8077 0 -7.05688e-15 1.99861 0 0 0.253104 0.326531 0.00348224 
63 0.000282743 1 0.415182 0.281348 0.00299472 0 0 0 31.8077 0 -1.20424e-14 1.99861 0 -2.23606e-15 0.284385 0.330997 0.00348224 
1438 0.000282743 1 0.847367 0.280703 0.00317787 0 0 0 -0.78695 0.338433 0.188573 1.10997 -0.273053 0.00559421 0.580417 0.330239 0.00369519 
1887 0.000282743 1 0.097546 0.286407 0.00299402 0 0 0 31.7894 0 -0.00169223 1.99806 0 0.00111618 0.0668156 0.336949 0.00348142 
526 0.000282743 1 0.14348 0.286936 0.00510052 0 0 0 31.8456 -0.212308 0.446022 2 0 -0.00277371 0.0982787 0.337572 0.00593083 
2585 0.000282743 1 0.168677 0.286292 0.00317468 0 0 0 31.681 -0.206282 -0.0215771 2 0 -0.00277371 0.115538 0.336814 0.00369149 
1911 0.000282743 1 0.200799 0.285594 0.00299472 0 0 0 31.8077 0 1.51167e-14 1.99861 0 0 0.13754 0.335993 0.00348224 
706 0.000282743 1 0.229424 0.286103 0.00299472 0 0 0 31.8077 0 -3.561e-08 1.99861 0 1.70665e-08 0.157147 0.336592 0.00348224 
2507 0.000282743 1 0.416599 0.288627 0.00299472 0 0 0 31.8077 0 -1.37083e-14 1.99861 0 0 0.285356 0.339562 0.00348224 
2737 0.000282743 1 0.84642 0.286963 0.00356836 0 0 0 -5.72782 0.601876 0.418669 1.9074 -0.125051 0.00225934 0.579768 0.337603 0.00414925 
987 0.000282743 1 0.088761 0.291819 0.00298422 0 0 0 31.7425 0 0.0444857 1.99813 0 -0.00652238 0.0607982 0.343316 0.00347003 
1265 0.000282743 1 0.256815 0.287914 0.00299483 0 0 0 30.9243 -0.38328 -0.00026028 1.99861 8.13541e-09 -7.84584e-07 0.175909 0.338723 0.00348236 
1696 0.000282743 1 0.847502 0.292491 0.00257504 0 0 0 -3.93621 1.19489 -1.5249 4.36884 -0.513795 1.24069 0.580509 0.344107 0.00299424 
2206 0.000282743 1 0.364913 0.295682 0.00299472 0 0 0 31.7555 -0.133467 -1.29899e-08 1.99861 2.0627e-13 -7.3737e-09 0.249953 0.347861 0.00348224 
2838 0.000282743 1 0.754839 0.296926 0.00299472 0 0 0 31.8077 0 1.4456e-05 1.99861 0 -3.39846e-07 0.517039 0.349325 0.00348223 
818 0.000282743 1 0.115835 0.301929 0.00299472 0 0 0 31.8077 0 5.13823e-15 1.99861 0 0 0.0793429 0.35521 0.00348224 
2407 0.000282743 1 0.240854 0.304103 0.00299472 0 0 0 31.8077 0 -1.51454e-15 1.99861 0 0 0.164977 0.357769 0.00348224 
1751 0.000282743 1 0.725135 0.304385 0.00299472 0 0 0 31.9244 -0.0736444 1.73319e-14 1.99861 -1.21376e-21 0 0.496692 0.3581 0.00348224 
1687 0.000282743 1 0.847164 0.300901 0.00319865 0 0 0 1.63248 -1.21352 0.57028 0.336702 -0.224191 -1.51511 0.580277 0.354001 0.00371936 
2457 0.000282743 1 0.436981 0.305371 0.00299472 0 0 0 31.8077 0 1.91255e-08 1.99861 0 1.44358e-09 0.299317 0.359261 0.00348224 
2082 0.000282743 1 0.449625 0.30527 0.00299472 0 0 0 31.8077 0 5.81668e-08 1.99861 0 -5.29516e-08 0.307977 0.359142 0.00348224 
1274 0.000282743 1 0.778187 0.305677 0.00342371 0 0 0 31.7083 0 0.0942928 2 0 -0.00277371 0.533031 0.359621 0.00398105 
2380 0.000282743 1 0.525942 0.312551 0.00299472 0 0 0 31.8077 0 7.0632e-16 1.99861 0 0 0.360252 0.367707 0.00348224 
468 0.000282743 1 0.798338 0.310431 0.00377024 0 0 0 31.831 0 -0.0228933 2 0 -0.00277371 0.546834 0.365213 0.004384 
2146 0.000282743 1 0.573486 0.315994 0.0034338 0 0 0 31.831 0 -0.0799109 2 0 -0.00277371 0.392818 0.371757 0.00399279 
1032 0.000282743 1 0.853143 0.318525 0.00315964 0 0 0 10.0912 -0.0819054 0.0328329 2 0 -0.00277371 0.584373 0.374736 0.003674 
1872 0.000282743 1 0.196084 0.324067 0.00315457 0 0 0 32.1054 0.396509 0.0175334 2 0 -0.00277371 0.134311 0.381255 0.0036681 
1798 0.000282743 1 0.576162 0.324741 0.00299472 0 0 0 31.8077 0 -4.65409e-12 1.99861 0 2.57522e-12 0.394651 0.382048 0.00348224 
2022 0.000282743 1 0.165808 0.327677 0.00380144 0 0 0 31.831 0 -0.0091351 2 0 -0.00277371 0.113573 0.385502 0.00442028 
677 0.000282743 1 0.180121 0.32702 0.00351868 0 0 0 31.831 0 0.0822274 2 0 -0.00277371 0.123376 0.384729 0.00409149 
401 0.000282743 1 0.750648 0.326817 0.00340808 0 0 0 31.831 0 -0.082893 2 0 -0.00277371 0.514168 0.38449 0.00396288 
1709 0.000282743 1 0.821474 0.327373 0.00296327 0 0 0 31.7556 0 0.0238426 1.98033 0 0.0365688 0.562681 0.385144 0.00344566 
1869 0.000282743 1 0.843483 0.328071 0.00297272 0 0 0 31.9462 -0.0917281 -0.0100678 1.9812 1.56442e-07 0.0348171 0.577756 0.385966 0.00345665 
2007 0.000282743 1 0.581422 0.332481 0.00297591 0 0 0 31.743 0 0.0459587 1.99681 0 0.00360124 0.398254 0.391154 0.00346036 
889 0.000282743 1 0.827602 0.331912 0.00299473 0 0 0 31.8631 -0.113567 -8.62471e-08 1.99861 6.75733e-12 -8.39599e-07 0.566878 0.390485 0.00348224 
1352 0.000282743 1 0.834146 0.329447 0.003794 0 0 0 31.831 0 0.0237937 2 0 -0.00277371 0.571361 0.387585 0.00441163 
1496 0.000282743 1 0.852048 0.329645 0.00299845 0 0 0 12.0821 0 0.00348837 -5.04072 0 -0.0158459 0.583623 0.387817 0.00348657 
1236 0.000282743 1 0.102807 0.333239 0.00299508 0 0 0 31.8114 0 8.90471e-05 1.99877 0 -0.000305333 0.0704189 0.392045 0.00348265 
2590 0.000282743 1 0.678186 0.334024 0.00299472 0 0 0 31.5821 0.142456 1.74036e-14 1.99861 2.42752e-21 -2.25514e-17 0.464534 0.392969 0.00348224 
2583 0.000282743 1 0.676098 0.343757 0.00299472 0 0 0 31.8077 0 7.77713e-09 1.99861 0 -5.92503e-09 0.463104 0.40442 0.00348224 
1892 0.000282743 1 0.398497 0.348409 0.00299472 0 0 0 31.8077 0 -1.37069e-14 1.99861 0 0 0.272956 0.409893 0.00348224 
2074 0.000282743 1 0.455388 0.349707 0.00310617 0 0 0 31.5509 0.335018 -0.0731785 2 0 -0.00277371 0.311925 0.41142 0.00361182 
95 0.000282743 1 0.72212 0.347146 0.00299473 0 0 0 31.8076 0 -4.13528e-05 1.99861 0 5.72505e-06 0.494627 0.408407 0.00348225 
1785 0.000282743 1 0.425302 0.355491 0.00299472 0 0 0 31.8077 0 4.71101e-08 1.99861 0 -5.22524e-08 0.291317 0.418224 0.00348224 
551 0.000282743 1 0.803224 0.356644 0.00299472 0 0 0 31.6846 0.095599 4.64775e-11 1.99861 -1.6909e-15 3.78042e-12 0.550181 0.419581 0.00348224 
130 0.000282743 1 0.179916 0.363226 0.00299472 0 0 0 31.8077 0 8.4639e-15 1.99861 0 0 0.123236 0.427324 0.00348224 
1601 0.000282743 1 0.411301 0.36302 0.00363701 0 0 0 31.7966 0.0343134 -0.0829652 2 0 -0.00277371 0.281727 0.427082 0.00422908 
1535 0.000282743 1 0.569337 0.361707 0.00299472 0 0 0 31.8077 0 -7.05549e-15 1.99861 0 0 0.389976 0.425537 0.00348224 
1273 0.000282743 1 0.816746 0.362216 0.00299472 0 0 0 31.8077 0 1.10645e-14 1.99861 0 -9.40437e-15 0.559442 0.426136 0.00348224 
2253 0.000282743 1 0.505816 0.366363 0.00299472 0 0 0 31.8077 0 -9.32619e-14 1.99861 0 1.74574e-14 0.346466 0.431015 0.00348224 
2998 0.000282743 1 0.479872 0.371522 0.00299472 0 0 0 31.8077 0 1.88882e-08 1.99861 0 -1.83622e-09 0.328696 0.437085 0.00348224 
1754 0.000282743 1 0.266171 0.373974 0.0050621 0 0 0 31.6787 -0.0341775 0.418683 2 0 -0.00277371 0.182318 0.43997 0.00588616 
2273 0.000282743 1 0.344789 0.374454 0.00299472 0 0 0 31.8077 0 -1.25978e-14 1.99861 0 0 0.236168 0.440534 0.00348224 
1390 0.000282743 1 0.530497 0.378701 0.00299472 0 0 0 31.8077 0 1.17896e-14 1.99861 0 0 0.363372 0.445531 0.00348224 
1874 0.000282743 1 0.748168 0.377688 0.00299472 0 0 0 31.8077 0 1.06834e-14 1.99861 0 0 0.512469 0.444339 0.00348224 
1065 0.000282743 1 0.82757 0.379159 0.00299472 0 0 0 31.8077 0 1.46634e-10 1.99861 0 1.07299e-10 0.566856 0.446069 0.00348224 
1818 0.000282743 1 0.847493 0.368681 0.00302898 0 0 0 -0.071886 -10.0977 0.0210113 -0.444539 -0.010379 -0.0018694 0.580503 0.433742 0.00352208 
161 0.000282743 1 0.127116 0.381082 0.00299463 0 0 0 31.8074 0 0.000103433 1.99859 0 4.35981e-05 0.0870703 0.448331 0.00348213 
2855 0.000282743 1 0.609297 0.382036 0.00301057 0 0 0 31.8923 -0.0717648 -0.119882 2 0 -0.00277371 0.417347 0.449454 0.00350067 
2064 0.000282743 1 0.637517 0.383106 0.00362803 0 0 0 31.831 0 -0.0545616 2 0 -0.00277371 0.436677 0.450713 0.00421864 
2148 0.000282743 1 0.844387 0.382783 0.00299694 0 0 0 11.8054 2.05281 0.01903 -10.3548 4.32706 0.0189355 0.578376 0.450332 0.00348481 
1280 0.000282743 1 0.847709 0.381413 0.00299023 0 0 0 17.5997 -2.71995 -0.0158314 -8.62565 2.03749 -0.0105314 0.580651 0.448722 0.00347702 
417 0.000282743 1 0.605899 0.38738 0.0029947 0 0 0 31.8789 -0.0242255 -6.93671e-05 1.99859 1.19346e-09 4.50841e-05 0.415019 0.455742 0.0034822 
2655 0.000282743 1 0.696027 0.387301 0.00299472 0 0 0 31.8077 0 1.49918e-14 1.99861 0 -1.06226e-14 0.476754 0.455648 0.00348224 
2944 0.000282743 1 0.770881 0.386798 0.00380223 0 0 0 31.831 0 0.0196216 2 0 -0.00277371 0.528027 0.455057 0.00442119 
800 0.000282743 1 0.788831 0.388414 0.00299472 0 0 0 31.8077 0 1.85621e-09 1.99861 0 -4.3589e-10 0.540321 0.456958 0.00348224 
354 0.000282743 1 0.400118 0.389325 0.00299473 0 0 0 31.8077 0 -1.68222e-06 1.99861 0 -2.86272e-06 0.274067 0.458029 0.00348224 
2735 0.000282743 1 0.847423 0.391249 0.00376584 0 0 0 0.0065915 0 0.0102175 0.00158124 0 -0.0018973 0.580455 0.460292 0.00437888 