ITEM: TIMESTEP
25200
ITEM: NUMBER OF ATOMS
3000
ITEM: BOX BOUNDS mm mm mm
0 0.946413
0 0.85
0 0.86
ITEM: ATOMS id mass type x y z ix iy iz vx vy vz fx fy fz xs ys zs 
2788 0.000282743 1 0.18897 0.00364332 0.00299472 0 0 0 14.1361 0 5.13963e-15 1.99861 0 0 0.19967 0.00428626 0.00348224 
1319 0.000282743 1 0.500608 0.00389763 0.00299472 0 0 0 14.1361 0 -1.59136e-14 1.99861 0 -3.46945e-18 0.528953 0.00458545 0.00348224 
24 0.000282743 1 0.286641 0.00725002 0.00522197 0 0 0 14.1471 0 0.69386 2 0 -0.00277371 0.302871 0.00852944 0.00607206 
315 0.000282743 1 0.45585 0.0078913 0.00299472 0 0 0 14.1361 0 1.17896e-14 1.99861 0 0 0.481661 0.00928389 0.00348224 
926 0.000282743 1 0.847214 0.00637354 0.00299721 0 0 0 0.570629 0 8.47336e-05 0.850673 0 0.000403135 0.895184 0.00749829 0.00348512 
610 0.000282743 1 0.0918298 0.013257 0.00379788 0 0 0 14.1471 0 0.0079216 2 0 -0.00277371 0.0970293 0.0155965 0.00441613 
626 0.000282743 1 0.156704 0.0136063 0.00299472 0 0 0 14.1361 0 7.35628e-15 1.99861 0 0 0.165577 0.0160075 0.00348224 
229 0.000282743 1 0.364576 0.0159379 0.00350379 0 0 0 14.1471 0 0.0820304 2 0 -0.00277371 0.385219 0.0187505 0.00407417 
1485 0.000282743 1 0.533279 0.0121932 0.00299472 0 0 0 14.1361 0 -3.56668e-07 1.99861 0 1.44499e-07 0.563474 0.0143449 0.00348224 
281 0.000282743 1 0.606309 0.0121888 0.00299472 0 0 0 14.1361 0 -7.0555e-15 1.99861 0 0 0.640638 0.0143397 0.00348224 
1922 0.000282743 1 0.638848 0.0120531 0.00299472 0 0 0 14.1342 0.0118845 -1.62425e-13 1.99861 7.61474e-19 -4.83508e-13 0.67502 0.0141801 0.00348224 
2338 0.000282743 1 0.187972 0.0166446 0.00303709 0 0 0 14.1471 0 -0.0104959 2 0 -0.00277371 0.198615 0.0195819 0.0035315 
2752 0.000282743 1 0.306859 0.0171987 0.00299472 0 0 0 14.1361 0 -1.66567e-14 1.99861 0 -1.1666e-16 0.324234 0.0202338 0.00348224 
662 0.000282743 1 0.100264 0.0227621 0.00299472 0 0 0 14.1361 0 -1.00474e-13 1.99861 0 -7.81883e-15 0.105941 0.026779 0.00348224 
136 0.000282743 1 0.771041 0.0228154 0.00377802 0 0 0 14.1471 0 -0.0139255 2 0 -0.00277371 0.814698 0.0268417 0.00439305 
312 0.000282743 1 0.787719 0.0237223 0.00299472 0 0 0 14.1361 0 -1.03798e-14 1.99861 0 0 0.83232 0.0279086 0.00348224 
2385 0.000282743 1 0.0403339 0.0271591 0.00299472 0 0 0 14.1361 0 -4.84163e-15 1.99861 0 0 0.0426177 0.0319519 0.00348224 
356 0.000282743 1 0.697355 0.0274179 0.00376435 0 0 0 14.1471 0 0.0317055 2 0 -0.00277371 0.73684 0.0322564 0.00437715 
2171 0.000282743 1 0.70766 0.0307014 0.00299472 0 0 0 14.1361 0 -9.27214e-15 1.99861 0 0 0.747729 0.0361193 0.00348224 
2212 0.000282743 1 0.819918 0.0291994 0.00419864 0 0 0 13.9344 0 0.712001 2 0 -0.00277371 0.866342 0.0343523 0.00488214 
2165 0.000282743 1 0.693196 0.0336834 0.00299472 0 0 0 14.1361 0 4.02921e-15 1.99861 0 0 0.732446 0.0396276 0.00348224 
1995 0.000282743 1 0.837019 0.0358753 0.0036906 0 0 0 12.2144 0 0.715563 2 0 -0.00277371 0.884412 0.0422062 0.00429139 
284 0.000282743 1 0.417327 0.0405785 0.00486345 0 0 0 14.1471 0 0.694217 2 0 -0.00277371 0.440956 0.0477394 0.00565518 
153 0.000282743 1 0.714135 0.0455722 0.00299472 0 0 0 14.1361 0 1.54081e-06 1.99861 0 1.08445e-07 0.75457 0.0536144 0.00348224 
2946 0.000282743 1 0.0587949 0.0503255 0.00299472 0 0 0 14.1361 0 3.87411e-11 1.99861 0 -6.51228e-11 0.0621239 0.0592065 0.00348224 
2245 0.000282743 1 0.159994 0.0511328 0.00299472 0 0 0 14.1361 0 -4.02713e-16 1.99861 0 0 0.169053 0.0601563 0.00348224 
338 0.000282743 1 0.322084 0.0513337 0.00299472 0 0 0 14.1361 0 -1.51454e-15 1.99861 0 0 0.340321 0.0603925 0.00348224 
1949 0.000282743 1 0.564789 0.0494126 0.00299472 0 0 0 14.1361 0 1.4009e-14 1.99861 0 0 0.596768 0.0581325 0.00348224 
1304 0.000282743 1 0.180691 0.0557894 0.00338579 0 0 0 14.1471 0 -0.0841735 2 0 -0.00277371 0.190922 0.0656346 0.00393696 
954 0.000282743 1 0.750549 0.0549755 0.00299472 0 0 0 14.1361 0 2.0659e-14 1.99861 0 0 0.793045 0.064677 0.00348224 
2678 0.000282743 1 0.207698 0.0574585 0.00347697 0 0 0 14.1471 0 -0.0724339 2 0 -0.00277371 0.219458 0.0675982 0.00404299 
2170 0.000282743 1 0.346967 0.0584649 0.00299472 0 0 0 14.1361 0 1.28986e-14 1.99861 0 0 0.366613 0.0687823 0.00348224 
1124 0.000282743 1 0.404672 0.0586676 0.00299472 0 0 0 14.1361 0 1.51167e-14 1.99861 0 0 0.427585 0.0690207 0.00348224 
849 0.000282743 1 0.442906 0.0567479 0.00299472 0 0 0 14.1361 0 8.43658e-15 1.99861 0 2.0988e-14 0.467984 0.0667623 0.00348224 
2717 0.000282743 1 0.52749 0.0597026 0.00299472 0 0 0 14.1297 -0.00913781 6.24725e-15 1.99861 1.70963e-22 0 0.557356 0.0702384 0.00348224 
2515 0.000282743 1 0.51371 0.0626138 0.00299472 0 0 0 14.1361 0 -1.03798e-14 1.99861 0 0 0.542797 0.0736633 0.00348224 
2174 0.000282743 1 0.730673 0.0611444 0.00299472 0 0 0 14.1361 0 2.0659e-14 1.99861 0 0 0.772045 0.0719345 0.00348224 
795 0.000282743 1 0.638509 0.0678048 0.00378676 0 0 0 14.1586 -0.0163322 0.0214152 2 0 -0.00277371 0.674662 0.0797704 0.00440321 
1156 0.000282743 1 0.645102 0.064281 0.00299472 0 0 0 14.1361 0 1.51153e-14 1.99861 0 0 0.681628 0.0756247 0.00348224 
2920 0.000282743 1 0.713074 0.0670631 0.00299472 0 0 0 14.1361 0 9.57294e-15 1.99861 0 0 0.753449 0.0788978 0.00348224 
1678 0.000282743 1 0.399767 0.0721212 0.00299472 0 0 0 14.1361 0 -2.61937e-15 1.99861 0 0 0.422402 0.0848485 0.00348224 
1599 0.000282743 1 0.602873 0.0709061 0.00299472 0 0 0 14.1361 0 1.0682e-14 1.99861 0 0 0.637008 0.083419 0.00348224 
367 0.000282743 1 0.218154 0.0743494 0.00299415 0 0 0 14.134 0 0.00113611 1.99856 0 0.000109142 0.230506 0.0874699 0.00348157 
2586 0.000282743 1 0.264633 0.0759655 0.00299472 0 0 0 14.1361 0 -1.14902e-14 1.99861 0 0 0.279617 0.0893711 0.00348224 
2800 0.000282743 1 0.150285 0.0791022 0.00299472 0 0 0 14.1361 0 -5.22939e-11 1.99861 0 -3.18565e-11 0.158795 0.0930614 0.00348224 
1017 0.000282743 1 0.210772 0.0776333 0.00299472 0 0 0 14.1361 0 7.35628e-15 1.99861 0 0 0.222706 0.0913333 0.00348224 
1814 0.000282743 1 0.430061 0.0771766 0.00299472 0 0 0 14.1361 0 -7.05549e-15 1.99861 0 0 0.454412 0.090796 0.00348224 
2129 0.000282743 1 0.573793 0.0775321 0.00299472 0 0 0 14.1361 0 7.35628e-15 1.99861 0 0 0.606282 0.0912142 0.00348224 
2636 0.000282743 1 0.613405 0.0790148 0.00515827 0 0 0 14.1471 0 0.688702 2 0 -0.00277371 0.648137 0.0929586 0.00599799 
2996 0.000282743 1 0.254919 0.0806714 0.00298836 0 0 0 14.122 0 0.00910081 1.99716 0 0.00291232 0.269352 0.0949075 0.00347484 
1806 0.000282743 1 0.260297 0.0875507 0.00369459 0 0 0 14.1471 0 0.050365 2 0 -0.00277371 0.275035 0.103001 0.00429604 
2606 0.000282743 1 0.439823 0.0844638 0.00299473 0 0 0 14.1361 0 -3.97293e-06 1.99861 0 -1.35869e-06 0.464726 0.0993692 0.00348224 
2881 0.000282743 1 0.545526 0.0859349 0.00311611 0 0 0 13.6636 -0.0531234 0.241838 2 0 -0.00277371 0.576415 0.1011 0.00362339 
876 0.000282743 1 0.597373 0.0863357 0.00299275 0 0 0 14.1427 0 -0.02283 1.99392 0 0.00937847 0.631197 0.101571 0.00347994 
501 0.000282743 1 0.580994 0.0888646 0.00299472 0 0 0 14.1368 -0.0928269 1.2044e-12 1.99861 -2.33299e-18 -5.95251e-13 0.61389 0.104547 0.00348224 
1113 0.000282743 1 0.799473 0.0889832 0.00301043 0 0 0 13.9809 -0.0211443 -0.0785462 2 0 -0.00277371 0.84474 0.104686 0.0035005 
2182 0.000282743 1 0.809254 0.0886945 0.00299472 0 0 0 14.1042 -0.0474681 -2.42887e-10 1.99861 4.73367e-16 1.61276e-10 0.855075 0.104346 0.00348224 
2062 0.000282743 1 0.0852093 0.0928605 0.00368619 0 0 0 14.1471 0 -0.0400509 2 0 -0.00277371 0.090034 0.109248 0.00428627 
1907 0.000282743 1 0.821021 0.0975027 0.00299472 0 0 0 14.1756 0.0259884 -8.16592e-15 1.99861 1.71364e-288 0 0.867508 0.114709 0.00348224 
2548 0.000282743 1 0.172691 0.103172 0.00299472 0 0 0 14.1361 0 4.02921e-15 1.99861 0 0 0.182469 0.121379 0.00348224 
1743 0.000282743 1 0.583357 0.101363 0.00299472 0 0 0 14.1667 0.00182936 -8.16732e-15 1.99861 2.13704e-23 0 0.616388 0.11925 0.00348224 
676 0.000282743 1 0.676049 0.101408 0.00312203 0 0 0 13.8457 0 0.121754 2 0 -0.00277371 0.714328 0.119304 0.00363027 
1973 0.000282743 1 0.737706 0.102872 0.00299472 0 0 0 14.1361 0 -5.15922e-12 1.99861 0 -3.8821e-12 0.779475 0.121026 0.00348224 
1747 0.000282743 1 0.156305 0.104694 0.00299473 0 0 0 14.1361 0 9.30288e-07 1.99862 0 -3.72439e-06 0.165155 0.123169 0.00348224 
1183 0.000282743 1 0.652539 0.107623 0.00299472 0 0 0 14.1361 0 1.80974e-15 1.99861 0 0 0.689486 0.126615 0.00348224 
1692 0.000282743 1 0.66565 0.105908 0.00333571 0 0 0 14.1471 0 -0.0881451 2 0 -0.00277371 0.703339 0.124598 0.00387873 
1735 0.000282743 1 0.753637 0.105958 0.00299472 0 0 0 14.1361 0 1.7048e-07 1.99861 0 -8.60046e-09 0.796308 0.124656 0.00348224 
886 0.000282743 1 0.669026 0.112226 0.00299472 0 0 0 14.1361 0 2.92157e-15 1.99861 0 0 0.706907 0.132031 0.00348224 
220 0.000282743 1 0.765522 0.108588 0.00299472 0 0 0 14.1361 0 1.50379e-06 1.99861 0 2.12772e-07 0.808866 0.12775 0.00348224 
2801 0.000282743 1 0.120954 0.115869 0.00299472 0 0 0 14.1361 0 2.56655e-13 1.99861 0 -6.80536e-14 0.127803 0.136317 0.00348224 
1801 0.000282743 1 0.359715 0.113038 0.00299472 0 0 0 14.1361 0 1.82392e-08 1.99861 0 2.5543e-09 0.380082 0.132986 0.00348224 
140 0.000282743 1 0.483672 0.114857 0.00299472 0 0 0 14.1361 0 -7.05549e-15 1.99861 0 0 0.511058 0.135126 0.00348224 
1963 0.000282743 1 0.616383 0.112534 0.00297135 0 0 0 14.2101 0.0809371 -0.241489 2.1891 0.227589 -0.250522 0.651283 0.132393 0.00345506 
2449 0.000282743 1 0.699383 0.112484 0.00343296 0 0 0 14.1471 0 0.0910439 2 0 -0.00277371 0.738983 0.132334 0.00399181 
934 0.000282743 1 0.815489 0.114351 0.00299472 0 0 0 14.1361 0 -4.02724e-16 1.99861 0 0 0.861663 0.13453 0.00348224 
392 0.000282743 1 0.201115 0.116778 0.00299472 0 0 0 14.1361 0 8.4639e-15 1.99861 0 0 0.212502 0.137385 0.00348224 
1400 0.000282743 1 0.291655 0.118653 0.0036046 0 0 0 14.1471 0 -0.0542874 2 0 -0.00277371 0.308168 0.139592 0.00419139 
2620 0.000282743 1 0.248149 0.122546 0.00299472 0 0 0 14.1361 0 4.77658e-09 1.99861 0 -5.64269e-09 0.262199 0.144171 0.00348224 
2955 0.000282743 1 0.342925 0.121181 0.00299473 0 0 0 14.1361 0 -3.92199e-07 1.99861 0 -1.85024e-07 0.362341 0.142565 0.00348224 
2869 0.000282743 1 0.523225 0.121405 0.00299472 0 0 0 13.9049 -0.0239456 -2.93038e-07 1.99861 -1.66636e-13 3.5067e-08 0.55285 0.142829 0.00348224 
2063 0.000282743 1 0.637418 0.121177 0.00299472 0 0 0 14.1361 0 6.24586e-15 1.99861 0 0 0.673509 0.142561 0.00348224 
2918 0.000282743 1 0.364128 0.125633 0.00375354 0 0 0 14.1471 0 0.0350182 2 0 -0.00277371 0.384745 0.147804 0.00436458 
2312 0.000282743 1 0.821154 0.125933 0.00299472 0 0 0 14.1361 0 -1.48153e-14 1.99861 0 -4.33681e-19 0.867649 0.148157 0.00348224 
1860 0.000282743 1 0.122371 0.130739 0.00299473 0 0 0 14.1361 0 -2.43667e-06 1.99861 0 -2.43697e-06 0.1293 0.153811 0.00348224 
719 0.000282743 1 0.528871 0.130392 0.00299472 0 0 0 14.0412 0.0181812 1.09323e-10 1.99861 8.86616e-18 -3.89889e-11 0.558816 0.153402 0.00348224 
1378 0.000282743 1 0.704745 0.132815 0.00373733 0 0 0 14.1471 0 0.0399301 2 0 -0.00277371 0.744649 0.156252 0.00434573 
202 0.000282743 1 0.112206 0.137364 0.00299473 0 0 0 14.1361 0 8.40292e-06 1.99862 0 -4.1915e-06 0.11856 0.161605 0.00348224 
2160 0.000282743 1 0.418953 0.137801 0.00299472 0 0 0 14.0409 -0.116954 -1.14916e-14 1.99861 -2.73542e-21 0 0.442674 0.162119 0.00348224 
1451 0.000282743 1 0.537028 0.138589 0.00299472 0 0 0 14.0891 0.253923 8.65025e-07 1.99861 -1.6808e-11 2.7986e-07 0.567435 0.163046 0.00348224 
768 0.000282743 1 0.775891 0.136757 0.00299472 0 0 0 14.1361 0 2.52784e-11 1.99861 0 -8.60158e-13 0.819823 0.16089 0.00348224 
2451 0.000282743 1 0.0172407 0.14389 0.00354109 0 0 0 14.1471 0 -0.0639386 2 0 -0.00277371 0.0182169 0.169282 0.00411755 
1582 0.000282743 1 0.266205 0.143686 0.00299472 0 0 0 14.1361 0 -1.63624e-10 1.99861 0 2.04428e-10 0.281278 0.169042 0.00348224 
410 0.000282743 1 0.485001 0.144092 0.00304339 0 0 0 14.1471 0 -0.000958571 2 0 -0.00277371 0.512462 0.169519 0.00353883 
1246 0.000282743 1 0.0749746 0.149021 0.00299472 0 0 0 14.1551 0.0126758 -2.0399e-13 1.99861 -8.79088e-19 6.45079e-13 0.0792197 0.175319 0.00348224 
2461 0.000282743 1 0.472902 0.148491 0.00299472 0 0 0 14.1359 0 0.000107056 1.99863 0 -2.8395e-05 0.499678 0.174695 0.00348223 
2448 0.000282743 1 0.740692 0.149093 0.00299472 0 0 0 14.1361 0 -1.92506e-14 1.99861 0 0 0.782631 0.175404 0.00348224 
233 0.000282743 1 0.797874 0.148957 0.0030619 0 0 0 14.15 -0.0184066 0.0271265 2 0 -0.00277371 0.84305 0.175244 0.00356035 
2991 0.000282743 1 0.501123 0.153952 0.00299472 0 0 0 14.1361 0 1.47577e-14 1.99861 0 -7.83032e-14 0.529497 0.181119 0.00348224 
1051 0.000282743 1 0.748797 0.153803 0.00344319 0 0 0 14.1471 0 0.0898482 2 0 -0.00277371 0.791194 0.180945 0.00400371 
1576 0.000282743 1 0.572888 0.15931 0.00299472 0 0 0 14.1361 0 8.46391e-15 1.99861 0 0 0.605325 0.187424 0.00348224 
2643 0.000282743 1 0.590488 0.158048 0.00299472 0 0 0 14.1361 0 1.52581e-11 1.99861 0 -7.41897e-12 0.623921 0.185939 0.00348224 
55 0.000282743 1 0.0512967 0.161299 0.00379083 0 0 0 12.7908 0 0.718689 2 0 -0.00277371 0.0542012 0.189764 0.00440794 
1415 0.000282743 1 0.18444 0.161792 0.00299885 0 0 0 14.1468 0 -0.0283198 1.99687 0 0.0034878 0.194883 0.190344 0.00348704 
1669 0.000282743 1 0.269089 0.163659 0.00299472 0 0 0 14.1361 0 -1.48173e-14 1.99861 0 0 0.284325 0.19254 0.00348224 
1592 0.000282743 1 0.204202 0.165431 0.00299472 0 0 0 14.1361 0 -1.48159e-14 1.99861 0 0 0.215765 0.194625 0.00348224 
2682 0.000282743 1 0.275917 0.164924 0.00299472 0 0 0 14.1361 0 1.17896e-14 1.99861 0 0 0.291539 0.194028 0.00348224 
2962 0.000282743 1 0.469414 0.168313 0.00299472 0 0 0 14.1361 0 5.13963e-15 1.99861 0 0 0.495992 0.198015 0.00348224 
344 0.000282743 1 0.527838 0.167356 0.00299351 0 0 0 14.1434 0 -0.0236256 1.99425 0 0.00873295 0.557725 0.196889 0.00348083 
989 0.000282743 1 0.111572 0.171571 0.00356147 0 0 0 14.4461 0.184532 -0.00984427 2 0 -0.00277371 0.11789 0.201848 0.00414124 
330 0.000282743 1 0.259249 0.168057 0.00299473 0 0 0 14.2964 -0.198191 -1.60435e-06 1.99861 -4.26217e-12 3.31308e-07 0.273928 0.197715 0.00348224 
826 0.000282743 1 0.826821 0.171297 0.00299472 0 0 0 14.1361 0 8.46389e-15 1.99861 0 0 0.873637 0.201525 0.00348224 
543 0.000282743 1 0.0523409 0.17302 0.0030427 0 0 0 14.1471 0 0.00571999 2 0 -0.00277371 0.0553045 0.203553 0.00353802 
1293 0.000282743 1 0.31754 0.174331 0.00299472 0 0 0 14.1361 0 1.81113e-15 1.99861 0 0 0.335519 0.205096 0.00348224 
221 0.000282743 1 0.377521 0.172561 0.00299472 0 0 0 14.1361 0 6.24724e-15 1.99861 0 0 0.398896 0.203013 0.00348224 
113 0.000282743 1 0.389658 0.174128 0.00299472 0 0 0 14.1361 0 -3.73119e-15 1.99861 0 0 0.411721 0.204856 0.00348224 
178 0.000282743 1 0.626262 0.174539 0.00295498 0 0 0 13.7676 0 0.17544 1.9882 0 -0.0263777 0.661721 0.20534 0.00343602 
2278 0.000282743 1 0.274501 0.179744 0.00299472 0 0 0 14.1361 0 -1.37069e-14 1.99861 0 0 0.290044 0.211463 0.00348224 
2281 0.000282743 1 0.409252 0.179038 0.00301707 0 0 0 14.0648 0 0.0230437 2 0 -0.00277371 0.432425 0.210633 0.00350822 
418 0.000282743 1 0.677021 0.176458 0.00299472 0 0 0 14.1361 0 1.10703e-10 1.99861 0 -7.05839e-11 0.715355 0.207597 0.00348224 
921 0.000282743 1 0.822839 0.178483 0.00339543 0 0 0 14.1471 0 0.0952122 2 0 -0.00277371 0.869428 0.20998 0.00394818 
1998 0.000282743 1 0.119504 0.183085 0.00315131 0 0 0 14.1471 0 -0.106144 2 0 -0.00277371 0.12627 0.215394 0.00366431 
2976 0.000282743 1 0.251969 0.187991 0.00299472 0 0 0 14.1545 -0.00281716 8.4639e-15 1.99861 -1.08777e-289 0 0.266236 0.221166 0.00348224 
538 0.000282743 1 0.648152 0.185048 0.00299472 0 0 0 14.0874 -0.149661 3.42686e-08 1.99861 -1.58016e-12 -9.9621e-08 0.68485 0.217703 0.00348224 
1164 0.000282743 1 0.461733 0.190356 0.00299472 0 0 0 14.4004 0.324661 9.91796e-07 1.99861 -1.25345e-11 7.72462e-09 0.487877 0.223948 0.00348224 
87 0.000282743 1 0.525046 0.189503 0.00299472 0 0 0 14.1361 0 7.35628e-15 1.99861 0 0 0.554775 0.222945 0.00348224 
2327 0.000282743 1 0.571128 0.192086 0.00298691 0 0 0 14.1336 0 -0.00812375 1.99297 0 0.0112889 0.603466 0.225984 0.00347315 
2888 0.000282743 1 0.227413 0.194236 0.00299466 0 0 0 14.0086 0.0698881 3.26212e-05 1.99859 -4.29684e-10 4.07379e-05 0.24029 0.228513 0.00348216 
371 0.000282743 1 0.31041 0.193043 0.00299472 0 0 0 14.1361 0 1.29e-14 1.99861 0 0 0.327986 0.22711 0.00348224 
2202 0.000282743 1 0.106255 0.202405 0.00377649 0 0 0 14.1471 0 0.0257745 2 0 -0.00277371 0.112271 0.238123 0.00439127 
2830 0.000282743 1 0.51382 0.204474 0.00299472 0 0 0 14.1361 0 -1.03798e-14 1.99861 0 0 0.542913 0.240558 0.00348224 
961 0.000282743 1 0.809881 0.208214 0.00299472 0 0 0 14.1361 0 -1.37069e-14 1.99861 0 0 0.855737 0.244958 0.00348224 
1172 0.000282743 1 0.0670481 0.211557 0.00299473 0 0 0 14.1361 0 -2.18878e-06 1.99861 0 -2.55605e-06 0.0708444 0.24889 0.00348224 
2621 0.000282743 1 0.123792 0.209732 0.00299472 0 0 0 14.1361 0 -7.05689e-15 1.99861 0 0 0.130801 0.246743 0.00348224 
2109 0.000282743 1 0.335951 0.210491 0.00299472 0 0 0 14.1361 0 2.06604e-14 1.99861 0 0 0.354973 0.247637 0.00348224 
1885 0.000282743 1 0.355737 0.209041 0.00478488 0 0 0 14.1471 0 0.701417 2 0 -0.00277371 0.37588 0.245931 0.00556381 
1957 0.000282743 1 0.837786 0.213694 0.00364876 0 0 0 12.0671 0 0.71693 2 0 -0.00277371 0.885222 0.251405 0.00424274 
2297 0.000282743 1 0.0577445 0.216809 0.00299472 0 0 0 14.1667 -0.0188337 7.77848e-07 1.99861 -9.32311e-14 -2.89843e-07 0.061014 0.25507 0.00348224 
2132 0.000282743 1 0.487016 0.218281 0.00299472 0 0 0 14.1361 0 -8.16593e-15 1.99861 0 0 0.514592 0.256801 0.00348224 
1444 0.000282743 1 0.729734 0.218083 0.00352648 0 0 0 14.1471 0 0.079379 2 0 -0.00277371 0.771052 0.256568 0.00410056 
145 0.000282743 1 0.0193585 0.221431 0.00299473 0 0 0 14.1761 0.019198 -2.30734e-06 1.99861 4.92495e-12 -1.41918e-06 0.0204546 0.260508 0.00348224 
2512 0.000282743 1 0.711059 0.222076 0.00302137 0 0 0 14.4238 -0.385685 -0.159205 2 0 -0.00277371 0.75132 0.261266 0.00351322 
254 0.000282743 1 0.409903 0.224656 0.00303125 0 0 0 14.1471 0 -0.0151 2 0 -0.00277371 0.433112 0.264301 0.00352471 
2849 0.000282743 1 0.554685 0.227689 0.00299472 0 0 0 14.1361 0 -8.07975e-12 1.99861 0 -1.19007e-12 0.586092 0.267869 0.00348224 
296 0.000282743 1 0.58309 0.224646 0.00320659 0 0 0 13.785 -0.409167 0.0285407 2 0 -0.00277371 0.616105 0.26429 0.00372859 
256 0.000282743 1 0.689314 0.227282 0.00299472 0 0 0 14.1361 0 1.4009e-14 1.99861 0 0 0.728343 0.26739 0.00348224 
2268 0.000282743 1 0.724614 0.228448 0.00299472 0 0 0 14.1361 0 -8.19314e-12 1.99861 0 7.56983e-13 0.765643 0.268762 0.00348224 
757 0.000282743 1 0.666149 0.240419 0.00314199 0 0 0 14.2639 0.417477 0.0829636 2 0 -0.00277371 0.703866 0.282846 0.00365348 
887 0.000282743 1 0.847408 0.240393 0.00299184 0 0 0 0.459918 -0.0582964 0.00722557 -0.312282 0.000747939 0.002385 0.895389 0.282815 0.00347888 
2986 0.000282743 1 0.68924 0.242397 0.00299472 0 0 0 14.1384 -0.198296 -5.81646e-09 1.99861 -3.65692e-14 3.07279e-10 0.728265 0.285173 0.00348224 
188 0.000282743 1 0.823419 0.243424 0.00299472 0 0 0 14.1619 -0.0558365 -1.14902e-14 1.99861 -3.42619e-288 0 0.870041 0.286381 0.00348224 
2563 0.000282743 1 0.703087 0.250204 0.00327093 0 0 0 14.4386 0.0378063 -0.07659 2 0 -0.00277371 0.742897 0.294357 0.00380341 
1096 0.000282743 1 0.799314 0.249488 0.00299461 0 0 0 14.1362 0 -3.23609e-05 1.99856 0 0.00010272 0.844572 0.293515 0.0034821 
399 0.000282743 1 0.683145 0.253177 0.00299472 0 0 0 14.1361 0 -7.05548e-15 1.99861 0 0 0.721825 0.297855 0.00348224 
253 0.000282743 1 0.2828 0.260054 0.00299472 0 0 0 14.1361 0 1.73319e-14 1.99861 0 0 0.298813 0.305946 0.00348224 
185 0.000282743 1 0.439884 0.259601 0.00299472 0 0 0 14.1361 0 -4.2622e-15 1.99861 0 -4.30645e-15 0.46479 0.305413 0.00348224 
211 0.000282743 1 0.524039 0.256715 0.00299472 0 0 0 14.1361 0 -1.03812e-14 1.99861 0 0 0.55371 0.302018 0.00348224 
2020 0.000282743 1 0.727562 0.258997 0.00378002 0 0 0 14.1471 0 -0.00702919 2 0 -0.00277371 0.768757 0.304702 0.00439537 
2140 0.000282743 1 0.581023 0.263289 0.00308829 0 0 0 14.197 -0.170581 -0.00761336 2 0 -0.00277371 0.613921 0.309752 0.00359103 
1897 0.000282743 1 0.594641 0.262645 0.00299444 0 0 0 14.535 -0.41974 0.000678042 1.99861 1.26829e-08 1.38392e-05 0.62831 0.308994 0.00348191 
1100 0.000282743 1 0.79311 0.264241 0.00310415 0 0 0 14.0663 -0.0864587 -0.0679764 2 0 -0.00277371 0.838017 0.310871 0.00360948 
2290 0.000282743 1 0.619833 0.266184 0.00299473 0 0 0 14.3073 0.193438 1.86271e-06 1.99861 5.42059e-12 -8.29992e-07 0.654928 0.313157 0.00348224 
1831 0.000282743 1 0.806426 0.266839 0.00299473 0 0 0 13.6942 0.189503 -2.33496e-05 1.99861 1.54866e-10 5.69521e-07 0.852087 0.313928 0.00348225 
1816 0.000282743 1 0.327976 0.27068 0.00359392 0 0 0 14.1471 0 0.0693438 2 0 -0.00277371 0.346546 0.318447 0.00417897 
2558 0.000282743 1 0.568914 0.2692 0.00293993 0 0 0 13.8196 -0.230466 0.131596 1.98389 0.00110922 0.0295149 0.601126 0.316706 0.00341853 
2901 0.000282743 1 0.0722225 0.273057 0.00353556 0 0 0 14.1471 0 0.0782813 2 0 -0.00277371 0.0763118 0.321243 0.00411112 
823 0.000282743 1 0.549479 0.273054 0.00299472 0 0 0 14.1361 0 -6.69785e-10 1.99861 0 -9.11213e-11 0.580591 0.32124 0.00348224 
1670 0.000282743 1 0.135643 0.28049 0.00303453 0 0 0 14.1471 0 -0.116035 2 0 -0.00277371 0.143323 0.329989 0.00352853 
2522 0.000282743 1 0.312084 0.277552 0.00299472 0 0 0 14.1361 0 -7.05688e-15 1.99861 0 0 0.329754 0.326531 0.00348224 
63 0.000282743 1 0.357753 0.281348 0.00299472 0 0 0 14.1361 0 1.86424e-14 1.99861 0 1.81652e-14 0.378009 0.330997 0.00348224 
1438 0.000282743 1 0.828722 0.28109 0.00299472 0 0 0 14.4723 0.0773026 -3.84791e-11 1.99861 5.8351e-17 5.95353e-12 0.875645 0.330694 0.00348224 
1887 0.000282743 1 0.0401641 0.286407 0.00299432 0 0 0 14.1127 0 0.00847084 1.99979 0 -0.00234835 0.0424383 0.336949 0.00348176 
526 0.000282743 1 0.0859709 0.287467 0.0039548 0 0 0 14.1617 -0.212308 0.470547 2 0 -0.00277371 0.0908386 0.338196 0.00459861 
2585 0.000282743 1 0.111579 0.286807 0.00319797 0 0 0 13.9971 -0.206282 0.00294788 2 0 -0.00277371 0.117897 0.33742 0.00371857 
1911 0.000282743 1 0.143369 0.285594 0.00299472 0 0 0 14.1361 0 1.51167e-14 1.99861 0 0 0.151487 0.335993 0.00348224 
706 0.000282743 1 0.171994 0.286103 0.00299472 0 0 0 14.1361 0 1.70278e-07 1.99861 0 -1.19688e-08 0.181732 0.336592 0.00348224 
2507 0.000282743 1 0.359169 0.288627 0.00299472 0 0 0 14.1361 0 -1.37083e-14 1.99861 0 0 0.379505 0.339562 0.00348224 
2737 0.000282743 1 0.811035 0.285029 0.0033886 0 0 0 14.152 0.113455 -0.0286938 2 0 -0.00277371 0.856956 0.335328 0.00394023 
987 0.000282743 1 0.0313597 0.291819 0.00313937 0 0 0 14.1471 0 -0.106792 2 0 -0.00277371 0.0331353 0.343316 0.00365043 
1265 0.000282743 1 0.201595 0.288872 0.00299408 0 0 0 13.2523 -0.38328 0.000442923 1.99842 2.62547e-08 0.000382698 0.213009 0.33985 0.00348149 
1696 0.000282743 1 0.80724 0.289772 0.00299475 0 0 0 14.16 0.139312 -5.32239e-05 1.99862 3.89013e-10 -6.67186e-06 0.852946 0.340909 0.00348227 
2206 0.000282743 1 0.307614 0.296016 0.00299472 0 0 0 14.0839 -0.133467 -2.50125e-08 1.99861 6.03109e-13 4.5937e-08 0.325031 0.348254 0.00348224 
2838 0.000282743 1 0.69741 0.296926 0.00299476 0 0 0 14.1361 0 -2.69061e-05 1.99862 0 -1.94957e-05 0.736897 0.349325 0.00348228 
818 0.000282743 1 0.0584053 0.301929 0.00299472 0 0 0 14.1361 0 5.13823e-15 1.99861 0 0 0.0617122 0.35521 0.00348224 
2407 0.000282743 1 0.183425 0.304103 0.00299472 0 0 0 14.1361 0 -1.51454e-15 1.99861 0 0 0.19381 0.357769 0.00348224 
1751 0.000282743 1 0.667414 0.304569 0.00299472 0 0 0 14.2527 -0.0736444 1.73319e-14 1.99861 -2.73542e-21 0 0.705203 0.358317 0.00348224 
1687 0.000282743 1 0.825924 0.302034 0.00299201 0 0 0 14.188 -0.0416125 0.000697697 1.99753 6.69791e-09 0.0021704 0.872689 0.355334 0.00347908 
2457 0.000282743 1 0.379551 0.305371 0.00299472 0 0 0 14.1361 0 -2.34801e-08 1.99861 0 -3.28165e-08 0.401042 0.359261 0.00348224 
2082 0.000282743 1 0.392195 0.30527 0.00299472 0 0 0 14.1361 0 -4.38788e-07 1.99861 0 1.12298e-07 0.414401 0.359142 0.00348224 
1274 0.000282743 1 0.721022 0.305677 0.00315732 0 0 0 14.0244 0 0.118818 2 0 -0.00277371 0.761846 0.359621 0.0036713 
2380 0.000282743 1 0.468512 0.312551 0.00299472 0 0 0 14.1361 0 7.0632e-16 1.99861 0 0 0.495039 0.367707 0.00348224 
468 0.000282743 1 0.740866 0.310431 0.00379682 0 0 0 14.1471 0 0.00163165 2 0 -0.00277371 0.782814 0.365213 0.0044149 
2146 0.000282743 1 0.516013 0.315994 0.00360292 0 0 0 14.1471 0 -0.0553859 2 0 -0.00277371 0.54523 0.371757 0.00418945 
1032 0.000282743 1 0.805661 0.318102 0.00351194 0 0 0 13.8816 0.210487 -0.149466 2 0 -0.00277371 0.851278 0.374237 0.00408365 
1872 0.000282743 1 0.137925 0.323076 0.00308008 0 0 0 14.4216 0.396509 0.0420584 2 0 -0.00277371 0.145735 0.380089 0.00358149 
1798 0.000282743 1 0.518733 0.324741 0.00299472 0 0 0 14.1361 0 2.446e-11 1.99861 0 -2.83491e-12 0.548104 0.382048 0.00348224 
2022 0.000282743 1 0.108336 0.327677 0.00379362 0 0 0 14.1471 0 0.0153899 2 0 -0.00277371 0.11447 0.385502 0.00441119 
677 0.000282743 1 0.122648 0.32702 0.00328245 0 0 0 14.1471 0 0.106752 2 0 -0.00277371 0.129593 0.384729 0.00381681 
401 0.000282743 1 0.693175 0.326817 0.00358465 0 0 0 14.1471 0 -0.058368 2 0 -0.00277371 0.732423 0.38449 0.0041682 
1709 0.000282743 1 0.76403 0.327373 0.00319402 0 0 0 14.1471 0 -0.102465 2 0 -0.00277371 0.80729 0.385144 0.00371397 
1869 0.000282743 1 0.785641 0.328301 0.00312973 0 0 0 14.2986 -0.0917282 -0.0581696 2 0 -0.00277371 0.830125 0.386236 0.00363922 
2007 0.000282743 1 0.524005 0.332481 0.0031594 0 0 0 14.1471 0 -0.10559 2 0 -0.00277371 0.553675 0.391154 0.00367372 
889 0.000282743 1 0.770034 0.332196 0.00299472 0 0 0 14.1914 -0.113567 -5.23278e-06 1.99861 2.11175e-11 3.22991e-06 0.813634 0.390819 0.00348224 
1352 0.000282743 1 0.776673 0.329447 0.00370386 0 0 0 14.1471 0 0.0483187 2 0 -0.00277371 0.820649 0.387585 0.00430682 
1496 0.000282743 1 0.800128 0.329645 0.00299472 0 0 0 14.1361 0 2.92156e-15 1.99861 0 0 0.845432 0.387817 0.00348224 
1236 0.000282743 1 0.0453677 0.333239 0.00299434 0 0 0 14.141 0 -0.00225355 1.9981 0 0.00101856 0.0479364 0.392045 0.0034818 
2590 0.000282743 1 0.621321 0.333668 0.00299472 0 0 0 13.9104 0.142456 1.84553e-14 1.99861 5.47083e-21 -3.48679e-16 0.6565 0.39255 0.00348224 
2583 0.000282743 1 0.618668 0.343757 0.00299472 0 0 0 14.1361 0 -5.12688e-08 1.99861 0 1.07433e-08 0.653698 0.40442 0.00348224 
1892 0.000282743 1 0.341067 0.348409 0.00299472 0 0 0 14.1361 0 -1.37069e-14 1.99861 0 0 0.360379 0.409893 0.00348224 
2074 0.000282743 1 0.398615 0.348869 0.00325846 0 0 0 13.867 0.335018 -0.0486535 2 0 -0.00277371 0.421185 0.410434 0.0037889 
95 0.000282743 1 0.664691 0.347146 0.00299463 0 0 0 14.1359 0 0.000107569 1.99859 0 3.8212e-05 0.702326 0.408407 0.00348213 
1785 0.000282743 1 0.367872 0.355491 0.00299472 0 0 0 14.1361 0 -4.15388e-07 1.99861 0 1.25597e-07 0.388701 0.418224 0.00348224 
551 0.000282743 1 0.746102 0.356405 0.00299472 0 0 0 14.013 0.095599 -5.53098e-11 1.99861 -3.58797e-15 -8.07504e-11 0.788347 0.419299 0.00348224 
130 0.000282743 1 0.122486 0.363226 0.00299472 0 0 0 14.1361 0 8.4639e-15 1.99861 0 0 0.129422 0.427324 0.00348224 
1601 0.000282743 1 0.353914 0.362934 0.00381376 0 0 0 14.1128 0.0343134 -0.0584402 2 0 -0.00277371 0.373953 0.426981 0.00443461 
1535 0.000282743 1 0.511907 0.361707 0.00299472 0 0 0 14.1361 0 -7.05549e-15 1.99861 0 0 0.540892 0.425537 0.00348224 
1273 0.000282743 1 0.759316 0.362216 0.00299472 0 0 0 14.1361 0 -9.83156e-14 1.99861 0 1.11152e-14 0.802309 0.426136 0.00348224 
2253 0.000282743 1 0.448386 0.366363 0.00299472 0 0 0 14.1361 0 2.8835e-13 1.99861 0 5.0742e-14 0.473775 0.431015 0.00348224 
2998 0.000282743 1 0.422442 0.371522 0.00299472 0 0 0 14.1361 0 -4.40867e-08 1.99861 0 -2.03438e-08 0.446361 0.437085 0.00348224 
1754 0.000282743 1 0.209079 0.37406 0.00398474 0 0 0 13.9948 -0.0341775 0.443208 2 0 -0.00277371 0.220917 0.440071 0.00463341 
2273 0.000282743 1 0.287359 0.374454 0.00299472 0 0 0 14.1361 0 -1.25978e-14 1.99861 0 0 0.303629 0.440534 0.00348224 
1390 0.000282743 1 0.473067 0.378701 0.00299472 0 0 0 14.1361 0 1.17896e-14 1.99861 0 0 0.499853 0.445531 0.00348224 
1874 0.000282743 1 0.690739 0.377688 0.00299472 0 0 0 14.1361 0 1.06834e-14 1.99861 0 0 0.729849 0.444339 0.00348224 
1065 0.000282743 1 0.77014 0.379159 0.00299472 0 0 0 14.1361 0 4.36507e-10 1.99861 0 -6.07549e-10 0.813746 0.446069 0.00348224 
1818 0.000282743 1 0.823561 0.380627 0.00299717 0 0 0 14.1173 0 0.00410308 2 0 -0.00277807 0.870192 0.447796 0.00348508 
161 0.000282743 1 0.0696869 0.381082 0.00299508 0 0 0 14.1358 0 9.67514e-05 1.99877 0 -0.000304235 0.0736326 0.448331 0.00348265 
2855 0.000282743 1 0.551671 0.382215 0.00327962 0 0 0 14.2084 -0.0717648 -0.0953572 2 0 -0.00277371 0.582907 0.449665 0.00381351 
2064 0.000282743 1 0.580044 0.383106 0.00373377 0 0 0 14.1471 0 -0.0300366 2 0 -0.00277371 0.612887 0.450713 0.0043416 
2148 0.000282743 1 0.78946 0.382648 0.00299472 0 0 0 14.1361 0 -4.00853e-11 1.99861 0 -3.89549e-11 0.83416 0.450175 0.00348224 
1280 0.000282743 1 0.829868 0.382849 0.00299472 0 0 0 14.1361 0 -5.94646e-15 1.99861 0 0 0.876856 0.450411 0.00348224 
417 0.000282743 1 0.548291 0.387441 0.00299465 0 0 0 14.2071 -0.0242255 0.000405752 1.99865 2.60356e-09 -6.8302e-05 0.579336 0.455813 0.00348215 
2655 0.000282743 1 0.638597 0.387301 0.00299472 0 0 0 14.1361 0 -1.0078e-13 1.99861 0 4.31252e-15 0.674755 0.455648 0.00348224 
2944 0.000282743 1 0.713409 0.386798 0.00372252 0 0 0 14.1471 0 0.0441466 2 0 -0.00277371 0.753802 0.455057 0.00432851 
800 0.000282743 1 0.731401 0.388414 0.00299472 0 0 0 14.1361 0 -5.96909e-09 1.99861 0 -1.05441e-09 0.772813 0.456958 0.00348224 
354 0.000282743 1 0.342688 0.389325 0.00299471 0 0 0 14.1361 0 -1.5479e-05 1.99861 0 1.30136e-05 0.362091 0.458029 0.00348223 
2735 0.000282743 1 0.847406 0.391249 0.00371938 0 0 0 0.474841 0 0.0270221 -0.315165 0 -0.00219472 0.895387 0.460292 0.00432486 
2242 0.000282743 1 0.216658 0.397517 0.00299472 0 0 0 14.1361 0 -6.11703e-09 1.99861 0 -7.95596e-10 0.228925 0.467668 0.00348224 