ITEM: TIMESTEP
25350
ITEM: NUMBER OF ATOMS
3000
ITEM: BOX BOUNDS mm mm mm
0 1.20147
0 0.85
0 0.86
ITEM: ATOMS id mass type x y z ix iy iz vx vy vz fx fy fz xs ys zs 
2788 0.000282743 1 0.218126 0.00364332 0.00299472 0 0 0 24.7391 0 5.13963e-15 1.99861 0 0 0.181549 0.00428626 0.00348224 
1319 0.000282743 1 0.529764 0.00389763 0.00299472 0 0 0 24.7391 0 -1.59222e-14 1.99861 0 -4.33681e-19 0.44093 0.00458545 0.00348224 
24 0.000282743 1 0.31582 0.00725002 0.00625173 0 0 0 24.7574 0 0.679145 2 0 -0.00277371 0.262861 0.00852944 0.00726945 
315 0.000282743 1 0.485007 0.0078913 0.00299472 0 0 0 24.7391 0 1.17896e-14 1.99861 0 0 0.403677 0.00928389 0.00348224 
926 0.000282743 1 0.847415 0.00637354 0.00299396 0 0 0 0.0836181 0 0.00106801 -0.0169345 0 0.00508612 0.705315 0.00749829 0.00348135 
610 0.000282743 1 0.121008 0.013257 0.00379872 0 0 0 24.7574 0 -0.0067934 2 0 -0.00277371 0.100717 0.0155965 0.00441712 
626 0.000282743 1 0.185861 0.0136063 0.00299472 0 0 0 24.7391 0 7.35628e-15 1.99861 0 0 0.154694 0.0160075 0.00348224 
229 0.000282743 1 0.393755 0.0159379 0.0036158 0 0 0 24.7574 0 0.0673154 2 0 -0.00277371 0.327727 0.0187505 0.00420441 
1485 0.000282743 1 0.562436 0.0121932 0.00299472 0 0 0 24.7391 0 1.73466e-07 1.99861 0 -6.39148e-09 0.468123 0.0143449 0.00348224 
281 0.000282743 1 0.635465 0.0121888 0.00299472 0 0 0 24.7391 0 -7.0555e-15 1.99861 0 0 0.528906 0.0143397 0.00348224 
1922 0.000282743 1 0.668002 0.0120709 0.00299472 0 0 0 24.7372 0.0118845 -2.95322e-13 1.99861 3.40036e-19 2.28717e-13 0.555987 0.0142011 0.00348224 
2338 0.000282743 1 0.21715 0.0166446 0.00301031 0 0 0 24.7574 0 -0.0252109 2 0 -0.00277371 0.180737 0.0195819 0.00350036 
2752 0.000282743 1 0.336016 0.0171987 0.00299472 0 0 0 24.7391 0 -1.69606e-14 1.99861 0 -2.25514e-17 0.27967 0.0202338 0.00348224 
662 0.000282743 1 0.12942 0.0227621 0.00299472 0 0 0 24.7391 0 1.26137e-14 1.99861 0 2.03804e-14 0.107718 0.026779 0.00348224 
136 0.000282743 1 0.80022 0.0228154 0.0037461 0 0 0 24.7574 0 -0.0286405 2 0 -0.00277371 0.666034 0.0268417 0.00435593 
312 0.000282743 1 0.816875 0.0237223 0.00299472 0 0 0 24.7391 0 -1.03798e-14 1.99861 0 0 0.679896 0.0279086 0.00348224 
2385 0.000282743 1 0.0694903 0.0271591 0.00299472 0 0 0 24.7391 0 -4.84163e-15 1.99861 0 0 0.0578377 0.0319519 0.00348224 
356 0.000282743 1 0.726534 0.0274179 0.00380087 0 0 0 24.7574 0 0.0169905 2 0 -0.00277371 0.604703 0.0322564 0.00441961 
2171 0.000282743 1 0.736817 0.0307014 0.00299472 0 0 0 24.7391 0 -9.27214e-15 1.99861 0 0 0.613262 0.0361193 0.00348224 
2212 0.000282743 1 0.848542 0.0291994 0.00525379 0 0 0 17.216 0 0.637888 -34.6039 0 -0.329719 0.706253 0.0343523 0.00610906 
2165 0.000282743 1 0.722353 0.0336834 0.00299472 0 0 0 24.7391 0 4.02921e-15 1.99861 0 0 0.601224 0.0396276 0.00348224 
1995 0.000282743 1 0.846533 0.0358753 0.00568835 0 0 0 -2.29308 0 1.90356 2 0 -0.00277371 0.70458 0.0422062 0.00661436 
284 0.000282743 1 0.446505 0.0405785 0.00589374 0 0 0 24.7574 0 0.679502 2 0 -0.00277371 0.371632 0.0477394 0.00685319 
153 0.000282743 1 0.743291 0.0455722 0.00299473 0 0 0 24.7391 0 -2.49762e-07 1.99861 0 -2.81329e-07 0.618651 0.0536144 0.00348224 
2946 0.000282743 1 0.0879513 0.0503255 0.00299472 0 0 0 24.7391 0 -5.2548e-11 1.99861 0 2.15345e-11 0.073203 0.0592065 0.00348224 
2245 0.000282743 1 0.18915 0.0511328 0.00299472 0 0 0 24.7391 0 -4.02713e-16 1.99861 0 0 0.157432 0.0601563 0.00348224 
338 0.000282743 1 0.35124 0.0513337 0.00299472 0 0 0 24.7391 0 -1.51454e-15 1.99861 0 0 0.292342 0.0603925 0.00348224 
1949 0.000282743 1 0.593946 0.0494126 0.00299472 0 0 0 24.7391 0 1.4009e-14 1.99861 0 0 0.494349 0.0581325 0.00348224 
1304 0.000282743 1 0.20987 0.0557894 0.00324849 0 0 0 24.7574 0 -0.0988885 2 0 -0.00277371 0.174677 0.0656346 0.00377732 
954 0.000282743 1 0.779705 0.0549755 0.00299472 0 0 0 24.7391 0 2.0659e-14 1.99861 0 0 0.648959 0.064677 0.00348224 
2678 0.000282743 1 0.236876 0.0574585 0.00335728 0 0 0 24.7574 0 -0.0871489 2 0 -0.00277371 0.197155 0.0675982 0.00390382 
2170 0.000282743 1 0.376123 0.0584649 0.00299472 0 0 0 24.7391 0 1.28986e-14 1.99861 0 0 0.313052 0.0687823 0.00348224 
1124 0.000282743 1 0.433828 0.0586676 0.00299472 0 0 0 24.7391 0 1.51167e-14 1.99861 0 0 0.361081 0.0690207 0.00348224 
849 0.000282743 1 0.472062 0.0567479 0.00299472 0 0 0 24.7391 0 6.21073e-15 1.99861 0 -7.55559e-15 0.392904 0.0667623 0.00348224 
2717 0.000282743 1 0.556636 0.0596889 0.00299472 0 0 0 24.7327 -0.00913781 6.24725e-15 1.99861 9.75702e-23 0 0.463296 0.0702223 0.00348224 
2515 0.000282743 1 0.542867 0.0626138 0.00299472 0 0 0 24.7391 0 -1.03798e-14 1.99861 0 0 0.451835 0.0736633 0.00348224 
2174 0.000282743 1 0.75983 0.0611444 0.00299472 0 0 0 24.7391 0 2.0659e-14 1.99861 0 0 0.632416 0.0719345 0.00348224 
795 0.000282743 1 0.667704 0.0677803 0.00380785 0 0 0 24.7689 -0.0163322 0.00670018 2 0 -0.00277371 0.555739 0.0797416 0.00442773 
1156 0.000282743 1 0.674258 0.064281 0.00299472 0 0 0 24.7391 0 1.51153e-14 1.99861 0 0 0.561194 0.0756247 0.00348224 
2920 0.000282743 1 0.74223 0.0670631 0.00299472 0 0 0 24.7391 0 9.57294e-15 1.99861 0 0 0.617768 0.0788978 0.00348224 
1678 0.000282743 1 0.428924 0.0721212 0.00299472 0 0 0 24.7391 0 -2.61937e-15 1.99861 0 0 0.356999 0.0848485 0.00348224 
1599 0.000282743 1 0.632029 0.0709061 0.00299472 0 0 0 24.7391 0 1.0682e-14 1.99861 0 0 0.526046 0.083419 0.00348224 
367 0.000282743 1 0.247307 0.0743494 0.00299507 0 0 0 24.7376 0 -0.00015954 1.99872 0 -0.000219447 0.205837 0.0874699 0.00348264 
2586 0.000282743 1 0.29379 0.0759655 0.00299472 0 0 0 24.7391 0 -1.14902e-14 1.99861 0 0 0.244525 0.0893711 0.00348224 
2800 0.000282743 1 0.179442 0.0791022 0.00299472 0 0 0 24.7391 0 -1.07361e-11 1.99861 0 2.14292e-11 0.149352 0.0930614 0.00348224 
1017 0.000282743 1 0.239928 0.0776333 0.00299472 0 0 0 24.7391 0 7.35628e-15 1.99861 0 0 0.199695 0.0913333 0.00348224 
1814 0.000282743 1 0.459218 0.0771766 0.00299472 0 0 0 24.7391 0 -7.05549e-15 1.99861 0 0 0.382213 0.090796 0.00348224 
2129 0.000282743 1 0.60295 0.0775321 0.00299472 0 0 0 24.7391 0 7.35628e-15 1.99861 0 0 0.501843 0.0912142 0.00348224 
2636 0.000282743 1 0.642584 0.0790148 0.00618029 0 0 0 24.7574 0 0.673987 2 0 -0.00277371 0.534831 0.0929586 0.00718638 
2996 0.000282743 1 0.284056 0.0806714 0.0029981 0 0 0 24.7293 0 0.000184835 1.99973 0 -0.00222958 0.236423 0.0949075 0.00348617 
1806 0.000282743 1 0.289475 0.0875507 0.0037591 0 0 0 24.7574 0 0.03565 2 0 -0.00277371 0.240934 0.103001 0.00437105 
2606 0.000282743 1 0.468979 0.0844638 0.00299472 0 0 0 24.7391 0 -9.18497e-08 1.99861 0 1.18049e-06 0.390337 0.0993692 0.00348224 
2881 0.000282743 1 0.57398 0.0858552 0.00346783 0 0 0 24.2739 -0.0531234 0.227123 2 0 -0.00277371 0.477731 0.101006 0.00403237 
876 0.000282743 1 0.626522 0.0863357 0.00299313 0 0 0 24.7295 0 0.00957712 1.99952 0 -0.00182081 0.521463 0.101571 0.00348039 
501 0.000282743 1 0.610151 0.0887254 0.00299472 0 0 0 24.7397 -0.0928269 -6.60388e-13 1.99861 -1.23803e-18 6.85506e-14 0.507837 0.104383 0.00348224 
1113 0.000282743 1 0.828349 0.0889515 0.00298759 0 0 0 24.5297 -0.0211439 0.0295758 1.99934 2.26528e-09 -0.00409453 0.689446 0.104649 0.00347394 
2182 0.000282743 1 0.838363 0.0886233 0.00299472 0 0 0 24.7072 -0.0474681 1.61004e-10 1.99861 2.32255e-16 -3.08628e-11 0.69778 0.104263 0.00348224 
2062 0.000282743 1 0.114388 0.0928605 0.00361508 0 0 0 24.7574 0 -0.0547659 2 0 -0.00277371 0.0952064 0.109248 0.00420358 
1907 0.000282743 1 0.849326 0.0975409 0.0029966 0 0 0 9.29279 0.0144953 0.0261184 -37.7579 -0.0236852 0.0351373 0.706905 0.114754 0.00348442 
2548 0.000282743 1 0.201847 0.103172 0.00299472 0 0 0 24.7391 0 4.02921e-15 1.99861 0 0 0.168 0.121379 0.00348224 
1743 0.000282743 1 0.61256 0.101365 0.00299472 0 0 0 24.7697 0.00182936 -8.16732e-15 1.99861 1.21963e-23 0 0.509842 0.119254 0.00348224 
676 0.000282743 1 0.708161 0.101284 0.00289501 0 0 0 30.2355 -0.20876 -0.325698 1.76811 0.00384068 0.461072 0.589412 0.119157 0.00336629 
1973 0.000282743 1 0.766862 0.102872 0.00299472 0 0 0 24.7391 0 -1.56095e-12 1.99861 0 2.42524e-12 0.638269 0.121026 0.00348224 
1747 0.000282743 1 0.185461 0.104694 0.00299472 0 0 0 24.7391 0 -2.73594e-06 1.99861 0 1.42839e-06 0.154362 0.123169 0.00348224 
1183 0.000282743 1 0.681695 0.107623 0.00299472 0 0 0 24.7391 0 1.80974e-15 1.99861 0 0 0.567384 0.126615 0.00348224 
1692 0.000282743 1 0.696111 0.105941 0.00309347 0 0 0 26.6058 0.0451462 -0.24342 2 0 -0.00277371 0.579382 0.124636 0.00359705 
1735 0.000282743 1 0.782793 0.105958 0.00299472 0 0 0 24.7391 0 -4.16816e-08 1.99861 0 -2.24414e-08 0.651529 0.124656 0.00348224 
886 0.000282743 1 0.698183 0.112226 0.00299472 0 0 0 24.7391 0 2.92157e-15 1.99861 0 0 0.581107 0.132031 0.00348224 
220 0.000282743 1 0.794678 0.108588 0.00299473 0 0 0 24.7391 0 -1.70848e-07 1.99861 0 -3.19654e-07 0.661421 0.12775 0.00348224 
2801 0.000282743 1 0.150111 0.115869 0.00299472 0 0 0 24.7391 0 -1.0054e-13 1.99861 0 -1.1238e-14 0.124939 0.136317 0.00348224 
1801 0.000282743 1 0.388871 0.113038 0.00299472 0 0 0 24.7391 0 -2.09023e-09 1.99861 0 -3.86594e-09 0.323663 0.132986 0.00348224 
140 0.000282743 1 0.512829 0.114857 0.00299472 0 0 0 24.7391 0 -7.05549e-15 1.99861 0 0 0.426834 0.135126 0.00348224 
1963 0.000282743 1 0.645511 0.112938 0.00303918 0 0 0 24.6113 0.275908 0.167122 2 0 -0.00277371 0.537267 0.132868 0.00353393 
2449 0.000282743 1 0.728562 0.112484 0.00355849 0 0 0 24.7574 0 0.0763289 2 0 -0.00277371 0.606391 0.132334 0.00413778 
934 0.000282743 1 0.844646 0.114351 0.00299472 0 0 0 24.7391 0 -4.02724e-16 1.99861 0 0 0.70301 0.13453 0.00348224 
392 0.000282743 1 0.230271 0.116778 0.00299472 0 0 0 24.7391 0 8.4639e-15 1.99861 0 0 0.191658 0.137385 0.00348224 
1400 0.000282743 1 0.320833 0.118653 0.00351213 0 0 0 24.7574 0 -0.0690024 2 0 -0.00277371 0.267034 0.139592 0.00408387 
2620 0.000282743 1 0.277305 0.122546 0.00299472 0 0 0 24.7391 0 -4.85123e-09 1.99861 0 1.64887e-09 0.230805 0.144171 0.00348224 
2955 0.000282743 1 0.372081 0.121181 0.00299472 0 0 0 24.7391 0 -4.37684e-08 1.99861 0 1.37988e-07 0.309688 0.142565 0.00348224 
2869 0.000282743 1 0.552034 0.121369 0.00299472 0 0 0 24.5078 -0.0239456 8.54784e-08 1.99861 -6.31548e-14 3.00215e-08 0.459465 0.142787 0.00348224 
2063 0.000282743 1 0.666575 0.121177 0.00299472 0 0 0 24.7391 0 6.24586e-15 1.99861 0 0 0.554799 0.142561 0.00348224 
2918 0.000282743 1 0.393306 0.125633 0.00379503 0 0 0 24.7574 0 0.0203032 2 0 -0.00277371 0.327354 0.147804 0.00441283 
2312 0.000282743 1 0.849361 0.125933 0.00299573 0 0 0 8.85864 0 0.0137872 -37.7894 0 0.0176109 0.706935 0.148157 0.00348341 
1860 0.000282743 1 0.151528 0.130739 0.00299472 0 0 0 24.7391 0 -1.1502e-06 1.99861 0 1.40037e-06 0.126119 0.153811 0.00348224 
719 0.000282743 1 0.557885 0.130419 0.00299472 0 0 0 24.6442 0.0181812 -4.95547e-11 1.99861 7.33911e-18 -2.76525e-13 0.464335 0.153434 0.00348224 
1378 0.000282743 1 0.733924 0.132815 0.00378619 0 0 0 24.7574 0 0.0252151 2 0 -0.00277371 0.610854 0.156252 0.00440255 
202 0.000282743 1 0.141363 0.137364 0.00299473 0 0 0 24.7391 0 -4.62418e-06 1.99861 0 4.8213e-07 0.117658 0.161605 0.00348224 
2160 0.000282743 1 0.447967 0.137626 0.00299472 0 0 0 24.6439 -0.116954 -1.14916e-14 1.99861 -1.56112e-21 0 0.372848 0.161913 0.00348224 
1451 0.000282743 1 0.566114 0.13897 0.00299473 0 0 0 24.692 0.253923 9.09247e-09 1.99861 -7.18901e-12 -2.50268e-07 0.471184 0.163494 0.00348224 
768 0.000282743 1 0.805048 0.136757 0.00299472 0 0 0 24.7391 0 -5.89795e-12 1.99861 0 -3.50195e-12 0.670052 0.16089 0.00348224 
2451 0.000282743 1 0.0464191 0.14389 0.00343415 0 0 0 24.7574 0 -0.0786536 2 0 -0.00277371 0.0386352 0.169282 0.00399319 
1582 0.000282743 1 0.295361 0.143686 0.00299472 0 0 0 24.7391 0 1.73774e-10 1.99861 0 -6.11777e-11 0.245833 0.169042 0.00348224 
410 0.000282743 1 0.51418 0.144092 0.00303092 0 0 0 24.7574 0 -0.0156736 2 0 -0.00277371 0.427958 0.169519 0.00352432 
1246 0.000282743 1 0.10416 0.149041 0.00299472 0 0 0 24.7581 0.0126758 4.81621e-13 1.99861 -4.00921e-19 -2.40334e-13 0.0866933 0.175342 0.00348224 
2461 0.000282743 1 0.502058 0.148491 0.00299475 0 0 0 24.7389 0 -4.18367e-05 1.99862 0 -4.4522e-06 0.417869 0.174695 0.00348226 
2448 0.000282743 1 0.769849 0.149093 0.00299472 0 0 0 24.7391 0 -1.92506e-14 1.99861 0 0 0.640755 0.175404 0.00348224 
233 0.000282743 1 0.827056 0.14893 0.00309156 0 0 0 24.7604 -0.0184066 0.0124115 2 0 -0.00277371 0.68837 0.175211 0.00359483 
2991 0.000282743 1 0.530279 0.153952 0.00299472 0 0 0 24.7391 0 -6.23055e-14 1.99861 0 3.05537e-14 0.441358 0.181119 0.00348224 
1051 0.000282743 1 0.777975 0.153803 0.00356693 0 0 0 24.7574 0 0.0751332 2 0 -0.00277371 0.647519 0.180945 0.00414759 
1576 0.000282743 1 0.602044 0.15931 0.00299472 0 0 0 24.7391 0 8.46391e-15 1.99861 0 0 0.501089 0.187424 0.00348224 
2643 0.000282743 1 0.619644 0.158048 0.00299472 0 0 0 24.7391 0 -8.2645e-12 1.99861 0 7.95974e-13 0.515738 0.185939 0.00348224 
55 0.000282743 1 0.0784406 0.161299 0.00485783 0 0 0 23.4011 0 0.703974 2 0 -0.00277371 0.0652872 0.189764 0.00564863 
1415 0.000282743 1 0.213595 0.161792 0.00299077 0 0 0 24.7304 0 0.0103354 1.99862 0 -2.24308e-05 0.177778 0.190344 0.00347764 
1669 0.000282743 1 0.298245 0.163659 0.00299472 0 0 0 24.7391 0 -1.48173e-14 1.99861 0 0 0.248234 0.19254 0.00348224 
1592 0.000282743 1 0.233359 0.165431 0.00299472 0 0 0 24.7391 0 -1.48159e-14 1.99861 0 0 0.194228 0.194625 0.00348224 
2682 0.000282743 1 0.305073 0.164924 0.00299472 0 0 0 24.7391 0 1.17896e-14 1.99861 0 0 0.253916 0.194028 0.00348224 
2962 0.000282743 1 0.49857 0.168313 0.00299472 0 0 0 24.7391 0 5.13963e-15 1.99861 0 0 0.414966 0.198015 0.00348224 
344 0.000282743 1 0.556988 0.167356 0.00299282 0 0 0 24.7297 0 0.00968531 1.99942 0 -0.00161042 0.463589 0.196889 0.00348003 
989 0.000282743 1 0.141199 0.171848 0.00353567 0 0 0 25.0564 0.184532 -0.0245593 2 0 -0.00277371 0.117522 0.202174 0.00411124 
330 0.000282743 1 0.288646 0.16776 0.00299472 0 0 0 24.8994 -0.198191 5.62992e-07 1.99861 -1.38231e-12 1.0561e-07 0.240244 0.197365 0.00348224 
826 0.000282743 1 0.848557 0.171297 0.00299876 0 0 0 -8.36665 0 0.00686656 -1.39661 0 -0.0130641 0.706265 0.201525 0.00348693 
543 0.000282743 1 0.0815193 0.17302 0.00304024 0 0 0 24.7574 0 -0.00899501 2 0 -0.00277371 0.0678496 0.203553 0.00353517 
1293 0.000282743 1 0.346696 0.174331 0.00299472 0 0 0 24.7391 0 1.81113e-15 1.99861 0 0 0.28856 0.205096 0.00348224 
221 0.000282743 1 0.406677 0.172561 0.00299472 0 0 0 24.7391 0 6.24724e-15 1.99861 0 0 0.338483 0.203013 0.00348224 
113 0.000282743 1 0.418815 0.174128 0.00299472 0 0 0 24.7391 0 -3.73119e-15 1.99861 0 0 0.348585 0.204856 0.00348224 
178 0.000282743 1 0.654843 0.174539 0.0031519 0 0 0 24.3575 0 0.119816 2 0 -0.00277371 0.545035 0.20534 0.003665 
2278 0.000282743 1 0.303658 0.179744 0.00299472 0 0 0 24.7391 0 -1.37069e-14 1.99861 0 0 0.252738 0.211463 0.00348224 
2281 0.000282743 1 0.438307 0.179038 0.0030406 0 0 0 24.6751 0 0.00832871 2 0 -0.00277371 0.364809 0.210633 0.00353558 
418 0.000282743 1 0.706177 0.176458 0.00299472 0 0 0 24.7391 0 -7.13903e-11 1.99861 0 1.28336e-11 0.587761 0.207597 0.00348224 
921 0.000282743 1 0.849636 0.178483 0.0035217 0 0 0 0.030224 0 0.0298814 -29.7975 0 -0.0407041 0.707163 0.20998 0.004095 
1998 0.000282743 1 0.148682 0.183085 0.0029827 0 0 0 24.7453 0 -0.0966766 1.9715 0 0.0542285 0.12375 0.215394 0.00346826 
2976 0.000282743 1 0.281153 0.187987 0.00299472 0 0 0 24.7575 -0.00281716 8.4639e-15 1.99861 0 0 0.234007 0.221161 0.00348224 
538 0.000282743 1 0.677235 0.184823 0.00299472 0 0 0 24.6904 -0.149661 -7.51308e-08 1.99861 -7.1933e-13 3.67656e-08 0.563672 0.217439 0.00348224 
1164 0.000282743 1 0.491286 0.190843 0.00299473 0 0 0 25.0033 0.324661 -2.03101e-07 1.99861 -5.09625e-12 -1.54912e-07 0.408904 0.224521 0.00348224 
87 0.000282743 1 0.554203 0.189503 0.00299472 0 0 0 24.7391 0 7.35628e-15 1.99861 0 0 0.46127 0.222945 0.00348224 
2327 0.000282743 1 0.60027 0.192086 0.00299613 0 0 0 24.7294 0 0.00624562 1.99997 0 -0.00282849 0.499613 0.225984 0.00348387 
2888 0.000282743 1 0.256378 0.194341 0.00299474 0 0 0 24.6116 0.0698881 2.08168e-05 1.99862 -1.84986e-10 -2.2107e-05 0.213387 0.228636 0.00348226 
371 0.000282743 1 0.339566 0.193043 0.00299472 0 0 0 24.7391 0 1.29e-14 1.99861 0 0 0.282625 0.22711 0.00348224 
2202 0.000282743 1 0.135433 0.202405 0.00380412 0 0 0 24.7574 0 0.0110595 2 0 -0.00277371 0.112723 0.238123 0.00442339 
2830 0.000282743 1 0.542976 0.204474 0.00299472 0 0 0 24.7391 0 -1.03798e-14 1.99861 0 0 0.451926 0.240558 0.00348224 
961 0.000282743 1 0.839038 0.208214 0.00299472 0 0 0 24.7391 0 -1.37069e-14 1.99861 0 0 0.698342 0.244958 0.00348224 
1172 0.000282743 1 0.0962045 0.211557 0.00299472 0 0 0 24.7391 0 -1.28352e-06 1.99861 0 1.41268e-06 0.0800722 0.24889 0.00348224 
2621 0.000282743 1 0.152949 0.209732 0.00299472 0 0 0 24.7391 0 -7.05689e-15 1.99861 0 0 0.127301 0.246743 0.00348224 
2109 0.000282743 1 0.365107 0.210491 0.00299472 0 0 0 24.7391 0 2.06604e-14 1.99861 0 0 0.303884 0.247637 0.00348224 
1885 0.000282743 1 0.384916 0.209041 0.00582597 0 0 0 24.7574 0 0.686702 2 0 -0.00277371 0.320371 0.245931 0.00677438 
1957 0.000282743 1 0.846491 0.213694 0.00579377 0 0 0 -1.89165 0 2.02551 2 0 -0.00277371 0.704546 0.251405 0.00673694 
2297 0.000282743 1 0.0869467 0.216781 0.00299472 0 0 0 24.7697 -0.0188337 -3.61065e-07 1.99861 -6.65425e-14 3.27039e-09 0.0723669 0.255037 0.00348224 
2132 0.000282743 1 0.516173 0.218281 0.00299472 0 0 0 24.7391 0 -8.16593e-15 1.99861 0 0 0.429617 0.256801 0.00348224 
1444 0.000282743 1 0.758912 0.218083 0.00363452 0 0 0 24.7574 0 0.064664 2 0 -0.00277371 0.631653 0.256568 0.00422618 
145 0.000282743 1 0.0485749 0.22146 0.00299472 0 0 0 24.779 0.019198 -4.83081e-07 1.99861 2.14247e-12 9.51304e-07 0.0404295 0.260542 0.00348224 
2512 0.000282743 1 0.740543 0.221504 0.00299066 0 0 0 24.9138 -0.378368 0.0525222 1.99388 0.000274477 -0.0150287 0.616363 0.260593 0.00347752 
254 0.000282743 1 0.439082 0.224656 0.00299763 0 0 0 24.7565 0 -0.0279957 1.99604 0 0.0051549 0.365453 0.264301 0.00348562 
2849 0.000282743 1 0.583842 0.227689 0.00299472 0 0 0 24.7391 0 8.8861e-13 1.99861 0 1.73857e-12 0.485939 0.267869 0.00348224 
296 0.000282743 1 0.611725 0.224033 0.00323837 0 0 0 24.3954 -0.409167 0.0138257 2 0 -0.00277371 0.509147 0.263568 0.00376554 
256 0.000282743 1 0.71847 0.227282 0.00299472 0 0 0 24.7391 0 1.4009e-14 1.99861 0 0 0.597992 0.26739 0.00348224 
2268 0.000282743 1 0.753771 0.228448 0.00299472 0 0 0 24.7391 0 2.23836e-12 1.99861 0 9.34647e-13 0.627373 0.268762 0.00348224 
757 0.000282743 1 0.695502 0.241046 0.0032554 0 0 0 24.8742 0.417477 0.0682486 2 0 -0.00277371 0.578876 0.283583 0.00378535 
887 0.000282743 1 0.848775 0.24028 0.00298675 0 0 0 -2.70912 1.11821 -0.0173311 -11.5433 2.71379 0.0262681 0.706446 0.282682 0.00347296 
2986 0.000282743 1 0.7184 0.2421 0.00299472 0 0 0 24.7413 -0.198296 1.43155e-09 1.99861 -1.45093e-14 7.59818e-10 0.597933 0.284823 0.00348224 
188 0.000282743 1 0.847857 0.245192 0.00300636 0 0 0 4.46645 9.56756 0.0370133 -9.09757 3.18221 -0.00711998 0.705683 0.288461 0.00349576 
2563 0.000282743 1 0.732703 0.25026 0.00314501 0 0 0 25.0489 0.0378063 -0.091305 2 0 -0.00277371 0.609838 0.294424 0.00365699 
1096 0.000282743 1 0.82847 0.249488 0.00299474 0 0 0 24.7391 0 7.6193e-05 1.99863 0 -3.81919e-05 0.689547 0.293515 0.00348226 
399 0.000282743 1 0.712301 0.253177 0.00299472 0 0 0 24.7391 0 -7.05548e-15 1.99861 0 0 0.592858 0.297855 0.00348224 
253 0.000282743 1 0.311957 0.260054 0.00299472 0 0 0 24.7391 0 1.73319e-14 1.99861 0 0 0.259646 0.305946 0.00348224 
185 0.000282743 1 0.46904 0.259601 0.00299472 0 0 0 24.7391 0 -1.54666e-14 1.99861 0 -8.30499e-16 0.390388 0.305413 0.00348224 
211 0.000282743 1 0.553195 0.256715 0.00299472 0 0 0 24.7391 0 -1.03812e-14 1.99861 0 0 0.460432 0.302018 0.00348224 
2020 0.000282743 1 0.75674 0.258997 0.00375844 0 0 0 24.7574 0 -0.0217442 2 0 -0.00277371 0.629845 0.304702 0.00437028 
2140 0.000282743 1 0.610276 0.263033 0.00306583 0 0 0 24.8073 -0.170581 -0.0223284 2 0 -0.00277371 0.507941 0.309451 0.00356492 
1897 0.000282743 1 0.624396 0.262015 0.00299492 0 0 0 25.1384 -0.41974 -0.00013091 1.99867 5.1158e-09 -0.000110107 0.519693 0.308253 0.00348246 
1100 0.000282743 1 0.822167 0.264111 0.00299157 0 0 0 24.672 -0.0864587 -0.0735783 1.98435 -1.29167e-07 0.0285255 0.684301 0.310719 0.00347857 
2290 0.000282743 1 0.649246 0.266474 0.00299473 0 0 0 24.9102 0.193438 -9.57332e-07 1.99861 3.04383e-12 6.51258e-08 0.540376 0.313498 0.00348224 
1831 0.000282743 1 0.83492 0.267123 0.00299472 0 0 0 24.2971 0.189503 5.29662e-06 1.99861 6.22282e-11 3.32905e-06 0.694915 0.314263 0.00348223 
1816 0.000282743 1 0.357154 0.27068 0.00368689 0 0 0 24.7574 0 0.0546288 2 0 -0.00277371 0.297264 0.318447 0.00428709 
2558 0.000282743 1 0.597578 0.268856 0.00309531 0 0 0 24.4106 -0.229306 0.0892113 2 0 -0.00277371 0.497372 0.316301 0.0035992 
2901 0.000282743 1 0.101401 0.273057 0.00364195 0 0 0 24.7574 0 0.0635663 2 0 -0.00277371 0.0843973 0.321243 0.00423482 
823 0.000282743 1 0.578635 0.273054 0.00299472 0 0 0 24.7391 0 7.85849e-11 1.99861 0 1.40836e-10 0.481606 0.32124 0.00348224 
1670 0.000282743 1 0.164755 0.28049 0.00298156 0 0 0 24.6692 0 0.0456101 1.99943 0 -0.00391926 0.137128 0.329989 0.00346693 
2522 0.000282743 1 0.34124 0.277552 0.00299472 0 0 0 24.7391 0 -7.05688e-15 1.99861 0 0 0.284019 0.326531 0.00348224 
63 0.000282743 1 0.386909 0.281348 0.00299472 0 0 0 24.7391 0 2.34251e-15 1.99861 0 -6.69863e-15 0.322029 0.330997 0.00348224 
1438 0.000282743 1 0.847724 0.28121 0.00305593 0 0 0 -7.29733 0.0897982 0.13416 5.34461 0.0182307 -0.0115825 0.705572 0.330835 0.0035534 
1887 0.000282743 1 0.0692904 0.286407 0.00299702 0 0 0 24.7214 0 -0.00315999 1.99899 0 -0.000756676 0.0576713 0.336949 0.00348491 
526 0.000282743 1 0.115171 0.287148 0.00464959 0 0 0 24.772 -0.212308 0.455832 2 0 -0.00277371 0.0958585 0.337821 0.0054065 
2585 0.000282743 1 0.140533 0.286498 0.00319135 0 0 0 24.6074 -0.206282 -0.0117671 2 0 -0.00277371 0.116967 0.337056 0.00371088 
1911 0.000282743 1 0.172525 0.285594 0.00299472 0 0 0 24.7391 0 1.51167e-14 1.99861 0 0 0.143595 0.335993 0.00348224 
706 0.000282743 1 0.20115 0.286103 0.00299472 0 0 0 24.7391 0 -4.39361e-08 1.99861 0 -2.09903e-08 0.16742 0.336592 0.00348224 
2507 0.000282743 1 0.388325 0.288627 0.00299472 0 0 0 24.7391 0 -1.37083e-14 1.99861 0 0 0.323208 0.339562 0.00348224 
2737 0.000282743 1 0.84022 0.285199 0.00333452 0 0 0 24.7624 0.113455 -0.0434088 2 0 -0.00277371 0.699327 0.335528 0.00387735 
987 0.000282743 1 0.0605353 0.291819 0.00297363 0 0 0 24.7336 0 -0.073897 1.9672 0 0.0628353 0.0503844 0.343316 0.00345771 
1265 0.000282743 1 0.229425 0.288297 0.00299495 0 0 0 23.8554 -0.38328 0.000159232 1.99872 9.23357e-09 -0.000223473 0.190954 0.339173 0.0034825 
1696 0.000282743 1 0.836432 0.289981 0.00299471 0 0 0 24.763 0.139312 6.64123e-06 1.99861 1.63264e-10 1.09541e-05 0.696173 0.341154 0.00348222 
2206 0.000282743 1 0.336692 0.295815 0.00299472 0 0 0 24.6868 -0.133467 3.65788e-08 1.99861 2.76849e-13 -1.55448e-08 0.280233 0.348018 0.00348224 
2838 0.000282743 1 0.726566 0.296926 0.00299471 0 0 0 24.7391 0 -7.66506e-06 1.99861 0 1.23511e-05 0.60473 0.349325 0.00348222 
818 0.000282743 1 0.0875616 0.301929 0.00299472 0 0 0 24.7391 0 5.13823e-15 1.99861 0 0 0.0728787 0.35521 0.00348224 
2407 0.000282743 1 0.212581 0.304103 0.00299472 0 0 0 24.7391 0 -1.51454e-15 1.99861 0 0 0.176934 0.357769 0.00348224 
1751 0.000282743 1 0.696745 0.304459 0.00299472 0 0 0 24.8557 -0.0736444 1.73319e-14 1.99861 -1.56112e-21 0 0.57991 0.358187 0.00348224 
1687 0.000282743 1 0.848931 0.301908 0.00257948 0 0 0 -5.78498 -0.672667 -1.2641 -3.00929 -1.03939 0.594158 0.706577 0.355185 0.0029994 
2457 0.000282743 1 0.408708 0.305371 0.00299472 0 0 0 24.7391 0 -1.74442e-08 1.99861 0 1.74275e-08 0.340173 0.359261 0.00348224 
2082 0.000282743 1 0.421351 0.30527 0.00299472 0 0 0 24.7391 0 1.68763e-07 1.99861 0 1.97426e-08 0.350696 0.359142 0.00348224 
1274 0.000282743 1 0.750016 0.305677 0.00332451 0 0 0 24.6348 0 0.104103 2 0 -0.00277371 0.624248 0.359621 0.00386571 
2380 0.000282743 1 0.497668 0.312551 0.00299472 0 0 0 24.7391 0 7.0632e-16 1.99861 0 0 0.414216 0.367707 0.00348224 
468 0.000282743 1 0.770044 0.310431 0.00378823 0 0 0 24.7574 0 -0.0130833 2 0 -0.00277371 0.640918 0.365213 0.00440492 
2146 0.000282743 1 0.545192 0.315994 0.00350881 0 0 0 24.7574 0 -0.0701009 2 0 -0.00277371 0.45377 0.371757 0.00408001 
1032 0.000282743 1 0.834441 0.318417 0.0032767 0 0 0 24.4919 0.210487 -0.164181 2 0 -0.00277371 0.694516 0.374609 0.00381012 
1872 0.000282743 1 0.167515 0.323671 0.00313213 0 0 0 25.0319 0.396509 0.0273434 2 0 -0.00277371 0.139425 0.380789 0.00364201 
1798 0.000282743 1 0.547889 0.324741 0.00299472 0 0 0 24.7391 0 -7.07366e-12 1.99861 0 -2.54394e-12 0.456015 0.382048 0.00348224 
2022 0.000282743 1 0.137514 0.327677 0.00380567 0 0 0 24.7574 0 0.000674905 2 0 -0.00277371 0.114455 0.385502 0.0044252 
677 0.000282743 1 0.151827 0.32702 0.00343155 0 0 0 24.7574 0 0.0920374 2 0 -0.00277371 0.126367 0.384729 0.00399017 
401 0.000282743 1 0.722354 0.326817 0.00348607 0 0 0 24.7574 0 -0.073083 2 0 -0.00277371 0.601225 0.38449 0.00405357 
1709 0.000282743 1 0.793208 0.327373 0.00302928 0 0 0 24.7574 0 -0.11718 2 0 -0.00277371 0.660198 0.385144 0.00352242 
1869 0.000282743 1 0.815047 0.328163 0.00303144 0 0 0 24.9089 -0.0917282 -0.0728846 2 0 -0.00277371 0.678374 0.386074 0.00352493 
2007 0.000282743 1 0.553183 0.332481 0.00299038 0 0 0 24.7521 0 -0.109553 1.97681 0 0.0436159 0.460422 0.391154 0.00347718 
889 0.000282743 1 0.799273 0.332025 0.00299472 0 0 0 24.7944 -0.113567 3.30137e-06 1.99861 1.0483e-11 -5.61874e-07 0.665246 0.390618 0.00348224 
1352 0.000282743 1 0.805852 0.329447 0.00376531 0 0 0 24.7574 0 0.0336037 2 0 -0.00277371 0.670721 0.387585 0.00437826 
1496 0.000282743 1 0.829284 0.329645 0.00299472 0 0 0 24.7391 0 2.92156e-15 1.99861 0 0 0.690224 0.387817 0.00348224 
1236 0.000282743 1 0.0745297 0.333239 0.00299441 0 0 0 24.7423 0 0.00113858 1.99867 0 -0.000108216 0.062032 0.392045 0.00348188 
2590 0.000282743 1 0.650138 0.333882 0.00299472 0 0 0 24.5134 0.142456 1.7548e-14 1.99861 3.12225e-21 -6.72205e-17 0.541119 0.392802 0.00348224 
2583 0.000282743 1 0.647825 0.343757 0.00299472 0 0 0 24.7391 0 1.80971e-08 1.99861 0 3.30949e-09 0.539193 0.40442 0.00348224 
1892 0.000282743 1 0.370223 0.348409 0.00299472 0 0 0 24.7391 0 -1.37069e-14 1.99861 0 0 0.308142 0.409893 0.00348224 
2074 0.000282743 1 0.427374 0.349372 0.00317444 0 0 0 24.4773 0.335018 -0.0633685 2 0 -0.00277371 0.355709 0.411025 0.00369121 
95 0.000282743 1 0.693847 0.347146 0.00299476 0 0 0 24.7389 0 3.39614e-06 1.99863 0 -3.24752e-05 0.577498 0.408407 0.00348228 
1785 0.000282743 1 0.397028 0.355491 0.00299472 0 0 0 24.7391 0 1.72915e-07 1.99861 0 1.05572e-08 0.330452 0.418224 0.00348224 
551 0.000282743 1 0.775074 0.356548 0.00299472 0 0 0 24.616 0.095599 -4.34414e-11 1.99861 -2.18838e-15 4.25066e-11 0.645104 0.419468 0.00348224 
130 0.000282743 1 0.151643 0.363226 0.00299472 0 0 0 24.7391 0 8.4639e-15 1.99861 0 0 0.126214 0.427324 0.00348224 
1601 0.000282743 1 0.383041 0.362986 0.00371507 0 0 0 24.7231 0.0343134 -0.0731552 2 0 -0.00277371 0.31881 0.427042 0.00431985 
1535 0.000282743 1 0.541064 0.361707 0.00299472 0 0 0 24.7391 0 -7.05549e-15 1.99861 0 0 0.450334 0.425537 0.00348224 
1273 0.000282743 1 0.788473 0.362216 0.00299472 0 0 0 24.7391 0 2.84505e-14 1.99861 0 1.03082e-14 0.656256 0.426136 0.00348224 
2253 0.000282743 1 0.477543 0.366363 0.00299472 0 0 0 24.7391 0 -2.66018e-14 1.99861 0 -6.51285e-14 0.397465 0.431015 0.00348224 
2998 0.000282743 1 0.451599 0.371522 0.00299472 0 0 0 24.7391 0 -4.60975e-09 1.99861 0 1.53192e-08 0.375871 0.437085 0.00348224 
1754 0.000282743 1 0.238029 0.374009 0.00463851 0 0 0 24.6052 -0.0341775 0.428493 2 0 -0.00277371 0.198115 0.44001 0.00539362 
2273 0.000282743 1 0.316515 0.374454 0.00299472 0 0 0 24.7391 0 -1.25978e-14 1.99861 0 0 0.26344 0.440534 0.00348224 
1390 0.000282743 1 0.502224 0.378701 0.00299472 0 0 0 24.7391 0 1.17896e-14 1.99861 0 0 0.418007 0.445531 0.00348224 
1874 0.000282743 1 0.719895 0.377688 0.00299472 0 0 0 24.7391 0 1.06834e-14 1.99861 0 0 0.599178 0.444339 0.00348224 
1065 0.000282743 1 0.799296 0.379159 0.00299472 0 0 0 24.7391 0 -5.0599e-10 1.99861 0 1.89429e-10 0.665265 0.446069 0.00348224 
1818 0.000282743 1 0.847564 0.379054 0.00300367 0 0 0 -1.89294 -10.5144 0.0311084 -4.45553 -5.22967 -0.00524258 0.705439 0.445946 0.00349264 
161 0.000282743 1 0.0988432 0.381082 0.00299467 0 0 0 24.739 0 -0.000233872 1.99856 0 0.000115063 0.0822685 0.448331 0.00348218 
2855 0.000282743 1 0.580942 0.382107 0.00312555 0 0 0 24.8187 -0.0717648 -0.110072 2 0 -0.00277371 0.483525 0.449538 0.00363436 
2064 0.000282743 1 0.609223 0.383106 0.00367768 0 0 0 24.7574 0 -0.0447516 2 0 -0.00277371 0.507064 0.450713 0.00427638 
2148 0.000282743 1 0.818616 0.382648 0.00299472 0 0 0 24.7391 0 -1.81425e-11 1.99861 0 2.25551e-11 0.681345 0.450175 0.00348224 
1280 0.000282743 1 0.849133 0.382957 0.00299364 0 0 0 -5.44002 -0.734268 -0.00940798 -8.03078 -3.01474 0.0154637 0.706745 0.450537 0.00348098 
417 0.000282743 1 0.577554 0.387405 0.00299482 0 0 0 24.8103 -0.0242255 -0.000131198 1.99863 1.46514e-09 -3.39089e-05 0.480706 0.45577 0.00348235 
2655 0.000282743 1 0.667754 0.387301 0.00299472 0 0 0 24.7391 0 2.35368e-14 1.99861 0 1.56155e-14 0.55578 0.455648 0.00348224 
2944 0.000282743 1 0.742587 0.386798 0.0037777 0 0 0 24.7574 0 0.0294316 2 0 -0.00277371 0.618065 0.455057 0.00439267 
800 0.000282743 1 0.760557 0.388414 0.00299472 0 0 0 24.7391 0 5.35088e-10 1.99861 0 1.35732e-09 0.633022 0.456958 0.00348224 
354 0.000282743 1 0.371844 0.389325 0.00299472 0 0 0 24.7391 0 1.21172e-05 1.99861 0 -3.12057e-06 0.309491 0.458029 0.00348224 
2735 0.000282743 1 0.847429 0.391249 0.00375227 0 0 0 0.0200905 0 0.0169151 -0.0550121 0 -0.00190715 0.705326 0.460292 0.00436311 