ITEM: TIMESTEP
25150
ITEM: NUMBER OF ATOMS
3000
ITEM: BOX BOUNDS mm mm mm
0 0.896762
0 0.85
0 0.86
ITEM: ATOMS id mass type x y z ix iy iz vx vy vz fx fy fz xs ys zs 
2788 0.000282743 1 0.182786 0.00364332 0.00299472 0 0 0 10.6018 0 5.13963e-15 1.99861 0 0 0.203828 0.00428626 0.00348224 
1319 0.000282743 1 0.494424 0.00389763 0.00299472 0 0 0 10.6018 0 -1.59059e-14 1.99861 0 -5.63785e-18 0.551343 0.00458545 0.00348224 
24 0.000282743 1 0.280452 0.00725002 0.00487382 0 0 0 10.6103 0 0.698765 2 0 -0.00277371 0.312738 0.00852944 0.00566723 
315 0.000282743 1 0.449666 0.0078913 0.00299472 0 0 0 10.6018 0 1.17896e-14 1.99861 0 0 0.501433 0.00928389 0.00348224 
926 0.000282743 1 0.847589 0.00637354 0.00299684 0 0 0 -2.22521 0 0.00216681 0.976223 0 -0.00237662 0.945166 0.00749829 0.0034847 
610 0.000282743 1 0.0856405 0.013257 0.00379269 0 0 0 10.6103 0 0.0128266 2 0 -0.00277371 0.0954997 0.0155965 0.0044101 
626 0.000282743 1 0.15052 0.0136063 0.00299472 0 0 0 10.6018 0 7.35628e-15 1.99861 0 0 0.167848 0.0160075 0.00348224 
229 0.000282743 1 0.358387 0.0159379 0.00346154 0 0 0 10.6103 0 0.0869354 2 0 -0.00277371 0.399646 0.0187505 0.00402505 
1485 0.000282743 1 0.527095 0.0121932 0.00299473 0 0 0 10.6018 0 -5.16352e-07 1.99861 0 1.32615e-08 0.587776 0.0143449 0.00348224 
281 0.000282743 1 0.600124 0.0121888 0.00299472 0 0 0 10.6018 0 -7.0555e-15 1.99861 0 0 0.669212 0.0143397 0.00348224 
1922 0.000282743 1 0.632665 0.0120472 0.00299472 0 0 0 10.5999 0.0118845 9.13872e-13 1.99861 9.70854e-19 -6.80522e-13 0.705499 0.0141732 0.00348224 
2338 0.000282743 1 0.181782 0.0166446 0.00304111 0 0 0 10.6103 0 -0.00559094 2 0 -0.00277371 0.202709 0.0195819 0.00353617 
2752 0.000282743 1 0.300675 0.0171987 0.00299472 0 0 0 10.6018 0 -1.63815e-14 1.99861 0 -2.02095e-16 0.335289 0.0202338 0.00348224 
662 0.000282743 1 0.0940796 0.0227621 0.00299472 0 0 0 10.6018 0 -4.59934e-14 1.99861 0 -5.53299e-14 0.10491 0.026779 0.00348224 
136 0.000282743 1 0.764852 0.0228154 0.00378376 0 0 0 10.6103 0 -0.00902046 2 0 -0.00277371 0.852904 0.0268417 0.00439972 
312 0.000282743 1 0.781534 0.0237223 0.00299472 0 0 0 10.6018 0 -1.03798e-14 1.99861 0 0 0.871507 0.0279086 0.00348224 
2385 0.000282743 1 0.0341495 0.0271591 0.00299472 0 0 0 10.6018 0 -4.84163e-15 1.99861 0 0 0.0380809 0.0319519 0.00348224 
356 0.000282743 1 0.691166 0.0274179 0.00374727 0 0 0 10.6103 0 0.0366105 2 0 -0.00277371 0.770735 0.0322564 0.00435729 
2171 0.000282743 1 0.701476 0.0307014 0.00299472 0 0 0 10.6018 0 -9.27214e-15 1.99861 0 0 0.782232 0.0361193 0.00348224 
2212 0.000282743 1 0.813835 0.0291994 0.00384141 0 0 0 10.3977 0 0.716906 2 0 -0.00277371 0.907526 0.0343523 0.00446676 
2165 0.000282743 1 0.687012 0.0336834 0.00299472 0 0 0 10.6018 0 4.02921e-15 1.99861 0 0 0.766103 0.0396276 0.00348224 
1995 0.000282743 1 0.831796 0.0358753 0.00333159 0 0 0 8.67766 0 0.720468 2 0 -0.00277371 0.927555 0.0422062 0.00387394 
284 0.000282743 1 0.411137 0.0405785 0.00451512 0 0 0 10.6103 0 0.699122 2 0 -0.00277371 0.458469 0.0477394 0.00525014 
153 0.000282743 1 0.70795 0.0455722 0.00299472 0 0 0 10.6018 0 6.98386e-07 1.99861 0 8.58095e-07 0.789452 0.0536144 0.00348224 
2946 0.000282743 1 0.0526104 0.0503255 0.00299472 0 0 0 10.6018 0 1.59451e-10 1.99861 0 -6.31888e-11 0.0586671 0.0592065 0.00348224 
2245 0.000282743 1 0.153809 0.0511328 0.00299472 0 0 0 10.6018 0 -4.02713e-16 1.99861 0 0 0.171516 0.0601563 0.00348224 
338 0.000282743 1 0.3159 0.0513337 0.00299472 0 0 0 10.6018 0 -1.51454e-15 1.99861 0 0 0.352267 0.0603925 0.00348224 
1949 0.000282743 1 0.558605 0.0494126 0.00299472 0 0 0 10.6018 0 1.4009e-14 1.99861 0 0 0.622913 0.0581325 0.00348224 
1304 0.000282743 1 0.174502 0.0557894 0.00342665 0 0 0 10.6103 0 -0.0792685 2 0 -0.00277371 0.194591 0.0656346 0.00398448 
954 0.000282743 1 0.744364 0.0549755 0.00299472 0 0 0 10.6018 0 2.0659e-14 1.99861 0 0 0.830058 0.064677 0.00348224 
2678 0.000282743 1 0.201508 0.0574585 0.00351196 0 0 0 10.6103 0 -0.0675289 2 0 -0.00277371 0.224707 0.0675982 0.00408368 
2170 0.000282743 1 0.340783 0.0584649 0.00299472 0 0 0 10.6018 0 1.28986e-14 1.99861 0 0 0.380014 0.0687823 0.00348224 
1124 0.000282743 1 0.398488 0.0586676 0.00299472 0 0 0 10.6018 0 1.51167e-14 1.99861 0 0 0.444363 0.0690207 0.00348224 
849 0.000282743 1 0.436722 0.0567479 0.00299472 0 0 0 10.6018 0 -3.93551e-14 1.99861 0 3.03113e-14 0.486998 0.0667623 0.00348224 
2717 0.000282743 1 0.521308 0.0597072 0.00299472 0 0 0 10.5954 -0.00913781 6.24725e-15 1.99861 2.28181e-22 0 0.581323 0.0702438 0.00348224 
2515 0.000282743 1 0.507526 0.0626138 0.00299472 0 0 0 10.6018 0 -1.03798e-14 1.99861 0 0 0.565954 0.0736633 0.00348224 
2174 0.000282743 1 0.724489 0.0611444 0.00299472 0 0 0 10.6018 0 2.0659e-14 1.99861 0 0 0.807894 0.0719345 0.00348224 
795 0.000282743 1 0.632314 0.067813 0.00377483 0 0 0 10.6218 -0.0163322 0.0263202 2 0 -0.00277371 0.705107 0.07978 0.00438934 
1156 0.000282743 1 0.638918 0.064281 0.00299472 0 0 0 10.6018 0 1.51153e-14 1.99861 0 0 0.712472 0.0756247 0.00348224 
2920 0.000282743 1 0.706889 0.0670631 0.00299472 0 0 0 10.6018 0 9.57294e-15 1.99861 0 0 0.788269 0.0788978 0.00348224 
1678 0.000282743 1 0.393583 0.0721212 0.00299472 0 0 0 10.6018 0 -2.61937e-15 1.99861 0 0 0.438893 0.0848485 0.00348224 
1599 0.000282743 1 0.596689 0.0709061 0.00299472 0 0 0 10.6018 0 1.0682e-14 1.99861 0 0 0.665381 0.083419 0.00348224 
367 0.000282743 1 0.21197 0.0743494 0.00299371 0 0 0 10.6 0 0.000428103 1.99826 0 0.000702621 0.236373 0.0874699 0.00348106 
2586 0.000282743 1 0.258449 0.0759655 0.00299472 0 0 0 10.6018 0 -1.14902e-14 1.99861 0 0 0.288202 0.0893711 0.00348224 
2800 0.000282743 1 0.144101 0.0791022 0.00299472 0 0 0 10.6018 0 3.52192e-11 1.99861 0 -6.43208e-11 0.16069 0.0930614 0.00348224 
1017 0.000282743 1 0.204587 0.0776333 0.00299472 0 0 0 10.6018 0 7.35628e-15 1.99861 0 0 0.22814 0.0913333 0.00348224 
1814 0.000282743 1 0.423877 0.0771766 0.00299472 0 0 0 10.6018 0 -7.05549e-15 1.99861 0 0 0.472675 0.090796 0.00348224 
2129 0.000282743 1 0.567609 0.0775321 0.00299472 0 0 0 10.6018 0 7.35628e-15 1.99861 0 0 0.632954 0.0912142 0.00348224 
2636 0.000282743 1 0.607216 0.0790148 0.00481269 0 0 0 10.6103 0 0.693607 2 0 -0.00277371 0.67712 0.0929586 0.00559615 
2996 0.000282743 1 0.24874 0.0806714 0.00298619 0 0 0 10.5935 0 -0.00258545 1.99358 0 0.010057 0.277376 0.0949075 0.00347232 
1806 0.000282743 1 0.254107 0.0875507 0.00366818 0 0 0 10.6103 0 0.05527 2 0 -0.00277371 0.283361 0.103001 0.00426533 
2606 0.000282743 1 0.433638 0.0844638 0.00299473 0 0 0 10.6018 0 4.55165e-07 1.99861 0 -3.55985e-06 0.48356 0.0993692 0.00348224 
2881 0.000282743 1 0.539579 0.0859615 0.00299391 0 0 0 10.1296 -0.0533218 0.25237 1.96123 0.00276322 -0.0805046 0.601697 0.101131 0.00348129 
876 0.000282743 1 0.591184 0.0863357 0.00300627 0 0 0 10.6103 0 -0.0266484 2 0 -0.00277371 0.659243 0.101571 0.00349567 
501 0.000282743 1 0.574809 0.088911 0.00299472 0 0 0 10.6024 -0.0928269 1.96871e-12 1.99861 -1.43397e-18 -1.79248e-13 0.640983 0.104601 0.00348224 
1113 0.000282743 1 0.793367 0.0889938 0.00304848 0 0 0 10.4441 -0.0211443 -0.0736412 2 0 -0.00277371 0.884702 0.104699 0.00354475 
2182 0.000282743 1 0.803086 0.0887182 0.00299472 0 0 0 10.5699 -0.0474681 -4.83116e-10 1.99861 4.37417e-16 8.75785e-11 0.89554 0.104374 0.00348224 
2062 0.000282743 1 0.07902 0.0928605 0.00370499 0 0 0 10.6103 0 -0.0351459 2 0 -0.00277371 0.088117 0.109248 0.00430813 
1907 0.000282743 1 0.814817 0.0974897 0.00299472 0 0 0 10.6413 0.0259884 -8.16592e-15 1.99861 2.91793e-203 0 0.908621 0.114694 0.00348224 
2548 0.000282743 1 0.166507 0.103172 0.00299472 0 0 0 10.6018 0 4.02921e-15 1.99861 0 0 0.185675 0.121379 0.00348224 
1743 0.000282743 1 0.577158 0.101362 0.00299472 0 0 0 10.6324 0.00182936 -8.16732e-15 1.99861 2.85226e-23 0 0.643602 0.119249 0.00348224 
676 0.000282743 1 0.67001 0.101408 0.00305993 0 0 0 10.3089 0 0.126659 2 0 -0.00277371 0.747144 0.119304 0.00355805 
1973 0.000282743 1 0.731521 0.102872 0.00299472 0 0 0 10.6018 0 5.02011e-12 1.99861 0 -7.26872e-12 0.815736 0.121026 0.00348224 
1747 0.000282743 1 0.150121 0.104694 0.00299473 0 0 0 10.6018 0 8.34737e-06 1.99862 0 -4.21695e-06 0.167403 0.123169 0.00348224 
1183 0.000282743 1 0.646355 0.107623 0.00299472 0 0 0 10.6018 0 1.80974e-15 1.99861 0 0 0.720765 0.126615 0.00348224 
1692 0.000282743 1 0.65946 0.105908 0.00337856 0 0 0 10.6103 0 -0.0832401 2 0 -0.00277371 0.73538 0.124598 0.00392855 
1735 0.000282743 1 0.747452 0.105958 0.00299472 0 0 0 10.6018 0 1.20354e-07 1.99861 0 6.92018e-08 0.833501 0.124656 0.00348224 
886 0.000282743 1 0.662842 0.112226 0.00299472 0 0 0 10.6018 0 2.92157e-15 1.99861 0 0 0.739151 0.132031 0.00348224 
220 0.000282743 1 0.759337 0.108588 0.00299472 0 0 0 10.6018 0 4.57974e-07 1.99861 0 9.71072e-07 0.846755 0.12775 0.00348224 
2801 0.000282743 1 0.11477 0.115869 0.00299472 0 0 0 10.6018 0 2.96353e-13 1.99861 0 3.58776e-14 0.127983 0.136317 0.00348224 
1801 0.000282743 1 0.35353 0.113038 0.00299472 0 0 0 10.6018 0 5.61045e-09 1.99861 0 1.17442e-08 0.39423 0.132986 0.00348224 
140 0.000282743 1 0.477488 0.114857 0.00299472 0 0 0 10.6018 0 -7.05549e-15 1.99861 0 0 0.532458 0.135126 0.00348224 
1963 0.000282743 1 0.610194 0.11253 0.00299472 0 0 0 10.6018 0 -4.02723e-16 1.99861 0 0 0.680442 0.132388 0.00348224 
2449 0.000282743 1 0.693194 0.112484 0.00338621 0 0 0 10.6103 0 0.0959489 2 0 -0.00277371 0.772997 0.132334 0.00393745 
934 0.000282743 1 0.809305 0.114351 0.00299472 0 0 0 10.6018 0 -4.02724e-16 1.99861 0 0 0.902475 0.13453 0.00348224 
392 0.000282743 1 0.19493 0.116778 0.00299472 0 0 0 10.6018 0 8.4639e-15 1.99861 0 0 0.217371 0.137385 0.00348224 
1400 0.000282743 1 0.285465 0.118653 0.00363051 0 0 0 10.6103 0 -0.0493824 2 0 -0.00277371 0.318329 0.139592 0.00422153 
2620 0.000282743 1 0.241964 0.122546 0.00299472 0 0 0 10.6018 0 1.46685e-08 1.99861 0 -4.80936e-09 0.26982 0.144171 0.00348224 
2955 0.000282743 1 0.33674 0.121181 0.00299473 0 0 0 10.6018 0 1.5142e-07 1.99861 0 -4.1506e-07 0.375507 0.142565 0.00348224 
2869 0.000282743 1 0.517156 0.121417 0.00299473 0 0 0 10.3705 -0.0239456 -2.49296e-07 1.99861 -2.98845e-13 -9.36089e-08 0.576693 0.142843 0.00348224 
2063 0.000282743 1 0.631234 0.121177 0.00299472 0 0 0 10.6018 0 6.24586e-15 1.99861 0 0 0.703903 0.142561 0.00348224 
2918 0.000282743 1 0.357938 0.125633 0.00373481 0 0 0 10.6103 0 0.0399232 2 0 -0.00277371 0.399145 0.147804 0.0043428 
2312 0.000282743 1 0.81497 0.125933 0.00299472 0 0 0 10.6018 0 -1.48145e-14 1.99861 0 -4.33681e-19 0.908792 0.148157 0.00348224 
1860 0.000282743 1 0.116187 0.130739 0.00299473 0 0 0 10.6018 0 3.63271e-06 1.99862 0 -4.18676e-06 0.129563 0.153811 0.00348224 
719 0.000282743 1 0.522734 0.130383 0.00299472 0 0 0 10.5069 0.0181812 1.47181e-10 1.99861 -1.49812e-17 2.55825e-12 0.582913 0.153391 0.00348224 
1378 0.000282743 1 0.698556 0.132815 0.00371614 0 0 0 10.6103 0 0.0448351 2 0 -0.00277371 0.778976 0.156252 0.00432109 
202 0.000282743 1 0.106022 0.137364 0.00299472 0 0 0 10.6018 0 1.38121e-05 1.99861 0 -1.29664e-06 0.118227 0.161605 0.00348223 
2160 0.000282743 1 0.412816 0.13786 0.00299472 0 0 0 10.5066 -0.116954 -1.14916e-14 1.99861 -3.65089e-21 0 0.460341 0.162188 0.00348224 
1451 0.000282743 1 0.530867 0.138462 0.00299472 0 0 0 10.5547 0.253923 -6.58585e-08 1.99861 -2.37642e-11 7.55302e-07 0.591982 0.162897 0.00348224 
768 0.000282743 1 0.769707 0.136757 0.00299472 0 0 0 10.6018 0 1.6979e-11 1.99861 0 1.07787e-11 0.858318 0.16089 0.00348224 
2451 0.000282743 1 0.0110513 0.14389 0.00357183 0 0 0 10.6103 0 -0.0590336 2 0 -0.00277371 0.0123236 0.169282 0.00415329 
1582 0.000282743 1 0.260021 0.143686 0.00299472 0 0 0 10.6018 0 -5.2576e-10 1.99861 0 1.78656e-10 0.289955 0.169042 0.00348224 
410 0.000282743 1 0.478812 0.144092 0.00304264 0 0 0 10.6103 0 0.00394643 2 0 -0.00277371 0.533934 0.169519 0.00353796 
1246 0.000282743 1 0.0687806 0.149015 0.00299472 0 0 0 10.6208 0.0126758 -1.47209e-12 1.99861 -1.05864e-18 7.10718e-13 0.0766989 0.175312 0.00348224 
2461 0.000282743 1 0.466717 0.148491 0.00299466 0 0 0 10.6016 0 0.000123662 1.99861 0 1.4789e-05 0.520447 0.174695 0.00348216 
2448 0.000282743 1 0.734508 0.149093 0.00299472 0 0 0 10.6018 0 -1.92506e-14 1.99861 0 0 0.819067 0.175404 0.00348224 
233 0.000282743 1 0.791683 0.148966 0.00304711 0 0 0 10.6133 -0.0184066 0.0320315 2 0 -0.00277371 0.882824 0.175255 0.00354315 
2991 0.000282743 1 0.494938 0.153952 0.00299472 0 0 0 10.6018 0 1.72311e-13 1.99861 0 -9.07247e-14 0.551917 0.181119 0.00348224 
1051 0.000282743 1 0.742607 0.153803 0.00339704 0 0 0 10.6103 0 0.0947532 2 0 -0.00277371 0.828099 0.180945 0.00395005 
1576 0.000282743 1 0.566703 0.15931 0.00299472 0 0 0 10.6018 0 8.46391e-15 1.99861 0 0 0.631944 0.187424 0.00348224 
2643 0.000282743 1 0.584303 0.158048 0.00299472 0 0 0 10.6018 0 2.4676e-11 1.99861 0 -2.11295e-12 0.65157 0.185939 0.00348224 
55 0.000282743 1 0.0457855 0.161299 0.00343026 0 0 0 9.25402 0 0.723594 2 0 -0.00277371 0.0510565 0.189764 0.00398867 
1415 0.000282743 1 0.178251 0.161792 0.00301213 0 0 0 10.6103 0 -0.0241247 2 0 -0.00277371 0.198771 0.190344 0.00350247 
1669 0.000282743 1 0.262905 0.163659 0.00299472 0 0 0 10.6018 0 -1.48173e-14 1.99861 0 0 0.293171 0.19254 0.00348224 
1592 0.000282743 1 0.198018 0.165431 0.00299472 0 0 0 10.6018 0 -1.48159e-14 1.99861 0 0 0.220814 0.194625 0.00348224 
2682 0.000282743 1 0.269732 0.164924 0.00299472 0 0 0 10.6018 0 1.17896e-14 1.99861 0 0 0.300785 0.194028 0.00348224 
2962 0.000282743 1 0.463229 0.168313 0.00299472 0 0 0 10.6018 0 5.13963e-15 1.99861 0 0 0.516558 0.198015 0.00348224 
344 0.000282743 1 0.52165 0.167356 0.00300701 0 0 0 10.6103 0 -0.0260838 2 0 -0.00277371 0.581703 0.196889 0.00349652 
989 0.000282743 1 0.105234 0.171479 0.00356516 0 0 0 10.9093 0.184532 -0.00493927 2 0 -0.00277371 0.117348 0.20174 0.00414554 
330 0.000282743 1 0.252984 0.168157 0.00299473 0 0 0 10.7621 -0.198191 -1.65623e-06 1.99861 -9.45363e-12 -3.38433e-07 0.282109 0.197831 0.00348224 
826 0.000282743 1 0.820637 0.171297 0.00299472 0 0 0 10.6018 0 8.46389e-15 1.99861 0 0 0.915111 0.201525 0.00348224 
543 0.000282743 1 0.0461515 0.17302 0.00303861 0 0 0 10.6103 0 0.010625 2 0 -0.00277371 0.0514647 0.203553 0.00353327 
1293 0.000282743 1 0.311355 0.174331 0.00299472 0 0 0 10.6018 0 1.81113e-15 1.99861 0 0 0.347199 0.205096 0.00348224 
221 0.000282743 1 0.371336 0.172561 0.00299472 0 0 0 10.6018 0 6.24724e-15 1.99861 0 0 0.414086 0.203013 0.00348224 
113 0.000282743 1 0.383474 0.174128 0.00299472 0 0 0 10.6018 0 -3.73119e-15 1.99861 0 0 0.427621 0.204856 0.00348224 
178 0.000282743 1 0.620248 0.174539 0.00288996 0 0 0 10.3277 0 -0.00704264 1.86398 0 0.269275 0.691653 0.20534 0.00336042 
2278 0.000282743 1 0.268317 0.179744 0.00299472 0 0 0 10.6018 0 -1.37069e-14 1.99861 0 0 0.299206 0.211463 0.00348224 
2281 0.000282743 1 0.403104 0.179038 0.00300432 0 0 0 10.528 0 0.0279487 2 0 -0.00277371 0.449511 0.210633 0.00349339 
418 0.000282743 1 0.670837 0.176458 0.00299472 0 0 0 10.6018 0 2.14084e-10 1.99861 0 -3.62675e-11 0.748065 0.207597 0.00348224 
921 0.000282743 1 0.816649 0.178483 0.0033466 0 0 0 10.6103 0 0.100117 2 0 -0.00277371 0.910665 0.20998 0.0038914 
1998 0.000282743 1 0.113315 0.183085 0.00320316 0 0 0 10.6103 0 -0.101239 2 0 -0.00277371 0.12636 0.215394 0.0037246 
2976 0.000282743 1 0.245775 0.187992 0.00299472 0 0 0 10.6202 -0.00281716 8.4639e-15 1.99861 -1.85223e-204 0 0.27407 0.221167 0.00348224 
538 0.000282743 1 0.641991 0.185123 0.00299472 0 0 0 10.5531 -0.149661 2.2891e-07 1.99861 -1.89652e-12 -1.08385e-07 0.7159 0.217791 0.00348224 
1164 0.000282743 1 0.455417 0.190194 0.00299472 0 0 0 10.866 0.324661 5.79378e-07 1.99861 -1.97914e-11 4.7477e-07 0.507846 0.223757 0.00348224 
87 0.000282743 1 0.518862 0.189503 0.00299472 0 0 0 10.6018 0 7.35628e-15 1.99861 0 0 0.578595 0.222945 0.00348224 
2327 0.000282743 1 0.564942 0.192086 0.00299583 0 0 0 10.6084 0 -0.0262595 1.99519 0 0.0068461 0.62998 0.225984 0.00348353 
2888 0.000282743 1 0.221293 0.194201 0.00299467 0 0 0 10.4743 0.0698881 -6.5701e-05 1.99858 -5.691e-10 6.62635e-05 0.246769 0.228472 0.00348217 
371 0.000282743 1 0.304225 0.193043 0.00299472 0 0 0 10.6018 0 1.29e-14 1.99861 0 0 0.339249 0.22711 0.00348224 
2202 0.000282743 1 0.100065 0.202405 0.00376238 0 0 0 10.6103 0 0.0306795 2 0 -0.00277371 0.111585 0.238123 0.00437486 
2830 0.000282743 1 0.507635 0.204474 0.00299472 0 0 0 10.6018 0 -1.03798e-14 1.99861 0 0 0.566076 0.240558 0.00348224 
961 0.000282743 1 0.803697 0.208214 0.00299472 0 0 0 10.6018 0 -1.37069e-14 1.99861 0 0 0.896221 0.244958 0.00348224 
1172 0.000282743 1 0.0608636 0.211557 0.00299473 0 0 0 10.6018 0 4.03062e-06 1.99862 0 -4.21931e-06 0.0678704 0.24889 0.00348224 
2621 0.000282743 1 0.117608 0.209732 0.00299472 0 0 0 10.6018 0 -7.05689e-15 1.99861 0 0 0.131147 0.246743 0.00348224 
2109 0.000282743 1 0.329766 0.210491 0.00299472 0 0 0 10.6018 0 2.06604e-14 1.99861 0 0 0.36773 0.247637 0.00348224 
1885 0.000282743 1 0.349548 0.209041 0.00443295 0 0 0 10.6103 0 0.706322 2 0 -0.00277371 0.389789 0.245931 0.00515459 
1957 0.000282743 1 0.832637 0.213694 0.00328907 0 0 0 8.53031 0 0.721835 2 0 -0.00277371 0.928493 0.251405 0.0038245 
2297 0.000282743 1 0.0515447 0.216819 0.00299472 0 0 0 10.6324 -0.0188337 1.07321e-06 1.99861 7.57645e-14 2.67163e-09 0.0574787 0.255081 0.00348224 
2132 0.000282743 1 0.480832 0.218281 0.00299472 0 0 0 10.6018 0 -8.16593e-15 1.99861 0 0 0.536187 0.256801 0.00348224 
1444 0.000282743 1 0.723545 0.218083 0.00348557 0 0 0 10.6103 0 0.084284 2 0 -0.00277371 0.806841 0.256568 0.00405299 
145 0.000282743 1 0.0131541 0.221422 0.00299473 0 0 0 10.6417 0.019198 1.58209e-06 1.99861 6.69577e-12 -2.8547e-06 0.0146684 0.260496 0.00348224 
2512 0.000282743 1 0.704732 0.222269 0.00309974 0 0 0 10.8871 -0.385685 -0.1543 2 0 -0.00277371 0.785863 0.261492 0.00360435 
254 0.000282743 1 0.403714 0.224656 0.00303757 0 0 0 10.6103 0 -0.010195 2 0 -0.00277371 0.450191 0.264301 0.00353206 
2849 0.000282743 1 0.548501 0.227689 0.00299472 0 0 0 10.6018 0 -2.36299e-12 1.99861 0 -5.27543e-12 0.611646 0.267869 0.00348224 
296 0.000282743 1 0.577082 0.224851 0.00319109 0 0 0 10.2483 -0.409167 0.0334457 2 0 -0.00277371 0.643517 0.26453 0.00371058 
256 0.000282743 1 0.683129 0.227282 0.00299472 0 0 0 10.6018 0 1.4009e-14 1.99861 0 0 0.761773 0.26739 0.00348224 
2268 0.000282743 1 0.71843 0.228448 0.00299472 0 0 0 10.6018 0 -6.50272e-12 1.99861 0 -2.89646e-12 0.801138 0.268762 0.00348224 
757 0.000282743 1 0.659901 0.240211 0.00309928 0 0 0 10.7271 0.417477 0.0878686 2 0 -0.00277371 0.735871 0.282601 0.00360382 
887 0.000282743 1 0.84729 0.240422 0.00299155 0 0 0 -0.51273 -0.0587273 -0.00433743 1.32572 -0.000813996 0.000734654 0.944832 0.28285 0.00347855 
2986 0.000282743 1 0.683054 0.242496 0.00299472 0 0 0 10.604 -0.198296 -4.13523e-09 1.99861 -6.05299e-14 -2.34372e-09 0.76169 0.28529 0.00348224 
188 0.000282743 1 0.817221 0.243452 0.00299472 0 0 0 10.6276 -0.0558365 -1.14902e-14 1.99861 -5.83401e-203 0 0.911303 0.286414 0.00348224 
2563 0.000282743 1 0.696752 0.250185 0.003308 0 0 0 10.9018 0.0378063 -0.071685 2 0 -0.00277371 0.776964 0.294335 0.00384651 
1096 0.000282743 1 0.79313 0.249488 0.00299467 0 0 0 10.6019 0 -0.000234109 1.99856 0 0.000112822 0.884437 0.293515 0.00348218 
399 0.000282743 1 0.676961 0.253177 0.00299472 0 0 0 10.6018 0 -7.05548e-15 1.99861 0 0 0.754894 0.297855 0.00348224 
253 0.000282743 1 0.276616 0.260054 0.00299472 0 0 0 10.6018 0 1.73319e-14 1.99861 0 0 0.308461 0.305946 0.00348224 
185 0.000282743 1 0.433699 0.259601 0.00299472 0 0 0 10.6018 0 5.88298e-15 1.99861 0 -7.45367e-15 0.483628 0.305413 0.00348224 
211 0.000282743 1 0.517854 0.256715 0.00299472 0 0 0 10.6018 0 -1.03812e-14 1.99861 0 0 0.577472 0.302018 0.00348224 
2020 0.000282743 1 0.721372 0.258997 0.00378231 0 0 0 10.6103 0 -0.00212419 2 0 -0.00277371 0.804419 0.304702 0.00439803 
2140 0.000282743 1 0.574808 0.263374 0.00309087 0 0 0 10.6602 -0.170581 -0.00270836 2 0 -0.00277371 0.640982 0.309852 0.00359404 
1897 0.000282743 1 0.588257 0.262855 0.00299416 0 0 0 11.0009 -0.41974 0.000370795 1.99844 2.19303e-08 0.00034552 0.655979 0.309241 0.00348158 
1100 0.000282743 1 0.786961 0.264284 0.00313691 0 0 0 10.5295 -0.0864587 -0.0630714 2 0 -0.00277371 0.877559 0.310922 0.00364757 
2290 0.000282743 1 0.613563 0.266087 0.00299472 0 0 0 10.7729 0.193438 2.85426e-06 1.99861 2.02445e-12 -1.63408e-07 0.684198 0.313043 0.00348224 
1831 0.000282743 1 0.800463 0.266744 0.00299474 0 0 0 10.1598 0.189503 -1.52193e-05 1.99862 2.49325e-10 -1.02273e-05 0.892615 0.313817 0.00348226 
1816 0.000282743 1 0.321787 0.27068 0.00355802 0 0 0 10.6103 0 0.0742488 2 0 -0.00277371 0.358832 0.318447 0.00413723 
2558 0.000282743 1 0.562868 0.269323 0.00291511 0 0 0 10.3885 -0.286477 -0.0835639 1.88422 0.0116289 0.230063 0.627667 0.31685 0.00338967 
2901 0.000282743 1 0.0660331 0.273057 0.00349519 0 0 0 10.6103 0 0.0831863 2 0 -0.00277371 0.0736351 0.321243 0.00406418 
823 0.000282743 1 0.543294 0.273054 0.00299472 0 0 0 10.6018 0 -2.11631e-10 1.99861 0 -4.27928e-10 0.60584 0.32124 0.00348224 
1670 0.000282743 1 0.129454 0.28049 0.00309132 0 0 0 10.6103 0 -0.11113 2 0 -0.00277371 0.144357 0.329989 0.00359456 
2522 0.000282743 1 0.305899 0.277552 0.00299472 0 0 0 10.6018 0 -7.05688e-15 1.99861 0 0 0.341115 0.326531 0.00348224 
63 0.000282743 1 0.351568 0.281348 0.00299472 0 0 0 10.6018 0 -2.41269e-14 1.99861 0 3.07462e-14 0.392042 0.330997 0.00348224 
1438 0.000282743 1 0.82237 0.281051 0.00299472 0 0 0 10.938 0.0773026 -3.55555e-11 1.99861 1.11364e-16 -1.06079e-11 0.917043 0.330648 0.00348224 
1887 0.000282743 1 0.0339917 0.286407 0.00298944 0 0 0 10.5776 0 0.00993279 1.99789 0 0.00144838 0.0379049 0.336949 0.00347609 
526 0.000282743 1 0.0797742 0.287573 0.00371831 0 0 0 10.6249 -0.212308 0.475452 2 0 -0.00277371 0.0889581 0.338321 0.00432361 
2585 0.000282743 1 0.105465 0.286911 0.00319527 0 0 0 10.4603 -0.206282 0.00785288 2 0 -0.00277371 0.117606 0.337542 0.00371543 
1911 0.000282743 1 0.137184 0.285594 0.00299472 0 0 0 10.6018 0 1.51167e-14 1.99861 0 0 0.152978 0.335993 0.00348224 
706 0.000282743 1 0.165809 0.286103 0.00299472 0 0 0 10.6018 0 1.27277e-07 1.99861 0 6.48993e-08 0.184898 0.336592 0.00348224 
2507 0.000282743 1 0.352985 0.288627 0.00299472 0 0 0 10.6018 0 -1.37083e-14 1.99861 0 0 0.393621 0.339562 0.00348224 
2737 0.000282743 1 0.804843 0.284972 0.00340172 0 0 0 10.6153 0.113455 -0.0237888 2 0 -0.00277371 0.897499 0.335261 0.00395549 
987 0.000282743 1 0.0251703 0.291819 0.00319154 0 0 0 10.6103 0 -0.101887 2 0 -0.00277371 0.028068 0.343316 0.00371109 
1265 0.000282743 1 0.195852 0.289064 0.00299409 0 0 0 9.7185 -0.383281 -0.000546649 1.99826 3.85317e-08 0.000696738 0.218399 0.340075 0.00348149 
1696 0.000282743 1 0.801043 0.289703 0.00299477 0 0 0 10.6257 0.139312 -1.807e-05 1.99863 5.74401e-10 -3.32136e-05 0.893262 0.340827 0.0034823 
2206 0.000282743 1 0.301455 0.296082 0.00299472 0 0 0 10.5495 -0.133467 -1.11085e-07 1.99861 7.05791e-13 4.56586e-08 0.33616 0.348332 0.00348224 
2838 0.000282743 1 0.691225 0.296926 0.00299476 0 0 0 10.6018 0 2.4572e-05 1.99863 0 -3.69332e-05 0.770801 0.349325 0.00348228 
818 0.000282743 1 0.0522208 0.301929 0.00299472 0 0 0 10.6018 0 5.13823e-15 1.99861 0 0 0.0582326 0.35521 0.00348224 
2407 0.000282743 1 0.17724 0.304103 0.00299472 0 0 0 10.6018 0 -1.51454e-15 1.99861 0 0 0.197645 0.357769 0.00348224 
1751 0.000282743 1 0.661171 0.304606 0.00299472 0 0 0 10.7184 -0.0736444 1.73319e-14 1.99861 -3.65089e-21 0 0.737287 0.35836 0.00348224 
1687 0.000282743 1 0.819713 0.302054 0.00299282 0 0 0 10.6561 -0.0416125 -0.00420088 1.99709 8.9842e-09 0.00304955 0.914081 0.355358 0.00348002 
2457 0.000282743 1 0.373367 0.305371 0.00299472 0 0 0 10.6018 0 5.45283e-08 1.99861 0 -5.20079e-08 0.41635 0.359261 0.00348224 
2082 0.000282743 1 0.38601 0.30527 0.00299473 0 0 0 10.6018 0 -4.98324e-07 1.99861 0 -6.54746e-08 0.430449 0.359142 0.00348224 
1274 0.000282743 1 0.714893 0.305677 0.00309668 0 0 0 10.4877 0 0.123723 2 0 -0.00277371 0.797194 0.359621 0.00360079 
2380 0.000282743 1 0.462327 0.312551 0.00299472 0 0 0 10.6018 0 7.0632e-16 1.99861 0 0 0.515552 0.367707 0.00348224 
468 0.000282743 1 0.734676 0.310431 0.00379478 0 0 0 10.6103 0 0.00653665 2 0 -0.00277371 0.819255 0.365213 0.00441253 
2146 0.000282743 1 0.509824 0.315994 0.00362939 0 0 0 10.6103 0 -0.0504809 2 0 -0.00277371 0.568517 0.371757 0.00422022 
1032 0.000282743 1 0.799604 0.317996 0.00358544 0 0 0 10.3448 0.210487 -0.144561 2 0 -0.00277371 0.891657 0.374113 0.00416912 
1872 0.000282743 1 0.131599 0.322878 0.00305782 0 0 0 10.8848 0.396509 0.0469634 2 0 -0.00277371 0.146749 0.379856 0.00355561 
1798 0.000282743 1 0.512548 0.324741 0.00299472 0 0 0 10.6018 0 2.06167e-11 1.99861 0 7.92815e-12 0.571554 0.382048 0.00348224 
2022 0.000282743 1 0.102146 0.327677 0.0037847 0 0 0 10.6103 0 0.0202949 2 0 -0.00277371 0.113906 0.385502 0.00440082 
677 0.000282743 1 0.116459 0.32702 0.00322785 0 0 0 10.6103 0 0.111657 2 0 -0.00277371 0.129866 0.384729 0.00375332 
401 0.000282743 1 0.686986 0.326817 0.00361261 0 0 0 10.6103 0 -0.053463 2 0 -0.00277371 0.766074 0.38449 0.00420071 
1709 0.000282743 1 0.75784 0.327373 0.00324402 0 0 0 10.6103 0 -0.0975603 2 0 -0.00277371 0.845085 0.385144 0.00377212 
1869 0.000282743 1 0.779376 0.328346 0.00315759 0 0 0 10.7618 -0.0917282 -0.0532646 2 0 -0.00277371 0.8691 0.38629 0.00367162 
2007 0.000282743 1 0.517816 0.332481 0.00321097 0 0 0 10.6103 0 -0.100685 2 0 -0.00277371 0.577428 0.391154 0.00373369 
889 0.000282743 1 0.763822 0.332253 0.00299473 0 0 0 10.6571 -0.113567 -9.89618e-06 1.99861 1.84488e-11 1.58063e-06 0.851755 0.390885 0.00348224 
1352 0.000282743 1 0.770484 0.329447 0.00367848 0 0 0 10.6103 0 0.0532237 2 0 -0.00277371 0.859185 0.387585 0.0042773 
1496 0.000282743 1 0.793943 0.329645 0.00299472 0 0 0 10.6018 0 2.92156e-15 1.99861 0 0 0.885344 0.387817 0.00348224 
1236 0.000282743 1 0.0391806 0.333239 0.00299583 0 0 0 10.6073 0 -0.00343493 1.99852 0 0.000176616 0.0436912 0.392045 0.00348352 
2590 0.000282743 1 0.615249 0.333597 0.00299472 0 0 0 10.3761 0.142456 1.92768e-14 1.99861 7.30178e-21 -6.03684e-16 0.686078 0.392467 0.00348224 
2583 0.000282743 1 0.612484 0.343757 0.00299472 0 0 0 10.6018 0 -5.32524e-08 1.99861 0 -1.06209e-08 0.682995 0.40442 0.00348224 
1892 0.000282743 1 0.334883 0.348409 0.00299472 0 0 0 10.6018 0 -1.37069e-14 1.99861 0 0 0.373435 0.409893 0.00348224 
2074 0.000282743 1 0.392566 0.348702 0.00328156 0 0 0 10.3302 0.335018 -0.0437485 2 0 -0.00277371 0.43776 0.410237 0.00381576 
95 0.000282743 1 0.658507 0.347146 0.00299461 0 0 0 10.6016 0 -1.57276e-05 1.99856 0 9.86392e-05 0.734316 0.408407 0.0034821 
1785 0.000282743 1 0.361687 0.355491 0.00299473 0 0 0 10.6018 0 -5.12083e-07 1.99861 0 -3.78882e-08 0.403326 0.418224 0.00348224 
551 0.000282743 1 0.73998 0.356357 0.00299472 0 0 0 10.4787 0.095599 1.35655e-10 1.99861 -4.8271e-15 -1.26816e-10 0.825168 0.419243 0.00348224 
130 0.000282743 1 0.116302 0.363226 0.00299472 0 0 0 10.6018 0 8.4639e-15 1.99861 0 0 0.129691 0.427324 0.00348224 
1601 0.000282743 1 0.347742 0.362917 0.00384176 0 0 0 10.576 0.0343134 -0.0535352 2 0 -0.00277371 0.387775 0.426961 0.00446716 
1535 0.000282743 1 0.505723 0.361707 0.00299472 0 0 0 10.6018 0 -7.05549e-15 1.99861 0 0 0.563943 0.425537 0.00348224 
1273 0.000282743 1 0.753132 0.362216 0.00299472 0 0 0 10.6018 0 -8.76732e-14 1.99861 0 -2.65794e-14 0.839835 0.426136 0.00348224 
2253 0.000282743 1 0.442202 0.366363 0.00299472 0 0 0 10.6018 0 6.75165e-14 1.99861 0 1.98354e-13 0.49311 0.431015 0.00348224 
2998 0.000282743 1 0.416258 0.371522 0.00299472 0 0 0 10.6018 0 1.60709e-08 1.99861 0 -4.60892e-08 0.464179 0.437085 0.00348224 
1754 0.000282743 1 0.202966 0.374077 0.0037619 0 0 0 10.458 -0.0341775 0.448113 2 0 -0.00277371 0.226332 0.440091 0.00437431 
2273 0.000282743 1 0.281174 0.374454 0.00299472 0 0 0 10.6018 0 -1.25978e-14 1.99861 0 0 0.313544 0.440534 0.00348224 
1390 0.000282743 1 0.466883 0.378701 0.00299472 0 0 0 10.6018 0 1.17896e-14 1.99861 0 0 0.520632 0.445531 0.00348224 
1874 0.000282743 1 0.684554 0.377688 0.00299472 0 0 0 10.6018 0 1.06834e-14 1.99861 0 0 0.763362 0.444339 0.00348224 
1065 0.000282743 1 0.763956 0.379159 0.00299472 0 0 0 10.6018 0 1.53265e-09 1.99861 0 -5.54303e-10 0.851905 0.446069 0.00348224 
1818 0.000282743 1 0.817386 0.380627 0.0029939 0 0 0 10.5806 0 0.00880079 1.99969 0 -0.00215011 0.911487 0.447796 0.00348128 
161 0.000282743 1 0.0635026 0.381082 0.00299488 0 0 0 10.6012 0 0.000695565 1.99878 0 -0.000337714 0.0708133 0.448331 0.00348242 
2855 0.000282743 1 0.545451 0.382251 0.00332607 0 0 0 10.6716 -0.0717648 -0.0904522 2 0 -0.00277371 0.608245 0.449707 0.00386753 
2064 0.000282743 1 0.573855 0.383106 0.00374757 0 0 0 10.6103 0 -0.0251316 2 0 -0.00277371 0.639919 0.450713 0.00435764 
2148 0.000282743 1 0.783275 0.382648 0.00299472 0 0 0 10.6018 0 5.73933e-11 1.99861 0 -6.74627e-11 0.873448 0.450175 0.00348224 
1280 0.000282743 1 0.823684 0.382849 0.00299472 0 0 0 10.6018 0 -5.94646e-15 1.99861 0 0 0.918509 0.450411 0.00348224 
417 0.000282743 1 0.542071 0.387453 0.00299444 0 0 0 10.6728 -0.0242255 0.000385537 1.99856 3.81905e-09 0.000106824 0.604476 0.455827 0.00348191 
2655 0.000282743 1 0.632413 0.387301 0.00299472 0 0 0 10.6018 0 -7.41145e-14 1.99861 0 -3.83521e-14 0.705218 0.455648 0.00348224 
2944 0.000282743 1 0.707219 0.386798 0.00369922 0 0 0 10.6103 0 0.0490516 2 0 -0.00277371 0.788637 0.455057 0.00430142 
800 0.000282743 1 0.725216 0.388414 0.00299472 0 0 0 10.6018 0 -1.37924e-09 1.99861 0 -4.11643e-09 0.808706 0.456958 0.00348224 
354 0.000282743 1 0.336503 0.389325 0.00299473 0 0 0 10.6018 0 -3.65023e-05 1.99861 0 8.98987e-06 0.375243 0.458029 0.00348224 
2735 0.000282743 1 0.847289 0.391249 0.00370487 0 0 0 -0.543155 0 0.0310546 1.3515 0 -0.00207537 0.944832 0.460292 0.00430798 
2242 0.000282743 1 0.210473 0.397517 0.00299472 0 0 0 10.6018 0 -2.00933e-09 1.99861 0 -3.86248e-09 0.234703 0.467668 0.00348224 