ITEM: TIMESTEP
25650
ITEM: NUMBER OF ATOMS
3000
ITEM: BOX BOUNDS mm mm mm
0 2.18906
0 0.85
0 0.86
ITEM: ATOMS id mass type x y z ix iy iz vx vy vz fx fy fz xs ys zs 
2788 0.000282743 1 0.324153 0.00364332 0.00299472 0 0 0 45.945 0 5.13963e-15 1.99861 0 0 0.148078 0.00428626 0.00348224 
1319 0.000282743 1 0.635791 0.00389763 0.00299472 0 0 0 45.945 0 -1.59235e-14 1.99861 0 0 0.29044 0.00458545 0.00348224 
24 0.000282743 1 0.421923 0.00725002 0.00824502 0 0 0 45.9781 0 0.649715 2 0 -0.00277371 0.192741 0.00852944 0.00958723 
315 0.000282743 1 0.591033 0.0078913 0.00299472 0 0 0 45.945 0 1.17896e-14 1.99861 0 0 0.269993 0.00928389 0.00348224 
926 0.000282743 1 0.89796 0.0180114 0.00316138 0 0 0 37.4829 7.83135 0.401691 2 0 -0.00277371 0.410203 0.0211899 0.00367602 
610 0.000282743 1 0.227112 0.013257 0.0037342 0 0 0 45.9781 0 -0.0362234 2 0 -0.00277371 0.103748 0.0155965 0.00434209 
626 0.000282743 1 0.291887 0.0136063 0.00299472 0 0 0 45.945 0 7.35628e-15 1.99861 0 0 0.133339 0.0160075 0.00348224 
229 0.000282743 1 0.499858 0.0159379 0.0037736 0 0 0 45.9781 0 0.0378854 2 0 -0.00277371 0.228343 0.0187505 0.0043879 
1485 0.000282743 1 0.668462 0.0121932 0.00299472 0 0 0 45.945 0 -7.67658e-09 1.99861 0 1.62868e-08 0.305364 0.0143449 0.00348224 
281 0.000282743 1 0.741491 0.0121888 0.00299472 0 0 0 45.945 0 -7.0555e-15 1.99861 0 0 0.338725 0.0143397 0.00348224 
1922 0.000282743 1 0.774022 0.0121066 0.00299472 0 0 0 45.9431 0.0118845 -8.09694e-14 1.99861 1.95975e-19 -9.74264e-15 0.353586 0.0142431 0.00348224 
2338 0.000282743 1 0.323199 0.0166446 0.00299802 0 0 0 45.9498 0 0.00166597 1.99989 0 -0.00254754 0.147643 0.0195819 0.00348607 
2752 0.000282743 1 0.442042 0.0171987 0.00299472 0 0 0 45.945 0 -1.70305e-14 1.99861 0 -8.67362e-19 0.201932 0.0202338 0.00348224 
662 0.000282743 1 0.235447 0.0227621 0.00299472 0 0 0 45.945 0 -1.45673e-14 1.99861 0 -1.45283e-15 0.107556 0.026779 0.00348224 
136 0.000282743 1 0.8747 0.0228154 0.00368135 0 0 0 22.7541 0 -0.00895233 2 0 -0.00277371 0.399577 0.0268417 0.00428064 
312 0.000282743 1 0.881513 0.0237223 0.00299441 0 0 0 23.4999 0 -0.00247423 1.9981 0 0.00103058 0.40269 0.0279086 0.00348187 
2385 0.000282743 1 0.175516 0.0271591 0.00299472 0 0 0 45.945 0 -4.84163e-15 1.99861 0 0 0.0801788 0.0319519 0.00348224 
356 0.000282743 1 0.832637 0.0274179 0.00380769 0 0 0 45.9781 0 -0.0124395 2 0 -0.00277371 0.380362 0.0322564 0.00442755 
2171 0.000282743 1 0.842843 0.0307014 0.00299472 0 0 0 45.945 0 -9.27214e-15 1.99861 0 0 0.385024 0.0361193 0.00348224 
2212 0.000282743 1 0.847468 0.0275128 0.0122828 0 0 0 -0.122002 -0.972386 3.68145 -0.206388 -0.00250496 0.00788684 0.387137 0.032368 0.0142823 
2165 0.000282743 1 0.828379 0.0336834 0.00299472 0 0 0 45.945 0 4.02921e-15 1.99861 0 0 0.378417 0.0396276 0.00348224 
1995 0.000282743 1 0.846681 0.0399133 0.0132084 0 0 0 -1.02446 -0.49472 -0.32258 2 0 -0.00277371 0.386778 0.0469568 0.0153586 
284 0.000282743 1 0.552608 0.0405785 0.0078881 0 0 0 45.9781 0 0.650072 2 0 -0.00277371 0.252441 0.0477394 0.00917221 
153 0.000282743 1 0.849089 0.0455722 0.00299502 0 0 0 35.7708 0 0.0120174 -70.8231 0 0.0647831 0.387878 0.0536144 0.00348259 
2946 0.000282743 1 0.193977 0.0503255 0.00299472 0 0 0 45.945 0 -6.11782e-12 1.99861 0 -3.49324e-12 0.0886121 0.0592065 0.00348224 
2245 0.000282743 1 0.295176 0.0511328 0.00299472 0 0 0 45.945 0 -4.02713e-16 1.99861 0 0 0.134841 0.0601563 0.00348224 
338 0.000282743 1 0.457267 0.0513337 0.00299472 0 0 0 45.945 0 -1.51454e-15 1.99861 0 0 0.208887 0.0603925 0.00348224 
1949 0.000282743 1 0.699972 0.0494126 0.00299472 0 0 0 45.945 0 1.4009e-14 1.99861 0 0 0.319759 0.0581325 0.00348224 
1304 0.000282743 1 0.315945 0.0557894 0.00296267 0 0 0 45.9025 0 0.0227847 1.97946 0 0.0383094 0.144329 0.0656346 0.00344497 
954 0.000282743 1 0.866355 0.0549755 0.00299655 0 0 0 22.3985 0 -0.00188067 1.99901 0 -0.000788278 0.395765 0.064677 0.00348436 
2678 0.000282743 1 0.34298 0.0574585 0.00305169 0 0 0 45.9781 0 -0.116579 2 0 -0.00277371 0.156679 0.0675982 0.00354848 
2170 0.000282743 1 0.482149 0.0584649 0.00299472 0 0 0 45.945 0 1.28986e-14 1.99861 0 0 0.220254 0.0687823 0.00348224 
1124 0.000282743 1 0.539855 0.0586676 0.00299472 0 0 0 45.945 0 1.51167e-14 1.99861 0 0 0.246614 0.0690207 0.00348224 
849 0.000282743 1 0.578089 0.0567479 0.00299472 0 0 0 45.945 0 -1.72378e-14 1.99861 0 -2.81025e-16 0.26408 0.0667623 0.00348224 
2717 0.000282743 1 0.662643 0.0596615 0.00299472 0 0 0 45.9386 -0.00913781 6.24725e-15 1.99861 5.24979e-23 0 0.302706 0.07019 0.00348224 
2515 0.000282743 1 0.648893 0.0626138 0.00299472 0 0 0 45.945 0 -1.03798e-14 1.99861 0 0 0.296425 0.0736633 0.00348224 
2174 0.000282743 1 0.857005 0.0611444 0.00299738 0 0 0 20.4458 0 0.00135915 1.9997 0 -0.00216734 0.391494 0.0719345 0.00348533 
795 0.000282743 1 0.773842 0.0677313 0.00378381 0 0 0 45.9896 -0.0163322 -0.0227298 2 0 -0.00277371 0.353504 0.0796839 0.00439977 
1156 0.000282743 1 0.780285 0.064281 0.00299472 0 0 0 45.945 0 1.51153e-14 1.99861 0 0 0.356447 0.0756247 0.00348224 
2920 0.000282743 1 0.848208 0.0670631 0.00299479 0 0 0 41.5395 0 0.00577305 -58.7246 0 0.0688379 0.387476 0.0788978 0.00348232 
1678 0.000282743 1 0.53495 0.0721212 0.00299472 0 0 0 45.945 0 -2.61937e-15 1.99861 0 0 0.244374 0.0848485 0.00348224 
1599 0.000282743 1 0.738055 0.0709061 0.00299472 0 0 0 45.945 0 1.0682e-14 1.99861 0 0 0.337156 0.083419 0.00348224 
367 0.000282743 1 0.353329 0.0743494 0.00299472 0 0 0 45.9434 0 0.000105226 1.99863 0 -3.17155e-05 0.161406 0.0874699 0.00348224 
2586 0.000282743 1 0.399816 0.0759655 0.00299472 0 0 0 45.945 0 -1.14902e-14 1.99861 0 0 0.182642 0.0893711 0.00348224 
2800 0.000282743 1 0.285468 0.0791022 0.00299472 0 0 0 45.945 0 -8.58454e-12 1.99861 0 5.39297e-13 0.130406 0.0930614 0.00348224 
1017 0.000282743 1 0.345954 0.0776333 0.00299472 0 0 0 45.945 0 7.35628e-15 1.99861 0 0 0.158038 0.0913333 0.00348224 
1814 0.000282743 1 0.5692 0.0757659 0.0026966 0 0 0 50.4174 -1.87162 2.55225 1.11265 0.153334 -0.754402 0.26002 0.0891363 0.00313558 
2129 0.000282743 1 0.708976 0.0775321 0.00299472 0 0 0 45.945 0 7.35628e-15 1.99861 0 0 0.323872 0.0912142 0.00348224 
2636 0.000282743 1 0.748687 0.0790148 0.0081581 0 0 0 45.9781 0 0.644557 2 0 -0.00277371 0.342012 0.0929586 0.00948617 
2996 0.000282743 1 0.390055 0.0806714 0.00299446 0 0 0 45.9348 0 0.00114102 1.99869 0 -0.000146376 0.178183 0.0949075 0.00348193 
1806 0.000282743 1 0.395578 0.0875507 0.00382191 0 0 0 45.9781 0 0.00621996 2 0 -0.00277371 0.180707 0.103001 0.00444408 
2606 0.000282743 1 0.575005 0.0844638 0.00299472 0 0 0 45.945 0 -5.02985e-07 1.99861 0 7.79204e-08 0.262672 0.0993692 0.00348224 
2881 0.000282743 1 0.678632 0.0856958 0.00410506 0 0 0 45.4946 -0.0531234 0.197693 2 0 -0.00277371 0.31001 0.100819 0.00477332 
876 0.000282743 1 0.732533 0.0863357 0.00299365 0 0 0 45.9403 0 -0.000295169 1.99812 0 0.0009928 0.334633 0.101571 0.00348099 
501 0.000282743 1 0.71618 0.0884469 0.00299472 0 0 0 45.9457 -0.0928269 1.13879e-14 1.99861 -6.18216e-19 -5.86861e-14 0.327163 0.104055 0.00348224 
1113 0.000282743 1 0.832523 0.0984733 0.00321005 0 0 0 0.354839 4.43129 0.085437 2 0 -0.00277371 0.38031 0.115851 0.00373262 
2182 0.000282743 1 0.847212 0.0881119 0.00299396 0 0 0 5.40684 -0.269471 0.00161655 -2.94931 -0.192514 -0.0212403 0.38702 0.103661 0.00348135 
2062 0.000282743 1 0.220491 0.0928605 0.00340663 0 0 0 45.9781 0 -0.0841959 2 0 -0.00277371 0.100724 0.109248 0.0039612 
1907 0.000282743 1 0.847093 0.100274 0.00341582 0 0 0 1.14212 2.5271 0.279274 1.08496 0.0359192 -0.0147829 0.386966 0.117969 0.00397188 
2548 0.000282743 1 0.307874 0.103172 0.00299472 0 0 0 45.945 0 4.02921e-15 1.99861 0 0 0.140642 0.121379 0.00348224 
1743 0.000282743 1 0.718678 0.101371 0.00299472 0 0 0 45.9756 0.00182936 -8.16732e-15 1.99861 6.56224e-24 0 0.328304 0.11926 0.00348224 
676 0.000282743 1 0.826982 0.104836 0.00609091 0 0 0 50.0835 1.34416 1.15996 2 0 -0.00277371 0.377779 0.123336 0.00708245 
1973 0.000282743 1 0.87379 0.102513 0.00401734 0 0 0 27.2241 -0.30682 0.124365 2 0 -0.00277371 0.399162 0.120603 0.00467132 
1747 0.000282743 1 0.291488 0.104694 0.00299473 0 0 0 45.945 0 -4.50822e-07 1.99861 0 -1.59251e-07 0.133156 0.123169 0.00348224 
1183 0.000282743 1 0.787721 0.107623 0.00299472 0 0 0 45.945 0 1.80974e-15 1.99861 0 0 0.359844 0.126615 0.00348224 
1692 0.000282743 1 0.807348 0.106074 0.00307648 0 0 0 47.6376 0.0444349 0.0575068 2 0 -0.00277371 0.36881 0.124793 0.0035773 
1735 0.000282743 1 0.868902 0.109413 0.0111023 0 0 0 20.8363 0.594305 3.85747 2 0 -0.00277371 0.396929 0.128721 0.0129096 
886 0.000282743 1 0.804209 0.112226 0.00299472 0 0 0 45.945 0 2.92157e-15 1.99861 0 0 0.367376 0.132031 0.00348224 
220 0.000282743 1 0.873582 0.108766 0.00387992 0 0 0 22.626 0.00965389 1.48851 2 0 -0.00277371 0.399067 0.12796 0.00451153 
2801 0.000282743 1 0.256137 0.115869 0.00299472 0 0 0 45.945 0 6.08438e-15 1.99861 0 -8.20394e-15 0.117008 0.136317 0.00348224 
1801 0.000282743 1 0.494897 0.113038 0.00299472 0 0 0 45.945 0 1.79105e-09 1.99861 0 -4.86154e-10 0.226077 0.132986 0.00348224 
140 0.000282743 1 0.618855 0.114857 0.00299472 0 0 0 45.945 0 -7.05549e-15 1.99861 0 0 0.282703 0.135126 0.00348224 
1963 0.000282743 1 0.751176 0.113766 0.0034964 0 0 0 45.8319 0.275908 0.137692 2 0 -0.00277371 0.343149 0.133842 0.00406558 
2449 0.000282743 1 0.834665 0.112484 0.00374333 0 0 0 45.9781 0 0.0468989 2 0 -0.00277371 0.381289 0.132334 0.00435271 
934 0.000282743 1 0.847235 0.113559 0.00296387 0 0 0 -0.851704 -1.03469 -0.029935 1.90225 -0.0730708 0.014233 0.387031 0.133599 0.00344636 
392 0.000282743 1 0.336297 0.116778 0.00299472 0 0 0 45.945 0 8.4639e-15 1.99861 0 0 0.153626 0.137385 0.00348224 
1400 0.000282743 1 0.426936 0.118653 0.00326098 0 0 0 45.9781 0 -0.0984324 2 0 -0.00277371 0.195032 0.139592 0.00379183 
2620 0.000282743 1 0.383331 0.122546 0.00299472 0 0 0 45.945 0 -4.1862e-10 1.99861 0 -3.47393e-10 0.175112 0.144171 0.00348224 
2955 0.000282743 1 0.478107 0.121181 0.00299472 0 0 0 45.945 0 -5.68107e-08 1.99861 0 5.91741e-09 0.218407 0.142565 0.00348224 
2869 0.000282743 1 0.657367 0.121297 0.00299472 0 0 0 45.7138 -0.0239456 -1.80722e-08 1.99861 -4.17951e-14 1.04644e-08 0.300296 0.142702 0.00348224 
2063 0.000282743 1 0.772601 0.121177 0.00299472 0 0 0 45.945 0 6.24586e-15 1.99861 0 0 0.352937 0.142561 0.00348224 
2918 0.000282743 1 0.49941 0.125633 0.0038118 0 0 0 45.9781 0 -0.00912682 2 0 -0.00277371 0.228138 0.147804 0.00443232 
2312 0.000282743 1 0.847214 0.125933 0.0029948 0 0 0 0.0274085 0 -0.00574562 1.28011 0 -0.000189089 0.387021 0.148157 0.00348232 
1860 0.000282743 1 0.257554 0.130739 0.00299473 0 0 0 45.945 0 -5.34066e-07 1.99861 0 -8.14328e-09 0.117655 0.153811 0.00348224 
719 0.000282743 1 0.663627 0.130474 0.00299472 0 0 0 45.8501 0.0181812 3.09776e-12 1.99861 2.58204e-18 -4.80656e-12 0.303156 0.153498 0.00348224 
1378 0.000282743 1 0.840027 0.132815 0.00381769 0 0 0 45.9781 0 -0.00421488 2 0 -0.00277371 0.383738 0.156252 0.00443917 
202 0.000282743 1 0.247389 0.137364 0.00299473 0 0 0 45.945 0 7.02598e-08 1.99861 0 -4.11215e-07 0.113011 0.161605 0.00348224 
2160 0.000282743 1 0.553707 0.137275 0.00299472 0 0 0 45.8498 -0.116954 -1.14916e-14 1.99861 -8.39967e-22 0 0.252942 0.1615 0.00348224 
1451 0.000282743 1 0.671999 0.139732 0.00299472 0 0 0 45.898 0.253923 1.07266e-07 1.99861 -4.28752e-12 -1.75224e-08 0.30698 0.16439 0.00348224 
768 0.000282743 1 0.876344 0.136757 0.00299496 0 0 0 22.7038 0 -0.00247605 1.99832 0 0.000577279 0.400328 0.16089 0.00348251 
2451 0.000282743 1 0.152522 0.14389 0.00315404 0 0 0 45.9781 0 -0.108084 2 0 -0.00277371 0.0696747 0.169282 0.00366749 
1582 0.000282743 1 0.401388 0.143686 0.00299472 0 0 0 45.945 0 1.59068e-11 1.99861 0 1.22886e-11 0.18336 0.169042 0.00348224 
410 0.000282743 1 0.620257 0.144092 0.00299162 0 0 0 45.9503 0 0.0104088 1.99903 0 -0.000828538 0.283344 0.169519 0.00347863 
1246 0.000282743 1 0.210243 0.149079 0.00299472 0 0 0 45.964 0.0126758 7.39043e-14 1.99861 -2.27212e-19 2.95675e-14 0.0960423 0.175387 0.00348224 
2461 0.000282743 1 0.608083 0.148491 0.00299473 0 0 0 45.9449 0 4.42816e-06 1.99862 0 -4.36767e-06 0.277783 0.174695 0.00348224 
2448 0.000282743 1 0.861551 0.149018 0.00298809 0 0 0 21.3928 -0.186434 -0.0138922 2.11583 0.0280204 0.0156669 0.393571 0.175315 0.00347452 
233 0.000282743 1 0.884636 0.148926 0.00308573 0 0 0 23.6331 0.00610534 -0.0176377 2 0 -0.00277371 0.404116 0.175207 0.00358806 
2991 0.000282743 1 0.636305 0.153952 0.00299472 0 0 0 45.945 0 -8.67843e-15 1.99861 0 -3.27949e-15 0.290675 0.181119 0.00348224 
1051 0.000282743 1 0.864787 0.15401 0.00374007 0 0 0 21.4218 0.458452 0.0633668 1.87678 -0.0279549 -0.00644653 0.395049 0.181189 0.00434891 
1576 0.000282743 1 0.70807 0.15931 0.00299472 0 0 0 45.945 0 8.46391e-15 1.99861 0 0 0.323458 0.187424 0.00348224 
2643 0.000282743 1 0.72567 0.158048 0.00299472 0 0 0 45.945 0 1.55258e-13 1.99861 0 -7.39924e-13 0.331498 0.185939 0.00348224 
55 0.000282743 1 0.180475 0.161299 0.0069256 0 0 0 44.6218 0 0.674544 2 0 -0.00277371 0.0824439 0.189764 0.00805302 
1415 0.000282743 1 0.319609 0.161792 0.00299383 0 0 0 45.942 0 -0.00117685 1.99805 0 0.00112152 0.146003 0.190344 0.00348119 
1669 0.000282743 1 0.404272 0.163659 0.00299472 0 0 0 45.945 0 -1.48173e-14 1.99861 0 0 0.184678 0.19254 0.00348224 
1592 0.000282743 1 0.339385 0.165431 0.00299472 0 0 0 45.945 0 -1.48159e-14 1.99861 0 0 0.155037 0.194625 0.00348224 
2682 0.000282743 1 0.411099 0.164924 0.00299472 0 0 0 45.945 0 1.17896e-14 1.99861 0 0 0.187797 0.194028 0.00348224 
2962 0.000282743 1 0.604596 0.168313 0.00299472 0 0 0 45.945 0 5.13963e-15 1.99861 0 0 0.276189 0.198015 0.00348224 
344 0.000282743 1 0.663001 0.167356 0.00299367 0 0 0 45.9407 0 -0.000403442 1.99811 0 0.0010086 0.30287 0.196889 0.00348101 
989 0.000282743 1 0.248199 0.172401 0.00341784 0 0 0 46.277 0.184532 -0.0539893 2 0 -0.00277371 0.113382 0.202825 0.00397424 
330 0.000282743 1 0.395153 0.167166 0.00299472 0 0 0 46.1053 -0.198191 -7.9346e-08 1.99861 -1.04836e-12 6.21495e-08 0.180512 0.196665 0.00348224 
826 0.000282743 1 0.847378 0.169527 0.015174 0 0 0 -0.0714287 1.34441 7.28348 0.39102 -0.0343576 0.0298789 0.387096 0.199443 0.0176441 
543 0.000282743 1 0.187614 0.17302 0.00298581 0 0 0 45.9581 0 0.00152426 1.99415 0 0.00892556 0.0857053 0.203553 0.00347187 
1293 0.000282743 1 0.452722 0.174331 0.00299472 0 0 0 45.945 0 1.81113e-15 1.99861 0 0 0.206811 0.205096 0.00348224 
221 0.000282743 1 0.512703 0.172561 0.00299472 0 0 0 45.945 0 6.24724e-15 1.99861 0 0 0.234211 0.203013 0.00348224 
113 0.000282743 1 0.524841 0.174128 0.00299472 0 0 0 45.945 0 -3.73119e-15 1.99861 0 0 0.239756 0.204856 0.00348224 
178 0.000282743 1 0.759747 0.174539 0.0034672 0 0 0 45.5781 0 0.0903861 2 0 -0.00277371 0.347065 0.20534 0.00403163 
2278 0.000282743 1 0.409684 0.179744 0.00299472 0 0 0 45.945 0 -1.37069e-14 1.99861 0 0 0.18715 0.211463 0.00348224 
2281 0.000282743 1 0.544164 0.179038 0.00302144 0 0 0 45.8957 0 -0.0211013 2 0 -0.00277371 0.248583 0.210633 0.0035133 
418 0.000282743 1 0.812203 0.176458 0.00299472 0 0 0 45.945 0 -1.23337e-12 1.99861 0 -5.95398e-12 0.371028 0.207597 0.00348224 
921 0.000282743 1 0.847241 0.178483 0.00362981 0 0 0 0.40101 0 0.0286812 0.833967 0 -0.00194965 0.387034 0.20998 0.00422071 
1998 0.000282743 1 0.254537 0.183085 0.00303381 0 0 0 45.8841 0 0.0157276 2 0 -0.00277371 0.116277 0.215394 0.00352768 
2976 0.000282743 1 0.387234 0.187978 0.00299472 0 0 0 45.9634 -0.00281716 8.4639e-15 1.99861 0 0 0.176895 0.221151 0.00348224 
538 0.000282743 1 0.783115 0.184374 0.00299472 0 0 0 45.8963 -0.149661 -1.13206e-08 1.99861 -4.06947e-13 -4.55442e-09 0.35774 0.216911 0.00348224 
1164 0.000282743 1 0.598105 0.191817 0.00299472 0 0 0 46.2093 0.324661 7.89454e-08 1.99861 -3.17435e-12 -3.10092e-08 0.273224 0.225667 0.00348224 
87 0.000282743 1 0.660229 0.189503 0.00299472 0 0 0 45.945 0 7.35628e-15 1.99861 0 0 0.301603 0.222945 0.00348224 
2327 0.000282743 1 0.706278 0.192086 0.00299376 0 0 0 45.9381 0 0.000747855 1.99833 0 0.000557929 0.322639 0.225984 0.00348112 
2888 0.000282743 1 0.362022 0.19455 0.00299472 0 0 0 45.8175 0.0698881 8.27872e-06 1.99861 -1.08474e-10 3.86909e-07 0.165378 0.228883 0.00348223 
371 0.000282743 1 0.445592 0.193043 0.00299472 0 0 0 45.945 0 1.29e-14 1.99861 0 0 0.203554 0.22711 0.00348224 
2202 0.000282743 1 0.241536 0.202405 0.00379315 0 0 0 45.9781 0 -0.0183705 2 0 -0.00277371 0.110338 0.238123 0.00441064 
2830 0.000282743 1 0.649002 0.204474 0.00299472 0 0 0 45.945 0 -1.03798e-14 1.99861 0 0 0.296475 0.240558 0.00348224 
961 0.000282743 1 0.848061 0.20807 0.00305194 0 0 0 -1.13528 -0.614592 0.175296 -4.68904 0.218334 -0.0631604 0.387408 0.244788 0.00354877 
1172 0.000282743 1 0.202231 0.211557 0.00299473 0 0 0 45.945 0 -5.31355e-07 1.99861 0 -2.01157e-08 0.0923823 0.24889 0.00348224 
2621 0.000282743 1 0.258975 0.209732 0.00299472 0 0 0 45.945 0 -7.05689e-15 1.99861 0 0 0.118304 0.246743 0.00348224 
2109 0.000282743 1 0.471133 0.210491 0.00299472 0 0 0 45.945 0 2.06604e-14 1.99861 0 0 0.215221 0.247637 0.00348224 
1885 0.000282743 1 0.491019 0.209041 0.00784193 0 0 0 45.9781 0 0.657272 2 0 -0.00277371 0.224306 0.245931 0.00911852 
1957 0.000282743 1 0.847412 0.213694 0.0118208 0 0 0 -0.0285767 0 2.0029 0.111657 0 -0.000126623 0.387112 0.251405 0.0137451 
2297 0.000282743 1 0.193065 0.216725 0.00299472 0 0 0 45.9756 -0.0188337 2.03e-08 1.99861 -2.61301e-14 -3.4638e-08 0.0881951 0.25497 0.00348224 
2132 0.000282743 1 0.623316 0.218337 0.00299408 0 0 0 46.7258 0.0392842 0.00170283 1.99862 7.38402e-07 -2.0885e-05 0.284741 0.256867 0.00348149 
1444 0.000282743 1 0.856613 0.218083 0.00377378 0 0 0 20.3031 0 0.000430381 2 0 -0.00277371 0.391315 0.256568 0.00438811 
145 0.000282743 1 0.154721 0.221518 0.00299472 0 0 0 45.985 0.019198 -3.80743e-07 1.99861 1.26006e-12 2.32789e-08 0.0706791 0.260609 0.00348224 
2512 0.000282743 1 0.847104 0.22037 0.00308171 0 0 0 45.5964 -0.374371 0.012836 -28.209 0.216521 -0.147873 0.386971 0.259258 0.00358338 
254 0.000282743 1 0.563384 0.225035 0.00322034 0 0 0 54.8268 0.18288 0.222326 2 0 -0.00277371 0.257363 0.264747 0.00374458 
2849 0.000282743 1 0.694098 0.228071 0.00294887 0 0 0 50.7676 0.42609 0.132109 1.99407 -9.70755e-05 0.0090969 0.317076 0.268319 0.00342892 
296 0.000282743 1 0.736089 0.224175 0.00269855 0 0 0 75.6398 1.54728 1.26854 1.93806 -0.00173834 0.121154 0.336258 0.263736 0.00313785 
256 0.000282743 1 0.824496 0.227282 0.00299472 0 0 0 45.945 0 1.4009e-14 1.99861 0 0 0.376643 0.26739 0.00348224 
2268 0.000282743 1 0.85472 0.228448 0.00299674 0 0 0 21.803 0 0.00153402 1.99954 0 -0.00185624 0.39045 0.268762 0.00348458 
757 0.000282743 1 0.801956 0.242298 0.003416 0 0 0 46.0949 0.417477 0.0388186 2 0 -0.00277371 0.366347 0.285057 0.0039721 
887 0.000282743 1 0.847447 0.242688 0.00299817 0 0 0 -0.0349768 0.762837 -0.00363123 1.00554 0.646534 -0.132861 0.387128 0.285515 0.00348624 
2986 0.000282743 1 0.824433 0.241505 0.00299472 0 0 0 45.9473 -0.198296 -4.13391e-10 1.99861 -9.22944e-15 1.94151e-10 0.376614 0.284123 0.00348224 
188 0.000282743 1 0.847371 0.250408 0.00314143 0 0 0 -0.094216 -0.394636 0.217825 0.455297 0.0416965 -0.00879132 0.387093 0.294597 0.00365282 
2563 0.000282743 1 0.839597 0.250374 0.00299383 0 0 0 46.1879 0.0378104 0.0326173 1.99649 1.59443e-07 -0.00978648 0.383542 0.294557 0.0034812 
1096 0.000282743 1 0.841743 0.241136 0.00367121 0 0 0 5.20508 -4.1402 0.411292 0.881547 -0.641968 0.131514 0.384522 0.283689 0.00426885 
399 0.000282743 1 0.818328 0.253177 0.00299472 0 0 0 45.945 0 -7.05548e-15 1.99861 0 0 0.373825 0.297855 0.00348224 
253 0.000282743 1 0.417983 0.260054 0.00299472 0 0 0 45.945 0 1.73319e-14 1.99861 0 0 0.190941 0.305946 0.00348224 
185 0.000282743 1 0.575066 0.259601 0.00299472 0 0 0 45.945 0 -1.80441e-14 1.99861 0 -3.07913e-17 0.2627 0.305413 0.00348224 
211 0.000282743 1 0.659221 0.256715 0.00299472 0 0 0 45.945 0 -1.03812e-14 1.99861 0 0 0.301143 0.302018 0.00348224 
2020 0.000282743 1 0.847887 0.257238 0.00396298 0 0 0 -1.62563 -3.86116 -0.713091 4.11141 2.66446 -1.3193 0.387329 0.302633 0.00460812 
2140 0.000282743 1 0.716515 0.262522 0.00298279 0 0 0 45.998 -0.170581 0.00826998 1.99351 4.94142e-08 0.0102112 0.327316 0.308849 0.00346837 
1897 0.000282743 1 0.733072 0.260767 0.00292598 0 0 0 50.5685 -0.391423 -0.0838461 1.90104 -4.41052e-05 0.195149 0.334879 0.306785 0.0034023 
1100 0.000282743 1 0.852454 0.260684 0.00279294 0 0 0 10.0336 1.12314 -0.662225 -12.8562 1.6607 -0.970683 0.389415 0.306687 0.0032476 
2290 0.000282743 1 0.755785 0.267054 0.00299472 0 0 0 46.1162 0.193438 2.95019e-08 1.99861 1.44685e-12 -8.76881e-08 0.345255 0.314181 0.00348224 
1831 0.000282743 1 0.847356 0.26694 0.00299603 0 0 0 -0.20147 -0.330214 0.0260506 0.654199 -0.00209989 -0.00997283 0.387086 0.314047 0.00348375 
1816 0.000282743 1 0.463258 0.27068 0.00380664 0 0 0 45.9781 0 0.0251988 2 0 -0.00277371 0.211624 0.318447 0.00442632 
2558 0.000282743 1 0.70264 0.268168 0.0033188 0 0 0 45.6313 -0.229306 0.0597813 2 0 -0.00277371 0.320978 0.315491 0.00385907 
2901 0.000282743 1 0.207504 0.273057 0.0037885 0 0 0 45.9781 0 0.0341363 2 0 -0.00277371 0.0947913 0.321243 0.00440523 
823 0.000282743 1 0.684661 0.273054 0.00299472 0 0 0 45.945 0 -6.53957e-11 1.99861 0 1.7947e-11 0.312764 0.32124 0.00348224 
1670 0.000282743 1 0.270579 0.28049 0.00304441 0 0 0 45.8844 0 0.00527064 2 0 -0.00277371 0.123605 0.329989 0.00354001 
2522 0.000282743 1 0.447266 0.277552 0.00299472 0 0 0 45.945 0 -7.05688e-15 1.99861 0 0 0.204319 0.326531 0.00348224 
63 0.000282743 1 0.492935 0.281348 0.00299472 0 0 0 45.945 0 -1.84468e-14 1.99861 0 -2.48933e-16 0.225181 0.330997 0.00348224 
1438 0.000282743 1 0.847451 0.281315 0.00355034 0 0 0 2.17813 0.419288 0.106416 27.4922 1.18301 -0.866232 0.387129 0.330959 0.0041283 
1887 0.000282743 1 0.17526 0.286407 0.00299499 0 0 0 45.9256 0 0.000506531 1.99879 0 -0.000361146 0.0800616 0.336949 0.00348254 
526 0.000282743 1 0.221318 0.286511 0.00597294 0 0 0 45.9927 -0.212308 0.426402 2 0 -0.00277371 0.101102 0.337072 0.00694528 
2585 0.000282743 1 0.246186 0.285879 0.00311191 0 0 0 45.8281 -0.206282 -0.0411971 2 0 -0.00277371 0.112462 0.336328 0.0036185 
1911 0.000282743 1 0.278551 0.285594 0.00299472 0 0 0 45.945 0 1.51167e-14 1.99861 0 0 0.127247 0.335993 0.00348224 
706 0.000282743 1 0.307176 0.286103 0.00299472 0 0 0 45.945 0 1.16839e-08 1.99861 0 -5.78748e-09 0.140323 0.336592 0.00348224 
2507 0.000282743 1 0.494352 0.288627 0.00299472 0 0 0 45.945 0 -1.37083e-14 1.99861 0 0 0.225828 0.339562 0.00348224 
2737 0.000282743 1 0.848001 0.288286 0.00440158 0 0 0 0.656278 -0.513963 0.669993 -6.23496 -0.653574 0.24236 0.387381 0.33916 0.00511812 
987 0.000282743 1 0.166384 0.291819 0.00303506 0 0 0 45.8844 0 0.014476 2 0 -0.00277371 0.0760069 0.343316 0.00352914 
1265 0.000282743 1 0.332801 0.287148 0.00299469 0 0 0 45.0614 -0.38328 8.75509e-05 1.99861 5.88696e-09 -9.58318e-07 0.152029 0.337821 0.0034822 
1696 0.000282743 1 0.847458 0.293958 0.0036569 0 0 0 0.35554 -0.569255 0.300831 -0.479931 0.00419996 -0.208045 0.387133 0.345833 0.00425221 
2206 0.000282743 1 0.442561 0.295415 0.00299472 0 0 0 45.8928 -0.133467 4.49707e-09 1.99861 1.55517e-13 2.39058e-09 0.202169 0.347547 0.00348224 
2838 0.000282743 1 0.832592 0.296926 0.00299473 0 0 0 45.945 0 -4.85712e-06 1.99861 0 1.67846e-07 0.380342 0.349325 0.00348224 
818 0.000282743 1 0.193588 0.301929 0.00299472 0 0 0 45.945 0 5.13823e-15 1.99861 0 0 0.0884341 0.35521 0.00348224 
2407 0.000282743 1 0.318607 0.304103 0.00299472 0 0 0 45.945 0 -1.51454e-15 1.99861 0 0 0.145545 0.357769 0.00348224 
1751 0.000282743 1 0.803121 0.304238 0.00299472 0 0 0 46.0617 -0.0736444 1.73319e-14 1.99861 -8.39967e-22 0 0.366879 0.357927 0.00348224 
1687 0.000282743 1 0.847644 0.300377 0.00358729 0 0 0 0.199697 2.13354 0.225808 -1.98189 0.868415 0.0150151 0.387218 0.353385 0.00417126 
2457 0.000282743 1 0.514734 0.305371 0.00299472 0 0 0 45.945 0 -6.45859e-09 1.99861 0 -4.03764e-10 0.235139 0.359261 0.00348224 
2082 0.000282743 1 0.527377 0.30527 0.00299472 0 0 0 45.945 0 -1.86519e-08 1.99861 0 1.7754e-08 0.240915 0.359142 0.00348224 
1274 0.000282743 1 0.85245 0.305777 0.00360258 0 0 0 20.1754 -0.0551535 0.047947 -15.2034 -1.71162 -0.203203 0.389413 0.359737 0.00418905 
2380 0.000282743 1 0.603694 0.312551 0.00299472 0 0 0 45.945 0 7.0632e-16 1.99861 0 0 0.275777 0.367707 0.00348224 
468 0.000282743 1 0.859453 0.309837 0.00360513 0 0 0 18.1807 -0.725749 -0.196756 2 0 -0.00277371 0.392612 0.364514 0.00419201 
2146 0.000282743 1 0.651295 0.315994 0.00325436 0 0 0 45.9781 0 -0.0995309 2 0 -0.00277371 0.297522 0.371757 0.00378414 
1032 0.000282743 1 0.887472 0.318362 0.00320569 0 0 0 24.2383 -0.0819054 0.0132129 2 0 -0.00277371 0.405412 0.374543 0.00372755 
1872 0.000282743 1 0.274442 0.32486 0.00317001 0 0 0 46.2525 0.396509 -0.00208664 2 0 -0.00277371 0.12537 0.382188 0.00368606 
1798 0.000282743 1 0.686085 0.327696 0.00299018 0 0 0 68.9368 2.06256 0.0358347 1.99704 -9.60488e-05 -0.00869996 0.313415 0.385524 0.00347696 
2022 0.000282743 1 0.243617 0.327677 0.00376355 0 0 0 45.9781 0 -0.0287551 2 0 -0.00277371 0.111288 0.385502 0.00437622 
677 0.000282743 1 0.25793 0.32702 0.00366351 0 0 0 45.9781 0 0.0626074 2 0 -0.00277371 0.117827 0.384729 0.0042599 
401 0.000282743 1 0.828457 0.326817 0.00322267 0 0 0 45.9781 0 -0.102513 2 0 -0.00277371 0.378453 0.38449 0.00374729 
1709 0.000282743 1 0.867259 0.326671 0.00301012 0 0 0 18.807 -0.424221 0.0183355 2 0 -0.00277371 0.396178 0.384319 0.00350014 
1869 0.000282743 1 0.886471 0.324455 0.00320019 0 0 0 27.2443 -2.3914 0.243873 2 0 -0.00277371 0.404954 0.381712 0.00372115 
2007 0.000282743 1 0.659045 0.332481 0.00303253 0 0 0 45.884 0 0.016397 2 0 -0.00277371 0.301063 0.391154 0.00352619 
889 0.000282743 1 0.84698 0.332975 0.00315297 0 0 0 2.28009 -0.199311 0.372807 2 0 -0.00277371 0.386914 0.391735 0.00366624 
1352 0.000282743 1 0.877894 0.327084 0.00651041 0 0 0 24.4017 -1.67164 1.88407 2 0 -0.00277371 0.401036 0.384804 0.00757025 
1496 0.000282743 1 0.891797 0.330087 0.00301317 0 0 0 27.2446 0.23523 0.0933719 2 0 -0.00277371 0.407388 0.388337 0.00350368 
1236 0.000282743 1 0.180567 0.333239 0.00299461 0 0 0 45.9488 0 -2.68547e-05 1.99856 0 0.000103791 0.082486 0.392045 0.0034821 
2590 0.000282743 1 0.755488 0.334309 0.00299472 0 0 0 45.7194 0.142456 1.73393e-14 1.99861 1.67993e-21 -2.60209e-18 0.345119 0.393305 0.00348224 
2583 0.000282743 1 0.753851 0.343757 0.00299472 0 0 0 45.945 0 -2.51377e-09 1.99861 0 1.99149e-09 0.344371 0.40442 0.00348224 
1892 0.000282743 1 0.47625 0.348409 0.00299472 0 0 0 45.945 0 -1.37069e-14 1.99861 0 0 0.217559 0.409893 0.00348224 
2074 0.000282743 1 0.532622 0.350377 0.00296983 0 0 0 45.6504 0.33473 0.00236985 1.98145 -0.000106674 0.0343313 0.24331 0.412208 0.00345329 
95 0.000282743 1 0.799873 0.347146 0.00299472 0 0 0 45.9449 0 1.38073e-05 1.99861 0 -2.06069e-06 0.365395 0.408407 0.00348223 
1785 0.000282743 1 0.503054 0.355491 0.00299472 0 0 0 45.945 0 -1.49446e-08 1.99861 0 1.74796e-08 0.229803 0.418224 0.00348224 
551 0.000282743 1 0.859801 0.355928 0.00298605 0 0 0 16.2464 -0.997197 0.00590334 1.99518 0.000322157 0.00688505 0.392771 0.418739 0.00347215 
130 0.000282743 1 0.257669 0.363226 0.00299472 0 0 0 45.945 0 8.4639e-15 1.99861 0 0 0.117707 0.427324 0.00348224 
1601 0.000282743 1 0.489041 0.363089 0.00345146 0 0 0 45.9438 0.0343134 -0.102585 2 0 -0.00277371 0.223402 0.427163 0.00401332 
1535 0.000282743 1 0.64709 0.361707 0.00299472 0 0 0 45.945 0 -7.05549e-15 1.99861 0 0 0.295601 0.425537 0.00348224 
1273 0.000282743 1 0.847621 0.36426 0.00289286 0 0 0 -1.20873 -0.503611 0.0955938 -0.224549 1.18043 0.159674 0.387207 0.428541 0.00336379 
2253 0.000282743 1 0.583569 0.366363 0.00299472 0 0 0 45.945 0 2.66515e-14 1.99861 0 -1.0113e-14 0.266584 0.431015 0.00348224 
2998 0.000282743 1 0.557625 0.371522 0.00299472 0 0 0 45.945 0 -6.32207e-09 1.99861 0 6.81029e-10 0.254732 0.437085 0.00348224 
1754 0.000282743 1 0.343676 0.373906 0.00587984 0 0 0 45.8258 -0.0341775 0.399063 2 0 -0.00277371 0.156997 0.43989 0.00683703 
2273 0.000282743 1 0.422541 0.374454 0.00299472 0 0 0 45.945 0 -1.25978e-14 1.99861 0 0 0.193024 0.440534 0.00348224 
1390 0.000282743 1 0.60825 0.378701 0.00299472 0 0 0 45.945 0 1.17896e-14 1.99861 0 0 0.277859 0.445531 0.00348224 
1874 0.000282743 1 0.825921 0.377688 0.00299472 0 0 0 45.945 0 1.06834e-14 1.99861 0 0 0.377294 0.444339 0.00348224 
1065 0.000282743 1 0.845774 0.37003 0.00325318 0 0 0 -1.7044 2.10984 0.49801 2 0 -0.00277371 0.386363 0.43533 0.00378277 
1818 0.000282743 1 0.866138 0.360942 0.00309784 0 0 0 20.5072 2.38971 0.0691214 2 0 -0.00277371 0.395666 0.424638 0.00360214 
161 0.000282743 1 0.204869 0.381082 0.00299476 0 0 0 45.9448 0 -3.552e-05 1.99862 0 -1.40013e-05 0.0935873 0.448331 0.00348227 
2855 0.000282743 1 0.687096 0.381892 0.00300681 0 0 0 45.9444 -0.0714435 0.0282836 2 0 -0.00277371 0.313877 0.449285 0.00349629 
2064 0.000282743 1 0.715326 0.383106 0.00349928 0 0 0 45.9781 0 -0.0741816 2 0 -0.00277371 0.326773 0.450713 0.00406893 
2148 0.000282743 1 0.849707 0.386993 0.00254676 0 0 0 3.62299 1.31169 -1.54742 11.6422 5.10887 -2.77857 0.38816 0.455286 0.00296135 
1280 0.000282743 1 0.845299 0.378832 0.00299383 0 0 0 1.00948 -1.76507 0.0124986 1.99987 0.00022737 -0.00329741 0.386147 0.445685 0.0034812 
417 0.000282743 1 0.683794 0.387332 0.00299474 0 0 0 46.0162 -0.0242255 2.2474e-05 1.99862 8.02671e-10 -1.5167e-05 0.312368 0.455685 0.00348225 
2655 0.000282743 1 0.77378 0.387301 0.00299472 0 0 0 45.945 0 -1.54346e-14 1.99861 0 -1.18352e-15 0.353475 0.455648 0.00348224 
2944 0.000282743 1 0.845698 0.386295 0.00412872 0 0 0 13.1023 -7.24207 4.71348 -38.1552 -14.0654 12.263 0.386329 0.454465 0.00480084 
800 0.000282743 1 0.846879 0.388148 0.00282157 0 0 0 9.58057 -0.0913087 -2.00863 -16.5815 5.80342 -2.10483 0.386868 0.456645 0.00328089 
354 0.000282743 1 0.477871 0.389325 0.00299472 0 0 0 45.945 0 6.15269e-07 1.99861 0 9.41344e-07 0.218299 0.458029 0.00348224 