ITEM: TIMESTEP
25000
ITEM: NUMBER OF ATOMS
3000
ITEM: BOX BOUNDS mm mm mm
0 0.85
0 0.85
0 0.86
ITEM: ATOMS id mass type x y z ix iy iz vx vy vz fx fy fz xs ys zs 
2788 0.000282743 1 0.174835 0.00364332 0.00299472 0 0 0 0 0 5.13963e-15 2 0 0 0.205688 0.00428626 0.00348224 
1319 0.000282743 1 0.486473 0.00389763 0.00299472 0 0 0 0 0 -1.58293e-14 2 0 -2.94903e-17 0.572321 0.00458545 0.00348224 
24 0.000282743 1 0.272494 0.00725002 0.00381463 0 0 0 0 0 0.71348 2 0 -0.00277371 0.320581 0.00852944 0.00443562 
315 0.000282743 1 0.441715 0.0078913 0.00299472 0 0 0 0 0 1.17896e-14 2 0 0 0.519665 0.00928389 0.00348224 
926 0.000282743 1 0.843982 0.00637354 0.00299472 0 0 0 0 0 1.28986e-14 2 0 0 0.99292 0.00749829 0.00348224 
610 0.000282743 1 0.0776827 0.013257 0.00376241 0 0 0 0 0 0.0275416 2 0 -0.00277371 0.0913914 0.0155965 0.0043749 
626 0.000282743 1 0.142569 0.0136063 0.00299472 0 0 0 0 0 7.35628e-15 2 0 0 0.167729 0.0160075 0.00348224 
229 0.000282743 1 0.350429 0.0159379 0.0033201 0 0 0 0 0 0.10165 2 0 -0.00277371 0.41227 0.0187505 0.00386059 
1485 0.000282743 1 0.519145 0.0121932 0.00299472 0 0 0 0 0 1.08198e-06 2 0 -4.21526e-07 0.610758 0.0143449 0.00348224 
281 0.000282743 1 0.592174 0.0121888 0.00299472 0 0 0 0 0 -7.0555e-15 2 0 0 0.696675 0.0143397 0.00348224 
1922 0.000282743 1 0.624717 0.0120294 0.00299472 0 0 0 -0.00189467 0.0118845 4.04645e-13 2 5.23312e-17 1.45974e-12 0.734961 0.0141522 0.00348224 
2338 0.000282743 1 0.173824 0.0166446 0.00303846 0 0 0 0 0 0.00912406 2 0 -0.00277371 0.204499 0.0195819 0.00353309 
2752 0.000282743 1 0.292724 0.0171987 0.00299472 0 0 0 0 0 -1.36539e-14 2 0 -1.04257e-15 0.344382 0.0202338 0.00348224 
662 0.000282743 1 0.0861292 0.0227621 0.00299472 0 0 0 0 0 2.95997e-13 2 0 2.55308e-14 0.101328 0.026779 0.00348224 
136 0.000282743 1 0.756894 0.0228154 0.00378626 0 0 0 0 0 0.00569454 2 0 -0.00277371 0.890464 0.0268417 0.00440262 
312 0.000282743 1 0.773584 0.0237223 0.00299472 0 0 0 0 0 -1.03798e-14 2 0 0 0.910099 0.0279086 0.00348224 
2385 0.000282743 1 0.026199 0.0271591 0.00299472 0 0 0 0 0 -4.84163e-15 2 0 0 0.0308224 0.0319519 0.00348224 
356 0.000282743 1 0.683208 0.0274179 0.00368132 0 0 0 0 0 0.0513255 2 0 -0.00277371 0.803774 0.0322564 0.0042806 
2171 0.000282743 1 0.693525 0.0307014 0.00299472 0 0 0 0 0 -9.27214e-15 2 0 0 0.815912 0.0361193 0.00348224 
2212 0.000282743 1 0.806154 0.0291994 0.00270201 0 0 0 0 0 0.918463 2 0 0.397989 0.948416 0.0343523 0.00314187 
2165 0.000282743 1 0.679061 0.0336834 0.00299472 0 0 0 0 0 4.02921e-15 2 0 0 0.798896 0.0396276 0.00348224 
1995 0.000282743 1 0.825777 0.0358753 0.00340664 0 0 0 0 0 -2.45245 2 0 -0.00277371 0.971502 0.0422062 0.00396121 
284 0.000282743 1 0.40318 0.0405785 0.0034554 0 0 0 0 0 0.713837 2 0 -0.00277371 0.474329 0.0477394 0.00401791 
153 0.000282743 1 0.7 0.0455722 0.00299473 0 0 0 0 0 -4.56084e-06 2 0 -3.79059e-07 0.823529 0.0536144 0.00348224 
2946 0.000282743 1 0.04466 0.0503255 0.00299472 0 0 0 0 0 -1.25173e-10 2 0 1.9419e-10 0.0525412 0.0592065 0.00348224 
2245 0.000282743 1 0.145859 0.0511328 0.00299472 0 0 0 0 0 -4.02713e-16 2 0 0 0.171599 0.0601563 0.00348224 
338 0.000282743 1 0.307949 0.0513337 0.00299472 0 0 0 0 0 -1.51454e-15 2 0 0 0.362293 0.0603925 0.00348224 
1949 0.000282743 1 0.550654 0.0494126 0.00299472 0 0 0 0 0 1.4009e-14 2 0 0 0.647829 0.0581325 0.00348224 
1304 0.000282743 1 0.166544 0.0557894 0.00353452 0 0 0 0 0 -0.0645535 2 0 -0.00277371 0.195934 0.0656346 0.0041099 
954 0.000282743 1 0.736414 0.0549755 0.00299472 0 0 0 0 0 2.0659e-14 2 0 0 0.866369 0.064677 0.00348224 
2678 0.000282743 1 0.193551 0.0574585 0.00360222 0 0 0 0 0 -0.0528139 2 0 -0.00277371 0.227707 0.0675982 0.00418863 
2170 0.000282743 1 0.332832 0.0584649 0.00299472 0 0 0 0 0 1.28986e-14 2 0 0 0.391567 0.0687823 0.00348224 
1124 0.000282743 1 0.390537 0.0586676 0.00299472 0 0 0 0 0 1.51167e-14 2 0 0 0.459456 0.0690207 0.00348224 
849 0.000282743 1 0.428771 0.0567479 0.00299472 0 0 0 0 0 -3.19103e-14 2 0 -6.03996e-14 0.504437 0.0667623 0.00348224 
2717 0.000282743 1 0.513367 0.0597209 0.00299472 0 0 0 -0.00637807 -0.00913781 6.24725e-15 2 -2.86973e-18 0 0.603962 0.0702599 0.00348224 
2515 0.000282743 1 0.499575 0.0626138 0.00299472 0 0 0 0 0 -1.03798e-14 2 0 0 0.587736 0.0736633 0.00348224 
2174 0.000282743 1 0.716538 0.0611444 0.00299472 0 0 0 0 0 2.0659e-14 2 0 0 0.842986 0.0719345 0.00348224 
795 0.000282743 1 0.624339 0.0678375 0.00372431 0 0 0 0.011498 -0.0163322 0.0410352 2 0 -0.00277371 0.734516 0.0798088 0.0043306 
1156 0.000282743 1 0.630967 0.064281 0.00299472 0 0 0 0 0 1.51153e-14 2 0 0 0.742314 0.0756247 0.00348224 
2920 0.000282743 1 0.698939 0.0670631 0.00299472 0 0 0 0 0 9.57294e-15 2 0 0 0.822281 0.0788978 0.00348224 
1678 0.000282743 1 0.385632 0.0721212 0.00299472 0 0 0 0 0 -2.61937e-15 2 0 0 0.453685 0.0848485 0.00348224 
1599 0.000282743 1 0.588738 0.0709061 0.00299472 0 0 0 0 0 1.0682e-14 2 0 0 0.692633 0.083419 0.00348224 
367 0.000282743 1 0.204021 0.0743494 0.00299662 0 0 0 0 0 -0.00331271 2 0 -0.00043668 0.240024 0.0874699 0.00348444 
2586 0.000282743 1 0.250498 0.0759655 0.00299472 0 0 0 0 0 -1.14902e-14 2 0 0 0.294704 0.0893711 0.00348224 
2800 0.000282743 1 0.13615 0.0791022 0.00299472 0 0 0 0 0 1.50434e-10 2 0 9.74574e-11 0.160177 0.0930614 0.00348224 
1017 0.000282743 1 0.196637 0.0776333 0.00299472 0 0 0 0 0 7.35628e-15 2 0 0 0.231338 0.0913333 0.00348224 
1814 0.000282743 1 0.415927 0.0771766 0.00299472 0 0 0 0 0 -7.05549e-15 2 0 0 0.489325 0.090796 0.00348224 
2129 0.000282743 1 0.559658 0.0775321 0.00299472 0 0 0 0 0 7.35628e-15 2 0 0 0.658422 0.0912142 0.00348224 
2636 0.000282743 1 0.599258 0.0790148 0.00376124 0 0 0 0 0 0.708322 2 0 -0.00277371 0.705009 0.0929586 0.00437354 
2996 0.000282743 1 0.240788 0.0806714 0.0030176 0 0 0 0 0 -0.0215736 2 0 -0.00277371 0.28328 0.0949075 0.00350884 
1806 0.000282743 1 0.24615 0.0875507 0.00357424 0 0 0 0 0 0.069985 2 0 -0.00277371 0.289588 0.103001 0.00415609 
2606 0.000282743 1 0.425688 0.0844638 0.00299471 0 0 0 0 0 1.15941e-05 2 0 4.21749e-06 0.500809 0.0993692 0.00348223 
2881 0.000282743 1 0.532012 0.0859619 0.00291817 0 0 0 0.481962 0.0114101 -1.08601 1.50315 0.212523 0.844288 0.625897 0.101132 0.00339322 
876 0.000282743 1 0.583226 0.0863357 0.00303521 0 0 0 0 0 -0.0119334 2 0 -0.00277371 0.686149 0.101571 0.00352931 
501 0.000282743 1 0.566858 0.0890503 0.00299472 0 0 0 0.000662985 -0.0928269 -3.66615e-12 2 7.58413e-15 1.7467e-12 0.666892 0.104765 0.00348224 
1113 0.000282743 1 0.785658 0.0890255 0.00314791 0 0 0 -0.166223 -0.0211443 -0.0589262 2 0 -0.00277371 0.924304 0.104736 0.00366036 
2182 0.000282743 1 0.795183 0.0887894 0.00299472 0 0 0 -0.0319045 -0.0474681 7.46574e-10 2 -8.06533e-13 -4.75833e-10 0.93551 0.104458 0.00348224 
2062 0.000282743 1 0.0710622 0.0928605 0.00374667 0 0 0 0 0 -0.0204309 2 0 -0.00277371 0.0836026 0.109248 0.00435659 
1907 0.000282743 1 0.806807 0.0974507 0.00299472 0 0 0 0.0395326 0.0259884 -8.16592e-15 2 5.7637e-17 0 0.949185 0.114648 0.00348224 
2548 0.000282743 1 0.158556 0.103172 0.00299472 0 0 0 0 0 4.02921e-15 2 0 0 0.186537 0.121379 0.00348224 
1743 0.000282743 1 0.569161 0.101359 0.00299472 0 0 0 0.0306263 0.00182936 -8.16732e-15 2 -1.5542e-18 0 0.669601 0.119246 0.00348224 
676 0.000282743 1 0.662426 0.101408 0.00292355 0 0 0 0 0 -0.274605 2 0 0.315555 0.779325 0.119304 0.00339948 
1973 0.000282743 1 0.723571 0.102872 0.00299472 0 0 0 0 0 1.47273e-11 2 0 1.18326e-11 0.85126 0.121026 0.00348224 
1747 0.000282743 1 0.14217 0.104694 0.00299471 0 0 0 0 0 -3.34899e-06 2 0 1.11593e-05 0.167259 0.123169 0.00348222 
1183 0.000282743 1 0.638404 0.107623 0.00299472 0 0 0 0 0 1.80974e-15 2 0 0 0.751064 0.126615 0.00348224 
1692 0.000282743 1 0.651503 0.105908 0.00349238 0 0 0 0 0 -0.0685251 2 0 -0.00277371 0.766474 0.124598 0.00406091 
1735 0.000282743 1 0.739502 0.105958 0.00299473 0 0 0 0 0 -5.0782e-07 2 0 1.99245e-08 0.870002 0.124656 0.00348224 
886 0.000282743 1 0.654892 0.112226 0.00299472 0 0 0 0 0 2.92157e-15 2 0 0 0.770461 0.132031 0.00348224 
220 0.000282743 1 0.751387 0.108588 0.00299473 0 0 0 0 0 -4.43466e-06 2 0 -6.90969e-07 0.883985 0.12775 0.00348224 
2801 0.000282743 1 0.10682 0.115869 0.00299472 0 0 0 0 0 -7.75118e-13 2 0 1.9456e-13 0.12567 0.136317 0.00348224 
1801 0.000282743 1 0.34558 0.113038 0.00299472 0 0 0 0 0 -5.37924e-08 2 0 -8.30011e-09 0.406565 0.132986 0.00348224 
140 0.000282743 1 0.469537 0.114857 0.00299472 0 0 0 0 0 -7.05549e-15 2 0 0 0.552397 0.135126 0.00348224 
1963 0.000282743 1 0.602244 0.11253 0.00299472 0 0 0 0 0 -4.02723e-16 2 0 0 0.708522 0.132388 0.00348224 
2449 0.000282743 1 0.685236 0.112484 0.00323125 0 0 0 0 0 0.110664 2 0 -0.00277371 0.80616 0.132334 0.00375727 
934 0.000282743 1 0.801354 0.114351 0.00299472 0 0 0 0 0 -4.02724e-16 2 0 0 0.94277 0.13453 0.00348224 
392 0.000282743 1 0.18698 0.116778 0.00299472 0 0 0 0 0 8.4639e-15 2 0 0 0.219976 0.137385 0.00348224 
1400 0.000282743 1 0.277508 0.118653 0.00369355 0 0 0 0 0 -0.0346674 2 0 -0.00277371 0.326479 0.139592 0.00429483 
2620 0.000282743 1 0.234014 0.122546 0.00299472 0 0 0 0 0 -1.50644e-08 2 0 1.6777e-08 0.275311 0.144171 0.00348224 
2955 0.000282743 1 0.32879 0.121181 0.00299472 0 0 0 0 0 1.13658e-06 2 0 5.6912e-07 0.386812 0.142565 0.00348224 
2869 0.000282743 1 0.509552 0.121453 0.00299472 0 0 0 -0.231237 -0.0239456 8.76027e-07 2 -4.45163e-10 -9.51619e-08 0.599473 0.142885 0.00348224 
2063 0.000282743 1 0.623283 0.121177 0.00299472 0 0 0 0 0 6.24586e-15 2 0 0 0.733274 0.142561 0.00348224 
2918 0.000282743 1 0.349981 0.125633 0.00366389 0 0 0 0 0 0.0546382 2 0 -0.00277371 0.411742 0.147804 0.00426033 
2312 0.000282743 1 0.807019 0.125933 0.00299472 0 0 0 0 0 -1.48059e-14 2 0 -3.46945e-18 0.949435 0.148157 0.00348224 
1860 0.000282743 1 0.108236 0.130739 0.00299471 0 0 0 0 0 6.86103e-06 2 0 7.40559e-06 0.127337 0.153811 0.00348222 
719 0.000282743 1 0.514926 0.130355 0.00299472 0 0 0 -0.0948914 0.0181812 -3.30832e-10 2 -1.31731e-13 1.13285e-10 0.605796 0.153359 0.00348224 
1378 0.000282743 1 0.690598 0.132815 0.00363785 0 0 0 0 0 0.0595501 2 0 -0.00277371 0.812468 0.156252 0.00423006 
202 0.000282743 1 0.0980715 0.137364 0.00299472 0 0 0 0 0 -2.56356e-05 2 0 1.22964e-05 0.115378 0.161605 0.00348223 
2160 0.000282743 1 0.405008 0.138035 0.00299472 0 0 0 -0.0952025 -0.116954 -1.14916e-14 2 1.83158e-16 0 0.476481 0.162394 0.00348224 
1451 0.000282743 1 0.522987 0.138081 0.00299473 0 0 0 -0.0470255 0.253923 -2.52659e-06 2 -1.2767e-08 -8.70176e-07 0.615279 0.162449 0.00348224 
768 0.000282743 1 0.761756 0.136757 0.00299472 0 0 0 0 0 -7.52392e-11 2 0 1.71054e-12 0.896184 0.16089 0.00348224 
2451 0.000282743 1 0.00309359 0.14389 0.00364935 0 0 0 0 0 -0.0443186 2 0 -0.00277371 0.00363951 0.169282 0.00424343 
1582 0.000282743 1 0.25207 0.143686 0.00299472 0 0 0 0 0 5.17762e-10 2 0 -6.08135e-10 0.296553 0.169042 0.00348224 
410 0.000282743 1 0.470854 0.144092 0.00302569 0 0 0 0 0 0.0186614 2 0 -0.00277371 0.553946 0.169519 0.00351824 
1246 0.000282743 1 0.0608017 0.148996 0.00299472 0 0 0 0.0190195 0.0126758 7.07231e-13 2 2.59999e-16 -1.93268e-12 0.0715314 0.17529 0.00348224 
2461 0.000282743 1 0.458767 0.148491 0.00299475 0 0 0 0 0 -0.000323962 2 0 8.07977e-05 0.539726 0.174695 0.00348227 
2448 0.000282743 1 0.726557 0.149093 0.00299472 0 0 0 0 0 -1.92506e-14 2 0 0 0.854773 0.175404 0.00348224 
233 0.000282743 1 0.78372 0.148994 0.00298667 0 0 0 0.0138154 -0.0183954 0.0576164 2.00004 -4.76267e-05 -0.014044 0.922023 0.175287 0.00347287 
2991 0.000282743 1 0.486988 0.153952 0.00299472 0 0 0 0 0 -6.0504e-14 2 0 2.35402e-13 0.572927 0.181119 0.00348224 
1051 0.000282743 1 0.734649 0.153803 0.00324388 0 0 0 0 0 0.109468 2 0 -0.00277371 0.864294 0.180945 0.00377195 
1576 0.000282743 1 0.558753 0.15931 0.00299472 0 0 0 0 0 8.46391e-15 2 0 0 0.657356 0.187424 0.00348224 
2643 0.000282743 1 0.576353 0.158048 0.00299472 0 0 0 0 0 -4.64768e-11 2 0 2.1747e-11 0.678062 0.185939 0.00348224 
55 0.000282743 1 0.0393563 0.161299 0.00308039 0 0 0 0 0 -2.45245 2 0 -0.00277371 0.0463015 0.189764 0.00358184 
1415 0.000282743 1 0.170293 0.161792 0.00303728 0 0 0 0 0 -0.00940965 2 0 -0.00277371 0.200345 0.190344 0.00353172 
1669 0.000282743 1 0.254954 0.163659 0.00299472 0 0 0 0 0 -1.48173e-14 2 0 0 0.299946 0.19254 0.00348224 
1592 0.000282743 1 0.190068 0.165431 0.00299472 0 0 0 0 0 -1.48127e-14 2 0 -1.30104e-18 0.223609 0.194625 0.00348224 
2682 0.000282743 1 0.261782 0.164924 0.00299472 0 0 0 0 0 1.17896e-14 2 0 0 0.307978 0.194028 0.00348224 
2962 0.000282743 1 0.455279 0.168313 0.00299472 0 0 0 0 0 5.13963e-15 2 0 0 0.535622 0.198015 0.00348224 
344 0.000282743 1 0.513692 0.167356 0.0030351 0 0 0 0 0 -0.0113688 2 0 -0.00277371 0.604343 0.196889 0.00352919 
989 0.000282743 1 0.0968274 0.171202 0.00356154 0 0 0 0.298945 0.184532 0.00977573 2 0 -0.00277371 0.113915 0.201414 0.00414132 
330 0.000282743 1 0.244793 0.168454 0.00299472 0 0 0 0.160295 -0.198191 4.81749e-06 2 -2.05003e-08 -9.39468e-07 0.287992 0.198181 0.00348224 
826 0.000282743 1 0.812686 0.171297 0.00299472 0 0 0 0 0 8.46389e-15 2 0 0 0.956102 0.201525 0.00348224 
543 0.000282743 1 0.0381938 0.17302 0.00301164 0 0 0 0 0 0.02534 2 0 -0.00277371 0.0449339 0.203553 0.00350191 
1293 0.000282743 1 0.303405 0.174331 0.00299472 0 0 0 0 0 1.81113e-15 2 0 0 0.356947 0.205096 0.00348224 
221 0.000282743 1 0.363386 0.172561 0.00299472 0 0 0 0 0 6.24724e-15 2 0 0 0.427513 0.203013 0.00348224 
113 0.000282743 1 0.375524 0.174128 0.00299472 0 0 0 0 0 -3.73119e-15 2 0 0 0.441792 0.204856 0.00348224 
178 0.000282743 1 0.612362 0.174539 0.00347465 0 0 0 0 0 -0.445009 2 0 -0.00277371 0.720426 0.20534 0.00404029 
2278 0.000282743 1 0.260366 0.179744 0.00299472 0 0 0 0 0 -1.37069e-14 2 0 0 0.306314 0.211463 0.00348224 
2281 0.000282743 1 0.395248 0.179038 0.00296891 0 0 0 0 0 -0.0551259 2 0 0.0634111 0.464997 0.210633 0.00345222 
418 0.000282743 1 0.662886 0.176458 0.00299472 0 0 0 0 0 -3.39818e-10 2 0 2.08104e-10 0.779866 0.207597 0.00348224 
921 0.000282743 1 0.808692 0.178483 0.00318539 0 0 0 0 0 0.114832 2 0 -0.00277371 0.951402 0.20998 0.00370394 
1998 0.000282743 1 0.105357 0.183085 0.00334398 0 0 0 0 0 -0.0865245 2 0 -0.00277371 0.123949 0.215394 0.00388835 
2976 0.000282743 1 0.237797 0.187997 0.00299472 0 0 0 0.0184339 -0.00281716 8.4639e-15 2 -3.65865e-18 0 0.279761 0.221172 0.00348224 
538 0.000282743 1 0.634114 0.185347 0.00299472 0 0 0 -0.0487008 -0.149661 -1.17237e-07 2 4.96423e-10 2.97933e-07 0.746017 0.218055 0.00348224 
1164 0.000282743 1 0.44707 0.189707 0.00299473 0 0 0 0.264279 0.324661 -2.94538e-06 2 -1.99357e-08 -5.75726e-08 0.525964 0.223184 0.00348224 
87 0.000282743 1 0.510911 0.189503 0.00299472 0 0 0 0 0 7.35628e-15 2 0 0 0.601072 0.222945 0.00348224 
2327 0.000282743 1 0.556985 0.192086 0.00302974 0 0 0 0 0 -0.0154188 2 0 -0.00277371 0.655276 0.225984 0.00352296 
2888 0.000282743 1 0.213533 0.194096 0.00299492 0 0 0 -0.127448 0.0698881 -9.10237e-05 2 -1.03849e-07 -0.000122227 0.251216 0.228348 0.00348246 
371 0.000282743 1 0.296275 0.193043 0.00299472 0 0 0 0 0 1.29e-14 2 0 0 0.348559 0.22711 0.00348224 
2202 0.000282743 1 0.0921076 0.202405 0.00370532 0 0 0 0 0 0.0453945 2 0 -0.00277371 0.108362 0.238123 0.00430852 
2830 0.000282743 1 0.499685 0.204474 0.00299472 0 0 0 0 0 -1.03798e-14 2 0 0 0.587865 0.240558 0.00348224 
961 0.000282743 1 0.795746 0.208214 0.00299472 0 0 0 0 0 -1.37069e-14 2 0 0 0.936172 0.244958 0.00348224 
1172 0.000282743 1 0.0529132 0.211557 0.00299471 0 0 0 0 0 6.10566e-06 2 0 7.75499e-06 0.0622508 0.24889 0.00348222 
2621 0.000282743 1 0.109657 0.209732 0.00299472 0 0 0 0 0 -7.05689e-15 2 0 0 0.129009 0.246743 0.00348224 
2109 0.000282743 1 0.321816 0.210491 0.00299472 0 0 0 0 0 2.06604e-14 2 0 0 0.378607 0.247637 0.00348224 
1885 0.000282743 1 0.34159 0.209041 0.00336243 0 0 0 0 0 0.721037 2 0 -0.00277371 0.401871 0.245931 0.0039098 
1957 0.000282743 1 0.826698 0.213694 0.00355279 0 0 0 0 0 -2.45245 2 0 -0.00277371 0.972586 0.251405 0.00413115 
2297 0.000282743 1 0.0435484 0.216847 0.00299472 0 0 0 0.0305917 -0.0188337 -2.35594e-06 2 9.73875e-10 8.43334e-07 0.0512334 0.255114 0.00348224 
2132 0.000282743 1 0.472881 0.218281 0.00299472 0 0 0 0 0 -8.16593e-15 2 0 0 0.556331 0.256801 0.00348224 
1444 0.000282743 1 0.715587 0.218083 0.00334811 0 0 0 0 0 0.098999 2 0 -0.00277371 0.841867 0.256568 0.00389315 
145 0.000282743 1 0.00514369 0.221393 0.00299472 0 0 0 0.0399693 0.019198 6.63546e-06 2 2.42368e-09 4.34223e-06 0.0060514 0.260462 0.00348223 
2512 0.000282743 1 0.696359 0.222847 0.00332015 0 0 0 0.276724 -0.385685 -0.139585 2 0 -0.00277371 0.819246 0.262173 0.00386064 
254 0.000282743 1 0.395756 0.224656 0.00304183 0 0 0 0 0 0.00452004 2 0 -0.00277371 0.465596 0.264301 0.00353701 
2849 0.000282743 1 0.54055 0.227689 0.00299472 0 0 0 0 0 2.38254e-11 2 0 3.85339e-12 0.635941 0.267869 0.00348224 
296 0.000282743 1 0.569667 0.225465 0.00312989 0 0 0 -0.362059 -0.409167 0.0481607 2 0 -0.00277371 0.670196 0.265252 0.00363941 
256 0.000282743 1 0.675179 0.227282 0.00299472 0 0 0 0 0 1.4009e-14 2 0 0 0.794328 0.26739 0.00348224 
2268 0.000282743 1 0.710479 0.228448 0.00299472 0 0 0 0 0 2.44563e-11 2 0 -1.98985e-12 0.835858 0.268762 0.00348224 
757 0.000282743 1 0.651763 0.239584 0.00294753 0 0 0 0.135813 0.417363 0.134645 2.00027 0.000827415 0.0104561 0.76678 0.281864 0.00342736 
887 0.000282743 1 0.84557 0.24051 0.00299472 0 0 0 -0.0248797 -0.0608016 -2.96202e-11 2 4.97908e-14 6.87007e-11 0.994788 0.282954 0.00348224 
2986 0.000282743 1 0.6751 0.242794 0.00299472 0 0 0 0.00227366 -0.198296 1.7328e-08 2 -7.22496e-11 -7.21455e-10 0.794236 0.28564 0.00348224 
188 0.000282743 1 0.809232 0.243536 0.00299472 0 0 0 0.0258507 -0.0558365 -1.14898e-14 2 -1.15237e-16 -4.33681e-19 0.952038 0.286512 0.00348224 
2563 0.000282743 1 0.688357 0.250128 0.00340449 0 0 0 0.291483 0.0378063 -0.05697 2 0 -0.00277371 0.809832 0.294268 0.00395871 
1096 0.000282743 1 0.785179 0.249488 0.00299507 0 0 0 0 0 0.000105138 2 0 -0.000300524 0.92374 0.293515 0.00348264 
399 0.000282743 1 0.66901 0.253177 0.00299472 0 0 0 0 0 -7.05548e-15 2 0 0 0.787071 0.297855 0.00348224 
253 0.000282743 1 0.268665 0.260054 0.00299472 0 0 0 0 0 1.73319e-14 2 0 0 0.316077 0.305946 0.00348224 
185 0.000282743 1 0.425749 0.259601 0.00299472 0 0 0 0 0 8.85519e-15 2 0 2.07443e-14 0.500881 0.305413 0.00348224 
211 0.000282743 1 0.509904 0.256715 0.00299472 0 0 0 0 0 -1.03812e-14 2 0 0 0.599887 0.302018 0.00348224 
2020 0.000282743 1 0.713415 0.258997 0.00377446 0 0 0 0 0 0.0125908 2 0 -0.00277371 0.839311 0.304702 0.0043889 
2140 0.000282743 1 0.566776 0.26363 0.0030839 0 0 0 0.0498939 -0.170581 0.0120066 2 0 -0.00277371 0.666795 0.310153 0.00358593 
1897 0.000282743 1 0.579707 0.263484 0.00299564 0 0 0 0.400234 -0.419742 -0.00200664 1.99998 1.67536e-05 -9.92121e-05 0.682008 0.309982 0.0034833 
1100 0.000282743 1 0.779125 0.264414 0.00322048 0 0 0 -0.0808403 -0.0864587 -0.0483564 2 0 -0.00277371 0.916617 0.311075 0.00374475 
2290 0.000282743 1 0.605355 0.265797 0.00299472 0 0 0 0.171167 0.193438 -5.66344e-06 2 -2.42735e-08 2.42763e-06 0.712183 0.312702 0.00348224 
1831 0.000282743 1 0.793175 0.26646 0.0029947 0 0 0 -0.441961 0.189503 6.94539e-05 2 2.75941e-07 -9.48297e-07 0.933148 0.313482 0.00348221 
1816 0.000282743 1 0.313829 0.27068 0.00343561 0 0 0 0 0 0.0889638 2 0 -0.00277371 0.36921 0.318447 0.00399489 
2558 0.000282743 1 0.554966 0.269412 0.00299472 0 0 0 0 0 -7.62437e-14 2 0 -3.50909e-14 0.652902 0.316956 0.00348224 
2901 0.000282743 1 0.0580754 0.273057 0.00335938 0 0 0 0 0 0.0979013 2 0 -0.00277371 0.068324 0.321243 0.00390625 
823 0.000282743 1 0.535344 0.273054 0.00299472 0 0 0 0 0 1.97579e-09 2 0 2.96756e-10 0.629816 0.32124 0.00348224 
1670 0.000282743 1 0.121496 0.28049 0.00324698 0 0 0 0 0 -0.0964154 2 0 -0.00277371 0.142936 0.329989 0.00377556 
2522 0.000282743 1 0.297949 0.277552 0.00299472 0 0 0 0 0 -7.05688e-15 2 0 0 0.350528 0.326531 0.00348224 
63 0.000282743 1 0.343618 0.281348 0.00299472 0 0 0 0 0 -6.22727e-14 2 0 -4.65851e-14 0.404256 0.330997 0.00348224 
1438 0.000282743 1 0.813915 0.280935 0.00299472 0 0 0 0.336235 0.0773026 1.1525e-10 2 1.89964e-13 -1.65436e-11 0.957547 0.330512 0.00348224 
1887 0.000282743 1 0.0260627 0.286407 0.00300255 0 0 0 0 0 -0.0275009 2 0 -0.00277371 0.030662 0.336949 0.00349134 
526 0.000282743 1 0.0717946 0.287891 0.00299406 0 0 0 0.0147471 -0.211461 0.496452 2.00159 -0.022797 -0.15727 0.0844642 0.338696 0.00348146 
2585 0.000282743 1 0.0977321 0.28722 0.00317245 0 0 0 -0.149992 -0.206282 0.0225679 2 0 -0.00277371 0.114979 0.337906 0.0036889 
1911 0.000282743 1 0.129234 0.285594 0.00299472 0 0 0 0 0 1.51167e-14 2 0 0 0.15204 0.335993 0.00348224 
706 0.000282743 1 0.157859 0.286103 0.00299473 0 0 0 0 0 -5.07743e-07 2 0 3.00449e-08 0.185716 0.336592 0.00348224 
2507 0.000282743 1 0.345034 0.288627 0.00299472 0 0 0 0 0 -1.37083e-14 2 0 0 0.405923 0.339562 0.00348224 
2737 0.000282743 1 0.796878 0.284802 0.00342637 0 0 0 0.00492378 0.113455 -0.00907381 2 0 -0.00277371 0.937503 0.335061 0.00398415 
987 0.000282743 1 0.0172126 0.291819 0.00333333 0 0 0 0 0 -0.0871715 2 0 -0.00277371 0.0202501 0.343316 0.00387596 
1265 0.000282743 1 0.189226 0.289639 0.0029967 0 0 0 -0.883004 -0.383281 -0.00127986 2.00001 5.04944e-06 -0.00105212 0.222618 0.340752 0.00348454 
1696 0.000282743 1 0.793057 0.289494 0.00299464 0 0 0 0.0238224 0.139312 0.000157199 2 4.60543e-07 2.17142e-05 0.933008 0.340581 0.00348213 
2206 0.000282743 1 0.293583 0.296283 0.00299472 0 0 0 -0.0522263 -0.133467 8.14199e-08 2 -2.80356e-10 -1.3706e-07 0.345392 0.348568 0.00348224 
2838 0.000282743 1 0.683275 0.296926 0.00299462 0 0 0 0 0 7.69074e-05 2 0 5.973e-05 0.803853 0.349325 0.00348212 
818 0.000282743 1 0.0442704 0.301929 0.00299472 0 0 0 0 0 5.13823e-15 2 0 0 0.0520828 0.35521 0.00348224 
2407 0.000282743 1 0.16929 0.304103 0.00299472 0 0 0 0 0 -1.51454e-15 2 0 0 0.199165 0.357769 0.00348224 
1751 0.000282743 1 0.653046 0.304717 0.00299472 0 0 0 0.116656 -0.0736444 1.73319e-14 2 -2.034e-17 0 0.768289 0.35849 0.00348224 
1687 0.000282743 1 0.811679 0.302117 0.00300324 0 0 0 0.0524967 -0.0416125 -0.00294408 2 0 -0.00277371 0.954917 0.355432 0.00349214 
2457 0.000282743 1 0.365417 0.305371 0.00299472 0 0 0 0 0 6.46785e-08 2 0 9.93445e-08 0.429902 0.359261 0.00348224 
2082 0.000282743 1 0.37806 0.30527 0.00299472 0 0 0 0 0 1.32098e-06 2 0 -3.22014e-07 0.444777 0.359142 0.00348224 
1274 0.000282743 1 0.707096 0.305677 0.00289112 0 0 0 0 0 0.0386428 2 0 0.231911 0.831877 0.359621 0.00336177 
2380 0.000282743 1 0.454377 0.312551 0.00299472 0 0 0 0 0 7.0632e-16 2 0 0 0.534561 0.367707 0.00348224 
468 0.000282743 1 0.726719 0.310431 0.00377393 0 0 0 0 0 0.0212517 2 0 -0.00277371 0.854963 0.365213 0.0043883 
2146 0.000282743 1 0.501866 0.315994 0.00369408 0 0 0 0 0 -0.0357659 2 0 -0.00277371 0.590431 0.371757 0.00429544 
1032 0.000282743 1 0.792045 0.317681 0.00379125 0 0 0 -0.265542 0.210487 -0.129846 2 0 -0.00277371 0.931817 0.373742 0.00440843 
1872 0.000282743 1 0.123227 0.322283 0.00297215 0 0 0 0.288249 0.396423 0.0812303 2.00037 0.000504106 -0.00711879 0.144973 0.379156 0.00345599 
1798 0.000282743 1 0.504598 0.324741 0.00299472 0 0 0 0 0 -7.31046e-11 2 0 7.66616e-12 0.593644 0.382048 0.00348224 
2022 0.000282743 1 0.0941886 0.327677 0.00374322 0 0 0 0 0 0.0350099 2 0 -0.00277371 0.11081 0.385502 0.00435258 
677 0.000282743 1 0.108501 0.32702 0.00304933 0 0 0 0 0 0.126372 2 0 -0.00277371 0.127648 0.384729 0.00354573 
401 0.000282743 1 0.679028 0.326817 0.00368177 0 0 0 0 0 -0.038748 2 0 -0.00277371 0.798857 0.38449 0.00428113 
1709 0.000282743 1 0.749883 0.327373 0.00337933 0 0 0 0 0 -0.0828453 2 0 -0.00277371 0.882215 0.385144 0.00392945 
1869 0.000282743 1 0.771191 0.328484 0.00322645 0 0 0 0.151504 -0.0917282 -0.0385496 2 0 -0.00277371 0.907283 0.386452 0.00375169 
2007 0.000282743 1 0.509858 0.332481 0.00335096 0 0 0 0 0 -0.0859699 2 0 -0.00277371 0.599833 0.391154 0.00389647 
889 0.000282743 1 0.755788 0.332423 0.00299473 0 0 0 0.0553364 -0.113567 1.60346e-05 2 -4.11741e-08 -9.51398e-06 0.889163 0.391086 0.00348224 
1352 0.000282743 1 0.762526 0.329447 0.00358761 0 0 0 0 0 0.0679387 2 0 -0.00277371 0.89709 0.387585 0.00417164 
1496 0.000282743 1 0.785993 0.329645 0.00299472 0 0 0 0 0 2.92156e-15 2 0 0 0.924697 0.387817 0.00348224 
1236 0.000282743 1 0.0312241 0.333239 0.00299663 0 0 0 0 0 0.00515626 2 0 -0.00277742 0.0367342 0.392045 0.00348445 
2590 0.000282743 1 0.607637 0.333383 0.00299472 0 0 0 -0.225656 0.142456 1.65209e-14 2 -2.38387e-16 2.98719e-15 0.714867 0.392215 0.00348224 
2583 0.000282743 1 0.604533 0.343757 0.00299472 0 0 0 0 0 1.5398e-07 2 0 -3.04838e-08 0.711216 0.40442 0.00348224 
1892 0.000282743 1 0.326932 0.348409 0.00299472 0 0 0 0 0 -1.37069e-14 2 0 0 0.384626 0.409893 0.00348224 
2074 0.000282743 1 0.385029 0.348199 0.00333614 0 0 0 -0.280121 0.335018 -0.0290335 2 0 -0.00277371 0.452975 0.409646 0.00387924 
95 0.000282743 1 0.650556 0.347146 0.002995 0 0 0 0 0 -0.000312969 2 0 -0.000117862 0.76536 0.408407 0.00348256 
1785 0.000282743 1 0.353737 0.355491 0.00299472 0 0 0 0 0 1.25351e-06 2 0 -3.62748e-07 0.416161 0.418224 0.00348224 
551 0.000282743 1 0.732214 0.356213 0.00299472 0 0 0 -0.12309 0.095599 1.5182e-10 2 1.98401e-11 2.44364e-10 0.861428 0.419075 0.00348224 
130 0.000282743 1 0.108351 0.363226 0.00299472 0 0 0 0 0 8.4639e-15 2 0 0 0.127472 0.427324 0.00348224 
1601 0.000282743 1 0.339836 0.362866 0.00391103 0 0 0 -0.0343429 0.0343134 -0.0388202 2 0 -0.00277371 0.399806 0.426901 0.0045477 
1535 0.000282743 1 0.497772 0.361707 0.00299472 0 0 0 0 0 -7.05549e-15 2 0 0 0.585615 0.425537 0.00348224 
1273 0.000282743 1 0.745181 0.362216 0.00299472 0 0 0 0 0 2.87706e-13 2 0 -3.96376e-14 0.876684 0.426136 0.00348224 
2253 0.000282743 1 0.434252 0.366363 0.00299472 0 0 0 0 0 -8.48789e-13 2 0 -1.62042e-13 0.510884 0.431015 0.00348224 
2998 0.000282743 1 0.408307 0.371522 0.00299472 0 0 0 0 0 1.27831e-07 2 0 6.26071e-08 0.480362 0.437085 0.00348224 
1754 0.000282743 1 0.195237 0.374128 0.0030787 0 0 0 -0.152283 -0.0341775 0.462828 2 0 -0.00277371 0.22969 0.440151 0.00357988 
2273 0.000282743 1 0.273224 0.374454 0.00299472 0 0 0 0 0 -1.25978e-14 2 0 0 0.32144 0.440534 0.00348224 
1390 0.000282743 1 0.458933 0.378701 0.00299472 0 0 0 0 0 1.17896e-14 2 0 0 0.539921 0.445531 0.00348224 
1874 0.000282743 1 0.676604 0.377688 0.00299472 0 0 0 0 0 1.06834e-14 2 0 0 0.796004 0.444339 0.00348224 
1065 0.000282743 1 0.756005 0.379159 0.00299472 0 0 0 0 0 -1.39088e-09 2 0 1.80908e-09 0.889418 0.446069 0.00348224 
1818 0.000282743 1 0.809462 0.380627 0.00299105 0 0 0 0 0 -0.0194246 2 0 0.0101965 0.952308 0.447796 0.00347796 
161 0.000282743 1 0.0555531 0.381082 0.00299371 0 0 0 0 0 -0.000393029 2 0 0.000968137 0.0653566 0.448331 0.00348105 
2855 0.000282743 1 0.537402 0.382359 0.00345072 0 0 0 0.0612878 -0.0717648 -0.0757372 2 0 -0.00277371 0.632237 0.449834 0.00401246 
2064 0.000282743 1 0.565897 0.383106 0.00377423 0 0 0 0 0 -0.0104166 2 0 -0.00277371 0.665761 0.450713 0.00438864 
2148 0.000282743 1 0.775325 0.382648 0.00299472 0 0 0 0 0 1.13055e-10 2 0 1.18348e-10 0.912147 0.450175 0.00348224 
1280 0.000282743 1 0.815733 0.382849 0.00299472 0 0 0 0 0 -5.94646e-15 2 0 0 0.959686 0.450411 0.00348224 
417 0.000282743 1 0.534014 0.387489 0.00299498 0 0 0 0.0717888 -0.0242241 -0.00122767 2.00001 -8.84979e-06 0.000177427 0.628251 0.45587 0.00348253 
2655 0.000282743 1 0.624462 0.387301 0.00299472 0 0 0 0 0 2.97552e-13 2 0 -1.63372e-14 0.734661 0.455648 0.00348224 
2944 0.000282743 1 0.699261 0.386798 0.0036146 0 0 0 0 0 0.0637666 2 0 -0.00277371 0.822661 0.455057 0.00420303 
800 0.000282743 1 0.717266 0.388414 0.00299472 0 0 0 0 0 1.75707e-08 2 0 3.37232e-09 0.843842 0.456958 0.00348224 
354 0.000282743 1 0.328553 0.389325 0.00299475 0 0 0 0 0 4.78382e-05 2 0 -3.84662e-05 0.386533 0.458029 0.00348227 
2735 0.000282743 1 0.845522 0.391249 0.00364139 0 0 0 0 0 0.0586569 2 0 -0.00277371 0.994732 0.460292 0.00423418 
2242 0.000282743 1 0.202523 0.397517 0.00299472 0 0 0 0 0 1.80503e-08 2 0 2.60033e-09 0.238262 0.467668 0.00348224 
1642 0.000282743 1 0.616068 0.399082 0.00299472 0 0 0 0 0 1.84424e-14 2 0 0 0.724785 0.469508 0.00348224 
2786 0.000282743 1 0.563167 0.402625 0.00299472 0 0 0 0 0 -7.69829e-14 2 0 -3.48627e-14 0.66255 0.473676 0.00348224 
713 0.000282743 1 0.648334 0.404194 0.00299472 0 0 0 0 0 1.39594e-06 2 0 3.32713e-07 0.762746 0.475522 0.00348224 
509 0.000282743 1 0.404162 0.406773 0.00299472 0 0 0 0 0 1.86143e-08 2 0 -6.64019e-10 0.475485 0.478556 0.00348224 
957 0.000282743 1 0.823776 0.408595 0.00376867 0 0 0 0 0 -0.012842 2 0 -0.00277371 0.969149 0.4807 0.00438217 
1744 0.000282743 1 0.306555 0.412332 0.00299472 0 0 0 0 0 -1.81444e-14 2 0 0 0.360652 0.485096 0.00348224 
2836 0.000282743 1 0.406287 0.413551 0.00301149 0 0 0 0 0 0.0249507 2 0 -0.00277371 0.477985 0.48653 0.00350174 
1986 0.000282743 1 0.450286 0.414563 0.00363881 0 0 0 0 0 0.059316 2 0 -0.00277371 0.529749 0.487721 0.00423118 
1746 0.000282743 1 0.495642 0.414514 0.00299472 0 0 0 -0.241227 0.170979 -8.93163e-06 2 -3.47812e-08 5.70987e-06 0.583108 0.487663 0.00348223 
1937 0.000282743 1 0.0612702 0.418302 0.00299472 0 0 0 0 0 -3.7298e-15 2 0 0 0.0720826 0.492119 0.00348224 
1343 0.000282743 1 0.330628 0.419062 0.00299472 0 0 0 0 0 1.08972e-09 2 0 -6.2642e-10 0.388974 0.493014 0.00348224 
781 0.000282743 1 0.621885 0.417999 0.00299472 0 0 0 0 0 -1.46227e-14 2 0 -4.01588e-16 0.731629 0.491764 0.00348224 
2582 0.000282743 1 0.0293582 0.422549 0.00299472 0 0 0 0 0 1.06834e-14 2 0 0 0.034539 0.497116 0.00348224 
2404 0.000282743 1 0.178451 0.424269 0.00299472 0 0 0 0 0 1.81112e-15 2 0 0 0.209942 0.49914 0.00348224 
1630 0.000282743 1 0.585118 0.421336 0.00299472 0 0 0 0 0 -1.03798e-14 2 0 0 0.688374 0.49569 0.00348224 
503 0.000282743 1 0.607016 0.421994 0.00299472 0 0 0 0 0 -2.01501e-14 2 0 2.96933e-14 0.714137 0.496464 0.00348224 
2835 0.000282743 1 0.764388 0.423469 0.00299472 0 0 0 0.013483 -0.00366674 -2.62076e-15 2 6.7992e-18 0 0.89928 0.498199 0.00348224 