ITEM: TIMESTEP
25550
ITEM: NUMBER OF ATOMS
3000
ITEM: BOX BOUNDS mm mm mm
0 1.78912
0 0.85
0 0.86
ITEM: ATOMS id mass type x y z ix iy iz vx vy vz fx fy fz xs ys zs 
2788 0.000282743 1 0.281742 0.00364332 0.00299472 0 0 0 38.8764 0 5.13963e-15 1.99861 0 0 0.157475 0.00428626 0.00348224 
1319 0.000282743 1 0.59338 0.00389763 0.00299472 0 0 0 38.8764 0 -1.59235e-14 1.99861 0 0 0.33166 0.00458545 0.00348224 
24 0.000282743 1 0.379482 0.00725002 0.0075904 0 0 0 38.9045 0 0.659525 2 0 -0.00277371 0.212105 0.00852944 0.00882604 
315 0.000282743 1 0.548622 0.0078913 0.00299472 0 0 0 38.8764 0 1.17896e-14 1.99861 0 0 0.306643 0.00928389 0.00348224 
926 0.000282743 1 0.863917 0.0101532 0.0027305 0 0 0 30.7614 7.61628 0.198956 1.98488 1.24924 0.514479 0.482872 0.0119449 0.00317501 
610 0.000282743 1 0.18467 0.013257 0.00376551 0 0 0 38.9045 0 -0.0264134 2 0 -0.00277371 0.103218 0.0155965 0.00437851 
626 0.000282743 1 0.249476 0.0136063 0.00299472 0 0 0 38.8764 0 7.35628e-15 1.99861 0 0 0.139441 0.0160075 0.00348224 
229 0.000282743 1 0.457417 0.0159379 0.00373081 0 0 0 38.9045 0 0.0476954 2 0 -0.00277371 0.255666 0.0187505 0.00433815 
1485 0.000282743 1 0.626051 0.0121932 0.00299472 0 0 0 38.8764 0 -5.82419e-08 1.99861 0 2.7878e-09 0.349921 0.0143449 0.00348224 
281 0.000282743 1 0.69908 0.0121888 0.00299472 0 0 0 38.8764 0 -7.0555e-15 1.99861 0 0 0.390739 0.0143397 0.00348224 
1922 0.000282743 1 0.731613 0.0120947 0.00299472 0 0 0 38.8745 0.0118845 9.21486e-14 1.99861 2.32884e-19 -7.65174e-14 0.408923 0.0142291 0.00348224 
2338 0.000282743 1 0.280786 0.0166446 0.00299159 0 0 0 38.8769 0 0.0103524 1.99901 0 -0.000783712 0.156941 0.0195819 0.00347859 
2752 0.000282743 1 0.399631 0.0171987 0.00299472 0 0 0 38.8764 0 -1.70252e-14 1.99861 0 -2.60209e-18 0.223367 0.0202338 0.00348224 
662 0.000282743 1 0.193036 0.0227621 0.00299472 0 0 0 38.8764 0 -5.22185e-15 1.99861 0 -4.35199e-15 0.107894 0.026779 0.00348224 
136 0.000282743 1 0.855482 0.0228154 0.0036854 0 0 0 15.6806 0 0.000857667 2 0 -0.00277371 0.478158 0.0268417 0.00428535 
312 0.000282743 1 0.861547 0.0237223 0.00299763 0 0 0 16.4313 0 -0.00252332 1.99927 0 -0.0013081 0.481547 0.0279086 0.00348562 
2385 0.000282743 1 0.133106 0.0271591 0.00299472 0 0 0 38.8764 0 -4.84163e-15 1.99861 0 0 0.0743972 0.0319519 0.00348224 
356 0.000282743 1 0.790196 0.0274179 0.00381523 0 0 0 38.9045 0 -0.0026295 2 0 -0.00277371 0.441667 0.0322564 0.00443631 
2171 0.000282743 1 0.800432 0.0307014 0.00299472 0 0 0 38.8764 0 -9.27214e-15 1.99861 0 0 0.447388 0.0361193 0.00348224 
2212 0.000282743 1 0.847361 0.0284893 0.00858045 0 0 0 -0.937354 -0.961727 3.65533 1.28166 0.00500663 -0.00582146 0.473618 0.0335168 0.00997727 
2165 0.000282743 1 0.785968 0.0336834 0.00299472 0 0 0 38.8764 0 4.02921e-15 1.99861 0 0 0.439304 0.0396276 0.00348224 
1995 0.000282743 1 0.847218 0.039987 0.0128766 0 0 0 0.785949 3.90662 4.24221 0.657422 -0.341594 0.575104 0.473538 0.0470436 0.0149728 
284 0.000282743 1 0.510167 0.0405785 0.00723313 0 0 0 38.9045 0 0.659882 2 0 -0.00277371 0.285149 0.0477394 0.00841061 
153 0.000282743 1 0.806906 0.0455722 0.00299472 0 0 0 38.8764 0 8.8878e-08 1.99861 0 9.21625e-08 0.451007 0.0536144 0.00348224 
2946 0.000282743 1 0.151567 0.0503255 0.00299472 0 0 0 38.8764 0 1.73055e-11 1.99861 0 -7.3319e-12 0.0847157 0.0592065 0.00348224 
2245 0.000282743 1 0.252766 0.0511328 0.00299472 0 0 0 38.8764 0 -4.02713e-16 1.99861 0 0 0.141279 0.0601563 0.00348224 
338 0.000282743 1 0.414856 0.0513337 0.00299472 0 0 0 38.8764 0 -1.51454e-15 1.99861 0 0 0.231877 0.0603925 0.00348224 
1949 0.000282743 1 0.657561 0.0494126 0.00299472 0 0 0 38.8764 0 1.4009e-14 1.99861 0 0 0.367533 0.0581325 0.00348224 
1304 0.000282743 1 0.273532 0.0557894 0.0030311 0 0 0 38.9045 0 -0.118508 2 0 -0.00277371 0.152886 0.0656346 0.00352453 
954 0.000282743 1 0.84332 0.0549755 0.00299472 0 0 0 38.8764 0 2.0659e-14 1.99861 0 0 0.47136 0.064677 0.00348224 
2678 0.000282743 1 0.300538 0.0574585 0.00316337 0 0 0 38.9045 0 -0.106769 2 0 -0.00277371 0.167981 0.0675982 0.00367833 
2170 0.000282743 1 0.439739 0.0584649 0.00299472 0 0 0 38.8764 0 1.28986e-14 1.99861 0 0 0.245785 0.0687823 0.00348224 
1124 0.000282743 1 0.497444 0.0586676 0.00299472 0 0 0 38.8764 0 1.51167e-14 1.99861 0 0 0.278038 0.0690207 0.00348224 
849 0.000282743 1 0.535678 0.0567479 0.00299472 0 0 0 38.8764 0 -1.543e-14 1.99861 0 -8.41775e-16 0.299408 0.0667623 0.00348224 
2717 0.000282743 1 0.620239 0.0596707 0.00299472 0 0 0 38.87 -0.00913781 6.24725e-15 1.99861 6.2053e-23 0 0.346672 0.0702008 0.00348224 
2515 0.000282743 1 0.606482 0.0626138 0.00299472 0 0 0 38.8764 0 -1.03798e-14 1.99861 0 0 0.338983 0.0736633 0.00348224 
2174 0.000282743 1 0.823445 0.0611444 0.00299472 0 0 0 38.8764 0 2.0659e-14 1.99861 0 0 0.460251 0.0719345 0.00348224 
795 0.000282743 1 0.731389 0.0677477 0.00380163 0 0 0 38.916 -0.0163322 -0.0129198 2 0 -0.00277371 0.408798 0.0797031 0.0044205 
1156 0.000282743 1 0.737874 0.064281 0.00299472 0 0 0 38.8764 0 1.51153e-14 1.99861 0 0 0.412422 0.0756247 0.00348224 
2920 0.000282743 1 0.805846 0.0670631 0.00299472 0 0 0 38.8764 0 9.57294e-15 1.99861 0 0 0.450414 0.0788978 0.00348224 
1678 0.000282743 1 0.492539 0.0721212 0.00299472 0 0 0 38.8764 0 -2.61937e-15 1.99861 0 0 0.275297 0.0848485 0.00348224 
1599 0.000282743 1 0.695645 0.0709061 0.00299472 0 0 0 38.8764 0 1.0682e-14 1.99861 0 0 0.388819 0.083419 0.00348224 
367 0.000282743 1 0.31092 0.0743494 0.00299461 0 0 0 38.8748 0 5.70569e-05 1.99858 0 7.33562e-05 0.173783 0.0874699 0.00348211 
2586 0.000282743 1 0.357405 0.0759655 0.00299472 0 0 0 38.8764 0 -1.14902e-14 1.99861 0 0 0.199766 0.0893711 0.00348224 
2800 0.000282743 1 0.243057 0.0791022 0.00299472 0 0 0 38.8764 0 3.23876e-12 1.99861 0 -7.13465e-12 0.135853 0.0930614 0.00348224 
1017 0.000282743 1 0.303544 0.0776333 0.00299472 0 0 0 38.8764 0 7.35628e-15 1.99861 0 0 0.169661 0.0913333 0.00348224 
1814 0.000282743 1 0.522833 0.0771766 0.00299472 0 0 0 38.8764 0 -7.05549e-15 1.99861 0 0 0.292229 0.090796 0.00348224 
2129 0.000282743 1 0.666565 0.0775321 0.00299472 0 0 0 38.8764 0 7.35628e-15 1.99861 0 0 0.372565 0.0912142 0.00348224 
2636 0.000282743 1 0.706245 0.0790148 0.00750864 0 0 0 38.9045 0 0.654367 2 0 -0.00277371 0.394744 0.0929586 0.00873098 
2996 0.000282743 1 0.347654 0.0806714 0.00299366 0 0 0 38.8668 0 -0.00021897 1.99813 0 0.000959381 0.194316 0.0949075 0.003481 
1806 0.000282743 1 0.353137 0.0875507 0.00381078 0 0 0 38.9045 0 0.01603 2 0 -0.00277371 0.19738 0.103001 0.00443114 
2606 0.000282743 1 0.532595 0.0844638 0.00299473 0 0 0 38.8764 0 1.04734e-08 1.99861 0 -3.91099e-07 0.297685 0.0993692 0.00348224 
2881 0.000282743 1 0.636675 0.085749 0.00390246 0 0 0 38.421 -0.0531234 0.207503 2 0 -0.00277371 0.355859 0.100881 0.00453774 
876 0.000282743 1 0.690126 0.0863357 0.00299578 0 0 0 38.8733 0 -0.00353846 1.99849 0 0.000242979 0.385735 0.101571 0.00348347 
501 0.000282743 1 0.673768 0.0885397 0.00299472 0 0 0 38.877 -0.0928269 2.20544e-13 1.99861 -6.61227e-19 -2.38347e-14 0.376592 0.104164 0.00348224 
1113 0.000282743 1 0.835705 0.0940421 0.00311971 0 0 0 -6.71871 4.43129 0.095247 2 0 -0.00277371 0.467104 0.110638 0.00362757 
2182 0.000282743 1 0.844857 0.088361 0.00299109 0 0 0 -1.17317 -0.250095 -0.000706871 2.00314 0.000534774 0.00359066 0.472219 0.103954 0.00347801 
2062 0.000282743 1 0.17805 0.0928605 0.00348593 0 0 0 38.9045 0 -0.0743859 2 0 -0.00277371 0.0995179 0.109248 0.0040534 
1907 0.000282743 1 0.848113 0.0976192 0.00307469 0 0 0 4.83372 0.79138 0.160488 -10.6713 8.61436 1.88176 0.474038 0.114846 0.00357522 
2548 0.000282743 1 0.265463 0.103172 0.00299472 0 0 0 38.8764 0 4.02921e-15 1.99861 0 0 0.148376 0.121379 0.00348224 
1743 0.000282743 1 0.676236 0.101369 0.00299472 0 0 0 38.907 0.00182936 -8.16732e-15 1.99861 7.75662e-24 0 0.377971 0.119258 0.00348224 
676 0.000282743 1 0.780436 0.103492 0.00492604 0 0 0 43.01 1.34416 1.16977 2 0 -0.00277371 0.436212 0.121755 0.00572796 
1973 0.000282743 1 0.849423 0.102581 0.00355761 0 0 0 32.4097 3.00554 4.16513 -75.2288 2.56968 11.5307 0.474771 0.120684 0.00413675 
1747 0.000282743 1 0.249077 0.104694 0.00299473 0 0 0 38.8764 0 8.95569e-07 1.99861 0 -4.83425e-07 0.139217 0.123169 0.00348224 
1183 0.000282743 1 0.745311 0.107623 0.00299472 0 0 0 38.8764 0 1.80974e-15 1.99861 0 0 0.416579 0.126615 0.00348224 
1692 0.000282743 1 0.763247 0.10603 0.00301407 0 0 0 40.564 0.0444349 0.0673168 2 0 -0.00277371 0.426604 0.124741 0.00350473 
1735 0.000282743 1 0.851443 0.108795 0.0070754 0 0 0 16.9876 1.0057 6.87342 -4.28497 -0.503422 -4.76484 0.4759 0.127994 0.00822722 
886 0.000282743 1 0.761798 0.112226 0.00299472 0 0 0 38.8764 0 2.92157e-15 1.99861 0 0 0.425794 0.132031 0.00348224 
220 0.000282743 1 0.854354 0.108752 0.00230485 0 0 0 16.8124 0.0576891 0.655512 -1.26902 -0.134702 4.52041 0.477527 0.127943 0.00268006 
2801 0.000282743 1 0.213726 0.115869 0.00299472 0 0 0 38.8764 0 3.32733e-14 1.99861 0 3.30942e-15 0.119459 0.136317 0.00348224 
1801 0.000282743 1 0.452487 0.113038 0.00299472 0 0 0 38.8764 0 7.69932e-10 1.99861 0 1.27164e-09 0.25291 0.132986 0.00348224 
140 0.000282743 1 0.576444 0.114857 0.00299472 0 0 0 38.8764 0 -7.05549e-15 1.99861 0 0 0.322194 0.135126 0.00348224 
1963 0.000282743 1 0.70888 0.11349 0.0033538 0 0 0 38.7584 0.275908 0.147502 2 0 -0.00277371 0.396217 0.133517 0.00389977 
2449 0.000282743 1 0.792224 0.112484 0.00369153 0 0 0 38.9045 0 0.0567089 2 0 -0.00277371 0.4428 0.132334 0.00429247 
934 0.000282743 1 0.845843 0.114404 0.00301225 0 0 0 5.0514 0.100453 0.0211113 2 0 -0.00277371 0.47277 0.134593 0.00350261 
392 0.000282743 1 0.293886 0.116778 0.00299472 0 0 0 38.8764 0 8.4639e-15 1.99861 0 0 0.164263 0.137385 0.00348224 
1400 0.000282743 1 0.384495 0.118653 0.0033545 0 0 0 38.9045 0 -0.0886224 2 0 -0.00277371 0.214907 0.139592 0.00390059 
2620 0.000282743 1 0.340921 0.122546 0.00299472 0 0 0 38.8764 0 1.60341e-09 1.99861 0 -5.64622e-10 0.190552 0.144171 0.00348224 
2955 0.000282743 1 0.435697 0.121181 0.00299472 0 0 0 38.8764 0 1.23385e-08 1.99861 0 -4.58472e-08 0.243525 0.142565 0.00348224 
2869 0.000282743 1 0.615187 0.121321 0.00299472 0 0 0 38.6451 -0.0239456 -2.92728e-08 1.99861 -5.36652e-14 -9.60677e-09 0.343849 0.14273 0.00348224 
2063 0.000282743 1 0.73019 0.121177 0.00299472 0 0 0 38.8764 0 6.24586e-15 1.99861 0 0 0.408128 0.142561 0.00348224 
2918 0.000282743 1 0.456968 0.125633 0.00381602 0 0 0 38.9045 0 0.000683176 2 0 -0.00277371 0.255415 0.147804 0.00443723 
2312 0.000282743 1 0.846787 0.125933 0.00299892 0 0 0 5.33056 0 -0.00812704 1.99903 0 -0.000836229 0.473298 0.148157 0.00348712 
1860 0.000282743 1 0.215143 0.130739 0.00299473 0 0 0 38.8764 0 3.6266e-07 1.99861 0 -4.67979e-07 0.120251 0.153811 0.00348224 
719 0.000282743 1 0.621311 0.130455 0.00299472 0 0 0 38.7815 0.0181812 1.66741e-11 1.99861 1.83206e-18 -1.00341e-13 0.347271 0.153477 0.00348224 
1378 0.000282743 1 0.797586 0.132815 0.003817 0 0 0 38.9045 0 0.00559512 2 0 -0.00277371 0.445797 0.156252 0.00443837 
202 0.000282743 1 0.204978 0.137364 0.00299472 0 0 0 38.8763 0 1.54716e-06 1.99861 0 -1.77585e-07 0.114569 0.161605 0.00348224 
2160 0.000282743 1 0.511392 0.137392 0.00299472 0 0 0 38.7812 -0.116954 -1.14916e-14 1.99861 -9.92847e-22 0 0.285834 0.161638 0.00348224 
1451 0.000282743 1 0.629635 0.139478 0.00299472 0 0 0 38.8293 0.253923 1.26463e-09 1.99861 -5.19915e-12 8.28829e-08 0.351924 0.164092 0.00348224 
768 0.000282743 1 0.857175 0.136757 0.00299733 0 0 0 15.6344 0 -0.000970934 1.99938 0 -0.00152747 0.479104 0.16089 0.00348526 
2451 0.000282743 1 0.110081 0.14389 0.00325722 0 0 0 38.9045 0 -0.0982736 2 0 -0.00277371 0.061528 0.169282 0.00378746 
1582 0.000282743 1 0.358977 0.143686 0.00299472 0 0 0 38.8764 0 -5.73993e-11 1.99861 0 2.09251e-11 0.200644 0.169042 0.00348224 
410 0.000282743 1 0.577838 0.144092 0.00298698 0 0 0 38.8915 0 -0.00927797 1.99279 0 0.011647 0.322973 0.169519 0.00347323 
1246 0.000282743 1 0.167813 0.149066 0.00299472 0 0 0 38.8954 0.0126758 -1.60281e-13 1.99861 -2.6664e-19 8.12397e-14 0.0937963 0.175372 0.00348224 
2461 0.000282743 1 0.565673 0.148491 0.00299472 0 0 0 38.8762 0 1.41521e-05 1.99861 0 1.30741e-06 0.316174 0.174695 0.00348223 
2448 0.000282743 1 0.833464 0.149093 0.00299472 0 0 0 38.8764 0 -1.92506e-14 1.99861 0 0 0.465851 0.175404 0.00348224 
233 0.000282743 1 0.864539 0.14892 0.00309846 0 0 0 16.5595 0.00610534 -0.00782769 2 0 -0.00277371 0.48322 0.1752 0.00360286 
2991 0.000282743 1 0.593895 0.153952 0.00299472 0 0 0 38.8764 0 1.24203e-14 1.99861 0 -9.82504e-15 0.331947 0.181119 0.00348224 
1051 0.000282743 1 0.841637 0.153803 0.00369758 0 0 0 38.9045 0 0.0555132 2 0 -0.00277371 0.470419 0.180945 0.00429951 
1576 0.000282743 1 0.66566 0.15931 0.00299472 0 0 0 38.8764 0 8.46391e-15 1.99861 0 0 0.372059 0.187424 0.00348224 
2643 0.000282743 1 0.683259 0.158048 0.00299472 0 0 0 38.8764 0 2.7648e-12 1.99861 0 -2.94492e-13 0.381896 0.185939 0.00348224 
55 0.000282743 1 0.13939 0.161299 0.00624615 0 0 0 37.5482 0 0.684354 2 0 -0.00277371 0.0779097 0.189764 0.00726297 
1415 0.000282743 1 0.277201 0.161792 0.0029966 0 0 0 38.8745 0 -0.00345378 1.99881 0 -0.000385553 0.154937 0.190344 0.00348442 
1669 0.000282743 1 0.361861 0.163659 0.00299472 0 0 0 38.8764 0 -1.48173e-14 1.99861 0 0 0.202256 0.19254 0.00348224 
1592 0.000282743 1 0.296974 0.165431 0.00299472 0 0 0 38.8764 0 -1.48159e-14 1.99861 0 0 0.165989 0.194625 0.00348224 
2682 0.000282743 1 0.368688 0.164924 0.00299472 0 0 0 38.8764 0 1.17896e-14 1.99861 0 0 0.206072 0.194028 0.00348224 
2962 0.000282743 1 0.562185 0.168313 0.00299472 0 0 0 38.8764 0 5.13963e-15 1.99861 0 0 0.314224 0.198015 0.00348224 
344 0.000282743 1 0.620593 0.167356 0.00299588 0 0 0 38.8736 0 -0.00352377 1.99853 0 0.000162411 0.34687 0.196889 0.00348358 
989 0.000282743 1 0.205459 0.172217 0.00346693 0 0 0 39.2035 0.184532 -0.0441793 2 0 -0.00277371 0.114838 0.202608 0.00403131 
330 0.000282743 1 0.352582 0.167364 0.00299472 0 0 0 39.0367 -0.198191 -1.91209e-07 1.99861 -1.43299e-12 -3.27792e-08 0.19707 0.196899 0.00348224 
826 0.000282743 1 0.847938 0.168505 0.00785033 0 0 0 -0.943999 0.131151 7.55275 -3.58421 0.996483 0.681341 0.473941 0.198241 0.00912829 
543 0.000282743 1 0.145181 0.17302 0.00300263 0 0 0 38.9045 0 -0.028615 2 0 -0.00277371 0.0811467 0.203553 0.00349143 
1293 0.000282743 1 0.410312 0.174331 0.00299472 0 0 0 38.8764 0 1.81113e-15 1.99861 0 0 0.229337 0.205096 0.00348224 
221 0.000282743 1 0.470292 0.172561 0.00299472 0 0 0 38.8764 0 6.24724e-15 1.99861 0 0 0.262862 0.203013 0.00348224 
113 0.000282743 1 0.48243 0.174128 0.00299472 0 0 0 38.8764 0 -3.73119e-15 1.99861 0 0 0.269646 0.204856 0.00348224 
178 0.000282743 1 0.717705 0.174539 0.00337191 0 0 0 38.5046 0 0.100196 2 0 -0.00277371 0.401149 0.20534 0.00392083 
2278 0.000282743 1 0.367273 0.179744 0.00299472 0 0 0 38.8764 0 -1.37069e-14 1.99861 0 0 0.205281 0.211463 0.00348224 
2281 0.000282743 1 0.501805 0.179038 0.00303763 0 0 0 38.8222 0 -0.0112913 2 0 -0.00277371 0.280475 0.210633 0.00353213 
418 0.000282743 1 0.769793 0.176458 0.00299472 0 0 0 38.8764 0 2.37962e-11 1.99861 0 -4.52434e-12 0.430263 0.207597 0.00348224 
921 0.000282743 1 0.847336 0.178483 0.00359831 0 0 0 4.9602 0 0.0329404 -3.7934 0 0.00619744 0.473604 0.20998 0.00418408 
1998 0.000282743 1 0.21219 0.183085 0.00301317 0 0 0 38.8106 0 0.0255376 2 0 -0.00277371 0.1186 0.215394 0.00350369 
2976 0.000282743 1 0.344805 0.187981 0.00299472 0 0 0 38.8948 -0.00281716 8.4639e-15 1.99861 0 0 0.192723 0.221154 0.00348224 
538 0.000282743 1 0.740753 0.184524 0.00299472 0 0 0 38.8277 -0.149661 2.46379e-08 1.99861 -4.77549e-13 -1.24616e-08 0.414032 0.217087 0.00348224 
1164 0.000282743 1 0.55543 0.191492 0.00299472 0 0 0 39.1406 0.324661 7.09978e-08 1.99861 -3.94687e-12 5.04941e-08 0.310448 0.225285 0.00348224 
87 0.000282743 1 0.617818 0.189503 0.00299472 0 0 0 38.8764 0 7.35628e-15 1.99861 0 0 0.345319 0.222945 0.00348224 
2327 0.000282743 1 0.663873 0.192086 0.00299458 0 0 0 38.8711 0 -0.00266934 1.99814 0 0.000946129 0.371061 0.225984 0.00348207 
2888 0.000282743 1 0.319739 0.19448 0.00299472 0 0 0 38.7489 0.0698881 -6.63595e-06 1.99861 -1.29855e-10 7.40827e-06 0.178713 0.2288 0.00348223 
371 0.000282743 1 0.403182 0.193043 0.00299472 0 0 0 38.8764 0 1.29e-14 1.99861 0 0 0.225352 0.22711 0.00348224 
2202 0.000282743 1 0.199095 0.202405 0.00380662 0 0 0 38.9045 0 -0.00856051 2 0 -0.00277371 0.111281 0.238123 0.0044263 
2830 0.000282743 1 0.606592 0.204474 0.00299472 0 0 0 38.8764 0 -1.03798e-14 1.99861 0 0 0.339044 0.240558 0.00348224 
961 0.000282743 1 0.844166 0.208219 0.00300371 0 0 0 2.0567 0.0138711 0.00688498 2 0 -0.00277371 0.471832 0.244964 0.00349268 
1172 0.000282743 1 0.15982 0.211557 0.00299473 0 0 0 38.8764 0 4.07291e-07 1.99861 0 -4.72572e-07 0.0893287 0.24889 0.00348224 
2621 0.000282743 1 0.216564 0.209732 0.00299472 0 0 0 38.8764 0 -7.05689e-15 1.99861 0 0 0.121045 0.246743 0.00348224 
2109 0.000282743 1 0.428723 0.210491 0.00299472 0 0 0 38.8764 0 2.06604e-14 1.99861 0 0 0.239627 0.247637 0.00348224 
1885 0.000282743 1 0.448578 0.209041 0.00717975 0 0 0 38.9045 0 0.667082 2 0 -0.00277371 0.250725 0.245931 0.00834855 
1957 0.000282743 1 0.847366 0.213694 0.00981843 0 0 0 0.377718 0 2.01979 0.0640692 0 -0.0208488 0.473621 0.251405 0.0114168 
2297 0.000282743 1 0.150623 0.216743 0.00299472 0 0 0 38.907 -0.0188337 1.21402e-07 1.99861 -2.18951e-14 -2.48201e-09 0.0841884 0.254992 0.00348224 
2132 0.000282743 1 0.580124 0.218297 0.00299332 0 0 0 39.6586 0.0392805 -0.00118189 1.99783 1.3798e-06 0.00157226 0.324251 0.25682 0.00348061 
1444 0.000282743 1 0.822574 0.218083 0.00374422 0 0 0 38.9045 0 0.045044 2 0 -0.00277371 0.459764 0.256568 0.00435375 
145 0.000282743 1 0.11227 0.221499 0.00299473 0 0 0 38.9163 0.019198 1.46043e-07 1.99861 1.51533e-12 -3.1676e-07 0.0627516 0.260587 0.00348224 
2512 0.000282743 1 0.80451 0.220748 0.0030614 0 0 0 39.0571 -0.3782 0.0252119 2 0 -0.00277371 0.449668 0.259703 0.00355977 
254 0.000282743 1 0.512094 0.224852 0.00299305 0 0 0 47.7561 0.182908 0.23791 1.96255 -0.000352945 -0.0776834 0.286226 0.264532 0.00348029 
2849 0.000282743 1 0.647457 0.227689 0.00299472 0 0 0 38.8764 0 -3.27484e-13 1.99861 0 -5.72625e-13 0.361885 0.267869 0.00348224 
296 0.000282743 1 0.674663 0.223214 0.0032464 0 0 0 38.5425 -0.409167 -0.00579431 2 0 -0.00277371 0.377092 0.262605 0.00377488 
256 0.000282743 1 0.782085 0.227282 0.00299472 0 0 0 38.8764 0 1.4009e-14 1.99861 0 0 0.437134 0.26739 0.00348224 
2268 0.000282743 1 0.817386 0.228448 0.00299472 0 0 0 38.8764 0 -7.69305e-13 1.99861 0 -3.0074e-13 0.456864 0.268762 0.00348224 
757 0.000282743 1 0.759398 0.241881 0.00337228 0 0 0 39.0213 0.417477 0.0486286 2 0 -0.00277371 0.424453 0.284565 0.00392125 
887 0.000282743 1 0.847376 0.241949 0.00299295 0 0 0 -0.470661 0.737529 0.00823148 0.766951 0.0122544 -0.00189073 0.473627 0.284646 0.00348017 
2986 0.000282743 1 0.78202 0.241703 0.00299472 0 0 0 38.8786 -0.198296 -4.94687e-10 1.99861 -1.16082e-14 -2.45976e-10 0.437097 0.284356 0.00348224 
188 0.000282743 1 0.847171 0.250769 0.00292147 0 0 0 1.68571 -1.33609 0.445147 0.119054 1.17027 -0.206894 0.473512 0.295022 0.00339706 
2563 0.000282743 1 0.796936 0.250336 0.00296547 0 0 0 39.1484 0.0378088 -0.0156973 1.97267 1.3368e-06 0.0518857 0.445434 0.294513 0.00344822 
1096 0.000282743 1 0.840028 0.245249 0.00326077 0 0 0 -1.82116 -4.11244 0.415314 2 0 -0.00277371 0.46952 0.288528 0.00379159 
399 0.000282743 1 0.775917 0.253177 0.00299472 0 0 0 38.8764 0 -7.05548e-15 1.99861 0 0 0.433686 0.297855 0.00348224 
253 0.000282743 1 0.375572 0.260054 0.00299472 0 0 0 38.8764 0 1.73319e-14 1.99861 0 0 0.20992 0.305946 0.00348224 
185 0.000282743 1 0.532655 0.259601 0.00299472 0 0 0 38.8764 0 -1.78454e-14 1.99861 0 -9.2374e-17 0.297719 0.305413 0.00348224 
211 0.000282743 1 0.616811 0.256715 0.00299472 0 0 0 38.8764 0 -1.03812e-14 1.99861 0 0 0.344756 0.302018 0.00348224 
2020 0.000282743 1 0.820402 0.258997 0.00369533 0 0 0 38.9045 0 -0.0413642 2 0 -0.00277371 0.45855 0.304702 0.0042969 
2140 0.000282743 1 0.674038 0.262692 0.00300156 0 0 0 38.9544 -0.170581 -0.0419484 2 0 -0.00277371 0.376742 0.30905 0.00349018 
1897 0.000282743 1 0.68881 0.261176 0.00299466 0 0 0 39.2756 -0.41974 4.59199e-05 1.9986 4.0746e-09 3.62557e-05 0.384999 0.307266 0.00348216 
1100 0.000282743 1 0.846826 0.260685 0.00278025 0 0 0 0.626501 0.528198 0.470242 1.85691 0.126844 0.379655 0.473319 0.306688 0.00323285 
2290 0.000282743 1 0.713204 0.266861 0.00299472 0 0 0 39.0475 0.193438 3.2091e-07 1.99861 1.48844e-12 -2.52709e-08 0.398633 0.313954 0.00348224 
1831 0.000282743 1 0.846997 0.267272 0.00297251 0 0 0 2.09606 -0.287989 0.115821 1.98956 0.00181511 -0.0239713 0.473415 0.314437 0.00345641 
1816 0.000282743 1 0.420816 0.27068 0.00377653 0 0 0 38.9045 0 0.0350088 2 0 -0.00277371 0.235208 0.318447 0.00439132 
2558 0.000282743 1 0.660546 0.268397 0.00325412 0 0 0 38.5577 -0.229306 0.0695913 2 0 -0.00277371 0.369201 0.315761 0.00378386 
2901 0.000282743 1 0.165063 0.273057 0.00374946 0 0 0 38.9045 0 0.0439463 2 0 -0.00277371 0.0922592 0.321243 0.00435984 
823 0.000282743 1 0.642251 0.273054 0.00299472 0 0 0 38.8764 0 -2.88694e-11 1.99861 0 -4.63176e-11 0.358975 0.32124 0.00348224 
1670 0.000282743 1 0.228231 0.28049 0.00303424 0 0 0 38.8109 0 0.0150806 2 0 -0.00277371 0.127566 0.329989 0.00352818 
2522 0.000282743 1 0.404856 0.277552 0.00299472 0 0 0 38.8764 0 -7.05688e-15 1.99861 0 0 0.226287 0.326531 0.00348224 
63 0.000282743 1 0.450524 0.281348 0.00299472 0 0 0 38.8764 0 -1.68441e-14 1.99861 0 -7.46365e-16 0.251813 0.330997 0.00348224 
1438 0.000282743 1 0.847461 0.281002 0.00336794 0 0 0 -0.108966 0.311359 0.185868 -0.165261 -0.00285955 -0.00137052 0.473674 0.330591 0.00391621 
1887 0.000282743 1 0.132869 0.286407 0.00299401 0 0 0 38.8566 0 0.00109758 1.9985 0 0.000234114 0.0742649 0.336949 0.00348141 
526 0.000282743 1 0.178862 0.286724 0.00554163 0 0 0 38.9191 -0.212308 0.436212 2 0 -0.00277371 0.0999721 0.337322 0.00644376 
2585 0.000282743 1 0.203895 0.286085 0.0031482 0 0 0 38.7545 -0.206282 -0.0313871 2 0 -0.00277371 0.113964 0.336571 0.0036607 
1911 0.000282743 1 0.236141 0.285594 0.00299472 0 0 0 38.8764 0 1.51167e-14 1.99861 0 0 0.131987 0.335993 0.00348224 
706 0.000282743 1 0.264766 0.286103 0.00299472 0 0 0 38.8764 0 1.51423e-08 1.99861 0 6.77818e-09 0.147986 0.336592 0.00348224 
2507 0.000282743 1 0.451941 0.288627 0.00299472 0 0 0 38.8764 0 -1.37083e-14 1.99861 0 0 0.252605 0.339562 0.00348224 
2737 0.000282743 1 0.84417 0.287719 0.00395955 0 0 0 1.27637 0.784431 0.38351 2 0 -0.00277371 0.471835 0.338493 0.00460413 
987 0.000282743 1 0.124036 0.291819 0.00301568 0 0 0 38.8109 0 0.024286 2 0 -0.00277371 0.069328 0.343316 0.0035066 
1265 0.000282743 1 0.291274 0.287531 0.00299465 0 0 0 37.9928 -0.38328 -5.1156e-05 1.99858 7.25258e-09 7.56985e-05 0.162803 0.338272 0.00348215 
1696 0.000282743 1 0.847525 0.293828 0.00325703 0 0 0 0.349246 2.55363 0.475115 -1.84099 -0.497286 -0.601086 0.47371 0.345681 0.00378724 
2206 0.000282743 1 0.400203 0.295548 0.00299472 0 0 0 38.8241 -0.133467 -1.20362e-08 1.99861 1.81655e-13 5.2875e-09 0.223687 0.347704 0.00348224 
2838 0.000282743 1 0.790181 0.296926 0.00299473 0 0 0 38.8764 0 2.36098e-06 1.99862 0 -4.1149e-06 0.441659 0.349325 0.00348224 
818 0.000282743 1 0.151177 0.301929 0.00299472 0 0 0 38.8764 0 5.13823e-15 1.99861 0 0 0.0844979 0.35521 0.00348224 
2407 0.000282743 1 0.276197 0.304103 0.00299472 0 0 0 38.8764 0 -1.51454e-15 1.99861 0 0 0.154375 0.357769 0.00348224 
1751 0.000282743 1 0.760594 0.304312 0.00299472 0 0 0 38.993 -0.0736444 1.73319e-14 1.99861 -9.92847e-22 0 0.425121 0.358014 0.00348224 
1687 0.000282743 1 0.847373 0.299653 0.00334254 0 0 0 0.00499373 -1.03105 0.237718 1.07877 1.61327 0.0414164 0.473625 0.352533 0.00388667 
2457 0.000282743 1 0.472323 0.305371 0.00299472 0 0 0 38.8764 0 5.56692e-09 1.99861 0 -5.83658e-09 0.263997 0.359261 0.00348224 
2082 0.000282743 1 0.484967 0.30527 0.00299472 0 0 0 38.8764 0 -5.71113e-08 1.99861 0 -5.88155e-09 0.271064 0.359142 0.00348224 
1274 0.000282743 1 0.813433 0.305677 0.00351309 0 0 0 38.7819 0 0.0844828 2 0 -0.00277371 0.454655 0.359621 0.00408499 
2380 0.000282743 1 0.561284 0.312551 0.00299472 0 0 0 38.8764 0 7.0632e-16 1.99861 0 0 0.31372 0.367707 0.00348224 
468 0.000282743 1 0.833706 0.310431 0.00374244 0 0 0 38.9045 0 -0.0327033 2 0 -0.00277371 0.465986 0.365213 0.00435168 
2146 0.000282743 1 0.608854 0.315994 0.00334899 0 0 0 38.9045 0 -0.0897209 2 0 -0.00277371 0.340309 0.371757 0.00389417 
1032 0.000282743 1 0.866771 0.318444 0.00318757 0 0 0 17.1648 -0.0819054 0.0230229 2 0 -0.00277371 0.484467 0.374639 0.00370648 
1872 0.000282743 1 0.231726 0.324464 0.0031672 0 0 0 39.179 0.396509 0.00772336 2 0 -0.00277371 0.12952 0.381722 0.00368279 
1798 0.000282743 1 0.620674 0.325633 0.00296841 0 0 0 61.9063 2.06407 -0.0356707 1.97085 -0.00105053 0.0555619 0.346915 0.383097 0.00345164 
2022 0.000282743 1 0.201176 0.327677 0.0037874 0 0 0 38.9045 0 -0.0189451 2 0 -0.00277371 0.112444 0.385502 0.00440395 
677 0.000282743 1 0.215489 0.32702 0.003596 0 0 0 38.9045 0 0.0724174 2 0 -0.00277371 0.120444 0.384729 0.0041814 
401 0.000282743 1 0.786016 0.326817 0.00332028 0 0 0 38.9045 0 -0.092703 2 0 -0.00277371 0.43933 0.38449 0.00386079 
1709 0.000282743 1 0.851896 0.3271 0.00298466 0 0 0 13.9839 -0.565398 0.0346108 -4.87711 0.840372 -0.028509 0.476153 0.384823 0.00347053 
1869 0.000282743 1 0.86276 0.326847 0.00294562 0 0 0 20.2017 -2.39351 0.315898 1.95826 0.0029376 -0.0864618 0.482226 0.384526 0.00342514 
2007 0.000282743 1 0.616698 0.332481 0.00301122 0 0 0 38.8105 0 0.026207 2 0 -0.00277371 0.344693 0.391154 0.00350142 
889 0.000282743 1 0.848509 0.333236 0.00267571 0 0 0 -7.47987 0.799668 0.459975 3.83999 -1.40286 1.37311 0.47426 0.392042 0.00311129 
1352 0.000282743 1 0.857007 0.328758 0.00462149 0 0 0 17.8319 -1.79104 1.86231 0.762653 1.01342 0.426022 0.47901 0.386774 0.00537383 
1496 0.000282743 1 0.868068 0.329851 0.00291446 0 0 0 20.2606 0.237264 -0.0124322 1.9046 -0.00233509 0.188088 0.485192 0.38806 0.00338891 
1236 0.000282743 1 0.138152 0.333239 0.00299483 0 0 0 38.8803 0 -0.000383463 1.9986 0 3.59675e-05 0.077218 0.392045 0.00348236 
2590 0.000282743 1 0.713303 0.334167 0.00299472 0 0 0 38.6507 0.142456 1.73554e-14 1.99861 1.98569e-21 -7.37257e-18 0.398689 0.393137 0.00348224 
2583 0.000282743 1 0.71144 0.343757 0.00299472 0 0 0 38.8764 0 -6.14487e-09 1.99861 0 -1.02542e-09 0.397648 0.40442 0.00348224 
1892 0.000282743 1 0.433839 0.348409 0.00299472 0 0 0 38.8764 0 -1.37069e-14 1.99861 0 0 0.242487 0.409893 0.00348224 
2074 0.000282743 1 0.490475 0.350042 0.00302808 0 0 0 38.6244 0.335018 -0.0829885 2 0 -0.00277371 0.274143 0.411814 0.00352103 
95 0.000282743 1 0.757462 0.347146 0.00299471 0 0 0 38.8762 0 -6.01667e-07 1.99861 0 1.079e-05 0.423371 0.408407 0.00348222 
1785 0.000282743 1 0.460644 0.355491 0.00299472 0 0 0 38.8764 0 -5.83491e-08 1.99861 0 -2.82485e-09 0.257469 0.418224 0.00348224 
551 0.000282743 1 0.838443 0.356739 0.00299472 0 0 0 38.7533 0.095599 1.38816e-11 1.99861 -1.36222e-15 -1.42398e-11 0.468634 0.419693 0.00348224 
130 0.000282743 1 0.215258 0.363226 0.00299472 0 0 0 38.8764 0 8.4639e-15 1.99861 0 0 0.120315 0.427324 0.00348224 
1601 0.000282743 1 0.446634 0.363054 0.00354914 0 0 0 38.8702 0.0343134 -0.0927752 2 0 -0.00277371 0.249639 0.427123 0.0041269 
1535 0.000282743 1 0.604679 0.361707 0.00299472 0 0 0 38.8764 0 -7.05549e-15 1.99861 0 0 0.337975 0.425537 0.00348224 
1273 0.000282743 1 0.847595 0.361848 0.00297634 0 0 0 6.13771 3.33924 -0.191825 -30.1332 11.1593 -0.192473 0.473749 0.425704 0.00346086 
2253 0.000282743 1 0.541158 0.366363 0.00299472 0 0 0 38.8764 0 4.7499e-15 1.99861 0 2.28199e-14 0.302471 0.431015 0.00348224 
2998 0.000282743 1 0.515214 0.371522 0.00299472 0 0 0 38.8764 0 1.28597e-09 1.99861 0 -5.08896e-09 0.28797 0.437085 0.00348224 
1754 0.000282743 1 0.301387 0.37394 0.00547588 0 0 0 38.7523 -0.0341775 0.408873 2 0 -0.00277371 0.168455 0.43993 0.0063673 
2273 0.000282743 1 0.380131 0.374454 0.00299472 0 0 0 38.8764 0 -1.25978e-14 1.99861 0 0 0.212468 0.440534 0.00348224 
1390 0.000282743 1 0.565839 0.378701 0.00299472 0 0 0 38.8764 0 1.17896e-14 1.99861 0 0 0.316266 0.445531 0.00348224 
1874 0.000282743 1 0.78351 0.377688 0.00299472 0 0 0 38.8764 0 1.06834e-14 1.99861 0 0 0.43793 0.444339 0.00348224 
1065 0.000282743 1 0.847954 0.374612 0.00302691 0 0 0 -2.48758 -11.1813 0.0789076 -1.97181 0.667583 -0.0121866 0.47395 0.44072 0.00351966 
1818 0.000282743 1 0.849902 0.359758 0.00304618 0 0 0 7.71979 -2.84454 -2.77641e-05 -23.9149 7.53474 -0.123018 0.475039 0.423244 0.00354207 
161 0.000282743 1 0.162458 0.381082 0.00299474 0 0 0 38.8761 0 7.60589e-05 1.99863 0 -3.89211e-05 0.0908033 0.448331 0.00348226 
2855 0.000282743 1 0.644685 0.381964 0.00296829 0 0 0 38.881 -0.0714735 0.0399208 1.98912 3.39592e-05 0.0189768 0.360336 0.449369 0.0034515 
2064 0.000282743 1 0.672885 0.383106 0.00356856 0 0 0 38.9045 0 -0.0643716 2 0 -0.00277371 0.376098 0.450713 0.00414949 
2148 0.000282743 1 0.844837 0.387681 0.00285627 0 0 0 -4.31648 1.72291 -0.546525 -0.128279 -1.31415 0.243551 0.472208 0.456095 0.00332124 
1280 0.000282743 1 0.847963 0.380697 0.00298173 0 0 0 -7.87388 -2.92963 0.00960097 4.18211 1.09021 0.00281978 0.473955 0.447879 0.00346713 
417 0.000282743 1 0.641312 0.387356 0.00299469 0 0 0 38.9475 -0.0242255 4.4757e-05 1.99861 9.64054e-10 1.07081e-05 0.358451 0.455713 0.0034822 
2655 0.000282743 1 0.731369 0.387301 0.00299472 0 0 0 38.8764 0 -7.82001e-15 1.99861 0 -3.54577e-15 0.408787 0.455648 0.00348224 
2944 0.000282743 1 0.806249 0.386798 0.00381694 0 0 0 38.9045 0 0.0098116 2 0 -0.00277371 0.450639 0.455057 0.00443831 
800 0.000282743 1 0.824173 0.388414 0.00299472 0 0 0 38.8764 0 -2.03454e-10 1.99861 0 -4.47238e-10 0.460658 0.456958 0.00348224 
354 0.000282743 1 0.43546 0.389325 0.00299473 0 0 0 38.8764 0 -4.02293e-06 1.99861 0 1.07961e-06 0.243393 0.458029 0.00348224 