ITEM: TIMESTEP
25500
ITEM: NUMBER OF ATOMS
3000
ITEM: BOX BOUNDS mm mm mm
0 1.61568
0 0.85
0 0.86
ITEM: ATOMS id mass type x y z ix iy iz vx vy vz fx fy fz xs ys zs 
2788 0.000282743 1 0.263187 0.00364332 0.00299472 0 0 0 35.342 0 5.13963e-15 1.99861 0 0 0.162895 0.00428626 0.00348224 
1319 0.000282743 1 0.574825 0.00389763 0.00299472 0 0 0 35.342 0 -1.59235e-14 1.99861 0 0 0.355778 0.00458545 0.00348224 
24 0.000282743 1 0.360913 0.00725002 0.00725941 0 0 0 35.3678 0 0.66443 2 0 -0.00277371 0.223381 0.00852944 0.00844117 
315 0.000282743 1 0.530067 0.0078913 0.00299472 0 0 0 35.342 0 1.17896e-14 1.99861 0 0 0.328076 0.00928389 0.00348224 
926 0.000282743 1 0.851762 0.00665645 0.00284162 0 0 0 15.6854 6.38421 -0.136127 -16.3956 2.01358 6.02298 0.527184 0.00783112 0.00330421 
610 0.000282743 1 0.166102 0.013257 0.0037775 0 0 0 35.3678 0 -0.0215084 2 0 -0.00277371 0.102806 0.0155965 0.00439244 
626 0.000282743 1 0.230921 0.0136063 0.00299472 0 0 0 35.342 0 7.35628e-15 1.99861 0 0 0.142925 0.0160075 0.00348224 
229 0.000282743 1 0.438849 0.0159379 0.00370573 0 0 0 35.3678 0 0.0526004 2 0 -0.00277371 0.271618 0.0187505 0.00430899 
1485 0.000282743 1 0.607497 0.0121932 0.00299472 0 0 0 35.342 0 -4.08028e-08 1.99861 0 -2.38295e-08 0.376 0.0143449 0.00348224 
281 0.000282743 1 0.680526 0.0121888 0.00299472 0 0 0 35.342 0 -7.0555e-15 1.99861 0 0 0.4212 0.0143397 0.00348224 
1922 0.000282743 1 0.71306 0.0120888 0.00299472 0 0 0 35.3401 0.0118845 2.15734e-13 1.99861 2.49987e-19 -5.22642e-14 0.441336 0.0142221 0.00348224 
2338 0.000282743 1 0.262231 0.0166446 0.00298685 0 0 0 35.3445 0 0.00668987 1.99582 0 0.00558262 0.162304 0.0195819 0.00347309 
2752 0.000282743 1 0.381076 0.0171987 0.00299472 0 0 0 35.342 0 -1.70192e-14 1.99861 0 -4.33681e-18 0.235861 0.0202338 0.00348224 
662 0.000282743 1 0.174481 0.0227621 0.00299472 0 0 0 35.342 0 5.03042e-15 1.99861 0 -7.5326e-15 0.107992 0.026779 0.00348224 
136 0.000282743 1 0.845314 0.0228154 0.0036921 0 0 0 35.3678 0 -0.0433555 2 0 -0.00277371 0.523193 0.0268417 0.00429314 
312 0.000282743 1 0.854215 0.0237223 0.00299814 0 0 0 12.8953 0 0.000831814 1.99981 0 -0.0023988 0.528702 0.0279086 0.0034862 
2385 0.000282743 1 0.114551 0.0271591 0.00299472 0 0 0 35.342 0 -4.84163e-15 1.99861 0 0 0.0708995 0.0319519 0.00348224 
356 0.000282743 1 0.771627 0.0274179 0.00381532 0 0 0 35.3678 0 0.0022755 2 0 -0.00277371 0.477586 0.0322564 0.00443642 
2171 0.000282743 1 0.781877 0.0307014 0.00299472 0 0 0 35.342 0 -9.27214e-15 1.99861 0 0 0.48393 0.0361193 0.00348224 
2212 0.000282743 1 0.847826 0.0290211 0.00658678 0 0 0 1.03742 -1.05895 3.98159 -4.65907 -0.698098 2.29003 0.524748 0.0341424 0.00765905 
2165 0.000282743 1 0.767413 0.0336834 0.00299472 0 0 0 35.342 0 4.02921e-15 1.99861 0 0 0.474978 0.0396276 0.00348224 
1995 0.000282743 1 0.847464 0.0379635 0.0109376 0 0 0 -2.15668 4.0386 3.53492 2.22675 0.966711 -0.507607 0.524523 0.044663 0.0127181 
284 0.000282743 1 0.491599 0.0405785 0.00690196 0 0 0 35.3678 0 0.664787 2 0 -0.00277371 0.304267 0.0477394 0.00802553 
153 0.000282743 1 0.788352 0.0455722 0.00299472 0 0 0 35.342 0 -1.39367e-07 1.99861 0 1.56816e-07 0.487937 0.0536144 0.00348224 
2946 0.000282743 1 0.133012 0.0503255 0.00299472 0 0 0 35.342 0 2.57248e-11 1.99861 0 -1.04472e-12 0.0823256 0.0592065 0.00348224 
2245 0.000282743 1 0.234211 0.0511328 0.00299472 0 0 0 35.342 0 -4.02713e-16 1.99861 0 0 0.144961 0.0601563 0.00348224 
338 0.000282743 1 0.396301 0.0513337 0.00299472 0 0 0 35.342 0 -1.51454e-15 1.99861 0 0 0.245284 0.0603925 0.00348224 
1949 0.000282743 1 0.639007 0.0494126 0.00299472 0 0 0 35.342 0 1.4009e-14 1.99861 0 0 0.395502 0.0581325 0.00348224 
1304 0.000282743 1 0.254963 0.0557894 0.00308912 0 0 0 35.3678 0 -0.113603 2 0 -0.00277371 0.157805 0.0656346 0.003592 
954 0.000282743 1 0.824766 0.0549755 0.00299472 0 0 0 35.342 0 2.0659e-14 1.99861 0 0 0.510475 0.064677 0.00348224 
2678 0.000282743 1 0.28197 0.0574585 0.00321553 0 0 0 35.3678 0 -0.101864 2 0 -0.00277371 0.174521 0.0675982 0.00373898 
2170 0.000282743 1 0.421184 0.0584649 0.00299472 0 0 0 35.342 0 1.28986e-14 1.99861 0 0 0.260685 0.0687823 0.00348224 
1124 0.000282743 1 0.478889 0.0586676 0.00299472 0 0 0 35.342 0 1.51167e-14 1.99861 0 0 0.2964 0.0690207 0.00348224 
849 0.000282743 1 0.517123 0.0567479 0.00299472 0 0 0 35.342 0 -1.34468e-14 1.99861 0 -1.45717e-15 0.320065 0.0667623 0.00348224 
2717 0.000282743 1 0.601688 0.0596752 0.00299472 0 0 0 35.3357 -0.00913781 6.24725e-15 1.99861 6.82654e-23 0 0.372404 0.0702062 0.00348224 
2515 0.000282743 1 0.587927 0.0626138 0.00299472 0 0 0 35.342 0 -1.03798e-14 1.99861 0 0 0.363888 0.0736633 0.00348224 
2174 0.000282743 1 0.804891 0.0611444 0.00299472 0 0 0 35.342 0 2.0659e-14 1.99861 0 0 0.498173 0.0719345 0.00348224 
795 0.000282743 1 0.712815 0.0677558 0.00380686 0 0 0 35.3793 -0.0163322 -0.00801482 2 0 -0.00277371 0.441185 0.0797127 0.00442659 
1156 0.000282743 1 0.719319 0.064281 0.00299472 0 0 0 35.342 0 1.51153e-14 1.99861 0 0 0.445211 0.0756247 0.00348224 
2920 0.000282743 1 0.787291 0.0670631 0.00299472 0 0 0 35.342 0 9.57294e-15 1.99861 0 0 0.487281 0.0788978 0.00348224 
1678 0.000282743 1 0.473984 0.0721212 0.00299472 0 0 0 35.342 0 -2.61937e-15 1.99861 0 0 0.293365 0.0848485 0.00348224 
1599 0.000282743 1 0.67709 0.0709061 0.00299472 0 0 0 35.342 0 1.0682e-14 1.99861 0 0 0.419074 0.083419 0.00348224 
367 0.000282743 1 0.292366 0.0743494 0.00299462 0 0 0 35.3406 0 -0.000119445 1.99855 0 0.000118623 0.180955 0.0874699 0.00348212 
2586 0.000282743 1 0.33885 0.0759655 0.00299472 0 0 0 35.342 0 -1.14902e-14 1.99861 0 0 0.209726 0.0893711 0.00348224 
2800 0.000282743 1 0.224502 0.0791022 0.00299472 0 0 0 35.342 0 1.6866e-11 1.99861 0 -7.39466e-12 0.138952 0.0930614 0.00348224 
1017 0.000282743 1 0.284989 0.0776333 0.00299472 0 0 0 35.342 0 7.35628e-15 1.99861 0 0 0.176389 0.0913333 0.00348224 
1814 0.000282743 1 0.504279 0.0771766 0.00299472 0 0 0 35.342 0 -7.05549e-15 1.99861 0 0 0.312115 0.090796 0.00348224 
2129 0.000282743 1 0.64801 0.0775321 0.00299472 0 0 0 35.342 0 7.35628e-15 1.99861 0 0 0.401075 0.0912142 0.00348224 
2636 0.000282743 1 0.687677 0.0790148 0.00718023 0 0 0 35.3678 0 0.659272 2 0 -0.00277371 0.425626 0.0929586 0.0083491 
2996 0.000282743 1 0.329104 0.0806714 0.00299424 0 0 0 35.3335 0 -0.00213007 1.99808 0 0.00107252 0.203693 0.0949075 0.00348167 
1806 0.000282743 1 0.334569 0.0875507 0.00380154 0 0 0 35.3678 0 0.020935 2 0 -0.00277371 0.207076 0.103001 0.0044204 
2606 0.000282743 1 0.51404 0.0844638 0.00299473 0 0 0 35.342 0 8.24174e-07 1.99861 0 -4.83684e-07 0.318156 0.0993692 0.00348224 
2881 0.000282743 1 0.618348 0.0857755 0.00379748 0 0 0 34.8843 -0.0531234 0.212408 2 0 -0.00277371 0.382716 0.100912 0.00441568 
876 0.000282743 1 0.671573 0.0863357 0.00299746 0 0 0 35.3386 0 -0.00276353 1.99918 0 -0.00114253 0.415659 0.101571 0.00348542 
501 0.000282743 1 0.655213 0.0885861 0.00299472 0 0 0 35.3427 -0.0928269 1.84724e-13 1.99861 -6.62439e-19 7.18835e-14 0.405533 0.104219 0.00348224 
1113 0.000282743 1 0.839949 0.0918264 0.00307086 0 0 0 -10.2555 4.43129 0.100152 2 0 -0.00277371 0.519872 0.108031 0.00357077 
2182 0.000282743 1 0.846329 0.0884862 0.0029932 0 0 0 -4.71595 -0.250568 -0.00784912 2.00333 0.000144251 0.00388905 0.523821 0.104101 0.00348046 
2062 0.000282743 1 0.159482 0.0928605 0.00352189 0 0 0 35.3678 0 -0.0694809 2 0 -0.00277371 0.0987085 0.109248 0.00409522 
1907 0.000282743 1 0.84573 0.0975842 0.00304948 0 0 0 2.99237 0.0524415 0.0571298 2 0 -0.00277371 0.523451 0.114805 0.00354591 
2548 0.000282743 1 0.246908 0.103172 0.00299472 0 0 0 35.342 0 4.02921e-15 1.99861 0 0 0.15282 0.121379 0.00348224 
1743 0.000282743 1 0.657667 0.101368 0.00299472 0 0 0 35.3727 0.00182936 -8.16732e-15 1.99861 8.53317e-24 0 0.407052 0.119257 0.00348224 
676 0.000282743 1 0.759815 0.10282 0.00433993 0 0 0 39.4732 1.34416 1.17468 2 0 -0.00277371 0.470275 0.120964 0.00504643 
1973 0.000282743 1 0.82634 0.102513 0.00317978 0 0 0 45.9129 -0.263781 0.399755 2 0 -0.00277371 0.51145 0.120603 0.00369742 
1747 0.000282743 1 0.230522 0.104694 0.00299472 0 0 0 35.342 0 1.54874e-06 1.99861 0 -1.83972e-07 0.142678 0.123169 0.00348224 
1183 0.000282743 1 0.726756 0.107623 0.00299472 0 0 0 35.342 0 1.80974e-15 1.99861 0 0 0.449814 0.126615 0.00348224 
1692 0.000282743 1 0.743848 0.106008 0.00297627 0 0 0 37.0373 0.0444661 0.0922634 1.99243 -2.4269e-05 -0.0179056 0.460392 0.124715 0.00346078 
1735 0.000282743 1 0.835371 0.108149 0.00388336 0 0 0 38.0798 1.61719 4.81042 0.42354 -0.170814 1.38208 0.517039 0.127234 0.00451554 
886 0.000282743 1 0.743244 0.112226 0.00299472 0 0 0 35.342 0 2.92157e-15 1.99861 0 0 0.460018 0.132031 0.00348224 
220 0.000282743 1 0.840429 0.108681 0.00256156 0 0 0 38.8969 0.525086 -1.43579 1.84059 0.113776 2.08598 0.520169 0.12786 0.00297856 
2801 0.000282743 1 0.195172 0.115869 0.00299472 0 0 0 35.342 0 9.17083e-15 1.99861 0 2.17925e-14 0.120798 0.136317 0.00348224 
1801 0.000282743 1 0.433932 0.113038 0.00299472 0 0 0 35.342 0 -2.19699e-09 1.99861 0 1.94969e-09 0.268575 0.132986 0.00348224 
140 0.000282743 1 0.557889 0.114857 0.00299472 0 0 0 35.342 0 -7.05549e-15 1.99861 0 0 0.345296 0.135126 0.00348224 
1963 0.000282743 1 0.690385 0.113352 0.00327882 0 0 0 35.2216 0.275908 0.152407 2 0 -0.00277371 0.427302 0.133355 0.00381259 
2449 0.000282743 1 0.773655 0.112484 0.00366194 0 0 0 35.3678 0 0.0616139 2 0 -0.00277371 0.478841 0.132334 0.00425807 
934 0.000282743 1 0.844367 0.114351 0.00300105 0 0 0 -0.262166 0 -0.00337113 2 0 -0.00277371 0.522606 0.13453 0.00348959 
392 0.000282743 1 0.275332 0.116778 0.00299472 0 0 0 35.342 0 8.4639e-15 1.99861 0 0 0.170412 0.137385 0.00348224 
1400 0.000282743 1 0.365927 0.118653 0.00339759 0 0 0 35.3678 0 -0.0837174 2 0 -0.00277371 0.226484 0.139592 0.00395069 
2620 0.000282743 1 0.322366 0.122546 0.00299472 0 0 0 35.342 0 2.14357e-09 1.99861 0 4.65412e-11 0.199523 0.144171 0.00348224 
2955 0.000282743 1 0.417142 0.121181 0.00299472 0 0 0 35.342 0 1.03287e-07 1.99861 0 -5.149e-08 0.258183 0.142565 0.00348224 
2869 0.000282743 1 0.596748 0.121333 0.00299472 0 0 0 35.1108 -0.0239456 2.51258e-09 1.99861 -6.02922e-14 -2.57289e-08 0.369347 0.142745 0.00348224 
2063 0.000282743 1 0.711635 0.121177 0.00299472 0 0 0 35.342 0 6.24586e-15 1.99861 0 0 0.440455 0.142561 0.00348224 
2918 0.000282743 1 0.4384 0.125633 0.00381445 0 0 0 35.3678 0 0.00558818 2 0 -0.00277371 0.27134 0.147804 0.00443541 
2312 0.000282743 1 0.845006 0.125933 0.00300206 0 0 0 1.79412 0 -0.00389765 2 0 -0.00277371 0.523002 0.148157 0.00349077 
1860 0.000282743 1 0.196589 0.130739 0.00299472 0 0 0 35.342 0 1.19643e-06 1.99861 0 -4.1458e-07 0.121675 0.153811 0.00348224 
719 0.000282743 1 0.602804 0.130446 0.00299472 0 0 0 35.2471 0.0181812 1.02224e-11 1.99861 1.14363e-18 7.69422e-12 0.373095 0.153466 0.00348224 
1378 0.000282743 1 0.779018 0.132815 0.00381298 0 0 0 35.3678 0 0.0105001 2 0 -0.00277371 0.48216 0.156252 0.00443369 
202 0.000282743 1 0.186424 0.137364 0.00299472 0 0 0 35.342 0 1.30038e-06 1.99861 0 5.03713e-07 0.115384 0.161605 0.00348224 
2160 0.000282743 1 0.492885 0.13745 0.00299472 0 0 0 35.2468 -0.116954 -1.14916e-14 1.99861 -1.09225e-21 0 0.305063 0.161706 0.00348224 
1451 0.000282743 1 0.611104 0.139351 0.00299472 0 0 0 35.295 0.253923 -1.72569e-07 1.99861 -5.65233e-12 1.04137e-07 0.378233 0.163942 0.00348224 
768 0.000282743 1 0.849556 0.136757 0.00299535 0 0 0 20.6655 0 0.0142104 -59.0021 0 0.0386096 0.525818 0.16089 0.00348296 
2451 0.000282743 1 0.091513 0.14389 0.00330513 0 0 0 35.3678 0 -0.0933686 2 0 -0.00277371 0.0566404 0.169282 0.00384317 
1582 0.000282743 1 0.340422 0.143686 0.00299472 0 0 0 35.342 0 -7.82263e-11 1.99861 0 -7.76813e-13 0.210699 0.169042 0.00348224 
410 0.000282743 1 0.559273 0.144092 0.00299653 0 0 0 35.3663 0 -0.0273705 1.99544 0 0.0063391 0.346153 0.169519 0.00348434 
1246 0.000282743 1 0.149249 0.14906 0.00299472 0 0 0 35.3611 0.0126758 -2.66078e-13 1.99861 -2.84051e-19 2.60152e-14 0.0923751 0.175364 0.00348224 
2461 0.000282743 1 0.547118 0.148491 0.00299471 0 0 0 35.3419 0 5.75978e-06 1.99861 0 8.27522e-06 0.33863 0.174695 0.00348222 
2448 0.000282743 1 0.814909 0.149093 0.00299472 0 0 0 35.342 0 -1.92506e-14 1.99861 0 0 0.504374 0.175404 0.00348224 
233 0.000282743 1 0.857144 0.148917 0.00310115 0 0 0 13.0227 0.00610534 -0.00292269 2 0 -0.00277371 0.530515 0.175197 0.00360599 
2991 0.000282743 1 0.57534 0.153952 0.00299472 0 0 0 35.342 0 3.06603e-14 1.99861 0 -6.19773e-15 0.356097 0.181119 0.00348224 
1051 0.000282743 1 0.823069 0.153803 0.00366859 0 0 0 35.3678 0 0.0604182 2 0 -0.00277371 0.509425 0.180945 0.0042658 
1576 0.000282743 1 0.647105 0.15931 0.00299472 0 0 0 35.342 0 8.46391e-15 1.99861 0 0 0.400515 0.187424 0.00348224 
2643 0.000282743 1 0.664705 0.158048 0.00299472 0 0 0 35.342 0 2.27685e-12 1.99861 0 9.28552e-13 0.411408 0.185939 0.00348224 
55 0.000282743 1 0.1215 0.161299 0.00590275 0 0 0 34.0115 0 0.689259 2 0 -0.00277371 0.0752004 0.189764 0.00686366 
1415 0.000282743 1 0.258647 0.161792 0.00299795 0 0 0 35.3392 0 -0.00154251 1.99948 0 -0.0017331 0.160085 0.190344 0.00348599 
1669 0.000282743 1 0.343306 0.163659 0.00299472 0 0 0 35.342 0 -1.48173e-14 1.99861 0 0 0.212484 0.19254 0.00348224 
1592 0.000282743 1 0.27842 0.165431 0.00299472 0 0 0 35.342 0 -1.48159e-14 1.99861 0 0 0.172323 0.194625 0.00348224 
2682 0.000282743 1 0.350134 0.164924 0.00299472 0 0 0 35.342 0 1.17896e-14 1.99861 0 0 0.216709 0.194028 0.00348224 
2962 0.000282743 1 0.543631 0.168313 0.00299472 0 0 0 35.342 0 5.13963e-15 1.99861 0 0 0.336471 0.198015 0.00348224 
344 0.000282743 1 0.60204 0.167356 0.00299752 0 0 0 35.3388 0 -0.00260291 1.99922 0 -0.00121785 0.372623 0.196889 0.00348548 
989 0.000282743 1 0.186742 0.172124 0.00348779 0 0 0 35.6667 0.184532 -0.0392743 2 0 -0.00277371 0.115581 0.202499 0.00405557 
330 0.000282743 1 0.333947 0.167463 0.00299473 0 0 0 35.5023 -0.198191 -4.62675e-08 1.99861 -1.6635e-12 -1.30616e-07 0.206691 0.197015 0.00348224 
826 0.000282743 1 0.848302 0.169789 0.0048463 0 0 0 -6.79768 -4.47563 5.64636 -0.452506 2.21902 -2.63816 0.525042 0.199752 0.00563523 
543 0.000282743 1 0.126613 0.17302 0.00301571 0 0 0 35.3678 0 -0.02371 2 0 -0.00277371 0.0783651 0.203553 0.00350664 
1293 0.000282743 1 0.391757 0.174331 0.00299472 0 0 0 35.342 0 1.81113e-15 1.99861 0 0 0.242471 0.205096 0.00348224 
221 0.000282743 1 0.451738 0.172561 0.00299472 0 0 0 35.342 0 6.24724e-15 1.99861 0 0 0.279595 0.203013 0.00348224 
113 0.000282743 1 0.463876 0.174128 0.00299472 0 0 0 35.342 0 -3.73119e-15 1.99861 0 0 0.287108 0.204856 0.00348224 
178 0.000282743 1 0.699337 0.174539 0.00332059 0 0 0 34.9678 0 0.105101 2 0 -0.00277371 0.432843 0.20534 0.00386115 
2278 0.000282743 1 0.348719 0.179744 0.00299472 0 0 0 35.342 0 -1.37069e-14 1.99861 0 0 0.215834 0.211463 0.00348224 
2281 0.000282743 1 0.483278 0.179038 0.00304205 0 0 0 35.2854 0 -0.00638629 2 0 -0.00277371 0.299117 0.210633 0.00353727 
418 0.000282743 1 0.751238 0.176458 0.00299472 0 0 0 35.342 0 2.37511e-11 1.99861 0 5.50613e-12 0.464966 0.207597 0.00348224 
921 0.000282743 1 0.845277 0.178483 0.0035815 0 0 0 2.40322 0 0.035961 2 0 -0.00277371 0.52317 0.20998 0.00416453 
1998 0.000282743 1 0.193669 0.183085 0.00299917 0 0 0 35.274 0 0.0308789 1.99708 0 -0.00862341 0.119868 0.215394 0.00348741 
2976 0.000282743 1 0.326241 0.187982 0.00299472 0 0 0 35.3605 -0.00281716 8.4639e-15 1.99861 0 0 0.201922 0.221156 0.00348224 
538 0.000282743 1 0.722223 0.184599 0.00299472 0 0 0 35.2933 -0.149661 4.08547e-08 1.99861 -5.08781e-13 -4.0142e-09 0.447008 0.217175 0.00348224 
1164 0.000282743 1 0.536743 0.19133 0.00299472 0 0 0 35.6063 0.324661 -6.29637e-08 1.99861 -4.35469e-12 9.63756e-08 0.332208 0.225094 0.00348224 
87 0.000282743 1 0.599264 0.189503 0.00299472 0 0 0 35.342 0 7.35628e-15 1.99861 0 0 0.370904 0.222945 0.00348224 
2327 0.000282743 1 0.645321 0.192086 0.00299621 0 0 0 35.3372 0 -0.00354684 1.99865 0 -8.07164e-05 0.399411 0.225984 0.00348397 
2888 0.000282743 1 0.301248 0.194445 0.00299472 0 0 0 35.2146 0.0698881 -1.94753e-05 1.99861 -1.3978e-10 6.14039e-06 0.186452 0.228759 0.00348224 
371 0.000282743 1 0.384627 0.193043 0.00299472 0 0 0 35.342 0 1.29e-14 1.99861 0 0 0.238058 0.22711 0.00348224 
2202 0.000282743 1 0.180527 0.202405 0.00380967 0 0 0 35.3678 0 -0.00365551 2 0 -0.00277371 0.111734 0.238123 0.00442985 
2830 0.000282743 1 0.588037 0.204474 0.00299472 0 0 0 35.342 0 -1.03798e-14 1.99861 0 0 0.363956 0.240558 0.00348224 
961 0.000282743 1 0.844272 0.208214 0.00300407 0 0 0 -2.20073 0 0.00128708 2 0 -0.00277371 0.522548 0.244958 0.00349311 
1172 0.000282743 1 0.141265 0.211557 0.00299472 0 0 0 35.342 0 1.23284e-06 1.99861 0 -3.99389e-07 0.0874338 0.24889 0.00348224 
2621 0.000282743 1 0.198009 0.209732 0.00299472 0 0 0 35.342 0 -7.05689e-15 1.99861 0 0 0.122555 0.246743 0.00348224 
2109 0.000282743 1 0.410168 0.210491 0.00299472 0 0 0 35.342 0 2.06604e-14 1.99861 0 0 0.253867 0.247637 0.00348224 
1885 0.000282743 1 0.43001 0.209041 0.00684499 0 0 0 35.3678 0 0.671987 2 0 -0.00277371 0.266147 0.245931 0.00795929 
1957 0.000282743 1 0.847411 0.213694 0.00880629 0 0 0 -0.843525 0 2.00811 0.882134 0 0.0458123 0.524491 0.251405 0.0102399 
2297 0.000282743 1 0.132053 0.216753 0.00299472 0 0 0 35.3726 -0.0188337 7.80891e-08 1.99861 -1.74082e-14 5.38305e-08 0.0817323 0.255003 0.00348224 
2132 0.000282743 1 0.561234 0.218281 0.00299472 0 0 0 35.342 0 -8.16593e-15 1.99861 0 0 0.347366 0.256801 0.00348224 
1444 0.000282743 1 0.804006 0.218083 0.00372048 0 0 0 35.3678 0 0.049949 2 0 -0.00277371 0.497626 0.256568 0.00432614 
145 0.000282743 1 0.0936957 0.221489 0.00299472 0 0 0 35.382 0.019198 7.50122e-07 1.99861 1.6393e-12 -3.2724e-07 0.0579914 0.260575 0.00348224 
2512 0.000282743 1 0.785866 0.220937 0.00304757 0 0 0 35.5203 -0.3782 0.0301169 2 0 -0.00277371 0.486398 0.259926 0.00354369 
254 0.000282743 1 0.489084 0.224761 0.00285154 0 0 0 44.296 0.183675 0.22951 1.87291 -0.00132801 0.251419 0.30271 0.264425 0.00331574 
2849 0.000282743 1 0.628902 0.227689 0.00299472 0 0 0 35.342 0 1.00014e-12 1.99861 0 -8.68586e-13 0.389249 0.267869 0.00348224 
296 0.000282743 1 0.656276 0.223419 0.00324807 0 0 0 35.0057 -0.409167 -0.000889312 2 0 -0.00277371 0.406191 0.262846 0.00377682 
256 0.000282743 1 0.763531 0.227282 0.00299472 0 0 0 35.342 0 1.4009e-14 1.99861 0 0 0.472575 0.26739 0.00348224 
2268 0.000282743 1 0.798832 0.228448 0.00299472 0 0 0 35.342 0 1.66963e-13 1.99861 0 -7.36333e-13 0.494423 0.268762 0.00348224 
757 0.000282743 1 0.740771 0.241672 0.00334674 0 0 0 35.4846 0.417477 0.0535336 2 0 -0.00277371 0.458488 0.28432 0.00389156 
887 0.000282743 1 0.847675 0.241583 0.00298905 0 0 0 0.263155 0.750586 0.00283804 -2.33464 -0.0455989 0.0106078 0.524654 0.284215 0.00347564 
2986 0.000282743 1 0.763464 0.241802 0.00299472 0 0 0 35.3443 -0.198296 2.17349e-10 1.99861 -1.28921e-14 -5.39273e-10 0.472533 0.284473 0.00348224 
188 0.000282743 1 0.847002 0.251426 0.00269161 0 0 0 -1.83161 0.76965 0.18003 4.06113 -3.59941 0.640173 0.524238 0.295796 0.00312978 
2563 0.000282743 1 0.778234 0.250317 0.00299704 0 0 0 35.6582 0.0378063 -0.103853 1.98549 8.67904e-07 0.0262488 0.481675 0.294491 0.00348493 
1096 0.000282743 1 0.841822 0.247305 0.00305189 0 0 0 -5.35794 -4.11244 0.420219 2 0 -0.00277371 0.521032 0.290947 0.00354871 
399 0.000282743 1 0.757362 0.253177 0.00299472 0 0 0 35.342 0 -7.05548e-15 1.99861 0 0 0.468757 0.297855 0.00348224 
253 0.000282743 1 0.357018 0.260054 0.00299472 0 0 0 35.342 0 1.73319e-14 1.99861 0 0 0.22097 0.305946 0.00348224 
185 0.000282743 1 0.514101 0.259601 0.00299472 0 0 0 35.342 0 -1.76274e-14 1.99861 0 -1.60028e-16 0.318194 0.305413 0.00348224 
211 0.000282743 1 0.598256 0.256715 0.00299472 0 0 0 35.342 0 -1.03812e-14 1.99861 0 0 0.370281 0.302018 0.00348224 
2020 0.000282743 1 0.801834 0.258997 0.00371479 0 0 0 35.3678 0 -0.0364592 2 0 -0.00277371 0.496282 0.304702 0.00431952 
2140 0.000282743 1 0.655445 0.262777 0.0030213 0 0 0 35.4177 -0.170581 -0.0370434 2 0 -0.00277371 0.405676 0.30915 0.00351315 
1897 0.000282743 1 0.670056 0.261386 0.00299466 0 0 0 35.7413 -0.41974 -4.83757e-05 1.99858 4.53733e-09 6.69472e-05 0.41472 0.307513 0.00348216 
1100 0.000282743 1 0.847374 0.260566 0.00295859 0 0 0 -3.90541 -0.854025 -0.831423 5.46969 3.07158 -1.19173 0.524468 0.306548 0.00344023 
2290 0.000282743 1 0.694563 0.266764 0.00299472 0 0 0 35.5132 0.193438 2.45545e-07 1.99861 1.44445e-12 1.18921e-07 0.429888 0.31384 0.00348224 
1831 0.000282743 1 0.846833 0.267419 0.00292043 0 0 0 -1.46066 -0.311545 0.0445765 2.06503 0.0212244 0.134046 0.524133 0.314611 0.00339585 
1816 0.000282743 1 0.402248 0.27068 0.0037578 0 0 0 35.3678 0 0.0399138 2 0 -0.00277371 0.248965 0.318447 0.00436954 
2558 0.000282743 1 0.642151 0.268512 0.00321809 0 0 0 35.0209 -0.229306 0.0744963 2 0 -0.00277371 0.397449 0.315896 0.00374197 
2901 0.000282743 1 0.146495 0.273057 0.00372626 0 0 0 35.3678 0 0.0488513 2 0 -0.00277371 0.0906705 0.321243 0.00433286 
823 0.000282743 1 0.623696 0.273054 0.00299472 0 0 0 35.342 0 7.95251e-11 1.99861 0 -7.14001e-11 0.386026 0.32124 0.00348224 
1670 0.000282743 1 0.20971 0.28049 0.00302547 0 0 0 35.2741 0 0.0199856 2 0 -0.00277371 0.129797 0.329989 0.00351799 
2522 0.000282743 1 0.386301 0.277552 0.00299472 0 0 0 35.342 0 -7.05688e-15 1.99861 0 0 0.239095 0.326531 0.00348224 
63 0.000282743 1 0.43197 0.281348 0.00299472 0 0 0 35.342 0 -1.50858e-14 1.99861 0 -1.29194e-15 0.26736 0.330997 0.00348224 
1438 0.000282743 1 0.847376 0.280845 0.00327384 0 0 0 0.434365 0.306486 0.191571 -0.0613978 0.0298985 -0.00407571 0.524469 0.330406 0.00380679 
1887 0.000282743 1 0.114324 0.286407 0.00299366 0 0 0 35.3228 0 0.000137968 1.99819 0 0.000844987 0.070759 0.336949 0.00348099 
526 0.000282743 1 0.160287 0.28683 0.0053223 0 0 0 35.3824 -0.212308 0.441117 2 0 -0.00277371 0.0992069 0.337447 0.00618872 
2585 0.000282743 1 0.185402 0.286189 0.00316267 0 0 0 35.2178 -0.206282 -0.0264821 2 0 -0.00277371 0.114751 0.336692 0.00367752 
1911 0.000282743 1 0.217586 0.285594 0.00299472 0 0 0 35.342 0 1.51167e-14 1.99861 0 0 0.134671 0.335993 0.00348224 
706 0.000282743 1 0.246211 0.286103 0.00299472 0 0 0 35.342 0 -5.08229e-09 1.99861 0 1.55688e-08 0.152388 0.336592 0.00348224 
2507 0.000282743 1 0.433386 0.288627 0.00299472 0 0 0 35.342 0 -1.37083e-14 1.99861 0 0 0.268237 0.339562 0.00348224 
2737 0.000282743 1 0.844416 0.287327 0.00376657 0 0 0 -2.26041 0.784431 0.388415 2 0 -0.00277371 0.522637 0.338032 0.00437973 
987 0.000282743 1 0.105515 0.291819 0.00300231 0 0 0 35.2741 0 0.029191 2 0 -0.00277371 0.0653068 0.343316 0.00349106 
1265 0.000282743 1 0.273161 0.287723 0.00299471 0 0 0 34.4586 -0.38328 -0.000188863 1.99858 7.80981e-09 7.03266e-05 0.169068 0.338497 0.00348222 
1696 0.000282743 1 0.847008 0.292982 0.0027984 0 0 0 0.754245 1.02243 1.41409 1.49757 1.92737 -1.17954 0.524242 0.344684 0.00325396 
2206 0.000282743 1 0.381674 0.295615 0.00299472 0 0 0 35.2898 -0.133467 -1.82849e-08 1.99861 1.92965e-13 9.61275e-10 0.236231 0.347783 0.00348224 
2838 0.000282743 1 0.771627 0.296926 0.00299473 0 0 0 35.3421 0 1.00234e-05 1.99862 0 -4.0342e-06 0.477585 0.349325 0.00348224 
818 0.000282743 1 0.132622 0.301929 0.00299472 0 0 0 35.342 0 5.13823e-15 1.99861 0 0 0.0820844 0.35521 0.00348224 
2407 0.000282743 1 0.257642 0.304103 0.00299472 0 0 0 35.342 0 -1.51454e-15 1.99861 0 0 0.159463 0.357769 0.00348224 
1751 0.000282743 1 0.741981 0.304348 0.00299472 0 0 0 35.4587 -0.0736444 1.73319e-14 1.99861 -1.09225e-21 0 0.459237 0.358057 0.00348224 
1687 0.000282743 1 0.847574 0.300267 0.00322492 0 0 0 -0.321591 -1.23472 0.158925 -0.846672 0.0371673 0.284034 0.524592 0.353255 0.0037499 
2457 0.000282743 1 0.453769 0.305371 0.00299472 0 0 0 35.342 0 1.55485e-08 1.99861 0 -4.68096e-09 0.280852 0.359261 0.00348224 
2082 0.000282743 1 0.466412 0.30527 0.00299472 0 0 0 35.342 0 -2.19941e-08 1.99861 0 -3.41297e-08 0.288678 0.359142 0.00348224 
1274 0.000282743 1 0.794926 0.305677 0.00346963 0 0 0 35.2451 0 0.0893878 2 0 -0.00277371 0.492006 0.359621 0.00403445 
2380 0.000282743 1 0.542729 0.312551 0.00299472 0 0 0 35.342 0 7.0632e-16 1.99861 0 0 0.335913 0.367707 0.00348224 
468 0.000282743 1 0.815138 0.310431 0.00375757 0 0 0 35.3678 0 -0.0277983 2 0 -0.00277371 0.504516 0.365213 0.00436926 
2146 0.000282743 1 0.590286 0.315994 0.00339262 0 0 0 35.3678 0 -0.0848159 2 0 -0.00277371 0.365347 0.371757 0.00394491 
1032 0.000282743 1 0.859072 0.318484 0.00317483 0 0 0 13.628 -0.0819054 0.0279279 2 0 -0.00277371 0.531708 0.374688 0.00369167 
1872 0.000282743 1 0.213021 0.324265 0.00316211 0 0 0 35.6422 0.396509 0.0126284 2 0 -0.00277371 0.131846 0.381489 0.00367687 
1798 0.000282743 1 0.59295 0.324741 0.00299472 0 0 0 35.342 0 -2.4798e-13 1.99861 0 2.15411e-12 0.366996 0.382048 0.00348224 
2022 0.000282743 1 0.182608 0.327677 0.00379565 0 0 0 35.3678 0 -0.0140401 2 0 -0.00277371 0.113022 0.385502 0.00441354 
677 0.000282743 1 0.19692 0.32702 0.00355857 0 0 0 35.3678 0 0.0773224 2 0 -0.00277371 0.121881 0.384729 0.00413787 
401 0.000282743 1 0.767448 0.326817 0.00336541 0 0 0 35.3678 0 -0.087798 2 0 -0.00277371 0.474999 0.38449 0.00391326 
1709 0.000282743 1 0.838231 0.327373 0.00298367 0 0 0 35.2789 0 0.0449653 1.99833 0 -0.00611668 0.518809 0.385144 0.00346939 
1869 0.000282743 1 0.85344 0.327881 0.00295053 0 0 0 17.4883 -1.21544 -0.503987 5.99002 -1.6791 -0.36775 0.528222 0.385743 0.00343084 
2007 0.000282743 1 0.598177 0.332481 0.00299679 0 0 0 35.2749 0 0.0334467 1.99608 0 -0.010623 0.370231 0.391154 0.00348463 
889 0.000282743 1 0.844411 0.331856 0.00299517 0 0 0 34.7162 0.0304684 0.0473872 -10.5896 2.60336 0.723511 0.522634 0.390419 0.00348276 
1352 0.000282743 1 0.849431 0.329535 0.00385678 0 0 0 12.2268 1.34193 0.797471 -36.9781 0.88178 0.668397 0.525741 0.387688 0.00448463 
1496 0.000282743 1 0.85876 0.32975 0.00298698 0 0 0 16.3577 0.21691 -0.160978 3.50821 -0.143721 -0.199862 0.531515 0.387941 0.00347324 
1236 0.000282743 1 0.119596 0.333239 0.00299501 0 0 0 35.346 0 -0.000306907 1.99868 0 -0.000132554 0.0740219 0.392045 0.00348257 
2590 0.000282743 1 0.694861 0.334095 0.00299472 0 0 0 35.1164 0.142456 1.7373e-14 1.99861 2.18449e-21 -1.30104e-17 0.430072 0.393053 0.00348224 
2583 0.000282743 1 0.692886 0.343757 0.00299472 0 0 0 35.342 0 -1.54543e-09 1.99861 0 -4.16264e-09 0.42885 0.40442 0.00348224 
1892 0.000282743 1 0.415284 0.348409 0.00299472 0 0 0 35.342 0 -1.37069e-14 1.99861 0 0 0.257033 0.409893 0.00348224 
2074 0.000282743 1 0.472047 0.349874 0.00306835 0 0 0 35.0876 0.335018 -0.0780835 2 0 -0.00277371 0.292166 0.411617 0.00356785 
95 0.000282743 1 0.738908 0.347146 0.00299472 0 0 0 35.3419 0 -2.29259e-05 1.99861 0 1.31954e-05 0.457334 0.408407 0.00348223 
1785 0.000282743 1 0.442089 0.355491 0.00299472 0 0 0 35.342 0 -2.91297e-08 1.99861 0 -3.08915e-08 0.273624 0.418224 0.00348224 
551 0.000282743 1 0.81995 0.356691 0.00299472 0 0 0 35.2189 0.095599 3.81144e-11 1.99861 -1.50725e-15 -1.12802e-11 0.507494 0.419637 0.00348224 
130 0.000282743 1 0.196704 0.363226 0.00299472 0 0 0 35.342 0 8.4639e-15 1.99861 0 0 0.121746 0.427324 0.00348224 
1601 0.000282743 1 0.428083 0.363037 0.0035943 0 0 0 35.3334 0.0343134 -0.0878702 2 0 -0.00277371 0.264955 0.427103 0.00417942 
1535 0.000282743 1 0.586125 0.361707 0.00299472 0 0 0 35.342 0 -7.05549e-15 1.99861 0 0 0.362772 0.425537 0.00348224 
1273 0.000282743 1 0.833533 0.362216 0.00299472 0 0 0 35.342 0 -1.73564e-15 1.99861 0 -5.43359e-15 0.515901 0.426136 0.00348224 
2253 0.000282743 1 0.522604 0.366363 0.00299472 0 0 0 35.342 0 -4.58137e-14 1.99861 0 3.09392e-14 0.323457 0.431015 0.00348224 
2998 0.000282743 1 0.496659 0.371522 0.00299472 0 0 0 35.342 0 1.14145e-08 1.99861 0 -5.7545e-09 0.307399 0.437085 0.00348224 
1754 0.000282743 1 0.282895 0.373957 0.00527021 0 0 0 35.2155 -0.0341775 0.413778 2 0 -0.00277371 0.175093 0.43995 0.00612816 
2273 0.000282743 1 0.361576 0.374454 0.00299472 0 0 0 35.342 0 -1.25978e-14 1.99861 0 0 0.223791 0.440534 0.00348224 
1390 0.000282743 1 0.547285 0.378701 0.00299472 0 0 0 35.342 0 1.17896e-14 1.99861 0 0 0.338733 0.445531 0.00348224 
1874 0.000282743 1 0.764956 0.377688 0.00299472 0 0 0 35.342 0 1.06834e-14 1.99861 0 0 0.473457 0.444339 0.00348224 
1065 0.000282743 1 0.844302 0.379154 0.00299479 0 0 0 31.8189 -0.326053 0.00393151 -32.6846 -4.12859 0.0383661 0.522567 0.446064 0.00348231 
1818 0.000282743 1 0.847405 0.363612 0.00303873 0 0 0 -0.0786773 -10.1802 0.0179267 0.211824 -0.0238739 -0.00185307 0.524487 0.427778 0.0035334 
161 0.000282743 1 0.143904 0.381082 0.00299469 0 0 0 35.3418 0 0.00012714 1.99862 0 -1.30255e-05 0.0890667 0.448331 0.0034822 
2855 0.000282743 1 0.62612 0.382 0.00296478 0 0 0 35.3869 -0.0716143 -0.0405062 1.96574 0.000117704 0.0657414 0.387526 0.449411 0.00344742 
2064 0.000282743 1 0.654317 0.383106 0.00359952 0 0 0 35.3678 0 -0.0594666 2 0 -0.00277371 0.404978 0.450713 0.00418549 
2148 0.000282743 1 0.846367 0.385385 0.00301539 0 0 0 -2.24464 8.42933 0.0568557 0.853426 0.88389 0.00203633 0.523845 0.453394 0.00350627 
1280 0.000282743 1 0.848487 0.381001 0.00298535 0 0 0 -3.41299 -0.0200286 -0.00507185 29.6929 3.83292 -0.0180119 0.525157 0.448237 0.00347133 
417 0.000282743 1 0.622722 0.387368 0.00299468 0 0 0 35.4132 -0.0242255 4.42453e-06 1.9986 1.07212e-09 3.44345e-05 0.385423 0.455727 0.00348219 
2655 0.000282743 1 0.712814 0.387301 0.00299472 0 0 0 35.342 0 5.33377e-16 1.99861 0 -6.13745e-15 0.441184 0.455648 0.00348224 
2944 0.000282743 1 0.787681 0.386798 0.00381081 0 0 0 35.3678 0 0.0147166 2 0 -0.00277371 0.487522 0.455057 0.00443118 
800 0.000282743 1 0.805618 0.388414 0.00299472 0 0 0 35.342 0 8.13118e-10 1.99861 0 -6.54135e-10 0.498624 0.456958 0.00348224 
354 0.000282743 1 0.416905 0.389325 0.00299473 0 0 0 35.3421 0 -4.6734e-06 1.99861 0 -5.37719e-07 0.258036 0.458029 0.00348224 
2735 0.000282743 1 0.847425 0.391249 0.00377011 0 0 0 -0.00103806 0 0.00686356 -0.00365607 0 -0.00189564 0.524499 0.460292 0.00438385 