ITEM: TIMESTEP
25750
ITEM: NUMBER OF ATOMS
3000
ITEM: BOX BOUNDS mm mm mm
0 2.65982
0 0.85
0 0.86
ITEM: ATOMS id mass type x y z ix iy iz vx vy vz fx fy fz xs ys zs 
2788 0.000282743 1 0.373632 0.00364332 0.00299472 0 0 0 53.0137 0 5.13963e-15 1.99861 0 0 0.140473 0.00428626 0.00348224 
1319 0.000282743 1 0.68527 0.00389763 0.00299472 0 0 0 53.0137 0 -1.59235e-14 1.99861 0 0 0.257638 0.00458545 0.00348224 
24 0.000282743 1 0.471438 0.00725002 0.00888983 0 0 0 53.0516 0 0.639905 2 0 -0.00277371 0.177244 0.00852944 0.010337 
315 0.000282743 1 0.640512 0.0078913 0.00299472 0 0 0 53.0137 0 1.17896e-14 1.99861 0 0 0.24081 0.00928389 0.00348224 
926 0.000282743 1 0.93898 0.0258428 0.00355816 0 0 0 44.5565 7.83135 0.391881 2 0 -0.00277371 0.353024 0.0304033 0.0041374 
610 0.000282743 1 0.276626 0.013257 0.00369307 0 0 0 53.0516 0 -0.0460334 2 0 -0.00277371 0.104002 0.0155965 0.00429427 
626 0.000282743 1 0.341366 0.0136063 0.00299472 0 0 0 53.0137 0 7.35628e-15 1.99861 0 0 0.128342 0.0160075 0.00348224 
229 0.000282743 1 0.549373 0.0159379 0.00380658 0 0 0 53.0516 0 0.0280754 2 0 -0.00277371 0.206545 0.0187505 0.00442625 
1485 0.000282743 1 0.717941 0.0121932 0.00299472 0 0 0 53.0137 0 1.95438e-08 1.99861 0 -1.14852e-09 0.269921 0.0143449 0.00348224 
281 0.000282743 1 0.79097 0.0121888 0.00299472 0 0 0 53.0137 0 -7.0555e-15 1.99861 0 0 0.297377 0.0143397 0.00348224 
1922 0.000282743 1 0.8235 0.0121185 0.00299472 0 0 0 53.0118 0.0118845 -2.53104e-14 1.99861 1.66413e-19 2.62984e-14 0.309607 0.014257 0.00348224 
2338 0.000282743 1 0.372685 0.0166446 0.00299634 0 0 0 53.0211 0 -0.00358123 1.9987 0 -0.000163741 0.140117 0.0195819 0.00348412 
2752 0.000282743 1 0.491521 0.0171987 0.00299472 0 0 0 53.0137 0 -1.70324e-14 1.99861 0 -4.33681e-19 0.184795 0.0202338 0.00348224 
662 0.000282743 1 0.284926 0.0227621 0.00299472 0 0 0 53.0137 0 -1.76869e-14 1.99861 0 -4.84855e-16 0.107122 0.026779 0.00348224 
136 0.000282743 1 0.900991 0.0228154 0.0036675 0 0 0 29.8277 0 -0.0187623 2 0 -0.00277371 0.338741 0.0268417 0.00426453 
312 0.000282743 1 0.908546 0.0237223 0.0029938 0 0 0 30.5669 0 0.000879913 1.99837 0 0.0004801 0.341582 0.0279086 0.00348116 
2385 0.000282743 1 0.224996 0.0271591 0.00299472 0 0 0 53.0137 0 -4.84163e-15 1.99861 0 0 0.0845906 0.0319519 0.00348224 
356 0.000282743 1 0.866879 0.0274118 0.00380194 0 0 0 28.6433 -0.0285281 0.0048869 1.97778 -0.0186582 0.00312255 0.325916 0.0322492 0.00442085 
2171 0.000282743 1 0.871785 0.0307076 0.00299397 0 0 0 28.6202 0.028692 -0.0114678 2.0187 0.0186534 -0.00163551 0.327761 0.0361266 0.00348137 
2212 0.000282743 1 0.847426 0.026536 0.0159776 0 0 0 0.0357299 -0.976645 3.69084 -0.0503102 0.00100743 -0.00570006 0.318603 0.0312189 0.0185786 
2165 0.000282743 1 0.864704 0.0336495 0.00292755 0 0 0 28.7157 -0.0975775 -0.137762 1.84358 0.0434841 0.317812 0.325099 0.0395877 0.00340413 
1995 0.000282743 1 0.847371 0.0439522 0.0131492 0 0 0 -4.58841 7.6785 0.150946 4.53476 0.0247358 -0.0939709 0.318582 0.0517085 0.0152898 
284 0.000282743 1 0.602123 0.0405785 0.00853327 0 0 0 53.0516 0 0.640262 2 0 -0.00277371 0.226377 0.0477394 0.00992241 
153 0.000282743 1 0.874978 0.0455722 0.00299675 0 0 0 28.6773 0 -0.00203589 1.99905 0 -0.000883187 0.328961 0.0536144 0.0034846 
2946 0.000282743 1 0.243457 0.0503255 0.00299472 0 0 0 53.0137 0 -5.69563e-12 1.99861 0 2.49387e-12 0.0915313 0.0592065 0.00348224 
2245 0.000282743 1 0.344656 0.0511328 0.00299472 0 0 0 53.0137 0 -4.02713e-16 1.99861 0 0 0.129579 0.0601563 0.00348224 
338 0.000282743 1 0.506746 0.0513337 0.00299472 0 0 0 53.0137 0 -1.51454e-15 1.99861 0 0 0.190519 0.0603925 0.00348224 
1949 0.000282743 1 0.749451 0.0494126 0.00299472 0 0 0 53.0137 0 1.4009e-14 1.99861 0 0 0.281768 0.0581325 0.00348224 
1304 0.000282743 1 0.365371 0.0557894 0.00300186 0 0 0 52.9564 0 0.030078 2 0 -0.00277371 0.137367 0.0656346 0.00349054 
954 0.000282743 1 0.892288 0.0549755 0.0029944 0 0 0 29.4669 0 -0.00148383 1.99825 0 0.000724997 0.335469 0.064677 0.00348187 
2678 0.000282743 1 0.392479 0.0574585 0.00296117 0 0 0 52.992 0 -0.00707395 1.97025 0 0.0567309 0.147558 0.0675982 0.00344322 
2170 0.000282743 1 0.531629 0.0584649 0.00299472 0 0 0 53.0137 0 1.28986e-14 1.99861 0 0 0.199874 0.0687823 0.00348224 
1124 0.000282743 1 0.589334 0.0586676 0.00299472 0 0 0 53.0137 0 1.51167e-14 1.99861 0 0 0.221569 0.0690207 0.00348224 
849 0.000282743 1 0.627568 0.0567479 0.00299472 0 0 0 53.0137 0 -1.78413e-14 1.99861 0 -9.36751e-17 0.235944 0.0667623 0.00348224 
2717 0.000282743 1 0.712116 0.0596524 0.00299472 0 0 0 53.0073 -0.00913781 6.24725e-15 1.99861 4.54929e-23 0 0.267731 0.0701793 0.00348224 
2515 0.000282743 1 0.698372 0.0626138 0.00299472 0 0 0 53.0137 0 -1.03798e-14 1.99861 0 0 0.262564 0.0736633 0.00348224 
2174 0.000282743 1 0.880986 0.0611444 0.00299597 0 0 0 27.5165 0 -0.00292605 1.99865 0 -7.48118e-05 0.33122 0.0719345 0.00348368 
795 0.000282743 1 0.823368 0.067715 0.00375617 0 0 0 53.0631 -0.0163322 -0.0325398 2 0 -0.00277371 0.309558 0.0796647 0.00436764 
1156 0.000282743 1 0.829764 0.064281 0.00299472 0 0 0 53.0137 0 1.51153e-14 1.99861 0 0 0.311962 0.0756247 0.00348224 
2920 0.000282743 1 0.873152 0.0670631 0.0029965 0 0 0 27.246 0 -0.00195397 1.99898 0 -0.000732978 0.328275 0.0788978 0.0034843 
1678 0.000282743 1 0.584429 0.0721212 0.00299472 0 0 0 53.0137 0 -2.61937e-15 1.99861 0 0 0.219725 0.0848485 0.00348224 
1599 0.000282743 1 0.787535 0.0709061 0.00299472 0 0 0 53.0137 0 1.0682e-14 1.99861 0 0 0.296086 0.083419 0.00348224 
367 0.000282743 1 0.402807 0.0743494 0.00299476 0 0 0 53.0121 0 -2.04962e-05 1.99863 0 -2.39224e-05 0.151441 0.0874699 0.00348228 
2586 0.000282743 1 0.449295 0.0759655 0.00299472 0 0 0 53.0137 0 -1.14902e-14 1.99861 0 0 0.168919 0.0893711 0.00348224 
2800 0.000282743 1 0.334947 0.0791022 0.00299472 0 0 0 53.0137 0 -9.6473e-13 1.99861 0 2.37337e-12 0.125928 0.0930614 0.00348224 
1017 0.000282743 1 0.395434 0.0776333 0.00299472 0 0 0 53.0137 0 7.35628e-15 1.99861 0 0 0.148669 0.0913333 0.00348224 
1814 0.000282743 1 0.622862 0.0739157 0.00477677 0 0 0 57.1819 -1.84952 2.0417 2 0 -0.00277371 0.234175 0.0869597 0.00555439 
2129 0.000282743 1 0.758455 0.0775321 0.00299472 0 0 0 53.0137 0 7.35628e-15 1.99861 0 0 0.285153 0.0912142 0.00348224 
2636 0.000282743 1 0.798202 0.0790148 0.00879775 0 0 0 53.0516 0 0.634747 2 0 -0.00277371 0.300096 0.0929586 0.0102299 
2996 0.000282743 1 0.439524 0.0806714 0.00299509 0 0 0 53.004 0 4.1123e-05 1.99876 0 -0.000298701 0.165246 0.0949075 0.00348267 
1806 0.000282743 1 0.445093 0.0875507 0.00382322 0 0 0 53.0516 0 -0.00359004 2 0 -0.00277371 0.16734 0.103001 0.00444561 
2606 0.000282743 1 0.624485 0.0844638 0.00299472 0 0 0 53.0137 0 3.23191e-09 1.99861 0 1.2951e-07 0.234784 0.0993692 0.00348224 
2881 0.000282743 1 0.727664 0.0856427 0.00429784 0 0 0 52.5682 -0.0531234 0.187883 2 0 -0.00277371 0.273576 0.100756 0.00499749 
876 0.000282743 1 0.782007 0.0863357 0.00299443 0 0 0 53.0082 0 0.0011679 1.99868 0 -0.000132573 0.294008 0.101571 0.0034819 
501 0.000282743 1 0.76566 0.0883541 0.00299472 0 0 0 53.0143 -0.0928269 -7.22857e-14 1.99861 -5.13162e-19 1.16378e-14 0.287861 0.103946 0.00348224 
1113 0.000282743 1 0.838526 0.102464 0.00331315 0 0 0 13.7146 2.88629 0.14755 17.796 -6.17691 0.0832335 0.315257 0.120546 0.00385251 
2182 0.000282743 1 0.848172 0.0881387 0.00326715 0 0 0 -1.77686 2.80639 1.80726 -5.17986 -0.174446 -0.461929 0.318883 0.103693 0.00379902 
2062 0.000282743 1 0.270006 0.0928605 0.00331753 0 0 0 53.0516 0 -0.0940059 2 0 -0.00277371 0.101513 0.109248 0.0038576 
1907 0.000282743 1 0.848448 0.10328 0.00447659 0 0 0 -1.08273 3.3357 0.508803 -5.93497 1.60928 -2.45883 0.318987 0.121506 0.00520533 
2548 0.000282743 1 0.357353 0.103172 0.00299472 0 0 0 53.0137 0 4.02921e-15 1.99861 0 0 0.134352 0.121379 0.00348224 
1743 0.000282743 1 0.768188 0.101373 0.00299472 0 0 0 53.0443 0.00182936 -8.16732e-15 1.99861 5.68661e-24 0 0.288812 0.119262 0.00348224 
676 0.000282743 1 0.863912 0.105897 0.00705182 0 0 0 26.9112 0.260938 0.20102 2 0 -0.00277371 0.324801 0.124585 0.00819979 
1973 0.000282743 1 0.904551 0.102206 0.0041368 0 0 0 34.2977 -0.30682 0.114555 2 0 -0.00277371 0.34008 0.120242 0.00481023 
1747 0.000282743 1 0.340967 0.104694 0.00299472 0 0 0 53.0137 0 -2.92918e-07 1.99861 0 1.635e-07 0.128192 0.123169 0.00348224 
1183 0.000282743 1 0.837173 0.107634 0.00299465 0 0 0 51.2633 0.687439 -0.00579572 -13.7981 6.17689 -0.0846197 0.314748 0.126628 0.00348216 
1692 0.000282743 1 0.850985 0.107325 0.0026975 0 0 0 16.2208 2.58859 -0.979698 -9.1822 -9.04318 3.58095 0.319941 0.126265 0.00313663 
1735 0.000282743 1 0.893275 0.110007 0.0149549 0 0 0 27.9099 0.594305 3.84766 2 0 -0.00277371 0.33584 0.12942 0.0173894 
886 0.000282743 1 0.851139 0.112393 0.00287634 0 0 0 22.2026 1.7495 -0.829802 -18.2334 0.288718 4.44957 0.319998 0.132226 0.00334458 
220 0.000282743 1 0.899745 0.108776 0.00536353 0 0 0 29.6995 0.00965389 1.4787 2 0 -0.00277371 0.338273 0.127971 0.00623666 
2801 0.000282743 1 0.305616 0.115869 0.00299472 0 0 0 53.0137 0 -1.15331e-14 1.99861 0 -2.73826e-15 0.114901 0.136317 0.00348224 
1801 0.000282743 1 0.544377 0.113038 0.00299472 0 0 0 53.0137 0 -2.80971e-10 1.99861 0 -4.17967e-10 0.204667 0.132986 0.00348224 
140 0.000282743 1 0.668334 0.114857 0.00299472 0 0 0 53.0137 0 -7.05549e-15 1.99861 0 0 0.25127 0.135126 0.00348224 
1963 0.000282743 1 0.800544 0.114042 0.00362919 0 0 0 52.9055 0.275908 0.127882 2 0 -0.00277371 0.300977 0.134167 0.00421998 
2449 0.000282743 1 0.848028 0.108077 0.0077203 0 0 0 0.402198 -4.8426 2.81716 -0.695643 5.75009 -5.51275 0.318829 0.127149 0.00897709 
934 0.000282743 1 0.85866 0.114206 0.00264141 0 0 0 23.8298 0.36398 -0.571488 12.9002 -0.0939716 -1.01869 0.322826 0.13436 0.00307141 
392 0.000282743 1 0.385778 0.116779 0.00299104 0 0 0 53.0897 0.106499 -0.229121 2.72805 0.88851 -2.06806 0.145039 0.137387 0.00347795 
1400 0.000282743 1 0.476451 0.118653 0.00315764 0 0 0 53.0516 0 -0.108242 2 0 -0.00277371 0.179129 0.139592 0.00367167 
2620 0.000282743 1 0.432811 0.122546 0.00299472 0 0 0 53.0137 0 -5.29617e-10 1.99861 0 1.93119e-10 0.162722 0.144171 0.00348224 
2955 0.000282743 1 0.527587 0.121181 0.00299472 0 0 0 53.0137 0 -3.35841e-09 1.99861 0 1.52246e-08 0.198354 0.142565 0.00348224 
2869 0.000282743 1 0.706615 0.121273 0.00299472 0 0 0 52.7824 -0.0239456 1.00131e-08 1.99861 -3.60318e-14 3.0667e-09 0.265663 0.142674 0.00348224 
2063 0.000282743 1 0.82208 0.121177 0.00299472 0 0 0 53.0137 0 6.24586e-15 1.99861 0 0 0.309073 0.142561 0.00348224 
2918 0.000282743 1 0.548924 0.125633 0.00379777 0 0 0 53.0516 0 -0.0189368 2 0 -0.00277371 0.206376 0.147804 0.00441601 
2312 0.000282743 1 0.847437 0.125933 0.00299462 0 0 0 -0.206071 0 -0.00238017 0.102884 0 -0.00121632 0.318607 0.148157 0.00348212 
1860 0.000282743 1 0.307033 0.130739 0.00299472 0 0 0 53.0137 0 -1.13915e-07 1.99861 0 1.56324e-07 0.115434 0.153811 0.00348224 
719 0.000282743 1 0.713011 0.130492 0.00299472 0 0 0 52.9188 0.0181812 -5.6061e-12 1.99861 2.01645e-18 9.74863e-14 0.268067 0.15352 0.00348224 
1378 0.000282743 1 0.870224 0.132815 0.00381248 0 0 0 28.2928 0 -0.00887474 2 0 -0.00277371 0.327174 0.156252 0.00443312 
202 0.000282743 1 0.296868 0.137364 0.00299472 0 0 0 53.0136 0 -5.17384e-07 1.99861 0 6.47728e-08 0.111612 0.161605 0.00348224 
2160 0.000282743 1 0.603091 0.137158 0.00299472 0 0 0 52.9185 -0.116954 -1.14916e-14 1.99861 -7.27886e-22 0 0.226741 0.161362 0.00348224 
1451 0.000282743 1 0.721431 0.139986 0.00299472 0 0 0 52.9666 0.253923 -1.85766e-09 1.99861 -3.65282e-12 -2.74316e-08 0.271233 0.164689 0.00348224 
768 0.000282743 1 0.902582 0.136757 0.00299388 0 0 0 29.7711 0 0.000311958 1.99832 0 0.000592898 0.339339 0.16089 0.00348126 
2451 0.000282743 1 0.202037 0.14389 0.00304105 0 0 0 53.0516 0 -0.117894 2 0 -0.00277371 0.075959 0.169282 0.00353611 
1582 0.000282743 1 0.450867 0.143686 0.00299472 0 0 0 53.0137 0 1.89476e-11 1.99861 0 -7.14934e-12 0.16951 0.169042 0.00348224 
410 0.000282743 1 0.669744 0.144092 0.00299805 0 0 0 53.0232 0 0.00163958 1.99989 0 -0.0025546 0.2518 0.169519 0.0034861 
1246 0.000282743 1 0.259741 0.149091 0.00299472 0 0 0 53.0327 0.0126758 5.14356e-14 1.99861 -1.92435e-19 -2.74316e-14 0.0976536 0.175401 0.00348224 
2461 0.000282743 1 0.657563 0.148491 0.00299473 0 0 0 53.0135 0 -4.78305e-06 1.99861 0 -3.78472e-07 0.247221 0.174695 0.00348224 
2448 0.000282743 1 0.886472 0.148832 0.00299048 0 0 0 28.4514 -0.185804 0.0106954 1.99855 9.61891e-06 0.000129756 0.333283 0.175096 0.0034773 
233 0.000282743 1 0.911806 0.148932 0.00306318 0 0 0 30.7066 0.00610534 -0.0274477 2 0 -0.00277371 0.342807 0.175215 0.00356184 
2991 0.000282743 1 0.685785 0.153952 0.00299472 0 0 0 53.0137 0 -1.57211e-14 1.99861 0 -1.09461e-15 0.257831 0.181119 0.00348224 
1051 0.000282743 1 0.889743 0.154468 0.00379846 0 0 0 28.4931 0.457957 0.0534918 2 0 -0.00277371 0.334512 0.181727 0.00441682 
1576 0.000282743 1 0.75755 0.15931 0.00299472 0 0 0 53.0137 0 8.46391e-15 1.99861 0 0 0.284812 0.187424 0.00348224 
2643 0.000282743 1 0.775149 0.158048 0.00299472 0 0 0 53.0137 0 -9.25675e-13 1.99861 0 1.08547e-13 0.291429 0.185939 0.00348224 
55 0.000282743 1 0.228634 0.161299 0.00759524 0 0 0 51.6953 0 0.664734 2 0 -0.00277371 0.0859583 0.189764 0.00883167 
1415 0.000282743 1 0.369085 0.161792 0.00299416 0 0 0 53.0095 0 0.00118123 1.99857 0 8.62043e-05 0.138763 0.190344 0.00348158 
1669 0.000282743 1 0.453751 0.163659 0.00299472 0 0 0 53.0137 0 -1.48173e-14 1.99861 0 0 0.170595 0.19254 0.00348224 
1592 0.000282743 1 0.388864 0.165431 0.00299472 0 0 0 53.0137 0 -1.48159e-14 1.99861 0 0 0.146199 0.194625 0.00348224 
2682 0.000282743 1 0.460578 0.164924 0.00299472 0 0 0 53.0137 0 1.17896e-14 1.99861 0 0 0.173161 0.194028 0.00348224 
2962 0.000282743 1 0.654075 0.168313 0.00299472 0 0 0 53.0137 0 5.13963e-15 1.99861 0 0 0.24591 0.198015 0.00348224 
344 0.000282743 1 0.712475 0.167356 0.0029944 0 0 0 53.0085 0 0.00116901 1.99867 0 -0.000105757 0.267866 0.196889 0.00348186 
989 0.000282743 1 0.298013 0.172586 0.00335895 0 0 0 53.3506 0.184532 -0.0637993 2 0 -0.00277371 0.112043 0.203042 0.00390575 
330 0.000282743 1 0.444792 0.166967 0.00299472 0 0 0 53.174 -0.198191 6.48873e-08 1.99861 -9.16109e-13 1.01099e-08 0.167226 0.196432 0.00348224 
826 0.000282743 1 0.847048 0.17565 0.0226813 0 0 0 -3.31141 9.44288 8.20395 3.73588 0.293095 0.422929 0.318461 0.206647 0.0263736 
543 0.000282743 1 0.237103 0.17302 0.00299443 0 0 0 53.0232 0 0.0086991 1.99986 0 -0.002498 0.0891425 0.203553 0.00348189 
1293 0.000282743 1 0.502202 0.174331 0.00299472 0 0 0 53.0137 0 1.81113e-15 1.99861 0 0 0.18881 0.205096 0.00348224 
221 0.000282743 1 0.562182 0.172561 0.00299472 0 0 0 53.0137 0 6.24724e-15 1.99861 0 0 0.211361 0.203013 0.00348224 
113 0.000282743 1 0.57432 0.174128 0.00299472 0 0 0 53.0137 0 -3.73119e-15 1.99861 0 0 0.215924 0.204856 0.00348224 
178 0.000282743 1 0.808862 0.174539 0.00355268 0 0 0 52.6517 0 0.0805761 2 0 -0.00277371 0.304104 0.20534 0.00413103 
2278 0.000282743 1 0.459163 0.179744 0.00299472 0 0 0 53.0137 0 -1.37069e-14 1.99861 0 0 0.172629 0.211463 0.00348224 
2281 0.000282743 1 0.593596 0.179038 0.0029957 0 0 0 52.9673 0 -0.0268605 1.99502 0 0.00717932 0.223171 0.210633 0.00348337 
418 0.000282743 1 0.849596 0.173753 0.00239118 0 0 0 -6.60724 -9.67212 -1.02192 -18.7646 5.28995 4.30252 0.319418 0.204416 0.00278044 
921 0.000282743 1 0.849258 0.178576 0.00370636 0 0 0 -8.23479 -2.96687 -0.628724 -11.5425 3.04513 0.412472 0.319292 0.210089 0.00430972 
1998 0.000282743 1 0.303958 0.183085 0.00304463 0 0 0 52.9577 0 0.00591759 2 0 -0.00277371 0.114278 0.215394 0.00354027 
2976 0.000282743 1 0.436732 0.187975 0.00299472 0 0 0 53.0321 -0.00281716 8.4639e-15 1.99861 0 0 0.164196 0.221148 0.00348224 
538 0.000282743 1 0.832546 0.184225 0.00299472 0 0 0 52.965 -0.149661 -8.07263e-09 1.99861 -3.44449e-13 4.22061e-09 0.313008 0.216735 0.00348224 
1164 0.000282743 1 0.647849 0.192141 0.00299472 0 0 0 53.2779 0.324661 -2.47554e-08 1.99861 -2.71832e-12 -1.64399e-08 0.243569 0.226049 0.00348224 
87 0.000282743 1 0.709708 0.189503 0.00299472 0 0 0 53.0137 0 7.35628e-15 1.99861 0 0 0.266826 0.222945 0.00348224 
2327 0.000282743 1 0.75575 0.192086 0.00299482 0 0 0 53.0067 0 0.000831931 1.99878 0 -0.00032969 0.284136 0.225984 0.00348235 
2888 0.000282743 1 0.411374 0.19462 0.00299473 0 0 0 52.8862 0.0698881 2.10258e-06 1.99861 -9.20291e-11 -2.47698e-06 0.154662 0.228965 0.00348224 
371 0.000282743 1 0.495072 0.193043 0.00299472 0 0 0 53.0137 0 1.29e-14 1.99861 0 0 0.18613 0.22711 0.00348224 
2202 0.000282743 1 0.291051 0.202405 0.00376988 0 0 0 53.0516 0 -0.0281805 2 0 -0.00277371 0.109425 0.238123 0.00438358 
2830 0.000282743 1 0.698482 0.204474 0.00299472 0 0 0 53.0137 0 -1.03798e-14 1.99861 0 0 0.262605 0.240558 0.00348224 
961 0.000282743 1 0.847415 0.207581 0.0031884 0 0 0 0.67797 -0.480459 0.131005 -0.569203 0.0139271 -0.00568123 0.318599 0.244213 0.00370745 
1172 0.000282743 1 0.25171 0.211557 0.00299472 0 0 0 53.0137 0 -1.2885e-07 1.99861 0 1.58018e-07 0.0946342 0.24889 0.00348224 
2621 0.000282743 1 0.308454 0.209732 0.00299472 0 0 0 53.0137 0 -7.05689e-15 1.99861 0 0 0.115968 0.246743 0.00348224 
2109 0.000282743 1 0.520613 0.210491 0.00299472 0 0 0 53.0137 0 2.06604e-14 1.99861 0 0 0.195732 0.247637 0.00348224 
1885 0.000282743 1 0.540534 0.209041 0.0084943 0 0 0 53.0516 0 0.647462 2 0 -0.00277371 0.203222 0.245931 0.00987709 
1957 0.000282743 1 0.84804 0.214344 0.0131695 0 0 0 -2.56768 2.69798 -0.520798 -2.77107 -1.16381 0.934816 0.318834 0.252169 0.0153134 
2297 0.000282743 1 0.242575 0.216706 0.00299472 0 0 0 53.0442 -0.0188337 -4.07956e-08 1.99861 -2.08725e-14 1.29197e-09 0.0911996 0.254948 0.00348224 
2132 0.000282743 1 0.673577 0.218376 0.00299522 0 0 0 53.7952 0.0392864 0.000314626 1.99885 5.32387e-07 -0.000481484 0.253241 0.256913 0.00348282 
1444 0.000282743 1 0.891913 0.216465 0.00565289 0 0 0 58.4902 -4.45435 4.68646 2 0 -0.00277371 0.335328 0.254665 0.00657313 
145 0.000282743 1 0.20424 0.221537 0.00299472 0 0 0 53.0536 0.019198 -4.36567e-08 1.99861 1.0718e-12 1.05425e-07 0.0767872 0.260632 0.00348224 
2512 0.000282743 1 0.88727 0.221543 0.0029169 0 0 0 58.6446 2.21566 -0.315008 1.8146 -0.00682639 0.368279 0.333583 0.260639 0.00339174 
254 0.000282743 1 0.621747 0.225218 0.00343776 0 0 0 61.9003 0.18288 0.212516 2 0 -0.00277371 0.233755 0.264963 0.0039974 
2849 0.000282743 1 0.74839 0.228497 0.00305312 0 0 0 57.8244 0.425826 0.0906848 2 0 -0.00277371 0.281369 0.26882 0.00355014 
296 0.000282743 1 0.815131 0.225719 0.00370074 0 0 0 82.5532 1.54281 0.946692 2 0 -0.00277371 0.306461 0.265552 0.00430319 
256 0.000282743 1 0.862394 0.227282 0.00299671 0 0 0 27.8798 0 0.00017295 1.99934 0 -0.00145999 0.32423 0.26739 0.00348454 
2268 0.000282743 1 0.880058 0.228448 0.00299583 0 0 0 28.8735 0 -0.00231692 1.99869 0 -0.000151074 0.330871 0.268762 0.00348352 
757 0.000282743 1 0.846857 0.243288 0.00405149 0 0 0 8.96928 7.73735 8.43435 -26.0734 9.89156 9.90923 0.318389 0.286221 0.00471104 
887 0.000282743 1 0.849985 0.241549 0.00347185 0 0 0 6.41726 -3.13681 -1.40285 -6.13646 0.0769707 -0.946503 0.319565 0.284175 0.00403704 
2986 0.000282743 1 0.847235 0.241666 0.00186278 0 0 0 4.53727 -2.12494 -3.92872 -20.8593 6.72953 6.89386 0.318531 0.284313 0.00216602 
188 0.000282743 1 0.862675 0.250203 0.00362056 0 0 0 18.7146 -0.197122 0.621388 2 0 -0.00277371 0.324336 0.294356 0.00420995 
2563 0.000282743 1 0.848782 0.249839 0.00280676 0 0 0 -5.51301 -1.31136 0.301384 -1.52977 -2.71013 1.62225 0.319113 0.293928 0.00326368 
1096 0.000282743 1 0.847805 0.236294 0.00449582 0 0 0 -7.25692 -3.81027 0.481297 6.73944 -1.61329 0.816197 0.318745 0.277993 0.0052277 
399 0.000282743 1 0.84643 0.25343 0.00235291 0 0 0 -11.2526 0.807526 -2.29562 -7.39629 -0.392329 -0.2263 0.318228 0.298153 0.00273594 
253 0.000282743 1 0.467462 0.260054 0.00299472 0 0 0 53.0137 0 1.73319e-14 1.99861 0 0 0.17575 0.305946 0.00348224 
185 0.000282743 1 0.624546 0.259601 0.00299472 0 0 0 53.0137 0 -1.81104e-14 1.99861 0 -1.04083e-17 0.234807 0.305413 0.00348224 
211 0.000282743 1 0.708701 0.256715 0.00299472 0 0 0 53.0137 0 -1.03812e-14 1.99861 0 0 0.266447 0.302018 0.00348224 
2020 0.000282743 1 0.848754 0.256457 0.00439581 0 0 0 -5.85878 1.06595 1.12651 -1.14643 0.102656 0.804259 0.319102 0.301715 0.00511141 
2140 0.000282743 1 0.766044 0.262351 0.0029963 0 0 0 53.0646 -0.170581 0.0103014 1.99935 -4.39339e-10 -0.0040753 0.288006 0.308648 0.00348407 
1897 0.000282743 1 0.78709 0.260376 0.00300076 0 0 0 57.5236 -0.391475 0.0852936 2 0 -0.00277371 0.295918 0.306324 0.00348926 
1100 0.000282743 1 0.868786 0.261725 0.00310604 0 0 0 22.1997 0.961554 0.467762 2 0 -0.00277371 0.326633 0.307912 0.00361168 
2290 0.000282743 1 0.805436 0.267247 0.00299472 0 0 0 53.1848 0.193438 -1.07515e-07 1.99861 1.19495e-12 9.60848e-09 0.302816 0.314409 0.00348224 
1831 0.000282743 1 0.847437 0.266611 0.0030156 0 0 0 -0.0837725 -0.327832 0.0159971 -0.0102724 -0.000786732 -0.00187315 0.318607 0.31366 0.00350651 
1816 0.000282743 1 0.512772 0.27068 0.00382693 0 0 0 53.0516 0 0.0153888 2 0 -0.00277371 0.192785 0.318447 0.00444992 
2558 0.000282743 1 0.751809 0.267938 0.00337368 0 0 0 52.7048 -0.229306 0.0499713 2 0 -0.00277371 0.282654 0.315222 0.00392288 
2901 0.000282743 1 0.257019 0.273057 0.00381773 0 0 0 53.0516 0 0.0243263 2 0 -0.00277371 0.0966302 0.321243 0.00443922 
823 0.000282743 1 0.734141 0.273054 0.00299472 0 0 0 53.0137 0 1.05131e-11 1.99861 0 1.52192e-11 0.276011 0.32124 0.00348224 
1670 0.000282743 1 0.32 0.28049 0.00304478 0 0 0 52.958 0 -0.00453936 2 0 -0.00277371 0.120309 0.329989 0.00354044 
2522 0.000282743 1 0.496746 0.277552 0.00299472 0 0 0 53.0137 0 -7.05688e-15 1.99861 0 0 0.186759 0.326531 0.00348224 
63 0.000282743 1 0.542414 0.281348 0.00299472 0 0 0 53.0137 0 -1.89818e-14 1.99861 0 -8.32667e-17 0.203929 0.330997 0.00348224 
1438 0.000282743 1 0.847021 0.279764 0.00426152 0 0 0 0.374901 -1.77486 0.78803 1.82886 -0.0389425 0.0106675 0.31845 0.329135 0.00495526 
1887 0.000282743 1 0.22472 0.286407 0.00299497 0 0 0 52.9946 0 -0.000370928 1.99865 0 -7.4874e-05 0.0844869 0.336949 0.00348252 
526 0.000282743 1 0.270848 0.286299 0.00639444 0 0 0 53.0662 -0.212308 0.416592 2 0 -0.00277371 0.101829 0.336822 0.00743539 
2585 0.000282743 1 0.295551 0.285673 0.0030658 0 0 0 52.9017 -0.206282 -0.0510071 2 0 -0.00277371 0.111117 0.336086 0.00356489 
1911 0.000282743 1 0.328031 0.285594 0.00299472 0 0 0 53.0137 0 1.51167e-14 1.99861 0 0 0.123328 0.335993 0.00348224 
706 0.000282743 1 0.356656 0.286103 0.00299472 0 0 0 53.0137 0 -5.21086e-09 1.99861 0 -2.1851e-09 0.13409 0.336592 0.00348224 
2507 0.000282743 1 0.543831 0.288627 0.00299472 0 0 0 53.0137 0 -1.37083e-14 1.99861 0 0 0.204461 0.339562 0.00348224 
2737 0.000282743 1 0.847384 0.287594 0.005206 0 0 0 0.750394 -1.43988 0.881138 0.101599 -0.375814 -0.220763 0.318587 0.338346 0.00605349 
987 0.000282743 1 0.215805 0.291819 0.00304463 0 0 0 52.958 0 0.00466602 2 0 -0.00277371 0.0811352 0.343316 0.00354027 
1265 0.000282743 1 0.381397 0.286764 0.00299475 0 0 0 52.1301 -0.38328 1.57453e-05 1.99863 4.95783e-09 -2.51334e-05 0.143392 0.33737 0.00348227 
1696 0.000282743 1 0.846894 0.293126 0.00448319 0 0 0 -2.94717 -1.41333 1.98331 1.35154 1.7366 0.142851 0.318403 0.344854 0.00521302 
2206 0.000282743 1 0.491988 0.295282 0.00299472 0 0 0 52.9614 -0.133467 3.95748e-09 1.99861 1.31513e-13 -1.79695e-09 0.18497 0.34739 0.00348224 
2838 0.000282743 1 0.846769 0.298381 0.00231433 0 0 0 -2.94712 1.59424 2.14043 0.843981 -0.308252 1.90925 0.318356 0.351036 0.00269108 
818 0.000282743 1 0.243067 0.301929 0.00299472 0 0 0 53.0137 0 5.13823e-15 1.99861 0 0 0.0913848 0.35521 0.00348224 
2407 0.000282743 1 0.368087 0.304103 0.00299472 0 0 0 53.0137 0 -1.51454e-15 1.99861 0 0 0.138388 0.357769 0.00348224 
1751 0.000282743 1 0.848786 0.304952 0.00257275 0 0 0 11.0176 8.30515 -5.94095 -54.0742 7.20343 -5.41495 0.319114 0.358767 0.00299157 
1687 0.000282743 1 0.849644 0.303447 0.00421707 0 0 0 12.2567 -1.73294 2.32622 -28.4047 -1.94054 -1.69416 0.319436 0.356996 0.00490357 
2457 0.000282743 1 0.564213 0.305371 0.00299472 0 0 0 53.0137 0 -1.77181e-09 1.99861 0 1.95365e-09 0.212125 0.359261 0.00348224 
2082 0.000282743 1 0.576857 0.30527 0.00299472 0 0 0 53.0137 0 1.93133e-08 1.99861 0 1.72567e-09 0.216878 0.359142 0.00348224 
1274 0.000282743 1 0.874827 0.305607 0.00363289 0 0 0 25.8989 -0.170679 0.0252679 2 0 -0.00277371 0.328905 0.359538 0.00422429 
2380 0.000282743 1 0.653174 0.312551 0.00299472 0 0 0 53.0137 0 7.0632e-16 1.99861 0 0 0.245571 0.367707 0.00348224 
468 0.000282743 1 0.881171 0.309111 0.00340347 0 0 0 25.2543 -0.725749 -0.206566 2 0 -0.00277371 0.33129 0.36366 0.00395752 
2146 0.000282743 1 0.70081 0.315994 0.00314993 0 0 0 53.0516 0 -0.109341 2 0 -0.00277371 0.26348 0.371757 0.0036627 
1032 0.000282743 1 0.939487 0.314109 0.00281312 0 0 0 63.2499 -5.58571 0.679598 1.96305 0.00360627 0.0714837 0.353214 0.369541 0.00327107 
1872 0.000282743 1 0.324231 0.325257 0.00316302 0 0 0 53.3261 0.396509 -0.0118966 2 0 -0.00277371 0.1219 0.382655 0.00367793 
1798 0.000282743 1 0.758556 0.329758 0.00301509 0 0 0 76.0067 2.06245 0.0189093 2 0 -0.00277371 0.285191 0.387951 0.00350591 
2022 0.000282743 1 0.293132 0.327677 0.00372989 0 0 0 53.0516 0 -0.0385651 2 0 -0.00277371 0.110208 0.385502 0.00433708 
677 0.000282743 1 0.307445 0.32702 0.00372122 0 0 0 53.0516 0 0.0527974 2 0 -0.00277371 0.115589 0.384729 0.004327 
401 0.000282743 1 0.864448 0.326817 0.00315677 0 0 0 28.0626 0 -0.0330652 2 0 -0.00277371 0.325002 0.38449 0.00367066 
1709 0.000282743 1 0.889603 0.326247 0.00302355 0 0 0 25.8805 -0.424221 0.00852554 2 0 -0.00277371 0.33446 0.38382 0.00351575 
1869 0.000282743 1 0.92428 0.32275 0.00363875 0 0 0 43.8038 -1.5899 0.483262 2 0 -0.00277371 0.347497 0.379706 0.00423111 
2007 0.000282743 1 0.708466 0.332481 0.00304402 0 0 0 52.9576 0 0.00658703 2 0 -0.00277371 0.266359 0.391154 0.00353955 
889 0.000282743 1 0.847347 0.333861 0.00345439 0 0 0 -0.196101 0.863348 0.302899 0.70319 0.0476745 -0.00236529 0.318573 0.392777 0.00401673 
1352 0.000282743 1 0.905832 0.325412 0.00838958 0 0 0 31.4752 -1.67164 1.87426 2 0 -0.00277371 0.340561 0.382838 0.00975532 
1496 0.000282743 1 0.922579 0.330322 0.00310163 0 0 0 34.3182 0.23523 0.0835619 2 0 -0.00277371 0.346858 0.388614 0.00360655 
1236 0.000282743 1 0.23005 0.333239 0.00299469 0 0 0 53.0174 0 0.000128106 1.99862 0 -1.38612e-05 0.0864908 0.392045 0.0034822 
2590 0.000282743 1 0.804741 0.334451 0.00299472 0 0 0 52.788 0.142456 1.7334e-14 1.99861 1.45577e-21 -8.67362e-19 0.302555 0.393472 0.00348224 
2583 0.000282743 1 0.80333 0.343757 0.00299472 0 0 0 53.0137 0 2.08479e-09 1.99861 0 3.15634e-10 0.302024 0.40442 0.00348224 
1892 0.000282743 1 0.525729 0.348409 0.00299472 0 0 0 53.0137 0 -1.37069e-14 1.99861 0 0 0.197656 0.409893 0.00348224 
2074 0.000282743 1 0.581794 0.350711 0.00299613 0 0 0 52.7032 0.334616 0.0241221 1.99741 -1.28847e-05 -0.00795894 0.218734 0.412601 0.00348387 
95 0.000282743 1 0.848526 0.347419 0.00298487 0 0 0 37.2842 5.66594 -0.313393 -63.4505 12.5934 -1.05873 0.319016 0.408728 0.00347078 
1785 0.000282743 1 0.552534 0.355491 0.00299472 0 0 0 53.0137 0 1.96769e-08 1.99861 0 7.09014e-10 0.207733 0.418224 0.00348224 
551 0.000282743 1 0.87958 0.354931 0.00299569 0 0 0 23.3142 -0.996849 0.00753671 1.99991 4.1268e-06 -0.00295152 0.330691 0.417566 0.00348336 
130 0.000282743 1 0.307148 0.363226 0.00299472 0 0 0 53.0137 0 8.4639e-15 1.99861 0 0 0.115477 0.427324 0.00348224 
1601 0.000282743 1 0.538522 0.363123 0.00334397 0 0 0 53.0173 0.0343134 -0.112395 2 0 -0.00277371 0.202465 0.427204 0.00388833 
1535 0.000282743 1 0.696569 0.361707 0.00299472 0 0 0 53.0137 0 -7.05549e-15 1.99861 0 0 0.261886 0.425537 0.00348224 
1273 0.000282743 1 0.847457 0.364461 0.00299459 0 0 0 0.128443 0.255195 0.0947673 -0.362313 -0.0219937 -0.00739629 0.318614 0.428777 0.00348208 
2253 0.000282743 1 0.633048 0.366363 0.00299472 0 0 0 53.0137 0 -3.6224e-15 1.99861 0 -4.84812e-15 0.238004 0.431015 0.00348224 
2998 0.000282743 1 0.607104 0.371522 0.00299472 0 0 0 53.0137 0 -3.44657e-10 1.99861 0 1.68958e-09 0.22825 0.437085 0.00348224 
1754 0.000282743 1 0.393038 0.373872 0.006274 0 0 0 52.8994 -0.0341775 0.389253 2 0 -0.00277371 0.147769 0.439849 0.00729535 
2273 0.000282743 1 0.472021 0.374454 0.00299472 0 0 0 53.0137 0 -1.25978e-14 1.99861 0 0 0.177463 0.440534 0.00348224 
1390 0.000282743 1 0.657729 0.378701 0.00299472 0 0 0 53.0137 0 1.17896e-14 1.99861 0 0 0.247283 0.445531 0.00348224 
1874 0.000282743 1 0.849054 0.376452 0.00283782 0 0 0 -2.17297 1.59033 0.54927 -16.2568 5.73729 6.26989 0.319215 0.442885 0.00329979 
1065 0.000282743 1 0.847642 0.371202 0.00378755 0 0 0 2.84392 -2.02837 0.664028 -5.0445 -0.759112 -0.35956 0.318684 0.436708 0.00440412 
1818 0.000282743 1 0.890182 0.363332 0.00316206 0 0 0 27.5808 2.38971 0.0593114 2 0 -0.00277371 0.334678 0.427449 0.00367681 
161 0.000282743 1 0.254348 0.381082 0.00299472 0 0 0 53.0135 0 -2.49839e-05 1.99861 0 1.31891e-05 0.0956259 0.448331 0.00348223 
2855 0.000282743 1 0.736577 0.381821 0.00303019 0 0 0 53.2169 -0.154937 -0.0794049 13.2494 -4.72147 -5.53767 0.276927 0.449201 0.00352348 
2064 0.000282743 1 0.764841 0.383106 0.0034202 0 0 0 53.0516 0 -0.0839916 2 0 -0.00277371 0.287554 0.450713 0.00397697 
2148 0.000282743 1 0.858622 0.386312 0.00330935 0 0 0 11.0266 -1.32214 1.40276 2 0 -0.00277371 0.322812 0.454485 0.00384808 
1280 0.000282743 1 0.858218 0.379051 0.00311587 0 0 0 17.8408 2.2228 0.310721 2 0 -0.00277371 0.32266 0.445943 0.0036231 
417 0.000282743 1 0.733344 0.387308 0.00299474 0 0 0 53.0849 -0.0242255 -1.52367e-05 1.99861 6.98307e-10 -3.37294e-06 0.275712 0.455656 0.00348225 
2655 0.000282743 1 0.823259 0.387301 0.00299472 0 0 0 53.0137 0 -1.79764e-14 1.99861 0 -3.95083e-16 0.309517 0.455648 0.00348224 
2944 0.000282743 1 0.84786 0.376433 0.0109833 0 0 0 0.818924 -8.57376 3.73546 -4.77443 0.352922 -3.37155 0.318766 0.442862 0.0127712 