# vtk DataFile Version 4.0
Generated by LIGGGHTS
ASCII
DATASET POLYDATA
POINTS 2 float
0 0 0.021767 0 0 0.078233 
VERTICES 2 4
1 0 
1 1 

POINT_DATA 2
FIELD FieldData 15
id 1 2 int
1 2 
type 1 2 int
2 2 
mass 1 2 double
0.000313103 0.000313103 
v 3 2 double
0 0 -0.046604 0 0 0.046604 
f 3 2 double
0 0 0 0 0 0 
radius 1 2 double
0.00464966 0.00464966 
omega 3 2 double
7.18647 0 0 -7.18647 0 0 
angmom 3 2 double
1.47495e-08 0 0 -1.47495e-08 0 0 
tq 3 2 double
0 0 0 0 0 0 
shapex 1 2 double
0.002 0.002 
shapey 1 2 double
0.002 0.002 
shapez 1 2 double
0.004 0.004 
TENSOR 9 2 double
1 0 0 0 -0.480075 0.877228 0 -0.877228 -0.480075 
1 0 -0 -0 -0.480075 -0.877228 0 0.877228 -0.480075 

blockiness1 1 2 double
20 20 
blockiness2 1 2 double
10 10 
