ITEM: TIMESTEP
5000
ITEM: NUMBER OF ATOMS
2
ITEM: BOX BOUNDS ff ff ff
-0.05 0.05
-0.05 0.05
0 0.1
ITEM: ATOMS type mass x y z id vx vy vz fx fy fz omegax omegay omegaz radius shapex shapey shapez quat1 quat2 quat3 quat4 blockiness1 blockiness2 tqx tqy tqz angmomx angmomy angmomz 
2 0.000313103 0 0 0.015 1 0 0 0.1 0 0 0 0 0 0 0.00464966 0.002 0.002 0.004 0.965926 0.258819 0 0 20 10 0 0 0 0 0 0 
2 0.000313103 0 0 0.085 2 0 0 -0.1 0 0 0 0 0 0 0.00464966 0.002 0.002 0.004 0.965926 -0.258819 0 0 20 10 0 0 0 0 0 0 
