/*--------------------------------*- C++ -*----------------------------------*\
| =========                 |                                                 |
| \\      /  F ield         | OpenFOAM: The Open Source CFD Toolbox           |
|  \\    /   O peration     | Version:  5.x                                   |
|   \\  /    A nd           | Web:      www.OpenFOAM.org                      |
|    \\/     M anipulation  |                                                 |
\*---------------------------------------------------------------------------*/
FoamFile
{
    version     2.0;
    format      ascii;
    class       surfaceScalarField;
    location    "0.35";
    object      alphaPhi10;
}
// * * * * * * * * * * * * * * * * * * * * * * * * * * * * * * * * * * * * * //

dimensions      [0 3 -1 0 0 0 0];

internalField   nonuniform List<scalar> 
15580
(
-4.1518e-18
-5.22426e-11
-9.95192e-18
-9.68975e-11
-2.63933e-17
-1.04055e-10
-4.68534e-17
-8.89293e-11
-6.4375e-17
-6.21542e-11
-7.30443e-17
-3.11469e-11
-4.59661e-17
-1.07979e-12
-2.53571e-17
2.44056e-11
-1.32093e-17
4.27657e-11
-4.72258e-18
5.23541e-11
3.85226e-18
5.23541e-11
1.68026e-17
4.27657e-11
3.8785e-17
2.44055e-11
6.83651e-17
-1.07981e-12
6.47106e-17
-3.11469e-11
5.49602e-17
-6.21541e-11
4.38517e-17
-8.89292e-11
3.46315e-17
-1.04055e-10
2.56357e-17
-9.68973e-11
-5.22424e-11
3.19754e-18
-5.22426e-11
-1.37821e-17
-9.68975e-11
-3.58277e-17
-1.04055e-10
-6.27489e-17
-8.89292e-11
-8.88649e-17
-6.21541e-11
-1.08082e-16
-3.11468e-11
-8.13438e-17
-1.07982e-12
-5.27893e-17
2.44055e-11
-3.1661e-17
4.27657e-11
-1.47736e-17
5.23541e-11
2.65672e-18
5.23541e-11
2.5722e-17
4.27657e-11
5.79501e-17
2.44055e-11
9.06422e-17
-1.07984e-12
8.02424e-17
-3.11468e-11
6.57012e-17
-6.21541e-11
5.26097e-17
-8.89292e-11
4.45698e-17
-1.04055e-10
3.64839e-17
-9.68973e-11
-5.22423e-11
-1.52823e-17
-5.22426e-11
-2.86464e-17
-9.68975e-11
-4.95996e-17
-1.04055e-10
-7.32993e-17
-8.89292e-11
-9.35792e-17
-6.21541e-11
-1.02215e-16
-3.11468e-11
-8.63424e-17
-1.07983e-12
-6.4512e-17
2.44055e-11
-4.46237e-17
4.27657e-11
-2.61381e-17
5.23541e-11
-6.88771e-18
5.23541e-11
1.58841e-17
4.27657e-11
4.25979e-17
2.44055e-11
6.59984e-17
-1.07986e-12
6.76552e-17
-3.11468e-11
6.02317e-17
-6.21541e-11
5.12495e-17
-8.89292e-11
4.49454e-17
-1.04055e-10
3.62512e-17
-9.68973e-11
-5.22423e-11
-2.24326e-17
-5.22426e-11
-4.22267e-17
-9.68974e-11
-6.26225e-17
-1.04055e-10
-8.1452e-17
-8.89292e-11
-9.49995e-17
-6.21541e-11
-9.84147e-17
-3.11468e-11
-8.87293e-17
-1.07984e-12
-7.31676e-17
2.44055e-11
-5.63246e-17
4.27657e-11
-3.89635e-17
5.23541e-11
-2.07396e-17
5.23541e-11
-7.10268e-19
4.27657e-11
2.01763e-17
2.44055e-11
3.77075e-17
-1.07988e-12
4.45692e-17
-3.11468e-11
4.33462e-17
-6.21541e-11
3.77467e-17
-8.89292e-11
3.01038e-17
-1.04055e-10
1.85397e-17
-9.68973e-11
-5.22423e-11
-2.8028e-17
-5.22426e-11
-5.45486e-17
-9.68974e-11
-7.61904e-17
-1.04055e-10
-9.22129e-17
-8.89292e-11
-1.01619e-16
-6.21541e-11
-1.02724e-16
-3.11468e-11
-9.54943e-17
-1.07985e-12
-8.32149e-17
2.44055e-11
-6.88058e-17
4.27657e-11
-5.31841e-17
5.23541e-11
-3.65731e-17
5.2354e-11
-1.91907e-17
4.27656e-11
-1.85572e-18
2.44054e-11
1.28078e-17
-1.07989e-12
2.15704e-17
-3.11469e-11
2.42429e-17
-6.21541e-11
2.13883e-17
-8.89291e-11
1.2069e-17
-1.04055e-10
-5.06824e-18
-9.68972e-11
-5.22423e-11
-3.49276e-17
-5.22425e-11
-6.91401e-17
-9.68974e-11
-9.28846e-17
-1.04055e-10
-1.07189e-16
-8.89291e-11
-1.1364e-16
-6.21541e-11
-1.12801e-16
-3.11468e-11
-1.05896e-16
-1.07985e-12
-9.51222e-17
2.44055e-11
-8.2195e-17
4.27657e-11
-6.81329e-17
5.2354e-11
-5.34631e-17
5.2354e-11
-3.83046e-17
4.27656e-11
-2.33934e-17
2.44054e-11
-1.00453e-17
-1.07991e-12
4.98388e-19
-3.11469e-11
7.70466e-18
-6.21541e-11
1.05904e-17
-8.89292e-11
7.41655e-18
-1.04055e-10
-3.284e-18
-9.68972e-11
-5.22423e-11
-4.8181e-17
-5.22425e-11
-8.70809e-17
-9.68973e-11
-1.11991e-16
-1.04055e-10
-1.24794e-16
-8.89291e-11
-1.28401e-16
-6.21541e-11
-1.25372e-16
-3.11468e-11
-1.17869e-16
-1.07986e-12
-1.07375e-16
2.44055e-11
-9.55636e-17
4.27657e-11
-8.30738e-17
5.2354e-11
-7.03353e-17
5.2354e-11
-5.75862e-17
4.27656e-11
-4.50855e-17
2.44054e-11
-3.29162e-17
-1.07992e-12
-2.12166e-17
-3.11469e-11
-9.89143e-18
-6.21541e-11
3.01006e-19
-8.89292e-11
7.72182e-18
-1.04055e-10
1.53751e-17
-9.68972e-11
-5.22423e-11
-5.91422e-17
-5.22424e-11
-1.0385e-16
-9.68973e-11
-1.29758e-16
-1.04055e-10
-1.40622e-16
-8.89291e-11
-1.41809e-16
-6.21541e-11
-1.36696e-16
-3.11468e-11
-1.28138e-16
-1.07987e-12
-1.17864e-16
2.44055e-11
-1.07067e-16
4.27656e-11
-9.63128e-17
5.2354e-11
-8.59889e-17
5.2354e-11
-7.62717e-17
4.27656e-11
-6.68925e-17
2.44054e-11
-5.74264e-17
-1.07993e-12
-4.73638e-17
-3.11469e-11
-3.60156e-17
-6.21541e-11
-2.35059e-17
-8.89292e-11
-1.05005e-17
-1.04055e-10
9.33482e-18
-9.68973e-11
-5.22423e-11
-6.85694e-17
-5.22423e-11
-1.15749e-16
-9.68972e-11
-1.41372e-16
-1.04054e-10
-1.50353e-16
-8.89291e-11
-1.49294e-16
-6.21541e-11
-1.42751e-16
-3.11468e-11
-1.33768e-16
-1.07988e-12
-1.24059e-16
2.44055e-11
-1.14568e-16
4.27656e-11
-1.0599e-16
5.2354e-11
-9.87919e-17
5.2354e-11
-9.27713e-17
4.27656e-11
-8.76038e-17
2.44054e-11
-8.2962e-17
-1.07993e-12
-7.80038e-17
-3.11469e-11
-7.20348e-17
-6.21541e-11
-6.49166e-17
-8.89292e-11
-5.67633e-17
-1.04055e-10
-4.65917e-17
-9.68973e-11
-5.22423e-11
-7.35783e-17
-5.22423e-11
-1.19677e-16
-9.68972e-11
-1.42915e-16
-1.04054e-10
-1.49882e-16
-8.89291e-11
-1.47343e-16
-6.21541e-11
-1.40513e-16
-3.11468e-11
-1.32072e-16
-1.07988e-12
-1.23609e-16
2.44054e-11
-1.16169e-16
4.27656e-11
-1.1043e-16
5.2354e-11
-1.06679e-16
5.2354e-11
-1.04728e-16
4.27656e-11
-1.0453e-16
2.44054e-11
-1.05634e-16
-1.07993e-12
-1.07142e-16
-3.11469e-11
-1.08399e-16
-6.21541e-11
-1.08244e-16
-8.89292e-11
-1.0382e-16
-1.04055e-10
-8.86939e-17
-9.68973e-11
-5.22424e-11
-7.23337e-17
-5.22422e-11
-1.13978e-16
-9.68971e-11
-1.32376e-16
-1.04054e-10
-1.37106e-16
-8.89291e-11
-1.34355e-16
-6.21541e-11
-1.28486e-16
-3.11468e-11
-1.21739e-16
-1.07989e-12
-1.15524e-16
2.44054e-11
-1.10739e-16
4.27656e-11
-1.0811e-16
5.2354e-11
-1.07731e-16
5.2354e-11
-1.09749e-16
4.27656e-11
-1.1407e-16
2.44054e-11
-1.20107e-16
-1.07992e-12
-1.27098e-16
-3.11469e-11
-1.34146e-16
-6.21541e-11
-1.38329e-16
-8.89292e-11
-1.34419e-16
-1.04055e-10
-9.50497e-17
-9.68973e-11
-5.22425e-11
-6.80961e-17
-5.22421e-11
-9.90298e-17
-9.68971e-11
-1.10236e-16
-1.04054e-10
-1.12461e-16
-8.89291e-11
-1.10425e-16
-6.21541e-11
-1.06737e-16
-3.11468e-11
-1.02758e-16
-1.07989e-12
-9.95213e-17
2.44054e-11
-9.77474e-17
4.27656e-11
-9.80541e-17
5.2354e-11
-1.00671e-16
5.2354e-11
-1.05767e-16
4.27656e-11
-1.13078e-16
2.44054e-11
-1.22289e-16
-1.07991e-12
-1.32783e-16
-3.11469e-11
-1.42808e-16
-6.21541e-11
-1.47189e-16
-8.89292e-11
-1.40139e-16
-1.04055e-10
-9.27518e-17
-9.68974e-11
-5.22426e-11
-5.70157e-17
-5.22421e-11
-7.15043e-17
-9.68971e-11
-7.57491e-17
-1.04054e-10
-7.67129e-17
-8.89291e-11
-7.68547e-17
-6.21541e-11
-7.65707e-17
-3.11468e-11
-7.61046e-17
-1.07989e-12
-7.61893e-17
2.44054e-11
-7.73834e-17
4.27656e-11
-8.01891e-17
5.2354e-11
-8.49727e-17
5.2354e-11
-9.16559e-17
4.27656e-11
-1.00179e-16
2.44054e-11
-1.10488e-16
-1.0799e-12
-1.22092e-16
-3.11469e-11
-1.32226e-16
-6.21541e-11
-1.3645e-16
-8.89292e-11
-1.26451e-16
-1.04055e-10
-9.61936e-17
-9.68974e-11
-5.22427e-11
-2.03995e-17
-5.2242e-11
-2.64072e-17
-9.68971e-11
-2.88219e-17
-1.04054e-10
-3.1518e-17
-8.89291e-11
-3.58695e-17
-6.21541e-11
-3.99431e-17
-3.11468e-11
-4.33775e-17
-1.07989e-12
-4.68365e-17
2.44054e-11
-5.07005e-17
4.27656e-11
-5.54409e-17
5.2354e-11
-6.1322e-17
5.2354e-11
-6.81719e-17
4.27656e-11
-7.59802e-17
2.44054e-11
-8.44411e-17
-1.07989e-12
-9.14173e-17
-3.11468e-11
-9.64722e-17
-6.21541e-11
-9.75298e-17
-8.89292e-11
-8.36459e-17
-1.04055e-10
-6.28167e-17
-9.68974e-11
-5.22427e-11
2.13605e-17
-5.22421e-11
2.61105e-17
-9.68971e-11
2.3062e-17
-1.04054e-10
1.71413e-17
-8.89291e-11
8.30526e-18
-6.21541e-11
1.8831e-20
-3.11468e-11
-7.17002e-18
-1.07988e-12
-1.36055e-17
2.44054e-11
-1.96615e-17
4.27656e-11
-2.57034e-17
5.2354e-11
-3.18613e-17
5.2354e-11
-3.80809e-17
4.27656e-11
-4.38421e-17
2.44055e-11
-4.83678e-17
-1.07988e-12
-4.90092e-17
-3.11468e-11
-4.53313e-17
-6.21541e-11
-4.18842e-17
-8.89292e-11
-2.27914e-17
-1.04055e-10
1.19562e-17
-9.68974e-11
-5.22427e-11
7.02644e-17
-5.22421e-11
7.68283e-17
-9.68971e-11
7.23376e-17
-1.04054e-10
6.27373e-17
-8.89291e-11
5.05496e-17
-6.2154e-11
3.90073e-17
-3.11468e-11
2.91701e-17
-1.07987e-12
2.06738e-17
2.44055e-11
1.31218e-17
4.27656e-11
6.47284e-18
5.2354e-11
7.17232e-19
5.2354e-11
-4.16096e-18
4.27656e-11
-7.76375e-18
2.44055e-11
-9.61443e-18
-1.07988e-12
-9.91421e-18
-3.11468e-11
-8.28634e-18
-6.21541e-11
-1.23255e-18
-8.89292e-11
1.57437e-17
-1.04055e-10
3.33842e-17
-9.68975e-11
-5.22427e-11
9.01568e-17
-5.22422e-11
1.07432e-16
-9.68971e-11
1.06989e-16
-1.04054e-10
9.7859e-17
-8.89291e-11
8.64973e-17
-6.2154e-11
7.4049e-17
-3.11468e-11
6.28758e-17
-1.07986e-12
5.31651e-17
2.44055e-11
4.50371e-17
4.27657e-11
3.85008e-17
5.2354e-11
3.36306e-17
5.2354e-11
3.02775e-17
4.27656e-11
2.81824e-17
2.44055e-11
2.79925e-17
-1.07988e-12
2.83733e-17
-3.11468e-11
2.60822e-17
-6.21541e-11
3.03658e-17
-8.89292e-11
2.88573e-17
-1.04055e-10
2.54639e-17
-9.68975e-11
-5.22427e-11
6.93263e-17
-5.22423e-11
1.09725e-16
-9.68972e-11
1.22256e-16
-1.04054e-10
1.21167e-16
-8.89291e-11
1.14067e-16
-6.2154e-11
1.02949e-16
-3.11468e-11
9.15364e-17
-1.07985e-12
8.16414e-17
2.44055e-11
7.38087e-17
4.27657e-11
6.78754e-17
5.2354e-11
6.37254e-17
5.2354e-11
6.09286e-17
4.27657e-11
5.90071e-17
2.44055e-11
5.89931e-17
-1.07988e-12
6.01988e-17
-3.11468e-11
6.02454e-17
-6.21541e-11
6.5404e-17
-8.89292e-11
5.68763e-17
-1.04055e-10
3.0766e-17
-9.68974e-11
-5.22426e-11
5.19707e-17
-5.22423e-11
1.03393e-16
-9.68972e-11
1.28334e-16
-1.04054e-10
1.35767e-16
-8.89291e-11
1.33417e-16
-6.2154e-11
1.24701e-16
-3.11468e-11
1.13941e-16
-1.07984e-12
1.04683e-16
2.44055e-11
9.76578e-17
4.27657e-11
9.25843e-17
5.2354e-11
8.8934e-17
5.2354e-11
8.6154e-17
4.27657e-11
8.44166e-17
2.44055e-11
8.39167e-17
-1.07988e-12
8.22479e-17
-3.11468e-11
8.17835e-17
-6.21541e-11
7.98134e-17
-8.89292e-11
7.25073e-17
-1.04055e-10
4.18357e-17
-9.68974e-11
-5.22426e-11
4.23105e-17
-5.22424e-11
1.0094e-16
-9.68973e-11
1.32861e-16
-1.04054e-10
1.44038e-16
-8.89291e-11
1.44802e-16
-6.2154e-11
1.38836e-16
-3.11468e-11
1.29907e-16
-1.07983e-12
1.21804e-16
2.44055e-11
1.1583e-16
4.27657e-11
1.11614e-16
5.2354e-11
1.0849e-16
5.2354e-11
1.06266e-16
4.27657e-11
1.05404e-16
2.44055e-11
1.05455e-16
-1.07988e-12
1.04434e-16
-3.11468e-11
1.04963e-16
-6.21541e-11
9.57455e-17
-8.89292e-11
7.81719e-17
-1.04055e-10
4.76192e-17
-9.68974e-11
-5.22426e-11
6.77004e-17
-5.22425e-11
1.13645e-16
-9.68973e-11
1.37586e-16
-1.04055e-10
1.45724e-16
-8.89291e-11
1.47034e-16
-6.2154e-11
1.44172e-16
-3.11468e-11
1.3886e-16
-1.07983e-12
1.32999e-16
2.44055e-11
1.28257e-16
4.27657e-11
1.24833e-16
5.23541e-11
1.22372e-16
5.2354e-11
1.20895e-16
4.27657e-11
1.2059e-16
2.44055e-11
1.20597e-16
-1.07988e-12
1.22842e-16
-3.11468e-11
1.26918e-16
-6.21541e-11
1.17078e-16
-8.89292e-11
9.07704e-17
-1.04055e-10
5.47545e-17
-9.68973e-11
-5.22425e-11
8.20937e-17
-5.22425e-11
1.13099e-16
-9.68973e-11
1.28394e-16
-1.04055e-10
1.34962e-16
-8.89291e-11
1.37771e-16
-6.2154e-11
1.39094e-16
-3.11468e-11
1.38987e-16
-1.07983e-12
1.37129e-16
2.44055e-11
1.34504e-16
4.27657e-11
1.32184e-16
5.23541e-11
1.30334e-16
5.2354e-11
1.28925e-16
4.27657e-11
1.27974e-16
2.44055e-11
1.27573e-16
-1.07988e-12
1.29296e-16
-3.11468e-11
1.30524e-16
-6.21541e-11
1.24672e-16
-8.89291e-11
1.02243e-16
-1.04055e-10
6.19512e-17
-9.68973e-11
-5.22424e-11
5.4718e-17
-5.22426e-11
7.84931e-17
-9.68974e-11
9.65113e-17
-1.04055e-10
1.08554e-16
-8.89291e-11
1.17263e-16
-6.2154e-11
1.24541e-16
-3.11468e-11
1.29918e-16
-1.07983e-12
1.32814e-16
2.44055e-11
1.33562e-16
4.27657e-11
1.33092e-16
5.23541e-11
1.32176e-16
5.23541e-11
1.31323e-16
4.27657e-11
1.30512e-16
2.44055e-11
1.29901e-16
-1.07988e-12
1.29629e-16
-3.11468e-11
1.27327e-16
-6.21541e-11
1.23549e-16
-8.89291e-11
1.07921e-16
-1.04055e-10
6.93556e-17
-9.68973e-11
-5.22424e-11
1.08368e-17
-5.22426e-11
2.33894e-17
-9.68974e-11
4.8699e-17
-1.04055e-10
7.24749e-17
-8.89291e-11
9.07691e-17
-6.21541e-11
1.04978e-16
-3.11468e-11
1.15285e-16
-1.07984e-12
1.22008e-16
2.44055e-11
1.25789e-16
4.27657e-11
1.27708e-16
5.23541e-11
1.28801e-16
5.23541e-11
1.29453e-16
4.27657e-11
1.29624e-16
2.44055e-11
1.30278e-16
-1.07988e-12
1.30463e-16
-3.11468e-11
1.26679e-16
-6.21541e-11
1.21315e-16
-8.89291e-11
1.10101e-16
-1.04055e-10
7.63722e-17
-9.68972e-11
-5.22423e-11
-7.24638e-17
-5.22425e-11
-3.6985e-17
-9.68974e-11
4.99905e-18
-1.04055e-10
4.10434e-17
-8.89292e-11
6.77103e-17
-6.21541e-11
8.6672e-17
-3.11468e-11
9.99089e-17
-1.07985e-12
1.08707e-16
2.44055e-11
1.14368e-16
4.27657e-11
1.18138e-16
5.23541e-11
1.20768e-16
5.2354e-11
1.22446e-16
4.27657e-11
1.23236e-16
2.44055e-11
1.25285e-16
-1.07988e-12
1.27255e-16
-3.11468e-11
1.23362e-16
-6.21541e-11
1.16805e-16
-8.89291e-11
1.08527e-16
-1.04054e-10
7.82059e-17
-9.68972e-11
-5.22422e-11
-8.44738e-17
-5.22424e-11
-3.65511e-17
-9.68975e-11
2.44646e-18
-1.04055e-10
3.42872e-17
-8.89292e-11
5.91291e-17
-6.21541e-11
7.56099e-17
-3.11468e-11
8.73384e-17
-1.07986e-12
9.54627e-17
2.44055e-11
1.01097e-16
4.27657e-11
1.0496e-16
5.23541e-11
1.07481e-16
5.2354e-11
1.0869e-16
4.27657e-11
1.09109e-16
2.44055e-11
1.10678e-16
-1.07988e-12
1.11846e-16
-3.11468e-11
1.09687e-16
-6.21541e-11
1.05178e-16
-8.89291e-11
9.83388e-17
-1.04054e-10
7.03745e-17
-9.68972e-11
-5.22421e-11
4.38578e-17
-5.22425e-11
3.57189e-17
-9.68974e-11
4.3257e-17
-1.04055e-10
5.57619e-17
-8.89292e-11
6.537e-17
-6.21541e-11
7.21761e-17
-3.11468e-11
7.77435e-17
-1.07987e-12
8.21111e-17
2.44055e-11
8.52134e-17
4.27657e-11
8.71707e-17
5.23541e-11
8.81367e-17
5.2354e-11
8.79409e-17
4.27657e-11
8.74324e-17
2.44055e-11
8.64775e-17
-1.07988e-12
8.44541e-17
-3.11468e-11
8.36175e-17
-6.21541e-11
8.23935e-17
-8.89291e-11
7.5835e-17
-1.04054e-10
5.07571e-17
-9.68971e-11
-5.22421e-11
7.99308e-17
-5.22426e-11
8.48496e-17
-9.68975e-11
7.90189e-17
-1.04055e-10
7.64177e-17
-8.89292e-11
7.29736e-17
-6.21541e-11
6.99693e-17
-3.11468e-11
6.77031e-17
-1.07986e-12
6.6404e-17
2.44055e-11
6.53387e-17
4.27657e-11
6.43406e-17
5.23541e-11
6.31573e-17
5.23541e-11
6.15285e-17
4.27657e-11
5.95599e-17
2.44055e-11
5.48984e-17
-1.07987e-12
4.95168e-17
-3.11468e-11
4.86239e-17
-6.21541e-11
4.95106e-17
-8.89291e-11
4.34809e-17
-1.04054e-10
2.44077e-17
-9.68971e-11
-5.22421e-11
1.05646e-16
-5.22427e-11
1.07674e-16
-9.68975e-11
9.45764e-17
-1.04055e-10
8.47044e-17
-8.89292e-11
7.22949e-17
-6.21541e-11
6.21719e-17
-3.11468e-11
5.32027e-17
-1.07985e-12
4.61842e-17
2.44055e-11
4.09074e-17
4.27657e-11
3.69288e-17
5.23541e-11
3.36554e-17
5.23541e-11
3.05609e-17
4.27657e-11
2.598e-17
2.44055e-11
1.76903e-17
-1.07986e-12
9.78989e-18
-3.11468e-11
8.67995e-18
-6.21541e-11
1.1593e-17
-8.89291e-11
1.1471e-17
-1.04054e-10
4.5411e-18
-9.68971e-11
-5.22421e-11
7.24403e-17
-5.22427e-11
8.45923e-17
-9.68975e-11
8.1971e-17
-1.04055e-10
6.93042e-17
-8.89292e-11
5.62714e-17
-6.21541e-11
4.35678e-17
-3.11468e-11
3.14127e-17
-1.07984e-12
2.07766e-17
2.44055e-11
1.23208e-17
4.27657e-11
5.68073e-18
5.23541e-11
2.67782e-19
5.23541e-11
-4.99686e-18
4.27657e-11
-1.30513e-17
2.44055e-11
-2.44763e-17
-1.07985e-12
-3.39276e-17
-3.11468e-11
-3.54761e-17
-6.21541e-11
-3.11474e-17
-8.89291e-11
-2.41021e-17
-1.04054e-10
-1.15263e-17
-9.68971e-11
-5.22421e-11
1.00516e-17
-5.22428e-11
3.91634e-17
-9.68975e-11
4.59776e-17
-1.04055e-10
3.75791e-17
-8.89292e-11
2.74139e-17
-6.21541e-11
1.56289e-17
-3.11468e-11
2.91589e-18
-1.07983e-12
-9.13114e-18
2.44055e-11
-1.95923e-17
4.27657e-11
-2.85955e-17
5.23541e-11
-3.65403e-17
5.23541e-11
-4.51096e-17
4.27657e-11
-5.77459e-17
2.44055e-11
-7.17686e-17
-1.07984e-12
-8.07498e-17
-3.11468e-11
-8.34809e-17
-6.21541e-11
-8.04014e-17
-8.89291e-11
-7.11718e-17
-1.04054e-10
-5.0038e-17
-9.68971e-11
-5.22421e-11
2.60158e-19
-5.22428e-11
1.27339e-17
-9.68975e-11
1.51637e-17
-1.04055e-10
7.87616e-18
-8.89292e-11
-2.70602e-18
-6.21541e-11
-1.62137e-17
-3.11468e-11
-2.94e-17
-1.07981e-12
-4.17392e-17
2.44055e-11
-5.32326e-17
4.27657e-11
-6.42047e-17
5.23541e-11
-7.48933e-17
5.23541e-11
-8.69895e-17
4.27657e-11
-1.03591e-16
2.44055e-11
-1.18935e-16
-1.07982e-12
-1.26667e-16
-3.11468e-11
-1.30434e-16
-6.21541e-11
-1.27442e-16
-8.89291e-11
-1.12709e-16
-1.04055e-10
-7.63216e-17
-9.68972e-11
-5.22422e-11
9.51671e-18
-5.22428e-11
1.90713e-18
-9.68975e-11
-1.22363e-17
-1.04055e-10
-2.66956e-17
-8.89291e-11
-3.95418e-17
-6.21541e-11
-5.14526e-17
-3.11468e-11
-6.35398e-17
-1.0798e-12
-7.48767e-17
2.44055e-11
-8.61462e-17
4.27657e-11
-9.83743e-17
5.23541e-11
-1.11411e-16
5.23541e-11
-1.27537e-16
4.27657e-11
-1.44798e-16
2.44055e-11
-1.5673e-16
-1.07981e-12
-1.65687e-16
-3.11468e-11
-1.72215e-16
-6.21541e-11
-1.67137e-16
-8.89291e-11
-1.40968e-16
-1.04055e-10
-7.16441e-17
-9.68973e-11
-5.22423e-11
-4.83191e-19
-5.22428e-11
-2.85966e-17
-9.68975e-11
-5.05107e-17
-1.04055e-10
-6.54208e-17
-8.89291e-11
-7.76151e-17
-6.2154e-11
-8.58535e-17
-3.11468e-11
-9.55504e-17
-1.07979e-12
-1.05056e-16
2.44055e-11
-1.14801e-16
4.27657e-11
-1.26747e-16
5.23541e-11
-1.4131e-16
5.23541e-11
-1.57983e-16
4.27657e-11
-1.72649e-16
2.44055e-11
-1.85143e-16
-1.0798e-12
-1.98641e-16
-3.11468e-11
-2.10276e-16
-6.21541e-11
-2.10654e-16
-8.89291e-11
-1.80505e-16
-1.04055e-10
-1.12951e-16
-9.68973e-11
-5.22424e-11
-3.12231e-17
-5.22427e-11
-7.23469e-17
-9.68974e-11
-9.17581e-17
-1.04055e-10
-9.9581e-17
-8.89291e-11
-1.09558e-16
-6.2154e-11
-1.16304e-16
-3.11468e-11
-1.21671e-16
-1.07979e-12
-1.28896e-16
2.44055e-11
-1.36091e-16
4.27657e-11
-1.45283e-16
5.23541e-11
-1.57173e-16
5.23541e-11
-1.71102e-16
4.27657e-11
-1.84238e-16
2.44056e-11
-2.0033e-16
-1.07979e-12
-2.184e-16
-3.11468e-11
-2.36288e-16
-6.2154e-11
-2.43412e-16
-8.89291e-11
-2.13286e-16
-1.04055e-10
-1.46758e-16
-9.68974e-11
-5.22425e-11
-5.87318e-17
-5.22427e-11
-1.05669e-16
-9.68974e-11
-1.24829e-16
-1.04055e-10
-1.29692e-16
-8.89291e-11
-1.3572e-16
-6.2154e-11
-1.38212e-16
-3.11468e-11
-1.39407e-16
-1.07979e-12
-1.42451e-16
2.44055e-11
-1.46486e-16
4.27657e-11
-1.51166e-16
5.23541e-11
-1.57992e-16
5.23541e-11
-1.66881e-16
4.27657e-11
-1.78817e-16
2.44056e-11
-1.94586e-16
-1.07977e-12
-2.13532e-16
-3.11468e-11
-2.33057e-16
-6.2154e-11
-2.35344e-16
-8.89291e-11
-1.98253e-16
-1.04055e-10
-1.14638e-16
-9.68975e-11
-5.22427e-11
-7.75809e-17
-5.22426e-11
-1.2502e-16
-9.68973e-11
-1.47058e-16
-1.04055e-10
-1.5213e-16
-8.89291e-11
-1.51378e-16
-6.2154e-11
-1.49211e-16
-3.11468e-11
-1.45085e-16
-1.07979e-12
-1.42499e-16
2.44055e-11
-1.42826e-16
4.27657e-11
-1.43245e-16
5.23541e-11
-1.44797e-16
5.23541e-11
-1.49546e-16
4.27657e-11
-1.60737e-16
2.44056e-11
-1.72545e-16
-1.07976e-12
-1.88632e-16
-3.11467e-11
-2.03218e-16
-6.2154e-11
-1.99981e-16
-8.89291e-11
-1.66989e-16
-1.04055e-10
-1.07806e-16
-9.68975e-11
-5.22428e-11
-8.9439e-17
-5.22425e-11
-1.34572e-16
-9.68973e-11
-1.57542e-16
-1.04055e-10
-1.63362e-16
-8.89291e-11
-1.57369e-16
-6.2154e-11
-1.51177e-16
-3.11468e-11
-1.42256e-16
-1.07981e-12
-1.33527e-16
2.44055e-11
-1.27165e-16
4.27657e-11
-1.22542e-16
5.23541e-11
-1.20791e-16
5.23541e-11
-1.23573e-16
4.27657e-11
-1.30189e-16
2.44056e-11
-1.38272e-16
-1.07976e-12
-1.47813e-16
-3.11467e-11
-1.51994e-16
-6.2154e-11
-1.41608e-16
-8.89292e-11
-1.19496e-16
-1.04055e-10
-9.74525e-17
-9.68976e-11
-5.22429e-11
-9.64255e-17
-5.22424e-11
-1.36416e-16
-9.68973e-11
-1.56025e-16
-1.04055e-10
-1.61804e-16
-8.89291e-11
-1.54307e-16
-6.2154e-11
-1.42837e-16
-3.11468e-11
-1.30739e-16
-1.07982e-12
-1.17685e-16
2.44055e-11
-1.04843e-16
4.27657e-11
-9.48223e-17
5.23541e-11
-9.19323e-17
5.23541e-11
-9.3585e-17
4.27657e-11
-9.26077e-17
2.44056e-11
-9.35164e-17
-1.07976e-12
-9.38433e-17
-3.11467e-11
-8.44753e-17
-6.2154e-11
-6.4265e-17
-8.89292e-11
-4.89992e-17
-1.04055e-10
-2.55576e-17
-9.68976e-11
-5.22429e-11
-9.98133e-17
-5.22423e-11
-1.31896e-16
-9.68972e-11
-1.4395e-16
-1.04055e-10
-1.4706e-16
-8.89291e-11
-1.3873e-16
-6.21541e-11
-1.24528e-16
-3.11468e-11
-1.09962e-16
-1.07984e-12
-9.42771e-17
2.44055e-11
-7.8322e-17
4.27657e-11
-6.68132e-17
5.23541e-11
-6.25838e-17
5.23541e-11
-5.98883e-17
4.27657e-11
-5.36422e-17
2.44056e-11
-4.66755e-17
-1.07977e-12
-3.73847e-17
-3.11467e-11
-1.96881e-17
-6.2154e-11
-1.0961e-19
-8.89292e-11
5.43904e-18
-1.04055e-10
1.94135e-18
-9.68976e-11
-5.22429e-11
-9.83674e-17
-5.22422e-11
-1.20962e-16
-9.68972e-11
-1.22967e-16
-1.04055e-10
-1.20818e-16
-8.89291e-11
-1.1059e-16
-6.21541e-11
-9.57766e-17
-3.11468e-11
-7.98892e-17
-1.07986e-12
-6.45308e-17
2.44055e-11
-5.15883e-17
4.27657e-11
-4.2602e-17
5.23541e-11
-3.52932e-17
5.23541e-11
-2.63755e-17
4.27657e-11
-1.50419e-17
2.44055e-11
-2.0203e-18
-1.07979e-12
1.4556e-17
-3.11468e-11
3.55259e-17
-6.21541e-11
5.1654e-17
-8.89292e-11
4.65122e-17
-1.04055e-10
1.80458e-17
-9.68976e-11
-5.22429e-11
-8.7417e-17
-5.22421e-11
-1.00849e-16
-9.68972e-11
-9.37965e-17
-1.04055e-10
-8.54337e-17
-8.89291e-11
-7.3539e-17
-6.21541e-11
-5.92484e-17
-3.11468e-11
-4.50249e-17
-1.07987e-12
-3.29441e-17
2.44055e-11
-2.4684e-17
4.27657e-11
-1.78444e-17
5.23541e-11
-8.22976e-18
5.23541e-11
4.73634e-18
4.27657e-11
2.02145e-17
2.44055e-11
3.8008e-17
-1.07981e-12
5.85794e-17
-3.11468e-11
8.01914e-17
-6.21541e-11
9.27765e-17
-8.89292e-11
8.17487e-17
-1.04055e-10
4.77799e-17
-9.68975e-11
-5.22428e-11
-6.14825e-17
-5.22421e-11
-6.79902e-17
-9.68972e-11
-5.59718e-17
-1.04055e-10
-4.339e-17
-8.89291e-11
-3.14094e-17
-6.21541e-11
-1.96425e-17
-3.11468e-11
-9.34257e-18
-1.07989e-12
-1.36816e-18
2.44055e-11
4.20102e-18
4.27657e-11
1.00526e-17
5.23541e-11
1.9824e-17
5.23541e-11
3.41052e-17
4.27657e-11
5.1592e-17
2.44055e-11
7.13397e-17
-1.07983e-12
9.2579e-17
-3.11468e-11
1.11983e-16
-6.21541e-11
1.18538e-16
-8.89292e-11
1.01548e-16
-1.04055e-10
6.486e-17
-9.68975e-11
-5.22428e-11
-1.96749e-17
-5.22421e-11
-2.03821e-17
-9.68972e-11
-8.61472e-18
-1.04055e-10
3.70071e-18
-8.89292e-11
1.31635e-17
-6.21541e-11
2.04475e-17
-3.11469e-11
2.60226e-17
-1.0799e-12
3.00847e-17
2.44054e-11
3.34491e-17
4.27656e-11
3.84012e-17
5.2354e-11
4.75341e-17
5.23541e-11
6.12083e-17
4.27657e-11
7.81483e-17
2.44055e-11
9.6673e-17
-1.07985e-12
1.15231e-16
-3.11468e-11
1.28865e-16
-6.21541e-11
1.27198e-16
-8.89292e-11
1.04587e-16
-1.04055e-10
6.61709e-17
-9.68975e-11
-5.22427e-11
3.20734e-17
-5.22421e-11
4.07954e-17
-9.68972e-11
4.78592e-17
-1.04055e-10
5.44235e-17
-8.89292e-11
5.81775e-17
-6.21541e-11
5.95061e-17
-3.11469e-11
5.98168e-17
-1.0799e-12
5.997e-17
2.44054e-11
6.10336e-17
4.27656e-11
6.47544e-17
5.2354e-11
7.25566e-17
5.2354e-11
8.43351e-17
4.27657e-11
9.86081e-17
2.44055e-11
1.13524e-16
-1.07987e-12
1.26627e-16
-3.11468e-11
1.31734e-16
-6.21541e-11
1.20675e-16
-8.89292e-11
9.33103e-17
-1.04055e-10
5.59307e-17
-9.68974e-11
-5.22426e-11
8.40139e-17
-5.22422e-11
1.07162e-16
-9.68972e-11
1.08381e-16
-1.04055e-10
1.05141e-16
-8.89292e-11
1.00517e-16
-6.21541e-11
9.5036e-17
-3.11469e-11
9.00087e-17
-1.0799e-12
8.64118e-17
2.44054e-11
8.51612e-17
4.27656e-11
8.72336e-17
5.2354e-11
9.30517e-17
5.2354e-11
1.02013e-16
4.27657e-11
1.12594e-16
2.44055e-11
1.22795e-16
-1.07988e-12
1.29215e-16
-3.11469e-11
1.25365e-16
-6.21541e-11
1.06695e-16
-8.89292e-11
7.73031e-17
-1.04055e-10
4.3447e-17
-9.68974e-11
-5.22426e-11
1.28319e-16
-5.22423e-11
1.65119e-16
-9.68973e-11
1.6185e-16
-1.04055e-10
1.4864e-16
-8.89292e-11
1.35193e-16
-6.21541e-11
1.23179e-16
-3.11469e-11
1.13534e-16
-1.07989e-12
1.06905e-16
2.44054e-11
1.03682e-16
4.27656e-11
1.04e-16
5.2354e-11
1.07611e-16
5.2354e-11
1.1365e-16
4.27656e-11
1.20644e-16
2.44055e-11
1.26333e-16
-1.07989e-12
1.26693e-16
-3.11469e-11
1.16013e-16
-6.21541e-11
9.31433e-17
-8.89292e-11
6.48106e-17
-1.04055e-10
3.60202e-17
-9.68974e-11
-5.22426e-11
1.54037e-16
-5.22425e-11
1.97792e-16
-9.68973e-11
1.93476e-16
-1.04055e-10
1.74997e-16
-8.89291e-11
1.55772e-16
-6.21541e-11
1.39446e-16
-3.11468e-11
1.27046e-16
-1.07988e-12
1.18792e-16
2.44055e-11
1.14415e-16
4.27656e-11
1.13456e-16
5.2354e-11
1.15329e-16
5.2354e-11
1.19132e-16
4.27656e-11
1.2341e-16
2.44054e-11
1.25729e-16
-1.07989e-12
1.22049e-16
-3.11469e-11
1.08039e-16
-6.21541e-11
8.42437e-17
-8.89292e-11
5.85893e-17
-1.04055e-10
3.43597e-17
-9.68973e-11
-5.22425e-11
1.39799e-16
-5.22426e-11
1.87635e-16
-9.68974e-11
1.90461e-16
-1.04055e-10
1.75226e-16
-8.89291e-11
1.56594e-16
-6.21541e-11
1.40292e-16
-3.11468e-11
1.28091e-16
-1.07987e-12
1.20164e-16
2.44055e-11
1.15903e-16
4.27656e-11
1.14633e-16
5.2354e-11
1.15727e-16
5.2354e-11
1.18341e-16
4.27656e-11
1.21074e-16
2.44054e-11
1.21611e-16
-1.07989e-12
1.16474e-16
-3.11469e-11
1.02531e-16
-6.21541e-11
8.02933e-17
-8.89292e-11
5.74551e-17
-1.04055e-10
3.55641e-17
-9.68973e-11
-5.22425e-11
8.94182e-17
-5.22427e-11
1.41094e-16
-9.68974e-11
1.53733e-16
-1.04055e-10
1.48594e-16
-8.89291e-11
1.3677e-16
-6.21541e-11
1.25142e-16
-3.11468e-11
1.16324e-16
-1.07986e-12
1.1075e-16
2.44055e-11
1.07975e-16
4.27656e-11
1.07493e-16
5.2354e-11
1.08826e-16
5.2354e-11
1.11261e-16
4.27656e-11
1.13648e-16
2.44054e-11
1.14111e-16
-1.07989e-12
1.09927e-16
-3.11469e-11
9.8609e-17
-6.21541e-11
8.02831e-17
-8.89291e-11
6.04112e-17
-1.04055e-10
3.81684e-17
-9.68973e-11
-5.22425e-11
4.81668e-17
-5.22427e-11
7.84437e-17
-9.68975e-11
9.86312e-17
-1.04055e-10
1.03877e-16
-8.89291e-11
1.01434e-16
-6.21541e-11
9.72762e-17
-3.11468e-11
9.39949e-17
-1.07986e-12
9.22357e-17
2.44055e-11
9.1994e-17
4.27656e-11
9.31428e-17
5.2354e-11
9.54679e-17
5.2354e-11
9.85936e-17
4.27656e-11
1.0182e-16
2.44054e-11
1.03807e-16
-1.0799e-12
1.02456e-16
-3.11469e-11
9.5763e-17
-6.21541e-11
8.39382e-17
-8.89291e-11
6.7948e-17
-1.04055e-10
4.34528e-17
-9.68973e-11
-5.22424e-11
9.05806e-18
-5.22428e-11
2.32762e-17
-9.68975e-11
4.09036e-17
-1.04055e-10
5.28859e-17
-8.89291e-11
5.88547e-17
-6.21541e-11
6.2371e-17
-3.11468e-11
6.5138e-17
-1.07986e-12
6.77259e-17
2.44055e-11
7.04907e-17
4.27656e-11
7.3685e-17
5.2354e-11
7.75155e-17
5.2354e-11
8.21085e-17
4.27656e-11
8.72319e-17
2.44054e-11
9.19899e-17
-1.07991e-12
9.48635e-17
-3.11469e-11
9.45487e-17
-6.21541e-11
9.09669e-17
-8.89291e-11
7.98431e-17
-1.04055e-10
5.29211e-17
-9.68973e-11
-5.22424e-11
-2.56732e-17
-5.22427e-11
-2.60723e-17
-9.68975e-11
-1.18348e-17
-1.04055e-10
4.03921e-18
-8.89292e-11
1.62852e-17
-6.21541e-11
2.61049e-17
-3.11468e-11
3.41255e-17
-1.07987e-12
4.07097e-17
2.44055e-11
4.63784e-17
4.27656e-11
5.1702e-17
5.2354e-11
5.73671e-17
5.2354e-11
6.39759e-17
4.27656e-11
7.16693e-17
2.44054e-11
7.9953e-17
-1.07992e-12
8.7929e-17
-3.11469e-11
9.48592e-17
-6.21541e-11
9.92127e-17
-8.89291e-11
9.3144e-17
-1.04055e-10
6.50773e-17
-9.68972e-11
-5.22423e-11
-4.96066e-17
-5.22427e-11
-6.32498e-17
-9.68975e-11
-5.35763e-17
-1.04055e-10
-3.63114e-17
-8.89292e-11
-2.06181e-17
-6.21541e-11
-6.94324e-18
-3.11468e-11
4.57203e-18
-1.07989e-12
1.40854e-17
2.44054e-11
2.20757e-17
4.27656e-11
2.93079e-17
5.2354e-11
3.68339e-17
5.2354e-11
4.55979e-17
4.27656e-11
5.60195e-17
2.44054e-11
6.79222e-17
-1.07993e-12
8.08532e-17
-3.11469e-11
9.40733e-17
-6.21541e-11
1.04187e-16
-8.89291e-11
1.02428e-16
-1.04055e-10
7.47879e-17
-9.68972e-11
-5.22422e-11
-6.12788e-17
-5.22426e-11
-8.44358e-17
-9.68975e-11
-8.08726e-17
-1.04055e-10
-6.49798e-17
-8.89292e-11
-4.87831e-17
-6.21541e-11
-3.40341e-17
-3.11469e-11
-2.12254e-17
-1.0799e-12
-1.03622e-17
2.44054e-11
-1.08043e-18
4.27656e-11
7.51063e-18
5.2354e-11
1.66412e-17
5.2354e-11
2.73483e-17
4.27656e-11
4.00603e-17
2.44054e-11
5.4657e-17
-1.07995e-12
7.0854e-17
-3.11469e-11
8.76156e-17
-6.21541e-11
1.0051e-16
-8.89292e-11
1.01532e-16
-1.04055e-10
7.60278e-17
-9.68972e-11
-5.22421e-11
-6.19275e-17
-5.22426e-11
-9.03442e-17
-9.68974e-11
-9.39416e-17
-1.04055e-10
-8.22062e-17
-8.89292e-11
-6.78487e-17
-6.21541e-11
-5.42649e-17
-3.11469e-11
-4.21502e-17
-1.07992e-12
-3.15898e-17
2.44054e-11
-2.21757e-17
4.27656e-11
-1.28799e-17
5.2354e-11
-2.56766e-18
5.2354e-11
9.42113e-18
4.27656e-11
2.31337e-17
2.44054e-11
3.83275e-17
-1.07996e-12
5.48546e-17
-3.11469e-11
7.15238e-17
-6.21542e-11
8.40316e-17
-8.89292e-11
8.62171e-17
-1.04055e-10
6.48218e-17
-9.68972e-11
-5.22421e-11
-5.3315e-17
-5.22425e-11
-8.3178e-17
-9.68974e-11
-9.46296e-17
-1.04055e-10
-8.97e-17
-8.89292e-11
-7.89664e-17
-6.21541e-11
-6.78568e-17
-3.11469e-11
-5.76528e-17
-1.07993e-12
-4.84462e-17
2.44054e-11
-3.96317e-17
4.27656e-11
-3.02008e-17
5.2354e-11
-1.95306e-17
5.2354e-11
-7.68937e-18
4.27656e-11
4.91062e-18
2.44054e-11
1.80629e-17
-1.07998e-12
3.18768e-17
-3.11469e-11
4.51825e-17
-6.21542e-11
5.47007e-17
-8.89292e-11
5.69497e-17
-1.04055e-10
4.15427e-17
-9.68971e-11
-5.2242e-11
-3.91347e-17
-5.22425e-11
-6.77716e-17
-9.68974e-11
-8.56967e-17
-1.04055e-10
-8.91244e-17
-8.89292e-11
-8.33704e-17
-6.21542e-11
-7.53009e-17
-3.11469e-11
-6.73034e-17
-1.07994e-12
-5.96405e-17
2.44054e-11
-5.16966e-17
4.27656e-11
-4.28996e-17
5.2354e-11
-3.33684e-17
5.23539e-11
-2.36839e-17
4.27655e-11
-1.4337e-17
2.44053e-11
-5.24408e-18
-1.07999e-12
3.85161e-18
-3.11469e-11
1.1895e-17
-6.21542e-11
1.728e-17
-8.89292e-11
1.94326e-17
-1.04055e-10
1.24887e-17
-9.68971e-11
-5.2242e-11
-2.55077e-17
-5.22424e-11
-5.05913e-17
-9.68973e-11
-7.13987e-17
-1.04055e-10
-8.22348e-17
-8.89292e-11
-8.20089e-17
-6.21542e-11
-7.72787e-17
-3.11469e-11
-7.14191e-17
-1.07995e-12
-6.52162e-17
2.44054e-11
-5.85289e-17
4.27656e-11
-5.15015e-17
5.23539e-11
-4.46983e-17
5.23539e-11
-3.87249e-17
4.27655e-11
-3.37798e-17
2.44053e-11
-2.94878e-17
-1.08e-12
-2.56934e-17
-3.11469e-11
-2.31585e-17
-6.21542e-11
-2.16242e-17
-8.89292e-11
-1.84736e-17
-1.04055e-10
-1.47275e-17
-9.68971e-11
-5.2242e-11
-1.94485e-17
-5.22424e-11
-3.99255e-17
-9.68973e-11
-5.8249e-17
-1.04055e-10
-7.2514e-17
-8.89292e-11
-7.68819e-17
-6.21542e-11
-7.557e-17
-3.11469e-11
-7.20166e-17
-1.07995e-12
-6.75198e-17
2.44054e-11
-6.26973e-17
4.27656e-11
-5.82413e-17
5.23539e-11
-5.48281e-17
5.23539e-11
-5.28521e-17
4.27655e-11
-5.21929e-17
2.44053e-11
-5.23887e-17
-1.08e-12
-5.33674e-17
-3.11469e-11