/*--------------------------------*- C++ -*----------------------------------*\
| =========                 |                                                 |
| \\      /  F ield         | OpenFOAM: The Open Source CFD Toolbox           |
|  \\    /   O peration     | Version:  5.x                                   |
|   \\  /    A nd           | Web:      www.OpenFOAM.org                      |
|    \\/     M anipulation  |                                                 |
\*---------------------------------------------------------------------------*/
FoamFile
{
    version     2.0;
    format      ascii;
    class       volScalarField;
    location    "0.35";
    object      alpha.water;
}
// * * * * * * * * * * * * * * * * * * * * * * * * * * * * * * * * * * * * * //

dimensions      [0 0 0 0 0 0 0];

internalField   nonuniform List<scalar> 
8000
(
1
1
1
1
1
1
1
1
1
1
1
1
1
1
1
1
1
1
1
1
1
1
1
1
1
1
1
1
1
1
1
1
1
1
1
1
1
1
1
1
1
1
1
1
1
1
1
1
1
1
1
1
1
1
1
1
1
1
1
1
1
1
1
1
1
1
1
1
1
1
1
1
1
1
1
1
1
1
1
1
1
1
1
1
1
1
1
1
1
1
1
1
1
1
1
1
1
1
1
1
1
1
1
1
1
1
1
1
1
1
1
1
1
1
1
1
1
1
1
1
1
1
1
1
1
1
1
1
1
1
1
1
1
1
1
1
1
1
1
1
1
1
1
1
1
1
1
1
1
1
1
1
1
1
1
1
1
1
1
1
1
1
1
1
1
1
1
1
1
1
1
1
1
1
1
1
1
1
1
1
1
1
1
1
1
1
1
1
1
1
1
1
1
1
1
1
1
1
1
1
1
1
1
1
1
1
1
1
1
1
1
1
1
1
1
1
1
1
1
1
1
1
1
1
1
1
1
1
1
1
1
1
1
1
1
1
1
1
1
1
1
1
1
1
1
1
1
1
1
1
1
1
1
1
1
1
1
1
1
1
1
1
1
1
1
1
1
1
1
1
1
1
1
1
1
1
1
1
1
1
1
1
1
1
1
1
1
1
1
1
1
1
1
1
1
1
1
1
1
1
1
1
1
1
1
1
1
1
1
1
1
1
1
1
1
1
1
1
1
1
1
1
1
1
1
1
1
1
1
1
1
1
1
1
1
1
1
1
1
1
1
1
1
1
1
1
1
1
1
1
1
1
1
1
1
1
1
1
1
1
1
1
1
1
1
1
1
1
1
1
1
1
1
1
1
1
1
1
1
1
1
1
1
1
1
1
1
1
1
1
1
1
1
1
1
1
1
1
1
1
1
1
1
1
1
1
1
1
1
1
1
1
1
1
1
1
1
1
1
1
1
1
1
1
1
1
1
1
1
1
1
1
1
1
1
1
1
1
1
1
1
1
1
1
1
1
1
1
1
1
1
1
1
1
1
1
1
1
1
1
1
1
1
1
1
1
1
1
1
1
1
1
1
1
1
1
1
1
1
1
1
1
1
1
1
1
1
1
1
1
1
1
1
1
1
1
1
1
1
1
1
1
1
1
1
1
1
1
1
1
1
1
1
1
1
1
1
1
1
1
1
1
1
1
1
1
1
1
1
1
1
1
1
1
1
1
1
1
1
1
1
1
1
1
1
1
1
1
1
1
1
1
1
1
1
1
1
1
1
1
1
1
1
1
1
1
1
1
1
1
1
1
1
1
1
1
1
1
1
1
1
1
1
1
1
1
1
1
1
1
1
1
1
1
1
1
1
1
1
1
1
1
1
1
1
1
1
1
1
1
1
1
1
1
1
1
1
1
1
1
1
1
1
1
1
1
1
1
1
1
1
1
1
1
1
1
1
1
1
1
1
1
1
1
1
1
1
1
1
1
1
1
1
1
1
1
1
1
1
1
1
1
1
1
1
1
1
1
1
1
1
1
1
1
1
1
1
1
1
1
1
1
1
1
1
1
1
1
1
1
1
1
1
1
1
1
1
1
1
1
1
1
1
1
1
1
1
1
1
1
1
1
1
1
1
1
1
1
1
1
1
1
1
1
1
1
1
1
1
1
1
1
1
1
1
1
1
1
1
1
1
1
1
1
1
1
1
1
1
1
1
1
1
1
1
1
1
1
1
1
1
1
1
1
1
1
1
1
1
1
1
1
1
1
1
1
1
1
1
1
1
1
1
1
1
1
1
1
1
1
1
1
1
1
1
1
1
1
1
1
1
1
1
1
1
1
1
1
1
1
1
1
1
1
1
1
1
1
1
1
1
1
1
1
1
1
1
1
1
1
1
1
1
1
1
1
1
1
1
1
1
1
1
1
1
1
1
1
1
1
1
1
1
1
1
1
1
1
1
1
1
1
1
1
1
1
1
1
1
1
1
1
1
1
1
1
1
1
1
1
1
1
1
1
1
1
1
1
1
1
1
1
1
1
1
1
1
1
1
1
1
1
1
1
1
1
1
1
1
1
1
1
1
1
1
1
1
1
1
1
1
1
1
1
1
1
1
1
1
1
1
1
1
1
1
1
1
1
1
1
1
1
1
1
1
1
1
1
1
1
1
1
1
1
1
1
1
1
1
1
1
1
1
1
1
1
1
1
1
1
1
1
1
1
1
1
1
1
1
1
1
1
1
1
1
1
1
1
1
1
1
1
1
1
1
1
1
1
1
1
1
1
1
1
1
1
1
1
1
1
1
1
1
1
1
1
1
1
1
1
1
1
1
1
1
1
1
1
1
1
1
1
1
1
1
1
1
1
1
1
1
1
1
1
1
1
1
1
1
1
1
1
1
1
1
1
1
1
1
1
1
1
1
1
1
1
1
1
1
1
1
1
1
1
1
1
1
1
1
1
1
1
1
1
1
1
1
1
1
1
1
1
1
1
1
1
1
1
1
1
1
1
1
1
1
1
1
1
1
1
1
1
1
1
1
1
1
1
1
1
1
1
1
1
1
1
1
1
1
1
1
1
1
1
1
1
1
1
1
1
1
1
1
1
1
1
1
1
1
1
1
1
1
1
1
1
1
1
1
1
1
1
1
1
1
1
1
1
1
1
1
1
1
1
1
1
1
1
1
1
1
1
1
1
1
1
1
1
1
1
1
1
1
1
1
1
1
1
1
1
1
1
1
1
1
1
1
1
1
1
1
1
1
1
1
1
1
1
1
1
1
1
1
1
1
1
1
1
1
1
1
1
1
1
1
1
1
1
1
1
1
1
1
1
1
1
1
1
1
1
1
1
1
1
1
1
1
1
1
1
1
1
1
1
1
1
1
1
1
1
1
1
1
1
1
1
1
1
1
1
1
1
1
1
1
1
1
1
1
1
1
1
1
1
1
1
1
1
1
1
1
1
1
1
1
1
1
1
1
1
1
1
1
1
1
1
1
1
1
1
1
1
1
1
1
1
1
1
1
1
1
1
1
1
1
1
1
1
1
1
1
1
1
1
1
1
1
1
1
1
1
1
1
1
1
1
1
1
1
1
1
1
1
1
1
1
1
1
1
1
1
1
1
1
1
1
1
1
1
1
1
1
1
1
1
1
1
1
1
1
1
1
1
1
1
1
1
1
1
1
1
1
1
1
1
1
1
1
1
1
1
1
1
1
1
1
1
1
1
1
1
1
1
1
1
1
1
1
1
1
1
1
1
1
1
1
1
1
1
1
1
1
1
1
1
1
1
1
1
1
1
1
1
1
1
1
1
1
1
1
1
1
1
1
1
1
1
1
1
1
1
1
1
1
1
1
1
1
1
1
1
1
1
1
1
1
1
1
1
1
1
1
1
1
1
1
1
1
1
1
1
1
1
1
1
1
1
1
1
1
1
1
1
1
1
1
1
1
1
1
1
1
1
1
1
1
1
1
1
1
1
1
1
1
1
1
1
1
1
1
1
1
1
1
1
1
1
1
1
1
1
1
1
1
1
1
1
1
1
1
1
1
1
1
1
1
1
1
1
1
1
1
1
1
1
1
1
1
1
1
1
1
1
1
1
1
1
1
1
1
1
1
1
1
1
1
1
1
1
1
1
1
1
1
1
1
1
1
1
1
1
1
1
1
1
1
1
1
1
1
1
1
1
1
1
1
1
1
1
1
1
1
1
1
1
1
1
1
1
1
1
1
1
1
1
1
1
1
1
1
1
1
1
1
1
1
1
1
1
1
1
1
1
1
1
1
1
1
1
1
1
1
1
1
1
1
1
1
1
1
1
1
1
1
1
1
1
1
1
1
1
1
1
1
1
1
1
1
1
1
1
1
1
1
1
1
1
1
1
1
1
1
1
1
1
1
1
1
1
1
1
1
1
1
1
1
1
1
1
1
1
1
1
1
1
1
1
1
1
1
1
1
1
1
1
1
1
1
1
1
1
1
1
1
1
1
1
1
1
1
1
1
1
1
1
1
1
1
1
1
1
1
1
1
1
1
1
1
1
1
1
1
1
1
1
1
1
1
1
1
1
1
1
1
1
1
1
1
1
1
1
1
1
1
1
1
1
1
1
1
1
1
1
1
1
1
1
1
1
1
1
1
1
1
1
1
1
1
1
1
1
1
1
1
1
1
1
1
1
1
1
1
1
1
1
1
1
1
1
1
1
1
1
1
1
1
1
1
1
1
1
1
1
1
1
1
1
1
1
1
1
1
1
1
1
1
1
1
1
1
1
1
1
1
1
1
1
1
1
1
1
1
1
1
1
1
1
1
1
1
1
1
1
1
1
1
1
1
1
1
1
1
1
1
1
1
1
1
1
1
1
1
1
1
1
1
1
1
1
1
1
1
1
1
1
1
1
1
1
1
1
1
1
1
1
1
1
1
1
1
1
1
1
1
1
1
1
1
1
1
1
1
1
1
1
1
1
1
1
1
1
1
1
1
1
1
1
1
1
1
1
1
1
1
1
1
1
1
1
1
1
1
1
1
1
1
1
1
1
1
1
1
1
1
1
1
1
1
1
1
1
1
1
1
1
1
1
1
1
1
1
1
1
1
1
1
1
1
1
1
1
1
1
1
1
1
1
1
1
1
1
1
1
1
1
1
1
1
1
1
1
1
1
1
1
1
1
1
1
1
1
1
1
1
1
1
1
1
1
1
1
1
1
1
1
1
1
1
1
1
1
1
1
1
1
1
1
1
1
1
1
1
1
1
1
1
1
1
1
1
1
1
1
1
1
1
1
1
1
1
1
1
1
1
1
1
1
1
1
1
1
1
1
1
1
1
1
1
1
1
1
1
1
1
1
1
1
1
1
1
1
1
1
1
1
1
1
1
1
1
1
1
1
1
1
1
1
1
1
1
1
1
1
1
1
1
1
1
1
1
1
1
1
1
1
1
1
1
1
1
1
1
1
1
1
1
1
1
1
1
1
1
1
1
1
1
1
1
1
1
1
1
1
1
1
1
1
1
1
1
1
1
1
1
1
1
1
1
1
1
1
1
1
1
1
1
1
1
1
1
1
1
1
1
1
1
1
1
1
1
1
1
1
1
1
1
1
1
1
1
1
1
1
1
1
1
1
1
1
1
1
1
1
1
1
1
1
1
1
1
1
1
1
1
1
1
1
1
1
1
1
1
1
1
1
1
1
1
1
1
1
1
1
1
1
1
1
1
1
1
1
1
1
1
1
1
1
1
1
1
1
1
1
1
1
1
1
1
1
1
1
1
1
1
1
1
1
1
1
1
1
1
1
1
1
1
1
1
1
1
1
1
1
1
1
1
1
1
1
1
1
1
1
1
1
1
1
1
1
1
1
1
1
1
1
1
1
1
1
1
1
1
1
1
1
1
1
1
1
1
1
1
1
1
1
1
1
1
1
1
1
1
1
1
1
1
1
1
1
1
1
1
1
1
1
1
1
1
1
1
1
1
1
1
1
1
1
1
1
1
1
1
1
1
1
1
1
1
1
1
1
1
1
1
1
1
1
1
1
1
1
1
1
1
1
1
1
1
1
1
1
1
1
1
1
1
1
1
1
1
1
1
1
1
1
1
1
1
1
1
1
1
1
1
1
1
1
1
1
1
1
1
1
1
1
1
1
1
1
1
1
1
1
1
1
1
1
1
1
1
1
1
1
1
1
1
1
1
1
1
1
1
1
1
1
1
1
1
1
1
1
1
1
1
1
1
1
1
1
1
1
1
1
1
1
1
1
1
1
1
1
1
1
1
1
1
1
1
1
1
1
1
1
1
1
1
1
1
1
1
1
1
1
1
1
1
1
1
1
1
1
1
1
1
1
1
1
1
1
1
1
1
1
1
1
1
1
1
1
1
1
1
1
1
1
1
1
1
1
1
1
1
1
1
1
1
1
1
1
1
1
1
1
1
1
1
1
1
1
1
1
1
1
1
1
1
1
1
1
1
1
1
1
1
1
1
1
1
1
1
1
1
1
1
1
1
1
1
1
1
1
1
1
1
1
1
1
1
1
1
1
1
1
1
1
1
1
1
1
1
1
1
1
1
1
1
1
1
1
1
1
1
1
1
1
1
1
1
1
1
1
1
1
1
1
1
1
1
1
1
1
1
1
1
1
1
1
1
1
1
1
1
1
1
1
1
1
1
1
1
1
1
1
1
1
1
1
1
1
1
1
1
1
1
1
1
1
1
1
1
1
1
1
1
1
1
1
1
1
1
1
1
1
1
1
1
1
1
1
1
1
1
1
1
1
1
1
1
1
1
1
1
1
1
1
1
1
1
1
1
1
1
1
1
1
1
1
1
1
1
1
1
1
1
1
1
1
1
1
1
1
1
1
1
1
1
1
1
1
1
1
1
1
1
1
1
1
1
1
1
1
1
1
1
1
1
1
1
1
1
1
1
1
1
1
1
1
1
1
1
1
1
1
1
1
1
1
1
1
1
1
1
1
1
1
1
1
1
1
1
1
1
1
1
1
1
1
1
1
1
1
1
1
1
1
1
1
1
1
1
1
1
1
1
1
1
1
1
1
1
1
1
1
1
1
1
1
1
1
1
1
1
1
1
1
1
1
1
1
1
1
1
1
1
1
1
1
1
1
1
1
1
1
1
1
1
1
1
1
1
1
1
1
1
1
1
1
1
1
1
1
1
1
1
1
1
1
1
1
1
1
1
1
1
1
1
1
1
1
1
1
1
1
1
1
1
1
1
1
1
1
1
1
1
1
1
1
1
1
1
1
1
1
1
1
1
1
1
1
1
1
1
1
1
1
1
1
1
1
1
1
1
1
1
1
1
1
1
1
1
1
1
1
1
1
1
1
1
1
1
1
1
1
1
1
1
1
1
1
1
1
1
1
1
1
1
1
1
1
1
1
1
1
1
1
1
1
1
1
1
1
1
1
1
1
1
1
1
1
1
1
1
1
1
1
1
1
1
1
1
1
1
1
1
1
1
1
1
1
1
1
1
1
1
1
1
1
1
1
1
1
1
1
1
1
1
1
1
1
1
1
1
1
1
1
1
1
1
1
1
1
1
1
1
1
1
1
1
1
1
1
1
1
1
1
1
1
1
1
1
1
1
1
1
1
1
1
1
1
1
1
1
1
1
1
1
1
1
1
1
1
1
1
1
1
1
1
1
1
1
1
1
1
1
1
1
1
1
1
1
1
1
1
1
1
1
1
1
1
1
1
1
1
1
1
1
1
1
1
1
1
1
1
1
1
1
1
1
1
1
1
1
1
1
1
1
1
1
1
1
1
1
1
1
1
1
1
1
1
1
0.999987
1
1
1
1
1
1
1
1
1
1
1
1
1
1
1
1
1
1
0.999986
0.999961
0.999999
1
1
1
1
1
1
1
1
1
1
1
1
1
1
1
1
0.999999
0.99996
0.999993
1
1
1
1
1
1
1
1
1
1
1
1
1
1
1
1
1
1
0.999994
1
0.99999
1
1
1
1
1
1
1
1
1
1
1
1
1
1
1
1
0.999986
1
0.999999
0.999977
1
1
1
1
1
1
1
1
1
1
1
1
1
1
1
1
0.999972
1
1
0.999977
1
1
1
1
1
1
1
1
1
1
1
1
1
1
1
1
0.999972
0.999992
0.999963
0.999985
1
1
1
1
1
1
1
1
1
1
1
1
1
1
1
1
0.999984
0.999968
0.999855
0.999982
0.999992
1
1
1
1
1
1
1
1
1
1
1
1
1
1
0.999984
0.999997
0.999995
0.999979
0.999978
0.999973
1
1
1
1
1
1
1
1
1
1
1
1
1
1
0.999972
0.999997
0.999997
1
0.999994
0.999973
1
1
1
1
1
1
1
1
1
1
1
1
1
1
0.999972
0.999988
0.999986
1
1
0.999974
0.999991
1
1
1
1
1
1
1
1
1
1
1
1
0.999998
0.999972
0.999982
0.999996
1
0.999965
0.999995
0.999986
0.999999
1
1
1
1
1
1
1
1
1
1
1
0.999971
0.999985
0.999996
1
0.999998
0.999933
0.999995
0.999988
0.999997
1
1
1
1
1
1
1
1
1
1
1
0.999969
1
1
1
0.999998
0.999933
0.999978
0.999998
0.999998
1
1
1
1
1
1
1
1
1
1
0.999982
0.999969
1
1
1
0.999998
0.99995
0.999946
0.999959
1
1
1
1
1
1
1
1
1
1
0.999998
0.999973
0.999993
1
1
1
0.999999
0.999994
0.999947
0.999947
0.999956
0.999995
1
1
1
1
1
1
1
1
0.999977
0.999974
1
1
1
0.999999
1
0.999997
0.999997
0.999987
0.999978
0.999978
0.999998
1
1
1
1
1
1
0.999993
0.999977
0.999994
1
0.999995
0.999995
1
1
0.999965
0.999967
0.999982
0.99999
0.999987
0.999988
0.999999
1
1
1
1
0.999999
0.999986
0.999986
0.999991
0.99993
0.999856
0.999901
1
1
0.99999
0.999824
0.999791
0.999907
0.999995
0.999995
0.999998
1
1
1
1
0.999997
0.999991
0.99999
0.9999
0.999815
0.999815
0.999955
1
0.999993
0.999979
0.999943
0.999791
0.999791
0.999872
0.999999
0.999999
1
1
1
1
0.999997
0.999997
0.999953
0.999818
0.999822
0.999959
0.999971
0.999991
0.999991
0.999975
0.99998
0.999935
0.999792
0.999792
0.999862
0.999995
1
1
1
1
1
0.999986
0.999846
0.999842
0.999985
0.999987
0.999991
0.999991
0.999997
1
1
1
0.999976
0.999834
0.999833
0.99998
1
1
1
1
1
0.999936
0.999879
1
1
1
1
0.999997
1
1
1
1
1
1
0.999854
0.999849
0.999991
1
1
1
0.999988
0.999942
0.999998
1
0.999999
1
1
1
1
0.999993
0.999991
0.999997
1
1
0.999981
0.999849
0.999957
1
1
0.999998
0.999988
0.999989
1
1
0.999997
0.999988
0.999989
1
1
0.999952
0.999971
0.999999
1
1
1
0.999955
0.999955
0.999997
1
0.999997
0.999991
1
1
1
0.999999
0.999972
0.999949
1
0.999998
0.999951
0.999989
1
1
1
1
1
0.999969
0.999994
1
0.999997
0.999999
1
1
1
1
0.999992
0.999949
0.999998
0.999997
0.999951
0.999999
1
1
1
1
1
0.999995
0.999994
0.999999
0.999998
1
1
1
1
1
1
0.999951
0.999996
0.999998
0.999991
0.999995
1
1
1
1
1
1
0.999994
0.999999
0.999999
1
1
1
1
1
0.999994
0.999994
0.999998
1
0.99999
0.999942
1
1
1
1
1
1
0.999998
0.999998
1
1
1
1
1
1
0.999938
0.999987
1
0.999995
0.999914
0.999931
1
1
1
1
1
1
1
0.999999
1
1
1
1
1
1
0.999931
0.999906
0.999994
0.999977
0.999909
0.999981
1
1
1
1
1
1
1
1
1
1
1
1
1
1
0.999983
0.999906
0.999976
0.999992
0.99999
1
1
1
1
1
1
1
1
1
1
1
1
1
1
1
1
0.99999
0.999992
1
1
1
0.98464
0.92883
0.845799
0.719272
0.590491
0.475147
0.414119
0.41508
0.478891
0.595669
0.726346
0.851578
0.931363
0.984548
1
1
1
1
1
0.900015
0.711237
0.456604
0.238014
0.0873357
0.0188949
8.16214e-23
9.71949e-26
9.60982e-26
-5.85853e-22
0.0196135
0.0894758
0.244458
0.468267
0.721853
0.902163
1
1
1
0.808568
0.440832
0.171392
0.0421548
2.52447e-20
-2.08257e-20
-3.88901e-31
1.41255e-27
1.23796e-08
2.90898e-07
1.81506e-07
2.66537e-20
3.09346e-20
1.39051e-19
0.0435393
0.179368
0.457094
0.813911
1
0.7524
0.22158
0.0655036
8.74813e-19
4.24252e-19
1.003e-12
1.11684e-12
5.20791e-13
5.93593e-27
1.67455e-08
4.6534e-07
4.6534e-07
2.31069e-07
1.97234e-11
2.49647e-13
8.74751e-19
1.19936e-19
0.0682704
0.237751
0.762148
0.154915
-7.10588e-20
-6.05905e-19
1.5655e-13
4.6575e-13
9.79218e-13
1.74725e-12
2.03635e-12
8.4183e-28
5.78427e-09
4.6507e-07
8.46824e-08
1.36847e-11
1.38213e-11
3.36451e-12
2.03138e-13
4.28396e-14
1.06806e-18
1.0671e-21
0.168815
-2.29293e-19
-9.5438e-20
-4.26441e-21
4.37195e-17
3.76722e-15
8.05888e-14
8.27809e-13
2.73049e-12
4.42451e-28
1.29176e-09
1.03876e-07
2.58375e-08
1.71157e-09
1.87609e-11
6.239e-14
1.67733e-14
9.59816e-15
-8.98007e-36
-1.5686e-19
-4.93334e-19
-1.06827e-19
-3.25035e-20
-1.68139e-20
6.18541e-36
-8.7617e-21
-1.31114e-20
6.73724e-14
2.82862e-12
7.16364e-12
2.95424e-10
4.90088e-08
4.8755e-07
4.82963e-09
1.06267e-17
1.06375e-17
1.60686e-16
4.42354e-16
-3.14984e-20
-4.39839e-20
-1.74389e-19
-4.14083e-20
-1.53235e-20
-2.2438e-20
-1.6707e-20
-1.98342e-20
-1.29702e-20
4.21103e-14
2.13641e-12
2.14466e-12
8.3628e-10
5.2761e-07
6.15714e-07
2.83069e-14
2.82185e-14
7.19492e-18
3.21757e-18
7.62394e-18
-2.50068e-20
-1.83412e-20
-5.62665e-20
-1.66568e-20
-2.14295e-20
-2.64652e-20
-2.60578e-20
-3.20319e-20
9.64835e-36
7.40241e-14
2.61468e-12
2.15297e-12
1.26147e-09
6.15915e-07
6.15358e-07
2.83961e-14
6.13727e-14
1.84996e-16
3.22534e-21
1.68415e-20
-2.10249e-20
-1.39641e-20
-1.84481e-20
-3.70937e-20
-4.21496e-20
-3.88604e-20
-3.94138e-20
-4.50586e-20
5.46316e-18
1.87538e-13
4.20783e-12
3.93241e-12
3.47097e-10
4.62559e-07
6.13776e-07
2.84863e-14
1.88933e-13
3.28338e-15
-1.17987e-20
-9.67385e-21
-1.93333e-20
-1.45252e-20
-1.50833e-20
-6.59965e-20
-6.44693e-20
-5.59612e-20
-5.47658e-20
-5.8192e-20
2.23225e-15
6.9538e-13
6.0868e-12
5.02104e-11
8.85261e-11
8.89098e-08
3.92556e-07
2.85775e-14
4.20571e-13
5.46537e-14
-2.1533e-20
-1.94049e-20
-2.13052e-20
-1.84411e-20
-2.13172e-20
-7.03109e-20
-7.36808e-20
9.13836e-18
5.13191e-17
4.90503e-16
8.13402e-14
2.61482e-12
8.1034e-12
9.36737e-11
9.15879e-11
6.49689e-08
1.277e-07
2.86697e-14
6.31372e-13
5.27549e-13
4.50012e-37
3.677e-19
-2.53721e-21
-2.58939e-20
-2.81683e-20
-1.46822e-20
-3.25986e-20
2.24827e-16
1.07076e-15
3.53732e-14
1.48882e-12
5.67813e-12
8.07853e-12
2.93943e-10
1.67452e-10
1.78376e-08
6.74336e-08
3.24772e-08
1.68667e-13
1.01632e-12
9.56885e-15
9.51549e-17
5.88266e-17
-2.67473e-20
-1.76198e-20
0.000189906
6.94052e-06
2.88674e-26
1.0748e-14
4.2113e-13
4.95448e-12
4.97963e-12
5.00488e-12
1.77677e-09
2.45457e-10
1.82779e-11
8.06133e-08
2.81489e-07
1.59449e-13
4.11717e-12
1.73366e-12
9.83564e-16
5.96046e-17
2.49551e-06
7.11854e-05
0.000177589
1.54764e-06
-1.18441e-25
1.10712e-31
1.07944e-31
7.10188e-31
2.36097e-08
2.82372e-08
5.12308e-09
1.82779e-11
1.82258e-11
8.15086e-08
2.81218e-07
9.07653e-12
2.49211e-12
2.48151e-12
1.07646e-16
6.03928e-17
1.07642e-05
8.05574e-05
3.58815e-05
3.49862e-06
3.2057e-07
1.13261e-08
2.15833e-08
1.8238e-07
2.15927e-07
1.08391e-07
4.419e-11
1.82258e-11
1.96648e-09
8.15611e-27
4.20002e-08
1.43235e-07
4.16714e-08
8.16052e-17
8.05479e-17
2.21395e-06
9.34566e-06
1.3785e-05
-9.0878e-25
9.80195e-07
6.13602e-07
3.87505e-07
1.86159e-07
2.02674e-07
2.1594e-07
7.26056e-08
3.95593e-11
1.00086e-10
4.35642e-09
-7.68035e-33
4.27428e-30
3.01399e-11
5.36749e-08
3.45494e-07
9.64074e-07
1.25168e-06
4.59998e-07
1.58321e-25
1.41443e-09
1.11939e-12
4.94271e-08
7.05572e-08
3.50938e-08
2.68717e-08
5.4298e-09
3.20099e-09
2.32381e-09
6.67288e-09
5.53538e-09
-3.23274e-30
-1.80066e-32
-8.65508e-27
3.67273e-08
1.08217e-07
1.32827e-07
2.17738e-09
1.8701e-12
1.74502e-09
2.10933e-09
1.11939e-12
1.11939e-12
1.11939e-12
1.11939e-12
1.11939e-12
1.11939e-12
1.11939e-12
1.11939e-12
1.73177e-08
6.1979e-09
4.14838e-29
4.20661e-12
4.70876e-12
2.42247e-11
1.8701e-12
1.86881e-12
1.8701e-12
1.86881e-12
2.13776e-09
6.97816e-10
5.0948e-12
5.49315e-12
4.48552e-12
4.03805e-12
3.55687e-12
3.95623e-12
7.31309e-12
1.11939e-12
2.1605e-08
6.75695e-09
8.23167e-10
3.67387e-10
2.705e-11
5.55714e-12
5.19318e-12
5.524e-12
6.4677e-12
8.98329e-12
7.13587e-10
3.68706e-11
1.32984e-11
8.8071e-12
8.8527e-12
1.12453e-11
1.12521e-11
8.87213e-12
3.63645e-12
1.11939e-12
2.16198e-08
6.77783e-09
2.55025e-09
2.5289e-09
2.86609e-10
5.55817e-12
1.18961e-11
9.00944e-12
8.75081e-12
1.54549e-11
4.82847e-11
2.75513e-13
6.37707e-12
8.23733e-12
9.36052e-12
2.11461e-11
1.91318e-11
9.53338e-12
3.63506e-12
4.56596e-09
2.4584e-08
5.42714e-09
2.82559e-09
3.76413e-09
1.23905e-09
5.5592e-12
1.69855e-11
8.92245e-12
8.15873e-12
7.67325e-12
5.3094e-13
2.70756e-16
7.99037e-13
6.40157e-12
8.61473e-12
2.67499e-11
2.14386e-11
7.11673e-12
4.70239e-09
2.49199e-08
2.45838e-08
2.89701e-09
2.10807e-09
3.76425e-09
1.61512e-09
7.04892e-11
1.81617e-11
7.40399e-12
6.24505e-12
1.25693e-12
7.55242e-16
5.91776e-19
2.19902e-14
4.00584e-12
6.48647e-12
2.76037e-11
2.54213e-11
7.11678e-12
1.64262e-08
2.53676e-08
1.24294e-08
5.70124e-10
9.35512e-10
2.50403e-09
9.65936e-10
1.3074e-10
1.83045e-11
4.61057e-12
3.66685e-12
6.04749e-14
5.88761e-19
3.35085e-19
4.96837e-16
1.55686e-12
3.33923e-12
2.58706e-11
4.06448e-11
7.11673e-12
1.02166e-08
2.53676e-08
2.69954e-09
1.40005e-11
1.80345e-10
4.82306e-10
2.0609e-10
1.22329e-10
1.38489e-11
2.23296e-12
1.32842e-12
1.55496e-15
4.30028e-19
3.42877e-19
2.73812e-16
2.64784e-13
1.33305e-12
1.97019e-11
5.6631e-11
1.68478e-10
1.00773e-09
2.00349e-08
8.53884e-10
8.86601e-12
1.85075e-11
1.60018e-11
1.37157e-11
5.57781e-11
5.76998e-12
9.41409e-13
2.20816e-13
3.18871e-16
4.63222e-19
4.24328e-19
2.49495e-16
1.32727e-14
4.04976e-13
1.00514e-11
5.94353e-11
2.27528e-10
1.04837e-11
2.24226e-09
9.88612e-11
8.86595e-12
7.61749e-12
6.59715e-12
5.10173e-12
1.02894e-11
1.55682e-12
3.18642e-13
1.18254e-14
2.57284e-16
6.02823e-19
4.68292e-19
2.24716e-16
1.42613e-16
7.4059e-14
2.70402e-12
4.97233e-11
1.80492e-10
1.04876e-11
4.41e-12
8.49549e-12
8.86993e-12
7.10063e-12
6.71842e-12
4.98921e-12
2.97861e-12
6.33393e-13
6.37477e-14
1.7025e-16
2.27746e-16
8.50761e-19
2.79123e-19
1.67687e-16
6.58929e-18
5.56088e-15
3.46801e-13
2.82332e-11
6.42012e-11
6.75488e-12
4.41001e-12
7.13567e-12
8.6759e-12
6.83924e-12
6.74472e-12
4.91628e-12
2.41e-12
3.45132e-13
5.28521e-15
7.41675e-18
1.72135e-16
4.90114e-19
9.07609e-20
8.21265e-17
5.24363e-18
1.21531e-16
3.05103e-14
8.33751e-12
9.01055e-12
4.70907e-12
4.51073e-12
7.02012e-12
8.16739e-12
6.44411e-12
6.61096e-12
4.68508e-12
2.04958e-12
1.51063e-13
1.93003e-16
5.8352e-18
8.77573e-17
1.68681e-19
1.33414e-20
1.90109e-17
4.59061e-18
7.08602e-18
4.75184e-15
1.374e-12
3.24764e-12
4.34918e-12
4.82582e-12
6.86629e-12
7.18292e-12
5.73819e-12
6.09752e-12
4.1176e-12
1.48302e-12
3.68871e-14
1.62647e-17
5.22754e-18
2.18889e-17
2.79824e-20
2.39839e-22
1.38136e-18
3.71148e-18
4.99224e-18
1.34539e-15
4.05769e-13
2.8011e-12
4.25949e-12
5.00461e-12
6.46419e-12
5.6781e-12
4.63081e-12
5.05206e-12
3.12704e-12
7.58422e-13
4.15168e-15
8.79014e-18
4.34319e-18
1.78636e-18
6.35088e-22
1.26874e-25
2.27219e-20
2.42719e-18
3.87688e-18
3.89266e-16
2.13776e-13
2.409e-12
4.0926e-12
4.95072e-12
5.61116e-12
3.81339e-12
3.22034e-12
3.56703e-12
1.86368e-12
2.14728e-13
3.42254e-16
6.96383e-18
2.96311e-18
3.4117e-20
3.32867e-25
5.5566e-29
5.29714e-22
1.07469e-18
2.41819e-18
1.00024e-16
9.79679e-14
1.75114e-12
3.64738e-12
4.60271e-12
4.22915e-12
2.01467e-12
1.80984e-12
1.98712e-12
7.43725e-13
2.46593e-14
8.87895e-17
4.53458e-18
1.40431e-18
8.96454e-22
1.47503e-28
2.84363e-30
4.25263e-23
2.46783e-19
9.18668e-19
3.10765e-17
2.48591e-14
9.10681e-13
2.76976e-12
3.71661e-12
2.53468e-12
7.80416e-13
7.76179e-13
7.69891e-13
1.54369e-13
9.87062e-16
4.81437e-17
1.86506e-18
3.5793e-19
8.54499e-23
8.24276e-30
7.22634e-32
1.5285e-24
2.04383e-20
1.49522e-19
1.16795e-17
2.27701e-15
2.68173e-13
1.57876e-12
2.33927e-12
1.06035e-12
2.45843e-13
2.68904e-13
1.76385e-13
1.21092e-14
9.85281e-17
2.00358e-17
3.50002e-19
3.43584e-20
3.23839e-24
2.25493e-31
4.11439e-34
1.24406e-26
4.05975e-22
6.9559e-21
3.44607e-18
7.34347e-17
3.2178e-14
5.52115e-13
9.73608e-13
2.71178e-13
1.02515e-13
1.05837e-13
2.61481e-14
4.77048e-16
5.21444e-17
3.96456e-18
1.92043e-20
8.25053e-22
2.70031e-26
1.36817e-33
3.24881e-37
1.44053e-29
1.31701e-24
6.35943e-23
4.95302e-19
1.35979e-17
1.12712e-15
8.88807e-14
2.14016e-13
5.33803e-14
6.58988e-14
6.02473e-14
7.65258e-15
1.45832e-16
2.80955e-17
2.42631e-19
2.02261e-22
3.34945e-24
3.2636e-29
1.17259e-36
2.34277e-41
1.48658e-33
5.04411e-28
1.51633e-25
2.21637e-20
7.30702e-18
5.03764e-17
6.13359e-15
2.56807e-14
2.12032e-14
4.74375e-14
4.04586e-14
4.93094e-15
9.66104e-17
9.35605e-18
3.63661e-21
3.0486e-25
1.64375e-27
3.8781e-33
9.56184e-41
5.72245e-61
1.92913e-37
1.01976e-30
3.62453e-26
2.70398e-22
3.21897e-18
2.90083e-17
1.38429e-15
7.52168e-15
1.42583e-14
3.09699e-14
2.58738e-14
3.46315e-15
5.66897e-17
1.25324e-18
2.60385e-23
9.7247e-27
1.09803e-31
8.81003e-38
-8.48132e-42
-2.64749e-42
5.2321e-38
7.64547e-31
2.00677e-26
3.05899e-24
7.02718e-19
2.02625e-17
1.02035e-15
5.40907e-15
9.65549e-15
1.53023e-14
1.33087e-14
2.02478e-15
2.08284e-17
4.31436e-20
1.08476e-24
5.53272e-27
1.17999e-32
5.73348e-40
-8.45192e-42
-1.78102e-42
1.51032e-38
4.81445e-31
7.84849e-27
3.85714e-26
4.73768e-20
1.07884e-17
7.6686e-16
4.03886e-15
5.11268e-15
4.49018e-15
4.46709e-15
7.77887e-16
3.31262e-18
2.53669e-22
3.60455e-25
2.8233e-27
5.35627e-33
1.54969e-40
-4.11576e-42
-8.51575e-43
1.29244e-39
7.10785e-32
1.30661e-27
4.37495e-27
6.25402e-22
3.10297e-18
4.47127e-16
2.41553e-15
1.62028e-15
5.59288e-16
7.2745e-16
1.43818e-16
1.54725e-19
3.58054e-25
7.88016e-26
7.73655e-28
1.26673e-33
2.36204e-41
-1.74976e-42
-3.41556e-43
1.36047e-41
1.23865e-33
5.71861e-29
7.05333e-28
1.17827e-24
3.24144e-19
1.5333e-16
8.97052e-16
2.16792e-16
2.02939e-17
3.96551e-17
8.68675e-18
2.42706e-21
4.80046e-26
5.6802e-27
7.04979e-29
1.01844e-34
-1.32262e-43
-6.81988e-43
-1.27065e-43
-8.20369e-41
1.75436e-36
4.18751e-31
4.72804e-29
1.87171e-26
8.22449e-21
2.16048e-17
1.47761e-16
8.24821e-18
4.30482e-19
5.58241e-19
1.17986e-19
4.43325e-22
1.91564e-26
7.98078e-29
1.35367e-30
1.82322e-36
-3.43503e-40
-2.48531e-43
-4.48981e-44
-1.18903e-40
1.41287e-40
3.49951e-34
6.84168e-31
6.38325e-27
8.20834e-23
8.23771e-19
7.20692e-18
1.31714e-19
1.84744e-19
3.41338e-20
2.23567e-21
2.55646e-22
7.4479e-27
1.41577e-31
3.61321e-33
4.90041e-39
-3.18109e-40
-8.47266e-44
-1.52883e-44
-9.38186e-41
-6.86399e-62
2.52769e-38
1.37802e-33
1.88151e-27
2.00127e-23
6.36447e-21
8.2557e-20
4.58399e-20
1.28488e-19
1.8308e-20
1.08857e-21
1.1831e-22
1.22453e-27
3.93335e-35
9.51044e-37
9.04605e-43
-2.2655e-40
-2.73508e-44
-5.10741e-45
-6.40851e-41
-5.70214e-42
9.75918e-43
5.45575e-36
2.48245e-28
9.50498e-24
3.67823e-22
7.74543e-21
3.15322e-20
7.26022e-20
9.82742e-21
6.18703e-22
2.7169e-23
5.45429e-29
3.83973e-37
4.13489e-41
-1.28872e-41
-1.47637e-40
-8.4612e-45
-1.70228e-45
-4.02663e-41
-8.1555e-42
-5.12921e-42
1.24918e-37
9.6133e-30
2.99751e-24
1.98301e-22
4.70432e-21
1.78842e-20
2.34232e-20
3.22045e-21
2.29694e-22
1.95127e-24
4.13488e-31
1.5925e-39
-8.25951e-42
-2.11877e-41
-9.00928e-41
-2.54237e-45
-5.74295e-46
-2.37106e-41
-9.26996e-42
-1.54259e-41
1.40835e-39
8.66323e-32
3.637e-25
9.65975e-23
2.61627e-21
5.77294e-21
2.89446e-21
4.16781e-22
3.56937e-23
2.78293e-26
8.20405e-34
6.26649e-42
-2.88414e-41
-2.43482e-41
-5.18947e-41
-7.54674e-46
-1.97258e-46
-1.31922e-41
-9.40596e-42
-2.42132e-41
9.74704e-40
3.02891e-34
1.03618e-26
2.49547e-23
8.44312e-22
7.05804e-22
8.83381e-23
1.355e-23
1.46598e-24
5.37169e-29
3.401e-34
2.68325e-40
-4.75667e-41
-2.43346e-41
-2.83499e-41
-2.25986e-46
-6.844e-47
-6.96984e-42
-8.79457e-42
-3.23042e-41
2.63469e-39
8.96302e-35
4.53725e-29
2.12166e-24
1.02181e-22
2.09919e-23
4.39825e-25
7.2342e-26
1.02722e-26
1.50447e-32
2.57368e-34
1.85093e-39
-6.4792e-41
-2.23359e-41
-1.47425e-41
-7.0046e-47
-2.35992e-47
-3.50965e-42
-7.69063e-42
-3.92199e-41
4.328e-39
6.75115e-35
2.73591e-32
3.72401e-26
2.94097e-24
1.00013e-25
7.49018e-28
4.44795e-29
8.46002e-30
6.26364e-36
1.638e-34
2.0278e-39
-7.9143e-41
-1.9191e-41
-7.32036e-42
-2.27807e-47
-8.02308e-48
-1.68956e-42
-6.34608e-42
-4.4286e-41
4.50238e-39
4.45018e-35
7.22876e-36
8.92552e-29
1.31708e-26
9.65252e-29
2.14893e-28
4.86009e-32
8.71029e-34
1.56035e-37
7.46542e-35
9.02209e-40
-8.92409e-41
-1.55817e-41
-3.48043e-42
-7.71046e-48
-2.69991e-48
-7.79689e-43
-4.97168e-42
-4.69815e-41
2.51555e-39
2.04045e-35
3.77507e-39
2.09201e-32
6.52503e-30
1.67941e-29
1.01485e-28
1.12123e-32
4.71025e-35
1.24911e-38
2.16714e-35
9.70309e-41
-9.42323e-41
-1.20278e-41
-1.58836e-42
-2.6829e-48
-9.01565e-49
-3.45743e-43
-3.7149e-42
-4.71356e-41
5.41014e-40
5.25736e-36
2.04046e-40
2.64548e-35
2.74026e-32
7.36814e-30
2.9654e-29
2.57749e-33
9.95115e-36
4.71632e-40
3.32574e-36
-6.03814e-41
-9.40119e-41
-8.86612e-42
-6.97371e-43
-9.45807e-49
-3.01479e-49
-1.47648e-43
-2.65716e-42
-4.49685e-41
2.39173e-41
5.75456e-37
1.03895e-41
4.63145e-36
8.31359e-33
2.07836e-30
3.11165e-30
2.44718e-34
1.17378e-36
8.54935e-42
2.00338e-37
-1.33577e-40
-8.91732e-41
-6.26309e-42
-2.95179e-43
-3.34156e-49
-1.0059e-49
-6.08463e-44
-1.82484e-42
-4.09836e-41
-2.20526e-41
1.89361e-38
1.35617e-43
7.04512e-37
2.17763e-33
2.09675e-31
7.13632e-32
5.21234e-36
3.73472e-38
8.99264e-44
3.27942e-39
-1.67452e-40
-8.07991e-41
-4.25223e-42
-1.20687e-43
-1.18152e-49
-3.2968e-50
-2.42435e-44
-1.20639e-42
-3.58106e-41
-5.27495e-41
1.25061e-40
-2.55791e-45
3.74661e-38
2.25592e-34
4.55552e-33
2.30907e-34
1.54809e-38
1.89089e-40
-2.37742e-43
8.40231e-42
-1.83987e-40
-7.0198e-41
-2.78166e-42
-4.77514e-44
-4.16655e-50
-1.05991e-50
-9.35593e-45
-7.69468e-43
-3.00872e-41
-7.22431e-41
-2.0888e-44
-5.45304e-43
3.8927e-40
5.22523e-36
1.37208e-35
7.36612e-38
4.34569e-42
8.97832e-44
-9.46738e-43
-6.71645e-42
-1.90513e-40
-5.8657e-41
-1.75715e-42
-1.83155e-44
-1.46133e-50
-3.28427e-51
-3.50306e-45
-4.74484e-43
-2.43673e-41
-8.19964e-41
-7.20707e-42
-1.08125e-42
4.71238e-43
1.6943e-38
3.99952e-39
3.49208e-42
-1.14861e-46
-1.10077e-43
-2.04951e-42
-2.01622e-41
-1.88986e-40
-4.72627e-41
-1.07397e-42
-6.82147e-45
-5.01027e-51
-9.81221e-52
-1.27461e-45
-2.83391e-43
-1.90655e-41
-8.41269e-41
-1.45839e-41
-1.75149e-42
-4.24779e-44
5.27225e-42
1.7959e-43
-3.90311e-47
-2.76746e-44
-2.98896e-43
-3.48593e-42
-3.33289e-41
-1.80469e-40
-3.68044e-41
-6.36264e-43
-2.47096e-45
-1.66265e-51
-2.86096e-52
-4.51387e-46
-1.64221e-43
-1.444e-41
-8.07524e-41
-2.09557e-41
-2.56222e-42
-2.17772e-43
-1.69179e-46
-9.90007e-47
-1.57576e-44
-6.22e-44
-5.28371e-43
-5.19021e-42
-4.50129e-41
-1.66319e-40
-2.77544e-41
-3.65987e-43
-8.71885e-46
-5.33203e-52
-8.37011e-53
-1.5582e-46
-9.24781e-44
-1.0606e-41
-7.3744e-41
-2.60675e-41
-3.48811e-42
-3.86263e-43
-3.78806e-44
-1.43338e-44
-3.47225e-44
-1.07641e-43
-8.16157e-43
-7.08687e-42
-5.44163e-41
-1.48222e-40
-2.0305e-41
-2.04714e-43
-3.00144e-46
-1.67509e-52
-2.47563e-53
-5.25097e-47
-5.06835e-44
-7.56709e-42
-6.46616e-41
-2.97308e-41
-4.48081e-42
-5.78421e-43
-7.85044e-44
-2.74045e-44
-5.77298e-44
-1.69136e-43
-1.1714e-42
-9.07754e-42
-6.10535e-41
-1.27966e-40
-1.44355e-41
-1.11509e-43
-1.00959e-46
-5.11518e-53
-7.28898e-54
-1.72997e-47
-2.7072e-44
-5.25266e-42
-5.47424e-41
-3.18594e-41
-5.47563e-42
-7.99126e-43
-1.24009e-43
-4.25435e-44
-8.6511e-44
-2.49585e-43
-1.59134e-42
-1.10389e-41
-6.47048e-41
-1.07203e-40
-9.98826e-42
-5.92305e-44
-3.32328e-47
-1.51122e-53
-2.0972e-54
-5.58038e-48
-1.41115e-44
-3.55254e-42
-4.49097e-41
-3.24867e-41
-6.39956e-42
-1.04445e-42
-1.77761e-43
-6.06543e-44
-1.2156e-43
-3.49638e-43
-2.06156e-42
-1.28326e-41
-6.54202e-41
-8.72806e-41
-6.73597e-42
-3.0719e-44
-1.07221e-47
-4.36911e-54
-6.07935e-55
-1.76516e-48
-7.18746e-45
-2.34426e-42
-3.57954e-41
-3.17578e-41
-7.18083e-42
-1.30365e-42
-2.40206e-43
-8.17109e-44
-1.62324e-43
-4.67461e-43
-2.55756e-42
-1.43234e-41
-6.34956e-41
-6.91608e-41
-4.43352e-42
-1.55747e-44
-3.39628e-48
-1.25781e-54
-1.80921e-55
-5.48395e-49
-3.58131e-45
-1.51127e-42
-2.77753e-41
-2.99074e-41
-7.75868e-42
-1.56123e-42
-3.0969e-43
-1.05099e-43
-2.0734e-43
-5.98629e-43
-3.04765e-42
-1.53982e-41
-5.94152e-41
-5.34107e-41
-2.85159e-42
-7.72836e-45
-1.05805e-48
-3.64788e-55
-5.70037e-56
-1.6766e-49
-1.74769e-45
-9.52982e-43
-2.10162e-41
-2.72261e-41
-8.09145e-42
-1.79938e-42
-3.82978e-43
-1.29732e-43
-2.54356e-43
-7.36354e-43
-3.49688e-42
-1.59821e-41
-5.3772e-41
-4.02518e-41
-1.79447e-42
-3.75734e-45
-3.24836e-49
-1.091e-55
-1.84377e-56
-5.0563e-50
-8.3622e-46
-5.88481e-43
-1.5529e-41
-2.40223e-41
-8.16145e-42
-2.00049e-42
-4.55725e-43
-1.54182e-43
-3.0056e-43
-8.72113e-43
-3.87163e-42
-1.60476e-41
-4.71855e-41
-2.96392e-41
-1.10608e-42
-1.79164e-45
-9.8506e-50
-3.29757e-56
-5.93188e-57
-1.50826e-50
-3.92693e-46
-3.56255e-43
-1.12199e-41
-2.05871e-41
-7.97593e-42
-2.14964e-42
-5.23047e-43
-1.76855e-43
-3.4289e-43
-9.96618e-43
-4.14401e-42
-1.56158e-41
-4.02305e-41
-2.13492e-41
-6.68495e-43
-8.38726e-46
-2.95774e-50
-9.85343e-57
-1.88092e-57
-4.46454e-51
-1.81168e-46
-2.11648e-43
-7.93622e-42
-1.71677e-41
-7.56413e-42
-2.23647e-42
-5.80154e-43
-1.96186e-43
-3.78403e-43
-1.10094e-42
-4.29537e-42
-1.47495e-41
-3.33866e-41
-1.50596e-41
-3.9656e-43
-3.85829e-46
-8.81817e-51
-2.98123e-57
-5.60214e-58
-1.31491e-51
-8.21871e-47
-1.23513e-43
-5.50173e-42
-1.39527e-41
-6.97164e-42
-2.25639e-42
-6.22963e-43
-2.10829e-43
-4.04638e-43
-1.17764e-42
-4.31823e-42
-1.35419e-41
-2.70109e-41
-1.04142e-41
-2.31114e-43
-1.74564e-46
-2.61964e-51
-8.9951e-58
-1.56814e-58
-3.86582e-52
-3.66946e-47
-7.08668e-44
-3.74198e-42
-1.10676e-41
-6.25312e-42
-2.21077e-42
-6.48597e-43
-2.19824e-43
-4.19905e-43
-1.22164e-42
-4.21656e-42
-1.2102e-41
-2.13343e-41
-7.06742e-42
-1.32443e-43
-7.77418e-47
-7.77759e-52
-2.63848e-58
-4.33785e-59
-1.14121e-52
-1.6138e-47
-4.00102e-44
-2.49949e-42
-8.57972e-42
-5.46508e-42
-2.10637e-42
-6.55699e-43
-2.22694e-43
-4.23457e-43
-1.23074e-42
-4.0044e-42
-1.05403e-41
-1.64722e-41
-4.71119e-42
-7.46914e-44
-3.41061e-47
-2.31378e-52
-7.44385e-59
-1.23064e-59
-3.40811e-53
-6.99685e-48
-2.2245e-44
-1.64117e-42
-6.50795e-42
-4.65966e-42
-1.95403e-42
-6.44502e-43
-2.19478e-43
-4.15524e-43
-1.20575e-42
-3.70327e-42
-8.95744e-42
-1.24478e-41
-3.08769e-42
-4.14841e-44
-1.47506e-47
-6.92233e-53
-2.06923e-59
-3.64055e-60
-1.03556e-53
-2.9928e-48
-1.21881e-44
-1.0602e-42
-4.83577e-42
-3.8803e-42
-1.76705e-42
-6.167e-43
-2.1069e-43
-3.97222e-43
-1.15012e-42
-3.33897e-42
-7.43612e-42
-9.21705e-42
-1.99132e-42
-2.27072e-44
-6.29353e-48
-2.09396e-53
-5.89776e-60
-1.09602e-60
-3.21586e-54
-1.26378e-48
-6.58514e-45
-6.74391e-43
-3.52376e-42
-3.15939e-42
-1.55946e-42
-5.75118e-43
-1.97226e-43
-3.70348e-43
-1.06938e-42
-2.93836e-42
-6.03685e-42
-6.69449e-42
-1.26475e-42
-1.22573e-44
-2.6508e-48
-6.4457e-54
-1.76047e-60
-3.35493e-61
-1.0232e-54
-5.27203e-49
-3.51056e-45
-4.22727e-43
-2.52064e-42
-2.5178e-42
-1.34452e-42
-5.23303e-43
-1.80224e-43
-3.37126e-43
-9.70284e-43
-2.52654e-42
-4.79762e-42
-4.77431e-42
-7.91681e-43
-6.52868e-45
-1.10285e-48
-2.01959e-54
-5.26252e-61
-1.01417e-61
-3.33611e-55
-2.17402e-49
-1.84758e-45
-2.61301e-43
-1.77174e-42
-1.96587e-42
-1.13365e-42
-4.65068e-43
-1.60929e-43
-2.9993e-43
-8.5999e-43
-2.1248e-42
-3.73619e-42
-3.34648e-42
-4.88743e-43
-3.43309e-45
-4.53465e-49
-6.41349e-55
-1.54993e-61
-3.05338e-62
-1.10447e-55
-8.86579e-50
-9.60409e-46
-1.59383e-43
-1.22482e-42
-1.50531e-42
-9.35691e-43
-4.04096e-43