/*--------------------------------*- C++ -*----------------------------------*\
| =========                 |                                                 |
| \\      /  F ield         | OpenFOAM: The Open Source CFD Toolbox           |
|  \\    /   O peration     | Version:  5.x                                   |
|   \\  /    A nd           | Web:      www.OpenFOAM.org                      |
|    \\/     M anipulation  |                                                 |
\*---------------------------------------------------------------------------*/
FoamFile
{
    version     2.0;
    format      ascii;
    class       volScalarField;
    location    "0.35";
    object      p_rgh;
}
// * * * * * * * * * * * * * * * * * * * * * * * * * * * * * * * * * * * * * //

dimensions      [1 -1 -2 0 0 0 0];

internalField   nonuniform List<scalar> 
8000
(
0.0157661
0.015766
0.015766
0.015766
0.015766
0.015766
0.015766
0.0157661
0.0157661
0.0157661
0.0157661
0.0157661
0.0157661
0.0157661
0.0157661
0.0157661
0.0157661
0.0157661
0.0157661
0.0157661
0.0472982
0.0472981
0.0472981
0.0472981
0.0472981
0.0472981
0.0472982
0.0472982
0.0472983
0.0472983
0.0472983
0.0472983
0.0472983
0.0472983
0.0472983
0.0472983
0.0472983
0.0472983
0.0472983
0.0472983
0.0788303
0.0788303
0.0788303
0.0788303
0.0788303
0.0788303
0.0788303
0.0788304
0.0788304
0.0788305
0.0788305
0.0788305
0.0788305
0.0788305
0.0788305
0.0788305
0.0788305
0.0788305
0.0788305
0.0788307
0.110362
0.110362
0.110362
0.110362
0.110362
0.110362
0.110362
0.110363
0.110363
0.110363
0.110363
0.110363
0.110363
0.110363
0.110363
0.110363
0.110363
0.110363
0.110363
0.110363
0.141895
0.141895
0.141895
0.141895
0.141895
0.141895
0.141895
0.141895
0.141895
0.141895
0.141895
0.141895
0.141895
0.141895
0.141895
0.141895
0.141895
0.141895
0.141895
0.141895
0.173427
0.173427
0.173427
0.173427
0.173427
0.173427
0.173427
0.173427
0.173427
0.173427
0.173427
0.173427
0.173427
0.173427
0.173427
0.173427
0.173427
0.173427
0.173427
0.173428
0.204959
0.204959
0.204959
0.204959
0.204959
0.204959
0.204959
0.204959
0.204959
0.204959
0.204959
0.204959
0.204959
0.204959
0.204959
0.204959
0.204959
0.204959
0.204959
0.20496
0.236491
0.236491
0.236491
0.236491
0.236491
0.236491
0.236491
0.236491
0.236491
0.236491
0.236491
0.236492
0.236492
0.236492
0.236492
0.236492
0.236492
0.236492
0.236492
0.236492
0.268024
0.268024
0.268024
0.268024
0.268024
0.268024
0.268024
0.268024
0.268024
0.268024
0.268024
0.268024
0.268024
0.268024
0.268024
0.268024
0.268024
0.268024
0.268024
0.268024
0.299557
0.299557
0.299557
0.299557
0.299557
0.299557
0.299557
0.299557
0.299557
0.299557
0.299557
0.299557
0.299557
0.299557
0.299557
0.299557
0.299557
0.299557
0.299557
0.299556
0.33109
0.33109
0.33109
0.33109
0.33109
0.33109
0.33109
0.33109
0.33109
0.33109
0.331089
0.331089
0.331089
0.331089
0.331089
0.331089
0.331089
0.331089
0.33109
0.331089
0.362623
0.362623
0.362623
0.362623
0.362623
0.362623
0.362623
0.362623
0.362623
0.362623
0.362623
0.362623
0.362623
0.362622
0.362622
0.362622
0.362622
0.362623
0.362623
0.362622
0.394156
0.394156
0.394156
0.394156
0.394156
0.394156
0.394156
0.394156
0.394156
0.394156
0.394156
0.394156
0.394156
0.394156
0.394156
0.394156
0.394156
0.394156
0.394156
0.394155
0.42569
0.42569
0.42569
0.42569
0.42569
0.42569
0.42569
0.42569
0.42569
0.425689
0.425689
0.425689
0.425689
0.425689
0.425689
0.425689
0.425689
0.425689
0.425689
0.425689
0.457224
0.457224
0.457224
0.457224
0.457224
0.457224
0.457223
0.457223
0.457223
0.457223
0.457223
0.457223
0.457223
0.457223
0.457223
0.457223
0.457223
0.457223
0.457223
0.457223
0.488758
0.488758
0.488758
0.488758
0.488758
0.488758
0.488758
0.488757
0.488757
0.488757
0.488757
0.488757
0.488757
0.488757
0.488757
0.488757
0.488757
0.488757
0.488757
0.488757
0.520292
0.520292
0.520292
0.520292
0.520292
0.520292
0.520292
0.520292
0.520292
0.520292
0.520291
0.520291
0.520291
0.520291
0.520291
0.520291
0.520291
0.520291
0.520292
0.520291
0.551826
0.551827
0.551826
0.551826
0.551826
0.551826
0.551826
0.551826
0.551826
0.551826
0.551826
0.551826
0.551826
0.551826
0.551826
0.551826
0.551826
0.551826
0.551826
0.551826
0.583361
0.583361
0.583361
0.583361
0.583361
0.583361
0.583361
0.583361
0.583361
0.583361
0.583361
0.583361
0.58336
0.58336
0.58336
0.583361
0.583361
0.583361
0.583361
0.583361
0.614896
0.614896
0.614896
0.614896
0.614896
0.614896
0.614896
0.614896
0.614896
0.614896
0.614895
0.614895
0.614895
0.614895
0.614895
0.614896
0.614896
0.614896
0.614896
0.614896
0.646432
0.646431
0.646431
0.646431
0.646431
0.646431
0.646431
0.646431
0.646431
0.646431
0.646431
0.646431
0.646431
0.646431
0.646431
0.646431
0.646431
0.646431
0.646431
0.646432
0.677968
0.677967
0.677966
0.677966
0.677966
0.677966
0.677966
0.677966
0.677966
0.677966
0.677966
0.677966
0.677966
0.677966
0.677966
0.677967
0.677967
0.677967
0.677967
0.677968
0.709503
0.709502
0.709502
0.709502
0.709502
0.709502
0.709502
0.709502
0.709502
0.709502
0.709502
0.709502
0.709502
0.709502
0.709502
0.709503
0.709503
0.709503
0.709503
0.709504
0.741039
0.741038
0.741038
0.741038
0.741038
0.741038
0.741038
0.741038
0.741038
0.741038
0.741038
0.741039
0.741039
0.741039
0.741039
0.741039
0.741039
0.741039
0.74104
0.741041
0.772575
0.772575
0.772575
0.772575
0.772575
0.772575
0.772575
0.772575
0.772575
0.772575
0.772575
0.772575
0.772576
0.772576
0.772576
0.772576
0.772576
0.772576
0.772577
0.772577
0.804112
0.804112
0.804112
0.804112
0.804112
0.804112
0.804112
0.804112
0.804112
0.804113
0.804113
0.804113
0.804113
0.804113
0.804113
0.804113
0.804113
0.804114
0.804114
0.804115
0.835649
0.83565
0.83565
0.83565
0.83565
0.83565
0.83565
0.83565
0.83565
0.83565
0.83565
0.83565
0.835651
0.835651
0.835651
0.835651
0.835651
0.835651
0.835652
0.835652
0.867187
0.867188
0.867188
0.867188
0.867188
0.867188
0.867188
0.867188
0.867188
0.867188
0.867188
0.867189
0.867189
0.867189
0.867189
0.867189
0.867189
0.867189
0.86719
0.86719
0.898725
0.898726
0.898726
0.898726
0.898726
0.898726
0.898726
0.898726
0.898727
0.898727
0.898727
0.898727
0.898727
0.898727
0.898727
0.898727
0.898728
0.898728
0.898728
0.898728
0.930264
0.930265
0.930265
0.930265
0.930265
0.930265
0.930265
0.930265
0.930265
0.930265
0.930265
0.930265
0.930266
0.930266
0.930266
0.930266
0.930266
0.930266
0.930266
0.930267
0.961803
0.961803
0.961803
0.961803
0.961803
0.961803
0.961804
0.961804
0.961804
0.961804
0.961804
0.961804
0.961804
0.961805
0.961805
0.961805
0.961805
0.961805
0.961805
0.961806
0.993342
0.993342
0.993342
0.993342
0.993342
0.993342
0.993342
0.993342
0.993343
0.993343
0.993343
0.993343
0.993343
0.993343
0.993343
0.993344
0.993344
0.993344
0.993344
0.993345
1.02488
1.02488
1.02488
1.02488
1.02488
1.02488
1.02488
1.02488
1.02488
1.02488
1.02488
1.02488
1.02488
1.02488
1.02488
1.02488
1.02488
1.02488
1.02488
1.02488
1.05642
1.05642
1.05642
1.05642
1.05642
1.05642
1.05642
1.05642
1.05642
1.05642
1.05642
1.05642
1.05642
1.05642
1.05642
1.05642
1.05642
1.05642
1.05642
1.05642
1.08796
1.08796
1.08796
1.08796
1.08796
1.08796
1.08796
1.08796
1.08796
1.08796
1.08796
1.08796
1.08796
1.08796
1.08796
1.08796
1.08796
1.08796
1.08796
1.08796
1.1195
1.1195
1.1195
1.1195
1.1195
1.1195
1.1195
1.1195
1.1195
1.1195
1.1195
1.1195
1.1195
1.1195
1.1195
1.1195
1.1195
1.1195
1.1195
1.1195
1.15104
1.15104
1.15104
1.15104
1.15104
1.15104
1.15104
1.15104
1.15104
1.15104
1.15104
1.15104
1.15104
1.15104
1.15104
1.15104
1.15104
1.15104
1.15104
1.15104
1.18258
1.18258
1.18258
1.18258
1.18258
1.18258
1.18258
1.18258
1.18258
1.18258
1.18258
1.18258
1.18258
1.18258
1.18258
1.18258
1.18258
1.18258
1.18258
1.18258
1.21412
1.21412
1.21412
1.21412
1.21412
1.21412
1.21412
1.21412
1.21412
1.21412
1.21412
1.21412
1.21412
1.21412
1.21412
1.21412
1.21412
1.21412
1.21412
1.21412
1.24566
1.24566
1.24566
1.24566
1.24566
1.24566
1.24566
1.24566
1.24566
1.24566
1.24566
1.24566
1.24566
1.24566
1.24566
1.24566
1.24566
1.24566
1.24566
1.24566
1.2772
1.2772
1.27719
1.27719
1.2772
1.2772
1.2772
1.2772
1.2772
1.2772
1.2772
1.2772
1.2772
1.2772
1.2772
1.2772
1.2772
1.2772
1.2772
1.2772
1.30873
1.30873
1.30873
1.30873
1.30873
1.30873
1.30873
1.30873
1.30873
1.30873
1.30873
1.30873
1.30873
1.30873
1.30873
1.30873
1.30873
1.30873
1.30873
1.30873
1.34027
1.34027
1.34027
1.34027
1.34027
1.34027
1.34027
1.34027
1.34027
1.34027
1.34027
1.34027
1.34027
1.34027
1.34027
1.34027
1.34027
1.34027
1.34027
1.34027
1.37181
1.37181
1.37181
1.37181
1.37181
1.37181
1.37181
1.37181
1.37181
1.37181
1.37181
1.37181
1.37181
1.37181
1.37181
1.37181
1.37181
1.37181
1.37181
1.37181
1.40335
1.40335
1.40335
1.40335
1.40335
1.40335
1.40335
1.40335
1.40335
1.40335
1.40335
1.40335
1.40335
1.40335
1.40335
1.40335
1.40335
1.40335
1.40335
1.40335
1.43489
1.43489
1.43489
1.43489
1.43489
1.43489
1.43489
1.43489
1.43489
1.43489
1.43489
1.43489
1.43489
1.43489
1.43489
1.43489
1.43489
1.43489
1.43489
1.43489
1.46643
1.46643
1.46643
1.46643
1.46643
1.46643
1.46643
1.46643
1.46643
1.46643
1.46643
1.46643
1.46643
1.46643
1.46643
1.46643
1.46643
1.46643
1.46643
1.46643
1.49797
1.49797
1.49797
1.49797
1.49797
1.49797
1.49797
1.49796
1.49796
1.49796
1.49796
1.49796
1.49796
1.49797
1.49797
1.49797
1.49797
1.49797
1.49797
1.49797
1.5295
1.5295
1.5295
1.5295
1.5295
1.5295
1.5295
1.5295
1.5295
1.5295
1.5295
1.5295
1.5295
1.5295
1.5295
1.5295
1.5295
1.5295
1.5295
1.5295
1.56104
1.56104
1.56104
1.56104
1.56104
1.56104
1.56104
1.56104
1.56104
1.56104
1.56104
1.56104
1.56104
1.56104
1.56104
1.56104
1.56104
1.56104
1.56104
1.56104
1.59258
1.59258
1.59258
1.59258
1.59258
1.59258
1.59258
1.59258
1.59258
1.59258
1.59258
1.59258
1.59258
1.59258
1.59258
1.59258
1.59258
1.59258
1.59258
1.59258
1.62412
1.62412
1.62412
1.62412
1.62412
1.62412
1.62412
1.62412
1.62412
1.62412
1.62412
1.62412
1.62412
1.62412
1.62412
1.62412
1.62412
1.62412
1.62412
1.62412
1.65565
1.65565
1.65565
1.65565
1.65565
1.65565
1.65565
1.65565
1.65565
1.65565
1.65565
1.65565
1.65565
1.65565
1.65565
1.65565
1.65565
1.65565
1.65565
1.65565
1.68719
1.68719
1.68719
1.68719
1.68719
1.68719
1.68719
1.68719
1.68719
1.68719
1.68719
1.68719
1.68719
1.68719
1.68719
1.68719
1.68719
1.68719
1.68719
1.68719
1.71873
1.71873
1.71873
1.71873
1.71873
1.71873
1.71873
1.71873
1.71873
1.71873
1.71873
1.71873
1.71873
1.71873
1.71873
1.71873
1.71873
1.71873
1.71873
1.71873
1.75026
1.75026
1.75026
1.75026
1.75026
1.75027
1.75027
1.75027
1.75027
1.75027
1.75027
1.75026
1.75026
1.75026
1.75026
1.75026
1.75026
1.75026
1.75026
1.75026
1.7818
1.7818
1.7818
1.7818
1.7818
1.7818
1.7818
1.7818
1.7818
1.7818
1.7818
1.7818
1.7818
1.7818
1.7818
1.7818
1.7818
1.7818
1.7818
1.7818
1.81334
1.81334
1.81334
1.81334
1.81334
1.81334
1.81334
1.81334
1.81334
1.81334
1.81334
1.81334
1.81334
1.81334
1.81334
1.81334
1.81334
1.81334
1.81334
1.81334
1.84488
1.84488
1.84488
1.84488
1.84488
1.84488
1.84488
1.84488
1.84488
1.84488
1.84488
1.84488
1.84488
1.84487
1.84487
1.84487
1.84487
1.84487
1.84487
1.84488
1.87641
1.87641
1.87641
1.87641
1.87641
1.87641
1.87641
1.87641
1.87641
1.87641
1.87641
1.87641
1.87641
1.87641
1.87641
1.87641
1.87641
1.87641
1.87641
1.87641
1.90795
1.90795
1.90795
1.90795
1.90795
1.90795
1.90795
1.90795
1.90795
1.90795
1.90795
1.90795
1.90795
1.90795
1.90795
1.90795
1.90795
1.90795
1.90795
1.90795
1.93949
1.93949
1.93949
1.93949
1.93949
1.93948
1.93948
1.93948
1.93948
1.93948
1.93948
1.93948
1.93948
1.93948
1.93948
1.93948
1.93948
1.93948
1.93948
1.93949
1.97102
1.97102
1.97102
1.97102
1.97102
1.97102
1.97102
1.97102
1.97102
1.97102
1.97102
1.97102
1.97102
1.97102
1.97102
1.97102
1.97102
1.97102
1.97102
1.97102
2.00256
2.00256
2.00256
2.00256
2.00256
2.00256
2.00256
2.00256
2.00256
2.00256
2.00256
2.00256
2.00256
2.00256
2.00256
2.00256
2.00256
2.00256
2.00256
2.00256
2.0341
2.03409
2.03409
2.03409
2.03409
2.03409
2.03409
2.03409
2.03409
2.03409
2.03409
2.03409
2.03409
2.03409
2.03409
2.03409
2.03409
2.03409
2.03409
2.03409
2.06563
2.06563
2.06563
2.06563
2.06563
2.06563
2.06563
2.06563
2.06563
2.06563
2.06563
2.06563
2.06563
2.06563
2.06563
2.06563
2.06563
2.06563
2.06563
2.06563
2.09717
2.09717
2.09717
2.09717
2.09717
2.09717
2.09717
2.09717
2.09717
2.09717
2.09717
2.09717
2.09717
2.09717
2.09717
2.09717
2.09717
2.09717
2.09717
2.09717
2.1287
2.1287
2.1287
2.1287
2.1287
2.1287
2.1287
2.1287
2.1287
2.1287
2.1287
2.1287
2.1287
2.1287
2.1287
2.1287
2.1287
2.1287
2.1287
2.1287
2.16024
2.16024
2.16024
2.16024
2.16024
2.16024
2.16024
2.16024
2.16024
2.16024
2.16024
2.16024
2.16024
2.16024
2.16024
2.16024
2.16024
2.16024
2.16024
2.16024
2.19178
2.19177
2.19177
2.19177
2.19178
2.19178
2.19178
2.19178
2.19178
2.19178
2.19178
2.19178
2.19178
2.19178
2.19178
2.19178
2.19178
2.19178
2.19177
2.19178
2.22331
2.22331
2.22331
2.22331
2.22331
2.22331
2.22331
2.22331
2.22331
2.22331
2.22331
2.22331
2.22331
2.22331
2.22331
2.22331
2.22331
2.22331
2.22331
2.22331
2.25485
2.25485
2.25485
2.25485
2.25485
2.25485
2.25485
2.25485
2.25485
2.25485
2.25485
2.25485
2.25485
2.25485
2.25485
2.25485
2.25485
2.25485
2.25485
2.25485
2.28638
2.28638
2.28638
2.28638
2.28638
2.28638
2.28638
2.28638
2.28638
2.28638
2.28638
2.28638
2.28638
2.28638
2.28638
2.28638
2.28638
2.28638
2.28638
2.28638
2.31792
2.31792
2.31792
2.31792
2.31792
2.31792
2.31792
2.31792
2.31792
2.31792
2.31792
2.31792
2.31792
2.31792
2.31792
2.31792
2.31792
2.31792
2.31792
2.31792
2.34946
2.34946
2.34946
2.34946
2.34946
2.34946
2.34946
2.34946
2.34946
2.34946
2.34946
2.34946
2.34946
2.34946
2.34946
2.34946
2.34946
2.34946
2.34946
2.34946
2.38099
2.38099
2.38099
2.38099
2.38099
2.38099
2.38099
2.38099
2.38099
2.38099
2.38099
2.38099
2.38099
2.38099
2.38099
2.38099
2.38099
2.38099
2.38099
2.38099
2.41253
2.41253
2.41253
2.41253
2.41253
2.41253
2.41253
2.41253
2.41253
2.41253
2.41253
2.41253
2.41253
2.41253
2.41253
2.41253
2.41253
2.41253
2.41253
2.41253
2.44406
2.44406
2.44406
2.44406
2.44406
2.44406
2.44406
2.44406
2.44406
2.44407
2.44407
2.44407
2.44407
2.44407
2.44407
2.44407
2.44407
2.44407
2.44407
2.44407
2.4756
2.4756
2.4756
2.4756
2.4756
2.4756
2.4756
2.4756
2.4756
2.4756
2.4756
2.4756
2.4756
2.4756
2.4756
2.4756
2.4756
2.4756
2.4756
2.4756
2.50714
2.50714
2.50714
2.50714
2.50714
2.50714
2.50714
2.50714
2.50714
2.50714
2.50714
2.50714
2.50714
2.50714
2.50714
2.50714
2.50714
2.50714
2.50714
2.50714
2.53867
2.53867
2.53867
2.53867
2.53867
2.53867
2.53867
2.53867
2.53867
2.53867
2.53867
2.53867
2.53867
2.53867
2.53867
2.53867
2.53867
2.53867
2.53867
2.53867
2.57021
2.57021
2.57021
2.57021
2.57021
2.57021
2.57021
2.57021
2.57021
2.57021
2.57021
2.57021
2.57021
2.57021
2.57021
2.57021
2.57021
2.57021
2.57021
2.57021
2.60175
2.60175
2.60175
2.60175
2.60175
2.60175
2.60175
2.60175
2.60175
2.60175
2.60175
2.60175
2.60175
2.60175
2.60175
2.60175
2.60175
2.60175
2.60175
2.60175
2.63328
2.63328
2.63328
2.63328
2.63328
2.63328
2.63328
2.63328
2.63328
2.63328
2.63328
2.63328
2.63328
2.63328
2.63328
2.63328
2.63328
2.63328
2.63328
2.63328
2.66482
2.66482
2.66482
2.66482
2.66482
2.66482
2.66482
2.66482
2.66482
2.66482
2.66482
2.66482
2.66482
2.66482
2.66482
2.66482
2.66482
2.66482
2.66482
2.66482
2.69635
2.69635
2.69635
2.69635
2.69635
2.69635
2.69635
2.69635
2.69635
2.69635
2.69635
2.69635
2.69635
2.69635
2.69635
2.69635
2.69635
2.69635
2.69635
2.69635
2.72789
2.72789
2.72789
2.72789
2.72789
2.72789
2.72789
2.72789
2.72789
2.72789
2.72789
2.72789
2.72789
2.72789
2.72789
2.72789
2.72789
2.72789
2.72789
2.72789
2.75943
2.75943
2.75943
2.75943
2.75943
2.75943
2.75943
2.75943
2.75943
2.75943
2.75943
2.75943
2.75943
2.75943
2.75943
2.75943
2.75943
2.75943
2.75943
2.75943
2.79096
2.79096
2.79096
2.79096
2.79096
2.79096
2.79096
2.79096
2.79096
2.79096
2.79096
2.79096
2.79096
2.79096
2.79096
2.79096
2.79096
2.79096
2.79096
2.79096
2.8225
2.8225
2.8225
2.8225
2.8225
2.8225
2.8225
2.8225
2.8225
2.8225
2.8225
2.8225
2.8225
2.8225
2.8225
2.8225
2.8225
2.8225
2.8225
2.8225
2.85403
2.85404
2.85404
2.85404
2.85404
2.85404
2.85404
2.85404
2.85404
2.85404
2.85404
2.85404
2.85404
2.85404
2.85404
2.85404
2.85404
2.85404
2.85404
2.85403
2.88557
2.88557
2.88557
2.88557
2.88557
2.88557
2.88557
2.88557
2.88557
2.88557
2.88557
2.88557
2.88557
2.88557
2.88557
2.88557
2.88557
2.88557
2.88557
2.88557
2.91711
2.91711
2.91711
2.91711
2.91711
2.91711
2.91711
2.91711
2.91711
2.91711
2.91711
2.91711
2.91711
2.91711
2.91711
2.91711
2.91711
2.91711
2.91711
2.91711
2.94864
2.94864
2.94864
2.94864
2.94864
2.94864
2.94864
2.94864
2.94864
2.94864
2.94864
2.94864
2.94864
2.94864
2.94864
2.94864
2.94864
2.94864
2.94864
2.94864
2.98018
2.98018
2.98018
2.98018
2.98018
2.98018
2.98018
2.98018
2.98018
2.98018
2.98018
2.98018
2.98018
2.98018
2.98018
2.98018
2.98018
2.98018
2.98018
2.98018
3.01172
3.01172
3.01172
3.01172
3.01172
3.01172
3.01172
3.01172
3.01172
3.01172
3.01172
3.01172
3.01172
3.01172
3.01172
3.01172
3.01172
3.01172
3.01172
3.01172
3.04325
3.04325
3.04325
3.04325
3.04325
3.04325
3.04325
3.04325
3.04325
3.04325
3.04325
3.04325
3.04325
3.04325
3.04325
3.04325
3.04325
3.04325
3.04325
3.04325
3.07479
3.07479
3.07479
3.07479
3.07479
3.07479
3.07479
3.07479
3.07479
3.07479
3.07479
3.07479
3.07479
3.07479
3.07479
3.07479
3.07479
3.07479
3.07479
3.07479
3.10632
3.10632
3.10632
3.10632
3.10632
3.10632
3.10632
3.10632
3.10632
3.10632
3.10632
3.10632
3.10632
3.10632
3.10632
3.10633
3.10633
3.10633
3.10633
3.10633
3.13786
3.13786
3.13786
3.13786
3.13786
3.13786
3.13786
3.13786
3.13786
3.13786
3.13786
3.13786
3.13786
3.13786
3.13786
3.13786
3.13786
3.13786
3.13786
3.13786
3.1694
3.1694
3.1694
3.1694
3.1694
3.1694
3.1694
3.1694
3.1694
3.1694
3.1694
3.1694
3.1694
3.1694
3.1694
3.1694
3.1694
3.1694
3.1694
3.1694
3.20093
3.20093
3.20093
3.20093
3.20093
3.20093
3.20093
3.20093
3.20093
3.20093
3.20093
3.20093
3.20093
3.20093
3.20093
3.20093
3.20094
3.20093
3.20093
3.20093
3.23247
3.23247
3.23247
3.23247
3.23247
3.23247
3.23247
3.23247
3.23247
3.23247
3.23247
3.23247
3.23247
3.23247
3.23247
3.23247
3.23247
3.23247
3.23247
3.23247
3.26401
3.26401
3.26401
3.26401
3.26401
3.26401
3.26401
3.26401
3.26401
3.26401
3.26401
3.26401
3.26401
3.26401
3.26401
3.26401
3.26401
3.26401
3.26401
3.26401
3.29554
3.29554
3.29554
3.29554
3.29554
3.29554
3.29554
3.29554
3.29554
3.29554
3.29554
3.29554
3.29554
3.29554
3.29554
3.29554
3.29554
3.29554
3.29554
3.29554
3.32708
3.32708
3.32708
3.32708
3.32708
3.32708
3.32708
3.32708
3.32708
3.32708
3.32708
3.32708
3.32708
3.32708
3.32708
3.32708
3.32708
3.32708
3.32708
3.32708
3.35861
3.35861
3.35861
3.35861
3.35861
3.35861
3.35861
3.35861
3.35861
3.35861
3.35861
3.35861
3.35861
3.35861
3.35861
3.35862
3.35862
3.35862
3.35862
3.35862
3.39015
3.39015
3.39015
3.39015
3.39015
3.39015
3.39015
3.39015
3.39015
3.39015
3.39015
3.39015
3.39015
3.39015
3.39015
3.39015
3.39015
3.39015
3.39015
3.39015
3.42169
3.42169
3.42169
3.42169
3.42169
3.42169
3.42169
3.42169
3.42169
3.42169
3.42169
3.42169
3.42169
3.42169
3.42169
3.42169
3.42169
3.42169
3.42169
3.42169
3.45322
3.45322
3.45322
3.45322
3.45322
3.45322
3.45322
3.45322
3.45322
3.45322
3.45322
3.45322
3.45322
3.45322
3.45322
3.45322
3.45322
3.45322
3.45322
3.45322
3.48476
3.48476
3.48476
3.48476
3.48476
3.48476
3.48476
3.48476
3.48476
3.48476
3.48476
3.48476
3.48476
3.48476
3.48476
3.48476
3.48476
3.48476
3.48476
3.48476
3.5163
3.5163
3.5163
3.5163
3.5163
3.5163
3.5163
3.5163
3.5163
3.5163
3.5163
3.5163
3.5163
3.5163
3.5163
3.5163
3.5163
3.5163
3.5163
3.5163
3.54783
3.54783
3.54783
3.54783
3.54783
3.54783
3.54783
3.54783
3.54783
3.54783
3.54783
3.54783
3.54783
3.54783
3.54783
3.54783
3.54783
3.54783
3.54783
3.54783
3.57937
3.57937
3.57937
3.57937
3.57937
3.57937
3.57937
3.57937
3.57937
3.57937
3.57937
3.57937
3.57937
3.57937
3.57937
3.57937
3.57937
3.57937
3.57937
3.57937
3.6109
3.6109
3.6109
3.6109
3.6109
3.6109
3.6109
3.6109
3.6109
3.6109
3.6109
3.6109
3.6109
3.6109
3.6109
3.6109
3.6109
3.6109
3.6109
3.6109
3.64244
3.64244
3.64244
3.64244
3.64244
3.64244
3.64244
3.64244
3.64244
3.64244
3.64244
3.64244
3.64244
3.64244
3.64244
3.64244
3.64244
3.64244
3.64244
3.64244
3.67398
3.67398
3.67398
3.67398
3.67398
3.67398
3.67398
3.67398
3.67398
3.67398
3.67398
3.67398
3.67398
3.67398
3.67398
3.67398
3.67398
3.67398
3.67398
3.67398
3.70551
3.70551
3.70551
3.70551
3.70551
3.70551
3.70551
3.70551
3.70551
3.70551
3.70551
3.70551
3.70551
3.70551
3.70551
3.70551
3.70551
3.70551
3.70551
3.70551
3.73705
3.73705
3.73705
3.73705
3.73705
3.73705
3.73705
3.73705
3.73705
3.73705
3.73705
3.73705
3.73705
3.73705
3.73705
3.73705
3.73705
3.73705
3.73705
3.73705
3.76859
3.76859
3.76859
3.76859
3.76859
3.76859
3.76859
3.76859
3.76859
3.76859
3.76859
3.76859
3.76859
3.76859
3.76859
3.76859
3.76858
3.76858
3.76858
3.76858
3.80012
3.80012
3.80012
3.80012
3.80012
3.80012
3.80012
3.80012
3.80012
3.80012
3.80012
3.80012
3.80012
3.80012
3.80012
3.80012
3.80012
3.80012
3.80012
3.80012
3.83166
3.83166
3.83166
3.83166
3.83166
3.83166
3.83166
3.83166
3.83166
3.83166
3.83166
3.83166
3.83166
3.83166
3.83166
3.83166
3.83166
3.83166
3.83166
3.83166
3.8632
3.8632
3.8632
3.8632
3.8632
3.8632
3.8632
3.8632
3.86319
3.86319
3.86319
3.86319
3.86319
3.86319
3.86319
3.86319
3.86319
3.86319
3.86319
3.86319
3.89473
3.89473
3.89473
3.89473
3.89473
3.89473
3.89473
3.89473
3.89473
3.89473
3.89473
3.89473
3.89473
3.89473
3.89473
3.89473
3.89473
3.89473
3.89473
3.89473
3.92627
3.92627
3.92627
3.92627
3.92627
3.92627
3.92627
3.92627
3.92627
3.92627
3.92627
3.92627
3.92627
3.92627
3.92627
3.92627
3.92627
3.92627
3.92627
3.92627
3.95781
3.95781
3.95781
3.95781
3.95781
3.95781
3.9578
3.9578
3.9578
3.9578
3.9578
3.9578
3.9578
3.9578
3.9578
3.9578
3.9578
3.9578
3.9578
3.9578
3.98934
3.98934
3.98934
3.98934
3.98934
3.98934
3.98934
3.98934
3.98934
3.98934
3.98934
3.98934
3.98934
3.98934
3.98934
3.98934
3.98934
3.98934
3.98934
3.98934
4.02088
4.02088
4.02088
4.02088
4.02088
4.02088
4.02088
4.02088
4.02088
4.02088
4.02088
4.02088
4.02087
4.02087
4.02087
4.02087
4.02087
4.02087
4.02087
4.02087
4.05242
4.05242
4.05242
4.05242
4.05242
4.05242
4.05242
4.05241
4.05241
4.05241
4.05241
4.05241
4.05241
4.05241
4.05241
4.05241
4.05241
4.05241
4.05241
4.05241
4.08395
4.08395
4.08395
4.08395
4.08395
4.08395
4.08395
4.08395
4.08395
4.08395
4.08395
4.08395
4.08395
4.08395
4.08395
4.08394
4.08394
4.08394
4.08394
4.08394
4.11549
4.11549
4.11549
4.11549
4.11549
4.11549
4.11549
4.11549
4.11549
4.11549
4.11548
4.11548
4.11548
4.11548
4.11548
4.11548
4.11548
4.11548
4.11548
4.11548
4.14703
4.14703
4.14703
4.14703
4.14703
4.14703
4.14703
4.14702
4.14702
4.14702
4.14702
4.14702
4.14702
4.14702
4.14702
4.14702
4.14702
4.14702
4.14701
4.14701
4.17857
4.17857
4.17857
4.17857
4.17856
4.17856
4.17856
4.17856
4.17856
4.17856
4.17856
4.17856
4.17856
4.17855
4.17855
4.17855
4.17855
4.17855
4.17855
4.17855
4.21011
4.2101
4.2101
4.2101
4.2101
4.2101
4.2101
4.2101
4.2101
4.2101
4.21009
4.21009
4.21009
4.21009
4.21009
4.21009
4.21009
4.21009
4.21008
4.21008
4.24164
4.24164
4.24164
4.24164
4.24164
4.24164
4.24164
4.24164
4.24163
4.24163
4.24163
4.24163
4.24163
4.24163
4.24162
4.24162
4.24162
4.24162
4.24162
4.24162
4.27318
4.27318
4.27318
4.27318
4.27318
4.27318
4.27317
4.27317
4.27317
4.27317
4.27317
4.27316
4.27316
4.27316
4.27316
4.27316
4.27316
4.27316
4.27315
4.27315
4.30472
4.30472
4.30472
4.30472
4.30472
4.30471
4.30471
4.30471
4.30471
4.30471
4.3047
4.3047
4.3047
4.3047
4.30469
4.30469
4.30469
4.30469
4.30469
4.30469
4.33626
4.33626
4.33626
4.33626
4.33625
4.33625
4.33625
4.33625
4.33624
4.33624
4.33624
4.33624
4.33623
4.33623
4.33623
4.33623
4.33623
4.33622
4.33622
4.33622
4.3678
4.3678
4.3678
4.3678
4.36779
4.36779
4.36779
4.36779
4.36778
4.36778
4.36778
4.36777
4.36777
4.36777
4.36776
4.36776
4.36776
4.36776
4.36776
4.36776
4.39934
4.39934
4.39934
4.39934
4.39933
4.39933
4.39933
4.39932
4.39932
4.39932
4.39931
4.39931
4.39931
4.3993
4.3993
4.3993
4.39929
4.39929
4.39929
4.39929
4.43088
4.43088
4.43088
4.43088
4.43087
4.43087
4.43087
4.43086
4.43086
4.43085
4.43085
4.43084
4.43084
4.43084
4.43083
4.43083
4.43083
4.43082
4.43082
4.43082
4.46243
4.46242
4.46242
4.46242
4.46241
4.46241
4.4624
4.4624
4.46239
4.46239
4.46238
4.46238
4.46238
4.46237
4.46237
4.46236
4.46236
4.46236
4.46235
4.46235
4.49397
4.49397
4.49396
4.49396
4.49395
4.49395
4.49394
4.49394
4.49393
4.49393
4.49392
4.49392
4.49391
4.4939
4.4939
4.49389
4.49389
4.49389
4.49388
4.49388
4.52551
4.52551
4.52551
4.5255
4.5255
4.52549
4.52548
4.52548
4.52547
4.52546
4.52546
4.52545
4.52544
4.52544
4.52543
4.52543
4.52542
4.52542
4.52541
4.52541
4.55706
4.55706
4.55705
4.55705
4.55704
4.55703
4.55702
4.55702
4.55701
4.557
4.55699
4.55699
4.55698
4.55697
4.55696
4.55696
4.55695
4.55695
4.55694
4.55694
4.58861
4.5886
4.5886
4.58859
4.58858
4.58857
4.58856
4.58856
4.58855
4.58854
4.58853
4.58852
4.58851
4.5885
4.58849
4.58849
4.58848
4.58847
4.58847
4.58847
4.62016
4.62015
4.62014
4.62014
4.62013
4.62012
4.62011
4.62009
4.62008
4.62007
4.62006
4.62005
4.62004
4.62003
4.62002
4.62002
4.62001
4.62
4.62
4.61999
4.65171
4.6517
4.65169
4.65168
4.65167
4.65166
4.65165
4.65163
4.65162
4.65161
4.6516
4.65159
4.65158
4.65156
4.65155
4.65154
4.65153
4.65153
4.65152
4.65152
4.68326
4.68326
4.68325
4.68323
4.68322
4.68321
4.68319
4.68318
4.68316
4.68315
4.68313
4.68312
4.68311
4.68309
4.68308
4.68307
4.68306
4.68305
4.68304
4.68304
4.71482
4.71481
4.7148
4.71479
4.71477
4.71475
4.71473
4.71472
4.7147
4.71468
4.71467
4.71465
4.71464
4.71462
4.71461
4.7146
4.71458
4.71457
4.71457
4.71456
4.74638
4.74637
4.74636
4.74634
4.74632
4.7463
4.74628
4.74626
4.74624
4.74622
4.7462
4.74618
4.74617
4.74615
4.74613
4.74612
4.74611
4.74609
4.74608
4.74608
4.77795
4.77794
4.77792
4.7779
4.77787
4.77785
4.77782
4.7778
4.77778
4.77775
4.77773
4.77771
4.77769
4.77768
4.77766
4.77764
4.77763
4.77761
4.7776
4.77759
4.80952
4.80951
4.80948
4.80946
4.80943
4.8094
4.80937
4.80934
4.80931
4.80929
4.80926
4.80924
4.80922
4.8092
4.80918
4.80916
4.80914
4.80913
4.80912
4.8091
4.8411
4.84108
4.84105
4.84102
4.84099
4.84095
4.84092
4.84088
4.84085
4.84082
4.84079
4.84077
4.84074
4.84072
4.8407
4.84068
4.84066
4.84064
4.84063
4.84061
4.87269
4.87266
4.87263
4.87259
4.87255
4.87251
4.87247
4.87243
4.87239
4.87235
4.87232
4.87229
4.87227
4.87224
4.87222
4.87219
4.87217
4.87215
4.87214
4.87212
4.90428
4.90425
4.90421
4.90416
4.90412
4.90407
4.90401
4.90397
4.90392
4.90388
4.90385
4.90381
4.90378
4.90376
4.90373
4.90371
4.90368
4.90366
4.90364
4.90362
4.93586
4.93584
4.93579
4.93574
4.93569
4.93563
4.93556
4.93551
4.93545
4.93541
4.93536
4.93533
4.9353
4.93527
4.93524
4.93522
4.93519
4.93516
4.93514
4.9351
4.96741
4.96744
4.96739
4.96733
4.96726
4.96719
4.96711
4.96704
4.96698
4.96693
4.96688
4.96684
4.9668
4.96677
4.96675
4.96672
4.96669
4.96666
4.96665
4.96654
4.99941
4.99907
4.999
4.99893
4.99885
4.99876
4.99866
4.99858
4.9985
4.99844
4.99838
4.99834
4.9983
4.99827
4.99825
4.99823
4.9982
4.99816
4.99815
4.99816
5.03052
5.0307
5.03061
5.03055
5.03044
5.03032
5.03021
5.0301
5.03001
5.02994
5.02988
5.02983
5.02979
5.02976
5.02974
5.02973
5.02971
5.02965
5.02966
5.0293
5.06164
5.06242
5.06224
5.06219
5.06204
5.06189
5.06175
5.06162
5.06152
5.06143
5.06136
5.0613
5.06126
5.06123
5.06122
5.06123
5.06123
5.06117
5.06123
5.06031
5.10801
5.09453
5.09412
5.09392
5.09367
5.09345
5.09327
5.09312
5.093
5.0929
5.09282
5.09275
5.09271
5.09268
5.09268
5.09273
5.09283
5.09298
5.09332
5.108
5.2159
5.12786
5.12662
5.12578
5.1253
5.125
5.12478
5.1246
5.12447
5.12436
5.12426
5.12419
5.12413
5.12409
5.12409
5.12421
5.12453
5.1254
5.12673
5.21526
5.15941
5.15929
5.15718
5.15696
5.15667
5.15642
5.15622
5.15605
5.15591
5.15579
5.15569
5.1556
5.15551
5.15543
5.15536
5.15534
5.15533
5.15563
5.15811
5.1568
5.19338
5.19459
5.18779
5.18794
5.18798
5.18782
5.18764
5.18747
5.18733
5.18721
5.1871
5.18699
5.18688
5.18675
5.18658
5.18637
5.1857
5.18543
5.19471
5.19389
5.22583
5.24807
5.21963
5.21936
5.21952
5.21929
5.21907
5.21888
5.21873
5.21861
5.2185
5.2184
5.21828
5.21813
5.21793
5.2177
5.2168
5.21684
5.2593
5.22833
5.25238
5.28151
5.25269
5.25095
5.25126
5.2508
5.25049
5.25027
5.25012
5.25
5.24991
5.24981
5.2497
5.24957
5.24944
5.24937
5.24888
5.25026
5.2865
5.25631
5.29807
5.28816
5.28849
5.28428
5.2833
5.28236
5.28188
5.28162
5.28147
5.28138
5.28131
5.28122
5.28112
5.28102
5.28097
5.28104
5.28184
5.28607
5.28728
5.33826
5.63902
5.32164
5.3222
5.31672
5.31469
5.31354
5.31305
5.31284
5.31277
5.31273
5.3127
5.31263
5.31252
5.31233
5.31205
5.31117
5.3111
5.3191
5.3215
5.31129
5.34401
5.35289
5.35711
5.34587
5.34454
5.34401
5.34391
5.34393
5.34401
5.34407
5.3441
5.34408
5.344
5.34383
5.34359
5.34256
5.34285
5.37432
5.35025
5.34971
5.3742
5.37661
5.40079
5.37075
5.37198
5.37363
5.37449
5.37497
5.37526
5.37544
5.37555
5.37559
5.37557
5.37552
5.37547
5.37506
5.37711
5.40307
5.38029
5.37897
5.40643
5.41688
5.42437
5.40241
5.40384
5.40497
5.40578
5.40631
5.40667
5.4069
5.40705
5.40712
5.40715
5.40715
5.40702
5.40722
5.40973
5.42918
5.41889
5.40442
5.42936
5.44218
5.43764
5.43892
5.43435
5.43625
5.43722
5.43784
5.43823
5.43846
5.4386
5.43867
5.4387
5.43858
5.43752
5.43822
5.46375
5.44359
5.43982
5.44013
5.45875
5.54044
5.46938
5.46391
5.46841
5.46869
5.4693
5.46971
5.46997
5.47013
5.47022
5.4703
5.47038
5.47039
5.46922
5.47368
5.50958
5.47748
5.46875
5.47162
5.48353
5.57424
5.49324
5.50489
5.49995
5.50139
5.50146
5.50168
5.50182
5.50186
5.50188
5.50196
5.50232
5.50288
5.50526
5.50514
5.53095
5.50283
5.49973
5.50252
5.54892
5.55883
5.56583
5.54277
5.53003
5.5325
5.53315
5.53359
5.5337
5.53359
5.5334
5.53316
5.53262
5.5321
5.53376
5.5552
5.53161
5.53475
5.53162
5.53388
5.58962
5.60082
5.58868
5.604
5.5794
5.56365
5.56502
5.56573
5.56576
5.56543
5.56501
5.56466
5.56469
5.56525
5.56923
5.57594
5.56817
5.56774
5.56229
5.56734
5.62357
5.63587
5.64326
5.61869
5.60585
5.61201
5.59731
5.59831
5.5981
5.59736
5.59648
5.59544
5.59384
5.59108
5.60956
5.60155
5.6
5.596
5.58919
5.59676
5.64135
5.6662
5.64836
5.64342
5.63609
5.64132
5.64024
5.63242
5.63105
5.62956
5.6283
5.62709
5.62505
5.6312
5.62907
5.63007
5.62305
5.74729
5.70781
5.63791
5.67993
5.6786
5.84595
5.85923
5.68232
5.6833
5.67468
5.66922
5.66433
5.66166
5.66017
5.65932
5.65967
5.66046
5.66482
5.6738
5.87193
5.85249
5.70497
5.69429
5.72599
5.7329
5.746
5.89428