/*--------------------------------*- C++ -*----------------------------------*\
| =========                 |                                                 |
| \\      /  F ield         | OpenFOAM: The Open Source CFD Toolbox           |
|  \\    /   O peration     | Version:  5.x                                   |
|   \\  /    A nd           | Web:      www.OpenFOAM.org                      |
|    \\/     M anipulation  |                                                 |
\*---------------------------------------------------------------------------*/
FoamFile
{
    version     2.0;
    format      ascii;
    class       surfaceScalarField;
    location    "0.35";
    object      phi;
}
// * * * * * * * * * * * * * * * * * * * * * * * * * * * * * * * * * * * * * //

dimensions      [0 3 -1 0 0 0 0];

internalField   nonuniform List<scalar> 
15580
(
-4.11142e-18
-5.23288e-11
-1.00142e-17
-9.70855e-11
-2.64364e-17
-1.04312e-10
-4.69142e-17
-8.92351e-11
-6.44991e-17
-6.24938e-11
-7.31491e-17
-3.151e-11
-4.65838e-17
-1.45958e-12
-2.5717e-17
2.40142e-11
-1.34216e-17
4.23669e-11
-4.82826e-18
5.19515e-11
3.87429e-18
5.19515e-11
1.70078e-17
4.23669e-11
3.9216e-17
2.40142e-11
6.83495e-17
-1.45959e-12
6.4749e-17
-3.151e-11
5.49487e-17
-6.24938e-11
4.38464e-17
-8.9235e-11
3.46388e-17
-1.04312e-10
2.56126e-17
-9.70853e-11
-5.23286e-11
3.33441e-18
-5.23288e-11
-1.37588e-17
-9.70855e-11
-3.57493e-17
-1.04312e-10
-6.28971e-17
-8.92351e-11
-8.89476e-17
-6.24938e-11
-1.08169e-16
-3.151e-11
-8.20682e-17
-1.4596e-12
-5.34359e-17
2.40142e-11
-3.20975e-17
4.23669e-11
-1.49981e-17
5.19515e-11
2.61167e-18
5.19515e-11
2.59012e-17
4.23668e-11
5.82218e-17
2.40141e-11
9.03768e-17
-1.45962e-12
8.00721e-17
-3.151e-11
6.55157e-17
-6.24937e-11
5.24981e-17
-8.9235e-11
4.4487e-17
-1.04312e-10
3.64555e-17
-9.70853e-11
-5.23285e-11
-1.50438e-17
-5.23288e-11
-2.85442e-17
-9.70855e-11
-4.94515e-17
-1.04312e-10
-7.34327e-17
-8.9235e-11
-9.3872e-17
-6.24937e-11
-1.02586e-16
-3.151e-11
-8.70852e-17
-1.45962e-12
-6.52418e-17
2.40141e-11
-4.51919e-17
4.23668e-11
-2.65794e-17
5.19515e-11
-7.01181e-18
5.19515e-11
1.58515e-17
4.23668e-11
4.2621e-17
2.40141e-11
6.58417e-17
-1.45965e-12
6.73587e-17
-3.151e-11
5.99684e-17
-6.24937e-11
5.10767e-17
-8.9235e-11
4.48113e-17
-1.04312e-10
3.61562e-17
-9.70853e-11
-5.23285e-11
-2.20269e-17
-5.23288e-11
-4.20317e-17
-9.70855e-11
-6.25404e-17
-1.04312e-10
-8.16981e-17
-8.9235e-11
-9.53376e-17
-6.24937e-11
-9.88895e-17
-3.151e-11
-8.93545e-17
-1.45963e-12
-7.38593e-17
2.40141e-11
-5.69521e-17
4.23668e-11
-3.94273e-17
5.19515e-11
-2.10767e-17
5.19515e-11
-9.45417e-19
4.23668e-11
2.00037e-17
2.40141e-11
3.73488e-17
-1.45967e-12
4.41743e-17
-3.151e-11
4.30495e-17
-6.24937e-11
3.74145e-17
-8.9235e-11
2.98369e-17
-1.04312e-10
1.84225e-17
-9.70853e-11
-5.23285e-11
-2.73148e-17
-5.23287e-11
-5.42002e-17
-9.70855e-11
-7.61112e-17
-1.04312e-10
-9.24501e-17
-8.9235e-11
-1.01963e-16
-6.24937e-11
-1.03121e-16
-3.151e-11
-9.6082e-17
-1.45964e-12
-8.39787e-17
2.40141e-11
-6.94019e-17
4.23668e-11
-5.37387e-17
5.19515e-11
-3.69635e-17
5.19515e-11
-1.95134e-17
4.23668e-11
-2.3193e-18
2.40141e-11
1.22989e-17
-1.45968e-12
2.11784e-17
-3.15101e-11
2.3783e-17
-6.24937e-11
2.08768e-17
-8.9235e-11
1.17641e-17
-1.04312e-10
-5.22515e-18
-9.70853e-11
-5.23285e-11
-3.39942e-17
-5.23287e-11
-6.87721e-17
-9.70854e-11
-9.2811e-17
-1.04312e-10
-1.0732e-16
-8.9235e-11
-1.13824e-16
-6.24937e-11
-1.13219e-16
-3.151e-11
-1.06396e-16
-1.45964e-12
-9.57681e-17
2.40141e-11
-8.27785e-17
4.23668e-11
-6.86555e-17
5.19514e-11
-5.3846e-17
5.19514e-11
-3.88366e-17
4.23668e-11
-2.39725e-17
2.40141e-11
-1.05729e-17
-1.45969e-12
-4.56463e-20
-3.15101e-11
7.03276e-18
-6.24937e-11
1.00093e-17
-8.9235e-11
7.00445e-18
-1.04312e-10
-3.62994e-18
-9.70853e-11
-5.23285e-11
-4.71008e-17
-5.23287e-11
-8.67829e-17
-9.70854e-11
-1.11847e-16
-1.04312e-10
-1.24761e-16
-8.9235e-11
-1.28513e-16
-6.24937e-11
-1.25661e-16
-3.151e-11
-1.18269e-16
-1.45965e-12
-1.07848e-16
2.40141e-11
-9.59156e-17
4.23668e-11
-8.34223e-17
5.19514e-11
-7.07911e-17
5.19514e-11
-5.81938e-17
4.23667e-11
-4.56642e-17
2.4014e-11
-3.35226e-17
-1.45971e-12
-2.1931e-17
-3.15101e-11
-1.06131e-17
-6.24938e-11
-3.39426e-19
-8.9235e-11
7.11063e-18
-1.04312e-10
1.48572e-17
-9.70853e-11
-5.23285e-11
-5.81768e-17
-5.23286e-11
-1.03471e-16
-9.70853e-11
-1.29462e-16
-1.04312e-10
-1.40486e-16
-8.9235e-11
-1.41754e-16
-6.24937e-11
-1.36878e-16
-3.151e-11
-1.28353e-16
-1.45966e-12
-1.18037e-16
2.40141e-11
-1.07209e-16
4.23668e-11
-9.65874e-17
5.19514e-11
-8.64573e-17
5.19514e-11
-7.68361e-17
4.23667e-11
-6.74492e-17
2.4014e-11
-5.80634e-17
-1.45972e-12
-4.80853e-17
-3.15101e-11
-3.67069e-17
-6.24938e-11
-2.4221e-17
-8.9235e-11
-1.12259e-17
-1.04312e-10
8.69857e-18
-9.70853e-11
-5.23285e-11
-6.77016e-17
-5.23285e-11
-1.15329e-16
-9.70853e-11
-1.40894e-16
-1.04312e-10
-1.50013e-16
-8.9235e-11
-1.49158e-16
-6.24937e-11
-1.4274e-16
-3.151e-11
-1.33708e-16
-1.45967e-12
-1.23974e-16
2.40141e-11
-1.14563e-16
4.23668e-11
-1.06245e-16
5.19514e-11
-9.9171e-17
5.19514e-11
-9.32453e-17
4.23667e-11
-8.81011e-17
2.4014e-11
-8.35301e-17
-1.45972e-12
-7.86016e-17
-3.15101e-11
-7.26586e-17
-6.24938e-11
-6.56113e-17
-8.9235e-11
-5.74879e-17
-1.04312e-10
-4.74108e-17
-9.70853e-11
-5.23285e-11
-7.27061e-17
-5.23285e-11
-1.19086e-16
-9.70852e-11
-1.42342e-16
-1.04312e-10
-1.49451e-16
-8.92349e-11
-1.47084e-16
-6.24937e-11
-1.40251e-16
-3.151e-11
-1.31816e-16
-1.45968e-12
-1.23357e-16
2.40141e-11
-1.16182e-16
4.23667e-11
-1.10616e-16
5.19514e-11
-1.06907e-16
5.19514e-11
-1.05005e-16
4.23667e-11
-1.04837e-16
2.4014e-11
-1.06009e-16
-1.45973e-12
-1.07566e-16
-3.15101e-11
-1.08925e-16
-6.24938e-11
-1.08846e-16
-8.9235e-11
-1.04581e-16
-1.04312e-10
-8.98018e-17
-9.70853e-11
-5.23286e-11
-7.13865e-17
-5.23284e-11
-1.13302e-16
-9.70852e-11
-1.31838e-16
-1.04312e-10
-1.36639e-16
-8.92349e-11
-1.33957e-16
-6.24937e-11
-1.28047e-16
-3.151e-11
-1.21327e-16
-1.45969e-12
-1.15204e-16
2.40141e-11
-1.10694e-16
4.23667e-11
-1.08116e-16
5.19514e-11
-1.07802e-16
5.19514e-11
-1.09802e-16
4.23667e-11
-1.14164e-16
2.4014e-11
-1.20295e-16
-1.45972e-12
-1.27385e-16
-3.15101e-11
-1.34557e-16
-6.24938e-11
-1.38889e-16
-8.9235e-11
-1.35314e-16
-1.04312e-10
-9.63868e-17
-9.70854e-11
-5.23287e-11
-6.71541e-17
-5.23283e-11
-9.84219e-17
-9.70852e-11
-1.09751e-16
-1.04312e-10
-1.11967e-16
-8.92349e-11
-1.09931e-16
-6.24937e-11
-1.06179e-16
-3.15101e-11
-1.02302e-16
-1.4597e-12
-9.92119e-17
2.4014e-11
-9.75387e-17
4.23667e-11
-9.78795e-17
5.19514e-11
-1.00498e-16
5.19514e-11
-1.05592e-16
4.23667e-11
-1.13023e-16
2.4014e-11
-1.22358e-16
-1.45971e-12
-1.32981e-16
-3.15101e-11
-1.43122e-16
-6.24938e-11
-1.47782e-16
-8.9235e-11
-1.41171e-16
-1.04312e-10
-9.41993e-17
-9.70854e-11
-5.23288e-11
-5.61117e-17
-5.23283e-11
-7.10269e-17
-9.70852e-11
-7.53384e-17
-1.04312e-10
-7.62134e-17
-8.92349e-11
-7.63048e-17
-6.24937e-11
-7.59539e-17
-3.15101e-11
-7.56581e-17
-1.4597e-12
-7.57748e-17
2.4014e-11
-7.70143e-17
4.23667e-11
-7.98825e-17
5.19514e-11
-8.46125e-17
5.19514e-11
-9.13763e-17
4.23667e-11
-1.00032e-16
2.4014e-11
-1.1047e-16
-1.4597e-12
-1.22197e-16
-3.15101e-11
-1.32484e-16
-6.24938e-11
-1.37096e-16
-8.9235e-11
-1.27524e-16
-1.04312e-10
-9.76589e-17
-9.70855e-11
-5.23289e-11
-1.96117e-17
-5.23283e-11
-2.60005e-17
-9.70852e-11
-2.84434e-17
-1.04312e-10
-3.10103e-17
-8.92349e-11
-3.53289e-17
-6.24937e-11
-3.93591e-17
-3.15101e-11
-4.2905e-17
-1.4597e-12
-4.62795e-17
2.4014e-11
-5.0216e-17
4.23667e-11
-5.49625e-17
5.19514e-11
-6.08599e-17
5.19514e-11
-6.78317e-17
4.23667e-11
-7.57606e-17
2.4014e-11
-8.43286e-17
-1.4597e-12
-9.14071e-17
-3.15101e-11
-9.67618e-17
-6.24938e-11
-9.82354e-17
-8.9235e-11
-8.46885e-17
-1.04312e-10
-6.42085e-17
-9.70855e-11
-5.2329e-11
2.21068e-17
-5.23283e-11
2.6453e-17
-9.70852e-11
2.33976e-17
-1.04312e-10
1.75674e-17
-8.92349e-11
8.79515e-18
-6.24937e-11
5.73032e-19
-3.151e-11
-6.59456e-18
-1.45969e-12
-1.30386e-17
2.4014e-11
-1.91012e-17
4.23667e-11
-2.50586e-17
5.19514e-11
-3.13133e-17
5.19514e-11
-3.76449e-17
4.23667e-11
-4.35312e-17
2.40141e-11
-4.81493e-17
-1.45969e-12
-4.8982e-17
-3.15101e-11
-4.57381e-17
-6.24938e-11
-4.26402e-17
-8.9235e-11
-2.37884e-17
-1.04312e-10
1.06461e-17
-9.70855e-11
-5.2329e-11
7.09596e-17
-5.23284e-11
7.70971e-17
-9.70852e-11
7.26058e-17
-1.04312e-10
6.31033e-17
-8.92349e-11
5.10069e-17
-6.24937e-11
3.95861e-17
-3.151e-11
2.98022e-17
-1.45969e-12
2.12918e-17
2.40141e-11
1.38557e-17
4.23667e-11
7.21605e-18
5.19514e-11
1.34805e-18
5.19514e-11
-3.62305e-18
4.23667e-11
-7.35576e-18
2.40141e-11
-9.39243e-18
-1.45969e-12
-1.0038e-17
-3.15101e-11
-8.77122e-18
-6.24938e-11
-1.96267e-18
-8.9235e-11
1.4764e-17
-1.04312e-10
3.21343e-17
-9.70855e-11
-5.23289e-11
9.07215e-17
-5.23284e-11
1.07646e-16
-9.70852e-11
1.07209e-16
-1.04312e-10
9.82341e-17
-8.92349e-11
8.69515e-17
-6.24937e-11
7.46431e-17
-3.151e-11
6.35162e-17
-1.45968e-12
5.39687e-17
2.40141e-11
4.5917e-17
4.23667e-11
3.93206e-17
5.19514e-11
3.43705e-17
5.19514e-11
3.08684e-17
4.23667e-11
2.85881e-17
2.40141e-11
2.80784e-17
-1.4597e-12
2.80726e-17
-3.15101e-11
2.5564e-17
-6.24938e-11
2.96284e-17
-8.9235e-11
2.78543e-17
-1.04312e-10
2.42673e-17
-9.70855e-11
-5.23289e-11
6.98922e-17
-5.23285e-11
1.09946e-16
-9.70852e-11
1.22558e-16
-1.04312e-10
1.21597e-16
-8.92349e-11
1.14591e-16
-6.24937e-11
1.03582e-16
-3.151e-11
9.22828e-17
-1.45967e-12
8.25498e-17
2.40141e-11
7.47097e-17
4.23668e-11
6.879e-17
5.19514e-11
6.45101e-17
5.19514e-11
6.14586e-17
4.23667e-11
5.92711e-17
2.40141e-11
5.89109e-17
-1.4597e-12
5.97974e-17
-3.15101e-11
5.96424e-17
-6.24938e-11
6.45457e-17
-8.9235e-11
5.58193e-17
-1.04312e-10
2.965e-17
-9.70855e-11
-5.23289e-11
5.26292e-17
-5.23286e-11
1.03737e-16
-9.70853e-11
1.28782e-16
-1.04312e-10
1.36282e-16
-8.92349e-11
1.34002e-16
-6.24937e-11
1.25391e-16
-3.151e-11
1.14784e-16
-1.45966e-12
1.05568e-16
2.40141e-11
9.85867e-17
4.23668e-11
9.34953e-17
5.19514e-11
8.96078e-17
5.19514e-11
8.65537e-17
4.23667e-11
8.44971e-17
2.40141e-11
8.36883e-17
-1.4597e-12
8.1741e-17
-3.15101e-11
8.10166e-17
-6.24938e-11
7.88082e-17
-8.9235e-11
7.14161e-17
-1.04312e-10
4.07435e-17
-9.70855e-11
-5.23288e-11
4.32268e-17
-5.23286e-11
1.01556e-16
-9.70854e-11
1.33443e-16
-1.04312e-10
1.44602e-16
-8.9235e-11
1.45369e-16
-6.24937e-11
1.39525e-16
-3.151e-11
1.30684e-16
-1.45965e-12
1.22644e-16
2.40141e-11
1.16737e-16
4.23668e-11
1.12338e-16
5.19514e-11
1.08968e-16
5.19514e-11
1.0651e-16
4.23667e-11
1.05309e-16
2.40141e-11
1.05069e-16
-1.4597e-12
1.03745e-16
-3.15101e-11
1.03992e-16
-6.24938e-11
9.46337e-17
-8.9235e-11
7.70336e-17
-1.04312e-10
4.64077e-17
-9.70855e-11
-5.23288e-11
6.90787e-17
-5.23287e-11
1.14452e-16
-9.70854e-11
1.38179e-16
-1.04312e-10
1.4623e-16
-8.9235e-11
1.47571e-16
-6.24937e-11
1.44764e-16
-3.151e-11
1.39504e-16
-1.45965e-12
1.3375e-16
2.40141e-11
1.2895e-16
4.23668e-11
1.25306e-16
5.19514e-11
1.22661e-16
5.19514e-11
1.20937e-16
4.23667e-11
1.20301e-16
2.4014e-11
1.20006e-16
-1.45971e-12
1.2191e-16
-3.15101e-11
1.25743e-16
-6.24938e-11
1.15847e-16
-8.9235e-11
8.94741e-17
-1.04312e-10
5.32752e-17
-9.70854e-11
-5.23287e-11
8.38661e-17
-5.23288e-11
1.13896e-16
-9.70854e-11
1.28864e-16
-1.04312e-10
1.35362e-16
-8.9235e-11
1.38208e-16
-6.24937e-11
1.39525e-16
-3.151e-11
1.39508e-16
-1.45966e-12
1.37641e-16
2.40141e-11
1.34866e-16
4.23668e-11
1.32428e-16
5.19514e-11
1.30401e-16
5.19514e-11
1.28713e-16
4.23667e-11
1.27449e-16
2.4014e-11
1.26709e-16
-1.45971e-12
1.28112e-16
-3.15101e-11
1.29189e-16
-6.24938e-11
1.2327e-16
-8.9235e-11
1.00665e-16
-1.04312e-10
6.01707e-17
-9.70854e-11
-5.23287e-11
5.66311e-17
-5.23288e-11
7.91906e-17
-9.70855e-11
9.68799e-17
-1.04312e-10
1.08859e-16
-8.9235e-11
1.17532e-16
-6.24937e-11
1.24802e-16
-3.151e-11
1.30216e-16
-1.45966e-12
1.32988e-16
2.40141e-11
1.33638e-16
4.23668e-11
1.33076e-16
5.19514e-11
1.31938e-16
5.19514e-11
1.30824e-16
4.23667e-11
1.29696e-16
2.4014e-11
1.28738e-16
-1.45971e-12
1.28255e-16
-3.15101e-11
1.25862e-16
-6.24938e-11
1.21916e-16
-8.9235e-11
1.0606e-16
-1.04312e-10
6.73765e-17
-9.70854e-11
-5.23286e-11
1.2664e-17
-5.23288e-11
2.39533e-17
-9.70855e-11
4.9004e-17
-1.04312e-10
7.26902e-17
-8.9235e-11
9.08905e-17
-6.24937e-11
1.05032e-16
-3.151e-11
1.15264e-16
-1.45968e-12
1.21896e-16
2.40141e-11
1.25615e-16
4.23668e-11
1.27357e-16
5.19514e-11
1.28224e-16
5.19514e-11
1.28644e-16
4.23667e-11
1.28506e-16
2.4014e-11
1.28912e-16
-1.45972e-12
1.28989e-16
-3.15101e-11
1.25059e-16
-6.24938e-11
1.19455e-16
-8.9235e-11
1.08085e-16
-1.04312e-10
7.43183e-17
-9.70853e-11
-5.23285e-11
-7.0839e-17
-5.23288e-11
-3.65359e-17
-9.70855e-11
5.23668e-18
-1.04312e-10
4.11552e-17
-8.92351e-11
6.7681e-17
-6.24938e-11
8.64983e-17
-3.15101e-11
9.96594e-17
-1.4597e-12
1.08392e-16
2.40141e-11
1.1389e-16
4.23667e-11
1.17434e-16
5.19514e-11
1.19886e-16
5.19514e-11
1.21342e-16
4.23667e-11
1.21898e-16
2.4014e-11
1.23836e-16
-1.45973e-12
1.25696e-16
-3.15101e-11
1.21587e-16
-6.24938e-11
1.14851e-16
-8.9235e-11
1.06516e-16
-1.04312e-10
7.61495e-17
-9.70853e-11
-5.23285e-11
-8.30795e-17
-5.23287e-11
-3.61705e-17
-9.70856e-11
2.63004e-18
-1.04312e-10
3.428e-17
-8.92351e-11
5.89472e-17
-6.24938e-11
7.53203e-17
-3.15101e-11
8.70045e-17
-1.45971e-12
9.49318e-17
2.4014e-11
1.003e-16
4.23667e-11
1.03986e-16
5.19514e-11
1.06351e-16
5.19514e-11
1.0736e-16
4.23667e-11
1.07657e-16
2.4014e-11
1.09159e-16
-1.45973e-12
1.10176e-16
-3.15101e-11
1.07866e-16
-6.24938e-11
1.03306e-16
-8.9235e-11
9.64276e-17
-1.04312e-10
6.83593e-17
-9.70853e-11
-5.23284e-11
4.48419e-17
-5.23287e-11
3.60013e-17
-9.70856e-11
4.3355e-17
-1.04312e-10
5.56449e-17
-8.92351e-11
6.51564e-17
-6.24938e-11
7.19154e-17
-3.15101e-11
7.73073e-17
-1.45972e-12
8.13274e-17
2.4014e-11
8.41966e-17
4.23667e-11
8.60113e-17
5.19514e-11
8.679e-17
5.19514e-11
8.64518e-17
4.23667e-11
8.58922e-17
2.4014e-11
8.48632e-17
-1.45973e-12
8.27504e-17
-3.15101e-11
8.19085e-17
-6.24938e-11
8.0686e-17
-8.9235e-11
7.40402e-17
-1.04312e-10
4.88292e-17
-9.70853e-11
-5.23284e-11
8.05783e-17
-5.23288e-11
8.50349e-17
-9.70856e-11
7.90073e-17
-1.04312e-10
7.62837e-17
-8.92351e-11
7.28603e-17
-6.24938e-11
6.97036e-17
-3.15101e-11
6.70633e-17
-1.45972e-12
6.54225e-17
2.4014e-11
6.41915e-17
4.23667e-11
6.30014e-17
5.19514e-11
6.16072e-17
5.19514e-11
5.98937e-17
4.23667e-11
5.7906e-17
2.4014e-11
5.32386e-17
-1.45973e-12
4.7917e-17
-3.15101e-11
4.70924e-17
-6.24938e-11
4.79439e-17
-8.9235e-11
4.18026e-17
-1.04312e-10
2.26079e-17
-9.70852e-11
-5.23283e-11
1.06123e-16
-5.23289e-11
1.07754e-16
-9.70856e-11
9.45177e-17
-1.04312e-10
8.46582e-17
-8.92351e-11
7.22081e-17
-6.24938e-11
6.17211e-17
-3.15101e-11
5.23493e-17
-1.45971e-12
4.50858e-17
2.4014e-11
3.96089e-17
4.23667e-11
3.53741e-17
5.19514e-11
3.19251e-17
5.19514e-11
2.87946e-17
4.23667e-11
2.42505e-17
2.4014e-11
1.60805e-17
-1.45972e-12
8.32606e-18
-3.15101e-11
7.25617e-18
-6.24938e-11
1.01057e-17
-8.9235e-11
9.89923e-18
-1.04312e-10
2.89242e-18
-9.70852e-11
-5.23283e-11
7.27766e-17
-5.2329e-11
8.45826e-17
-9.70856e-11
8.19639e-17
-1.04312e-10
6.93027e-17
-8.92351e-11
5.60034e-17
-6.24938e-11
4.28544e-17
-3.15101e-11
3.04132e-17
-1.4597e-12
1.95515e-17
2.4014e-11
1.08084e-17
4.23667e-11
3.91627e-18
5.19514e-11
-1.60744e-18
5.19514e-11
-6.84852e-18
4.23667e-11
-1.47774e-17
2.4014e-11
-2.60204e-17
-1.45972e-12
-3.53578e-17
-3.15101e-11
-3.69033e-17
-6.24938e-11
-3.26025e-17
-8.9235e-11
-2.55749e-17
-1.04312e-10
-1.30146e-17
-9.70853e-11
-5.23283e-11
1.032e-17
-5.2329e-11
3.91575e-17
-9.70856e-11
4.60278e-17
-1.04312e-10
3.74641e-17
-8.92351e-11
2.68911e-17
-6.24938e-11
1.47385e-17
-3.15101e-11
1.79304e-18
-1.45969e-12
-1.05375e-17
2.40141e-11
-2.13083e-17
4.23667e-11
-3.0512e-17
5.19514e-11
-3.85175e-17
5.19514e-11
-4.70033e-17
4.23667e-11
-5.94708e-17
2.4014e-11
-7.33482e-17
-1.4597e-12
-8.22673e-17
-3.15101e-11
-8.49663e-17
-6.24938e-11
-8.18276e-17
-8.9235e-11
-7.25199e-17
-1.04312e-10
-5.13148e-17
-9.70853e-11
-5.23284e-11
5.31535e-19
-5.2329e-11
1.27996e-17
-9.70856e-11
1.51711e-17
-1.04312e-10
7.56191e-18
-8.92351e-11
-3.39353e-18
-6.24938e-11
-1.72039e-17
-3.15101e-11
-3.06653e-17
-1.45968e-12
-4.33166e-17
2.40141e-11
-5.50888e-17
4.23668e-11
-6.62185e-17
5.19514e-11
-7.69303e-17
5.19514e-11
-8.89257e-17
4.23667e-11
-1.05401e-16
2.40141e-11
-1.20659e-16
-1.45969e-12
-1.28311e-16
-3.15101e-11
-1.31951e-16
-6.24938e-11
-1.28788e-16
-8.92351e-11
-1.13885e-16
-1.04312e-10
-7.73573e-17
-9.70853e-11
-5.23285e-11
9.85429e-18
-5.2329e-11
2.02712e-18
-9.70856e-11
-1.23402e-17
-1.04312e-10
-2.71605e-17
-8.92351e-11
-4.03237e-17
-6.24938e-11
-5.25264e-17
-3.151e-11
-6.49102e-17
-1.45967e-12
-7.65567e-17
2.40141e-11
-8.80977e-17
4.23668e-11
-1.00457e-16
5.19514e-11
-1.13493e-16
5.19514e-11
-1.2955e-16
4.23668e-11
-1.46745e-16
2.40141e-11
-1.58597e-16
-1.45968e-12
-1.67393e-16
-3.15101e-11
-1.7368e-16
-6.24938e-11
-1.68344e-16
-8.92351e-11
-1.41964e-16
-1.04312e-10
-7.24777e-17
-9.70854e-11
-5.23286e-11
-1.06224e-19
-5.2329e-11
-2.85006e-17
-9.70856e-11
-5.07231e-17
-1.04312e-10
-6.5985e-17
-8.92351e-11
-7.8481e-17
-6.24937e-11
-8.69772e-17
-3.151e-11
-9.69565e-17
-1.45966e-12
-1.06795e-16
2.40141e-11
-1.16814e-16
4.23668e-11
-1.28863e-16
5.19514e-11
-1.43425e-16
5.19514e-11
-1.60062e-16
4.23668e-11
-1.74671e-16
2.40141e-11
-1.87028e-16
-1.45967e-12
-2.00267e-16
-3.15101e-11
-2.11586e-16
-6.24938e-11
-2.11707e-16
-8.92351e-11
-1.81378e-16
-1.04312e-10
-1.13603e-16
-9.70855e-11
-5.23287e-11
-3.08572e-17
-5.2329e-11
-7.23357e-17
-9.70856e-11
-9.20839e-17
-1.04312e-10
-1.00243e-16
-8.9235e-11
-1.10477e-16
-6.24937e-11
-1.17447e-16
-3.151e-11
-1.23128e-16
-1.45966e-12
-1.30694e-16
2.40141e-11
-1.38107e-16
4.23668e-11
-1.47361e-16
5.19514e-11
-1.59251e-16
5.19514e-11
-1.73147e-16
4.23668e-11
-1.86175e-16
2.40141e-11
-2.02041e-16
-1.45966e-12
-2.19787e-16
-3.151e-11
-2.37375e-16
-6.24938e-11
-2.44297e-16
-8.92351e-11
-2.13981e-16
-1.04312e-10
-1.47161e-16
-9.70855e-11
-5.23288e-11
-5.84968e-17
-5.2329e-11
-1.05821e-16
-9.70855e-11
-1.25326e-16
-1.04312e-10
-1.30441e-16
-8.9235e-11
-1.36651e-16
-6.24937e-11
-1.39418e-16
-3.151e-11
-1.40985e-16
-1.45966e-12
-1.44286e-16
2.40141e-11
-1.48414e-16
4.23668e-11
-1.53103e-16
5.19514e-11
-1.59908e-16
5.19514e-11
-1.68727e-16
4.23668e-11
-1.80473e-16
2.40141e-11
-1.95942e-16
-1.45964e-12
-2.1458e-16
-3.151e-11
-2.33899e-16
-6.24937e-11
-2.36034e-16
-8.92351e-11
-1.98724e-16
-1.04312e-10
-1.14844e-16
-9.70856e-11
-5.23289e-11
-7.76123e-17
-5.23289e-11
-1.25431e-16
-9.70855e-11
-1.47753e-16
-1.04312e-10
-1.52947e-16
-8.9235e-11
-1.52374e-16
-6.24937e-11
-1.50568e-16
-3.151e-11
-1.46768e-16
-1.45967e-12
-1.44273e-16
2.40141e-11
-1.44567e-16
4.23668e-11
-1.44936e-16
5.19514e-11
-1.46419e-16
5.19514e-11
-1.51015e-16
4.23668e-11
-1.61938e-16
2.40141e-11
-1.7344e-16
-1.45963e-12
-1.89319e-16
-3.151e-11
-2.03789e-16
-6.24937e-11
-2.00399e-16
-8.92351e-11
-1.67197e-16
-1.04312e-10
-1.07886e-16
-9.70857e-11
-5.2329e-11
-8.98524e-17
-5.23288e-11
-1.35265e-16
-9.70854e-11
-1.58383e-16
-1.04312e-10
-1.64302e-16
-8.9235e-11
-1.58574e-16
-6.24937e-11
-1.5271e-16
-3.151e-11
-1.43918e-16
-1.45968e-12
-1.35115e-16
2.40141e-11
-1.2864e-16
4.23668e-11
-1.23907e-16
5.19514e-11
-1.21995e-16
5.19514e-11
-1.24521e-16
4.23668e-11
-1.30837e-16
2.40141e-11
-1.38701e-16
-1.45963e-12
-1.48152e-16
-3.151e-11
-1.52249e-16
-6.24937e-11
-1.41709e-16
-8.92351e-11
-1.19474e-16
-1.04312e-10
-9.74252e-17
-9.70857e-11
-5.23291e-11
-9.72345e-17
-5.23287e-11
-1.37294e-16
-9.70854e-11
-1.56986e-16
-1.04312e-10
-1.62982e-16
-8.9235e-11
-1.55781e-16
-6.24938e-11
-1.44433e-16
-3.15101e-11
-1.32239e-16
-1.45969e-12
-1.19008e-16
2.40141e-11
-1.05999e-16
4.23668e-11
-9.57831e-17
5.19514e-11
-9.26141e-17
5.19514e-11
-9.3951e-17
4.23668e-11
-9.27369e-17
2.40141e-11
-9.35577e-17
-1.45963e-12
-9.38579e-17
-3.151e-11
-8.4411e-17
-6.24937e-11
-6.41079e-17
-8.92351e-11
-4.8828e-17
-1.04312e-10
-2.54151e-17
-9.70857e-11
-5.23292e-11
-1.00885e-16
-5.23286e-11
-1.32879e-16
-9.70854e-11
-1.45094e-16
-1.04312e-10
-1.48505e-16
-8.9235e-11
-1.40333e-16
-6.24938e-11
-1.26016e-16
-3.15101e-11
-1.11218e-16
-1.45971e-12
-9.53039e-17
2.4014e-11
-7.91098e-17
4.23667e-11
-6.72966e-17
5.19514e-11
-6.27134e-17
5.19514e-11
-5.97458e-17
4.23668e-11
-5.33991e-17
2.40141e-11
-4.64343e-17
-1.45964e-12
-3.7126e-17
-3.151e-11
-1.93861e-17
-6.24938e-11
1.97251e-19
-8.92351e-11
5.72626e-18
-1.04312e-10
2.22816e-18
-9.70857e-11
-5.23292e-11
-9.9531e-17
-5.23285e-11
-1.22053e-16
-9.70853e-11
-1.24304e-16
-1.04312e-10
-1.2236e-16
-8.9235e-11
-1.12079e-16
-6.24938e-11
-9.70276e-17
-3.15101e-11
-8.08708e-17
-1.45972e-12
-6.52329e-17
2.4014e-11
-5.19593e-17
4.23667e-11
-4.26003e-17
5.19514e-11
-3.49762e-17
5.19514e-11
-2.59218e-17
4.23668e-11
-1.45982e-17
2.40141e-11
-1.60073e-18
-1.45965e-12
1.49826e-17
-3.151e-11
3.59454e-17
-6.24938e-11
5.20547e-17
-8.92351e-11
4.69399e-17
-1.04312e-10
1.85409e-17
-9.70857e-11
-5.23291e-11
-8.85826e-17
-5.23284e-11
-1.02009e-16
-9.70853e-11
-9.51441e-17
-1.04312e-10
-8.67975e-17
-8.9235e-11
-7.47342e-17
-6.24938e-11
-6.01973e-17
-3.15101e-11
-4.57005e-17
-1.45974e-12
-3.32919e-17
2.4014e-11
-2.46528e-17
4.23667e-11
-1.74778e-17
5.19514e-11
-7.6847e-18
5.19514e-11
5.29155e-18
4.23668e-11
2.07227e-17
2.40141e-11
3.84877e-17
-1.45967e-12
5.90335e-17
-3.15101e-11
8.06232e-17
-6.24938e-11
9.32304e-17
-8.92351e-11
8.22705e-17
-1.04312e-10
4.83829e-17
-9.70857e-11
-5.23291e-11
-6.25838e-17
-5.23283e-11
-6.90338e-17
-9.70853e-11
-5.70563e-17
-1.04312e-10
-4.43891e-17
-8.92351e-11
-3.22461e-17
-6.24938e-11
-2.02581e-17
-3.15101e-11
-9.68174e-18
-1.45975e-12
-1.38062e-18
2.4014e-11
4.51413e-18
4.23667e-11
1.05741e-17
5.19514e-11
2.0387e-17
5.19514e-11
3.46184e-17
4.23667e-11
5.20502e-17
2.40141e-11
7.17436e-17
-1.45969e-12
9.29347e-17
-3.15101e-11
1.12343e-16
-6.24938e-11
1.18964e-16
-8.92352e-11
1.02053e-16
-1.04312e-10
6.54384e-17
-9.70856e-11
-5.2329e-11
-2.05564e-17
-5.23283e-11
-2.10771e-17
-9.70853e-11
-9.29105e-18
-1.04312e-10
3.09438e-18
-8.92351e-11
1.2689e-17
-6.24938e-11
2.01765e-17
-3.15101e-11
2.59978e-17
-1.45975e-12
3.03136e-17
2.4014e-11
3.388e-17
4.23667e-11
3.89033e-17
5.19514e-11
4.79898e-17
5.19514e-11
6.15824e-17
4.23667e-11
7.84382e-17
2.4014e-11
9.68783e-17
-1.45971e-12
1.15394e-16
-3.15101e-11
1.29064e-16
-6.24938e-11
1.27476e-16
-8.92352e-11
1.04955e-16
-1.04312e-10
6.66732e-17
-9.70856e-11
-5.2329e-11
3.1544e-17
-5.23284e-11
4.04928e-17
-9.70853e-11
4.75469e-17
-1.04312e-10
5.41701e-17
-8.92351e-11
5.80622e-17
-6.24938e-11
5.95598e-17
-3.15101e-11
6.00399e-17
-1.45976e-12
6.03413e-17
2.4014e-11
6.14773e-17
4.23667e-11
6.51536e-17
5.19514e-11
7.28377e-17
5.19514e-11
8.44859e-17
4.23667e-11
9.86341e-17
2.4014e-11
1.13455e-16
-1.45972e-12
1.26536e-16
-3.15101e-11
1.31697e-16
-6.24938e-11
1.20745e-16
-8.92351e-11
9.3548e-17
-1.04312e-10
5.64353e-17
-9.70855e-11
-5.23289e-11
8.37501e-17
-5.23284e-11
1.07106e-16
-9.70854e-11
1.08349e-16
-1.04312e-10
1.05228e-16
-8.92351e-11
1.0075e-16
-6.24938e-11
9.53777e-17
-3.15101e-11
9.04418e-17
-1.45975e-12
8.68952e-17
2.4014e-11
8.55877e-17
4.23667e-11
8.74976e-17
5.19514e-11
9.31191e-17
5.19514e-11
1.01899e-16
4.23667e-11
1.1233e-16
2.4014e-11
1.22441e-16
-1.45973e-12
1.28862e-16
-3.15101e-11
1.25105e-16
-6.24938e-11
1.06623e-16
-8.92351e-11
7.75339e-17
-1.04312e-10
4.40957e-17
-9.70855e-11
-5.23289e-11
1.28095e-16
-5.23286e-11
1.65184e-16
-9.70854e-11
1.62085e-16
-1.04312e-10
1.49062e-16
-8.92351e-11
1.35739e-16
-6.24938e-11
1.23795e-16
-3.15101e-11
1.14196e-16
-1.45974e-12
1.07513e-16
2.4014e-11
1.04087e-16
4.23667e-11
1.04132e-16
5.19514e-11
1.0749e-16
5.19514e-11
1.13319e-16
4.23667e-11
1.20154e-16
2.4014e-11
1.25774e-16
-1.45974e-12
1.26185e-16
-3.15101e-11
1.15673e-16
-6.24938e-11
9.3094e-17
-8.92351e-11
6.51819e-17
-1.04312e-10
3.69086e-17
-9.70855e-11
-5.23288e-11
1.53671e-16
-5.23287e-11
1.97957e-16
-9.70854e-11
1.93963e-16
-1.04312e-10
1.7569e-16
-8.9235e-11
1.56586e-16
-6.24938e-11
1.40348e-16
-3.15101e-11
1.27951e-16
-1.45973e-12
1.19512e-16
2.4014e-11
1.1481e-16
4.23667e-11
1.13527e-16
5.19514e-11
1.15134e-16
5.19514e-11
1.18716e-16
4.23667e-11
1.22851e-16
2.4014e-11
1.25156e-16
-1.45974e-12
1.21601e-16
-3.15101e-11
1.07829e-16
-6.24938e-11
8.43824e-17
-8.92351e-11
5.91888e-17
-1.04312e-10
3.54769e-17
-9.70855e-11
-5.23288e-11
1.39286e-16
-5.23289e-11
1.87885e-16
-9.70855e-11
1.91092e-16
-1.04312e-10
1.76086e-16
-8.9235e-11
1.57642e-16
-6.24938e-11
1.41461e-16
-3.15101e-11
1.2918e-16
-1.45972e-12
1.20959e-16
2.4014e-11
1.16348e-16
4.23667e-11
1.14781e-16
5.19514e-11
1.15621e-16
5.19514e-11
1.18031e-16
4.23667e-11
1.2068e-16
2.4014e-11
1.21283e-16
-1.45974e-12
1.16324e-16
-3.15101e-11
1.02634e-16
-6.24938e-11
8.07257e-17
-8.92351e-11
5.82914e-17
-1.04312e-10
3.68024e-17
-9.70854e-11
-5.23288e-11
8.88045e-17
-5.2329e-11
1.41332e-16
-9.70856e-11
1.54368e-16
-1.04312e-10
1.49545e-16
-8.9235e-11
1.37998e-16
-6.24938e-11
1.26461e-16
-3.15101e-11
1.1747e-16
-1.45971e-12
1.11598e-16
2.4014e-11
1.08554e-16
4.23667e-11
1.07841e-16
5.19514e-11
1.0896e-16
5.19514e-11
1.11264e-16
4.23667e-11
1.13666e-16
2.4014e-11
1.14255e-16
-1.45974e-12
1.10244e-16
-3.15101e-11
9.91343e-17
-6.24938e-11
8.10548e-17
-8.9235e-11
6.14378e-17
-1.04312e-10
3.93794e-17
-9.70854e-11
-5.23287e-11
4.7445e-17
-5.2329e-11
7.86013e-17
-9.70856e-11
9.92219e-17
-1.04312e-10
1.04876e-16
-8.9235e-11
1.02701e-16
-6.24938e-11
9.85362e-17
-3.15101e-11
9.50645e-17
-1.45971e-12
9.31172e-17
2.4014e-11
9.2734e-17
4.23667e-11
9.3739e-17
5.19514e-11
9.59507e-17
5.19514e-11
9.90748e-17
4.23667e-11
1.02408e-16
2.4014e-11
1.04532e-16
-1.45975e-12
1.03314e-16
-3.15101e-11
9.67603e-17
-6.24938e-11
8.50545e-17
-8.9235e-11
6.91023e-17
-1.04312e-10
4.45235e-17
-9.70854e-11
-5.23287e-11
8.2257e-18
-5.2329e-11
2.33584e-17
-9.70856e-11
4.14692e-17
-1.04312e-10
5.38244e-17
-8.9235e-11
5.99216e-17
-6.24938e-11
6.33524e-17
-3.15101e-11
6.60155e-17
-1.45971e-12
6.85728e-17
2.4014e-11
7.13239e-17
4.23667e-11
7.45017e-17
5.19514e-11
7.83822e-17
5.19514e-11
8.31142e-17
4.23667e-11
8.84014e-17
2.4014e-11
9.32937e-17
-1.45975e-12
9.62728e-17
-3.15101e-11
9.60233e-17
-6.24938e-11
9.24021e-17
-8.9235e-11
8.108e-17
-1.04312e-10
5.38267e-17
-9.70854e-11
-5.23286e-11
-2.64263e-17
-5.2329e-11
-2.59466e-17
-9.70856e-11
-1.1323e-17
-1.04312e-10
4.71287e-18
-8.92351e-11
1.69103e-17
-6.24938e-11
2.66494e-17
-3.15101e-11
3.47016e-17
-1.45972e-12
4.13928e-17
2.4014e-11
4.71777e-17
4.23667e-11
5.26551e-17
5.19514e-11
5.85476e-17
5.19514e-11
6.54109e-17
4.23667e-11
7.33237e-17
2.4014e-11
8.17758e-17
-1.45976e-12
8.9854e-17
-3.15101e-11
9.67627e-17
-6.24938e-11
1.00913e-16
-8.9235e-11
9.44495e-17
-1.04312e-10
6.58661e-17
-9.70853e-11
-5.23286e-11
-5.00285e-17
-5.23289e-11
-6.30582e-17
-9.70856e-11
-5.32691e-17
-1.04312e-10
-3.61132e-17
-8.92351e-11
-2.05708e-17
-6.24938e-11
-6.90826e-18
-3.15101e-11
4.74728e-18
-1.45973e-12
1.44671e-17
2.4014e-11
2.27085e-17
4.23667e-11
3.02653e-17
5.19514e-11
3.8168e-17
5.19513e-11
4.72969e-17
4.23667e-11
5.80323e-17
2.4014e-11
7.01695e-17
-1.45977e-12
8.31928e-17
-3.15101e-11
9.62967e-17
-6.24938e-11
1.06075e-16
-8.9235e-11
1.0379e-16
-1.04312e-10
7.55027e-17
-9.70853e-11
-5.23285e-11
-6.12658e-17
-5.23289e-11
-8.43042e-17
-9.70856e-11
-8.09464e-17
-1.04312e-10
-6.53415e-17
-8.92351e-11
-4.93028e-17
-6.24938e-11
-3.45043e-17
-3.15101e-11
-2.15061e-17
-1.45974e-12
-1.0369e-17
2.4014e-11
-7.19962e-19
4.23667e-11
8.33093e-18
5.19513e-11
1.79677e-17
5.19513e-11
2.91695e-17
4.23667e-11
4.23064e-17
2.4014e-11
5.71825e-17
-1.45979e-12
7.3435e-17
-3.15102e-11
8.99997e-17
-6.24938e-11
1.02472e-16
-8.92351e-11
1.02881e-16
-1.04312e-10
7.66394e-17
-9.70853e-11
-5.23284e-11
-6.16131e-17
-5.23288e-11
-9.04272e-17
-9.70855e-11
-9.44503e-17
-1.04312e-10
-8.30467e-17
-8.92351e-11
-6.88173e-17
-6.24938e-11
-5.51703e-17
-3.15101e-11
-4.28633e-17
-1.45976e-12
-3.19885e-17
2.4014e-11
-2.21247e-17
4.23667e-11
-1.22626e-17
5.19513e-11
-1.32187e-18
5.19513e-11
1.12754e-17
4.23666e-11
2.54699e-17
2.40139e-11
4.09253e-17
-1.4598e-12
5.74495e-17
-3.15102e-11
7.38589e-17
-6.24938e-11
8.58823e-17
-8.92351e-11
8.74017e-17
-1.04312e-10
6.52488e-17
-9.70853e-11
-5.23283e-11
-5.29572e-17
-5.23288e-11
-8.35285e-17
-9.70855e-11
-9.5475e-17
-1.04312e-10
-9.08441e-17
-8.92351e-11
-8.02205e-17
-6.24938e-11
-6.90647e-17
-3.15101e-11
-5.86776e-17
-1.45977e-12
-4.91286e-17
2.4014e-11
-3.98006e-17
4.23667e-11
-2.97177e-17
5.19513e-11
-1.83438e-17
5.19513e-11
-5.87465e-18
4.23666e-11
7.15646e-18
2.40139e-11
2.04842e-17
-1.45982e-12
3.42142e-17
-3.15102e-11
4.71958e-17
-6.24939e-11
5.61903e-17
-8.92351e-11
5.77988e-17
-1.04312e-10
4.17521e-17
-9.70853e-11
-5.23283e-11
-3.89504e-17
-5.23287e-11
-6.83324e-17
-9.70855e-11
-8.67123e-17
-1.04312e-10
-9.03839e-17
-8.92351e-11
-8.47214e-17
-6.24938e-11
-7.66042e-17
-3.15101e-11
-6.84081e-17
-1.45978e-12
-6.03639e-17
2.4014e-11
-5.18561e-17
4.23667e-11
-4.23815e-17
5.19513e-11
-3.21942e-17
5.19513e-11
-2.20108e-17
4.23666e-11
-1.2398e-17
2.40139e-11
-3.27991e-18
-1.45983e-12
5.61929e-18
-3.15102e-11
1.32814e-17
-6.24939e-11
1.81829e-17
-8.92351e-11
1.98679e-17
-1.04312e-10
1.2562e-17
-9.70852e-11
-5.23283e-11
-2.56162e-17
-5.23287e-11
-5.12688e-17
-9.70855e-11
-7.24194e-17
-1.04312e-10
-8.3416e-17
-8.92351e-11
-8.3215e-17
-6.24938e-11
-7.83797e-17
-3.15102e-11
-7.22651e-17
-1.45978e-12
-6.5636e-17
2.4014e-11
-5.83892e-17
4.23666e-11
-5.07895e-17
5.19513e-11
-4.35469e-17
5.19513e-11
-3.73479e-17
4.23666e-11
-3.23943e-17
2.40139e-11
-2.8277e-17
-1.45983e-12
-2.47939e-17
-3.15102e-11
-2.26227e-17
-6.24939e-11
-2.13869e-17
-8.92351e-11
-1.83832e-17
-1.04312e-10
-1.46355e-17
-9.70852e-11
-5.23283e-11
-1.99047e-17
-5.23287e-11
-4.0633e-17
-9.70854e-11
-5.91019e-17
-1.04312e-10
-7.3376e-17
-8.92351e-11
-7.76327e-17
-6.24938e-11
-7.61076e-17
-3.15102e-11
-7.22273e-17
-1.45979e-12
-6.73036e-17
2.4014e-11
-6.20486e-17
4.23666e-11
-5.72955e-17
5.19513e-11
-5.38107e-17
5.19513e-11
-5.19772e-17
4.23666e-11
-5.16087e-17
2.40139e-11
-5.21686e-17
-1.45983e-12
-5.34926e-17
-3.15102e-11
-5.54583e-17
-6.24939e-11
-5.61492e-17
-8.92351e-11
-5.19918e-17
-1.04312e-10
-3.27538e-17
-9.70853e-11