/*--------------------------------*- C++ -*----------------------------------*\
| =========                 |                                                 |
| \\      /  F ield         | OpenFOAM: The Open Source CFD Toolbox           |
|  \\    /   O peration     | Version:  5.x                                   |
|   \\  /    A nd           | Web:      www.OpenFOAM.org                      |
|    \\/     M anipulation  |                                                 |
\*---------------------------------------------------------------------------*/
FoamFile
{
    version     2.0;
    format      ascii;
    class       volVectorField;
    location    "0.35";
    object      U;
}
// * * * * * * * * * * * * * * * * * * * * * * * * * * * * * * * * * * * * * //

dimensions      [0 1 -1 0 0 0 0];

internalField   nonuniform List<vector> 
8000
(
(1.53493e-11 -0.00104658 0)
(-9.3459e-11 -0.00194171 0)
(-3.34141e-10 -0.00208624 0)
(-7.43485e-10 -0.0017847 0)
(-1.19068e-09 -0.00124988 0)
(-1.53547e-09 -0.000630201 0)
(-1.14025e-09 -2.9191e-05 0)
(-7.0263e-10 0.000480284 0)
(-3.80073e-10 0.000847338 0)
(-1.78386e-10 0.00103903 0)
(-1.585e-11 0.00103903 0)
(1.9472e-10 0.000847337 0)
(5.39713e-10 0.000480284 0)
(1.01542e-09 -2.91913e-05 0)
(1.46651e-09 -0.000630201 0)
(1.25824e-09 -0.00124988 0)
(9.93845e-10 -0.0017847 0)
(7.85657e-10 -0.00208624 0)
(6.79959e-10 -0.00194171 0)
(1.81137e-10 -0.00104657 0)
(7.62956e-11 -0.00104658 0)
(-4.88102e-11 -0.00194171 0)
(-4.51646e-10 -0.00208624 0)
(-9.90661e-10 -0.0017847 0)
(-1.58088e-09 -0.00124987 0)
(-2.08023e-09 -0.0006302 0)
(-1.95995e-09 -2.91919e-05 0)
(-1.35561e-09 0.000480283 0)
(-8.37816e-10 0.000847337 0)
(-4.64012e-10 0.00103903 0)
(-1.36439e-10 0.00103903 0)
(2.60208e-10 0.000847337 0)
(8.32883e-10 0.000480283 0)
(1.53309e-09 -2.91922e-05 0)
(1.79716e-09 -0.0006302 0)
(1.50316e-09 -0.00124987 0)
(1.17556e-09 -0.0017847 0)
(9.69978e-10 -0.00208624 0)
(9.19073e-10 -0.00194171 0)
(2.80496e-10 -0.00104657 0)
(-9.87434e-11 -0.00104658 0)
(-4.09633e-10 -0.00194171 0)
(-7.62928e-10 -0.00208624 0)
(-1.23787e-09 -0.0017847 0)
(-1.72446e-09 -0.00124987 0)
(-2.04356e-09 -0.0006302 0)
(-1.95176e-09 -2.91923e-05 0)
(-1.5307e-09 0.000480283 0)
(-1.09532e-09 0.000847337 0)
(-7.16834e-10 0.00103903 0)
(-3.45546e-10 0.00103903 0)
(7.10005e-11 0.000847337 0)
(5.79924e-10 0.000480283 0)
(1.12623e-09 -2.91927e-05 0)
(1.39796e-09 -0.000630201 0)
(1.31091e-09 -0.00124987 0)
(1.11311e-09 -0.0017847 0)
(9.69834e-10 -0.00208624 0)
(9.03431e-10 -0.00194171 0)
(3.0678e-10 -0.00104657 0)
(-1.33366e-10 -0.00104658 0)
(-6.5902e-10 -0.00194171 0)
(-1.05507e-09 -0.00208624 0)
(-1.46179e-09 -0.0017847 0)
(-1.81132e-09 -0.00124987 0)
(-1.99839e-09 -0.0006302 0)
(-1.92188e-09 -2.91925e-05 0)
(-1.6439e-09 0.000480283 0)
(-1.31074e-09 0.000847337 0)
(-9.66566e-10 0.00103903 0)
(-6.11302e-10 0.00103903 0)
(-2.28692e-10 0.000847336 0)
(1.913e-10 0.000480282 0)
(6.00021e-10 -2.91931e-05 0)
(8.57685e-10 -0.000630201 0)
(9.04785e-10 -0.00124987 0)
(8.21525e-10 -0.0017847 0)
(6.90595e-10 -0.00208624 0)
(5.20658e-10 -0.00194171 0)
(1.26408e-10 -0.00104657 0)
(-1.58173e-10 -0.00104658 0)
(-8.65098e-10 -0.00194171 0)
(-1.33515e-09 -0.00208624 0)
(-1.7167e-09 -0.0017847 0)
(-1.9819e-09 -0.00124987 0)
(-2.08977e-09 -0.0006302 0)
(-2.02055e-09 -2.91926e-05 0)
(-1.81538e-09 0.000480282 0)
(-1.53995e-09 0.000847336 0)
(-1.23547e-09 0.00103903 0)
(-9.11875e-10 0.00103903 0)
(-5.67879e-10 0.000847336 0)
(-2.15411e-10 0.000480282 0)
(1.15217e-10 -2.91935e-05 0)
(3.60871e-10 -0.000630201 0)
(4.77274e-10 -0.00124987 0)
(4.71688e-10 -0.0017847 0)
(3.39625e-10 -0.00208624 0)
(5.32231e-11 -0.00194171 0)
(-9.39527e-11 -0.00104657 0)
(-1.97532e-10 -0.00104657 0)
(-1.11141e-09 -0.00194171 0)
(-1.67188e-09 -0.00208624 0)
(-2.0433e-09 -0.0017847 0)
(-2.24712e-09 -0.00124987 0)
(-2.30155e-09 -0.0006302 0)
(-2.21802e-09 -2.91928e-05 0)
(-2.03381e-09 0.000480282 0)
(-1.79155e-09 0.000847336 0)
(-1.51837e-09 0.00103903 0)
(-1.2277e-09 0.00103903 0)
(-9.28039e-10 0.000847335 0)
(-6.26481e-10 0.000480281 0)
(-3.38159e-10 -2.91937e-05 0)
(-9.34803e-11 -0.000630201 0)
(8.64699e-11 -0.00124987 0)
(1.91826e-10 -0.0017847 0)
(1.86237e-10 -0.00208624 0)
(3.783e-11 -0.00194171 0)
(-6.78285e-11 -0.00104657 0)
(-2.98434e-10 -0.00104657 0)
(-1.46819e-09 -0.00194171 0)
(-2.06593e-09 -0.00208624 0)
(-2.41768e-09 -0.0017847 0)
(-2.56911e-09 -0.00124987 0)
(-2.56716e-09 -0.0006302 0)
(-2.45564e-09 -2.91929e-05 0)
(-2.26972e-09 0.000480282 0)
(-2.04114e-09 0.000847336 0)
(-1.79481e-09 0.00103903 0)
(-1.54281e-09 0.00103903 0)
(-1.29032e-09 0.000847335 0)
(-1.03865e-09 0.000480281 0)
(-7.90992e-10 -2.9194e-05 0)
(-5.53155e-10 -0.000630201 0)
(-3.23325e-10 -0.00124987 0)
(-1.02317e-10 -0.0017847 0)
(9.13093e-11 -0.00208624 0)
(2.71527e-10 -0.00194171 0)
(1.25627e-10 -0.00104657 0)
(-3.85574e-10 -0.00104657 0)
(-1.79008e-09 -0.00194171 0)
(-2.42799e-09 -0.00208624 0)
(-2.75882e-09 -0.0017847 0)
(-2.85854e-09 -0.00124987 0)
(-2.80804e-09 -0.0006302 0)
(-2.66347e-09 -2.91931e-05 0)
(-2.4681e-09 0.000480282 0)
(-2.25234e-09 0.000847335 0)
(-2.03579e-09 0.00103903 0)
(-1.82843e-09 0.00103903 0)
(-1.6316e-09 0.000847335 0)
(-1.44277e-09 0.000480281 0)
(-1.25682e-09 -2.91943e-05 0)
(-1.06627e-09 -0.000630202 0)
(-8.54487e-10 -0.00124988 0)
(-6.11497e-10 -0.0017847 0)
(-3.39739e-10 -0.00208624 0)
(-1.09128e-11 -0.00194171 0)
(9.59763e-11 -0.00104657 0)
(-4.68113e-10 -0.00104657 0)
(-2.03928e-09 -0.00194171 0)
(-2.67348e-09 -0.00208624 0)
(-2.97123e-09 -0.0017847 0)
(-3.02666e-09 -0.00124987 0)
(-2.93728e-09 -0.000630201 0)
(-2.77114e-09 -2.91933e-05 0)
(-2.57663e-09 0.000480282 0)
(-2.38123e-09 0.000847335 0)
(-2.20251e-09 0.00103903 0)
(-2.04883e-09 0.00103903 0)
(-1.91952e-09 0.000847335 0)
(-1.81063e-09 0.000480281 0)
(-1.71656e-09 -2.91945e-05 0)
(-1.62549e-09 -0.000630202 0)
(-1.51722e-09 -0.00124988 0)
(-1.38401e-09 -0.0017847 0)
(-1.26244e-09 -0.00208624 0)
(-1.20706e-09 -0.00194171 0)
(-4.14135e-10 -0.00104657 0)
(-5.19877e-10 -0.00104657 0)
(-2.14662e-09 -0.00194171 0)
(-2.72832e-09 -0.00208624 0)
(-2.97711e-09 -0.0017847 0)
(-2.99689e-09 -0.00124987 0)
(-2.88711e-09 -0.000630201 0)
(-2.72391e-09 -2.91935e-05 0)
(-2.54831e-09 0.000480281 0)
(-2.38813e-09 0.000847335 0)
(-2.2595e-09 0.00103903 0)
(-2.16634e-09 0.00103903 0)
(-2.11102e-09 0.000847335 0)
(-2.09201e-09 0.000480281 0)
(-2.10528e-09 -2.91945e-05 0)
(-2.13701e-09 -0.000630202 0)
(-2.1673e-09 -0.00124988 0)
(-2.18158e-09 -0.0017847 0)
(-2.20767e-09 -0.00208624 0)
(-2.27533e-09 -0.00194171 0)
(-8.04492e-10 -0.00104657 0)
(-5.24882e-10 -0.00104657 0)
(-2.07777e-09 -0.0019417 0)
(-2.55592e-09 -0.00208624 0)
(-2.73356e-09 -0.0017847 0)
(-2.72994e-09 -0.00124987 0)
(-2.63018e-09 -0.000630201 0)
(-2.49429e-09 -2.91937e-05 0)
(-2.36007e-09 0.000480281 0)
(-2.25041e-09 0.000847335 0)
(-2.17768e-09 0.00103903 0)
(-2.14825e-09 0.00103903 0)
(-2.1654e-09 0.000847334 0)
(-2.23048e-09 0.000480281 0)
(-2.3387e-09 -2.91945e-05 0)
(-2.47609e-09 -0.000630202 0)
(-2.62467e-09 -0.00124988 0)
(-2.75874e-09 -0.0017847 0)
(-2.85848e-09 -0.00208624 0)
(-2.68791e-09 -0.00194171 0)
(-8.07469e-10 -0.00104657 0)
(-5.21047e-10 -0.00104657 0)
(-1.87583e-09 -0.0019417 0)
(-2.1662e-09 -0.00208624 0)
(-2.24877e-09 -0.0017847 0)
(-2.23262e-09 -0.00124987 0)
(-2.16714e-09 -0.000630201 0)
(-2.08437e-09 -2.91939e-05 0)
(-2.01007e-09 0.000480281 0)
(-1.95915e-09 0.000847335 0)
(-1.94381e-09 0.00103903 0)
(-1.97253e-09 0.00103903 0)
(-2.04957e-09 0.000847335 0)
(-2.17642e-09 0.000480281 0)
(-2.34742e-09 -2.91944e-05 0)
(-2.55305e-09 -0.000630202 0)
(-2.76956e-09 -0.00124988 0)
(-2.94635e-09 -0.0017847 0)
(-3.02091e-09 -0.00208624 0)
(-2.71996e-09 -0.00194171 0)
(-7.62518e-10 -0.00104658 0)
(-4.65499e-10 -0.00104657 0)
(-1.44225e-09 -0.0019417 0)
(-1.52058e-09 -0.00208624 0)
(-1.52776e-09 -0.0017847 0)
(-1.52936e-09 -0.00124987 0)
(-1.52563e-09 -0.000630201 0)
(-1.51655e-09 -2.9194e-05 0)
(-1.51138e-09 0.000480281 0)
(-1.52141e-09 0.000847335 0)
(-1.56048e-09 0.00103903 0)
(-1.63536e-09 0.00103903 0)
(-1.7507e-09 0.000847335 0)
(-1.90639e-09 0.000480281 0)
(-2.1013e-09 -2.91942e-05 0)
(-2.32854e-09 -0.000630202 0)
(-2.55661e-09 -0.00124988 0)
(-2.73311e-09 -0.0017847 0)
(-2.76954e-09 -0.00208624 0)
(-2.59965e-09 -0.00194171 0)
(-8.31363e-10 -0.00104658 0)
(-1.64309e-10 -0.00104657 0)
(-4.96604e-10 -0.0019417 0)
(-5.54924e-10 -0.00208624 0)
(-5.93389e-10 -0.0017847 0)
(-6.6228e-10 -0.00124987 0)
(-7.49787e-10 -0.000630201 0)
(-8.25828e-10 -2.9194e-05 0)
(-8.91915e-10 0.000480281 0)
(-9.61908e-10 0.000847335 0)
(-1.04672e-09 0.00103903 0)
(-1.15248e-09 0.00103903 0)
(-1.28236e-09 0.000847335 0)
(-1.43389e-09 0.000480281 0)
(-1.60283e-09 -2.9194e-05 0)
(-1.76348e-09 -0.000630201 0)
(-1.894e-09 -0.00124988 0)
(-1.98915e-09 -0.0017847 0)
(-1.92584e-09 -0.00208624 0)
(-1.68138e-09 -0.00194171 0)
(-5.30032e-10 -0.00104658 0)
(1.75841e-10 -0.00104657 0)
(6.00496e-10 -0.0019417 0)
(5.28847e-10 -0.00208624 0)
(4.19401e-10 -0.0017847 0)
(2.66325e-10 -0.00124987 0)
(8.94141e-11 -0.000630201 0)
(-6.61236e-11 -2.91939e-05 0)
(-1.99857e-10 0.000480281 0)
(-3.22424e-10 0.000847335 0)
(-4.40799e-10 0.00103903 0)
(-5.63203e-10 0.00103903 0)
(-6.90526e-10 0.000847335 0)
(-8.1588e-10 0.000480281 0)
(-9.23952e-10 -2.91939e-05 0)
(-9.78438e-10 -0.000630201 0)
(-9.6642e-10 -0.00124988 0)
(-9.31843e-10 -0.0017847 0)
(-7.01004e-10 -0.00208624 0)
(-9.30981e-11 -0.00194171 0)
(1.68005e-10 -0.00104658 0)
(6.17571e-10 -0.00104657 0)
(1.76268e-09 -0.0019417 0)
(1.566e-09 -0.00208624 0)
(1.37017e-09 -0.0017847 0)
(1.14335e-09 -0.00124987 0)
(9.01934e-10 -0.000630201 0)
(6.86645e-10 -2.91938e-05 0)
(5.04118e-10 0.000480281 0)
(3.46874e-10 0.000847335 0)
(2.06944e-10 0.00103903 0)
(8.16177e-11 0.00103903 0)
(-2.72475e-11 0.000847335 0)
(-1.15926e-10 0.000480281 0)
(-1.7511e-10 -2.91939e-05 0)
(-2.02144e-10 -0.000630201 0)
(-2.06005e-10 -0.00124988 0)
(-1.40235e-10 -0.0017847 0)
(1.2214e-10 -0.00208624 0)
(6.02748e-10 -0.00194171 0)
(3.34417e-10 -0.00104658 0)
(7.78648e-10 -0.00104657 0)
(2.32194e-09 -0.0019417 0)
(2.24634e-09 -0.00208624 0)
(2.08037e-09 -0.0017847 0)
(1.86046e-09 -0.00124987 0)
(1.61633e-09 -0.000630201 0)
(1.37541e-09 -2.91936e-05 0)
(1.16647e-09 0.000480281 0)
(9.91302e-10 0.000847335 0)
(8.45073e-10 0.00103903 0)
(7.30402e-10 0.00103903 0)
(6.46123e-10 0.000847335 0)
(5.88102e-10 0.000480281 0)
(5.62334e-10 -2.91939e-05 0)
(5.57423e-10 -0.000630201 0)
(5.24912e-10 -0.00124988 0)
(5.40917e-10 -0.0017847 0)
(5.9914e-10 -0.00208624 0)
(6.35628e-10 -0.00194171 0)
(1.96641e-10 -0.00104658 0)
(5.21032e-10 -0.00104657 0)
(2.03776e-09 -0.0019417 0)
(2.43166e-09 -0.00208624 0)
(2.49082e-09 -0.0017847 0)
(2.38567e-09 -0.00124987 0)
(2.19163e-09 -0.000630201 0)
(1.95632e-09 -2.91935e-05 0)
(1.73989e-09 0.000480281 0)
(1.56294e-09 0.000847335 0)
(1.42654e-09 0.00103903 0)
(1.32617e-09 0.00103903 0)
(1.25315e-09 0.000847335 0)
(1.20057e-09 0.000480281 0)
(1.17802e-09 -2.9194e-05 0)
(1.1842e-09 -0.000630201 0)
(1.19096e-09 -0.00124988 0)
(1.2558e-09 -0.0017847 0)
(1.25611e-09 -0.00208624 0)
(9.62878e-10 -0.00194171 0)
(2.2062e-10 -0.00104658 0)
(3.33282e-10 -0.00104657 0)
(1.7087e-09 -0.00194171 0)
(2.43117e-09 -0.00208624 0)
(2.71789e-09 -0.0017847 0)
(2.74019e-09 -0.00124987 0)
(2.61228e-09 -0.0006302 0)
(2.40425e-09 -2.91933e-05 0)
(2.19592e-09 0.000480281 0)
(2.03149e-09 0.000847335 0)
(1.91274e-09 0.00103903 0)
(1.8246e-09 0.00103903 0)
(1.75601e-09 0.000847335 0)
(1.70557e-09 0.000480281 0)
(1.67791e-09 -2.9194e-05 0)
(1.65103e-09 -0.000630202 0)
(1.62998e-09 -0.00124988 0)
(1.62907e-09 -0.0017847 0)
(1.57464e-09 -0.00208624 0)
(1.24319e-09 -0.00194171 0)
(3.05254e-10 -0.00104658 0)
(2.43069e-10 -0.00104657 0)
(1.57678e-09 -0.00194171 0)
(2.44675e-09 -0.00208624 0)
(2.84943e-09 -0.0017847 0)
(2.93949e-09 -0.00124987 0)
(2.86979e-09 -0.0006302 0)
(2.70803e-09 -2.91931e-05 0)
(2.52829e-09 0.000480282 0)
(2.38544e-09 0.000847335 0)
(2.28319e-09 0.00103903 0)
(2.20694e-09 0.00103903 0)
(2.14961e-09 0.000847335 0)
(2.11388e-09 0.000480281 0)
(2.09935e-09 -2.91941e-05 0)
(2.08613e-09 -0.000630202 0)
(2.0918e-09 -0.00124988 0)
(2.02799e-09 -0.0017847 0)
(1.79474e-09 -0.00208624 0)
(1.37588e-09 -0.00194171 0)
(3.42738e-10 -0.00104658 0)
(4.96291e-10 -0.00104657 0)
(2.02761e-09 -0.00194171 0)
(2.62995e-09 -0.00208624 0)
(2.89895e-09 -0.0017847 0)
(2.96576e-09 -0.00124987 0)
(2.93916e-09 -0.0006302 0)
(2.84959e-09 -2.91931e-05 0)
(2.73202e-09 0.000480282 0)
(2.62238e-09 0.000847335 0)
(2.53676e-09 0.00103903 0)
(2.47477e-09 0.00103903 0)
(2.43166e-09 0.000847335 0)
(2.40696e-09 0.000480281 0)
(2.39656e-09 -2.91941e-05 0)
(2.41884e-09 -0.000630202 0)
(2.49991e-09 -0.00124988 0)
(2.46699e-09 -0.0017847 0)
(2.13593e-09 -0.00208624 0)
(1.58657e-09 -0.00194171 0)
(3.94083e-10 -0.00104658 0)
(6.77885e-10 -0.00104657 0)
(2.2224e-09 -0.00194171 0)
(2.51992e-09 -0.00208624 0)
(2.67691e-09 -0.0017847 0)
(2.75068e-09 -0.00124987 0)
(2.7876e-09 -0.0006302 0)
(2.79842e-09 -2.91931e-05 0)
(2.77628e-09 0.000480282 0)
(2.72577e-09 0.000847335 0)
(2.67123e-09 0.00103903 0)
(2.62594e-09 0.00103903 0)
(2.58861e-09 0.000847335 0)
(2.55808e-09 0.000480281 0)
(2.53567e-09 -2.91942e-05 0)
(2.54636e-09 -0.000630202 0)
(2.59343e-09 -0.00124988 0)
(2.5755e-09 -0.0017847 0)
(2.3315e-09 -0.00208624 0)
(1.79813e-09 -0.00194171 0)
(4.51098e-10 -0.00104657 0)
(4.46591e-10 -0.00104658 0)
(1.49898e-09 -0.00194171 0)
(1.80984e-09 -0.00208624 0)
(2.07959e-09 -0.0017847 0)
(2.27907e-09 -0.00124987 0)
(2.43525e-09 -0.0006302 0)
(2.56204e-09 -2.91932e-05 0)
(2.64236e-09 0.000480282 0)
(2.67247e-09 0.000847335 0)
(2.66979e-09 0.00103903 0)
(2.65104e-09 0.00103903 0)
(2.62787e-09 0.000847335 0)
(2.60383e-09 0.000480281 0)
(2.58136e-09 -2.91943e-05 0)
(2.5716e-09 -0.000630202 0)
(2.55502e-09 -0.00124988 0)
(2.51411e-09 -0.0017847 0)
(2.3755e-09 -0.00208624 0)
(1.96558e-09 -0.00194171 0)
(5.18675e-10 -0.00104657 0)
(5.76283e-11 -0.00104658 0)
(2.86304e-10 -0.00194171 0)
(7.45852e-10 -0.00208624 0)
(1.24301e-09 -0.0017847 0)
(1.66018e-09 -0.00124987 0)
(1.9799e-09 -0.000630201 0)
(2.22083e-09 -2.91934e-05 0)
(2.38635e-09 0.000480281 0)
(2.48539e-09 0.000847335 0)
(2.53583e-09 0.00103903 0)
(2.55935e-09 0.00103903 0)
(2.57058e-09 0.000847335 0)
(2.57096e-09 0.000480281 0)
(2.57433e-09 -2.91943e-05 0)
(2.58702e-09 -0.000630202 0)
(2.55158e-09 -0.00124988 0)
(2.46581e-09 -0.0017847 0)
(2.36795e-09 -0.00208624 0)
(2.09274e-09 -0.00194171 0)
(5.90872e-10 -0.00104657 0)
(-7.83398e-10 -0.00104658 0)
(-1.4375e-09 -0.00194171 0)
(-3.34859e-10 -0.00208624 0)
(5.04464e-10 -0.0017847 0)
(1.1276e-09 -0.00124988 0)
(1.57197e-09 -0.000630201 0)
(1.88371e-09 -2.91937e-05 0)
(2.09731e-09 0.000480281 0)
(2.23465e-09 0.000847335 0)
(2.32096e-09 0.00103903 0)
(2.37856e-09 0.00103903 0)
(2.41519e-09 0.000847335 0)
(2.43188e-09 0.000480281 0)
(2.45931e-09 -2.91944e-05 0)
(2.50591e-09 -0.000630202 0)
(2.48264e-09 -0.00124988 0)
(2.37751e-09 -0.0017847 0)
(2.30039e-09 -0.00208624 0)
(2.10496e-09 -0.00194171 0)
(6.16314e-10 -0.00104657 0)
(-9.40741e-10 -0.00104657 0)
(-1.55704e-09 -0.00194171 0)
(-3.54777e-10 -0.00208624 0)
(4.08872e-10 -0.0017847 0)
(9.70244e-10 -0.00124988 0)
(1.36899e-09 -0.000630202 0)
(1.64179e-09 -2.91941e-05 0)
(1.83318e-09 0.000480281 0)
(1.96248e-09 0.000847335 0)
(2.05041e-09 0.00103903 0)
(2.10948e-09 0.00103903 0)
(2.1408e-09 0.000847335 0)
(2.1508e-09 0.000480281 0)
(2.17024e-09 -2.91945e-05 0)
(2.20042e-09 -0.000630202 0)
(2.18639e-09 -0.00124988 0)
(2.12423e-09 -0.0017847 0)
(2.07831e-09 -0.00208624 0)
(1.89049e-09 -0.00194171 0)
(5.49815e-10 -0.00104657 0)
(4.12087e-10 -0.00104657 0)
(8.90903e-10 -0.00194171 0)
(8.16553e-10 -0.00208624 0)
(9.88271e-10 -0.0017847 0)
(1.21821e-09 -0.00124988 0)
(1.38277e-09 -0.000630202 0)
(1.49989e-09 -2.91943e-05 0)
(1.59201e-09 0.000480281 0)
(1.66061e-09 0.000847335 0)
(1.70741e-09 0.00103903 0)
(1.73297e-09 0.00103903 0)
(1.7365e-09 0.000847334 0)
(1.72708e-09 0.000480281 0)
(1.71028e-09 -2.91946e-05 0)
(1.67601e-09 -0.000630202 0)
(1.64574e-09 -0.00124988 0)
(1.63982e-09 -0.0017847 0)
(1.61414e-09 -0.00208624 0)
(1.39151e-09 -0.00194171 0)
(3.7651e-10 -0.00104657 0)
(7.53173e-10 -0.00104658 0)
(1.99561e-09 -0.00194171 0)
(1.6699e-09 -0.00208624 0)
(1.5382e-09 -0.0017847 0)
(1.49017e-09 -0.00124988 0)
(1.42579e-09 -0.000630202 0)
(1.36519e-09 -2.91944e-05 0)
(1.32218e-09 0.000480281 0)
(1.29547e-09 0.000847335 0)
(1.27303e-09 0.00103903 0)
(1.24825e-09 0.00103903 0)
(1.2195e-09 0.000847334 0)
(1.1854e-09 0.000480281 0)
(1.11558e-09 -2.91946e-05 0)
(1.0039e-09 -0.000630202 0)
(9.39889e-10 -0.00124988 0)
(9.58708e-10 -0.0017847 0)
(9.37801e-10 -0.00208624 0)
(7.20316e-10 -0.0019417 0)
(1.55774e-10 -0.00104657 0)
(1.01031e-09 -0.00104658 0)
(2.57684e-09 -0.00194171 0)
(2.08615e-09 -0.00208624 0)
(1.78392e-09 -0.0017847 0)
(1.5623e-09 -0.00124988 0)
(1.33548e-09 -0.000630202 0)
(1.13355e-09 -2.91943e-05 0)
(9.66734e-10 0.000480281 0)
(8.41254e-10 0.000847335 0)
(7.4629e-10 0.00103903 0)
(6.72457e-10 0.00103903 0)
(6.12678e-10 0.000847334 0)
(5.41284e-10 0.000480281 0)
(4.07204e-10 -2.91945e-05 0)
(2.28991e-10 -0.000630202 0)
(1.34996e-10 -0.00124988 0)
(1.69811e-10 -0.0017847 0)
(2.10579e-10 -0.00208624 0)
(1.37639e-10 -0.0019417 0)
(1.29931e-11 -0.00104657 0)
(6.48889e-10 -0.00104658 0)
(1.86277e-09 -0.00194171 0)
(1.73925e-09 -0.00208624 0)
(1.52703e-09 -0.0017847 0)
(1.25653e-09 -0.00124988 0)
(9.8644e-10 -0.000630202 0)
(7.27137e-10 -2.91941e-05 0)
(4.91734e-10 0.000480281 0)
(2.95822e-10 0.000847335 0)
(1.41152e-10 0.00103903 0)
(2.18691e-11 0.00103903 0)
(-7.65418e-11 0.000847334 0)
(-2.03952e-10 0.000480281 0)
(-4.08634e-10 -2.91944e-05 0)
(-6.35452e-10 -0.000630202 0)
(-7.5101e-10 -0.00124988 0)
(-7.13828e-10 -0.0017847 0)
(-5.9962e-10 -0.00208624 0)
(-4.47839e-10 -0.0019417 0)
(-9.47489e-11 -0.00104657 0)
(4.98146e-11 -0.00104658 0)
(5.87466e-10 -0.00194171 0)
(8.97657e-10 -0.00208624 0)
(8.67958e-10 -0.0017847 0)
(6.57251e-10 -0.00124988 0)
(4.18773e-10 -0.000630202 0)
(1.62609e-10 -2.91939e-05 0)
(-9.30343e-11 0.000480281 0)
(-3.24968e-10 0.000847335 0)
(-5.23356e-10 0.00103903 0)
(-6.89263e-10 0.00103903 0)
(-8.44283e-10 0.000847335 0)
(-1.05469e-09 0.000480281 0)
(-1.33599e-09 -2.91942e-05 0)
(-1.58136e-09 -0.000630202 0)
(-1.70231e-09 -0.00124988 0)
(-1.70029e-09 -0.0017847 0)
(-1.61031e-09 -0.00208624 0)
(-1.39552e-09 -0.00194171 0)
(-4.1307e-10 -0.00104657 0)
(-1.33343e-11 -0.00104658 0)
(1.64533e-10 -0.00194171 0)
(3.16464e-10 -0.00208624 0)
(2.50817e-10 -0.0017847 0)
(4.94787e-11 -0.00124988 0)
(-2.03041e-10 -0.000630201 0)
(-4.79105e-10 -2.91937e-05 0)
(-7.43699e-10 0.000480281 0)
(-9.87584e-10 0.000847335 0)
(-1.21417e-09 0.00103903 0)
(-1.42558e-09 0.00103903 0)
(-1.64699e-09 0.000847335 0)
(-1.94103e-09 0.000480281 0)
(-2.27468e-09 -2.91939e-05 0)
(-2.51371e-09 -0.000630202 0)
(-2.63505e-09 -0.00124988 0)
(-2.66008e-09 -0.0017847 0)
(-2.54153e-09 -0.00208624 0)
(-2.13775e-09 -0.00194171 0)
(-6.13867e-10 -0.00104657 0)
(1.15327e-10 -0.00104658 0)
(1.56634e-10 -0.00194171 0)
(-8.65855e-11 -0.00208624 0)
(-3.9162e-10 -0.0017847 0)
(-6.77557e-10 -0.00124988 0)
(-9.3115e-10 -0.000630201 0)
(-1.17592e-09 -2.91935e-05 0)
(-1.41668e-09 0.000480281 0)
(-1.64585e-09 0.000847335 0)
(-1.87997e-09 0.00103903 0)
(-2.13023e-09 0.00103903 0)
(-2.42322e-09 0.000847335 0)
(-2.76575e-09 0.000480281 0)
(-3.06772e-09 -2.91937e-05 0)
(-3.28032e-09 -0.000630202 0)
(-3.44664e-09 -0.00124988 0)
(-3.49952e-09 -0.0017847 0)
(-3.23661e-09 -0.00208624 0)
(-2.39193e-09 -0.00194171 0)
(-5.09412e-10 -0.00104657 0)
(6.28735e-11 -0.00104658 0)
(-2.73366e-10 -0.00194171 0)
(-8.12007e-10 -0.00208624 0)
(-1.18521e-09 -0.0017847 0)
(-1.45354e-09 -0.00124988 0)
(-1.66052e-09 -0.000630201 0)
(-1.84056e-09 -2.91933e-05 0)
(-2.03662e-09 0.000480282 0)
(-2.23212e-09 0.000847335 0)
(-2.44695e-09 0.00103903 0)
(-2.71138e-09 0.00103903 0)
(-3.02926e-09 0.000847335 0)
(-3.35076e-09 0.000480282 0)
(-3.6232e-09 -2.91935e-05 0)
(-3.88096e-09 -0.000630201 0)
(-4.15305e-09 -0.00124988 0)
(-4.32808e-09 -0.0017847 0)
(-4.11368e-09 -0.00208624 0)
(-3.30668e-09 -0.00194171 0)
(-8.69125e-10 -0.00104657 0)
(-1.90289e-10 -0.00104658 0)
(-1.11296e-09 -0.00194171 0)
(-1.71314e-09 -0.00208624 0)
(-1.95548e-09 -0.0017847 0)
(-2.11601e-09 -0.00124987 0)
(-2.28163e-09 -0.000630201 0)
(-2.40433e-09 -2.91932e-05 0)
(-2.53616e-09 0.000480282 0)
(-2.68286e-09 0.000847335 0)
(-2.84395e-09 0.00103903 0)
(-3.05402e-09 0.00103903 0)
(-3.31677e-09 0.000847336 0)
(-3.58998e-09 0.000480282 0)
(-3.87515e-09 -2.91933e-05 0)
(-4.21482e-09 -0.000630201 0)
(-4.60831e-09 -0.00124988 0)
(-4.92659e-09 -0.0017847 0)
(-4.79474e-09 -0.00208624 0)
(-4.06937e-09 -0.00194171 0)
(-1.20047e-09 -0.00104657 0)
(-4.18672e-10 -0.00104658 0)
(-1.82657e-09 -0.00194171 0)
(-2.41713e-09 -0.00208624 0)
(-2.59951e-09 -0.0017847 0)
(-2.67999e-09 -0.00124987 0)
(-2.76247e-09 -0.000630201 0)
(-2.80167e-09 -2.91932e-05 0)
(-2.8474e-09 0.000480282 0)
(-2.92133e-09 0.000847336 0)
(-3.0068e-09 0.00103903 0)
(-3.11856e-09 0.00103903 0)
(-3.27455e-09 0.000847336 0)
(-3.48016e-09 0.000480282 0)
(-3.74891e-09 -2.9193e-05 0)
(-4.10122e-09 -0.000630201 0)
(-4.52964e-09 -0.00124987 0)
(-4.8193e-09 -0.0017847 0)
(-4.53674e-09 -0.00208624 0)
(-3.51418e-09 -0.00194171 0)
(-8.47898e-10 -0.00104658 0)
(-5.87832e-10 -0.00104658 0)
(-2.29199e-09 -0.00194171 0)
(-2.85021e-09 -0.00208624 0)
(-3.0566e-09 -0.0017847 0)
(-3.07168e-09 -0.00124987 0)
(-3.03485e-09 -0.000630201 0)
(-2.97052e-09 -2.91932e-05 0)
(-2.90322e-09 0.000480282 0)
(-2.88125e-09 0.000847336 0)
(-2.88602e-09 0.00103903 0)
(-2.90102e-09 0.00103903 0)
(-2.96063e-09 0.000847336 0)
(-3.11319e-09 0.000480282 0)
(-3.33769e-09 -2.91927e-05 0)
(-3.62996e-09 -0.0006302 0)
(-3.97864e-09 -0.00124987 0)
(-4.13866e-09 -0.0017847 0)
(-3.81908e-09 -0.00208624 0)
(-3.09598e-09 -0.00194171 0)
(-8.30161e-10 -0.00104658 0)
(-7.0852e-10 -0.00104658 0)
(-2.55904e-09 -0.00194171 0)
(-3.04947e-09 -0.00208624 0)
(-3.28042e-09 -0.0017847 0)
(-3.25887e-09 -0.00124987 0)
(-3.12432e-09 -0.000630201 0)
(-2.96568e-09 -2.91934e-05 0)
(-2.78369e-09 0.000480282 0)
(-2.62832e-09 0.000847335 0)
(-2.51231e-09 0.00103903 0)
(-2.4431e-09 0.00103903 0)
(-2.45194e-09 0.000847336 0)
(-2.54204e-09 0.000480282 0)
(-2.68672e-09 -2.91926e-05 0)
(-2.88051e-09 -0.0006302 0)
(-3.04798e-09 -0.00124987 0)
(-2.99129e-09 -0.0017847 0)
(-2.68655e-09 -0.00208624 0)
(-2.46433e-09 -0.00194171 0)
(-8.27078e-10 -0.00104658 0)
(-7.9312e-10 -0.00104657 0)
(-2.68225e-09 -0.00194171 0)
(-3.04496e-09 -0.00208624 0)
(-3.25096e-09 -0.0017847 0)
(-3.22345e-09 -0.00124988 0)
(-3.01919e-09 -0.000630201 0)
(-2.77158e-09 -2.91937e-05 0)
(-2.50855e-09 0.000480281 0)
(-2.23813e-09 0.000847335 0)
(-1.99918e-09 0.00103903 0)
(-1.86715e-09 0.00103903 0)
(-1.85704e-09 0.000847336 0)
(-1.86402e-09 0.000480282 0)
(-1.86637e-09 -2.91925e-05 0)
(-1.89604e-09 -0.0006302 0)
(-1.81882e-09 -0.00124987 0)
(-1.50245e-09 -0.0017847 0)
(-1.12552e-09 -0.00208624 0)
(-8.47324e-10 -0.00194171 0)
(-1.69418e-10 -0.00104658 0)
(-8.49445e-10 -0.00104657 0)
(-2.69648e-09 -0.00194171 0)
(-2.87163e-09 -0.00208624 0)
(-2.97692e-09 -0.0017847 0)
(-2.92264e-09 -0.00124988 0)
(-2.68216e-09 -0.000630201 0)
(-2.37816e-09 -2.9194e-05 0)
(-2.06142e-09 0.000480281 0)
(-1.7315e-09 0.000847335 0)
(-1.44585e-09 0.00103903 0)
(-1.287e-09 0.00103903 0)
(-1.22475e-09 0.000847336 0)
(-1.13743e-09 0.000480282 0)
(-1.00874e-09 -2.91926e-05 0)
(-8.59164e-10 -0.0006302 0)
(-5.83914e-10 -0.00124987 0)
(-1.66461e-10 -0.0017847 0)
(1.13849e-10 -0.00208624 0)
(8.68831e-11 -0.00194171 0)
(3.06386e-11 -0.00104658 0)
(-8.62707e-10 -0.00104657 0)
(-2.58315e-09 -0.00194171 0)
(-2.54832e-09 -0.00208624 0)
(-2.49312e-09 -0.0017847 0)
(-2.36931e-09 -0.00124988 0)
(-2.10529e-09 -0.000630202 0)
(-1.78052e-09 -2.91943e-05 0)
(-1.45439e-09 0.000480281 0)
(-1.16045e-09 0.000847335 0)
(-9.34953e-10 0.00103903 0)
(-7.73767e-10 0.00103903 0)
(-6.17706e-10 0.000847336 0)
(-4.16675e-10 0.000480282 0)
(-1.75028e-10 -2.91928e-05 0)
(1.16742e-10 -0.000630201 0)
(5.13265e-10 -0.00124988 0)
(9.39945e-10 -0.0017847 0)
(1.07956e-09 -0.00208624 0)
(7.28372e-10 -0.00194171 0)
(1.23586e-10 -0.00104658 0)
(-7.83046e-10 -0.00104657 0)
(-2.24339e-09 -0.00194171 0)
(-2.04965e-09 -0.00208624 0)
(-1.83267e-09 -0.0017847 0)
(-1.62616e-09 -0.00124988 0)
(-1.35478e-09 -0.000630202 0)
(-1.05501e-09 -2.91946e-05 0)
(-7.79924e-10 0.00048028 0)
(-5.70516e-10 0.000847334 0)
(-4.21493e-10 0.00103903 0)
(-2.62767e-10 0.00103903 0)
(-3.9164e-11 0.000847335 0)
(2.47074e-10 0.000480282 0)
(5.79606e-10 -2.91931e-05 0)
(9.67092e-10 -0.000630201 0)
(1.41881e-09 -0.00124988 0)
(1.81632e-09 -0.0017847 0)
(1.87422e-09 -0.00208624 0)
(1.44899e-09 -0.00194171 0)
(3.58786e-10 -0.00104658 0)
(-5.5519e-10 -0.00104657 0)
(-1.55801e-09 -0.00194171 0)
(-1.32462e-09 -0.00208624 0)
(-1.01879e-09 -0.0017847 0)
(-7.64644e-10 -0.00124988 0)
(-5.21923e-10 -0.000630202 0)
(-2.92158e-10 -2.91949e-05 0)
(-1.0081e-10 0.00048028 0)
(3.53454e-11 0.000847334 0)
(1.41588e-10 0.00103903 0)
(2.90961e-10 0.00103903 0)
(5.31977e-10 0.000847335 0)
(8.53234e-10 0.000480281 0)
(1.22854e-09 -2.91935e-05 0)
(1.64981e-09 -0.000630201 0)
(2.08983e-09 -0.00124988 0)
(2.39567e-09 -0.0017847 0)
(2.33231e-09 -0.00208624 0)
(1.87001e-09 -0.00194171 0)
(5.00155e-10 -0.00104658 0)
(-1.8602e-10 -0.00104657 0)
(-4.98679e-10 -0.00194171 0)
(-3.31778e-10 -0.00208624 0)
(-6.10003e-11 -0.0017847 0)
(1.66005e-10 -0.00124988 0)
(3.36504e-10 -0.000630203 0)
(4.68604e-10 -2.91951e-05 0)
(5.6807e-10 0.00048028 0)
(6.39585e-10 0.000847334 0)
(7.14102e-10 0.00103903 0)
(8.48652e-10 0.00103903 0)
(1.07779e-09 0.000847335 0)
(1.38833e-09 0.000480281 0)
(1.74924e-09 -2.9194e-05 0)
(2.13769e-09 -0.000630202 0)
(2.49402e-09 -0.00124988 0)
(2.64662e-09 -0.0017847 0)
(2.42924e-09 -0.00208624 0)
(1.90869e-09 -0.00194171 0)
(5.03359e-10 -0.00104658 0)
(2.49949e-10 -0.00104657 0)
(8.21181e-10 -0.00194171 0)
(9.05982e-10 -0.00208624 0)
(1.02474e-09 -0.0017847 0)
(1.13001e-09 -0.00124988 0)
(1.18249e-09 -0.000630203 0)
(1.19846e-09 -2.91951e-05 0)
(1.20198e-09 0.00048028 0)
(1.20993e-09 0.000847334 0)
(1.25067e-09 0.00103903 0)
(1.3612e-09 0.00103903 0)
(1.55792e-09 0.000847335 0)
(1.82297e-09 0.000480281 0)
(2.1243e-09 -2.91943e-05 0)
(2.42646e-09 -0.000630202 0)
(2.63958e-09 -0.00124988 0)
(2.59706e-09 -0.0017847 0)
(2.21972e-09 -0.00208624 0)
(1.64898e-09 -0.00194171 0)
(4.07651e-10 -0.00104658 0)
(7.00589e-10 -0.00104657 0)
(2.22317e-09 -0.00194171 0)
(2.24321e-09 -0.00208624 0)
(2.15156e-09 -0.0017847 0)
(2.06223e-09 -0.00124988 0)
(1.9604e-09 -0.000630203 0)
(1.85323e-09 -2.91951e-05 0)
(1.7646e-09 0.00048028 0)
(1.7121e-09 0.000847334 0)
(1.71481e-09 0.00103903 0)
(1.79006e-09 0.00103903 0)
(1.93836e-09 0.000847334 0)
(2.13864e-09 0.000480281 0)
(2.35869e-09 -2.91946e-05 0)
(2.54858e-09 -0.000630202 0)
(2.59873e-09 -0.00124988 0)
(2.37571e-09 -0.0017847 0)
(1.88813e-09 -0.00208624 0)
(1.31654e-09 -0.00194171 0)
(3.02223e-10 -0.00104658 0)
(1.09346e-09 -0.00104657 0)
(3.43806e-09 -0.00194171 0)
(3.41813e-09 -0.00208624 0)
(3.13679e-09 -0.0017847 0)
(2.84464e-09 -0.00124988 0)
(2.58544e-09 -0.000630202 0)
(2.36693e-09 -2.9195e-05 0)
(2.20258e-09 0.00048028 0)
(2.10061e-09 0.000847334 0)
(2.06666e-09 0.00103903 0)
(2.10257e-09 0.00103903 0)
(2.19937e-09 0.000847334 0)
(2.33523e-09 0.00048028 0)
(2.47618e-09 -2.91948e-05 0)
(2.55974e-09 -0.000630202 0)
(2.47369e-09 -0.00124988 0)
(2.13001e-09 -0.0017847 0)
(1.60628e-09 -0.00208624 0)
(1.09158e-09 -0.00194171 0)
(2.49841e-10 -0.00104658 0)
(1.32758e-09 -0.00104657 0)
(4.12119e-09 -0.00194171 0)
(4.1007e-09 -0.00208624 0)
(3.73248e-09 -0.0017847 0)
(3.31772e-09 -0.00124988 0)
(2.95381e-09 -0.000630202 0)
(2.66479e-09 -2.91948e-05 0)
(2.45693e-09 0.00048028 0)
(2.32703e-09 0.000847334 0)
(2.26892e-09 0.00103903 0)
(2.27497e-09 0.00103903 0)
(2.33219e-09 0.000847334 0)
(2.41916e-09 0.00048028 0)
(2.5e-09 -2.91948e-05 0)
(2.50763e-09 -0.000630202 0)
(2.34222e-09 -0.00124988 0)
(1.95108e-09 -0.0017847 0)
(1.44767e-09 -0.00208624 0)
(1.01121e-09 -0.00194171 0)
(2.49355e-10 -0.00104658 0)
(1.16864e-09 -0.00104658 0)
(3.80107e-09 -0.00194171 0)
(3.97271e-09 -0.00208624 0)
(3.7201e-09 -0.0017847 0)
(3.3395e-09 -0.00124988 0)
(2.97742e-09 -0.000630202 0)
(2.68846e-09 -2.91945e-05 0)
(2.48418e-09 0.00048028 0)
(2.35807e-09 0.000847334 0)
(2.29853e-09 0.00103903 0)
(2.29427e-09 0.00103903 0)
(2.33207e-09 0.000847334 0)
(2.39211e-09 0.00048028 0)
(2.43948e-09 -2.91949e-05 0)
(2.41233e-09 -0.000630202 0)
(2.22939e-09 -0.00124988 0)
(1.85459e-09 -0.0017847 0)
(1.40228e-09 -0.00208624 0)
(1.02573e-09 -0.00194171 0)
(2.68559e-10 -0.00104658 0)
(6.77379e-10 -0.00104658 0)
(2.62448e-09 -0.00194171 0)
(3.09292e-09 -0.00208624 0)
(3.09613e-09 -0.0017847 0)
(2.89012e-09 -0.00124988 0)
(2.63943e-09 -0.000630202 0)
(2.427e-09 -2.91943e-05 0)
(2.27755e-09 0.000480281 0)
(2.18966e-09 0.000847334 0)
(2.15379e-09 0.00103903 0)
(2.16037e-09 0.00103903 0)
(2.19915e-09 0.000847334 0)
(2.25426e-09 0.00048028 0)
(2.29634e-09 -2.91949e-05 0)
(2.27468e-09 -0.000630202 0)
(2.12522e-09 -0.00124988 0)
(1.82039e-09 -0.0017847 0)
(1.44794e-09 -0.00208624 0)
(1.1052e-09 -0.00194171 0)
(2.92134e-10 -0.00104657 0)
(3.31794e-10 -0.00104658 0)
(1.40928e-09 -0.00194171 0)
(1.85256e-09 -0.00208624 0)
(2.08388e-09 -0.0017847 0)
(2.09775e-09 -0.00124988 0)
(2.01685e-09 -0.000630201 0)
(1.93177e-09 -2.91942e-05 0)
(1.87491e-09 0.000480281 0)
(1.85125e-09 0.000847334 0)
(1.85788e-09 0.00103903 0)
(1.89134e-09 0.00103903 0)
(1.94775e-09 0.000847334 0)
(2.01825e-09 0.00048028 0)
(2.08173e-09 -2.91949e-05 0)
(2.09947e-09 -0.000630202 0)
(2.02347e-09 -0.00124988 0)
(1.83807e-09 -0.0017847 0)
(1.58462e-09 -0.00208624 0)
(1.2706e-09 -0.00194171 0)
(3.34121e-10 -0.00104657 0)
(2.887e-11 -0.00104658 0)
(3.18542e-10 -0.00194171 0)
(6.55144e-10 -0.00208624 0)
(9.78182e-10 -0.0017847 0)
(1.15941e-09 -0.00124988 0)
(1.24305e-09 -0.000630201 0)
(1.2965e-09 -2.91942e-05 0)
(1.34533e-09 0.000480281 0)
(1.39665e-09 0.000847334 0)