/*--------------------------------*- C++ -*----------------------------------*\
| =========                 |                                                 |
| \\      /  F ield         | OpenFOAM: The Open Source CFD Toolbox           |
|  \\    /   O peration     | Version:  5.x                                   |
|   \\  /    A nd           | Web:      www.OpenFOAM.org                      |
|    \\/     M anipulation  |                                                 |
\*---------------------------------------------------------------------------*/
FoamFile
{
    version     2.0;
    format      ascii;
    class       surfaceScalarField;
    location    "0.25";
    object      alphaPhi10;
}
// * * * * * * * * * * * * * * * * * * * * * * * * * * * * * * * * * * * * * //

dimensions      [0 3 -1 0 0 0 0];

internalField   nonuniform List<scalar> 
4432
(
4.53637e-07
-4.53637e-07
5.06608e-06
-4.61244e-06
1.12542e-05
-6.18816e-06
1.72908e-05
-6.03656e-06
2.26028e-05
-5.31204e-06
2.72592e-05
-4.6564e-06
3.15124e-05
-4.25313e-06
3.55745e-05
-4.06219e-06
3.95509e-05
-3.97634e-06
4.34442e-05
-3.89334e-06
4.71832e-05
-3.73895e-06
5.06444e-05
-3.46125e-06
5.36648e-05
-3.02035e-06
5.59999e-05
-2.33517e-06
5.72996e-05
-1.29972e-06
5.6697e-05
6.0267e-07
5.25154e-05
4.18156e-06
4.3055e-05
9.46038e-06
2.71385e-05
1.59165e-05
6.13744e-06
2.10011e-05
-1.02656e-05
1.8103e-05
-1.47333e-05
5.51935e-06
-1.82912e-05
5.14895e-07
-9.68531e-07
5.16161e-06
-9.25916e-06
1.13562e-05
-1.23828e-05
1.73842e-05
-1.20645e-05
2.26876e-05
-1.06155e-05
2.73479e-05
-9.31664e-06
3.16229e-05
-8.52813e-06
3.57217e-05
-8.161e-06
3.97432e-05
-7.99785e-06
4.36866e-05
-7.83673e-06
4.74802e-05
-7.53251e-06
5.10042e-05
-6.98527e-06
5.40928e-05
-6.10894e-06
5.65577e-05
-4.80008e-06
5.81616e-05
-2.9036e-06
5.89566e-05
-1.92347e-07
5.92691e-05
3.86902e-06
5.80813e-05
1.06482e-05
5.23859e-05
2.16119e-05
3.83053e-05
3.50817e-05
1.67265e-05
3.99299e-05
1.71256e-06
2.13575e-05
-1.65787e-05
6.16348e-07
-1.58488e-06
5.30357e-06
-1.39464e-05
1.14649e-05
-1.85441e-05
1.74149e-05
-1.80145e-05
2.26451e-05
-1.58457e-05
2.72661e-05
-1.39376e-05
3.15419e-05
-1.28039e-05
3.56723e-05
-1.22915e-05
3.97436e-05
-1.20691e-05
4.37464e-05
-1.18396e-05
4.76076e-05
-1.13937e-05
5.12104e-05
-1.05881e-05
5.4403e-05
-9.30146e-06
5.69991e-05
-7.39625e-06
5.87722e-05
-4.67668e-06
5.94416e-05
-8.61728e-07
5.88897e-05
4.42094e-06
5.76462e-05
1.18917e-05
5.63822e-05
2.28759e-05
5.28338e-05
3.86301e-05
4.08848e-05
5.1879e-05
2.00878e-05
4.215e-05
3.19767e-06
7.70302e-07
-2.35518e-06
5.52303e-06
-1.86991e-05
1.16321e-05
-2.46531e-05
1.74652e-05
-2.38476e-05
2.25915e-05
-2.09721e-05
2.71641e-05
-1.85102e-05
3.14506e-05
-1.70904e-05
3.56345e-05
-1.64753e-05
3.9783e-05
-1.62176e-05
4.38761e-05
-1.59328e-05
4.78387e-05
-1.53563e-05
5.15595e-05
-1.43089e-05
5.4898e-05
-1.264e-05
5.76824e-05
-1.01806e-05
5.97068e-05
-6.70117e-06
6.07308e-05
-1.88571e-06
6.04783e-05
4.67345e-06
5.89009e-05
1.34691e-05
5.69102e-05
2.48666e-05
5.56334e-05
3.99068e-05
4.99876e-05
5.75248e-05
3.09169e-05
6.12203e-05
3.4133e-05
9.75069e-07
-3.33025e-06
5.80592e-06
-2.353e-05
1.18354e-05
-3.06826e-05
1.75134e-05
-2.95256e-05
2.25108e-05
-2.59695e-05
2.70306e-05
-2.303e-05
3.13389e-05
-2.13987e-05
3.55946e-05
-2.0731e-05
3.98415e-05
-2.04645e-05
4.40471e-05
-2.01383e-05
4.81354e-05
-1.94446e-05
5.20031e-05
-1.81765e-05
5.55232e-05
-1.61601e-05
5.85427e-05
-1.32001e-05
6.08801e-05
-9.03854e-06
6.23229e-05
-3.32853e-06
6.26298e-05
4.36658e-06
6.15907e-05
1.45082e-05
5.91121e-05
2.73452e-05
5.63762e-05
4.26428e-05
5.18811e-05
6.20199e-05
3.56175e-05
7.74836e-05
6.97823e-05
1.22582e-06
-4.55607e-06
6.13614e-06
-2.84403e-05
1.20539e-05
-3.66004e-05
1.75433e-05
-3.5015e-05
2.23956e-05
-3.08218e-05
2.68648e-05
-2.74992e-05
3.12073e-05
-2.57412e-05
3.55499e-05
-2.50736e-05
3.99096e-05
-2.48243e-05
4.42418e-05
-2.44705e-05
4.84719e-05
-2.36747e-05
5.25073e-05
-2.2212e-05
5.6238e-05
-1.98907e-05
5.95312e-05
-1.64934e-05
6.22265e-05
-1.17338e-05
6.41297e-05
-5.23181e-06
6.50062e-05
3.49011e-06
6.46393e-05
1.48751e-05
6.26077e-05
2.93769e-05
5.87891e-05
4.64614e-05
5.30455e-05
6.77636e-05
3.79936e-05
9.25354e-05
0.000107776
1.51422e-06
-6.07028e-06
6.49904e-06
-3.34251e-05
1.22708e-05
-4.23721e-05
1.75451e-05
-4.02893e-05
2.22462e-05
-3.5523e-05
2.66735e-05
-3.19265e-05
3.10634e-05
-3.0131e-05
3.55039e-05
-2.95141e-05
3.99842e-05
-2.93046e-05
4.44496e-05
-2.89359e-05
4.88311e-05
-2.80562e-05
5.30508e-05
-2.64317e-05
5.70178e-05
-2.38577e-05
6.06185e-05
-2.00941e-05
6.371e-05
-1.48253e-05
6.61151e-05
-7.63691e-06
6.75947e-05
2.01051e-06
6.79077e-05
1.45622e-05
6.66785e-05
3.0606e-05
6.30986e-05
5.00413e-05
5.63489e-05
7.45133e-05
4.30206e-05
0.000105864
0.000150797
1.82688e-06
-7.89717e-06
6.87335e-06
-3.84716e-05
1.24702e-05
-4.7969e-05
1.75191e-05
-4.53381e-05
2.20766e-05
-4.00805e-05
2.64764e-05
-3.63263e-05
3.09252e-05
-3.45798e-05
3.54692e-05
-3.40581e-05
4.00719e-05
-3.39073e-05
4.46736e-05
-3.35376e-05
4.92173e-05
-3.25998e-05
5.36448e-05
-3.08593e-05
5.78831e-05
-2.80959e-05
6.18329e-05
-2.4044e-05
6.53638e-05
-1.83561e-05
6.83096e-05
-1.05827e-05
7.04299e-05
-1.09821e-07
7.14576e-05
1.35344e-05
7.11281e-05
3.09356e-05
6.868e-05
5.24894e-05
6.21851e-05
8.10081e-05
4.84264e-05
0.000119622
0.000199223
1.41967e-20
-3.10511e-20
1.83634e-20
-6.87999e-20
6.8636e-23
-7.42639e-22
2.92992e-25
-3.67674e-24
4.58737e-27
-3.35384e-26
7.27053e-29
-3.28583e-28
1.14687e-30
-3.2445e-30
1.78704e-32
-2.72991e-32
3.11445e-34
-6.65217e-35
1.36969e-35
2.43387e-36
1.15296e-36
3.38825e-37
2.76558e-38
2.55956e-38
4.21343e-40
8.98234e-40
6.50092e-42
2.37852e-41
7.81325e-44
5.02254e-43
6.47457e-46
7.91252e-45
3.10522e-48
8.80648e-47
5.6492e-51
5.97298e-49
1.73294e-51
1.55421e-18
-1.58526e-18
1.1015e-18
-2.90436e-18
4.91372e-21
-4.602e-19
2.19076e-23
-5.61013e-22
3.74666e-25
-3.46231e-24
6.79724e-27
-3.856e-26
1.25686e-28
-4.2192e-28
2.40005e-30
-4.75468e-30
4.69603e-32
-3.04561e-32
1.4289e-33
9.48364e-34
1.04579e-34
1.16354e-34
5.02351e-36
1.22423e-35
8.61839e-38
5.69773e-37
1.21857e-39
1.57812e-38
1.52594e-41
3.48071e-40
1.28437e-43
5.71957e-42
5.77849e-46
6.34407e-44
9.13737e-49
3.85662e-46
9.40534e-49
1.53987e-16
-1.55572e-16
8.90752e-18
2.81383e-16
3.04959e-19
-1.18128e-18
7.45394e-22
-1.18903e-20
1.25568e-23
-1.13799e-22
2.76824e-25
-1.28859e-24
6.13042e-27
-1.892e-26
1.4195e-28
-2.82392e-28
3.37996e-30
-2.63036e-30
8.90655e-32
8.90994e-32
4.55087e-33
8.49621e-33
3.15664e-34
1.02198e-33
4.94496e-36
4.90107e-35
6.48688e-38
1.32223e-36
7.42977e-40
2.75522e-38
5.49403e-42
4.131e-40
2.25965e-44
4.01703e-42
5.9822e-47
2.53238e-44
6.19247e-47
1.58101e-14
-1.59657e-14
9.32529e-17
1.63472e-14
4.40224e-18
3.3882e-16
1.02052e-19
-2.2815e-18
4.76545e-22
-3.77839e-20
1.03692e-23
-1.22033e-22
3.65275e-25
-1.92803e-24
8.23926e-27
-2.91983e-26
2.06202e-28
-3.47988e-28
5.89703e-30
6.13922e-30
3.08684e-31
7.5357e-31
1.7782e-32
8.42653e-32
2.80564e-34
3.84934e-33
3.55836e-36
1.01052e-34
3.72414e-38
1.96883e-36
2.72243e-40
2.73732e-38
1.30517e-42
2.94127e-40
4.46808e-45
1.89957e-42
4.60864e-45
8.44343e-13
-8.60309e-13
2.47753e-14
8.24172e-13
1.40233e-16
1.65889e-14
1.80981e-18
1.06794e-16
4.7501e-20
-6.51521e-19
1.21167e-21
-3.01321e-20
3.14342e-23
-3.28004e-22
7.79557e-25
-4.94389e-24
1.77331e-26
-4.5627e-26
4.37746e-28
5.25735e-28
1.92834e-29
6.57367e-29
9.56394e-31
6.28522e-30
1.5423e-32
2.73635e-31
1.8603e-34
6.92689e-33
1.87088e-36
1.23529e-34
1.55722e-38
1.85448e-36
7.51776e-41
2.04856e-38
3.21444e-43
1.34495e-40
3.31294e-43
3.81201e-11
-3.89747e-11
4.35655e-13
3.78513e-11
4.5987e-15
-7.46947e-13
-7.0136e-17
5.05907e-15
2.0624e-18
-3.51735e-17
1.22669e-19
-7.45431e-19
2.49352e-21
-6.25746e-20
6.86801e-23
-2.64034e-21
9.84482e-25
-1.13705e-23
2.06532e-26
2.62093e-26
8.54944e-28
3.25353e-27
6.01624e-29
3.70828e-28
8.3323e-31
1.72321e-29
9.08997e-33
4.143e-31
9.20083e-35
7.17277e-33
8.12846e-37
1.11562e-34
3.94936e-39
1.25446e-36
2.05355e-41
8.3628e-39
2.11736e-41
5.67904e-10
-6.06879e-10
1.47248e-10
-2.04881e-09
3.80295e-14
-2.08171e-12
5.35791e-16
-9.74441e-15
1.87813e-16
-1.8734e-15
1.35061e-18
-3.39115e-17
1.59563e-19
-2.4276e-19
5.06637e-21
-1.09932e-20
4.69884e-23
-1.34313e-22
8.52948e-25
6.90874e-25
4.3658e-26
1.4636e-25
4.41174e-27
2.29884e-26
5.23704e-29
1.1897e-27
5.06471e-31
2.68954e-29
5.36822e-33
4.72374e-31
4.89054e-35
7.53474e-33
2.4358e-37
8.69472e-35
1.50337e-39
5.92159e-37
1.54567e-39
6.39584e-09
-7.00257e-09
1.93424e-10
-2.47624e-09
5.50971e-12
1.51526e-10
2.30187e-13
4.0353e-12
1.5309e-14
1.16105e-13
1.55668e-17
-1.48168e-15
4.25354e-19
2.05804e-17
2.46329e-20
3.8283e-19
7.38929e-22
3.10353e-20
2.15334e-23
5.83077e-26
2.27687e-24
3.38037e-24
5.07983e-25
1.4932e-24
4.12355e-27
9.42631e-26
3.18453e-29
1.92704e-27
3.60288e-31
3.44239e-29
3.59563e-33
5.81549e-31
1.91671e-35
7.23443e-33
1.32888e-37
5.12491e-35
1.36361e-37
4.8888e-06
-1.2786e-05
1.58567e-05
-4.94395e-05
2.71406e-05
-5.92529e-05
3.71165e-05
-5.53141e-05
4.6403e-05
-4.93669e-05
5.57504e-05
-4.56738e-05
6.54474e-05
-4.42767e-05
7.54628e-05
-4.40735e-05
8.56674e-05
-4.4112e-05
9.595e-05
-4.38202e-05
0.000106248
-4.28979e-05
0.000116488
-4.10989e-05
0.000126535
-3.81428e-05
0.000136223
-3.37325e-05
0.00014537
-2.75031e-05
0.000153725
-1.89376e-05
0.000160783
-7.16823e-06
0.000165639
8.67866e-06
0.000168123
2.8452e-05
0.000167815
5.27973e-05
0.000165247
8.35756e-05
0.000168586
0.000116284
0.000168264
0.000198226
6.32041e-06
-1.91064e-05
1.73805e-05
-6.04996e-05
2.77658e-05
-6.96382e-05
3.68454e-05
-6.43937e-05
4.57439e-05
-5.82654e-05
5.51798e-05
-5.51097e-05
6.52338e-05
-5.43306e-05
7.57317e-05
-5.45714e-05
8.65187e-05
-5.48991e-05
9.75296e-05
-5.48311e-05
0.000108763
-5.41309e-05
0.000120126
-5.24625e-05
0.000131448
-4.94643e-05
0.000142743
-4.50275e-05
0.000154125
-3.8886e-05
0.000165682
-3.04941e-05
0.000177161
-1.86475e-05
0.000186904
-1.06421e-06
0.000195636
1.97193e-05
0.000202443
4.59908e-05
0.000211442
7.4576e-05
0.000226511
0.000101215
0.000134624
0.000258747
7.7379e-06
-2.68443e-05
1.87195e-05
-7.14813e-05
2.8109e-05
-7.90277e-05
3.64082e-05
-7.26929e-05
4.51075e-05
-6.69648e-05
5.47303e-05
-6.47325e-05
6.51095e-05
-6.47098e-05
7.59615e-05
-6.54235e-05
8.71281e-05
-6.60657e-05
9.85505e-05
-6.62538e-05
0.000110198
-6.57791e-05
0.000121891
-6.41557e-05
0.000133659
-6.12347e-05
0.000146312
-5.76797e-05
0.000160265
-5.28403e-05
0.000175736
-4.59645e-05
0.000190817
-3.37294e-05
0.000205749
-1.59966e-05
0.000219476
5.99239e-06
0.000228882
3.65849e-05
0.000239981
6.34768e-05
0.000252668
8.85274e-05
0.00011148
0.000275691
9.0746e-06
-3.59189e-05
1.9742e-05
-8.21487e-05
2.80941e-05
-8.73801e-05
3.5778e-05
-8.0377e-05
4.43906e-05
-7.55776e-05
5.40892e-05
-7.44314e-05
6.44381e-05
-7.50592e-05
7.50727e-05
-7.6059e-05
8.58299e-05
-7.68247e-05
9.66482e-05
-7.70749e-05
0.000107634
-7.67785e-05
0.000118991
-7.55246e-05
0.000131798
-7.40431e-05
0.000148391
-7.42757e-05
0.000166802
-7.12712e-05
0.000183753
-6.06406e-05
0.000192627
-3.73388e-05
0.000199903
-1.80807e-05
0.000210445
-2.36851e-06
0.000232259
1.59777e-05
0.000255533
4.15642e-05
0.000268465
7.5595e-05
9.56977e-05
0.00028383
1.03584e-05
-4.62773e-05
2.02272e-05
-9.20196e-05
2.73525e-05
-9.4509e-05
3.44429e-05
-8.74707e-05
4.27908e-05
-8.39292e-05
5.20437e-05
-8.36897e-05
6.15782e-05
-8.45988e-05
7.11209e-05
-8.56159e-05
8.07298e-05
-8.64686e-05
9.07351e-05
-8.70825e-05
0.000102029
-8.80717e-05
0.000116377
-8.9887e-05
0.000131874
-8.62867e-05
0.000132123
-5.70636e-05
9.7554e-05
-1.75543e-05
5.68917e-05
-3.53341e-06
3.36547e-05
-5.16966e-07
2.38083e-05
-7.82197e-08
2.20877e-05
-3.8443e-08
3.7414e-05
3.53258e-07
7.61864e-05
7.05115e-07
0.00014461
1.72685e-06
1.09524e-05
0.0002257
1.16222e-05
-5.78995e-05
1.99816e-05
-0.000100404
2.54313e-05
-9.99838e-05
3.17609e-05
-9.38275e-05
3.95251e-05
-9.17539e-05
4.79361e-05
-9.21025e-05
5.6538e-05
-9.31984e-05
6.56819e-05
-9.47554e-05
7.65536e-05
-9.73495e-05
8.78048e-05
-9.23729e-05
9.23636e-05
-7.05282e-05
7.7042e-05
-3.16494e-05
4.29611e-05
-5.70646e-06
2.15223e-05
-8.275e-07
4.10374e-06
-1.1191e-07
5.96456e-07
-2.19877e-08
8.52164e-08
-5.26222e-09
2.09847e-08
-3.49203e-09
2.38634e-08
-6.86481e-09
5.03703e-07
-5.33677e-09
1.33169e-06
5.06093e-09
2.95026e-06
1.3206e-07
3.00048e-07
1.3049e-05
1.35549e-05
-7.14544e-05
1.9851e-05
-0.000106696
2.29241e-05
-0.000103067
2.8803e-05
-9.97132e-05
3.67743e-05
-9.97918e-05
4.52669e-05
-9.3292e-05
5.24859e-05
-7.90895e-05
5.58693e-05
-5.97545e-05
5.07208e-05
-3.43938e-05
3.20614e-05
-5.11096e-06
1.45222e-05
-5.10366e-07
6.58923e-06
-5.36888e-08
8.93303e-07
-3.41496e-09
9.8621e-08
-1.3558e-08
1.99548e-08
-1.1653e-08
1.35272e-08
-6.56297e-09
1.3517e-08
-3.21807e-09
1.67365e-08
-2.15376e-09
1.09025e-07
-5.59053e-08
1.94409e-07
-1.01741e-07
2.0649e-07
1.07958e-08
3.71365e-07
8.20492e-09
7.16912e-09
6.63017e-07
1.68295e-05
-6.6211e-05
1.68463e-05
-4.52687e-05
1.77846e-05
-3.95176e-05
2.10994e-05
-3.55039e-05
2.30043e-05
-2.67441e-05
2.03677e-05
-1.35552e-06
1.50898e-05
-6.47314e-08
8.23725e-06
-3.63106e-09
5.67733e-06
-2.36027e-10
5.66395e-07
-1.7444e-11
5.60359e-08
-4.58156e-13
3.56149e-09
-1.07734e-09
5.71054e-09
-1.64796e-09
6.64818e-09
-7.35136e-09
1.50859e-08
9.85829e-10
1.9791e-08
-3.10317e-10
2.1874e-08
-9.6742e-10
1.42102e-07
-4.68882e-08
5.3994e-07
-1.59197e-07
6.46826e-07
-1.8348e-07
2.88238e-07
-5.23492e-08
2.29759e-08
2.09069e-08
2.78633e-09
4.50981e-08
6.58873e-06
1.63906e-23
1.89569e-06
2.64297e-23
2.27023e-06
-1.19844e-21
1.80017e-06
-1.23062e-19
1.42414e-06
-1.20079e-17
6.86168e-08
-5.56842e-16
3.88541e-09
-7.926e-15
2.54359e-10
-7.02346e-15
1.83202e-11
-5.41378e-15
9.0517e-13
-2.2168e-14
5.16391e-13
-1.95838e-13
4.71411e-10
-1.54182e-09
4.3861e-09
-5.42562e-09
1.71591e-08
-3.42643e-08
1.29716e-08
-1.09125e-08
1.87938e-08
-1.54971e-09
2.09629e-08
-1.10123e-09
4.51046e-07
-6.08474e-08
5.15119e-07
-1.98129e-07
5.40159e-07
-1.83377e-07
2.26835e-07
-8.01507e-08
1.59584e-09
8.80627e-09
7.18687e-10
3.69433e-09
-1.67744e-24
5.53515e-23
-6.65779e-24
8.86749e-23
2.73547e-23
-1.23245e-21
3.55922e-21
-1.26712e-19
3.99423e-19
-1.24151e-17
2.22666e-17
-5.79734e-16
2.59003e-16
-8.20902e-15
8.09671e-16
-8.07388e-15
1.25389e-15
-4.8072e-15
6.43931e-15
-2.0291e-14
3.25111e-12
-3.43354e-12
1.09998e-08
-1.25384e-08
9.40483e-08
-8.92141e-08
7.90125e-08
-7.32152e-08
2.1867e-08
-2.29283e-08
2.25082e-08
-1.00477e-09
1.67984e-07
-5.31772e-09
4.36396e-07
-1.05404e-07
4.49742e-07
-1.78293e-07
3.83294e-07
-9.17876e-08
-4.74969e-09
-8.13958e-09
-1.13803e-09
1.12462e-10
-5.57201e-12
1.99183e-10
-7.07627e-25
3.78515e-23
-9.57566e-24
5.8499e-23
4.83817e-22
-4.77301e-21
5.90363e-20
-4.3703e-19
6.04024e-18
-3.46893e-17
3.46575e-16
-1.92771e-15
4.6763e-15
-2.93709e-14
6.01015e-15
-3.00096e-14
4.44443e-15
-5.0272e-15
1.50544e-13
-1.60021e-13
3.2781e-11
-3.60963e-11
4.79157e-08
-7.60514e-08
1.02193e-07
-1.26829e-07
6.8502e-08
-3.66157e-08
4.3491e-08
-1.57772e-08
4.38009e-08
-4.27574e-09
2.95988e-07
-3.1466e-08
3.8013e-07
-1.53999e-07
3.49961e-07
-1.06899e-07
1.96964e-08
-2.53978e-08
-5.09243e-10
-1.56922e-10
-2.25663e-11
2.62306e-12
-5.99179e-13
2.42127e-11
-1.41327e-24
3.33962e-23
-6.12081e-24
-3.70411e-23
4.65774e-21
-3.13171e-20
6.90444e-19
-3.66417e-18
8.50432e-17
-3.83763e-16
3.5673e-15
-1.45234e-14
1.61384e-14
-7.74127e-14
1.08388e-14
-5.23504e-14
1.33784e-14
-7.92684e-15
1.24484e-12
-1.38871e-12
2.66916e-10
-3.02084e-10
3.42419e-08
-5.18191e-08
5.16647e-08
-1.17598e-07
2.952e-08
-6.98561e-09
2.63652e-08
-2.52773e-08
1.4023e-07
-8.69512e-08
2.80753e-07
-1.28213e-07
2.51216e-07
-1.00639e-07
5.27109e-08
-3.14304e-08
1.29671e-10
-6.59014e-10
-4.56175e-12
-2.23557e-11
-5.40728e-13
-1.21778e-12
-5.23305e-13
1.76032e-12
-2.11137e-24
2.26563e-23
9.3899e-24
-1.57479e-22
1.11282e-20
-6.42971e-20
2.13125e-18
-9.34749e-18
3.18733e-16
-1.36405e-15
8.25936e-15
-3.57373e-14
1.82471e-14
-9.79877e-14
7.96594e-15
-5.32449e-14
1.42256e-14
-8.76852e-15
1.02484e-11
-1.07996e-11
1.16856e-09
-2.09105e-09
1.06581e-08
-3.11062e-09
2.3172e-08
-8.91473e-08
9.75031e-09
-1.80281e-07
1.42273e-08
-1.64222e-07
1.30249e-07
-1.77563e-07
1.22207e-07
-8.55904e-08
3.14974e-08
-4.89362e-16
6.82437e-10
-1.37678e-15
2.34957e-11
-3.35825e-14
1.33678e-12
-1.00957e-13
2.26547e-13
-1.64266e-14
-6.37402e-13
1.79483e-12
-1.32418e-24
1.13287e-23
2.9522e-23
-3.14545e-22
1.2342e-20
-7.46452e-20
3.02837e-18
-1.2933e-17
4.97774e-16
-2.47908e-15
5.22305e-15
-4.61595e-14
1.13742e-14
-9.62664e-14
4.24324e-15
-4.64727e-14
9.31905e-15
-1.06043e-14
-3.84158e-11
-1.16279e-12
4.94335e-11
-2.94794e-11
-2.80528e-09
-1.7495e-10
-6.03527e-09
-7.50016e-09
-6.16225e-08
-1.26916e-07
-4.95897e-08
-9.17118e-08
-2.48081e-08
-1.11077e-07
-3.18944e-17
-1.06784e-15
4.18387e-17
-8.7617e-16
2.28456e-16
-1.87589e-15
9.39436e-16
-2.14305e-14
5.90942e-15
-2.5911e-14
9.65505e-14
-1.13274e-14
-8.83051e-13
1.45219e-12
-5.00822e-25
3.82133e-24
2.90923e-23
-3.01475e-22
9.46553e-21
-6.4316e-20
2.61694e-18
-1.28997e-17
4.43376e-16
-2.78636e-15
4.75957e-15
-4.51833e-14
4.92189e-15
-8.85563e-14
1.56077e-16
-2.68017e-14
-5.93428e-15
-5.75944e-15
-1.81293e-12
-1.17096e-14
-1.08465e-11
7.39565e-16
-1.85814e-10
1.77747e-14
-7.68604e-09
6.7242e-14
-3.09546e-08
1.10352e-13
-1.80148e-08
1.97142e-13
-3.71647e-16
-5.14213e-16
-3.44468e-16
-1.21714e-15
6.18316e-18
-3.22232e-15
1.23356e-15
-1.05688e-14
1.39505e-14
-1.78467e-14
2.3188e-14
-2.70149e-14
1.02395e-13
-4.82473e-14
-3.28032e-13
9.493e-13
-1.14237e-25
8.47495e-25
1.56973e-23
-1.06244e-22
4.03987e-21
-1.80679e-20
1.48844e-18
-6.95874e-18
2.66071e-16
-2.33192e-15
2.24751e-15
-2.64833e-14
1.23302e-15
-4.40671e-14
-2.77303e-16
-1.21436e-14
-9.78539e-17
-7.31357e-15
1.31742e-16
-1.19392e-14
4.90798e-15
-9.96814e-15
2.50584e-14
-6.28831e-15
6.06197e-14
-1.62385e-15
1.36111e-13
-2.74916e-16
-1.63129e-17
-1.13231e-16
-3.17269e-16
-2.13257e-16
-3.12466e-16
-1.35469e-15
1.68559e-16
-4.09196e-15
3.45668e-15
-9.44151e-15
8.81125e-15
-1.56443e-14
2.33699e-14
-3.05025e-14
5.67619e-14
-5.6601e-14
-2.61955e-13
2.04512e-13
-1.53042e-26
6.51158e-25
2.35138e-24
-6.20349e-24
5.03243e-22
-2.93909e-22
2.89996e-19
-1.28572e-18
7.61788e-17
-6.87396e-16
3.32553e-16
-6.60008e-15
-3.24946e-17
-1.03939e-14
-2.59945e-16
-4.43031e-15
-1.05228e-15
-7.19469e-15
-1.77716e-15
-1.46284e-14
-1.94825e-15
-1.50059e-14
-8.37609e-16
-1.21211e-14
-1.59862e-16
-3.67713e-15
-4.82548e-17
-5.54766e-16
-3.86921e-17
-1.16652e-16
-1.35541e-16
-1.19828e-16
-3.41085e-16
-9.75929e-16
6.17015e-17
-2.59084e-15
1.58246e-15
-5.63469e-15
5.53565e-15
-1.19197e-14
1.69116e-14
-2.69839e-14
4.5815e-14
-6.04019e-14
-2.64817e-13
2.4285e-13
-6.12459e-27
1.35556e-24
8.76363e-26
-2.19387e-24
6.54419e-24
-7.60953e-22
1.43496e-20
-9.36904e-20
3.1671e-18
-8.57626e-17
-2.61211e-17
-8.40034e-16
-4.71978e-17
-1.37724e-15
-1.63348e-16
-1.19051e-15
-9.92969e-16
-4.29608e-15
-1.70927e-15
-1.22006e-14
-2.01227e-15
-1.29914e-14
-1.34047e-15
-1.15839e-14
-2.6675e-16
-3.95995e-15
-3.73143e-17
-6.82268e-16
-2.19164e-17
-9.60431e-17
-5.1011e-17
-1.48098e-17
-1.07259e-16
-2.11555e-16
-1.88657e-17
-9.25587e-16
6.0106e-16
-2.89976e-15
2.85861e-15
-8.1077e-15
1.03434e-14
-2.1493e-14
3.45213e-14
-5.46929e-14
-2.26588e-13
1.58998e-13
-4.59159e-27
2.14357e-24
1.20206e-26
-3.1189e-24
5.63545e-25
-1.87662e-21
-1.82491e-20
-2.46966e-20
-2.91078e-18
-4.57884e-18
-1.45004e-17
-3.89038e-17
-2.2469e-17
-9.48379e-17
-5.57314e-17
-2.70439e-16
-4.78289e-16
-1.11535e-15
-1.22539e-15
-4.38272e-15
-1.61428e-15
-8.0273e-15
-1.00962e-15
-5.52656e-15
-2.27813e-16
-2.38469e-15
-2.72406e-17
-4.45848e-16
-1.5359e-18
-5.31078e-17
-4.70397e-18
-1.29194e-18
-2.31448e-17
-2.72822e-17
-2.74132e-17
-2.16492e-16
1.51468e-16
-1.22713e-15
1.19808e-15
-5.12582e-15
5.32425e-15
-1.62271e-14
2.02654e-14
-4.97009e-14
-2.30439e-13
8.83893e-14
-2.36191e-27
2.3142e-24
-8.88459e-25
3.92763e-25
-1.5968e-23
-1.48243e-21
-4.03145e-21
-8.2444e-21
-1.79338e-19
-9.16298e-21
-9.05444e-19
-8.8009e-19
-3.56295e-18
-2.30954e-17
-1.65745e-17
-1.06357e-16
-1.15544e-16
-2.67822e-16
-4.85389e-16
-6.75347e-16
-5.18673e-16
-1.00805e-15
-3.2667e-16
-9.14078e-16
-8.29893e-17
-2.68513e-16
-1.20484e-17
-7.2627e-17
-1.26427e-19
-1.70793e-17
-3.44191e-19
-2.97997e-19
-3.37301e-18
-4.88005e-18
-1.51121e-17
-6.14979e-17
-5.47998e-18
-5.53229e-16
3.18044e-16
-3.18194e-15
2.14474e-15
-1.22823e-14
1.0638e-14
-4.41759e-14
-2.27716e-13
7.06973e-14
1.40305e-27
1.56857e-24
-8.9438e-24
1.23766e-23
-6.68451e-23
1.698e-23
-9.80227e-23
-2.09613e-24
-7.87804e-22
-8.9614e-22
-1.56724e-19
-4.12005e-19
-2.10908e-18
-1.1435e-17
-7.58542e-18
-5.26871e-17
-2.60759e-17
-1.08624e-16
-5.78985e-17
-1.39078e-16
-6.79804e-17
-1.24223e-16
-3.19684e-17
-5.32409e-17
-1.02445e-17
-2.30193e-17
-3.21175e-18
-1.45831e-17
-3.08324e-20
-7.65962e-18
-5.51854e-20
-1.11165e-19
-7.58335e-19
-1.13661e-18
-7.95698e-18
-1.9618e-17
-4.46335e-17
-2.52787e-16
-7.74854e-17
-1.96999e-15
2.44453e-16
-9.17095e-15
2.73467e-15
-3.40323e-14
-1.48351e-13
2.26547e-14
6.99015e-26
4.47139e-25
2.10572e-25
3.53711e-24
-4.52194e-26
6.31021e-24
-2.11799e-24
-2.33637e-26
-4.85343e-22
-8.77899e-24
-8.7618e-20
-2.68299e-21
-1.2061e-18
-7.81683e-19
-4.87535e-18
-1.33402e-17
-8.93565e-18
-4.79346e-17
-1.04448e-17
-7.01722e-17
-6.79612e-18
-7.07904e-17
-2.70514e-18
-2.99662e-17
-1.59985e-18
-7.40104e-18
-1.08243e-18
-1.0136e-18
-1.21551e-20
-1.12598e-19
-1.66211e-20
-4.48041e-20
-2.19342e-19
-3.45333e-19
-3.83355e-18
-6.95165e-18
-4.34232e-17
-1.10869e-16
-2.38302e-16
-1.13032e-15
-7.19296e-16
-6.40913e-15
-4.17308e-15
-2.54542e-14
-1.23639e-13
-1.03759e-16
2.56463e-26
6.53643e-26
9.72187e-26
5.23432e-25
-6.31825e-28
1.00334e-24
-2.12523e-26
-2.74325e-27
-4.73441e-24
-9.21558e-25
-1.32805e-21
-2.27736e-22
-1.54339e-19
-7.64683e-20
-1.7887e-18
-2.22529e-18
-4.54747e-18
-1.01226e-17
-5.82869e-18
-1.7643e-17
-4.30339e-18
-1.96023e-17
-1.26734e-18
-1.30389e-17
-1.74566e-19
-3.49533e-18
-1.62931e-20
-3.41414e-19
-5.13796e-21
-3.11811e-20
-6.61896e-21
-1.72529e-20
-8.00889e-20
-1.18168e-19
-1.74075e-18
-2.46125e-18
-2.94458e-17
-4.42734e-17
-2.52435e-16
-5.72727e-16
-1.02559e-15
-3.94539e-15
-8.316e-15
-1.68232e-14
-1.02343e-13
-3.70545e-16
4.46188e-27
-1.17722e-37
1.78764e-26
-1.56884e-34
-8.4142e-29
-1.01398e-31
-2.78598e-27
-4.14069e-29
-5.28402e-25
-1.20709e-26
-1.2643e-22
-2.73444e-24
-2.15647e-20
-7.19193e-22
-3.08984e-19
-1.057e-19
-9.52029e-19
-8.05821e-19
-1.35879e-18
-1.84873e-18
-1.39345e-18
-2.44955e-18
-5.87177e-19
-2.55953e-18
-6.58983e-20
-9.60946e-19
-4.93055e-21
-1.00805e-19
-2.07363e-21
-1.00824e-20
-2.69274e-21
-5.68945e-21
-3.0726e-20
-3.67283e-20
-7.1058e-19
-7.86317e-19
-1.56723e-17
-1.53618e-17
-1.85582e-16
-2.35075e-16
-8.73093e-16
-1.92252e-15
-8.50751e-15
-1.02469e-14
-8.49057e-14
5.31647e-15
-1.16736e-37
-9.86387e-40
-1.55753e-34
-1.2473e-36
-1.00798e-31
-7.5617e-34
-3.35307e-29
-1.50384e-31
-8.85899e-27
-4.4573e-29
-2.49195e-24
-9.42714e-27
-5.79715e-22
-2.00626e-24
-1.87381e-20
-4.11891e-22
-8.36364e-20
-5.30035e-21
-1.52643e-19
-1.45463e-20
-1.95334e-19
-1.8773e-20
-1.32309e-19
-1.63937e-20
-1.78692e-20
-5.8412e-21
-1.55878e-21
-1.91668e-21
-7.04208e-22
-1.01871e-21
-9.27605e-22
-1.33557e-21
-1.04461e-20
-9.7029e-21
-2.52119e-19
-1.95995e-19
-6.33293e-18
-3.81395e-18
-8.72392e-17
-6.49347e-17
-5.58496e-16
-7.77949e-16
-7.56848e-15
-7.07229e-15
-6.70393e-14
1.73281e-15
-9.81751e-40
-4.63598e-42
-1.23938e-36
-5.57799e-39
-7.50526e-34
-3.23316e-36
-1.46965e-31
-6.19571e-34
-2.8632e-29
-1.73934e-31
-8.19355e-27
-3.81125e-29
-1.42006e-24
-7.15851e-27
-1.04295e-22
-1.79121e-24
-6.69712e-22
-3.8971e-23
-1.23142e-21
-1.59328e-22
-1.35958e-21
-2.84426e-22
-7.26706e-22
-3.31244e-22
-2.48751e-22
-3.05263e-22
-1.09104e-22
-1.71797e-22
-1.22013e-22
-9.85181e-23
-2.39347e-22
-2.08705e-22
-2.9984e-21
-2.5291e-21
-6.78186e-20
-5.13469e-20
-1.54106e-18
-9.8386e-19
-2.67146e-17
-1.71576e-17
-3.41731e-16
-2.64443e-16
-6.20934e-15
-3.54301e-15
-3.8737e-14
-1.27126e-14
-4.63502e-42
-9.61227e-46
-5.58168e-39
-1.09227e-42
-3.23796e-36
-6.07956e-40
-6.22506e-34
-1.13555e-37
-1.72095e-31
-3.15944e-35
-3.77389e-29
-6.4864e-33
-5.05587e-27
-1.10919e-30
-5.43204e-25
-1.67469e-28
-5.84076e-24
-3.52683e-26
-1.71495e-23
-8.85365e-25
-2.58126e-23
-3.84063e-24
-2.87662e-23
-6.75281e-24
-2.20348e-23
-7.49833e-24
-1.09831e-23
-5.25338e-24
-1.28906e-23
-3.31081e-24
-4.78087e-23
-2.97531e-23
-8.81404e-22
-6.66365e-22
-2.00037e-20
-1.43748e-20
-4.22246e-19
-2.83302e-19
-8.16046e-18
-5.06998e-18
-1.48122e-16
-8.15949e-17
-4.07878e-15
-1.19933e-15
-1.66424e-14
-2.04975e-14
-1.04869e-45
8.74655e-47
-1.13358e-42
3.93437e-44
-6.15166e-40
5.43443e-42
-1.13904e-37
-1.11799e-40
-2.36102e-35
-3.04651e-38
-5.67499e-33
-6.49244e-36
-1.06206e-30
-1.12387e-33
-1.33094e-28
-1.63684e-31
-1.38122e-26
-2.94191e-29
-1.67603e-25
-2.64065e-27
-4.96101e-25
-1.77977e-26
-6.79472e-25
-3.89099e-26
-6.36224e-25
-4.59652e-26
-3.86329e-25
-3.06528e-26
-5.80695e-25
-2.14736e-25
-9.50045e-24
-4.84856e-24
-2.49544e-22
-1.18533e-22
-6.01877e-21
-2.65814e-21
-1.32566e-19
-5.47179e-20
-2.60118e-18
-1.03535e-18
-4.83613e-17
-1.8464e-17
-1.30902e-15
-3.71521e-16
-4.93724e-15
-1.55994e-14
4.58133e-46
-8.1279e-53
1.29261e-43
-9.44382e-50
-4.34457e-42
-4.42401e-47
-1.16129e-40
-1.48447e-44
-3.01543e-38
-4.0212e-42
-6.3521e-36
-8.35452e-40
-1.11896e-33
-1.42363e-37
-1.65197e-31
-2.05698e-35
-2.5945e-29
-2.60084e-33
-6.47513e-28
-4.66896e-31
-2.76619e-27
-1.64067e-29
-4.26882e-27
-7.52146e-29
-3.23985e-27
-1.09483e-28
-4.51733e-27
-7.59293e-28
-5.76635e-26
-1.90251e-26
-1.62888e-24
-5.23864e-25
-4.46263e-23
-1.32522e-23
-1.1224e-21
-3.07877e-22
-2.55955e-20
-6.62559e-21
-5.1733e-19
-1.33163e-19
-1.47063e-17
-2.6424e-18
-5.01008e-16
-6.33777e-17
-7.06002e-16
-4.34254e-15
-9.82337e-53
-1.19252e-55
-2.63032e-51
-1.62518e-52
-1.64318e-47
-1.34142e-49
-1.47903e-44
-1.84018e-47
-3.27393e-42
-5.53829e-45
-7.22869e-40
-6.73171e-43
-1.34415e-37
-6.55623e-41
-2.017e-35
-5.52725e-39
-2.38341e-33
-4.26927e-37
-2.82581e-31
-3.45596e-35
-4.47879e-30
-3.53992e-33
-7.31568e-30
-8.18896e-32
-1.43096e-29
-1.44354e-30
-1.7986e-28
-4.50253e-29
-5.70578e-27
-1.41639e-27
-1.77751e-25
-4.05506e-26
-5.0554e-24
-1.0549e-24
-1.32389e-22
-2.51296e-23
-3.13078e-21
-5.53502e-22
-6.98495e-20
-1.13599e-20
-2.59725e-18
-2.22143e-19
-7.67621e-17
-5.13503e-18
-9.01159e-17
-6.45888e-16
-1.16626e-55
-2.71733e-57
-2.51531e-53
-4.14141e-54
-2.80031e-51
-1.83983e-51
-1.65541e-48
-3.19837e-49
-4.108e-46
-1.20744e-46
-5.89554e-44
-1.56547e-44
-6.69269e-42
-1.5955e-42
-6.02597e-40
-1.34235e-40
-5.48934e-38
-9.52743e-39
-1.35638e-35
-5.84255e-37
-6.71688e-34
-3.12511e-35
-1.19221e-32
-1.45685e-33
-3.16075e-31
-5.95274e-32
-1.20102e-29
-2.18742e-30
-4.29874e-28
-7.20614e-29
-1.39072e-26
-2.13253e-27
-4.08935e-25
-5.73008e-26
-1.10565e-23
-1.39994e-24
-2.747e-22
-3.21234e-23
-6.08563e-21
-7.05745e-22
-1.7294e-19
-1.50056e-20
-6.42416e-18
-3.54744e-19
-7.58679e-18
-1.37554e-16
-2.70318e-57
-1.99173e-59
-1.48372e-54
-5.33081e-56
-5.52283e-53
-1.96897e-53
-2.34698e-49
-6.02054e-51
-8.57073e-48
-2.51038e-48
-1.3296e-45
-3.45454e-46
-1.60622e-43
-3.74424e-44
-1.57665e-41
-3.33254e-42
-1.29653e-39
-2.51336e-40
-9.10147e-38
-1.60901e-38
-5.55373e-36
-8.96292e-37
-2.95678e-34
-4.40252e-35
-1.39023e-32
-1.89969e-33
-5.81817e-31
-7.038e-32
-2.17041e-29
-2.34608e-30
-7.32578e-28
-7.11904e-29
-2.21661e-26
-1.9998e-27
-6.16529e-25
-5.30095e-26
-1.61427e-23
-1.33721e-24
-3.97739e-22
-3.22188e-23
-1.15076e-20
-7.43563e-22
-4.19176e-19
-1.8612e-20
-4.29653e-19
-1.54725e-17
-1.5188e-58
9.4015e-59
-9.53796e-56
4.19196e-56
-2.57629e-53
5.9778e-54
-6.09571e-51
-1.24869e-52
-1.71657e-49
-3.19586e-50
-2.83928e-47
-4.61507e-48
-3.63208e-45
-5.27553e-46
-3.81386e-43
-4.76596e-44
-3.31332e-41
-3.66032e-42
-2.43921e-39
-2.42978e-40
-1.56792e-37
-1.40799e-38
-8.94261e-36
-7.18053e-37
-4.30679e-34
-3.24695e-35
-1.81467e-32
-1.31225e-33
-6.87069e-31
-4.7902e-32
-2.37091e-29
-1.60089e-30
-7.64676e-28
-4.98251e-29
-2.34054e-26
-1.47206e-27
-6.79503e-25
-4.14986e-26
-1.87164e-23
-1.11031e-24
-5.82874e-22
-2.81131e-23
-2.32007e-20
-7.6097e-22
-1.89381e-20
-9.40583e-19
4.42925e-58
-3.41186e-63
1.28837e-55
-5.04423e-60
-3.75334e-54
-2.60869e-57
-8.00165e-54
-9.8225e-55
-2.06093e-51
-1.83003e-52
-3.66336e-49
-2.67744e-50
-4.83274e-47
-3.19906e-48
-5.11582e-45
-3.2016e-46
-4.56997e-43
-2.73257e-44
-3.5052e-41
-2.01533e-42
-2.33564e-39
-1.29755e-40
-1.36489e-37
-7.35644e-39
-7.0559e-36
-3.70346e-37
-3.25692e-34
-1.67112e-35
-1.35834e-32
-6.83766e-34
-5.19436e-31
-2.57377e-32
-1.86823e-29
-9.05612e-31
-6.42757e-28
-3.02156e-29
-2.09971e-26
-9.60982e-28
-6.53043e-25
-2.87438e-26
-2.23304e-23
-8.04213e-25
-1.00748e-21
-2.38057e-23
-6.47918e-22
-4.29299e-20
-3.40003e-63
-1.18366e-65
-1.88655e-61
-1.36653e-62
-1.34334e-58
-6.83925e-60
-4.62211e-56
-1.99446e-57
-1.07666e-53
-4.26691e-55
-1.91419e-51
-7.19515e-53
-2.72574e-49
-9.85993e-51
-3.20835e-47
-1.13009e-48
-3.19079e-45
-1.10343e-46
-2.7243e-43
-9.30458e-45
-2.02131e-41
-6.85062e-43
-1.31646e-39
-4.4468e-41
-7.59882e-38
-2.56957e-39
-3.92977e-36
-1.33629e-37
-1.84618e-34
-6.33572e-36
-8.00938e-33
-2.77931e-34
-3.26688e-31
-1.14323e-32
-1.27915e-29
-4.44614e-31
-4.74382e-28
-1.63565e-29
-1.67139e-26
-5.60498e-28
-6.32937e-25
-1.77465e-26
-3.27458e-23
-5.89882e-25
-1.79136e-23
-1.52616e-21
-1.18311e-65
-5.48926e-69
-3.32719e-64
-8.70879e-66
-2.22174e-61
-3.65212e-63
-8.48128e-59
-6.18196e-61
-2.28658e-56
-3.71853e-58
-4.68719e-54
-7.78845e-56
-7.66833e-52
-1.27372e-53
-1.03533e-49
-1.73919e-51
-1.17973e-47
-2.0203e-49
-1.1534e-45
-2.02566e-47
-9.80186e-44
-1.77426e-45
-7.32286e-42
-1.3728e-43
-4.86387e-40
-9.48067e-42
-2.90948e-38
-5.92893e-40
-1.59249e-36
-3.42128e-38
-8.11052e-35
-1.8364e-36
-3.89038e-33
-9.24075e-35
-1.78229e-31
-4.35865e-33
-7.69167e-30
-1.91598e-31
-3.14978e-28
-7.79919e-30
-1.35592e-26
-2.86874e-28
-8.30536e-25
-1.1008e-26
-3.81576e-25
-4.31615e-23
-5.49613e-69
6.87288e-72
-9.03184e-66
1.19636e-68
-4.78976e-65
6.55975e-66
-6.24482e-61
1.4519e-63
-1.79316e-59
-9.63483e-62
-4.48172e-57
-2.45336e-59
-8.77155e-55
-5.03088e-57
-1.41386e-52
-8.52195e-55
-1.92049e-50
-1.23098e-52
-2.23665e-48