/*--------------------------------*- C++ -*----------------------------------*\
| =========                 |                                                 |
| \\      /  F ield         | OpenFOAM: The Open Source CFD Toolbox           |
|  \\    /   O peration     | Version:  5.x                                   |
|   \\  /    A nd           | Web:      www.OpenFOAM.org                      |
|    \\/     M anipulation  |                                                 |
\*---------------------------------------------------------------------------*/
FoamFile
{
    version     2.0;
    format      ascii;
    class       volScalarField;
    location    "0.25";
    object      alpha.water;
}
// * * * * * * * * * * * * * * * * * * * * * * * * * * * * * * * * * * * * * //

dimensions      [0 0 0 0 0 0 0];

internalField   nonuniform List<scalar> 
2268
(
1
1
1
1
1
1
1
1
1
1
1
1
1
1
1
1
1
1
1
1
0.97435
0.744144
0.743367
0.999999
1
1
1
1
1
1
1
1
1
1
1
1
1
1
1
1
1
1
1
0.99672
0.953739
1
1
1
1
1
1
1
1
1
1
1
1
1
1
1
1
1
1
1
1
1
1
0.999977
0.986856
1
1
1
1
1
1
1
1
1
1
1
1
1
1
1
1
1
1
1
1
1
0.999998
0.991764
1
1
1
1
1
1
1
1
1
1
1
1
1
1
1
1
1
1
1
1
1
0.999999
0.999865
1
1
1
1
1
1
1
1
1
1
1
1
1
1
1
1
1
1
1
1
1
1
1
1
1
1
1
1
1
1
1
1
1
1
1
1
1
1
1
1
1
1
1
1
1
1
1
1
1
1
1
1
1
1
1
1
1
1
1
1
1
1
1
1
1
1
1
1
1
4.16049e-16
1.91328e-15
9.33751e-17
1.04603e-19
3.92197e-22
4.74128e-24
7.09094e-26
1.13454e-27
1.87752e-29
2.90311e-30
4.90409e-31
2.41034e-32
5.11379e-34
9.66313e-36
1.58948e-37
2.07117e-39
1.94058e-41
1.09555e-43
2.33975e-46
1.79761e-23
1.64106e-13
7.80365e-15
8.14515e-18
4.66427e-20
1.17182e-21
2.86562e-23
6.87328e-25
1.66426e-26
4.0134e-28
4.11875e-29
3.10137e-30
8.89749e-32
1.55197e-33
2.53123e-35
3.27657e-37
2.78824e-39
9.84977e-42
1.22133e-46
0
1.16963e-12
1.96382e-13
4.76576e-16
8.02665e-19
6.21588e-20
2.33576e-21
6.8352e-23
1.8805e-24
4.99972e-26
1.80951e-27
1.75184e-28
5.18746e-30
8.49263e-32
1.25647e-33
1.37812e-35
8.65412e-38
3.93397e-40
5.96568e-45
0
1.93877e-12
1.6759e-13
8.00017e-16
1.5319e-17
5.15078e-19
1.00499e-19
3.90142e-21
1.17669e-22
3.24535e-24
1.37544e-25
1.07514e-26
2.95541e-28
4.63407e-30
6.06474e-32
5.64949e-34
5.12525e-36
2.41289e-38
3.80206e-43
-1.70291e-20
9.66448e-11
2.35886e-12
6.13926e-14
6.61604e-15
4.38923e-16
1.51549e-17
4.09546e-19
1.02647e-20
2.29585e-22
8.73632e-24
6.0718e-25
1.59795e-26
2.35401e-28
2.52376e-30
3.05815e-32
2.89994e-34
1.36275e-36
2.22258e-41
-5.6503e-12
5.46161e-09
2.90805e-09
7.76447e-12
1.62828e-13
2.98837e-14
1.42101e-15
5.14975e-17
5.55815e-19
9.58949e-21
2.53327e-22
3.00267e-23
8.55124e-25
1.09265e-26
1.05289e-28
1.46599e-30
1.42379e-32
6.6978e-35
1.14081e-39
-1.44279e-14
1.96119e-05
9.67373e-07
1.26957e-10
1.95708e-12
6.21609e-14
3.22074e-14
3.039e-15
3.84618e-17
3.72797e-19
9.37379e-21
1.69939e-21
5.3115e-23
5.59676e-25
5.42526e-27
8.05049e-29
8.16231e-31
3.87007e-33
6.95811e-38
-3.52265e-10
0.000108448
2.97095e-06
1.99208e-09
2.77325e-11
5.36151e-13
3.29143e-14
6.32957e-15
3.19932e-16
1.2465e-17
3.55013e-19
1.12203e-19
4.08553e-21
3.1831e-23
3.07909e-25
5.43152e-27
6.36978e-29
3.09827e-31
5.97265e-36
1
1
1
1
1
1
1
1
1
1
1
1
1
1
1
1
1
1
1
1
1
1
0.994528
1
1
1
1
1
1
1
1
1
1
1
1
1
1
1
1
1
0.999996
1
1
1
1
0.99424
1
1
1
1
1
1
1
1
1
1
1
1
1
0.999999
0.999997
0.999995
0.999995
0.999997
1
1
1
1
0.998223
1
1
1
1
1
1
1
0.999999
0.999999
0.999998
0.999997
0.999993
0.999984
0.999945
0.999867
0.988471
0.945432
0.890427
0.852795
0.890482
0.996639
1
0.999576
1
0.999998
0.999997
0.999997
0.999997
0.999997
0.999995
0.99999
0.999987
0.999972
0.999918
0.999785
0.992526
0.91477
0.717661
0.452132
0.239289
0.135318
0.0769197
0.0988457
0.171825
0.334372
0.565256
1
0.99997
0.999966
0.999967
0.999962
0.999966
0.999931
0.999847
0.999688
0.990195
0.928243
0.760409
0.491463
0.16248
5.67334e-05
4.05281e-05
3.90552e-05
4.12214e-05
6.09532e-05
7.98495e-05
0.000296946
0.000692475
0.0149559
1
0.999655
0.99963
0.999621
0.999423
0.990152
0.955294
0.875134
0.725287
0.475432
0.234055
0.00891363
1.31082e-05
1.63252e-05
2.55437e-05
3.40368e-05
3.7764e-05
3.95078e-05
0.000189039
0.000389617
0.000399561
0.000427233
0.000151433
0.95527
0.756033
0.744048
0.708809
0.62124
0.471699
0.309063
0.1588
0.0231735
4.1584e-09
1.59413e-09
5.87564e-07
8.92263e-06
1.31283e-05
2.05805e-05
3.19681e-05
3.66397e-05
3.7764e-05
0.00187896
0.00215595
0.00211071
0.000470971
5.31809e-05
0.294261
0.0812667
0.0645805
0.0427452
0.00567212
1.39758e-13
2.1644e-12
5.56777e-12
-2.31123e-12
1.35622e-11
9.30233e-10
1.59413e-09
5.87564e-07
4.25234e-05
4.65998e-05
3.63202e-05
3.7764e-05
0.00114178
0.00215595
0.00215595
0.00213869
0.000389541
5.40857e-06
-1.42676e-19
-2.23213e-19
-1.20456e-34
2.92591e-19
3.03093e-17
2.93986e-15
1.39759e-13
2.1644e-12
6.43906e-12
7.69798e-12
1.41949e-11
8.43328e-10
0.000122019
0.000476133
0.000221857
3.88138e-05
3.90169e-05
0.00201013
0.00214715
0.00215595
0.000739206
9.45268e-06
7.25727e-07
-4.37089e-19
-6.49748e-19
4.98526e-18
3.71814e-16
2.0823e-14
1.43853e-12
4.19753e-11
6.10247e-11
1.964e-11
1.40962e-11
5.93947e-11
9.86259e-05
0.000507464
0.000495985
0.000264899
5.01567e-05
0.000952476
0.00213307
0.00213835
0.00110971
1.75259e-05
1.63971e-07
3.51335e-08
-2.95126e-19
-3.91051e-19
8.94541e-17
9.37488e-15
8.41827e-13
3.49449e-11
2.68208e-10
1.91975e-10
2.03799e-11
2.37451e-11
3.82563e-10
0.000348661
0.000507464
0.000371876
0.000271966
0.000354283
0.00205418
0.00209948
0.0014947
6.37368e-05
2.43809e-08
1.29518e-09
7.04363e-09
-2.51016e-19
1.9711e-19
2.82347e-16
3.68419e-14
4.51444e-12
1.297e-10
4.55235e-10
2.4847e-10
3.36854e-11
1.00945e-09
5.10707e-07
5.72638e-05
0.000499292
0.000818774
0.000418438
0.00200653
0.00203629
0.00144005
1.29526e-05
1.41015e-11
4.67995e-11
8.51037e-11
6.34963e-09
-1.60166e-19
1.3287e-18
4.2151e-16
6.47577e-14
1.04686e-11
2.23257e-10
5.04421e-10
2.45169e-10
3.09291e-11
3.98933e-08
7.46714e-06
1.35499e-07
0.000125514
0.00114915
0.00185818
0.00187461
0.000809545
6.7133e-12
6.64442e-12
6.87584e-12
2.56803e-11
4.67996e-11
7.10531e-09
-7.56645e-20
1.87739e-18
4.53188e-16
7.63184e-14
1.489e-11
2.54443e-10
5.04421e-10
1.83804e-10
2.6077e-11
1.80189e-09
1.10451e-07
1.60488e-23
-4.58483e-23
0.000147842
0.000341286
9.8864e-05
5.85591e-12
9.23533e-12
2.3809e-11
2.10426e-10
2.29889e-10
1.1033e-10
6.19257e-09
-2.44421e-20
1.50076e-18
2.84162e-16
6.83317e-14
1.58935e-11
2.23053e-10
4.1567e-10
9.74062e-11
2.59761e-11
-3.77979e-30
-3.06086e-12
-7.50611e-11
-2.95976e-10
-6.39095e-10
-1.45355e-09
-3.15804e-29
5.59275e-12
3.23255e-11
1.02095e-10
1.38676e-10
2.30811e-10
3.7168e-10
1.34798e-09
-5.26342e-21
3.54303e-19
5.80622e-17
2.53804e-14
9.78737e-12
9.62281e-11
1.48004e-10
4.33395e-11
3.65535e-11
5.67677e-11
4.55499e-11
2.94425e-11
8.01994e-12
1.52271e-12
7.38468e-13
8.20794e-13
1.04197e-11
3.11362e-11
5.58593e-11
9.7125e-11
1.89856e-10
3.45448e-10
1.27544e-09
-3.97233e-21
2.44392e-20
1.63273e-18
4.03186e-15
2.2397e-12
2.07505e-11
3.18819e-11
1.52234e-11
3.75681e-11
7.38582e-11
7.38582e-11
6.10718e-11
2.02254e-11
3.4467e-12
7.13847e-13
5.53972e-13
4.25507e-12
1.17949e-11
2.76227e-11
6.17138e-11
1.39658e-10
3.10894e-10
1.25973e-09
-8.19238e-21
1.27429e-20
6.8457e-18
2.79463e-16
2.56241e-13
2.45826e-12
4.03566e-12
3.98278e-12
1.51782e-11
5.05946e-11
6.88433e-11
5.6984e-11
2.13096e-11
3.81591e-12
4.33088e-13
4.40417e-14
7.30795e-13
3.56185e-12
1.23272e-11
3.71022e-11
9.9166e-11
2.4942e-10
9.77372e-10
-1.2911e-20
1.68704e-20
1.10556e-17
8.47535e-17
1.29481e-14
1.09845e-13
3.09325e-13
9.95545e-13
3.74562e-12
1.41586e-11
2.71248e-11
1.81095e-11
8.08501e-12
1.60465e-12
2.11357e-13
3.89122e-15
8.7974e-14
7.6548e-13
4.83422e-12
2.17053e-11
6.98583e-11
2.12595e-10
9.34834e-10
-1.39487e-20
-2.31836e-21
5.85686e-18
2.76951e-17
2.25744e-17
3.15349e-15
9.04689e-14
4.31278e-13
1.00138e-12
2.18949e-12
3.04645e-12
2.71077e-12
7.89994e-13
2.32632e-13
6.50834e-14
1.01725e-15
1.54901e-14
2.12712e-13
2.09443e-12
1.28463e-11
5.05461e-11
1.75127e-10
8.31407e-10
-9.48903e-21
-7.34297e-20
-1.0041e-19
-2.15975e-35
3.89003e-19
1.46581e-15
4.26576e-14
2.04041e-13
4.35208e-13
5.46049e-13
4.99832e-13
2.12667e-13
7.9634e-14
4.55257e-14
2.66056e-14
4.04598e-16
3.56142e-15
6.55946e-14
9.07564e-13
7.5368e-12
3.5838e-11
1.26923e-10
5.12361e-10
-2.72063e-21
-2.11289e-20
-3.76012e-20
-5.1527e-37
1.76133e-21
2.49676e-18
2.29197e-15
4.49289e-14
1.79467e-13
2.77455e-13
2.9293e-13
1.28194e-13
2.94538e-14
3.49393e-15
3.66895e-16
1.62379e-16
1.05911e-15
2.21229e-14
3.72349e-13
4.04892e-12
2.35379e-11
9.17315e-11
4.28604e-10
-4.00671e-22
-3.15256e-21
-6.03196e-21
-9.18801e-39
2.13613e-22
9.03936e-20
2.14097e-16
6.97922e-15
3.2658e-14
5.80499e-14
6.52261e-14
4.76501e-14
1.35159e-14
1.25871e-15
1.13206e-16
6.05081e-17
3.44801e-16
7.26108e-15
1.36625e-13
1.89739e-12
1.33921e-11
5.76377e-11
3.33802e-10
0
0
5.60981e-44
2.9581e-27
1.86935e-24
1.9559e-22
1.19454e-18
3.07448e-16
2.407e-15
5.57639e-15
7.42956e-15
7.9745e-15
3.07366e-15
3.26936e-16
3.40456e-17
1.88123e-17
9.92773e-17
2.10242e-15
4.25436e-14
6.99232e-13
5.93894e-12
3.47159e-11
2.61005e-10
0
1.66183e-36
2.06753e-33
3.55338e-30
9.04649e-27
8.51994e-25
2.00494e-21
1.17133e-18
1.55112e-17
4.25896e-17
5.48616e-17
4.77885e-17
1.71988e-17
5.75015e-18
3.13111e-18
4.08568e-18
2.55008e-17
4.94562e-16
9.55045e-15
1.67842e-13
2.1107e-12
2.27937e-11
1.9156e-10
0
1.79927e-39
1.01766e-36
3.77499e-34
1.42985e-30
3.14688e-28
2.64685e-24
4.97921e-21
1.15044e-19
4.73759e-19
8.48789e-19
9.90647e-19
9.26125e-19
5.27818e-19
2.96658e-19
5.73423e-19
6.46274e-18
1.27336e-16
2.36338e-15
4.00623e-14
6.20365e-13
1.00887e-11
1.01603e-10
0
-8.75172e-43
-1.03034e-39
1.72473e-37
4.34205e-33
4.65295e-31
3.31137e-29
4.88416e-26
9.65736e-23
2.65017e-21
1.16113e-20
2.04327e-20
2.26562e-20
1.57499e-20
9.0199e-21
6.80724e-20
1.56344e-18
3.30701e-17
6.33008e-16
1.0926e-14
1.69186e-13
2.98718e-12
4.65885e-11
-5.6469e-43
-2.5016e-40
-3.45594e-38
5.33653e-53
2.39416e-37
9.24739e-35
6.56869e-33
2.73331e-30
5.61227e-26
7.95459e-24
5.44899e-23
1.19103e-22
1.40166e-22
8.69311e-23
4.83288e-22
1.05111e-20
2.4901e-19
5.3358e-18
1.02673e-16
1.74033e-15
2.85843e-14
9.90962e-13
1.49946e-11
8.81818e-51
6.18081e-47
-2.49126e-59
5.95848e-44
4.16837e-40
6.26986e-38
4.76186e-36
3.00306e-34
4.12633e-31
1.23752e-27
5.09372e-26
2.34176e-25
3.20986e-25
1.69588e-24
3.95734e-23
1.06394e-21
2.57117e-20
5.55891e-19
1.06642e-17
1.7944e-16
3.40191e-15
1.69999e-13
2.23787e-12
4.69053e-56
1.61676e-49
6.81916e-47
8.89962e-45
1.10441e-41
1.3475e-39
1.2315e-37
8.94679e-36
5.23456e-34
4.1905e-32
9.61254e-30
2.21665e-28
3.10688e-27
9.28259e-26
2.88403e-24
8.03145e-23
1.99562e-21
4.40979e-20
8.61511e-19
1.44264e-17
2.18071e-16
1.05334e-14
3.04794e-13
2.97928e-57
6.378e-51
3.22642e-48
5.4627e-47
2.28902e-43
3.07245e-41
3.18255e-39
2.70816e-37
1.93486e-35
1.18711e-33
6.32503e-32
2.97015e-30
1.22347e-28
4.4765e-27
1.45432e-25
4.17869e-24
1.06559e-22
2.32057e-21
4.38303e-20
7.16903e-19
1.10377e-17
6.10868e-16
2.62261e-14
6.76157e-72
-1.15092e-68
0
1.15373e-49
4.72221e-45
6.73347e-43
7.44795e-41
6.70633e-39
5.13865e-37
3.30708e-35
1.84967e-33
9.20533e-32
4.05294e-30
1.48063e-28
4.78667e-27
1.36868e-25
3.4701e-24
7.87601e-23
1.57836e-21
2.75503e-20
4.66765e-19
3.25957e-17
1.62079e-15
-6.43811e-55
-2.83103e-52
-4.04366e-50
2.11354e-49
6.13131e-47
9.19797e-45
1.09648e-42
9.95946e-41
7.67302e-39
5.10806e-37
2.96436e-35
1.509e-33
6.76619e-32
2.67894e-30
9.37041e-29
2.89191e-27
7.86452e-26
1.90677e-24
4.10013e-23
7.72863e-22
1.46751e-20
1.40329e-18
7.85493e-17
-2.76585e-75
7.60422e-57
6.41217e-54
1.99274e-51
3.71854e-49
5.45656e-47
6.5411e-45
6.57016e-43
5.62707e-41
4.16073e-39
2.67966e-37
1.51247e-35
7.51117e-34
3.28873e-32
1.26987e-30
4.31722e-29
1.28817e-27
3.38463e-26
7.96723e-25
1.65567e-23
3.59449e-22
4.6597e-20
2.99301e-18
0
2.45452e-59
1.3457e-56
3.93916e-54
8.43278e-52
1.43024e-49
1.96724e-47
2.26261e-45
2.21518e-43
1.86933e-41
1.37181e-39
8.80783e-38
4.96629e-36
2.46277e-34
1.07354e-32
4.10446e-31
1.36881e-29
3.96615e-28
1.0203e-26
2.35416e-25
6.08593e-24
1.22864e-21
9.23234e-20
0
2.5044e-62
8.68372e-60
2.47205e-60
6.85651e-55
1.48957e-52
2.44322e-50
3.34313e-48
3.88364e-46
3.87853e-44
3.35884e-42
2.53641e-40
1.66725e-38
9.54403e-37
4.82074e-35
2.11868e-33
8.04593e-32
2.55917e-30
7.00918e-29
2.16759e-27
7.00353e-26
2.45358e-23
2.18145e-21
-4.88252e-68
-8.40152e-65
-4.61857e-62
-1.02613e-59
1.71785e-58
4.4349e-56
9.16718e-54
1.54682e-51
2.22701e-49
2.76553e-47
2.9746e-45
2.3999e-43
1.45559e-41
1.10275e-39
7.26647e-38
3.96289e-36
1.75165e-34
7.46016e-33
2.88225e-31
1.16498e-29
4.97232e-28
3.54148e-25
3.70295e-23
-1.47113e-70
-1.74404e-67
-5.76332e-65
-6.17089e-65
-4.77879e-62
-2.23308e-59
-6.8033e-57
-1.15291e-54
-1.11606e-52
-4.94868e-52
0
2.39453e-50
8.45826e-48
3.58407e-44
1.33017e-41
1.65124e-39
1.47276e-37
1.00397e-35
5.89937e-34
3.24805e-32
1.98738e-30
3.47581e-27
4.11642e-25
-1.22588e-78
-6.63686e-75
-1.13129e-71
-1.07852e-68
-6.41707e-66
-2.70351e-63
-8.54562e-61
-2.07016e-58
-3.79356e-56
-4.84471e-54
-2.74385e-52
1.47849e-58
2.81587e-52
9.92184e-50
3.20793e-47
7.86041e-45
1.67763e-42
2.38693e-39
2.4776e-37
2.26784e-35
3.39023e-33
2.12534e-29
2.45573e-27
-5.13161e-86
-6.60159e-82
-1.81877e-78
-2.47267e-75
-2.22348e-72
-1.4392e-69
-7.08714e-67
-2.61972e-64
-6.78032e-62
-8.48405e-60
0
-1.14109e-62
-1.6898e-58
1.86818e-58
1.50633e-55
1.38012e-52
9.49974e-50
5.33755e-47
2.61415e-44
3.72729e-41
1.50813e-35
1.16054e-31
4.67205e-30
-4.17716e-101
-5.96082e-96
-4.71963e-92
-1.7044e-88
-2.6654e-85
-4.95759e-82
-7.48882e-79
-8.63342e-76
-7.24023e-73
-3.52352e-70
5.15179e-84
-4.88322e-68
-8.05402e-71
-1.67111e-65
-6.88732e-63
-1.45072e-65
-8.36236e-65
-2.41366e-62
-1.85369e-59
-1.59788e-56
3.76599e-41
1.76247e-36
1.44231e-34
0.99698
1
0.570042
1.35637e-19
0.995058
0.999689
0.964763
0.907611
0.998269
0.998201
0.998198
0.997725
0.999168
0.998817
0.998598
0.998167
0.780786
0.989052
0.998167
0.997693
0.0481236
0.112391
0.198386
0.282895
0.000117577
0.000153802
0.000243107
0.000346473
9.60074e-06
1.33479e-05
1.03775e-05
2.19504e-05
1.78672e-06
-9.39888e-07
9.56169e-07
4.55936e-07
1.20688e-07
4.84064e-08
-1.31915e-07
-6.63709e-09
1.19268e-08
1.07091e-08
7.25454e-09
1.1158e-08
9.47174e-09
1.05326e-08
8.70941e-09
1.15239e-08
9.81932e-09
7.7839e-09
7.00381e-09
1.86689e-08
9.58042e-09
5.12975e-09
5.42324e-09
8.76887e-08
6.03907e-09
4.35752e-09
4.70347e-09
5.42324e-09
1.24988e-09
1.70661e-09
3.10195e-09
4.64409e-07
1.032e-09
2.42048e-08
7.77844e-08
1.22449e-07
9.62412e-10
1.8314e-09
7.06506e-07
2.96626e-07
9.18748e-10
5.63455e-09
6.78934e-07
8.17513e-07
8.23523e-10
8.58162e-08
4.20444e-07
6.16251e-07
6.76064e-10
8.96266e-08
5.04985e-07
8.57188e-07
4.92259e-10
4.53216e-08
3.27912e-07
9.45333e-07
4.36301e-10
2.12059e-08
2.08565e-07
9.89284e-07
3.74463e-10
2.25747e-08
1.52425e-07
5.11511e-07
3.15438e-10
1.56474e-08
9.76772e-08
3.3637e-07
2.24517e-10
8.95882e-09
5.68562e-08
1.99247e-07
2.42276e-10
3.56592e-09
1.94715e-08
6.19353e-08
1.74275e-10
1.02558e-09
3.48142e-09
9.89639e-09
4.39524e-11
1.40452e-10
3.86629e-10
1.05643e-09
6.82766e-12
2.82516e-11
6.163e-11
1.04454e-10
1.78841e-12
6.39344e-12
9.23045e-12
9.53614e-12
2.28884e-13
1.22223e-12
1.76537e-12
1.38205e-12
1.47752e-14
9.21759e-14
1.43232e-13
5.68622e-14
7.13588e-16
5.48104e-15
9.43497e-15
1.48952e-15
2.77426e-17
2.54532e-16
4.87109e-16
6.69367e-17
8.76484e-19
9.84845e-18
2.13268e-17
2.57965e-18
2.07754e-20
3.05578e-19
7.87767e-19
8.00639e-20
3.38982e-22
6.96779e-21
2.25236e-20
1.77297e-21
3.35172e-24
1.05857e-22
4.63809e-22
2.52499e-23
1.55729e-26
9.1519e-25
5.80409e-24
2.17734e-25
1.1581e-29
3.01298e-27
2.82408e-26
2.04824e-28
-2.64011e-50
3.55205e-35
2.2571e-33
-1.55404e-33
0.0284175
6.39399e-05
3.17063e-06
8.70651e-08
6.00813e-09
2.40783e-11
1.11173e-12
6.58527e-13
3.2979e-14
2.01385e-15
2.51528e-17
7.1781e-18
3.83545e-19
6.31239e-21
6.76309e-23
4.66068e-25
6.33788e-27
4.68203e-29
1.4025e-33
0.558622
0.000192372
4.24743e-05
2.97284e-06
5.74701e-08
1.21855e-09
6.78455e-11
6.57355e-12
1.52808e-12
6.94517e-14
1.44792e-15
5.64599e-16
5.19497e-17
1.1296e-18
1.31552e-20
5.57872e-23
7.21006e-25
7.92234e-27
3.90661e-31
0.996746
0.827032
0.117084
3.51341e-05
4.73855e-07
7.11611e-08
3.83777e-09
3.87888e-10
3.67306e-11
4.11936e-12
1.90019e-13
2.09966e-14
4.19252e-15
1.36754e-16
1.30306e-18
9.21336e-21
1.44169e-22
1.73727e-24
1.05882e-28
0.997693
0.996745
0.889192
0.241162
0.000162921
1.23236e-06
2.08299e-07
2.3556e-08
1.97898e-09
1.51361e-10
1.36557e-11
6.44338e-13
3.89714e-14
5.4996e-15
1.12897e-16
1.25213e-18
2.29206e-20
2.74207e-22
1.88965e-26
0.996745
0.995741
0.994845
0.910983
0.271507
3.61114e-05
6.68961e-06
1.26478e-06
9.7981e-08
9.44809e-09
5.31021e-10
1.24414e-11
1.30223e-12
7.81764e-14
3.59423e-15
1.15414e-16
2.43297e-18
2.39516e-20
1.54228e-24
0.595547
0.993154
0.989543
0.982946
0.851427
0.198396
0.000221044
2.02197e-05
3.10499e-06
2.40248e-07
1.13843e-08
4.29923e-10
2.27073e-11
2.66928e-12
1.63287e-13
6.99462e-15
1.55463e-16
1.34641e-18
8.73542e-23
0.0151978
0.131604
0.675944
0.975189
0.948443
0.623521
0.0654922
0.000345311
3.55888e-05
3.2191e-06
2.14096e-07
1.24034e-08
7.14139e-10
4.23978e-11
4.82203e-12
2.1903e-13
4.68312e-15
4.35196e-17
3.47627e-21
5.82595e-05
0.000171869
0.027639
0.608818
0.925168
0.873952
0.301519
0.00200138
0.000186285
2.38545e-05
2.02821e-06
1.51533e-07
9.834e-09
5.54733e-10
2.69349e-11
2.22442e-12
8.06776e-14
7.45883e-16
7.06861e-20
3.52997e-06
1.034e-05
6.23211e-05
0.0996136
0.751373
0.847728
0.527311
0.0434279
0.000558066
8.14622e-05
8.6478e-06
7.28362e-07
5.22876e-08
3.13977e-09
1.59445e-10
8.74803e-12
5.07277e-13
6.24289e-15
6.84031e-19
1.70132e-07
6.92718e-07
3.20148e-06
6.23213e-05
0.408084
0.808344
0.642541
0.117888
0.00123527
0.000192813
2.31537e-05
2.14968e-06
1.67899e-07
1.0797e-08
5.69905e-10
2.4026e-11
1.80918e-12
3.16419e-14
3.77289e-18
1.92146e-08
5.99172e-08
2.52058e-07
3.19997e-06
0.143641
0.712573
0.678584
0.215667
0.00194302
0.000329278
4.20534e-05
4.18118e-06
3.48163e-07
2.37107e-08
1.29599e-09
5.65978e-11
3.78868e-12
8.31223e-14
1.10528e-17
1.45362e-08
1.91852e-08
5.50177e-08
2.48251e-07
0.0249978
0.560177
0.644386
0.282628
0.00430031
0.000414896
5.47339e-05
5.66119e-06
4.90986e-07
3.4758e-08
1.95819e-09
8.82892e-11
5.84359e-12
1.57077e-13
2.94625e-17
1.86532e-08
4.62304e-08
5.47793e-08
7.13667e-08
2.48251e-07
0.397018
0.618136
0.262517
0.00326233
0.000405131
5.39597e-05
5.68007e-06
5.04228e-07
3.65699e-08
2.11132e-09
9.754e-11
7.43199e-12
2.10885e-13
2.3541e-15
4.88953e-07
1.04565e-06
5.10951e-07
3.43617e-07
4.24353e-07
0.340565
0.580634
0.215211
0.001802
0.00033258
4.39642e-05
4.63103e-06
4.10645e-07
2.98523e-08
1.75879e-09
8.59936e-11
8.38603e-12
3.57936e-13
1.00065e-14
1.98862e-05
1.65807e-05
1.45204e-06
4.24353e-07
0.0109257
0.368856
0.518683
0.162191
0.00129273
0.000227262
2.9857e-05
3.08574e-06
2.87121e-07
2.14567e-08
1.28077e-09
7.87149e-11
7.56506e-12
7.6784e-13
1.73543e-14
3.80162e-05
3.86857e-05
3.20307e-06
6.91243e-07
0.095122
0.403562
0.413751
0.101459
0.000810758
0.000118324
1.67675e-05
1.84741e-06
1.78998e-07
1.47618e-08
9.21811e-10
6.95675e-11
6.225e-12
8.3286e-13
1.64419e-14
3.82809e-05
2.0424e-05
4.95049e-06
1.37995e-06
0.226661
0.393726
0.27728
0.034597
0.000374558
4.34195e-05
1.07966e-05
1.34906e-06
1.17695e-07
8.6154e-09
5.8566e-10
5.67649e-11
8.11142e-12
6.6632e-13
1.04756e-14
6.67557e-06
9.66942e-06
7.22043e-06
0.10338
0.277617
0.315712
0.0803747
0.00451484
0.000236433
6.83539e-05
7.95141e-06
6.63355e-07
6.32547e-08
4.60327e-09
3.60012e-10
4.2772e-11
7.61919e-12
3.81869e-13
5.16242e-15
8.37297e-07
2.49292e-05
1.17569e-05
0.164672
0.265865
0.0956216
0.00237171
0.000488281
0.000121701
3.44206e-05
3.7881e-06
2.74931e-07
2.49685e-08
2.04337e-09
2.04552e-10
3.97769e-11
4.77246e-12
1.62535e-13
2.26231e-15
3.22736e-06
6.77763e-05
1.80139e-05
0.141929
0.260087
0.124936
0.00490762
7.97631e-05
9.78725e-06
2.85102e-06
6.61701e-07
8.6285e-08
8.43152e-09
8.41272e-10
1.58141e-10
2.90902e-11
1.97882e-12
6.06007e-14
9.00103e-16
3.41517e-06
6.84196e-05
2.23877e-05
0.0402032
0.25951
0.252311
0.0058128
2.54346e-05
1.36989e-06
1.4019e-07
2.78998e-08
8.34706e-09
1.59449e-09
2.95798e-10
9.43297e-11
1.30756e-11
6.86086e-13
2.15541e-14
3.30327e-16
4.98198e-06
4.80351e-06
2.98909e-05
3.18689e-05
0.235098
0.242338
0.133434
0.00429641
7.21969e-06
1.74643e-07
5.18507e-08
2.93149e-09
2.58271e-10
5.80921e-11
2.08539e-11
3.15543e-12
1.94575e-13
6.92599e-15
1.12002e-16
2.57708e-06
7.25349e-06
0.000152938
6.43829e-05
0.108781
0.234387
0.228558
0.0170093
7.31207e-05
4.1764e-06
1.29016e-06
7.11485e-08
3.06307e-09
9.00273e-11
3.72452e-12
5.37734e-13
3.26245e-14
1.42736e-15
3.26118e-17
1.42931e-06
1.57544e-06
0.000115599
0.000506927
0.00057036
0.221548
0.218049
0.18347
0.0174209
7.31207e-05
6.78891e-06
3.77928e-07
1.3595e-08
3.5764e-10
7.30399e-12
1.9784e-13
1.50845e-14
4.21955e-16
9.83601e-18
1.5135e-06
3.55189e-06
5.09758e-06
0.000575236
0.00161931
0.0818422
0.213371
0.205776
0.0404556
0.000155437
8.6272e-06
3.37724e-07
1.20661e-08
2.98233e-10
6.21061e-12
5.74305e-13
6.68596e-14
9.38272e-16
5.76925e-18
8.41412e-07
1.69037e-06
4.23535e-06
0.000432445
0.00318669
0.00321991
0.0843098
0.08653
0.0347555
0.000896637
1.47833e-05
2.98238e-06
1.33297e-07
4.04408e-09
1.02771e-10
3.42171e-12
8.70976e-14
8.69907e-16
3.50626e-18
2.31244e-07
8.71324e-07
4.09632e-06
3.33208e-05
0.00122715
0.00276943
0.00147531
0.00222402
0.00676595
0.00120456
6.61159e-05
4.58566e-06
1.99119e-07
5.87922e-09
1.34837e-10
3.02077e-12
5.03202e-14
3.9775e-16
1.16271e-18
3.96115e-08
2.47684e-07
1.54726e-06
1.31736e-05
0.000521609
0.00105256
0.000310023
0.000378012
0.000186427
0.000193932
1.77865e-05
9.60171e-07
4.06307e-08
1.17086e-09
3.75275e-11
9.28516e-13
1.04109e-14
7.15957e-17
2.09206e-19
4.29276e-09
3.26123e-08
1.59525e-07
5.83566e-06
8.99787e-05
0.000147322
6.06806e-05
7.41354e-05
2.96386e-05
2.34815e-06
1.14955e-07
4.16074e-09
1.08934e-10
3.66546e-12
2.9089e-12
1.25722e-13
1.47176e-15
1.16222e-17
3.94967e-20
4.54805e-10
2.7333e-09
1.20843e-08
9.01154e-07
1.08858e-05
1.66919e-05
1.21673e-05
1.14612e-05
5.08266e-06
3.76152e-07
1.74316e-08
6.04966e-10
1.58048e-11
1.09153e-12
7.68321e-13
2.30444e-14
2.92368e-16
2.48026e-18
8.49009e-21
4.37802e-11
2.78676e-10
7.99121e-10
8.092e-08
9.83798e-07
1.55066e-06
1.7823e-06
1.6365e-06
8.68693e-07
9.00617e-08
3.19478e-09
1.04974e-10
2.9274e-12
5.02923e-13
2.27692e-13
4.75804e-15
6.1064e-17
5.35742e-19
1.79107e-21
9.06313e-12
3.52521e-11
1.72477e-10
4.97515e-09
4.71202e-08
1.25501e-07
2.22851e-07
2.19786e-07
1.30092e-07
1.5337e-08
6.96731e-10
2.64176e-11
8.38103e-13
5.59445e-13
4.92205e-14
9.39639e-16
1.22446e-17
1.11439e-19
3.63307e-22
1.36129e-12
9.49951e-12
6.60722e-11
5.64287e-10
3.01138e-09
1.23578e-08
2.73765e-08
2.80059e-08
1.83451e-08
2.56131e-09
1.47541e-10
6.31601e-12
5.89314e-13
3.28803e-13
9.21307e-15
1.78999e-16
2.38247e-18
2.25008e-20
7.13234e-23
2.05793e-13
2.66329e-12
1.65805e-11
5.8576e-11
3.39778e-10
1.47076e-09
3.34452e-09
3.71537e-09
2.54181e-09
4.89966e-10
4.54964e-11
3.85892e-12
6.48816e-13
7.19798e-14
1.68102e-15
3.32604e-17
4.52028e-19
4.41893e-21
1.35752e-23
1.19458e-14
1.90793e-13
1.81554e-12
8.61159e-12
4.52357e-11
2.15204e-10
4.90186e-10
6.12209e-10
4.0007e-10
1.45631e-10
1.68847e-11
2.30896e-12
3.35916e-13
1.05245e-14
3.01052e-16
6.03869e-18
8.36761e-20
8.43953e-22
2.50787e-24
6.33812e-16
9.94461e-15
9.38122e-14
8.17152e-13
8.3494e-12
4.24355e-11
9.61929e-11
1.34204e-10
1.04808e-10
3.84727e-11
4.90815e-12
7.45306e-13
5.80755e-14
1.71936e-15
5.27461e-17
1.07303e-18
1.5131e-20
1.56876e-22
4.50613e-25
2.93018e-17
4.89846e-16
4.0843e-15
4.8305e-14
9.93955e-13
9.41408e-12
2.101e-11
2.26387e-11
1.98239e-11
6.31327e-12
1.11705e-12
1.29987e-13
7.36308e-15
2.9192e-16
9.0612e-18
1.87019e-19
2.67809e-21
2.84315e-23
7.8968e-26
1.12162e-18
2.01918e-17
1.49434e-16
2.66185e-15
7.23131e-14
1.07908e-12
3.51848e-12
4.05813e-12
3.30324e-12
1.01316e-12
1.92369e-13
1.86904e-14
1.13859e-15
4.85986e-17
1.53115e-18
3.20544e-20
4.65144e-22
5.03641e-24
1.35425e-26
2.9681e-20
5.7721e-19
6.62052e-18
1.53098e-16
4.19907e-15
8.09497e-14
3.75876e-13
5.65642e-13
5.06152e-13
1.56187e-13
2.79737e-14
2.83614e-15
1.83813e-16
7.96338e-18
2.55329e-19
5.41881e-21
7.95217e-23
8.74684e-25
2.28131e-27
5.75248e-22
8.33225e-21
2.34099e-19
7.09463e-18
2.1243e-16
5.60691e-15
3.2975e-14
6.07862e-14
6.30231e-14
2.15551e-14
4.04301e-15
4.36282e-16
2.91637e-17
1.29204e-18
4.21649e-20
9.06478e-22
1.34272e-23
1.49425e-25
3.78917e-28
7.33885e-24
9.8296e-23
5.01994e-21
2.50904e-19
1.02094e-17
3.78732e-16
2.75763e-15
5.71782e-15
6.1248e-15
2.78874e-15
5.93808e-16
6.73546e-17
4.65256e-18
2.11467e-19
7.029e-21
1.53054e-22
2.28566e-24
2.5645e-26
6.33992e-29
9.2317e-27
3.36798e-26
3.1148e-24
3.95855e-21
3.034e-19
1.04939e-17
1.40152e-16
7.13091e-16
1.23224e-15
2.81703e-16
4.37849e-17
5.25705e-18
3.78371e-19
1.77622e-20
6.0466e-22
1.33955e-23
2.02459e-25
2.29746e-27
5.54947e-30
)
;

boundaryField
{
    leftWall
    {
        type            zeroGradient;
    }
    rightWall
    {
        type            zeroGradient;
    }
    lowerWall
    {
        type            zeroGradient;
    }
    atmosphere
    {
        type            inletOutlet;
        inletValue      uniform 0;
        value           nonuniform List<scalar> 
46
(
0
0
0
0
0
0
0
0
0
0
0
0
0
0
0
0
0
0
0
0
0
0
0
0
0
0
0
0
3.36798e-26
3.1148e-24
3.95855e-21
3.034e-19
1.04939e-17
1.40152e-16
7.13091e-16
1.23224e-15
2.81703e-16
4.37849e-17
5.25705e-18
3.78371e-19
1.77622e-20
6.0466e-22
1.33955e-23
2.02459e-25
2.29746e-27
5.54947e-30
)
;
    }
    defaultFaces
    {
        type            empty;
    }
}


// ************************************************************************* //
