/*--------------------------------*- C++ -*----------------------------------*\
| =========                 |                                                 |
| \\      /  F ield         | OpenFOAM: The Open Source CFD Toolbox           |
|  \\    /   O peration     | Version:  5.x                                   |
|   \\  /    A nd           | Web:      www.OpenFOAM.org                      |
|    \\/     M anipulation  |                                                 |
\*---------------------------------------------------------------------------*/
FoamFile
{
    version     2.0;
    format      ascii;
    class       volScalarField;
    location    "0.25";
    object      p;
}
// * * * * * * * * * * * * * * * * * * * * * * * * * * * * * * * * * * * * * //

dimensions      [1 -1 -2 0 0 0 0];

internalField   nonuniform List<scalar> 
2268
(
1596.71
1604.95
1606.94
1603.79
1595.58
1584.6
1572.71
1560.76
1549.2
1538.53
1529.48
1523.1
1520.88
1524.78
1537.43
1562.51
1602.75
1658.1
1723.17
1782.7
1807.24
1771.3
1846.42
1537.02
1545.13
1547.09
1543.89
1535.66
1524.7
1512.82
1500.84
1489.21
1478.41
1469.19
1462.6
1460.1
1463.59
1475.25
1496.76
1532.56
1583.88
1648.81
1712.34
1742.56
1688.59
1781.53
1476.5
1484.37
1486.27
1482.94
1474.68
1463.76
1451.9
1439.87
1428.07
1417.03
1407.46
1400.43
1397.39
1400.17
1410.89
1432.12
1464.93
1510.63
1566.8
1624.46
1667.1
1667.97
1743.07
1415.19
1422.72
1424.5
1420.99
1412.67
1401.81
1389.97
1377.84
1365.81
1354.37
1344.28
1336.59
1332.74
1334.51
1343.94
1363.18
1393.43
1435.15
1485.36
1537.33
1587.8
1626.17
1728.85
1353.13
1360.24
1361.84
1358.08
1349.69
1338.88
1327.06
1314.78
1302.4
1290.43
1279.62
1271.05
1266.12
1266.56
1274.33
1291.34
1318.76
1356.85
1403.32
1452.32
1504.97
1559.33
1669.73
1290.36
1297.02
1298.35
1294.27
1285.8
1275.04
1263.18
1250.67
1237.83
1225.17
1213.46
1203.76
1197.46
1196.24
1201.99
1216.46
1240.81
1275.3
1318.24
1364.53
1414.47
1467.99
1564.93
1226.95
1233.15
1234.06
1229.59
1221.04
1210.32
1198.39
1185.55
1172.13
1158.62
1145.8
1134.72
1126.76
1123.54
1126.88
1138.42
1159.28
1189.97
1228.79
1271.03
1313.45
1352.82
1398.61
1162.96
1168.67
1168.96
1164.01
1155.4
1144.76
1132.71
1119.47
1105.33
1090.82
1076.72
1064.05
1054.15
1048.62
1049.17
1057.4
1074.14
1100.63
1134.65
1170.92
1200.44
1217.93
1155
14.5637
14.5195
14.4491
14.3585
14.2456
14.1195
13.9918
13.8698
13.7575
13.6563
13.5664
13.4876
13.4194
13.3614
13.3134
13.2752
13.2466
13.2276
13.2181
14.511
14.4644
14.3936
14.3035
14.1891
14.061
13.9319
13.8092
13.6966
13.5953
13.5055
13.4267
13.3586
13.3006
13.2527
13.2144
13.1859
13.1669
13.1574
14.4652
14.4129
14.3414
14.2528
14.135
14.0027
13.8708
13.7468
13.6337
13.5323
13.4426
13.3639
13.2959
13.2379
13.1899
13.1517
13.123
13.104
13.0945
14.4265
14.3638
14.2918
14.2071
14.0835
13.9443
13.8084
13.6824
13.5686
13.4672
13.3777
13.2992
13.2312
13.1733
13.1253
13.0869
13.0582
13.039
13.0295
14.3941
14.3147
14.2445
14.1681
14.0348
13.8855
13.7442
13.6159
13.5013
13.4
13.3107
13.2325
13.1647
13.1068
13.0587
13.0202
12.9913
12.972
12.9624
14.3793
14.2611
14.1983
14.1391
13.9889
13.8254
13.6778
13.5468
13.4316
13.3305
13.2416
13.1638
13.0962
13.0384
12.9901
12.9514
12.9223
12.9029
12.8932
14.401
14.1964
14.1509
14.1254
13.9452
13.7627
13.6084
13.4749
13.3592
13.2588
13.1705
13.0933
13.0259
12.968
12.9196
12.8806
12.8512
12.8316
12.8218
14.3744
14.1109
14.1027
14.136
13.9022
13.6954
13.5354
13.3998
13.2841
13.1848
13.0974
13.0208
12.9537
12.8958
12.8471
12.8078
12.778
12.7581
12.7481
1062.03
1066.92
1066.12
1060.43
1051.66
1040.97
1028.57
1014.5
999.018
982.67
966.222
950.656
937.204
927.417
922.929
925.351
935.774
953.638
979.523
1004.16
1004.98
952.062
593.332
922.65
926.305
923.964
917.147
907.82
896.521
882.971
867.03
848.907
829.043
808.105
786.919
766.642
749.006
735.52
727.846
726.14
726.269
738.902
744.083
722.513
649.026
478.074
781.913
784.137
779.866
771.741
761.58
749.159
733.797
715.238
693.587
669.123
642.437
614.199
585.647
558.621
533.919
513.799
503.419
510.012
505.718
504.6
500.882
470.341
408.848
640.185
640.584
634.13
624.596
613.304
599.178
581.348
559.556
533.786
504.18
471.322
435.255
396.107
354.155
307.32
260.257
208.063
161.101
132.854
149.088
195.053
230.492
228.397
498.08
495.672
487.073
476.359
463.796
447.481
426.942
401.942
372.11
337.025
297.247
250.246
194.809
131.851
62.5426
29.9722
14.5169
7.73707
3.9787
5.33341
9.68427
19.3603
35.8151
356.019
351.088
340.821
329.051
314.991
295.707
272.094
243.66
209.342
164.892
120.085
68.8877
31.7966
7.96014
-1.03961
-1.70481
-1.52655
-1.43312
-1.28767
-1.34975
-1.88733
-2.67222
-3.0035
215.161
208.174
195.344
182.391
167.303
143.307
117.723
90.8502
62.6506
29.5486
10.8385
-1.88975
-2.33526
-2.38005
-2.25076
-2.23088
-2.11094
-1.96588
-1.85772
-2.15408
-2.81557
-3.56331
-4.20441
88.2401
73.1256
61.3949
53.6623
44.9968
27.2919
16.3774
6.55631
-1.3522
-2.64287
-3.10242
-3.03912
-3.00041
-2.95737
-2.87142
-2.76015
-2.64822
-2.47809
-2.55589
-3.19678
-4.05081
-4.60568
-4.88118
15.2925
2.00126
0.842813
-0.664104
-2.48319
-2.90598
-3.10197
-3.19057
-3.15491
-3.15936
-3.26747
-3.35212
-3.41002
-3.48985
-3.53434
-3.44928
-3.27141
-3.07911
-3.51388
-4.28632
-5.00968
-5.31507
-5.28812
-3.36932
-3.3637
-3.34873
-3.33904
-3.26528
-3.23329
-3.26153
-3.3047
-3.33218
-3.38808
-3.52025
-3.70035
-3.93419
-4.19072
-4.2959
-4.16818
-3.87195
-3.79475
-4.27712
-4.93765
-5.35656
-5.45901
-5.39786
-3.49898
-3.47242
-3.47437
-3.47062
-3.44921
-3.43644
-3.45001
-3.48586
-3.5416
-3.65778
-3.84784
-4.10397
-4.5053
-4.89218
-4.98087
-4.76215
-4.41312
-4.44263
-4.91455
-5.35307
-5.51562
-5.52407
-5.48899
-3.65056
-3.63064
-3.63407
-3.63553
-3.63307
-3.63839
-3.65916
-3.69972
-3.77474
-3.92807
-4.16483
-4.47994
-4.94957
-5.34431
-5.39751
-5.14997
-4.92487
-5.03843
-5.3758
-5.5536
-5.60807
-5.6225
-5.64096
-3.80403
-3.8023
-3.80343
-3.80888
-3.81738
-3.8341
-3.86401
-3.91274
-4.0013
-4.16869
-4.42031
-4.74856
-5.18753
-5.57877
-5.6146
-5.43718
-5.36017
-5.47702
-5.58878
-5.66744
-5.71942
-5.77267
-5.85181
-3.95781
-3.96516
-3.96967
-3.9811
-3.99806
-4.02405
-4.06273
-4.11917
-4.21188
-4.37087
-4.60343
-4.89602
-5.25697
-5.58032
-5.63419
-5.57409
-5.60971
-5.66
-5.71122
-5.78908
-5.87869
-5.98935
-6.13575
-4.113
-4.12574
-4.13312
-4.14947
-4.17292
-4.2062
-4.25212
-4.31444
-4.40478
-4.54408
-4.73826
-4.97795
-5.23571
-5.44629
-5.55417
-5.6401
-5.69976
-5.7445
-5.83429
-5.94977
-6.08809
-6.25574
-6.46594
-4.26633
-4.28063
-4.29102
-4.31113
-4.33953
-4.3784
-4.42993
-4.49612
-4.58428
-4.70624
-4.86521
-5.05492
-5.25189
-5.42366
-5.55445
-5.66296
-5.75967
-5.86233
-5.99027
-6.14102
-6.32041
-6.53938
-6.81193
-4.41499
-4.4286
-4.44185
-4.46462
-4.49654
-4.53939
-4.59521
-4.66152
-4.74979
-4.8615
-4.99812
-5.15542
-5.31995
-5.47412
-5.61171
-5.7404
-5.86835
-6.00445
-6.15649
-6.33802
-6.55492
-6.81951
-7.14869
-4.5569
-4.56911
-4.58449
-4.60898
-4.64304
-4.68788
-4.74433
-4.81351
-4.8997
-5.00456
-5.12815
-5.26721
-5.41367
-5.5591
-5.70111
-5.84255
-5.98879
-6.14697
-6.31931
-6.52735
-6.77503
-7.07588
-7.44968
-4.69076
-4.70173
-4.71828
-4.74359
-4.77873
-4.82427
-4.8811
-4.9504
-5.03418
-5.13364
-5.24861
-5.37683
-5.5136
-5.65437
-5.79797
-5.94668
-6.10491
-6.27822
-6.47191
-6.69755
-6.96736
-7.29273
-7.69334
-4.81597
-4.82571
-4.84284
-4.86875
-4.9041
-4.94951
-5.00577
-5.07384
-5.15487
-5.24966
-5.35807
-5.47864
-5.60867
-5.74593
-5.89033
-6.04389
-6.21029
-6.39473
-6.6042
-6.83869
-7.12402
-7.46345
-7.87504
-4.9323
-4.94113
-4.95839
-4.98431
-5.01937
-5.06409
-5.1191
-5.1852
-5.26319
-5.35366
-5.45656
-5.5711
-5.69586
-5.8299
-5.97367
-6.12917
-6.29977
-6.49
-6.7055
-6.95245
-7.24305
-7.58669
-7.99928
-5.03965
-5.04811
-5.06506
-5.09057
-5.12491
-5.16847
-5.22178
-5.28545
-5.36016
-5.44639
-5.54427
-5.6534
-5.77318
-5.90341
-6.04491
-6.19969
-6.37087
-6.56254
-6.77992
-7.02978
-7.3212
-7.66315
-8.07059
-5.13844
-5.14659
-5.16307
-5.18786
-5.22112
-5.26316
-5.31438
-5.37529
-5.44646
-5.52836
-5.62122
-5.72497
-5.83948
-5.96498
-6.1025
-6.25399
-6.42233
-6.61127
-6.82566
-7.07194
-7.35797
-7.69259
-8.09063
-5.22901
-5.23683
-5.25269
-5.27653
-5.30845
-5.34867
-5.39749
-5.45533
-5.5227
-5.60005
-5.6877
-5.78577
-5.89442
-6.0141
-6.1459
-6.29165
-6.45396
-6.63621
-6.84283
-7.07973
-7.35408
-7.67466
-8.05647
-5.31175
-5.31919
-5.33431
-5.35702
-5.38738
-5.42552
-5.47168
-5.5262
-5.58952
-5.66206
-5.74416
-5.8361
-5.93816
-6.0509
-6.17534
-6.31314
-6.46657
-6.63855
-6.83302
-7.05521
-7.31157
-7.61058
-7.96717
-5.3871
-5.39412
-5.40839
-5.42983
-5.45844
-5.4943
-5.53758
-5.58855
-5.64757
-5.71502
-5.79124
-5.87656
-5.97131
-6.07604
-6.19167
-6.31961
-6.46172
-6.62044
-6.79903
-7.00192
-7.23465
-7.50494
-7.82657
-5.45555
-5.46212
-5.47547
-5.49551
-5.52221
-5.55562
-5.59583
-5.64306
-5.69757
-5.75968
-5.82972
-5.90797
-5.99478
-6.09061
-6.19625
-6.31277
-6.44164
-6.58472
-6.74454
-6.92455
-7.12912
-7.36459
-7.64216
-5.51764
-5.52373
-5.53609
-5.55464
-5.57931
-5.61012
-5.64711
-5.69043
-5.74027
-5.79687
-5.86048
-5.93135
-6.00975
-6.09604
-6.19081
-6.29482
-6.40908
-6.53489
-6.674
-6.82879
-7.00232
-7.19908
-7.42668
-5.57395
-5.57953
-5.59084
-5.60781
-5.63036
-5.65846
-5.69213
-5.73143
-5.77648
-5.82744
-5.88449
-5.9478
-6.01752
-6.0939
-6.17729
-6.26817
-6.36711
-6.47484
-6.59237
-6.72105
-6.86264
-7.01971
-7.1963
-5.62502
-5.63008
-5.64031
-5.65565
-5.67601
-5.70133
-5.73159
-5.76681
-5.80701
-5.8523
-5.90275
-5.95845
-6.01943
-6.0858
-6.1577
-6.2353
-6.3188
-6.40843
-6.50453
-6.60756
-6.71811
-6.83708
-6.96559
-5.67143
-5.67595
-5.68507
-5.69876
-5.71689
-5.73939
-5.76623
-5.79733
-5.8327
-5.87234
-5.91626
-5.96443
-6.0168
-6.07332
-6.13392
-6.19853
-6.26701
-6.3392
-6.41486
-6.49378
-6.57564
-6.66002
-6.74606
-5.71371
-5.71769
-5.7257
-5.73772
-5.75362
-5.77332
-5.79674
-5.82378
-5.85437
-5.88847
-5.92599
-5.96684
-6.01087
-6.05789
-6.10768
-6.15993
-6.21425
-6.27016
-6.32704
-6.38416
-6.44059
-6.49507
-6.54554
-5.75239
-5.75582
-5.76274
-5.77311
-5.7868
-5.80374
-5.82379
-5.84686
-5.8728
-5.90153
-5.93289
-5.96672
-6.0028
-6.04083
-6.08048
-6.12126
-6.16259
-6.20377
-6.24394
-6.28204
-6.3168
-6.34649
-6.36855
-5.78799
-5.79089
-5.79674
-5.80549
-5.81703
-5.83126
-5.84805
-5.86727
-5.88875
-5.91233
-5.93783
-5.96502
-5.99362
-6.0233
-6.0536
-6.08395
-6.11365
-6.14186
-6.16758
-6.18964
-6.20659
-6.21657
-6.21698
-5.82113
-5.82351
-5.82831
-5.8355
-5.84494
-5.85656
-5.87021
-5.88574
-5.90296
-5.92167
-5.94165
-5.96263
-5.98432
-6.00631
-6.02813
-6.04917
-6.06866
-6.08572
-6.09931
-6.10825
-6.1111
-6.10609
-6.09085
-5.8523
-5.8542
-5.85799
-5.86367
-5.87111
-5.88023
-5.89089
-5.90292
-5.91612
-5.93027
-5.94512
-5.96038
-5.97573
-5.99077
-6.00502
-6.01786
-6.02856
-6.03625
-6.03993
-6.03849
-6.03064
-6.01482
-5.98908
-5.88145
-5.8829
-5.88572
-5.88999
-5.89553
-5.90229
-5.91013
-5.91887
-5.92833
-5.93827
-5.94842
-5.9585
-5.96817
-5.97705
-5.98468
-5.9905
-5.99383
-5.99386
-5.98972
-5.98042
-5.96491
-5.9419
-5.90991
-5.90854
-5.90959
-5.9115
-5.91442
-5.91816
-5.92268
-5.92785
-5.93352
-5.93949
-5.94553
-5.9514
-5.95682
-5.96146
-5.96497
-5.96694
-5.96689
-5.96423
-5.95828
-5.94829
-5.93347
-5.91299
-5.8859
-5.85118
-5.93602
-5.93674
-5.93777
-5.93941
-5.94143
-5.9438
-5.94641
-5.94913
-5.95178
-5.95416
-5.95604
-5.95717
-5.95725
-5.95599
-5.95303
-5.94799
-5.94042
-5.92978
-5.91551
-5.89704
-5.87379
-5.84515
-5.81053
-5.96711
-5.96755
-5.9678
-5.96824
-5.96865
-5.969
-5.9692
-5.96914
-5.96866
-5.96761
-5.96578
-5.96296
-5.95889
-5.95332
-5.946
-5.93661
-5.92485
-5.91035
-5.89276
-5.87174
-5.84704
-5.81844
-5.78577
-5.99738
-5.99764
-5.99723
-5.99659
-5.99551
-5.99399
-5.99197
-5.98934
-5.98601
-5.98185
-5.97671
-5.97042
-5.96278
-5.9536
-5.94269
-5.92982
-5.9148
-5.89744
-5.87758
-5.85516
-5.83024
-5.80297
-5.77364
-6.01808
-6.0186
-6.01757
-6.01584
-6.0133
-6.00995
-6.00576
-6.00069
-5.99468
-5.98764
-5.97949
-5.97013
-5.95945
-5.94733
-5.93365
-5.91831
-5.90122
-5.88237
-5.86182
-5.83977
-5.81656
-5.7927
-5.76887
-124.578
-28.8424
9.60829
10.3722
225.378
104.167
-12.4781
-53.8105
302.933
207.515
131.857
100.979
188.638
150.698
118.949
102.428
45.0277
46.9638
45.423
43.2203
-2.05648
0.790852
6.53654
12.4226
-4.43996
-4.58975
-4.6488
-4.54209
-4.92139
-4.94616
-5.00396
-5.06059
-5.23351
-5.22634
-5.24722
-5.2761
-5.36096
-5.36202
-5.37728
-5.4126
-5.49017
-5.50963
-5.54357
-5.59917
-5.68386
-5.72559
-5.78183
-5.85156
-5.94341
-6.0181
-6.10991
-6.2166
-6.28229
-6.39568
-6.53185
-6.69087
-6.66695
-6.8194
-6.9981
-7.20148
-7.06939
-7.26308
-7.48557
-7.7384
-7.46014
-7.69364
-7.96183
-8.27509
-7.80409
-8.06774
-8.37268
-8.72643
-8.06925
-8.34573
-8.66302
-9.02441
-8.25326
-8.52671
-8.83502
-9.18444
-8.37164
-8.63588
-8.92795
-9.25454
-8.43483
-8.69137
-8.97307
-9.28775
-8.44525
-8.69522
-8.97059
-9.2791
-8.39756
-8.63948
-8.90806
-9.21025
-8.28653
-8.5145
-8.76896
-9.05326
-8.1136
-8.31886
-8.54748
-8.79807
-7.88612
-8.05925
-8.25018
-8.45463
-7.6208
-7.75594
-7.9022
-8.05501
-7.34058
-7.43837
-7.54163
-7.64681
-7.06474
-7.12961
-7.19594
-7.26129
-6.807
-6.84474
-6.88133
-6.91518
-6.57583
-6.59237
-6.60633
-6.61668
-6.37546
-6.37625
-6.37378
-6.3674
-6.20704
-6.19679
-6.18308
-6.16553
-6.0696
-6.05224
-6.03147
-6.00715
-5.96099
-5.93964
-5.91515
-5.88753
-5.87853
-5.85561
-5.83003
-5.80179
-5.8193
-5.79669
-5.77197
-5.74513
-5.78035
-5.75945
-5.73704
-5.71311
-5.75882
-5.74066
-5.7217
-5.70197
-5.75099
-5.73624
-5.72134
-5.70641
-5.75199
-5.74159
-5.73176
-5.72265
12.3869
13.9243
14.0317
14.2114
13.8344
13.5803
13.4145
13.2766
13.162
13.0647
12.9798
12.9046
12.838
12.7799
12.7307
12.6906
12.6601
12.6397
12.6294
10.5582
13.6702
14.1396
14.3492
13.7246
13.3853
13.2271
13.089
12.9807
12.8907
12.8111
12.7385
12.6725
12.6137
12.5631
12.5215
12.4896
12.468
12.4572
29.9904
-37.7068
8.56182
14.5906
13.7906
13.231
13.0163
12.8747
12.783
12.707
12.6353
12.5655
12.4994
12.439
12.386
12.3419
12.3079
12.2848
12.2732
56.6645
-7.59807
-7.56572
5.95432
13.587
12.2352
12.6497
12.6085
12.57
12.5174
12.455
12.3871
12.3193
12.2555
12.1987
12.151
12.114
12.0889
12.0762
43.1633
23.9999
13.8258
1.25107
1.21382
12.144
12.2886
12.3388
12.3592
12.3307
12.2735
12.2043
12.1318
12.0623
11.9998
11.9472
11.9063
11.8784
11.8644
24.6529
24.0147
12.4869
1.91781
-2.57639
6.83347
11.901
12.1369
12.1747
12.1505
12.0946
12.0175
11.9358
11.8575
11.7872
11.7281
11.6823
11.6512
11.6355
-4.32608
0.910392
23.218
-1.01689
4.41021
7.37641
10.7308
12.054
12.0862
11.9748
11.9122
11.8228
11.7274
11.6375
11.5575
11.4907
11.4392
11.4044
11.3868
-5.18731
-5.38091
-4.48949
-3.3168
-8.79413
3.5264
14.426
12.4266
11.8858
11.7768
11.7081
11.6117
11.5
11.3966
11.3058
11.2307
11.1732
11.1345
11.1151
-5.33766
-5.45508
-5.69733
-3.85966
-30.8798
-14.8236
5.15999
11.0533
11.8039
11.6451
11.4747
11.3738
11.2461
11.1276
11.0262
10.9431
10.8801
10.8379
10.8168
-5.5086
-5.67871
-5.91688
-6.07886
-11.9476
-15.4006
-3.24663
12.7514
12.0341
11.437
11.1961
11.0831
10.9503
10.821
10.7116
10.6228
10.5557
10.5109
10.4885
-5.72432
-5.90517
-6.04287
-6.02274
-4.71228
-8.51826
-8.46051
11.8953
11.4431
11.0646
10.8313
10.7229
10.5994
10.4682
10.356
10.265
10.1961
10.1502
10.1273
-5.99985
-6.2064
-6.2944
-6.12931
-3.19244
-1.33903
-8.8257
9.56129
10.6583
10.5796
10.3842
10.298
10.1895
10.0645
9.95574
9.8667
9.79897
9.75378
9.73124
-6.42602
-6.6971
-6.82214
-6.81807
-4.85712
6.44627
-3.08149
9.3526
10.5664
10.0674
9.88149
9.81794
9.7226
9.60972
9.51013
9.42722
9.36365
9.32108
9.29982
-7.00004
-7.41056
-7.65894
-7.961
-8.60215
8.69836
3.94246
8.72613
9.92102
9.43437
9.31883
9.28026
9.20128
9.10707
9.0214
8.94821
8.8915
8.85328
8.83415
-7.58271
-8.09647
-8.48746
-8.86054
-11.9425
-0.329031
5.28231
7.74669
8.92965
8.69417
8.69745
8.69355
8.63535
8.56394
8.49472
8.43367
8.38577
8.3532
8.33685
-8.18993
-8.78229
-8.92002
-8.71111
-10.6509
-13.1194
1.67176
7.27533
8.03709
7.96174
8.0562
8.07479
8.0394
7.99005
7.93713
7.88924
7.85114
7.82495
7.81176
-8.82982
-9.64571
-10.0895
-10.4112
-11.4049
-0.345104
6.28205
8.4987
7.30221
7.35269
7.43087
7.44394
7.42715
7.39409
7.35591
7.32104
7.29292
7.27336
7.26346
-9.38724
-10.4439
-11.9112
-19.583
-55.2907
-2.51359
7.73184
7.50849
6.65704
6.80056
6.82416
6.81616
6.8046
6.78214
6.75743
6.73495
6.71652
6.70349
6.69685
-9.72968
-10.8065
-12.1756
-13.9652
-56.4439
-0.355273
5.4679
6.33275
6.18274
6.24784
6.20235
6.18113
6.16991
6.15821
6.14693
6.13634
6.12713
6.12025
6.11666
-9.86665
-10.8032
-12.259
-13.3766
-50.9088
-0.343308
4.85983
5.7239
5.67933
5.59195
5.53877
5.52265
5.5218
5.52596
5.52921
5.53014
5.52944
5.52812
5.52728
-9.86673
-10.5921
-11.8528
-10.1032
-37.9045
-13.8087
3.86493
5.30029
5.08609
4.76556
4.80463
4.8359
4.86572
4.89116
4.9095
4.92093
4.92755
4.93095
4.93245
-9.87337
-10.7783
-11.5536
-12.1815
-12.6243
-12.2749
2.35655
4.6052
4.3543
3.78207
3.98594
4.14656
4.21751
4.26253
4.2933
4.31261
4.32471
4.33179
4.33518
-9.85704
-10.7841
-11.1545
-12.2768
-8.82226
-11.861
2.87343
5.09739
3.63189
2.82467
3.19523
3.50356
3.60106
3.6501
3.68484
3.70764
3.72301
3.73277
3.7378
-9.77985
-10.728
-11.5359
-12.4374
-12.5163
-14.3676
-11.7874
-1.80176
2.48056
2.56819
2.73561
2.96158
3.02797
3.05516
3.08298
3.10556
3.12303
3.13516
3.14217
-9.59401
-10.599
-11.7844
-13.2698
-17.0901
-18.4166
-22.1394
-5.88708
2.46977
2.67803
2.39926
2.43483
2.44218
2.45207
2.47691
2.50246
2.52419
2.53963
2.55014
-9.27457
-10.2098
-11.4864
-13.4458
-17.2627
-21.2646
-18.7377
-9.79371
-0.260548
1.47225
1.63215
1.70858
1.76343
1.80891
1.855
1.89506
1.92668
1.94654
1.96485
-8.84023
-9.61398
-10.7374
-12.4872
-15.1991
-17.9506
-17.0753
-13.0328
-4.95374
-0.664943
0.481427
0.810245
1.01416
1.12984
1.22128
1.28698
1.33418
1.35898
1.38835
-8.33782
-8.88333
-9.67471
-10.8793
-12.3047
-12.9846
-12.2483
-9.86553
-5.61605
-2.1958
-0.662238
-0.0703754
0.266202
0.464064
0.597359
0.688792
0.751401
0.785914
0.820546
-7.83711
-8.17862
-8.62874
-9.22126
-9.72553
-9.73923
-9.0131
-7.25507
-4.80466
-2.76772
-1.51187
-0.830027
-0.422164
-0.170144
-0.00311418
0.10987
0.185786
0.229306
0.265265
-7.37583
-7.56385
-7.77623
-7.98656
-8.0465
-7.78928
-7.03421
-5.77156
-4.25486
-2.93975
-2.02042
-1.4192
-1.0196
-0.752035
-0.568884
-0.443168
-0.358572
-0.308379
-0.273462
-6.97052
-7.04499
-7.09742
-7.09024
-6.94667
-6.59031
-5.93985
-5.02848
-4.01195
-3.10068
-2.40449
-1.90067
-1.53878
-1.2807
-1.09694
-0.967671
-0.879611
-0.825828
-0.793496
-6.62873
-6.62527
-6.58158
-6.46816
-6.24922
-5.87646
-5.33923
-4.66728
-3.94681
-3.28452
-2.74206
-2.3212
-2.00254
-1.76503
-1.59029
-1.46442
-1.37735
-1.32303
-1.29427
-6.34948
-6.29634
-6.19933
-6.03779
-5.80068
-5.45843
-5.01736
-4.50551
-3.97265
-3.4748
-3.04771
-2.69988
-2.42547
-2.21374
-2.05367
-1.93596
-1.85326
-1.80087
-1.77625
-6.12843
-6.04721
-5.92687
-5.75965
-5.52343
-5.22293
-4.86309
-4.46426
-4.05718
-3.67348
-3.33504
-3.05016
-2.81822
-2.63424
-2.49196
-2.38544
-2.30953
-2.26088
-2.24055
-5.95909
-5.86479
-5.73733
-5.57211
-5.36022
-5.10466
-4.8127
-4.49889
-4.1826
-3.88297
-3.61397
-3.38236
-3.18936
-3.03297
-2.90978
-2.81615
-2.7486
-2.70488
-2.68875
-5.83487
-5.73809
-5.61526
-5.46303
-5.27909
-5.06625
-4.83101
-4.58369
-4.33679
-4.10231
-3.88938
-3.7031
-3.54522
-3.41517
-3.31123
-3.23125
-3.17294
-3.13486
-3.12268
-5.74919
-5.65707
-5.54571
-5.41236
-5.25771
-5.08433
-4.89736
-4.70401
-4.51247
-4.33047
-4.164
-4.01677
-3.89042
-3.78504
-3.69984
-3.63363
-3.58494
-3.55285
-3.54432
-5.69598
-5.61301
-5.51729
-5.40619
-5.28088
-5.14378
-4.99874
-4.85071
-4.70504
-4.56673
-4.43968
-4.32649
-4.22847
-4.14596
-4.07865
-4.02594
-3.98691
-3.96085
-3.95564
-5.66995
-5.59844
-5.52234
-5.43481
-5.33822
-5.23464
-5.12678
-5.01792
-4.91147
-4.81056
-4.71768
-4.63455
-4.56211
-4.50071
-4.45029
-4.41057
-4.38098
-4.36083
-4.35861
-5.66758
-5.61654
-5.55566
-5.49131
-5.42257
-5.3503
-5.27612
-5.20201
-5.12999
-5.0619
-4.99922
-4.94297
-4.89375
-4.85184
-4.81724
-4.78986
-4.76936
-4.75489
-4.75518
-5.68137
-5.64655
-5.60913
-5.56985
-5.5287
-5.48615
-5.44305
-5.40042
-5.35929
-5.32056
-5.28495
-5.25298
-5.22496
-5.20103
-5.1812
-5.16544
-5.15361
-5.14446
-5.14682
-5.70894
-5.69441
-5.68125
-5.66775
-5.65399
-5.64012
-5.62642
-5.61314
-5.60055
-5.58883
-5.57814
-5.56857
-5.56016
-5.55295
-5.54694
-5.54211
-5.5386
-5.5354
-5.53686
)
;

boundaryField
{
    leftWall
    {
        type            calculated;
        value           nonuniform List<scalar> 
50
(
1596.71
1537.02
1476.5
1415.19
1353.13
1290.36
1226.95
1162.96
1062.03
922.65
781.913
640.185
498.08
356.019
215.161
88.2401
15.2925
-3.36932
-3.49898
-3.65056
-3.80403
-3.95781
-4.113
-4.26633
-4.41499
-4.5569
-4.69076
-4.81597
-4.9323
-5.03965
-5.13844
-5.22901
-5.31175
-5.3871
-5.45555
-5.51764
-5.57395
-5.62502
-5.67143
-5.71371
-5.75239
-5.78799
-5.82113
-5.8523
-5.88145
-5.90854
-5.93602
-5.96711
-5.99738
-6.01808
)
;
    }
    rightWall
    {
        type            calculated;
        value           nonuniform List<scalar> 
50
(
13.2181
13.1574
13.0945
13.0295
12.9624
12.8932
12.8218
12.7481
12.6294
12.4572
12.2732
12.0762
11.8644
11.6355
11.3868
11.1151
10.8168
10.4885
10.1273
9.73124
9.29982
8.83415
8.33685
7.81176
7.26346
6.69685
6.11666
5.52728
4.93245
4.33518
3.7378
3.14217
2.55014
1.96485
1.38835
0.820546
0.265265
-0.273462
-0.793496
-1.29427
-1.77625
-2.24055
-2.68875
-3.12268
-3.54432
-3.95564
-4.35861
-4.75518
-5.14682
-5.53686
)
;
    }
    lowerWall
    {
        type            calculated;
        value           nonuniform List<scalar> 
62
(
1626.14
1634.38
1636.37
1633.22
1625.01
1614.03
1602.14
1590.19
1578.62
1567.95
1558.91
1552.53
1550.31
1554.21
1566.86
1591.94
1632.18
1687.53
1752.6
1812.13
1835.91
1793.21
1868.3
1846.42
1781.53
1743.07
1728.85
1669.73
1564.93
1398.61
1155
-62.1698
33.7549
45.3183
10.4348
14.5637
14.511
14.4652
14.4265
14.3941
14.3793
14.401
14.3744
14.5931
14.5489
14.4785
14.3879
14.275
14.1489
14.0212
13.8992
13.7869
13.6857
13.5959
13.517
13.4488
13.3908
13.3428
13.3046
13.276
13.257
13.2476
)
;
    }
    atmosphere
    {
        type            calculated;
        value           nonuniform List<scalar> 
46
(
-6.01477
-6.01609
-6.01464
-6.01227
-6.00894
-6.00463
-5.99935
-5.99306
-5.98574
-5.97735
-5.96786
-5.9572
-5.94533
-5.9322
-5.91774
-5.90193
-5.8848
-5.86643
-5.84701
-5.82682
-5.80638
-5.78645
-5.76778
-5.75533
-5.74828
-5.74209
-5.7369
-5.73097
-5.72904
-5.72904
-5.72904
-5.72904
-5.72904
-5.72904
-5.72904
-5.72904
-5.72904
-5.72904
-5.72904
-5.72904
-5.72904
-5.72904
-5.72904
-5.72904
-5.72904
-5.72904
)
;
    }
    defaultFaces
    {
        type            empty;
    }
}


// ************************************************************************* //
