/*--------------------------------*- C++ -*----------------------------------*\
| =========                 |                                                 |
| \\      /  F ield         | OpenFOAM: The Open Source CFD Toolbox           |
|  \\    /   O peration     | Version:  5.x                                   |
|   \\  /    A nd           | Web:      www.OpenFOAM.org                      |
|    \\/     M anipulation  |                                                 |
\*---------------------------------------------------------------------------*/
FoamFile
{
    version     2.0;
    format      ascii;
    class       volScalarField;
    location    "0.25";
    object      p_rgh;
}
// * * * * * * * * * * * * * * * * * * * * * * * * * * * * * * * * * * * * * //

dimensions      [1 -1 -2 0 0 0 0];

internalField   nonuniform List<scalar> 
2268
(
1626.14
1634.38
1636.37
1633.22
1625.01
1614.03
1602.14
1590.19
1578.62
1567.95
1558.91
1552.53
1550.31
1554.21
1566.86
1591.94
1632.18
1687.53
1752.6
1812.13
1835.91
1793.21
1868.3
1625.3
1633.42
1635.38
1632.17
1623.95
1612.99
1601.11
1589.13
1577.49
1566.7
1557.48
1550.89
1548.39
1551.88
1563.54
1585.05
1620.84
1672.17
1737.1
1800.63
1830.56
1772.8
1869.82
1623.64
1631.52
1633.41
1630.09
1621.83
1610.91
1599.05
1587.01
1575.22
1564.17
1554.6
1547.58
1544.53
1547.31
1558.04
1579.26
1612.07
1657.78
1713.95
1771.61
1814.25
1815.12
1888.28
1621.19
1628.73
1630.5
1627
1618.68
1607.81
1595.98
1583.85
1571.81
1560.38
1550.28
1542.6
1538.75
1540.51
1549.95
1569.19
1599.44
1641.15
1691.37
1743.34
1793.8
1832.17
1933.16
1617.99
1625.11
1626.7
1622.94
1614.55
1603.75
1591.92
1579.64
1567.26
1555.29
1544.49
1535.92
1530.99
1531.43
1539.2
1556.2
1583.63
1621.71
1668.19
1717.19
1769.83
1824.19
1934.56
1614.08
1620.74
1622.07
1617.99
1609.52
1598.76
1586.91
1574.39
1561.55
1548.89
1537.18
1527.48
1521.18
1519.97
1525.71
1540.18
1564.53
1599.03
1641.96
1688.26
1738.19
1791.71
1888.65
1609.53
1615.73
1616.64
1612.17
1603.62
1592.91
1580.97
1568.14
1554.71
1541.2
1528.38
1517.3
1509.34
1506.13
1509.46
1521.01
1541.86
1572.55
1611.37
1653.61
1696.03
1735.4
1781.19
1604.4
1610.11
1610.4
1605.45
1596.84
1586.2
1574.15
1560.91
1546.77
1532.26
1518.16
1505.49
1495.59
1490.06
1490.61
1498.84
1515.58
1542.07
1576.09
1612.36
1641.88
1659.37
1596.44
14.5931
14.5489
14.4785
14.3879
14.275
14.1489
14.0212
13.8992
13.7869
13.6857
13.5959
13.517
13.4488
13.3908
13.3428
13.3046
13.276
13.257
13.2476
14.5992
14.5527
14.4819
14.3918
14.2773
14.1493
14.0202
13.8975
13.7849
13.6836
13.5938
13.515
13.4469
13.3889
13.3409
13.3027
13.2741
13.2552
13.2457
14.6123
14.56
14.4885
14.3999
14.2821
14.1498
14.018
13.8939
13.7808
13.6795
13.5897
13.5111
13.443
13.3851
13.3371
13.2988
13.2702
13.2511
13.2417
14.6325
14.5698
14.4979
14.4131
14.2895
14.1503
14.0144
13.8884
13.7746
13.6732
13.5837
13.5052
13.4372
13.3793
13.3313
13.2929
13.2642
13.2451
13.2355
14.6589
14.5795
14.5094
14.433
14.2997
14.1503
14.0091
13.8807
13.7661
13.6648
13.5755
13.4973
13.4295
13.3717
13.3235
13.285
13.2561
13.2369
13.2273
14.703
14.5848
14.522
14.4628
14.3126
14.1491
14.0015
13.8705
13.7553
13.6542
13.5654
13.4875
13.42
13.3621
13.3138
13.2751
13.246
13.2266
13.2169
14.7836
14.5865
14.5339
14.508
14.3278
14.1452
13.991
13.8575
13.7418
13.6414
13.5531
13.4758
13.4085
13.3506
13.3022
13.2632
13.2338
13.2142
13.2043
14.8158
14.6002
14.5455
14.5774
14.3436
14.1369
13.9768
13.8412
13.7256
13.6262
13.5388
13.4622
13.3952
13.3373
13.2886
13.2492
13.2195
13.1995
13.1895
1595.5
1600.39
1599.59
1593.89
1585.12
1574.44
1562.04
1547.96
1532.49
1516.14
1499.69
1484.12
1470.67
1460.88
1456.4
1458.82
1469.24
1487.1
1512.99
1537.63
1538.45
1485.53
1123.88
1581.31
1584.97
1582.63
1575.81
1566.48
1555.18
1541.63
1525.69
1507.57
1487.71
1466.77
1445.58
1425.3
1407.67
1394.18
1386.51
1384.8
1384.93
1397.56
1402.74
1381.17
1307.69
1132.95
1565.77
1567.99
1563.72
1555.6
1545.44
1533.02
1517.65
1499.09
1477.44
1452.98
1426.29
1398.05
1369.5
1342.48
1317.77
1297.65
1287.27
1293.87
1289.57
1288.46
1284.74
1254.2
1191.31
1549.24
1549.63
1543.18
1533.65
1522.35
1508.23
1490.4
1468.61
1442.84
1413.23
1380.37
1344.3
1305.14
1263.16
1216.25
1158.84
1067.56
970.644
908.221
958.682
1101.05
1139.54
1137.06
1532.33
1529.91
1521.31
1510.6
1498.04
1481.72
1461.18
1436.18
1406.34
1371.24
1331.41
1284.27
1221.33
1078.04
805.072
498.154
262.787
148.583
84.4872
108.496
188.25
365.871
620.878
1515.46
1510.49
1500.22
1488.45
1474.39
1455.11
1431.45
1402.92
1368.42
1312.97
1196.41
950.814
602.208
197.317
0.185545
-0.498432
-0.321876
-0.225935
-0.0576294
-0.0978176
-0.383942
-0.710705
15.479
1499.8
1492.37
1479.5
1466.54
1451.2
1415.3
1344.98
1215.24
994.732
640.979
312.498
10.8342
-1.0338
-1.07446
-0.933348
-0.902569
-0.777836
-0.630545
-0.330483
-0.369433
-1.01816
-1.73039
-2.72543
1435.07
1139.35
1110.74
1053.37
921.373
693.051
453.078
231.624
32.6956
-1.23304
-1.69259
-1.62846
-1.57801
-1.52906
-1.43261
-1.3053
-1.18679
-1.01508
1.50031
1.24953
0.331779
-2.53252
-3.39645
468.074
128.158
101.411
66.4201
7.74997
-1.37096
-1.56694
-1.65554
-1.61989
-1.62434
-1.73245
-1.81709
-1.8741
-1.88962
-1.92786
-1.85856
-1.67848
0.206822
1.32726
0.55482
-0.194998
-3.18269
-3.7448
-1.7091
-1.70349
-1.68851
-1.67882
-1.60507
-1.57307
-1.60131
-1.64449
-1.67196
-1.72786
-1.86003
-2.04013
-2.07159
-1.74081
-2.26772
-2.44359
-2.14702
1.19939
0.94427
0.298332
-2.47033
-3.78311
-3.73644
-1.71357
-1.687
-1.68896
-1.6852
-1.6638
-1.65103
-1.66459
-1.70045
-1.75618
-1.87237
-2.06243
-2.14264
-1.81476
-2.22212
-2.72297
-2.88727
-0.928848
1.14739
0.684876
-1.58835
-3.69894
-3.73836
-3.70351
-1.73995
-1.72003
-1.72346
-1.72493
-1.72246
-1.72778
-1.74855
-1.78912
-1.86413
-2.01746
-2.25422
-1.90385
-2.07037
-2.7239
-2.9678
-2.56314
0.906546
0.879442
-0.612264
-3.52134
-3.69741
-3.71189
-3.73034
-1.76822
-1.7665
-1.76763
-1.77308
-1.78158
-1.7983
-1.82821
-1.87693
-1.9655
-2.13288
-2.38347
-2.5963
-2.13629
-1.87778
-2.7278
0.679432
0.816978
-0.512483
-3.52663
-3.63164
-3.68362
-3.73687
-3.81599
-1.79681
-1.80417
-1.80868
-1.82011
-1.83707
-1.86306
-1.90173
-1.95817
-2.05088
-2.20979
-2.42632
-2.73473
-2.82501
-0.938498
0.538297
0.63388
-1.70104
-3.49901
-3.55022
-3.62808
-3.71769
-3.82835
-3.97474
-1.82681
-1.83955
-1.84692
-1.86328
-1.88673
-1.92001
-1.96593
-2.02825
-2.11859
-2.25789
-2.45181
-2.69176
-2.94952
-2.82245
-2.48852
-3.12811
-3.41357
-3.45831
-3.5481
-3.66358
-3.8019
-3.96955
-4.17973
-1.85495
-1.86925
-1.87964
-1.89975
-1.92814
-1.96701
-2.01854
-2.08473
-2.17289
-2.29486
-2.45382
-2.64353
-2.8405
-3.01228
-3.14307
-3.25158
-3.34828
-3.45095
-3.57889
-3.72964
-3.90902
-4.12799
-4.40054
-1.87841
-1.89203
-1.90527
-1.92804
-1.95996
-2.00281
-2.05863
-2.12494
-2.21322
-2.32492
-2.46154
-2.61884
-2.78337
-2.93754
-3.07513
-3.20382
-3.33177
-3.46787
-3.61991
-3.80144
-4.01834
-4.28293
-4.61211
-1.89512
-1.90734
-1.92272
-1.9472
-1.98126
-2.02611
-2.08256
-2.15173
-2.23793
-2.34279
-2.46638
-2.60544
-2.7519
-2.89733
-3.03934
-3.18077
-3.32701
-3.4852
-3.65754
-3.86557
-4.11326
-4.4141
-4.78791
-1.90379
-1.91477
-1.93131
-1.95662
-1.99176
-2.0373
-2.09413
-2.16343
-2.24721
-2.34667
-2.46164
-2.58986
-2.72663
-2.8674
-3.011
-3.15971
-3.31794
-3.49125
-3.68494
-3.91058
-4.18039
-4.50576
-4.90637
-1.90381
-1.91355
-1.93067
-1.95659
-1.99194
-2.03735
-2.09361
-2.16167
-2.24271
-2.3375
-2.44591
-2.56648
-2.69651
-2.83377
-2.97817
-3.13173
-3.29812
-3.48256
-3.69204
-3.92653
-4.21185
-4.55128
-4.96287
-1.89494
-1.90378
-1.92103
-1.94695
-1.98201
-2.02673
-2.08175
-2.14784
-2.22584
-2.3163
-2.41921
-2.53374
-2.6585
-2.79254
-2.93631
-3.09182
-3.26241
-3.45264
-3.66814
-3.91509
-4.20569
-4.54933
-4.96192
-1.8771
-1.88555
-1.90251
-1.92802
-1.96236
-2.00592
-2.05923
-2.1229
-2.19761
-2.28384
-2.38171
-2.49085
-2.61063
-2.74086
-2.88236
-3.03714
-3.20831
-3.39999
-3.61737
-3.86723
-4.15865
-4.5006
-4.90804
-1.85069
-1.85885
-1.87532
-1.90011
-1.93338
-1.97542
-2.02663
-2.08754
-2.15871
-2.24061
-2.33347
-2.43722
-2.55173
-2.67724
-2.81475
-2.96624
-3.13458
-3.32352
-3.53792
-3.7842
-4.07022
-4.40484
-4.80288
-1.81607
-1.82389
-1.83975
-1.86359
-1.89551
-1.93573
-1.98455
-2.04239
-2.10976
-2.18711
-2.27475
-2.37283
-2.48148
-2.60116
-2.73295
-2.87871
-3.04102
-3.22327
-3.42989
-3.66679
-3.94114
-4.26171
-4.64353
-1.77361
-1.78106
-1.79617
-1.81889
-1.84925
-1.88739
-1.93355
-1.98807
-2.05138
-2.12392
-2.20603
-2.29797
-2.40003
-2.51276
-2.6372
-2.775
-2.92843
-3.10042
-3.29488
-3.51707
-3.77343
-4.07245
-4.42904
-1.72377
-1.73079
-1.74506
-1.7665
-1.79511
-1.83097
-1.87425
-1.92522
-1.98424
-2.05169
-2.12791
-2.21323
-2.30798
-2.41271
-2.52834
-2.65628
-2.79839
-2.95711
-3.13569
-3.33859
-3.57132
-3.84161
-4.16324
-1.66702
-1.67359
-1.68694
-1.70699
-1.73369
-1.76709
-1.80731
-1.85453
-1.90904
-1.97116
-2.04119
-2.11945
-2.20625
-2.30209
-2.40772
-2.52425
-2.65312
-2.7962
-2.95601
-3.13602
-3.34059
-3.57607
-3.85363
-1.60393
-1.61001
-1.62237
-1.64092
-1.66559
-1.6964
-1.73339
-1.77671
-1.82655
-1.88315
-1.94676
-2.01763
-2.09603
-2.18232
-2.27709
-2.3811
-2.49536
-2.62117
-2.76028
-2.91507
-3.0886
-3.28536
-3.51296
-1.53503
-1.54062
-1.55192
-1.5689
-1.59145
-1.61955
-1.65321
-1.69251
-1.73756
-1.78853
-1.84558
-1.90888
-1.97861
-2.05499
-2.13838
-2.22926
-2.3282
-2.43593
-2.55346
-2.68214
-2.82372
-2.98079
-3.15738
-1.46092
-1.46597
-1.4762
-1.49154
-1.5119
-1.53722
-1.56748
-1.6027
-1.6429
-1.68819
-1.73865
-1.79434
-1.85532
-1.9217
-1.99359
-2.0712
-2.15469
-2.24433
-2.34042
-2.44345
-2.55401
-2.67297
-2.80148
-1.38213
-1.38665
-1.39577
-1.40945
-1.42758
-1.45009
-1.47692
-1.50803
-1.5434
-1.58304
-1.62696
-1.67513
-1.7275
-1.78401
-1.84462
-1.90923
-1.97771
-2.04989
-2.12556
-2.20448
-2.28633
-2.37072
-2.45676
-1.29921
-1.30319
-1.31121
-1.32322
-1.33912
-1.35882
-1.38224
-1.40928
-1.43987
-1.47397
-1.5115
-1.55234
-1.59637
-1.64339
-1.69318
-1.74544
-1.79976
-1.85566
-1.91254
-1.96966
-2.02609
-2.08058
-2.13104
-1.2127
-1.21613
-1.22305
-1.23342
-1.24711
-1.26404
-1.2841
-1.30716
-1.33311
-1.36184
-1.3932
-1.42703
-1.46311
-1.50114
-1.54078
-1.58157
-1.6229
-1.66408
-1.70424
-1.74235
-1.7771
-1.8068
-1.82886
-1.12311
-1.12601
-1.13185
-1.14061
-1.15214
-1.16637
-1.18317
-1.20238
-1.22386
-1.24744
-1.27294
-1.30013
-1.32874
-1.35841
-1.38871
-1.41906
-1.44876
-1.47697
-1.5027
-1.52475
-1.5417
-1.55168
-1.55209
-1.03104
-1.03343
-1.03823
-1.04541
-1.05486
-1.06648
-1.08013
-1.09566
-1.11288
-1.13159
-1.15157
-1.17255
-1.19424
-1.21623
-1.23805
-1.25908
-1.27858
-1.29564
-1.30923
-1.31816
-1.32102
-1.31601
-1.30077
-0.937027
-0.938927
-0.942713
-0.948396
-0.955836
-0.964957
-0.975614
-0.987644
-1.00084
-1.01499
-1.02984
-1.0451
-1.06045
-1.07549
-1.08974
-1.10258
-1.11329
-1.12098
-1.12465
-1.12321
-1.11537
-1.09955
-1.0738
-0.84098
-0.842431
-0.845253
-0.849519
-0.855062
-0.861822
-0.869656
-0.878404
-0.887862
-0.897796
-0.907948
-0.918025
-0.927696
-0.936577
-0.944209
-0.950028
-0.953355
-0.953393
-0.949248
-0.939954
-0.924438
-0.901425
-0.869437
-0.74287
-0.743924
-0.745833
-0.748756
-0.752499
-0.757019
-0.762187
-0.767852
-0.77382
-0.779867
-0.785738
-0.791152
-0.795792
-0.799305
-0.801279
-0.801227
-0.798564
-0.792613
-0.782621
-0.767802
-0.747325
-0.720237
-0.685516
-0.64516
-0.645878
-0.646915
-0.648549
-0.650567
-0.652939
-0.655551
-0.658269
-0.66092
-0.663301
-0.665183
-0.666307
-0.666391
-0.665126
-0.662171
-0.657133
-0.64956
-0.638924
-0.624654
-0.606177
-0.582931
-0.554295
-0.519673
-0.551057
-0.551495
-0.551746
-0.552185
-0.552595
-0.552945
-0.553146
-0.553083
-0.552611
-0.551559
-0.54973
-0.546902
-0.542833
-0.53727
-0.529944
-0.520561
-0.508798
-0.494301
-0.476702
-0.455681
-0.430988
-0.402386
-0.369716
-0.45613
-0.456395
-0.455986
-0.455337
-0.454266
-0.452746
-0.450718
-0.448094
-0.444766
-0.440606
-0.435463
-0.429167
-0.421531
-0.412356
-0.401439
-0.388574
-0.373556
-0.356194
-0.336335
-0.313915
-0.288991
-0.261718
-0.232389
-0.351637
-0.352153
-0.351131
-0.349399
-0.346856
-0.343506
-0.339321
-0.334252
-0.328234
-0.321193
-0.313045
-0.303689
-0.293011
-0.280892
-0.267211
-0.251864
-0.234777
-0.215928
-0.195379
-0.173323
-0.150113
-0.126261
-0.102427
407.279
504.625
313.936
10.9056
880.788
762.624
622.998
544.059
1085.43
989.962
914.302
883.054
1096.93
1058.67
1026.73
1009.81
852.779
1069.9
1077.77
1075.08
54.8436
132.13
237.483
341.254
-3.00444
-3.10773
-3.05217
-2.81281
-3.49804
-3.51753
-3.57951
-3.61985
-3.69575
-3.69276
-3.71073
-3.74038
-3.70055
-3.70172
-3.71728
-3.75239
-3.70474
-3.7242
-3.75814
-3.81374
-3.77323
-3.81497
-3.87121
-3.94093
-3.90759
-3.98229
-4.07409
-4.18076
-4.12128
-4.23467
-4.37084
-4.52968
-4.38075
-4.5332
-4.7119
-4.91528
-4.658
-4.85169
-5.07418
-5.3259
-4.92356
-5.157
-5.42506
-5.7382
-5.14231
-5.40596
-5.70903
-6.06387
-5.28228
-5.55875
-5.87417
-6.23517
-5.3411
-5.61429
-5.92163
-6.27049
-5.33428
-5.59825
-5.88906
-6.21458
-5.27227
-5.52868
-5.80949
-6.12221
-5.1575
-5.4074
-5.68216
-5.98811
-4.98461
-5.22646
-5.4946
-5.79556
-4.74839
-4.97631
-5.23048
-5.51393
-4.45027
-4.6555
-4.88394
-5.13401
-4.0976
-4.27071
-4.46158
-4.66587
-3.70708
-3.84222
-3.98847
-4.14125
-3.30167
-3.39945
-3.50272
-3.60789
-2.90063
-2.9655
-3.03183
-3.09718
-2.5177
-2.55544
-2.59203
-2.62587
-2.16133
-2.17787
-2.19183
-2.20218
-1.83577
-1.83655
-1.83409
-1.82771
-1.54215
-1.53191
-1.51819
-1.50065
-1.27952
-1.26216
-1.24139
-1.21706
-1.04572
-1.02437
-0.999875
-0.972249
-0.838055
-0.815138
-0.789556
-0.761323
-0.653639
-0.631022
-0.606301
-0.579465
-0.489495
-0.468592
-0.446182
-0.422248
-0.342765
-0.324611
-0.305642
-0.285916
-0.20974
-0.194989
-0.180096
-0.165166
-0.0855469
-0.0751495
-0.0653152
-0.0562101
28.065
14.4919
14.5669
14.745
14.3678
14.1138
13.948
13.8101
13.6955
13.5981
13.5133
13.438
13.3715
13.3134
13.2641
13.2241
13.1936
13.1731
13.1629
378.792
14.4554
14.8262
15.0098
14.3833
14.044
13.8858
13.7477
13.6393
13.5493
13.4698
13.3971
13.3312
13.2724
13.2218
13.1801
13.1482
13.1267
13.1158
811.299
610.703
101.031
15.4019
14.5748
14.0149
13.8001
13.6585
13.5669
13.4909
13.4192
13.3494
13.2833
13.2229
13.1699
13.1258
13.0918
13.0687
13.0571
963.62
898.496
800.855
225.873
14.644
13.1453
13.559
13.5176
13.4791
13.4265
13.364
13.2961
13.2283
13.1645
13.1077
13.0601
13.0231
12.9979
12.9852
1074.04
1053.84
1042.74
943.523
282.772
13.2155
13.3297
13.3744
13.3936
13.3649
13.3077
13.2386
13.1661
13.0966
13.0341
12.9814
12.9405
12.9127
12.8986
715.623
1175.52
1159.81
1141.6
984.774
237.791
13.3164
13.3198
13.3377
13.3102
13.2541
13.1769
13.0952
13.017
12.9467
12.8876
12.8418
12.8106
12.7949
16.4626
171.089
891.975
1251.78
1222.88
808.856
96.0648
13.7818
13.4165
13.2636
13.1971
13.1074
13.012
12.9221
12.8421
12.7753
12.7239
12.689
12.6714
-3.69543
-3.72901
35.8477
855.563
1295.64
1235.83
440.501
16.6552
13.558
13.2202
13.1208
13.0217
12.9098
12.8065
12.7157
12.6405
12.5831
12.5443
12.5249
-3.79722
-3.9042
-4.06674
150.432
1122.88
1286.69
815.321
79.1845
14.1947
13.305
13.023
12.91
12.7812
12.6626
12.5612
12.4782
12.4152
12.3729
12.3518
-3.8481
-4.01734
-4.25135
-4.31528
666.544
1326.95
1064.11
209.935
15.7431
13.417
12.8947
12.7469
12.6108
12.4813
12.3718
12.283
12.2159
12.1711
12.1487
-3.93887
-4.11965
-4.257
-4.23162
253.274
1264.23
1203.67
398.35
16.6941
13.4373
12.6917
12.5158
12.3854
12.2537
12.1414
12.0504
11.9815
11.9356
11.9127
-4.08921
-4.29575
-4.38369
-4.21822
46.4313
1069.78
1223.02
550.923
20.7769
13.2821
12.3992
12.2195
12.1011
11.9752
11.8664
11.7773
11.7096
11.6644
11.6418
-4.39018
-4.66121
-4.78623
-4.78212
-2.82081
815.924
1256.1
545.287
19.237
12.9271
12.027
11.8653
11.7594
11.6456
11.5459
11.463
11.3995
11.3569
11.3356
-4.83799
-5.24731
-5.49684
-5.79927
-6.44024
746.083
1259.6
475.492
15.9722
12.3134
11.5747
11.4512
11.3632
11.2681
11.1824
11.1092
11.0525
11.0143
10.9951
-5.2511
-5.77241
-6.19796
-6.57338
15.2968
844.389
1192.19
380.461
14.1683
11.4994
11.0518
10.9868
10.9222
10.8502
10.7809
10.7199
10.672
10.6394
10.623
-5.68696
-6.27771
-6.50092
-6.29806
220.907
961.463
1000.8
254.099
12.4016
10.6582
10.508
10.4906
10.4512
10.4015
10.3485
10.3006
10.2625
10.2363
10.2231
-6.19624
-7.05738
-7.54038
-7.8711
565.499
999.911
711.459
98.7057
10.7879
9.9993
9.9948
9.98393
9.96403
9.93069
9.89249
9.85762
9.8295
9.80994
9.80004
-6.70772
-7.75638
-9.2302
257.979
685.587
839.661
224.119
22.1757
9.94752
9.64409
9.50708
9.4797
9.46654
9.44393
9.41921
9.39673
9.3783
9.36527
9.35862
-6.94038
-7.95013
-9.35588
447.299
686.558
268.66
14.8581
10.4792
9.30854
9.13064
8.99986
8.96886
8.95695
8.94518
8.9339
8.92331
8.9141
8.90722
8.90363
-6.9451
-7.69389
-9.29445
402.443
708.66
366.039
22.0495
8.86812
8.61996
8.51241
8.45286
8.43507
8.43399
8.43812
8.44137
8.44231
8.4416
8.44028
8.43945
-6.81901
-7.34716
-8.74756
114.924
752.57
754.823
24.5402
8.41483
8.1276
7.80334
7.84208
7.87329
7.90309
7.92852
7.94686
7.95829
7.96491
7.96831
7.96981
-6.69507
-7.60061
-8.29663
-8.91831
733.304
756.528
427.088
21.3418
7.53966
6.94517
7.14866
7.30912
7.38006
7.42508
7.45585
7.47516
7.48726
7.49434
7.49773
-6.56083
-7.47256
-7.36445
-8.77758
351.752
761.262
756.849
64.2514
7.1598
6.12613
6.48721
6.79154
6.88882
6.93785
6.97258
6.99539
7.01076
7.02052
7.02555
-6.36204
-7.30966
-7.72886
-7.29605
-7.1587
744.421
735.071
627.158
65.2904
6.23043
6.17169
6.37581
6.44095
6.4681
6.49592
6.5185
6.53598
6.5481
6.55511
-6.05053
-7.0483
-8.22823
-7.69848
-7.82832
274.401
735.579
724.987
149.002
6.76557
5.96789
5.97416
5.98035
5.99021
6.01505
6.0406
6.06233
6.07777
6.08828
-5.60816
-6.54029
-7.80759
-8.19987
-1.9371
-5.81749
293.471
310.54
130.596
8.41698
5.34958
5.38283
5.42724
5.47226
5.51833
5.55839
5.59001
5.60987
5.62818
-5.05083
-5.82216
-6.93334
-8.57258
-6.76609
-3.68047
-7.70312
-0.826921
24.4421
7.68252
4.52018
4.61613
4.80344
4.91839
5.0098
5.07551
5.12271
5.14751
5.17688
-4.42394
-4.96864
-5.75494
-6.91411
-6.35159
-4.95557
-7.12243
-4.47386
-0.973437
2.47616
3.32102
3.8471
4.18008
4.37779
4.51108
4.60251
4.66512
4.69963
4.73427
-3.79818
-4.13957
-4.58918
-5.1588
-5.32356
-5.10589
-4.72935
-2.91703
-0.646161
1.28067
2.52751
3.2089
3.61675
3.86877
4.0358
4.14878
4.2247
4.26822
4.30418
-3.21172
-3.39973
-3.61207
-3.81871
-3.8371
-3.55573
-2.81948
-1.55977
-0.0696112
1.22593
2.14376
2.74491
3.14451
3.41207
3.59522
3.72094
3.80554
3.85573
3.89065
-2.68122
-2.75568
-2.80811
-2.80059
-2.65316
-2.29437
-1.64291
-0.732167
0.281078
1.18901
1.88483
2.38863
2.75052
3.00861
3.19236
3.32163
3.40969
3.46348
3.49581
-2.21424
-2.21078
-2.16708
-2.05364
-1.83451
-1.46141
-0.923753
-0.251817
0.468261
1.13005
1.67244
2.0933
2.41196
2.64947
2.82421
2.95008
3.03715
3.09147
3.12022
-1.80979
-1.75665
-1.65963
-1.4981
-1.26097
-0.918678
-0.477545
0.0343086
0.567128
1.0649
1.49198
1.83981
2.11422
2.32595
2.48602
2.60374
2.68643
2.73882
2.76345
-1.46354
-1.38232
-1.26198
-1.09476
-0.858545
-0.55804
-0.198187
0.200643
0.607716
0.991408
1.32985
1.61472
1.84667
2.03064
2.17292
2.27945
2.35535
2.40401
2.42434
-1.16901
-1.07471
-0.947254
-0.782024
-0.570139
-0.314578
-0.0226133
0.291196
0.607488
0.907114
1.17611
1.40772
1.60072
1.75711
1.8803
1.97393
2.04148
2.0852
2.10134
-0.919593
-0.822816
-0.69998
-0.54775
-0.363813
-0.150977
0.0842642
0.331583
0.578489
0.812964
1.0259
1.21217
1.37006
1.5001
1.60405
1.68403
1.74234
1.78042
1.79259
-0.708723
-0.616597
-0.505237
-0.371894
-0.217239
-0.0438633
0.143109
0.336461
0.527996
0.709998
0.876468
1.0237
1.15005
1.25543
1.34063
1.40684
1.45553
1.48762
1.49615
-0.530312
-0.447346
-0.351622
-0.240527
-0.115219
0.0218807
0.166923
0.314958
0.46062
0.598939
0.725987
0.839178
0.937197
1.01971
1.08702
1.13972
1.17876
1.20481
1.21002
-0.379093
-0.307583
-0.231484
-0.143955
-0.0473631
0.0562198
0.164077
0.27294
0.379389
0.480299
0.573176
0.656311
0.72875
0.790145
0.840568
0.880292
0.909884
0.930032
0.932248
-0.251527
-0.200491
-0.139609
-0.0752605
-0.00651929
0.0657501
0.13993
0.214045
0.286063
0.354149
0.416833
0.473086
0.5223
0.564211
0.598809
0.626195
0.646689
0.661167
0.660876
-0.140126
-0.105306
-0.0678811
-0.0286039
0.0125509
0.055099
0.0981956
0.140824
0.18196
0.220692
0.256296
0.288264
0.316286
0.340219
0.360049
0.375805
0.387634
0.396789
0.394432
-0.0424969
-0.0279689
-0.0148085
-0.00131116
0.0124573
0.0263213
0.0400267
0.0533004
0.0658941
0.0776084
0.0882995
0.0978744
0.10628
0.113491
0.119507
0.124331
0.127842
0.131042
0.129587
)
;

boundaryField
{
    leftWall
    {
        type            fixedFluxPressure;
        gradient        uniform 0;
        value           nonuniform List<scalar> 
50
(
1626.14
1625.3
1623.64
1621.19
1617.99
1614.08
1609.53
1604.4
1595.5
1581.31
1565.77
1549.24
1532.33
1515.46
1499.8
1435.07
468.074
-1.7091
-1.71357
-1.73995
-1.76822
-1.79681
-1.82681
-1.85495
-1.87841
-1.89512
-1.90379
-1.90381
-1.89494
-1.8771
-1.85069
-1.81607
-1.77361
-1.72377
-1.66702
-1.60393
-1.53503
-1.46092
-1.38213
-1.29921
-1.2127
-1.12311
-1.03104
-0.937027
-0.84098
-0.74287
-0.64516
-0.551057
-0.45613
-0.351637
)
;
    }
    rightWall
    {
        type            fixedFluxPressure;
        gradient        uniform 0;
        value           nonuniform List<scalar> 
50
(
13.2476
13.2457
13.2417
13.2355
13.2273
13.2169
13.2043
13.1895
13.1629
13.1158
13.0571
12.9852
12.8986
12.7949
12.6714
12.5249
12.3518
12.1487
11.9127
11.6418
11.3356
10.9951
10.623
10.2231
9.80004
9.35862
8.90363
8.43945
7.96981
7.49773
7.02555
6.55511
6.08828
5.62818
5.17688
4.73427
4.30418
3.89065
3.49581
3.12022
2.76345
2.42434
2.10134
1.79259
1.49615
1.21002
0.932248
0.660876
0.394432
0.129587
)
;
    }
    lowerWall
    {
        type            fixedFluxPressure;
        gradient        uniform 0;
        value           nonuniform List<scalar> 
62
(
1626.14
1634.38
1636.37
1633.22
1625.01
1614.03
1602.14
1590.19
1578.62
1567.95
1558.91
1552.53
1550.31
1554.21
1566.86
1591.94
1632.18
1687.53
1752.6
1812.13
1835.91
1793.21
1868.3
1868.3
1869.82
1888.28
1933.16
1934.56
1888.65
1781.19
1596.44
407.279
504.625
313.936
10.9056
14.5931
14.5992
14.6123
14.6325
14.6589
14.703
14.7836
14.8158
14.5931
14.5489
14.4785
14.3879
14.275
14.1489
14.0212
13.8992
13.7869
13.6857
13.5959
13.517
13.4488
13.3908
13.3428
13.3046
13.276
13.257
13.2476
)
;
    }
    atmosphere
    {
        type            totalPressure;
        rho             rho;
        psi             none;
        gamma           1;
        p0              uniform 0;
        value           nonuniform List<scalar> 
46
(
-0.285735
-0.287054
-0.285598
-0.283233
-0.279895
-0.275593
-0.27031
-0.264023
-0.256702
-0.248313
-0.238816
-0.228162
-0.216294
-0.203156
-0.188696
-0.17289
-0.155759
-0.137392
-0.117966
-0.0977824
-0.0773402
-0.0574073
-0.0387428
-0.026294
-0.0192404
-0.0130467
-0.00786134
-0.00192607
0
0
0
0
0
0
0
0
0
0
0
0
0
0
0
0
0
0
)
;
    }
    defaultFaces
    {
        type            empty;
    }
}


// ************************************************************************* //
