/*--------------------------------*- C++ -*----------------------------------*\
| =========                 |                                                 |
| \\      /  F ield         | OpenFOAM: The Open Source CFD Toolbox           |
|  \\    /   O peration     | Version:  5.x                                   |
|   \\  /    A nd           | Web:      www.OpenFOAM.org                      |
|    \\/     M anipulation  |                                                 |
\*---------------------------------------------------------------------------*/
FoamFile
{
    version     2.0;
    format      ascii;
    class       surfaceScalarField;
    location    "0.25";
    object      phi;
}
// * * * * * * * * * * * * * * * * * * * * * * * * * * * * * * * * * * * * * //

dimensions      [0 3 -1 0 0 0 0];

internalField   nonuniform List<scalar> 
4432
(
4.21844e-07
-4.21844e-07
5.01176e-06
-4.58992e-06
1.11995e-05
-6.18778e-06
1.72474e-05
-6.04789e-06
2.25688e-05
-5.32142e-06
2.72257e-05
-4.65684e-06
3.14695e-05
-4.24376e-06
3.55144e-05
-4.04493e-06
3.94681e-05
-3.9537e-06
4.33353e-05
-3.86726e-06
4.70459e-05
-3.71058e-06
5.04771e-05
-3.43113e-06
5.34661e-05
-2.98908e-06
5.57692e-05
-2.30303e-06
5.70325e-05
-1.26332e-06
5.63905e-05
6.42014e-07
5.21816e-05
4.20886e-06
4.27077e-05
9.47391e-06
2.6811e-05
1.58967e-05
5.87913e-06
2.09319e-05
-1.24836e-05
1.83627e-05
-1.86233e-05
6.13969e-06
-1.86233e-05
4.83444e-07
-9.05287e-07
5.10846e-06
-9.21494e-06
1.13031e-05
-1.23824e-05
1.73419e-05
-1.20867e-05
2.26542e-05
-1.06337e-05
2.73145e-05
-9.31714e-06
3.15799e-05
-8.50919e-06
3.56615e-05
-8.12652e-06
3.96606e-05
-7.95279e-06
4.35782e-05
-7.7849e-06
4.73437e-05
-7.47601e-06
5.08377e-05
-6.92519e-06
5.38949e-05
-6.04629e-06
5.63287e-05
-4.73675e-06
5.79108e-05
-2.84549e-06
5.86805e-05
-1.27652e-07
5.89733e-05
3.91602e-06
5.77572e-05
1.06901e-05
5.20166e-05
2.16373e-05
3.79014e-05
3.50471e-05
1.64576e-05
3.98065e-05
1.56686e-06
2.10304e-05
-1.70564e-05
5.85723e-07
-1.49101e-06
5.25251e-06
-1.38817e-05
1.14145e-05
-1.85443e-05
1.73749e-05
-1.80471e-05
2.26129e-05
-1.58717e-05
2.72329e-05
-1.39371e-05
3.14985e-05
-1.27748e-05
3.56116e-05
-1.22397e-05
3.96607e-05
-1.20019e-05
4.36383e-05
-1.17625e-05
4.74717e-05
-1.13094e-05
5.10446e-05
-1.04981e-05
5.42056e-05
-9.20724e-06
5.67694e-05
-7.3006e-06
5.85086e-05
-4.58467e-06
5.91554e-05
-7.74438e-07
5.85864e-05
4.48504e-06
5.73461e-05
1.19303e-05
5.60917e-05
2.28917e-05
5.25263e-05
3.86125e-05
4.05932e-05
5.17395e-05
1.99572e-05
4.16664e-05
2.90082e-06
7.40904e-07
-2.23191e-06
5.47488e-06
-1.86157e-05
1.15854e-05
-2.46549e-05
1.74282e-05
-2.38899e-05
2.25608e-05
-2.10042e-05
2.71309e-05
-1.85073e-05
3.14065e-05
-1.70503e-05
3.5573e-05
-1.64062e-05
3.96999e-05
-1.61289e-05
4.37684e-05
-1.58309e-05
4.77036e-05
-1.52446e-05
5.13945e-05
-1.4189e-05
5.47009e-05
-1.25136e-05
5.74516e-05
-1.00513e-05
5.94422e-05
-6.57533e-06
6.04387e-05
-1.77086e-06
6.01639e-05
4.75978e-06
5.85824e-05
1.35119e-05
5.66209e-05
2.48531e-05
5.53877e-05
3.98457e-05
4.97725e-05
5.73547e-05
3.07434e-05
6.06955e-05
3.36442e-05
9.47237e-07
-3.17915e-06
5.76132e-06
-2.34298e-05
1.17931e-05
-3.06867e-05
1.74798e-05
-2.95766e-05
2.24816e-05
-2.6006e-05
2.69972e-05
-2.3023e-05
3.12938e-05
-2.13468e-05
3.55323e-05
-2.06447e-05
3.97583e-05
-2.03549e-05
4.394e-05
-2.00126e-05
4.80014e-05
-1.93061e-05
5.18391e-05
-1.80267e-05
5.53263e-05
-1.60008e-05
5.83106e-05
-1.30356e-05
6.06121e-05
-8.87686e-06
6.20234e-05
-3.18211e-06
6.23052e-05
4.47793e-06
6.12553e-05
1.45618e-05
5.87933e-05
2.73151e-05
5.61185e-05
4.25205e-05
5.16901e-05
6.17831e-05
3.54509e-05
7.69347e-05
6.90951e-05
1.19983e-06
-4.37898e-06
6.09565e-06
-2.83256e-05
1.20165e-05
-3.66076e-05
1.75134e-05
-3.50735e-05
2.23679e-05
-3.08604e-05
2.68312e-05
-2.74863e-05
3.11613e-05
-2.56769e-05
3.54871e-05
-2.49705e-05
3.98269e-05
-2.46947e-05
4.41361e-05
-2.43218e-05
4.83399e-05
-2.35099e-05
5.23451e-05
-2.2032e-05
5.60416e-05
-1.96973e-05
5.92975e-05
-1.62914e-05
6.19539e-05
-1.15333e-05
6.38212e-05
-5.04938e-06
6.46675e-05
3.63159e-06
6.42857e-05
1.49436e-05
6.22592e-05
2.93415e-05
5.8488e-05
4.62917e-05
5.28263e-05
6.74449e-05
3.78208e-05
9.19402e-05
0.000106916
1.49038e-06
-5.86937e-06
6.46332e-06
-3.32985e-05
1.22388e-05
-4.2383e-05
1.75191e-05
-4.03539e-05
2.22201e-05
-3.55614e-05
2.66399e-05
-3.19061e-05
3.1017e-05
-3.0054e-05
3.54415e-05
-2.9395e-05
3.9903e-05
-2.91562e-05
4.43465e-05
-2.87653e-05
4.87021e-05
-2.78655e-05
5.28915e-05
-2.62213e-05
5.68231e-05
-2.36289e-05
6.0384e-05
-1.98524e-05
6.34331e-05
-1.45824e-05
6.57972e-05
-7.41343e-06
6.7239e-05
2.18983e-06
6.75299e-05
1.46527e-05
6.6299e-05
3.05724e-05
6.27485e-05
4.98422e-05
5.60699e-05
7.41236e-05
4.27915e-05
0.000105219
0.000149707
1.80537e-06
-7.67473e-06
6.84291e-06
-3.83361e-05
1.24438e-05
-4.7984e-05
1.74971e-05
-4.54072e-05
2.20524e-05
-4.01166e-05
2.64434e-05
-3.62971e-05
3.08795e-05
-3.44901e-05
3.54085e-05
-3.3924e-05
3.99938e-05
-3.37416e-05
4.45748e-05
-3.33463e-05
4.90933e-05
-3.2384e-05
5.34905e-05
-3.06184e-05
5.76924e-05
-2.78308e-05
6.16001e-05
-2.37601e-05
6.50843e-05
-1.80666e-05
6.79843e-05
-1.03134e-05
7.00553e-05
1.18881e-07
7.1051e-05
1.36569e-05
7.07116e-05
3.09118e-05
6.8281e-05
5.22727e-05
6.18324e-05
8.05722e-05
4.81178e-05
0.000118933
0.000197825
6.61808e-06
-6.61808e-06
1.07412e-05
-4.12312e-06
1.28387e-05
-2.09749e-06
1.43088e-05
-1.47008e-06
1.52772e-05
-9.68373e-07
1.58841e-05
-6.06844e-07
1.6237e-05
-3.52888e-07
1.63865e-05
-1.4943e-07
1.63396e-05
4.68206e-08
1.60432e-05
2.96528e-07
1.54244e-05
6.1879e-07
1.4458e-05
9.66423e-07
1.31474e-05
1.3107e-06
1.15198e-05
1.62751e-06
9.58648e-06
1.93343e-06
7.41318e-06
2.17319e-06
5.0463e-06
2.36688e-06
2.54971e-06
2.49668e-06
2.54957e-06
5.62959e-06
-1.22477e-05
9.9782e-06
-8.47166e-06
1.24734e-05
-4.59267e-06
1.44116e-05
-3.40824e-06
1.56659e-05
-2.22259e-06
1.64545e-05
-1.39541e-06
1.69683e-05
-8.66669e-07
1.72752e-05
-4.56198e-07
1.73561e-05
-3.41509e-08
1.71616e-05
4.91188e-07
1.66469e-05
1.13349e-06
1.57629e-05
1.85034e-06
1.447e-05
2.60383e-06
1.27699e-05
3.32743e-06
1.07018e-05
4.00151e-06
8.31225e-06
4.56284e-06
5.67375e-06
5.00527e-06
2.8689e-06
5.30154e-06
5.41842e-06
6.36479e-06
-1.86125e-05
1.06841e-05
-1.27909e-05
1.2902e-05
-6.8105e-06
1.47059e-05
-5.21214e-06
1.58372e-05
-3.35382e-06
1.6531e-05
-2.08923e-06
1.69883e-05
-1.32395e-06
1.72693e-05
-7.37075e-07
1.73565e-05
-1.21405e-07
1.71722e-05
6.75645e-07
1.66533e-05
1.65237e-06
1.57504e-05
2.75317e-06
1.444e-05
3.91437e-06
1.27298e-05
5.03751e-06
1.06577e-05
6.0736e-06
8.27319e-06
6.94742e-06
5.64429e-06
7.634e-06
2.85242e-06
8.09343e-06
8.27085e-06
7.23558e-06
-2.5848e-05
1.1342e-05
-1.68973e-05
1.32077e-05
-8.67622e-06
1.5005e-05
-7.00941e-06
1.6063e-05
-4.41179e-06
1.66549e-05
-2.68101e-06
1.70633e-05
-1.73247e-06
1.7348e-05
-1.02155e-06
1.74578e-05
-2.31299e-07
1.73023e-05
8.31123e-07
1.68085e-05
2.14618e-06
1.59043e-05
3.65731e-06
1.45822e-05
5.23663e-06
1.28502e-05
6.76937e-06
1.07556e-05
8.16816e-06
8.34485e-06
9.35821e-06
5.6928e-06
1.0286e-05
2.87742e-06
1.09089e-05
1.11483e-05
8.37103e-06
-3.42191e-05
1.22229e-05
-2.07491e-05
1.34167e-05
-9.87004e-06
1.53814e-05
-8.97409e-06
1.63649e-05
-5.39523e-06
1.68053e-05
-3.12137e-06
1.71551e-05
-2.08233e-06
1.7459e-05
-1.32538e-06
1.7623e-05
-3.95369e-07
1.75209e-05
9.33275e-07
1.70551e-05
2.61201e-06
1.61652e-05
4.54717e-06
1.48439e-05
6.558e-06
1.30903e-05
8.52293e-06
1.09567e-05
1.03017e-05
8.49988e-06
1.18151e-05
5.80072e-06
1.29851e-05
2.93142e-06
1.37782e-05
1.40797e-05
1.06215e-05
-4.48405e-05
1.39175e-05
-2.40451e-05
1.34434e-05
-9.39592e-06
1.57298e-05
-1.12605e-05
1.66631e-05
-6.32857e-06
1.6941e-05
-3.3992e-06
1.72391e-05
-2.38049e-06
1.75871e-05
-1.67329e-06
1.78251e-05
-6.33385e-07
1.77969e-05
9.61541e-07
1.73835e-05
3.02548e-06
1.65191e-05
5.41146e-06
1.51814e-05
7.8958e-06
1.3403e-05
1.03013e-05
1.12183e-05
1.24865e-05
8.70916e-06
1.43242e-05
5.94172e-06
1.57525e-05
3.00248e-06
1.67175e-05
1.70822e-05
1.23105e-05
-5.71511e-05
1.49438e-05
-2.66784e-05
1.27592e-05
-7.21125e-06
1.60546e-05
-1.4556e-05
1.69092e-05
-7.18316e-06
1.6995e-05
-3.48493e-06
1.72776e-05
-2.66319e-06
1.77081e-05
-2.10367e-06
1.80495e-05
-9.74829e-07
1.81253e-05
8.85695e-07
1.77806e-05
3.37033e-06
1.6948e-05
6.24395e-06
1.56073e-05
9.23657e-06
1.37815e-05
1.21271e-05
1.15465e-05
1.47215e-05
8.95856e-06
1.69121e-05
6.11317e-06
1.85979e-05
3.08927e-06
1.97415e-05
2.01714e-05
7.33305e-06
-6.44841e-05
1.01567e-05
-2.95022e-05
1.0635e-05
-7.68953e-06
1.68114e-05
-2.07324e-05
1.73521e-05
-7.72383e-06
1.70905e-05
-3.22337e-06
1.7337e-05
-2.90967e-06
1.78586e-05
-2.62525e-06
1.83312e-05
-1.44742e-06
1.85335e-05
6.83319e-07
1.82721e-05
3.6318e-06
1.74646e-05
7.05139e-06
1.61096e-05
1.05916e-05
1.42418e-05
1.3995e-05
1.19279e-05
1.70353e-05
9.25832e-06
1.95817e-05
6.31564e-06
2.15406e-05
3.19124e-06
2.28659e-05
2.33627e-05
4.85618e-06
-1.25309e-05
1.58101e-05
-4.929e-05
2.71044e-05
-5.92783e-05
3.70853e-05
-5.5388e-05
4.63611e-05
-4.93924e-05
5.56881e-05
-4.56241e-05
6.53608e-05
-4.41628e-05
7.53496e-05
-4.39128e-05
8.55234e-05
-4.39154e-05
9.57669e-05
-4.35898e-05
0.000106014
-4.26312e-05
0.000116188
-4.07926e-05
0.000126151
-3.77937e-05
0.000135735
-3.33439e-05
0.000144758
-2.7089e-05
0.000152978
-1.85339e-05
0.000159921
-6.82423e-06
0.000164653
8.92469e-06
0.000167092
2.84737e-05
0.000166801
5.25635e-05
0.000164338
8.30347e-05
0.000167765
0.000115507
0.000168011
0.000197579
6.30084e-06
-1.88318e-05
1.7361e-05
-6.03502e-05
2.77581e-05
-6.96754e-05
3.68363e-05
-6.44662e-05
4.57195e-05
-5.82756e-05
5.51363e-05
-5.5041e-05
6.51727e-05
-5.41992e-05
7.56531e-05
-5.43932e-05
8.64174e-05
-5.46797e-05
9.73937e-05
-5.45661e-05
0.000108574
-5.38116e-05
0.000119862
-5.20811e-05
0.000131079
-4.90106e-05
0.000142235
-4.44996e-05
0.000153441
-3.82945e-05
0.000164814
-2.99075e-05
0.000176178
-1.81882e-05
0.000185657
-5.54491e-07
0.000194293
1.98375e-05
0.000201088
4.57692e-05
0.00021008
7.40428e-05
0.000225164
0.000100422
0.000134253
0.000258923
7.73381e-06
-2.65656e-05
1.87299e-05
-7.13463e-05
2.81323e-05
-7.90778e-05
3.64248e-05
-7.27587e-05
4.5108e-05
-6.69589e-05
5.47164e-05
-6.46494e-05
6.50841e-05
-6.45668e-05
7.59212e-05
-6.52304e-05
8.70608e-05
-6.58192e-05
9.84339e-05
-6.59392e-05
0.000110009
-6.53866e-05
0.000121605
-6.3677e-05
0.00013325
-6.06561e-05
0.000145748
-5.6997e-05
0.000159512
-5.20584e-05
0.000174741
-4.51366e-05
0.000189567
-3.30146e-05
0.000204529
-1.55162e-05
0.000217861
6.50495e-06
0.000227255
3.63753e-05
0.000238277
6.30216e-05
0.000250918
8.77799e-05
0.000110644
0.000274527
9.09007e-06
-3.56556e-05
1.9779e-05
-8.20352e-05
2.81375e-05
-8.74364e-05
3.58075e-05
-8.04287e-05
4.4402e-05
-7.55534e-05
5.40825e-05
-7.43299e-05
6.44091e-05
-7.48933e-05
7.50095e-05
-7.58308e-05
8.57146e-05
-7.65243e-05
9.64617e-05
-7.66862e-05
0.000107389
-7.6314e-05
0.000118736
-7.50236e-05
0.000131604
-7.35245e-05
0.000148494
-7.3887e-05
0.000167547
-7.11113e-05
0.000189406
-6.69958e-05
0.000211364
-5.4973e-05
0.000230531
-3.46828e-05
0.000242143
-5.10683e-06
0.000249348
2.91705e-05
0.00025689
5.54797e-05
0.000266927
7.77422e-05
9.55342e-05
0.000282038
1.03984e-05
-4.6054e-05
2.02742e-05
-9.1911e-05
2.73801e-05
-9.45423e-05
3.44422e-05
-8.74907e-05
4.27649e-05
-8.38761e-05
5.19843e-05
-8.35493e-05
6.14847e-05
-8.43937e-05
7.10069e-05
-8.5353e-05
8.06433e-05
-8.61607e-05
9.07629e-05
-8.68059e-05
0.000102447
-8.79981e-05
0.0001175
-9.0077e-05
0.000137802
-9.38258e-05
0.000167443
-0.000103528
0.000195234
-9.89024e-05
0.000222514
-9.42755e-05
0.000243686
-7.6145e-05
0.000259514
-5.05117e-05
0.000262646
-8.23855e-06
0.000264453
2.73633e-05
0.000266197
5.37365e-05
0.000270841
7.30974e-05
8.64446e-05
0.000279931
1.17044e-05
-5.77584e-05
2.00605e-05
-0.000100267
2.54366e-05
-9.99183e-05
3.17272e-05
-9.37813e-05
3.95182e-05
-9.16671e-05
4.79741e-05
-9.20052e-05
5.67504e-05
-9.317e-05
6.62717e-05
-9.48742e-05
7.78094e-05
-9.76984e-05
9.23919e-05
-0.000101388
0.000113528
-0.000109134
0.000142382
-0.000118931
0.000179788
-0.000131232
0.000230516
-0.000154256
0.000266185
-0.000134571
0.000285811
-0.000113902
0.00028307
-7.34034e-05
0.000275113
-4.25552e-05
0.000290991
-2.41164e-05
0.000307846
1.05088e-05
0.000307256
5.43263e-05
0.000293454
8.68991e-05
9.56835e-05
0.000284215
1.3826e-05
-7.15844e-05
2.03484e-05
-0.000106789
2.32832e-05
-0.000102853
2.91446e-05
-9.96427e-05
3.753e-05
-0.000100053
4.72582e-05
-0.000101733
5.89321e-05
-0.000104844
7.45084e-05
-0.000110451
9.68842e-05
-0.000120074
0.000126134
-0.000130639
0.000178863
-0.000161863
0.000230674
-0.000170741
0.000272022
-0.00017258
0.000287577
-0.000169811
0.00029814
-0.000145134
0.000279829
-9.55915e-05
0.000254443
-4.80166e-05
0.000253372
-4.14841e-05
0.000297331
-6.80759e-05
0.000359896
-5.20557e-05
0.000400767
1.34551e-05
0.000399885
8.77807e-05
0.000124547
0.000371021
1.88822e-05
-9.04666e-05
2.41444e-05
-0.000112052
2.54527e-05
-0.000104161
3.36244e-05
-0.000107815
4.68339e-05
-0.000113262
6.28748e-05
-0.000117774
8.4578e-05
-0.000126547
0.000119024
-0.000144897
0.00015916
-0.00016021
0.000197423
-0.000168901
0.000227127
-0.000191567
0.00026133
-0.000204945
0.000290955
-0.000202204
0.000303847
-0.000182704
0.000300256
-0.000141543
0.000275476
-7.08106e-05
0.000248368
-2.0909e-05
0.00025848
-5.15958e-05
0.000279272
-8.88687e-05
0.000312749
-8.55325e-05
0.000360154
-3.39495e-05
0.000396654
5.12809e-05
0.000115709
0.000405492
2.53627e-05
-0.000115829
3.24563e-05
-0.000119145
4.06796e-05
-0.000112385
5.76269e-05
-0.000124762
7.98493e-05
-0.000135484
0.000100611
-0.000138536
0.00012304
-0.000148976
0.000142877
-0.000164734
0.000167864
-0.000185197
0.00020469
-0.000205727
0.000236392
-0.000223269
0.000265261
-0.000233813
0.000289114
-0.000226058
0.000301134
-0.000194724
0.000293383
-0.000133793
0.000266789
-4.42161e-05
0.000249806
-3.92614e-06
0.000252135
-5.39247e-05
0.000251656
-8.83898e-05
0.00025241
-8.62867e-05
0.000262803
-4.43426e-05
0.000290136
2.39474e-05
8.1662e-05
0.000324183
1.06572e-05
-0.000126487
2.83426e-05
-0.000136831
4.55654e-05
-0.000129608
5.69902e-05
-0.000136187
6.76218e-05
-0.000146116
8.43692e-05
-0.000155284
0.000102752
-0.000167359
0.000123028
-0.000185011
0.000147419
-0.000209588
0.000177713
-0.000236022
0.000207103
-0.000252659
0.000231705
-0.000258415
0.000248595
-0.000242947
0.000253697
-0.000199827
0.000243484
-0.00012358
0.000225239
-2.59713e-05
0.000226848
-5.53524e-06
0.000224537
-5.16137e-05
0.000215878
-7.97302e-05
0.000200523
-7.09317e-05
0.000184774
-2.85942e-05
0.000190745
1.7977e-05
4.79436e-05
0.000224463
1.35672e-06
-0.000127843
1.44014e-05
-0.000149875
3.08775e-05
-0.000146084
4.3727e-05
-0.000149036
5.45633e-05
-0.000156952
6.6437e-05
-0.000167157
7.9848e-05
-0.00018077
9.619e-05
-0.000201353
0.00011696
-0.000230358
0.000140258
-0.00025932
0.000159491
-0.000271892
0.000174172
-0.000273096
0.000180787
-0.000249562
0.000175467
-0.000194507
0.000157261
-0.000105374
0.000157257
-2.59666e-05
0.000177884
-2.61622e-05
0.000182945
-5.66747e-05
0.000171972
-6.87577e-05
0.000148329
-4.72888e-05
0.000132181
-1.24461e-05
0.000143111
7.04685e-06
1.27324e-05
0.000178322
4.93927e-06
-0.000132782
1.54992e-05
-0.000160435
2.50839e-05
-0.000155668
3.40794e-05
-0.000158032
4.25735e-05
-0.000165446
5.08565e-05
-0.00017544
5.94358e-05
-0.000189349
6.95856e-05
-0.000211502
8.14805e-05
-0.000242253
9.27279e-05
-0.000270567
0.000100241
-0.000279405
0.000100698
-0.000273554
9.73314e-05
-0.000246195
8.45885e-05
-0.000181764
7.10287e-05
-9.18138e-05
9.64941e-05
-5.1432e-05
0.000124441
-5.41094e-05
0.000128844
-6.10771e-05
0.000112273
-5.21867e-05
9.76135e-05
-3.26295e-05
0.000106449
-2.12814e-05
0.000136857
-2.33609e-05
-3.00967e-05
0.000179686
8.41963e-06
-0.000141202
1.36579e-05
-0.000165673
1.93315e-05
-0.000161342
2.56902e-05
-0.00016439
3.14595e-05
-0.000171216
3.60868e-05
-0.000180068
3.94756e-05
-0.000192738
4.16677e-05
-0.000213694
4.20877e-05
-0.000242673
3.95977e-05
-0.000268077
3.55589e-05
-0.000275366
2.59221e-05
-0.000263917
1.50924e-05
-0.000235365
5.81498e-06
-0.000172487
1.87079e-05
-0.000104707
5.02265e-05
-8.29506e-05
6.75688e-05
-7.14517e-05
5.98213e-05
-5.33297e-05
5.44753e-05
-4.68406e-05
6.95089e-05
-4.76631e-05
0.000101283
-5.30556e-05
0.000140506
-6.25839e-05
-7.37749e-05
0.000184184
8.21358e-06
-0.000149416
1.04554e-05
-0.000167915
1.43441e-05
-0.000165231
1.86369e-05
-0.000168683
2.18167e-05
-0.000174395
2.32837e-05
-0.000181535
2.21418e-05
-0.000191596
1.71738e-05
-0.000208726
7.61108e-06
-0.00023311
-6.31513e-06
-0.000254151
-2.1099e-05
-0.000260582
-3.62587e-05
-0.000248757
-4.99615e-05
-0.000221663
-4.70996e-05
-0.000175348
-2.83546e-05
-0.000123452
-1.39564e-05
-9.73488e-05
-4.83475e-06
-8.05735e-05
6.72616e-06
-6.48906e-05
3.38034e-05
-7.39178e-05
6.58623e-05
-7.97219e-05
9.97013e-05
-8.68947e-05
0.000134934
-9.78165e-05
-0.000112462
0.000173621
6.586e-06
-0.000156002
7.61216e-06
-0.000168941
1.03401e-05
-0.000167959
1.28489e-05
-0.000171192
1.41508e-05
-0.000175697
1.36784e-05
-0.000181062
1.01885e-05
-0.000188106
1.75207e-06
-0.00020029
-1.37362e-05
-0.000217622
-3.44671e-05
-0.00023342
-5.64729e-05
-0.000238576
-7.56975e-05
-0.000229532
-9.07182e-05
-0.000206642
-9.2608e-05
-0.000173459
-7.82123e-05
-0.000137847
-5.99391e-05
-0.000115622
-3.47402e-05
-0.000105772
2.29821e-06
-0.000101929
3.3346e-05
-0.000104966
6.2038e-05
-0.000108414
9.14754e-05
-0.000116332
0.00012206
-0.000128401
-0.000145897
0.000155496
4.68281e-06
-0.000160684
5.24208e-06
-0.0001695
6.99792e-06
-0.000169714
8.24799e-06
-0.000172442
8.5187e-06
-0.000175968
7.39639e-06
-0.00017994
3.77527e-06
-0.000184485
-4.90663e-06
-0.000191608
-1.9927e-05
-0.000202601
-4.02127e-05
-0.000213134
-6.16336e-05
-0.000217155
-7.96193e-05
-0.000211547
-9.0073e-05
-0.000196188
-8.87701e-05
-0.000174761
-7.26583e-05
-0.000153959
-4.81327e-05
-0.000140148
-2.11746e-05
-0.00013273
5.5043e-06
-0.000128608
2.94078e-05
-0.000128869
5.47797e-05
-0.000133786
8.07758e-05
-0.000142328
0.000107707
-0.000155333
-0.000175079
0.00013689
2.96324e-06
-0.000163648
3.33303e-06
-0.00016987
4.30013e-06
-0.000170681
4.74847e-06
-0.00017289
4.44877e-06
-0.000175668
3.21555e-06
-0.000178707
4.34837e-07
-0.000181704
-5.5081e-06
-0.000185665
-1.62014e-05
-0.000191908
-3.07807e-05
-0.000198555
-4.61156e-05
-0.00020182
-5.84024e-05
-0.00019926
-6.37505e-05
-0.00019084
-5.99204e-05
-0.000178591
-4.78082e-05
-0.000166072
-3.17645e-05
-0.000156191
-1.45695e-05
-0.000149925
4.11208e-06
-0.00014729
2.45658e-05
-0.000149323
4.61536e-05
-0.000155374
6.85244e-05
-0.000164699
9.17485e-05
-0.000178557
-0.000199723
0.000116392
1.63526e-06
-0.000165283
1.8114e-06
-0.000170046
2.12231e-06
-0.000170992
1.99568e-06
-0.000172764
1.293e-06
-0.000174966
-2.23416e-08
-0.000177391
-2.00528e-06
-0.000179721
-5.43636e-06
-0.000182234
-1.15993e-05
-0.000185745
-2.03487e-05
-0.000189806
-2.98527e-05
-0.000192316
-3.76921e-05
-0.00019142
-4.16962e-05
-0.000186836
-4.05511e-05
-0.000179737
-3.4519e-05
-0.000172104
-2.49683e-05
-0.000165742
-1.28118e-05
-0.000162082
1.9688e-06
-0.00016207
1.85433e-05
-0.000165897
3.62012e-05
-0.000173031
5.48336e-05
-0.000183331
7.42774e-05
-0.000198001
-0.000220029
9.45829e-05
6.77178e-07
-0.00016596
5.64908e-07
-0.000169934
3.75433e-07
-0.000170803
-1.84496e-07
-0.000172204
-1.19694e-06
-0.000173953
-2.66434e-06
-0.000175924
-4.47814e-06
-0.000177907
-6.85096e-06
-0.000179861
-1.05289e-05
-0.000182067
-1.58684e-05
-0.000184466
-2.20917e-05
-0.000186093
-2.76855e-05
-0.000185826
-3.11293e-05
-0.000183392
-3.14038e-05
-0.000179462
-2.82517e-05
-0.000175256
-2.18784e-05
-0.000172115
-1.2725e-05
-0.000171235
-1.4286e-06
-0.000173367
1.12795e-05
-0.000178605
2.51363e-05
-0.000186888
3.98501e-05
-0.000198045
5.53359e-05
-0.000213486
-0.000235942
7.12495e-05
3.1434e-09
-0.000165963
-4.37013e-07
-0.000169494
-1.0299e-06
-0.00017021
-1.90864e-06
-0.000171325
-3.15922e-06
-0.000172703
-4.81039e-06
-0.000174273
-6.78867e-06
-0.000175929
-9.07658e-06
-0.000177573
-1.1958e-05
-0.000179186
-1.57188e-05
-0.000180705
-2.00499e-05
-0.000181762
-2.40652e-05
-0.000181811
-2.67674e-05
-0.00018069
-2.73506e-05
-0.000178879
-2.53838e-05
-0.000177222
-2.0905e-05
-0.000176594
-1.43443e-05
-0.000177796
-6.24946e-06
-0.000181461
3.01953e-06
-0.000187874
1.30225e-05
-0.000196891
2.37578e-05
-0.00020878
3.48912e-05
-0.00022462
-0.000246871
4.58199e-05
-4.79939e-07
-0.000165483
-1.22024e-06
-0.000168753
-2.12825e-06
-0.000169302
-3.2654e-06
-0.000170188
-4.69455e-06
-0.000171274
-6.45978e-06
-0.000172507
-8.55772e-06
-0.000173831
-1.09507e-05
-0.00017518
-1.36601e-05
-0.000176476
-1.67424e-05
-0.000177623
-2.00361e-05
-0.000178468
-2.3034e-05
-0.000178813
-2.50889e-05
-0.000178635
-2.56827e-05
-0.000178285
-2.45626e-05
-0.000178342
-2.1771e-05
-0.000179386
-1.75792e-05
-0.000181988
-1.23413e-05
-0.000186699
-6.34092e-06
-0.000193875
3.13909e-07
-0.000203546
7.32142e-06
-0.000215788
1.40804e-05
-0.000231379
-0.000252955
2.01642e-05
-8.25394e-07
-0.000164658
-1.84228e-06
-0.000167737
-2.99492e-06
-0.000168149
-4.33421e-06
-0.000168849
-5.90027e-06
-0.000169708
-7.72454e-06
-0.000170683
-9.82369e-06
-0.000171732
-1.21876e-05
-0.000172816
-1.47776e-05
-0.000173886
-1.75327e-05
-0.000174868
-2.03108e-05
-0.00017569
-2.28131e-05
-0.000176311
-2.46495e-05
-0.000176799
-2.55169e-05
-0.000177417
-2.53053e-05
-0.000178554
-2.40678e-05
-0.000180623
-2.19661e-05
-0.000184089
-1.92244e-05
-0.000189441
-1.60782e-05
-0.000197021
-1.27361e-05
-0.000206888
-9.49108e-06
-0.000219033
-6.6156e-06
-0.000234254
-0.000254758
-4.81234e-06
-1.08747e-06
-0.00016357
-2.33051e-06
-0.000166494
-3.67954e-06
-0.0001668
-5.18032e-06
-0.000167348
-6.86161e-06
-0.000168026
-8.74106e-06
-0.000168804
-1.08262e-05
-0.000169647
-1.31155e-05
-0.000170527
-1.55827e-05
-0.000171419
-1.81595e-05
-0.000172291
-2.07231e-05
-0.000173127
-2.30831e-05
-0.000173951
-2.5021e-05
-0.000174861
-2.63838e-05
-0.000176054
-2.7131e-05
-0.000177807
-2.73075e-05
-0.000180447
-2.70355e-05
-0.000184361
-2.65137e-05
-0.000189963
-2.59698e-05
-0.000197565
-2.56274e-05
-0.00020723
-2.57385e-05
-0.000218921
-2.66569e-05
-0.000233336
-0.00025249
-2.89247e-05
-1.29113e-06
-0.000162279
-2.71313e-06
-0.000165072
-4.21963e-06
-0.000165294
-5.8508e-06
-0.000165717
-7.63142e-06
-0.000166246
-9.57536e-06
-0.00016686
-1.16851e-05
-0.000167537
-1.39549e-05
-0.000168257
-1.63655e-05
-0.000169008
-1.88691e-05
-0.000169787
-2.13841e-05
-0.000170612
-2.38027e-05
-0.000171532
-2.60157e-05
-0.000172648
-2.79521e-05
-0.000174118
-2.96062e-05
-0.000176153
-3.10381e-05
-0.000179015
-3.23797e-05
-0.000183019
-3.38341e-05
-0.000188508
-3.5639e-05
-0.00019576
-3.80247e-05
-0.000204844
-4.12472e-05
-0.000215699
-4.56989e-05
-0.000228884
-0.000246319
-5.18704e-05
-1.44937e-06
-0.00016083
-3.0103e-06
-0.000163511
-4.64114e-06
-0.000163663
-6.37693e-06
-0.000163981
-8.24091e-06
-0.000164382
-1.02471e-05
-0.000164854
-1.24003e-05
-0.000165384
-1.46948e-05
-0.000165963
-1.71154e-05
-0.000166587
-1.96363e-05
-0.000167266
-2.22173e-05
-0.000168031
-2.48074e-05
-0.000168942
-2.73602e-05
-0.000170095
-2.98592e-05
-0.000171619
-3.23347e-05
-0.000173677
-3.48735e-05
-0.000176476
-3.76267e-05
-0.000180266
-4.08114e-05
-0.000185324
-4.46825e-05
-0.000191889
-4.9502e-05
-0.000200025
-5.55643e-05
-0.000209637
-6.33457e-05
-0.000221103
-0.00023614
-7.35249e-05
-1.56912e-06
-0.000159261
-3.2353e-06
-0.000161845
-4.96156e-06
-0.000161937
-6.77937e-06
-0.000162163
-8.71116e-06
-0.00016245
-1.07716e-05
-0.000162793
-1.29695e-05
-0.000163186
-1.53065e-05
-0.000163625
-1.77774e-05
-0.000164116
-2.03715e-05
-0.000164672
-2.30762e-05
-0.000165326
-2.58808e-05
-0.000166138
-2.87839e-05
-0.000167192
-3.18077e-05
-0.000168595
-3.50116e-05
-0.000170473
-3.85063e-05
-0.000172981
-4.24617e-05
-0.000176311
-4.71071e-05
-0.000180678
-5.27211e-05
-0.000186274
-5.96012e-05
-0.000193145
-6.80887e-05
-0.000201149
-7.87451e-05
-0.000210446
-0.000222407
-9.24775e-05
-1.65477e-06
-0.000157606
-3.39669e-06
-0.000160103
-5.19223e-06
-0.000160141
-7.07094e-06
-0.000160284
-9.05492e-06
-0.000160466
-1.11607e-05
-0.000160688
-1.34009e-05
-0.000160945
-1.57849e-05
-0.000161241
-1.83184e-05
-0.000161583
-2.10052e-05
-0.000161985
-2.38515e-05
-0.00016248
-2.68728e-05
-0.000163117
-3.00993e-05
-0.000163966
-3.35825e-05
-0.000165112
-3.74042e-05
-0.000166651
-4.16908e-05
-0.000168694
-4.66229e-05
-0.000171379
-5.24407e-05
-0.00017486
-5.94366e-05
-0.000179279
-6.79317e-05
-0.00018465
-7.82916e-05
-0.000190789
-9.1096e-05
-0.000197642
-0.000206151
-0.000107352
-1.70954e-06
-0.000155896
-3.50015e-06
-0.000158312
-5.34021e-06
-0.000158301
-7.25869e-06
-0.000158366
-9.27738e-06
-0.000158447
-1.14155e-05
-0.00015855
-1.36895e-05
-0.000158671
-1.61148e-05
-0.000158816
-1.87061e-05
-0.000158992
-2.14796e-05
-0.000159212
-2.44569e-05
-0.000159503
-2.76706e-05
-0.000159903
-3.11699e-05
-0.000160467
-3.50254e-05
-0.000161257
-3.93352e-05
-0.000162342
-4.42347e-05
-0.000163795
-4.99087e-05
-0.000165705
-5.65973e-05
-0.000168172
-6.4597e-05
-0.000171279
-7.42383e-05
-0.000175008
-8.58894e-05
-0.000179138
-0.000100112
-0.000183419
-0.000188355
-0.000117908
-1.73634e-06
-0.00015416
-3.54992e-06
-0.000156499
-5.41018e-06
-0.000156441
-7.34634e-06
-0.000156429
-9.37978e-06
-0.000156414
-1.1532e-05
-0.000156397
-1.38231e-05
-0.00015638
-1.62737e-05
-0.000156366
-1.89057e-05
-0.00015636
-2.17444e-05
-0.000156373
-2.48224e-05
-0.000156425
-2.81835e-05
-0.000156542
-3.1888e-05
-0.000156762
-3.60167e-05
-0.000157128
-4.0676e-05
-0.000157682
-4.60047e-05
-0.000158466
-5.21845e-05
-0.000159525
-5.94468e-05
-0.000160909
-6.8074e-05
-0.000162652
-7.83858e-05
-0.000164696
-9.07288e-05
-0.000166795
-0.000105588
-0.00016856
-0.000170113
-0.00012383
-1.73781e-06
-0.000152422
-3.54929e-06
-0.000154687
-5.40549e-06
-0.000154585
-7.33597e-06
-0.000154499
-9.36197e-06
-0.000154388
-1.15066e-05
-0.000154253
-1.37926e-05
-0.000154094
-1.62449e-05
-0.000153913
-1.88906e-05
-0.000153714
-2.17612e-05
-0.000153502
-2.48963e-05
-0.000153289
-2.83464e-05
-0.000153092
-3.21777e-05
-0.000152931
-3.64748e-05
-0.000152831
-4.13451e-05
-0.000152812
-4.69242e-05
-0.000152887
-5.33838e-05
-0.000153066
-6.0937e-05
-0.000153356
-6.98432e-05
-0.000153745
-8.03906e-05
-0.000154149
-9.28829e-05
-0.000154303
-0.000107702
-0.000153741
-0.000152308
-0.000125507
-1.71603e-06
-0.000150706
-3.50079e-06
-0.000152903
-5.3286e-06
-0.000152757
-7.22913e-06
-0.000152598
-9.22352e-06
-0.000152394
-1.13357e-05
-0.000152141
-1.35906e-05
-0.000151839
-1.60156e-05
-0.000151488
-1.86411e-05
-0.000151088
-2.15027e-05
-0.000150641
-2.46438e-05
-0.000150148
-2.81182e-05
-0.000149618
-3.19932e-05
-0.000149056
-3.63527e-05
-0.000148471
-4.13003e-05
-0.000147864
-4.69623e-05
-0.000147225
-5.34939e-05
-0.000146534
-6.10856e-05
-0.000145764
-6.99624e-05
-0.000144868
-8.0371e-05
-0.00014374
-9.25596e-05
-0.000142114
-0.000106801
-0.0001395
-0.000135568
-0.000123541
-1.67183e-06
-0.000149035
-3.40596e-06
-0.000151168
-5.18125e-06
-0.000150982
-7.02734e-06
-0.000150752
-8.96486e-06
-0.000150456
-1.1018e-05
-0.000150087
-1.32128e-05
-0.000149645
-1.5578e-05
-0.000149123
-1.81457e-05
-0.000148521
-2.09535e-05
-0.000147833
-2.4046e-05
-0.000147056
-2.7477e-05
-0.000146187
-3.13125e-05
-0.000145221
-3.56323e-05
-0.000144151
-4.05321e-05
-0.000142964
-4.6125e-05
-0.000141632
-5.2547e-05
-0.000140112
-5.99619e-05
-0.000138349
-6.85558e-05
-0.000136275
-7.85289e-05
-0.000133767
-9.00713e-05
-0.000130572
-0.000103348
-0.000126223
-0.000120285
-0.000118631
-1.60387e-06
-0.000147431
-3.26451e-06
-0.000149508
-4.96396e-06
-0.000149282
-6.73169e-06
-0.000148985
-8.58723e-06
-0.000148601
-1.05544e-05
-0.00014812
-1.26593e-05
-0.00014754
-1.49307e-05
-0.000146852
-1.74014e-05
-0.00014605
-2.01092e-05
-0.000145125
-2.30978e-05
-0.000144067
-2.64192e-05
-0.000142865
-3.01355e-05
-0.000141504
-3.43204e-05
-0.000139966
-3.90598e-05
-0.000138225
-4.44521e-05
-0.00013624
-5.06115e-05
-0.000133953
-5.7672e-05
-0.000131289
-6.5785e-05
-0.000128162
-7.5104e-05
-0.000124448
-8.57582e-05
-0.000119918
-9.78397e-05
-0.000114142
-0.000106655
-0.00011147
-1.50757e-06
-0.000145923
-3.07307e-06
-0.000147942
-4.67493e-06
-0.00014768
-6.34157e-06
-0.000147318
-8.09124e-06
-0.000146851
-9.94657e-06
-0.000146265
-1.19326e-05
-0.000145554
-1.40775e-05
-0.000144707
-1.64129e-05
-0.000143714
-1.89756e-05
-0.000142562
-2.18074e-05
-0.000141235
-2.49568e-05
-0.000139716
-2.84804e-05
-0.000137981
-3.24445e-05
-0.000136002
-3.69244e-05
-0.000133745
-4.20038e-05
-0.000131161
-4.77753e-05
-0.000128181
-5.43443e-05
-0.00012472
-6.18279e-05
-0.000120678
-7.03395e-05
-0.000115937
-7.99612e-05
-0.000110296
-9.07227e-05
-0.00010338
-9.47344e-05
-0.000102644
-1.37538e-06
-0.000144548
-2.82531e-06
-0.000146492
-4.3093e-06
-0.000146197
-5.85306e-06
-0.000145775
-7.47425e-06
-0.00014523
-9.19356e-06
-0.000144546
-1.10344e-05
-0.000143713
-1.30226e-05
-0.000142719
-1.51881e-05
-0.000141549
-1.75648e-05
-0.000140186
-2.01915e-05
-0.000138609
-2.31125e-05
-0.000136795
-2.63783e-05
-0.000134715
-3.00466e-05
-0.000132334
-3.41822e-05
-0.00012961
-3.88552e-05
-0.000126488
-4.41392e-05
-0.000122897
-5.01132e-05
-0.000118746
-5.6864e-05
-0.000113927
-6.44727e-05
-0.000108328
-7.29845e-05
-0.000101784
-8.23881e-05
-9.39767e-05
-8.44872e-05
-9.26353e-05
-1.2007e-06
-0.000143347
-2.5156e-06
-0.000145177
-3.86209e-06
-0.00014485
-5.26109e-06
-0.000144376
-6.73114e-06
-0.00014376
-8.29089e-06
-0.000142986
-9.96164e-06
-0.000142042
-1.17666e-05
-0.000140914
-1.37322e-05
-0.000139583
-1.58883e-05
-0.000138029
-1.82692e-05
-0.000136228
-2.09139e-05
-0.00013415
-2.38665e-05
-0.000131762
-2.71764e-05
-0.000129024
-3.08982e-05
-0.000125888
-3.50897e-05
-0.000122296
-3.98088e-05
-0.000118178
-4.5113e-05
-0.000113441
-5.10621e-05
-0.000107978
-5.77123e-05
-0.000101678
-6.50879e-05
-9.44089e-05
-7.31435e-05
-8.59212e-05
-7.58314e-05
-8.17994e-05
-9.8596e-07
-0.000142361
-2.14851e-06
-0.000144015
-3.33884e-06
-0.00014366
-4.57154e-06
-0.000143143
-5.86709e-06
-0.000142464
-7.24282e-06
-0.00014161
-8.7183e-06
-0.000140567
-1.03141e-05