/*--------------------------------*- C++ -*----------------------------------*\
| =========                 |                                                 |
| \\      /  F ield         | OpenFOAM: The Open Source CFD Toolbox           |
|  \\    /   O peration     | Version:  5.x                                   |
|   \\  /    A nd           | Web:      www.OpenFOAM.org                      |
|    \\/     M anipulation  |                                                 |
\*---------------------------------------------------------------------------*/
FoamFile
{
    version     2.0;
    format      ascii;
    class       volVectorField;
    location    "0.25";
    object      U;
}
// * * * * * * * * * * * * * * * * * * * * * * * * * * * * * * * * * * * * * //

dimensions      [0 1 -1 0 0 0 0];

internalField   nonuniform List<vector> 
2268
(
(-0.009814 -0.0010765 0)
(0.0223547 -0.0123503 0)
(0.0906069 -0.0166677 0)
(0.162506 -0.0162723 0)
(0.228324 -0.0142932 0)
(0.28535 -0.012489 0)
(0.335649 -0.0113629 0)
(0.382472 -0.0108135 0)
(0.427898 -0.0105576 0)
(0.472522 -0.0103183 0)
(0.515898 -0.0098902 0)
(0.556907 -0.00912705 0)
(0.593865 -0.00792877 0)
(0.624719 -0.00604832 0)
(0.645578 -0.00340028 0)
(0.654259 0.0027972 0)
(0.632116 0.0145601 0)
(0.562353 0.0330577 0)
(0.425171 0.05538 0)
(0.21167 0.0693512 0)
(-0.0648825 0.0384288 0)
(-0.273238 -0.0508195 0)
(-0.0804701 -0.109492 0)
(-0.00944249 -0.00354639 0)
(0.0235598 -0.0373136 0)
(0.0921044 -0.0502171 0)
(0.163914 -0.0490571 0)
(0.22944 -0.0431643 0)
(0.286317 -0.0377876 0)
(0.336747 -0.0344498 0)
(0.383925 -0.0328405 0)
(0.429842 -0.0321002 0)
(0.475029 -0.0314012 0)
(0.519019 -0.0301365 0)
(0.560694 -0.0278846 0)
(0.598486 -0.0243039 0)
(0.630202 -0.0188986 0)
(0.654202 -0.0109987 0)
(0.665314 0.00203869 0)
(0.6727 0.0238223 0)
(0.674701 0.058068 0)
(0.6522 0.106523 0)
(0.552978 0.160018 0)
(0.332073 0.166176 0)
(-0.0185718 0.0894071 0)
(0.0759116 -0.122871 0)
(-0.00873303 -0.00641909 0)
(0.025429 -0.0623481 0)
(0.0939207 -0.0835676 0)
(0.164987 -0.0814887 0)
(0.229446 -0.0716799 0)
(0.285538 -0.0628357 0)
(0.335726 -0.0574372 0)
(0.383121 -0.0548962 0)
(0.429539 -0.0537465 0)
(0.475379 -0.0526251 0)
(0.520111 -0.0505515 0)
(0.56263 -0.0468548 0)
(0.601415 -0.0409657 0)
(0.634565 -0.0322481 0)
(0.659776 -0.0196352 0)
(0.674407 -0.00242023 0)
(0.675456 0.0223389 0)
(0.663414 0.0602186 0)
(0.650841 0.119678 0)
(0.637785 0.202578 0)
(0.571719 0.256884 0)
(0.314525 0.180497 0)
(0.194947 -0.0470773 0)
(-0.00765887 -0.0099422 0)
(0.028205 -0.0876893 0)
(0.096527 -0.116721 0)
(0.166481 -0.113408 0)
(0.229459 -0.0997162 0)
(0.284532 -0.0876465 0)
(0.334486 -0.0804633 0)
(0.382295 -0.0771994 0)
(0.42951 -0.0757624 0)
(0.476341 -0.0742849 0)
(0.522181 -0.0714563 0)
(0.565948 -0.0663864 0)
(0.606215 -0.0583348 0)
(0.641227 -0.0464704 0)
(0.668919 -0.0296769 0)
(0.686894 -0.00635487 0)
(0.692614 0.025627 0)
(0.682592 0.069344 0)
(0.658761 0.128854 0)
(0.635501 0.212867 0)
(0.632535 0.300243 0)
(0.481005 0.281363 0)
(0.280611 0.093642 0)
(-0.00619928 -0.0144284 0)
(0.0317746 -0.113441 0)
(0.0997142 -0.149491 0)
(0.168129 -0.144533 0)
(0.22925 -0.127075 0)
(0.28314 -0.112162 0)
(0.332915 -0.103577 0)
(0.381325 -0.0998542 0)
(0.429574 -0.0982753 0)
(0.477644 -0.09652 0)
(0.524853 -0.0930043 0)
(0.570162 -0.0866611 0)
(0.612267 -0.0766054 0)
(0.649604 -0.0618591 0)
(0.68035 -0.0411246 0)
(0.702379 -0.0126192 0)
(0.713397 0.0258741 0)
(0.710295 0.0769549 0)
(0.691387 0.141749 0)
(0.650698 0.221627 0)
(0.630897 0.321866 0)
(0.533768 0.372402 0)
(0.328752 0.277474 0)
(-0.00431928 -0.0202419 0)
(0.0359579 -0.139588 0)
(0.103264 -0.181689 0)
(0.169717 -0.174654 0)
(0.228679 -0.153619 0)
(0.281321 -0.136358 0)
(0.331028 -0.126843 0)
(0.380216 -0.122971 0)
(0.429673 -0.121411 0)
(0.479142 -0.11947 0)
(0.527885 -0.115364 0)
(0.574935 -0.107901 0)
(0.619151 -0.0960868 0)
(0.659185 -0.0788168 0)
(0.693453 -0.0546325 0)
(0.720046 -0.0215733 0)
(0.736804 0.0228386 0)
(0.740501 0.0808536 0)
(0.72976 0.154313 0)
(0.691995 0.239803 0)
(0.643559 0.347076 0)
(0.551547 0.456608 0)
(0.351746 0.479534 0)
(-0.00202569 -0.027422 0)
(0.0405615 -0.166118 0)
(0.106973 -0.213302 0)
(0.171094 -0.203797 0)
(0.2277 -0.179396 0)
(0.279131 -0.160273 0)
(0.328926 -0.150277 0)
(0.379045 -0.146531 0)
(0.429821 -0.145119 0)
(0.480765 -0.143052 0)
(0.53112 -0.138427 0)
(0.580046 -0.129983 0)
(0.626609 -0.116651 0)
(0.669687 -0.0972182 0)
(0.707889 -0.0700972 0)
(0.739499 -0.0331807 0)
(0.762416 0.0162487 0)
(0.773566 0.0806304 0)
(0.770473 0.162646 0)
(0.744944 0.260411 0)
(0.689395 0.381595 0)
(0.589274 0.532422 0)
(0.399585 0.682282 0)
(0.000584255 -0.0360397 0)
(0.0453534 -0.19319 0)
(0.110603 -0.244285 0)
(0.172166 -0.231965 0)
(0.226419 -0.204519 0)
(0.276792 -0.184045 0)
(0.326844 -0.173962 0)
(0.377998 -0.170548 0)
(0.430127 -0.169352 0)
(0.48256 -0.167165 0)
(0.53459 -0.162032 0)
(0.585581 -0.152669 0)
(0.63484 -0.137945 0)
(0.681419 -0.116534 0)
(0.724046 -0.0866977 0)
(0.761162 -0.0462085 0)
(0.790639 0.00775372 0)
(0.809707 0.078245 0)
(0.81491 0.167776 0)
(0.803264 0.277456 0)
(0.758205 0.418085 0)
(0.672674 0.610989 0)
(0.392247 0.946742 0)
(0.0380358 -0.0179996 0)
(0.105088 -0.0103056 0)
(0.136133 -0.004273 0)
(0.15363 -0.00274819 0)
(0.16866 -0.00179723 0)
(0.177864 -0.00105999 0)
(0.183451 -0.000488185 0)
(0.186518 -5.70137e-05 0)
(0.187229 0.000341586 0)
(0.185348 0.000856614 0)
(0.180252 0.00158402 0)
(0.171143 0.00234883 0)
(0.158144 0.00310593 0)
(0.1413 0.00380803 0)
(0.120837 0.00450168 0)
(0.0973497 0.00504034 0)
(0.0713031 0.00547925 0)
(0.0434637 0.00578514 0)
(0.0145434 0.00599707 0)
(0.0263164 -0.0464315 0)
(0.095125 -0.0301357 0)
(0.12925 -0.0159769 0)
(0.152416 -0.0117078 0)
(0.171895 -0.00767543 0)
(0.183462 -0.00480925 0)
(0.190899 -0.00292572 0)
(0.195827 -0.0014489 0)
(0.19819 5.16616e-05 0)
(0.19762 0.00192201 0)
(0.19365 0.00427436 0)
(0.185724 0.00684361 0)
(0.17334 0.00948813 0)
(0.1562 0.0120041 0)
(0.134579 0.0143762 0)
(0.109009 0.0163173 0)
(0.0801919 0.0178551 0)
(0.0489987 0.0189049 0)
(0.016337 0.0192892 0)
(0.0321047 -0.0733512 0)
(0.104907 -0.0514443 0)
(0.13631 -0.0280717 0)
(0.156156 -0.0212184 0)
(0.174403 -0.0136451 0)
(0.18479 -0.0084437 0)
(0.191426 -0.00530167 0)
(0.195927 -0.0028893 0)
(0.198181 -0.000368396 0)
(0.197721 0.00284922 0)
(0.193791 0.00677849 0)
(0.185673 0.0111836 0)
(0.173069 0.0158281 0)
(0.155791 0.0203146 0)
(0.134084 0.0244636 0)
(0.108519 0.0279476 0)
(0.0797909 0.0306865 0)
(0.0487362 0.0325261 0)
(0.0162377 0.0332383 0)
(0.0407073 -0.105617 0)
(0.114365 -0.0716442 0)
(0.142168 -0.037499 0)
(0.159134 -0.0296633 0)
(0.177427 -0.0188275 0)
(0.186711 -0.0114939 0)
(0.192543 -0.00732773 0)
(0.196834 -0.00418981 0)
(0.199264 -0.000799218 0)
(0.199141 0.00370632 0)
(0.195482 0.00923597 0)
(0.187455 0.0155584 0)
(0.174774 0.0222151 0)
(0.157309 0.0286678 0)
(0.135346 0.0345739 0)
(0.109492 0.039586 0)
(0.0804737 0.0435079 0)
(0.0491385 0.0461357 0)
(0.0163765 0.0471509 0)
(0.0524728 -0.15494 0)
(0.12717 -0.0922992 0)
(0.148152 -0.0458639 0)
(0.161658 -0.0390036 0)
(0.181315 -0.0236859 0)
(0.18924 -0.013948 0)
(0.193965 -0.00914118 0)
(0.198081 -0.00558455 0)
(0.200903 -0.00145811 0)
(0.201346 0.0043294 0)
(0.19818 0.0115701 0)
(0.19047 0.0199224 0)
(0.177837 0.0286334 0)
(0.160187 0.0371203 0)
(0.137877 0.0448278 0)
(0.111553 0.0513877 0)
(0.0819819 0.0564831 0)
(0.0500556 0.0599206 0)
(0.0166875 0.0612362 0)
(0.0643801 -0.196118 0)
(0.158298 -0.108086 0)
(0.156346 -0.0492757 0)
(0.161442 -0.0496529 0)
(0.185005 -0.02794 0)
(0.191741 -0.0154698 0)
(0.195243 -0.0106462 0)
(0.199326 -0.00711012 0)
(0.202828 -0.00238332 0)
(0.204157 0.00466161 0)
(0.201698 0.0137276 0)
(0.194383 0.0242012 0)
(0.18182 0.0350906 0)
(0.163964 0.0456876 0)
(0.141205 0.0553103 0)
(0.11427 0.0634418 0)
(0.0839781 0.0697438 0)
(0.0512769 0.074015 0)
(0.0170982 0.075633 0)
(0.0490111 -0.190579 0)
(0.187684 -0.124274 0)
(0.160598 -0.0373799 0)
(0.155613 -0.0610185 0)
(0.188382 -0.0324707 0)
(0.193778 -0.0164608 0)
(0.195988 -0.0120589 0)
(0.200367 -0.00901047 0)
(0.204913 -0.00374794 0)
(0.207472 0.00458138 0)
(0.20599 0.015582 0)
(0.199206 0.0283268 0)
(0.186717 0.041602 0)
(0.168596 0.0544435 0)
(0.145277 0.0660475 0)
(0.117576 0.0758176 0)
(0.0864075 0.083374 0)
(0.0527607 0.0884883 0)
(0.0175943 0.0904253 0)
(0.0426416 -0.328246 0)
(0.0795154 -0.142414 0)
(0.144029 -0.0372212 0)
(0.14502 -0.0879903 0)
(0.195724 -0.0373628 0)
(0.197368 -0.0160513 0)
(0.196926 -0.0129256 0)
(0.201607 -0.011069 0)
(0.207441 -0.00564714 0)
(0.211441 0.00399764 0)
(0.211153 0.0170594 0)
(0.205021 0.0322544 0)
(0.192614 0.0480975 0)
(0.174123 0.0633491 0)
(0.150109 0.0770211 0)
(0.12149 0.0885149 0)
(0.0892693 0.0973655 0)
(0.0545079 0.10335 0)
(0.0181814 0.10562 0)
(0.00482126 -0.0537514 0)
(0.0526805 -0.236595 0)
(0.115697 -0.29049 0)
(0.173192 -0.273133 0)
(0.224215 -0.242205 0)
(0.273492 -0.221186 0)
(0.324267 -0.212003 0)
(0.37711 -0.209606 0)
(0.431338 -0.20898 0)
(0.486179 -0.206836 0)
(0.541173 -0.201337 0)
(0.596026 -0.19121 0)
(0.650238 -0.175193 0)
(0.702903 -0.151793 0)
(0.753116 -0.118963 0)
(0.800029 -0.0741294 0)
(0.841878 -0.0137932 0)
(0.875349 0.0659518 0)
(0.895723 0.166975 0)
(0.907576 0.293331 0)
(0.895813 0.459481 0)
(0.941697 0.653409 0)
(0.922589 1.10487 0)
(0.0106598 -0.0833074 0)
(0.0624741 -0.296125 0)
(0.122113 -0.349628 0)
(0.174025 -0.324948 0)
(0.221283 -0.291232 0)
(0.26987 -0.271625 0)
(0.322083 -0.265028 0)
(0.377339 -0.264684 0)
(0.434466 -0.265271 0)
(0.492778 -0.263827 0)
(0.552213 -0.258933 0)
(0.61261 -0.24924 0)
(0.673162 -0.233031 0)
(0.733054 -0.208557 0)
(0.792755 -0.173445 0)
(0.853818 -0.125047 0)
(0.916206 -0.0591392 0)
(0.974495 0.0247863 0)
(1.02383 0.130383 0)
(1.06882 0.257274 0)
(1.09915 0.412374 0)
(1.17044 0.573554 0)
(1.26193 0.826082 0)
(0.0167746 -0.121251 0)
(0.071584 -0.355705 0)
(0.127079 -0.402843 0)
(0.173475 -0.371318 0)
(0.217989 -0.338163 0)
(0.266829 -0.32278 0)
(0.320686 -0.320236 0)
(0.377878 -0.322659 0)
(0.436951 -0.325201 0)
(0.497342 -0.325563 0)
(0.558987 -0.322603 0)
(0.621318 -0.313993 0)
(0.683213 -0.296996 0)
(0.747009 -0.27139 0)
(0.816301 -0.235551 0)
(0.894512 -0.189668 0)
(0.978292 -0.122192 0)
(1.06106 -0.0231252 0)
(1.13728 0.114326 0)
(1.19895 0.271973 0)
(1.24962 0.424275 0)
(1.30956 0.555202 0)
(1.39574 0.660321 0)
(0.0228565 -0.166694 0)
(0.0794984 -0.414497 0)
(0.129891 -0.450827 0)
(0.171257 -0.414275 0)
(0.214085 -0.384907 0)
(0.263268 -0.375438 0)
(0.317463 -0.377238 0)
(0.373959 -0.382216 0)
(0.43121 -0.386363 0)
(0.488732 -0.387598 0)
(0.546632 -0.384684 0)
(0.606076 -0.374218 0)
(0.668606 -0.356491 0)
(0.746542 -0.341051 0)
(0.843558 -0.323797 0)
(0.956149 -0.307726 0)
(1.07525 -0.266837 0)
(1.18724 -0.186837 0)
(1.27496 -0.0744902 0)
(1.32792 0.063633 0)
(1.36392 0.215398 0)
(1.40198 0.37682 0)
(1.46693 0.515691 0)
(0.0290908 -0.219315 0)
(0.0858077 -0.471522 0)
(0.128738 -0.493672 0)
(0.165009 -0.454674 0)
(0.206066 -0.431484 0)
(0.253662 -0.427818 0)
(0.304505 -0.432179 0)
(0.35563 -0.437321 0)
(0.406802 -0.440519 0)
(0.458943 -0.440068 0)
(0.516045 -0.438078 0)
(0.585386 -0.434466 0)
(0.675017 -0.441297 0)
(0.80761 -0.475947 0)
(0.967287 -0.495932 0)
(1.12782 -0.487584 0)
(1.26255 -0.40949 0)
(1.35781 -0.264247 0)
(1.41226 -0.0215293 0)
(1.41783 0.172697 0)
(1.42199 0.295329 0)
(1.43748 0.389964 0)
(1.47586 0.471471 0)
(0.0354073 -0.278948 0)
(0.0909517 -0.521756 0)
(0.121691 -0.527683 0)
(0.151902 -0.490233 0)
(0.19029 -0.474349 0)
(0.2344 -0.474368 0)
(0.28071 -0.478752 0)
(0.328789 -0.483547 0)
(0.383808 -0.489056 0)
(0.450473 -0.497665 0)
(0.541506 -0.517856 0)
(0.675031 -0.555214 0)
(0.841836 -0.60832 0)
(1.07928 -0.696451 0)
(1.3453 -0.680506 0)
(1.53738 -0.600554 0)
(1.55587 -0.42696 0)
(1.47751 -0.233382 0)
(1.5217 -0.00840668 0)
(1.61603 0.212658 0)
(1.65926 0.351304 0)
(1.61617 0.420487 0)
(1.53983 0.46235 0)
(0.0447783 -0.348361 0)
(0.102536 -0.557998 0)
(0.113272 -0.548712 0)
(0.137454 -0.521163 0)
(0.177463 -0.514743 0)
(0.225578 -0.518886 0)
(0.281247 -0.528568 0)
(0.350784 -0.544896 0)
(0.450393 -0.573569 0)
(0.58175 -0.616914 0)
(0.770441 -0.691786 0)
(1.11529 -0.795882 0)
(1.37785 -0.857881 0)
(1.54245 -0.918673 0)
(1.57916 -0.703735 0)
(1.57375 -0.537828 0)
(1.44174 -0.299474 0)
(1.33027 -0.175265 0)
(1.43306 -0.234583 0)
(1.73348 -0.111501 0)
(2.08833 0.258468 0)
(2.19075 0.543877 0)
(2.09018 0.60974 0)
(0.0623717 -0.42891 0)
(0.133954 -0.592831 0)
(0.12396 -0.564848 0)
(0.150942 -0.559628 0)
(0.212245 -0.571001 0)
(0.288524 -0.588714 0)
(0.384765 -0.617784 0)
(0.521703 -0.668592 0)
(0.742956 -0.763776 0)
(0.954629 -0.834206 0)
(1.15953 -0.998132 0)
(1.31696 -1.00257 0)
(1.48946 -0.966123 0)
(1.61567 -0.925073 0)
(1.65843 -0.752199 0)
(1.57295 -0.454457 0)
(1.38931 -0.184035 0)
(1.33073 -0.249666 0)
(1.41622 -0.494808 0)
(1.54185 -0.476488 0)
(1.78186 -0.158807 0)
(2.07863 0.345058 0)
(2.19505 0.682143 0)
(0.0680548 -0.538301 0)
(0.176429 -0.653561 0)
(0.190462 -0.581969 0)
(0.247351 -0.620625 0)
(0.365596 -0.68222 0)
(0.482099 -0.710611 0)
(0.60527 -0.759369 0)
(0.71623 -0.85807 0)
(0.835832 -0.930511 0)
(0.99533 -0.966938 0)
(1.17968 -1.09669 0)
(1.35308 -1.16887 0)
(1.49784 -1.1571 0)
(1.59452 -1.02747 0)
(1.62606 -0.747013 0)
(1.53757 -0.314506 0)
(1.37537 -0.0525401 0)
(1.32518 -0.320118 0)
(1.3356 -0.492734 0)
(1.33088 -0.470243 0)
(1.36092 -0.223964 0)
(1.49297 0.194322 0)
(1.66037 0.565633 0)
(0.00755557 -0.703385 0)
(0.0965557 -0.676467 0)
(0.219378 -0.629005 0)
(0.279275 -0.697407 0)
(0.331951 -0.752 0)
(0.40675 -0.77165 0)
(0.500997 -0.835436 0)
(0.602288 -0.93297 0)
(0.722453 -1.05649 0)
(0.86677 -1.19366 0)
(1.03581 -1.30294 0)
(1.18752 -1.34941 0)
(1.28996 -1.28942 0)
(1.35255 -1.0968 0)
(1.35326 -0.725288 0)
(1.28572 -0.194227 0)
(1.21492 -0.00226995 0)
(1.19295 -0.264982 0)
(1.17273 -0.446625 0)
(1.11187 -0.425256 0)
(1.04392 -0.215555 0)
(0.987649 0.124504 0)
(1.09431 0.360235 0)
(-0.00946971 -0.680167 0)
(0.0297718 -0.710213 0)
(0.123994 -0.738077 0)
(0.205025 -0.773401 0)
(0.265504 -0.818901 0)
(0.325209 -0.872267 0)
(0.391611 -0.946629 0)
(0.469698 -1.05418 0)
(0.572217 -1.20286 0)
(0.68349 -1.3563 0)
(0.820119 -1.43687 0)
(0.903357 -1.45814 0)
(0.93509 -1.35671 0)
(0.962535 -1.097 0)
(0.90923 -0.651131 0)
(0.842483 -0.112266 0)
(0.912246 -0.0603662 0)
(0.961166 -0.283553 0)
(0.946753 -0.408183 0)
(0.88037 -0.327376 0)
(0.75044 -0.0865104 0)
(0.707553 0.0912779 0)
(0.84349 0.169079 0)
(0.0111208 -0.697864 0)
(0.0511769 -0.854804 0)
(0.106484 -0.827228 0)
(0.160534 -0.836271 0)
(0.207609 -0.876093 0)
(0.252914 -0.931479 0)
(0.296509 -1.00728 0)
(0.348503 -1.1256 0)
(0.410701 -1.29205 0)
(0.462106 -1.45149 0)
(0.534422 -1.50839 0)
(0.548031 -1.49768 0)
(0.488469 -1.35189 0)
(0.506388 -1.02021 0)
(0.407013 -0.498495 0)
(0.444316 -0.157837 0)
(0.607028 -0.213003 0)
(0.682294 -0.336438 0)
(0.656342 -0.334256 0)
(0.567729 -0.18029 0)
(0.523076 -0.0403806 0)
(0.632383 -0.0114779 0)
(0.840745 -0.0301435 0)
(0.0317001 -0.737763 0)
(0.0622837 -0.884419 0)
(0.0845745 -0.859088 0)
(0.121655 -0.873553 0)
(0.155774 -0.912884 0)
(0.184567 -0.964644 0)
(0.206303 -1.03843 0)
(0.226397 -1.15906 0)
(0.233149 -1.32568 0)
(0.21723 -1.47272 0)
(0.210009 -1.51389 0)
(0.170258 -1.4592 0)
(0.0725615 -1.30236 0)
(0.0514933 -0.938039 0)
(0.0303111 -0.496102 0)
(0.218723 -0.375574 0)
(0.318833 -0.376084 0)
(0.358472 -0.324509 0)
(0.290985 -0.213503 0)
(0.315319 -0.156782 0)
(0.450962 -0.178503 0)
(0.644184 -0.2328 0)
(0.8678 -0.288687 0)
(0.0317311 -0.786158 0)
(0.052925 -0.90196 0)
(0.0634037 -0.882809 0)
(0.090008 -0.901997 0)
(0.11152 -0.936325 0)
(0.124831 -0.97986 0)
(0.12842 -1.04261 0)
(0.117895 -1.14814 0)
(0.0766467 -1.29453 0)
(0.00521223 -1.41987 0)
(-0.0749063 -1.45517 0)
(-0.153211 -1.38554 0)
(-0.262567 -1.22641 0)
(-0.299621 -0.911863 0)
(-0.176533 -0.583886 0)
(-0.104745 -0.492675 0)
(-0.0475346 -0.386539 0)
(-0.00788142 -0.237304 0)
(0.089124 -0.28382 0)
(0.269635 -0.343667 0)
(0.44833 -0.390732 0)
(0.629351 -0.446972 0)
(0.827782 -0.516076 0)
(0.0246384 -0.827328 0)
(0.0402563 -0.910221 0)
(0.0464094 -0.900772 0)
(0.0640581 -0.919442 0)
(0.0753109 -0.946828 0)
(0.0782761 -0.980314 0)
(0.0711701 -1.02618 0)
(0.0434862 -1.10551 0)
(-0.0218502 -1.2181 0)
(-0.125335 -1.31604 0)
(-0.248534 -1.34469 0)
(-0.367528 -1.28469 0)
(-0.470099 -1.13871 0)
(-0.513391 -0.918903 0)
(-0.451347 -0.680877 0)
(-0.382979 -0.528323 0)
(-0.268916 -0.464602 0)
(-0.0747343 -0.445545 0)
(0.099553 -0.502251 0)
(0.257075 -0.520318 0)
(0.414962 -0.558228 0)
(0.5746 -0.619814 0)
(0.746436 -0.706674 0)
(0.0168073 -0.857557 0)
(0.0282666 -0.913425 0)
(0.0322245 -0.91229 0)
(0.0425125 -0.928557 0)
(0.0472281 -0.949897 0)
(0.0452057 -0.974398 0)
(0.0348539 -1.00417 0)
(0.00742642 -1.05435 0)
(-0.0554058 -1.12874 0)
(-0.157108 -1.19754 0)
(-0.278523 -1.22006 0)
(-0.394201 -1.1778 0)
(-0.474236 -1.07658 0)
(-0.496659 -0.939659 0)
(-0.44497 -0.798799 0)
(-0.325752 -0.706275 0)
(-0.178759 -0.660737 0)
(-0.0366282 -0.647125 0)
(0.0930703 -0.640171 0)
(0.227621 -0.661605 0)
(0.366417 -0.706119 0)
(0.508091 -0.773701 0)
(0.658567 -0.875195 0)
(0.0102499 -0.877487 0)
(0.0179712 -0.915743 0)
(0.0205783 -0.919325 0)
(0.0254281 -0.932529 0)
(0.0261238 -0.949211 0)
(0.0218965 -0.967403 0)
(0.0128513 -0.986307 0)
(-0.00617159 -1.0136 0)
(-0.0499711 -1.0572 0)
(-0.122967 -1.10189 0)
(-0.210691 -1.12162 0)
(-0.292004 -1.10236 0)
(-0.343354 -1.04469 0)
(-0.343912 -0.961557 0)
(-0.292778 -0.878627 0)
(-0.211892 -0.818639 0)
(-0.122656 -0.778731 0)
(-0.0291445 -0.753861 0)
(0.0758916 -0.757921 0)
(0.190873 -0.788495 0)
(0.309953 -0.836084 0)
(0.432929 -0.908434 0)
(0.56261 -1.02001 0)
(0.00567743 -0.889036 0)
(0.00986442 -0.917236 0)
(0.0109003 -0.922463 0)
(0.0119582 -0.933029 0)
(0.0099421 -0.946236 0)
(0.00438985 -0.960623 0)
(-0.0036733 -0.974243 0)
(-0.0157869 -0.989909 0)
(-0.0405892 -1.01392 0)
(-0.0834986 -1.04199 0)
(-0.13744 -1.05885 0)
(-0.188214 -1.05251 0)
(-0.221449 -1.02214 0)
(-0.227326 -0.975439 0)
(-0.204854 -0.923735 0)
(-0.160991 -0.878603 0)
(-0.10293 -0.848859 0)
(-0.0306196 -0.841111 0)
(0.0553534 -0.857968 0)
(0.147799 -0.893241 0)
(0.246051 -0.94588 0)
(0.349381 -1.02287 0)
(0.458359 -1.13999 0)
(0.0026469 -0.894563 0)
(0.00373942 -0.91751 0)
(0.00294226 -0.922539 0)
(0.00123692 -0.930965 0)
(-0.00276531 -0.941454 0)
(-0.00952568 -0.953187 0)
(-0.0182426 -0.964657 0)
(-0.02848 -0.976041 0)
(-0.0438022 -0.99026 0)
(-0.0691179 -1.00689 0)
(-0.102996 -1.01857 0)
(-0.137445 -1.01737 0)
(-0.162908 -1.00099 0)
(-0.172178 -0.973084 0)
(-0.163164 -0.941769 0)
(-0.137057 -0.916267 0)
(-0.0945959 -0.904342 0)
(-0.0381264 -0.910719 0)
(0.0270642 -0.93545 0)
(0.0981891 -0.97702 0)
(0.17576 -1.03504 0)
(0.258364 -1.11653 0)
(0.344872 -1.23695 0)
(0.000610194 -0.895989 0)
(-0.000882379 -0.915999 0)
(-0.00348711 -0.920255 0)
(-0.00727389 -0.926935 0)
(-0.0128329 -0.93522 0)
(-0.0206112 -0.944656 0)
(-0.0304116 -0.954465 0)
(-0.0416098 -0.964085 0)
(-0.055057 -0.973882 0)
(-0.0733025 -0.983766 0)
(-0.0966166 -0.990819 0)
(-0.120727 -0.990688 0)
(-0.139565 -0.981986 0)
(-0.14828 -0.967745 0)
(-0.144138 -0.953229 0)
(-0.126219 -0.944076 0)
(-0.0954901 -0.945696 0)
(-0.0550637 -0.961817 0)
(-0.00856875 -0.993471 0)
(0.0434337 -1.04042 0)
(0.1004 -1.10302 0)
(0.160798 -1.18779 0)
(0.221794 -1.30894 0)
(-0.000751296 -0.894441 0)
(-0.00436404 -0.912755 0)
(-0.00865171 -0.916081 0)
(-0.0140041 -0.921388 0)
(-0.0207699 -0.927904 0)
(-0.0292659 -0.935321 0)
(-0.0396201 -0.943263 0)
(-0.051683 -0.951293 0)
(-0.0654018 -0.958975 0)
(-0.0812469 -0.965843 0)
(-0.0992192 -0.970831 0)
(-0.117157 -0.972262 0)
(-0.131254 -0.969515 0)
(-0.138289 -0.964523 0)
(-0.136542 -0.96103 0)
(-0.125479 -0.962928 0)
(-0.105932 -0.973821 0)
(-0.0799078 -0.996809 0)
(-0.0492391 -1.03375 0)
(-0.0149037 -1.08457 0)
(0.0218617 -1.15015 0)
(0.0606905 -1.23543 0)
(0.0969258 -1.35428 0)
(-0.00172114 -0.890798 0)
(-0.00701707 -0.907889 0)
(-0.0127354 -0.910425 0)
(-0.0193172 -0.914627 0)
(-0.027028 -0.919777 0)
(-0.0360571 -0.925613 0)
(-0.0465303 -0.931875 0)
(-0.0585307 -0.938336 0)
(-0.071982 -0.944659 0)
(-0.0866366 -0.950375 0)
(-0.102009 -0.954931 0)
(-0.11679 -0.957761 0)
(-0.128751 -0.959046 0)
(-0.135893 -0.960423 0)
(-0.137309 -0.964346 0)
(-0.13297 -0.973317 0)
(-0.123474 -0.990113 0)
(-0.109899 -1.01761 0)
(-0.0935335 -1.05777 0)
(-0.0756762 -1.11086 0)
(-0.0571641 -1.17705 0)
(-0.0387233 -1.26074 0)
(-0.0256925 -1.37487 0)
(-0.00245655 -0.885535 0)
(-0.00907553 -0.901696 0)
(-0.01595 -0.903597 0)
(-0.0235158 -0.906904 0)
(-0.0319928 -0.910986 0)
(-0.0415041 -0.91564 0)
(-0.0520988 -0.920654 0)
(-0.0638336 -0.925869 0)
(-0.0767161 -0.931107 0)
(-0.0905132 -0.936108 0)
(-0.104667 -0.940667 0)
(-0.118226 -0.944814 0)
(-0.129903 -0.94901 0)
(-0.138631 -0.954378 0)
(-0.143999 -0.962612 0)
(-0.146115 -0.975714 0)
(-0.14543 -0.995987 0)
(-0.14276 -1.02586 0)
(-0.139328 -1.06717 0)
(-0.136511 -1.12023 0)
(-0.134997 -1.18495 0)
(-0.135658 -1.26546 0)
(-0.144105 -1.3731 0)
(-0.00302912 -0.879036 0)
(-0.0106814 -0.894427 0)
(-0.0184785 -0.895828 0)
(-0.0268308 -0.898405 0)
(-0.0359389 -0.901618 0)
(-0.0458981 -0.905328 0)
(-0.0567466 -0.909385 0)
(-0.0684919 -0.91366 0)
(-0.0811221 -0.918058 0)
(-0.0944859 -0.92253 0)
(-0.108185 -0.927112 0)
(-0.121609 -0.932016 0)
(-0.134082 -0.937761 0)
(-0.145094 -0.945267 0)
(-0.154481 -0.955804 0)
(-0.162436 -0.970955 0)
(-0.169476 -0.992622 0)
(-0.176455 -1.02283 0)
(-0.184638 -1.06319 0)
(-0.195437 -1.11409 0)
(-0.209551 -1.17529 0)
(-0.228061 -1.25025 0)
(-0.256565 -1.34973 0)
(-0.00348155 -0.871575 0)
(-0.0119236 -0.886319 0)
(-0.0204476 -0.887312 0)
(-0.0294206 -0.889282 0)
(-0.0390458 -0.89176 0)
(-0.0493964 -0.89466 0)
(-0.0605309 -0.89789 0)
(-0.0724581 -0.901382 0)
(-0.0851496 -0.905097 0)
(-0.098507 -0.909065 0)
(-0.112328 -0.913437 0)
(-0.126301 -0.918524 0)
(-0.140097 -0.924844 0)
(-0.153527 -0.933145 0)
(-0.166647 -0.944415 0)
(-0.179794 -0.959907 0)
(-0.193605 -0.981147 0)
(-0.209032 -1.0098 0)
(-0.227409 -1.04728 0)
(-0.250249 -1.09396 0)
(-0.27848 -1.14943 0)
(-0.3136 -1.21628 0)
(-0.361531 -1.30458 0)
(-0.00383619 -0.863379 0)
(-0.0128572 -0.877568 0)
(-0.0219411 -0.878215 0)
(-0.0313924 -0.879663 0)
(-0.0414304 -0.881498 0)
(-0.0521111 -0.883678 0)
(-0.063508 -0.886152 0)
(-0.0756581 -0.8889 0)
(-0.0885718 -0.891928 0)
(-0.102211 -0.895299 0)
(-0.116491 -0.899193 0)
(-0.131308 -0.903945 0)
(-0.146589 -0.910039 0)
(-0.162368 -0.918094 0)
(-0.178866 -0.928877 0)
(-0.196549 -0.943345 0)
(-0.216163 -0.962686 0)
(-0.238759 -0.988235 0)
(-0.265748 -1.02115 0)
(-0.298761 -1.06175 0)
(-0.339055 -1.10938 0)
(-0.388588 -1.16549 0)
(-0.453506 -1.23855 0)
(-0.00410443 -0.85464 0)
(-0.0135196 -0.868339 0)
(-0.0230129 -0.868681 0)
(-0.0328152 -0.869663 0)
(-0.0431629 -0.870913 0)
(-0.0541089 -0.872426 0)
(-0.0657397 -0.874174 0)
(-0.0781199 -0.876163 0)
(-0.0913043 -0.878426 0)
(-0.105324 -0.881047 0)
(-0.120188 -0.8842 0)
(-0.135925 -0.88818 0)
(-0.152631 -0.893406 0)
(-0.170513 -0.900385 0)
(-0.189922 -0.909705 0)
(-0.211411 -0.922075 0)
(-0.235792 -0.938371 0)
(-0.264185 -0.959598 0)
(-0.298054 -0.986641 0)
(-0.339116 -1.01967 0)
(-0.388893 -1.0578 0)
(-0.449567 -1.10123 0)
(-0.526937 -1.15615 0)
(-0.00429183 -0.845531 0)
(-0.0139387 -0.85878 0)
(-0.0236983 -0.858846 0)
(-0.0337306 -0.859395 0)
(-0.0442797 -0.860094 0)
(-0.0554097 -0.860959 0)
(-0.067218 -0.86198 0)
(-0.079796 -0.863176 0)
(-0.0932305 -0.864588 0)
(-0.10761 -0.866299 0)
(-0.123027 -0.868459 0)
(-0.139606 -0.871309 0)
(-0.157547 -0.875175 0)
(-0.177163 -0.880453 0)
(-0.198901 -0.887582 0)
(-0.223375 -0.897052 0)
(-0.251426 -0.909457 0)
(-0.284185 -0.925486 0)
(-0.323122 -0.94573 0)
(-0.369991 -0.970182 0)
(-0.426493 -0.997729 0)
(-0.494832 -1.02748 0)
(-0.580139 -1.06322 0)
(-0.00440294 -0.836208 0)
(-0.014138 -0.849031 0)
(-0.0240232 -0.848839 0)
(-0.0341632 -0.848974 0)
(-0.0447981 -0.849141 0)
(-0.0560101 -0.849365 0)
(-0.067903 -0.849644 0)
(-0.0805933 -0.849999 0)
(-0.0941964 -0.850471 0)
(-0.108844 -0.851126 0)
(-0.124684 -0.85208 0)
(-0.141912 -0.853511 0)
(-0.160794 -0.855658 0)
(-0.181701 -0.858802 0)
(-0.205131 -0.863239 0)
(-0.231726 -0.869271 0)
(-0.262327 -0.877245 0)
(-0.298036 -0.887559 0)
(-0.34025 -0.900523 0)
(-0.390661 -0.915935 0)
(-0.451024 -0.932486 0)
(-0.523327 -0.948389 0)
(-0.611592 -0.965179 0)
(-0.00444312 -0.826814 0)
(-0.014137 -0.839229 0)
(-0.0240076 -0.838791 0)
(-0.0341294 -0.838521 0)
(-0.0447264 -0.83817 0)
(-0.0559018 -0.837752 0)
(-0.0677627 -0.837273 0)
(-0.080445 -0.836746 0)
(-0.0940858 -0.836199 0)
(-0.108847 -0.83568 0)
(-0.124915 -0.835266 0)
(-0.142524 -0.835072 0)
(-0.161983 -0.83525 0)
(-0.183693 -0.835971 0)
(-0.208163 -0.837403 0)
(-0.236027 -0.839688 0)
(-0.268094 -0.842966 0)
(-0.305398 -0.847382 0)
(-0.349211 -0.852983 0)
(-0.401074 -0.859389 0)
(-0.462649 -0.865182 0)
(-0.535581 -0.867991 0)
(-0.622632 -0.867594 0)
(-0.00441749 -0.817478 0)
(-0.0139497 -0.829505 0)
(-0.0236675 -0.828831 0)
(-0.0336407 -0.828165 0)
(-0.0440701 -0.827303 0)
(-0.0550765 -0.826247 0)
(-0.0667697 -0.824998 0)
(-0.0792975 -0.823559 0)
(-0.0928111 -0.821943 0)
(-0.10749 -0.820171 0)
(-0.123546 -0.818279 0)
(-0.141234 -0.816324 0)
(-0.160877 -0.814383 0)
(-0.182883 -0.81253 0)
(-0.207749 -0.810816 0)
(-0.236073 -0.809245 0)
(-0.268603 -0.807784 0)
(-0.306264 -0.806372 0)
(-0.350173 -0.804845 0)
(-0.401665 -0.802677 0)
(-0.462191 -0.79842 0)
(-0.533005 -0.789447 0)
(-0.615734 -0.774346 0)
(-0.0043278 -0.808319 0)
(-0.0135821 -0.81999 0)
(-0.0230138 -0.819089 0)
(-0.0327063 -0.818036 0)
(-0.0428365 -0.816675 0)
(-0.0535334 -0.814988 0)
(-0.06491 -0.81297 0)
(-0.0771186 -0.810608 0)
(-0.0903192 -0.807897 0)
(-0.1047 -0.80483 0)
(-0.120482 -0.801406 0)
(-0.137925 -0.797629 0)
(-0.157351 -0.793506 0)
(-0.179155 -0.789031 0)
(-0.203806 -0.784163 0)
(-0.231848 -0.778792 0)
(-0.263938 -0.77274 0)
(-0.300883 -0.765781 0)
(-0.343631 -0.757601 0)
(-0.39327 -0.747584 0)
(-0.450988 -0.734323 0)
(-0.517664 -0.715204 0)
(-0.594018 -0.688118 0)
(-0.00416726 -0.799451 0)
(-0.0130263 -0.810805 0)
(-0.0220493 -0.809688 0)
(-0.0313304 -0.808261 0)
(-0.0410334 -0.806416 0)
(-0.0512799 -0.804115 0)
(-0.0621878 -0.801343 0)
(-0.0739067 -0.79807 0)
(-0.0865991 -0.794269 0)
(-0.100454 -0.789908 0)
(-0.115692 -0.78495 0)
(-0.132567 -0.779352 0)
(-0.151387 -0.773063 0)
(-0.172521 -0.766009 0)
(-0.196398 -0.758077 0)
(-0.223499 -0.749076 0)
(-0.25438 -0.738724 0)
(-0.289716 -0.726667 0)
(-0.330282 -0.71248 0)
(-0.376936 -0.69551 0)
(-0.430587 -0.674458 0)
(-0.491768 -0.64688 0)
(-0.560575 -0.610344 0)
(-0.00391544 -0.79101 0)
(-0.0122544 -0.802068 0)
(-0.0207634 -0.800749 0)
(-0.0295059 -0.798962 0)
(-0.038661 -0.796656 0)
(-0.0483228 -0.793769 0)
(-0.0586156 -0.790273 0)
(-0.0696792 -0.78612 0)
(-0.081673 -0.781264 0)
(-0.0947802 -0.775646 0)
(-0.109212 -0.769197 0)
(-0.125211 -0.761837 0)
(-0.143062 -0.753465 0)
(-0.163097 -0.743953 0)
(-0.1857 -0.733132 0)
(-0.211289 -0.720758 0)
(-0.240323 -0.706481 0)
(-0.273334 -0.689861 0)
(-0.310935 -0.670394 0)
(-0.353783 -0.647433 0)
(-0.402533 -0.619827 0)
(-0.45744 -0.585395 0)
(-0.5182 -0.541659 0)
(-0.00354003 -0.783229 0)
(-0.0112208 -0.793956 0)
(-0.0191308 -0.792448 0)
(-0.0272089 -0.790322 0)
(-0.0357011 -0.787582 0)
(-0.0446519 -0.784143 0)
(-0.0541938 -0.779965 0)
(-0.0644511 -0.774983 0)
(-0.0755736 -0.769128 0)
(-0.087731 -0.76232 0)
(-0.101119 -0.754462 0)
(-0.11596 -0.74544 0)
(-0.132514 -0.735116 0)
(-0.151074 -0.723319 0)
(-0.171972 -0.709839 0)
(-0.195564 -0.694398 0)
(-0.222227 -0.676617 0)
(-0.252365 -0.656003 0)
(-0.286433 -0.632002 0)
(-0.324921 -0.60399 0)
(-0.368282 -0.570994 0)
(-0.416564 -0.531157 0)
(-0.469237 -0.482097 0)
(-0.00301541 -0.776383 0)
(-0.00988531 -0.786632 0)
(-0.0171261 -0.784946 0)
(-0.0244143 -0.782517 0)
(-0.0321256 -0.779375 0)
(-0.0402401 -0.77543 0)
(-0.0489013 -0.770624 0)
(-0.0582145 -0.764881 0)
(-0.0683144 -0.758113 0)
(-0.0793498 -0.750218 0)
(-0.0914923 -0.741071 0)
(-0.104939 -0.730532 0)
(-0.119917 -0.718432 0)
(-0.136683 -0.704569 0)
(-0.155517 -0.6887 0)
(-0.17672 -0.670526 0)
(-0.200596 -0.649663 0)
(-0.227446 -0.625614 0)
(-0.257586 -0.597797 0)
(-0.291367 -0.565609 0)
(-0.329102 -0.528254 0)
(-0.370702 -0.484228 0)
(-0.415499 -0.43135 0)
(-0.00235661 -0.77033 0)
(-0.00826741 -0.779823 0)
(-0.0147737 -0.777979 0)
(-0.0211573 -0.775298 0)
(-0.0279645 -0.771803 0)
(-0.0351135 -0.767412 0)
(-0.0427586 -0.762052 0)
(-0.0509899 -0.755639 0)
(-0.0599245 -0.748071 0)
(-0.0696871 -0.73923 0)
(-0.080419 -0.728971 0)
(-0.0922824 -0.717127 0)
(-0.105465 -0.703502 0)
(-0.12018 -0.687868 0)
(-0.136661 -0.669955 0)
(-0.155157 -0.649448 0)
(-0.175916 -0.625967 0)
(-0.199169 -0.599034 0)
(-0.225128 -0.568074 0)
(-0.254014 -0.5325 0)
(-0.286038 -0.491678 0)
(-0.32108 -0.444449 0)
(-0.35843 -0.388882 0)
(-0.00163813 -0.764783 0)
(-0.00648466 -0.773142 0)
(-0.0121864 -0.771166 0)
(-0.0175796 -0.768292 0)
(-0.0233687 -0.764489 0)
(-0.0294322 -0.759702 0)
(-0.0359258 -0.753847 0)
(-0.0429332 -0.746838 0)
(-0.050556 -0.738569 0)
(-0.0588981 -0.728911 0)
(-0.0680717 -0.71771 0)
(-0.0782007 -0.70478 0)
(-0.0894263 -0.689907 0)
(-0.10191 -0.672838 0)
(-0.11583 -0.653283 0)
(-0.131382 -0.630911 0)
(-0.148765 -0.605343 0)
(-0.168168 -0.57613 0)
(-0.189745 -0.542723 0)
(-0.213641 -0.504542 0)
(-0.239983 -0.461067 0)
(-0.268643 -0.41147 0)
(-0.298965 -0.354071 0)
(-0.0009601 -0.761483 0)
(-0.00469263 -0.768294 0)
(-0.00948729 -0.766215 0)
(-0.0138292 -0.763193 0)
(-0.0185011 -0.759122 0)
(-0.0233816 -0.753972 0)
(-0.0286072 -0.747657 0)
(-0.0342579 -0.740088 0)
(-0.0404226 -0.731157 0)
(-0.0471905 -0.720734 0)
(-0.0546526 -0.708659 0)
(-0.0629033 -0.694741 0)
(-0.0720431 -0.678756 0)
(-0.0821816 -0.660439 0)
(-0.0934382 -0.639489 0)
(-0.105941 -0.615565 0)
(-0.119829 -0.588283 0)
(-0.135243 -0.55722 0)
(-0.152313 -0.521873 0)
(-0.171159 -0.481691 0)
(-0.191859 -0.436223 0)
(-0.214288 -0.384919 0)
(-0.237908 -0.326376 0)
(-0.000391311 -0.763301 0)
(-0.00298724 -0.768224 0)
(-0.00670749 -0.766136 0)
(-0.00993101 -0.763055 0)
(-0.0133813 -0.758825 0)