/*--------------------------------*- C++ -*----------------------------------*\
| =========                 |                                                 |
| \\      /  F ield         | OpenFOAM: The Open Source CFD Toolbox           |
|  \\    /   O peration     | Version:  5.x                                   |
|   \\  /    A nd           | Web:      www.OpenFOAM.org                      |
|    \\/     M anipulation  |                                                 |
\*---------------------------------------------------------------------------*/
FoamFile
{
    version     2.0;
    format      ascii;
    class       surfaceScalarField;
    location    "0.65";
    object      alphaPhi10;
}
// * * * * * * * * * * * * * * * * * * * * * * * * * * * * * * * * * * * * * //

dimensions      [0 3 -1 0 0 0 0];

internalField   nonuniform List<scalar> 
4432
(
-3.20358e-06
3.20358e-06
-6.23057e-06
3.02698e-06
-7.59588e-06
1.36532e-06
-7.8532e-06
2.57313e-07
-7.06891e-06
-7.84281e-07
-4.90164e-06
-2.16728e-06
-1.5292e-06
-3.37244e-06
1.91901e-06
-3.44821e-06
4.41308e-06
-2.49407e-06
5.63543e-06
-1.22235e-06
5.70748e-06
-7.20524e-08
4.84347e-06
8.64012e-07
3.33857e-06
1.50489e-06
1.36947e-06
1.9691e-06
-1.07339e-06
2.44286e-06
-4.28017e-06
3.20677e-06
-8.05473e-06
3.77457e-06
-1.06265e-05
2.72877e-06
-1.16233e-05
1.83905e-06
-1.86517e-05
5.77762e-06
-2.26968e-05
4.04511e-06
-1.58554e-05
-6.83965e-06
-1.58389e-05
-3.89592e-06
7.0995e-06
-6.22545e-06
5.35652e-06
-7.0548e-06
2.19467e-06
-7.44419e-06
6.46696e-07
-7.0398e-06
-1.18868e-06
-5.12824e-06
-4.07883e-06
-1.75637e-06
-6.74432e-06
1.84569e-06
-7.05026e-06
4.46426e-06
-5.11265e-06
5.74795e-06
-2.50603e-06
6.04058e-06
-3.64691e-07
5.777e-06
1.1276e-06
5.16876e-06
2.11311e-06
4.33387e-06
2.80401e-06
3.23927e-06
3.53745e-06
1.65312e-06
4.79293e-06
-1.05002e-06
6.47769e-06
-5.46345e-06
7.14677e-06
-1.00241e-05
7.61295e-06
-1.49285e-05
1.0263e-05
-1.74427e-05
5.34115e-06
-1.12925e-05
-1.29848e-05
-2.71614e-05
-2.96552e-06
1.0065e-05
-4.71993e-06
7.11093e-06
-5.73512e-06
3.20986e-06
-6.62337e-06
1.53494e-06
-6.756e-06
-1.05605e-06
-5.19503e-06
-5.6398e-06
-2.04915e-06
-9.8902e-06
1.44961e-06
-1.0549e-05
4.0494e-06
-7.71244e-06
5.30508e-06
-3.7617e-06
5.46601e-06
-5.25635e-07
4.99041e-06
1.60322e-06
4.26184e-06
2.84166e-06
3.57442e-06
3.49144e-06
3.1512e-06
3.96066e-06
3.08717e-06
4.85696e-06
3.05163e-06
6.51324e-06
1.57779e-06
8.62064e-06
-1.17249e-06
1.03957e-05
-4.68036e-06
1.45754e-05
-6.74045e-06
6.98682e-06
-4.1051e-06
-1.54092e-05
-3.12665e-05
-1.52113e-06
1.15861e-05
-2.47655e-06
8.06636e-06
-3.42254e-06
4.15585e-06
-4.23491e-06
2.34731e-06
-4.17129e-06
-1.11967e-06
-2.69367e-06
-7.11742e-06
-3.73448e-07
-1.22104e-05
1.96948e-06
-1.28919e-05
3.74674e-06
-9.48971e-06
4.6279e-06
-4.64285e-06
4.67434e-06
-5.72092e-07
4.14842e-06
2.12915e-06
3.36151e-06
3.62855e-06
2.64065e-06
4.21231e-06
2.24346e-06
4.35784e-06
2.32073e-06
4.77969e-06
3.13585e-06
5.69812e-06
4.19896e-06
7.55753e-06
5.05534e-06
9.53933e-06
5.81865e-06
1.38098e-05
4.30632e-06
8.08473e-06
3.19279e-06
-1.41032e-05
-2.80667e-05
3.92995e-07
1.11932e-05
8.32349e-07
7.627e-06
7.16067e-07
4.27213e-06
1.00917e-06
2.05421e-06
2.18757e-06
-2.29806e-06
3.62692e-06
-8.55677e-06
4.42491e-06
-1.30084e-05
4.54476e-06
-1.30118e-05
4.30419e-06
-9.24915e-06
4.03389e-06
-4.37254e-06
3.69649e-06
-2.34703e-07
3.14558e-06
2.68007e-06
2.43323e-06
4.34089e-06
1.84687e-06
4.79867e-06
1.62784e-06
4.57687e-06
1.75252e-06
4.655e-06
2.41873e-06
5.03192e-06
3.98921e-06
5.98705e-06
6.68559e-06
6.84294e-06
1.05337e-05
9.96177e-06
1.13095e-05
7.57148e-06
7.46545e-06
-1.02606e-05
-2.06012e-05
2.81085e-06
8.3823e-06
5.30092e-06
5.13693e-06
7.08875e-06
2.48431e-06
9.39492e-06
-2.51964e-07
1.18769e-05
-4.77999e-06
1.27113e-05
-9.39119e-06
1.13731e-05
-1.16702e-05
8.73571e-06
-1.03744e-05
5.97232e-06
-6.48576e-06
3.92437e-06
-2.32459e-06
2.80964e-06
8.80019e-07
2.05267e-06
3.43705e-06
1.39835e-06
4.9952e-06
9.95762e-07
5.20126e-06
1.08108e-06
4.49155e-06
1.45554e-06
4.28054e-06
2.12344e-06
4.36403e-06
3.44378e-06
4.66669e-06
5.79538e-06
4.49134e-06
1.01551e-05
5.60206e-06
1.27174e-05
5.00921e-06
8.95144e-06
-6.49468e-06
-1.16498e-05
4.76544e-06
3.61686e-06
1.03587e-05
-4.56362e-07
1.57683e-05
-2.92522e-06
2.0432e-05
-4.91585e-06
2.24293e-05
-6.77763e-06
2.07979e-05
-7.76003e-06
1.67799e-05
-7.65224e-06
1.21213e-05
-5.71581e-06
7.8481e-06
-2.21258e-06
4.45222e-06
1.0713e-06
2.39089e-06
2.94133e-06
1.1147e-06
4.71325e-06
3.21976e-07
5.78791e-06
8.07779e-08
5.44246e-06
5.25398e-07
4.04693e-06
1.21198e-06
3.59396e-06
2.05917e-06
3.51684e-06
3.33008e-06
3.39578e-06
4.99809e-06
2.82334e-06
8.21593e-06
2.38422e-06
1.10089e-05
2.21624e-06
9.15038e-06
-4.63619e-06
-2.49939e-06
8.61545e-06
-4.0788e-06
1.69874e-05
-7.42853e-06
2.20094e-05
-6.59059e-06
2.41032e-05
-5.43183e-06
2.29341e-05
-4.04209e-06
1.95528e-05
-2.77439e-06
1.57075e-05
-2.3609e-06
1.15043e-05
-1.24733e-06
7.98244e-06
1.30929e-06
5.12673e-06
3.92701e-06
2.98422e-06
5.08384e-06
1.11392e-06
6.58355e-06
-2.46261e-07
7.14809e-06
-7.37511e-07
5.93371e-06
-1.72062e-07
3.48148e-06
7.65636e-07
2.65626e-06
1.8188e-06
2.46368e-06
3.26687e-06
1.94771e-06
4.94582e-06
1.14438e-06
7.05235e-06
2.77699e-07
8.77564e-06
4.92949e-07
7.58082e-06
-3.44138e-06
5.08143e-06
-4.04514e-05
2.35109e-05
-5.08465e-05
1.03951e-05
-3.58003e-05
-1.50158e-05
-1.33167e-05
-2.2567e-05
9.34202e-06
-2.26588e-05
2.55407e-05
-1.98899e-05
3.34412e-05
-1.25102e-05
1.28895e-05
3.00393e-05
-6.30143e-05
7.59038e-05
-0.000121652
5.86377e-05
-0.000143779
2.21271e-05
-0.000150188
6.40841e-06
-0.000150455
2.16434e-07
-0.000145725
-4.72996e-06
-0.000135415
-1.03099e-05
-0.000115776
-1.95419e-05
-7.07561e-05
-4.29619e-05
-1.29401e-05
-5.87049e-05
-1.3792e-05
-3.66066e-05
3.81034e-05
-3.52503e-05
9.0389e-06
-1.60825e-05
-3.41836e-05
2.03671e-06
-4.06862e-05
1.96774e-05
-4.02994e-05
3.69486e-05
-3.71611e-05
2.75661e-05
-8.62382e-06
-4.87891e-05
0.000105564
-0.000128616
0.000156046
-0.000140202
4.77795e-05
-0.00014056
6.57727e-06
-0.000140789
4.92244e-07
-0.000143666
-1.98776e-06
-0.000146721
-6.74988e-06
-0.000144464
-1.69255e-05
-0.000128303
-3.79681e-05
-8.93249e-05
-8.20659e-05
-2.84082e-05
-0.000119622
-4.22002e-05
-1.57238e-05
2.00656e-05
-1.2301e-05
5.61622e-06
2.46895e-06
-4.89504e-05
1.93244e-05
-5.75419e-05
3.31691e-05
-5.41442e-05
3.99056e-05
-4.38976e-05
9.97922e-06
1.53425e-05
-7.06081e-05
0.000182316
-4.11123e-05
9.98702e-05
-1.67218e-05
1.00875e-05
-1.59244e-05
1.15034e-06
-1.87125e-05
-1.06003e-07
-2.36245e-05
-3.93813e-07
-3.39278e-05
-1.35091e-06
-5.44898e-05
-4.6584e-06
-8.71282e-05
-1.5267e-05
-9.53029e-05
-8.12415e-05
-4.10288e-05
-0.000173895
-8.3229e-05
2.12497e-06
2.8531e-05
9.41311e-06
1.42511e-06
1.95751e-05
-5.91101e-05
3.45647e-05
-7.25315e-05
4.3483e-05
-6.30624e-05
4.30362e-05
-4.34506e-05
1.23884e-05
3.95429e-05
-3.5985e-05
0.000212741
-9.19658e-06
9.60146e-06
-1.20539e-06
1.87386e-06
-9.02784e-08
4.47003e-08
-1.75183e-07
-4.7208e-09
-5.64677e-07
-5.92821e-10
-1.84068e-06
-8.02746e-08
-5.83926e-06
-6.76863e-07
-1.74245e-05
-3.75434e-06
-7.33948e-05
-3.16027e-05
-4.77432e-05
-0.00020437
-0.000130972
8.24138e-06
5.4595e-05
2.3008e-05
-5.20948e-06
3.51899e-05
-7.1277e-05
4.80354e-05
-8.53736e-05
5.36142e-05
-6.86412e-05
4.9817e-05
-3.96534e-05
2.34741e-05
6.13623e-05
1.11254e-05
0.00020532
-7.09746e-07
1.74634e-05
-9.7641e-08
1.26931e-06
-3.7617e-08
2.86197e-09
-2.45816e-08
1.17039e-10
-2.106e-08
-7.77406e-11
-9.47935e-08
-8.34878e-09
-6.70573e-07
-1.11538e-07
-3.39632e-06
-1.04642e-06
-2.46778e-05
-9.79372e-06
-4.67397e-05
-0.000179729
-0.000177712
1.80477e-05
5.1532e-05
3.50267e-05
-2.05981e-05
4.79698e-05
-8.41816e-05
5.87453e-05
-9.61311e-05
6.37677e-05
-7.36624e-05
5.85236e-05
-3.44089e-05
3.46726e-05
8.52222e-05
1.48412e-05
0.00022935
1.05685e-06
3.03617e-05
-3.65242e-08
2.40213e-06
-2.17944e-08
1.86038e-08
-8.08249e-09
4.07842e-09
-6.57687e-09
1.58514e-09
-1.36296e-08
-1.53289e-09
-1.07511e-07
-1.96566e-08
-9.50943e-07
-2.1487e-07
-7.44812e-06
-3.32165e-06
-3.89646e-05
-0.000140554
-0.000216676
2.27226e-05
2.88093e-05
4.56289e-05
-4.34876e-05
5.6732e-05
-9.52463e-05
6.59171e-05
-0.000105278
7.21862e-05
-7.99201e-05
6.73271e-05
-2.9541e-05
4.60835e-05
0.000106385
2.65616e-05
0.000250654
2.22891e-06
6.2415e-05
1.01177e-07
4.52801e-06
-1.05079e-08
1.34289e-07
-3.2907e-09
3.70269e-09
-4.37119e-09
2.66608e-09
-5.1829e-09
-6.93755e-10
-1.78382e-08
-7.442e-09
-2.01931e-07
-3.41483e-08
-2.9675e-06
-5.72529e-07
-2.69027e-05
-0.000107219
-0.000243579
3.14367e-05
-2.62739e-06
5.21651e-05
-6.42048e-05
5.95576e-05
-0.000102621
6.74325e-05
-0.000113056
6.72391e-05
-7.61033e-05
6.20378e-05
-1.74488e-05
5.87396e-05
0.000111747
4.09922e-05
0.000245513
2.3966e-06
8.6426e-05
4.07323e-07
6.42869e-06
1.25072e-09
5.40939e-07
-2.31318e-09
7.43787e-09
-3.57193e-09
3.81705e-09
-3.75706e-09
-5.07597e-10
-4.33494e-09
-6.86166e-09
-2.51493e-08
-1.37412e-08
-5.82792e-07
-1.55302e-08
-1.44377e-05
-8.21683e-05
-0.000258017
5.8684e-06
-5.50818e-08
5.85088e-06
-5.75556e-07
3.33849e-06
-1.05084e-07
2.12402e-06
-5.50925e-07
1.73127e-06
-8.55578e-07
1.63561e-06
-7.11131e-07
2.01126e-06
-8.98499e-07
2.77746e-06
-7.42127e-07
3.72834e-06
2.80912e-07
4.75888e-06
1.88876e-06
5.25558e-06
4.58713e-06
3.49002e-06
8.34911e-06
4.52224e-07
1.01859e-05
-7.13465e-07
7.0994e-06
9.36089e-07
1.83193e-06
2.61839e-06
9.73954e-07
3.99452e-06
1.08755e-06
6.31735e-06
-3.75131e-07
1.00948e-05
-2.6331e-06
1.44653e-05
-4.09278e-06
1.94279e-05
-4.46961e-06
2.31463e-05
-7.15979e-06
-4.00745e-06
3.22351e-05
-5.42749e-08
-8.06958e-10
-6.3281e-07
8.11517e-10
-1.84942e-06
-6.71568e-13
-3.90535e-06
-7.82717e-12
-5.22654e-06
-6.96501e-11
-5.55625e-06
-5.09945e-10
-5.8293e-06
-3.30381e-09
-6.82165e-06
-2.04046e-08
-8.41101e-06
-1.21329e-07
-1.01715e-05
-5.43785e-07
-1.03211e-05
-1.34068e-06
-7.2454e-06
-4.71672e-07
-3.37879e-06
1.11019e-06
1.45087e-06
6.08373e-07
5.75513e-06
-1.86165e-06
6.82297e-06
-8.54829e-08
6.56416e-06
1.34636e-06
8.0041e-06
-1.81504e-06
1.20549e-05
-6.68372e-06
1.59939e-05
-8.03163e-06
1.84364e-05
-6.912e-06
1.79292e-05
-6.65261e-06
-6.62294e-06
2.05448e-05
-8.08201e-10
1.24312e-12
-6.09468e-14
3.33279e-12
-7.40449e-13
1.97173e-14
-8.59647e-12
-1.32571e-15
-7.81523e-11
-1.85734e-13
-5.87161e-10
-1.28982e-12
-3.89274e-09
1.53881e-12
-2.42973e-08
-4.89194e-14
-1.45625e-07
-5.96076e-13
-6.89404e-07
-6.02571e-12
-2.58461e-06
-5.95679e-11
-5.8799e-06
-5.53874e-10
-8.06146e-06
-4.38284e-09
-1.00962e-05
-3.30584e-08
-1.18562e-05
-2.42473e-07
-8.4977e-06
-1.57831e-06
-2.96001e-06
-2.49422e-06
3.15054e-06
-3.25264e-06
1.1465e-05
-5.90459e-06
1.86641e-05
-7.08354e-06
2.2906e-05
-6.18204e-06
2.29037e-05
-4.04099e-06
-1.32748e-06
1.87596e-05
1.14116e-12
1.01965e-13
-2.44822e-15
4.60799e-12
-6.69495e-15
1.21841e-14
-3.86425e-14
5.30075e-15
-2.449e-13
8.86472e-15
-1.54282e-12
1.33704e-15
-6.79444e-15
2.47037e-15
-5.5888e-14
-2.52503e-16
-5.74986e-13
-7.72686e-14
-6.37682e-12
-2.25407e-13
-6.58893e-11
-7.18569e-14
-6.18425e-10
-1.39178e-12
-4.97081e-09
-3.04087e-11
-3.77973e-08
-2.23286e-10
-2.80037e-07
-2.07159e-10
-1.85818e-06
-1.41115e-10
-2.42855e-06
-1.00463e-09
-3.47095e-06
-7.4257e-09
-4.6412e-06
-5.22639e-08
-4.72328e-06
-2.99612e-07
-4.11474e-06
-1.00223e-06
-4.80478e-06
-7.60099e-07
8.44664e-07
-1.8071e-05
1.22562e-13
-1.29015e-14
2.47572e-12
5.44741e-13
3.45164e-14
5.57782e-13
5.1266e-15
4.88799e-14
6.77568e-16
3.79288e-15
5.4204e-16
9.53256e-16
7.75836e-16
1.80995e-15
1.42085e-16
-3.51354e-16
-3.17512e-15
-3.69844e-13
-2.51373e-14
-8.61092e-13
-1.37319e-13
9.89857e-15
-1.43551e-12
-1.24019e-13
-7.29457e-12
-2.46031e-11
-1.69545e-11
-2.13575e-10
-2.79021e-11
-1.77996e-10
-8.32764e-11
-3.70268e-11
-1.06249e-09
-5.45409e-12
-8.57547e-09
-3.40013e-11
-6.15404e-08
-7.87429e-10
-3.67612e-07
-4.40992e-09
-1.38663e-06
-5.02897e-08
-2.26748e-06
-2.62254e-07
-1.37674e-07
-2.5057e-05
1.62193e-15
-4.09435e-16
1.91309e-13
1.48956e-14
4.0106e-14
1.67613e-14
8.16513e-15
1.29714e-14
1.33082e-15
3.72578e-15
1.03139e-15
1.2836e-15
6.25219e-16
7.52118e-16
-8.36421e-16
4.6265e-16
-1.566e-12
2.56003e-14
-3.96203e-12
-5.75007e-13
8.05915e-13
-2.0755e-13
5.13378e-13
1.15063e-13
-3.50155e-10
9.27647e-12
-3.76593e-10
-2.8019e-13
-3.51285e-10
-9.75828e-12
-4.84961e-11
8.05884e-12
-7.24504e-11
1.80825e-12
-1.18805e-10
1.63281e-12
1.14619e-09
3.61057e-11
5.64937e-10
3.5675e-10
-5.96843e-08
8.61968e-10
-1.31973e-06
8.28694e-09
-1.10873e-07
-4.15963e-06
3.85858e-17
6.29194e-16
7.17836e-15
5.65885e-16
1.91329e-15
3.73351e-16
1.42438e-15
4.19916e-16
9.17114e-16
1.17484e-15
1.24314e-15
2.43267e-15
1.2929e-15
2.63656e-15
2.67249e-16
6.50291e-16
-1.7795e-12
3.03133e-13
-3.88939e-12
1.5873e-12
-5.416e-12
1.36286e-12
-4.84081e-12
1.34235e-12
-2.70312e-12
-1.63236e-12
-3.82414e-12
-1.28793e-12
-1.63539e-11
-8.16302e-15
-5.53053e-11
1.87574e-12
1.62261e-11
9.08976e-12
7.44793e-12
2.6106e-12
2.29744e-12
1.86363e-11
-1.35404e-09
1.14036e-09
-1.36856e-08
2.60721e-09
-3.91632e-08
-1.89117e-10
-8.7734e-09
-1.81687e-07
5.66166e-18
2.69665e-17
1.78614e-16
5.31481e-17
6.59988e-17
2.03796e-17
8.17267e-17
5.69097e-17
6.12181e-16
9.5734e-16
1.3909e-15
3.54984e-15
1.04275e-15
4.61751e-15
1.83378e-15
1.39574e-15
-2.63136e-13
1.3023e-14
-1.69395e-12
-1.90817e-15
1.87546e-13
2.14616e-13
-5.74384e-12
4.15981e-13
-2.02893e-11
8.29227e-12
-1.03559e-11
6.62412e-12
-3.30878e-13
9.03584e-13
-1.01176e-12
7.3733e-14
1.39267e-12
4.38578e-14
-7.29663e-12
4.39022e-12
1.24359e-10
2.17596e-11
3.79233e-10
6.50835e-11
-5.37485e-09
9.88284e-10
-3.53525e-09
8.24004e-09
1.8758e-09
-1.08347e-08
1.61646e-19
1.06418e-18
3.95932e-18
2.35063e-18
1.96129e-18
8.70248e-19
1.83935e-17
2.15455e-17
3.20184e-16
7.36373e-16
6.66531e-16
3.68088e-15
6.40998e-16
5.35161e-15
2.04942e-17
4.25913e-15
-1.76993e-15
1.7095e-15
-6.76819e-15
1.48662e-15
3.26408e-13
3.38872e-15
-7.29611e-12
6.13008e-13
-2.26786e-11
6.71681e-12
-8.60023e-12
1.03913e-11
-1.07559e-12
3.27914e-12
-2.53148e-12
1.0869e-13
-1.62759e-11
1.49262e-12
-1.81119e-11
1.7077e-11
-3.61727e-12
1.87159e-11
-2.77961e-11
2.99384e-11
-2.15345e-09
3.70359e-10
-6.99497e-10
3.54801e-09
3.81041e-09
3.86171e-09
1.06129e-21
6.07067e-20
6.9904e-20
6.15471e-20
4.83913e-20
3.51428e-20
3.85207e-18
6.90173e-18
1.04838e-16
2.9073e-16
3.90056e-16
1.95584e-15
3.07838e-16
4.015e-15
-1.33236e-17
4.13415e-15
-2.99558e-16
1.56112e-15
-7.72064e-16
1.89014e-15
-1.01788e-15
2.1238e-15
1.50624e-13
4.40478e-15
-1.0134e-11
-2.2254e-13
-3.47156e-12
1.36412e-12
-2.51648e-13
-4.19666e-15
-6.6087e-13
1.24771e-13
-8.47942e-12
1.98468e-12
-4.39955e-12
1.18852e-13
1.95171e-11
1.04048e-13
1.6613e-11
2.18053e-11
-2.8789e-09
5.05021e-10
-1.52816e-09
4.0251e-10
8.24315e-09
5.51677e-10
-1.27363e-22
3.47119e-21
9.95755e-22
1.72207e-21
1.21432e-21
1.99782e-21
5.27891e-19
1.55448e-18
1.72032e-17
7.07613e-17
6.36433e-17
5.36335e-16
1.26299e-17
1.31687e-15
-6.89291e-17
1.3711e-15
-2.3333e-16
9.33448e-16
-5.04722e-16
2.15046e-15
-3.5482e-15
2.28667e-15
-5.71927e-15
4.83408e-15
-2.3229e-13
-2.8648e-15
-1.47303e-14
1.30284e-15
-7.33156e-14
5.31427e-15
-5.67493e-13
1.50072e-13
-1.20109e-13
-2.40387e-15
-1.24543e-13
8.7608e-15
-1.03803e-12
2.53879e-13
4.52747e-12
1.34983e-11
-3.25961e-09
3.02111e-10
-1.04078e-08
5.08259e-10
5.33275e-09
-4.23339e-09
-4.1241e-24
1.95637e-22
9.28422e-24
5.00478e-23
3.81385e-23
2.18553e-22
4.04643e-20
3.14833e-19
8.33689e-19
1.52068e-17
-7.95231e-18
1.06585e-16
-2.9576e-17
2.34149e-16
-5.81167e-17
2.26064e-16
-3.87235e-16
4.92731e-16
-5.46811e-16
2.39093e-15
-1.31162e-15
1.65153e-15
-5.02458e-16
1.05778e-15
-3.7816e-15
1.7943e-16
-2.36327e-15
-4.38205e-16
-2.15271e-14
5.64087e-16
-6.81159e-15
2.63393e-16
-1.28813e-14
5.58885e-16
-4.74798e-14
4.59692e-15
2.57018e-15
8.9311e-14
9.94894e-12
1.80596e-12
-2.12065e-09
5.10507e-11
-1.18894e-08
1.16998e-09
1.00777e-08
-1.51521e-08
-6.76355e-26
1.04502e-23
-6.89656e-26
1.49124e-24
-5.77605e-24
6.64842e-23
-1.11037e-20
6.05332e-20
-7.28421e-19
3.09724e-18
-6.00641e-18
1.96351e-17
-1.03997e-17
3.7523e-17
-2.24385e-17
3.9842e-17
-3.6069e-16
2.53648e-16
-3.84522e-16
1.37157e-15
-3.21124e-16
6.22025e-16
-1.26992e-16
2.70933e-16
-1.43909e-16
1.78501e-16
-1.26107e-16
9.32725e-17
-2.91142e-16
2.80954e-17
-3.20973e-16
2.07768e-17
-9.87318e-16
1.03675e-16
-2.53618e-15
1.84656e-15
2.47705e-14
3.53461e-14
6.4243e-13
6.06791e-13
2.79003e-11
1.1341e-11
-6.96898e-09
1.25006e-10
8.08287e-09
-1.85288e-08
-7.98397e-28
6.94085e-25
-9.95683e-27
5.28672e-26
-1.22889e-23
3.39923e-23
-8.54377e-21
1.09663e-20
-2.85153e-19
5.50936e-19
-1.38069e-18
3.25211e-18
-2.36818e-18
6.1381e-18
-7.46939e-18
8.39013e-18
-1.18151e-16
5.24547e-17
-1.0986e-16
1.91641e-16
-1.04064e-16
1.4218e-16
-1.04743e-16
1.42082e-16
-7.88557e-17
1.58675e-16
-2.05929e-17
5.52501e-17
-1.40406e-17
6.39484e-18
-2.15616e-17
4.45255e-18
-1.57112e-16
5.03679e-17
-7.23771e-16
1.27522e-15
-1.12009e-14
2.91214e-14
-2.47943e-13
5.00578e-13
-3.46294e-12
8.17168e-12
-1.62048e-10
1.83932e-10
2.34203e-09
-2.40186e-08
-3.45262e-29
4.72459e-25
-1.9984e-27
5.39001e-27
-3.97991e-24
1.3348e-23
-2.23607e-21
1.73902e-21
-5.9148e-20
7.8672e-20
-2.33265e-19
4.45529e-19
-4.45432e-19
9.24745e-19
-1.46143e-18
1.69367e-18
-1.13542e-17
5.59739e-18
-2.3408e-17
1.76767e-17
-3.91253e-17
3.99486e-17
-4.80069e-17
6.01624e-17
-2.09197e-17
6.27834e-17
-3.06869e-18
7.62216e-18
-2.42109e-18
1.18864e-18
-5.05182e-18
1.24541e-18
-6.93572e-17
2.63292e-17
5.22879e-16
5.8033e-16
6.59354e-15
1.30685e-14
1.0462e-13
2.33668e-13
1.6648e-12
3.63158e-12
8.51874e-11
5.80064e-11
3.26255e-10
-6.50718e-09
-1.01942e-29
-4.13114e-25
-1.28955e-27
6.10731e-27
-9.33128e-25
3.31785e-24
-3.68936e-22
2.18404e-22
-8.11247e-21
8.55963e-21
-3.12927e-20
4.93441e-20
-7.57496e-20
1.27447e-19
-2.57622e-19
3.54172e-19
-1.45447e-18
1.21093e-18
-5.35886e-18
3.90163e-18
-9.84025e-18
8.75928e-18
-1.09687e-17
1.06277e-17
-2.16989e-18
6.05526e-18
-3.89781e-19
5.76345e-19
-3.63794e-19
1.82117e-19
-1.01957e-18
2.77285e-19
-3.229e-17
7.11969e-18
-3.00403e-16
2.00712e-16
6.72872e-15
2.77186e-15
1.42098e-13
4.88724e-14
2.25241e-12
6.34495e-13
4.6336e-11
5.15969e-12
-5.90706e-12
-1.40591e-09
1.51241e-28
-4.21026e-25
-3.4426e-26
-5.44561e-26
-1.57372e-25
4.71974e-25
-3.98213e-23
2.0064e-23
-7.65689e-22
6.9648e-22
-3.42988e-21
4.59489e-21
-1.25916e-20
1.83035e-20
-6.40032e-20
8.61678e-20
-3.44347e-19
3.54472e-19
-1.00101e-18
8.63683e-19
-1.20846e-18
1.12575e-18
-9.68709e-19
8.67877e-19
-1.94103e-19
3.26977e-19
-5.09443e-20
7.40221e-20
-5.02117e-20
2.88277e-20
-1.55505e-19
4.21702e-20
-5.19046e-18
1.00696e-18
-1.35272e-16
3.02094e-17
-2.90071e-16
6.82004e-16
2.84994e-14
7.02302e-15
4.49529e-13
5.81457e-14
2.65761e-13
3.40627e-13
-5.4852e-12
-1.00998e-10
2.72426e-28
-3.13874e-25
-4.10429e-27
-7.78326e-26
-1.62142e-26
2.44344e-26
-2.77721e-24
1.35902e-24
-5.07057e-23
4.37422e-23
-3.47083e-22
3.96179e-22
-2.43346e-21
3.10813e-21
-1.7695e-20
2.20728e-20
-7.25154e-20
8.60191e-20
-1.20696e-19
1.50908e-19
-1.30491e-19
1.55977e-19
-7.81446e-20
1.09423e-19
-2.44156e-20
4.57758e-20
-6.67863e-21
1.46619e-20
-5.90519e-21
4.37289e-21
-1.65983e-20
4.83747e-21
-5.06362e-19
1.04661e-19
-1.84779e-17
3.34453e-18
-3.69314e-16
1.00993e-16
-5.84674e-16
1.75893e-15
1.86493e-14
1.08242e-14
-1.64221e-13
5.05551e-14
9.5453e-14
-9.5229e-12
2.24968e-28
-2.14836e-25
-2.07944e-28
-5.80674e-26
-9.14336e-28
1.06627e-26
-1.30348e-25
6.99433e-26
-2.71497e-24
2.35429e-24
-3.73957e-23
3.64666e-23
-5.05188e-22
5.68355e-22
-4.11075e-21
4.96576e-21
-1.3099e-20
1.84589e-20
-1.8469e-20
3.13937e-20
-1.96748e-20
3.46633e-20
-1.1872e-20
2.7331e-20
-4.04206e-21
1.23977e-20
-8.69521e-22
3.46764e-21
-6.72192e-22
7.43189e-22
-1.44484e-21
6.1068e-22
-4.21638e-20
1.21466e-20
-1.54686e-18
4.37997e-19
-5.53341e-17
1.37883e-17
-7.63278e-16
3.77199e-16
-2.67507e-15
4.30145e-15
-2.52128e-14
1.38525e-14
6.17314e-14
-4.74882e-13
1.26086e-28
-1.36711e-25
2.23432e-28
-3.23342e-26
-1.53596e-27
-1.19532e-26
-4.50826e-27
2.56537e-27
-1.44104e-25
1.22742e-25
-4.28592e-24
3.71008e-24
-8.67918e-23
8.92441e-23
-7.55539e-22
8.87226e-22
-2.41955e-21
3.69872e-21
-3.60843e-21
7.2364e-21
-3.91773e-21
8.7125e-21
-2.47285e-21
7.46064e-21
-7.93494e-22
3.49556e-21
-1.31488e-22
8.99971e-22
-9.08166e-23
1.58772e-22
-1.51263e-22
1.04883e-22
-4.39008e-21
2.17938e-21
-1.59383e-19
8.53533e-20
-5.38539e-18
2.63018e-18
-1.38576e-16
6.89419e-17
-9.48772e-16
1.37031e-15
-1.70564e-15
9.19466e-15
2.06825e-14
2.06435e-15
5.1434e-29
-7.97268e-26
2.64948e-28
-1.46122e-26
-6.09201e-29
-1.53579e-26
-1.31558e-28
2.05233e-27
-8.17718e-27
6.54018e-27
-4.27368e-25
3.47652e-25
-1.103e-23
1.02434e-23
-1.11959e-22
1.21801e-22
-4.07262e-22
6.07305e-22
-6.51712e-22
1.3491e-21
-7.12777e-22
1.70303e-21
-4.6946e-22
1.53422e-21
-1.50649e-22
7.57752e-22
-2.35147e-23
2.07387e-22
-1.10986e-23
3.46078e-23
-1.75091e-23
1.81886e-23
-5.52908e-22
4.23711e-22
-1.92482e-20
1.85658e-20
-4.83617e-19
5.44384e-19
-9.75034e-18
1.18659e-17
-7.16234e-17
2.4294e-16
5.62666e-16
3.32665e-15
1.44359e-14
6.81518e-15
1.48866e-29
-4.21503e-26
1.49288e-28
-5.4358e-27
1.71496e-29
-9.76683e-27
-1.89446e-28
-6.57539e-28
-4.36491e-28
3.40808e-28
-3.11493e-26
2.42563e-26
-1.03677e-24
8.41457e-25
-1.27116e-23
1.2633e-23
-5.15751e-23
7.19579e-23
-8.60135e-23
1.70024e-22
-9.36848e-23
2.19473e-22
-6.47806e-23
2.07275e-22
-2.20526e-23
1.1115e-22
-3.48388e-24
3.45361e-23
-1.17665e-24
6.10555e-24
-1.70611e-24
2.7086e-24
-5.77323e-23
6.71443e-23
-1.93106e-21
3.40315e-21
-2.70543e-20
1.07686e-19
5.36903e-20
2.108e-18
1.56982e-17
4.0756e-17
4.55644e-16
7.67148e-16
6.9787e-15
4.26261e-15
2.63761e-30
-2.01092e-26
5.61304e-29
-1.66788e-27
1.80693e-29
-4.3462e-27
-8.37294e-30
-8.20095e-28
-1.86504e-29
1.59176e-29
-1.65033e-27
1.27004e-27
-7.30459e-26
5.39524e-26
-1.03835e-24
9.80553e-25
-4.4236e-24
5.93808e-24
-7.467e-24
1.42766e-23
-7.98892e-24
1.86552e-23
-5.79843e-24
1.84632e-23
-2.11782e-24
1.08719e-23
-3.51729e-25
3.87249e-24
-9.51359e-26
8.07639e-25
-1.11767e-25
3.67182e-25
-2.74078e-24
8.62801e-24
-1.14891e-23
4.96652e-22
4.28945e-21
1.94086e-20
2.10851e-19
4.54162e-19
7.10224e-18
9.71505e-18
2.18035e-16
2.61405e-16
3.71175e-15
2.9324e-15
4.37993e-32
-8.65444e-27
1.53137e-29
-4.26012e-28
7.267e-30
-1.49636e-27
-3.11891e-31
-4.11486e-28
-6.48476e-31
7.57513e-31
-7.03753e-29
6.09904e-29
-3.84115e-27
2.9439e-27
-5.86076e-26
5.79744e-26
-2.49511e-25
3.57645e-25
-4.15854e-25
8.66176e-25
-4.2525e-25
1.1463e-24
-3.13639e-25
1.17957e-24
-1.16294e-25
7.54147e-25
-1.91425e-26
3.03419e-25
-3.89952e-27
8.07974e-26
-2.20964e-28
4.65926e-26
2.20061e-25
1.05254e-24
3.05937e-23
7.15066e-23
2.1501e-21
3.64768e-21
8.38549e-20
1.13614e-19
2.76657e-18
2.85622e-18
1.08229e-16
9.83321e-17
2.02586e-15
2.06625e-15
-3.52848e-30
-3.36691e-27
3.07851e-30
-9.22049e-29
1.88323e-30
-4.20141e-28
-9.96583e-33
-1.44269e-28
-2.40759e-32
5.82752e-31
-2.51712e-30
2.91076e-30
-1.47394e-28
1.42877e-28
-2.25147e-27
2.81684e-27
-9.21815e-27
1.75296e-26
-1.45009e-26
4.30391e-26
-1.32314e-26
5.80418e-26
-8.35333e-27
6.13125e-26
-2.00061e-27
4.1339e-26
2.19605e-28
1.79921e-26
5.37263e-28
6.01169e-27
1.08848e-27
5.00757e-27
8.46511e-26
1.47705e-25
8.96786e-24
1.18724e-23
6.87306e-22
8.36864e-22
3.01077e-20
3.32093e-20
9.64541e-19
7.85495e-19
4.06329e-17
2.46438e-17
6.98194e-16
1.07242e-15
-2.64386e-30
-1.18821e-27
4.27056e-31
-1.736e-29
3.31301e-31
-9.95977e-29
4.95168e-33
-4.00763e-29
-3.00876e-32
-4.62314e-31
-7.08538e-32
1.36439e-31
-3.94492e-30
6.5675e-30
-5.51928e-29
1.27588e-28
-1.93115e-28
7.99358e-28
-2.17531e-28
1.9908e-27
-5.72857e-29
2.73629e-27
2.05772e-28
2.93731e-27
2.73104e-28
2.02882e-27
1.61001e-28
9.1145e-28
1.35498e-28
3.41644e-28
2.03773e-28
4.33763e-28
1.95505e-26
2.30077e-26
2.15441e-24
2.09853e-24
2.09047e-22
1.9734e-22
1.09485e-20
1.00791e-20
2.93681e-19
2.02172e-19
8.82345e-18
3.3495e-18
9.50509e-17
2.83375e-16
-1.36276e-30
-3.81941e-28
2.35729e-32
-2.9686e-30
3.10158e-32
-2.04423e-29
1.1778e-33
-9.33612e-30
-5.24054e-34
-2.6526e-31
-9.99716e-34
6.19936e-33
-3.67375e-32
2.98791e-31
-5.97583e-32
5.80699e-30
2.3368e-30
3.66571e-29
1.20535e-29
9.23129e-29
2.61991e-29
1.2861e-28
4.32895e-29
1.39751e-28
3.26136e-29
9.79513e-29
1.57447e-29
4.4743e-29
1.36639e-29
1.7177e-29
3.13135e-29
3.71539e-29
3.83153e-27
3.33099e-27
4.40602e-25
3.19243e-25
5.22144e-23
3.55666e-23
3.49903e-21
2.47878e-21
8.50678e-20
5.24549e-20
1.30835e-18
4.45684e-19
5.64899e-18
3.19709e-17
-5.75552e-31
-1.12288e-28
-1.19935e-33
-5.01444e-31
-4.76467e-33
-3.70448e-30
-3.54891e-33
-1.88449e-30
-2.65932e-34
-8.39753e-32
2.69721e-34
2.49127e-34
2.40883e-33
1.35094e-32
6.65861e-32
2.64692e-31
5.29186e-31
1.68385e-30
1.51497e-30
4.28133e-30
2.5153e-30
6.0248e-30
3.50939e-30
6.61521e-30
2.44867e-30
4.70646e-30
1.12698e-30
2.18941e-30
9.3411e-31
8.56333e-31
4.48426e-30
3.68611e-30
6.10444e-28
3.96432e-28
7.07288e-26
3.79822e-26
9.24814e-24
4.37511e-24
8.17517e-22
4.07983e-22
2.28854e-20
1.21011e-20
2.36286e-19
9.92042e-20
5.1411e-19
2.46477e-18
-2.10723e-31
-3.03085e-29
-5.41865e-34
-9.57834e-32
-3.57996e-33
-6.01384e-31
-2.57565e-33
-3.37084e-31
-2.09879e-34
-2.0135e-32
6.60083e-35
7.77452e-35
2.44725e-34
6.02046e-34
5.87345e-33
1.18732e-32
4.16545e-32
7.60666e-32
1.10327e-31
1.94971e-31
1.71364e-31
2.76608e-31
2.24814e-31
3.06133e-31
1.53729e-31
2.20785e-31
6.98316e-32
1.04427e-31
5.67654e-32
4.26126e-32
5.99589e-31
3.9503e-31
7.83522e-29
3.95904e-29
8.98631e-27
3.79494e-27
1.1924e-24
4.26061e-25
1.3172e-22
4.72576e-23
5.11503e-21
2.1423e-21
5.73051e-20
2.61066e-20
1.20778e-19
3.3402e-19
-7.01095e-32
-7.5333e-30
-1.98739e-34
-2.26319e-32
-8.86841e-34
-8.85784e-32
-6.97415e-34
-5.4278e-32
-6.74497e-35
-4.00029e-33
4.38293e-36
5.91259e-36
1.63875e-35
2.6349e-35
3.77888e-34
5.22394e-34
2.58394e-33
3.36454e-33
6.62612e-33
8.67635e-33
1.00275e-32
1.23844e-32
1.27354e-32
1.37788e-32
8.67278e-33
1.00409e-32
3.95123e-33
4.80805e-33
3.22911e-33
2.11994e-33
7.25648e-32
3.89401e-32
8.53742e-30
3.54675e-30
9.79925e-28
3.48001e-28
1.29129e-25
3.90857e-26
1.64132e-23
4.75889e-24
8.9663e-22
2.98565e-22
1.39653e-20
5.60475e-21
3.58968e-20
8.27186e-20
-2.11581e-32
-1.72777e-30
-7.17017e-35
-6.11557e-33
-1.61028e-34
-1.19664e-32
-1.38164e-34
-7.96354e-33
-1.54538e-35
-6.88163e-34
-2.43921e-38
-8.68089e-37
9.4895e-37
1.13144e-36
2.08702e-35
2.25804e-35
1.40808e-34
1.45919e-34
3.56473e-34
3.77804e-34
5.32077e-34
5.41404e-34
6.62883e-34
6.04004e-34
4.51967e-34
4.43278e-34
2.10081e-34
2.13979e-34
1.78478e-34
1.08272e-34
7.4625e-33
3.21789e-33
8.16307e-31
2.84142e-31
9.51803e-29
2.87464e-29
1.26605e-26
3.32458e-27
1.78563e-24
4.42939e-25
1.29025e-22
3.56515e-23
2.79386e-21
9.01441e-22
8.12793e-21
2.14956e-20
-5.65145e-33
-3.66153e-31
-2.37165e-35
-1.63768e-33
-2.42805e-35
-1.49758e-33
-2.23994e-35
-1.07507e-33
-2.80236e-36
-1.0523e-34
-1.21673e-38
-3.67492e-37
5.88015e-38
4.75211e-38
1.03962e-36
9.60507e-37
6.97223e-36
6.21479e-36
1.75499e-35
1.6123e-35
2.60385e-35
2.31432e-35
3.20782e-35
2.58259e-35
2.19464e-35
1.90279e-35
1.07297e-35
9.22254e-36
9.8929e-36
5.75675e-36
6.35505e-34
2.23035e-34
6.71308e-32
1.94688e-32
7.93509e-30
1.98563e-30
1.07514e-27
2.34711e-28
1.66561e-25
3.39816e-26
1.56137e-23
3.54644e-24
4.40014e-22
1.13226e-22
1.20928e-21
4.27139e-21
-1.3312e-33
-7.17715e-32
-6.81188e-36
-4.03219e-34
-3.17193e-36
-1.75371e-34
-3.09609e-36
-1.34657e-34
-4.23323e-37
-1.45584e-35
-2.7734e-39
-7.75231e-38
4.45796e-39
1.91431e-39
4.74051e-38
4.02762e-38
3.16706e-37
2.60347e-37
7.95933e-37
6.75255e-37
1.17783e-36
9.68508e-37
1.44199e-36
1.07845e-36
9.90378e-37
7.95014e-37
5.32796e-37
3.8552e-37
5.5099e-37
3.09042e-37
4.53842e-35
1.36778e-35
4.63229e-33
1.14635e-33
5.42669e-31
1.12829e-31
7.40109e-29
1.31835e-29
1.22977e-26
1.98587e-27
1.50854e-24
2.69905e-25
5.49769e-23
1.13298e-23
1.25067e-22
5.96777e-22
-2.79991e-34
-1.3021e-32
-1.67857e-36
-8.97497e-35
-3.66677e-37
-1.94257e-35
-3.7175e-37
-1.57649e-35
-5.4192e-38
-1.84661e-36
-4.44995e-40
-1.24035e-38
3.40858e-40
8.1685e-41
1.9776e-39
1.66824e-39
1.31778e-38
1.0748e-38
3.30992e-38
2.78067e-38
4.88771e-38
3.97546e-38
5.97127e-38
4.40582e-38
4.1134e-38
3.23794e-38
2.40068e-38
1.56598e-38
3.09999e-38
1.60829e-38
2.8114e-36
7.88593e-37
2.73128e-34
6.22451e-35
3.0692e-32
5.69329e-33
4.10797e-30
6.33028e-31
7.03969e-28
9.42878e-29
1.10804e-25
1.58087e-26
5.43877e-24
9.18261e-25
1.05016e-23
6.15835e-23
-5.3039e-35
-2.18738e-33
-3.58969e-37
-1.80998e-35
-3.82918e-38
-2.06092e-36
-3.92101e-38
-1.73696e-36
-5.95789e-39
-2.17081e-37
-5.47291e-41
-1.65124e-39
2.08751e-41
6.75232e-42
7.54031e-41
6.8379e-41
4.99951e-40
4.38343e-40
1.25383e-39
1.12885e-39
1.84944e-39
1.60476e-39
2.25905e-39
1.76568e-39
1.55545e-39
1.28909e-39
1.03437e-39
6.20137e-40
1.56035e-39
8.03279e-40
1.55462e-37
4.39865e-38
1.44104e-35
3.33747e-36
1.52128e-33
2.82456e-34
1.9479e-31
2.92757e-32
3.33219e-29
4.21963e-30
6.41587e-27
8.24941e-28
4.35815e-25
6.55086e-26
8.32394e-25
5.23306e-24
-8.99857e-36
-3.40444e-34
-6.70025e-38
-3.31456e-36
-3.69915e-39
-2.12352e-37
-3.66895e-39
-1.81259e-37
-5.65952e-40
-2.38747e-38
-5.35496e-42
-1.9002e-40
9.16919e-43
4.80448e-43
2.61154e-42
2.77864e-42
1.71959e-41
1.77101e-41
4.30441e-41
4.53147e-41
6.33756e-41
6.39118e-41
7.75212e-41
6.96643e-41
5.32299e-41
5.03576e-41
3.87284e-41
2.40409e-41
7.43638e-41
3.84745e-41
7.6746e-39
2.33965e-39
6.98979e-37
1.78538e-37
6.99815e-35
1.45383e-35
8.5043e-33
1.42755e-33
1.44052e-30
2.02973e-31
3.30972e-28
4.62324e-29
3.0292e-26
4.60274e-27
6.50987e-26
3.99733e-25
-1.36064e-36
-4.91468e-35
-1.09207e-38
-5.52367e-37
-3.35737e-40
-2.15389e-38
-3.0713e-40
-1.80206e-38
-4.67236e-41
-2.47708e-39
-4.22637e-43
-1.93273e-41
2.90818e-44
2.8729e-44
8.10899e-44
1.12211e-43
5.31184e-43
7.1069e-43
1.3267e-42
1.80417e-42
1.95176e-42
2.51989e-42
2.39682e-42
2.71644e-42
1.63811e-42
1.93859e-42
1.20074e-42
9.15753e-43
3.1767e-42
1.74371e-42
3.29553e-40
1.14921e-40
3.07068e-38
9.1493e-39
3.04813e-36
7.64852e-37
3.61705e-34
7.58686e-35
6.22536e-32
1.12506e-32
1.70902e-29
2.95853e-30
1.92109e-27
3.21516e-28
4.6739e-27
2.74057e-26
-1.82972e-37
-6.59353e-36
-1.5558e-39
-8.4021e-38
-2.88292e-41
-2.17119e-39
-2.29508e-41
-1.71578e-39
-3.33159e-42