/*--------------------------------*- C++ -*----------------------------------*\
| =========                 |                                                 |
| \\      /  F ield         | OpenFOAM: The Open Source CFD Toolbox           |
|  \\    /   O peration     | Version:  5.x                                   |
|   \\  /    A nd           | Web:      www.OpenFOAM.org                      |
|    \\/     M anipulation  |                                                 |
\*---------------------------------------------------------------------------*/
FoamFile
{
    version     2.0;
    format      ascii;
    class       volScalarField;
    location    "0.65";
    object      alpha.water;
}
// * * * * * * * * * * * * * * * * * * * * * * * * * * * * * * * * * * * * * //

dimensions      [0 0 0 0 0 0 0];

internalField   nonuniform List<scalar> 
2268
(
1
1
1
1
1
1
1
1
1
1
1
1
1
1
1
1
1
0.998732
0.920378
0.87455
1
0.99988
0.999198
1
1
1
1
1
1
1
1
1
1
1
1
1
1
1
1
1
0.999989
0.959508
0.877839
0.99451
0.999861
0.999356
1
1
1
1
1
1
1
1
1
1
1
1
1
1
1
1
1
1
0.999837
0.973044
0.928622
0.978568
1
1
1
1
1
1
1
1
1
1
1
1
1
1
1
1
1
1
1
1
0.999836
0.928622
0.95837
0.999959
1
1
1
1
1
1
1
1
1
1
1
1
1
1
1
1
1
1
1
1
0.966457
0.995773
1
1
1
1
1
1
1
1
1
1
1
1
1
1
1
1
1
1
1
1
1
1
1
1
1
1
1
1
0.999993
0.999985
0.99999
0.999999
1
1
1
1
1
1
1
1
1
1
1
1
1
0.999999
1
0.978625
0.949211
0.915823
0.890312
0.889565
0.903954
0.953713
0.997362
0.999999
1
1
1
1
1
1
1
1
1
1
1
1
1
1
0.704621
1
0.999177
0.997781
1
0.983875
0.666922
0.850992
1
1
1
1
0.999513
1
1
0.999652
0.962852
0.929906
0.931707
0.719681
0.999998
1
1
1
1
0.893722
0.959295
0.998382
0.858979
0.733298
0.758812
0.792791
0.841951
0.909983
0.968144
0.996509
1
1
0.52488
0.999997
0.999921
0.999999
1
1
0.878539
0.95586
0.762713
0.0887817
0.0526771
0.0747195
0.0946676
0.135465
0.244926
0.486121
0.796255
0.999994
1
0.145384
0.948274
0.999956
0.999995
0.999999
0.999999
0.877543
0.882146
0.340157
0.00204625
0.000313157
0.000230418
0.000211971
0.000577909
0.00253578
0.0103572
0.233576
0.955725
1
0.368777
0.91137
0.999798
0.999942
0.999985
0.999996
0.970724
0.723818
0.0103306
0.000316336
0.000230095
0.00020583
0.000114802
0.00011841
0.000508117
0.00252843
0.0264543
0.60061
1
0.923468
0.99036
0.999591
0.999776
0.999882
0.999963
0.999598
0.734139
0.024508
0.000181133
0.000216077
0.000196975
4.46799e-05
5.10882e-05
9.99617e-05
0.000494214
0.00321226
0.368457
1
1
0.999858
0.999654
0.999591
0.999063
0.999598
0.998069
0.886022
0.0817243
0.000321948
5.19169e-05
4.79e-05
4.2731e-05
4.34823e-05
4.83443e-05
9.22997e-05
0.000523462
0.282049
1
1
0.999878
0.999796
0.999049
0.936227
0.820866
0.985024
0.944796
0.134752
0.00106443
4.25901e-05
4.23661e-05
4.26e-05
4.2731e-05
4.35316e-05
4.77922e-05
4.9668e-05
0.234617
1
0.356444
0.319858
0.296905
0.308504
0.350442
0.436954
0.568358
0.714187
0.842323
0.939037
1
1
1
1
1
1
1
1
1
1
1
1
1
0
1.4571e-05
0.00445947
0.0306474
0.0606091
0.0806458
0.0874316
0.108226
0.176991
0.296335
0.462714
0.636824
0.757843
0.868511
0.986231
0.999992
1
1
0.999998
0.999998
0.999999
0.999998
0.999999
-2.48838e-22
4.42812e-10
2.43113e-10
2.41531e-10
6.81207e-10
4.18631e-09
1.04429e-08
5.99308e-11
3.66405e-10
3.46216e-09
0.00130381
0.047919
0.113987
0.209671
0.341634
0.514258
0.633041
0.699646
0.789632
0.870372
0.909849
0.932206
0.959557
1.56258e-23
2.38834e-10
2.4239e-10
2.13164e-10
1.573e-10
1.38122e-10
6.16502e-11
3.82968e-11
6.14565e-11
3.65838e-10
2.82538e-09
5.71413e-09
2.16232e-08
1.09226e-07
2.47766e-07
3.68127e-07
0.0161485
0.036263
0.0633746
0.11487
0.173941
0.241842
0.382509
9.82739e-25
7.35406e-09
7.60997e-09
1.63036e-09
1.39135e-10
4.77047e-11
3.82968e-11
3.82573e-11
5.36743e-09
1.47486e-08
5.00232e-09
5.00232e-09
5.71423e-09
2.16232e-08
1.7588e-07
2.62396e-07
3.68127e-07
7.52703e-07
4.4631e-06
3.10712e-05
0.000201336
0.00120838
0.0606929
1.24694e-11
1.20937e-09
2.06063e-09
8.00747e-10
1.37381e-10
4.17456e-11
3.89835e-11
3.82573e-11
3.53487e-08
2.09898e-07
1.36872e-07
5.71423e-09
3.06573e-06
1.31338e-05
1.32586e-05
4.68523e-06
3.92918e-07
2.31986e-07
4.0777e-06
8.71519e-06
4.28525e-05
0.00204469
0.0110172
1.4202e-11
3.02495e-11
5.95029e-11
7.26375e-11
5.17337e-11
6.69825e-11
8.22923e-11
3.83613e-11
3.23116e-08
2.19581e-07
2.19627e-07
2.07807e-07
1.14109e-07
7.65026e-08
7.67004e-08
4.09036e-07
1.0149e-06
1.02306e-07
2.31986e-07
6.90901e-05
0.000214352
0.000316579
0.000354919
2.18611e-12
1.21863e-12
1.9422e-12
4.06853e-12
3.33675e-11
1.11264e-10
1.68601e-10
4.45606e-11
6.93887e-09
8.72184e-08
1.30841e-07
5.02523e-08
5.7601e-07
9.37416e-07
9.21708e-08
7.49938e-09
1.98281e-08
2.25675e-08
1.2383e-06
6.00338e-06
0.000110811
0.000303831
0.00032579
6.75631e-14
1.61527e-13
9.64686e-14
1.21122e-12
2.58544e-11
1.14482e-10
1.79509e-10
1.56963e-10
2.28709e-10
9.12906e-11
5.00127e-10
4.51404e-08
8.55357e-07
9.37416e-07
3.069e-07
6.08606e-09
4.25075e-08
1.56221e-06
2.01066e-06
1.12245e-06
1.4513e-05
0.000263267
0.000341138
3.06046e-15
6.54959e-15
3.90445e-15
4.01648e-13
1.34892e-11
7.97606e-11
1.50918e-10
1.49092e-10
9.34845e-11
7.92132e-11
9.26286e-11
1.15123e-09
1.35726e-07
5.98828e-07
5.87886e-10
4.83619e-09
1.54057e-07
2.55224e-07
1.06425e-07
1.19063e-07
3.94843e-05
0.000330845
0.000341138
1.67928e-16
1.57918e-16
2.17537e-16
1.04548e-13
4.36324e-12
3.15837e-11
7.29285e-11
7.69802e-11
4.81175e-11
7.88677e-11
1.02368e-10
5.25224e-10
3.46975e-11
5.22201e-09
4.79055e-10
8.18506e-09
1.81392e-08
5.02813e-10
3.97783e-09
2.73937e-08
3.89953e-05
0.000253062
0.000230612
9.16198e-18
4.17756e-18
2.22253e-17
2.31955e-14
1.07337e-12
7.95752e-12
1.87264e-11
1.90794e-11
2.33973e-11
8.05906e-11
7.52207e-11
1.21406e-10
7.26424e-12
7.49409e-12
1.01159e-10
7.75277e-10
1.15749e-11
1.43095e-10
5.02813e-10
8.85473e-09
6.5315e-06
0.00016668
0.000231773
4.82574e-19
1.14667e-19
3.50526e-18
4.66582e-15
2.34438e-13
1.62054e-12
3.40944e-12
3.47092e-12
1.25197e-11
5.79478e-11
3.56179e-11
1.95384e-11
6.52153e-12
4.11064e-12
4.1393e-12
7.4378e-13
3.66334e-12
1.58018e-11
1.1256e-10
2.31312e-09
4.9963e-08
2.19872e-05
0.000218179
1.63444e-20
3.31206e-21
1.3352e-18
8.70076e-16
4.55829e-14
2.90778e-13
5.70213e-13
6.80614e-13
3.89181e-12
1.62028e-11
9.62501e-12
7.29761e-12
5.63873e-12
2.7868e-12
6.32738e-13
2.18404e-13
7.58995e-13
3.80787e-12
6.38723e-11
1.23188e-09
2.33808e-08
3.69266e-07
0.000109305
2.1507e-22
1.51378e-22
5.92408e-19
1.47972e-16
7.41016e-15
4.4241e-14
8.84764e-14
1.33005e-13
5.37015e-13
1.77998e-12
2.58998e-12
3.12106e-12
2.95975e-12
6.64184e-13
1.05343e-13
5.7222e-14
3.26378e-13
1.96488e-12
3.30239e-11
5.23809e-10
9.45314e-09
1.37741e-07
1.64245e-05
-7.39647e-21
2.41217e-24
1.95019e-19
2.12122e-17
9.45784e-16
5.48163e-15
1.23701e-14
2.56454e-14
8.53773e-14
2.97376e-13
6.36804e-13
8.02268e-13
5.79205e-13
6.46091e-14
1.49537e-14
1.02659e-14
1.40127e-13
2.27176e-12
1.08654e-11
1.48371e-10
2.44838e-09
3.56446e-08
3.95798e-06
-7.52597e-21
-1.67731e-21
4.14995e-20
2.31353e-18
9.04279e-17
5.54172e-16
1.66031e-15
5.54556e-15
2.1636e-14
6.29998e-14
1.00664e-13
9.32174e-14
4.02613e-14
6.27996e-15
2.17149e-15
1.53577e-15
2.44235e-14
7.5891e-13
8.23082e-12
3.92428e-11
4.8254e-10
1.08227e-08
1.50312e-07
-5.599e-21
-2.35189e-21
3.98443e-21
1.81565e-19
6.33388e-18
4.81576e-17
2.49946e-16
1.34793e-15
5.32156e-15
1.10286e-14
1.25116e-14
8.73307e-15
3.35068e-15
9.5852e-16
3.07037e-16
1.80366e-16
2.12236e-15
8.41107e-14
2.53902e-12
2.28231e-11
9.8113e-11
1.11913e-09
8.2271e-09
-3.82344e-21
-1.72224e-21
6.87086e-23
1.03243e-20
3.39924e-19
4.1021e-18
4.32944e-17
3.16735e-16
1.17373e-15
2.03494e-15
2.17774e-15
1.59387e-15
6.73398e-16
1.8796e-16
4.50016e-17
2.17487e-17
1.49632e-16
7.96381e-15
3.61795e-13
8.83781e-12
5.72374e-11
1.56239e-10
9.61771e-10
-2.42726e-21
-9.42254e-22
-3.04628e-22
3.57873e-22
1.57955e-20
3.91383e-19
7.25606e-18
6.34082e-17
2.45085e-16
4.45881e-16
5.06054e-16
4.01885e-16
1.76636e-16
4.45052e-17
8.35896e-18
4.13037e-18
4.67199e-17
2.01701e-15
7.13029e-14
2.10219e-12
2.95932e-11
1.27685e-10
2.49935e-10
-1.41245e-21
-4.18932e-22
-3.8595e-22
2.24867e-24
7.35279e-22
3.8168e-20
9.75971e-19
1.01303e-17
4.5102e-17
9.16961e-17
1.09569e-16
9.21669e-17
4.22486e-17
1.07285e-17
1.78869e-18
8.23974e-19
1.35626e-17
5.89725e-16
1.74596e-14
4.10535e-13
7.73329e-12
6.70121e-11
1.97882e-10
-7.45459e-22
-1.5356e-22
-2.42488e-22
-1.55815e-23
3.40719e-23
2.98624e-21
9.51522e-20
1.2434e-18
6.43836e-18
1.42536e-17
1.76011e-17
1.55761e-17
7.64008e-18
2.11985e-18
3.49157e-19
1.41198e-19
2.89036e-18
1.40472e-16
4.11799e-15
7.80734e-14
1.38223e-12
1.91426e-11
1.12224e-10
-3.55288e-22
-4.65014e-23
-1.06814e-22
-1.92805e-23
1.48322e-24
1.61492e-22
6.77004e-21
1.13549e-19
6.52332e-19
1.50842e-18
1.89963e-18
1.77018e-18
9.50597e-19
2.99617e-19
5.43712e-20
2.15623e-20
4.75458e-19
2.54624e-17
8.38134e-16
1.64863e-14
3.00268e-13
6.09085e-12
6.25835e-11
-1.52896e-22
-1.17412e-23
-3.64742e-23
-9.61655e-24
3.82159e-26
6.88034e-24
3.77117e-22
7.52154e-21
4.54905e-20
1.07107e-19
1.3677e-19
1.34033e-19
7.95987e-20
2.89735e-20
6.50613e-21
3.09789e-21
6.48148e-20
3.84735e-18
1.5746e-16
3.97452e-15
8.86996e-14
2.5213e-12
3.90475e-11
-5.95447e-23
-2.51615e-24
-1.0177e-23
-3.35766e-24
3.93021e-28
2.83895e-25
1.71658e-23
3.63217e-22
2.2507e-21
5.38416e-21
7.00685e-21
7.16325e-21
4.65839e-21
1.93371e-21
5.75596e-22
3.82238e-22
8.91823e-21
6.24741e-19
3.47187e-17
1.12968e-15
2.67372e-14
8.5469e-13
1.89525e-11
-2.10606e-23
-4.69842e-25
-2.40216e-24
-9.30391e-25
-1.0682e-26
1.20887e-26
6.881e-25
1.42095e-23
8.89204e-23
2.16871e-22
2.8997e-22
3.05107e-22
2.10109e-22
9.45612e-23
3.56983e-23
3.70753e-23
1.40178e-21
1.14924e-19
8.75081e-18
3.63024e-16
7.53988e-15
1.72978e-13
4.78887e-12
-6.79392e-24
-7.98076e-26
-4.91908e-25
-2.16496e-25
-6.12793e-27
5.19156e-28
2.72473e-26
5.42426e-25
3.40288e-24
8.43744e-24
1.15514e-23
1.23756e-23
8.72951e-24
4.05115e-24
1.68125e-24
3.19222e-24
2.22309e-22
1.99945e-20
1.9319e-18
1.07453e-16
2.14192e-15
2.45768e-14
4.86523e-13
-2.0076e-24
-1.34097e-26
-8.90648e-26
-4.37278e-26
-1.94246e-27
2.13212e-29
1.1101e-27
2.18874e-26
1.38227e-25
3.47735e-25
4.84157e-25
5.26168e-25
3.77351e-25
1.78388e-25
7.45716e-26
3.09057e-25
3.05469e-23
2.84233e-21
3.09365e-19
2.36271e-17
5.78501e-16
4.85919e-15
3.4593e-14
-5.45654e-25
-2.54962e-27
-1.44709e-26
-7.83649e-27
-4.67053e-28
1.55633e-31
4.5892e-29
9.07478e-28
5.79123e-27
1.47737e-26
2.08513e-26
2.29472e-26
1.6769e-26
8.08774e-27
3.47666e-27
3.42721e-26
3.49253e-24
3.28634e-22
3.65369e-20
3.59489e-18
1.27982e-16
1.31226e-15
6.3868e-15
-1.36887e-25
-5.99547e-28
-2.13574e-27
-1.26585e-27
-9.31655e-29
1.27633e-47
1.89408e-30
3.7581e-29
2.42158e-28
6.25457e-28
8.9303e-28
9.92841e-28
7.3833e-28
3.62446e-28
1.71104e-28
3.72305e-27
3.48973e-25
3.3615e-23
3.7502e-21
4.29459e-19
2.2164e-17
3.3238e-16
1.91051e-15
-3.17796e-26
-1.61069e-28
-2.89304e-28
-1.86523e-28
-1.61092e-29
-2.02638e-32
7.69339e-32
1.54367e-30
1.0018e-29
2.61282e-29
3.7657e-29
4.21782e-29
3.18069e-29
1.58184e-29
9.11964e-30
3.49727e-28
3.12518e-26
3.13042e-24
3.59782e-22
4.60721e-20
3.18609e-18
6.72856e-17
5.21763e-16
-6.8388e-27
-4.28252e-29
-3.63071e-29
-2.53086e-29
-2.47759e-30
-8.63447e-33
3.07025e-33
6.29051e-32
4.10004e-31
1.07672e-30
1.56216e-30
1.75792e-30
1.33899e-30
6.70809e-31
5.36734e-31
2.72157e-29
2.40989e-27
2.48918e-25
2.97021e-23
4.23434e-21
3.86208e-19
1.06741e-17
1.0489e-16
-1.36537e-27
-1.04558e-29
-4.26126e-30
-3.18706e-30
-3.44851e-31
-1.83374e-33
1.14214e-34
2.54731e-33
1.6614e-32
4.3796e-32
6.37668e-32
7.18871e-32
5.5065e-32
2.76494e-32
3.26436e-32
1.79883e-30
1.55342e-28
1.59187e-26
1.92912e-24
2.98479e-22
3.6797e-20
1.33806e-18
1.47053e-17
-2.53037e-28
-2.30468e-30
-4.72564e-31
-3.75037e-31
-4.39925e-32
-2.95314e-34
3.40438e-36
1.02706e-34
6.67371e-34
1.75987e-33
2.56249e-33
2.88506e-33
2.21128e-33
1.10981e-33
1.88293e-33
1.07923e-31
8.78378e-30
8.45591e-28
9.96057e-26
1.58694e-23
2.61879e-21
1.32874e-19
1.54289e-18
-4.35382e-29
-4.59627e-31
-5.0115e-32
-4.14995e-32
-5.19658e-33
-3.95381e-35
3.66872e-38
4.12314e-36
2.66102e-35
6.99544e-35
1.01495e-34
1.1376e-34
8.67689e-35
4.34536e-35
1.01076e-34
6.23118e-33
4.80516e-31
4.21743e-29
4.6243e-27
7.21698e-25
1.49897e-22
1.09584e-20
1.39966e-19
-6.95543e-30
-8.314e-32
-5.1527e-33
-4.34381e-33
-5.73476e-34
-4.57017e-36
-1.97593e-44
1.64434e-37
1.0545e-36
2.75514e-36
3.9698e-36
4.41627e-36
3.33446e-36
1.6665e-36
5.10526e-36
3.4748e-34
2.67422e-32
2.2116e-30
2.25386e-28
3.42436e-26
8.47988e-24
8.40049e-22
1.22031e-20
-1.03189e-30
-1.36767e-32
-5.20695e-34
-4.32532e-34
-5.96059e-35
-4.66219e-37
-1.92981e-55
6.50994e-39
4.15755e-38
1.07705e-37
1.53689e-37
1.69284e-37
1.25963e-37
6.2674e-38
2.39571e-37
1.79291e-35
1.45838e-33
1.23245e-31
1.24623e-29
1.93989e-27
5.5594e-25
6.44167e-23
1.00983e-21
-1.4228e-31
-2.05349e-33
-5.2228e-35
-4.11875e-35
-5.87761e-36
-4.25644e-38
-1.06137e-59
2.56462e-40
1.6324e-39
4.18622e-39
5.90457e-39
6.42754e-39
4.69824e-39
2.31494e-39
1.0207e-38
8.22164e-37
7.25126e-35
6.73434e-33
7.46449e-31
1.27286e-28
3.91937e-26
4.582e-24
7.17414e-23
-1.82636e-32
-2.817e-34
-5.20904e-36
-3.76836e-36
-5.53398e-37
-3.5098e-39
0
1.00811e-41
6.38816e-41
1.62026e-40
2.25653e-40
2.42472e-40
1.73773e-40
8.44479e-41
3.9929e-40
3.34666e-38
3.14655e-36
3.27965e-34
4.23819e-32
8.07153e-30
2.40763e-27
2.59728e-25
3.88618e-24
-2.18949e-33
-3.53034e-35
-5.11743e-37
-3.32581e-37
-5.00248e-38
-2.63532e-40
-2.08664e-44
3.96139e-43
2.49365e-42
6.25465e-42
8.60104e-42
9.0976e-42
6.36965e-42
2.9706e-42
1.49669e-41
1.2571e-39
1.20656e-37
1.36326e-35
2.01302e-33
4.10598e-31
1.11112e-28
1.07438e-26
1.49041e-25
-2.46417e-34
-4.07168e-36
-4.88349e-38
-2.84026e-38
-4.3604e-39
-1.80784e-41
-6.32338e-46
1.5609e-44
9.41674e-44
2.1275e-43
2.44603e-43
2.31731e-43
1.64409e-43
9.63022e-44
4.64769e-43
4.60576e-41
4.34732e-39
5.0162e-37
7.82415e-35
1.59601e-32
3.88386e-30
3.38138e-28
4.2148e-27
-2.6201e-35
-4.27277e-37
-4.41377e-39
-2.35258e-39
-3.67753e-40
-1.17471e-42
-1.51302e-47
3.09015e-46
4.6023e-45
2.89763e-44
7.76186e-44
1.19796e-43
9.54299e-44
9.54299e-44
9.54299e-44
8.6064e-43
7.93798e-41
9.09291e-39
1.43146e-36
2.83606e-34
6.31442e-32
4.98969e-30
5.57883e-29
1
1
1
1
1
1
1
0.999998
0.978865
0.992545
0.999942
0.992834
0.647069
0.839602
0.812756
0.539417
0.351566
0.455289
0.425786
0.308581
0.0116165
0.0103072
0.0191811
0.0871584
0.000469701
0.00059532
0.00145842
0.0271505
0.000344292
0.000278862
0.000216088
0.00118512
0.000317571
0.000230002
6.60656e-05
0.000215972
0.000174081
9.75489e-05
4.25922e-05
6.52585e-05
4.2418e-05
3.75628e-05
3.8215e-05
4.25948e-05
0.000132944
3.77145e-05
3.77145e-05
3.8215e-05
0.000237699
0.000214085
0.0001087
0.000102413
0.000237017
0.000237865
0.000235452
0.000179085
0.000211896
0.000235452
0.000138707
7.66991e-05
2.62396e-05
3.94143e-05
1.35663e-05
2.6524e-05
3.33818e-07
6.77074e-07
1.87589e-06
8.96584e-06
4.16004e-08
8.96707e-08
2.77752e-07
1.95819e-06
4.86586e-09
1.07479e-08
3.14866e-08
2.10127e-07
6.98181e-10
1.41481e-09
3.67753e-09
1.73271e-08
2.9326e-10
4.21959e-10
7.31376e-10
2.04446e-09
2.30679e-10
3.16829e-10
4.46627e-10
6.30427e-10
1.87586e-10
3.22042e-10
4.53003e-10
5.2119e-10
1.46576e-10
2.99678e-10
4.60588e-10
5.85955e-10
8.90145e-11
2.25197e-10
4.05952e-10
5.60609e-10
2.89231e-11
1.0028e-10
2.38578e-10
4.01242e-10
3.45937e-12
1.84268e-11
6.84983e-11
1.65802e-10
1.65165e-13
1.25684e-12
9.65534e-12
4.24825e-11
1.62992e-14
8.98927e-14
1.40901e-12
1.12127e-11
4.6903e-15
1.67154e-14
2.43464e-13
2.77527e-12
1.48888e-15
4.03148e-15
2.78102e-14
3.48794e-13
3.60255e-16
9.13463e-16
2.32702e-15
1.37315e-14
5.45635e-17
1.55828e-16
3.12568e-16
3.50786e-16
5.13008e-18
1.68021e-17
4.87085e-17
3.71182e-17
3.81604e-19
1.25352e-18
5.82902e-18
4.44718e-18
2.95749e-20
9.57116e-20
5.89013e-19
4.44107e-19
2.43735e-21
1.03813e-20
6.90934e-20
4.24889e-20
1.88234e-22
1.3766e-21
8.52481e-21
3.83345e-21
1.15427e-23
1.43189e-22
7.42003e-22
2.38091e-22
4.76152e-25
7.81026e-24
3.32582e-23
7.7406e-24
1.28179e-26
2.04534e-25
7.60819e-25
1.11076e-25
2.64356e-28
2.1943e-27
1.03772e-26
2.55785e-26
0.999998
0.999947
0.999485
0.898354
0.503162
0.396318
0.876822
0.915928
0.272281
0.00298629
0.000216536
4.25273e-05
4.26854e-05
4.25462e-05
4.28212e-05
4.69581e-05
5.49301e-05
0.168313
0.947887
0.999947
0.999485
0.907412
0.166411
0.187918
0.384421
0.887379
0.890122
0.723179
0.0760216
0.000554637
4.67171e-05
4.26805e-05
4.28212e-05
4.69424e-05
5.49308e-05
5.97866e-05
0.0999455
0.890455
0.915381
0.789338
0.167479
0.0041738
0.195815
0.425349
0.444247
0.800698
0.718926
0.0976591
0.00036688
0.000105792
4.68709e-05
4.669e-05
8.21889e-05
9.25113e-05
7.46982e-05
0.0568001
0.833584
0.339451
0.113796
0.000239836
0.00263624
0.00373645
0.00276011
0.00326259
0.179535
0.285899
0.058785
0.000599015
6.90339e-05
4.99231e-05
0.000143323
0.000359481
0.000326492
0.000151247
0.0322901
0.765021
0.150233
0.00434459
0.000206702
0.000184679
0.000200328
0.000272962
0.00282287
0.00541965
0.00587782
0.00350868
0.000203737
9.08021e-05
5.74594e-05
0.00119992
0.0025722
0.00191859
0.000521561
0.0226945
0.718767
0.204239
0.230042
0.000184679
0.000164682
0.000166611
0.000244281
0.00220033
0.00347038
0.00218912
0.000957395
0.000408544
9.08027e-05
0.0025308
0.09149
0.264715
0.184084
0.0108798
0.0230389
0.707853
0.175283
0.26877
0.180616
0.000158572
0.000141306
0.000149825
0.000333813
0.0008847
0.0012979
0.0022073
0.000958306
0.0351628
0.269149
0.678781
0.828499
0.728994
0.0886379
0.0765904
0.739006
0.0342906
0.273687
0.33455
0.091597
0.000140926
0.000134886
0.00014558
0.000232218
0.00054595
0.00145707
0.0422624
0.479154
0.796267
0.840786
0.84182
0.826303
0.201799
0.217149
0.799269
0.00118526
0.112171
0.34142
0.342828
0.0711454
0.000136082
0.000132197
0.00014558
0.000232218
0.000729344
0.26326
0.794297
0.839546
0.841789
0.756743
0.358192
0.191902
0.356481
0.846386
0.000219695
0.00567682
0.197032
0.357352
0.359086
0.145084
0.000134593
0.000132246
0.000156697
0.015449
0.388114
0.474605
0.633992
0.839546
0.546626
0.196651
0.191369
0.240468
0.678538
8.04646e-05
0.000270136
0.00467583
0.204898
0.360591
0.360591
0.150605
0.000154957
0.000176691
0.0870985
0.343813
0.00888138
0.162984
0.828761
0.771961
0.257594
0.202347
0.509369
0.822429
4.74913e-05
8.35072e-05
0.00026165
0.0013747
0.136193
0.352021
0.274785
0.00159652
0.000403899
0.152286
0.263384
0.00176748
0.0803279
0.712846
0.873809
0.89131
0.730094
0.932272
0.983731
0.00010743
9.44277e-05
0.000117019
0.00023585
0.00108606
0.101701
0.45584
0.375793
0.0993204
0.311899
0.157459
0.000180018
0.0011852
0.104656
0.800772
0.964701
0.988186
0.997967
1
8.21951e-05
8.21965e-05
9.43915e-05
0.000252783
0.0349907
0.23348
0.481228
0.479925
0.474186
0.275851
0.000177861
2.25299e-06
1.52037e-05
0.000102802
0.0591857
0.444995
0.75552
0.924463
0.971531
8.21962e-05
9.11165e-05
0.000225845
0.0217721
0.354145
0.481307
0.481408
0.481228
0.365095
0.00974118
2.25418e-06
2.67535e-07
1.54667e-06
9.26715e-06
5.48472e-05
0.00035082
0.0476926
0.32574
0.777962
6.5516e-05
0.000213373
0.00135915
0.07928
0.386833
0.48143
0.41915
0.173674
0.0338744
2.01089e-05
1.81538e-07
7.30636e-08
2.56688e-07
1.30919e-06
9.0877e-06
5.83939e-05
0.00035137
0.0259196
0.658771
3.77796e-05
0.00215854
0.00948062
0.00557781
3.13971e-06
0.000509084
0.0230391
0.00326711
0.000133796
2.46022e-06
3.97032e-08
2.28478e-08
5.83957e-08
3.58976e-07
3.75883e-06
2.90936e-05
0.000234266
0.029878
0.23254
4.66998e-05
0.000986847
0.00208802
0.000557052
1.86722e-06
5.39073e-07
1.33882e-05
1.64713e-05
1.84359e-05
2.31323e-07
2.16445e-08
1.97137e-08
1.56879e-08
6.21854e-08
5.54515e-07
8.39464e-05
0.000854276
0.00227665
4.62322e-20
9.00878e-06
9.0923e-06
1.03767e-05
1.45303e-05
7.80713e-06
5.24225e-07
3.31396e-07
1.40241e-06
3.1852e-06
1.02288e-07
2.02228e-08
1.88604e-08
1.86422e-08
8.48844e-09
6.37151e-09
0.000215944
0.000398784
0.000985045
0
1.32028e-07
9.63421e-07
8.42742e-07
1.8239e-06
2.53417e-06
5.28911e-07
2.24325e-08
1.19636e-07
2.58114e-07
6.72219e-07
6.72089e-08
1.86422e-08
1.80884e-08
1.80166e-08
8.52616e-09
8.52616e-09
0.00167256
0.00292748
0.187012
1.26364e-08
8.07972e-08
6.47552e-08
7.81134e-08
1.38268e-08
5.51472e-08
1.80812e-08
2.1296e-08
3.77537e-08
5.01034e-07
3.7923e-07
2.97841e-08
1.53929e-08
1.79101e-08
8.52616e-09
9.85972e-09
0.00596921
0.00310103
0.398068
1.58567e-09
6.46757e-09
4.35945e-09
1.57754e-09
8.24197e-09
1.20804e-08
1.39754e-08
1.57116e-08
2.31744e-08
4.29949e-08
1.01723e-07
7.93481e-08
1.12924e-08
1.02405e-08
9.25832e-09
5.25218e-05
0.00654877
0.00568841
0.108463
6.78639e-10
1.05963e-09
8.12998e-10
4.91851e-10
3.17205e-10
9.86826e-08
2.15264e-07
1.28299e-07
2.32962e-08
1.25412e-08
1.09813e-08
1.02984e-08
1.02405e-08
1.0233e-08
1.0239e-08
0.000819259
0.00617805
0.00231257
-2.11634e-24
6.74284e-10
7.14229e-10
5.58575e-10
4.44499e-10
2.84868e-10
3.96096e-07
5.52124e-07
5.55845e-07
4.43325e-07
8.38075e-08
1.18644e-08
1.05108e-08
1.02765e-08
1.02405e-08
1.0239e-08
0.00169642
0.00457777
1.60683e-05
0
6.71854e-10
6.84311e-10
5.67147e-10
4.4577e-10
2.82374e-10
9.41812e-08
5.22734e-07
5.59367e-07
5.59367e-07
5.4263e-07
1.35109e-07
1.1799e-08
1.04454e-08
1.02765e-08
1.0241e-08
0.00168655
1.62616e-05
6.4052e-06
0
5.47168e-10
6.2514e-10
5.82766e-10
5.1121e-10
2.80578e-10
2.82374e-10
3.19066e-10
2.58098e-07
5.59367e-07
5.57072e-07
4.64706e-07
7.48428e-08
1.08257e-08
1.03346e-08
1.03398e-08
0.00037166
7.69541e-06
8.99281e-06
-5.09263e-19
3.35637e-10
4.9753e-10
5.27172e-10
4.40879e-10
2.40827e-10
4.13729e-09
5.91684e-09
5.67602e-09
1.86901e-07
5.53257e-07
5.51788e-07
4.57536e-07
4.02355e-08
1.0534e-08
1.03942e-08
1.05491e-08
1.87279e-07
-1.01999e-06
0
1.62481e-10
3.25306e-10
3.73676e-10
2.6995e-10
2.41533e-10
1.12574e-08
1.84038e-08
5.98337e-09
3.82058e-10
1.02258e-07
5.47167e-07
4.9171e-07
7.63912e-08
5.47656e-07
2.68074e-07
1.67043e-07
2.21533e-06
9.926e-06
-6.89968e-05
7.22928e-11
1.73882e-10
2.0009e-10
2.08357e-10
7.18611e-10
1.24409e-09
1.36774e-09
5.84564e-10
3.82059e-10
3.82058e-10
1.73949e-07
2.55483e-07
3.26491e-07
9.09082e-07
2.96092e-07
4.15152e-05
2.31443e-05
6.26226e-05
0.241156
2.83998e-11
7.75934e-11
1.12577e-10
2.1269e-10
6.62154e-10
6.35755e-10
4.87724e-10
3.82452e-10
3.82058e-10
9.94934e-10
3.41358e-09
3.50657e-08
2.93446e-08
7.66356e-07
0.000150476
0.000123076
8.15304e-05
0.000316357
0.556825
8.84658e-12
3.3535e-11
7.63888e-11
2.24664e-10
2.39498e-10
4.05257e-09
2.27814e-08
2.44829e-09
3.82452e-10
6.14008e-09
7.95393e-09
7.78598e-09
7.78598e-09
8.62069e-08
7.3756e-05
4.64709e-05
0.00557427
0.0113245
0.52715
2.29531e-12
1.51484e-11
5.97683e-11
6.17386e-11
8.82074e-13
6.85681e-08
2.86926e-07
4.25086e-08
4.46361e-10
5.32897e-09
3.38346e-08
2.0576e-07
2.3195e-05
3.86278e-06
8.24419e-08
4.92204e-07
0.0128695
0.0319858
0.048581
4.88271e-13
5.99348e-12
3.22827e-11
2.0687e-11
5.83674e-13
1.23064e-07
3.18766e-07
2.35288e-07
3.07162e-09
4.3533e-09
9.87334e-07
1.28626e-05
2.42298e-05
9.63893e-06
3.02034e-08
0.000437918
0.0097434
0.00251856
3.2145e-20
6.93103e-14
1.44696e-12
1.00477e-11
8.03692e-12
4.99354e-13
1.13717e-08
2.99183e-07
3.186e-07
1.44728e-07
1.7166e-08
2.82291e-06
1.00667e-05
9.90181e-06
1.24684e-06
7.93997e-09
0.000351507
6.64814e-06
5.08008e-07
-6.65757e-15
5.72393e-15
1.45776e-13
1.31511e-12
2.1095e-12
4.98584e-13
1.67488e-13
8.70832e-14
2.08106e-07
2.90999e-07
3.07933e-07
4.97774e-07
9.55082e-07
3.12102e-07
7.93051e-09
7.96651e-09
0.000158637
5.03413e-07
1.24152e-07
0.0150003
3.433e-16
5.6197e-15
6.80463e-14
2.63728e-13
2.41537e-13
2.37191e-13
7.78981e-14
7.78981e-14
5.86746e-10
1.00116e-07
1.32974e-07
8.75685e-08
3.10316e-08
7.96651e-09
8.00314e-09
1.32053e-06
5.28915e-08
1.00171e-07
0.0314286
2.30389e-17
2.49378e-16
3.98032e-15
1.61853e-14
8.98734e-14
1.97639e-12
2.38181e-12
5.8298e-13
1.34684e-14
2.69098e-14
1.49689e-13
2.38794e-10
1.07676e-08
4.63075e-08
1.78927e-08
1.17965e-08
1.30294e-08
5.28915e-08
0.00306337
1.87125e-18
2.91444e-17
6.07827e-16
1.53106e-15
3.38115e-14
2.3827e-12
3.86855e-12
2.02868e-12
-3.70896e-30
1.78766e-14
1.68308e-08
2.39937e-08
8.81011e-08
8.75579e-08
1.64707e-08
1.17493e-08
1.00198e-06
4.06826e-07
0
1.63966e-19
3.73255e-18
7.64158e-17
1.48233e-16
1.27502e-14
1.04912e-12
1.13316e-12
3.45284e-13
-1.85464e-13
-3.03763e-26
9.41915e-08
9.42527e-08
8.84751e-08
1.26143e-08
2.52909e-13
2.91102e-08
1.29857e-06
7.81244e-07
0
1.24136e-20
3.00588e-19
3.94529e-18
1.03081e-17
2.90481e-15
6.64901e-14
3.43151e-14
2.84725e-15
-1.64943e-13
8.10171e-09
4.99805e-08
5.11526e-08
-3.10568e-30
-5.68203e-30
1.01298e-28
3.17346e-10
8.30766e-07
8.52092e-08
-2.43011e-25
5.93618e-22
1.14205e-20
7.43001e-20
4.67324e-19
1.8289e-16
3.22489e-16
5.96934e-17
7.29159e-19
-5.06105e-14
-5.21004e-15
-2.9812e-16
-1.70756e-17
-1.08433e-18
-7.14836e-20
-4.53934e-21
3.16658e-08
3.73428e-14
0
-1.85403e-30
9.54188e-24
1.33056e-22
5.06032e-22
6.77952e-21
1.37385e-18
3.44337e-19
1.92543e-20
-2.20817e-19
-5.69875e-19
-2.61749e-19
-7.49594e-20
-1.58327e-20
-2.4765e-21
-3.12551e-22
-3.2661e-23
-3.22653e-24
-4.78336e-25
-5.37372e-26
-2.49865e-27
)
;

boundaryField
{
    leftWall
    {
        type            zeroGradient;
    }
    rightWall
    {
        type            zeroGradient;
    }
    lowerWall
    {
        type            zeroGradient;
    }
    atmosphere
    {
        type            inletOutlet;
        inletValue      uniform 0;
        value           nonuniform List<scalar> 
46
(
-2.6201e-35
-4.27277e-37
-4.41377e-39
-2.35258e-39
-3.67753e-40
-1.17471e-42
-1.51302e-47
3.09015e-46
4.6023e-45
2.89763e-44
7.76186e-44
1.19796e-43
9.54299e-44
9.54299e-44
9.54299e-44
8.6064e-43
7.93798e-41
9.09291e-39
1.43146e-36
2.83606e-34
6.31442e-32
4.98969e-30
5.57883e-29
2.64356e-28
2.1943e-27
1.03772e-26
2.55785e-26
9.54188e-24
1.33056e-22
5.06032e-22
6.77952e-21
0
0
0
0
0
0
0
0
0
0
0
0
0
0
0
)
;
    }
    defaultFaces
    {
        type            empty;
    }
}


// ************************************************************************* //
