/*--------------------------------*- C++ -*----------------------------------*\
| =========                 |                                                 |
| \\      /  F ield         | OpenFOAM: The Open Source CFD Toolbox           |
|  \\    /   O peration     | Version:  5.x                                   |
|   \\  /    A nd           | Web:      www.OpenFOAM.org                      |
|    \\/     M anipulation  |                                                 |
\*---------------------------------------------------------------------------*/
FoamFile
{
    version     2.0;
    format      ascii;
    class       volScalarField;
    location    "0.65";
    object      p;
}
// * * * * * * * * * * * * * * * * * * * * * * * * * * * * * * * * * * * * * //

dimensions      [1 -1 -2 0 0 0 0];

internalField   nonuniform List<scalar> 
2268
(
498.473
497.569
498.994
503.454
512.761
527.73
547.524
568.611
588.931
609.239
630.223
651.882
673.807
695.566
716.81
736.931
754.862
770.824
783.377
785.834
786.06
807.788
841.273
439.261
437.894
439.145
443.481
452.604
467.536
487.662
509.168
529.719
550.128
571.126
592.806
614.796
636.623
657.9
678.09
696.393
712.805
728.717
732.99
721.653
737.13
777.153
379.137
377.464
378.713
382.633
391.184
405.91
426.708
449.136
470.201
490.819
511.991
533.796
555.839
577.684
598.909
618.906
637.361
654.25
670.067
676.906
663.369
671.492
714.849
318.67
316.68
317.746
320.929
328.517
342.923
364.811
388.67
410.53
431.434
452.799
474.773
496.94
518.899
540.253
560.152
578.558
595.572
610.391
619.392
613.497
618.631
658.719
258.408
255.948
256.574
258.767
265.062
279.547
302.852
328.074
350.742
372.038
393.644
415.801
438.114
460.255
481.954
501.822
520.238
537.333
552.171
563.259
566.592
573.663
608.548
198.301
195.662
195.232
196.187
202.691
217.619
241.595
267.397
290.484
312.446
334.572
356.917
379.377
401.709
424.016
443.795
462.265
479.52
494.976
508.379
518.448
528.638
559.727
138.385
137.214
135.09
136.396
142.216
157.382
180.932
206.172
229.154
252.097
275.232
298.084
320.775
343.251
366.537
386.036
404.555
421.921
437.993
453.036
466.932
480.709
508.756
76.6788
74.4299
74.4202
76.5987
83.482
98.4994
120.344
144.024
167.105
191.307
215.784
239.212
262.332
285.49
308.605
328.451
347.092
364.531
381.067
397.285
413.779
431.386
461.765
866.246
805.204
918.869
1084.26
1212.65
1277.62
1371.7
1413.28
1169.18
693.933
387.213
274.217
256.312
259.105
299.695
536.229
1050.14
1432.76
1352.9
789.436
695.079
825.048
1007.21
1132.83
1195.92
1318.07
1372.38
1002.53
418.294
197.83
171.664
177.189
191.997
228.49
407.043
877.436
1321.52
1288.39
702.243
604.146
735.901
925.037
1044.57
1107.68
1283.03
1268.63
524.951
193.767
140.542
137.127
137.533
139.471
145.645
204.428
561.002
1139
1209.87
676.519
546.111
656.338
834.401
946.407
1006.87
1218.3
1034.09
241.907
146.215
135.947
134.722
134.629
134.558
134.802
149.691
281.326
850.159
1107.97
657.969
524.823
587.598
738.922
838.237
888.859
1101.24
693.091
191.413
138.019
135.05
134.728
134.472
134.261
134.288
138.277
180.146
500.589
977.867
634.314
512.589
528.348
639.453
717.15
754.003
964.351
589.866
167.179
135.657
134.753
134.758
134.387
134.117
134.098
135.398
148.611
255.756
825.783
599.089
496.093
473.964
532.979
572.689
593.744
809.42
619.805
160.368
135.869
134.624
134.822
134.275
133.94
133.901
134.458
137.464
155.623
658.008
553.142
468.597
418.778
409.088
393.823
405.038
602.81
553.988
156.703
136.055
134.779
134.892
134.126
133.699
133.638
133.977
134.85
134.582
491.915
23.257
20.0001
20.5753
25.2575
30.269
37.5077
47.1385
58.981
76.671
98.3595
122.256
146.94
171.083
195.501
219.13
238.906
257.499
274.768
291.772
309.236
328.223
351.569
386.736
1.1756
0.808997
0.797432
2.32707
4.08717
5.38456
5.9111
7.23279
11.5147
18.9647
29.6207
44.3304
61.5837
80.4871
100.414
119.368
136.957
152.943
169.095
186.985
207.502
233.941
272.836
0.695593
0.527127
0.403854
0.411474
0.353386
0.287406
0.263219
0.28918
0.318564
0.320865
0.627331
3.13086
7.46169
13.6917
21.9981
32.9645
43.1158
51.0923
59.539
69.6352
82.0553
103.52
149.787
0.370763
0.248045
0.141449
0.169639
0.17089
0.11215
0.0818032
0.11373
0.169497
0.220524
0.270331
0.290446
0.35704
0.426899
0.473712
0.562214
1.43557
2.88056
4.61488
7.49548
10.104
11.0038
30.3615
0.165048
0.104576
0.0575451
0.0704494
0.0505889
0.00282965
-0.0197688
-0.00312508
0.0354729
0.0755721
0.108497
0.152247
0.211574
0.268437
0.326105
0.383496
0.435423
0.498594
0.552551
0.539845
0.303158
-0.605626
-0.502787
-0.0129604
-0.0266637
-0.0553881
-0.0751267
-0.0900831
-0.107032
-0.112017
-0.0975545
-0.0722034
-0.043668
-0.0079702
0.0273135
0.0702167
0.114654
0.156186
0.197819
0.248677
0.312704
0.383921
0.487766
0.641006
0.793541
0.761211
-0.181418
-0.184758
-0.202958
-0.218296
-0.227803
-0.234598
-0.23488
-0.225572
-0.208688
-0.186705
-0.160911
-0.126997
-0.0891331
-0.0490444
-0.00563969
0.0373097
0.0835064
0.131962
0.17805
0.214914
0.269459
0.386314
0.429781
-0.344606
-0.348204
-0.357183
-0.364106
-0.369431
-0.372721
-0.370162
-0.360089
-0.343731
-0.324138
-0.301473
-0.275432
-0.246649
-0.214171
-0.179285
-0.144095
-0.105923
-0.0652129
-0.0242089
0.0121262
0.0638799
0.142445
0.162055
-0.505897
-0.507725
-0.512554
-0.516225
-0.518464
-0.518475
-0.514407
-0.505641
-0.493109
-0.476991
-0.457275
-0.434184
-0.408282
-0.379881
-0.349531
-0.319213
-0.288885
-0.258022
-0.227113
-0.198692
-0.165289
-0.111853
-0.0882796
-0.666059
-0.6668
-0.669251
-0.670963
-0.671044
-0.669228
-0.66457
-0.656632
-0.645529
-0.630965
-0.613774
-0.594366
-0.572861
-0.549528
-0.525375
-0.501289
-0.477426
-0.45437
-0.433112
-0.414671
-0.400902
-0.398465
-0.419447
-0.82536
-0.825883
-0.826657
-0.826813
-0.825549
-0.822949
-0.818076
-0.810771
-0.800703
-0.788256
-0.773776
-0.757426
-0.739529
-0.720633
-0.701492
-0.682801
-0.664815
-0.648545
-0.635294
-0.625973
-0.628392
-0.664735
-0.719947
-0.984408
-0.984679
-0.984549
-0.98388
-0.981991
-0.979108
-0.974414
-0.967863
-0.959337
-0.948963
-0.936885
-0.923345
-0.908713
-0.893525
-0.878366
-0.863743
-0.850141
-0.838624
-0.830007
-0.825693
-0.835845
-0.8705
-0.892328
-1.14355
-1.14358
-1.14304
-1.14201
-1.14002
-1.13713
-1.13292
-1.12732
-1.12022
-1.11169
-1.10189
-1.09105
-1.07949
-1.06759
-1.0558
-1.0445
-1.03417
-1.02559
-1.0195
-1.01866
-1.03059
-1.0546
-1.04964
-1.30289
-1.30277
-1.30211
-1.30101
-1.29916
-1.29659
-1.29304
-1.28846
-1.28281
-1.27613
-1.26854
-1.26023
-1.25141
-1.2424
-1.23351
-1.22502
-1.21727
-1.21061
-1.20583
-1.20698
-1.21984
-1.23982
-1.24388
-1.46248
-1.4623
-1.46171
-1.46073
-1.4592
-1.45711
-1.45435
-1.45088
-1.44669
-1.44181
-1.43633
-1.4304
-1.42419
-1.41792
-1.41181
-1.40608
-1.40097
-1.39657
-1.3932
-1.394
-1.40414
-1.42255
-1.44009
-1.62237
-1.6222
-1.62176
-1.62102
-1.61991
-1.61843
-1.61652
-1.61418
-1.61142
-1.60828
-1.60484
-1.60121
-1.59756
-1.59404
-1.59085
-1.58816
-1.58617
-1.58492
-1.58442
-1.58634
-1.59449
-1.61051
-1.63463
-1.78253
-1.78242
-1.78217
-1.78173
-1.7811
-1.78028
-1.77926
-1.77805
-1.77669
-1.77523
-1.77375
-1.77237
-1.77123
-1.77051
-1.77041
-1.77113
-1.77289
-1.7759
-1.78034
-1.78724
-1.79967
-1.82136
-1.85873
-1.94286
-1.94284
-1.9428
-1.9427
-1.94257
-1.94242
-1.94228
-1.94218
-1.94217
-1.94233
-1.94274
-1.94353
-1.94487
-1.94696
-1.95004
-1.95442
-1.96046
-1.96863
-1.97964
-1.99492
-2.01775
-2.05394
-2.11405
-2.10328
-2.10336
-2.10352
-2.10377
-2.10413
-2.10464
-2.10535
-2.10631
-2.10758
-2.10927
-2.11147
-2.11434
-2.11806
-2.12289
-2.12914
-2.13724
-2.14771
-2.16134
-2.1793
-2.2037
-2.2384
-2.29022
-2.37077
-2.26366
-2.26383
-2.2642
-2.26478
-2.26561
-2.26675
-2.26825
-2.2702
-2.27267
-2.27577
-2.27963
-2.28442
-2.29036
-2.29777
-2.30701
-2.3186
-2.33324
-2.35192
-2.37608
-2.40813
-2.45201
-2.51428
-2.60467
-2.42389
-2.42415
-2.4247
-2.42559
-2.42685
-2.42856
-2.43079
-2.43363
-2.43719
-2.44157
-2.44692
-2.45343
-2.46137
-2.47107
-2.48296
-2.49762
-2.51581
-2.53863
-2.56758
-2.605
-2.65409
-2.72035
-2.81086
-2.58385
-2.58419
-2.5849
-2.58607
-2.58771
-2.58993
-2.5928
-2.59643
-2.60093
-2.60643
-2.61307
-2.62108
-2.63073
-2.64238
-2.65648
-2.67362
-2.69455
-2.72042
-2.75251
-2.79324
-2.84375
-2.91046
-2.99613
-2.74344
-2.74382
-2.74469
-2.7461
-2.74807
-2.75072
-2.75413
-2.75843
-2.76373
-2.77016
-2.77788
-2.78713
-2.79817
-2.81136
-2.82718
-2.84619
-2.86893
-2.89689
-2.93011
-2.97199
-3.02329
-3.0872
-3.16602
-2.90254
-2.90296
-2.90396
-2.90557
-2.90782
-2.91082
-2.91468
-2.9195
-2.92543
-2.93261
-2.94119
-2.95139
-2.96348
-2.97782
-2.99485
-3.01528
-3.03845
-3.06741
-3.10172
-3.14312
-3.19289
-3.25279
-3.32423
-3.06102
-3.06157
-3.06264
-3.06442
-3.06687
-3.07015
-3.07434
-3.07956
-3.08596
-3.09367
-3.10288
-3.11374
-3.12657
-3.14164
-3.15921
-3.18005
-3.20433
-3.23316
-3.26712
-3.30717
-3.3543
-3.40956
-3.47374
-3.21889
-3.21952
-3.22064
-3.22255
-3.22516
-3.22863
-3.23306
-3.23856
-3.24523
-3.25331
-3.26291
-3.27412
-3.28735
-3.30277
-3.3207
-3.3416
-3.36588
-3.39417
-3.42703
-3.46511
-3.50907
-3.55954
-3.61688
-3.37608
-3.37679
-3.37786
-3.37994
-3.38262
-3.38623
-3.3908
-3.39649
-3.40319
-3.41147
-3.42124
-3.43266
-3.44598
-3.46143
-3.47928
-3.49988
-3.52361
-3.55092
-3.5822
-3.61793
-3.65852
-3.70431
-3.7554
-3.5325
-3.53325
-3.53439
-3.5365
-3.53923
-3.54289
-3.5475
-3.55318
-3.56003
-3.56827
-3.57799
-3.58935
-3.60252
-3.61771
-3.63516
-3.65514
-3.67795
-3.70392
-3.73335
-3.76652
-3.80371
-3.84506
-3.89052
-3.68815
-3.68897
-3.69012
-3.69221
-3.69497
-3.69863
-3.7032
-3.70883
-3.71561
-3.7237
-3.73321
-3.74429
-3.75709
-3.77179
-3.78858
-3.80767
-3.82929
-3.85368
-3.88107
-3.91162
-3.94549
-3.9827
-4.02312
-3.84303
-3.8439
-3.84502
-3.8471
-3.84982
-3.85343
-3.85791
-3.86341
-3.87
-3.87782
-3.88699
-3.89763
-3.90987
-3.92387
-3.93978
-3.95778
-3.97802
-4.00068
-4.02592
-4.05385
-4.08452
-4.1179
-4.15383
-3.99713
-3.99804
-3.99912
-4.00116
-4.00381
-4.00732
-4.01166
-4.01694
-4.02326
-4.03072
-4.03942
-4.04949
-4.06103
-4.07417
-4.08904
-4.10577
-4.12449
-4.14532
-4.16837
-4.19371
-4.22133
-4.25118
-4.28308
-4.15049
-4.15139
-4.15243
-4.1544
-4.15695
-4.16033
-4.16446
-4.16947
-4.17544
-4.18246
-4.19061
-4.2
-4.21072
-4.22289
-4.2366
-4.25195
-4.26905
-4.28799
-4.30884
-4.33163
-4.35634
-4.38291
-4.41117
-4.30313
-4.30398
-4.30499
-4.30687
-4.30929
-4.31248
-4.31636
-4.32106
-4.32662
-4.33312
-4.34065
-4.34928
-4.35911
-4.37021
-4.38268
-4.39658
-4.412
-4.42902
-4.44766
-4.46796
-4.48988
-4.51338
-4.53829
-4.4551
-4.45588
-4.45685
-4.45862
-4.46086
-4.46384
-4.46742
-4.47175
-4.47685
-4.48279
-4.48964
-4.49746
-4.50633
-4.51631
-4.52748
-4.53989
-4.5536
-4.56868
-4.58514
-4.603
-4.62225
-4.64281
-4.66459
-4.60645
-4.60715
-4.60807
-4.6097
-4.61175
-4.61447
-4.61771
-4.62164
-4.62623
-4.63156
-4.63768
-4.64465
-4.65252
-4.66135
-4.67118
-4.68208
-4.69408
-4.70723
-4.72154
-4.73703
-4.75368
-4.77144
-4.79022
-4.75727
-4.75786
-4.75872
-4.76018
-4.76202
-4.76444
-4.76732
-4.7708
-4.77485
-4.77953
-4.78489
-4.79097
-4.79782
-4.80547
-4.81396
-4.82335
-4.83365
-4.84489
-4.8571
-4.87029
-4.88443
-4.89949
-4.9154
-4.90761
-4.90807
-4.90885
-4.91013
-4.91172
-4.91382
-4.91631
-4.91931
-4.92279
-4.9268
-4.93137
-4.93654
-4.94234
-4.94881
-4.95596
-4.96384
-4.97246
-4.98185
-4.99203
-5.00299
-5.01472
-5.0272
-5.04036
-5.05754
-5.05785
-5.05854
-5.05962
-5.06095
-5.06271
-5.06477
-5.06727
-5.07015
-5.07346
-5.07722
-5.08147
-5.08622
-5.0915
-5.09732
-5.10371
-5.11069
-5.11828
-5.12648
-5.1353
-5.14473
-5.15475
-5.16531
-5.20716
-5.20732
-5.2079
-5.20877
-5.20982
-5.21122
-5.21283
-5.2148
-5.21706
-5.21965
-5.2226
-5.22591
-5.2296
-5.23369
-5.23819
-5.24312
-5.2485
-5.25433
-5.26062
-5.26738
-5.2746
-5.28227
-5.29034
-5.35654
-5.35654
-5.35702
-5.35765
-5.35841
-5.35944
-5.36056
-5.36201
-5.36362
-5.36549
-5.3676
-5.36997
-5.3726
-5.37551
-5.37871
-5.38221
-5.38601
-5.39012
-5.39456
-5.39933
-5.40442
-5.40981
-5.41549
-5.50568
-5.50559
-5.50594
-5.50633
-5.50679
-5.50746
-5.50799
-5.50895
-5.50992
-5.51105
-5.51232
-5.51373
-5.51531
-5.51705
-5.51896
-5.52104
-5.5233
-5.52574
-5.52838
-5.5312
-5.53421
-5.53741
-5.54078
-5.65468
-5.65454
-5.65469
-5.65482
-5.65497
-5.65521
-5.65539
-5.65571
-5.65603
-5.65641
-5.65683
-5.6573
-5.65783
-5.65841
-5.65904
-5.65973
-5.66048
-5.66128
-5.66215
-5.66308
-5.66407
-5.66512
-5.66623
419.514
440.79
461.47
475.559
309.409
332.779
354.063
370.156
198.441
227.801
253.117
272.799
98.5513
151.625
181.783
183.795
15.2218
35.6927
53.0742
72.5752
1.06723
1.93188
4.30081
10.307
0.474754
0.382174
0.385696
1.01272
0.116942
0.0897854
0.0355138
0.0361784
-0.0974151
-0.0738102
-0.0413684
-0.0197797
-0.410238
-0.365852
-0.290198
-0.210789
-0.702308
-0.654877
-0.566519
-0.454211
-0.859488
-0.81271
-0.735007
-0.631134
-0.997349
-0.950886
-0.883975
-0.80045
-1.20704
-1.17175
-1.12028
-1.05457
-1.43232
-1.41604
-1.39177
-1.36201
-1.65503
-1.66357
-1.66602
-1.66369
-1.90967
-1.95413
-2.01034
-2.07163
-2.19618
-2.26979
-2.37032
-2.49873
-2.46996
-2.55329
-2.66156
-2.80161
-2.70387
-2.78223
-2.87566
-2.98679
-2.90253
-2.97031
-3.04684
-3.13253
-3.07758
-3.13597
-3.20022
-3.27039
-3.23763
-3.28792
-3.34221
-3.40046
-3.38676
-3.42991
-3.4757
-3.52407
-3.52821
-3.56526
-3.6041
-3.64463
-3.66439
-3.69637
-3.72957
-3.7639
-3.79693
-3.82466
-3.85323
-3.88256
-3.92692
-3.95105
-3.97578
-4.00104
-4.0551
-4.07619
-4.09771
-4.11961
-4.182
-4.20051
-4.21934
-4.23845
-4.30795
-4.32425
-4.34081
-4.35758
-4.43313
-4.44752
-4.4621
-4.47688
-4.55763
-4.57029
-4.58313
-4.59614
-4.68148
-4.69255
-4.70378
-4.71514
-4.80478
-4.81433
-4.82402
-4.83383
-4.92773
-4.93582
-4.94402
-4.95231
-5.05056
-5.05725
-5.06401
-5.07085
-5.17347
-5.17881
-5.18422
-5.18968
-5.29656
-5.30064
-5.30476
-5.30891
-5.41987
-5.42273
-5.42562
-5.42852
-5.54336
-5.54505
-5.54675
-5.54846
-5.66709
-5.66764
-5.66819
-5.66875
487.964
429.528
333.919
210.3
141.546
146.155
241.718
305.303
139.796
135.4
135.374
134.902
133.862
133.243
133.133
133.358
133.71
133.471
298.928
384.323
334.068
217.402
116.045
29.5061
-71.3654
-64.3585
4.41168
86.0679
129.174
134.735
134.607
133.576
132.844
132.713
132.967
133.267
133.475
191.758
277.62
189.771
108.618
101.53
90.7953
109.11
87.0083
-1.1666
51.3423
122.078
132.913
134.21
133.56
132.846
132.607
132.913
133.484
134.572
159.88
158.063
92.9483
89.1463
88.1794
86.5429
78.0077
60.1861
42.0197
54.0977
120.032
130.896
134.14
133.927
133.248
132.271
132.496
133.9
135.936
159.662
84.5234
86.3151
86.5169
85.9597
84.5252
79.2905
65.8118
47.9435
60.2245
112.787
128.737
133.755
134.246
133.176
130.537
130.226
131.662
133.101
158.497
35.237
82.3389
87.6195
86.1091
84.8484
82.0056
76.0746
69.8597
78.9074
106.002
122.893
130.436
132.779
126.245
111.11
116.288
123.208
127.327
143.133
8.51223
46.6965
83.5493
85.3863
85.2149
84.0492
82.4009
81.651
85.7637
97.5174
111.584
121.537
113.147
72.0198
36.8428
68.0735
96.5131
115.025
129.123
0.78346
13.7303
55.4508
81.893
84.3875
84.7739
84.3661
84.3847
85.611
89.1671
95.6877
88.9495
87.8961
16.0426
-53.6257
-16.008
31.6479
78.6094
114.611
0.0312441
1.56466
24.9297
62.7502
82.3102
84.8229
84.4765
84.0523
84.2975
85.4663
82.3228
87.5357
71.4518
-33.1842
-74.7035
-53.6638
-15.3899
23.0316
89.704
-0.127663
0.185129
5.87579
36.1744
62.2771
79.8693
83.9882
82.8869
83.1984
84.0734
74.6688
101.482
45.2679
-50.3451
-55.392
-35.2188
-8.75866
20.957
48.1979
-0.317657
-0.237833
0.386236
9.34968
33.8945
55.1322
78.1225
82.0304
81.9859
79.0063
63.3743
55.4968
33.1484
-54.7784
-54.2667
-15.7949
15.6659
53.5445
98.9025
-0.464712
-0.270001
-0.0575632
0.489891
6.75131
19.9257
66.8431
82.0443
81.9833
78.3445
47.6242
27.2439
14.7149
-28.9678
-34.9972
-17.8673
17.0099
78.9295
121.661
-0.653488
-0.416232
-0.195451
0.101772
0.82793
2.40441
30.3969
67.8849
75.3424
56.5388
14.8873
5.6318
1.6193
-4.8114
15.1801
26.436
62.2203
107.241
123.374
-0.93379
-0.708904
-0.442719
-0.368304
-0.829147
-1.82853
11.3452
36.8192
51.0291
6.20583
-0.0725683
-0.836706
-1.9101
-3.38865
-0.408816
29.1566
86.6669
94.294
79.9345
-1.29762
-1.05511
-0.658773
-1.09995
-10.1633
-25.5921
-11.7532
5.85983
3.73058
-4.03968
-2.83101
-2.40663
-3.14641
-3.6956
-3.89565
-1.62312
9.62393
16.2495
9.22824
-1.65399
-1.57122
-1.51273
0.401521
22.0879
24.9554
15.2779
4.08535
-4.2781
-4.52125
-3.95925
-3.79189
-4.03417
-4.21193
-4.1163
-3.37176
-1.88263
-2.37765
14.8288
-2.21377
-2.76419
-4.22072
-4.95564
-4.48132
-3.92667
-2.85348
-4.33198
-4.92014
-4.90556
-4.87573
-4.95876
-4.90636
-4.76597
-4.40034
-3.92936
-3.30131
0.950893
39.2696
-2.78428
-3.70301
-4.85665
-4.82611
-4.37776
-4.07805
-4.07429
-4.19178
-4.55756
-5.06377
-5.49454
-5.64635
-5.48025
-5.2081
-4.76154
-4.30123
-3.82332
-1.488
9.90499
-3.09962
-3.79408
-4.4101
-4.51666
-4.25872
-3.98769
-4.00426
-4.12392
-4.47341
-5.09737
-5.70582
-5.86022
-5.66957
-5.3876
-4.96645
-4.63819
-4.43207
-3.28816
3.04739
-3.20292
-3.61613
-4.00449
-4.16916
-4.10352
-4.01774
-4.03712
-4.1667
-4.47342
-5.01779
-5.55496
-5.71475
-5.56513
-5.31692
-4.97442
-4.77307
-4.50037
-4.29774
-2.71922
-3.29012
-3.55753
-3.82553
-3.99637
-4.05396
-4.06157
-4.1043
-4.2301
-4.47241
-4.85649
-5.23986
-5.38454
-5.28052
-5.06865
-4.80265
-4.70397
-4.48938
-4.55445
-3.50405
-3.39665
-3.59699
-3.7954
-3.94618
-4.0359
-4.08841
-4.14678
-4.25164
-4.42725
-4.67637
-4.92154
-5.02339
-4.93981
-4.74927
-4.52478
-4.45973
-4.24946
-4.49373
3.69845
-3.50379
-3.66149
-3.81554
-3.94346
-4.03696
-4.10527
-4.16883
-4.25259
-4.37334
-4.52889
-4.67419
-4.7337
-4.65792
-4.48005
-4.27849
-4.1649
-3.93273
-4.01085
-3.49153
-3.60878
-3.735
-3.85885
-3.96833
-4.05781
-4.1304
-4.1959
-4.26772
-4.35573
-4.45694
-4.54562
-4.57374
-4.50365
-4.34487
-4.16816
-4.0074
-3.88578
-3.95904
-3.53776
-3.7149
-3.81808
-3.92001
-4.0138
-4.0957
-4.16684
-4.23227
-4.29894
-4.37117
-4.44506
-4.50438
-4.51774
-4.45746
-4.32756
-4.18695
-4.09888
-3.99656
-4.0212
-3.35988
-3.82296
-3.90871
-3.99373
-4.07387
-4.14699
-4.21392
-4.27754
-4.34136
-4.40594
-4.46624
-4.51102
-4.51894
-4.46855
-4.3651
-4.25182
-4.20915
-4.04792
-4.04922
-3.34529
-3.93272
-4.00488
-4.07648
-4.14497
-4.20943
-4.27106
-4.33228
-4.39462
-4.45514
-4.50817
-4.54576
-4.55108
-4.50559
-4.41274
-4.30085
-4.22365
-4.11769
-3.93628
-3.61662
-4.04402
-4.10545
-4.16632
-4.22498
-4.28127
-4.33702
-4.39558
-4.45722
-4.51527
-4.56422
-4.59887
-4.60327
-4.559
-4.46562
-4.34381
-4.27221
-4.26051
-3.78576
-2.3493
-4.15678
-4.20963
-4.26193
-4.3124
-4.36123
-4.41105
-4.46692
-4.52797
-4.58369
-4.63023
-4.665
-4.67056
-4.62638
-4.53243
-4.39772
-4.32317
-4.40615
-4.97
-10.7174
-4.27083
-4.31682
-4.36232
-4.40623
-4.44879
-4.49309
-4.54596
-4.60557
-4.65828
-4.70317
-4.74006
-4.74939
-4.70997
-4.62555
-4.4489
-4.35134
-4.25289
-5.36928
-5.41443
-4.38599
-4.4264
-4.46656
-4.50555
-4.54329
-4.58268
-4.63112
-4.68714
-4.73639
-4.77992
-4.81881
-4.83463
-4.80817
-4.76408
-4.59511
-4.53067
-4.26206
-6.73759
-6.36535
-4.50191
-4.53767
-4.57357
-4.60896
-4.64363
-4.67929
-4.72136
-4.77007
-4.81471
-4.85572
-4.8941
-4.9201
-4.91514
-4.91297
-4.86946
-4.78516
-4.76474
-6.52275
-1.929
-4.61818
-4.64984
-4.68202
-4.71448
-4.74725
-4.78051
-4.81635
-4.85541
-4.89276
-4.92872
-4.96452
-4.9942
-5.02019
-5.07183
-5.15893
-5.30531
-5.73375
-6.12465
-5.17084
-4.73441
-4.76222
-4.79078
-4.82008
-4.85038
-4.88145
-4.91305
-4.94475
-4.97453
-5.00347
-5.03482
-5.07041
-5.11733
-5.20501
-5.36727
-5.73355
-5.88538
-5.92149
-5.05801
-4.85044
-4.87447
-4.89931
-4.92496
-4.95166
-4.97944
-5.00782
-5.03548
-5.06095
-5.08532
-5.11348
-5.14949
-5.1958
-5.26748
-5.36258
-5.51221
-5.51143
-5.68908
-4.96393
-4.96635
-4.98667
-5.00772
-5.02947
-5.05202
-5.07577
-5.10033
-5.12487
-5.14837
-5.17085
-5.19582
-5.22643
-5.26143
-5.30371
-5.34313
-5.38516
-5.34019
-5.46441
-4.56617
-5.08242
-5.09918
-5.11655
-5.13453
-5.15316
-5.17291
-5.19348
-5.21417
-5.23487
-5.2563
-5.27885
-5.30211
-5.32513
-5.35019
-5.36997
-5.39577
-5.37017
-5.44819
-5.19994
-5.19892
-5.21231
-5.22621
-5.24068
-5.2558
-5.27174
-5.28859
-5.30554
-5.32304
-5.34235
-5.36192
-5.37852
-5.39254
-5.40966
-5.42392
-5.45007
-5.46013
-5.46047
-5.40948
-5.31594
-5.32615
-5.33677
-5.3479
-5.35964
-5.37209
-5.38554
-5.39902
-5.41346
-5.43006
-5.44619
-5.4578
-5.46729
-5.48133
-5.49336
-5.51751
-5.52218
-5.52197
-5.51321
-5.43344
-5.44062
-5.4481
-5.45602
-5.4645
-5.47367
-5.48388
-5.49444
-5.50631
-5.52008
-5.53298
-5.54215
-5.55103
-5.56405
-5.57659
-5.59974
-5.60251
-5.60874
-5.61684
-5.55136
-5.55559
-5.56003
-5.5648
-5.57009
-5.57616
-5.5833
-5.59129
-5.60081
-5.61175
-5.62203
-5.63062
-5.64098
-5.65502
-5.67159
-5.69507
-5.70487
-5.71727
-5.72763
-5.66969
-5.67107
-5.67254
-5.67416
-5.67615
-5.67898
-5.68295
-5.68828
-5.6955
-5.70351
-5.71117
-5.7195
-5.73255
-5.75028
-5.77384
-5.80251
-5.8194
-5.84816
-5.83861
)
;

boundaryField
{
    leftWall
    {
        type            calculated;
        value           nonuniform List<scalar> 
50
(
498.473
439.261
379.137
318.67
258.408
198.301
138.385
76.6788
23.257
1.1756
0.695593
0.370763
0.165048
-0.0129604
-0.181418
-0.344606
-0.505897
-0.666059
-0.82536
-0.984408
-1.14355
-1.30289
-1.46248
-1.62237
-1.78253
-1.94286
-2.10328
-2.26366
-2.42389
-2.58385
-2.74344
-2.90254
-3.06102
-3.21889
-3.37608
-3.5325
-3.68815
-3.84303
-3.99713
-4.15049
-4.30313
-4.4551
-4.60645
-4.75727
-4.90761
-5.05754
-5.20716
-5.35654
-5.50568
-5.65468
)
;
    }
    rightWall
    {
        type            calculated;
        value           nonuniform List<scalar> 
50
(
1352.9
1288.39
1209.87
1107.97
977.867
825.783
658.008
491.915
298.928
191.758
159.88
159.662
158.497
143.133
129.123
114.611
89.704
48.1979
98.9025
121.661
123.374
79.9345
9.22824
14.8288
39.2696
9.90499
3.04739
-2.71922
-3.50405
3.69845
-3.49153
-3.53776
-3.35988
-3.34529
-3.61662
-2.3493
-10.7174
-5.41443
-6.36535
-1.929
-5.17084
-5.05801
-4.96393
-4.56617
-5.19994
-5.40948
-5.51321
-5.61684
-5.72763
-5.83861
)
;
    }
    lowerWall
    {
        type            calculated;
        value           nonuniform List<scalar> 
62
(
527.902
526.999
528.423
532.883
542.191
557.16
576.953
598.04
618.361
638.668
659.652
681.312
703.236
724.995
746.24
766.361
784.292
800.216
810.466
811.575
815.489
837.214
870.679
841.273
777.153
714.849
658.719
608.548
559.727
508.756
461.765
482.111
503.388
524.067
538.157
866.246
789.436
702.243
676.519
657.969
634.314
599.089
553.142
886.991
834.633
948.275
1113.62
1242.08
1306.58
1391.34
1438.33
1198.61
723.362
416.642
303.646
285.727
288.534
329.125
565.648
1078.48
1460.13
1380.32
)
;
    }
    atmosphere
    {
        type            calculated;
        value           nonuniform List<scalar> 
46
(
-5.72904
-5.72904
-5.72904
-5.72904
-5.72904
-5.72904
-5.72904
-5.72904
-5.72904
-5.72904
-5.72904
-5.72904
-5.72904
-5.72904
-5.72904
-5.72904
-5.72904
-5.72904
-5.72904
-5.72904
-5.72904
-5.72904
-5.72904
-5.72904
-5.72904
-5.72904
-5.72904
-5.72904
-5.72904
-5.72904
-5.72904
-5.72919
-5.73032
-5.73253
-5.73653
-5.74291
-5.74929
-5.75474
-5.76213
-5.77766
-5.79797
-5.82688
-5.86314
-5.87772
-5.93337
-5.88985
)
;
    }
    defaultFaces
    {
        type            empty;
    }
}


// ************************************************************************* //
