/*--------------------------------*- C++ -*----------------------------------*\
| =========                 |                                                 |
| \\      /  F ield         | OpenFOAM: The Open Source CFD Toolbox           |
|  \\    /   O peration     | Version:  5.x                                   |
|   \\  /    A nd           | Web:      www.OpenFOAM.org                      |
|    \\/     M anipulation  |                                                 |
\*---------------------------------------------------------------------------*/
FoamFile
{
    version     2.0;
    format      ascii;
    class       volScalarField;
    location    "0.65";
    object      p_rgh;
}
// * * * * * * * * * * * * * * * * * * * * * * * * * * * * * * * * * * * * * //

dimensions      [1 -1 -2 0 0 0 0];

internalField   nonuniform List<scalar> 
2268
(
527.902
526.999
528.423
532.883
542.191
557.16
576.953
598.04
618.361
638.668
659.652
681.312
703.236
724.995
746.24
766.361
784.292
800.216
810.466
811.575
815.489
837.214
870.679
527.549
526.182
527.433
531.769
540.892
555.824
575.95
597.456
618.007
638.416
659.414
681.094
703.084
724.911
746.188
766.378
784.681
801.092
813.434
810.503
809.456
825.406
865.384
526.283
524.611
525.86
529.78
538.331
553.056
573.855
596.283
617.347
637.966
659.138
680.943
702.986
724.831
746.056
766.053
784.508
801.397
817.19
820.09
800.023
815.488
861.996
524.675
522.686
523.751
526.934
534.522
548.928
570.816
594.676
616.536
637.44
658.805
680.779
702.946
724.904
746.259
766.157
784.564
801.577
816.396
825.364
804.813
816.069
864.717
523.272
520.812
521.438
523.631
529.927
544.412
567.716
592.938
615.607
636.902
658.508
680.666
702.978
725.119
746.818
766.686
785.103
802.197
817.035
828.123
822.581
837.409
873.412
522.024
519.385
518.955
519.91
526.414
541.342
565.318
591.12
614.207
636.169
658.295
680.64
703.1
725.432
747.739
767.518
785.988
803.243
818.699
832.102
842.171
852.361
883.45
520.967
519.796
517.672
518.978
524.795
539.958
563.51
588.753
611.735
634.679
657.814
680.666
703.356
725.833
749.119
768.617
787.136
804.503
820.575
835.618
849.514
863.291
891.338
508.693
493.472
478.739
469.667
476.221
497.584
541.372
584.301
608.545
632.747
657.225
680.652
703.772
726.93
750.046
769.892
788.533
805.972
822.507
838.726
855.22
872.826
903.206
886.991
834.633
948.275
1113.62
1242.08
1306.58
1391.34
1438.33
1198.61
723.362
416.642
303.646
285.727
288.534
329.125
565.648
1078.48
1460.13
1380.32
853
783.367
913.336
1095.5
1221.12
1284.21
1396.98
1457.07
1090.68
494.144
262.595
238.679
247.202
266.346
308.839
492.521
965.416
1409.81
1376.68
779.547
751.292
883.036
1072.18
1191.72
1254.83
1412.33
1409.29
637.216
206.965
148.432
148.258
151.597
159.532
181.796
276.035
678.198
1286.15
1357.02
706.645
741.471
862.335
1040.41
1152.41
1212.87
1399.11
1215.84
312.117
146.842
136.217
134.976
134.878
134.883
135.53
152.029
329.601
1047.05
1313.98
755.812
766.236
852.408
1003.77
1103.1
1153.72
1358.36
884.877
194.412
138.367
135.375
135.048
134.767
134.557
134.687
139.211
187.411
659.775
1242.73
933.286
833.194
851.939
963.103
1040.83
1077.71
1287.94
827.61
175.429
136.039
135.147
135.146
134.725
134.457
134.455
135.881
149.973
375.239
1149.51
981.671
878.621
856.414
915.404
954.912
976.172
1191.26
958.824
191.986
136.375
135.027
135.222
134.673
134.339
134.302
134.876
138.046
263.804
1040.59
994.582
909.983
860.129
850.109
807.14
767.481
1037.65
971.084
216.57
136.966
135.239
135.352
134.587
134.159
134.099
134.44
135.313
238.489
933.355
213.752
190.997
179.339
190.203
217.565
270.909
350.569
440.129
526.106
599.337
655.723
680.407
704.55
728.968
752.597
772.373
790.966
808.235
825.239
842.703
861.69
885.036
920.203
1.83426
1.47725
4.39044
23.1518
44.6268
59.1084
64.1
79.1044
128.634
214.612
334.746
464.021
560.905
652.628
750.016
778.025
795.619
811.604
827.755
845.645
866.163
892.601
931.498
1.47945
1.31098
1.18771
1.19533
1.13724
1.07126
1.04708
1.07304
1.10242
1.10472
2.43217
41.4388
97.5052
178.663
290.306
436.45
539.616
599.75
678.662
751.983
795.317
834.289
901.974
1.27981
1.1571
1.0505
1.07869
1.07994
1.0212
0.990854
1.02278
1.07855
1.12958
1.17938
1.1995
1.26611
1.33605
1.38299
1.4716
17.0097
36.7216
63.077
112.722
168.977
231.54
378.643
1.19929
1.13883
1.0918
1.1047
1.08483
1.03707
1.01448
1.03112
1.06972
1.10983
1.14275
1.1865
1.24583
1.3027
1.36053
1.41801
1.47005
1.53362
1.59141
1.60619
1.54543
1.67713
63.24
1.14648
1.13278
1.10405
1.08431
1.06936
1.05241
1.04742
1.06189
1.08728
1.11601
1.15163
1.18676
1.23321
1.28931
1.33098
1.36269
1.40857
1.47241
1.54808
1.6573
1.85008
4.32131
14.6816
1.10322
1.09988
1.08168
1.06634
1.05683
1.05004
1.04975
1.05906
1.07599
1.09821
1.124
1.1579
1.19565
1.23569
1.27909
1.32247
1.36944
1.41673
1.46298
1.58822
1.82918
2.07723
2.1699
1.06522
1.06162
1.05265
1.04572
1.0404
1.03711
1.03967
1.04974
1.06611
1.08581
1.10854
1.13447
1.16399
1.19698
1.23067
1.26574
1.30393
1.34465
1.38736
1.43041
1.62978
1.9802
2.03073
1.02913
1.0273
1.02247
1.0188
1.01656
1.01655
1.02062
1.02938
1.04191
1.05803
1.07775
1.10091
1.12805
1.15658
1.18596
1.21582
1.2462
1.2794
1.31099
1.33805
1.39199
1.82689
1.96988
0.994159
0.993418
0.990967
0.989255
0.989174
0.99099
0.995648
1.00359
1.01469
1.02925
1.04644
1.06585
1.08758
1.11168
1.13484
1.15894
1.18305
1.20627
1.22728
1.24574
1.3248
1.81048
1.80657
0.960052
0.959529
0.958755
0.958599
0.959863
0.962463
0.967336
0.974642
0.984709
0.997157
1.01164
1.02799
1.04588
1.06479
1.08392
1.10263
1.12063
1.13687
1.15013
1.15949
1.22657
1.57204
1.47679
0.926199
0.925928
0.926058
0.926727
0.928616
0.931499
0.936192
0.942744
0.95127
0.961644
0.973722
0.987262
1.00189
1.01708
1.03224
1.04687
1.06047
1.07198
1.0806
1.08493
1.08723
1.35825
1.46066
0.892248
0.892224
0.892759
0.893788
0.895782
0.898671
0.902877
0.908483
0.915579
0.92411
0.933916
0.944746
0.956311
0.968211
0.980005
0.991298
1.00163
1.01021
1.0163
1.01715
1.00531
1.02591
1.42989
0.858104
0.858229
0.858884
0.859986
0.861831
0.864411
0.86796
0.872535
0.878185
0.884865
0.892452
0.900766
0.909582
0.918598
0.92749
0.935975
0.943725
0.950382
0.955161
0.954019
0.941203
0.921971
1.15309
0.823707
0.823887
0.824481
0.825463
0.826993
0.829076
0.83184
0.835312
0.839504
0.844381
0.849856
0.85579
0.862
0.868273
0.874379
0.880108
0.885223
0.889622
0.892991
0.892195
0.882073
0.863959
0.88361
0.789014
0.789182
0.789623
0.790365
0.791474
0.792953
0.79486
0.797201
0.799961
0.803101
0.806543
0.81017
0.813829
0.817344
0.820537
0.823223
0.825215
0.826462
0.826965
0.825043
0.816897
0.800963
0.78629
0.754054
0.754163
0.754411
0.754846
0.755477
0.756299
0.757322
0.758532
0.759892
0.761351
0.762825
0.764206
0.765347
0.766068
0.766173
0.765453
0.763687
0.760675
0.756236
0.749336
0.736907
0.715249
0.678226
0.71891
0.718931
0.718973
0.719069
0.719201
0.71935
0.719496
0.719598
0.719604
0.719447
0.719034
0.718241
0.716904
0.714819
0.711734
0.707353
0.701311
0.693142
0.682133
0.666856
0.644021
0.607837
0.547748
0.683689
0.683613
0.683446
0.683197
0.682836
0.682324
0.681621
0.680664
0.679384
0.677698
0.675496
0.672632
0.66891
0.664081
0.657826
0.649733
0.639255
0.62563
0.607667
0.583268
0.548565
0.496754
0.416197
0.6485
0.64833
0.647962
0.647379
0.64655
0.645414
0.643913
0.641967
0.639495
0.636392
0.632533
0.627747
0.6218
0.614397
0.605154
0.593562
0.578921
0.560247
0.536079
0.504034
0.460155
0.397886
0.307499
0.613464
0.613207
0.612655
0.611763
0.610503
0.608796
0.606567
0.603724
0.600171
0.595791
0.590441
0.583926
0.575986
0.566286
0.554393
0.539739
0.521549
0.498731
0.469774
0.432357
0.383272
0.317008
0.226501
0.578698
0.578367
0.577649
0.576481
0.574838
0.572624
0.569752
0.566121
0.561621
0.556125
0.549479
0.54147
0.531821
0.520175
0.506074
0.488936
0.468005
0.442132
0.410041
0.369309
0.318799
0.252096
0.166425
0.544308
0.543923
0.543058
0.541649
0.539677
0.53703
0.533613
0.529317
0.52402
0.517589
0.509862
0.50062
0.489581
0.476383
0.460566
0.441558
0.41882
0.390855
0.357633
0.315757
0.264457
0.200549
0.121729
0.510398
0.509977
0.508979
0.507366
0.505123
0.502122
0.498266
0.493437
0.487507
0.480334
0.471753
0.461555
0.449459
0.435118
0.418088
0.397659
0.374491
0.345529
0.311217
0.269823
0.220051
0.160155
0.0887132
0.477116
0.476561
0.475491
0.473718
0.471265
0.467989
0.4638
0.458572
0.45218
0.444461
0.435259
0.424393
0.411569
0.396495
0.378924
0.358084
0.333804
0.304972
0.271018
0.230967
0.18384
0.128578
0.0643997
0.444439
0.443808
0.442693
0.440776
0.438174
0.434698
0.430275
0.424774
0.418103
0.410024
0.400417
0.38921
0.375982
0.360558
0.342629
0.321734
0.29745
0.269158
0.236301
0.19822
0.154262
0.10379
0.0464465
0.412448
0.411738
0.41066
0.408589
0.405906
0.402297
0.397728
0.392036
0.385338
0.377057
0.367287
0.355866
0.342546
0.327096
0.309242
0.288644
0.264915
0.23761
0.20632
0.17059
0.130007
0.0842157
0.0331241
0.381222
0.380465
0.379326
0.37722
0.374491
0.370828
0.366224
0.360539
0.353691
0.345452
0.335728
0.324373
0.311202
0.296008
0.278557
0.25858
0.235771
0.2098
0.180373
0.147195
0.110012
0.0686571
0.0231988
0.350763
0.349945
0.348794
0.346704
0.343948
0.340289
0.335714
0.330088
0.323306
0.315216
0.305699
0.29462
0.281819
0.267123
0.250337
0.231246
0.209622
0.185229
0.157844
0.127289
0.0934275
0.0562147
0.0157946
0.32108
0.320208
0.319084
0.317013
0.314286
0.310676
0.306193
0.300703
0.294108
0.286285
0.277116
0.266479
0.254234
0.240235
0.224323
0.206332
0.186091
0.163429
0.13819
0.110261
0.0795908
0.0462089
0.0102824
0.292168
0.291261
0.290185
0.288147
0.285494
0.281978
0.277646
0.272362
0.266043
0.258585
0.249879
0.239816
0.228274
0.215131
0.20026
0.18353
0.164811
0.14398
0.120932
0.0955971
0.0679736
0.0381253
0.0062212
0.264008
0.263106
0.26207
0.260094
0.257546
0.254172
0.250041
0.245023
0.239053
0.232041
0.223889
0.2145
0.203774
0.191607
0.177898
0.162545
0.145443
0.126505
0.105659
0.0828719
0.0581577
0.031588
0.00332253
0.236564
0.235709
0.234705
0.23282
0.230407
0.227213
0.223334
0.218634
0.213073
0.206572
0.199046
0.190411
0.180583
0.169478
0.157015
0.143112
0.127687
0.110677
0.0920315
0.0717356
0.0498079
0.0263145
0.00139724
0.209791
0.209005
0.208041
0.206271
0.204022
0.20105
0.197465
0.193133
0.188032
0.182095
0.175251
0.167428
0.158558
0.148574
0.13741
0.125
0.111283
0.0962099
0.0797475
0.0618849
0.0426414
0.0220721
0.000298972
0.183629
0.182928
0.182014
0.180384
0.178328
0.175615
0.172367
0.168442
0.163846
0.158517
0.152398
0.14543
0.13756
0.128733
0.118898
0.108001
0.0959979
0.0828524
0.0685387
0.0530494
0.036402
0.0186403
-0.000134894
0.158006
0.157417
0.15656
0.155093
0.153259
0.150838
0.147959
0.144477
0.140425
0.135741
0.130382
0.124301
0.117457
0.109807
0.101311
0.09193
0.0816301
0.0703839
0.0581708
0.0449856
0.0308448
0.0157824
-0.000121397
0.13286
0.132404
0.131621
0.13034
0.128751
0.126648
0.124164
0.12116
0.117683
0.113674
0.109102
0.10393
0.0981285
0.0916643
0.0845081
0.0766318
0.0680087
0.0586185
0.048445
0.0374832
0.025749
0.0132681
0.000105196
0.108123
0.10781
0.107121
0.106043
0.104716
0.102952
0.100894
0.0983951
0.0955194
0.0922079
0.0884407
0.0841936
0.0794429
0.0741685
0.0683461
0.0619534
0.0549727
0.0473866
0.0391858
0.0303632
0.020932
0.0109131
0.000357345
0.0836976
0.08354
0.0829547
0.0820924
0.0810421
0.0796363
0.0780331
0.0760583
0.0738039
0.0712072
0.0682614
0.0649507
0.0612592
0.0571709
0.0526689
0.0477348
0.0423599
0.0365313
0.0302411
0.0234795
0.0162567
0.00859201
0.000522318
0.0595129
0.0595092
0.0590312
0.0584009
0.0576404
0.0566091
0.0554937
0.0540484
0.0524297
0.0505606
0.0484492
0.0460853
0.0434548
0.0405444
0.037345
0.0338484
0.0300479
0.0259345
0.0214939
0.0167226
0.0116337
0.00623958
0.000561217
0.0355689
0.0356556
0.0353046
0.0349229
0.0344593
0.0337854
0.0332569
0.0322965
0.0313248
0.0301972
0.0289287
0.0275158
0.0259411
0.0242014
0.0222916
0.0202118
0.0179524
0.0155101
0.0128726
0.0100437
0.00703341
0.00383955
0.000473057
0.0117653
0.0119002
0.0117483
0.0116211
0.0114742
0.0112368
0.0110483
0.0107375
0.0104111
0.010033
0.00961005
0.00913848
0.00861398
0.00803511
0.00740092
0.00671261
0.00596462
0.00515954
0.00429085
0.003361
0.00237121
0.00131899
0.000209255
952.981
974.257
994.937
1009.03
968.07
991.441
1012.72
1028.82
965.746
1005.82
1036.93
1051.04
687.09
915.012
920.789
674.571
379.498
507.136
494.035
392.439
15.6819
15.03
27.6773
112.42
2.36218
2.43081
3.542
37.1409
2.01168
1.89237
1.74968
3.11515
1.9246
1.81392
1.59497
1.84643
1.5387
1.45616
1.44066
1.55766
1.15876
1.19753
1.28705
1.40717
1.30487
1.16988
1.24758
1.35241
1.52188
1.52031
1.3729
1.44364
1.46563
1.50276
1.54902
1.49305
1.33782
1.4079
1.21121
1.09935
0.81957
0.842767
0.778042
0.811589
0.627751
0.584162
0.530994
0.487671
0.465706
0.392223
0.292191
0.168252
0.317023
0.233708
0.125494
-0.0140588
0.208291
0.129941
0.03651
-0.074576
0.134831
0.067045
-0.00948419
-0.0951635
0.0849773
0.0265803
-0.0376669
-0.10784
0.0501205
-0.000173844
-0.0544618
-0.112715
0.0261781
-0.0169631
-0.0627583
-0.111129
0.00992808
-0.0271244
-0.0659613
-0.106494
-0.00106006
-0.0330363
-0.0662368
-0.100571
-0.00840589
-0.0361303
-0.0647025
-0.0940389
-0.0131976
-0.0373333
-0.062062
-0.0873166
-0.016185
-0.0372797
-0.0588001
-0.0806961
-0.0178901
-0.0364028
-0.055232
-0.07434
-0.0186475
-0.0349507
-0.0515027
-0.0682723
-0.0186366
-0.0330178
-0.0476072
-0.0623778
-0.0179356
-0.0305982
-0.043442
-0.0564436
-0.0165914
-0.0276609
-0.0388902
-0.0502562
-0.0147003
-0.0242525
-0.0339422
-0.043745
-0.0124558
-0.020547
-0.0287482
-0.0370375
-0.0100929
-0.0167763
-0.0235442
-0.0303798
-0.00780537
-0.0131483
-0.0185577
-0.024017
-0.00570444
-0.00977604
-0.0138969
-0.0180515
-0.00381522
-0.00667353
-0.00956162
-0.0124689
-0.00211673
-0.00380302
-0.00550307
-0.00721234
-0.000642991
-0.00119648
-0.00175103
-0.00230659
1021.43
962.967
867.112
689.596
410.231
357.9
709.54
793.965
285.438
137.525
136.023
135.458
134.419
133.799
133.69
133.917
134.272
223.704
804.622
1042.95
992.391
815.14
226.203
153.815
182.243
520.198
590.773
562.58
179.856
135.759
135.296
134.263
133.531
133.403
133.662
133.965
199.898
778.339
995.213
808.664
240.55
105.582
244.916
442.973
435.669
626.621
615.097
199.336
133.984
135.076
134.38
133.666
133.455
133.77
134.326
179.834
813.42
467.241
197.2
90.2732
91.4825
90.8452
81.4233
64.058
205.972
314.643
174.327
132.349
135.111
134.881
134.287
133.507
133.702
134.946
166.169
855.319
240.78
91.8383
87.7647
87.1847
85.7664
80.6068
69.7626
54.5774
67.3318
117.447
129.981
134.883
135.339
135.45
134.229
133.243
133.235
157.583
902.169
272.962
349.951
88.9928
87.4593
86.2008
83.448
79.7827
75.0388
82.6025
108.27
124.526
131.7
136.87
233.376
418.883
330.668
136.969
155.172
964.184
234.746
392.907
316.627
86.8744
86.6809
85.5261
84.1139
84.071
88.714
101.635
114.099
167.948
459.845
944.417
1101.38
1004.91
211.551
214.602
1078.81
50.4889
400.606
528.048
212.31
85.9958
86.3737
85.981
86.1216
87.7898
92.6291
156.621
765.21
1210.78
1201.63
1133.42
1149.18
317.276
385.856
1241.73
3.38385
175.112
550.029
590.007
192.946
86.5666
86.2143
85.8105
86.1886
88.1198
487.564
1307.12
1360.42
1259.23
1087.29
497.155
280.425
571.226
1389.16
1.89693
11.2607
334.324
630.523
659.502
322.16
85.8717
84.7664
85.1186
111.357
720.038
890.302
1098.44
1343.75
852.879
292.599
310.299
421.447
1175.25
1.61127
2.0294
10.5116
376.597
678.84
700.077
348.531
84.0922
84.0865
236.143
678.394
73.1233
325.636
1425.21
1324.41
445.442
378.362
963.855
1567.6
1.53654
1.8
2.35245
5.02439
268.613
693.738
593.235
87.0022
84.6649
370.922
552.255
32.5281
169.947
1333.55
1634.75
1685.28
1412.45
1860.26
2001.21
1.6008
1.81161
2.07834
2.61724
5.07253
211.275
959.504
834.196
279.373
692.905
337.157
8.03372
6.06553
210.071
1645.8
1990.45
2073.99
2138.91
2159.18
1.40465
1.62954
1.92205
2.33841
76.8711
504.376
1052.4
1075.06
1076.88
603.883
2.4724
1.32915
0.28372
-1.00573
129.524
991.989
1719.87
2092.22
2179.47
1.1763
1.43919
2.14323
50.9117
800.957
1075.95
1090.02
1107.23
839.86
20.4944
-0.539676
-0.119832
-0.856689
-1.38825
-1.48419
1.4643
120.835
762.495
1788.3
0.915221
1.35418
4.17282
193.796
956.369
1187.12
1027.41
424.874
79.7358
-2.06142
-1.54743
-1.38032
-1.62217
-1.79739
-1.68303
-0.819704
1.37519
62.4733
1604.2
0.418547
5.24222
22.3401
11.7154
-1.93679
-0.100052
58.0651
6.48359
-2.04451
-2.36275
-2.33905
-2.42213
-2.36963
-2.22848
-1.85424
-1.31906
-0.171095
79.1996
631.072
0.00167727
1.5829
3.3574
-0.683076
-1.71102
-1.41484
-1.37692
-1.48621
-1.84676
-2.40138
-2.83271
-2.98453
-2.81843
-2.54616
-2.09829
-1.41623
1.11007
7.22764
12.5668
-0.287572
-0.981798
-1.59424
-1.68924
-1.45001
-1.19927
-1.21637
-1.33304
-1.67757
-2.31011
-2.9188
-3.0732
-2.88255
-2.60061
-2.17946
-1.24999
-0.534813
2.24135
5.83436
-0.290377
-0.701159
-1.08987
-1.25169
-1.18398
-1.10404
-1.12489
-1.25419
-1.5605
-2.10367
-2.6426
-2.80253
-2.65291
-2.4047
-2.06223
-1.86088
3.27768
7.13119
544.257
-0.252721
-0.519932
-0.787978
-0.958775
-1.01656
-1.02405
-1.06688
-1.19268
-1.43494
-1.81761
-2.20135
-2.34709
-2.24311
-2.03124
-1.76527
-1.66658
16.6605
7.89241
1207.4
-0.234092
-0.434413
-0.632831
-0.783627
-0.873323
-0.925819
-0.984182
-1.08904
-1.26463
-1.51368
-1.75867
-1.86059
-1.77722
-1.58668
-1.3622
-1.13124
19.6032
16.6407
349.539
-0.216046
-0.373739
-0.527789
-0.655707
-0.74921
-0.817202
-0.880376
-0.964423
-1.08552
-1.2411
-1.38641
-1.44592
-1.37014
-1.19227
-0.990709
1.81367
19.6466
6.87245
-0.20378
-0.195836
-0.322057
-0.44591
-0.555392
-0.644873
-0.716105
-0.781072
-0.85288
-0.941276
-1.04371
-1.13264
-1.16077
-1.09068
-0.931896
-0.755186
5.18955
15.1352
-0.491315
-0.124816
-0.176762
-0.279937
-0.381874
-0.475665
-0.557562
-0.628376
-0.692289
-0.758823
-0.831057
-0.905006
-0.965771
-0.979564
-0.919291
-0.789384
-0.648776
5.40053
-0.400949
-0.460429
0.178252
-0.159626
-0.245382
-0.3304
-0.410537
-0.483655
-0.55059
-0.61421
-0.677086
-0.740559
-0.800872
-0.845985
-0.855334
-0.80518
-0.701734
-0.588454
0.81433
-0.356427
-0.35298
0.318042
-0.144191
-0.216354
-0.287953
-0.356447
-0.420908
-0.482515
-0.543734
-0.606072
-0.665907
-0.717548
-0.755148
-0.760825
-0.716917
-0.624171
-0.512287
-0.435087
-0.32846
-0.151611
0.171907
-0.130305
-0.191725
-0.252603
-0.311264
-0.367547
-0.423259
-0.481792
-0.543473
-0.601547
-0.650103
-0.683011
-0.687629
-0.644986
-0.549756
-0.429042
-0.357838
-0.338127
0.166768
1.29465
-0.117862
-0.17072
-0.223018
-0.273487
-0.322311
-0.372133
-0.427996
-0.489052
-0.544779
-0.59131
-0.625386
-0.630618
-0.586148
-0.489846
-0.357616
-0.116747
-0.273849
-0.67841
966.357
-0.106725
-0.152712
-0.198207
-0.242121
-0.284674
-0.328981
-0.381851
-0.441458
-0.494172
-0.539061
-0.575938
-0.585138
-0.545737
-0.458255
0.341174
0.324761
0.250379
0.110857
2315.11
-0.0966822
-0.137096
-0.177256
-0.216246
-0.253986
-0.293362
-0.341717
-0.397823
-0.447085
-0.490592
-0.529475
-0.545296
-0.518834
-0.474413
0.0102367
-0.042241
23.9131
46.0771
2256.77
-0.0874077
-0.123171
-0.159067
-0.194467
-0.229132
-0.264485
-0.305598
-0.355386
-0.400209
-0.441203
-0.479457
-0.5047
-0.398348
-0.48144
-0.454598
-0.368494
56.4054
138.952
216.732
-0.0784839
-0.110148
-0.142331
-0.174791
-0.207555
-0.24026
-0.275212
-0.314646
-0.353056
-0.389007
-0.420353
-0.396178
-0.370614
-0.488421
-0.619102
1.2204
42.9938
9.83708
-0.63115
-0.0695259
-0.0973335
-0.125898
-0.155192
-0.185493
-0.216511
-0.246772
-0.278381
-0.308966
-0.338507
-0.356776
-0.358608
-0.406295
-0.534311
-0.702345
0.569436
-1.18951
-1.25424
-0.393122
-0.0603594
-0.0843905
-0.109228
-0.134877
-0.161583
-0.189359
-0.217743
-0.244405
-0.26948
-0.293764
-0.321013
-0.354836
-0.404225
-0.477365
-0.57246
0.0369967
-0.718942
-0.898403
71.607
-0.0510761
-0.0713959
-0.0924423
-0.114194
-0.136741
-0.160491
-0.185051
-0.209592
-0.233094
-0.255083
-0.279893
-0.310729
-0.346003
-0.3884
-0.427818
-0.4634
-0.424654
-0.548648
154.675
-0.0419511
-0.0587091
-0.0760805
-0.0940637
-0.112687
-0.132444
-0.153008
-0.173701
-0.194399
-0.215829
-0.238381
-0.261643
-0.284604
-0.309488
-0.329412
-0.355243
-0.329639
-0.407454
15.2659
-0.0332536
-0.0466498
-0.06055
-0.0750105
-0.0901367
-0.106071
-0.122924
-0.13988
-0.15738
-0.176685
-0.196173
-0.212734
-0.226424
-0.243539
-0.258172
-0.284347
-0.289298
-0.292708
-0.243811
-0.025078
-0.0352947
-0.0459128
-0.0570383
-0.0687805
-0.0812306
-0.0946774
-0.108161
-0.122596
-0.139196
-0.154833
-0.166446
-0.175961
-0.190399
-0.202497
-0.226494
-0.224457
-0.226977
-0.222351
-0.017388
-0.0245633
-0.0320484
-0.0399713
-0.0484476
-0.0576178
-0.0678226
-0.0783876
-0.0902553
-0.10398
-0.116657
-0.125816
-0.134976
-0.147997
-0.160536
-0.183684
-0.181962
-0.19223
-0.200787
-0.0101078
-0.0143425
-0.0187847
-0.0235565
-0.0288459
-0.0349153
-0.042053
-0.0500443
-0.0595603
-0.0704996
-0.0807806
-0.089372
-0.0997297
-0.113771
-0.130347
-0.153651
-0.16362
-0.176021
-0.186383
-0.00324486
-0.00462698
-0.00609548
-0.00771272
-0.00970493
-0.0125407
-0.0165108
-0.0218367
-0.0290587
-0.0370675
-0.0447303
-0.0530622
-0.0661095
-0.0838395
-0.107397
-0.136068
-0.152953
-0.181718
-0.172163
)
;

boundaryField
{
    leftWall
    {
        type            fixedFluxPressure;
        gradient        uniform 0;
        value           nonuniform List<scalar> 
50
(
527.902
527.549
526.283
524.675
523.272
522.024
520.967
508.693
213.752
1.83426
1.47945
1.27981
1.19929
1.14648
1.10322
1.06522
1.02913
0.994159
0.960052
0.926199
0.892248
0.858104
0.823707
0.789014
0.754054
0.71891
0.683689
0.6485
0.613464
0.578698
0.544308
0.510398
0.477116
0.444439
0.412448
0.381222
0.350763
0.32108
0.292168
0.264008
0.236564
0.209791
0.183629
0.158006
0.13286
0.108123
0.0836976
0.0595129
0.0355689
0.0117653
)
;
    }
    rightWall
    {
        type            fixedFluxPressure;
        gradient        uniform 0;
        value           nonuniform List<scalar> 
50
(
1380.32
1376.68
1357.02
1313.98
1242.73
1149.51
1040.59
933.355
804.622
778.339
813.42
855.319
902.169
964.184
1078.81
1241.73
1389.16
1175.25
1567.6
2001.21
2159.18
2179.47
1788.3
1604.2
631.072
12.5668
5.83436
544.257
1207.4
349.539
-0.20378
-0.124816
0.178252
0.318042
0.171907
1.29465
966.357
2315.11
2256.77
216.732
-0.63115
-0.393122
71.607
154.675
15.2659
-0.243811
-0.222351
-0.200787
-0.186383
-0.172163
)
;
    }
    lowerWall
    {
        type            fixedFluxPressure;
        gradient        uniform 0;
        value           nonuniform List<scalar> 
62
(
527.902
526.999
528.423
532.883
542.191
557.16
576.953
598.04
618.361
638.668
659.652
681.312
703.236
724.995
746.24
766.361
784.292
800.216
810.466
811.575
815.489
837.214
870.679
870.679
865.384
861.996
864.717
873.412
883.45
891.338
903.206
952.981
974.257
994.937
1009.03
886.991
853
779.547
706.645
755.812
933.286
981.671
994.582
886.991
834.633
948.275
1113.62
1242.08
1306.58
1391.34
1438.33
1198.61
723.362
416.642
303.646
285.727
288.534
329.125
565.648
1078.48
1460.13
1380.32
)
;
    }
    atmosphere
    {
        type            totalPressure;
        rho             rho;
        psi             none;
        gamma           1;
        p0              uniform 0;
        value           nonuniform List<scalar> 
46
(
0
0
0
0
0
0
0
0
0
0
0
0
0
0
0
0
0
0
0
0
0
0
0
0
0
0
0
0
0
0
0
-0.000149199
-0.00127668
-0.00348942
-0.00749407
-0.013866
-0.0202484
-0.0257016
-0.0330899
-0.0486216
-0.0689335
-0.0978427
-0.1341
-0.148677
-0.204332
-0.160811
)
;
    }
    defaultFaces
    {
        type            empty;
    }
}


// ************************************************************************* //
