/*--------------------------------*- C++ -*----------------------------------*\
| =========                 |                                                 |
| \\      /  F ield         | OpenFOAM: The Open Source CFD Toolbox           |
|  \\    /   O peration     | Version:  5.x                                   |
|   \\  /    A nd           | Web:      www.OpenFOAM.org                      |
|    \\/     M anipulation  |                                                 |
\*---------------------------------------------------------------------------*/
FoamFile
{
    version     2.0;
    format      ascii;
    class       surfaceScalarField;
    location    "0.65";
    object      phi;
}
// * * * * * * * * * * * * * * * * * * * * * * * * * * * * * * * * * * * * * //

dimensions      [0 3 -1 0 0 0 0];

internalField   nonuniform List<scalar> 
4432
(
-3.21277e-06
3.21277e-06
-6.26427e-06
3.0515e-06
-7.67511e-06
1.41084e-06
-7.9949e-06
3.19794e-07
-7.28114e-06
-7.13764e-07
-5.18206e-06
-2.09908e-06
-1.85251e-06
-3.32955e-06
1.58135e-06
-3.43386e-06
4.07282e-06
-2.49147e-06
5.29507e-06
-1.22225e-06
5.36694e-06
-7.18763e-08
4.50259e-06
8.64357e-07
2.99917e-06
1.50341e-06
1.03455e-06
1.96463e-06
-1.40215e-06
2.43669e-06
-4.59701e-06
3.19486e-06
-8.32494e-06
3.72793e-06
-1.09689e-05
2.64397e-06
-1.29122e-05
1.94333e-06
-1.89297e-05
6.01741e-06
-2.2826e-05
3.89632e-06
-1.58533e-05
-6.97264e-06
-1.58533e-05
-3.91609e-06
7.12886e-06
-6.27704e-06
5.41246e-06
-7.14652e-06
2.28032e-06
-7.59265e-06
7.65928e-07
-7.25999e-06
-1.04642e-06
-5.42038e-06
-3.93869e-06
-2.09281e-06
-6.65712e-06
1.49802e-06
-7.0247e-06
4.11912e-06
-5.11257e-06
5.40606e-06
-2.50918e-06
5.70089e-06
-3.66712e-07
5.43943e-06
1.12581e-06
4.83185e-06
2.11099e-06
3.99528e-06
2.80119e-06
2.89816e-06
3.53381e-06
1.30205e-06
4.79097e-06
-1.4223e-06
6.45228e-06
-5.84408e-06
7.06576e-06
-1.15381e-05
7.63731e-06
-1.63033e-05
1.07827e-05
-1.75772e-05
5.17019e-06
-1.13078e-05
-1.3242e-05
-2.71612e-05
-2.98762e-06
1.01165e-05
-4.77119e-06
7.19602e-06
-5.82444e-06
3.33357e-06
-6.77052e-06
1.71201e-06
-6.9703e-06
-8.46641e-07
-5.47856e-06
-5.43043e-06
-2.38125e-06
-9.75443e-06
1.09776e-06
-1.05037e-05
3.69877e-06
-7.71358e-06
4.95985e-06
-3.77027e-06
5.12539e-06
-5.32249e-07
4.65472e-06
1.59648e-06
3.93332e-06
2.83239e-06
3.25652e-06
3.478e-06
2.85042e-06
3.93991e-06
2.7978e-06
4.84358e-06
2.74728e-06
6.5028e-06
1.23013e-06
8.58291e-06
-1.5377e-06
1.04051e-05
-5.20532e-06
1.44503e-05
-7.09384e-06
7.05871e-06
-4.15208e-06
-1.61838e-05
-3.13132e-05
-1.54292e-06
1.16594e-05
-2.52819e-06
8.18129e-06
-3.50548e-06
4.31086e-06
-4.36664e-06
2.57317e-06
-4.35281e-06
-8.60467e-07
-2.93099e-06
-6.85226e-06
-6.56428e-07
-1.2029e-05
1.64735e-06
-1.28075e-05
3.40395e-06
-9.47019e-06
4.28161e-06
-4.64793e-06
4.33115e-06
-5.81786e-07
3.80981e-06
2.11781e-06
3.02843e-06
3.61377e-06
2.31655e-06
4.18987e-06
1.94143e-06
4.31503e-06
2.04295e-06
4.74206e-06
2.8785e-06
5.66725e-06
3.93696e-06
7.52445e-06
4.8385e-06
9.50359e-06
5.63846e-06
1.36503e-05
4.464e-06
8.23316e-06
3.10962e-06
-1.48294e-05
-2.82036e-05
3.66162e-07
1.12932e-05
7.80581e-07
7.76687e-06
6.37749e-07
4.4537e-06
8.87791e-07
2.32312e-06
2.0428e-06
-2.01548e-06
3.462e-06
-8.27145e-06
4.21618e-06
-1.27832e-05
4.28097e-06
-1.28723e-05
3.98844e-06
-9.17766e-06
3.69371e-06
-4.35319e-06
3.35175e-06
-2.39836e-07
2.80482e-06
2.66474e-06
2.09752e-06
4.32107e-06
1.51651e-06
4.77089e-06
1.32054e-06
4.511e-06
1.46515e-06
4.59745e-06
2.15757e-06
4.97482e-06
3.75189e-06
5.93013e-06
6.4925e-06
6.76298e-06
1.03687e-05
9.77413e-06
1.14559e-05
7.14594e-06
7.31114e-06
-1.06846e-05
-2.08925e-05
2.77883e-06
8.51442e-06
5.2389e-06
5.30681e-06
7.01061e-06
2.68198e-06
9.2735e-06
6.02286e-08
1.17469e-05
-4.48892e-06
1.25788e-05
-9.10335e-06
1.12118e-05
-1.14162e-05
8.51839e-06
-1.01788e-05
5.68341e-06
-6.34269e-06
3.59227e-06
-2.26204e-06
2.46457e-06
8.87857e-07
1.70962e-06
3.4197e-06
1.06152e-06
4.96917e-06
6.6061e-07
5.1718e-06
7.73695e-07
4.39792e-06
1.16396e-06
4.20719e-06
1.85047e-06
4.28831e-06
3.19186e-06
4.58873e-06
5.57354e-06
4.3813e-06
9.94216e-06
5.4055e-06
1.24728e-05
4.61526e-06
8.7548e-06
-6.96657e-06
-1.21377e-05
4.70852e-06
3.80589e-06
1.02741e-05
-2.58792e-07
1.56536e-05
-2.69747e-06
2.03301e-05
-4.61628e-06
2.23345e-05
-6.49331e-06
2.06995e-05
-7.46836e-06
1.66221e-05
-7.33874e-06
1.19029e-05
-5.45967e-06
7.5554e-06
-1.99517e-06
4.11608e-06
1.17728e-06
2.03976e-06
2.96417e-06
7.65277e-07
4.69418e-06
-1.01106e-08
5.74455e-06
-1.9456e-07
5.35625e-06
2.21207e-07
3.98215e-06
9.19103e-07
3.50929e-06
1.78168e-06
3.42573e-06
3.06499e-06
3.30541e-06
4.74162e-06
2.70467e-06
7.9577e-06
2.18943e-06
1.07065e-05
1.86646e-06
8.88038e-06
-5.14046e-06
-3.2573e-06
8.82404e-06
-5.01815e-06
1.82461e-05
-9.68084e-06
2.43719e-05
-8.82327e-06
2.69272e-05
-7.17157e-06
2.54734e-05
-5.0395e-06
2.09896e-05
-2.98461e-06
1.57926e-05
-2.14174e-06
1.12549e-05
-9.21968e-07
7.65288e-06
1.60686e-06
4.76797e-06
4.06218e-06
2.61961e-06
5.11253e-06
7.49112e-07
6.56468e-06
-6.06541e-07
7.10021e-06
-1.09538e-06
5.84508e-06
-4.8707e-07
3.37384e-06
4.70984e-07
2.55124e-06
1.54031e-06
2.35641e-06
2.99456e-06
1.85116e-06
4.66936e-06
1.02987e-06
6.75904e-06
9.97482e-08
8.45629e-06
1.69206e-07
7.28625e-06
-3.97041e-06
4.02895e-06
-4.02285e-05
4.02285e-05
-5.09743e-05
1.07457e-05
-3.64327e-05
-1.45416e-05
-1.42551e-05
-2.21776e-05
7.74117e-06
-2.19962e-05
2.69938e-05
-1.92526e-05
4.52812e-05
-1.82873e-05
1.72005e-05
2.80806e-05
-5.7292e-05
7.44926e-05
-0.000118356
6.10636e-05
-0.000142937
2.45815e-05
-0.000150325
7.38762e-06
-0.000150651
3.25788e-07
-0.000145903
-4.74716e-06
-0.000135527
-1.03764e-05
-0.000115803
-1.97243e-05
-7.27836e-05
-4.30191e-05
-1.31375e-05
-5.96461e-05
-1.31375e-05
-3.70512e-05
7.72797e-05
-3.55672e-05
9.26174e-06
-1.6849e-05
-3.32598e-05
1.13996e-06
-4.01666e-05
1.83331e-05
-3.91894e-05
3.5109e-05
-3.60285e-05
3.12269e-05
-1.44053e-05
-4.45441e-05
0.000103852
-0.000140776
0.000170724
-0.000185922
0.00010621
-0.000187627
2.62869e-05
-0.000182632
2.39234e-06
-0.000177748
-4.55794e-06
-0.000169183
-1.33121e-05
-0.000154222
-2.53377e-05
-0.000131166
-4.27798e-05
-8.87154e-05
-8.54701e-05
-2.79454e-05
-0.000120416
-4.10829e-05
-1.66074e-05
9.38872e-05
-1.28059e-05
5.46015e-06
1.84688e-06
-4.79125e-05
1.84791e-05
-5.67988e-05
3.19655e-05
-5.26759e-05
3.84027e-05
-4.24656e-05
1.17831e-05
1.22143e-05
-8.06655e-05
0.0001963
-0.000167303
0.000257361
-0.000217733
0.00015664
-0.000230656
3.92099e-05
-0.000222428
-5.8358e-06
-0.000212781
-1.42046e-05
-0.000198906
-2.71877e-05
-0.000175407
-4.88369e-05
-0.000145962
-7.22248e-05
-9.98688e-05
-0.000131563
-4.06528e-05
-0.000179632
-8.17357e-05
4.96339e-06
8.89238e-05
8.9286e-06
1.49489e-06
1.90236e-05
-5.80075e-05
3.38707e-05
-7.16459e-05
4.26154e-05
-6.14206e-05
4.20691e-05
-4.19192e-05
1.60279e-05
3.82555e-05
-6.43339e-05
0.000276662
-0.000141029
0.000334056
-0.000176271
0.000191882
-0.000170345
3.32843e-05
-0.000166215
-9.96609e-06
-0.000181534
1.1145e-06
-0.000186008
-2.27132e-05
-0.000176605
-5.82401e-05
-0.000154201
-9.46282e-05
-0.000103816
-0.000181949
-4.73587e-05
-0.000236089
-0.000129094
1.68139e-05
7.21099e-05
2.3031e-05
-4.72219e-06
3.48063e-05
-6.97828e-05
4.75129e-05
-8.43525e-05
5.309e-05
-6.69977e-05
4.96442e-05
-3.84734e-05
3.12142e-05
5.66854e-05
3.02016e-05
0.000277675
-3.83196e-05
0.000402577
-0.000107976
0.000261538
-0.000104636
2.99446e-05
-0.000129146
1.45444e-05
-0.000142896
1.48646e-05
-0.000149123
-1.64863e-05
-0.000151936
-5.54272e-05
-0.000137682
-0.000108882
-0.000102183
-0.000217448
-4.67169e-05
-0.000291555
-0.000175811
2.02236e-05
5.18863e-05
3.49676e-05
-1.94661e-05
4.7725e-05
-8.25403e-05
5.83765e-05
-9.5004e-05
6.34329e-05
-7.20541e-05
5.86143e-05
-3.36548e-05
3.90031e-05
7.62966e-05
4.93568e-05
0.000267321
4.79016e-05
0.000404033
-2.10094e-05
0.000330449
-6.12471e-05
7.01823e-05
-8.15431e-05
3.48402e-05
-9.82247e-05
3.15462e-05
-0.000102942
-1.17688e-05
-9.92202e-05
-5.91492e-05
-9.3247e-05
-0.000114855
-8.07177e-05
-0.000229977
-3.982e-05
-0.000332453
-0.000215631
2.28463e-05
2.904e-05
4.538e-05
-4.19999e-05
5.6642e-05
-9.38022e-05
6.58288e-05
-0.000104191
7.22785e-05
-7.85038e-05
6.73829e-05
-2.87593e-05
4.59554e-05
9.77241e-05
5.13337e-05
0.000261943
7.50552e-05
0.000380311
3.44639e-05
0.000371041
-3.67333e-05
0.000141379
-6.00702e-05
5.81769e-05
-8.48383e-05
5.63143e-05
-8.61403e-05
-1.04668e-05
-6.71195e-05
-7.81698e-05
-4.77173e-05
-0.000134258
-4.09933e-05
-0.000236701
-2.96989e-05
-0.000343747
-0.00024533
3.0893e-05
-1.85302e-06
5.18061e-05
-6.2913e-05
5.98019e-05
-0.000101798
6.87745e-05
-0.000113163
7.57862e-05
-8.55155e-05
7.31349e-05
-2.6108e-05
5.88654e-05
0.000111994
6.12341e-05
0.000259574
8.43459e-05
0.000357199
7.47776e-05
0.000380609
2.47466e-06
0.000213682
-4.83981e-05
0.00010905
-7.70891e-05
8.50055e-05
-7.8062e-05
-9.49391e-06
-5.77602e-05
-9.84714e-05
-2.96482e-05
-0.00016237
-8.82348e-06
-0.000257526
-1.90335e-05
-0.000333537
-0.000264364
1.62587e-05
-2.12769e-05
1.81746e-05
-1.15967e-05
9.77471e-06
-4.23356e-07
5.1336e-06
-2.53047e-06
3.1272e-06
-3.03309e-06
2.11332e-06
-1.97073e-06
2.07566e-06
-2.10409e-06
2.56109e-06
-1.4074e-06
3.3022e-06
8.65756e-07
4.25079e-06
3.11359e-06
4.47277e-06
4.89056e-06
2.70515e-06
8.33229e-06
-3.22435e-07
1.01278e-05
-1.50618e-06
7.02882e-06
2.03402e-07
1.66426e-06
1.98024e-06
7.74401e-07
3.40646e-06
9.30179e-07
5.72953e-06
-4.71909e-07
9.46833e-06
-2.70893e-06
1.37611e-05
-4.19299e-06
1.85257e-05
-4.59544e-06
2.18633e-05
-7.30801e-06
-4.41707e-06
3.03093e-05
-7.74272e-05
5.61503e-05
-0.000133674
4.46502e-05
-0.000125722
-8.37551e-06
-9.3796e-05
-3.44564e-05
-7.64426e-05
-2.03864e-05
-7.16036e-05
-6.80974e-06
-6.90933e-05
-4.61442e-06
-6.10483e-05
-9.45244e-06
-4.71363e-05
-1.30462e-05
-3.41806e-05
-9.84212e-06
-2.18637e-05
-7.42634e-06
-1.19406e-05
-1.5908e-06
-5.07682e-06
3.26404e-06
8.66425e-07
1.08558e-06
5.10669e-06
-2.576e-06
6.23382e-06
-3.52729e-07
6.03943e-06
1.12456e-06
7.51698e-06
-1.94946e-06
1.15497e-05
-6.74163e-06
1.53926e-05
-8.03589e-06
1.75998e-05
-6.80268e-06
1.67415e-05
-6.4497e-06
-6.59236e-06
1.89168e-05
-2.96732e-05
8.58236e-05
-7.03627e-05
8.53399e-05
-0.000100255
2.15168e-05
-0.000132132
-2.57898e-06
-0.000162192
9.6737e-06
-0.000183967
1.49651e-05
-0.000195223
6.64133e-06
-0.000194958
-9.71782e-06
-0.000184333
-2.36708e-05
-0.000161907
-3.22687e-05
-0.000141275
-2.80579e-05
-9.5088e-05
-4.77781e-05
-6.5484e-05
-2.63399e-05
-4.81715e-05
-1.62269e-05
-3.26206e-05
-1.81269e-05
-1.66971e-05
-1.62762e-05
-5.41756e-06
-1.0155e-05
3.32565e-06
-1.06927e-05
1.26105e-05
-1.60265e-05
1.98828e-05
-1.53082e-05
2.37417e-05
-1.06615e-05
2.2462e-05
-5.17005e-06
-9.97976e-07
1.68676e-05
8.89377e-06
7.693e-05
-3.4648e-06
9.76986e-05
-2.97546e-05
4.78066e-05
-5.87876e-05
2.64541e-05
-7.40007e-05
2.48867e-05
-8.20804e-05
2.30448e-05
-8.51097e-05
9.67042e-06
-8.74357e-05
-7.39196e-06
-9.60324e-05
-1.50741e-05
-0.000114819
-1.34827e-05
-0.000128501
-1.43755e-05
-0.000150488
-2.57908e-05
-0.000156713
-2.0115e-05
-0.00015365
-1.92901e-05
-0.000145815
-2.59619e-05
-0.000133461
-2.86303e-05
-0.000102651
-4.09656e-05
-8.28658e-05
-3.04775e-05
-6.12516e-05
-3.76407e-05
-4.00646e-05
-3.64952e-05
-2.65507e-05
-2.41754e-05
-2.77209e-05
-3.99988e-06
2.53447e-05
-5.40635e-05
1.29997e-05
6.39303e-05
2.58982e-05
8.48002e-05
1.28459e-05
6.08589e-05
7.96715e-06
3.13328e-05
5.79927e-06
2.70545e-05
2.15837e-06
2.66855e-05
2.44588e-06
9.38275e-06
1.86614e-06
-6.81236e-06
-1.16264e-06
-1.20455e-05
-6.16392e-06
-8.48159e-06
-2.28938e-05
2.35427e-06
-4.69443e-05
-1.74055e-06
-5.99929e-05
-7.06646e-06
-6.85311e-05
-1.07521e-05
-8.69301e-05
-7.5631e-06
-0.000110005
-5.55562e-06
-0.00014134
-9.63062e-06
-0.000164874
-6.94384e-06
-0.000188111
-1.44031e-05
-0.000203765
-2.0842e-05
-0.000193685
-3.42548e-05
-0.000180059
-1.76264e-05
2.35114e-05
-0.000178226
3.49289e-06
6.04374e-05
2.49731e-05
6.33201e-05
3.01122e-05
5.57199e-05
2.65123e-05
3.49327e-05
2.44536e-05
2.91131e-05
2.26127e-05
2.85262e-05
1.34387e-05
1.85567e-05
-1.36493e-06
7.99109e-06
-1.42172e-05
8.06688e-07
-2.03907e-05
-2.30829e-06
-1.75409e-05
-4.956e-07
-2.20337e-05
2.75211e-06
-3.31866e-05
4.0863e-06
-4.11739e-05
-2.76503e-06
-4.46733e-05
-4.06387e-06
-5.40562e-05
3.82719e-06
-7.14179e-05
7.73088e-06
-8.83333e-05
9.97151e-06
-0.000114866
1.21301e-05
-0.000150202
1.44931e-05
-0.000196988
1.25314e-05
-0.000241611
2.69965e-05
4.81143e-05
-0.000266214
1.08732e-06
5.93502e-05
1.66809e-05
4.77266e-05
2.47212e-05
4.76796e-05
2.18821e-05
3.77717e-05
1.82939e-05
3.27013e-05
1.68376e-05
2.99824e-05
1.15623e-05
2.3832e-05
2.27442e-06
1.72788e-05
-9.0464e-06
1.21274e-05
-1.9192e-05
7.83719e-06
-2.67639e-05
7.07621e-06
-3.24241e-05
8.41216e-06
-3.75903e-05
9.25236e-06
-4.45476e-05
4.19207e-06
-5.15213e-05
2.90973e-06
-5.4315e-05
6.62068e-06
-5.73036e-05
1.07193e-05
-6.14798e-05
1.41476e-05
-6.63652e-05
1.70155e-05
-7.3297e-05
2.14249e-05
-9.03924e-05
2.96269e-05
-0.000115068
5.1672e-05
9.40917e-05
-0.000161045
1.7179e-06
5.76323e-05
9.64474e-06
3.97998e-05
1.43532e-05
4.29711e-05
1.35148e-05
3.86101e-05
1.14851e-05
3.47309e-05
9.72692e-06
3.17405e-05
5.4604e-06
2.80984e-05
-1.50633e-06
2.42455e-05
-9.14147e-06
1.97624e-05
-1.62941e-05
1.49897e-05
-2.15069e-05
1.22889e-05
-2.41306e-05
1.10357e-05
-2.56562e-05
1.07778e-05
-2.99091e-05
8.44485e-06
-3.60909e-05
9.09146e-06
-4.22576e-05
1.27873e-05
-4.69162e-05
1.53778e-05
-4.97221e-05
1.69534e-05
-5.28961e-05
2.01895e-05
-5.8184e-05
2.67129e-05
-6.01694e-05
3.16125e-05
-4.54659e-05
3.69685e-05
8.48276e-05
-3.62018e-05
9.8634e-07
5.6646e-05
5.04911e-06
3.57372e-05
7.92554e-06
4.00948e-05
8.07809e-06
3.84576e-05
7.11398e-06
3.56949e-05
5.77568e-06
3.30787e-05
3.29173e-06
3.05823e-05
-3.47379e-07
2.78845e-05
-5.2308e-06
2.46458e-05
-1.15517e-05
2.13105e-05
-1.75432e-05
1.82804e-05
-2.21714e-05
1.56638e-05
-2.52308e-05
1.38372e-05
-2.92912e-05
1.25051e-05
-3.40057e-05
1.38059e-05
-3.76737e-05
1.64552e-05
-4.03948e-05
1.80989e-05
-4.20273e-05
1.85859e-05
-4.28842e-05
2.10464e-05
-4.24309e-05
2.62597e-05
-3.70807e-05
2.62623e-05
-1.72492e-05
1.7137e-05
5.7209e-05
1.03694e-05
1.55678e-07
5.64904e-05
2.50507e-06
3.33879e-05
4.48124e-06
3.81186e-05
4.79716e-06
3.81416e-05
4.25857e-06
3.62335e-05
3.31342e-06
3.40239e-05
1.81257e-06
3.20831e-05
-5.04345e-07
3.02014e-05
-3.87034e-06
2.80118e-05
-7.90082e-06
2.5341e-05
-1.2113e-05
2.24925e-05
-1.64652e-05
2.00161e-05
-2.1085e-05
1.84569e-05
-2.63323e-05
1.77524e-05
-3.13349e-05
1.88084e-05
-3.53556e-05
2.04758e-05
-3.81129e-05
2.08562e-05
-3.96287e-05
2.01018e-05
-3.86422e-05
2.00601e-05
-3.28749e-05
2.04926e-05
-2.1914e-05
1.53015e-05
-9.61514e-06
4.83827e-06
4.3013e-05
4.58098e-06
-1.23553e-07
5.6614e-05
1.13062e-06
3.21337e-05
2.30524e-06
3.6944e-05
2.48737e-06
3.79596e-05
2.0718e-06
3.66491e-05
1.21059e-06
3.48852e-05
-4.02041e-08
3.3334e-05
-1.72726e-06
3.18885e-05
-3.97036e-06
3.02549e-05
-6.89033e-06
2.8261e-05
-1.05269e-05
2.61291e-05
-1.48247e-05
2.43139e-05
-1.95794e-05
2.32116e-05
-2.47012e-05
2.28742e-05
-2.94016e-05
2.35088e-05
-3.3191e-05
2.42651e-05
-3.6167e-05
2.38323e-05
-3.7866e-05
2.18008e-05
-3.65549e-05
1.87492e-05
-3.13281e-05
1.52659e-05
-2.69306e-05
1.09041e-05
-3.20583e-05
9.96612e-06
4.48598e-05
-3.39051e-05
-1.44327e-07
5.67584e-05
3.57861e-07
3.16315e-05
8.78889e-07
3.6423e-05
8.3016e-07
3.80083e-05
3.49797e-07
3.71296e-05
-5.38817e-07
3.57739e-05
-1.73265e-06
3.45279e-05
-3.21706e-06
3.3373e-05
-5.13069e-06
3.21686e-05
-7.69774e-06
3.08282e-05
-1.10151e-05
2.94465e-05
-1.50184e-05
2.83172e-05
-1.94969e-05
2.769e-05
-2.41676e-05
2.75449e-05
-2.84896e-05
2.78307e-05
-3.22865e-05
2.80621e-05
-3.58106e-05
2.73565e-05
-3.86321e-05
2.46224e-05
-3.96238e-05
1.97411e-05
-3.97308e-05
1.53732e-05
-4.47653e-05
1.59387e-05
-6.10449e-05
2.62458e-05
5.88401e-05
-7.50252e-05
-9.0097e-08
5.68485e-05
-8.76395e-08
3.1629e-05
-6.83551e-08
3.64037e-05
-3.18935e-07
3.8259e-05
-9.01498e-07
3.77123e-05
-1.8297e-06
3.67022e-05
-3.07576e-06
3.57741e-05
-4.61647e-06
3.49138e-05
-6.52767e-06
3.408e-05
-8.95153e-06
3.32521e-05
-1.20009e-05
3.24959e-05
-1.56327e-05
3.1949e-05
-1.96693e-05
3.17266e-05
-2.39133e-05
3.17889e-05
-2.81081e-05
3.20255e-05
-3.22971e-05
3.22512e-05
-3.67715e-05
3.1831e-05
-4.16573e-05
2.95083e-05
-4.67233e-05
2.48071e-05
-5.22605e-05
2.09105e-05
-6.10887e-05
2.4767e-05
-7.76911e-05
4.28483e-05
7.45012e-05
-9.33522e-05
-4.11927e-08
5.68897e-05
-3.66562e-07
3.19543e-05
-6.34384e-07
3.66715e-05
-1.08435e-06
3.8709e-05
-1.75794e-06
3.83859e-05
-2.73484e-06
3.76792e-05
-4.01483e-06
3.70542e-05
-5.59205e-06
3.64912e-05
-7.5031e-06
3.59911e-05
-9.83023e-06
3.55793e-05
-1.26343e-05
3.53e-05
-1.59065e-05
3.52212e-05
-1.95561e-05
3.53762e-05
-2.35386e-05
3.57714e-05
-2.78487e-05
3.63356e-05
-3.258e-05
3.69826e-05
-3.81883e-05
3.74394e-05
-4.56895e-05
3.70096e-05
-5.58591e-05
3.49769e-05
-6.75597e-05
3.26112e-05
-7.9028e-05
3.62352e-05
-9.09554e-05
5.47756e-05
8.69538e-05
-0.000103408
-3.26223e-08
5.69222e-05
-5.22303e-07
3.24439e-05
-1.00787e-06
3.71571e-05
-1.58759e-06
3.92888e-05
-2.32738e-06
3.91258e-05
-3.31786e-06
3.86697e-05
-4.57387e-06
3.83103e-05
-6.10882e-06
3.80262e-05
-7.94676e-06
3.78291e-05
-1.01251e-05
3.77577e-05
-1.26775e-05
3.78524e-05
-1.56097e-05
3.81532e-05
-1.89316e-05
3.86981e-05
-2.26789e-05
3.95187e-05
-2.69579e-05
4.06147e-05
-3.19118e-05
4.19365e-05
-3.79124e-05
4.34401e-05
-4.60355e-05
4.51328e-05
-5.77364e-05
4.66779e-05
-7.27995e-05
4.76743e-05
-8.82156e-05
5.16514e-05
-0.000101142
6.77019e-05
9.95886e-05
-0.000113777
-5.85601e-08
5.69807e-05
-6.29143e-07
3.30144e-05
-1.24279e-06
3.77708e-05
-1.89443e-06
3.99405e-05
-2.6655e-06
3.9897e-05
-3.63691e-06
3.96412e-05
-4.82854e-06
3.9502e-05
-6.26057e-06
3.94583e-05
-7.95485e-06
3.95234e-05
-9.93172e-06
3.97346e-05
-1.22135e-05
4.01342e-05
-1.48231e-05
4.07628e-05
-1.77935e-05
4.16686e-05
-2.11849e-05
4.29101e-05
-2.51113e-05
4.45412e-05
-2.97462e-05
4.65716e-05
-3.53619e-05
4.90559e-05
-4.25401e-05
5.2311e-05
-5.25587e-05
5.66966e-05
-6.6883e-05
6.19986e-05
-8.44279e-05
6.91963e-05
-0.000100695
8.39685e-05
0.000113196
-0.000114302
-9.30889e-08
5.70738e-05
-7.04599e-07
3.3626e-05
-1.37605e-06
3.84423e-05
-2.05035e-06
4.06149e-05
-2.81801e-06
4.06647e-05
-3.74276e-06
4.05661e-05
-4.8466e-06
4.06059e-05
-6.14614e-06
4.07579e-05
-7.6601e-06
4.10374e-05
-9.40672e-06
4.14813e-05
-1.14054e-05
4.21328e-05
-1.36811e-05
4.30385e-05
-1.62675e-05
4.42551e-05
-1.9212e-05
4.58548e-05
-2.25952e-05
4.79246e-05
-2.65688e-05
5.05453e-05
-3.13478e-05
5.38349e-05
-3.71681e-05
5.81314e-05
-4.45707e-05
6.40992e-05
-5.49117e-05
7.23396e-05
-6.89371e-05
8.32217e-05
-8.36151e-05
9.86465e-05
0.000123403
-9.38223e-05
-1.16162e-07
5.71899e-05
-7.45088e-07
3.4255e-05
-1.42685e-06
3.91241e-05
-2.08529e-06
4.12734e-05
-2.81943e-06
4.13989e-05
-3.678e-06
4.14247e-05
-4.67656e-06
4.16045e-05
-5.8291e-06
4.19105e-05
-7.14938e-06
4.23578e-05
-8.6525e-06
4.29845e-05
-1.03537e-05
4.38341e-05
-1.22714e-05
4.49562e-05
-1.44275e-05
4.64112e-05
-1.68507e-05
4.82781e-05
-1.95845e-05
5.06586e-05
-2.27085e-05
5.36693e-05
-2.6336e-05
5.74625e-05
-3.0539e-05
6.23344e-05
-3.53128e-05
6.88731e-05
-4.09392e-05
7.79661e-05
-4.80227e-05
9.03051e-05
-5.552e-05
0.000106144
0.000126457
-5.85736e-05
-1.27951e-07
5.73179e-05
-7.48764e-07
3.48759e-05
-1.40672e-06
3.97822e-05
-2.0264e-06
4.18931e-05
-2.7003e-06
4.20729e-05
-3.47354e-06
4.2198e-05
-4.35396e-06
4.2485e-05
-5.34955e-06
4.29062e-05
-6.46924e-06
4.34775e-05
-7.72154e-06
4.42368e-05
-9.11322e-06
4.52258e-05
-1.06516e-05
4.64947e-05
-1.23428e-05
4.81025e-05
-1.4192e-05
5.01273e-05
-1.62041e-05
5.26708e-05
-1.83861e-05
5.58514e-05
-2.07421e-05
5.98185e-05
-2.32182e-05
6.48106e-05
-2.558e-05
7.12349e-05
-2.7386e-05
7.9772e-05
-2.82475e-05
9.11666e-05
-2.76069e-05
0.000105503
0.000121847
-2.29973e-05
-1.28203e-07
5.74462e-05
-7.22492e-07
3.54703e-05
-1.33181e-06
4.03915e-05
-1.89108e-06
4.24524e-05
-2.4897e-06
4.26715e-05
-3.16198e-06
4.28703e-05
-3.91215e-06
4.32353e-05
-4.74323e-06
4.37373e-05
-5.65752e-06
4.4392e-05
-6.65524e-06
4.52346e-05
-7.7352e-06
4.63057e-05
-8.89151e-06
4.76512e-05
-1.01142e-05
4.93252e-05
-1.13852e-05
5.13985e-05
-1.26747e-05
5.39603e-05
-1.39367e-05
5.71134e-05
-1.50985e-05
6.09803e-05
-1.60146e-05
6.57267e-05
-1.6378e-05
7.15984e-05
-1.55709e-05
7.89648e-05
-1.26852e-05
8.82809e-05
-6.85419e-06
9.9672e-05
0.000111996
2.99696e-06
-1.14517e-07
5.75607e-05
-6.69371e-07
3.60252e-05
-1.21471e-06
4.09369e-05
-1.70011e-06
4.29379e-05
-2.21122e-06
4.31827e-05
-2.77384e-06
4.3433e-05
-3.38699e-06
4.38486e-05
-4.04937e-06
4.43998e-05
-4.75781e-06
4.51005e-05
-5.5057e-06
4.59825e-05
-6.28283e-06
4.7083e-05
-7.07278e-06
4.84412e-05
-7.85135e-06
5.01039e-05
-8.583e-06
5.21302e-05
-9.21317e-06
5.45905e-05
-9.66451e-06
5.75648e-05
-9.81975e-06
6.11356e-05
-9.49574e-06
6.54027e-05
-8.38225e-06
7.04849e-05
-5.9478e-06
7.65304e-05
-1.32023e-06
8.36532e-05
6.4885e-06
9.18632e-05
0.000100663
1.78216e-05
-8.62907e-08
5.76471e-05
-5.92775e-07
3.65317e-05
-1.06584e-06
4.141e-05
-1.4698e-06
4.33419e-05
-1.88704e-06
4.36e-05
-2.33552e-06
4.38816e-05
-2.81097e-06
4.43242e-05
-3.30709e-06
4.48961e-05
-3.81605e-06
4.56096e-05
-4.32622e-06
4.64927e-05
-4.81953e-06
4.75764e-05
-5.27173e-06
4.88935e-05
-5.64982e-06
5.0482e-05
-5.90571e-06
5.23861e-05
-5.97192e-06
5.46567e-05
-5.75578e-06
5.73487e-05
-5.12326e-06
6.05032e-05
-3.89619e-06
6.41757e-05
-1.78706e-06
6.83757e-05
1.62533e-06
7.31179e-05
6.86172e-06
7.84168e-05
1.45573e-05
8.41676e-05
8.98763e-05
2.53435e-05
-4.39293e-08
5.7691e-05
-4.97371e-07
3.69851e-05
-8.94053e-07
4.18067e-05
-1.21349e-06
4.36613e-05
-1.53511e-06
4.39217e-05
-1.87107e-06
4.42177e-05
-2.2127e-06
4.46658e-05
-2.55045e-06
4.5234e-05
-2.87271e-06
4.59319e-05
-3.1632e-06
4.67832e-05
-3.39959e-06
4.78129e-05
-3.55292e-06
4.90469e-05
-3.58398e-06
5.05131e-05
-3.43894e-06
5.22411e-05
-3.04576e-06
5.42636e-05
-2.31485e-06
5.66179e-05
-1.09434e-06
5.92827e-05
7.7461e-07
6.23067e-05
3.48153e-06
6.56687e-05
7.29386e-06
6.93054e-05
1.25893e-05
7.31213e-05
1.98284e-05
7.69286e-05
8.04095e-05
2.92951e-05
1.40258e-08
5.7677e-05
-3.86984e-07
3.73861e-05
-7.05332e-07
4.2125e-05
-9.41404e-07
4.38974e-05
-1.1698e-06
4.41501e-05
-1.3978e-06
4.44457e-05
-1.61353e-06
4.48815e-05
-1.80506e-06
4.54255e-05
-1.95799e-06
4.60847e-05
-2.05319e-06
4.68784e-05
-2.06591e-06
4.78257e-05
-1.9642e-06
4.89452e-05
-1.70659e-06
5.02556e-05
-1.23775e-06
5.17723e-05
-4.81295e-07
5.35072e-05
6.58886e-07
5.54777e-05
2.24249e-06
5.76991e-05
4.44219e-06
6.01069e-05
7.4322e-06
6.26786e-05
1.14132e-05
6.53243e-05
1.66048e-05
6.79297e-05
2.32183e-05
7.03152e-05
7.22435e-05
3.13842e-05
7.68277e-08
5.76001e-05
-2.66859e-07
3.77297e-05
-5.04753e-07
4.23629e-05
-6.6158e-07
4.40542e-05
-8.01961e-07
4.42905e-05
-9.2965e-07
4.45733e-05
-1.03092e-06
4.49828e-05
-1.09224e-06
4.54868e-05
-1.09662e-06
4.60891e-05
-1.02377e-06
4.68056e-05
-8.48247e-07
4.76503e-05
-5.3628e-07
4.86332e-05
-4.7252e-08
4.97665e-05
6.73961e-07
5.10511e-05
1.68267e-06
5.24984e-05
3.05502e-06
5.41053e-05
4.88578e-06
5.58683e-05
7.29392e-06
5.76987e-05
1.03924e-05
5.958e-05
1.43184e-05
6.13983e-05
1.92066e-05
6.30416e-05
2.51691e-05
6.43527e-05
6.51823e-05
3.22302e-05
1.45573e-07
5.74545e-05
-1.39591e-07
3.80148e-05
-2.95145e-07
4.25184e-05
-3.80056e-07
4.41391e-05
-4.38556e-07
4.43489e-05
-4.755e-07
4.46102e-05
-4.7533e-07
4.49826e-05
-4.24935e-07
4.54364e-05
-3.02768e-07
4.59669e-05
-8.97888e-08
4.65927e-05
2.41516e-07
4.73191e-05
7.20697e-07
4.81541e-05
1.38819e-06
4.9099e-05
2.27963e-06
5.01596e-05
3.45103e-06
5.1327e-05
4.97859e-06
5.25778e-05
6.94937e-06
5.38975e-05
9.41274e-06
5.52353e-05
1.24838e-05
5.65089e-05
1.62371e-05
5.7645e-05
2.07529e-05
5.85258e-05
2.60762e-05
5.90294e-05
5.90795e-05
3.2179e-05
2.22683e-07
5.72317e-05
-4.59543e-09
3.82419e-05
-7.93535e-08
4.2593e-05
-1.0356e-07
4.41632e-05
-8.51968e-08
4.43304e-05
-4.08908e-08
4.45657e-05
4.84926e-08
4.48932e-05
2.00254e-07
4.52847e-05
4.19346e-07
4.57479e-05
7.39593e-07
4.62726e-05
1.18239e-06
4.68763e-05
1.77716e-06
4.75593e-05
2.55709e-06
4.83191e-05
3.56547e-06
4.91513e-05
4.85179e-06
5.00407e-05
6.4642e-06
5.09654e-05
8.46523e-06
5.18965e-05
1.0903e-05
5.27974e-05
1.385e-05
5.35619e-05
1.73616e-05
5.41334e-05
2.14773e-05
5.44102e-05
2.61855e-05
5.43212e-05
5.38012e-05
3.14637e-05
3.08265e-07
5.69234e-05
1.30303e-07
3.84198e-05
1.18967e-07
4.26042e-05
1.71945e-07
4.41101e-05
2.5413e-07
4.42481e-05
3.68498e-07
4.44513e-05
5.32148e-07
4.47295e-05
7.55562e-07
4.50613e-05
1.06456e-06
4.5439e-05
1.46459e-06
4.58726e-05
1.99129e-06
4.63496e-05
2.66737e-06
4.68832e-05
3.52524e-06
4.74613e-05
4.59915e-06
4.80774e-05
5.92863e-06
4.87113e-05
7.55406e-06
4.934e-05
9.52014e-06
4.99304e-05
1.18763e-05
5.04413e-05
1.46375e-05
5.08007e-05
1.78602e-05
5.09107e-05
2.1552e-05
5.07184e-05
2.57008e-05
5.01724e-05
4.92497e-05
3.02523e-05
4.07274e-07
5.65161e-05
2.54233e-07
3.85727e-05
3.14237e-07
4.25441e-05
4.20323e-07
4.40038e-05
5.67602e-07
4.41007e-05
7.42783e-07
4.42761e-05
9.69036e-07
4.45033e-05
1.2584e-06
4.4772e-05
1.62825e-06
4.50693e-05
2.09836e-06
4.54026e-05
2.68219e-06
4.57658e-05
3.41057e-06
4.61549e-05
4.30891e-06
4.65631e-05
5.40735e-06
4.69791e-05
6.73613e-06
4.73826e-05
8.32752e-06
4.77486e-05
1.02136e-05
4.80442e-05
1.24222e-05
4.82326e-05
1.49762e-05
4.82466e-05
1.78817e-05
4.80053e-05
2.11561e-05
4.7444e-05
2.47776e-05
4.65509e-05
4.53394e-05
2.8688e-05
5.32227e-07
5.59838e-05
3.72998e-07
3.87319e-05
4.821e-07
4.24349e-05
6.42642e-07
4.38431e-05
8.42103e-07
4.39011e-05
1.07334e-06
4.40448e-05
1.35585e-06
4.42208e-05
1.70133e-06
4.44266e-05
2.12134e-06
4.46493e-05
2.63675e-06
4.48872e-05
3.26459e-06
4.51381e-05
4.02501e-06
4.53946e-05
4.94107e-06
4.56472e-05
6.03774e-06
4.58825e-05
7.33893e-06
4.60814e-05
8.86534e-06
4.62221e-05
1.06391e-05
4.62704e-05
1.2681e-05
4.61907e-05
1.50004e-05
4.59272e-05
1.75919e-05
4.54138e-05
2.04578e-05
4.45782e-05
2.35856e-05
4.34231e-05
4.20011e-05
2.6924e-05
6.84607e-07
5.52992e-05
4.85834e-07
3.89306e-05
6.22551e-07
4.22981e-05
8.31085e-07
4.36344e-05
1.07559e-06
4.36565e-05
1.34784e-06
4.37725e-05
1.6745e-06
4.38942e-05
2.0629e-06
4.40383e-05
2.52574e-06
4.41866e-05
3.07893e-06
4.43341e-05
3.73562e-06
4.44815e-05
4.51564e-06
4.46147e-05
5.43594e-06
4.4727e-05
6.51629e-06
4.48022e-05
7.77149e-06
4.48261e-05
9.22182e-06
4.47717e-05
1.08789e-05
4.46133e-05
1.27564e-05
4.43132e-05
1.48491e-05
4.38346e-05
1.71499e-05
4.3113e-05
1.96464e-05
4.20817e-05
2.233e-05
4.07395e-05
3.91598e-05
2.51713e-05
8.44406e-07
5.44547e-05
5.93368e-07
3.91816e-05
7.33036e-07
4.21583e-05
9.73288e-07
4.3394e-05
1.24465e-06
4.33851e-05
1.54944e-06
4.34677e-05
1.90429e-06
4.35394e-05
2.32079e-06
4.36219e-05
2.81222e-06
4.36952e-05
3.3888e-06
4.37576e-05
4.06524e-06
4.38051e-05
4.85485e-06
4.38252e-05
5.7711e-06
4.38107e-05
6.82828e-06
4.37449e-05
8.03983e-06
4.36145e-05
9.41713e-06
4.33944e-05
1.09698e-05
4.30607e-05
1.27001e-05
4.25829e-05
1.46069e-05
4.19278e-05
1.66722e-05
4.10475e-05
1.88725e-05
3.98813e-05
2.12004e-05
3.84116e-05
3.67153e-05
2.36449e-05
9.92282e-07
5.34624e-05
6.89939e-07
3.94839e-05
8.06597e-07
4.20415e-05
1.05698e-06
4.31436e-05
1.33745e-06
4.31046e-05
1.64819e-06
4.3157e-05
2.01633e-06
4.31712e-05
2.44385e-06
4.31944e-05
2.94294e-06
4.31961e-05
3.52641e-06
4.31741e-05
4.20563e-06
4.31259e-05
4.98837e-06
4.30425e-05
5.88873e-06
4.29104e-05
6.91591e-06
4.27177e-05
8.08179e-06
4.24486e-05
9.39318e-06
4.20831e-05
1.08555e-05
4.15983e-05
1.24707e-05
4.09677e-05
1.42349e-05
4.01634e-05
1.61319e-05
3.91504e-05
1.81365e-05
3.78767e-05
2.02291e-05
3.6319e-05
3.45307e-05
2.24137e-05
1.12283e-06
5.23395e-05
7.65492e-07
3.98412e-05
8.35626e-07
4.19712e-05
1.07323e-06
4.29059e-05
1.33721e-06
4.28405e-05
1.63664e-06
4.28575e-05
1.98774e-06
4.282e-05
2.39965e-06
4.27824e-05
2.88324e-06
4.27124e-05
3.44709e-06
4.26102e-05
4.09952e-06
4.24735e-05
4.85215e-06
4.22899e-05
5.71498e-06
4.20475e-05
6.69287e-06
4.17398e-05
7.79781e-06
4.13437e-05
9.03629e-06
4.08446e-05
1.04125e-05
4.02221e-05
1.19277e-05
3.94524e-05
1.35811e-05
3.851e-05
1.53595e-05
3.7372e-05
1.72417e-05
3.59945e-05
1.92074e-05
3.43533e-05
3.24754e-05
2.12626e-05
1.23339e-06
5.11062e-05
8.16503e-07
4.02581e-05
8.20428e-07
4.19673e-05
1.02206e-06
4.27042e-05
1.24582e-06
4.26166e-05
1.50641e-06
4.25968e-05
1.81909e-06
4.25072e-05
2.18882e-06
4.24126e-05
2.62732e-06
4.22738e-05
3.13912e-06
4.20984e-05
3.73582e-06
4.18768e-05
4.42426e-06
4.16014e-05
5.2124e-06
4.12593e-05
6.11136e-06
4.08408e-05
7.12665e-06
4.03284e-05
8.26591e-06
3.97054e-05
9.5338e-06
3.89542e-05
1.09346e-05
3.80515e-05
1.24658e-05
3.69788e-05
1.41264e-05
3.57114e-05
1.59007e-05
3.42202e-05
1.7775e-05
3.24789e-05
3.05008e-05
1.97495e-05
1.30803e-06
4.97982e-05
8.39437e-07
4.07267e-05
7.69851e-07
4.20368e-05
9.1559e-07
4.25583e-05
1.07821e-06
4.24539e-05
1.28387e-06
4.2391e-05
1.53717e-06
4.22538e-05
1.84309e-06
4.21065e-05
2.21046e-06
4.19063e-05
2.64459e-06
4.16642e-05
3.15536e-06
4.1366e-05
3.74742e-06
4.10093e-05
4.43085e-06
4.05759e-05
5.21278e-06
4.00589e-05
6.10076e-06
3.94404e-05
7.10294e-06
3.87032e-05
8.22212e-06
3.7835e-05
9.46643e-06
3.68072e-05
1.08334e-05
3.56117e-05
1.23276e-05
3.42172e-05
1.39427e-05
3.2605e-05
1.56715e-05
3.07502e-05
2.86615e-05
1.75109e-05
1.33197e-06
4.84662e-05
8.29621e-07
4.1229e-05
6.91378e-07
4.21749e-05
7.73277e-07
4.24762e-05
8.65037e-07
4.23621e-05
1.00599e-06
4.225e-05
1.18504e-06
4.20747e-05
1.41475e-06
4.18766e-05
1.69965e-06
4.16213e-05
2.03971e-06
4.13241e-05
2.44736e-06
4.09583e-05
2.92293e-06
4.05337e-05
3.47948e-06
4.00193e-05
4.11993e-06
3.94183e-05
4.85095e-06
3.87093e-05
5.6844e-06
3.78696e-05
6.6185e-06
3.69008e-05
7.66382e-06
3.57619e-05
8.81838e-06
3.44571e-05
1.00867e-05
3.29489e-05
1.14687e-05
3.1223e-05
1.29605e-05
2.92585e-05
2.70659e-05
1.45562e-05
1.29837e-06
4.71679e-05
7.85861e-07
4.17414e-05
5.92382e-07
4.23682e-05
6.11541e-07
4.2457e-05
6.3601e-07
4.23376e-05
7.12403e-07
4.21736e-05
8.19721e-07
4.19672e-05
9.72707e-07
4.17235e-05
1.16745e-06
4.14264e-05
1.41407e-06
4.10774e-05
1.71011e-06