/*--------------------------------*- C++ -*----------------------------------*\
| =========                 |                                                 |
| \\      /  F ield         | OpenFOAM: The Open Source CFD Toolbox           |
|  \\    /   O peration     | Version:  5.x                                   |
|   \\  /    A nd           | Web:      www.OpenFOAM.org                      |
|    \\/     M anipulation  |                                                 |
\*---------------------------------------------------------------------------*/
FoamFile
{
    version     2.0;
    format      ascii;
    class       volVectorField;
    location    "0.65";
    object      U;
}
// * * * * * * * * * * * * * * * * * * * * * * * * * * * * * * * * * * * * * //

dimensions      [0 1 -1 0 0 0 0];

internalField   nonuniform List<vector> 
2268
(
(-0.0195729 0.00845214 0)
(-0.0581959 0.0091434 0)
(-0.0858839 0.00446876 0)
(-0.0924229 0.000940838 0)
(-0.0902781 -0.00224225 0)
(-0.0734017 -0.00585675 0)
(-0.040963 -0.0088915 0)
(-0.000601593 -0.00907039 0)
(0.0343771 -0.00655607 0)
(0.0563725 -0.00317465 0)
(0.0645569 0.000222243 0)
(0.0592043 0.00311207 0)
(0.0448877 0.00526492 0)
(0.0249121 0.0069317 0)
(-3.07991e-05 0.00876388 0)
(-0.0309922 0.0117173 0)
(-0.0736276 0.0123125 0)
(-0.115656 0.00233039 0)
(-0.125238 -0.00110059 0)
(-0.176169 0.018907 0)
(-0.276547 0.0124095 0)
(-0.242397 -0.0236492 0)
(-0.0870816 -0.0520817 0)
(-0.0308691 0.0277938 0)
(-0.0636316 0.0231009 0)
(-0.0801247 0.00988767 0)
(-0.0859948 0.0022813 0)
(-0.0881639 -0.00573148 0)
(-0.075417 -0.0167206 0)
(-0.0442625 -0.0269575 0)
(-0.00242826 -0.0281483 0)
(0.0344296 -0.0205694 0)
(0.0575365 -0.0102437 0)
(0.0657174 -0.00117038 0)
(0.065472 0.00553372 0)
(0.0600514 0.0101692 0)
(0.0515647 0.0135568 0)
(0.0408717 0.0171162 0)
(0.0273583 0.0231218 0)
(0.00428481 0.0301715 0)
(-0.0375485 0.0286691 0)
(-0.0882466 0.0254813 0)
(-0.164554 0.0453193 0)
(-0.238583 0.0215033 0)
(-0.168791 -0.0648268 0)
(-0.0564052 -0.131027 0)
(-0.0272358 0.0468942 0)
(-0.0457047 0.0338407 0)
(-0.062546 0.0144953 0)
(-0.0736823 0.00589127 0)
(-0.0829711 -0.00590242 0)
(-0.0744947 -0.0260845 0)
(-0.0460669 -0.0453994 0)
(-0.00660515 -0.0482702 0)
(0.0295613 -0.035208 0)
(0.0526204 -0.0173009 0)
(0.0605049 -0.0026303 0)
(0.0576567 0.00704619 0)
(0.0499125 0.0130069 0)
(0.0412945 0.0166537 0)
(0.0344738 0.0200122 0)
(0.0321005 0.0263777 0)
(0.0330014 0.0365271 0)
(0.0306994 0.0454949 0)
(-0.000617908 0.0517499 0)
(-0.0304963 0.0690043 0)
(-0.107763 0.0291305 0)
(-0.0659955 -0.0891467 0)
(-0.00527458 -0.171178 0)
(-0.0176143 0.060017 0)
(-0.0212515 0.0421938 0)
(-0.035373 0.0205089 0)
(-0.047589 0.0118904 0)
(-0.0554786 -0.0044312 0)
(-0.0434246 -0.0351195 0)
(-0.019714 -0.0620035 0)
(0.00596322 -0.0658694 0)
(0.0293272 -0.048326 0)
(0.0458249 -0.0237328 0)
(0.0517342 -0.00338664 0)
(0.0483151 0.00988719 0)
(0.0399303 0.0173511 0)
(0.030683 0.0207003 0)
(0.0237778 0.022335 0)
(0.021823 0.026017 0)
(0.0255902 0.0332414 0)
(0.0421103 0.0452183 0)
(0.0490172 0.0578429 0)
(0.0716245 0.0813881 0)
(0.0397901 0.0480129 0)
(0.0482348 -0.0815097 0)
(0.0436726 -0.165044 0)
(-0.0046687 0.0650152 0)
(0.0109184 0.0441047 0)
(0.00800955 0.0260494 0)
(0.00458188 0.0157868 0)
(0.0125509 -0.00717562 0)
(0.0354191 -0.0431475 0)
(0.0499926 -0.0704566 0)
(0.0498033 -0.0728397 0)
(0.045275 -0.0531301 0)
(0.0429313 -0.0258655 0)
(0.0411028 -0.00304961 0)
(0.0364474 0.0128104 0)
(0.0287547 0.021629 0)
(0.0206651 0.0245968 0)
(0.0157239 0.0243052 0)
(0.015432 0.0255984 0)
(0.0186833 0.028749 0)
(0.0325275 0.0363233 0)
(0.0539523 0.0453141 0)
(0.100888 0.0684051 0)
(0.125317 0.0492643 0)
(0.115813 -0.0647464 0)
(0.078775 -0.129838 0)
(0.00964777 0.0569391 0)
(0.0488838 0.0366872 0)
(0.0687759 0.0191381 0)
(0.086623 0.00675747 0)
(0.120583 -0.0167903 0)
(0.149666 -0.0477504 0)
(0.145629 -0.0675125 0)
(0.113961 -0.0648708 0)
(0.0775063 -0.0445654 0)
(0.0494363 -0.0197214 0)
(0.0328516 0.000865567 0)
(0.0237897 0.0161481 0)
(0.0161741 0.0247176 0)
(0.00956183 0.0264312 0)
(0.00755272 0.023883 0)
(0.0107089 0.0238691 0)
(0.0163409 0.0252447 0)
(0.0274706 0.028463 0)
(0.045611 0.0296884 0)
(0.0850484 0.0411395 0)
(0.137277 0.0330824 0)
(0.128405 -0.0441523 0)
(0.099295 -0.086001 0)
(0.0213533 0.0397747 0)
(0.0824576 0.0284782 0)
(0.145969 0.0138197 0)
(0.207669 -0.00463456 0)
(0.253056 -0.0266773 0)
(0.259216 -0.0450574 0)
(0.220649 -0.0518938 0)
(0.161685 -0.0430968 0)
(0.107022 -0.0239593 0)
(0.0629734 -0.00590103 0)
(0.0321618 0.0083008 0)
(0.0143392 0.0213403 0)
(0.00353458 0.029742 0)
(-0.00272869 0.0302474 0)
(-0.00130198 0.0244162 0)
(0.00626084 0.0217932 0)
(0.0149679 0.0209169 0)
(0.0268314 0.0207909 0)
(0.0432524 0.0179809 0)
(0.0660836 0.0177809 0)
(0.113737 0.014862 0)
(0.115647 -0.0347953 0)
(0.113313 -0.0560536 0)
(0.0360649 -0.00395002 0)
(0.158318 -0.0337711 0)
(0.252725 -0.0459479 0)
(0.302996 -0.0474838 0)
(0.309616 -0.0431679 0)
(0.274301 -0.0336233 0)
(0.211024 -0.024444 0)
(0.150717 -0.0124331 0)
(0.104642 0.00526311 0)
(0.069133 0.0195902 0)
(0.0406314 0.0248631 0)
(0.0179015 0.0297628 0)
(-0.000750995 0.031373 0)
(-0.0125844 0.0259147 0)
(-0.0113319 0.0170746 0)
(-0.000497502 0.0155643 0)
(0.0110954 0.0167019 0)
(0.0249363 0.0159646 0)
(0.0435053 0.0121854 0)
(0.0624962 0.00659558 0)
(0.0877316 0.00574686 0)
(0.0950938 -0.0180575 0)
(0.0961952 0.024738 0)
(-0.433127 0.0894666 0)
(-0.598117 0.0144886 0)
(-0.494417 -0.060464 0)
(-0.283608 -0.0903479 0)
(-0.0275908 -0.0836142 0)
(0.162991 -0.0665208 0)
(0.524311 -0.0933648 0)
(0.616585 0.0204207 0)
(-0.2633 0.253051 0)
(-1.13873 0.23862 0)
(-1.5491 0.11943 0)
(-1.68741 0.0663752 0)
(-1.72708 0.0417653 0)
(-1.71716 0.0228697 0)
(-1.6599 0.00974157 0)
(-1.46928 -0.0168249 0)
(-1.05661 -0.0850509 0)
(-0.471043 -0.140347 0)
(0.0620254 -0.0127599 0)
(-0.500113 0.262808 0)
(-0.47269 0.0572704 0)
(-0.260986 -0.109088 0)
(-0.0801657 -0.144436 0)
(0.102082 -0.151036 0)
(0.262246 -0.143409 0)
(0.629371 -0.105183 0)
(0.171456 0.308119 0)
(-1.28078 0.521548 0)
(-2.04395 0.244255 0)
(-2.13906 0.0435994 0)
(-2.10742 -0.0198931 0)
(-2.05894 -0.0440594 0)
(-2.00247 -0.0687847 0)
(-1.89284 -0.100306 0)
(-1.66962 -0.165327 0)
(-1.2495 -0.317346 0)
(-0.65994 -0.426329 0)
(-0.0922041 -0.106597 0)
(-0.299836 0.41045 0)
(-0.180781 0.0300809 0)
(-0.0567409 -0.210824 0)
(0.12091 -0.241486 0)
(0.283553 -0.230433 0)
(0.38658 -0.198517 0)
(0.626225 -0.00781827 0)
(-0.298741 0.707471 0)
(-1.78479 0.900455 0)
(-2.23719 0.511955 0)
(-2.55064 0.129712 0)
(-2.5857 0.0300525 0)
(-2.48527 -0.0255582 0)
(-2.37503 -0.107102 0)
(-2.20518 -0.212867 0)
(-1.892 -0.358449 0)
(-1.3692 -0.591516 0)
(-0.763139 -0.728495 0)
(-0.249751 -0.281602 0)
(-0.0519418 0.486036 0)
(0.0809605 0.0187231 0)
(0.172406 -0.254302 0)
(0.308881 -0.315083 0)
(0.446553 -0.281002 0)
(0.466963 -0.202691 0)
(0.671466 0.131879 0)
(-0.332624 1.14301 0)
(-1.52868 1.37098 0)
(-1.90945 0.829707 0)
(-1.95327 0.184616 0)
(-1.69506 -0.0914447 0)
(-2.01099 -0.0758013 0)
(-2.13907 -0.156433 0)
(-2.20086 -0.285511 0)
(-1.97711 -0.468427 0)
(-1.37905 -0.845217 0)
(-0.749252 -1.03633 0)
(-0.323639 -0.509971 0)
(0.0719414 0.415482 0)
(0.214836 0.00373875 0)
(0.365262 -0.307811 0)
(0.476423 -0.382096 0)
(0.595036 -0.312654 0)
(0.55667 -0.195563 0)
(0.782094 0.241395 0)
(-0.187166 1.40244 0)
(0.0327336 1.90838 0)
(-0.77526 1.15127 0)
(-0.807609 0.207544 0)
(-1.36276 0.0278921 0)
(-1.58629 0.0758222 0)
(-1.70495 -0.0520775 0)
(-1.88432 -0.24388 0)
(-1.82603 -0.47497 0)
(-1.30445 -1.02092 0)
(-0.656069 -1.32409 0)
(-0.30153 -0.748318 0)
(0.0759598 0.302693 0)
(0.307584 -0.0382564 0)
(0.521371 -0.366981 0)
(0.607681 -0.435874 0)
(0.717507 -0.330318 0)
(0.665804 -0.172287 0)
(0.86424 0.327298 0)
(-0.0840154 1.38549 0)
(0.710707 2.06007 0)
(0.367452 1.53926 0)
(-0.477751 0.176283 0)
(-0.863516 0.122009 0)
(-1.07624 0.103111 0)
(-1.19523 -0.0601874 0)
(-1.30308 -0.256801 0)
(-1.27896 -0.525369 0)
(-0.95374 -1.12081 0)
(-0.523064 -1.54999 0)
(-0.214342 -0.963616 0)
(0.0402125 0.220289 0)
(0.415329 -0.143486 0)
(0.631054 -0.431748 0)
(0.691446 -0.48156 0)
(0.804777 -0.358511 0)
(0.781548 -0.152887 0)
(0.911871 0.415825 0)
(0.0796548 1.27987 0)
(0.779711 1.92919 0)
(0.928273 1.76477 0)
(0.0142912 0.453529 0)
(-0.632431 0.22235 0)
(-0.900498 0.218342 0)
(-1.04756 -0.0339711 0)
(-0.948224 -0.287393 0)
(-0.729696 -0.509224 0)
(-0.435504 -1.15602 0)
(-0.384685 -1.65703 0)
(-0.115195 -1.13853 0)
(0.130603 0.0401125 0)
(0.521348 -0.274639 0)
(0.663781 -0.479516 0)
(0.718567 -0.535154 0)
(0.835865 -0.42348 0)
(0.84049 -0.150458 0)
(0.948103 0.506967 0)
(0.380521 1.24629 0)
(0.77715 1.771 0)
(1.15328 1.84501 0)
(0.639679 0.944375 0)
(-0.480963 0.387636 0)
(-0.82047 0.325867 0)
(-0.942106 -0.0763852 0)
(-0.802733 -0.4717 0)
(-0.508752 -0.698574 0)
(-0.0599312 -1.06065 0)
(-0.255756 -1.64047 0)
(-0.0359395 -1.25924 0)
(0.0542638 -0.0698245 0)
(0.105773 -0.106995 0)
(0.0779552 -0.0729562 0)
(0.0372079 -0.0340762 0)
(0.0206663 -0.00533298 0)
(0.0159825 0.00901002 0)
(0.00836937 0.00429547 0)
(0.00988658 0.00277983 0)
(0.0166401 0.0101207 0)
(0.0224968 0.019638 0)
(0.0258768 0.0286419 0)
(0.0219902 0.0456808 0)
(0.00668235 0.0564311 0)
(-0.00902905 0.0471621 0)
(-0.00607952 0.0219409 0)
(0.00615303 0.0102501 0)
(0.0141267 0.00279769 0)
(0.0231339 -0.00375365 0)
(0.0391537 -0.00886622 0)
(0.0628282 -0.0128864 0)
(0.0841306 -0.0112928 0)
(0.111504 -0.0307725 0)
(0.133339 0.00574214 0)
(-0.147782 -0.0434606 0)
(-0.801113 0.060209 0)
(-0.680691 0.0566018 0)
(-0.538825 -0.00259757 0)
(-0.427153 -0.0228766 0)
(-0.388137 -0.0231985 0)
(-0.395655 -0.0201787 0)
(-0.363828 -0.0126643 0)
(-0.286186 0.000362521 0)
(-0.21082 0.0122114 0)
(-0.15094 0.0216124 0)
(-0.0837896 0.0390829 0)
(-0.0431715 0.0474832 0)
(-0.00994126 0.0273829 0)
(0.0219502 -0.00260645 0)
(0.0351439 -0.00287834 0)
(0.0328846 0.00665643 0)
(0.0305987 -0.00173417 0)
(0.050116 -0.0222951 0)
(0.0722985 -0.0334992 0)
(0.0893818 -0.0348137 0)
(0.0907126 -0.0409376 0)
(0.0935082 -0.0494143 0)
(0.0236809 0.466872 0)
(-0.400661 0.303789 0)
(-0.406531 -0.10495 0)
(-0.595175 -0.283225 0)
(-0.820772 -0.134147 0)
(-0.947557 -0.0235622 0)
(-1.03456 -0.0275504 0)
(-1.04727 -0.0965422 0)
(-1.0337 -0.141145 0)
(-0.986786 -0.134487 0)
(-0.816655 -0.092302 0)
(-0.576754 -0.049782 0)
(-0.396222 -0.0127918 0)
(-0.289912 -0.0145776 0)
(-0.215594 -0.0198188 0)
(-0.123736 0.000854371 0)
(-0.0538079 0.0104892 0)
(-0.00692448 -0.0152157 0)
(0.0445014 -0.0445397 0)
(0.0919531 -0.0518328 0)
(0.117906 -0.0452496 0)
(0.125422 -0.0362634 0)
(0.10823 -0.0193169 0)
(0.0559038 0.495686 0)
(0.0108389 0.575719 0)
(-0.0645062 0.263507 0)
(-0.201822 0.222682 0)
(-0.388334 0.191522 0)
(-0.455773 0.139223 0)
(-0.457412 0.0800336 0)
(-0.440085 -0.0196459 0)
(-0.472885 -0.118586 0)
(-0.558861 -0.186189 0)
(-0.659584 -0.242115 0)
(-0.755533 -0.385506 0)
(-0.836271 -0.221366 0)
(-0.838331 -0.156337 0)
(-0.836034 -0.185769 0)
(-0.773401 -0.174461 0)
(-0.605795 -0.138421 0)
(-0.49839 -0.121119 0)
(-0.386836 -0.134646 0)
(-0.258719 -0.108476 0)
(-0.170175 -0.0781754 0)
(-0.131425 -0.0432486 0)
(-0.21589 -0.00308825 0)
(-0.0191841 0.366681 0)
(0.140016 0.540571 0)
(0.111275 0.336244 0)
(0.0567633 0.124168 0)
(0.0369307 0.115029 0)
(0.0075763 0.141113 0)
(0.00898535 0.0490642 0)
(0.0244587 -0.0475874 0)
(0.00369351 -0.0443957 0)
(-0.0154002 0.0156302 0)
(-0.0575306 0.108249 0)
(-0.191834 0.0353499 0)
(-0.300305 -0.0417638 0)
(-0.344095 -0.0595348 0)
(-0.395778 -0.0822825 0)
(-0.522416 -0.139907 0)
(-0.677367 -0.234351 0)
(-0.824345 -0.172668 0)
(-0.948119 -0.236699 0)
(-1.05714 -0.235092 0)
(-1.09725 -0.145366 0)
(-1.05197 0.0431645 0)
(-0.956954 0.29425 0)
(-0.0551393 0.331783 0)
(0.0944685 0.384696 0)
(0.156271 0.310444 0)
(0.16423 0.18133 0)
(0.131198 0.152732 0)
(0.123002 0.146317 0)
(0.109383 0.0690017 0)
(0.0388384 -0.00911301 0)
(-0.0517007 -0.0613847 0)
(-0.105535 -0.0868566 0)
(-0.104782 -0.0704464 0)
(-0.090146 -0.0448956 0)
(-0.141107 -0.0207629 0)
(-0.212909 -0.0425066 0)
(-0.227819 -0.0101711 0)
(-0.261372 0.067455 0)
(-0.330103 0.0882561 0)
(-0.426958 0.0788499 0)
(-0.544523 0.064383 0)
(-0.700277 0.00330205 0)
(-0.900681 -0.160354 0)
(-1.18007 -0.171364 0)
(-1.38401 0.0599238 0)
(-0.0348368 0.328657 0)
(0.0493417 0.283616 0)
(0.119726 0.270986 0)
(0.140496 0.20351 0)
(0.0997442 0.173754 0)
(0.092321 0.158892 0)
(0.0837198 0.116847 0)
(0.039263 0.081576 0)
(-0.0148463 0.0655328 0)
(-0.0800567 0.0532342 0)
(-0.128546 0.0588845 0)
(-0.16108 0.0675188 0)
(-0.184886 0.0583172 0)
(-0.216667 0.00587252 0)
(-0.260725 -0.022437 0)
(-0.289058 -0.0175898 0)
(-0.298441 0.00865015 0)
(-0.319442 0.0390437 0)
(-0.34686 0.0623867 0)
(-0.377697 0.105474 0)
(-0.425035 0.205608 0)
(-0.513474 0.3565 0)
(-0.691004 0.392953 0)
(-0.0119083 0.315643 0)
(0.0307572 0.232162 0)
(0.0684174 0.241785 0)
(0.0838025 0.205004 0)
(0.0628065 0.180302 0)
(0.0566041 0.165372 0)
(0.044785 0.141092 0)
(0.0131134 0.112364 0)
(-0.0282181 0.077307 0)
(-0.0704691 0.0417139 0)
(-0.103602 0.0285173 0)
(-0.126018 0.032716 0)
(-0.132723 0.0481407 0)
(-0.143376 0.0399128 0)
(-0.176361 0.0499976 0)
(-0.21322 0.0788149 0)
(-0.243315 0.0938359 0)
(-0.260787 0.100944 0)
(-0.271457 0.113733 0)
(-0.305022 0.137634 0)
(-0.337764 0.158701 0)
(-0.271759 0.244942 0)
(-0.185138 0.551137 0)
(-0.00525482 0.30707 0)
(0.016176 0.201313 0)
(0.0359112 0.222631 0)
(0.0473768 0.207333 0)
(0.0395076 0.190014 0)
(0.0349209 0.174136 0)
(0.0256246 0.158083 0)
(0.00928745 0.141576 0)
(-0.013259 0.124332 0)
(-0.0435429 0.108731 0)
(-0.0795476 0.0941209 0)
(-0.109929 0.0790433 0)
(-0.126786 0.0646984 0)
(-0.142512 0.0508275 0)
(-0.170603 0.0544069 0)
(-0.194278 0.0693308 0)
(-0.211123 0.0826183 0)
(-0.221981 0.0904209 0)
(-0.227076 0.109826 0)
(-0.234077 0.150077 0)
(-0.227546 0.170629 0)
(-0.146228 0.147112 0)
(-0.0241532 0.368759 0)
(-0.00524463 0.305371 0)
(0.00709024 0.184915 0)
(0.018853 0.209946 0)
(0.0276714 0.206769 0)
(0.0239536 0.194647 0)
(0.0204597 0.181051 0)
(0.0141028 0.169349 0)
(0.00454657 0.158134 0)
(-0.0102714 0.144434 0)
(-0.0308755 0.126792 0)
(-0.0536553 0.108818 0)
(-0.0766855 0.094365 0)
(-0.0996395 0.0865268 0)
(-0.125829 0.0830053 0)
(-0.155453 0.0901113 0)
(-0.180741 0.10169 0)
(-0.197594 0.105336 0)
(-0.208797 0.103353 0)
(-0.213941 0.111153 0)
(-0.196384 0.1258 0)
(-0.141564 0.103894 0)
(-0.0852846 0.0245515 0)
(-0.0343018 0.205761 0)
(-0.004577 0.305538 0)
(0.00302288 0.176136 0)
(0.00896697 0.201802 0)
(0.0146984 0.205007 0)
(0.01217 0.19637 0)
(0.00901367 0.185595 0)
(0.00333627 0.17616 0)
(-0.00411642 0.167203 0)
(-0.0143951 0.156785 0)
(-0.02826 0.144241 0)
(-0.0457458 0.131127 0)
(-0.0670159 0.119277 0)
(-0.0911636 0.111695 0)
(-0.118158 0.109165 0)
(-0.145879 0.114047 0)
(-0.1688 0.120618 0)
(-0.185495 0.120285 0)
(-0.199362 0.112575 0)
(-0.204216 0.103998 0)
(-0.178891 0.0915819 0)
(-0.137416 0.0559214 0)
(-0.169209 0.0261136 0)
(-0.211777 0.239819 0)
(-0.00280802 0.3062 0)
(0.000983384 0.171548 0)
(0.00298457 0.197396 0)
(0.00576232 0.204566 0)
(0.0032762 0.198649 0)
(-7.55182e-05 0.190161 0)
(-0.00584324 0.182485 0)
(-0.012878 0.175399 0)
(-0.0216769 0.167907 0)
(-0.0334164 0.159276 0)
(-0.0490492 0.150003 0)
(-0.068772 0.142006 0)
(-0.0917064 0.137405 0)
(-0.116707 0.136317 0)
(-0.141658 0.13847 0)
(-0.162963 0.140557 0)
(-0.181405 0.136887 0)
(-0.20005 0.123151 0)
(-0.211181 0.100131 0)
(-0.203421 0.0768673 0)
(-0.211255 0.0659481 0)
(-0.29516 0.0932616 0)
(-0.387078 0.285417 0)
(-0.000965529 0.306781 0)
(-0.000188915 0.170302 0)
(-0.000663339 0.196066 0)
(-0.000200051 0.205452 0)
(-0.00310509 0.20161 0)
(-0.00689004 0.195169 0)
(-0.0129144 0.189204 0)
(-0.0203069 0.183671 0)
(-0.0293015 0.178133 0)
(-0.0406565 0.172343 0)
(-0.0551896 0.166754 0)
(-0.0731802 0.162501 0)
(-0.0939186 0.160436 0)
(-0.116396 0.160245 0)
(-0.139332 0.161288 0)
(-0.161335 0.162144 0)
(-0.183531 0.15858 0)
(-0.208724 0.143459 0)
(-0.233891 0.114652 0)
(-0.257893 0.0899359 0)
(-0.299132 0.105007 0)
(-0.379782 0.190099 0)
(-0.474025 0.354741 0)
(0.000331656 0.306978 0)
(-0.000867255 0.171394 0)
(-0.00291983 0.19684 0)
(-0.00418705 0.207404 0)
(-0.00748314 0.205056 0)
(-0.0117212 0.20041 0)
(-0.0178597 0.196159 0)
(-0.0254714 0.192244 0)
(-0.0346846 0.188597 0)
(-0.04584 0.185327 0)
(-0.0594579 0.182729 0)
(-0.0757746 0.181249 0)
(-0.0943659 0.18114 0)
(-0.114841 0.182214 0)
(-0.137096 0.18414 0)
(-0.160982 0.18623 0)
(-0.187636 0.186038 0)
(-0.220802 0.1774 0)
(-0.265408 0.156806 0)
(-0.326361 0.139545 0)
(-0.397661 0.165101 0)
(-0.462933 0.270422 0)
(-0.527252 0.437251 0)
(0.000939225 0.307029 0)
(-0.00135085 0.173653 0)
(-0.00428614 0.198959 0)
(-0.00676809 0.21022 0)
(-0.010376 0.20892 0)
(-0.0148981 0.205777 0)
(-0.0209302 0.203113 0)
(-0.0283595 0.200811 0)
(-0.0373175 0.198944 0)
(-0.0479577 0.19771 0)
(-0.0605288 0.197322 0)
(-0.0751891 0.198003 0)
(-0.091904 0.199948 0)
(-0.110737 0.203189 0)
(-0.132104 0.207593 0)
(-0.156589 0.212762 0)
(-0.185233 0.218197 0)
(-0.220942 0.22241 0)
(-0.270628 0.221356 0)
(-0.344143 0.215094 0)
(-0.435906 0.232655 0)
(-0.515788 0.328885 0)
(-0.577144 0.506617 0)
(0.00105966 0.307202 0)
(-0.00174841 0.176499 0)
(-0.00515068 0.201971 0)
(-0.00833704 0.213577 0)
(-0.0121114 0.213037 0)
(-0.0167156 0.211109 0)
(-0.0224911 0.209789 0)
(-0.029468 0.208923 0)
(-0.0377856 0.208598 0)
(-0.0475452 0.209022 0)
(-0.0588742 0.210413 0)
(-0.0719101 0.212975 0)
(-0.086791 0.216955 0)
(-0.103738 0.222609 0)
(-0.123167 0.230065 0)
(-0.145817 0.239166 0)
(-0.172909 0.250044 0)
(-0.20613 0.26419 0)
(-0.249121 0.281966 0)
(-0.312291 0.299749 0)
(-0.404105 0.326975 0)
(-0.502963 0.407194 0)
(-0.578597 0.577703 0)
(0.00098335 0.307598 0)
(-0.00202256 0.179673 0)
(-0.00570156 0.205492 0)
(-0.00915433 0.217199 0)
(-0.0129482 0.21723 0)
(-0.0174402 0.216269 0)
(-0.0228488 0.216026 0)
(-0.0292425 0.216348 0)
(-0.0367301 0.21731 0)
(-0.0454059 0.219122 0)
(-0.0553725 0.22201 0)
(-0.066758 0.226211 0)
(-0.079717 0.232011 0)
(-0.094463 0.239769 0)
(-0.111285 0.249876 0)
(-0.130736 0.262625 0)
(-0.153896 0.278477 0)
(-0.181994 0.299354 0)
(-0.216025 0.328646 0)
(-0.260597 0.367611 0)
(-0.326772 0.417378 0)
(-0.411308 0.495891 0)
(-0.4812 0.640806 0)
(0.000867836 0.308158 0)
(-0.00215077 0.183041 0)
(-0.00597112 0.209192 0)
(-0.00939087 0.22084 0)
(-0.0130566 0.221314 0)
(-0.0172913 0.221131 0)
(-0.0222423 0.221739 0)
(-0.0279711 0.223001 0)
(-0.0345531 0.224996 0)
(-0.0420676 0.227932 0)
(-0.0506013 0.232039 0)
(-0.0602424 0.237579 0)
(-0.0711015 0.244871 0)
(-0.0833182 0.254326 0)
(-0.0970545 0.266473 0)
(-0.112601 0.281888 0)
(-0.130495 0.301329 0)
(-0.151373 0.326493 0)
(-0.175264 0.361033 0)
(-0.201963 0.409739 0)
(-0.234742 0.475205 0)
(-0.276704 0.560122 0)
(-0.310922 0.6783 0)
(0.000748996 0.308814 0)
(-0.00215413 0.186435 0)
(-0.00596004 0.212834 0)
(-0.00917714 0.224324 0)
(-0.0125886 0.225139 0)
(-0.0164388 0.225567 0)
(-0.020852 0.226844 0)
(-0.0258515 0.228831 0)
(-0.0314853 0.231614 0)
(-0.037802 0.235399 0)
(-0.0448498 0.24042 0)
(-0.0526612 0.246945 0)
(-0.0612798 0.255299 0)
(-0.070736 0.265915 0)
(-0.0810422 0.279354 0)
(-0.0922307 0.296272 0)
(-0.104333 0.317525 0)
(-0.117279 0.344536 0)
(-0.130469 0.380024 0)
(-0.141958 0.428564 0)
(-0.148832 0.494624 0)
(-0.149482 0.578311 0)
(-0.138353 0.676556 0)
(0.000649717 0.309518 0)
(-0.00204499 0.189736 0)
(-0.0057244 0.216271 0)
(-0.00860935 0.227526 0)
(-0.0116748 0.228604 0)
(-0.0150518 0.229493 0)
(-0.0188543 0.231271 0)
(-0.0230706 0.233788 0)
(-0.0277239 0.23713 0)
(-0.0328235 0.241495 0)
(-0.038366 0.247111 0)
(-0.0443319 0.254237 0)
(-0.0506937 0.263179 0)
(-0.0573691 0.274345 0)
(-0.0642273 0.288258 0)
(-0.0710786 0.305531 0)
(-0.077615 0.326921 0)
(-0.0832848 0.353513 0)
(-0.0870089 0.387024 0)
(-0.0865227 0.430242 0)
(-0.0774536 0.486699 0)
(-0.0543299 0.557328 0)
(-0.0127486 0.635702 0)
(0.000605047 0.310195 0)
(-0.00182811 0.192848 0)
(-0.0053124 0.219402 0)
(-0.0077733 0.230363 0)
(-0.0104293 0.231621 0)
(-0.01328 0.232844 0)
(-0.0164276 0.234971 0)
(-0.0198303 0.237838 0)
(-0.0234902 0.241527 0)
(-0.0273803 0.246221 0)
(-0.0314514 0.252131 0)
(-0.0356373 0.25949 0)
(-0.0398443 0.268569 0)
(-0.0439054 0.279723 0)
(-0.0475823 0.293387 0)
(-0.0505305 0.31006 0)
(-0.0522457 0.3303 0)
(-0.0519525 0.354822 0)
(-0.0483951 0.384562 0)
(-0.0394954 0.420792 0)
(-0.0215855 0.464971 0)
(0.0102222 0.517701 0)
(0.0620741 0.574774 0)
(0.000635855 0.31076 0)
(-0.00152104 0.195721 0)
(-0.00475897 0.222161 0)
(-0.00674429 0.232776 0)
(-0.00895692 0.234139 0)
(-0.0112507 0.235586 0)
(-0.0137293 0.237923 0)
(-0.0163229 0.240977 0)
(-0.0190101 0.244822 0)
(-0.0217361 0.249622 0)
(-0.0244181 0.255559 0)
(-0.0269527 0.262831 0)
(-0.0291926 0.271666 0)
(-0.0309184 0.282346 0)
(-0.0318281 0.295197 0)
(-0.0314965 0.310586 0)
(-0.0293318 0.328842 0)
(-0.0245232 0.350375 0)
(-0.0158626 0.375501 0)
(-0.00173642 0.404573 0)
(0.0204755 0.437803 0)
(0.0543873 0.474835 0)
(0.104652 0.513211 0)
(0.000736949 0.311132 0)
(-0.00114741 0.198323 0)
(-0.00409124 0.224517 0)
(-0.00558217 0.234735 0)
(-0.0073416 0.236141 0)
(-0.00907533 0.237713 0)
(-0.0108982 0.240135 0)
(-0.0127131 0.243233 0)
(-0.0144804 0.247069 0)
(-0.0161247 0.251781 0)
(-0.0175398 0.25752 0)
(-0.0185938 0.264447 0)
(-0.0191088 0.272741 0)
(-0.0188389 0.282597 0)
(-0.0174529 0.294241 0)
(-0.0145199 0.307923 0)
(-0.00941025 0.323691 0)
(-0.0014319 0.34181 0)
(0.0104135 0.362233 0)
(0.0275311 0.384773 0)
(0.0516823 0.409108 0)
(0.0848785 0.434375 0)
(0.130075 0.458416 0)
(0.000888577 0.311236 0)
(-0.000723615 0.200636 0)
(-0.0033279 0.226453 0)
(-0.00433311 0.236238 0)
(-0.00564881 0.23763 0)
(-0.00684134 0.23924 0)
(-0.00804282 0.241641 0)
(-0.00913281 0.244662 0)
(-0.0100591 0.248348 0)
(-0.0107312 0.252813 0)
(-0.0110286 0.258179 0)
(-0.0108021 0.264564 0)
(-0.00986405 0.272094 0)
(-0.00796047 0.280889 0)
(-0.00474326 0.291068 0)
(9.23252e-05 0.302775 0)
(0.0072408 0.315989 0)
(0.0173802 0.33066 0)
(0.0311299 0.346647 0)
(0.0495807 0.363512 0)
(0.073928 0.380635 0)
(0.105202 0.396987 0)
(0.145211 0.411003 0)
(0.00107911 0.311008 0)
(-0.000247787 0.202655 0)
(-0.00249211 0.227959 0)
(-0.00303195 0.237299 0)
(-0.00392881 0.238626 0)
(-0.0046119 0.2402 0)
(-0.00524185 0.242495 0)
(-0.00567863 0.24534 0)
(-0.00586185 0.248764 0)
(-0.0056893 0.252861 0)
(-0.00503583 0.257722 0)
(-0.00374812 0.263422 0)
(-0.00163858 0.270043 0)
(0.00152686 0.27763 0)
(0.0060879 0.28624 0)
(0.0123641 0.295913 0)
(0.0208689 0.306667 0)
(0.0321801 0.318094 0)
(0.0467963 0.330059 0)
(0.0655011 0.342008 0)
(0.0890401 0.35331 0)
(0.117859 0.362995 0)
(0.153095 0.370031 0)
(0.00127582 0.310416 0)
(0.000272194 0.20436 0)
(-0.00160516 0.229025 0)
(-0.00170073 0.237952 0)
(-0.00221754 0.239163 0)
(-0.00242959 0.240642 0)
(-0.00254845 0.242764 0)
(-0.00241604 0.245363 0)
(-0.00196459 0.248435 0)
(-0.00108225 0.252075 0)
(0.000344849 0.256334 0)
(0.00247116 0.26126 0)
(0.00547018 0.266888 0)
(0.00957168 0.273236 0)
(0.0150995 0.2803 0)
(0.0223349 0.288016 0)
(0.0315861 0.296328 0)
(0.0434107 0.30484 0)
(0.0581844 0.313301 0)
(0.0763799 0.321171 0)
(0.0985254 0.327831 0)
(0.124723 0.332505 0)
(0.155624 0.334586 0)
(0.00146724 0.309436 0)
(0.000826693 0.205742 0)
(-0.000703347 0.229651 0)
(-0.000357309 0.238246 0)
(-0.000552671 0.239273 0)
(-0.000325732 0.240621 0)
(6.23481e-06 0.242521 0)
(0.000616333 0.244811 0)
(0.00158934 0.247504 0)
(0.00304568 0.250622 0)
(0.00507535 0.254224 0)
(0.00783119 0.258334 0)
(0.0114871 0.262947 0)
(0.0162511 0.268066 0)
(0.0223699 0.273619 0)
(0.0301043 0.279483 0)
(0.0396826 0.285539 0)
(0.0515386 0.291535 0)
(0.0659593 0.296974 0)
(0.0832007 0.30149 0)
(0.103589 0.304489 0)
(0.127172 0.305425 0)
(0.154187 0.303944 0)
(0.0016807 0.308031 0)
(0.00140856 0.206813 0)
(0.000177123 0.229885 0)
(0.000970236 0.23817 0)
(0.00100868 0.239003 0)
(0.00167572 0.240193 0)
(0.00237818 0.241839 0)
(0.00341478 0.243794 0)
(0.00481348 0.246071 0)
(0.00669595 0.248665 0)
(0.00918762 0.251591 0)
(0.0123921 0.254879 0)
(0.0164832 0.258498 0)
(0.021636 0.26241 0)
(0.0280488 0.266516 0)
(0.0359428 0.270694 0)
(0.0455256 0.274772 0)
(0.0570399 0.278551 0)
(0.0707281 0.281512 0)
(0.0867495 0.283268 0)
(0.105236 0.28338 0)
(0.126256 0.281537 0)
(0.14978 0.277486 0)
(0.0019769 0.306142 0)
(0.00206832 0.207659 0)
(0.000940833 0.22975 0)
(0.0022281 0.237742 0)
(0.00246284 0.238387 0)
(0.00352635 0.23941 0)
(0.00455291 0.240781 0)
(0.00593769 0.24241 0)
(0.00769626 0.244239 0)
(0.00991625 0.246314 0)
(0.0127269 0.248582 0)
(0.016244 0.251074 0)
(0.0205882 0.253742 0)
(0.0259153 0.256518 0)
(0.032393 0.259306 0)
(0.0401995 0.261974 0)
(0.0495009 0.264338 0)
(0.0604505 0.266185 0)
(0.0731755 0.267139 0)
(0.0877847 0.266701 0)
(0.104329 0.264561 0)
(0.122833 0.260584 0)
(0.143199 0.254702 0)
(0.00244601 0.303665 0)
(0.00283224 0.208426 0)
(0.00154368 0.22928 0)
(0.00338148 0.237025 0)
(0.00374644 0.237452 0)
(0.00518325 0.238311 0)
(0.00647326 0.239408 0)
(0.00815681 0.240696 0)
(0.0102007 0.242108 0)
(0.0126939 0.243655 0)
(0.0157437 0.245307 0)
(0.0194658 0.247048 0)
(0.0239403 0.248833 0)
(0.0293071 0.250578 0)
(0.0357011 0.252192 0)
(0.0432537 0.253541 0)
(0.0520947 0.254438 0)
(0.0623344 0.254686 0)
(0.0740052 0.25397 0)
(0.0871525 0.251857 0)
(0.101763 0.247997 0)
(0.117842 0.242378 0)
(0.135331 0.235186 0)
(0.00313817 0.300415 0)
(0.00367558 0.20943 0)
(0.00199793 0.228595 0)
(0.00438391 0.236029 0)
(0.00479917 0.236249 0)
(0.00657873 0.23695 0)
(0.00805494 0.237765 0)
(0.00998662 0.23871 0)
(0.0122599 0.239718 0)
(0.0149638 0.240764 0)
(0.0181942 0.241839 0)
(0.0220535 0.242887 0)
(0.0265946 0.243867 0)
(0.0319297 0.244697 0)
(0.0381729 0.245286 0)
(0.0454102 0.245504 0)
(0.0537361 0.245178 0)
(0.0632164 0.244123 0)
(0.0738589 0.242073 0)
(0.0856542 0.238687 0)
(0.0984916 0.233573 0)
(0.112367 0.226747 0)
(0.127307 0.218585 0)
(0.00396246 0.296283 0)
(0.00451034 0.210689 0)
(0.00236988 0.227823 0)
(0.00516933 0.234811 0)
(0.00556511 0.234843 0)
(0.00761587 0.235385 0)
(0.00917824 0.235911 0)
(0.0112948 0.236525 0)
(0.0137223 0.237129 0)
(0.016575 0.2377 0)
(0.0199231 0.238231 0)
(0.0238507 0.238646 0)
(0.0284096 0.238907 0)
(0.033686 0.238933 0)
(0.0397639 0.238636 0)
(0.0466955 0.237883 0)
(0.0545447 0.23654 0)
(0.0633466 0.234421 0)
(0.0731019 0.231331 0)
(0.0837738 0.226976 0)
(0.0952008 0.220997 0)
(0.107313 0.213349 0)
(0.120212 0.204463 0)
(0.00478557 0.291318 0)
(0.00527198 0.212176 0)
(0.0026523 0.227106 0)
(0.00567651 0.233466 0)
(0.00596629 0.233331 0)
(0.00818134 0.233704 0)
(0.00972002 0.233942 0)
(0.0119211 0.234226 0)
(0.0143937 0.234433 0)
(0.0172937 0.234546 0)
(0.020664 0.234553 0)
(0.0245798 0.234383 0)
(0.0290846 0.233992 0)
(0.0342436 0.233304 0)
(0.0401207 0.232225 0)
(0.0467554 0.230635 0)
(0.054191 0.228421 0)
(0.0624414 0.225419 0)
(0.0715029 0.221474 0)
(0.0813474 0.216362 0)
(0.0918196 0.209774 0)
(0.102766 0.201583 0)
(0.114331 0.192156 0)
(0.00556625 0.285605 0)
(0.00592381 0.213932 0)
(0.00278861 0.22657 0)
(0.0058628 0.232109 0)
(0.00594804 0.231823 0)
(0.00819789 0.232018 0)
(0.00957176 0.23197 0)
(0.0117333 0.231922 0)
(0.0141117 0.231739 0)
(0.0169176 0.231412 0)
(0.0201715 0.230916 0)
(0.0239325 0.230194 0)
(0.0282532 0.229191 0)
(0.0331799 0.227841 0)
(0.0387618 0.226049 0)
(0.045039 0.223717 0)
(0.0520463 0.220733 0)
(0.0597947 0.216959 0)
(0.0682888 0.21226 0)
(0.0775119 0.206474 0)
(0.087351 0.199353 0)
(0.0976167 0.190743 0)
(0.108511 0.180861 0)
(0.00630497 0.279214 0)
(0.00643715 0.216048 0)
(0.00277274 0.226362 0)
(0.00574084 0.230906 0)
(0.00550579 0.230487 0)
(0.00765631 0.230485 0)
(0.00873409 0.230152 0)
(0.0107213 0.229787 0)
(0.0128582 0.229226 0)
(0.0154067 0.228482 0)
(0.0183718 0.227508 0)
(0.021807 0.226267 0)
(0.0257614 0.224697 0)
(0.0302771 0.222723 0)
(0.0354 0.220271 0)
(0.0411697 0.217247 0)
(0.0476181 0.213545 0)
(0.054765 0.209044 0)
(0.0626225 0.203624 0)
(0.0711919 0.197146 0)
(0.0804284 0.189437 0)
(0.0901353 0.180354 0)
(0.100594 0.169991 0)
(0.00693595 0.272318 0)
(0.0067318 0.218502 0)
(0.00263756 0.226587 0)
(0.00536806 0.229998 0)
(0.00471798 0.229476 0)
(0.00665412 0.229258 0)
(0.00734217 0.228642 0)
(0.00904686 0.227988 0)
(0.0108098 0.227069 0)
(0.0129635 0.225939 0)
(0.015488 0.224528 0)
(0.0184407 0.222816 0)
(0.0218514 0.220721 0)
(0.0257697 0.218188 0)
(0.0302417 0.215127 0)
(0.0352989 0.211453 0)
(0.0409781 0.207076 0)
(0.0473095 0.201869 0)
(0.0543003 0.195742 0)
(0.0619674 0.188556 0)
(0.0703314 0.180191 0)
(0.0792073 0.170514 0)
(0.0889245 0.159567 0)
(0.00735768 0.265158 0)
(0.00675442 0.221153 0)
(0.00239218 0.227181 0)
(0.00481057 0.229407 0)
(0.0037281 0.228802 0)
(0.00535882 0.228336 0)
(0.00562931 0.227498 0)
(0.00698917 0.226553 0)
(0.00829621 0.225331 0)
(0.00997824 0.223855 0)
(0.011974 0.22207 0)
(0.014336 0.21994 0)
(0.0170951 0.217385 0)
(0.0202965 0.214351 0)
(0.0239634 0.210755 0)
(0.0281514 0.2065 0)
(0.0328779 0.201515 0)
(0.0381824 0.19567 0)
(0.0440692 0.188886 0)
(0.0505515 0.181043 0)
(0.0576882 0.172018 0)
(0.0652961 0.161694 0)
(0.0737145 0.150119 0)
(0.00751241 0.257903 0)
(0.00648464 0.223845 0)
(0.00205543 0.228 0)
(0.00412325 0.22905 0)
(0.00265394 0.228403 0)
(0.00398997 0.227664 0)
(0.0038499 0.226641 0)
(0.00483446 0.225434 0)
(0.00568919 0.223955 0)
(0.00687922 0.222185 0)
(0.00832847 0.220094 0)
(0.0100771 0.217605 0)
(0.0121507 0.214673 0)
(0.0146001 0.211207 0)
(0.0174294 0.207158 0)
(0.0206896 0.202427 0)
(0.0243947 0.196908 0)
(0.0285754 0.190539 0)
(0.0332417 0.183186 0)
(0.0383858 0.174783 0)
(0.0440824 0.165188 0)
(0.050165 0.154279 0)
(0.0569284 0.142175 0)
(0.00724394 0.251005 0)
(0.00583364 0.226565 0)
(0.00166853 0.229142 0)
(0.00335795 0.229063 0)
(0.00164688 0.22844 0)
(0.00266346 0.227412 0)
(0.00220553 0.226214 0)
(0.00284433 0.224793 0)
(0.00328512 0.22309 0)
(0.00403223 0.221088 0)
(0.00497334 0.21874 0)
(0.0061511 0.215967 0)
(0.00758325 0.212719 0)
(0.0093142 0.208922 0)
(0.0113579 0.204491 0)
(0.01372 0.199375 0)
(0.0164412 0.193425 0)
(0.0195362 0.186632 0)
(0.023002 0.178829 0)
(0.0268584 0.169976 0)
(0.0311355 0.159942 0)
(0.035701 0.148587 0)