/*--------------------------------*- C++ -*----------------------------------*\
| =========                 |                                                 |
| \\      /  F ield         | OpenFOAM: The Open Source CFD Toolbox           |
|  \\    /   O peration     | Version:  5.x                                   |
|   \\  /    A nd           | Web:      www.OpenFOAM.org                      |
|    \\/     M anipulation  |                                                 |
\*---------------------------------------------------------------------------*/
FoamFile
{
    version     2.0;
    format      ascii;
    class       surfaceScalarField;
    location    "0.1";
    object      alphaPhi10;
}
// * * * * * * * * * * * * * * * * * * * * * * * * * * * * * * * * * * * * * //

dimensions      [0 3 -1 0 0 0 0];

internalField   nonuniform List<scalar> 
4432
(
4.71628e-06
-4.71628e-06
1.04621e-05
-5.74581e-06
1.60187e-05
-5.55661e-06
2.15889e-05
-5.57022e-06
2.73552e-05
-5.76622e-06
3.34009e-05
-6.04576e-06
3.97965e-05
-6.39557e-06
4.66068e-05
-6.81028e-06
5.39461e-05
-7.33935e-06
6.18813e-05
-7.93522e-06
7.05111e-05
-8.62978e-06
7.9988e-05
-9.47691e-06
9.0623e-05
-1.0635e-05
0.000102674
-1.20512e-05
0.00011519
-1.25161e-05
0.000125249
-1.03994e-05
0.000131488
-6.26929e-06
0.000135126
-3.44771e-06
0.000138362
-3.23623e-06
7.68065e-05
-1.50534e-06
2.0122e-06
4.54687e-06
1.46739e-07
1.86546e-06
1.46739e-07
4.73266e-06
-9.44895e-06
1.04642e-05
-1.14774e-05
1.60214e-05
-1.11138e-05
2.1593e-05
-1.11418e-05
2.73561e-05
-1.15294e-05
3.33965e-05
-1.20861e-05
3.97821e-05
-1.27813e-05
4.65856e-05
-1.36137e-05
5.39036e-05
-1.46574e-05
6.1813e-05
-1.58446e-05
7.04573e-05
-1.7274e-05
7.99396e-05
-1.89592e-05
9.03712e-05
-2.10666e-05
0.000102012
-2.36918e-05
0.000114478
-2.49843e-05
0.00012647
-2.23935e-05
0.00013559
-1.6635e-05
0.000130944
-1.16559e-05
0.0001009
-7.73758e-06
4.63174e-05
-1.99862e-06
2.10782e-06
2.54431e-06
5.33622e-07
3.03621e-06
6.80361e-07
4.72884e-06
-1.41778e-05
1.04225e-05
-1.7171e-05
1.59496e-05
-1.66409e-05
2.14948e-05
-1.6687e-05
2.72281e-05
-1.72626e-05
3.32344e-05
-1.80924e-05
3.95801e-05
-1.9127e-05
4.63408e-05
-2.03744e-05
5.36043e-05
-2.1921e-05
6.14539e-05
-2.36941e-05
7.00624e-05
-2.58826e-05
7.95055e-05
-2.84023e-05
8.98164e-05
-3.13776e-05
0.000101316
-3.51913e-05
0.000114029
-3.76973e-05
0.000127592
-3.59569e-05
0.00013908
-2.91747e-05
9.08432e-05
-2.16666e-05
1.73976e-05
-4.2256e-06
1.05964e-05
-1.99521e-07
9.20556e-06
2.10937e-07
9.84768e-07
4.54958e-06
1.66513e-06
4.71802e-06
-1.88958e-05
1.03611e-05
-2.2814e-05
1.5843e-05
-2.21228e-05
2.13482e-05
-2.21922e-05
2.70381e-05
-2.29525e-05
3.29952e-05
-2.40496e-05
3.92842e-05
-2.5416e-05
4.59815e-05
-2.70717e-05
5.31711e-05
-2.91106e-05
6.09403e-05
-3.14633e-05
6.94719e-05
-3.44141e-05
7.88357e-05
-3.77661e-05
8.90749e-05
-4.16168e-05
0.000100584
-4.67004e-05
0.000113709
-5.08223e-05
0.000128245
-5.04932e-05
0.000116167
-4.57284e-05
3.30727e-05
-1.85478e-05
3.39466e-06
-1.08101e-06
2.38283e-06
1.13619e-08
3.98847e-06
6.65013e-08
2.35649e-06
1.86444e-06
4.53296e-06
4.69998e-06
-2.35958e-05
1.02793e-05
-2.83933e-05
1.57022e-05
-2.75457e-05
2.11538e-05
-2.76438e-05
2.67869e-05
-2.85857e-05
3.26806e-05
-2.99432e-05
3.88968e-05
-3.16322e-05
4.55129e-05
-3.36878e-05
5.26078e-05
-3.62055e-05
6.02758e-05
-3.91313e-05
6.87073e-05
-4.28456e-05
7.79568e-05
-4.70157e-05
8.81004e-05
-5.17604e-05
9.96601e-05
-5.82602e-05
0.000113536
-6.46986e-05
0.000125402
-6.23661e-05
6.02193e-05
-4.63067e-05
2.7633e-06
-6.31563e-06
6.94489e-07
-1.53366e-07
5.51001e-07
1.05077e-08
5.71599e-07
5.70989e-09
2.92088e-06
1.50579e-07
9.96169e-06
4.67628e-06
-2.82721e-05
1.01798e-05
-3.38968e-05
1.55316e-05
-3.28975e-05
2.0919e-05
-3.30312e-05
2.64853e-05
-3.4152e-05
3.23049e-05
-3.57628e-05
3.84377e-05
-3.7765e-05
4.49618e-05
-4.02119e-05
5.19509e-05
-4.31946e-05
5.95037e-05
-4.66842e-05
6.78226e-05
-5.11644e-05
7.69503e-05
-5.61433e-05
8.6971e-05
-6.17811e-05
9.85064e-05
-6.97956e-05
0.000112951
-7.91429e-05
9.3911e-05
-8.0856e-05
9.88446e-06
-2.79537e-05
5.09786e-07
-1.34345e-06
1.3284e-07
1.49979e-08
8.85721e-08
3.50809e-09
1.05434e-07
2.59109e-10
6.07562e-07
9.32388e-08
2.48587e-06
4.65244e-06
-3.29245e-05
1.00658e-05
-3.93102e-05
1.53362e-05
-3.81679e-05
2.0652e-05
-3.8347e-05
2.61446e-05
-3.96446e-05
3.18829e-05
-4.15011e-05
3.79249e-05
-4.38071e-05
4.43474e-05
-4.66343e-05
5.12225e-05
-5.00697e-05
5.86505e-05
-5.41122e-05
6.68311e-05
-5.9345e-05
7.57854e-05
-6.50976e-05
8.56029e-05
-7.15985e-05
9.70041e-05
-8.11969e-05
0.000110281
-9.24207e-05
4.81489e-05
-7.88546e-05
1.50687e-06
-9.25397e-06
2.65536e-08
-3.03371e-07
5.79034e-09
2.80725e-08
1.44368e-08
5.66837e-09
2.8717e-08
-2.04155e-09
9.07327e-08
2.72904e-08
4.9801e-08
4.62902e-06
-3.75535e-05
9.931e-06
-4.46122e-05
1.51103e-05
-4.33472e-05
2.03447e-05
-4.35813e-05
2.57523e-05
-4.50523e-05
3.13954e-05
-4.71442e-05
3.73299e-05
-4.97416e-05
4.36297e-05
-5.29341e-05
5.03607e-05
-5.68007e-05
5.76322e-05
-6.13837e-05
6.5624e-05
-6.73368e-05
7.42934e-05
-7.37671e-05
8.37492e-05
-8.10543e-05
9.49161e-05
-9.23638e-05
9.93161e-05
-9.68293e-05
1.27999e-05
-5.86268e-05
5.12339e-07
-3.43922e-06
1.67337e-08
5.36498e-09
1.61726e-09
2.45892e-08
1.081e-09
3.17054e-09
4.96844e-09
-3.14548e-10
2.93066e-08
7.43783e-09
7.91826e-08
1.44367e-25
-5.2274e-25
1.18273e-24
-2.81196e-24
2.91192e-25
-8.45213e-25
5.08047e-27
-3.60329e-26
5.75259e-29
-3.99312e-28
1.51579e-30
-2.64836e-30
6.05297e-32
1.56646e-32
1.9622e-33
1.49324e-33
5.28371e-35
6.60586e-35
1.27862e-36
2.26346e-36
2.68422e-38
6.47913e-38
4.74271e-40
1.56549e-39
6.87749e-42
3.17813e-41
7.88832e-44
5.33696e-43
6.75948e-46
7.21081e-45
3.93867e-48
7.49127e-47
1.3071e-50
5.53593e-49
1.60593e-53
2.50581e-51
4.77567e-54
2.16076e-23
-1.25074e-22
1.8143e-22
-6.755e-22
3.01143e-23
-1.67834e-22
4.74388e-25
-5.97833e-24
6.57886e-27
-6.72354e-26
1.72679e-28
-4.82584e-28
5.95322e-30
5.39231e-30
1.83466e-31
5.39519e-31
4.90538e-33
2.36241e-32
1.17403e-34
7.98072e-34
2.4402e-36
2.25538e-35
4.27272e-38
5.38992e-37
6.11495e-40
1.0813e-38
6.85234e-42
1.78521e-40
5.62251e-44
2.34346e-42
3.00933e-46
2.3076e-44
8.28612e-49
1.5323e-46
6.98991e-52
5.35565e-49
6.75243e-52
9.00522e-22
-8.6146e-21
1.20643e-20
-6.17072e-20
1.56619e-21
-1.36437e-20
2.24188e-23
-4.34188e-22
3.43085e-25
-4.84139e-24
8.4967e-27
-3.26933e-26
2.46386e-28
4.30323e-28
6.76722e-30
3.42133e-29
1.67975e-31
1.33997e-30
3.76562e-33
4.15929e-32
7.38588e-35
1.09576e-33
1.22539e-36
2.46315e-35
1.65768e-38
4.66279e-37
1.7364e-40
7.23825e-39
1.295e-42
8.81745e-41
6.06082e-45
7.77915e-43
1.47716e-47
4.56309e-45
1.84066e-50
1.44842e-47
1.9101e-50
9.04679e-21
-1.72785e-19
5.13229e-19
-4.06755e-18
5.80842e-20
-8.49202e-19
7.60001e-22
-2.28016e-20
1.2208e-23
-2.30912e-22
2.86695e-25
-1.33889e-24
7.29942e-27
2.17643e-26
1.80404e-28
1.37702e-27
4.13442e-30
4.81744e-29
8.63351e-32
1.36848e-30
1.58923e-33
3.34452e-32
2.48101e-35
7.03184e-34
3.13614e-37
1.24704e-35
3.0482e-39
1.79816e-37
2.15477e-41
2.05244e-39
9.69415e-44
1.72639e-41
2.26552e-46
9.68622e-44
3.79876e-49
2.9633e-46
3.99476e-49
-2.40735e-18
-3.79384e-18
1.76394e-17
-3.0665e-16
1.68688e-18
-5.7057e-17
1.84907e-20
-9.95733e-19
3.07744e-22
-7.94938e-21
6.99772e-24
-3.60857e-23
1.64244e-25
7.58932e-25
3.71043e-27
3.92873e-26
7.83208e-29
1.23838e-27
1.51397e-30
3.22063e-29
2.59027e-32
7.26619e-31
3.77924e-34
1.41659e-32
4.56239e-36
2.35906e-34
4.29086e-38
3.26826e-36
2.89124e-40
3.54492e-38
1.29182e-42
2.90968e-40
3.00842e-45
1.6079e-42
6.23849e-48
4.92566e-45
6.6464e-48
-5.37292e-17
-2.28262e-16
4.61083e-16
-7.03318e-15
2.98987e-17
-1.23704e-15
2.74738e-19
-1.6853e-17
4.95796e-21
-1.17141e-19
1.1536e-22
-3.70272e-22
2.63271e-24
1.68392e-23
5.64157e-26
7.53978e-25
1.12368e-27
2.22135e-26
2.04035e-29
5.42885e-28
3.30042e-31
1.15161e-29
4.64074e-33
2.14342e-31
5.35433e-35
3.42541e-33
4.82356e-37
4.49471e-35
3.3053e-39
4.84388e-37
1.44639e-41
3.93906e-39
3.23434e-44
2.09919e-41
7.97978e-47
6.37273e-44
8.65828e-47
1.86391e-15
-2.24525e-17
4.03649e-15
-2.63735e-14
1.66143e-16
-3.74115e-15
1.84996e-18
-6.04563e-17
3.97502e-20
-5.09423e-19
1.0208e-21
-4.84582e-22
2.44611e-23
1.86247e-22
5.35914e-25
7.96668e-24
1.07361e-26
2.36714e-25
1.94723e-28
5.82057e-27
3.14662e-30
1.24351e-28
4.34262e-32
2.30692e-30
4.94284e-34
3.61608e-32
4.58573e-36
4.82944e-34
3.10557e-38
5.22557e-36
1.33709e-40
4.18646e-38
3.02883e-43
2.25541e-40
8.25523e-46
6.70814e-43
9.13479e-46
2.14919e-14
-6.74421e-14
7.04262e-15
-4.62632e-14
2.53572e-16
-3.10897e-15
5.53328e-18
-8.40774e-17
1.70979e-19
-8.35169e-19
5.17879e-21
6.2716e-21
1.36396e-22
1.12146e-21
3.2165e-24
4.96038e-23
6.80968e-26
1.57623e-24
1.2958e-27
4.13243e-26
2.17004e-29
9.31299e-28
3.06528e-31
1.79917e-29
3.53495e-33
2.90925e-31
3.2953e-35
3.94165e-33
2.27103e-37
4.33384e-35
9.84738e-40
3.54549e-37
2.16054e-42
1.8732e-39
6.62191e-45
5.56449e-42
7.54729e-45
9.6492e-06
-4.72027e-05
2.05775e-05
-5.55405e-05
3.12108e-05
-5.39806e-05
4.19933e-05
-5.43638e-05
5.31301e-05
-5.61891e-05
6.47198e-05
-5.87339e-05
7.68746e-05
-6.18964e-05
8.97115e-05
-6.5771e-05
0.000103404
-7.04935e-05
0.00011811
-7.6089e-05
0.000134123
-8.335e-05
0.000151407
-9.10513e-05
0.000170915
-0.000100562
0.000194357
-0.000115805
0.000122461
-0.000110133
3.74393e-06
-1.5184e-05
1.28212e-07
-6.65734e-07
-1.38764e-08
4.01528e-08
-2.22034e-09
5.41756e-09
2.09868e-11
2.34574e-10
9.83093e-10
4.40993e-11
7.57899e-09
2.08951e-09
2.70219e-08
5.72309e-08
9.36774e-06
-5.65705e-05
1.96731e-05
-6.58458e-05
2.97432e-05
-6.40508e-05
3.99826e-05
-6.46031e-05
5.05355e-05
-6.6742e-05
6.14728e-05
-6.96712e-05
7.28813e-05
-7.3305e-05
8.48617e-05
-7.77514e-05
9.75292e-05
-8.3161e-05
0.000111026
-8.95854e-05
0.000125543
-9.78674e-05
0.000140873
-0.000106381
0.000158325
-0.000118014
0.000170892
-0.000128373
2.36568e-05
-7.12508e-05
7.98229e-07
-3.21718e-06
-1.83702e-08
-1.26501e-08
-3.98089e-09
1.28066e-08
-2.27216e-10
6.87102e-10
2.90146e-11
-4.71106e-11
1.11826e-10
2.83211e-12
2.00165e-09
3.10652e-10
4.87754e-09
2.47847e-08
9.01146e-06
-6.55819e-05
1.8619e-05
-7.54534e-05
2.80517e-05
-7.34834e-05
3.76715e-05
-7.4223e-05
4.75557e-05
-7.66262e-05
5.7747e-05
-7.98625e-05
6.83088e-05
-8.38667e-05
7.93138e-05
-8.87564e-05
9.08282e-05
-9.46754e-05
0.00010295
-0.000101707
0.000115751
-0.000110669
0.000128923
-0.000119553
0.000144159
-0.000133251
0.000105922
-0.000139452
2.61909e-06
-2.97788e-05
7.47262e-08
-1.05715e-06
-9.38223e-09
4.00136e-08
-9.31516e-10
3.30573e-09
-8.69788e-11
8.34271e-11
2.9268e-12
1.09588e-11
1.89202e-11
9.35411e-13
3.19086e-10
3.88332e-11
6.24846e-10
4.83829e-09
8.5785e-06
-7.41604e-05
1.74334e-05
-8.43083e-05
2.61783e-05
-8.22283e-05
3.51168e-05
-8.31615e-05
4.42647e-05
-8.57741e-05
5.36403e-05
-8.92381e-05
6.32845e-05
-9.35109e-05
7.32393e-05
-9.87113e-05
8.35281e-05
-0.000104964
9.41967e-05
-0.000112375
0.000105188
-0.00012166
0.000116196
-0.000130561
0.000128924
-0.000145979
4.82151e-05
-0.000122653
9.82576e-07
-7.9794e-06
-1.87529e-08
-1.65417e-07
-2.99564e-09
1.86143e-08
-1.71872e-10
5.18557e-10
-1.49777e-11
3.86567e-11
-4.36131e-13
1.29661e-11
3.39294e-12
5.78119e-13
4.04933e-11
2.39656e-12
4.45318e-11
6.254e-10
8.07769e-06
-8.22381e-05
1.61426e-05
-9.23732e-05
2.41664e-05
-9.02521e-05
3.23789e-05
-9.13741e-05
4.07442e-05
-9.41394e-05
4.92611e-05
-9.7755e-05
5.79507e-05
-0.0001022
6.68273e-05
-0.000107588
7.58797e-05
-0.000114017
8.51104e-05
-0.000121606
9.4358e-05
-0.000130908
0.00010342
-0.000139622
0.000112132
-0.000154691
1.22404e-05
-8.85294e-05
1.98422e-07
-2.42466e-06
-1.38322e-08
2.61573e-08
-4.68367e-10
4.55534e-09
-1.97467e-11
8.1853e-11
-1.09411e-12
-2.10048e-12
-3.36712e-13
7.81383e-13
5.75224e-13
3.00289e-13
3.34491e-12
1.11043e-13
2.56085e-12
4.60453e-11
7.51801e-06
-8.97561e-05
1.47731e-05
-9.96283e-05
2.20565e-05
-9.75355e-05
2.95141e-05
-9.88317e-05
3.70695e-05
-0.000101695
4.47082e-05
-0.000105394
5.24345e-05
-0.000109927
6.02406e-05
-0.000115394
6.80913e-05
-0.000121867
7.59604e-05
-0.000129475
8.3634e-05
-0.000138582
9.11064e-05
-0.000147095
8.41627e-05
-0.000154623
1.40175e-06
-5.60924e-05
1.94143e-08
-1.16378e-06
-3.46985e-09
4.54799e-08
-7.14244e-11
1.11558e-09
-3.01009e-12
1.46714e-11
-1.22886e-14
-1.13395e-12
5.60934e-14
-1.62425e-13
7.9972e-14
1.73784e-13
2.06713e-13
4.00731e-14
2.5165e-13
2.59231e-12
6.90998e-06
-9.66661e-05
1.33512e-05
-0.00010607
1.98866e-05
-0.000104071
2.65744e-05
-0.000105519
3.33099e-05
-0.00010843
4.007e-05
-0.000112154
4.68461e-05
-0.000116703
5.36147e-05
-0.000122162
6.03263e-05
-0.000128579
6.69375e-05
-0.000136086
7.32154e-05
-0.00014486
7.93073e-05
-0.000153187
5.21412e-05
-0.000154169
6.77699e-07
-3.2633e-05
-2.37933e-08
-5.1676e-07
-1.03588e-09
2.20722e-08
-1.41289e-11
9.01211e-11
-5.05519e-13
2.40158e-12
2.73974e-14
7.1244e-14
4.37528e-14
1.0511e-13
2.50185e-14
9.15859e-14
2.2207e-14
2.55566e-14
1.41059e-14
1.47576e-13
6.26669e-06
-0.000102933
1.19012e-05
-0.000111704
1.76903e-05
-0.00010986
2.36051e-05
-0.000111434
2.95241e-05
-0.000114349
3.54196e-05
-0.000118049
4.12736e-05
-0.000122557
4.70521e-05
-0.000127941
5.27e-05
-0.000134227
5.81649e-05
-0.000141551
6.32241e-05
-0.000149919
6.8146e-05
-0.000158109
3.31763e-05
-0.000144516
4.50841e-07
-1.69781e-05
-1.89688e-08
-6.16486e-08
-5.08654e-11
3.05884e-09
-1.63271e-12
1.5347e-11
-1.18543e-13
1.08077e-12
1.88072e-14
1.39468e-13
2.342e-14
8.22598e-14
1.2464e-14
4.19437e-14
6.73375e-15
1.56453e-14
5.56549e-15
1.078e-14
5.60065e-06
-0.000108533
1.04454e-05
-0.000116549
1.54967e-05
-0.000114911
2.06451e-05
-0.000116583
2.57617e-05
-0.000119466
3.08166e-05
-0.000123104
3.57854e-05
-0.000127526
4.06279e-05
-0.000132784
4.52886e-05
-0.000138888
4.97102e-05
-0.000145973
5.37001e-05
-0.000153909
5.75757e-05
-0.000161984
1.87678e-05
-0.000130686
1.25137e-07
-7.25195e-06
-2.57185e-09
6.48313e-08
-1.04621e-11
4.85594e-10
-1.13097e-13
1.09076e-12
5.66045e-15
1.64504e-13
1.2317e-14
7.50207e-14
1.00442e-14
3.80312e-14
4.97491e-15
1.61706e-14
2.45061e-15
6.41155e-15
2.61847e-15
1.61099e-15
4.92376e-06
-0.000113457
9.00133e-06
-0.000120626
1.33289e-05
-0.000119239
1.77251e-05
-0.000120979
2.20607e-05
-0.000123801
2.63055e-05
-0.000127349
3.04306e-05
-0.000131651
3.43938e-05
-0.000136747
3.81417e-05
-0.000142635
4.16128e-05
-0.000149444
4.46629e-05
-0.000156959
4.75307e-05
-0.000164852
8.50154e-06
-0.000110717
-4.01826e-08
-2.07157e-06
-4.67135e-10
2.50222e-08
-8.39719e-13
1.88429e-11
-1.62204e-14
1.79013e-13
9.10693e-15
3.87594e-14
6.16696e-15
2.88829e-14
3.5119e-15
1.35549e-14
1.52799e-15
5.05672e-15
6.27267e-16
1.63667e-15
4.93799e-16
2.53664e-16
4.24409e-06
-0.000117701
7.58154e-06
-0.000123964
1.12032e-05
-0.00012286
1.48661e-05
-0.000124642
1.84462e-05
-0.000127381
2.19147e-05
-0.000130817
2.52406e-05
-0.000134977
2.83841e-05
-0.00013989
3.1298e-05
-0.000145549
3.39103e-05
-0.000152056
3.61269e-05
-0.000159175
3.79108e-05
-0.000166635
2.00674e-06
-8.18651e-05
-2.02371e-08
-6.15149e-07
-1.2232e-11
4.84364e-09
-1.09679e-13
7.03107e-12
-4.97685e-16
9.63167e-14
3.9161e-15
1.92001e-14
2.42741e-15
1.18858e-14
1.04112e-15
4.72656e-15
3.44607e-16
1.32522e-15
1.02714e-16
2.96914e-16
6.47235e-17
2.55088e-17
3.57649e-06
-0.000121278
6.21096e-06
-0.000126598
9.15313e-06
-0.000125803
1.21111e-05
-0.0001276
1.49736e-05
-0.000130244
1.77116e-05
-0.000133555
2.02922e-05
-0.000137557
2.26763e-05
-0.000142274
2.48264e-05
-0.000147699
2.66157e-05
-0.000153845
2.79365e-05
-0.000160495
2.81949e-05
-0.00016689
3.51339e-07
-5.24358e-05
-3.19301e-09
-2.62354e-07
-4.48604e-11
1.73534e-09
-1.18946e-13
1.07244e-11
-4.44777e-15
1.00265e-13
1.59873e-15
9.8378e-15
1.03342e-15
5.42849e-15
2.83002e-16
1.68434e-15
5.82322e-17
3.11957e-16
1.25108e-17
4.75633e-17
8.52782e-18
2.1672e-18
2.95375e-06
-0.000124232
4.93614e-06
-0.00012858
7.25245e-06
-0.000128118
9.56271e-06
-0.000129909
1.17729e-05
-0.000132453
1.38486e-05
-0.000135629
1.57497e-05
-0.000139456
1.74207e-05
-0.000143942
1.88185e-05
-0.000149094
1.96628e-05
-0.000154685
1.96421e-05
-0.000160461
1.71621e-05
-0.000164371
2.07804e-07
-3.81215e-05
-1.60781e-09
-5.30371e-08
-5.77993e-12
1.17984e-10
-8.66465e-14
9.32161e-12
-4.58347e-15
1.84295e-13
6.59184e-16
6.78748e-15
3.37666e-16
1.99083e-15
6.24147e-17
4.80726e-16
8.41465e-18
6.87765e-17
1.36681e-18
7.99557e-18
1.176e-18
1.65222e-19
2.37746e-06
-0.000126609
3.75957e-06
-0.000129947
5.51994e-06
-0.000129858
7.24947e-06
-0.000131616
8.86365e-06
-0.000134041
1.03207e-05
-0.000137057
1.15626e-05
-0.000140662
1.25016e-05
-0.000144838
1.30607e-05
-0.000149599
1.29567e-05
-0.000154511
1.16076e-05
-0.000158997
8.94596e-06
-0.000161365
-9.30149e-08
-3.965e-05
9.26068e-10
-1.47857e-07
4.27086e-11
9.81728e-10
8.25209e-13
5.07914e-11
1.14399e-14
9.90606e-13
1.58024e-16
1.77569e-14
7.76317e-17
8.57213e-16
1.22619e-17
1.12078e-16
1.20389e-18
1.60114e-17
1.39519e-19
1.59867e-18
1.68009e-19
9.30666e-21
1.75062e-06
-0.00012836
2.53013e-06
-0.000130523
3.71463e-06
-0.000130812
4.82821e-06
-0.000132477
5.78529e-06
-0.000134715
6.53698e-06
-0.000137483
7.0175e-06
-0.000140763
7.15773e-06
-0.000144529
6.8116e-06
-0.00014872
6.6168e-06
-0.000150452
7.1355e-06
-0.000144322
9.65352e-06
-0.000110472
-5.59175e-07
-4.38484e-05
1.82226e-08
-3.33561e-06
2.65553e-09
1.56635e-08
6.63808e-11
2.62024e-09
1.02607e-12
6.59408e-11
1.21953e-14
1.02462e-12
-5.49398e-17
1.28218e-14
8.83519e-19
8.73082e-17
2.49364e-19
4.82108e-18
1.29034e-20
4.16724e-19
2.56049e-20
-1.73122e-23
7.30192e-07
-7.36719e-05
7.9248e-07
-7.2933e-05
1.14853e-06
-7.14549e-05
1.35804e-06
-6.91225e-05
1.38791e-06
-6.59441e-05
1.23484e-06
-6.20082e-05
9.1196e-07
-5.72453e-05
5.71249e-07
-5.16037e-05
3.59007e-07
-4.55709e-05
1.39642e-06
-3.40838e-05
4.71408e-06
-1.96226e-06
4.7462e-06
-5.29471e-08
3.88947e-06
-8.17888e-06
1.36255e-10
-4.78194e-06
2.13688e-08
-1.76362e-08
5.99144e-10
2.27304e-08
9.07556e-12
6.40066e-10
7.97539e-14
9.86135e-12
2.38821e-16
9.18357e-14
1.14038e-20
3.24065e-16
-1.17902e-22
1.93079e-18
-1.58384e-23
1.24022e-19
4.28592e-21
-1.28177e-23
-1.5127e-07
4.15829e-22
-3.73948e-07
2.20331e-21
-5.19864e-07
1.82905e-22
-6.63871e-07
9.36966e-21
-7.58936e-07
3.60926e-19
-7.62366e-07
6.88225e-18
-6.64183e-07
-7.84557e-17
-4.63222e-07
-1.43674e-15
-5.72486e-08
-3.45545e-14
2.39325e-07
-5.78608e-13
5.44509e-08
-3.7208e-11
1.84253e-09
-3.92067e-10
2.91679e-07
-3.45185e-09
1.93334e-06
-1.10424e-06
1.29344e-08
-1.99046e-07
5.10719e-10
3.34998e-08
2.66422e-12
1.1294e-09
-5.16256e-14
1.26013e-11
-2.95606e-16
4.05227e-14
-1.88437e-19
2.86135e-17
-1.40185e-20
1.43047e-18
-4.63903e-22
4.21111e-20
7.27864e-22
-2.29521e-23
5.05049e-23
1.75519e-22
8.97438e-24
2.43653e-21
6.6769e-22
7.85712e-23
3.30546e-20
-4.77159e-22
7.20983e-19
-3.60093e-20
-7.73748e-19
-2.01019e-18
-1.34097e-17
-6.58198e-17
-2.0013e-16
-1.25542e-15
3.14607e-17
-3.48956e-14
1.58637e-14
-7.89376e-13
1.03155e-12
-3.18987e-11
3.06604e-11
-4.27787e-10
8.02932e-10
-4.27749e-09
1.77897e-07
-2.94418e-07
-8.56459e-09
-5.50457e-08
-3.13046e-10
1.48368e-08
-1.74953e-11
3.07135e-10
-3.87366e-14
3.29569e-12
-2.80262e-17
1.8155e-15
-5.5575e-19
1.22277e-18
-1.07427e-20
2.58564e-18
-1.55194e-22
1.33978e-20
9.36076e-23
-6.00906e-24
6.93553e-23
-6.50854e-27
4.28564e-24
-3.30106e-25
-3.81603e-23
-8.02003e-24
-7.41225e-23
-5.24015e-22
-8.70816e-21
-4.47199e-20
-7.13607e-19
-3.49022e-18
-1.32969e-17
-1.22438e-16
-3.91352e-17
-1.80138e-15
2.60304e-14
-6.25369e-14
7.16124e-13
-1.96393e-12
9.88553e-12
-5.23812e-11
8.42025e-12
-8.03565e-10
7.95884e-10
-9.42962e-09
-2.05472e-07
-9.31981e-08
-1.32028e-08
-7.98811e-11
-2.46743e-10
1.80102e-09
-2.42874e-12
3.42066e-11
-2.9506e-15
4.84578e-13
-1.97748e-18
4.48572e-16
-8.48526e-19
1.4957e-19
-4.66355e-21
2.42729e-18
-2.81059e-23
2.63176e-21
8.01629e-24
-9.03567e-25
-4.78004e-27
1.37471e-28
-2.27628e-26
-8.07983e-26
-1.50451e-24
-5.74253e-24
-1.4566e-22
-4.29377e-22
-2.1802e-20
-3.45475e-20
-4.65672e-18
-2.21731e-18
-3.70281e-17
-9.57716e-17
3.31085e-15
-4.02489e-15
8.1087e-14
-1.4437e-13
2.08325e-12
-4.10939e-12
2.89671e-11
-8.30162e-11
1.23512e-09
-1.82734e-09
-2.40619e-08
-6.08323e-09
-1.69418e-07
-1.68771e-08
-1.71939e-09
8.20139e-09
-3.19549e-11
1.06224e-10
-4.61281e-13
2.57196e-12
-4.1071e-16
3.17351e-14
-1.59765e-19
1.88888e-17
-5.61034e-19
7.07197e-20
-9.59047e-22
5.55195e-19
-3.27206e-24
2.19678e-22
5.24435e-25
-9.32605e-26
-1.04402e-27
2.07495e-27
-1.88512e-25
1.06669e-25
-8.45036e-24
2.51932e-24
-4.73838e-22
3.60107e-23
-3.53292e-20
3.07933e-22
-2.23599e-18
-1.23002e-21
-9.72623e-17
-8.20788e-20
-4.11331e-15
-4.62985e-18
-1.48151e-13
-3.29718e-16
-4.24923e-12
-8.18387e-15
-8.70666e-11
-1.90925e-13
-3.24676e-09
-3.35291e-12
-1.33403e-09
-3.05384e-11
-8.08197e-09
-1.90695e-10
-1.04437e-10
2.20984e-10
-2.54316e-12
3.56732e-12
-3.01782e-14
1.26826e-13
-2.0833e-17
5.92646e-16
-2.63204e-20
3.82518e-19
-9.2749e-20
1.12064e-20
-9.15687e-23
2.27608e-20
-2.86216e-25
9.62444e-24
2.97416e-26
-7.31413e-27
4.68231e-27
4.04013e-27
2.23064e-25
2.4578e-25
4.80481e-24
7.16324e-24
5.54179e-23
1.31685e-22
-7.91703e-23
1.57264e-21
-1.26529e-20
1.13437e-20
-1.36429e-19
4.16976e-20
-4.78318e-18
2.61491e-20
-3.3354e-16
-9.11731e-19
-8.45333e-15
-4.5393e-17
-1.98193e-13
-1.12846e-15
-3.52945e-12
-2.08273e-14
-3.37119e-11
-2.13306e-13
-2.22181e-10
-2.11712e-12
-3.61779e-12
2.28486e-12
-1.23852e-13
5.89428e-14
-8.51833e-16
1.90569e-15
-2.06742e-19
1.19006e-17
-3.98195e-21
4.6307e-21
-5.13539e-21
6.98316e-22
-5.68686e-24
5.29326e-22
-2.01004e-26
3.71325e-25
1.44257e-27
-4.65516e-28
1.19665e-26
2.75357e-27
7.059e-25
2.02071e-25
1.9677e-23
6.81001e-24
3.1911e-22
1.37689e-22
2.95397e-21
1.81009e-21
1.35099e-20
1.56247e-20
1.03701e-20
8.47449e-20
-1.74186e-19
2.54068e-19
-1.35243e-18
2.88492e-19
-4.6726e-17
-3.75197e-20
-1.17495e-15
-6.81346e-19
-2.19678e-14
-3.50903e-17
-2.34751e-13
-4.75015e-16
-2.34814e-12
-3.43918e-15
-6.05802e-14
2.35571e-15
-2.7149e-15
4.5139e-16
-8.43683e-18
1.50506e-17
-5.4263e-21
2.94112e-19
-2.88067e-22
2.45527e-22
-2.41677e-22
2.51264e-23
-2.83197e-25
1.58139e-23
-1.12887e-27
1.27533e-26
5.60222e-29
-2.49796e-29
1.07196e-26
-1.41562e-35
7.30324e-25
-3.84387e-33
2.25026e-23
-5.13404e-31
4.03295e-22
-4.50067e-29
4.48883e-21
-2.89372e-27
3.04442e-20
-1.44332e-25
1.1242e-19
-5.76531e-24
1.57054e-19
-1.87061e-22
-3.31842e-20
-4.93797e-21
-1.15103e-19
-6.09698e-20
-6.99134e-19
-1.10836e-18
-1.37374e-17
-2.3225e-17
-3.05676e-16
-1.8561e-16
-3.36607e-15
-3.57119e-16
-4.24827e-16
-1.54758e-16
-1.4165e-17
1.89946e-18
-2.13016e-19
4.2437e-19
-1.72106e-22
8.12675e-20
-1.61325e-23
1.28838e-23
-9.44481e-24
8.42359e-25
-1.09708e-26
4.10422e-25
-4.79943e-29
3.42792e-28
1.73174e-30
-1.13219e-30
-1.32819e-35
-8.74298e-37
-3.61636e-33
-2.4079e-34
-4.84473e-31
-3.25479e-32
-4.25973e-29
-2.89395e-30
-2.74715e-27
-1.89164e-28
-1.37448e-25
-9.63199e-27
-5.53411e-24
-3.73501e-25
-1.84115e-22
-1.06918e-23
-5.19347e-21
-2.58853e-22
-1.05121e-19
-4.46626e-21
-2.9637e-18
-1.03602e-19
-1.16815e-16
-2.15004e-18
-1.1668e-15
-1.4379e-17
-1.60746e-15
-2.01866e-17
-2.28248e-17
-7.34631e-18
-4.57453e-18
1.93604e-19
1.5434e-21
2.78096e-19
-2.38593e-23
-4.4454e-22
-1.14992e-24
5.47385e-24
-3.4199e-25
4.26008e-26
-3.2717e-28
1.00827e-26
-1.75448e-30
8.57941e-30
5.37525e-32
-4.74983e-32
-8.69124e-37
-5.17474e-39
-2.41134e-34
-1.45237e-36
-3.27885e-32
-2.0046e-34
-2.92613e-30
-1.84293e-32
-1.92014e-28
-1.24894e-30
-9.81823e-27
-6.61899e-29
-3.83163e-25
-2.68986e-27
-1.10822e-23
-8.15059e-26
-2.70474e-22
-2.10521e-24
-4.83505e-21
-4.01782e-23
-2.1657e-19
-1.06226e-21
-6.78951e-18
-2.40595e-20
-3.47102e-17
-1.59627e-19
-3.50414e-17
-2.37391e-19
-4.48569e-19
-1.13905e-19
-4.40205e-19
-2.80211e-22
6.82574e-22
1.00959e-20
-2.6988e-24
-1.53552e-22
-7.47584e-26
1.3348e-25
-9.85463e-27
1.92028e-27
-8.51404e-30
2.19551e-28
-6.47863e-32
1.88828e-31
1.89891e-33
-1.86177e-33
-5.17429e-39
-4.46271e-43
-1.45756e-36
-1.3129e-40
-2.01914e-34
-1.90175e-38
-1.86302e-32
-1.83623e-36
-1.26743e-30
-1.31082e-34
-6.74446e-29
-7.34808e-33
-2.75649e-27
-3.18058e-31
-8.42239e-26
-1.03684e-29
-2.18797e-24
-2.89942e-28
-4.28795e-23
-6.01444e-27
-2.35151e-21
-1.51496e-25
-7.27601e-20
-3.70179e-24
-3.55163e-19
-7.05043e-23
-3.58901e-19
-5.08863e-22
-1.89931e-20
-8.28062e-22
-1.03716e-20
-2.59616e-22
-1.84183e-23
9.23056e-24
-1.80107e-25
1.57157e-24
-3.3031e-27
2.18035e-27
-2.16178e-28
5.39032e-29
-1.92763e-31
3.78176e-30
-2.40854e-33
3.0738e-33
6.54019e-35
-6.78378e-35
-4.46276e-43
5.53017e-48
-1.31667e-40
-7.58953e-44
-1.90852e-38
-1.16696e-41
-1.84651e-36
-1.23362e-39
-1.32112e-34
-9.63725e-38
-7.42414e-33
-5.92191e-36
-3.2251e-31
-2.82757e-34
-1.05612e-29
-1.02556e-32
-2.95478e-28
-3.18829e-31
-6.29505e-27
-7.61193e-30
-1.92352e-25
-2.09e-28
-8.33577e-24
-5.5162e-27
-2.67589e-22
-1.36975e-25
-1.78885e-21
-1.64589e-24
-2.13519e-21
-4.1116e-24
-2.94953e-23
-2.32398e-24
-4.37315e-24
9.57332e-28
-7.8331e-27
1.06468e-25
-1.11236e-28
7.52607e-29
-3.74769e-30
1.31484e-30
-3.76027e-33
5.25077e-32
-8.53582e-35
4.529e-35
2.07532e-36
-2.34319e-36
-2.50633e-45
-2.1015e-50
-5.17403e-44
-7.85649e-48
-1.05999e-41
-1.4651e-45
-1.11774e-39
-1.62061e-43
-8.79163e-38
-1.33529e-41
-5.45786e-36
-8.70702e-40
-2.607e-34
-4.5585e-38
-9.31128e-33
-1.91775e-36
-2.9344e-31
-7.00479e-35
-7.89697e-30
-2.20784e-33
-2.42025e-28
-6.74903e-32
-1.06667e-26
-1.99223e-30
-5.69005e-25
-5.49964e-29
-6.42866e-24
-9.92762e-28
-9.75179e-24
-4.50228e-27
-3.9326e-26
-4.6494e-27
-5.6304e-26
-7.65277e-28
-2.735e-28
1.13584e-28
-3.47295e-30
1.75092e-30
-5.25676e-32
3.35683e-32
-7.26225e-35
5.71366e-34
-3.03204e-36
9.54978e-37
6.10395e-38
-7.67785e-38
-2.10133e-50
-1.64741e-54
-7.87796e-48
-3.50297e-52
-1.47305e-45
-7.09988e-50
-1.63543e-43
-8.56921e-48
-1.35171e-41
-7.71495e-46
-8.84269e-40
-5.51321e-44
-4.64723e-38
-3.17692e-42
-1.96438e-36
-1.47931e-40
-7.20197e-35
-6.0082e-39
-2.27673e-33
-2.11761e-37
-7.44673e-32
-7.22542e-36
-3.15934e-30
-2.3623e-34
-1.93048e-28
-6.4452e-33
-4.09157e-27
-1.78159e-31
-1.36118e-26
-3.7523e-30
-1.2951e-26
-1.68515e-29
-3.76419e-28
-1.15581e-29
-8.09987e-30
3.55385e-32
-1.05043e-31
4.01621e-32
-6.00282e-34
7.57428e-34
-1.43245e-36
2.62489e-36
-9.3786e-38
2.14958e-38
1.60368e-39
-2.40039e-39
-1.6471e-54
-3.07314e-58
-3.52047e-52
-7.21187e-56
-7.1369e-50
-1.60579e-53
-8.64285e-48
-2.13869e-51
-7.8037e-46
-2.12746e-49
-5.59294e-44
-1.68384e-47
-3.23396e-42
-1.07865e-45
-1.51231e-40
-5.61015e-44
-6.15695e-39
-2.55389e-42
-2.17851e-37
-1.01632e-40
-7.52923e-36
-3.92427e-39
-2.8369e-34
-1.43484e-37
-1.11095e-32
-4.6746e-36
-8.34761e-31
-1.52565e-34
-2.31437e-29
-4.19328e-33
-6.29943e-29
-2.51703e-32
-5.43306e-31
-2.42407e-32
-2.19529e-31
-1.87046e-35
-2.4141e-33
7.16095e-34
-6.28163e-36
1.11367e-35
-4.75566e-38
3.85979e-38
-2.57701e-39
8.1186e-40
3.67974e-41
-7.05996e-41
-3.07313e-58
-1.33629e-63
-7.24265e-56
-3.43844e-61
-1.61229e-53
-8.49546e-59
-2.15636e-51
-1.26699e-56
-2.14847e-49
-1.40764e-54
-1.70479e-47
-1.24769e-52
-1.09524e-45
-8.97954e-51
-5.71673e-44
-5.26858e-49
-2.60142e-42
-2.71183e-47
-1.04173e-40
-1.2311e-45
-4.03142e-39
-5.42113e-44
-1.62482e-37
-2.21989e-42
-7.21816e-36
-8.68191e-41
-6.55338e-34
-2.81124e-39
-2.51056e-32
-9.26307e-38
-8.39536e-32
-2.89197e-36
-6.57646e-34
-2.01616e-35
-1.59217e-33
-1.29753e-35
-4.09545e-35
1.32239e-36
-1.06257e-37
1.03058e-37
-1.47358e-39
1.0721e-39
-6.27208e-41
2.0026e-41
7.71891e-43
-1.91262e-42
-1.37181e-63
3.55156e-65
-3.36455e-61
6.65468e-64
-8.76727e-59
-2.00877e-62
-1.26618e-56
-3.32496e-60
-1.41264e-54
-4.19053e-58
-1.25558e-52
-4.22139e-56
-9.05275e-51
-3.45816e-54
-5.32125e-49
-2.32067e-52
-2.69732e-47
-1.36062e-50
-1.25985e-45
-7.27207e-49
-5.55811e-44
-3.69228e-47
-2.41692e-42
-1.72079e-45
-1.0648e-40
-7.76688e-44
-4.6483e-39
-3.10286e-42
-4.38097e-37
-1.22222e-40
-2.41037e-35
-5.04381e-39
-1.09221e-34
-4.994e-38
-5.58184e-36
-5.63967e-38
-3.51554e-37
1.43152e-40
-2.47473e-39
4.54366e-40
-4.07521e-41
1.73791e-41
-1.3647e-42
4.64104e-43
1.46818e-44
-4.70854e-44
3.33193e-65
-4.61374e-72
-1.66794e-63
-2.73469e-69
-1.87076e-62
-8.42856e-67
-3.13665e-60
-1.60465e-64
-4.06631e-58
-2.34258e-62
-4.108e-56
-2.70129e-60
-3.34912e-54
-2.56009e-58
-2.14761e-52
-1.99783e-56
-1.31961e-50
-1.42346e-54
-7.41023e-49
-9.25367e-53
-3.76801e-47
-5.46847e-51
-1.75959e-45
-2.97508e-49
-8.75063e-44
-1.50856e-47
-4.47865e-42
-7.50778e-46
-4.94929e-40
-3.56249e-44
-4.02825e-38
-1.90024e-42
-2.37529e-37
-2.67614e-41
-1.56761e-39
-4.26764e-41
-1.43175e-39
-1.08364e-42
-5.49808e-41
1.85693e-42
-9.65194e-43
2.99948e-43
-2.62193e-44
8.68608e-45
2.50677e-46
-1.04525e-45
-4.61373e-72
-1.70663e-77
-2.73929e-69
-1.18048e-74
-8.45601e-67
-2.19238e-72
-1.61311e-64
-4.85678e-70
-2.35873e-62
-8.26586e-68
-2.7249e-60
-1.11275e-65
-2.58737e-58
-1.23319e-63
-2.02373e-56
-1.128e-61
-1.44372e-54
-9.43207e-60
-9.39856e-53
-7.21492e-58
-5.56284e-51
-5.03175e-56
-3.03079e-49
-3.23915e-54
-1.54314e-47
-1.94554e-52
-9.45152e-46
-1.11631e-50
-1.1887e-43
-6.09503e-49
-1.43204e-41
-3.08042e-47
-1.20245e-40
-1.88257e-45
-3.19851e-41
-3.59568e-44
-1.04635e-41
-4.39487e-44
-9.19264e-43
4.35314e-45
-1.73153e-44
3.16827e-45
-4.45009e-46
1.12295e-46
3.90267e-48
-2.0847e-47
-1.70651e-77
-1.13596e-81
-1.18227e-74
-9.34181e-79
-2.20469e-72
-2.07032e-76
-4.88011e-70
-5.44754e-74
-8.31701e-68
-1.10442e-71
-1.1215e-65
-1.77343e-69
-1.24499e-63
-2.34751e-67
-1.14108e-61
-2.56956e-65
-9.56084e-60
-2.57756e-63
-7.32948e-58
-2.36899e-61
-5.10817e-56
-1.98892e-59
-3.29257e-54
-1.54512e-57
-1.98131e-52
-1.12258e-55
-1.18997e-50
-7.68942e-54
-7.90372e-49
-5.07387e-52
-9.62522e-47
-3.25981e-50
-2.00399e-44
-2.58679e-48
-2.7814e-43
-7.34972e-47
-3.05033e-44
-1.43995e-46
-7.47244e-45
4.15856e-48
-2.08053e-46
1.80681e-47
-6.68688e-48
1.05345e-48
5.85724e-50
-3.75657e-49
-1.13595e-81
-6.59521e-87
-9.35323e-79
-6.64263e-84
-2.07957e-76
-1.80846e-81
-5.46238e-74
-5.82909e-79
-1.11074e-71
-1.45432e-76
-1.78561e-69
-2.87235e-74
-2.36426e-67
-4.67739e-72
-2.59094e-65
-6.31152e-70
-2.60382e-63
-7.82687e-68
-2.39601e-61
-8.89748e-66
-2.01303e-59
-9.25619e-64
-1.56532e-57
-8.92732e-62
-1.13821e-55
-8.06835e-60
-7.80267e-54
-6.88924e-58
-5.58294e-52
-5.58466e-56
-7.8901e-50
-4.43233e-54
-2.53543e-47