/*--------------------------------*- C++ -*----------------------------------*\
| =========                 |                                                 |
| \\      /  F ield         | OpenFOAM: The Open Source CFD Toolbox           |
|  \\    /   O peration     | Version:  5.x                                   |
|   \\  /    A nd           | Web:      www.OpenFOAM.org                      |
|    \\/     M anipulation  |                                                 |
\*---------------------------------------------------------------------------*/
FoamFile
{
    version     2.0;
    format      ascii;
    class       volScalarField;
    location    "0.1";
    object      alpha.water;
}
// * * * * * * * * * * * * * * * * * * * * * * * * * * * * * * * * * * * * * //

dimensions      [0 0 0 0 0 0 0];

internalField   nonuniform List<scalar> 
2268
(
1
1
1
1
1
1
1
1
1
1
1
1
1
1
1
0.99877
0.996957
0.999446
1
0.897429
0.228474
0
0
0.999999
1
1
1
1
1
1
1
1
1
1
1
1
1
0.999989
0.999995
0.999905
0.966389
0.833809
0.588936
0.168595
0.00215738
0
1
1
1
1
1
1
1
1
1
1
1
1
1
1
1
1
0.999987
0.855866
0.336371
0.0677737
0.097433
0.0426137
-8.07064e-20
1
1
1
1
1
1
1
1
1
1
1
1
1
1
1
0.999999
0.967228
0.571764
0.0874137
0.00655283
0.0247224
0.0431416
7.79478e-19
1
1
1
1
1
1
1
1
1
1
1
1
1
1
1
0.999991
0.749543
0.179048
0.00678267
0.00216086
0.000694936
0.0209311
0.0204874
1
1
1
1
1
1
1
1
1
1
1
1
1
1
1
0.950676
0.377055
0.0146841
0.0021865
0.000991117
0.000265034
0.00144868
0.0262659
1
1
1
1
1
1
1
1
1
1
1
1
1
1
0.999997
0.757266
0.108051
0.00324485
0.000776798
0.000326433
8.59413e-05
0.000193689
0.0070465
1
1
1
1
1
1
1
1
1
1
1
1
1
1
0.999972
0.498544
0.0189202
0.00123441
0.000256734
5.03024e-05
1.89613e-05
4.98493e-05
-3.34499e-07
1.00326e-19
1.05786e-19
5.57773e-20
4.26443e-21
5.80128e-23
1.03289e-24
4.87672e-26
1.93966e-27
6.18582e-29
1.78289e-30
4.62842e-32
1.05203e-33
2.05032e-35
3.3432e-37
4.40476e-39
4.44972e-41
3.15909e-43
1.32976e-45
2.10862e-48
1.65083e-17
1.65305e-17
6.61744e-18
4.03206e-19
5.65295e-21
1.12108e-22
4.44317e-24
1.62889e-25
5.10224e-27
1.45404e-28
3.73427e-30
8.4056e-32
1.61741e-33
2.58103e-35
3.26785e-37
3.05354e-39
1.82355e-41
4.41144e-44
3.97178e-49
1.01041e-15
1.09948e-15
3.74258e-16
1.92867e-17
2.71608e-19
5.56136e-21
1.83485e-22
5.96369e-24
1.74886e-25
4.71775e-27
1.15066e-28
2.46456e-30
4.50032e-32
6.74605e-34
7.82502e-36
6.26284e-38
3.08622e-40
5.803e-43
1.68273e-48
3.21887e-14
4.72571e-14
1.45388e-14
6.5643e-16
8.98761e-18
1.80846e-19
5.14084e-21
1.50362e-22
4.13706e-24
1.05687e-25
2.44703e-27
4.97235e-29
8.54637e-31
1.17871e-32
1.27737e-34
9.72887e-37
4.46903e-39
7.21821e-42
1.80252e-47
6.31428e-13
2.29024e-12
5.50618e-13
1.80771e-14
2.15489e-16
4.10087e-18
1.05665e-19
2.84018e-21
7.32552e-23
1.76574e-24
3.86022e-26
7.36457e-28
1.20481e-29
1.63136e-31
1.65945e-33
1.25126e-35
5.70461e-38
9.34063e-41
2.34797e-46
2.56692e-11
7.41792e-11
1.33027e-11
3.04053e-13
3.26343e-15
6.39252e-17
1.59814e-18
4.05923e-20
9.91658e-22
2.26311e-23
4.68379e-25
8.70838e-27
1.38643e-28
1.75361e-30
1.84676e-32
1.39801e-34
5.82194e-37
9.26677e-40
2.2922e-45
5.82914e-10
5.1406e-10
7.65193e-11
1.75695e-12
2.4691e-14
5.87753e-16
1.56924e-17
4.02667e-19
9.71777e-21
2.1756e-22
4.48811e-24
8.20471e-26
1.25471e-27
1.66708e-29
1.76246e-31
1.28204e-33
5.57663e-36
7.97771e-39
1.77358e-44
2.53871e-09
1.13632e-09
1.19836e-10
3.59635e-12
9.80664e-14
3.166e-15
9.47316e-17
2.59336e-18
6.50515e-20
1.50967e-21
3.20361e-23
5.95721e-25
9.22448e-27
1.21885e-28
1.30545e-30
9.80554e-33
3.98813e-35
5.75977e-38
1.29581e-43
1
1
1
1
1
1
1
1
1
1
1
1
1
1
0.898419
0.198316
0.00254551
0.000306914
4.39078e-05
7.93763e-06
2.38274e-06
7.10879e-06
4.93725e-05
1
1
1
1
1
1
1
1
1
1
1
1
1
1
0.553101
0.0163693
0.000501895
5.63395e-05
7.01585e-06
1.41047e-06
2.13662e-07
7.44476e-07
2.54587e-05
1
1
1
1
1
1
1
1
1
1
1
1
1
0.959161
0.226905
0.00131093
0.000100138
9.50109e-06
1.63222e-06
3.84883e-07
4.57598e-08
8.67498e-08
7.42903e-07
1
1
1
1
1
1
1
1
1
1
1
1
1
0.770247
0.0700263
0.000333813
1.77371e-05
2.01396e-06
1.04685e-06
2.37526e-07
1.0703e-08
8.96027e-09
8.44684e-08
1
1
1
1
1
1
1
1
1
1
1
1
1
0.549216
0.0106822
6.57503e-05
2.41745e-06
4.50905e-07
3.24141e-07
8.70567e-08
3.54368e-09
1.20018e-09
8.96532e-09
1
1
1
1
1
1
1
1
1
1
1
1
1
0.33918
0.000609552
1.4038e-05
3.31551e-07
6.74031e-08
3.50462e-08
1.30057e-08
2.05125e-09
4.6847e-10
1.16963e-09
1
1
1
1
1
1
1
1
1
1
1
1
0.934147
0.200624
0.000218265
2.68835e-06
5.92808e-08
1.08139e-08
6.07749e-09
2.52021e-09
1.1647e-09
2.78073e-10
3.0875e-10
1
1
1
1
1
1
1
1
1
1
1
1
0.846634
0.110765
4.56177e-05
3.20997e-07
1.34399e-07
1.37363e-08
2.28624e-09
1.1932e-09
5.90232e-10
1.94528e-10
6.88128e-11
1
1
1
1
1
1
1
1
1
1
1
1
0.7461
0.0523272
3.67221e-06
3.36209e-08
1.88698e-08
5.39455e-09
1.14731e-09
5.76443e-10
2.58058e-10
1.00248e-10
4.3199e-11
1
1
1
1
1
1
1
1
1
1
1
1
0.627175
0.0181183
2.01603e-07
3.56766e-09
8.68224e-10
9.18562e-10
4.7122e-10
2.28097e-10
9.35853e-11
3.43499e-11
1.33386e-11
1
1
1
1
1
1
1
1
1
1
1
0.999999
0.481941
0.00259324
5.91667e-08
9.84427e-10
3.79478e-10
3.17463e-10
1.85992e-10
8.17229e-11
2.79073e-11
7.90505e-12
2.17603e-12
1
1
1
0.999999
0.999999
0.999999
0.999999
0.999998
0.999998
0.999997
0.999996
0.999989
0.327834
1.37126e-05
9.98629e-08
4.61922e-08
1.84494e-10
1.28423e-10
8.33315e-11
3.03149e-11
7.17371e-12
1.39427e-12
2.97268e-13
1
0.999995
0.999994
0.999994
0.999992
0.999991
0.999988
0.999985
0.99998
0.999973
0.999961
0.999901
0.226751
8.68511e-07
5.95864e-08
4.98606e-08
6.78433e-10
6.90507e-11
3.56719e-11
9.83987e-12
1.64442e-12
2.31073e-13
4.0765e-14
1
0.999945
0.999937
0.999929
0.999918
0.999902
0.99988
0.999849
0.999808
0.999737
0.999635
0.999102
0.201062
1.41392e-06
3.0258e-08
6.48022e-10
2.19132e-11
9.09581e-12
7.8301e-12
2.37108e-12
3.64975e-13
4.10371e-14
5.74345e-15
1
0.999369
0.999278
0.999202
0.99909
0.998935
0.998728
0.998454
0.998102
0.995192
0.983452
0.901778
0.236218
0.00441453
1.42479e-06
3.04208e-08
6.45954e-10
1.78049e-11
6.79762e-13
1.82855e-13
9.08593e-14
9.76034e-15
8.53132e-16
0.868411
0.857231
0.848822
0.833899
0.812602
0.784368
0.748476
0.703783
0.650617
0.555284
0.443653
0.227765
0.193611
0.0279597
6.15536e-05
2.68018e-06
5.70593e-08
5.55451e-10
2.15127e-12
2.626e-14
3.01923e-14
2.65872e-15
1.40247e-16
0.163246
0.15544
0.146984
0.133053
0.11538
0.0952911
0.0735143
0.0507052
0.029832
0.00212758
1.22999e-08
1.51712e-07
7.73121e-05
0.031096
0.00607567
5.81975e-06
8.04832e-08
1.65285e-10
1.7211e-13
9.42061e-15
1.28647e-14
8.46759e-16
2.51164e-17
-3.23904e-18
-1.70117e-17
-1.40187e-18
-7.1127e-17
-2.69969e-15
-5.04419e-14
0
2.55549e-14
5.03546e-13
1.49274e-10
3.6981e-10
1.22999e-08
1.51712e-07
0.00787727
0.00700677
5.20652e-05
9.97899e-07
1.24257e-08
1.63544e-14
2.89872e-15
2.51152e-14
2.92104e-16
3.86658e-18
-1.39955e-18
-1.93248e-17
-6.16308e-19
8.61678e-19
8.86341e-17
8.3047e-15
3.23802e-13
3.11289e-12
2.83155e-11
1.56549e-09
5.89839e-08
1.07035e-06
1.33999e-05
1.9396e-05
0.00406243
1.35111e-07
4.92661e-08
1.79481e-09
8.44041e-13
1.99649e-15
2.51113e-14
7.87699e-17
4.14707e-19
4.85743e-23
2.37283e-21
1.37059e-21
6.44738e-19
7.28966e-17
1.70621e-14
5.42495e-13
1.64115e-12
1.72017e-11
5.47373e-10
1.4388e-08
7.64792e-07
3.46429e-05
0.000839898
0.00110567
1.3526e-08
2.0766e-10
-5.36522e-12
-1.39985e-14
1.03914e-15
1.22564e-14
1.11355e-17
3.13984e-20
-1.16967e-24
0
-1.31642e-37
6.63445e-34
0
1.34375e-17
8.77648e-16
1.72986e-14
2.28794e-13
5.02612e-12
8.11232e-11
9.05675e-06
2.32363e-05
8.19554e-08
5.02681e-08
1.22111e-09
-4.50412e-11
7.42787e-15
-1.4799e-15
3.4765e-16
1.54131e-15
6.92482e-19
1.96523e-21
-1.8375e-23
-9.3268e-22
-2.18696e-20
-3.08558e-19
-2.59019e-18
3.99123e-34
0
1.63481e-30
1.47214e-15
1.93038e-14
5.66941e-13
7.64598e-12
8.91245e-11
8.66186e-10
3.02277e-09
4.27892e-11
8.28233e-13
-2.19181e-13
2.57808e-17
4.41357e-17
4.51137e-17
2.66737e-20
1.08462e-22
-3.74426e-23
-2.25095e-21
-6.52239e-20
-1.1876e-18
-1.39957e-17
-9.92396e-17
-3.57263e-16
-2.18774e-16
-1.70708e-17
1.88916e-16
4.23172e-16
2.27589e-14
1.89583e-13
1.55887e-12
1.73628e-11
1.73754e-12
-7.07993e-13
2.3813e-18
1.55776e-18
2.70344e-18
9.20173e-19
9.16665e-22
4.96943e-24
-2.68417e-23
-1.94893e-21
-6.54311e-20
-1.3157e-18
-1.71733e-17
-1.47047e-16
-7.91064e-16
-2.3576e-15
-2.68318e-15
1.68842e-16
2.30897e-15
4.32561e-15
2.66555e-14
2.2544e-13
1.80449e-12
8.6244e-14
1.54897e-15
1.36486e-32
1.77722e-19
9.6282e-20
2.11609e-20
2.22606e-23
1.54752e-25
0
-4.86562e-45
-1.2456e-42
-1.00365e-37
-4.00704e-33
-1.08643e-30
2.43796e-22
3.31318e-20
1.57614e-18
1.00853e-16
3.63969e-15
1.89042e-13
3.55305e-12
1.24374e-11
1.44981e-11
1.00913e-13
2.46882e-14
-1.76072e-17
2.64619e-19
6.4498e-21
1.59384e-22
1.96122e-25
4.79137e-27
-1.1879e-48
2.5682e-33
6.24813e-31
5.76612e-29
3.93637e-27
2.11211e-25
9.24881e-24
3.39094e-22
1.0621e-20
5.3941e-19
2.44853e-16
1.61375e-14
1.63099e-13
3.70836e-13
3.67465e-13
4.83483e-15
5.1646e-15
-8.71383e-18
3.5682e-20
4.74531e-22
1.9282e-25
1.17252e-27
2.56202e-28
0
4.29051e-37
5.22078e-35
3.11031e-33
2.57776e-32
-1.29671e-29
-1.38547e-27
-8.43816e-26
-3.1874e-24
1.14961e-21
3.14884e-18
2.04764e-16
1.98437e-15
4.42956e-15
4.38036e-15
1.68485e-16
8.3872e-17
1.29656e-19
1.14267e-21
2.20437e-23
4.11238e-27
4.37015e-29
1.3605e-29
0
-3.8642e-40
-1.45878e-37
-2.23871e-35
-2.21618e-33
-1.59851e-31
-8.85997e-30
-3.42196e-28
-7.95693e-27
7.99863e-26
1.23263e-22
1.72117e-20
8.2512e-19
9.90369e-18
2.81867e-17
3.11497e-17
8.15574e-20
4.2577e-20
5.74715e-23
7.8581e-25
9.46147e-29
1.9617e-30
6.13686e-31
-7.29031e-44
-2.63942e-41
-3.95336e-39
-4.11909e-37
-3.16804e-35
-1.91336e-33
-8.35889e-32
-2.28362e-30
-4.84406e-29
3.4809e-29
9.34496e-26
1.82649e-23
1.53671e-21
3.28023e-20
1.30405e-19
1.6258e-19
5.81927e-22
9.4424e-22
2.28483e-24
2.81241e-26
2.0423e-30
1.8534e-31
2.43018e-32
0
2.36773e-48
4.36457e-46
5.35514e-44
4.92165e-42
3.61628e-40
2.2137e-38
1.16267e-36
5.36375e-35
2.23002e-33
2.10651e-29
5.72899e-27
5.41731e-25
1.96179e-23
1.37601e-22
2.59503e-22
2.18669e-22
2.38598e-24
7.84782e-26
9.99194e-28
5.39113e-32
8.38844e-33
8.56431e-34
0
5.16712e-52
1.05037e-49
1.41891e-47
1.44615e-45
1.17495e-43
7.9508e-42
4.62074e-40
2.36357e-38
1.47001e-36
8.14462e-34
4.62589e-31
2.5429e-29
2.22824e-27
1.07913e-25
8.24739e-25
1.39813e-24
5.23855e-27
3.27137e-27
2.56465e-29
1.00428e-32
5.34952e-34
2.57895e-35
0
2.59899e-57
-6.40336e-54
-2.85947e-52
-8.95124e-50
-1.36281e-47
-1.47513e-45
-1.28423e-43
-7.69938e-42
-2.59709e-41
5.55961e-38
1.78631e-34
1.54248e-32
1.74319e-30
1.17724e-28
1.12822e-27
2.12168e-27
1.70333e-29
3.84028e-29
4.86944e-31
9.59154e-34
2.01887e-35
6.99251e-37
-1.91915e-75
-8.61805e-60
-2.71879e-58
-1.15288e-55
-1.73597e-53
-1.93373e-51
-1.73676e-49
-1.10265e-47
-3.09237e-46
1.2444e-44
1.04718e-42
1.25226e-39
2.64747e-37
1.36002e-35
1.27188e-33
1.13891e-31
1.47036e-30
3.2474e-30
5.47307e-32
4.42775e-33
3.54715e-35
6.37999e-37
1.7174e-38
-6.32953e-61
-1.18165e-59
-2.83776e-60
-4.62056e-58
-5.64367e-56
-5.52542e-54
-3.92299e-52
-1.58839e-50
-4.27099e-49
1.95537e-48
1.43479e-46
4.14984e-44
1.3269e-40
1.1352e-38
1.38301e-36
1.867e-34
3.21862e-33
8.10653e-33
2.22314e-35
3.57807e-35
9.57233e-37
1.71451e-38
3.7571e-40
0
0
2.04819e-68
4.69356e-66
8.1047e-64
1.11939e-61
1.32313e-59
1.34296e-57
1.22881e-55
1.53926e-53
1.21329e-51
1.11007e-49
1.09149e-45
1.77578e-42
3.20479e-40
6.62354e-38
1.58218e-36
4.76508e-36
8.22028e-37
2.16649e-37
1.89511e-38
3.44566e-40
7.38247e-42
0
4.9302e-75
2.01323e-72
5.48873e-70
1.11109e-67
1.87441e-65
2.6141e-63
3.17237e-61
5.00723e-59
5.32471e-57
5.99831e-55
5.20885e-53
4.92007e-51
8.98227e-48
2.00833e-45
2.75908e-43
8.62911e-41
3.43592e-39
1.33546e-38
6.84608e-40
1.83912e-40
4.55519e-42
1.31724e-43
-1.6646e-93
3.63607e-80
3.4117e-78
-6.61415e-74
-6.87638e-73
-5.92428e-70
-1.57511e-67
-3.20538e-65
1.20851e-63
1.89443e-61
2.87416e-59
3.18305e-57
3.33111e-55
5.34385e-53
5.26676e-49
1.95173e-46
1.0751e-43
6.28959e-42
2.94085e-41
1.92519e-42
1.96288e-42
5.72841e-44
2.41973e-45
6.34993e-99
-1.26838e-83
-9.019e-80
-1.45691e-78
-8.5443e-76
-2.34188e-73
-4.731e-71
-6.71275e-69
1.75816e-68
3.0098e-66
5.78839e-64
8.4413e-62
1.18856e-59
1.46122e-57
2.99817e-55
1.04096e-50
1.05157e-47
2.0602e-45
2.74984e-44
4.95185e-44
1.03659e-44
6.8608e-46
4.213e-47
-4.40602e-86
-2.37097e-84
-7.75261e-86
-9.55167e-83
-3.39198e-80
-8.29119e-78
-1.3494e-75
-5.12798e-75
1.1533e-72
2.85758e-70
7.39765e-68
1.51108e-65
2.77374e-63
4.82397e-61
8.30862e-59
1.48073e-56
8.64618e-53
1.77727e-49
3.11634e-47
2.57664e-46
5.00765e-47
7.50322e-48
6.70669e-49
0
0
1.52008e-94
1.50273e-91
1.11932e-88
6.72548e-86
3.42443e-83
1.5238e-80
8.23052e-78
3.47763e-75
1.44179e-72
4.71728e-70
1.50839e-67
4.31103e-65
1.23373e-62
3.53342e-60
2.94198e-57
1.69206e-52
6.56188e-50
7.90136e-49
2.22118e-49
7.56103e-50
9.88396e-51
5.50769e-117
6.90546e-110
-4.56543e-105
-2.75185e-100
-4.35459e-95
-3.74776e-92
-2.74155e-89
-5.94016e-87
-3.7715e-85
1.27254e-83
2.13189e-80
2.44691e-77
2.65898e-74
2.31112e-71
1.9497e-68
1.66446e-65
1.46034e-61
6.6153e-56
8.48228e-53
1.78801e-51
1.15909e-51
7.66446e-52
1.50198e-52
0
0
-1.32197e-112
-5.09511e-107
-1.08321e-103
-2.47417e-100
-1.5877e-97
-3.45636e-94
-9.14442e-95
0
1.61275e-96
1.48368e-93
-3.55397e-90
-1.81963e-87
-1.32287e-84
-1.81579e-81
-5.51891e-79
5.79398e-62
1.06424e-56
1.94095e-54
6.4845e-54
1.03531e-52
3.02802e-53
0.000176539
8.33318e-06
-6.67338e-15
8.13892e-08
0.00018903
5.80378e-05
4.1772e-09
7.14712e-08
2.65245e-05
3.92623e-05
1.05924e-05
2.13484e-07
3.54898e-07
2.9991e-06
2.82897e-06
8.22011e-07
2.93631e-08
2.06412e-08
1.02319e-08
5.63196e-08
2.25782e-09
1.55134e-09
7.75851e-10
3.27076e-10
2.27304e-10
1.71741e-10
1.01887e-10
5.62265e-11
4.97082e-11
4.78357e-11
5.42263e-11
3.93645e-11
2.57584e-11
2.00836e-11
1.46393e-11
7.54277e-12
5.65206e-12
3.51353e-12
1.88198e-12
8.00843e-13
6.77106e-13
3.96505e-13
2.07436e-13
8.60917e-14
7.80094e-14
4.61353e-14
2.34808e-14
9.31814e-15
9.34128e-15
5.41824e-15
2.61355e-15
9.7902e-16
1.12264e-15
6.24623e-16
2.80414e-16
9.89326e-17
1.30975e-16
6.95285e-17
2.87462e-17
9.56965e-18
1.5745e-17
7.43924e-18
2.77592e-18
8.78378e-19
1.98168e-18
7.43871e-19
2.48923e-19
7.57882e-20
2.2556e-19
6.66085e-20
2.04806e-20
6.0194e-21
2.0035e-20
5.24555e-21
1.53281e-21
4.38364e-22
1.36955e-21
3.64381e-22
1.03434e-22
2.92574e-23
7.69464e-23
2.22691e-23
6.22174e-24
1.78405e-24
3.78723e-24
1.19344e-24
3.30794e-25
9.89613e-26
1.70191e-25
5.70014e-26
1.58406e-26
5.07997e-27
6.83452e-27
2.51375e-27
7.05828e-28
2.46921e-28
2.99362e-28
1.06796e-28
3.06325e-29
1.14822e-29
1.32456e-29
4.50202e-30
1.32187e-30
5.19278e-31
5.54878e-31
1.86111e-31
5.58659e-32
2.26724e-32
2.23999e-32
7.45442e-33
2.28103e-33
9.42883e-34
8.56172e-34
2.86977e-34
8.91745e-35
3.71257e-35
3.10601e-35
1.0439e-35
3.3012e-36
1.37755e-36
1.04885e-36
3.53917e-37
1.14516e-37
4.79602e-38
3.23546e-38
1.10877e-38
3.6953e-39
1.56215e-39
9.06959e-40
3.19379e-40
1.10477e-40
4.75191e-41
2.30966e-41
8.45075e-42
3.09643e-42
1.40348e-42
5.35377e-43
2.05598e-43
8.14047e-44
4.02001e-44
1.16866e-44
5.15904e-45
2.10511e-45
1.08713e-45
2.56725e-46
1.23562e-46
5.30948e-47
2.77178e-47
5.45595e-48
2.70438e-48
1.25096e-48
6.71591e-49
1.05654e-49
5.48878e-50
2.80995e-50
1.69978e-50
1.90816e-51
1.18565e-51
6.49895e-52
4.20953e-52
4.08391e-53
2.51217e-53
1.5001e-53
9.50058e-54
1.67528e-53
9.36177e-54
4.89156e-54
2.1862e-54
2.14161e-08
1.60625e-09
4.89765e-11
5.02988e-12
3.66882e-13
1.6389e-14
5.76591e-16
1.90582e-17
5.84342e-19
1.61175e-20
3.93316e-22
8.32897e-24
1.48986e-25
2.16669e-27
2.40245e-29
1.77186e-31
7.04916e-34
8.46097e-37
1.55446e-42
2.39325e-08
4.82264e-10
3.128e-11
3.70101e-12
1.00186e-12
6.09106e-14
1.8421e-15
5.9772e-17
1.84568e-18
5.13799e-20
1.27045e-21
2.74989e-23
5.10757e-25
7.91593e-27
9.81581e-29
9.15997e-31
5.81565e-33
2.04413e-35
1.93945e-38
1.66326e-08
9.29328e-10
4.85697e-11
3.66982e-12
8.3233e-13
4.61127e-14
1.45511e-15
5.00353e-17
1.59968e-18
4.58876e-20
1.17023e-21
2.62032e-23
5.06546e-25
8.28348e-27
1.11835e-28
1.19309e-30
9.36879e-33
4.74201e-35
1.13728e-37
3.87906e-09
2.17569e-10
1.71902e-11
4.3782e-12
3.84544e-13
1.48384e-14
5.62951e-16
2.05693e-17
6.79932e-19
2.01622e-20
5.32074e-22
1.23513e-23
2.4857e-25
4.24658e-27
5.96178e-29
6.60441e-31
5.40848e-33
2.91095e-35
7.60296e-38
7.83414e-09
3.84599e-11
1.08933e-11
1.34485e-12
6.937e-14
2.99517e-15
1.23235e-16
4.61047e-18
1.55474e-19
4.69628e-21
1.25966e-22
2.96718e-24
6.05226e-26
1.04889e-27
1.50105e-29
1.70338e-31
1.43795e-33
8.04539e-36
2.21606e-38
7.31955e-10
8.81314e-11
4.8084e-12
2.41015e-13
1.20632e-14
5.66193e-16
2.37865e-17
8.97854e-19
3.04596e-20
9.23778e-22
2.48458e-23
5.86367e-25
1.19734e-26
2.07578e-28
2.97559e-30
3.39052e-32
2.88213e-34
1.62568e-36
4.5298e-39
6.44795e-11
1.52142e-11
8.00601e-13
3.91408e-14
2.04661e-15
9.80345e-17
4.19365e-18
1.60753e-19
5.51658e-21
1.68724e-22
4.56723e-24
1.08356e-25
2.22315e-27
3.87255e-29
5.58002e-31
6.3974e-33
5.48007e-35
3.12087e-37
8.79689e-40
1.20337e-11
1.22906e-12
8.58133e-14
5.32536e-15
2.97812e-16
1.47248e-17
6.46323e-19
2.52883e-20
8.81444e-22
2.72788e-23
7.45191e-25
1.78112e-26
3.67835e-28
6.44834e-30
9.3541e-32
1.08059e-33
9.34024e-36
5.37933e-38
1.53672e-40
1.62211e-12
1.34883e-13
9.75547e-15
6.54267e-16
3.8439e-17
1.96364e-18
8.83138e-20
3.51989e-21
1.24425e-22
3.89224e-24
1.07217e-25
2.58e-27
5.35938e-29
9.44743e-31
1.37841e-32
1.60275e-34
1.3962e-36
8.11886e-39
2.34573e-41
1.83288e-13
1.5438e-14
1.11789e-15
7.63766e-17
4.59274e-18
2.39574e-19
1.09588e-20
4.4257e-22
1.58036e-23
4.98228e-25
1.3808e-26
3.33911e-28
6.96626e-30
1.23312e-31
1.80718e-33
2.11221e-35
1.85165e-37
1.08526e-39
3.16441e-42
1.96219e-14
1.66231e-15
1.22143e-16
8.4463e-18
5.13513e-19
2.70859e-20
1.25119e-21
5.09253e-23
1.82943e-24
5.79398e-26
1.61147e-27
3.90832e-29
8.17545e-31
1.45115e-32
2.13351e-34
2.50356e-36
2.20597e-38
1.30148e-40
3.82377e-43
2.03069e-15
1.69692e-16
1.26521e-17
8.82157e-19
5.38492e-20
2.8523e-21
1.32279e-22
5.4006e-24
1.94446e-25
6.16807e-27
1.71752e-28
4.16965e-30
8.73159e-32
1.55211e-33
2.28669e-35
2.6913e-37
2.38123e-39
1.41275e-41
4.17725e-44
2.02318e-16
1.65893e-17
1.24795e-18
8.71167e-20
5.3049e-21
2.80549e-22
1.29974e-23
5.30118e-25
1.90665e-26
6.04176e-28
1.68077e-29
4.07769e-31
8.53689e-33
1.51806e-34
2.23914e-36
2.64109e-38
2.34478e-40
1.39789e-42
4.15583e-45
1.92767e-17
1.55305e-18
1.17289e-19
8.13521e-21
4.91175e-22
2.58054e-23
1.18929e-24
4.82921e-26
1.73032e-27
5.46546e-29
1.51647e-30
3.6718e-32
7.67751e-34
1.36467e-35
2.014e-37
2.37948e-39
2.11873e-41
1.26866e-43
3.7896e-46
1.73958e-18
1.38644e-19
1.04729e-20
7.16757e-22
4.26887e-23
2.21911e-24
1.01403e-25
4.08861e-27
1.45644e-28
4.57853e-30
1.26559e-31
3.0557e-33
6.37742e-35
1.13263e-36
1.67196e-38
1.97822e-40
1.76626e-42
1.06201e-44
3.18597e-47
1.46378e-19
1.17363e-20
8.83712e-22
5.93353e-23
3.47344e-24
1.78159e-25
8.05398e-27
3.21917e-28
1.13867e-29
3.5595e-31
9.79649e-33
2.35786e-34
4.91109e-36
8.71441e-38
1.28678e-39
1.52477e-41
1.36521e-43
8.24317e-46
2.48282e-48
1.14344e-20
9.36436e-22
6.98973e-23
4.58979e-24
2.63688e-25
1.33267e-26
5.95431e-28
2.35771e-29
8.27805e-31
2.57297e-32
7.05115e-34
1.69209e-35
3.51833e-37
6.23973e-39
9.2196e-41
1.0945e-42
9.83013e-45
5.96179e-47
1.80261e-49
8.73651e-22
7.09972e-23
5.16743e-24
3.30235e-25
1.85846e-26
9.26315e-28
4.09404e-29
1.60672e-30
5.6027e-32
1.73259e-33
4.73111e-35
1.1328e-36
2.35306e-38
4.17381e-40
6.17509e-42
7.34862e-44
6.62394e-46
4.03675e-48
1.22515e-50
6.57158e-23
5.19473e-24
3.63286e-25
2.23643e-26
1.22598e-27
6.00127e-29
2.61584e-30
1.01849e-31
3.53438e-33
1.08925e-34
2.96739e-36
7.09742e-38
1.47441e-39
2.61831e-41
3.88226e-43
4.63497e-45
4.19576e-47
2.57069e-49
7.83056e-52
4.7677e-24
3.65443e-25
2.46711e-26
1.47025e-27
7.82378e-29
3.70732e-30
1.57745e-31
6.06753e-33
2.088e-34
6.40465e-36
1.74386e-37
4.17489e-39
8.68768e-41
1.54653e-42
2.30063e-44
2.75808e-46
2.5093e-48
1.54657e-50
4.72715e-53
3.27195e-25
2.45053e-26
1.61592e-27
9.40723e-29
4.87721e-30
2.2475e-31
9.34732e-33
3.51311e-34
1.18202e-35
3.58049e-37
9.71016e-39
2.32012e-40
4.83158e-42
8.6293e-44
1.28992e-45
1.55472e-47
1.4229e-49
8.82809e-52
2.70617e-54
2.10262e-26
1.55305e-27
1.01049e-28
5.79611e-30
2.95411e-31
1.3376e-32
5.468e-34
2.01333e-35
6.64299e-37
1.98244e-38
5.29164e-40
1.2469e-41
2.58134e-43
4.611e-45
6.91141e-47
8.36052e-49
7.69275e-51
4.80387e-53
1.47527e-55
1.25952e-27
9.25319e-29
5.99486e-30
3.41548e-31
1.72489e-32
7.73018e-34
3.12642e-35
1.13716e-36
3.70825e-38
1.09344e-39
2.87883e-41
6.70324e-43
1.37685e-44
2.44293e-46
3.63989e-48
4.38738e-50
4.04323e-52
2.53597e-54
7.79745e-57
7.01333e-29
5.17193e-30
3.36772e-31
1.9208e-32
9.6755e-34
4.31601e-35
1.73663e-36
6.27562e-38
2.03298e-39
5.95428e-41
1.55652e-42
3.60185e-44
7.35643e-46
1.29754e-47
1.92421e-49
2.31339e-51
2.13335e-53
1.34237e-55
4.12985e-58
3.62144e-30
2.7104e-31
1.79063e-32
1.03035e-33
5.21052e-35
2.32653e-36
9.35786e-38
3.37361e-39
1.08972e-40
3.1826e-42
8.29287e-44
1.91364e-45
3.89963e-47
6.86427e-49
1.01691e-50
1.22294e-52
1.12953e-54
7.13336e-57
2.19465e-59
1.73106e-31
1.33254e-32
9.01349e-34
5.27211e-35
2.69386e-36
1.21072e-37
4.89068e-39
1.76615e-40
5.70866e-42
1.66753e-43
4.34223e-45
1.00146e-46
2.04097e-48
3.5933e-50
5.32761e-52
6.41728e-54
5.94267e-56
3.77011e-58
1.15927e-60
7.68233e-33
6.1494e-34
4.30025e-35
2.57508e-36
1.33764e-37
6.08356e-39
2.47915e-40
9.00439e-42
2.92258e-43
8.56323e-45
2.23411e-46
5.16093e-48
1.05369e-49
1.858e-51
2.75985e-53
3.33202e-55
3.09544e-57
1.9735e-59
6.06062e-62
3.23439e-34
2.66896e-35
1.94842e-36
1.20236e-37
6.38579e-39
2.95345e-40
1.21941e-41
4.47145e-43
1.46221e-44
4.30966e-46
1.12934e-47
2.61859e-49
5.36476e-51
9.48732e-53
1.41327e-54
1.71139e-56
1.59548e-58
1.02229e-60
3.13332e-63
1.29505e-35
1.09523e-36
8.40698e-38
5.37795e-39
2.93542e-40
1.38694e-41
5.82461e-43
2.16396e-44
7.15156e-46
2.12596e-47
5.60886e-49
1.30795e-50
2.69317e-52
4.78282e-54
7.15209e-56
8.69249e-58
8.13468e-60
5.2383e-62
1.60136e-64
4.90065e-37
4.31789e-38
3.46332e-39
2.31028e-40
1.3019e-41
6.30974e-43
2.70508e-44
1.02155e-45
3.42166e-47
1.02845e-48
2.73764e-50
6.43222e-52
1.3331e-53
2.38027e-55
3.57624e-57
4.36494e-59
4.10144e-61
2.65413e-63
8.08779e-66
1.75197e-38
1.6344e-39
1.36887e-40
9.56012e-42
5.58414e-43
2.78621e-44
1.22335e-45
4.70986e-47
1.60304e-48
4.88277e-50
1.31398e-51
3.11574e-53
6.50831e-55
1.16961e-56
1.76701e-58
2.16693e-60
2.04479e-62
1.32957e-64
4.03626e-67
5.92725e-40
5.90486e-41
5.21365e-42
3.8229e-43
2.32239e-44
1.19673e-45
5.39718e-47
2.124e-48
7.36321e-50
2.27746e-51
6.20697e-53
1.48761e-54
3.13562e-56
5.67704e-58
8.63e-60
1.06379e-61
1.00823e-63
6.5859e-66
1.99071e-68
1.9001e-41
2.03599e-42
1.92093e-43
1.48204e-44
9.39102e-46
5.01176e-47
2.32762e-48
9.38559e-50
3.32094e-51
1.04497e-52
2.88886e-54
7.00722e-56
1.492e-57
2.72365e-59
4.16857e-61
5.16673e-63
4.91879e-65
3.22699e-67
9.7072e-70
5.76485e-43
6.71777e-44
6.86929e-45
5.58795e-46
3.70273e-47
2.05158e-48
9.8346e-50
4.07177e-51
1.47325e-52
4.72363e-54
1.32648e-55
3.26012e-57
7.01846e-59
1.29276e-60
1.99301e-62
2.48449e-64
2.37591e-66
1.56503e-68
4.68297e-71
1.66045e-44
2.17826e-45
2.39034e-46
2.05541e-47
1.42763e-48
8.23084e-50
4.08084e-51
1.73804e-52
6.44096e-54
2.10726e-55
6.01824e-57
1.50017e-58
3.2679e-60
6.07701e-62
9.44079e-64
1.18391e-65
1.13723e-67
7.51888e-70
2.237e-72
4.66794e-46
6.92986e-47
8.11569e-48
7.39765e-49
5.3985e-50
3.24536e-51
1.66727e-52
7.31657e-54
2.78103e-55
9.29523e-57
2.70255e-58
6.83815e-60
1.50819e-61
2.83286e-63
4.43603e-65
5.59676e-67
5.3998e-69
3.58204e-71
1.05924e-73
1.31044e-47
2.14659e-48
2.6961e-49
2.61298e-50
2.00821e-51
1.26129e-52
6.72526e-54
3.04521e-55
1.1886e-56
4.06259e-58
1.20347e-59
3.09294e-61
6.91016e-63
1.31145e-64
2.0704e-66
2.62814e-68
2.54654e-70
1.69426e-72
4.97788e-75
3.58954e-49
6.48214e-50
8.78882e-51
9.08659e-52
7.37262e-53
4.84662e-54
2.68608e-55
1.25647e-56
5.04083e-58
1.76327e-59
5.32518e-61
1.39074e-62
3.14851e-64
6.03886e-66
9.61243e-68
1.22763e-69
1.19444e-71
7.96693e-74
2.32504e-76
9.47326e-51
1.9156e-51
2.82053e-52
3.12184e-53
2.68049e-54
1.84744e-55
1.06555e-56
5.15393e-58
2.12684e-59
7.61789e-61
2.34647e-62
6.22911e-64
1.42924e-65
2.77064e-67
4.44664e-69
5.71305e-71
5.58052e-73
3.72996e-75
1.08098e-77
2.42033e-52
5.55572e-53
8.94369e-54
1.06401e-54
9.68874e-56
7.01083e-57
4.21208e-58
2.10803e-59
8.9517e-61
3.28414e-62
1.03193e-63
2.78487e-65
6.47603e-67
1.2688e-68
2.05293e-70
2.65301e-72
2.60109e-74
1.74138e-76
5.01061e-79
5.90812e-54
1.5559e-54
2.75691e-55
3.54034e-56
3.46107e-57
2.64706e-58
1.6645e-59
8.64753e-61
3.78521e-62
1.42274e-63
4.56102e-65
1.25135e-66
2.94918e-68
5.83933e-70
9.52394e-72
1.23776e-73
1.21776e-75
8.1624e-78
2.33136e-80
5.33282e-55
8.91129e-56
1.13156e-56
1.13522e-57
9.31454e-59
6.39173e-60
3.72975e-61
1.8539e-62
8.04808e-64
3.10349e-65
1.0162e-66
2.83696e-68
6.78134e-70
1.35776e-71
2.23345e-73
2.9204e-75
2.88435e-77
1.9363e-79
5.49169e-82
)
;

boundaryField
{
    leftWall
    {
        type            zeroGradient;
    }
    rightWall
    {
        type            zeroGradient;
    }
    lowerWall
    {
        type            zeroGradient;
    }
    atmosphere
    {
        type            inletOutlet;
        inletValue      uniform 0;
        value           nonuniform List<scalar> 
46
(
0
0
0
0
0
0
0
0
0
0
0
0
0
0
0
0
0
0
0
0
6.4845e-54
1.03531e-52
3.02802e-53
1.67528e-53
9.36177e-54
4.89156e-54
2.1862e-54
5.33282e-55
8.91129e-56
1.13156e-56
1.13522e-57
9.31454e-59
6.39173e-60
3.72975e-61
1.8539e-62
8.04808e-64
3.10349e-65
1.0162e-66
2.83696e-68
6.78134e-70
1.35776e-71
2.23345e-73
2.9204e-75
2.88435e-77
1.9363e-79
5.49169e-82
)
;
    }
    defaultFaces
    {
        type            empty;
    }
}


// ************************************************************************* //
