/*--------------------------------*- C++ -*----------------------------------*\
| =========                 |                                                 |
| \\      /  F ield         | OpenFOAM: The Open Source CFD Toolbox           |
|  \\    /   O peration     | Version:  5.x                                   |
|   \\  /    A nd           | Web:      www.OpenFOAM.org                      |
|    \\/     M anipulation  |                                                 |
\*---------------------------------------------------------------------------*/
FoamFile
{
    version     2.0;
    format      ascii;
    class       volScalarField;
    location    "0.1";
    object      p;
}
// * * * * * * * * * * * * * * * * * * * * * * * * * * * * * * * * * * * * * //

dimensions      [1 -1 -2 0 0 0 0];

internalField   nonuniform List<scalar> 
2268
(
1963.4
1959.11
1943.62
1918.97
1885.99
1843.99
1792.1
1729.44
1654.89
1567.43
1465.08
1346.2
1210.21
1054.73
874.498
669.394
459.293
279.033
155.943
102.671
80.1815
70.1358
69.0575
1904.69
1900.38
1884.84
1860.19
1827.21
1785.18
1733.24
1670.49
1595.81
1508.15
1405.49
1286.07
1149.17
992.569
811.062
603.808
390.111
206.373
82.1941
39.1801
52.6707
65.5932
68.4093
1846.13
1841.77
1826.17
1801.53
1768.53
1726.43
1674.4
1611.48
1536.54
1448.49
1345.21
1224.73
1086.19
927.371
742.813
530.6
309.849
126.301
30.7959
10.7695
22.8574
55.6595
65.5558
1787.75
1783.31
1767.61
1742.98
1709.96
1667.77
1615.59
1552.44
1477.13
1388.51
1284.3
1162.28
1021.55
859.584
669.526
446.56
214.261
53.7558
7.50609
4.96595
7.95651
31.3723
57.3341
1729.56
1725.02
1709.23
1684.59
1651.54
1609.25
1556.9
1493.46
1417.7
1328.38
1222.99
1099.02
955.543
789.451
590.713
350.092
113.318
13.2739
2.9307
3.12107
4.51123
9.21268
37.3612
1671.61
1666.94
1651.05
1626.42
1593.33
1550.94
1498.4
1434.63
1358.38
1268.27
1161.53
1035.38
888.856
717.64
505.19
241.58
38.4627
4.29069
2.07272
2.42975
3.01844
3.68272
9.83553
1613.87
1609.04
1593.06
1568.44
1535.32
1492.81
1440.08
1375.97
1299.17
1208.2
1099.93
971.478
822.141
645.229
413.724
134.188
10.992
2.44037
1.78982
2.01714
2.24041
1.94069
1.79974
1556.4
1551.3
1535.26
1510.65
1477.5
1434.88
1381.93
1317.44
1240.08
1148.16
1038.16
907.282
755.464
571.695
317.911
53.0638
4.07574
1.54792
1.57508
1.72246
1.75699
1.32101
0.81285
0.53562
0.572513
0.596891
0.618138
0.634244
0.644981
0.650971
0.653276
0.652808
0.650547
0.647092
0.643085
0.638893
0.634864
0.631233
0.628166
0.625786
0.624173
0.623367
0.472579
0.512592
0.537967
0.559947
0.576261
0.586931
0.592725
0.594866
0.59425
0.591872
0.58832
0.584236
0.579992
0.57592
0.572257
0.569169
0.566775
0.565152
0.564345
0.40521
0.451394
0.479045
0.502529
0.519224
0.52976
0.535227
0.536977
0.536018
0.533363
0.529601
0.525354
0.520995
0.516837
0.513112
0.509981
0.507559
0.505918
0.505101
0.333288
0.388229
0.42029
0.446066
0.463224
0.473475
0.478389
0.479546
0.478073
0.475
0.470924
0.466436
0.461903
0.457618
0.453802
0.450609
0.448144
0.446476
0.445646
0.256776
0.321562
0.362122
0.390786
0.408369
0.418109
0.422219
0.422553
0.42039
0.416763
0.412272
0.407469
0.402708
0.398261
0.394328
0.391051
0.388531
0.386828
0.385982
0.172814
0.25516
0.30569
0.336981
0.35478
0.363695
0.366697
0.365966
0.362934
0.358621
0.353621
0.348437
0.3434
0.338755
0.33468
0.331303
0.328715
0.326971
0.326105
0.0796304
0.189947
0.251323
0.284947
0.302572
0.310252
0.311796
0.309738
0.305658
0.300537
0.294941
0.289317
0.283962
0.279089
0.27485
0.271358
0.268692
0.266901
0.266013
-0.0299434
0.119251
0.197597
0.23489
0.251895
0.257775
0.25745
0.2538
0.248506
0.242466
0.2362
0.230086
0.224377
0.219249
0.214829
0.21121
0.20846
0.206617
0.205703
1467.13
1461.53
1445.48
1420.9
1387.72
1344.96
1291.72
1226.71
1148.48
1055.11
942.521
808.245
652.546
452.292
173.301
11.2364
1.7488
1.0094
1.23439
1.31281
1.22173
0.831013
-0.0241661
1347.61
1341.5
1325.43
1301.03
1267.96
1225.23
1171.9
1106.55
1027.69
933.024
817.902
681.348
521.894
297.024
38.5725
2.41598
0.664044
0.698502
0.870787
0.904809
0.838233
0.657718
0.545081
1230.42
1223.84
1207.86
1183.8
1151.06
1108.67
1055.67
990.547
911.868
816.952
701.019
565.447
402.332
163.208
5.9985
0.800031
0.275375
0.457729
0.570125
0.618874
0.634462
0.61971
0.861184
1116.08
1109.1
1093.39
1069.87
1037.76
996.131
944.035
879.939
802.531
708.804
594.52
463.268
296.432
64.7458
2.08295
0.220567
0.0903343
0.231431
0.316587
0.385307
0.441565
0.481567
0.644897
1005.04
997.779
982.516
959.77
928.64
888.261
837.725
775.536
700.58
609.611
499.66
375.386
207.33
13.0553
0.281165
-0.212175
-0.0717658
0.0131139
0.0928208
0.160593
0.21448
0.253116
0.313371
897.668
890.263
875.659
853.936
824.153
785.539
737.243
677.861
606.508
519.799
416.489
300.481
136.921
1.9171
-0.246449
-0.445715
-0.243788
-0.189704
-0.117707
-0.0614518
-0.0176258
0.0154243
0.0430328
794.24
786.823
773.086
752.635
724.573
688.228
642.826
587.096
520.369
439.21
344.118
236.215
82.6761
0.759218
-0.354572
-0.55401
-0.433349
-0.377625
-0.320301
-0.275531
-0.238387
-0.210021
-0.192771
694.95
687.66
674.982
656.046
630.058
596.454
554.545
503.22
441.998
367.498
281.843
182.674
43.9702
-0.0906671
-0.707503
-0.650267
-0.639796
-0.558321
-0.518673
-0.483205
-0.452043
-0.429339
-0.418042
599.885
592.859
581.401
564.194
540.595
510.135
472.225
425.918
370.893
303.925
228.468
138.482
19.009
-0.71554
-1.09493
-0.775215
-0.842904
-0.743481
-0.715854
-0.686857
-0.661281
-0.642854
-0.633506
508.684
502.033
491.92
476.612
455.645
428.64
395.101
354.253
305.901
247.08
182.309
102.08
5.76561
-0.881406
-1.20739
-0.944215
-1.00444
-0.935081
-0.910407
-0.886789
-0.865991
-0.850114
-0.840762
421.011
414.854
406.199
392.937
374.815
351.537
322.699
287.685
246.39
196.174
142.277
71.8615
0.34823
-1.10813
-1.19461
-1.12482
-1.13592
-1.11402
-1.1004
-1.08383
-1.06724
-1.0529
-1.0428
337.912
332.366
325.269
314.176
299.076
279.746
255.863
226.949
192.941
151.576
108.174
46.9783
-0.907041
-1.27381
-1.24849
-1.27839
-1.28496
-1.2936
-1.29169
-1.28116
-1.26732
-1.25322
-1.24149
258.344
253.359
247.788
238.798
226.625
211.1
191.969
168.854
141.685
108.599
74.3787
24.4066
-1.26438
-1.31701
-1.30098
-1.41789
-1.45091
-1.4825
-1.48985
-1.48244
-1.4686
-1.45271
-1.43805
176.51
171.981
167.921
160.981
151.699
139.985
125.717
108.698
88.9002
64.6047
38.9721
6.18612
-1.60103
-1.15479
-1.31766
-1.56314
-1.64955
-1.69154
-1.70095
-1.69118
-1.67311
-1.65259
-1.63332
99.6084
95.8198
93.641
89.3788
83.8632
77.1458
69.3335
60.6204
51.4243
40.33
25.9473
8.90038
-6.40988
-1.28494
-1.44434
-1.79934
-1.91116
-1.93381
-1.93148
-1.91011
-1.88199
-1.8533
-1.82749
44.9438
42.8679
42.4321
41.0217
39.3393
37.4503
35.509
33.7154
32.5663
31.4294
24.0128
9.5259
6.44543
-1.99469
-1.85095
-2.26485
-2.28512
-2.22429
-2.18663
-2.13975
-2.09478
-2.05394
-2.01985
6.51924
6.02724
5.48621
4.60327
3.47625
2.18333
0.776479
-0.72511
-2.26143
-3.95678
-4.30618
-4.74609
-4.62624
-3.80014
-3.35228
-3.15482
-2.78445
-2.56713
-2.46514
-2.37507
-2.30683
-2.25283
-2.20981
-3.74225
-3.74448
-3.75663
-3.77457
-3.80253
-3.844
-3.90334
-3.99297
-4.13155
-4.28453
-4.52131
-4.88653
-5.26392
-5.78316
-5.9134
-3.93798
-3.31783
-2.9267
-2.73207
-2.60177
-2.51204
-2.44536
-2.39426
-3.82584
-3.82975
-3.83971
-3.8552
-3.87861
-3.91205
-3.95874
-4.02477
-4.11571
-4.23149
-4.46102
-4.86479
-5.37087
-5.91578
-5.64383
-4.21163
-3.60401
-3.18447
-2.95451
-2.80445
-2.70213
-2.62747
-2.57107
-3.88567
-3.88906
-3.89683
-3.90881
-3.92625
-3.95037
-3.98256
-4.02509
-4.07998
-4.15546
-4.31523
-4.6549
-5.10656
-5.34389
-4.94783
-4.1396
-3.66722
-3.32288
-3.11656
-2.9736
-2.872
-2.79646
-2.7387
-3.94414
-3.9467
-3.95198
-3.9601
-3.97139
-3.98624
-4.00492
-4.0281
-4.05499
-4.08729
-4.15732
-4.32231
-4.54205
-4.6036
-4.35404
-3.91264
-3.61298
-3.3876
-3.23242
-3.11343
-3.02286
-2.95251
-2.89704
-4.00497
-4.0065
-4.0092
-4.01333
-4.01884
-4.02543
-4.03279
-4.04075
-4.04694
-4.04958
-4.06234
-4.10831
-4.16125
-4.11316
-3.93945
-3.73493
-3.57901
-3.4408
-3.32973
-3.23658
-3.16051
-3.09828
-3.04735
-4.06477
-4.06511
-4.06565
-4.06636
-4.06696
-4.06693
-4.06568
-4.06238
-4.05468
-4.04159
-4.02961
-4.02352
-4.00451
-3.93633
-3.82084
-3.70554
-3.60772
-3.51221
-3.42851
-3.3547
-3.29131
-3.23727
-3.19157
-4.12597
-4.12529
-4.12411
-4.12215
-4.11898
-4.11409
-4.10685
-4.0963
-4.08078
-4.05994
-4.03632
-4.00992
-3.9715
-3.91201
-3.83721
-3.75471
-3.67628
-3.60113
-3.53361
-3.47289
-3.4192
-3.37222
-3.3315
-4.18947
-4.18821
-4.18575
-4.18182
-4.17599
-4.16778
-4.15667
-4.14178
-4.12209
-4.0976
-4.0691
-4.03538
-3.99263
-3.93977
-3.88106
-3.82008
-3.75857
-3.69862
-3.64289
-3.5918
-3.54572
-3.50464
-3.46839
-4.25595
-4.25436
-4.25099
-4.2457
-4.23814
-4.22791
-4.21457
-4.19751
-4.17616
-4.15049
-4.12073
-4.08634
-4.0461
-4.00016
-3.95077
-3.90028
-3.85009
-3.80108
-3.75456
-3.71117
-3.67136
-3.63533
-3.60305
-4.32619
-4.32433
-4.32038
-4.31426
-4.30571
-4.29442
-4.28006
-4.26226
-4.2407
-4.21537
-4.18631
-4.15339
-4.11658
-4.07648
-4.0344
-3.99168
-3.94921
-3.90784
-3.86829
-3.83104
-3.79646
-3.76477
-3.73603
-4.40017
-4.3981
-4.39383
-4.38728
-4.37831
-4.36667
-4.3521
-4.33442
-4.31348
-4.28928
-4.26193
-4.23154
-4.1984
-4.16314
-4.12668
-4.08989
-4.05345
-4.01793
-3.98383
-3.95152
-3.92128
-3.89333
-3.86773
-4.47763
-4.47544
-4.47108
-4.46446
-4.45548
-4.44394
-4.42972
-4.4127
-4.39285
-4.37023
-4.345
-4.31738
-4.28777
-4.25671
-4.22486
-4.19286
-4.16125
-4.13042
-4.10076
-4.07253
-4.04597
-4.02126
-3.99844
-4.55834
-4.55617
-4.55189
-4.54543
-4.53671
-4.52561
-4.51205
-4.49602
-4.47754
-4.45671
-4.43373
-4.40888
-4.38251
-4.35511
-4.32718
-4.29919
-4.27158
-4.24467
-4.21873
-4.19397
-4.17058
-4.14871
-4.12839
-4.64224
-4.64016
-4.63608
-4.62992
-4.62163
-4.61115
-4.59847
-4.58359
-4.5666
-4.54764
-4.5269
-4.50466
-4.48125
-4.45708
-4.43255
-4.40802
-4.38382
-4.36025
-4.3375
-4.31575
-4.29513
-4.27578
-4.25773
-4.72919
-4.72728
-4.72345
-4.71766
-4.70991
-4.70016
-4.68844
-4.6748
-4.65933
-4.64221
-4.62361
-4.60381
-4.58309
-4.56179
-4.54023
-4.51871
-4.49751
-4.47684
-4.45688
-4.43778
-4.41963
-4.40255
-4.38656
-4.81901
-4.81729
-4.81374
-4.80837
-4.8012
-4.79223
-4.7815
-4.7691
-4.75514
-4.73978
-4.7232
-4.70564
-4.68736
-4.66862
-4.64971
-4.63086
-4.6123
-4.59421
-4.57674
-4.56
-4.54409
-4.52908
-4.51499
-4.91143
-4.90987
-4.9066
-4.90167
-4.8951
-4.88692
-4.8772
-4.86602
-4.85352
-4.83983
-4.82513
-4.80963
-4.79355
-4.77713
-4.76059
-4.74414
-4.72795
-4.71219
-4.69697
-4.68239
-4.66852
-4.65542
-4.64311
-5.00606
-5.00465
-5.00167
-4.99718
-4.99122
-4.98383
-4.97511
-4.96513
-4.95401
-4.94189
-4.92893
-4.91533
-4.90128
-4.88697
-4.87259
-4.85832
-4.8443
-4.83067
-4.81752
-4.80492
-4.79294
-4.78163
-4.77099
-5.10255
-5.10127
-5.09859
-5.09454
-5.0892
-5.08261
-5.07485
-5.06602
-5.05621
-5.04558
-5.03426
-5.02243
-5.01024
-4.99788
-4.98549
-4.97323
-4.96122
-4.94955
-4.93832
-4.92758
-4.91738
-4.90776
-4.8987
-5.20056
-5.19941
-5.19703
-5.19344
-5.18871
-5.18291
-5.17609
-5.16836
-5.15982
-5.15059
-5.14082
-5.13064
-5.1202
-5.10965
-5.09912
-5.08874
-5.0786
-5.06879
-5.05936
-5.05039
-5.04187
-5.03384
-5.02631
-5.29978
-5.29876
-5.29667
-5.29354
-5.28944
-5.2844
-5.27851
-5.27186
-5.26454
-5.25667
-5.24837
-5.23976
-5.23097
-5.22214
-5.21337
-5.20476
-5.19639
-5.18833
-5.18063
-5.17331
-5.16642
-5.15994
-5.15386
-5.40008
-5.39919
-5.3974
-5.39473
-5.39123
-5.38695
-5.38196
-5.37636
-5.37022
-5.36365
-5.35675
-5.34964
-5.34243
-5.33523
-5.32814
-5.32122
-5.31455
-5.30817
-5.30213
-5.29643
-5.2911
-5.2861
-5.28143
-5.50155
-5.50082
-5.49932
-5.49709
-5.49417
-5.49061
-5.48649
-5.48187
-5.47685
-5.4715
-5.46593
-5.46024
-5.45453
-5.44888
-5.44338
-5.43809
-5.43305
-5.4283
-5.42386
-5.41974
-5.41592
-5.41237
-5.40907
-5.60378
-5.60323
-5.60203
-5.60024
-5.5979
-5.59505
-5.59176
-5.58811
-5.58417
-5.58001
-5.57573
-5.57141
-5.56715
-5.563
-5.55905
-5.55532
-5.55186
-5.5487
-5.54583
-5.54326
-5.54093
-5.53881
-5.53685
-5.70584
-5.70553
-5.70466
-5.70333
-5.70159
-5.69949
-5.69708
-5.69443
-5.69161
-5.68868
-5.68573
-5.68281
-5.68001
-5.67738
-5.67497
-5.67282
-5.67094
-5.66936
-5.66806
-5.66703
-5.66622
-5.66552
-5.66488
-2.09606
-1.43697
-1.25023
-0.970949
-0.430728
-0.837446
-0.867022
-0.6677
0.56541
0.275377
0.120112
0.0804245
0.563505
0.455527
0.356352
0.273425
0.281568
0.241204
0.194307
0.144148
0.0294682
0.0101235
-0.016621
-0.0483041
-0.200721
-0.212514
-0.229591
-0.250369
-0.422712
-0.429551
-0.439854
-0.453039
-0.634939
-0.638391
-0.64439
-0.652651
-0.839674
-0.840829
-0.843888
-0.84866
-1.0395
-1.03875
-1.03943
-1.04143
-1.23582
-1.23324
-1.23178
-1.2314
-1.42963
-1.42513
-1.42158
-1.41898
-1.62157
-1.61492
-1.6092
-1.6044
-1.81176
-1.8027
-1.79466
-1.78764
-1.99973
-1.98807
-1.97764
-1.96838
-2.18471
-2.17032
-2.15748
-2.14608
-2.36491
-2.34814
-2.33322
-2.31994
-2.53876
-2.52031
-2.50387
-2.4892
-2.70523
-2.686
-2.66879
-2.65335
-2.86414
-2.84507
-2.82785
-2.81225
-3.01629
-2.99806
-2.98142
-2.9662
-3.16295
-3.14596
-3.13027
-3.11577
-3.30545
-3.28982
-3.27526
-3.26168
-3.4448
-3.43055
-3.41715
-3.40456
-3.58176
-3.56881
-3.55656
-3.54497
-3.71685
-3.70513
-3.69398
-3.68338
-3.85049
-3.8399
-3.82979
-3.82013
-3.98297
-3.97344
-3.96429
-3.95554
-4.11454
-4.10597
-4.09773
-4.08982
-4.24536
-4.23769
-4.2303
-4.22319
-4.37556
-4.36874
-4.36215
-4.35581
-4.50528
-4.49925
-4.49342
-4.4878
-4.63462
-4.62933
-4.62422
-4.61929
-4.76365
-4.75908
-4.75465
-4.75038
-4.89245
-4.88856
-4.88479
-4.88115
-5.0211
-5.01786
-5.01473
-5.0117
-5.14966
-5.14705
-5.14453
-5.14209
-5.27821
-5.27621
-5.27427
-5.2724
-5.4068
-5.40539
-5.40403
-5.40272
-5.53551
-5.53468
-5.53388
-5.5331
-5.66444
-5.66417
-5.6639
-5.66365
-0.384994
-0.00524808
0.122187
0.162668
0.175669
0.177183
0.173247
0.166704
0.159256
0.151629
0.144212
0.137264
0.130954
0.125394
0.120668
0.116837
0.113943
0.112014
0.111056
-0.258052
0.0044274
0.0794706
0.0887925
0.0819787
0.0717269
0.0601887
0.0485898
0.037623
0.0275233
0.0183528
0.010152
0.00294396
-0.00325636
-0.00843494
-0.0125796
-0.0156822
-0.0177407
-0.0187617
0.0579572
0.0638496
0.0456334
0.0150092
-0.0128856
-0.035365
-0.0543884
-0.0709415
-0.0853292
-0.0978371
-0.108716
-0.118138
-0.126221
-0.133044
-0.138662
-0.143111
-0.146417
-0.148601
-0.149683
0.151079
0.0467624
-0.0217393
-0.0748358
-0.115998
-0.147574
-0.172677
-0.193315
-0.210559
-0.225104
-0.237445
-0.247919
-0.256759
-0.264123
-0.270122
-0.274836
-0.278321
-0.280614
-0.281748
0.0549854
-0.0508557
-0.127241
-0.185687
-0.2317
-0.267733
-0.296361
-0.319621
-0.338808
-0.354794
-0.368198
-0.379451
-0.388855
-0.396625
-0.402911
-0.407824
-0.411442
-0.413818
-0.41499
-0.108313
-0.191444
-0.259236
-0.314533
-0.359818
-0.396442
-0.426116
-0.450422
-0.470515
-0.48724
-0.501222
-0.512913
-0.522641
-0.530643
-0.537093
-0.54212
-0.545813
-0.548234
-0.549427
-0.290762
-0.352585
-0.408437
-0.456951
-0.498335
-0.532982
-0.561788
-0.585768
-0.605794
-0.622564
-0.636625
-0.648393
-0.658181
-0.666225
-0.672702
-0.677743
-0.681444
-0.683868
-0.685062
-0.479759
-0.524623
-0.568596
-0.609017
-0.644963
-0.67612
-0.702741
-0.72535
-0.744504
-0.760708
-0.774387
-0.785885
-0.795475
-0.803368
-0.80973
-0.814685
-0.818322
-0.820704
-0.821877
-0.670101
-0.701851
-0.735217
-0.767588
-0.797591
-0.824498
-0.848136
-0.868653
-0.886329
-0.901474
-0.914381
-0.925305
-0.93446
-0.942024
-0.948136
-0.952904
-0.956409
-0.958705
-0.959835
-0.859417
-0.880995
-0.905356
-0.930315
-0.954442
-0.976841
-0.997087
-1.01507
-1.03085
-1.04458
-1.0564
-1.0665
-1.07503
-1.0821
-1.08784
-1.09234
-1.09564
-1.09781
-1.09888
-1.04696
-1.06043
-1.07719
-1.09552
-1.11412
-1.13205
-1.14876
-1.16399
-1.17763
-1.18968
-1.2002
-1.20929
-1.21702
-1.22348
-1.22875
-1.23289
-1.23594
-1.23795
-1.23894
-1.23257
-1.2393
-1.24957
-1.26203
-1.27554
-1.2892
-1.30242
-1.31482
-1.32618
-1.33642
-1.34551
-1.35344
-1.36027
-1.36602
-1.37074
-1.37446
-1.37722
-1.37903
-1.37993
-1.41623
-1.41713
-1.42175
-1.429
-1.43788
-1.44756
-1.45742
-1.46702
-1.47609
-1.48446
-1.49202
-1.49874
-1.50458
-1.50955
-1.51366
-1.51692
-1.51935
-1.52095
-1.52174
-1.59793
-1.5936
-1.59321
-1.59582
-1.60051
-1.60652
-1.61321
-1.62013
-1.62695
-1.63345
-1.63948
-1.64493
-1.64975
-1.65391
-1.65737
-1.66014
-1.66222
-1.66359
-1.66427
-1.77754
-1.76841
-1.76352
-1.76197
-1.76291
-1.76557
-1.76933
-1.77373
-1.77841
-1.78309
-1.78761
-1.7918
-1.7956
-1.79892
-1.80173
-1.804
-1.80571
-1.80685
-1.80741
-1.95475
-1.94122
-1.93229
-1.92705
-1.92465
-1.9243
-1.92539
-1.92746
-1.93013
-1.9331
-1.93616
-1.93914
-1.94193
-1.94443
-1.94659
-1.94836
-1.9497
-1.9506
-1.95105
-2.12914
-2.11165
-2.09916
-2.09065
-2.0854
-2.08235
-2.08105
-2.08101
-2.08184
-2.08322
-2.08491
-2.08674
-2.08857
-2.09028
-2.09181
-2.09309
-2.09408
-2.09475
-2.09508
-2.30019
-2.27932
-2.26378
-2.25238
-2.24492
-2.23945
-2.23603
-2.23412
-2.23329
-2.23323
-2.23368
-2.23444
-2.23536
-2.23634
-2.23726
-2.23807
-2.23872
-2.23916
-2.23938
-2.46734
-2.44388
-2.42596
-2.41245
-2.40256
-2.39526
-2.39008
-2.38658
-2.3843
-2.38295
-2.38227
-2.38207
-2.38217
-2.38246
-2.38283
-2.3832
-2.38353
-2.38376
-2.38387
-2.63022
-2.60505
-2.58541
-2.57021
-2.55858
-2.54972
-2.54308
-2.53819
-2.53468
-2.53222
-2.53057
-2.5295
-2.52887
-2.52854
-2.5284
-2.52838
-2.52841
-2.52844
-2.52846
-2.78873
-2.76271
-2.74201
-2.72564
-2.71277
-2.7027
-2.69488
-2.68888
-2.68433
-2.68093
-2.67843
-2.67663
-2.67535
-2.67448
-2.67389
-2.67351
-2.67327
-2.67313
-2.67305
-2.94304
-2.91694
-2.89579
-2.87875
-2.86506
-2.85411
-2.84541
-2.83854
-2.83317
-2.829
-2.8258
-2.82336
-2.82154
-2.82019
-2.81921
-2.81851
-2.81804
-2.81776
-2.81758
-3.09351
-3.06795
-3.04687
-3.02958
-3.01545
-3.00395
-2.99463
-2.98712
-2.98111
-2.97634
-2.97258
-2.96963
-2.96735
-2.96561
-2.96429
-2.96333
-2.96266
-2.96225
-2.96199
-3.24064
-3.21605
-3.19543
-3.17827
-3.16401
-3.15223
-3.14254
-3.1346
-3.12815
-3.12293
-3.11873
-3.11539
-3.11274
-3.11068
-3.10909
-3.10791
-3.10708
-3.10656
-3.10625
-3.38491
-3.36158
-3.34172
-3.32495
-3.31084
-3.29902
-3.28917
-3.281
-3.27427
-3.26874
-3.26424
-3.26059
-3.25767
-3.25536
-3.25356
-3.25221
-3.25125
-3.25064
-3.25029
-3.52679
-3.50487
-3.48597
-3.46982
-3.45606
-3.44441
-3.43459
-3.42635
-3.41948
-3.41377
-3.40907
-3.40523
-3.40212
-3.39963
-3.39768
-3.3962
-3.39514
-3.39446
-3.39409
-3.66665
-3.64623
-3.62843
-3.61305
-3.59982
-3.58849
-3.57885
-3.57069
-3.56381
-3.55804
-3.55325
-3.5493
-3.54607
-3.54347
-3.54142
-3.53986
-3.53873
-3.538
-3.53762
-3.80483
-3.78594
-3.76932
-3.75483
-3.74224
-3.73138
-3.72204
-3.71407
-3.7073
-3.70158
-3.69678
-3.6928
-3.68953
-3.68687
-3.68477
-3.68316
-3.682
-3.68125
-3.68086
-3.9416
-3.92425
-3.90885
-3.89532
-3.88348
-3.87317
-3.86425
-3.85657
-3.85
-3.84441
-3.8397
-3.83576
-3.8325
-3.82985
-3.82774
-3.82612
-3.82494
-3.82418
-3.82379
-4.0772
-4.06136
-4.04721
-4.03468
-4.02365
-4.01398
-4.00555
-3.99825
-3.99196
-3.98659
-3.98202
-3.97819
-3.975
-3.9724
-3.97032
-3.96872
-3.96755
-3.96679
-3.96642
-4.21183
-4.19746
-4.18456
-4.17307
-4.16289
-4.15391
-4.14604
-4.13919
-4.13325
-4.12815
-4.1238
-4.12012
-4.11706
-4.11455
-4.11254
-4.11098
-4.10984
-4.1091
-4.10874
-4.34563
-4.33271
-4.32105
-4.31061
-4.30131
-4.29307
-4.28581
-4.27946
-4.27393
-4.26915
-4.26506
-4.2616
-4.2587
-4.25631
-4.25439
-4.2529
-4.25182
-4.25111
-4.25076
-4.47877
-4.46725
-4.45681
-4.44742
-4.43902
-4.43155
-4.42494
-4.41913
-4.41405
-4.40965
-4.40586
-4.40264
-4.39994
-4.39771
-4.39591
-4.39452
-4.39349
-4.39282
-4.39251
-4.61135
-4.60119
-4.59195
-4.58361
-4.57613
-4.56945
-4.56351
-4.55828
-4.55368
-4.54968
-4.54624
-4.5433
-4.54082
-4.53877
-4.53712
-4.53583
-4.53489
-4.53427
-4.53398
-4.74349
-4.73465
-4.72659
-4.7193
-4.71273
-4.70684
-4.7016
-4.69696
-4.69288
-4.68932
-4.68623
-4.6836
-4.68138
-4.67953
-4.67804
-4.67688
-4.67602
-4.67546
-4.6752
-4.87528
-4.86772
-4.86082
-4.85456
-4.8489
-4.84382
-4.83929
-4.83526
-4.8317
-4.8286
-4.8259
-4.8236
-4.82165
-4.82003
-4.81871
-4.81768
-4.81692
-4.81642
-4.8162
-5.0068
-5.0005
-4.99473
-4.98948
-4.98474
-4.98046
-4.97664
-4.97323
-4.97022
-4.96758
-4.96529
-4.96333
-4.96166
-4.96028
-4.95915
-4.95827
-4.95762
-4.95719
-4.957
-5.13814
-5.13306
-5.1284
-5.12416
-5.12031
-5.11684
-5.11372
-5.11094
-5.10848
-5.10632
-5.10445
-5.10284
-5.10147
-5.10033
-5.0994
-5.09867
-5.09813
-5.09777
-5.09762
-5.26938
-5.26549
-5.26191
-5.25865
-5.25569
-5.25301
-5.2506
-5.24845
-5.24655
-5.24487
-5.24342
-5.24217
-5.2411
-5.24021
-5.23949
-5.23892
-5.23849
-5.23821
-5.2381
-5.4006
-5.39786
-5.39534
-5.39304
-5.39095
-5.38906
-5.38735
-5.38582
-5.38447
-5.38328
-5.38225
-5.38136
-5.3806
-5.37997
-5.37945
-5.37904
-5.37873
-5.37852
-5.37846
-5.53185
-5.53024
-5.52875
-5.52739
-5.52616
-5.52503
-5.52402
-5.52311
-5.52231
-5.52161
-5.52099
-5.52046
-5.52001
-5.51963
-5.51932
-5.51907
-5.51889
-5.51876
-5.51873
-5.66325
-5.66272
-5.66224
-5.66179
-5.66139
-5.66102
-5.66069
-5.66039
-5.66013
-5.6599
-5.65969
-5.65952
-5.65937
-5.65924
-5.65914
-5.65906
-5.659
-5.65895
-5.65895
)
;

boundaryField
{
    leftWall
    {
        type            calculated;
        value           nonuniform List<scalar> 
50
(
1963.4
1904.69
1846.13
1787.75
1729.56
1671.61
1613.87
1556.4
1467.13
1347.61
1230.42
1116.08
1005.04
897.668
794.24
694.95
599.885
508.684
421.011
337.912
258.344
176.51
99.6084
44.9438
6.51924
-3.74225
-3.82584
-3.88567
-3.94414
-4.00497
-4.06477
-4.12597
-4.18947
-4.25595
-4.32619
-4.40017
-4.47763
-4.55834
-4.64224
-4.72919
-4.81901
-4.91143
-5.00606
-5.10255
-5.20056
-5.29978
-5.40008
-5.50155
-5.60378
-5.70584
)
;
    }
    rightWall
    {
        type            calculated;
        value           nonuniform List<scalar> 
50
(
0.623367
0.564345
0.505101
0.445646
0.385982
0.326105
0.266013
0.205703
0.111056
-0.0187617
-0.149683
-0.281748
-0.41499
-0.549427
-0.685062
-0.821877
-0.959835
-1.09888
-1.23894
-1.37993
-1.52174
-1.66427
-1.80741
-1.95105
-2.09508
-2.23938
-2.38387
-2.52846
-2.67305
-2.81758
-2.96199
-3.10625
-3.25029
-3.39409
-3.53762
-3.68086
-3.82379
-3.96642
-4.10874
-4.25076
-4.39251
-4.53398
-4.6752
-4.8162
-4.957
-5.09762
-5.2381
-5.37846
-5.51873
-5.65895
)
;
    }
    lowerWall
    {
        type            calculated;
        value           nonuniform List<scalar> 
62
(
1992.83
1988.54
1973.05
1948.4
1915.42
1873.42
1821.53
1758.87
1684.32
1596.86
1494.51
1375.63
1239.64
1084.16
903.927
698.787
488.633
308.446
185.373
129.085
86.9281
70.1652
69.0869
69.0575
68.4093
65.5558
57.3341
37.3612
9.83553
1.79974
0.81285
-2.02242
-1.37385
-1.18764
-0.908346
0.53562
0.472579
0.40521
0.333288
0.256776
0.172814
0.0796304
-0.0299434
0.565049
0.601942
0.626321
0.647568
0.663673
0.67441
0.680401
0.682706
0.682237
0.679977
0.676522
0.672514
0.668323
0.664293
0.660662
0.657595
0.655215
0.653602
0.652796
)
;
    }
    atmosphere
    {
        type            calculated;
        value           nonuniform List<scalar> 
46
(
-5.75621
-5.75619
-5.75546
-5.75437
-5.75297
-5.75129
-5.74937
-5.74729
-5.74509
-5.74284
-5.7406
-5.73845
-5.73643
-5.7346
-5.733
-5.73166
-5.73059
-5.7298
-5.7293
-5.72906
-5.72904
-5.72904
-5.72904
-5.72904
-5.72904
-5.72904
-5.72904
-5.72904
-5.72904
-5.72904
-5.72904
-5.72904
-5.72904
-5.72904
-5.72904
-5.72904
-5.72904
-5.72904
-5.72904
-5.72904
-5.72904
-5.72904
-5.72904
-5.72904
-5.72904
-5.72904
)
;
    }
    defaultFaces
    {
        type            empty;
    }
}


// ************************************************************************* //
