/*--------------------------------*- C++ -*----------------------------------*\
| =========                 |                                                 |
| \\      /  F ield         | OpenFOAM: The Open Source CFD Toolbox           |
|  \\    /   O peration     | Version:  5.x                                   |
|   \\  /    A nd           | Web:      www.OpenFOAM.org                      |
|    \\/     M anipulation  |                                                 |
\*---------------------------------------------------------------------------*/
FoamFile
{
    version     2.0;
    format      ascii;
    class       volScalarField;
    location    "0.1";
    object      p_rgh;
}
// * * * * * * * * * * * * * * * * * * * * * * * * * * * * * * * * * * * * * //

dimensions      [1 -1 -2 0 0 0 0];

internalField   nonuniform List<scalar> 
2268
(
1992.83
1988.54
1973.05
1948.4
1915.42
1873.42
1821.53
1758.87
1684.32
1596.86
1494.51
1375.63
1239.64
1084.16
903.927
698.787
488.633
308.446
185.373
129.085
86.9281
70.1652
69.0869
1992.97
1988.66
1973.13
1948.48
1915.5
1873.47
1821.53
1758.78
1684.1
1596.44
1493.78
1374.36
1237.45
1080.86
899.35
692.096
478.39
291.696
155.824
91.2125
67.629
65.8718
68.4976
1993.28
1988.92
1973.31
1948.67
1915.68
1873.58
1821.54
1758.63
1683.69
1595.63
1492.36
1371.88
1233.34
1074.52
889.96
677.747
456.994
252.26
80.3895
20.8793
37.3272
62.0709
65.7029
1993.75
1989.32
1973.62
1948.98
1915.96
1873.78
1821.6
1758.45
1683.14
1594.52
1490.31
1368.29
1227.55
1065.59
875.531
652.565
413.522
171.631
25.7018
6.52052
13.2504
40.4568
57.5401
1994.43
1989.88
1974.09
1949.46
1916.41
1874.12
1821.76
1758.32
1682.56
1593.25
1487.85
1363.89
1220.41
1054.32
855.577
614.953
311.911
60.9149
4.99025
3.95769
4.95998
15.0159
43.047
1995.33
1990.66
1974.77
1950.14
1917.06
1874.66
1822.12
1758.36
1682.1
1591.99
1485.25
1359.1
1212.58
1041.36
828.913
549.352
160.726
9.36325
3.10356
3.074
3.42787
4.47494
18.6536
1996.45
1991.62
1975.64
1951.02
1917.9
1875.4
1822.66
1758.55
1681.76
1590.78
1482.51
1354.06
1204.72
1027.81
796.304
423.997
52.6715
4.06313
2.4693
2.52448
2.65583
2.3973
4.87548
1997.84
1992.74
1976.7
1952.09
1918.94
1876.32
1823.38
1758.88
1681.52
1589.6
1479.6
1348.72
1196.9
1013.14
759.34
273.363
12.861
2.53373
2.12974
2.18608
2.20679
1.78444
1.25414
0.565049
0.601942
0.626321
0.647568
0.663673
0.67441
0.680401
0.682706
0.682237
0.679977
0.676522
0.672514
0.668323
0.664293
0.660662
0.657595
0.655215
0.653602
0.652796
0.560867
0.600881
0.626256
0.648235
0.664549
0.675219
0.681013
0.683155
0.682538
0.68016
0.676608
0.672524
0.66828
0.664208
0.660545
0.657457
0.655063
0.65344
0.652633
0.552357
0.598541
0.626192
0.649676
0.666371
0.676907
0.682374
0.684124
0.683165
0.680509
0.676748
0.672501
0.668141
0.663983
0.660258
0.657128
0.654706
0.653065
0.652248
0.539294
0.594235
0.626296
0.652072
0.669229
0.67948
0.684395
0.685552
0.684079
0.681006
0.67693
0.672442
0.667908
0.663624
0.659808
0.656614
0.65415
0.652482
0.651652
0.52164
0.586426
0.626987
0.655651
0.673234
0.682973
0.687083
0.687417
0.685254
0.681627
0.677137
0.672334
0.667573
0.663125
0.659192
0.655916
0.653395
0.651692
0.650846
0.496537
0.578883
0.629413
0.660704
0.678503
0.687418
0.69042
0.689689
0.686656
0.682344
0.677344
0.67216
0.667123
0.662478
0.658403
0.655026
0.652438
0.650694
0.649828
0.462212
0.572529
0.633905
0.667529
0.685153
0.692834
0.694378
0.69232
0.68824
0.683118
0.677522
0.671899
0.666544
0.66167
0.657432
0.65394
0.651274
0.649483
0.648595
0.411498
0.560692
0.639038
0.676331
0.693335
0.699215
0.69889
0.69524
0.689946
0.683907
0.67764
0.671526
0.665818
0.660689
0.656269
0.65265
0.6499
0.648057
0.647143
2000.6
1995
1978.94
1954.37
1921.18
1878.42
1825.19
1760.17
1681.95
1588.58
1475.99
1341.71
1186.01
985.759
652.633
117.459
3.63885
1.70643
1.79126
1.8505
1.75647
1.36827
0.535613
2006.27
2000.17
1984.1
1959.7
1926.62
1883.89
1830.56
1765.21
1686.35
1591.69
1476.56
1340.01
1180.56
955.685
403.173
13.8457
1.65295
1.39424
1.53407
1.5644
1.49704
1.31687
1.22049
2014.28
2007.69
1991.72
1967.66
1934.92
1892.52
1839.52
1774.4
1695.72
1600.81
1484.88
1349.3
1186.19
915.084
184.465
2.61044
1.13765
1.24902
1.35526
1.40303
1.41835
1.40363
1.64562
2025.13
2018.15
2002.44
1978.92
1946.81
1905.18
1853.09
1788.99
1711.58
1617.85
1503.57
1372.32
1205.48
765.148
66.5858
1.43277
1.01549
1.14231
1.22659
1.29457
1.35063
1.39063
1.55402
2039.28
2032.02
2016.76
1994.02
1962.89
1922.51
1871.97
1809.78
1734.83
1643.86
1533.9
1409.63
1241.58
581.546
12.3524
0.890004
0.964977
1.04782
1.1274
1.19493
1.24873
1.28736
1.34763
2057.11
2049.7
2035.1
2013.38
1983.59
1944.98
1896.68
1837.3
1765.95
1679.24
1575.93
1459.92
1296.36
395.942
1.61902
0.729985
0.916036
0.969814
1.04177
1.098
1.14182
1.17486
1.20247
2078.87
2071.46
2057.72
2037.27
2009.21
1972.86
1927.46
1871.73
1805
1723.84
1628.75
1520.85
1282.8
259.514
1.21017
0.734075
0.851361
0.907023
0.964341
1.00911
1.04625
1.07461
1.09186
2104.78
2097.49
2084.81
2065.87
2039.89
2006.28
1964.37
1913.05
1851.83
1777.33
1691.67
1592.5
1237.8
157.323
0.766574
0.760014
0.770223
0.851527
0.891159
0.926626
0.957787
0.98049
0.991787
2134.91
2127.88
2116.42
2099.22
2075.62
2045.16
2007.25
1960.94
1905.92
1838.95
1763.49
1673.51
1164.68
81.0627
0.445729
0.75986
0.692148
0.791551
0.819171
0.848167
0.873743
0.89217
0.901518
2168.9
2162.25
2152.14
2136.83
2115.86
2088.86
2055.32
2014.47
1966.12
1907.3
1842.53
1762.3
1047.63
30.829
0.453161
0.716009
0.655774
0.725138
0.749812
0.773429
0.794227
0.810104
0.819456
2206.42
2200.27
2191.61
2178.35
2160.23
2136.95
2108.11
2073.1
2031.8
1981.59
1927.69
1857.27
861.737
5.30265
0.590906
0.660589
0.649491
0.671393
0.685009
0.70158
0.718169
0.732509
0.742608
2248.52
2242.97
2235.87
2224.78
2209.68
2190.35
2166.47
2137.55
2103.54
2062.18
2018.77
1957.56
626.74
0.662969
0.662312
0.632306
0.625647
0.617009
0.61892
0.629446
0.643291
0.657383
0.669117
2294.15
2289.15
2283.58
2274.59
2262.41
2246.88
2227.75
2204.63
2177.45
2144.34
2110.1
2060.01
461.931
0.720555
0.734946
0.618015
0.584892
0.553304
0.545952
0.553366
0.567205
0.583091
0.597752
2337.51
2332.86
2328.78
2321.82
2312.52
2300.77
2286.45
2269.37
2249.48
2225.03
2199.18
2165.24
434.619
1.00926
0.843402
0.597854
0.511443
0.469457
0.460042
0.46982
0.487886
0.508406
0.527679
2385.8
2380.57
2378.18
2373.75
2367.98
2360.9
2352.62
2343.28
2333.28
2315.54
2274.34
2070.76
535.376
11.0836
0.845109
0.486921
0.375035
0.352383
0.354709
0.376083
0.4042
0.432893
0.458702
2139.33
2110.33
2089.63
2052.27
1999.29
1929.38
1840.98
1731.52
1602.3
1371.5
1095.17
560.618
475.26
67.7708
0.70872
0.152989
0.126403
0.1871
0.224754
0.271632
0.3166
0.357442
0.391531
422.729
402.456
380.485
344.303
298.392
246.192
189.601
130.301
75.8707
3.97117
-1.76957
-2.20912
-1.89375
77.5351
14.5803
-0.603497
-0.247665
-0.0305493
0.071443
0.161511
0.229749
0.28375
0.32677
-1.08048
-1.0827
-1.09486
-1.1128
-1.14075
-1.18223
-1.24156
-1.33119
-1.46978
-1.62276
-1.85953
-2.22472
-2.60174
17.8252
15.3801
-1.13775
-0.653404
-0.264895
-0.0702925
0.0600046
0.149735
0.216417
0.267511
-1.03887
-1.04278
-1.05274
-1.06823
-1.09164
-1.12508
-1.17177
-1.2378
-1.32874
-1.44451
-1.67389
-2.07484
-2.54659
-3.07481
8.4537
-1.42428
-0.816901
-0.3975
-0.167538
-0.0174812
0.0848395
0.1595
0.2159
-0.973511
-0.976901
-0.984669
-0.99665
-1.01409
-1.03821
-1.07039
-1.11293
-1.16782
-1.2433
-1.40303
-1.74051
-2.09361
0.0117434
1.181
-1.2274
-0.755056
-0.410716
-0.2044
-0.0614406
0.0401657
0.115701
0.173461
-0.906785
-0.909344
-0.914627
-0.922743
-0.934029
-0.948879
-0.967565
-0.990739
-1.01763
-1.04994
-1.11996
-1.25747
-1.43418
-1.56599
-1.31652
-0.875279
-0.575623
-0.350241
-0.195064
-0.076077
0.0144963
0.0848486
0.140319
-0.842422
-0.843947
-0.846649
-0.850781
-0.856288
-0.862873
-0.870242
-0.878201
-0.884388
-0.887027
-0.899792
-0.945753
-0.998695
-0.950609
-0.776887
-0.572374
-0.416456
-0.278251
-0.167178
-0.0740267
0.00203811
0.0642714
0.115203
-0.777021
-0.777363
-0.777902
-0.778614
-0.779211
-0.779179
-0.77793
-0.774632
-0.766929
-0.753844
-0.741861
-0.735773
-0.716768
-0.648581
-0.533095
-0.417795
-0.31997
-0.224467
-0.140763
-0.0669508
-0.00356746
0.0504729
0.0961728
-0.713025
-0.712349
-0.711171
-0.709212
-0.706042
-0.701146
-0.693913
-0.683361
-0.667836
-0.646997
-0.623382
-0.596978
-0.558561
-0.499072
-0.424269
-0.341773
-0.263341
-0.188189
-0.12067
-0.0599456
-0.00625943
0.0407248
0.0814398
-0.651336
-0.650071
-0.647612
-0.643688
-0.637855
-0.629645
-0.618535
-0.603647
-0.583959
-0.559466
-0.53096
-0.497244
-0.454498
-0.401631
-0.342919
-0.281943
-0.220438
-0.160484
-0.104754
-0.0536679
-0.00758083
0.033492
0.0697423
-0.592619
-0.591027
-0.587656
-0.582371
-0.574812
-0.564581
-0.551242
-0.534183
-0.512829
-0.487157
-0.457399
-0.423006
-0.382767
-0.336826
-0.287442
-0.236949
-0.186757
-0.13775
-0.0912304
-0.0478408
-0.00802897
0.0279968
0.0602763
-0.537661
-0.535809
-0.531857
-0.525733
-0.517182
-0.505898
-0.491538
-0.47373
-0.452174
-0.426844
-0.397787
-0.364864
-0.328052
-0.28796
-0.245877
-0.203154
-0.160682
-0.119313
-0.0797634
-0.0425173
-0.00793121
0.0237505
0.0524956
-0.486456
-0.48438
-0.480108
-0.473565
-0.464594
-0.452947
-0.438385
-0.420705
-0.399759
-0.375559
-0.348207
-0.317816
-0.284678
-0.249422
-0.212956
-0.176175
-0.139732
-0.104214
-0.0701098
-0.0377998
-0.00756196
0.0203854
0.0459926
-0.438713
-0.436527
-0.432161
-0.425544
-0.416563
-0.405029
-0.390804
-0.373789
-0.353938
-0.331319
-0.306086
-0.27847
-0.248854
-0.217792
-0.185944
-0.153946
-0.122333
-0.0915093
-0.0618441
-0.0336204
-0.0070594
0.0176532
0.0404689
-0.394236
-0.392061
-0.38778
-0.381326
-0.372601
-0.361497
-0.347945
-0.331914
-0.313428
-0.292603
-0.269626
-0.244767
-0.218399
-0.190997
-0.163067
-0.135087
-0.107476
-0.0805635
-0.0546213
-0.0298661
-0.00647418
0.0153999
0.0357146
-0.352932
-0.35086
-0.346777
-0.340619
-0.332325
-0.32185
-0.309165
-0.29429
-0.277299
-0.258335
-0.237597
-0.215355
-0.19195
-0.167779
-0.143244
-0.118714
-0.0945211
-0.0709447
-0.0481971
-0.0264441
-0.0058284
0.0135232
0.0315773
-0.314689
-0.31278
-0.308952
-0.303166
-0.29541
-0.285667
-0.273943
-0.260299
-0.244837
-0.227709
-0.209116
-0.18931
-0.168593
-0.147293
-0.125734
-0.104216
-0.083009
-0.0623411
-0.042386
-0.0232788
-0.00513302
0.0119483
0.0279387
-0.279322
-0.277597
-0.274046
-0.268674
-0.261503
-0.252534
-0.241807
-0.229408
-0.215452
-0.20009
-0.183512
-0.165951
-0.147666
-0.128932
-0.110016
-0.0911671
-0.0726055
-0.0545155
-0.0370491
-0.0203127
-0.00439674
0.0106144
0.0246999
-0.246542
-0.244984
-0.241717
-0.236781
-0.230211
-0.222031
-0.212309
-0.201138
-0.188634
-0.174942
-0.160242
-0.144741
-0.128666
-0.112245
-0.0957043
-0.0792513
-0.0630665
-0.0473026
-0.0320839
-0.0175067
-0.00363284
0.00946607
0.0217749
-0.215979
-0.214564
-0.21159
-0.207097
-0.201136
-0.193753
-0.185025
-0.175045
-0.163925
-0.151806
-0.138854
-0.125253
-0.111199
-0.0968882
-0.0825098
-0.0682379
-0.0542217
-0.0405871
-0.0274347
-0.0148413
-0.00286132
0.00845103
0.0190877
-0.187274
-0.185993
-0.183314
-0.179269
-0.173923
-0.167334
-0.159577
-0.15074
-0.140937
-0.130302
-0.118985
-0.10715
-0.094965
-0.0825995
-0.0702145
-0.0579543
-0.045942
-0.0342791
-0.0230465
-0.012309
-0.00210686
0.00751984
0.0165708
-0.160094
-0.158944
-0.156558
-0.152968
-0.148242
-0.142437
-0.135622
-0.127889
-0.119348
-0.110123
-0.100349
-0.090169
-0.0797304
-0.06918
-0.0586541
-0.0482716
-0.0381322
-0.0283175
-0.0188932
-0.0099165
-0.00139724
0.00662556
0.0141628
-0.134113
-0.133093
-0.131003
-0.127877
-0.123771
-0.118738
-0.11285
-0.106195
-0.0988777
-0.0910081
-0.0827053
-0.0740957
-0.0653099
-0.0564746
-0.0477041
-0.0390956
-0.0307292
-0.0226687
-0.0149632
-0.00764394
-0.000757567
0.00572241
0.0118041
-0.109217
-0.10833
-0.106536
-0.103869
-0.100369
-0.0960903
-0.0911047
-0.0854967
-0.0793584
-0.072788
-0.0658912
-0.0587809
-0.0515719
-0.0443721
-0.0372759
-0.0303615
-0.0236917
-0.0173157
-0.0112691
-0.00557274
-0.000235931
0.0047587
0.00943325
-0.0855003
-0.0847674
-0.0832668
-0.0810388
-0.0781182
-0.0745603
-0.0704341
-0.0658169
-0.0607914
-0.0554461
-0.0498775
-0.0441868
-0.0384738
-0.032829
-0.0273289
-0.0220354
-0.0169962
-0.0122462
-0.0078072
-0.00368427
0.00013579
0.00368207
0.00698597
-0.0625335
-0.0619788
-0.0607808
-0.0589924
-0.0566473
-0.0538008
-0.0505167
-0.0468647
-0.0429196
-0.038763
-0.0344821
-0.0301657
-0.0258984
-0.0217549
-0.0177969
-0.0140724
-0.0106166
-0.00745159
-0.00458485
-0.0020069
0.000315134
0.00243355
0.00439473
-0.039396
-0.039092
-0.0382158
-0.0368858
-0.0351446
-0.0330434
-0.0306382
-0.0279905
-0.0251671
-0.0222399
-0.0192833
-0.0163704
-0.0135695
-0.0109398
-0.00852941
-0.00637451
-0.00449864
-0.00291257
-0.00161386
-0.000586989
0.000219882
0.00091889
0.00156409
-1.46851
-0.899062
-0.716766
-0.437438
0.352316
-0.140595
-0.208358
-0.00899109
1.37004
1.08998
0.912262
0.864448
1.47288
1.3673
1.26797
1.18322
1.31584
1.27547
1.22856
1.17845
1.18891
1.16957
1.14282
1.11114
1.08391
1.07212
1.05504
1.03426
0.987117
0.980278
0.969975
0.95679
0.900084
0.896632
0.890633
0.882373
0.820544
0.819389
0.81633
0.811558
0.745912
0.746662
0.745986
0.743985
0.674783
0.677362
0.678823
0.679205
0.606168
0.61067
0.61422
0.616819
0.539428
0.546075
0.551801
0.556593
0.474432
0.483492
0.491529
0.498548
0.411658
0.423316
0.433749
0.443
0.351868
0.36626
0.379096
0.390504
0.296868
0.313635
0.328557
0.341834
0.248207
0.26666
0.283099
0.297766
0.206935
0.22616
0.243369
0.258814
0.173213
0.19229
0.209513
0.225105
0.146266
0.164496
0.181133
0.196354
0.124796
0.141791
0.157472
0.171972
0.107495
0.123118
0.137677
0.151265
0.0933309
0.107587
0.120982
0.133578
0.0815679
0.0945172
0.106767
0.118356
0.0716705
0.0833934
0.0945458
0.105149
0.0632304
0.0738152
0.0839316
0.0935878
0.0559396
0.0654739
0.0746207
0.0833788
0.04957
0.0581341
0.0663743
0.0742837
0.0439478
0.0516116
0.0590015
0.0661081
0.0389331
0.0457553
0.0523441
0.0586895
0.0344079
0.0404383
0.0462688
0.0518908
0.0302709
0.0355523
0.0406626
0.0455953
0.026435
0.0310046
0.0354286
0.0397024
0.022824
0.0267142
0.0304816
0.034123
0.0193683
0.0226066
0.0257428
0.0287744
0.0160006
0.0186102
0.0211365
0.023578
0.012653
0.0146533
0.0165883
0.0184573
0.00925555
0.0106634
0.012024
0.0133371
0.00573837
0.00656994
0.0073726
0.00814652
0.00200468
0.00227653
0.00253843
0.00279056
0.148485
0.52822
0.655654
0.696135
0.709136
0.71065
0.706714
0.700171
0.692723
0.685096
0.677679
0.670731
0.664421
0.658861
0.654135
0.650304
0.647411
0.645481
0.644523
0.400626
0.663089
0.738132
0.747454
0.74064
0.730389
0.71885
0.707251
0.696285
0.686185
0.677014
0.668814
0.661606
0.655405
0.650227
0.646082
0.642979
0.640921
0.6399
0.841826
0.847706
0.82949
0.798865
0.770971
0.748491
0.729468
0.712915
0.698527
0.686019
0.67514
0.665718
0.657635
0.650812
0.645194
0.640746
0.637439
0.635255
0.634174
1.06013
0.955813
0.887311
0.834215
0.793053
0.761477
0.736374
0.715735
0.698492
0.683947
0.671606
0.661131
0.652292
0.644927
0.638928
0.634215
0.63073
0.628436
0.627303
1.08924
0.983389
0.907004
0.848558
0.802545
0.766512
0.737885
0.714624
0.695437
0.679451
0.666047
0.654794
0.64539
0.637621
0.631335
0.626422
0.622803
0.620428
0.619255
1.05113
0.967996
0.900204
0.844907
0.799621
0.762998
0.733323
0.709018
0.688925
0.6722
0.658218
0.646527
0.636799
0.628797
0.622347
0.61732
0.613627
0.611206
0.610013
0.993872
0.932049
0.876197
0.827683
0.786299
0.751652
0.722847
0.698866
0.67884
0.66207
0.648009
0.636241
0.626453
0.61841
0.611933
0.606891
0.60319
0.600766
0.599572
0.93007
0.885205
0.841233
0.800812
0.764866
0.733709
0.707087
0.684478
0.665324
0.649121
0.635442
0.623943
0.614354
0.606461
0.600099
0.595144
0.591507
0.589125
0.587952
0.864922
0.833173
0.799806
0.767436
0.737433
0.710525
0.686887
0.66637
0.648694
0.633549
0.620643
0.609719
0.600563
0.592999
0.586887
0.582119
0.578615
0.576319
0.575188
0.800801
0.779223
0.754862
0.729903
0.705776
0.683377
0.663131
0.645146
0.629363
0.615641
0.603814
0.593715
0.585192
0.578115
0.572373
0.567882
0.564575
0.562406
0.561337
0.738452
0.724985
0.708223
0.689891
0.671297
0.653367
0.63665
0.621424
0.607787
0.595735
0.585208
0.576123
0.568392
0.561929
0.55666
0.552522
0.549468
0.547461
0.546472
0.678041
0.671306
0.661037
0.648576
0.63507
0.621406
0.608188
0.595791
0.584424
0.574184
0.565101
0.557163
0.550339
0.544588
0.53987
0.536148
0.533391
0.531576
0.530681
0.619575
0.618669
0.614051
0.606798
0.597917
0.58824
0.578384
0.56878
0.559709
0.551342
0.543778
0.537065
0.531224
0.526253
0.522143
0.518882
0.516455
0.514853
0.514062
0.563068
0.567398
0.567788
0.56518
0.560481
0.554478
0.547786
0.540865
0.534042
0.527542
0.521517
0.516064
0.511244
0.507091
0.503624
0.500852
0.498778
0.497403
0.496725
0.508655
0.517785
0.522673
0.524219
0.523278
0.520622
0.516859
0.512461
0.507785
0.503097
0.498585
0.494386
0.490593
0.48727
0.48446
0.48219
0.480479
0.479341
0.478778
0.456631
0.470166
0.479092
0.484339
0.486732
0.487089
0.485995
0.483925
0.481259
0.478287
0.475227
0.472244
0.469457
0.466954
0.464797
0.463028
0.461682
0.46078
0.460335
0.407436
0.424927
0.437416
0.445927
0.451182
0.454226
0.455527
0.455568
0.454744
0.453363
0.451666
0.449835
0.44801
0.446296
0.444771
0.443492
0.442502
0.441834
0.441504
0.361582
0.382451
0.397996
0.409398
0.416851
0.422328
0.425741
0.427652
0.428481
0.428546
0.428098
0.427335
0.426409
0.425439
0.424513
0.423701
0.423054
0.42261
0.422392
0.319633
0.343086
0.361006
0.374522
0.384413
0.391709
0.396889
0.400393
0.402673
0.404021
0.404694
0.404899
0.404795
0.404509
0.404141
0.403765
0.40344
0.403209
0.403096
0.281946
0.307118
0.326757
0.341955
0.353583
0.36244
0.369088
0.373969
0.377484
0.379947
0.381597
0.382659
0.383293
0.383622
0.383761
0.383785
0.383757
0.383721
0.383707
0.248627
0.274651
0.295349
0.311715
0.324585
0.334659
0.342479
0.348476
0.353024
0.356427
0.358925
0.360729
0.362013
0.362875
0.363468
0.363851
0.364088
0.364226
0.364309
0.219516
0.245613
0.266762
0.283803
0.297492
0.30844
0.317144
0.324012
0.329387
0.333557
0.336757
0.339189
0.341017
0.342364
0.343345
0.34404
0.34451
0.344794
0.344975
0.194236
0.219793
0.240879
0.258162
0.272294
0.2838
0.293121
0.300627
0.306633
0.311404
0.315168
0.318113
0.320396
0.322141
0.323454
0.324414
0.325083
0.325497
0.325755
0.172302
0.196888
0.217508
0.234675
0.248928
0.260711
0.270405
0.278337
0.284791
0.290011
0.294207
0.297554
0.3002
0.302265
0.303849
0.305028
0.305862
0.306385
0.306695
0.153222
0.176557
0.196418
0.213184
0.227294
0.239112
0.248963
0.257132
0.263869
0.269395
0.2739
0.277545
0.280466
0.282777
0.284571
0.285922
0.286887
0.287498
0.287844
0.136543
0.158464
0.177361
0.193512
0.207265
0.218918
0.228742
0.236981
0.243855
0.249557
0.254257
0.258102
0.261215
0.263702
0.26565
0.267129
0.26819
0.268869
0.269237
0.121876
0.142297
0.160097
0.175475
0.188706
0.20003
0.209672
0.217839
0.22472
0.230482
0.235275
0.239229
0.242458
0.245057
0.247105
0.248669
0.249796
0.250521
0.250904
0.108891
0.127779
0.144399
0.158893
0.171477
0.182342
0.191675
0.199649
0.206424
0.212143
0.216937
0.22092
0.224194
0.226845
0.228946
0.230556
0.231721
0.232474
0.232862
0.0973112
0.114667
0.130061
0.143596
0.155439
0.165745
0.174666
0.182346
0.188917
0.194504
0.199217
0.203158
0.206415
0.209065
0.211174
0.212796
0.213973
0.214737
0.215123
0.086905
0.102748
0.116897
0.129424
0.140461
0.150131
0.158557
0.165858
0.172146
0.177523
0.182085
0.18592
0.189104
0.191707
0.193785
0.195388
0.196555
0.197314
0.197691
0.0774777
0.0918411
0.104742
0.116233
0.126417
0.135392
0.143259
0.150114
0.156049
0.161152
0.165504
0.169178
0.172242
0.174755
0.176768
0.178324
0.179461
0.180202
0.180564
0.0688641
0.0817858
0.0934482
0.10389
0.11319
0.121429
0.128685
0.135039
0.140567
0.145343
0.149433
0.1529
0.155802
0.158189
0.160106
0.161593
0.162681
0.163392
0.163733
0.0609233
0.0724444
0.0828849
0.0922728
0.100671
0.108142
0.11475
0.120562
0.125639
0.130043
0.13383
0.137051
0.139754
0.141985
0.143781
0.145177
0.1462
0.14687
0.147186
0.0535343
0.0636957
0.0729345
0.0812718
0.0887568
0.0954396
0.101373
0.106611
0.111204
0.115202
0.11865
0.121591
0.124067
0.126114
0.127767
0.129054
0.13
0.130621
0.130908
0.046591
0.0554318
0.0634908
0.0707849
0.0773533
0.0832364
0.0884772
0.0931186
0.0972017
0.100766
0.103847
0.106482
0.108704
0.110546
0.112037
0.113201
0.114058
0.114622
0.114877
0.0399985
0.0475548
0.0544566
0.0607187
0.0663724
0.0714506
0.0759876
0.0800171
0.0835709
0.0866796
0.089373
0.0916803
0.0936301
0.0952497
0.0965636
0.0975921
0.0983508
0.0988514
0.0990718
0.0336695
0.0399746
0.0457424
0.0509865
0.0557322
0.0600056
0.0638333
0.0672407
0.0702519
0.0728903
0.0751796
0.0771436
0.0788063
0.0801905
0.0813161
0.0821995
0.0828526
0.0832847
0.0834687
0.0275216
0.0326072
0.0372651
0.0415079
0.0453556
0.0488282
0.0519453
0.0547252
0.0571854
0.0593437
0.0612184
0.0628289
0.0641946
0.0653341
0.066263
0.0669938
0.0675353
0.0678949
0.0680409
0.0214762
0.0253735
0.0289468
0.0322071
0.0351695
0.0378483
0.0402571
0.0424082
0.0443139
0.0459871
0.0474418
0.0486931
0.0497561
0.0506449
0.0513713
0.0519441
0.0523694
0.0526533
0.0527604
0.0154577
0.0181982
0.0207133
0.0230116
0.0251035
0.0269982
0.0287042
0.0302293
0.0315814
0.0327693
0.033803
0.0346933
0.0354511
0.036086
0.036606
0.037017
0.0373228
0.037529
0.037597
0.00939494
0.0110114
0.0124962
0.0138548
0.0150931
0.0162161
0.0172283
0.0181338
0.018937
0.0196432
0.0202582
0.0207887
0.021241
0.0216207
0.0219324
0.0221791
0.0223631
0.0224902
0.0225209
0.00319665
0.00372331
0.00420719
0.00465039
0.00505483
0.00542211
0.00575353
0.00605033
0.0063139
0.00654588
0.00674824
0.00692308
0.00707247
0.00719816
0.00730154
0.00738356
0.00744476
0.00748866
0.00749419
)
;

boundaryField
{
    leftWall
    {
        type            fixedFluxPressure;
        gradient        uniform 0;
        value           nonuniform List<scalar> 
50
(
1992.83
1992.97
1993.28
1993.75
1994.43
1995.33
1996.45
1997.84
2000.6
2006.27
2014.28
2025.13
2039.28
2057.11
2078.87
2104.78
2134.91
2168.9
2206.42
2248.52
2294.15
2337.51
2385.8
2139.33
422.729
-1.08048
-1.03887
-0.973511
-0.906785
-0.842422
-0.777021
-0.713025
-0.651336
-0.592619
-0.537661
-0.486456
-0.438713
-0.394236
-0.352932
-0.314689
-0.279322
-0.246542
-0.215979
-0.187274
-0.160094
-0.134113
-0.109217
-0.0855003
-0.0625335
-0.039396
)
;
    }
    rightWall
    {
        type            fixedFluxPressure;
        gradient        uniform 0;
        value           nonuniform List<scalar> 
50
(
0.652796
0.652633
0.652248
0.651652
0.650846
0.649828
0.648595
0.647143
0.644523
0.6399
0.634174
0.627303
0.619255
0.610013
0.599572
0.587952
0.575188
0.561337
0.546472
0.530681
0.514062
0.496725
0.478778
0.460335
0.441504
0.422392
0.403096
0.383707
0.364309
0.344975
0.325755
0.306695
0.287844
0.269237
0.250904
0.232862
0.215123
0.197691
0.180564
0.163733
0.147186
0.130908
0.114877
0.0990718
0.0834687
0.0680409
0.0527604
0.037597
0.0225209
0.00749419
)
;
    }
    lowerWall
    {
        type            fixedFluxPressure;
        gradient        uniform 0;
        value           nonuniform List<scalar> 
62
(
1992.83
1988.54
1973.05
1948.4
1915.42
1873.42
1821.53
1758.87
1684.32
1596.86
1494.51
1375.63
1239.64
1084.16
903.927
698.787
488.633
308.446
185.373
129.085
86.9281
70.1652
69.0869
69.0869
68.4976
65.7029
57.5401
43.047
18.6536
4.87548
1.25414
-1.46851
-0.899062
-0.716766
-0.437438
0.565049
0.560867
0.552357
0.539294
0.52164
0.496537
0.462212
0.411498
0.565049
0.601942
0.626321
0.647568
0.663673
0.67441
0.680401
0.682706
0.682237
0.679977
0.676522
0.672514
0.668323
0.664293
0.660662
0.657595
0.655215
0.653602
0.652796
)
;
    }
    atmosphere
    {
        type            totalPressure;
        rho             rho;
        psi             none;
        gamma           1;
        p0              uniform 0;
        value           nonuniform List<scalar> 
46
(
-0.0271749
-0.0271451
-0.0264157
-0.0253321
-0.023928
-0.022245
-0.0203323
-0.0182454
-0.0160454
-0.0137964
-0.0115633
-0.00940903
-0.00739148
-0.00556127
-0.00395939
-0.00261574
-0.00154849
-0.000764343
-0.000259713
-2.32629e-05
0
0
0
0
0
0
0
0
0
0
0
0
0
0
0
0
0
0
0
0
0
0
0
0
0
0
)
;
    }
    defaultFaces
    {
        type            empty;
    }
}


// ************************************************************************* //
