/*--------------------------------*- C++ -*----------------------------------*\
| =========                 |                                                 |
| \\      /  F ield         | OpenFOAM: The Open Source CFD Toolbox           |
|  \\    /   O peration     | Version:  5.x                                   |
|   \\  /    A nd           | Web:      www.OpenFOAM.org                      |
|    \\/     M anipulation  |                                                 |
\*---------------------------------------------------------------------------*/
FoamFile
{
    version     2.0;
    format      ascii;
    class       surfaceScalarField;
    location    "0.1";
    object      phi;
}
// * * * * * * * * * * * * * * * * * * * * * * * * * * * * * * * * * * * * * //

dimensions      [0 3 -1 0 0 0 0];

internalField   nonuniform List<scalar> 
4432
(
4.73927e-06
-4.73927e-06
1.05504e-05
-5.81114e-06
1.61665e-05
-5.61612e-06
2.17864e-05
-5.61988e-06
2.75986e-05
-5.81221e-06
3.36886e-05
-6.08996e-06
4.01257e-05
-6.43709e-06
4.69728e-05
-6.8471e-06
5.43399e-05
-7.3672e-06
6.22941e-05
-7.95419e-06
7.09254e-05
-8.63125e-06
8.03663e-05
-9.44088e-06
9.08971e-05
-1.05308e-05
0.000102813
-1.19155e-05
0.000115365
-1.25523e-05
0.00012614
-1.07753e-05
0.000132847
-6.70717e-06
0.000136115
-3.26765e-06
0.000139202
-3.08732e-06
0.000140787
-1.58494e-06
0.000121077
1.97099e-05
5.80848e-05
6.29926e-05
5.80844e-05
4.75629e-06
-9.49555e-06
1.0553e-05
-1.16078e-05
1.617e-05
-1.12331e-05
2.17916e-05
-1.12415e-05
2.76012e-05
-1.16218e-05
3.36862e-05
-1.2175e-05
4.01141e-05
-1.28649e-05
4.6955e-05
-1.3688e-05
5.43028e-05
-1.4715e-05
6.22315e-05
-1.58829e-05
7.08756e-05
-1.72753e-05
8.03334e-05
-1.88987e-05
9.06996e-05
-2.08971e-05
0.000102227
-2.34433e-05
0.000114623
-2.49475e-05
0.000126632
-2.27849e-05
0.000137024
-1.70993e-05
0.000145241
-1.14846e-05
0.000151724
-9.57037e-06
0.000155416
-5.27674e-06
0.000137576
3.75503e-05
9.65103e-05
0.000104058
0.000154595
4.7532e-06
-1.42488e-05
1.05116e-05
-1.73662e-05
1.60982e-05
-1.68197e-05
2.16938e-05
-1.68371e-05
2.74738e-05
-1.74018e-05
3.35254e-05
-1.82266e-05
3.99142e-05
-1.92537e-05
4.67135e-05
-2.04874e-05
5.40092e-05
-2.20107e-05
6.18803e-05
-2.3754e-05
7.04903e-05
-2.58853e-05
7.99183e-05
-2.83267e-05
9.01861e-05
-3.11648e-05
0.000101575
-3.48321e-05
0.000114101
-3.74741e-05
0.000127336
-3.60194e-05
0.000141166
-3.09292e-05
0.00015433
-2.46486e-05
0.000158804
-1.40444e-05
0.000154944
-1.41709e-06
0.000142169
5.0325e-05
0.000100664
0.000145564
0.000255259
4.7434e-06
-1.89922e-05
1.04509e-05
-2.30737e-05
1.5992e-05
-2.23608e-05
2.15476e-05
-2.23928e-05
2.72849e-05
-2.31391e-05
3.32883e-05
-2.423e-05
3.96216e-05
-2.5587e-05
4.63595e-05
-2.72252e-05
5.35842e-05
-2.92355e-05
6.13789e-05
-3.15487e-05
6.99175e-05
-3.44238e-05
7.92747e-05
-3.7684e-05
8.9482e-05
-4.13721e-05
0.000100881
-4.62306e-05
0.000113751
-5.03442e-05
0.000128222
-5.0491e-05
0.000143944
-4.6651e-05
0.000158125
-3.88296e-05
0.000161206
-1.71256e-05
0.000148401
1.1388e-05
0.000128274
7.04523e-05
9.45566e-05
0.000179281
0.000349816
4.72663e-06
-2.37188e-05
1.037e-05
-2.87172e-05
1.58516e-05
-2.78424e-05
2.1354e-05
-2.78952e-05
2.70354e-05
-2.88204e-05
3.29765e-05
-3.01711e-05
3.92389e-05
-3.18494e-05
4.58984e-05
-3.38846e-05
5.30326e-05
-3.63697e-05
6.07315e-05
-3.92476e-05
6.91787e-05
-4.2871e-05
7.84364e-05
-4.69417e-05
8.85645e-05
-5.15002e-05
0.000100002
-5.76686e-05
0.000113503
-6.38445e-05
0.000129814
-6.68019e-05
0.000147953
-6.47906e-05
0.000158847
-4.97235e-05
0.000153336
-1.16145e-05
0.000137683
2.70412e-05
0.00010593
0.000102205
8.62309e-05
0.00019898
0.000436046
4.70459e-06
-2.84234e-05
1.02719e-05
-3.42844e-05
1.56819e-05
-3.32524e-05
2.11204e-05
-3.33338e-05
2.6736e-05
-3.4436e-05
3.26049e-05
-3.60399e-05
3.87862e-05
-3.80308e-05
4.5357e-05
-4.04554e-05
5.23907e-05
-4.34034e-05
5.99812e-05
-4.68381e-05
6.83252e-05
-5.1215e-05
7.74785e-05
-5.6095e-05
8.75107e-05
-6.15323e-05
9.89226e-05
-6.90805e-05
0.0001131
-7.80219e-05
0.00013121
-8.49121e-05
0.000151777
-8.53577e-05
0.000145484
-4.34305e-05
0.000127698
6.17184e-06
0.000105211
4.95285e-05
8.56871e-05
0.000121729
6.17312e-05
0.000222936
0.000497778
4.68286e-06
-3.31063e-05
1.01594e-05
-3.9761e-05
1.54873e-05
-3.85803e-05
2.08545e-05
-3.8701e-05
2.63977e-05
-3.99791e-05
3.21868e-05
-4.1829e-05
3.82797e-05
-4.41238e-05
4.47519e-05
-4.69276e-05
5.16762e-05
-5.03276e-05
5.9148e-05
-5.431e-05
6.73626e-05
-5.94296e-05
7.63596e-05
-6.5092e-05
8.62175e-05
-7.13903e-05
9.75024e-05
-8.03653e-05
0.000112012
-9.25319e-05
0.000130891
-0.000103791
0.000142435
-9.69016e-05
0.000127505
-2.85006e-05
0.000101733
3.1944e-05
7.87689e-05
7.24927e-05
6.53039e-05
0.000135194
5.13245e-05
0.000236915
0.000549102
4.66162e-06
-3.77679e-05
1.00258e-05
-4.51251e-05
1.52616e-05
-4.38162e-05
2.05476e-05
-4.39869e-05
2.60064e-05
-4.5438e-05
3.17017e-05
-4.75243e-05
3.76887e-05
-5.01108e-05
4.40409e-05
-5.32798e-05
5.0825e-05
-5.71117e-05
5.81453e-05
-6.16303e-05
6.61804e-05
-6.74647e-05
7.49138e-05
-7.38254e-05
8.44371e-05
-8.09136e-05
9.55258e-05
-9.1454e-05
0.000109923
-0.000106929
0.000128648
-0.000122516
0.000128965
-9.72187e-05
0.000111319
-1.08549e-05
8.47012e-05
5.85619e-05
5.95725e-05
9.76216e-05
4.53295e-05
0.000149437
3.6561e-05
0.000245684
0.000585663
9.88312e-07
-9.88312e-07
4.6871e-06
-3.69887e-06
7.9544e-06
-3.26719e-06
1.01497e-05
-2.19529e-06
1.13376e-05
-1.18788e-06
1.1739e-05
-4.01169e-07
1.15852e-05
1.53602e-07
1.10729e-05
5.125e-07
1.03338e-05
7.38827e-07
9.45083e-06
8.83247e-07
8.47846e-06
9.72282e-07
7.45391e-06
1.0246e-06
6.4008e-06
1.05305e-06
5.33409e-06
1.06663e-06
4.26288e-06
1.0712e-06
3.19168e-06
1.07107e-06
2.12288e-06
1.06878e-06
1.05742e-06
1.06537e-06
1.0574e-06
9.26986e-07
-1.91518e-06
4.96786e-06
-7.73981e-06
8.50536e-06
-6.80459e-06
1.08229e-05
-4.51258e-06
1.20523e-05
-2.4175e-06
1.24993e-05
-8.47721e-07
1.24028e-05
2.49601e-07
1.19042e-05
1.01162e-06
1.11321e-05
1.51057e-06
1.01885e-05
1.82714e-06
9.14069e-06
2.01994e-06
8.03367e-06
2.13156e-06
6.89561e-06
2.19103e-06
5.74378e-06
2.21827e-06
4.5884e-06
2.22656e-06
3.43432e-06
2.22495e-06
2.28373e-06
2.21933e-06
1.13602e-06
2.21305e-06
2.1934e-06
5.69214e-07
-2.48428e-06
4.95684e-06
-1.21275e-05
8.80532e-06
-1.0653e-05
1.11758e-05
-6.88283e-06
1.23329e-05
-3.57486e-06
1.26729e-05
-1.18728e-06
1.24643e-05
4.57872e-07
1.18877e-05
1.58856e-06
1.10723e-05
2.32577e-06
1.01083e-05
2.79125e-06
9.0546e-06
3.07354e-06
7.95034e-06
3.23574e-06
6.8202e-06
3.32113e-06
5.67913e-06
3.35918e-06
4.536e-06
3.36968e-06
3.39485e-06
3.36593e-06
2.25741e-06
3.35673e-06
1.12309e-06
3.34737e-06
3.31647e-06
-4.96369e-09
-2.47923e-06
4.86394e-06
-1.69963e-05
9.29001e-06
-1.50791e-05
1.17325e-05
-9.32503e-06
1.2766e-05
-4.60865e-06
1.29738e-05
-1.39466e-06
1.26592e-05
7.72139e-07
1.20047e-05
2.24337e-06
1.11364e-05
3.19382e-06
1.01386e-05
3.78918e-06
9.06437e-06
4.14767e-06
7.94847e-06
4.35158e-06
6.81251e-06
4.45707e-06
5.6693e-06
4.50223e-06
4.52633e-06
4.51263e-06
3.38676e-06
4.50536e-06
2.25171e-06
4.49175e-06
1.12032e-06
4.47875e-06
4.43676e-06
-1.31181e-06
-1.16736e-06
4.66376e-06
-2.29718e-05
1.00092e-05
-2.04245e-05
1.25283e-05
-1.18439e-05
1.33573e-05
-5.43786e-06
1.33776e-05
-1.41456e-06
1.29248e-05
1.22465e-06
1.21732e-05
2.99514e-06
1.12392e-05
4.12769e-06
1.0198e-05
4.83044e-06
9.09614e-06
5.24949e-06
7.96315e-06
5.4845e-06
6.81715e-06
5.60303e-06
5.66855e-06
5.65066e-06
4.52318e-06
5.65798e-06
3.38316e-06
5.64529e-06
2.24882e-06
5.62606e-06
1.11883e-06
5.6087e-06
5.55554e-06
-1.32678e-06
1.5945e-07
5.25693e-06
-2.95554e-05
1.11367e-05
-2.63043e-05
1.3585e-05
-1.42921e-05
1.41078e-05
-5.96083e-06
1.38756e-05
-1.18206e-06
1.32457e-05
1.85423e-06
1.23752e-05
3.86584e-06
1.13617e-05
5.14106e-06
1.02686e-05
5.92357e-06
9.13371e-06
6.38431e-06
7.98032e-06
6.63778e-06
6.82233e-06
6.76098e-06
5.66728e-06
6.80557e-06
4.51907e-06
6.80619e-06
3.37856e-06
6.78574e-06
2.24515e-06
6.75941e-06
1.1169e-06
6.73689e-06
6.67237e-06
2.6917e-06
-2.53223e-06
8.40504e-06
-3.52686e-05
1.29977e-05
-3.0897e-05
1.48714e-05
-1.61656e-05
1.49948e-05
-6.08433e-06
1.44528e-05
-6.39897e-07
1.36124e-05
2.69444e-06
1.26033e-05
4.87507e-06
1.14989e-05
6.24544e-06
1.03469e-05
7.07559e-06
9.17469e-06
7.5564e-06
7.99838e-06
7.81397e-06
6.82697e-06
7.93235e-06
5.6648e-06
7.96765e-06
4.51355e-06
7.95744e-06
3.37268e-06
7.92655e-06
2.24054e-06
7.89145e-06
1.11448e-06
7.86285e-06
7.78679e-06
7.50333e-06
-1.00355e-05
1.30323e-05
-4.07974e-05
1.55585e-05
-3.34231e-05
1.63399e-05
-1.69468e-05
1.59567e-05
-5.70127e-06
1.50864e-05
2.30535e-07
1.40124e-05
3.76838e-06
1.28498e-05
6.03773e-06
1.16458e-05
7.4494e-06
1.04298e-05
8.2916e-06
9.21729e-06
8.76882e-06
8.0163e-06
9.01486e-06
6.83054e-06
9.1181e-06
5.66085e-06
9.13731e-06
4.50652e-06
9.11176e-06
3.36546e-06
9.06753e-06
2.23498e-06
9.02184e-06
1.11159e-06
8.98615e-06
8.89834e-06
9.7231e-06
-4.7491e-05
2.0783e-05
-5.6185e-05
3.15321e-05
-5.45654e-05
4.24239e-05
-5.48787e-05
5.36725e-05
-5.66865e-05
6.53774e-05
-5.92292e-05
7.76509e-05
-6.23843e-05
9.06107e-05
-6.62396e-05
0.00010443
-7.09308e-05
0.000119267
-7.64673e-05
0.000135421
-8.36186e-05
0.00015287
-9.12747e-05
0.000172461
-0.000100504
0.000196611
-0.000115604
0.000224956
-0.000135275
0.000245714
-0.000143274
0.000217199
-6.87037e-05
0.000164818
4.15265e-05
0.00011407
0.000109309
7.38912e-05
0.000137801
5.41205e-05
0.000169209
6.94375e-05
0.000230367
0.000475235
0.000179866
9.45024e-06
-5.69412e-05
1.98823e-05
-6.66171e-05
3.00645e-05
-6.47475e-05
4.04141e-05
-6.52283e-05
5.10827e-05
-6.73552e-05
6.2142e-05
-7.02885e-05
7.36798e-05
-7.39221e-05
8.5799e-05
-7.83588e-05
9.86179e-05
-8.37497e-05
0.000112281
-9.01304e-05
0.000126997
-9.83341e-05
0.000142569
-0.000106848
0.00016016
-0.000118095
0.000182096
-0.000137539
0.000206245
-0.000159424
0.000194945
-0.000131974
0.000145116
-1.8874e-05
9.04149e-05
9.62278e-05
5.65438e-05
0.00014318
3.90475e-05
0.000155297
3.89157e-05
0.000169341
7.01756e-05
0.000199107
0.000342282
0.000203129
9.10169e-06
-6.60429e-05
1.88296e-05
-7.63451e-05
2.83693e-05
-7.42872e-05
3.80993e-05
-7.49583e-05
4.81017e-05
-7.73576e-05
5.84194e-05
-8.06063e-05
6.91179e-05
-8.46205e-05
8.02737e-05
-8.95146e-05
9.19579e-05
-9.5434e-05
0.000104274
-0.000102446
0.000117318
-0.000111379
0.000130777
-0.000120307
0.000146232
-0.00013355
0.000164128
-0.000155435
0.000174437
-0.000169733
0.00014706
-0.000104597
8.2615e-05
4.55702e-05
4.48794e-05
0.000133964
3.31075e-05
0.000154953
3.17823e-05
0.000156622
3.92933e-05
0.00016183
6.2852e-05
0.000175548
0.000234547
0.000170588
8.67462e-06
-7.47175e-05
1.76418e-05
-8.53123e-05
2.64879e-05
-8.31332e-05
3.5535e-05
-8.40054e-05
4.48013e-05
-8.66239e-05
5.43049e-05
-9.01098e-05
6.40892e-05
-9.44049e-05
7.42013e-05
-9.96267e-05
8.46703e-05
-0.000105903
9.55499e-05
-0.000113326
0.00010681
-0.000122639
0.000118124
-0.000131621
0.000131333
-0.000146758
0.000144968
-0.00016907
0.000143418
-0.000168182
9.19567e-05
-5.31361e-05
3.93362e-05
9.81905e-05
2.42741e-05
0.000149026
2.70655e-05
0.000152162
3.30588e-05
0.000150629
4.25145e-05
0.000152374
6.17e-05
0.000156362
0.000169942
0.000126305
8.17738e-06
-8.28949e-05
1.63447e-05
-9.34796e-05
2.4463e-05
-9.12515e-05
3.27808e-05
-9.23232e-05
4.12618e-05
-9.51048e-05
4.99046e-05
-9.87526e-05
5.87333e-05
-0.000103234
6.77673e-05
-0.000108661
7.70008e-05
-0.000115136
8.64452e-05
-0.00012277
9.59603e-05
-0.000132154
0.000105309
-0.000140969
0.000116187
-0.000157637
0.000125171
-0.000178054
0.000105356
-0.000148367
4.54838e-05
6.73647e-06
1.61234e-05
0.000127551
1.82216e-05
0.000146927
2.66304e-05
0.000143753
3.51807e-05
0.000142078
4.5904e-05
0.000141651
6.21032e-05
0.000140163
0.000138213
9.38325e-05
7.61864e-06
-9.05136e-05
1.49645e-05
-0.000100826
2.23348e-05
-9.86218e-05
2.98922e-05
-9.98805e-05
3.75577e-05
-0.00010277
4.53165e-05
-0.000106511
5.31762e-05
-0.000111093
6.11336e-05
-0.000116618
6.91581e-05
-0.000123161
7.72314e-05
-0.000130843
8.51483e-05
-0.000140071
9.28594e-05
-0.00014868
0.000101332
-0.00016611
0.000105158
-0.000181879
7.91348e-05
-0.000122345
2.27393e-05
6.31318e-05
1.02634e-05
0.000140027
1.81487e-05
0.000139042
2.68078e-05
0.000135094
3.53657e-05
0.000133521
4.53869e-05
0.00013163
5.75176e-05
0.000128033
0.000122269
7.34614e-05
7.00857e-06
-9.75221e-05
1.35276e-05
-0.000107345
2.01411e-05
-0.000105235
2.6921e-05
-0.00010666
3.3758e-05
-0.000109607
4.0629e-05
-0.000113382
4.75286e-05
-0.000117993
5.44372e-05
-0.000123527
6.13091e-05
-0.000130033
6.81083e-05
-0.000137642
7.46064e-05
-0.00014657
8.09404e-05
-0.000155014
8.72435e-05
-0.000172413
8.85451e-05
-0.00018318
5.09979e-05
-8.47973e-05
9.6403e-06
0.000104489
9.75927e-06
0.000139908
1.84011e-05
0.0001304
2.57842e-05
0.000127711
3.33284e-05
0.000125976
4.16811e-05
0.000123277
5.07231e-05
0.000118991
0.000112477
6.05156e-05
6.36033e-06
-0.000103882
1.20586e-05
-0.000113043
1.79158e-05
-0.000111092
2.39128e-05
-0.000112657
2.99222e-05
-0.000115617
3.59163e-05
-0.000119377
4.18801e-05
-0.000123957
4.77828e-05
-0.000129429
5.35721e-05
-0.000135822
5.92018e-05
-0.000143272
6.44485e-05
-0.000151816
6.95783e-05
-0.000160144
7.41928e-05
-0.000177027
7.34805e-05
-0.000182468
1.77796e-05
-2.90963e-05
-1.65515e-06
0.000123924
9.75724e-06
0.000128496
1.73614e-05
0.000122796
2.3752e-05
0.00012132
3.02839e-05
0.000119444
3.70939e-05
0.000116467
4.40396e-05
0.000112045
0.000105763
5.07529e-05
5.68677e-06
-0.000109569
1.05802e-05
-0.000117936
1.56885e-05
-0.000116201
2.09073e-05
-0.000117876
2.61008e-05
-0.00012081
3.12395e-05
-0.000124515
3.63013e-05
-0.000129018
4.12486e-05
-0.000134377
4.60279e-05
-0.000140601
5.05867e-05
-0.000147831
5.47312e-05
-0.000155961
5.87794e-05
-0.000164192
6.19374e-05
-0.000180185
5.73157e-05
-0.000177846
-1.85536e-06
3.00747e-05
-4.6516e-06
0.00012672
8.94426e-06
0.0001149
1.5843e-05
0.000115898
2.16175e-05
0.000115546
2.71269e-05
0.000113935
3.2534e-05
0.00011106
3.77706e-05
0.000106809
0.000101061
4.24735e-05
5.00003e-06
-0.000114569
9.11033e-06
-0.000122046
1.34827e-05
-0.000120573
1.79356e-05
-0.000122329
2.23326e-05
-0.000125207
2.66442e-05
-0.000128827
3.08434e-05
-0.000133218
3.48899e-05
-0.000138423
3.87318e-05
-0.000144443
4.23106e-05
-0.00015141
4.54795e-05
-0.00015913
4.84659e-05
-0.000167179
5.05844e-05
-0.000182304
3.76324e-05
-0.000164894
-3.85096e-06
7.1558e-05
2.54745e-06
0.000120322
9.70759e-06
0.00010774
1.53577e-05
0.000110248
1.99665e-05
0.000110937
2.4187e-05
0.000109715
2.82154e-05
0.000107032
3.20154e-05
0.000103009
9.77383e-05
3.53376e-05
4.30856e-06
-0.000118878
7.66264e-06
-0.000125401
1.13162e-05
-0.000124227
1.50206e-05
-0.000126033
1.86455e-05
-0.000128832
2.21629e-05
-0.000132344
2.55431e-05
-0.000136598
2.87477e-05
-0.000141628
3.17312e-05
-0.000147427
3.44204e-05
-0.000154099
3.67102e-05
-0.00016142
3.85635e-05
-0.000169032
4.04604e-05
-0.000184201
1.48998e-05
-0.000139334
-3.7236e-07
8.68305e-05
9.14721e-06
0.000110802
1.27094e-05
0.000104178
1.59096e-05
0.000107047
1.87699e-05
0.000108077
2.14887e-05
0.000106996
2.41675e-05
0.000104353
2.67549e-05
0.000100421
9.54363e-05
2.90568e-05
3.6292e-06
-0.000122507
6.26618e-06
-0.000128038
9.22844e-06
-0.000127189
1.2214e-05
-0.000129019
1.51066e-05
-0.000131725
1.78774e-05
-0.000135115
2.04946e-05
-0.000139215
2.29185e-05
-0.000144052
2.51125e-05
-0.000149621
2.69342e-05
-0.000155921
2.82393e-05
-0.000162725
2.86916e-05
-0.000169484
2.93991e-05
-0.000184908
3.86848e-06
-0.000113803
4.24281e-06
8.64562e-05
1.35518e-05
0.000101493
1.55369e-05
0.000102193
1.66854e-05
0.000105899
1.77011e-05
0.000107061
1.88526e-05
0.000105844
2.02448e-05
0.000102961
2.17938e-05
9.88724e-05
9.39249e-05
2.33052e-05
2.99637e-06
-0.000125503
4.97028e-06
-0.000130011
7.29823e-06
-0.000129517
9.62558e-06
-0.000131346
1.18534e-05
-0.000133953
1.39475e-05
-0.000137209
1.58672e-05
-0.000141135
1.75543e-05
-0.000145739
1.89629e-05
-0.000151029
1.97862e-05
-0.000156744
1.96326e-05
-0.000162571
1.85944e-05
-0.000168446
1.51089e-05
-0.000181423
-5.56361e-06
-9.31305e-05
8.99292e-06
7.18996e-05
1.93307e-05
9.11557e-05
1.91078e-05
0.000102416
1.76638e-05
0.000107343
1.65156e-05
0.00010821
1.60119e-05
0.000106348
1.61944e-05
0.000102779
1.68763e-05
9.81906e-05
9.29994e-05
1.78019e-05
2.40971e-06
-0.000127913
3.7704e-06
-0.000131372
5.53198e-06
-0.000131279
7.26551e-06
-0.00013308
8.87923e-06
-0.000135566
1.03299e-05
-0.00013866
1.15573e-05
-0.000142362
1.24707e-05
-0.000146652
1.29874e-05
-0.000151546
1.28931e-05
-0.00015665
1.15851e-05
-0.000161263
1.17923e-05
-0.000168653
2.06204e-06
-0.000171692
7.78652e-06
-9.88551e-05
3.26587e-05
4.70276e-05
3.08336e-05
9.29808e-05
2.42938e-05
0.000108956
1.87238e-05
0.000112913
1.4805e-05
0.000112128
1.25632e-05
0.00010859
1.16815e-05
0.00010366
1.1723e-05
9.81491e-05
9.24281e-05
1.22942e-05
1.76839e-06
-0.000129681
2.51384e-06
-0.000132118
3.68917e-06
-0.000132454
4.79089e-06
-0.000134182
5.72523e-06
-0.000136501
6.43862e-06
-0.000139373
6.85895e-06
-0.000142782
6.91005e-06
-0.000146703
6.48369e-06
-0.00015112
6.56471e-06
-0.000156731
8.25325e-06
-0.000162951
1.83228e-05
-0.000178723
1.92472e-05
-0.000172617
6.34359e-05
-0.000143044
7.98513e-05
3.06122e-05
5.38145e-05
0.000119018
3.10703e-05
0.0001317
1.8841e-05
0.000125142
1.16527e-05
0.000119317
7.85938e-06
0.000112383
6.27055e-06
0.000105249
6.03633e-06
9.83832e-05
9.1905e-05
6.5594e-06
7.68426e-07
-0.00013045
7.57715e-07
-0.000132107
1.10246e-06
-0.000132799
1.28026e-06
-0.000134359
1.24754e-06
-0.000136468
9.97237e-07
-0.000139123
5.21813e-07
-0.000142307
8.75665e-08
-0.000146269
1.49367e-07
-0.000151182
3.70097e-06
-0.000160282
1.71311e-05
-0.000176382
3.68784e-05
-0.00019847
6.32436e-05
-0.000198982
7.71965e-05
-0.000156997
0.000117454
-9.64587e-06
7.17041e-05
0.000164768
3.3499e-05
0.000169905
1.48086e-05
0.000143832
5.30685e-06
0.000128818
1.04971e-06
0.00011664
-4.2318e-07
0.000106722
-3.95144e-07
9.83551e-05
9.10654e-05
4.44478e-07
-1.02342e-06
-0.000129426
-2.59306e-06
-0.000130537
-3.83218e-06
-0.00013156
-5.39038e-06
-0.000132801
-7.04316e-06
-0.000134815
-8.44721e-06
-0.000137719
-9.42987e-06
-0.000141324
-8.58737e-06
-0.000147112
-9.72365e-07
-0.000158797
1.55922e-05
-0.000176847
5.10081e-05
-0.000211797
6.45696e-05
-0.000212031
7.41873e-05
-0.0002086
6.19698e-05
-0.000144779
8.75435e-05
-3.52196e-05
5.28665e-05
0.000199445
1.92923e-05
0.000203479
1.08463e-06
0.00016204
-6.16995e-06
0.000136073
-8.72395e-06
0.000119194
-8.88671e-06
0.000106884
-7.78901e-06
9.72574e-05
8.93923e-05
-6.11589e-06
-2.91626e-06
-0.00012651
-6.23513e-06
-0.000127219
-9.12237e-06
-0.000128672
-1.17784e-05
-0.000130145
-1.35493e-05
-0.000133045
-1.4021e-05
-0.000137247
-1.22985e-05
-0.000143047
-6.35098e-06
-0.000153059
4.80491e-06
-0.000169952
2.45637e-05
-0.000196606
4.92234e-05
-0.000236457
7.32953e-05
-0.000236103
5.96809e-05
-0.000194985
2.08088e-05
-0.000105907
-8.67769e-06
-5.7331e-06
-1.4938e-05
0.000205705
-2.119e-05
0.000209731
-2.33327e-05
0.000164183
-2.30334e-05
0.000135774
-2.12823e-05
0.000117443
-1.87161e-05
0.000104318
-1.58341e-05
9.43753e-05
8.64976e-05
-1.29395e-05
-3.54941e-06
-0.00012296
-6.82726e-06
-0.000123941
-1.01059e-05
-0.000125394
-1.30188e-05
-0.000127231
-1.57263e-05
-0.000130337
-1.80403e-05
-0.000134933
-1.9261e-05
-0.000141826
-1.98784e-05
-0.000152442
-2.02599e-05
-0.000169571
-1.83401e-05
-0.000198526
-2.00233e-05
-0.000234774
-1.79736e-05
-0.000238153
-3.49322e-05
-0.000178027
-6.38935e-05
-7.69458e-05
-0.000105722
3.60956e-05
-9.49623e-05
0.000194945
-6.91513e-05
0.00018392
-5.29158e-05
0.000147948
-4.26812e-05
0.000125539
-3.51786e-05
0.000109941
-2.91138e-05
9.82535e-05
-2.40311e-05
8.92926e-05
8.21426e-05
-1.96761e-05
-4.24981e-06
-0.00011871
-8.06525e-06
-0.000120126
-1.22025e-05
-0.000121257
-1.62966e-05
-0.000123137
-2.06327e-05
-0.000126001
-2.53931e-05
-0.000130173
-3.11306e-05
-0.000136088
-3.92428e-05
-0.00014433
-5.16956e-05
-0.000157118
-7.14612e-05
-0.00017876
-0.000102175
-0.00020406
-0.000132306
-0.000208023
-0.000147996
-0.000162337
-0.000165112
-5.983e-05
-0.000191123
6.2107e-05
-0.000153814
0.000157636
-0.000106417
0.000136524
-7.81327e-05
0.000119663
-6.02683e-05
0.000107675
-4.78486e-05
9.7521e-05
-3.86852e-05
8.909e-05
-3.1578e-05
8.21854e-05
7.6408e-05
-2.58435e-05
-4.59562e-06
-0.000114114
-9.11006e-06
-0.000115611
-1.38803e-05
-0.000116486
-1.89523e-05
-0.000118065
-2.46126e-05
-0.00012034
-3.12734e-05
-0.000123512
-3.9663e-05
-0.000127699
-5.09486e-05
-0.000133044
-6.80479e-05
-0.000140019
-9.67649e-05
-0.000150044
-0.000138885
-0.00016194
-0.000185664
-0.000161243
-0.000224441
-0.000123561
-0.000240893
-4.33772e-05
-0.000226357
4.75707e-05
-0.000166924
9.82025e-05
-0.000120988
9.05884e-05
-9.19901e-05
9.0665e-05
-7.17213e-05
8.74061e-05
-5.70526e-05
8.28523e-05
-4.61361e-05
7.81735e-05
-3.77059e-05
7.37552e-05
6.96836e-05
-3.09815e-05
-5.03337e-06
-0.000109081
-1.0235e-05
-0.00011041
-1.56398e-05
-0.000111082
-2.15146e-05
-0.00011219
-2.81144e-05
-0.000113741
-3.58649e-05
-0.000115761
-4.53076e-05
-0.000118257
-5.72113e-05
-0.00012114
-7.3341e-05
-0.000123889
-9.74524e-05
-0.000125932
-0.000133226
-0.000126167
-0.000176927
-0.000117542
-0.000213136
-8.73518e-05
-0.000222062
-3.44516e-05
-0.000195213
2.07225e-05
-0.000150118
5.31072e-05
-0.000118677
5.91477e-05
-9.48931e-05
6.68809e-05
-7.63312e-05
6.88442e-05
-6.20114e-05
6.85324e-05
-5.08417e-05
6.70038e-05
-4.19768e-05
6.48902e-05
6.25086e-05
-3.48018e-05
-5.34764e-06
-0.000103733
-1.0891e-05
-0.000104867
-1.66861e-05
-0.000105286
-2.29836e-05
-0.000105893
-3.00398e-05
-0.000106684
-3.82161e-05
-0.000107585
-4.79788e-05
-0.000108494
-5.99737e-05
-0.000109145
-7.49973e-05
-0.000108866
-9.40531e-05
-0.000106876
-0.000118394
-0.000101826
-0.000146369
-8.95674e-05
-0.000168556
-6.51644e-05
-0.000172474
-3.05335e-05
-0.00015431
2.55813e-06
-0.000128468
2.72654e-05
-0.000109012
3.96921e-05
-9.11815e-05
4.90503e-05
-7.59622e-05
5.36249e-05
-6.33516e-05
5.59217e-05
-5.29552e-05
5.66073e-05
-4.43763e-05
5.63113e-05
5.53801e-05
-3.72477e-05
-5.54297e-06
-9.81901e-05
-1.12526e-05
-9.91567e-05
-1.7252e-05
-9.92868e-05
-2.3705e-05
-9.94398e-05
-3.08396e-05
-9.95495e-05
-3.8916e-05
-9.95082e-05
-4.82631e-05
-9.91472e-05
-5.92889e-05
-9.81194e-05
-7.22777e-05
-9.5877e-05
-8.72458e-05
-9.19083e-05
-0.000104002
-8.50694e-05
-0.00012088
-7.269e-05
-0.000133048
-5.29962e-05
-0.000134941
-2.86403e-05
-0.000126803
-5.57941e-06
-0.000112337
1.27985e-05
-9.86241e-05
2.59797e-05
-8.50864e-05
3.55126e-05
-7.29475e-05
4.14859e-05
-6.22887e-05
4.52628e-05
-5.30836e-05
4.74022e-05
-4.51945e-05
4.84222e-05
4.8637e-05
-3.84515e-05
-5.58686e-06
-9.26034e-05
-1.13156e-05
-9.34279e-05
-1.73167e-05
-9.32858e-05
-2.37081e-05
-9.30483e-05
-3.06597e-05
-9.2598e-05
-3.83496e-05
-9.18183e-05
-4.69707e-05
-9.0526e-05
-5.6682e-05
-8.84082e-05
-6.75153e-05
-8.50435e-05
-7.94264e-05
-7.99972e-05
-9.20041e-05
-7.24916e-05
-0.000103445
-6.12487e-05
-0.000110652
-4.57892e-05
-0.000111495
-2.77973e-05
-0.000106758
-1.03166e-05
-9.84307e-05
4.47094e-06
-8.86772e-05
1.62261e-05
-7.84428e-05
2.52782e-05
-6.87441e-05
3.1787e-05
-5.98435e-05
3.63622e-05
-5.18705e-05
3.94292e-05
-4.48177e-05
4.13694e-05
4.24538e-05
-3.86346e-05
-5.50484e-06
-8.70984e-05
-1.11471e-05
-8.77854e-05
-1.69929e-05
-8.744e-05
-2.31585e-05
-8.68826e-05
-2.97524e-05
-8.60037e-05
-3.6885e-05
-8.46859e-05
-4.46535e-05
-8.27576e-05
-5.30901e-05
-7.99716e-05
-6.20981e-05
-7.60354e-05
-7.14727e-05
-7.06225e-05
-8.07399e-05
-6.32245e-05
-8.87285e-05
-5.32601e-05
-9.37322e-05
-4.07855e-05
-9.46192e-05
-2.69104e-05
-9.17136e-05
-1.32223e-05
-8.61542e-05
-1.08841e-06
-7.92368e-05
9.30863e-06
-7.15885e-05
1.76299e-05
-6.3912e-05
2.41105e-05
-5.65687e-05
2.90189e-05
-4.97631e-05
3.26236e-05
-4.35722e-05
3.51784e-05
3.69e-05
-3.80185e-05
-5.31018e-06
-8.17881e-05
-1.07573e-05
-8.2338e-05
-1.63434e-05
-8.18536e-05
-2.2172e-05
-8.10546e-05
-2.83075e-05
-7.98678e-05
-3.48071e-05
-7.81864e-05
-4.16979e-05
-7.58669e-05
-4.89441e-05
-7.27254e-05
-5.64208e-05
-6.85587e-05
-6.39044e-05
-6.31391e-05
-7.09443e-05
-5.61847e-05
-7.67242e-05
-4.74802e-05
-8.03088e-05
-3.7201e-05
-8.1166e-05
-2.60532e-05
-7.94063e-05
-1.4982e-05
-7.57287e-05
-4.76609e-06
-7.06537e-05
4.23366e-06
-6.48589e-05
1.18352e-05
-5.8802e-05
1.80537e-05
-5.27995e-05
2.30165e-05
-4.70607e-05
2.68847e-05
-4.17029e-05
2.98206e-05
3.19883e-05
-3.67913e-05
-5.0391e-06
-7.67491e-05
-1.01965e-05
-7.71808e-05
-1.54547e-05
-7.65954e-05
-2.08796e-05
-7.563e-05
-2.6509e-05
-7.42383e-05
-3.23623e-05
-7.23332e-05
-3.84267e-05
-6.98025e-05
-4.46368e-05
-6.65153e-05
-5.08601e-05
-6.23354e-05
-5.68801e-05
-5.71192e-05
-6.23374e-05
-5.07275e-05
-6.67034e-05
-4.31142e-05
-6.94364e-05
-3.44681e-05
-7.02411e-05
-2.52486e-05
-6.91818e-05
-1.60414e-05
-6.66126e-05
-7.33531e-06
-6.29108e-05
5.3195e-07
-5.84866e-05
7.41098e-06
-5.36948e-05
1.3262e-05
-4.88015e-05
1.81232e-05
-4.39963e-05
2.20796e-05
-3.94051e-05
2.52294e-05
2.76946e-05
-3.51114e-05
-4.72227e-06
-7.20267e-05
-9.52831e-06
-7.23749e-05
-1.44119e-05
-7.17119e-05
-1.93987e-05
-7.06431e-05
-2.45074e-05
-6.91298e-05
-2.97336e-05
-6.71071e-05
-3.50439e-05
-6.44923e-05
-4.03632e-05
-6.1196e-05
-4.55672e-05
-5.71315e-05
-5.04684e-05
-5.2218e-05
-5.47945e-05
-4.64013e-05
-5.8202e-05
-3.97068e-05
-6.03693e-05
-3.23009e-05
-6.11233e-05
-2.44947e-05
-6.04977e-05
-1.6667e-05
-5.86767e-05
-9.15637e-06
-5.59376e-05
-2.20709e-06
-5.25354e-05
4.0088e-06
-4.8734e-05
9.46067e-06
-4.47473e-05
1.41366e-05
-4.07398e-05
1.80721e-05
-3.68313e-05
2.1321e-05
2.39728e-05
-3.31094e-05
-4.37615e-06
-6.76505e-05
-8.80245e-06
-6.79486e-05
-1.32833e-05
-6.7231e-05
-1.78196e-05
-6.61069e-05
-2.24143e-05
-6.45353e-05
-2.705e-05
-6.24712e-05
-3.16844e-05
-5.98579e-05
-3.62432e-05
-5.66372e-05
-4.06164e-05
-5.27583e-05
-4.4651e-05
-4.81833e-05
-4.81478e-05
-4.29046e-05
-5.08802e-05
-3.69745e-05
-5.26502e-05
-3.05311e-05
-5.33521e-05
-2.37929e-05
-5.30011e-05
-1.7018e-05
-5.1706e-05
-1.04515e-05
-4.96471e-05
-4.26596e-06
-4.70124e-05
1.37407e-06
-4.3986e-05
6.43435e-06
-4.07375e-05
1.08881e-05
-3.7404e-05
1.47386e-05
-3.40928e-05
1.80097e-05
2.07677e-05
-3.08876e-05
-4.00802e-06
-6.36427e-05
-8.04593e-06
-6.39106e-05
-1.2113e-05
-6.31639e-05
-1.62012e-05
-6.20188e-05
-2.03018e-05
-6.04346e-05
-2.43911e-05
-5.83819e-05
-2.84244e-05
-5.58246e-05
-3.23335e-05
-5.27281e-05
-3.60252e-05
-4.90667e-05
-3.93789e-05
-4.48296e-05
-4.225e-05
-4.00335e-05
-4.4487e-05
-3.47376e-05
-4.59635e-05
-2.90546e-05
-4.66117e-05
-2.31447e-05
-4.64374e-05
-1.71924e-05
-4.55139e-05
-1.13751e-05
-4.39443e-05
-5.83558e-06
-4.18979e-05
-6.7233e-07
-3.94793e-05
4.01579e-06
-3.68303e-05
8.23923e-06
-3.40628e-05
1.1971e-05
-3.12687e-05
1.52157e-05
1.80228e-05
-2.85239e-05
-3.62451e-06
-6.00184e-05
-7.27354e-06
-6.02614e-05
-1.09285e-05
-5.95091e-05
-1.45808e-05
-5.83664e-05
-1.82146e-05
-5.68007e-05
-2.18029e-05
-5.47937e-05
-2.53028e-05
-5.23248e-05
-2.86545e-05
-4.93765e-05
-3.1781e-05
-4.59401e-05
-3.45892e-05
-4.20215e-05
-3.69741e-05
-3.76487e-05
-3.88321e-05
-3.28797e-05
-4.00799e-05
-2.78067e-05
-4.06732e-05
-2.25515e-05
-4.06157e-05
-1.725e-05
-3.99555e-05
-1.20353e-05
-3.8766e-05
-7.02518e-06
-3.71523e-05
-2.28593e-06
-3.52156e-05
2.07912e-06
-3.30554e-05
6.07901e-06
-3.07623e-05
9.67791e-06
-2.84138e-05
1.28671e-05
1.56846e-05
-2.60756e-05
-3.23557e-06
-5.67828e-05
-6.49823e-06
-5.69987e-05
-9.75054e-06
-5.62568e-05
-1.29845e-05
-5.51324e-05
-1.61807e-05
-5.36047e-05
-1.9311e-05
-5.16636e-05
-2.23363e-05
-4.92995e-05
-2.52058e-05
-4.6507e-05
-2.78572e-05
-4.32887e-05
-3.02188e-05
-3.966e-05
-3.22142e-05
-3.56534e-05
-3.37713e-05
-3.13226e-05
-3.48341e-05
-2.6744e-05
-3.53732e-05
-2.20125e-05
-3.53908e-05
-1.72325e-05
-3.49187e-05
-1.25074e-05
-3.40138e-05
-7.93011e-06
-3.27347e-05
-3.56502e-06
-3.11847e-05
5.29153e-07
-2.94245e-05
4.31881e-06
-2.75295e-05
7.78286e-06
-2.55642e-05
1.09019e-05
1.37041e-05
-2.35836e-05
-2.8518e-06
-5.39309e-05
-5.73313e-06
-5.41175e-05
-8.5959e-06
-5.33941e-05
-1.1431e-05
-5.22973e-05
-1.42175e-05
-5.08184e-05
-1.69282e-05
-4.8953e-05
-1.95286e-05
-4.66991e-05
-2.19762e-05
-4.40594e-05
-2.42211e-05
-4.10439e-05
-2.62084e-05
-3.76728e-05
-2.78823e-05
-3.39796e-05
-2.91918e-05
-3.00131e-05
-3.00984e-05
-2.58375e-05
-3.05821e-05
-2.15289e-05
-3.06447e-05
-1.71699e-05
-3.03096e-05
-1.28426e-05
-2.96178e-05
-8.62195e-06
-2.86137e-05
-4.56913e-06
-2.7371e-05
-7.13567e-07
-2.59373e-05
2.8852e-06
-2.43771e-05
6.22268e-06
-2.27419e-05
9.2668e-06
1.20384e-05
-2.10761e-05
-2.48009e-06
-5.14509e-05
-4.98891e-06
-5.16088e-05
-7.47679e-06
-5.09063e-05
-9.93215e-06
-4.98421e-05
-1.23344e-05
-4.84163e-05
-1.46585e-05
-4.66288e-05
-1.68746e-05
-4.44829e-05
-1.89478e-05
-4.19864e-05
-2.08385e-05
-3.91534e-05
-2.25048e-05
-3.60066e-05
-2.39054e-05
-3.2579e-05
-2.50042e-05
-2.89145e-05
-2.57741e-05
-2.50676e-05
-2.62018e-05
-2.11012e-05
-2.62893e-05
-1.70825e-05
-2.60537e-05
-1.30781e-05
-2.55254e-05
-9.15029e-06
-2.47411e-05
-5.35352e-06
-2.37435e-05
-1.71115e-06
-2.25838e-05
1.72558e-06
-2.13081e-05
4.94711e-06
-1.99588e-05
7.91766e-06
1.06507e-05
-1.85709e-05
-2.12343e-06
-4.93276e-05
-4.2714e-06
-4.94609e-05
-6.39897e-06
-4.87788e-05
-8.49243e-06
-4.77487e-05
-1.05328e-05
-4.6376e-05
-1.24981e-05
-4.46636e-05
-1.4363e-05
-4.26181e-05
-1.6099e-05
-4.02506e-05
-1.76751e-05
-3.75775e-05
-1.90594e-05
-3.46225e-05
-2.02215e-05
-3.14169e-05
-2.11354e-05
-2.80006e-05
-2.17822e-05
-2.44208e-05
-2.2153e-05
-2.07304e-05
-2.22499e-05
-1.69856e-05
-2.20861e-05
-1.3242e-05
-2.16841e-05
-9.5524e-06
-2.10739e-05
-5.96373e-06
-2.02789e-05
-2.50607e-06
-1.9351e-05
7.97829e-07
-1.83193e-05
3.91561e-06
-1.72196e-05
6.81805e-06
9.50998e-06
-1.60788e-05
-1.78131e-06
-4.75462e-05
-3.58077e-06
-4.76615e-05
-5.36139e-06
-4.69984e-05
-7.10898e-06
-4.60011e-05
-8.8069e-06
-4.46781e-05
-1.04364e-05
-4.30342e-05
-1.19765e-05
-4.10782e-05
-1.34044e-05
-3.88228e-05
-1.46961e-05
-3.62859e-05
-1.58276e-05
-3.3491e-05
-1.67766e-05
-3.0468e-05
-1.75242e-05
-2.72531e-05
-1.80573e-05
-2.38877e-05
-1.83701e-05
-2.04177e-05
-1.84647e-05
-1.68909e-05
-1.83514e-05
-1.33554e-05
-1.80474e-05
-9.85643e-06
-1.75755e-05