/*--------------------------------*- C++ -*----------------------------------*\
| =========                 |                                                 |
| \\      /  F ield         | OpenFOAM: The Open Source CFD Toolbox           |
|  \\    /   O peration     | Version:  5.x                                   |
|   \\  /    A nd           | Web:      www.OpenFOAM.org                      |
|    \\/     M anipulation  |                                                 |
\*---------------------------------------------------------------------------*/
FoamFile
{
    version     2.0;
    format      ascii;
    class       volVectorField;
    location    "0.1";
    object      U;
}
// * * * * * * * * * * * * * * * * * * * * * * * * * * * * * * * * * * * * * //

dimensions      [0 1 -1 0 0 0 0];

internalField   nonuniform List<vector> 
2268
(
(0.0267062 -0.0127996 0)
(0.0868263 -0.0157088 0)
(0.152216 -0.0151758 0)
(0.216716 -0.0151764 0)
(0.281797 -0.0156949 0)
(0.3495 -0.0164467 0)
(0.421004 -0.0173902 0)
(0.496377 -0.0184988 0)
(0.577815 -0.0199204 0)
(0.664576 -0.0215231 0)
(0.758773 -0.0232804 0)
(0.862026 -0.0254646 0)
(0.974157 -0.0286223 0)
(1.09901 -0.0326704 0)
(1.2386 -0.0346043 0)
(1.37752 -0.029234 0)
(1.48223 -0.0165737 0)
(1.53013 -0.00581562 0)
(1.54407 -0.00432626 0)
(1.5519 0.000812295 0)
(1.48303 0.0356484 0)
(1.03781 0.124305 0)
(0.44488 0.154244 0)
(0.0267027 -0.0383776 0)
(0.0868856 -0.0470028 0)
(0.152285 -0.0454691 0)
(0.21672 -0.0454948 0)
(0.281762 -0.0470431 0)
(0.34941 -0.0492928 0)
(0.420843 -0.052102 0)
(0.496061 -0.055437 0)
(0.57744 -0.0596363 0)
(0.66389 -0.0643917 0)
(0.757812 -0.0699375 0)
(0.861627 -0.0765928 0)
(0.974006 -0.0852904 0)
(1.0961 -0.0960617 0)
(1.23118 -0.101099 0)
(1.37324 -0.0881722 0)
(1.5064 -0.0580959 0)
(1.61743 -0.0333055 0)
(1.70229 -0.0371098 0)
(1.77991 -0.0255054 0)
(1.83485 0.125824 0)
(1.4448 0.454063 0)
(0.762885 0.615124 0)
(0.0266075 -0.0640445 0)
(0.086592 -0.0782012 0)
(0.15168 -0.0757187 0)
(0.215719 -0.0757838 0)
(0.280417 -0.0783402 0)
(0.347704 -0.0820717 0)
(0.418735 -0.086721 0)
(0.493454 -0.0922886 0)
(0.574357 -0.0991949 0)
(0.660158 -0.107083 0)
(0.753451 -0.116613 0)
(0.857112 -0.127624 0)
(0.969154 -0.140737 0)
(1.08946 -0.157423 0)
(1.22199 -0.167986 0)
(1.36572 -0.157012 0)
(1.51776 -0.127935 0)
(1.67628 -0.0985369 0)
(1.81841 -0.073396 0)
(1.82349 -0.0460473 0)
(1.76193 0.196358 0)
(1.61072 0.602978 0)
(0.920422 1.15914 0)
(0.0264954 -0.0896944 0)
(0.0861659 -0.109183 0)
(0.150769 -0.105786 0)
(0.214252 -0.105914 0)
(0.278461 -0.109459 0)
(0.345233 -0.114644 0)
(0.415689 -0.121099 0)
(0.489716 -0.128872 0)
(0.569903 -0.138443 0)
(0.654867 -0.149429 0)
(0.747242 -0.162994 0)
(0.850203 -0.178434 0)
(0.961675 -0.195988 0)
(1.08132 -0.218795 0)
(1.21347 -0.236596 0)
(1.36017 -0.232716 0)
(1.52666 -0.213226 0)
(1.70579 -0.185491 0)
(1.86862 -0.110512 0)
(1.84865 0.00755058 0)
(1.52622 0.261962 0)
(1.49613 0.785288 0)
(0.986982 1.57497 0)
(0.026365 -0.115227 0)
(0.0856002 -0.1398 0)
(0.149548 -0.135521 0)
(0.212324 -0.135745 0)
(0.275901 -0.140263 0)
(0.342009 -0.146867 0)
(0.411721 -0.155078 0)
(0.484872 -0.16501 0)
(0.564154 -0.177175 0)
(0.648021 -0.191203 0)
(0.739271 -0.208773 0)
(0.841314 -0.228686 0)
(0.951949 -0.251047 0)
(1.07074 -0.280629 0)
(1.20205 -0.307607 0)
(1.35399 -0.316594 0)
(1.54138 -0.307873 0)
(1.7514 -0.256792 0)
(1.87962 -0.0905751 0)
(1.73072 0.104159 0)
(1.3009 0.447397 0)
(1.1548 0.94658 0)
(1.08101 1.91173 0)
(0.0262327 -0.140592 0)
(0.0849231 -0.169946 0)
(0.148051 -0.164808 0)
(0.21 -0.165165 0)
(0.272838 -0.17064 0)
(0.338171 -0.178621 0)
(0.407021 -0.188531 0)
(0.479181 -0.200573 0)
(0.557452 -0.215246 0)
(0.640066 -0.23228 0)
(0.730055 -0.253844 0)
(0.831123 -0.278061 0)
(0.94102 -0.30523 0)
(1.05809 -0.342364 0)
(1.18507 -0.382889 0)
(1.34047 -0.413017 0)
(1.5454 -0.41224 0)
(1.80622 -0.277841 0)
(1.67027 -0.0215312 0)
(1.32699 0.220826 0)
(1.05728 0.673442 0)
(0.718703 1.16478 0)
(0.926699 2.51192 0)
(0.0261502 -0.16602 0)
(0.0841878 -0.199849 0)
(0.146312 -0.193882 0)
(0.207348 -0.194414 0)
(0.269375 -0.20084 0)
(0.333858 -0.210171 0)
(0.40175 -0.221747 0)
(0.472836 -0.23588 0)
(0.549987 -0.253015 0)
(0.631197 -0.273067 0)
(0.719771 -0.298725 0)
(0.819547 -0.327142 0)
(0.928155 -0.358704 0)
(1.04149 -0.403274 0)
(1.15939 -0.461751 0)
(1.31414 -0.516347 0)
(1.53247 -0.505892 0)
(1.72415 -0.194796 0)
(1.36769 0.116454 0)
(1.00232 0.345532 0)
(0.834705 0.726499 0)
(0.561939 1.31457 0)
(0.671476 2.97014 0)
(0.0261105 -0.191428 0)
(0.0833457 -0.229419 0)
(0.144263 -0.22268 0)
(0.204287 -0.223448 0)
(0.265387 -0.230825 0)
(0.328877 -0.24148 0)
(0.395627 -0.254697 0)
(0.465431 -0.270879 0)
(0.541176 -0.290467 0)
(0.620565 -0.3135 0)
(0.707304 -0.343246 0)
(0.805112 -0.375905 0)
(0.910933 -0.411785 0)
(1.01684 -0.463936 0)
(1.12375 -0.541091 0)
(1.27717 -0.614163 0)
(1.51181 -0.545954 0)
(1.54902 -0.117211 0)
(1.15566 0.235875 0)
(0.788699 0.459706 0)
(0.601611 0.776808 0)
(0.37055 1.35802 0)
(0.455279 3.15194 0)
(0.00228126 -0.00225421 0)
(0.0295828 -0.00860654 0)
(0.0729629 -0.0076045 0)
(0.104737 -0.00513629 0)
(0.12392 -0.00279299 0)
(0.13269 -0.000923418 0)
(0.133657 0.000378007 0)
(0.129589 0.00120878 0)
(0.122336 0.00173205 0)
(0.113 0.00206762 0)
(0.102371 0.00227594 0)
(0.0909537 0.00239997 0)
(0.0790841 0.00246909 0)
(0.0669801 0.00250348 0)
(0.0547756 0.00251648 0)
(0.0425466 0.00251818 0)
(0.0303319 0.00251448 0)
(0.0181557 0.00250765 0)
(0.00602224 0.00252696 0)
(0.000766804 -0.00698546 0)
(0.0299703 -0.0275167 0)
(0.0781036 -0.0243042 0)
(0.112072 -0.0162723 0)
(0.131933 -0.00879573 0)
(0.140938 -0.00308636 0)
(0.142778 0.000965209 0)
(0.139184 0.00370017 0)
(0.131752 0.00546535 0)
(0.121834 0.00658708 0)
(0.110396 0.00727298 0)
(0.0980589 0.00767244 0)
(0.0852229 0.00788753 0)
(0.0721425 0.00798817 0)
(0.0589693 0.00802068 0)
(0.0457862 0.0080176 0)
(0.0326319 0.00799935 0)
(0.0195261 0.00797657 0)
(0.00645312 0.00789808 0)
(-0.00406821 -0.0109273 0)
(0.0255936 -0.0476891 0)
(0.0804665 -0.0419898 0)
(0.116254 -0.027597 0)
(0.135691 -0.0146188 0)
(0.143628 -0.00507341 0)
(0.144053 0.00164682 0)
(0.139351 0.00627269 0)
(0.131259 0.00929116 0)
(0.121002 0.0111998 0)
(0.109429 0.0123588 0)
(0.0970819 0.0130265 0)
(0.0843119 0.0133796 0)
(0.0713409 0.0135388 0)
(0.0583005 0.0135846 0)
(0.0452619 0.0135716 0)
(0.0322566 0.0135355 0)
(0.019303 0.0134973 0)
(0.00637934 0.0133737 0)
(-0.0130674 -0.0133268 0)
(0.0175748 -0.0701323 0)
(0.0841755 -0.0617666 0)
(0.122955 -0.0392145 0)
(0.141466 -0.0199923 0)
(0.147766 -0.00642494 0)
(0.146822 0.00291565 0)
(0.141089 0.00925967 0)
(0.13226 0.0133745 0)
(0.12152 0.0159609 0)
(0.109644 0.0175233 0)
(0.0971187 0.0184159 0)
(0.0842524 0.0188813 0)
(0.071238 0.0190844 0)
(0.0581874 0.0191356 0)
(0.0451595 0.0191089 0)
(0.0321771 0.0190536 0)
(0.0192546 0.0189992 0)
(0.00636424 0.0188223 0)
(-0.0270165 -0.00896641 0)
(0.00607456 -0.0958202 0)
(0.0895051 -0.0854633 0)
(0.132776 -0.0512287 0)
(0.149503 -0.0245864 0)
(0.153307 -0.0070671 0)
(0.15054 0.00475389 0)
(0.143514 0.0126644 0)
(0.133773 0.0177433 0)
(0.122422 0.0209079 0)
(0.11015 0.0228036 0)
(0.0973742 0.0238738 0)
(0.0843566 0.0244203 0)
(0.0712562 0.0246471 0)
(0.0581626 0.0246909 0)
(0.0451193 0.0246428 0)
(0.032139 0.0245632 0)
(0.0192293 0.0244895 0)
(0.00635606 0.0242583 0)
(-0.0278141 0.00302738 0)
(0.00807854 -0.125441 0)
(0.0993865 -0.113345 0)
(0.14635 -0.0636839 0)
(0.159938 -0.0279925 0)
(0.160187 -0.00661015 0)
(0.155067 0.00735471 0)
(0.146429 0.0165919 0)
(0.135578 0.0224641 0)
(0.123494 0.026086 0)
(0.110748 0.0282316 0)
(0.0976745 0.0294232 0)
(0.0844764 0.0300134 0)
(0.0712735 0.0302391 0)
(0.0581286 0.0302594 0)
(0.0450676 0.0301794 0)
(0.0320905 0.030069 0)
(0.019197 0.0299723 0)
(0.00634522 0.0296865 0)
(0.0327637 0.00416561 0)
(0.0548948 -0.156847 0)
(0.120989 -0.140065 0)
(0.163359 -0.0749186 0)
(0.17247 -0.0296915 0)
(0.168248 -0.00465403 0)
(0.160261 0.0109281 0)
(0.149737 0.0211528 0)
(0.137608 0.0276042 0)
(0.124688 0.0315361 0)
(0.111407 0.0338323 0)
(0.097997 0.0350792 0)
(0.0845966 0.0356693 0)
(0.0712798 0.0358654 0)
(0.0580791 0.0358432 0)
(0.0450001 0.0357191 0)
(0.0320291 0.0355701 0)
(0.0191563 0.035446 0)
(0.00633147 0.0351046 0)
(0.10011 -0.0110151 0)
(0.12118 -0.193022 0)
(0.155137 -0.161607 0)
(0.182676 -0.0826259 0)
(0.186129 -0.0295634 0)
(0.177161 -0.00136579 0)
(0.165942 0.0154768 0)
(0.153325 0.026363 0)
(0.139791 0.0331757 0)
(0.125959 0.0372716 0)
(0.112098 0.0396197 0)
(0.0983262 0.040856 0)
(0.0847089 0.0414019 0)
(0.0712711 0.0415384 0)
(0.0580122 0.0414533 0)
(0.0449162 0.0412714 0)
(0.0319546 0.0410748 0)
(0.0191073 0.040918 0)
(0.0063149 0.0405192 0)
(0.0258867 -0.230208 0)
(0.0815446 -0.273836 0)
(0.140284 -0.265914 0)
(0.198425 -0.267198 0)
(0.257684 -0.276033 0)
(0.319157 -0.288602 0)
(0.383594 -0.304203 0)
(0.450761 -0.323292 0)
(0.52356 -0.346481 0)
(0.599016 -0.373823 0)
(0.68173 -0.409204 0)
(0.775212 -0.447578 0)
(0.872552 -0.491604 0)
(0.959414 -0.560418 0)
(1.05605 -0.656505 0)
(1.20314 -0.713248 0)
(1.34672 -0.458948 0)
(1.16085 0.0963866 0)
(0.736591 0.465302 0)
(0.476001 0.656226 0)
(0.323384 0.887536 0)
(0.292245 1.33298 0)
(0.595264 3.08815 0)
(0.0252769 -0.28215 0)
(0.0784788 -0.332247 0)
(0.133962 -0.322789 0)
(0.189081 -0.324911 0)
(0.245376 -0.335612 0)
(0.303602 -0.350519 0)
(0.364361 -0.369004 0)
(0.427294 -0.391584 0)
(0.4954 -0.419069 0)
(0.564601 -0.451569 0)
(0.640734 -0.493493 0)
(0.727468 -0.537788 0)
(0.808861 -0.593204 0)
(0.864977 -0.687475 0)
(0.9612 -0.795396 0)
(1.10581 -0.794442 0)
(1.07611 -0.284186 0)
(0.641372 0.386568 0)
(0.347985 0.707968 0)
(0.246803 0.819892 0)
(0.169251 0.94607 0)
(0.239259 1.18225 0)
(0.669952 2.28415 0)
(0.0244745 -0.332261 0)
(0.0748026 -0.386651 0)
(0.126607 -0.375985 0)
(0.178318 -0.379081 0)
(0.231213 -0.391371 0)
(0.285698 -0.408165 0)
(0.342239 -0.42894 0)
(0.400339 -0.454294 0)
(0.463061 -0.485037 0)
(0.525041 -0.521461 0)
(0.594 -0.568129 0)
(0.672633 -0.615568 0)
(0.730383 -0.681751 0)
(0.76558 -0.794898 0)
(0.866619 -0.889513 0)
(0.949897 -0.654977 0)
(0.72143 0.0962423 0)
(0.288704 0.651484 0)
(0.178153 0.832519 0)
(0.171988 0.863251 0)
(0.165333 0.909007 0)
(0.215727 1.01001 0)
(0.590283 1.44727 0)
(0.0234531 -0.380295 0)
(0.0705456 -0.437129 0)
(0.118377 -0.425614 0)
(0.166395 -0.429781 0)
(0.215531 -0.4434 0)
(0.265884 -0.461677 0)
(0.317803 -0.484227 0)
(0.370665 -0.511684 0)
(0.427538 -0.544791 0)
(0.481738 -0.58399 0)
(0.543626 -0.633581 0)
(0.612386 -0.682102 0)
(0.643093 -0.758855 0)
(0.675876 -0.878003 0)
(0.770409 -0.924053 0)
(0.772781 -0.477181 0)
(0.329654 0.419741 0)
(0.120371 0.793118 0)
(0.131588 0.844239 0)
(0.159531 0.835413 0)
(0.196312 0.844444 0)
(0.244078 0.876128 0)
(0.486833 0.997154 0)
(0.0222286 -0.425811 0)
(0.0657967 -0.48335 0)
(0.10946 -0.471368 0)
(0.153584 -0.476626 0)
(0.198697 -0.491271 0)
(0.244654 -0.510609 0)
(0.291706 -0.534395 0)
(0.339136 -0.563259 0)
(0.389958 -0.597823 0)
(0.436295 -0.638638 0)
(0.491783 -0.689336 0)
(0.5487 -0.73739 0)
(0.554902 -0.823253 0)
(0.5973 -0.936139 0)
(0.669044 -0.889403 0)
(0.521353 -0.116177 0)
(0.0703796 0.638194 0)
(0.077129 0.813416 0)
(0.123391 0.801123 0)
(0.163025 0.7884 0)
(0.215842 0.788328 0)
(0.275121 0.78939 0)
(0.413194 0.806684 0)
(0.0208256 -0.468462 0)
(0.060653 -0.525175 0)
(0.100034 -0.513124 0)
(0.140141 -0.519435 0)
(0.181056 -0.534804 0)
(0.222467 -0.554814 0)
(0.264544 -0.579353 0)
(0.30652 -0.609007 0)
(0.351294 -0.64425 0)
(0.390085 -0.685712 0)
(0.440013 -0.736085 0)
(0.483464 -0.783068 0)
(0.473772 -0.875293 0)
(0.526429 -0.971524 0)
(0.566747 -0.724567 0)
(0.322894 0.213825 0)
(0.000696123 0.74063 0)
(0.0807128 0.774662 0)
(0.122117 0.750493 0)
(0.164496 0.742044 0)
(0.215518 0.735945 0)
(0.272686 0.720996 0)
(0.351901 0.697053 0)
(0.0192776 -0.507962 0)
(0.0552186 -0.562557 0)
(0.0902738 -0.550829 0)
(0.126304 -0.558102 0)
(0.162929 -0.573908 0)
(0.199742 -0.594247 0)
(0.236853 -0.619117 0)
(0.27348 -0.649033 0)
(0.312358 -0.684323 0)
(0.344166 -0.725674 0)
(0.389192 -0.774737 0)
(0.418488 -0.820686 0)
(0.403543 -0.914773 0)
(0.458668 -0.985481 0)
(0.469796 -0.585137 0)
(0.11949 0.491418 0)
(0.0264775 0.767403 0)
(0.0813428 0.726299 0)
(0.117032 0.707378 0)
(0.157751 0.699004 0)
(0.200848 0.686169 0)
(0.24799 0.663558 0)
(0.29958 0.627841 0)
(0.0176149 -0.544052 0)
(0.0495911 -0.595477 0)
(0.0803391 -0.584441 0)
(0.112285 -0.592544 0)
(0.144597 -0.608525 0)
(0.17684 -0.628898 0)
(0.209075 -0.653742 0)
(0.24054 -0.68349 0)
(0.273752 -0.718341 0)
(0.299245 -0.759026 0)
(0.339722 -0.806181 0)
(0.35518 -0.851357 0)
(0.342221 -0.943744 0)
(0.393382 -0.987584 0)
(0.347632 -0.362348 0)
(-0.0915007 0.6419 0)
(0.0665718 0.729368 0)
(0.0661322 0.681958 0)
(0.108375 0.670809 0)
(0.145398 0.660838 0)
(0.180851 0.644731 0)
(0.218294 0.620546 0)
(0.255265 0.585555 0)
(0.01587 -0.576447 0)
(0.0438636 -0.623891 0)
(0.0703721 -0.613876 0)
(0.0982667 -0.622655 0)
(0.126301 -0.638589 0)
(0.15406 -0.658757 0)
(0.181566 -0.683294 0)
(0.2081 -0.712544 0)
(0.235917 -0.746609 0)
(0.255769 -0.78624 0)
(0.291805 -0.831201 0)
(0.294506 -0.875884 0)
(0.287996 -0.964026 0)
(0.330165 -0.974445 0)
(0.206652 0.018101 0)
(-0.161576 0.68537 0)
(0.0777748 0.655668 0)
(0.0548918 0.64232 0)
(0.100186 0.638024 0)
(0.131623 0.628292 0)
(0.160387 0.612162 0)
(0.189377 0.588668 0)
(0.21615 0.556385 0)
(0.014075 -0.605275 0)
(0.038116 -0.648151 0)
(0.0604869 -0.639443 0)
(0.0843953 -0.648743 0)
(0.10823 -0.664462 0)
(0.131632 -0.684257 0)
(0.154588 -0.708292 0)
(0.176444 -0.73683 0)
(0.199166 -0.769894 0)
(0.214009 -0.808219 0)
(0.245592 -0.850916 0)
(0.237157 -0.894963 0)
(0.238838 -0.976654 0)
(0.269769 -0.931978 0)
(0.0933905 0.360965 0)
(-0.0783459 0.670866 0)
(0.0682606 0.596941 0)
(0.0618736 0.608324 0)
(0.0953063 0.609758 0)
(0.119194 0.602031 0)
(0.141022 0.587006 0)
(0.162352 0.564721 0)
(0.181405 0.535128 0)
(0.0122509 -0.630923 0)
(0.0324108 -0.668756 0)
(0.0507711 -0.661575 0)
(0.0707757 -0.671223 0)
(0.0905225 -0.686561 0)
(0.109719 -0.705818 0)
(0.128329 -0.729157 0)
(0.145775 -0.75678 0)
(0.163744 -0.788654 0)
(0.174223 -0.825456 0)
(0.201341 -0.865934 0)
(0.183445 -0.908492 0)
(0.192207 -0.985842 0)
(0.208714 -0.839199 0)
(-0.0205289 0.439455 0)
(0.031233 0.624872 0)
(0.0633776 0.569779 0)
(0.0742019 0.584785 0)
(0.0939083 0.589515 0)
(0.10856 0.583332 0)
(0.12289 0.569038 0)
(0.137247 0.547687 0)
(0.150248 0.520201 0)
(0.0104402 -0.651876 0)
(0.0268859 -0.684349 0)
(0.0414061 -0.67883 0)
(0.057642 -0.688627 0)
(0.0734933 -0.703421 0)
(0.0887231 -0.721968 0)
(0.103272 -0.744416 0)
(0.116631 -0.77094 0)
(0.130173 -0.801503 0)
(0.136872 -0.836556 0)
(0.158813 -0.874894 0)
(0.131867 -0.914747 0)
(0.144131 -0.996503 0)
(0.13472 -0.691351 0)
(-0.0629927 0.468162 0)
(0.093277 0.574194 0)
(0.070303 0.556733 0)
(0.0859769 0.57334 0)
(0.0935325 0.579048 0)
(0.0984402 0.572909 0)
(0.105165 0.558163 0)
(0.11321 0.536722 0)
(0.121323 0.510154 0)
(0.00870553 -0.667501 0)
(0.0217688 -0.694678 0)
(0.0327345 -0.691005 0)
(0.0455034 -0.700927 0)
(0.057815 -0.715293 0)
(0.0694517 -0.733284 0)
(0.0803153 -0.755045 0)
(0.0899153 -0.78072 0)
(0.0991804 -0.810329 0)
(0.102193 -0.843405 0)
(0.116578 -0.878801 0)
(0.0801759 -0.913513 0)
(0.0962153 -0.999258 0)
(0.049238 -0.587386 0)
(-0.0786455 0.448147 0)
(0.142621 0.521289 0)
(0.0935566 0.551506 0)
(0.0991965 0.573746 0)
(0.0930799 0.579055 0)
(0.0873977 0.57101 0)
(0.0864405 0.553948 0)
(0.0888737 0.53084 0)
(0.0931722 0.503742 0)
(0.0070369 -0.685501 0)
(0.0170344 -0.707221 0)
(0.0247506 -0.705687 0)
(0.0344416 -0.715725 0)
(0.04351 -0.729782 0)
(0.0517922 -0.747307 0)
(0.0590817 -0.768381 0)
(0.064859 -0.792987 0)
(0.0695587 -0.821237 0)
(0.0681316 -0.850809 0)
(0.0747829 -0.879397 0)
(0.0375713 -0.907154 0)
(0.0821179 -0.965301 0)
(-0.0269649 -0.370095 0)
(0.0709737 0.349586 0)
(0.220254 0.49262 0)
(0.146774 0.565331 0)
(0.115411 0.590962 0)
(0.090378 0.592072 0)
(0.073013 0.578212 0)
(0.064656 0.555859 0)
(0.0625721 0.529015 0)
(0.0643538 0.499853 0)
(0.00525463 -0.701742 0)
(0.0119591 -0.717389 0)
(0.0164013 -0.717816 0)
(0.0229158 -0.727092 0)
(0.0284339 -0.739648 0)
(0.0329404 -0.755142 0)
(0.0360519 -0.773441 0)
(0.037346 -0.794212 0)
(0.0372329 -0.817388 0)
(0.0312903 -0.840645 0)
(0.0417851 -0.859586 0)
(0.0405664 -0.903594 0)
(0.148435 -0.912207 0)
(0.155144 -0.717545 0)
(0.359333 0.229512 0)
(0.399061 0.56634 0)
(0.22494 0.63421 0)
(0.127867 0.636239 0)
(0.0797155 0.621453 0)
(0.0507677 0.594537 0)
(0.0367929 0.562741 0)
(0.0323433 0.529768 0)
(0.0334838 0.497106 0)
(0.00274586 -0.689008 0)
(0.00424858 -0.699272 0)
(0.00489879 -0.70161 0)
(0.00663111 -0.709727 0)
(0.00702563 -0.720465 0)
(0.00625201 -0.733758 0)
(0.00428418 -0.74948 0)
(0.00100236 -0.767578 0)
(8.69121e-05 -0.787784 0)
(0.00144438 -0.818257 0)
(0.0418895 -0.858628 0)
(0.136913 -0.974567 0)
(0.248741 -0.927806 0)
(0.436626 -0.833676 0)
(0.495956 0.192613 0)
(0.563521 0.770321 0)
(0.279351 0.798871 0)
(0.107835 0.718547 0)
(0.047876 0.666471 0)
(0.0137021 0.616804 0)
(-0.000693551 0.571515 0)
(-0.00368353 0.530727 0)
(-0.000499079 0.493719 0)
(-0.00052412 -0.682469 0)
(-0.0108216 -0.689333 0)
(-0.0166998 -0.694925 0)
(-0.02454 -0.703817 0)
(-0.0333749 -0.716331 0)
(-0.0422544 -0.73267 0)
(-0.0484296 -0.753103 0)
(-0.0529408 -0.781092 0)
(-0.038537 -0.821085 0)
(0.0240757 -0.911383 0)
(0.148896 -1.07182 0)
(0.337521 -1.16011 0)
(0.408305 -1.18752 0)
(0.384123 -0.839313 0)
(0.367722 -0.331956 0)
(0.450682 0.935122 0)
(0.185921 1.00784 0)
(0.0196217 0.824356 0)
(-0.0196723 0.714317 0)
(-0.0451494 0.636659 0)
(-0.0499761 0.576861 0)
(-0.0461677 0.528301 0)
(-0.0379541 0.487329 0)
(-0.00148925 -0.722755 0)
(-0.0277901 -0.727964 0)
(-0.040371 -0.734863 0)
(-0.0565152 -0.741965 0)
(-0.0693542 -0.754907 0)
(-0.0764665 -0.774158 0)
(-0.0709243 -0.799093 0)
(-0.0556677 -0.841003 0)
(-0.018515 -0.923895 0)
(0.0790236 -1.03001 0)
(0.179987 -1.24262 0)
(0.319675 -1.22151 0)
(0.515127 -1.13643 0)
(0.0691525 -0.705306 0)
(0.124486 -0.137213 0)
(-0.123844 1.07498 0)
(-0.10428 1.12846 0)
(-0.146139 0.888435 0)
(-0.13035 0.738269 0)
(-0.124571 0.6413 0)
(-0.109802 0.571705 0)
(-0.0940135 0.518293 0)
(-0.0778042 0.475422 0)
(-0.00743565 -0.687335 0)
(-0.0290602 -0.691246 0)
(-0.0451735 -0.698755 0)
(-0.0622046 -0.706578 0)
(-0.0771302 -0.722424 0)
(-0.090636 -0.746317 0)
(-0.100209 -0.782247 0)
(-0.105054 -0.840807 0)
(-0.105267 -0.938045 0)
(-0.0880092 -1.09927 0)
(-0.101862 -1.31331 0)
(-0.1295 -1.33107 0)
(-0.0676285 -1.04324 0)
(-0.402106 -0.494501 0)
(-0.213106 0.111867 0)
(-0.709101 1.1424 0)
(-0.433479 1.10104 0)
(-0.339074 0.860958 0)
(-0.259552 0.7144 0)
(-0.212418 0.618664 0)
(-0.173757 0.549605 0)
(-0.143327 0.497408 0)
(-0.117615 0.456194 0)
(-0.0114001 -0.652075 0)
(-0.0330193 -0.658225 0)
(-0.0543441 -0.665193 0)
(-0.0759975 -0.675275 0)
(-0.0984429 -0.69146 0)
(-0.122322 -0.715641 0)
(-0.149224 -0.751157 0)
(-0.183883 -0.80349 0)
(-0.231742 -0.889022 0)
(-0.304043 -1.03237 0)
(-0.439723 -1.19457 0)
(-0.656748 -1.20468 0)
(-0.836237 -0.89225 0)
(-0.833628 -0.312588 0)
(-0.853761 0.341517 0)
(-1.05166 1.03027 0)
(-0.65637 0.900904 0)
(-0.494473 0.739553 0)
(-0.369893 0.639033 0)
(-0.289902 0.565471 0)
(-0.23185 0.508812 0)
(-0.188373 0.464695 0)
(-0.154007 0.429077 0)
(-0.0123094 -0.623925 0)
(-0.0365446 -0.632591 0)
(-0.0614719 -0.637953 0)
(-0.0873435 -0.647777 0)
(-0.115896 -0.662202 0)
(-0.148278 -0.682594 0)
(-0.187004 -0.710144 0)
(-0.238256 -0.747107 0)
(-0.308263 -0.799682 0)
(-0.412585 -0.882465 0)
(-0.604501 -0.984415 0)
(-0.890748 -0.988377 0)
(-1.15954 -0.747653 0)
(-1.29697 -0.249182 0)
(-1.25488 0.355051 0)
(-1.07963 0.719586 0)
(-0.734209 0.616441 0)
(-0.568009 0.574147 0)
(-0.434178 0.532179 0)
(-0.342773 0.490574 0)
(-0.275258 0.453801 0)
(-0.223994 0.422379 0)
(-0.183842 0.395254 0)
(-0.0133438 -0.605555 0)
(-0.0408202 -0.613269 0)
(-0.0688807 -0.617361 0)
(-0.0990076 -0.624543 0)
(-0.132137 -0.634817 0)
(-0.169903 -0.64869 0)
(-0.21493 -0.666515 0)
(-0.271983 -0.687964 0)
(-0.343702 -0.710976 0)
(-0.43856 -0.737455 0)
(-0.596132 -0.766276 0)
(-0.841527 -0.741693 0)
(-1.09239 -0.559664 0)
(-1.20906 -0.209733 0)
(-1.13811 0.162169 0)
(-0.924128 0.375252 0)
(-0.700573 0.385804 0)
(-0.570013 0.421193 0)
(-0.453528 0.421573 0)
(-0.368007 0.409323 0)
(-0.300607 0.392681 0)
(-0.247669 0.374901 0)
(-0.205313 0.357294 0)
(-0.0142873 -0.572734 0)
(-0.0433025 -0.579096 0)
(-0.0734609 -0.582141 0)
(-0.105799 -0.586733 0)
(-0.141293 -0.592958 0)
(-0.18153 -0.60066 0)
(-0.228989 -0.609613 0)
(-0.287151 -0.61881 0)
(-0.357584 -0.624655 0)
(-0.444018 -0.621609 0)
(-0.561966 -0.601091 0)
(-0.717752 -0.54237 0)
(-0.869643 -0.412305 0)
(-0.939441 -0.200133 0)
(-0.887456 0.027251 0)
(-0.756494 0.176986 0)
(-0.631185 0.248181 0)
(-0.535512 0.304355 0)
(-0.444544 0.326549 0)
(-0.371359 0.334277 0)
(-0.310045 0.333052 0)
(-0.259804 0.326973 0)
(-0.218274 0.318177 0)
(-0.0145307 -0.545283 0)
(-0.0447657 -0.550807 0)
(-0.0761497 -0.552368 0)
(-0.109321 -0.554378 0)
(-0.145502 -0.556663 0)
(-0.185916 -0.558736 0)
(-0.232342 -0.559796 0)
(-0.286704 -0.557969 0)
(-0.3501 -0.550196 0)
(-0.424227 -0.533743 0)
(-0.512233 -0.501175 0)
(-0.609496 -0.433001 0)
(-0.693485 -0.314067 0)
(-0.731816 -0.159898 0)
(-0.708719 -0.0126593 0)
(-0.64185 0.0941714 0)
(-0.565184 0.167554 0)
(-0.491981 0.221158 0)
(-0.422175 0.252383 0)
(-0.361302 0.270693 0)
(-0.308081 0.279412 0)
(-0.262613 0.281969 0)
(-0.223806 0.280346 0)
(-0.0146346 -0.514084 0)
(-0.0451115 -0.51906 0)
(-0.0765985 -0.518992 0)
(-0.109612 -0.5187 0)
(-0.145196 -0.517645 0)
(-0.184264 -0.515212 0)
(-0.227934 -0.510423 0)
(-0.276966 -0.501498 0)
(-0.331583 -0.485722 0)
(-0.392696 -0.460121 0)
(-0.460926 -0.420199 0)
(-0.529457 -0.358296 0)
(-0.581684 -0.268879 0)
(-0.602613 -0.158981 0)
(-0.589841 -0.0491435 0)
(-0.552354 0.0420892 0)
(-0.502433 0.10965 0)
(-0.44796 0.160075 0)
(-0.394075 0.194758 0)
(-0.344072 0.218208 0)
(-0.298755 0.232965 0)
(-0.258648 0.24144 0)
(-0.223447 0.245256 0)
(-0.0146425 -0.484392 0)
(-0.0445513 -0.488614 0)
(-0.0752698 -0.487219 0)
(-0.107402 -0.484996 0)
(-0.141479 -0.481311 0)
(-0.178199 -0.475498 0)
(-0.218169 -0.466563 0)
(-0.26162 -0.453021 0)
(-0.308392 -0.433028 0)
(-0.358175 -0.404517 0)
(-0.409672 -0.364064 0)
(-0.458012 -0.307189 0)
(-0.49409 -0.233478 0)
(-0.509556 -0.150177 0)
(-0.502863 -0.0679236 0)
(-0.478922 0.00525416 0)
(-0.44459 0.0655315 0)
(-0.404799 0.113042 0)
(-0.363266 0.148686 0)
(-0.322749 0.174778 0)
(-0.28467 0.193219 0)
(-0.249905 0.20569 0)
(-0.21861 0.213514 0)
(-0.0142778 -0.455481 0)
(-0.0430432 -0.45876 0)
(-0.0724753 -0.456427 0)
(-0.103131 -0.452664 0)
(-0.135137 -0.446984 0)
(-0.168987 -0.438755 0)
(-0.204948 -0.427111 0)
(-0.242934 -0.410898 0)
(-0.282561 -0.388784 0)
(-0.323159 -0.359302 0)
(-0.363053 -0.320611 0)
(-0.398509 -0.270939 0)
(-0.424242 -0.210739 0)
(-0.43599 -0.14438 0)
(-0.43295 -0.0784233 0)
(-0.417678 -0.0180925 0)
(-0.393576 0.0339336 0)
(-0.363951 0.0773132 0)
(-0.331822 0.112009 0)
(-0.299232 0.139021 0)
(-0.267571 0.159504 0)
(-0.237842 0.174576 0)
(-0.210441 0.185272 0)
(-0.0135182 -0.427603 0)
(-0.0408063 -0.430106 0)
(-0.0686444 -0.42716 0)
(-0.09737 -0.422321 0)
(-0.126991 -0.415273 0)
(-0.15778 -0.405487 0)
(-0.189804 -0.392272 0)
(-0.222834 -0.37479 0)
(-0.256364 -0.352147 0)
(-0.289571 -0.323383 0)
(-0.320923 -0.287482 0)
(-0.34786 -0.243886 0)
(-0.367239 -0.193555 0)
(-0.376663 -0.139373 0)
(-0.375629 -0.0852194 0)
(-0.365484 -0.0344108 0)
(-0.348282 0.0111449 0)
(-0.326146 0.0503503 0)
(-0.301172 0.0831283 0)
(-0.274987 0.109867 0)
(-0.248806 0.131199 0)
(-0.223609 0.147809 0)
(-0.199884 0.160467 0)
(-0.0125476 -0.401054 0)
(-0.0381446 -0.403064 0)
(-0.0641518 -0.399682 0)
(-0.090663 -0.394159 0)
(-0.117748 -0.386263 0)
(-0.145477 -0.375593 0)
(-0.173799 -0.361632 0)
(-0.20242 -0.343796 0)
(-0.230816 -0.3215 0)
(-0.258188 -0.294178 0)
(-0.283289 -0.261381 0)
(-0.304367 -0.223102 0)
(-0.319515 -0.180255 0)
(-0.327334 -0.134793 0)
(-0.327465 -0.0891921 0)
(-0.32064 -0.0456706 0)
(-0.308176 -0.0057368 0)
(-0.291462 0.0296755 0)
(-0.271955 0.0602801 0)
(-0.2509 0.0861435 0)
(-0.229308 0.107575 0)
(-0.208073 0.124971 0)
(-0.187696 0.138895 0)
(-0.0115507 -0.376331 0)
(-0.0352818 -0.378066 0)
(-0.05926 -0.37435 0)
(-0.0834418 -0.368425 0)
(-0.107954 -0.360073 0)
(-0.132735 -0.349008 0)
(-0.157657 -0.334864 0)
(-0.182414 -0.317256 0)
(-0.206513 -0.295824 0)
(-0.229256 -0.270275 0)
(-0.249679 -0.240474 0)
(-0.266587 -0.206649 0)
(-0.278779 -0.169591 0)
(-0.285405 -0.130659 0)
(-0.286223 -0.0915076 0)
(-0.281633 -0.0536991 0)
(-0.272479 -0.0183864 0)
(-0.259729 0.0136845 0)
(-0.244407 0.0421067 0)
(-0.227451 0.0668154 0)
(-0.20967 0.0879093 0)
(-0.191846 0.105589 0)
(-0.174453 0.120269 0)
(-0.0105973 -0.353722 0)
(-0.0323148 -0.355282 0)
(-0.0541284 -0.351334 0)
(-0.0759874 -0.345205 0)
(-0.0979739 -0.336673 0)
(-0.119973 -0.325545 0)
(-0.141812 -0.311579 0)
(-0.163199 -0.294535 0)
(-0.183697 -0.274214 0)
(-0.20273 -0.250501 0)
(-0.219571 -0.223435 0)
(-0.233395 -0.193319 0)
(-0.243425 -0.160811 0)
(-0.249124 -0.126896 0)
(-0.250331 -0.0927309 0)
(-0.247256 -0.0594367 0)
(-0.24045 -0.0279134 0)
(-0.230665 0.00122401 0)
(-0.218577 0.0276026 0)
(-0.204891 0.0510585 0)
(-0.190261 0.0715689 0)
(-0.175347 0.0892065 0)
(-0.160577 0.104281 0)
(-0.0096678 -0.33327 0)
(-0.0292762 -0.334675 0)
(-0.0488734 -0.330617 0)
(-0.0684766 -0.324427 0)
(-0.088039 -0.315911 0)
(-0.107445 -0.304941 0)
(-0.126505 -0.291373 0)
(-0.144951 -0.275071 0)
(-0.162412 -0.255949 0)
(-0.178426 -0.234002 0)
(-0.192451 -0.209355 0)
(-0.20391 -0.182324 0)
(-0.212285 -0.153449 0)
(-0.217223 -0.123469 0)
(-0.218618 -0.0932231 0)
(-0.216608 -0.0635388 0)
(-0.211562 -0.0351432 0)
(-0.203987 -0.00854292 0)
(-0.194378 0.0159921 0)
(-0.183322 0.0382066 0)
(-0.171296 0.058016 0)
(-0.158854 0.0754108 0)
(-0.146374 0.0906266 0)
(-0.00872496 -0.3149 0)
(-0.026199 -0.31614 0)
(-0.043606 -0.312084 0)
(-0.061037 -0.305943 0)
(-0.0783015 -0.297577 0)
(-0.0953044 -0.28691 0)
(-0.111858 -0.273866 0)
(-0.127724 -0.258385 0)
(-0.142596 -0.240456 0)
(-0.156111 -0.220139 0)
(-0.167862 -0.1976 0)
(-0.177443 -0.173138 0)
(-0.184498 -0.147199 0)
(-0.188793 -0.120355 0)
(-0.190258 -0.0932411 0)
(-0.188989 -0.0664882 0)
(-0.185229 -0.0406649 0)
(-0.179325 -0.0161894 0)
(-0.171692 0.00668104 0)
(-0.162753 0.0277253 0)
(-0.152886 0.0467987 0)
(-0.142543 0.0638395 0)
(-0.132052 0.0790277 0)
(-0.00775599 -0.298535 0)
(-0.0231341 -0.299602 0)
(-0.0384279 -0.295625 0)
(-0.053768 -0.289609 0)
(-0.0688633 -0.281481 0)
(-0.083639 -0.271201 0)
(-0.0979215 -0.25874 0)
(-0.111504 -0.244093 0)
(-0.124139 -0.227297 0)
(-0.13554 -0.20845 0)
(-0.145405 -0.187729 0)
(-0.153441 -0.165409 0)
(-0.159404 -0.141864 0)
(-0.163131 -0.117547 0)
(-0.164578 -0.0929534 0)
(-0.163814 -0.0685782 0)
(-0.161009 -0.044871 0)
(-0.156427 -0.0222003 0)
(-0.150385 -0.000808318 0)
(-0.143146 0.0191819 0)
(-0.135071 0.0375423 0)
(-0.126511 0.0541813 0)
(-0.11775 0.0692353 0)
(-0.00677429 -0.284129 0)
(-0.0201346 -0.28503 0)
(-0.0334119 -0.281166 0)
(-0.0467376 -0.275322 0)
(-0.0597836 -0.267477 0)
(-0.0724873 -0.257619 0)
(-0.0846959 -0.245754 0)
(-0.0962347 -0.23191 0)
(-0.106902 -0.216154 0)
(-0.116478 -0.198603 0)
(-0.124736 -0.179436 0)
(-0.131463 -0.158901 0)
(-0.136487 -0.137315 0)
(-0.139699 -0.115046 0)
(-0.141068 -0.0924936 0)
(-0.140648 -0.0700555 0)
(-0.138564 -0.0481018 0)
(-0.135018 -0.0269546 0)
(-0.130238 -0.00681905 0)
(-0.124402 0.0122376 0)
(-0.117834 0.0299426 0)
(-0.110803 0.0461747 0)
(-0.103548 0.0610342 0)
(-0.00580089 -0.271671 0)
(-0.0172346 -0.272429 0)
(-0.0285911 -0.268684 0)
(-0.0399757 -0.263028 0)
(-0.0510796 -0.255477 0)
(-0.0618457 -0.246038 0)
(-0.0721435 -0.23474 0)
(-0.0818279 -0.221633 0)
(-0.090738 -0.206802 0)
(-0.0987037 -0.190372 0)
(-0.105556 -0.172516 0)
(-0.11114 -0.153457 0)
(-0.115335 -0.133469 0)
(-0.118064 -0.112858 0)
(-0.11931 -0.0919547 0)
(-0.119115 -0.071086 0)
(-0.117577 -0.0505615 0)
(-0.11484 -0.0306596 0)
(-0.111071 -0.0115718 0)
(-0.106426 0.00663849 0)
(-0.101134 0.0237568 0)
(-0.095425 0.0396033 0)
(-0.0894926 0.0542423 0)
(-0.00485137 -0.261109 0)
(-0.0144414 -0.261759 0)
(-0.0239597 -0.258127 0)
(-0.0334733 -0.252659 0)
(-0.0427289 -0.245391 0)
(-0.0516707 -0.236345 0)
(-0.0601906 -0.225563 0)
(-0.0681708 -0.213109 0)
(-0.0754847 -0.199077 0)
(-0.0820025 -0.183594 0)
(-0.0875982 -0.166824 0)
(-0.0921603 -0.148971 0)
(-0.0956017 -0.130273 0)
(-0.0978711 -0.110994 0)
(-0.0989586 -0.0914111 0)
(-0.0988985 -0.0718023 0)
(-0.0977659 -0.0524316 0)
(-0.0956697 -0.0335379 0)
(-0.092743 -0.0153091 0)
(-0.0891187 0.00216636 0)
(-0.0849161 0.0187871 0)
(-0.0803586 0.0342907 0)
(-0.0755979 0.0487094 0)
(-0.00393214 -0.25223 0)
(-0.0117451 -0.252809 0)
(-0.0194938 -0.249283 0)
(-0.0272035 -0.243997 0)
(-0.0346918 -0.236996 0)
(-0.0419035 -0.228312 0)
(-0.0487522 -0.217993 0)
(-0.0551451 -0.206111 0)
(-0.0609854 -0.192762 0)
(-0.0661758 -0.178074 0)
(-0.0706241 -0.1622 0)
(-0.0742499 -0.145327 0)
(-0.0769925 -0.127665 0)
(-0.0788174 -0.109446 0)
(-0.0797207 -0.0909091 0)
(-0.0797306 -0.0722968 0)
(-0.0789053 -0.0538401 0)
(-0.0773273 -0.0357528 0)
(-0.0751038 -0.018217 0)
(-0.0723412 -0.00133311 0)
(-0.0690909 0.0148818 0)
(-0.0655638 0.0300981 0)
(-0.0618598 0.0443155 0)
(-0.00303575 -0.245113 0)
(-0.00912361 -0.245647 0)
(-0.015173 -0.242203 0)
(-0.0211493 -0.237069 0)
(-0.0269463 -0.230292 0)
(-0.0325108 -0.221906 0)
(-0.0377772 -0.211967 0)
(-0.0426757 -0.200549 0)
(-0.047135 -0.187753 0)
(-0.0510848 -0.173699 0)
(-0.0544598 -0.158536 0)
(-0.0572047 -0.142434 0)
(-0.0592792 -0.125584 0)
(-0.060662 -0.10819 0)
(-0.0613539 -0.0904666 0)
(-0.0613785 -0.0726263 0)
(-0.0607811 -0.054875 0)
(-0.0596253 -0.0374053 0)
(-0.0579936 -0.0203929 0)
(-0.0559737 -0.00395449 0)
(-0.0535848 0.0119319 0)
(-0.0509938 0.0269221 0)
(-0.0482624 0.0409692 0)
(-0.00213284 -0.240667 0)
(-0.00651419 -0.241139 0)
(-0.0109215 -0.23774 0)
(-0.0152241 -0.232703 0)
(-0.0193904 -0.226063 0)
(-0.0233761 -0.217862 0)
(-0.0271357 -0.208158 0)
(-0.0306199 -0.19703 0)