/*--------------------------------*- C++ -*----------------------------------*\
| =========                 |                                                 |
| \\      /  F ield         | OpenFOAM: The Open Source CFD Toolbox           |
|  \\    /   O peration     | Version:  5.x                                   |
|   \\  /    A nd           | Web:      www.OpenFOAM.org                      |
|    \\/     M anipulation  |                                                 |
\*---------------------------------------------------------------------------*/
FoamFile
{
    version     2.0;
    format      ascii;
    class       surfaceScalarField;
    location    "0.9";
    object      alphaPhi10;
}
// * * * * * * * * * * * * * * * * * * * * * * * * * * * * * * * * * * * * * //

dimensions      [0 3 -1 0 0 0 0];

internalField   nonuniform List<scalar> 
4432
(
-2.11855e-06
2.11855e-06
-6.18721e-06
4.06865e-06
-1.2162e-05
5.97482e-06
-1.83407e-05
6.17871e-06
-2.14597e-05
3.11901e-06
-2.09458e-05
-5.13895e-07
-1.94134e-05
-1.53246e-06
-1.83989e-05
-1.0145e-06
-1.74792e-05
-9.19689e-07
-1.61015e-05
-1.37769e-06
-1.4202e-05
-1.89947e-06
-1.20317e-05
-2.17036e-06
-9.85921e-06
-2.17248e-06
-7.80628e-06
-2.05293e-06
-6.18807e-06
-1.61374e-06
-6.96294e-06
1.13382e-06
-1.26502e-05
6.47354e-06
-2.15693e-05
7.4956e-06
-2.35205e-05
1.95121e-06
-2.00146e-05
-3.34763e-06
-1.40993e-05
-5.87995e-06
-6.7216e-06
-7.37684e-06
-6.72496e-06
-7.22304e-06
9.34159e-06
-1.46773e-05
1.15229e-05
-2.10372e-05
1.23348e-05
-2.43376e-05
9.47917e-06
-2.40117e-05
2.79307e-06
-2.19836e-05
-2.54195e-06
-2.0074e-05
-3.44207e-06
-1.88518e-05
-2.23672e-06
-1.78555e-05
-1.91605e-06
-1.62386e-05
-2.99452e-06
-1.37319e-05
-4.40626e-06
-1.08144e-05
-5.08778e-06
-8.45207e-06
-4.53485e-06
-7.65935e-06
-2.8456e-06
-8.94231e-06
-1.0435e-07
-1.20251e-05
4.83796e-06
-1.58764e-05
1.05614e-05
-1.82921e-05
8.86597e-06
-1.5618e-05
-3.85696e-07
-1.2136e-05
-6.85057e-06
-8.7776e-06
-9.26041e-06
-4.42942e-06
-1.18403e-05
-1.11544e-05
-8.66612e-06
1.80077e-05
-1.62046e-05
1.90614e-05
-2.17004e-05
1.78305e-05
-2.45557e-05
1.23345e-05
-2.47496e-05
2.98693e-06
-2.30705e-05
-4.22108e-06
-2.1153e-05
-5.35957e-06
-1.98648e-05
-3.52483e-06
-1.86525e-05
-3.12845e-06
-1.66302e-05
-5.01676e-06
-1.34781e-05
-7.55838e-06
-9.7374e-06
-8.82848e-06
-6.44388e-06
-7.82838e-06
-4.54946e-06
-4.74003e-06
-4.74807e-06
1.10514e-07
-6.33507e-06
6.82298e-06
-7.34799e-06
1.17841e-05
-6.2343e-06
7.79651e-06
-4.4563e-06
-2.28053e-06
-3.38617e-06
-8.15231e-06
-2.84511e-06
-9.87967e-06
-1.53585e-06
-1.33494e-05
-1.26902e-05
-8.10241e-06
2.61101e-05
-1.49449e-05
2.59038e-05
-2.01065e-05
2.29921e-05
-2.3229e-05
1.54571e-05
-2.39055e-05
3.66341e-06
-2.2924e-05
-5.20263e-06
-2.19504e-05
-6.33317e-06
-2.1299e-05
-4.17617e-06
-2.03095e-05
-4.11798e-06
-1.82294e-05
-7.09682e-06
-1.47512e-05
-1.10366e-05
-1.05142e-05
-1.30655e-05
-6.64639e-06
-1.16961e-05
-3.88577e-06
-7.50066e-06
-2.08339e-06
-1.69182e-06
-3.35768e-07
5.07546e-06
1.4846e-06
9.96435e-06
2.58392e-06
6.81827e-06
1.92863e-06
-1.62457e-06
8.64442e-07
-7.08812e-06
-1.99745e-07
-9.11479e-06
-4.43047e-07
-1.31061e-05
-1.31335e-05
-6.77359e-06
3.28837e-05
-1.2677e-05
3.18072e-05
-1.71965e-05
2.75117e-05
-1.9896e-05
1.81565e-05
-2.07648e-05
4.53227e-06
-2.10475e-05
-4.91996e-06
-2.19725e-05
-5.40819e-06
-2.27288e-05
-3.41985e-06
-2.23277e-05
-4.51908e-06
-2.01611e-05
-9.2634e-06
-1.60152e-05
-1.51825e-05
-1.07798e-05
-1.8301e-05
-6.11338e-06
-1.63625e-05
-3.09324e-06
-1.05208e-05
-1.26529e-06
-3.51977e-06
6.86779e-07
3.1234e-06
3.04223e-06
7.60889e-06
3.62068e-06
6.23981e-06
1.80243e-06
1.93689e-07
5.78705e-08
-5.34357e-06
-1.09142e-06
-7.96549e-06
-1.00497e-06
-1.31926e-05
-1.41385e-05
-5.073e-06
3.79567e-05
-9.76387e-06
3.64981e-05
-1.31533e-05
3.09011e-05
-1.49914e-05
1.99946e-05
-1.60288e-05
5.5697e-06
-1.79901e-05
-2.95868e-06
-2.14344e-05
-1.96383e-06
-2.41238e-05
-7.30511e-07
-2.4652e-05
-3.9908e-06
-2.22e-05
-1.17154e-05
-1.64141e-05
-2.09683e-05
-9.12102e-06
-2.55939e-05
-3.28567e-06
-2.21979e-05
-2.47416e-07
-1.35592e-05
9.83627e-07
-4.75081e-06
1.8039e-06
2.30312e-06
2.57379e-06
6.83898e-06
2.23232e-06
6.58129e-06
3.09833e-07
2.11617e-06
-1.37949e-06
-3.65425e-06
-2.06114e-06
-7.28385e-06
-1.49734e-06
-1.37564e-05
-1.56358e-05
-3.16686e-06
4.11236e-05
-6.74578e-06
4.0077e-05
-8.95137e-06
3.31067e-05
-9.55991e-06
2.06031e-05
-1.04444e-05
6.45423e-06
-1.45798e-05
1.17662e-06
-2.11031e-05
4.55951e-06
-2.57469e-05
3.91336e-06
-2.70557e-05
-2.68205e-06
-2.34707e-05
-1.53001e-05
-1.51468e-05
-2.92899e-05
-6.03268e-06
-3.47042e-05
1.43251e-07
-2.83723e-05
2.98211e-06
-1.64011e-05
3.8213e-06
-5.59023e-06
4.02828e-06
2.09612e-06
3.73268e-06
7.13459e-06
2.51821e-06
7.79576e-06
4.58807e-07
4.17557e-06
-1.30832e-06
-1.88712e-06
-1.93901e-06
-6.65316e-06
-1.34389e-06
-1.43515e-05
-1.69797e-05
-1.25746e-06
4.2381e-05
-3.48733e-06
4.23069e-05
-3.60408e-06
3.32235e-05
-1.68008e-06
1.86791e-05
-2.75747e-06
7.53387e-06
-1.08704e-05
9.27896e-06
-2.09e-05
1.44933e-05
-2.72453e-05
1.02599e-05
-2.89352e-05
-9.91875e-07
-2.43509e-05
-1.98793e-05
-1.534e-05
-3.82527e-05
-5.92427e-06
-4.28981e-05
5.95282e-07
-2.84604e-05
3.64099e-06
-1.53777e-05
4.05226e-06
-4.97857e-06
4.43791e-06
1.54447e-06
3.85647e-06
7.71602e-06
2.23664e-06
9.41559e-06
-6.44129e-08
6.47662e-06
-2.09585e-06
1.4431e-07
-2.58847e-06
-6.16053e-06
-2.21203e-06
-1.47277e-05
-1.91917e-05
-6.19614e-06
6.16964e-06
-1.05261e-05
4.37779e-06
1.02962e-05
-1.96112e-05
3.02858e-05
-1.85275e-05
3.6798e-05
-5.8141e-06
3.35506e-05
3.33861e-06
2.51075e-05
8.44312e-06
1.14839e-06
2.29056e-05
-1.13061e-05
1.21801e-05
-8.74008e-06
-9.25774e-07
-1.44782e-05
1.88065e-06
-2.48108e-05
6.93565e-06
-3.27383e-05
7.92758e-06
-3.86101e-05
5.87174e-06
-4.0559e-05
1.94896e-06
-3.30786e-05
-7.48044e-06
-1.49637e-05
-1.59267e-05
-6.94609e-07
-1.1664e-05
-4.46968e-07
-1.18826e-05
1.80522e-05
-3.98059e-06
-2.8639e-06
1.76487e-05
-3.87388e-05
3.23105e-05
-2.85885e-05
3.79004e-05
-7.81662e-06
3.54398e-05
5.81639e-06
2.2984e-05
2.09032e-05
-4.3205e-06
4.84333e-05
-5.95667e-06
7.55879e-06
-7.56137e-06
-2.20894e-06
-7.68668e-06
-3.74015e-08
-9.86771e-06
2.71483e-06
-1.26086e-05
5.7679e-06
-1.61686e-05
3.5078e-06
-1.77597e-05
1.04103e-06
-1.04203e-05
-1.07032e-05
2.8979e-06
-2.71272e-05
7.23889e-06
-2.30886e-05
5.53707e-07
-1.08444e-05
2.88967e-05
2.32845e-06
-1.60853e-05
1.86438e-05
-5.5475e-05
2.82678e-05
-3.97307e-05
2.87966e-05
-7.43197e-06
2.19393e-05
1.26074e-05
4.14678e-06
3.86974e-05
-5.67787e-06
5.17065e-05
-8.05325e-06
4.01865e-06
-9.67335e-06
-3.79668e-06
-7.46637e-06
-2.63913e-06
-6.61861e-06
1.47576e-06
-7.01455e-06
5.71467e-06
-6.66354e-06
4.0954e-06
-2.91643e-06
-4.28187e-06
3.50454e-06
-1.88455e-05
1.17297e-05
-3.46144e-05
6.15343e-06
-1.60668e-05
5.12686e-06
-7.45331e-06
3.635e-05
4.45765e-06
-2.45343e-05
1.12448e-05
-6.28808e-05
1.21374e-05
-4.05558e-05
8.29146e-06
-3.61867e-06
-2.02651e-06
2.29035e-05
-9.60515e-06
4.62791e-05
-3.95701e-06
1.72839e-05
-5.12587e-06
4.22281e-06
-1.21842e-05
-3.72444e-06
-1.30035e-05
-1.78616e-06
-1.42833e-05
2.83852e-06
-1.42793e-05
5.17516e-06
-1.52066e-05
4.25088e-06
-1.5566e-05
-7.68715e-06
-9.11026e-06
-3.39788e-05
-7.25833e-08
-4.34115e-05
-1.74253e-06
-9.58892e-06
7.39425e-06
-4.25643e-06
3.12383e-05
1.93651e-06
-3.14235e-05
-3.18462e-06
-5.95364e-05
-1.28682e-05
-3.09151e-05
-2.06783e-05
4.16034e-06
-2.06947e-05
2.28827e-05
-5.70193e-06
1.95452e-05
-2.44262e-06
8.098e-06
-3.69066e-06
4.97757e-06
-1.89566e-05
-4.22827e-08
-2.16845e-05
9.03326e-07
-2.64028e-05
7.59395e-06
-3.18391e-05
1.17694e-05
-4.14792e-05
4.32507e-06
-5.00277e-05
-1.66018e-05
-3.80754e-05
-4.95784e-05
-1.59739e-05
-6.53675e-05
-2.26855e-06
-3.23012e-05
1.26368e-05
-4.0668e-06
4.54808e-05
-5.07472e-06
-2.99693e-05
-1.93649e-05
-5.31643e-05
-3.36184e-05
-1.67012e-05
-3.06964e-05
3.9032e-06
-8.55574e-06
2.75515e-06
-2.02644e-06
4.06132e-06
-1.13104e-06
6.76085e-06
-2.09255e-06
5.57864e-06
-1.11494e-05
3.35515e-06
-3.32767e-05
1.15519e-05
-3.87054e-05
1.38535e-05
-3.89408e-05
8.91879e-06
-4.89844e-05
3.42536e-07
-5.71966e-05
-2.58948e-05
-5.01103e-05
-4.83367e-05
-3.35479e-05
-7.21282e-05
-2.49869e-06
-5.87742e-05
1.18501e-05
-5.88278e-06
5.40147e-05
-1.21864e-05
-2.79963e-05
-2.7108e-05
-3.78923e-05
-2.80172e-05
-9.55046e-06
-4.76204e-06
-5.32995e-06
-1.20448e-07
-3.77128e-07
-6.08638e-08
3.72444e-06
-5.70107e-07
6.87567e-06
-3.20337e-06
7.77014e-06
-1.44958e-05
1.59284e-05
-3.94823e-05
3.49779e-05
-4.33628e-05
1.65673e-05
-3.87086e-05
4.07327e-07
-2.957e-05
-6.90046e-06
-2.08968e-05
-8.22611e-06
-1.81177e-05
-1.91308e-06
-3.37219e-05
-1.45194e-05
-5.63772e-06
-8.15874e-05
6.21237e-06
-7.5039e-06
6.13253e-05
-1.52528e-05
-2.20124e-05
-2.3761e-05
-2.87965e-05
-6.14495e-06
-1.40844e-05
4.69433e-07
-2.77322e-06
5.1578e-07
-4.78265e-07
-4.77676e-07
4.5863e-06
-3.07168e-06
9.19238e-06
-1.74845e-05
2.33957e-05
-4.6794e-05
4.29938e-05
-5.69075e-05
4.32539e-05
-5.39421e-05
1.14322e-05
-3.24589e-05
-1.26881e-05
-5.61779e-06
-6.69065e-06
-1.90716e-07
-7.43329e-08
-1.86468e-06
-1.99851e-07
-1.19151e-05
-3.42217e-06
-1.68796e-05
-5.72369e-05
-1.80938e-05
8.29956e-06
3.40815e-05
6.46522e-06
4.41413e-05
6.42141e-06
3.32673e-05
7.23992e-07
2.43765e-05
-1.50518e-05
2.33096e-05
-3.50865e-05
2.93137e-05
-5.20898e-05
3.14968e-05
-6.55155e-05
2.36885e-05
-7.38074e-05
7.31027e-06
-7.60389e-05
-1.75085e-05
-5.25657e-05
-2.48745e-05
-1.78012e-05
-1.46006e-05
-2.76833e-06
-4.18739e-06
4.57665e-06
-9.80302e-07
9.66198e-06
-7.38154e-08
1.10022e-05
4.2838e-07
8.12271e-06
3.73381e-06
1.89193e-06
8.68212e-06
-6.8178e-06
1.15077e-05
-1.38246e-05
7.15116e-06
-1.54771e-05
-4.50573e-06
-1.58723e-05
-1.43222e-05
-1.91393e-05
-1.57937e-05
1.44716e-05
1.77897e-05
9.57384e-06
4.9039e-05
-1.01466e-05
5.29877e-05
-2.69968e-05
4.12267e-05
-3.51019e-05
2.79288e-05
-4.05932e-05
2.83303e-05
-5.44919e-05
3.48654e-05
-8.11986e-05
4.28974e-05
-0.000117802
4.40528e-05
-9.44427e-05
1.00174e-05
-1.5046e-05
-1.51111e-05
-8.55693e-07
-9.22697e-06
-6.93379e-08
-4.65885e-06
2.67137e-07
-1.35317e-06
2.97189e-07
-1.45619e-07
3.44997e-07
1.68078e-07
1.32875e-06
1.33969e-07
1.63681e-06
-7.76824e-07
-2.11742e-06
4.06866e-07
-1.55649e-05
5.88848e-06
-3.00197e-05
5.49125e-06
-2.97573e-05
-1.004e-05
-2.4476e-05
-2.5971e-05
-3.2006e-05
4.55232e-05
-6.17304e-05
6.82847e-05
-7.73972e-05
4.28139e-05
-0.000105613
3.80103e-05
-0.000128948
4.05445e-05
-0.000149162
3.96721e-05
-0.000169033
4.39729e-05
-0.000136446
3.33913e-05
-8.26935e-05
3.02501e-06
-6.63155e-05
-1.36559e-06
-5.34817e-05
-2.14556e-05
-1.67066e-05
-2.23978e-05
-3.58586e-06
-1.55057e-05
-1.22802e-06
-3.58524e-06
-1.02826e-06
-3.84282e-07
-7.94818e-07
-8.8185e-08
-8.92401e-07
1.13481e-07
-2.58479e-06
1.78437e-07
-1.85978e-05
2.33568e-07
-2.2372e-05
-4.50185e-07
-2.16363e-05
-2.12749e-06
-5.63559e-05
-5.44938e-05
-7.37272e-05
-5.58997e-05
-0.000103053
0.000126923
-0.000143324
5.08989e-05
-0.000176855
2.89886e-05
-0.000221198
4.319e-05
-0.000240259
3.02809e-05
-0.000164966
1.39283e-05
-6.07236e-05
1.15462e-06
-1.63531e-05
1.47919e-06
-1.4431e-05
6.64517e-07
-3.23092e-05
1.03232e-07
-4.70945e-05
-1.41352e-05
-4.98138e-05
-2.44236e-05
-4.1191e-05
-2.86457e-05
-3.59065e-06
-9.92852e-06
-1.88292e-06
-2.09162e-06
-1.85775e-06
-2.31423e-07
-2.04509e-06
9.28529e-08
-2.38305e-06
3.30352e-07
-2.79726e-06
4.29322e-07
-3.98783e-06
4.21528e-07
-5.66469e-05
-2.81287e-06
-9.48788e-05
-2.48979e-05
-9.59044e-05
-7.74561e-05
-4.98575e-05
0.00014278
-6.04209e-05
2.06288e-05
-6.76438e-05
8.17089e-06
-5.21265e-05
3.36935e-06
-2.72554e-05
1.37491e-06
-8.01092e-06
6.08053e-07
-3.8935e-06
3.76947e-07
-2.80161e-06
3.11689e-07
-2.2526e-06
7.77242e-08
-2.31287e-06
-4.60249e-10
-2.74836e-05
-2.50722e-06
-5.41474e-05
-1.29433e-05
-5.20747e-05
-2.38494e-05
-2.40502e-05
-2.9873e-05
-3.00792e-06
-1.07321e-05
-1.72741e-06
-1.7199e-06
-1.57592e-06
-1.96819e-07
-1.47348e-06
1.23758e-07
-1.2485e-06
5.23007e-08
-9.1413e-07
-3.05352e-07
-3.46874e-06
-9.62704e-07
-1.54912e-05
-2.66036e-06
-3.00178e-05
-8.29482e-05
-2.27674e-05
8.11578e-05
-1.14134e-05
7.63809e-06
-5.45679e-06
1.67461e-06
-2.71028e-06
4.37828e-07
-1.48853e-06
1.09931e-07
-9.15646e-07
2.5237e-08
-5.71039e-07
1.56952e-08
-2.8825e-07
1.78544e-08
-2.16946e-07
2.06934e-09
-2.52181e-07
-3.42771e-09
-2.6119e-06
-3.12112e-07
-2.13638e-05
-1.48127e-06
-6.19338e-05
-1.16987e-05
-6.08081e-05
-2.48819e-05
-3.04277e-05
-3.30155e-05
-4.19525e-06
-1.90698e-05
-1.34609e-06
-3.15016e-06
-6.57895e-07
-7.16466e-07
-2.85911e-07
-6.67886e-07
-1.59286e-07
-9.42838e-07
-5.75311e-07
-1.10267e-06
-2.68174e-06
-1.25815e-06
-5.59525e-06
-5.71712e-05
-6.62056e-06
9.35597e-07
-1.71281e-06
2.18762e-06
-5.2112e-07
3.01233e-07
-1.58878e-07
5.47755e-08
-6.46876e-08
9.08593e-09
-4.38841e-08
1.75735e-09
-3.02457e-08
9.28592e-10
-1.41683e-08
8.3402e-10
-1.2333e-08
-1.90946e-12
-1.67672e-08
-4.08342e-10
-3.15115e-07
-2.46073e-08
-1.672e-06
-1.94553e-07
-1.66475e-05
-1.17283e-06
-6.92012e-05
-1.10587e-05
-7.69778e-05
-2.82395e-05
-6.19474e-05
-3.31479e-05
-1.59562e-05
-3.77503e-05
-2.65735e-06
-1.53059e-05
-1.38732e-06
-2.44877e-06
-1.1027e-06
-1.7833e-06
-1.40992e-06
-1.4997e-06
-1.30861e-06
-3.36606e-06
-1.93168e-06
-1.56293e-05
-1.41802e-06
-3.72325e-07
-2.32776e-07
7.19669e-07
-4.97193e-08
8.72436e-08
-1.05063e-08
8.62806e-09
-3.05145e-09
1.1087e-09
-1.81813e-09
1.88864e-10
-1.15745e-09
7.2883e-11
-4.33826e-10
3.73414e-11
-4.43882e-10
2.75813e-12
-8.494e-10
-4.15536e-12
-2.47945e-08
-8.40506e-10
-2.10392e-07
-1.03923e-08
-1.29472e-06
-9.59609e-08
-1.17017e-05
-6.77369e-07
-6.27582e-05
-7.73035e-06
-7.6046e-05
-2.07574e-05
-7.11587e-05
-4.17299e-05
-5.2948e-05
-3.14154e-05
-2.51406e-05
-3.17153e-05
-1.36057e-05
-2.87048e-05
-2.04633e-05
-3.05669e-05
-1.44457e-05
-5.90131e-05
-2.74905e-05
-5.41665e-06
-5.49502e-07
1.66343e-07
-6.03273e-08
1.93296e-07
-6.62107e-09
2.68346e-08
-9.97422e-10
2.07466e-09
-2.15485e-10
1.85762e-10
-8.63562e-11
2.6769e-11
-3.74918e-11
7.5503e-12
-7.51517e-12
2.42351e-12
-5.7764e-12
5.44538e-13
-1.10112e-11
-9.82141e-14
-8.4688e-10
-4.76417e-12
-1.1151e-08
-8.59219e-11
-1.053e-07
-1.4652e-09
-7.6282e-07
-1.72252e-08
-8.24127e-06
-2.29195e-07
-2.92035e-05
-1.48273e-06
-5.96347e-05
-7.44197e-06
-6.12594e-05
-2.43974e-05
-6.32704e-05
-5.77727e-05
-6.24795e-05
-6.90355e-05
-9.29561e-05
-6.76388e-05
-9.10798e-05
-6.73014e-05
-5.47746e-05
-7.10615e-05
-1.22327e-07
2.98611e-07
-1.93485e-08
8.49203e-08
-1.62362e-09
9.07173e-09
-1.6806e-10
5.06767e-10
-2.76576e-11
3.15368e-11
-7.70007e-12
3.67095e-12
-2.14853e-12
8.32552e-13
-2.69722e-13
2.52932e-13
-1.59367e-13
1.50864e-13
-1.19612e-12
1.16261e-13
-2.37019e-12
5.14156e-14
-8.65114e-11
-2.07665e-13
-1.55112e-09
-1.41028e-12
-1.88533e-08
-1.65771e-11
-2.479e-07
-3.20462e-10
-1.72764e-06
-3.01209e-09
-9.15699e-06
-1.98973e-08
-2.53969e-05
-1.10654e-07
-3.87462e-05
-5.65606e-07
-5.9315e-05
-2.48443e-06
-7.508e-05
-9.1671e-06
-0.000103932
-2.84587e-05
-6.92365e-05
-0.000102274
4.22005e-08
2.59626e-07
-8.06402e-09
1.54823e-07
-4.40114e-10
1.28399e-09
-2.93627e-11
8.05914e-11
-3.70967e-12
3.91867e-12
-8.08874e-13
4.82596e-13
-2.33412e-13
1.43014e-13
-1.04667e-13
1.483e-14
-1.97646e-13
4.19232e-15
-5.338e-13
6.19912e-14
-5.03885e-13
8.6857e-14
-9.1974e-13
9.28554e-14
-1.73887e-12
4.87409e-13
-1.77287e-11
3.29592e-13
-3.34323e-10
-2.58078e-12
-3.31403e-09
-6.21967e-11
-2.26519e-08
-6.43116e-10
-1.29209e-07
-4.67877e-09
-6.69392e-07
-2.84206e-08
-3.01664e-06
-1.51909e-07
-1.14865e-05
-7.65655e-07
-3.75985e-05
-2.66889e-06
-1.87796e-05
-9.60104e-05
8.82684e-08
1.71525e-07
-2.88603e-09
2.77085e-07
-6.37035e-11
2.93373e-09
-3.35128e-12
1.8299e-11
-4.5551e-13
7.32443e-13
-1.93396e-13
1.26063e-13
-1.51993e-13
-6.18392e-15
-1.94319e-13
-6.49387e-14
-6.18893e-13
-5.48337e-14
-9.94276e-14
-4.31409e-14
-2.89147e-14
-6.3095e-15
-7.69791e-14
4.80885e-14
-2.49725e-13
1.67489e-12
-7.22858e-13
4.55685e-12
-2.14306e-12
5.80512e-13
-6.59924e-11
-5.22272e-13
-6.91812e-10
-2.85758e-11
-5.10438e-09
-3.52871e-10
-3.21152e-08
-1.77067e-09
-1.77034e-07
-8.34366e-09
-9.04878e-07
-4.2992e-08
-3.44355e-06
-1.46125e-07
-5.5711e-07
-2.17076e-05
5.81824e-08
1.13193e-07
2.49478e-08
4.16205e-07
-6.65597e-12
3.49033e-08
-5.25197e-13
1.19264e-11
-1.80391e-13
3.30863e-13
-2.00266e-13
7.09559e-14
-2.17486e-13
-8.24588e-14
-9.36867e-14
-2.80923e-13
-8.2891e-14
-1.46108e-13
-5.53967e-15
-2.83181e-14
1.46895e-15
-3.5984e-15
4.60774e-14
8.66368e-16
2.38643e-12
3.76165e-12
1.07713e-12
6.73896e-12
-3.27227e-13
2.69941e-12
-3.48997e-12
1.07205e-12
-3.25824e-11
-1.65748e-12
-9.36666e-11
-2.94407e-10
-1.44946e-09
-5.00234e-10
-7.9489e-09
-2.219e-09
-3.50902e-08
-1.72291e-08
-1.17491e-07
-6.87187e-08
-1.25969e-07
-5.63417e-07
5.58965e-08
5.72892e-08
1.15292e-07
4.10141e-07
7.21855e-09
2.03042e-07
-9.39534e-15
7.23719e-09
-9.00589e-14
4.26003e-13
-6.32235e-13
5.56692e-13
-6.32585e-13
-6.2993e-14
-1.31686e-13
-3.9278e-13
-2.00315e-15
1.90259e-13
4.42424e-15
-3.3528e-14
6.56877e-15
-7.95358e-15
6.35604e-15
-4.78401e-17
5.24479e-12
2.27315e-12
6.12673e-12
6.86296e-12
2.04384e-12
8.74792e-12
6.19409e-14
1.47707e-12
-3.34405e-11
2.49574e-11
-2.17557e-09
9.15988e-11
-2.09459e-09
-2.82805e-09
-4.70134e-09
-1.00524e-09
-3.08181e-08
-9.70018e-09
-7.86397e-08
-8.42359e-08
-1.54791e-07
-1.29313e-07
3.09693e-08
1.60126e-08
1.43196e-07
3.22437e-07
6.32947e-08
2.73095e-07
1.19517e-08
9.98788e-08
7.81904e-10
1.13963e-08
6.10994e-12
7.76269e-10
4.00271e-12
2.1928e-11
2.96945e-12
1.92765e-11
2.95856e-13
-3.24069e-13
1.67051e-14
-1.57178e-14
2.3319e-14
-1.6597e-14
2.03782e-14
2.90069e-16
7.01872e-12
1.31151e-12
8.62641e-12
6.2612e-12
4.10904e-12
8.42921e-12
1.98456e-12
1.85584e-12
2.48087e-11
1.5434e-12
-3.63585e-09
8.98328e-10
-5.58451e-09
2.11229e-09
-2.79957e-10
-7.56097e-10
-3.7923e-08
-1.07622e-09
-1.79118e-07
-3.27343e-08
-1.51432e-07
-2.07397e-07
1.50266e-08
9.84223e-10
9.46272e-08
4.97751e-08
1.14391e-07
2.05813e-07
4.90538e-08
1.39653e-07
2.89396e-09
6.78483e-08
1.71797e-10
1.98748e-08
-8.74452e-11
3.4639e-10
1.78994e-11
-2.76007e-10
-3.11423e-12
-5.19695e-11
-3.95066e-14
-3.85331e-12
9.222e-14
-1.64174e-13
8.56669e-14
3.66549e-15
3.32027e-12
7.07412e-14
1.16981e-11
2.67165e-12
8.82294e-12
6.58333e-12
1.66891e-12
1.97881e-12
2.48557e-12
3.38299e-13
8.54446e-10
4.57819e-11
-2.56745e-09
5.34058e-09
-5.25128e-09
4.84229e-09
-5.61599e-09
-7.12917e-09
-3.48097e-08
-8.99731e-09
-5.59517e-08
-1.46761e-07
9.29272e-10
5.36896e-11
3.00404e-08
4.08734e-09
8.71744e-08
2.80025e-08
7.66099e-08
6.54989e-08
4.70348e-08
5.45281e-08
1.17754e-08
2.99926e-08
5.09264e-10
3.39191e-09
5.90457e-11
-2.74367e-11
5.45567e-12
-2.87089e-11
7.21578e-13
-2.29382e-12
2.11769e-13
7.1174e-14
1.63145e-13
3.5291e-14
1.04444e-13
1.20995e-14
3.00266e-12
5.35967e-14
3.42958e-12
7.84665e-14
1.16547e-12
6.33187e-13
1.07371e-12
1.50749e-13
4.44111e-11
2.32939e-12
5.68747e-09
1.44658e-10
7.96618e-09
9.56831e-09
9.88931e-09
-1.72064e-09
2.95596e-09
-2.79223e-08
-7.54441e-08
-5.0313e-09
5.22449e-11
1.42465e-12
3.71175e-09
3.97243e-10
1.91047e-08
3.71744e-09
5.30199e-08
5.2967e-09
4.02863e-08
1.04598e-08
1.24664e-08
6.43286e-09
7.73508e-10
3.1774e-09
1.25321e-10
2.21766e-10
1.3639e-11
2.35807e-11
1.33382e-12
2.77765e-12
2.30999e-13
4.15535e-13
9.26595e-14
5.85269e-14
3.46694e-14
1.0173e-14
8.34312e-14
2.63281e-15
1.5924e-13
7.36849e-15
5.16709e-13
2.10325e-14
2.96622e-13
9.06347e-14
2.37999e-12
2.36994e-13
1.31173e-10
1.53947e-11
1.1031e-08
3.13741e-10
6.28368e-08
6.85682e-09
4.65142e-08
-3.87126e-08
-9.68532e-08
1.76244e-08
1.84389e-13
1.24026e-12
3.94583e-10
-3.90868e-12
2.8643e-09
5.03246e-10
5.22989e-09
1.22761e-09
5.93662e-09
9.46365e-10
3.95671e-09
-5.40764e-10
1.20992e-09
-2.26917e-10
1.70433e-11
1.21202e-10
2.76671e-12
7.2435e-12
1.92081e-13
1.45115e-12
3.96681e-14
1.78513e-13
1.76476e-14
2.47529e-14
9.42027e-15
5.41457e-15
7.28413e-15
2.2822e-15
1.25346e-14
2.48763e-15
7.60798e-14
7.11482e-15
9.47674e-14
2.41294e-14
3.10312e-13
1.10422e-14
1.49338e-11
7.51986e-13
3.23607e-10
1.154e-11
7.11665e-09
1.32657e-10
4.24232e-08
2.43595e-09
-4.85761e-08
4.01134e-08
1.06173e-12
3.83464e-13
-5.68816e-12
-2.57402e-12
3.33468e-10
4.89617e-11
9.38833e-10
2.02744e-10
1.22097e-09
1.60269e-10
4.24065e-10
-4.35654e-11
1.07367e-10
-2.41694e-11
3.31693e-11
-9.03216e-12
-3.15103e-13
4.03203e-13
-2.12933e-14
1.27935e-13
7.77607e-15
3.24341e-14
1.11191e-14
8.58113e-15
5.69668e-15
3.15923e-15
4.78933e-15
1.94935e-15
5.34181e-15
2.05077e-15
1.98361e-14
2.97913e-15
3.35977e-14
9.11271e-15
3.34364e-14
3.35004e-15
7.70793e-13
1.35612e-14
1.25252e-11
2.44014e-13
1.46447e-10
2.26594e-12
2.60126e-09
7.30832e-12
-6.08544e-09
5.53355e-08
4.87423e-13
1.04414e-13
-3.45015e-12
-8.79402e-14
2.04521e-11
6.31139e-12
1.08981e-10
2.94543e-11
1.49457e-10
2.34852e-11
5.64479e-11
-3.7114e-12
1.54582e-11
-2.16423e-12
1.89426e-12
-6.84921e-13
2.02903e-13
-6.34276e-14
3.15963e-14
2.23629e-14
1.5876e-14
1.08409e-14
5.98806e-15
3.65324e-15
3.38257e-15
1.48507e-15
3.14681e-15
1.20707e-15
3.39447e-15
1.20103e-15
6.09981e-15
1.19136e-15
1.2641e-14
2.82761e-15
5.72348e-15
2.3672e-15
1.61099e-14
5.68507e-16
2.74446e-13
1.05567e-14
2.61895e-12
3.7661e-14
1.03628e-11
3.5056e-14
-8.28265e-14
1.82534e-09
3.19204e-14
4.75778e-14
-3.98251e-13
6.39885e-14
1.70147e-12
1.02354e-12
1.33516e-11
3.74489e-12
1.839e-11
2.98e-12
6.76993e-12
-2.92472e-13
1.70601e-12
-1.90183e-13
3.1937e-13
-2.61168e-14
5.56984e-14
1.24043e-14
1.77808e-14
1.06606e-14
5.30368e-15
3.10328e-15
2.11936e-15
9.28257e-16
1.55369e-15
5.7648e-16
1.48229e-15
4.80201e-16
1.50726e-15
4.32153e-16
1.76143e-15
3.63876e-16
3.60135e-15
5.73752e-16
3.03359e-15
7.21953e-16
1.71031e-15
3.05749e-16
1.26085e-14
1.58737e-16
5.23841e-14
-5.87154e-17
8.91953e-14
-1.12714e-17
-1.45465e-15
1.17288e-14
-2.60894e-17
7.42442e-15
-1.48173e-14
2.5832e-14
3.73507e-13
1.78143e-13
1.71552e-12
4.23616e-13
2.21322e-12
3.44361e-13
8.36417e-13
9.77039e-15
2.22186e-13
3.72483e-15
5.05368e-14
1.42951e-14
1.5203e-14
9.37396e-15
4.03088e-15
2.57785e-15
1.08576e-15
5.16488e-16
6.35908e-16
2.19781e-16
5.31293e-16
1.69867e-16
4.78263e-16
1.37537e-16
4.42201e-16
1.04597e-16
4.40137e-16
7.95053e-17
7.46887e-16
7.31355e-17
1.0794e-15
1.50991e-16
8.35778e-16
1.71141e-16
7.27539e-16
9.69917e-17
7.85196e-16
2.74045e-17
1.04405e-15
-5.99577e-17
-4.98634e-16
3.777e-15
1.59109e-16
1.2914e-15
4.6417e-15
1.13761e-14
6.61689e-14
3.0051e-14
2.01611e-13
6.08759e-14
2.56415e-13
5.18861e-14
1.00123e-13
4.97416e-15
3.03062e-14
1.2813e-14
1.03454e-14
6.72992e-15
2.814e-15
1.99713e-15
5.62533e-16
3.56859e-16
2.02206e-16
7.8305e-17
1.51846e-16
4.35454e-17
1.36646e-16
3.67176e-17
1.20562e-16
2.98664e-17
9.79082e-17
2.10213e-17
9.08155e-17
1.39704e-17
1.01328e-16
1.11556e-17
2.57539e-16
2.49203e-17
4.57191e-16
7.46367e-17
5.40375e-16
7.83233e-17
4.99091e-16
1.98803e-17
1.02021e-15
-5.13289e-16
-3.69673e-15
5.91596e-15
3.67203e-17
2.1463e-16
1.33124e-15
3.00012e-15
9.71046e-15
6.74686e-15
2.36041e-14
8.6583e-15
2.83363e-14
8.4461e-15
1.22851e-14
6.69912e-15
5.40594e-15
3.61302e-15
1.53654e-15
1.12555e-15
3.32972e-16
2.33891e-16
7.23836e-17
4.40935e-17
3.21634e-17
1.04404e-17
2.83575e-17
6.63738e-18
2.74904e-17
6.15754e-18
2.43757e-17
5.17716e-18
1.84555e-17
3.65112e-18
1.6052e-17
2.25038e-18
1.67403e-17
2.02514e-18
8.78574e-17
1.01559e-17
2.86786e-16
5.70137e-17
4.92445e-16
6.98968e-17
4.57309e-16
1.91287e-17
9.29378e-15
-3.37495e-16
-2.75806e-15
1.68827e-14
6.11029e-18
3.19432e-17
2.73258e-16
4.11782e-16
1.41984e-15
1.23838e-15
2.78947e-15
1.88238e-15
3.30971e-15
1.80844e-15
1.85564e-15
1.29576e-15
6.29411e-16
4.50514e-16
1.65584e-16
1.16818e-16
3.70859e-17
2.56199e-17
8.47996e-18
4.98987e-18
4.25321e-18
1.22818e-18
4.09429e-18
8.25179e-19
4.36223e-18
8.52155e-19
4.01273e-18
7.39111e-19
3.00542e-18
5.37482e-19
2.50889e-18
3.24351e-19
3.29791e-18
3.49738e-19
4.5319e-17
4.97573e-18
2.75209e-16
3.20096e-17
4.35239e-16
6.19476e-17
3.81493e-16
1.88863e-17
5.78479e-15
-6.4567e-17
-3.65171e-16
1.28747e-14
8.99761e-19
4.32753e-18
4.06757e-17
5.06389e-17
1.84365e-16
1.37974e-16
3.32599e-16
2.35437e-16
3.79877e-16
2.16313e-16
1.88883e-16
1.18384e-16
6.30649e-17
4.25356e-17
1.68857e-17
1.164e-17
3.83382e-18
2.60373e-18
9.08568e-19
5.16212e-19
4.94396e-19
1.3382e-19
4.89612e-19
9.42377e-20
5.7277e-19
1.03575e-19
5.49509e-19
9.10403e-20
4.16857e-19
6.76096e-20
3.36954e-19
3.96521e-20
5.338e-19
4.34896e-20
1.59643e-17
1.21214e-18
1.3141e-16
1.10717e-17
2.30985e-16
2.27506e-17
2.11423e-16
9.30956e-18
9.23272e-16
-2.48266e-18
-7.40931e-18
1.11269e-15
1.21677e-19
5.43753e-19
5.10221e-18
5.96163e-18
1.90744e-17
1.29924e-17
3.2641e-17
2.03341e-17
3.57489e-17
1.86116e-17
1.76837e-17
1.05849e-17
5.95626e-18
3.92686e-18
1.59805e-18
1.08552e-18
3.6551e-19
2.43976e-19
9.06475e-20
4.92714e-20
5.37036e-20
1.39156e-20
5.40005e-20
1.04815e-20
6.66927e-20
1.17126e-20
6.50155e-20
1.02311e-20
4.96343e-20
7.56588e-21
3.83082e-20
4.20758e-21
4.92451e-20
3.26326e-21
2.18963e-18
7.0091e-20
2.37608e-17
8.14219e-19
5.07443e-17
2.22797e-18
5.04308e-17
1.27342e-18
3.29733e-17
-6.55512e-20
-4.48443e-19
2.53684e-17
1.51257e-20
6.38141e-20
5.72758e-19
6.53537e-19
1.77235e-18
1.19268e-18
2.89494e-18
1.74719e-18
3.10694e-18
1.59653e-18
1.55192e-18
9.15047e-19
5.23388e-19
3.40714e-19
1.40099e-19
9.42104e-20
3.22719e-20
2.12018e-20
8.51995e-21
4.37831e-21
5.60779e-21
1.38607e-21
5.762e-21
1.14377e-21
7.19404e-21
1.2613e-21
6.94414e-21
1.08247e-21
5.24433e-21
7.81283e-22
3.32035e-21
4.25132e-22
3.11094e-21
2.04715e-22
7.37635e-20
7.93368e-22
1.02706e-18
9.55886e-21
3.42258e-18
3.76811e-20
3.91221e-18
4.57153e-20
2.18023e-18
2.18957e-21
-2.45399e-20
2.0129e-18
1.73436e-21
7.02579e-21
5.81905e-20
6.63557e-20
1.52378e-19
1.03312e-19
2.40278e-19
1.43647e-19
2.53843e-19
1.30593e-19
1.27285e-19
7.46423e-20
4.28317e-20
2.77251e-20
1.14224e-20
7.64623e-21
2.65181e-21
1.71934e-21
7.58757e-22
3.64998e-22
5.52294e-22
1.31965e-22
6.04617e-22
1.20373e-22
7.31978e-22
1.29138e-22
6.86337e-22
1.08372e-22
5.04906e-22
7.55131e-23
2.85697e-22
4.0548e-23
1.82462e-22
1.63458e-23
9.94801e-22
1.15275e-23
1.16485e-20
1.40307e-22
6.85213e-20
3.33999e-22
1.34984e-19
1.08144e-21
1.26561e-19
3.87543e-22
-1.09047e-21
1.45765e-19
1.84969e-22
7.29053e-22
5.38745e-21
6.283e-21
1.21831e-20
8.41146e-21
1.8736e-20
1.11845e-20
1.95291e-20
1.01146e-20
9.78645e-21
5.75126e-21
3.27731e-21
2.12548e-21
8.69397e-22
5.83197e-22
2.0378e-22
1.30822e-22
6.43516e-23
2.87634e-23
5.22015e-23
1.20262e-23
5.98583e-23
1.20273e-23
7.01435e-23
1.24459e-23
6.32849e-23
1.01923e-23
4.47854e-23
6.83183e-24
2.41962e-23
3.51836e-24
1.42883e-23
1.45856e-24
1.7407e-23
5.86171e-25
1.75505e-22
1.98598e-24
1.17805e-21
8.7914e-24
5.35146e-21
3.3502e-23
7.63981e-21
3.21663e-23
-3.3066e-23
8.32937e-21
1.85162e-23
7.16204e-23
4.57366e-22
5.58383e-22
9.09998e-22
6.47115e-22
1.3772e-21
8.27216e-22
1.41871e-21
7.44263e-22
7.0786e-22
4.20221e-22
2.35312e-22
1.54149e-22
6.20017e-23
4.19873e-23
1.47216e-23
9.38812e-24
5.21876e-24
2.16048e-24
4.71388e-24
1.05081e-24
5.58047e-24
1.13882e-24
6.28568e-24
1.1212e-24
5.43841e-24
8.96299e-25
3.67407e-24
5.77391e-25
1.89309e-24
2.81511e-25
1.01326e-24
1.15494e-25
8.91322e-25
8.29674e-26
6.39064e-24
2.93742e-25
3.82471e-23
5.81619e-25
1.58329e-22
1.12783e-24
2.94842e-22
1.17349e-24
-1.35876e-24
4.09144e-22
1.75425e-24
6.68482e-24
3.57538e-23
4.68352e-23
6.36651e-23
4.72855e-23
9.57771e-23
5.83412e-23
9.7603e-23
5.2213e-23
4.83231e-23
2.92207e-23
1.59091e-23
1.06175e-23
4.15842e-24
2.86555e-24
1.00579e-24
6.3874e-25
4.07065e-25
1.5604e-25
3.85166e-25
8.84918e-26
4.95356e-25
1.01999e-25
5.25776e-25
9.47918e-26
4.35542e-25
7.39629e-26
2.7934e-25
4.56423e-26
1.34805e-25
2.09883e-26
8.79335e-26
7.96378e-27
8.8479e-26
8.04974e-27
5.77249e-25
2.64384e-26
1.85961e-24
4.50013e-26
4.33478e-24
4.69805e-26
9.88945e-24
6.59348e-26
-5.22367e-26
4.06229e-23
1.58444e-25
5.93977e-25
2.5943e-24
3.72853e-24
4.16658e-24
3.29808e-24
6.32283e-24
3.93821e-24
6.37585e-24
3.50404e-24
3.12309e-24
1.94064e-24
1.0162e-24
6.97245e-25
2.63291e-25
1.86169e-25
6.54079e-26
4.14249e-26
3.06709e-26
1.09341e-26
3.01954e-26
7.20002e-27
3.96097e-26
8.63451e-27
4.12305e-26
7.63159e-27
3.26414e-26
5.76412e-27
1.96994e-26
3.38463e-27
8.87565e-27
1.46391e-27
6.07918e-27
5.27243e-28
7.23989e-27
5.34637e-28
3.9244e-26
1.53658e-27
9.81012e-26
2.80202e-27
1.77797e-25
3.04935e-27
7.17072e-25
1.00347e-26
2.51527e-26
8.29589e-24
1.37014e-26
5.00929e-26
1.78275e-25
2.83359e-25
2.55641e-25
2.2068e-25
3.97409e-25
2.55501e-25
3.96413e-25
2.25728e-25
1.91627e-25
1.23536e-25
6.15164e-26
4.38218e-26
1.57951e-26
1.15615e-26
4.07918e-27
2.5754e-27
2.24193e-27
7.50416e-28
2.27674e-27
5.68599e-28
3.06178e-27
6.8732e-28
3.00643e-27
5.94803e-28
2.2726e-27
4.26031e-28
1.29243e-27
2.36673e-28
5.44236e-28
9.60253e-29
3.68018e-28
3.31105e-29
4.72312e-28
3.28775e-29
2.22243e-27
8.78767e-29
5.02712e-27
1.47533e-28
1.00595e-26
2.2252e-28
9.28739e-26
1.84841e-27
9.45099e-27
1.54826e-24
1.12795e-27
3.90569e-27
1.26064e-26
2.0668e-26
1.57319e-26
1.42316e-26
2.38666e-26
1.60016e-26
2.34888e-26
1.40075e-26
1.11883e-26
7.56552e-27
3.53812e-27
2.64608e-27
9.00776e-28
6.89145e-28
2.45724e-28
1.54442e-28
1.57088e-28
5.08127e-29
1.68263e-28
4.38394e-29
2.24319e-28
5.23422e-29
2.0974e-28
4.42948e-29
1.48973e-28
3.011e-29
7.92953e-29
1.57326e-29
3.11695e-29
5.95127e-30
2.09454e-29
1.97518e-30
2.78511e-29
2.00855e-30
1.16078e-28
5.01697e-30
2.41618e-28
7.50582e-30
6.38677e-28
1.62962e-29
1.168e-26
2.57009e-28
1.33744e-27
1.8403e-25
8.42789e-29
2.43782e-28
8.62374e-28
1.44822e-27
9.35477e-28
8.87318e-28
1.3716e-27
9.69671e-28
1.32876e-27
8.40334e-28
6.22506e-28
4.47454e-28
1.93629e-28
1.54106e-28
4.89546e-29
3.95917e-29
1.43964e-29
8.99579e-30
1.05513e-29
3.42245e-30
1.20651e-29
3.30857e-30
1.56033e-29
3.84853e-30
1.38623e-29
3.16012e-30
9.21956e-30
2.0378e-30
4.55863e-30
9.971e-31
1.66931e-30
3.49565e-31
1.12313e-30
1.12863e-31
1.58496e-30
1.2213e-31
5.74808e-30
2.80077e-31
1.11414e-29
3.93783e-31
4.27146e-29
1.32272e-30
1.18215e-27
2.96189e-29
1.70754e-28
1.62422e-26
4.43364e-30
1.44279e-28
5.61935e-29
9.39725e-29
5.31932e-29
5.27627e-29
7.54163e-29
5.67549e-29
7.1794e-29