/*--------------------------------*- C++ -*----------------------------------*\
| =========                 |                                                 |
| \\      /  F ield         | OpenFOAM: The Open Source CFD Toolbox           |
|  \\    /   O peration     | Version:  5.x                                   |
|   \\  /    A nd           | Web:      www.OpenFOAM.org                      |
|    \\/     M anipulation  |                                                 |
\*---------------------------------------------------------------------------*/
FoamFile
{
    version     2.0;
    format      ascii;
    class       volScalarField;
    location    "0.9";
    object      alpha.water;
}
// * * * * * * * * * * * * * * * * * * * * * * * * * * * * * * * * * * * * * //

dimensions      [0 0 0 0 0 0 0];

internalField   nonuniform List<scalar> 
2268
(
1
1
1
1
1
1
1
1
1
1
1
1
1
1
0.999803
0.974589
0.896531
0.978681
1
0.995308
0.992665
0.998402
0.999899
1
1
1
1
1
1
1
1
1
1
1
1
1
0.999998
0.988331
0.922644
0.912444
0.979258
0.995968
0.966916
0.966907
0.990066
1
1
1
1
1
1
1
1
1
1
1
1
1
1
1
0.999801
0.986238
0.963292
0.964692
0.96471
0.968477
0.967262
0.991531
1
1
1
1
1
1
1
1
1
1
1
1
1
1
1
1
0.999999
0.999988
0.996738
0.998868
1
0.992895
1
0.999981
1
1
1
1
1
1
1
1
1
1
1
1
1
1
0.999999
1
1
1
1
1
1
1
1
1
1
1
1
1
1
1
1
1
1
0.999999
0.999996
0.999996
0.999999
1
1
1
1
1
1
1
1
1
1
1
1
1
1
1
1
1
1
0.999998
0.999979
0.999909
0.999882
0.99996
0.999998
1
1
1
1
1
1
1
1
1
1
1
1
0.999974
0.997637
0.99735
0.99999
0.999998
0.999964
0.999607
0.995748
0.955238
0.947945
0.977783
0.999737
1
1
1
1
1
0.999999
1
0.986747
0.999812
0.98724
0.981091
0.99006
0.99847
1
0.964644
0.869619
0.636981
0.789337
0.962331
1
1
1
1
0.920366
0.766431
0.77119
1
0.975127
0.836942
0.838689
0.925748
0.999727
0.999936
0.966824
0.577775
0.246702
0.385138
0.63755
0.763992
0.763321
0.844023
0.901838
0.920148
0.794211
0.209051
1
0.950768
0.826739
0.887761
0.967711
0.999445
0.999768
0.935579
0.255072
0.246568
0.316254
0.317355
0.319801
0.39364
0.469084
0.471219
0.855017
0.830996
0.145119
1
0.925618
0.826739
0.996198
0.997664
0.997763
0.999664
0.636267
0.0923349
0.456238
0.628624
0.628525
0.677045
0.738438
0.749547
0.82338
0.678272
0.588951
0.159536
0.841806
0.829427
0.830111
0.997291
0.997568
0.997664
0.81249
0.107248
0.0882351
0.223909
0.62865
0.628624
0.597055
0.583034
0.836433
0.898137
0.914607
0.695546
0.442754
0.855567
0.828476
0.952045
0.997011
0.979795
0.635435
0.190211
0.0862333
0.0870128
0.111201
0.529745
0.610876
0.369222
0.409286
0.806242
0.894276
0.911344
0.937729
0.897626
0.949469
0.86975
0.968485
0.935
0.513943
0.13757
0.0846691
0.0855234
0.0862333
0.0870128
0.423153
0.572099
0.370817
0.389914
0.424591
0.28481
0.317036
0.934569
1
0.979313
0.993767
0.971343
0.657789
0.165935
0.0839358
0.0842312
0.0846691
0.0903143
0.421033
0.53125
0.543317
0.500493
0.178557
0.0315384
0.000541158
0.00220102
0.42347
0.784741
1
1
1
1
1
0.999999
0.999987
0.99999
0.999966
0.999532
0.899639
0.563407
0.369381
0.350863
0.424611
0.583141
0.74602
0.886723
0.98295
1
0.999993
0.999954
0.999828
0.969884
1
1
1
0.928646
0.892084
0.917462
0.991621
0.999532
0.887169
0.222411
0.00991945
0.00561128
0.00529192
0.00530261
0.00552025
0.0326587
0.133189
0.365523
0.677518
0.810461
0.824381
0.921371
0.958496
0.975999
0.815348
0.736128
0.910423
0.903973
0.9159
0.78392
0.347633
0.173507
0.137973
0.0507523
0.0205452
0.00534363
0.00529127
0.00534363
0.00551626
0.00693725
0.0693443
0.158297
0.164688
0.460809
0.848863
0.894317
0.699137
0.600872
0.763703
0.823877
0.631244
0.258555
0.0617117
0.0085075
0.0609311
0.139195
0.154561
0.162629
0.0442208
0.00534363
0.00551626
0.00568144
0.00597002
0.00662116
0.00739372
0.292222
0.706196
0.92304
0.718333
0.116215
0.174748
0.197574
0.0857668
0.0331627
0.00258747
0.000944808
0.000624313
0.000998013
0.0519105
0.155815
0.170536
0.167144
0.008947
0.00568144
0.00582493
0.00591476
0.00605989
0.00648951
0.00703933
0.00901624
0.519023
0.518662
0.00895143
0.00385205
0.00113491
0.000338646
0.000143207
9.79289e-05
7.43716e-05
4.36451e-05
0.00012371
0.000738596
0.0135164
0.15697
0.2073
0.204924
0.0179436
0.0059148
0.00605989
0.00644093
0.00666818
0.0067185
0.00703921
0.0916965
0.167105
0.00276699
0.000881735
0.000151463
3.45761e-05
1.3824e-05
8.63304e-06
5.25334e-06
2.38267e-06
7.57436e-06
6.67251e-05
0.000488975
0.00742347
0.171622
0.278514
0.299885
0.116599
0.0184482
0.00666818
0.00671785
0.00703915
0.0112956
0.030097
0.0028514
0.000792436
0.000159072
2.36824e-05
3.4133e-06
1.31864e-06
7.86409e-07
3.90466e-07
1.06704e-07
1.14233e-07
1.67035e-06
1.94756e-05
0.000173733
0.00119094
0.165019
0.318338
0.327805
0.331169
0.135182
0.0947825
0.0895489
0.177724
0.146351
-7.72029e-05
0.000160936
2.34253e-05
3.47648e-06
4.02669e-07
1.06835e-07
5.64355e-08
2.28606e-08
6.35135e-09
1.3762e-08
6.02879e-08
1.41237e-07
7.01893e-07
1.8759e-05
0.000141348
0.0342562
0.286963
0.397313
0.444415
0.472823
0.512463
0.633988
0.643302
-6.3247e-05
3.15362e-05
2.38357e-06
4.1138e-07
4.47029e-08
9.11062e-09
3.64523e-09
2.2343e-09
2.56296e-09
1.03276e-08
9.81088e-08
3.96207e-08
3.74776e-08
-6.61439e-08
1.038e-07
4.4715e-07
1.00664e-05
0.00389216
0.204231
0.332866
0.454332
0.577518
0.728136
-1.07009e-05
6.42115e-05
5.27888e-07
4.76221e-08
6.32547e-09
1.91234e-09
1.54429e-09
1.55778e-09
2.2506e-09
1.6111e-08
6.15756e-08
4.35728e-08
4.18623e-08
4.29755e-08
4.23905e-08
9.48412e-08
6.95116e-07
4.50447e-06
2.61273e-05
0.000130879
0.000644057
0.0032135
0.450528
-5.90667e-07
6.26186e-05
3.03819e-06
6.32547e-09
1.94599e-09
1.52398e-09
1.53943e-09
1.55487e-09
3.32503e-09
1.78398e-08
5.83631e-09
5.82344e-09
4.08301e-08
4.28425e-08
3.8878e-08
2.94336e-08
7.79352e-08
7.00972e-07
2.85191e-06
9.42011e-06
3.57199e-05
0.000125733
0.000411209
-1.97215e-08
0.000507165
1.83721e-05
1.97153e-09
1.52398e-09
1.52398e-09
1.52398e-09
1.54945e-09
1.47193e-09
2.94264e-09
4.11235e-10
2.43014e-10
1.247e-07
2.37306e-07
3.82578e-08
2.72325e-08
2.94893e-08
9.43001e-08
6.92524e-07
2.92996e-06
9.50996e-06
3.43266e-05
0.00011788
-2.96941e-09
0.000563937
7.15441e-05
1.83549e-09
1.69169e-09
1.52398e-09
1.6585e-09
1.44608e-09
4.28304e-10
2.46027e-10
2.43014e-10
2.43937e-10
2.18701e-07
2.43382e-07
8.41174e-08
2.7246e-08
2.29568e-08
1.52721e-05
2.96436e-05
9.64057e-06
6.01635e-05
0.000326565
0.000444301
1.54923e-05
0.000570985
0.000556251
4.40649e-05
1.83442e-09
1.79606e-09
2.02109e-08
5.16804e-08
2.78377e-08
7.07329e-10
2.46027e-10
2.43015e-10
1.45708e-07
2.43382e-07
2.20407e-07
2.70207e-08
4.98612e-09
2.0357e-05
0.000135573
0.000120046
0.000134156
0.000960727
0.00114336
-4.00017e-10
0.000384182
0.000483859
0.000372607
0.00015243
1.89983e-05
1.60558e-07
3.47159e-07
1.32565e-07
3.23757e-09
3.59464e-10
2.47267e-10
3.60704e-10
2.09103e-07
2.15424e-07
3.65109e-08
3.0047e-09
4.97869e-09
0.000134955
0.000376279
0.000184437
0.000188608
0.00116254
-1.36627e-10
1.92627e-05
0.000210961
0.000353345
0.000279082
0.000193988
3.86766e-05
1.0338e-06
1.35138e-07
1.42845e-08
1.52321e-09
3.60704e-10
3.59325e-10
2.24733e-08
5.92817e-08
2.7808e-08
2.10266e-09
1.7657e-09
3.36198e-08
0.000378342
0.000661376
0.000407706
0.000416334
-4.81773e-11
9.3392e-08
1.70525e-05
7.79882e-05
0.000184974
0.000168342
4.12224e-05
1.13367e-06
1.61299e-07
1.91372e-08
2.06007e-09
3.59325e-10
1.97505e-10
7.98684e-11
1.11715e-10
6.33186e-09
2.07589e-09
2.77787e-10
2.12101e-09
4.04514e-07
0.000377369
0.00139829
0.00154368
2.18153e-25
4.40561e-08
2.56861e-06
5.98574e-06
1.76237e-05
1.47072e-05
1.3999e-05
3.45125e-06
7.16423e-08
9.07249e-09
1.0849e-09
2.111e-10
9.81942e-11
5.27392e-11
5.46656e-11
6.3202e-10
8.02414e-10
7.2644e-11
2.74986e-10
1.46779e-08
1.75874e-07
0.000573722
0.00156426
-2.25642e-24
2.6729e-08
4.17081e-07
1.34702e-06
1.37225e-06
7.55473e-07
2.7866e-07
4.46525e-07
7.32824e-08
2.38742e-09
3.98833e-10
1.30783e-10
7.13905e-11
4.79611e-11
5.16607e-11
1.28681e-10
3.28265e-10
6.46508e-11
5.79702e-11
9.14096e-10
6.60442e-09
2.66085e-08
0.000964172
6.3995e-10
6.34249e-09
6.84704e-08
2.52351e-07
2.47956e-07
1.2854e-07
4.48943e-08
1.2182e-08
4.55057e-09
7.34511e-10
1.93142e-10
8.03411e-11
4.1111e-11
3.2883e-11
3.49859e-11
4.82803e-11
1.24256e-10
6.50896e-11
1.55045e-11
4.01768e-11
1.56515e-10
3.04592e-10
5.07079e-06
4.79091e-10
1.22674e-09
1.09479e-08
3.96407e-08
3.82446e-08
1.92946e-08
7.20694e-09
1.80812e-09
5.20601e-10
1.93351e-10
7.30026e-11
2.92354e-11
1.82337e-11
1.60032e-11
1.62042e-11
1.70598e-11
3.55573e-11
3.26058e-11
1.18353e-11
7.05846e-12
6.80286e-12
7.50199e-12
1.52366e-11
1.48081e-10
2.28833e-10
1.68859e-09
5.40662e-09
5.17557e-09
2.64313e-09
1.07143e-09
3.58681e-10
1.48212e-10
5.69217e-11
1.64664e-11
7.81984e-12
6.36404e-12
5.65688e-12
5.07863e-12
4.65163e-12
6.18024e-12
1.07414e-11
8.8869e-12
6.35376e-12
5.04252e-12
7.12957e-12
2.06414e-11
2.57441e-11
9.29769e-11
3.49919e-10
6.91886e-10
6.617e-10
4.19065e-10
1.8081e-10
1.00406e-10
4.23535e-11
1.05519e-11
2.68396e-12
1.80704e-12
1.66695e-12
1.49642e-12
1.22481e-12
9.85005e-13
9.99812e-13
1.99741e-12
3.87305e-12
5.45688e-12
4.93571e-12
7.46114e-12
3.80475e-11
4.60708e-12
3.88451e-11
6.0233e-11
1.10856e-10
1.05577e-10
7.1664e-11
5.40865e-11
2.51283e-11
6.79807e-12
1.36768e-12
3.93254e-13
3.27839e-13
3.33863e-13
3.09977e-13
2.4758e-13
1.81218e-13
1.83741e-13
6.07649e-13
3.2212e-12
5.45396e-12
4.84533e-12
6.25231e-11
1.89176e-10
7.58315e-13
8.28716e-12
1.70494e-11
2.283e-11
2.33494e-11
2.06001e-11
1.1005e-11
3.35963e-12
7.79612e-13
1.64368e-13
5.04383e-14
4.67018e-14
5.34748e-14
5.16975e-14
4.23255e-14
2.98942e-14
3.51293e-14
3.09942e-13
2.18214e-12
5.35055e-12
4.57016e-12
4.2945e-11
1.40814e-10
1.11963e-13
1.09135e-12
3.03408e-12
4.48193e-12
4.3474e-12
3.15859e-12
1.21774e-12
3.50483e-13
8.41966e-14
1.82599e-14
5.91315e-15
5.76414e-15
7.25197e-15
7.22152e-15
6.11697e-15
4.24984e-15
5.62061e-15
1.13156e-13
1.08804e-12
3.13004e-12
2.85961e-12
9.34255e-12
1.60328e-11
1.51642e-14
1.35435e-13
3.21325e-13
5.08725e-13
4.7018e-13
2.93898e-13
1.17278e-13
3.47997e-14
8.43848e-15
1.87709e-15
6.67204e-16
6.78426e-16
8.88148e-16
8.92302e-16
7.67573e-16
5.10236e-16
5.87754e-16
1.60812e-14
2.03265e-13
7.18471e-13
7.51153e-13
5.88901e-13
4.06028e-13
1.91196e-15
1.60453e-14
3.10671e-14
4.51239e-14
4.16977e-14
2.66928e-14
1.08367e-14
3.22564e-15
7.83328e-16
1.80128e-16
7.32518e-17
7.88074e-17
1.02578e-16
1.02034e-16
8.69658e-17
5.63503e-17
4.1657e-17
4.53777e-16
7.95477e-15
3.93459e-14
6.30897e-14
4.19801e-14
3.45026e-14
2.25742e-16
1.76856e-15
2.90877e-15
3.9557e-15
3.64042e-15
2.31912e-15
9.3976e-16
2.7885e-16
6.7717e-17
1.62661e-17
7.75471e-18
8.91907e-18
1.12979e-17
1.10095e-17
9.12301e-18
5.8627e-18
3.18034e-18
9.84974e-19
2.28286e-17
5.00053e-16
2.22978e-15
2.29104e-15
2.5468e-15
2.50693e-17
1.81057e-16
2.56305e-16
3.30277e-16
3.01885e-16
1.90174e-16
7.65541e-17
2.25883e-17
5.48222e-18
1.39265e-18
7.85478e-19
9.64735e-19
1.17655e-18
1.11864e-18
8.9291e-19
5.56538e-19
2.85085e-19
5.50206e-20
1.353e-19
7.18887e-18
6.63774e-17
1.362e-16
1.60958e-16
2.63057e-18
1.7324e-17
2.1238e-17
2.61108e-17
2.37099e-17
1.47518e-17
5.88305e-18
1.72225e-18
4.17861e-19
1.13997e-19
7.58149e-20
9.90001e-20
1.14591e-19
1.06285e-19
8.14758e-20
4.83135e-20
2.45084e-20
1.34568e-20
4.8756e-20
3.66837e-19
2.033e-18
5.04409e-18
7.79625e-18
2.61904e-19
1.55751e-18
1.6646e-18
1.96162e-18
1.77021e-18
1.08642e-18
4.28176e-19
1.24124e-19
3.0153e-20
9.00535e-21
7.00139e-21
9.58861e-21
1.04222e-20
9.43685e-21
6.93082e-21
3.87826e-21
1.8239e-21
1.88385e-21
7.84933e-21
2.63764e-20
6.46873e-20
1.56696e-19
6.62592e-19
2.48153e-20
1.32196e-19
1.24105e-19
1.40623e-19
1.26095e-19
7.62275e-20
2.96267e-20
8.49167e-21
2.07245e-21
6.92002e-22
6.2063e-22
8.7706e-22
8.91663e-22
7.87613e-22
5.5068e-22
2.89312e-22
1.27816e-22
1.56156e-22
6.1065e-22
1.7264e-21
3.12499e-21
1.13426e-20
1.37054e-19
2.23663e-21
1.06479e-20
8.84898e-21
9.66181e-21
8.59935e-21
5.11312e-21
1.95627e-21
5.53794e-22
1.36559e-22
5.22207e-23
5.29233e-23
7.48991e-23
7.37084e-23
6.19527e-23
4.09673e-23
2.01645e-23
8.46402e-24
1.06063e-23
3.8328e-23
9.7115e-23
1.92578e-22
1.50469e-21
2.80722e-20
1.88996e-22
8.17905e-22
6.05788e-22
6.40224e-22
5.63501e-22
3.29025e-22
1.23735e-22
3.45742e-23
8.69161e-24
3.88889e-24
4.36677e-24
6.05711e-24
5.82892e-24
4.6332e-24
2.87914e-24
1.3202e-24
5.30261e-25
6.75907e-25
2.27846e-24
5.0428e-24
1.27607e-23
2.04973e-22
3.76176e-21
1.35445e-23
6.02026e-23
3.99365e-23
4.09522e-23
3.55992e-23
2.03861e-23
7.52462e-24
2.07505e-24
5.38851e-25
2.87026e-25
3.50222e-25
4.69917e-25
4.3941e-25
3.30434e-25
1.92036e-25
8.14921e-26
3.16274e-26
4.21024e-26
1.30572e-25
2.59594e-25
9.05476e-25
2.33482e-23
3.8018e-22
2.3911e-25
4.14681e-24
2.51229e-24
2.52459e-24
2.17303e-24
1.22038e-24
4.41584e-25
1.20245e-25
3.28508e-26
2.10956e-26
2.73945e-26
3.51639e-26
3.17467e-26
2.25125e-26
1.21694e-26
4.75017e-27
1.80759e-27
2.58291e-27
7.26665e-27
1.3719e-26
7.51955e-26
2.76729e-24
4.64566e-23
0
2.09222e-25
1.34604e-25
1.44347e-25
1.2716e-25
7.07359e-26
2.50997e-26
6.76106e-27
1.99261e-27
1.54867e-27
2.10092e-27
2.54723e-27
2.20992e-27
1.46906e-27
7.33316e-28
2.61809e-28
9.99303e-29
1.58015e-28
3.98936e-28
7.72921e-28
8.37631e-27
4.19927e-25
7.02116e-24
-5.5479e-25
2.16417e-27
1.95929e-27
5.56188e-27
6.55185e-27
3.8837e-27
1.38137e-27
3.71056e-28
1.22338e-28
1.14479e-28
1.59437e-28
1.8002e-28
1.49154e-28
9.21431e-29
4.21342e-29
1.37072e-29
5.45468e-30
9.82224e-30
2.21731e-29
4.94907e-29
1.21443e-27
6.94976e-26
9.64618e-25
-4.46195e-25
-2.30885e-26
-2.37234e-27
6.04829e-29
1.04136e-28
1.62394e-28
6.65115e-29
1.65828e-29
4.73315e-30
6.04981e-30
1.00349e-29
1.11965e-29
9.27268e-30
5.4312e-30
2.17599e-30
5.23351e-31
1.2568e-31
4.60014e-31
1.13696e-30
3.79304e-30
1.85533e-28
9.79254e-27
9.67121e-26
-2.43641e-25
-2.58713e-26
-6.15153e-27
-1.37792e-27
-1.81887e-45
1.28568e-29
5.86901e-30
2.92737e-30
2.41437e-30
2.09071e-30
1.66933e-30
1.06537e-30
5.46864e-31
2.46146e-31
1.30987e-31
1.11614e-31
1.11614e-31
1.11614e-31
1.15227e-31
1.9293e-31
1.48546e-29
6.42558e-28
4.07944e-27
1
1
1
1
0.997526
1
0.999999
0.999997
0.956361
0.995724
0.999996
0.999987
0.92968
0.948988
0.969975
0.976445
0.951913
0.95417
0.966294
0.974838
0.890319
0.958601
0.963708
0.970698
0.57691
0.955672
0.959322
0.963042
0.364365
0.873034
0.953675
0.948899
0.394127
0.406361
0.47466
0.821615
0.740363
0.740082
0.767619
0.804573
0.734881
0.758828
0.762825
0.772457
0.152494
0.623795
0.731539
0.734342
0.000258814
0.000456294
0.000549984
0.0626132
0.000439656
0.00034099
0.000198154
9.6679e-05
0.00073334
0.00027805
0.000128807
3.53818e-05
0.0016349
0.00167642
0.00176859
0.000930732
0.000462717
0.00165447
0.00181197
0.00180984
0.00103499
0.000664275
0.000719136
0.00180984
0.00155753
0.00086195
0.000271072
0.00130848
0.00102405
0.000203408
5.39181e-05
0.000544
4.42638e-11
3.58943e-09
3.3966e-09
8.13972e-10
3.01954e-11
3.27341e-10
2.69571e-10
4.42028e-11
3.68009e-11
4.11153e-11
4.44616e-11
4.20841e-11
8.32973e-11
1.18184e-10
1.78219e-10
1.93005e-10
2.11537e-10
2.11537e-10
1.94455e-10
1.34579e-10
1.72814e-10
1.62879e-10
1.25471e-10
6.22275e-11
1.54397e-11
1.32998e-11
8.91811e-12
5.91095e-12
3.98053e-13
4.48469e-13
6.16801e-13
1.05866e-12
4.14448e-14
6.32901e-14
1.0932e-13
2.11701e-13
3.39136e-15
4.99285e-15
8.19592e-15
1.49482e-14
1.79614e-16
2.10178e-16
3.01926e-16
4.41876e-16
1.06547e-17
1.44923e-17
2.40236e-17
3.61319e-17
1.57304e-18
2.83606e-18
5.58406e-18
8.96168e-18
3.92839e-19
7.54805e-19
1.51886e-18
2.4294e-18
8.07033e-20
1.51492e-19
2.8814e-19
4.32455e-19
1.03413e-20
1.86098e-20
3.26842e-20
4.562e-20
1.03353e-21
1.8366e-21
3.08769e-21
4.31476e-21
1.2763e-22
2.16824e-22
3.65882e-22
6.12051e-22
1.7981e-23
2.76837e-23
6.44338e-23
1.61838e-22
2.08985e-24
3.24483e-24
1.77381e-23
4.51723e-23
1.72836e-25
3.4621e-25
3.52775e-24
5.06975e-24
6.28601e-27
2.37062e-26
1.49931e-25
1.6313e-25
0.999949
0.996763
0.920691
0.416135
0.0839358
0.083934
0.0839746
0.0910628
0.323892
0.51573
0.522842
0.502972
0.196488
0.0464821
0.000198188
6.49384e-05
0.0001131
0.129824
0.844452
0.999963
0.977056
0.840562
0.226866
0.083934
0.113126
0.149936
0.087557
0.226627
0.379384
0.210642
0.0430793
0.00386088
0.000576078
6.49384e-05
6.48383e-05
6.49384e-05
5.9534e-05
0.117424
0.999902
0.941002
0.713313
0.153698
0.0938202
0.27069
0.149585
0.0873616
0.0709426
0.0674189
0.0569073
0.0482682
0.0413987
0.0603986
0.00415068
6.49384e-05
3.90923e-05
6.50318e-06
-4.76049e-11
0.980218
0.927748
0.541087
0.156854
0.151391
0.284487
0.284603
0.189128
0.0632825
0.0599614
0.0583258
0.0651976
0.0985048
0.0777207
0.0166803
6.49384e-05
8.61953e-05
5.24619e-05
-2.51249e-08
0.974344
0.848405
0.310863
0.116965
0.282253
0.2846
0.260943
0.189547
0.218148
0.212479
0.19955
0.205319
0.151399
0.0215852
0.000736588
0.000677377
0.00354551
0.00334407
-2.45228e-09
0.960226
0.609546
0.034284
0.0308658
0.0919893
0.0696208
0.0893879
0.214944
0.233791
0.252995
0.224704
0.160786
0.0831473
0.00592465
0.000780877
0.000828733
0.00646124
0.00646124
0.00567859
0.894865
0.313724
0.00652774
0.00562919
0.00557536
0.00580259
0.0351911
0.0663414
0.166395
0.266967
0.260543
0.221069
0.0974728
0.00340014
0.00126757
0.000904315
0.00379464
0.00580614
0.0131105
0.782484
0.103446
0.00551908
0.00536058
0.00546809
0.00557561
0.00567255
0.0155883
0.241941
0.299704
0.228702
0.0174036
0.0253718
0.0179188
0.00224594
0.0015621
0.00165292
2.65951e-06
-1.10819e-21
0.790166
0.122178
0.00534691
0.00536011
0.00536058
0.00556503
0.0061824
0.00858583
0.201067
0.299829
0.0446288
0.00105396
0.00117462
0.0204467
0.0116766
0.00178587
0.001218
2.14829e-06
2.77048e-22
0.726295
0.129558
0.00533765
0.00534691
0.00537071
0.0136854
0.0308304
0.0424238
0.278055
0.293575
0.0199416
0.000757932
0.00100179
0.0202513
0.0195386
0.00204146
0.00139534
5.5104e-05
-1.89219e-22
0.74204
0.241946
0.00534691
0.00741111
0.121268
0.272901
0.326948
0.368004
0.358163
0.0659555
8.89556e-05
0.000656315
0.00222759
0.00711225
0.00799203
0.00103749
0.000487972
2.46451e-05
0
0.715121
0.422349
0.195857
0.301689
0.397968
0.398028
0.394139
0.379916
0.151581
3.40393e-05
2.25272e-05
0.000683413
0.00140042
0.00031018
0.000102653
0.000109488
6.29998e-07
4.33092e-08
0
0.313697
0.431828
0.431404
0.416711
0.316437
0.221252
0.145302
0.0439182
8.08683e-06
1.21683e-05
1.3604e-06
0.00021472
0.000527055
0.000604991
7.2181e-05
9.38797e-07
3.78591e-06
6.06953e-08
-1.72983e-09
3.17462e-05
0.0694714
0.107787
0.0469454
3.78041e-07
4.76842e-07
8.75021e-07
1.81508e-06
7.18048e-06
1.63671e-05
1.63966e-09
1.64801e-09
2.81771e-09
1.86429e-05
7.21608e-05
1.43352e-07
3.03567e-07
2.57076e-08
-6.67254e-11
1.86584e-06
1.56021e-07
1.46031e-07
1.66703e-07
2.13539e-07
4.40028e-06
3.42364e-05
3.35003e-05
6.95879e-06
1.63966e-09
1.63966e-09
1.37007e-09
1.64801e-09
2.81771e-09
6.54092e-09
1.15114e-08
1.13608e-08
6.49073e-09
-1.76725e-09
0.000353598
1.46006e-07
1.05642e-07
3.92785e-07
8.0154e-07
1.37164e-05
3.7263e-05
3.28157e-05
1.65409e-09
1.64726e-09
1.56361e-09
1.10173e-09
1.48822e-08
4.83868e-08
4.71405e-08
1.36446e-08
1.15359e-08
1.20111e-08
0.000202012
0.00180984
0.000283701
7.14069e-08
3.76621e-07
3.77814e-06
7.73733e-06
1.22958e-05
6.90886e-06
1.76978e-09
1.67991e-09
2.37781e-09
1.08648e-09
4.33816e-09
5.5917e-08
5.5917e-08
1.79732e-08
8.723e-09
1.37017e-08
0.000506072
0.00179703
0.000763219
3.51817e-08
8.18541e-09
8.79911e-07
2.20519e-06
2.27731e-07
6.58898e-09
5.2163e-09
4.30411e-09
3.0946e-09
1.05697e-09
9.79857e-10
2.19016e-08
2.92896e-08
1.23896e-09
1.49247e-09
2.82043e-05
0.00011499
0.00177775
0.000244457
5.41071e-09
2.8252e-09
4.99055e-10
3.35285e-07
1.43783e-06
4.54548e-07
4.39318e-09
2.94592e-09
1.83275e-09
8.72516e-10
9.08919e-10
9.79857e-10
1.12381e-09
1.23896e-09
1.23896e-09
0.000136899
-5.54096e-22
0.00127754
8.90371e-05
4.87331e-11
3.27653e-11
4.32431e-11
8.80841e-11
6.60802e-08
1.01473e-07
6.8974e-08
4.6812e-09
4.40226e-10
6.36671e-10
6.88276e-10
1.03967e-09
1.26218e-09
1.23848e-09
7.23322e-06
0.000138389
1.89083e-05
1.28953e-10
4.11735e-11
3.1046e-11
3.16649e-11
4.80653e-11
1.45896e-10
1.48715e-10
1.56152e-10
1.66436e-10
2.08478e-10
4.33836e-10
5.73246e-10
5.97222e-10
2.40629e-09
1.68594e-09
1.29194e-09
9.32883e-05
0.000138389
3.31315e-05
3.64962e-11
3.10508e-11
3.02317e-11
3.02347e-11
5.2043e-11
1.65943e-10
2.38828e-10
2.94758e-10
3.36716e-10
4.37716e-10
5.31219e-10
5.34823e-10
7.73919e-10
1.40015e-08
2.81769e-08
1.7157e-09
0.000137153
0.000138389
1.97845e-05
4.03588e-11
3.40894e-11
3.07142e-11
3.05669e-11
5.48297e-11
1.55262e-10
3.12445e-10
4.1632e-10
4.4835e-10
4.49895e-10
5.45306e-10
5.53161e-10
5.76071e-08
1.75156e-06
8.10071e-07
4.41896e-09
0.000119335
9.12815e-05
1.14324e-06
1.791e-10
8.73858e-11
3.86259e-11
3.88141e-11
6.28303e-11
1.65056e-10
3.16054e-10
3.51366e-10
3.33909e-10
3.85146e-10
5.04507e-10
5.8369e-10
4.88306e-06
8.83539e-06
1.3704e-06
2.58452e-07
1.63727e-05
5.47697e-12
1.05685e-27
6.65151e-11
4.31165e-11
3.48011e-11
3.61931e-11
6.07621e-11
1.70494e-10
2.32258e-10
1.46057e-10
1.49798e-10
1.37543e-08
5.83913e-10
3.56113e-07
8.86367e-06
8.84953e-06
9.30748e-07
1.57963e-10
7.89115e-11
2.36519e-11
9.47851e-11
2.47624e-11
2.12148e-11
2.03118e-11
2.21415e-11
4.75853e-11
1.45033e-10
8.67781e-11
2.82443e-11
2.16178e-08
1.15591e-07
9.06714e-10
2.06986e-06
8.86367e-06
8.86367e-06
4.3632e-07
1.7987e-10
1.39789e-09
9.04421e-11
1.42762e-10
6.45055e-12
6.10925e-12
5.76653e-12
8.81747e-12
3.60252e-11
8.57441e-11
1.27051e-11
1.38482e-11
1.09156e-07
1.37068e-07
2.18978e-09
2.46589e-06
8.86367e-06
8.8107e-06
4.15414e-07
3.85668e-10
1.21853e-08
7.34401e-10
5.41109e-25
1.84601e-12
1.81946e-12
2.12257e-12
5.34738e-12
3.13427e-11
4.6877e-11
1.1541e-11
3.84108e-09
1.37068e-07
1.37125e-07
6.13815e-09
4.58162e-07
6.16547e-06
6.61025e-06
7.42647e-07
4.96945e-09
1.67638e-08
2.0962e-07
-8.65774e-24
3.24047e-13
3.62103e-13
7.461e-13
3.48742e-12
2.22582e-11
2.63066e-11
1.13622e-11
9.78058e-09
1.30051e-07
1.29363e-07
2.23088e-08
3.96088e-09
3.97585e-09
4.00649e-09
7.94286e-07
5.24036e-08
1.68273e-08
5.11507e-07
7.69606e-07
2.11793e-14
5.7664e-14
3.54394e-13
2.69546e-12
1.52256e-11
2.00741e-11
1.13678e-11
1.32643e-12
3.25966e-08
5.85689e-09
1.11739e-08
4.02247e-09
3.96088e-09
3.98696e-09
8.76097e-08
4.50707e-08
1.74519e-08
2.06666e-07
1.61075e-06
1.07058e-15
2.61182e-14
2.22325e-13
2.0914e-12
9.82201e-12
1.42e-11
1.12482e-11
1.28737e-12
5.44611e-13
5.44613e-13
5.60288e-09
7.69576e-09
4.11426e-09
4.48335e-09
3.16997e-09
3.1777e-09
4.54408e-08
2.64154e-09
2.40012e-08
3.51885e-16
1.32066e-14
1.47535e-13
1.25917e-12
5.31961e-12
7.50656e-12
6.59227e-12
3.20476e-12
6.37911e-13
5.44611e-13
1.36399e-09
7.5651e-09
1.71457e-08
2.44707e-08
8.33363e-09
3.14283e-09
5.50406e-08
2.57789e-09
0
1.51564e-16
5.63342e-15
8.78492e-14
6.97104e-13
2.37411e-12
2.75173e-12
2.30481e-12
1.51755e-12
8.07308e-13
5.46577e-13
5.50956e-13
8.02917e-09
3.03252e-08
3.03252e-08
2.16111e-08
3.03516e-09
5.40848e-08
6.42633e-09
4.17857e-14
4.34619e-17
1.96846e-15
2.87132e-14
1.9836e-13
5.70454e-13
5.89938e-13
5.84656e-13
8.10596e-13
8.22551e-13
5.53063e-13
5.59443e-13
1.52855e-08
3.01293e-08
3.03252e-08
1.54588e-08
1.72409e-09
6.98208e-09
2.97491e-09
5.40057e-11
7.99398e-18
4.1392e-16
4.0212e-15
2.45763e-14
6.03752e-14
8.4493e-14
2.95984e-13
7.49942e-13
7.41607e-13
5.59443e-13
6.36985e-13
1.30804e-08
2.55125e-08
1.31213e-08
6.79948e-10
7.35064e-10
7.54325e-11
6.45772e-11
7.14626e-11
9.63699e-19
3.90635e-17
2.76307e-16
1.5498e-15
3.15877e-15
3.05655e-14
2.85766e-13
6.58192e-13
3.79467e-13
3.35038e-12
2.66014e-10
1.26179e-09
1.50264e-09
1.92388e-16
2.57197e-18
5.99068e-10
1.14074e-10
3.57792e-12
2.32918e-11
1.3351e-19
2.55776e-18
2.71947e-17
1.00386e-16
3.85417e-16
2.86915e-14
1.60793e-13
2.63799e-13
7.61541e-14
2.14372e-11
4.20876e-10
2.94187e-14
1.92388e-16
2.57197e-18
9.26506e-19
3.96856e-10
1.56996e-10
3.48326e-12
1.93424e-12
2.78757e-20
5.15994e-19
8.97726e-18
2.45352e-17
1.80648e-16
1.33654e-14
4.19639e-14
3.39619e-14
8.99846e-17
3.02006e-11
5.61795e-11
6.53455e-12
9.12571e-15
9.26506e-19
2.09636e-20
1.28053e-10
5.86877e-11
1.37986e-12
1.3294e-31
7.26684e-21
1.4976e-19
2.38048e-18
4.5806e-18
7.12689e-17
1.74406e-15
3.53029e-15
1.86424e-15
-8.45408e-16
2.71134e-11
7.17516e-12
2.19863e-13
4.67141e-17
1.81874e-20
2.77621e-21
2.2177e-11
6.90128e-12
1.0404e-13
2.72504e-19
1.7003e-21
3.05212e-20
2.34192e-19
3.60785e-19
1.53533e-17
1.55205e-16
1.22102e-16
3.27138e-17
-1.42665e-15
7.29279e-12
2.73709e-12
1.11512e-13
1.94065e-17
-5.48997e-23
-1.46611e-42
1.94847e-12
5.09801e-13
4.41243e-15
1.36334e-20
2.62764e-22
3.0594e-21
7.99524e-21
1.36329e-20
1.71654e-18
1.50093e-18
5.91499e-19
3.56764e-20
-2.60613e-16
-1.49608e-16
-3.9559e-17
-6.32899e-18
-7.0085e-19
-5.9014e-20
-4.0234e-21
5.59107e-14
1.55373e-14
1.09185e-16
1.61165e-22
1.42155e-23
5.64029e-23
3.82815e-23
6.46067e-23
2.3702e-21
3.80156e-22
4.10392e-24
-3.34243e-21
-5.33335e-21
-2.15936e-21
-5.10513e-22
-8.7388e-23
-1.16896e-23
-1.26464e-24
-1.12614e-25
-8.2267e-27
-5.21921e-28
-3.22209e-29
-9.25924e-31
)
;

boundaryField
{
    leftWall
    {
        type            zeroGradient;
    }
    rightWall
    {
        type            zeroGradient;
    }
    lowerWall
    {
        type            zeroGradient;
    }
    atmosphere
    {
        type            inletOutlet;
        inletValue      uniform 0;
        value           nonuniform List<scalar> 
46
(
-2.43641e-25
-2.58713e-26
-6.15153e-27
-1.37792e-27
-1.81887e-45
1.28568e-29
5.86901e-30
2.92737e-30
2.41437e-30
2.09071e-30
1.66933e-30
1.06537e-30
5.46864e-31
2.46146e-31
1.30987e-31
1.11614e-31
1.11614e-31
1.11614e-31
1.15227e-31
1.9293e-31
1.48546e-29
6.42558e-28
4.07944e-27
6.28601e-27
2.37062e-26
1.49931e-25
0
0
0
0
0
0
0
0
0
0
0
0
0
0
0
0
0
0
0
0
)
;
    }
    defaultFaces
    {
        type            empty;
    }
}


// ************************************************************************* //
