/*--------------------------------*- C++ -*----------------------------------*\
| =========                 |                                                 |
| \\      /  F ield         | OpenFOAM: The Open Source CFD Toolbox           |
|  \\    /   O peration     | Version:  5.x                                   |
|   \\  /    A nd           | Web:      www.OpenFOAM.org                      |
|    \\/     M anipulation  |                                                 |
\*---------------------------------------------------------------------------*/
FoamFile
{
    version     2.0;
    format      ascii;
    class       volScalarField;
    location    "0.9";
    object      p;
}
// * * * * * * * * * * * * * * * * * * * * * * * * * * * * * * * * * * * * * //

dimensions      [1 -1 -2 0 0 0 0];

internalField   nonuniform List<scalar> 
2268
(
1173.41
1158.78
1132.69
1099.25
1064.06
1029.18
994.583
959.73
923.813
885.515
844.424
802.814
765.51
737.105
719.24
711.211
712.013
718.78
733.974
757.681
784.818
806.52
816.19
1118.72
1102.82
1074.47
1038.78
1002.96
969.303
935.615
901.079
865.441
827.112
785.395
742.689
704.425
675.733
658.778
655.087
655.612
657.121
670.816
697.893
725.758
746.419
757.229
1063.56
1046.12
1015.37
977.592
941.973
909.384
876.523
842.64
807.567
769.206
726.154
681.087
640.827
611.542
597.12
593.98
595.516
596.637
612.613
641.568
669.833
688.79
699.528
1007.94
988.835
955.945
915.971
880.074
848.969
817.498
784.558
750.328
711.893
666.587
617.613
574.22
543.796
529.421
527.561
531.747
537.479
556.236
585.941
615.302
633.334
643.514
952.605
931.856
897.008
854.645
818.249
788.83
758.871
726.954
693.858
655.35
606.774
552.015
504.112
472.349
459.177
458.254
465.389
477.581
500.074
530.194
561.085
579.646
589.586
899.122
876.246
839.543
794.97
757.859
729.514
700.632
669.798
638.377
600.078
546.783
482.617
428.339
395.579
385.496
386.958
397.433
414.968
441.094
475.604
506.887
527.731
537.912
848.941
823.033
784.548
738.089
699.3
670.261
641.74
612.759
583.927
546.33
485.165
407.176
345.111
311.946
307.585
312.274
327.319
350.15
381.395
420.436
454.634
478.117
487.807
803.539
772.82
732.687
684.632
641.961
610.343
581.063
554.071
530.052
494.008
423.937
330.483
255.06
223.772
226.974
235.92
255.611
283.841
320.598
364.956
404.501
430.963
439.071
770.172
729.594
714.65
635.048
537.366
486.766
486.577
489.254
411.432
379.443
382.753
388.081
387.056
391.842
400.475
408.991
412.75
396.645
347.693
716.171
671.57
647.639
565.471
464.818
417.754
418.192
424.119
356.883
344.419
344.557
336.956
326.954
331.963
346.25
353.921
352.365
334.324
310.062
660.59
622.75
579.83
479.581
381.703
345.868
347.048
344.209
315.383
326.025
324.969
314.458
303.387
306.733
321.637
330.451
297.958
278.451
292.961
605.37
578.52
516.217
389.571
301.187
282.851
286.137
279.483
289.081
295.163
296.047
279.706
265.399
269.742
292.382
296.054
253.646
241.064
275.693
559.389
540.023
465.825
326.789
250.684
240.463
244.796
252.594
274.35
269.315
263.476
241.456
217.962
214.616
232.24
227.808
203.806
210.855
251.741
522.404
502.565
427.672
294.784
235.171
224.542
223.933
243.545
265.203
263.061
246.284
206.404
174.423
149.447
128.56
114.49
126.903
157.697
213.898
483.539
461.768
395.024
267.359
213.318
205.813
214.077
234.889
258.88
254.945
220.626
176.142
138.012
86.1285
35.975
21.9759
40.4021
71.5368
172.864
442.167
420.1
354.967
232.108
192.953
192.136
202.344
224.829
252.088
233.154
172.868
134.506
93.3183
39.1069
13.0632
12.0593
16.4486
32.058
133.059
739.732
701.703
658.021
607.979
555.831
510.22
477.819
459.164
450.595
422.778
342.968
232.899
155.434
125.399
122.607
133.443
153.198
182.157
225.679
278.757
329.444
363.525
372.466
659.93
613.459
571.537
512.686
430.551
353.084
305.364
303.135
346.995
382.956
250.051
164.082
119.684
98.3505
94.3025
97.1812
100.231
106.505
125.533
173.129
252.949
327.058
311.95
667.661
561.863
486.451
406.451
304.895
202.988
127.208
92.5695
101.602
163.098
160.902
134.031
107.823
94.676
92.0541
94.5229
97.0873
97.9885
99.369
122.001
182.599
218.464
219.83
778.037
515.4
333.276
206.129
100.373
32.9864
3.13942
6.20275
14.9507
19.4863
41.629
68.3638
84.238
91.8512
92.7455
95.0967
97.0654
97.4321
96.1404
100.001
111.387
129.732
141.903
530.546
238.008
90.8487
26.7235
6.86131
-0.581645
-4.03055
-2.81593
-0.796311
0.373769
2.85093
16.6361
43.0505
75.937
93.321
96.8744
98.6341
97.8816
95.5599
93.5618
92.5993
94.9849
101.869
157.089
56.4242
17.8545
2.81221
-0.995012
-2.15183
-2.4768
-2.70153
-2.73525
-2.62251
-2.3898
-0.965583
7.61075
39.341
78.1021
94.1118
98.0197
97.8414
96.2651
94.2657
93.0283
93.1933
89.1647
25
6.57204
1.03401
-1.22512
-2.07334
-2.42706
-2.59237
-2.78498
-2.94892
-2.96739
-2.90786
-2.70021
-1.92561
7.00428
37.051
69.5907
89.4428
95.7407
94.996
93.5223
92.1773
90.8236
85.1385
3.18783
-0.230651
-1.94085
-2.4564
-2.7077
-2.87291
-2.9996
-3.12369
-3.21923
-3.23586
-3.16467
-3.08128
-2.97351
-2.30244
5.96821
26.1862
53.883
71.068
83.4888
85.9317
84.7779
77.3452
69.9868
-1.55187
-2.17288
-2.64782
-2.92638
-3.12555
-3.23975
-3.31479
-3.37456
-3.40407
-3.37098
-3.29511
-3.21395
-3.14256
-3.03143
-2.97375
-0.158297
13.0555
26.2076
45.0509
51.2085
51.9744
45.4066
29.31
-3.09863
-3.74093
-3.4038
-3.5234
-3.59528
-3.61509
-3.60021
-3.57981
-3.54759
-3.48972
-3.41237
-3.32511
-3.25217
-3.20141
-3.13504
-3.02977
-3.28533
-2.55434
9.4025
19.3365
28.5755
26.1835
15.2702
-3.26414
-4.93943
-4.33269
-4.30143
-4.1957
-4.08612
-3.95021
-3.8315
-3.72524
-3.62662
-3.5328
-3.44309
-3.36603
-3.3143
-3.27802
-3.25606
-3.24024
-3.19564
-3.35403
-3.26679
-2.9352
-2.22729
4.96372
-3.2297
-5.26709
-5.20915
-5.11489
-4.91537
-4.67595
-4.38397
-4.14259
-3.93877
-3.78002
-3.65228
-3.54994
-3.46983
-3.41596
-3.38926
-3.38063
-3.36863
-3.37973
-3.42784
-3.47994
-3.52769
-3.54393
-3.88772
-3.09016
-5.04725
-5.97362
-5.91784
-5.71355
-5.37035
-4.94479
-4.50021
-4.15011
-3.91254
-3.749
-3.63631
-3.55465
-3.5023
-3.4776
-3.47339
-3.47428
-3.48617
-3.51712
-3.59408
-3.71142
-3.76222
-3.62071
-2.85489
-4.43165
-6.30286
-6.60236
-6.40462
-6.0093
-5.42706
-4.80423
-4.30705
-4.00941
-3.81538
-3.69597
-3.61739
-3.57174
-3.55225
-3.55693
-3.57789
-3.60268
-3.64859
-3.75136
-3.89384
-3.97527
-3.91357
-2.89056
-3.77785
-5.82244
-6.67984
-6.67409
-6.28608
-5.6476
-4.93584
-4.36991
-4.02442
-3.832
-3.72121
-3.6582
-3.62465
-3.61515
-3.62928
-3.66614
-3.71889
-3.7866
-3.91035
-4.09139
-4.2141
-4.12641
-3.25595
-3.6338
-4.8269
-5.82901
-6.14047
-5.92864
-5.40963
-4.78522
-4.27325
-3.96469
-3.80716
-3.72493
-3.68288
-3.66477
-3.667
-3.68975
-3.73659
-3.80794
-3.90386
-4.0434
-4.21147
-4.28808
-4.17743
-3.66147
-3.81129
-4.08181
-4.51745
-4.90166
-4.96551
-4.71419
-4.36003
-4.03848
-3.84554
-3.75411
-3.71292
-3.69625
-3.69545
-3.7092
-3.73897
-3.78929
-3.86505
-3.96388
-4.07817
-4.20016
-4.2359
-4.10067
-3.84595
-3.86844
-3.70336
-3.62346
-3.75782
-3.92445
-3.95414
-3.86876
-3.7743
-3.71475
-3.69496
-3.69539
-3.70443
-3.72008
-3.74359
-3.77738
-3.82509
-3.89203
-3.97957
-4.07192
-4.14356
-4.15037
-4.04374
-3.75891
-3.73673
-3.51081
-3.24083
-3.18425
-3.309
-3.45083
-3.53649
-3.58301
-3.61775
-3.65212
-3.68446
-3.71377
-3.74224
-3.77254
-3.80724
-3.84877
-3.9001
-3.96464
-4.03748
-4.09325
-4.10873
-4.03213
-3.5914
-3.56769
-3.37774
-3.128
-3.02667
-3.10315
-3.25086
-3.38606
-3.49024
-3.57073
-3.63487
-3.68642
-3.72869
-3.76529
-3.79913
-3.83249
-3.86696
-3.90377
-3.94479
-3.99172
-4.03726
-4.05819
-4.01889
-3.47141
-3.44795
-3.30938
-3.14053
-3.06811
-3.12078
-3.23988
-3.36713
-3.47851
-3.57018
-3.64423
-3.70375
-3.75205
-3.79228
-3.82687
-3.85754
-3.88531
-3.91049
-3.93287
-3.95229
-3.96721
-3.97065
-3.94362
-3.44589
-3.41988
-3.32674
-3.22801
-3.18964
-3.2296
-3.31792
-3.42055
-3.51846
-3.60432
-3.67662
-3.73634
-3.78535
-3.82565
-3.8589
-3.88619
-3.90804
-3.92424
-3.93372
-3.9344
-3.92353
-3.89674
-3.85557
-3.48667
-3.46855
-3.41061
-3.35503
-3.33678
-3.36682
-3.4303
-3.50851
-3.58829
-3.6623
-3.72736
-3.78276
-3.829
-3.86697
-3.89754
-3.92123
-3.93819
-3.94802
-3.94974
-3.94158
-3.92172
-3.88979
-3.84386
-3.5635
-3.5543
-3.52057
-3.49057
-3.48367
-3.50666
-3.55264
-3.61161
-3.67483
-3.73616
-3.79211
-3.84109
-3.88267
-3.91694
-3.94412
-3.96434
-3.97752
-3.98327
-3.98095
-3.96967
-3.94861
-3.91683
-3.87434
-3.65985
-3.65387
-3.63623
-3.62218
-3.62261
-3.64142
-3.67591
-3.72087
-3.77064
-3.82054
-3.8674
-3.90939
-3.94559
-3.97557
-3.99915
-4.0162
-4.02652
-4.02978
-4.02561
-4.01357
-3.99327
-3.9641
-3.9269
-3.76662
-3.76142
-3.75356
-3.74942
-3.7543
-3.77057
-3.79751
-3.83244
-3.87174
-3.91201
-3.95066
-3.98594
-4.01673
-4.04237
-4.06246
-4.07668
-4.0848
-4.08653
-4.08165
-4.06994
-4.05129
-4.02574
-3.994
-3.87889
-3.87475
-3.87257
-3.87388
-3.88101
-3.89541
-3.91713
-3.94476
-3.976
-4.00843
-4.04003
-4.06927
-4.09505
-4.11662
-4.13346
-4.14521
-4.15158
-4.15235
-4.14738
-4.13659
-4.12004
-4.09802
-4.07116
-3.99472
-3.99175
-3.99255
-3.99656
-4.00451
-4.01728
-4.03515
-4.05735
-4.08236
-4.10849
-4.1342
-4.15821
-4.17954
-4.19744
-4.21139
-4.22099
-4.22597
-4.22614
-4.22141
-4.21178
-4.19739
-4.17851
-4.15582
-4.11276
-4.1107
-4.11296
-4.11808
-4.12598
-4.13723
-4.1521
-4.17012
-4.19028
-4.21137
-4.23223
-4.25182
-4.2693
-4.28401
-4.29544
-4.30321
-4.30707
-4.30686
-4.30251
-4.29408
-4.28171
-4.26561
-4.24646
-4.23203
-4.23064
-4.2335
-4.23883
-4.24621
-4.256
-4.26842
-4.28316
-4.29948
-4.31653
-4.33341
-4.34932
-4.36355
-4.37553
-4.3848
-4.39103
-4.39398
-4.39353
-4.38962
-4.38231
-4.37175
-4.35822
-4.34189
-4.35193
-4.35102
-4.35401
-4.35907
-4.36568
-4.37409
-4.38446
-4.39654
-4.4098
-4.42358
-4.43722
-4.45009
-4.4616
-4.47128
-4.47874
-4.48367
-4.48589
-4.48526
-4.48176
-4.47543
-4.46641
-4.45491
-4.44114
-4.47211
-4.47154
-4.47439
-4.47894
-4.4847
-4.49184
-4.50046
-4.51036
-4.52112
-4.53225
-4.54325
-4.5536
-4.56286
-4.57062
-4.57656
-4.58042
-4.58203
-4.58128
-4.57815
-4.57268
-4.56497
-4.55519
-4.54357
-4.59235
-4.59203
-4.59459
-4.59856
-4.60347
-4.60945
-4.61657
-4.62464
-4.63335
-4.64232
-4.65114
-4.65943
-4.66682
-4.67299
-4.67767
-4.68064
-4.68175
-4.68092
-4.67812
-4.67339
-4.6668
-4.65851
-4.64865
-4.71253
-4.71238
-4.71461
-4.71799
-4.72209
-4.72703
-4.73286
-4.7394
-4.74641
-4.75358
-4.76062
-4.76721
-4.77306
-4.77791
-4.78155
-4.78378
-4.78449
-4.78361
-4.78111
-4.77701
-4.7714
-4.76439
-4.75612
-4.83258
-4.83256
-4.83444
-4.83726
-4.84063
-4.84466
-4.84937
-4.85461
-4.86019
-4.86588
-4.87144
-4.87662
-4.8812
-4.88497
-4.88774
-4.88937
-4.88976
-4.88886
-4.88663
-4.8831
-4.87833
-4.87241
-4.86548
-4.95249
-4.95254
-4.95409
-4.95641
-4.95912
-4.96234
-4.96609
-4.97024
-4.97462
-4.97907
-4.98339
-4.98741
-4.99093
-4.9938
-4.99586
-4.99701
-4.99716
-4.99625
-4.99428
-4.99126
-4.98723
-4.98227
-4.97647
-5.07226
-5.07231
-5.07357
-5.07545
-5.07757
-5.0801
-5.08302
-5.08622
-5.08959
-5.093
-5.0963
-5.09935
-5.102
-5.10412
-5.10561
-5.10638
-5.10634
-5.10547
-5.10375
-5.10118
-5.09782
-5.09372
-5.08895
-5.19189
-5.1919
-5.1929
-5.19438
-5.19599
-5.19791
-5.20011
-5.20252
-5.20504
-5.20757
-5.21001
-5.21225
-5.21418
-5.2157
-5.21673
-5.2172
-5.21704
-5.21624
-5.21477
-5.21265
-5.20992
-5.20661
-5.2028
-5.3114
-5.31132
-5.31211
-5.31323
-5.31439
-5.31578
-5.31737
-5.31908
-5.32088
-5.32267
-5.3244
-5.32597
-5.3273
-5.32834
-5.32901
-5.32926
-5.32905
-5.32835
-5.32716
-5.32549
-5.32336
-5.32081
-5.31792
-5.43083
-5.43065
-5.43124
-5.43203
-5.4328
-5.43373
-5.43477
-5.43591
-5.43708
-5.43826
-5.43938
-5.44039
-5.44124
-5.44189
-5.44228
-5.44239
-5.44218
-5.44163
-5.44075
-5.43954
-5.43801
-5.43621
-5.43419
-5.55009
-5.54984
-5.55029
-5.55077
-5.55118
-5.55171
-5.55229
-5.55292
-5.55357
-5.55422
-5.55483
-5.55539
-5.55585
-5.55619
-5.55638
-5.55641
-5.55626
-5.55591
-5.55536
-5.55462
-5.5537
-5.55262
-5.55142
-5.66977
-5.66942
-5.66954
-5.6697
-5.66982
-5.66999
-5.67014
-5.67032
-5.6705
-5.67067
-5.67084
-5.67098
-5.67109
-5.67116
-5.67119
-5.67117
-5.67109
-5.67094
-5.67074
-5.67048
-5.67016
-5.66979
-5.66938
373.877
365.008
359.322
341.248
288.795
278.211
274.803
280.475
205.469
203.374
208.442
220.524
133.67
125.122
126.482
140.308
80.3556
59.2147
48.5942
57.7731
73.264
49.0988
33.8686
36.8507
74.0576
57.979
43.8667
48.4833
56.4968
50.9344
53.8108
59.2097
24.1167
21.1913
22.28
27.6578
8.44505
3.23904
2.76969
10.1139
7.47709
15.8417
23.6604
34.7103
5.48551
23.0288
29.3796
36.4551
-3.76171
-4.69212
-4.60152
-0.594067
-3.89435
-3.86163
-3.75096
-3.52711
-3.87668
-3.61301
-3.3196
-3.05588
-3.94451
-3.75278
-3.52466
-3.26138
-3.91944
-3.78204
-3.62608
-3.42044
-3.90462
-3.80716
-3.71
-3.57729
-3.92331
-3.84963
-3.7636
-3.69226
-3.92886
-3.86437
-3.7893
-3.71856
-3.87879
-3.81771
-3.74872
-3.67646
-3.80302
-3.7588
-3.70809
-3.65498
-3.79677
-3.76081
-3.72131
-3.67933
-3.83438
-3.80552
-3.7747
-3.74242
-3.89347
-3.87011
-3.84568
-3.82041
-3.96615
-3.94704
-3.92727
-3.90693
-4.04802
-4.03227
-4.01603
-3.99935
-4.13648
-4.12339
-4.10991
-4.09606
-4.23027
-4.21934
-4.20807
-4.1965
-4.32826
-4.31909
-4.30963
-4.2999
-4.42967
-4.42196
-4.41398
-4.40576
-4.5339
-4.5274
-4.52067
-4.51372
-4.64052
-4.63505
-4.62938
-4.62351
-4.74924
-4.74462
-4.73984
-4.73489
-4.8597
-4.85583
-4.85182
-4.84767
-4.97168
-4.96846
-4.96514
-4.9617
-5.08504
-5.08242
-5.07971
-5.07693
-5.19969
-5.19763
-5.19551
-5.19334
-5.31558
-5.31404
-5.31247
-5.31087
-5.43258
-5.43152
-5.43046
-5.42939
-5.55049
-5.54988
-5.54926
-5.54867
-5.66907
-5.66887
-5.66869
-5.66857
369.614
353.195
292.081
197.929
176.628
173.799
180.798
201.107
216.378
150.509
64.2151
41.3496
28.7285
13.1691
11.6969
11.0455
11.3496
17.3621
86.4255
296.055
282.453
237.973
184.148
163.804
150.068
140.847
147.826
121.597
29.3995
-21.9249
-3.67535
11.1826
12.1623
11.2922
10.592
10.4007
10.1389
16.7865
239.314
241.887
208.718
172.155
150.364
122.975
113.518
125.217
94.5857
28.414
-3.23073
1.59897
10.1069
10.6339
10.5586
10.0807
9.95672
9.48851
8.97337
171.311
190.132
167.504
141.449
119.169
93.8145
103.699
126.348
109.854
64.8368
29.7091
18.3813
16.0938
15.335
9.43386
9.13595
9.11045
8.95088
8.60263
94.0234
131.241
107.26
85.9826
72.5199
57.8835
70.6363
112.955
127.263
91.4514
58.2304
37.2475
15.8917
9.34585
7.69124
7.08948
6.97162
7.83306
8.17446
64.0969
83.8625
52.0247
35.828
28.2019
24.5604
35.0738
68.7976
89.9529
75.4361
58.5067
41.3196
17.7138
9.28588
6.62449
4.70661
2.80088
4.63473
7.17855
62.7831
41.0357
28.2421
21.3104
18.9671
19.1856
21.6182
33.0868
56.6649
56.1656
45.0056
24.8626
10.016
5.25932
3.37885
2.55724
1.63159
1.37827
3.63443
57.8365
28.7639
22.7632
19.0605
17.8124
18.2624
19.6267
23.537
29.705
21.3681
9.98609
3.02943
-0.467181
-1.82116
-1.17254
0.930822
2.19785
1.88587
2.25543
36.9286
25.6643
23.24
20.595
19.0973
18.6533
19.0596
20.0485
18.198
4.98884
-1.83116
-1.5089
-2.49257
-3.42904
-4.29154
0.11524
2.2908
2.14722
1.99433
23.2595
26.1491
25.2756
22.7841
21.1075
19.7013
17.9191
15.3273
6.63091
-0.746887
-0.80453
-1.91942
-3.23804
-6.30463
-8.07795
-0.624875
1.60308
1.51897
1.49369
47.8671
28.4761
27.3974
24.9739
18.2864
8.83063
5.64685
5.08546
6.26442
0.469901
-0.590801
-1.54897
-3.12187
-5.40275
-5.50818
-1.11015
0.603036
0.712232
0.871546
54.4216
47.6174
17.29
16.233
30.1189
19.1281
12.2249
10.157
6.27398
-0.375469
-0.670802
-1.42251
-2.31077
-2.9664
-2.4221
-0.901746
-0.0424127
0.103459
0.297779
14.9255
32.8878
37.8254
28.7702
17.9547
11.7206
7.1416
-0.902644
-2.22615
-1.67561
-1.54716
-1.70698
-1.91743
-1.78337
-1.09373
-0.618101
-0.444384
-0.265315
-0.151215
-2.62177
2.32535
4.90895
-0.299356
-1.77563
-1.97045
-2.07194
-2.55023
-2.57336
-2.17188
-2.04694
-1.97124
-1.87351
-1.62134
-1.18019
-0.79152
-0.773666
-0.632267
-0.541656
-2.59908
-2.25913
-2.21889
-2.40052
-2.14801
-2.15474
-2.29493
-2.52176
-2.58503
-2.49615
-2.3579
-2.17844
-1.96063
-1.67943
-1.36683
-1.1215
-1.07249
-0.970694
-0.880934
-2.75075
-2.42704
-2.38126
-2.3911
-2.28662
-2.26003
-2.39546
-2.66499
-2.83293
-2.813
-2.62811
-2.36892
-2.10266
-1.84566
-1.6114
-1.43195
-1.35233
-1.27826
-1.20009
-2.953
-2.60288
-2.50548
-2.43046
-2.34899
-2.35263
-2.50772
-2.79515
-3.01485
-3.00427
-2.79634
-2.51154
-2.24922
-2.02487
-1.83989
-1.70055
-1.61754
-1.55854
-1.52721
-3.20374
-2.80876
-2.65692
-2.53546
-2.44484
-2.45046
-2.59199
-2.8426
-3.0388
-3.04032
-2.85007
-2.60199
-2.3835
-2.20287
-2.05514
-1.94139
-1.86587
-1.81156
-1.81253
-3.40719
-3.02228
-2.82627
-2.68634
-2.59656
-2.59203
-2.679
-2.83824
-2.96867
-2.97011
-2.84055
-2.66728
-2.50977
-2.37362
-2.25671
-2.16343
-2.09532
-2.04542
-2.03269
-3.51802
-3.19341
-2.98602
-2.85168
-2.77582
-2.7646
-2.80272
-2.87201
-2.9315
-2.92802
-2.85436
-2.74773
-2.64034
-2.54022
-2.44962
-2.37377
-2.31075
-2.26954
-2.24885
-3.54997
-3.31746
-3.1334
-3.01539
-2.9536
-2.93538
-2.94435
-2.96539
-2.97959
-2.96609
-2.91847
-2.84932
-2.77523
-2.70375
-2.63751
-2.57785
-2.52047
-2.48337
-2.46427
-3.5616
-3.40677
-3.26622
-3.17271
-3.12063
-3.09513
-3.08447
-3.07936
-3.07046
-3.04854
-3.01052
-2.96211
-2.91175
-2.86427
-2.8207
-2.77579
-2.72682
-2.69007
-2.67208
-3.60677
-3.49891
-3.39862
-3.32448
-3.27591
-3.24409
-3.22154
-3.20239
-3.18116
-3.15382
-3.12008
-3.08398
-3.0497
-3.02055
-2.99537
-2.96185
-2.9227
-2.88448
-2.86793
-3.6863
-3.60538
-3.52912
-3.46664
-3.41986
-3.38479
-3.35636
-3.33037
-3.30333
-3.27374
-3.24257
-3.21335
-3.18808
-3.17016
-3.15603
-3.12762
-3.09493
-3.06512
-3.04971
-3.77657
-3.71311
-3.65204
-3.5987
-3.55526
-3.51998
-3.48956
-3.46108
-3.43235
-3.40303
-3.37415
-3.34843
-3.32654
-3.31249
-3.30053
-3.27701
-3.25097
-3.23066
-3.21885
-3.87173
-3.82047
-3.77048
-3.72502
-3.68573
-3.65197
-3.62185
-3.59354
-3.56576
-3.53844
-3.512
-3.48795
-3.46627
-3.45014
-3.43657
-3.41929
-3.40181
-3.38976
-3.38049
-3.97056
-3.92852
-3.88696
-3.84804
-3.813
-3.78177
-3.7534
-3.72687
-3.7015
-3.67703
-3.65304
-3.6301
-3.60815
-3.58939
-3.57488
-3.56351
-3.55194
-3.54389
-3.53675
-4.07222
-4.03729
-4.00239
-3.96905
-3.93821
-3.91003
-3.88412
-3.86002
-3.83742
-3.8157
-3.79393
-3.77228
-3.75131
-3.7327
-3.71907
-3.71097
-3.70115
-3.69452
-3.68901
-4.17655
-4.14726
-4.11775
-4.08914
-4.06216
-4.03704
-4.01369
-3.99198
-3.97171
-3.95217
-3.93237
-3.91248
-3.89358
-3.87712
-3.86495
-3.85703
-3.84917
-3.84313
-3.83869
-4.28309
-4.25836
-4.23329
-4.2087
-4.18516
-4.16291
-4.14195
-4.12224
-4.10369
-4.08577
-4.0679
-4.0504
-4.03416
-4.02022
-4.00952
-4.00173
-3.99484
-3.99
-3.98668
-4.39155
-4.3706
-4.34925
-4.3281
-4.30759
-4.28791
-4.26908
-4.25109
-4.23394
-4.21747
-4.20163
-4.18688
-4.17357
-4.16204
-4.15255
-4.14521
-4.13944
-4.13567
-4.13342
-4.5017
-4.48394
-4.46574
-4.44756
-4.42972
-4.41238
-4.39555
-4.37927
-4.36364
-4.3488
-4.33508
-4.32298
-4.31232
-4.30292
-4.29473
-4.28823
-4.28345
-4.28041
-4.27892
-4.61335
-4.59831
-4.58282
-4.56724
-4.5518
-4.53665
-4.52183
-4.50745
-4.49367
-4.48074
-4.46918
-4.45937
-4.45079
-4.44316
-4.43632
-4.43084
-4.42686
-4.42429
-4.42331
-4.72633
-4.71363
-4.70052
-4.68725
-4.67404
-4.66102
-4.6483
-4.63603
-4.62436
-4.61352
-4.60402
-4.5961
-4.58913
-4.58294
-4.57737
-4.57287
-4.56958
-4.5674
-4.5667
-4.84049
-4.82985
-4.81885
-4.80772
-4.79666
-4.78578
-4.77523
-4.76517
-4.75565
-4.74687
-4.73925
-4.7329
-4.72728
-4.72233
-4.71789
-4.71432
-4.71166
-4.70989
-4.70933
-4.95576
-4.94699
-4.93795
-4.92887
-4.91991
-4.91115
-4.90275
-4.89481
-4.88731
-4.88044
-4.87453
-4.86959
-4.86522
-4.8614
-4.858
-4.8553
-4.85324
-4.85191
-4.85141
-5.07214
-5.06511
-5.05795
-5.05085
-5.04392
-5.0372
-5.03081
-5.02483
-5.01919
-5.01409
-5.00978
-5.00617
-5.00301
-5.00027
-4.99785
-4.99595
-4.99446
-4.99354
-4.99312
-5.18962
-5.18425
-5.17888
-5.17366
-5.16864
-5.16381
-5.1593
-5.15511
-5.15124
-5.14784
-5.14505
-5.14274
-5.14075
-5.13903
-5.13753
-5.13637
-5.13543
-5.13489
-5.13458
-5.30816
-5.30435
-5.30067
-5.29719
-5.29393
-5.29088
-5.28812
-5.28565
-5.28349
-5.28171
-5.28036
-5.27929
-5.27841
-5.27766
-5.27702
-5.27653
-5.27611
-5.27591
-5.27573
-5.42761
-5.42526
-5.42315
-5.4213
-5.4197
-5.41834
-5.41727
-5.41647
-5.41593
-5.41567
-5.41565
-5.41576
-5.41593
-5.4161
-5.41626
-5.4164
-5.41647
-5.41657
-5.41651
-5.54775
-5.54679
-5.54619
-5.54593
-5.54597
-5.54629
-5.54688
-5.54771
-5.54874
-5.54993
-5.55121
-5.55248
-5.55368
-5.55476
-5.55569
-5.55646
-5.55701
-5.5574
-5.55743
-5.66852
-5.66894
-5.66985
-5.67118
-5.67287
-5.6749
-5.67721
-5.67973
-5.68241
-5.68515
-5.68782
-5.69034
-5.69264
-5.6947
-5.69647
-5.69793
-5.699
-5.69972
-5.69967
)
;

boundaryField
{
    leftWall
    {
        type            calculated;
        value           nonuniform List<scalar> 
50
(
1173.41
1118.72
1063.56
1007.94
952.605
899.122
848.941
803.539
739.732
659.93
667.661
778.037
530.546
157.089
25
3.18783
-1.55187
-3.09863
-3.26414
-3.2297
-3.09016
-2.85489
-2.89056
-3.25595
-3.66147
-3.84595
-3.75891
-3.5914
-3.47141
-3.44589
-3.48667
-3.5635
-3.65985
-3.76662
-3.87889
-3.99472
-4.11276
-4.23203
-4.35193
-4.47211
-4.59235
-4.71253
-4.83258
-4.95249
-5.07226
-5.19189
-5.3114
-5.43083
-5.55009
-5.66977
)
;
    }
    rightWall
    {
        type            calculated;
        value           nonuniform List<scalar> 
50
(
347.693
310.062
292.961
275.693
251.741
213.898
172.864
133.059
86.4255
16.7865
8.97337
8.60263
8.17446
7.17855
3.63443
2.25543
1.99433
1.49369
0.871546
0.297779
-0.151215
-0.541656
-0.880934
-1.20009
-1.52721
-1.81253
-2.03269
-2.24885
-2.46427
-2.67208
-2.86793
-3.04971
-3.21885
-3.38049
-3.53675
-3.68901
-3.83869
-3.98668
-4.13342
-4.27892
-4.42331
-4.5667
-4.70933
-4.85141
-4.99312
-5.13458
-5.27573
-5.41651
-5.55743
-5.69967
)
;
    }
    lowerWall
    {
        type            calculated;
        value           nonuniform List<scalar> 
62
(
1202.84
1188.21
1162.12
1128.68
1093.49
1058.61
1024.01
989.16
953.242
914.944
873.853
832.243
794.939
766.535
748.663
739.893
738.4
747.583
763.403
786.972
814.031
835.903
845.617
816.19
757.229
699.528
643.514
589.586
537.912
487.807
439.071
436.474
427.605
421.92
403.845
770.172
716.171
660.59
605.37
559.389
522.404
483.539
442.167
799.212
759.018
743.704
663.922
566.504
516.15
516.006
517.644
437.029
398.2
405.989
416.403
416.486
421.271
429.904
438.42
439.839
419.208
370.395
)
;
    }
    atmosphere
    {
        type            calculated;
        value           nonuniform List<scalar> 
46
(
-5.72904
-5.72904
-5.72904
-5.72904
-5.72904
-5.72904
-5.72904
-5.72904
-5.72904
-5.72904
-5.72904
-5.72904
-5.72904
-5.72904
-5.72904
-5.72904
-5.72904
-5.72904
-5.72904
-5.72904
-5.72904
-5.72904
-5.72904
-5.72904
-5.72904
-5.72904
-5.72908
-5.72939
-5.7304
-5.73201
-5.73414
-5.73667
-5.7396
-5.74283
-5.74629
-5.74991
-5.75355
-5.75704
-5.76026
-5.7632
-5.76582
-5.76809
-5.76998
-5.77137
-5.77234
-5.77201
)
;
    }
    defaultFaces
    {
        type            empty;
    }
}


// ************************************************************************* //
