/*--------------------------------*- C++ -*----------------------------------*\
| =========                 |                                                 |
| \\      /  F ield         | OpenFOAM: The Open Source CFD Toolbox           |
|  \\    /   O peration     | Version:  5.x                                   |
|   \\  /    A nd           | Web:      www.OpenFOAM.org                      |
|    \\/     M anipulation  |                                                 |
\*---------------------------------------------------------------------------*/
FoamFile
{
    version     2.0;
    format      ascii;
    class       volScalarField;
    location    "0.9";
    object      p_rgh;
}
// * * * * * * * * * * * * * * * * * * * * * * * * * * * * * * * * * * * * * //

dimensions      [1 -1 -2 0 0 0 0];

internalField   nonuniform List<scalar> 
2268
(
1202.84
1188.21
1162.12
1128.68
1093.49
1058.61
1024.01
989.16
953.242
914.944
873.853
832.243
794.939
766.535
748.663
739.893
738.4
747.583
763.403
786.972
814.031
835.903
845.617
1207.01
1191.11
1162.75
1127.07
1091.25
1057.59
1023.9
989.367
953.729
915.4
873.683
830.977
792.714
764.021
746.037
736.553
736.177
743.58
758.748
783.263
811.127
833.831
845.517
1210.71
1193.27
1162.51
1124.74
1089.12
1056.53
1023.67
989.787
954.714
916.352
873.301
828.234
787.973
758.689
744.238
739.104
737.267
738.594
754.572
784.081
812.167
834.692
846.674
1213.94
1194.84
1161.95
1121.98
1086.08
1054.97
1023.5
990.563
956.333
917.898
872.592
823.619
780.226
749.802
735.426
733.566
737.75
742.814
762.008
791.946
819.845
839.34
849.516
1217.47
1196.72
1161.87
1119.51
1083.11
1053.69
1023.74
991.818
958.723
920.214
871.638
816.879
768.976
737.213
724.041
723.118
730.254
742.446
764.938
795.058
825.949
844.51
854.45
1222.84
1199.97
1163.27
1118.69
1081.58
1053.24
1024.35
993.521
962.1
923.801
870.505
806.339
752.06
719.301
709.219
710.681
721.156
738.691
764.816
799.327
830.61
851.454
861.635
1231.52
1205.61
1167.13
1120.67
1081.88
1052.84
1024.32
995.341
966.508
928.91
867.739
789.723
727.647
694.512
690.166
694.856
709.901
732.732
763.977
803.018
837.216
860.699
870.389
1244.98
1214.26
1174.13
1126.07
1083.39
1050.74
1021.33
995.507
971.492
935.433
865.204
770.048
676.761
642.256
658.617
677.245
697.051
725.281
762.039
806.396
845.942
872.403
880.512
799.212
759.018
743.704
663.922
566.504
516.15
516.006
517.644
437.029
398.2
405.989
416.403
416.486
421.271
429.904
438.42
439.839
419.208
370.395
804.459
757.664
721.545
639.532
546.557
506.018
506.474
509.481
407.931
366.266
378.615
393.276
394.426
399.376
420.781
433.551
433.61
404.462
328.589
807.737
762.66
701.508
610.229
524.103
492.933
494.161
481.886
353.026
362.417
371.606
361.256
350.544
364.745
390.74
399.867
423.792
400.754
314.441
811.375
769.218
686.565
594.794
506.712
488.396
492.073
410.633
308.289
389.262
425.624
409.262
404.941
421.918
446.844
465.711
393.44
362.476
308.731
782.395
759.753
685.737
590.936
514.905
504.709
460.045
281.237
297.962
328.826
430.081
408.055
376.207
369.151
453.824
465.719
446.075
395.16
369.158
799.417
770.817
735.886
617.541
552.359
430.365
285.771
271.757
293.666
299.347
417.927
404.285
294.153
282.133
389.622
404.021
421.955
461.282
504.514
846.808
794.568
765.561
625.098
410.129
258.775
246.82
267.958
292.221
288.584
382.737
395.181
280.12
235.536
198.636
131.213
161.956
429.111
555.446
874.484
858.791
783.769
522.634
266.572
229.593
239.931
262.61
292.358
419.27
407.59
374.55
314.476
118.292
27.4131
12.7394
17.8607
219.249
479.571
1273.2
1235.17
1191.49
1141.45
1089.3
1043.69
1011.28
992.626
984.044
955.996
822.95
533.691
352.823
312.92
349.43
444.752
551.311
655.255
750.06
812.224
862.907
896.967
905.842
1298.77
1272.12
1230.2
1171.35
1042.26
940.737
909.716
956.283
1005.35
967.375
397.057
171.268
124.035
102.491
98.4503
101.472
122.38
194.802
366.707
619.597
786.894
870.162
918.873
1419.02
1326.93
1125.71
983.676
1018.61
911.648
845.208
707.22
374.608
299.75
269.729
174.557
124.695
99.6443
96.9814
99.4912
102.191
104.205
154.454
246.743
312.345
580.094
885.335
1591.11
1151.22
879.862
900.589
849.479
607.154
238.853
63.1548
23.5858
75.7294
168.947
209.636
232.837
132.919
98.5074
101.015
103.134
103.763
103.062
107.625
377.676
771.968
981.063
1273.77
359.117
272.435
231.893
96.5108
34.7167
-0.322907
-0.805496
0.882981
2.43917
57.5196
178.66
220.285
249.666
103.599
103.779
105.687
105.027
102.855
101.301
100.907
105.335
639.164
759.004
67.9519
23.4757
5.28619
0.556675
-0.826513
-1.20393
-1.45594
-1.52525
-1.31978
-0.374863
15.8496
190.585
280.612
316.621
116.055
106.03
106.02
104.885
103.149
101.97
102.506
196.534
240.739
11.4077
3.45022
0.253898
-0.744337
-1.12468
-1.29666
-1.49361
-1.66123
-1.67304
-1.53759
-0.788052
8.88593
228.54
395.767
455.732
240.364
120.701
104.838
103.428
102.496
106.604
125.048
8.61363
2.29526
-0.30698
-1.01322
-1.29307
-1.46122
-1.58867
-1.71331
-1.80925
-1.82587
-1.75249
-1.64402
-1.31899
0.784721
239.794
475.949
516.98
538.903
275.292
220.835
212.31
329.065
277.52
-0.135232
-0.391061
-1.07687
-1.38603
-1.58991
-1.70456
-1.77968
-1.8395
-1.86904
-1.83594
-1.75999
-1.67871
-1.60646
-1.46764
-1.22197
53.9082
454.645
637.017
728.091
777.812
839.365
1019.16
1017.34
-1.54331
-2.0284
-1.73963
-1.8625
-1.93499
-1.95486
-1.93998
-1.91959
-1.88737
-1.82948
-1.75199
-1.66483
-1.59189
-1.5413
-1.47465
-1.36881
-1.60842
5.56126
349.792
573.075
783.772
985.691
1224.59
-1.49781
-3.03949
-2.54633
-2.51593
-2.41027
-2.3007
-2.16479
-2.04609
-1.93982
-1.84118
-1.74728
-1.6576
-1.58054
-1.52881
-1.49253
-1.47048
-1.45359
-1.4022
-1.52202
-1.24794
-0.00102733
5.2898
810.322
-1.32022
-3.23696
-3.29274
-3.20427
-3.00476
-2.76534
-2.47336
-2.23198
-2.02816
-1.86938
-1.74166
-1.63933
-1.55914
-1.50527
-1.47857
-1.46996
-1.45787
-1.46778
-1.51179
-1.55135
-1.54891
-1.39334
-1.19224
-1.0544
-1.97999
-3.90045
-3.88204
-3.67774
-3.33454
-2.90899
-2.4644
-2.1143
-1.87673
-1.71319
-1.60051
-1.5186
-1.46602
-1.44172
-1.43753
-1.43842
-1.45018
-1.47991
-1.55232
-1.65628
-1.65661
-1.34516
-0.6939
-1.05321
-3.98742
-4.44137
-4.24362
-3.8483
-3.26606
-2.64323
-2.14606
-1.84841
-1.65439
-1.53497
-1.45593
-1.41022
-1.39107
-1.39588
-1.41684
-1.40872
-1.4236
-1.56955
-1.60296
-1.10928
-0.793402
-0.568991
-0.187586
-2.26582
-4.29301
-4.38789
-3.99989
-3.36136
-2.64953
-2.08366
-1.73822
-1.54581
-1.43502
-1.37168
-1.3379
-1.32846
-1.34303
-1.37994
-1.3862
-1.19078
-1.34998
-1.4988
0.2663
0.771114
-0.844571
-0.296934
-1.24991
-2.52003
-3.36189
-3.47148
-2.99786
-2.373
-1.86154
-1.5533
-1.39577
-1.31354
-1.27149
-1.25288
-1.25509
-1.27827
-1.3252
-1.39655
-1.16737
-0.725566
-1.35578
-1.42234
1.03448
-1.12489
-1.2259
-1.01064
-1.08548
-1.65788
-1.93735
-2.0796
-1.82083
-1.50156
-1.30892
-1.21752
-1.17634
-1.15967
-1.15881
-1.17247
-1.20232
-1.25271
-1.32847
-1.42721
-0.582852
0.0123794
-0.666175
-0.509085
-1.18418
-1.20642
-0.996237
-0.754304
-0.604174
-0.815034
-1.18275
-1.20397
-1.1121
-1.05293
-1.03318
-1.03362
-1.04266
-1.0583
-1.08182
-1.11559
-1.16331
-1.23025
-1.31779
-1.40907
-0.478322
2.22961
2.72285
-0.971939
-0.949642
-0.716695
-0.4372
-0.348215
-0.48108
-0.624888
-0.739913
-0.795846
-0.830751
-0.865153
-0.89749
-0.926802
-0.955272
-0.985571
-1.02027
-1.0618
-1.11313
-1.17767
-1.25047
-1.30579
0.275582
3.11004
-0.679232
-0.655452
-0.464361
-0.21192
-0.110516
-0.188785
-0.33789
-0.472597
-0.577868
-0.658558
-0.72271
-0.774254
-0.816531
-0.853127
-0.88697
-0.920326
-0.954792
-0.991606
-1.03262
-1.07955
-1.12508
-1.14594
1.69829
-0.434049
-0.410578
-0.271813
-0.102408
-0.0300018
-0.0830362
-0.202381
-0.329733
-0.441137
-0.532824
-0.606872
-0.666389
-0.714695
-0.754921
-0.789513
-0.820183
-0.84795
-0.873135
-0.895513
-0.914935
-0.929855
-0.933292
-0.89088
-0.283332
-0.257328
-0.164149
-0.0653331
-0.0269658
-0.0669849
-0.15535
-0.257991
-0.355903
-0.441766
-0.514073
-0.573787
-0.622795
-0.6631
-0.69635
-0.723643
-0.745486
-0.76169
-0.771168
-0.771846
-0.760979
-0.734189
-0.693019
-0.198927
-0.180799
-0.122854
-0.0672695
-0.0490181
-0.0790599
-0.142552
-0.220764
-0.300547
-0.374554
-0.439613
-0.495016
-0.541253
-0.579227
-0.609789
-0.633484
-0.650442
-0.660272
-0.661989
-0.653831
-0.633974
-0.602045
-0.556117
-0.150555
-0.141362
-0.107631
-0.0776284
-0.0707243
-0.0937144
-0.139701
-0.198665
-0.261886
-0.32322
-0.379166
-0.428152
-0.469734
-0.504001
-0.53118
-0.551403
-0.564581
-0.570331
-0.568013
-0.55673
-0.535666
-0.503889
-0.461399
-0.121719
-0.115734
-0.098089
-0.0840409
-0.0844773
-0.10328
-0.137778
-0.182737
-0.232508
-0.282404
-0.329264
-0.371257
-0.407449
-0.43743
-0.461016
-0.478067
-0.488383
-0.491648
-0.487475
-0.475432
-0.455139
-0.425964
-0.388763
-0.103286
-0.0980852
-0.0902345
-0.0860897
-0.0909667
-0.107235
-0.134182
-0.169107
-0.208405
-0.248677
-0.287329
-0.322605
-0.353397
-0.379042
-0.399127
-0.413354
-0.421466
-0.423203
-0.418323
-0.406611
-0.387957
-0.362412
-0.33067
-0.0903676
-0.0862297
-0.0840495
-0.0853562
-0.0924812
-0.106884
-0.128606
-0.156239
-0.187474
-0.219905
-0.251508
-0.280746
-0.306523
-0.328091
-0.344935
-0.356682
-0.363054
-0.36383
-0.358857
-0.348063
-0.331514
-0.309493
-0.282636
-0.0810054
-0.0780286
-0.0788304
-0.0828361
-0.0907864
-0.103563
-0.121436
-0.143631
-0.168641
-0.194773
-0.220484
-0.244496
-0.26582
-0.283724
-0.297672
-0.307274
-0.312253
-0.312422
-0.307688
-0.298058
-0.283669
-0.264789
-0.242098
-0.0738501
-0.0717876
-0.0740463
-0.0791627
-0.0870697
-0.0983157
-0.113186
-0.131209
-0.151368
-0.172458
-0.193313
-0.212906
-0.230389
-0.245097
-0.256524
-0.264296
-0.268155
-0.267943
-0.263601
-0.25517
-0.242797
-0.226694
-0.207544
-0.0679214
-0.0665291
-0.0693955
-0.0747249
-0.0821015
-0.0918885
-0.104313
-0.119047
-0.135373
-0.152419
-0.169302
-0.18521
-0.199442
-0.21142
-0.220693
-0.226923
-0.229876
-0.229418
-0.225507
-0.218197
-0.207641
-0.194114
-0.177785
-0.0626262
-0.061716
-0.0647062
-0.0697659
-0.0763747
-0.0847872
-0.0951608
-0.10724
-0.120496
-0.134279
-0.147921
-0.160782
-0.172295
-0.181976
-0.189433
-0.194371
-0.196585
-0.195959
-0.192457
-0.18613
-0.17711
-0.165608
-0.151838
-0.0576101
-0.057042
-0.0598877
-0.0644453
-0.0702015
-0.0773413
-0.0859661
-0.0958619
-0.106622
-0.117755
-0.128748
-0.139103
-0.148361
-0.156124
-0.162063
-0.165925
-0.167533
-0.166786
-0.163654
-0.158179
-0.150471
-0.140695
-0.129069
-0.0526569
-0.0523332
-0.0548969
-0.0588676
-0.0637737
-0.0697554
-0.0768769
-0.0849516
-0.0936596
-0.102623
-0.111446
-0.119737
-0.127131
-0.133302
-0.137979
-0.140949
-0.142062
-0.141231
-0.138431
-0.133694
-0.127111
-0.118813
-0.108953
-0.047642
-0.047495
-0.0497188
-0.0530997
-0.0572035
-0.0621475
-0.0679738
-0.0745161
-0.0815203
-0.0886944
-0.09573
-0.10232
-0.108174
-0.113028
-0.116659
-0.118893
-0.119606
-0.118722
-0.116221
-0.112127
-0.106517
-0.0995008
-0.0912338
-0.0425031
-0.0424784
-0.0443542
-0.047182
-0.050551
-0.0545774
-0.0592879
-0.0645329
-0.0701127
-0.0758007
-0.0813571
-0.0865411
-0.0911206
-0.0948851
-0.0976553
-0.0992885
-0.099682
-0.0987742
-0.0965455
-0.0930167
-0.0882484
-0.0823328
-0.0753966
-0.0372182
-0.0372619
-0.0388104
-0.0411365
-0.0438454
-0.0470688
-0.050818
-0.0549607
-0.0593434
-0.0637908
-0.068117
-0.0721341
-0.075659
-0.0785247
-0.0805887
-0.081736
-0.0818828
-0.0809783
-0.0790053
-0.07598
-0.0719506
-0.0669906
-0.0611985
-0.0317874
-0.0318423
-0.0330989
-0.0349773
-0.0371011
-0.0396262
-0.0425459
-0.0457495
-0.0491224
-0.0525296
-0.055829
-0.0588758
-0.0615276
-0.0636544
-0.0651441
-0.0659055
-0.0658711
-0.0649994
-0.0632762
-0.0607138
-0.0573509
-0.0532467
-0.0484839
-0.0262242
-0.0262357
-0.0272393
-0.0287189
-0.0303285
-0.0322473
-0.0344503
-0.0368523
-0.039371
-0.0419033
-0.0443439
-0.0465837
-0.0485145
-0.0500377
-0.051067
-0.0515314
-0.051378
-0.0505739
-0.049108
-0.0469901
-0.044252
-0.040943
-0.0371358
-0.0205367
-0.0204618
-0.0212531
-0.0223752
-0.0235337
-0.0249252
-0.0265076
-0.0282248
-0.0300192
-0.0318146
-0.0335367
-0.0351065
-0.0364452
-0.0374807
-0.0381493
-0.038398
-0.0381869
-0.0374914
-0.0363034
-0.0346313
-0.0325013
-0.0299546
-0.027056
-0.0147757
-0.0145933
-0.0151901
-0.0159808
-0.0167438
-0.0176765
-0.018721
-0.0198524
-0.0210304
-0.0222032
-0.0233232
-0.0243364
-0.0251903
-0.025836
-0.0262299
-0.0263352
-0.0261243
-0.0255806
-0.0246985
-0.0234851
-0.0219608
-0.0201589
-0.0181349
-0.00884057
-0.00859336
-0.00904148
-0.00952037
-0.00993206
-0.0104597
-0.0110376
-0.0116671
-0.01232
-0.0129674
-0.0135839
-0.0141378
-0.0145994
-0.0149406
-0.0151358
-0.0151636
-0.0150074
-0.0146574
-0.0141103
-0.0133704
-0.0124504
-0.0113716
-0.0101759
-0.00333224
-0.00298036
-0.00309608
-0.00325326
-0.00337693
-0.00354301
-0.00370051
-0.00387821
-0.00405687
-0.00423119
-0.00439414
-0.00453565
-0.00464767
-0.00472171
-0.00474966
-0.00472496
-0.00464267
-0.00450011
-0.00429643
-0.00403318
-0.00371387
-0.00334399
-0.00293744
907.344
898.475
892.79
874.715
945.829
936.873
933.464
939.135
955.153
983.881
992.295
1004.37
978.86
987.847
1008.27
1027.97
1064.92
1046.11
1048.01
1066.02
1105.66
1160.59
1151.27
1162.35
815.719
1285.73
1276.3
1285.69
571.086
1281.94
1398.4
1397.07
630.04
645.876
751.701
1289.13
1238.04
1232.37
1277.57
1346.21
1320.02
1371.09
1386.04
1414.27
298.461
1215.58
1427.58
1440
-1.19954
-1.72832
-1.44718
128.782
-0.784209
-0.964492
-1.16218
-1.1574
0.0843897
-0.691778
-0.739223
-0.688879
2.4053
2.69707
3.14723
1.39211
-0.210319
2.94702
3.50211
3.70236
1.50932
0.620996
0.864039
3.89706
3.20012
1.33716
-0.22192
2.73777
1.96252
-0.36044
-0.720278
0.776235
-0.841434
-0.780344
-0.711349
-0.639104
-0.640471
-0.596251
-0.545534
-0.492428
-0.509026
-0.473059
-0.433567
-0.391587
-0.421438
-0.392581
-0.361755
-0.329477
-0.355336
-0.331977
-0.307544
-0.282271
-0.302823
-0.283714
-0.263943
-0.243604
-0.259494
-0.243747
-0.227506
-0.210828
-0.222765
-0.209676
-0.196186
-0.182346
-0.191352
-0.180424
-0.169156
-0.157583
-0.164151
-0.154985
-0.145524
-0.135787
-0.140362
-0.132653
-0.12468
-0.116457
-0.119404
-0.112906
-0.106175
-0.0992236
-0.100826
-0.0953609
-0.0896892
-0.0838199
-0.0843489
-0.0797363
-0.0749544
-0.0700082
-0.0696201
-0.0657489
-0.0617363
-0.0575884
-0.0564032
-0.0531894
-0.0498606
-0.0464231
-0.044566
-0.0419477
-0.0392436
-0.0364586
-0.0340299
-0.0319677
-0.0298485
-0.0276756
-0.0247211
-0.023178
-0.0216072
-0.0200103
-0.0165278
-0.0154686
-0.0144048
-0.0133391
-0.00924511
-0.00863582
-0.00801182
-0.00742057
-0.00262365
-0.00242645
-0.00224922
-0.00212788
903.053
884.937
783.281
420.234
221.894
219.064
226.085
250.171
389.525
425.892
343.388
309.934
133.977
38.4745
12.336
11.6136
11.9434
87.0831
536.996
954.692
926.017
791.725
334.085
219.692
225.164
240.163
206.098
271.376
279.694
117.337
25.3296
14.3817
13.2001
11.9936
11.2933
11.1021
10.8367
94.7102
1023.09
979.543
768.077
293.295
224.616
335.729
231.438
194.411
150.923
81.9917
42.1156
40.1803
43.3089
58.7142
14.5927
10.9154
10.7712
10.2775
9.75722
1062.4
1033.57
659.796
284.804
257.563
353.078
363.068
299.012
168.233
120.199
83.5863
78.4991
106.459
86.8255
25.491
10.104
10.0978
9.90758
9.51166
1101.76
1008.86
429.481
207.866
365.181
352.97
341.28
309.831
353.691
312.021
265.442
250.419
173.353
32.6822
9.48653
8.8236
11.6691
12.3224
9.2087
1177.47
791.047
92.8947
72.7387
135.911
106.36
139.77
318.922
361.908
369.635
319.936
228.714
115.181
17.3077
8.6884
6.82596
11.4442
13.2781
14.9154
1212.49
444.938
37.9042
29.8193
27.4068
27.917
68.0654
119.511
271.493
400.062
380.657
309.856
136.392
10.9075
6.29022
5.00243
7.78606
10.1142
21.7444
1161.31
175.868
31.9463
28.0203
26.9236
27.5251
29.0259
46.9017
371.869
444.886
333.504
28.9508
36.6767
24.8258
3.40051
4.54074
5.93568
3.29945
3.66526
1250.17
214.557
32.9744
30.3497
28.8527
28.7222
30.0753
34.7498
328.067
466.308
68.1417
1.64235
0.84372
29.4607
15.1494
4.38887
5.69361
3.68554
3.52935
1229.52
242.689
35.7887
33.3125
31.6753
44.0595
70.7133
87.3498
469.462
487.825
33.9299
0.997875
0.0837055
28.9435
25.9881
4.42122
5.57755
3.27058
3.15391
1373.18
461.803
38.7197
39.978
236.369
497.37
590.585
663.252
646.879
119.895
1.35328
1.40706
2.63673
9.06827
10.532
2.52576
3.25881
2.5416
2.65696
1421.28
855.663
393.031
593.976
791.629
780.753
766.428
737.213
297.507
1.60011
1.2828
1.79253
2.27282
-0.463752
-0.315558
1.21784
1.8694
2.01415
2.20839
654.947
913.161
917.235
878.298
663.55
463.731
304.687
90.4524
-0.173899
0.384943
0.491408
0.765508
1.19027
1.48284
1.08887
1.41961
1.59912
1.77061
1.88458
-0.392244
154.464
239.764
103.209
0.386183
0.191573
0.0909405
-0.385317
-0.396858
0.0244531
0.114058
0.189764
0.287493
0.579907
1.13659
1.36978
1.38799
1.52878
1.61934
-0.308629
0.0274164
0.0676302
-0.113949
0.138669
0.141498
0.0694518
-0.159058
-0.282948
-0.209957
-0.0717041
0.107752
0.325562
0.606763
0.919372
1.16471
1.21373
1.31551
1.40525
0.512444
-0.0153083
0.0303783
0.0212293
0.126699
0.184394
0.10569
-0.174556
-0.421543
-0.401614
-0.216721
0.042464
0.308766
0.565837
0.800102
0.979469
1.05908
1.13315
1.69794
4.16981
0.652608
0.0312796
0.107076
0.197165
0.203558
0.060015
-0.241068
-0.47827
-0.467688
-0.25975
0.0250428
0.287372
0.511851
0.696828
0.836073
0.919065
0.978075
2.29177
4.23653
1.8825
0.00494909
0.126337
0.219274
0.217175
0.070393
-0.180806
-0.377014
-0.378539
-0.188286
0.0597856
0.278272
0.458962
0.606714
0.720387
0.795912
0.925215
1.15501
4.32936
0.445302
-0.0392913
0.100633
0.190413
0.195869
0.111968
-0.0500056
-0.181694
-0.183131
-0.0535756
0.119693
0.277205
0.413352
0.53026
0.623542
0.691655
1.1227
0.754275
3.11084
-0.0222115
-0.0738567
0.0604798
0.136344
0.147559
0.109633
0.040453
-0.0191345
-0.0158421
0.0578093
0.164437
0.27183
0.37195
0.462546
0.5384
0.62246
1.04523
0.718317
-0.512614
-0.280107
-0.0960451
0.0219695
0.0837626
0.101979
0.0930079
0.0719727
0.0577709
0.0712714
0.118887
0.188039
0.262134
0.333613
0.399852
0.459514
0.799955
0.973908
0.673615
-0.399049
-0.244216
-0.103668
-0.0101562
0.0419242
0.0674232
0.0780797
0.0831968
0.0920922
0.114009
0.152035
0.20044
0.250802
0.298329
0.341941
0.386772
0.869049
0.909709
0.552975
-0.319024
-0.211166
-0.110877
-0.0367359
0.0118343
0.0436587
0.0662075
0.0853566
0.106593
0.133924
0.167673
0.203773
0.238236
0.27295
0.295035
0.325915
0.756991
0.703073
0.423576
-0.273361
-0.192441
-0.116179
-0.0536988
-0.00692191
0.0281546
0.0565866
0.0825698
0.109611
0.139199
0.170377
0.199594
0.241512
0.272908
0.261581
0.286198
0.37383
0.34782
0.363231
-0.238438
-0.174977
-0.113901
-0.0605655
-0.0171192
0.0181572
0.0485756
0.077057
0.105783
0.135154
0.163987
0.190963
0.24293
0.256926
0.240894
0.261128
0.287166
0.307479
0.31929
-0.208401
-0.157138
-0.107149
-0.0616871
-0.0223958
0.0113642
0.041482
0.0697905
0.0976523
0.125311
0.151331
0.182954
0.229494
0.245627
0.22836
0.244043
0.261526
0.273568
0.28284
-0.182034
-0.14
-0.0984344
-0.0595132
-0.0244793
0.00675186
0.0351224
0.0616529
0.087436
0.112017
0.135497
0.167757
0.213917
0.232483
0.215216
0.225015
0.236634
0.244635
0.251776
-0.158499
-0.123573
-0.0886679
-0.0553265
-0.024494
0.00368532
0.0296024
0.0537123
0.0768352
0.0985508
0.119811
0.143234
0.186519
0.206869
0.197551
0.202767
0.212639
0.220022
0.224711
-0.137633
-0.108347
-0.0788397
-0.0502262
-0.0232424
0.00187208
0.0252221
0.0469779
0.0677281
0.0872658
0.106636
0.126452
0.145345
0.161805
0.177167
0.182092
0.189809
0.197849
0.20333
-0.11898
-0.0942549
-0.0691844
-0.0445908
-0.0210514
0.00119577
0.0221613
0.0418717
0.0605583
0.0783619
0.0962556
0.113721
0.129965
0.143905
0.154953
0.16257
0.169342
0.174969
0.184125
-0.102245
-0.081297
-0.0599445
-0.0387925
-0.0182823
0.00139138
0.020223
0.0382129
0.0553627
0.071832
0.0877004
0.102458
0.115748
0.127281
0.136765
0.144106
0.150059
0.153642
0.155987
-0.0872011
-0.0694388
-0.0512426
-0.0330583
-0.0152197
0.00212214
0.0189512
0.0352314
0.0508598
0.0657018
0.0794279
0.0915493
0.102255
0.111684
0.119803
0.126279
0.131287
0.134096
0.135573
-0.0736595
-0.0586156
-0.043133
-0.0275451
-0.0121107
0.00304262
0.0178627
0.0322457
0.0460247
0.0589477
0.0705133
0.0803558
0.0890392
0.0966738
0.103466
0.10887
0.113081
0.115427
0.116385
-0.0614455
-0.0487463
-0.035629
-0.0223595
-0.00915477
0.00386238
0.0165878
0.0288583
0.04053
0.0513653
0.0608633
0.0688615
0.0758996
0.0820924
0.0875922
0.0920276
0.0953426
0.097498
0.0981865
-0.0504134
-0.0397734
-0.0287726
-0.0176436
-0.00658212
0.00429856
0.0148528
0.0249154
0.034435
0.0432146
0.0508294
0.0572455
0.0629208
0.0678114
0.0721931
0.0757639
0.0784178
0.0801876
0.0807526
-0.0404875
-0.0317124
-0.0226768
-0.0135972
-0.00463806
0.0041217
0.0125251
0.0204615
0.0279607
0.0348338
0.040745
0.045695
0.0500646
0.0538737
0.0572749
0.0599755
0.0620363
0.0633704
0.0638679
-0.0316656
-0.0246354
-0.0174774
-0.0103777
-0.00345032
0.00327408
0.00965528
0.0156438
0.0212824
0.0263792
0.0306961
0.0343007
0.0374627
0.0402048
0.0426243
0.044519
0.0460148
0.0469282
0.0473452
-0.0239539
-0.0185809
-0.0132179
-0.00799466
-0.00297258
0.00185234
0.00636879
0.0105545
0.0144253
0.0178211
0.0206141
0.022923
0.0249164
0.0266341
0.0281333
0.0292916
0.0302398
0.0307752
0.0310827
-0.0172975
-0.0134918
-0.00981332
-0.00633158
-0.00307169
-1.97441e-05
0.00274393
0.00520704
0.00736975
0.00914442
0.0105016
0.0115668
0.012449
0.0131978
0.0138418
0.0143251
0.0147495
0.0149471
0.0151338
-0.0115591
-0.00920929
-0.00709628
-0.0052438
-0.00364793
-0.00229064
-0.00121506
-0.000415685
0.000121174
0.00038432
0.000404342
0.000290061
0.000122263
-4.8341e-05
-0.000201691
-0.000346011
-0.000413578
-0.000519791
-0.000456903
-0.00649991
-0.00553801
-0.00494657
-0.00468488
-0.004725
-0.00504153
-0.00563115
-0.00646248
-0.00749459
-0.00868431
-0.0099632
-0.0112364
-0.0124362
-0.0135145
-0.0144463
-0.0152115
-0.0157583
-0.0161483
-0.0161796
-0.00208176
-0.00249808
-0.00340573
-0.00473443
-0.00642793
-0.00845621
-0.0107636
-0.0132888
-0.0159673
-0.0187031
-0.0213798
-0.0238961
-0.0262017
-0.0282543
-0.0300288
-0.0314907
-0.0325608
-0.0332728
-0.0332279
)
;

boundaryField
{
    leftWall
    {
        type            fixedFluxPressure;
        gradient        uniform 0;
        value           nonuniform List<scalar> 
50
(
1202.84
1207.01
1210.71
1213.94
1217.47
1222.84
1231.52
1244.98
1273.2
1298.77
1419.02
1591.11
1273.77
759.004
240.739
8.61363
-0.135232
-1.54331
-1.49781
-1.32022
-1.0544
-0.6939
-0.568991
-0.844571
-1.12489
-1.18418
-0.971939
-0.679232
-0.434049
-0.283332
-0.198927
-0.150555
-0.121719
-0.103286
-0.0903676
-0.0810054
-0.0738501
-0.0679214
-0.0626262
-0.0576101
-0.0526569
-0.047642
-0.0425031
-0.0372182
-0.0317874
-0.0262242
-0.0205367
-0.0147757
-0.00884057
-0.00333224
)
;
    }
    rightWall
    {
        type            fixedFluxPressure;
        gradient        uniform 0;
        value           nonuniform List<scalar> 
50
(
370.395
328.589
314.441
308.731
369.158
504.514
555.446
479.571
536.996
94.7102
9.75722
9.51166
9.2087
14.9154
21.7444
3.66526
3.52935
3.15391
2.65696
2.20839
1.88458
1.61934
1.40525
1.69794
2.29177
1.15501
0.754275
0.718317
0.673615
0.552975
0.423576
0.363231
0.31929
0.28284
0.251776
0.224711
0.20333
0.184125
0.155987
0.135573
0.116385
0.0981865
0.0807526
0.0638679
0.0473452
0.0310827
0.0151338
-0.000456903
-0.0161796
-0.0332279
)
;
    }
    lowerWall
    {
        type            fixedFluxPressure;
        gradient        uniform 0;
        value           nonuniform List<scalar> 
62
(
1202.84
1188.21
1162.12
1128.68
1093.49
1058.61
1024.01
989.16
953.242
914.944
873.853
832.243
794.939
766.535
748.663
739.893
738.4
747.583
763.403
786.972
814.031
835.903
845.617
845.617
845.517
846.674
849.516
854.45
861.635
870.389
880.512
907.344
898.475
892.79
874.715
799.212
804.459
807.737
811.375
782.395
799.417
846.808
874.484
799.212
759.018
743.704
663.922
566.504
516.15
516.006
517.644
437.029
398.2
405.989
416.403
416.486
421.271
429.904
438.42
439.839
419.208
370.395
)
;
    }
    atmosphere
    {
        type            totalPressure;
        rho             rho;
        psi             none;
        gamma           1;
        p0              uniform 0;
        value           nonuniform List<scalar> 
46
(
0
0
0
0
0
0
0
0
0
0
0
0
0
0
0
0
0
0
0
0
0
0
0
0
0
0
-3.96519e-05
-0.000354858
-0.00136451
-0.00296521
-0.00509629
-0.00762744
-0.0105587
-0.0137894
-0.0172535
-0.0208748
-0.0245091
-0.0279969
-0.0312227
-0.0341623
-0.0367758
-0.0390483
-0.0409429
-0.0423313
-0.0433019
-0.0429746
)
;
    }
    defaultFaces
    {
        type            empty;
    }
}


// ************************************************************************* //
