/*--------------------------------*- C++ -*----------------------------------*\
| =========                 |                                                 |
| \\      /  F ield         | OpenFOAM: The Open Source CFD Toolbox           |
|  \\    /   O peration     | Version:  5.x                                   |
|   \\  /    A nd           | Web:      www.OpenFOAM.org                      |
|    \\/     M anipulation  |                                                 |
\*---------------------------------------------------------------------------*/
FoamFile
{
    version     2.0;
    format      ascii;
    class       surfaceScalarField;
    location    "0.9";
    object      phi;
}
// * * * * * * * * * * * * * * * * * * * * * * * * * * * * * * * * * * * * * //

dimensions      [0 3 -1 0 0 0 0];

internalField   nonuniform List<scalar> 
4432
(
-1.8731e-06
1.8731e-06
-5.76964e-06
3.89651e-06
-1.16667e-05
5.89703e-06
-1.7783e-05
6.11636e-06
-2.08161e-05
3.03305e-06
-2.02628e-05
-5.53256e-07
-1.87424e-05
-1.52044e-06
-1.77219e-05
-1.02039e-06
-1.67495e-05
-9.7244e-07
-1.53107e-05
-1.43881e-06
-1.3403e-05
-1.90771e-06
-1.13183e-05
-2.08465e-06
-9.31288e-06
-2.00545e-06
-7.45554e-06
-1.85735e-06
-6.03006e-06
-1.42547e-06
-7.44271e-06
1.41263e-06
-1.43065e-05
6.86374e-06
-2.20164e-05
7.70991e-06
-2.38928e-05
1.87644e-06
-2.03368e-05
-3.556e-06
-1.42553e-05
-6.08153e-06
-6.77188e-06
-7.48339e-06
-6.77188e-06
-7.01832e-06
8.89142e-06
-1.43314e-05
1.12096e-05
-2.05804e-05
1.2146e-05
-2.37576e-05
9.29358e-06
-2.33382e-05
2.61368e-06
-2.12887e-05
-2.60278e-06
-1.94031e-05
-3.40608e-06
-1.81796e-05
-2.24383e-06
-1.71219e-05
-2.03018e-06
-1.54199e-05
-3.14078e-06
-1.28872e-05
-4.4404e-06
-1.00652e-05
-4.90663e-06
-7.90721e-06
-4.16345e-06
-7.3649e-06
-2.39969e-06
-9.1616e-06
3.71204e-07
-1.32103e-05
5.46135e-06
-1.7462e-05
1.11154e-05
-1.88342e-05
9.08209e-06
-1.64356e-05
-5.22117e-07
-1.27715e-05
-7.22012e-06
-9.12724e-06
-9.72577e-06
-4.49524e-06
-1.21154e-05
-1.12671e-05
-8.51869e-06
1.74101e-05
-1.59367e-05
1.86276e-05
-2.12973e-05
1.75066e-05
-2.40062e-05
1.20026e-05
-2.40944e-05
2.70179e-06
-2.23907e-05
-4.3064e-06
-2.04941e-05
-5.30276e-06
-1.91991e-05
-3.53874e-06
-1.79098e-05
-3.31952e-06
-1.57802e-05
-5.27036e-06
-1.25933e-05
-7.62725e-06
-8.96607e-06
-8.53392e-06
-5.90417e-06
-7.22536e-06
-4.29532e-06
-4.00854e-06
-4.76369e-06
8.39588e-07
-6.79234e-06
7.49002e-06
-7.95082e-06
1.22739e-05
-6.87777e-06
8.00903e-06
-4.98017e-06
-2.41973e-06
-3.87273e-06
-8.32755e-06
-3.15681e-06
-1.04417e-05
-1.65585e-06
-1.36164e-05
-1.2923e-05
-7.96967e-06
2.53798e-05
-1.46893e-05
2.53473e-05
-1.97133e-05
2.25306e-05
-2.27049e-05
1.49942e-05
-2.32956e-05
3.29246e-06
-2.23005e-05
-5.3015e-06
-2.13441e-05
-6.25913e-06
-2.06662e-05
-4.21664e-06
-1.95682e-05
-4.41748e-06
-1.7336e-05
-7.50266e-06
-1.37948e-05
-1.11684e-05
-9.68596e-06
-1.26428e-05
-6.08376e-06
-1.08275e-05
-3.62232e-06
-6.46995e-06
-2.0572e-06
-7.25528e-07
-5.01072e-07
5.93388e-06
1.16807e-06
1.06048e-05
2.18719e-06
6.98991e-06
1.48643e-06
-1.71897e-06
4.56162e-07
-7.29728e-06
-5.36691e-07
-9.44883e-06
-6.21652e-07
-1.35314e-05
-1.35446e-05
-6.6262e-06
3.2006e-05
-1.23978e-05
3.11189e-05
-1.67915e-05
2.69243e-05
-1.93935e-05
1.75961e-05
-2.02236e-05
4.12258e-06
-2.05276e-05
-4.9975e-06
-2.14649e-05
-5.32183e-06
-2.21591e-05
-3.52238e-06
-2.15923e-05
-4.98435e-06
-1.91909e-05
-9.90406e-06
-1.49072e-05
-1.54521e-05
-9.79958e-06
-1.77504e-05
-5.46621e-06
-1.51609e-05
-2.81872e-06
-9.11745e-06
-1.23514e-06
-2.30912e-06
5.76892e-07
4.12184e-06
2.81605e-06
8.36561e-06
3.23268e-06
6.57328e-06
1.29632e-06
2.17392e-07
-3.42702e-07
-5.65826e-06
-1.45162e-06
-8.33991e-06
-1.18863e-06
-1.37944e-05
-1.47332e-05
-4.89793e-06
3.69039e-05
-9.44666e-06
3.56676e-05
-1.27227e-05
3.02004e-05
-1.44995e-05
1.93729e-05
-1.55556e-05
5.17864e-06
-1.75969e-05
-2.95618e-06
-2.10593e-05
-1.85939e-06
-2.36535e-05
-9.28248e-07
-2.39212e-05
-4.71661e-06
-2.10456e-05
-1.27796e-05
-1.49692e-05
-2.15285e-05
-7.88554e-06
-2.4834e-05
-2.55717e-06
-2.04893e-05
8.17419e-09
-1.16828e-05
9.86121e-07
-3.28708e-06
1.61195e-06
3.49602e-06
2.26836e-06
7.70921e-06
1.78971e-06
7.05193e-06
-1.92455e-07
2.19955e-06
-1.92054e-06
-3.93018e-06
-2.43038e-06
-7.83007e-06
-1.65516e-06
-1.45696e-05
-1.63884e-05
-2.95718e-06
3.98611e-05
-6.37333e-06
3.90837e-05
-8.47029e-06
3.22973e-05
-9.04962e-06
1.99522e-05
-1.00189e-05
6.14798e-06
-1.43108e-05
1.33567e-06
-2.08757e-05
4.70551e-06
-2.53867e-05
3.58277e-06
-2.62563e-05
-3.84704e-06
-2.1968e-05
-1.70678e-05
-1.33713e-05
-3.01253e-05
-4.75354e-06
-3.34518e-05
7.00315e-07
-2.59431e-05
3.12147e-06
-1.4104e-05
3.7592e-06
-3.9248e-06
3.75261e-06
3.50262e-06
3.31723e-06
8.1446e-06
1.98218e-06
8.38698e-06
-1.45664e-07
4.32738e-06
-1.9036e-06
-2.17224e-06
-2.34845e-06
-7.38522e-06
-1.51322e-06
-1.54048e-05
-1.79016e-05
-1.03553e-06
4.08966e-05
-3.08938e-06
4.11376e-05
-3.11122e-06
3.23192e-05
-1.15384e-06
1.79949e-05
-2.32319e-06
7.31735e-06
-1.06773e-05
9.68979e-06
-2.07905e-05
1.48187e-05
-2.69925e-05
9.7848e-06
-2.80557e-05
-2.78385e-06
-2.27792e-05
-2.23444e-05
-1.39815e-05
-3.89229e-05
-5.09006e-06
-4.23432e-05
1.16075e-06
-3.21939e-05
3.79145e-06
-1.67346e-05
3.96473e-06
-4.09808e-06
4.09852e-06
3.36883e-06
3.37156e-06
8.87156e-06
1.63283e-06
1.01257e-05
-6.79171e-07
6.63939e-06
-2.79728e-06
-5.4123e-08
-3.08371e-06
-7.09879e-06
-2.45133e-06
-1.60372e-05
-2.0353e-05
-5.87483e-06
5.87483e-06
-9.71101e-06
3.83618e-06
1.15283e-05
-2.12393e-05
3.15762e-05
-2.00479e-05
3.75172e-05
-5.94101e-06
3.39855e-05
3.53167e-06
2.54179e-05
8.56762e-06
2.6163e-06
2.28016e-05
-1.55158e-05
1.81321e-05
-1.2775e-05
-2.74079e-06
-1.64018e-05
3.62681e-06
-2.50525e-05
8.65062e-06
-3.31238e-05
8.07135e-06
-3.90156e-05
5.89183e-06
-4.0367e-05
1.35137e-06
-3.21159e-05
-8.25112e-06
-1.52228e-05
-1.68931e-05
-2.21813e-07
-1.5001e-05
-2.21821e-07
-1.13761e-05
1.72509e-05
-3.28857e-06
-4.25131e-06
2.23816e-05
-4.69095e-05
3.65904e-05
-3.42567e-05
3.88325e-05
-8.18305e-06
3.63969e-05
5.96722e-06
2.44909e-05
2.04736e-05
-3.59529e-06
5.08878e-05
-2.33502e-05
3.7887e-05
-1.92513e-05
-6.83969e-06
-1.57429e-05
1.18378e-07
-1.39094e-05
6.81709e-06
-1.76419e-05
1.18038e-05
-2.10004e-05
9.25035e-06
-2.00643e-05
4.15325e-07
-1.01987e-05
-1.81168e-05
4.44549e-06
-3.15372e-05
1.5416e-05
-2.59715e-05
1.51941e-05
-1.04128e-05
2.76637e-05
3.3224e-06
-1.79865e-05
2.33089e-05
-6.6896e-05
3.02894e-05
-4.12372e-05
2.95954e-05
-7.48901e-06
2.33846e-05
1.2178e-05
6.36085e-06
3.74973e-05
-1.26673e-05
6.99159e-05
-3.12038e-05
5.64236e-05
-3.02014e-05
-7.84207e-06
-2.53551e-05
-4.72789e-06
-2.25525e-05
4.01448e-06
-2.41519e-05
1.34032e-05
-2.17046e-05
6.80313e-06
-1.02002e-05
-1.10891e-05
5.26121e-06
-3.35783e-05
1.42687e-05
-4.05448e-05
1.11197e-05
-2.28224e-05
2.63138e-05
-7.41648e-06
3.50802e-05
5.58751e-06
-3.09905e-05
1.3724e-05
-7.50325e-05
1.24751e-05
-3.99883e-05
9.12532e-06
-4.13925e-06
-3.72595e-07
2.16759e-05
-1.1411e-05
4.85358e-05
-2.09772e-05
7.94822e-05
-2.0715e-05
5.61614e-05
-2.03812e-05
-8.17591e-06
-2.16055e-05
-3.50362e-06
-2.25584e-05
4.96744e-06
-2.06939e-05
1.15386e-05
-2.19537e-05
8.06292e-06
-2.06065e-05
-1.24362e-05
-1.34915e-05
-4.06934e-05
-1.97132e-06
-5.20649e-05
-5.38046e-06
-1.94133e-05
2.09333e-05
-4.68262e-06
3.97628e-05
2.61527e-06
-3.82884e-05
-3.4475e-06
-6.89697e-05
-1.2753e-05
-3.06829e-05
-1.99706e-05
3.07839e-06
-2.23516e-05
2.4057e-05
-2.08723e-05
4.70565e-05
-2.43139e-05
8.29238e-05
-2.35371e-05
5.53845e-05
-3.0729e-05
-9.83958e-07
-3.52097e-05
9.77046e-07
-4.38233e-05
1.35811e-05
-5.74027e-05
2.51179e-05
-6.48698e-05
1.553e-05
-5.85847e-05
-1.87214e-05
-4.26377e-05
-5.66403e-05
-2.21262e-05
-7.25764e-05
-5.98302e-06
-3.55565e-05
1.49503e-05
-4.63978e-06
4.44025e-05
-5.46959e-06
-3.74585e-05
-1.99668e-05
-5.44725e-05
-3.35996e-05
-1.705e-05
-3.41724e-05
3.65119e-06
-2.35638e-05
1.34484e-05
-2.0706e-05
4.41987e-05
-1.61625e-05
7.83803e-05
-2.00361e-05
5.92582e-05
-4.03202e-05
1.93001e-05
-6.95929e-05
3.02498e-05
-9.20354e-05
3.60236e-05
-9.12756e-05
2.43581e-05
-7.94221e-05
3.67649e-06
-6.85363e-05
-2.96071e-05
-5.7102e-05
-6.80747e-05
-3.65941e-05
-9.30843e-05
-3.68399e-06
-6.84666e-05
1.12663e-05
-6.44991e-06
5.08524e-05
-1.24843e-05
-3.14241e-05
-2.80623e-05
-3.88946e-05
-3.31275e-05
-1.19849e-05
-1.63222e-05
-1.31541e-05
-3.27303e-06
3.99239e-07
-5.69093e-06
4.66166e-05
-1.05923e-05
8.32816e-05
-2.68803e-05
7.55462e-05
-6.43818e-05
5.68016e-05
-0.000101011
6.68793e-05
-0.000103005
3.80177e-05
-7.9099e-05
4.5175e-07
-6.46066e-05
-1.08159e-05
-6.30942e-05
-3.11194e-05
-6.24157e-05
-6.87532e-05
-4.66345e-05
-0.000108866
-6.18205e-06
-0.000108919
5.08428e-06
-7.34485e-06
5.81973e-05
-1.4645e-05
-2.41239e-05
-2.26956e-05
-3.0844e-05
-1.27597e-05
-2.19207e-05
4.58924e-06
-3.0503e-05
4.75901e-06
2.29466e-07
-8.49417e-06
5.98698e-05
-3.18571e-05
0.000106645
-6.65273e-05
0.000110216
-0.000104221
9.44958e-05
-0.000113355
7.60126e-05
-9.31174e-05
1.77803e-05
-6.58344e-05
-2.68313e-05
-4.67222e-05
-2.99281e-05
-4.87971e-05
-2.90445e-05
-6.05677e-05
-5.69826e-05
-4.84078e-05
-0.000121025
-2.54308e-05
-0.000131896
-2.03465e-05
8.88447e-06
3.20122e-05
7.4915e-06
4.25306e-05
7.95944e-06
3.18512e-05
2.62369e-06
2.33306e-05
-1.33869e-05
2.3328e-05
-3.42394e-05
3.05423e-05
-5.20338e-05
3.26131e-05
-6.57242e-05
2.34752e-05
-7.35197e-05
5.01161e-06
-7.48007e-05
-2.10634e-05
-6.30314e-05
-5.06923e-05
-3.24987e-05
-7.28759e-05
-4.39166e-06
-6.0301e-05
1.26396e-05
-3.3766e-05
1.76925e-05
-9.15096e-06
1.43082e-05
6.75315e-06
8.20143e-06
1.49783e-05
3.94483e-07
1.79327e-05
-8.81824e-06
1.58521e-05
-1.56789e-05
6.80655e-06
-1.67903e-05
-5.98741e-06
-1.63505e-05
-1.6477e-05
-2.11331e-05
-1.55703e-05
1.65331e-05
1.54791e-05
1.22121e-05
4.68516e-05
-6.36626e-06
5.04296e-05
-2.41738e-05
4.11382e-05
-3.45823e-05
3.37365e-05
-4.24971e-05
3.84571e-05
-5.64172e-05
4.65332e-05
-8.51897e-05
5.22477e-05
-0.000131071
5.08924e-05
-0.000158429
6.29478e-06
-0.000130198
-7.89233e-05
-6.2228e-05
-0.000140846
2.06968e-06
-0.000124599
4.81666e-05
-7.98629e-05
5.15797e-05
-1.25641e-05
2.6572e-05
3.17607e-05
1.20014e-05
2.95488e-05
1.9476e-06
2.79865e-05
-8.46056e-06
2.62603e-05
-2.55808e-05
2.39268e-05
-4.22352e-05
1.0667e-05
-3.67373e-05
-2.1975e-05
-3.13116e-05
-2.65588e-05
-2.71667e-05
4.26458e-05
-6.01061e-05
7.9791e-05
-9.2721e-05
8.30444e-05
-0.000120389
6.88058e-05
-0.000140757
5.41053e-05
-0.000158114
5.58135e-05
-0.000185417
7.38369e-05
-0.000234447
0.000101277
-0.000307509
0.000123954
-0.000331259
3.00455e-05
-0.000308326
-0.000101857
-0.000283193
-0.000165979
-0.000244195
-0.000163596
-0.000200906
-0.000123152
-0.00016479
-4.86806e-05
-0.000124353
-8.67491e-06
-0.000121003
2.6198e-05
-0.000140799
4.77827e-05
-0.000165681
5.11427e-05
-0.000193418
5.16639e-05
-0.000168807
-1.39444e-05
-0.00011287
-7.79121e-05
-7.9422e-05
-6.47595e-05
-0.000121339
0.000163985
-0.000214066
0.000172519
-0.000256782
0.00012576
-0.000275461
8.74843e-05
-0.000290454
6.90982e-05
-0.000300056
6.5416e-05
-0.000324805
9.85855e-05
-0.000379594
0.000156067
-0.000394276
0.000138635
-0.000376983
1.27528e-05
-0.000356986
-0.000121854
-0.000348848
-0.000174117
-0.000341239
-0.000171204
-0.000329969
-0.000134423
-0.000317155
-6.14943e-05
-0.000297251
-2.85787e-05
-0.000286989
1.59357e-05
-0.000285178
4.59715e-05
-0.000282883
4.88485e-05
-0.00024826
1.70403e-05
-0.000173431
-8.87733e-05
-0.000121319
-0.000130024
-0.00011368
-8.70608e-05
-0.000147759
0.000311744
-0.000270288
0.000295048
-0.000329224
0.000184696
-0.000344488
0.000102748
-0.000355466
8.00758e-05
-0.000371824
8.17746e-05
-0.000397748
0.000124509
-0.000390027
0.000148346
-0.000345225
9.38331e-05
-0.000323245
-9.22771e-06
-0.000328838
-0.000116261
-0.0003454
-0.000157555
-0.000350403
-0.000166201
-0.000338331
-0.000146494
-0.000303214
-9.66114e-05
-0.000285383
-4.64102e-05
-0.00025592
-1.35272e-05
-0.000221124
1.1176e-05
-0.000172572
2.9611e-07
-0.000102255
-5.32767e-05
-7.45726e-05
-0.000116456
-9.44463e-05
-0.000110151
-0.000112401
-9.57251e-05
-0.00014745
0.000459194
-0.000226074
0.000373672
-0.000290877
0.000249498
-0.000333607
0.000145478
-0.000351993
9.8462e-05
-0.000357062
8.68431e-05
-0.000339707
0.000107155
-0.000299647
0.000108286
-0.000262565
5.67512e-05
-0.00025879
-1.3002e-05
-0.000287019
-8.80322e-05
-0.000318263
-0.000126311
-0.000327515
-0.000156949
-0.000317567
-0.000156443
-0.000276128
-0.00013805
-0.000217373
-0.000105165
-0.000153445
-7.74552e-05
-9.23394e-05
-4.993e-05
-4.25949e-05
-4.94484e-05
-2.23466e-05
-7.35249e-05
-4.84469e-05
-9.03556e-05
-7.05942e-05
-8.80033e-05
-8.45383e-05
-9.8457e-05
-0.000132664
0.000591858
-0.000163183
0.000404191
-0.000205611
0.000291926
-0.000226892
0.000166759
-0.000244936
0.000116506
-0.000253792
9.56993e-05
-0.000238075
9.14376e-05
-0.000207202
7.74133e-05
-0.000189557
3.91063e-05
-0.000192282
-1.02761e-05
-0.000222624
-5.76907e-05
-0.000258878
-9.00571e-05
-0.000292696
-0.00012313
-0.000295526
-0.000153613
-0.000277801
-0.000155775
-0.000240884
-0.000142082
-0.000197066
-0.000121274
-0.000141381
-0.000105615
-0.000100478
-9.03515e-05
-8.36212e-05
-9.03815e-05
-8.61194e-05
-8.78573e-05
-8.13941e-05
-9.27286e-05
-7.01849e-05
-9.57477e-05
-7.76822e-05
0.00066954
-8.63711e-05
0.00041288
-0.000110971
0.000316525
-0.000116966
0.000172755
-0.000125807
0.000125347
-0.000135157
0.00010505
-0.000132341
8.86215e-05
-0.000122029
6.71022e-05
-0.000118167
3.52438e-05
-0.000129021
5.7775e-07
-0.0001556
-3.11118e-05
-0.000190133
-5.5524e-05
-0.000226662
-8.66005e-05
-0.000261386
-0.00011889
-0.000263126
-0.000154035
-0.000249352
-0.000155855
-0.000222754
-0.000147872
-0.000196434
-0.000131935
-0.000169161
-0.000117624
-0.000148974
-0.000110568
-0.000130416
-0.000106415
-0.000119036
-0.000104109
-8.14117e-05
-0.000107809
-6.05603e-05
0.0007301
-6.43304e-05
0.000416651
-5.65688e-05
0.000308763
-6.78389e-05
0.000184026
-7.16568e-05
0.000129164
-6.80017e-05
0.000101395
-5.82164e-05
7.88363e-05
-4.91999e-05
5.80858e-05
-4.92924e-05
3.53362e-05
-6.23948e-05
1.36801e-05
-8.88191e-05
-4.68742e-06
-0.000123764
-2.05792e-05
-0.000169098
-4.12663e-05
-0.000207787
-8.02003e-05
-0.000241675
-0.000120147
-0.000250589
-0.000146942
-0.000235322
-0.000163139
-0.00021652
-0.000150737
-0.000191352
-0.000142793
-0.000172384
-0.000129537
-0.000156145
-0.000122654
-0.000143526
-0.000116728
-9.41054e-05
-0.000130832
-4.6463e-05
0.000776563
-0.000101237
0.000471424
-7.21213e-05
0.000279648
-7.93836e-05
0.000191288
-8.1316e-05
0.000131097
-6.88702e-05
8.89493e-05
-4.85674e-05
5.85337e-05
-2.99915e-05
3.95101e-05
-2.06892e-05
2.60338e-05
-2.31783e-05
1.61693e-05
-3.61955e-05
8.32991e-06
-5.98116e-05
3.03711e-06
-9.7799e-05
-3.27868e-06
-0.000151399
-2.66002e-05
-0.000201665
-6.98809e-05
-0.000232006
-0.0001166
-0.000247414
-0.000147732
-0.000245876
-0.000152274
-0.000222464
-0.000166205
-0.000204803
-0.000147198
-0.000186656
-0.000140801
-0.000168362
-0.000135022
-0.000111765
-0.000150703
-7.65254e-06
0.000784216
-0.000113962
0.000577733
-0.000111221
0.000276908
-0.000114328
0.000194395
-0.000117176
0.000133945
-0.000103579
7.53526e-05
-7.73308e-05
3.22852e-05
-4.92106e-05
1.13902e-05
-2.77833e-05
4.60647e-06
-1.63463e-05
4.7323e-06
-1.52793e-05
7.2632e-06
-2.25348e-05
1.02928e-05
-3.96489e-05
1.38354e-05
-7.75129e-05
1.1264e-05
-0.000131631
-1.57622e-05
-0.000183347
-6.48841e-05
-0.000227435
-0.000103644
-0.00024968
-0.000130029
-0.000267343
-0.000148542
-0.000254761
-0.000159781
-0.000227592
-0.00016797
-0.000201863
-0.00016075
-0.00014661
-0.000167018
5.33934e-05
0.000730823
-5.62102e-05
0.000687337
-0.000126222
0.00034692
-0.000137738
0.000205912
-0.000141854
0.00013806
-0.00013092
6.44194e-05
-0.000102733
4.09794e-06
-6.89439e-05
-2.2399e-05
-3.97989e-05
-2.45385e-05
-2.04039e-05
-1.46625e-05
-9.61683e-06
-3.5237e-06
-6.36218e-06
7.03819e-06
-9.0273e-06
1.65006e-05
-2.31931e-05
2.54298e-05
-6.14805e-05
2.25253e-05
-0.000115484
-1.08808e-05
-0.000162409
-5.67184e-05
-0.000201573
-9.08647e-05
-0.000235712
-0.000114403
-0.00025898
-0.000136512
-0.000262132
-0.000164818
-0.000234113
-0.000188769
-0.000178313
-0.00020241
0.000116024
0.000614799
5.83641e-05
0.000744996
-7.12856e-05
0.00047657
-0.000124249
0.000258876
-0.000133494
0.000147306
-0.000125239
5.61637e-05
-0.00010279
-1.8351e-05
-6.82275e-05
-5.69615e-05
-3.58282e-05
-5.69377e-05
-1.42753e-05
-3.62153e-05
-1.83058e-06
-1.59684e-05
4.86678e-06
3.40719e-07
7.49347e-06
1.38739e-05
6.09718e-06
2.68261e-05
-1.01016e-05
3.87242e-05
-5.16619e-05
3.06796e-05
-0.000102854
-5.52571e-06
-0.000149855
-4.38646e-05
-0.00019526
-6.89979e-05
-0.000238448
-9.33234e-05
-0.000270555
-0.000132711
-0.000280868
-0.000178456
-0.000201565
-0.000257616
0.000164755
0.000450045
0.00018044
0.000729312
6.28887e-05
0.00059412
-3.52529e-05
0.000357017
-7.23098e-05
0.000184362
-7.42003e-05
5.80542e-05
-6.07034e-05
-3.18478e-05
-3.77058e-05
-7.9959e-05
-1.35627e-05
-8.10805e-05
5.32215e-06
-5.51001e-05
1.50006e-05
-2.5647e-05
1.94609e-05
-4.11966e-06
2.21882e-05
1.11466e-05
2.38944e-05
2.51201e-05
2.18428e-05
4.0776e-05
1.05224e-06
5.14703e-05
-4.14888e-05
3.70153e-05
-8.83003e-05
2.94681e-06
-0.000134574
-2.27236e-05
-0.000185485
-4.24125e-05
-0.000234747
-8.34487e-05
-0.000273495
-0.000139708
-0.000186009
-0.000289052
0.000175813
0.000274232
0.000267185
0.00063794
0.000225966
0.00063534
0.00012833
0.000454653
5.9354e-05
0.000253338
2.77489e-05
8.96596e-05
1.88399e-05
-2.29386e-05
2.21689e-05
-8.32879e-05
2.9708e-05
-8.86197e-05
3.58701e-05
-6.12623e-05
3.85067e-05
-2.82837e-05
3.86877e-05
-4.30083e-06
3.83818e-05
1.14527e-05
3.88222e-05
2.46798e-05
4.04533e-05
3.91448e-05
3.6266e-05
5.56575e-05
1.15633e-05
6.17181e-05
-2.79829e-05
4.24931e-05
-6.46677e-05
1.39613e-05
-0.000102459
-4.62098e-06
-0.000152515
-3.33925e-05
-0.000197309
-9.49139e-05
-0.000148474
-0.000234844
0.000143478
0.000130754
0.000283906
0.000497512
0.000322561
0.000596685
0.000281066
0.000496148
0.000216051
0.000318353
0.000161747
0.000143964
0.00012441
1.43993e-05
9.89952e-05
-5.78734e-05
8.24854e-05
-7.21101e-05
7.17949e-05
-5.05719e-05
6.47654e-05
-2.12543e-05
5.95745e-05
8.90242e-07
5.57642e-05
1.5263e-05
5.3826e-05
2.6618e-05
5.44536e-05
3.85172e-05
5.6744e-05
5.33669e-05
5.02325e-05
6.82296e-05
2.40921e-05
6.86335e-05
-5.64963e-06
4.37032e-05
-2.07435e-05
1.0473e-05
-3.80248e-05
-1.61111e-05
-7.42529e-05
-5.86857e-05
-0.000109677
-0.00011305
8.40611e-05
4.66925e-05
0.000231161
0.000350412
0.000323549
0.000504297
0.000341437
0.00047826
0.000310852
0.000348938
0.000261659
0.000193156
0.000211742
6.43159e-05
0.000165816
-1.19472e-05
0.000129563
-3.58566e-05
0.000104286
-2.52958e-05
8.84209e-05
-5.38887e-06
7.85201e-05
1.0791e-05
7.2062e-05
2.1721e-05
6.8296e-05
3.03838e-05
6.73841e-05
3.9429e-05
7.03722e-05
5.03787e-05
7.44992e-05
6.41029e-05
6.85605e-05
7.45723e-05
4.56005e-05
6.66633e-05
2.43055e-05
3.1768e-05
1.61484e-05
-7.95397e-06
6.39841e-06
-4.89357e-05
-8.2927e-05
-2.03518e-05
2.65616e-05
2.01309e-05
0.000142998
0.000233976
0.000250541
0.000396753
0.000308365
0.000420437
0.000316214
0.000341089
0.000290003
0.000219367
0.000246511
0.000107808
0.000198746
3.58184e-05
0.000156008
6.88106e-06
0.00012475
5.96196e-06
0.000104826
1.45356e-05
9.26473e-05
2.29698e-05
8.49972e-05
2.9371e-05
8.04872e-05
3.48936e-05
7.89366e-05
4.09794e-05
8.11332e-05
4.81819e-05
8.81239e-05
5.71122e-05
9.56014e-05
6.70949e-05
9.14461e-05
7.08187e-05
6.82201e-05
5.4994e-05
4.29507e-05
1.73156e-05
2.58127e-05
-3.17977e-05
-7.22349e-05
1.51208e-05
-1.21283e-05
3.22594e-05
5.73028e-05
0.000164545
0.000150684
0.000303372
0.000223911
0.00034721
0.000259455
0.000305545
0.000258909
0.000219913
0.000233176
0.00013354
0.000195724
7.32708e-05
0.000159111
4.3494e-05
0.000131069
3.40044e-05
0.000112469
3.31358e-05
0.000100736
3.47023e-05
9.33442e-05
3.67631e-05
8.90462e-05
3.91914e-05
8.76164e-05
4.2409e-05
8.93923e-05
4.64063e-05
9.55052e-05
5.09993e-05
0.00010647
5.613e-05
0.000116543
6.07457e-05
0.000114049
5.74888e-05
9.18171e-05
3.9547e-05
5.82947e-05
1.72468e-06
-4.53698e-05
3.14297e-05
-3.06642e-05
6.29237e-05
-1.56724e-06
0.000135448
6.7015e-05
0.00023479
0.000137017
0.000277207
0.000184884
0.000257679
0.00020271
0.000202086
0.000194769
0.000141481
0.000172436
9.56044e-05
0.000147605
6.83245e-05
0.000127284
5.43251e-05
0.000112896
4.75237e-05
0.000103288
4.43109e-05
9.71013e-05
4.29494e-05
9.35918e-05
4.2701e-05
9.26388e-05
4.33619e-05
9.44238e-05
4.46216e-05
9.94077e-05
4.60154e-05
0.000108755
4.6783e-05
0.000122809
4.66912e-05
0.000135951
4.4347e-05
0.000139785
3.57131e-05
0.000123473
1.80364e-05
-1.58308e-05
9.39343e-05
-2.99598e-05
9.28834e-05
-2.6176e-05
0.000131664
1.94804e-05
0.000189133
7.75021e-05
0.000219186
0.000124709
0.000210472
0.000149692
0.000177104
0.00015334
0.000137832
0.000144014
0.000104931
0.000130594
8.17439e-05
0.000118252
6.66675e-05
0.00010861
5.71649e-05
0.000101678
5.12429e-05
9.709e-05
4.75376e-05
9.45958e-05
4.51952e-05
9.42172e-05
4.37405e-05
9.61077e-05
4.27311e-05
0.000100461
4.16624e-05
0.000107595
3.96481e-05
0.000118703
3.55834e-05
0.000133845
2.92057e-05
0.000149577
1.99806e-05
0.000160182
7.43183e-06
-1.35e-05
0.000157851
-1.86478e-05
0.000111531
-2.25874e-05
0.000135604
5.74714e-06
0.000160799
4.86661e-05
0.000176267
8.69955e-05
0.000172143
0.000110763
0.000153336
0.000119706
0.00012889
0.000118892
0.000105745
0.000113691
8.69451e-05
0.000107477
7.28819e-05
0.000101842
6.28001e-05
9.74237e-05
5.56607e-05
9.44334e-05
5.0528e-05
9.2946e-05
4.66826e-05
9.30844e-05
4.36022e-05
9.49804e-05
4.08352e-05
9.87542e-05
3.78885e-05
0.000104295
3.41075e-05
0.000111563
2.8315e-05
0.000121131
1.96374e-05
0.000132938
8.17465e-06
0.000144897
-4.52724e-06
-2.02163e-05
0.000151613
-5.95799e-06
0.000117489
-7.9498e-06
0.000137596
9.85701e-06
0.000142992
3.88936e-05
0.00014723
6.63486e-05
0.000144688
8.5563e-05
0.000134122
9.57977e-05
0.000118655
9.93589e-05
0.000102184
9.89902e-05
8.73137e-05
9.67868e-05
7.50852e-05
9.41083e-05
6.54787e-05
9.17546e-05
5.80145e-05
9.01556e-05
5.21271e-05
8.95388e-05
4.72993e-05
9.00637e-05
4.30773e-05
9.18341e-05
3.9065e-05
9.48942e-05
3.48284e-05
9.9092e-05
2.99097e-05
0.000103852
2.35551e-05
0.00010863
1.48598e-05
0.000113534
3.27034e-06
0.000119031
-1.0024e-05
-2.34283e-05
0.000122243
2.05001e-06
0.000115439
4.22627e-06
0.00013542
1.72081e-05
0.00013001
3.6356e-05
0.000128082
5.51195e-05
0.000125925
6.97725e-05
0.000119469
7.93803e-05
0.000109047
8.46072e-05
9.69566e-05
8.66984e-05
8.52225e-05
8.69155e-05
7.48682e-05
8.62765e-05
6.61178e-05
8.54887e-05
5.88024e-05
8.4997e-05
5.26189e-05
8.50651e-05
4.72312e-05
8.58469e-05
4.22955e-05
8.7419e-05
3.74928e-05
8.97672e-05
3.24802e-05
9.27568e-05
2.69202e-05
9.59212e-05
2.03909e-05
9.84295e-05
1.23517e-05
9.95466e-05
2.15346e-06
9.91904e-05
-9.66765e-06
-2.12671e-05
9.70294e-05
4.86333e-06
0.000110576
1.10634e-05
0.00012922
2.17011e-05
0.000119373
3.493e-05
0.000114854
4.80647e-05
0.00011279
5.92608e-05
0.000108273
6.76584e-05
0.00010065
7.32151e-05
9.13999e-05
7.64378e-05
8.19999e-05
7.80553e-05
7.3251e-05
7.87588e-05
6.54144e-05
7.90866e-05
5.84747e-05
7.94141e-05
5.22914e-05
7.9982e-05
4.66632e-05
8.09236e-05
4.13538e-05
8.22938e-05
3.61227e-05
8.40568e-05
3.07172e-05
8.60849e-05
2.48922e-05
8.80789e-05
1.8397e-05
8.94299e-05
1.10009e-05
8.92466e-05
2.33697e-06
8.69642e-05
-7.38516e-06
-1.69862e-05
8.26834e-05
5.33499e-06
0.000105241
1.33931e-05
0.000121162
2.28369e-05
0.000109929
3.28273e-05
0.000104863
4.26422e-05
0.000102975
5.14977e-05
9.94175e-05
5.87367e-05
9.34107e-05
6.41076e-05
8.60292e-05
6.77832e-05
7.83244e-05
7.01693e-05
7.08651e-05
7.17088e-05
6.38748e-05
7.27814e-05
5.7402e-05
7.36741e-05
5.13986e-05
7.45827e-05
4.57545e-05
7.5618e-05
4.03184e-05
7.68198e-05
3.49209e-05
7.81527e-05
2.93844e-05
7.95042e-05
2.35408e-05
8.06654e-05
1.7236e-05
8.12692e-05
1.03972e-05
8.06949e-05
2.91142e-06
7.84822e-05
-5.17239e-06
-1.30943e-05
7.45905e-05
5.23345e-06
0.000100008
1.35728e-05
0.000112823
2.20394e-05
0.000101462
3.01477e-05
9.67551e-05
3.79922e-05
9.51307e-05
4.52951e-05
9.21147e-05
5.15884e-05
8.71174e-05
5.66066e-05
8.10111e-05
6.0385e-05
7.4546e-05
6.31453e-05
6.81048e-05
6.51633e-05
6.18568e-05
6.66954e-05
5.58698e-05
6.79489e-05
5.01451e-05
6.9073e-05
4.46304e-05
7.01564e-05
3.9235e-05
7.12295e-05
3.38479e-05
7.22632e-05
2.83508e-05
7.31678e-05
2.26363e-05
7.37898e-05
1.66141e-05
7.39179e-05
1.02691e-05
7.32294e-05
3.60007e-06
7.1439e-05
-3.38184e-06
-1.01545e-05
6.84993e-05
5.04597e-06
9.4962e-05
1.29484e-05
0.00010492
2.04655e-05
9.39455e-05
2.73211e-05
8.98997e-05
3.3898e-05
8.85541e-05
4.01218e-05
8.58911e-05
4.56559e-05
8.15833e-05
5.02779e-05
7.63892e-05
5.39737e-05
7.08503e-05
5.68639e-05
6.52147e-05
5.91173e-05
5.96034e-05
6.09022e-05
5.40849e-05
6.2363e-05
4.86843e-05
6.36089e-05
4.33845e-05
6.47076e-05
3.81364e-05
6.56828e-05
3.28728e-05
6.65127e-05
2.75209e-05
6.71317e-05
2.20173e-05
6.74313e-05
1.63145e-05
6.72837e-05
1.04167e-05
6.65313e-05
4.35256e-06
6.4989e-05
-1.83943e-06
-7.83452e-06
6.26692e-05
4.8005e-06
9.01615e-05
1.20338e-05
9.76874e-05
1.86651e-05
8.73143e-05
2.45928e-05
8.39722e-05
3.02715e-05
8.28757e-05
3.56915e-05
8.04711e-05
4.06017e-05
7.66732e-05
4.4829e-05
7.2162e-05
4.83466e-05
6.73328e-05
5.12194e-05
6.23419e-05
5.35494e-05
5.72734e-05
5.54447e-05
5.21896e-05
5.70034e-05
4.71256e-05
5.83027e-05
4.20852e-05
5.93923e-05
3.70469e-05
6.02905e-05
3.19746e-05
6.09831e-05
2.68283e-05
6.14253e-05
2.15751e-05
6.1545e-05
1.61949e-05
6.12604e-05
1.07013e-05
6.04846e-05
5.12836e-06
5.91025e-05
-4.5719e-07
-5.90586e-06
5.7174e-05
4.50145e-06
8.56601e-05
1.10174e-05
9.11717e-05
1.68573e-05
8.14744e-05
2.20516e-05
7.8778e-05
2.70406e-05
7.78868e-05
3.18245e-05
7.56873e-05
3.62076e-05
7.22901e-05
4.00591e-05
6.83106e-05
4.33524e-05
6.40395e-05
4.61221e-05
5.95722e-05
4.84284e-05
5.49672e-05
5.03393e-05
5.02787e-05
5.19199e-05
4.5545e-05
5.32237e-05
4.07816e-05
5.42858e-05
3.59848e-05
5.51204e-05
3.114e-05
5.57195e-05
2.62292e-05
5.60548e-05
2.12398e-05
5.60804e-05
1.61693e-05
5.57445e-05
1.10373e-05
5.4996e-05
5.87692e-06
5.37801e-05
7.5889e-07
-4.26637e-06
5.21407e-05
4.17791e-06
8.14824e-05
9.99205e-06
8.53578e-05
1.51349e-05
7.63316e-05
1.97226e-05
7.41905e-05
2.41484e-05
7.34611e-05
2.84035e-05
7.14321e-05
3.23299e-05
6.83637e-05
3.58292e-05
6.48114e-05
3.88792e-05
6.09896e-05
4.14971e-05
5.69542e-05
4.37175e-05
5.27468e-05
4.5582e-05
4.84142e-05
4.71329e-05
4.39942e-05
4.8406e-05
3.95085e-05
4.94262e-05
3.49646e-05
5.02043e-05
3.03619e-05
5.07366e-05
2.56969e-05
5.10065e-05
2.097e-05
5.09868e-05
1.6189e-05
5.06476e-05
1.13766e-05
4.99617e-05
6.56288e-06
4.89148e-05
1.80593e-06
-2.87663e-06
4.75251e-05
3.85838e-06
7.76242e-05
9.00975e-06
8.02065e-05
1.3539e-05
7.18024e-05
1.76069e-05
7.01227e-05
2.15514e-05
6.95167e-05
2.53504e-05
6.76332e-05
2.88724e-05
6.48418e-05
3.20429e-05
6.1641e-05
3.48442e-05
5.81883e-05
3.7284e-05
5.45145e-05
3.93806e-05
5.06501e-05
4.11588e-05
4.66361e-05
4.26448e-05
4.25081e-05
4.38626e-05
3.82907e-05
4.48294e-05
3.39979e-05
4.55534e-05
2.96378e-05
4.60341e-05
2.52162e-05
4.62629e-05
2.07412e-05
4.62259e-05
1.62261e-05
4.59084e-05
1.16943e-05
4.52982e-05
7.17316e-06
4.43925e-05
2.71177e-06
-1.72049e-06
4.32364e-05
3.56231e-06
7.40621e-05
8.09544e-06
7.56734e-05
1.20817e-05
6.78164e-05
1.56935e-05
6.65111e-05
1.92146e-05
6.59956e-05
2.261e-05
6.42378e-05
2.57679e-05
6.16841e-05
2.86314e-05
5.87776e-05
3.11866e-05
5.56331e-05
3.34354e-05
5.22656e-05
3.53865e-05
4.8699e-05
3.70533e-05
4.49692e-05
3.8452e-05
4.11094e-05
3.9598e-05
3.71447e-05
4.0503e-05
3.30929e-05
4.11739e-05
2.89669e-05
4.16121e-05
2.47781e-05
4.1815e-05
2.05385e-05
4.17774e-05
1.62638e-05
4.14953e-05
1.19764e-05
4.09687e-05
7.69994e-06
4.02087e-05
3.47189e-06
-7.25191e-07
3.92135e-05
3.30194e-06
7.07602e-05
7.25875e-06
7.17166e-05
1.07578e-05
6.43177e-05
1.39631e-05
6.33058e-05
1.71064e-05
6.28523e-05
2.01393e-05
6.1205e-05
2.29659e-05
5.88577e-05
2.55428e-05
5.62007e-05
2.7859e-05
5.33168e-05
2.99133e-05
5.02113e-05
3.17083e-05
4.69039e-05
3.32505e-05
4.34269e-05
3.45492e-05
3.98107e-05
3.5614e-05
3.60798e-05
3.64534e-05
3.22535e-05
3.70731e-05
2.83474e-05
3.7476e-05
2.43753e-05
3.76633e-05
2.03514e-05
3.76359e-05
1.62914e-05
3.73969e-05
1.22156e-05
3.6953e-05
8.14402e-06
3.63195e-05
4.10561e-06
8.44781e-08
3.55099e-05
3.08242e-06
6.76777e-05
6.50349e-06
6.82956e-05
9.55543e-06
6.12659e-05
1.2394e-05
6.04673e-05
1.51966e-05
6.00498e-05
1.79004e-05
5.85013e-05
2.04232e-05
5.63349e-05
2.27327e-05
5.38913e-05
2.48201e-05
5.12294e-05
2.66825e-05
4.83488e-05
2.8319e-05
4.52674e-05
2.97317e-05
4.20142e-05
3.09254e-05
3.8617e-05
3.19062e-05
3.50991e-05
3.26797e-05
3.148e-05
3.3251e-05
2.77762e-05
3.36238e-05
2.40027e-05
3.38017e-05
2.01736e-05
3.37893e-05
1.6304e-05
3.35937e-05
1.24114e-05
3.32263e-05
8.51162e-06
3.2705e-05
4.62701e-06
7.3872e-07
3.2051e-05
2.89913e-06
6.47786e-05
5.83099e-06
6.53639e-05
8.46401e-06
5.8633e-05
1.0965e-05
5.79664e-05
1.34552e-05
5.75597e-05
1.58561e-05
5.61005e-05
1.80979e-05
5.40932e-05
2.01567e-05
5.18326e-05
2.2026e-05
4.93601e-05
2.37021e-05
4.66727e-05
2.51819e-05
4.37876e-05
2.64647e-05
4.07315e-05
2.75521e-05
3.75296e-05
2.84475e-05
3.42037e-05
2.91545e-05
3.07731e-05
2.96767e-05
2.72542e-05
3.00178e-05
2.36617e-05
3.0182e-05
2.00097e-05
3.01748e-05
1.63114e-05
3.00049e-05
1.25815e-05
2.96849e-05
8.83181e-06
2.92324e-05
5.07962e-06
1.3016e-06
2.86697e-05
2.73786e-06
6.20407e-05
5.23829e-06
6.28636e-05
7.47433e-06
5.6397e-05
9.65533e-06
5.57855e-05
1.1851e-05
5.53641e-05
1.39674e-05
5.39843e-05
1.59446e-05
5.21162e-05
1.7765e-05
5.00122e-05
1.94245e-05
4.77008e-05
2.09187e-05
4.51786e-05
2.22427e-05
4.24637e-05
2.33938e-05
3.95806e-05
2.43711e-05
3.65523e-05
2.51754e-05
3.33996e-05
2.58077e-05
3.01408e-05
2.62699e-05
2.67921e-05
2.6564e-05
2.33679e-05
2.66927e-05
1.98812e-05
2.66603e-05
1.6344e-05
2.64741e-05
1.27679e-05
2.61448e-05
9.16132e-06
2.56864e-05
5.53806e-06
1.87149e-06
2.51166e-05
2.57883e-06
5.94619e-05
4.71137e-06
6.07311e-05
6.57147e-06
5.45369e-05
8.44042e-06
5.39166e-05
1.03494e-05
5.34553e-05
1.21909e-05
5.2143e-05