/*--------------------------------*- C++ -*----------------------------------*\
| =========                 |                                                 |
| \\      /  F ield         | OpenFOAM: The Open Source CFD Toolbox           |
|  \\    /   O peration     | Version:  5.x                                   |
|   \\  /    A nd           | Web:      www.OpenFOAM.org                      |
|    \\/     M anipulation  |                                                 |
\*---------------------------------------------------------------------------*/
FoamFile
{
    version     2.0;
    format      ascii;
    class       volScalarField;
    location    "0.2";
    object      alpha.water;
}
// * * * * * * * * * * * * * * * * * * * * * * * * * * * * * * * * * * * * * //

dimensions      [0 0 0 0 0 0 0];

internalField   nonuniform List<scalar> 
8000
(
1
1
1
1
1
1
1
1
1
1
1
1
1
1
1
1
1
1
1
1
1
1
1
1
1
1
1
1
1
1
1
1
1
1
1
1
1
1
1
1
1
1
1
1
1
1
1
1
1
1
1
1
1
1
1
1
1
1
1
1
1
1
1
1
1
1
1
1
1
1
1
1
1
1
1
1
1
1
1
1
1
1
1
1
1
1
1
1
1
1
1
1
1
1
1
1
1
1
1
1
1
1
1
1
1
1
1
1
1
1
1
1
1
1
1
1
1
1
1
1
1
1
1
1
1
1
1
1
1
1
1
1
1
1
1
1
1
1
1
1
1
1
1
1
1
1
1
1
1
1
1
1
1
1
1
1
1
1
1
1
1
1
1
1
1
1
1
1
1
1
1
1
1
1
1
1
1
1
1
1
1
1
1
1
1
1
1
1
1
1
1
1
1
1
1
1
1
1
1
1
1
1
1
1
1
1
1
1
1
1
1
1
1
1
1
1
1
1
1
1
1
1
1
1
1
1
1
1
1
1
1
1
1
1
1
1
1
1
1
1
1
1
1
1
1
1
1
1
1
1
1
1
1
1
1
1
1
1
1
1
1
1
1
1
1
1
1
1
1
1
1
1
1
1
1
1
1
1
1
1
1
1
1
1
1
1
1
1
1
1
1
1
1
1
1
1
1
1
1
1
1
1
1
1
1
1
1
1
1
1
1
1
1
1
1
1
1
1
1
1
1
1
1
1
1
1
1
1
1
1
1
1
1
1
1
1
1
1
1
1
1
1
1
1
1
1
1
1
1
1
1
1
1
1
1
1
1
1
1
1
1
1
1
1
1
1
1
1
1
1
1
1
1
1
1
1
1
1
1
1
1
1
1
1
1
1
1
1
1
1
1
1
1
1
1
1
1
1
1
1
1
1
1
1
1
1
1
1
1
1
1
1
1
1
1
1
1
1
1
1
1
1
1
1
1
1
1
1
1
1
1
1
1
1
1
1
1
1
1
1
1
1
1
1
1
1
1
1
1
1
1
1
1
1
1
1
1
1
1
1
1
1
1
1
1
1
1
1
1
1
1
1
1
1
1
1
1
1
1
1
1
1
1
1
1
1
1
1
1
1
1
1
1
1
1
1
1
1
1
1
1
1
1
1
1
1
1
1
1
1
1
1
1
1
1
1
1
1
1
1
1
1
1
1
1
1
1
1
1
1
1
1
1
1
1
1
1
1
1
1
1
1
1
1
1
1
1
1
1
1
1
1
1
1
1
1
1
1
1
1
1
1
1
1
1
1
1
1
1
1
1
1
1
1
1
1
1
1
1
1
1
1
1
1
1
1
1
1
1
1
1
1
1
1
1
1
1
1
1
1
1
1
1
1
1
1
1
1
1
1
1
1
1
1
1
1
1
1
1
1
1
1
1
1
1
1
1
1
1
1
1
1
1
1
1
1
1
1
1
1
1
1
1
1
1
1
1
1
1
1
1
1
1
1
1
1
1
1
1
1
1
1
1
1
1
1
1
1
1
1
1
1
1
1
1
1
1
1
1
1
1
1
1
1
1
1
1
1
1
1
1
1
1
1
1
1
1
1
1
1
1
1
1
1
1
1
1
1
1
1
1
1
1
1
1
1
1
1
1
1
1
1
1
1
1
1
1
1
1
1
1
1
1
1
1
1
1
1
1
1
1
1
1
1
1
1
1
1
1
1
1
1
1
1
1
1
1
1
1
1
1
1
1
1
1
1
1
1
1
1
1
1
1
1
1
1
1
1
1
1
1
1
1
1
1
1
1
1
1
1
1
1
1
1
1
1
1
1
1
1
1
1
1
1
1
1
1
1
1
1
1
1
1
1
1
1
1
1
1
1
1
1
1
1
1
1
1
1
1
1
1
1
1
1
1
1
1
1
1
1
1
1
1
1
1
1
1
1
1
1
1
1
1
1
1
1
1
1
1
1
1
1
1
1
1
1
1
1
1
1
1
1
1
1
1
1
1
1
1
1
1
1
1
1
1
1
1
1
1
1
1
1
1
1
1
1
1
1
1
1
1
1
1
1
1
1
1
1
1
1
1
1
1
1
1
1
1
1
1
1
1
1
1
1
1
1
1
1
1
1
1
1
1
1
1
1
1
1
1
1
1
1
1
1
1
1
1
1
1
1
1
1
1
1
1
1
1
1
1
1
1
1
1
1
1
1
1
1
1
1
1
1
1
1
1
1
1
1
1
1
1
1
1
1
1
1
1
1
1
1
1
1
1
1
1
1
1
1
1
1
1
1
1
1
1
1
1
1
1
1
1
1
1
1
1
1
1
1
1
1
1
1
1
1
1
1
1
1
1
1
1
1
1
1
1
1
1
1
1
1
1
1
1
1
1
1
1
1
1
1
1
1
1
1
1
1
1
1
1
1
1
1
1
1
1
1
1
1
1
1
1
1
1
1
1
1
1
1
1
1
1
1
1
1
1
1
1
1
1
1
1
1
1
1
1
1
1
1
1
1
1
1
1
1
1
1
1
1
1
1
1
1
1
1
1
1
1
1
1
1
1
1
1
1
1
1
1
1
1
1
1
1
1
1
1
1
1
1
1
1
1
1
1
1
1
1
1
1
1
1
1
1
1
1
1
1
1
1
1
1
1
1
1
1
1
1
1
1
1
1
1
1
1
1
1
1
1
1
1
1
1
1
1
1
1
1
1
1
1
1
1
1
1
1
1
1
1
1
1
1
1
1
1
1
1
1
1
1
1
1
1
1
1
1
1
1
1
1
1
1
1
1
1
1
1
1
1
1
1
1
1
1
1
1
1
1
1
1
1
1
1
1
1
1
1
1
1
1
1
1
1
1
1
1
1
1
1
1
1
1
1
1
1
1
1
1
1
1
1
1
1
1
1
1
1
1
1
1
1
1
1
1
1
1
1
1
1
1
1
1
1
1
1
1
1
1
1
1
1
1
1
1
1
1
1
1
1
1
1
1
1
1
1
1
1
1
1
1
1
1
1
1
1
1
1
1
1
1
1
1
1
1
1
1
1
1
1
1
1
1
1
1
1
1
1
1
1
1
1
1
1
1
1
1
1
1
1
1
1
1
1
1
1
1
1
1
1
1
1
1
1
1
1
1
1
1
1
1
1
1
1
1
1
1
1
1
1
1
1
1
1
1
1
1
1
1
1
1
1
1
1
1
1
1
1
1
1
1
1
1
1
1
1
1
1
1
1
1
1
1
1
1
1
1
1
1
1
1
1
1
1
1
1
1
1
1
1
1
1
1
1
1
1
1
1
1
1
1
1
1
1
1
1
1
1
1
1
1
1
1
1
1
1
1
1
1
1
1
1
1
1
1
1
1
1
1
1
1
1
1
1
1
1
1
1
1
1
1
1
1
1
1
1
1
1
1
1
1
1
1
1
1
1
1
1
1
1
1
1
1
1
1
1
1
1
1
1
1
1
1
1
1
1
1
1
1
1
1
1
1
1
1
1
1
1
1
1
1
1
1
1
1
1
1
1
1
1
1
1
1
1
1
1
1
1
1
1
1
1
1
1
1
1
1
1
1
1
1
1
1
1
1
1
1
1
1
1
1
1
1
1
1
1
1
1
1
1
1
1
1
1
1
1
1
1
1
1
1
1
1
1
1
1
1
1
1
1
1
1
1
1
1
1
1
1
1
1
1
1
1
1
1
1
1
1
1
1
1
1
1
1
1
1
1
1
1
1
1
1
1
1
1
1
1
1
1
1
1
1
1
1
1
1
1
1
1
1
1
1
1
1
1
1
1
1
1
1
1
1
1
1
1
1
1
1
1
1
1
1
1
1
1
1
1
1
1
1
1
1
1
1
1
1
1
1
1
1
1
1
1
1
1
1
1
1
1
1
1
1
1
1
1
1
1
1
1
1
1
1
1
1
1
1
1
1
1
1
1
1
1
1
1
1
1
1
1
1
1
1
1
1
1
1
1
1
1
1
1
1
1
1
1
1
1
1
1
1
1
1
1
1
1
1
1
1
1
1
1
1
1
1
1
1
1
1
1
1
1
1
1
1
1
1
1
1
1
1
1
1
1
1
1
1
1
1
1
1
1
1
1
1
1
1
1
1
1
1
1
1
1
1
1
1
1
1
1
1
1
1
1
1
1
1
1
1
1
1
1
1
1
1
1
1
1
1
1
1
1
1
1
1
1
1
1
1
1
1
1
1
1
1
1
1
1
1
1
1
1
1
1
1
1
1
1
1
1
1
1
1
1
1
1
1
1
1
1
1
1
1
1
1
1
1
1
1
1
1
1
1
1
1
1
1
1
1
1
1
1
1
1
1
1
1
1
1
1
1
1
1
1
1
1
1
1
1
1
1
1
1
1
1
1
1
1
1
1
1
1
1
1
1
1
1
1
1
1
1
1
1
1
1
1
1
1
1
1
1
1
1
1
1
1
1
1
1
1
1
1
1
1
1
1
1
1
1
1
1
1
1
1
1
1
1
1
1
1
1
1
1
1
1
1
1
1
1
1
1
1
1
1
1
1
1
1
1
1
1
1
1
1
1
1
1
1
1
1
1
1
1
1
1
1
1
1
1
1
1
1
1
1
1
1
1
1
1
1
1
1
1
1
1
1
1
1
1
1
1
1
1
1
1
1
1
1
1
1
1
1
1
1
1
1
1
1
1
1
1
1
1
1
1
1
1
1
1
1
1
1
1
1
1
1
1
1
1
1
1
1
1
1
1
1
1
1
1
1
1
1
1
1
1
1
1
1
1
1
1
1
1
1
1
1
1
1
1
1
1
1
1
1
1
1
1
1
1
1
1
1
1
1
1
1
1
1
1
1
1
1
1
1
1
1
1
1
1
1
1
1
1
1
1
1
1
1
1
1
1
1
1
1
1
1
1
1
1
1
1
1
1
1
1
1
1
1
1
1
1
1
1
1
1
1
1
1
1
1
1
1
1
1
1
1
1
1
1
1
1
1
1
1
1
1
1
1
1
1
1
1
1
1
1
1
1
1
1
1
1
1
1
1
1
1
1
1
1
1
1
1
1
1
1
1
1
1
1
1
1
1
1
1
1
1
1
1
1
1
1
1
1
1
1
1
1
1
1
1
1
1
1
1
1
1
1
1
1
1
1
1
1
1
1
1
1
1
1
1
1
1
1
1
1
1
1
1
1
1
1
1
1
1
1
1
1
1
1
1
1
1
1
1
1
1
1
1
1
1
1
1
1
1
1
1
1
1
1
1
1
1
1
1
1
1
1
1
1
1
1
1
1
1
1
1
1
1
1
1
1
1
1
1
1
1
1
1
1
1
1
1
1
1
1
1
1
1
1
1
1
1
1
1
1
1
1
1
1
1
1
1
1
1
1
1
1
1
1
1
1
1
1
1
1
1
1
1
1
1
1
1
1
1
1
1
1
1
1
1
1
1
1
1
1
1
1
1
1
1
1
1
1
1
1
1
1
1
1
1
1
1
1
1
1
1
1
1
1
1
1
1
1
1
1
1
1
1
1
1
1
1
1
1
1
1
1
1
1
1
1
1
1
1
1
1
1
1
1
1
1
1
1
1
1
1
1
1
1
1
1
1
1
1
1
1
1
1
1
1
1
1
1
1
1
1
1
1
1
1
1
1
1
1
1
1
1
1
1
1
1
1
1
1
1
1
1
1
1
1
1
1
1
1
1
1
1
1
1
1
1
1
1
1
1
1
1
1
1
1
1
1
1
1
1
1
1
1
1
1
1
1
1
1
1
1
1
1
1
1
1
1
1
1
1
1
1
1
1
1
1
1
1
1
1
1
1
1
1
1
1
1
1
1
1
1
1
1
1
1
1
1
1
1
1
1
1
1
1
1
1
1
1
1
1
1
1
1
1
1
1
1
1
1
1
1
1
1
1
1
1
1
1
1
1
1
1
1
1
1
1
1
1
1
1
1
1
1
1
1
1
1
1
1
1
1
1
1
1
1
1
1
1
1
1
1
1
1
1
1
1
1
1
1
1
1
1
1
1
1
1
1
1
1
1
1
1
1
1
1
1
1
1
1
1
1
1
1
1
1
1
1
1
1
1
1
1
1
1
1
1
1
1
1
1
1
1
1
1
1
1
1
1
1
1
1
1
1
1
1
1
1
1
1
1
1
1
1
1
1
1
1
1
1
1
1
1
1
1
1
1
1
1
1
1
1
1
1
1
1
1
1
1
1
1
1
1
1
1
1
1
1
1
1
1
1
1
1
1
1
1
1
1
1
1
1
1
1
1
1
1
1
1
1
1
1
1
1
1
1
1
1
1
1
1
1
1
1
1
1
1
1
1
1
1
1
1
1
1
1
1
1
1
1
1
1
1
1
1
1
1
1
1
1
1
1
1
1
1
1
1
1
1
1
1
1
1
1
1
1
1
1
1
1
1
1
1
1
1
1
1
1
1
1
1
1
1
1
1
1
1
1
1
1
1
1
1
1
1
1
1
1
1
1
1
1
1
1
1
1
1
1
1
1
1
1
1
1
1
1
1
1
1
1
1
1
1
1
1
1
1
1
1
1
1
1
1
1
1
1
1
1
1
1
1
1
1
1
1
1
1
1
1
1
1
1
1
1
1
1
1
1
1
1
1
1
1
1
1
1
1
1
1
1
1
1
1
1
1
1
1
1
1
1
1
1
1
1
1
1
1
1
1
1
1
1
1
1
1
1
1
1
1
1
1
1
1
1
1
1
1
1
1
1
1
1
1
1
1
1
1
1
1
1
1
1
1
1
1
1
1
1
1
1
1
1
1
1
1
1
1
1
1
1
1
1
1
1
1
1
1
1
1
1
1
1
1
1
1
1
1
1
1
1
1
1
1
1
1
1
1
1
1
1
1
1
1
1
1
1
1
1
1
1
1
1
1
1
1
1
1
1
1
1
1
1
1
1
1
1
1
1
1
1
1
1
1
1
1
1
1
1
1
1
1
1
1
1
1
1
1
1
1
1
1
1
1
1
1
1
1
1
1
1
1
1
1
1
1
1
1
1
1
1
1
1
1
1
1
1
1
1
1
1
1
1
1
1
1
0.999997
1
1
1
1
1
1
1
1
0.999998
1
1
1
1
1
0.999999
0.999998
0.999987
0.999983
0.999983
0.999994
1
1
1
1
1
1
1
1
0.999995
0.999985
0.999985
0.999987
0.999998
0.999999
0.999999
0.999963
0.999947
0.999947
0.999971
0.999997
1
1
1
1
1
1
1
1
0.999997
0.999972
0.999948
0.999948
0.999964
0.999999
0.999999
0.999947
0.999948
0.999978
0.999996
1
1
1
1
1
1
1
1
1
1
0.999994
0.999977
0.999948
0.999948
0.999999
0.999998
0.999952
0.99999
1
1
1
1
1
1
1
1
1
1
1
1
1
1
0.999987
0.99995
0.999998
0.999967
0.999999
1
1
1
1
0.999982
1
1
1
1
1
1
0.999993
1
1
1
1
0.999997
0.99997
0.999953
1
1
1
0.999998
0.999866
0.999538
0.999857
0.999995
1
1
0.999996
0.999924
0.99959
0.999912
0.999996
1
1
1
0.999949
1
1
1
1
0.999976
0.999425
0.999404
0.999409
0.999913
1
1
0.999955
0.999477
0.999405
0.999474
0.999957
1
1
1
0.999999
1
1
1
1
0.999959
0.999441
0.999404
0.999404
0.999834
1
1
0.999912
0.999405
0.999405
0.999405
0.999929
1
1
1
1
0.999999
1
1
1
0.999992
0.999938
0.999478
0.999587
0.99995
1
1
0.999959
0.999532
0.999415
0.999796
0.99998
1
1
1
0.999999
1
1
0.999998
0.999988
0.999997
1
1
1
1
1
1
1
1
0.999938
1
0.999997
0.999991
1
1
1
1
1
0.999988
0.99998
0.999981
0.999998
1
1
1
1
1
1
1
1
0.999999
0.999986
0.999979
0.999989
1
1
1
1
0.99999
0.999981
0.999983
0.999996
1
1
1
1
1
1
1
1
0.999997
0.999981
0.999979
0.999983
1
1
1
0.999999
1
1
1
1
1
1
1
1
1
1
1
1
1
0.999999
0.999998
0.999999
0.999997
1
1
0.999994
0.999998
1
1
1
1
1
1
1
1
1
1
1
1
1
1
1
0.999997
1
1
0.999987
0.999994
1
1
1
1
1
1
1
1
1
1
1
1
1
1
1
0.999999
1
1
0.999987
0.999998
1
1
1
1
1
1
1
1
1
1
1
1
1
1
1
1
1
0.999976
0.999996
1
1
1
1
1
1
1
1
1
1
1
1
1
1
1
1
0.999999
0.999973
0.999921
1
1
1
1
1
1
1
1
1
1
1
1
1
1
1
1
1
1
0.999923
0.999985
1
1
1
0.993758
0.967048
0.90609
0.832415
0.792706
0.777338
0.823595
0.887973
1
1
1
1
1
1
1
0.99999
1
1
0.888828
0.684492
0.433594
0.205285
0.0807181
0.016198
0.00104639
0.000746617
0.0289819
0.0703868
0.179137
0.426239
0.70797
0.878415
0.968081
0.999744
1
1
1
0.765219
0.326748
0.100003
0.0132982
-9.67678e-22
4.21591e-30
1.87706e-31
-2.10545e-22
-9.86574e-23
-1.13024e-29
8.73907e-30
1.2458e-20
9.50253e-07
0.0735265
0.322012
0.662629
0.90009
1
1
0.664867
0.0794782
0.03377
8.19562e-21
1.03595e-19
6.48434e-12
1.58577e-11
2.99462e-11
4.08349e-11
4.64967e-11
4.62095e-11
2.90218e-11
1.57372e-11
1.16507e-19
4.74107e-19
7.74979e-20
0.0883086
0.428102
0.849814
1
0.0207419
3.24919e-19
2.88729e-19
1.13826e-13
3.5711e-13
1.17075e-12
6.4283e-12
2.30678e-11
4.31984e-11
5.09807e-11
4.86025e-11
1.80859e-11
9.09093e-12
8.36253e-12
1.04149e-12
5.74136e-13
5.74983e-13
5.75831e-13
0.190665
0.807037
1.51469e-20
1.08951e-15
5.05462e-15
4.2248e-14
5.15937e-14
4.17894e-14
4.60603e-13
7.38857e-12
3.02699e-11
4.56797e-11
3.94133e-11
6.33784e-12
6.68752e-12
2.99231e-11
5.75831e-13
5.74983e-13
5.75831e-13
2.65828e-10
2.67309e-10
0.125084
2.29376e-16
2.17908e-15
2.96082e-15
2.73862e-14
5.2934e-14
3.14826e-14
4.08099e-14
1.95573e-12
2.13888e-11
4.47732e-11
3.6644e-11
3.58566e-12
2.90168e-12
2.79181e-10
1.3703e-09
1.72038e-09
4.65725e-09
3.35088e-09
2.79265e-10
3.76803e-19
1.04995e-15
2.11297e-15
3.16389e-15
2.45424e-14
4.56039e-14
2.30741e-14
1.82611e-14
2.9719e-13
1.36255e-11
4.71482e-11
3.82115e-11
2.93572e-12
2.30883e-13
9.17021e-14
7.94629e-09
3.23729e-08
3.38363e-08
1.93716e-13
1.82455e-13
1.71783e-13
2.53284e-15
2.15337e-15
6.66635e-15
2.53575e-14
2.37212e-14
1.04845e-14
1.44633e-14
6.67649e-14
9.14043e-12
5.10149e-11
4.1994e-11
2.91123e-12
2.30354e-13
9.16859e-14
2.44702e-09
1.53478e-08
7.64169e-08
7.84952e-07
1.93716e-13
6.22906e-13
2.78984e-15
1.63593e-15
8.79747e-15
1.67965e-14
8.99201e-15
6.72518e-15
1.35448e-14
4.77107e-14
8.05662e-12
5.33992e-11
4.75983e-11
3.31642e-12
1.89014e-13
9.16696e-14
2.96086e-18
2.96086e-18
3.51743e-07
2.86316e-06
1.36698e-06
-1.06033e-25
1.71343e-15
4.18869e-16
6.79348e-15
5.07247e-15
2.60395e-15
6.9405e-15
1.56146e-14
4.44919e-14
7.98556e-12
5.69693e-11
5.44124e-11
5.06954e-12
7.55318e-14
8.92678e-14
1.18965e-14
8.13917e-13
7.69834e-13
7.60873e-11
3.55756e-05
7.44744e-05
1.2523e-14
4.81056e-20
1.48593e-15
1.12113e-15
2.48695e-15
1.13956e-14
1.60112e-14
5.85768e-14
1.05877e-11
6.11972e-11
6.14828e-11
8.3922e-12
7.10484e-14
9.01218e-14
1.25496e-13
3.2817e-11
8.39539e-10
7.60457e-11
1.98135e-05
7.29904e-05
4.12147e-14
4.81056e-20
1.54555e-16
1.18979e-15
7.0741e-15
1.35646e-14
1.48158e-14
2.18179e-13
1.56314e-11
6.4651e-11
6.70751e-11
1.46887e-11
8.58411e-14
1.10094e-13
1.46794e-12
1.45295e-12
4.413e-08
1.15883e-07
2.79743e-07
4.57727e-06
5.43672e-14
4.81056e-20
6.647e-16
4.40184e-15
8.21272e-15
1.12408e-14
1.36806e-14
8.48529e-13
2.45602e-11
6.65206e-11
6.94981e-11
2.55083e-11
5.49401e-13
3.07353e-14
1.45485e-11
2.92186e-10
6.14418e-10
1.63942e-09
2.19059e-27
2.29149e-25
1.8438e-13
4.81056e-20
9.26343e-16
2.99709e-15
6.37079e-15
9.87512e-15
1.72101e-14
3.26532e-12
3.70116e-11
6.6777e-11
6.95e-11
3.86473e-11
2.24398e-12
2.3572e-14
1.89257e-13
4.65643e-13
-4.04431e-35
-8.68726e-30
-1.22174e-33
5.46159e-14
1.62634e-13
4.81056e-20
5.78225e-16
4.39315e-15
7.63388e-15
8.75158e-15
1.3185e-13
1.01945e-11
4.88276e-11
5.77432e-11
6.70833e-11
4.91074e-11
7.42165e-12
5.27938e-14
1.90471e-15
8.82826e-16
2.67956e-15
2.2097e-15
2.39661e-34
1.11884e-14
5.90524e-14
4.81056e-20
9.13096e-16
3.10421e-15
4.27046e-15
2.02896e-14
1.38589e-12
2.33636e-11
5.45373e-11
4.51955e-11
5.04284e-11
5.71792e-11
1.82866e-11
7.72595e-13
1.72072e-14
3.84335e-16
3.06708e-16
2.08589e-16
4.57462e-35
6.34605e-15
3.52544e-14
4.81056e-20
4.27768e-16
1.02193e-15
1.53665e-14
3.66523e-13
6.26329e-12
3.80164e-11
5.45432e-11
3.36181e-11
3.8843e-11
5.83002e-11
3.1706e-11
3.89673e-12
3.1511e-13
8.77489e-15
1.22438e-16
5.0533e-17
-1.92395e-36
9.7025e-15
1.7867e-14
4.81056e-20
2.15909e-16
3.29387e-15
3.47049e-13
2.09746e-12
1.51897e-11
4.5075e-11
5.10326e-11
2.10123e-11
2.5143e-11
5.60839e-11
4.0145e-11
1.04271e-11
1.70614e-12
2.50446e-13
1.02761e-15
9.06711e-17
8.97976e-36
3.63493e-14
3.47121e-14
4.81056e-20
1.20088e-16
1.55955e-13
1.87393e-12
5.15197e-12
2.34282e-11
4.64753e-11
3.37777e-11
1.11554e-11
1.34196e-11
3.73815e-11
4.43041e-11
1.75592e-11
4.11445e-12
1.58503e-12
6.87447e-14
2.56828e-16
2.14704e-35
6.89797e-14
5.30825e-14
4.81056e-20
4.70267e-15
1.54188e-12
3.91403e-12
7.66505e-12
2.64161e-11
4.50667e-11
2.14483e-11
5.8032e-12
6.8411e-12
2.56852e-11
4.42262e-11
2.13477e-11
5.98565e-12
3.70116e-12
9.66228e-13
1.08437e-15
-1.25092e-35
7.18064e-14
5.99523e-14
4.81056e-20
1.76728e-13
4.59015e-12
4.7855e-12
8.88763e-12
2.72343e-11
3.00536e-11
1.19669e-11
3.32801e-12
3.81187e-12
1.59589e-11
3.62941e-11
2.21262e-11
6.73235e-12
4.85087e-12
3.69445e-12
5.24106e-14
2.04082e-35
5.89484e-14
6.39422e-14
1.56242e-15
1.83469e-12
6.73415e-12
4.64052e-12
9.2439e-12
2.52776e-11
1.59171e-11
6.00948e-12
2.12285e-12
2.34111e-12
8.134e-12
1.91322e-11
2.17703e-11
6.87138e-12
4.91755e-12
6.30698e-12
8.64926e-13
1.18802e-16
6.04314e-14
6.48112e-14
4.06787e-14
6.61241e-12
7.17967e-12
2.82686e-12
8.72162e-12
1.71736e-11
8.85273e-12
3.34274e-12
1.48735e-12
1.57037e-12
4.10719e-12
9.97907e-12
1.58841e-11
6.39014e-12
3.24206e-12
7.20401e-12
4.41897e-12
1.06944e-14
3.3281e-14
5.66509e-14
4.49891e-13
1.15574e-11
6.67081e-12
1.39596e-12
6.27095e-12
8.60516e-12
4.54221e-12
2.08866e-12
1.08462e-12
1.10802e-12
2.3326e-12
5.03471e-12
8.55629e-12
4.71481e-12
1.44689e-12
7.15513e-12
9.75911e-12
1.49155e-13
2.40243e-14
1.10325e-13
4.29792e-12
1.35552e-11
3.52192e-12
7.39956e-13
3.6844e-12
4.11116e-12
2.18531e-12
1.37464e-12
7.67295e-13
7.7156e-13
1.43719e-12
2.37425e-12
4.19972e-12
2.9824e-12
6.06106e-13
4.96112e-12
1.29301e-11
1.74e-12
6.57346e-14
3.67604e-13
1.79104e-11
1.36599e-11
1.17943e-12
4.14007e-13
1.89567e-12
1.82874e-12
1.03139e-12
9.07523e-13
4.99793e-13
5.01849e-13
9.15433e-13
1.08911e-12
1.88744e-12
1.60624e-12
2.72225e-13
1.95282e-12
1.35201e-11
1.10638e-11
1.85661e-13
6.46264e-13
3.39949e-11
1.06916e-11
3.06932e-13
2.20318e-13
8.73313e-13
7.62564e-13
4.85733e-13
5.72311e-13
2.9236e-13
2.95174e-13
5.70519e-13
5.00377e-13
7.82415e-13
7.4746e-13
1.34805e-13
5.72528e-13
1.26066e-11
2.83977e-11
3.42263e-13
1.02358e-12
4.02215e-11
4.58659e-12
6.505e-14
1.02984e-13
3.66865e-13
3.01656e-13
2.32107e-13
3.34699e-13
1.53506e-13
1.5529e-13
3.33726e-13
2.33054e-13
3.01239e-13
3.12058e-13
6.47616e-14
1.32859e-13
6.8456e-12
3.94965e-11
5.66918e-13
4.41915e-12
3.98913e-11
1.44821e-12
1.20129e-14
4.26654e-14
1.41973e-13
1.09739e-13
1.10597e-13
1.80244e-13
7.35637e-14
7.4601e-14
1.80189e-13
1.08884e-13
1.09022e-13
1.20095e-13
2.75152e-14
2.57436e-14
2.4311e-12
4.1102e-11
1.76665e-12
1.34881e-10
2.99677e-11
3.3289e-13
2.11275e-15
1.60919e-14
5.05401e-14
3.6805e-14
5.12509e-14
8.91404e-14
3.2561e-14
3.30489e-14
8.94152e-14
5.00756e-14
3.66991e-14
4.24438e-14
1.02616e-14
4.34805e-15
6.49952e-13
3.67043e-11
6.99111e-11
9.41464e-10
8.53879e-12
5.66844e-14
3.8434e-16
5.51321e-15
1.64657e-14
1.15288e-14
2.26154e-14
4.04896e-14
1.33457e-14
1.35443e-14
4.06543e-14
2.20932e-14
1.1466e-14
1.38044e-14
3.48706e-15
6.68863e-16
1.16631e-13
1.54562e-11
7.06769e-10
1.99138e-09
7.18827e-13
9.75492e-15
8.13931e-17
1.72266e-15
4.92044e-15
3.37982e-15
9.35966e-15
1.69391e-14
5.07056e-15
5.14362e-15
1.69999e-14
9.15746e-15
3.34574e-15
4.12559e-15
1.08323e-15
1.00308e-16
2.00481e-14
2.29731e-12
1.8575e-09
2.21685e-09
3.08376e-17
1.4582e-15
2.16336e-17
4.91998e-16
1.34884e-15
9.2988e-16
3.59335e-15
6.55135e-15
1.78788e-15
1.8119e-15
6.56813e-15
3.5257e-15
9.15938e-16
1.12881e-15
3.06081e-16
1.7873e-17
3.0213e-15
4.51926e-17
2.28161e-09
1.03228e-09
3.08376e-17
1.84e-16
4.8686e-18
1.2817e-16
3.38351e-16
2.41254e-16
1.27465e-15
2.34697e-15
5.85278e-16
5.92524e-16
2.35039e-15
1.25426e-15
2.36375e-16
2.82248e-16
7.85569e-17
4.10536e-18
3.67255e-16
4.51699e-17
1.33297e-09
1.00418e-10
6.72764e-17
2.94777e-17
9.71812e-19
3.03399e-17
7.74384e-17
5.9275e-17
4.1725e-16
7.79256e-16
1.77941e-16
1.79938e-16
7.79739e-16
4.11686e-16
5.77786e-17
6.44379e-17
1.83048e-17
4.95167e-19
4.51244e-17
4.51472e-17
1.61033e-10
-7.70758e-37
5.69161e-15
8.69081e-18
2.02881e-19
6.49462e-18
1.61295e-17
1.38657e-17
1.26045e-16
2.39837e-16
5.02405e-17
5.07424e-17
2.39845e-16
1.24696e-16
1.34561e-17
1.33968e-17
3.86192e-18
7.0801e-20
1.06849e-17
6.36151e-15
-5.64004e-37
1.50348e-16
1.87306e-16
2.19309e-19
4.01206e-20
1.25184e-18
3.04875e-18
3.10648e-18
3.516e-17
6.84166e-17
1.31691e-17
1.32847e-17
6.83902e-17
3.48738e-17
3.00381e-18
2.52967e-18
7.3546e-19
1.49171e-20
3.11156e-19
2.05095e-16
9.34419e-17
2.43222e-16
8.68459e-19
8.26956e-22
6.85836e-21
2.16359e-19
5.20978e-19
6.69407e-19
9.06e-18
1.8082e-17
3.20298e-18
3.22714e-18
1.80694e-17
9.00879e-18
6.45929e-19
4.32721e-19
1.26042e-19
2.49532e-21
1.58151e-21
1.55188e-18
2.24987e-16
7.42373e-20
3.20046e-21
1.23752e-23
1.06062e-21
3.34998e-20
8.02464e-20
1.38819e-19
2.15631e-18
4.42465e-18
7.22264e-19
7.26802e-19
4.42046e-18
2.14953e-18
1.34092e-19
6.68125e-20
1.93727e-20
3.7351e-22
1.69016e-23
3.14874e-21
2.69752e-20
8.73007e-27
9.85613e-28
1.79583e-25
1.45881e-22
4.62285e-21
1.10868e-20
2.76344e-20
4.73733e-19
1.00147e-18
1.50828e-19
1.51584e-19
1.00031e-18
4.73445e-19
2.68035e-20
9.26922e-21
2.65948e-21
5.02475e-23
5.35291e-26
8.09319e-28
1.05517e-26
1.03601e-31
2.07102e-28
2.53186e-26
1.77284e-23
5.65237e-22
1.3663e-21
5.24133e-21
9.59509e-20
2.09388e-19
2.91237e-20
2.92329e-20
2.09106e-19
9.61416e-20
5.11631e-21
1.14895e-21
3.24258e-22
6.01482e-24
5.36683e-27
1.69378e-28
7.31076e-32
1.17516e-32
6.56903e-30
2.73288e-27
1.88263e-24
6.07407e-23
1.4914e-22
9.368e-22
1.78833e-20
4.03724e-20
5.18984e-21
5.20281e-21
4.03115e-20
1.7967e-20
9.21325e-22
1.26396e-22
3.48544e-23
6.32127e-25
6.82679e-28
1.40784e-30
1.74351e-33
2.8265e-33
9.44383e-31
2.42757e-28
1.72758e-25
5.67781e-24
1.43021e-23
1.55897e-22
3.05963e-21
7.16355e-21
8.51489e-22
8.52582e-22
7.15183e-21
3.08259e-21
1.54487e-22
1.22472e-23
3.2724e-24
5.77018e-26
5.9385e-29
2.34086e-31
5.23428e-34
3.74222e-34
8.00748e-32
2.00923e-29
1.35252e-26
4.55726e-25
1.19454e-24
2.3896e-23
4.79084e-22
1.16676e-21
1.2826e-22
1.28275e-22
1.16475e-21
4.84102e-22
2.3846e-23
1.03658e-24
2.65003e-25
4.52815e-27
4.86543e-30
2.00611e-32
8.49218e-35
4.07638e-35
6.01651e-33
1.36868e-30
8.87941e-28
3.08873e-26
8.62472e-26
3.34502e-24
6.84116e-23
1.73912e-22
1.76785e-23
1.76606e-23
1.73605e-22
6.9342e-23
3.35852e-24
7.60882e-26
1.81927e-26
3.00974e-28
3.27265e-31
1.54128e-33
1.07298e-35
2.78372e-36
3.28631e-34
7.86021e-32
4.76035e-29
1.72774e-27
5.37869e-27
4.24891e-25
8.87179e-24
2.36374e-23
2.2209e-24
2.21624e-24
2.35961e-23
9.02177e-24
4.28845e-25
4.84645e-27
1.03412e-27
1.65023e-29
1.91121e-32
8.3912e-35
8.16002e-37
1.07795e-37
1.45102e-35
3.75216e-33
2.00491e-30
7.72635e-29
2.96858e-28
4.87252e-26
1.03977e-24
2.917e-24
2.53118e-25
2.52321e-25
2.91211e-24
1.06102e-24
4.9397e-26
2.75419e-28
4.71157e-29
7.17063e-31
9.66897e-34
3.66247e-36
3.45237e-38
3.02368e-39
5.84589e-37
1.40674e-34
6.24504e-32
2.63831e-30
1.5919e-29
5.02031e-27
1.09504e-25
3.25183e-25
2.60273e-26
2.59189e-26
3.24676e-25
1.12159e-25
5.10829e-27
1.5395e-29
1.6428e-30
2.32138e-32
3.99031e-35
1.44762e-37
8.55266e-40
7.16348e-41
1.71098e-38
3.65433e-36
1.30456e-33
6.41294e-32
9.9174e-31
4.62102e-28
1.0293e-26
3.25488e-26
2.39882e-27
2.38643e-27
3.25032e-26
1.05855e-26
4.71592e-28
1.0038e-30
4.08908e-32
5.09671e-34
1.18692e-36
1.09313e-39
-2.07965e-41
-3.80475e-41
-1.26509e-39
5.48789e-38
1.54063e-35
9.86289e-34
7.63145e-32
3.77125e-29
8.56533e-28
2.90392e-27
1.96602e-28
1.95392e-28
2.90043e-27
8.84855e-28
3.85744e-29
7.92956e-32
6.51786e-34
6.51126e-36
2.09765e-38
-4.12066e-39
-9.54169e-41
-6.29069e-41
-1.78826e-39
2.73974e-40
6.9652e-38
8.08389e-36
5.90923e-33
2.70042e-30
6.24801e-29
2.28887e-28
1.41905e-29
1.4089e-29
2.28666e-28
6.48757e-29
2.7667e-30
6.17709e-33
5.95994e-36
3.54265e-38
-1.31751e-41
-3.78908e-39
-1.34333e-40
-5.35509e-41
-1.08758e-39
-7.52497e-41
-8.88006e-41
9.33295e-38
3.80097e-34
1.67256e-31
3.94672e-30
1.57654e-29
8.91318e-31
8.84036e-31
1.57545e-29
4.12215e-30
1.71563e-31
3.98159e-34
9.9346e-38
-2.86493e-40
-1.93305e-40
-2.15285e-39
-1.08265e-40
-2.50278e-41
-4.57702e-40
-7.14292e-41
-2.86733e-40
6.44957e-39
1.98293e-35
8.79201e-33
2.12609e-31
9.36042e-31
4.79918e-32
4.75475e-32
9.35702e-31
2.23595e-31
9.02637e-33
2.08508e-35
6.60066e-39
-5.49221e-40
-1.68527e-40
-8.72405e-40
-5.00443e-41
-7.66438e-42
-1.55775e-40
-5.36812e-41
-3.11433e-40
-7.36871e-41
8.62449e-37
3.82592e-34
9.57798e-33
4.70757e-32
2.17264e-33
2.14993e-33
4.70766e-32
1.01568e-32
3.93066e-34
9.09185e-37
-3.40375e-40
-5.78489e-40
-1.21811e-40
-2.92993e-40
-1.51568e-41
-2.05393e-42
-4.9585e-41
-3.46709e-41
-2.57627e-40
-4.85849e-40
3.00732e-38
1.33332e-35
3.51708e-34
1.95985e-33
8.05985e-35
7.96442e-35
1.96076e-33
3.76796e-34
1.37063e-35
3.14413e-38
-1.04327e-39
-4.75169e-40
-7.63881e-41
-9.2844e-41
-4.11276e-42
-5.14614e-43
-1.51235e-41
-1.9708e-41
-1.81627e-40
-5.56718e-40
4.74909e-40
3.55118e-37
1.01694e-35
6.54558e-35
2.36459e-36
2.33253e-36
6.55217e-35
1.1037e-35
3.65213e-37
2.1618e-40
-1.0599e-39
-3.38406e-40
-4.26072e-41
-2.82644e-41
-1.04768e-42
-1.23239e-43
-4.46013e-42
-1.01434e-41
-1.16541e-40
-4.39551e-40
-2.81721e-40
6.62071e-39
2.20564e-37
1.67679e-36
5.20923e-38
5.12637e-38
1.67957e-36
2.43436e-37
6.71468e-39
-5.73503e-40
-8.26933e-40
-2.18122e-40
-2.16897e-41
-8.3395e-42
-2.55466e-43
-2.85679e-44
-1.27837e-42
-4.86501e-42
-7.0393e-41
-3.07649e-40
-2.97817e-40
-9.3526e-42
3.31113e-39
3.0747e-38
7.9155e-40
7.73539e-40
3.08142e-38
3.70814e-39
-6.56512e-41
-5.63218e-40
-5.77138e-40
-1.31818e-40
-1.03358e-41
-2.39662e-42
-6.03135e-44
-6.45568e-45
-3.57382e-43
-2.22719e-42
-4.08867e-41
-2.03551e-40
-2.25068e-40
-8.96958e-41
2.99251e-42
3.49741e-40
4.44568e-42
1.79517e-42
3.43794e-40
-9.52012e-42
-1.73305e-40
-4.21277e-40
-3.81485e-40
-7.64909e-41
-4.71259e-42
-6.73312e-43
-1.38677e-44
-1.42718e-45
-9.78979e-44
-9.88088e-43
-2.30944e-41
-1.30858e-40
-1.57687e-40
-7.47672e-41
-2.62141e-41
-4.72884e-42
-2.60251e-42
-4.8914e-42
-1.09931e-41
-4.93569e-41
-1.40192e-40
-2.94418e-40
-2.44917e-40
-4.31409e-41
-2.08478e-42
-1.85891e-43
-3.11375e-45
-3.10374e-46
-2.64277e-44
-4.27689e-43
-1.27459e-41
-8.2409e-41
-1.07626e-40
-5.41614e-41
-2.21577e-41
-8.0205e-42
-2.33101e-42
-4.19986e-42
-1.46423e-41
-4.07622e-41
-1.01284e-40
-2.00704e-40
-1.54057e-40
-2.37742e-41
-9.0047e-43
-5.07663e-44
-6.86293e-46
-6.66463e-47
-7.06944e-45
-1.81186e-43
-6.88781e-42
-5.09506e-41
-7.21871e-41
-3.826e-41
-1.62953e-41
-6.22684e-42
-1.7545e-42
-3.15231e-42
-1.12496e-41
-2.99123e-41
-7.14838e-41
-1.3448e-40
-9.51398e-41
-1.2829e-41
-3.80816e-43
-1.37962e-44
-1.49054e-46
-1.41698e-47
-1.88521e-45
-7.52872e-44
-3.64884e-42
-3.0951e-41
-4.7644e-41
-2.66189e-41
-1.17211e-41
-4.57494e-42
-1.29246e-42
-2.32074e-42
-8.2562e-42
-2.14971e-41
-4.96875e-41
-8.8669e-41
-5.77308e-41
-6.78677e-42
-1.57989e-43
-3.75357e-45
-3.20303e-47
-2.99111e-48
-5.04328e-46
-3.0735e-44
-1.89668e-42
-1.84845e-41
-3.09572e-41
-1.82539e-41
-8.31627e-42
-3.3137e-42
-9.40186e-43
-1.68724e-42
-5.97545e-42
-1.52399e-41
-3.40419e-41
-5.75571e-41
-3.44405e-41
-3.52301e-42
-6.43919e-44
-1.02821e-45
-6.83988e-48
-6.29315e-49
-1.36166e-46
-1.2344e-44
-9.68118e-43
-1.08583e-41
-1.98102e-41
-1.23419e-41
-5.8231e-42
-2.36988e-42
-6.75651e-43
-1.21181e-42
-4.27024e-42
-1.06624e-41
-2.29958e-41
-3.67966e-41
-2.021e-41
-1.79585e-42
-2.5814e-44
-2.84862e-46
-1.45837e-48
-1.32661e-49
-3.72882e-47
-4.88313e-45
-4.85546e-43
-6.27677e-42
-1.24893e-41
-8.2299e-42
-4.02488e-42
-1.6739e-42
-4.79758e-43
-8.59957e-43
-3.0139e-42
-7.36387e-42
-1.53206e-41
-2.31766e-41
-1.16705e-41
-8.99502e-43
-1.01893e-44
-8.00359e-47
-3.11958e-49
-2.81709e-50
-1.03873e-47
-1.90458e-45
-2.39408e-43
-3.57187e-42
-7.75988e-42
-5.41388e-42
-2.74678e-42
-1.16791e-42
-3.36655e-43
-6.03087e-43
-2.1013e-42
-5.02151e-42
-1.00696e-41
-1.43868e-41
-6.63446e-42
-4.42941e-43
-3.9636e-45
-2.28171e-47
-6.72607e-50
-6.05618e-51
-2.94485e-48
-7.33089e-46
-1.16107e-43
-2.0017e-42
-4.75294e-42
-3.51424e-42
-1.85122e-42
-8.0511e-43
-2.33496e-43
-4.18034e-43
-1.44749e-42
-3.38166e-42
-6.53071e-42
-8.80391e-42
-3.71427e-42
-2.14539e-43
-1.52065e-45
-6.59003e-48
-1.46787e-50
-1.32322e-51
-8.48063e-49
-2.78699e-46
-5.54082e-44
-1.10505e-42
-2.87065e-42
-2.25147e-42
-1.23237e-42
-5.48453e-43
-1.60092e-43
-2.86442e-43
-9.85339e-43
-2.24946e-42
-4.18047e-42
-5.31258e-42
-2.04848e-42
-1.02251e-43
-5.75803e-46
-1.92236e-48
-3.25283e-51
-2.94562e-52
-2.47236e-49
-1.04731e-46
-2.60286e-44
-6.01148e-43
-1.71009e-42
-1.42398e-42
-8.10505e-43
-3.69265e-43
-1.08522e-43
-1.94052e-43
-6.6294e-43
-1.47831e-42
-2.64181e-42
-3.16201e-42
-1.1133e-42
-4.79723e-44
-2.15323e-46
-5.64249e-49
-7.32942e-52
-6.68337e-53
-7.26755e-50
-3.89298e-47
-1.20403e-44
-3.22339e-43
-1.00504e-42
-8.89279e-43
-5.26721e-43
-2.45765e-43
-7.27407e-44
-1.2999e-43
-4.4091e-43
-9.59985e-43
-1.64845e-42
-1.85674e-42
-5.96389e-43
-2.21629e-44
-7.95654e-47
-1.66025e-49
-1.67796e-52
-1.54377e-53
-2.14609e-50
-1.43228e-47
-5.48622e-45
-1.70408e-43
-5.82872e-43
-5.48469e-43
-3.38289e-43
-1.61715e-43
-4.82177e-44
-8.61136e-44
-2.89919e-43
-6.16098e-43
-1.01587e-42
-1.07589e-42
-3.14993e-43
-1.00859e-44
-2.90666e-47
-4.88113e-50
-3.89338e-53
-3.62206e-54
-6.34716e-51
-5.21831e-48
-2.4631e-45
-8.88418e-44
-3.33639e-43
-3.34139e-43
-2.14757e-43
-1.05218e-43
-3.16123e-44
-5.64227e-44
-1.88503e-43
-3.90833e-43
-6.18391e-43
-6.1533e-43
-1.6407e-43
-4.52251e-45
-1.05027e-47
-1.43015e-50
-9.12024e-54
-8.61026e-55
-1.87587e-51
-1.88337e-48
-1.08988e-45
-4.56873e-44
-1.88532e-43
-2.01113e-43
-1.3478e-43
-6.77016e-44
-2.05011e-44
-3.65685e-44
-1.21208e-43
-2.45107e-43
-3.71904e-43
-3.47421e-43
-8.42975e-44
-1.99868e-45
-3.75512e-48
-4.16814e-51
-2.14626e-54
-2.06783e-55
-5.53089e-52
-6.73481e-49
-4.75419e-46
-2.31803e-44
-1.05191e-43
-1.19609e-43
-8.36346e-44
-4.30857e-44
-1.31528e-44
-2.34466e-44
-7.70856e-44
-1.51986e-43
-2.21012e-43
-1.93685e-43
-4.27318e-44
-8.70795e-46
-1.32901e-48
-1.20693e-51
-5.05172e-55
-5.00057e-56
-1.6246e-52
-2.3862e-49
-2.04492e-46
-1.16058e-44
-5.79617e-44
-7.03022e-44
-5.13202e-44
-2.71236e-44
-8.34876e-45
-1.48737e-44
-4.84951e-44
-9.31963e-44
-1.29803e-43
-1.06637e-43
-2.13761e-44
-3.74113e-46
-4.65743e-49
-3.47023e-52
-1.18604e-55
-1.21438e-56
-4.74749e-53
-8.37634e-50
-8.67517e-47
-5.73526e-45
-3.15462e-44
-4.08436e-44
-3.11451e-44
-1.68924e-44
-5.24368e-45
-9.33612e-45
-3.01825e-44
-5.65192e-44
-7.53541e-44
-5.79919e-44
-1.05543e-44
-1.58527e-46
-1.61657e-49
-9.90755e-53
-2.77596e-56
-2.95457e-57
-1.37843e-53
-2.91293e-50
-3.63056e-47
-2.79789e-45
-1.69617e-44
-2.3458e-44
-1.8696e-44
-1.04091e-44
-3.25914e-45
-5.79922e-45
-1.85863e-44
-3.39041e-44
-4.32461e-44
-3.11565e-44
-5.14445e-45
-6.62697e-47
-5.55856e-50
-2.80939e-53
-6.47824e-57
-7.17217e-58
-3.97274e-54
-1.0035e-50
-1.49918e-47
-1.34768e-45
-9.01111e-45
-1.3321e-44
-1.11023e-44
-6.34694e-45
-2.00477e-45
-3.56507e-45
-1.13256e-44
-2.01196e-44
-2.45396e-44
-1.65394e-44
-2.4759e-45
-2.73353e-47
-1.89375e-50
-7.91492e-54
-1.50781e-57
-1.72823e-58
-1.13627e-54
-3.42457e-51
-6.10952e-48
-6.41061e-46
-4.73088e-45
-7.48025e-45
-6.52288e-45
-3.82989e-45
-1.22057e-45
-2.16922e-45
-6.82977e-45
-1.18127e-44
-1.37698e-44
-8.67664e-45
-1.17675e-45
-1.1128e-47
-6.39323e-51
-2.2162e-54
-3.505e-58
-4.134e-59
-3.22667e-55
-1.15768e-51
-2.4576e-48
-3.01187e-46
-2.45485e-45
-4.15422e-45
-3.79205e-45
-2.28731e-45
-7.35584e-46
-1.30651e-45
-4.07633e-45
-6.86262e-45
-7.64158e-45
-4.4989e-45
-5.5242e-46
-4.47177e-48
-2.13876e-51
-6.16769e-55
-8.15151e-59
-9.87508e-60
-9.10213e-56
-3.87644e-52
-9.75995e-49
-1.39788e-46
-1.25919e-45
-2.28199e-45
-2.18154e-45
-1.35214e-45
-4.3885e-46
-7.79004e-46
-2.4082e-45
-3.94539e-45
-4.19462e-45
-2.30594e-45
-2.56185e-46
-1.77414e-48
-7.08971e-52
-1.70543e-55
-1.89579e-59
-2.36306e-60
-2.54861e-56
-1.2854e-52
-3.82726e-49
-6.41009e-47
-6.3856e-46
-1.24005e-45
-1.2421e-45
-7.91262e-46
-2.59209e-46
-4.59851e-46
-1.40838e-45
-2.24489e-45
-2.27777e-45
-1.16852e-45
-1.17383e-46
-6.9505e-49
-2.3285e-52
-4.6827e-56
-4.39935e-60
-5.64947e-61
-7.07676e-57
-4.21959e-53
-1.48218e-49
-2.9046e-47
-3.20194e-46
-6.66688e-46
-6.99996e-46
-4.58414e-46
-1.51591e-46
-2.68772e-46
-8.15434e-46
-1.2643e-45
-1.22373e-45
-5.85505e-46
-5.31484e-47
-2.6893e-49
-7.57661e-53
-1.27599e-56
-1.01424e-60
-1.33691e-61
-1.94789e-57
-1.37114e-53
-5.6697e-50
-1.30077e-47
-1.58776e-46
-3.5466e-46
-3.90503e-46
-2.62951e-46
-8.77843e-47
-1.55552e-46
-4.67454e-46
-7.04847e-46
-6.50533e-46
-2.90126e-46
-2.37831e-47
-1.02785e-49
-2.44241e-53
-3.45008e-57
-2.31685e-61
-3.11924e-62
-5.31738e-58
-4.41015e-54
-2.14256e-50
-5.75791e-48
-7.78701e-47
-1.86705e-46
-2.15667e-46
-1.49351e-46
-5.03407e-47
-8.91508e-47
-2.65344e-46
-3.89022e-46
-3.42226e-46
-1.42188e-46
-1.05197e-47
-3.88108e-50
-7.80056e-54
-9.26211e-58
-5.24135e-62
-7.21148e-63
-1.44103e-58
-1.40384e-54
-8.00006e-51
-2.51965e-48
-3.77767e-47
-9.72754e-47
-1.17928e-46
-8.40032e-47
-2.859e-47
-5.06023e-47
-1.49154e-46
-2.12582e-46
-1.78181e-46
-6.89299e-47
-4.59994e-48