/*--------------------------------*- C++ -*----------------------------------*\
| =========                 |                                                 |
| \\      /  F ield         | OpenFOAM: The Open Source CFD Toolbox           |
|  \\    /   O peration     | Version:  5.x                                   |
|   \\  /    A nd           | Web:      www.OpenFOAM.org                      |
|    \\/     M anipulation  |                                                 |
\*---------------------------------------------------------------------------*/
FoamFile
{
    version     2.0;
    format      ascii;
    class       surfaceScalarField;
    location    "0.2";
    object      alphaPhi10;
}
// * * * * * * * * * * * * * * * * * * * * * * * * * * * * * * * * * * * * * //

dimensions      [0 3 -1 0 0 0 0];

internalField   nonuniform List<scalar> 
15580
(
-2.87332e-17
-5.81512e-11
-4.98302e-17
-1.97291e-10
-7.34885e-17
-3.45022e-10
-8.01221e-17
-4.89448e-10
-8.02084e-17
-6.2239e-10
-7.60346e-17
-7.38424e-10
-6.91864e-17
-8.33994e-10
-6.10972e-17
-9.06914e-10
-5.29157e-17
-9.55978e-10
-4.55465e-17
-9.80616e-10
-3.97451e-17
-9.80616e-10
-3.62543e-17
-9.55978e-10
-3.57624e-17
-9.06914e-10
-3.89747e-17
-8.33994e-10
-4.66541e-17
-7.38424e-10
-5.97276e-17
-6.2239e-10
-7.88077e-17
-4.89448e-10
-1.0871e-16
-3.45022e-10
-1.77547e-16
-1.97291e-10
-5.81511e-11
-1.8545e-17
-5.81512e-11
-4.37516e-17
-1.97291e-10
-6.39024e-17
-3.45022e-10
-7.5953e-17
-4.89448e-10
-7.79144e-17
-6.2239e-10
-7.45041e-17
-7.38424e-10
-6.78557e-17
-8.33994e-10
-5.95688e-17
-9.06914e-10
-5.09227e-17
-9.55978e-10
-4.28761e-17
-9.80616e-10
-3.62266e-17
-9.80616e-10
-3.17374e-17
-9.55978e-10
-3.01391e-17
-9.06914e-10
-3.21936e-17
-8.33994e-10
-3.88106e-17
-7.38424e-10
-5.13832e-17
-6.2239e-10
-7.09424e-17
-4.89448e-10
-1.01665e-16
-3.45022e-10
-1.28235e-16
-1.97291e-10
-5.81512e-11
-1.50977e-17
-5.81512e-11
-3.85207e-17
-1.97291e-10
-5.83359e-17
-3.45022e-10
-7.04372e-17
-4.89448e-10
-7.39089e-17
-6.2239e-10
-7.15017e-17
-7.38424e-10
-6.53031e-17
-8.33994e-10
-5.70092e-17
-9.06914e-10
-4.79634e-17
-9.55978e-10
-3.91875e-17
-9.80616e-10
-3.15618e-17
-9.80616e-10
-2.59011e-17
-9.55978e-10
-2.2897e-17
-9.06914e-10
-2.30869e-17
-8.33994e-10
-2.69691e-17
-7.38424e-10
-3.47896e-17
-6.2239e-10
-4.47987e-17
-4.89448e-10
-5.48863e-17
-3.45022e-10
-4.04977e-17
-1.97291e-10
-5.81513e-11
-1.49152e-17
-5.81511e-11
-3.91128e-17
-1.97291e-10
-5.77321e-17
-3.45022e-10
-6.82029e-17
-4.89448e-10
-7.14074e-17
-6.2239e-10
-6.90646e-17
-7.38424e-10
-6.2832e-17
-8.33994e-10
-5.42865e-17
-9.06914e-10
-4.47086e-17
-9.55978e-10
-3.51413e-17
-9.80616e-10
-2.65316e-17
-9.80616e-10
-1.97313e-17
-9.55978e-10
-1.53807e-17
-9.06914e-10
-1.38262e-17
-8.33994e-10
-1.53012e-17
-7.38424e-10
-1.9746e-17
-6.2239e-10
-2.58739e-17
-4.89448e-10
-3.13214e-17
-3.45022e-10
-1.19319e-17
-1.97291e-10
-5.81513e-11
-2.08731e-17
-5.81511e-11
-4.44147e-17
-1.97291e-10
-6.0792e-17
-3.45022e-10
-6.89782e-17
-4.89448e-10
-7.07249e-17
-6.2239e-10
-6.74089e-17
-7.38424e-10
-6.04663e-17
-8.33995e-10
-5.13024e-17
-9.06914e-10
-4.10417e-17
-9.55978e-10
-3.06927e-17
-9.80616e-10
-2.11968e-17
-9.80616e-10
-1.34082e-17
-9.55978e-10
-7.89865e-18
-9.06914e-10
-4.94989e-18
-8.33994e-10
-4.85534e-18
-7.38424e-10
-7.97036e-18
-6.2239e-10
-1.49238e-17
-4.89448e-10
-2.33774e-17
-3.45022e-10
-2.60845e-17
-1.97291e-10
-5.81513e-11
-2.98141e-17
-5.81511e-11
-5.16314e-17
-1.97291e-10
-6.53208e-17
-3.45022e-10
-7.0948e-17
-4.89448e-10
-7.06232e-17
-6.2239e-10
-6.5715e-17
-7.38424e-10
-5.76473e-17
-8.33995e-10
-4.76764e-17
-9.06914e-10
-3.67682e-17
-9.55978e-10
-2.58258e-17
-9.80616e-10
-1.56959e-17
-9.80616e-10
-7.14437e-18
-9.55978e-10
-6.21319e-19
-9.06914e-10
3.73039e-18
-8.33994e-10
5.66974e-18
-7.38424e-10
4.90911e-18
-6.2239e-10
6.24036e-19
-4.89448e-10
-7.1025e-18
-3.45022e-10
-1.53077e-17
-1.97291e-10
-5.81513e-11
-3.63619e-17
-5.81511e-11
-5.75369e-17
-1.97291e-10
-6.87847e-17
-3.45022e-10
-7.20762e-17
-4.89448e-10
-6.9612e-17
-6.2239e-10
-6.29982e-17
-7.38424e-10
-5.37894e-17
-8.33995e-10
-4.31392e-17
-9.06914e-10
-3.1887e-17
-9.55978e-10
-2.0775e-17
-9.80616e-10
-1.0458e-17
-9.80616e-10
-1.50458e-18
-9.55978e-10
5.82233e-18
-9.06914e-10
1.15753e-17
-8.33994e-10
1.5744e-17
-7.38424e-10
1.85375e-17
-6.2239e-10
1.93628e-17
-4.89448e-10
1.64753e-17
-3.45022e-10
1.17574e-17
-1.97291e-10
-5.81513e-11
-3.90256e-17
-5.8151e-11
-6.06242e-17
-1.97291e-10
-6.98479e-17
-3.45022e-10
-7.10635e-17
-4.89448e-10
-6.66579e-17
-6.2239e-10
-5.85778e-17
-7.38424e-10
-4.8517e-17
-8.33995e-10
-3.75931e-17
-9.06914e-10
-2.6533e-17
-9.55978e-10
-1.58726e-17
-9.80616e-10
-5.96582e-18
-9.80616e-10
2.88006e-18
-9.55978e-10
1.06611e-17
-9.06914e-10
1.75838e-17
-8.33994e-10
2.37697e-17
-7.38424e-10
2.96702e-17
-6.2239e-10
3.44494e-17
-4.89448e-10
3.38601e-17
-3.45022e-10
2.24871e-17
-1.97291e-10
-5.81513e-11
-4.04086e-17
-5.8151e-11
-6.09808e-17
-1.9729e-10
-6.80168e-17
-3.45022e-10
-6.72414e-17
-4.89448e-10
-6.11865e-17
-6.2239e-10
-5.20391e-17
-7.38424e-10
-4.15748e-17
-8.33995e-10
-3.09148e-17
-9.06914e-10
-2.06597e-17
-9.55978e-10
-1.11063e-17
-9.80616e-10
-2.33672e-18
-9.80616e-10
5.82563e-18
-9.55978e-10
1.37953e-17
-9.06914e-10
2.18816e-17
-8.33994e-10
2.99646e-17
-7.38424e-10
3.84053e-17
-6.2239e-10
4.59691e-17
-4.89448e-10
4.6681e-17
-3.45022e-10
3.12607e-17
-1.97291e-10
-5.81513e-11
-3.96813e-17
-5.81509e-11
-5.80708e-17
-1.9729e-10
-6.26864e-17
-3.45022e-10
-6.01315e-17
-4.89448e-10
-5.28096e-17
-6.2239e-10
-4.30222e-17
-7.38424e-10
-3.26219e-17
-8.33995e-10
-2.27093e-17
-9.06914e-10
-1.37233e-17
-9.55978e-10
-5.75189e-18
-9.80616e-10
1.2083e-18
-9.80616e-10
7.9879e-18
-9.55978e-10
1.59836e-17
-9.06914e-10
2.57526e-17
-8.33994e-10
3.60648e-17
-7.38424e-10
4.67118e-17
-6.2239e-10
5.62734e-17
-4.89448e-10
5.89209e-17
-3.45022e-10
4.20628e-17
-1.97291e-10
-5.81512e-11
-3.65399e-17
-5.81509e-11
-5.12955e-17
-1.9729e-10
-5.35e-17
-3.45022e-10
-4.95132e-17
-4.89448e-10
-4.12668e-17
-6.2239e-10
-3.12036e-17
-7.38424e-10
-2.12063e-17
-8.33995e-10
-1.22511e-17
-9.06914e-10
-4.66003e-18
-9.55978e-10
1.53057e-18
-9.80616e-10
6.51015e-18
-9.80616e-10
1.11939e-17
-9.55978e-10
1.88139e-17
-9.06914e-10
3.05088e-17
-8.33995e-10
4.35599e-17
-7.38424e-10
5.57707e-17
-6.2239e-10
6.62957e-17
-4.89448e-10
7.14089e-17
-3.45022e-10
5.51874e-17
-1.97291e-10
-5.81512e-11
-2.99899e-17
-5.81509e-11
-4.04397e-17
-1.9729e-10
-4.07292e-17
-3.45022e-10
-3.56378e-17
-4.89448e-10
-2.6588e-17
-6.2239e-10
-1.64905e-17
-7.38424e-10
-7.07716e-18
-8.33995e-10
9.83227e-19
-9.06914e-10
7.63675e-18
-9.55978e-10
1.28746e-17
-9.80616e-10
1.63443e-17
-9.80616e-10
1.88373e-17
-9.55978e-10
2.41714e-17
-9.06914e-10
3.52211e-17
-8.33995e-10
5.03627e-17
-7.38424e-10
6.33516e-17
-6.2239e-10
7.33202e-17
-4.89448e-10
8.02389e-17
-3.45022e-10
6.5635e-17
-1.97291e-10
-5.81511e-11
-1.83948e-17
-5.81509e-11
-2.87281e-17
-1.9729e-10
-2.66877e-17
-3.45022e-10
-1.9346e-17
-4.89448e-10
-9.12136e-18
-6.2239e-10
8.29149e-19
-7.38424e-10
9.31551e-18
-8.33995e-10
1.6324e-17
-9.06914e-10
2.20905e-17
-9.55978e-10
2.63742e-17
-9.80616e-10
2.91192e-17
-9.80616e-10
3.199e-17
-9.55978e-10
3.56387e-17
-9.06914e-10
4.29409e-17
-8.33995e-10
5.44462e-17
-7.38424e-10
6.489e-17
-6.2239e-10
7.2641e-17
-4.89448e-10
7.84722e-17
-3.45022e-10
6.51844e-17
-1.97291e-10
-5.8151e-11
-1.83137e-17
-5.81508e-11
-2.0267e-17
-1.9729e-10
-1.22318e-17
-3.45022e-10
-6.23942e-19
-4.89448e-10
1.11424e-17
-6.2239e-10
2.04037e-17
-7.38424e-10
2.71673e-17
-8.33995e-10
3.22663e-17
-9.06914e-10
3.6142e-17
-9.55978e-10
3.91046e-17
-9.80616e-10
4.23729e-17
-9.80616e-10
4.68404e-17
-9.55978e-10
5.06241e-17
-9.06914e-10
5.32248e-17
-8.33995e-10
5.67543e-17
-7.38424e-10
6.1055e-17
-6.2239e-10
6.31752e-17
-4.89448e-10
6.26487e-17
-3.45022e-10
4.92365e-17
-1.97291e-10
-5.8151e-11
-2.19438e-17
-5.81508e-11
-8.7612e-18
-1.9729e-10
6.91994e-18
-3.45022e-10
2.37841e-17
-4.89448e-10
3.55179e-17
-6.2239e-10
4.22926e-17
-7.38424e-10
4.58111e-17
-8.33995e-10
4.7649e-17
-9.06914e-10
4.8869e-17
-9.55978e-10
5.06199e-17
-9.80616e-10
5.3983e-17
-9.80616e-10
5.85482e-17
-9.55978e-10
6.221e-17
-9.06914e-10
6.25656e-17
-8.33995e-10
6.02215e-17
-7.38424e-10
5.66058e-17
-6.2239e-10
4.95547e-17
-4.89448e-10
3.79638e-17
-3.45022e-10
2.20215e-17
-1.97291e-10
-5.8151e-11
-8.45622e-18
-5.81508e-11
1.92058e-17
-1.9729e-10
4.08244e-17
-3.45022e-10
5.72454e-17
-4.89448e-10
6.46612e-17
-6.2239e-10
6.58813e-17
-7.38424e-10
6.41061e-17
-8.33995e-10
6.15993e-17
-9.06914e-10
5.98637e-17
-9.55978e-10
6.00961e-17
-9.80616e-10
6.27939e-17
-9.80616e-10
6.69516e-17
-9.55978e-10
7.04018e-17
-9.06914e-10
6.98139e-17
-8.33995e-10
6.39826e-17
-7.38424e-10
5.40092e-17
-6.2239e-10
3.85878e-17
-4.89448e-10
1.61712e-17
-3.45022e-10
-3.94083e-18
-1.97291e-10
-5.8151e-11
3.67542e-17
-5.81508e-11
7.1281e-17
-1.97291e-10
9.15784e-17
-3.45022e-10
9.84261e-17
-4.89448e-10
9.57174e-17
-6.2239e-10
8.82016e-17
-7.38424e-10
7.97084e-17
-8.33995e-10
7.25656e-17
-9.06914e-10
6.79924e-17
-9.55978e-10
6.66326e-17
-9.80616e-10
6.84034e-17
-9.80616e-10
7.20332e-17
-9.55978e-10
7.51792e-17
-9.06914e-10
7.44317e-17
-8.33995e-10
6.78186e-17
-7.38424e-10
5.54466e-17
-6.2239e-10
3.61291e-17
-4.89448e-10
8.48614e-18
-3.45022e-10
-1.35702e-17
-1.97291e-10
-5.8151e-11
9.36067e-17
-5.81509e-11
1.31101e-16
-1.97291e-10
1.43193e-16
-3.45022e-10
1.36111e-16
-4.89448e-10
1.20637e-16
-6.2239e-10
1.03832e-16
-7.38424e-10
8.92119e-17
-8.33995e-10
7.82753e-17
-9.06914e-10
7.15032e-17
-9.55978e-10
6.89001e-17
-9.80616e-10
6.99463e-17
-9.80616e-10
7.32789e-17
-9.55978e-10
7.66174e-17
-9.06914e-10
7.6901e-17
-8.33995e-10
7.18888e-17
-7.38424e-10
6.11507e-17
-6.2239e-10
4.37495e-17
-4.89448e-10
1.81466e-17
-3.45022e-10
-3.78139e-18
-1.9729e-10
-5.8151e-11
1.23527e-16
-5.81511e-11
1.68958e-16
-1.97291e-10
1.71194e-16
-3.45022e-10
1.53365e-16
-4.89448e-10
1.2957e-16
-6.2239e-10
1.07143e-16
-7.38424e-10
8.92815e-17
-8.33995e-10
7.65752e-17
-9.06914e-10
6.88704e-17
-9.55978e-10
6.57556e-17
-9.80616e-10
6.65316e-17
-9.80616e-10
6.99322e-17
-9.55978e-10
7.39966e-17
-9.06914e-10
7.62225e-17
-8.33995e-10
7.45343e-17
-7.38424e-10
6.82921e-17
-6.2239e-10
5.73052e-17
-4.89448e-10
3.90427e-17
-3.45022e-10
1.92265e-17
-1.9729e-10
-5.8151e-11
1.27974e-16
-5.81512e-11
1.69199e-16
-1.97291e-10
1.63828e-16
-3.45022e-10
1.42381e-16
-4.89448e-10
1.17447e-16
-6.2239e-10
9.5382e-17
-7.38424e-10
7.83297e-17
-8.33995e-10
6.64481e-17
-9.06914e-10
5.93745e-17
-9.55978e-10
5.66461e-17
-9.80616e-10
5.7639e-17
-9.80616e-10
6.13413e-17
-9.55978e-10
6.62605e-17
-9.06914e-10
7.05578e-17
-8.33995e-10
7.26475e-17
-7.38424e-10
7.20189e-17
-6.2239e-10
6.88576e-17
-4.89448e-10
5.93604e-17
-3.45022e-10
4.16718e-17
-1.9729e-10
-5.81509e-11
1.16148e-16
-5.81513e-11
1.31364e-16
-1.97291e-10
1.23783e-16
-3.45022e-10
1.06347e-16
-4.89448e-10
8.68746e-17
-6.2239e-10
7.02488e-17
-7.38424e-10
5.74715e-17
-8.33995e-10
4.8614e-17
-9.06914e-10
4.35132e-17
-9.55978e-10
4.19267e-17
-9.80616e-10
4.34557e-17
-9.80616e-10
4.74141e-17
-9.55978e-10
5.27965e-17
-9.06914e-10
5.84072e-17
-8.33995e-10
6.32484e-17
-7.38424e-10
6.71049e-17
-6.2239e-10
7.01015e-17
-4.89448e-10
6.76206e-17
-3.45022e-10
5.2081e-17
-1.9729e-10
-5.81509e-11
4.9895e-17
-5.81514e-11
6.07757e-17
-1.97291e-10
6.09194e-17
-3.45022e-10
5.421e-17
-4.89448e-10
4.5183e-17
-6.2239e-10
3.67941e-17
-7.38424e-10
3.00381e-17
-8.33995e-10
2.53429e-17
-9.06914e-10
2.29449e-17
-9.55978e-10
2.28897e-17
-9.80616e-10
2.50117e-17
-9.80616e-10
2.89138e-17
-9.55978e-10
3.40077e-17
-9.06914e-10
3.96473e-17
-8.33995e-10
4.539e-17
-7.38424e-10
5.13267e-17
-6.2239e-10
5.76067e-17
-4.89448e-10
5.89419e-17
-3.45022e-10
4.65014e-17
-1.9729e-10
-5.81508e-11
-1.79044e-17
-5.81513e-11
-6.71895e-19
-1.97291e-10
2.89579e-18
-3.45022e-10
3.63084e-18
-4.89448e-10
3.05642e-18
-6.2239e-10
1.75201e-18
-7.38424e-10
4.60444e-19
-8.33995e-10
-2.37485e-19
-9.06914e-10
6.73258e-20
-9.55978e-10
1.53094e-18
-9.80616e-10
4.07747e-18
-9.80616e-10
7.47148e-18
-9.55978e-10
1.14248e-17
-9.06914e-10
1.57504e-17
-8.33995e-10
2.04957e-17
-7.38424e-10
2.62395e-17
-6.2239e-10
3.35362e-17
-4.89448e-10
3.64948e-17
-3.45022e-10
2.79799e-17
-1.9729e-10
-5.81508e-11
-2.10521e-17
-5.81513e-11
-2.97592e-17
-1.97291e-10
-3.36746e-17
-3.45022e-10
-3.39186e-17
-4.89448e-10
-3.2166e-17
-6.2239e-10
-2.97858e-17
-7.38424e-10
-2.74681e-17
-8.33995e-10
-2.51288e-17
-9.06914e-10
-2.25972e-17
-9.55978e-10
-1.98762e-17
-9.80616e-10
-1.71531e-17
-9.80616e-10
-1.46806e-17
-9.55978e-10
-1.26047e-17
-9.06914e-10
-1.07645e-17
-8.33995e-10
-8.69011e-18
-7.38424e-10
-5.3314e-18
-6.2239e-10
-4.78827e-19
-4.89448e-10
2.31517e-18
-3.45022e-10
2.18148e-18
-1.9729e-10
-5.81508e-11
-2.05392e-17
-5.81513e-11
-4.37768e-17
-1.97291e-10
-5.70606e-17
-3.45022e-10
-6.11185e-17
-4.89448e-10
-5.97689e-17
-6.2239e-10
-5.59197e-17
-7.38424e-10
-5.15189e-17
-8.33995e-10
-4.70995e-17
-9.06914e-10
-4.28912e-17
-9.55978e-10
-3.92101e-17
-9.80616e-10
-3.64954e-17
-9.80616e-10
-3.51648e-17
-9.55978e-10
-3.53748e-17
-9.06914e-10
-3.67577e-17
-8.33995e-10
-3.85352e-17
-7.38424e-10
-3.97358e-17
-6.2239e-10
-4.12843e-17
-4.89448e-10
-3.8845e-17
-3.45022e-10
-3.04604e-17
-1.9729e-10
-5.81508e-11
-3.1691e-17
-5.81513e-11
-5.99036e-17
-1.97291e-10
-7.61542e-17
-3.45022e-10
-8.2126e-17
-4.89448e-10
-8.086e-17
-6.2239e-10
-7.61575e-17
-7.38424e-10
-7.04689e-17
-8.33995e-10
-6.46132e-17
-9.06914e-10
-5.91564e-17
-9.55978e-10
-5.47488e-17
-9.80616e-10
-5.21148e-17
-9.80616e-10
-5.18681e-17
-9.55978e-10
-5.42197e-17
-9.06914e-10
-5.86462e-17
-8.33995e-10
-6.39853e-17
-7.38424e-10
-6.94014e-17
-6.2239e-10
-7.46307e-17
-4.89448e-10
-7.05023e-17
-3.45022e-10
-5.6684e-17
-1.9729e-10
-5.81509e-11
-5.04941e-17
-5.81512e-11
-7.85997e-17
-1.97291e-10
-9.30856e-17
-3.45022e-10
-9.79523e-17
-4.89448e-10
-9.55789e-17
-6.2239e-10
-9.00053e-17
-7.38424e-10
-8.34321e-17
-8.33995e-10
-7.65625e-17
-9.06914e-10
-7.02052e-17
-9.55978e-10
-6.52894e-17
-9.80616e-10
-6.27583e-17
-9.80616e-10
-6.33431e-17
-9.55978e-10
-6.72513e-17
-9.06914e-10
-7.37982e-17
-8.33995e-10
-8.14256e-17
-7.38424e-10
-8.84728e-17
-6.2239e-10
-9.17723e-17
-4.89448e-10
-8.40823e-17
-3.45022e-10
-5.78692e-17
-1.9729e-10
-5.8151e-11
-6.7172e-17
-5.81511e-11
-9.57268e-17
-1.97291e-10
-1.05551e-16
-3.45022e-10
-1.07235e-16
-4.89448e-10
-1.03238e-16
-6.2239e-10
-9.69255e-17
-7.38424e-10
-8.97249e-17
-8.33995e-10
-8.22156e-17
-9.06914e-10
-7.53253e-17
-9.55978e-10
-7.01778e-17
-9.80616e-10
-6.78114e-17
-9.80616e-10
-6.89555e-17
-9.55978e-10
-7.37593e-17
-9.06914e-10
-8.14889e-17
-8.33995e-10
-9.05277e-17
-7.38424e-10
-9.85147e-17
-6.2239e-10
-1.00631e-16
-4.89448e-10
-9.01032e-17
-3.45022e-10
-6.05117e-17
-1.97291e-10
-5.8151e-11
-7.50532e-17
-5.81511e-11
-1.02824e-16
-1.97291e-10
-1.09216e-16
-3.45022e-10
-1.07917e-16
-4.89448e-10
-1.02873e-16
-6.2239e-10
-9.64154e-17
-7.38424e-10
-8.90175e-17
-8.33995e-10
-8.12971e-17
-9.06914e-10
-7.42785e-17
-9.55978e-10
-6.92386e-17
-9.80616e-10
-6.71335e-17
-9.80616e-10
-6.85983e-17
-9.55978e-10
-7.37361e-17
-9.06914e-10
-8.19719e-17
-8.33995e-10
-9.21062e-17
-7.38424e-10
-1.0183e-16
-6.2239e-10
-1.06369e-16
-4.89448e-10
-9.7768e-17
-3.45022e-10
-5.4841e-17
-1.97291e-10
-5.81511e-11
-6.92302e-17
-5.8151e-11
-9.54349e-17
-1.97291e-10
-1.01548e-16
-3.45022e-10
-9.95588e-17
-4.89448e-10
-9.46569e-17
-6.2239e-10
-8.87088e-17
-7.38424e-10
-8.14002e-17
-8.33995e-10
-7.39362e-17
-9.06914e-10
-6.73627e-17
-9.55978e-10
-6.27672e-17
-9.80616e-10
-6.0944e-17
-9.80616e-10
-6.2415e-17
-9.55978e-10
-6.73086e-17
-9.06914e-10
-7.54268e-17
-8.33995e-10
-8.64087e-17
-7.38424e-10
-9.92337e-17
-6.2239e-10
-1.10297e-16
-4.89448e-10
-1.10535e-16
-3.45022e-10
-7.90488e-17
-1.97291e-10
-5.81511e-11
-5.05382e-17
-5.81509e-11
-7.4603e-17
-1.9729e-10
-8.26889e-17
-3.45022e-10
-8.25214e-17
-4.89448e-10
-7.95205e-17
-6.2239e-10
-7.45221e-17
-7.38424e-10
-6.80588e-17
-8.33995e-10
-6.14317e-17
-9.06914e-10
-5.5706e-17
-9.55978e-10
-5.16776e-17
-9.80616e-10
-4.9945e-17
-9.80616e-10
-5.08875e-17
-9.55978e-10
-5.46729e-17
-9.06914e-10
-6.14621e-17
-8.33995e-10
-7.15724e-17
-7.38424e-10
-8.49872e-17
-6.2239e-10
-9.94749e-17
-4.89448e-10
-1.07209e-16
-3.45022e-10
-8.78727e-17
-1.97291e-10
-5.81512e-11
-2.56596e-17
-5.81509e-11
-4.72234e-17
-1.9729e-10
-5.75382e-17
-3.45022e-10
-6.0122e-17
-4.89448e-10
-5.98004e-17
-6.2239e-10
-5.60846e-17
-7.38424e-10
-5.10819e-17
-8.33995e-10
-4.57684e-17
-9.06914e-10
-4.10348e-17
-9.55978e-10
-3.7492e-17
-9.80616e-10
-3.54962e-17
-9.80616e-10
-3.52524e-17
-9.55978e-10
-3.69118e-17
-9.06914e-10
-4.07878e-17
-8.33995e-10
-4.74126e-17
-7.38424e-10
-5.69693e-17
-6.2239e-10
-6.80933e-17
-4.89448e-10
-7.65115e-17
-3.45022e-10
-7.11048e-17
-1.97291e-10
-5.81513e-11
-4.49498e-18
-5.81509e-11
-2.15587e-17
-1.9729e-10
-3.28524e-17
-3.45022e-10
-3.82682e-17
-4.89448e-10
-3.95906e-17
-6.2239e-10
-3.75432e-17
-7.38424e-10
-3.35899e-17
-8.33995e-10
-2.92588e-17
-9.06914e-10
-2.54008e-17
-9.55978e-10
-2.21137e-17
-9.80616e-10
-1.95017e-17
-9.80616e-10
-1.7583e-17
-9.55978e-10
-1.642e-17
-9.06914e-10
-1.62633e-17
-8.33995e-10
-1.74452e-17
-7.38424e-10
-1.96951e-17
-6.2239e-10
-2.14094e-17
-4.89448e-10
-2.05494e-17
-3.45022e-10
-1.6034e-17
-1.97291e-10
-5.81513e-11
5.40513e-18
-5.81509e-11
-4.55157e-18
-1.9729e-10
-1.33965e-17
-3.45022e-10
-1.89665e-17
-4.89448e-10
-2.06055e-17
-6.2239e-10
-1.9873e-17
-7.38424e-10
-1.71963e-17
-8.33995e-10
-1.38366e-17
-9.06914e-10
-1.05634e-17
-9.55978e-10
-7.30361e-18
-9.80616e-10
-3.91927e-18
-9.80616e-10
-2.83675e-19
-9.55978e-10
3.62856e-18
-9.06914e-10
7.65573e-18
-8.33995e-10
1.16238e-17
-7.38424e-10
1.58991e-17
-6.2239e-10
2.15668e-17
-4.89448e-10
2.88274e-17
-3.45022e-10
3.01317e-17
-1.97291e-10
-5.81513e-11
5.10394e-18
-5.81509e-11
3.66308e-18
-1.9729e-10
9.99898e-20
-3.45022e-10
-2.92511e-18
-4.89448e-10
-3.86508e-18
-6.2239e-10
-3.87328e-18
-7.38424e-10
-2.42266e-18
-8.33995e-10
-1.90616e-19
-9.06914e-10
2.52596e-18
-9.55978e-10
5.80237e-18
-9.80616e-10
9.82913e-18
-9.80616e-10
1.47559e-17
-9.55978e-10
2.06131e-17
-9.06914e-10
2.7246e-17
-8.33995e-10
3.44269e-17
-7.38424e-10
4.19806e-17
-6.2239e-10
4.94212e-17
-4.89448e-10
5.43884e-17
-3.45022e-10
4.39263e-17
-1.97291e-10
-5.81512e-11
4.71391e-19
-5.81509e-11
7.918e-18
-1.9729e-10
1.13789e-17
-3.45022e-10
1.14884e-17
-4.89448e-10
9.87151e-18
-6.2239e-10
9.51612e-18
-7.38424e-10
1.01385e-17
-8.33995e-10
1.13655e-17
-9.06914e-10
1.35124e-17
-9.55978e-10
1.67127e-17
-9.80616e-10
2.10558e-17
-9.80616e-10
2.66086e-17
-9.55978e-10
3.33148e-17
-9.06914e-10
4.09563e-17
-8.33995e-10
4.91951e-17
-7.38424e-10
5.72216e-17
-6.2239e-10
6.3008e-17
-4.89448e-10
6.27529e-17
-3.45022e-10
4.64558e-17
-1.97291e-10
-5.81512e-11
-5.72466e-19
-5.81509e-11
1.44099e-17
-1.9729e-10
2.33735e-17
-3.45022e-10
2.39212e-17
-4.89448e-10
2.22793e-17
-6.2239e-10
2.10737e-17
-7.38424e-10
2.04252e-17
-8.33995e-10
2.07203e-17
-9.06914e-10
2.23515e-17
-9.55978e-10
2.53335e-17
-9.80616e-10
2.96343e-17
-9.80616e-10
3.52076e-17
-9.55978e-10
4.18569e-17
-9.06914e-10
4.92278e-17
-8.33995e-10
5.68438e-17
-7.38424e-10
6.34003e-17
-6.2239e-10
6.59879e-17
-4.89448e-10
6.02275e-17
-3.45022e-10
4.03467e-17
-1.97291e-10
-5.81512e-11
7.5075e-18
-5.81509e-11
2.80484e-17
-1.9729e-10
3.56821e-17
-3.45022e-10
3.54064e-17
-4.89448e-10
3.27996e-17
-6.2239e-10
2.99537e-17
-7.38424e-10
2.81779e-17
-8.33995e-10
2.78261e-17
-9.06914e-10
2.90392e-17
-9.55978e-10
3.17146e-17
-9.80616e-10
3.57528e-17
-9.80616e-10
4.10231e-17
-9.55978e-10
4.71882e-17
-9.06914e-10
5.37197e-17
-8.33995e-10
5.99763e-17
-7.38424e-10
6.44146e-17
-6.2239e-10
6.3882e-17
-4.89448e-10
5.45202e-17
-3.45022e-10
3.33838e-17
-1.97291e-10
-5.81511e-11
4.59582e-17
-5.8151e-11
4.94676e-17
-1.9729e-10
4.76817e-17
-3.45022e-10
4.38588e-17
-4.89448e-10
3.95775e-17
-6.2239e-10
3.56889e-17
-7.38424e-10
3.32985e-17
-8.33995e-10
3.26059e-17
-9.06914e-10
3.35328e-17
-9.55978e-10
3.59339e-17
-9.80616e-10
3.96921e-17
-9.80616e-10
4.46347e-17
-9.55978e-10
5.03306e-17
-9.06914e-10
5.61091e-17
-8.33995e-10
6.11825e-17
-7.38424e-10
6.40387e-17
-6.2239e-10
6.17845e-17
-4.89448e-10
5.16699e-17
-3.45022e-10
3.14112e-17
-1.97291e-10
-5.81511e-11
5.69867e-17
-5.8151e-11
5.24973e-17
-1.9729e-10
4.72243e-17
-3.45022e-10
4.3995e-17
-4.89448e-10
4.06418e-17
-6.2239e-10
3.76098e-17
-7.38424e-10
3.54126e-17
-8.33995e-10
3.47862e-17
-9.06914e-10
3.5678e-17
-9.55978e-10
3.79815e-17
-9.80616e-10
4.1601e-17
-9.80616e-10
4.6355e-17
-9.55978e-10
5.17795e-17
-9.06914e-10
5.71383e-17
-8.33995e-10
6.15507e-17
-7.38424e-10
6.36806e-17
-6.2239e-10
6.12162e-17
-4.89448e-10
5.24594e-17
-3.45022e-10
3.46577e-17
-1.97291e-10
-5.81511e-11
1.6439e-17
-5.81511e-11
3.01758e-17
-1.9729e-10
3.44423e-17
-3.45022e-10
3.60101e-17
-4.89448e-10
3.57586e-17
-6.2239e-10
3.4935e-17
-7.38424e-10
3.40469e-17
-8.33995e-10
3.40744e-17
-9.06914e-10
3.5284e-17
-9.55978e-10
3.77486e-17
-9.80616e-10
4.14333e-17
-9.80616e-10
4.61564e-17
-9.55978e-10
5.14577e-17
-9.06914e-10
5.65956e-17
-8.33995e-10
6.06283e-17
-7.38424e-10
6.23244e-17
-6.2239e-10
5.99103e-17
-4.89448e-10
5.25868e-17
-3.45022e-10
3.68968e-17
-1.9729e-10
-5.8151e-11
-5.63079e-18
-5.81511e-11
7.4096e-18
-1.97291e-10
1.9945e-17
-3.45022e-10
2.57593e-17
-4.89448e-10
2.81691e-17
-6.2239e-10
2.92292e-17
-7.38424e-10
2.9792e-17
-8.33995e-10
3.06743e-17
-9.06914e-10
3.24189e-17
-9.55978e-10
3.52522e-17
-9.80616e-10
3.91731e-17
-9.80616e-10
4.39695e-17
-9.55978e-10
4.91871e-17
-9.06914e-10
5.41004e-17
-8.33995e-10
5.76997e-17
-7.38424e-10
5.86855e-17
-6.2239e-10
5.54751e-17
-4.89448e-10
4.75645e-17
-3.45022e-10
3.21926e-17
-1.9729e-10
-5.8151e-11
-1.38343e-17
-5.8151e-11
-4.15255e-18
-1.97291e-10
7.7854e-18
-3.45022e-10
1.59612e-17
-4.89448e-10
2.01166e-17
-6.2239e-10
2.22448e-17
-7.38424e-10
2.36684e-17
-8.33995e-10
2.52561e-17
-9.06914e-10
2.75811e-17
-9.55978e-10
3.08881e-17
-9.80616e-10
3.51331e-17
-9.80616e-10
4.00346e-17
-9.55978e-10
4.51478e-17
-9.06914e-10
4.97922e-17
-8.33995e-10
5.29196e-17
-7.38424e-10
5.3083e-17
-6.2239e-10
4.86454e-17
-4.89448e-10
3.81627e-17
-3.45022e-10
2.12039e-17
-1.9729e-10
-5.8151e-11
-1.14771e-17
-5.8151e-11
-1.33559e-18
-1.97291e-10
6.2742e-18
-3.45022e-10
1.14948e-17
-4.89448e-10
1.3911e-17
-6.2239e-10
1.53799e-17
-7.38424e-10
1.68505e-17
-8.33995e-10
1.883e-17
-9.06914e-10
2.16582e-17
-9.55978e-10
2.54311e-17
-9.80616e-10
2.99734e-17
-9.80616e-10
3.49247e-17
-9.55978e-10
3.9892e-17
-9.06914e-10
4.43321e-17
-8.33995e-10
4.72957e-17
-7.38424e-10
4.72977e-17
-6.2239e-10
4.27329e-17
-4.89448e-10
3.04236e-17
-3.45022e-10
1.15967e-17
-1.9729e-10
-5.8151e-11
1.0645e-17
-5.8151e-11
1.73409e-17
-1.97291e-10
1.70154e-17
-3.45022e-10
1.2979e-17
-4.89448e-10
1.02815e-17
-6.2239e-10
9.46587e-18
-7.38424e-10
1.02744e-17
-8.33995e-10
1.23386e-17
-9.06914e-10
1.55254e-17
-9.55978e-10
1.96444e-17
-9.80616e-10
2.43311e-17
-9.80616e-10
2.91866e-17
-9.55978e-10
3.39437e-17
-9.06914e-10
3.83194e-17
-8.33995e-10
4.16717e-17
-7.38424e-10
4.27535e-17
-6.2239e-10
4.01301e-17
-4.89448e-10
2.96022e-17
-3.45022e-10
1.22108e-17
-1.9729e-10
-5.81509e-11
3.39092e-17
-5.81511e-11
3.68719e-17
-1.97291e-10
2.73023e-17
-3.45022e-10
1.46902e-17
-4.89448e-10
6.93001e-18
-6.2239e-10
3.92245e-18
-7.38424e-10
4.04868e-18
-8.33995e-10
6.10661e-18
-9.06914e-10
9.51596e-18
-9.55978e-10
1.37874e-17
-9.80616e-10
1.83958e-17
-9.80616e-10
2.29648e-17
-9.55978e-10
2.73913e-17
-9.06914e-10
3.1696e-17
-8.33995e-10
3.56944e-17
-7.38424e-10
3.87079e-17
-6.2239e-10
3.95338e-17
-4.89448e-10
3.4555e-17
-3.45022e-10
2.27794e-17
-1.9729e-10
-5.81509e-11
4.78039e-17
-5.81511e-11
4.41572e-17
-1.97291e-10
2.72656e-17
-3.45022e-10
1.04931e-17
-4.89448e-10
1.01597e-18
-6.2239e-10
-2.4592e-18
-7.38424e-10
-2.40923e-18
-8.33995e-10
-2.10312e-19
-9.06914e-10
3.33853e-18
-9.55978e-10
7.57661e-18
-9.80616e-10
1.19197e-17
-9.80616e-10
1.60447e-17
-9.55978e-10
1.99494e-17
-9.06914e-10
2.38265e-17
-8.33995e-10
2.78806e-17
-7.38424e-10
3.21806e-17
-6.2239e-10
3.59595e-17
-4.89448e-10
3.71995e-17
-3.45022e-10
3.18874e-17
-1.9729e-10
-5.81509e-11
3.91786e-17
-5.81512e-11
3.25644e-17
-1.97291e-10
1.376e-17
-3.45022e-10
-9.00376e-19
-4.89448e-10
-8.09613e-18
-6.2239e-10
-1.03637e-17
-7.38424e-10
-9.69027e-18
-8.33995e-10
-7.12238e-18
-9.06914e-10
-3.44036e-18
-9.55978e-10
6.87454e-19
-9.80616e-10
4.7329e-18
-9.80616e-10
8.38909e-18
-9.55978e-10
1.1582e-17
-9.06914e-10
1.44098e-17
-8.33995e-10
1.71521e-17
-7.38424e-10
2.03883e-17
-6.2239e-10
2.41338e-17
-4.89448e-10
2.77524e-17
-3.45022e-10
2.70383e-17
-1.9729e-10
-5.81509e-11
1.57249e-17
-5.81512e-11
6.06274e-18
-1.97291e-10
-8.38581e-18
-3.45022e-10
-1.65778e-17
-4.89448e-10
-1.94718e-17
-6.2239e-10
-1.9625e-17
-7.38424e-10
-1.78988e-17
-8.33995e-10
-1.47718e-17
-9.06914e-10
-1.08475e-17
-9.55978e-10
-6.69079e-18
-9.80616e-10
-2.74981e-18
-9.80616e-10
6.01756e-19
-9.55978e-10
3.04089e-18
-9.06914e-10
4.33015e-18
-8.33995e-10
4.46597e-18
-7.38424e-10
3.94005e-18
-6.2239e-10
3.4705e-18
-4.89448e-10
3.57983e-18
-3.45022e-10
4.0559e-18
-1.9729e-10
-5.81509e-11
-1.71717e-17
-5.81512e-11
-2.5161e-17
-1.97291e-10
-3.15341e-17
-3.45022e-10
-3.23607e-17
-4.89448e-10
-3.12397e-17
-6.2239e-10
-2.94024e-17
-7.38424e-10
-2.65667e-17
-8.33995e-10
-2.27531e-17
-9.06914e-10
-1.83602e-17
-9.55978e-10
-1.3841e-17
-9.80616e-10
-9.63627e-18
-9.80616e-10
-6.26226e-18
-9.55978e-10
-4.34635e-18
-9.06914e-10
-4.51277e-18
-8.33995e-10
-7.17781e-18
-7.38424e-10
-1.23764e-17
-6.2239e-10
-1.93024e-17
-4.89448e-10
-2.58825e-17
-3.45022e-10
-2.72096e-17
-1.9729e-10
-5.81509e-11
-3.90225e-17
-5.81511e-11
-4.74231e-17
-1.97291e-10
-4.78234e-17
-3.45022e-10
-4.45849e-17
-4.89448e-10
-4.15759e-17
-6.2239e-10
-3.86285e-17
-7.38424e-10
-3.4935e-17
-8.33995e-10
-3.03832e-17
-9.06914e-10
-2.52686e-17
-9.55978e-10
-2.00178e-17
-9.80616e-10
-1.51416e-17
-9.80616e-10
-1.1311e-17
-9.55978e-10
-9.36424e-18
-9.06914e-10
-1.01466e-17
-8.33995e-10
-1.43294e-17
-7.38424e-10
-2.24168e-17
-6.2239e-10
-3.40667e-17
-4.89448e-10
-4.58744e-17
-3.45022e-10
-4.75871e-17
-1.9729e-10
-5.81509e-11
-4.3372e-17
-5.81511e-11
-5.48607e-17
-1.9729e-10
-5.4699e-17
-3.45022e-10
-5.20202e-17
-4.89448e-10
-4.95298e-17
-6.2239e-10
-4.64974e-17
-7.38424e-10
-4.23472e-17
-8.33995e-10
-3.71079e-17
-9.06914e-10
-3.11112e-17
-9.55978e-10
-2.48573e-17
-9.80616e-10
-1.89669e-17
-9.80616e-10
-1.42024e-17
-9.55978e-10
-1.14384e-17
-9.06914e-10
-1.149e-17
-8.33995e-10
-1.49914e-17
-7.38424e-10
-2.24832e-17
-6.2239e-10
-3.38478e-17
-4.89448e-10
-4.55193e-17
-3.45022e-10
-4.66595e-17
-1.9729e-10
-5.8151e-11
-3.57809e-17
-5.8151e-11
-5.14021e-17
-1.9729e-10
-5.48761e-17
-3.45022e-10
-5.56792e-17
-4.89448e-10
-5.51052e-17
-6.2239e-10
-5.27079e-17
-7.38424e-10
-4.84695e-17
-8.33995e-10
-4.26553e-17
-9.06914e-10
-3.57412e-17
-9.55978e-10
-2.83662e-17
-9.80616e-10
-2.12487e-17
-9.80616e-10
-1.51547e-17
-9.55978e-10
-1.0847e-17
-9.06914e-10
-8.93412e-18
-8.33995e-10
-9.77115e-18
-7.38424e-10
-1.35287e-17
-6.2239e-10
-1.9764e-17
-4.89448e-10
-2.58764e-17
-3.45022e-10
-2.53528e-17
-1.9729e-10
-5.8151e-11
-2.75017e-17
-5.8151e-11
-4.61814e-17
-1.9729e-10
-5.33133e-17
-3.45022e-10
-5.77027e-17
-4.89448e-10
-5.90503e-17
-6.2239e-10
-5.74428e-17
-7.38424e-10
-5.32475e-17
-8.33995e-10
-4.69316e-17
-9.06915e-10
-3.91588e-17
-9.55978e-10
-3.07105e-17
-9.80616e-10
-2.23494e-17
-9.80616e-10
-1.47784e-17
-9.55978e-10
-8.60917e-18
-9.06914e-10
-4.22177e-18
-8.33995e-10
-1.60213e-18
-7.38424e-10
-4.48948e-19
-6.2239e-10
-1.97102e-20
-4.89448e-10
1.46794e-18
-3.45022e-10
5.29263e-18
-1.9729e-10
-5.8151e-11
-2.5232e-17
-5.8151e-11
-4.44944e-17
-1.9729e-10
-5.33262e-17
-3.45022e-10
-5.9829e-17
-4.89448e-10
-6.22441e-17
-6.2239e-10
-6.10406e-17
-7.38424e-10
-5.67278e-17
-8.33995e-10
-4.99088e-17
-9.06915e-10
-4.14034e-17
-9.55979e-10
-3.20743e-17
-9.80616e-10
-2.26682e-17
-9.80616e-10
-1.38174e-17
-9.55979e-10
-6.05642e-18
-9.06915e-10
3.52225e-19
-8.33995e-10
5.69106e-18
-7.38424e-10
1.05384e-17
-6.2239e-10
1.5449e-17
-4.89448e-10
2.18141e-17
-3.45022e-10
2.58463e-17
-1.9729e-10
-5.8151e-11
-2.61215e-17
-5.8151e-11
-4.45003e-17
-1.9729e-10
-5.49704e-17
-3.45022e-10
-6.24101e-17
-4.89448e-10
-6.49892e-17
-6.2239e-10
-6.3619e-17
-7.38424e-10
-5.89135e-17
-8.33995e-10
-5.15841e-17
-9.06915e-10
-4.2537e-17
-9.55979e-10
-3.2624e-17
-9.80616e-10
-2.25431e-17
-9.80616e-10
-1.29097e-17
-9.55979e-10
-4.28388e-18
-9.06915e-10
3.05082e-18
-8.33995e-10
9.37098e-18
-7.38424e-10
1.51799e-17
-6.2239e-10
2.0535e-17
-4.89448e-10
2.61617e-17
-3.45022e-10
2.71413e-17
-1.9729e-10
-5.81509e-11
-2.4551e-17
-5.81509e-11
-4.19614e-17
-1.9729e-10
-5.69581e-17
-3.45022e-10
-6.46271e-17
-4.89448e-10
-6.68123e-17
-6.2239e-10
-6.4902e-17
-7.38424e-10
-5.96684e-17
-8.33995e-10
-5.19492e-17
-9.06915e-10
-4.26498e-17
-9.55979e-10
-3.25318e-17
-9.80616e-10
-2.22523e-17
-9.80616e-10
-1.24724e-17
-9.55979e-10
-3.80013e-18
-9.06915e-10
3.40681e-18
-8.33995e-10
9.13735e-18
-7.38424e-10
1.35174e-17
-6.2239e-10
1.63275e-17
-4.89448e-10
1.6935e-17
-3.45022e-10
1.35427e-17
-1.9729e-10
-5.81509e-11
-2.02964e-17
-5.81509e-11
-4.36567e-17
-1.9729e-10
-5.78106e-17
-3.45022e-10
-6.50565e-17
-4.89448e-10
-6.67254e-17
-6.2239e-10
-6.42802e-17
-7.38424e-10
-5.87283e-17
-8.33995e-10
-5.0987e-17
-9.06915e-10
-4.18493e-17
-9.55979e-10
-3.19593e-17
-9.80616e-10
-2.19759e-17
-9.80616e-10
-1.26137e-17
-9.55979e-10
-4.44937e-18
-9.06915e-10
2.14589e-18
-8.33995e-10
6.80632e-18
-7.38424e-10
9.24903e-18
-6.2239e-10
9.40613e-18
-4.89448e-10
5.3835e-18
-3.45022e-10
-1.64428e-18
-1.9729e-10
-5.81509e-11
-1.36393e-17
-5.81509e-11
-3.3754e-17
-1.9729e-10
-5.32632e-17
-3.45022e-10
-6.17075e-17
-4.89448e-10
-6.36014e-17
-6.2239e-10
-6.12086e-17
-7.38424e-10
-5.59373e-17
-8.33995e-10
-4.87237e-17
-9.06915e-10
-4.0201e-17
-9.55979e-10
-3.09507e-17
-9.80616e-10
-2.16745e-17
-9.80616e-10
-1.30869e-17
-9.55979e-10
-5.64431e-18
-9.06915e-10
3.65763e-19
-8.33995e-10
4.42802e-18
-7.38424e-10
6.14611e-18
-6.2239e-10
5.81751e-18
-4.89448e-10
1.48336e-18
-3.45022e-10
-5.44225e-18
-1.9729e-10
-5.81509e-11
-1.37156e-17
-5.81509e-11
-3.25377e-17
-1.9729e-10
-4.92188e-17
-3.45022e-10
-5.67618e-17
-4.89448e-10