/*--------------------------------*- C++ -*----------------------------------*\
| =========                 |                                                 |
| \\      /  F ield         | OpenFOAM: The Open Source CFD Toolbox           |
|  \\    /   O peration     | Version:  5.x                                   |
|   \\  /    A nd           | Web:      www.OpenFOAM.org                      |
|    \\/     M anipulation  |                                                 |
\*---------------------------------------------------------------------------*/
FoamFile
{
    version     2.0;
    format      ascii;
    class       volScalarField;
    location    "0.2";
    object      p;
}
// * * * * * * * * * * * * * * * * * * * * * * * * * * * * * * * * * * * * * //

dimensions      [1 -1 -2 0 0 0 0];

internalField   nonuniform List<scalar> 
8000
(
-0.258968
-0.258968
-0.258968
-0.258968
-0.258968
-0.258968
-0.258968
-0.258968
-0.258968
-0.258967
-0.258967
-0.258967
-0.258967
-0.258967
-0.258967
-0.258967
-0.258967
-0.258967
-0.258967
-0.258968
-0.776903
-0.776903
-0.776903
-0.776903
-0.776903
-0.776903
-0.776903
-0.776903
-0.776903
-0.776903
-0.776903
-0.776902
-0.776902
-0.776902
-0.776902
-0.776902
-0.776902
-0.776902
-0.776902
-0.776902
-1.29484
-1.29484
-1.29484
-1.29484
-1.29484
-1.29484
-1.29484
-1.29484
-1.29484
-1.29484
-1.29484
-1.29484
-1.29484
-1.29484
-1.29484
-1.29484
-1.29484
-1.29484
-1.29484
-1.29484
-1.81277
-1.81277
-1.81277
-1.81277
-1.81277
-1.81277
-1.81277
-1.81277
-1.81277
-1.81277
-1.81277
-1.81277
-1.81277
-1.81277
-1.81277
-1.81277
-1.81277
-1.81277
-1.81277
-1.81277
-2.33071
-2.33071
-2.33071
-2.33071
-2.33071
-2.33071
-2.33071
-2.33071
-2.33071
-2.33071
-2.33071
-2.33071
-2.33071
-2.33071
-2.33071
-2.33071
-2.33071
-2.33071
-2.33071
-2.33071
-2.84865
-2.84865
-2.84865
-2.84865
-2.84865
-2.84865
-2.84865
-2.84864
-2.84864
-2.84864
-2.84864
-2.84864
-2.84864
-2.84864
-2.84864
-2.84864
-2.84864
-2.84864
-2.84864
-2.84864
-3.36658
-3.36658
-3.36658
-3.36658
-3.36658
-3.36658
-3.36658
-3.36658
-3.36658
-3.36658
-3.36658
-3.36658
-3.36658
-3.36658
-3.36658
-3.36658
-3.36658
-3.36658
-3.36658
-3.36658
-3.88452
-3.88452
-3.88452
-3.88452
-3.88452
-3.88452
-3.88452
-3.88452
-3.88452
-3.88451
-3.88451
-3.88451
-3.88451
-3.88451
-3.88451
-3.88451
-3.88451
-3.88451
-3.88451
-3.88451
-4.40245
-4.40245
-4.40245
-4.40245
-4.40245
-4.40245
-4.40245
-4.40245
-4.40245
-4.40245
-4.40245
-4.40245
-4.40245
-4.40245
-4.40245
-4.40245
-4.40245
-4.40245
-4.40245
-4.40245
-4.92039
-4.92039
-4.92039
-4.92039
-4.92039
-4.92039
-4.92039
-4.92039
-4.92039
-4.92039
-4.92038
-4.92038
-4.92038
-4.92038
-4.92038
-4.92038
-4.92038
-4.92038
-4.92038
-4.92038
-5.43832
-5.43832
-5.43832
-5.43832
-5.43832
-5.43832
-5.43832
-5.43832
-5.43832
-5.43832
-5.43832
-5.43832
-5.43832
-5.43832
-5.43832
-5.43832
-5.43832
-5.43832
-5.43832
-5.43832
-5.95626
-5.95626
-5.95626
-5.95626
-5.95626
-5.95626
-5.95626
-5.95626
-5.95626
-5.95626
-5.95626
-5.95626
-5.95626
-5.95626
-5.95626
-5.95626
-5.95625
-5.95625
-5.95625
-5.95625
-6.47419
-6.47419
-6.47419
-6.47419
-6.47419
-6.47419
-6.47419
-6.47419
-6.47419
-6.47419
-6.47419
-6.47419
-6.47419
-6.47419
-6.47419
-6.47419
-6.47419
-6.47419
-6.47419
-6.47419
-6.99212
-6.99213
-6.99213
-6.99213
-6.99213
-6.99213
-6.99213
-6.99213
-6.99213
-6.99213
-6.99213
-6.99213
-6.99213
-6.99213
-6.99213
-6.99212
-6.99212
-6.99212
-6.99212
-6.99212
-7.51006
-7.51006
-7.51006
-7.51006
-7.51006
-7.51006
-7.51006
-7.51006
-7.51006
-7.51006
-7.51006
-7.51006
-7.51006
-7.51006
-7.51006
-7.51006
-7.51006
-7.51006
-7.51006
-7.51006
-8.02799
-8.028
-8.028
-8.028
-8.028
-8.02799
-8.02799
-8.02799
-8.02799
-8.02799
-8.02799
-8.02799
-8.02799
-8.02799
-8.02799
-8.02799
-8.02799
-8.02799
-8.02799
-8.02799
-8.54593
-8.54593
-8.54593
-8.54593
-8.54593
-8.54593
-8.54593
-8.54593
-8.54593
-8.54593
-8.54593
-8.54593
-8.54593
-8.54593
-8.54593
-8.54593
-8.54593
-8.54593
-8.54593
-8.54593
-9.06387
-9.06387
-9.06387
-9.06387
-9.06386
-9.06386
-9.06386
-9.06386
-9.06386
-9.06386
-9.06386
-9.06386
-9.06386
-9.06386
-9.06386
-9.06386
-9.06386
-9.06386
-9.06386
-9.06386
-9.5818
-9.5818
-9.5818
-9.5818
-9.5818
-9.5818
-9.5818
-9.5818
-9.5818
-9.5818
-9.5818
-9.5818
-9.5818
-9.5818
-9.5818
-9.5818
-9.58179
-9.58179
-9.58179
-9.58179
-10.0997
-10.0997
-10.0997
-10.0997
-10.0997
-10.0997
-10.0997
-10.0997
-10.0997
-10.0997
-10.0997
-10.0997
-10.0997
-10.0997
-10.0997
-10.0997
-10.0997
-10.0997
-10.0997
-10.0997
-10.6177
-10.6177
-10.6177
-10.6177
-10.6177
-10.6177
-10.6177
-10.6177
-10.6177
-10.6177
-10.6177
-10.6177
-10.6177
-10.6177
-10.6177
-10.6177
-10.6177
-10.6177
-10.6177
-10.6177
-11.1356
-11.1356
-11.1356
-11.1356
-11.1356
-11.1356
-11.1356
-11.1356
-11.1356
-11.1356
-11.1356
-11.1356
-11.1356
-11.1356
-11.1356
-11.1356
-11.1356
-11.1356
-11.1356
-11.1356
-11.6535
-11.6535
-11.6535
-11.6535
-11.6535
-11.6535
-11.6535
-11.6535
-11.6535
-11.6535
-11.6535
-11.6535
-11.6535
-11.6535
-11.6535
-11.6535
-11.6535
-11.6535
-11.6535
-11.6535
-12.1715
-12.1715
-12.1715
-12.1715
-12.1715
-12.1715
-12.1715
-12.1715
-12.1715
-12.1715
-12.1715
-12.1715
-12.1715
-12.1715
-12.1715
-12.1715
-12.1715
-12.1715
-12.1715
-12.1715
-12.6894
-12.6894
-12.6894
-12.6894
-12.6894
-12.6894
-12.6894
-12.6894
-12.6894
-12.6894
-12.6894
-12.6894
-12.6894
-12.6894
-12.6894
-12.6894
-12.6894
-12.6894
-12.6894
-12.6894
-13.2073
-13.2073
-13.2073
-13.2073
-13.2073
-13.2073
-13.2073
-13.2073
-13.2073
-13.2073
-13.2073
-13.2073
-13.2073
-13.2073
-13.2073
-13.2073
-13.2073
-13.2073
-13.2073
-13.2073
-13.7253
-13.7253
-13.7253
-13.7253
-13.7253
-13.7253
-13.7253
-13.7253
-13.7253
-13.7253
-13.7253
-13.7253
-13.7253
-13.7253
-13.7253
-13.7253
-13.7253
-13.7253
-13.7253
-13.7253
-14.2432
-14.2432
-14.2432
-14.2432
-14.2432
-14.2432
-14.2432
-14.2432
-14.2432
-14.2432
-14.2432
-14.2432
-14.2432
-14.2432
-14.2432
-14.2432
-14.2432
-14.2432
-14.2432
-14.2432
-14.7611
-14.7611
-14.7611
-14.7611
-14.7611
-14.7611
-14.7611
-14.7611
-14.7611
-14.7611
-14.7611
-14.7611
-14.7611
-14.7611
-14.7611
-14.7611
-14.7611
-14.7611
-14.7611
-14.7611
-15.2791
-15.2791
-15.2791
-15.2791
-15.2791
-15.2791
-15.2791
-15.2791
-15.2791
-15.2791
-15.2791
-15.2791
-15.2791
-15.2791
-15.2791
-15.2791
-15.2791
-15.2791
-15.2791
-15.2791
-15.797
-15.797
-15.797
-15.797
-15.797
-15.797
-15.797
-15.797
-15.797
-15.797
-15.797
-15.797
-15.797
-15.797
-15.797
-15.797
-15.797
-15.797
-15.797
-15.797
-16.3149
-16.3149
-16.3149
-16.3149
-16.3149
-16.3149
-16.3149
-16.3149
-16.3149
-16.3149
-16.3149
-16.315
-16.315
-16.315
-16.315
-16.315
-16.315
-16.315
-16.315
-16.315
-16.8329
-16.8329
-16.8329
-16.8329
-16.8329
-16.8329
-16.8329
-16.8329
-16.8329
-16.8329
-16.8329
-16.8329
-16.8329
-16.8329
-16.8329
-16.8329
-16.8329
-16.8329
-16.8329
-16.8329
-17.3508
-17.3508
-17.3508
-17.3508
-17.3508
-17.3508
-17.3508
-17.3508
-17.3508
-17.3508
-17.3508
-17.3508
-17.3508
-17.3508
-17.3508
-17.3508
-17.3508
-17.3508
-17.3508
-17.3508
-17.8688
-17.8688
-17.8688
-17.8688
-17.8688
-17.8688
-17.8688
-17.8688
-17.8688
-17.8688
-17.8688
-17.8688
-17.8688
-17.8688
-17.8688
-17.8688
-17.8688
-17.8688
-17.8688
-17.8688
-18.3867
-18.3867
-18.3867
-18.3867
-18.3867
-18.3867
-18.3867
-18.3867
-18.3867
-18.3867
-18.3867
-18.3867
-18.3867
-18.3867
-18.3867
-18.3867
-18.3867
-18.3867
-18.3867
-18.3867
-18.9046
-18.9046
-18.9046
-18.9046
-18.9046
-18.9046
-18.9046
-18.9046
-18.9046
-18.9046
-18.9046
-18.9046
-18.9046
-18.9046
-18.9046
-18.9046
-18.9046
-18.9046
-18.9046
-18.9046
-19.4226
-19.4226
-19.4226
-19.4226
-19.4226
-19.4226
-19.4226
-19.4226
-19.4226
-19.4226
-19.4226
-19.4226
-19.4226
-19.4226
-19.4226
-19.4226
-19.4226
-19.4226
-19.4226
-19.4226
-19.9405
-19.9405
-19.9405
-19.9405
-19.9405
-19.9405
-19.9405
-19.9405
-19.9405
-19.9405
-19.9405
-19.9405
-19.9405
-19.9405
-19.9405
-19.9405
-19.9405
-19.9405
-19.9405
-19.9405
-20.4584
-20.4584
-20.4584
-20.4584
-20.4584
-20.4584
-20.4584
-20.4584
-20.4584
-20.4584
-20.4584
-20.4584
-20.4584
-20.4584
-20.4584
-20.4584
-20.4584
-20.4584
-20.4584
-20.4584
-20.9764
-20.9764
-20.9764
-20.9764
-20.9764
-20.9764
-20.9764
-20.9764
-20.9764
-20.9764
-20.9764
-20.9764
-20.9764
-20.9764
-20.9764
-20.9764
-20.9764
-20.9764
-20.9764
-20.9764
-21.4943
-21.4943
-21.4943
-21.4943
-21.4943
-21.4943
-21.4943
-21.4943
-21.4943
-21.4943
-21.4943
-21.4943
-21.4943
-21.4943
-21.4943
-21.4943
-21.4943
-21.4943
-21.4943
-21.4943
-22.0122
-22.0122
-22.0122
-22.0122
-22.0122
-22.0122
-22.0122
-22.0122
-22.0122
-22.0122
-22.0122
-22.0122
-22.0122
-22.0122
-22.0122
-22.0122
-22.0122
-22.0122
-22.0122
-22.0122
-22.5302
-22.5302
-22.5302
-22.5302
-22.5302
-22.5302
-22.5302
-22.5302
-22.5302
-22.5302
-22.5302
-22.5302
-22.5302
-22.5302
-22.5302
-22.5302
-22.5302
-22.5302
-22.5302
-22.5302
-23.0481
-23.0481
-23.0481
-23.0481
-23.0481
-23.0481
-23.0481
-23.0481
-23.0481
-23.0481
-23.0481
-23.0481
-23.0481
-23.0481
-23.0481
-23.0481
-23.0481
-23.0481
-23.0481
-23.0481
-23.566
-23.566
-23.566
-23.566
-23.566
-23.566
-23.566
-23.566
-23.566
-23.566
-23.566
-23.566
-23.566
-23.566
-23.566
-23.566
-23.566
-23.566
-23.566
-23.566
-24.084
-24.084
-24.084
-24.084
-24.084
-24.084
-24.084
-24.084
-24.084
-24.084
-24.084
-24.084
-24.084
-24.084
-24.084
-24.084
-24.084
-24.084
-24.084
-24.084
-24.6019
-24.6019
-24.6019
-24.6019
-24.6019
-24.6019
-24.6019
-24.6019
-24.6019
-24.6019
-24.6019
-24.6019
-24.6019
-24.6019
-24.6019
-24.6019
-24.6019
-24.6019
-24.6019
-24.6019
-25.1198
-25.1198
-25.1198
-25.1198
-25.1198
-25.1198
-25.1198
-25.1198
-25.1198
-25.1198
-25.1198
-25.1198
-25.1198
-25.1198
-25.1198
-25.1198
-25.1198
-25.1198
-25.1198
-25.1198
-25.6378
-25.6378
-25.6378
-25.6378
-25.6378
-25.6378
-25.6378
-25.6378
-25.6378
-25.6378
-25.6378
-25.6378
-25.6378
-25.6378
-25.6378
-25.6378
-25.6378
-25.6378
-25.6378
-25.6378
-26.1557
-26.1557
-26.1557
-26.1557
-26.1557
-26.1557
-26.1557
-26.1557
-26.1557
-26.1557
-26.1557
-26.1557
-26.1557
-26.1557
-26.1557
-26.1557
-26.1557
-26.1557
-26.1557
-26.1557
-26.6736
-26.6736
-26.6736
-26.6736
-26.6736
-26.6736
-26.6736
-26.6736
-26.6736
-26.6736
-26.6736
-26.6736
-26.6736
-26.6736
-26.6736
-26.6736
-26.6736
-26.6736
-26.6736
-26.6736
-27.1916
-27.1916
-27.1916
-27.1916
-27.1916
-27.1916
-27.1916
-27.1916
-27.1916
-27.1916
-27.1916
-27.1916
-27.1916
-27.1916
-27.1916
-27.1916
-27.1916
-27.1916
-27.1916
-27.1916
-27.7095
-27.7095
-27.7095
-27.7095
-27.7095
-27.7095
-27.7095
-27.7095
-27.7095
-27.7095
-27.7095
-27.7095
-27.7095
-27.7095
-27.7095
-27.7095
-27.7095
-27.7095
-27.7095
-27.7095
-28.2274
-28.2274
-28.2274
-28.2274
-28.2274
-28.2274
-28.2274
-28.2274
-28.2274
-28.2274
-28.2274
-28.2274
-28.2274
-28.2274
-28.2274
-28.2274
-28.2274
-28.2274
-28.2274
-28.2274
-28.7454
-28.7454
-28.7454
-28.7454
-28.7454
-28.7454
-28.7454
-28.7454
-28.7454
-28.7454
-28.7454
-28.7454
-28.7454
-28.7454
-28.7454
-28.7454
-28.7454
-28.7454
-28.7454
-28.7454
-29.2633
-29.2633
-29.2633
-29.2633
-29.2633
-29.2633
-29.2633
-29.2633
-29.2633
-29.2633
-29.2633
-29.2633
-29.2633
-29.2633
-29.2633
-29.2633
-29.2633
-29.2633
-29.2633
-29.2633
-29.7813
-29.7813
-29.7813
-29.7813
-29.7813
-29.7813
-29.7813
-29.7813
-29.7813
-29.7813
-29.7813
-29.7813
-29.7813
-29.7813
-29.7813
-29.7813
-29.7813
-29.7813
-29.7813
-29.7813
-30.2992
-30.2992
-30.2992
-30.2992
-30.2992
-30.2992
-30.2992
-30.2992
-30.2992
-30.2992
-30.2992
-30.2992
-30.2992
-30.2992
-30.2992
-30.2992
-30.2992
-30.2992
-30.2992
-30.2992
-30.8171
-30.8171
-30.8171
-30.8171
-30.8171
-30.8171
-30.8171
-30.8171
-30.8171
-30.8171
-30.8171
-30.8171
-30.8171
-30.8171
-30.8171
-30.8171
-30.8171
-30.8171
-30.8171
-30.8171
-31.3351
-31.3351
-31.3351
-31.3351
-31.3351
-31.3351
-31.3351
-31.3351
-31.3351
-31.3351
-31.3351
-31.3351
-31.3351
-31.3351
-31.3351
-31.3351
-31.3351
-31.3351
-31.3351
-31.3351
-31.853
-31.853
-31.853
-31.853
-31.853
-31.853
-31.853
-31.853
-31.853
-31.853
-31.853
-31.853
-31.853
-31.853
-31.853
-31.853
-31.853
-31.853
-31.853
-31.853
-32.3709
-32.3709
-32.3709
-32.3709
-32.3709
-32.3709
-32.3709
-32.3709
-32.3709
-32.3709
-32.3709
-32.3709
-32.3709
-32.3709
-32.3709
-32.3709
-32.3709
-32.3709
-32.3709
-32.3709
-32.8889
-32.8889
-32.8889
-32.8889
-32.8889
-32.8889
-32.8889
-32.8889
-32.8889
-32.8889
-32.8889
-32.8889
-32.8889
-32.8889
-32.8889
-32.8889
-32.8889
-32.8889
-32.8889
-32.8889
-33.4068
-33.4068
-33.4068
-33.4068
-33.4068
-33.4068
-33.4068
-33.4068
-33.4068
-33.4068
-33.4068
-33.4068
-33.4068
-33.4068
-33.4068
-33.4068
-33.4068
-33.4068
-33.4068
-33.4068
-33.9247
-33.9247
-33.9247
-33.9247
-33.9247
-33.9247
-33.9247
-33.9247
-33.9247
-33.9247
-33.9247
-33.9247
-33.9247
-33.9247
-33.9247
-33.9247
-33.9247
-33.9247
-33.9247
-33.9247
-34.4427
-34.4427
-34.4427
-34.4427
-34.4427
-34.4427
-34.4427
-34.4427
-34.4427
-34.4427
-34.4427
-34.4427
-34.4427
-34.4427
-34.4427
-34.4427
-34.4427
-34.4427
-34.4427
-34.4427
-34.9606
-34.9606
-34.9606
-34.9606
-34.9606
-34.9606
-34.9606
-34.9606
-34.9606
-34.9606
-34.9606
-34.9606
-34.9606
-34.9606
-34.9606
-34.9606
-34.9606
-34.9606
-34.9606
-34.9606
-35.4785
-35.4785
-35.4785
-35.4785
-35.4785
-35.4785
-35.4785
-35.4785
-35.4785
-35.4785
-35.4785
-35.4785
-35.4785
-35.4785
-35.4785
-35.4785
-35.4785
-35.4785
-35.4785
-35.4785
-35.9965
-35.9965
-35.9965
-35.9965
-35.9965
-35.9965
-35.9965
-35.9965
-35.9965
-35.9965
-35.9965
-35.9965
-35.9965
-35.9965
-35.9965
-35.9965
-35.9965
-35.9965
-35.9965
-35.9965
-36.5144
-36.5144
-36.5144
-36.5144
-36.5144
-36.5144
-36.5144
-36.5144
-36.5144
-36.5144
-36.5144
-36.5144
-36.5144
-36.5144
-36.5144
-36.5144
-36.5144
-36.5144
-36.5144
-36.5144
-37.0323
-37.0323
-37.0323
-37.0323
-37.0323
-37.0323
-37.0323
-37.0323
-37.0323
-37.0323
-37.0323
-37.0323
-37.0323
-37.0323
-37.0323
-37.0323
-37.0323
-37.0323
-37.0323
-37.0323
-37.5503
-37.5503
-37.5503
-37.5503
-37.5503
-37.5503
-37.5503
-37.5503
-37.5503
-37.5503
-37.5503
-37.5503
-37.5503
-37.5503
-37.5503
-37.5503
-37.5503
-37.5503
-37.5503
-37.5503
-38.0682
-38.0682
-38.0682
-38.0682
-38.0682
-38.0682
-38.0682
-38.0682
-38.0682
-38.0682
-38.0682
-38.0682
-38.0682
-38.0682
-38.0682
-38.0682
-38.0682
-38.0682
-38.0682
-38.0682
-38.5861
-38.5861
-38.5861
-38.5861
-38.5861
-38.5861
-38.5861
-38.5861
-38.5861
-38.5861
-38.5861
-38.5861
-38.5861
-38.5861
-38.5861
-38.5861
-38.5861
-38.5861
-38.5861
-38.5861
-39.1041
-39.1041
-39.1041
-39.1041
-39.1041
-39.1041
-39.1041
-39.1041
-39.1041
-39.1041
-39.1041
-39.1041
-39.1041
-39.1041
-39.1041
-39.1041
-39.1041
-39.1041
-39.1041
-39.1041
-39.622
-39.622
-39.622
-39.622
-39.622
-39.622
-39.622
-39.622
-39.622
-39.622
-39.622
-39.622
-39.622
-39.622
-39.622
-39.622
-39.622
-39.622
-39.622
-39.622
-40.14
-40.14
-40.14
-40.14
-40.14
-40.1399
-40.1399
-40.1399
-40.1399
-40.1399
-40.1399
-40.1399
-40.1399
-40.1399
-40.1399
-40.1399
-40.1399
-40.1399
-40.1399
-40.1399
-40.6579
-40.6579
-40.6579
-40.6579
-40.6579
-40.6579
-40.6579
-40.6579
-40.6579
-40.6579
-40.6579
-40.6579
-40.6579
-40.6579
-40.6579
-40.6579
-40.6579
-40.6579
-40.6579
-40.6579
-41.1758
-41.1758
-41.1758
-41.1758
-41.1758
-41.1758
-41.1758
-41.1758
-41.1758
-41.1758
-41.1758
-41.1758
-41.1758
-41.1758
-41.1758
-41.1758
-41.1758
-41.1758
-41.1758
-41.1758
-41.6938
-41.6938
-41.6938
-41.6938
-41.6938
-41.6938
-41.6938
-41.6938
-41.6938
-41.6938
-41.6937
-41.6937
-41.6937
-41.6937
-41.6937
-41.6937
-41.6937
-41.6937
-41.6937
-41.6937
-42.2117
-42.2117
-42.2117
-42.2117
-42.2117
-42.2117
-42.2117
-42.2117
-42.2117
-42.2117
-42.2117
-42.2117
-42.2117
-42.2117
-42.2117
-42.2117
-42.2117
-42.2117
-42.2117
-42.2117
-42.7296
-42.7296
-42.7296
-42.7296
-42.7296
-42.7296
-42.7296
-42.7296
-42.7296
-42.7296
-42.7296
-42.7296
-42.7296
-42.7296
-42.7296
-42.7296
-42.7296
-42.7296
-42.7296
-42.7296
-43.2476
-43.2476
-43.2476
-43.2476
-43.2476
-43.2476
-43.2476
-43.2476
-43.2476
-43.2476
-43.2476
-43.2476
-43.2476
-43.2476
-43.2475
-43.2475
-43.2475
-43.2475
-43.2475
-43.2475
-43.7655
-43.7655
-43.7655
-43.7655
-43.7655
-43.7655
-43.7655
-43.7655
-43.7655
-43.7655
-43.7655
-43.7655
-43.7655
-43.7655
-43.7655
-43.7655
-43.7655
-43.7655
-43.7655
-43.7655
-44.2834
-44.2834
-44.2834
-44.2834
-44.2834
-44.2834
-44.2834
-44.2834
-44.2834
-44.2834
-44.2834
-44.2834
-44.2834
-44.2834
-44.2834
-44.2834
-44.2834
-44.2834
-44.2834
-44.2834
-44.8014
-44.8014
-44.8014
-44.8014
-44.8014
-44.8014
-44.8014
-44.8014
-44.8014
-44.8014
-44.8014
-44.8014
-44.8014
-44.8014
-44.8014
-44.8014
-44.8014
-44.8013
-44.8013
-44.8013
-45.3193
-45.3193
-45.3193
-45.3193
-45.3193
-45.3193
-45.3193
-45.3193
-45.3193
-45.3193
-45.3193
-45.3193
-45.3193
-45.3193
-45.3193
-45.3193
-45.3193
-45.3193
-45.3193
-45.3193
-45.8372
-45.8372
-45.8372
-45.8372
-45.8372
-45.8372
-45.8372
-45.8372
-45.8372
-45.8372
-45.8372
-45.8372
-45.8372
-45.8372
-45.8372
-45.8372
-45.8372
-45.8372
-45.8372
-45.8372
-46.3552
-46.3552
-46.3552
-46.3552
-46.3552
-46.3552
-46.3552
-46.3552
-46.3552
-46.3552
-46.3552
-46.3552
-46.3552
-46.3552
-46.3552
-46.3552
-46.3552
-46.3552
-46.3551
-46.3551
-46.8731
-46.8731
-46.8731
-46.8731
-46.8731
-46.8731
-46.8731
-46.8731
-46.8731
-46.8731
-46.8731
-46.8731
-46.8731
-46.8731
-46.8731
-46.8731
-46.8731
-46.8731
-46.8731
-46.8731
-47.3911
-47.3911
-47.3911
-47.3911
-47.391
-47.391
-47.391
-47.391
-47.391
-47.391
-47.391
-47.391
-47.391
-47.391
-47.391
-47.391
-47.391
-47.391
-47.391
-47.391
-47.909
-47.909
-47.909
-47.909
-47.909
-47.909
-47.909
-47.909
-47.909
-47.909
-47.909
-47.909
-47.909
-47.909
-47.909
-47.9089
-47.9089
-47.9089
-47.9089
-47.9089
-48.4269
-48.4269
-48.4269
-48.4269
-48.4269
-48.4269
-48.4269
-48.4269
-48.4269
-48.4269
-48.4269
-48.4269
-48.4269
-48.4269
-48.4269
-48.4269
-48.4269
-48.4269
-48.4269
-48.4269
-48.9449
-48.9449
-48.9449
-48.9449
-48.9449
-48.9449
-48.9449
-48.9448
-48.9448
-48.9448
-48.9448
-48.9448
-48.9448
-48.9448
-48.9448
-48.9448
-48.9448
-48.9448
-48.9448
-48.9448
-49.4628
-49.4628
-49.4628
-49.4628
-49.4628
-49.4628
-49.4628
-49.4628
-49.4628
-49.4628
-49.4628
-49.4628
-49.4628
-49.4628
-49.4627
-49.4627
-49.4627
-49.4627
-49.4627
-49.4627
-49.9808
-49.9808
-49.9807
-49.9807
-49.9807
-49.9807
-49.9807
-49.9807
-49.9807
-49.9807
-49.9807
-49.9807
-49.9807
-49.9807
-49.9807
-49.9807
-49.9807
-49.9807
-49.9807
-49.9807
-50.4987
-50.4987
-50.4987
-50.4987
-50.4987
-50.4987
-50.4987
-50.4987
-50.4987
-50.4986
-50.4986
-50.4986
-50.4986
-50.4986
-50.4986
-50.4986
-50.4986
-50.4986
-50.4986
-50.4986
-51.0166
-51.0166
-51.0166
-51.0166
-51.0166
-51.0166
-51.0166
-51.0166
-51.0166
-51.0166
-51.0166
-51.0166
-51.0166
-51.0165
-51.0165
-51.0165
-51.0165
-51.0165
-51.0165
-51.0165
-51.5346
-51.5346
-51.5346
-51.5346
-51.5346
-51.5346
-51.5345
-51.5345
-51.5345
-51.5345
-51.5345
-51.5345
-51.5345
-51.5345
-51.5345
-51.5345
-51.5344
-51.5344
-51.5344
-51.5344
-52.0525
-52.0525
-52.0525
-52.0525
-52.0525
-52.0525
-52.0525
-52.0525
-52.0525
-52.0525
-52.0524
-52.0524
-52.0524
-52.0524
-52.0524
-52.0524
-52.0524
-52.0524
-52.0524
-52.0524
-52.5705
-52.5705
-52.5705
-52.5705
-52.5705
-52.5704
-52.5704
-52.5704
-52.5704
-52.5704
-52.5704
-52.5704
-52.5703
-52.5703
-52.5703
-52.5703
-52.5703
-52.5703
-52.5703
-52.5703
-53.0884
-53.0884
-53.0884
-53.0884
-53.0884
-53.0884
-53.0884
-53.0884
-53.0883
-53.0883
-53.0883
-53.0883
-53.0883
-53.0883
-53.0882
-53.0882
-53.0882
-53.0882
-53.0882
-53.0882
-53.6064
-53.6064
-53.6064
-53.6064
-53.6064
-53.6063
-53.6063
-53.6063
-53.6063
-53.6063
-53.6062
-53.6062
-53.6062
-53.6062
-53.6062
-53.6061
-53.6061
-53.6061
-53.6061
-53.6061
-54.1243
-54.1243
-54.1243
-54.1243
-54.1243
-54.1243
-54.1243
-54.1242
-54.1242
-54.1242
-54.1242
-54.1241
-54.1241
-54.1241
-54.1241
-54.1241
-54.124
-54.124
-54.124
-54.124
-54.6423
-54.6423
-54.6423
-54.6423
-54.6423
-54.6422
-54.6422
-54.6422
-54.6422
-54.6421
-54.6421
-54.6421
-54.642
-54.642
-54.642
-54.642
-54.642
-54.6419
-54.6419
-54.6419
-55.1603
-55.1603
-55.1603
-55.1602
-55.1602
-55.1602
-55.1602
-55.1601
-55.1601
-55.1601
-55.16
-55.16
-55.16
-55.1599
-55.1599
-55.1599
-55.1599
-55.1599
-55.1598
-55.1598
-55.6782
-55.6782
-55.6782
-55.6782
-55.6782
-55.6782
-55.6781
-55.6781
-55.678
-55.678
-55.678
-55.6779
-55.6779
-55.6779
-55.6778
-55.6778
-55.6778
-55.6777
-55.6777
-55.6777
-56.1962
-56.1962
-56.1962
-56.1962
-56.1962
-56.1961
-56.1961
-56.196
-56.196
-56.1959
-56.1959
-56.1959
-56.1958
-56.1958
-56.1957
-56.1957
-56.1957
-56.1956
-56.1956
-56.1956
-56.7142
-56.7142
-56.7142
-56.7142
-56.7141
-56.7141
-56.714
-56.714
-56.7139
-56.7139
-56.7138
-56.7138
-56.7137
-56.7137
-56.7136
-56.7136
-56.7136
-56.7135
-56.7135
-56.7135
-57.2322
-57.2322
-57.2322
-57.2321
-57.2321
-57.2321
-57.232
-57.232
-57.2319
-57.2318
-57.2318
-57.2317
-57.2316
-57.2316
-57.2315
-57.2315
-57.2314
-57.2314
-57.2314
-57.2314
-57.7502
-57.7502
-57.7502
-57.7501
-57.7501
-57.75
-57.75
-57.7499
-57.7498
-57.7498
-57.7497
-57.7496
-57.7495
-57.7495
-57.7494
-57.7494
-57.7493
-57.7493
-57.7493
-57.7492
-58.2682
-58.2682
-58.2682
-58.2681
-58.2681
-58.268
-58.268
-58.2679
-58.2678
-58.2677
-58.2676
-58.2675
-58.2674
-58.2674
-58.2673
-58.2672
-58.2672
-58.2671
-58.2671
-58.2671
-58.7863
-58.7862
-58.7862
-58.7862
-58.7861
-58.786
-58.7859
-58.7859
-58.7858
-58.7856
-58.7855
-58.7854
-58.7853
-58.7852
-58.7852
-58.7851
-58.785
-58.785
-58.785
-58.7849
-59.3043
-59.3043
-59.3042
-59.3042
-59.3041
-59.304
-59.3039
-59.3038
-59.3037
-59.3036
-59.3035
-59.3033
-59.3032
-59.3031
-59.303
-59.3029
-59.3029
-59.3028
-59.3028
-59.3028
-59.8224
-59.8223
-59.8223
-59.8222
-59.8222
-59.8221
-59.8219
-59.8218
-59.8217
-59.8215
-59.8214
-59.8212
-59.8211
-59.821
-59.8209
-59.8208
-59.8207
-59.8206
-59.8206
-59.8206
-60.3405
-60.3404
-60.3404
-60.3403
-60.3402
-60.3401
-60.34
-60.3398
-60.3396
-60.3395
-60.3393
-60.3391
-60.339
-60.3388
-60.3387
-60.3386
-60.3385
-60.3384
-60.3384
-60.3383
-60.8586
-60.8585
-60.8585
-60.8584
-60.8583
-60.8581
-60.858
-60.8578
-60.8576
-60.8574
-60.8572
-60.857
-60.8569
-60.8567
-60.8565
-60.8564
-60.8563
-60.8562
-60.8561
-60.8561
-61.3767
-61.3767
-61.3766
-61.3765
-61.3764
-61.3762
-61.376
-61.3758
-61.3756
-61.3754
-61.3752
-61.3749
-61.3747
-61.3745
-61.3743
-61.3742
-61.374
-61.3739
-61.3739
-61.3738
-61.8949
-61.8949
-61.8948
-61.8947
-61.8945
-61.8943
-61.8941
-61.8939
-61.8936
-61.8933
-61.8931
-61.8928
-61.8925
-61.8923
-61.8921
-61.8919
-61.8917
-61.8916
-61.8915
-61.8915
-62.4131
-62.4131
-62.413
-62.4128
-62.4127
-62.4124
-62.4122
-62.4119
-62.4116
-62.4113
-62.411
-62.4107
-62.4104
-62.4101
-62.4098
-62.4096
-62.4094
-62.4093
-62.4092
-62.4092
-62.9314
-62.9313
-62.9312
-62.9311
-62.9309
-62.9306
-62.9303
-62.93
-62.9296
-62.9293
-62.9289
-62.9285
-62.9282
-62.9278
-62.9275
-62.9273
-62.9271
-62.9269
-62.9268
-62.9268
-63.4497
-63.4497
-63.4495
-63.4493
-63.4491
-63.4488
-63.4484
-63.4481
-63.4476
-63.4472
-63.4468
-63.4464
-63.4459
-63.4456
-63.4452
-63.4449
-63.4447
-63.4445
-63.4444
-63.4443
-63.9681
-63.968
-63.9679
-63.9677
-63.9674
-63.967
-63.9666
-63.9662
-63.9657
-63.9652
-63.9647
-63.9642
-63.9637
-63.9633
-63.9628
-63.9625
-63.9622
-63.962
-63.9618
-63.9618
-64.4866
-64.4865
-64.4863
-64.4861
-64.4857
-64.4853
-64.4848
-64.4843
-64.4837
-64.4832
-64.4826
-64.482
-64.4814
-64.4809
-64.4804
-64.48
-64.4797
-64.4794
-64.4792
-64.4792
-65.0051
-65.005
-65.0048
-65.0045
-65.0041
-65.0037
-65.0031
-65.0025
-65.0018
-65.0011
-65.0005
-64.9998
-64.9991
-64.9985
-64.9979
-64.9975
-64.9971
-64.9968
-64.9966
-64.9965
-65.5238
-65.5237
-65.5235
-65.5231
-65.5226
-65.5221
-65.5214
-65.5207
-65.5199
-65.5191
-65.5183
-65.5175
-65.5168
-65.516
-65.5154
-65.5148
-65.5144
-65.514
-65.5138
-65.5137
-66.0426
-66.0425
-66.0422
-66.0418
-66.0412
-66.0406
-66.0398
-66.039
-66.0381
-66.0371
-66.0362
-66.0353
-66.0344
-66.0335
-66.0328
-66.0321
-66.0316
-66.0312
-66.0309
-66.0307
-66.5615
-66.5614
-66.561
-66.5606
-66.5599
-66.5592
-66.5583
-66.5573
-66.5562
-66.5551
-66.554
-66.553
-66.5519
-66.5509
-66.55
-66.5493
-66.5486
-66.5482
-66.5478
-66.5477
-67.0807
-67.0805
-67.0801
-67.0795
-67.0788
-67.0779
-67.0768
-67.0757
-67.0744
-67.0732
-67.0719
-67.0706
-67.0694
-67.0682
-67.0672
-67.0663
-67.0656
-67.065
-67.0646
-67.0644
-67.6
-67.5997
-67.5993
-67.5986
-67.5977
-67.5967
-67.5955
-67.5941
-67.5927
-67.5912
-67.5897
-67.5882
-67.5868
-67.5854
-67.5842
-67.5832
-67.5823
-67.5817
-67.5812
-67.581
-68.1195
-68.1192
-68.1187
-68.1179
-68.1169
-68.1157
-68.1142
-68.1127
-68.111
-68.1093
-68.1075
-68.1058
-68.1041
-68.1025
-68.1011
-68.0999
-68.0989
-68.0981
-68.0976
-68.0973
-68.6393
-68.639
-68.6383
-68.6374
-68.6362
-68.6348
-68.6332
-68.6313
-68.6294
-68.6273
-68.6253
-68.6233
-68.6213
-68.6195
-68.6178
-68.6164
-68.6152
-68.6143
-68.6137
-68.6134
-69.1594
-69.159
-69.1583
-69.1572
-69.1558
-69.1542
-69.1522
-69.1501
-69.1478
-69.1454
-69.143
-69.1407
-69.1384
-69.1363
-69.1343
-69.1327
-69.1313
-69.1302
-69.1295
-69.1291
-69.6799
-69.6794
-69.6786
-69.6773
-69.6757
-69.6737
-69.6715
-69.669
-69.6663
-69.6636
-69.6608
-69.658
-69.6553
-69.6528
-69.6506
-69.6486
-69.647
-69.6458
-69.645
-69.6445
-70.2008
-70.2002
-70.1993
-70.1978
-70.1959
-70.1936
-70.191
-70.1881
-70.185
-70.1817
-70.1784
-70.1752
-70.1721
-70.1692
-70.1666
-70.1643
-70.1624
-70.161
-70.16
-70.1595
-70.7222
-70.7216
-70.7204
-70.7187
-70.7165
-70.7138
-70.7107
-70.7073
-70.7037
-70.6999
-70.6961
-70.6923
-70.6887
-70.6853
-70.6822
-70.6796
-70.6774
-70.6757
-70.6745
-70.6739
-71.2442
-71.2434
-71.2421
-71.2401
-71.2375
-71.2344
-71.2308
-71.2268
-71.2225
-71.2181
-71.2137
-71.2093
-71.205
-71.2011
-71.1975
-71.1944
-71.1918
-71.1899
-71.1886
-71.1878
-71.7669
-71.766
-71.7644
-71.762
-71.759
-71.7554
-71.7511
-71.7465
-71.7416
-71.7364
-71.7312
-71.7261
-71.7211
-71.7165
-71.7124
-71.7087
-71.7057
-71.7034
-71.7019
-71.701
-72.2903
-72.2893
-72.2874
-72.2847
-72.2811
-72.2769
-72.2719
-72.2665
-72.2607
-72.2547
-72.2487
-72.2427
-72.2369
-72.2315
-72.2267
-72.2225
-72.219
-72.2163
-72.2145
-72.2134
-72.8147
-72.8135
-72.8113
-72.8081
-72.8039
-72.7989
-72.7932
-72.7869
-72.7801
-72.7731
-72.766
-72.759
-72.7523
-72.7461
-72.7404
-72.7355
-72.7314
-72.7283
-72.7262
-72.725
-73.3402
-73.3387
-73.3362
-73.3324
-73.3276
-73.3217
-73.315
-73.3076
-73.2998
-73.2916
-73.2833
-73.2751
-73.2673
-73.26
-73.2534
-73.2477
-73.243
-73.2393
-73.2368
-73.2354
-73.8669
-73.8652
-73.8622
-73.8578
-73.8521
-73.8453
-73.8375
-73.8289
-73.8197
-73.8101
-73.8004
-73.7909
-73.7818
-73.7733
-73.7657
-73.759
-73.7534
-73.7492
-73.7463
-73.7447
-74.3951
-74.3931
-74.3896
-74.3845
-74.3778
-74.3698
-74.3607
-74.3506
-74.3399
-74.3287
-74.3175
-74.3064
-74.2958
-74.2859
-74.2769
-74.2692
-74.2627
-74.2578
-74.2544
-74.2525
-74.925
-74.9226
-74.9185
-74.9125
-74.9048
-74.8954
-74.8847
-74.873
-74.8604
-74.8474
-74.8343
-74.8214
-74.809
-74.7975
-74.7871
-74.7781
-74.7706
-74.7648
-74.7609
-74.7587
-75.4569
-75.4541
-75.4493
-75.4423
-75.4332
-75.4223
-75.4098
-75.396
-75.3814
-75.3662
-75.3509
-75.3359
-75.3215
-75.3081
-75.296
-75.2855
-75.2768
-75.2701
-75.2655
-75.2629
-75.9912
-75.9879
-75.9823
-75.974
-75.9634
-75.9506
-75.936
-75.9199
-75.9028
-75.8851
-75.8673
-75.8498
-75.8331
-75.8175
-75.8034
-75.7912
-75.7811
-75.7733
-75.768
-75.765
-76.5282
-76.5244
-76.5177
-76.5081
-76.4956
-76.4807
-76.4636
-76.4448
-76.4248
-76.4042
-76.3834
-76.363
-76.3435
-76.3254
-76.3091
-76.2949
-76.2832
-76.2741
-76.2679
-76.2644
-77.0684
-77.0639
-77.0561
-77.0448
-77.0302
-77.0127
-76.9927
-76.9707
-76.9474
-76.9233
-76.8991
-76.8754
-76.8527
-76.8317
-76.8128
-76.7963
-76.7827
-76.7722
-76.765
-76.7609
-77.6123
-77.607
-77.5978
-77.5846
-77.5675
-77.547
-77.5235
-77.4979
-77.4706
-77.4425
-77.4143
-77.3868
-77.3605
-77.3361
-77.3141
-77.295
-77.2792
-77.267
-77.2587
-77.2539
-78.1607
-78.1544
-78.1436
-78.128
-78.108
-78.0839
-78.0565
-78.0264
-77.9946
-77.9618
-77.929
-77.897
-77.8664
-77.8381
-77.8127
-77.7906
-77.7723
-77.7581
-77.7485
-77.7429
-78.7141
-78.7066
-78.6939
-78.6757
-78.6522
-78.624
-78.5918
-78.5566
-78.5194
-78.4812
-78.443
-78.4057
-78.3703
-78.3376
-78.3081
-78.2826
-78.2614
-78.2449
-78.2337
-78.2273
-79.2734
-79.2645
-79.2496
-79.2283
-79.2007
-79.1676
-79.1298
-79.0885
-79.045
-79.0005
-78.956
-78.9128
-78.8718
-78.8339
-78.7999
-78.7704
-78.7458
-78.7266
-78.7136
-78.7062
-79.8396
-79.8286
-79.8116
-79.7866
-79.7543
-79.7154
-79.6709
-79.6225
-79.5716
-79.5196
-79.4679
-79.4178
-79.3704
-79.3267
-79.2875
-79.2534
-79.2249
-79.2024
-79.187
-79.1787
-80.4136
-80.4014
-80.3807
-80.3517
-80.3139
-80.2681
-80.2157
-80.1588
-80.0991
-80.0384
-79.9783
-79.9203
-79.8656
-79.8153
-79.7703
-79.731
-79.6978
-79.6712
-79.654
-79.6436
-80.997
-80.9827
-80.9583
-80.9243
-80.8811
-80.8252
-80.7646
-80.6974
-80.6275
-80.5566
-80.4868
-80.4197
-80.3567
-80.2992
-80.2467
-80.2028
-80.1636
-80.1319
-80.1122
-80.0999
-81.5893
-81.5738
-81.5446
-81.5032
-81.4439
-81.3874
-81.3172
-81.2383
-81.1564
-81.0738
-80.9927
-80.9152
-80.8425
-80.7764
-80.7153
-80.657
-80.619
-80.5816
-80.5599
-80.5443
-82.1933
-82.1583
-82.0904
-82.0339
-82.0162
-81.9598
-81.8738
-81.7814
-81.6856
-81.5893
-81.4952
-81.4058
-81.322
-81.2457
-81.1782
-81.1001
-81.0049
-80.973
-80.9783
-80.9761
-82.8192
-82.7582
-82.7109
-82.6979
-82.6289
-82.5406
-82.4361
-82.3269
-82.2151
-82.1026
-81.9936
-81.8909
-81.7943
-81.7066
-81.6323
-81.5633
-81.5002
-81.4064
-81.3846
-81.4012
-83.4709
-83.4105
-83.4022
-83.3248
-83.2353
-83.1297
-83.0029
-82.8745
-82.7443
-82.613
-82.4867
-82.3697
-82.2578
-82.1557
-82.0744
-81.9972
-81.9304
-81.8856
-81.8057
-81.8195
-84.1136
-84.105
-84.0487
-83.9618
-83.856
-83.7333
-83.5679
-83.4237
-83.2737
-83.1192
-82.973
-82.8428
-82.7112
-82.5859
-82.5069
-82.4164
-82.34
-82.2829
-82.2381
-82.1944
-84.7549
-84.7954
-84.7213
-84.6177
-84.4952
-84.2958
-83.873
-83.9073
-83.7995
-83.6169
-83.4459
-83.3092
-83.1178
-82.7891
-82.8917
-82.8243
-82.7305
-82.663
-82.6153
-82.4924
-85.593
-85.5186
-85.4228
-85.2921
-85.1294
-84.5059
-84.2668
-84.0967
-84.2784
-84.0993
-83.8932
-83.7407
-83.2375
-82.971
-82.9245
-83.1782
-83.0924
-83.0211
-82.9735
-82.9615
-86.3633
-86.2788
-86.1585
-85.9961
-85.7956
-85.1938
-84.8529
-84.6205