/*--------------------------------*- C++ -*----------------------------------*\
| =========                 |                                                 |
| \\      /  F ield         | OpenFOAM: The Open Source CFD Toolbox           |
|  \\    /   O peration     | Version:  5.x                                   |
|   \\  /    A nd           | Web:      www.OpenFOAM.org                      |
|    \\/     M anipulation  |                                                 |
\*---------------------------------------------------------------------------*/
FoamFile
{
    version     2.0;
    format      ascii;
    class       volScalarField;
    location    "0.2";
    object      p_rgh;
}
// * * * * * * * * * * * * * * * * * * * * * * * * * * * * * * * * * * * * * //

dimensions      [1 -1 -2 0 0 0 0];

internalField   nonuniform List<scalar> 
8000
(
-0.00896756
-0.00896765
-0.00896763
-0.00896765
-0.00896763
-0.00896761
-0.00896759
-0.00896755
-0.00896752
-0.00896747
-0.00896743
-0.00896739
-0.00896734
-0.0089673
-0.00896726
-0.00896723
-0.0089672
-0.00896717
-0.00896702
-0.00896752
-0.0269032
-0.0269032
-0.0269032
-0.0269032
-0.0269032
-0.0269031
-0.026903
-0.0269029
-0.0269028
-0.0269027
-0.0269025
-0.0269024
-0.0269023
-0.0269022
-0.0269021
-0.026902
-0.0269019
-0.0269019
-0.0269017
-0.0269021
-0.0448392
-0.0448391
-0.044839
-0.044839
-0.0448389
-0.0448388
-0.0448387
-0.0448385
-0.0448383
-0.0448381
-0.0448379
-0.0448377
-0.0448375
-0.0448374
-0.0448372
-0.0448371
-0.044837
-0.0448369
-0.0448368
-0.0448368
-0.062775
-0.0627748
-0.0627748
-0.0627747
-0.0627746
-0.0627744
-0.0627743
-0.0627741
-0.0627738
-0.0627736
-0.0627733
-0.062773
-0.0627728
-0.0627726
-0.0627724
-0.0627722
-0.062772
-0.062772
-0.0627719
-0.0627716
-0.0807106
-0.0807104
-0.0807104
-0.0807103
-0.0807102
-0.08071
-0.0807098
-0.0807095
-0.0807093
-0.080709
-0.0807087
-0.0807084
-0.0807081
-0.0807078
-0.0807076
-0.0807074
-0.0807072
-0.0807071
-0.0807071
-0.0807066
-0.098646
-0.0986459
-0.0986459
-0.0986458
-0.0986456
-0.0986454
-0.0986452
-0.0986449
-0.0986446
-0.0986443
-0.098644
-0.0986437
-0.0986434
-0.0986431
-0.0986428
-0.0986426
-0.0986425
-0.0986424
-0.0986424
-0.0986418
-0.116581
-0.116581
-0.116581
-0.116581
-0.116581
-0.116581
-0.11658
-0.11658
-0.11658
-0.11658
-0.116579
-0.116579
-0.116579
-0.116578
-0.116578
-0.116578
-0.116578
-0.116578
-0.116578
-0.116577
-0.134516
-0.134516
-0.134516
-0.134516
-0.134516
-0.134516
-0.134516
-0.134515
-0.134515
-0.134515
-0.134515
-0.134514
-0.134514
-0.134514
-0.134514
-0.134513
-0.134513
-0.134513
-0.134513
-0.134513
-0.152451
-0.152451
-0.152451
-0.152451
-0.152451
-0.152451
-0.152451
-0.15245
-0.15245
-0.15245
-0.15245
-0.15245
-0.152449
-0.152449
-0.152449
-0.152449
-0.152449
-0.152449
-0.152449
-0.152448
-0.170386
-0.170386
-0.170386
-0.170386
-0.170386
-0.170386
-0.170386
-0.170385
-0.170385
-0.170385
-0.170385
-0.170385
-0.170385
-0.170385
-0.170384
-0.170384
-0.170384
-0.170384
-0.170384
-0.170383
-0.188321
-0.188321
-0.188321
-0.188321
-0.188321
-0.188321
-0.188321
-0.18832
-0.18832
-0.18832
-0.18832
-0.18832
-0.18832
-0.18832
-0.18832
-0.18832
-0.18832
-0.18832
-0.18832
-0.188319
-0.206256
-0.206256
-0.206256
-0.206256
-0.206256
-0.206255
-0.206255
-0.206255
-0.206255
-0.206255
-0.206255
-0.206255
-0.206255
-0.206255
-0.206255
-0.206255
-0.206255
-0.206255
-0.206255
-0.206254
-0.22419
-0.22419
-0.22419
-0.22419
-0.22419
-0.22419
-0.22419
-0.22419
-0.22419
-0.22419
-0.22419
-0.22419
-0.22419
-0.22419
-0.22419
-0.22419
-0.22419
-0.22419
-0.22419
-0.224189
-0.242125
-0.242125
-0.242125
-0.242125
-0.242125
-0.242125
-0.242125
-0.242125
-0.242125
-0.242125
-0.242125
-0.242125
-0.242125
-0.242125
-0.242125
-0.242125
-0.242125
-0.242125
-0.242125
-0.242124
-0.26006
-0.26006
-0.26006
-0.26006
-0.26006
-0.26006
-0.26006
-0.26006
-0.26006
-0.26006
-0.26006
-0.26006
-0.26006
-0.26006
-0.26006
-0.26006
-0.260059
-0.260059
-0.260059
-0.260058
-0.277995
-0.277995
-0.277995
-0.277995
-0.277995
-0.277995
-0.277995
-0.277995
-0.277995
-0.277995
-0.277995
-0.277994
-0.277994
-0.277994
-0.277994
-0.277994
-0.277994
-0.277993
-0.277993
-0.277992
-0.29593
-0.29593
-0.29593
-0.29593
-0.29593
-0.29593
-0.29593
-0.29593
-0.29593
-0.295929
-0.295929
-0.295929
-0.295929
-0.295928
-0.295928
-0.295928
-0.295928
-0.295927
-0.295927
-0.295926
-0.313865
-0.313865
-0.313865
-0.313865
-0.313865
-0.313865
-0.313865
-0.313864
-0.313864
-0.313864
-0.313863
-0.313863
-0.313863
-0.313862
-0.313862
-0.313862
-0.313861
-0.313861
-0.313861
-0.31386
-0.3318
-0.3318
-0.3318
-0.3318
-0.3318
-0.3318
-0.331799
-0.331799
-0.331799
-0.331798
-0.331798
-0.331797
-0.331797
-0.331796
-0.331796
-0.331795
-0.331795
-0.331795
-0.331794
-0.331794
-0.349735
-0.349735
-0.349735
-0.349735
-0.349735
-0.349734
-0.349734
-0.349733
-0.349733
-0.349732
-0.349732
-0.349731
-0.34973
-0.34973
-0.349729
-0.349729
-0.349729
-0.349728
-0.349728
-0.349728
-0.36767
-0.36767
-0.36767
-0.367669
-0.367669
-0.367669
-0.367668
-0.367668
-0.367667
-0.367666
-0.367666
-0.367665
-0.367664
-0.367664
-0.367663
-0.367663
-0.367663
-0.367662
-0.367662
-0.367663
-0.385604
-0.385604
-0.385604
-0.385604
-0.385604
-0.385603
-0.385603
-0.385602
-0.385601
-0.385601
-0.3856
-0.385599
-0.385599
-0.385598
-0.385597
-0.385597
-0.385597
-0.385597
-0.385597
-0.385597
-0.403539
-0.403539
-0.403538
-0.403538
-0.403538
-0.403537
-0.403537
-0.403536
-0.403535
-0.403535
-0.403534
-0.403533
-0.403533
-0.403532
-0.403532
-0.403532
-0.403532
-0.403531
-0.403532
-0.403532
-0.421472
-0.421473
-0.421472
-0.421472
-0.421472
-0.421471
-0.421471
-0.42147
-0.42147
-0.421469
-0.421469
-0.421468
-0.421468
-0.421467
-0.421467
-0.421467
-0.421467
-0.421467
-0.421467
-0.421467
-0.439406
-0.439406
-0.439406
-0.439406
-0.439406
-0.439405
-0.439405
-0.439404
-0.439404
-0.439404
-0.439403
-0.439403
-0.439403
-0.439402
-0.439402
-0.439402
-0.439402
-0.439402
-0.439402
-0.439403
-0.45734
-0.45734
-0.45734
-0.45734
-0.457339
-0.457339
-0.457339
-0.457339
-0.457338
-0.457338
-0.457338
-0.457338
-0.457338
-0.457338
-0.457338
-0.457338
-0.457338
-0.457338
-0.457338
-0.457339
-0.475273
-0.475274
-0.475274
-0.475273
-0.475273
-0.475273
-0.475273
-0.475273
-0.475273
-0.475273
-0.475273
-0.475273
-0.475273
-0.475274
-0.475274
-0.475274
-0.475274
-0.475274
-0.475274
-0.475275
-0.493207
-0.493207
-0.493207
-0.493207
-0.493207
-0.493207
-0.493208
-0.493208
-0.493208
-0.493208
-0.493209
-0.493209
-0.493209
-0.493209
-0.49321
-0.49321
-0.49321
-0.49321
-0.49321
-0.493211
-0.511141
-0.511141
-0.511141
-0.511142
-0.511142
-0.511142
-0.511142
-0.511143
-0.511143
-0.511143
-0.511144
-0.511144
-0.511145
-0.511145
-0.511146
-0.511146
-0.511146
-0.511146
-0.511146
-0.511146
-0.529075
-0.529076
-0.529076
-0.529076
-0.529076
-0.529077
-0.529077
-0.529078
-0.529078
-0.529079
-0.529079
-0.52908
-0.52908
-0.529081
-0.529081
-0.529082
-0.529082
-0.529082
-0.529082
-0.529082
-0.54701
-0.54701
-0.54701
-0.547011
-0.547011
-0.547011
-0.547012
-0.547013
-0.547013
-0.547014
-0.547015
-0.547015
-0.547016
-0.547016
-0.547017
-0.547017
-0.547018
-0.547018
-0.547018
-0.547017
-0.564945
-0.564945
-0.564945
-0.564945
-0.564946
-0.564946
-0.564947
-0.564948
-0.564948
-0.564949
-0.56495
-0.564951
-0.564951
-0.564952
-0.564952
-0.564953
-0.564953
-0.564953
-0.564953
-0.564952
-0.58288
-0.58288
-0.58288
-0.582881
-0.582881
-0.582882
-0.582882
-0.582883
-0.582884
-0.582884
-0.582885
-0.582886
-0.582886
-0.582887
-0.582888
-0.582888
-0.582888
-0.582888
-0.582889
-0.582888
-0.600815
-0.600815
-0.600815
-0.600816
-0.600816
-0.600817
-0.600817
-0.600818
-0.600819
-0.60082
-0.60082
-0.600821
-0.600822
-0.600822
-0.600823
-0.600823
-0.600823
-0.600824
-0.600824
-0.600823
-0.61875
-0.61875
-0.618751
-0.618751
-0.618751
-0.618752
-0.618753
-0.618753
-0.618754
-0.618755
-0.618755
-0.618756
-0.618757
-0.618757
-0.618758
-0.618758
-0.618758
-0.618759
-0.618759
-0.618758
-0.636686
-0.636686
-0.636686
-0.636686
-0.636687
-0.636687
-0.636688
-0.636688
-0.636689
-0.63669
-0.63669
-0.636691
-0.636692
-0.636692
-0.636693
-0.636693
-0.636693
-0.636694
-0.636694
-0.636693
-0.654621
-0.654621
-0.654621
-0.654622
-0.654622
-0.654622
-0.654623
-0.654623
-0.654624
-0.654625
-0.654625
-0.654626
-0.654627
-0.654627
-0.654628
-0.654628
-0.654628
-0.654629
-0.654629
-0.654628
-0.672556
-0.672556
-0.672556
-0.672557
-0.672557
-0.672557
-0.672558
-0.672559
-0.672559
-0.67256
-0.67256
-0.672561
-0.672562
-0.672562
-0.672562
-0.672563
-0.672563
-0.672563
-0.672563
-0.672563
-0.690491
-0.690491
-0.690491
-0.690492
-0.690492
-0.690493
-0.690493
-0.690494
-0.690494
-0.690495
-0.690495
-0.690496
-0.690496
-0.690497
-0.690497
-0.690498
-0.690498
-0.690498
-0.690498
-0.690498
-0.708426
-0.708426
-0.708426
-0.708427
-0.708427
-0.708427
-0.708428
-0.708428
-0.708429
-0.708429
-0.70843
-0.708431
-0.708431
-0.708432
-0.708432
-0.708432
-0.708432
-0.708433
-0.708433
-0.708432
-0.726361
-0.726361
-0.726361
-0.726362
-0.726362
-0.726362
-0.726363
-0.726363
-0.726364
-0.726364
-0.726365
-0.726365
-0.726366
-0.726366
-0.726366
-0.726367
-0.726367
-0.726367
-0.726367
-0.726366
-0.744296
-0.744296
-0.744296
-0.744296
-0.744297
-0.744297
-0.744297
-0.744298
-0.744298
-0.744299
-0.744299
-0.7443
-0.7443
-0.7443
-0.744301
-0.744301
-0.744301
-0.744301
-0.744301
-0.744301
-0.762231
-0.762231
-0.762231
-0.762231
-0.762231
-0.762232
-0.762232
-0.762233
-0.762233
-0.762233
-0.762234
-0.762234
-0.762234
-0.762235
-0.762235
-0.762235
-0.762235
-0.762236
-0.762236
-0.762235
-0.780166
-0.780165
-0.780166
-0.780166
-0.780166
-0.780166
-0.780167
-0.780167
-0.780167
-0.780168
-0.780168
-0.780168
-0.780169
-0.780169
-0.780169
-0.78017
-0.78017
-0.78017
-0.78017
-0.780169
-0.7981
-0.7981
-0.7981
-0.7981
-0.798101
-0.798101
-0.798101
-0.798101
-0.798102
-0.798102
-0.798102
-0.798103
-0.798103
-0.798103
-0.798104
-0.798104
-0.798104
-0.798104
-0.798104
-0.798104
-0.816035
-0.816035
-0.816035
-0.816035
-0.816035
-0.816035
-0.816036
-0.816036
-0.816036
-0.816036
-0.816037
-0.816037
-0.816037
-0.816038
-0.816038
-0.816038
-0.816039
-0.816039
-0.816039
-0.816039
-0.833969
-0.833969
-0.833969
-0.833969
-0.83397
-0.83397
-0.83397
-0.83397
-0.833971
-0.833971
-0.833971
-0.833972
-0.833972
-0.833972
-0.833973
-0.833973
-0.833973
-0.833973
-0.833973
-0.833973
-0.851904
-0.851904
-0.851904
-0.851904
-0.851904
-0.851904
-0.851904
-0.851905
-0.851905
-0.851905
-0.851906
-0.851906
-0.851906
-0.851907
-0.851907
-0.851907
-0.851908
-0.851908
-0.851908
-0.851908
-0.869838
-0.869838
-0.869838
-0.869838
-0.869839
-0.869839
-0.869839
-0.869839
-0.869839
-0.86984
-0.86984
-0.869841
-0.869841
-0.869841
-0.869842
-0.869842
-0.869842
-0.869843
-0.869843
-0.869843
-0.887773
-0.887773
-0.887773
-0.887773
-0.887773
-0.887773
-0.887773
-0.887774
-0.887774
-0.887774
-0.887775
-0.887775
-0.887776
-0.887776
-0.887776
-0.887777
-0.887777
-0.887777
-0.887777
-0.887778
-0.905707
-0.905707
-0.905707
-0.905708
-0.905708
-0.905708
-0.905708
-0.905708
-0.905709
-0.905709
-0.905709
-0.90571
-0.90571
-0.905711
-0.905711
-0.905711
-0.905712
-0.905712
-0.905712
-0.905712
-0.923642
-0.923642
-0.923642
-0.923642
-0.923642
-0.923643
-0.923643
-0.923643
-0.923643
-0.923644
-0.923644
-0.923645
-0.923645
-0.923645
-0.923646
-0.923646
-0.923646
-0.923646
-0.923646
-0.923646
-0.941577
-0.941577
-0.941577
-0.941577
-0.941577
-0.941578
-0.941578
-0.941578
-0.941578
-0.941579
-0.941579
-0.941579
-0.94158
-0.94158
-0.94158
-0.941581
-0.941581
-0.941581
-0.941581
-0.941581
-0.959512
-0.959512
-0.959512
-0.959512
-0.959513
-0.959513
-0.959513
-0.959513
-0.959514
-0.959514
-0.959514
-0.959514
-0.959515
-0.959515
-0.959515
-0.959515
-0.959515
-0.959515
-0.959515
-0.959515
-0.977447
-0.977447
-0.977448
-0.977448
-0.977448
-0.977448
-0.977448
-0.977448
-0.977449
-0.977449
-0.977449
-0.977449
-0.977449
-0.977449
-0.977449
-0.977449
-0.977449
-0.977449
-0.977449
-0.977449
-0.995382
-0.995383
-0.995383
-0.995383
-0.995383
-0.995383
-0.995384
-0.995384
-0.995384
-0.995384
-0.995384
-0.995384
-0.995384
-0.995384
-0.995384
-0.995383
-0.995383
-0.995383
-0.995383
-0.995383
-1.01332
-1.01332
-1.01332
-1.01332
-1.01332
-1.01332
-1.01332
-1.01332
-1.01332
-1.01332
-1.01332
-1.01332
-1.01332
-1.01332
-1.01332
-1.01332
-1.01332
-1.01332
-1.01332
-1.01332
-1.03125
-1.03125
-1.03125
-1.03125
-1.03125
-1.03125
-1.03125
-1.03125
-1.03125
-1.03125
-1.03125
-1.03125
-1.03125
-1.03125
-1.03125
-1.03125
-1.03125
-1.03125
-1.03125
-1.03125
-1.04919
-1.04919
-1.04919
-1.04919
-1.04919
-1.04919
-1.04919
-1.04919
-1.04919
-1.04919
-1.04919
-1.04919
-1.04919
-1.04919
-1.04919
-1.04919
-1.04919
-1.04919
-1.04919
-1.04919
-1.06713
-1.06713
-1.06713
-1.06713
-1.06713
-1.06713
-1.06713
-1.06712
-1.06712
-1.06712
-1.06712
-1.06712
-1.06712
-1.06712
-1.06712
-1.06712
-1.06712
-1.06712
-1.06712
-1.06712
-1.08506
-1.08506
-1.08506
-1.08506
-1.08506
-1.08506
-1.08506
-1.08506
-1.08506
-1.08506
-1.08506
-1.08506
-1.08506
-1.08506
-1.08506
-1.08505
-1.08505
-1.08505
-1.08505
-1.08505
-1.103
-1.103
-1.103
-1.103
-1.103
-1.103
-1.103
-1.10299
-1.10299
-1.10299
-1.10299
-1.10299
-1.10299
-1.10299
-1.10299
-1.10299
-1.10299
-1.10299
-1.10299
-1.10299
-1.12093
-1.12093
-1.12093
-1.12093
-1.12093
-1.12093
-1.12093
-1.12093
-1.12093
-1.12093
-1.12093
-1.12093
-1.12093
-1.12092
-1.12092
-1.12092
-1.12092
-1.12092
-1.12092
-1.12092
-1.13887
-1.13887
-1.13887
-1.13887
-1.13887
-1.13887
-1.13886
-1.13886
-1.13886
-1.13886
-1.13886
-1.13886
-1.13886
-1.13886
-1.13886
-1.13886
-1.13886
-1.13886
-1.13886
-1.13886
-1.1568
-1.1568
-1.1568
-1.1568
-1.1568
-1.1568
-1.1568
-1.1568
-1.1568
-1.1568
-1.1568
-1.15679
-1.15679
-1.15679
-1.15679
-1.15679
-1.15679
-1.15679
-1.15679
-1.15679
-1.17474
-1.17474
-1.17474
-1.17474
-1.17474
-1.17474
-1.17473
-1.17473
-1.17473
-1.17473
-1.17473
-1.17473
-1.17473
-1.17473
-1.17473
-1.17473
-1.17473
-1.17473
-1.17473
-1.17473
-1.19267
-1.19267
-1.19267
-1.19267
-1.19267
-1.19267
-1.19267
-1.19267
-1.19267
-1.19267
-1.19266
-1.19266
-1.19266
-1.19266
-1.19266
-1.19266
-1.19266
-1.19266
-1.19266
-1.19266
-1.21061
-1.21061
-1.21061
-1.21061
-1.21061
-1.2106
-1.2106
-1.2106
-1.2106
-1.2106
-1.2106
-1.2106
-1.2106
-1.2106
-1.2106
-1.2106
-1.21059
-1.21059
-1.21059
-1.21059
-1.22854
-1.22854
-1.22854
-1.22854
-1.22854
-1.22854
-1.22854
-1.22854
-1.22854
-1.22853
-1.22853
-1.22853
-1.22853
-1.22853
-1.22853
-1.22853
-1.22853
-1.22853
-1.22853
-1.22853
-1.24648
-1.24648
-1.24648
-1.24648
-1.24647
-1.24647
-1.24647
-1.24647
-1.24647
-1.24647
-1.24647
-1.24647
-1.24647
-1.24647
-1.24647
-1.24646
-1.24646
-1.24646
-1.24646
-1.24646
-1.26441
-1.26441
-1.26441
-1.26441
-1.26441
-1.26441
-1.26441
-1.26441
-1.26441
-1.2644
-1.2644
-1.2644
-1.2644
-1.2644
-1.2644
-1.2644
-1.2644
-1.2644
-1.2644
-1.2644
-1.28235
-1.28235
-1.28235
-1.28234
-1.28234
-1.28234
-1.28234
-1.28234
-1.28234
-1.28234
-1.28234
-1.28234
-1.28234
-1.28234
-1.28233
-1.28233
-1.28233
-1.28233
-1.28233
-1.28233
-1.30028
-1.30028
-1.30028
-1.30028
-1.30028
-1.30028
-1.30028
-1.30028
-1.30027
-1.30027
-1.30027
-1.30027
-1.30027
-1.30027
-1.30027
-1.30027
-1.30027
-1.30027
-1.30027
-1.30027
-1.31821
-1.31821
-1.31821
-1.31821
-1.31821
-1.31821
-1.31821
-1.31821
-1.31821
-1.31821
-1.31821
-1.31821
-1.31821
-1.3182
-1.3182
-1.3182
-1.3182
-1.3182
-1.3182
-1.3182
-1.33615
-1.33615
-1.33615
-1.33615
-1.33615
-1.33615
-1.33615
-1.33614
-1.33614
-1.33614
-1.33614
-1.33614
-1.33614
-1.33614
-1.33614
-1.33614
-1.33614
-1.33614
-1.33614
-1.33614
-1.35408
-1.35408
-1.35408
-1.35408
-1.35408
-1.35408
-1.35408
-1.35408
-1.35408
-1.35408
-1.35408
-1.35408
-1.35407
-1.35407
-1.35407
-1.35407
-1.35407
-1.35407
-1.35407
-1.35407
-1.37202
-1.37202
-1.37202
-1.37202
-1.37202
-1.37202
-1.37201
-1.37201
-1.37201
-1.37201
-1.37201
-1.37201
-1.37201
-1.37201
-1.37201
-1.37201
-1.37201
-1.37201
-1.37201
-1.37201
-1.38995
-1.38995
-1.38995
-1.38995
-1.38995
-1.38995
-1.38995
-1.38995
-1.38995
-1.38995
-1.38995
-1.38994
-1.38994
-1.38994
-1.38994
-1.38994
-1.38994
-1.38994
-1.38994
-1.38994
-1.40789
-1.40789
-1.40789
-1.40789
-1.40789
-1.40788
-1.40788
-1.40788
-1.40788
-1.40788
-1.40788
-1.40788
-1.40788
-1.40788
-1.40788
-1.40788
-1.40788
-1.40787
-1.40787
-1.40787
-1.42582
-1.42582
-1.42582
-1.42582
-1.42582
-1.42582
-1.42582
-1.42582
-1.42582
-1.42582
-1.42581
-1.42581
-1.42581
-1.42581
-1.42581
-1.42581
-1.42581
-1.42581
-1.42581
-1.42581
-1.44376
-1.44376
-1.44376
-1.44376
-1.44376
-1.44375
-1.44375
-1.44375
-1.44375
-1.44375
-1.44375
-1.44375
-1.44375
-1.44375
-1.44375
-1.44375
-1.44374
-1.44374
-1.44374
-1.44374
-1.46169
-1.46169
-1.46169
-1.46169
-1.46169
-1.46169
-1.46169
-1.46169
-1.46169
-1.46169
-1.46168
-1.46168
-1.46168
-1.46168
-1.46168
-1.46168
-1.46168
-1.46168
-1.46168
-1.46168
-1.47963
-1.47963
-1.47963
-1.47963
-1.47962
-1.47962
-1.47962
-1.47962
-1.47962
-1.47962
-1.47962
-1.47962
-1.47962
-1.47962
-1.47962
-1.47961
-1.47961
-1.47961
-1.47961
-1.47961
-1.49756
-1.49756
-1.49756
-1.49756
-1.49756
-1.49756
-1.49756
-1.49756
-1.49756
-1.49756
-1.49755
-1.49755
-1.49755
-1.49755
-1.49755
-1.49755
-1.49755
-1.49755
-1.49755
-1.49755
-1.5155
-1.5155
-1.5155
-1.5155
-1.5155
-1.51549
-1.51549
-1.51549
-1.51549
-1.51549
-1.51549
-1.51549
-1.51549
-1.51548
-1.51548
-1.51548
-1.51548
-1.51548
-1.51548
-1.51548
-1.53343
-1.53343
-1.53343
-1.53343
-1.53343
-1.53343
-1.53343
-1.53343
-1.53343
-1.53343
-1.53342
-1.53342
-1.53342
-1.53342
-1.53342
-1.53342
-1.53342
-1.53342
-1.53342
-1.53342
-1.55137
-1.55137
-1.55137
-1.55137
-1.55137
-1.55137
-1.55136
-1.55136
-1.55136
-1.55136
-1.55136
-1.55136
-1.55135
-1.55135
-1.55135
-1.55135
-1.55135
-1.55135
-1.55135
-1.55135
-1.5693
-1.5693
-1.5693
-1.5693
-1.5693
-1.5693
-1.5693
-1.5693
-1.5693
-1.56929
-1.56929
-1.56929
-1.56929
-1.56929
-1.56929
-1.56928
-1.56928
-1.56928
-1.56928
-1.56928
-1.58724
-1.58724
-1.58724
-1.58724
-1.58724
-1.58724
-1.58724
-1.58723
-1.58723
-1.58723
-1.58723
-1.58723
-1.58722
-1.58722
-1.58722
-1.58722
-1.58722
-1.58722
-1.58722
-1.58722
-1.60518
-1.60518
-1.60518
-1.60518
-1.60517
-1.60517
-1.60517
-1.60517
-1.60517
-1.60516
-1.60516
-1.60516
-1.60516
-1.60516
-1.60515
-1.60515
-1.60515
-1.60515
-1.60515
-1.60515
-1.62312
-1.62312
-1.62311
-1.62311
-1.62311
-1.62311
-1.62311
-1.6231
-1.6231
-1.6231
-1.6231
-1.62309
-1.62309
-1.62309
-1.62309
-1.62309
-1.62308
-1.62308
-1.62308
-1.62308
-1.64105
-1.64105
-1.64105
-1.64105
-1.64105
-1.64105
-1.64104
-1.64104
-1.64104
-1.64103
-1.64103
-1.64103
-1.64103
-1.64102
-1.64102
-1.64102
-1.64102
-1.64101
-1.64101
-1.64101
-1.65899
-1.65899
-1.65899
-1.65899
-1.65899
-1.65898
-1.65898
-1.65898
-1.65897
-1.65897
-1.65897
-1.65896
-1.65896
-1.65896
-1.65895
-1.65895
-1.65895
-1.65895
-1.65894
-1.65894
-1.67693
-1.67693
-1.67693
-1.67693
-1.67692
-1.67692
-1.67692
-1.67691
-1.67691
-1.6769
-1.6769
-1.6769
-1.67689
-1.67689
-1.67688
-1.67688
-1.67688
-1.67688
-1.67688
-1.67687
-1.69487
-1.69487
-1.69487
-1.69487
-1.69486
-1.69486
-1.69485
-1.69485
-1.69484
-1.69484
-1.69483
-1.69483
-1.69482
-1.69482
-1.69482
-1.69481
-1.69481
-1.69481
-1.69481
-1.6948
-1.71281
-1.71281
-1.71281
-1.7128
-1.7128
-1.7128
-1.71279
-1.71279
-1.71278
-1.71277
-1.71277
-1.71276
-1.71276
-1.71275
-1.71275
-1.71274
-1.71274
-1.71274
-1.71273
-1.71273
-1.73075
-1.73075
-1.73075
-1.73075
-1.73074
-1.73074
-1.73073
-1.73072
-1.73072
-1.73071
-1.7307
-1.7307
-1.73069
-1.73068
-1.73068
-1.73067
-1.73067
-1.73067
-1.73066
-1.73066
-1.7487
-1.74869
-1.74869
-1.74869
-1.74868
-1.74868
-1.74867
-1.74866
-1.74865
-1.74864
-1.74864
-1.74863
-1.74862
-1.74861
-1.74861
-1.7486
-1.7486
-1.74859
-1.74859
-1.74859
-1.76664
-1.76664
-1.76663
-1.76663
-1.76662
-1.76662
-1.76661
-1.7666
-1.76659
-1.76658
-1.76657
-1.76656
-1.76655
-1.76654
-1.76654
-1.76653
-1.76652
-1.76652
-1.76652
-1.76652
-1.78458
-1.78458
-1.78458
-1.78457
-1.78457
-1.78456
-1.78455
-1.78454
-1.78453
-1.78452
-1.7845
-1.78449
-1.78448
-1.78447
-1.78446
-1.78445
-1.78445
-1.78444
-1.78444
-1.78444
-1.80253
-1.80253
-1.80252
-1.80252
-1.80251
-1.8025
-1.80249
-1.80248
-1.80247
-1.80245
-1.80244
-1.80242
-1.80241
-1.8024
-1.80239
-1.80238
-1.80237
-1.80237
-1.80236
-1.80236
-1.82048
-1.82048
-1.82047
-1.82047
-1.82046
-1.82045
-1.82043
-1.82042
-1.8204
-1.82039
-1.82037
-1.82036
-1.82034
-1.82033
-1.82031
-1.8203
-1.82029
-1.82029
-1.82028
-1.82028
-1.83843
-1.83843
-1.83842
-1.83842
-1.8384
-1.83839
-1.83838
-1.83836
-1.83834
-1.83832
-1.8383
-1.83829
-1.83827
-1.83825
-1.83824
-1.83822
-1.83821
-1.83821
-1.8382
-1.8382
-1.85638
-1.85638
-1.85638
-1.85637
-1.85635
-1.85634
-1.85632
-1.8563
-1.85628
-1.85626
-1.85624
-1.85622
-1.8562
-1.85618
-1.85616
-1.85614
-1.85613
-1.85612
-1.85612
-1.85611
-1.87434
-1.87434
-1.87433
-1.87432
-1.87431
-1.87429
-1.87427
-1.87425
-1.87422
-1.8742
-1.87417
-1.87415
-1.87412
-1.8741
-1.87408
-1.87406
-1.87405
-1.87404
-1.87403
-1.87403
-1.8923
-1.8923
-1.89229
-1.89228
-1.89226
-1.89224
-1.89222
-1.89219
-1.89216
-1.89213
-1.8921
-1.89207
-1.89204
-1.89202
-1.89199
-1.89197
-1.89196
-1.89195
-1.89194
-1.89193
-1.91027
-1.91027
-1.91026
-1.91024
-1.91022
-1.9102
-1.91017
-1.91014
-1.91011
-1.91007
-1.91004
-1.91
-1.90997
-1.90994
-1.90991
-1.90988
-1.90987
-1.90985
-1.90984
-1.90984
-1.92824
-1.92824
-1.92823
-1.92821
-1.92819
-1.92816
-1.92812
-1.92809
-1.92805
-1.92801
-1.92797
-1.92793
-1.92789
-1.92785
-1.92782
-1.92779
-1.92777
-1.92775
-1.92774
-1.92773
-1.94622
-1.94621
-1.9462
-1.94618
-1.94615
-1.94612
-1.94608
-1.94604
-1.94599
-1.94595
-1.9459
-1.94585
-1.94581
-1.94576
-1.94573
-1.94569
-1.94566
-1.94564
-1.94563
-1.94562
-1.96421
-1.9642
-1.96418
-1.96416
-1.96413
-1.96409
-1.96404
-1.96399
-1.96394
-1.96388
-1.96383
-1.96377
-1.96372
-1.96367
-1.96363
-1.96359
-1.96356
-1.96353
-1.96351
-1.96351
-1.9822
-1.98219
-1.98217
-1.98215
-1.98211
-1.98206
-1.98201
-1.98195
-1.98189
-1.98182
-1.98176
-1.98169
-1.98163
-1.98157
-1.98152
-1.98148
-1.98144
-1.98141
-1.98139
-1.98138
-2.00021
-2.0002
-2.00017
-2.00014
-2.0001
-2.00004
-1.99998
-1.99991
-1.99984
-1.99976
-1.99969
-1.99961
-1.99954
-1.99947
-1.99941
-1.99936
-1.99931
-1.99928
-1.99926
-1.99925
-2.01822
-2.01821
-2.01818
-2.01815
-2.01809
-2.01803
-2.01796
-2.01788
-2.01779
-2.01771
-2.01762
-2.01753
-2.01744
-2.01736
-2.01729
-2.01723
-2.01718
-2.01714
-2.01711
-2.0171
-2.03625
-2.03624
-2.03621
-2.03616
-2.0361
-2.03603
-2.03594
-2.03585
-2.03575
-2.03565
-2.03554
-2.03544
-2.03534
-2.03525
-2.03516
-2.03509
-2.03503
-2.03498
-2.03495
-2.03494
-2.0543
-2.05428
-2.05425
-2.05419
-2.05412
-2.05404
-2.05394
-2.05383
-2.05371
-2.05359
-2.05347
-2.05335
-2.05323
-2.05312
-2.05302
-2.05294
-2.05287
-2.05281
-2.05278
-2.05276
-2.07237
-2.07235
-2.0723
-2.07224
-2.07216
-2.07206
-2.07194
-2.07182
-2.07168
-2.07154
-2.07139
-2.07125
-2.07111
-2.07099
-2.07087
-2.07077
-2.07069
-2.07062
-2.07058
-2.07056
-2.09045
-2.09043
-2.09038
-2.09031
-2.09021
-2.09009
-2.08996
-2.08981
-2.08965
-2.08948
-2.08931
-2.08915
-2.08899
-2.08884
-2.0887
-2.08859
-2.08849
-2.08842
-2.08837
-2.08834
-2.10857
-2.10854
-2.10848
-2.1084
-2.10828
-2.10815
-2.10799
-2.10781
-2.10763
-2.10743
-2.10723
-2.10704
-2.10685
-2.10668
-2.10652
-2.10638
-2.10627
-2.10618
-2.10613
-2.1061
-2.12671
-2.12668
-2.12661
-2.12651
-2.12638
-2.12622
-2.12603
-2.12583
-2.12561
-2.12538
-2.12515
-2.12492
-2.12471
-2.1245
-2.12432
-2.12415
-2.12402
-2.12392
-2.12385
-2.12382
-2.14489
-2.14485
-2.14478
-2.14466
-2.1445
-2.14431
-2.1441
-2.14386
-2.1436
-2.14334
-2.14307
-2.1428
-2.14254
-2.1423
-2.14209
-2.1419
-2.14174
-2.14163
-2.14155
-2.14151
-2.16312
-2.16307
-2.16298
-2.16284
-2.16266
-2.16244
-2.16218
-2.1619
-2.1616
-2.16129
-2.16098
-2.16066
-2.16037
-2.16009
-2.15983
-2.15961
-2.15943
-2.15929
-2.1592
-2.15916
-2.18139
-2.18133
-2.18122
-2.18106
-2.18085
-2.18059
-2.1803
-2.17997
-2.17962
-2.17925
-2.17888
-2.17852
-2.17817
-2.17784
-2.17754
-2.17729
-2.17707
-2.17691
-2.17681
-2.17675
-2.19972
-2.19965
-2.19952
-2.19933
-2.19909
-2.19879
-2.19844
-2.19805
-2.19764
-2.19722
-2.19679
-2.19636
-2.19595
-2.19557
-2.19522
-2.19492
-2.19467
-2.19448
-2.19436
-2.19429
-2.21811
-2.21803
-2.21789
-2.21766
-2.21737
-2.21702
-2.21662
-2.21617
-2.21569
-2.21519
-2.21468
-2.21418
-2.2137
-2.21326
-2.21285
-2.2125
-2.21221
-2.21199
-2.21184
-2.21176
-2.23658
-2.23649
-2.23632
-2.23606
-2.23572
-2.23531
-2.23483
-2.23431
-2.23375
-2.23316
-2.23257
-2.23199
-2.23143
-2.2309
-2.23043
-2.23002
-2.22968
-2.22942
-2.22925
-2.22916
-2.25515
-2.25504
-2.25484
-2.25453
-2.25414
-2.25365
-2.2531
-2.25249
-2.25183
-2.25115
-2.25046
-2.24977
-2.24912
-2.2485
-2.24795
-2.24747
-2.24707
-2.24677
-2.24657
-2.24646
-2.27381
-2.27369
-2.27345
-2.2731
-2.27263
-2.27207
-2.27142
-2.2707
-2.26994
-2.26914
-2.26833
-2.26753
-2.26676
-2.26605
-2.2654
-2.26484
-2.26437
-2.26402
-2.26378
-2.26366
-2.29261
-2.29246
-2.29218
-2.29177
-2.29122
-2.29056
-2.28981
-2.28897
-2.28807
-2.28714
-2.28619
-2.28526
-2.28436
-2.28353
-2.28277
-2.28211
-2.28157
-2.28115
-2.28088
-2.28073
-2.31154
-2.31138
-2.31105
-2.31056
-2.30992
-2.30915
-2.30827
-2.30729
-2.30624
-2.30515
-2.30404
-2.30295
-2.30191
-2.30093
-2.30004
-2.29927
-2.29864
-2.29815
-2.29783
-2.29766
-2.33065
-2.33045
-2.33007
-2.3295
-2.32875
-2.32785
-2.32682
-2.32567
-2.32445
-2.32317
-2.32188
-2.32061
-2.31938
-2.31824
-2.31721
-2.31631
-2.31556
-2.315
-2.31462
-2.31442
-2.34996
-2.34972
-2.34927
-2.3486
-2.34773
-2.34668
-2.34547
-2.34413
-2.3427
-2.34121
-2.3397
-2.33821
-2.33678
-2.33545
-2.33424
-2.33319
-2.33232
-2.33166
-2.33121
-2.33099
-2.36949
-2.36921
-2.36869
-2.36791
-2.36689
-2.36566
-2.36424
-2.36268
-2.361
-2.35927
-2.3575
-2.35577
-2.3541
-2.35253
-2.35112
-2.3499
-2.34888
-2.3481
-2.34759
-2.34732
-2.3893
-2.38897
-2.38835
-2.38744
-2.38625
-2.38481
-2.38315
-2.38133
-2.37937
-2.37734
-2.37528
-2.37325
-2.3713
-2.36948
-2.36783
-2.3664
-2.36521
-2.3643
-2.3637
-2.36338
-2.40942
-2.40902
-2.4083
-2.40723
-2.40584
-2.40416
-2.40223
-2.40009
-2.39781
-2.39544
-2.39303
-2.39066
-2.38839
-2.38626
-2.38433
-2.38266
-2.38127
-2.38021
-2.3795
-2.37913
-2.42992
-2.42942
-2.42858
-2.42734
-2.42571
-2.42375
-2.42149
-2.419
-2.41633
-2.41356
-2.41076
-2.40799
-2.40533
-2.40284
-2.40059
-2.39864
-2.39702
-2.39578
-2.39495
-2.39452
-2.45083
-2.45025
-2.44927
-2.44781
-2.44591
-2.44361
-2.44098
-2.43806
-2.43495
-2.43171
-2.42844
-2.42521
-2.4221
-2.4192
-2.41658
-2.4143
-2.41241
-2.41096
-2.40999
-2.40947
-2.47223
-2.47156
-2.47041
-2.4687
-2.46648
-2.4638
-2.46072
-2.45732
-2.45368
-2.4499
-2.44608
-2.44231
-2.43868
-2.4353
-2.43224
-2.42958
-2.42737
-2.42569
-2.42455
-2.42393
-2.49421
-2.49344
-2.49208
-2.49009
-2.48749
-2.48436
-2.48076
-2.47679
-2.47254
-2.46813
-2.46367
-2.45926
-2.45504
-2.45109
-2.44752
-2.44441
-2.44185
-2.43988
-2.43856
-2.43778
-2.51688
-2.51597
-2.51439
-2.51205
-2.50901
-2.50535
-2.50115
-2.49651
-2.49155
-2.48641
-2.4812
-2.47606
-2.47113
-2.46652
-2.46236
-2.45873
-2.45574
-2.45344
-2.45189
-2.451
-2.54033
-2.53927
-2.53741
-2.53468
-2.53113
-2.52685
-2.52195
-2.51653
-2.51074
-2.50473
-2.49865
-2.49266
-2.48691
-2.48153
-2.47668
-2.47246
-2.46897
-2.46629
-2.46447
-2.46344
-2.56471
-2.56347
-2.56129
-2.5581
-2.55395
-2.54895
-2.54321
-2.53689
-2.53013
-2.52312
-2.51602
-2.50903
-2.50233
-2.49606
-2.49041
-2.48548
-2.48141
-2.47829
-2.47617
-2.47497
-2.59017
-2.58872
-2.58616
-2.58243
-2.57758
-2.57173
-2.56503
-2.55764
-2.54976
-2.54157
-2.5333
-2.52515
-2.51732
-2.51003
-2.50343
-2.4977
-2.49296
-2.48931
-2.48684
-2.48544
-2.61688
-2.61518
-2.61219
-2.60782
-2.60215
-2.59531
-2.58749
-2.57886
-2.56965
-2.5601
-2.55045
-2.54095
-2.53183
-2.52333
-2.51565
-2.50897
-2.50345
-2.4992
-2.49631
-2.49468
-2.64507
-2.64308
-2.63957
-2.63445
-2.62782
-2.61983
-2.61068
-2.60061
-2.58986
-2.57871
-2.56746
-2.55638
-2.54576
-2.53586
-2.52692
-2.51915
-2.51272
-2.50777
-2.50441
-2.50251
-2.67498
-2.67264
-2.66853
-2.66253
-2.65477
-2.64543
-2.63474
-2.62297
-2.61042
-2.59742
-2.5843
-2.57139
-2.55903
-2.5475
-2.5371
-2.52805
-2.52057
-2.51482
-2.51089
-2.50867
-2.7069
-2.70415
-2.69933
-2.6923
-2.68322
-2.6723
-2.6598
-2.64605
-2.6314
-2.61623
-2.60093
-2.5859
-2.5715
-2.5581
-2.546
-2.53548
-2.52678
-2.52009
-2.51551
-2.51293
-2.74117
-2.73792
-2.73227
-2.72404
-2.71341
-2.70063
-2.68601
-2.66994
-2.65284
-2.63515
-2.61732
-2.59981
-2.58306
-2.56747
-2.55341
-2.54119
-2.53108
-2.5233
-2.51797
-2.51496
-2.77817
-2.77436
-2.76771
-2.75807
-2.74562
-2.73066
-2.71356
-2.69478
-2.67481
-2.65417
-2.6334
-2.61302
-2.59354
-2.57542
-2.55909
-2.5449
-2.53316
-2.52412
-2.51793
-2.51442
-2.81839
-2.81388
-2.80608
-2.79477
-2.78018
-2.76266
-2.74266
-2.7207
-2.69738
-2.6733
-2.6491
-2.62539
-2.60275
-2.58171
-2.56275
-2.5463
-2.53268
-2.52217
-2.51498
-2.5109
-2.86234
-2.85702
-2.84784
-2.83458
-2.81749
-2.79696
-2.77354
-2.74786
-2.72061
-2.69253
-2.66435
-2.63677
-2.61047
-2.58606
-2.56408
-2.545
-2.52921
-2.51702
-2.50867
-2.50392
-2.91066
-2.90437
-2.89357
-2.87802
-2.85797
-2.83391
-2.80647
-2.77642
-2.74459
-2.71183
-2.67902
-2.64696
-2.61643
-2.58814
-2.56269
-2.54059
-2.52229
-2.50813
-2.49845
-2.49293
-2.96408
-2.95663
-2.94391
-2.92568
-2.90218
-2.87395
-2.84176
-2.80658
-2.76937
-2.73117
-2.69297
-2.65573
-2.62033
-2.58758
-2.55814
-2.53257
-2.51136
-2.49491
-2.4837
-2.47728
-3.02343
-3.01448
-2.99963
-2.97829
-2.95072
-2.91758
-2.87978
-2.83854
-2.79503
-2.75046
-2.70601
-2.66279
-2.6218
-2.58393
-2.54995
-2.52039
-2.49582
-2.47662
-2.4636
-2.45619
-3.0896
-3.07866
-3.06159
-3.03665
-3.00435
-2.96538
-2.92091
-2.87252
-2.82161
-2.7696
-2.7179
-2.66778
-2.62038
-2.57668
-2.53753
-2.50342
-2.47493
-2.45238
-2.43703
-2.42869
-3.16364
-3.15143
-3.13071
-3.10166
-3.06394
-3.0181
-2.96567
-2.90876
-2.84911
-2.78841
-2.72831
-2.67028
-2.61557
-2.56529
-2.52032
-2.48098
-2.44783
-2.42121
-2.40401
-2.39363
-3.24704
-3.23266
-3.20831
-3.17432
-3.13107
-3.07544
-3.01462
-2.9474
-2.87747
-2.80662
-2.73678
-2.66967
-2.60666
-2.54918
-2.49685
-2.45277
-2.41355
-2.38186
-2.36216
-2.34991
-3.33941
-3.32396
-3.29565
-3.25445
-3.19523
-3.1379
-3.06717
-2.9883
-2.90644
-2.82377
-2.74268
-2.66517
-2.59254
-2.52642
-2.46567
-2.40816
-2.37018
-2.33265