/*--------------------------------*- C++ -*----------------------------------*\
| =========                 |                                                 |
| \\      /  F ield         | OpenFOAM: The Open Source CFD Toolbox           |
|  \\    /   O peration     | Version:  5.x                                   |
|   \\  /    A nd           | Web:      www.OpenFOAM.org                      |
|    \\/     M anipulation  |                                                 |
\*---------------------------------------------------------------------------*/
FoamFile
{
    version     2.0;
    format      ascii;
    class       surfaceScalarField;
    location    "0.2";
    object      phi;
}
// * * * * * * * * * * * * * * * * * * * * * * * * * * * * * * * * * * * * * //

dimensions      [0 3 -1 0 0 0 0];

internalField   nonuniform List<scalar> 
15580
(
-2.86717e-17
-5.81082e-11
-4.98187e-17
-1.9722e-10
-7.35042e-17
-3.44928e-10
-8.01718e-17
-4.89338e-10
-8.02932e-17
-6.22269e-10
-7.6154e-17
-7.38296e-10
-6.93351e-17
-8.33862e-10
-6.12694e-17
-9.0678e-10
-5.31076e-17
-9.55843e-10
-4.57472e-17
-9.80479e-10
-3.9952e-17
-9.80479e-10
-3.64574e-17
-9.55843e-10
-3.59573e-17
-9.0678e-10
-3.91537e-17
-8.33862e-10
-4.68108e-17
-7.38296e-10
-5.98547e-17
-6.22269e-10
-7.8899e-17
-4.89338e-10
-1.08775e-16
-3.44928e-10
-1.77549e-16
-1.9722e-10
-5.81081e-11
-1.83978e-17
-5.81082e-11
-4.37673e-17
-1.9722e-10
-6.40201e-17
-3.44928e-10
-7.61621e-17
-4.89338e-10
-7.82159e-17
-6.22269e-10
-7.4891e-17
-7.38296e-10
-6.83158e-17
-8.33862e-10
-6.00915e-17
-9.0678e-10
-5.149e-17
-9.55843e-10
-4.34716e-17
-9.80479e-10
-3.68288e-17
-9.80479e-10
-3.23258e-17
-9.55843e-10
-3.06967e-17
-9.0678e-10
-3.26962e-17
-8.33862e-10
-3.92429e-17
-7.38296e-10
-5.17275e-17
-6.22269e-10
-7.11871e-17
-4.89338e-10
-1.01791e-16
-3.44928e-10
-1.28245e-16
-1.9722e-10
-5.81083e-11
-1.49002e-17
-5.81082e-11
-3.85895e-17
-1.9722e-10
-5.85659e-17
-3.44928e-10
-7.08124e-17
-4.89338e-10
-7.44261e-17
-6.22269e-10
-7.21451e-17
-7.38296e-10
-6.60625e-17
-8.33862e-10
-5.78571e-17
-9.0678e-10
-4.88793e-17
-9.55843e-10
-4.01424e-17
-9.80479e-10
-3.25205e-17
-9.80479e-10
-2.68359e-17
-9.55843e-10
-2.37713e-17
-9.0678e-10
-2.38697e-17
-8.33862e-10
-2.76327e-17
-7.38296e-10
-3.53068e-17
-6.22269e-10
-4.51467e-17
-4.89338e-10
-5.50473e-17
-3.44928e-10
-4.04708e-17
-1.9722e-10
-5.81083e-11
-1.47146e-17
-5.81082e-11
-3.92441e-17
-1.9722e-10
-5.80725e-17
-3.44928e-10
-6.87292e-17
-4.89338e-10
-7.21159e-17
-6.22269e-10
-6.99328e-17
-7.38296e-10
-6.3844e-17
-8.33862e-10
-5.54097e-17
-9.0678e-10
-4.59129e-17
-9.55843e-10
-3.63869e-17
-9.80479e-10
-2.7779e-17
-9.80479e-10
-2.09384e-17
-9.55843e-10
-1.65007e-17
-9.0678e-10
-1.48235e-17
-8.33862e-10
-1.61364e-17
-7.38296e-10
-2.03882e-17
-6.22269e-10
-2.62983e-17
-4.89338e-10
-3.15102e-17
-3.44928e-10
-1.18964e-17
-1.9722e-10
-5.81083e-11
-2.06801e-17
-5.81081e-11
-4.46059e-17
-1.9722e-10
-6.12251e-17
-3.44928e-10
-6.96294e-17
-4.89338e-10
-7.15809e-17
-6.22269e-10
-6.84498e-17
-7.38296e-10
-6.16652e-17
-8.33862e-10
-5.26244e-17
-9.0678e-10
-4.24491e-17
-9.55843e-10
-3.21387e-17
-9.80479e-10
-2.2637e-17
-9.80479e-10
-1.47889e-17
-9.55843e-10
-9.17287e-18
-9.0678e-10
-6.07354e-18
-8.33862e-10
-5.78551e-18
-7.38296e-10
-8.67506e-18
-6.22269e-10
-1.53769e-17
-4.89338e-10
-2.35619e-17
-3.44928e-10
-2.6e-17
-1.9722e-10
-5.81083e-11
-2.96451e-17
-5.81081e-11
-5.1878e-17
-1.9722e-10
-6.58267e-17
-3.44928e-10
-7.16855e-17
-4.89338e-10
-7.15754e-17
-6.22269e-10
-6.68599e-17
-7.38296e-10
-5.89514e-17
-8.33862e-10
-4.91027e-17
-9.0678e-10
-3.82735e-17
-9.55843e-10
-2.73627e-17
-9.80479e-10
-1.72127e-17
-9.80479e-10
-8.58684e-18
-9.55843e-10
-1.943e-18
-9.0678e-10
2.57869e-18
-8.33862e-10
4.72712e-18
-7.38296e-10
4.2065e-18
-6.22269e-10
1.8473e-19
-4.89338e-10
-7.26741e-18
-3.44928e-10
-1.52005e-17
-1.9722e-10
-5.81084e-11
-3.62421e-17
-5.81081e-11
-5.78304e-17
-1.9722e-10
-6.9335e-17
-3.44928e-10
-7.28546e-17
-4.89338e-10
-7.05987e-17
-6.22269e-10
-6.41655e-17
-7.38296e-10
-5.51048e-17
-8.33862e-10
-4.45639e-17
-9.0678e-10
-3.3376e-17
-9.55843e-10
-2.22817e-17
-9.80479e-10
-1.19292e-17
-9.80479e-10
-2.89298e-18
-9.55843e-10
4.56449e-18
-9.0678e-10
1.04921e-17
-8.33862e-10
1.48681e-17
-7.38296e-10
1.78955e-17
-6.22269e-10
1.89707e-17
-4.89338e-10
1.63362e-17
-3.44928e-10
1.18643e-17
-1.9722e-10
-5.81083e-11
-3.8978e-17
-5.8108e-11
-6.09521e-17
-1.9722e-10
-7.04098e-17
-3.44928e-10
-7.1833e-17
-4.89338e-10
-6.76101e-17
-6.22269e-10
-5.96847e-17
-7.38296e-10
-4.97464e-17
-8.33862e-10
-3.89074e-17
-9.0678e-10
-2.78915e-17
-9.55843e-10
-1.72295e-17
-9.80479e-10
-7.2772e-18
-9.80479e-10
1.65528e-18
-9.55843e-10
9.56658e-18
-9.0678e-10
1.66526e-17
-8.33862e-10
2.30271e-17
-7.38296e-10
2.91345e-17
-6.22269e-10
3.41269e-17
-4.89338e-10
3.3746e-17
-3.44928e-10
2.25716e-17
-1.9722e-10
-5.81083e-11
-4.0448e-17
-5.8108e-11
-6.13262e-17
-1.97219e-10
-6.85551e-17
-3.44928e-10
-6.79495e-17
-4.89338e-10
-6.20357e-17
-6.22269e-10
-5.30064e-17
-7.38296e-10
-4.26281e-17
-8.33862e-10
-3.20216e-17
-9.0678e-10
-2.17855e-17
-9.55843e-10
-1.22134e-17
-9.80479e-10
-3.39444e-18
-9.80479e-10
4.85327e-18
-9.55843e-10
1.29389e-17
-9.0678e-10
2.11626e-17
-8.33862e-10
2.93998e-17
-7.38296e-10
3.80014e-17
-6.22269e-10
4.5723e-17
-4.89338e-10
4.6583e-17
-3.44928e-10
3.12987e-17
-1.9722e-10
-5.81083e-11
-3.98116e-17
-5.8108e-11
-5.84125e-17
-1.97219e-10
-6.3167e-17
-3.44928e-10
-6.07293e-17
-4.89338e-10
-5.35001e-17
-6.22269e-10
-4.37846e-17
-7.38296e-10
-3.34284e-17
-8.33862e-10
-2.35367e-17
-9.0678e-10
-1.45437e-17
-9.55843e-10
-6.54361e-18
-9.8048e-10
4.65758e-19
-9.80479e-10
7.31859e-18
-9.55843e-10
1.54024e-17
-9.0678e-10
2.52708e-17
-8.33862e-10
3.56882e-17
-7.38296e-10
4.64354e-17
-6.22269e-10
5.60876e-17
-4.89338e-10
5.88136e-17
-3.44928e-10
4.20192e-17
-1.9722e-10
-5.81082e-11
-3.67492e-17
-5.81079e-11
-5.1611e-17
-1.97219e-10
-5.38931e-17
-3.44928e-10
-4.9965e-17
-4.89338e-10
-4.1762e-17
-6.22269e-10
-3.17226e-17
-7.38296e-10
-2.17307e-17
-8.33862e-10
-1.27665e-17
-9.0678e-10
-5.15106e-18
-9.55843e-10
1.07243e-18
-9.8048e-10
6.09637e-18
-9.80479e-10
1.08273e-17
-9.55843e-10
1.84938e-17
-9.0678e-10
3.02383e-17
-8.33862e-10
4.33376e-17
-7.38296e-10
5.55826e-17
-6.22269e-10
6.61274e-17
-4.89338e-10
7.12487e-17
-3.44928e-10
5.50201e-17
-1.9722e-10
-5.81082e-11
-3.02486e-17
-5.81079e-11
-4.07077e-17
-1.97219e-10
-4.10141e-17
-3.44928e-10
-3.59305e-17
-4.89338e-10
-2.68788e-17
-6.22269e-10
-1.67658e-17
-7.38296e-10
-7.33066e-18
-8.33862e-10
7.57686e-19
-9.0678e-10
7.43916e-18
-9.55843e-10
1.27051e-17
-9.8048e-10
1.6201e-17
-9.80479e-10
1.87092e-17
-9.55843e-10
2.40485e-17
-9.0678e-10
3.50939e-17
-8.33862e-10
5.02181e-17
-7.38296e-10
6.31768e-17
-6.22269e-10
7.31036e-17
-4.89338e-10
7.99712e-17
-3.44928e-10
6.53048e-17
-1.9722e-10
-5.81081e-11
-1.86632e-17
-5.81079e-11
-2.89288e-17
-1.97219e-10
-2.68604e-17
-3.44928e-10
-1.94918e-17
-4.89338e-10
-9.23437e-18
-6.22269e-10
7.51171e-19
-7.38296e-10
9.26987e-18
-8.33862e-10
1.63055e-17
-9.0678e-10
2.20888e-17
-9.55843e-10
2.63821e-17
-9.8048e-10
2.91234e-17
-9.8048e-10
3.19783e-17
-9.55843e-10
3.55946e-17
-9.0678e-10
4.28388e-17
-8.33862e-10
5.42693e-17
-7.38296e-10
6.46345e-17
-6.22269e-10
7.23026e-17
-4.89338e-10
7.80468e-17
-3.44928e-10
6.46715e-17
-1.9722e-10
-5.81081e-11
-1.85325e-17
-5.81079e-11
-2.03849e-17
-1.97219e-10
-1.23089e-17
-3.44928e-10
-6.62438e-19
-4.89338e-10
1.11413e-17
-6.22269e-10
2.0431e-17
-7.38296e-10
2.72142e-17
-8.33862e-10
3.23178e-17
-9.0678e-10
3.61855e-17
-9.55843e-10
3.91263e-17
-9.8048e-10
4.23555e-17
-9.8048e-10
4.67693e-17
-9.55843e-10
5.04844e-17
-9.0678e-10
5.3e-17
-8.33862e-10
5.64324e-17
-7.38296e-10
6.06325e-17
-6.22269e-10
6.26551e-17
-4.89338e-10
6.20398e-17
-3.44928e-10
4.85558e-17
-1.9722e-10
-5.8108e-11
-2.20564e-17
-5.81078e-11
-8.80315e-18
-1.97219e-10
6.89845e-18
-3.44928e-10
2.37827e-17
-4.89338e-10
3.55251e-17
-6.22269e-10
4.22948e-17
-7.38296e-10
4.57947e-17
-8.33862e-10
4.7598e-17
-9.0678e-10
4.87714e-17
-9.55843e-10
5.04596e-17
-9.8048e-10
5.37486e-17
-9.8048e-10
5.8232e-17
-9.55843e-10
6.18045e-17
-9.0678e-10
6.20685e-17
-8.33862e-10
5.96341e-17
-7.38296e-10
5.59352e-17
-6.22269e-10
4.88169e-17
-4.89338e-10
3.7181e-17
-3.44928e-10
2.12271e-17
-1.9722e-10
-5.8108e-11
-8.44914e-18
-5.81078e-11
1.92089e-17
-1.97219e-10
4.07978e-17
-3.44928e-10
5.71844e-17
-4.89338e-10
6.45484e-17
-6.22269e-10
6.57038e-17
-7.38296e-10
6.38506e-17
-8.33862e-10
6.12564e-17
-9.0678e-10
5.94246e-17
-9.55843e-10
5.9555e-17
-9.8048e-10
6.21529e-17
-9.8048e-10
6.62144e-17
-9.55843e-10
6.95769e-17
-9.0678e-10
6.8919e-17
-8.33862e-10
6.30395e-17
-7.38296e-10
5.30432e-17
-6.22269e-10
3.76307e-17
-4.89338e-10
1.52601e-17
-3.44928e-10
-4.76166e-18
-1.9722e-10
-5.8108e-11
3.69192e-17
-5.81079e-11
7.12917e-17
-1.9722e-10
9.14729e-17
-3.44928e-10
9.81959e-17
-4.89338e-10
9.53496e-17
-6.22269e-10
8.76882e-17
-7.38296e-10
7.90448e-17
-8.33862e-10
7.17526e-17
-9.0678e-10
6.70337e-17
-9.55843e-10
6.55422e-17
-9.8048e-10
6.72006e-17
-9.8048e-10
7.07412e-17
-9.55843e-10
7.38304e-17
-9.0678e-10
7.30667e-17
-8.33862e-10
6.64813e-17
-7.38296e-10
5.41831e-17
-6.22269e-10
3.49881e-17
-4.89338e-10
7.51797e-18
-3.44928e-10
-1.43151e-17
-1.9722e-10
-5.8108e-11
9.38715e-17
-5.8108e-11
1.31051e-16
-1.9722e-10
1.42916e-16
-3.44928e-10
1.35602e-16
-4.89338e-10
1.19893e-16
-6.22269e-10
1.02853e-16
-7.38296e-10
8.80079e-17
-8.33862e-10
7.68615e-17
-9.0678e-10
6.99058e-17
-9.55843e-10
6.71557e-17
-9.8048e-10
6.80955e-17
-9.8048e-10
7.13713e-17
-9.55843e-10
7.47118e-17
-9.0678e-10
7.50608e-17
-8.33862e-10
7.01794e-17
-7.38296e-10
5.96369e-17
-6.22269e-10
4.24938e-17
-4.89338e-10
1.7208e-17
-3.44928e-10
-4.35444e-18
-1.9722e-10
-5.8108e-11
1.23841e-16
-5.81081e-11
1.68777e-16
-1.9722e-10
1.70663e-16
-3.44928e-10
1.52497e-16
-4.89338e-10
1.28369e-16
-6.22269e-10
1.05625e-16
-7.38296e-10
8.74713e-17
-8.33862e-10
7.45104e-17
-9.0678e-10
6.66024e-17
-9.55843e-10
6.33434e-17
-9.8048e-10
6.40418e-17
-9.8048e-10
6.7442e-17
-9.55843e-10
7.15878e-17
-9.0678e-10
7.39786e-17
-8.33862e-10
7.2538e-17
-7.38296e-10
6.66213e-17
-6.22269e-10
5.60296e-17
-4.89338e-10
3.82219e-17
-3.44928e-10
1.89023e-17
-1.97219e-10
-5.8108e-11
1.2828e-16
-5.81082e-11
1.68831e-16
-1.9722e-10
1.63003e-16
-3.44928e-10
1.41123e-16
-4.89338e-10
1.15775e-16
-6.22269e-10
9.3328e-17
-7.38296e-10
7.59389e-17
-8.33862e-10
6.37826e-17
-9.0678e-10
5.65079e-17
-9.55843e-10
5.36602e-17
-9.8048e-10
5.4626e-17
-9.8048e-10
5.84002e-17
-9.55843e-10
6.34903e-17
-9.0678e-10
6.80555e-17
-8.33862e-10
7.05056e-17
-7.38296e-10
7.03204e-17
-6.22269e-10
6.76712e-17
-4.89338e-10
5.87374e-17
-3.44928e-10
4.16398e-17
-1.97219e-10
-5.8108e-11
1.16376e-16
-5.81083e-11
1.30792e-16
-1.9722e-10
1.22669e-16
-3.44928e-10
1.04733e-16
-4.89338e-10
8.47948e-17
-6.22269e-10
6.77531e-17
-7.38296e-10
5.46264e-17
-8.33862e-10
4.55024e-17
-9.0678e-10
4.02266e-17
-9.55843e-10
3.85675e-17
-9.8048e-10
4.01342e-17
-9.8048e-10
4.42414e-17
-9.55843e-10
4.98802e-17
-9.0678e-10
5.58494e-17
-8.33862e-10
6.11414e-17
-7.38296e-10
6.5527e-17
-6.22269e-10
6.91123e-17
-4.89338e-10
6.72559e-17
-3.44928e-10
5.23534e-17
-1.97219e-10
-5.81079e-11
4.9957e-17
-5.81084e-11
6.00016e-17
-1.9722e-10
5.95717e-17
-3.44928e-10
5.23385e-17
-4.89338e-10
4.28363e-17
-6.22269e-10
3.40378e-17
-7.38296e-10
2.69562e-17
-8.33862e-10
2.20308e-17
-9.0678e-10
1.95076e-17
-9.55843e-10
1.94418e-17
-9.8048e-10
2.1669e-17
-9.8048e-10
2.57885e-17
-9.55843e-10
3.12058e-17
-9.0678e-10
3.72657e-17
-8.33862e-10
4.3511e-17
-7.38296e-10
5.00146e-17
-6.22269e-10
5.69048e-17
-4.89338e-10
5.88687e-17
-3.44928e-10
4.70521e-17
-1.97219e-10
-5.81079e-11
-1.79857e-17
-5.81084e-11
-1.57551e-18
-1.9722e-10
1.42902e-18
-3.44928e-10
1.66232e-18
-4.89338e-10
6.4801e-19
-6.22269e-10
-1.0168e-18
-7.38296e-10
-2.57664e-18
-8.33862e-10
-3.44189e-18
-9.0678e-10
-3.19483e-18
-9.55843e-10
-1.67626e-18
-9.8048e-10
1.03357e-18
-9.8048e-10
4.6929e-18
-9.55843e-10
9.00489e-18
-9.0678e-10
1.37701e-17
-8.33862e-10
1.90189e-17
-7.38296e-10
2.53097e-17
-6.22269e-10
3.31764e-17
-4.89338e-10
3.6704e-17
-3.44928e-10
2.87404e-17
-1.97219e-10
-5.81078e-11
-2.13262e-17
-5.81083e-11
-3.0715e-17
-1.9722e-10
-3.51219e-17
-3.44928e-10
-3.57924e-17
-4.89338e-10
-3.43954e-17
-6.22269e-10
-3.22878e-17
-7.38296e-10
-3.01522e-17
-8.33862e-10
-2.78977e-17
-9.0678e-10
-2.53504e-17
-9.55843e-10
-2.2517e-17
-9.8048e-10
-1.95923e-17
-9.8048e-10
-1.6837e-17
-9.55843e-10
-1.44083e-17
-9.0678e-10
-1.21596e-17
-8.33862e-10
-9.63823e-18
-7.38296e-10
-5.81288e-18
-6.22269e-10
-4.92292e-19
-4.89338e-10
2.75751e-18
-3.44928e-10
3.05172e-18
-1.97219e-10
-5.81078e-11
-2.0987e-17
-5.81083e-11
-4.4695e-17
-1.9722e-10
-5.83388e-17
-3.44928e-10
-6.26967e-17
-4.89338e-10
-6.15779e-17
-6.22269e-10
-5.78843e-17
-7.38296e-10
-5.35597e-17
-8.33862e-10
-4.9135e-17
-9.0678e-10
-4.48442e-17
-9.55843e-10
-4.10109e-17
-9.8048e-10
-3.8083e-17
-9.8048e-10
-3.64881e-17
-9.55843e-10
-3.6395e-17
-9.0678e-10
-3.74506e-17
-8.33862e-10
-3.88905e-17
-7.38296e-10
-3.97568e-17
-6.22269e-10
-4.09881e-17
-4.89338e-10
-3.8256e-17
-3.44928e-10
-2.96169e-17
-1.97219e-10
-5.81079e-11
-3.22675e-17
-5.81083e-11
-6.06809e-17
-1.9722e-10
-7.71164e-17
-3.44928e-10
-8.32261e-17
-4.89338e-10
-8.2041e-17
-6.22269e-10
-7.73615e-17
-7.38296e-10
-7.16376e-17
-8.33862e-10
-6.56934e-17
-9.0678e-10
-6.01036e-17
-9.55843e-10
-5.55272e-17
-9.8048e-10
-5.26982e-17
-9.8048e-10
-5.2241e-17
-9.55843e-10
-5.43789e-17
-9.0678e-10
-5.85997e-17
-8.33862e-10
-6.37494e-17
-7.38296e-10
-6.89986e-17
-6.22269e-10
-7.40876e-17
-4.89338e-10
-6.98512e-17
-3.44928e-10
-5.59617e-17
-1.97219e-10
-5.81079e-11
-5.11147e-17
-5.81082e-11
-7.91333e-17
-1.9722e-10
-9.36083e-17
-3.44928e-10
-9.84367e-17
-4.89338e-10
-9.59884e-17
-6.22269e-10
-9.03063e-17
-7.38296e-10
-8.35964e-17
-8.33862e-10
-7.65728e-17
-9.0678e-10
-7.00537e-17
-9.55843e-10
-6.49776e-17
-9.8048e-10
-6.22975e-17
-9.8048e-10
-6.27548e-17
-9.55843e-10
-6.65659e-17
-9.0678e-10
-7.3052e-17
-8.33862e-10
-8.06565e-17
-7.38296e-10
-8.7717e-17
-6.22269e-10
-9.10635e-17
-4.89338e-10
-8.3456e-17
-3.44928e-10
-5.73594e-17
-1.97219e-10
-5.8108e-11
-6.77452e-17
-5.81082e-11
-9.59342e-17
-1.9722e-10
-1.05555e-16
-3.44928e-10
-1.07033e-16
-4.89338e-10
-1.02818e-16
-6.22269e-10
-9.62825e-17
-7.38296e-10
-8.88661e-17
-8.33862e-10
-8.11603e-17
-9.0678e-10
-7.41024e-17
-9.55843e-10
-6.88257e-17
-9.8048e-10
-6.63772e-17
-9.8048e-10
-6.74933e-17
-9.55843e-10
-7.23268e-17
-9.0678e-10
-8.01431e-17
-8.33862e-10
-8.93214e-17
-7.38296e-10
-9.74941e-17
-6.22269e-10
-9.98354e-17
-4.89338e-10
-8.95629e-17
-3.44928e-10
-6.02481e-17
-1.9722e-10
-5.8108e-11
-7.54926e-17
-5.81081e-11
-1.02661e-16
-1.9722e-10
-1.08682e-16
-3.44928e-10
-1.07035e-16
-4.89338e-10
-1.01656e-16
-6.22269e-10
-9.4891e-17
-7.38296e-10
-8.72258e-17
-8.33862e-10
-7.92904e-17
-9.0678e-10
-7.21188e-17
-9.55843e-10
-6.69965e-17
-9.8048e-10
-6.48853e-17
-9.8048e-10
-6.64221e-17
-9.55843e-10
-7.17077e-17
-9.0678e-10
-8.01606e-17
-8.33862e-10
-9.05735e-17
-7.38296e-10
-1.00627e-16
-6.22269e-10
-1.05534e-16
-4.89338e-10
-9.73239e-17
-3.44928e-10
-5.48032e-17
-1.9722e-10
-5.81081e-11
-6.94758e-17
-5.8108e-11
-9.49031e-17
-1.9722e-10
-1.00519e-16
-3.44928e-10
-9.80773e-17
-4.89338e-10
-9.27612e-17
-6.22269e-10
-8.64527e-17
-7.38296e-10
-7.88517e-17
-8.33862e-10
-7.1175e-17
-9.0678e-10
-6.44773e-17
-9.55843e-10
-5.98514e-17
-9.8048e-10
-5.80929e-17
-9.8048e-10
-5.97205e-17
-9.55843e-10
-6.48555e-17
-9.0678e-10
-7.32902e-17
-8.33862e-10
-8.46532e-17
-7.38296e-10
-9.79107e-17
-6.22269e-10
-1.09441e-16
-4.89338e-10
-1.10162e-16
-3.44928e-10
-7.91596e-17
-1.9722e-10
-5.81082e-11
-5.05679e-17
-5.8108e-11
-7.37555e-17
-1.97219e-10
-8.12595e-17
-3.44928e-10
-8.05758e-17
-4.89338e-10
-7.71192e-17
-6.22269e-10
-7.17386e-17
-7.38296e-10
-6.49815e-17
-8.33862e-10
-5.81586e-17
-9.0678e-10
-5.2341e-17
-9.55843e-10
-4.83272e-17
-9.8048e-10
-4.67125e-17
-9.8048e-10
-4.78693e-17
-9.55843e-10
-5.19562e-17
-9.0678e-10
-5.91233e-17
-8.33862e-10
-6.96752e-17
-7.38296e-10
-8.35798e-17
-6.22269e-10
-9.85883e-17
-4.89338e-10
-1.06854e-16
-3.44928e-10
-8.80488e-17
-1.9722e-10
-5.81082e-11
-2.54869e-17
-5.81079e-11
-4.61465e-17
-1.97219e-10
-5.58409e-17
-3.44928e-10
-5.78846e-17
-4.89338e-10
-5.70954e-17
-6.22269e-10
-5.29994e-17
-7.38296e-10
-4.77149e-17
-8.33862e-10
-4.22258e-17
-9.0678e-10
-3.74273e-17
-9.55843e-10
-3.39278e-17
-9.8048e-10
-3.20781e-17
-9.8048e-10
-3.20754e-17
-9.55843e-10
-3.40618e-17
-9.0678e-10
-3.83392e-17
-8.33862e-10
-4.54265e-17
-7.38296e-10
-5.54918e-17
-6.22269e-10
-6.71552e-17
-4.89338e-10
-7.61277e-17
-3.44928e-10
-7.12675e-17
-1.9722e-10
-5.81083e-11
-4.15951e-18
-5.81079e-11
-2.03545e-17
-1.97219e-10
-3.10262e-17
-3.44928e-10
-3.59058e-17
-4.89338e-10
-3.67716e-17
-6.22269e-10
-3.43608e-17
-7.38296e-10
-3.01432e-17
-8.33862e-10
-2.56537e-17
-9.0678e-10
-2.17441e-17
-9.55843e-10
-1.85087e-17
-9.8048e-10
-1.6046e-17
-9.8048e-10
-1.43675e-17
-9.55843e-10
-1.35272e-17
-9.0678e-10
-1.37649e-17
-8.33862e-10
-1.54007e-17
-7.38296e-10
-1.81514e-17
-6.22269e-10
-2.04007e-17
-4.89338e-10
-2.00946e-17
-3.44928e-10
-1.6135e-17
-1.9722e-10
-5.81083e-11
5.85588e-18
-5.81079e-11
-3.31308e-18
-1.97219e-10
-1.15618e-17
-3.44928e-10
-1.66169e-17
-4.89338e-10
-1.78227e-17
-6.22269e-10
-1.67472e-17
-7.38296e-10
-1.38229e-17
-8.33862e-10
-1.03135e-17
-9.0678e-10
-6.98748e-18
-9.55843e-10
-3.76976e-18
-9.8048e-10
-5.18952e-19
-9.8048e-10
2.89653e-18
-9.55843e-10
6.50937e-18
-9.0678e-10
1.01671e-17
-8.33862e-10
1.37053e-17
-7.38296e-10
1.74992e-17
-6.22269e-10
2.26449e-17
-4.89338e-10
2.93563e-17
-3.44928e-10
3.01038e-17
-1.9722e-10
-5.81083e-11
5.62199e-18
-5.81079e-11
4.86631e-18
-1.97219e-10
1.85741e-18
-3.44928e-10
-6.85309e-19
-4.89338e-10
-1.21917e-18
-6.22269e-10
-9.02058e-19
-7.38296e-10
7.88535e-19
-8.33862e-10
3.17303e-18
-9.0678e-10
5.95493e-18
-9.55843e-10
9.20946e-18
-9.8048e-10
1.31279e-17
-9.8048e-10
1.78632e-17
-9.55843e-10
2.34513e-17
-9.0678e-10
2.9744e-17
-8.33862e-10
3.65203e-17
-7.38296e-10
4.36125e-17
-6.22269e-10
5.05449e-17
-4.89338e-10
5.4971e-17
-3.44928e-10
4.3955e-17
-1.9722e-10
-5.81083e-11
1.01657e-18
-5.81079e-11
9.04723e-18
-1.97219e-10
1.30155e-17
-3.44928e-10
1.35731e-17
-4.89338e-10
1.23378e-17
-6.22269e-10
1.22965e-17
-7.38296e-10
1.31583e-17
-8.33862e-10
1.45475e-17
-9.0678e-10
1.67769e-17
-9.55843e-10
1.99772e-17
-9.8048e-10
2.4237e-17
-9.8048e-10
2.96249e-17
-9.55843e-10
3.6088e-17
-9.0678e-10
4.34122e-17
-8.33862e-10
5.12646e-17
-7.38296e-10
5.88445e-17
-6.22269e-10
6.41354e-17
-4.89338e-10
6.33505e-17
-3.44928e-10
4.65064e-17
-1.9722e-10
-5.81082e-11
-2.77311e-20
-5.81079e-11
1.54525e-17
-1.97219e-10
2.48795e-17
-3.44928e-10
2.58458e-17
-4.89338e-10
2.45718e-17
-6.22269e-10
2.3673e-17
-7.38296e-10
2.32663e-17
-8.33862e-10
2.37333e-17
-9.0678e-10
2.54604e-17
-9.55843e-10
2.84578e-17
-9.8048e-10
3.2692e-17
-9.8048e-10
3.81169e-17
-9.55843e-10
4.45376e-17
-9.0678e-10
5.16031e-17
-8.33862e-10
5.88432e-17
-7.38296e-10
6.49634e-17
-6.22269e-10
6.70679e-17
-4.89338e-10
6.07929e-17
-3.44928e-10
4.03794e-17
-1.9722e-10
-5.81082e-11
8.03181e-18
-5.8108e-11
2.90071e-17
-1.97219e-10
3.70715e-17
-3.44928e-10
3.71949e-17
-4.89338e-10
3.49445e-17
-6.22269e-10
3.24016e-17
-7.38296e-10
3.08691e-17
-8.33862e-10
3.06926e-17
-9.0678e-10
3.20054e-17
-9.55843e-10
3.47003e-17
-9.8048e-10
3.86755e-17
-9.8048e-10
4.38004e-17
-9.55843e-10
4.97391e-17
-9.0678e-10
5.59679e-17
-8.33862e-10
6.18544e-17
-7.38296e-10
6.58668e-17
-6.22269e-10
6.48667e-17
-4.89338e-10
5.50118e-17
-3.44928e-10
3.33679e-17
-1.9722e-10
-5.81081e-11
4.64383e-17
-5.8108e-11
5.03541e-17
-1.97219e-10
4.89774e-17
-3.44928e-10
4.55397e-17
-4.89338e-10
4.16068e-17
-6.22269e-10
3.80164e-17
-7.38296e-10
3.58637e-17
-8.33862e-10
3.53393e-17
-9.0678e-10
3.63576e-17
-9.55843e-10
3.87694e-17
-9.8048e-10
4.24557e-17
-9.8048e-10
4.72444e-17
-9.55843e-10
5.2708e-17
-9.0678e-10
5.81836e-17
-8.33862e-10
6.28942e-17
-7.38296e-10
6.534e-17
-6.22269e-10
6.26413e-17
-4.89338e-10
5.20642e-17
-3.44928e-10
3.13358e-17
-1.9722e-10
-5.81081e-11
5.74165e-17
-5.81081e-11
5.33281e-17
-1.97219e-10
4.84498e-17
-3.44928e-10
4.5595e-17
-4.89338e-10
4.25782e-17
-6.22269e-10
3.9832e-17
-7.38296e-10
3.78572e-17
-8.33862e-10
3.73812e-17
-9.0678e-10
3.83456e-17
-9.55843e-10
4.06411e-17
-9.8048e-10
4.41718e-17
-9.8048e-10
4.8759e-17
-9.55843e-10
5.39455e-17
-9.0678e-10
5.90052e-17
-8.33862e-10
6.30693e-17
-7.38296e-10
6.48137e-17
-6.22269e-10
6.19391e-17
-4.89338e-10
5.27612e-17
-3.44928e-10
3.45383e-17
-1.9722e-10
-5.81081e-11
1.68289e-17
-5.81081e-11
3.0962e-17
-1.97219e-10
3.56152e-17
-3.44928e-10
3.75423e-17
-4.89338e-10
3.76073e-17
-6.22269e-10
3.70467e-17
-7.38296e-10
3.63565e-17
-8.33862e-10
3.65087e-17
-9.0678e-10
3.77661e-17
-9.55843e-10
4.02006e-17
-9.8048e-10
4.37799e-17
-9.8048e-10
4.83281e-17
-9.55843e-10
5.33938e-17
-9.0678e-10
5.82467e-17
-8.33862e-10
6.19566e-17
-7.38296e-10
6.3304e-17
-6.22269e-10
6.05257e-17
-4.89338e-10
5.28322e-17
-3.44928e-10
3.67764e-17
-1.97219e-10
-5.8108e-11
-5.27244e-18
-5.81081e-11
8.16107e-18
-1.9722e-10
2.10656e-17
-3.44928e-10
2.7216e-17
-4.89338e-10
2.9916e-17
-6.22269e-10
3.12095e-17
-7.38296e-10
3.194e-17
-8.33862e-10
3.29189e-17
-9.0678e-10
3.46873e-17
-9.55843e-10
3.74735e-17
-9.8048e-10
4.12814e-17
-9.8048e-10
4.59066e-17
-9.55843e-10
5.09043e-17
-9.0678e-10
5.55598e-17
-8.33862e-10
5.88742e-17
-7.38296e-10
5.95583e-17
-6.22269e-10
5.6038e-17
-4.89338e-10
4.7812e-17
-3.44928e-10
3.21289e-17
-1.97219e-10
-5.8108e-11
-1.3505e-17
-5.81081e-11
-3.43602e-18
-1.9722e-10
8.84311e-18
-3.44928e-10
1.73239e-17
-4.89338e-10
2.17369e-17
-6.22269e-10
2.4066e-17
-7.38296e-10
2.56278e-17
-8.33862e-10
2.72887e-17
-9.0678e-10
2.96222e-17
-9.55843e-10
3.28774e-17
-9.8048e-10
3.70167e-17
-9.8048e-10
4.17662e-17
-9.55843e-10
4.66899e-17
-9.0678e-10
5.11163e-17
-8.33862e-10
5.40059e-17
-7.38296e-10
5.39196e-17
-6.22269e-10
4.92254e-17
-4.89338e-10
3.84767e-17
-3.44928e-10
2.12487e-17
-1.97219e-10
-5.8108e-11
-1.11641e-17
-5.8108e-11
-6.59734e-19
-1.9722e-10
7.25724e-18
-3.44928e-10
1.27439e-17
-4.89338e-10
1.53815e-17
-6.22269e-10
1.70206e-17
-7.38296e-10
1.86069e-17
-8.33862e-10
2.06469e-17
-9.0678e-10
2.3483e-17
-9.55843e-10
2.72161e-17
-9.8048e-10
3.16764e-17
-9.8048e-10
3.65099e-17
-9.55843e-10
4.13303e-17
-9.0678e-10
4.56004e-17
-8.33862e-10
4.83761e-17
-7.38296e-10
4.81754e-17
-6.22269e-10
4.33949e-17
-4.89338e-10
3.08534e-17
-3.44928e-10
1.17786e-17
-1.97219e-10
-5.8108e-11
1.09266e-17
-5.81081e-11
1.79565e-17
-1.9722e-10
1.79009e-17
-3.44928e-10
1.40942e-17
-4.89338e-10
1.15872e-17
-6.22269e-10
1.09199e-17
-7.38296e-10
1.18336e-17
-8.33862e-10
1.3961e-17
-9.0678e-10
1.7172e-17
-9.55843e-10
2.12796e-17
-9.8048e-10
2.59227e-17
-9.8048e-10
3.0706e-17
-9.55843e-10
3.53652e-17
-9.0678e-10
3.96196e-17
-8.33862e-10
4.28269e-17
-7.38296e-10
4.37384e-17
-6.22269e-10
4.09178e-17
-4.89338e-10
3.01658e-17
-3.44928e-10
1.25219e-17
-1.97219e-10
-5.8108e-11
3.41366e-17
-5.81081e-11
3.74019e-17
-1.9722e-10
2.807e-17
-3.44928e-10
1.56599e-17
-4.89338e-10
8.07031e-18
-6.22269e-10
5.20248e-18
-7.38296e-10
5.43865e-18
-8.33862e-10
7.57861e-18
-9.0678e-10
1.10437e-17
-9.55843e-10
1.53453e-17
-9.8048e-10
1.99583e-17
-9.8048e-10
2.45057e-17
-9.55843e-10
2.88825e-17
-9.0678e-10
3.3106e-17
-8.33862e-10
3.69866e-17
-7.38296e-10
3.98403e-17
-6.22269e-10
4.04613e-17
-4.89338e-10
3.5237e-17
-3.44928e-10
2.31763e-17
-1.97219e-10
-5.81079e-11
4.79581e-17
-5.81081e-11
4.45882e-17
-1.9722e-10
2.79087e-17
-3.44928e-10
1.13214e-17
-4.89338e-10
2.0083e-18
-6.22269e-10
-1.32131e-18
-7.38296e-10
-1.1419e-18
-8.33862e-10
1.17141e-18
-9.0678e-10
4.81838e-18
-9.55843e-10
9.1354e-18
-9.8048e-10
1.35339e-17
-9.8048e-10
1.7685e-17
-9.55843e-10
2.15786e-17
-9.0678e-10
2.53983e-17
-8.33862e-10
2.93401e-17
-7.38296e-10
3.34667e-17
-6.22269e-10
3.70095e-17
-4.89338e-10
3.79578e-17
-3.44928e-10
3.23053e-17
-1.97219e-10
-5.81079e-11
3.92496e-17
-5.81082e-11
3.28949e-17
-1.9722e-10
1.4288e-17
-3.44928e-10
-1.92083e-19
-4.89338e-10
-7.2176e-18
-6.22269e-10
-9.32101e-18
-7.38296e-10
-8.48741e-18
-8.33862e-10
-5.76476e-18
-9.0678e-10
-1.93826e-18
-9.55843e-10
2.31662e-18
-9.8048e-10
6.46229e-18
-9.8048e-10
1.01803e-17
-9.55843e-10
1.33834e-17
-9.0678e-10
1.6157e-17
-8.33862e-10
1.87707e-17
-7.38296e-10
2.17995e-17
-6.22269e-10
2.5261e-17
-4.89338e-10
2.85286e-17
-3.44928e-10
2.74131e-17
-1.97219e-10
-5.81079e-11
1.57063e-17
-5.81082e-11
6.30577e-18
-1.9722e-10
-7.94858e-18
-3.44928e-10
-1.59543e-17
-4.89338e-10
-1.86613e-17
-6.22269e-10
-1.86227e-17
-7.38296e-10
-1.67003e-17
-8.33862e-10
-1.33777e-17
-9.0678e-10
-9.26724e-18
-9.55843e-10
-4.94542e-18
-9.8048e-10
-8.75015e-19
-9.8048e-10
2.55405e-18
-9.55843e-10
5.00251e-18
-9.0678e-10
6.2195e-18
-8.33862e-10
6.19341e-18
-7.38296e-10
5.4146e-18
-6.22269e-10
4.60762e-18
-4.89338e-10
4.31e-18
-3.44928e-10
4.33392e-18
-1.97219e-10
-5.81079e-11
-1.72759e-17
-5.81082e-11
-2.49817e-17
-1.9722e-10
-3.11533e-17
-3.44928e-10
-3.17786e-17
-4.89338e-10
-3.04466e-17
-6.22269e-10
-2.8387e-17
-7.38296e-10
-2.53219e-17
-8.33862e-10
-2.12805e-17
-9.0678e-10
-1.66743e-17
-9.55843e-10
-1.19721e-17
-9.8048e-10
-7.63285e-18
-9.8048e-10
-4.19108e-18
-9.55843e-10
-2.28988e-18
-9.0678e-10
-2.56421e-18
-8.33862e-10
-5.43416e-18
-7.38296e-10
-1.09315e-17
-6.22269e-10
-1.82391e-17
-4.89338e-10
-2.52623e-17
-3.44928e-10
-2.70635e-17
-1.97219e-10
-5.81079e-11
-3.92011e-17
-5.81081e-11
-4.7279e-17
-1.9722e-10
-4.74602e-17
-3.44928e-10
-4.39996e-17
-4.89338e-10
-4.07545e-17
-6.22269e-10
-3.75596e-17
-7.38296e-10
-3.36153e-17
-8.33862e-10
-2.88221e-17
-9.0678e-10
-2.34914e-17
-9.55843e-10
-1.80682e-17
-9.8048e-10
-1.30817e-17
-9.8048e-10
-9.21946e-18
-9.55843e-10
-7.33163e-18
-9.0678e-10
-8.26851e-18
-8.33862e-10
-1.26995e-17
-7.38296e-10
-2.11197e-17
-6.22269e-10
-3.31712e-17
-4.89338e-10
-4.54237e-17
-3.44928e-10
-4.75899e-17
-1.97219e-10
-5.81079e-11
-4.36046e-17
-5.81081e-11
-5.47193e-17
-1.97219e-10
-5.43161e-17
-3.44928e-10
-5.13944e-17
-4.89338e-10
-4.86498e-17
-6.22269e-10
-4.5359e-17
-7.38296e-10
-4.09581e-17
-8.33862e-10
-3.54912e-17
-9.0678e-10
-2.93072e-17
-9.55843e-10
-2.29237e-17
-9.8048e-10
-1.6977e-17
-9.8048e-10
-1.22402e-17
-9.55843e-10
-9.5928e-18
-9.0678e-10
-9.84766e-18
-8.33862e-10
-1.36301e-17
-7.38296e-10
-2.14653e-17
-6.22269e-10
-3.32142e-17
-4.89338e-10
-4.52846e-17
-3.44928e-10
-4.6809e-17
-1.97219e-10
-5.8108e-11
-3.60323e-17
-5.81081e-11
-5.12337e-17
-1.97219e-10
-5.44455e-17
-3.44928e-10
-5.49935e-17
-4.89338e-10
-5.41633e-17
-6.22269e-10
-5.15195e-17
-7.38296e-10
-4.70594e-17
-8.33862e-10
-4.1064e-17
-9.0678e-10
-3.40249e-17
-9.55843e-10
-2.65942e-17
-9.8048e-10
-1.94989e-17
-9.8048e-10
-1.35072e-17
-9.55843e-10
-9.37766e-18
-9.0678e-10
-7.70802e-18
-8.33862e-10
-8.83718e-18
-7.38296e-10
-1.29143e-17
-6.22269e-10
-1.94717e-17
-4.89338e-10
-2.58847e-17
-3.44928e-10
-2.56234e-17
-1.97219e-10
-5.8108e-11
-2.77225e-17
-5.8108e-11
-4.59637e-17
-1.97219e-10
-5.28252e-17
-3.44928e-10
-5.69656e-17
-4.89338e-10
-5.80791e-17
-6.22269e-10
-5.62662e-17
-7.38296e-10
-5.19099e-17
-8.33862e-10
-4.54917e-17
-9.0678e-10
-3.76856e-17
-9.55843e-10
-2.92785e-17
-9.8048e-10
-2.10323e-17
-9.8048e-10
-1.36415e-17
-9.55843e-10
-7.70331e-18
-9.0678e-10
-3.57823e-18
-8.33862e-10
-1.22932e-18
-7.38296e-10
-3.30193e-19
-6.22269e-10
-1.14626e-19
-4.89338e-10
1.21701e-18
-3.44928e-10
4.94774e-18
-1.97219e-10
-5.8108e-11
-2.53669e-17
-5.8108e-11
-4.42168e-17
-1.97219e-10
-5.27969e-17
-3.44928e-10
-5.90835e-17
-4.89338e-10
-6.13162e-17
-6.22269e-10
-5.99792e-17
-7.38296e-10
-5.55959e-17
-8.33862e-10
-4.87787e-17
-9.0678e-10
-4.03505e-17
-9.55843e-10
-3.11693e-17
-9.8048e-10
-2.19697e-17
-9.8048e-10
-1.33648e-17
-9.55843e-10
-5.86486e-18
-9.0678e-10
2.94866e-19
-8.33862e-10
5.42401e-18
-7.38296e-10
1.01253e-17
-6.22269e-10
1.49703e-17
-4.89338e-10
2.13562e-17
-3.44928e-10
2.54841e-17
-1.97219e-10
-5.8108e-11
-2.6126e-17
-5.8108e-11
-4.41739e-17
-1.97219e-10
-5.44468e-17
-3.44928e-10
-6.17352e-17
-4.89338e-10
-6.42141e-17
-6.22269e-10
-6.28096e-17
-7.38296e-10
-5.81451e-17
-8.33862e-10
-5.09347e-17
-9.0678e-10
-4.20779e-17
-9.55843e-10
-3.24113e-17
-9.8048e-10
-2.26097e-17
-9.8048e-10
-1.32592e-17
-9.55843e-10
-4.88803e-18
-9.0678e-10
2.2514e-18
-8.33862e-10
8.46265e-18
-7.38296e-10
1.42672e-17
-6.22269e-10
1.97277e-17
-4.89338e-10
2.55612e-17
-3.44928e-10
2.68245e-17
-1.97219e-10
-5.8108e-11
-2.44126e-17
-5.8108e-11
-4.16285e-17
-1.97219e-10
-5.65187e-17
-3.44928e-10
-6.41319e-17
-4.89338e-10
-6.63251e-17
-6.22269e-10
-6.44975e-17
-7.38296e-10
-5.94244e-17
-8.33862e-10
-5.19375e-17
-9.0678e-10
-4.29259e-17
-9.55843e-10
-3.31256e-17
-9.8048e-10
-2.31615e-17
-9.8048e-10
-1.3659e-17
-9.55843e-10
-5.19122e-18
-9.0678e-10
1.91431e-18
-8.33862e-10
7.66698e-18
-7.38296e-10
1.22e-17
-6.22269e-10
1.52855e-17
-4.89338e-10
1.62669e-17
-3.44928e-10
1.33124e-17
-1.97219e-10
-5.8108e-11
-2.0038e-17
-5.81079e-11
-4.33884e-17
-1.97219e-10
-5.75564e-17
-3.44928e-10
-6.48672e-17
-4.89338e-10
-6.66682e-17
-6.22269e-10
-6.44276e-17
-7.38296e-10
-5.91479e-17
-8.33862e-10
-5.17309e-17
-9.0678e-10
-4.29447e-17
-9.55843e-10
-3.34005e-17
-9.8048e-10
-2.37202e-17
-9.8048e-10
-1.45816e-17
-9.55843e-10
-6.52939e-18
-9.0678e-10
8.79224e-20
-8.33862e-10
4.91354e-18
-7.38296e-10
7.65827e-18
-6.22269e-10
8.23285e-18
-4.89338e-10
4.70797e-18
-3.44928e-10
-1.78419e-18
-1.97219e-10
-5.8108e-11
-1.33147e-17
-5.81079e-11
-3.36328e-17
-1.97219e-10
-5.33015e-17
-3.44928e-10
-6.19475e-17
-4.89338e-10
-6.41022e-17
-6.22269e-10
-6.20267e-17
-7.38296e-10
-5.7116e-17
-8.33862e-10
-5.0283e-17
-9.0678e-10
-4.21296e-17
-9.55843e-10
-3.32019e-17
-9.8048e-10
-2.41659e-17
-9.8048e-10
-1.57047e-17
-9.55843e-10
-8.25238e-18
-9.0678e-10
-2.08621e-18
-8.33862e-10
2.27386e-18
-7.38296e-10
4.41212e-18
-6.22269e-10
4.59513e-18
-4.89338e-10
8.2408e-19
-3.44928e-10
-5.5298e-18
-1.97219e-10
-5.8108e-11
-1.34012e-17
-5.81079e-11
-3.26505e-17
-1.97219e-10
-4.96482e-17
-3.44928e-10
-5.75333e-17
-4.89338e-10
-5.94086e-17
-6.22269e-10
-5.76621e-17
-7.38296e-10
-5.35398e-17
-8.33862e-10
-4.76612e-17
-9.0678e-10