/*--------------------------------*- C++ -*----------------------------------*\
| =========                 |                                                 |
| \\      /  F ield         | OpenFOAM: The Open Source CFD Toolbox           |
|  \\    /   O peration     | Version:  5.x                                   |
|   \\  /    A nd           | Web:      www.OpenFOAM.org                      |
|    \\/     M anipulation  |                                                 |
\*---------------------------------------------------------------------------*/
FoamFile
{
    version     2.0;
    format      ascii;
    class       volVectorField;
    location    "0.2";
    object      U;
}
// * * * * * * * * * * * * * * * * * * * * * * * * * * * * * * * * * * * * * //

dimensions      [0 1 -1 0 0 0 0];

internalField   nonuniform List<vector> 
8000
(
(-1.99407e-10 -0.00116216 0)
(-8.32314e-10 -0.00394439 0)
(-1.27736e-09 -0.00689856 0)
(-1.58348e-09 -0.00978676 0)
(-1.64216e-09 -0.0124454 0)
(-1.58412e-09 -0.0147659 0)
(-1.46414e-09 -0.0166772 0)
(-1.30884e-09 -0.0181356 0)
(-1.14172e-09 -0.0191169 0)
(-9.82614e-10 -0.0196096 0)
(-8.47606e-10 -0.0196096 0)
(-7.51259e-10 -0.0191169 0)
(-7.07608e-10 -0.0181356 0)
(-7.31076e-10 -0.0166772 0)
(-8.37972e-10 -0.0147659 0)
(-1.03785e-09 -0.0124454 0)
(-1.30901e-09 -0.00978676 0)
(-1.52421e-09 -0.00689856 0)
(-3.72281e-09 -0.0039444 0)
(-2.28394e-09 -0.00116216 0)
(-9.17849e-11 -0.00116216 0)
(-6.55187e-10 -0.00394439 0)
(-1.11583e-09 -0.00689856 0)
(-1.4506e-09 -0.00978676 0)
(-1.57861e-09 -0.0124454 0)
(-1.55282e-09 -0.0147659 0)
(-1.44366e-09 -0.0166772 0)
(-1.2885e-09 -0.0181356 0)
(-1.11492e-09 -0.0191169 0)
(-9.4455e-10 -0.0196096 0)
(-7.94202e-10 -0.0196096 0)
(-6.79152e-10 -0.0191169 0)
(-6.14196e-10 -0.0181356 0)
(-6.13951e-10 -0.0166772 0)
(-6.95736e-10 -0.0147659 0)
(-8.80403e-10 -0.0124454 0)
(-1.17699e-09 -0.00978676 0)
(-1.59578e-09 -0.00689856 0)
(-3.0119e-09 -0.00394439 0)
(-1.37162e-09 -0.00116216 0)
(-8.85693e-11 -0.00116216 0)
(-5.50245e-10 -0.00394439 0)
(-1.0042e-09 -0.00689856 0)
(-1.33662e-09 -0.00978676 0)
(-1.48782e-09 -0.0124454 0)
(-1.48909e-09 -0.0147659 0)
(-1.39581e-09 -0.0166772 0)
(-1.24562e-09 -0.0181356 0)
(-1.06815e-09 -0.0191169 0)
(-8.86393e-10 -0.0196096 0)
(-7.18722e-10 -0.0196096 0)
(-5.82013e-10 -0.0191169 0)
(-4.91426e-10 -0.0181356 0)
(-4.58966e-10 -0.0166772 0)
(-4.95129e-10 -0.0147659 0)
(-6.08252e-10 -0.0124454 0)
(-7.87534e-10 -0.00978676 0)
(-1.01388e-09 -0.00689856 0)
(-1.2522e-09 -0.00394439 0)
(-3.06773e-10 -0.00116217 0)
(-7.88355e-11 -0.00116216 0)
(-5.60935e-10 -0.00394439 0)
(-1.00738e-09 -0.00689856 0)
(-1.30787e-09 -0.00978676 0)
(-1.44144e-09 -0.0124454 0)
(-1.44342e-09 -0.0147659 0)
(-1.35226e-09 -0.0166772 0)
(-1.20013e-09 -0.0181356 0)
(-1.01522e-09 -0.0191169 0)
(-8.20161e-10 -0.0196096 0)
(-6.34477e-10 -0.0196096 0)
(-4.76387e-10 -0.0191169 0)
(-3.61092e-10 -0.0181356 0)
(-2.98049e-10 -0.0166772 0)
(-2.92648e-10 -0.0147659 0)
(-3.48182e-10 -0.0124454 0)
(-4.60472e-10 -0.00978676 0)
(-6.06385e-10 -0.00689856 0)
(-5.60185e-10 -0.00394439 0)
(-6.37178e-11 -0.00116217 0)
(-1.27113e-10 -0.00116216 0)
(-6.99054e-10 -0.00394439 0)
(-1.09905e-09 -0.00689856 0)
(-1.34587e-09 -0.00978676 0)
(-1.44159e-09 -0.0124454 0)
(-1.42146e-09 -0.0147659 0)
(-1.31493e-09 -0.0166772 0)
(-1.15042e-09 -0.0181356 0)
(-9.53e-10 -0.0191169 0)
(-7.43451e-10 -0.0196096 0)
(-5.41025e-10 -0.0196096 0)
(-3.64156e-10 -0.0191169 0)
(-2.27526e-10 -0.0181356 0)
(-1.38877e-10 -0.0166772 0)
(-1.02716e-10 -0.0147659 0)
(-1.25485e-10 -0.0124454 0)
(-2.24593e-10 -0.00978676 0)
(-4.17354e-10 -0.00689856 0)
(-6.06534e-10 -0.00394439 0)
(-2.41633e-10 -0.00116217 0)
(-2.08882e-10 -0.00116216 0)
(-8.96852e-10 -0.00394439 0)
(-1.22553e-09 -0.00689856 0)
(-1.40973e-09 -0.00978676 0)
(-1.459e-09 -0.0124454 0)
(-1.40322e-09 -0.0147659 0)
(-1.27003e-09 -0.0166772 0)
(-1.08683e-09 -0.0181356 0)
(-8.75406e-10 -0.0191169 0)
(-6.53813e-10 -0.0196096 0)
(-4.39382e-10 -0.0196096 0)
(-2.48864e-10 -0.0191169 0)
(-9.49281e-11 -0.0181356 0)
(1.74451e-11 -0.0166772 0)
(8.56095e-11 -0.0147659 0)
(1.05867e-10 -0.0124454 0)
(6.31942e-11 -0.00978676 0)
(-7.42981e-11 -0.00689856 0)
(-2.88306e-10 -0.00394439 0)
(-1.58048e-10 -0.00116217 0)
(-2.70683e-10 -0.00116216 0)
(-1.05465e-09 -0.00394439 0)
(-1.32655e-09 -0.00689856 0)
(-1.45466e-09 -0.00978676 0)
(-1.45843e-09 -0.0124454 0)
(-1.36393e-09 -0.0147659 0)
(-1.20202e-09 -0.0166772 0)
(-1.00086e-09 -0.0181356 0)
(-7.79725e-10 -0.0191169 0)
(-5.53576e-10 -0.0196096 0)
(-3.3623e-10 -0.0196096 0)
(-1.40612e-10 -0.0191169 0)
(2.45422e-11 -0.0181356 0)
(1.58077e-10 -0.0166772 0)
(2.60794e-10 -0.0147659 0)
(3.36761e-10 -0.0124454 0)
(3.85162e-10 -0.00978676 0)
(3.80543e-10 -0.00689856 0)
(3.05051e-10 -0.00394439 0)
(8.66517e-11 -0.00116217 0)
(-2.95243e-10 -0.00116216 0)
(-1.13313e-09 -0.00394439 0)
(-1.37312e-09 -0.00689855 0)
(-1.45411e-09 -0.00978676 0)
(-1.41603e-09 -0.0124454 0)
(-1.28626e-09 -0.0147659 0)
(-1.10051e-09 -0.0166772 0)
(-8.88053e-10 -0.0181356 0)
(-6.66542e-10 -0.0191169 0)
(-4.4753e-10 -0.0196096 0)
(-2.39874e-10 -0.0196096 0)
(-5.09104e-11 -0.0191169 0)
(1.16503e-10 -0.0181356 0)
(2.65716e-10 -0.0166772 0)
(3.99331e-10 -0.0147659 0)
(5.2558e-10 -0.0124454 0)
(6.48863e-10 -0.00978676 0)
(7.23982e-10 -0.00689856 0)
(6.49664e-10 -0.00394439 0)
(1.71101e-10 -0.00116217 0)
(-3.11304e-10 -0.00116216 0)
(-1.16343e-09 -0.00394439 0)
(-1.36116e-09 -0.00689855 0)
(-1.39486e-09 -0.00978676 0)
(-1.31862e-09 -0.0124454 0)
(-1.16037e-09 -0.0147659 0)
(-9.59105e-10 -0.0166772 0)
(-7.45099e-10 -0.0181356 0)
(-5.34587e-10 -0.0191169 0)
(-3.35351e-10 -0.0196096 0)
(-1.5155e-10 -0.0196096 0)
(1.65432e-11 -0.0191169 0)
(1.76829e-10 -0.0181356 0)
(3.40004e-10 -0.0166772 0)
(5.05395e-10 -0.0147659 0)
(6.75883e-10 -0.0124454 0)
(8.54667e-10 -0.00978676 0)
(9.8423e-10 -0.00689856 0)
(9.08956e-10 -0.00394439 0)
(2.37707e-10 -0.00116217 0)
(-3.12125e-10 -0.00116216 0)
(-1.13029e-09 -0.00394439 0)
(-1.27701e-09 -0.00689855 0)
(-1.26594e-09 -0.00978676 0)
(-1.15789e-09 -0.0124454 0)
(-9.79298e-10 -0.0147659 0)
(-7.71519e-10 -0.0166772 0)
(-5.65407e-10 -0.0181356 0)
(-3.75145e-10 -0.0191169 0)
(-2.04943e-10 -0.0196096 0)
(-5.66581e-11 -0.0196096 0)
(7.56521e-11 -0.0191169 0)
(2.18744e-10 -0.0181356 0)
(3.99755e-10 -0.0166772 0)
(6.08422e-10 -0.0147659 0)
(8.24132e-10 -0.0124454 0)
(1.04242e-09 -0.00978676 0)
(1.22044e-09 -0.00689856 0)
(1.18493e-09 -0.00394439 0)
(3.32066e-10 -0.00116217 0)
(-2.94907e-10 -0.00116216 0)
(-1.02109e-09 -0.00394439 0)
(-1.11132e-09 -0.00689855 0)
(-1.06251e-09 -0.00978676 0)
(-9.29812e-10 -0.0124454 0)
(-7.37844e-10 -0.0147659 0)
(-5.30978e-10 -0.0166772 0)
(-3.387e-10 -0.0181356 0)
(-1.72135e-10 -0.0191169 0)
(-3.32556e-11 -0.0196096 0)
(7.66132e-11 -0.0196096 0)
(1.64877e-10 -0.0191169 0)
(2.78112e-10 -0.0181356 0)
(4.7174e-10 -0.0166772 0)
(7.32441e-10 -0.0147659 0)
(9.95256e-10 -0.0124454 0)
(1.23266e-09 -0.00978676 0)
(1.44933e-09 -0.00689856 0)
(1.49517e-09 -0.00394439 0)
(4.5949e-10 -0.00116216 0)
(-2.44592e-10 -0.00116216 0)
(-8.21268e-10 -0.00394439 0)
(-8.68007e-10 -0.00689855 0)
(-7.91157e-10 -0.00978676 0)
(-6.3705e-10 -0.0124454 0)
(-4.35598e-10 -0.0147659 0)
(-2.35005e-10 -0.0166772 0)
(-5.84705e-11 -0.0181356 0)
(8.99332e-11 -0.0191169 0)
(2.09953e-10 -0.0196096 0)
(2.93718e-10 -0.0196096 0)
(3.44454e-10 -0.0191169 0)
(4.11546e-10 -0.0181356 0)
(5.72558e-10 -0.0166772 0)
(8.46849e-10 -0.0147659 0)
(1.13919e-09 -0.0124454 0)
(1.37474e-09 -0.00978676 0)
(1.60401e-09 -0.00689856 0)
(1.73008e-09 -0.00394439 0)
(5.7022e-10 -0.00116216 0)
(-1.45843e-10 -0.00116216 0)
(-5.62489e-10 -0.00394439 0)
(-5.97608e-10 -0.00689855 0)
(-4.81358e-10 -0.00978676 0)
(-2.90105e-10 -0.0124454 0)
(-7.8564e-11 -0.0147659 0)
(1.08777e-10 -0.0166772 0)
(2.63705e-10 -0.0181356 0)
(3.91368e-10 -0.0191169 0)
(4.90513e-10 -0.0196096 0)
(5.56894e-10 -0.0196096 0)
(6.08037e-10 -0.0191169 0)
(6.67366e-10 -0.0181356 0)
(7.71841e-10 -0.0166772 0)
(9.63473e-10 -0.0147659 0)
(1.19109e-09 -0.0124454 0)
(1.37817e-09 -0.00978676 0)
(1.56753e-09 -0.00689856 0)
(1.69753e-09 -0.00394439 0)
(5.72899e-10 -0.00116216 0)
(-1.6504e-10 -0.00116216 0)
(-4.84062e-10 -0.00394439 0)
(-3.58467e-10 -0.00689855 0)
(-1.34793e-10 -0.00978676 0)
(1.14972e-10 -0.0124454 0)
(3.29569e-10 -0.0147659 0)
(4.87773e-10 -0.0166772 0)
(6.02853e-10 -0.0181356 0)
(6.89119e-10 -0.0191169 0)
(7.53527e-10 -0.0196096 0)
(8.12753e-10 -0.0196096 0)
(8.90301e-10 -0.0191169 0)
(9.73623e-10 -0.0181356 0)
(1.03446e-09 -0.0166772 0)
(1.09388e-09 -0.0147659 0)
(1.17463e-09 -0.0124454 0)
(1.24252e-09 -0.00978676 0)
(1.29456e-09 -0.00689856 0)
(1.29342e-09 -0.00394439 0)
(4.14867e-10 -0.00116216 0)
(-2.42435e-10 -0.00116216 0)
(-4.25798e-10 -0.00394439 0)
(-3.26009e-11 -0.00689855 0)
(3.25164e-10 -0.00978676 0)
(6.18707e-10 -0.0124454 0)
(7.99024e-10 -0.0147659 0)
(8.92795e-10 -0.0166772 0)
(9.38418e-10 -0.0181356 0)
(9.62608e-10 -0.0191169 0)
(9.86634e-10 -0.0196096 0)
(1.03511e-09 -0.0196096 0)
(1.11864e-09 -0.0191169 0)
(1.20911e-09 -0.0181356 0)
(1.25162e-09 -0.0166772 0)
(1.22778e-09 -0.0147659 0)
(1.16798e-09 -0.0124454 0)
(1.06478e-09 -0.00978676 0)
(8.85e-10 -0.00689856 0)
(6.42875e-10 -0.00394439 0)
(1.49996e-10 -0.00116216 0)
(-1.5864e-10 -0.00116216 0)
(4.60073e-11 -0.00394439 0)
(6.2153e-10 -0.00689856 0)
(1.02213e-09 -0.00978676 0)
(1.25329e-09 -0.0124454 0)
(1.32369e-09 -0.0147659 0)
(1.30285e-09 -0.0166772 0)
(1.24911e-09 -0.0181356 0)
(1.19885e-09 -0.0191169 0)
(1.17817e-09 -0.0196096 0)
(1.20643e-09 -0.0196096 0)
(1.28134e-09 -0.0191169 0)
(1.36907e-09 -0.0181356 0)
(1.40557e-09 -0.0166772 0)
(1.34142e-09 -0.0147659 0)
(1.18544e-09 -0.0124454 0)
(9.34912e-10 -0.00978676 0)
(5.32642e-10 -0.00689856 0)
(5.23206e-11 -0.00394439 0)
(-9.13964e-11 -0.00116216 0)
(2.40571e-10 -0.00116216 0)
(1.19155e-09 -0.00394439 0)
(1.70203e-09 -0.00689856 0)
(1.95447e-09 -0.00978676 0)
(1.97043e-09 -0.0124454 0)
(1.84238e-09 -0.0147659 0)
(1.66431e-09 -0.0166772 0)
(1.49694e-09 -0.0181356 0)
(1.37263e-09 -0.0191169 0)
(1.30914e-09 -0.0196096 0)
(1.3139e-09 -0.0196096 0)
(1.37506e-09 -0.0191169 0)
(1.45559e-09 -0.0181356 0)
(1.49148e-09 -0.0166772 0)
(1.42325e-09 -0.0147659 0)
(1.23909e-09 -0.0124454 0)
(9.27937e-10 -0.00978676 0)
(4.21895e-10 -0.00689856 0)
(-1.7742e-10 -0.00394439 0)
(-1.88321e-10 -0.00116216 0)
(7.85379e-10 -0.00116216 0)
(2.59301e-09 -0.00394439 0)
(2.86478e-09 -0.00689856 0)
(2.84491e-09 -0.00978676 0)
(2.578e-09 -0.0124454 0)
(2.22529e-09 -0.0147659 0)
(1.89338e-09 -0.0166772 0)
(1.62878e-09 -0.0181356 0)
(1.44658e-09 -0.0191169 0)
(1.35053e-09 -0.0196096 0)
(1.33679e-09 -0.0196096 0)
(1.38791e-09 -0.0191169 0)
(1.46731e-09 -0.0181356 0)
(1.51716e-09 -0.0166772 0)
(1.47917e-09 -0.0147659 0)
(1.32998e-09 -0.0124454 0)
(1.0573e-09 -0.00978676 0)
(6.02646e-10 -0.00689855 0)
(5.85998e-11 -0.00394439 0)
(-9.28273e-11 -0.00116216 0)
(1.07513e-09 -0.00116216 0)
(3.43579e-09 -0.00394439 0)
(3.54791e-09 -0.00689856 0)
(3.28528e-09 -0.00978676 0)
(2.81725e-09 -0.0124454 0)
(2.32536e-09 -0.0147659 0)
(1.90748e-09 -0.0166772 0)
(1.59489e-09 -0.0181356 0)
(1.38735e-09 -0.0191169 0)
(1.27808e-09 -0.0196096 0)
(1.25704e-09 -0.0196096 0)
(1.30585e-09 -0.0191169 0)
(1.39239e-09 -0.0181356 0)
(1.46905e-09 -0.0166772 0)
(1.48546e-09 -0.0147659 0)
(1.41557e-09 -0.0124454 0)
(1.25598e-09 -0.00978676 0)
(9.68546e-10 -0.00689855 0)
(5.96175e-10 -0.00394439 0)
(1.2128e-10 -0.00116216 0)
(1.14366e-09 -0.00116216 0)
(3.5329e-09 -0.00394439 0)
(3.45667e-09 -0.00689856 0)
(3.07867e-09 -0.00978676 0)
(2.56684e-09 -0.0124454 0)
(2.07139e-09 -0.0147659 0)
(1.66788e-09 -0.0166772 0)
(1.37283e-09 -0.0181356 0)
(1.18037e-09 -0.0191169 0)
(1.08161e-09 -0.0196096 0)
(1.06662e-09 -0.0196096 0)
(1.12006e-09 -0.0191169 0)
(1.21699e-09 -0.0181356 0)
(1.32204e-09 -0.0166772 0)
(1.39715e-09 -0.0147659 0)
(1.42134e-09 -0.0124454 0)
(1.40041e-09 -0.00978676 0)
(1.30915e-09 -0.00689855 0)
(1.13562e-09 -0.00394439 0)
(3.38025e-10 -0.00116216 0)
(1.11811e-09 -0.00116217 0)
(2.97375e-09 -0.00394439 0)
(2.6137e-09 -0.00689856 0)
(2.28673e-09 -0.00978676 0)
(1.88884e-09 -0.0124454 0)
(1.50949e-09 -0.0147659 0)
(1.20442e-09 -0.0166772 0)
(9.82142e-10 -0.0181356 0)
(8.39263e-10 -0.0191169 0)
(7.7152e-10 -0.0196096 0)
(7.73214e-10 -0.0196096 0)
(8.34069e-10 -0.0191169 0)
(9.36988e-10 -0.0181356 0)
(1.0584e-09 -0.0166772 0)
(1.17341e-09 -0.0147659 0)
(1.26974e-09 -0.0124454 0)
(1.35872e-09 -0.00978676 0)
(1.41863e-09 -0.00689855 0)
(1.39584e-09 -0.00394439 0)
(4.50306e-10 -0.00116216 0)
(4.40623e-10 -0.00116217 0)
(1.31882e-09 -0.00394439 0)
(1.24486e-09 -0.00689856 0)
(1.12809e-09 -0.00978676 0)
(9.49584e-10 -0.0124454 0)
(7.60764e-10 -0.0147659 0)
(5.99213e-10 -0.0166772 0)
(4.78144e-10 -0.0181356 0)
(4.03489e-10 -0.0191169 0)
(3.78195e-10 -0.0196096 0)
(4.01351e-10 -0.0196096 0)
(4.67321e-10 -0.0191169 0)
(5.65716e-10 -0.0181356 0)
(6.82835e-10 -0.0166772 0)
(8.05515e-10 -0.0147659 0)
(9.31299e-10 -0.0124454 0)
(1.0761e-09 -0.00978676 0)
(1.21192e-09 -0.00689855 0)
(1.251e-09 -0.00394439 0)
(4.07705e-10 -0.00116216 0)
(-2.0729e-10 -0.00116217 0)
(-2.17433e-10 -0.00394439 0)
(8.35875e-14 -0.00689856 0)
(3.73292e-11 -0.00978676 0)
(2.35943e-11 -0.0124454 0)
(-6.39503e-12 -0.0147659 0)
(-3.9972e-11 -0.0166772 0)
(-6.55571e-11 -0.0181356 0)
(-7.24497e-11 -0.0191169 0)
(-5.45386e-11 -0.0196096 0)
(-1.11466e-11 -0.0196096 0)
(5.40778e-11 -0.0191169 0)
(1.34958e-10 -0.0181356 0)
(2.25399e-10 -0.0166772 0)
(3.22759e-10 -0.0147659 0)
(4.36672e-10 -0.0124454 0)
(5.88453e-10 -0.00978676 0)
(7.37521e-10 -0.00689855 0)
(7.72302e-10 -0.00394439 0)
(2.47262e-10 -0.00116216 0)
(-1.70919e-10 -0.00116217 0)
(-5.84724e-10 -0.00394439 0)
(-6.80835e-10 -0.00689856 0)
(-7.24069e-10 -0.00978676 0)
(-7.1093e-10 -0.0124454 0)
(-6.70846e-10 -0.0147659 0)
(-6.26213e-10 -0.0166772 0)
(-5.82293e-10 -0.0181356 0)
(-5.3422e-10 -0.0191169 0)
(-4.79515e-10 -0.0196096 0)
(-4.20444e-10 -0.0196096 0)
(-3.62355e-10 -0.0191169 0)
(-3.10545e-10 -0.0181356 0)
(-2.65963e-10 -0.0166772 0)
(-2.2192e-10 -0.0147659 0)
(-1.59575e-10 -0.0124454 0)
(-6.58814e-11 -0.00978676 0)
(2.99162e-11 -0.00689855 0)
(6.93727e-11 -0.00394439 0)
(3.61263e-11 -0.00116216 0)
(-1.28649e-10 -0.00116217 0)
(-7.24684e-10 -0.00394439 0)
(-1.07341e-09 -0.00689856 0)
(-1.24319e-09 -0.00978676 0)
(-1.2629e-09 -0.0124454 0)
(-1.20299e-09 -0.0147659 0)
(-1.11688e-09 -0.0166772 0)
(-1.02738e-09 -0.0181356 0)
(-9.38654e-10 -0.0191169 0)
(-8.55209e-10 -0.0196096 0)
(-7.85162e-10 -0.0196096 0)
(-7.38351e-10 -0.0191169 0)
(-7.22074e-10 -0.0181356 0)
(-7.34832e-10 -0.0166772 0)
(-7.63484e-10 -0.0147659 0)
(-7.8955e-10 -0.0124454 0)
(-8.17284e-10 -0.00978676 0)
(-8.20327e-10 -0.00689855 0)
(-7.87824e-10 -0.00394439 0)
(-2.43455e-10 -0.00116216 0)
(-2.14449e-10 -0.00116217 0)
(-1.02548e-09 -0.00394439 0)
(-1.43567e-09 -0.00689856 0)
(-1.64412e-09 -0.00978676 0)
(-1.67807e-09 -0.0124454 0)
(-1.60517e-09 -0.0147659 0)
(-1.49347e-09 -0.0166772 0)
(-1.37338e-09 -0.0181356 0)
(-1.25491e-09 -0.0191169 0)
(-1.14962e-09 -0.0196096 0)
(-1.0721e-09 -0.0196096 0)
(-1.03725e-09 -0.0191169 0)
(-1.05497e-09 -0.0181356 0)
(-1.12242e-09 -0.0166772 0)
(-1.22109e-09 -0.0147659 0)
(-1.33138e-09 -0.0124454 0)
(-1.44777e-09 -0.00978676 0)
(-1.49558e-09 -0.00689855 0)
(-1.46703e-09 -0.00394439 0)
(-4.84331e-10 -0.00116216 0)
(-3.87345e-10 -0.00116217 0)
(-1.4681e-09 -0.00394439 0)
(-1.79748e-09 -0.00689856 0)
(-1.9587e-09 -0.00978676 0)
(-1.96782e-09 -0.0124454 0)
(-1.87394e-09 -0.0147659 0)
(-1.74287e-09 -0.0166772 0)
(-1.60151e-09 -0.0181356 0)
(-1.46178e-09 -0.0191169 0)
(-1.34107e-09 -0.0196096 0)
(-1.25937e-09 -0.0196096 0)
(-1.23496e-09 -0.0191169 0)
(-1.27884e-09 -0.0181356 0)
(-1.38659e-09 -0.0166772 0)
(-1.53488e-09 -0.0147659 0)
(-1.69226e-09 -0.0124454 0)
(-1.81735e-09 -0.00978676 0)
(-1.82074e-09 -0.00689855 0)
(-1.6283e-09 -0.00394439 0)
(-4.61649e-10 -0.00116216 0)
(-5.52318e-10 -0.00116216 0)
(-1.88077e-09 -0.00394439 0)
(-2.09344e-09 -0.00689855 0)
(-2.15762e-09 -0.00978676 0)
(-2.11588e-09 -0.0124454 0)
(-1.99974e-09 -0.0147659 0)
(-1.85518e-09 -0.0166772 0)
(-1.69974e-09 -0.0181356 0)
(-1.54698e-09 -0.0191169 0)
(-1.41827e-09 -0.0196096 0)
(-1.33675e-09 -0.0196096 0)
(-1.32133e-09 -0.0191169 0)
(-1.38202e-09 -0.0181356 0)
(-1.51336e-09 -0.0166772 0)
(-1.69189e-09 -0.0147659 0)
(-1.87932e-09 -0.0124454 0)
(-2.01082e-09 -0.00978676 0)
(-1.99023e-09 -0.00689855 0)
(-1.71688e-09 -0.00394439 0)
(-4.68593e-10 -0.00116216 0)
(-6.3545e-10 -0.00116216 0)
(-2.06895e-09 -0.00394439 0)
(-2.19559e-09 -0.00689855 0)
(-2.18256e-09 -0.00978676 0)
(-2.09831e-09 -0.0124454 0)
(-1.9721e-09 -0.0147659 0)
(-1.82464e-09 -0.0166772 0)
(-1.66403e-09 -0.0181356 0)
(-1.50753e-09 -0.0191169 0)
(-1.37937e-09 -0.0196096 0)
(-1.30309e-09 -0.0196096 0)
(-1.29543e-09 -0.0191169 0)
(-1.3643e-09 -0.0181356 0)
(-1.505e-09 -0.0166772 0)
(-1.70047e-09 -0.0147659 0)
(-1.91979e-09 -0.0124454 0)
(-2.10154e-09 -0.00978676 0)
(-2.13015e-09 -0.00689855 0)
(-1.74925e-09 -0.00394439 0)
(-3.975e-10 -0.00116216 0)
(-5.82064e-10 -0.00116216 0)
(-1.90998e-09 -0.00394439 0)
(-2.03292e-09 -0.00689855 0)
(-2.00834e-09 -0.00978676 0)
(-1.91755e-09 -0.0124454 0)
(-1.79854e-09 -0.0147659 0)
(-1.6563e-09 -0.0166772 0)
(-1.49866e-09 -0.0181356 0)
(-1.34964e-09 -0.0191169 0)
(-1.2319e-09 -0.0196096 0)
(-1.1648e-09 -0.0196096 0)
(-1.16175e-09 -0.0191169 0)
(-1.22902e-09 -0.0181356 0)
(-1.36542e-09 -0.0166772 0)
(-1.56618e-09 -0.0147659 0)
(-1.82185e-09 -0.0124454 0)
(-2.09897e-09 -0.00978676 0)
(-2.30873e-09 -0.00689855 0)
(-2.2143e-09 -0.00394439 0)
(-6.59463e-10 -0.00116216 0)
(-4.03212e-10 -0.00116216 0)
(-1.4288e-09 -0.00394439 0)
(-1.61752e-09 -0.00689855 0)
(-1.6412e-09 -0.00978676 0)
(-1.58769e-09 -0.0124454 0)
(-1.4964e-09 -0.0147659 0)
(-1.37061e-09 -0.0166772 0)
(-1.22982e-09 -0.0181356 0)
(-1.09886e-09 -0.0191169 0)
(-9.97043e-10 -0.0196096 0)
(-9.38401e-10 -0.0196096 0)
(-9.32351e-10 -0.0191169 0)
(-9.83627e-10 -0.0181356 0)
(-1.09477e-09 -0.0166772 0)
(-1.2714e-09 -0.0147659 0)
(-1.51973e-09 -0.0124454 0)
(-1.82854e-09 -0.00978676 0)
(-2.14302e-09 -0.00689855 0)
(-2.32559e-09 -0.00394439 0)
(-8.01311e-10 -0.00116216 0)
(-1.78018e-10 -0.00116216 0)
(-8.01583e-10 -0.00394439 0)
(-1.06621e-09 -0.00689855 0)
(-1.16168e-09 -0.00978676 0)
(-1.16432e-09 -0.0124454 0)
(-1.11076e-09 -0.0147659 0)
(-1.01162e-09 -0.0166772 0)
(-8.98131e-10 -0.0181356 0)
(-7.91771e-10 -0.0191169 0)
(-7.06842e-10 -0.0196096 0)
(-6.52001e-10 -0.0196096 0)
(-6.32485e-10 -0.0191169 0)
(-6.50978e-10 -0.0181356 0)
(-7.11576e-10 -0.0166772 0)
(-8.23754e-10 -0.0147659 0)
(-9.9664e-10 -0.0124454 0)
(-1.22453e-09 -0.00978676 0)
(-1.48591e-09 -0.00689855 0)
(-1.7686e-09 -0.00394439 0)
(-6.81945e-10 -0.00116217 0)
(-1.53375e-12 -0.00116216 0)
(-2.5238e-10 -0.00394439 0)
(-5.36815e-10 -0.00689855 0)
(-6.92208e-10 -0.00978676 0)
(-7.43363e-10 -0.0124454 0)
(-7.22291e-10 -0.0147659 0)
(-6.50244e-10 -0.0166772 0)
(-5.5792e-10 -0.0181356 0)
(-4.71205e-10 -0.0191169 0)
(-3.9905e-10 -0.0196096 0)
(-3.41918e-10 -0.0196096 0)
(-3.00201e-10 -0.0191169 0)
(-2.74022e-10 -0.0181356 0)
(-2.66445e-10 -0.0166772 0)
(-2.84926e-10 -0.0147659 0)
(-3.32048e-10 -0.0124454 0)
(-3.87863e-10 -0.00978676 0)
(-4.16167e-10 -0.00689855 0)
(-4.27699e-10 -0.00394439 0)
(-1.41334e-10 -0.00116217 0)
(7.1642e-11 -0.00116216 0)
(5.8502e-11 -0.00394439 0)
(-1.53778e-10 -0.00689855 0)
(-2.98542e-10 -0.00978676 0)
(-3.5867e-10 -0.0124454 0)
(-3.55496e-10 -0.0147659 0)
(-3.10881e-10 -0.0166772 0)
(-2.42645e-10 -0.0181356 0)
(-1.72692e-10 -0.0191169 0)
(-1.07411e-10 -0.0196096 0)
(-4.3322e-11 -0.0196096 0)
(2.31237e-11 -0.0191169 0)
(9.4005e-11 -0.0181356 0)
(1.67777e-10 -0.0166772 0)
(2.3943e-10 -0.0147659 0)
(3.08971e-10 -0.0124454 0)
(3.97848e-10 -0.00978676 0)
(5.50604e-10 -0.00689855 0)
(7.0828e-10 -0.00394439 0)
(2.7644e-10 -0.00116217 0)
(4.87522e-11 -0.00116216 0)
(1.33222e-10 -0.00394439 0)
(7.44854e-11 -0.00689855 0)
(8.03595e-12 -0.00978676 0)
(-2.67009e-11 -0.0124454 0)
(-2.88494e-11 -0.0147659 0)
(-5.68121e-12 -0.0166772 0)
(3.72169e-11 -0.0181356 0)
(8.91024e-11 -0.0191169 0)
(1.48821e-10 -0.0196096 0)
(2.19845e-10 -0.0196096 0)
(3.06123e-10 -0.0191169 0)
(4.09889e-10 -0.0181356 0)
(5.29814e-10 -0.0166772 0)
(6.61479e-10 -0.0147659 0)
(8.0028e-10 -0.0124454 0)
(9.46759e-10 -0.00978676 0)
(1.10723e-09 -0.00689855 0)
(1.17365e-09 -0.00394439 0)
(3.76432e-10 -0.00116217 0)
(-9.86507e-12 -0.00116216 0)
(1.08754e-10 -0.00394439 0)
(2.38374e-10 -0.00689855 0)
(2.76816e-10 -0.00978676 0)
(2.58861e-10 -0.0124454 0)
(2.42165e-10 -0.0147659 0)
(2.50296e-10 -0.0166772 0)
(2.73161e-10 -0.0181356 0)
(3.08852e-10 -0.0191169 0)
(3.62542e-10 -0.0196096 0)
(4.36769e-10 -0.0196096 0)
(5.33377e-10 -0.0191169 0)
(6.52731e-10 -0.0181356 0)
(7.92156e-10 -0.0166772 0)
(9.46817e-10 -0.0147659 0)
(1.10623e-09 -0.0124454 0)
(1.24718e-09 -0.00978676 0)
(1.3379e-09 -0.00689855 0)
(1.2801e-09 -0.00394439 0)
(3.81234e-10 -0.00116216 0)
(-3.95359e-11 -0.00116216 0)
(1.5723e-10 -0.00394439 0)
(4.31058e-10 -0.00689855 0)
(5.288e-10 -0.00978676 0)
(5.10303e-10 -0.0124454 0)
(4.79722e-10 -0.0147659 0)
(4.64508e-10 -0.0166772 0)
(4.6458e-10 -0.0181356 0)
(4.85838e-10 -0.0191169 0)
(5.32877e-10 -0.0196096 0)
(6.05375e-10 -0.0196096 0)
(7.02691e-10 -0.0191169 0)
(8.22583e-10 -0.0181356 0)
(9.59682e-10 -0.0166772 0)
(1.10732e-09 -0.0147659 0)
(1.25003e-09 -0.0124454 0)
(1.34749e-09 -0.00978676 0)
(1.34032e-09 -0.00689855 0)
(1.1533e-09 -0.00394439 0)
(3.12414e-10 -0.00116216 0)
(2.69349e-11 -0.00116216 0)
(4.28098e-10 -0.00394439 0)
(6.89473e-10 -0.00689855 0)
(7.62177e-10 -0.00978676 0)
(7.26896e-10 -0.0124454 0)
(6.70626e-10 -0.0147659 0)
(6.26761e-10 -0.0166772 0)
(6.08569e-10 -0.0181356 0)
(6.19789e-10 -0.0191169 0)
(6.60226e-10 -0.0196096 0)
(7.2756e-10 -0.0196096 0)
(8.19803e-10 -0.0191169 0)
(9.32541e-10 -0.0181356 0)
(1.05724e-09 -0.0166772 0)
(1.18404e-09 -0.0147659 0)
(1.29376e-09 -0.0124454 0)
(1.33892e-09 -0.00978676 0)
(1.25396e-09 -0.00689855 0)
(9.88912e-10 -0.00394439 0)
(2.43639e-10 -0.00116216 0)
(4.23495e-10 -0.00116216 0)
(1.14661e-09 -0.00394439 0)
(1.02693e-09 -0.00689855 0)
(9.48485e-10 -0.00978676 0)
(8.70482e-10 -0.0124454 0)
(7.92528e-10 -0.0147659 0)
(7.32267e-10 -0.0166772 0)
(7.04145e-10 -0.0181356 0)
(7.0942e-10 -0.0191169 0)
(7.44437e-10 -0.0196096 0)
(8.06249e-10 -0.0196096 0)
(8.92526e-10 -0.0191169 0)
(9.97654e-10 -0.0181356 0)
(1.11073e-09 -0.0166772 0)
(1.2186e-09 -0.0147659 0)
(1.30014e-09 -0.0124454 0)
(1.30999e-09 -0.00978676 0)
(1.19622e-09 -0.00689855 0)
(9.29196e-10 -0.00394439 0)
(2.26975e-10 -0.00116216 0)
(5.67354e-10 -0.00116216 0)
(1.3222e-09 -0.00394439 0)
(1.04215e-09 -0.00689855 0)
(9.36967e-10 -0.00978676 0)
(8.79192e-10 -0.0124454 0)
(8.21557e-10 -0.0147659 0)
(7.71794e-10 -0.0166772 0)
(7.45519e-10 -0.0181356 0)
(7.50285e-10 -0.0191169 0)
(7.834e-10 -0.0196096 0)
(8.42451e-10 -0.0196096 0)
(9.25217e-10 -0.0191169 0)
(1.02578e-09 -0.0181356 0)
(1.13232e-09 -0.0166772 0)
(1.22946e-09 -0.0147659 0)
(1.29546e-09 -0.0124454 0)
(1.29256e-09 -0.00978676 0)
(1.19252e-09 -0.00689855 0)
(9.82599e-10 -0.00394439 0)
(2.62971e-10 -0.00116216 0)
(1.33733e-10 -0.00116216 0)
(5.42848e-10 -0.00394439 0)
(6.78519e-10 -0.00689855 0)
(7.43283e-10 -0.00978676 0)
(7.58237e-10 -0.0124454 0)
(7.47991e-10 -0.0147659 0)
(7.31615e-10 -0.0166772 0)
(7.23804e-10 -0.0181356 0)
(7.36968e-10 -0.0191169 0)
(7.73885e-10 -0.0196096 0)
(8.34646e-10 -0.0196096 0)
(9.17454e-10 -0.0191169 0)
(1.01641e-09 -0.0181356 0)
(1.11985e-09 -0.0166772 0)
(1.21128e-09 -0.0147659 0)
(1.26797e-09 -0.0124454 0)
(1.25877e-09 -0.00978676 0)
(1.17576e-09 -0.00689855 0)
(1.01879e-09 -0.00394439 0)
(2.91561e-10 -0.00116216 0)
(-7.46088e-11 -0.00116216 0)
(-1.25949e-11 -0.00394439 0)
(2.97486e-10 -0.00689855 0)
(5.02601e-10 -0.00978676 0)
(5.85354e-10 -0.0124454 0)
(6.16571e-10 -0.0147659 0)
(6.31469e-10 -0.0166772 0)
(6.45433e-10 -0.0181356 0)
(6.71407e-10 -0.0191169 0)
(7.16592e-10 -0.0196096 0)
(7.83116e-10 -0.0196096 0)
(8.68973e-10 -0.0191169 0)
(9.67915e-10 -0.0181356 0)
(1.06873e-09 -0.0166772 0)
(1.15436e-09 -0.0147659 0)
(1.20026e-09 -0.0124454 0)
(1.17653e-09 -0.00978676 0)
(1.07688e-09 -0.00689855 0)
(9.04967e-10 -0.00394439 0)
(2.49782e-10 -0.00116216 0)
(-1.44558e-10 -0.00116216 0)
(-2.53904e-10 -0.00394439 0)
(5.42999e-11 -0.00689855 0)
(2.82785e-10 -0.00978676 0)
(4.04702e-10 -0.0124454 0)
(4.63632e-10 -0.0147659 0)
(4.97472e-10 -0.0166772 0)
(5.26656e-10 -0.0181356 0)
(5.65009e-10 -0.0191169 0)
(6.20628e-10 -0.0196096 0)
(6.95392e-10 -0.0196096 0)
(7.85879e-10 -0.0191169 0)
(8.85095e-10 -0.0181356 0)
(9.82605e-10 -0.0166772 0)
(1.06183e-09 -0.0147659 0)
(1.09712e-09 -0.0124454 0)
(1.0564e-09 -0.00978676 0)
(9.11288e-10 -0.00689855 0)
(6.60359e-10 -0.00394439 0)
(1.45953e-10 -0.00116216 0)
(-1.23416e-10 -0.00116216 0)
(-1.77327e-10 -0.00394439 0)
(7.13803e-11 -0.00689855 0)
(2.17409e-10 -0.00978676 0)
(2.88163e-10 -0.0124454 0)
(3.24686e-10 -0.0147659 0)
(3.54215e-10 -0.0166772 0)
(3.89015e-10 -0.0181356 0)
(4.37081e-10 -0.0191169 0)
(5.0316e-10 -0.0196096 0)
(5.86364e-10 -0.0196096 0)
(6.80919e-10 -0.0191169 0)
(7.79436e-10 -0.0181356 0)
(8.73543e-10 -0.0166772 0)
(9.49542e-10 -0.0147659 0)
(9.83903e-10 -0.0124454 0)
(9.44559e-10 -0.00978676 0)
(7.73876e-10 -0.00689855 0)
(4.58609e-10 -0.00394439 0)
(6.0683e-11 -0.00116216 0)
(8.28086e-11 -0.00116216 0)
(3.20796e-10 -0.00394439 0)
(3.82505e-10 -0.00689855 0)
(3.27164e-10 -0.00978676 0)
(2.50367e-10 -0.0124454 0)
(2.1597e-10 -0.0147659 0)
(2.20361e-10 -0.0166772 0)
(2.52281e-10 -0.0181356 0)
(3.0665e-10 -0.0191169 0)
(3.81241e-10 -0.0196096 0)
(4.70495e-10 -0.0196096 0)
(5.66211e-10 -0.0191169 0)
(6.61789e-10 -0.0181356 0)
(7.52739e-10 -0.0166772 0)
(8.31272e-10 -0.0147659 0)
(8.80523e-10 -0.0124454 0)
(8.73797e-10 -0.00978676 0)
(7.4391e-10 -0.00689855 0)
(4.63234e-10 -0.00394439 0)
(7.05008e-11 -0.00116216 0)
(3.08548e-10 -0.00116216 0)
(8.62147e-10 -0.00394439 0)
(6.95225e-10 -0.00689855 0)
(4.29913e-10 -0.00978676 0)
(2.15425e-10 -0.0124454 0)
(1.14535e-10 -0.0147659 0)
(9.47903e-11 -0.0166772 0)
(1.22696e-10 -0.0181356 0)
(1.81338e-10 -0.0191169 0)
(2.61343e-10 -0.0196096 0)
(3.5255e-10 -0.0196096 0)
(4.45317e-10 -0.0191169 0)
(5.34835e-10 -0.0181356 0)
(6.21072e-10 -0.0166772 0)
(7.03555e-10 -0.0147659 0)
(7.75744e-10 -0.0124454 0)
(8.215e-10 -0.00978676 0)
(7.93807e-10 -0.00689855 0)
(6.58349e-10 -0.00394439 0)
(1.75e-10 -0.00116216 0)
(4.64205e-10 -0.00116216 0)
(1.153e-09 -0.00394439 0)
(7.66273e-10 -0.00689855 0)
(3.68814e-10 -0.00978676 0)
(1.01674e-10 -0.0124454 0)
(-1.49743e-11 -0.0147659 0)
(-3.76635e-11 -0.0166772 0)
(-7.5242e-12 -0.0181356 0)
(5.54662e-11 -0.0191169 0)
(1.3792e-10 -0.0196096 0)
(2.27235e-10 -0.0196096 0)
(3.13759e-10 -0.0191169 0)
(3.94083e-10 -0.0181356 0)
(4.7039e-10 -0.0166772 0)
(5.47049e-10 -0.0147659 0)
(6.28022e-10 -0.0124454 0)
(7.11532e-10 -0.00978676 0)
(7.84535e-10 -0.00689855 0)
(8.19077e-10 -0.00394439 0)
(2.79174e-10 -0.00116216 0)
(3.88143e-10 -0.00116216 0)
(9.22916e-10 -0.00394439 0)
(4.98143e-10 -0.00689855 0)
(1.09526e-10 -0.00978676 0)
(-1.0533e-10 -0.0124454 0)
(-1.8435e-10 -0.0147659 0)
(-1.89161e-10 -0.0166772 0)
(-1.49264e-10 -0.0181356 0)
(-8.04974e-11 -0.0191169 0)
(3.15245e-12 -0.0196096 0)
(8.93566e-11 -0.0196096 0)
(1.6932e-10 -0.0191169 0)
(2.38897e-10 -0.0181356 0)
(2.97934e-10 -0.0166772 0)
(3.49709e-10 -0.0147659 0)
(4.03094e-10 -0.0124454 0)
(4.69408e-10 -0.00978676 0)
(5.61069e-10 -0.00689855 0)
(6.59259e-10 -0.00394439 0)
(2.48025e-10 -0.00116216 0)
(1.66651e-10 -0.00116216 0)
(3.12731e-10 -0.00394439 0)
(-1.32359e-11 -0.00689855 0)
(-2.68023e-10 -0.00978676 0)
(-3.68153e-10 -0.0124454 0)
(-3.84894e-10 -0.0147659 0)
(-3.60912e-10 -0.0166772 0)
(-3.05928e-10 -0.0181356 0)
(-2.28898e-10 -0.0191169 0)
(-1.4191e-10 -0.0196096 0)
(-5.56118e-11 -0.0196096 0)
(2.14759e-11 -0.0191169 0)
(8.18932e-11 -0.0181356 0)
(1.19104e-10 -0.0166772 0)
(1.2964e-10 -0.0147659 0)
(1.18168e-10 -0.0124454 0)
(9.89545e-11 -0.00978676 0)
(9.08921e-11 -0.00689855 0)
(9.36538e-11 -0.00394439 0)
(3.80304e-11 -0.00116216 0)
(-1.33033e-10 -0.00116216 0)
(-4.58746e-10 -0.00394439 0)
(-5.85926e-10 -0.00689855 0)
(-6.48026e-10 -0.00978676 0)
(-6.31799e-10 -0.0124454 0)
(-5.93779e-10 -0.0147659 0)
(-5.42143e-10 -0.0166772 0)
(-4.70057e-10 -0.0181356 0)
(-3.81364e-10 -0.0191169 0)
(-2.85688e-10 -0.0196096 0)
(-1.92521e-10 -0.0196096 0)
(-1.11659e-10 -0.0191169 0)
(-5.51504e-11 -0.0181356 0)
(-3.66115e-11 -0.0166772 0)
(-6.7431e-11 -0.0147659 0)
(-1.52475e-10 -0.0124454 0)
(-2.86957e-10 -0.00978676 0)
(-4.57521e-10 -0.00689855 0)
(-6.37672e-10 -0.00394439 0)
(-2.51056e-10 -0.00116216 0)
(-3.40839e-10 -0.00116216 0)
(-1.00448e-09 -0.00394439 0)
(-9.87552e-10 -0.00689855 0)
(-9.23292e-10 -0.00978676 0)
(-8.49012e-10 -0.0124454 0)
(-7.85978e-10 -0.0147659 0)
(-7.16327e-10 -0.0166772 0)
(-6.28357e-10 -0.0181356 0)
(-5.24953e-10 -0.0191169 0)
(-4.14654e-10 -0.0196096 0)
(-3.07337e-10 -0.0196096 0)
(-2.15061e-10 -0.0191169 0)
(-1.53591e-10 -0.0181356 0)
(-1.40707e-10 -0.0166772 0)
(-1.91987e-10 -0.0147659 0)
(-3.19439e-10 -0.0124454 0)
(-5.30942e-10 -0.00978676 0)
(-8.1959e-10 -0.00689855 0)
(-1.14282e-09 -0.00394439 0)
(-4.58379e-10 -0.00116216 0)
(-3.73962e-10 -0.00116216 0)
(-1.14861e-09 -0.00394439 0)
(-1.135e-09 -0.00689855 0)
(-1.06253e-09 -0.00978676 0)
(-1.00177e-09 -0.0124454 0)
(-9.44886e-10 -0.0147659 0)
(-8.69412e-10 -0.0166772 0)
(-7.69523e-10 -0.0181356 0)
(-6.50457e-10 -0.0191169 0)
(-5.2165e-10 -0.0196096 0)
(-3.94755e-10 -0.0196096 0)
(-2.83885e-10 -0.0191169 0)
(-2.06053e-10 -0.0181356 0)
(-1.78832e-10 -0.0166772 0)
(-2.16512e-10 -0.0147659 0)
(-3.30789e-10 -0.0124454 0)
(-5.32906e-10 -0.00978676 0)
(-8.18167e-10 -0.00689855 0)
(-1.13195e-09 -0.00394439 0)
(-4.50789e-10 -0.00116216 0)
(-2.87603e-10 -0.00116216 0)
(-1.00428e-09 -0.00394439 0)
(-1.09897e-09 -0.00689855 0)
(-1.10282e-09 -0.00978676 0)
(-1.09834e-09 -0.0124454 0)
(-1.06613e-09 -0.0147659 0)
(-9.94843e-10 -0.0166772 0)
(-8.87995e-10 -0.0181356 0)
(-7.54457e-10 -0.0191169 0)