/*--------------------------------*- C++ -*----------------------------------*\
| =========                 |                                                 |
| \\      /  F ield         | OpenFOAM: The Open Source CFD Toolbox           |
|  \\    /   O peration     | Version:  5.x                                   |
|   \\  /    A nd           | Web:      www.OpenFOAM.org                      |
|    \\/     M anipulation  |                                                 |
\*---------------------------------------------------------------------------*/
FoamFile
{
    version     2.0;
    format      ascii;
    class       surfaceScalarField;
    location    "0.5";
    object      alphaPhi10;
}
// * * * * * * * * * * * * * * * * * * * * * * * * * * * * * * * * * * * * * //

dimensions      [0 3 -1 0 0 0 0];

internalField   nonuniform List<scalar> 
4432
(
-3.78152e-06
3.78152e-06
-5.24081e-06
1.45929e-06
-3.21718e-06
-2.02364e-06
1.04737e-06
-4.26455e-06
6.54353e-06
-5.49617e-06
1.21316e-05
-5.58812e-06
1.69183e-05
-4.78668e-06
2.04938e-05
-3.57552e-06
2.28681e-05
-2.37424e-06
2.42416e-05
-1.37349e-06
2.48335e-05
-5.9188e-07
2.4779e-05
5.44663e-08
2.40901e-05
6.88918e-07
2.27155e-05
1.37453e-06
2.04148e-05
2.30069e-06
1.67534e-05
3.66145e-06
1.12558e-05
5.49758e-06
4.11161e-06
7.1442e-06
-2.00688e-06
6.14388e-06
-6.38396e-06
4.99201e-06
-1.60204e-05
8.22086e-06
-1.5211e-05
-8.09394e-07
-1.5211e-05
-4.0593e-06
7.84081e-06
-4.91261e-06
2.3126e-06
-2.72618e-06
-4.21006e-06
1.51816e-06
-8.50889e-06
6.93976e-06
-1.09178e-05
1.24562e-05
-1.11045e-05
1.71615e-05
-9.49202e-06
2.06536e-05
-7.06758e-06
2.29685e-05
-4.68917e-06
2.43297e-05
-2.7347e-06
2.49755e-05
-1.23769e-06
2.51418e-05
-1.11789e-07
2.50357e-05
7.95015e-07
2.4756e-05
1.65424e-06
2.43322e-05
2.72441e-06
2.35733e-05
4.42043e-06
2.17655e-05
7.30534e-06
1.73967e-05
1.1513e-05
9.14171e-06
1.43989e-05
-1.77142e-06
1.65211e-05
-9.5613e-06
1.49525e-05
-8.86833e-06
-2.00562e-06
-2.40793e-05
-3.44168e-06
1.12825e-05
-3.99479e-06
2.86571e-06
-1.83961e-06
-6.36525e-06
2.15117e-06
-1.24997e-05
7.3366e-06
-1.61032e-05
1.26921e-05
-1.64601e-05
1.72288e-05
-1.40287e-05
2.05265e-05
-1.03653e-05
2.26727e-05
-6.83533e-06
2.39373e-05
-3.99932e-06
2.45666e-05
-1.86704e-06
2.47253e-05
-2.70493e-07
2.45294e-05
9.90942e-07
2.40607e-05
2.12295e-06
2.34253e-05
3.35977e-06
2.28226e-05
5.02316e-06
2.25267e-05
7.6012e-06
2.19425e-05
1.20972e-05
1.84949e-05
1.78465e-05
1.06639e-05
2.43521e-05
1.85007e-06
2.53918e-05
-2.27254e-07
1.69198e-07
-2.42686e-05
-2.54212e-06
1.38246e-05
-2.66984e-06
2.99343e-06
-6.42049e-07
-8.39304e-06
2.84787e-06
-1.59896e-05
7.65203e-06
-2.09074e-05
1.27946e-05
-2.16027e-05
1.71427e-05
-1.83768e-05
2.02297e-05
-1.34523e-05
2.21966e-05
-8.80221e-06
2.33667e-05
-5.1694e-06
2.40001e-05
-2.50044e-06
2.42501e-05
-5.20557e-07
2.42018e-05
1.03924e-06
2.38959e-05
2.42885e-06
2.33581e-05
3.89754e-06
2.26693e-05
5.71203e-06
2.21284e-05
8.14212e-06
2.23286e-05
1.18969e-05
2.26242e-05
1.7551e-05
2.11937e-05
2.57825e-05
1.73024e-05
2.92832e-05
9.22288e-06
8.25764e-06
-1.5095e-05
-1.35191e-06
1.51765e-05
-7.82844e-07
2.42437e-06
1.05533e-06
-1.02312e-05
4.10651e-06
-1.90408e-05
8.40273e-06
-2.52036e-05
1.30909e-05
-2.62909e-05
1.70276e-05
-2.23134e-05
1.97805e-05
-1.62053e-05
2.15458e-05
-1.05675e-05
2.26558e-05
-6.2794e-06
2.3344e-05
-3.1886e-06
2.37301e-05
-9.06611e-07
2.38717e-05
8.97599e-07
2.37959e-05
2.50467e-06
2.35175e-05
4.17592e-06
2.30813e-05
6.14823e-06
2.25936e-05
8.6298e-06
2.25179e-05
1.19726e-05
2.35754e-05
1.64935e-05
2.55747e-05
2.37832e-05
2.51445e-05
2.97133e-05
1.59569e-05
1.74452e-05
8.61891e-07
1.74904e-07
1.50016e-05
1.97934e-06
6.19927e-07
4.14877e-06
-1.24006e-05
7.17618e-06
-2.20682e-05
1.08128e-05
-2.88402e-05
1.4462e-05
-2.99401e-05
1.7414e-05
-2.52654e-05
1.94651e-05
-1.82564e-05
2.086e-05
-1.19624e-05
2.18757e-05
-7.29511e-06
2.26541e-05
-3.96696e-06
2.32331e-05
-1.48562e-06
2.36156e-05
5.15056e-07
2.3784e-05
2.33629e-06
2.37464e-05
4.2135e-06
2.35641e-05
6.33052e-06
2.33638e-05
8.83015e-06
2.33026e-05
1.20338e-05
2.38922e-05
1.59039e-05
2.61841e-05
2.14914e-05
2.74117e-05
2.84857e-05
1.92377e-05
2.56192e-05
2.00972e-05
2.48846e-06
1.25131e-05
5.89296e-06
-2.78458e-06
9.61416e-06
-1.61218e-05
1.31162e-05
-2.55702e-05
1.56671e-05
-3.13909e-05
1.74321e-05
-3.17051e-05
1.87563e-05
-2.65895e-05
1.97635e-05
-1.92636e-05
2.05935e-05
-1.27924e-05
2.13689e-05
-8.07051e-06
2.21254e-05
-4.72351e-06
2.28194e-05
-2.17954e-06
2.34264e-05
-9.19613e-08
2.38596e-05
1.90306e-06
2.40786e-05
3.99447e-06
2.41218e-05
6.28738e-06
2.41518e-05
8.80013e-06
2.43006e-05
1.1885e-05
2.46136e-05
1.55909e-05
2.60555e-05
2.00495e-05
2.74545e-05
2.70868e-05
2.18972e-05
3.11765e-05
4.19952e-05
4.80887e-06
7.70428e-06
1.10717e-05
-9.04744e-06
1.74199e-05
-2.24696e-05
2.11533e-05
-2.93022e-05
2.17411e-05
-3.19768e-05
2.09942e-05
-3.09568e-05
2.05582e-05
-2.61528e-05
2.0691e-05
-1.93962e-05
2.11496e-05
-1.3251e-05
2.17511e-05
-8.67205e-06
2.24108e-05
-5.38322e-06
2.30508e-05
-2.81958e-06
2.35422e-05
-5.83333e-07
2.4032e-05
1.41331e-06
2.43765e-05
3.64996e-06
2.46342e-05
6.02967e-06
2.49289e-05
8.50544e-06
2.53327e-05
1.14811e-05
2.57798e-05
1.51437e-05
2.66619e-05
1.91674e-05
2.76186e-05
2.61301e-05
2.33485e-05
3.54467e-05
6.53453e-05
2.13384e-07
-2.13384e-07
1.78598e-07
-1.29802e-07
2.1528e-07
1.45855e-07
9.11306e-07
1.11171e-07
1.04048e-06
-3.54126e-08
2.69756e-07
4.03259e-07
4.68792e-09
1.37392e-07
-8.66157e-11
4.7745e-09
2.66818e-12
-8.92695e-11
3.34028e-11
-3.0683e-11
4.44484e-12
2.89675e-11
-2.6269e-07
2.62714e-07
-9.74673e-07
7.12123e-07
-1.82952e-06
8.56755e-07
-2.05695e-05
-3.01737e-06
-4.47415e-05
-1.41153e-05
-7.45694e-05
-3.81898e-05
-6.24377e-05
-0.00010994
-0.000116724
1.00573e-06
-3.94605e-06
1.91514e-06
-5.12696e-06
5.34214e-07
-3.21707e-08
1.04136e-06
4.668e-08
1.40698e-06
-1.80222e-07
1.05952e-06
5.72984e-08
5.85006e-08
4.35422e-07
3.92893e-11
6.17162e-08
3.1389e-11
-1.79536e-10
-1.36494e-10
2.69522e-10
-1.37996e-07
1.37892e-07
-8.94035e-07
1.01e-06
-2.45936e-06
3.20086e-07
-5.28098e-06
7.27898e-08
-3.98457e-06
-5.76532e-07
-9.14152e-06
-1.64106e-06
-4.60555e-05
-8.93398e-06
-5.85224e-05
-8.04413e-05
-0.000175247
4.71821e-06
-6.79505e-05
-7.53839e-07
-3.78343e-07
-1.0839e-08
-4.39627e-08
8.88441e-08
-3.93362e-09
1.15029e-07
-5.89324e-09
5.22594e-07
-2.7955e-08
4.83515e-07
5.96353e-07
3.12381e-09
2.55757e-07
-6.00037e-09
7.3271e-09
-7.71435e-08
7.49156e-08
-8.92302e-07
1.29877e-06
-1.26609e-06
1.96943e-06
-9.4328e-07
3.18354e-07
-1.34757e-07
-1.63103e-08
-5.76682e-07
-8.46404e-08
-1.90831e-06
-2.75134e-07
-8.4363e-06
-2.07236e-06
-4.26028e-05
-3.33952e-05
-0.000217849
-9.32061e-07
-7.67376e-05
-4.62754e-09
-1.31187e-06
2.11266e-09
-5.07415e-08
3.53297e-09
-3.77103e-09
4.69362e-09
-2.30695e-09
1.11924e-07
-5.72585e-09
2.45071e-07
1.39442e-07
1.26448e-09
2.84535e-07
-5.40805e-08
5.84308e-08
-1.0142e-06
8.09708e-07
-1.98819e-06
1.96672e-06
-1.64311e-06
2.07275e-06
-9.04417e-08
4.65212e-08
-4.93295e-08
-1.14273e-08
-5.3582e-08
-3.69086e-08
-2.81978e-07
-5.66242e-08
-1.78109e-06
-5.49497e-07
-2.24284e-05
-1.07425e-05
-0.000121477
-4.50462e-06
-5.96187e-05
-1.41395e-07
-5.72643e-06
-7.07605e-10
-1.89679e-07
2.57702e-09
-4.44608e-09
8.47055e-09
-2.29906e-09
7.34028e-08
-2.2058e-09
8.51501e-08
-2.79938e-08
-1.4607e-08
1.2934e-07
-1.47258e-07
1.29736e-07
-1.53227e-06
1.90733e-06
-1.75797e-06
2.47764e-06
-1.0384e-06
1.72122e-06
-5.54586e-08
3.39998e-09
-1.96679e-08
-1.19225e-08
-3.40121e-09
-1.96648e-08
-4.83506e-08
-9.8842e-09
-4.51063e-07
-1.56934e-07
-5.33617e-06
-6.51896e-06
-4.28368e-05
-7.04232e-06
-5.91284e-05
-3.75556e-07
-2.02062e-05
-5.5809e-09
-5.59664e-07
3.80775e-10
-6.92789e-09
4.62424e-09
-3.00965e-10
1.52102e-08
6.97884e-11
8.59492e-09
-4.03561e-09
4.1035e-10
1.73726e-08
-1.77287e-07
1.39068e-07
-1.30706e-06
9.68352e-07
-1.29749e-06
2.73378e-06
-3.43401e-07
1.05285e-06
-2.72795e-08
-8.23689e-09
-5.3897e-09
-5.43249e-09
-2.23541e-10
-3.88724e-09
-3.67954e-09
-3.64834e-09
-2.06349e-07
-1.3241e-09
-3.87024e-06
-3.92461e-06
-5.67118e-05
-6.44943e-06
-6.56655e-05
-3.61107e-06
-0.000109671
-8.24665e-08
-4.11417e-06
-1.95731e-12
-8.92801e-08
9.02129e-12
-2.67526e-10
-3.88737e-11
-7.57339e-11
-2.40209e-09
-2.28087e-09
-1.72026e-09
5.9676e-09
-2.05715e-08
4.45585e-08
-6.27099e-07
2.85993e-07
-7.34431e-07
2.59497e-06
-4.34892e-08
4.18619e-07
-2.01487e-09
-4.88956e-08
-6.6801e-12
-6.83963e-09
8.3102e-11
-3.4642e-09
3.27534e-10
-2.16858e-09
3.15301e-10
-1.46139e-09
-4.96108e-06
-2.6374e-07
-0.00021118
1.03006e-05
-7.59661e-05
-2.24895e-06
-0.000120062
-3.42345e-07
-3.8527e-05
-1.31627e-09
-4.29948e-07
-2.87828e-11
-1.71763e-09
-1.113e-10
1.9404e-11
-2.04583e-09
-3.37532e-10
-8.71162e-10
2.31144e-09
-2.81258e-11
1.08065e-08
1.12544e-08
8.25133e-08
5.34645e-08
2.61561e-07
2.78098e-08
-3.82166e-08
-1.33793e-09
-2.02408e-08
1.47284e-09
-8.05525e-09
6.29171e-10
-2.85638e-09
4.95154e-10
-2.18558e-09
5.07871e-10
-1.59215e-09
-5.54456e-07
-2.74764e-09
-0.000271941
1.8463e-05
-1.07587e-05
4.19958e-05
-3.25771e-05
5.71572e-05
-3.27631e-05
5.80206e-05
-2.11838e-05
5.25765e-05
-1.82661e-05
4.66032e-05
-1.94439e-05
4.31523e-05
-1.97341e-05
4.31688e-05
-1.79122e-05
4.52737e-05
-1.50445e-05
4.81834e-05
-1.15817e-05
5.09944e-05
-8.19424e-06
5.31608e-05
-4.98604e-06
5.4505e-05
-1.92759e-06
5.48306e-05
1.08779e-06
5.46181e-05
3.86245e-06
5.43635e-05
6.28425e-06
5.49247e-05
7.94423e-06
5.61913e-05
1.02145e-05
5.81366e-05
1.31984e-05
6.12976e-05
1.60064e-05
6.76732e-05
1.97544e-05
8.05285e-05
2.25914e-05
3.41691e-05
0.000111705
2.25898e-05
-1.62604e-05
2.33186e-05
-3.81147e-06
1.56641e-05
-5.86849e-08
1.26543e-05
-7.84101e-14
1.28655e-05
-2.62105e-12
1.22577e-05
-8.97705e-11
1.11509e-05
-2.7485e-09
1.26516e-05
-6.4349e-08
1.86105e-05
-1.18714e-06
2.76339e-05
-5.30756e-06
3.78015e-05
-5.68997e-06
4.75329e-05
-5.18431e-06
5.51304e-05
-3.48429e-06
5.95669e-05
-6.74573e-07
5.99224e-05
3.50698e-06
5.89879e-05
7.21871e-06
5.94181e-05
7.51405e-06
6.01386e-05
9.49401e-06
6.1963e-05
1.13741e-05
6.62646e-05
1.17048e-05
7.38637e-05
1.21553e-05
8.48304e-05
1.16246e-05
1.19648e-05
0.000107035
3.87016e-06
-4.88638e-19
5.86848e-08
-4.84434e-17
-8.44796e-16
-7.23088e-16
-7.9086e-14
9.31256e-18
-2.7001e-12
-1.5598e-16
-9.24638e-11
-1.39815e-14
-2.84148e-09
1.41452e-14
-6.71905e-08
-2.21157e-17
-1.25433e-06
-7.11623e-14
-1.25129e-06
-1.45955e-12
-1.26365e-06
-2.91768e-11
7.04161e-08
-4.65479e-10
4.7649e-06
-6.4505e-09
1.36655e-05
-8.44793e-08
2.87651e-05
-7.34638e-07
4.93678e-05
-9.20878e-07
6.33994e-05
6.516e-07
6.45066e-05
8.38679e-06
6.34373e-05
1.24433e-05
6.56877e-05
9.45436e-06
6.99261e-05
7.91692e-06
7.56592e-05
5.8915e-06
1.81066e-07
8.7443e-05
-4.85787e-19
-2.85101e-21
-1.06058e-17
-1.70561e-19
-1.90961e-17
-1.78563e-18
-1.55848e-17
9.30975e-19
-9.96585e-17
-3.44264e-17
-1.41391e-14
-6.16648e-17
-5.12949e-17
-1.07431e-15
-1.41418e-15
-8.75006e-16
-4.71938e-14
-2.64334e-14
-1.46524e-12
-4.0626e-14
-3.05686e-11
-7.97608e-14
-4.94162e-10
-2.07599e-12
-6.86777e-09
-7.91264e-11
-8.99282e-08
-1.43457e-09
-8.14222e-07
-1.06466e-08
-4.5275e-07
-2.40908e-08
3.73509e-06
-2.5676e-07
1.96848e-05
-1.24069e-06
4.40324e-05
-4.25368e-07
6.66988e-05
-1.08386e-06
7.34804e-05
1.17376e-06
7.83565e-05
1.01547e-06
-4.57152e-06
8.3109e-05
-2.84294e-21
-8.07092e-24
-1.50041e-19
-1.05913e-21
-1.84952e-19
-1.56495e-20
-8.1712e-18
-7.7183e-19
-8.58853e-17
-1.45925e-16
-1.03899e-16
-1.72085e-16
-1.3873e-16
-2.86375e-17
-9.55429e-15
-4.43978e-16
-1.83366e-14
-1.2336e-13
-3.36329e-14
-8.51817e-14
-1.78907e-13
6.33123e-15
-2.48217e-12
9.06935e-14
-3.49681e-10
-2.84968e-12
-6.41265e-10
-2.14034e-09
-1.18064e-09
-1.1104e-08
-1.4356e-08
-1.17009e-08
-2.6932e-07
-1.4978e-09
-5.03509e-07
-3.56955e-09
1.90109e-07
-6.61613e-09
3.92532e-06
-1.37721e-08
1.46986e-05
-1.88531e-07
3.83398e-05
-2.64219e-06
-6.34707e-06
7.11211e-05
-5.13132e-24
-6.42246e-24
-5.39139e-22
-3.26185e-21
-8.72963e-20
-3.6779e-19
-7.10239e-17
-1.69936e-17
-6.5315e-16
-2.58021e-16
-8.54629e-16
-4.91432e-16
-4.58615e-16
-3.02172e-16
-4.0361e-17
-7.28664e-16
-6.13771e-13
-1.34861e-13
-8.18967e-13
-1.60845e-12
2.6615e-14
-1.33848e-12
4.51558e-14
1.32102e-13
-2.06429e-10
7.03138e-12
-2.50521e-09
-7.14126e-10
-2.42863e-09
-2.8058e-09
-8.98611e-10
-4.39678e-09
-3.12663e-10
-9.72086e-10
-4.2762e-10
-2.30038e-09
-7.60959e-10
-5.06501e-09
-5.09378e-09
-8.13168e-09
-1.83609e-07
-7.99569e-09
8.02266e-08
-2.56118e-08
-6.06426e-09
1.44812e-06
-8.5128e-24
-7.69756e-25
-5.24333e-21
-9.73804e-22
-1.65029e-18
-1.65166e-19
-9.78705e-17
-1.486e-17
-8.64983e-16
-2.36656e-16
-1.32852e-15
-6.61313e-16
-8.41675e-16
-6.28618e-16
-1.97348e-15
-6.03459e-16
-1.1351e-12
-2.51151e-14
-1.70964e-12
-1.36497e-12
-8.70425e-13
-1.86479e-12
6.56153e-13
-8.06287e-13
4.3624e-13
-7.42129e-14
1.42619e-10
-2.09197e-11
-5.34587e-11
-1.31133e-11
-1.20299e-10
-1.25551e-13
2.76339e-12
-5.79418e-15
4.63416e-10
-3.19162e-15
1.40821e-09
-1.25858e-09
1.10628e-08
-8.0141e-09
1.57127e-08
-1.09624e-08
7.35409e-09
-1.72104e-08
-3.42822e-09
4.69447e-09
-8.98012e-25
-9.84459e-27
-8.83345e-22
-1.1195e-22
-4.27502e-19
-2.63559e-20
-4.91907e-17
-5.52581e-18
-5.94677e-16
-1.57789e-16
-1.06746e-15
-7.26824e-16
-6.90447e-16
-8.30626e-16
-2.09107e-16
-6.85178e-16
-5.0375e-14
-8.85027e-16
-8.10239e-13
-4.16029e-13
-7.75672e-13
-1.58646e-12
2.58685e-14
-1.00527e-14
1.05606e-12
-1.48557e-12
1.57553e-13
-2.00111e-11
4.10106e-14
-1.29949e-11
3.08649e-16
-8.34273e-14
1.86323e-16
-4.29083e-15
4.91497e-16
-2.1097e-15
1.61085e-09
-1.67913e-09
4.86334e-09
-2.47385e-09
1.19733e-08
-1.58495e-08
7.77588e-09
-6.23921e-09
-2.5979e-09
6.96437e-09
-5.60397e-26
2.79647e-27
-1.00779e-22
-1.22374e-23
-5.77428e-20
-4.20897e-21
-1.31602e-17
-1.50923e-18
-2.63583e-16
-6.41882e-17
-7.11938e-16
-4.37595e-16
-4.53188e-16
-7.77091e-16
-4.72393e-17
-6.92969e-16
-3.91729e-16
-3.47245e-16
-7.17007e-14
-4.97615e-16
1.08278e-14
-5.22393e-16
1.0202e-15
-2.45482e-16
1.30569e-12
-2.62048e-12
8.37204e-12
-1.37551e-11
5.54998e-14
-6.35665e-12
-3.53007e-15
-2.15511e-14
7.41956e-16
-3.12734e-15
3.35883e-16
-3.16644e-16
4.10067e-10
-3.81718e-10
8.52411e-10
-1.7453e-09
1.04997e-08
-2.29721e-08
3.3725e-09
-1.91377e-08
-3.59838e-09
4.35195e-09
-2.72876e-27
4.85788e-27
-1.08518e-23
-1.41702e-24
-8.27981e-21
-7.19445e-22
-2.81347e-18
-3.94561e-19
-7.45053e-17
-2.00917e-17
-2.52412e-16
-1.56604e-16
-1.43923e-16
-3.27116e-16
1.33604e-17
-3.12877e-16
7.89847e-17
-2.21088e-16
4.12136e-17
-4.5858e-16
5.35333e-17
-5.35073e-16
7.24942e-17
-2.64802e-16
2.38709e-12
-7.54271e-13
3.18133e-12
-4.87811e-14
2.12103e-14
-1.66766e-17
-3.74541e-16
3.40465e-17
2.24007e-16
-1.61526e-17
5.26476e-15
-4.69584e-15
7.33367e-12
-3.07186e-11
-5.44746e-11
-5.09612e-10
-5.57253e-10
-9.64303e-09
-1.08155e-10
-1.83016e-08
-1.74489e-08
7.80041e-10
-1.11954e-25
-6.18249e-26
-1.37713e-24
-1.51841e-25
-1.37138e-21
-1.04187e-22
-5.93172e-19
-8.51163e-20
-1.68344e-17
-5.02515e-18
-6.39436e-17
-4.13825e-17
-3.41692e-17
-9.54667e-17
8.39921e-18
-9.60998e-17
3.93814e-17
-1.18609e-16
1.56185e-16
-7.29198e-16
1.41482e-16
-5.68342e-16
1.53738e-16
-2.77418e-16
4.88885e-14
-1.01297e-16
1.21968e-16
-1.44342e-17
1.99113e-20
1.05272e-16
-1.60711e-19
7.61611e-17
-2.11925e-17
4.87916e-18
-4.6729e-15
-2.84005e-17
-3.06526e-11
-5.85683e-14
1.38433e-10
-5.43153e-12
-2.0442e-09
-2.64199e-10
-7.88931e-09
-6.97268e-09
-1.53677e-08
-7.91332e-09
-7.14127e-27
-1.76388e-25
-1.41073e-25
-1.79088e-26
-1.95582e-22
-1.76889e-23
-1.10898e-19
-1.48378e-20
-3.29549e-18
-1.0462e-18
-1.44228e-17
-8.7209e-18
-9.96152e-18
-2.03463e-17
-3.17613e-18
-2.18944e-17
6.3855e-18
-5.97292e-17
1.15439e-16
-3.94057e-16
6.86044e-17
-4.41245e-16
3.93698e-17
-2.5488e-16
1.02767e-19
-6.18886e-17
2.27761e-21
-1.43337e-17
4.92275e-18
8.52793e-17
6.63516e-19
1.02368e-16
-2.23783e-18
2.99813e-17
-3.45022e-17
3.86391e-18
-5.8593e-14
-9.79596e-18
-5.48973e-12
-3.83658e-16
-2.69669e-10
-2.00512e-14
-2.17754e-11
-8.04026e-13
-2.55982e-11
-1.31717e-08
-5.66339e-28
-1.18111e-25
-1.20196e-26
-6.45556e-27
-2.45351e-23
-9.91956e-24
-1.94349e-20
-2.10985e-21
-6.19513e-19
-1.73631e-19
-2.77011e-18
-1.47435e-18
-2.53336e-18
-3.43972e-18
-2.29399e-18
-3.94405e-18
-3.21105e-17
-9.65144e-18
-1.46274e-17
-5.16124e-17
-8.0026e-18
-7.63499e-17
-4.53683e-18
-1.0838e-16
-4.08997e-18
-7.84813e-17
1.1273e-17
-1.98845e-17
1.96935e-17
3.20681e-17
7.65238e-18
4.44095e-17
1.18296e-18
2.61756e-17
-9.44631e-20
5.81787e-18
-5.0687e-18
-4.82172e-18
-3.7744e-16
-1.13051e-17
-2.0359e-14
-6.59388e-17
-8.24248e-13
-1.45813e-16
-3.56497e-16
-2.64222e-11
-1.41095e-28
-7.772e-26
-4.14926e-27
-3.15132e-27
-3.64985e-24
-4.23292e-24
-2.94075e-21
-2.50462e-22
-1.02226e-19
-2.1891e-20
-4.65601e-19
-1.88665e-19
-5.23785e-19
-4.8225e-19
-6.6263e-19
-6.79328e-19
-4.043e-18
-1.2667e-18
-6.85574e-18
-3.64678e-18
-1.28916e-17
-1.39162e-17
-1.63744e-17
-2.93372e-17
-1.11379e-17
-4.18223e-17
8.73077e-18
-1.34462e-17
1.44678e-17
5.1438e-18
1.01098e-17
1.08155e-17
2.59013e-18
6.49752e-18
-2.46762e-18
-2.69345e-19
-6.24227e-18
-8.32589e-18
-8.85369e-18
-3.16045e-17
-1.38952e-17
-8.30332e-17
-2.56211e-17
-1.55957e-16
-3.27352e-16
-7.87355e-17
-3.02675e-29
-5.89282e-26
-3.82965e-26
3.5115e-26
-6.73061e-25
-1.14139e-24
-3.69625e-22
-2.53872e-23
-1.2701e-20
-2.12227e-21
-6.08297e-20
-1.82336e-20
-9.66818e-20
-5.43806e-20
-1.54926e-19
-1.21503e-19
-3.44317e-19
-3.31414e-19
-1.59635e-18
-1.09085e-18
-4.66792e-18
-3.44052e-18
-8.83336e-18
-5.4189e-18
-6.46475e-18
-5.69188e-18
2.10669e-18
-2.49113e-18
5.01355e-18
-5.2044e-19
3.42616e-18
9.7688e-19
-1.61557e-19
8.33114e-19
-1.72021e-18
9.66454e-20
-1.28643e-17
-8.26922e-19
-4.67767e-17
-1.4918e-17
-1.24392e-16
-6.47954e-17
-2.78742e-16
-1.77353e-16
-4.14723e-16
-1.35409e-15
5.70235e-28
-4.6215e-26
-6.40041e-26
5.64354e-26
-1.35804e-25
-1.9032e-25
-3.86127e-23
-2.14648e-24
-1.19442e-21
-1.50059e-22
-5.82761e-21
-1.35686e-21
-1.5545e-20
-5.62284e-21
-4.28841e-20
-2.4454e-20
-1.46696e-19
-8.64707e-20
-6.72923e-19
-2.27389e-19
-1.36346e-18
-4.48771e-19
-1.60952e-18
-5.34979e-19
-1.06339e-18
-4.22927e-19
-6.25931e-19
-3.2394e-19
5.98089e-19
-2.73082e-19
5.69231e-19
-1.07366e-19
7.396e-20
-4.45902e-20
-4.60297e-19
-4.713e-20
-1.85713e-18
-1.08033e-19
-2.88702e-17
-1.71905e-18
-1.33567e-16
-1.72052e-17
-4.1733e-16
-9.40114e-17
-3.15679e-16
-1.70241e-15
1.08616e-27
-3.31228e-26
-1.06623e-26
3.71309e-26
-2.0993e-26
-1.10736e-26
-2.91566e-24
-1.56138e-25
-7.7882e-23
-7.22586e-24
-4.73515e-22
-7.89514e-23
-2.71179e-21
-6.75321e-22
-1.40205e-20
-5.09059e-21
-4.86095e-20
-2.11981e-20
-1.33154e-19
-4.98551e-20
-1.73177e-19
-7.14076e-20
-1.70647e-19
-7.46353e-20
-1.32865e-19
-5.79403e-20
-1.35904e-19
-2.71701e-20
-1.1187e-19
-7.01207e-21
-3.93423e-20
-1.17229e-21
-4.55069e-20
-4.52613e-22
-5.4614e-20
-1.56783e-21
-2.02435e-19
-2.53831e-20
-3.87913e-18
-4.83033e-19
-3.85431e-17
-5.3458e-18
-2.58063e-16
-3.19676e-17
-1.42417e-16
-1.96704e-15
8.61141e-28
-2.04231e-26
-3.8285e-28
1.78822e-26
-1.05884e-27
4.86615e-27
-1.41069e-25
-7.824e-27
-3.17545e-24
-2.34811e-25
-3.949e-23
-4.25142e-24
-5.29062e-22
-9.15371e-23
-4.11099e-21
-8.96475e-22
-1.55576e-20
-4.10084e-21
-2.86356e-20
-9.7226e-21
-3.32282e-20
-1.32911e-20
-3.28236e-20
-1.36302e-20
-1.95277e-20
-1.03875e-20
-5.976e-21
-4.79134e-21
-1.00617e-21
-1.18487e-21
-2.74451e-22
-1.72882e-22
-3.53253e-22
-6.7471e-23
-2.28315e-21
-2.58797e-22
-6.57794e-20
-5.41623e-21
-1.54356e-18
-1.28881e-19
-1.64844e-17
-1.7587e-18
-1.0649e-16
-1.06512e-17
-3.80873e-17
-8.90561e-16
4.91254e-28
-1.05205e-26
6.47528e-28
6.76171e-27
-1.179e-27
4.60857e-27
-3.98635e-27
2.8907e-29
-1.02541e-25
-3.92422e-27
-4.0455e-24
-2.85657e-25
-9.56945e-23
-1.03707e-23
-8.85972e-22
-1.16674e-22
-3.598e-21
-5.86826e-22
-6.54584e-21
-1.48962e-21
-7.56481e-21
-2.12942e-21
-7.39858e-21
-2.22169e-21
-4.4378e-21
-1.69318e-21
-1.34939e-21
-7.69695e-22
-1.97078e-22
-1.7711e-22
-5.46348e-23
-2.17697e-23
-6.95977e-23
-8.52498e-24
-4.98745e-22
-4.45271e-23
-1.74647e-20
-1.04234e-21
-5.89955e-19
-3.05297e-20
-8.07945e-18
-5.21792e-19
-4.88163e-17
-3.46708e-18
-9.79582e-18
-2.98538e-16
2.13422e-28
-4.40126e-27
7.12008e-28
1.90165e-27
9.74636e-30
1.96844e-27
-9.71243e-28
3.64604e-28
-3.43374e-27
-3.32984e-29
-4.26181e-25
-1.76801e-26
-1.29924e-23
-7.86485e-25
-1.37223e-22
-1.10281e-23
-6.1543e-22
-6.16466e-23
-1.24375e-21
-1.68014e-22
-1.4397e-21
-2.5487e-22
-1.45179e-21
-2.70713e-22
-8.74317e-22
-2.17128e-22
-2.5218e-22
-1.04076e-22
-3.0949e-23
-2.40632e-23
-8.65465e-24
-2.54602e-24
-1.13801e-23
-9.60036e-25
-1.05877e-22
-6.98087e-24
-4.35109e-21
-1.91129e-22
-1.98718e-19
-6.48789e-21
-3.81531e-18
-1.24415e-19
-2.67335e-17
-8.17928e-19
-1.36769e-18
-1.14373e-16
6.70305e-29
-1.44362e-27
3.53639e-28
3.63536e-28
1.45291e-28
4.63192e-28
-1.42076e-29
1.16958e-28
-1.50148e-28
-2.82674e-30
-3.01504e-26
-5.3208e-28
-1.26426e-24
-3.86615e-26
-1.57934e-23
-7.59139e-25
-7.77648e-23
-4.64733e-24
-1.74741e-22
-1.32928e-23
-2.06841e-22
-2.09735e-23
-2.18169e-22
-2.25353e-23
-1.42596e-22
-1.89203e-23
-4.29938e-23
-9.66913e-24
-4.69055e-24
-2.36657e-24
-1.29107e-24
-2.64693e-25
-1.75309e-24
-1.09314e-25
-2.2513e-23
-1.04596e-24
-1.12398e-21
-3.25769e-23
-6.3499e-20
-1.18727e-21
-1.48031e-18
-2.13493e-20
-1.23488e-17
-4.97303e-20
9.5133e-19
-5.79203e-17
1.39805e-29
-3.55708e-28
9.70135e-29
4.11321e-29
5.57159e-29
5.2931e-29
-3.86738e-31
1.27718e-29
-5.66814e-30
2.45466e-30
-1.21762e-27
-4.48732e-30
-9.0461e-26
-1.37668e-27
-1.35186e-24
-3.67555e-26
-7.13942e-24
-2.36679e-25
-1.70552e-23
-6.88446e-25
-2.11598e-23
-1.10642e-24
-2.28473e-23
-1.19637e-24
-1.62638e-23
-1.03489e-24
-5.3563e-24
-5.55318e-25
-6.28384e-25
-1.43242e-25
-2.07114e-25
-1.90049e-26
-2.89629e-25
-1.02538e-26
-5.03581e-24
-1.303e-25
-3.01902e-22
-3.96388e-24
-2.14949e-20
-9.94674e-23
-5.93232e-19
1.58635e-21
-5.24098e-18
1.0359e-19
1.0943e-18
-2.62468e-17
1.70274e-30
-6.27719e-29
1.29827e-29
2.31158e-30
7.40334e-30
2.87996e-30
1.92201e-30
6.38214e-31
-3.10307e-30
1.25937e-31
-3.39117e-29
-1.02743e-31
-4.87204e-27
-3.55879e-29
-8.25622e-26
-1.07479e-27
-4.50937e-25
-7.2092e-27
-1.11545e-24
-2.12745e-26
-1.4508e-24
-3.46595e-26
-1.59368e-24
-3.75315e-26
-1.22647e-24
-3.22507e-26
-4.41111e-25
-1.72603e-26
-5.83781e-26
-4.41647e-27
-3.08001e-26
-7.5711e-28
-4.57731e-26
-5.43175e-28
-1.14234e-24
-7.02248e-27
-7.66213e-23
1.44066e-25
-6.57281e-21
4.52289e-23
-2.3568e-19
3.8077e-21
-2.46814e-18
9.43005e-20
7.81594e-19
-1.14831e-17
1.01835e-31
-7.58946e-30
8.32999e-31
-5.17406e-43
4.62892e-31
-3.10425e-40
1.24322e-31
-9.62864e-38
-9.36648e-32
-3.59598e-36
-9.72655e-31
-4.72739e-34
-1.70653e-28
-2.2669e-31
-3.16663e-27
-1.225e-29
-1.80147e-26
-9.88652e-29
-4.64123e-26
-3.11847e-28
-6.4197e-26
-5.22418e-28
-7.11297e-26
-5.54506e-28
-5.76654e-26
-4.30896e-28
-2.18431e-26
-1.93019e-28
-3.45454e-27
-3.60249e-29
-3.31912e-27
-2.95462e-30
-6.62703e-27
2.70168e-29
-2.5931e-25
3.23098e-27
-1.91828e-23
3.27791e-25
-1.91626e-21
3.2371e-23
-8.24614e-20
2.21089e-21
-9.31414e-19
5.15339e-20
4.14161e-19
-4.67027e-18
-2.39492e-44
-5.98659e-31
-5.41339e-43
-1.58622e-47
-2.69666e-39
-3.63503e-45
-2.01154e-37
-1.56002e-42
-6.39905e-36
-9.37202e-40
-4.73371e-33
-4.90918e-37
-2.10271e-30
-2.66031e-34
-5.60392e-29
-2.22776e-32
-3.71898e-28
-2.23887e-31
-1.06204e-27
-7.33167e-31
-1.61107e-27
-1.05404e-30
-1.78352e-27
-7.44142e-31
-1.44031e-27
-1.72234e-31
-5.32549e-28
7.96945e-31
-1.2217e-28
7.69428e-31
-1.43465e-28
8.68338e-31
-1.10509e-27
2.18071e-29
-5.69067e-26
1.70089e-27
-4.45712e-24
1.42575e-25
-5.01002e-22
1.29182e-23
-2.65175e-20
9.24414e-22
-3.46633e-19
2.35871e-20
1.97218e-19
-1.82211e-18
-3.11688e-49
-3.44326e-32
-2.35752e-47
7.40124e-48
-3.68511e-45
-1.44242e-47
-3.34341e-42
-1.57978e-45
-2.77244e-39
-9.2851e-43
-5.70331e-36
-4.47152e-40
-4.77225e-33
-2.17225e-37
-1.99914e-31
-2.0647e-35
-1.74519e-30
-1.27494e-34
-5.5689e-30
5.49268e-34
-7.84663e-30
4.5851e-33
-8.62555e-30
1.2443e-32
-7.22179e-30
2.05197e-32
-3.944e-30
2.59539e-32
-4.14124e-30
3.08403e-32
-6.57281e-30
1.0913e-31
-1.94403e-28
6.90295e-30
-1.17903e-26
5.4329e-28
-9.58785e-25
4.48271e-26
-1.1906e-22
4.07294e-24
-7.75166e-21
3.20719e-22
-1.18001e-19
9.22192e-21
8.21055e-20
-6.85871e-19
3.41192e-49
-1.57165e-33
-2.71564e-48
9.6361e-48
-2.83295e-47
1.11896e-47
-6.44901e-45
-2.27828e-50
-5.48092e-42
1.41873e-46
-8.59558e-39
1.82388e-43
-1.15604e-35
2.12955e-40
-7.62845e-34
7.54681e-38
-8.87634e-33
2.90829e-36
-4.25098e-32
3.45973e-35
-1.06572e-31
2.03382e-34
-1.43765e-31
6.25016e-34
-1.56052e-31
1.03839e-33
-1.32527e-31
1.48647e-33
-1.49721e-31
1.965e-33
-6.72912e-31
2.17005e-32
-3.42032e-29
1.73744e-30
-2.2682e-27
1.3697e-28
-1.91376e-25
1.16133e-26
-2.61604e-23
1.09627e-24
-2.10722e-21
9.65407e-23
-3.61002e-20
3.16859e-21
2.96836e-20
-2.21421e-19
3.93176e-49
-6.0073e-35
8.48053e-48
1.43353e-46
-1.53575e-48
6.66812e-49
-3.50514e-48
5.71981e-49
-2.39291e-45
5.52158e-49
-1.81061e-42
2.45103e-46
-1.01904e-39
9.03285e-44
-2.8457e-37
1.97371e-41
-1.66506e-35
3.29227e-39
-2.12629e-34
1.54428e-37
-9.73754e-34
1.62003e-36
-1.73802e-33
6.40071e-36
-1.91146e-33
1.11641e-35
-2.00895e-33
1.37761e-35
-2.88399e-33
4.87738e-35
-8.40127e-32
4.00806e-33
-5.47187e-30
3.42218e-31
-3.88127e-28
2.76432e-29
-3.42594e-26
2.47692e-27
-5.10211e-24
2.47756e-25
-5.12524e-22
2.47077e-23
-9.97954e-21
9.53641e-22
9.70874e-21
-6.62091e-20
3.92961e-48
-1.98645e-36
9.46316e-49
2.41659e-45
4.51386e-49
-4.47765e-50
-2.05457e-48
-3.64909e-49
-3.83284e-48
2.25821e-51
-1.87026e-45
9.3065e-49
-6.93838e-43
2.69396e-46
-2.36495e-40
5.16842e-44
-3.35369e-38
7.49685e-42
-6.61471e-37
4.06007e-40
-3.8472e-36
4.37267e-39
-7.69713e-36
1.72784e-38
-8.96939e-36
3.18721e-38
-1.15154e-35
9.93001e-38
-1.69154e-34
6.41915e-36
-1.08742e-32
6.94335e-34
-7.3932e-31
5.18106e-32
-5.60727e-29
4.36303e-30
-5.23446e-27
4.19928e-28
-8.46631e-25
4.53447e-26
-1.08121e-22
5.19739e-24
-2.45798e-21
2.4393e-22
2.74322e-21
-1.76669e-20
1.06545e-47
-5.7937e-38
2.11558e-53
9.19809e-44
8.30803e-52
-1.86708e-53
-3.66173e-51
-1.09159e-51
-5.85711e-51
8.01541e-54
-2.92668e-48
2.9827e-51
-9.8922e-46
8.0117e-49
-2.44387e-43
1.38958e-46
-2.94075e-41
1.35482e-44
-8.49652e-40
5.33533e-43
-6.55327e-39
6.6191e-42
-1.22669e-38
3.19136e-41
-2.36106e-38
1.49174e-40
-2.64216e-37
8.43134e-39
-1.75539e-35
1.10725e-36
-1.14799e-33
8.08213e-35
-8.02508e-32
6.02344e-33
-6.46064e-30
5.23845e-31
-6.37668e-28
5.36317e-29
-1.10963e-25
6.30193e-27
-1.88573e-23
8.43435e-25
-5.20095e-22
5.09113e-23
6.43015e-22
-3.91586e-21
-1.40969e-41
-1.50474e-39
8.15565e-57
3.39748e-45
1.50771e-54
-1.63733e-56
-7.53788e-54
-2.86765e-54
-1.21144e-53
2.60916e-56
-5.62629e-51
9.61963e-54
-1.80051e-48
2.46605e-51
-4.18186e-46
4.11473e-49
-4.87405e-44
3.88709e-47
-1.31241e-42
1.49449e-45
-7.25821e-42
1.87258e-44
-2.41909e-41
1.70416e-43
-2.98314e-40
9.17554e-42
-2.17761e-38
1.28986e-39
-1.51868e-36
1.05487e-37
-9.96732e-35
7.59034e-36
-6.98937e-33
5.66825e-34
-5.72134e-31
4.82944e-32
-5.84516e-29
5.05473e-30
-1.06922e-26
6.42567e-28
-2.56293e-24
1.01042e-25
-9.15654e-23
8.34161e-24
1.22289e-22
-6.8246e-22
-7.39871e-43
-3.49245e-41
1.16857e-59
7.33277e-47
2.95773e-57
-4.21419e-59
-1.75432e-56
-7.66392e-57
-2.83343e-56
9.30928e-59
-1.25994e-53
3.29637e-56
-3.85991e-51
8.10293e-54
-8.51223e-49
1.31325e-51
-9.47026e-47
1.23165e-49
-2.00935e-45
5.18462e-48
-1.42802e-44
1.1796e-46
-2.63761e-43
7.35639e-45
-1.8989e-41
1.11293e-42
-1.49765e-39
9.81096e-41
-1.10294e-37
7.97701e-39
-7.50969e-36
6.1796e-37
-5.12572e-34
4.61141e-35
-4.02422e-32
3.71852e-33
-4.08793e-30
3.79469e-31
-7.53615e-28
5.04886e-29
-2.63661e-25
9.11964e-27
-1.32527e-23
1.07111e-24
1.88658e-23
-9.16407e-23
-2.48854e-44
-7.23384e-43
1.01085e-60
9.45832e-49
6.83286e-60
-5.99976e-60
-4.69135e-59
-2.28678e-59
-7.79841e-59
4.06914e-61
-3.28209e-56
1.37418e-58
-9.65357e-54
3.18494e-56
-1.94672e-51
5.14895e-54
-1.66236e-49
5.28627e-52
-3.96124e-48
3.66209e-50
-1.31261e-46
3.72825e-48
-1.07836e-44
4.94049e-46
-9.97414e-43
5.98858e-44
-8.80619e-41
5.71642e-42
-7.06578e-39
5.28294e-40
-5.05338e-37
4.36951e-38
-3.41105e-35
3.37065e-36
-2.52446e-33
2.67805e-34
-2.40601e-31
2.60507e-32
-4.2522e-29
3.47112e-30
-2.12445e-26
6.90615e-28
-1.60206e-24
1.12588e-25
2.40388e-24
-9.74521e-24
-6.49666e-46
-1.33033e-44
1.00755e-61
9.07232e-52
6.99713e-62
-9.52633e-61
-1.55799e-61
-2.91872e-61
-2.86037e-61
2.66738e-63
-1.11833e-58
9.28536e-61
-3.0489e-56
2.21143e-58
-5.32488e-54
4.02448e-56
-4.59741e-52
6.12713e-54
-3.64298e-50
8.66468e-52
-3.70571e-48
1.42207e-49
-4.43198e-46
2.11488e-47
-4.58832e-44
2.6529e-45
-4.42051e-42
2.78373e-43
-3.92482e-40
2.79443e-41
-3.04023e-38
2.60701e-39
-2.14821e-36
2.18709e-37
-1.56596e-34
1.84221e-35
-1.38419e-32
1.80417e-33
-2.29277e-30
2.39786e-31
-1.52543e-27
5.08781e-29
-1.68568e-25
1.04516e-26
2.56416e-25
-8.76485e-25
-1.36569e-47
-2.15694e-46
7.74776e-64
-1.79311e-50
7.33471e-64
-1.12078e-62
-7.8638e-64
-3.71536e-63
-1.6012e-63
2.49948e-65
-6.32648e-61
8.90875e-63
-1.68983e-58
2.57293e-60
-3.35908e-56
5.67976e-58
-5.05976e-54
1.15233e-55
-7.63041e-52
2.21852e-53
-1.06129e-49
4.07463e-51
-1.46508e-47
6.11052e-49
-1.70942e-45
8.4953e-47
-1.78506e-43
1.00664e-44
-1.81253e-41
1.13224e-42
-1.57873e-39
1.23853e-40
-1.2197e-37
1.1843e-38
-9.48515e-36
1.11831e-36
-8.39999e-34
1.2155e-34
-1.36079e-31
1.71478e-32
-1.10154e-28
3.82683e-30
-1.58146e-26
8.82243e-28
2.27025e-26
-7.19537e-26
-2.35458e-49
-3.05963e-48
4.11494e-66
-6.38002e-52
5.75803e-66
-9.09228e-65
-5.06814e-66
-3.50875e-65
-1.03996e-65
1.70752e-67
-4.567e-63
7.00124e-65
-1.42062e-60
2.29137e-62
-3.40273e-58
6.25724e-60
-7.20321e-56
1.49887e-57
-1.326e-53
3.45717e-55
-2.21543e-51
6.45752e-53
-3.50718e-49
1.16914e-50
-4.59804e-47
1.81723e-48
-5.48603e-45
2.51721e-46
-6.4328e-43
3.395e-44
-6.58216e-41
4.30239e-42
-5.77305e-39
4.93194e-40
-5.16064e-37
5.51457e-38
-5.07633e-35
7.20674e-36
-8.70936e-33
1.14081e-33
-8.20119e-30
2.7561e-31
-1.31659e-27
6.52815e-29
1.59958e-27
-5.38303e-27
-3.3673e-51
-3.76777e-50
1.88233e-68
-1.44523e-53
3.71402e-68
-6.37919e-67
-2.52848e-68
-2.75784e-67
-4.966e-68
6.61096e-70
-2.32943e-65
3.25899e-67
-8.46169e-63
1.10921e-64
-2.46436e-60