/*--------------------------------*- C++ -*----------------------------------*\
| =========                 |                                                 |
| \\      /  F ield         | OpenFOAM: The Open Source CFD Toolbox           |
|  \\    /   O peration     | Version:  5.x                                   |
|   \\  /    A nd           | Web:      www.OpenFOAM.org                      |
|    \\/     M anipulation  |                                                 |
\*---------------------------------------------------------------------------*/
FoamFile
{
    version     2.0;
    format      ascii;
    class       volScalarField;
    location    "0.5";
    object      alpha.water;
}
// * * * * * * * * * * * * * * * * * * * * * * * * * * * * * * * * * * * * * //

dimensions      [0 0 0 0 0 0 0];

internalField   nonuniform List<scalar> 
2268
(
1
1
1
1
1
1
1
1
1
1
1
1
1
1
1
1
1
1
0.999808
0.895114
0.80817
1
1
1
1
1
1
1
1
1
1
1
1
1
1
1
1
1
1
1
1
1
0.969084
0.809374
0.995722
1
1
1
1
1
1
1
1
1
1
1
1
1
1
1
1
1
1
1
1
1
0.934087
0.987531
0.997329
1
1
1
1
1
1
1
1
1
1
1
1
1
1
1
1
1
1
1
1
0.999992
0.999665
0.995274
1
1
1
1
1
1
1
1
1
1
1
1
1
1
1
1
1
1
1
1
1
1
1
1
1
1
1
1
1
1
1
1
1
1
1
1
1
1
1
1
1
1
1
1
1
0.999885
1
1
1
0.999999
0.999999
0.999999
1
1
1
1
1
1
1
1
1
1
1
1
1
1
1
1
0.999892
1
1
0.999992
0.999964
0.999958
0.999975
0.999991
0.999998
1
1
1
1
1
1
1
1
1
1
1
1
1
1
0.999984
0
0.000209988
0.00061672
0.00323359
0.00752738
0.00480313
0.000465234
-2.36995e-10
-2.16885e-11
-5.413e-11
-1.01841e-11
-2.05052e-08
-1.49061e-07
-2.03099e-06
0.0607656
0.192163
0.376501
0.576458
0.552183
0.00285744
0.0293897
0.0196942
0.0144716
0.0151748
0.0150472
0.00260325
4.29804e-06
1.45621e-07
4.60623e-07
1.54587e-08
0.000135314
0.00283679
0.0136852
0.0165551
0.0188019
0.219608
0.631134
1
0.331846
0.0548665
0.0102949
0.00194473
0.000685281
0.00390037
0.00415449
0.000854074
4.44376e-06
5.5485e-06
0.000375654
0.0044155
0.00469041
0.000854475
0.000124555
0.000385586
0.0016979
0.070636
1
0.66249
5.84854e-05
3.33568e-05
3.05877e-05
2.64695e-05
0.000163925
0.00406724
0.000904296
2.80618e-05
0.00071778
0.00439148
0.00433454
0.00327968
4.85879e-05
4.98391e-05
6.47592e-05
0.000396634
0.034875
0.739318
0.668482
0.000294455
3.51166e-05
2.87091e-05
2.15431e-05
0.000379398
0.00170737
0.00125871
0.000142403
0.00175827
0.00450371
0.00441964
0.00207752
2.64753e-05
3.11505e-05
1.21863e-05
5.85481e-05
0.0119543
0.0870938
0.71831
0.0106564
3.44842e-05
2.04235e-05
1.98101e-05
0.000275453
0.000322377
0.000705455
0.000232597
0.00410719
0.00450371
0.00450371
0.000348244
1.58562e-05
2.34553e-05
5.97523e-06
5.85497e-05
0.00319882
0.0104836
0.960277
0.568813
9.58877e-05
1.57535e-06
1.496e-06
4.46688e-05
1.20228e-05
7.95207e-05
0.000144371
0.00237296
0.00450371
0.00421961
1.31198e-05
9.07888e-06
5.97523e-06
5.28164e-06
5.17815e-06
0.00620156
0.498167
1
0.986734
0.0913816
1.08705e-06
9.75098e-07
2.1145e-07
7.76844e-07
8.74988e-06
4.05386e-05
0.000233266
0.00339425
0.00130385
0.000249218
7.26225e-06
5.65246e-06
5.17971e-06
5.11942e-06
0.000313062
0.784376
1
0.999966
0.977184
0.932003
0.941555
0.969145
0.987799
0.995831
0.999614
0.999988
0.999996
0.999999
1
1
1
1
1
1
1
1
1
1
1
0.871862
0.63296
0.369062
0.237674
0.291846
0.388103
0.444749
0.493768
0.567922
0.653117
0.738987
0.823451
0.90126
0.963496
1
1
1
1
1
1
1
1
1
0.0872837
1.29932e-14
2.01192e-13
3.60765e-13
6.219e-13
4.46616e-12
2.74459e-10
1.78503e-12
2.07893e-11
0.0173257
0.0495313
0.0954184
0.15966
0.256408
0.406756
0.641047
0.936711
1
1
1
1
1
1
0
6.40543e-17
2.76309e-15
1.35609e-13
5.23186e-13
6.219e-13
1.18302e-12
1.78503e-12
1.76989e-12
2.07894e-11
4.17325e-10
8.4028e-09
1.36834e-07
1.9268e-06
7.46732e-06
0.0204058
0.0898952
0.258483
0.53963
0.906177
0.999979
1
1
0
1.11191e-18
3.17314e-16
1.337e-13
3.66192e-12
9.37866e-12
1.01354e-11
1.82747e-10
1.78103e-09
1.45249e-09
1.78996e-09
2.0687e-09
8.28148e-07
6.89253e-06
7.91961e-06
9.60473e-06
1.31692e-05
0.00277908
0.0318557
0.0803169
0.197055
0.410186
0.740764
9.46418e-21
3.20604e-18
4.24719e-16
2.92012e-13
2.18999e-11
6.71711e-11
8.08568e-11
8.11904e-11
1.59708e-08
8.87119e-08
8.99718e-08
6.20326e-09
4.77324e-07
9.27848e-05
0.000128914
0.000128125
1.43923e-05
1.47717e-05
1.53789e-05
1.6619e-05
1.9885e-05
0.00587075
0.0235911
7.86941e-21
6.94855e-18
2.07671e-14
2.00209e-12
3.27699e-11
1.17154e-10
1.60597e-10
1.3906e-10
1.62865e-08
1.70701e-07
1.70701e-07
1.26338e-07
3.58868e-08
5.34439e-06
5.0939e-05
1.73443e-05
1.4281e-05
2.87707e-05
7.89529e-05
0.00023225
0.000206306
8.40135e-05
8.38273e-05
2.05148e-22
1.98698e-19
4.47488e-15
1.08722e-12
2.69871e-11
1.23575e-10
1.83838e-10
1.57827e-10
1.35658e-09
8.31051e-08
1.70701e-07
1.31069e-07
1.00672e-07
2.42581e-09
6.68958e-11
4.07279e-11
3.99472e-11
3.95775e-11
1.59566e-05
0.000155282
0.000215912
0.000181764
8.39722e-05
1.07129e-22
1.27156e-20
4.6872e-16
3.33156e-13
1.38108e-11
9.22241e-11
1.75434e-10
1.57873e-10
4.95857e-11
7.88776e-09
5.40103e-08
1.60002e-11
1.57565e-07
6.38731e-07
2.24903e-07
2.75597e-11
4.64945e-11
3.9726e-11
2.01807e-05
1.6619e-05
0.000215494
0.000211144
8.38994e-05
4.28844e-24
9.00198e-22
5.65072e-17
8.7023e-14
4.80341e-12
3.96399e-11
8.85477e-11
9.27513e-11
4.9594e-11
1.606e-11
1.60002e-11
1.6e-11
8.81624e-08
5.42679e-07
1.0474e-07
2.19981e-15
6.79604e-11
3.05829e-12
5.96305e-06
1.64746e-05
0.000151436
0.000236753
0.000163322
-8.61646e-21
-2.51325e-38
8.35095e-18
2.23767e-14
1.37375e-12
1.17403e-11
2.71026e-11
2.73897e-11
2.02549e-11
4.74818e-11
3.32212e-11
1.60002e-11
9.05107e-09
3.95129e-15
1.04587e-30
-8.64263e-13
0
9.54159e-14
1.72393e-11
2.72589e-06
3.18579e-05
0.00022688
0.000271497
-2.19282e-20
-5.01057e-37
1.11888e-18
4.72625e-15
3.22804e-13
2.76986e-12
6.59245e-12
6.67079e-12
8.97769e-12
6.61165e-11
4.15646e-11
1.61499e-11
3.95129e-15
0
-3.3369e-12
-2.09637e-12
-1.19747e-13
-1.67073e-29
2.67048e-15
1.07284e-13
5.49826e-12
1.4809e-06
0.000242568
-1.38309e-20
-3.92695e-40
5.12563e-19
8.16114e-16
6.4664e-14
5.44561e-13
1.25901e-12
1.3198e-12
3.65319e-12
3.26778e-11
2.11799e-11
1.20886e-11
2.98353e-12
5.88653e-13
-2.9497e-12
-3.08921e-12
-8.04648e-13
-9.07338e-14
-1.16292e-21
2.66961e-15
1.07291e-13
2.69045e-13
4.22087e-13
-8.77498e-21
3.86808e-24
5.80441e-19
1.16632e-16
1.0487e-14
8.83612e-14
2.01928e-13
2.24592e-13
4.91554e-13
2.19089e-12
3.09216e-12
4.21627e-12
3.99887e-12
8.69774e-13
-1.21664e-12
-1.48022e-12
-7.75971e-13
-1.53359e-13
1.13808e-13
2.33475e-13
2.32847e-13
2.48042e-13
2.97083e-13
-6.46406e-21
0
2.25139e-19
1.41669e-17
1.31803e-15
1.1123e-14
2.78223e-14
3.8866e-14
6.9015e-14
1.7914e-13
6.09294e-13
1.12581e-12
1.44129e-12
4.43667e-13
-2.16489e-13
-4.04356e-13
-2.17512e-13
5.91239e-15
2.25868e-13
7.9341e-13
1.96365e-12
4.08257e-12
8.937e-12
-4.92371e-21
-2.11235e-21
6.03527e-20
1.49357e-18
1.29968e-16
1.08577e-15
3.18332e-15
7.26582e-15
1.95547e-14
5.84608e-14
1.55894e-13
2.08781e-13
1.8757e-13
7.62147e-14
2.45423e-14
-4.17563e-14
-3.23888e-14
-3.44112e-15
1.30879e-14
2.84132e-13
1.81658e-12
5.484e-12
1.47493e-11
-3.41773e-21
-3.55796e-21
9.76491e-21
1.33778e-19
9.50291e-18
8.35736e-17
3.4786e-16
1.55975e-15
5.34803e-15
1.2531e-14
2.12186e-14
2.23638e-14
1.57582e-14
1.08405e-14
9.14708e-15
5.31536e-15
2.0446e-15
2.00276e-15
2.36849e-15
3.94841e-14
4.34297e-13
2.81364e-12
1.49418e-11
-2.03387e-21
-2.45992e-21
3.20571e-22
1.04661e-20
4.81969e-19
5.14834e-18
4.54388e-17
3.45157e-16
1.38131e-15
2.99511e-15
3.84561e-15
3.64986e-15
2.5856e-15
1.08292e-15
2.49958e-16
3.79865e-17
1.36088e-17
4.03151e-17
6.95232e-16
1.50542e-14
1.91333e-13
1.30124e-12
6.94754e-12
-1.00826e-21
-1.2501e-21
-5.32798e-22
5.56488e-22
1.67262e-20
3.00563e-19
6.7037e-18
6.45694e-17
2.83288e-16
6.33411e-16
8.07339e-16
7.6888e-16
5.42543e-16
2.32613e-16
5.34363e-17
7.20291e-18
2.64718e-18
8.67031e-18
1.76337e-16
5.06867e-15
8.66451e-14
6.48523e-13
2.9638e-12
-4.05278e-22
-5.01523e-22
-5.5364e-22
-4.58374e-24
2.89219e-22
2.22315e-20
8.24431e-19
9.11462e-18
4.42295e-17
1.07104e-16
1.45028e-16
1.42604e-16
1.02579e-16
4.41219e-17
9.61413e-18
1.11493e-18
4.13303e-19
1.86049e-18
4.18333e-17
1.59215e-15
3.68713e-14
3.37641e-13
1.49978e-12
-1.27701e-22
-1.50662e-22
-2.63022e-22
-6.57347e-23
1.31279e-24
1.52141e-21
6.92232e-20
9.66414e-19
5.24504e-18
1.37378e-17
1.99384e-17
2.02134e-17
1.5564e-17
7.21697e-18
1.62531e-18
1.68685e-19
6.11448e-20
3.75261e-19
1.01673e-17
4.97673e-16
1.44516e-14
1.57072e-13
7.95221e-13
-3.02589e-23
-3.10121e-23
-6.99876e-23
-2.45648e-23
0
5.0007e-23
3.90793e-21
7.74366e-20
4.63522e-19
1.28517e-18
1.96192e-18
2.04293e-18
1.67458e-18
8.44335e-19
2.06774e-19
2.3822e-20
9.76484e-21
7.81015e-20
2.55729e-18
1.60503e-16
5.83884e-15
7.13735e-14
3.79767e-13
-5.1444e-24
-3.81308e-24
-9.22745e-24
-3.22512e-24
-6.19398e-25
3.35733e-25
1.66972e-22
4.55419e-21
2.89885e-20
8.29097e-20
1.31169e-19
1.40419e-19
1.21528e-19
6.62416e-20
1.77426e-20
2.5667e-21
1.42714e-21
1.64371e-20
6.41661e-19
4.78135e-17
2.22715e-15
3.27557e-14
1.8469e-13
-6.00675e-25
-2.35234e-25
-5.94087e-25
-2.0244e-25
-4.02058e-26
8.89236e-27
5.46183e-24
1.71444e-22
1.15945e-21
3.44433e-21
5.68205e-21
6.30649e-21
5.66135e-21
3.25521e-21
9.35307e-22
1.97236e-22
1.66981e-22
3.48326e-21
1.61847e-19
1.37409e-17
7.82391e-16
1.32115e-14
7.96017e-14
-4.5892e-26
0
2.9637e-35
3.8592e-32
1.20735e-30
3.43397e-29
4.6532e-26
2.77817e-24
2.34132e-23
7.75732e-23
1.38928e-22
1.62679e-22
1.47081e-22
8.41873e-23
2.47579e-23
7.67309e-24
2.32256e-23
7.45585e-22
3.90889e-20
3.60425e-18
2.50397e-16
4.99051e-15
3.27455e-14
-2.56583e-27
0
8.00131e-43
4.19368e-39
5.75264e-36
3.34711e-32
8.60203e-29
8.88607e-27
1.0163e-25
3.94324e-25
7.33672e-25
8.23886e-25
7.44127e-25
4.8289e-25
2.82445e-25
2.66024e-25
3.6288e-24
1.58143e-22
8.91896e-21
8.66933e-19
7.31735e-17
1.73518e-15
1.2564e-14
-1.14378e-28
-1.06224e-42
-2.10875e-58
1.0684e-41
1.3059e-38
4.41694e-35
1.8354e-31
3.25058e-29
5.40007e-28
2.82225e-27
7.73669e-27
1.2665e-26
1.39234e-26
1.275e-26
1.028e-26
2.03333e-26
6.41979e-25
3.20474e-23
1.90465e-21
1.9324e-19
1.97626e-17
5.54711e-16
4.33221e-15
-4.29439e-30
-1.58611e-42
-7.72226e-42
8.93026e-46
2.10851e-42
1.71294e-39
1.64106e-36
2.87606e-33
5.37316e-31
1.01524e-29
5.5648e-29
1.35991e-28
1.74171e-28
1.68585e-28
1.5412e-28
2.07617e-27
1.10326e-25
5.88747e-24
3.68088e-22
3.88167e-20
4.79422e-18
1.61484e-16
1.37881e-15
-1.40565e-31
-2.74359e-41
-9.79009e-43
-2.66551e-43
1.68308e-45
1.83301e-42
8.87789e-40
1.16897e-36
6.42621e-34
2.61513e-32
1.89934e-31
5.41919e-31
7.46914e-31
7.49639e-31
5.39294e-30
3.04719e-28
1.66088e-26
9.32282e-25
6.17182e-23
6.75413e-21
1.01157e-18
4.17804e-17
3.94602e-16
-4.0941e-33
-5.4902e-40
-2.54826e-47
-5.4761e-46
2.38002e-47
3.21953e-45
1.22258e-42
4.1334e-40
9.21241e-38
8.97701e-36
1.60146e-34
6.55697e-34
1.18826e-33
9.95496e-33
6.44259e-31
3.78218e-29
2.09086e-27
1.23194e-25
8.55963e-24
9.56822e-22
1.75349e-19
9.26748e-18
9.77898e-17
-1.07328e-34
-2.56154e-38
-1.1786e-50
-1.11806e-48
3.98602e-50
9.77264e-48
2.59505e-45
6.84553e-43
9.91827e-41
3.60234e-39
3.34495e-38
2.82492e-37
1.21305e-35
9.83717e-34
6.63243e-32
3.90402e-30
2.24107e-28
1.35028e-26
9.50018e-25
1.05007e-22
2.34845e-20
1.69381e-18
2.03987e-17
-2.54382e-36
-1.22763e-39
-2.08341e-53
-2.4763e-51
1.22633e-52
3.19967e-50
7.24921e-48
1.57137e-45
2.00882e-43
6.53592e-42
1.70934e-40
1.21189e-38
1.12319e-36
8.02045e-35
5.48044e-33
3.49531e-31
2.09755e-29
1.26101e-27
8.65385e-26
9.0458e-24
2.37421e-21
2.5001e-19
3.54137e-18
-5.45023e-38
-3.82756e-41
-2.26601e-54
-6.37938e-54
1.16657e-54
2.73231e-52
4.54751e-50
7.68463e-48
8.80585e-46
8.09977e-44
8.1278e-42
7.22686e-40
6.6094e-38
5.16855e-36
3.95917e-34
2.72174e-32
1.72582e-30
1.05595e-28
7.06379e-27
6.70791e-25
1.89637e-22
3.01506e-20
5.15944e-19
-1.05126e-39
-9.33592e-43
-2.91266e-55
-7.22171e-56
1.26317e-56
3.94926e-54
7.48917e-52
1.33034e-49
1.98579e-47
2.50134e-45
3.04217e-43
3.16678e-41
3.26248e-39
2.81432e-37
2.36872e-35
1.80887e-33
1.24272e-31
8.13316e-30
5.53905e-28
4.84884e-26
1.3654e-23
3.1377e-21
6.39367e-20
-1.8124e-41
-1.84301e-44
-2.88391e-57
-8.29405e-58
1.64619e-58
5.43467e-56
1.34538e-53
2.61375e-51
4.56049e-49
6.54276e-47
9.07104e-45
1.06644e-42
1.2435e-40
1.20336e-38
1.11182e-36
9.88881e-35
7.56041e-33
5.4731e-31
4.05807e-29
3.57238e-27
9.92624e-25
2.94724e-22
6.73962e-21
-2.76875e-43
-3.1485e-46
-2.02658e-59
-7.16823e-60
1.40264e-60
5.00851e-58
1.50829e-55
3.42744e-53
6.66991e-51
1.1861e-48
1.79257e-46
2.54105e-44
3.34482e-42
3.68891e-40
3.95788e-38
4.11806e-36
3.70028e-34
3.02005e-32
2.60303e-30
2.51438e-28
7.39593e-26
2.49684e-23
5.88024e-22
-3.71429e-45
-4.68933e-48
-1.26335e-61
-5.21689e-62
4.09313e-63
2.33205e-60
7.11697e-58
2.14163e-55
5.06882e-53
1.12841e-50
2.01562e-48
3.80017e-46
5.59048e-44
7.51656e-42
1.00099e-39
1.20446e-37
1.27488e-35
1.27011e-33
1.35913e-31
1.48286e-29
5.18225e-27
1.79858e-24
4.01303e-23
-4.33745e-47
-5.80248e-50
-7.51122e-64
-3.43777e-64
3.05961e-66
2.40226e-63
1.12344e-60
3.87219e-58
1.42072e-55
3.81126e-53
1.11976e-50
2.34835e-48
4.59277e-46
9.29194e-44
1.45744e-41
2.03804e-39
2.6611e-37
3.53281e-35
5.0389e-33
6.25097e-31
2.97217e-28
1.01373e-25
1.97198e-24
-4.39879e-49
-6.02587e-52
-4.36558e-66
-2.12616e-66
1.63861e-69
2.86034e-66
1.37995e-63
5.23762e-61
1.9236e-58
6.2098e-56
1.95853e-53
5.35825e-51
1.35761e-48
3.37534e-46
7.76865e-44
1.51711e-41
2.82556e-39
5.33387e-37
1.00031e-34
1.66645e-32
1.05044e-29
3.56743e-27
5.97001e-26
-3.89705e-51
-5.35228e-54
-6.22821e-67
-1.25695e-68
2.61221e-72
6.27186e-69
3.64667e-66
1.51547e-63
5.47762e-61
1.82757e-58
5.42033e-56
1.47063e-53
3.69882e-51
8.6715e-49
1.93896e-46
4.27445e-44
1.05316e-41
3.16404e-39
9.30135e-37
2.60005e-34
1.81847e-31
6.30177e-29
8.76953e-28
-3.05804e-53
-3.94381e-56
-3.74121e-61
-7.15669e-71
8.19986e-93
7.84939e-72
4.59629e-69
1.97665e-66
9.32018e-64
4.25405e-61
1.55076e-58
4.75747e-56
1.25028e-53
2.95131e-51
6.62289e-49
1.6511e-46
5.02937e-44
1.70969e-41
6.74214e-39
2.54272e-36
1.34465e-33
3.75085e-31
4.62541e-30
-2.18616e-55
-2.44865e-58
-8.13461e-63
-3.9179e-73
8.19986e-93
1.24797e-74
6.21245e-72
2.55977e-69
9.27566e-67
3.08658e-64
9.55301e-62
2.70879e-59
7.10661e-57
1.73128e-54
4.0125e-52
8.91689e-50
5.00581e-47
5.4232e-44
2.2501e-41
1.01983e-38
4.05599e-36
7.40254e-34
1.18437e-32
1
1
1
1
1
1
1
1
1
1
1
1
0.999999
0.999999
0.999999
0.999999
0.930059
0.958331
0.973677
0.987895
0.0559624
0.0952805
0.166727
0.332767
8.38298e-05
8.3804e-05
8.38353e-05
9.75832e-05
8.38018e-05
8.3786e-05
8.37824e-05
8.42259e-05
8.37604e-05
8.37727e-05
8.37426e-05
8.37163e-05
8.38881e-05
8.37375e-05
8.37162e-05
8.36998e-05
0.000270749
0.000177476
0.000125232
9.70069e-05
0.000485783
0.000492638
0.00049457
0.000495674
9.19071e-13
1.46022e-06
4.88152e-05
9.25973e-05
4.22083e-13
9.19121e-13
2.60027e-12
5.98313e-12
3.06377e-11
1.50996e-10
3.68482e-10
5.13191e-10
3.68097e-11
6.36635e-11
7.87431e-11
7.98412e-11
5.50372e-11
1.76843e-10
3.7701e-10
5.70792e-10
2.7953e-11
1.30437e-10
3.91157e-10
7.52774e-10
9.62333e-12
5.07023e-11
1.97261e-10
4.46963e-10
3.68857e-12
1.38608e-11
6.72953e-11
2.00929e-10
2.05196e-12
7.69159e-12
4.86915e-11
1.98865e-10
1.01932e-12
4.56432e-12
3.66987e-11
1.83579e-10
4.67376e-13
1.26333e-12
7.75678e-12
6.13577e-11
2.12739e-13
8.13874e-13
6.04009e-12
3.41037e-11
8.95729e-14
2.8093e-13
1.59883e-12
1.05752e-11
3.60028e-14
8.89754e-14
2.65676e-13
2.02334e-12
1.28537e-14
3.48169e-14
1.04554e-13
1.01828e-12
4.31694e-15
1.373e-14
3.67882e-14
1.13895e-13
1.29376e-15
4.53587e-15
1.13669e-14
9.38548e-15
3.27808e-16
1.26565e-15
3.25731e-15
2.48775e-15
6.73473e-17
2.89646e-16
8.15091e-16
5.76017e-16
1.10914e-17
5.26455e-17
1.64811e-16
9.6726e-17
1.49872e-18
7.40953e-18
2.66283e-17
8.55456e-18
1.7191e-19
8.56019e-19
3.9305e-18
7.2736e-19
1.71119e-20
9.08052e-20
5.32384e-19
7.27967e-20
1.41905e-21
8.73279e-21
5.93835e-20
7.87129e-21
8.9296e-23
6.10481e-22
4.48983e-21
6.92505e-22
3.72487e-24
2.28645e-23
1.85041e-22
4.07857e-23
8.89729e-26
4.52067e-25
4.94077e-24
1.46202e-24
8.84148e-28
7.65055e-27
1.44238e-25
2.37637e-26
3.7246e-30
3.78616e-29
9.58408e-28
2.69794e-28
1.59448e-31
3.28554e-31
2.16969e-30
2.60857e-29
1
1
0.590693
0.00467914
7.23108e-06
1.52806e-07
2.11152e-07
1.43083e-06
2.21665e-06
1.26028e-05
9.29734e-05
5.63623e-05
6.10011e-05
1.68796e-05
7.18582e-06
5.57603e-06
5.17971e-06
5.57603e-06
0.802709
1
1
0.965308
0.118378
1.53016e-07
1.53016e-07
1.52902e-07
2.71288e-07
3.43857e-07
2.22032e-06
8.17202e-06
8.15094e-06
3.38156e-06
5.32453e-06
8.1835e-06
7.28628e-06
5.68407e-06
7.46794e-06
0.808038
1
1
1
0.229518
2.00305e-05
1.06686e-07
2.71522e-07
1.29851e-07
9.12068e-08
3.43857e-07
3.11553e-06
2.22069e-06
1.78789e-06
2.11352e-06
1.44157e-05
0.000356597
6.51968e-05
2.75937e-05
0.868881
1
1
1
0.412849
8.30541e-05
8.6304e-07
1.29851e-07
9.12068e-08
7.2159e-08
1.85465e-06
8.45699e-06
2.52825e-06
1.65477e-06
1.76937e-06
0.00340663
0.00228106
7.38684e-05
0.0112237
0.93917
0.999957
0.999997
0.999999
0.76601
6.477e-05
2.07606e-06
1.81332e-07
7.19827e-08
7.24986e-08
5.90999e-06
8.45699e-06
3.61475e-06
1.5494e-06
0.00921287
0.0072277
0.000983926
0.000110996
0.401852
0.987697
0.783547
0.991787
0.999994
0.999976
0.300915
6.477e-05
2.07606e-06
0.000436038
1.16568e-05
1.51122e-06
3.48396e-06
1.54458e-06
1.53181e-06
0.12088
0.00247634
0.000274977
0.000143163
0.784369
1
0.0179047
0.31502
0.910089
0.999964
0.96993
0.678324
0.239441
3.15006e-06
9.74878e-07
1.63209e-06
1.54458e-06
1.53181e-06
1.53181e-06
0.121846
0.263345
0.252871
0.492378
0.955511
0.975473
8.37262e-05
8.41004e-05
0.0688221
0.478405
0.954496
0.948856
0.935765
0.740246
0.39384
0.145765
0.143666
0.234825
0.293706
0.576525
0.856581
0.907209
0.959349
0.97296
0.899488
8.36998e-05
8.36993e-05
8.41017e-05
0.00559669
0.160278
0.488503
0.862623
0.856005
0.848598
0.836203
0.854608
0.895446
0.920797
0.949958
0.963534
0.972852
0.97296
0.972934
0.898679
8.36989e-05
8.36993e-05
8.36993e-05
8.46547e-05
8.9538e-05
0.0100381
0.112365
0.318518
0.493155
0.615001
0.706398
0.728823
0.722889
0.68167
0.494773
0.440417
0.652293
0.924039
0.900844
8.36992e-05
8.39116e-05
0.000445362
0.000438844
0.000153556
2.2255e-08
3.57268e-07
1.5923e-05
0.0109661
0.0418429
0.0840506
0.0963234
0.0892395
0.0556279
0.0520815
0.0520815
0.142636
0.785471
0.94232
0.000496745
0.000497166
0.000497166
0.000466613
0.000135414
2.74383e-09
2.2255e-08
5.90062e-07
7.88655e-06
5.34212e-05
0.000249238
0.00126671
0.00337645
0.00848457
0.0597209
0.120817
0.363032
0.845487
0.990018
0.000123628
0.000130365
3.31886e-05
5.18616e-10
5.2604e-10
6.6763e-10
2.74383e-09
3.79416e-08
6.05301e-07
9.41434e-06
6.37505e-05
0.000249281
0.00126668
0.110543
0.585571
0.77964
0.816949
0.887388
1
1.00096e-11
1.29644e-11
1.45374e-11
5.13887e-10
5.91866e-10
1.37009e-09
1.73662e-09
6.2258e-09
7.85194e-08
1.10308e-06
1.26436e-05
0.000122814
0.00110059
0.150265
0.632693
0.936064
0.93714
0.938818
1
5.49912e-10
4.70863e-10
2.27398e-10
4.27175e-10
1.08388e-09
1.53502e-09
1.57974e-09
2.41358e-09
1.74805e-08
2.7086e-07
4.08965e-06
0.00161205
0.00348339
0.000453299
0.000873404
0.498026
0.936335
0.936553
0.524168
7.81753e-11
7.81753e-11
1.71895e-10
6.04223e-10
3.0249e-09
9.77876e-09
1.06862e-08
8.22269e-09
1.13197e-08
5.40543e-08
2.76439e-05
0.000685285
0.000643271
0.000297237
0.000453299
0.241296
0.867423
0.938165
0.522068
7.4238e-10
8.39982e-10
8.52938e-10
8.36452e-10
8.42228e-10
3.08171e-09
1.03847e-07
1.69434e-07
7.86215e-08
1.26234e-07
7.01114e-06
5.20498e-06
1.74804e-05
2.93843e-05
0.0353455
0.360387
0.666076
0.937679
0.935915
1.21827e-09
1.55261e-09
1.55906e-09
1.51658e-09
1.24684e-09
1.29861e-09
6.28803e-08
2.29889e-07
2.29913e-07
2.32296e-07
1.99983e-06
2.67093e-06
7.85375e-06
1.66049e-05
0.0713286
0.343386
0.31207
0.5342
1
7.92453e-10
1.03859e-09
1.00801e-09
9.52065e-10
1.87403e-08
8.27853e-08
1.03484e-07
1.04061e-07
1.06559e-07
2.91697e-07
9.39055e-07
1.04259e-06
2.00274e-06
3.14753e-05
0.0328512
0.151216
0.124285
0.123767
0.628329
4.46988e-10
6.65807e-10
6.80974e-10
6.94476e-10
2.17536e-08
1.91466e-07
2.19918e-07
1.41932e-07
1.0775e-07
1.36654e-07
1.44494e-07
2.05758e-07
7.30249e-07
1.20926e-05
0.00237614
0.144244
0.236247
0.0127092
0.00934401
5.45935e-10
8.82443e-10
9.56e-10
9.4294e-10
9.72462e-10
6.05054e-08
2.19627e-07
2.56895e-07
1.40463e-07
2.77248e-07
2.0048e-07
2.63561e-07
1.24204e-06
2.19214e-05
0.000595718
0.136846
0.313735
0.311809
0.0759307
5.85221e-10
9.98209e-10
1.06411e-09
1.03949e-09
1.03814e-09
1.04577e-09
1.17349e-09
2.46563e-07
9.07688e-07
1.58828e-06
1.21097e-06
1.26569e-06
9.60995e-06
9.05195e-06
5.25254e-05
0.000303091
0.154259
0.553837
0.643052
3.43516e-10
7.48198e-10
9.23387e-10
9.79852e-10
1.10613e-09
1.08918e-09
1.16395e-09
2.5594e-07
1.216e-06
1.58956e-06
1.58956e-06
1.02926e-06
2.05449e-06
2.40398e-06
6.94291e-05
7.92429e-05
0.000323169
0.126561
0.701373
1.42362e-10
3.04414e-10
4.65136e-10
1.41358e-09
5.94543e-09
8.97982e-09
9.77612e-09
1.88648e-07
4.44239e-07
6.08312e-07
5.37182e-07
1.84846e-07
6.44782e-06
0.000176392
0.00018732
5.64406e-05
8.63909e-05
0.00889303
0.105895
7.48591e-11
2.08461e-10
4.04224e-10
7.74635e-10
3.23171e-09
1.24409e-08
1.92952e-08
2.28078e-08
1.67825e-08
1.63393e-08
1.60694e-08
2.12382e-08
2.19338e-05
0.000291757
0.000165133
3.27392e-05
0.00100572
0.0144236
0.117548
4.02532e-11
1.34241e-10
2.59684e-10
4.10579e-10
6.3726e-09
2.41372e-08
2.67477e-08
1.93765e-08
1.63566e-08
1.51601e-08
1.37326e-08
1.34975e-08
2.14518e-05
0.000291757
4.53452e-05
3.27392e-05
3.27392e-05
0.0103376
0.682764
3.1075e-11
1.01839e-10
1.51587e-10
1.81496e-10
6.73481e-09
2.49448e-08
2.6747e-08
2.6747e-08
1.71482e-08
1.55823e-08
1.35545e-08
1.26845e-08
2.1966e-05
0.000291757
0.000110368
2.83998e-05
3.79778e-05
0.00360477
0.724638
1.66465e-11
6.75704e-11
1.1429e-10
2.28092e-10
3.41134e-09
1.05258e-08
1.58966e-08
1.97341e-08
1.63103e-08
1.29446e-08
1.2459e-08
1.26209e-08
4.42484e-05
0.000176802
1.9597e-05
2.16354e-05
0.000844076
0.00146252
0.254893
4.55603e-12
2.52243e-11
8.97898e-11
5.67092e-10
1.80978e-09
1.85732e-09
1.23658e-09
5.84943e-09
8.73615e-09
8.44324e-09
8.77181e-09
2.64101e-06
4.65339e-05
5.22573e-06
3.13591e-06
0.00119469
0.014367
0.00470658
0.104135
1.19492e-12
7.53104e-12
7.88744e-11
6.06882e-10
1.24815e-09
7.49992e-10
4.59064e-10
6.84443e-10
7.31702e-10
9.33531e-10
5.38721e-07
4.3572e-06
6.07389e-06
2.74234e-06
2.74234e-06
0.0145242
0.0181625
0.00469116
0.17959
3.3803e-13
2.56557e-12
4.01184e-11
3.42688e-10
6.65486e-10
3.92239e-10
1.85806e-10
1.6733e-10
1.78657e-10
2.57774e-08
3.89116e-07
7.59345e-07
3.4717e-09
2.18402e-05
2.10701e-05
0.0180622
0.0183395
0.0027705
0.266304
7.52523e-14
7.96127e-13
1.05018e-11
7.4476e-11
1.91541e-10
2.10811e-10
1.54319e-10
1.54298e-10
7.42423e-10
9.12688e-09
1.243e-08
1.13556e-09
5.86479e-10
7.61526e-05
0.000777997
0.0177464
0.00555713
0.00271269
0.206661
1.1955e-14
1.60778e-13
2.70478e-12
1.53138e-11
4.30513e-12
1.06116e-11
1.54693e-07
3.52602e-07
3.25077e-10
3.18126e-10
4.74795e-10
5.91382e-10
5.91382e-10
5.91382e-10
0.0141447
0.00650888
0.00271199
0.00273041
0.205163
1.52084e-15
2.37913e-14
3.51749e-13
3.92147e-12
3.92933e-12
8.51992e-11
3.58943e-08
1.84771e-06
1.87067e-06
8.88509e-07
6.40444e-10
6.17946e-10
5.86597e-10
6.21416e-10
0.017879
0.0180485
0.00611663
0.00271202
0.291056
1.83028e-16
3.76372e-15
4.61159e-14
5.27083e-13
9.35516e-13
5.01096e-13
1.33349e-12
1.06451e-06
2.16796e-06
2.16931e-06
1.77147e-06
1.21151e-07
3.53133e-10
0.00163303
0.0180485
0.0180485
0.00751928
0.00274965
0.480715
2.36039e-17
5.7872e-16
1.00345e-14
4.19579e-14
6.58786e-14
1.40294e-15
2.19531e-14
4.56127e-12
7.96058e-07
1.87464e-06
1.16348e-06
2.96736e-08
2.52219e-11
0.00604946
0.0179903
0.0180039
0.00751013
0.01298
0.371316
2.93505e-18
7.30308e-17
1.98603e-15
2.75704e-15
2.4833e-15
1.12993e-15
5.09243e-16
5.64095e-14
1.4868e-11
5.95421e-08
2.417e-08
1.16412e-09
2.78397e-13
8.55097e-15
0.0147503
0.0179623
0.00759237
0.0099122
0.0435645
2.79394e-19
6.67033e-18
1.71621e-16
1.41113e-16
7.46127e-17
3.11156e-17
-4.29628e-23
5.16262e-16
5.98446e-31
5.62093e-13
8.90377e-13
5.29662e-12
2.23216e-13
1.92943e-16
0.00150959
0.0178623
0.00802796
0.00267667
-8.53204e-22
1.7164e-20
3.86714e-19
6.44702e-18
5.44146e-18
2.26673e-18
-2.48424e-17
-7.72673e-17
0
-5.51109e-16
-6.89345e-29
-1.77327e-30
1.08029e-13
8.64444e-15
-8.85665e-44
-2.04272e-33
0.0136495
0.00856781
0.000264935
0
6.31278e-22
1.11052e-20
1.06638e-19
2.22518e-19
9.75127e-20
-1.64128e-17
-4.90144e-17
-1.10206e-16
-4.66741e-16
-6.45303e-16
-5.67624e-16
-3.704e-16
-1.63689e-16
-4.97204e-17
-1.13114e-17
0.00121459
0.00570766
3.3478e-05
0.0768447
4.3453e-24
6.63083e-23
6.25623e-22
1.09493e-20
3.41289e-21
-5.40457e-18
-1.02099e-17
-3.60852e-17
-2.22342e-16
-2.25933e-16
-1.47964e-16
-7.74711e-17
-2.8844e-17
-7.8787e-18
-2.10324e-18
-2.44071e-19
0.000861075
1.15411e-06
0.406281
7.37917e-27
1.36344e-25
1.7402e-24
5.12001e-23
7.83384e-24
-8.2515e-19
-1.96465e-19
-7.07059e-18
-5.89723e-17
-3.74153e-17
-1.31698e-17
-3.57823e-18
-7.10202e-19
-1.14139e-19
-2.61541e-20
-1.30974e-20
-2.21316e-21
0
0.15218
)
;

boundaryField
{
    leftWall
    {
        type            zeroGradient;
    }
    rightWall
    {
        type            zeroGradient;
    }
    lowerWall
    {
        type            zeroGradient;
    }
    atmosphere
    {
        type            inletOutlet;
        inletValue      uniform 0;
        value           nonuniform List<scalar> 
46
(
-2.18616e-55
-2.44865e-58
-8.13461e-63
-3.9179e-73
8.19986e-93
1.24797e-74
6.21245e-72
2.55977e-69
9.27566e-67
3.08658e-64
9.55301e-62
2.70879e-59
7.10661e-57
1.73128e-54
4.0125e-52
8.91689e-50
5.00581e-47
5.4232e-44
2.2501e-41
1.01983e-38
4.05599e-36
7.40254e-34
1.18437e-32
1.59448e-31
3.28554e-31
2.16969e-30
2.60857e-29
7.37917e-27
1.36344e-25
1.7402e-24
5.12001e-23
7.83384e-24
-8.2515e-19
-1.96465e-19
0
0
0
0
0
0
0
0
0
0
0
0.15218
)
;
    }
    defaultFaces
    {
        type            empty;
    }
}


// ************************************************************************* //
