/*--------------------------------*- C++ -*----------------------------------*\
| =========                 |                                                 |
| \\      /  F ield         | OpenFOAM: The Open Source CFD Toolbox           |
|  \\    /   O peration     | Version:  5.x                                   |
|   \\  /    A nd           | Web:      www.OpenFOAM.org                      |
|    \\/     M anipulation  |                                                 |
\*---------------------------------------------------------------------------*/
FoamFile
{
    version     2.0;
    format      ascii;
    class       volScalarField;
    location    "0.5";
    object      p;
}
// * * * * * * * * * * * * * * * * * * * * * * * * * * * * * * * * * * * * * //

dimensions      [1 -1 -2 0 0 0 0];

internalField   nonuniform List<scalar> 
2268
(
644.477
641.065
643.906
650.99
661.391
669.91
675.896
680.72
686.743
695.363
706.893
721.197
737.98
756.904
777.719
799.948
822.424
843.223
857.391
868.763
851.669
845.888
884.905
585.272
581.113
583.684
590.577
600.97
609.722
615.893
620.842
627
635.754
647.366
661.581
678.198
696.935
717.486
739.464
762.03
783.747
800.268
814.743
800.918
775.601
819.982
525.408
520.453
522.334
528.675
539.065
548.261
554.792
559.983
566.406
575.428
587.254
601.684
618.416
637.187
657.611
679.131
700.848
721.767
739.048
752.975
745.232
710.101
759.14
465.473
459.366
459.969
465.422
475.777
485.645
492.712
498.257
505.063
514.465
526.587
541.22
558.114
576.948
597.374
618.788
640.181
660.379
677.084
689.362
685.99
666.122
708.029
406.132
398.316
396.882
400.893
411.157
422.003
429.791
435.771
443.068
452.954
465.43
480.306
497.409
516.368
536.926
558.442
579.912
599.967
616.507
628.492
630.997
624.898
662.515
348.107
338.069
333.524
335.399
345.616
357.676
366.26
372.642
380.458
390.904
403.796
418.983
436.357
455.465
476.275
498.082
519.894
540.227
557.189
569.861
577.134
580.319
615.47
292.12
279
270.711
270.06
280.163
293.116
302.251
309.03
317.392
328.358
341.596
357.099
375.022
394.265
415.435
437.695
460.076
480.955
498.591
511.983
521.036
527.092
550.225
238.35
223.401
210.142
205
214.426
227.703
236.971
244.525
254.005
265.733
279.218
294.625
311.588
332.471
354.307
377.408
400.744
422.379
440.702
454.629
463.16
467.867
469.509
284.425
278.49
271.56
268.977
269.18
269.417
269.993
270.173
269.754
267.148
265.064
265.8
266.076
267.709
274.869
289.368
519.289
1338.94
2306.77
284.129
276.618
269.29
267.444
266.54
267.367
269.305
270.253
269.976
266.827
264.162
263.923
260.98
258.191
255.836
262.327
320.826
753.305
1953.74
273.496
266.654
266.144
265.971
265.6
265.52
267.07
270.282
270.761
266.933
262.664
257.471
251.128
251.979
254.303
257.324
275.808
435.262
1362.48
271.165
265.251
265.738
265.782
265.415
265.033
265.685
270.053
271.638
268.375
259.458
246.336
245.829
249.757
253.646
256.585
263.439
307.023
737.382
248.316
264.983
265.646
265.566
265.183
264.649
265.081
269.318
271.683
269.964
253.885
235.662
241.702
248.266
252.946
256.211
260.049
279.506
473.118
194.042
263.51
265.382
265.366
264.924
264.4
264.712
267.998
270.322
267.897
248.093
230.111
238.647
246.992
252.287
255.516
257.95
269.441
412.863
106.751
249.685
264.944
265.284
264.746
264.29
264.488
266.683
268.161
264.657
245.298
229.39
237.253
246.267
251.905
254.74
256.617
257.296
356.967
11.5497
189.642
264.417
265.275
264.665
264.292
264.419
265.763
266.236
262.821
246.968
232.587
237.95
246.509
251.772
254.264
255.895
255.037
269.761
156.997
140.25
118.537
105.167
112.338
124.612
132.633
141.067
152.974
167.083
182.054
198.747
217.105
236.359
258.267
282.265
307.46
330.924
350.832
366.058
371.751
360.287
284.22
64.3848
40.762
22.7739
14.7136
18.2789
24.3921
27.8937
31.0086
36.0352
44.562
53.4176
64.9288
80.012
100.477
125.145
154.118
184.539
210.809
233.157
251.736
262.379
262.285
255.833
5.14518
0.0483603
-0.246473
-0.0815363
-0.0750201
-0.0483826
-0.017664
-0.00418772
0.0883173
0.663898
2.592
5.48874
9.54224
15.754
25.7842
42.8288
65.7203
92.3678
121.302
146.547
162.013
173.203
184.397
-0.321849
-0.353763
-0.355665
-0.284923
-0.254319
-0.226196
-0.227883
-0.211953
-0.191884
-0.231238
-0.304684
-0.351848
-0.376101
-0.3514
-0.124486
0.778232
4.89721
16.2347
35.4659
59.8129
71.1129
81.946
94.4276
-0.410844
-0.383512
-0.390496
-0.403244
-0.401211
-0.392818
-0.397779
-0.411201
-0.443159
-0.494625
-0.510965
-0.529447
-0.552802
-0.515575
-0.39354
-0.341421
-0.369932
-0.192286
1.25738
4.45393
11.9084
27.5464
48.0806
-0.541845
-0.541946
-0.544421
-0.543905
-0.53806
-0.530625
-0.525966
-0.532543
-0.549062
-0.577303
-0.604944
-0.630689
-0.668827
-0.672937
-0.624176
-0.595795
-0.58738
-0.566125
-0.551031
-0.535166
-0.490729
-0.134225
1.08806
-0.686701
-0.685169
-0.681792
-0.6856
-0.686075
-0.685196
-0.688693
-0.697914
-0.711727
-0.727866
-0.742355
-0.754277
-0.765506
-0.773052
-0.752455
-0.725316
-0.725851
-0.735392
-0.734045
-0.696045
-0.665914
-0.638181
-0.532501
-0.829481
-0.828678
-0.827628
-0.829836
-0.831136
-0.832713
-0.836635
-0.844052
-0.854391
-0.865343
-0.874997
-0.882859
-0.888724
-0.893271
-0.886717
-0.871662
-0.864509
-0.861708
-0.85001
-0.837827
-0.827255
-0.85985
-0.88861
-0.974184
-0.973494
-0.972987
-0.974574
-0.976202
-0.978509
-0.98229
-0.988047
-0.99562
-1.00338
-1.00986
-1.01433
-1.01598
-1.0177
-1.01548
-1.00964
-1.00604
-1.00632
-1.00543
-1.01047
-1.02746
-1.07773
-1.13146
-1.11874
-1.11794
-1.11779
-1.11908
-1.12072
-1.12304
-1.12633
-1.13075
-1.13616
-1.14161
-1.14633
-1.14971
-1.15124
-1.1518
-1.15028
-1.14751
-1.14569
-1.14596
-1.14983
-1.1598
-1.19144
-1.24683
-1.31283
-1.2626
-1.26197
-1.26203
-1.26314
-1.26464
-1.2667
-1.26939
-1.27272
-1.27653
-1.28028
-1.28349
-1.28577
-1.28687
-1.28705
-1.28643
-1.28559
-1.28552
-1.28728
-1.29341
-1.30711
-1.33983
-1.39012
-1.43778
-1.40598
-1.40556
-1.40577
-1.40672
-1.40803
-1.40976
-1.41191
-1.4144
-1.41711
-1.41968
-1.42185
-1.42339
-1.42422
-1.42444
-1.42432
-1.42451
-1.42531
-1.4277
-1.43364
-1.4468
-1.47434
-1.51822
-1.5586
-1.54901
-1.54877
-1.54907
-1.54988
-1.55099
-1.55242
-1.55412
-1.55601
-1.55795
-1.55977
-1.56127
-1.56235
-1.563
-1.56328
-1.56351
-1.56405
-1.56522
-1.56769
-1.5727
-1.58289
-1.60245
-1.63264
-1.66571
-1.69177
-1.69168
-1.69202
-1.69271
-1.69364
-1.69481
-1.69615
-1.69759
-1.69904
-1.70036
-1.70146
-1.70228
-1.70282
-1.70316
-1.70353
-1.70417
-1.70539
-1.70767
-1.7118
-1.71923
-1.73185
-1.74971
-1.76793
-1.83434
-1.83436
-1.8347
-1.83529
-1.83607
-1.83701
-1.83808
-1.83921
-1.84032
-1.84133
-1.84219
-1.84285
-1.84335
-1.84375
-1.84421
-1.8449
-1.84609
-1.84811
-1.85149
-1.85695
-1.86506
-1.87509
-1.88412
-1.97677
-1.97685
-1.97718
-1.97768
-1.97833
-1.97911
-1.97997
-1.98087
-1.98176
-1.98257
-1.98329
-1.98388
-1.98438
-1.98485
-1.9854
-1.98617
-1.98735
-1.98916
-1.99192
-1.99598
-2.00147
-2.00769
-2.01295
-2.11909
-2.11921
-2.1195
-2.11994
-2.12048
-2.12113
-2.12185
-2.12259
-2.12333
-2.12403
-2.12467
-2.12525
-2.12578
-2.12633
-2.12698
-2.12784
-2.12904
-2.13074
-2.13312
-2.13632
-2.14032
-2.1446
-2.14815
-2.26133
-2.26146
-2.26172
-2.26209
-2.26256
-2.26311
-2.26373
-2.26437
-2.26502
-2.26566
-2.26627
-2.26687
-2.26747
-2.26812
-2.26889
-2.26987
-2.27115
-2.27284
-2.27505
-2.27783
-2.28114
-2.28467
-2.28785
-2.4035
-2.40362
-2.40385
-2.40418
-2.40459
-2.40507
-2.40561
-2.40619
-2.4068
-2.40741
-2.40804
-2.40868
-2.40936
-2.41014
-2.41105
-2.41218
-2.41359
-2.41538
-2.41761
-2.42032
-2.42347
-2.42691
-2.43031
-2.5456
-2.54571
-2.54591
-2.5462
-2.54657
-2.54701
-2.54751
-2.54805
-2.54864
-2.54926
-2.54992
-2.55063
-2.55141
-2.55231
-2.55338
-2.55467
-2.55626
-2.55822
-2.56059
-2.56343
-2.56674
-2.57046
-2.57445
-2.68764
-2.68773
-2.68791
-2.68818
-2.68852
-2.68893
-2.6894
-2.68994
-2.69053
-2.69117
-2.69187
-2.69266
-2.69355
-2.69459
-2.69581
-2.69729
-2.69908
-2.70124
-2.70385
-2.70695
-2.71059
-2.71476
-2.71952
-2.82963
-2.8297
-2.82986
-2.83011
-2.83043
-2.83083
-2.8313
-2.83183
-2.83243
-2.83311
-2.83387
-2.83474
-2.83574
-2.8369
-2.83829
-2.83994
-2.84193
-2.84432
-2.84719
-2.8506
-2.85464
-2.85937
-2.86479
-2.97156
-2.97162
-2.97176
-2.972
-2.97231
-2.97271
-2.97317
-2.97372
-2.97434
-2.97506
-2.97587
-2.97682
-2.97791
-2.9792
-2.98073
-2.98256
-2.98474
-2.98735
-2.99047
-2.99419
-2.9986
-3.00378
-3.00986
-3.11344
-3.11349
-3.11361
-3.11385
-3.11416
-3.11455
-3.11502
-3.11558
-3.11623
-3.11698
-3.11785
-3.11886
-3.12005
-3.12144
-3.1231
-3.12507
-3.12742
-3.13023
-3.13357
-3.13754
-3.14225
-3.14782
-3.15441
-3.25529
-3.25531
-3.25542
-3.25566
-3.25597
-3.25636
-3.25684
-3.25741
-3.25808
-3.25886
-3.25978
-3.26085
-3.2621
-3.26359
-3.26535
-3.26744
-3.26992
-3.27286
-3.27635
-3.28051
-3.28544
-3.29128
-3.29821
-3.39709
-3.3971
-3.3972
-3.39742
-3.39773
-3.39813
-3.39861
-3.39919
-3.39988
-3.40069
-3.40164
-3.40276
-3.40407
-3.40561
-3.40744
-3.4096
-3.41216
-3.41519
-3.41878
-3.42304
-3.42809
-3.43405
-3.44111
-3.53885
-3.53884
-3.53892
-3.53913
-3.53945
-3.53985
-3.54034
-3.54093
-3.54163
-3.54245
-3.54342
-3.54456
-3.5459
-3.54748
-3.54934
-3.55154
-3.55413
-3.55719
-3.5608
-3.56507
-3.57011
-3.57605
-3.58306
-3.68056
-3.68055
-3.68061
-3.68087
-3.68115
-3.68153
-3.68201
-3.68259
-3.68329
-3.68412
-3.6851
-3.68625
-3.6876
-3.68918
-3.69105
-3.69324
-3.69582
-3.69885
-3.70241
-3.70659
-3.71151
-3.71727
-3.72405
-3.8222
-3.8222
-3.82222
-3.82247
-3.82276
-3.82314
-3.82361
-3.82419
-3.82488
-3.82571
-3.82668
-3.82781
-3.82915
-3.83072
-3.83256
-3.83471
-3.83723
-3.84016
-3.8436
-3.84761
-3.85231
-3.85777
-3.86416
-3.96377
-3.96382
-3.96386
-3.96405
-3.96431
-3.96468
-3.96514
-3.96571
-3.96639
-3.9672
-3.96815
-3.96926
-3.97057
-3.9721
-3.97388
-3.97596
-3.97837
-3.98117
-3.98442
-3.9882
-3.99258
-3.99764
-4.0035
-4.10524
-4.10535
-4.10533
-4.10554
-4.10579
-4.10615
-4.10659
-4.10714
-4.10781
-4.10859
-4.10951
-4.11059
-4.11185
-4.11332
-4.11502
-4.11699
-4.11927
-4.1219
-4.12493
-4.12841
-4.13242
-4.13701
-4.14225
-4.24665
-4.24678
-4.24673
-4.24696
-4.24719
-4.24754
-4.24797
-4.2485
-4.24913
-4.24988
-4.25077
-4.2518
-4.25299
-4.25438
-4.25599
-4.25784
-4.25996
-4.26239
-4.26517
-4.26833
-4.27194
-4.27601
-4.28059
-4.38798
-4.38812
-4.38807
-4.38831
-4.38853
-4.38887
-4.38927
-4.38978
-4.39038
-4.39108
-4.39191
-4.39288
-4.394
-4.3953
-4.3968
-4.39851
-4.40046
-4.40267
-4.40519
-4.40802
-4.41121
-4.41476
-4.41868
-4.52926
-4.52939
-4.52936
-4.52961
-4.5298
-4.53013
-4.53051
-4.53097
-4.53153
-4.53219
-4.53296
-4.53386
-4.53489
-4.53609
-4.53745
-4.53901
-4.54078
-4.54277
-4.54501
-4.54751
-4.55028
-4.55332
-4.55663
-4.67051
-4.67067
-4.67061
-4.67085
-4.67102
-4.67132
-4.67167
-4.6721
-4.67261
-4.67321
-4.67391
-4.67472
-4.67566
-4.67674
-4.67796
-4.67936
-4.68093
-4.68269
-4.68465
-4.68681
-4.68918
-4.69175
-4.69448
-4.81169
-4.8118
-4.81178
-4.81203
-4.81217
-4.81246
-4.81277
-4.81315
-4.8136
-4.81413
-4.81475
-4.81547
-4.8163
-4.81725
-4.81833
-4.81954
-4.82091
-4.82243
-4.8241
-4.82593
-4.82792
-4.83005
-4.83225
-4.95283
-4.95291
-4.95292
-4.95317
-4.95328
-4.95354
-4.9538
-4.95413
-4.95452
-4.95497
-4.9555
-4.95612
-4.95683
-4.95764
-4.95856
-4.95959
-4.96074
-4.96201
-4.96341
-4.96492
-4.96655
-4.96826
-4.96999
-5.09395
-5.09405
-5.09406
-5.09428
-5.09437
-5.0946
-5.09482
-5.09509
-5.09541
-5.09578
-5.09622
-5.09672
-5.09731
-5.09798
-5.09873
-5.09957
-5.1005
-5.10153
-5.10266
-5.10386
-5.10514
-5.10648
-5.10781
-5.2351
-5.2352
-5.23519
-5.2354
-5.23546
-5.23565
-5.23582
-5.23603
-5.23628
-5.23658
-5.23691
-5.23731
-5.23776
-5.23828
-5.23887
-5.23952
-5.24024
-5.24104
-5.2419
-5.24283
-5.2438
-5.2448
-5.24578
-5.37626
-5.37633
-5.37631
-5.37649
-5.37651
-5.37666
-5.37678
-5.37693
-5.37711
-5.37732
-5.37757
-5.37785
-5.37817
-5.37854
-5.37895
-5.37942
-5.37994
-5.38051
-5.38112
-5.38177
-5.38246
-5.38316
-5.38384
-5.51736
-5.51741
-5.51741
-5.51751
-5.51752
-5.51761
-5.51768
-5.51777
-5.51788
-5.518
-5.51815
-5.51832
-5.51851
-5.51873
-5.51898
-5.51926
-5.51957
-5.51991
-5.52028
-5.52067
-5.52108
-5.52149
-5.52189
-5.65847
-5.65848
-5.65849
-5.65852
-5.65852
-5.65855
-5.65857
-5.65861
-5.65864
-5.65868
-5.65873
-5.65879
-5.65885
-5.65892
-5.65901
-5.6591
-5.6592
-5.65931
-5.65943
-5.65956
-5.6597
-5.65983
-5.65996
118.814
114.1
126.411
103.93
232.72
220.833
204.596
185.788
173.619
164.758
163.786
165.635
100.435
103.382
108.849
117.693
55.7413
56.7164
60.7148
69.8958
3.02094
5.32941
9.91978
20.2225
-0.392989
-0.312067
-0.247418
-0.374557
-0.882712
-0.889092
-0.976184
-1.11025
-1.15984
-1.17483
-1.19513
-1.21156
-1.34997
-1.35431
-1.33666
-1.30128
-1.45516
-1.45484
-1.44086
-1.41698
-1.56993
-1.57039
-1.5622
-1.54173
-1.68189
-1.68764
-1.68637
-1.67576
-1.7772
-1.78126
-1.78224
-1.77943
-1.8877
-1.88863
-1.88797
-1.88604
-2.015
-2.01554
-2.01535
-2.01457
-2.1496
-2.15011
-2.15026
-2.15012
-2.28958
-2.2905
-2.29131
-2.29208
-2.43264
-2.43408
-2.43559
-2.43721
-2.57756
-2.57962
-2.58181
-2.58427
-2.72337
-2.72602
-2.72892
-2.73214
-2.86939
-2.87259
-2.8761
-2.87998
-3.01511
-3.01877
-3.02278
-3.0272
-3.16014
-3.16415
-3.16854
-3.17335
-3.30426
-3.30848
-3.3131
-3.31816
-3.44729
-3.4516
-3.45631
-3.46145
-3.58919
-3.59346
-3.59811
-3.60317
-3.72996
-3.73407
-3.73854
-3.74336
-3.86969
-3.87354
-3.8777
-3.88217
-4.00855
-4.01205
-4.01582
-4.01983
-4.14672
-4.14981
-4.15312
-4.15662
-4.28445
-4.2871
-4.28992
-4.29288
-4.42194
-4.42415
-4.42647
-4.42891
-4.55931
-4.56111
-4.56297
-4.5649
-4.69664
-4.69806
-4.69952
-4.701
-4.83395
-4.83505
-4.83615
-4.83725
-4.97129
-4.97212
-4.97292
-4.97371
-5.10877
-5.10937
-5.10994
-5.11048
-5.24647
-5.24689
-5.24728
-5.24763
-5.3843
-5.38459
-5.38484
-5.38506
-5.52216
-5.52233
-5.52247
-5.52258
-5.66004
-5.66009
-5.66014
-5.66017
34.0797
160.489
246.861
265.346
264.6
264.372
264.369
264.689
263.998
260.352
250.244
241.543
242.971
248.075
251.879
253.83
255.026
254.377
258.84
152.503
204.033
255.032
263.943
264.377
264.126
263.983
263.649
262.408
259.748
254.867
250.413
249.484
250.917
252.484
253.623
254.671
254.932
257.823
170.854
205.383
251.545
263.74
264.009
263.579
263.342
262.75
261.572
259.759
257.106
254.466
253.226
253.02
252.946
253.359
254.308
255.654
257.835
136.457
176.703
232.565
262.892
263.155
262.854
262.625
261.899
260.808
259.496
257.843
256.205
255.172
254.326
252.53
252.32
253.206
256.439
257.898
90.913
129.364
194.011
261.06
263.079
262.573
262.363
261.321
260.189
259.246
258.165
257.119
256.61
255.52
250.082
250.579
252.131
248.701
298.756
48.5076
66.7618
123.483
218.166
256.052
260.899
261.64
259.809
259.481
259.092
258.356
257.487
257.274
257.539
248.955
250.523
251.974
246.433
403.496
-0.423594
14.3218
53.3475
118.187
187.838
214.475
255.218
258.177
258.847
258.889
258.34
257.551
257.288
256.749
222.621
234.357
225.19
311.967
569.883
-1.28106
-1.24429
2.62331
29.3426
69.0308
129.131
177.484
213.036
235.378
250.005
249.199
242.488
238.272
189.949
165.508
212.617
302.344
501.737
756.614
-1.31266
-1.10123
-1.01998
-0.670518
8.13989
30.0209
64.6184
115.191
165.987
190.977
186.097
169.947
160.309
139.698
169.767
268.858
417.336
625.821
842.814
-1.2673
-1.2442
-1.22188
-1.14456
-1.16766
-0.675541
5.74727
19.1161
32.3652
46.1145
53.1769
50.2818
62.0988
83.8692
122.734
207.331
327.306
562.769
754.368
-1.34906
-1.29325
-1.2816
-1.2913
-1.32443
-1.26086
-1.21736
-1.05001
-0.327267
2.33125
2.83171
-3.06343
11.0834
53.4237
109.413
172.797
245.565
372.532
540.006
-1.49235
-1.46591
-1.44407
-1.41583
-1.3709
-1.32582
-1.25074
-1.01511
-0.57316
0.0106196
-0.776746
-3.39521
1.1192
22.6617
57.6975
132.23
194.519
272.339
375.336
-1.64803
-1.61042
-1.58201
-1.56293
-1.51775
-1.45479
-1.37953
-1.25792
-1.06222
-0.853701
-1.26267
-2.51407
-3.03031
-0.930701
37.78
142.832
241.409
256.474
286.079
-1.77105
-1.7568
-1.73004
-1.69179
-1.64681
-1.59262
-1.52009
-1.43082
-1.34694
-1.34024
-1.70807
-2.81484
-4.19454
-0.526276
31.879
124.546
222.428
225.849
227.59
-1.88058
-1.86539
-1.85093
-1.82901
-1.79586
-1.75078
-1.69178
-1.62538
-1.58122
-1.64675
-2.04672
-3.11861
-4.76597
-5.7092
-0.939049
31.6702
162.497
167.65
172.009
-2.01211
-2.00548
-1.99447
-1.97824
-1.95379
-1.92
-1.87913
-1.84049
-1.82929
-1.91777
-2.2614
-3.04971
-3.73328
-4.20475
-1.92477
1.77008
82.5498
91.3523
124.078
-2.1493
-2.1466
-2.1421
-2.1334
-2.11828
-2.09683
-2.07368
-2.05989
-2.07516
-2.15897
-2.3754
-2.75791
-2.97304
-3.17645
-2.82243
-1.10418
19.2635
-4.00615
69.7696
-2.29312
-2.29394
-2.29423
-2.29232
-2.28619
-2.27666
-2.26924
-2.27381
-2.30381
-2.3731
-2.47683
-2.56331
-2.51929
-2.59264
-2.59948
-1.02744
-5.88096
-20.7976
47.9473
-2.44001
-2.44422
-2.44891
-2.45298
-2.45485
-2.45567
-2.46102
-2.47848
-2.51534
-2.5749
-2.63233
-2.61278
-2.54973
-2.52877
-2.28656
-6.07187
1.52559
33.3586
77.4611
-2.58868
-2.59581
-2.60432
-2.61351
-2.62215
-2.63135
-2.64606
-2.67223
-2.71285
-2.76869
-2.82802
-2.84274
-2.79301
-2.75288
-3.03708
-4.52555
14.4859
37.3216
47.0268
-2.73798
-2.74764
-2.75931
-2.77271
-2.78689
-2.80252
-2.82365
-2.85523
-2.89866
-2.9552
-3.02941
-3.09326
-3.10085
-3.19393
-3.40533
-1.86117
13.444
27.4706
49.8635
-2.88704
-2.89881
-2.91307
-2.92983
-2.9484
-2.96902
-2.99475
-3.03017
-3.07764
-3.14152
-3.24596
-3.40706
-3.58795
-3.80969
-4.05759
-3.95802
5.56314
40.9078
28.5554
-3.03522
-3.04866
-3.06494
-3.08431
-3.10632
-3.13104
-3.16084
-3.20032
-3.25411
-3.33047
-3.46448
-3.70201
-4.00047
-4.28418
-4.50893
-4.42398
-2.87735
8.42389
48.3959
-3.18209
-3.19671
-3.21444
-3.23571
-3.26031
-3.28838
-3.32219
-3.3665
-3.42739
-3.51505
-3.66189
-3.92171
-4.27021
-4.65716
-4.89597
-4.78031
-3.93584
-1.84643
15.3035
-3.32733
-3.34263
-3.36117
-3.38359
-3.40984
-3.44019
-3.47712
-3.52558
-3.59175
-3.68472
-3.8272
-4.07308
-4.41113
-4.89881
-5.12629
-4.9208
-4.40153
-3.91533
16.1035
-3.47076
-3.48622
-3.50487
-3.52758
-3.55438
-3.58564
-3.62388
-3.67379
-3.74072
-3.83036
-3.95346
-4.15771
-4.4459
-4.8765
-5.06811
-4.84426
-4.45009
-4.20864
4.66336
-3.61231
-3.6274
-3.64551
-3.66755
-3.69366
-3.72434
-3.76182
-3.80959
-3.87121
-3.94846
-4.04243
-4.1791
-4.37689
-4.65558
-4.80929
-4.65546
-4.35351
-3.91946
5.11088
-3.75204
-3.7663
-3.78322
-3.80372
-3.82799
-3.85661
-3.89112
-3.93324
-3.98439
-4.04277
-4.10076
-4.16767
-4.26266
-4.39084
-4.48972
-4.45366
-4.02666
-2.93134
0.245742
-3.89017
-3.90318
-3.9184
-3.93673
-3.9583
-3.9833
-4.01271
-4.0462
-4.08395
-4.12309
-4.15076
-4.16339
-4.1758
-4.22295
-4.28296
-4.22942
-3.85607
-1.08514
4.33648
-4.02697
-4.03846
-4.0517
-4.06756
-4.08614
-4.10658
-4.12938
-4.15267
-4.17629
-4.19869
-4.20836
-4.19405
-4.16022
-4.17564
-4.24861
-4.19249
-1.95712
0.889156
7.20442
-4.16281
-4.17264
-4.18375
-4.19698
-4.2127
-4.22872
-4.24403
-4.25664
-4.26772
-4.27779
-4.28091
-4.26062
-4.21515
-4.23809
-4.23529
-4.12672
-1.71875
-0.667097
5.16875
-4.29807
-4.30617
-4.31517
-4.32567
-4.33849
-4.35084
-4.35733
-4.35908
-4.36012
-4.36501
-4.37329
-4.37068
-4.29883
-4.29963
-4.07166
-3.69125
-2.25006
-2.53513
0.511413
-4.43311
-4.43948
-4.44644
-4.45428
-4.46392
-4.47345
-4.47335
-4.46336
-4.45472
-4.46022
-4.47954
-4.48536
-4.45415
-4.431
-4.27549
-3.33326
-2.46537
-2.68422
-1.16201
-4.5682
-4.57297
-4.578
-4.58324
-4.58918
-4.59589
-4.59436
-4.57915
-4.56319
-4.56659
-4.59407
-4.60347
-4.5924
-4.56019
-4.55651
-3.7741
-2.78777
-2.90218
-0.641587
-4.70349
-4.70689
-4.71021
-4.71317
-4.71583
-4.7181
-4.71712
-4.70697
-4.69117
-4.6914
-4.71245
-4.71998
-4.70584
-4.63196
-4.68893
-4.48967
-3.25072
-5.18513
1.04739
-4.83905
-4.84131
-4.84319
-4.8444
-4.84467
-4.84393
-4.84151
-4.83506
-4.82571
-4.82546
-4.83778
-4.83988
-4.82033
-4.76434
-4.75072
-4.63872
-2.66438
-6.38073
10.8043
-4.97496
-4.97633
-4.97713
-4.97716
-4.97599
-4.97359
-4.97011
-4.96429
-4.95853
-4.96034
-4.96958
-4.97501
-4.96963
-5.05844
-4.89297
-4.53779
-2.07043
-3.54902
0.108384
-5.11129
-5.11203
-5.11213
-5.11154
-5.10955
-5.10642
-5.10294
-5.09676
-5.09223
-5.09576
-5.10681
-5.12752
-5.13718
-5.16663
-5.21393
-4.86448
-1.9976
-2.79981
-1.9594
-5.24813
-5.24844
-5.24815
-5.2473
-5.24497
-5.24175
-5.23832
-5.23274
-5.22741
-5.22802
-5.23282
-5.24145
-5.25283
-5.26847
-5.36438
-4.86855
-2.17462
-3.14921
-2.76249
-5.38534
-5.38541
-5.385
-5.38414
-5.38194
-5.37909
-5.37533
-5.36882
-5.36471
-5.36115
-5.35563
-5.34707
-5.34683
-5.38118
-5.49105
-5.45374
-5.12409
-4.34989
-6.46703
-5.52273
-5.52271
-5.52232
-5.52178
-5.52014
-5.51814
-5.51526
-5.51103
-5.50882
-5.50719
-5.50441
-5.49883
-5.50505
-5.55985
-5.67319
-5.62999
-5.36659
-4.5696
-6.40491
-5.66022
-5.6602
-5.66006
-5.65979
-5.65918
-5.65845
-5.65725
-5.6562
-5.65729
-5.66027
-5.66582
-5.67554
-5.71313
-5.80637
-5.96423
-5.85338
-6.86317
-6.29771
-20.8174
)
;

boundaryField
{
    leftWall
    {
        type            calculated;
        value           nonuniform List<scalar> 
50
(
644.477
585.272
525.408
465.473
406.132
348.107
292.12
238.35
156.997
64.3848
5.14518
-0.321849
-0.410844
-0.541845
-0.686701
-0.829481
-0.974184
-1.11874
-1.2626
-1.40598
-1.54901
-1.69177
-1.83434
-1.97677
-2.11909
-2.26133
-2.4035
-2.5456
-2.68764
-2.82963
-2.97156
-3.11344
-3.25529
-3.39709
-3.53885
-3.68056
-3.8222
-3.96377
-4.10524
-4.24665
-4.38798
-4.52926
-4.67051
-4.81169
-4.95283
-5.09395
-5.2351
-5.37626
-5.51736
-5.65847
)
;
    }
    rightWall
    {
        type            calculated;
        value           nonuniform List<scalar> 
50
(
2306.77
1953.74
1362.48
737.382
473.118
412.863
356.967
269.761
258.84
257.823
257.835
257.898
298.756
403.496
569.883
756.614
842.814
754.368
540.006
375.336
286.079
227.59
172.009
124.078
69.7696
47.9473
77.4611
47.0268
49.8635
28.5554
48.3959
15.3035
16.1035
4.66336
5.11088
0.245742
4.33648
7.20442
5.16875
0.511413
-1.16201
-0.641587
1.04739
10.8043
0.108384
-1.9594
-2.76249
-6.46703
-6.40491
-20.8174
)
;
    }
    lowerWall
    {
        type            calculated;
        value           nonuniform List<scalar> 
62
(
673.906
670.494
673.335
680.419
690.82
699.339
705.325
710.15
716.172
724.792
736.322
750.626
767.41
786.333
807.148
829.377
851.853
872.653
886.815
895.109
875.458
875.318
914.335
884.905
819.982
759.14
708.029
662.515
615.47
550.225
469.509
181.411
176.697
189.008
166.527
284.425
284.129
273.496
271.165
248.316
194.042
106.751
11.5497
284.455
278.525
271.607
269.102
269.431
269.587
270.036
270.203
269.784
267.177
265.094
265.829
266.105
267.738
276.685
295.048
530.387
1355.91
2323.03
)
;
    }
    atmosphere
    {
        type            calculated;
        value           nonuniform List<scalar> 
46
(
-5.72904
-5.72904
-5.72904
-5.72904
-5.72904
-5.72904
-5.72904
-5.72904
-5.72904
-5.72904
-5.72904
-5.72904
-5.72904
-5.72904
-5.72904
-5.72904
-5.72904
-5.72904
-5.72904
-5.72904
-5.72904
-5.72904
-5.72904
-5.72904
-5.72904
-5.72904
-5.72904
-5.72904
-5.72904
-5.72904
-5.72904
-5.72904
-5.72904
-5.72904
-5.72969
-5.73293
-5.73886
-5.74865
-5.76711
-5.83047
-5.96014
-6.03167
-5.98295
-6.06482
-5.9997
-876.7
)
;
    }
    defaultFaces
    {
        type            empty;
    }
}


// ************************************************************************* //
