/*--------------------------------*- C++ -*----------------------------------*\
| =========                 |                                                 |
| \\      /  F ield         | OpenFOAM: The Open Source CFD Toolbox           |
|  \\    /   O peration     | Version:  5.x                                   |
|   \\  /    A nd           | Web:      www.OpenFOAM.org                      |
|    \\/     M anipulation  |                                                 |
\*---------------------------------------------------------------------------*/
FoamFile
{
    version     2.0;
    format      ascii;
    class       volScalarField;
    location    "0.5";
    object      p_rgh;
}
// * * * * * * * * * * * * * * * * * * * * * * * * * * * * * * * * * * * * * //

dimensions      [1 -1 -2 0 0 0 0];

internalField   nonuniform List<scalar> 
2268
(
673.906
670.494
673.335
680.419
690.82
699.339
705.325
710.15
716.172
724.792
736.322
750.626
767.41
786.333
807.148
829.377
851.853
872.653
886.815
895.109
875.458
875.318
914.335
673.56
669.401
671.972
678.865
689.258
698.01
704.181
709.13
715.288
724.042
735.655
749.869
766.487
785.223
805.774
827.752
850.318
872.035
888.556
900.305
872.393
863.512
908.27
672.555
667.6
669.481
675.821
686.212
695.408
701.938
707.13
713.553
722.575
734.401
748.831
765.563
784.334
804.757
826.278
847.995
868.914
886.195
900.122
882.689
855.415
905.895
671.479
665.372
665.975
671.428
681.783
691.651
698.717
704.263
711.069
720.47
732.593
747.225
764.119
782.953
803.38
824.794
846.187
866.385
883.09
895.367
891.994
872.059
913.062
670.997
663.18
661.746
665.758
676.021
686.868
694.655
700.635
707.932
717.818
730.294
745.171
762.274
781.232
801.791
823.307
844.776
864.832
881.372
893.357
895.861
889.762
927.38
671.83
661.792
657.246
659.122
669.339
681.399
689.983
696.365
704.181
714.627
727.519
742.706
760.08
779.188
799.998
821.805
843.617
863.95
880.912
893.584
900.856
904.042
939.155
674.702
661.582
653.293
652.642
662.744
675.697
684.832
691.612
699.974
710.94
724.178
739.681
757.604
776.847
798.016
820.276
842.658
863.537
881.172
894.565
903.618
909.674
932.766
679.791
664.841
651.579
646.424
655.848
669.133
678.407
685.965
695.446
707.173
720.659
736.066
753.028
773.911
795.747
818.849
842.185
863.819
882.143
896.069
904.6
909.307
910.943
284.455
278.525
271.607
269.102
269.431
269.587
270.036
270.203
269.784
267.177
265.094
265.829
266.105
267.738
276.685
295.048
530.387
1355.91
2323.03
284.47
279.298
271.115
268.809
267.966
268.783
269.623
270.342
270.064
266.915
264.25
264.023
261.319
259.486
257.385
264.074
340.284
809.059
2042.03
322.425
274.867
267.805
266.404
265.848
266.241
267.828
270.555
270.909
267.081
262.866
258.267
251.965
252.252
254.468
257.528
276.205
445.793
1509.62
407.711
265.469
265.951
265.994
265.626
265.273
266.728
270.445
271.849
268.729
260.568
247.434
246.71
249.973
253.862
256.805
263.726
314.406
889.739
425.461
265.326
265.92
265.838
265.453
265.015
265.798
269.916
271.986
270.695
255.342
237.096
242.516
248.538
253.219
256.479
260.329
282.934
496.428
426.666
267.28
265.717
265.697
265.254
264.812
265.14
268.55
270.721
269.549
249.874
231.891
239.083
247.321
252.618
255.842
258.293
270.799
416.577
474.15
467.468
265.363
265.668
265.13
264.69
264.876
267.096
268.599
265.946
247.402
231.385
237.641
246.653
252.29
255.125
257.002
260.049
547.748
452.99
625.232
305.158
265.717
265.107
264.733
264.861
266.208
266.695
263.366
248.906
233.603
238.502
246.954
252.216
254.708
256.339
255.616
616.111
690.464
673.699
639.845
602.396
614.658
641.635
659.597
672.312
686.235
700.543
715.519
732.214
750.572
769.826
791.734
815.732
840.927
864.391
884.299
899.526
905.218
893.754
817.687
638.731
457.91
266.277
171.762
210.973
280.424
321.198
356.568
410.388
474.974
540.332
607.42
673.702
735.119
783.806
812.779
843.201
869.471
891.818
910.398
921.04
920.946
914.495
74.2785
0.832216
0.537383
0.70232
0.708836
0.735474
0.766192
0.779668
0.872173
15.015
42.1625
80.9921
135.352
217.324
345.088
545.599
800.016
876.224
905.158
930.404
945.869
957.059
968.253
0.587202
0.555287
0.553386
0.624127
0.654731
0.682855
0.681168
0.697098
0.717166
0.677812
0.604367
0.55721
0.533074
0.5594
0.791346
20.2186
87.4439
251.883
526.435
883.659
980.144
990.997
1003.48
0.623401
0.650733
0.64375
0.631002
0.633034
0.641427
0.636466
0.623044
0.591088
0.539622
0.523282
0.5048
0.482299
0.525791
0.648888
0.702748
0.67792
3.71334
35.2053
88.4724
216.542
452.39
814.481
0.617594
0.617494
0.615019
0.615534
0.621379
0.628815
0.633474
0.626897
0.610396
0.582239
0.5546
0.528758
0.491165
0.593974
0.684583
0.712049
0.58873
0.610425
0.626222
0.643523
0.691743
7.82519
29.5726
0.597933
0.599466
0.602842
0.599034
0.598559
0.599438
0.595941
0.58672
0.572928
0.556988
0.542498
0.530519
0.519174
0.518441
0.597552
0.581577
0.57711
0.586165
0.651913
0.886647
0.883483
0.754272
0.859713
0.580348
0.58115
0.582201
0.579993
0.578693
0.577116
0.573194
0.565777
0.55544
0.544603
0.535073
0.527154
0.521247
0.516561
0.523112
0.538166
0.545319
0.548121
0.582293
0.790704
0.886668
0.805979
0.639487
0.560839
0.56153
0.562036
0.56045
0.558822
0.556515
0.552733
0.546976
0.539403
0.531656
0.525243
0.520692
0.519287
0.518301
0.519888
0.525386
0.528987
0.528705
0.560537
0.55004
0.838017
0.781082
0.532222
0.54148
0.542275
0.542429
0.541138
0.539497
0.537179
0.533888
0.529466
0.52406
0.518604
0.513887
0.510507
0.509129
0.509313
0.510107
0.512705
0.514532
0.514254
0.52028
0.527744
0.71994
0.806052
0.618264
0.522812
0.523446
0.523378
0.522276
0.520774
0.518713
0.516018
0.512693
0.508882
0.505132
0.501918
0.499644
0.498563
0.498367
0.498986
0.49982
0.499891
0.498127
0.492001
0.483165
0.502403
0.799957
0.831879
0.504628
0.505044
0.504835
0.503889
0.50258
0.500842
0.498694
0.496202
0.493498
0.490923
0.488756
0.48722
0.486388
0.486163
0.486291
0.486098
0.485299
0.482908
0.476965
0.463803
0.436267
0.395216
0.814999
0.486796
0.487026
0.486731
0.485919
0.484807
0.483379
0.481681
0.479795
0.477849
0.476036
0.474528
0.473448
0.472805
0.472521
0.472295
0.471754
0.470582
0.468113
0.463104
0.452909
0.433352
0.403164
0.370093
0.46923
0.469313
0.468979
0.468283
0.467351
0.466189
0.464847
0.463403
0.461958
0.460633
0.459531
0.458715
0.458178
0.457833
0.457465
0.456823
0.455605
0.453321
0.449195
0.441762
0.429148
0.411289
0.393064
0.451855
0.451833
0.451494
0.4509
0.450123
0.449177
0.448109
0.446983
0.445873
0.444859
0.444003
0.443336
0.442841
0.442439
0.441982
0.441286
0.440105
0.43808
0.4347
0.429242
0.42113
0.4111
0.402072
0.434617
0.434533
0.43421
0.433704
0.433054
0.432277
0.431414
0.430512
0.429628
0.42881
0.428097
0.427503
0.427006
0.426537
0.425987
0.425215
0.424037
0.422222
0.419465
0.415406
0.409918
0.403699
0.398435
0.417487
0.41737
0.417076
0.416643
0.416095
0.415448
0.414732
0.413986
0.413247
0.412548
0.411909
0.411334
0.410799
0.410247
0.409595
0.408737
0.407536
0.405837
0.403463
0.40026
0.396261
0.391976
0.388428
0.400442
0.400317
0.400055
0.39968
0.399212
0.398659
0.398048
0.397405
0.396754
0.396117
0.395503
0.394908
0.394308
0.393654
0.392879
0.391902
0.39062
0.38893
0.386727
0.383946
0.380636
0.3771
0.373927
0.383469
0.38335
0.38312
0.382791
0.382382
0.381898
0.381356
0.380776
0.380173
0.379558
0.378933
0.378291
0.377604
0.376831
0.375918
0.374793
0.373376
0.37159
0.369362
0.366652
0.363496
0.360061
0.356657
0.366562
0.366455
0.366255
0.365961
0.365594
0.365155
0.364656
0.364109
0.363524
0.362904
0.362246
0.361537
0.360751
0.359848
0.358782
0.357488
0.355899
0.353948
0.351572
0.348729
0.34542
0.341704
0.337711
0.349714
0.349623
0.349449
0.349179
0.348841
0.348429
0.347953
0.34742
0.346832
0.346189
0.345483
0.344697
0.343804
0.342769
0.341543
0.340068
0.338281
0.336118
0.333513
0.330409
0.326772
0.322599
0.317842
0.332924
0.332849
0.332696
0.332442
0.332121
0.331723
0.331256
0.330721
0.330118
0.329441
0.32868
0.327815
0.326817
0.32565
0.324267
0.322611
0.32062
0.318229
0.315363
0.31195
0.307916
0.303178
0.297766
0.316187
0.316128
0.315991
0.315746
0.315433
0.315041
0.314574
0.314029
0.313404
0.31269
0.311873
0.31093
0.309834
0.308544
0.307015
0.30519
0.303006
0.300395
0.297276
0.293552
0.289144
0.283966
0.277889
0.299497
0.299455
0.29933
0.299091
0.298781
0.298389
0.297916
0.297359
0.296711
0.29596
0.29509
0.294078
0.292894
0.291497
0.28984
0.287871
0.285518
0.282714
0.279373
0.275406
0.270695
0.265124
0.258534
0.282851
0.282825
0.282711
0.282476
0.282168
0.281773
0.281294
0.280725
0.280055
0.279272
0.278356
0.277286
0.276032
0.274545
0.272786
0.270697
0.268221
0.265279
0.261781
0.257624
0.252691
0.246853
0.239928
0.266244
0.266233
0.266135
0.265908
0.265598
0.265201
0.264717
0.264137
0.263452
0.262643
0.261691
0.260575
0.259262
0.257718
0.255891
0.253729
0.251171
0.24814
0.244549
0.240291
0.235245
0.229283
0.222217
0.249678
0.24968
0.249602
0.249396
0.249076
0.248675
0.248187
0.2476
0.2469
0.246074
0.245106
0.243967
0.242625
0.241045
0.239182
0.236984
0.234393
0.231333
0.227721
0.223456
0.218414
0.212478
0.205464
0.233163
0.233169
0.233105
0.232849
0.232569
0.232189
0.231711
0.231127
0.230427
0.229597
0.228621
0.227473
0.226123
0.224535
0.222669
0.220476
0.2179
0.214872
0.211314
0.207132
0.202213
0.196445
0.189666
0.21671
0.216711
0.216695
0.216439
0.216153
0.215776
0.215304
0.214726
0.214032
0.213208
0.212239
0.211099
0.209761
0.208191
0.206353
0.204202
0.201689
0.198751
0.195317
0.191301
0.186607
0.18114
0.174755
0.200338
0.200287
0.20025
0.200058
0.199796
0.19943
0.198969
0.198402
0.197721
0.196913
0.195962
0.194845
0.193537
0.192008
0.190226
0.188153
0.185742
0.182941
0.179689
0.175912
0.171527
0.166466
0.160607
0.18406
0.183954
0.183977
0.183763
0.183513
0.183156
0.182709
0.182158
0.181497
0.180715
0.179793
0.178713
0.177451
0.175983
0.17428
0.17231
0.170033
0.167404
0.164376
0.160891
0.156878
0.152294
0.147053
0.16785
0.167718
0.167767
0.167538
0.167303
0.166956
0.166526
0.165996
0.165363
0.164613
0.163732
0.162702
0.161503
0.160113
0.158507
0.156659
0.154536
0.152105
0.149328
0.146163
0.142558
0.138487
0.133904
0.151709
0.151569
0.151621
0.15138
0.151163
0.150826
0.150418
0.149916
0.149316
0.148609
0.147779
0.146811
0.145687
0.144389
0.142896
0.141186
0.139235
0.137017
0.134505
0.13167
0.128484
0.124935
0.121008
0.135624
0.135497
0.135528
0.135281
0.135083
0.134761
0.13438
0.133912
0.133354
0.132696
0.131926
0.13103
0.129993
0.1288
0.127433
0.125876
0.12411
0.122117
0.119877
0.117381
0.114609
0.111563
0.108257
0.119569
0.119408
0.119476
0.119234
0.119064
0.118759
0.118411
0.117983
0.117475
0.116876
0.116175
0.115362
0.114423
0.113345
0.112117
0.110725
0.109154
0.107394
0.105435
0.103274
0.100905
0.098332
0.0956015
0.103585
0.103475
0.103492
0.103247
0.103104
0.10282
0.10251
0.102129
0.101678
0.101147
0.100528
0.0998079
0.0989779
0.0980285
0.0969496
0.0957325
0.0943681
0.0928491
0.0911739
0.0893409
0.0873524
0.0852274
0.0830224
0.0876439
0.0875551
0.08755
0.0873034
0.0871926
0.0869333
0.0866681
0.0863395
0.0859529
0.0854995
0.0849682
0.0843525
0.0836398
0.0828299
0.0819115
0.0808778
0.07973
0.0784562
0.0770601
0.0755494
0.0739242
0.0722114
0.0704771
0.071711
0.0716185
0.0716093
0.0713808
0.071291
0.0710673
0.0708484
0.0705776
0.0702567
0.0698854
0.0694464
0.0689411
0.068357
0.067688
0.0669392
0.0660961
0.0651629
0.0641329
0.0630092
0.0617998
0.0605222
0.059186
0.0578553
0.0557557
0.0556585
0.0556711
0.0554561
0.0553983
0.0552098
0.0550397
0.0548257
0.0545782
0.0542833
0.0539444
0.0535479
0.0530947
0.0525778
0.0519927
0.0513439
0.0506154
0.0498192
0.048956
0.0480316
0.0470569
0.0460582
0.0450787
0.0397954
0.0397197
0.0397427
0.0395634
0.0395399
0.0393894
0.0392731
0.0391214
0.0389399
0.0387339
0.0384868
0.0382082
0.0378826
0.0375159
0.0370989
0.0366365
0.0361169
0.0355471
0.0349296
0.0342805
0.0335933
0.0328931
0.0322179
0.0238835
0.0238416
0.0238427
0.0237333
0.0237295
0.0236362
0.0235681
0.0234746
0.0233732
0.0232474
0.0231025
0.0229297
0.0227365
0.0225138
0.0222669
0.0219873
0.0216792
0.0213368
0.0209691
0.0205797
0.0201727
0.0197572
0.0193578
0.0079714
0.00796319
0.00795192
0.00792498
0.00791862
0.00788876
0.00786907
0.00783674
0.00780399
0.00776205
0.00771506
0.00765714
0.00759266
0.00751951
0.00743692
0.00734438
0.00724241
0.0071324
0.00701412
0.00688218
0.00674679
0.00661067
0.00648137
652.28
647.567
659.878
637.397
891.381
879.495
863.258
844.449
957.475
948.614
947.642
949.491
1009.49
1012.43
1017.9
1026.74
1017.72
1047.91
1067.76
1091.63
69.0005
116.85
204.196
406.819
0.999228
1.08012
1.14481
1.03531
0.645145
0.638742
0.551645
0.418208
0.503628
0.488655
0.468316
0.451837
0.449379
0.444789
0.462405
0.497756
0.813168
0.647126
0.56792
0.54146
1.26789
1.28051
1.29239
1.31497
0.353907
0.351135
0.448708
0.548358
0.383794
0.379738
0.378755
0.381569
0.398491
0.397561
0.398219
0.400154
0.396386
0.395848
0.396033
0.396818
0.386978
0.386472
0.386319
0.386459
0.372192
0.371274
0.370468
0.369697
0.354329
0.352889
0.35138
0.349762
0.334605
0.332548
0.330353
0.327897
0.313987
0.311337
0.308437
0.305214
0.293163
0.289964
0.286453
0.282568
0.272639
0.268981
0.264969
0.26055
0.252797
0.248793
0.244404
0.239587
0.23388
0.229655
0.225033
0.219972
0.216039
0.211727
0.207019
0.201876
0.199337
0.195064
0.190413
0.185352
0.183761
0.179645
0.175182
0.170358
0.169221
0.165371
0.16121
0.156746
0.155562
0.15206
0.148291
0.144282
0.142581
0.139492
0.136181
0.132679
0.130045
0.127397
0.124579
0.121614
0.117755
0.115547
0.11322
0.110786
0.105577
0.10378
0.101918
0.0999852
0.093444
0.0920162
0.0905641
0.0890822
0.0813276
0.0802234
0.0791225
0.0780217
0.0691822
0.0683529
0.0675457
0.0667589
0.056895
0.0562929
0.0557229
0.0551854
0.0443918
0.043969
0.0435798
0.0432278
0.0317513
0.0314681
0.0312146
0.0309965
0.0190855
0.0189219
0.0187817
0.018666
0.00639814
0.00634851
0.0063059
0.00627074
567.547
693.956
562.195
268.374
265.137
264.905
264.903
265.223
264.533
260.892
250.827
242.106
243.537
248.617
252.416
254.366
255.562
254.913
687.165
811.164
862.694
890.866
342.494
265.036
264.785
264.642
264.308
263.066
260.408
255.531
251.077
250.145
251.579
253.148
254.287
255.334
255.595
790.173
954.71
989.239
1035.4
444.253
264.809
264.363
264.126
263.534
262.356
260.543
257.893
255.252
254.011
253.805
253.741
254.423
255.143
256.459
939.016
1045.51
1085.75
1141.61
638.726
264.139
263.763
263.534
262.808
261.717
260.407
258.759
257.116
256.083
255.237
256.533
255.301
254.183
267.541
1111.71
1125.11
1163.61
1228.26
1053.54
264.18
263.609
263.397
262.355
261.224
260.286
259.208
258.157
257.646
266.073
258.584
252.629
253.28
664.933
1320.29
957.234
1216.69
1282.92
1377.58
605.755
262.133
262.802
261.474
260.654
260.254
259.52
258.648
258.435
398.711
252.983
252.001
253.3
1156.11
1562.94
23.839
419.887
1222.59
1402.77
1433.88
1086.29
563.789
259.466
260.132
260.176
259.626
258.838
258.575
414.405
561.87
560.163
858.368
1539.51
1823.04
0.246686
0.283992
100.963
704.547
1414.77
1466.93
1496.84
1257.02
791.48
456.713
452.95
574.629
653.343
1003.35
1373.34
1491.76
1654.92
1873.48
2024.88
0.350716
0.562147
0.64401
9.44696
255.459
780.669
1388.98
1429.4
1468.84
1474.82
1498.16
1544.64
1573.87
1597.98
1648.87
1762.25
1910.89
2119.34
2222.46
0.531735
0.554835
0.577155
0.656063
0.641059
17.6334
193.771
549.056
851.952
1067.79
1226.44
1260.74
1262.71
1216.12
945.003
939.448
1410.83
2097
2250.13
0.585645
0.641833
1.29818
1.27684
0.734873
0.524589
0.568693
0.763803
21.0176
78.7487
154.532
170.527
172.039
154.429
204.092
267.477
501.759
1775.3
2222.54
1.36639
1.39363
1.41547
1.3854
0.798175
0.584791
0.659905
0.896623
1.3525
2.02319
1.60958
0.933162
9.47442
40.7668
173.597
364.743
889.347
1888.03
2266.89
0.639199
0.690513
0.521291
0.47287
0.518055
0.58101
0.656272
0.777957
0.974817
1.20125
0.902788
0.0287089
1.58163
225.924
1230.73
1730.47
1904.93
2063.25
2321.88
0.389944
0.404198
0.430954
0.469209
0.514189
0.568374
0.640909
0.730191
0.814223
0.823133
0.480223
-0.388713
0.342458
326.032
1399.92
2147.51
2247.72
2254.76
2388.59
0.405611
0.420804
0.435264
0.457183
0.490334
0.535411
0.594415
0.660818
0.705015
0.640056
0.248809
2.84935
5.47594
-2.38772
3.34191
1171.4
2303.28
2308.93
1371.44
0.399274
0.405905
0.416918
0.433149
0.457601
0.491409
0.532286
0.570914
0.582122
0.493741
0.216577
1.01251
0.227728
-1.07733
1.5786
585.457
2174.56
2353.78
1384.14
0.387283
0.389979
0.394484
0.403183
0.418297
0.439755
0.463163
0.477123
0.461619
0.377933
0.178941
-0.208143
-0.392166
-0.565405
89.2811
914.669
1709.67
2374.65
2443.96
0.368654
0.367833
0.367551
0.36946
0.375585
0.38512
0.392696
0.388575
0.358572
0.289297
0.190264
0.105562
0.163365
0.113285
189.733
914.736
826.61
1402.36
2709.72
0.34696
0.342755
0.33806
0.333988
0.332174
0.331529
0.326239
0.308774
0.271929
0.212881
0.157253
0.177091
0.242812
0.345831
91.9642
417.727
350.345
380.736
1829.63
0.323488
0.31635
0.307845
0.298659
0.290073
0.281375
0.26674
0.240342
0.199622
0.143866
0.0845612
0.0700224
0.121281
0.194462
6.78788
418.029
704.699
77.2079
77.123
0.299378
0.289722
0.278052
0.264653
0.250471
0.235021
0.214379
0.182911
0.139121
0.0829948
0.00855627
-0.0550985
-0.0597264
-0.0900561
1.43962
416.41
968.453
976.637
283.299
0.275514
0.263748
0.24949
0.232727
0.214159
0.193538
0.16781
0.133164
0.0877819
0.0260522
-0.0795799
-0.240507
-0.395037
-0.618542
-0.729086
0.162108
496.091
1793.86
2063.37
0.252525
0.23909
0.222806
0.203439
0.181434
0.156715
0.126915
0.0882627
0.0376271
-0.0375065
-0.171512
-0.410884
-0.705974
-0.988538
-0.993147
-0.87596
1.47183
427.395
2355.31
0.230852
0.216231
0.198501
0.177234
0.152656
0.124595
0.0907806
0.0470876
-0.0129322
-0.10004
-0.247114
-0.508143
-0.835285
-0.642801
-0.844356
-1.17493
-0.228351
31.8876
379.767
0.210804
0.195503
0.176972
0.154548
0.128308
0.0979865
0.0610824
0.0126403
-0.0535547
-0.146528
-0.289012
-0.534873
-0.795464
-0.329434
-1.00447
-1.26694
2.69142
50.6043
435.125
0.192573
0.177114
0.158457
0.135753
0.108976
0.0777777
0.0395442
-0.0103861
-0.0773271
-0.166971
-0.290083
-0.494332
-0.704068
-0.14544
-1.23883
-1.06111
-0.666946
37.2867
2507.02
0.176217
0.161124
0.143017
0.120975
0.0948859
0.0642812
0.0268053
-0.020959
-0.082623
-0.159872
-0.253851
-0.390527
-0.505233
0.237172
-0.603049
-0.75945
-0.421247
13.5122
2751.46
0.161675
0.14742
0.130501
0.109997
0.085744
0.0571466
0.0226614
-0.0194424
-0.070602
-0.129004
-0.186994
-0.2539
-0.175937
0.214145
-0.499384
-0.455346
3.18723
6.70055
1000.74
0.148747
0.135738
0.120518
0.102182
0.0806165
0.0556228
0.0262087
-0.007267
-0.0450032
-0.0841393
-0.111809
-0.113824
0.0508694
-0.162952
-0.231396
4.6299
58.152
21.9442
428.545
0.137142
0.125644
0.112413
0.0965535
0.0779746
0.0575319
0.0347267
0.0114378
-0.0121789
-0.0345755
-0.0420099
-0.0118128
0.0291564
-0.000126983
-0.0730951
60.3913
77.762
24.5682
758.455
0.126492
0.116661
0.105549
0.0923289
0.0766035
0.0605835
0.0452777
0.0326674
0.0215796
0.0116268
0.0100641
0.0319404
0.0741716
0.144796
0.144301
77.5595
81.1555
15.4939
1150.58
0.116428
0.108327
0.0993266
0.0888315
0.0760052
0.063658
0.0571722
0.0554165
0.0543809
0.0495244
0.0412584
0.0438269
0.115668
0.450708
3.77387
78.9865
26.6719
13.8425
916.317
0.106586
0.100208
0.0932523
0.0854137
0.0757759
0.0662441
0.0670407
0.0779311
0.0849752
0.0794691
0.0601587
0.0543356
0.0855466
0.108697
64.4128
30.7252
14.3736
14.2383
933.823
0.0966894
0.0919129
0.0868885
0.0816503
0.0757114
0.0689966
0.0706964
0.0943455
0.110418
0.102433
0.0708209
0.0614154
0.0724904
0.104698
83.4282
85.001
30.382
14.4013
1360.41
0.0865944
0.0831926
0.0798755
0.0769134
0.0742538
0.0719801
0.0729614
0.0882083
0.109283
0.10906
0.0861117
0.0706802
0.0842386
7.97266
86.4687
86.668
37.5213
12.7628
2306.2
0.076221
0.0739612
0.0720817
0.0708781
0.0706014
0.0713423
0.0737616
0.080216
0.0934714
0.0990172
0.0832133
0.0755371
0.0949499
29.8559
88.5033
88.6824
39.1284
62.2709
1839.02
0.0655138
0.0641378
0.0633379
0.0633055
0.0644781
0.0668842
0.0703585
0.0761776
0.0819354
0.0804292
0.0710069
0.0654641
0.0708355
-0.0179656
74.4218
90.9504
41.2009
51.4037
224.515
0.0543716
0.0536321
0.0535389
0.0541253
0.0561157
0.0592418
0.0627247
0.0689029
0.073438
0.0699022
0.0588521
0.038141
0.0284863
-0.000962824
7.74199
92.4796
44.5964
16.1788
3.20627
0.042726
0.042421
0.0427096
0.043557
0.0458884
0.0491055
0.0525396
0.0581198
0.0634457
0.0628368
0.0580437
0.0494112
0.038025
0.0223872
-0.0735212
72.5678
48.402
3.54198
2.52837
0.0307121
0.030647
0.031053
0.0319135
0.0341143
0.0369601
0.0407211
0.0472333
0.0513477
0.0549034
0.0604235
0.068983
0.0692253
0.0348746
-0.0749949
6.53403
31.1741
1.2473
414.728
0.0185157
0.0185385
0.0189248
0.0194669
0.0211122
0.0231044
0.0259889
0.0302178
0.0324309
0.0340606
0.0368401
0.0424215
0.0361987
-0.0185992
-0.131939
-0.0887464
4.94132
0.978041
2248.19
0.00622284
0.00624214
0.006387
0.00665244
0.00726324
0.00798961
0.00919585
0.010241
0.0091504
0.00616909
0.000627262
-0.00909706
-0.0466833
-0.13993
-0.297783
-0.186942
-1.19673
-0.631271
846.303
)
;

boundaryField
{
    leftWall
    {
        type            fixedFluxPressure;
        gradient        uniform 0;
        value           nonuniform List<scalar> 
50
(
673.906
673.56
672.555
671.479
670.997
671.83
674.702
679.791
690.464
638.731
74.2785
0.587202
0.623401
0.617594
0.597933
0.580348
0.560839
0.54148
0.522812
0.504628
0.486796
0.46923
0.451855
0.434617
0.417487
0.400442
0.383469
0.366562
0.349714
0.332924
0.316187
0.299497
0.282851
0.266244
0.249678
0.233163
0.21671
0.200338
0.18406
0.16785
0.151709
0.135624
0.119569
0.103585
0.0876439
0.071711
0.0557557
0.0397954
0.0238835
0.0079714
)
;
    }
    rightWall
    {
        type            fixedFluxPressure;
        gradient        uniform 0;
        value           nonuniform List<scalar> 
50
(
2323.03
2042.03
1509.62
889.739
496.428
416.577
547.748
616.111
687.165
790.173
939.016
1111.71
1320.29
1562.94
1823.04
2024.88
2222.46
2250.13
2222.54
2266.89
2321.88
2388.59
1371.44
1384.14
2443.96
2709.72
1829.63
77.123
283.299
2063.37
2355.31
379.767
435.125
2507.02
2751.46
1000.74
428.545
758.455
1150.58
916.317
933.823
1360.41
2306.2
1839.02
224.515
3.20627
2.52837
414.728
2248.19
846.303
)
;
    }
    lowerWall
    {
        type            fixedFluxPressure;
        gradient        uniform 0;
        value           nonuniform List<scalar> 
62
(
673.906
670.494
673.335
680.419
690.82
699.339
705.325
710.15
716.172
724.792
736.322
750.626
767.41
786.333
807.148
829.377
851.853
872.653
886.815
895.109
875.458
875.318
914.335
914.335
908.27
905.895
913.062
927.38
939.155
932.766
910.943
652.28
647.567
659.878
637.397
284.455
284.47
322.425
407.711
425.461
426.666
474.15
452.99
284.455
278.525
271.607
269.102
269.431
269.587
270.036
270.203
269.784
267.177
265.094
265.829
266.105
267.738
276.685
295.048
530.387
1355.91
2323.03
)
;
    }
    atmosphere
    {
        type            totalPressure;
        rho             rho;
        psi             none;
        gamma           1;
        p0              uniform 0;
        value           nonuniform List<scalar> 
46
(
0
0
0
0
0
0
0
0
0
0
0
0
0
0
0
0
0
0
0
0
0
0
0
0
0
0
0
0
0
0
0
0
0
0
-0.000651975
-0.00389452
-0.00981763
-0.0196067
-0.0380724
-0.101428
-0.231105
-0.302627
-0.253908
-0.335784
-0.270663
0
)
;
    }
    defaultFaces
    {
        type            empty;
    }
}


// ************************************************************************* //
