/*--------------------------------*- C++ -*----------------------------------*\
| =========                 |                                                 |
| \\      /  F ield         | OpenFOAM: The Open Source CFD Toolbox           |
|  \\    /   O peration     | Version:  5.x                                   |
|   \\  /    A nd           | Web:      www.OpenFOAM.org                      |
|    \\/     M anipulation  |                                                 |
\*---------------------------------------------------------------------------*/
FoamFile
{
    version     2.0;
    format      ascii;
    class       surfaceScalarField;
    location    "0.5";
    object      phi;
}
// * * * * * * * * * * * * * * * * * * * * * * * * * * * * * * * * * * * * * //

dimensions      [0 3 -1 0 0 0 0];

internalField   nonuniform List<scalar> 
4432
(
-3.77572e-06
3.77572e-06
-5.2549e-06
1.47918e-06
-3.26598e-06
-1.98892e-06
9.59586e-07
-4.22557e-06
6.4252e-06
-5.46561e-06
1.20009e-05
-5.57567e-06
1.67874e-05
-4.78659e-06
2.03658e-05
-3.57835e-06
2.27406e-05
-2.37482e-06
2.41113e-05
-1.37066e-06
2.46973e-05
-5.86007e-07
2.46332e-05
6.40568e-08
2.39332e-05
6.99975e-07
2.2549e-05
1.38423e-06
2.02427e-05
2.30627e-06
1.65826e-05
3.66011e-06
1.10983e-05
5.48432e-06
3.98303e-06
7.11527e-06
-2.10593e-06
6.08895e-06
-7.38222e-06
5.27629e-06
-1.6052e-05
8.66977e-06
-1.52101e-05
-8.41943e-07
-1.52101e-05
-4.05694e-06
7.83266e-06
-4.92664e-06
2.34888e-06
-2.77234e-06
-4.14322e-06
1.43063e-06
-8.42854e-06
6.82118e-06
-1.08562e-05
1.23257e-05
-1.10802e-05
1.70316e-05
-9.49254e-06
2.05266e-05
-7.0733e-06
2.28416e-05
-4.68979e-06
2.41994e-05
-2.72846e-06
2.48394e-05
-1.22603e-06
2.49995e-05
-9.60222e-08
2.48882e-05
8.1128e-07
2.46025e-05
1.66989e-06
2.41724e-05
2.7364e-06
2.34067e-05
4.4258e-06
2.1593e-05
7.29801e-06
1.72269e-05
1.14814e-05
9.00291e-06
1.43129e-05
-2.20347e-06
1.64827e-05
-1.01384e-05
1.66047e-05
-8.89763e-06
-2.08272e-06
-2.41077e-05
-3.43428e-06
1.12669e-05
-4.00022e-06
2.91482e-06
-1.88129e-06
-6.26216e-06
2.06243e-06
-1.23723e-05
7.21293e-06
-1.60067e-05
1.25578e-05
-1.64251e-05
1.70983e-05
-1.4033e-05
2.04005e-05
-1.03756e-05
2.25463e-05
-6.83562e-06
2.38061e-05
-3.98826e-06
2.44278e-05
-1.84764e-06
2.45779e-05
-2.46212e-07
2.43736e-05
1.01563e-06
2.38985e-05
2.14496e-06
2.32609e-05
3.37398e-06
2.26614e-05
5.02533e-06
2.23723e-05
7.58715e-06
2.17907e-05
1.20629e-05
1.83393e-05
1.77643e-05
1.05847e-05
2.42373e-05
1.86835e-06
2.53211e-05
-2.72193e-07
5.78168e-08
-2.43799e-05
-2.52732e-06
1.37943e-05
-2.66379e-06
3.05128e-06
-6.75554e-07
-8.25039e-06
2.76252e-06
-1.58103e-05
7.52569e-06
-2.07698e-05
1.26562e-05
-2.15556e-05
1.70097e-05
-1.83865e-05
2.01028e-05
-1.34687e-05
2.20695e-05
-8.80228e-06
2.32336e-05
-5.1524e-06
2.38577e-05
-2.47175e-06
2.40975e-05
-4.86017e-07
2.40398e-05
1.07333e-06
2.37261e-05
2.45872e-06
2.31844e-05
3.91569e-06
2.24977e-05
5.71202e-06
2.19671e-05
8.11772e-06
2.21823e-05
1.18477e-05
2.2481e-05
1.74656e-05
2.10528e-05
2.56655e-05
1.72145e-05
2.91594e-05
9.1892e-06
8.08311e-06
-1.51907e-05
-1.32673e-06
1.5121e-05
-7.5691e-07
2.48145e-06
1.05148e-06
-1.00588e-05
4.05391e-06
-1.88128e-05
8.30563e-06
-2.50216e-05
1.29716e-05
-2.62216e-05
1.69037e-05
-2.23185e-05
1.96555e-05
-1.62205e-05
2.14166e-05
-1.05633e-05
2.25187e-05
-6.25453e-06
2.31963e-05
-3.14933e-06
2.35708e-05
-8.60528e-07
2.37027e-05
9.41445e-07
2.36182e-05
2.5432e-06
2.33353e-05
4.19858e-06
2.29e-05
6.14728e-06
2.24203e-05
8.59742e-06
2.23617e-05
1.19063e-05
2.34364e-05
1.63909e-05
2.54505e-05
2.36513e-05
2.50515e-05
2.95585e-05
1.59118e-05
1.72228e-05
7.21074e-07
2.28467e-07
1.48925e-05
2.03776e-06
6.72156e-07
4.20347e-06
-1.22245e-05
7.20449e-06
-2.18138e-05
1.07987e-05
-2.86157e-05
1.4405e-05
-2.98279e-05
1.73269e-05
-2.52404e-05
1.93566e-05
-1.82502e-05
2.0734e-05
-1.19408e-05
2.17348e-05
-7.25531e-06
2.2499e-05
-3.91355e-06
2.30649e-05
-1.42642e-06
2.3438e-05
5.68338e-07
2.35969e-05
2.38431e-06
2.35548e-05
4.2407e-06
2.33733e-05
6.3288e-06
2.31803e-05
8.79039e-06
2.31347e-05
1.19519e-05
2.37463e-05
1.57793e-05
2.60652e-05
2.13324e-05
2.73237e-05
2.83e-05
1.91852e-05
2.53613e-05
1.99063e-05
2.54628e-06
1.23462e-05
5.99401e-06
-2.77558e-06
9.75148e-06
-1.5982e-05
1.32601e-05
-2.53224e-05
1.57697e-05
-3.11254e-05
1.74633e-05
-3.15214e-05
1.87251e-05
-2.65023e-05
1.96874e-05
-1.92125e-05
2.04843e-05
-1.27377e-05
2.12342e-05
-8.00519e-06
2.19684e-05
-4.64772e-06
2.26421e-05
-2.10022e-06
2.32404e-05
-2.99365e-08
2.36613e-05
1.96339e-06
2.38755e-05
4.02651e-06
2.39195e-05
6.28484e-06
2.39578e-05
8.75206e-06
2.41226e-05
1.17871e-05
2.44573e-05
1.54445e-05
2.59298e-05
1.986e-05
2.7365e-05
2.68648e-05
2.18481e-05
3.08782e-05
4.17543e-05
4.87588e-06
7.47037e-06
1.12072e-05
-9.10686e-06
1.76496e-05
-2.24244e-05
2.14345e-05
-2.91074e-05
2.19708e-05
-3.16617e-05
2.11058e-05
-3.06564e-05
2.05742e-05
-2.59707e-05
2.06446e-05
-1.9283e-05
2.10614e-05
-1.31545e-05
2.16325e-05
-8.57625e-06
2.22654e-05
-5.28068e-06
2.28864e-05
-2.72119e-06
2.33436e-05
-4.87169e-07
2.38247e-05
1.4823e-06
2.41607e-05
3.69055e-06
2.44172e-05
6.02834e-06
2.4721e-05
8.44819e-06
2.51433e-05
1.13649e-05
2.56138e-05
1.49741e-05
2.65266e-05
1.89472e-05
2.75225e-05
2.58689e-05
2.32907e-05
3.511e-05
6.50451e-05
0.00010861
-0.00010861
0.000186711
-7.81011e-05
0.000170237
1.64737e-05
0.000155435
1.48027e-05
0.00015588
-4.4535e-07
0.000120136
3.57435e-05
4.37807e-05
7.63558e-05
-2.00142e-06
4.57823e-05
4.28088e-05
-4.481e-05
7.96108e-05
-3.68021e-05
-1.10047e-05
9.06157e-05
-0.000192797
0.000181792
-0.000372455
0.000179658
-0.000464091
9.16358e-05
-0.000416153
-4.79375e-05
-0.000329562
-8.65915e-05
-0.000243707
-8.58545e-05
-0.000108357
-0.00013535
-0.000108357
4.15854e-05
-0.000150195
7.98869e-05
-0.000116403
9.70372e-05
-6.76409e-07
9.83695e-05
1.34703e-05
0.000127015
-2.90905e-05
0.000155712
7.04579e-06
0.000109998
0.00012207
3.00177e-05
0.000125763
3.09279e-05
-4.57203e-05
-1.0923e-05
5.04824e-06
-0.000187606
0.000267298
-0.000388003
0.000382189
-0.000460962
0.000252617
-0.00036404
-5.28593e-06
-0.000265526
-0.000146452
-0.000220732
-0.000131385
-0.00015814
-0.000148447
-5.82121e-05
-0.000235277
-0.000166569
1.54399e-05
-0.000165635
5.6943e-05
-0.000157906
9.01381e-05
-3.38716e-05
0.00010157
2.03801e-06
0.000110934
-3.84544e-05
0.00013117
-1.31902e-05
0.000117815
0.000135425
4.16539e-05
0.000201924
-4.03093e-05
3.62428e-05
-0.00018769
0.000152429
-0.000358314
0.000437923
-0.00044185
0.000465724
-0.000382852
0.000193619
-0.000296792
-9.13461e-05
-0.000262332
-0.000180911
-0.000208095
-0.000185622
-0.000144581
-0.000211962
-4.89348e-05
-0.000330923
-0.000215504
-2.29931e-05
-0.000142642
-2.83286e-05
-0.00015257
4.41298e-05
-0.00010633
0.000100646
-5.44779e-05
0.000115827
-5.36351e-05
0.000112543
-9.90721e-06
9.35778e-05
0.000154391
7.11505e-06
0.000288387
-0.000161667
0.000205025
-0.000350835
0.000341597
-0.00045036
0.000537448
-0.000442251
0.000457615
-0.000341647
9.30159e-05
-0.000266108
-0.000166886
-0.00022629
-0.00022073
-0.000179933
-0.000231979
-0.000133019
-0.000258876
-3.89257e-05
-0.000425016
-0.00025443
-4.03001e-05
-0.000102342
-3.62975e-05
-0.000156573
1.51912e-05
-0.000157819
5.90557e-05
-9.83426e-05
7.83591e-05
-7.29383e-05
7.47124e-05
-6.26044e-06
5.14426e-05
0.000177661
-3.81537e-05
0.000377983
-0.000230367
0.000397239
-0.000391733
0.000502963
-0.000429513
0.000575228
-0.000364225
0.000392327
-0.000254325
-1.68847e-05
-0.000187315
-0.000233896
-0.00014287
-0.000265174
-0.000122634
-0.000252215
-0.000127124
-0.000254386
-6.00481e-05
-0.000492092
-0.000314478
-3.12096e-05
-7.11323e-05
-3.14918e-05
-0.000156291
-9.85353e-06
-0.000179457
2.54138e-05
-0.00013361
4.24338e-05
-8.99584e-05
3.61366e-05
3.66099e-08
1.10943e-05
0.000202703
-6.00683e-05
0.000449146
-0.000216078
0.000553248
-0.000340285
0.00062717
-0.000350232
0.000585175
-0.00027102
0.000313115
-0.000173914
-0.000113991
-0.000111477
-0.000296332
-6.26614e-05
-0.000313989
-3.79166e-05
-0.00027696
-5.45654e-05
-0.000237737
-6.37393e-05
-0.000482919
-0.000378217
-6.29131e-06
-6.4841e-05
-2.89239e-05
-0.000133658
-1.44011e-05
-0.00019398
-2.68562e-07
-0.000147742
6.27056e-06
-9.64979e-05
-1.67171e-06
7.97898e-06
-1.92516e-05
0.000220283
-5.21896e-05
0.000482085
-0.000133875
0.000634933
-0.000217339
0.000710635
-0.000226586
0.000594421
-0.000140261
0.000226791
-5.94214e-05
-0.000194831
-6.73265e-06
-0.000349021
1.56041e-05
-0.000336326
3.52899e-05
-0.000296646
4.82163e-05
-0.000250663
-1.30991e-05
-0.000421604
-0.000391316
1.13443e-05
-7.61853e-05
-2.56722e-06
-0.000119746
-1.14385e-05
-0.000185108
-8.36461e-06
-0.000150816
-1.43721e-05
-9.04903e-05
-3.14361e-05
2.50429e-05
-4.10574e-05
0.000229904
-3.56601e-05
0.000476687
-3.04055e-05
0.000629678
-6.05967e-05
0.000740826
-6.09676e-05
0.000594792
2.17083e-05
0.000144115
6.5924e-05
-0.000239046
8.46925e-05
-0.000367789
8.35896e-05
-0.000335223
7.43257e-05
-0.000287383
6.89023e-05
-0.00024524
-2.11838e-06
-0.000350583
-0.000393435
1.86112e-05
-1.11409e-05
4.24993e-05
-3.29949e-05
6.02548e-05
-4.01799e-05
6.2703e-05
-3.15555e-05
5.55391e-05
-2.44978e-05
4.76254e-05
-2.27427e-05
4.34268e-05
-2.17721e-05
4.31236e-05
-1.89798e-05
4.5119e-05
-1.51498e-05
4.79519e-05
-1.14092e-05
5.06939e-05
-8.02268e-06
5.28045e-05
-4.83177e-06
5.41232e-05
-1.80592e-06
5.44063e-05
1.19922e-06
5.41633e-05
3.93352e-06
5.38825e-05
6.30915e-06
5.4446e-05
7.8847e-06
5.57449e-05
1.0066e-05
5.77384e-05
1.29805e-05
6.09693e-05
1.57162e-05
6.74664e-05
1.93718e-05
8.04743e-05
2.2102e-05
3.35805e-05
0.000111939
2.84294e-05
-3.95703e-05
5.73561e-05
-6.19216e-05
6.58386e-05
-4.86624e-05
4.96713e-05
-1.53882e-05
3.45473e-05
-9.37381e-06
2.59807e-05
-1.41761e-05
2.14295e-05
-1.72209e-05
2.17432e-05
-1.92935e-05
2.77903e-05
-2.11969e-05
3.68978e-05
-2.05167e-05
4.59055e-05
-1.70304e-05
5.32223e-05
-1.21486e-05
5.78404e-05
-6.42401e-06
5.9948e-05
-9.08381e-07
5.94704e-05
4.41114e-06
5.84366e-05
7.34298e-06
5.88806e-05
7.44066e-06
5.96474e-05
9.29914e-06
6.15072e-05
1.11208e-05
6.58508e-05
1.13726e-05
7.34931e-05
1.17294e-05
8.44656e-05
1.11295e-05
1.13933e-05
0.000106653
4.14546e-05
-8.10249e-05
2.77596e-05
-4.82266e-05
-2.06021e-05
-3.00579e-07
-5.5563e-05
1.95728e-05
-5.58508e-05
-9.08601e-06
-6.32068e-05
-6.82005e-06
-8.15704e-05
1.14265e-06
-8.9679e-05
-1.11849e-05
-7.72807e-05
-3.35952e-05
-4.67135e-05
-5.10839e-05
-2.29166e-05
-4.08273e-05
-1.13064e-06
-3.39346e-05
1.9101e-05
-2.66556e-05
3.45487e-05
-1.63561e-05
4.65868e-05
-7.62692e-06
5.7735e-05
-3.80523e-06
6.44593e-05
7.16343e-07
6.41998e-05
9.55864e-06
6.30287e-05
1.22919e-05
6.52791e-05
9.12226e-06
6.94999e-05
7.50867e-06
7.51928e-05
5.4366e-06
-5.5323e-07
8.71393e-05
-1.89279e-05
-6.20969e-05
-2.81849e-05
-3.89694e-05
-4.15091e-05
1.30237e-05
-2.85606e-05
6.62442e-06
-2.32968e-05
-1.43499e-05
-2.61352e-05
-3.98159e-06
-3.02242e-05
5.23158e-06
-3.89724e-05
-2.43683e-06
-5.906e-05
-1.35077e-05
-9.09917e-05
-1.91523e-05
-0.000118973
-1.28459e-05
-0.00013803
-1.48777e-05
-0.000140219
-2.44665e-05
-0.000117491
-3.90843e-05
-7.5975e-05
-4.91428e-05
-1.72488e-05
-6.25314e-05
1.8155e-05
-3.46874e-05
3.95006e-05
-1.1787e-05
5.40518e-05
-2.25926e-06
6.66416e-05
-3.4676e-06
7.31777e-05
9.72588e-07
7.79571e-05
6.57217e-07
-5.38925e-06
8.27931e-05
-3.32004e-05
-2.88965e-05
-3.96552e-05
-3.25144e-05
-1.69692e-05
-9.66219e-06
-5.60294e-06
-4.74172e-06
-1.06541e-05
-9.29868e-06
-1.08983e-05
-3.73738e-06
-5.73236e-06
6.5626e-08
-5.24816e-06
-2.9211e-06
-1.03759e-05
-8.38007e-06
-1.9918e-05
-9.61027e-06
-3.3132e-05
3.67969e-07
-5.35241e-05
5.51433e-06
-7.4055e-05
-3.93551e-06
-8.32629e-05
-2.98764e-05
-7.80816e-05
-5.43241e-05
-8.36859e-05
-5.69271e-05
-8.27075e-05
-3.56659e-05
-4.60912e-05
-4.84033e-05
1.82192e-06
-5.01724e-05
2.52647e-05
-2.69104e-05
3.9448e-05
-1.32107e-05
5.63997e-05
-1.62945e-05
-2.45302e-05
7.55407e-05
-1.4716e-05
-1.41803e-05
-1.68907e-05
-3.03396e-05
-1.31319e-05
-1.34209e-05
-9.9152e-06
-7.95832e-06
-1.17206e-05
-7.49327e-06
-1.15345e-05
-3.92341e-06
-9.87844e-06
-1.59046e-06
-9.69517e-06
-3.1044e-06
-1.02056e-05
-7.86969e-06
-8.31642e-06
-1.14995e-05
-2.19653e-07
-7.72884e-06
8.16425e-07
4.47825e-06
-1.06187e-05
7.49961e-06
-1.88294e-05
-2.16656e-05
-1.85269e-05
-5.46265e-05
-2.14499e-05
-5.40041e-05
-1.96351e-05
-3.74806e-05
-2.40099e-05
-4.40285e-05
-3.39113e-05
-4.0271e-05
-3.73386e-05
-2.34831e-05
-2.84792e-05
-2.20702e-05
5.96621e-06
-5.07399e-05
-4.96382e-05
3.10742e-05
-7.86307e-06
-6.31714e-06
-1.14648e-05
-2.67377e-05
-1.08475e-05
-1.4038e-05
-9.58553e-06
-9.22025e-06
-9.83658e-06
-7.24216e-06
-8.83173e-06
-4.92823e-06
-7.44698e-06
-2.97521e-06
-7.19384e-06
-3.35755e-06
-8.53837e-06
-6.52519e-06
-9.71638e-06
-1.03215e-05
-6.61846e-06
-1.08268e-05
3.94181e-06
-6.082e-06
1.22731e-05
-8.3166e-07
7.79003e-06
-1.71825e-05
-2.05844e-06
-4.4778e-05
-6.61347e-06
-4.94491e-05
-8.84964e-07
-4.32092e-05
5.07889e-06
-4.99925e-05
1.71832e-05
-5.23754e-05
4.60396e-05
-5.23396e-05
7.5086e-05
-5.11167e-05
7.89889e-05
-5.46428e-05
-2.50624e-05
5.44131e-05
-5.70723e-06
-6.09809e-07
-8.21998e-06
-2.42249e-05
-8.01355e-06
-1.42444e-05
-7.4725e-06
-9.76124e-06
-6.88685e-06
-7.82777e-06
-5.72001e-06
-6.09505e-06
-4.34205e-06
-4.35316e-06
-3.80443e-06
-3.89518e-06
-4.6795e-06
-5.65013e-06
-6.04809e-06
-8.95296e-06
-5.08846e-06
-1.17864e-05
1.56339e-06
-1.27338e-05
1.19163e-05
-1.11845e-05
1.5409e-05
-2.06751e-05
8.6591e-06
-3.80282e-05
3.42327e-06
-4.42133e-05
4.56843e-06
-4.43544e-05
7.54731e-06
-5.29714e-05
1.59947e-05
-6.08229e-05
3.07682e-05
-6.71131e-05
5.4141e-05
-7.44896e-05
7.11591e-05
-7.16609e-05
-3.60421e-05
8.2139e-05
-4.0615e-06
3.45177e-06
-5.81693e-06
-2.24694e-05
-5.83834e-06
-1.42229e-05
-5.63667e-06
-9.96289e-06
-5.06705e-06
-8.39738e-06
-3.9981e-06
-7.16399e-06
-2.50365e-06
-5.84761e-06
-1.22321e-06
-5.17563e-06
-8.51266e-07
-6.02207e-06
-1.30093e-06
-8.5033e-06
-1.36404e-06
-1.17233e-05
1.07065e-06
-1.51685e-05
8.27695e-06
-1.83908e-05
1.28927e-05
-2.52909e-05
1.0355e-05
-3.54905e-05
7.7972e-06
-4.16557e-05
8.41729e-06
-4.49746e-05
8.31902e-06
-5.28732e-05
1.10609e-05
-6.35648e-05
1.59794e-05
-7.20317e-05
2.43016e-05
-8.28119e-05
3.33951e-05
-8.07544e-05
-5.41101e-05
5.14632e-05
-2.53531e-06
5.98712e-06
-3.94964e-06
-2.1055e-05
-4.30227e-06
-1.38703e-05
-4.25555e-06
-1.00096e-05
-3.82417e-06
-8.82879e-06
-2.91991e-06
-8.06828e-06
-1.46466e-06
-7.30288e-06
2.46888e-07
-6.88722e-06
1.71016e-06
-7.48537e-06
2.63534e-06
-9.42849e-06
3.4004e-06
-1.24883e-05
4.53053e-06
-1.62986e-05
7.02493e-06
-2.08853e-05
8.28233e-06
-2.65484e-05
6.4854e-06
-3.36937e-05
3.91048e-06
-3.90808e-05
2.42402e-06
-4.34883e-05
3.26451e-07
-5.07758e-05
-1.8986e-06
-6.13398e-05
-2.31359e-06
-7.16167e-05
-2.61407e-06
-8.25114e-05
-9.71566e-07
-8.23968e-05
-6.43321e-05
9.2505e-06
-1.5071e-06
7.49422e-06
-2.70492e-06
-1.98573e-05
-3.18078e-06
-1.33945e-05
-3.26187e-06
-9.92859e-06
-2.99166e-06
-9.09905e-06
-2.33013e-06
-8.72986e-06
-1.18344e-06
-8.44964e-06
3.74404e-07
-8.44511e-06
2.00543e-06
-9.11644e-06
3.34362e-06
-1.07667e-05
4.30108e-06
-1.34458e-05
4.94437e-06
-1.69419e-05
5.19106e-06
-2.1132e-05
4.55666e-06
-2.59141e-05
2.12323e-06
-3.12603e-05
-9.46431e-07
-3.60113e-05
-4.02786e-06
-4.04069e-05
-7.95479e-06
-4.68489e-05
-1.27645e-05
-5.65301e-05
-1.71403e-05
-6.72409e-05
-2.34673e-05
-7.61844e-05
-2.92574e-05
-7.66066e-05
-6.35653e-05
-3.00242e-05
-8.69186e-07
8.36337e-06
-1.90643e-06
-1.88201e-05
-2.43686e-06
-1.28641e-05
-2.63067e-06
-9.73485e-06
-2.54258e-06
-9.18721e-06
-2.17002e-06
-9.1025e-06
-1.46331e-06
-9.15641e-06
-4.25157e-07
-9.48335e-06
7.48849e-07
-1.02905e-05
1.7706e-06
-1.17885e-05
2.37398e-06
-1.40492e-05
2.4228e-06
-1.69907e-05
1.77642e-06
-2.04856e-05
2.23671e-07
-2.43614e-05
-2.42313e-06
-2.86136e-05
-5.6126e-06
-3.28218e-05
-9.08623e-06
-3.69333e-05
-1.36918e-05
-4.22433e-05
-2.03559e-05
-4.9866e-05
-2.86219e-05
-5.8975e-05
-3.81943e-05
-6.66121e-05
-4.64837e-05
-6.83172e-05
-6.09063e-05
-4.91426e-05
-4.95043e-07
8.85836e-06
-1.41488e-06
-1.79004e-05
-1.99703e-06
-1.2282e-05
-2.29419e-06
-9.43776e-06
-2.37593e-06
-9.10554e-06
-2.2694e-06
-9.2091e-06
-1.97371e-06
-9.45219e-06
-1.50403e-06
-9.95311e-06
-9.59593e-07
-1.0835e-05
-5.44386e-07
-1.22037e-05
-4.83769e-07
-1.41098e-05
-9.49969e-07
-1.65245e-05
-2.06472e-06
-1.93709e-05
-3.87369e-06
-2.25524e-05
-6.43344e-06
-2.60538e-05
-9.56986e-06
-2.96854e-05
-1.30962e-05
-3.3407e-05
-1.77394e-05
-3.76002e-05
-2.50001e-05
-4.26053e-05
-3.55607e-05
-4.84143e-05
-4.84003e-05
-5.37724e-05
-6.07495e-05
-5.59679e-05
-5.23876e-05
-6.92682e-05
-3.15673e-07
9.17397e-06
-1.14861e-06
-1.70675e-05
-1.76887e-06
-1.16618e-05
-2.16411e-06
-9.04256e-06
-2.39946e-06
-8.87024e-06
-2.51712e-06
-9.09151e-06
-2.54264e-06
-9.42672e-06
-2.51284e-06
-9.98297e-06
-2.49967e-06
-1.08482e-05
-2.63154e-06
-1.20718e-05
-3.05706e-06
-1.36842e-05
-3.90826e-06
-1.56733e-05
-5.27748e-06
-1.80016e-05
-7.21522e-06
-2.06146e-05
-9.82052e-06
-2.34485e-05
-1.30805e-05
-2.64255e-05
-1.6948e-05
-2.95394e-05
-2.17146e-05
-3.28336e-05
-2.81528e-05
-3.61672e-05
-3.7265e-05
-3.93021e-05
-4.93393e-05
-4.16982e-05
-6.30529e-05
-4.22542e-05
-3.96825e-05
-7.57581e-05
-2.57086e-07
9.43102e-06
-1.03839e-06
-1.62862e-05
-1.69453e-06
-1.10057e-05
-2.17478e-06
-8.56232e-06
-2.54611e-06
-8.49893e-06
-2.84967e-06
-8.78798e-06
-3.11718e-06
-9.15925e-06
-3.3935e-06
-9.70667e-06
-3.74319e-06
-1.04985e-05
-4.2494e-06
-1.15656e-05
-5.01333e-06
-1.29202e-05
-6.13002e-06
-1.45565e-05
-7.68649e-06
-1.6445e-05
-9.76061e-06
-1.85404e-05
-1.24349e-05
-2.07742e-05
-1.57927e-05
-2.30676e-05
-1.99463e-05
-2.53859e-05
-2.50394e-05
-2.77405e-05
-3.11751e-05
-3.00314e-05
-3.85839e-05
-3.18932e-05
-4.76254e-05
-3.26567e-05
-5.8267e-05
-3.16126e-05
-2.83634e-05
-6.9586e-05
-2.67535e-07
9.69854e-06
-1.02635e-06
-1.55274e-05
-1.71967e-06
-1.03124e-05
-2.27461e-06
-8.00737e-06
-2.76172e-06
-8.01182e-06
-3.22013e-06
-8.32957e-06
-3.67764e-06
-8.70175e-06
-4.17488e-06
-9.20943e-06
-4.76788e-06
-9.90544e-06
-5.52377e-06
-1.08096e-05
-6.51722e-06
-1.19266e-05
-7.82521e-06
-1.32484e-05
-9.52192e-06
-1.47482e-05
-1.16756e-05
-1.63866e-05
-1.43515e-05
-1.80982e-05
-1.76074e-05
-1.98116e-05
-2.1529e-05
-2.14642e-05
-2.62612e-05
-2.30083e-05
-3.1944e-05
-2.43486e-05
-3.86136e-05
-2.52235e-05
-4.61245e-05
-2.51458e-05
-5.41151e-05
-2.3622e-05
-2.03973e-05
-6.20812e-05
-3.02928e-07
1.00015e-05
-1.06798e-06
-1.47624e-05
-1.80046e-06
-9.57989e-06
-2.42122e-06
-7.3866e-06
-3.00502e-06
-7.428e-06
-3.59049e-06
-7.74408e-06
-4.20095e-06
-8.09127e-06
-4.86932e-06
-8.54102e-06
-5.64213e-06
-9.13255e-06
-6.57532e-06
-9.87633e-06
-7.72941e-06
-1.07724e-05
-9.16783e-06
-1.18098e-05
-1.09548e-05
-1.29611e-05
-1.31449e-05
-1.41964e-05
-1.5794e-05
-1.54491e-05
-1.89499e-05
-1.66557e-05
-2.26631e-05
-1.7751e-05
-2.70036e-05
-1.86677e-05
-3.20436e-05
-1.93086e-05
-3.78068e-05
-1.94602e-05
-4.41631e-05
-1.87895e-05
-5.07589e-05
-1.70261e-05
-1.40445e-05
-5.71117e-05
-3.47892e-07
1.03494e-05
-1.13585e-06
-1.39744e-05
-1.90762e-06
-8.80814e-06
-2.58446e-06
-6.70977e-06
-3.24672e-06
-6.76573e-06
-3.93257e-06
-7.05819e-06
-4.662e-06
-7.3618e-06
-5.46243e-06
-7.74052e-06
-6.37086e-06
-8.22404e-06
-7.43225e-06
-8.81483e-06
-8.69685e-06
-9.50773e-06
-1.02162e-05
-1.02903e-05
-1.20346e-05
-1.11426e-05
-1.42087e-05
-1.20222e-05
-1.67748e-05
-1.2883e-05
-1.9769e-05
-1.36615e-05
-2.32279e-05
-1.4292e-05
-2.71839e-05
-1.47116e-05
-3.16511e-05
-1.48414e-05
-3.65908e-05
-1.45204e-05
-4.18805e-05
-1.34998e-05
-4.72961e-05
-1.16106e-05
-8.80966e-06
-5.25309e-05
-3.91017e-07
1.07404e-05
-1.2119e-06
-1.31536e-05
-2.01956e-06
-8.00055e-06
-2.74244e-06
-5.98692e-06
-3.46648e-06
-6.0417e-06
-4.22854e-06
-6.29609e-06
-5.04627e-06
-6.54402e-06
-5.9413e-06
-6.84542e-06
-6.94535e-06
-7.21992e-06
-8.09318e-06
-7.66692e-06
-9.4214e-06
-8.17942e-06
-1.09727e-05
-8.73889e-06
-1.27909e-05
-9.32444e-06
-1.49044e-05
-9.90859e-06
-1.73488e-05
-1.04385e-05
-2.01473e-05
-1.08629e-05
-2.33132e-05
-1.11261e-05
-2.6864e-05
-1.11608e-05
-3.07937e-05
-1.09117e-05
-3.50532e-05
-1.02609e-05
-3.95269e-05
-9.02619e-06
-4.40416e-05
-7.0958e-06
-4.4741e-06
-4.83772e-05
-4.23883e-07
1.11642e-05
-1.28312e-06
-1.22945e-05
-2.12205e-06
-7.16171e-06
-2.88076e-06
-5.22825e-06
-3.65092e-06
-5.27154e-06
-4.46766e-06
-5.47932e-06
-5.34479e-06
-5.66684e-06
-6.3021e-06
-5.88804e-06
-7.36391e-06
-6.15805e-06
-8.559e-06
-6.4718e-06
-9.91923e-06
-6.81917e-06
-1.14742e-05
-7.1839e-06
-1.32498e-05
-7.54876e-06
-1.52812e-05
-7.87723e-06
-1.75856e-05
-8.13406e-06
-2.0177e-05
-8.27142e-06
-2.3066e-05
-8.237e-06
-2.6248e-05
-7.97881e-06
-2.97036e-05
-7.45597e-06
-3.33787e-05
-6.58585e-06
-3.71784e-05
-5.22651e-06
-4.09712e-05
-3.30305e-06
-8.5082e-07
-4.45945e-05
-4.43557e-07
1.16077e-05
-1.342e-06
-1.13963e-05
-2.20647e-06
-6.29734e-06
-2.99079e-06
-4.44396e-06
-3.7934e-06
-4.46893e-06
-4.64607e-06
-4.62663e-06
-5.56101e-06
-4.75187e-06
-6.55459e-06
-4.89444e-06
-7.64733e-06
-5.06531e-06
-8.85977e-06
-5.25937e-06
-1.02169e-05
-5.46203e-06
-1.17425e-05
-5.65838e-06
-1.3462e-05
-5.82925e-06
-1.53934e-05
-5.94584e-06
-1.75497e-05
-5.97774e-06
-1.99365e-05
-5.88453e-06
-2.25559e-05
-5.61754e-06
-2.53953e-05
-5.13947e-06
-2.84347e-05
-4.41656e-06
-3.16226e-05
-3.39797e-06
-3.48724e-05
-1.97674e-06
-3.80826e-05
-9.29359e-08
2.19549e-06
-4.11289e-05
-4.49778e-07
1.20574e-05
-1.38392e-06
-1.04623e-05
-2.26459e-06
-5.41673e-06
-3.06459e-06
-3.64399e-06
-3.88596e-06
-3.64754e-06
-4.75933e-06
-3.75324e-06
-5.69312e-06
-3.81808e-06
-6.70064e-06
-3.88694e-06
-7.7983e-06
-3.96768e-06
-9.00549e-06
-4.05224e-06
-1.03402e-05
-4.1274e-06
-1.18203e-05
-4.17833e-06
-1.3464e-05
-4.18556e-06
-1.52846e-05
-4.12522e-06
-1.72905e-05
-3.97185e-06
-1.94807e-05
-3.6943e-06
-2.18503e-05
-3.24793e-06
-2.43871e-05
-2.60261e-06
-2.70638e-05
-1.73996e-06
-2.98407e-05
-6.21064e-07
-3.26395e-05
8.22039e-07
-3.53865e-05
2.65405e-06
4.80984e-06
-3.80009e-05
-4.45791e-07
1.25031e-05
-1.40491e-06
-9.50324e-06
-2.29211e-06
-4.52956e-06
-3.0985e-06
-2.8376e-06
-3.9282e-06
-2.81783e-06
-4.80838e-06
-2.87307e-06
-5.74557e-06
-2.88091e-06
-6.75059e-06
-2.88197e-06
-7.83714e-06
-2.8812e-06
-9.02015e-06
-2.86932e-06
-1.03141e-05
-2.83357e-06
-1.17329e-05
-2.75961e-06
-1.32895e-05
-2.62893e-06
-1.49924e-05
-2.42235e-06
-1.68449e-05
-2.11934e-06
-1.88472e-05
-1.69194e-06
-2.09883e-05
-1.10686e-06
-2.32535e-05
-3.37404e-07
-2.56206e-05
6.27128e-07
-2.80506e-05
1.80887e-06
-3.04897e-05
3.26109e-06
-3.28732e-05
5.03759e-06
7.08871e-06
-3.51521e-05
-4.32372e-07
1.29354e-05
-1.40021e-06
-8.53544e-06
-2.28318e-06
-3.64659e-06
-3.08759e-06
-2.0332e-06
-3.91553e-06
-1.98991e-06
-4.79111e-06
-1.99751e-06
-5.71926e-06
-1.95282e-06
-6.70907e-06
-1.89222e-06
-7.77196e-06
-1.81839e-06
-8.91963e-06
-1.72174e-06
-1.01621e-05
-1.59117e-06
-1.15097e-05
-1.41215e-06
-1.2971e-05
-1.16768e-06
-1.45522e-05
-8.41117e-07
-1.6257e-05
-4.14563e-07
-1.80817e-05
1.32779e-07
-2.00145e-05
8.25973e-07
-2.20412e-05
1.68932e-06
-2.4146e-05
2.73182e-06
-2.62904e-05
3.95333e-06
-2.84309e-05
5.4016e-06
-3.05189e-05
7.12556e-06
9.09046e-06
-3.25206e-05
-4.09724e-07
1.33451e-05
-1.36738e-06
-7.57778e-06
-2.23327e-06
-2.78068e-06
-3.02815e-06
-1.23831e-06
-3.84504e-06
-1.17304e-06
-4.70579e-06
-1.13679e-06
-5.61411e-06
-1.04457e-06
-6.57749e-06
-9.28908e-07
-7.60496e-06
-7.90993e-07
-8.70534e-06
-6.21459e-07
-9.88744e-06
-4.09156e-07
-1.11595e-05
-1.40208e-07
-1.25275e-05
2.00309e-07
-1.39896e-05
6.21018e-07
-1.55537e-05
1.14953e-06
-1.7214e-05
1.7931e-06
-1.89574e-05
2.56938e-06
-2.07775e-05
3.50948e-06
-2.26493e-05
4.60359e-06
-2.45549e-05
5.85902e-06
-2.64475e-05
7.29422e-06
-2.82927e-05
8.97073e-06
1.08815e-05
-3.00837e-05
-3.74616e-07
1.37197e-05
-1.30389e-06
-6.64847e-06
-2.14313e-06
-1.94142e-06
-2.91988e-06
-4.61559e-07
-3.71677e-06
-3.76161e-07
-4.55332e-06
-3.00282e-07
-5.4327e-06
-1.65223e-07
-6.36128e-06
-3.92035e-10
-7.34622e-06
1.93872e-07
-8.39419e-06
4.26435e-07
-9.51171e-06
7.08274e-07
-1.07038e-05
1.05183e-06
-1.19735e-05
1.47004e-06
-1.33259e-05
1.97341e-06
-1.47559e-05
2.57952e-06
-1.62627e-05
3.30001e-06
-1.78417e-05
4.14834e-06
-1.94697e-05
5.13752e-06
-2.11476e-05
6.28149e-06
-2.28466e-05
7.55804e-06
-2.45417e-05
8.98936e-06
-2.6188e-05
1.0617e-05
1.24936e-05
-2.78001e-05
-3.21288e-07
1.4041e-05
-1.21203e-06
-5.7577e-06
-2.0169e-06
-1.13652e-06
-2.76654e-06
2.88082e-07
-3.53414e-06
3.91432e-07
-4.33696e-06
5.02515e-07
-5.17794e-06
6.75733e-07
-6.06265e-06
8.84261e-07
-6.99732e-06
1.12848e-06
-7.98676e-06
1.41581e-06
-9.03595e-06
1.7574e-06
-1.01477e-05
2.16354e-06
-1.13229e-05
2.6453e-06
-1.25634e-05
3.21394e-06
-1.38709e-05
3.8871e-06
-1.52394e-05
4.66853e-06
-1.66586e-05
5.56764e-06
-1.81316e-05
6.61055e-06
-1.96342e-05
7.78411e-06
-2.11626e-05
9.08656e-06
-2.26845e-05
1.05113e-05
-2.41791e-05
1.21115e-05
1.39636e-05
-2.56491e-05
-2.48127e-07
1.42891e-05
-1.09678e-06
-4.90904e-06
-1.86231e-06
-3.70977e-07
-2.57773e-06
1.0035e-06
-3.3057e-06
1.11939e-06
-4.06433e-06
1.26114e-06
-4.85708e-06
1.46845e-06
-5.68884e-06
1.71596e-06
-6.56356e-06
2.00313e-06
-7.48576e-06
2.33795e-06
-8.45845e-06
2.73008e-06
-9.48408e-06
3.1892e-06
-1.05652e-05
3.72655e-06
-1.16957e-05
4.34455e-06
-1.28832e-05
5.07467e-06
-1.41206e-05
5.90593e-06
-1.54031e-05
6.85022e-06
-1.67215e-05
7.92904e-06
-1.8075e-05
9.13763e-06
-1.94471e-05
1.04587e-05
-2.08339e-05
1.18982e-05
-2.22042e-05
1.34819e-05
1.53118e-05
-2.35524e-05
-1.43622e-07
1.44328e-05
-9.65795e-07
-4.08687e-06
-1.68975e-06
3.52977e-07
-2.36295e-06
1.67669e-06
-3.04236e-06
1.79878e-06
-3.75109e-06
1.96985e-06
-4.48421e-06
2.20151e-06
-5.25241e-06
2.4841e-06
-6.05768e-06
2.80835e-06
-6.90367e-06
3.18393e-06
-7.78573e-06
3.61217e-06
-8.7194e-06
4.12297e-06
-9.69425e-06
4.70154e-06
-1.07193e-05
5.36974e-06
-1.17811e-05
6.13653e-06
-1.2885e-05
7.00994e-06
-1.40321e-05
7.99737e-06
-1.51987e-05
9.0957e-06
-1.64002e-05
1.03392e-05
-1.76341e-05
1.16927e-05
-1.88884e-05
1.31526e-05
-2.01382e-05
1.47317e-05
1.65668e-05
-2.13932e-05
-1.92651e-08
1.4452e-05
-8.28517e-07
-3.27763e-06
-1.51479e-06
1.03922e-06
-2.13742e-06
2.29928e-06
-2.76359e-06
2.42492e-06
-3.41397e-06
2.62018e-06
-4.08276e-06
2.87024e-06
-4.77928e-06
3.18056e-06
-5.50423e-06
3.53326e-06
-6.2594e-06
3.93913e-06
-7.0521e-06
4.40497e-06
-7.87808e-06
4.94908e-06
-8.74221e-06
5.56583e-06
-9.63454e-06
6.26221e-06
-1.05667e-05
7.06879e-06
-1.15296e-05
7.97295e-06
-1.25199e-05
8.9878e-06
-1.35376e-05
1.01135e-05
-1.45754e-05
1.13771e-05
-1.56473e-05
1.27647e-05
-1.67366e-05
1.42419e-05
-1.78559e-05
1.5851e-05
1.76841e-05
-1.89732e-05
1.31511e-07
1.43205e-05
-6.90872e-07
-2.4553e-06
-1.34588e-06
1.69418e-06
-1.91596e-06
2.86932e-06
-2.48758e-06
2.9965e-06
-3.07492e-06
3.20748e-06
-3.68374e-06
3.479e-06
-4.3051e-06
3.80188e-06
-4.94668e-06
4.17484e-06
-5.61191e-06
4.60441e-06
-6.30521e-06
5.09839e-06
-7.02125e-06
5.66528e-06
-7.75649e-06
6.30121e-06
-8.52478e-06
7.03064e-06
-9.30671e-06
7.85084e-06
-1.01162e-05
8.78261e-06
-1.09379e-05
9.80963e-06
-1.17776e-05
1.09534e-05
-1.26136e-05
1.22132e-05
-1.34723e-05
1.36235e-05
-1.43601e-05
1.51297e-05
-1.52568e-05
1.67478e-05
1.85772e-05
-1.615e-05
2.91023e-07
1.40295e-05
-5.59851e-07
-1.60449e-06
-1.1918e-06
2.32608e-06
-1.72049e-06
3.39796e-06
-2.23893e-06
3.51492e-06
-2.77719e-06
3.7457e-06
-3.32196e-06
4.02374e-06
-3.87651e-06
4.35643e-06
-4.44258e-06
4.74093e-06
-5.02259e-06
5.18451e-06
-5.61705e-06
5.69297e-06
-6.22327e-06
6.27164e-06
-6.84974e-06
6.92782e-06
-7.48639e-06
7.66741e-06
-8.13317e-06
8.49775e-06
-8.77487e-06
9.42444e-06
-9.41934e-06
1.04542e-05
-1.00479e-05
1.15821e-05
-1.06854e-05
1.28507e-05
-1.12933e-05
1.42313e-05
-1.18888e-05
1.57252e-05
-1.24792e-05
1.73381e-05
1.91345e-05
-1.30365e-05
4.56582e-07
1.35728e-05
-4.44837e-07
-7.03146e-07
-1.06841e-06
2.9496e-06
-1.55687e-06
3.88639e-06
-2.03424e-06
3.99228e-06
-2.5318e-06
4.24326e-06
-3.03371e-06
4.52564e-06
-3.5348e-06
4.85753e-06
-4.03518e-06
5.24137e-06
-4.54878e-06
5.6982e-06
-5.06817e-06
6.2125e-06
-5.592e-06
6.79562e-06
-6.11845e-06
7.45442e-06
-6.64101e-06
8.1901e-06
-7.15552e-06
9.0124e-06
-7.65741e-06
9.92646e-06
-8.13565e-06
1.09326e-05
-8.59538e-06
1.20419e-05
-9.00545e-06
1.32608e-05
-9.3624e-06
1.45882e-05
-9.64787e-06
1.60106e-05
-9.88056e-06
1.75707e-05
1.92791e-05
-1.00253e-05
6.17643e-07
1.29552e-05
-3.44229e-07
2.58667e-07
-9.66165e-07
3.57148e-06
-1.42211e-06
4.34232e-06
-1.88674e-06
4.45691e-06
-2.35008e-06
4.70662e-06
-2.81409e-06
4.98966e-06
-3.27827e-06
5.32173e-06
-3.74803e-06
5.71118e-06
-4.21345e-06
6.16372e-06
-4.67852e-06
6.6777e-06
-5.13988e-06
7.25713e-06
-5.59398e-06
7.90867e-06
-6.03923e-06
8.63549e-06
-6.46606e-06
9.43935e-06
-6.86212e-06
1.03226e-05
-7.22209e-06
1.12926e-05
-7.53044e-06
1.23502e-05
-7.76917e-06
1.34995e-05
-7.90428e-06
1.47233e-05
-7.96064e-06
1.60669e-05
-7.882e-06
1.7492e-05
1.90375e-05
-7.64047e-06
7.54002e-07
1.22011e-05
-2.67619e-07
1.28023e-06
-8.8186e-07
4.18568e-06
-1.31876e-06
4.77922e-06
-1.7666e-06
4.90476e-06
-2.20976e-06
5.1498e-06
-2.64936e-06
5.42929e-06
-3.09176e-06
5.76415e-06
-3.5308e-06
6.15026e-06
-3.96623e-06
6.59923e-06
-4.3985e-06
7.11008e-06
-4.82496e-06
7.68371e-06
-5.23932e-06
8.32315e-06
-5.6377e-06
9.03398e-06
-6.00795e-06
9.80969e-06
-6.34197e-06
1.06567e-05
-6.62856e-06
1.15792e-05
-6.84948e-06
1.25711e-05
-6.98183e-06
1.36318e-05
-7.01973e-06
1.47611e-05
-6.91132e-06
1.59584e-05
-6.63911e-06
1.72197e-05
1.85659e-05
-6.16765e-06
8.50469e-07
1.13506e-05
-2.01505e-07
2.33214e-06
-8.008e-07
4.78495e-06
-1.21537e-06
5.19379e-06
-1.6488e-06
5.33822e-06
-2.0708e-06
5.57182e-06
-2.49178e-06
5.85027e-06
-2.90805e-06
6.18042e-06
-3.32423e-06
6.56647e-06
-3.7377e-06
7.01277e-06
-4.14495e-06
7.51746e-06
-4.54761e-06
8.08651e-06
-4.93331e-06
8.70897e-06
-5.30177e-06
9.40252e-06
-5.64507e-06
1.0153e-05
-5.94441e-06
1.0956e-05
-6.19815e-06
1.18329e-05
-6.384e-06
1.27569e-05
-6.47831e-06
1.3726e-05
-6.47245e-06
1.47551e-05
-6.31685e-06
1.58027e-05
-5.9923e-06
1.68951e-05
1.8027e-05
-5.45344e-06
9.06611e-07
1.0444e-05
-1.47209e-07
3.3859e-06
-7.09736e-07
5.34748e-06
-1.10046e-06
5.58454e-06
-1.50355e-06
5.74131e-06
-1.90143e-06
5.96967e-06