/*--------------------------------*- C++ -*----------------------------------*\
| =========                 |                                                 |
| \\      /  F ield         | OpenFOAM: The Open Source CFD Toolbox           |
|  \\    /   O peration     | Version:  5.x                                   |
|   \\  /    A nd           | Web:      www.OpenFOAM.org                      |
|    \\/     M anipulation  |                                                 |
\*---------------------------------------------------------------------------*/
FoamFile
{
    version     2.0;
    format      ascii;
    class       volVectorField;
    location    "0.5";
    object      U;
}
// * * * * * * * * * * * * * * * * * * * * * * * * * * * * * * * * * * * * * //

dimensions      [0 1 -1 0 0 0 0];

internalField   nonuniform List<vector> 
2268
(
(-0.0317751 0.0103527 0)
(-0.0609748 0.00468744 0)
(-0.0554198 -0.00527999 0)
(-0.0163898 -0.011362 0)
(0.0408782 -0.0147583 0)
(0.104804 -0.0150632 0)
(0.165233 -0.0129208 0)
(0.214325 -0.00963522 0)
(0.248868 -0.00635262 0)
(0.269995 -0.00360158 0)
(0.280587 -0.00145258 0)
(0.283549 0.000511709 0)
(0.279056 0.00245983 0)
(0.267587 0.00484885 0)
(0.247708 0.00831632 0)
(0.216039 0.0134567 0)
(0.165937 0.0201668 0)
(0.0946613 0.0253093 0)
(-0.00676807 0.0138476 0)
(-0.0333329 0.006624 0)
(-0.154985 0.0280728 0)
(-0.231127 -0.000757613 0)
(-0.0799732 -0.0531671 0)
(-0.0413109 0.0312386 0)
(-0.0583589 0.0105451 0)
(-0.050422 -0.0167737 0)
(-0.0105726 -0.0345828 0)
(0.0461008 -0.0444887 0)
(0.109279 -0.0453343 0)
(0.168769 -0.0389114 0)
(0.216737 -0.0291138 0)
(0.250296 -0.0193744 0)
(0.270937 -0.0112733 0)
(0.281813 -0.00500029 0)
(0.285506 2.82761e-05 0)
(0.28548 0.00434701 0)
(0.282996 0.00880717 0)
(0.279062 0.0146569 0)
(0.273771 0.0235752 0)
(0.262486 0.0368907 0)
(0.235664 0.0543243 0)
(0.156391 0.058104 0)
(0.0649209 0.0565825 0)
(-0.120848 0.0614114 0)
(-0.140328 -0.0121395 0)
(-0.030038 -0.123181 0)
(-0.036835 0.051459 0)
(-0.048293 0.0141357 0)
(-0.0397395 -0.0286657 0)
(-0.00165904 -0.0569595 0)
(0.0519337 -0.0731585 0)
(0.11304 -0.0746782 0)
(0.170761 -0.063895 0)
(0.216527 -0.047525 0)
(0.247791 -0.0314868 0)
(0.266778 -0.0183568 0)
(0.276956 -0.00834246 0)
(0.280971 -0.000871331 0)
(0.280439 0.00495733 0)
(0.276434 0.0101556 0)
(0.269859 0.0160954 0)
(0.262354 0.0249908 0)
(0.25646 0.0398052 0)
(0.257496 0.0647638 0)
(0.241011 0.0903151 0)
(0.191019 0.113951 0)
(0.0567061 0.111764 0)
(-0.0300459 -0.0166838 0)
(0.0305893 -0.146458 0)
(-0.0294265 0.067926 0)
(-0.0343339 0.0162935 0)
(-0.0240219 -0.0400963 0)
(0.00913448 -0.0768591 0)
(0.0574273 -0.0999266 0)
(0.115371 -0.103013 0)
(0.171001 -0.0879146 0)
(0.214434 -0.0647279 0)
(0.243254 -0.0425267 0)
(0.260514 -0.0248865 0)
(0.270143 -0.0117275 0)
(0.274754 -0.00189938 0)
(0.27569 0.00583657 0)
(0.273607 0.0126937 0)
(0.268831 0.0199514 0)
(0.261789 0.0291869 0)
(0.253541 0.0423935 0)
(0.250603 0.064548 0)
(0.257337 0.0974629 0)
(0.264237 0.1413 0)
(0.216327 0.155276 0)
(0.142619 0.019362 0)
(0.0984874 -0.109092 0)
(-0.0208336 0.0785505 0)
(-0.0141877 0.0153216 0)
(-0.00194495 -0.0499278 0)
(0.0268859 -0.0942642 0)
(0.0696794 -0.124722 0)
(0.121721 -0.130141 0)
(0.172033 -0.110902 0)
(0.211031 -0.0808209 0)
(0.236638 -0.0525221 0)
(0.252334 -0.0307245 0)
(0.261978 -0.0149677 0)
(0.267765 -0.00341225 0)
(0.270629 0.00564891 0)
(0.270979 0.0137649 0)
(0.269026 0.0222511 0)
(0.265028 0.0324317 0)
(0.259597 0.0455244 0)
(0.254678 0.0641082 0)
(0.257157 0.0915529 0)
(0.2816 0.136759 0)
(0.298151 0.166065 0)
(0.246016 0.0747224 0)
(0.15206 -0.0442564 0)
(-0.0107644 0.0826365 0)
(0.0142862 0.0107434 0)
(0.0322267 -0.0603789 0)
(0.0649422 -0.110861 0)
(0.104562 -0.14674 0)
(0.144702 -0.153468 0)
(0.181816 -0.130323 0)
(0.210817 -0.0946752 0)
(0.230236 -0.0618211 0)
(0.243306 -0.0368299 0)
(0.253086 -0.0188311 0)
(0.260672 -0.00562514 0)
(0.266152 0.00457496 0)
(0.269344 0.0136703 0)
(0.270167 0.0230193 0)
(0.268883 0.0339277 0)
(0.266549 0.0473678 0)
(0.264776 0.0648448 0)
(0.2645 0.0864798 0)
(0.278334 0.120896 0)
(0.315197 0.157212 0)
(0.288267 0.117529 0)
(0.181941 0.0560673 0)
(0.00236873 0.0756741 0)
(0.0489791 -0.00463148 0)
(0.0867914 -0.0755879 0)
(0.136333 -0.126333 0)
(0.172569 -0.162456 0)
(0.190923 -0.167839 0)
(0.205395 -0.141281 0)
(0.219149 -0.102236 0)
(0.229672 -0.0677971 0)
(0.238254 -0.0424808 0)
(0.246644 -0.0242357 0)
(0.254876 -0.010077 0)
(0.262396 0.00218153 0)
(0.268507 0.0124432 0)
(0.272414 0.0228739 0)
(0.273923 0.0340527 0)
(0.27401 0.0469805 0)
(0.27482 0.0638068 0)
(0.277092 0.0839915 0)
(0.281227 0.109782 0)
(0.309276 0.147423 0)
(0.303067 0.152115 0)
(0.217643 0.157223 0)
(0.0163956 0.0581245 0)
(0.0860062 -0.0252309 0)
(0.164621 -0.0961143 0)
(0.236955 -0.144306 0)
(0.259826 -0.171452 0)
(0.245613 -0.171056 0)
(0.233676 -0.143261 0)
(0.233507 -0.103168 0)
(0.237645 -0.0678687 0)
(0.243433 -0.042958 0)
(0.250421 -0.0262574 0)
(0.257806 -0.0139949 0)
(0.264175 -0.00316948 0)
(0.26976 0.008203 0)
(0.274724 0.0212863 0)
(0.278225 0.0352436 0)
(0.281222 0.0489289 0)
(0.28484 0.0643308 0)
(0.290504 0.0829292 0)
(0.295143 0.103926 0)
(0.30909 0.140392 0)
(0.318641 0.184467 0)
(0.212695 0.313583 0)
(0.409403 -0.339684 0)
(1.73397 -0.298783 0)
(2.21258 0.126996 0)
(1.76192 0.133366 0)
(1.827 0.10489 0)
(1.72064 0.190341 0)
(1.10265 0.309476 0)
(-0.0494674 0.0743433 0)
(0.128392 -0.174077 0)
(0.672746 -0.193744 0)
(0.802715 -0.0963355 0)
(-0.910755 0.417318 0)
(-3.40792 0.561756 0)
(-5.1388 0.371859 0)
(-5.48608 -0.0790553 0)
(-4.54947 -0.333297 0)
(-3.45139 -0.388677 0)
(-1.63164 -0.589533 0)
(-0.306831 -0.450195 0)
(0.0920282 -0.686497 0)
(0.633124 -0.519039 0)
(1.09599 -0.075156 0)
(1.10221 -0.0263 0)
(1.12583 -0.141291 0)
(1.80778 0.0692397 0)
(1.86394 0.463931 0)
(0.677388 0.444213 0)
(0.183487 -0.287133 0)
(0.359616 -0.322022 0)
(-0.773746 0.847905 0)
(-3.35798 1.4091 0)
(-5.52742 1.00031 0)
(-4.98461 0.073792 0)
(-3.43891 -0.54522 0)
(-2.77096 -0.64404 0)
(-2.3475 -0.694273 0)
(-1.03793 -1.07894 0)
(0.00463164 -0.762303 0)
(0.0331039 -0.822443 0)
(0.265461 -0.771457 0)
(0.978363 0.0481254 0)
(1.13276 0.117553 0)
(1.1538 -0.1476 0)
(1.33707 -0.0318937 0)
(1.74136 0.554663 0)
(1.1172 0.79311 0)
(0.0579986 -0.0667625 0)
(-1.13789 0.323744 0)
(-3.1816 1.81204 0)
(-5.04898 2.11787 0)
(-5.15216 1.11325 0)
(-3.52812 -0.234465 0)
(-3.24463 -0.793699 0)
(-3.01419 -0.706007 0)
(-2.10476 -1.00156 0)
(-0.854078 -1.41449 0)
(0.154959 -0.954597 0)
(-0.000975359 -0.76066 0)
(-0.619524 -0.702414 0)
(0.0957481 -0.323811 0)
(0.927905 -0.0645064 0)
(1.30578 -0.175718 0)
(1.2031 -0.0611636 0)
(1.43544 0.711015 0)
(0.937363 1.16108 0)
(-0.622908 0.569291 0)
(-3.13243 1.35285 0)
(-4.94167 2.44492 0)
(-5.56374 2.27104 0)
(-4.54465 0.754743 0)
(-3.09484 -0.593829 0)
(-2.93021 -0.950163 0)
(-2.56222 -0.982742 0)
(-2.04566 -1.11358 0)
(-0.759174 -1.87256 0)
(0.265724 -1.22534 0)
(-0.0465156 -0.574331 0)
(-0.725281 -0.791679 0)
(-0.202607 -0.640268 0)
(0.495067 -0.434643 0)
(0.815208 -0.353657 0)
(0.810054 -0.0584512 0)
(0.863752 0.800435 0)
(0.547514 1.59171 0)
(-1.27942 1.43594 0)
(-3.90456 2.06477 0)
(-5.18284 2.70455 0)
(-4.94845 2.0572 0)
(-3.21886 0.186358 0)
(-2.38319 -0.974409 0)
(-1.85399 -1.19518 0)
(-1.60289 -1.18878 0)
(-1.7462 -1.15095 0)
(-1.15742 -2.15337 0)
(0.246328 -1.36168 0)
(-0.0329673 -0.389935 0)
(-0.441364 -0.77962 0)
(-0.411998 -0.877095 0)
(0.12937 -0.59058 0)
(0.411367 -0.405978 0)
(0.402789 -0.00600645 0)
(0.311663 0.929694 0)
(0.123093 2.01342 0)
(-1.30861 2.30123 0)
(-3.50477 2.70023 0)
(-4.4757 2.79982 0)
(-3.91257 1.74041 0)
(-2.13339 -0.421538 0)
(-1.53318 -1.30819 0)
(-0.957885 -1.42027 0)
(-0.622536 -1.33016 0)
(-0.666648 -1.1356 0)
(-0.955522 -2.42979 0)
(0.223528 -1.65397 0)
(0.0606371 -0.33261 0)
(-0.150947 -0.677714 0)
(-0.322932 -0.964654 0)
(-0.133239 -0.697857 0)
(0.0914981 -0.464999 0)
(0.00139067 0.00313218 0)
(-0.0850706 1.04686 0)
(-0.204828 2.31256 0)
(-0.801126 2.94617 0)
(-2.08179 3.24451 0)
(-3.20379 2.84782 0)
(-2.4082 1.38508 0)
(-0.825874 -0.900324 0)
(-0.234909 -1.62071 0)
(0.0624363 -1.61179 0)
(0.161243 -1.42713 0)
(0.742558 -1.14886 0)
(-0.251137 -2.47924 0)
(0.339512 -1.88524 0)
(0.220414 -0.359986 0)
(0.0824901 -0.604828 0)
(-0.0839042 -0.865052 0)
(-0.209183 -0.745816 0)
(-0.0647369 -0.443846 0)
(-0.336018 0.0960767 0)
(-0.400285 1.13972 0)
(-0.379952 2.39858 0)
(-0.294934 3.18881 0)
(-0.230093 3.6668 0)
(-1.44209 2.97759 0)
(-0.286109 0.916363 0)
(0.93775 -0.886721 0)
(1.0748 -1.70313 0)
(0.971641 -1.63627 0)
(0.776837 -1.42035 0)
(1.10543 -1.21532 0)
(-0.125915 -1.62554 0)
(0.349843 -1.91767 0)
(0.0337463 0.000305037 0)
(0.157293 -0.0890268 0)
(0.285726 -0.16246 0)
(0.355293 -0.181577 0)
(0.330395 -0.170401 0)
(0.270887 -0.156748 0)
(0.235447 -0.137788 0)
(0.22858 -0.107004 0)
(0.235449 -0.0741388 0)
(0.249303 -0.047248 0)
(0.265188 -0.0263744 0)
(0.278742 -0.00992673 0)
(0.288038 0.00215624 0)
(0.292034 0.0099371 0)
(0.292273 0.0155629 0)
(0.290565 0.0228873 0)
(0.290738 0.0340904 0)
(0.295609 0.0519036 0)
(0.304586 0.0743502 0)
(0.319929 0.0966935 0)
(0.340741 0.127434 0)
(0.410795 0.163023 0)
(0.489942 0.317871 0)
(0.0625718 -0.108427 0)
(0.229653 -0.259726 0)
(0.368241 -0.28896 0)
(0.32836 -0.186323 0)
(0.224843 -0.116561 0)
(0.153666 -0.106779 0)
(0.118796 -0.114072 0)
(0.108334 -0.114779 0)
(0.126797 -0.105123 0)
(0.172079 -0.0896773 0)
(0.222758 -0.0720187 0)
(0.268462 -0.0513524 0)
(0.302773 -0.0269799 0)
(0.320454 0.000772773 0)
(0.322725 0.0290764 0)
(0.31715 0.0496759 0)
(0.314506 0.0545752 0)
(0.317643 0.0595162 0)
(0.324123 0.0640306 0)
(0.340538 0.0695441 0)
(0.369208 0.0828586 0)
(0.417875 0.0908376 0)
(0.50087 0.103089 0)
(0.10029 -0.306873 0)
(0.207964 -0.429065 0)
(0.184461 -0.258109 0)
(-0.327219 0.0558115 0)
(-0.302333 0.0228255 0)
(-0.298304 -0.0276801 0)
(-0.382932 -0.0349342 0)
(-0.495317 -0.0809323 0)
(-0.497459 -0.145283 0)
(-0.309627 -0.146131 0)
(-0.182019 -0.116879 0)
(-0.0638267 -0.0850428 0)
(0.051057 -0.0489959 0)
(0.151633 -0.0143979 0)
(0.218339 0.0108278 0)
(0.28513 0.0221133 0)
(0.33969 0.0233399 0)
(0.3541 0.0443906 0)
(0.342052 0.0610527 0)
(0.338537 0.0521553 0)
(0.357153 0.0456332 0)
(0.385641 0.0367868 0)
(0.43361 0.016626 0)
(-0.0261692 -0.514264 0)
(-0.159666 -0.123248 0)
(-0.179539 0.253432 0)
(-0.217699 0.114056 0)
(-0.106782 -0.120128 0)
(-0.132243 -0.049346 0)
(-0.149416 0.0386778 0)
(-0.173929 -0.0503465 0)
(-0.251711 -0.18587 0)
(-0.397892 -0.299687 0)
(-0.57007 -0.244606 0)
(-0.707023 -0.217976 0)
(-0.789056 -0.188841 0)
(-0.770494 -0.154458 0)
(-0.547009 -0.118925 0)
(-0.203741 -0.0693156 0)
(0.0351586 -0.0111559 0)
(0.179974 0.0557798 0)
(0.25953 0.0772754 0)
(0.329914 0.0588091 0)
(0.3803 0.045252 0)
(0.407513 0.0206769 0)
(0.43003 -0.0248239 0)
(-0.129861 -0.211892 0)
(-0.226789 -0.194409 0)
(-0.174231 -0.0761402 0)
(-0.0274986 -0.0235807 0)
(-0.0331151 -0.0368954 0)
(-0.0696697 -0.003017 0)
(-0.0413605 0.0183589 0)
(-0.023311 0.0130424 0)
(-0.0419294 0.00623379 0)
(-0.0789829 0.0152063 0)
(-0.119817 0.0502088 0)
(-0.223166 0.00877961 0)
(-0.383048 -0.126137 0)
(-0.437446 -0.263472 0)
(-0.395993 -0.370874 0)
(-0.447015 -0.500008 0)
(-0.51721 -0.290667 0)
(-0.375896 -0.177853 0)
(-0.0696247 -0.0974348 0)
(0.0942158 -0.088429 0)
(0.184247 -0.0277446 0)
(0.259294 -0.00683846 0)
(0.356403 -0.0187883 0)
(-0.0827441 -0.11542 0)
(-0.0805945 -0.189948 0)
(-0.0933812 -0.0551426 0)
(-0.0525886 -0.0361256 0)
(-0.0566419 -0.0515016 0)
(-0.0629675 -0.0263847 0)
(-0.0566915 -0.013809 0)
(-0.0528194 -0.0289356 0)
(-0.0561317 -0.0651638 0)
(-0.0548747 -0.0839499 0)
(-0.0279177 -0.038455 0)
(0.0285643 0.0678438 0)
(-0.0229746 0.0904364 0)
(-0.101665 -0.0825993 0)
(-0.0769653 -0.247829 0)
(-0.117445 -0.224583 0)
(-0.120264 -0.179196 0)
(-0.095114 -0.328732 0)
(-0.149268 -0.362363 0)
(-0.212499 -0.16618 0)
(-0.242842 -0.132244 0)
(-0.0296301 -0.207571 0)
(0.10418 -0.244387 0)
(-0.0427967 -0.0496924 0)
(-0.0454303 -0.14628 0)
(-0.0695273 -0.0746317 0)
(-0.0530707 -0.046842 0)
(-0.0522667 -0.036819 0)
(-0.0493707 -0.0221544 0)
(-0.0435631 -0.0104126 0)
(-0.0388851 -0.0151784 0)
(-0.0417486 -0.0368821 0)
(-0.0506293 -0.0597515 0)
(-0.0509257 -0.0569901 0)
(-0.0180658 -0.0195579 0)
(0.0611782 0.00570028 0)
(0.0578579 -0.121719 0)
(0.0327982 -0.290989 0)
(-0.0487586 -0.304761 0)
(-0.0243011 -0.207323 0)
(0.0111277 -0.187055 0)
(0.0445011 -0.160039 0)
(0.156363 -0.133729 0)
(0.318133 -0.110242 0)
(0.44988 -0.279585 0)
(0.416376 -0.24358 0)
(-0.0262472 -0.015656 0)
(-0.0362858 -0.136847 0)
(-0.0479364 -0.0762984 0)
(-0.0417175 -0.0520904 0)
(-0.0390339 -0.0409903 0)
(-0.0336732 -0.0295163 0)
(-0.0267898 -0.0188425 0)
(-0.0211408 -0.0178967 0)
(-0.0217585 -0.0309104 0)
(-0.0292558 -0.0509319 0)
(-0.0340096 -0.06149 0)
(-0.019867 -0.0503001 0)
(0.0372208 -0.0175706 0)
(0.0823803 -0.0772032 0)
(0.078858 -0.203195 0)
(0.022361 -0.246094 0)
(0.0147477 -0.244899 0)
(0.0288952 -0.311969 0)
(0.0590549 -0.353441 0)
(0.118094 -0.387375 0)
(0.226351 -0.416107 0)
(0.324953 -0.357699 0)
(0.420092 -0.0862352 0)
(-0.0160724 0.0091463 0)
(-0.0263877 -0.126466 0)
(-0.033884 -0.0777216 0)
(-0.0310364 -0.0534911 0)
(-0.0294082 -0.0441672 0)
(-0.0247213 -0.035932 0)
(-0.0177602 -0.0272014 0)
(-0.00968947 -0.0233211 0)
(-0.0046737 -0.0296044 0)
(-0.00540047 -0.045314 0)
(-0.00864596 -0.0641047 0)
(-0.00590904 -0.0826397 0)
(0.0184905 -0.0969714 0)
(0.0657997 -0.138775 0)
(0.0691716 -0.2009 0)
(0.0472492 -0.229484 0)
(0.0399922 -0.240076 0)
(0.0461895 -0.278854 0)
(0.0490531 -0.332954 0)
(0.0726012 -0.369233 0)
(0.105249 -0.420923 0)
(0.13874 -0.422313 0)
(0.20722 -0.278147 0)
(-0.0086759 0.0274888 0)
(-0.0170999 -0.117084 0)
(-0.0242269 -0.0760198 0)
(-0.0234549 -0.0541197 0)
(-0.0223273 -0.0466873 0)
(-0.0187294 -0.0413043 0)
(-0.0124599 -0.0355977 0)
(-0.00337849 -0.0322199 0)
(0.0058086 -0.0353111 0)
(0.0121378 -0.0466561 0)
(0.0157765 -0.0638223 0)
(0.0206693 -0.0850494 0)
(0.0294168 -0.109372 0)
(0.0439576 -0.143624 0)
(0.0437601 -0.188867 0)
(0.0284189 -0.21903 0)
(0.0157398 -0.240912 0)
(0.0118097 -0.284169 0)
(-0.00731803 -0.342163 0)
(-0.00983413 -0.393992 0)
(-0.0151199 -0.453883 0)
(-0.0161131 -0.441921 0)
(0.0032596 -0.321241 0)
(-0.00399765 0.0378348 0)
(-0.0111142 -0.110012 0)
(-0.0173848 -0.0734964 0)
(-0.0177952 -0.0539121 0)
(-0.0173425 -0.0485867 0)
(-0.0148778 -0.0456643 0)
(-0.0101435 -0.0430094 0)
(-0.00264033 -0.0418757 0)
(0.00642801 -0.0449459 0)
(0.0147292 -0.0541883 0)
(0.0209093 -0.0696254 0)
(0.0255233 -0.0896636 0)
(0.0280228 -0.114293 0)
(0.0279853 -0.143798 0)
(0.0208294 -0.176778 0)
(0.00300395 -0.202729 0)
(-0.0126391 -0.226153 0)
(-0.0285489 -0.264034 0)
(-0.0542217 -0.319557 0)
(-0.0770201 -0.379643 0)
(-0.11061 -0.431858 0)
(-0.152004 -0.428741 0)
(-0.173955 -0.338906 0)
(-0.001237 0.0435242 0)
(-0.00737449 -0.104075 0)
(-0.0128508 -0.0708184 0)
(-0.0140199 -0.0530945 0)
(-0.0143284 -0.0494852 0)
(-0.0130892 -0.0484095 0)
(-0.010278 -0.0480242 0)
(-0.00554219 -0.0491237 0)
(0.000745492 -0.0531747 0)
(0.00711088 -0.0615486 0)
(0.0118218 -0.0747515 0)
(0.0138461 -0.0921104 0)
(0.012447 -0.112816 0)
(0.0071959 -0.136312 0)
(-0.00443905 -0.161782 0)
(-0.0210528 -0.185557 0)
(-0.0375489 -0.208225 0)
(-0.057293 -0.239879 0)
(-0.0864349 -0.287706 0)
(-0.127707 -0.343691 0)
(-0.18208 -0.389859 0)
(-0.239646 -0.395265 0)
(-0.269234 -0.338568 0)
(0.000216355 0.0468861 0)
(-0.00506317 -0.0988099 0)
(-0.0100582 -0.0677591 0)
(-0.0118711 -0.051754 0)
(-0.0128499 -0.0494673 0)
(-0.0127626 -0.0496312 0)
(-0.0116972 -0.0506035 0)
(-0.00959901 -0.0530605 0)
(-0.00666476 -0.0578066 0)
(-0.00371781 -0.0655893 0)
(-0.00209062 -0.0767409 0)
(-0.0029768 -0.0910481 0)
(-0.00701095 -0.10799 0)
(-0.014634 -0.126781 0)
(-0.0263285 -0.147596 0)
(-0.041917 -0.16859 0)
(-0.0593269 -0.189692 0)
(-0.0792177 -0.214779 0)
(-0.108646 -0.248004 0)
(-0.156907 -0.288352 0)
(-0.22587 -0.325106 0)
(-0.301487 -0.338107 0)
(-0.359145 -0.311596 0)
(0.000746398 0.0487699 0)
(-0.00382687 -0.0941462 0)
(-0.00850095 -0.0645363 0)
(-0.0108293 -0.0498671 0)
(-0.0124594 -0.0485854 0)
(-0.0133832 -0.04954 0)
(-0.0137301 -0.0511979 0)
(-0.013652 -0.0541804 0)
(-0.0133976 -0.0590248 0)
(-0.0134724 -0.0660744 0)
(-0.0146947 -0.0755226 0)
(-0.0179021 -0.087285 0)
(-0.023697 -0.101102 0)
(-0.0323956 -0.116635 0)
(-0.0444789 -0.133571 0)
(-0.0601949 -0.151372 0)
(-0.0791641 -0.16999 0)
(-0.101641 -0.189964 0)
(-0.130201 -0.211092 0)
(-0.171187 -0.233123 0)
(-0.230573 -0.25352 0)
(-0.304203 -0.263414 0)
(-0.376725 -0.25129 0)
(0.000774539 0.0502146 0)
(-0.00331741 -0.0898535 0)
(-0.0078326 -0.0611044 0)
(-0.0105945 -0.0475 0)
(-0.0128042 -0.0469232 0)
(-0.0145933 -0.0483591 0)
(-0.0160772 -0.0503213 0)
(-0.0174565 -0.0533578 0)
(-0.0190214 -0.0578819 0)
(-0.0211636 -0.0640872 0)
(-0.0243949 -0.0720618 0)
(-0.0292692 -0.0817698 0)
(-0.0362617 -0.0930545 0)
(-0.0458741 -0.10564 0)
(-0.0584966 -0.119193 0)
(-0.0744945 -0.133273 0)
(-0.0944266 -0.147827 0)
(-0.119143 -0.16302 0)
(-0.149257 -0.178042 0)
(-0.185681 -0.19063 0)
(-0.230388 -0.197417 0)
(-0.284192 -0.194863 0)
(-0.343759 -0.179941 0)
(0.000560136 0.05158 0)
(-0.00326951 -0.0857455 0)
(-0.0077525 -0.0574753 0)
(-0.0108719 -0.0447015 0)
(-0.0135924 -0.0445864 0)
(-0.0161095 -0.0462692 0)
(-0.0185271 -0.0483139 0)
(-0.0210179 -0.0511891 0)
(-0.0238497 -0.0552192 0)
(-0.027356 -0.0605365 0)
(-0.0319266 -0.0671782 0)
(-0.0379582 -0.0751065 0)
(-0.0458625 -0.0841672 0)
(-0.0561034 -0.0941506 0)
(-0.0689914 -0.104681 0)
(-0.0848064 -0.115349 0)
(-0.103954 -0.125835 0)
(-0.127029 -0.13609 0)
(-0.154965 -0.14581 0)
(-0.188556 -0.153468 0)
(-0.227473 -0.155694 0)
(-0.26981 -0.148651 0)
(-0.31263 -0.130319 0)
(0.000295206 0.0530769 0)
(-0.00343752 -0.0816668 0)
(-0.00801753 -0.0536365 0)
(-0.011436 -0.0415243 0)
(-0.0145988 -0.0416792 0)
(-0.0177156 -0.0434223 0)
(-0.0208942 -0.0453919 0)
(-0.0242715 -0.0479927 0)
(-0.0280648 -0.0514715 0)
(-0.0325505 -0.0559054 0)
(-0.0380599 -0.0613038 0)
(-0.0449019 -0.0676174 0)
(-0.0534365 -0.0747028 0)
(-0.0640405 -0.0823693 0)
(-0.0769726 -0.090276 0)
(-0.0924955 -0.0980583 0)
(-0.110901 -0.105361 0)
(-0.132482 -0.111821 0)
(-0.157689 -0.116812 0)
(-0.186961 -0.11908 0)
(-0.220087 -0.116737 0)
(-0.255495 -0.108114 0)
(-0.290381 -0.0920854 0)
(4.094e-05 0.0548453 0)
(-0.00371179 -0.0775004 0)
(-0.00846272 -0.0495843 0)
(-0.0121235 -0.0380196 0)
(-0.0156603 -0.0383032 0)
(-0.0192557 -0.039966 0)
(-0.0230291 -0.0417389 0)
(-0.0270935 -0.043985 0)
(-0.0316231 -0.0468848 0)
(-0.0368353 -0.0504689 0)
(-0.0430088 -0.0547239 0)
(-0.0503827 -0.0595842 0)
(-0.0592572 -0.0649235 0)
(-0.069937 -0.0705496 0)
(-0.0826146 -0.0761617 0)
(-0.0975036 -0.0814117 0)
(-0.114828 -0.0859565 0)
(-0.134745 -0.08946 0)
(-0.157439 -0.0914902 0)
(-0.182926 -0.0910448 0)
(-0.210751 -0.086511 0)
(-0.239873 -0.07667 0)
(-0.268559 -0.0611257 0)
(-0.000153142 0.056853 0)
(-0.0040002 -0.0731784 0)
(-0.00897267 -0.0453292 0)
(-0.0128176 -0.0342405 0)
(-0.016659 -0.034553 0)
(-0.0206224 -0.0360391 0)
(-0.0248408 -0.0375349 0)
(-0.029404 -0.0393739 0)
(-0.0344549 -0.0416826 0)
(-0.040171 -0.0444633 0)
(-0.0467709 -0.0476858 0)
(-0.0544365 -0.0512596 0)
(-0.0634155 -0.0550811 0)
(-0.0739399 -0.0589656 0)
(-0.0861445 -0.0626393 0)
(-0.100202 -0.0658056 0)
(-0.116235 -0.0681381 0)
(-0.134293 -0.0692684 0)
(-0.154454 -0.0688428 0)
(-0.176628 -0.0661303 0)
(-0.200333 -0.0600167 0)
(-0.224718 -0.0497785 0)
(-0.248547 -0.0352805 0)
(-0.000265254 0.0590691 0)
(-0.00424913 -0.0686599 0)
(-0.0094683 -0.0408896 0)
(-0.0134391 -0.0302415 0)
(-0.0175173 -0.0305139 0)
(-0.0217508 -0.0317662 0)
(-0.0262861 -0.0329428 0)
(-0.0311844 -0.0343492 0)
(-0.0365659 -0.0360774 0)
(-0.0425865 -0.0381117 0)
(-0.0494064 -0.0404017 0)
(-0.0571678 -0.0428562 0)
(-0.066077 -0.0453769 0)
(-0.0762829 -0.0477809 0)
(-0.0878883 -0.049841 0)
(-0.101047 -0.0512926 0)
(-0.115787 -0.0518413 0)
(-0.132099 -0.051179 0)
(-0.149988 -0.0490507 0)
(-0.169288 -0.044927 0)
(-0.189547 -0.0379327 0)
(-0.210093 -0.0275735 0)
(-0.23006 -0.0139424 0)
(-0.000291481 0.0614219 0)
(-0.00443223 -0.0639247 0)
(-0.00989432 -0.0362948 0)
(-0.0139374 -0.0260771 0)
(-0.0181878 -0.0262654 0)
(-0.0226056 -0.0272533 0)
(-0.0273446 -0.0280943 0)
(-0.0324456 -0.0290682 0)
(-0.0380101 -0.0302453 0)
(-0.0441664 -0.0315982 0)
(-0.0510425 -0.0330559 0)
(-0.0587543 -0.0345375 0)
(-0.0674449 -0.0359405 0)
(-0.0772265 -0.0370947 0)
(-0.088171 -0.0378238 0)
(-0.100389 -0.0378932 0)
(-0.113867 -0.0370294 0)
(-0.128545 -0.0349995 0)
(-0.144393 -0.0316081 0)
(-0.161227 -0.0264958 0)
(-0.17865 -0.018999 0)
(-0.196087 -0.00874157 0)
(-0.212906 0.00404869 0)
(-0.000246007 0.063843 0)
(-0.00454242 -0.0589776 0)
(-0.0102093 -0.0315873 0)
(-0.0142751 -0.0218022 0)
(-0.0186396 -0.0218815 0)
(-0.0231647 -0.0225903 0)
(-0.0280114 -0.0230983 0)
(-0.0332068 -0.0236606 0)
(-0.0388387 -0.0243277 0)
(-0.045005 -0.0250617 0)
(-0.0518057 -0.0257872 0)
(-0.0593398 -0.026424 0)
(-0.0677113 -0.0268683 0)
(-0.0769977 -0.0269813 0)
(-0.0872484 -0.0266157 0)
(-0.0985268 -0.0255785 0)
(-0.110802 -0.0236189 0)
(-0.123993 -0.0205599 0)
(-0.138046 -0.0162625 0)
(-0.152794 -0.0104832 0)
(-0.167876 -0.00272339 0)
(-0.182805 0.00731049 0)
(-0.197184 0.0192821 0)
(-0.00015207 0.0662611 0)
(-0.00457791 -0.0538607 0)
(-0.0103793 -0.0268135 0)
(-0.0144212 -0.0174698 0)
(-0.0188479 -0.0174262 0)
(-0.0234137 -0.0178565 0)
(-0.0282911 -0.0180465 0)
(-0.0334937 -0.0182265 0)
(-0.039095 -0.0184302 0)
(-0.0451714 -0.0186091 0)
(-0.0518044 -0.0186945 0)
(-0.0590714 -0.018608 0)
(-0.0670456 -0.0182466 0)
(-0.0757909 -0.0174932 0)
(-0.0853362 -0.0162341 0)
(-0.0957003 -0.0143033 0)
(-0.106853 -0.0114968 0)
(-0.118711 -0.00766158 0)
(-0.131182 -0.00270049 0)
(-0.144133 0.00351928 0)
(-0.157293 0.0113618 0)
(-0.170245 0.02109 0)
(-0.182718 0.0323765 0)
(-4.42252e-05 0.0686278 0)
(-0.0045264 -0.048648 0)
(-0.0103719 -0.0220332 0)
(-0.0143501 -0.013127 0)
(-0.0187895 -0.0129557 0)
(-0.0233385 -0.0131202 0)
(-0.0281817 -0.0130141 0)
(-0.0333212 -0.0128446 0)
(-0.0388191 -0.0126315 0)
(-0.0447347 -0.0123237 0)
(-0.051134 -0.0118579 0)
(-0.0580725 -0.0111559 0)
(-0.065603 -0.0101199 0)
(-0.0737846 -0.00865825 0)
(-0.0826242 -0.00666539 0)
(-0.0921163 -0.00401298 0)
(-0.10223 -0.000543631 0)
(-0.112878 0.00388803 0)
(-0.123984 0.00932893 0)
(-0.13545 0.015814 0)
(-0.147042 0.0236278 0)
(-0.15837 0.0330529 0)
(-0.169252 0.0438398 0)
(5.22977e-05 0.0708939 0)
(-0.00436666 -0.0434381 0)
(-0.0101649 -0.0173139 0)
(-0.0140432 -0.00881516 0)
(-0.0184481 -0.00852065 0)
(-0.0229268 -0.0084378 0)
(-0.0276809 -0.00806234 0)
(-0.0327002 -0.00757918 0)
(-0.0380385 -0.00699796 0)
(-0.0437437 -0.00626765 0)
(-0.0498664 -0.00532835 0)
(-0.0564396 -0.00410217 0)
(-0.0635092 -0.00250221 0)
(-0.0711191 -0.000461049 0)
(-0.079265 0.00212894 0)
(-0.0879353 0.00536272 0)
(-0.0970894 0.00936391 0)
(-0.106663 0.014229 0)
(-0.116599 0.0200046 0)
(-0.126788 0.026682 0)
(-0.137051 0.0344567 0)
(-0.14705 0.0436073 0)
(-0.156677 0.0540447 0)
(0.000141103 0.0730107 0)
(-0.00407438 -0.0383378 0)
(-0.00975908 -0.012716 0)
(-0.0134961 -0.00457631 0)
(-0.0178225 -0.00416715 0)
(-0.0221776 -0.00385906 0)
(-0.026793 -0.0032405 0)
(-0.0316427 -0.00247744 0)
(-0.0367766 -0.00157268 0)
(-0.0422314 -0.000477664 0)
(-0.048043 0.00086754 0)
(-0.0542286 0.00253535 0)
(-0.0608384 0.00459856 0)
(-0.067893 0.00711598 0)
(-0.0753698 0.0101909 0)
(-0.0832634 0.0138863 0)
(-0.0915608 0.0182951 0)
(-0.100188 0.0235043 0)
(-0.109075 0.0295338 0)
(-0.118164 0.036362 0)
(-0.127346 0.0440927 0)
(-0.13627 0.0529879 0)
(-0.144838 0.0631887 0)
(0.000265867 0.0749352 0)
(-0.00363623 -0.0334329 0)
(-0.00918493 -0.00828507 0)
(-0.012728 -0.000452459 0)
(-0.0169326 5.68377e-05 0)
(-0.0211099 0.000566341 0)
(-0.0255361 0.00140476 0)
(-0.0301654 0.00241883 0)
(-0.0350493 0.00360724 0)
(-0.0402144 0.0050183 0)
(-0.0456853 0.00671202 0)
(-0.051471 0.0087499 0)
(-0.057618 0.0111825 0)
(-0.0641236 0.0140947 0)
(-0.0709678 0.0175628 0)
(-0.0781588 0.0216301 0)
(-0.0856522 0.0263599 0)
(-0.0934243 0.0318468 0)
(-0.101421 0.0380742 0)
(-0.109547 0.0450284 0)
(-0.117819 0.0527256 0)
(-0.1259 0.0614276 0)
(-0.133616 0.0714826 0)
(0.000462961 0.0765103 0)
(-0.0030635 -0.0287643 0)
(-0.00849164 -0.00405933 0)
(-0.0117807 0.00350144 0)
(-0.0158269 0.00409378 0)
(-0.0197678 0.00478622 0)
(-0.0239506 0.00581543 0)
(-0.0283084 0.00705242 0)
(-0.0328914 0.0084906 0)
(-0.037714 0.0101762 0)
(-0.042799 0.0121645 0)
(-0.0481666 0.0145177 0)
(-0.0538304 0.0172679 0)
(-0.0597742 0.0205158 0)
(-0.0660014 0.0242801 0)
(-0.0725217 0.0286411 0)
(-0.0792843 0.0336468 0)
(-0.0862902 0.0393433 0)
(-0.0934707 0.0457737 0)
(-0.100746 0.0528861 0)
(-0.108233 0.0605491 0)
(-0.115635 0.0691299 0)
(-0.122678 0.0790976 0)
(0.000818784 0.0776064 0)
(-0.0023537 -0.0242921 0)
(-0.00774355 -4.79956e-05 0)
(-0.0107091 0.00724078 0)
(-0.0145626 0.00789187 0)
(-0.0182218 0.00874397 0)
(-0.0221167 0.00994258 0)
(-0.0261433 0.0113733 0)
(-0.0303697 0.0130284 0)
(-0.0347976 0.0149526 0)
(-0.039438 0.0171945 0)
(-0.0443226 0.0197995 0)
(-0.0494504 0.0228234 0)
(-0.0548252 0.0263208 0)
(-0.0604359 0.0303483 0)
(-0.0662577 0.0349459 0)
(-0.0722894 0.0401743 0)
(-0.0785135 0.0460544 0)
(-0.0848887 0.0526674 0)
(-0.0914167 0.0599318 0)
(-0.0981475 0.0676807 0)
(-0.104865 0.0762293 0)
(-0.111343 0.086131 0)
(0.00133007 0.0780743 0)
(-0.00156336 -0.0199451 0)
(-0.00701146 0.00375084 0)
(-0.00958287 0.0107346 0)
(-0.0132331 0.0114141 0)
(-0.0165622 0.012406 0)
(-0.0201332 0.0137525 0)
(-0.0237954 0.015328 0)
(-0.0276196 0.0171602 0)
(-0.0315967 0.0192858 0)
(-0.0357525 0.0217367 0)
(-0.0401025 0.0245434 0)
(-0.0446495 0.0277817 0)
(-0.0493694 0.0314915 0)
(-0.0542777 0.0357255 0)
(-0.0593726 0.0405253 0)
(-0.0646258 0.0459328 0)
(-0.0700238 0.0519682 0)
(-0.0755455 0.0587121 0)
(-0.0811959 0.0661484 0)
(-0.0870071 0.0741229 0)
(-0.092941 0.0826795 0)
(-0.0987042 0.0925792 0)
(0.00199768 0.0777313 0)
(-0.000716356 -0.0155318 0)
(-0.00634209 0.00736271 0)
(-0.00846381 0.0139848 0)
(-0.0119302 0.0146475 0)
(-0.014906 0.0157515 0)
(-0.0181724 0.017187 0)
(-0.0214665 0.0188784 0)
(-0.0248576 0.0208437 0)
(-0.02837 0.0231139 0)
(-0.0320239 0.0257219 0)
(-0.0358077 0.0287143 0)
(-0.0397095 0.032137 0)
(-0.0437528 0.0360311 0)
(-0.0479224 0.0403962 0)
(-0.0521969 0.0453233 0)
(-0.0565925 0.0508324 0)
(-0.0610697 0.0569881 0)
(-0.0655659 0.0638599 0)
(-0.0701141 0.0714023 0)
(-0.0748225 0.0795429 0)
(-0.079606 0.0881987 0)
(-0.0841368 0.0981275 0)
(0.00278279 0.0766104 0)
(0.000118074 -0.0110579 0)
(-0.00576704 0.0108193 0)
(-0.0074266 0.016942 0)
(-0.0107991 0.0175733 0)
(-0.0134301 0.0187751 0)
(-0.0164094 0.0202713 0)
(-0.0193519 0.0220383 0)
(-0.0223661 0.0240834 0)
(-0.0254468 0.0264519 0)
(-0.028603 0.0291679 0)
(-0.0318342 0.0322764 0)
(-0.0351417 0.0357971 0)
(-0.0385446 0.0397731 0)
(-0.0419969 0.0442356 0)
(-0.0454689 0.0492301 0)
(-0.0489497 0.054795 0)
(-0.052374 0.0610048 0)
(-0.0557828 0.0678516 0)
(-0.0591241 0.0753619 0)
(-0.0623785 0.0835107 0)
(-0.0655725 0.0922973 0)
(-0.0683369 0.10215 0)
(0.00369115 0.074573 0)
(0.000912756 -0.00640878 0)
(-0.00534991 0.0141597 0)
(-0.00653142 0.0196142 0)
(-0.00988079 0.0202504 0)
(-0.0121944 0.0215133 0)
(-0.0149841 0.0230464 0)
(-0.0176645 0.0248554 0)
(-0.020359 0.0269525 0)
(-0.0230872 0.0293532 0)
(-0.0258642 0.0321068 0)
(-0.0286737 0.0352396 0)
(-0.0314944 0.0387843 0)
(-0.0343239 0.0427735 0)
(-0.0371328 0.0472551 0)
(-0.0398746 0.0522415 0)
(-0.04252 0.0577686 0)
(-0.0450585 0.0638669 0)
(-0.0474283 0.0705385 0)
(-0.0494979 0.0778914 0)
(-0.0512129 0.0859075 0)
(-0.052651 0.0944848 0)
(-0.0533405 0.104015 0)
(0.00465773 0.0716115 0)
(0.00162462 -0.0014048 0)
(-0.00502627 0.0174819 0)
(-0.00575023 0.0221116 0)
(-0.00920903 0.0227385 0)
(-0.0112766 0.0240442 0)
(-0.0139148 0.0255714 0)
(-0.0163901 0.0273955 0)
(-0.0189029 0.0295003 0)
(-0.0214176 0.0319059 0)
(-0.0239232 0.0346658 0)
(-0.0264206 0.0378015 0)
(-0.0288898 0.0413371 0)
(-0.031318 0.0452832 0)
(-0.0336665 0.0496837 0)
(-0.035897 0.0545408 0)
(-0.0379576 0.0598891 0)
(-0.0397813 0.0657351 0)
(-0.041281 0.0721418 0)
(-0.0423012 0.0791223 0)
(-0.0428555 0.0866499 0)
(-0.0428856 0.0946879 0)
(-0.0416567 0.103561 0)
(0.00554155 0.0679852 0)
(0.0021673 0.00408961 0)
(-0.00477698 0.0209485 0)
(-0.00510207 0.0246211 0)
(-0.00870113 0.0252679 0)
(-0.0105311 0.0266027 0)
(-0.0131005 0.0281168 0)
(-0.0154431 0.0299159 0)
(-0.0178159 0.0320074 0)
(-0.0201702 0.0344282 0)
(-0.0225067 0.0371859 0)
(-0.0248222 0.0403052 0)
(-0.0270923 0.0437842 0)
(-0.0292837 0.0476463 0)
(-0.0313652 0.0519068 0)
(-0.0332832 0.0565699 0)
(-0.0349762 0.0616751 0)
(-0.036369 0.0672044 0)
(-0.0373541 0.0731714 0)
(-0.0378394 0.0795807 0)
(-0.0376989 0.0863681 0)
(-0.0368047 0.0936374 0)
(-0.0344545 0.1015 0)
(0.00622065 0.0638163 0)
(0.00254931 0.00985951 0)
(-0.00451383 0.0243883 0)
(-0.00448148 0.0270851 0)
(-0.00819017 0.0277999 0)
(-0.009806 0.029115 0)
(-0.0123105 0.0306104 0)
(-0.0145221 0.0324008 0)
(-0.0167636 0.0344906 0)
(-0.0189963 0.0369025 0)
(-0.0212072 0.0396363 0)
(-0.0233916 0.0427151 0)
(-0.0255195 0.046114 0)
(-0.0275586 0.0498941 0)
(-0.0294871 0.054004 0)
(-0.0312334 0.0584469 0)
(-0.0327457 0.0632908 0)
(-0.033957 0.0684462 0)
(-0.0347399 0.073922 0)
(-0.0350143 0.0797121 0)
(-0.0346329 0.0857916 0)
(-0.0334691 0.092071 0)
(-0.0308588 0.0987383 0)
(0.0066327 0.0589525 0)
(0.00274805 0.0154448 0)
(-0.00417049 0.0273969 0)
(-0.0038489 0.0291027 0)
(-0.00754854 0.0299749 0)
(-0.00892978 0.0311577 0)
(-0.0113161 0.0326524 0)
(-0.0133656 0.0344285 0)
(-0.0154563 0.0364839 0)
(-0.0175363 0.038897 0)
(-0.0195923 0.041598 0)
(-0.0216365 0.0446506 0)
(-0.0235974 0.0480235 0)
(-0.0254719 0.0516452 0)
(-0.0272941 0.0556336 0)
(-0.0288854 0.0599018 0)
(-0.0302667 0.0644428 0)
(-0.0314041 0.0692448 0)
(-0.0321093 0.074276 0)
(-0.0323448 0.0794442 0)
(-0.0320509 0.0848346 0)
(-0.0309873 0.0902508 0)
(-0.0285638 0.0957069 0)
(0.0064216 0.0535973 0)
(0.00261562 0.0208014 0)
(-0.00364882 0.0300019 0)
(-0.00314296 0.0307652 0)
(-0.00666265 0.0317527 0)