# vtk DataFile Version 4.0
Generated by LIGGGHTS
ASCII
DATASET POLYDATA
POINTS 100 float
-0.109613 -0.129633 0.0187022 -0.120021 -0.130551 0.0191026 -0.129793 -0.130685 0.0213426 
-0.113422 -0.130913 0.0285439 -0.100794 -0.128107 0.0241777 -0.12213 -0.131832 0.0291549 
-0.133389 -0.13275 0.02945 -0.104808 -0.132597 0.0286763 -0.138607 -0.13164 0.0228028 
-0.116324 -0.127594 0.0101811 -0.116908 -0.133798 0.0357667 -0.127855 -0.133753 0.033549 
-0.12165 -0.124237 0.0113899 -0.110954 -0.134659 0.0364681 -0.127168 -0.125231 0.0141206 
-0.122961 -0.134684 0.035844 -0.105894 -0.126676 0.0305174 -0.137361 -0.125507 0.0197581 
-0.111842 -0.132662 0.00879634 -0.140182 -0.134455 0.0285373 -0.114904 -0.136261 0.0125861 
-0.114026 -0.135691 0.0403639 -0.102462 -0.135809 0.0236489 -0.0944372 -0.124547 0.0216583 
-0.099092 -0.130391 0.0173816 -0.116767 -0.122601 0.013791 -0.101144 -0.121937 0.0200731 
-0.0964639 -0.122084 0.0241021 -0.118382 -0.135723 0.0406871 -0.119293 -0.124881 0.0272054 
-0.121783 -0.13572 0.0402661 -0.0978982 -0.133423 0.0286335 -0.126583 -0.137321 0.0162789 
-0.106384 -0.135413 0.0344107 -0.143907 -0.134274 0.0237641 -0.100345 -0.134812 0.0204971 
-0.126778 -0.13568 0.0387852 -0.107248 -0.131988 0.034447 -0.134114 -0.135566 0.0352897 
-0.122268 -0.129301 0.00937362 -0.127104 -0.136928 0.0274617 -0.108716 -0.137051 0.0323254 
-0.10814 -0.123999 0.0277596 -0.107871 -0.137622 0.0254948 -0.136495 -0.127505 0.026693 
-0.138154 -0.135491 0.0330647 -0.100375 -0.129392 0.0138089 -0.125033 -0.128514 0.0107921 
-0.125394 -0.135788 0.0415439 -0.131636 -0.123586 0.015364 -0.0407516 -0.101847 0.0197805 
-0.0511661 -0.102776 0.019894 -0.0609947 -0.102936 0.0218701 -0.0448218 -0.103213 0.0295054 
-0.0320846 -0.100361 0.0255031 -0.0535422 -0.104144 0.029875 -0.0648038 -0.105072 0.0298605 
-0.036213 -0.104892 0.0298543 -0.0698431 -0.103909 0.0230855 -0.0472345 -0.0997411 0.0111002 
-0.0484976 -0.106163 0.0366075 -0.0593808 -0.106106 0.0340976 -0.0525939 -0.0963983 0.0121942 
-0.0425631 -0.107025 0.0374609 -0.0581821 -0.097419 0.0147675 -0.0545491 -0.107054 0.036515 
-0.0373534 -0.0989879 0.0317157 -0.0685222 -0.0977502 0.0201272 -0.0427115 -0.104794 0.00979317 
-0.0715691 -0.106775 0.0287516 -0.0458704 -0.108427 0.0134689 -0.0457381 -0.108092 0.0412641 
-0.0337302 -0.108059 0.0248646 -0.0256655 -0.0967752 0.0231852 -0.0301985 -0.102587 0.018736 
-0.0477783 -0.0947791 0.014739 -0.0323298 -0.0941574 0.021443 -0.0277593 -0.0943349 0.0255946 
-0.0501011 -0.10813 0.0414701 -0.0506606 -0.0971745 0.0280611 -0.0534891 -0.108125 0.0409581 
-0.0293037 -0.105713 0.0299898 -0.0576434 -0.109526 0.0168383 -0.037939 -0.107758 0.0355204 
-0.0751648 -0.106556 0.023882 -0.0315301 -0.107035 0.0217793 -0.0584434 -0.108076 0.0393443 
-0.0388076 -0.104334 0.0355625 -0.0656828 -0.107939 0.0356546 -0.0531528 -0.101445 0.0101193 
-0.0584642 -0.109229 0.028006 -0.0402135 -0.10938 0.0333595 -0.0395269 -0.0962896 0.0289215 
-0.0391852 -0.109893 0.0265495 -0.0678404 -0.0998061 0.0270657 -0.0696621 -0.107848 0.0333228 
-0.0313863 -0.101558 0.0151388 -0.055955 -0.100672 0.0114697 -0.0571329 -0.108207 0.0421381 
-0.0626836 -0.0957884 0.0159046 
VERTICES 100 200
1 0 
1 1 
1 2 
1 3 
1 4 
1 5 
1 6 
1 7 
1 8 
1 9 
1 10 
1 11 
1 12 
1 13 
1 14 
1 15 
1 16 
1 17 
1 18 
1 19 
1 20 
1 21 
1 22 
1 23 
1 24 
1 25 
1 26 
1 27 
1 28 
1 29 
1 30 
1 31 
1 32 
1 33 
1 34 
1 35 
1 36 
1 37 
1 38 
1 39 
1 40 
1 41 
1 42 
1 43 
1 44 
1 45 
1 46 
1 47 
1 48 
1 49 
1 50 
1 51 
1 52 
1 53 
1 54 
1 55 
1 56 
1 57 
1 58 
1 59 
1 60 
1 61 
1 62 
1 63 
1 64 
1 65 
1 66 
1 67 
1 68 
1 69 
1 70 
1 71 
1 72 
1 73 
1 74 
1 75 
1 76 
1 77 
1 78 
1 79 
1 80 
1 81 
1 82 
1 83 
1 84 
1 85 
1 86 
1 87 
1 88 
1 89 
1 90 
1 91 
1 92 
1 93 
1 94 
1 95 
1 96 
1 97 
1 98 
1 99 

POINT_DATA 100
FIELD FieldData 7
id 1 100 int
1 2 3 4 5 6 7 8 9 
10 11 12 13 14 15 16 17 18 
19 20 21 22 23 24 25 26 27 
28 29 30 31 32 33 34 35 36 
37 38 39 40 41 42 43 44 45 
46 47 48 49 50 51 52 53 54 
55 56 57 58 59 60 61 62 63 
64 65 66 67 68 69 70 71 72 
73 74 75 76 77 78 79 80 81 
82 83 84 85 86 87 88 89 90 
91 92 93 94 95 96 97 98 99 
100 
mol 1 100 int
1 1 1 1 1 1 1 1 1 
1 1 1 1 1 1 1 1 1 
1 1 1 1 1 1 1 1 1 
1 1 1 1 1 1 1 1 1 
1 1 1 1 1 1 1 1 1 
1 1 1 1 1 2 2 2 2 
2 2 2 2 2 2 2 2 2 
2 2 2 2 2 2 2 2 2 
2 2 2 2 2 2 2 2 2 
2 2 2 2 2 2 2 2 2 
2 2 2 2 2 2 2 2 2 
2 
type 1 100 int
1 1 1 1 1 1 1 1 1 
1 1 1 1 1 1 1 1 1 
1 1 1 1 1 1 1 1 1 
1 1 1 1 1 1 1 1 1 
1 1 1 1 1 1 1 1 1 
1 1 1 1 1 1 1 1 1 
1 1 1 1 1 1 1 1 1 
1 1 1 1 1 1 1 1 1 
1 1 1 1 1 1 1 1 1 
1 1 1 1 1 1 1 1 1 
1 1 1 1 1 1 1 1 1 
1 
v 3 100 double
-0.103611 -0.0588717 0.30689 -0.106275 -0.061345 0.231963 -0.12196 -0.0676165 0.163158 
-0.172419 -0.0803182 0.277469 -0.142242 -0.069096 0.371955 -0.17656 -0.0829722 0.214461 
-0.178486 -0.0853552 0.133575 -0.173085 -0.0792538 0.3343 -0.13205 -0.0720864 0.099337 
-0.0441802 -0.0418657 0.264148 -0.222614 -0.0961656 0.246911 -0.207071 -0.0931759 0.170251 
-0.0531802 -0.0452583 0.233917 -0.227397 -0.0967219 0.286839 -0.0721725 -0.0519054 0.193121 
-0.223017 -0.0972742 0.202594 -0.186918 -0.0833241 0.339231 -0.111658 -0.0654409 0.121064 
-0.0336792 -0.0382319 0.284842 -0.17182 -0.0844821 0.0823233 -0.0596905 -0.0467394 0.255747 
-0.254554 -0.105456 0.263108 -0.137332 -0.0682359 0.343945 -0.125132 -0.0627656 0.424075 
-0.0942325 -0.0544312 0.379054 -0.0702717 -0.0495831 0.271624 -0.114424 -0.060454 0.382577 
-0.142653 -0.0682598 0.415081 -0.256814 -0.106821 0.232498 -0.163975 -0.0783988 0.249082 
-0.253863 -0.106459 0.20866 -0.172656 -0.0780845 0.381 -0.0854187 -0.0563868 0.17161 
-0.212854 -0.0916495 0.317287 -0.138379 -0.0749505 0.0565906 -0.115388 -0.0612277 0.360903 
-0.243485 -0.104102 0.173716 -0.213643 -0.0918613 0.318479 -0.218994 -0.0978412 0.122521 
-0.0382518 -0.0410828 0.218855 -0.163892 -0.0801614 0.168789 -0.197976 -0.0875955 0.297458 
-0.167999 -0.0778318 0.329156 -0.149992 -0.0729915 0.302173 -0.159973 -0.0799989 0.122904 
-0.203404 -0.0937579 0.0943493 -0.0693372 -0.0470619 0.372175 -0.0483205 -0.0445197 0.201139 
-0.262812 -0.109731 0.183197 -0.0811474 -0.0552373 0.165274 -0.103118 -0.058586 0.259328 
-0.103719 -0.060839 0.185677 -0.117298 -0.0668333 0.117652 -0.169832 -0.0795021 0.228467 
-0.142819 -0.0687504 0.322096 -0.172197 -0.0819568 0.166479 -0.171917 -0.0841091 0.0869958 
-0.17191 -0.0785561 0.284284 -0.12548 -0.0710634 0.0546943 -0.0437404 -0.0418766 0.219036 
-0.218175 -0.0949134 0.197046 -0.2009 -0.0918278 0.122206 -0.051923 -0.0451794 0.189042 
-0.223886 -0.0955297 0.236133 -0.069449 -0.0515883 0.148441 -0.217366 -0.0958947 0.153523 
-0.185874 -0.0826295 0.28865 -0.106299 -0.0646849 0.0765393 -0.0337594 -0.0382951 0.23973 
-0.16395 -0.083125 0.0368758 -0.0583715 -0.0465147 0.210454 -0.249873 -0.104016 0.212059 
-0.136929 -0.0677477 0.294829 -0.12755 -0.0627093 0.373729 -0.0957801 -0.0543792 0.330481 
-0.0697644 -0.0495133 0.225561 -0.116057 -0.0603947 0.333247 -0.144617 -0.0681017 0.364358 
-0.251285 -0.105288 0.181931 -0.161055 -0.0776443 0.200751 -0.24776 -0.104885 0.158605 
-0.172683 -0.0774975 0.330173 -0.0813649 -0.0557697 0.127093 -0.210379 -0.0906176 0.266466 
-0.130453 -0.0737432 0.0125649 -0.115878 -0.0609358 0.312103 -0.236654 -0.102505 0.124585 
-0.211332 -0.0908729 0.267569 -0.211268 -0.0962714 0.075009 -0.0366543 -0.0409933 0.174747 
-0.158339 -0.0790424 0.122057 -0.195182 -0.086586 0.247443 -0.167152 -0.0772676 0.279265 
-0.148179 -0.072292 0.253464 -0.153689 -0.0789133 0.07698 -0.195226 -0.0922165 0.0477901 
-0.0712039 -0.0471642 0.324429 -0.0461052 -0.0443313 0.157048 -0.255871 -0.108034 0.13334 
-0.0775961 -0.0548139 0.120812 
f 3 100 double
0 0 0 0 0 0 0 0 0 
0 0 0 0 0 0 0 0 0 
0 0 0 0 0 0 0 0 0 
0 0 0 0 0 0 0 0 0 
0 0 0 0 0 0 0 0 0 
0 0 0 0 0 0 0 0 0 
0 0 0 0 0 0 0 0 0 
0 0 0 0 0 0 0 0 0 
0 0 0 0 0 0 0 0 0 
0 0 0 0 0 0 0 0 0 
0 0 0 0 0 0 0 0 0 
0 0 0 0 0 0 0 0 0 
0 0 0 0 0 0 0 0 0 
0 0 0 0 0 0 0 0 0 
0 0 0 0 0 0 0 0 0 
0 0 0 0 0 0 0 0 0 
0 0 0 0 0 0 0 0 0 
0 0 0 0 0 0 0 0 0 
0 0 0 0 0 0 0 0 0 
0 0 0 0 0 0 0 0 0 
0 0 0 0 0 0 0 0 0 
0 0 0 0 0 0 0 0 0 
0 0 0 0 0 0 0 0 0 
0 0 0 0 0 0 0 0 0 
0 0 0 0 0 0 0 0 0 
0 0 0 0 0 0 0 0 0 
0 0 0 0 0 0 0 0 0 
0 0 0 0 0 0 0 0 0 
0 0 0 0 0 0 0 0 0 
0 0 0 0 0 0 0 0 0 
0 0 0 0 0 0 0 0 0 
0 0 0 0 0 0 0 0 0 
0 0 0 0 0 0 0 0 0 
0 0 0 
radius 1 100 double
0.010434 0.00981478 0.00892069 0.00845937 0.00731974 0.00728422 0.00643447 0.00619172 0.00585956 
0.00577566 0.00537241 0.00522549 0.00513666 0.00473175 0.00466912 0.00444866 0.00441894 0.00400812 
0.00385622 0.00379948 0.00370243 0.00366942 0.00364039 0.00363813 0.00363644 0.00358692 0.0035797 
0.00341284 0.00337012 0.00336273 0.00332772 0.00323261 0.00320584 0.00320311 0.00318808 0.00313116 
0.00306026 0.00305632 0.00304383 0.00300958 0.00300137 0.00298994 0.0029567 0.00295111 0.00290849 
0.00284552 0.00282964 0.0028207 0.00281971 0.00281899 0.010434 0.00981478 0.00892069 0.00845937 
0.00731974 0.00728422 0.00643447 0.00619172 0.00585956 0.00577566 0.00537241 0.00522549 0.00513666 
0.00473175 0.00466912 0.00444866 0.00441894 0.00400812 0.00385622 0.00379948 0.00370243 0.00366942 
0.00364039 0.00363813 0.00363644 0.00358692 0.0035797 0.00341284 0.00337012 0.00336273 0.00332772 
0.00323261 0.00320584 0.00320311 0.00318808 0.00313116 0.00306026 0.00305632 0.00304383 0.00300958 
0.00300137 0.00298994 0.0029567 0.00295111 0.00290849 0.00284552 0.00282964 0.0028207 0.00281971 
0.00281899 
omega 3 100 double
2.11872 -7.01185 0.156123 2.11872 -7.01185 0.156123 2.11872 -7.01185 0.156123 
2.11872 -7.01185 0.156123 2.11872 -7.01185 0.156123 2.11872 -7.01185 0.156123 
2.11872 -7.01185 0.156123 2.11872 -7.01185 0.156123 2.11872 -7.01185 0.156123 
2.11872 -7.01185 0.156123 2.11872 -7.01185 0.156123 2.11872 -7.01185 0.156123 
2.11872 -7.01185 0.156123 2.11872 -7.01185 0.156123 2.11872 -7.01185 0.156123 
2.11872 -7.01185 0.156123 2.11872 -7.01185 0.156123 2.11872 -7.01185 0.156123 
2.11872 -7.01185 0.156123 2.11872 -7.01185 0.156123 2.11872 -7.01185 0.156123 
2.11872 -7.01185 0.156123 2.11872 -7.01185 0.156123 2.11872 -7.01185 0.156123 
2.11872 -7.01185 0.156123 2.11872 -7.01185 0.156123 2.11872 -7.01185 0.156123 
2.11872 -7.01185 0.156123 2.11872 -7.01185 0.156123 2.11872 -7.01185 0.156123 
2.11872 -7.01185 0.156123 2.11872 -7.01185 0.156123 2.11872 -7.01185 0.156123 
2.11872 -7.01185 0.156123 2.11872 -7.01185 0.156123 2.11872 -7.01185 0.156123 
2.11872 -7.01185 0.156123 2.11872 -7.01185 0.156123 2.11872 -7.01185 0.156123 
2.11872 -7.01185 0.156123 2.11872 -7.01185 0.156123 2.11872 -7.01185 0.156123 
2.11872 -7.01185 0.156123 2.11872 -7.01185 0.156123 2.11872 -7.01185 0.156123 
2.11872 -7.01185 0.156123 2.11872 -7.01185 0.156123 2.11872 -7.01185 0.156123 
2.11872 -7.01185 0.156123 2.11872 -7.01185 0.156123 2.06968 -6.8874 0.193778 
2.06968 -6.8874 0.193778 2.06968 -6.8874 0.193778 2.06968 -6.8874 0.193778 
2.06968 -6.8874 0.193778 2.06968 -6.8874 0.193778 2.06968 -6.8874 0.193778 
2.06968 -6.8874 0.193778 2.06968 -6.8874 0.193778 2.06968 -6.8874 0.193778 
2.06968 -6.8874 0.193778 2.06968 -6.8874 0.193778 2.06968 -6.8874 0.193778 
2.06968 -6.8874 0.193778 2.06968 -6.8874 0.193778 2.06968 -6.8874 0.193778 
2.06968 -6.8874 0.193778 2.06968 -6.8874 0.193778 2.06968 -6.8874 0.193778 
2.06968 -6.8874 0.193778 2.06968 -6.8874 0.193778 2.06968 -6.8874 0.193778 
2.06968 -6.8874 0.193778 2.06968 -6.8874 0.193778 2.06968 -6.8874 0.193778 
2.06968 -6.8874 0.193778 2.06968 -6.8874 0.193778 2.06968 -6.8874 0.193778 
2.06968 -6.8874 0.193778 2.06968 -6.8874 0.193778 2.06968 -6.8874 0.193778 
2.06968 -6.8874 0.193778 2.06968 -6.8874 0.193778 2.06968 -6.8874 0.193778 
2.06968 -6.8874 0.193778 2.06968 -6.8874 0.193778 2.06968 -6.8874 0.193778 
2.06968 -6.8874 0.193778 2.06968 -6.8874 0.193778 2.06968 -6.8874 0.193778 
2.06968 -6.8874 0.193778 2.06968 -6.8874 0.193778 2.06968 -6.8874 0.193778 
2.06968 -6.8874 0.193778 2.06968 -6.8874 0.193778 2.06968 -6.8874 0.193778 
2.06968 -6.8874 0.193778 2.06968 -6.8874 0.193778 2.06968 -6.8874 0.193778 
2.06968 -6.8874 0.193778 
