# vtk DataFile Version 4.0
Generated by LIGGGHTS
ASCII
DATASET POLYDATA
POINTS 100 float
-0.116631 -0.149632 0.0126234 -0.126575 -0.146501 0.0118244 -0.13639 -0.144642 0.0126901 
-0.123623 -0.156494 0.0167485 -0.109975 -0.156422 0.0170575 -0.132062 -0.154166 0.0161008 
-0.14276 -0.150634 0.0152262 -0.115995 -0.160682 0.0155997 -0.145211 -0.142952 0.0124667 
-0.11968 -0.139464 0.00960424 -0.129753 -0.162256 0.01812 -0.139161 -0.156402 0.0167126 
-0.124395 -0.136706 0.0129604 -0.124624 -0.165471 0.017909 -0.130586 -0.137259 0.0134638 
-0.13555 -0.160493 0.0172748 -0.116516 -0.158709 0.0215547 -0.141931 -0.137952 0.0160269 
-0.116004 -0.142634 0.00469191 -0.149069 -0.148239 0.0131407 -0.120746 -0.146249 0.00362569 
-0.128939 -0.167865 0.0190637 -0.112762 -0.159282 0.0102437 -0.102603 -0.15505 0.0188505 
-0.106588 -0.152938 0.0115174 -0.120357 -0.139576 0.0157434 -0.107818 -0.149982 0.0200421 
-0.10483 -0.154942 0.0221932 -0.133087 -0.166498 0.0191099 -0.127516 -0.1502 0.0209768 
-0.136099 -0.164893 0.0188075 -0.10973 -0.163659 0.01504 -0.132974 -0.14527 0.00444857 
-0.119853 -0.165969 0.0162738 -0.150922 -0.143042 0.0106409 -0.109584 -0.157124 0.00943779 
-0.140235 -0.161848 0.0179294 -0.120037 -0.16394 0.0191593 -0.145865 -0.156323 0.0159758 
-0.125237 -0.137469 0.00759434 -0.137052 -0.153562 0.010781 -0.121632 -0.164302 0.0137176 
-0.117201 -0.15437 0.0222757 -0.118714 -0.159603 0.00958252 -0.14377 -0.144674 0.0180924 
-0.148866 -0.15304 0.0147491 -0.106422 -0.149176 0.010409 -0.128119 -0.137135 0.00895655 
-0.139877 -0.164565 0.0193537 -0.134832 -0.135716 0.015415 -0.0468588 -0.119577 0.0124002 
-0.0570277 -0.117164 0.0120723 -0.0669018 -0.116022 0.0133882 -0.0531516 -0.126954 0.0167564 
-0.0395428 -0.125903 0.0164657 -0.0617555 -0.125235 0.0165049 -0.0727071 -0.122476 0.0161387 
-0.0453015 -0.130573 0.0152293 -0.0758224 -0.114969 0.0135706 -0.05076 -0.109632 0.00962522 
-0.0587861 -0.133152 0.0183354 -0.0686419 -0.12798 0.0174047 -0.0555051 -0.107245 0.0132142 
-0.0534544 -0.135988 0.0178653 -0.0616124 -0.108246 0.0139836 -0.0647259 -0.131804 0.0177645 
-0.0456967 -0.128687 0.0212219 -0.0727528 -0.109773 0.0170355 -0.0470891 -0.112494 0.00452292 
-0.0792587 -0.120525 0.014358 -0.0516029 -0.116433 0.00362826 -0.0575307 -0.138695 0.0191833 
-0.0424199 -0.128905 0.00975139 -0.0322157 -0.124017 0.0179472 -0.0366647 -0.122143 0.010819 
-0.0511517 -0.109838 0.0157866 -0.0377216 -0.119346 0.0194202 -0.0342932 -0.124094 0.0213855 
-0.0617599 -0.13763 0.0194263 -0.0572919 -0.120988 0.0212178 -0.0648899 -0.136244 0.0192735 
-0.0388707 -0.133088 0.0143634 -0.0638208 -0.116342 0.00499825 -0.0487378 -0.136129 0.0160167 
-0.081588 -0.115456 0.0119968 -0.0394427 -0.126519 0.00882924 -0.0692683 -0.133498 0.0186102 
-0.0489372 -0.13414 0.0189287 -0.0753608 -0.128378 0.0169643 -0.0565291 -0.108028 0.00788266 
-0.0670087 -0.124952 0.0114163 -0.0507436 -0.134576 0.0135589 -0.046657 -0.124414 0.0220179 
-0.0483564 -0.129649 0.00934918 -0.0740124 -0.116624 0.019109 -0.0786401 -0.125311 0.0159052 
-0.0368174 -0.118371 0.00974404 -0.059364 -0.107913 0.00937371 -0.0686531 -0.136192 0.0199887 
-0.0658665 -0.107027 0.0161357 
VERTICES 100 200
1 0 
1 1 
1 2 
1 3 
1 4 
1 5 
1 6 
1 7 
1 8 
1 9 
1 10 
1 11 
1 12 
1 13 
1 14 
1 15 
1 16 
1 17 
1 18 
1 19 
1 20 
1 21 
1 22 
1 23 
1 24 
1 25 
1 26 
1 27 
1 28 
1 29 
1 30 
1 31 
1 32 
1 33 
1 34 
1 35 
1 36 
1 37 
1 38 
1 39 
1 40 
1 41 
1 42 
1 43 
1 44 
1 45 
1 46 
1 47 
1 48 
1 49 
1 50 
1 51 
1 52 
1 53 
1 54 
1 55 
1 56 
1 57 
1 58 
1 59 
1 60 
1 61 
1 62 
1 63 
1 64 
1 65 
1 66 
1 67 
1 68 
1 69 
1 70 
1 71 
1 72 
1 73 
1 74 
1 75 
1 76 
1 77 
1 78 
1 79 
1 80 
1 81 
1 82 
1 83 
1 84 
1 85 
1 86 
1 87 
1 88 
1 89 
1 90 
1 91 
1 92 
1 93 
1 94 
1 95 
1 96 
1 97 
1 98 
1 99 

POINT_DATA 100
FIELD FieldData 7
id 1 100 int
1 2 3 4 5 6 7 8 9 
10 11 12 13 14 15 16 17 18 
19 20 21 22 23 24 25 26 27 
28 29 30 31 32 33 34 35 36 
37 38 39 40 41 42 43 44 45 
46 47 48 49 50 51 52 53 54 
55 56 57 58 59 60 61 62 63 
64 65 66 67 68 69 70 71 72 
73 74 75 76 77 78 79 80 81 
82 83 84 85 86 87 88 89 90 
91 92 93 94 95 96 97 98 99 
100 
mol 1 100 int
1 1 1 1 1 1 1 1 1 
1 1 1 1 1 1 1 1 1 
1 1 1 1 1 1 1 1 1 
1 1 1 1 1 1 1 1 1 
1 1 1 1 1 1 1 1 1 
1 1 1 1 1 2 2 2 2 
2 2 2 2 2 2 2 2 2 
2 2 2 2 2 2 2 2 2 
2 2 2 2 2 2 2 2 2 
2 2 2 2 2 2 2 2 2 
2 2 2 2 2 2 2 2 2 
2 
type 1 100 int
1 1 1 1 1 1 1 1 1 
1 1 1 1 1 1 1 1 1 
1 1 1 1 1 1 1 1 1 
1 1 1 1 1 1 1 1 1 
1 1 1 1 1 1 1 1 1 
1 1 1 1 1 1 1 1 1 
1 1 1 1 1 1 1 1 1 
1 1 1 1 1 1 1 1 1 
1 1 1 1 1 1 1 1 1 
1 1 1 1 1 1 1 1 1 
1 1 1 1 1 1 1 1 1 
1 
v 3 100 double
0.00293523 -0.172856 -0.0459602 0.00503418 -0.154277 0.000716062 0.00692037 -0.158098 0.0303073 
-0.000533179 -0.222569 -0.134538 -0.000328808 -0.23752 -0.140085 0.00100224 -0.207209 -0.0993285 
0.00338291 -0.18702 -0.0469195 -0.00439806 -0.213226 -0.19426 0.00815268 -0.148118 0.0571528 
0.00955023 -0.130002 0.0916907 -0.00444289 -0.236084 -0.208781 -0.000477289 -0.209781 -0.125893 
0.0133358 -0.17122 0.130878 -0.00709036 -0.237321 -0.25429 0.013138 -0.173059 0.126427 
-0.00344943 -0.220171 -0.182402 5.0837e-06 -0.292575 -0.16759 0.0138115 -0.198402 0.122555 
0.00469558 -0.0671181 0.0474731 0.0042859 -0.154089 -0.0118224 0.00132324 -0.0490808 0.00131438 
-0.00843653 -0.249368 -0.284305 -0.005844 -0.144047 -0.177053 0.00161346 -0.267375 -0.125222 
-0.000211259 -0.165998 -0.0950318 0.0123899 -0.211695 0.0905135 0.00619663 -0.279204 -0.0548527 
0.00329358 -0.310383 -0.122712 -0.00733107 -0.246702 -0.264009 0.00646987 -0.27612 -0.0483758 
-0.00620418 -0.240264 -0.241079 -0.00702406 -0.210692 -0.237135 0.0024911 -0.0504156 0.0202569 
-0.00826484 -0.219197 -0.263235 0.00721043 -0.119139 0.0586707 -0.00451929 -0.135771 -0.149671 
-0.00421065 -0.225228 -0.198318 -0.00528149 -0.257701 -0.235977 -0.000765589 -0.194601 -0.121627 
0.0101715 -0.0986795 0.121055 -0.0010566 -0.132003 -0.0888545 -0.00816408 -0.183551 -0.240067 
0.003786 -0.301689 -0.109151 -0.00641401 -0.130477 -0.178519 0.00947176 -0.224609 0.0333971 
0.00124937 -0.175793 -0.0762332 0.00224028 -0.151285 -0.0447213 0.0110857 -0.114642 0.126902 
-0.00568367 -0.244589 -0.234882 0.015291 -0.195829 0.149119 0.038284 -0.14253 -0.0513462 
0.0392166 -0.130431 0.00875451 0.0444467 -0.136972 0.0536779 0.0463478 -0.186063 -0.113426 
0.0462733 -0.19409 -0.145954 0.0469547 -0.176116 -0.0661752 0.04805 -0.162941 0.000350262 
0.0383776 -0.175481 -0.179475 0.0459131 -0.131619 0.094494 0.0374946 -0.108242 0.0726387 
0.0463505 -0.199063 -0.164439 0.0476078 -0.180478 -0.0744851 0.0511552 -0.144472 0.114794 
0.0424695 -0.198222 -0.21353 0.0528301 -0.148019 0.123477 0.0456091 -0.18775 -0.130025 
0.0594469 -0.242215 -0.15708 0.0614989 -0.172939 0.142656 0.0185148 -0.0541857 0.0286674 
0.0438707 -0.137582 0.0435049 0.0123376 -0.0404321 -0.000720662 0.0445154 -0.209592 -0.230558 
0.0219296 -0.116567 -0.170188 0.0526587 -0.216743 -0.148699 0.0310098 -0.133285 -0.11325 
0.0573798 -0.176868 0.0716159 0.061325 -0.228663 -0.0785075 0.0637867 -0.253499 -0.142798 
0.0461893 -0.208806 -0.204871 0.0658154 -0.232557 -0.0331771 0.0468407 -0.204501 -0.179173 
0.0334742 -0.171121 -0.228554 0.0168717 -0.0456356 0.040059 0.0363352 -0.181444 -0.230464 
0.0403865 -0.109228 0.107807 0.0209062 -0.108715 -0.153172 0.0469582 -0.193449 -0.134191 
0.0474622 -0.213866 -0.207558 0.0458447 -0.16998 -0.0570633 0.0331523 -0.0839588 0.109369 
0.0306258 -0.114817 -0.0459136 0.0296222 -0.152277 -0.206559 0.0655796 -0.250327 -0.106139 
0.0200037 -0.107145 -0.159191 0.0625685 -0.195099 0.0700778 0.0449396 -0.15541 -0.0120698 
0.0306377 -0.121129 -0.0705377 0.0381015 -0.0982949 0.119891 0.0492115 -0.209386 -0.166348 
0.0608456 -0.168577 0.150966 
f 3 100 double
0 0 0 0 0 0 0 0 0 
0 0 0 0 0 0 0 0 0 
0 0 0 0 0 0 0 0 0 
0 0 0 0 0 0 0 0 0 
0 0 0 0 0 0 0 0 0 
0 0 0 0 0 0 0 0 0 
0 0 0 0 0 0 -0.0768121 -0.0621498 0.32676 
0 0 0 0 0 0 0 0 0 
0 0 0 0 0 0 0 0 0 
0 0 0 0 0 0 0 0 0 
0 0 0 0 0 0 0 0 0 
0 0 0 0 0 0 0 0 0 
0 0 0 0 0 0 0 0 0 
0 0 0 0 0 0 0 0 0 
0 0 0 0 0 0 0 0 0 
0 0 0 0 0 0 0 0 0 
0 0 0 0 0 0 0 0 0 
0 0 0 0 0 0 0 0 0 
0 0 0 0 0 0 0 0 0 
0 0 0 0 0 0 0 0 0 
0 0 0 0 0 0 0 0 0 
0 0 0 0 0 0 0 0 0 
0 0 0 0 0 0 0 0 0 
0 0 0 -0.0635154 -0.0708773 0.333005 0 0 0 
0 0 0 0 0 0 0 0 0 
0 0 0 0 0 0 0 0 0 
0 0 0 0 0 0 0 0 0 
0 0 0 0 0 0 0 0 0 
0 0 0 0 0 0 0 0 0 
0 0 0 0 0 0 0 0 0 
0 0 0 0 0 0 0 0 0 
0 0 0 0 0 0 0 0 0 
0 0 0 0 0 0 0 0 0 
0 0 0 
radius 1 100 double
0.010434 0.00981478 0.00892069 0.00845937 0.00731974 0.00728422 0.00643447 0.00619172 0.00585956 
0.00577566 0.00537241 0.00522549 0.00513666 0.00473175 0.00466912 0.00444866 0.00441894 0.00400812 
0.00385622 0.00379948 0.00370243 0.00366942 0.00364039 0.00363813 0.00363644 0.00358692 0.0035797 
0.00341284 0.00337012 0.00336273 0.00332772 0.00323261 0.00320584 0.00320311 0.00318808 0.00313116 
0.00306026 0.00305632 0.00304383 0.00300958 0.00300137 0.00298994 0.0029567 0.00295111 0.00290849 
0.00284552 0.00282964 0.0028207 0.00281971 0.00281899 0.010434 0.00981478 0.00892069 0.00845937 
0.00731974 0.00728422 0.00643447 0.00619172 0.00585956 0.00577566 0.00537241 0.00522549 0.00513666 
0.00473175 0.00466912 0.00444866 0.00441894 0.00400812 0.00385622 0.00379948 0.00370243 0.00366942 
0.00364039 0.00363813 0.00363644 0.00358692 0.0035797 0.00341284 0.00337012 0.00336273 0.00332772 
0.00323261 0.00320584 0.00320311 0.00318808 0.00313116 0.00306026 0.00305632 0.00304383 0.00300958 
0.00300137 0.00298994 0.0029567 0.00295111 0.00290849 0.00284552 0.00282964 0.0028207 0.00281971 
0.00281899 
omega 3 100 double
13.3941 0.476999 -0.792173 13.3941 0.476999 -0.792173 13.3941 0.476999 -0.792173 
13.3941 0.476999 -0.792173 13.3941 0.476999 -0.792173 13.3941 0.476999 -0.792173 
13.3941 0.476999 -0.792173 13.3941 0.476999 -0.792173 13.3941 0.476999 -0.792173 
13.3941 0.476999 -0.792173 13.3941 0.476999 -0.792173 13.3941 0.476999 -0.792173 
13.3941 0.476999 -0.792173 13.3941 0.476999 -0.792173 13.3941 0.476999 -0.792173 
13.3941 0.476999 -0.792173 13.3941 0.476999 -0.792173 13.3941 0.476999 -0.792173 
13.3941 0.476999 -0.792173 13.3941 0.476999 -0.792173 13.3941 0.476999 -0.792173 
13.3941 0.476999 -0.792173 13.3941 0.476999 -0.792173 13.3941 0.476999 -0.792173 
13.3941 0.476999 -0.792173 13.3941 0.476999 -0.792173 13.3941 0.476999 -0.792173 
13.3941 0.476999 -0.792173 13.3941 0.476999 -0.792173 13.3941 0.476999 -0.792173 
13.3941 0.476999 -0.792173 13.3941 0.476999 -0.792173 13.3941 0.476999 -0.792173 
13.3941 0.476999 -0.792173 13.3941 0.476999 -0.792173 13.3941 0.476999 -0.792173 
13.3941 0.476999 -0.792173 13.3941 0.476999 -0.792173 13.3941 0.476999 -0.792173 
13.3941 0.476999 -0.792173 13.3941 0.476999 -0.792173 13.3941 0.476999 -0.792173 
13.3941 0.476999 -0.792173 13.3941 0.476999 -0.792173 13.3941 0.476999 -0.792173 
13.3941 0.476999 -0.792173 13.3941 0.476999 -0.792173 13.3941 0.476999 -0.792173 
13.3941 0.476999 -0.792173 13.3941 0.476999 -0.792173 11.1908 3.25498 -0.82892 
11.1908 3.25498 -0.82892 11.1908 3.25498 -0.82892 11.1908 3.25498 -0.82892 
11.1908 3.25498 -0.82892 11.1908 3.25498 -0.82892 11.1908 3.25498 -0.82892 
11.1908 3.25498 -0.82892 11.1908 3.25498 -0.82892 11.1908 3.25498 -0.82892 
11.1908 3.25498 -0.82892 11.1908 3.25498 -0.82892 11.1908 3.25498 -0.82892 
11.1908 3.25498 -0.82892 11.1908 3.25498 -0.82892 11.1908 3.25498 -0.82892 
11.1908 3.25498 -0.82892 11.1908 3.25498 -0.82892 11.1908 3.25498 -0.82892 
11.1908 3.25498 -0.82892 11.1908 3.25498 -0.82892 11.1908 3.25498 -0.82892 
11.1908 3.25498 -0.82892 11.1908 3.25498 -0.82892 11.1908 3.25498 -0.82892 
11.1908 3.25498 -0.82892 11.1908 3.25498 -0.82892 11.1908 3.25498 -0.82892 
11.1908 3.25498 -0.82892 11.1908 3.25498 -0.82892 11.1908 3.25498 -0.82892 
11.1908 3.25498 -0.82892 11.1908 3.25498 -0.82892 11.1908 3.25498 -0.82892 
11.1908 3.25498 -0.82892 11.1908 3.25498 -0.82892 11.1908 3.25498 -0.82892 
11.1908 3.25498 -0.82892 11.1908 3.25498 -0.82892 11.1908 3.25498 -0.82892 
11.1908 3.25498 -0.82892 11.1908 3.25498 -0.82892 11.1908 3.25498 -0.82892 
11.1908 3.25498 -0.82892 11.1908 3.25498 -0.82892 11.1908 3.25498 -0.82892 
11.1908 3.25498 -0.82892 11.1908 3.25498 -0.82892 11.1908 3.25498 -0.82892 
11.1908 3.25498 -0.82892 
