# vtk DataFile Version 4.0
Generated by LIGGGHTS
ASCII
DATASET POLYDATA
POINTS 100 float
-0.114104 -0.13206 0.023293 -0.124191 -0.133018 0.0207107 -0.134195 -0.133338 0.0201257 
-0.120463 -0.134112 0.0315608 -0.107188 -0.130958 0.0311048 -0.128975 -0.135087 0.0296532 
-0.13985 -0.136037 0.0267336 -0.112188 -0.135791 0.0339586 -0.143044 -0.134415 0.0189995 
-0.118234 -0.129367 0.0134185 -0.125749 -0.137559 0.0372903 -0.135649 -0.137352 0.0321235 
-0.123761 -0.126121 0.0133455 -0.120204 -0.138466 0.0395545 -0.129796 -0.127332 0.0143501 
-0.131563 -0.138455 0.0356133 -0.113877 -0.130034 0.0358635 -0.141143 -0.128061 0.0168906 
-0.113428 -0.134306 0.0129599 -0.146083 -0.137674 0.0238408 -0.117337 -0.138194 0.0154667 
-0.124212 -0.139803 0.0423525 -0.108466 -0.138596 0.0295566 -0.100464 -0.127204 0.0307288 
-0.103615 -0.1327 0.0248997 -0.119774 -0.124673 0.0171265 -0.106526 -0.124486 0.0275399 
-0.103145 -0.124943 0.0326895 -0.128485 -0.139865 0.0414472 -0.125869 -0.128 0.0290975 
-0.131635 -0.139833 0.0400979 -0.10552 -0.136604 0.0357788 -0.129555 -0.139553 0.0156728 
-0.115227 -0.13905 0.0387999 -0.148341 -0.137123 0.0182471 -0.105581 -0.137353 0.0272027 
-0.136023 -0.139683 0.0372925 -0.116146 -0.13564 0.0388508 -0.142102 -0.139304 0.0319122 
-0.123679 -0.131012 0.010863 -0.133166 -0.140039 0.0262654 -0.116852 -0.140522 0.036031 
-0.11533 -0.127152 0.0327985 -0.114132 -0.140555 0.0296827 -0.142189 -0.130596 0.0236224 
-0.145367 -0.139059 0.0286628 -0.103879 -0.131425 0.0211965 -0.126746 -0.130341 0.0115109 
-0.135456 -0.140005 0.0403114 -0.13447 -0.125795 0.0144204 -0.0452148 -0.104261 0.0224539 
-0.0552411 -0.105223 0.0196459 -0.0652296 -0.10556 0.0188406 -0.0517483 -0.10638 0.0305676 
-0.0384732 -0.103195 0.0304218 -0.0602149 -0.107359 0.0284685 -0.0710211 -0.108313 0.0253061 
-0.0435236 -0.108057 0.0331348 -0.0740488 -0.106648 0.0175146 -0.0491339 -0.101513 0.012509 
-0.0571504 -0.109874 0.0361582 -0.0669356 -0.109654 0.0307779 -0.0546656 -0.0982781 0.0123361 
-0.0516546 -0.110784 0.0385372 -0.060718 -0.0995078 0.0132009 -0.0629248 -0.110771 0.034349 
-0.0452666 -0.102316 0.0350391 -0.0721167 -0.100276 0.0154884 -0.0443084 -0.106439 0.012124 
-0.077186 -0.109943 0.0222675 -0.0482633 -0.110352 0.0145199 -0.05572 -0.112147 0.0412383 
-0.039701 -0.110826 0.0287972 -0.0317515 -0.0994251 0.0302166 -0.0347622 -0.10489 0.0242852 
-0.0507654 -0.096846 0.0162125 -0.0377482 -0.0966991 0.0269136 -0.0344795 -0.0971823 0.0321328 
-0.0599718 -0.112212 0.0402396 -0.0571127 -0.100263 0.028026 -0.0630912 -0.112178 0.038822 
-0.0368955 -0.108868 0.0350949 -0.0604797 -0.111737 0.0144504 -0.0466608 -0.111353 0.0378877 
-0.0793224 -0.109361 0.0166295 -0.036768 -0.109562 0.0265149 -0.0674177 -0.112018 0.0359225 
-0.0475882 -0.107945 0.0379403 -0.0733785 -0.111617 0.0304133 -0.054519 -0.103152 0.00982478 
-0.0643201 -0.112298 0.0249583 -0.0482215 -0.112811 0.0350745 -0.046659 -0.0994173 0.0319616 
-0.045364 -0.112798 0.0287871 -0.0733039 -0.102856 0.0221794 -0.0765725 -0.111358 0.027095 
-0.0349484 -0.103592 0.0205853 -0.0576006 -0.102493 0.0104098 -0.0669157 -0.112359 0.0389509 
-0.0653961 -0.0979811 0.013179 
VERTICES 100 200
1 0 
1 1 
1 2 
1 3 
1 4 
1 5 
1 6 
1 7 
1 8 
1 9 
1 10 
1 11 
1 12 
1 13 
1 14 
1 15 
1 16 
1 17 
1 18 
1 19 
1 20 
1 21 
1 22 
1 23 
1 24 
1 25 
1 26 
1 27 
1 28 
1 29 
1 30 
1 31 
1 32 
1 33 
1 34 
1 35 
1 36 
1 37 
1 38 
1 39 
1 40 
1 41 
1 42 
1 43 
1 44 
1 45 
1 46 
1 47 
1 48 
1 49 
1 50 
1 51 
1 52 
1 53 
1 54 
1 55 
1 56 
1 57 
1 58 
1 59 
1 60 
1 61 
1 62 
1 63 
1 64 
1 65 
1 66 
1 67 
1 68 
1 69 
1 70 
1 71 
1 72 
1 73 
1 74 
1 75 
1 76 
1 77 
1 78 
1 79 
1 80 
1 81 
1 82 
1 83 
1 84 
1 85 
1 86 
1 87 
1 88 
1 89 
1 90 
1 91 
1 92 
1 93 
1 94 
1 95 
1 96 
1 97 
1 98 
1 99 

POINT_DATA 100
FIELD FieldData 7
id 1 100 int
1 2 3 4 5 6 7 8 9 
10 11 12 13 14 15 16 17 18 
19 20 21 22 23 24 25 26 27 
28 29 30 31 32 33 34 35 36 
37 38 39 40 41 42 43 44 45 
46 47 48 49 50 51 52 53 54 
55 56 57 58 59 60 61 62 63 
64 65 66 67 68 69 70 71 72 
73 74 75 76 77 78 79 80 81 
82 83 84 85 86 87 88 89 90 
91 92 93 94 95 96 97 98 99 
100 
mol 1 100 int
1 1 1 1 1 1 1 1 1 
1 1 1 1 1 1 1 1 1 
1 1 1 1 1 1 1 1 1 
1 1 1 1 1 1 1 1 1 
1 1 1 1 1 1 1 1 1 
1 1 1 1 1 2 2 2 2 
2 2 2 2 2 2 2 2 2 
2 2 2 2 2 2 2 2 2 
2 2 2 2 2 2 2 2 2 
2 2 2 2 2 2 2 2 2 
2 2 2 2 2 2 2 2 2 
2 
type 1 100 int
1 1 1 1 1 1 1 1 1 
1 1 1 1 1 1 1 1 1 
1 1 1 1 1 1 1 1 1 
1 1 1 1 1 1 1 1 1 
1 1 1 1 1 1 1 1 1 
1 1 1 1 1 1 1 1 1 
1 1 1 1 1 1 1 1 1 
1 1 1 1 1 1 1 1 1 
1 1 1 1 1 1 1 1 1 
1 1 1 1 1 1 1 1 1 
1 1 1 1 1 1 1 1 1 
1 
v 3 100 double
-0.121327 -0.0625389 -0.0782599 -0.102641 -0.0621124 -0.151414 -0.0983657 -0.0651351 -0.222868 
-0.179088 -0.0795248 -0.126902 -0.177131 -0.0733653 -0.0273273 -0.165176 -0.0796385 -0.188925 
-0.144102 -0.0789419 -0.267644 -0.195401 -0.0803618 -0.0711866 -0.0899493 -0.0667468 -0.287449 
-0.0524395 -0.0469898 -0.10283 -0.218297 -0.0916511 -0.17037 -0.181766 -0.0866424 -0.240166 
-0.0532341 -0.0490963 -0.136341 -0.233976 -0.0933587 -0.13266 -0.0598634 -0.0532864 -0.181217 
-0.206051 -0.0910765 -0.213137 -0.211227 -0.0843659 -0.0731198 -0.0775726 -0.0623018 -0.262903 
-0.0471944 -0.0442483 -0.0773839 -0.122941 -0.0764166 -0.31467 -0.0633871 -0.050199 -0.11187 
-0.253264 -0.0998571 -0.163396 -0.163073 -0.0711824 -0.049706 -0.175983 -0.0699928 0.0268633 
-0.132454 -0.061102 -0.00504741 -0.0806135 -0.054078 -0.105563 -0.154484 -0.0668821 -0.0113551 
-0.190792 -0.0744951 0.0118069 -0.246823 -0.100005 -0.193783 -0.164101 -0.0774142 -0.154556 
-0.237274 -0.098925 -0.216046 -0.207972 -0.0808413 -0.025353 -0.0642983 -0.0554955 -0.200821 
-0.228393 -0.0900316 -0.0984071 -0.0835237 -0.0675755 -0.329708 -0.146894 -0.0659121 -0.0270934 
-0.217454 -0.0958067 -0.246882 -0.230131 -0.0904918 -0.0989743 -0.17948 -0.0888818 -0.289299 
-0.0336655 -0.0447346 -0.144289 -0.139167 -0.0754247 -0.227259 -0.208175 -0.08586 -0.112488 
-0.190671 -0.079609 -0.0783942 -0.163175 -0.0736918 -0.0932738 -0.124253 -0.0744624 -0.274735 
-0.156552 -0.0845353 -0.312012 -0.106727 -0.0547517 -0.00469698 -0.0385275 -0.0471035 -0.164853 
-0.238718 -0.100841 -0.243424 -0.0609827 -0.0552979 -0.211662 -0.120385 -0.0621716 -0.126529 
-0.100435 -0.061616 -0.197955 -0.0946876 -0.0644445 -0.268056 -0.175974 -0.0786908 -0.175605 
-0.176297 -0.072867 -0.0777914 -0.160951 -0.0786835 -0.236203 -0.138537 -0.0778538 -0.313043 
-0.19314 -0.0795944 -0.121201 -0.0850002 -0.0658978 -0.331292 -0.0523135 -0.0469341 -0.149144 
-0.213422 -0.0904513 -0.219141 -0.176063 -0.0854273 -0.286882 -0.0524689 -0.0489642 -0.182158 
-0.2296 -0.0921816 -0.18243 -0.057972 -0.0529747 -0.226376 -0.200451 -0.0898053 -0.26086 
-0.208807 -0.0835595 -0.123587 -0.0735722 -0.0616463 -0.307027 -0.0475642 -0.0442535 -0.123917 
-0.1167 -0.0752847 -0.358726 -0.0625983 -0.0499823 -0.158089 -0.24783 -0.0984751 -0.213044 
-0.161783 -0.0706247 -0.0992931 -0.176452 -0.0696952 -0.0246011 -0.132868 -0.0608899 -0.054837 
-0.0800534 -0.0539069 -0.152577 -0.154605 -0.0666065 -0.0617159 -0.190733 -0.0740942 -0.039783 
-0.24085 -0.0985655 -0.24275 -0.160851 -0.0766292 -0.202562 -0.230997 -0.0974692 -0.264406 
-0.206444 -0.080138 -0.0764396 -0.0615331 -0.054996 -0.245479 -0.22484 -0.0889813 -0.148635 
-0.0776992 -0.0666103 -0.372608 -0.146427 -0.0655178 -0.0767303 -0.210881 -0.0943639 -0.294251 
-0.226637 -0.0894601 -0.149305 -0.1727 -0.0875148 -0.335063 -0.0329401 -0.0446391 -0.189413 
-0.134442 -0.0744487 -0.273165 -0.204645 -0.0848609 -0.161973 -0.188602 -0.0789197 -0.128359 
-0.160884 -0.0729862 -0.14206 -0.119064 -0.0735044 -0.31967 -0.14971 -0.0832229 -0.356857 
-0.107659 -0.0546867 -0.0539287 -0.0372897 -0.0469267 -0.209743 -0.231818 -0.0992945 -0.291336 
-0.0584606 -0.0549025 -0.256348 
f 3 100 double
0 0 0 0 0 0 0 0 0 
0 0 0 0 0 0 0 0 0 
0 0 0 0 0 0 0 0 0 
0 0 0 0 0 0 0 0 0 
0 0 0 0 0 0 0 0 0 
0 0 0 0 0 0 0 0 0 
0 0 0 0 0 0 0 0 0 
0 0 0 0 0 0 0 0 0 
0 0 0 0 0 0 0 0 0 
0 0 0 0 0 0 0 0 0 
0 0 0 0 0 0 0 0 0 
0 0 0 0 0 0 0 0 0 
0 0 0 0 0 0 0 0 0 
0 0 0 0 0 0 0 0 0 
0 0 0 0 0 0 0 0 0 
0 0 0 0 0 0 0 0 0 
0 0 0 0 0 0 0 0 0 
0 0 0 0 0 0 0 0 0 
0 0 0 0 0 0 0 0 0 
0 0 0 0 0 0 0 0 0 
0 0 0 0 0 0 0 0 0 
0 0 0 0 0 0 0 0 0 
0 0 0 0 0 0 0 0 0 
0 0 0 0 0 0 0 0 0 
0 0 0 0 0 0 0 0 0 
0 0 0 0 0 0 0 0 0 
0 0 0 0 0 0 0 0 0 
0 0 0 0 0 0 0 0 0 
0 0 0 0 0 0 0 0 0 
0 0 0 0 0 0 0 0 0 
0 0 0 0 0 0 0 0 0 
0 0 0 0 0 0 0 0 0 
0 0 0 0 0 0 0 0 0 
0 0 0 
radius 1 100 double
0.010434 0.00981478 0.00892069 0.00845937 0.00731974 0.00728422 0.00643447 0.00619172 0.00585956 
0.00577566 0.00537241 0.00522549 0.00513666 0.00473175 0.00466912 0.00444866 0.00441894 0.00400812 
0.00385622 0.00379948 0.00370243 0.00366942 0.00364039 0.00363813 0.00363644 0.00358692 0.0035797 
0.00341284 0.00337012 0.00336273 0.00332772 0.00323261 0.00320584 0.00320311 0.00318808 0.00313116 
0.00306026 0.00305632 0.00304383 0.00300958 0.00300137 0.00298994 0.0029567 0.00295111 0.00290849 
0.00284552 0.00282964 0.0028207 0.00281971 0.00281899 0.010434 0.00981478 0.00892069 0.00845937 
0.00731974 0.00728422 0.00643447 0.00619172 0.00585956 0.00577566 0.00537241 0.00522549 0.00513666 
0.00473175 0.00466912 0.00444866 0.00441894 0.00400812 0.00385622 0.00379948 0.00370243 0.00366942 
0.00364039 0.00363813 0.00363644 0.00358692 0.0035797 0.00341284 0.00337012 0.00336273 0.00332772 
0.00323261 0.00320584 0.00320311 0.00318808 0.00313116 0.00306026 0.00305632 0.00304383 0.00300958 
0.00300137 0.00298994 0.0029567 0.00295111 0.00290849 0.00284552 0.00282964 0.0028207 0.00281971 
0.00281899 
omega 3 100 double
1.74366 -7.08651 0.404093 1.74366 -7.08651 0.404093 1.74366 -7.08651 0.404093 
1.74366 -7.08651 0.404093 1.74366 -7.08651 0.404093 1.74366 -7.08651 0.404093 
1.74366 -7.08651 0.404093 1.74366 -7.08651 0.404093 1.74366 -7.08651 0.404093 
1.74366 -7.08651 0.404093 1.74366 -7.08651 0.404093 1.74366 -7.08651 0.404093 
1.74366 -7.08651 0.404093 1.74366 -7.08651 0.404093 1.74366 -7.08651 0.404093 
1.74366 -7.08651 0.404093 1.74366 -7.08651 0.404093 1.74366 -7.08651 0.404093 
1.74366 -7.08651 0.404093 1.74366 -7.08651 0.404093 1.74366 -7.08651 0.404093 
1.74366 -7.08651 0.404093 1.74366 -7.08651 0.404093 1.74366 -7.08651 0.404093 
1.74366 -7.08651 0.404093 1.74366 -7.08651 0.404093 1.74366 -7.08651 0.404093 
1.74366 -7.08651 0.404093 1.74366 -7.08651 0.404093 1.74366 -7.08651 0.404093 
1.74366 -7.08651 0.404093 1.74366 -7.08651 0.404093 1.74366 -7.08651 0.404093 
1.74366 -7.08651 0.404093 1.74366 -7.08651 0.404093 1.74366 -7.08651 0.404093 
1.74366 -7.08651 0.404093 1.74366 -7.08651 0.404093 1.74366 -7.08651 0.404093 
1.74366 -7.08651 0.404093 1.74366 -7.08651 0.404093 1.74366 -7.08651 0.404093 
1.74366 -7.08651 0.404093 1.74366 -7.08651 0.404093 1.74366 -7.08651 0.404093 
1.74366 -7.08651 0.404093 1.74366 -7.08651 0.404093 1.74366 -7.08651 0.404093 
1.74366 -7.08651 0.404093 1.74366 -7.08651 0.404093 1.69772 -6.96095 0.420055 
1.69772 -6.96095 0.420055 1.69772 -6.96095 0.420055 1.69772 -6.96095 0.420055 
1.69772 -6.96095 0.420055 1.69772 -6.96095 0.420055 1.69772 -6.96095 0.420055 
1.69772 -6.96095 0.420055 1.69772 -6.96095 0.420055 1.69772 -6.96095 0.420055 
1.69772 -6.96095 0.420055 1.69772 -6.96095 0.420055 1.69772 -6.96095 0.420055 
1.69772 -6.96095 0.420055 1.69772 -6.96095 0.420055 1.69772 -6.96095 0.420055 
1.69772 -6.96095 0.420055 1.69772 -6.96095 0.420055 1.69772 -6.96095 0.420055 
1.69772 -6.96095 0.420055 1.69772 -6.96095 0.420055 1.69772 -6.96095 0.420055 
1.69772 -6.96095 0.420055 1.69772 -6.96095 0.420055 1.69772 -6.96095 0.420055 
1.69772 -6.96095 0.420055 1.69772 -6.96095 0.420055 1.69772 -6.96095 0.420055 
1.69772 -6.96095 0.420055 1.69772 -6.96095 0.420055 1.69772 -6.96095 0.420055 
1.69772 -6.96095 0.420055 1.69772 -6.96095 0.420055 1.69772 -6.96095 0.420055 
1.69772 -6.96095 0.420055 1.69772 -6.96095 0.420055 1.69772 -6.96095 0.420055 
1.69772 -6.96095 0.420055 1.69772 -6.96095 0.420055 1.69772 -6.96095 0.420055 
1.69772 -6.96095 0.420055 1.69772 -6.96095 0.420055 1.69772 -6.96095 0.420055 
1.69772 -6.96095 0.420055 1.69772 -6.96095 0.420055 1.69772 -6.96095 0.420055 
1.69772 -6.96095 0.420055 1.69772 -6.96095 0.420055 1.69772 -6.96095 0.420055 
1.69772 -6.96095 0.420055 
