# vtk DataFile Version 4.0
Generated by LIGGGHTS
ASCII
DATASET POLYDATA
POINTS 100 float
-0.119951 -0.137447 0.0186847 -0.128851 -0.137305 0.0131977 -0.138256 -0.136971 0.00973836 
-0.128401 -0.140879 0.0241452 -0.115598 -0.138397 0.0281831 -0.135988 -0.140979 0.019732 
-0.145545 -0.140717 0.0137082 -0.121151 -0.14346 0.0283673 -0.146389 -0.137321 0.00593666 
-0.121085 -0.1325 0.00888389 -0.135074 -0.145187 0.0272359 -0.143063 -0.143368 0.019645 
-0.126395 -0.129029 0.00795585 -0.130409 -0.146843 0.0307266 -0.132448 -0.13011 0.00691326 
-0.140146 -0.145401 0.0238219 -0.123386 -0.138161 0.0309263 -0.144036 -0.130771 0.00590006 
-0.116293 -0.137471 0.00873994 -0.150657 -0.141373 0.00887807 -0.120714 -0.141595 0.00911692 
-0.135038 -0.148535 0.0319062 -0.116284 -0.145452 0.0247016 -0.109097 -0.135004 0.0305652 
-0.110365 -0.138961 0.023025 -0.123687 -0.12863 0.0129354 -0.114012 -0.131357 0.0264613 
-0.112257 -0.133076 0.0321287 -0.138867 -0.14818 0.0298333 -0.132938 -0.134109 0.0216482 
-0.141493 -0.147697 0.0276858 -0.115283 -0.144988 0.0317833 -0.132454 -0.142328 0.00553938 
-0.12542 -0.147512 0.0313088 -0.15121 -0.139526 0.00313594 -0.112857 -0.143889 0.0235967 
-0.144886 -0.146723 0.023853 -0.126355 -0.144148 0.031842 -0.149157 -0.14489 0.0171864 
-0.125542 -0.133276 0.00459066 -0.138963 -0.144871 0.0142939 -0.126158 -0.148274 0.0279399 
-0.123927 -0.13462 0.0282836 -0.121721 -0.147095 0.02278 -0.146951 -0.134624 0.0113312 
-0.151347 -0.143789 0.013279 -0.109564 -0.136914 0.0197726 -0.128673 -0.1326 0.00447069 
-0.145211 -0.147711 0.0267614 -0.136961 -0.128382 0.00598709 -0.0511316 -0.109548 0.0186612 
-0.0600679 -0.109426 0.013233 -0.0695027 -0.10927 0.00984282 -0.0593886 -0.113697 0.0239157 
-0.0466754 -0.110938 0.0280569 -0.0669953 -0.113831 0.0195373 -0.0765964 -0.113582 0.0135842 
-0.0520052 -0.116237 0.0279261 -0.0776397 -0.109716 0.00606022 -0.0525461 -0.104014 0.00921699 
-0.0658497 -0.118485 0.02674 -0.0739619 -0.116512 0.0193206 -0.0580054 -0.100722 0.00854465 
-0.0610935 -0.120167 0.0300929 -0.0640136 -0.101992 0.00745752 -0.0709314 -0.118691 0.0233404 
-0.0544475 -0.111221 0.0308421 -0.07557 -0.103083 0.00645079 -0.0475468 -0.108753 0.00872178 
-0.0817103 -0.114136 0.00874253 -0.0517838 -0.11308 0.00884123 -0.0656376 -0.122131 0.0311763 
-0.0470835 -0.11777 0.0241153 -0.0403095 -0.107434 0.0306328 -0.0414601 -0.110931 0.0228508 
-0.055282 -0.100538 0.0135284 -0.0454048 -0.103738 0.0268018 -0.0435376 -0.105752 0.0323346 
-0.0694922 -0.121805 0.0291477 -0.0642287 -0.106979 0.0218948 -0.0721515 -0.121294 0.0270482 
-0.0460538 -0.117734 0.031208 -0.0635066 -0.11408 0.00527172 -0.0560757 -0.120656 0.0306084 
-0.0823824 -0.111936 0.00313876 -0.0437346 -0.115989 0.0231029 -0.07561 -0.120215 0.023303 
-0.0571502 -0.117379 0.0313687 -0.0800022 -0.11813 0.0167914 -0.0569951 -0.104695 0.00490016 
-0.0698395 -0.117478 0.0138642 -0.0568046 -0.121224 0.0271993 -0.0551579 -0.10754 0.0284438 
-0.0524589 -0.119515 0.022111 -0.0782788 -0.107411 0.0116249 -0.0822655 -0.116867 0.0129753 
-0.0407705 -0.10864 0.0197389 -0.0601528 -0.104148 0.00483858 -0.0758716 -0.121407 0.0261404 
-0.0686033 -0.100402 0.0066675 
VERTICES 100 200
1 0 
1 1 
1 2 
1 3 
1 4 
1 5 
1 6 
1 7 
1 8 
1 9 
1 10 
1 11 
1 12 
1 13 
1 14 
1 15 
1 16 
1 17 
1 18 
1 19 
1 20 
1 21 
1 22 
1 23 
1 24 
1 25 
1 26 
1 27 
1 28 
1 29 
1 30 
1 31 
1 32 
1 33 
1 34 
1 35 
1 36 
1 37 
1 38 
1 39 
1 40 
1 41 
1 42 
1 43 
1 44 
1 45 
1 46 
1 47 
1 48 
1 49 
1 50 
1 51 
1 52 
1 53 
1 54 
1 55 
1 56 
1 57 
1 58 
1 59 
1 60 
1 61 
1 62 
1 63 
1 64 
1 65 
1 66 
1 67 
1 68 
1 69 
1 70 
1 71 
1 72 
1 73 
1 74 
1 75 
1 76 
1 77 
1 78 
1 79 
1 80 
1 81 
1 82 
1 83 
1 84 
1 85 
1 86 
1 87 
1 88 
1 89 
1 90 
1 91 
1 92 
1 93 
1 94 
1 95 
1 96 
1 97 
1 98 
1 99 

POINT_DATA 100
FIELD FieldData 7
id 1 100 int
1 2 3 4 5 6 7 8 9 
10 11 12 13 14 15 16 17 18 
19 20 21 22 23 24 25 26 27 
28 29 30 31 32 33 34 35 36 
37 38 39 40 41 42 43 44 45 
46 47 48 49 50 51 52 53 54 
55 56 57 58 59 60 61 62 63 
64 65 66 67 68 69 70 71 72 
73 74 75 76 77 78 79 80 81 
82 83 84 85 86 87 88 89 90 
91 92 93 94 95 96 97 98 99 
100 
mol 1 100 int
1 1 1 1 1 1 1 1 1 
1 1 1 1 1 1 1 1 1 
1 1 1 1 1 1 1 1 1 
1 1 1 1 1 1 1 1 1 
1 1 1 1 1 1 1 1 1 
1 1 1 1 1 2 2 2 2 
2 2 2 2 2 2 2 2 2 
2 2 2 2 2 2 2 2 2 
2 2 2 2 2 2 2 2 2 
2 2 2 2 2 2 2 2 2 
2 2 2 2 2 2 2 2 2 
2 
type 1 100 int
1 1 1 1 1 1 1 1 1 
1 1 1 1 1 1 1 1 1 
1 1 1 1 1 1 1 1 1 
1 1 1 1 1 1 1 1 1 
1 1 1 1 1 1 1 1 1 
1 1 1 1 1 1 1 1 1 
1 1 1 1 1 1 1 1 1 
1 1 1 1 1 1 1 1 1 
1 1 1 1 1 1 1 1 1 
1 1 1 1 1 1 1 1 1 
1 1 1 1 1 1 1 1 1 
1 
v 3 100 double
-0.0288863 -0.139258 -0.0100033 -0.0333783 -0.0985635 -0.00166951 -0.0360014 -0.0696665 0.00825044 
-0.0272275 -0.164973 -0.0236009 -0.0217128 -0.200263 -0.0193935 -0.0310232 -0.131877 -0.0178282 
-0.0358635 -0.0873835 -0.00821423 -0.0258822 -0.196631 -0.0452604 -0.0394954 -0.0397913 0.0129826 
-0.0329005 -0.0791783 0.0207846 -0.0283087 -0.177915 -0.0439734 -0.0331368 -0.125309 -0.0262884 
-0.0307165 -0.0690465 0.0461792 -0.0267889 -0.202952 -0.0578842 -0.032516 -0.0575886 0.0447493 
-0.0313616 -0.152992 -0.0410007 -0.0192051 -0.210155 -0.011422 -0.0339322 -0.04158 0.0505059 
-0.0372676 -0.082403 -0.0132267 -0.0404838 -0.0538856 -0.00786884 -0.0404732 -0.0809011 -0.0343843 
-0.0272422 -0.206112 -0.0641962 -0.0306659 -0.178679 -0.0613703 -0.0168128 -0.220181 -0.00439808 
-0.0265307 -0.173622 -0.0271928 -0.026189 -0.101392 0.0463129 -0.0171477 -0.191232 0.0217311 
-0.0138517 -0.226913 0.00988588 -0.0286814 -0.190341 -0.0588353 -0.0235445 -0.146039 0.0210422 
-0.0300741 -0.175146 -0.0537141 -0.024316 -0.222244 -0.0594107 -0.0441065 -0.049297 -0.028934 
-0.0268706 -0.210725 -0.0661119 -0.0437333 -0.0187813 0.00373697 -0.030259 -0.174941 -0.0548188 
-0.0324649 -0.149131 -0.0449913 -0.0235491 -0.213142 -0.0450371 -0.0365037 -0.105276 -0.030346 
-0.0371726 -0.049479 0.0198494 -0.0389185 -0.0965376 -0.0387967 -0.0303534 -0.189776 -0.0700863 
-0.0184025 -0.193754 0.0103873 -0.0336846 -0.162445 -0.0667081 -0.0326569 -0.0718465 0.029721 
-0.038848 -0.0798389 -0.0218628 -0.0275165 -0.15469 -0.0155205 -0.0366962 -0.0460813 0.0265577 
-0.0308634 -0.166395 -0.0506746 -0.0318187 -0.0481477 0.0589659 -0.0388287 -0.122974 -0.0411066 
-0.048956 -0.0872843 -0.0236377 -0.0553218 -0.0669389 -0.00498191 -0.0269906 -0.166055 -0.0565246 
-0.0207033 -0.190308 -0.0596688 -0.035042 -0.137469 -0.0434138 -0.0462072 -0.098227 -0.0237662 
-0.0182717 -0.192029 -0.0890283 -0.0621111 -0.0430322 0.0068015 -0.0591348 -0.0537466 0.00249597 
-0.0193367 -0.190232 -0.0800028 -0.0340909 -0.13938 -0.0503505 -0.0620429 -0.0515226 0.0369998 
-0.0122704 -0.212663 -0.101276 -0.0634183 -0.0465037 0.0387403 -0.0255373 -0.16762 -0.0721007 
-0.0153955 -0.214857 -0.0473541 -0.0647342 -0.0448802 0.0520852 -0.0576614 -0.0475562 -0.0418722 
-0.0549066 -0.0649512 -0.0183788 -0.0552561 -0.0505791 -0.0660608 -0.00926966 -0.22298 -0.1074 
-0.0245649 -0.161324 -0.109506 -0.0176949 -0.206172 -0.0455232 -0.0303609 -0.149121 -0.0692904 
-0.052894 -0.0870568 0.0333147 -0.0266645 -0.180372 -0.00870004 -0.0153877 -0.220405 -0.0270838 
-0.0131964 -0.209902 -0.0978337 -0.0341287 -0.153532 0.0022061 -0.0173476 -0.195695 -0.0891185 
-0.0114301 -0.213331 -0.111153 -0.061371 -0.0300603 -0.0517246 -0.0110672 -0.213948 -0.114209 
-0.0664082 -0.02379 -0.000845977 -0.0273409 -0.152136 -0.102531 -0.0248371 -0.169704 -0.0747178 
-0.0113113 -0.220121 -0.0879433 -0.0379649 -0.123698 -0.0511253 -0.0667964 -0.0240223 0.00570418 
-0.0437222 -0.0968906 -0.0651425 -0.0171026 -0.189069 -0.11706 -0.021701 -0.197454 -0.0187695 
-0.0274011 -0.149193 -0.112459 -0.0529554 -0.0845657 0.0250619 -0.0456789 -0.0965785 -0.0375759 
-0.0372881 -0.125727 -0.0536005 -0.0671864 -0.0251599 0.0156073 -0.0189738 -0.19085 -0.0830589 
-0.0656854 -0.0429692 0.0590215 
f 3 100 double
0 0 0 0 0 0 0 0 0 
0 0 0 0 0 0 0 0 0 
0 0 0 0 0 0 0 0 0 
0 0 0 0 0 0 0 0 0 
0 0 0 0 0 0 0 0 0 
0 0 0 0 0 0 0 0 0 
0 0 0 0 0 0 0 0 0 
0 0 0 0 0 0 0 0 0 
0 0 0 0 0 0 0 0 0 
0 0 0 0 0 0 0 0 0 
0 0 0 0 0 0 0 0 0 
0 0 0 0.0700835 -0.000363164 0.140169 0 0 0 
0 0 0 0 0 0 0 0 0 
0 0 0 0 0 0 0 0 0 
0 0 0 0 0 0 0 0 0 
0 0 0 0 0 0 0 0 0 
0 0 0 0 0 0 0 0 0 
0 0 0 0 0 0 0 0 0 
0 0 0 0 0 0 0 0 0 
0 0 0 0 0 0 0 0 0 
0 0 0 0 0 0 0 0 0 
0 0 0 0 0 0 0 0 0 
0 0 0 0 0 0 0 0 0 
0 0 0 0 0 0 0 0 0 
0 0 0 0 0 0 0 0 0 
0 0 0 0 0 0 0 0 0 
0 0 0 0 0 0 0 0 0 
0 0 0 0 0 0 0 0 0 
0.0859206 0.000553923 0.171845 0 0 0 0 0 0 
0 0 0 0 0 0 0 0 0 
0 0 0 0 0 0 0 0 0 
0 0 0 0 0 0 0 0 0 
0 0 0 0 0 0 0 0 0 
0 0 0 
radius 1 100 double
0.010434 0.00981478 0.00892069 0.00845937 0.00731974 0.00728422 0.00643447 0.00619172 0.00585956 
0.00577566 0.00537241 0.00522549 0.00513666 0.00473175 0.00466912 0.00444866 0.00441894 0.00400812 
0.00385622 0.00379948 0.00370243 0.00366942 0.00364039 0.00363813 0.00363644 0.00358692 0.0035797 
0.00341284 0.00337012 0.00336273 0.00332772 0.00323261 0.00320584 0.00320311 0.00318808 0.00313116 
0.00306026 0.00305632 0.00304383 0.00300958 0.00300137 0.00298994 0.0029567 0.00295111 0.00290849 
0.00284552 0.00282964 0.0028207 0.00281971 0.00281899 0.010434 0.00981478 0.00892069 0.00845937 
0.00731974 0.00728422 0.00643447 0.00619172 0.00585956 0.00577566 0.00537241 0.00522549 0.00513666 
0.00473175 0.00466912 0.00444866 0.00441894 0.00400812 0.00385622 0.00379948 0.00370243 0.00366942 
0.00364039 0.00363813 0.00363644 0.00358692 0.0035797 0.00341284 0.00337012 0.00336273 0.00332772 
0.00323261 0.00320584 0.00320311 0.00318808 0.00313116 0.00306026 0.00305632 0.00304383 0.00300958 
0.00300137 0.00298994 0.0029567 0.00295111 0.00290849 0.00284552 0.00282964 0.0028207 0.00281971 
0.00281899 
omega 3 100 double
6.03118 0.840667 -0.854112 6.03118 0.840667 -0.854112 6.03118 0.840667 -0.854112 
6.03118 0.840667 -0.854112 6.03118 0.840667 -0.854112 6.03118 0.840667 -0.854112 
6.03118 0.840667 -0.854112 6.03118 0.840667 -0.854112 6.03118 0.840667 -0.854112 
6.03118 0.840667 -0.854112 6.03118 0.840667 -0.854112 6.03118 0.840667 -0.854112 
6.03118 0.840667 -0.854112 6.03118 0.840667 -0.854112 6.03118 0.840667 -0.854112 
6.03118 0.840667 -0.854112 6.03118 0.840667 -0.854112 6.03118 0.840667 -0.854112 
6.03118 0.840667 -0.854112 6.03118 0.840667 -0.854112 6.03118 0.840667 -0.854112 
6.03118 0.840667 -0.854112 6.03118 0.840667 -0.854112 6.03118 0.840667 -0.854112 
6.03118 0.840667 -0.854112 6.03118 0.840667 -0.854112 6.03118 0.840667 -0.854112 
6.03118 0.840667 -0.854112 6.03118 0.840667 -0.854112 6.03118 0.840667 -0.854112 
6.03118 0.840667 -0.854112 6.03118 0.840667 -0.854112 6.03118 0.840667 -0.854112 
6.03118 0.840667 -0.854112 6.03118 0.840667 -0.854112 6.03118 0.840667 -0.854112 
6.03118 0.840667 -0.854112 6.03118 0.840667 -0.854112 6.03118 0.840667 -0.854112 
6.03118 0.840667 -0.854112 6.03118 0.840667 -0.854112 6.03118 0.840667 -0.854112 
6.03118 0.840667 -0.854112 6.03118 0.840667 -0.854112 6.03118 0.840667 -0.854112 
6.03118 0.840667 -0.854112 6.03118 0.840667 -0.854112 6.03118 0.840667 -0.854112 
6.03118 0.840667 -0.854112 6.03118 0.840667 -0.854112 7.40579 1.85442 0.50467 
7.40579 1.85442 0.50467 7.40579 1.85442 0.50467 7.40579 1.85442 0.50467 
7.40579 1.85442 0.50467 7.40579 1.85442 0.50467 7.40579 1.85442 0.50467 
7.40579 1.85442 0.50467 7.40579 1.85442 0.50467 7.40579 1.85442 0.50467 
7.40579 1.85442 0.50467 7.40579 1.85442 0.50467 7.40579 1.85442 0.50467 
7.40579 1.85442 0.50467 7.40579 1.85442 0.50467 7.40579 1.85442 0.50467 
7.40579 1.85442 0.50467 7.40579 1.85442 0.50467 7.40579 1.85442 0.50467 
7.40579 1.85442 0.50467 7.40579 1.85442 0.50467 7.40579 1.85442 0.50467 
7.40579 1.85442 0.50467 7.40579 1.85442 0.50467 7.40579 1.85442 0.50467 
7.40579 1.85442 0.50467 7.40579 1.85442 0.50467 7.40579 1.85442 0.50467 
7.40579 1.85442 0.50467 7.40579 1.85442 0.50467 7.40579 1.85442 0.50467 
7.40579 1.85442 0.50467 7.40579 1.85442 0.50467 7.40579 1.85442 0.50467 
7.40579 1.85442 0.50467 7.40579 1.85442 0.50467 7.40579 1.85442 0.50467 
7.40579 1.85442 0.50467 7.40579 1.85442 0.50467 7.40579 1.85442 0.50467 
7.40579 1.85442 0.50467 7.40579 1.85442 0.50467 7.40579 1.85442 0.50467 
7.40579 1.85442 0.50467 7.40579 1.85442 0.50467 7.40579 1.85442 0.50467 
7.40579 1.85442 0.50467 7.40579 1.85442 0.50467 7.40579 1.85442 0.50467 
7.40579 1.85442 0.50467 
