# vtk DataFile Version 4.0
Generated by LIGGGHTS
ASCII
DATASET POLYDATA
POINTS 100 float
-0.116669 -0.151426 0.012062 -0.126587 -0.148132 0.0117173 -0.136387 -0.146334 0.0128406 
-0.123721 -0.158745 0.0151765 -0.110072 -0.158829 0.0154883 -0.13214 -0.15628 0.0148675 
-0.142808 -0.152572 0.0145049 -0.116125 -0.16279 0.0134443 -0.145194 -0.144557 0.0128613 
-0.119633 -0.140908 0.0105135 -0.129899 -0.164592 0.0157207 -0.139257 -0.158522 0.0151589 
-0.124328 -0.138614 0.0142276 -0.124795 -0.167787 0.0150552 -0.130524 -0.139182 0.0146497 
-0.13568 -0.16268 0.0151353 -0.116636 -0.161676 0.0196187 -0.141876 -0.140138 0.0170923 
-0.115979 -0.143381 0.00520072 -0.149096 -0.149854 0.0127814 -0.120749 -0.14677 0.00363503 
-0.12913 -0.170286 0.0158606 -0.112877 -0.160673 0.00833934 -0.102691 -0.157785 0.0174552 
-0.106653 -0.154624 0.0104962 -0.120316 -0.141882 0.0165752 -0.107866 -0.152894 0.0193538 
-0.10492 -0.158133 0.0207803 -0.133267 -0.168904 0.0161013 -0.127566 -0.153081 0.0202544 
-0.136266 -0.167248 0.0160299 -0.109884 -0.16571 0.0124668 -0.13297 -0.145817 0.00459193 
-0.120027 -0.168087 0.0133644 -0.150904 -0.144341 0.0110429 -0.10968 -0.158449 0.00784594 
-0.140377 -0.164076 0.015593 -0.120197 -0.166486 0.0165081 -0.14596 -0.158284 0.0144428 
-0.125172 -0.138604 0.0088078 -0.13712 -0.154888 0.00968835 -0.12179 -0.166062 0.0110704 
-0.117286 -0.157477 0.0209468 -0.11883 -0.160849 0.00764116 -0.143772 -0.14707 0.0181861 
-0.148932 -0.154837 0.0136939 -0.106455 -0.150744 0.00993138 -0.128052 -0.138442 0.0102044 
-0.140041 -0.16697 0.0166183 -0.134759 -0.137896 0.0168009 -0.0465409 -0.121076 0.0118194 
-0.0566885 -0.118567 0.0120801 -0.0665086 -0.117518 0.0138117 -0.0527873 -0.128876 0.0154449 
-0.0391817 -0.127897 0.0148836 -0.061376 -0.127076 0.0156529 -0.0723032 -0.124212 0.01594 
-0.0450229 -0.132343 0.013267 -0.0754087 -0.11643 0.0143799 -0.0504116 -0.110842 0.0103683 
-0.0584415 -0.135176 0.0164363 -0.0682633 -0.129859 0.0164194 -0.0550276 -0.108868 0.0143543 
-0.053156 -0.137975 0.0154746 -0.0611212 -0.109909 0.0151771 -0.0643802 -0.133727 0.0162047 
-0.0452286 -0.131185 0.0194511 -0.0721869 -0.111708 0.0183497 -0.046917 -0.113099 0.00485528 
-0.078881 -0.122015 0.0145978 -0.0514964 -0.116869 0.00362881 -0.0572224 -0.14079 0.0165784 
-0.0422791 -0.130052 0.0079457 -0.0317958 -0.126255 0.0163646 -0.0364237 -0.123509 0.00964489 
-0.0506316 -0.111781 0.0164698 -0.0372074 -0.121755 0.0185459 -0.0337762 -0.126728 0.0198285 
-0.0614313 -0.139731 0.0170707 -0.0567358 -0.123457 0.0207068 -0.0645493 -0.138314 0.0171764 
-0.0386465 -0.134783 0.0119187 -0.0636692 -0.116854 0.005357 -0.0484951 -0.137928 0.013485 
-0.0812214 -0.116683 0.0129287 -0.0393036 -0.127594 0.00722861 -0.0689148 -0.135476 0.0169746 
-0.0485909 -0.136301 0.0166184 -0.0749959 -0.130152 0.0161316 -0.0562099 -0.108999 0.0089997 
-0.0667672 -0.126147 0.0107906 -0.0505527 -0.136077 0.0112903 -0.04612 -0.127032 0.0207799 
-0.0482322 -0.130699 0.00763148 -0.0734612 -0.11875 0.0196253 -0.0782705 -0.126956 0.0155432 
-0.036566 -0.119634 0.00903342 -0.0590003 -0.109042 0.0105763 -0.0682901 -0.138321 0.0180025 
-0.0652996 -0.108925 0.0175831 
VERTICES 100 200
1 0 
1 1 
1 2 
1 3 
1 4 
1 5 
1 6 
1 7 
1 8 
1 9 
1 10 
1 11 
1 12 
1 13 
1 14 
1 15 
1 16 
1 17 
1 18 
1 19 
1 20 
1 21 
1 22 
1 23 
1 24 
1 25 
1 26 
1 27 
1 28 
1 29 
1 30 
1 31 
1 32 
1 33 
1 34 
1 35 
1 36 
1 37 
1 38 
1 39 
1 40 
1 41 
1 42 
1 43 
1 44 
1 45 
1 46 
1 47 
1 48 
1 49 
1 50 
1 51 
1 52 
1 53 
1 54 
1 55 
1 56 
1 57 
1 58 
1 59 
1 60 
1 61 
1 62 
1 63 
1 64 
1 65 
1 66 
1 67 
1 68 
1 69 
1 70 
1 71 
1 72 
1 73 
1 74 
1 75 
1 76 
1 77 
1 78 
1 79 
1 80 
1 81 
1 82 
1 83 
1 84 
1 85 
1 86 
1 87 
1 88 
1 89 
1 90 
1 91 
1 92 
1 93 
1 94 
1 95 
1 96 
1 97 
1 98 
1 99 

POINT_DATA 100
FIELD FieldData 7
id 1 100 int
1 2 3 4 5 6 7 8 9 
10 11 12 13 14 15 16 17 18 
19 20 21 22 23 24 25 26 27 
28 29 30 31 32 33 34 35 36 
37 38 39 40 41 42 43 44 45 
46 47 48 49 50 51 52 53 54 
55 56 57 58 59 60 61 62 63 
64 65 66 67 68 69 70 71 72 
73 74 75 76 77 78 79 80 81 
82 83 84 85 86 87 88 89 90 
91 92 93 94 95 96 97 98 99 
100 
mol 1 100 int
1 1 1 1 1 1 1 1 1 
1 1 1 1 1 1 1 1 1 
1 1 1 1 1 1 1 1 1 
1 1 1 1 1 1 1 1 1 
1 1 1 1 1 1 1 1 1 
1 1 1 1 1 2 2 2 2 
2 2 2 2 2 2 2 2 2 
2 2 2 2 2 2 2 2 2 
2 2 2 2 2 2 2 2 2 
2 2 2 2 2 2 2 2 2 
2 2 2 2 2 2 2 2 2 
2 
type 1 100 int
1 1 1 1 1 1 1 1 1 
1 1 1 1 1 1 1 1 1 
1 1 1 1 1 1 1 1 1 
1 1 1 1 1 1 1 1 1 
1 1 1 1 1 1 1 1 1 
1 1 1 1 1 1 1 1 1 
1 1 1 1 1 1 1 1 1 
1 1 1 1 1 1 1 1 1 
1 1 1 1 1 1 1 1 1 
1 1 1 1 1 1 1 1 1 
1 1 1 1 1 1 1 1 1 
1 
v 3 100 double
-0.0103941 -0.186057 -0.0677644 -0.00735429 -0.17225 -0.0233143 -0.00639358 -0.180716 -0.00137599 
-0.0184025 -0.226979 -0.182072 -0.0186417 -0.243524 -0.176062 -0.0160998 -0.215012 -0.149328 
-0.0126914 -0.200284 -0.099025 -0.020986 -0.207405 -0.239105 -0.00486388 -0.173393 0.0207614 
-0.000447375 -0.160099 0.0895036 -0.0237631 -0.22984 -0.273673 -0.0181995 -0.21324 -0.186985 
-0.000439303 -0.212122 0.121638 -0.0261785 -0.224215 -0.319198 -0.00115684 -0.213123 0.109758 
-0.0217927 -0.215986 -0.247876 -0.0233129 -0.300212 -0.222552 -0.00328873 -0.240169 0.0892621 
0.00024137 -0.0830316 0.054102 -0.00941515 -0.168803 -0.0613267 -0.00186238 -0.0552489 0.000376636 
-0.0287747 -0.23262 -0.359245 -0.0164274 -0.133123 -0.205396 -0.0187851 -0.27963 -0.156354 
-0.0123324 -0.171094 -0.110724 -0.00452499 -0.251056 0.0744264 -0.0155564 -0.303816 -0.0852492 
-0.0208601 -0.327915 -0.162797 -0.0277053 -0.232667 -0.340592 -0.0161989 -0.300334 -0.0985798 
-0.0262313 -0.228989 -0.317183 -0.0229967 -0.198054 -0.279874 -0.00154684 -0.0591034 0.00824251 
-0.0255373 -0.202815 -0.321193 -0.00370684 -0.140979 0.0209776 -0.0142358 -0.128443 -0.170105 
-0.0232472 -0.218826 -0.271461 -0.0258254 -0.250145 -0.297102 -0.0176112 -0.196614 -0.186965 
0.00246042 -0.129536 0.12135 -0.0121307 -0.132473 -0.130963 -0.0225571 -0.16664 -0.291538 
-0.0203804 -0.319706 -0.159491 -0.0162076 -0.117416 -0.211228 -0.00988279 -0.255045 -0.0164317 
-0.0142224 -0.182726 -0.136488 -0.00866688 -0.162736 -0.0520255 0.00185541 -0.148132 0.122249 
-0.0263037 -0.234601 -0.314993 -0.00118903 -0.24194 0.126919 0.0255044 -0.157657 -0.0657605 
0.0287036 -0.150738 -0.00783316 0.03414 -0.163082 0.0304718 0.0267658 -0.197995 -0.150372 
0.0263393 -0.204547 -0.17214 0.029114 -0.191975 -0.105504 0.0327385 -0.184606 -0.0410472 
0.0177531 -0.177827 -0.214611 0.0366773 -0.161382 0.066964 0.0322005 -0.135062 0.0757278 
0.0228907 -0.205029 -0.217178 0.0282324 -0.194867 -0.123925 0.0442695 -0.18169 0.1128 
0.017628 -0.198004 -0.266544 0.0452943 -0.186109 0.114798 0.0237734 -0.196035 -0.183518 
0.0345483 -0.25721 -0.199192 0.0514872 -0.215737 0.119592 0.0159879 -0.0676456 0.0378575 
0.0315731 -0.160672 0.00385641 0.00907175 -0.0472236 0.000900317 0.0175654 -0.208092 -0.292511 
0.00662938 -0.112117 -0.192055 0.0317427 -0.231087 -0.169676 0.0175473 -0.139915 -0.122636 
0.0466642 -0.213369 0.0641977 0.0418108 -0.253682 -0.0980762 0.0400146 -0.273663 -0.170761 
0.0198818 -0.210167 -0.268244 0.0455465 -0.26172 -0.0706466 0.0215836 -0.20837 -0.242128 
0.0118759 -0.16693 -0.262127 0.0134528 -0.0571407 0.0318436 0.0126488 -0.177116 -0.277718 
0.0327547 -0.136819 0.07839 0.00730656 -0.1059 -0.167938 0.0239472 -0.201353 -0.194577 
0.0222124 -0.217347 -0.256534 0.0272088 -0.184345 -0.110684 0.0306095 -0.111577 0.114102 
0.0177704 -0.123937 -0.0799337 0.00897791 -0.146785 -0.248703 0.042111 -0.273409 -0.143481 
0.00518042 -0.102045 -0.185343 0.04758 -0.230866 0.032184 0.0289578 -0.173456 -0.0612843 
0.0199261 -0.131901 -0.0724039 0.0345488 -0.129042 0.120597 0.0236636 -0.215215 -0.232769 
0.0523686 -0.212845 0.138013 
f 3 100 double
0 0 0 0 0 0 0 0 0 
0 0 0 0 0 0 0 0 0 
0 0 0 0 0 0 0 0 0 
0 0 0 0 0 0 0 0 0 
0 0 0 0 0 0 0 0 0 
0 0 0 0 0 0 0 0 0 
0 0 0 0 0 0 -0.0677518 -0.060452 0.277142 
0 0 0 0 0 0 0 0 0 
0 0 0 0 0 0 0 0 0 
0 0 0 0 0 0 0 0 0 
0 0 0 0 0 0 0 0 0 
0 0 0 0 0 0 0 0 0 
0 0 0 0 0 0 0 0 0 
0 0 0 0 0 0 0 0 0 
0 0 0 0 0 0 0 0 0 
0 0 0 0 0 0 0 0 0 
0 0 0 0 0 0 0 0 0 
0 0 0 0 0 0 0 0 0 
0 0 0 0 0 0 0 0 0 
0 0 0 0 0 0 0 0 0 
0 0 0 0 0 0 0 0 0 
0 0 0 0 0 0 0 0 0 
0 0 0 0 0 0 0 0 0 
0 0 0 -0.0617111 -0.0795789 0.310989 0 0 0 
0 0 0 0 0 0 0 0 0 
0 0 0 0 0 0 0 0 0 
0 0 0 0 0 0 0 0 0 
0 0 0 0 0 0 0 0 0 
0 0 0 0 0 0 0 0 0 
0 0 0 0 0 0 0 0 0 
0 0 0 0 0 0 0 0 0 
0 0 0 0 0 0 0 0 0 
0 0 0 0 0 0 0 0 0 
0 0 0 
radius 1 100 double
0.010434 0.00981478 0.00892069 0.00845937 0.00731974 0.00728422 0.00643447 0.00619172 0.00585956 
0.00577566 0.00537241 0.00522549 0.00513666 0.00473175 0.00466912 0.00444866 0.00441894 0.00400812 
0.00385622 0.00379948 0.00370243 0.00366942 0.00364039 0.00363813 0.00363644 0.00358692 0.0035797 
0.00341284 0.00337012 0.00336273 0.00332772 0.00323261 0.00320584 0.00320311 0.00318808 0.00313116 
0.00306026 0.00305632 0.00304383 0.00300958 0.00300137 0.00298994 0.0029567 0.00295111 0.00290849 
0.00284552 0.00282964 0.0028207 0.00281971 0.00281899 0.010434 0.00981478 0.00892069 0.00845937 
0.00731974 0.00728422 0.00643447 0.00619172 0.00585956 0.00577566 0.00537241 0.00522549 0.00513666 
0.00473175 0.00466912 0.00444866 0.00441894 0.00400812 0.00385622 0.00379948 0.00370243 0.00366942 
0.00364039 0.00363813 0.00363644 0.00358692 0.0035797 0.00341284 0.00337012 0.00336273 0.00332772 
0.00323261 0.00320584 0.00320311 0.00318808 0.00313116 0.00306026 0.00305632 0.00304383 0.00300958 
0.00300137 0.00298994 0.0029567 0.00295111 0.00290849 0.00284552 0.00282964 0.0028207 0.00281971 
0.00281899 
omega 3 100 double
15.1027 -0.533314 -0.867172 15.1027 -0.533314 -0.867172 15.1027 -0.533314 -0.867172 
15.1027 -0.533314 -0.867172 15.1027 -0.533314 -0.867172 15.1027 -0.533314 -0.867172 
15.1027 -0.533314 -0.867172 15.1027 -0.533314 -0.867172 15.1027 -0.533314 -0.867172 
15.1027 -0.533314 -0.867172 15.1027 -0.533314 -0.867172 15.1027 -0.533314 -0.867172 
15.1027 -0.533314 -0.867172 15.1027 -0.533314 -0.867172 15.1027 -0.533314 -0.867172 
15.1027 -0.533314 -0.867172 15.1027 -0.533314 -0.867172 15.1027 -0.533314 -0.867172 
15.1027 -0.533314 -0.867172 15.1027 -0.533314 -0.867172 15.1027 -0.533314 -0.867172 
15.1027 -0.533314 -0.867172 15.1027 -0.533314 -0.867172 15.1027 -0.533314 -0.867172 
15.1027 -0.533314 -0.867172 15.1027 -0.533314 -0.867172 15.1027 -0.533314 -0.867172 
15.1027 -0.533314 -0.867172 15.1027 -0.533314 -0.867172 15.1027 -0.533314 -0.867172 
15.1027 -0.533314 -0.867172 15.1027 -0.533314 -0.867172 15.1027 -0.533314 -0.867172 
15.1027 -0.533314 -0.867172 15.1027 -0.533314 -0.867172 15.1027 -0.533314 -0.867172 
15.1027 -0.533314 -0.867172 15.1027 -0.533314 -0.867172 15.1027 -0.533314 -0.867172 
15.1027 -0.533314 -0.867172 15.1027 -0.533314 -0.867172 15.1027 -0.533314 -0.867172 
15.1027 -0.533314 -0.867172 15.1027 -0.533314 -0.867172 15.1027 -0.533314 -0.867172 
15.1027 -0.533314 -0.867172 15.1027 -0.533314 -0.867172 15.1027 -0.533314 -0.867172 
15.1027 -0.533314 -0.867172 15.1027 -0.533314 -0.867172 12.8704 2.52634 -1.01255 
12.8704 2.52634 -1.01255 12.8704 2.52634 -1.01255 12.8704 2.52634 -1.01255 
12.8704 2.52634 -1.01255 12.8704 2.52634 -1.01255 12.8704 2.52634 -1.01255 
12.8704 2.52634 -1.01255 12.8704 2.52634 -1.01255 12.8704 2.52634 -1.01255 
12.8704 2.52634 -1.01255 12.8704 2.52634 -1.01255 12.8704 2.52634 -1.01255 
12.8704 2.52634 -1.01255 12.8704 2.52634 -1.01255 12.8704 2.52634 -1.01255 
12.8704 2.52634 -1.01255 12.8704 2.52634 -1.01255 12.8704 2.52634 -1.01255 
12.8704 2.52634 -1.01255 12.8704 2.52634 -1.01255 12.8704 2.52634 -1.01255 
12.8704 2.52634 -1.01255 12.8704 2.52634 -1.01255 12.8704 2.52634 -1.01255 
12.8704 2.52634 -1.01255 12.8704 2.52634 -1.01255 12.8704 2.52634 -1.01255 
12.8704 2.52634 -1.01255 12.8704 2.52634 -1.01255 12.8704 2.52634 -1.01255 
12.8704 2.52634 -1.01255 12.8704 2.52634 -1.01255 12.8704 2.52634 -1.01255 
12.8704 2.52634 -1.01255 12.8704 2.52634 -1.01255 12.8704 2.52634 -1.01255 
12.8704 2.52634 -1.01255 12.8704 2.52634 -1.01255 12.8704 2.52634 -1.01255 
12.8704 2.52634 -1.01255 12.8704 2.52634 -1.01255 12.8704 2.52634 -1.01255 
12.8704 2.52634 -1.01255 12.8704 2.52634 -1.01255 12.8704 2.52634 -1.01255 
12.8704 2.52634 -1.01255 12.8704 2.52634 -1.01255 12.8704 2.52634 -1.01255 
12.8704 2.52634 -1.01255 
