# vtk DataFile Version 4.0
Generated by LIGGGHTS
ASCII
DATASET POLYDATA
POINTS 100 float
-0.119961 -0.141158 0.0156259 -0.129337 -0.139893 0.0111715 -0.139009 -0.138751 0.00879054 
-0.127983 -0.145194 0.0213147 -0.114754 -0.143744 0.0243592 -0.135959 -0.144376 0.0177423 
-0.146034 -0.142888 0.0128468 -0.120477 -0.148617 0.0243118 -0.14748 -0.138262 0.0058354 
-0.121826 -0.134668 0.0068954 -0.134506 -0.149761 0.024356 -0.143106 -0.146527 0.0180058 
-0.127045 -0.130951 0.00707491 -0.129601 -0.152084 0.0270452 -0.133211 -0.131685 0.00650118 
-0.139889 -0.149284 0.021489 -0.122223 -0.143741 0.0278891 -0.144861 -0.131859 0.00659 
-0.117289 -0.13968 0.00547961 -0.151614 -0.142618 0.00852367 -0.121826 -0.143689 0.00565337 
-0.134162 -0.153817 0.0284119 -0.116079 -0.150125 0.0198986 -0.107913 -0.140957 0.0265668 
-0.110075 -0.143611 0.0186677 -0.123852 -0.131432 0.011751 -0.11304 -0.136564 0.0236144 
-0.11082 -0.139221 0.02873 -0.138155 -0.153029 0.0268244 -0.132444 -0.13799 0.0203938 
-0.140953 -0.152135 0.0250605 -0.114378 -0.150835 0.0268246 -0.133878 -0.143517 0.00322776 
-0.124611 -0.152973 0.0270001 -0.152641 -0.139855 0.00323157 -0.112711 -0.148497 0.0187084 
-0.144656 -0.150465 0.0217971 -0.125344 -0.149715 0.0281496 -0.14947 -0.147467 0.015976 
-0.126706 -0.134622 0.00301327 -0.139613 -0.147259 0.0120931 -0.125705 -0.153162 0.023647 
-0.122864 -0.139807 0.0259068 -0.121742 -0.151289 0.0183098 -0.1474 -0.136455 0.0116162 
-0.151979 -0.145692 0.0125363 -0.109506 -0.14109 0.0157136 -0.129802 -0.13385 0.00332288 
-0.14474 -0.151899 0.0245315 -0.137714 -0.129708 0.00632647 -0.0511877 -0.112774 0.015458 
-0.0606893 -0.111715 0.011223 -0.0704503 -0.111018 0.00903868 -0.0588283 -0.117945 0.0207382 
-0.0456917 -0.115889 0.0238343 -0.0668909 -0.117324 0.0173239 -0.0771121 -0.116047 0.0126785 
-0.0510599 -0.121124 0.0233073 -0.0789743 -0.110823 0.00620648 -0.0536217 -0.10555 0.00747668 
-0.0649731 -0.123258 0.0233201 -0.0738655 -0.119992 0.0174038 -0.059085 -0.102251 0.00808277 
-0.0598805 -0.125497 0.0257163 -0.0651924 -0.103356 0.00747409 -0.0704155 -0.122865 0.0205544 
-0.0530927 -0.116787 0.0273925 -0.0767991 -0.104365 0.00761878 -0.0487666 -0.11005 0.00550853 
-0.082757 -0.115719 0.00844439 -0.0530096 -0.114367 0.00528543 -0.0642907 -0.127684 0.0269209 
-0.0466289 -0.121843 0.018731 -0.039032 -0.112872 0.0262808 -0.0411131 -0.114826 0.018159 
-0.0558022 -0.102995 0.0126609 -0.0444941 -0.108567 0.0238438 -0.0420228 -0.111584 0.0286346 
-0.0683499 -0.127018 0.0254515 -0.0637939 -0.111019 0.0206149 -0.0712281 -0.126144 0.0238103 
-0.0447864 -0.123155 0.0255317 -0.0650767 -0.114796 0.00296919 -0.0548426 -0.126021 0.0255453 
-0.0840473 -0.112495 0.00348162 -0.0433997 -0.119864 0.0176984 -0.0750839 -0.124407 0.0207663 
-0.0557852 -0.122962 0.0270384 -0.0801752 -0.121162 0.0153268 -0.058547 -0.105441 0.0036528 
-0.0704121 -0.119847 0.0114246 -0.0559667 -0.125933 0.0221981 -0.0540342 -0.112722 0.0258424 
-0.0522191 -0.123231 0.0170642 -0.0789404 -0.109633 0.0121457 -0.08285 -0.119217 0.0121108 
-0.0407619 -0.111973 0.0154852 -0.0616843 -0.104928 0.00406229 -0.0750292 -0.126124 0.0233337 
-0.0698246 -0.101697 0.00753881 
VERTICES 100 200
1 0 
1 1 
1 2 
1 3 
1 4 
1 5 
1 6 
1 7 
1 8 
1 9 
1 10 
1 11 
1 12 
1 13 
1 14 
1 15 
1 16 
1 17 
1 18 
1 19 
1 20 
1 21 
1 22 
1 23 
1 24 
1 25 
1 26 
1 27 
1 28 
1 29 
1 30 
1 31 
1 32 
1 33 
1 34 
1 35 
1 36 
1 37 
1 38 
1 39 
1 40 
1 41 
1 42 
1 43 
1 44 
1 45 
1 46 
1 47 
1 48 
1 49 
1 50 
1 51 
1 52 
1 53 
1 54 
1 55 
1 56 
1 57 
1 58 
1 59 
1 60 
1 61 
1 62 
1 63 
1 64 
1 65 
1 66 
1 67 
1 68 
1 69 
1 70 
1 71 
1 72 
1 73 
1 74 
1 75 
1 76 
1 77 
1 78 
1 79 
1 80 
1 81 
1 82 
1 83 
1 84 
1 85 
1 86 
1 87 
1 88 
1 89 
1 90 
1 91 
1 92 
1 93 
1 94 
1 95 
1 96 
1 97 
1 98 
1 99 

POINT_DATA 100
FIELD FieldData 7
id 1 100 int
1 2 3 4 5 6 7 8 9 
10 11 12 13 14 15 16 17 18 
19 20 21 22 23 24 25 26 27 
28 29 30 31 32 33 34 35 36 
37 38 39 40 41 42 43 44 45 
46 47 48 49 50 51 52 53 54 
55 56 57 58 59 60 61 62 63 
64 65 66 67 68 69 70 71 72 
73 74 75 76 77 78 79 80 81 
82 83 84 85 86 87 88 89 90 
91 92 93 94 95 96 97 98 99 
100 
mol 1 100 int
1 1 1 1 1 1 1 1 1 
1 1 1 1 1 1 1 1 1 
1 1 1 1 1 1 1 1 1 
1 1 1 1 1 1 1 1 1 
1 1 1 1 1 1 1 1 1 
1 1 1 1 1 2 2 2 2 
2 2 2 2 2 2 2 2 2 
2 2 2 2 2 2 2 2 2 
2 2 2 2 2 2 2 2 2 
2 2 2 2 2 2 2 2 2 
2 2 2 2 2 2 2 2 2 
2 
type 1 100 int
1 1 1 1 1 1 1 1 1 
1 1 1 1 1 1 1 1 1 
1 1 1 1 1 1 1 1 1 
1 1 1 1 1 1 1 1 1 
1 1 1 1 1 1 1 1 1 
1 1 1 1 1 1 1 1 1 
1 1 1 1 1 1 1 1 1 
1 1 1 1 1 1 1 1 1 
1 1 1 1 1 1 1 1 1 
1 1 1 1 1 1 1 1 1 
1 1 1 1 1 1 1 1 1 
1 
v 3 100 double
0.0789048 -0.152681 -0.147728 0.0558028 -0.101618 -0.084606 0.0442757 -0.0661131 -0.0207456 
0.104144 -0.182673 -0.133417 0.124011 -0.22959 -0.197393 0.08527 -0.140915 -0.0817183 
0.0600538 -0.0851989 -0.0128848 0.115157 -0.219142 -0.202653 0.0283328 -0.0282725 0.0312127 
0.0406906 -0.081683 -0.0867941 0.113393 -0.194772 -0.131747 0.0829802 -0.13037 -0.0577595 
0.0482598 -0.0738817 -0.0282812 0.124594 -0.22427 -0.177658 0.0437047 -0.0585699 0.00109144 
0.0979297 -0.163053 -0.0974412 0.144088 -0.243812 -0.154902 0.0439034 -0.038738 0.0659877 
0.0238121 -0.0786926 -0.151459 0.035947 -0.0418396 0.0209421 0.0177377 -0.0720484 -0.156757 
0.129312 -0.226835 -0.165161 0.0874056 -0.19266 -0.239357 0.141473 -0.258762 -0.214682 
0.0918802 -0.193688 -0.222972 0.0740022 -0.115773 -0.0501673 0.132422 -0.226832 -0.151455 
0.156832 -0.27042 -0.184686 0.121673 -0.20749 -0.136345 0.111597 -0.167673 -0.0521748 
0.113218 -0.18888 -0.1135 0.12554 -0.249375 -0.254534 0.00424813 -0.0320058 -0.0868878 
0.122771 -0.232709 -0.212924 0.0107197 0.00101436 0.0482034 0.0835049 -0.189361 -0.245883 
0.0976022 -0.157046 -0.0794911 0.135047 -0.240334 -0.183485 0.069782 -0.103419 -0.0288668 
0.0186976 -0.0429761 -0.0586788 0.0480693 -0.0906649 -0.0832997 0.103371 -0.204776 -0.208171 
0.139745 -0.227308 -0.120749 0.0763214 -0.170361 -0.216175 0.0643883 -0.0732502 0.0447735 
0.0533494 -0.0723197 -0.000828633 0.0795237 -0.171779 -0.206654 0.0218166 -0.0399246 -0.0350945 
0.110625 -0.178106 -0.0901369 0.046193 -0.0492827 0.0420289 0.099888 -0.113932 -0.000244606 
0.0807535 -0.0814886 0.050795 0.0709112 -0.0638993 0.100393 0.123067 -0.15095 -0.00296098 
0.137554 -0.175758 -0.0479492 0.107599 -0.124723 0.0383382 0.0866311 -0.0891712 0.0942478 
0.134228 -0.170984 -0.0614947 0.0580245 -0.0418203 0.1407 0.0647483 -0.055515 0.0633463 
0.13391 -0.168626 -0.0135269 0.107494 -0.124075 0.0507741 0.0680944 -0.0589561 0.112235 
0.144448 -0.186933 -0.0530299 0.0651228 -0.0534579 0.13207 0.121361 -0.147573 0.0141553 
0.153629 -0.200307 -0.0207147 0.0656053 -0.0524646 0.177697 0.0549764 -0.0420706 0.00850025 
0.0673717 -0.0574135 0.12238 0.0531981 -0.0397023 -0.00350843 0.149558 -0.194908 -0.048798 
0.113223 -0.138515 -0.0869332 0.149247 -0.194707 -0.0564128 0.111849 -0.135331 -0.0611183 
0.0888498 -0.0927969 0.0918579 0.138887 -0.176038 -0.000219854 0.160212 -0.211281 -0.0334097 
0.142972 -0.183517 -0.0254409 0.123724 -0.149179 0.0700169 0.135638 -0.171086 -0.00596143 
0.144018 -0.18825 -0.104875 0.0425554 -0.0207479 0.0484296 0.143575 -0.186578 -0.0798152 
0.0452985 -0.0211291 0.151693 0.10886 -0.131582 -0.0872881 0.122056 -0.14829 0.0242508 
0.150926 -0.19726 -0.05329 0.0978117 -0.107872 0.0710576 0.0473221 -0.0268649 0.0866078 
0.080241 -0.081241 0.0360683 0.12832 -0.162061 -0.0740473 0.147273 -0.188879 0.0131144 
0.105374 -0.12542 -0.0715193 0.0853299 -0.0849777 0.149188 0.0834824 -0.0840354 0.0973922 
0.100153 -0.115967 -0.0419945 0.0492806 -0.0292874 0.104646 0.133467 -0.166953 0.0115326 
0.0657105 -0.0531122 0.165261 
f 3 100 double
0 0 0 0 0 0 0.753373 -0.0599397 1.51151 
0 0 0 0 0 0 0 0 0 
0 0 0 0 0 0 0.081249 -0.198253 -0.22383 
0 0 0 0 0 0 0 0 0 
0 0 0 0 0 0 0 0 0 
0 0 0 0 0 0 0 0 0 
0 0 0 0 0 0 0 0 0 
0 0 0 0 0 0 0 0 0 
0 0 0 0 0 0 0 0 0 
0 0 0 0 0 0 0 0 0 
0 0 0 0 0 0 0 0 0 
0 0 0 0 0 0 0 0 0 
0 0 0 0 0 0 0 0 0 
0 0 0 0 0 0 0 0 0 
0 0 0 0 0 0 0 0 0 
0 0 0 0 0 0 0 0 0 
0 0 0 0 0 0 0 0 0 
0 0 0 0 0 0 0 0 0 
0 0 0 0 0 0 0 0 0 
0 0 0 0 0 0 0 0 0 
0 0 0 0 0 0 0 0 0 
0 0 0 0 0 0 0 0 0 
0 0 0 0 0 0 0 0 0 
0 0 0 0 0 0 0 0 0 
0 0 0 0 0 0 0 0 0 
0 0 0 0 0 0 0 0 0 
0 0 0 0 0 0 0 0 0 
0 0 0 0.108848 0.0541843 1.0148 0 0 0 
0 0 0 0 0 0 0 0 0 
0 0 0 0 0 0 0 0 0 
0 0 0 0 0 0 0 0 0 
0 0 0 0 0 0 0 0 0 
0 0 0 0 0 0 0 0 0 
0 0 0 
radius 1 100 double
0.010434 0.00981478 0.00892069 0.00845937 0.00731974 0.00728422 0.00643447 0.00619172 0.00585956 
0.00577566 0.00537241 0.00522549 0.00513666 0.00473175 0.00466912 0.00444866 0.00441894 0.00400812 
0.00385622 0.00379948 0.00370243 0.00366942 0.00364039 0.00363813 0.00363644 0.00358692 0.0035797 
0.00341284 0.00337012 0.00336273 0.00332772 0.00323261 0.00320584 0.00320311 0.00318808 0.00313116 
0.00306026 0.00305632 0.00304383 0.00300958 0.00300137 0.00298994 0.0029567 0.00295111 0.00290849 
0.00284552 0.00282964 0.0028207 0.00281971 0.00281899 0.010434 0.00981478 0.00892069 0.00845937 
0.00731974 0.00728422 0.00643447 0.00619172 0.00585956 0.00577566 0.00537241 0.00522549 0.00513666 
0.00473175 0.00466912 0.00444866 0.00441894 0.00400812 0.00385622 0.00379948 0.00370243 0.00366942 
0.00364039 0.00363813 0.00363644 0.00358692 0.0035797 0.00341284 0.00337012 0.00336273 0.00332772 
0.00323261 0.00320584 0.00320311 0.00318808 0.00313116 0.00306026 0.00305632 0.00304383 0.00300958 
0.00300137 0.00298994 0.0029567 0.00295111 0.00290849 0.00284552 0.00282964 0.0028207 0.00281971 
0.00281899 
omega 3 100 double
7.75607 5.68642 -1.76148 7.75607 5.68642 -1.76148 7.75607 5.68642 -1.76148 
7.75607 5.68642 -1.76148 7.75607 5.68642 -1.76148 7.75607 5.68642 -1.76148 
7.75607 5.68642 -1.76148 7.75607 5.68642 -1.76148 7.75607 5.68642 -1.76148 
7.75607 5.68642 -1.76148 7.75607 5.68642 -1.76148 7.75607 5.68642 -1.76148 
7.75607 5.68642 -1.76148 7.75607 5.68642 -1.76148 7.75607 5.68642 -1.76148 
7.75607 5.68642 -1.76148 7.75607 5.68642 -1.76148 7.75607 5.68642 -1.76148 
7.75607 5.68642 -1.76148 7.75607 5.68642 -1.76148 7.75607 5.68642 -1.76148 
7.75607 5.68642 -1.76148 7.75607 5.68642 -1.76148 7.75607 5.68642 -1.76148 
7.75607 5.68642 -1.76148 7.75607 5.68642 -1.76148 7.75607 5.68642 -1.76148 
7.75607 5.68642 -1.76148 7.75607 5.68642 -1.76148 7.75607 5.68642 -1.76148 
7.75607 5.68642 -1.76148 7.75607 5.68642 -1.76148 7.75607 5.68642 -1.76148 
7.75607 5.68642 -1.76148 7.75607 5.68642 -1.76148 7.75607 5.68642 -1.76148 
7.75607 5.68642 -1.76148 7.75607 5.68642 -1.76148 7.75607 5.68642 -1.76148 
7.75607 5.68642 -1.76148 7.75607 5.68642 -1.76148 7.75607 5.68642 -1.76148 
7.75607 5.68642 -1.76148 7.75607 5.68642 -1.76148 7.75607 5.68642 -1.76148 
7.75607 5.68642 -1.76148 7.75607 5.68642 -1.76148 7.75607 5.68642 -1.76148 
7.75607 5.68642 -1.76148 7.75607 5.68642 -1.76148 7.26552 4.56221 -0.176156 
7.26552 4.56221 -0.176156 7.26552 4.56221 -0.176156 7.26552 4.56221 -0.176156 
7.26552 4.56221 -0.176156 7.26552 4.56221 -0.176156 7.26552 4.56221 -0.176156 
7.26552 4.56221 -0.176156 7.26552 4.56221 -0.176156 7.26552 4.56221 -0.176156 
7.26552 4.56221 -0.176156 7.26552 4.56221 -0.176156 7.26552 4.56221 -0.176156 
7.26552 4.56221 -0.176156 7.26552 4.56221 -0.176156 7.26552 4.56221 -0.176156 
7.26552 4.56221 -0.176156 7.26552 4.56221 -0.176156 7.26552 4.56221 -0.176156 
7.26552 4.56221 -0.176156 7.26552 4.56221 -0.176156 7.26552 4.56221 -0.176156 
7.26552 4.56221 -0.176156 7.26552 4.56221 -0.176156 7.26552 4.56221 -0.176156 
7.26552 4.56221 -0.176156 7.26552 4.56221 -0.176156 7.26552 4.56221 -0.176156 
7.26552 4.56221 -0.176156 7.26552 4.56221 -0.176156 7.26552 4.56221 -0.176156 
7.26552 4.56221 -0.176156 7.26552 4.56221 -0.176156 7.26552 4.56221 -0.176156 
7.26552 4.56221 -0.176156 7.26552 4.56221 -0.176156 7.26552 4.56221 -0.176156 
7.26552 4.56221 -0.176156 7.26552 4.56221 -0.176156 7.26552 4.56221 -0.176156 
7.26552 4.56221 -0.176156 7.26552 4.56221 -0.176156 7.26552 4.56221 -0.176156 
7.26552 4.56221 -0.176156 7.26552 4.56221 -0.176156 7.26552 4.56221 -0.176156 
7.26552 4.56221 -0.176156 7.26552 4.56221 -0.176156 7.26552 4.56221 -0.176156 
7.26552 4.56221 -0.176156 
