# vtk DataFile Version 4.0
Generated by LIGGGHTS
ASCII
DATASET POLYDATA
POINTS 100 float
-0.11714 -0.145767 0.0133847 -0.12707 -0.143207 0.0113441 -0.13693 -0.141385 0.0112665 
-0.124237 -0.151307 0.019037 -0.110615 -0.150862 0.0198302 -0.132662 -0.14944 0.0174286 
-0.143345 -0.146533 0.0151719 -0.116528 -0.155486 0.0194285 -0.145749 -0.140016 0.0102328 
-0.120154 -0.136956 0.00746118 -0.130365 -0.156562 0.0217704 -0.139759 -0.151557 0.0183865 
-0.125031 -0.133452 0.0097033 -0.125202 -0.159594 0.0226857 -0.131233 -0.133968 0.0101088 
-0.136137 -0.155238 0.0202354 -0.11732 -0.151902 0.0245428 -0.142669 -0.134138 0.0123304 
-0.116243 -0.141322 0.00380846 -0.149583 -0.144969 0.0122487 -0.120901 -0.14519 0.00364526 
-0.129539 -0.161648 0.0243143 -0.113084 -0.15561 0.0140228 -0.103339 -0.148878 0.0214325 
-0.107029 -0.149039 0.013656 -0.121088 -0.135319 0.013344 -0.108647 -0.143792 0.0209208 
-0.105707 -0.147864 0.0245166 -0.133698 -0.160412 0.0238087 -0.128364 -0.144149 0.0211304 
-0.13671 -0.159026 0.0229443 -0.110217 -0.158366 0.0199852 -0.133162 -0.144275 0.00368787 
-0.120362 -0.160439 0.0214444 -0.151376 -0.140745 0.00829426 -0.109894 -0.153707 0.012753 
-0.140833 -0.156447 0.021073 -0.120686 -0.157673 0.0236173 -0.146427 -0.151833 0.0174038 
-0.125638 -0.135738 0.00475407 -0.137427 -0.15049 0.0119738 -0.122046 -0.159612 0.018452 
-0.118074 -0.147554 0.0239619 -0.118999 -0.156233 0.0132563 -0.144532 -0.140024 0.0161666 
-0.149403 -0.149103 0.0151738 -0.106851 -0.145749 0.0115218 -0.128578 -0.135089 0.00585276 
-0.14051 -0.158634 0.0232297 -0.135572 -0.132021 0.0113725 -0.0481724 -0.116472 0.0133098 
-0.0582569 -0.114469 0.0114053 -0.0682164 -0.113312 0.0114171 -0.0548694 -0.122799 0.0186134 
-0.0413063 -0.121487 0.0194562 -0.0634039 -0.121411 0.0171022 -0.0742635 -0.1191 0.015001 
-0.0468959 -0.126466 0.0187723 -0.0771097 -0.11248 0.0104497 -0.0517836 -0.10755 0.00790956 
-0.0606252 -0.128606 0.0210216 -0.070341 -0.124052 0.0179209 -0.0568809 -0.10452 0.0103451 
-0.0552679 -0.131333 0.0217663 -0.0630331 -0.105474 0.0107082 -0.0664761 -0.127584 0.0195566 
-0.0479159 -0.123251 0.0240871 -0.0744275 -0.106542 0.0128951 -0.0475963 -0.111421 0.00401339 
-0.0805982 -0.117789 0.0121636 -0.0519847 -0.115577 0.00361435 -0.0594538 -0.133766 0.0232633 
-0.0434636 -0.126041 0.0133749 -0.0341767 -0.119117 0.0211857 -0.0378641 -0.119068 0.0134065 
-0.0528136 -0.106329 0.0138768 -0.0398152 -0.114378 0.0209645 -0.0366004 -0.118448 0.0243198 
-0.0636874 -0.132784 0.0228236 -0.059463 -0.11607 0.0211168 -0.0667873 -0.131554 0.0220369 
-0.040405 -0.128944 0.01917 -0.0642791 -0.115491 0.0036884 -0.0503844 -0.131776 0.0204863 
-0.0826795 -0.11347 0.00846128 -0.0404113 -0.123857 0.0122251 -0.0710784 -0.129153 0.0203131 
-0.0508894 -0.129171 0.0228176 -0.076977 -0.124717 0.0169116 -0.0573434 -0.106546 0.00526881 
-0.0681 -0.122456 0.0115864 -0.0521268 -0.130889 0.0175447 -0.0489622 -0.118937 0.0237618 
-0.0493246 -0.127013 0.0125623 -0.0758823 -0.112756 0.0163748 -0.0801344 -0.122067 0.0148407 
-0.0379116 -0.115653 0.01147 -0.0603182 -0.106162 0.00639842 -0.0706046 -0.131437 0.0223379 
-0.0674904 -0.103901 0.0120764 
VERTICES 100 200
1 0 
1 1 
1 2 
1 3 
1 4 
1 5 
1 6 
1 7 
1 8 
1 9 
1 10 
1 11 
1 12 
1 13 
1 14 
1 15 
1 16 
1 17 
1 18 
1 19 
1 20 
1 21 
1 22 
1 23 
1 24 
1 25 
1 26 
1 27 
1 28 
1 29 
1 30 
1 31 
1 32 
1 33 
1 34 
1 35 
1 36 
1 37 
1 38 
1 39 
1 40 
1 41 
1 42 
1 43 
1 44 
1 45 
1 46 
1 47 
1 48 
1 49 
1 50 
1 51 
1 52 
1 53 
1 54 
1 55 
1 56 
1 57 
1 58 
1 59 
1 60 
1 61 
1 62 
1 63 
1 64 
1 65 
1 66 
1 67 
1 68 
1 69 
1 70 
1 71 
1 72 
1 73 
1 74 
1 75 
1 76 
1 77 
1 78 
1 79 
1 80 
1 81 
1 82 
1 83 
1 84 
1 85 
1 86 
1 87 
1 88 
1 89 
1 90 
1 91 
1 92 
1 93 
1 94 
1 95 
1 96 
1 97 
1 98 
1 99 

POINT_DATA 100
FIELD FieldData 7
id 1 100 int
1 2 3 4 5 6 7 8 9 
10 11 12 13 14 15 16 17 18 
19 20 21 22 23 24 25 26 27 
28 29 30 31 32 33 34 35 36 
37 38 39 40 41 42 43 44 45 
46 47 48 49 50 51 52 53 54 
55 56 57 58 59 60 61 62 63 
64 65 66 67 68 69 70 71 72 
73 74 75 76 77 78 79 80 81 
82 83 84 85 86 87 88 89 90 
91 92 93 94 95 96 97 98 99 
100 
mol 1 100 int
1 1 1 1 1 1 1 1 1 
1 1 1 1 1 1 1 1 1 
1 1 1 1 1 1 1 1 1 
1 1 1 1 1 1 1 1 1 
1 1 1 1 1 1 1 1 1 
1 1 1 1 1 2 2 2 2 
2 2 2 2 2 2 2 2 2 
2 2 2 2 2 2 2 2 2 
2 2 2 2 2 2 2 2 2 
2 2 2 2 2 2 2 2 2 
2 2 2 2 2 2 2 2 2 
2 
type 1 100 int
1 1 1 1 1 1 1 1 1 
1 1 1 1 1 1 1 1 1 
1 1 1 1 1 1 1 1 1 
1 1 1 1 1 1 1 1 1 
1 1 1 1 1 1 1 1 1 
1 1 1 1 1 1 1 1 1 
1 1 1 1 1 1 1 1 1 
1 1 1 1 1 1 1 1 1 
1 1 1 1 1 1 1 1 1 
1 1 1 1 1 1 1 1 1 
1 1 1 1 1 1 1 1 1 
1 
v 3 100 double
0.0466499 -0.151298 -0.0436709 0.0421687 -0.121451 0.0155849 0.0431723 -0.113863 0.0662726 
0.0601186 -0.21042 -0.0847038 0.0628409 -0.228666 -0.121211 0.0564836 -0.186488 -0.0378881 
0.0515792 -0.153683 0.0275873 0.0584687 -0.220097 -0.155497 0.0409513 -0.0961653 0.108658 
0.0345806 -0.0822257 0.0652168 0.0648784 -0.237176 -0.125473 0.0579644 -0.192495 -0.0401893 
0.0438032 -0.104274 0.119731 0.0656066 -0.251046 -0.175525 0.0446888 -0.104641 0.132808 
0.0610982 -0.21588 -0.0928844 0.0765057 -0.277422 -0.112535 0.0513492 -0.121994 0.16577 
0.0204687 -0.043559 0.00389202 0.0437287 -0.116364 0.0643127 0.0173383 -0.0385421 -0.0256667 
0.0691756 -0.266521 -0.185539 0.0418968 -0.161278 -0.167408 0.0690777 -0.251747 -0.120961 
0.0452507 -0.161249 -0.111525 0.0536364 -0.14815 0.0865819 0.0709785 -0.242345 -0.0472292 
0.0791737 -0.28503 -0.102271 0.0684745 -0.257969 -0.158872 0.0713748 -0.231297 0.00886928 
0.0667823 -0.24614 -0.133995 0.0582057 -0.23069 -0.207337 0.0180911 -0.0306796 0.0220819 
0.061246 -0.240296 -0.199843 0.0345423 -0.0704015 0.117567 0.0393191 -0.149081 -0.155606 
0.0628298 -0.222161 -0.0922466 0.0697554 -0.26466 -0.167563 0.0547796 -0.17684 -0.0229777 
0.027153 -0.0478636 0.0957224 0.0391323 -0.121526 -0.03523 0.0526821 -0.205293 -0.185352 
0.0776933 -0.270336 -0.0610376 0.0391351 -0.148579 -0.156416 0.0590429 -0.16413 0.10485 
0.049836 -0.149583 0.0169817 0.0409807 -0.137224 -0.0748457 0.0309456 -0.0582934 0.112034 
0.0679187 -0.246782 -0.11798 0.0498682 -0.115987 0.168071 0.0643021 -0.122163 -0.00479343 
0.0547697 -0.100319 0.0686571 0.0554145 -0.0954367 0.133958 0.0904727 -0.165579 -0.0235388 
0.0957921 -0.179803 -0.0869996 0.0828085 -0.14798 0.0359135 0.0723417 -0.124013 0.116363 
0.089516 -0.170973 -0.0999869 0.0504795 -0.0824526 0.190491 0.0388963 -0.0727339 0.0938643 
0.100887 -0.183933 -0.0429046 0.0860149 -0.151726 0.050998 0.0538862 -0.0916588 0.148779 
0.103641 -0.193183 -0.0965862 0.0554172 -0.0917807 0.174397 0.0932949 -0.168086 -0.0015271 
0.120527 -0.217331 -0.0659917 0.0669805 -0.105361 0.228014 0.0154051 -0.0404726 0.0365659 
0.0573023 -0.09582 0.162969 0.0111167 -0.0347564 0.0241926 0.110704 -0.204288 -0.0948865 
0.0598712 -0.125096 -0.115224 0.106546 -0.198624 -0.105542 0.0635377 -0.128178 -0.0847048 
0.0725174 -0.124839 0.110328 0.107695 -0.19385 -0.0325584 0.124218 -0.225048 -0.086233 
0.108764 -0.198292 -0.0628137 0.107691 -0.185355 0.0612108 0.105028 -0.189802 -0.0348193 
0.0904749 -0.17773 -0.157746 0.0115691 -0.0292534 0.0929575 0.0963388 -0.184341 -0.127508 
0.0389839 -0.0621292 0.212567 0.0546041 -0.116484 -0.112846 0.0966938 -0.172452 0.0100934 
0.110539 -0.204646 -0.101744 0.0800986 -0.139503 0.0818431 0.0247907 -0.0466629 0.133472 
0.0517725 -0.0969878 0.0526792 0.08051 -0.157528 -0.110053 0.120887 -0.213937 -0.0221596 
0.0548889 -0.114995 -0.0913772 0.0831185 -0.135318 0.181267 0.0699694 -0.11966 0.122677 
0.0545345 -0.111077 -0.0543336 0.031232 -0.0551347 0.153318 0.106751 -0.190544 -0.0126669 
0.0637738 -0.101614 0.21293 
f 3 100 double
0 0 0 0 0 0 0 0 0 
0 0 0 0 0 0 0 0 0 
0 0 0 0 0 0 0 0 0 
0 0 0 0 0 0 0 0 0 
0 0 0 0 0 0 0 0 0 
0 0 0 0 0 0 0 0 0 
-0.0616738 -0.0230239 0.131662 0 0 0 -0.100663 -0.06035 0.493315 
0 0 0 0 0 0 0 0 0 
0 0 0 0 0 0 0 0 0 
0 0 0 0 0 0 0 0 0 
0 0 0 0 0 0 0 0 0 
0 0 0 0 0 0 0 0 0 
0 0 0 0 0 0 0 0 0 
0 0 0 0 0 0 0 0 0 
0 0 0 0 0 0 0 0 0 
0 0 0 0 0 0 0 0 0 
0 0 0 0 0 0 0 0 0 
0 0 0 0 0 0 0 0 0 
0 0 0 0 0 0 0 0 0 
0 0 0 0 0 0 0 0 0 
0 0 0 0 0 0 0 0 0 
0 0 0 0 0 0 0 0 0 
0 0 0 0 0 0 0 0 0 
0 0 0 0.0376346 -0.0108128 0.133188 0 0 0 
0 0 0 0 0 0 0 0 0 
0 0 0 0 0 0 0 0 0 
0 0 0 0 0 0 0 0 0 
0 0 0 0 0 0 0 0 0 
0 0 0 0 0 0 0 0 0 
0 0 0 0 0 0 0 0 0 
0 0 0 0 0 0 0 0 0 
0 0 0 0 0 0 0 0 0 
0 0 0 0 0 0 0 0 0 
0 0 0 
radius 1 100 double
0.010434 0.00981478 0.00892069 0.00845937 0.00731974 0.00728422 0.00643447 0.00619172 0.00585956 
0.00577566 0.00537241 0.00522549 0.00513666 0.00473175 0.00466912 0.00444866 0.00441894 0.00400812 
0.00385622 0.00379948 0.00370243 0.00366942 0.00364039 0.00363813 0.00363644 0.00358692 0.0035797 
0.00341284 0.00337012 0.00336273 0.00332772 0.00323261 0.00320584 0.00320311 0.00318808 0.00313116 
0.00306026 0.00305632 0.00304383 0.00300958 0.00300137 0.00298994 0.0029567 0.00295111 0.00290849 
0.00284552 0.00282964 0.0028207 0.00281971 0.00281899 0.010434 0.00981478 0.00892069 0.00845937 
0.00731974 0.00728422 0.00643447 0.00619172 0.00585956 0.00577566 0.00537241 0.00522549 0.00513666 
0.00473175 0.00466912 0.00444866 0.00441894 0.00400812 0.00385622 0.00379948 0.00370243 0.00366942 
0.00364039 0.00363813 0.00363644 0.00358692 0.0035797 0.00341284 0.00337012 0.00336273 0.00332772 
0.00323261 0.00320584 0.00320311 0.00318808 0.00313116 0.00306026 0.00305632 0.00304383 0.00300958 
0.00300137 0.00298994 0.0029567 0.00295111 0.00290849 0.00284552 0.00282964 0.0028207 0.00281971 
0.00281899 
omega 3 100 double
11.3144 3.04992 -0.680597 11.3144 3.04992 -0.680597 11.3144 3.04992 -0.680597 
11.3144 3.04992 -0.680597 11.3144 3.04992 -0.680597 11.3144 3.04992 -0.680597 
11.3144 3.04992 -0.680597 11.3144 3.04992 -0.680597 11.3144 3.04992 -0.680597 
11.3144 3.04992 -0.680597 11.3144 3.04992 -0.680597 11.3144 3.04992 -0.680597 
11.3144 3.04992 -0.680597 11.3144 3.04992 -0.680597 11.3144 3.04992 -0.680597 
11.3144 3.04992 -0.680597 11.3144 3.04992 -0.680597 11.3144 3.04992 -0.680597 
11.3144 3.04992 -0.680597 11.3144 3.04992 -0.680597 11.3144 3.04992 -0.680597 
11.3144 3.04992 -0.680597 11.3144 3.04992 -0.680597 11.3144 3.04992 -0.680597 
11.3144 3.04992 -0.680597 11.3144 3.04992 -0.680597 11.3144 3.04992 -0.680597 
11.3144 3.04992 -0.680597 11.3144 3.04992 -0.680597 11.3144 3.04992 -0.680597 
11.3144 3.04992 -0.680597 11.3144 3.04992 -0.680597 11.3144 3.04992 -0.680597 
11.3144 3.04992 -0.680597 11.3144 3.04992 -0.680597 11.3144 3.04992 -0.680597 
11.3144 3.04992 -0.680597 11.3144 3.04992 -0.680597 11.3144 3.04992 -0.680597 
11.3144 3.04992 -0.680597 11.3144 3.04992 -0.680597 11.3144 3.04992 -0.680597 
11.3144 3.04992 -0.680597 11.3144 3.04992 -0.680597 11.3144 3.04992 -0.680597 
11.3144 3.04992 -0.680597 11.3144 3.04992 -0.680597 11.3144 3.04992 -0.680597 
11.3144 3.04992 -0.680597 11.3144 3.04992 -0.680597 8.81838 5.53186 -0.500713 
8.81838 5.53186 -0.500713 8.81838 5.53186 -0.500713 8.81838 5.53186 -0.500713 
8.81838 5.53186 -0.500713 8.81838 5.53186 -0.500713 8.81838 5.53186 -0.500713 
8.81838 5.53186 -0.500713 8.81838 5.53186 -0.500713 8.81838 5.53186 -0.500713 
8.81838 5.53186 -0.500713 8.81838 5.53186 -0.500713 8.81838 5.53186 -0.500713 
8.81838 5.53186 -0.500713 8.81838 5.53186 -0.500713 8.81838 5.53186 -0.500713 
8.81838 5.53186 -0.500713 8.81838 5.53186 -0.500713 8.81838 5.53186 -0.500713 
8.81838 5.53186 -0.500713 8.81838 5.53186 -0.500713 8.81838 5.53186 -0.500713 
8.81838 5.53186 -0.500713 8.81838 5.53186 -0.500713 8.81838 5.53186 -0.500713 
8.81838 5.53186 -0.500713 8.81838 5.53186 -0.500713 8.81838 5.53186 -0.500713 
8.81838 5.53186 -0.500713 8.81838 5.53186 -0.500713 8.81838 5.53186 -0.500713 
8.81838 5.53186 -0.500713 8.81838 5.53186 -0.500713 8.81838 5.53186 -0.500713 
8.81838 5.53186 -0.500713 8.81838 5.53186 -0.500713 8.81838 5.53186 -0.500713 
8.81838 5.53186 -0.500713 8.81838 5.53186 -0.500713 8.81838 5.53186 -0.500713 
8.81838 5.53186 -0.500713 8.81838 5.53186 -0.500713 8.81838 5.53186 -0.500713 
8.81838 5.53186 -0.500713 8.81838 5.53186 -0.500713 8.81838 5.53186 -0.500713 
8.81838 5.53186 -0.500713 8.81838 5.53186 -0.500713 8.81838 5.53186 -0.500713 
8.81838 5.53186 -0.500713 
