# vtk DataFile Version 4.0
Generated by LIGGGHTS
ASCII
DATASET POLYDATA
POINTS 100 float
-0.112681 -0.131316 0.0235349 -0.122955 -0.132275 0.0218382 -0.132974 -0.132553 0.0221102 
-0.118323 -0.133156 0.0323546 -0.105123 -0.130085 0.0307066 -0.12697 -0.134125 0.031197 
-0.138057 -0.135078 0.0292308 -0.109881 -0.134828 0.0340787 -0.141889 -0.133605 0.0217615 
-0.117624 -0.128813 0.0139894 -0.123117 -0.13645 0.0385853 -0.133418 -0.1363 0.0342727 
-0.123126 -0.12554 0.0143142 -0.117403 -0.137338 0.0403909 -0.129058 -0.126696 0.0158527 
-0.129056 -0.137351 0.037427 -0.111381 -0.129023 0.0359937 -0.140152 -0.127308 0.019361 
-0.112892 -0.133787 0.0132332 -0.144519 -0.136742 0.026913 -0.116589 -0.137599 0.0161465 
-0.121165 -0.138593 0.0435469 -0.106556 -0.137747 0.0294394 -0.0984427 -0.126376 0.0296803 
-0.102096 -0.131979 0.0242606 -0.118828 -0.124032 0.0177112 -0.104743 -0.123694 0.026958 
-0.10094 -0.124059 0.0318113 -0.125499 -0.138651 0.0430085 -0.123897 -0.127069 0.0302254 
-0.128751 -0.138631 0.0419305 -0.103086 -0.135638 0.0353446 -0.12875 -0.138887 0.0174168 
-0.11251 -0.137966 0.0392301 -0.147241 -0.136299 0.0215201 -0.103877 -0.136571 0.0268229 
-0.133361 -0.138517 0.0395045 -0.113409 -0.134551 0.0392842 -0.139873 -0.13822 0.0346517 
-0.123273 -0.130483 0.0119411 -0.131452 -0.139126 0.0282854 -0.114369 -0.139488 0.0366416 
-0.113079 -0.126199 0.0330007 -0.112198 -0.139673 0.0300879 -0.140632 -0.129692 0.0262109 
-0.143401 -0.138028 0.0316861 -0.102669 -0.130782 0.0205661 -0.126271 -0.129782 0.0128317 
-0.132541 -0.138778 0.0424708 -0.133704 -0.125132 0.0162853 -0.0438026 -0.103522 0.0232739 
-0.0540317 -0.104486 0.0213314 -0.0640538 -0.104783 0.0213676 -0.0496454 -0.105433 0.0319465 
-0.0364163 -0.102328 0.0306285 -0.0582612 -0.106409 0.0305807 -0.069297 -0.107367 0.0283498 
-0.041242 -0.107103 0.0338553 -0.072957 -0.105848 0.0208037 -0.0485262 -0.10096 0.0136335 
-0.0545763 -0.10878 0.0380404 -0.064775 -0.108617 0.0334899 -0.0540403 -0.097698 0.0138529 
-0.048905 -0.109671 0.0399725 -0.0600044 -0.0988751 0.0152444 -0.0604849 -0.109682 0.0367377 
-0.0427978 -0.101314 0.0357755 -0.0711758 -0.0995312 0.0184886 -0.0437688 -0.10592 0.0129531 
-0.0757001 -0.109026 0.0258703 -0.0475254 -0.109759 0.0157525 -0.0527365 -0.110954 0.0430311 
-0.037805 -0.109984 0.0292745 -0.0297205 -0.0986009 0.0297843 -0.0332363 -0.104172 0.0242417 
-0.0498251 -0.0962073 0.0173598 -0.0359609 -0.0959106 0.0269347 -0.0322706 -0.0963031 0.0318728 
-0.0570569 -0.111016 0.0423913 -0.0551791 -0.099341 0.0297306 -0.0602834 -0.110994 0.0412379 
-0.0344768 -0.107911 0.0352737 -0.0597104 -0.111076 0.0167297 -0.043985 -0.110282 0.0389219 
-0.0782966 -0.108549 0.0204186 -0.0350674 -0.108784 0.0267295 -0.0648358 -0.11087 0.0387059 
-0.0448914 -0.106868 0.038979 -0.0712334 -0.110551 0.0337047 -0.0541226 -0.102624 0.0114423 
-0.0626639 -0.111397 0.0275304 -0.0457803 -0.111789 0.0362801 -0.0444306 -0.0984724 0.0327636 
-0.0434568 -0.111923 0.0297777 -0.0718112 -0.101964 0.0253086 -0.0746918 -0.110343 0.0306591 
-0.0337251 -0.10295 0.0205434 -0.0571421 -0.101935 0.0122677 -0.0640845 -0.111151 0.0416886 
-0.064662 -0.0973228 0.0155795 
VERTICES 100 200
1 0 
1 1 
1 2 
1 3 
1 4 
1 5 
1 6 
1 7 
1 8 
1 9 
1 10 
1 11 
1 12 
1 13 
1 14 
1 15 
1 16 
1 17 
1 18 
1 19 
1 20 
1 21 
1 22 
1 23 
1 24 
1 25 
1 26 
1 27 
1 28 
1 29 
1 30 
1 31 
1 32 
1 33 
1 34 
1 35 
1 36 
1 37 
1 38 
1 39 
1 40 
1 41 
1 42 
1 43 
1 44 
1 45 
1 46 
1 47 
1 48 
1 49 
1 50 
1 51 
1 52 
1 53 
1 54 
1 55 
1 56 
1 57 
1 58 
1 59 
1 60 
1 61 
1 62 
1 63 
1 64 
1 65 
1 66 
1 67 
1 68 
1 69 
1 70 
1 71 
1 72 
1 73 
1 74 
1 75 
1 76 
1 77 
1 78 
1 79 
1 80 
1 81 
1 82 
1 83 
1 84 
1 85 
1 86 
1 87 
1 88 
1 89 
1 90 
1 91 
1 92 
1 93 
1 94 
1 95 
1 96 
1 97 
1 98 
1 99 

POINT_DATA 100
FIELD FieldData 7
id 1 100 int
1 2 3 4 5 6 7 8 9 
10 11 12 13 14 15 16 17 18 
19 20 21 22 23 24 25 26 27 
28 29 30 31 32 33 34 35 36 
37 38 39 40 41 42 43 44 45 
46 47 48 49 50 51 52 53 54 
55 56 57 58 59 60 61 62 63 
64 65 66 67 68 69 70 71 72 
73 74 75 76 77 78 79 80 81 
82 83 84 85 86 87 88 89 90 
91 92 93 94 95 96 97 98 99 
100 
mol 1 100 int
1 1 1 1 1 1 1 1 1 
1 1 1 1 1 1 1 1 1 
1 1 1 1 1 1 1 1 1 
1 1 1 1 1 1 1 1 1 
1 1 1 1 1 1 1 1 1 
1 1 1 1 1 2 2 2 2 
2 2 2 2 2 2 2 2 2 
2 2 2 2 2 2 2 2 2 
2 2 2 2 2 2 2 2 2 
2 2 2 2 2 2 2 2 2 
2 2 2 2 2 2 2 2 2 
2 
type 1 100 int
1 1 1 1 1 1 1 1 1 
1 1 1 1 1 1 1 1 1 
1 1 1 1 1 1 1 1 1 
1 1 1 1 1 1 1 1 1 
1 1 1 1 1 1 1 1 1 
1 1 1 1 1 1 1 1 1 
1 1 1 1 1 1 1 1 1 
1 1 1 1 1 1 1 1 1 
1 1 1 1 1 1 1 1 1 
1 1 1 1 1 1 1 1 1 
1 1 1 1 1 1 1 1 1 
1 
v 3 100 double
-0.115782 -0.0613981 0.0378627 -0.103462 -0.0618263 -0.0364876 -0.105286 -0.0658403 -0.107773 
-0.177433 -0.0798347 -0.00542252 -0.166867 -0.0721392 0.0935435 -0.168917 -0.0807001 -0.0683056 
-0.154696 -0.0809099 -0.14839 -0.189025 -0.0800981 0.0510885 -0.102455 -0.0683096 -0.17271 
-0.0492362 -0.045311 0.0076232 -0.220288 -0.0931418 -0.0454261 -0.18988 -0.0886974 -0.117909 
-0.0526762 -0.0478428 -0.0251279 -0.23273 -0.0945125 -0.00673015 -0.0631381 -0.0527903 -0.0691844 
-0.211792 -0.0930582 -0.0890542 -0.204583 -0.0841977 0.0513249 -0.0877036 -0.0632209 -0.148684 
-0.0421547 -0.0422437 0.0317609 -0.137743 -0.0788451 -0.197138 -0.0613978 -0.0489752 -0.00146712 
-0.254583 -0.10172 -0.0356387 -0.155236 -0.0702756 0.0691201 -0.160916 -0.0678857 0.147652 
-0.120675 -0.0590484 0.111388 -0.0771975 -0.0526791 0.00804587 -0.142627 -0.0650095 0.108156 
-0.176779 -0.0727371 0.134342 -0.25076 -0.102231 -0.066361 -0.164524 -0.077811 -0.0334271 
-0.243153 -0.101358 -0.0892954 -0.197683 -0.0800831 0.0975715 -0.0699194 -0.0556021 -0.0897661 
-0.224313 -0.0906336 0.0266601 -0.0998069 -0.0697318 -0.215538 -0.137167 -0.0644542 0.0902415 
-0.226057 -0.0984427 -0.121644 -0.22589 -0.0910492 0.0266844 -0.191885 -0.0916638 -0.167085 
-0.0341846 -0.0434647 -0.0353916 -0.146602 -0.0768338 -0.109291 -0.205496 -0.0864526 0.0106874 
-0.184431 -0.0792054 0.0446037 -0.159143 -0.0734604 0.0256776 -0.135251 -0.0761745 -0.156526 
-0.171006 -0.0873632 -0.191646 -0.0949999 -0.0523532 0.109575 -0.0407204 -0.0461763 -0.0552604 
-0.246918 -0.103692 -0.116338 -0.0667406 -0.0552236 -0.0990808 -0.115001 -0.0610593 -0.0102181 
-0.101165 -0.0613301 -0.0829411 -0.101306 -0.0651223 -0.153016 -0.174461 -0.0790024 -0.0542319 
-0.166471 -0.0716869 0.0431991 -0.164623 -0.0797221 -0.115783 -0.148788 -0.0797684 -0.194092 
-0.187083 -0.079349 0.00103448 -0.0969974 -0.067407 -0.216723 -0.0490674 -0.0452849 -0.0383318 
-0.215497 -0.0919172 -0.0945282 -0.183985 -0.0874341 -0.164991 -0.0518021 -0.047734 -0.0706582 
-0.228571 -0.093322 -0.056801 -0.0610191 -0.0524819 -0.114178 -0.206123 -0.091745 -0.137163 
-0.202558 -0.0834191 0.000767629 -0.0832836 -0.0625348 -0.192878 -0.0425023 -0.0422788 -0.0143442 
-0.130968 -0.0776402 -0.241534 -0.0604978 -0.0487662 -0.04739 -0.249314 -0.100308 -0.085718 
-0.154231 -0.0697411 0.0196427 -0.162 -0.0676624 0.0964329 -0.121474 -0.0588906 0.0619097 
-0.0766873 -0.0525439 -0.038702 -0.143229 -0.0648007 0.0580283 -0.177344 -0.0724082 0.0829185 
-0.244852 -0.100751 -0.115806 -0.161352 -0.0770303 -0.0815464 -0.236858 -0.0998536 -0.13815 
-0.196624 -0.079413 0.0465043 -0.0667878 -0.0550736 -0.134326 -0.221054 -0.0895822 -0.0237759 
-0.093321 -0.0686919 -0.258682 -0.137019 -0.0640955 0.0408171 -0.219336 -0.0969417 -0.169511 
-0.222719 -0.090023 -0.0238584 -0.184757 -0.090226 -0.213317 -0.0332461 -0.0433812 -0.0801873 
-0.141605 -0.0758122 -0.155399 -0.202164 -0.0854456 -0.0389733 -0.182718 -0.0785492 -0.00539327 
-0.157001 -0.0727575 -0.0230965 -0.129696 -0.0751729 -0.201711 -0.163703 -0.0859735 -0.236934 
-0.0962688 -0.0523472 0.0607401 -0.0392286 -0.0460047 -0.099883 -0.239927 -0.102086 -0.164808 
-0.0639208 -0.0548229 -0.14367 
f 3 100 double
0 0 0 0 0 0 0 0 0 
0 0 0 0 0 0 0 0 0 
0 0 0 0 0 0 0 0 0 
0 0 0 0 0 0 0 0 0 
0 0 0 0 0 0 0 0 0 
0 0 0 0 0 0 0 0 0 
0 0 0 0 0 0 0 0 0 
0 0 0 0 0 0 0 0 0 
0 0 0 0 0 0 0 0 0 
0 0 0 0 0 0 0 0 0 
0 0 0 0 0 0 0 0 0 
0 0 0 0 0 0 0 0 0 
0 0 0 0 0 0 0 0 0 
0 0 0 0 0 0 0 0 0 
0 0 0 0 0 0 0 0 0 
0 0 0 0 0 0 0 0 0 
0 0 0 0 0 0 0 0 0 
0 0 0 0 0 0 0 0 0 
0 0 0 0 0 0 0 0 0 
0 0 0 0 0 0 0 0 0 
0 0 0 0 0 0 0 0 0 
0 0 0 0 0 0 0 0 0 
0 0 0 0 0 0 0 0 0 
0 0 0 0 0 0 0 0 0 
0 0 0 0 0 0 0 0 0 
0 0 0 0 0 0 0 0 0 
0 0 0 0 0 0 0 0 0 
0 0 0 0 0 0 0 0 0 
0 0 0 0 0 0 0 0 0 
0 0 0 0 0 0 0 0 0 
0 0 0 0 0 0 0 0 0 
0 0 0 0 0 0 0 0 0 
0 0 0 0 0 0 0 0 0 
0 0 0 
radius 1 100 double
0.010434 0.00981478 0.00892069 0.00845937 0.00731974 0.00728422 0.00643447 0.00619172 0.00585956 
0.00577566 0.00537241 0.00522549 0.00513666 0.00473175 0.00466912 0.00444866 0.00441894 0.00400812 
0.00385622 0.00379948 0.00370243 0.00366942 0.00364039 0.00363813 0.00363644 0.00358692 0.0035797 
0.00341284 0.00337012 0.00336273 0.00332772 0.00323261 0.00320584 0.00320311 0.00318808 0.00313116 
0.00306026 0.00305632 0.00304383 0.00300958 0.00300137 0.00298994 0.0029567 0.00295111 0.00290849 
0.00284552 0.00282964 0.0028207 0.00281971 0.00281899 0.010434 0.00981478 0.00892069 0.00845937 
0.00731974 0.00728422 0.00643447 0.00619172 0.00585956 0.00577566 0.00537241 0.00522549 0.00513666 
0.00473175 0.00466912 0.00444866 0.00441894 0.00400812 0.00385622 0.00379948 0.00370243 0.00366942 
0.00364039 0.00363813 0.00363644 0.00358692 0.0035797 0.00341284 0.00337012 0.00336273 0.00332772 
0.00323261 0.00320584 0.00320311 0.00318808 0.00313116 0.00306026 0.00305632 0.00304383 0.00300958 
0.00300137 0.00298994 0.0029567 0.00295111 0.00290849 0.00284552 0.00282964 0.0028207 0.00281971 
0.00281899 
omega 3 100 double
1.86651 -7.06315 0.349956 1.86651 -7.06315 0.349956 1.86651 -7.06315 0.349956 
1.86651 -7.06315 0.349956 1.86651 -7.06315 0.349956 1.86651 -7.06315 0.349956 
1.86651 -7.06315 0.349956 1.86651 -7.06315 0.349956 1.86651 -7.06315 0.349956 
1.86651 -7.06315 0.349956 1.86651 -7.06315 0.349956 1.86651 -7.06315 0.349956 
1.86651 -7.06315 0.349956 1.86651 -7.06315 0.349956 1.86651 -7.06315 0.349956 
1.86651 -7.06315 0.349956 1.86651 -7.06315 0.349956 1.86651 -7.06315 0.349956 
1.86651 -7.06315 0.349956 1.86651 -7.06315 0.349956 1.86651 -7.06315 0.349956 
1.86651 -7.06315 0.349956 1.86651 -7.06315 0.349956 1.86651 -7.06315 0.349956 
1.86651 -7.06315 0.349956 1.86651 -7.06315 0.349956 1.86651 -7.06315 0.349956 
1.86651 -7.06315 0.349956 1.86651 -7.06315 0.349956 1.86651 -7.06315 0.349956 
1.86651 -7.06315 0.349956 1.86651 -7.06315 0.349956 1.86651 -7.06315 0.349956 
1.86651 -7.06315 0.349956 1.86651 -7.06315 0.349956 1.86651 -7.06315 0.349956 
1.86651 -7.06315 0.349956 1.86651 -7.06315 0.349956 1.86651 -7.06315 0.349956 
1.86651 -7.06315 0.349956 1.86651 -7.06315 0.349956 1.86651 -7.06315 0.349956 
1.86651 -7.06315 0.349956 1.86651 -7.06315 0.349956 1.86651 -7.06315 0.349956 
1.86651 -7.06315 0.349956 1.86651 -7.06315 0.349956 1.86651 -7.06315 0.349956 
1.86651 -7.06315 0.349956 1.86651 -7.06315 0.349956 1.81845 -6.93807 0.371801 
1.81845 -6.93807 0.371801 1.81845 -6.93807 0.371801 1.81845 -6.93807 0.371801 
1.81845 -6.93807 0.371801 1.81845 -6.93807 0.371801 1.81845 -6.93807 0.371801 
1.81845 -6.93807 0.371801 1.81845 -6.93807 0.371801 1.81845 -6.93807 0.371801 
1.81845 -6.93807 0.371801 1.81845 -6.93807 0.371801 1.81845 -6.93807 0.371801 
1.81845 -6.93807 0.371801 1.81845 -6.93807 0.371801 1.81845 -6.93807 0.371801 
1.81845 -6.93807 0.371801 1.81845 -6.93807 0.371801 1.81845 -6.93807 0.371801 
1.81845 -6.93807 0.371801 1.81845 -6.93807 0.371801 1.81845 -6.93807 0.371801 
1.81845 -6.93807 0.371801 1.81845 -6.93807 0.371801 1.81845 -6.93807 0.371801 
1.81845 -6.93807 0.371801 1.81845 -6.93807 0.371801 1.81845 -6.93807 0.371801 
1.81845 -6.93807 0.371801 1.81845 -6.93807 0.371801 1.81845 -6.93807 0.371801 
1.81845 -6.93807 0.371801 1.81845 -6.93807 0.371801 1.81845 -6.93807 0.371801 
1.81845 -6.93807 0.371801 1.81845 -6.93807 0.371801 1.81845 -6.93807 0.371801 
1.81845 -6.93807 0.371801 1.81845 -6.93807 0.371801 1.81845 -6.93807 0.371801 
1.81845 -6.93807 0.371801 1.81845 -6.93807 0.371801 1.81845 -6.93807 0.371801 
1.81845 -6.93807 0.371801 1.81845 -6.93807 0.371801 1.81845 -6.93807 0.371801 
1.81845 -6.93807 0.371801 1.81845 -6.93807 0.371801 1.81845 -6.93807 0.371801 
1.81845 -6.93807 0.371801 
