# vtk DataFile Version 4.0
Generated by LIGGGHTS
ASCII
DATASET POLYDATA
POINTS 100 float
-0.112451 -0.131194 0.0234398 -0.122747 -0.132151 0.021892 -0.132762 -0.132421 0.0223065 
-0.117969 -0.132996 0.0323452 -0.104791 -0.129941 0.0304994 -0.126632 -0.133963 0.0313135 
-0.137746 -0.134916 0.0295076 -0.109504 -0.134668 0.0339562 -0.141682 -0.133468 0.0220877 
-0.117526 -0.128723 0.0139557 -0.122676 -0.136264 0.0386553 -0.133037 -0.136123 0.0344881 
-0.123021 -0.125444 0.0143459 -0.116938 -0.137149 0.0403833 -0.128931 -0.12659 0.0159724 
-0.128631 -0.137164 0.0375844 -0.110973 -0.128854 0.0358703 -0.139975 -0.127181 0.0196392 
-0.112809 -0.133703 0.0131515 -0.144241 -0.136584 0.0272875 -0.116467 -0.137502 0.0161311 
-0.120655 -0.13839 0.0435969 -0.106247 -0.137607 0.0292814 -0.0981235 -0.126241 0.029365 
-0.101857 -0.131861 0.0240185 -0.118674 -0.123927 0.0176762 -0.10446 -0.123565 0.0267219 
-0.100588 -0.123914 0.0315223 -0.124997 -0.138447 0.0431199 -0.123568 -0.126913 0.0302721 
-0.128264 -0.138428 0.0420879 -0.102692 -0.135478 0.0351291 -0.12861 -0.138776 0.0175778 
-0.112062 -0.137784 0.039156 -0.147039 -0.136159 0.021932 -0.103604 -0.136442 0.026623 
-0.132908 -0.13832 0.0397268 -0.112958 -0.134368 0.03921 -0.139488 -0.138037 0.0349654 
-0.123204 -0.130396 0.0119937 -0.131157 -0.138972 0.0284842 -0.113959 -0.139315 0.0365997 
-0.112711 -0.126041 0.032891 -0.111881 -0.139526 0.0300168 -0.14036 -0.129539 0.0265042 
-0.143057 -0.137853 0.0320492 -0.102481 -0.130678 0.020328 -0.126189 -0.12969 0.0129239 
-0.132046 -0.13857 0.0426822 -0.133569 -0.125022 0.0164646 -0.0435735 -0.1034 0.023275 
-0.0538292 -0.104363 0.0214781 -0.0638501 -0.104652 0.0216544 -0.0492967 -0.105275 0.0320348 
-0.036085 -0.102185 0.030522 -0.0579314 -0.106249 0.0307922 -0.0689977 -0.107207 0.0287181 
-0.0408688 -0.106945 0.0338329 -0.072761 -0.105713 0.021218 -0.0484285 -0.10087 0.0136917 
-0.054145 -0.108596 0.0382087 -0.0644057 -0.108442 0.0337995 -0.0539368 -0.0976028 0.0139756 
-0.0484481 -0.109484 0.0400652 -0.0598818 -0.0987702 0.0154541 -0.0600718 -0.109498 0.0369913 
-0.0423938 -0.101147 0.0357532 -0.0710076 -0.0994059 0.0188553 -0.0436845 -0.105836 0.0129635 
-0.0754357 -0.10887 0.0263337 -0.0474047 -0.109662 0.0158289 -0.0522377 -0.110754 0.0431813 
-0.0374977 -0.109845 0.0292155 -0.0293989 -0.0984659 0.0295714 -0.0329952 -0.104054 0.0240985 
-0.0496723 -0.0961024 0.0174182 -0.0356764 -0.0957813 0.0267988 -0.0319181 -0.0961586 0.0316866 
-0.0565666 -0.110814 0.0426017 -0.0548563 -0.0991869 0.0298736 -0.0598088 -0.110794 0.0414932 
-0.0340852 -0.107752 0.0351603 -0.0595759 -0.110966 0.0169798 -0.0435435 -0.110102 0.0389487 
-0.0781073 -0.108411 0.0209168 -0.0347949 -0.108656 0.0266284 -0.0643958 -0.110676 0.039024 
-0.0444467 -0.106688 0.0390058 -0.0708619 -0.11037 0.034111 -0.054056 -0.102538 0.0115845 
-0.0623795 -0.111245 0.0278215 -0.0453764 -0.111618 0.0363375 -0.0440662 -0.0983153 0.0327539 
-0.0431434 -0.111778 0.0298041 -0.07155 -0.101813 0.0256923 -0.0743621 -0.110171 0.0311128 
-0.0335345 -0.102845 0.0204029 -0.0570632 -0.101843 0.0124491 -0.0636034 -0.110946 0.0419971 
-0.0645333 -0.0972131 0.015848 
VERTICES 100 200
1 0 
1 1 
1 2 
1 3 
1 4 
1 5 
1 6 
1 7 
1 8 
1 9 
1 10 
1 11 
1 12 
1 13 
1 14 
1 15 
1 16 
1 17 
1 18 
1 19 
1 20 
1 21 
1 22 
1 23 
1 24 
1 25 
1 26 
1 27 
1 28 
1 29 
1 30 
1 31 
1 32 
1 33 
1 34 
1 35 
1 36 
1 37 
1 38 
1 39 
1 40 
1 41 
1 42 
1 43 
1 44 
1 45 
1 46 
1 47 
1 48 
1 49 
1 50 
1 51 
1 52 
1 53 
1 54 
1 55 
1 56 
1 57 
1 58 
1 59 
1 60 
1 61 
1 62 
1 63 
1 64 
1 65 
1 66 
1 67 
1 68 
1 69 
1 70 
1 71 
1 72 
1 73 
1 74 
1 75 
1 76 
1 77 
1 78 
1 79 
1 80 
1 81 
1 82 
1 83 
1 84 
1 85 
1 86 
1 87 
1 88 
1 89 
1 90 
1 91 
1 92 
1 93 
1 94 
1 95 
1 96 
1 97 
1 98 
1 99 

POINT_DATA 100
FIELD FieldData 7
id 1 100 int
1 2 3 4 5 6 7 8 9 
10 11 12 13 14 15 16 17 18 
19 20 21 22 23 24 25 26 27 
28 29 30 31 32 33 34 35 36 
37 38 39 40 41 42 43 44 45 
46 47 48 49 50 51 52 53 54 
55 56 57 58 59 60 61 62 63 
64 65 66 67 68 69 70 71 72 
73 74 75 76 77 78 79 80 81 
82 83 84 85 86 87 88 89 90 
91 92 93 94 95 96 97 98 99 
100 
mol 1 100 int
1 1 1 1 1 1 1 1 1 
1 1 1 1 1 1 1 1 1 
1 1 1 1 1 1 1 1 1 
1 1 1 1 1 1 1 1 1 
1 1 1 1 1 1 1 1 1 
1 1 1 1 1 2 2 2 2 
2 2 2 2 2 2 2 2 2 
2 2 2 2 2 2 2 2 2 
2 2 2 2 2 2 2 2 2 
2 2 2 2 2 2 2 2 2 
2 2 2 2 2 2 2 2 2 
2 
type 1 100 int
1 1 1 1 1 1 1 1 1 
1 1 1 1 1 1 1 1 1 
1 1 1 1 1 1 1 1 1 
1 1 1 1 1 1 1 1 1 
1 1 1 1 1 1 1 1 1 
1 1 1 1 1 1 1 1 1 
1 1 1 1 1 1 1 1 1 
1 1 1 1 1 1 1 1 1 
1 1 1 1 1 1 1 1 1 
1 1 1 1 1 1 1 1 1 
1 1 1 1 1 1 1 1 1 
1 
v 3 100 double
-0.114873 -0.0612106 0.0571669 -0.103622 -0.0617833 -0.0173273 -0.106456 -0.0659617 -0.0885311 
-0.177127 -0.0798804 0.0148117 -0.165134 -0.0719294 0.113599 -0.169516 -0.0808725 -0.0481676 
-0.156445 -0.0812354 -0.12842 -0.187933 -0.0800481 0.071416 -0.104557 -0.0685745 -0.153479 
-0.0487601 -0.0450422 0.0259986 -0.220564 -0.0933795 -0.0245789 -0.191194 -0.0890332 -0.0974579 
-0.0526266 -0.0476419 -0.00660534 -0.232463 -0.0946931 0.0142544 -0.0637194 -0.0527144 -0.0504909 
-0.212699 -0.0933793 -0.0683176 -0.203417 -0.0841572 0.0720077 -0.0894045 -0.0633768 -0.129565 
-0.0413939 -0.0419253 0.0499061 -0.140207 -0.0792507 -0.177418 -0.061139 -0.0487863 0.0169177 
-0.254727 -0.102016 -0.0143256 -0.153936 -0.0701257 0.0888613 -0.15838 -0.067528 0.167649 
-0.118732 -0.0587092 0.130691 -0.0766509 -0.0524495 0.0269426 -0.14063 -0.0646914 0.127965 
-0.174399 -0.0724334 0.154638 -0.251341 -0.102588 -0.0450813 -0.164556 -0.0778688 -0.0132385 
-0.244062 -0.10175 -0.0681111 -0.195938 -0.0799503 0.117974 -0.0709196 -0.0556336 -0.0712054 
-0.223583 -0.0907243 0.0474765 -0.102545 -0.0700974 -0.196367 -0.135564 -0.0642146 0.109716 
-0.227431 -0.0988711 -0.100689 -0.225123 -0.09113 0.0475954 -0.193915 -0.0921213 -0.146602 
-0.0343421 -0.0432671 -0.0172424 -0.147845 -0.0770705 -0.0895601 -0.205018 -0.0865456 0.0312012 
-0.18334 -0.0791269 0.065046 -0.158476 -0.0734234 0.0454743 -0.137067 -0.0764567 -0.136731 
-0.173391 -0.0878311 -0.171454 -0.093081 -0.0519596 0.128517 -0.0411484 -0.0460342 -0.0369812 
-0.248209 -0.104154 -0.0950767 -0.0677263 -0.0552161 -0.0802754 -0.114117 -0.0608764 0.00911959 
-0.101308 -0.0612867 -0.0637671 -0.102426 -0.065239 -0.133787 -0.174181 -0.0790486 -0.0340143 
-0.16481 -0.0714848 0.0632796 -0.165212 -0.0798911 -0.095679 -0.150483 -0.0800855 -0.174177 
-0.186045 -0.0793022 0.0213587 -0.0990156 -0.067663 -0.197526 -0.0485801 -0.0450204 -0.0198961 
-0.215791 -0.0921515 -0.0737364 -0.185271 -0.0877624 -0.144604 -0.0517313 -0.0475364 -0.052088 
-0.228342 -0.0935011 -0.0358652 -0.0615605 -0.0524062 -0.0954584 -0.207022 -0.0920598 -0.116493 
-0.20146 -0.0833838 0.0214399 -0.0849153 -0.0626856 -0.173776 -0.0417324 -0.0419643 0.00387259 
-0.133347 -0.078034 -0.221877 -0.0602164 -0.0485777 -0.0289569 -0.249491 -0.1006 -0.0644764 
-0.152977 -0.069595 0.0394051 -0.159565 -0.067317 0.116479 -0.119591 -0.05856 0.0812694 
-0.0761465 -0.0523198 -0.0197592 -0.14131 -0.0644937 0.0778828 -0.175067 -0.0721167 0.10325 
-0.24545 -0.101103 -0.0946063 -0.161399 -0.0770893 -0.0613757 -0.23777 -0.100239 -0.11705 
-0.194958 -0.0792859 0.0669153 -0.0677249 -0.0550997 -0.115753 -0.220376 -0.0896732 -0.00299184 
-0.0959504 -0.0690452 -0.239559 -0.135467 -0.0638615 0.0603309 -0.220691 -0.0973614 -0.148642 
-0.222009 -0.0901052 -0.00297981 -0.186733 -0.0906724 -0.192917 -0.033364 -0.0431848 -0.061985 
-0.142804 -0.0760415 -0.135706 -0.201721 -0.0855376 -0.0184874 -0.181687 -0.0784767 0.015048 
-0.156358 -0.0727209 -0.00329673 -0.131453 -0.0754482 -0.181962 -0.166015 -0.0864291 -0.216823 
-0.0944018 -0.0519628 0.0797519 -0.0396109 -0.0458627 -0.0815613 -0.241209 -0.102539 -0.143643 
-0.0648559 -0.0548142 -0.124851 
f 3 100 double
0 0 0 0 0 0 0 0 0 
0 0 0 0 0 0 0 0 0 
0 0 0 0 0 0 0 0 0 
0 0 0 0 0 0 0 0 0 
0 0 0 0 0 0 0 0 0 
0 0 0 0 0 0 0 0 0 
0 0 0 0 0 0 0 0 0 
0 0 0 0 0 0 0 0 0 
0 0 0 0 0 0 0 0 0 
0 0 0 0 0 0 0 0 0 
0 0 0 0 0 0 0 0 0 
0 0 0 0 0 0 0 0 0 
0 0 0 0 0 0 0 0 0 
0 0 0 0 0 0 0 0 0 
0 0 0 0 0 0 0 0 0 
0 0 0 0 0 0 0 0 0 
0 0 0 0 0 0 0 0 0 
0 0 0 0 0 0 0 0 0 
0 0 0 0 0 0 0 0 0 
0 0 0 0 0 0 0 0 0 
0 0 0 0 0 0 0 0 0 
0 0 0 0 0 0 0 0 0 
0 0 0 0 0 0 0 0 0 
0 0 0 0 0 0 0 0 0 
0 0 0 0 0 0 0 0 0 
0 0 0 0 0 0 0 0 0 
0 0 0 0 0 0 0 0 0 
0 0 0 0 0 0 0 0 0 
0 0 0 0 0 0 0 0 0 
0 0 0 0 0 0 0 0 0 
0 0 0 0 0 0 0 0 0 
0 0 0 0 0 0 0 0 0 
0 0 0 0 0 0 0 0 0 
0 0 0 
radius 1 100 double
0.010434 0.00981478 0.00892069 0.00845937 0.00731974 0.00728422 0.00643447 0.00619172 0.00585956 
0.00577566 0.00537241 0.00522549 0.00513666 0.00473175 0.00466912 0.00444866 0.00441894 0.00400812 
0.00385622 0.00379948 0.00370243 0.00366942 0.00364039 0.00363813 0.00363644 0.00358692 0.0035797 
0.00341284 0.00337012 0.00336273 0.00332772 0.00323261 0.00320584 0.00320311 0.00318808 0.00313116 
0.00306026 0.00305632 0.00304383 0.00300958 0.00300137 0.00298994 0.0029567 0.00295111 0.00290849 
0.00284552 0.00282964 0.0028207 0.00281971 0.00281899 0.010434 0.00981478 0.00892069 0.00845937 
0.00731974 0.00728422 0.00643447 0.00619172 0.00585956 0.00577566 0.00537241 0.00522549 0.00513666 
0.00473175 0.00466912 0.00444866 0.00441894 0.00400812 0.00385622 0.00379948 0.00370243 0.00366942 
0.00364039 0.00363813 0.00363644 0.00358692 0.0035797 0.00341284 0.00337012 0.00336273 0.00332772 
0.00323261 0.00320584 0.00320311 0.00318808 0.00313116 0.00306026 0.00305632 0.00304383 0.00300958 
0.00300137 0.00298994 0.0029567 0.00295111 0.00290849 0.00284552 0.00282964 0.0028207 0.00281971 
0.00281899 
omega 3 100 double
1.8863 -7.0593 0.339164 1.8863 -7.0593 0.339164 1.8863 -7.0593 0.339164 
1.8863 -7.0593 0.339164 1.8863 -7.0593 0.339164 1.8863 -7.0593 0.339164 
1.8863 -7.0593 0.339164 1.8863 -7.0593 0.339164 1.8863 -7.0593 0.339164 
1.8863 -7.0593 0.339164 1.8863 -7.0593 0.339164 1.8863 -7.0593 0.339164 
1.8863 -7.0593 0.339164 1.8863 -7.0593 0.339164 1.8863 -7.0593 0.339164 
1.8863 -7.0593 0.339164 1.8863 -7.0593 0.339164 1.8863 -7.0593 0.339164 
1.8863 -7.0593 0.339164 1.8863 -7.0593 0.339164 1.8863 -7.0593 0.339164 
1.8863 -7.0593 0.339164 1.8863 -7.0593 0.339164 1.8863 -7.0593 0.339164 
1.8863 -7.0593 0.339164 1.8863 -7.0593 0.339164 1.8863 -7.0593 0.339164 
1.8863 -7.0593 0.339164 1.8863 -7.0593 0.339164 1.8863 -7.0593 0.339164 
1.8863 -7.0593 0.339164 1.8863 -7.0593 0.339164 1.8863 -7.0593 0.339164 
1.8863 -7.0593 0.339164 1.8863 -7.0593 0.339164 1.8863 -7.0593 0.339164 
1.8863 -7.0593 0.339164 1.8863 -7.0593 0.339164 1.8863 -7.0593 0.339164 
1.8863 -7.0593 0.339164 1.8863 -7.0593 0.339164 1.8863 -7.0593 0.339164 
1.8863 -7.0593 0.339164 1.8863 -7.0593 0.339164 1.8863 -7.0593 0.339164 
1.8863 -7.0593 0.339164 1.8863 -7.0593 0.339164 1.8863 -7.0593 0.339164 
1.8863 -7.0593 0.339164 1.8863 -7.0593 0.339164 1.83797 -6.93429 0.362053 
1.83797 -6.93429 0.362053 1.83797 -6.93429 0.362053 1.83797 -6.93429 0.362053 
1.83797 -6.93429 0.362053 1.83797 -6.93429 0.362053 1.83797 -6.93429 0.362053 
1.83797 -6.93429 0.362053 1.83797 -6.93429 0.362053 1.83797 -6.93429 0.362053 
1.83797 -6.93429 0.362053 1.83797 -6.93429 0.362053 1.83797 -6.93429 0.362053 
1.83797 -6.93429 0.362053 1.83797 -6.93429 0.362053 1.83797 -6.93429 0.362053 
1.83797 -6.93429 0.362053 1.83797 -6.93429 0.362053 1.83797 -6.93429 0.362053 
1.83797 -6.93429 0.362053 1.83797 -6.93429 0.362053 1.83797 -6.93429 0.362053 
1.83797 -6.93429 0.362053 1.83797 -6.93429 0.362053 1.83797 -6.93429 0.362053 
1.83797 -6.93429 0.362053 1.83797 -6.93429 0.362053 1.83797 -6.93429 0.362053 
1.83797 -6.93429 0.362053 1.83797 -6.93429 0.362053 1.83797 -6.93429 0.362053 
1.83797 -6.93429 0.362053 1.83797 -6.93429 0.362053 1.83797 -6.93429 0.362053 
1.83797 -6.93429 0.362053 1.83797 -6.93429 0.362053 1.83797 -6.93429 0.362053 
1.83797 -6.93429 0.362053 1.83797 -6.93429 0.362053 1.83797 -6.93429 0.362053 
1.83797 -6.93429 0.362053 1.83797 -6.93429 0.362053 1.83797 -6.93429 0.362053 
1.83797 -6.93429 0.362053 1.83797 -6.93429 0.362053 1.83797 -6.93429 0.362053 
1.83797 -6.93429 0.362053 1.83797 -6.93429 0.362053 1.83797 -6.93429 0.362053 
1.83797 -6.93429 0.362053 
