# vtk DataFile Version 4.0
Generated by LIGGGHTS
ASCII
DATASET POLYDATA
POINTS 100 float
-0.117239 -0.145468 0.0134822 -0.12716 -0.142968 0.0113195 -0.137021 -0.141162 0.0111364 
-0.124367 -0.150889 0.0192114 -0.110751 -0.150407 0.0200834 -0.132783 -0.149071 0.0175063 
-0.143455 -0.146231 0.0151148 -0.116655 -0.155047 0.0197475 -0.145834 -0.13983 0.0100144 
-0.120225 -0.136797 0.00734199 -0.130506 -0.15609 0.0220224 -0.139884 -0.151175 0.0184651 
-0.125122 -0.133251 0.00947262 -0.125345 -0.159093 0.0230396 -0.131326 -0.133766 0.00984909 
-0.136269 -0.154809 0.0204202 -0.117485 -0.15135 0.0247743 -0.142776 -0.133902 0.0119991 
-0.116285 -0.141238 0.00381426 -0.149675 -0.144741 0.0121163 -0.120937 -0.145116 0.00370784 
-0.12969 -0.161116 0.0246857 -0.113176 -0.155289 0.0143685 -0.103488 -0.148378 0.0216882 
-0.107126 -0.148719 0.0138933 -0.121201 -0.135029 0.0131802 -0.108799 -0.143312 0.0210273 
-0.105877 -0.147298 0.0247331 -0.133847 -0.159898 0.0241251 -0.128516 -0.143692 0.0211159 
-0.136855 -0.158535 0.0232101 -0.110344 -0.157906 0.0204101 -0.133199 -0.144217 0.00364961 
-0.120496 -0.159959 0.0218494 -0.151448 -0.14061 0.00805604 -0.10998 -0.15341 0.013077 
-0.140969 -0.156006 0.0212542 -0.120838 -0.157145 0.0239572 -0.146544 -0.151483 0.0174454 
-0.125693 -0.135648 0.0045723 -0.137511 -0.15025 0.0120454 -0.122161 -0.159202 0.0188281 
-0.118241 -0.147017 0.0240906 -0.119084 -0.155937 0.0135776 -0.144656 -0.139703 0.0159547 
-0.149509 -0.148809 0.015135 -0.106938 -0.145477 0.0116867 -0.128642 -0.134978 0.00563682 
-0.140658 -0.158143 0.0234616 -0.135675 -0.131797 0.0110402 -0.0483019 -0.116229 0.0133119 
-0.058366 -0.11427 0.0112587 -0.0683261 -0.113123 0.0111378 -0.055053 -0.122468 0.01865 
-0.0415015 -0.121128 0.0196226 -0.0635711 -0.121116 0.0170185 -0.0744082 -0.118854 0.0147545 
-0.0470787 -0.126124 0.0189634 -0.0772086 -0.112318 0.0100556 -0.0518596 -0.107406 0.0077151 
-0.0608307 -0.128238 0.0210948 -0.0705148 -0.12375 0.0178051 -0.0569867 -0.10434 0.0100392 
-0.0554798 -0.130946 0.0219478 -0.0631418 -0.105294 0.0103497 -0.0666656 -0.127248 0.0195462 
-0.0481614 -0.122817 0.024209 -0.0745593 -0.106335 0.0124263 -0.0476252 -0.111341 0.00393513 
-0.0807116 -0.1176 0.0118231 -0.0520052 -0.115508 0.00355976 -0.0596803 -0.133356 0.02344 
-0.0435859 -0.12579 0.0135985 -0.0343939 -0.11872 0.0213906 -0.0379932 -0.118811 0.0135706 
-0.052958 -0.106082 0.0136479 -0.0400337 -0.113992 0.0210224 -0.0368534 -0.117998 0.0244848 
-0.0639095 -0.132388 0.0229355 -0.0596805 -0.115701 0.0209826 -0.0670013 -0.131175 0.0220923 
-0.0405905 -0.128588 0.0194778 -0.0642997 -0.115434 0.00349353 -0.0505817 -0.131406 0.020731 
-0.0827546 -0.113349 0.00802215 -0.0405228 -0.123623 0.0124449 -0.0712748 -0.128809 0.0202782 
-0.0511154 -0.128761 0.0230103 -0.0771383 -0.124439 0.0167328 -0.05739 -0.106455 0.00499452 
-0.0682036 -0.122263 0.0114692 -0.0522916 -0.130573 0.0177548 -0.0492077 -0.11851 0.023796 
-0.0494365 -0.126783 0.012737 -0.0760479 -0.112488 0.0159981 -0.0802744 -0.12183 0.0145801 
-0.0380218 -0.115431 0.0115739 -0.0603778 -0.106054 0.00608355 -0.0708219 -0.131056 0.022348 
-0.0676157 -0.103702 0.0116396 
VERTICES 100 200
1 0 
1 1 
1 2 
1 3 
1 4 
1 5 
1 6 
1 7 
1 8 
1 9 
1 10 
1 11 
1 12 
1 13 
1 14 
1 15 
1 16 
1 17 
1 18 
1 19 
1 20 
1 21 
1 22 
1 23 
1 24 
1 25 
1 26 
1 27 
1 28 
1 29 
1 30 
1 31 
1 32 
1 33 
1 34 
1 35 
1 36 
1 37 
1 38 
1 39 
1 40 
1 41 
1 42 
1 43 
1 44 
1 45 
1 46 
1 47 
1 48 
1 49 
1 50 
1 51 
1 52 
1 53 
1 54 
1 55 
1 56 
1 57 
1 58 
1 59 
1 60 
1 61 
1 62 
1 63 
1 64 
1 65 
1 66 
1 67 
1 68 
1 69 
1 70 
1 71 
1 72 
1 73 
1 74 
1 75 
1 76 
1 77 
1 78 
1 79 
1 80 
1 81 
1 82 
1 83 
1 84 
1 85 
1 86 
1 87 
1 88 
1 89 
1 90 
1 91 
1 92 
1 93 
1 94 
1 95 
1 96 
1 97 
1 98 
1 99 

POINT_DATA 100
FIELD FieldData 7
id 1 100 int
1 2 3 4 5 6 7 8 9 
10 11 12 13 14 15 16 17 18 
19 20 21 22 23 24 25 26 27 
28 29 30 31 32 33 34 35 36 
37 38 39 40 41 42 43 44 45 
46 47 48 49 50 51 52 53 54 
55 56 57 58 59 60 61 62 63 
64 65 66 67 68 69 70 71 72 
73 74 75 76 77 78 79 80 81 
82 83 84 85 86 87 88 89 90 
91 92 93 94 95 96 97 98 99 
100 
mol 1 100 int
1 1 1 1 1 1 1 1 1 
1 1 1 1 1 1 1 1 1 
1 1 1 1 1 1 1 1 1 
1 1 1 1 1 1 1 1 1 
1 1 1 1 1 1 1 1 1 
1 1 1 1 1 2 2 2 2 
2 2 2 2 2 2 2 2 2 
2 2 2 2 2 2 2 2 2 
2 2 2 2 2 2 2 2 2 
2 2 2 2 2 2 2 2 2 
2 2 2 2 2 2 2 2 2 
2 
type 1 100 int
1 1 1 1 1 1 1 1 1 
1 1 1 1 1 1 1 1 1 
1 1 1 1 1 1 1 1 1 
1 1 1 1 1 1 1 1 1 
1 1 1 1 1 1 1 1 1 
1 1 1 1 1 1 1 1 1 
1 1 1 1 1 1 1 1 1 
1 1 1 1 1 1 1 1 1 
1 1 1 1 1 1 1 1 1 
1 1 1 1 1 1 1 1 1 
1 1 1 1 1 1 1 1 1 
1 
v 3 100 double
0.0524623 -0.147778 -0.0511804 0.0465483 -0.11705 0.0114618 0.0470836 -0.108587 0.0661106 
0.0689091 -0.207472 -0.0872026 0.072262 -0.22611 -0.129246 0.0641472 -0.182858 -0.037454 
0.0576571 -0.149073 0.0316346 0.0680757 -0.218501 -0.160767 0.0440391 -0.0902631 0.111796 
0.0366949 -0.0768981 0.0565861 0.0753274 -0.235043 -0.124198 0.066122 -0.18901 -0.0363318 
0.0464253 -0.097638 0.113467 0.0769215 -0.249817 -0.175905 0.0474026 -0.0978339 0.129303 
0.0705756 -0.213309 -0.0897228 0.0879991 -0.274401 -0.116368 0.0548085 -0.114533 0.167692 
0.0215129 -0.0398506 -0.00701527 0.0481739 -0.111366 0.0700379 0.0186225 -0.0356328 -0.0343339 
0.0813443 -0.265475 -0.183474 0.0491705 -0.16037 -0.175604 0.079174 -0.248846 -0.131777 
0.0517832 -0.158965 -0.122924 0.0581923 -0.141813 0.0798269 0.0801618 -0.237975 -0.0563925 
0.0904884 -0.28148 -0.111329 0.080182 -0.25648 -0.155307 0.0802238 -0.226158 0.00806928 
0.0778782 -0.244252 -0.129522 0.0685281 -0.230042 -0.214856 0.0190034 -0.0270116 0.0184942 
0.0722105 -0.239605 -0.202525 0.0367056 -0.0646275 0.122593 0.0458894 -0.147945 -0.165654 
0.0727047 -0.219619 -0.0867798 0.0813854 -0.263048 -0.169745 0.0623678 -0.173233 -0.0165694 
0.0277875 -0.0422482 0.0885429 0.0443471 -0.118474 -0.0342112 0.0621716 -0.204601 -0.188223 
0.0884315 -0.266234 -0.0650844 0.0459923 -0.14765 -0.162288 0.0648264 -0.157723 0.109114 
0.0560527 -0.145367 0.023791 0.0461981 -0.134313 -0.0871891 0.0319329 -0.0522844 0.106336 
0.0790098 -0.244606 -0.111867 0.0528336 -0.108381 0.16657 0.0677523 -0.120473 0.00142594 
0.0570573 -0.0978135 0.0754671 0.0568906 -0.09227 0.14175 0.0950435 -0.164598 -0.0156362 
0.10113 -0.179279 -0.0801906 0.086453 -0.146357 0.0443322 0.0747055 -0.121488 0.12541 
0.0951683 -0.17095 -0.0928864 0.0511513 -0.0787186 0.198942 0.0401632 -0.0694319 0.0994199 
0.106235 -0.1836 -0.0340332 0.0897048 -0.150187 0.0602119 0.0546438 -0.0876601 0.155417 
0.109827 -0.19354 -0.0881191 0.0559651 -0.0876369 0.181687 0.0979487 -0.167298 0.00760551 
0.126227 -0.216803 -0.0575671 0.0672048 -0.100853 0.236858 0.0170851 -0.0379415 0.040791 
0.0587432 -0.0927599 0.172029 0.0130967 -0.0326575 0.0286721 0.117156 -0.204835 -0.0857361 
0.0650722 -0.125124 -0.109627 0.112178 -0.19809 -0.0989934 0.0680506 -0.12739 -0.0795051 
0.0742056 -0.12135 0.117313 0.112227 -0.192304 -0.0254253 0.129947 -0.22432 -0.0787524 
0.114747 -0.198477 -0.0533338 0.111235 -0.183126 0.0702331 0.110539 -0.189639 -0.0251901 
0.0969613 -0.178409 -0.15123 0.0127564 -0.0265484 0.0986364 0.10276 -0.184991 -0.119799 
0.0392242 -0.0582633 0.221099 0.0595423 -0.116309 -0.107753 0.101374 -0.171693 0.0198038 
0.116798 -0.204886 -0.093426 0.0833496 -0.137738 0.0914609 0.0252528 -0.042913 0.139003 
0.0546527 -0.0952527 0.060321 0.0863551 -0.15793 -0.102804 0.125834 -0.212685 -0.0136225 
0.0597692 -0.114884 -0.085414 0.0845772 -0.131738 0.190893 0.0723857 -0.117312 0.132196 
0.0583121 -0.109738 -0.0494876 0.0315726 -0.0511913 0.159389 0.112033 -0.190182 -0.00260259 
0.0639528 -0.0970222 0.220978 
f 3 100 double
0 0 0 0 0 0 0 0 0 
0 0 0 0 0 0 0 0 0 
0 0 0 0 0 0 0 0 0 
0 0 0 0 0 0 0 0 0 
0 0 0 0 0 0 0 0 0 
0 0 0 0 0 0 0 0 0 
-0.0882624 -0.0575457 0.21073 0 0 0 0 0 0 
0 0 0 0 0 0 0 0 0 
0 0 0 0 0 0 0 0 0 
0 0 0 0 0 0 0 0 0 
0 0 0 0 0 0 0 0 0 
0 0 0 0 0 0 0 0 0 
0 0 0 0 0 0 0 0 0 
0 0 0 0 0 0 0 0 0 
0 0 0 0 0 0 0 0 0 
0 0 0 0 0 0 0 0 0 
0 0 0 0 0 0 0 0 0 
0 0 0 0 0 0 0 0 0 
0 0 0 0 0 0 0 0 0 
0 0 0 0 0 0 0 0 0 
0 0 0 0 0 0 0 0 0 
0 0 0 0 0 0 0 0 0 
0 0 0 0 0 0 0 0 0 
0 0 0 -0.225841 -0.0857884 0.483173 0 0 0 
0 0 0 0 0 0 0 0 0 
0 0 0 0 0 0 0 0 0 
0 0 0 0 0 0 0 0 0 
0 0 0 0 0 0 0 0 0 
0 0 0 0 0 0 0 0 0 
0 0 0 0 0 0 0 0 0 
0 0 0 0 0 0 0 0 0 
0 0 0 0 0 0 0 0 0 
0 0 0 0 0 0 0 0 0 
0 0 0 
radius 1 100 double
0.010434 0.00981478 0.00892069 0.00845937 0.00731974 0.00728422 0.00643447 0.00619172 0.00585956 
0.00577566 0.00537241 0.00522549 0.00513666 0.00473175 0.00466912 0.00444866 0.00441894 0.00400812 
0.00385622 0.00379948 0.00370243 0.00366942 0.00364039 0.00363813 0.00363644 0.00358692 0.0035797 
0.00341284 0.00337012 0.00336273 0.00332772 0.00323261 0.00320584 0.00320311 0.00318808 0.00313116 
0.00306026 0.00305632 0.00304383 0.00300958 0.00300137 0.00298994 0.0029567 0.00295111 0.00290849 
0.00284552 0.00282964 0.0028207 0.00281971 0.00281899 0.010434 0.00981478 0.00892069 0.00845937 
0.00731974 0.00728422 0.00643447 0.00619172 0.00585956 0.00577566 0.00537241 0.00522549 0.00513666 
0.00473175 0.00466912 0.00444866 0.00441894 0.00400812 0.00385622 0.00379948 0.00370243 0.00366942 
0.00364039 0.00363813 0.00363644 0.00358692 0.0035797 0.00341284 0.00337012 0.00336273 0.00332772 
0.00323261 0.00320584 0.00320311 0.00318808 0.00313116 0.00306026 0.00305632 0.00304383 0.00300958 
0.00300137 0.00298994 0.0029567 0.00295111 0.00290849 0.00284552 0.00282964 0.0028207 0.00281971 
0.00281899 
omega 3 100 double
11.2275 3.48552 -0.649773 11.2275 3.48552 -0.649773 11.2275 3.48552 -0.649773 
11.2275 3.48552 -0.649773 11.2275 3.48552 -0.649773 11.2275 3.48552 -0.649773 
11.2275 3.48552 -0.649773 11.2275 3.48552 -0.649773 11.2275 3.48552 -0.649773 
11.2275 3.48552 -0.649773 11.2275 3.48552 -0.649773 11.2275 3.48552 -0.649773 
11.2275 3.48552 -0.649773 11.2275 3.48552 -0.649773 11.2275 3.48552 -0.649773 
11.2275 3.48552 -0.649773 11.2275 3.48552 -0.649773 11.2275 3.48552 -0.649773 
11.2275 3.48552 -0.649773 11.2275 3.48552 -0.649773 11.2275 3.48552 -0.649773 
11.2275 3.48552 -0.649773 11.2275 3.48552 -0.649773 11.2275 3.48552 -0.649773 
11.2275 3.48552 -0.649773 11.2275 3.48552 -0.649773 11.2275 3.48552 -0.649773 
11.2275 3.48552 -0.649773 11.2275 3.48552 -0.649773 11.2275 3.48552 -0.649773 
11.2275 3.48552 -0.649773 11.2275 3.48552 -0.649773 11.2275 3.48552 -0.649773 
11.2275 3.48552 -0.649773 11.2275 3.48552 -0.649773 11.2275 3.48552 -0.649773 
11.2275 3.48552 -0.649773 11.2275 3.48552 -0.649773 11.2275 3.48552 -0.649773 
11.2275 3.48552 -0.649773 11.2275 3.48552 -0.649773 11.2275 3.48552 -0.649773 
11.2275 3.48552 -0.649773 11.2275 3.48552 -0.649773 11.2275 3.48552 -0.649773 
11.2275 3.48552 -0.649773 11.2275 3.48552 -0.649773 11.2275 3.48552 -0.649773 
11.2275 3.48552 -0.649773 11.2275 3.48552 -0.649773 8.83417 5.63771 -0.449297 
8.83417 5.63771 -0.449297 8.83417 5.63771 -0.449297 8.83417 5.63771 -0.449297 
8.83417 5.63771 -0.449297 8.83417 5.63771 -0.449297 8.83417 5.63771 -0.449297 
8.83417 5.63771 -0.449297 8.83417 5.63771 -0.449297 8.83417 5.63771 -0.449297 
8.83417 5.63771 -0.449297 8.83417 5.63771 -0.449297 8.83417 5.63771 -0.449297 
8.83417 5.63771 -0.449297 8.83417 5.63771 -0.449297 8.83417 5.63771 -0.449297 
8.83417 5.63771 -0.449297 8.83417 5.63771 -0.449297 8.83417 5.63771 -0.449297 
8.83417 5.63771 -0.449297 8.83417 5.63771 -0.449297 8.83417 5.63771 -0.449297 
8.83417 5.63771 -0.449297 8.83417 5.63771 -0.449297 8.83417 5.63771 -0.449297 
8.83417 5.63771 -0.449297 8.83417 5.63771 -0.449297 8.83417 5.63771 -0.449297 
8.83417 5.63771 -0.449297 8.83417 5.63771 -0.449297 8.83417 5.63771 -0.449297 
8.83417 5.63771 -0.449297 8.83417 5.63771 -0.449297 8.83417 5.63771 -0.449297 
8.83417 5.63771 -0.449297 8.83417 5.63771 -0.449297 8.83417 5.63771 -0.449297 
8.83417 5.63771 -0.449297 8.83417 5.63771 -0.449297 8.83417 5.63771 -0.449297 
8.83417 5.63771 -0.449297 8.83417 5.63771 -0.449297 8.83417 5.63771 -0.449297 
8.83417 5.63771 -0.449297 8.83417 5.63771 -0.449297 8.83417 5.63771 -0.449297 
8.83417 5.63771 -0.449297 8.83417 5.63771 -0.449297 8.83417 5.63771 -0.449297 
8.83417 5.63771 -0.449297 
