# vtk DataFile Version 4.0
Generated by LIGGGHTS
ASCII
DATASET POLYDATA
POINTS 100 float
-0.119585 -0.141768 0.0151921 -0.129059 -0.140302 0.0110177 -0.13878 -0.139027 0.00891832 
-0.127489 -0.145952 0.0209387 -0.11418 -0.144677 0.0237005 -0.135546 -0.14497 0.0175956 
-0.145729 -0.143262 0.0130056 -0.119932 -0.149516 0.0236304 -0.147318 -0.138392 0.00619313 
-0.121624 -0.134975 0.00673561 -0.133963 -0.150584 0.0239848 -0.142697 -0.14709 0.0179638 
-0.126814 -0.131237 0.00717082 -0.129007 -0.153024 0.0264709 -0.132997 -0.131918 0.00672617 
-0.139412 -0.149981 0.0212705 -0.121559 -0.144754 0.0274132 -0.144642 -0.132032 0.00709889 
-0.117155 -0.13996 0.00503838 -0.151412 -0.142814 0.00883432 -0.121711 -0.143948 0.00518902 
-0.133545 -0.154778 0.0278912 -0.115654 -0.150896 0.0190606 -0.107269 -0.142004 0.0258303 
-0.109642 -0.144376 0.0179021 -0.12351 -0.131895 0.011747 -0.11244 -0.137486 0.023157 
-0.110111 -0.140327 0.0281228 -0.13757 -0.153915 0.0264311 -0.131926 -0.138697 0.0203738 
-0.140405 -0.152946 0.0247687 -0.113787 -0.15185 0.0259141 -0.133818 -0.143628 0.00307128 
-0.124027 -0.153938 0.0262716 -0.152552 -0.139868 0.00366604 -0.112306 -0.149247 0.0178427 
-0.144178 -0.151146 0.021657 -0.12471 -0.150717 0.0275487 -0.149114 -0.147926 0.0160624 
-0.126598 -0.13477 0.00297994 -0.139355 -0.147639 0.0119447 -0.125204 -0.154007 0.0229423 
-0.122224 -0.140752 0.0255819 -0.121362 -0.151974 0.0175747 -0.147084 -0.136783 0.0120281 
-0.151697 -0.146021 0.0127483 -0.10913 -0.141759 0.0150219 -0.12968 -0.133993 0.00339244 
-0.144203 -0.152672 0.0243424 -0.13749 -0.129912 0.00673064 -0.0507829 -0.113227 0.0154305 
-0.0603635 -0.112038 0.0114137 -0.070164 -0.11127 0.00944084 -0.0583265 -0.118545 0.0207052 
-0.0451295 -0.116589 0.0236039 -0.066453 -0.117818 0.0174678 -0.0767608 -0.116398 0.0130612 
-0.050514 -0.121803 0.0230289 -0.0787412 -0.110985 0.00678178 -0.0533617 -0.105771 0.00771218 
-0.0644271 -0.123926 0.0232499 -0.0734283 -0.120481 0.0176054 -0.0588077 -0.102488 0.00852033 
-0.059292 -0.126238 0.0254803 -0.0649273 -0.10357 0.00799852 -0.0699216 -0.123448 0.0206031 
-0.0524612 -0.117586 0.0272776 -0.0765304 -0.104573 0.00833934 -0.0485517 -0.110216 0.00551957 
-0.0824862 -0.115942 0.00894899 -0.052804 -0.114521 0.00525314 -0.0636809 -0.128456 0.026706 
-0.0461736 -0.122391 0.0183483 -0.0384195 -0.11365 0.0260075 -0.0406605 -0.115365 0.0178741 
-0.0554377 -0.103367 0.0130101 -0.0439221 -0.109272 0.0238037 -0.0413624 -0.112429 0.0284555 
-0.067767 -0.127744 0.025336 -0.0632843 -0.111614 0.0208805 -0.0706753 -0.126821 0.0237772 
-0.0442012 -0.123903 0.0250707 -0.0649143 -0.114873 0.0031604 -0.054259 -0.12676 0.0251962 
-0.0838683 -0.112574 0.00410842 -0.0429624 -0.120386 0.0173113 -0.0745871 -0.124992 0.0208606 
-0.0551684 -0.123745 0.0267959 -0.0797787 -0.121586 0.0156181 -0.0583601 -0.105547 0.00398958 
-0.0700914 -0.120165 0.011567 -0.0554478 -0.126573 0.0218755 -0.0534272 -0.113477 0.0258654 
-0.051797 -0.123726 0.0167507 -0.0785904 -0.10997 0.0127514 -0.0825128 -0.119545 0.0125129 
-0.0403575 -0.112436 0.0152784 -0.0614882 -0.105044 0.00447476 -0.0744849 -0.126783 0.0233753 
-0.0695551 -0.101909 0.00820167 
VERTICES 100 200
1 0 
1 1 
1 2 
1 3 
1 4 
1 5 
1 6 
1 7 
1 8 
1 9 
1 10 
1 11 
1 12 
1 13 
1 14 
1 15 
1 16 
1 17 
1 18 
1 19 
1 20 
1 21 
1 22 
1 23 
1 24 
1 25 
1 26 
1 27 
1 28 
1 29 
1 30 
1 31 
1 32 
1 33 
1 34 
1 35 
1 36 
1 37 
1 38 
1 39 
1 40 
1 41 
1 42 
1 43 
1 44 
1 45 
1 46 
1 47 
1 48 
1 49 
1 50 
1 51 
1 52 
1 53 
1 54 
1 55 
1 56 
1 57 
1 58 
1 59 
1 60 
1 61 
1 62 
1 63 
1 64 
1 65 
1 66 
1 67 
1 68 
1 69 
1 70 
1 71 
1 72 
1 73 
1 74 
1 75 
1 76 
1 77 
1 78 
1 79 
1 80 
1 81 
1 82 
1 83 
1 84 
1 85 
1 86 
1 87 
1 88 
1 89 
1 90 
1 91 
1 92 
1 93 
1 94 
1 95 
1 96 
1 97 
1 98 
1 99 

POINT_DATA 100
FIELD FieldData 7
id 1 100 int
1 2 3 4 5 6 7 8 9 
10 11 12 13 14 15 16 17 18 
19 20 21 22 23 24 25 26 27 
28 29 30 31 32 33 34 35 36 
37 38 39 40 41 42 43 44 45 
46 47 48 49 50 51 52 53 54 
55 56 57 58 59 60 61 62 63 
64 65 66 67 68 69 70 71 72 
73 74 75 76 77 78 79 80 81 
82 83 84 85 86 87 88 89 90 
91 92 93 94 95 96 97 98 99 
100 
mol 1 100 int
1 1 1 1 1 1 1 1 1 
1 1 1 1 1 1 1 1 1 
1 1 1 1 1 1 1 1 1 
1 1 1 1 1 1 1 1 1 
1 1 1 1 1 1 1 1 1 
1 1 1 1 1 2 2 2 2 
2 2 2 2 2 2 2 2 2 
2 2 2 2 2 2 2 2 2 
2 2 2 2 2 2 2 2 2 
2 2 2 2 2 2 2 2 2 
2 2 2 2 2 2 2 2 2 
2 
type 1 100 int
1 1 1 1 1 1 1 1 1 
1 1 1 1 1 1 1 1 1 
1 1 1 1 1 1 1 1 1 
1 1 1 1 1 1 1 1 1 
1 1 1 1 1 1 1 1 1 
1 1 1 1 1 1 1 1 1 
1 1 1 1 1 1 1 1 1 
1 1 1 1 1 1 1 1 1 
1 1 1 1 1 1 1 1 1 
1 1 1 1 1 1 1 1 1 
1 1 1 1 1 1 1 1 1 
1 
v 3 100 double
0.0989579 -0.151839 -0.0947581 0.0741556 -0.1046 -0.0218735 0.0624432 -0.0738162 0.0510483 
0.130032 -0.187176 -0.0777476 0.149623 -0.22841 -0.153127 0.109896 -0.148679 -0.0179144 
0.08276 -0.0970691 0.0614959 0.142313 -0.219688 -0.155271 0.0457945 -0.0396424 0.111168 
0.0541318 -0.0804593 -0.0266149 0.14308 -0.202669 -0.0735769 0.109262 -0.141524 0.010968 
0.0622323 -0.0766269 0.0370753 0.155631 -0.229829 -0.125247 0.0584041 -0.0642607 0.0713786 
0.126456 -0.172961 -0.0336057 0.173421 -0.248019 -0.106234 0.0606426 -0.0507722 0.145442 
0.0361362 -0.0730478 -0.0957626 0.0565335 -0.0552296 0.101716 0.0314523 -0.067809 -0.0987253 
0.16229 -0.2349 -0.110235 0.110929 -0.188742 -0.194001 0.167127 -0.255456 -0.175981 
0.112711 -0.187881 -0.179911 0.0907687 -0.118373 0.0104769 0.156317 -0.226474 -0.106088 
0.184267 -0.269995 -0.144098 0.154112 -0.217369 -0.0773222 0.136678 -0.17631 0.00958651 
0.14478 -0.199885 -0.0512205 0.153709 -0.246895 -0.213751 0.0182684 -0.0334951 -0.0181739 
0.153052 -0.235276 -0.164722 0.0274291 -0.0117562 0.132916 0.105424 -0.183624 -0.202202 
0.127293 -0.169336 -0.012353 0.165842 -0.24465 -0.13423 0.0958321 -0.117027 0.0455192 
0.0302381 -0.0429904 0.00707967 0.0697237 -0.097512 -0.0149967 0.131515 -0.206642 -0.1577 
0.167302 -0.232244 -0.0695386 0.0998319 -0.168615 -0.165975 0.0856494 -0.0872319 0.122691 
0.0771913 -0.0865257 0.0775753 0.0978741 -0.16528 -0.162011 0.0339957 -0.0419621 0.0332192 
0.142423 -0.19105 -0.0245479 0.0612761 -0.0579269 0.116559 0.0990189 -0.113533 -0.0284446 
0.0792941 -0.0812704 0.0281526 0.0696659 -0.06378 0.0827951 0.123708 -0.149402 -0.0292964 
0.138851 -0.174713 -0.0811626 0.107736 -0.123269 0.016667 0.0861347 -0.0879413 0.078581 
0.134289 -0.168799 -0.0920667 0.0564461 -0.0417011 0.127799 0.0627871 -0.056651 0.0386089 
0.13471 -0.165912 -0.0378327 0.107565 -0.122017 0.0322428 0.0678928 -0.0607616 0.0897169 
0.145129 -0.183767 -0.080331 0.0649313 -0.0549966 0.112495 0.121614 -0.144917 -0.00685915 
0.15692 -0.199024 -0.0516961 0.0663136 -0.0537257 0.163297 0.0503757 -0.0422813 -0.0177463 
0.0656951 -0.0562301 0.11055 0.047652 -0.0389738 -0.0277246 0.15055 -0.191251 -0.0744637 
0.110667 -0.13621 -0.118068 0.151833 -0.194334 -0.0934107 0.110562 -0.134546 -0.0946454 
0.0900856 -0.0944541 0.0664614 0.142213 -0.176554 -0.0340718 0.164482 -0.211161 -0.0698109 
0.143921 -0.179983 -0.0488403 0.126823 -0.149074 0.0458542 0.136415 -0.167724 -0.027574 
0.143833 -0.185664 -0.138921 0.0370619 -0.0198669 0.0303487 0.143538 -0.183328 -0.109316 
0.0425502 -0.0206322 0.141933 0.106124 -0.129716 -0.119579 0.122405 -0.145281 0.00528575 
0.15252 -0.194652 -0.0828711 0.09726 -0.105535 0.0560148 0.0442237 -0.0280042 0.0652607 
0.0774378 -0.0792431 0.0178345 0.126975 -0.15883 -0.102011 0.151177 -0.188457 -0.01702 
0.102239 -0.122793 -0.0996127 0.0866586 -0.0851004 0.13442 0.0823733 -0.0821023 0.0845175 
0.098513 -0.115794 -0.0748907 0.0468149 -0.0305177 0.0845731 0.134416 -0.163576 -0.00822773 
0.0664843 -0.0549778 0.147721 
f 3 100 double
0 0 0 0 0 0 -0.0302885 0.00296756 -0.30235 
0 0 0 0 0 0 0 0 0 
0 0 0 0 0 0 0 0 0 
0 0 0 0 0 0 0 0 0 
0 0 0 0 0 0 0 0 0 
0 0 0 0 0 0 0 0 0 
0 0 0 0 0 0 0 0 0 
0 0 0 0 0 0 0 0 0 
0 0 0 0 0 0 0 0 0 
0 0 0 0 0 0 0 0 0 
0 0 0 0 0 0 0.111556 0.0987016 0.970267 
0 0 0 0 0 0 0 0 0 
0 0 0 0 0 0 0 0 0 
-0.00332403 0.00584264 0.013444 0 0 0 0 0 0 
0 0 0 0 0 0 0 0 0 
0 0 0 0 0 0 0 0 0 
0 0 0 0 0 0 0 0 0 
0 0 0 0 0 0 0 0 0 
0 0 0 0 0 0 0 0 0 
0 0 0 0 0 0 0 0 0 
0 0 0 0 0 0 0 0 0 
0 0 0 0 0 0 0 0 0 
0 0 0 0 0 0 0 0 0 
0 0 0 0 0 0 0 0 0 
0 0 0 0 0 0 0 0 0 
0 0 0 0 0 0 0 0 0 
0 0 0 0 0 0 0 0 0 
0 0 0 -0.0739602 -0.0120766 -0.149879 0 0 0 
0 0 0 0 0 0 0 0 0 
0 0 0 0 0 0 0 0 0 
0 0 0 0 0 0 0 0 0 
0 0 0 0 0 0 0 0 0 
0 0 0 0 0 0 0 0 0 
0 0 0 
radius 1 100 double
0.010434 0.00981478 0.00892069 0.00845937 0.00731974 0.00728422 0.00643447 0.00619172 0.00585956 
0.00577566 0.00537241 0.00522549 0.00513666 0.00473175 0.00466912 0.00444866 0.00441894 0.00400812 
0.00385622 0.00379948 0.00370243 0.00366942 0.00364039 0.00363813 0.00363644 0.00358692 0.0035797 
0.00341284 0.00337012 0.00336273 0.00332772 0.00323261 0.00320584 0.00320311 0.00318808 0.00313116 
0.00306026 0.00305632 0.00304383 0.00300958 0.00300137 0.00298994 0.0029567 0.00295111 0.00290849 
0.00284552 0.00282964 0.0028207 0.00281971 0.00281899 0.010434 0.00981478 0.00892069 0.00845937 
0.00731974 0.00728422 0.00643447 0.00619172 0.00585956 0.00577566 0.00537241 0.00522549 0.00513666 
0.00473175 0.00466912 0.00444866 0.00441894 0.00400812 0.00385622 0.00379948 0.00370243 0.00366942 
0.00364039 0.00363813 0.00363644 0.00358692 0.0035797 0.00341284 0.00337012 0.00336273 0.00332772 
0.00323261 0.00320584 0.00320311 0.00318808 0.00313116 0.00306026 0.00305632 0.00304383 0.00300958 
0.00300137 0.00298994 0.0029567 0.00295111 0.00290849 0.00284552 0.00282964 0.0028207 0.00281971 
0.00281899 
omega 3 100 double
8.09903 6.43946 -1.41756 8.09903 6.43946 -1.41756 8.09903 6.43946 -1.41756 
8.09903 6.43946 -1.41756 8.09903 6.43946 -1.41756 8.09903 6.43946 -1.41756 
8.09903 6.43946 -1.41756 8.09903 6.43946 -1.41756 8.09903 6.43946 -1.41756 
8.09903 6.43946 -1.41756 8.09903 6.43946 -1.41756 8.09903 6.43946 -1.41756 
8.09903 6.43946 -1.41756 8.09903 6.43946 -1.41756 8.09903 6.43946 -1.41756 
8.09903 6.43946 -1.41756 8.09903 6.43946 -1.41756 8.09903 6.43946 -1.41756 
8.09903 6.43946 -1.41756 8.09903 6.43946 -1.41756 8.09903 6.43946 -1.41756 
8.09903 6.43946 -1.41756 8.09903 6.43946 -1.41756 8.09903 6.43946 -1.41756 
8.09903 6.43946 -1.41756 8.09903 6.43946 -1.41756 8.09903 6.43946 -1.41756 
8.09903 6.43946 -1.41756 8.09903 6.43946 -1.41756 8.09903 6.43946 -1.41756 
8.09903 6.43946 -1.41756 8.09903 6.43946 -1.41756 8.09903 6.43946 -1.41756 
8.09903 6.43946 -1.41756 8.09903 6.43946 -1.41756 8.09903 6.43946 -1.41756 
8.09903 6.43946 -1.41756 8.09903 6.43946 -1.41756 8.09903 6.43946 -1.41756 
8.09903 6.43946 -1.41756 8.09903 6.43946 -1.41756 8.09903 6.43946 -1.41756 
8.09903 6.43946 -1.41756 8.09903 6.43946 -1.41756 8.09903 6.43946 -1.41756 
8.09903 6.43946 -1.41756 8.09903 6.43946 -1.41756 8.09903 6.43946 -1.41756 
8.09903 6.43946 -1.41756 8.09903 6.43946 -1.41756 7.2619 5.00614 -0.322836 
7.2619 5.00614 -0.322836 7.2619 5.00614 -0.322836 7.2619 5.00614 -0.322836 
7.2619 5.00614 -0.322836 7.2619 5.00614 -0.322836 7.2619 5.00614 -0.322836 
7.2619 5.00614 -0.322836 7.2619 5.00614 -0.322836 7.2619 5.00614 -0.322836 
7.2619 5.00614 -0.322836 7.2619 5.00614 -0.322836 7.2619 5.00614 -0.322836 
7.2619 5.00614 -0.322836 7.2619 5.00614 -0.322836 7.2619 5.00614 -0.322836 
7.2619 5.00614 -0.322836 7.2619 5.00614 -0.322836 7.2619 5.00614 -0.322836 
7.2619 5.00614 -0.322836 7.2619 5.00614 -0.322836 7.2619 5.00614 -0.322836 
7.2619 5.00614 -0.322836 7.2619 5.00614 -0.322836 7.2619 5.00614 -0.322836 
7.2619 5.00614 -0.322836 7.2619 5.00614 -0.322836 7.2619 5.00614 -0.322836 
7.2619 5.00614 -0.322836 7.2619 5.00614 -0.322836 7.2619 5.00614 -0.322836 
7.2619 5.00614 -0.322836 7.2619 5.00614 -0.322836 7.2619 5.00614 -0.322836 
7.2619 5.00614 -0.322836 7.2619 5.00614 -0.322836 7.2619 5.00614 -0.322836 
7.2619 5.00614 -0.322836 7.2619 5.00614 -0.322836 7.2619 5.00614 -0.322836 
7.2619 5.00614 -0.322836 7.2619 5.00614 -0.322836 7.2619 5.00614 -0.322836 
7.2619 5.00614 -0.322836 7.2619 5.00614 -0.322836 7.2619 5.00614 -0.322836 
7.2619 5.00614 -0.322836 7.2619 5.00614 -0.322836 7.2619 5.00614 -0.322836 
7.2619 5.00614 -0.322836 
