# vtk DataFile Version 4.0
Generated by LIGGGHTS
ASCII
DATASET POLYDATA
POINTS 100 float
-0.116741 -0.147967 0.0130294 -0.126698 -0.145043 0.0117467 -0.136534 -0.143167 0.012278 
-0.123729 -0.154305 0.017929 -0.110085 -0.154084 0.0183525 -0.132176 -0.152146 0.0169123 
-0.142888 -0.14884 0.0154967 -0.11606 -0.158542 0.0173928 -0.145363 -0.141591 0.0117598 
-0.119829 -0.138289 0.00871329 -0.129833 -0.159894 0.0199654 -0.139265 -0.154343 0.0177379 
-0.124596 -0.135165 0.0116476 -0.12468 -0.163069 0.0202125 -0.130788 -0.135699 0.01216 
-0.135632 -0.1583 0.0188492 -0.116656 -0.155833 0.0230434 -0.142154 -0.136153 0.0146853 
-0.116081 -0.142029 0.00427835 -0.149192 -0.14678 0.0130651 -0.120787 -0.145788 0.00363679 
-0.12899 -0.165332 0.0216224 -0.112783 -0.157809 0.0119323 -0.102741 -0.152436 0.0200246 
-0.106666 -0.151305 0.0124459 -0.120567 -0.137625 0.0148103 -0.108003 -0.1473 0.0205136 
-0.105003 -0.151922 0.0233056 -0.133147 -0.164003 0.0214559 -0.127707 -0.147556 0.0212861 
-0.136167 -0.162474 0.020924 -0.10977 -0.161517 0.0172744 -0.13303 -0.144811 0.00421531 
-0.119889 -0.163732 0.0186981 -0.151055 -0.141958 0.00990754 -0.109611 -0.155746 0.010888 
-0.140315 -0.159598 0.0196275 -0.120116 -0.161355 0.0213003 -0.145962 -0.154412 0.016935 
-0.125378 -0.136611 0.0064147 -0.137116 -0.152263 0.011513 -0.121653 -0.162418 0.0159344 
-0.117377 -0.151444 0.0232003 -0.118725 -0.15826 0.0112624 -0.143968 -0.142572 0.0175719 
-0.148972 -0.151336 0.015273 -0.106513 -0.147713 0.0108696 -0.128276 -0.13613 0.00769665 
-0.139952 -0.162109 0.0213891 -0.135064 -0.133955 0.0138597 -0.0472988 -0.118207 0.0128316 
-0.0574615 -0.115937 0.0118821 -0.0673836 -0.114755 0.0127106 -0.0537089 -0.125145 0.0177082 
-0.0401047 -0.124004 0.0178035 -0.0623068 -0.123542 0.0169645 -0.073252 -0.120938 0.015912 
-0.0457881 -0.128831 0.0168569 -0.0763104 -0.113772 0.0124567 -0.051148 -0.108646 0.00888561 
-0.0593646 -0.131195 0.0197247 -0.0692068 -0.126241 0.0178972 -0.056036 -0.10594 0.0120286 
-0.0540038 -0.134015 0.0197498 -0.0621622 -0.106911 0.0126764 -0.0652863 -0.12997 0.0187995 
-0.0464157 -0.12633 0.0225994 -0.0733998 -0.108212 0.0154649 -0.0472747 -0.111993 0.00424961 
-0.0797434 -0.119246 0.0136989 -0.0517308 -0.116046 0.00361086 -0.0581115 -0.136607 0.0211962 
-0.0427141 -0.127721 0.0113422 -0.0328479 -0.121905 0.0193438 -0.0370393 -0.120831 0.011901 
-0.0517672 -0.108207 0.0150161 -0.03843 -0.117157 0.0201159 -0.0350512 -0.12164 0.0226933 
-0.0623525 -0.135561 0.0211718 -0.0580443 -0.118782 0.0213634 -0.0654821 -0.134228 0.0207603 
-0.0393161 -0.131364 0.0164948 -0.0639915 -0.115926 0.00451857 -0.0492211 -0.134306 0.018099 
-0.0820109 -0.114475 0.0107344 -0.0397177 -0.125417 0.010283 -0.0698477 -0.131607 0.019653 
-0.0495392 -0.132024 0.0207764 -0.0759026 -0.126745 0.017257 -0.056857 -0.107287 0.00677532 
-0.0673688 -0.123843 0.0116868 -0.0511426 -0.133038 0.0154202 -0.0474281 -0.122007 0.0229059 
-0.0486275 -0.128558 0.010805 -0.0746984 -0.11482 0.0182007 -0.0791568 -0.123837 0.0157626 
-0.0371723 -0.117194 0.0104302 -0.059746 -0.107042 0.00814185 -0.0692696 -0.134137 0.0213289 
-0.0664998 -0.105512 0.0145322 
VERTICES 100 200
1 0 
1 1 
1 2 
1 3 
1 4 
1 5 
1 6 
1 7 
1 8 
1 9 
1 10 
1 11 
1 12 
1 13 
1 14 
1 15 
1 16 
1 17 
1 18 
1 19 
1 20 
1 21 
1 22 
1 23 
1 24 
1 25 
1 26 
1 27 
1 28 
1 29 
1 30 
1 31 
1 32 
1 33 
1 34 
1 35 
1 36 
1 37 
1 38 
1 39 
1 40 
1 41 
1 42 
1 43 
1 44 
1 45 
1 46 
1 47 
1 48 
1 49 
1 50 
1 51 
1 52 
1 53 
1 54 
1 55 
1 56 
1 57 
1 58 
1 59 
1 60 
1 61 
1 62 
1 63 
1 64 
1 65 
1 66 
1 67 
1 68 
1 69 
1 70 
1 71 
1 72 
1 73 
1 74 
1 75 
1 76 
1 77 
1 78 
1 79 
1 80 
1 81 
1 82 
1 83 
1 84 
1 85 
1 86 
1 87 
1 88 
1 89 
1 90 
1 91 
1 92 
1 93 
1 94 
1 95 
1 96 
1 97 
1 98 
1 99 

POINT_DATA 100
FIELD FieldData 7
id 1 100 int
1 2 3 4 5 6 7 8 9 
10 11 12 13 14 15 16 17 18 
19 20 21 22 23 24 25 26 27 
28 29 30 31 32 33 34 35 36 
37 38 39 40 41 42 43 44 45 
46 47 48 49 50 51 52 53 54 
55 56 57 58 59 60 61 62 63 
64 65 66 67 68 69 70 71 72 
73 74 75 76 77 78 79 80 81 
82 83 84 85 86 87 88 89 90 
91 92 93 94 95 96 97 98 99 
100 
mol 1 100 int
1 1 1 1 1 1 1 1 1 
1 1 1 1 1 1 1 1 1 
1 1 1 1 1 1 1 1 1 
1 1 1 1 1 1 1 1 1 
1 1 1 1 1 1 1 1 1 
1 1 1 1 1 2 2 2 2 
2 2 2 2 2 2 2 2 2 
2 2 2 2 2 2 2 2 2 
2 2 2 2 2 2 2 2 2 
2 2 2 2 2 2 2 2 2 
2 2 2 2 2 2 2 2 2 
2 
type 1 100 int
1 1 1 1 1 1 1 1 1 
1 1 1 1 1 1 1 1 1 
1 1 1 1 1 1 1 1 1 
1 1 1 1 1 1 1 1 1 
1 1 1 1 1 1 1 1 1 
1 1 1 1 1 1 1 1 1 
1 1 1 1 1 1 1 1 1 
1 1 1 1 1 1 1 1 1 
1 1 1 1 1 1 1 1 1 
1 1 1 1 1 1 1 1 1 
1 1 1 1 1 1 1 1 1 
1 
v 3 100 double
0.0182546 -0.16139 -0.0339565 0.0184461 -0.138591 0.0165235 0.0205917 -0.137972 0.0540585 
0.0210045 -0.216028 -0.100716 0.0217962 -0.231022 -0.11841 0.0210422 -0.197557 -0.061803 
0.0213104 -0.172593 -0.00553973 0.0171489 -0.215025 -0.163782 0.0209543 -0.125296 0.0864536 
0.0187833 -0.106597 0.0885189 0.0200173 -0.23643 -0.159673 0.0206915 -0.202502 -0.0779752 
0.0254183 -0.138899 0.133689 0.0180983 -0.243155 -0.206032 0.0257986 -0.140676 0.136433 
0.0194994 -0.218655 -0.13159 0.0275424 -0.283417 -0.129894 0.0292442 -0.163241 0.147891 
0.00946318 -0.0552832 0.037377 0.0191634 -0.138434 0.0289689 0.005795 -0.0440772 -0.00138048 
0.018573 -0.25722 -0.227157 0.00952128 -0.150882 -0.159743 0.0254819 -0.25668 -0.109303 
0.0149764 -0.161546 -0.0896715 0.0283691 -0.180323 0.0977075 0.0299147 -0.258843 -0.0388876 
0.0307536 -0.295011 -0.099662 0.0192823 -0.252195 -0.204761 0.0308842 -0.254049 -0.0125725 
0.0195898 -0.243539 -0.181629 0.0148281 -0.218117 -0.209404 0.00736334 -0.0422985 0.0288044 
0.015358 -0.228163 -0.221267 0.0179227 -0.0986337 0.0904798 0.00944848 -0.140449 -0.139354 
0.0197259 -0.224759 -0.140412 0.0209587 -0.259693 -0.191973 0.0194427 -0.187895 -0.0688075 
0.0165593 -0.0746013 0.117244 0.0128926 -0.128235 -0.0558508 0.0121767 -0.193231 -0.202634 
0.0309409 -0.284808 -0.075355 0.0081956 -0.138439 -0.156358 0.0289285 -0.19709 0.0724156 
0.019177 -0.165483 -0.0268547 0.0152109 -0.142457 -0.0461516 0.018821 -0.0881257 0.127433 
0.0205473 -0.246476 -0.171536 0.0295948 -0.158295 0.164063 0.0506447 -0.131137 -0.0377088 
0.0482525 -0.114862 0.0268089 0.0524678 -0.116422 0.0795179 0.0661072 -0.175298 -0.0802107 
0.0672685 -0.185397 -0.125019 0.064116 -0.162121 -0.0287787 0.0615232 -0.144296 0.0422816 
0.0601134 -0.172164 -0.149544 0.0520814 -0.107894 0.126137 0.0407887 -0.0893248 0.0732215 
0.0703612 -0.191536 -0.116996 0.06615 -0.16675 -0.0271323 0.0555828 -0.117278 0.120297 
0.0685677 -0.195392 -0.167154 0.0576036 -0.119595 0.135933 0.0673662 -0.178356 -0.0803766 
0.0854998 -0.228821 -0.122094 0.0682388 -0.139753 0.169387 0.0194005 -0.0458493 0.0239647 
0.0535261 -0.117931 0.0858955 0.0140374 -0.0365025 0.00207332 0.0727947 -0.207006 -0.17596 
0.0380971 -0.119417 -0.151195 0.0750385 -0.205588 -0.13411 0.0450385 -0.128789 -0.106136 
0.0663894 -0.149845 0.0801392 0.08142 -0.209508 -0.0638714 0.0890429 -0.2374 -0.12238 
0.0733974 -0.20391 -0.148062 0.085476 -0.208714 0.000934841 0.0725956 -0.197715 -0.121892 
0.0569154 -0.172919 -0.201431 0.017865 -0.0372769 0.0538767 0.0615581 -0.182201 -0.189787 
0.0444986 -0.0869393 0.142676 0.0352746 -0.110904 -0.140661 0.0697878 -0.183772 -0.0778247 
0.0741445 -0.208599 -0.165795 0.0631684 -0.155883 -0.00450258 0.0329918 -0.0645082 0.110293 
0.0421277 -0.106256 -0.0108838 0.0513531 -0.154281 -0.169256 0.0896737 -0.231187 -0.0749394 
0.035316 -0.110098 -0.135107 0.0750865 -0.166073 0.109066 0.0589561 -0.138839 0.0378361 
0.041414 -0.11408 -0.0694344 0.0387975 -0.0761479 0.124655 0.0750039 -0.200818 -0.105351 
0.0662047 -0.135123 0.16774 
f 3 100 double
0 0 0 0 0 0 0 0 0 
0 0 0 0 0 0 0 0 0 
0 0 0 0 0 0 0 0 0 
0 0 0 0 0 0 0 0 0 
0 0 0 0 0 0 0 0 0 
0 0 0 0 0 0 0 0 0 
0 0 0 0 0 0 -0.0530322 -0.0358357 0.285554 
0 0 0 0 0 0 0 0 0 
0 0 0 0 0 0 0 0 0 
0 0 0 0 0 0 0 0 0 
0 0 0 0 0 0 0 0 0 
0 0 0 0 0 0 0 0 0 
0 0 0 0 0 0 0 0 0 
0 0 0 0 0 0 0 0 0 
0 0 0 0 0 0 0 0 0 
0 0 0 0 0 0 0 0 0 
0 0 0 0 0 0 0 0 0 
0 0 0 0 0 0 0 0 0 
0 0 0 0 0 0 0 0 0 
0 0 0 0 0 0 0 0 0 
0 0 0 0 0 0 0 0 0 
0 0 0 0 0 0 0 0 0 
0 0 0 0 0 0 0 0 0 
0 0 0 -0.0917902 -0.0780411 0.420852 0 0 0 
0 0 0 0 0 0 0 0 0 
0 0 0 0 0 0 0 0 0 
0 0 0 0 0 0 0 0 0 
0 0 0 0 0 0 0 0 0 
0 0 0 0 0 0 0 0 0 
0 0 0 0 0 0 0 0 0 
0 0 0 0 0 0 0 0 0 
0 0 0 0 0 0 0 0 0 
0 0 0 0 0 0 0 0 0 
0 0 0 
radius 1 100 double
0.010434 0.00981478 0.00892069 0.00845937 0.00731974 0.00728422 0.00643447 0.00619172 0.00585956 
0.00577566 0.00537241 0.00522549 0.00513666 0.00473175 0.00466912 0.00444866 0.00441894 0.00400812 
0.00385622 0.00379948 0.00370243 0.00366942 0.00364039 0.00363813 0.00363644 0.00358692 0.0035797 
0.00341284 0.00337012 0.00336273 0.00332772 0.00323261 0.00320584 0.00320311 0.00318808 0.00313116 
0.00306026 0.00305632 0.00304383 0.00300958 0.00300137 0.00298994 0.0029567 0.00295111 0.00290849 
0.00284552 0.00282964 0.0028207 0.00281971 0.00281899 0.010434 0.00981478 0.00892069 0.00845937 
0.00731974 0.00728422 0.00643447 0.00619172 0.00585956 0.00577566 0.00537241 0.00522549 0.00513666 
0.00473175 0.00466912 0.00444866 0.00441894 0.00400812 0.00385622 0.00379948 0.00370243 0.00366942 
0.00364039 0.00363813 0.00363644 0.00358692 0.0035797 0.00341284 0.00337012 0.00336273 0.00332772 
0.00323261 0.00320584 0.00320311 0.00318808 0.00313116 0.00306026 0.00305632 0.00304383 0.00300958 
0.00300137 0.00298994 0.0029567 0.00295111 0.00290849 0.00284552 0.00282964 0.0028207 0.00281971 
0.00281899 
omega 3 100 double
12.1794 1.49373 -0.720833 12.1794 1.49373 -0.720833 12.1794 1.49373 -0.720833 
12.1794 1.49373 -0.720833 12.1794 1.49373 -0.720833 12.1794 1.49373 -0.720833 
12.1794 1.49373 -0.720833 12.1794 1.49373 -0.720833 12.1794 1.49373 -0.720833 
12.1794 1.49373 -0.720833 12.1794 1.49373 -0.720833 12.1794 1.49373 -0.720833 
12.1794 1.49373 -0.720833 12.1794 1.49373 -0.720833 12.1794 1.49373 -0.720833 
12.1794 1.49373 -0.720833 12.1794 1.49373 -0.720833 12.1794 1.49373 -0.720833 
12.1794 1.49373 -0.720833 12.1794 1.49373 -0.720833 12.1794 1.49373 -0.720833 
12.1794 1.49373 -0.720833 12.1794 1.49373 -0.720833 12.1794 1.49373 -0.720833 
12.1794 1.49373 -0.720833 12.1794 1.49373 -0.720833 12.1794 1.49373 -0.720833 
12.1794 1.49373 -0.720833 12.1794 1.49373 -0.720833 12.1794 1.49373 -0.720833 
12.1794 1.49373 -0.720833 12.1794 1.49373 -0.720833 12.1794 1.49373 -0.720833 
12.1794 1.49373 -0.720833 12.1794 1.49373 -0.720833 12.1794 1.49373 -0.720833 
12.1794 1.49373 -0.720833 12.1794 1.49373 -0.720833 12.1794 1.49373 -0.720833 
12.1794 1.49373 -0.720833 12.1794 1.49373 -0.720833 12.1794 1.49373 -0.720833 
12.1794 1.49373 -0.720833 12.1794 1.49373 -0.720833 12.1794 1.49373 -0.720833 
12.1794 1.49373 -0.720833 12.1794 1.49373 -0.720833 12.1794 1.49373 -0.720833 
12.1794 1.49373 -0.720833 12.1794 1.49373 -0.720833 9.93987 4.12782 -0.672721 
9.93987 4.12782 -0.672721 9.93987 4.12782 -0.672721 9.93987 4.12782 -0.672721 
9.93987 4.12782 -0.672721 9.93987 4.12782 -0.672721 9.93987 4.12782 -0.672721 
9.93987 4.12782 -0.672721 9.93987 4.12782 -0.672721 9.93987 4.12782 -0.672721 
9.93987 4.12782 -0.672721 9.93987 4.12782 -0.672721 9.93987 4.12782 -0.672721 
9.93987 4.12782 -0.672721 9.93987 4.12782 -0.672721 9.93987 4.12782 -0.672721 
9.93987 4.12782 -0.672721 9.93987 4.12782 -0.672721 9.93987 4.12782 -0.672721 
9.93987 4.12782 -0.672721 9.93987 4.12782 -0.672721 9.93987 4.12782 -0.672721 
9.93987 4.12782 -0.672721 9.93987 4.12782 -0.672721 9.93987 4.12782 -0.672721 
9.93987 4.12782 -0.672721 9.93987 4.12782 -0.672721 9.93987 4.12782 -0.672721 
9.93987 4.12782 -0.672721 9.93987 4.12782 -0.672721 9.93987 4.12782 -0.672721 
9.93987 4.12782 -0.672721 9.93987 4.12782 -0.672721 9.93987 4.12782 -0.672721 
9.93987 4.12782 -0.672721 9.93987 4.12782 -0.672721 9.93987 4.12782 -0.672721 
9.93987 4.12782 -0.672721 9.93987 4.12782 -0.672721 9.93987 4.12782 -0.672721 
9.93987 4.12782 -0.672721 9.93987 4.12782 -0.672721 9.93987 4.12782 -0.672721 
9.93987 4.12782 -0.672721 9.93987 4.12782 -0.672721 9.93987 4.12782 -0.672721 
9.93987 4.12782 -0.672721 9.93987 4.12782 -0.672721 9.93987 4.12782 -0.672721 
9.93987 4.12782 -0.672721 
