# vtk DataFile Version 4.0
Generated by LIGGGHTS
ASCII
DATASET POLYDATA
POINTS 100 float
-0.11509 -0.132563 0.0223562 -0.12501 -0.133516 0.019193 -0.134964 -0.133858 0.018037 
-0.121899 -0.134747 0.0302214 -0.108632 -0.131548 0.0305621 -0.130286 -0.135721 0.0278209 
-0.140974 -0.136663 0.0242763 -0.113767 -0.136435 0.033062 -0.14373 -0.134945 0.016396 
-0.118663 -0.129747 0.0123006 -0.127489 -0.138288 0.0355946 -0.13708 -0.13804 0.0298776 
-0.124189 -0.126517 0.0119579 -0.122078 -0.139209 0.0381574 -0.130267 -0.12776 0.012602 
-0.133195 -0.139179 0.0335784 -0.115583 -0.130709 0.0349456 -0.141737 -0.128557 0.0144844 
-0.11382 -0.134665 0.0120488 -0.147027 -0.138279 0.0210126 -0.117851 -0.138599 0.0142769 
-0.126234 -0.140597 0.0407051 -0.109792 -0.139168 0.0288408 -0.101912 -0.127769 0.0306189 
-0.104706 -0.133194 0.0245468 -0.120429 -0.125109 0.0159783 -0.107793 -0.125026 0.0271282 
-0.104708 -0.125543 0.0324547 -0.130448 -0.140659 0.039558 -0.12718 -0.128619 0.0275381 
-0.133516 -0.140618 0.0380327 -0.10721 -0.137252 0.0352465 -0.130056 -0.139997 0.013771 
-0.117064 -0.139768 0.0376786 -0.148966 -0.137658 0.0153078 -0.106783 -0.137884 0.0266714 
-0.137739 -0.140442 0.0349851 -0.117997 -0.136362 0.0377234 -0.143504 -0.140007 0.0292742 
-0.123949 -0.131373 0.00941822 -0.13426 -0.140639 0.0241341 -0.118523 -0.141208 0.0348023 
-0.116871 -0.12779 0.0318423 -0.115448 -0.141146 0.0286187 -0.143154 -0.131187 0.0211112 
-0.146581 -0.139728 0.0258484 -0.104765 -0.131869 0.0208521 -0.12705 -0.130721 0.00990003 
-0.137342 -0.140804 0.0380267 -0.134943 -0.126238 0.0124277 -0.0461925 -0.104761 0.0211306 
-0.056043 -0.105717 0.0177557 -0.0659698 -0.106074 0.0163905 -0.0531596 -0.107008 0.0288389 
-0.0399092 -0.103781 0.0294751 -0.0614923 -0.107986 0.0262584 -0.0721018 -0.10893 0.0224863 
-0.0450843 -0.108694 0.0318383 -0.0746973 -0.107171 0.0145607 -0.0495621 -0.101893 0.0110197 
-0.0588512 -0.110593 0.0340733 -0.0683224 -0.110332 0.0281592 -0.0550879 -0.0986733 0.0105813 
-0.0534931 -0.111518 0.0367427 -0.0611743 -0.099933 0.0110911 -0.0645125 -0.111484 0.0319333 
-0.0469526 -0.102985 0.0337178 -0.0726798 -0.100767 0.0127293 -0.0447038 -0.106798 0.0108395 
-0.0780817 -0.110539 0.0190876 -0.048771 -0.110755 0.0129595 -0.0576974 -0.11293 0.0391949 
-0.0410154 -0.111394 0.0276845 -0.033201 -0.099988 0.0296946 -0.0358558 -0.105383 0.0235332 
-0.0514151 -0.0972809 0.0146874 -0.0390148 -0.0972366 0.0260986 -0.0360401 -0.0977793 0.031485 
-0.0618867 -0.112995 0.0379599 -0.0583974 -0.100875 0.0260829 -0.0649223 -0.112951 0.0363713 
-0.0385726 -0.109511 0.034154 -0.0609592 -0.112177 0.0121911 -0.0484687 -0.112063 0.0363652 
-0.079903 -0.109888 0.0133474 -0.0379647 -0.11009 0.025586 -0.0690812 -0.112766 0.0332374 
-0.0494106 -0.108659 0.0364108 -0.0747274 -0.11231 0.0274104 -0.054783 -0.103513 0.00801812 
-0.0653768 -0.11289 0.0224603 -0.0498646 -0.113488 0.0334505 -0.0481825 -0.100049 0.0306058 
-0.0466615 -0.113382 0.0273328 -0.0742278 -0.10344 0.0193092 -0.0777326 -0.112017 0.0239229 
-0.0358406 -0.104036 0.0198461 -0.0578949 -0.102871 0.0084391 -0.0687473 -0.113146 0.0362844 
-0.0658497 -0.0984206 0.0108285 
VERTICES 100 200
1 0 
1 1 
1 2 
1 3 
1 4 
1 5 
1 6 
1 7 
1 8 
1 9 
1 10 
1 11 
1 12 
1 13 
1 14 
1 15 
1 16 
1 17 
1 18 
1 19 
1 20 
1 21 
1 22 
1 23 
1 24 
1 25 
1 26 
1 27 
1 28 
1 29 
1 30 
1 31 
1 32 
1 33 
1 34 
1 35 
1 36 
1 37 
1 38 
1 39 
1 40 
1 41 
1 42 
1 43 
1 44 
1 45 
1 46 
1 47 
1 48 
1 49 
1 50 
1 51 
1 52 
1 53 
1 54 
1 55 
1 56 
1 57 
1 58 
1 59 
1 60 
1 61 
1 62 
1 63 
1 64 
1 65 
1 66 
1 67 
1 68 
1 69 
1 70 
1 71 
1 72 
1 73 
1 74 
1 75 
1 76 
1 77 
1 78 
1 79 
1 80 
1 81 
1 82 
1 83 
1 84 
1 85 
1 86 
1 87 
1 88 
1 89 
1 90 
1 91 
1 92 
1 93 
1 94 
1 95 
1 96 
1 97 
1 98 
1 99 

POINT_DATA 100
FIELD FieldData 7
id 1 100 int
1 2 3 4 5 6 7 8 9 
10 11 12 13 14 15 16 17 18 
19 20 21 22 23 24 25 26 27 
28 29 30 31 32 33 34 35 36 
37 38 39 40 41 42 43 44 45 
46 47 48 49 50 51 52 53 54 
55 56 57 58 59 60 61 62 63 
64 65 66 67 68 69 70 71 72 
73 74 75 76 77 78 79 80 81 
82 83 84 85 86 87 88 89 90 
91 92 93 94 95 96 97 98 99 
100 
mol 1 100 int
1 1 1 1 1 1 1 1 1 
1 1 1 1 1 1 1 1 1 
1 1 1 1 1 1 1 1 1 
1 1 1 1 1 1 1 1 1 
1 1 1 1 1 1 1 1 1 
1 1 1 1 1 2 2 2 2 
2 2 2 2 2 2 2 2 2 
2 2 2 2 2 2 2 2 2 
2 2 2 2 2 2 2 2 2 
2 2 2 2 2 2 2 2 2 
2 2 2 2 2 2 2 2 2 
2 
type 1 100 int
1 1 1 1 1 1 1 1 1 
1 1 1 1 1 1 1 1 1 
1 1 1 1 1 1 1 1 1 
1 1 1 1 1 1 1 1 1 
1 1 1 1 1 1 1 1 1 
1 1 1 1 1 1 1 1 1 
1 1 1 1 1 1 1 1 1 
1 1 1 1 1 1 1 1 1 
1 1 1 1 1 1 1 1 1 
1 1 1 1 1 1 1 1 1 
1 1 1 1 1 1 1 1 1 
1 
v 3 100 double
-0.125099 -0.0633117 -0.155963 -0.102223 -0.0623289 -0.228004 -0.0938664 -0.0646897 -0.299265 
-0.18002 -0.0792844 -0.207952 -0.183815 -0.0741469 -0.108414 -0.162553 -0.0789075 -0.269131 
-0.136973 -0.0776218 -0.346602 -0.199469 -0.0805008 -0.152993 -0.0817444 -0.0657355 -0.363327 
-0.0548917 -0.0481683 -0.176671 -0.21666 -0.0905992 -0.253521 -0.176163 -0.0852391 -0.321232 
-0.0538465 -0.0499753 -0.210564 -0.234465 -0.0925246 -0.216622 -0.0578866 -0.0536556 -0.255787 
-0.201958 -0.0897077 -0.295527 -0.215308 -0.0844056 -0.156395 -0.0709136 -0.0617082 -0.338576 
-0.05099 -0.0456693 -0.150435 -0.1131 -0.07481 -0.392271 -0.0651235 -0.0510975 -0.185589 
-0.251963 -0.0985364 -0.248436 -0.168314 -0.0717904 -0.129293 -0.185843 -0.071353 -0.0544212 
-0.140385 -0.0624823 -0.0832673 -0.0830052 -0.0550275 -0.18152 -0.16223 -0.0680909 -0.0916416 
-0.199838 -0.0755999 -0.0705885 -0.24379 -0.0984451 -0.278469 -0.163597 -0.0771033 -0.235289 
-0.232974 -0.0972337 -0.30019 -0.214633 -0.0813061 -0.107783 -0.0609295 -0.055504 -0.274587 
-0.230825 -0.0895753 -0.181937 -0.0728497 -0.0661809 -0.405012 -0.153459 -0.0668987 -0.105792 
-0.211405 -0.0939937 -0.32989 -0.232606 -0.0900506 -0.182915 -0.171032 -0.0869991 -0.370116 
-0.0337219 -0.0456593 -0.216909 -0.134254 -0.0745001 -0.30551 -0.209778 -0.0854317 -0.19469 
-0.194522 -0.0798118 -0.1607 -0.165887 -0.0738533 -0.172747 -0.116848 -0.0733086 -0.352998 
-0.146821 -0.082639 -0.391503 -0.114714 -0.0563792 -0.0814863 -0.0374242 -0.0477913 -0.237851 
-0.232852 -0.0988684 -0.327676 -0.0573028 -0.0553765 -0.286476 -0.124039 -0.0629239 -0.204344 
-0.100072 -0.061831 -0.274607 -0.0903903 -0.0640169 -0.344435 -0.176821 -0.0784512 -0.256576 
-0.182686 -0.0736184 -0.158928 -0.158386 -0.0779698 -0.316286 -0.131653 -0.0765713 -0.391826 
-0.196999 -0.0797227 -0.202963 -0.0771403 -0.0649223 -0.407091 -0.0547709 -0.0480887 -0.22322 
-0.211751 -0.0894198 -0.302071 -0.170609 -0.0840595 -0.367723 -0.0531365 -0.0498246 -0.25657 
-0.229965 -0.0913603 -0.266185 -0.056136 -0.0533395 -0.301065 -0.196428 -0.0884683 -0.343005 
-0.212636 -0.0835836 -0.206778 -0.0671959 -0.061073 -0.382677 -0.0513445 -0.0456491 -0.197248 
-0.107231 -0.0737283 -0.436141 -0.0643848 -0.050871 -0.23201 -0.246448 -0.0971791 -0.297794 
-0.166828 -0.0712165 -0.178936 -0.185895 -0.071006 -0.106005 -0.140525 -0.0622317 -0.133236 
-0.0823981 -0.0548303 -0.228701 -0.162025 -0.067771 -0.142121 -0.199362 -0.0751525 -0.122245 
-0.237804 -0.0970378 -0.327124 -0.160306 -0.0763176 -0.283214 -0.22674 -0.0958152 -0.348231 
-0.212793 -0.0805819 -0.158854 -0.0583949 -0.0550204 -0.319334 -0.22709 -0.0885287 -0.232013 
-0.0674742 -0.0652655 -0.447796 -0.152764 -0.066479 -0.155549 -0.204959 -0.0925945 -0.376946 
-0.228914 -0.089019 -0.233088 -0.16451 -0.085683 -0.415599 -0.0331149 -0.0455512 -0.262259 
-0.12972 -0.0735551 -0.351303 -0.206126 -0.0844399 -0.244053 -0.192225 -0.079103 -0.210619 
-0.163494 -0.0731455 -0.221536 -0.111917 -0.0723817 -0.397792 -0.14031 -0.081381 -0.436091 
-0.115399 -0.0562717 -0.130955 -0.0363359 -0.0476072 -0.28293 -0.226048 -0.0973666 -0.37523 
-0.0549729 -0.0549832 -0.33124 
f 3 100 double
0 0 0 0 0 0 0 0 0 
0 0 0 0 0 0 0 0 0 
0 0 0 0 0 0 0 0 0 
0 0 0 0 0 0 0 0 0 
0 0 0 0 0 0 0 0 0 
0 0 0 0 0 0 0 0 0 
0 0 0 0 0 0 0 0 0 
0 0 0 0 0 0 0 0 0 
0 0 0 0 0 0 0 0 0 
0 0 0 0 0 0 0 0 0 
0 0 0 0 0 0 0 0 0 
0 0 0 0 0 0 0 0 0 
0 0 0 0 0 0 0 0 0 
0 0 0 0 0 0 0 0 0 
0 0 0 0 0 0 0 0 0 
0 0 0 0 0 0 0 0 0 
0 0 0 0 0 0 0 0 0 
0 0 0 0 0 0 0 0 0 
0 0 0 0 0 0 0 0 0 
0 0 0 0 0 0 0 0 0 
0 0 0 0 0 0 0 0 0 
0 0 0 0 0 0 0 0 0 
0 0 0 0 0 0 0 0 0 
0 0 0 0 0 0 0 0 0 
0 0 0 0 0 0 0 0 0 
0 0 0 0 0 0 0 0 0 
0 0 0 0 0 0 0 0 0 
0 0 0 0 0 0 0 0 0 
0 0 0 0 0 0 0 0 0 
0 0 0 0 0 0 0 0 0 
0 0 0 0 0 0 0 0 0 
0 0 0 0 0 0 0 0 0 
0 0 0 0 0 0 0 0 0 
0 0 0 
radius 1 100 double
0.010434 0.00981478 0.00892069 0.00845937 0.00731974 0.00728422 0.00643447 0.00619172 0.00585956 
0.00577566 0.00537241 0.00522549 0.00513666 0.00473175 0.00466912 0.00444866 0.00441894 0.00400812 
0.00385622 0.00379948 0.00370243 0.00366942 0.00364039 0.00363813 0.00363644 0.00358692 0.0035797 
0.00341284 0.00337012 0.00336273 0.00332772 0.00323261 0.00320584 0.00320311 0.00318808 0.00313116 
0.00306026 0.00305632 0.00304383 0.00300958 0.00300137 0.00298994 0.0029567 0.00295111 0.00290849 
0.00284552 0.00282964 0.0028207 0.00281971 0.00281899 0.010434 0.00981478 0.00892069 0.00845937 
0.00731974 0.00728422 0.00643447 0.00619172 0.00585956 0.00577566 0.00537241 0.00522549 0.00513666 
0.00473175 0.00466912 0.00444866 0.00441894 0.00400812 0.00385622 0.00379948 0.00370243 0.00366942 
0.00364039 0.00363813 0.00363644 0.00358692 0.0035797 0.00341284 0.00337012 0.00336273 0.00332772 
0.00323261 0.00320584 0.00320311 0.00318808 0.00313116 0.00306026 0.00305632 0.00304383 0.00300958 
0.00300137 0.00298994 0.0029567 0.00295111 0.00290849 0.00284552 0.00282964 0.0028207 0.00281971 
0.00281899 
omega 3 100 double
1.65868 -7.1022 0.429806 1.65868 -7.1022 0.429806 1.65868 -7.1022 0.429806 
1.65868 -7.1022 0.429806 1.65868 -7.1022 0.429806 1.65868 -7.1022 0.429806 
1.65868 -7.1022 0.429806 1.65868 -7.1022 0.429806 1.65868 -7.1022 0.429806 
1.65868 -7.1022 0.429806 1.65868 -7.1022 0.429806 1.65868 -7.1022 0.429806 
1.65868 -7.1022 0.429806 1.65868 -7.1022 0.429806 1.65868 -7.1022 0.429806 
1.65868 -7.1022 0.429806 1.65868 -7.1022 0.429806 1.65868 -7.1022 0.429806 
1.65868 -7.1022 0.429806 1.65868 -7.1022 0.429806 1.65868 -7.1022 0.429806 
1.65868 -7.1022 0.429806 1.65868 -7.1022 0.429806 1.65868 -7.1022 0.429806 
1.65868 -7.1022 0.429806 1.65868 -7.1022 0.429806 1.65868 -7.1022 0.429806 
1.65868 -7.1022 0.429806 1.65868 -7.1022 0.429806 1.65868 -7.1022 0.429806 
1.65868 -7.1022 0.429806 1.65868 -7.1022 0.429806 1.65868 -7.1022 0.429806 
1.65868 -7.1022 0.429806 1.65868 -7.1022 0.429806 1.65868 -7.1022 0.429806 
1.65868 -7.1022 0.429806 1.65868 -7.1022 0.429806 1.65868 -7.1022 0.429806 
1.65868 -7.1022 0.429806 1.65868 -7.1022 0.429806 1.65868 -7.1022 0.429806 
1.65868 -7.1022 0.429806 1.65868 -7.1022 0.429806 1.65868 -7.1022 0.429806 
1.65868 -7.1022 0.429806 1.65868 -7.1022 0.429806 1.65868 -7.1022 0.429806 
1.65868 -7.1022 0.429806 1.65868 -7.1022 0.429806 1.61463 -6.97626 0.442252 
1.61463 -6.97626 0.442252 1.61463 -6.97626 0.442252 1.61463 -6.97626 0.442252 
1.61463 -6.97626 0.442252 1.61463 -6.97626 0.442252 1.61463 -6.97626 0.442252 
1.61463 -6.97626 0.442252 1.61463 -6.97626 0.442252 1.61463 -6.97626 0.442252 
1.61463 -6.97626 0.442252 1.61463 -6.97626 0.442252 1.61463 -6.97626 0.442252 
1.61463 -6.97626 0.442252 1.61463 -6.97626 0.442252 1.61463 -6.97626 0.442252 
1.61463 -6.97626 0.442252 1.61463 -6.97626 0.442252 1.61463 -6.97626 0.442252 
1.61463 -6.97626 0.442252 1.61463 -6.97626 0.442252 1.61463 -6.97626 0.442252 
1.61463 -6.97626 0.442252 1.61463 -6.97626 0.442252 1.61463 -6.97626 0.442252 
1.61463 -6.97626 0.442252 1.61463 -6.97626 0.442252 1.61463 -6.97626 0.442252 
1.61463 -6.97626 0.442252 1.61463 -6.97626 0.442252 1.61463 -6.97626 0.442252 
1.61463 -6.97626 0.442252 1.61463 -6.97626 0.442252 1.61463 -6.97626 0.442252 
1.61463 -6.97626 0.442252 1.61463 -6.97626 0.442252 1.61463 -6.97626 0.442252 
1.61463 -6.97626 0.442252 1.61463 -6.97626 0.442252 1.61463 -6.97626 0.442252 
1.61463 -6.97626 0.442252 1.61463 -6.97626 0.442252 1.61463 -6.97626 0.442252 
1.61463 -6.97626 0.442252 1.61463 -6.97626 0.442252 1.61463 -6.97626 0.442252 
1.61463 -6.97626 0.442252 1.61463 -6.97626 0.442252 1.61463 -6.97626 0.442252 
1.61463 -6.97626 0.442252 
