# vtk DataFile Version 4.0
Generated by LIGGGHTS
ASCII
DATASET POLYDATA
POINTS 100 float
-0.109202 -0.129398 0.0173982 -0.119595 -0.130305 0.018098 -0.129301 -0.130414 0.020612 
-0.112734 -0.130592 0.0273533 -0.100233 -0.127832 0.0226111 -0.121422 -0.1315 0.028216 
-0.132668 -0.132407 0.0288344 -0.10412 -0.13228 0.0272586 -0.13807 -0.13135 0.0223268 
-0.116149 -0.127428 0.00905144 -0.116018 -0.133413 0.0346954 -0.127022 -0.133379 0.0327851 
-0.121437 -0.124057 0.0103803 -0.110046 -0.134272 0.0352369 -0.126877 -0.125023 0.013273 
-0.122066 -0.134294 0.0349498 -0.105152 -0.126343 0.0290788 -0.136908 -0.125244 0.0191961 
-0.111709 -0.13251 0.00758492 -0.139486 -0.134116 0.028127 -0.114665 -0.136075 0.0114896 
-0.113009 -0.135268 0.0392261 -0.101918 -0.135536 0.0221951 -0.0939469 -0.124297 0.0198842 
-0.0987223 -0.130175 0.0157898 -0.116488 -0.122404 0.0126295 -0.100694 -0.121697 0.0184653 
-0.0959033 -0.121812 0.0223628 -0.117354 -0.135294 0.0396714 -0.118638 -0.124567 0.0261284 
-0.120765 -0.135292 0.0393459 -0.0972148 -0.133111 0.0270293 -0.126236 -0.137095 0.0155172 
-0.105536 -0.135046 0.0330588 -0.143343 -0.133972 0.0234587 -0.0998892 -0.134568 0.0189768 
-0.1258 -0.135262 0.0380053 -0.106398 -0.131621 0.03309 -0.133231 -0.135173 0.034716 
-0.122113 -0.129137 0.00842546 -0.126443 -0.136606 0.0267065 -0.107927 -0.1367 0.0310538 
-0.107473 -0.123689 0.0263623 -0.107274 -0.137331 0.0242074 -0.135849 -0.127184 0.0261208 
-0.137332 -0.135114 0.0326045 -0.100105 -0.129205 0.012246 -0.124837 -0.128336 0.00991404 
-0.124339 -0.135347 0.040725 -0.131308 -0.123365 0.014627 -0.0403423 -0.101613 0.0186666 
-0.0507503 -0.102533 0.0190745 -0.0605209 -0.102668 0.0213216 -0.044144 -0.102895 0.0285109 
-0.0315202 -0.100087 0.0241358 -0.0528515 -0.103816 0.0291282 -0.0641098 -0.104734 0.0294314 
-0.0355299 -0.104578 0.0286367 -0.069333 -0.103624 0.0227883 -0.0470605 -0.0995745 0.0101507 
-0.0476246 -0.105782 0.0357358 -0.0585728 -0.105738 0.0335262 -0.0523858 -0.0962183 0.0113639 
-0.0416694 -0.106643 0.0364327 -0.0579016 -0.0972128 0.0140985 -0.0536769 -0.106669 0.0358174 
-0.0366151 -0.0986577 0.0304794 -0.0680904 -0.0974909 0.0197434 -0.0425782 -0.104642 0.00876192 
-0.0709041 -0.106441 0.0285235 -0.0456369 -0.108242 0.0125534 -0.0447391 -0.107675 0.0403307 
-0.0331873 -0.107789 0.0236071 -0.0251652 -0.0965258 0.0216122 -0.0298224 -0.10237 0.0173381 
-0.0475009 -0.0945818 0.0137616 -0.0318734 -0.0939171 0.0200323 -0.0271904 -0.0940638 0.0240579 
-0.0490948 -0.107707 0.040657 -0.0500168 -0.0968638 0.0271775 -0.0524956 -0.107705 0.0402385 
-0.02862 -0.105404 0.0285887 -0.0573133 -0.109303 0.0162547 -0.0371009 -0.107395 0.0343719 
-0.0746324 -0.106259 0.023753 -0.0310724 -0.106792 0.0204539 -0.0574924 -0.107665 0.0387613 
-0.037966 -0.103971 0.0344093 -0.0648306 -0.107552 0.0352713 -0.0530047 -0.101282 0.00934736 
-0.0578261 -0.108912 0.0274379 -0.0394351 -0.109033 0.0322881 -0.0388631 -0.095981 0.0277237 
-0.0385949 -0.109604 0.0254568 -0.0672191 -0.0994895 0.0266775 -0.0688725 -0.107477 0.0330493 
-0.0311082 -0.10137 0.0137665 -0.0557681 -0.100495 0.0107679 -0.0561056 -0.107773 0.041519 
-0.0623692 -0.0955691 0.0153454 
VERTICES 100 200
1 0 
1 1 
1 2 
1 3 
1 4 
1 5 
1 6 
1 7 
1 8 
1 9 
1 10 
1 11 
1 12 
1 13 
1 14 
1 15 
1 16 
1 17 
1 18 
1 19 
1 20 
1 21 
1 22 
1 23 
1 24 
1 25 
1 26 
1 27 
1 28 
1 29 
1 30 
1 31 
1 32 
1 33 
1 34 
1 35 
1 36 
1 37 
1 38 
1 39 
1 40 
1 41 
1 42 
1 43 
1 44 
1 45 
1 46 
1 47 
1 48 
1 49 
1 50 
1 51 
1 52 
1 53 
1 54 
1 55 
1 56 
1 57 
1 58 
1 59 
1 60 
1 61 
1 62 
1 63 
1 64 
1 65 
1 66 
1 67 
1 68 
1 69 
1 70 
1 71 
1 72 
1 73 
1 74 
1 75 
1 76 
1 77 
1 78 
1 79 
1 80 
1 81 
1 82 
1 83 
1 84 
1 85 
1 86 
1 87 
1 88 
1 89 
1 90 
1 91 
1 92 
1 93 
1 94 
1 95 
1 96 
1 97 
1 98 
1 99 

POINT_DATA 100
FIELD FieldData 7
id 1 100 int
1 2 3 4 5 6 7 8 9 
10 11 12 13 14 15 16 17 18 
19 20 21 22 23 24 25 26 27 
28 29 30 31 32 33 34 35 36 
37 38 39 40 41 42 43 44 45 
46 47 48 49 50 51 52 53 54 
55 56 57 58 59 60 61 62 63 
64 65 66 67 68 69 70 71 72 
73 74 75 76 77 78 79 80 81 
82 83 84 85 86 87 88 89 90 
91 92 93 94 95 96 97 98 99 
100 
mol 1 100 int
1 1 1 1 1 1 1 1 1 
1 1 1 1 1 1 1 1 1 
1 1 1 1 1 1 1 1 1 
1 1 1 1 1 1 1 1 1 
1 1 1 1 1 1 1 1 1 
1 1 1 1 1 2 2 2 2 
2 2 2 2 2 2 2 2 2 
2 2 2 2 2 2 2 2 2 
2 2 2 2 2 2 2 2 2 
2 2 2 2 2 2 2 2 2 
2 2 2 2 2 2 2 2 2 
2 
type 1 100 int
1 1 1 1 1 1 1 1 1 
1 1 1 1 1 1 1 1 1 
1 1 1 1 1 1 1 1 1 
1 1 1 1 1 1 1 1 1 
1 1 1 1 1 1 1 1 1 
1 1 1 1 1 1 1 1 1 
1 1 1 1 1 1 1 1 1 
1 1 1 1 1 1 1 1 1 
1 1 1 1 1 1 1 1 1 
1 1 1 1 1 1 1 1 1 
1 1 1 1 1 1 1 1 1 
1 
v 3 100 double
-0.101985 -0.0585314 0.345115 -0.106776 -0.061298 0.270357 -0.124374 -0.0678808 0.202135 
-0.171577 -0.0803596 0.317806 -0.138692 -0.0686476 0.411312 -0.177509 -0.0832691 0.254993 
-0.181731 -0.0859643 0.174262 -0.170708 -0.0791099 0.374514 -0.136273 -0.072632 0.138691 
-0.0437537 -0.0414333 0.300686 -0.222666 -0.0965406 0.288738 -0.209288 -0.0937708 0.211724 
-0.0534718 -0.0449321 0.270886 -0.226355 -0.0969794 0.328723 -0.0736182 -0.0518108 0.230703 
-0.224342 -0.0978221 0.244475 -0.18418 -0.0831476 0.380053 -0.115083 -0.0657611 0.159959 
-0.0328632 -0.0377417 0.320862 -0.176568 -0.0852718 0.122831 -0.0597831 -0.0464941 0.292493 
-0.254179 -0.105914 0.305828 -0.134842 -0.0679579 0.382945 -0.120019 -0.0620225 0.462941 
-0.090623 -0.0538013 0.416855 -0.0694287 -0.0491658 0.309111 -0.110395 -0.059792 0.421264 
-0.137683 -0.0675879 0.454578 -0.257295 -0.107399 0.275333 -0.163727 -0.0784435 0.289399 
-0.255015 -0.107114 0.251442 -0.169001 -0.0777782 0.421102 -0.0878734 -0.0565572 0.20924 
-0.211004 -0.0917497 0.358654 -0.143884 -0.0757054 0.0961201 -0.112415 -0.0607937 0.399237 
-0.245628 -0.104844 0.216236 -0.211638 -0.0919214 0.359979 -0.222597 -0.0986755 0.164374 
-0.039161 -0.0408122 0.255227 -0.166315 -0.0806342 0.20884 -0.196757 -0.0877301 0.338348 
-0.165472 -0.0775902 0.3695 -0.14872 -0.072934 0.341568 -0.163357 -0.0805176 0.16321 
-0.207813 -0.0946349 0.135772 -0.0659163 -0.0463516 0.409257 -0.049686 -0.0443427 0.237872 
-0.264669 -0.110512 0.22629 -0.0833045 -0.0552594 0.203227 -0.101521 -0.0582514 0.297635 
-0.104179 -0.0607894 0.224089 -0.119619 -0.0670885 0.156576 -0.16905 -0.0795473 0.268783 
-0.139399 -0.0683167 0.361543 -0.173148 -0.0822504 0.206935 -0.175087 -0.084706 0.127541 
-0.169643 -0.0784203 0.324519 -0.129556 -0.0715929 0.0939336 -0.0432549 -0.0414455 0.255692 
-0.218296 -0.0952883 0.238769 -0.203099 -0.0924143 0.163531 -0.0521445 -0.0448544 0.226102 
-0.222952 -0.0957905 0.277937 -0.0708002 -0.0514904 0.186059 -0.218714 -0.0964373 0.195262 
-0.183279 -0.0824669 0.32949 -0.109596 -0.0649954 0.115369 -0.0328806 -0.0378039 0.275888 
-0.168564 -0.0838958 0.0772059 -0.0583873 -0.0462634 0.247279 -0.249606 -0.104476 0.254647 
-0.134518 -0.0674753 0.333892 -0.122611 -0.0619886 0.412753 -0.092258 -0.0537614 0.368429 
-0.0689068 -0.0491028 0.263151 -0.112161 -0.0597527 0.372076 -0.139836 -0.0674538 0.40399 
-0.251846 -0.105865 0.224609 -0.160849 -0.0776945 0.241046 -0.248967 -0.105535 0.201214 
-0.16918 -0.0772035 0.37033 -0.0836834 -0.0559253 0.164707 -0.208651 -0.0907231 0.307791 
-0.135769 -0.0744757 0.0519345 -0.112983 -0.0605092 0.350539 -0.23881 -0.103238 0.166916 
-0.209461 -0.0909413 0.309033 -0.214814 -0.0970913 0.116662 -0.0374515 -0.0407178 0.211206 
-0.160695 -0.0795029 0.162001 -0.194048 -0.0867222 0.288289 -0.16475 -0.0770405 0.319646 
-0.146952 -0.0722347 0.292871 -0.156985 -0.0794224 0.117166 -0.199537 -0.0930759 0.0890074 
-0.0678441 -0.0464654 0.361682 -0.0473531 -0.0441486 0.193844 -0.257767 -0.108808 0.176231 
-0.079645 -0.0548315 0.158773 
f 3 100 double
0 0 0 0 0 0 0 0 0 
0 0 0 0 0 0 0 0 0 
0 0 0 0 0 0 0 0 0 
0 0 0 0 0 0 0 0 0 
0 0 0 0 0 0 0 0 0 
0 0 0 0 0 0 0 0 0 
0 0 0 0 0 0 0 0 0 
0 0 0 0 0 0 0 0 0 
0 0 0 0 0 0 0 0 0 
0 0 0 0 0 0 0 0 0 
0 0 0 0 0 0 0 0 0 
0 0 0 0 0 0 0 0 0 
0 0 0 0 0 0 0 0 0 
0 0 0 0 0 0 0 0 0 
0 0 0 0 0 0 0 0 0 
0 0 0 0 0 0 0 0 0 
0 0 0 0 0 0 0 0 0 
0 0 0 0 0 0 0 0 0 
0 0 0 0 0 0 0 0 0 
0 0 0 0 0 0 0 0 0 
0 0 0 0 0 0 0 0 0 
0 0 0 0 0 0 0 0 0 
0 0 0 0 0 0 0 0 0 
0 0 0 0 0 0 0 0 0 
0 0 0 0 0 0 0 0 0 
0 0 0 0 0 0 0 0 0 
0 0 0 0 0 0 0 0 0 
0 0 0 0 0 0 0 0 0 
0 0 0 0 0 0 0 0 0 
0 0 0 0 0 0 0 0 0 
0 0 0 0 0 0 0 0 0 
0 0 0 0 0 0 0 0 0 
0 0 0 0 0 0 0 0 0 
0 0 0 
radius 1 100 double
0.010434 0.00981478 0.00892069 0.00845937 0.00731974 0.00728422 0.00643447 0.00619172 0.00585956 
0.00577566 0.00537241 0.00522549 0.00513666 0.00473175 0.00466912 0.00444866 0.00441894 0.00400812 
0.00385622 0.00379948 0.00370243 0.00366942 0.00364039 0.00363813 0.00363644 0.00358692 0.0035797 
0.00341284 0.00337012 0.00336273 0.00332772 0.00323261 0.00320584 0.00320311 0.00318808 0.00313116 
0.00306026 0.00305632 0.00304383 0.00300958 0.00300137 0.00298994 0.0029567 0.00295111 0.00290849 
0.00284552 0.00282964 0.0028207 0.00281971 0.00281899 0.010434 0.00981478 0.00892069 0.00845937 
0.00731974 0.00728422 0.00643447 0.00619172 0.00585956 0.00577566 0.00537241 0.00522549 0.00513666 
0.00473175 0.00466912 0.00444866 0.00441894 0.00400812 0.00385622 0.00379948 0.00370243 0.00366942 
0.00364039 0.00363813 0.00363644 0.00358692 0.0035797 0.00341284 0.00337012 0.00336273 0.00332772 
0.00323261 0.00320584 0.00320311 0.00318808 0.00313116 0.00306026 0.00305632 0.00304383 0.00300958 
0.00300137 0.00298994 0.0029567 0.00295111 0.00290849 0.00284552 0.00282964 0.0028207 0.00281971 
0.00281899 
omega 3 100 double
2.14956 -7.00513 0.121455 2.14956 -7.00513 0.121455 2.14956 -7.00513 0.121455 
2.14956 -7.00513 0.121455 2.14956 -7.00513 0.121455 2.14956 -7.00513 0.121455 
2.14956 -7.00513 0.121455 2.14956 -7.00513 0.121455 2.14956 -7.00513 0.121455 
2.14956 -7.00513 0.121455 2.14956 -7.00513 0.121455 2.14956 -7.00513 0.121455 
2.14956 -7.00513 0.121455 2.14956 -7.00513 0.121455 2.14956 -7.00513 0.121455 
2.14956 -7.00513 0.121455 2.14956 -7.00513 0.121455 2.14956 -7.00513 0.121455 
2.14956 -7.00513 0.121455 2.14956 -7.00513 0.121455 2.14956 -7.00513 0.121455 
2.14956 -7.00513 0.121455 2.14956 -7.00513 0.121455 2.14956 -7.00513 0.121455 
2.14956 -7.00513 0.121455 2.14956 -7.00513 0.121455 2.14956 -7.00513 0.121455 
2.14956 -7.00513 0.121455 2.14956 -7.00513 0.121455 2.14956 -7.00513 0.121455 
2.14956 -7.00513 0.121455 2.14956 -7.00513 0.121455 2.14956 -7.00513 0.121455 
2.14956 -7.00513 0.121455 2.14956 -7.00513 0.121455 2.14956 -7.00513 0.121455 
2.14956 -7.00513 0.121455 2.14956 -7.00513 0.121455 2.14956 -7.00513 0.121455 
2.14956 -7.00513 0.121455 2.14956 -7.00513 0.121455 2.14956 -7.00513 0.121455 
2.14956 -7.00513 0.121455 2.14956 -7.00513 0.121455 2.14956 -7.00513 0.121455 
2.14956 -7.00513 0.121455 2.14956 -7.00513 0.121455 2.14956 -7.00513 0.121455 
2.14956 -7.00513 0.121455 2.14956 -7.00513 0.121455 2.1009 -6.88071 0.161512 
2.1009 -6.88071 0.161512 2.1009 -6.88071 0.161512 2.1009 -6.88071 0.161512 
2.1009 -6.88071 0.161512 2.1009 -6.88071 0.161512 2.1009 -6.88071 0.161512 
2.1009 -6.88071 0.161512 2.1009 -6.88071 0.161512 2.1009 -6.88071 0.161512 
2.1009 -6.88071 0.161512 2.1009 -6.88071 0.161512 2.1009 -6.88071 0.161512 
2.1009 -6.88071 0.161512 2.1009 -6.88071 0.161512 2.1009 -6.88071 0.161512 
2.1009 -6.88071 0.161512 2.1009 -6.88071 0.161512 2.1009 -6.88071 0.161512 
2.1009 -6.88071 0.161512 2.1009 -6.88071 0.161512 2.1009 -6.88071 0.161512 
2.1009 -6.88071 0.161512 2.1009 -6.88071 0.161512 2.1009 -6.88071 0.161512 
2.1009 -6.88071 0.161512 2.1009 -6.88071 0.161512 2.1009 -6.88071 0.161512 
2.1009 -6.88071 0.161512 2.1009 -6.88071 0.161512 2.1009 -6.88071 0.161512 
2.1009 -6.88071 0.161512 2.1009 -6.88071 0.161512 2.1009 -6.88071 0.161512 
2.1009 -6.88071 0.161512 2.1009 -6.88071 0.161512 2.1009 -6.88071 0.161512 
2.1009 -6.88071 0.161512 2.1009 -6.88071 0.161512 2.1009 -6.88071 0.161512 
2.1009 -6.88071 0.161512 2.1009 -6.88071 0.161512 2.1009 -6.88071 0.161512 
2.1009 -6.88071 0.161512 2.1009 -6.88071 0.161512 2.1009 -6.88071 0.161512 
2.1009 -6.88071 0.161512 2.1009 -6.88071 0.161512 2.1009 -6.88071 0.161512 
2.1009 -6.88071 0.161512 
