# vtk DataFile Version 4.0
Generated by LIGGGHTS
ASCII
DATASET POLYDATA
POINTS 100 float
-0.108998 -0.129281 0.0166889 -0.119381 -0.130183 0.0175381 -0.129051 -0.130278 0.0201882 
-0.112391 -0.130431 0.0266976 -0.099957 -0.127695 0.0217688 -0.121066 -0.131333 0.0276857 
-0.132303 -0.132235 0.0284655 -0.10378 -0.132122 0.0264895 -0.137795 -0.131205 0.0220297 
-0.116061 -0.127345 0.0084318 -0.115572 -0.13322 0.034097 -0.126602 -0.133191 0.0323409 
-0.12133 -0.123967 0.00982003 -0.109594 -0.134078 0.0345586 -0.126729 -0.12492 0.0127928 
-0.121617 -0.134098 0.0344399 -0.104785 -0.126177 0.0282983 -0.136676 -0.125113 0.0188567 
-0.111643 -0.132435 0.00692519 -0.13913 -0.133945 0.0278611 -0.114545 -0.135982 0.0108862 
-0.112501 -0.135056 0.038593 -0.101649 -0.1354 0.0214097 -0.0937094 -0.124173 0.018939 
-0.0985428 -0.130067 0.0149372 -0.116349 -0.122306 0.0119925 -0.100476 -0.121578 0.0176035 
-0.0956304 -0.121678 0.0214339 -0.116839 -0.135079 0.0390993 -0.11831 -0.12441 0.0255294 
-0.120254 -0.135078 0.0388216 -0.0968787 -0.132956 0.0261671 -0.126059 -0.136982 0.0150799 
-0.105115 -0.134862 0.0323209 -0.143052 -0.133821 0.0232466 -0.0996658 -0.134447 0.0181592 
-0.125308 -0.135052 0.0375515 -0.105975 -0.131437 0.0323493 -0.132784 -0.134975 0.0343663 
-0.122035 -0.129056 0.00789682 -0.12611 -0.136445 0.0262687 -0.107534 -0.136525 0.0303566 
-0.107143 -0.123533 0.0256031 -0.106977 -0.137185 0.0235045 -0.13552 -0.127022 0.0257742 
-0.136914 -0.134925 0.0323122 -0.0999744 -0.129112 0.011409 -0.124737 -0.128247 0.00941992 
-0.123808 -0.135126 0.0402508 -0.13114 -0.123255 0.0142015 -0.0401401 -0.101497 0.0180522 
-0.0505417 -0.102411 0.0186071 -0.0602805 -0.102534 0.020989 -0.0438063 -0.102736 0.0279532 
-0.0312431 -0.0999509 0.023393 -0.0525047 -0.103651 0.028694 -0.063758 -0.104565 0.0291561 
-0.0351917 -0.104421 0.0279676 -0.0690719 -0.103481 0.0225807 -0.0469742 -0.0994918 0.00962101 
-0.047188 -0.105591 0.0352374 -0.0581655 -0.105553 0.0331785 -0.0522813 -0.0961287 0.0108932 
-0.041224 -0.106451 0.0358559 -0.0577593 -0.0971099 0.0137076 -0.0532388 -0.106476 0.035406 
-0.0362498 -0.0984929 0.0298 -0.0678696 -0.0973607 0.0194933 -0.0425129 -0.104566 0.00819208 
-0.0705647 -0.106273 0.0283488 -0.0455201 -0.108149 0.0120404 -0.0442401 -0.107466 0.0398001 
-0.0329194 -0.107654 0.0229198 -0.0249224 -0.0964022 0.0207673 -0.0296396 -0.102263 0.0165823 
-0.0473635 -0.0944838 0.0132165 -0.031651 -0.0937979 0.0192688 -0.0269131 -0.0939292 0.0232301 
-0.0485908 -0.107495 0.0401864 -0.0496952 -0.0967084 0.0266753 -0.0519971 -0.107493 0.0398148 
-0.0282833 -0.105249 0.027828 -0.0571448 -0.109191 0.0159065 -0.0366845 -0.107213 0.0337357 
-0.0743582 -0.10611 0.0236294 -0.0308478 -0.106671 0.0197337 -0.0570137 -0.107458 0.0384063 
-0.037548 -0.103789 0.0337705 -0.0643992 -0.107357 0.0350171 -0.0529293 -0.1012 0.00890671 
-0.0575035 -0.108752 0.0270939 -0.0390476 -0.10886 0.0316911 -0.0385348 -0.095827 0.0270642 
-0.0383016 -0.109459 0.0248514 -0.0669035 -0.0993304 0.026423 -0.0684713 -0.107291 0.0328506 
-0.0309742 -0.101278 0.0130246 -0.0556728 -0.100407 0.0103618 -0.0555892 -0.107555 0.0411451 
-0.0622088 -0.0954594 0.0150089 
VERTICES 100 200
1 0 
1 1 
1 2 
1 3 
1 4 
1 5 
1 6 
1 7 
1 8 
1 9 
1 10 
1 11 
1 12 
1 13 
1 14 
1 15 
1 16 
1 17 
1 18 
1 19 
1 20 
1 21 
1 22 
1 23 
1 24 
1 25 
1 26 
1 27 
1 28 
1 29 
1 30 
1 31 
1 32 
1 33 
1 34 
1 35 
1 36 
1 37 
1 38 
1 39 
1 40 
1 41 
1 42 
1 43 
1 44 
1 45 
1 46 
1 47 
1 48 
1 49 
1 50 
1 51 
1 52 
1 53 
1 54 
1 55 
1 56 
1 57 
1 58 
1 59 
1 60 
1 61 
1 62 
1 63 
1 64 
1 65 
1 66 
1 67 
1 68 
1 69 
1 70 
1 71 
1 72 
1 73 
1 74 
1 75 
1 76 
1 77 
1 78 
1 79 
1 80 
1 81 
1 82 
1 83 
1 84 
1 85 
1 86 
1 87 
1 88 
1 89 
1 90 
1 91 
1 92 
1 93 
1 94 
1 95 
1 96 
1 97 
1 98 
1 99 

POINT_DATA 100
FIELD FieldData 7
id 1 100 int
1 2 3 4 5 6 7 8 9 
10 11 12 13 14 15 16 17 18 
19 20 21 22 23 24 25 26 27 
28 29 30 31 32 33 34 35 36 
37 38 39 40 41 42 43 44 45 
46 47 48 49 50 51 52 53 54 
55 56 57 58 59 60 61 62 63 
64 65 66 67 68 69 70 71 72 
73 74 75 76 77 78 79 80 81 
82 83 84 85 86 87 88 89 90 
91 92 93 94 95 96 97 98 99 
100 
mol 1 100 int
1 1 1 1 1 1 1 1 1 
1 1 1 1 1 1 1 1 1 
1 1 1 1 1 1 1 1 1 
1 1 1 1 1 1 1 1 1 
1 1 1 1 1 1 1 1 1 
1 1 1 1 1 2 2 2 2 
2 2 2 2 2 2 2 2 2 
2 2 2 2 2 2 2 2 2 
2 2 2 2 2 2 2 2 2 
2 2 2 2 2 2 2 2 2 
2 2 2 2 2 2 2 2 2 
2 
type 1 100 int
1 1 1 1 1 1 1 1 1 
1 1 1 1 1 1 1 1 1 
1 1 1 1 1 1 1 1 1 
1 1 1 1 1 1 1 1 1 
1 1 1 1 1 1 1 1 1 
1 1 1 1 1 1 1 1 1 
1 1 1 1 1 1 1 1 1 
1 1 1 1 1 1 1 1 1 
1 1 1 1 1 1 1 1 1 
1 1 1 1 1 1 1 1 1 
1 1 1 1 1 1 1 1 1 
1 
v 3 100 double
-0.101184 -0.0583636 0.364209 -0.107036 -0.0612765 0.289559 -0.125582 -0.0680137 0.221649 
-0.171144 -0.0803777 0.337966 -0.136917 -0.0684226 0.430951 -0.17797 -0.0834146 0.275271 
-0.183336 -0.0862657 0.194642 -0.169512 -0.0790359 0.394598 -0.13838 -0.0729048 0.158414 
-0.0435693 -0.0412232 0.318947 -0.222665 -0.0967225 0.309656 -0.210372 -0.0940634 0.232487 
-0.0536392 -0.0447733 0.289369 -0.225808 -0.0971025 0.349658 -0.0743553 -0.0517665 0.249505 
-0.224975 -0.0980905 0.265433 -0.182792 -0.0830548 0.400433 -0.116794 -0.0659211 0.179439 
-0.0324933 -0.0375048 0.338864 -0.178927 -0.0856643 0.143138 -0.0598608 -0.0463786 0.310869 
-0.253956 -0.106136 0.327189 -0.133605 -0.0678205 0.402422 -0.117467 -0.0616508 0.482316 
-0.0888373 -0.0534897 0.435716 -0.0690229 -0.0489599 0.327839 -0.108385 -0.0594608 0.440559 
-0.135195 -0.0672497 0.474268 -0.257498 -0.107681 0.296761 -0.163588 -0.0784622 0.309552 
-0.255553 -0.107433 0.272851 -0.167168 -0.0776234 0.441116 -0.0891208 -0.0566475 0.228085 
-0.210059 -0.0917955 0.379322 -0.14663 -0.0760829 0.115946 -0.110944 -0.0605797 0.418375 
-0.246664 -0.105207 0.237524 -0.210613 -0.0919462 0.38071 -0.224369 -0.0990872 0.185343 
-0.0396464 -0.0406837 0.27342 -0.167519 -0.0808699 0.228895 -0.196133 -0.0877946 0.358785 
-0.164195 -0.0774655 0.389642 -0.148088 -0.0729061 0.361256 -0.165032 -0.0807738 0.183398 
-0.209992 -0.0950691 0.156534 -0.0642322 -0.0460015 0.427759 -0.0503945 -0.04426 0.256251 
-0.265556 -0.110894 0.247862 -0.0843916 -0.0552723 0.222222 -0.100734 -0.0580862 0.31677 
-0.104418 -0.0607666 0.2433 -0.120781 -0.0672168 0.176063 -0.168648 -0.0795674 0.288934 
-0.137689 -0.068099 0.38123 -0.17361 -0.0823946 0.227175 -0.176656 -0.0850016 0.147848 
-0.168503 -0.0783504 0.344614 -0.131591 -0.0718578 0.113596 -0.0430392 -0.0412356 0.274012 
-0.218331 -0.0954704 0.259635 -0.204176 -0.0927032 0.18422 -0.0522753 -0.0446959 0.244629 
-0.222461 -0.0959156 0.298833 -0.0714893 -0.0514444 0.204878 -0.219363 -0.0967033 0.216149 
-0.181964 -0.0823812 0.349882 -0.111244 -0.0651507 0.134815 -0.032477 -0.037566 0.293957 
-0.170857 -0.0842792 0.097422 -0.0584251 -0.0461445 0.265693 -0.249439 -0.104698 0.275943 
-0.133319 -0.0673405 0.353401 -0.120144 -0.0616278 0.432209 -0.0905141 -0.0534556 0.387366 
-0.0684923 -0.0489 0.281931 -0.110215 -0.0594313 0.391444 -0.137441 -0.0671275 0.423751 
-0.252092 -0.106146 0.245958 -0.160732 -0.0777161 0.261188 -0.249536 -0.105852 0.222536 
-0.167423 -0.0770549 0.390374 -0.0848625 -0.0560081 0.183541 -0.207768 -0.0907718 0.32844 
-0.138423 -0.0748422 0.0716771 -0.111549 -0.0602987 0.369729 -0.239855 -0.103598 0.188109 
-0.208503 -0.0909705 0.329748 -0.21656 -0.0974963 0.137529 -0.0378793 -0.0405864 0.229441 
-0.161867 -0.0797325 0.182002 -0.193468 -0.0867876 0.308705 -0.163534 -0.0769231 0.339808 
-0.146342 -0.0722069 0.312566 -0.158617 -0.079674 0.137291 -0.20167 -0.0935017 0.109665 
-0.0661883 -0.0461207 0.380272 -0.0480017 -0.0440627 0.212252 -0.258676 -0.109187 0.197701 
-0.0806776 -0.0548421 0.177769 
f 3 100 double
0 0 0 0 0 0 0 0 0 
0 0 0 0 0 0 0 0 0 
0 0 0 0 0 0 0 0 0 
0 0 0 0 0 0 0 0 0 
0 0 0 0 0 0 0 0 0 
0 0 0 0 0 0 0 0 0 
0 0 0 0 0 0 0 0 0 
0 0 0 0 0 0 0 0 0 
0 0 0 0 0 0 0 0 0 
0 0 0 0 0 0 0 0 0 
0 0 0 0 0 0 0 0 0 
0 0 0 0 0 0 0 0 0 
0 0 0 0 0 0 0 0 0 
0 0 0 0 0 0 0 0 0 
0 0 0 0 0 0 0 0 0 
0 0 0 0 0 0 0 0 0 
0 0 0 0 0 0 0 0 0 
0 0 0 0 0 0 0 0 0 
0 0 0 0 0 0 0 0 0 
0 0 0 0 0 0 0 0 0 
0 0 0 0 0 0 0 0 0 
0 0 0 0 0 0 0 0 0 
0 0 0 0 0 0 0 0 0 
0 0 0 0 0 0 0 0 0 
0 0 0 0 0 0 0 0 0 
0 0 0 0 0 0 0 0 0 
0 0 0 0 0 0 0 0 0 
0 0 0 0 0 0 0 0 0 
0 0 0 0 0 0 0 0 0 
0 0 0 0 0 0 0 0 0 
0 0 0 0 0 0 0 0 0 
0 0 0 0 0 0 0 0 0 
0 0 0 0 0 0 0 0 0 
0 0 0 
radius 1 100 double
0.010434 0.00981478 0.00892069 0.00845937 0.00731974 0.00728422 0.00643447 0.00619172 0.00585956 
0.00577566 0.00537241 0.00522549 0.00513666 0.00473175 0.00466912 0.00444866 0.00441894 0.00400812 
0.00385622 0.00379948 0.00370243 0.00366942 0.00364039 0.00363813 0.00363644 0.00358692 0.0035797 
0.00341284 0.00337012 0.00336273 0.00332772 0.00323261 0.00320584 0.00320311 0.00318808 0.00313116 
0.00306026 0.00305632 0.00304383 0.00300958 0.00300137 0.00298994 0.0029567 0.00295111 0.00290849 
0.00284552 0.00282964 0.0028207 0.00281971 0.00281899 0.010434 0.00981478 0.00892069 0.00845937 
0.00731974 0.00728422 0.00643447 0.00619172 0.00585956 0.00577566 0.00537241 0.00522549 0.00513666 
0.00473175 0.00466912 0.00444866 0.00441894 0.00400812 0.00385622 0.00379948 0.00370243 0.00366942 
0.00364039 0.00363813 0.00363644 0.00358692 0.0035797 0.00341284 0.00337012 0.00336273 0.00332772 
0.00323261 0.00320584 0.00320311 0.00318808 0.00313116 0.00306026 0.00305632 0.00304383 0.00300958 
0.00300137 0.00298994 0.0029567 0.00295111 0.00290849 0.00284552 0.00282964 0.0028207 0.00281971 
0.00281899 
omega 3 100 double
2.16441 -7.00185 0.103533 2.16441 -7.00185 0.103533 2.16441 -7.00185 0.103533 
2.16441 -7.00185 0.103533 2.16441 -7.00185 0.103533 2.16441 -7.00185 0.103533 
2.16441 -7.00185 0.103533 2.16441 -7.00185 0.103533 2.16441 -7.00185 0.103533 
2.16441 -7.00185 0.103533 2.16441 -7.00185 0.103533 2.16441 -7.00185 0.103533 
2.16441 -7.00185 0.103533 2.16441 -7.00185 0.103533 2.16441 -7.00185 0.103533 
2.16441 -7.00185 0.103533 2.16441 -7.00185 0.103533 2.16441 -7.00185 0.103533 
2.16441 -7.00185 0.103533 2.16441 -7.00185 0.103533 2.16441 -7.00185 0.103533 
2.16441 -7.00185 0.103533 2.16441 -7.00185 0.103533 2.16441 -7.00185 0.103533 
2.16441 -7.00185 0.103533 2.16441 -7.00185 0.103533 2.16441 -7.00185 0.103533 
2.16441 -7.00185 0.103533 2.16441 -7.00185 0.103533 2.16441 -7.00185 0.103533 
2.16441 -7.00185 0.103533 2.16441 -7.00185 0.103533 2.16441 -7.00185 0.103533 
2.16441 -7.00185 0.103533 2.16441 -7.00185 0.103533 2.16441 -7.00185 0.103533 
2.16441 -7.00185 0.103533 2.16441 -7.00185 0.103533 2.16441 -7.00185 0.103533 
2.16441 -7.00185 0.103533 2.16441 -7.00185 0.103533 2.16441 -7.00185 0.103533 
2.16441 -7.00185 0.103533 2.16441 -7.00185 0.103533 2.16441 -7.00185 0.103533 
2.16441 -7.00185 0.103533 2.16441 -7.00185 0.103533 2.16441 -7.00185 0.103533 
2.16441 -7.00185 0.103533 2.16441 -7.00185 0.103533 2.11598 -6.87743 0.144797 
2.11598 -6.87743 0.144797 2.11598 -6.87743 0.144797 2.11598 -6.87743 0.144797 
2.11598 -6.87743 0.144797 2.11598 -6.87743 0.144797 2.11598 -6.87743 0.144797 
2.11598 -6.87743 0.144797 2.11598 -6.87743 0.144797 2.11598 -6.87743 0.144797 
2.11598 -6.87743 0.144797 2.11598 -6.87743 0.144797 2.11598 -6.87743 0.144797 
2.11598 -6.87743 0.144797 2.11598 -6.87743 0.144797 2.11598 -6.87743 0.144797 
2.11598 -6.87743 0.144797 2.11598 -6.87743 0.144797 2.11598 -6.87743 0.144797 
2.11598 -6.87743 0.144797 2.11598 -6.87743 0.144797 2.11598 -6.87743 0.144797 
2.11598 -6.87743 0.144797 2.11598 -6.87743 0.144797 2.11598 -6.87743 0.144797 
2.11598 -6.87743 0.144797 2.11598 -6.87743 0.144797 2.11598 -6.87743 0.144797 
2.11598 -6.87743 0.144797 2.11598 -6.87743 0.144797 2.11598 -6.87743 0.144797 
2.11598 -6.87743 0.144797 2.11598 -6.87743 0.144797 2.11598 -6.87743 0.144797 
2.11598 -6.87743 0.144797 2.11598 -6.87743 0.144797 2.11598 -6.87743 0.144797 
2.11598 -6.87743 0.144797 2.11598 -6.87743 0.144797 2.11598 -6.87743 0.144797 
2.11598 -6.87743 0.144797 2.11598 -6.87743 0.144797 2.11598 -6.87743 0.144797 
2.11598 -6.87743 0.144797 2.11598 -6.87743 0.144797 2.11598 -6.87743 0.144797 
2.11598 -6.87743 0.144797 2.11598 -6.87743 0.144797 2.11598 -6.87743 0.144797 
2.11598 -6.87743 0.144797 
