# vtk DataFile Version 4.0
Generated by LIGGGHTS
ASCII
DATASET POLYDATA
POINTS 100 float
-0.117288 -0.155833 0.0104468 -0.127155 -0.152394 0.0108595 -0.136994 -0.150896 0.0120713 
-0.124542 -0.1636 0.0101997 -0.110935 -0.164151 0.0111605 -0.132917 -0.160981 0.0104102 
-0.143529 -0.157133 0.0109239 -0.116878 -0.166891 0.00746341 -0.145779 -0.149029 0.0123068 
-0.120109 -0.145432 0.0128321 -0.130768 -0.169058 0.00817712 -0.14005 -0.162981 0.00946612 
-0.124999 -0.144585 0.0168897 -0.12565 -0.171899 0.0066193 -0.131212 -0.145108 0.0167459 
-0.136497 -0.166916 0.00805937 -0.117739 -0.168171 0.0135664 -0.14269 -0.146617 0.0180577 
-0.116166 -0.145817 0.00717506 -0.149695 -0.153803 0.010032 -0.120854 -0.148241 0.00420217 
-0.130036 -0.174403 0.00619722 -0.113332 -0.163092 0.00371016 -0.103674 -0.164117 0.0137541 
-0.107213 -0.158466 0.00830862 -0.121144 -0.148599 0.0180338 -0.108927 -0.160168 0.0170885 
-0.106093 -0.165633 0.0165821 -0.134173 -0.173106 0.00672761 -0.128646 -0.160167 0.0168342 
-0.137155 -0.171468 0.00713192 -0.110605 -0.169389 0.00577952 -0.133105 -0.147401 0.00481588 
-0.120794 -0.171665 0.00518863 -0.151374 -0.147995 0.0104124 -0.110101 -0.160931 0.0042583 
-0.141219 -0.168258 0.0077134 -0.121137 -0.171361 0.00869082 -0.146699 -0.162316 0.0085481 
-0.125529 -0.142512 0.011839 -0.137585 -0.157612 0.00589004 -0.122412 -0.168879 0.00374132 
-0.118444 -0.164766 0.0163455 -0.119235 -0.162837 0.00269107 -0.144678 -0.153398 0.0163549 
-0.149608 -0.158764 0.00900349 -0.106965 -0.154666 0.00926102 -0.128484 -0.142813 0.0130426 
-0.140957 -0.171333 0.00758623 -0.135557 -0.144617 0.0190017 -0.0463214 -0.124913 0.0103626 
-0.0563912 -0.122438 0.0117088 -0.066148 -0.12184 0.0139402 -0.0527144 -0.133353 0.0113099 
-0.0390987 -0.132512 0.0107666 -0.0612461 -0.131559 0.0123285 -0.0720849 -0.128744 0.0138385 
-0.0450855 -0.136037 0.0078969 -0.0750042 -0.120831 0.0150663 -0.049937 -0.114714 0.012537 
-0.0585197 -0.139506 0.0102668 -0.0681924 -0.1343 0.0122882 -0.0544286 -0.114107 0.0170702 
-0.0533295 -0.141921 0.00828652 -0.0605332 -0.115244 0.0176489 -0.06442 -0.137946 0.0106867 
-0.0451535 -0.137027 0.0141131 -0.0715877 -0.117787 0.0203102 -0.0466001 -0.11505 0.00649961 
-0.0786227 -0.126092 0.0134807 -0.0513006 -0.118096 0.00419262 -0.0574514 -0.144863 0.00848129 
-0.0423722 -0.132142 0.00358871 -0.0316467 -0.131612 0.012526 -0.0363129 -0.126671 0.00724111 
-0.0500777 -0.11765 0.0179705 -0.0368958 -0.128003 0.0162304 -0.0335795 -0.133185 0.0156778 
-0.0616209 -0.143948 0.0094076 -0.0564232 -0.129946 0.0181862 -0.0646969 -0.142588 0.0100627 
-0.0388018 -0.138006 0.00564539 -0.063437 -0.118423 0.00613253 -0.0487039 -0.141299 0.00631129 
-0.0808456 -0.120465 0.0137621 -0.0393437 -0.129646 0.00366517 -0.0689866 -0.139762 0.0109377 
-0.0487017 -0.140821 0.00981078 -0.0749344 -0.134346 0.0120891 -0.0557057 -0.112403 0.0120154 
-0.0666927 -0.12894 0.00820005 -0.0507478 -0.138777 0.00491974 -0.0459088 -0.133547 0.0167837 
-0.0483452 -0.132527 0.0032259 -0.0730307 -0.12482 0.0191746 -0.0781306 -0.131075 0.012693 
-0.0363603 -0.122815 0.00797257 -0.0584688 -0.11292 0.0135557 -0.0684218 -0.142799 0.0109327 
-0.0646414 -0.115046 0.0203505 
VERTICES 100 200
1 0 
1 1 
1 2 
1 3 
1 4 
1 5 
1 6 
1 7 
1 8 
1 9 
1 10 
1 11 
1 12 
1 13 
1 14 
1 15 
1 16 
1 17 
1 18 
1 19 
1 20 
1 21 
1 22 
1 23 
1 24 
1 25 
1 26 
1 27 
1 28 
1 29 
1 30 
1 31 
1 32 
1 33 
1 34 
1 35 
1 36 
1 37 
1 38 
1 39 
1 40 
1 41 
1 42 
1 43 
1 44 
1 45 
1 46 
1 47 
1 48 
1 49 
1 50 
1 51 
1 52 
1 53 
1 54 
1 55 
1 56 
1 57 
1 58 
1 59 
1 60 
1 61 
1 62 
1 63 
1 64 
1 65 
1 66 
1 67 
1 68 
1 69 
1 70 
1 71 
1 72 
1 73 
1 74 
1 75 
1 76 
1 77 
1 78 
1 79 
1 80 
1 81 
1 82 
1 83 
1 84 
1 85 
1 86 
1 87 
1 88 
1 89 
1 90 
1 91 
1 92 
1 93 
1 94 
1 95 
1 96 
1 97 
1 98 
1 99 

POINT_DATA 100
FIELD FieldData 7
id 1 100 int
1 2 3 4 5 6 7 8 9 
10 11 12 13 14 15 16 17 18 
19 20 21 22 23 24 25 26 27 
28 29 30 31 32 33 34 35 36 
37 38 39 40 41 42 43 44 45 
46 47 48 49 50 51 52 53 54 
55 56 57 58 59 60 61 62 63 
64 65 66 67 68 69 70 71 72 
73 74 75 76 77 78 79 80 81 
82 83 84 85 86 87 88 89 90 
91 92 93 94 95 96 97 98 99 
100 
mol 1 100 int
1 1 1 1 1 1 1 1 1 
1 1 1 1 1 1 1 1 1 
1 1 1 1 1 1 1 1 1 
1 1 1 1 1 1 1 1 1 
1 1 1 1 1 1 1 1 1 
1 1 1 1 1 2 2 2 2 
2 2 2 2 2 2 2 2 2 
2 2 2 2 2 2 2 2 2 
2 2 2 2 2 2 2 2 2 
2 2 2 2 2 2 2 2 2 
2 2 2 2 2 2 2 2 2 
2 
type 1 100 int
1 1 1 1 1 1 1 1 1 
1 1 1 1 1 1 1 1 1 
1 1 1 1 1 1 1 1 1 
1 1 1 1 1 1 1 1 1 
1 1 1 1 1 1 1 1 1 
1 1 1 1 1 1 1 1 1 
1 1 1 1 1 1 1 1 1 
1 1 1 1 1 1 1 1 1 
1 1 1 1 1 1 1 1 1 
1 1 1 1 1 1 1 1 1 
1 1 1 1 1 1 1 1 1 
1 
v 3 100 double
-0.0885166 -0.188389 0.108806 -0.0906373 -0.190177 0.0729996 -0.101075 -0.204795 0.00632391 
-0.0900423 -0.180875 -0.0826288 -0.0991688 -0.202947 0.0339651 -0.0907003 -0.18015 -0.117831 
-0.0935518 -0.183194 -0.153941 -0.0664299 -0.140742 -0.0647676 -0.102331 -0.20427 -0.0447117 
-0.105413 -0.225264 0.249602 -0.0740701 -0.145388 -0.227562 -0.0829769 -0.161516 -0.215663 
-0.142401 -0.287945 0.21812 -0.0611008 -0.12291 -0.225943 -0.141331 -0.282597 0.152459 
-0.0719359 -0.140695 -0.246019 -0.123315 -0.238201 -0.0932295 -0.154163 -0.298015 0.0224436 
-0.0534536 -0.136467 0.279778 -0.0836994 -0.16587 -0.157367 -0.027236 -0.0864923 0.197686 
-0.0584361 -0.113993 -0.30653 -0.0299721 -0.0822845 0.0288453 -0.12306 -0.248097 0.101433 
-0.0700961 -0.15903 0.159446 -0.154913 -0.308182 0.189269 -0.151864 -0.299004 0.116349 
-0.149871 -0.292269 0.0548255 -0.0626906 -0.120474 -0.323879 -0.149519 -0.28527 -0.0654035 
-0.0656154 -0.125498 -0.325091 -0.052131 -0.116808 -0.0470107 -0.0324818 -0.0903365 0.0982335 
-0.0477981 -0.102342 -0.177423 -0.0843625 -0.171149 -0.0797057 -0.0339666 -0.0926574 0.0932942 
-0.0694039 -0.132834 -0.311074 -0.0799333 -0.158343 -0.17572 -0.0741889 -0.143537 -0.266294 
-0.0948284 -0.206683 0.246478 -0.047383 -0.10537 -0.106821 -0.0330926 -0.0783381 -0.147663 
-0.147266 -0.282426 -0.0451289 -0.0204531 -0.0630497 -0.021482 -0.141787 -0.269733 -0.104637 
-0.0766477 -0.149417 -0.236138 -0.0770148 -0.174427 0.222684 -0.106071 -0.224539 0.2144 
-0.0697373 -0.130923 -0.357975 -0.161886 -0.316648 0.120276 -0.028168 -0.194161 0.0431926 
-0.0300413 -0.204194 0.0476257 -0.0383366 -0.231096 0.0185654 -0.0445684 -0.202247 -0.13954 
-0.0410863 -0.212346 -0.0679185 -0.0461015 -0.208488 -0.141384 -0.0481448 -0.220417 -0.133813 
-0.0345004 -0.150294 -0.157888 -0.0414753 -0.238849 0.000831327 -0.0220076 -0.229103 0.21733 
-0.0493907 -0.174315 -0.277461 -0.0499967 -0.19745 -0.220779 -0.0397616 -0.306466 0.210099 
-0.0448192 -0.145303 -0.300856 -0.0438257 -0.308147 0.163921 -0.0488072 -0.173357 -0.272823 
-0.0615442 -0.2654 -0.176508 -0.0585441 -0.341095 0.0712914 0.00233682 -0.122154 0.224834 
-0.0427454 -0.204102 -0.111578 0.00731846 -0.0724346 0.149054 -0.0499785 -0.142807 -0.372339 
-0.0110036 -0.0744677 -0.074535 -0.0469931 -0.255993 -0.0205806 -0.0179284 -0.151135 0.051789 
-0.0487132 -0.329597 0.162352 -0.0568896 -0.316873 0.0247087 -0.062292 -0.311543 -0.057687 
-0.0524351 -0.153798 -0.372544 -0.067816 -0.324195 -0.0916587 -0.0531157 -0.161382 -0.359994 
-0.028153 -0.117874 -0.168528 -0.0011484 -0.0904097 0.0930513 -0.0357705 -0.115547 -0.270297 
-0.035567 -0.206024 -0.0164271 -0.00762025 -0.080371 -0.0158064 -0.0525309 -0.171246 -0.325276 
-0.049462 -0.180408 -0.26143 -0.0492448 -0.183774 -0.24936 -0.0164379 -0.210892 0.236428 
-0.0252345 -0.123905 -0.115259 -0.0263086 -0.0867294 -0.231963 -0.0673784 -0.313777 -0.115122 
-0.0100815 -0.0588959 -0.106253 -0.0642897 -0.317912 -0.0649904 -0.046884 -0.190231 -0.201888 
-0.0152255 -0.164621 0.123067 -0.0235407 -0.235345 0.215487 -0.0570082 -0.171989 -0.37923 
-0.0546487 -0.352131 0.150687 
f 3 100 double
0 0 0 0 0 0 0 0 0 
0 0 0 0 0 0 0 0 0 
0 0 0 0 0 0 0 0 0 
0 0 0 0 0 0 0 0 0 
0 0 0 0 0 0 0 0 0 
0 0 0 0 0 0 0 0 0 
0 0 0 0 0 0 0 0 0 
0 0 0 0 0 0 0 0 0 
0 0 0 0 0 0 0 0 0 
0 0 0 0 0 0 0 0 0 
0 0 0 0 0 0 0 0 0 
0 0 0 0 0 0 0 0 0 
0 0 0 0 0 0 0 0 0 
0 0 0 0 0 0 0 0 0 
0 0 0 -0.420185 0.50123 2.22396 0 0 0 
0 0 0 0 0 0 0 0 0 
0 0 0 0 0 0 -0.199215 0.0182886 -0.113512 
0 0 0 0 0 0 0 0 0 
0 0 0 0 0 0 0 0 0 
0 0 0 0 0 0 0 0 0 
0 0 0 0 0 0 0 0 0 
0 0 0 0 0 0 0 0 0 
0 0 0 0 0 0 0 0 0 
0 0 0 0 0 0 0 0 0 
-0.0330307 0.0780434 0.959126 0 0 0 0 0 0 
0 0 0 0 0 0 0 0 0 
0 0 0 0 0 0 0 0 0 
0 0 0 0 0 0 0 0 0 
0 0 0 0 0 0 0 0 0 
0 0 0 0 0 0 0 0 0 
0 0 0 0 0 0 0 0 0 
0 0 0 0 0 0 0 0 0 
0 0 0 0 0 0 0 0 0 
0 0 0 
radius 1 100 double
0.010434 0.00981478 0.00892069 0.00845937 0.00731974 0.00728422 0.00643447 0.00619172 0.00585956 
0.00577566 0.00537241 0.00522549 0.00513666 0.00473175 0.00466912 0.00444866 0.00441894 0.00400812 
0.00385622 0.00379948 0.00370243 0.00366942 0.00364039 0.00363813 0.00363644 0.00358692 0.0035797 
0.00341284 0.00337012 0.00336273 0.00332772 0.00323261 0.00320584 0.00320311 0.00318808 0.00313116 
0.00306026 0.00305632 0.00304383 0.00300958 0.00300137 0.00298994 0.0029567 0.00295111 0.00290849 
0.00284552 0.00282964 0.0028207 0.00281971 0.00281899 0.010434 0.00981478 0.00892069 0.00845937 
0.00731974 0.00728422 0.00643447 0.00619172 0.00585956 0.00577566 0.00537241 0.00522549 0.00513666 
0.00473175 0.00466912 0.00444866 0.00441894 0.00400812 0.00385622 0.00379948 0.00370243 0.00366942 
0.00364039 0.00363813 0.00363644 0.00358692 0.0035797 0.00341284 0.00337012 0.00336273 0.00332772 
0.00323261 0.00320584 0.00320311 0.00318808 0.00313116 0.00306026 0.00305632 0.00304383 0.00300958 
0.00300137 0.00298994 0.0029567 0.00295111 0.00290849 0.00284552 0.00282964 0.0028207 0.00281971 
0.00281899 
omega 3 100 double
16.038 -9.21814 -0.489632 16.038 -9.21814 -0.489632 16.038 -9.21814 -0.489632 
16.038 -9.21814 -0.489632 16.038 -9.21814 -0.489632 16.038 -9.21814 -0.489632 
16.038 -9.21814 -0.489632 16.038 -9.21814 -0.489632 16.038 -9.21814 -0.489632 
16.038 -9.21814 -0.489632 16.038 -9.21814 -0.489632 16.038 -9.21814 -0.489632 
16.038 -9.21814 -0.489632 16.038 -9.21814 -0.489632 16.038 -9.21814 -0.489632 
16.038 -9.21814 -0.489632 16.038 -9.21814 -0.489632 16.038 -9.21814 -0.489632 
16.038 -9.21814 -0.489632 16.038 -9.21814 -0.489632 16.038 -9.21814 -0.489632 
16.038 -9.21814 -0.489632 16.038 -9.21814 -0.489632 16.038 -9.21814 -0.489632 
16.038 -9.21814 -0.489632 16.038 -9.21814 -0.489632 16.038 -9.21814 -0.489632 
16.038 -9.21814 -0.489632 16.038 -9.21814 -0.489632 16.038 -9.21814 -0.489632 
16.038 -9.21814 -0.489632 16.038 -9.21814 -0.489632 16.038 -9.21814 -0.489632 
16.038 -9.21814 -0.489632 16.038 -9.21814 -0.489632 16.038 -9.21814 -0.489632 
16.038 -9.21814 -0.489632 16.038 -9.21814 -0.489632 16.038 -9.21814 -0.489632 
16.038 -9.21814 -0.489632 16.038 -9.21814 -0.489632 16.038 -9.21814 -0.489632 
16.038 -9.21814 -0.489632 16.038 -9.21814 -0.489632 16.038 -9.21814 -0.489632 
16.038 -9.21814 -0.489632 16.038 -9.21814 -0.489632 16.038 -9.21814 -0.489632 
16.038 -9.21814 -0.489632 16.038 -9.21814 -0.489632 18.5333 -4.11473 -1.4813 
18.5333 -4.11473 -1.4813 18.5333 -4.11473 -1.4813 18.5333 -4.11473 -1.4813 
18.5333 -4.11473 -1.4813 18.5333 -4.11473 -1.4813 18.5333 -4.11473 -1.4813 
18.5333 -4.11473 -1.4813 18.5333 -4.11473 -1.4813 18.5333 -4.11473 -1.4813 
18.5333 -4.11473 -1.4813 18.5333 -4.11473 -1.4813 18.5333 -4.11473 -1.4813 
18.5333 -4.11473 -1.4813 18.5333 -4.11473 -1.4813 18.5333 -4.11473 -1.4813 
18.5333 -4.11473 -1.4813 18.5333 -4.11473 -1.4813 18.5333 -4.11473 -1.4813 
18.5333 -4.11473 -1.4813 18.5333 -4.11473 -1.4813 18.5333 -4.11473 -1.4813 
18.5333 -4.11473 -1.4813 18.5333 -4.11473 -1.4813 18.5333 -4.11473 -1.4813 
18.5333 -4.11473 -1.4813 18.5333 -4.11473 -1.4813 18.5333 -4.11473 -1.4813 
18.5333 -4.11473 -1.4813 18.5333 -4.11473 -1.4813 18.5333 -4.11473 -1.4813 
18.5333 -4.11473 -1.4813 18.5333 -4.11473 -1.4813 18.5333 -4.11473 -1.4813 
18.5333 -4.11473 -1.4813 18.5333 -4.11473 -1.4813 18.5333 -4.11473 -1.4813 
18.5333 -4.11473 -1.4813 18.5333 -4.11473 -1.4813 18.5333 -4.11473 -1.4813 
18.5333 -4.11473 -1.4813 18.5333 -4.11473 -1.4813 18.5333 -4.11473 -1.4813 
18.5333 -4.11473 -1.4813 18.5333 -4.11473 -1.4813 18.5333 -4.11473 -1.4813 
18.5333 -4.11473 -1.4813 18.5333 -4.11473 -1.4813 18.5333 -4.11473 -1.4813 
18.5333 -4.11473 -1.4813 
