# vtk DataFile Version 4.0
Generated by LIGGGHTS
ASCII
DATASET POLYDATA
POINTS 100 float
-0.117687 -0.133849 0.0172865 -0.127048 -0.134769 0.0127187 -0.136733 -0.135141 0.0101505 
-0.125518 -0.136326 0.0240347 -0.11247 -0.133049 0.0263535 -0.133469 -0.13728 0.0204388 
-0.143535 -0.138183 0.015385 -0.117853 -0.138047 0.0279495 -0.145165 -0.136236 0.00724871 
-0.11983 -0.130742 0.0069151 -0.131773 -0.140072 0.0284498 -0.14046 -0.139709 0.0214384 
-0.125288 -0.12754 0.00588872 -0.126771 -0.141037 0.0317262 -0.131381 -0.128843 0.00562498 
-0.137126 -0.140938 0.0256174 -0.119981 -0.132397 0.0297283 -0.142993 -0.129777 0.00583383 
-0.114946 -0.135616 0.00720515 -0.149046 -0.139735 0.0112471 -0.119208 -0.139646 0.00871793 
-0.13123 -0.142532 0.0336146 -0.113289 -0.140619 0.0242551 -0.105868 -0.129229 0.0274787 
-0.107713 -0.134479 0.0209098 -0.122151 -0.126234 0.0104433 -0.111226 -0.126416 0.0232725 
-0.108921 -0.127081 0.0289652 -0.135238 -0.142587 0.0318791 -0.130433 -0.130152 0.0208152 
-0.138059 -0.142518 0.0299354 -0.111663 -0.138889 0.0310176 -0.131201 -0.14111 0.00644126 
-0.121733 -0.141547 0.0319479 -0.150163 -0.138948 0.00534613 -0.110017 -0.139247 0.022575 
-0.141808 -0.142275 0.0263255 -0.122701 -0.13815 0.0319627 -0.14671 -0.1417 0.0198693 
-0.124635 -0.132311 0.00326319 -0.136824 -0.142106 0.0160778 -0.122754 -0.142905 0.0288512 
-0.120849 -0.129389 0.0265633 -0.118834 -0.142627 0.0231719 -0.145305 -0.132624 0.0121095 
-0.149273 -0.141333 0.0160512 -0.107262 -0.133038 0.017286 -0.12778 -0.131696 0.0033191 
-0.141843 -0.14273 0.0293802 -0.136002 -0.127348 0.00483425 -0.0488032 -0.106167 0.0169096 
-0.0580327 -0.107022 0.01207 -0.0676434 -0.107392 0.00923604 -0.0567881 -0.108904 0.0233717 
-0.0438326 -0.105598 0.0261314 -0.064633 -0.109811 0.0195397 -0.0745549 -0.11064 0.0141962 
-0.0492137 -0.110682 0.0274359 -0.0759868 -0.108464 0.00608064 -0.0506986 -0.10277 0.00658119 
-0.063125 -0.112827 0.027507 -0.0716269 -0.112322 0.0202814 -0.0561543 -0.0995807 0.00550538 
-0.0582024 -0.113851 0.0308849 -0.0622271 -0.100922 0.00504183 -0.068394 -0.113648 0.0245093 
-0.0514358 -0.105103 0.0293236 -0.0738323 -0.10195 0.00491506 -0.0457831 -0.107613 0.00685667 
-0.0799417 -0.112111 0.00986973 -0.0500492 -0.111719 0.00813635 -0.0626967 -0.115435 0.0326095 
-0.0445327 -0.113108 0.0237895 -0.0372957 -0.101762 0.0275434 -0.0389228 -0.106829 0.0207758 
-0.0531496 -0.0983865 0.0101781 -0.0425641 -0.0988672 0.0232815 -0.0404047 -0.0996828 0.0290112 
-0.0666571 -0.115469 0.0307675 -0.0616684 -0.102674 0.0202066 -0.0694266 -0.115364 0.0287525 
-0.0431002 -0.111567 0.0306408 -0.0619658 -0.113206 0.00550027 -0.0531685 -0.114329 0.031225 
-0.0809102 -0.111157 0.003967 -0.0412295 -0.111662 0.022238 -0.0730821 -0.115042 0.0250532 
-0.0541652 -0.110941 0.0313143 -0.0778173 -0.114312 0.0184891 -0.055393 -0.104267 0.00275841 
-0.0678321 -0.114531 0.0149507 -0.0540961 -0.115601 0.0280636 -0.0522451 -0.10201 0.0262268 
-0.0500308 -0.115125 0.0225009 -0.0762847 -0.105 0.0110404 -0.0802818 -0.113852 0.0146168 
-0.0383889 -0.105278 0.0172094 -0.0585434 -0.103677 0.00274906 -0.0731934 -0.115588 0.0280912 
-0.0668383 -0.0994395 0.00417329 
VERTICES 100 200
1 0 
1 1 
1 2 
1 3 
1 4 
1 5 
1 6 
1 7 
1 8 
1 9 
1 10 
1 11 
1 12 
1 13 
1 14 
1 15 
1 16 
1 17 
1 18 
1 19 
1 20 
1 21 
1 22 
1 23 
1 24 
1 25 
1 26 
1 27 
1 28 
1 29 
1 30 
1 31 
1 32 
1 33 
1 34 
1 35 
1 36 
1 37 
1 38 
1 39 
1 40 
1 41 
1 42 
1 43 
1 44 
1 45 
1 46 
1 47 
1 48 
1 49 
1 50 
1 51 
1 52 
1 53 
1 54 
1 55 
1 56 
1 57 
1 58 
1 59 
1 60 
1 61 
1 62 
1 63 
1 64 
1 65 
1 66 
1 67 
1 68 
1 69 
1 70 
1 71 
1 72 
1 73 
1 74 
1 75 
1 76 
1 77 
1 78 
1 79 
1 80 
1 81 
1 82 
1 83 
1 84 
1 85 
1 86 
1 87 
1 88 
1 89 
1 90 
1 91 
1 92 
1 93 
1 94 
1 95 
1 96 
1 97 
1 98 
1 99 

POINT_DATA 100
FIELD FieldData 7
id 1 100 int
1 2 3 4 5 6 7 8 9 
10 11 12 13 14 15 16 17 18 
19 20 21 22 23 24 25 26 27 
28 29 30 31 32 33 34 35 36 
37 38 39 40 41 42 43 44 45 
46 47 48 49 50 51 52 53 54 
55 56 57 58 59 60 61 62 63 
64 65 66 67 68 69 70 71 72 
73 74 75 76 77 78 79 80 81 
82 83 84 85 86 87 88 89 90 
91 92 93 94 95 96 97 98 99 
100 
mol 1 100 int
1 1 1 1 1 1 1 1 1 
1 1 1 1 1 1 1 1 1 
1 1 1 1 1 1 1 1 1 
1 1 1 1 1 1 1 1 1 
1 1 1 1 1 1 1 1 1 
1 1 1 1 1 2 2 2 2 
2 2 2 2 2 2 2 2 2 
2 2 2 2 2 2 2 2 2 
2 2 2 2 2 2 2 2 2 
2 2 2 2 2 2 2 2 2 
2 2 2 2 2 2 2 2 2 
2 
type 1 100 int
1 1 1 1 1 1 1 1 1 
1 1 1 1 1 1 1 1 1 
1 1 1 1 1 1 1 1 1 
1 1 1 1 1 1 1 1 1 
1 1 1 1 1 1 1 1 1 
1 1 1 1 1 1 1 1 1 
1 1 1 1 1 1 1 1 1 
1 1 1 1 1 1 1 1 1 
1 1 1 1 1 1 1 1 1 
1 1 1 1 1 1 1 1 1 
1 1 1 1 1 1 1 1 1 
1 
v 3 100 double
-0.134681 -0.0652654 -0.351254 -0.101643 -0.0629578 -0.419423 -0.0831337 -0.0636802 -0.489119 
-0.181737 -0.078567 -0.410747 -0.199791 -0.0759489 -0.312845 -0.155624 -0.077016 -0.468893 
-0.119123 -0.0743303 -0.542074 -0.208905 -0.0807075 -0.358487 -0.0619127 -0.0633495 -0.550908 
-0.0620396 -0.0512975 -0.362076 -0.211553 -0.0877864 -0.460809 -0.161652 -0.0816493 -0.522313 
-0.0561728 -0.0523112 -0.396436 -0.234509 -0.0902232 -0.426478 -0.0536942 -0.0547139 -0.441823 
-0.190932 -0.0861492 -0.500278 -0.224188 -0.0842432 -0.365544 -0.054759 -0.0603183 -0.526088 
-0.0618846 -0.0494849 -0.334225 -0.0888661 -0.070884 -0.583662 -0.0708466 -0.0536115 -0.370465 
-0.24731 -0.094981 -0.460472 -0.18135 -0.0732989 -0.329603 -0.209571 -0.0745556 -0.260201 
-0.160266 -0.0659314 -0.280939 -0.0892926 -0.0574423 -0.372156 -0.18082 -0.0709409 -0.294405 
-0.221167 -0.0780921 -0.278907 -0.234893 -0.0943106 -0.489171 -0.161567 -0.0761721 -0.436945 
-0.221044 -0.0927979 -0.509217 -0.230429 -0.0823021 -0.315502 -0.0539207 -0.0558081 -0.458216 
-0.235859 -0.0882421 -0.391241 -0.0470879 -0.0628904 -0.590506 -0.169979 -0.0693835 -0.304262 
-0.195378 -0.0893083 -0.535643 -0.237516 -0.0887055 -0.393259 -0.149538 -0.082243 -0.569817 
-0.0352451 -0.0482294 -0.398653 -0.122278 -0.0722638 -0.499809 -0.213126 -0.0842455 -0.400487 
-0.202961 -0.0800784 -0.367406 -0.172698 -0.0742707 -0.372095 -0.0982719 -0.0704183 -0.546702 
-0.122441 -0.077911 -0.587589 -0.135048 -0.0605033 -0.275643 -0.0359256 -0.0497464 -0.420224 
-0.216983 -0.0937263 -0.536547 -0.0487305 -0.055685 -0.472668 -0.152818 -0.121278 0.162058 
-0.106721 -0.102575 0.0708444 -0.0799513 -0.0988159 -0.0204294 -0.207738 -0.180978 0.0689155 
-0.238843 -0.178488 0.211958 -0.170844 -0.167087 -0.0099011 -0.120145 -0.145979 -0.107314 
-0.242181 -0.196986 0.126103 -0.0490168 -0.0905992 -0.105017 -0.0633701 -0.0509229 0.168787 
-0.239168 -0.22128 -0.0174842 -0.173392 -0.184333 -0.0922954 -0.0589016 -0.0525865 0.141194 
-0.268572 -0.236933 0.0206213 -0.0523329 -0.0596679 0.0756287 -0.210116 -0.20893 -0.0719322 
-0.269131 -0.214236 0.145362 -0.0494055 -0.0786095 -0.0387309 -0.0576285 -0.0444805 0.179609 
-0.0777275 -0.124361 -0.167476 -0.0624108 -0.060894 0.111011 -0.281768 -0.256906 -0.0321186 
-0.204402 -0.162998 0.151988 -0.258425 -0.177372 0.299579 -0.187345 -0.131932 0.248472 
-0.104039 -0.0807441 0.177415 -0.224069 -0.156013 0.271618 -0.275518 -0.193147 0.285724 
-0.264722 -0.250553 -0.0688843 -0.1892 -0.16677 0.0682965 -0.246317 -0.240931 -0.0936793 
-0.270225 -0.209368 0.176179 -0.035556 -0.0624877 -0.00948916 -0.270891 -0.230748 0.0636449 
-0.0249185 -0.0839571 -0.169611 -0.192565 -0.146295 0.192758 -0.21275 -0.220823 -0.125101 
-0.277507 -0.233088 0.078589 -0.153457 -0.182147 -0.163574 -0.0255532 -0.0317108 0.114824 
-0.12045 -0.139859 -0.0730367 -0.239558 -0.209807 0.0460206 -0.245859 -0.193554 0.159938 
-0.189068 -0.163218 0.0869084 -0.100684 -0.12645 -0.0830789 -0.118531 -0.158769 -0.183024 
-0.157105 -0.105606 0.264448 -0.0264755 -0.0370315 0.0899701 -0.239834 -0.24266 -0.130018 
-0.0468574 -0.0613643 0.0436628 
f 3 100 double
0 0 0 0 0 0 0 0 0 
0 0 0 0 0 0 0 0 0 
0 0 0 0 0 0 0 0 0 
0 0 0 0 0 0 0 0 0 
0 0 0 0 0 0 0 0 0 
0 0 0 0 0 0 0 0 0 
0 0 0 0 0 0 0 0 0 
0 0 0 0 0 0 0 0 0 
0 0 0 0 0 0 0 0 0 
0 0 0 0 0 0 0 0 0 
0 0 0 0 0 0 0 0 0 
0 0 0 0 0 0 0 0 0 
0 0 0 0 0 0 0 0 0 
0 0 0 0 0 0 0 0 0 
0 0 0 0 0 0 0 0 0 
0 0 0 0 0 0 0 0 0 
0 0 0 0 0 0 0 0 0 
0 0 0 0 0 0 0 0 0 
0 0 0 0 0 0 0 0 0 
0 0 0 0 0 0 0 0 0 
0 0 0 0 0 0 0 0 0 
0 0 0 0 0 0 0 0 0 
0 0 0 0 0 0 0 0 0 
0 0 0 0 0 0 0 0 0 
0 0 0 0 0 0 0 0 0 
0 0 0 0 0 0 0 0 0 
0 0 0 0 0 0 0 0 0 
0 0 0 0 0 0 0 0 0 
0 0 0 0 0 0 0 0 0 
0 0 0 0 0 0 -0.0361684 -0.0621373 0.143794 
0 0 0 0 0 0 0 0 0 
0 0 0 0 0 0 0 0 0 
0 0 0 0.00445613 0.239605 -0.67852 0 0 0 
0 0 0 
radius 1 100 double
0.010434 0.00981478 0.00892069 0.00845937 0.00731974 0.00728422 0.00643447 0.00619172 0.00585956 
0.00577566 0.00537241 0.00522549 0.00513666 0.00473175 0.00466912 0.00444866 0.00441894 0.00400812 
0.00385622 0.00379948 0.00370243 0.00366942 0.00364039 0.00363813 0.00363644 0.00358692 0.0035797 
0.00341284 0.00337012 0.00336273 0.00332772 0.00323261 0.00320584 0.00320311 0.00318808 0.00313116 
0.00306026 0.00305632 0.00304383 0.00300958 0.00300137 0.00298994 0.0029567 0.00295111 0.00290849 
0.00284552 0.00282964 0.0028207 0.00281971 0.00281899 0.010434 0.00981478 0.00892069 0.00845937 
0.00731974 0.00728422 0.00643447 0.00619172 0.00585956 0.00577566 0.00537241 0.00522549 0.00513666 
0.00473175 0.00466912 0.00444866 0.00441894 0.00400812 0.00385622 0.00379948 0.00370243 0.00366942 
0.00364039 0.00363813 0.00363644 0.00358692 0.0035797 0.00341284 0.00337012 0.00336273 0.00332772 
0.00323261 0.00320584 0.00320311 0.00318808 0.00313116 0.00306026 0.00305632 0.00304383 0.00300958 
0.00300137 0.00298994 0.0029567 0.00295111 0.00290849 0.00284552 0.00282964 0.0028207 0.00281971 
0.00281899 
omega 3 100 double
1.44111 -7.1408 0.456722 1.44111 -7.1408 0.456722 1.44111 -7.1408 0.456722 
1.44111 -7.1408 0.456722 1.44111 -7.1408 0.456722 1.44111 -7.1408 0.456722 
1.44111 -7.1408 0.456722 1.44111 -7.1408 0.456722 1.44111 -7.1408 0.456722 
1.44111 -7.1408 0.456722 1.44111 -7.1408 0.456722 1.44111 -7.1408 0.456722 
1.44111 -7.1408 0.456722 1.44111 -7.1408 0.456722 1.44111 -7.1408 0.456722 
1.44111 -7.1408 0.456722 1.44111 -7.1408 0.456722 1.44111 -7.1408 0.456722 
1.44111 -7.1408 0.456722 1.44111 -7.1408 0.456722 1.44111 -7.1408 0.456722 
1.44111 -7.1408 0.456722 1.44111 -7.1408 0.456722 1.44111 -7.1408 0.456722 
1.44111 -7.1408 0.456722 1.44111 -7.1408 0.456722 1.44111 -7.1408 0.456722 
1.44111 -7.1408 0.456722 1.44111 -7.1408 0.456722 1.44111 -7.1408 0.456722 
1.44111 -7.1408 0.456722 1.44111 -7.1408 0.456722 1.44111 -7.1408 0.456722 
1.44111 -7.1408 0.456722 1.44111 -7.1408 0.456722 1.44111 -7.1408 0.456722 
1.44111 -7.1408 0.456722 1.44111 -7.1408 0.456722 1.44111 -7.1408 0.456722 
1.44111 -7.1408 0.456722 1.44111 -7.1408 0.456722 1.44111 -7.1408 0.456722 
1.44111 -7.1408 0.456722 1.44111 -7.1408 0.456722 1.44111 -7.1408 0.456722 
1.44111 -7.1408 0.456722 1.44111 -7.1408 0.456722 1.44111 -7.1408 0.456722 
1.44111 -7.1408 0.456722 1.44111 -7.1408 0.456722 7.12558 -9.22287 1.71 
7.12558 -9.22287 1.71 7.12558 -9.22287 1.71 7.12558 -9.22287 1.71 
7.12558 -9.22287 1.71 7.12558 -9.22287 1.71 7.12558 -9.22287 1.71 
7.12558 -9.22287 1.71 7.12558 -9.22287 1.71 7.12558 -9.22287 1.71 
7.12558 -9.22287 1.71 7.12558 -9.22287 1.71 7.12558 -9.22287 1.71 
7.12558 -9.22287 1.71 7.12558 -9.22287 1.71 7.12558 -9.22287 1.71 
7.12558 -9.22287 1.71 7.12558 -9.22287 1.71 7.12558 -9.22287 1.71 
7.12558 -9.22287 1.71 7.12558 -9.22287 1.71 7.12558 -9.22287 1.71 
7.12558 -9.22287 1.71 7.12558 -9.22287 1.71 7.12558 -9.22287 1.71 
7.12558 -9.22287 1.71 7.12558 -9.22287 1.71 7.12558 -9.22287 1.71 
7.12558 -9.22287 1.71 7.12558 -9.22287 1.71 7.12558 -9.22287 1.71 
7.12558 -9.22287 1.71 7.12558 -9.22287 1.71 7.12558 -9.22287 1.71 
7.12558 -9.22287 1.71 7.12558 -9.22287 1.71 7.12558 -9.22287 1.71 
7.12558 -9.22287 1.71 7.12558 -9.22287 1.71 7.12558 -9.22287 1.71 
7.12558 -9.22287 1.71 7.12558 -9.22287 1.71 7.12558 -9.22287 1.71 
7.12558 -9.22287 1.71 7.12558 -9.22287 1.71 7.12558 -9.22287 1.71 
7.12558 -9.22287 1.71 7.12558 -9.22287 1.71 7.12558 -9.22287 1.71 
7.12558 -9.22287 1.71 
