# vtk DataFile Version 4.0
Generated by LIGGGHTS
ASCII
DATASET POLYDATA
POINTS 100 float
-0.12016 -0.139132 0.0179423 -0.129199 -0.138496 0.0127234 -0.138686 -0.137807 0.00955363 
-0.128509 -0.142853 0.0233702 -0.115572 -0.140813 0.0272265 -0.13621 -0.14255 0.019169 
-0.145917 -0.141747 0.0134412 -0.121185 -0.145813 0.027198 -0.14692 -0.13779 0.00595901 
-0.121487 -0.13348 0.00855587 -0.135155 -0.147297 0.0263243 -0.143316 -0.144846 0.0191031 
-0.126772 -0.129892 0.00802358 -0.130422 -0.149253 0.0295592 -0.132864 -0.130826 0.00707099 
-0.140317 -0.147207 0.0230427 -0.123282 -0.140687 0.03019 -0.144483 -0.131282 0.00632817 
-0.116766 -0.138482 0.00792577 -0.151163 -0.141995 0.00871719 -0.121229 -0.142573 0.00812604 
-0.135041 -0.150973 0.0307398 -0.116443 -0.147592 0.023268 -0.108967 -0.137675 0.0296682 
-0.110485 -0.141063 0.021901 -0.123929 -0.129883 0.0129435 -0.113939 -0.133686 0.0259713 
-0.112059 -0.135829 0.0314511 -0.138917 -0.150426 0.0288025 -0.13302 -0.135871 0.0214892 
-0.141592 -0.14976 0.0267673 -0.11525 -0.14765 0.0303349 -0.133068 -0.142913 0.00482538 
-0.125428 -0.150018 0.0299562 -0.151843 -0.139733 0.00313941 -0.113026 -0.145991 0.0221854 
-0.145072 -0.148475 0.0231077 -0.126304 -0.146691 0.0307544 -0.149491 -0.146118 0.0167082 
-0.126064 -0.133895 0.00434067 -0.139378 -0.146006 0.0135487 -0.126265 -0.150527 0.0265627 
-0.123845 -0.13696 0.0278237 -0.12195 -0.14903 0.0213819 -0.147304 -0.135482 0.0115463 
-0.151769 -0.144714 0.0129507 -0.109743 -0.138797 0.0187831 -0.129188 -0.133177 0.00435455 
-0.145333 -0.149666 0.0259456 -0.137377 -0.128985 0.00639403 -0.0514524 -0.111039 0.0175491 
-0.0606008 -0.110482 0.0125158 -0.070165 -0.110074 0.00953393 -0.0594844 -0.115679 0.0227416 
-0.0466183 -0.113234 0.0265981 -0.0672614 -0.115464 0.0186771 -0.0770956 -0.114737 0.0131594 
-0.0519413 -0.118527 0.0262115 -0.0784475 -0.110224 0.00605599 -0.0532552 -0.104698 0.00869741 
-0.0658191 -0.120731 0.0253867 -0.0742272 -0.11815 0.0185029 -0.0587421 -0.101387 0.00853926 
-0.0609289 -0.122679 0.0283838 -0.0647875 -0.102585 0.00758559 -0.0710336 -0.12066 0.0221889 
-0.0542711 -0.113802 0.0296565 -0.0763734 -0.103642 0.00695018 -0.0482732 -0.109349 0.00758362 
-0.0823999 -0.114884 0.00849669 -0.0524955 -0.113691 0.00748849 -0.0654226 -0.124755 0.02947 
-0.0471752 -0.119692 0.0220855 -0.0401587 -0.10994 0.0292174 -0.0416176 -0.11274 0.0212082 
-0.05582 -0.101631 0.0134065 -0.04541 -0.105944 0.0259369 -0.0433179 -0.108432 0.0311897 
-0.0693564 -0.12427 0.0276345 -0.064412 -0.108833 0.0215204 -0.0720991 -0.123588 0.025697 
-0.04586 -0.120279 0.0291063 -0.0643514 -0.11443 0.00431734 -0.0558937 -0.123187 0.0286522 
-0.083301 -0.112201 0.00314161 -0.0438726 -0.117812 0.0211015 -0.0757077 -0.1222 0.0222039 
-0.0569413 -0.119996 0.0297428 -0.0803623 -0.119567 0.0160845 -0.057874 -0.105016 0.00451909 
-0.0703271 -0.118607 0.0128215 -0.0567588 -0.123454 0.0252382 -0.0550833 -0.109926 0.0276248 
-0.0526247 -0.121279 0.0201515 -0.0788647 -0.108424 0.0118244 -0.0827797 -0.117983 0.0124893 
-0.0410575 -0.110178 0.0182867 -0.0610324 -0.104482 0.00463292 -0.0758527 -0.123639 0.0249326 
-0.0694077 -0.100955 0.00712437 
VERTICES 100 200
1 0 
1 1 
1 2 
1 3 
1 4 
1 5 
1 6 
1 7 
1 8 
1 9 
1 10 
1 11 
1 12 
1 13 
1 14 
1 15 
1 16 
1 17 
1 18 
1 19 
1 20 
1 21 
1 22 
1 23 
1 24 
1 25 
1 26 
1 27 
1 28 
1 29 
1 30 
1 31 
1 32 
1 33 
1 34 
1 35 
1 36 
1 37 
1 38 
1 39 
1 40 
1 41 
1 42 
1 43 
1 44 
1 45 
1 46 
1 47 
1 48 
1 49 
1 50 
1 51 
1 52 
1 53 
1 54 
1 55 
1 56 
1 57 
1 58 
1 59 
1 60 
1 61 
1 62 
1 63 
1 64 
1 65 
1 66 
1 67 
1 68 
1 69 
1 70 
1 71 
1 72 
1 73 
1 74 
1 75 
1 76 
1 77 
1 78 
1 79 
1 80 
1 81 
1 82 
1 83 
1 84 
1 85 
1 86 
1 87 
1 88 
1 89 
1 90 
1 91 
1 92 
1 93 
1 94 
1 95 
1 96 
1 97 
1 98 
1 99 

POINT_DATA 100
FIELD FieldData 7
id 1 100 int
1 2 3 4 5 6 7 8 9 
10 11 12 13 14 15 16 17 18 
19 20 21 22 23 24 25 26 27 
28 29 30 31 32 33 34 35 36 
37 38 39 40 41 42 43 44 45 
46 47 48 49 50 51 52 53 54 
55 56 57 58 59 60 61 62 63 
64 65 66 67 68 69 70 71 72 
73 74 75 76 77 78 79 80 81 
82 83 84 85 86 87 88 89 90 
91 92 93 94 95 96 97 98 99 
100 
mol 1 100 int
1 1 1 1 1 1 1 1 1 
1 1 1 1 1 1 1 1 1 
1 1 1 1 1 1 1 1 1 
1 1 1 1 1 1 1 1 1 
1 1 1 1 1 1 1 1 1 
1 1 1 1 1 2 2 2 2 
2 2 2 2 2 2 2 2 2 
2 2 2 2 2 2 2 2 2 
2 2 2 2 2 2 2 2 2 
2 2 2 2 2 2 2 2 2 
2 2 2 2 2 2 2 2 2 
2 
type 1 100 int
1 1 1 1 1 1 1 1 1 
1 1 1 1 1 1 1 1 1 
1 1 1 1 1 1 1 1 1 
1 1 1 1 1 1 1 1 1 
1 1 1 1 1 1 1 1 1 
1 1 1 1 1 1 1 1 1 
1 1 1 1 1 1 1 1 1 
1 1 1 1 1 1 1 1 1 
1 1 1 1 1 1 1 1 1 
1 1 1 1 1 1 1 1 1 
1 1 1 1 1 1 1 1 1 
1 
v 3 100 double
-0.00580753 -0.141919 -0.113829 -0.0244605 -0.0998284 -0.0763894 -0.0354292 -0.0694892 -0.0369698 
0.00993849 -0.164493 -0.105085 0.0267199 -0.203069 -0.140975 -0.00532684 -0.130103 -0.074619 
-0.0256738 -0.0841626 -0.0336937 0.0206417 -0.196194 -0.150077 -0.0487795 -0.0380997 -0.00623518 
-0.0339722 -0.0840505 -0.0750027 0.0156193 -0.174268 -0.107008 -0.00831482 -0.12122 -0.0619559 
-0.0316663 -0.0745455 -0.0338266 0.0253161 -0.199318 -0.136342 -0.0363259 -0.0615569 -0.0167684 
0.00351951 -0.148425 -0.087268 0.0378942 -0.21163 -0.11154 -0.0396325 -0.0432245 0.0237227 
-0.0422907 -0.0859106 -0.122554 -0.0435423 -0.0495701 -0.0156659 -0.0464315 -0.0817804 -0.130479 
0.0276534 -0.200881 -0.129475 0.00389862 -0.178293 -0.17838 0.0395512 -0.2256 -0.146727 
0.0066113 -0.177212 -0.161397 -0.0133539 -0.107443 -0.044346 0.0305639 -0.197493 -0.104313 
0.0483884 -0.232598 -0.124158 0.0211001 -0.184634 -0.111776 0.0112821 -0.147826 -0.0464346 
0.0143252 -0.169235 -0.0978313 0.0301168 -0.222092 -0.183165 -0.0591159 -0.0478479 -0.0884824 
0.0258789 -0.207664 -0.159508 -0.0615886 -0.0153129 0.00042532 0.00178315 -0.175882 -0.181493 
0.00224723 -0.143135 -0.0771821 0.0328223 -0.211404 -0.136298 -0.018743 -0.0994827 -0.0466106 
-0.0501471 -0.0533076 -0.0604614 -0.030361 -0.0926179 -0.0835546 0.0126478 -0.186317 -0.159446 
0.0335445 -0.196768 -0.0870922 -0.00483582 -0.160405 -0.166521 -0.0252395 -0.0711431 0.00903189 
-0.0310425 -0.074231 -0.0297157 -0.00227899 -0.159403 -0.150566 -0.0492377 -0.0496596 -0.0445357 
0.0113815 -0.15984 -0.0833508 -0.0366447 -0.0521071 0.0110595 -0.0156388 -0.125614 -0.145196 
-0.0400355 -0.0887285 -0.0967755 -0.0544929 -0.0670994 -0.0474388 0.00974832 -0.164607 -0.140772 
0.0282864 -0.192554 -0.184899 -0.0099396 -0.134842 -0.101521 -0.0366908 -0.0943957 -0.048515 
0.0266997 -0.189969 -0.19844 -0.0713219 -0.0417173 -0.00846052 -0.0588318 -0.0599775 -0.0893782 
0.0228257 -0.184591 -0.147622 -0.0106385 -0.133923 -0.0877489 -0.0597756 -0.0590982 -0.0382273 
0.0374395 -0.206585 -0.185762 -0.0643279 -0.0523414 -0.0178607 0.00734058 -0.161124 -0.121851 
0.0431234 -0.215678 -0.15207 -0.0673471 -0.0482462 0.0303818 -0.0639735 -0.0514382 -0.148039 
-0.0592554 -0.0600551 -0.023933 -0.0642004 -0.0509589 -0.159843 0.0428096 -0.214893 -0.179424 
0.00678815 -0.159073 -0.230158 0.0407896 -0.211658 -0.191708 0.00216703 -0.152259 -0.205438 
-0.0361998 -0.0950858 -0.0541869 0.0246933 -0.187579 -0.136615 0.0502567 -0.226475 -0.165216 
0.0338979 -0.201474 -0.156774 0.00346833 -0.155804 -0.0660734 0.0244812 -0.187233 -0.138435 
0.0408081 -0.21114 -0.240891 -0.0795125 -0.0280474 -0.107932 0.0387662 -0.208307 -0.213913 
-0.0853243 -0.0203357 0.000357629 0.00192353 -0.151588 -0.232186 0.00749641 -0.161487 -0.110654 
0.0438741 -0.216462 -0.185137 -0.0222701 -0.116294 -0.0685721 -0.0790424 -0.029197 -0.0693812 
-0.0381181 -0.0915226 -0.110024 0.0222531 -0.183001 -0.211707 0.0330789 -0.200634 -0.119353 
-0.00248931 -0.145003 -0.215566 -0.0434931 -0.0845772 0.00692902 -0.03976 -0.0897254 -0.0451022 
-0.0121142 -0.130533 -0.189128 -0.0785201 -0.0302123 -0.0501262 0.0207838 -0.181759 -0.120644 
-0.0666484 -0.0491649 0.0166098 
f 3 100 double
0 0 0 0 0 0 0 0 0 
0 0 0 0 0 0 0 0 0 
0 0 0 0 0 0 0 0 0 
0 0 0 0 0 0 0 0 0 
0 0 0 0 0 0 0 0 0 
0 0 0 0 0 0 0 0 0 
0 0 0 0 0 0 0 0 0 
0 0 0 0 0 0 0 0 0 
0 0 0 0 0 0 0 0 0 
0 0 0 0 0 0 0 0 0 
0 0 0 0 0 0 0 0 0 
0 0 0 0.0779129 -0.00379368 0.15601 0 0 0 
0 0 0 0 0 0 0 0 0 
0 0 0 0 0 0 0 0 0 
0 0 0 0 0 0 0 0 0 
0 0 0 0 0 0 0 0 0 
0 0 0 0 0 0 0 0 0 
0 0 0 0 0 0 0 0 0 
0 0 0 0 0 0 0 0 0 
0 0 0 0 0 0 0 0 0 
0 0 0 0 0 0 0 0 0 
0 0 0 0 0 0 0 0 0 
0 0 0 0 0 0 0 0 0 
0 0 0 0 0 0 0 0 0 
0 0 0 0 0 0 0 0 0 
0 0 0 0 0 0 0 0 0 
0 0 0 0 0 0 0 0 0 
0 0 0 0 0 0 0 0 0 
0.0729699 -0.00225277 0.146009 0 0 0 0 0 0 
0 0 0 0 0 0 0 0 0 
0 0 0 0 0 0 0 0 0 
0 0 0 0 0 0 0 0 0 
0 0 0 0 0 0 0 0 0 
0 0 0 
radius 1 100 double
0.010434 0.00981478 0.00892069 0.00845937 0.00731974 0.00728422 0.00643447 0.00619172 0.00585956 
0.00577566 0.00537241 0.00522549 0.00513666 0.00473175 0.00466912 0.00444866 0.00441894 0.00400812 
0.00385622 0.00379948 0.00370243 0.00366942 0.00364039 0.00363813 0.00363644 0.00358692 0.0035797 
0.00341284 0.00337012 0.00336273 0.00332772 0.00323261 0.00320584 0.00320311 0.00318808 0.00313116 
0.00306026 0.00305632 0.00304383 0.00300958 0.00300137 0.00298994 0.0029567 0.00295111 0.00290849 
0.00284552 0.00282964 0.0028207 0.00281971 0.00281899 0.010434 0.00981478 0.00892069 0.00845937 
0.00731974 0.00728422 0.00643447 0.00619172 0.00585956 0.00577566 0.00537241 0.00522549 0.00513666 
0.00473175 0.00466912 0.00444866 0.00441894 0.00400812 0.00385622 0.00379948 0.00370243 0.00366942 
0.00364039 0.00363813 0.00363644 0.00358692 0.0035797 0.00341284 0.00337012 0.00336273 0.00332772 
0.00323261 0.00320584 0.00320311 0.00318808 0.00313116 0.00306026 0.00305632 0.00304383 0.00300958 
0.00300137 0.00298994 0.0029567 0.00295111 0.00290849 0.00284552 0.00282964 0.0028207 0.00281971 
0.00281899 
omega 3 100 double
5.99625 3.71982 -1.19447 5.99625 3.71982 -1.19447 5.99625 3.71982 -1.19447 
5.99625 3.71982 -1.19447 5.99625 3.71982 -1.19447 5.99625 3.71982 -1.19447 
5.99625 3.71982 -1.19447 5.99625 3.71982 -1.19447 5.99625 3.71982 -1.19447 
5.99625 3.71982 -1.19447 5.99625 3.71982 -1.19447 5.99625 3.71982 -1.19447 
5.99625 3.71982 -1.19447 5.99625 3.71982 -1.19447 5.99625 3.71982 -1.19447 
5.99625 3.71982 -1.19447 5.99625 3.71982 -1.19447 5.99625 3.71982 -1.19447 
5.99625 3.71982 -1.19447 5.99625 3.71982 -1.19447 5.99625 3.71982 -1.19447 
5.99625 3.71982 -1.19447 5.99625 3.71982 -1.19447 5.99625 3.71982 -1.19447 
5.99625 3.71982 -1.19447 5.99625 3.71982 -1.19447 5.99625 3.71982 -1.19447 
5.99625 3.71982 -1.19447 5.99625 3.71982 -1.19447 5.99625 3.71982 -1.19447 
5.99625 3.71982 -1.19447 5.99625 3.71982 -1.19447 5.99625 3.71982 -1.19447 
5.99625 3.71982 -1.19447 5.99625 3.71982 -1.19447 5.99625 3.71982 -1.19447 
5.99625 3.71982 -1.19447 5.99625 3.71982 -1.19447 5.99625 3.71982 -1.19447 
5.99625 3.71982 -1.19447 5.99625 3.71982 -1.19447 5.99625 3.71982 -1.19447 
5.99625 3.71982 -1.19447 5.99625 3.71982 -1.19447 5.99625 3.71982 -1.19447 
5.99625 3.71982 -1.19447 5.99625 3.71982 -1.19447 5.99625 3.71982 -1.19447 
5.99625 3.71982 -1.19447 5.99625 3.71982 -1.19447 7.42618 4.84111 0.0538067 
7.42618 4.84111 0.0538067 7.42618 4.84111 0.0538067 7.42618 4.84111 0.0538067 
7.42618 4.84111 0.0538067 7.42618 4.84111 0.0538067 7.42618 4.84111 0.0538067 
7.42618 4.84111 0.0538067 7.42618 4.84111 0.0538067 7.42618 4.84111 0.0538067 
7.42618 4.84111 0.0538067 7.42618 4.84111 0.0538067 7.42618 4.84111 0.0538067 
7.42618 4.84111 0.0538067 7.42618 4.84111 0.0538067 7.42618 4.84111 0.0538067 
7.42618 4.84111 0.0538067 7.42618 4.84111 0.0538067 7.42618 4.84111 0.0538067 
7.42618 4.84111 0.0538067 7.42618 4.84111 0.0538067 7.42618 4.84111 0.0538067 
7.42618 4.84111 0.0538067 7.42618 4.84111 0.0538067 7.42618 4.84111 0.0538067 
7.42618 4.84111 0.0538067 7.42618 4.84111 0.0538067 7.42618 4.84111 0.0538067 
7.42618 4.84111 0.0538067 7.42618 4.84111 0.0538067 7.42618 4.84111 0.0538067 
7.42618 4.84111 0.0538067 7.42618 4.84111 0.0538067 7.42618 4.84111 0.0538067 
7.42618 4.84111 0.0538067 7.42618 4.84111 0.0538067 7.42618 4.84111 0.0538067 
7.42618 4.84111 0.0538067 7.42618 4.84111 0.0538067 7.42618 4.84111 0.0538067 
7.42618 4.84111 0.0538067 7.42618 4.84111 0.0538067 7.42618 4.84111 0.0538067 
7.42618 4.84111 0.0538067 7.42618 4.84111 0.0538067 7.42618 4.84111 0.0538067 
7.42618 4.84111 0.0538067 7.42618 4.84111 0.0538067 7.42618 4.84111 0.0538067 
7.42618 4.84111 0.0538067 
