# vtk DataFile Version 4.0
Generated by LIGGGHTS
ASCII
DATASET POLYDATA
POINTS 100 float
-0.117689 -0.14431 0.0136781 -0.127547 -0.142068 0.0110062 -0.137402 -0.140339 0.010369 
-0.124971 -0.149235 0.0196553 -0.111388 -0.148603 0.020885 -0.133337 -0.147623 0.0175448 
-0.14394 -0.145066 0.0145923 -0.117267 -0.153287 0.0207907 -0.146182 -0.13916 0.00887068 
-0.120513 -0.136239 0.00669977 -0.131178 -0.154198 0.0227371 -0.140457 -0.149672 0.0184768 
-0.125481 -0.132543 0.00835771 -0.126041 -0.15707 0.0241722 -0.131692 -0.133057 0.00859427 
-0.136893 -0.153096 0.020856 -0.118258 -0.14916 0.0254393 -0.143201 -0.133061 0.0104064 
-0.116456 -0.140957 0.00370274 -0.150071 -0.143884 0.0112889 -0.121092 -0.144853 0.00380579 
-0.130428 -0.158961 0.0258629 -0.113627 -0.15399 0.0155608 -0.104183 -0.146399 0.0225168 
-0.107584 -0.147456 0.0146791 -0.121668 -0.133962 0.0123246 -0.109485 -0.141442 0.0212472 
-0.106665 -0.145064 0.0253803 -0.13457 -0.15782 0.0250722 -0.129195 -0.141919 0.0207833 
-0.137553 -0.156561 0.0239498 -0.110971 -0.15604 0.021894 -0.133349 -0.14403 0.00330283 
-0.121156 -0.158012 0.0232089 -0.151732 -0.140143 0.00682409 -0.110399 -0.152217 0.0142018 
-0.141613 -0.154239 0.0216537 -0.121569 -0.155023 0.0250452 -0.147083 -0.150105 0.0172912 
-0.125898 -0.135372 0.00367701 -0.137895 -0.149311 0.0120733 -0.122732 -0.157537 0.0200839 
-0.119005 -0.14491 0.0243481 -0.119507 -0.154738 0.0146558 -0.145184 -0.138496 0.0148081 
-0.149985 -0.147665 0.0146634 -0.107339 -0.144424 0.0121976 -0.128879 -0.134626 0.00458917 
-0.141362 -0.156169 0.0240521 -0.136081 -0.131013 0.0094744 -0.0490551 -0.115305 0.0137975 
-0.059003 -0.113555 0.0110928 -0.0689465 -0.112487 0.0103729 -0.0560583 -0.121222 0.0191782 
-0.0425815 -0.119727 0.0207693 -0.0644828 -0.120039 0.0170152 -0.0751925 -0.118006 0.0140397 
-0.0480998 -0.124794 0.020153 -0.0777621 -0.111815 0.00877464 -0.052341 -0.106898 0.00744562 
-0.0619382 -0.126855 0.0216959 -0.0714496 -0.122662 0.0176103 -0.0575938 -0.103719 0.00928764 
-0.056631 -0.129464 0.0230073 -0.0637536 -0.104692 0.00933751 -0.0676863 -0.12601 0.0197805 
-0.0494689 -0.121153 0.0251022 -0.0752613 -0.105671 0.0108768 -0.0479 -0.111046 0.00416404 
-0.0813363 -0.116992 0.0107043 -0.0522404 -0.115259 0.0038381 -0.0608965 -0.131799 0.0244345 
-0.0443296 -0.124794 0.0149685 -0.0355852 -0.11716 0.0227433 -0.038766 -0.117794 0.0147687 
-0.0537557 -0.10519 0.013211 -0.0412132 -0.112504 0.021765 -0.0382071 -0.116251 0.0256491 
-0.0650963 -0.130894 0.0236451 -0.0608247 -0.114346 0.0208081 -0.0681432 -0.129761 0.0225618 
-0.0416398 -0.127174 0.0211705 -0.0645144 -0.115273 0.00312181 -0.051674 -0.129971 0.0220827 
-0.0831895 -0.113017 0.00652623 -0.0412169 -0.122687 0.0138353 -0.0723226 -0.12755 0.020372 
-0.0523359 -0.127184 0.0241493 -0.0780049 -0.123466 0.0162402 -0.0577231 -0.106168 0.00438108 
-0.0688118 -0.121583 0.0113193 -0.0532269 -0.129349 0.0189719 -0.0505061 -0.116891 0.0243484 
-0.0501232 -0.125881 0.0138692 -0.0769164 -0.111583 0.0147681 -0.0810314 -0.121026 0.0137565 
-0.0387002 -0.114555 0.0125522 -0.0607655 -0.105715 0.00528259 -0.0719724 -0.129652 0.0226081 
-0.0682945 -0.103048 0.0102817 
VERTICES 100 200
1 0 
1 1 
1 2 
1 3 
1 4 
1 5 
1 6 
1 7 
1 8 
1 9 
1 10 
1 11 
1 12 
1 13 
1 14 
1 15 
1 16 
1 17 
1 18 
1 19 
1 20 
1 21 
1 22 
1 23 
1 24 
1 25 
1 26 
1 27 
1 28 
1 29 
1 30 
1 31 
1 32 
1 33 
1 34 
1 35 
1 36 
1 37 
1 38 
1 39 
1 40 
1 41 
1 42 
1 43 
1 44 
1 45 
1 46 
1 47 
1 48 
1 49 
1 50 
1 51 
1 52 
1 53 
1 54 
1 55 
1 56 
1 57 
1 58 
1 59 
1 60 
1 61 
1 62 
1 63 
1 64 
1 65 
1 66 
1 67 
1 68 
1 69 
1 70 
1 71 
1 72 
1 73 
1 74 
1 75 
1 76 
1 77 
1 78 
1 79 
1 80 
1 81 
1 82 
1 83 
1 84 
1 85 
1 86 
1 87 
1 88 
1 89 
1 90 
1 91 
1 92 
1 93 
1 94 
1 95 
1 96 
1 97 
1 98 
1 99 

POINT_DATA 100
FIELD FieldData 7
id 1 100 int
1 2 3 4 5 6 7 8 9 
10 11 12 13 14 15 16 17 18 
19 20 21 22 23 24 25 26 27 
28 29 30 31 32 33 34 35 36 
37 38 39 40 41 42 43 44 45 
46 47 48 49 50 51 52 53 54 
55 56 57 58 59 60 61 62 63 
64 65 66 67 68 69 70 71 72 
73 74 75 76 77 78 79 80 81 
82 83 84 85 86 87 88 89 90 
91 92 93 94 95 96 97 98 99 
100 
mol 1 100 int
1 1 1 1 1 1 1 1 1 
1 1 1 1 1 1 1 1 1 
1 1 1 1 1 1 1 1 1 
1 1 1 1 1 1 1 1 1 
1 1 1 1 1 1 1 1 1 
1 1 1 1 1 2 2 2 2 
2 2 2 2 2 2 2 2 2 
2 2 2 2 2 2 2 2 2 
2 2 2 2 2 2 2 2 2 
2 2 2 2 2 2 2 2 2 
2 2 2 2 2 2 2 2 2 
2 
type 1 100 int
1 1 1 1 1 1 1 1 1 
1 1 1 1 1 1 1 1 1 
1 1 1 1 1 1 1 1 1 
1 1 1 1 1 1 1 1 1 
1 1 1 1 1 1 1 1 1 
1 1 1 1 1 1 1 1 1 
1 1 1 1 1 1 1 1 1 
1 1 1 1 1 1 1 1 1 
1 1 1 1 1 1 1 1 1 
1 1 1 1 1 1 1 1 1 
1 1 1 1 1 1 1 1 1 
1 
v 3 100 double
0.0627346 -0.139715 -0.0061101 0.0523838 -0.106323 0.0601012 0.0503344 -0.095725 0.120555 
0.0859228 -0.204121 -0.0309348 0.0912709 -0.222664 -0.0804694 0.0776907 -0.17754 0.0220058 
0.0662804 -0.140742 0.0948522 0.0892334 -0.219544 -0.108436 0.0445024 -0.075858 0.170364 
0.0364779 -0.0605482 0.0960786 0.0970278 -0.236466 -0.0606479 0.0808567 -0.185482 0.028737 
0.0446864 -0.0773777 0.158193 0.102002 -0.254346 -0.114234 0.0454923 -0.0778477 0.178331 
0.0895728 -0.213386 -0.0244794 0.11006 -0.271273 -0.0580696 0.0530449 -0.0941089 0.226255 
0.0223284 -0.0283974 0.0263153 0.0529247 -0.101584 0.133646 0.0213902 -0.0279245 0.00198926 
0.108386 -0.271747 -0.117134 0.0671855 -0.162233 -0.131481 0.0988466 -0.243473 -0.0858149 
0.0658034 -0.154476 -0.0834729 0.060725 -0.123156 0.126404 0.0952944 -0.22739 -0.00817715 
0.111252 -0.274681 -0.0605147 0.10549 -0.261435 -0.0870915 0.0931928 -0.215274 0.0686375 
0.101253 -0.247813 -0.0605522 0.0928663 -0.234113 -0.165524 0.0195825 -0.0179877 0.0623054 
0.0976558 -0.24527 -0.145154 0.0356257 -0.0509827 0.182482 0.0621425 -0.148141 -0.125079 
0.0924971 -0.220666 -0.0176108 0.10636 -0.265696 -0.109949 0.075762 -0.169874 0.0514992 
0.0241814 -0.0247948 0.128237 0.0542897 -0.114645 0.0220937 0.0847952 -0.209707 -0.133269 
0.107004 -0.258786 -0.00734126 0.06315 -0.15003 -0.115354 0.0694862 -0.142723 0.173642 
0.0656648 -0.139418 0.0909374 0.0565234 -0.126763 -0.0505326 0.0282456 -0.0339672 0.14902 
0.101817 -0.247622 -0.0402777 0.0498787 -0.0861669 0.219524 0.108693 -0.117572 -0.113341 
0.0898422 -0.0875668 -0.0245983 0.0854388 -0.0721541 0.0591065 0.143715 -0.149989 -0.103406 
0.157374 -0.175401 -0.195226 0.12842 -0.125516 -0.0304484 0.107791 -0.0927447 0.0661875 
0.147515 -0.165255 -0.190371 0.07393 -0.0514334 0.131287 0.0687972 -0.0675433 -0.026492 
0.157186 -0.162507 -0.099957 0.130289 -0.122797 0.00342073 0.0860851 -0.0757342 0.036945 
0.164535 -0.177548 -0.159613 0.0854747 -0.0698304 0.0767791 0.143436 -0.142579 -0.0498987 
0.188975 -0.200235 -0.153168 0.0962207 -0.0694288 0.157373 0.0395421 -0.047946 -0.0908551 
0.0833806 -0.0619774 0.120507 0.0327677 -0.0411321 -0.0887046 0.173044 -0.183695 -0.144235 
0.107966 -0.130988 -0.219128 0.175046 -0.197031 -0.229724 0.113568 -0.135184 -0.210125 
0.114516 -0.108476 -0.00314559 0.172322 -0.184112 -0.152579 0.198137 -0.215719 -0.203043 
0.167944 -0.173618 -0.10555 0.163148 -0.157116 -0.0165153 0.160833 -0.162554 -0.0739809 
0.152854 -0.179309 -0.257142 0.0272891 -0.0233732 0.00481944 0.156966 -0.175799 -0.201152 
0.0555554 -0.0293836 0.163858 0.101466 -0.125829 -0.227392 0.14638 -0.142206 -0.0258489 
0.175567 -0.190313 -0.175621 0.119019 -0.106055 0.047515 0.0461643 -0.0395416 0.0199352 
0.0833983 -0.0792465 -0.00877336 0.133868 -0.151355 -0.184738 0.187564 -0.19364 -0.113929 
0.0984739 -0.117011 -0.182926 0.119886 -0.0963432 0.126547 0.102556 -0.0847198 0.0885317 
0.0999571 -0.11896 -0.186821 0.0535015 -0.0430702 0.0464668 0.161298 -0.158997 -0.0439671 
0.0943509 -0.072147 0.123504 
f 3 100 double
0 0 0 0 0 0 0 0 0 
0 0 0 0 0 0 0 0 0 
0 0 0 0 0 0 0 0 0 
0 0 0 0 0 0 0 0 0 
0 0 0 0 0 0 0 0 0 
0 0 0 0 0 0 0 0 0 
-0.285101 -0.128411 0.62537 0 0 0 0 0 0 
0 0 0 0 0 0 0 0 0 
0 0 0 0 0 0 0 0 0 
0 0 0 0 0 0 0 0 0 
0 0 0 0 0 0 0 0 0 
0 0 0 0 0 0 0 0 0 
0 0 0 0 0 0 0 0 0 
0 0 0 0 0 0 0 0 0 
0 0 0 0 0 0 0 0 0 
0 0 0 0 0 0 0 0 0 
0 0 0 0 0 0 0 0 0 
0 0 0 0 0 0 0 0 0 
0 0 0 0 0 0 0 0 0 
0 0 0 0 0 0 0 0 0 
0 0 0 0 0 0 0 0 0 
0 0 0 0 0 0 0 0 0 
0 0 0 0 0 0 0 0 0 
0 0 0 0 0 0 0 0 0 
0 0 0 0 0 0 0 0 0 
0 0 0 0 0 0 0 0 0 
0 0 0 0 0 0 0 0 0 
0 0 0 0.0529199 -0.0147546 0.310003 0 0 0 
0 0 0 0 0 0 0 0 0 
0 0 0 0 0 0 0 0 0 
0 0 0 0 0 0 0 0 0 
0 0 0 0 0 0 0 0 0 
0 0 0 0 0 0 0 0 0 
0 0 0 
radius 1 100 double
0.010434 0.00981478 0.00892069 0.00845937 0.00731974 0.00728422 0.00643447 0.00619172 0.00585956 
0.00577566 0.00537241 0.00522549 0.00513666 0.00473175 0.00466912 0.00444866 0.00441894 0.00400812 
0.00385622 0.00379948 0.00370243 0.00366942 0.00364039 0.00363813 0.00363644 0.00358692 0.0035797 
0.00341284 0.00337012 0.00336273 0.00332772 0.00323261 0.00320584 0.00320311 0.00318808 0.00313116 
0.00306026 0.00305632 0.00304383 0.00300958 0.00300137 0.00298994 0.0029567 0.00295111 0.00290849 
0.00284552 0.00282964 0.0028207 0.00281971 0.00281899 0.010434 0.00981478 0.00892069 0.00845937 
0.00731974 0.00728422 0.00643447 0.00619172 0.00585956 0.00577566 0.00537241 0.00522549 0.00513666 
0.00473175 0.00466912 0.00444866 0.00441894 0.00400812 0.00385622 0.00379948 0.00370243 0.00366942 
0.00364039 0.00363813 0.00363644 0.00358692 0.0035797 0.00341284 0.00337012 0.00336273 0.00332772 
0.00323261 0.00320584 0.00320311 0.00318808 0.00313116 0.00306026 0.00305632 0.00304383 0.00300958 
0.00300137 0.00298994 0.0029567 0.00295111 0.00290849 0.00284552 0.00282964 0.0028207 0.00281971 
0.00281899 
omega 3 100 double
11.2027 4.16862 -0.35101 11.2027 4.16862 -0.35101 11.2027 4.16862 -0.35101 
11.2027 4.16862 -0.35101 11.2027 4.16862 -0.35101 11.2027 4.16862 -0.35101 
11.2027 4.16862 -0.35101 11.2027 4.16862 -0.35101 11.2027 4.16862 -0.35101 
11.2027 4.16862 -0.35101 11.2027 4.16862 -0.35101 11.2027 4.16862 -0.35101 
11.2027 4.16862 -0.35101 11.2027 4.16862 -0.35101 11.2027 4.16862 -0.35101 
11.2027 4.16862 -0.35101 11.2027 4.16862 -0.35101 11.2027 4.16862 -0.35101 
11.2027 4.16862 -0.35101 11.2027 4.16862 -0.35101 11.2027 4.16862 -0.35101 
11.2027 4.16862 -0.35101 11.2027 4.16862 -0.35101 11.2027 4.16862 -0.35101 
11.2027 4.16862 -0.35101 11.2027 4.16862 -0.35101 11.2027 4.16862 -0.35101 
11.2027 4.16862 -0.35101 11.2027 4.16862 -0.35101 11.2027 4.16862 -0.35101 
11.2027 4.16862 -0.35101 11.2027 4.16862 -0.35101 11.2027 4.16862 -0.35101 
11.2027 4.16862 -0.35101 11.2027 4.16862 -0.35101 11.2027 4.16862 -0.35101 
11.2027 4.16862 -0.35101 11.2027 4.16862 -0.35101 11.2027 4.16862 -0.35101 
11.2027 4.16862 -0.35101 11.2027 4.16862 -0.35101 11.2027 4.16862 -0.35101 
11.2027 4.16862 -0.35101 11.2027 4.16862 -0.35101 11.2027 4.16862 -0.35101 
11.2027 4.16862 -0.35101 11.2027 4.16862 -0.35101 11.2027 4.16862 -0.35101 
11.2027 4.16862 -0.35101 11.2027 4.16862 -0.35101 7.34956 7.62823 -1.01796 
7.34956 7.62823 -1.01796 7.34956 7.62823 -1.01796 7.34956 7.62823 -1.01796 
7.34956 7.62823 -1.01796 7.34956 7.62823 -1.01796 7.34956 7.62823 -1.01796 
7.34956 7.62823 -1.01796 7.34956 7.62823 -1.01796 7.34956 7.62823 -1.01796 
7.34956 7.62823 -1.01796 7.34956 7.62823 -1.01796 7.34956 7.62823 -1.01796 
7.34956 7.62823 -1.01796 7.34956 7.62823 -1.01796 7.34956 7.62823 -1.01796 
7.34956 7.62823 -1.01796 7.34956 7.62823 -1.01796 7.34956 7.62823 -1.01796 
7.34956 7.62823 -1.01796 7.34956 7.62823 -1.01796 7.34956 7.62823 -1.01796 
7.34956 7.62823 -1.01796 7.34956 7.62823 -1.01796 7.34956 7.62823 -1.01796 
7.34956 7.62823 -1.01796 7.34956 7.62823 -1.01796 7.34956 7.62823 -1.01796 
7.34956 7.62823 -1.01796 7.34956 7.62823 -1.01796 7.34956 7.62823 -1.01796 
7.34956 7.62823 -1.01796 7.34956 7.62823 -1.01796 7.34956 7.62823 -1.01796 
7.34956 7.62823 -1.01796 7.34956 7.62823 -1.01796 7.34956 7.62823 -1.01796 
7.34956 7.62823 -1.01796 7.34956 7.62823 -1.01796 7.34956 7.62823 -1.01796 
7.34956 7.62823 -1.01796 7.34956 7.62823 -1.01796 7.34956 7.62823 -1.01796 
7.34956 7.62823 -1.01796 7.34956 7.62823 -1.01796 7.34956 7.62823 -1.01796 
7.34956 7.62823 -1.01796 7.34956 7.62823 -1.01796 7.34956 7.62823 -1.01796 
7.34956 7.62823 -1.01796 
