# vtk DataFile Version 4.0
Generated by LIGGGHTS
ASCII
DATASET POLYDATA
POINTS 100 float
-0.118943 -0.142639 0.0146936 -0.128569 -0.140894 0.0110034 -0.138357 -0.139441 0.00938477 
-0.126639 -0.147042 0.0205581 -0.113213 -0.146009 0.0228106 -0.134819 -0.145832 0.0176132 
-0.145169 -0.143819 0.0135503 -0.119011 -0.150793 0.022747 -0.146995 -0.138605 0.00705986 
-0.121268 -0.135419 0.00667641 -0.133024 -0.151769 0.0236449 -0.141969 -0.147912 0.0181805 
-0.126398 -0.131668 0.00751564 -0.127992 -0.154368 0.0257947 -0.132601 -0.132277 0.00730146 
-0.138576 -0.15099 0.0211978 -0.12043 -0.146213 0.0268256 -0.14422 -0.132319 0.00816319 
-0.116924 -0.140348 0.00454707 -0.151018 -0.143121 0.00965175 -0.12151 -0.144304 0.00469472 
-0.132483 -0.156155 0.0273186 -0.114942 -0.151978 0.0179368 -0.106193 -0.143499 0.0247736 
-0.108921 -0.145456 0.0168463 -0.122911 -0.132577 0.0119092 -0.111427 -0.138814 0.0225485 
-0.108919 -0.141916 0.0272648 -0.136557 -0.155189 0.0260754 -0.131024 -0.139733 0.0205406 
-0.139451 -0.154117 0.0245848 -0.112798 -0.153286 0.0246493 -0.133691 -0.143785 0.0031123 
-0.123034 -0.155309 0.0253389 -0.152345 -0.139913 0.00468808 -0.111633 -0.150297 0.0166604 
-0.143332 -0.152135 0.0217289 -0.123631 -0.15215 0.0268011 -0.148468 -0.148603 0.0165148 
-0.126394 -0.134989 0.00315045 -0.138889 -0.148188 0.0120049 -0.12435 -0.155204 0.0220633 
-0.121132 -0.14212 0.0252236 -0.120719 -0.152937 0.0166438 -0.1465 -0.13729 0.0129518 
-0.151169 -0.146516 0.0134115 -0.108504 -0.142703 0.0140793 -0.129448 -0.13421 0.00373148 
-0.14326 -0.153792 0.0243345 -0.13707 -0.130239 0.00759591 -0.0502135 -0.113911 0.0150514 
-0.0599115 -0.112533 0.0113928 -0.0697666 -0.111663 0.00976402 -0.0576047 -0.119438 0.0203269 
-0.0443173 -0.117633 0.0228908 -0.0658263 -0.118557 0.017381 -0.0762626 -0.11693 0.013366 
-0.0497334 -0.122807 0.0222615 -0.0784219 -0.111249 0.00739069 -0.0530095 -0.106125 0.00774616 
-0.0636394 -0.124913 0.0228282 -0.0728022 -0.121212 0.0176231 -0.0584173 -0.102869 0.00886575 
-0.0584442 -0.127328 0.0247945 -0.0645535 -0.103917 0.00849054 -0.0692126 -0.124312 0.0203786 
-0.0515334 -0.118774 0.0267469 -0.0761433 -0.104913 0.00915255 -0.0482845 -0.110479 0.00521409 
-0.0821127 -0.116288 0.0094592 -0.0525566 -0.114761 0.00489642 -0.0627994 -0.129589 0.026061 
-0.0455437 -0.123201 0.0174257 -0.0375261 -0.114812 0.0252065 -0.0400262 -0.11617 0.0170813 
-0.054911 -0.103947 0.0132054 -0.0430814 -0.110333 0.0233673 -0.040387 -0.113692 0.0277961 
-0.0669242 -0.128811 0.024852 -0.0625329 -0.112512 0.0209562 -0.069877 -0.127816 0.0234267 
-0.0433664 -0.125004 0.0240114 -0.0647276 -0.115001 0.00317234 -0.0534242 -0.127846 0.02433 
-0.0836353 -0.112711 0.00481399 -0.0423603 -0.121158 0.0163755 -0.0738725 -0.125857 0.020716 
-0.0542735 -0.124902 0.0260858 -0.0792152 -0.122218 0.0157908 -0.0581214 -0.105731 0.00419568 
-0.0696553 -0.120641 0.0115019 -0.0547159 -0.127514 0.0210594 -0.0525303 -0.114606 0.0255439 
-0.0512185 -0.124456 0.0159497 -0.078081 -0.110492 0.0133908 -0.0820388 -0.120041 0.0128638 
-0.0397955 -0.113133 0.0146058 -0.0612312 -0.105244 0.00480019 -0.0736972 -0.127754 0.0231468 
-0.0691675 -0.102258 0.0089104 
VERTICES 100 200
1 0 
1 1 
1 2 
1 3 
1 4 
1 5 
1 6 
1 7 
1 8 
1 9 
1 10 
1 11 
1 12 
1 13 
1 14 
1 15 
1 16 
1 17 
1 18 
1 19 
1 20 
1 21 
1 22 
1 23 
1 24 
1 25 
1 26 
1 27 
1 28 
1 29 
1 30 
1 31 
1 32 
1 33 
1 34 
1 35 
1 36 
1 37 
1 38 
1 39 
1 40 
1 41 
1 42 
1 43 
1 44 
1 45 
1 46 
1 47 
1 48 
1 49 
1 50 
1 51 
1 52 
1 53 
1 54 
1 55 
1 56 
1 57 
1 58 
1 59 
1 60 
1 61 
1 62 
1 63 
1 64 
1 65 
1 66 
1 67 
1 68 
1 69 
1 70 
1 71 
1 72 
1 73 
1 74 
1 75 
1 76 
1 77 
1 78 
1 79 
1 80 
1 81 
1 82 
1 83 
1 84 
1 85 
1 86 
1 87 
1 88 
1 89 
1 90 
1 91 
1 92 
1 93 
1 94 
1 95 
1 96 
1 97 
1 98 
1 99 

POINT_DATA 100
FIELD FieldData 7
id 1 100 int
1 2 3 4 5 6 7 8 9 
10 11 12 13 14 15 16 17 18 
19 20 21 22 23 24 25 26 27 
28 29 30 31 32 33 34 35 36 
37 38 39 40 41 42 43 44 45 
46 47 48 49 50 51 52 53 54 
55 56 57 58 59 60 61 62 63 
64 65 66 67 68 69 70 71 72 
73 74 75 76 77 78 79 80 81 
82 83 84 85 86 87 88 89 90 
91 92 93 94 95 96 97 98 99 
100 
mol 1 100 int
1 1 1 1 1 1 1 1 1 
1 1 1 1 1 1 1 1 1 
1 1 1 1 1 1 1 1 1 
1 1 1 1 1 1 1 1 1 
1 1 1 1 1 1 1 1 1 
1 1 1 1 1 2 2 2 2 
2 2 2 2 2 2 2 2 2 
2 2 2 2 2 2 2 2 2 
2 2 2 2 2 2 2 2 2 
2 2 2 2 2 2 2 2 2 
2 2 2 2 2 2 2 2 2 
2 
type 1 100 int
1 1 1 1 1 1 1 1 1 
1 1 1 1 1 1 1 1 1 
1 1 1 1 1 1 1 1 1 
1 1 1 1 1 1 1 1 1 
1 1 1 1 1 1 1 1 1 
1 1 1 1 1 1 1 1 1 
1 1 1 1 1 1 1 1 1 
1 1 1 1 1 1 1 1 1 
1 1 1 1 1 1 1 1 1 
1 1 1 1 1 1 1 1 1 
1 1 1 1 1 1 1 1 1 
1 
v 3 100 double
0.114309 -0.142964 -0.0835173 0.0901573 -0.0975942 0.00094644 0.0806473 -0.0689222 0.0841912 
0.150124 -0.178822 -0.0634369 0.168172 -0.218415 -0.152865 0.130561 -0.141832 0.00609492 
0.104115 -0.0922721 0.0980246 0.160168 -0.208757 -0.149745 0.0650156 -0.036283 0.154004 
0.0672415 -0.0736949 -0.00748249 0.165177 -0.194017 -0.0555693 0.131418 -0.135204 0.0412027 
0.0792727 -0.0724767 0.0606138 0.176753 -0.219539 -0.113514 0.0767504 -0.0609475 0.100846 
0.148565 -0.165242 -0.0087152 0.197121 -0.239895 -0.101922 0.082967 -0.049685 0.185213 
0.043949 -0.063117 -0.0794831 0.0767934 -0.0511513 0.146379 0.038791 -0.0570984 -0.0784235 
0.185046 -0.224931 -0.0953996 0.123233 -0.175808 -0.189101 0.186439 -0.245543 -0.183506 
0.125562 -0.176375 -0.179632 0.109869 -0.113924 0.0277519 0.177603 -0.219086 -0.107006 
0.207096 -0.261631 -0.150677 0.177506 -0.208336 -0.0577902 0.161516 -0.171767 0.0283385 
0.168328 -0.191579 -0.0279278 0.170108 -0.234115 -0.215435 0.0280723 -0.0249495 0.0146282 
0.171946 -0.223625 -0.15737 0.0456632 -0.0084427 0.182304 0.116578 -0.170579 -0.19947 
0.150631 -0.162091 0.0165856 0.187585 -0.234648 -0.127163 0.118187 -0.11133 0.0829338 
0.0422142 -0.0367631 0.0334063 0.0859625 -0.0895237 0.016497 0.148233 -0.194746 -0.146905 
0.191894 -0.225679 -0.0633108 0.112295 -0.156123 -0.154836 0.110043 -0.0852767 0.161156 
0.098852 -0.0816789 0.1197 0.10973 -0.15439 -0.160139 0.0476786 -0.0367037 0.0620504 
0.167015 -0.183527 0.00249606 0.0821092 -0.0563125 0.150105 0.0890498 -0.114843 -0.0934395 
0.0683761 -0.0836651 -0.0268947 0.0593117 -0.0667808 0.0369703 0.116939 -0.148202 -0.089313 
0.13293 -0.173572 -0.154324 0.100169 -0.122874 -0.0349376 0.0775433 -0.088771 0.0376919 
0.126438 -0.166176 -0.159264 0.0456406 -0.0452734 0.0905805 0.0505018 -0.0615787 -0.0219139 
0.128614 -0.162646 -0.092762 0.100146 -0.120804 -0.012899 0.0588231 -0.0665755 0.032807 
0.138816 -0.179393 -0.14029 0.0560578 -0.0605884 0.0613139 0.114597 -0.14227 -0.0558741 
0.154888 -0.196972 -0.120157 0.0593934 -0.0589898 0.122115 0.0333141 -0.0462063 -0.080423 
0.0550176 -0.0579233 0.0764943 0.0291307 -0.0416383 -0.085745 0.145005 -0.186001 -0.130803 
0.0979109 -0.134194 -0.186584 0.148019 -0.19366 -0.174106 0.0997086 -0.134748 -0.169091 
0.0836467 -0.0992175 0.00464171 0.13968 -0.177618 -0.109855 0.163788 -0.210451 -0.149425 
0.138348 -0.175199 -0.101146 0.124381 -0.149986 -0.0114006 0.130543 -0.163501 -0.0768084 
0.135492 -0.182026 -0.21211 0.0189062 -0.0228224 -0.0161798 0.135815 -0.178826 -0.173351 
0.0297605 -0.0241927 0.110746 0.0928706 -0.128483 -0.190753 0.115734 -0.142132 -0.0395358 
0.147693 -0.190803 -0.14752 0.0888718 -0.104346 0.0175213 0.0299272 -0.0336554 0.0108038 
0.0646158 -0.0791518 -0.0272839 0.116846 -0.154958 -0.163439 0.150106 -0.18791 -0.0847962 
0.0885882 -0.120661 -0.162248 0.0811818 -0.0879602 0.0939461 0.0729151 -0.0820797 0.0494748 
0.0868629 -0.117338 -0.148923 0.0337309 -0.0362503 0.0324623 0.128937 -0.159446 -0.0540026 
0.059416 -0.0610592 0.100077 
f 3 100 double
0 0 0 0 0 0 0 0 0 
0 0 0 0 0 0 0 0 0 
0 0 0 0 0 0 0 0 0 
0 0 0 0 0 0 0 0 0 
0 0 0 0 0 0 0 0 0 
0 0 0 0 0 0 0 0 0 
0 0 0 0 0 0 0 0 0 
0 0 0 0 0 0 0 0 0 
0 0 0 0 0 0 0 0 0 
0 0 0 0 0 0 0 0 0 
0 0 0 0 0 0 0.0550995 0.00637218 0.258113 
0 0 0 0 0 0 0 0 0 
0 0 0 0 0 0 0 0 0 
0 0 0 0 0 0 0 0 0 
0 0 0 0 0 0 0 0 0 
0 0 0 0 0 0 0 0 0 
0 0 0 0 0 0 0 0 0 
0 0 0 0 0 0 0 0 0 
0 0 0 0 0 0 0 0 0 
0 0 0 0 0 0 0 0 0 
0 0 0 0 0 0 0 0 0 
0 0 0 0 0 0 0 0 0 
0 0 0 0 0 0 0 0 0 
0 0 0 0 0 0 0 0 0 
0 0 0 0 0 0 0 0 0 
0 0 0 0 0 0 0 0 0 
0 0 0 0 0 0 0 0 0 
0 0 0 -0.0957622 -0.00622626 0.237019 0 0 0 
0 0 0 0 0 0 0 0 0 
0 0 0 0 0 0 0 0 0 
0 0 0 0 0 0 0 0 0 
0 0 0 0 0 0 0 0 0 
0 0 0 0 0 0 0 0 0 
0 0 0 
radius 1 100 double
0.010434 0.00981478 0.00892069 0.00845937 0.00731974 0.00728422 0.00643447 0.00619172 0.00585956 
0.00577566 0.00537241 0.00522549 0.00513666 0.00473175 0.00466912 0.00444866 0.00441894 0.00400812 
0.00385622 0.00379948 0.00370243 0.00366942 0.00364039 0.00363813 0.00363644 0.00358692 0.0035797 
0.00341284 0.00337012 0.00336273 0.00332772 0.00323261 0.00320584 0.00320311 0.00318808 0.00313116 
0.00306026 0.00305632 0.00304383 0.00300958 0.00300137 0.00298994 0.0029567 0.00295111 0.00290849 
0.00284552 0.00282964 0.0028207 0.00281971 0.00281899 0.010434 0.00981478 0.00892069 0.00845937 
0.00731974 0.00728422 0.00643447 0.00619172 0.00585956 0.00577566 0.00537241 0.00522549 0.00513666 
0.00473175 0.00466912 0.00444866 0.00441894 0.00400812 0.00385622 0.00379948 0.00370243 0.00366942 
0.00364039 0.00363813 0.00363644 0.00358692 0.0035797 0.00341284 0.00337012 0.00336273 0.00332772 
0.00323261 0.00320584 0.00320311 0.00318808 0.00313116 0.00306026 0.00305632 0.00304383 0.00300958 
0.00300137 0.00298994 0.0029567 0.00295111 0.00290849 0.00284552 0.00282964 0.0028207 0.00281971 
0.00281899 
omega 3 100 double
8.18288 7.29027 -1.57616 8.18288 7.29027 -1.57616 8.18288 7.29027 -1.57616 
8.18288 7.29027 -1.57616 8.18288 7.29027 -1.57616 8.18288 7.29027 -1.57616 
8.18288 7.29027 -1.57616 8.18288 7.29027 -1.57616 8.18288 7.29027 -1.57616 
8.18288 7.29027 -1.57616 8.18288 7.29027 -1.57616 8.18288 7.29027 -1.57616 
8.18288 7.29027 -1.57616 8.18288 7.29027 -1.57616 8.18288 7.29027 -1.57616 
8.18288 7.29027 -1.57616 8.18288 7.29027 -1.57616 8.18288 7.29027 -1.57616 
8.18288 7.29027 -1.57616 8.18288 7.29027 -1.57616 8.18288 7.29027 -1.57616 
8.18288 7.29027 -1.57616 8.18288 7.29027 -1.57616 8.18288 7.29027 -1.57616 
8.18288 7.29027 -1.57616 8.18288 7.29027 -1.57616 8.18288 7.29027 -1.57616 
8.18288 7.29027 -1.57616 8.18288 7.29027 -1.57616 8.18288 7.29027 -1.57616 
8.18288 7.29027 -1.57616 8.18288 7.29027 -1.57616 8.18288 7.29027 -1.57616 
8.18288 7.29027 -1.57616 8.18288 7.29027 -1.57616 8.18288 7.29027 -1.57616 
8.18288 7.29027 -1.57616 8.18288 7.29027 -1.57616 8.18288 7.29027 -1.57616 
8.18288 7.29027 -1.57616 8.18288 7.29027 -1.57616 8.18288 7.29027 -1.57616 
8.18288 7.29027 -1.57616 8.18288 7.29027 -1.57616 8.18288 7.29027 -1.57616 
8.18288 7.29027 -1.57616 8.18288 7.29027 -1.57616 8.18288 7.29027 -1.57616 
8.18288 7.29027 -1.57616 8.18288 7.29027 -1.57616 7.08353 5.855 -0.542547 
7.08353 5.855 -0.542547 7.08353 5.855 -0.542547 7.08353 5.855 -0.542547 
7.08353 5.855 -0.542547 7.08353 5.855 -0.542547 7.08353 5.855 -0.542547 
7.08353 5.855 -0.542547 7.08353 5.855 -0.542547 7.08353 5.855 -0.542547 
7.08353 5.855 -0.542547 7.08353 5.855 -0.542547 7.08353 5.855 -0.542547 
7.08353 5.855 -0.542547 7.08353 5.855 -0.542547 7.08353 5.855 -0.542547 
7.08353 5.855 -0.542547 7.08353 5.855 -0.542547 7.08353 5.855 -0.542547 
7.08353 5.855 -0.542547 7.08353 5.855 -0.542547 7.08353 5.855 -0.542547 
7.08353 5.855 -0.542547 7.08353 5.855 -0.542547 7.08353 5.855 -0.542547 
7.08353 5.855 -0.542547 7.08353 5.855 -0.542547 7.08353 5.855 -0.542547 
7.08353 5.855 -0.542547 7.08353 5.855 -0.542547 7.08353 5.855 -0.542547 
7.08353 5.855 -0.542547 7.08353 5.855 -0.542547 7.08353 5.855 -0.542547 
7.08353 5.855 -0.542547 7.08353 5.855 -0.542547 7.08353 5.855 -0.542547 
7.08353 5.855 -0.542547 7.08353 5.855 -0.542547 7.08353 5.855 -0.542547 
7.08353 5.855 -0.542547 7.08353 5.855 -0.542547 7.08353 5.855 -0.542547 
7.08353 5.855 -0.542547 7.08353 5.855 -0.542547 7.08353 5.855 -0.542547 
7.08353 5.855 -0.542547 7.08353 5.855 -0.542547 7.08353 5.855 -0.542547 
7.08353 5.855 -0.542547 
