# vtk DataFile Version 4.0
Generated by LIGGGHTS
ASCII
DATASET POLYDATA
POINTS 100 float
-0.119168 -0.142353 0.0148534 -0.128746 -0.140699 0.0109965 -0.138513 -0.139304 0.00921308 
-0.126936 -0.146683 0.0206778 -0.113547 -0.145571 0.0231066 -0.135076 -0.145548 0.0175957 
-0.145372 -0.143635 0.0133512 -0.119329 -0.150374 0.0230379 -0.147119 -0.138534 0.00675029 
-0.121399 -0.135272 0.006686 -0.133351 -0.15138 0.0237494 -0.142227 -0.147641 0.0180937 
-0.126552 -0.131524 0.00738933 -0.128343 -0.153926 0.0260139 -0.132749 -0.132157 0.00709567 
-0.13887 -0.150658 0.0212099 -0.120821 -0.145732 0.0270198 -0.144379 -0.132221 0.00779014 
-0.11701 -0.140222 0.00470084 -0.151166 -0.143019 0.00935768 -0.121585 -0.144189 0.00484725 
-0.13285 -0.155703 0.027502 -0.115188 -0.151625 0.0183071 -0.106563 -0.143007 0.0251292 
-0.109171 -0.145102 0.0171966 -0.123126 -0.13235 0.0118471 -0.111779 -0.138375 0.0227522 
-0.10933 -0.141392 0.0275544 -0.136909 -0.15477 0.0261844 -0.131342 -0.13939 0.0204769 
-0.139784 -0.153732 0.0246348 -0.113137 -0.152815 0.0250704 -0.133744 -0.143735 0.00308083 
-0.123376 -0.154859 0.0256453 -0.15243 -0.139897 0.00432333 -0.111865 -0.149954 0.0170511 
-0.14363 -0.15181 0.021691 -0.124004 -0.151679 0.0270467 -0.1487 -0.14838 0.016346 
-0.126475 -0.134916 0.00307981 -0.139058 -0.148008 0.0119686 -0.124645 -0.154812 0.0223497 
-0.121511 -0.141668 0.0253408 -0.120942 -0.152623 0.0169467 -0.146713 -0.13712 0.0126263 
-0.151361 -0.146353 0.0131701 -0.108722 -0.142393 0.0143911 -0.129539 -0.134137 0.00360381 
-0.14359 -0.153424 0.0243243 -0.137228 -0.130129 0.00729205 -0.0503965 -0.113682 0.0152203 
-0.0600546 -0.112366 0.0114352 -0.0698918 -0.11153 0.00968517 -0.0578409 -0.119141 0.0204918 
-0.0445843 -0.117286 0.0231767 -0.0660301 -0.118311 0.0174428 -0.0764227 -0.116752 0.0132896 
-0.0499886 -0.122474 0.0225613 -0.0785206 -0.111158 0.00721047 -0.0531183 -0.106003 0.00777433 
-0.063898 -0.124586 0.0230039 -0.0730059 -0.120969 0.0176454 -0.058541 -0.102738 0.00878747 
-0.0587228 -0.126968 0.0250618 -0.0646718 -0.103798 0.00835928 -0.0694443 -0.124026 0.0204843 
-0.0518417 -0.118379 0.0269685 -0.0762673 -0.104796 0.00890702 -0.0483616 -0.110389 0.00535704 
-0.0822297 -0.116172 0.00930956 -0.0526261 -0.114679 0.00505312 -0.0630898 -0.129215 0.0263121 
-0.0457451 -0.122932 0.0177783 -0.0378217 -0.114425 0.0255271 -0.0402304 -0.115902 0.0173948 
-0.0550821 -0.103751 0.0131806 -0.0433602 -0.109979 0.0235628 -0.0407121 -0.113272 0.0280686 
-0.0672016 -0.128459 0.0250465 -0.0627818 -0.112212 0.0209678 -0.0701393 -0.127487 0.0235745 
-0.0436393 -0.12464 0.0244127 -0.064777 -0.114956 0.00319793 -0.0536976 -0.127487 0.0246604 
-0.0837038 -0.112663 0.00459728 -0.0425521 -0.120901 0.0167344 -0.0741063 -0.125571 0.0207921 
-0.0545689 -0.124519 0.0263645 -0.0793973 -0.122008 0.0157567 -0.0581908 -0.105666 0.00416221 
-0.0697917 -0.120483 0.011552 -0.0549532 -0.127203 0.0213713 -0.0528289 -0.11423 0.0256954 
-0.0514021 -0.124214 0.0162575 -0.0782469 -0.110316 0.0132026 -0.0821902 -0.119876 0.0127679 
-0.039975 -0.112899 0.0148791 -0.0613076 -0.105173 0.00472524 -0.0739563 -0.127433 0.0232515 
-0.0692916 -0.102138 0.00870434 
VERTICES 100 200
1 0 
1 1 
1 2 
1 3 
1 4 
1 5 
1 6 
1 7 
1 8 
1 9 
1 10 
1 11 
1 12 
1 13 
1 14 
1 15 
1 16 
1 17 
1 18 
1 19 
1 20 
1 21 
1 22 
1 23 
1 24 
1 25 
1 26 
1 27 
1 28 
1 29 
1 30 
1 31 
1 32 
1 33 
1 34 
1 35 
1 36 
1 37 
1 38 
1 39 
1 40 
1 41 
1 42 
1 43 
1 44 
1 45 
1 46 
1 47 
1 48 
1 49 
1 50 
1 51 
1 52 
1 53 
1 54 
1 55 
1 56 
1 57 
1 58 
1 59 
1 60 
1 61 
1 62 
1 63 
1 64 
1 65 
1 66 
1 67 
1 68 
1 69 
1 70 
1 71 
1 72 
1 73 
1 74 
1 75 
1 76 
1 77 
1 78 
1 79 
1 80 
1 81 
1 82 
1 83 
1 84 
1 85 
1 86 
1 87 
1 88 
1 89 
1 90 
1 91 
1 92 
1 93 
1 94 
1 95 
1 96 
1 97 
1 98 
1 99 

POINT_DATA 100
FIELD FieldData 7
id 1 100 int
1 2 3 4 5 6 7 8 9 
10 11 12 13 14 15 16 17 18 
19 20 21 22 23 24 25 26 27 
28 29 30 31 32 33 34 35 36 
37 38 39 40 41 42 43 44 45 
46 47 48 49 50 51 52 53 54 
55 56 57 58 59 60 61 62 63 
64 65 66 67 68 69 70 71 72 
73 74 75 76 77 78 79 80 81 
82 83 84 85 86 87 88 89 90 
91 92 93 94 95 96 97 98 99 
100 
mol 1 100 int
1 1 1 1 1 1 1 1 1 
1 1 1 1 1 1 1 1 1 
1 1 1 1 1 1 1 1 1 
1 1 1 1 1 1 1 1 1 
1 1 1 1 1 1 1 1 1 
1 1 1 1 1 2 2 2 2 
2 2 2 2 2 2 2 2 2 
2 2 2 2 2 2 2 2 2 
2 2 2 2 2 2 2 2 2 
2 2 2 2 2 2 2 2 2 
2 2 2 2 2 2 2 2 2 
2 
type 1 100 int
1 1 1 1 1 1 1 1 1 
1 1 1 1 1 1 1 1 1 
1 1 1 1 1 1 1 1 1 
1 1 1 1 1 1 1 1 1 
1 1 1 1 1 1 1 1 1 
1 1 1 1 1 1 1 1 1 
1 1 1 1 1 1 1 1 1 
1 1 1 1 1 1 1 1 1 
1 1 1 1 1 1 1 1 1 
1 1 1 1 1 1 1 1 1 
1 1 1 1 1 1 1 1 1 
1 
v 3 100 double
0.110962 -0.143796 -0.0779841 0.0857301 -0.0977157 0.00443111 0.0750083 -0.068402 0.0860831 
0.146316 -0.180043 -0.0577872 0.165435 -0.220094 -0.14484 0.125873 -0.14249 0.010033 
0.098246 -0.0921458 0.0997458 0.157739 -0.210859 -0.142791 0.0584679 -0.0352436 0.15425 
0.0628967 -0.0732875 -0.00373458 0.161343 -0.19568 -0.0503126 0.126313 -0.135861 0.0442051 
0.0735717 -0.0713439 0.064111 0.173794 -0.221813 -0.107236 0.0705127 -0.0596351 0.103435 
0.144178 -0.166522 -0.00472993 0.19331 -0.241366 -0.093904 0.0754056 -0.0479038 0.186469 
0.0412106 -0.0635445 -0.0759677 0.070475 -0.0506162 0.146438 0.0363131 -0.0578873 -0.0757184 
0.181822 -0.22729 -0.0894595 0.121872 -0.178166 -0.18283 0.183814 -0.247201 -0.173932 
0.123674 -0.178058 -0.17243 0.104362 -0.113139 0.0327043 0.173681 -0.219832 -0.0983722 
0.203661 -0.262995 -0.140772 0.173754 -0.210368 -0.0526273 0.155811 -0.171783 0.0338465 
0.164177 -0.193315 -0.0234385 0.168682 -0.236858 -0.207356 0.0243018 -0.0251268 0.0153761 
0.169746 -0.226231 -0.150602 0.0389849 -0.00732094 0.181196 0.115354 -0.172821 -0.192964 
0.145907 -0.163339 0.0199996 0.184585 -0.236813 -0.119934 0.112647 -0.111782 0.0846373 
0.0375198 -0.0360209 0.0356604 0.0817531 -0.0902454 0.018415 0.146139 -0.197227 -0.141087 
0.187342 -0.226523 -0.0555209 0.110601 -0.15835 -0.149695 0.102807 -0.0841733 0.162954 
0.0928688 -0.0816739 0.120432 0.107579 -0.15566 -0.153376 0.0424531 -0.0357339 0.0640867 
0.162408 -0.185053 0.00644164 0.0749654 -0.0545326 0.152297 0.0939342 -0.114014 -0.0745222 
0.0745483 -0.0827705 -0.014195 0.0656827 -0.0660276 0.0436423 0.119382 -0.148593 -0.0743918 
0.134326 -0.173494 -0.130968 0.103668 -0.12325 -0.0252867 0.0824461 -0.0890551 0.0406515 
0.128864 -0.166775 -0.139651 0.052799 -0.0446106 0.0917781 0.057975 -0.0595121 -0.00517282 
0.130293 -0.163997 -0.0814739 0.103599 -0.121718 -0.00756499 0.0647109 -0.0644508 0.0467964 
0.140121 -0.180952 -0.12581 0.0620012 -0.0587619 0.0715195 0.117254 -0.143577 -0.0482309 
0.153842 -0.197553 -0.100553 0.0644608 -0.0577271 0.125477 0.0433601 -0.0442303 -0.0616534 
0.0617181 -0.0580611 0.0754147 0.0399235 -0.0402296 -0.0699164 0.145749 -0.188041 -0.11889 
0.10346 -0.134327 -0.165298 0.147936 -0.193223 -0.146117 0.104445 -0.133939 -0.144001 
0.0874309 -0.0973993 0.0213144 0.139485 -0.176784 -0.0850781 0.161824 -0.210193 -0.122622 
0.139402 -0.177217 -0.0918063 0.124854 -0.14989 0.00128182 0.13206 -0.165416 -0.0693635 
0.137695 -0.182753 -0.188628 0.0300277 -0.0217443 -0.0078593 0.137783 -0.180225 -0.156015 
0.0383834 -0.023675 0.108319 0.0988271 -0.128215 -0.167577 0.118215 -0.143788 -0.034729 
0.148034 -0.192061 -0.130159 0.0932008 -0.105456 0.0186773 0.0390824 -0.0314681 0.0239794 
0.0716927 -0.0794429 -0.0210194 0.12057 -0.156128 -0.147365 0.148907 -0.188011 -0.0656265 
0.0948971 -0.121014 -0.144666 0.0847395 -0.0876513 0.0963717 0.0783604 -0.0828512 0.0486706 
0.0924704 -0.116026 -0.123839 0.0422603 -0.0341685 0.0439332 0.130381 -0.16147 -0.0488609 
0.0645294 -0.0592582 0.107755 
f 3 100 double
0 0 0 0 0 0 0 0 0 
0 0 0 0 0 0 0 0 0 
0 0 0 0 0 0 0 0 0 
0 0 0 0 0 0 0 0 0 
0 0 0 0 0 0 0 0 0 
0 0 0 0 0 0 0 0 0 
0 0 0 0 0 0 0 0 0 
0 0 0 0 0 0 0 0 0 
0 0 0 0 0 0 0 0 0 
0 0 0 0 0 0 0 0 0 
0 0 0 0 0 0 0.145597 0.0197796 0.469583 
0 0 0 0 0 0 0 0 0 
0 0 0 0 0 0 0 0 0 
0 0 0 0 0 0 0 0 0 
0 0 0 0 0 0 0 0 0 
0 0 0 0 0 0 0 0 0 
0 0 0 0 0 0 0 0 0 
0 0 0 0 0 0 0 0 0 
0 0 0 0 0 0 0 0 0 
0 0 0 0 0 0 0 0 0 
0 0 0 0 0 0 0 0 0 
0 0 0 0 0 0 0 0 0 
0 0 0 0 0 0 0 0 0 
0 0 0 0 0 0 0 0 0 
0 0 0 0 0 0 0 0 0 
0 0 0 0 0 0 0 0 0 
0 0 0 0 0 0 0 0 0 
0 0 0 -0.0952131 -0.00896813 0.0595126 0 0 0 
0 0 0 0 0 0 0 0 0 
0 0 0 0 0 0 0 0 0 
0 0 0 0 0 0 0 0 0 
0 0 0 0 0 0 0 0 0 
0 0 0 0 0 0 0 0 0 
0 0 0 
radius 1 100 double
0.010434 0.00981478 0.00892069 0.00845937 0.00731974 0.00728422 0.00643447 0.00619172 0.00585956 
0.00577566 0.00537241 0.00522549 0.00513666 0.00473175 0.00466912 0.00444866 0.00441894 0.00400812 
0.00385622 0.00379948 0.00370243 0.00366942 0.00364039 0.00363813 0.00363644 0.00358692 0.0035797 
0.00341284 0.00337012 0.00336273 0.00332772 0.00323261 0.00320584 0.00320311 0.00318808 0.00313116 
0.00306026 0.00305632 0.00304383 0.00300958 0.00300137 0.00298994 0.0029567 0.00295111 0.00290849 
0.00284552 0.00282964 0.0028207 0.00281971 0.00281899 0.010434 0.00981478 0.00892069 0.00845937 
0.00731974 0.00728422 0.00643447 0.00619172 0.00585956 0.00577566 0.00537241 0.00522549 0.00513666 
0.00473175 0.00466912 0.00444866 0.00441894 0.00400812 0.00385622 0.00379948 0.00370243 0.00366942 
0.00364039 0.00363813 0.00363644 0.00358692 0.0035797 0.00341284 0.00337012 0.00336273 0.00332772 
0.00323261 0.00320584 0.00320311 0.00318808 0.00313116 0.00306026 0.00305632 0.00304383 0.00300958 
0.00300137 0.00298994 0.0029567 0.00295111 0.00290849 0.00284552 0.00282964 0.0028207 0.00281971 
0.00281899 
omega 3 100 double
8.22331 7.18509 -1.4997 8.22331 7.18509 -1.4997 8.22331 7.18509 -1.4997 
8.22331 7.18509 -1.4997 8.22331 7.18509 -1.4997 8.22331 7.18509 -1.4997 
8.22331 7.18509 -1.4997 8.22331 7.18509 -1.4997 8.22331 7.18509 -1.4997 
8.22331 7.18509 -1.4997 8.22331 7.18509 -1.4997 8.22331 7.18509 -1.4997 
8.22331 7.18509 -1.4997 8.22331 7.18509 -1.4997 8.22331 7.18509 -1.4997 
8.22331 7.18509 -1.4997 8.22331 7.18509 -1.4997 8.22331 7.18509 -1.4997 
8.22331 7.18509 -1.4997 8.22331 7.18509 -1.4997 8.22331 7.18509 -1.4997 
8.22331 7.18509 -1.4997 8.22331 7.18509 -1.4997 8.22331 7.18509 -1.4997 
8.22331 7.18509 -1.4997 8.22331 7.18509 -1.4997 8.22331 7.18509 -1.4997 
8.22331 7.18509 -1.4997 8.22331 7.18509 -1.4997 8.22331 7.18509 -1.4997 
8.22331 7.18509 -1.4997 8.22331 7.18509 -1.4997 8.22331 7.18509 -1.4997 
8.22331 7.18509 -1.4997 8.22331 7.18509 -1.4997 8.22331 7.18509 -1.4997 
8.22331 7.18509 -1.4997 8.22331 7.18509 -1.4997 8.22331 7.18509 -1.4997 
8.22331 7.18509 -1.4997 8.22331 7.18509 -1.4997 8.22331 7.18509 -1.4997 
8.22331 7.18509 -1.4997 8.22331 7.18509 -1.4997 8.22331 7.18509 -1.4997 
8.22331 7.18509 -1.4997 8.22331 7.18509 -1.4997 8.22331 7.18509 -1.4997 
8.22331 7.18509 -1.4997 8.22331 7.18509 -1.4997 7.16337 5.27031 -0.427615 
7.16337 5.27031 -0.427615 7.16337 5.27031 -0.427615 7.16337 5.27031 -0.427615 
7.16337 5.27031 -0.427615 7.16337 5.27031 -0.427615 7.16337 5.27031 -0.427615 
7.16337 5.27031 -0.427615 7.16337 5.27031 -0.427615 7.16337 5.27031 -0.427615 
7.16337 5.27031 -0.427615 7.16337 5.27031 -0.427615 7.16337 5.27031 -0.427615 
7.16337 5.27031 -0.427615 7.16337 5.27031 -0.427615 7.16337 5.27031 -0.427615 
7.16337 5.27031 -0.427615 7.16337 5.27031 -0.427615 7.16337 5.27031 -0.427615 
7.16337 5.27031 -0.427615 7.16337 5.27031 -0.427615 7.16337 5.27031 -0.427615 
7.16337 5.27031 -0.427615 7.16337 5.27031 -0.427615 7.16337 5.27031 -0.427615 
7.16337 5.27031 -0.427615 7.16337 5.27031 -0.427615 7.16337 5.27031 -0.427615 
7.16337 5.27031 -0.427615 7.16337 5.27031 -0.427615 7.16337 5.27031 -0.427615 
7.16337 5.27031 -0.427615 7.16337 5.27031 -0.427615 7.16337 5.27031 -0.427615 
7.16337 5.27031 -0.427615 7.16337 5.27031 -0.427615 7.16337 5.27031 -0.427615 
7.16337 5.27031 -0.427615 7.16337 5.27031 -0.427615 7.16337 5.27031 -0.427615 
7.16337 5.27031 -0.427615 7.16337 5.27031 -0.427615 7.16337 5.27031 -0.427615 
7.16337 5.27031 -0.427615 7.16337 5.27031 -0.427615 7.16337 5.27031 -0.427615 
7.16337 5.27031 -0.427615 7.16337 5.27031 -0.427615 7.16337 5.27031 -0.427615 
7.16337 5.27031 -0.427615 
