# vtk DataFile Version 4.0
Generated by LIGGGHTS
ASCII
DATASET POLYDATA
POINTS 100 float
-0.113148 -0.131562 0.023609 -0.123368 -0.132522 0.0216156 -0.13339 -0.132816 0.0216022 
-0.119034 -0.133475 0.0322519 -0.105798 -0.130374 0.0310004 -0.127644 -0.134447 0.0308433 
-0.138669 -0.1354 0.0285574 -0.110641 -0.135149 0.0342016 -0.142291 -0.133877 0.0209939 
-0.117823 -0.128995 0.0139463 -0.123997 -0.136822 0.0383202 -0.134173 -0.136654 0.0337194 
-0.123337 -0.125732 0.0141396 -0.118335 -0.137716 0.04028 -0.129308 -0.126907 0.0155012 
-0.129899 -0.137722 0.0369879 -0.112204 -0.12936 0.0361162 -0.140496 -0.12756 0.0186899 
-0.113064 -0.133957 0.0132876 -0.14506 -0.137056 0.0260457 -0.116836 -0.137796 0.0160671 
-0.122182 -0.138999 0.0433192 -0.107183 -0.138029 0.0296369 -0.0990965 -0.126649 0.0301907 
-0.102587 -0.132217 0.0246288 -0.119139 -0.124244 0.0176678 -0.105322 -0.123956 0.0273112 
-0.101656 -0.124351 0.0322673 -0.126499 -0.139059 0.042658 -0.124555 -0.12738 0.0300109 
-0.12972 -0.139035 0.0414887 -0.103883 -0.135959 0.0356532 -0.129026 -0.139109 0.0169836 
-0.11341 -0.138328 0.0392535 -0.147629 -0.136576 0.0205814 -0.104432 -0.13683 0.0271059 
-0.13426 -0.138909 0.0389342 -0.114316 -0.134914 0.0393073 -0.140633 -0.138585 0.0339016 
-0.123409 -0.130657 0.0117269 -0.132033 -0.139432 0.0277694 -0.115193 -0.139834 0.0366023 
-0.113821 -0.126516 0.0330973 -0.112837 -0.139967 0.0301114 -0.141166 -0.129995 0.0255058 
-0.144076 -0.138375 0.0308389 -0.103057 -0.130993 0.0209285 -0.126432 -0.129967 0.0125375 
-0.133524 -0.139191 0.0419205 -0.133967 -0.125353 0.0158138 -0.0442662 -0.103767 0.0231556 
-0.0544358 -0.104731 0.0209229 -0.0644546 -0.105043 0.0206787 -0.0503443 -0.105749 0.0316487 
-0.0370888 -0.102616 0.0307208 -0.0589173 -0.106727 0.0300372 -0.0698853 -0.107685 0.0274939 
-0.0419944 -0.107421 0.0337781 -0.073337 -0.106116 0.0198602 -0.0487244 -0.101142 0.0134064 
-0.0554371 -0.109146 0.0375792 -0.0655057 -0.108965 0.0327485 -0.0542479 -0.0978898 0.0134959 
-0.0498202 -0.110043 0.0396616 -0.0602464 -0.0990854 0.0147129 -0.0613058 -0.110048 0.0361064 
-0.0436124 -0.101648 0.0356958 -0.0715024 -0.0997807 0.0176408 -0.0439419 -0.10609 0.0128228 
-0.0762144 -0.109335 0.0248257 -0.0477686 -0.109955 0.0154892 -0.0537329 -0.111355 0.0426033 
-0.0384269 -0.110264 0.0292739 -0.0303782 -0.0988729 0.0300897 -0.0337298 -0.104409 0.0244118 
-0.0501341 -0.0964184 0.0171291 -0.0365415 -0.096171 0.0270872 -0.032989 -0.0965939 0.0321229 
-0.0580339 -0.111418 0.0418434 -0.0558242 -0.0996489 0.0293238 -0.0612271 -0.111392 0.040601 
-0.0352699 -0.108229 0.035378 -0.0599739 -0.111297 0.0161182 -0.0448718 -0.11064 0.0387436 
-0.0786593 -0.108823 0.0193075 -0.0356217 -0.109042 0.0268147 -0.0657077 -0.111256 0.0379445 
-0.0457851 -0.107228 0.0388 -0.0719645 -0.11091 0.03277 -0.0542552 -0.102799 0.0110488 
-0.0632256 -0.111699 0.0268301 -0.0465907 -0.112131 0.0360422 -0.0451655 -0.0987868 0.0326602 
-0.0440874 -0.112214 0.0296061 -0.0723229 -0.102264 0.0244229 -0.0753374 -0.110685 0.029631 
-0.0341177 -0.103161 0.0207102 -0.0572975 -0.10212 0.0117949 -0.065039 -0.111557 0.0409448 
-0.064914 -0.0975421 0.0149296 
VERTICES 100 200
1 0 
1 1 
1 2 
1 3 
1 4 
1 5 
1 6 
1 7 
1 8 
1 9 
1 10 
1 11 
1 12 
1 13 
1 14 
1 15 
1 16 
1 17 
1 18 
1 19 
1 20 
1 21 
1 22 
1 23 
1 24 
1 25 
1 26 
1 27 
1 28 
1 29 
1 30 
1 31 
1 32 
1 33 
1 34 
1 35 
1 36 
1 37 
1 38 
1 39 
1 40 
1 41 
1 42 
1 43 
1 44 
1 45 
1 46 
1 47 
1 48 
1 49 
1 50 
1 51 
1 52 
1 53 
1 54 
1 55 
1 56 
1 57 
1 58 
1 59 
1 60 
1 61 
1 62 
1 63 
1 64 
1 65 
1 66 
1 67 
1 68 
1 69 
1 70 
1 71 
1 72 
1 73 
1 74 
1 75 
1 76 
1 77 
1 78 
1 79 
1 80 
1 81 
1 82 
1 83 
1 84 
1 85 
1 86 
1 87 
1 88 
1 89 
1 90 
1 91 
1 92 
1 93 
1 94 
1 95 
1 96 
1 97 
1 98 
1 99 

POINT_DATA 100
FIELD FieldData 7
id 1 100 int
1 2 3 4 5 6 7 8 9 
10 11 12 13 14 15 16 17 18 
19 20 21 22 23 24 25 26 27 
28 29 30 31 32 33 34 35 36 
37 38 39 40 41 42 43 44 45 
46 47 48 49 50 51 52 53 54 
55 56 57 58 59 60 61 62 63 
64 65 66 67 68 69 70 71 72 
73 74 75 76 77 78 79 80 81 
82 83 84 85 86 87 88 89 90 
91 92 93 94 95 96 97 98 99 
100 
mol 1 100 int
1 1 1 1 1 1 1 1 1 
1 1 1 1 1 1 1 1 1 
1 1 1 1 1 1 1 1 1 
1 1 1 1 1 1 1 1 1 
1 1 1 1 1 1 1 1 1 
1 1 1 1 1 2 2 2 2 
2 2 2 2 2 2 2 2 2 
2 2 2 2 2 2 2 2 2 
2 2 2 2 2 2 2 2 2 
2 2 2 2 2 2 2 2 2 
2 2 2 2 2 2 2 2 2 
2 
type 1 100 int
1 1 1 1 1 1 1 1 1 
1 1 1 1 1 1 1 1 1 
1 1 1 1 1 1 1 1 1 
1 1 1 1 1 1 1 1 1 
1 1 1 1 1 1 1 1 1 
1 1 1 1 1 1 1 1 1 
1 1 1 1 1 1 1 1 1 
1 1 1 1 1 1 1 1 1 
1 1 1 1 1 1 1 1 1 
1 1 1 1 1 1 1 1 1 
1 1 1 1 1 1 1 1 1 
1 
v 3 100 double
-0.117613 -0.0617754 -0.000787841 -0.103162 -0.0619165 -0.0748027 -0.102959 -0.0656007 -0.146205 
-0.178018 -0.0797382 -0.045902 -0.170316 -0.0725544 0.0533554 -0.167698 -0.0803513 -0.108552 
-0.151182 -0.0802564 -0.18825 -0.191185 -0.0801931 0.0103889 -0.098265 -0.0677834 -0.21108 
-0.0502386 -0.0458582 -0.0291554 -0.219688 -0.092657 -0.0871014 -0.187218 -0.0880199 -0.158748 
-0.0528129 -0.0482516 -0.0621838 -0.233214 -0.0941412 -0.0487032 -0.0620059 -0.052948 -0.106553 
-0.209934 -0.0924079 -0.13048 -0.206864 -0.084268 0.00990853 -0.0843111 -0.0629113 -0.186851 
-0.043745 -0.0428942 -0.00456701 -0.13281 -0.0780343 -0.236466 -0.061978 -0.0493662 -0.0382486 
-0.254229 -0.101115 -0.0782485 -0.157842 -0.0705766 0.029584 -0.165969 -0.068596 0.107542 
-0.124581 -0.0597298 0.0726942 -0.0783111 -0.0531416 -0.0297803 -0.146606 -0.0656408 0.0684432 
-0.181503 -0.0733356 0.0936409 -0.249532 -0.101505 -0.108885 -0.164428 -0.0776882 -0.0738049 
-0.241273 -0.100561 -0.131614 -0.201149 -0.0803434 0.0566932 -0.0679723 -0.0555508 -0.126842 
-0.225729 -0.090444 -0.0149973 -0.0943495 -0.0690055 -0.253758 -0.14039 -0.0649365 0.0512231 
-0.223257 -0.0975761 -0.163485 -0.227373 -0.0908774 -0.0151659 -0.187792 -0.0907432 -0.207954 
-0.0339306 -0.043872 -0.0716893 -0.144118 -0.0763617 -0.148694 -0.206426 -0.0862618 -0.0303535 
-0.18657 -0.0793529 0.00366885 -0.160481 -0.0735358 -0.0139398 -0.131604 -0.0756071 -0.196036 
-0.166214 -0.086424 -0.231917 -0.09887 -0.0531459 0.0716044 -0.0399179 -0.0464712 -0.091806 
-0.244268 -0.102758 -0.158792 -0.0647911 -0.0552427 -0.136656 -0.116781 -0.0614275 -0.0489339 
-0.100897 -0.0614204 -0.121284 -0.0990792 -0.0648919 -0.191426 -0.174998 -0.0789049 -0.0946771 
-0.169774 -0.0720867 0.00296516 -0.163424 -0.0793806 -0.155961 -0.145385 -0.0791322 -0.233846 
-0.189136 -0.0794376 -0.0396557 -0.0929753 -0.0668986 -0.255029 -0.0500889 -0.0458231 -0.0752308 
-0.214864 -0.0914398 -0.136093 -0.181382 -0.0867719 -0.205704 -0.0519787 -0.0481357 -0.107809 
-0.228978 -0.0929543 -0.0986753 -0.0599649 -0.0526389 -0.1516 -0.204283 -0.0911078 -0.178458 
-0.204706 -0.0834796 -0.0406238 -0.0800302 -0.0622354 -0.231017 -0.044106 -0.0429205 -0.0508153 
-0.126209 -0.0768533 -0.28074 -0.0611197 -0.0491556 -0.0842691 -0.248899 -0.0997126 -0.128184 
-0.156743 -0.0700346 -0.0199332 -0.16685 -0.068348 0.0562326 -0.125255 -0.0595544 0.0231067 
-0.0777872 -0.0529948 -0.0766189 -0.147049 -0.0654098 0.0182305 -0.181861 -0.0729826 0.0421528 
-0.243596 -0.100037 -0.15817 -0.161228 -0.0769056 -0.121887 -0.234978 -0.0990724 -0.180302 
-0.199933 -0.079662 0.0056139 -0.0649653 -0.0550326 -0.171429 -0.22237 -0.0893923 -0.0653664 
-0.088082 -0.0679905 -0.296811 -0.140138 -0.0645663 0.0017238 -0.216579 -0.0960935 -0.211183 
-0.224091 -0.0898486 -0.0656412 -0.180774 -0.0893282 -0.254023 -0.0330678 -0.0437855 -0.116593 
-0.13921 -0.0753551 -0.19473 -0.203026 -0.085257 -0.0799572 -0.184737 -0.0786852 -0.0463222 
-0.15829 -0.0728322 -0.0627192 -0.126168 -0.0746196 -0.241133 -0.159059 -0.0850593 -0.277051 
-0.100031 -0.053121 0.0226317 -0.0385146 -0.0462987 -0.136516 -0.237301 -0.10117 -0.207073 
-0.0620716 -0.0548441 -0.181274 
f 3 100 double
0 0 0 0 0 0 0 0 0 
0 0 0 0 0 0 0 0 0 
0 0 0 0 0 0 0 0 0 
0 0 0 0 0 0 0 0 0 
0 0 0 0 0 0 0 0 0 
0 0 0 0 0 0 0 0 0 
0 0 0 0 0 0 0 0 0 
0 0 0 0 0 0 0 0 0 
0 0 0 0 0 0 0 0 0 
0 0 0 0 0 0 0 0 0 
0 0 0 0 0 0 0 0 0 
0 0 0 0 0 0 0 0 0 
0 0 0 0 0 0 0 0 0 
0 0 0 0 0 0 0 0 0 
0 0 0 0 0 0 0 0 0 
0 0 0 0 0 0 0 0 0 
0 0 0 0 0 0 0 0 0 
0 0 0 0 0 0 0 0 0 
0 0 0 0 0 0 0 0 0 
0 0 0 0 0 0 0 0 0 
0 0 0 0 0 0 0 0 0 
0 0 0 0 0 0 0 0 0 
0 0 0 0 0 0 0 0 0 
0 0 0 0 0 0 0 0 0 
0 0 0 0 0 0 0 0 0 
0 0 0 0 0 0 0 0 0 
0 0 0 0 0 0 0 0 0 
0 0 0 0 0 0 0 0 0 
0 0 0 0 0 0 0 0 0 
0 0 0 0 0 0 0 0 0 
0 0 0 0 0 0 0 0 0 
0 0 0 0 0 0 0 0 0 
0 0 0 0 0 0 0 0 0 
0 0 0 
radius 1 100 double
0.010434 0.00981478 0.00892069 0.00845937 0.00731974 0.00728422 0.00643447 0.00619172 0.00585956 
0.00577566 0.00537241 0.00522549 0.00513666 0.00473175 0.00466912 0.00444866 0.00441894 0.00400812 
0.00385622 0.00379948 0.00370243 0.00366942 0.00364039 0.00363813 0.00363644 0.00358692 0.0035797 
0.00341284 0.00337012 0.00336273 0.00332772 0.00323261 0.00320584 0.00320311 0.00318808 0.00313116 
0.00306026 0.00305632 0.00304383 0.00300958 0.00300137 0.00298994 0.0029567 0.00295111 0.00290849 
0.00284552 0.00282964 0.0028207 0.00281971 0.00281899 0.010434 0.00981478 0.00892069 0.00845937 
0.00731974 0.00728422 0.00643447 0.00619172 0.00585956 0.00577566 0.00537241 0.00522549 0.00513666 
0.00473175 0.00466912 0.00444866 0.00441894 0.00400812 0.00385622 0.00379948 0.00370243 0.00366942 
0.00364039 0.00363813 0.00363644 0.00358692 0.0035797 0.00341284 0.00337012 0.00336273 0.00332772 
0.00323261 0.00320584 0.00320311 0.00318808 0.00313116 0.00306026 0.00305632 0.00304383 0.00300958 
0.00300137 0.00298994 0.0029567 0.00295111 0.00290849 0.00284552 0.00282964 0.0028207 0.00281971 
0.00281899 
omega 3 100 double
1.82631 -7.07089 0.37004 1.82631 -7.07089 0.37004 1.82631 -7.07089 0.37004 
1.82631 -7.07089 0.37004 1.82631 -7.07089 0.37004 1.82631 -7.07089 0.37004 
1.82631 -7.07089 0.37004 1.82631 -7.07089 0.37004 1.82631 -7.07089 0.37004 
1.82631 -7.07089 0.37004 1.82631 -7.07089 0.37004 1.82631 -7.07089 0.37004 
1.82631 -7.07089 0.37004 1.82631 -7.07089 0.37004 1.82631 -7.07089 0.37004 
1.82631 -7.07089 0.37004 1.82631 -7.07089 0.37004 1.82631 -7.07089 0.37004 
1.82631 -7.07089 0.37004 1.82631 -7.07089 0.37004 1.82631 -7.07089 0.37004 
1.82631 -7.07089 0.37004 1.82631 -7.07089 0.37004 1.82631 -7.07089 0.37004 
1.82631 -7.07089 0.37004 1.82631 -7.07089 0.37004 1.82631 -7.07089 0.37004 
1.82631 -7.07089 0.37004 1.82631 -7.07089 0.37004 1.82631 -7.07089 0.37004 
1.82631 -7.07089 0.37004 1.82631 -7.07089 0.37004 1.82631 -7.07089 0.37004 
1.82631 -7.07089 0.37004 1.82631 -7.07089 0.37004 1.82631 -7.07089 0.37004 
1.82631 -7.07089 0.37004 1.82631 -7.07089 0.37004 1.82631 -7.07089 0.37004 
1.82631 -7.07089 0.37004 1.82631 -7.07089 0.37004 1.82631 -7.07089 0.37004 
1.82631 -7.07089 0.37004 1.82631 -7.07089 0.37004 1.82631 -7.07089 0.37004 
1.82631 -7.07089 0.37004 1.82631 -7.07089 0.37004 1.82631 -7.07089 0.37004 
1.82631 -7.07089 0.37004 1.82631 -7.07089 0.37004 1.77885 -6.94566 0.389849 
1.77885 -6.94566 0.389849 1.77885 -6.94566 0.389849 1.77885 -6.94566 0.389849 
1.77885 -6.94566 0.389849 1.77885 -6.94566 0.389849 1.77885 -6.94566 0.389849 
1.77885 -6.94566 0.389849 1.77885 -6.94566 0.389849 1.77885 -6.94566 0.389849 
1.77885 -6.94566 0.389849 1.77885 -6.94566 0.389849 1.77885 -6.94566 0.389849 
1.77885 -6.94566 0.389849 1.77885 -6.94566 0.389849 1.77885 -6.94566 0.389849 
1.77885 -6.94566 0.389849 1.77885 -6.94566 0.389849 1.77885 -6.94566 0.389849 
1.77885 -6.94566 0.389849 1.77885 -6.94566 0.389849 1.77885 -6.94566 0.389849 
1.77885 -6.94566 0.389849 1.77885 -6.94566 0.389849 1.77885 -6.94566 0.389849 
1.77885 -6.94566 0.389849 1.77885 -6.94566 0.389849 1.77885 -6.94566 0.389849 
1.77885 -6.94566 0.389849 1.77885 -6.94566 0.389849 1.77885 -6.94566 0.389849 
1.77885 -6.94566 0.389849 1.77885 -6.94566 0.389849 1.77885 -6.94566 0.389849 
1.77885 -6.94566 0.389849 1.77885 -6.94566 0.389849 1.77885 -6.94566 0.389849 
1.77885 -6.94566 0.389849 1.77885 -6.94566 0.389849 1.77885 -6.94566 0.389849 
1.77885 -6.94566 0.389849 1.77885 -6.94566 0.389849 1.77885 -6.94566 0.389849 
1.77885 -6.94566 0.389849 1.77885 -6.94566 0.389849 1.77885 -6.94566 0.389849 
1.77885 -6.94566 0.389849 1.77885 -6.94566 0.389849 1.77885 -6.94566 0.389849 
1.77885 -6.94566 0.389849 
