# vtk DataFile Version 4.0
Generated by LIGGGHTS
ASCII
DATASET POLYDATA
POINTS 100 float
-0.116888 -0.133459 0.0192178 -0.126438 -0.134391 0.0150629 -0.136225 -0.134758 0.0129149 
-0.124429 -0.135854 0.0263166 -0.111285 -0.132595 0.0280457 -0.132529 -0.136816 0.0230728 
-0.142804 -0.137734 0.0184625 -0.116607 -0.137563 0.029915 -0.144776 -0.135853 0.0103864 
-0.119464 -0.130437 0.00892026 -0.130499 -0.139543 0.0310285 -0.139476 -0.139216 0.0243921 
-0.124953 -0.127228 0.00809988 -0.125363 -0.140494 0.0340963 -0.131055 -0.128516 0.00810868 
-0.13597 -0.140417 0.0284355 -0.118644 -0.131891 0.0317329 -0.14265 -0.129414 0.00882246 
-0.114585 -0.135323 0.00904445 -0.148491 -0.139307 0.0145782 -0.118788 -0.139327 0.010774 
-0.129741 -0.141959 0.0361869 -0.112212 -0.140181 0.0260517 -0.104632 -0.128784 0.0288534 
-0.106769 -0.134086 0.0224164 -0.121621 -0.125891 0.0125043 -0.110157 -0.125993 0.0248555 
-0.107613 -0.126614 0.03045 -0.13382 -0.142017 0.0346251 -0.129462 -0.129694 0.0232555 
-0.136721 -0.141957 0.0328033 -0.110294 -0.138396 0.0327228 -0.130872 -0.140775 0.00902565 
-0.120322 -0.141016 0.0341068 -0.149858 -0.138568 0.00872361 -0.109012 -0.138833 0.0242211 
-0.140621 -0.141735 0.0293551 -0.12128 -0.137617 0.0341327 -0.145794 -0.141202 0.0231097 
-0.124426 -0.132025 0.0054914 -0.13608 -0.141671 0.0189024 -0.121478 -0.142398 0.0310687 
-0.119638 -0.128909 0.0285813 -0.117804 -0.142182 0.0252247 -0.144699 -0.132199 0.0152164 
-0.148517 -0.140862 0.0194016 -0.10647 -0.132679 0.018764 -0.127564 -0.131399 0.00567634 
-0.140526 -0.142163 0.0324124 -0.135702 -0.127015 0.00750311 -0.0479742 -0.105652 0.0173136 
-0.0574409 -0.106586 0.0129723 -0.0671841 -0.106965 0.010636 -0.0556437 -0.108103 0.0242545 
-0.042543 -0.104821 0.0262513 -0.0636772 -0.109068 0.0208516 -0.0738605 -0.109987 0.0160412 
-0.0478874 -0.109812 0.0279924 -0.0756829 -0.108068 0.00793899 -0.0503619 -0.102581 0.00698484 
-0.0617924 -0.111832 0.0288301 -0.0706426 -0.111492 0.0220254 -0.0558422 -0.0993818 0.00607679 
-0.0567137 -0.112786 0.0319903 -0.0619399 -0.100685 0.00596232 -0.0672109 -0.112706 0.0261285 
-0.0499726 -0.104154 0.029801 -0.0735438 -0.101615 0.00644991 -0.045473 -0.107455 0.00717636 
-0.079468 -0.111553 0.0120408 -0.0496983 -0.111479 0.00880421 -0.0611267 -0.114274 0.0339892 
-0.0434127 -0.112398 0.0241999 -0.0359166 -0.100998 0.0272059 -0.0379171 -0.10627 0.0207014 
-0.0525983 -0.09806 0.010551 -0.0413718 -0.0981992 0.023118 -0.0389332 -0.0988436 0.0287567 
-0.0651748 -0.114334 0.0323495 -0.0606328 -0.101939 0.0211304 -0.0680411 -0.114271 0.030473 
-0.041627 -0.110644 0.0309157 -0.0617424 -0.112948 0.00681793 -0.0516725 -0.113296 0.0320942 
-0.080725 -0.110786 0.00616522 -0.0401814 -0.111033 0.0224379 -0.0718755 -0.11404 0.0269523 
-0.0526396 -0.1099 0.0321198 -0.0769291 -0.113487 0.0206121 -0.0552528 -0.104163 0.00345358 
-0.0671359 -0.113909 0.0165887 -0.0527667 -0.114665 0.0290274 -0.0509146 -0.101158 0.0266467 
-0.0489825 -0.114408 0.0232558 -0.0757069 -0.104439 0.0127888 -0.0795816 -0.113134 0.0168546 
-0.0375521 -0.104843 0.0170629 -0.0583955 -0.103546 0.00358188 -0.0718379 -0.114485 0.0300085 
-0.0665784 -0.0991917 0.0052761 
VERTICES 100 200
1 0 
1 1 
1 2 
1 3 
1 4 
1 5 
1 6 
1 7 
1 8 
1 9 
1 10 
1 11 
1 12 
1 13 
1 14 
1 15 
1 16 
1 17 
1 18 
1 19 
1 20 
1 21 
1 22 
1 23 
1 24 
1 25 
1 26 
1 27 
1 28 
1 29 
1 30 
1 31 
1 32 
1 33 
1 34 
1 35 
1 36 
1 37 
1 38 
1 39 
1 40 
1 41 
1 42 
1 43 
1 44 
1 45 
1 46 
1 47 
1 48 
1 49 
1 50 
1 51 
1 52 
1 53 
1 54 
1 55 
1 56 
1 57 
1 58 
1 59 
1 60 
1 61 
1 62 
1 63 
1 64 
1 65 
1 66 
1 67 
1 68 
1 69 
1 70 
1 71 
1 72 
1 73 
1 74 
1 75 
1 76 
1 77 
1 78 
1 79 
1 80 
1 81 
1 82 
1 83 
1 84 
1 85 
1 86 
1 87 
1 88 
1 89 
1 90 
1 91 
1 92 
1 93 
1 94 
1 95 
1 96 
1 97 
1 98 
1 99 

POINT_DATA 100
FIELD FieldData 7
id 1 100 int
1 2 3 4 5 6 7 8 9 
10 11 12 13 14 15 16 17 18 
19 20 21 22 23 24 25 26 27 
28 29 30 31 32 33 34 35 36 
37 38 39 40 41 42 43 44 45 
46 47 48 49 50 51 52 53 54 
55 56 57 58 59 60 61 62 63 
64 65 66 67 68 69 70 71 72 
73 74 75 76 77 78 79 80 81 
82 83 84 85 86 87 88 89 90 
91 92 93 94 95 96 97 98 99 
100 
mol 1 100 int
1 1 1 1 1 1 1 1 1 
1 1 1 1 1 1 1 1 1 
1 1 1 1 1 1 1 1 1 
1 1 1 1 1 1 1 1 1 
1 1 1 1 1 1 1 1 1 
1 1 1 1 1 2 2 2 2 
2 2 2 2 2 2 2 2 2 
2 2 2 2 2 2 2 2 2 
2 2 2 2 2 2 2 2 2 
2 2 2 2 2 2 2 2 2 
2 2 2 2 2 2 2 2 2 
2 
type 1 100 int
1 1 1 1 1 1 1 1 1 
1 1 1 1 1 1 1 1 1 
1 1 1 1 1 1 1 1 1 
1 1 1 1 1 1 1 1 1 
1 1 1 1 1 1 1 1 1 
1 1 1 1 1 1 1 1 1 
1 1 1 1 1 1 1 1 1 
1 1 1 1 1 1 1 1 1 
1 1 1 1 1 1 1 1 1 
1 1 1 1 1 1 1 1 1 
1 1 1 1 1 1 1 1 1 
1 
v 3 100 double
-0.131792 -0.0646777 -0.292511 -0.101747 -0.0627563 -0.362002 -0.0862667 -0.063966 -0.43233 
-0.181315 -0.0787995 -0.349887 -0.195123 -0.0754333 -0.251264 -0.157751 -0.0775916 -0.40908 
-0.124465 -0.0753134 -0.483721 -0.206193 -0.0806677 -0.296696 -0.0677423 -0.0640412 -0.494946 
-0.0597503 -0.0503333 -0.306328 -0.213232 -0.088656 -0.398716 -0.166067 -0.0827357 -0.462229 
-0.0553592 -0.0515907 -0.340625 -0.234671 -0.0909451 -0.363535 -0.0548368 -0.054376 -0.386068 
-0.194348 -0.0872348 -0.439041 -0.22173 -0.0843317 -0.302667 -0.0595177 -0.0607188 -0.470085 
-0.0584161 -0.0483037 -0.278902 -0.0960583 -0.0720444 -0.526633 -0.0689278 -0.0528191 -0.314902 
-0.24891 -0.0960838 -0.396953 -0.177461 -0.0728502 -0.269305 -0.202613 -0.0736279 -0.198091 
-0.154312 -0.0649003 -0.221318 -0.0873672 -0.056713 -0.314855 -0.175377 -0.0701143 -0.233278 
-0.214981 -0.0773876 -0.216075 -0.237749 -0.0955836 -0.42612 -0.16229 -0.0764736 -0.376484 
-0.224788 -0.0941569 -0.446716 -0.225832 -0.0820302 -0.252943 -0.055805 -0.0556743 -0.403232 
-0.234509 -0.0886709 -0.328383 -0.0546545 -0.0638445 -0.535266 -0.165021 -0.0686381 -0.244458 
-0.200306 -0.0907334 -0.474187 -0.236238 -0.0891452 -0.330091 -0.156022 -0.0836733 -0.510259 
-0.0345833 -0.0474209 -0.344091 -0.125814 -0.0729216 -0.441714 -0.212222 -0.0846187 -0.338706 
-0.200615 -0.0800351 -0.305265 -0.170655 -0.0741445 -0.312187 -0.103837 -0.0712831 -0.488887 
-0.12974 -0.0793234 -0.529159 -0.128912 -0.0592615 -0.217065 -0.036186 -0.0491252 -0.365522 
-0.221908 -0.0952968 -0.474156 -0.0512016 -0.0555747 -0.416937 -0.130509 -0.0642516 -0.341059 
-0.0996773 -0.0622532 -0.408722 -0.0831414 -0.0633229 -0.477508 -0.177983 -0.077971 -0.398362 
-0.193481 -0.074854 -0.301807 -0.153708 -0.0766874 -0.456035 -0.119598 -0.0743315 -0.528693 
-0.20337 -0.079874 -0.346553 -0.0637458 -0.0632892 -0.53864 -0.0595963 -0.0502046 -0.353276 
-0.208303 -0.0875194 -0.446889 -0.160809 -0.0816234 -0.508366 -0.0547139 -0.0514019 -0.386961 
-0.229993 -0.0898107 -0.412724 -0.053311 -0.0540479 -0.431572 -0.188982 -0.0860577 -0.486116 
-0.218646 -0.0834889 -0.352857 -0.056296 -0.0601181 -0.514196 -0.0586881 -0.0482294 -0.32619 
-0.0908617 -0.071052 -0.570257 -0.0682308 -0.0525668 -0.361679 -0.243305 -0.094779 -0.445809 
-0.175619 -0.0722466 -0.31901 -0.20193 -0.0731961 -0.249797 -0.153947 -0.0645793 -0.27154 
-0.0866554 -0.056467 -0.362306 -0.174595 -0.069718 -0.283894 -0.213784 -0.0768627 -0.267762 
-0.231795 -0.0942422 -0.474245 -0.15895 -0.0756913 -0.424259 -0.218683 -0.0928128 -0.494225 
-0.223457 -0.0812725 -0.303934 -0.0536433 -0.0552117 -0.448176 -0.230486 -0.0876368 -0.37817 
-0.0500702 -0.0630145 -0.577935 -0.16391 -0.068171 -0.29438 -0.194135 -0.0894185 -0.520737 
-0.232233 -0.0881205 -0.37996 -0.149992 -0.0824517 -0.555315 -0.0341379 -0.0472824 -0.389846 
-0.121622 -0.0720312 -0.487355 -0.208379 -0.0836437 -0.387839 -0.19794 -0.0792973 -0.35506 
-0.16808 -0.0734323 -0.360964 -0.0993823 -0.0704134 -0.533486 -0.123842 -0.0781647 -0.573371 
-0.129126 -0.0590743 -0.26689 -0.0353209 -0.0489209 -0.410949 -0.215332 -0.0938837 -0.521126 
-0.0491946 -0.0551821 -0.461865 
f 3 100 double
0 0 0 0 0 0 0 0 0 
0 0 0 0 0 0 0 0 0 
0 0 0 0 0 0 0 0 0 
0 0 0 0 0 0 0 0 0 
0 0 0 0 0 0 0 0 0 
0 0 0 0 0 0 0 0 0 
0 0 0 0 0 0 0 0 0 
0 0 0 0 0 0 0 0 0 
0 0 0 0 0 0 0 0 0 
0 0 0 0 0 0 0 0 0 
0 0 0 0 0 0 0 0 0 
0 0 0 0 0 0 0 0 0 
0 0 0 0 0 0 0 0 0 
0 0 0 0 0 0 0 0 0 
0 0 0 0 0 0 0 0 0 
0 0 0 0 0 0 0 0 0 
0 0 0 0 0 0 0 0 0 
0 0 0 0 0 0 0 0 0 
0 0 0 0 0 0 0 0 0 
0 0 0 0 0 0 0 0 0 
0 0 0 0 0 0 0 0 0 
0 0 0 0 0 0 0 0 0 
0 0 0 0 0 0 0 0 0 
0 0 0 0 0 0 0 0 0 
0 0 0 0 0 0 0 0 0 
0 0 0 0 0 0 0 0 0 
0 0 0 0 0 0 0 0 0 
0 0 0 0 0 0 0 0 0 
0 0 0 0 0 0 0 0 0 
0 0 0 0 0 0 0 0 0 
0 0 0 0 0 0 0 0 0 
0 0 0 0 0 0 0 0 0 
0 0 0 0 0 0 0 0 0 
0 0 0 
radius 1 100 double
0.010434 0.00981478 0.00892069 0.00845937 0.00731974 0.00728422 0.00643447 0.00619172 0.00585956 
0.00577566 0.00537241 0.00522549 0.00513666 0.00473175 0.00466912 0.00444866 0.00441894 0.00400812 
0.00385622 0.00379948 0.00370243 0.00366942 0.00364039 0.00363813 0.00363644 0.00358692 0.0035797 
0.00341284 0.00337012 0.00336273 0.00332772 0.00323261 0.00320584 0.00320311 0.00318808 0.00313116 
0.00306026 0.00305632 0.00304383 0.00300958 0.00300137 0.00298994 0.0029567 0.00295111 0.00290849 
0.00284552 0.00282964 0.0028207 0.00281971 0.00281899 0.010434 0.00981478 0.00892069 0.00845937 
0.00731974 0.00728422 0.00643447 0.00619172 0.00585956 0.00577566 0.00537241 0.00522549 0.00513666 
0.00473175 0.00466912 0.00444866 0.00441894 0.00400812 0.00385622 0.00379948 0.00370243 0.00366942 
0.00364039 0.00363813 0.00363644 0.00358692 0.0035797 0.00341284 0.00337012 0.00336273 0.00332772 
0.00323261 0.00320584 0.00320311 0.00318808 0.00313116 0.00306026 0.00305632 0.00304383 0.00300958 
0.00300137 0.00298994 0.0029567 0.00295111 0.00290849 0.00284552 0.00282964 0.0028207 0.00281971 
0.00281899 
omega 3 100 double
1.50668 -7.12939 0.454291 1.50668 -7.12939 0.454291 1.50668 -7.12939 0.454291 
1.50668 -7.12939 0.454291 1.50668 -7.12939 0.454291 1.50668 -7.12939 0.454291 
1.50668 -7.12939 0.454291 1.50668 -7.12939 0.454291 1.50668 -7.12939 0.454291 
1.50668 -7.12939 0.454291 1.50668 -7.12939 0.454291 1.50668 -7.12939 0.454291 
1.50668 -7.12939 0.454291 1.50668 -7.12939 0.454291 1.50668 -7.12939 0.454291 
1.50668 -7.12939 0.454291 1.50668 -7.12939 0.454291 1.50668 -7.12939 0.454291 
1.50668 -7.12939 0.454291 1.50668 -7.12939 0.454291 1.50668 -7.12939 0.454291 
1.50668 -7.12939 0.454291 1.50668 -7.12939 0.454291 1.50668 -7.12939 0.454291 
1.50668 -7.12939 0.454291 1.50668 -7.12939 0.454291 1.50668 -7.12939 0.454291 
1.50668 -7.12939 0.454291 1.50668 -7.12939 0.454291 1.50668 -7.12939 0.454291 
1.50668 -7.12939 0.454291 1.50668 -7.12939 0.454291 1.50668 -7.12939 0.454291 
1.50668 -7.12939 0.454291 1.50668 -7.12939 0.454291 1.50668 -7.12939 0.454291 
1.50668 -7.12939 0.454291 1.50668 -7.12939 0.454291 1.50668 -7.12939 0.454291 
1.50668 -7.12939 0.454291 1.50668 -7.12939 0.454291 1.50668 -7.12939 0.454291 
1.50668 -7.12939 0.454291 1.50668 -7.12939 0.454291 1.50668 -7.12939 0.454291 
1.50668 -7.12939 0.454291 1.50668 -7.12939 0.454291 1.50668 -7.12939 0.454291 
1.50668 -7.12939 0.454291 1.50668 -7.12939 0.454291 1.46668 -7.00274 0.461482 
1.46668 -7.00274 0.461482 1.46668 -7.00274 0.461482 1.46668 -7.00274 0.461482 
1.46668 -7.00274 0.461482 1.46668 -7.00274 0.461482 1.46668 -7.00274 0.461482 
1.46668 -7.00274 0.461482 1.46668 -7.00274 0.461482 1.46668 -7.00274 0.461482 
1.46668 -7.00274 0.461482 1.46668 -7.00274 0.461482 1.46668 -7.00274 0.461482 
1.46668 -7.00274 0.461482 1.46668 -7.00274 0.461482 1.46668 -7.00274 0.461482 
1.46668 -7.00274 0.461482 1.46668 -7.00274 0.461482 1.46668 -7.00274 0.461482 
1.46668 -7.00274 0.461482 1.46668 -7.00274 0.461482 1.46668 -7.00274 0.461482 
1.46668 -7.00274 0.461482 1.46668 -7.00274 0.461482 1.46668 -7.00274 0.461482 
1.46668 -7.00274 0.461482 1.46668 -7.00274 0.461482 1.46668 -7.00274 0.461482 
1.46668 -7.00274 0.461482 1.46668 -7.00274 0.461482 1.46668 -7.00274 0.461482 
1.46668 -7.00274 0.461482 1.46668 -7.00274 0.461482 1.46668 -7.00274 0.461482 
1.46668 -7.00274 0.461482 1.46668 -7.00274 0.461482 1.46668 -7.00274 0.461482 
1.46668 -7.00274 0.461482 1.46668 -7.00274 0.461482 1.46668 -7.00274 0.461482 
1.46668 -7.00274 0.461482 1.46668 -7.00274 0.461482 1.46668 -7.00274 0.461482 
1.46668 -7.00274 0.461482 1.46668 -7.00274 0.461482 1.46668 -7.00274 0.461482 
1.46668 -7.00274 0.461482 1.46668 -7.00274 0.461482 1.46668 -7.00274 0.461482 
1.46668 -7.00274 0.461482 
