# vtk DataFile Version 4.0
Generated by LIGGGHTS
ASCII
DATASET POLYDATA
POINTS 100 float
-0.119633 -0.136338 0.0185065 -0.128543 -0.13652 0.0130356 -0.137955 -0.136413 0.00958149 
-0.128054 -0.13955 0.0241442 -0.11526 -0.136796 0.028032 -0.135647 -0.139913 0.0197553 
-0.145215 -0.140004 0.0137435 -0.120782 -0.141877 0.0284743 -0.146091 -0.136997 0.0058165 
-0.120814 -0.131885 0.00847723 -0.134696 -0.143742 0.0274546 -0.142707 -0.142346 0.0197985 
-0.126146 -0.128496 0.00739011 -0.130016 -0.145197 0.0310135 -0.132193 -0.129663 0.00641291 
-0.139772 -0.144154 0.0240645 -0.123046 -0.136473 0.0307747 -0.143779 -0.130443 0.00545474 
-0.115992 -0.136828 0.00856813 -0.150331 -0.140926 0.00896079 -0.120386 -0.140956 0.00915487 
-0.134632 -0.146857 0.0322832 -0.115909 -0.144018 0.0249016 -0.108777 -0.133251 0.030233 
-0.110032 -0.13758 0.022898 -0.123432 -0.127837 0.012339 -0.113721 -0.129839 0.0259644 
-0.111946 -0.131268 0.031706 -0.138466 -0.146627 0.0302025 -0.132636 -0.132939 0.021327 
-0.141098 -0.146265 0.0280388 -0.1149 -0.143201 0.0319501 -0.132127 -0.141934 0.00563924 
-0.125021 -0.145806 0.0316186 -0.150904 -0.139366 0.00313609 -0.112493 -0.142489 0.023715 
-0.144503 -0.145502 0.0241691 -0.125976 -0.142426 0.0319881 -0.148796 -0.144023 0.0174287 
-0.125272 -0.132898 0.00423544 -0.138607 -0.144084 0.0145199 -0.12576 -0.146737 0.0282925 
-0.123612 -0.133069 0.0279628 -0.121339 -0.145786 0.0230728 -0.146662 -0.134043 0.0110734 
-0.150999 -0.143128 0.0134761 -0.109249 -0.13569 0.0195477 -0.128407 -0.132247 0.00408829 
-0.144817 -0.146347 0.0271231 -0.136719 -0.12801 0.00541155 -0.0507582 -0.10857 0.0187168 
-0.0596536 -0.108732 0.0132229 -0.0690623 -0.108735 0.0097574 -0.0590743 -0.112361 0.0241458 
-0.0463782 -0.109418 0.0282124 -0.0666491 -0.112722 0.0197252 -0.0762048 -0.112784 0.0136947 
-0.0517333 -0.114691 0.0283566 -0.0771734 -0.109369 0.00594603 -0.0520756 -0.103602 0.0089493 
-0.0655797 -0.116943 0.0272008 -0.0736272 -0.115379 0.0196153 -0.0575133 -0.100332 0.00804042 
-0.0608568 -0.118444 0.0306841 -0.0635196 -0.101636 0.00698493 -0.0706372 -0.117328 0.0237807 
-0.0541719 -0.1095 0.03095 -0.0750736 -0.102734 0.00595673 -0.0470965 -0.108385 0.0087754 
-0.0812856 -0.113602 0.00885557 -0.0513558 -0.112678 0.00911993 -0.0654184 -0.12032 0.0318478 
-0.0467914 -0.116471 0.0246817 -0.0400141 -0.105796 0.0306237 -0.0411248 -0.109745 0.0230552 
-0.0548258 -0.099863 0.013025 -0.0450626 -0.102311 0.0265405 -0.0432462 -0.104001 0.0321976 
-0.0692563 -0.120097 0.029774 -0.0638658 -0.105753 0.0216915 -0.0718975 -0.1197 0.0276275 
-0.0458138 -0.116017 0.0317672 -0.0630568 -0.113836 0.00552682 -0.0558454 -0.118924 0.0312662 
-0.0819054 -0.111737 0.00312581 -0.0434263 -0.114769 0.0235906 -0.075323 -0.118831 0.0237984 
-0.0569091 -0.115603 0.0318217 -0.0796567 -0.117117 0.0171408 -0.056496 -0.104519 0.0046468 
-0.0694696 -0.116687 0.0142578 -0.056552 -0.119691 0.0278915 -0.0548464 -0.105964 0.0283314 
-0.0521605 -0.118307 0.0227438 -0.0778419 -0.106733 0.0113585 -0.0818855 -0.116073 0.0132391 
-0.0404009 -0.107647 0.0198177 -0.0596504 -0.103963 0.00452866 -0.0756114 -0.11985 0.0266997 
-0.0680954 -0.100076 0.00606662 
VERTICES 100 200
1 0 
1 1 
1 2 
1 3 
1 4 
1 5 
1 6 
1 7 
1 8 
1 9 
1 10 
1 11 
1 12 
1 13 
1 14 
1 15 
1 16 
1 17 
1 18 
1 19 
1 20 
1 21 
1 22 
1 23 
1 24 
1 25 
1 26 
1 27 
1 28 
1 29 
1 30 
1 31 
1 32 
1 33 
1 34 
1 35 
1 36 
1 37 
1 38 
1 39 
1 40 
1 41 
1 42 
1 43 
1 44 
1 45 
1 46 
1 47 
1 48 
1 49 
1 50 
1 51 
1 52 
1 53 
1 54 
1 55 
1 56 
1 57 
1 58 
1 59 
1 60 
1 61 
1 62 
1 63 
1 64 
1 65 
1 66 
1 67 
1 68 
1 69 
1 70 
1 71 
1 72 
1 73 
1 74 
1 75 
1 76 
1 77 
1 78 
1 79 
1 80 
1 81 
1 82 
1 83 
1 84 
1 85 
1 86 
1 87 
1 88 
1 89 
1 90 
1 91 
1 92 
1 93 
1 94 
1 95 
1 96 
1 97 
1 98 
1 99 

POINT_DATA 100
FIELD FieldData 7
id 1 100 int
1 2 3 4 5 6 7 8 9 
10 11 12 13 14 15 16 17 18 
19 20 21 22 23 24 25 26 27 
28 29 30 31 32 33 34 35 36 
37 38 39 40 41 42 43 44 45 
46 47 48 49 50 51 52 53 54 
55 56 57 58 59 60 61 62 63 
64 65 66 67 68 69 70 71 72 
73 74 75 76 77 78 79 80 81 
82 83 84 85 86 87 88 89 90 
91 92 93 94 95 96 97 98 99 
100 
mol 1 100 int
1 1 1 1 1 1 1 1 1 
1 1 1 1 1 1 1 1 1 
1 1 1 1 1 1 1 1 1 
1 1 1 1 1 1 1 1 1 
1 1 1 1 1 1 1 1 1 
1 1 1 1 1 2 2 2 2 
2 2 2 2 2 2 2 2 2 
2 2 2 2 2 2 2 2 2 
2 2 2 2 2 2 2 2 2 
2 2 2 2 2 2 2 2 2 
2 2 2 2 2 2 2 2 2 
2 
type 1 100 int
1 1 1 1 1 1 1 1 1 
1 1 1 1 1 1 1 1 1 
1 1 1 1 1 1 1 1 1 
1 1 1 1 1 1 1 1 1 
1 1 1 1 1 1 1 1 1 
1 1 1 1 1 1 1 1 1 
1 1 1 1 1 1 1 1 1 
1 1 1 1 1 1 1 1 1 
1 1 1 1 1 1 1 1 1 
1 1 1 1 1 1 1 1 1 
1 1 1 1 1 1 1 1 1 
1 
v 3 100 double
-0.0541908 -0.137806 0.0519572 -0.0467932 -0.0976402 0.0385764 -0.0419805 -0.0698547 0.0263231 
-0.063991 -0.167924 0.0201611 -0.0675666 -0.200607 0.0550834 -0.0581952 -0.135416 0.00744929 
-0.0499967 -0.091421 -0.00626647 -0.0714285 -0.199856 0.0154933 -0.0371835 -0.0409285 0.0114688 
-0.0375637 -0.0738776 0.0783877 -0.0712225 -0.184522 -0.0153649 -0.0598128 -0.131166 -0.0175733 
-0.0339002 -0.0636151 0.0924092 -0.0770424 -0.209937 -0.0181007 -0.0333056 -0.0535864 0.076751 
-0.06683 -0.159917 -0.0249295 -0.0711266 -0.212896 0.046425 -0.032489 -0.0401308 0.0559269 
-0.0408546 -0.0775386 0.0538736 -0.0440185 -0.0580187 -0.019102 -0.0443039 -0.0784199 0.0218401 
-0.0798494 -0.214977 -0.0348975 -0.0678924 -0.180474 0.00870403 -0.0683195 -0.218623 0.086313 
-0.0610175 -0.171617 0.0573236 -0.040275 -0.0965253 0.10029 -0.0602715 -0.18857 0.101015 
-0.0690726 -0.225872 0.0944518 -0.0768442 -0.199416 -0.0387139 -0.0558872 -0.147244 0.0555128 
-0.073641 -0.184101 -0.0400528 -0.0770501 -0.225517 0.015235 -0.0401019 -0.0487558 -0.000446916 
-0.0782635 -0.216947 -0.0150775 -0.0350192 -0.0209627 -0.0100618 -0.0652837 -0.175187 0.0230234 
-0.067837 -0.157546 -0.0399184 -0.076606 -0.218663 0.00490321 -0.0576325 -0.11234 -0.0365025 
-0.0323863 -0.0443039 0.0658866 -0.0536761 -0.100543 -0.0228893 -0.0742912 -0.195523 -0.0219537 
-0.0650846 -0.194821 0.0670856 -0.066513 -0.165476 -0.00989043 -0.0425114 -0.0736758 0.0292962 
-0.0516305 -0.0860317 -0.0338907 -0.0552056 -0.151016 0.0703039 -0.0317677 -0.0413691 0.0656762 
-0.0724359 -0.175951 -0.0456773 -0.0308714 -0.0443806 0.0809492 -0.0534244 -0.12161 0.0277758 
-0.0542087 -0.0864227 0.0280083 -0.0547707 -0.0667993 0.0295177 -0.0499726 -0.16797 0.000686585 
-0.0513044 -0.189876 0.0206981 -0.0504477 -0.13994 -0.000785282 -0.0513865 -0.101174 0.000299011 
-0.0477089 -0.194586 -0.0179879 -0.0549613 -0.0437022 0.0260808 -0.0583786 -0.0492304 0.0652527 
-0.0463716 -0.195295 -0.0326271 -0.0486653 -0.143842 -0.0195864 -0.0607422 -0.0460958 0.0906742 
-0.0447884 -0.218226 -0.0446509 -0.0600301 -0.0422466 0.0818642 -0.0466676 -0.173064 -0.0346892 
-0.0508036 -0.215693 0.0213544 -0.0594541 -0.0423599 0.0755121 -0.055167 -0.0445531 0.0285627 
-0.0516203 -0.0683141 -0.00500584 -0.0522028 -0.0500229 -0.00294927 -0.0433282 -0.230046 -0.0579824 
-0.0471016 -0.16367 -0.0321399 -0.0533659 -0.203654 0.0468369 -0.051922 -0.14763 0.0173889 
-0.0602485 -0.0816681 0.0937523 -0.0563907 -0.176443 0.0737985 -0.0543254 -0.21765 0.0608252 
-0.0438165 -0.217089 -0.0556881 -0.0548482 -0.152805 0.0510369 -0.0444347 -0.202776 -0.0522803 
-0.0462557 -0.216161 -0.0288981 -0.0520036 -0.0309948 -0.009727 -0.0443679 -0.219198 -0.0490745 
-0.0538156 -0.0257513 0.00908091 -0.0484319 -0.153206 -0.0199218 -0.0456465 -0.176371 -0.0452033 
-0.0465277 -0.224086 -0.0239818 -0.047891 -0.129364 -0.0316396 -0.0584578 -0.0199489 0.0590956 
-0.0486517 -0.100835 -0.0300691 -0.044398 -0.194361 -0.0547081 -0.0536248 -0.196505 0.047987 
-0.0461728 -0.15277 -0.0450449 -0.0558662 -0.0847576 0.0459641 -0.0492328 -0.101604 -0.0234492 
-0.0538705 -0.122853 0.0330144 -0.0588538 -0.0211995 0.0637813 -0.0444838 -0.198331 -0.0528035 
-0.0612364 -0.0384574 0.0943129 
f 3 100 double
0 0 0 0 0 0 0 0 0 
0 0 0 0 0 0 0 0 0 
0 0 0 0 0 0 0.0265538 0.00348422 0.0535628 
0 0 0 0 0 0 0 0 0 
0 0 0 0 0 0 0 0 0 
0 0 0 0 0 0 0 0 0 
0 0 0 0 0 0 0 0 0 
0 0 0 0 0 0 0 0 0 
0 0 0 0 0 0 0 0 0 
0 0 0 0 0 0 0 0 0 
0 0 0 0 0 0 0 0 0 
0 0 0 0.138981 -0.00423131 0.27809 0 0 0 
0 0 0 0 0 0 0 0 0 
0 0 0 0 0 0 0 0 0 
0 0 0 0 0 0 0 0 0 
0 0 0 0 0 0 0 0 0 
0 0 0 0 0 0 0 0 0 
0 0 0 0 0 0 0 0 0 
0 0 0 0 0 0 0 0 0 
0 0 0 0 0 0 0 0 0 
0 0 0 0 0 0 0 0 0 
0 0 0 0 0 0 0 0 0 
0 0 0 0 0 0 0 0 0 
0 0 0 0 0 0 0 0 0 
0 0 0 0 0 0 0 0 0 
0 0 0 0 0 0 0 0 0 
0 0 0 0 0 0 0 0 0 
0 0 0 0 0 0 0 0 0 
0.0682763 0.00277041 0.136665 0 0 0 0 0 0 
0 0 0 0 0 0 0 0 0 
0 0 0 0 0 0 0 0 0 
0 0 0 0 0 0 0 0 0 
0 0 0 0 0 0 0 0 0 
0 0 0 
radius 1 100 double
0.010434 0.00981478 0.00892069 0.00845937 0.00731974 0.00728422 0.00643447 0.00619172 0.00585956 
0.00577566 0.00537241 0.00522549 0.00513666 0.00473175 0.00466912 0.00444866 0.00441894 0.00400812 
0.00385622 0.00379948 0.00370243 0.00366942 0.00364039 0.00363813 0.00363644 0.00358692 0.0035797 
0.00341284 0.00337012 0.00336273 0.00332772 0.00323261 0.00320584 0.00320311 0.00318808 0.00313116 
0.00306026 0.00305632 0.00304383 0.00300958 0.00300137 0.00298994 0.0029567 0.00295111 0.00290849 
0.00284552 0.00282964 0.0028207 0.00281971 0.00281899 0.010434 0.00981478 0.00892069 0.00845937 
0.00731974 0.00728422 0.00643447 0.00619172 0.00585956 0.00577566 0.00537241 0.00522549 0.00513666 
0.00473175 0.00466912 0.00444866 0.00441894 0.00400812 0.00385622 0.00379948 0.00370243 0.00366942 
0.00364039 0.00363813 0.00363644 0.00358692 0.0035797 0.00341284 0.00337012 0.00336273 0.00332772 
0.00323261 0.00320584 0.00320311 0.00318808 0.00313116 0.00306026 0.00305632 0.00304383 0.00300958 
0.00300137 0.00298994 0.0029567 0.00295111 0.00290849 0.00284552 0.00282964 0.0028207 0.00281971 
0.00281899 
omega 3 100 double
6.29884 -1.37346 -0.640471 6.29884 -1.37346 -0.640471 6.29884 -1.37346 -0.640471 
6.29884 -1.37346 -0.640471 6.29884 -1.37346 -0.640471 6.29884 -1.37346 -0.640471 
6.29884 -1.37346 -0.640471 6.29884 -1.37346 -0.640471 6.29884 -1.37346 -0.640471 
6.29884 -1.37346 -0.640471 6.29884 -1.37346 -0.640471 6.29884 -1.37346 -0.640471 
6.29884 -1.37346 -0.640471 6.29884 -1.37346 -0.640471 6.29884 -1.37346 -0.640471 
6.29884 -1.37346 -0.640471 6.29884 -1.37346 -0.640471 6.29884 -1.37346 -0.640471 
6.29884 -1.37346 -0.640471 6.29884 -1.37346 -0.640471 6.29884 -1.37346 -0.640471 
6.29884 -1.37346 -0.640471 6.29884 -1.37346 -0.640471 6.29884 -1.37346 -0.640471 
6.29884 -1.37346 -0.640471 6.29884 -1.37346 -0.640471 6.29884 -1.37346 -0.640471 
6.29884 -1.37346 -0.640471 6.29884 -1.37346 -0.640471 6.29884 -1.37346 -0.640471 
6.29884 -1.37346 -0.640471 6.29884 -1.37346 -0.640471 6.29884 -1.37346 -0.640471 
6.29884 -1.37346 -0.640471 6.29884 -1.37346 -0.640471 6.29884 -1.37346 -0.640471 
6.29884 -1.37346 -0.640471 6.29884 -1.37346 -0.640471 6.29884 -1.37346 -0.640471 
6.29884 -1.37346 -0.640471 6.29884 -1.37346 -0.640471 6.29884 -1.37346 -0.640471 
6.29884 -1.37346 -0.640471 6.29884 -1.37346 -0.640471 6.29884 -1.37346 -0.640471 
6.29884 -1.37346 -0.640471 6.29884 -1.37346 -0.640471 6.29884 -1.37346 -0.640471 
6.29884 -1.37346 -0.640471 6.29884 -1.37346 -0.640471 7.50167 0.162729 0.677398 
7.50167 0.162729 0.677398 7.50167 0.162729 0.677398 7.50167 0.162729 0.677398 
7.50167 0.162729 0.677398 7.50167 0.162729 0.677398 7.50167 0.162729 0.677398 
7.50167 0.162729 0.677398 7.50167 0.162729 0.677398 7.50167 0.162729 0.677398 
7.50167 0.162729 0.677398 7.50167 0.162729 0.677398 7.50167 0.162729 0.677398 
7.50167 0.162729 0.677398 7.50167 0.162729 0.677398 7.50167 0.162729 0.677398 
7.50167 0.162729 0.677398 7.50167 0.162729 0.677398 7.50167 0.162729 0.677398 
7.50167 0.162729 0.677398 7.50167 0.162729 0.677398 7.50167 0.162729 0.677398 
7.50167 0.162729 0.677398 7.50167 0.162729 0.677398 7.50167 0.162729 0.677398 
7.50167 0.162729 0.677398 7.50167 0.162729 0.677398 7.50167 0.162729 0.677398 
7.50167 0.162729 0.677398 7.50167 0.162729 0.677398 7.50167 0.162729 0.677398 
7.50167 0.162729 0.677398 7.50167 0.162729 0.677398 7.50167 0.162729 0.677398 
7.50167 0.162729 0.677398 7.50167 0.162729 0.677398 7.50167 0.162729 0.677398 
7.50167 0.162729 0.677398 7.50167 0.162729 0.677398 7.50167 0.162729 0.677398 
7.50167 0.162729 0.677398 7.50167 0.162729 0.677398 7.50167 0.162729 0.677398 
7.50167 0.162729 0.677398 7.50167 0.162729 0.677398 7.50167 0.162729 0.677398 
7.50167 0.162729 0.677398 7.50167 0.162729 0.677398 7.50167 0.162729 0.677398 
7.50167 0.162729 0.677398 
