# vtk DataFile Version 4.0
Generated by LIGGGHTS
ASCII
DATASET POLYDATA
POINTS 100 float
-0.108797 -0.129165 0.0159414 -0.119167 -0.13006 0.0169397 -0.128798 -0.130142 0.0197254 
-0.112049 -0.13027 0.0260015 -0.0996849 -0.127558 0.0208873 -0.12071 -0.131166 0.0271149 
-0.131935 -0.132062 0.0280558 -0.103442 -0.131964 0.0256802 -0.137517 -0.131059 0.0216931 
-0.115974 -0.127263 0.00777565 -0.115127 -0.133026 0.0334568 -0.12618 -0.133003 0.0318551 
-0.121222 -0.123878 0.00922281 -0.109143 -0.133884 0.0338383 -0.126579 -0.124816 0.012275 
-0.121166 -0.133902 0.0338881 -0.10442 -0.126011 0.0274771 -0.136441 -0.124981 0.0184783 
-0.111579 -0.13236 0.00622947 -0.13877 -0.133773 0.0275544 -0.114425 -0.135889 0.0102461 
-0.111993 -0.134844 0.0379173 -0.101383 -0.135265 0.0205854 -0.093477 -0.12405 0.017955 
-0.0983669 -0.129961 0.0140469 -0.116211 -0.122208 0.0113181 -0.100261 -0.121459 0.0167031 
-0.0953625 -0.121543 0.0204657 -0.116324 -0.134863 0.0384844 -0.117983 -0.124253 0.0248902 
-0.119743 -0.134863 0.0382545 -0.0965462 -0.132801 0.0252648 -0.12588 -0.136868 0.0146049 
-0.104696 -0.134679 0.0315416 -0.142756 -0.133668 0.0229949 -0.0994454 -0.134326 0.0173033 
-0.124813 -0.134841 0.0370552 -0.105555 -0.131253 0.0315672 -0.132333 -0.134777 0.0339746 
-0.121955 -0.128974 0.00733178 -0.125773 -0.136283 0.0257909 -0.107142 -0.136349 0.0296186 
-0.106816 -0.123379 0.0248037 -0.106682 -0.137039 0.0227623 -0.135188 -0.12686 0.0253872 
-0.136492 -0.134734 0.0319784 -0.0998476 -0.129021 0.010535 -0.124635 -0.128159 0.00888903 
-0.123276 -0.134904 0.0397335 -0.13097 -0.123144 0.0137381 -0.0399394 -0.101381 0.0173995 
-0.0503326 -0.102289 0.0181013 -0.0600378 -0.102399 0.0206174 -0.0434694 -0.102577 0.0273552 
-0.0309694 -0.099815 0.0226109 -0.0521571 -0.103486 0.0282195 -0.0634031 -0.104394 0.02884 
-0.0348559 -0.104265 0.0272582 -0.0688067 -0.103337 0.0223338 -0.0468884 -0.0994095 0.00905467 
-0.0467513 -0.1054 0.0346973 -0.0577561 -0.105367 0.0327893 -0.0521766 -0.0960395 0.0103854 
-0.0407796 -0.106259 0.0352374 -0.0576157 -0.097007 0.013279 -0.0527995 -0.106282 0.0349528 
-0.0358872 -0.0983282 0.0290799 -0.0676455 -0.0972303 0.0192042 -0.0424483 -0.104491 0.0075861 
-0.0702207 -0.106104 0.0281338 -0.0454032 -0.108057 0.0114906 -0.0437414 -0.107256 0.0392269 
-0.032654 -0.10752 0.0221935 -0.0246846 -0.0962793 0.0198834 -0.0294603 -0.102156 0.0157887 
-0.047227 -0.0943862 0.0126339 -0.0314325 -0.0936794 0.0184665 -0.0266407 -0.0937953 0.0223629 
-0.0480864 -0.107283 0.0396732 -0.0493739 -0.096553 0.0261328 -0.0514975 -0.107281 0.0393484 
-0.0279503 -0.105096 0.0270273 -0.0569739 -0.109079 0.0155205 -0.0362699 -0.107032 0.0330582 
-0.0740787 -0.10596 0.0234663 -0.0306262 -0.106551 0.018975 -0.056533 -0.107251 0.0380089 
-0.037132 -0.103607 0.0330903 -0.0639644 -0.107162 0.0347212 -0.0528531 -0.101119 0.00842959 
-0.0571786 -0.108593 0.0267099 -0.0386612 -0.108686 0.0310532 -0.038209 -0.0956733 0.0263645 
-0.0380095 -0.109315 0.0242065 -0.0665846 -0.0991708 0.0261283 -0.0680658 -0.107103 0.0326106 
-0.0308435 -0.101186 0.0122454 -0.0555761 -0.100319 0.00991892 -0.0550709 -0.107337 0.0407282 
-0.0620465 -0.0953497 0.0146343 
VERTICES 100 200
1 0 
1 1 
1 2 
1 3 
1 4 
1 5 
1 6 
1 7 
1 8 
1 9 
1 10 
1 11 
1 12 
1 13 
1 14 
1 15 
1 16 
1 17 
1 18 
1 19 
1 20 
1 21 
1 22 
1 23 
1 24 
1 25 
1 26 
1 27 
1 28 
1 29 
1 30 
1 31 
1 32 
1 33 
1 34 
1 35 
1 36 
1 37 
1 38 
1 39 
1 40 
1 41 
1 42 
1 43 
1 44 
1 45 
1 46 
1 47 
1 48 
1 49 
1 50 
1 51 
1 52 
1 53 
1 54 
1 55 
1 56 
1 57 
1 58 
1 59 
1 60 
1 61 
1 62 
1 63 
1 64 
1 65 
1 66 
1 67 
1 68 
1 69 
1 70 
1 71 
1 72 
1 73 
1 74 
1 75 
1 76 
1 77 
1 78 
1 79 
1 80 
1 81 
1 82 
1 83 
1 84 
1 85 
1 86 
1 87 
1 88 
1 89 
1 90 
1 91 
1 92 
1 93 
1 94 
1 95 
1 96 
1 97 
1 98 
1 99 

POINT_DATA 100
FIELD FieldData 7
id 1 100 int
1 2 3 4 5 6 7 8 9 
10 11 12 13 14 15 16 17 18 
19 20 21 22 23 24 25 26 27 
28 29 30 31 32 33 34 35 36 
37 38 39 40 41 42 43 44 45 
46 47 48 49 50 51 52 53 54 
55 56 57 58 59 60 61 62 63 
64 65 66 67 68 69 70 71 72 
73 74 75 76 77 78 79 80 81 
82 83 84 85 86 87 88 89 90 
91 92 93 94 95 96 97 98 99 
100 
mol 1 100 int
1 1 1 1 1 1 1 1 1 
1 1 1 1 1 1 1 1 1 
1 1 1 1 1 1 1 1 1 
1 1 1 1 1 1 1 1 1 
1 1 1 1 1 1 1 1 1 
1 1 1 1 1 2 2 2 2 
2 2 2 2 2 2 2 2 2 
2 2 2 2 2 2 2 2 2 
2 2 2 2 2 2 2 2 2 
2 2 2 2 2 2 2 2 2 
2 2 2 2 2 2 2 2 2 
2 
type 1 100 int
1 1 1 1 1 1 1 1 1 
1 1 1 1 1 1 1 1 1 
1 1 1 1 1 1 1 1 1 
1 1 1 1 1 1 1 1 1 
1 1 1 1 1 1 1 1 1 
1 1 1 1 1 1 1 1 1 
1 1 1 1 1 1 1 1 1 
1 1 1 1 1 1 1 1 1 
1 1 1 1 1 1 1 1 1 
1 1 1 1 1 1 1 1 1 
1 1 1 1 1 1 1 1 1 
1 
v 3 100 double
-0.100391 -0.0581973 0.383292 -0.107302 -0.0612565 0.308764 -0.126791 -0.0681469 0.24118 
-0.170704 -0.0803941 0.35812 -0.135143 -0.0681972 0.450564 -0.17842 -0.0835582 0.295555 
-0.184929 -0.086565 0.215046 -0.168311 -0.0789606 0.414666 -0.140484 -0.0731774 0.178167 
-0.0434045 -0.0410171 0.337203 -0.222646 -0.0969005 0.330577 -0.211438 -0.0943527 0.253268 
-0.0538211 -0.0446175 0.30785 -0.225243 -0.0972218 0.370588 -0.075102 -0.0517243 0.268314 
-0.22559 -0.098355 0.286403 -0.181394 -0.082959 0.420792 -0.118503 -0.0660809 0.19894 
-0.0321489 -0.0372735 0.356859 -0.181274 -0.0860552 0.163481 -0.0599592 -0.0462679 0.329248 
-0.253708 -0.106352 0.34855 -0.132373 -0.0676841 0.421884 -0.11492 -0.061279 0.501652 
-0.0870648 -0.0531806 0.454552 -0.0686279 -0.0487559 0.346558 -0.106379 -0.0591295 0.459822 
-0.132705 -0.0669102 0.493919 -0.257675 -0.107957 0.318196 -0.163439 -0.0784785 0.329701 
-0.256066 -0.107747 0.29427 -0.165333 -0.0774677 0.461106 -0.0903811 -0.0567413 0.246949 
-0.209101 -0.0918384 0.39998 -0.149372 -0.0764603 0.135812 -0.109483 -0.0603678 0.437494 
-0.247675 -0.105566 0.25883 -0.209572 -0.0919675 0.401428 -0.226121 -0.0994952 0.206341 
-0.0401521 -0.0405596 0.291619 -0.168717 -0.0811049 0.24897 -0.195501 -0.0878572 0.379216 
-0.162908 -0.0773383 0.409763 -0.147457 -0.0728789 0.380939 -0.166695 -0.0810278 0.203608 
-0.212153 -0.0955002 0.17733 -0.0625662 -0.0456548 0.446237 -0.0511202 -0.0441811 0.274637 
-0.266414 -0.111271 0.26945 -0.0854843 -0.0552864 0.241228 -0.0999541 -0.0579225 0.335894 
-0.104662 -0.0607451 0.262514 -0.121944 -0.0673455 0.195565 -0.168238 -0.0795858 0.30908 
-0.135978 -0.0678808 0.400893 -0.174064 -0.0825369 0.247422 -0.178214 -0.0852953 0.168179 
-0.167357 -0.0782794 0.364695 -0.133624 -0.0721226 0.133288 -0.0428417 -0.0410294 0.292326 
-0.218349 -0.0956489 0.280504 -0.205238 -0.0929889 0.204926 -0.0524196 -0.0445401 0.263154 
-0.221952 -0.0960371 0.319725 -0.0721875 -0.0514002 0.223704 -0.219993 -0.0969658 0.237049 
-0.180637 -0.0822925 0.370255 -0.11289 -0.0653059 0.154281 -0.0320974 -0.0373333 0.31202 
-0.17314 -0.0846611 0.117672 -0.0584827 -0.0460301 0.28411 -0.24925 -0.104916 0.297241 
-0.132125 -0.0672067 0.372896 -0.11768 -0.0612668 0.451629 -0.088782 -0.0531521 0.406277 
-0.0680875 -0.048699 0.300702 -0.108272 -0.0591096 0.410782 -0.135042 -0.0667997 0.443475 
-0.252314 -0.106422 0.267315 -0.160605 -0.0777353 0.281327 -0.250081 -0.106165 0.24387 
-0.165663 -0.0769053 0.410396 -0.0860544 -0.0560943 0.202394 -0.206873 -0.0908179 0.349079 
-0.141074 -0.0752087 0.0914581 -0.110124 -0.0600901 0.388901 -0.240877 -0.103954 0.20932 
-0.207531 -0.0909964 0.35045 -0.218288 -0.0978979 0.158424 -0.0383264 -0.0404593 0.24768 
-0.163034 -0.0799617 0.202023 -0.19288 -0.0868514 0.329116 -0.16231 -0.0768032 0.359951 
-0.145734 -0.0721798 0.332256 -0.16024 -0.0799237 0.157439 -0.203787 -0.0939247 0.130355 
-0.0645489 -0.0457791 0.398837 -0.0486666 -0.0439804 0.230668 -0.25956 -0.109561 0.219188 
-0.0817157 -0.0548538 0.196777 
f 3 100 double
0 0 0 0 0 0 0 0 0 
0 0 0 0 0 0 0 0 0 
0 0 0 0 0 0 0 0 0 
0 0 0 0 0 0 0 0 0 
0 0 0 0 0 0 0 0 0 
0 0 0 0 0 0 0 0 0 
0 0 0 0 0 0 0 0 0 
0 0 0 0 0 0 0 0 0 
0 0 0 0 0 0 0 0 0 
0 0 0 0 0 0 0 0 0 
0 0 0 0 0 0 0 0 0 
0 0 0 0 0 0 0 0 0 
0 0 0 0 0 0 0 0 0 
0 0 0 0 0 0 0 0 0 
0 0 0 0 0 0 0 0 0 
0 0 0 0 0 0 0 0 0 
0 0 0 0 0 0 0 0 0 
0 0 0 0 0 0 0 0 0 
0 0 0 0 0 0 0 0 0 
0 0 0 0 0 0 0 0 0 
0 0 0 0 0 0 0 0 0 
0 0 0 0 0 0 0 0 0 
0 0 0 0 0 0 0 0 0 
0 0 0 0 0 0 0 0 0 
0 0 0 0 0 0 0 0 0 
0 0 0 0 0 0 0 0 0 
0 0 0 0 0 0 0 0 0 
0 0 0 0 0 0 0 0 0 
0 0 0 0 0 0 0 0 0 
0 0 0 0 0 0 0 0 0 
0 0 0 0 0 0 0 0 0 
0 0 0 0 0 0 0 0 0 
0 0 0 0 0 0 0 0 0 
0 0 0 
radius 1 100 double
0.010434 0.00981478 0.00892069 0.00845937 0.00731974 0.00728422 0.00643447 0.00619172 0.00585956 
0.00577566 0.00537241 0.00522549 0.00513666 0.00473175 0.00466912 0.00444866 0.00441894 0.00400812 
0.00385622 0.00379948 0.00370243 0.00366942 0.00364039 0.00363813 0.00363644 0.00358692 0.0035797 
0.00341284 0.00337012 0.00336273 0.00332772 0.00323261 0.00320584 0.00320311 0.00318808 0.00313116 
0.00306026 0.00305632 0.00304383 0.00300958 0.00300137 0.00298994 0.0029567 0.00295111 0.00290849 
0.00284552 0.00282964 0.0028207 0.00281971 0.00281899 0.010434 0.00981478 0.00892069 0.00845937 
0.00731974 0.00728422 0.00643447 0.00619172 0.00585956 0.00577566 0.00537241 0.00522549 0.00513666 
0.00473175 0.00466912 0.00444866 0.00441894 0.00400812 0.00385622 0.00379948 0.00370243 0.00366942 
0.00364039 0.00363813 0.00363644 0.00358692 0.0035797 0.00341284 0.00337012 0.00336273 0.00332772 
0.00323261 0.00320584 0.00320311 0.00318808 0.00313116 0.00306026 0.00305632 0.00304383 0.00300958 
0.00300137 0.00298994 0.0029567 0.00295111 0.00290849 0.00284552 0.00282964 0.0028207 0.00281971 
0.00281899 
omega 3 100 double
2.17886 -6.99862 0.0852297 2.17886 -6.99862 0.0852297 2.17886 -6.99862 0.0852297 
2.17886 -6.99862 0.0852297 2.17886 -6.99862 0.0852297 2.17886 -6.99862 0.0852297 
2.17886 -6.99862 0.0852297 2.17886 -6.99862 0.0852297 2.17886 -6.99862 0.0852297 
2.17886 -6.99862 0.0852297 2.17886 -6.99862 0.0852297 2.17886 -6.99862 0.0852297 
2.17886 -6.99862 0.0852297 2.17886 -6.99862 0.0852297 2.17886 -6.99862 0.0852297 
2.17886 -6.99862 0.0852297 2.17886 -6.99862 0.0852297 2.17886 -6.99862 0.0852297 
2.17886 -6.99862 0.0852297 2.17886 -6.99862 0.0852297 2.17886 -6.99862 0.0852297 
2.17886 -6.99862 0.0852297 2.17886 -6.99862 0.0852297 2.17886 -6.99862 0.0852297 
2.17886 -6.99862 0.0852297 2.17886 -6.99862 0.0852297 2.17886 -6.99862 0.0852297 
2.17886 -6.99862 0.0852297 2.17886 -6.99862 0.0852297 2.17886 -6.99862 0.0852297 
2.17886 -6.99862 0.0852297 2.17886 -6.99862 0.0852297 2.17886 -6.99862 0.0852297 
2.17886 -6.99862 0.0852297 2.17886 -6.99862 0.0852297 2.17886 -6.99862 0.0852297 
2.17886 -6.99862 0.0852297 2.17886 -6.99862 0.0852297 2.17886 -6.99862 0.0852297 
2.17886 -6.99862 0.0852297 2.17886 -6.99862 0.0852297 2.17886 -6.99862 0.0852297 
2.17886 -6.99862 0.0852297 2.17886 -6.99862 0.0852297 2.17886 -6.99862 0.0852297 
2.17886 -6.99862 0.0852297 2.17886 -6.99862 0.0852297 2.17886 -6.99862 0.0852297 
2.17886 -6.99862 0.0852297 2.17886 -6.99862 0.0852297 2.13071 -6.8742 0.127704 
2.13071 -6.8742 0.127704 2.13071 -6.8742 0.127704 2.13071 -6.8742 0.127704 
2.13071 -6.8742 0.127704 2.13071 -6.8742 0.127704 2.13071 -6.8742 0.127704 
2.13071 -6.8742 0.127704 2.13071 -6.8742 0.127704 2.13071 -6.8742 0.127704 
2.13071 -6.8742 0.127704 2.13071 -6.8742 0.127704 2.13071 -6.8742 0.127704 
2.13071 -6.8742 0.127704 2.13071 -6.8742 0.127704 2.13071 -6.8742 0.127704 
2.13071 -6.8742 0.127704 2.13071 -6.8742 0.127704 2.13071 -6.8742 0.127704 
2.13071 -6.8742 0.127704 2.13071 -6.8742 0.127704 2.13071 -6.8742 0.127704 
2.13071 -6.8742 0.127704 2.13071 -6.8742 0.127704 2.13071 -6.8742 0.127704 
2.13071 -6.8742 0.127704 2.13071 -6.8742 0.127704 2.13071 -6.8742 0.127704 
2.13071 -6.8742 0.127704 2.13071 -6.8742 0.127704 2.13071 -6.8742 0.127704 
2.13071 -6.8742 0.127704 2.13071 -6.8742 0.127704 2.13071 -6.8742 0.127704 
2.13071 -6.8742 0.127704 2.13071 -6.8742 0.127704 2.13071 -6.8742 0.127704 
2.13071 -6.8742 0.127704 2.13071 -6.8742 0.127704 2.13071 -6.8742 0.127704 
2.13071 -6.8742 0.127704 2.13071 -6.8742 0.127704 2.13071 -6.8742 0.127704 
2.13071 -6.8742 0.127704 2.13071 -6.8742 0.127704 2.13071 -6.8742 0.127704 
2.13071 -6.8742 0.127704 2.13071 -6.8742 0.127704 2.13071 -6.8742 0.127704 
2.13071 -6.8742 0.127704 
