# vtk DataFile Version 4.0
Generated by LIGGGHTS
ASCII
DATASET POLYDATA
POINTS 100 float
-0.119889 -0.137168 0.0186874 -0.128782 -0.137108 0.013188 -0.138184 -0.136832 0.00971309 
-0.128341 -0.140549 0.0241784 -0.115547 -0.137996 0.028202 -0.135922 -0.140715 0.0197573 
-0.145471 -0.140542 0.0137188 -0.121092 -0.143066 0.0284405 -0.146311 -0.137241 0.00590572 
-0.12102 -0.132343 0.00882607 -0.135011 -0.14483 0.0273127 -0.142993 -0.143117 0.0196903 
-0.126334 -0.128892 0.00784951 -0.130348 -0.146436 0.0308289 -0.132383 -0.129996 0.0068125 
-0.140078 -0.145094 0.0238951 -0.123339 -0.13774 0.0309324 -0.143969 -0.130688 0.00579288 
-0.116219 -0.137307 0.00874822 -0.150577 -0.141264 0.00889057 -0.120633 -0.141434 0.00916951 
-0.134975 -0.148122 0.0320231 -0.116217 -0.145095 0.0248052 -0.109055 -0.134565 0.030551 
-0.110307 -0.138614 0.0230576 -0.123633 -0.128428 0.0128272 -0.113971 -0.130975 0.0263972 
-0.11222 -0.132623 0.0320872 -0.138802 -0.147798 0.0299413 -0.132886 -0.133817 0.0215941 
-0.141426 -0.147345 0.0277848 -0.115226 -0.144543 0.031882 -0.132368 -0.14223 0.00558642 
-0.125357 -0.14709 0.0314254 -0.151126 -0.139488 0.00312584 -0.112791 -0.143539 0.0236857 
-0.144816 -0.146424 0.0239363 -0.126299 -0.143721 0.0319167 -0.149081 -0.144679 0.0172427 
-0.125469 -0.133178 0.00453698 -0.138884 -0.144677 0.014363 -0.12609 -0.147893 0.028065 
-0.123883 -0.134233 0.0282464 -0.121649 -0.14677 0.0228968 -0.146885 -0.13448 0.0112665 
-0.151269 -0.143629 0.0133195 -0.109505 -0.136605 0.0197817 -0.128601 -0.132509 0.00440493 
-0.145142 -0.147377 0.0268561 -0.136899 -0.128287 0.00585987 -0.0510496 -0.109302 0.0187265 
-0.0599684 -0.109252 0.0132685 -0.0693921 -0.109136 0.00984612 -0.0593279 -0.113364 0.0240154 
-0.0466249 -0.110558 0.028156 -0.0669207 -0.113556 0.0196152 -0.0765025 -0.113385 0.0136283 
-0.0519601 -0.115853 0.0280867 -0.0775176 -0.10963 0.00604448 -0.0524279 -0.103908 0.00919682 
-0.0658032 -0.118103 0.0268897 -0.0738895 -0.116233 0.0194159 -0.0578815 -0.10062 0.00845824 
-0.0610596 -0.11974 0.0302824 -0.0638876 -0.1019 0.00737078 -0.0708742 -0.118354 0.0234773 
-0.0544062 -0.110792 0.0309202 -0.0754418 -0.102994 0.0063433 -0.0474323 -0.108659 0.00878797 
-0.0816015 -0.114005 0.00877896 -0.0516744 -0.112979 0.00895798 -0.0656092 -0.121684 0.0313803 
-0.0470279 -0.117447 0.0243149 -0.0402635 -0.107022 0.0307001 -0.0413931 -0.110634 0.0229672 
-0.0551738 -0.100365 0.0134474 -0.0453425 -0.103378 0.0267984 -0.0434951 -0.105312 0.0323664 
-0.0694569 -0.121383 0.0293347 -0.0641542 -0.106672 0.0218797 -0.0721089 -0.120901 0.0272193 
-0.0460209 -0.117307 0.0314095 -0.0633868 -0.11402 0.00536611 -0.056044 -0.120227 0.0308212 
-0.0822533 -0.111888 0.00314107 -0.0436739 -0.115685 0.023287 -0.0755544 -0.119874 0.0234475 
-0.0571172 -0.116938 0.0315294 -0.0799234 -0.117881 0.0168916 -0.0568639 -0.104648 0.00487631 
-0.0697508 -0.117283 0.0139877 -0.0567626 -0.120845 0.0274186 -0.055105 -0.107145 0.0284653 
-0.0523988 -0.119215 0.0223195 -0.0781719 -0.107241 0.0115723 -0.0821732 -0.116672 0.01305 
-0.040691 -0.10839 0.0198239 -0.0600207 -0.104099 0.00479651 -0.0758263 -0.121024 0.0263014 
-0.068473 -0.100317 0.00654257 
VERTICES 100 200
1 0 
1 1 
1 2 
1 3 
1 4 
1 5 
1 6 
1 7 
1 8 
1 9 
1 10 
1 11 
1 12 
1 13 
1 14 
1 15 
1 16 
1 17 
1 18 
1 19 
1 20 
1 21 
1 22 
1 23 
1 24 
1 25 
1 26 
1 27 
1 28 
1 29 
1 30 
1 31 
1 32 
1 33 
1 34 
1 35 
1 36 
1 37 
1 38 
1 39 
1 40 
1 41 
1 42 
1 43 
1 44 
1 45 
1 46 
1 47 
1 48 
1 49 
1 50 
1 51 
1 52 
1 53 
1 54 
1 55 
1 56 
1 57 
1 58 
1 59 
1 60 
1 61 
1 62 
1 63 
1 64 
1 65 
1 66 
1 67 
1 68 
1 69 
1 70 
1 71 
1 72 
1 73 
1 74 
1 75 
1 76 
1 77 
1 78 
1 79 
1 80 
1 81 
1 82 
1 83 
1 84 
1 85 
1 86 
1 87 
1 88 
1 89 
1 90 
1 91 
1 92 
1 93 
1 94 
1 95 
1 96 
1 97 
1 98 
1 99 

POINT_DATA 100
FIELD FieldData 7
id 1 100 int
1 2 3 4 5 6 7 8 9 
10 11 12 13 14 15 16 17 18 
19 20 21 22 23 24 25 26 27 
28 29 30 31 32 33 34 35 36 
37 38 39 40 41 42 43 44 45 
46 47 48 49 50 51 52 53 54 
55 56 57 58 59 60 61 62 63 
64 65 66 67 68 69 70 71 72 
73 74 75 76 77 78 79 80 81 
82 83 84 85 86 87 88 89 90 
91 92 93 94 95 96 97 98 99 
100 
mol 1 100 int
1 1 1 1 1 1 1 1 1 
1 1 1 1 1 1 1 1 1 
1 1 1 1 1 1 1 1 1 
1 1 1 1 1 1 1 1 1 
1 1 1 1 1 1 1 1 1 
1 1 1 1 1 2 2 2 2 
2 2 2 2 2 2 2 2 2 
2 2 2 2 2 2 2 2 2 
2 2 2 2 2 2 2 2 2 
2 2 2 2 2 2 2 2 2 
2 2 2 2 2 2 2 2 2 
2 
type 1 100 int
1 1 1 1 1 1 1 1 1 
1 1 1 1 1 1 1 1 1 
1 1 1 1 1 1 1 1 1 
1 1 1 1 1 1 1 1 1 
1 1 1 1 1 1 1 1 1 
1 1 1 1 1 1 1 1 1 
1 1 1 1 1 1 1 1 1 
1 1 1 1 1 1 1 1 1 
1 1 1 1 1 1 1 1 1 
1 1 1 1 1 1 1 1 1 
1 1 1 1 1 1 1 1 1 
1 
v 3 100 double
-0.0326087 -0.13893 0.00724355 -0.0347846 -0.0983282 0.0112048 -0.0359645 -0.0695794 0.0166821 
-0.0331526 -0.16529 -0.00982184 -0.0294366 -0.200141 0.000468949 -0.0350775 -0.132297 -0.00776347 
-0.037379 -0.0878912 -0.00285112 -0.0334877 -0.197049 -0.0280092 -0.0378392 -0.0398578 0.0174942 
-0.0326502 -0.0782462 0.0369453 -0.0353874 -0.178827 -0.0330693 -0.0370695 -0.126106 -0.0194567 
-0.0302227 -0.067981 0.0600025 -0.0352788 -0.20395 -0.0446887 -0.0315451 -0.0567473 0.0557632 
-0.0369859 -0.153971 -0.032618 -0.0281224 -0.210311 0.00517382 -0.0325241 -0.0410899 0.0562544 
-0.0367434 -0.0817017 0.00491792 -0.0399234 -0.0544559 -0.00516266 -0.0399491 -0.0806436 -0.018304 
-0.0361743 -0.207401 -0.0530286 -0.0366182 -0.179008 -0.0422753 -0.0256786 -0.219686 0.0186393 
-0.032023 -0.173253 -0.00539208 -0.027829 -0.100355 0.0617236 -0.0244228 -0.190493 0.042378 
-0.0234688 -0.226406 0.0316845 -0.0367518 -0.191655 -0.0495188 -0.0286911 -0.145912 0.0328084 
-0.0372539 -0.17644 -0.0457139 -0.0333038 -0.222703 -0.0393332 -0.0420497 -0.0493303 -0.0183781 
-0.0355719 -0.211647 -0.050666 -0.0408021 -0.019073 0.00582624 -0.035798 -0.175026 -0.0342307 
-0.0380573 -0.150345 -0.0387599 -0.0326172 -0.213855 -0.0298718 -0.0393377 -0.106293 -0.0264592 
-0.0350691 -0.0486145 0.0336823 -0.0405013 -0.0971843 -0.0305737 -0.037589 -0.190685 -0.0552406 
-0.0263395 -0.19359 0.0266494 -0.0387608 -0.162999 -0.0502289 -0.0334115 -0.0718747 0.0344578 
-0.0400657 -0.0807291 -0.01921 -0.0317049 -0.154057 0.00645705 -0.0345751 -0.045252 0.0390041 
-0.0376555 -0.167771 -0.0444022 -0.0305322 -0.0472805 0.0679473 -0.0431113 -0.122557 -0.0242115 
-0.0505048 -0.0870493 -0.0118048 -0.0551886 -0.0669409 0.00177467 -0.0336881 -0.166485 -0.0432038 
-0.0296797 -0.190081 -0.0395064 -0.0395184 -0.138086 -0.0343784 -0.0476936 -0.0990245 -0.0201815 
-0.026794 -0.192569 -0.0716206 -0.0600408 -0.0432858 0.00907193 -0.0590066 -0.0525743 0.0177008 
-0.0271428 -0.19147 -0.0696523 -0.0382812 -0.140527 -0.044849 -0.061853 -0.050159 0.0494689 
-0.0216435 -0.213992 -0.0882057 -0.0626008 -0.0454642 0.0480763 -0.0316068 -0.168986 -0.0646693 
-0.025818 -0.214983 -0.0307421 -0.0633715 -0.0443365 0.0555416 -0.0568849 -0.0467276 -0.0243186 
-0.0538891 -0.0658873 -0.0179001 -0.0542244 -0.0503769 -0.0506734 -0.0190683 -0.224703 -0.0964984 
-0.0309869 -0.161788 -0.090113 -0.0282358 -0.205392 -0.0218416 -0.0366392 -0.14861 -0.0471305 
-0.055264 -0.0856801 0.0477113 -0.0355517 -0.17928 0.0120723 -0.0269493 -0.219582 -0.00478406 
-0.0219978 -0.21168 -0.089075 -0.0403362 -0.153343 0.0130028 -0.025124 -0.197466 -0.0819136 
-0.0214915 -0.213899 -0.0904356 -0.0584862 -0.0302977 -0.0425912 -0.0206422 -0.21517 -0.0985927 
-0.0626882 -0.0243927 -0.00130547 -0.0333654 -0.152268 -0.0815585 -0.0307915 -0.171398 -0.0696428 
-0.0215375 -0.221032 -0.072719 -0.0407603 -0.12518 -0.0489439 -0.0644205 -0.0229905 0.0181914 
-0.0450155 -0.0978939 -0.0582321 -0.0248866 -0.19031 -0.102206 -0.0311827 -0.197149 -0.0027229 
-0.0326845 -0.149994 -0.095998 -0.0539252 -0.084698 0.0276903 -0.0466245 -0.0979212 -0.0369351 
-0.0421438 -0.124876 -0.0314151 -0.0648371 -0.0241744 0.0265267 -0.0262935 -0.192742 -0.0778094 
-0.0646087 -0.0418948 0.0660119 
f 3 100 double
0 0 0 0 0 0 0 0 0 
0 0 0 0 0 0 0 0 0 
0 0 0 0 0 0 0 0 0 
0 0 0 0 0 0 0 0 0 
0 0 0 0 0 0 0 0 0 
0 0 0 0 0 0 0 0 0 
0 0 0 0 0 0 0 0 0 
0 0 0 0 0 0 0 0 0 
0 0 0 0 0 0 0 0 0 
0 0 0 0 0 0 0 0 0 
0 0 0 0 0 0 0 0 0 
0 0 0 0.0853569 0.000141848 0.170714 0 0 0 
0 0 0 0 0 0 0 0 0 
0 0 0 0 0 0 0 0 0 
0 0 0 0 0 0 0 0 0 
0 0 0 0 0 0 0 0 0 
0 0 0 0 0 0 0 0 0 
0 0 0 0 0 0 0 0 0 
0 0 0 0 0 0 0 0 0 
0 0 0 0 0 0 0 0 0 
0 0 0 0 0 0 0 0 0 
0 0 0 0 0 0 0 0 0 
0 0 0 0 0 0 0 0 0 
0 0 0 0 0 0 0 0 0 
0 0 0 0 0 0 0 0 0 
0 0 0 0 0 0 0 0 0 
0 0 0 0 0 0 0 0 0 
0 0 0 0 0 0 0 0 0 
0.0824083 0.0012307 0.164835 0 0 0 0 0 0 
0 0 0 0 0 0 0 0 0 
0 0 0 0 0 0 0 0 0 
0 0 0 0 0 0 0 0 0 
0 0 0 0 0 0 0 0 0 
0 0 0 
radius 1 100 double
0.010434 0.00981478 0.00892069 0.00845937 0.00731974 0.00728422 0.00643447 0.00619172 0.00585956 
0.00577566 0.00537241 0.00522549 0.00513666 0.00473175 0.00466912 0.00444866 0.00441894 0.00400812 
0.00385622 0.00379948 0.00370243 0.00366942 0.00364039 0.00363813 0.00363644 0.00358692 0.0035797 
0.00341284 0.00337012 0.00336273 0.00332772 0.00323261 0.00320584 0.00320311 0.00318808 0.00313116 
0.00306026 0.00305632 0.00304383 0.00300958 0.00300137 0.00298994 0.0029567 0.00295111 0.00290849 
0.00284552 0.00282964 0.0028207 0.00281971 0.00281899 0.010434 0.00981478 0.00892069 0.00845937 
0.00731974 0.00728422 0.00643447 0.00619172 0.00585956 0.00577566 0.00537241 0.00522549 0.00513666 
0.00473175 0.00466912 0.00444866 0.00441894 0.00400812 0.00385622 0.00379948 0.00370243 0.00366942 
0.00364039 0.00363813 0.00363644 0.00358692 0.0035797 0.00341284 0.00337012 0.00336273 0.00332772 
0.00323261 0.00320584 0.00320311 0.00318808 0.00313116 0.00306026 0.00305632 0.00304383 0.00300958 
0.00300137 0.00298994 0.0029567 0.00295111 0.00290849 0.00284552 0.00282964 0.0028207 0.00281971 
0.00281899 
omega 3 100 double
6.05992 0.404583 -0.81812 6.05992 0.404583 -0.81812 6.05992 0.404583 -0.81812 
6.05992 0.404583 -0.81812 6.05992 0.404583 -0.81812 6.05992 0.404583 -0.81812 
6.05992 0.404583 -0.81812 6.05992 0.404583 -0.81812 6.05992 0.404583 -0.81812 
6.05992 0.404583 -0.81812 6.05992 0.404583 -0.81812 6.05992 0.404583 -0.81812 
6.05992 0.404583 -0.81812 6.05992 0.404583 -0.81812 6.05992 0.404583 -0.81812 
6.05992 0.404583 -0.81812 6.05992 0.404583 -0.81812 6.05992 0.404583 -0.81812 
6.05992 0.404583 -0.81812 6.05992 0.404583 -0.81812 6.05992 0.404583 -0.81812 
6.05992 0.404583 -0.81812 6.05992 0.404583 -0.81812 6.05992 0.404583 -0.81812 
6.05992 0.404583 -0.81812 6.05992 0.404583 -0.81812 6.05992 0.404583 -0.81812 
6.05992 0.404583 -0.81812 6.05992 0.404583 -0.81812 6.05992 0.404583 -0.81812 
6.05992 0.404583 -0.81812 6.05992 0.404583 -0.81812 6.05992 0.404583 -0.81812 
6.05992 0.404583 -0.81812 6.05992 0.404583 -0.81812 6.05992 0.404583 -0.81812 
6.05992 0.404583 -0.81812 6.05992 0.404583 -0.81812 6.05992 0.404583 -0.81812 
6.05992 0.404583 -0.81812 6.05992 0.404583 -0.81812 6.05992 0.404583 -0.81812 
6.05992 0.404583 -0.81812 6.05992 0.404583 -0.81812 6.05992 0.404583 -0.81812 
6.05992 0.404583 -0.81812 6.05992 0.404583 -0.81812 6.05992 0.404583 -0.81812 
6.05992 0.404583 -0.81812 6.05992 0.404583 -0.81812 7.425 1.34948 0.562686 
7.425 1.34948 0.562686 7.425 1.34948 0.562686 7.425 1.34948 0.562686 
7.425 1.34948 0.562686 7.425 1.34948 0.562686 7.425 1.34948 0.562686 
7.425 1.34948 0.562686 7.425 1.34948 0.562686 7.425 1.34948 0.562686 
7.425 1.34948 0.562686 7.425 1.34948 0.562686 7.425 1.34948 0.562686 
7.425 1.34948 0.562686 7.425 1.34948 0.562686 7.425 1.34948 0.562686 
7.425 1.34948 0.562686 7.425 1.34948 0.562686 7.425 1.34948 0.562686 
7.425 1.34948 0.562686 7.425 1.34948 0.562686 7.425 1.34948 0.562686 
7.425 1.34948 0.562686 7.425 1.34948 0.562686 7.425 1.34948 0.562686 
7.425 1.34948 0.562686 7.425 1.34948 0.562686 7.425 1.34948 0.562686 
7.425 1.34948 0.562686 7.425 1.34948 0.562686 7.425 1.34948 0.562686 
7.425 1.34948 0.562686 7.425 1.34948 0.562686 7.425 1.34948 0.562686 
7.425 1.34948 0.562686 7.425 1.34948 0.562686 7.425 1.34948 0.562686 
7.425 1.34948 0.562686 7.425 1.34948 0.562686 7.425 1.34948 0.562686 
7.425 1.34948 0.562686 7.425 1.34948 0.562686 7.425 1.34948 0.562686 
7.425 1.34948 0.562686 7.425 1.34948 0.562686 7.425 1.34948 0.562686 
7.425 1.34948 0.562686 7.425 1.34948 0.562686 7.425 1.34948 0.562686 
7.425 1.34948 0.562686 
