# vtk DataFile Version 4.0
Generated by LIGGGHTS
ASCII
DATASET POLYDATA
POINTS 100 float
-0.116755 -0.152568 0.0116083 -0.126655 -0.149202 0.0115285 -0.136451 -0.147463 0.0127697 
-0.123861 -0.16011 0.013985 -0.110214 -0.160298 0.0143525 -0.132265 -0.15758 0.0138698 
-0.142912 -0.153796 0.0138077 -0.116277 -0.164015 0.0119153 -0.145249 -0.145648 0.012916 
-0.119658 -0.141935 0.0110444 -0.13007 -0.165948 0.0139459 -0.139395 -0.1598 0.0139146 
-0.124361 -0.139976 0.0149359 -0.12498 -0.169094 0.0130065 -0.130562 -0.140547 0.0152731 
-0.135839 -0.163957 0.013516 -0.116814 -0.163485 0.0181647 -0.141931 -0.141666 0.0175606 
-0.115988 -0.143916 0.00553959 -0.149177 -0.150892 0.0123183 -0.120767 -0.147116 0.0036386 
-0.129332 -0.171633 0.013552 -0.112991 -0.161444 0.00704825 -0.102839 -0.159485 0.0164442 
-0.106747 -0.15566 0.0097955 -0.120377 -0.143473 0.0169839 -0.107998 -0.154766 0.0187709 
-0.105087 -0.160133 0.019711 -0.133463 -0.170258 0.0139021 -0.127703 -0.154929 0.019556 
-0.136453 -0.168586 0.013973 -0.110045 -0.166864 0.0106965 -0.132988 -0.146191 0.00462287 
-0.120205 -0.16926 0.0113176 -0.150948 -0.14523 0.0110989 -0.10978 -0.159201 0.00678199 
-0.140545 -0.165364 0.0138177 -0.120383 -0.167961 0.0145974 -0.146093 -0.159459 0.0131923 
-0.125176 -0.13945 0.00953732 -0.137211 -0.155678 0.00882136 -0.121945 -0.167017 0.00921651 
-0.117449 -0.159427 0.0198797 -0.118941 -0.16152 0.00630827 -0.143868 -0.148659 0.0179868 
-0.149044 -0.15594 0.0127577 -0.106527 -0.151746 0.00960004 -0.128063 -0.139405 0.0109292 
-0.14023 -0.168344 0.014567 -0.134801 -0.139446 0.0175158 -0.0464081 -0.122049 0.0113866 
-0.0565334 -0.11951 0.0119931 -0.0663213 -0.118547 0.0139431 -0.0526587 -0.13008 0.0144593 
-0.0390555 -0.129138 0.0137854 -0.0612309 -0.128252 0.0149339 -0.0721328 -0.125358 0.0156064 
-0.0449493 -0.133405 0.0118986 -0.075205 -0.117456 0.0147237 -0.0502266 -0.11171 0.0108212 
-0.0583427 -0.136407 0.0150192 -0.0681264 -0.131048 0.0155711 -0.0547737 -0.110037 0.0150187 
-0.0530905 -0.139149 0.0137598 -0.0608626 -0.111105 0.0158414 -0.0642737 -0.134908 0.0149898 
-0.0450621 -0.13275 0.0181582 -0.0718962 -0.11309 0.0190154 -0.0468237 -0.113534 0.00509498 
-0.0787129 -0.12302 0.0145396 -0.0514457 -0.117166 0.00363347 -0.0571611 -0.142021 0.0146905 
-0.0422627 -0.130708 0.00674098 -0.0316387 -0.127666 0.015289 -0.0363389 -0.124358 0.00887925 
-0.0503696 -0.113137 0.0168296 -0.0369884 -0.123324 0.0179031 -0.0335748 -0.128405 0.0187311 
-0.0613553 -0.14098 0.0153264 -0.0564967 -0.12508 0.0201969 -0.0644616 -0.139558 0.0155904 
-0.0386092 -0.135766 0.0102672 -0.0635933 -0.117219 0.00553007 -0.0484572 -0.138969 0.0117145 
-0.0810386 -0.117557 0.0133396 -0.0392801 -0.128218 0.00618236 -0.0688095 -0.136688 0.0156804 
-0.0484986 -0.1376 0.01497 -0.0748642 -0.131277 0.0153563 -0.0560301 -0.109728 0.00968841 
-0.0666816 -0.126902 0.0102395 -0.0505316 -0.136935 0.00970566 -0.0459062 -0.128712 0.0198303 
-0.0482239 -0.131293 0.00646023 -0.0732021 -0.120204 0.0197366 -0.0781241 -0.128025 0.0150743 
-0.0364625 -0.120446 0.00858456 -0.0587989 -0.109881 0.0112959 -0.0681907 -0.13961 0.0164664 
-0.0650007 -0.110294 0.0183781 
VERTICES 100 200
1 0 
1 1 
1 2 
1 3 
1 4 
1 5 
1 6 
1 7 
1 8 
1 9 
1 10 
1 11 
1 12 
1 13 
1 14 
1 15 
1 16 
1 17 
1 18 
1 19 
1 20 
1 21 
1 22 
1 23 
1 24 
1 25 
1 26 
1 27 
1 28 
1 29 
1 30 
1 31 
1 32 
1 33 
1 34 
1 35 
1 36 
1 37 
1 38 
1 39 
1 40 
1 41 
1 42 
1 43 
1 44 
1 45 
1 46 
1 47 
1 48 
1 49 
1 50 
1 51 
1 52 
1 53 
1 54 
1 55 
1 56 
1 57 
1 58 
1 59 
1 60 
1 61 
1 62 
1 63 
1 64 
1 65 
1 66 
1 67 
1 68 
1 69 
1 70 
1 71 
1 72 
1 73 
1 74 
1 75 
1 76 
1 77 
1 78 
1 79 
1 80 
1 81 
1 82 
1 83 
1 84 
1 85 
1 86 
1 87 
1 88 
1 89 
1 90 
1 91 
1 92 
1 93 
1 94 
1 95 
1 96 
1 97 
1 98 
1 99 

POINT_DATA 100
FIELD FieldData 7
id 1 100 int
1 2 3 4 5 6 7 8 9 
10 11 12 13 14 15 16 17 18 
19 20 21 22 23 24 25 26 27 
28 29 30 31 32 33 34 35 36 
37 38 39 40 41 42 43 44 45 
46 47 48 49 50 51 52 53 54 
55 56 57 58 59 60 61 62 63 
64 65 66 67 68 69 70 71 72 
73 74 75 76 77 78 79 80 81 
82 83 84 85 86 87 88 89 90 
91 92 93 94 95 96 97 98 99 
100 
mol 1 100 int
1 1 1 1 1 1 1 1 1 
1 1 1 1 1 1 1 1 1 
1 1 1 1 1 1 1 1 1 
1 1 1 1 1 1 1 1 1 
1 1 1 1 1 1 1 1 1 
1 1 1 1 1 2 2 2 2 
2 2 2 2 2 2 2 2 2 
2 2 2 2 2 2 2 2 2 
2 2 2 2 2 2 2 2 2 
2 2 2 2 2 2 2 2 2 
2 2 2 2 2 2 2 2 2 
2 
type 1 100 int
1 1 1 1 1 1 1 1 1 
1 1 1 1 1 1 1 1 1 
1 1 1 1 1 1 1 1 1 
1 1 1 1 1 1 1 1 1 
1 1 1 1 1 1 1 1 1 
1 1 1 1 1 1 1 1 1 
1 1 1 1 1 1 1 1 1 
1 1 1 1 1 1 1 1 1 
1 1 1 1 1 1 1 1 1 
1 1 1 1 1 1 1 1 1 
1 1 1 1 1 1 1 1 1 
1 
v 3 100 double
-0.018355 -0.194871 -0.0840218 -0.0152079 -0.184573 -0.0400718 -0.0150448 -0.196048 -0.0227071 
-0.0279128 -0.227424 -0.21589 -0.0285031 -0.245845 -0.203421 -0.0254843 -0.217903 -0.183955 
-0.0219779 -0.207217 -0.133998 -0.0290978 -0.200344 -0.271329 -0.0135633 -0.190462 -0.00294548 
-0.00805783 -0.182981 0.0871707 -0.0331687 -0.221145 -0.318782 -0.0275511 -0.212164 -0.228522 
-0.0107175 -0.242576 0.113958 -0.0349533 -0.210349 -0.364602 -0.0116202 -0.242478 0.0975173 
-0.0308708 -0.208852 -0.292688 -0.0357444 -0.302416 -0.263247 -0.0152456 -0.269697 0.0661791 
-0.00357846 -0.0959734 0.0588396 -0.0176434 -0.177087 -0.0934973 -0.00431547 -0.0604375 0.000877946 
-0.037881 -0.215351 -0.411238 -0.0212125 -0.123454 -0.225386 -0.0301503 -0.286868 -0.181661 
-0.0190945 -0.174207 -0.123345 -0.0162279 -0.279802 0.0611174 -0.0285198 -0.320367 -0.110108 
-0.0344639 -0.338438 -0.19485 -0.0370318 -0.217346 -0.393381 -0.0295624 -0.315361 -0.135243 
-0.0355948 -0.215794 -0.369356 -0.0302946 -0.186 -0.310979 -0.00459779 -0.0654953 0.00212841 
-0.033178 -0.186969 -0.361881 -0.0111113 -0.155468 -0.00258565 -0.0188727 -0.121999 -0.184919 
-0.0324921 -0.20953 -0.321142 -0.0357396 -0.240632 -0.340773 -0.0264173 -0.19423 -0.230556 
-0.0040825 -0.153239 0.121665 -0.0180001 -0.130562 -0.15839 -0.0287454 -0.150907 -0.327059 
-0.0340159 -0.329983 -0.197375 -0.020438 -0.105907 -0.233426 -0.0220808 -0.274933 -0.0507926 
-0.0227267 -0.184418 -0.176173 -0.0153176 -0.1712 -0.0588533 -0.0056293 -0.17346 0.119107 
-0.0360521 -0.222114 -0.369683 -0.0131787 -0.275435 0.110746 0.0188265 -0.166855 -0.079039 
0.0230269 -0.163833 -0.0215747 0.0282972 -0.180146 0.0129345 0.0162134 -0.203049 -0.178951 
0.0158495 -0.209099 -0.194754 0.0193183 -0.199941 -0.13484 0.0240663 -0.196962 -0.0706995 
0.00693599 -0.175745 -0.242339 0.0312137 -0.180998 0.0473187 0.0294409 -0.154515 0.0749709 
0.0101763 -0.204447 -0.256039 0.0174842 -0.201045 -0.159528 0.0403286 -0.208522 0.10829 
0.00434803 -0.19269 -0.305948 0.0408661 -0.213163 0.106242 0.0118267 -0.19725 -0.222222 
0.0210692 -0.263909 -0.232853 0.0453826 -0.245317 0.101833 0.0151117 -0.0776352 0.0419649 
0.0244582 -0.17439 -0.0236592 0.0078337 -0.0517352 0.000616587 0.00305398 -0.201162 -0.337752 
-0.00100722 -0.106068 -0.210037 0.0207483 -0.238787 -0.189837 0.0108255 -0.143002 -0.133135 
0.0406551 -0.239101 0.0551401 0.031302 -0.269543 -0.11716 0.0272623 -0.285126 -0.196131 
0.00560384 -0.205336 -0.314104 0.0341981 -0.279591 -0.100224 0.00779445 -0.205508 -0.287403 
0.000748577 -0.159984 -0.289194 0.0118277 -0.064597 0.0258356 0.000180432 -0.169137 -0.313317 
0.0281388 -0.154804 0.0583666 0.000646006 -0.101599 -0.181287 0.0112688 -0.201805 -0.237621 
0.00870677 -0.215009 -0.293915 0.0167631 -0.190311 -0.148353 0.0292851 -0.1319 0.115336 
0.0108248 -0.127494 -0.104145 -0.00178897 -0.13843 -0.280194 0.0292616 -0.28653 -0.174094 
-0.00227596 -0.0952914 -0.205537 0.0387902 -0.253997 0.00428051 0.0198782 -0.182605 -0.095517 
0.0146692 -0.138704 -0.0776844 0.032546 -0.151407 0.119084 0.00960813 -0.2136 -0.280162 
0.0472166 -0.244212 0.126521 
f 3 100 double
0 0 0 0 0 0 0 0 0 
0 0 0 0 0 0 0 0 0 
0 0 0 0 0 0 0 0 0 
0 0 0 0 0 0 0 0 0 
0 0 0 0 0 0 0 0 0 
0 0 0 0 0 0 0 0 0 
0 0 0 0 0 0 -0.0638582 -0.055636 0.249652 
0 0 0 0 0 0 0 0 0 
0 0 0 0 0 0 0 0 0 
0 0 0 0 0 0 0 0 0 
0 0 0 0 0 0 0 0 0 
0 0 0 0 0 0 0 0 0 
0 0 0 0 0 0 0 0 0 
0 0 0 0 0 0 0 0 0 
0 0 0 0 0 0 0 0 0 
0 0 0 0 0 0 0 0 0 
0 0 0 0 0 0 0 0 0 
0 0 0 0 0 0 0 0 0 
0 0 0 0 0 0 0 0 0 
0 0 0 0 0 0 0 0 0 
0 0 0 0 0 0 0 0 0 
0 0 0 0 0 0 0 0 0 
0 0 0 0 0 0 0 0 0 
0 0 0 -0.0587497 -0.0764021 0.284323 0 0 0 
0 0 0 0 0 0 0 0 0 
0 0 0 0 0 0 0 0 0 
0 0 0 0 0 0 0 0 0 
0 0 0 0 0 0 0 0 0 
0 0 0 0 0 0 0 0 0 
0 0 0 0 0 0 0 0 0 
0 0 0 0 0 0 0 0 0 
0 0 0 0 0 0 0 0 0 
0 0 0 0 0 0 0 0 0 
0 0 0 
radius 1 100 double
0.010434 0.00981478 0.00892069 0.00845937 0.00731974 0.00728422 0.00643447 0.00619172 0.00585956 
0.00577566 0.00537241 0.00522549 0.00513666 0.00473175 0.00466912 0.00444866 0.00441894 0.00400812 
0.00385622 0.00379948 0.00370243 0.00366942 0.00364039 0.00363813 0.00363644 0.00358692 0.0035797 
0.00341284 0.00337012 0.00336273 0.00332772 0.00323261 0.00320584 0.00320311 0.00318808 0.00313116 
0.00306026 0.00305632 0.00304383 0.00300958 0.00300137 0.00298994 0.0029567 0.00295111 0.00290849 
0.00284552 0.00282964 0.0028207 0.00281971 0.00281899 0.010434 0.00981478 0.00892069 0.00845937 
0.00731974 0.00728422 0.00643447 0.00619172 0.00585956 0.00577566 0.00537241 0.00522549 0.00513666 
0.00473175 0.00466912 0.00444866 0.00441894 0.00400812 0.00385622 0.00379948 0.00370243 0.00366942 
0.00364039 0.00363813 0.00363644 0.00358692 0.0035797 0.00341284 0.00337012 0.00336273 0.00332772 
0.00323261 0.00320584 0.00320311 0.00318808 0.00313116 0.00306026 0.00305632 0.00304383 0.00300958 
0.00300137 0.00298994 0.0029567 0.00295111 0.00290849 0.00284552 0.00282964 0.0028207 0.00281971 
0.00281899 
omega 3 100 double
16.411 -1.14051 -0.907912 16.411 -1.14051 -0.907912 16.411 -1.14051 -0.907912 
16.411 -1.14051 -0.907912 16.411 -1.14051 -0.907912 16.411 -1.14051 -0.907912 
16.411 -1.14051 -0.907912 16.411 -1.14051 -0.907912 16.411 -1.14051 -0.907912 
16.411 -1.14051 -0.907912 16.411 -1.14051 -0.907912 16.411 -1.14051 -0.907912 
16.411 -1.14051 -0.907912 16.411 -1.14051 -0.907912 16.411 -1.14051 -0.907912 
16.411 -1.14051 -0.907912 16.411 -1.14051 -0.907912 16.411 -1.14051 -0.907912 
16.411 -1.14051 -0.907912 16.411 -1.14051 -0.907912 16.411 -1.14051 -0.907912 
16.411 -1.14051 -0.907912 16.411 -1.14051 -0.907912 16.411 -1.14051 -0.907912 
16.411 -1.14051 -0.907912 16.411 -1.14051 -0.907912 16.411 -1.14051 -0.907912 
16.411 -1.14051 -0.907912 16.411 -1.14051 -0.907912 16.411 -1.14051 -0.907912 
16.411 -1.14051 -0.907912 16.411 -1.14051 -0.907912 16.411 -1.14051 -0.907912 
16.411 -1.14051 -0.907912 16.411 -1.14051 -0.907912 16.411 -1.14051 -0.907912 
16.411 -1.14051 -0.907912 16.411 -1.14051 -0.907912 16.411 -1.14051 -0.907912 
16.411 -1.14051 -0.907912 16.411 -1.14051 -0.907912 16.411 -1.14051 -0.907912 
16.411 -1.14051 -0.907912 16.411 -1.14051 -0.907912 16.411 -1.14051 -0.907912 
16.411 -1.14051 -0.907912 16.411 -1.14051 -0.907912 16.411 -1.14051 -0.907912 
16.411 -1.14051 -0.907912 16.411 -1.14051 -0.907912 14.1053 2.13812 -1.14346 
14.1053 2.13812 -1.14346 14.1053 2.13812 -1.14346 14.1053 2.13812 -1.14346 
14.1053 2.13812 -1.14346 14.1053 2.13812 -1.14346 14.1053 2.13812 -1.14346 
14.1053 2.13812 -1.14346 14.1053 2.13812 -1.14346 14.1053 2.13812 -1.14346 
14.1053 2.13812 -1.14346 14.1053 2.13812 -1.14346 14.1053 2.13812 -1.14346 
14.1053 2.13812 -1.14346 14.1053 2.13812 -1.14346 14.1053 2.13812 -1.14346 
14.1053 2.13812 -1.14346 14.1053 2.13812 -1.14346 14.1053 2.13812 -1.14346 
14.1053 2.13812 -1.14346 14.1053 2.13812 -1.14346 14.1053 2.13812 -1.14346 
14.1053 2.13812 -1.14346 14.1053 2.13812 -1.14346 14.1053 2.13812 -1.14346 
14.1053 2.13812 -1.14346 14.1053 2.13812 -1.14346 14.1053 2.13812 -1.14346 
14.1053 2.13812 -1.14346 14.1053 2.13812 -1.14346 14.1053 2.13812 -1.14346 
14.1053 2.13812 -1.14346 14.1053 2.13812 -1.14346 14.1053 2.13812 -1.14346 
14.1053 2.13812 -1.14346 14.1053 2.13812 -1.14346 14.1053 2.13812 -1.14346 
14.1053 2.13812 -1.14346 14.1053 2.13812 -1.14346 14.1053 2.13812 -1.14346 
14.1053 2.13812 -1.14346 14.1053 2.13812 -1.14346 14.1053 2.13812 -1.14346 
14.1053 2.13812 -1.14346 14.1053 2.13812 -1.14346 14.1053 2.13812 -1.14346 
14.1053 2.13812 -1.14346 14.1053 2.13812 -1.14346 14.1053 2.13812 -1.14346 
14.1053 2.13812 -1.14346 
