# vtk DataFile Version 4.0
Generated by LIGGGHTS
ASCII
DATASET POLYDATA
POINTS 100 float
-0.111324 -0.130586 0.0223863 -0.121707 -0.131534 0.0215861 -0.131668 -0.131758 0.0227098 
-0.116206 -0.132196 0.0316914 -0.103184 -0.129227 0.0288635 -0.124922 -0.13315 0.0312912 
-0.136138 -0.134095 0.0302911 -0.107652 -0.133869 0.0327346 -0.140584 -0.132776 0.02314 
-0.117049 -0.128279 0.0132368 -0.120464 -0.135324 0.0383796 -0.131093 -0.135224 0.0349502 
-0.122495 -0.124973 0.0139491 -0.114621 -0.136198 0.0397163 -0.128279 -0.126065 0.0160096 
-0.126482 -0.136222 0.0377483 -0.108969 -0.128014 0.0346341 -0.139038 -0.126544 0.0204557 
-0.112413 -0.133291 0.0121995 -0.142777 -0.135781 0.0285667 -0.115861 -0.137018 0.0155024 
-0.118106 -0.137362 0.0432071 -0.10474 -0.136909 0.0279003 -0.0966033 -0.125575 0.0271907 
-0.100718 -0.131283 0.0222306 -0.117921 -0.123408 0.016935 -0.103104 -0.122926 0.0249487 
-0.0989044 -0.123197 0.0294705 -0.12247 -0.137412 0.0430382 -0.121922 -0.126133 0.0298998 
-0.125802 -0.137401 0.0422386 -0.100777 -0.134682 0.0334406 -0.127874 -0.138218 0.017825 
-0.109845 -0.136875 0.0381613 -0.145945 -0.135449 0.0234141 -0.102288 -0.135806 0.0250402 
-0.1306 -0.13732 0.0402086 -0.110727 -0.133455 0.0382118 -0.137498 -0.137104 0.0359176 
-0.122856 -0.129968 0.0117123 -0.129648 -0.138195 0.0288855 -0.111921 -0.138448 0.0357751 
-0.110906 -0.125252 0.0317305 -0.110312 -0.138792 0.0290675 -0.138944 -0.128768 0.0273752 
-0.141264 -0.136963 0.033257 -0.101598 -0.130168 0.0185709 -0.125766 -0.129233 0.0128365 
-0.129533 -0.137517 0.0431003 -0.132867 -0.12447 0.0167966 -0.0424542 -0.102795 0.0227011 
-0.0528122 -0.103751 0.0216363 -0.0627976 -0.103997 0.0225107 -0.0475624 -0.104484 0.0318697 
-0.0344787 -0.101475 0.0293885 -0.0562649 -0.105446 0.0312459 -0.0674508 -0.106398 0.0299606 
-0.0390347 -0.106153 0.033112 -0.0717202 -0.10503 0.0227117 -0.047954 -0.100426 0.0134303 
-0.0519806 -0.107668 0.038426 -0.0625215 -0.107556 0.0347348 -0.0534206 -0.0971322 0.0140324 
-0.0461713 -0.108545 0.0399005 -0.0592522 -0.098248 0.0159403 -0.0579798 -0.10857 0.0376387 
-0.0404075 -0.100314 0.0350229 -0.0701175 -0.0987753 0.0201143 -0.0432853 -0.105424 0.01247 
-0.0740429 -0.10808 0.0280591 -0.0468085 -0.109181 0.0156578 -0.0497394 -0.10974 0.0432948 
-0.0359992 -0.109152 0.0283283 -0.0278644 -0.0978015 0.0279075 -0.0318461 -0.103477 0.0228033 
-0.048924 -0.0955848 0.0171428 -0.0343115 -0.0951441 0.0255252 -0.030225 -0.0954449 0.0301477 
-0.0540983 -0.109795 0.0430172 -0.0532417 -0.0984147 0.0299831 -0.0574093 -0.109782 0.0421353 
-0.0321777 -0.106962 0.0339821 -0.0588743 -0.110414 0.0176722 -0.0413574 -0.109203 0.0384594 
-0.0770818 -0.107712 0.0228323 -0.0334788 -0.108024 0.0255384 -0.0621559 -0.109692 0.0399875 
-0.0422453 -0.105785 0.0385141 -0.0689458 -0.109452 0.0355285 -0.0537184 -0.102111 0.0117493 
-0.0609215 -0.110479 0.0286852 -0.0433707 -0.110761 0.0360105 -0.0422758 -0.0975326 0.0320933 
-0.0415958 -0.111051 0.0293425 -0.0701919 -0.101052 0.0270168 -0.0726446 -0.109295 0.0327764 
-0.0326366 -0.102335 0.0191316 -0.0566567 -0.101388 0.0128065 -0.0611604 -0.10991 0.0429032 
-0.063861 -0.0966651 0.0166254 
VERTICES 100 200
1 0 
1 1 
1 2 
1 3 
1 4 
1 5 
1 6 
1 7 
1 8 
1 9 
1 10 
1 11 
1 12 
1 13 
1 14 
1 15 
1 16 
1 17 
1 18 
1 19 
1 20 
1 21 
1 22 
1 23 
1 24 
1 25 
1 26 
1 27 
1 28 
1 29 
1 30 
1 31 
1 32 
1 33 
1 34 
1 35 
1 36 
1 37 
1 38 
1 39 
1 40 
1 41 
1 42 
1 43 
1 44 
1 45 
1 46 
1 47 
1 48 
1 49 
1 50 
1 51 
1 52 
1 53 
1 54 
1 55 
1 56 
1 57 
1 58 
1 59 
1 60 
1 61 
1 62 
1 63 
1 64 
1 65 
1 66 
1 67 
1 68 
1 69 
1 70 
1 71 
1 72 
1 73 
1 74 
1 75 
1 76 
1 77 
1 78 
1 79 
1 80 
1 81 
1 82 
1 83 
1 84 
1 85 
1 86 
1 87 
1 88 
1 89 
1 90 
1 91 
1 92 
1 93 
1 94 
1 95 
1 96 
1 97 
1 98 
1 99 

POINT_DATA 100
FIELD FieldData 7
id 1 100 int
1 2 3 4 5 6 7 8 9 
10 11 12 13 14 15 16 17 18 
19 20 21 22 23 24 25 26 27 
28 29 30 31 32 33 34 35 36 
37 38 39 40 41 42 43 44 45 
46 47 48 49 50 51 52 53 54 
55 56 57 58 59 60 61 62 63 
64 65 66 67 68 69 70 71 72 
73 74 75 76 77 78 79 80 81 
82 83 84 85 86 87 88 89 90 
91 92 93 94 95 96 97 98 99 
100 
mol 1 100 int
1 1 1 1 1 1 1 1 1 
1 1 1 1 1 1 1 1 1 
1 1 1 1 1 1 1 1 1 
1 1 1 1 1 1 1 1 1 
1 1 1 1 1 1 1 1 1 
1 1 1 1 1 2 2 2 2 
2 2 2 2 2 2 2 2 2 
2 2 2 2 2 2 2 2 2 
2 2 2 2 2 2 2 2 2 
2 2 2 2 2 2 2 2 2 
2 2 2 2 2 2 2 2 2 
2 
type 1 100 int
1 1 1 1 1 1 1 1 1 
1 1 1 1 1 1 1 1 1 
1 1 1 1 1 1 1 1 1 
1 1 1 1 1 1 1 1 1 
1 1 1 1 1 1 1 1 1 
1 1 1 1 1 1 1 1 1 
1 1 1 1 1 1 1 1 1 
1 1 1 1 1 1 1 1 1 
1 1 1 1 1 1 1 1 1 
1 1 1 1 1 1 1 1 1 
1 1 1 1 1 1 1 1 1 
1 
v 3 100 double
-0.110413 -0.0602879 0.153481 -0.104516 -0.0615878 0.0785045 -0.112365 -0.0665827 0.00793169 
-0.175477 -0.0800832 0.115923 -0.156393 -0.0708604 0.213488 -0.172394 -0.0817125 0.0526648 
-0.165091 -0.0828478 -0.0281708 -0.182357 -0.0797732 0.172829 -0.115111 -0.0699132 -0.0568581 
-0.0466383 -0.0437487 0.117745 -0.221695 -0.0945197 0.0797443 -0.197579 -0.0906782 0.00510998 
-0.0525718 -0.0466735 0.0859581 -0.230863 -0.0955446 0.11915 -0.0667749 -0.0523639 0.0430727 
-0.217001 -0.0949413 0.0355942 -0.197358 -0.0839032 0.175159 -0.0979441 -0.0641642 -0.0336243 
-0.0379418 -0.0404044 0.140459 -0.152482 -0.081276 -0.0782566 -0.0601603 -0.0479077 0.108798 
-0.255116 -0.10343 0.0923106 -0.147476 -0.0693843 0.187306 -0.14563 -0.0657168 0.267053 
-0.109123 -0.0570316 0.226774 -0.0740284 -0.0513189 0.121264 -0.130582 -0.0630809 0.226535 
-0.162342 -0.0708741 0.255563 -0.253913 -0.104308 0.0614845 -0.164548 -0.0781216 0.087692 
-0.248287 -0.10365 0.0380489 -0.187101 -0.0792613 0.219624 -0.0761782 -0.0558488 0.021838 
-0.219728 -0.091136 0.151431 -0.116298 -0.0719461 -0.0998956 -0.127647 -0.0630354 0.206755 
-0.234018 -0.100961 0.00442618 -0.221033 -0.0914811 0.152 -0.203868 -0.0943753 -0.0437104 
-0.0354358 -0.0423415 0.0735185 -0.154055 -0.0782588 0.00939921 -0.202491 -0.0869845 0.133702 
-0.177682 -0.0786877 0.166997 -0.155171 -0.073246 0.144344 -0.146042 -0.0778497 -0.0373699 
-0.185175 -0.0901495 -0.0699425 -0.0836674 -0.0500243 0.222788 -0.0435547 -0.0453779 0.0544866 
-0.254322 -0.106394 0.0115509 -0.072759 -0.0551986 0.0139302 -0.109772 -0.0599744 0.10561 
-0.102115 -0.061089 0.0321295 -0.108087 -0.0658367 -0.0374014 -0.172662 -0.0792557 0.0670205 
-0.156424 -0.0704543 0.163316 -0.168053 -0.0807156 0.00497714 -0.158873 -0.0816576 -0.0742217 
-0.180742 -0.0790447 0.122769 -0.109161 -0.0689577 -0.101102 -0.0463834 -0.0437443 0.0721532 
-0.217028 -0.0932779 0.0303113 -0.191535 -0.0893733 -0.0423688 -0.0515563 -0.046582 0.0407123 
-0.226957 -0.0943481 0.0687936 -0.0644091 -0.0520547 -0.0017731 -0.211307 -0.0935939 -0.0129195 
-0.195745 -0.0831577 0.124558 -0.0931132 -0.0634477 -0.077933 -0.0382119 -0.0404589 0.0947834 
-0.145208 -0.0800022 -0.12306 -0.0591072 -0.0476978 0.0631579 -0.250064 -0.102 0.0418066 
-0.146741 -0.0688712 0.137966 -0.147307 -0.0655669 0.216158 -0.11027 -0.0569232 0.177655 
-0.0735406 -0.0512152 0.0747996 -0.131646 -0.0629379 0.176707 -0.163521 -0.0706186 0.204387 
-0.248128 -0.102798 0.0115573 -0.161473 -0.0773495 0.0394713 -0.242033 -0.102108 -0.0113159 
-0.186512 -0.0786261 0.168627 -0.0726604 -0.0552856 -0.0226699 -0.216789 -0.0900891 0.100812 
-0.109173 -0.0708326 -0.143365 -0.127793 -0.0627084 0.157578 -0.227207 -0.0994116 -0.0439687 
-0.218214 -0.0904668 0.101277 -0.196444 -0.0928746 -0.0904611 -0.0342422 -0.0422613 0.029033 
-0.148803 -0.0771934 -0.0369512 -0.199376 -0.0859735 0.0838795 -0.176337 -0.0780688 0.117013 
-0.153173 -0.072545 0.0955923 -0.140152 -0.0768086 -0.0828471 -0.177459 -0.0886892 -0.115738 
-0.0852271 -0.0500702 0.174394 -0.0417747 -0.045204 0.0101094 -0.247305 -0.104741 -0.0375038 
-0.0696316 -0.0547899 -0.0305874 
f 3 100 double
0 0 0 0 0 0 0 0 0 
0 0 0 0 0 0 0 0 0 
0 0 0 0 0 0 0 0 0 
0 0 0 0 0 0 0 0 0 
0 0 0 0 0 0 0 0 0 
0 0 0 0 0 0 0 0 0 
0 0 0 0 0 0 0 0 0 
0 0 0 0 0 0 0 0 0 
0 0 0 0 0 0 0 0 0 
0 0 0 0 0 0 0 0 0 
0 0 0 0 0 0 0 0 0 
0 0 0 0 0 0 0 0 0 
0 0 0 0 0 0 0 0 0 
0 0 0 0 0 0 0 0 0 
0 0 0 0 0 0 0 0 0 
0 0 0 0 0 0 0 0 0 
0 0 0 0 0 0 0 0 0 
0 0 0 0 0 0 0 0 0 
0 0 0 0 0 0 0 0 0 
0 0 0 0 0 0 0 0 0 
0 0 0 0 0 0 0 0 0 
0 0 0 0 0 0 0 0 0 
0 0 0 0 0 0 0 0 0 
0 0 0 0 0 0 0 0 0 
0 0 0 0 0 0 0 0 0 
0 0 0 0 0 0 0 0 0 
0 0 0 0 0 0 0 0 0 
0 0 0 0 0 0 0 0 0 
0 0 0 0 0 0 0 0 0 
0 0 0 0 0 0 0 0 0 
0 0 0 0 0 0 0 0 0 
0 0 0 0 0 0 0 0 0 
0 0 0 0 0 0 0 0 0 
0 0 0 
radius 1 100 double
0.010434 0.00981478 0.00892069 0.00845937 0.00731974 0.00728422 0.00643447 0.00619172 0.00585956 
0.00577566 0.00537241 0.00522549 0.00513666 0.00473175 0.00466912 0.00444866 0.00441894 0.00400812 
0.00385622 0.00379948 0.00370243 0.00366942 0.00364039 0.00363813 0.00363644 0.00358692 0.0035797 
0.00341284 0.00337012 0.00336273 0.00332772 0.00323261 0.00320584 0.00320311 0.00318808 0.00313116 
0.00306026 0.00305632 0.00304383 0.00300958 0.00300137 0.00298994 0.0029567 0.00295111 0.00290849 
0.00284552 0.00282964 0.0028207 0.00281971 0.00281899 0.010434 0.00981478 0.00892069 0.00845937 
0.00731974 0.00728422 0.00643447 0.00619172 0.00585956 0.00577566 0.00537241 0.00522549 0.00513666 
0.00473175 0.00466912 0.00444866 0.00441894 0.00400812 0.00385622 0.00379948 0.00370243 0.00366942 
0.00364039 0.00363813 0.00363644 0.00358692 0.0035797 0.00341284 0.00337012 0.00336273 0.00332772 
0.00323261 0.00320584 0.00320311 0.00318808 0.00313116 0.00306026 0.00305632 0.00304383 0.00300958 
0.00300137 0.00298994 0.0029567 0.00295111 0.00290849 0.00284552 0.00282964 0.0028207 0.00281971 
0.00281899 
omega 3 100 double
1.98157 -7.04041 0.277915 1.98157 -7.04041 0.277915 1.98157 -7.04041 0.277915 
1.98157 -7.04041 0.277915 1.98157 -7.04041 0.277915 1.98157 -7.04041 0.277915 
1.98157 -7.04041 0.277915 1.98157 -7.04041 0.277915 1.98157 -7.04041 0.277915 
1.98157 -7.04041 0.277915 1.98157 -7.04041 0.277915 1.98157 -7.04041 0.277915 
1.98157 -7.04041 0.277915 1.98157 -7.04041 0.277915 1.98157 -7.04041 0.277915 
1.98157 -7.04041 0.277915 1.98157 -7.04041 0.277915 1.98157 -7.04041 0.277915 
1.98157 -7.04041 0.277915 1.98157 -7.04041 0.277915 1.98157 -7.04041 0.277915 
1.98157 -7.04041 0.277915 1.98157 -7.04041 0.277915 1.98157 -7.04041 0.277915 
1.98157 -7.04041 0.277915 1.98157 -7.04041 0.277915 1.98157 -7.04041 0.277915 
1.98157 -7.04041 0.277915 1.98157 -7.04041 0.277915 1.98157 -7.04041 0.277915 
1.98157 -7.04041 0.277915 1.98157 -7.04041 0.277915 1.98157 -7.04041 0.277915 
1.98157 -7.04041 0.277915 1.98157 -7.04041 0.277915 1.98157 -7.04041 0.277915 
1.98157 -7.04041 0.277915 1.98157 -7.04041 0.277915 1.98157 -7.04041 0.277915 
1.98157 -7.04041 0.277915 1.98157 -7.04041 0.277915 1.98157 -7.04041 0.277915 
1.98157 -7.04041 0.277915 1.98157 -7.04041 0.277915 1.98157 -7.04041 0.277915 
1.98157 -7.04041 0.277915 1.98157 -7.04041 0.277915 1.98157 -7.04041 0.277915 
1.98157 -7.04041 0.277915 1.98157 -7.04041 0.277915 1.93235 -6.91569 0.306252 
1.93235 -6.91569 0.306252 1.93235 -6.91569 0.306252 1.93235 -6.91569 0.306252 
1.93235 -6.91569 0.306252 1.93235 -6.91569 0.306252 1.93235 -6.91569 0.306252 
1.93235 -6.91569 0.306252 1.93235 -6.91569 0.306252 1.93235 -6.91569 0.306252 
1.93235 -6.91569 0.306252 1.93235 -6.91569 0.306252 1.93235 -6.91569 0.306252 
1.93235 -6.91569 0.306252 1.93235 -6.91569 0.306252 1.93235 -6.91569 0.306252 
1.93235 -6.91569 0.306252 1.93235 -6.91569 0.306252 1.93235 -6.91569 0.306252 
1.93235 -6.91569 0.306252 1.93235 -6.91569 0.306252 1.93235 -6.91569 0.306252 
1.93235 -6.91569 0.306252 1.93235 -6.91569 0.306252 1.93235 -6.91569 0.306252 
1.93235 -6.91569 0.306252 1.93235 -6.91569 0.306252 1.93235 -6.91569 0.306252 
1.93235 -6.91569 0.306252 1.93235 -6.91569 0.306252 1.93235 -6.91569 0.306252 
1.93235 -6.91569 0.306252 1.93235 -6.91569 0.306252 1.93235 -6.91569 0.306252 
1.93235 -6.91569 0.306252 1.93235 -6.91569 0.306252 1.93235 -6.91569 0.306252 
1.93235 -6.91569 0.306252 1.93235 -6.91569 0.306252 1.93235 -6.91569 0.306252 
1.93235 -6.91569 0.306252 1.93235 -6.91569 0.306252 1.93235 -6.91569 0.306252 
1.93235 -6.91569 0.306252 1.93235 -6.91569 0.306252 1.93235 -6.91569 0.306252 
1.93235 -6.91569 0.306252 1.93235 -6.91569 0.306252 1.93235 -6.91569 0.306252 
1.93235 -6.91569 0.306252 
