# vtk DataFile Version 4.0
Generated by LIGGGHTS
ASCII
DATASET POLYDATA
POINTS 100 float
-0.116721 -0.152182 0.0117704 -0.126627 -0.148837 0.0116027 -0.136424 -0.147076 0.0128076 
-0.123808 -0.159655 0.0144049 -0.11016 -0.159807 0.0147495 -0.132217 -0.157145 0.0142256 
-0.142871 -0.153383 0.0140635 -0.116221 -0.163611 0.0124466 -0.145225 -0.145273 0.0129137 
-0.119645 -0.141577 0.010869 -0.130007 -0.165502 0.0145678 -0.139343 -0.159375 0.0143572 
-0.124343 -0.139502 0.014705 -0.124913 -0.168668 0.0137198 -0.130542 -0.140072 0.0150735 
-0.13578 -0.163536 0.0140858 -0.116746 -0.162881 0.0186768 -0.141905 -0.141137 0.01742 
-0.115983 -0.143729 0.00542344 -0.149145 -0.150541 0.0124942 -0.12076 -0.146997 0.00363703 
-0.129259 -0.171196 0.0143564 -0.11295 -0.161193 0.00749201 -0.102782 -0.158914 0.0167983 
-0.106711 -0.155313 0.0100376 -0.120349 -0.142923 0.0168567 -0.107946 -0.154131 0.0189819 
-0.105022 -0.159459 0.020089 -0.133391 -0.169817 0.0146706 -0.127648 -0.154303 0.0198134 
-0.136385 -0.168149 0.0146936 -0.109987 -0.166488 0.0113075 -0.13298 -0.146062 0.00461659 
-0.120141 -0.16888 0.0120272 -0.150929 -0.144924 0.011096 -0.109744 -0.158955 0.00714657 
-0.140483 -0.164941 0.0144427 -0.120314 -0.167476 0.0152636 -0.146043 -0.159069 0.0136383 
-0.12517 -0.139152 0.00929393 -0.137177 -0.155416 0.00912869 -0.12189 -0.166709 0.00985828 
-0.117386 -0.15877 0.0202609 -0.118901 -0.161304 0.00676742 -0.143828 -0.148116 0.0180763 
-0.149001 -0.155571 0.0130963 -0.106498 -0.151406 0.0097151 -0.128054 -0.139067 0.0106897 
-0.140161 -0.167894 0.0152874 -0.134779 -0.138907 0.0172884 -0.0464479 -0.121719 0.0115398 
-0.0565813 -0.119187 0.0120314 -0.0663799 -0.118193 0.0139111 -0.0526946 -0.129675 0.0148071 
-0.0390906 -0.128722 0.0141668 -0.0612728 -0.127855 0.0151933 -0.0721839 -0.124968 0.0157375 
-0.0449666 -0.133053 0.0123734 -0.0752692 -0.117101 0.0146223 -0.0502864 -0.111407 0.0106709 
-0.0583672 -0.135997 0.0155177 -0.0681649 -0.130647 0.0158778 -0.0548557 -0.109629 0.0148004 
-0.0531035 -0.138761 0.0143579 -0.0609459 -0.110688 0.0156258 -0.0643013 -0.134514 0.0154207 
-0.0451087 -0.132224 0.0186118 -0.071989 -0.11261 0.0188054 -0.0468543 -0.113382 0.00501239 
-0.0787642 -0.122676 0.0145775 -0.0514618 -0.117064 0.00363214 -0.0571719 -0.141616 0.0153502 
-0.0422631 -0.130494 0.00715469 -0.0316838 -0.12719 0.0156612 -0.0363627 -0.124073 0.00914161 
-0.050453 -0.112668 0.0167159 -0.0370544 -0.12279 0.0181303 -0.0336335 -0.127839 0.0191141 
-0.0613712 -0.140567 0.0159387 -0.0565688 -0.124527 0.0203868 -0.0644816 -0.139145 0.0161495 
-0.0386143 -0.135443 0.010836 -0.0636175 -0.117093 0.00547642 -0.0484616 -0.138628 0.0123286 
-0.0810964 -0.117254 0.013216 -0.0392835 -0.128013 0.00654014 -0.0688362 -0.136284 0.0161407 
-0.0485204 -0.137169 0.0155446 -0.0749012 -0.130898 0.01564 -0.0560892 -0.109471 0.00945807 
-0.0667055 -0.126648 0.0104395 -0.0505315 -0.136655 0.010255 -0.0459689 -0.128143 0.0201675 
-0.0482218 -0.131099 0.00686425 -0.0732826 -0.119704 0.0197183 -0.0781669 -0.127663 0.0152535 
-0.0364935 -0.120171 0.00873783 -0.0588647 -0.109587 0.0110571 -0.0682145 -0.139182 0.0170103 
-0.0650969 -0.109817 0.0181209 
VERTICES 100 200
1 0 
1 1 
1 2 
1 3 
1 4 
1 5 
1 6 
1 7 
1 8 
1 9 
1 10 
1 11 
1 12 
1 13 
1 14 
1 15 
1 16 
1 17 
1 18 
1 19 
1 20 
1 21 
1 22 
1 23 
1 24 
1 25 
1 26 
1 27 
1 28 
1 29 
1 30 
1 31 
1 32 
1 33 
1 34 
1 35 
1 36 
1 37 
1 38 
1 39 
1 40 
1 41 
1 42 
1 43 
1 44 
1 45 
1 46 
1 47 
1 48 
1 49 
1 50 
1 51 
1 52 
1 53 
1 54 
1 55 
1 56 
1 57 
1 58 
1 59 
1 60 
1 61 
1 62 
1 63 
1 64 
1 65 
1 66 
1 67 
1 68 
1 69 
1 70 
1 71 
1 72 
1 73 
1 74 
1 75 
1 76 
1 77 
1 78 
1 79 
1 80 
1 81 
1 82 
1 83 
1 84 
1 85 
1 86 
1 87 
1 88 
1 89 
1 90 
1 91 
1 92 
1 93 
1 94 
1 95 
1 96 
1 97 
1 98 
1 99 

POINT_DATA 100
FIELD FieldData 7
id 1 100 int
1 2 3 4 5 6 7 8 9 
10 11 12 13 14 15 16 17 18 
19 20 21 22 23 24 25 26 27 
28 29 30 31 32 33 34 35 36 
37 38 39 40 41 42 43 44 45 
46 47 48 49 50 51 52 53 54 
55 56 57 58 59 60 61 62 63 
64 65 66 67 68 69 70 71 72 
73 74 75 76 77 78 79 80 81 
82 83 84 85 86 87 88 89 90 
91 92 93 94 95 96 97 98 99 
100 
mol 1 100 int
1 1 1 1 1 1 1 1 1 
1 1 1 1 1 1 1 1 1 
1 1 1 1 1 1 1 1 1 
1 1 1 1 1 1 1 1 1 
1 1 1 1 1 1 1 1 1 
1 1 1 1 1 2 2 2 2 
2 2 2 2 2 2 2 2 2 
2 2 2 2 2 2 2 2 2 
2 2 2 2 2 2 2 2 2 
2 2 2 2 2 2 2 2 2 
2 2 2 2 2 2 2 2 2 
2 
type 1 100 int
1 1 1 1 1 1 1 1 1 
1 1 1 1 1 1 1 1 1 
1 1 1 1 1 1 1 1 1 
1 1 1 1 1 1 1 1 1 
1 1 1 1 1 1 1 1 1 
1 1 1 1 1 1 1 1 1 
1 1 1 1 1 1 1 1 1 
1 1 1 1 1 1 1 1 1 
1 1 1 1 1 1 1 1 1 
1 1 1 1 1 1 1 1 1 
1 1 1 1 1 1 1 1 1 
1 
v 3 100 double
-0.0157431 -0.191918 -0.0782233 -0.012594 -0.18038 -0.0341681 -0.0121482 -0.190835 -0.0152659 
-0.0248984 -0.227599 -0.204067 -0.0253579 -0.245305 -0.193706 -0.0224847 -0.217216 -0.171913 
-0.0189679 -0.205099 -0.121908 -0.0266025 -0.203151 -0.260066 -0.0106339 -0.184653 0.00525537 
-0.00541111 -0.174925 0.0881785 -0.0302823 -0.224651 -0.303144 -0.0246032 -0.212939 -0.214165 
-0.00715014 -0.231907 0.116882 -0.0323193 -0.215683 -0.34886 -0.00800605 -0.232239 0.101969 
-0.0280719 -0.211798 -0.277202 -0.031789 -0.302054 -0.248903 -0.0111584 -0.2595 0.0743309 
-0.00223151 -0.0913427 0.0572871 -0.0149538 -0.174456 -0.0824497 -0.00348056 -0.0585753 0.000683118 
-0.0351778 -0.221949 -0.393257 -0.0197946 -0.12705 -0.218429 -0.026479 -0.284584 -0.172535 
-0.0169197 -0.173233 -0.11878 -0.0122281 -0.2698 0.0660514 -0.0242476 -0.314795 -0.101096 
-0.0300517 -0.335069 -0.183334 -0.034239 -0.223263 -0.375144 -0.0251805 -0.310431 -0.122302 
-0.0327684 -0.220952 -0.351346 -0.0281077 -0.190559 -0.300096 -0.00356214 -0.0632672 0.00414493 
-0.0309224 -0.192954 -0.347771 -0.00861782 -0.150558 0.00547395 -0.017468 -0.124408 -0.179717 
-0.029663 -0.213284 -0.304014 -0.0327006 -0.244421 -0.325545 -0.0236555 -0.19548 -0.215562 
-0.00176465 -0.144859 0.121687 -0.0161605 -0.131481 -0.148994 -0.0269474 -0.156795 -0.314789 
-0.0295968 -0.326749 -0.183942 -0.0192145 -0.110168 -0.225776 -0.0180173 -0.268249 -0.0387889 
-0.0200182 -0.184188 -0.162545 -0.0131226 -0.168281 -0.0562713 -0.00299733 -0.164542 0.120334 
-0.033097 -0.227046 -0.350819 -0.00903987 -0.263776 0.116583 0.0210122 -0.163788 -0.0742712 
0.0249053 -0.159378 -0.0167297 0.0302502 -0.174316 0.0190314 0.0196643 -0.201598 -0.168927 
0.0192635 -0.207786 -0.186664 0.022538 -0.197455 -0.124626 0.0269407 -0.192912 -0.0604651 
0.0104484 -0.176812 -0.232589 0.0330585 -0.174274 0.0540723 0.0303725 -0.14769 0.0753949 
0.014328 -0.205082 -0.242528 0.0210192 -0.199244 -0.147215 0.0416689 -0.199132 0.110047 
0.00866797 -0.195008 -0.292228 0.0423732 -0.203728 0.109348 0.015738 -0.197239 -0.208822 
0.0254731 -0.261951 -0.220937 0.0474565 -0.235072 0.10806 0.0154012 -0.0740949 0.0406316 
0.0268336 -0.169823 -0.0142416 0.00823412 -0.0501624 0.000716208 0.0077777 -0.204105 -0.322048 
0.00145221 -0.108429 -0.203714 0.0243264 -0.236354 -0.182488 0.0130001 -0.142076 -0.12928 
0.0426647 -0.230158 0.0585367 0.0347461 -0.264214 -0.110176 0.0314265 -0.281423 -0.18694 
0.0102607 -0.207539 -0.298214 0.0379434 -0.273631 -0.089773 0.0122994 -0.207004 -0.271737 
0.00434409 -0.162769 -0.279646 0.0123752 -0.062026 0.0278258 0.00422343 -0.17236 -0.300903 
0.0297089 -0.148646 0.0651665 0.00278674 -0.103299 -0.176537 0.0154229 -0.202101 -0.222759 
0.0131023 -0.216267 -0.280822 0.0202061 -0.188594 -0.135398 0.0297555 -0.124735 0.114999 
0.0131078 -0.126492 -0.0958391 0.00169871 -0.141736 -0.26925 0.0334752 -0.282276 -0.163196 
0.000129554 -0.0979123 -0.198516 0.0417293 -0.246132 0.0139915 0.0228853 -0.179722 -0.083778 
0.0163732 -0.136412 -0.0756268 0.0332462 -0.143548 0.119698 0.0142073 -0.214673 -0.263785 
0.0489752 -0.233283 0.130649 
f 3 100 double
0 0 0 0 0 0 0 0 0 
0 0 0 0 0 0 0 0 0 
0 0 0 0 0 0 0 0 0 
0 0 0 0 0 0 0 0 0 
0 0 0 0 0 0 0 0 0 
0 0 0 0 0 0 0 0 0 
0 0 0 0 0 0 -0.0662237 -0.058939 0.261356 
0 0 0 0 0 0 0 0 0 
0 0 0 0 0 0 0 0 0 
0 0 0 0 0 0 0 0 0 
0 0 0 0 0 0 0 0 0 
0 0 0 0 0 0 0 0 0 
0 0 0 0 0 0 0 0 0 
0 0 0 0 0 0 0 0 0 
0 0 0 0 0 0 0 0 0 
0 0 0 0 0 0 0 0 0 
0 0 0 0 0 0 0 0 0 
0 0 0 0 0 0 0 0 0 
0 0 0 0 0 0 0 0 0 
0 0 0 0 0 0 0 0 0 
0 0 0 0 0 0 0 0 0 
0 0 0 0 0 0 0 0 0 
0 0 0 0 0 0 0 0 0 
0 0 0 -0.0590851 -0.0770312 0.291591 0 0 0 
0 0 0 0 0 0 0 0 0 
0 0 0 0 0 0 0 0 0 
0 0 0 0 0 0 0 0 0 
0 0 0 0 0 0 0 0 0 
0 0 0 0 0 0 0 0 0 
0 0 0 0 0 0 0 0 0 
0 0 0 0 0 0 0 0 0 
0 0 0 0 0 0 0 0 0 
0 0 0 0 0 0 0 0 0 
0 0 0 
radius 1 100 double
0.010434 0.00981478 0.00892069 0.00845937 0.00731974 0.00728422 0.00643447 0.00619172 0.00585956 
0.00577566 0.00537241 0.00522549 0.00513666 0.00473175 0.00466912 0.00444866 0.00441894 0.00400812 
0.00385622 0.00379948 0.00370243 0.00366942 0.00364039 0.00363813 0.00363644 0.00358692 0.0035797 
0.00341284 0.00337012 0.00336273 0.00332772 0.00323261 0.00320584 0.00320311 0.00318808 0.00313116 
0.00306026 0.00305632 0.00304383 0.00300958 0.00300137 0.00298994 0.0029567 0.00295111 0.00290849 
0.00284552 0.00282964 0.0028207 0.00281971 0.00281899 0.010434 0.00981478 0.00892069 0.00845937 
0.00731974 0.00728422 0.00643447 0.00619172 0.00585956 0.00577566 0.00537241 0.00522549 0.00513666 
0.00473175 0.00466912 0.00444866 0.00441894 0.00400812 0.00385622 0.00379948 0.00370243 0.00366942 
0.00364039 0.00363813 0.00363644 0.00358692 0.0035797 0.00341284 0.00337012 0.00336273 0.00332772 
0.00323261 0.00320584 0.00320311 0.00318808 0.00313116 0.00306026 0.00305632 0.00304383 0.00300958 
0.00300137 0.00298994 0.0029567 0.00295111 0.00290849 0.00284552 0.00282964 0.0028207 0.00281971 
0.00281899 
omega 3 100 double
15.9503 -0.937423 -0.894627 15.9503 -0.937423 -0.894627 15.9503 -0.937423 -0.894627 
15.9503 -0.937423 -0.894627 15.9503 -0.937423 -0.894627 15.9503 -0.937423 -0.894627 
15.9503 -0.937423 -0.894627 15.9503 -0.937423 -0.894627 15.9503 -0.937423 -0.894627 
15.9503 -0.937423 -0.894627 15.9503 -0.937423 -0.894627 15.9503 -0.937423 -0.894627 
15.9503 -0.937423 -0.894627 15.9503 -0.937423 -0.894627 15.9503 -0.937423 -0.894627 
15.9503 -0.937423 -0.894627 15.9503 -0.937423 -0.894627 15.9503 -0.937423 -0.894627 
15.9503 -0.937423 -0.894627 15.9503 -0.937423 -0.894627 15.9503 -0.937423 -0.894627 
15.9503 -0.937423 -0.894627 15.9503 -0.937423 -0.894627 15.9503 -0.937423 -0.894627 
15.9503 -0.937423 -0.894627 15.9503 -0.937423 -0.894627 15.9503 -0.937423 -0.894627 
15.9503 -0.937423 -0.894627 15.9503 -0.937423 -0.894627 15.9503 -0.937423 -0.894627 
15.9503 -0.937423 -0.894627 15.9503 -0.937423 -0.894627 15.9503 -0.937423 -0.894627 
15.9503 -0.937423 -0.894627 15.9503 -0.937423 -0.894627 15.9503 -0.937423 -0.894627 
15.9503 -0.937423 -0.894627 15.9503 -0.937423 -0.894627 15.9503 -0.937423 -0.894627 
15.9503 -0.937423 -0.894627 15.9503 -0.937423 -0.894627 15.9503 -0.937423 -0.894627 
15.9503 -0.937423 -0.894627 15.9503 -0.937423 -0.894627 15.9503 -0.937423 -0.894627 
15.9503 -0.937423 -0.894627 15.9503 -0.937423 -0.894627 15.9503 -0.937423 -0.894627 
15.9503 -0.937423 -0.894627 15.9503 -0.937423 -0.894627 13.6725 2.2625 -1.09843 
13.6725 2.2625 -1.09843 13.6725 2.2625 -1.09843 13.6725 2.2625 -1.09843 
13.6725 2.2625 -1.09843 13.6725 2.2625 -1.09843 13.6725 2.2625 -1.09843 
13.6725 2.2625 -1.09843 13.6725 2.2625 -1.09843 13.6725 2.2625 -1.09843 
13.6725 2.2625 -1.09843 13.6725 2.2625 -1.09843 13.6725 2.2625 -1.09843 
13.6725 2.2625 -1.09843 13.6725 2.2625 -1.09843 13.6725 2.2625 -1.09843 
13.6725 2.2625 -1.09843 13.6725 2.2625 -1.09843 13.6725 2.2625 -1.09843 
13.6725 2.2625 -1.09843 13.6725 2.2625 -1.09843 13.6725 2.2625 -1.09843 
13.6725 2.2625 -1.09843 13.6725 2.2625 -1.09843 13.6725 2.2625 -1.09843 
13.6725 2.2625 -1.09843 13.6725 2.2625 -1.09843 13.6725 2.2625 -1.09843 
13.6725 2.2625 -1.09843 13.6725 2.2625 -1.09843 13.6725 2.2625 -1.09843 
13.6725 2.2625 -1.09843 13.6725 2.2625 -1.09843 13.6725 2.2625 -1.09843 
13.6725 2.2625 -1.09843 13.6725 2.2625 -1.09843 13.6725 2.2625 -1.09843 
13.6725 2.2625 -1.09843 13.6725 2.2625 -1.09843 13.6725 2.2625 -1.09843 
13.6725 2.2625 -1.09843 13.6725 2.2625 -1.09843 13.6725 2.2625 -1.09843 
13.6725 2.2625 -1.09843 13.6725 2.2625 -1.09843 13.6725 2.2625 -1.09843 
13.6725 2.2625 -1.09843 13.6725 2.2625 -1.09843 13.6725 2.2625 -1.09843 
13.6725 2.2625 -1.09843 
