# vtk DataFile Version 4.0
Generated by LIGGGHTS
ASCII
DATASET POLYDATA
POINTS 100 float
-0.117957 -0.133971 0.0167116 -0.127245 -0.134875 0.0119945 -0.136889 -0.135246 0.00927567 
-0.125886 -0.13651 0.0233214 -0.11288 -0.133227 0.0258629 -0.133779 -0.137452 0.0195974 
-0.143765 -0.138337 0.0143837 -0.118278 -0.138245 0.0273409 -0.145274 -0.136335 0.00623737 
-0.119946 -0.130794 0.00633072 -0.132201 -0.140298 0.0276136 -0.140779 -0.139901 0.0204726 
-0.125394 -0.127595 0.00524344 -0.127247 -0.141278 0.0309594 -0.13148 -0.128907 0.00487719 
-0.137508 -0.141153 0.0246935 -0.120444 -0.132611 0.0291267 -0.143092 -0.129863 0.00490152 
-0.115058 -0.135662 0.00666118 -0.149208 -0.13987 0.0101511 -0.119335 -0.13971 0.00808003 
-0.131732 -0.142794 0.0327686 -0.113653 -0.140783 0.0236988 -0.106304 -0.129402 0.027116 
-0.108038 -0.134609 0.0204827 -0.12233 -0.126316 0.00985463 -0.111602 -0.12657 0.0228481 
-0.109384 -0.12727 0.0285706 -0.135713 -0.142843 0.0309716 -0.130763 -0.130321 0.0200705 
-0.138504 -0.142766 0.0289854 -0.112135 -0.139098 0.0304974 -0.131289 -0.141179 0.00560961 
-0.122213 -0.14178 0.0312546 -0.150237 -0.139043 0.00423936 -0.110358 -0.139393 0.0220788 
-0.142198 -0.142503 0.0253203 -0.123187 -0.138385 0.0312785 -0.147002 -0.141891 0.018794 
-0.124692 -0.132347 0.00259463 -0.137058 -0.142253 0.0151516 -0.123184 -0.143117 0.0281331 
-0.121269 -0.129583 0.0259701 -0.119178 -0.142792 0.0225166 -0.145495 -0.132758 0.0111208 
-0.149506 -0.141502 0.0149397 -0.107535 -0.133142 0.0168765 -0.127839 -0.131737 0.00260669 
-0.142279 -0.14298 0.0283708 -0.136091 -0.127415 0.00402631 -0.049111 -0.106403 0.0171871 
-0.0582472 -0.107218 0.0121672 -0.067803 -0.10758 0.00915238 -0.0572026 -0.10926 0.0234615 
-0.0443121 -0.10595 0.0265058 -0.0649727 -0.110138 0.0194735 -0.0747921 -0.110923 0.0139375 
-0.0496974 -0.111071 0.0276378 -0.0760834 -0.108634 0.00582932 -0.0508296 -0.102862 0.00687588 
-0.0635996 -0.113264 0.0274226 -0.0719698 -0.112683 0.0200504 -0.0562765 -0.099676 0.0057464 
-0.0587359 -0.11432 0.0308752 -0.0623348 -0.101031 0.0051522 -0.0688099 -0.11406 0.0243173 
-0.0519741 -0.105528 0.0295648 -0.0739319 -0.102097 0.00479774 -0.0459022 -0.107692 0.00717144 
-0.0800934 -0.112349 0.00949212 -0.0501759 -0.11183 0.00831317 -0.0632551 -0.115945 0.0324939 
-0.0449416 -0.113428 0.0240431 -0.0378162 -0.102113 0.0280928 -0.0393006 -0.107086 0.021224 
-0.0533622 -0.0985396 0.0104902 -0.0430164 -0.0991743 0.0237773 -0.0409591 -0.100066 0.0295332 
-0.0671811 -0.115965 0.0305793 -0.0620472 -0.103001 0.0202978 -0.0699135 -0.11584 0.0285156 
-0.0436402 -0.111982 0.0309411 -0.0620367 -0.113319 0.00543774 -0.0537073 -0.114785 0.0313006 
-0.0809573 -0.111313 0.00358702 -0.0416158 -0.111948 0.0225735 -0.073502 -0.115477 0.0247549 
-0.0547179 -0.111403 0.0314205 -0.078119 -0.114669 0.0181163 -0.0554478 -0.104319 0.0029464 
-0.0680699 -0.114801 0.0147588 -0.0545723 -0.116015 0.0281046 -0.0527381 -0.102393 0.0264988 
-0.0504077 -0.115444 0.0226249 -0.0764847 -0.105243 0.0108324 -0.0805139 -0.114161 0.0142065 
-0.0387073 -0.105482 0.0176908 -0.0585997 -0.10374 0.00288779 -0.0736667 -0.116068 0.0277821 
-0.0669348 -0.0995519 0.00422075 
VERTICES 100 200
1 0 
1 1 
1 2 
1 3 
1 4 
1 5 
1 6 
1 7 
1 8 
1 9 
1 10 
1 11 
1 12 
1 13 
1 14 
1 15 
1 16 
1 17 
1 18 
1 19 
1 20 
1 21 
1 22 
1 23 
1 24 
1 25 
1 26 
1 27 
1 28 
1 29 
1 30 
1 31 
1 32 
1 33 
1 34 
1 35 
1 36 
1 37 
1 38 
1 39 
1 40 
1 41 
1 42 
1 43 
1 44 
1 45 
1 46 
1 47 
1 48 
1 49 
1 50 
1 51 
1 52 
1 53 
1 54 
1 55 
1 56 
1 57 
1 58 
1 59 
1 60 
1 61 
1 62 
1 63 
1 64 
1 65 
1 66 
1 67 
1 68 
1 69 
1 70 
1 71 
1 72 
1 73 
1 74 
1 75 
1 76 
1 77 
1 78 
1 79 
1 80 
1 81 
1 82 
1 83 
1 84 
1 85 
1 86 
1 87 
1 88 
1 89 
1 90 
1 91 
1 92 
1 93 
1 94 
1 95 
1 96 
1 97 
1 98 
1 99 

POINT_DATA 100
FIELD FieldData 7
id 1 100 int
1 2 3 4 5 6 7 8 9 
10 11 12 13 14 15 16 17 18 
19 20 21 22 23 24 25 26 27 
28 29 30 31 32 33 34 35 36 
37 38 39 40 41 42 43 44 45 
46 47 48 49 50 51 52 53 54 
55 56 57 58 59 60 61 62 63 
64 65 66 67 68 69 70 71 72 
73 74 75 76 77 78 79 80 81 
82 83 84 85 86 87 88 89 90 
91 92 93 94 95 96 97 98 99 
100 
mol 1 100 int
1 1 1 1 1 1 1 1 1 
1 1 1 1 1 1 1 1 1 
1 1 1 1 1 1 1 1 1 
1 1 1 1 1 1 1 1 1 
1 1 1 1 1 1 1 1 1 
1 1 1 1 1 2 2 2 2 
2 2 2 2 2 2 2 2 2 
2 2 2 2 2 2 2 2 2 
2 2 2 2 2 2 2 2 2 
2 2 2 2 2 2 2 2 2 
2 2 2 2 2 2 2 2 2 
2 
type 1 100 int
1 1 1 1 1 1 1 1 1 
1 1 1 1 1 1 1 1 1 
1 1 1 1 1 1 1 1 1 
1 1 1 1 1 1 1 1 1 
1 1 1 1 1 1 1 1 1 
1 1 1 1 1 1 1 1 1 
1 1 1 1 1 1 1 1 1 
1 1 1 1 1 1 1 1 1 
1 1 1 1 1 1 1 1 1 
1 1 1 1 1 1 1 1 1 
1 1 1 1 1 1 1 1 1 
1 
v 3 100 double
-0.13612 -0.0641423 -0.110643 -0.0936983 -0.0452762 -0.197786 -0.0695044 -0.0417636 -0.284084 
-0.189033 -0.126512 -0.198075 -0.216687 -0.122948 -0.0611656 -0.155151 -0.112579 -0.273413 
-0.10846 -0.0912461 -0.366459 -0.220883 -0.143113 -0.144957 -0.0413118 -0.0337335 -0.364763 
-0.0516267 0.00903186 -0.104443 -0.219723 -0.169013 -0.280736 -0.158533 -0.131047 -0.352131 
-0.0476953 0.00770708 -0.128039 -0.247031 -0.185198 -0.245042 -0.0422709 -3.2241e-05 -0.190448 
-0.192956 -0.156574 -0.333023 -0.246022 -0.160005 -0.122159 -0.0408417 -0.0201347 -0.298111 
-0.0461383 0.0149804 -0.098004 -0.0691567 -0.0693587 -0.424935 -0.0514869 -0.00282562 -0.164925 
-0.260106 -0.20624 -0.295083 -0.184972 -0.108308 -0.123608 -0.234106 -0.120911 0.0240253 
-0.1677 -0.0749469 -0.0294105 -0.0898434 -0.0210561 -0.0920515 -0.201987 -0.0985129 -0.000977494 
-0.250367 -0.136926 0.0130738 -0.244451 -0.199812 -0.329939 -0.171485 -0.110895 -0.19467 
-0.227375 -0.189947 -0.353551 -0.246769 -0.155861 -0.0980192 -0.0275622 -0.00510949 -0.279337 
-0.248728 -0.178739 -0.205129 -0.0193548 -0.0275081 -0.427743 -0.17332 -0.0907031 -0.0848102 
-0.196069 -0.169246 -0.383627 -0.254759 -0.180587 -0.188527 -0.140574 -0.129338 -0.420728 
-0.0165926 0.0284531 -0.157017 -0.108393 -0.0854049 -0.337246 -0.219387 -0.157374 -0.223407 
-0.223867 -0.138131 -0.106965 -0.171281 -0.109065 -0.186302 -0.0897601 -0.0701411 -0.340289 
-0.107846 -0.105199 -0.43956 -0.138971 -0.0474775 -0.0142243 -0.0177434 0.0229653 -0.179781 
-0.221682 -0.19189 -0.387845 -0.0374588 -0.00166642 -0.219393 -0.15415 -0.116152 0.117385 
-0.109803 -0.0943809 0.033136 -0.0833822 -0.0880161 -0.0513721 -0.203184 -0.17554 0.0271043 
-0.234719 -0.176622 0.161812 -0.167574 -0.159088 -0.0458991 -0.118859 -0.134657 -0.135771 
-0.235971 -0.19381 0.0781044 -0.053178 -0.0772856 -0.130039 -0.0716626 -0.0433191 0.128646 
-0.230511 -0.215158 -0.0570787 -0.168319 -0.174861 -0.124512 -0.0672413 -0.0440131 0.105367 
-0.258344 -0.232473 -0.0231646 -0.0599167 -0.0496435 0.0435274 -0.202599 -0.200962 -0.107549 
-0.26162 -0.211706 0.0992802 -0.0551227 -0.0661674 -0.0636349 -0.0662287 -0.037362 0.135408 
-0.0784277 -0.110778 -0.191648 -0.0691849 -0.0527883 0.0684344 -0.269531 -0.251804 -0.0737981 
-0.201293 -0.159588 0.101547 -0.254642 -0.177556 0.245614 -0.187602 -0.129598 0.196405 
-0.109751 -0.0740186 0.13867 -0.222521 -0.154462 0.222634 -0.270357 -0.193309 0.233716 
-0.253097 -0.244228 -0.107577 -0.186405 -0.160313 0.0315333 -0.235625 -0.23359 -0.130069 
-0.262766 -0.208062 0.123305 -0.0420981 -0.0512473 -0.044093 -0.261221 -0.227302 0.0164954 
-0.0295534 -0.0688685 -0.191444 -0.191145 -0.143319 0.140894 -0.20401 -0.211911 -0.158143 
-0.267826 -0.229849 0.0326583 -0.148477 -0.170808 -0.191758 -0.0355992 -0.022099 0.0783918 
-0.119498 -0.129598 -0.106652 -0.231816 -0.205275 6.11396e-05 -0.240526 -0.190466 0.115742 
-0.185818 -0.158195 0.0399246 -0.101626 -0.114662 -0.108592 -0.115823 -0.146067 -0.208545 
-0.159983 -0.102691 0.213261 -0.0360522 -0.0268669 0.0556423 -0.228967 -0.234397 -0.163888 
-0.0543771 -0.0503942 0.0149779 
f 3 100 double
0 0 0 0 0 0 0 0 0 
0 0 0 0 0 0 0 0 0 
0 0 0 0 0 0 0 0 0 
0 0 0 0 0 0 0 0 0 
0 0 0 0 0 0 0 0 0 
0 0 0 0 0 0 0 0 0 
0 0 0 0 0 0 0 0 0 
0 0 0 0 0 0 0 0 0 
0 0 0 0 0 0 0 0 0 
0 0 0 0 0 0 0 0 0 
0 0 0 0 0 0 0 0 0 
0 0 0 0 0 0 0 0 0 
0 0 0 0 0 0 0 0 0 
-0.0685097 -0.814391 6.49987 0 0 0 0 0 0 
0 0 0 0 0 0 0 0 0 
0 0 0 0 0 0 -0.0688266 -0.653609 3.89225 
0 0 0 0 0 0 0 0 0 
0 0 0 0 0 0 0 0 0 
0 0 0 0 0 0 0 0 0 
0 0 0 0.0230498 0.329789 1.43354 0 0 0 
0 0 0 0 0 0 0 0 0 
0 0 0 0 0 0 0 0 0 
0 0 0 0 0 0 0 0 0 
0 0 0 0 0 0 0 0 0 
0 0 0 0 0 0 0 0 0 
0 0 0 0 0 0 0 0 0 
0 0 0 0 0 0 0 0 0 
0 0 0 0 0 0 0 0 0 
0 0 0 0 0 0 0 0 0 
0 0 0 0 0 0 0.0908874 0.0326264 -0.581881 
0 0 0 0 0 0 0 0 0 
0 0 0 0 0 0 0 0 0 
0 0 0 0 0 0 0 0 0 
0 0 0 
radius 1 100 double
0.010434 0.00981478 0.00892069 0.00845937 0.00731974 0.00728422 0.00643447 0.00619172 0.00585956 
0.00577566 0.00537241 0.00522549 0.00513666 0.00473175 0.00466912 0.00444866 0.00441894 0.00400812 
0.00385622 0.00379948 0.00370243 0.00366942 0.00364039 0.00363813 0.00363644 0.00358692 0.0035797 
0.00341284 0.00337012 0.00336273 0.00332772 0.00323261 0.00320584 0.00320311 0.00318808 0.00313116 
0.00306026 0.00305632 0.00304383 0.00300958 0.00300137 0.00298994 0.0029567 0.00295111 0.00290849 
0.00284552 0.00282964 0.0028207 0.00281971 0.00281899 0.010434 0.00981478 0.00892069 0.00845937 
0.00731974 0.00728422 0.00643447 0.00619172 0.00585956 0.00577566 0.00537241 0.00522549 0.00513666 
0.00473175 0.00466912 0.00444866 0.00441894 0.00400812 0.00385622 0.00379948 0.00370243 0.00366942 
0.00364039 0.00363813 0.00363644 0.00358692 0.0035797 0.00341284 0.00337012 0.00336273 0.00332772 
0.00323261 0.00320584 0.00320311 0.00318808 0.00313116 0.00306026 0.00305632 0.00304383 0.00300958 
0.00300137 0.00298994 0.0029567 0.00295111 0.00290849 0.00284552 0.00282964 0.0028207 0.00281971 
0.00281899 
omega 3 100 double
7.37774 -8.66434 1.71571 7.37774 -8.66434 1.71571 7.37774 -8.66434 1.71571 
7.37774 -8.66434 1.71571 7.37774 -8.66434 1.71571 7.37774 -8.66434 1.71571 
7.37774 -8.66434 1.71571 7.37774 -8.66434 1.71571 7.37774 -8.66434 1.71571 
7.37774 -8.66434 1.71571 7.37774 -8.66434 1.71571 7.37774 -8.66434 1.71571 
7.37774 -8.66434 1.71571 7.37774 -8.66434 1.71571 7.37774 -8.66434 1.71571 
7.37774 -8.66434 1.71571 7.37774 -8.66434 1.71571 7.37774 -8.66434 1.71571 
7.37774 -8.66434 1.71571 7.37774 -8.66434 1.71571 7.37774 -8.66434 1.71571 
7.37774 -8.66434 1.71571 7.37774 -8.66434 1.71571 7.37774 -8.66434 1.71571 
7.37774 -8.66434 1.71571 7.37774 -8.66434 1.71571 7.37774 -8.66434 1.71571 
7.37774 -8.66434 1.71571 7.37774 -8.66434 1.71571 7.37774 -8.66434 1.71571 
7.37774 -8.66434 1.71571 7.37774 -8.66434 1.71571 7.37774 -8.66434 1.71571 
7.37774 -8.66434 1.71571 7.37774 -8.66434 1.71571 7.37774 -8.66434 1.71571 
7.37774 -8.66434 1.71571 7.37774 -8.66434 1.71571 7.37774 -8.66434 1.71571 
7.37774 -8.66434 1.71571 7.37774 -8.66434 1.71571 7.37774 -8.66434 1.71571 
7.37774 -8.66434 1.71571 7.37774 -8.66434 1.71571 7.37774 -8.66434 1.71571 
7.37774 -8.66434 1.71571 7.37774 -8.66434 1.71571 7.37774 -8.66434 1.71571 
7.37774 -8.66434 1.71571 7.37774 -8.66434 1.71571 7.33835 -8.56601 1.64913 
7.33835 -8.56601 1.64913 7.33835 -8.56601 1.64913 7.33835 -8.56601 1.64913 
7.33835 -8.56601 1.64913 7.33835 -8.56601 1.64913 7.33835 -8.56601 1.64913 
7.33835 -8.56601 1.64913 7.33835 -8.56601 1.64913 7.33835 -8.56601 1.64913 
7.33835 -8.56601 1.64913 7.33835 -8.56601 1.64913 7.33835 -8.56601 1.64913 
7.33835 -8.56601 1.64913 7.33835 -8.56601 1.64913 7.33835 -8.56601 1.64913 
7.33835 -8.56601 1.64913 7.33835 -8.56601 1.64913 7.33835 -8.56601 1.64913 
7.33835 -8.56601 1.64913 7.33835 -8.56601 1.64913 7.33835 -8.56601 1.64913 
7.33835 -8.56601 1.64913 7.33835 -8.56601 1.64913 7.33835 -8.56601 1.64913 
7.33835 -8.56601 1.64913 7.33835 -8.56601 1.64913 7.33835 -8.56601 1.64913 
7.33835 -8.56601 1.64913 7.33835 -8.56601 1.64913 7.33835 -8.56601 1.64913 
7.33835 -8.56601 1.64913 7.33835 -8.56601 1.64913 7.33835 -8.56601 1.64913 
7.33835 -8.56601 1.64913 7.33835 -8.56601 1.64913 7.33835 -8.56601 1.64913 
7.33835 -8.56601 1.64913 7.33835 -8.56601 1.64913 7.33835 -8.56601 1.64913 
7.33835 -8.56601 1.64913 7.33835 -8.56601 1.64913 7.33835 -8.56601 1.64913 
7.33835 -8.56601 1.64913 7.33835 -8.56601 1.64913 7.33835 -8.56601 1.64913 
7.33835 -8.56601 1.64913 7.33835 -8.56601 1.64913 7.33835 -8.56601 1.64913 
7.33835 -8.56601 1.64913 
