# vtk DataFile Version 4.0
Generated by LIGGGHTS
ASCII
DATASET POLYDATA
POINTS 100 float
-0.118892 -0.134968 0.0176891 -0.127939 -0.135581 0.0124813 -0.137438 -0.135776 0.00927954 
-0.127132 -0.137868 0.0237478 -0.114268 -0.134762 0.0271042 -0.134833 -0.138579 0.0195961 
-0.144552 -0.139142 0.0138603 -0.119727 -0.139847 0.0280261 -0.145664 -0.136671 0.00577912 
-0.120376 -0.131195 0.00742409 -0.133644 -0.141885 0.0275021 -0.141866 -0.14106 0.019987 
-0.125767 -0.127927 0.00625925 -0.128859 -0.143065 0.031023 -0.131827 -0.129204 0.00552225 
-0.138802 -0.142559 0.0242828 -0.121982 -0.134321 0.0300262 -0.143425 -0.130137 0.00492633 
-0.115506 -0.136083 0.00771088 -0.149782 -0.140418 0.00928642 -0.119844 -0.140198 0.00868422 
-0.133425 -0.144674 0.0325214 -0.114928 -0.14218 0.0244731 -0.107764 -0.13103 0.0288942 
-0.109168 -0.135842 0.0218953 -0.122932 -0.126922 0.0110802 -0.11285 -0.127946 0.024544 
-0.110912 -0.128979 0.0303177 -0.137314 -0.144612 0.030533 -0.131849 -0.131493 0.0206257 
-0.140005 -0.144415 0.0284211 -0.113744 -0.140892 0.0314234 -0.131662 -0.141498 0.00555444 
-0.123844 -0.143594 0.0315334 -0.150522 -0.139249 0.00338919 -0.111559 -0.140706 0.0230982 
-0.143516 -0.143935 0.0246017 -0.124822 -0.140204 0.0317055 -0.147997 -0.142938 0.0178955 
-0.124933 -0.13252 0.00337821 -0.137888 -0.143109 0.0147266 -0.124661 -0.144747 0.0282965 
-0.122654 -0.131115 0.0270129 -0.120387 -0.144107 0.0229096 -0.146126 -0.133381 0.010844 
-0.150311 -0.142322 0.0139528 -0.108491 -0.134171 0.0184085 -0.128077 -0.131906 0.00327226 
-0.143745 -0.144587 0.0276121 -0.136392 -0.127656 0.00453541 -0.0499991 -0.10736 0.0181125 
-0.0589781 -0.10788 0.0127792 -0.0684383 -0.108079 0.00946297 -0.0582567 -0.110651 0.0239426 
-0.0454806 -0.107499 0.02758 -0.0659002 -0.111295 0.0196754 -0.075547 -0.111753 0.013809 
-0.0508681 -0.112703 0.0282144 -0.0766107 -0.108944 0.00583224 -0.0514318 -0.10316 0.00800717 
-0.0647454 -0.114929 0.0274414 -0.0728969 -0.113898 0.0198758 -0.0568607 -0.0999269 0.00692543 
-0.0599801 -0.11619 0.0309615 -0.062891 -0.101263 0.00606336 -0.0698569 -0.115539 0.0241364 
-0.053232 -0.107306 0.0304298 -0.0744664 -0.102346 0.00529371 -0.0464882 -0.107981 0.00813442 
-0.0807063 -0.112905 0.00912365 -0.0507705 -0.1122 0.00887578 -0.064536 -0.117934 0.0323351 
-0.0459949 -0.114802 0.0246176 -0.0390562 -0.10375 0.0296073 -0.0403088 -0.108269 0.0223876 
-0.0540944 -0.099092 0.0118182 -0.0441429 -0.100555 0.0253389 -0.0422518 -0.101813 0.0310834 
-0.0684034 -0.117843 0.0303068 -0.0630406 -0.104217 0.0210501 -0.0710743 -0.117594 0.0281748 
-0.0449064 -0.113805 0.0316309 -0.0625324 -0.113542 0.00555618 -0.0549638 -0.116664 0.0315058 
-0.081401 -0.111489 0.00327546 -0.0426355 -0.113218 0.0233476 -0.0745519 -0.116999 0.0243403 
-0.0559965 -0.1133 0.0318157 -0.0789749 -0.115776 0.0176334 -0.0559234 -0.104374 0.00385478 
-0.0688304 -0.115652 0.0145763 -0.0557269 -0.117685 0.0282121 -0.0539226 -0.10398 0.0275531 
-0.0514052 -0.116742 0.0229081 -0.0771789 -0.105889 0.0110314 -0.081256 -0.115022 0.0136952 
-0.0396202 -0.106436 0.0189858 -0.0590754 -0.103804 0.00373985 -0.0748028 -0.117787 0.0273162 
-0.0674697 -0.0997427 0.00509322 
VERTICES 100 200
1 0 
1 1 
1 2 
1 3 
1 4 
1 5 
1 6 
1 7 
1 8 
1 9 
1 10 
1 11 
1 12 
1 13 
1 14 
1 15 
1 16 
1 17 
1 18 
1 19 
1 20 
1 21 
1 22 
1 23 
1 24 
1 25 
1 26 
1 27 
1 28 
1 29 
1 30 
1 31 
1 32 
1 33 
1 34 
1 35 
1 36 
1 37 
1 38 
1 39 
1 40 
1 41 
1 42 
1 43 
1 44 
1 45 
1 46 
1 47 
1 48 
1 49 
1 50 
1 51 
1 52 
1 53 
1 54 
1 55 
1 56 
1 57 
1 58 
1 59 
1 60 
1 61 
1 62 
1 63 
1 64 
1 65 
1 66 
1 67 
1 68 
1 69 
1 70 
1 71 
1 72 
1 73 
1 74 
1 75 
1 76 
1 77 
1 78 
1 79 
1 80 
1 81 
1 82 
1 83 
1 84 
1 85 
1 86 
1 87 
1 88 
1 89 
1 90 
1 91 
1 92 
1 93 
1 94 
1 95 
1 96 
1 97 
1 98 
1 99 

POINT_DATA 100
FIELD FieldData 7
id 1 100 int
1 2 3 4 5 6 7 8 9 
10 11 12 13 14 15 16 17 18 
19 20 21 22 23 24 25 26 27 
28 29 30 31 32 33 34 35 36 
37 38 39 40 41 42 43 44 45 
46 47 48 49 50 51 52 53 54 
55 56 57 58 59 60 61 62 63 
64 65 66 67 68 69 70 71 72 
73 74 75 76 77 78 79 80 81 
82 83 84 85 86 87 88 89 90 
91 92 93 94 95 96 97 98 99 
100 
mol 1 100 int
1 1 1 1 1 1 1 1 1 
1 1 1 1 1 1 1 1 1 
1 1 1 1 1 1 1 1 1 
1 1 1 1 1 1 1 1 1 
1 1 1 1 1 1 1 1 1 
1 1 1 1 1 2 2 2 2 
2 2 2 2 2 2 2 2 2 
2 2 2 2 2 2 2 2 2 
2 2 2 2 2 2 2 2 2 
2 2 2 2 2 2 2 2 2 
2 2 2 2 2 2 2 2 2 
2 
type 1 100 int
1 1 1 1 1 1 1 1 1 
1 1 1 1 1 1 1 1 1 
1 1 1 1 1 1 1 1 1 
1 1 1 1 1 1 1 1 1 
1 1 1 1 1 1 1 1 1 
1 1 1 1 1 1 1 1 1 
1 1 1 1 1 1 1 1 1 
1 1 1 1 1 1 1 1 1 
1 1 1 1 1 1 1 1 1 
1 1 1 1 1 1 1 1 1 
1 1 1 1 1 1 1 1 1 
1 
v 3 100 double
-0.0798739 -0.136142 0.12396 -0.0647556 -0.0916213 0.0924644 -0.0552718 -0.06014 0.0624069 
-0.101232 -0.168354 0.079497 -0.108146 -0.204388 0.139338 -0.0894121 -0.132351 0.0514081 
-0.0726447 -0.0835711 0.018209 -0.116242 -0.2049 0.0885717 -0.0456149 -0.0279764 0.0314884 
-0.044877 -0.0654489 0.144887 -0.116784 -0.186846 0.0327338 -0.0931837 -0.127644 0.0134192 
-0.0379425 -0.0519765 0.150585 -0.128668 -0.215556 0.0392632 -0.0370451 -0.0406879 0.123651 
-0.107747 -0.159777 0.0125854 -0.116526 -0.216019 0.118972 -0.0362154 -0.0245688 0.0822744 
-0.0508466 -0.0724636 0.126695 -0.0601371 -0.0473038 -0.00620805 -0.0580856 -0.074493 0.0858569 
-0.134882 -0.220884 0.0146093 -0.107926 -0.185976 0.0873788 -0.109666 -0.223233 0.184161 
-0.0935124 -0.174623 0.147496 -0.0514795 -0.0874083 0.165936 -0.0932854 -0.188623 0.189547 
-0.111833 -0.229536 0.188448 -0.1288 -0.203432 0.00326218 -0.0851319 -0.1424 0.108166 
-0.122204 -0.186398 -0.00355159 -0.127612 -0.234029 0.0996343 -0.0499731 -0.0410764 0.0413384 
-0.130764 -0.224228 0.0508754 -0.0410745 -0.00680816 -0.000576293 -0.102228 -0.18023 0.1075 
-0.110147 -0.157006 -0.0109426 -0.127747 -0.224367 0.0707507 -0.0888159 -0.107157 -0.017784 
-0.0340184 -0.0334401 0.122173 -0.0794065 -0.0963618 0.011649 -0.122174 -0.201572 0.0406353 
-0.104063 -0.19502 0.138535 -0.105207 -0.169748 0.0578791 -0.0575061 -0.0616117 0.0522531 
-0.0762442 -0.0781834 -0.0206417 -0.0812182 -0.151844 0.160803 -0.0330567 -0.0294451 0.116798 
-0.119936 -0.177045 -0.0160252 -0.0324437 -0.0292756 0.120263 -0.0980893 -0.12066 0.090784 
-0.0831108 -0.0823757 0.0618345 -0.0738723 -0.0609123 0.0341914 -0.112133 -0.173423 0.0411125 
-0.124037 -0.195517 0.102064 -0.100011 -0.143069 0.0148136 -0.0836039 -0.10082 -0.0154619 
-0.12264 -0.203968 0.0446095 -0.0633666 -0.0360937 0.00462768 -0.0728398 -0.0387134 0.121265 
-0.11917 -0.206012 -0.0117882 -0.09899 -0.148936 -0.0257556 -0.0718174 -0.0331268 0.13283 
-0.128088 -0.231983 -0.00902106 -0.0686405 -0.0297035 0.105303 -0.109714 -0.182015 -0.0308447 
-0.13199 -0.22355 0.0823384 -0.0658703 -0.0303858 0.0645995 -0.0702787 -0.0367712 0.0953509 
-0.0700252 -0.0655393 -0.0390911 -0.0697694 -0.0454323 0.0489993 -0.130812 -0.24599 -0.035836 
-0.111482 -0.17155 0.0408037 -0.131875 -0.20825 0.150453 -0.109295 -0.149843 0.109975 
-0.0857747 -0.0715519 0.147278 -0.122068 -0.176343 0.16265 -0.137104 -0.222277 0.157543 
-0.125289 -0.231703 -0.0457293 -0.108065 -0.152608 0.0806834 -0.119577 -0.215845 -0.0510318 
-0.131368 -0.228366 0.0519674 -0.0598316 -0.0253307 0.00566262 -0.129298 -0.233414 0.000890725 
-0.0548002 -0.0180337 -0.0293931 -0.108947 -0.159115 0.063028 -0.109393 -0.186521 -0.0557204 
-0.132181 -0.236577 0.0256136 -0.0916905 -0.13423 -0.0578551 -0.0606889 -0.00739732 0.0989614 
-0.0833593 -0.103052 -0.0289475 -0.119625 -0.206883 -0.00957978 -0.126088 -0.200393 0.107694 
-0.10561 -0.160808 0.0100299 -0.0795074 -0.0790434 0.0281043 -0.0813169 -0.103334 -0.0579528 
-0.101049 -0.121549 0.126897 -0.0607171 -0.0083588 0.0949668 -0.1171 -0.21106 -0.0628649 
-0.0668907 -0.024518 0.105168 
f 3 100 double
0 0 0 0 0 0 0 0 0 
0 0 0 0 0 0 0 0 0 
0 0 0 0 0 0 0.023967 -0.00971157 0.0517197 
0 0 0 0 0 0 0 0 0 
0 0 0 0 0 0 0 0 0 
0 0 0 0 0 0 0 0 0 
0 0 0 0 0 0 0 0 0 
0 0 0 0 0 0 0 0 0 
0 0 0 0 0 0 0 0 0 
0 0 0 0 0 0 0 0 0 
0 0 0 0 0 0 0 0 0 
0 0 0 0 0 0 0 0 0 
0 0 0 0 0 0 0 0 0 
0 0 0 0 0 0 0 0 0 
0 0 0 0 0 0 0 0 0 
0 0 0 0 0 0 0 0 0 
0 0 0 0 0 0 0 0 0 
0 0 0 0 0 0 0 0 0 
0 0 0 0 0 0 0 0 0 
0 0 0 0.0218356 -0.00547432 0.0450228 0 0 0 
0 0 0 0 0 0 0 0 0 
0 0 0 0 0 0 0 0 0 
0 0 0 0 0 0 0 0 0 
0 0 0 0 0 0 0 0 0 
0 0 0 0 0 0 0 0 0 
0 0 0 0 0 0 0 0 0 
0 0 0 0 0 0 0 0 0 
0 0 0 0 0 0 0 0 0 
0 0 0 0 0 0 0 0 0 
0 0 0 0 0 0 0 0 0 
0 0 0 0 0 0 0 0 0 
0 0 0 0 0 0 0 0 0 
0 0 0 0 0 0 0 0 0 
0 0 0 
radius 1 100 double
0.010434 0.00981478 0.00892069 0.00845937 0.00731974 0.00728422 0.00643447 0.00619172 0.00585956 
0.00577566 0.00537241 0.00522549 0.00513666 0.00473175 0.00466912 0.00444866 0.00441894 0.00400812 
0.00385622 0.00379948 0.00370243 0.00366942 0.00364039 0.00363813 0.00363644 0.00358692 0.0035797 
0.00341284 0.00337012 0.00336273 0.00332772 0.00323261 0.00320584 0.00320311 0.00318808 0.00313116 
0.00306026 0.00305632 0.00304383 0.00300958 0.00300137 0.00298994 0.0029567 0.00295111 0.00290849 
0.00284552 0.00282964 0.0028207 0.00281971 0.00281899 0.010434 0.00981478 0.00892069 0.00845937 
0.00731974 0.00728422 0.00643447 0.00619172 0.00585956 0.00577566 0.00537241 0.00522549 0.00513666 
0.00473175 0.00466912 0.00444866 0.00441894 0.00400812 0.00385622 0.00379948 0.00370243 0.00366942 
0.00364039 0.00363813 0.00363644 0.00358692 0.0035797 0.00341284 0.00337012 0.00336273 0.00332772 
0.00323261 0.00320584 0.00320311 0.00318808 0.00313116 0.00306026 0.00305632 0.00304383 0.00300958 
0.00300137 0.00298994 0.0029567 0.00295111 0.00290849 0.00284552 0.00282964 0.0028207 0.00281971 
0.00281899 
omega 3 100 double
6.73593 -3.02568 -1.04366 6.73593 -3.02568 -1.04366 6.73593 -3.02568 -1.04366 
6.73593 -3.02568 -1.04366 6.73593 -3.02568 -1.04366 6.73593 -3.02568 -1.04366 
6.73593 -3.02568 -1.04366 6.73593 -3.02568 -1.04366 6.73593 -3.02568 -1.04366 
6.73593 -3.02568 -1.04366 6.73593 -3.02568 -1.04366 6.73593 -3.02568 -1.04366 
6.73593 -3.02568 -1.04366 6.73593 -3.02568 -1.04366 6.73593 -3.02568 -1.04366 
6.73593 -3.02568 -1.04366 6.73593 -3.02568 -1.04366 6.73593 -3.02568 -1.04366 
6.73593 -3.02568 -1.04366 6.73593 -3.02568 -1.04366 6.73593 -3.02568 -1.04366 
6.73593 -3.02568 -1.04366 6.73593 -3.02568 -1.04366 6.73593 -3.02568 -1.04366 
6.73593 -3.02568 -1.04366 6.73593 -3.02568 -1.04366 6.73593 -3.02568 -1.04366 
6.73593 -3.02568 -1.04366 6.73593 -3.02568 -1.04366 6.73593 -3.02568 -1.04366 
6.73593 -3.02568 -1.04366 6.73593 -3.02568 -1.04366 6.73593 -3.02568 -1.04366 
6.73593 -3.02568 -1.04366 6.73593 -3.02568 -1.04366 6.73593 -3.02568 -1.04366 
6.73593 -3.02568 -1.04366 6.73593 -3.02568 -1.04366 6.73593 -3.02568 -1.04366 
6.73593 -3.02568 -1.04366 6.73593 -3.02568 -1.04366 6.73593 -3.02568 -1.04366 
6.73593 -3.02568 -1.04366 6.73593 -3.02568 -1.04366 6.73593 -3.02568 -1.04366 
6.73593 -3.02568 -1.04366 6.73593 -3.02568 -1.04366 6.73593 -3.02568 -1.04366 
6.73593 -3.02568 -1.04366 6.73593 -3.02568 -1.04366 8.19484 -2.74962 0.603817 
8.19484 -2.74962 0.603817 8.19484 -2.74962 0.603817 8.19484 -2.74962 0.603817 
8.19484 -2.74962 0.603817 8.19484 -2.74962 0.603817 8.19484 -2.74962 0.603817 
8.19484 -2.74962 0.603817 8.19484 -2.74962 0.603817 8.19484 -2.74962 0.603817 
8.19484 -2.74962 0.603817 8.19484 -2.74962 0.603817 8.19484 -2.74962 0.603817 
8.19484 -2.74962 0.603817 8.19484 -2.74962 0.603817 8.19484 -2.74962 0.603817 
8.19484 -2.74962 0.603817 8.19484 -2.74962 0.603817 8.19484 -2.74962 0.603817 
8.19484 -2.74962 0.603817 8.19484 -2.74962 0.603817 8.19484 -2.74962 0.603817 
8.19484 -2.74962 0.603817 8.19484 -2.74962 0.603817 8.19484 -2.74962 0.603817 
8.19484 -2.74962 0.603817 8.19484 -2.74962 0.603817 8.19484 -2.74962 0.603817 
8.19484 -2.74962 0.603817 8.19484 -2.74962 0.603817 8.19484 -2.74962 0.603817 
8.19484 -2.74962 0.603817 8.19484 -2.74962 0.603817 8.19484 -2.74962 0.603817 
8.19484 -2.74962 0.603817 8.19484 -2.74962 0.603817 8.19484 -2.74962 0.603817 
8.19484 -2.74962 0.603817 8.19484 -2.74962 0.603817 8.19484 -2.74962 0.603817 
8.19484 -2.74962 0.603817 8.19484 -2.74962 0.603817 8.19484 -2.74962 0.603817 
8.19484 -2.74962 0.603817 8.19484 -2.74962 0.603817 8.19484 -2.74962 0.603817 
8.19484 -2.74962 0.603817 8.19484 -2.74962 0.603817 8.19484 -2.74962 0.603817 
8.19484 -2.74962 0.603817 
