# vtk DataFile Version 4.0
Generated by LIGGGHTS
ASCII
DATASET POLYDATA
POINTS 100 float
-0.107953 -0.12873 0.0121244 -0.118251 -0.129596 0.0137162 -0.127713 -0.12961 0.0170342 
-0.110641 -0.129623 0.0223707 -0.0985804 -0.127029 0.0165216 -0.119226 -0.130488 0.0239823 
-0.130381 -0.131354 0.0255642 -0.102064 -0.131331 0.0216068 -0.136308 -0.130478 0.0195022 
-0.115574 -0.126993 0.00433253 -0.113298 -0.132221 0.0300413 -0.124424 -0.132221 0.0290565 
-0.120734 -0.123574 0.00599836 -0.107302 -0.133076 0.0301074 -0.125913 -0.124444 0.0093625 
-0.119304 -0.133082 0.0308259 -0.102943 -0.125341 0.0233307 -0.135414 -0.12447 0.0161066 
-0.11127 -0.132125 0.00265093 -0.137233 -0.133069 0.0254794 -0.113888 -0.135567 0.00689231 
-0.109921 -0.133948 0.0343576 -0.100291 -0.134739 0.0164752 -0.0925461 -0.123589 0.0131762 
-0.0976442 -0.129575 0.00967007 -0.115615 -0.121865 0.00777661 -0.0993896 -0.121018 0.0122497 
-0.0942897 -0.121029 0.0157351 -0.114213 -0.133952 0.0351649 -0.116629 -0.123626 0.0214658 
-0.11764 -0.133953 0.0351255 -0.0952018 -0.132183 0.0208262 -0.125082 -0.136445 0.0119006 
-0.102989 -0.133922 0.027584 -0.141466 -0.133056 0.0211474 -0.0985388 -0.13387 0.0130717 
-0.122769 -0.133951 0.0342098 -0.103847 -0.130496 0.027586 -0.130449 -0.133945 0.0315513 
-0.121569 -0.128708 0.0042576 -0.124354 -0.135627 0.0230487 -0.105539 -0.13563 0.0258353 
-0.105484 -0.122763 0.0207404 -0.10546 -0.136463 0.0189799 -0.133779 -0.126206 0.0229729 
-0.134712 -0.13394 0.029789 -0.0993181 -0.128707 0.00622706 -0.124159 -0.127858 0.00594412 
-0.121086 -0.13396 0.0367992 -0.130216 -0.122737 0.0110323 -0.039152 -0.10092 0.0144067 
-0.0494912 -0.101804 0.0156937 -0.0590436 -0.101858 0.0187404 -0.0421303 -0.10194 0.0245603 
-0.0299089 -0.0992754 0.0190899 -0.0507576 -0.102824 0.0259159 -0.0619528 -0.103707 0.0271686 
-0.0335355 -0.10364 0.0240198 -0.0677052 -0.102755 0.0209516 -0.0465483 -0.0990845 0.00642316 
-0.0450047 -0.104632 0.0321193 -0.0560977 -0.104619 0.0308181 -0.0517546 -0.0956856 0.00798377 
-0.0390126 -0.105489 0.0323454 -0.0570267 -0.0965965 0.011188 -0.05103 -0.105502 0.0327217 
-0.0344637 -0.0976714 0.0257925 -0.066716 -0.0967053 0.0176579 -0.0421969 -0.104196 0.00480108 
-0.0687993 -0.10542 0.0268674 -0.0449338 -0.107691 0.00892302 -0.0417511 -0.106414 0.0365082 
-0.031616 -0.106984 0.0188988 -0.0237825 -0.0957949 0.0159607 -0.0287774 -0.101736 0.0122366 
-0.0466885 -0.0939998 0.00992823 -0.0305973 -0.0932116 0.0148718 -0.0255987 -0.0932662 0.0185006 
-0.0460651 -0.106427 0.0371928 -0.0480914 -0.0959308 0.0235601 -0.0494888 -0.106427 0.0370558 
-0.0266532 -0.104483 0.0234244 -0.056266 -0.108629 0.0135992 -0.0346296 -0.106305 0.0299356 
-0.0729078 -0.105352 0.022417 -0.0297677 -0.106073 0.0155576 -0.0545903 -0.106413 0.0359944 
-0.0354877 -0.102879 0.0299558 -0.062191 -0.106372 0.0331187 -0.0525388 -0.100797 0.00615617 
-0.0558558 -0.107949 0.0247728 -0.0371278 -0.10799 0.0280939 -0.0369304 -0.0950609 0.0231631 
-0.0368533 -0.108738 0.0212336 -0.0652771 -0.0985274 0.0245458 -0.0664022 -0.106345 0.0312358 
-0.0303528 -0.100825 0.00875839 -0.0551757 -0.0999681 0.0077787 -0.0529811 -0.106454 0.0386305 
-0.061376 -0.0949107 0.0127557 
VERTICES 100 200
1 0 
1 1 
1 2 
1 3 
1 4 
1 5 
1 6 
1 7 
1 8 
1 9 
1 10 
1 11 
1 12 
1 13 
1 14 
1 15 
1 16 
1 17 
1 18 
1 19 
1 20 
1 21 
1 22 
1 23 
1 24 
1 25 
1 26 
1 27 
1 28 
1 29 
1 30 
1 31 
1 32 
1 33 
1 34 
1 35 
1 36 
1 37 
1 38 
1 39 
1 40 
1 41 
1 42 
1 43 
1 44 
1 45 
1 46 
1 47 
1 48 
1 49 
1 50 
1 51 
1 52 
1 53 
1 54 
1 55 
1 56 
1 57 
1 58 
1 59 
1 60 
1 61 
1 62 
1 63 
1 64 
1 65 
1 66 
1 67 
1 68 
1 69 
1 70 
1 71 
1 72 
1 73 
1 74 
1 75 
1 76 
1 77 
1 78 
1 79 
1 80 
1 81 
1 82 
1 83 
1 84 
1 85 
1 86 
1 87 
1 88 
1 89 
1 90 
1 91 
1 92 
1 93 
1 94 
1 95 
1 96 
1 97 
1 98 
1 99 

POINT_DATA 100
FIELD FieldData 7
id 1 100 int
1 2 3 4 5 6 7 8 9 
10 11 12 13 14 15 16 17 18 
19 20 21 22 23 24 25 26 27 
28 29 30 31 32 33 34 35 36 
37 38 39 40 41 42 43 44 45 
46 47 48 49 50 51 52 53 54 
55 56 57 58 59 60 61 62 63 
64 65 66 67 68 69 70 71 72 
73 74 75 76 77 78 79 80 81 
82 83 84 85 86 87 88 89 90 
91 92 93 94 95 96 97 98 99 
100 
mol 1 100 int
1 1 1 1 1 1 1 1 1 
1 1 1 1 1 1 1 1 1 
1 1 1 1 1 1 1 1 1 
1 1 1 1 1 1 1 1 1 
1 1 1 1 1 1 1 1 1 
1 1 1 1 1 2 2 2 2 
2 2 2 2 2 2 2 2 2 
2 2 2 2 2 2 2 2 2 
2 2 2 2 2 2 2 2 2 
2 2 2 2 2 2 2 2 2 
2 2 2 2 2 2 2 2 2 
2 
type 1 100 int
1 1 1 1 1 1 1 1 1 
1 1 1 1 1 1 1 1 1 
1 1 1 1 1 1 1 1 1 
1 1 1 1 1 1 1 1 1 
1 1 1 1 1 1 1 1 1 
1 1 1 1 1 1 1 1 1 
1 1 1 1 1 1 1 1 1 
1 1 1 1 1 1 1 1 1 
1 1 1 1 1 1 1 1 1 
1 1 1 1 1 1 1 1 1 
1 1 1 1 1 1 1 1 1 
1 
v 3 100 double
-0.121322 -0.0313948 0.624943 -0.133575 -0.0361553 0.543084 -0.159163 -0.0457515 0.470072 
-0.20032 -0.0603085 0.601701 -0.155281 -0.0435171 0.702014 -0.212725 -0.0650781 0.533056 
-0.224902 -0.0698341 0.444589 -0.194382 -0.0579253 0.663036 -0.178174 -0.0529321 0.401341 
-0.0612759 -0.00966965 0.57106 -0.259408 -0.0819718 0.573894 -0.251813 -0.0795022 0.48809 
-0.0742162 -0.0144988 0.540886 -0.259894 -0.0819948 0.617733 -0.100138 -0.0241088 0.498498 
-0.265435 -0.0843434 0.525154 -0.20784 -0.0628017 0.673123 -0.152149 -0.0433498 0.425149 
-0.0481674 -0.00481937 0.589808 -0.224202 -0.0697817 0.386917 -0.0807846 -0.016829 0.559929 
-0.292649 -0.0940294 0.595082 -0.154713 -0.043433 0.66712 -0.129573 -0.0339366 0.758236 
-0.10237 -0.0242062 0.702069 -0.087977 -0.019365 0.585177 -0.122498 -0.0315146 0.712693 
-0.149378 -0.0411866 0.751996 -0.298875 -0.0964182 0.561963 -0.193504 -0.0579244 0.572401 
-0.298571 -0.0964003 0.535536 -0.188338 -0.0555415 0.713565 -0.119386 -0.0312303 0.471126 
-0.24041 -0.0747749 0.648611 -0.190792 -0.057703 0.354305 -0.128488 -0.0338052 0.683079 
-0.291509 -0.0939623 0.495979 -0.240518 -0.0748038 0.65164 -0.271006 -0.0866881 0.436771 
-0.0606514 -0.00962166 0.519994 -0.205386 -0.0625898 0.479045 -0.226877 -0.069922 0.624141 
-0.187933 -0.0555796 0.660783 -0.173983 -0.0506234 0.622407 -0.205057 -0.0626324 0.432869 
-0.257414 -0.0818434 0.403906 -0.0758405 -0.0145605 0.691602 -0.0736814 -0.0144392 0.502414 
-0.311479 -0.101205 0.50894 -0.113062 -0.0289258 0.470114 -0.0969152 -0.0572828 0.412277 
-0.105697 -0.0606721 0.3394 -0.126599 -0.0678639 0.273735 -0.16653 -0.0796433 0.389611 
-0.129142 -0.0670046 0.479296 -0.175783 -0.0830871 0.328481 -0.18433 -0.0864491 0.24973 
-0.162727 -0.0779829 0.444871 -0.141723 -0.0731801 0.212339 -0.0422361 -0.0402439 0.365538 
-0.218248 -0.0963264 0.364002 -0.209321 -0.0941002 0.287915 -0.053134 -0.0439452 0.337243 
-0.219752 -0.0964868 0.403247 -0.0750698 -0.051243 0.299075 -0.222334 -0.0979789 0.320757 
-0.175223 -0.0819094 0.451549 -0.119459 -0.0659252 0.232351 -0.0308208 -0.0364557 0.384222 
-0.182167 -0.0861721 0.199006 -0.05891 -0.0456183 0.357804 -0.248265 -0.105739 0.382435 
-0.127401 -0.0666821 0.450733 -0.107864 -0.0598234 0.528942 -0.081979 -0.0519612 0.481682 
-0.0665704 -0.0479133 0.37569 -0.100536 -0.0578227 0.487827 -0.125433 -0.0654764 0.522007 
-0.252961 -0.107475 0.352803 -0.160001 -0.0777889 0.361843 -0.252021 -0.107367 0.32931 
-0.158594 -0.076298 0.490254 -0.0909445 -0.0564711 0.277994 -0.203171 -0.090975 0.431539 
-0.151633 -0.076673 0.170964 -0.104525 -0.0592757 0.465406 -0.244739 -0.105331 0.294335 
-0.2035 -0.0910669 0.43314 -0.225009 -0.0994684 0.24227 -0.0403086 -0.039994 0.320688 
-0.167654 -0.0808725 0.282294 -0.19044 -0.0870884 0.410712 -0.157326 -0.0762994 0.440329 
-0.143324 -0.0720775 0.410961 -0.166621 -0.0809011 0.238242 -0.21209 -0.0955873 0.213434 
-0.0581629 -0.044446 0.472863 -0.0514883 -0.0436876 0.304407 -0.262825 -0.111003 0.305288 
-0.0859208 -0.054912 0.272917 
f 3 100 double
0 0 0 0 0 0 0 0 0 
0 0 0 0 0 0 0 0 0 
0 0 0 0 0 0 0 0 0 
-1.65914 -0.72078 19.6815 0 0 0 0 0 0 
0 0 0 0 0 0 0 0 0 
0 0 0 0 0 0 0 0 0 
-1.17367 -0.546507 8.19878 0 0 0 0 0 0 
0 0 0 0 0 0 0 0 0 
0 0 0 0 0 0 0 0 0 
0 0 0 0 0 0 0 0 0 
0 0 0 0 0 0 0 0 0 
0 0 0 0 0 0 0 0 0 
0 0 0 0 0 0 0 0 0 
0 0 0 0 0 0 0 0 0 
0 0 0 0 0 0 0 0 0 
0 0 0 0 0 0 0 0 0 
0 0 0 0 0 0 0 0 0 
0 0 0 0 0 0 0 0 0 
0 0 0 0 0 0 0 0 0 
0 0 0 0 0 0 0 0 0 
0 0 0 0 0 0 0 0 0 
0 0 0 0 0 0 0 0 0 
0 0 0 0 0 0 0 0 0 
0 0 0 0 0 0 0 0 0 
0 0 0 0 0 0 0 0 0 
0 0 0 0 0 0 0 0 0 
0 0 0 0 0 0 0 0 0 
0 0 0 0 0 0 0 0 0 
0 0 0 0 0 0 0 0 0 
0 0 0 0 0 0 0 0 0 
0 0 0 0 0 0 0 0 0 
0 0 0 0 0 0 0 0 0 
0 0 0 0 0 0 0 0 0 
0 0 0 
radius 1 100 double
0.010434 0.00981478 0.00892069 0.00845937 0.00731974 0.00728422 0.00643447 0.00619172 0.00585956 
0.00577566 0.00537241 0.00522549 0.00513666 0.00473175 0.00466912 0.00444866 0.00441894 0.00400812 
0.00385622 0.00379948 0.00370243 0.00366942 0.00364039 0.00363813 0.00363644 0.00358692 0.0035797 
0.00341284 0.00337012 0.00336273 0.00332772 0.00323261 0.00320584 0.00320311 0.00318808 0.00313116 
0.00306026 0.00305632 0.00304383 0.00300958 0.00300137 0.00298994 0.0029567 0.00295111 0.00290849 
0.00284552 0.00282964 0.0028207 0.00281971 0.00281899 0.010434 0.00981478 0.00892069 0.00845937 
0.00731974 0.00728422 0.00643447 0.00619172 0.00585956 0.00577566 0.00537241 0.00522549 0.00513666 
0.00473175 0.00466912 0.00444866 0.00441894 0.00400812 0.00385622 0.00379948 0.00370243 0.00366942 
0.00364039 0.00363813 0.00363644 0.00358692 0.0035797 0.00341284 0.00337012 0.00336273 0.00332772 
0.00323261 0.00320584 0.00320311 0.00318808 0.00313116 0.00306026 0.00305632 0.00304383 0.00300958 
0.00300137 0.00298994 0.0029567 0.00295111 0.00290849 0.00284552 0.00282964 0.0028207 0.00281971 
0.00281899 
omega 3 100 double
2.81476 -7.71229 0.0271776 2.81476 -7.71229 0.0271776 2.81476 -7.71229 0.0271776 
2.81476 -7.71229 0.0271776 2.81476 -7.71229 0.0271776 2.81476 -7.71229 0.0271776 
2.81476 -7.71229 0.0271776 2.81476 -7.71229 0.0271776 2.81476 -7.71229 0.0271776 
2.81476 -7.71229 0.0271776 2.81476 -7.71229 0.0271776 2.81476 -7.71229 0.0271776 
2.81476 -7.71229 0.0271776 2.81476 -7.71229 0.0271776 2.81476 -7.71229 0.0271776 
2.81476 -7.71229 0.0271776 2.81476 -7.71229 0.0271776 2.81476 -7.71229 0.0271776 
2.81476 -7.71229 0.0271776 2.81476 -7.71229 0.0271776 2.81476 -7.71229 0.0271776 
2.81476 -7.71229 0.0271776 2.81476 -7.71229 0.0271776 2.81476 -7.71229 0.0271776 
2.81476 -7.71229 0.0271776 2.81476 -7.71229 0.0271776 2.81476 -7.71229 0.0271776 
2.81476 -7.71229 0.0271776 2.81476 -7.71229 0.0271776 2.81476 -7.71229 0.0271776 
2.81476 -7.71229 0.0271776 2.81476 -7.71229 0.0271776 2.81476 -7.71229 0.0271776 
2.81476 -7.71229 0.0271776 2.81476 -7.71229 0.0271776 2.81476 -7.71229 0.0271776 
2.81476 -7.71229 0.0271776 2.81476 -7.71229 0.0271776 2.81476 -7.71229 0.0271776 
2.81476 -7.71229 0.0271776 2.81476 -7.71229 0.0271776 2.81476 -7.71229 0.0271776 
2.81476 -7.71229 0.0271776 2.81476 -7.71229 0.0271776 2.81476 -7.71229 0.0271776 
2.81476 -7.71229 0.0271776 2.81476 -7.71229 0.0271776 2.81476 -7.71229 0.0271776 
2.81476 -7.71229 0.0271776 2.81476 -7.71229 0.0271776 2.18587 -6.86179 0.0557163 
2.18587 -6.86179 0.0557163 2.18587 -6.86179 0.0557163 2.18587 -6.86179 0.0557163 
2.18587 -6.86179 0.0557163 2.18587 -6.86179 0.0557163 2.18587 -6.86179 0.0557163 
2.18587 -6.86179 0.0557163 2.18587 -6.86179 0.0557163 2.18587 -6.86179 0.0557163 
2.18587 -6.86179 0.0557163 2.18587 -6.86179 0.0557163 2.18587 -6.86179 0.0557163 
2.18587 -6.86179 0.0557163 2.18587 -6.86179 0.0557163 2.18587 -6.86179 0.0557163 
2.18587 -6.86179 0.0557163 2.18587 -6.86179 0.0557163 2.18587 -6.86179 0.0557163 
2.18587 -6.86179 0.0557163 2.18587 -6.86179 0.0557163 2.18587 -6.86179 0.0557163 
2.18587 -6.86179 0.0557163 2.18587 -6.86179 0.0557163 2.18587 -6.86179 0.0557163 
2.18587 -6.86179 0.0557163 2.18587 -6.86179 0.0557163 2.18587 -6.86179 0.0557163 
2.18587 -6.86179 0.0557163 2.18587 -6.86179 0.0557163 2.18587 -6.86179 0.0557163 
2.18587 -6.86179 0.0557163 2.18587 -6.86179 0.0557163 2.18587 -6.86179 0.0557163 
2.18587 -6.86179 0.0557163 2.18587 -6.86179 0.0557163 2.18587 -6.86179 0.0557163 
2.18587 -6.86179 0.0557163 2.18587 -6.86179 0.0557163 2.18587 -6.86179 0.0557163 
2.18587 -6.86179 0.0557163 2.18587 -6.86179 0.0557163 2.18587 -6.86179 0.0557163 
2.18587 -6.86179 0.0557163 2.18587 -6.86179 0.0557163 2.18587 -6.86179 0.0557163 
2.18587 -6.86179 0.0557163 2.18587 -6.86179 0.0557163 2.18587 -6.86179 0.0557163 
2.18587 -6.86179 0.0557163 
