# vtk DataFile Version 4.0
Generated by LIGGGHTS
ASCII
DATASET POLYDATA
POINTS 100 float
-0.11067 -0.130226 0.0212925 -0.121078 -0.131165 0.0209425 -0.130983 -0.131358 0.0224881 
-0.115156 -0.131716 0.030814 -0.102261 -0.128804 0.0274035 -0.123883 -0.132658 0.0307934 
-0.135132 -0.133595 0.0302788 -0.106568 -0.133391 0.0315156 -0.139874 -0.132354 0.0233063 
-0.116773 -0.128019 0.0123655 -0.119132 -0.134755 0.0377132 -0.129897 -0.134677 0.0347343 
-0.122179 -0.124694 0.0132668 -0.113239 -0.135623 0.0388126 -0.127872 -0.125751 0.0155825 
-0.125173 -0.13565 0.0373472 -0.107796 -0.127511 0.0333981 -0.138435 -0.126157 0.020484 
-0.11219 -0.133051 0.011194 -0.141841 -0.13529 0.0288566 -0.115501 -0.136732 0.0146843 
-0.116575 -0.136739 0.0424611 -0.103867 -0.136494 0.0265998 -0.0957526 -0.125184 0.0254106 
-0.10008 -0.130943 0.0206979 -0.117481 -0.123102 0.016038 -0.102339 -0.12255 0.0234131 
-0.0979523 -0.122775 0.0277567 -0.120943 -0.136783 0.0424771 -0.120935 -0.125664 0.029192 
-0.124305 -0.136776 0.0418187 -0.0996701 -0.134208 0.0319406 -0.127407 -0.137883 0.0175259 
-0.108534 -0.136328 0.0370659 -0.145222 -0.135014 0.0238386 -0.101536 -0.13543 0.0236256 
-0.129185 -0.136711 0.0399921 -0.109409 -0.132906 0.0371122 -0.136258 -0.136534 0.0359937 
-0.122641 -0.129715 0.0111078 -0.128712 -0.137723 0.0286503 -0.110711 -0.137925 0.0347885 
-0.10985 -0.124781 0.0305455 -0.109387 -0.138353 0.0280237 -0.138052 -0.128298 0.0274198 
-0.140132 -0.136418 0.0334928 -0.101112 -0.129871 0.0170654 -0.1255 -0.128961 0.0123448 
-0.127997 -0.136875 0.0428384 -0.132421 -0.124139 0.0165431 -0.0418032 -0.102437 0.0218942 
-0.0521979 -0.103385 0.0212708 -0.0621388 -0.103601 0.0225611 -0.0465294 -0.104008 0.0312858 
-0.0335554 -0.101054 0.0282293 -0.0552517 -0.10496 0.0310346 -0.0664827 -0.105906 0.0302252 
-0.0379601 -0.105679 0.0321933 -0.0710469 -0.104613 0.0231439 -0.0476792 -0.100165 0.0128319 
-0.0506767 -0.107107 0.0380566 -0.0613613 -0.107017 0.0348043 -0.0531112 -0.0968544 0.0136212 
-0.0448126 -0.107977 0.0392994 -0.0588603 -0.0979362 0.0157822 -0.0567048 -0.108006 0.0375293 
-0.0392437 -0.099816 0.0340905 -0.069544 -0.0983932 0.0204087 -0.0430616 -0.105183 0.011738 
-0.0731504 -0.107596 0.0286185 -0.0464552 -0.108896 0.0151131 -0.0482387 -0.109126 0.0428525 
-0.0351299 -0.10874 0.0273236 -0.0270028 -0.0974113 0.0264323 -0.031201 -0.103138 0.0215648 
-0.0484872 -0.0952794 0.0165241 -0.0335392 -0.0947693 0.024288 -0.0292649 -0.0950239 0.0287404 
-0.0526054 -0.109175 0.0427565 -0.0522731 -0.0979502 0.0295648 -0.0559501 -0.109166 0.0420124 
-0.031074 -0.106492 0.032788 -0.058429 -0.110082 0.0176402 -0.0400636 -0.108662 0.0376679 
-0.0764028 -0.107284 0.0235181 -0.0327256 -0.107649 0.0244186 -0.0607815 -0.109092 0.0400623 
-0.0409433 -0.105242 0.0377191 -0.06775 -0.108891 0.0358859 -0.0535107 -0.101859 0.0114112 
-0.0600179 -0.110013 0.0287285 -0.042179 -0.110244 0.0353231 -0.0412278 -0.097065 0.0312082 
-0.0406824 -0.110616 0.0285911 -0.0693355 -0.100589 0.0273347 -0.0715595 -0.108759 0.0332877 
-0.0321414 -0.102038 0.0179157 -0.0564016 -0.101118 0.0125807 -0.0596663 -0.109277 0.0429366 
-0.0634344 -0.0963364 0.0166389 
VERTICES 100 200
1 0 
1 1 
1 2 
1 3 
1 4 
1 5 
1 6 
1 7 
1 8 
1 9 
1 10 
1 11 
1 12 
1 13 
1 14 
1 15 
1 16 
1 17 
1 18 
1 19 
1 20 
1 21 
1 22 
1 23 
1 24 
1 25 
1 26 
1 27 
1 28 
1 29 
1 30 
1 31 
1 32 
1 33 
1 34 
1 35 
1 36 
1 37 
1 38 
1 39 
1 40 
1 41 
1 42 
1 43 
1 44 
1 45 
1 46 
1 47 
1 48 
1 49 
1 50 
1 51 
1 52 
1 53 
1 54 
1 55 
1 56 
1 57 
1 58 
1 59 
1 60 
1 61 
1 62 
1 63 
1 64 
1 65 
1 66 
1 67 
1 68 
1 69 
1 70 
1 71 
1 72 
1 73 
1 74 
1 75 
1 76 
1 77 
1 78 
1 79 
1 80 
1 81 
1 82 
1 83 
1 84 
1 85 
1 86 
1 87 
1 88 
1 89 
1 90 
1 91 
1 92 
1 93 
1 94 
1 95 
1 96 
1 97 
1 98 
1 99 

POINT_DATA 100
FIELD FieldData 7
id 1 100 int
1 2 3 4 5 6 7 8 9 
10 11 12 13 14 15 16 17 18 
19 20 21 22 23 24 25 26 27 
28 29 30 31 32 33 34 35 36 
37 38 39 40 41 42 43 44 45 
46 47 48 49 50 51 52 53 54 
55 56 57 58 59 60 61 62 63 
64 65 66 67 68 69 70 71 72 
73 74 75 76 77 78 79 80 81 
82 83 84 85 86 87 88 89 90 
91 92 93 94 95 96 97 98 99 
100 
mol 1 100 int
1 1 1 1 1 1 1 1 1 
1 1 1 1 1 1 1 1 1 
1 1 1 1 1 1 1 1 1 
1 1 1 1 1 1 1 1 1 
1 1 1 1 1 1 1 1 1 
1 1 1 1 1 2 2 2 2 
2 2 2 2 2 2 2 2 2 
2 2 2 2 2 2 2 2 2 
2 2 2 2 2 2 2 2 2 
2 2 2 2 2 2 2 2 2 
2 2 2 2 2 2 2 2 2 
2 
type 1 100 int
1 1 1 1 1 1 1 1 1 
1 1 1 1 1 1 1 1 1 
1 1 1 1 1 1 1 1 1 
1 1 1 1 1 1 1 1 1 
1 1 1 1 1 1 1 1 1 
1 1 1 1 1 1 1 1 1 
1 1 1 1 1 1 1 1 1 
1 1 1 1 1 1 1 1 1 
1 1 1 1 1 1 1 1 1 
1 1 1 1 1 1 1 1 1 
1 1 1 1 1 1 1 1 1 
1 
v 3 100 double
-0.10781 -0.0597473 0.211107 -0.105129 -0.0614866 0.136031 -0.115948 -0.0669654 0.0660137 
-0.17439 -0.0801843 0.176538 -0.151102 -0.0702053 0.273109 -0.174023 -0.0821978 0.113274 
-0.170185 -0.0838001 0.0322926 -0.178927 -0.0795894 0.233496 -0.121465 -0.0707251 0.00148476 
-0.0455782 -0.0430146 0.172698 -0.222171 -0.0951635 0.1424 -0.20125 -0.0916357 0.0668933 
-0.0526972 -0.0461227 0.141461 -0.229695 -0.0960133 0.182058 -0.0687262 -0.0521771 0.0992894 
-0.219388 -0.0958415 0.098117 -0.193545 -0.0837104 0.23683 -0.103085 -0.0646415 0.0242152 
-0.0361583 -0.0395509 0.194667 -0.159788 -0.0824853 -0.0183138 -0.059826 -0.0474348 0.163904 
-0.255079 -0.104225 0.15634 -0.14364 -0.0689474 0.246168 -0.137946 -0.0646158 0.326229 
-0.103461 -0.0560427 0.284084 -0.0725516 -0.0506564 0.177728 -0.124524 -0.0621012 0.285293 
-0.155004 -0.0699091 0.315668 -0.255181 -0.105286 0.125547 -0.164413 -0.078244 0.148232 
-0.250555 -0.104738 0.101925 -0.181722 -0.0788298 0.280323 -0.0795297 -0.0560231 0.0778665 
-0.21725 -0.0913497 0.213697 -0.12458 -0.0730681 -0.0415203 -0.122985 -0.062345 0.264716 
-0.23773 -0.10217 0.0677563 -0.218382 -0.0916499 0.214516 -0.209665 -0.0956974 0.0183996 
-0.0363379 -0.0418369 0.127997 -0.157765 -0.0789732 0.0690182 -0.200866 -0.087227 0.195147 
-0.174136 -0.0783881 0.227949 -0.153212 -0.0731461 0.203579 -0.151335 -0.0786685 0.0225502 
-0.192112 -0.0915195 -0.00859934 -0.0781795 -0.0488922 0.279012 -0.0452106 -0.0450281 0.109433 
-0.257699 -0.107683 0.0757749 -0.0758581 -0.0552036 0.0705958 -0.10723 -0.0594451 0.163348 
-0.102672 -0.0609856 0.0896919 -0.111524 -0.0662054 0.0206227 -0.171657 -0.0793604 0.127595 
-0.151342 -0.0698221 0.223044 -0.169668 -0.081193 0.0654774 -0.163827 -0.0825876 -0.0139483 
-0.177476 -0.078872 0.183445 -0.115277 -0.0697438 -0.0428972 -0.0452634 -0.0430178 0.127287 
-0.21758 -0.093916 0.0928037 -0.195148 -0.0903129 0.0192064 -0.0515984 -0.0460374 0.0963555 
-0.225929 -0.0948167 0.131566 -0.0662301 -0.0518658 0.0545103 -0.213699 -0.0944801 0.049396 
-0.192144 -0.0829831 0.186226 -0.0980532 -0.0639099 -0.0201662 -0.0363688 -0.039611 0.149205 
-0.152281 -0.0811789 -0.063346 -0.0586812 -0.0472213 0.118399 -0.250155 -0.102789 0.105627 
-0.143034 -0.0684442 0.196908 -0.139908 -0.0645017 0.275524 -0.104768 -0.0559568 0.235162 
-0.0720634 -0.0505666 0.131411 -0.125808 -0.0619903 0.235638 -0.156483 -0.0696904 0.264645 
-0.249479 -0.103766 0.0753791 -0.161393 -0.0774777 0.0999663 -0.244344 -0.103182 0.0523024 
-0.181366 -0.0782126 0.229379 -0.0758131 -0.0554407 0.0333661 -0.214481 -0.0903072 0.162996 
-0.117147 -0.0719187 -0.0851824 -0.123267 -0.0620321 0.215675 -0.230898 -0.1006 0.0190888 
-0.215748 -0.090644 0.163715 -0.202115 -0.0941686 -0.0286279 -0.0350011 -0.0417551 0.0836583 
-0.152395 -0.0778871 0.022532 -0.197867 -0.0862157 0.145249 -0.172977 -0.0777891 0.17799 
-0.151285 -0.0724458 0.154842 -0.14529 -0.0776096 -0.0230873 -0.18421 -0.0900269 -0.0546699 
-0.0798656 -0.0489611 0.230854 -0.0432739 -0.0448503 0.0651688 -0.250695 -0.106011 0.0264217 
-0.0725735 -0.05479 0.0261045 
f 3 100 double
0 0 0 0 0 0 0 0 0 
0 0 0 0 0 0 0 0 0 
0 0 0 0 0 0 0 0 0 
0 0 0 0 0 0 0 0 0 
0 0 0 0 0 0 0 0 0 
0 0 0 0 0 0 0 0 0 
0 0 0 0 0 0 0 0 0 
0 0 0 0 0 0 0 0 0 
0 0 0 0 0 0 0 0 0 
0 0 0 0 0 0 0 0 0 
0 0 0 0 0 0 0 0 0 
0 0 0 0 0 0 0 0 0 
0 0 0 0 0 0 0 0 0 
0 0 0 0 0 0 0 0 0 
0 0 0 0 0 0 0 0 0 
0 0 0 0 0 0 0 0 0 
0 0 0 0 0 0 0 0 0 
0 0 0 0 0 0 0 0 0 
0 0 0 0 0 0 0 0 0 
0 0 0 0 0 0 0 0 0 
0 0 0 0 0 0 0 0 0 
0 0 0 0 0 0 0 0 0 
0 0 0 0 0 0 0 0 0 
0 0 0 0 0 0 0 0 0 
0 0 0 0 0 0 0 0 0 
0 0 0 0 0 0 0 0 0 
0 0 0 0 0 0 0 0 0 
0 0 0 0 0 0 0 0 0 
0 0 0 0 0 0 0 0 0 
0 0 0 0 0 0 0 0 0 
0 0 0 0 0 0 0 0 0 
0 0 0 0 0 0 0 0 0 
0 0 0 0 0 0 0 0 0 
0 0 0 
radius 1 100 double
0.010434 0.00981478 0.00892069 0.00845937 0.00731974 0.00728422 0.00643447 0.00619172 0.00585956 
0.00577566 0.00537241 0.00522549 0.00513666 0.00473175 0.00466912 0.00444866 0.00441894 0.00400812 
0.00385622 0.00379948 0.00370243 0.00366942 0.00364039 0.00363813 0.00363644 0.00358692 0.0035797 
0.00341284 0.00337012 0.00336273 0.00332772 0.00323261 0.00320584 0.00320311 0.00318808 0.00313116 
0.00306026 0.00305632 0.00304383 0.00300958 0.00300137 0.00298994 0.0029567 0.00295111 0.00290849 
0.00284552 0.00282964 0.0028207 0.00281971 0.00281899 0.010434 0.00981478 0.00892069 0.00845937 
0.00731974 0.00728422 0.00643447 0.00619172 0.00585956 0.00577566 0.00537241 0.00522549 0.00513666 
0.00473175 0.00466912 0.00444866 0.00441894 0.00400812 0.00385622 0.00379948 0.00370243 0.00366942 
0.00364039 0.00363813 0.00363644 0.00358692 0.0035797 0.00341284 0.00337012 0.00336273 0.00332772 
0.00323261 0.00320584 0.00320311 0.00318808 0.00313116 0.00306026 0.00305632 0.00304383 0.00300958 
0.00300137 0.00298994 0.0029567 0.00295111 0.00290849 0.00284552 0.00282964 0.0028207 0.00281971 
0.00281899 
omega 3 100 double
2.03541 -7.02941 0.235541 2.03541 -7.02941 0.235541 2.03541 -7.02941 0.235541 
2.03541 -7.02941 0.235541 2.03541 -7.02941 0.235541 2.03541 -7.02941 0.235541 
2.03541 -7.02941 0.235541 2.03541 -7.02941 0.235541 2.03541 -7.02941 0.235541 
2.03541 -7.02941 0.235541 2.03541 -7.02941 0.235541 2.03541 -7.02941 0.235541 
2.03541 -7.02941 0.235541 2.03541 -7.02941 0.235541 2.03541 -7.02941 0.235541 
2.03541 -7.02941 0.235541 2.03541 -7.02941 0.235541 2.03541 -7.02941 0.235541 
2.03541 -7.02941 0.235541 2.03541 -7.02941 0.235541 2.03541 -7.02941 0.235541 
2.03541 -7.02941 0.235541 2.03541 -7.02941 0.235541 2.03541 -7.02941 0.235541 
2.03541 -7.02941 0.235541 2.03541 -7.02941 0.235541 2.03541 -7.02941 0.235541 
2.03541 -7.02941 0.235541 2.03541 -7.02941 0.235541 2.03541 -7.02941 0.235541 
2.03541 -7.02941 0.235541 2.03541 -7.02941 0.235541 2.03541 -7.02941 0.235541 
2.03541 -7.02941 0.235541 2.03541 -7.02941 0.235541 2.03541 -7.02941 0.235541 
2.03541 -7.02941 0.235541 2.03541 -7.02941 0.235541 2.03541 -7.02941 0.235541 
2.03541 -7.02941 0.235541 2.03541 -7.02941 0.235541 2.03541 -7.02941 0.235541 
2.03541 -7.02941 0.235541 2.03541 -7.02941 0.235541 2.03541 -7.02941 0.235541 
2.03541 -7.02941 0.235541 2.03541 -7.02941 0.235541 2.03541 -7.02941 0.235541 
2.03541 -7.02941 0.235541 2.03541 -7.02941 0.235541 1.98603 -6.90483 0.267302 
1.98603 -6.90483 0.267302 1.98603 -6.90483 0.267302 1.98603 -6.90483 0.267302 
1.98603 -6.90483 0.267302 1.98603 -6.90483 0.267302 1.98603 -6.90483 0.267302 
1.98603 -6.90483 0.267302 1.98603 -6.90483 0.267302 1.98603 -6.90483 0.267302 
1.98603 -6.90483 0.267302 1.98603 -6.90483 0.267302 1.98603 -6.90483 0.267302 
1.98603 -6.90483 0.267302 1.98603 -6.90483 0.267302 1.98603 -6.90483 0.267302 
1.98603 -6.90483 0.267302 1.98603 -6.90483 0.267302 1.98603 -6.90483 0.267302 
1.98603 -6.90483 0.267302 1.98603 -6.90483 0.267302 1.98603 -6.90483 0.267302 
1.98603 -6.90483 0.267302 1.98603 -6.90483 0.267302 1.98603 -6.90483 0.267302 
1.98603 -6.90483 0.267302 1.98603 -6.90483 0.267302 1.98603 -6.90483 0.267302 
1.98603 -6.90483 0.267302 1.98603 -6.90483 0.267302 1.98603 -6.90483 0.267302 
1.98603 -6.90483 0.267302 1.98603 -6.90483 0.267302 1.98603 -6.90483 0.267302 
1.98603 -6.90483 0.267302 1.98603 -6.90483 0.267302 1.98603 -6.90483 0.267302 
1.98603 -6.90483 0.267302 1.98603 -6.90483 0.267302 1.98603 -6.90483 0.267302 
1.98603 -6.90483 0.267302 1.98603 -6.90483 0.267302 1.98603 -6.90483 0.267302 
1.98603 -6.90483 0.267302 1.98603 -6.90483 0.267302 1.98603 -6.90483 0.267302 
1.98603 -6.90483 0.267302 1.98603 -6.90483 0.267302 1.98603 -6.90483 0.267302 
1.98603 -6.90483 0.267302 
