# vtk DataFile Version 4.0
Generated by LIGGGHTS
ASCII
DATASET POLYDATA
POINTS 100 float
-0.118451 -0.157533 0.0118702 -0.128328 -0.154104 0.0117291 -0.13825 -0.152709 0.0120958 
-0.125586 -0.165118 0.00973339 -0.112154 -0.165923 0.0120403 -0.133954 -0.162483 0.00943256 
-0.144585 -0.158656 0.00937115 -0.117654 -0.168046 0.00737659 -0.147023 -0.150818 0.0116673 
-0.121578 -0.147563 0.0154248 -0.131526 -0.170171 0.00629317 -0.140933 -0.164262 0.00745829 
-0.126876 -0.147269 0.0190212 -0.126253 -0.172801 0.0048913 -0.133035 -0.14771 0.0181457 
-0.137224 -0.167984 0.00588071 -0.119148 -0.170189 0.0131038 -0.144578 -0.149292 0.0180015 
-0.117054 -0.14716 0.0102216 -0.150643 -0.155177 0.00832298 -0.121384 -0.149087 0.00644914 
-0.130553 -0.175179 0.00364865 -0.113754 -0.163776 0.00461038 -0.105211 -0.16633 0.0153659 
-0.108189 -0.159919 0.0104527 -0.123138 -0.151441 0.0199735 -0.110813 -0.162859 0.0186619 
-0.107905 -0.168218 0.0176721 -0.134732 -0.173936 0.0039199 -0.130394 -0.162645 0.0163227 
-0.13775 -0.172347 0.00423909 -0.111221 -0.17033 0.00602269 -0.133636 -0.148235 0.0058767 
-0.121274 -0.172406 0.00403228 -0.152392 -0.149472 0.00936071 -0.110614 -0.161745 0.00580508 
-0.141874 -0.16922 0.00484562 -0.121989 -0.17261 0.00748521 -0.147451 -0.163413 0.00594705 
-0.126881 -0.144482 0.0142968 -0.138137 -0.158454 0.00497943 -0.122748 -0.169425 0.00284063 
-0.120167 -0.167216 0.0162563 -0.119518 -0.163324 0.00301936 -0.146329 -0.155737 0.0151333 
-0.150415 -0.159939 0.00660153 -0.108068 -0.156299 0.0119665 -0.129945 -0.144928 0.015124 
-0.14158 -0.172246 0.00430277 -0.137599 -0.147513 0.0199757 -0.046918 -0.126733 0.0112557 
-0.0570533 -0.124372 0.0122756 -0.0669444 -0.124013 0.0138788 -0.0533806 -0.135124 0.0103425 
-0.0397595 -0.134395 0.0109106 -0.0619597 -0.133402 0.0110368 -0.0728732 -0.130722 0.0122194 
-0.0455311 -0.137316 0.00708214 -0.0758565 -0.123078 0.0145263 -0.0506592 -0.116981 0.0148214 
-0.0591087 -0.14094 0.00789025 -0.0688908 -0.136002 0.0100531 -0.0554648 -0.117065 0.0190633 
-0.0537943 -0.143068 0.00591114 -0.0615976 -0.118195 0.0190129 -0.0650205 -0.139387 0.00814308 
-0.0460494 -0.139313 0.0130292 -0.0728206 -0.120987 0.0204288 -0.0468963 -0.116366 0.00906293 
-0.0793624 -0.127957 0.0118422 -0.0514247 -0.118925 0.00595828 -0.0579258 -0.145944 0.00532562 
-0.0425059 -0.132804 0.00367865 -0.0324518 -0.133901 0.0133173 -0.0367141 -0.128094 0.00860321 
-0.0511977 -0.120767 0.0196725 -0.0379467 -0.130877 0.0171855 -0.0346102 -0.135944 0.0160216 
-0.0621493 -0.145136 0.00609266 -0.0575684 -0.132842 0.0174067 -0.0652616 -0.143859 0.00674374 
-0.0391057 -0.138976 0.0049871 -0.0636701 -0.119397 0.00695364 -0.049037 -0.142195 0.00439802 
-0.0815879 -0.122421 0.0128901 -0.0394855 -0.130397 0.00438011 -0.0695972 -0.141156 0.00776718 
-0.0492861 -0.142299 0.00791967 -0.075601 -0.13592 0.00937256 -0.0563704 -0.114535 0.0142814 
-0.0670888 -0.130064 0.00702194 -0.0509698 -0.13945 0.00330054 -0.0469879 -0.13631 0.0161772 
-0.048438 -0.133041 0.00283538 -0.074193 -0.127716 0.0180493 -0.0788254 -0.132748 0.01028 
-0.036806 -0.12441 0.0099557 -0.0592384 -0.115259 0.0155158 -0.06904 -0.144158 0.00730117 
-0.0658896 -0.118386 0.0214125 
VERTICES 100 200
1 0 
1 1 
1 2 
1 3 
1 4 
1 5 
1 6 
1 7 
1 8 
1 9 
1 10 
1 11 
1 12 
1 13 
1 14 
1 15 
1 16 
1 17 
1 18 
1 19 
1 20 
1 21 
1 22 
1 23 
1 24 
1 25 
1 26 
1 27 
1 28 
1 29 
1 30 
1 31 
1 32 
1 33 
1 34 
1 35 
1 36 
1 37 
1 38 
1 39 
1 40 
1 41 
1 42 
1 43 
1 44 
1 45 
1 46 
1 47 
1 48 
1 49 
1 50 
1 51 
1 52 
1 53 
1 54 
1 55 
1 56 
1 57 
1 58 
1 59 
1 60 
1 61 
1 62 
1 63 
1 64 
1 65 
1 66 
1 67 
1 68 
1 69 
1 70 
1 71 
1 72 
1 73 
1 74 
1 75 
1 76 
1 77 
1 78 
1 79 
1 80 
1 81 
1 82 
1 83 
1 84 
1 85 
1 86 
1 87 
1 88 
1 89 
1 90 
1 91 
1 92 
1 93 
1 94 
1 95 
1 96 
1 97 
1 98 
1 99 

POINT_DATA 100
FIELD FieldData 7
id 1 100 int
1 2 3 4 5 6 7 8 9 
10 11 12 13 14 15 16 17 18 
19 20 21 22 23 24 25 26 27 
28 29 30 31 32 33 34 35 36 
37 38 39 40 41 42 43 44 45 
46 47 48 49 50 51 52 53 54 
55 56 57 58 59 60 61 62 63 
64 65 66 67 68 69 70 71 72 
73 74 75 76 77 78 79 80 81 
82 83 84 85 86 87 88 89 90 
91 92 93 94 95 96 97 98 99 
100 
mol 1 100 int
1 1 1 1 1 1 1 1 1 
1 1 1 1 1 1 1 1 1 
1 1 1 1 1 1 1 1 1 
1 1 1 1 1 1 1 1 1 
1 1 1 1 1 1 1 1 1 
1 1 1 1 1 2 2 2 2 
2 2 2 2 2 2 2 2 2 
2 2 2 2 2 2 2 2 2 
2 2 2 2 2 2 2 2 2 
2 2 2 2 2 2 2 2 2 
2 2 2 2 2 2 2 2 2 
2 
type 1 100 int
1 1 1 1 1 1 1 1 1 
1 1 1 1 1 1 1 1 1 
1 1 1 1 1 1 1 1 1 
1 1 1 1 1 1 1 1 1 
1 1 1 1 1 1 1 1 1 
1 1 1 1 1 1 1 1 1 
1 1 1 1 1 1 1 1 1 
1 1 1 1 1 1 1 1 1 
1 1 1 1 1 1 1 1 1 
1 1 1 1 1 1 1 1 1 
1 1 1 1 1 1 1 1 1 
1 
v 3 100 double
-0.128014 -0.159344 0.145335 -0.126648 -0.158511 0.0699575 -0.130821 -0.162826 -0.0265482 
-0.103731 -0.138128 -0.0110586 -0.129403 -0.160687 0.130544 -0.100536 -0.135586 -0.0776569 
-0.100083 -0.135606 -0.157425 -0.0772767 -0.113772 0.0477178 -0.126157 -0.159015 -0.105198 
-0.168248 -0.195544 0.211477 -0.0650686 -0.103635 -0.128474 -0.0784163 -0.116007 -0.173494 
-0.208364 -0.232298 0.155388 -0.0492795 -0.0891139 -0.0963317 -0.198576 -0.223801 0.0822452 
-0.0606021 -0.0998005 -0.169848 -0.141003 -0.171884 0.0093495 -0.196873 -0.223038 -0.06247 
-0.11026 -0.142558 0.265997 -0.0886062 -0.125354 -0.189727 -0.0680819 -0.104602 0.198204 
-0.0352808 -0.0767848 -0.168355 -0.0466928 -0.0855125 0.134458 -0.166457 -0.193958 0.203845 
-0.112065 -0.144363 0.235588 -0.21873 -0.24172 0.154802 -0.203416 -0.227687 0.176544 
-0.192056 -0.217484 0.154674 -0.0383802 -0.0797853 -0.202359 -0.177348 -0.205173 -0.0396116 
-0.0420351 -0.0832014 -0.21992 -0.0620432 -0.0996672 0.0963029 -0.061751 -0.099543 0.0702239 
-0.0397258 -0.0801105 -0.0368107 -0.100521 -0.135972 -0.151415 -0.0601359 -0.097426 0.190039 
-0.0489867 -0.0895952 -0.23421 -0.0782119 -0.115134 -0.0468433 -0.0616181 -0.101091 -0.237564 
-0.155858 -0.184437 0.183566 -0.0511292 -0.090725 -0.0834821 -0.0266195 -0.0681272 -0.0230545 
-0.176332 -0.203882 0.0281044 -0.028981 -0.0697425 0.0747782 -0.164504 -0.194086 -0.147291 
-0.0691251 -0.1079 -0.23541 -0.129162 -0.159692 0.273608 -0.165054 -0.193002 0.144879 
-0.0427512 -0.0840779 -0.261588 -0.218992 -0.242616 0.0333668 -0.0884142 -0.179359 0.100091 
-0.0950083 -0.188027 0.0546236 -0.107668 -0.205789 -0.0194989 -0.086809 -0.160958 -0.0803516 
-0.0908835 -0.178981 0.0404578 -0.0912193 -0.165708 -0.123063 -0.098905 -0.176334 -0.169909 
-0.0620637 -0.116437 -0.0507162 -0.112241 -0.209595 -0.0769467 -0.110442 -0.231368 0.219219 
-0.0710506 -0.119506 -0.215471 -0.0850808 -0.145906 -0.218657 -0.144647 -0.292995 0.179251 
-0.0565757 -0.0928564 -0.205265 -0.145016 -0.288025 0.112578 -0.0720229 -0.119326 -0.239307 
-0.111308 -0.207097 -0.0854523 -0.158327 -0.302008 -0.0204958 -0.0636622 -0.145816 0.258916 
-0.093974 -0.166116 -0.179831 -0.0404206 -0.0952007 0.183306 -0.0538316 -0.081066 -0.282538 
-0.031574 -0.0664207 0.0426907 -0.109921 -0.220819 0.106845 -0.0679929 -0.145754 0.161407 
-0.152088 -0.305241 0.156937 -0.13899 -0.276254 0.108889 -0.13309 -0.260727 0.0582085 
-0.0594531 -0.0899125 -0.304171 -0.142116 -0.266202 -0.0791469 -0.0638201 -0.0977452 -0.309686 
-0.0463345 -0.0887742 -0.0243931 -0.0487568 -0.102048 0.0775047 -0.0437963 -0.0729573 -0.153601 
-0.0986196 -0.18063 -0.113034 -0.0355725 -0.0792247 0.103847 -0.0702081 -0.110439 -0.303221 
-0.0722183 -0.126683 -0.157198 -0.0795459 -0.130896 -0.271415 -0.104418 -0.219192 0.210676 
-0.0566121 -0.100752 -0.113269 -0.0330813 -0.0548377 -0.127151 -0.134593 -0.254631 -0.0470385 
-0.0249476 -0.0494526 -0.00868903 -0.143779 -0.264651 -0.134536 -0.0846794 -0.142576 -0.248833 
-0.076358 -0.16639 0.217049 -0.114852 -0.23612 0.176508 -0.0685125 -0.103689 -0.344679 
-0.164465 -0.321809 0.0750977 
f 3 100 double
0 0 0 0 0 0 0 0 0 
0 0 0 0 0 0 0 0 0 
0 0 0 0 0 0 0 0 0 
0 0 0 0 0 0 0 0 0 
0 0 0 0 0 0 0 0 0 
0 0 0 0 0 0 0 0 0 
0 0 0 0 0 0 0 0 0 
-0.0405837 0.285075 1.44224 0 0 0 0 0 0 
0 0 0 0 0 0 0 0 0 
0 0 0 0 0 0 0 0 0 
0 0 0 0 0 0 0 0 0 
0 0 0 0 0 0 0 0 0 
0 0 0 0 0 0 0 0 0 
0 0 0 0 0 0 -0.0927974 0.647183 1.13663 
0 0 0 0 0 0 0 0 0 
0 0 0 0 0 0 0 0 0 
0 0 0 0 0 0 0 0 0 
0 0 0 0 0 0 0 0 0 
0 0 0 0 0 0 0 0 0 
0 0 0 0 0 0 0 0 0 
0 0 0 0 0 0 0 0 0 
0 0 0 0 0 0 0 0 0 
0 0 0 0 0 0 0 0 0 
0 0 0 0 0 0 0 0 0 
0 0 0 0 0 0 0 0 0 
0 0 0 0 0 0 0 0 0 
0 0 0 0 0 0 0 0 0 
0 0 0 0 0 0 0 0 0 
0 0 0 0 0 0 0 0 0 
0 0 0 0 0 0 0 0 0 
0 0 0 0 0 0 0 0 0 
-0.190771 0.108752 0.670114 0 0 0 0 0 0 
0 0 0 0 0 0 0 0 0 
0 0 0 
radius 1 100 double
0.010434 0.00981478 0.00892069 0.00845937 0.00731974 0.00728422 0.00643447 0.00619172 0.00585956 
0.00577566 0.00537241 0.00522549 0.00513666 0.00473175 0.00466912 0.00444866 0.00441894 0.00400812 
0.00385622 0.00379948 0.00370243 0.00366942 0.00364039 0.00363813 0.00363644 0.00358692 0.0035797 
0.00341284 0.00337012 0.00336273 0.00332772 0.00323261 0.00320584 0.00320311 0.00318808 0.00313116 
0.00306026 0.00305632 0.00304383 0.00300958 0.00300137 0.00298994 0.0029567 0.00295111 0.00290849 
0.00284552 0.00282964 0.0028207 0.00281971 0.00281899 0.010434 0.00981478 0.00892069 0.00845937 
0.00731974 0.00728422 0.00643447 0.00619172 0.00585956 0.00577566 0.00537241 0.00522549 0.00513666 
0.00473175 0.00466912 0.00444866 0.00441894 0.00400812 0.00385622 0.00379948 0.00370243 0.00366942 
0.00364039 0.00363813 0.00363644 0.00358692 0.0035797 0.00341284 0.00337012 0.00336273 0.00332772 
0.00323261 0.00320584 0.00320311 0.00318808 0.00313116 0.00306026 0.00305632 0.00304383 0.00300958 
0.00300137 0.00298994 0.0029567 0.00295111 0.00290849 0.00284552 0.00282964 0.0028207 0.00281971 
0.00281899 
omega 3 100 double
10.1308 -11.1495 0.0604399 10.1308 -11.1495 0.0604399 10.1308 -11.1495 0.0604399 
10.1308 -11.1495 0.0604399 10.1308 -11.1495 0.0604399 10.1308 -11.1495 0.0604399 
10.1308 -11.1495 0.0604399 10.1308 -11.1495 0.0604399 10.1308 -11.1495 0.0604399 
10.1308 -11.1495 0.0604399 10.1308 -11.1495 0.0604399 10.1308 -11.1495 0.0604399 
10.1308 -11.1495 0.0604399 10.1308 -11.1495 0.0604399 10.1308 -11.1495 0.0604399 
10.1308 -11.1495 0.0604399 10.1308 -11.1495 0.0604399 10.1308 -11.1495 0.0604399 
10.1308 -11.1495 0.0604399 10.1308 -11.1495 0.0604399 10.1308 -11.1495 0.0604399 
10.1308 -11.1495 0.0604399 10.1308 -11.1495 0.0604399 10.1308 -11.1495 0.0604399 
10.1308 -11.1495 0.0604399 10.1308 -11.1495 0.0604399 10.1308 -11.1495 0.0604399 
10.1308 -11.1495 0.0604399 10.1308 -11.1495 0.0604399 10.1308 -11.1495 0.0604399 
10.1308 -11.1495 0.0604399 10.1308 -11.1495 0.0604399 10.1308 -11.1495 0.0604399 
10.1308 -11.1495 0.0604399 10.1308 -11.1495 0.0604399 10.1308 -11.1495 0.0604399 
10.1308 -11.1495 0.0604399 10.1308 -11.1495 0.0604399 10.1308 -11.1495 0.0604399 
10.1308 -11.1495 0.0604399 10.1308 -11.1495 0.0604399 10.1308 -11.1495 0.0604399 
10.1308 -11.1495 0.0604399 10.1308 -11.1495 0.0604399 10.1308 -11.1495 0.0604399 
10.1308 -11.1495 0.0604399 10.1308 -11.1495 0.0604399 10.1308 -11.1495 0.0604399 
10.1308 -11.1495 0.0604399 10.1308 -11.1495 0.0604399 15.3042 -8.05042 -0.68485 
15.3042 -8.05042 -0.68485 15.3042 -8.05042 -0.68485 15.3042 -8.05042 -0.68485 
15.3042 -8.05042 -0.68485 15.3042 -8.05042 -0.68485 15.3042 -8.05042 -0.68485 
15.3042 -8.05042 -0.68485 15.3042 -8.05042 -0.68485 15.3042 -8.05042 -0.68485 
15.3042 -8.05042 -0.68485 15.3042 -8.05042 -0.68485 15.3042 -8.05042 -0.68485 
15.3042 -8.05042 -0.68485 15.3042 -8.05042 -0.68485 15.3042 -8.05042 -0.68485 
15.3042 -8.05042 -0.68485 15.3042 -8.05042 -0.68485 15.3042 -8.05042 -0.68485 
15.3042 -8.05042 -0.68485 15.3042 -8.05042 -0.68485 15.3042 -8.05042 -0.68485 
15.3042 -8.05042 -0.68485 15.3042 -8.05042 -0.68485 15.3042 -8.05042 -0.68485 
15.3042 -8.05042 -0.68485 15.3042 -8.05042 -0.68485 15.3042 -8.05042 -0.68485 
15.3042 -8.05042 -0.68485 15.3042 -8.05042 -0.68485 15.3042 -8.05042 -0.68485 
15.3042 -8.05042 -0.68485 15.3042 -8.05042 -0.68485 15.3042 -8.05042 -0.68485 
15.3042 -8.05042 -0.68485 15.3042 -8.05042 -0.68485 15.3042 -8.05042 -0.68485 
15.3042 -8.05042 -0.68485 15.3042 -8.05042 -0.68485 15.3042 -8.05042 -0.68485 
15.3042 -8.05042 -0.68485 15.3042 -8.05042 -0.68485 15.3042 -8.05042 -0.68485 
15.3042 -8.05042 -0.68485 15.3042 -8.05042 -0.68485 15.3042 -8.05042 -0.68485 
15.3042 -8.05042 -0.68485 15.3042 -8.05042 -0.68485 15.3042 -8.05042 -0.68485 
15.3042 -8.05042 -0.68485 
