# vtk DataFile Version 4.0
Generated by LIGGGHTS
ASCII
DATASET POLYDATA
POINTS 100 float
-0.116941 -0.154172 0.0108283 -0.126817 -0.150746 0.0111 -0.136617 -0.149116 0.0124549 
-0.124125 -0.161912 0.012049 -0.110487 -0.162262 0.0125483 -0.132511 -0.159321 0.0121872 
-0.143132 -0.155477 0.0125257 -0.116541 -0.165554 0.00954639 -0.145404 -0.147266 0.012748 
-0.119767 -0.14354 0.011714 -0.130372 -0.167636 0.0111251 -0.139655 -0.161467 0.0118384 
-0.124507 -0.142102 0.0157841 -0.125291 -0.170663 0.00981766 -0.130715 -0.142663 0.0159652 
-0.136121 -0.165558 0.0109078 -0.117155 -0.165893 0.015802 -0.14212 -0.143995 0.01794 
-0.11604 -0.144767 0.00603099 -0.149358 -0.152344 0.0113804 -0.120815 -0.147632 0.00364711 
-0.129665 -0.173217 0.00995327 -0.113176 -0.162358 0.00512336 -0.103133 -0.161808 0.01482 
-0.106931 -0.157064 0.00872187 -0.120573 -0.145882 0.0173731 -0.108292 -0.157416 0.0177188 
-0.105427 -0.162884 0.0179381 -0.133792 -0.17187 0.0104423 -0.128006 -0.157523 0.0182404 
-0.136771 -0.1702 0.0107094 -0.110313 -0.168257 0.00801719 -0.133041 -0.146752 0.00460571 
-0.120495 -0.170632 0.00817879 -0.151076 -0.146552 0.0109393 -0.109948 -0.160127 0.00520955 
-0.14084 -0.166954 0.0109552 -0.120707 -0.1698 0.0116049 -0.146341 -0.160973 0.0110913 
-0.125249 -0.140824 0.0105019 -0.137379 -0.156696 0.00739394 -0.122194 -0.168105 0.00638948 
-0.117786 -0.162107 0.0180569 -0.119117 -0.162282 0.00430953 -0.144107 -0.150964 0.0173668 
-0.149263 -0.157404 0.0111153 -0.106682 -0.153162 0.0090752 -0.128153 -0.140949 0.0118522 
-0.140554 -0.170011 0.0112867 -0.134976 -0.141849 0.0182888 -0.0462919 -0.123433 0.010669 
-0.0563794 -0.120895 0.0117361 -0.0661268 -0.120087 0.0139423 -0.0525828 -0.131719 0.0128538 
-0.0389816 -0.130825 0.0120828 -0.061127 -0.129885 0.01368 -0.0719862 -0.126995 0.0148676 
-0.0449479 -0.134781 0.00979075 -0.0749858 -0.119018 0.0149886 -0.050007 -0.113067 0.0114096 
-0.0583256 -0.138017 0.01274 -0.0680421 -0.132676 0.014086 -0.0544739 -0.11187 0.015849 
-0.0531222 -0.140634 0.0110776 -0.0605613 -0.112975 0.0166337 -0.06424 -0.136473 0.0129845 
-0.044962 -0.134882 0.0160848 -0.0715679 -0.115229 0.0197206 -0.0467081 -0.11422 0.0054526 
-0.0785557 -0.124488 0.0141934 -0.0513897 -0.117608 0.00363893 -0.0572093 -0.143561 0.011721 
-0.0423082 -0.131507 0.00495245 -0.0315282 -0.129609 0.0136347 -0.0362859 -0.125514 0.00774359 
-0.0500774 -0.115205 0.0172046 -0.0367921 -0.125566 0.0168354 -0.0334215 -0.13074 0.0169934 
-0.0613824 -0.142567 0.0125436 -0.0562825 -0.127412 0.0192102 -0.064469 -0.141159 0.0130255 
-0.038658 -0.136985 0.00778769 -0.0635081 -0.117781 0.00570737 -0.0485177 -0.140251 0.00899556 
-0.0808398 -0.1189 0.0136948 -0.0393075 -0.128995 0.00464973 -0.0687841 -0.138282 0.0135282 
-0.0484968 -0.139283 0.0123922 -0.0747844 -0.132817 0.013952 -0.0558048 -0.110912 0.0106148 
-0.066631 -0.127932 0.00926853 -0.0505993 -0.137972 0.00727854 -0.0457381 -0.131067 0.0182427 
-0.0482789 -0.132001 0.00469791 -0.0729394 -0.122366 0.0196031 -0.078013 -0.129526 0.014114 
-0.0363717 -0.121593 0.00792273 -0.0585513 -0.111233 0.0122358 -0.0681852 -0.141282 0.0139479 
-0.0646528 -0.112439 0.0193145 
VERTICES 100 200
1 0 
1 1 
1 2 
1 3 
1 4 
1 5 
1 6 
1 7 
1 8 
1 9 
1 10 
1 11 
1 12 
1 13 
1 14 
1 15 
1 16 
1 17 
1 18 
1 19 
1 20 
1 21 
1 22 
1 23 
1 24 
1 25 
1 26 
1 27 
1 28 
1 29 
1 30 
1 31 
1 32 
1 33 
1 34 
1 35 
1 36 
1 37 
1 38 
1 39 
1 40 
1 41 
1 42 
1 43 
1 44 
1 45 
1 46 
1 47 
1 48 
1 49 
1 50 
1 51 
1 52 
1 53 
1 54 
1 55 
1 56 
1 57 
1 58 
1 59 
1 60 
1 61 
1 62 
1 63 
1 64 
1 65 
1 66 
1 67 
1 68 
1 69 
1 70 
1 71 
1 72 
1 73 
1 74 
1 75 
1 76 
1 77 
1 78 
1 79 
1 80 
1 81 
1 82 
1 83 
1 84 
1 85 
1 86 
1 87 
1 88 
1 89 
1 90 
1 91 
1 92 
1 93 
1 94 
1 95 
1 96 
1 97 
1 98 
1 99 

POINT_DATA 100
FIELD FieldData 7
id 1 100 int
1 2 3 4 5 6 7 8 9 
10 11 12 13 14 15 16 17 18 
19 20 21 22 23 24 25 26 27 
28 29 30 31 32 33 34 35 36 
37 38 39 40 41 42 43 44 45 
46 47 48 49 50 51 52 53 54 
55 56 57 58 59 60 61 62 63 
64 65 66 67 68 69 70 71 72 
73 74 75 76 77 78 79 80 81 
82 83 84 85 86 87 88 89 90 
91 92 93 94 95 96 97 98 99 
100 
mol 1 100 int
1 1 1 1 1 1 1 1 1 
1 1 1 1 1 1 1 1 1 
1 1 1 1 1 1 1 1 1 
1 1 1 1 1 1 1 1 1 
1 1 1 1 1 1 1 1 1 
1 1 1 1 1 2 2 2 2 
2 2 2 2 2 2 2 2 2 
2 2 2 2 2 2 2 2 2 
2 2 2 2 2 2 2 2 2 
2 2 2 2 2 2 2 2 2 
2 2 2 2 2 2 2 2 2 
2 
type 1 100 int
1 1 1 1 1 1 1 1 1 
1 1 1 1 1 1 1 1 1 
1 1 1 1 1 1 1 1 1 
1 1 1 1 1 1 1 1 1 
1 1 1 1 1 1 1 1 1 
1 1 1 1 1 1 1 1 1 
1 1 1 1 1 1 1 1 1 
1 1 1 1 1 1 1 1 1 
1 1 1 1 1 1 1 1 1 
1 1 1 1 1 1 1 1 1 
1 1 1 1 1 1 1 1 1 
1 
v 3 100 double
-0.0278293 -0.205602 -0.112413 -0.0250962 -0.201221 -0.0683298 -0.0262017 -0.216977 -0.057367 
-0.0376061 -0.221369 -0.269914 -0.0389202 -0.243624 -0.249625 -0.0354071 -0.215933 -0.238381 
-0.0324069 -0.212078 -0.188023 -0.0361654 -0.182234 -0.3225 -0.0250132 -0.21403 -0.0403427 
-0.0194305 -0.219317 0.0790184 -0.0412506 -0.198294 -0.38824 -0.0367686 -0.202658 -0.292167 
-0.0260502 -0.290206 0.096356 -0.0415697 -0.178917 -0.434336 -0.0269406 -0.28764 0.073772 
-0.038842 -0.188787 -0.361015 -0.0487706 -0.297546 -0.329993 -0.0320887 -0.313353 0.0266885 
-0.00944332 -0.117582 0.0635957 -0.0271704 -0.184922 -0.142192 -0.00749494 -0.0688633 0.00113949 
-0.0442717 -0.177258 -0.490254 -0.0244348 -0.103497 -0.256694 -0.0429473 -0.292723 -0.226776 
-0.0264515 -0.176122 -0.146342 -0.0327742 -0.323395 0.0340474 -0.044451 -0.341511 -0.155535 
-0.0500958 -0.348306 -0.251225 -0.0439472 -0.182384 -0.473396 -0.0455773 -0.332377 -0.196228 
-0.0428791 -0.184492 -0.448301 -0.0357408 -0.159841 -0.360359 -0.00853754 -0.0749658 -0.00655313 
-0.0383226 -0.153127 -0.424349 -0.020782 -0.175112 -0.0382632 -0.0224763 -0.108172 -0.209014 
-0.0402664 -0.185166 -0.396146 -0.0442562 -0.216401 -0.409357 -0.0348311 -0.182443 -0.296146 
-0.0144609 -0.191633 0.118576 -0.0234933 -0.122486 -0.199302 -0.0323999 -0.118356 -0.380862 
-0.0495881 -0.338721 -0.261098 -0.0227644 -0.0827549 -0.266946 -0.0376077 -0.300839 -0.106314 
-0.0314748 -0.1801 -0.235754 -0.0234249 -0.182905 -0.0735676 -0.0172314 -0.213881 0.110553 
-0.0438324 -0.19158 -0.45223 -0.0307271 -0.326627 0.0804753 0.0102985 -0.179018 -0.101333 
0.0154975 -0.18268 -0.0434799 0.0203152 -0.205091 -0.0139795 0.00292732 -0.205706 -0.22377 
0.00281665 -0.211496 -0.23244 0.00677746 -0.20756 -0.179839 0.0126509 -0.212125 -0.115025 
-0.00635294 -0.166708 -0.285885 0.0235154 -0.21006 0.0181891 0.0254052 -0.18595 0.0714704 
-0.00568027 -0.196204 -0.315192 0.00373664 -0.204841 -0.212945 0.0345245 -0.251289 0.0982584 
-0.0119942 -0.176455 -0.366052 0.0343771 -0.255759 0.0908208 -0.00320312 -0.192229 -0.280375 
0.00417427 -0.267787 -0.28748 0.0365945 -0.290634 0.073263 0.0137738 -0.0946742 0.0473645 
0.0148592 -0.192517 -0.0636227 0.00617331 -0.0592863 0.000864068 -0.0148148 -0.181328 -0.406135 
-0.0101743 -0.0925201 -0.237773 0.00706956 -0.246383 -0.225544 0.00256308 -0.1454 -0.151698 
0.0323647 -0.278938 0.0372456 0.0178945 -0.290762 -0.151681 0.011248 -0.297802 -0.240501 
-0.012093 -0.188965 -0.383099 0.0194511 -0.302862 -0.14831 -0.00939553 -0.192582 -0.355258 
-0.0126911 -0.142939 -0.33194 0.00944623 -0.0763173 0.0186161 -0.0150091 -0.149165 -0.367697 
0.0214815 -0.181457 0.0300017 -0.0073294 -0.0916672 -0.202494 -0.00469921 -0.19489 -0.301733 
-0.00796148 -0.203751 -0.352179 0.00332036 -0.193678 -0.203797 0.0269392 -0.165437 0.115913 
0.00191408 -0.129345 -0.139147 -0.0148723 -0.118804 -0.327565 0.0129275 -0.301412 -0.224888 
-0.011265 -0.0804531 -0.235585 0.0268584 -0.286915 -0.0390547 0.00799232 -0.191966 -0.145468 
0.00810535 -0.148163 -0.08858 0.0292555 -0.187804 0.115403 -0.00799826 -0.202431 -0.350948 
0.0396352 -0.293352 0.106369 
f 3 100 double
0 0 0 0 0 0 0 0 0 
0 0 0 0 0 0 0 0 0 
0 0 0 0 0 0 0 0 0 
0 0 0 0 0 0 0 0 0 
0 0 0 0 0 0 0 0 0 
0 0 0 0 0 0 0 0 0 
0 0 0 0 0 0 -0.0508666 -0.0301656 0.197108 
0 0 0 0 0 0 0 0 0 
0 0 0 0 0 0 0 0 0 
0 0 0 0 0 0 0 0 0 
0 0 0 0 0 0 0 0 0 
0 0 0 0 0 0 0 0 0 
0 0 0 0 0 0 0 0 0 
0 0 0 0 0 0 0 0 0 
0 0 0 0 0 0 0 0 0 
0 0 0 0 0 0 0 0 0 
0 0 0 0 0 0 0 0 0 
0 0 0 0 0 0 0 0 0 
0 0 0 0 0 0 0 0 0 
0 0 0 0 0 0 0 0 0 
0 0 0 0 0 0 0 0 0 
0 0 0 0 0 0 0 0 0 
0 0 0 0 0 0 0 0 0 
0 0 0 -0.055887 -0.066197 0.247815 0 0 0 
0 0 0 0 0 0 0 0 0 
0 0 0 0 0 0 0 0 0 
0 0 0 0 0 0 0 0 0 
0 0 0 0 0 0 0 0 0 
0 0 0 0 0 0 0 0 0 
0 0 0 0 0 0 0 0 0 
0 0 0 0 0 0 0 0 0 
0 0 0 0 0 0 0 0 0 
0 0 0 0 0 0 0 0 0 
0 0 0 
radius 1 100 double
0.010434 0.00981478 0.00892069 0.00845937 0.00731974 0.00728422 0.00643447 0.00619172 0.00585956 
0.00577566 0.00537241 0.00522549 0.00513666 0.00473175 0.00466912 0.00444866 0.00441894 0.00400812 
0.00385622 0.00379948 0.00370243 0.00366942 0.00364039 0.00363813 0.00363644 0.00358692 0.0035797 
0.00341284 0.00337012 0.00336273 0.00332772 0.00323261 0.00320584 0.00320311 0.00318808 0.00313116 
0.00306026 0.00305632 0.00304383 0.00300958 0.00300137 0.00298994 0.0029567 0.00295111 0.00290849 
0.00284552 0.00282964 0.0028207 0.00281971 0.00281899 0.010434 0.00981478 0.00892069 0.00845937 
0.00731974 0.00728422 0.00643447 0.00619172 0.00585956 0.00577566 0.00537241 0.00522549 0.00513666 
0.00473175 0.00466912 0.00444866 0.00441894 0.00400812 0.00385622 0.00379948 0.00370243 0.00366942 
0.00364039 0.00363813 0.00363644 0.00358692 0.0035797 0.00341284 0.00337012 0.00336273 0.00332772 
0.00323261 0.00320584 0.00320311 0.00318808 0.00313116 0.00306026 0.00305632 0.00304383 0.00300958 
0.00300137 0.00298994 0.0029567 0.00295111 0.00290849 0.00284552 0.00282964 0.0028207 0.00281971 
0.00281899 
omega 3 100 double
18.527 -1.96331 -0.953513 18.527 -1.96331 -0.953513 18.527 -1.96331 -0.953513 
18.527 -1.96331 -0.953513 18.527 -1.96331 -0.953513 18.527 -1.96331 -0.953513 
18.527 -1.96331 -0.953513 18.527 -1.96331 -0.953513 18.527 -1.96331 -0.953513 
18.527 -1.96331 -0.953513 18.527 -1.96331 -0.953513 18.527 -1.96331 -0.953513 
18.527 -1.96331 -0.953513 18.527 -1.96331 -0.953513 18.527 -1.96331 -0.953513 
18.527 -1.96331 -0.953513 18.527 -1.96331 -0.953513 18.527 -1.96331 -0.953513 
18.527 -1.96331 -0.953513 18.527 -1.96331 -0.953513 18.527 -1.96331 -0.953513 
18.527 -1.96331 -0.953513 18.527 -1.96331 -0.953513 18.527 -1.96331 -0.953513 
18.527 -1.96331 -0.953513 18.527 -1.96331 -0.953513 18.527 -1.96331 -0.953513 
18.527 -1.96331 -0.953513 18.527 -1.96331 -0.953513 18.527 -1.96331 -0.953513 
18.527 -1.96331 -0.953513 18.527 -1.96331 -0.953513 18.527 -1.96331 -0.953513 
18.527 -1.96331 -0.953513 18.527 -1.96331 -0.953513 18.527 -1.96331 -0.953513 
18.527 -1.96331 -0.953513 18.527 -1.96331 -0.953513 18.527 -1.96331 -0.953513 
18.527 -1.96331 -0.953513 18.527 -1.96331 -0.953513 18.527 -1.96331 -0.953513 
18.527 -1.96331 -0.953513 18.527 -1.96331 -0.953513 18.527 -1.96331 -0.953513 
18.527 -1.96331 -0.953513 18.527 -1.96331 -0.953513 18.527 -1.96331 -0.953513 
18.527 -1.96331 -0.953513 18.527 -1.96331 -0.953513 16.0625 1.69397 -1.33626 
16.0625 1.69397 -1.33626 16.0625 1.69397 -1.33626 16.0625 1.69397 -1.33626 
16.0625 1.69397 -1.33626 16.0625 1.69397 -1.33626 16.0625 1.69397 -1.33626 
16.0625 1.69397 -1.33626 16.0625 1.69397 -1.33626 16.0625 1.69397 -1.33626 
16.0625 1.69397 -1.33626 16.0625 1.69397 -1.33626 16.0625 1.69397 -1.33626 
16.0625 1.69397 -1.33626 16.0625 1.69397 -1.33626 16.0625 1.69397 -1.33626 
16.0625 1.69397 -1.33626 16.0625 1.69397 -1.33626 16.0625 1.69397 -1.33626 
16.0625 1.69397 -1.33626 16.0625 1.69397 -1.33626 16.0625 1.69397 -1.33626 
16.0625 1.69397 -1.33626 16.0625 1.69397 -1.33626 16.0625 1.69397 -1.33626 
16.0625 1.69397 -1.33626 16.0625 1.69397 -1.33626 16.0625 1.69397 -1.33626 
16.0625 1.69397 -1.33626 16.0625 1.69397 -1.33626 16.0625 1.69397 -1.33626 
16.0625 1.69397 -1.33626 16.0625 1.69397 -1.33626 16.0625 1.69397 -1.33626 
16.0625 1.69397 -1.33626 16.0625 1.69397 -1.33626 16.0625 1.69397 -1.33626 
16.0625 1.69397 -1.33626 16.0625 1.69397 -1.33626 16.0625 1.69397 -1.33626 
16.0625 1.69397 -1.33626 16.0625 1.69397 -1.33626 16.0625 1.69397 -1.33626 
16.0625 1.69397 -1.33626 16.0625 1.69397 -1.33626 16.0625 1.69397 -1.33626 
16.0625 1.69397 -1.33626 16.0625 1.69397 -1.33626 16.0625 1.69397 -1.33626 
16.0625 1.69397 -1.33626 
