# vtk DataFile Version 4.0
Generated by LIGGGHTS
ASCII
DATASET POLYDATA
POINTS 100 float
-0.117419 -0.133719 0.0179695 -0.126845 -0.134643 0.0135384 -0.136566 -0.135014 0.0111098 
-0.125155 -0.136169 0.024836 -0.112072 -0.132898 0.0269586 -0.133157 -0.137126 0.0213567 
-0.143295 -0.138034 0.0164497 -0.117436 -0.137886 0.0286459 -0.145039 -0.136109 0.0083319 
-0.119706 -0.130639 0.00762066 -0.131349 -0.139896 0.0293508 -0.140135 -0.139545 0.022463 
-0.125176 -0.127436 0.00666299 -0.126302 -0.140857 0.0325582 -0.131273 -0.128734 0.00649005 
-0.136743 -0.140765 0.0265976 -0.119534 -0.132228 0.0304384 -0.142881 -0.129656 0.00686737 
-0.114823 -0.135518 0.00785514 -0.148865 -0.139593 0.0123955 -0.119066 -0.139539 0.00944033 
-0.130734 -0.142342 0.0345144 -0.112927 -0.140473 0.0248941 -0.105452 -0.12908 0.0279784 
-0.107394 -0.134347 0.0214517 -0.121973 -0.126119 0.0111685 -0.110866 -0.126275 0.0238409 
-0.108481 -0.126925 0.029502 -0.134767 -0.142398 0.0328365 -0.13011 -0.129999 0.0216689 
-0.137615 -0.142332 0.030933 -0.111204 -0.138724 0.0316277 -0.131092 -0.140998 0.00733938 
-0.121262 -0.14137 0.0327095 -0.150066 -0.138822 0.00650877 -0.109678 -0.139109 0.0231636 
-0.141416 -0.142096 0.0273763 -0.122227 -0.137973 0.0327281 -0.146409 -0.141535 0.0209891 
-0.124565 -0.132215 0.0040423 -0.136579 -0.141962 0.0170581 -0.122328 -0.142736 0.0296316 
-0.120444 -0.129229 0.0272774 -0.118489 -0.142478 0.0238961 -0.145106 -0.132483 0.0131836 
-0.149026 -0.141177 0.0172069 -0.106994 -0.132917 0.0178178 -0.127708 -0.131596 0.00414131 
-0.141408 -0.142542 0.0304325 -0.135904 -0.127237 0.00576102 -0.0485056 -0.10593 0.0165898 
-0.0578255 -0.106821 0.0119333 -0.0674879 -0.107197 0.00928207 -0.0563792 -0.108545 0.0232362 
-0.0433642 -0.105247 0.0257096 -0.0642962 -0.109479 0.0195624 -0.0743176 -0.110349 0.0144146 
-0.0487371 -0.110292 0.0271856 -0.0758916 -0.108284 0.00629622 -0.0505797 -0.102674 0.00625022 
-0.0626518 -0.112386 0.0275431 -0.0712836 -0.111954 0.0204685 -0.0560438 -0.0994811 0.00522912 
-0.0576712 -0.113379 0.0308444 -0.0621285 -0.100807 0.00489653 -0.0679778 -0.113232 0.0246549 
-0.0509056 -0.104679 0.0290335 -0.0737374 -0.101796 0.00499779 -0.0456761 -0.107531 0.00650491 
-0.079788 -0.111862 0.0102093 -0.0499314 -0.111602 0.0079216 -0.0621381 -0.114923 0.0326738 
-0.0441322 -0.112787 0.0234891 -0.0367897 -0.101415 0.0269461 -0.038558 -0.106571 0.020283 
-0.0529496 -0.0982309 0.00982818 -0.0421262 -0.0985619 0.0227405 -0.0398642 -0.0993031 0.0284406 
-0.0661319 -0.114969 0.0309056 -0.0612964 -0.102344 0.0200721 -0.0689377 -0.114883 0.0289405 
-0.0425685 -0.111154 0.0302901 -0.0618994 -0.113084 0.00552653 -0.0526335 -0.11387 0.0310988 
-0.0808619 -0.110989 0.00431229 -0.0408533 -0.111375 0.0218565 -0.0726596 -0.114601 0.0253048 
-0.0536171 -0.110478 0.0311577 -0.0775125 -0.113948 0.0188189 -0.0553487 -0.104209 0.00253624 
-0.0675949 -0.114253 0.0151012 -0.0536234 -0.115185 0.0279735 -0.0517616 -0.101628 0.025908 
-0.0496597 -0.114802 0.0223308 -0.0760866 -0.104748 0.0112104 -0.0800464 -0.113535 0.0149864 
-0.0380848 -0.105073 0.0166854 -0.0584968 -0.103608 0.00257629 -0.0727167 -0.115103 0.0283518 
-0.06675 -0.0993208 0.00409166 
VERTICES 100 200
1 0 
1 1 
1 2 
1 3 
1 4 
1 5 
1 6 
1 7 
1 8 
1 9 
1 10 
1 11 
1 12 
1 13 
1 14 
1 15 
1 16 
1 17 
1 18 
1 19 
1 20 
1 21 
1 22 
1 23 
1 24 
1 25 
1 26 
1 27 
1 28 
1 29 
1 30 
1 31 
1 32 
1 33 
1 34 
1 35 
1 36 
1 37 
1 38 
1 39 
1 40 
1 41 
1 42 
1 43 
1 44 
1 45 
1 46 
1 47 
1 48 
1 49 
1 50 
1 51 
1 52 
1 53 
1 54 
1 55 
1 56 
1 57 
1 58 
1 59 
1 60 
1 61 
1 62 
1 63 
1 64 
1 65 
1 66 
1 67 
1 68 
1 69 
1 70 
1 71 
1 72 
1 73 
1 74 
1 75 
1 76 
1 77 
1 78 
1 79 
1 80 
1 81 
1 82 
1 83 
1 84 
1 85 
1 86 
1 87 
1 88 
1 89 
1 90 
1 91 
1 92 
1 93 
1 94 
1 95 
1 96 
1 97 
1 98 
1 99 

POINT_DATA 100
FIELD FieldData 7
id 1 100 int
1 2 3 4 5 6 7 8 9 
10 11 12 13 14 15 16 17 18 
19 20 21 22 23 24 25 26 27 
28 29 30 31 32 33 34 35 36 
37 38 39 40 41 42 43 44 45 
46 47 48 49 50 51 52 53 54 
55 56 57 58 59 60 61 62 63 
64 65 66 67 68 69 70 71 72 
73 74 75 76 77 78 79 80 81 
82 83 84 85 86 87 88 89 90 
91 92 93 94 95 96 97 98 99 
100 
mol 1 100 int
1 1 1 1 1 1 1 1 1 
1 1 1 1 1 1 1 1 1 
1 1 1 1 1 1 1 1 1 
1 1 1 1 1 1 1 1 1 
1 1 1 1 1 1 1 1 1 
1 1 1 1 1 2 2 2 2 
2 2 2 2 2 2 2 2 2 
2 2 2 2 2 2 2 2 2 
2 2 2 2 2 2 2 2 2 
2 2 2 2 2 2 2 2 2 
2 2 2 2 2 2 2 2 2 
2 
type 1 100 int
1 1 1 1 1 1 1 1 1 
1 1 1 1 1 1 1 1 1 
1 1 1 1 1 1 1 1 1 
1 1 1 1 1 1 1 1 1 
1 1 1 1 1 1 1 1 1 
1 1 1 1 1 1 1 1 1 
1 1 1 1 1 1 1 1 1 
1 1 1 1 1 1 1 1 1 
1 1 1 1 1 1 1 1 1 
1 1 1 1 1 1 1 1 1 
1 1 1 1 1 1 1 1 1 
1 
v 3 100 double
-0.133717 -0.0650695 -0.331658 -0.101671 -0.0628894 -0.400283 -0.084169 -0.0637737 -0.470205 
-0.181605 -0.0786462 -0.390458 -0.198248 -0.0757796 -0.292294 -0.156337 -0.0772085 -0.448967 
-0.120901 -0.0746573 -0.522651 -0.208013 -0.0806964 -0.337877 -0.0638431 -0.0635775 -0.532283 
-0.0612633 -0.0509738 -0.343481 -0.212126 -0.0880786 -0.440121 -0.163128 -0.0820121 -0.502308 
-0.0558908 -0.0520692 -0.377827 -0.234579 -0.0904668 -0.405498 -0.0540639 -0.0545993 -0.423243 
-0.19208 -0.0865126 -0.479884 -0.223389 -0.0842765 -0.344573 -0.0563358 -0.0604501 -0.507444 
-0.0607102 -0.0490879 -0.315765 -0.0912543 -0.0712688 -0.564689 -0.0701882 -0.0533439 -0.351934 
-0.247863 -0.0953519 -0.439308 -0.180056 -0.0731499 -0.309484 -0.207269 -0.0742498 -0.239463 
-0.158284 -0.0655883 -0.261034 -0.0886476 -0.0571988 -0.353046 -0.17902 -0.0706682 -0.274002 
-0.219127 -0.0778616 -0.257932 -0.235862 -0.0947379 -0.46817 -0.161818 -0.0762746 -0.416795 
-0.222307 -0.0932533 -0.488403 -0.228912 -0.0822142 -0.294627 -0.0545276 -0.0557594 -0.439897 
-0.235424 -0.0883878 -0.370282 -0.0495929 -0.063205 -0.572131 -0.168328 -0.0691353 -0.284302 
-0.197031 -0.0897849 -0.515183 -0.237109 -0.0888555 -0.372198 -0.151701 -0.0827198 -0.549998 
-0.0350052 -0.0479565 -0.380461 -0.12345 -0.0724817 -0.480462 -0.212834 -0.0843716 -0.379889 
-0.202198 -0.0800675 -0.346681 -0.172018 -0.0742287 -0.352116 -0.100125 -0.0707061 -0.527459 
-0.124871 -0.0783809 -0.56815 -0.133 -0.0600892 -0.256085 -0.0359944 -0.0495361 -0.40199 
-0.218639 -0.0942522 -0.515776 -0.0495441 -0.0556464 -0.454103 -0.142462 -0.107656 0.120501 
-0.0984617 -0.0894916 0.028959 -0.0736349 -0.0866507 -0.0619242 -0.198572 -0.170053 0.0294802 
-0.22681 -0.165813 0.172413 -0.163459 -0.156693 -0.0495847 -0.115015 -0.136126 -0.147367 
-0.231582 -0.185912 0.0863389 -0.0445324 -0.0791836 -0.146552 -0.0537749 -0.0352539 0.125513 
-0.231236 -0.212503 -0.0559483 -0.167461 -0.175384 -0.131493 -0.0499615 -0.0371611 0.0991429 
-0.259633 -0.228183 -0.0178222 -0.0446447 -0.0451962 0.0339082 -0.20344 -0.200452 -0.110732 
-0.258102 -0.203225 0.107808 -0.0438659 -0.0659329 -0.0792262 -0.0477337 -0.0286803 0.134548 
-0.0740576 -0.114647 -0.208376 -0.0536422 -0.0464186 0.0658241 -0.273659 -0.249318 -0.0699017 
-0.193574 -0.15082 0.110005 -0.244686 -0.163576 0.26053 -0.175039 -0.117662 0.206512 
-0.0940571 -0.0656259 0.136547 -0.211245 -0.141865 0.232823 -0.261953 -0.179853 0.248005 
-0.257454 -0.243203 -0.106661 -0.180396 -0.155272 0.0302035 -0.239681 -0.233596 -0.131617 
-0.258411 -0.1981 0.136267 -0.0292475 -0.0494308 -0.0542103 -0.261108 -0.221376 0.0245154 
-0.0217807 -0.0731656 -0.211756 -0.181117 -0.133177 0.150283 -0.207009 -0.213291 -0.163489 
-0.267486 -0.223503 0.0404668 -0.148983 -0.173991 -0.202952 -0.0172608 -0.0161768 0.0707432 
-0.114554 -0.129594 -0.114743 -0.230342 -0.200117 0.00582874 -0.234852 -0.181733 0.122423 
-0.17954 -0.151828 0.0447851 -0.0954383 -0.115628 -0.122348 -0.114743 -0.150194 -0.223021 
-0.14481 -0.0904125 0.221834 -0.018661 -0.0218929 0.0464478 -0.233932 -0.235778 -0.1677 
-0.039864 -0.0472411 0.00268162 
f 3 100 double
0 0 0 0 0 0 0 0 0 
0 0 0 0 0 0 0 0 0 
0 0 0 0 0 0 0 0 0 
0 0 0 0 0 0 0 0 0 
0 0 0 0 0 0 0 0 0 
0 0 0 0 0 0 0 0 0 
0 0 0 0 0 0 0 0 0 
0 0 0 0 0 0 0 0 0 
0 0 0 0 0 0 0 0 0 
0 0 0 0 0 0 0 0 0 
0 0 0 0 0 0 0 0 0 
0 0 0 0 0 0 0 0 0 
0 0 0 0 0 0 0 0 0 
0 0 0 0 0 0 0 0 0 
0 0 0 0 0 0 0 0 0 
0 0 0 0 0 0 0 0 0 
0 0 0 0 0 0 0 0 0 
0 0 0 0 0 0 0 0 0 
0 0 0 0 0 0 0 0 0 
0 0 0 0 0 0 0 0 0 
0 0 0 0 0 0 0 0 0 
0 0 0 0 0 0 0 0 0 
0 0 0 0 0 0 0 0 0 
0 0 0 0 0 0 0 0 0 
0 0 0 0 0 0 0 0 0 
0 0 0 0 0 0 0 0 0 
0 0 0 0 0 0 0 0 0 
0 0 0 0 0 0 0 0 0 
0 0 0 0 0 0 0 0 0 
0 0 0 0 0 0 -0.219768 -0.651444 3.51742 
0 0 0 0 0 0 0 0 0 
0 0 0 0 0 0 0 0 0 
0 0 0 -0.156372 -0.3772 1.03843 0 0 0 
0 0 0 
radius 1 100 double
0.010434 0.00981478 0.00892069 0.00845937 0.00731974 0.00728422 0.00643447 0.00619172 0.00585956 
0.00577566 0.00537241 0.00522549 0.00513666 0.00473175 0.00466912 0.00444866 0.00441894 0.00400812 
0.00385622 0.00379948 0.00370243 0.00366942 0.00364039 0.00363813 0.00363644 0.00358692 0.0035797 
0.00341284 0.00337012 0.00336273 0.00332772 0.00323261 0.00320584 0.00320311 0.00318808 0.00313116 
0.00306026 0.00305632 0.00304383 0.00300958 0.00300137 0.00298994 0.0029567 0.00295111 0.00290849 
0.00284552 0.00282964 0.0028207 0.00281971 0.00281899 0.010434 0.00981478 0.00892069 0.00845937 
0.00731974 0.00728422 0.00643447 0.00619172 0.00585956 0.00577566 0.00537241 0.00522549 0.00513666 
0.00473175 0.00466912 0.00444866 0.00441894 0.00400812 0.00385622 0.00379948 0.00370243 0.00366942 
0.00364039 0.00363813 0.00363644 0.00358692 0.0035797 0.00341284 0.00337012 0.00336273 0.00332772 
0.00323261 0.00320584 0.00320311 0.00318808 0.00313116 0.00306026 0.00305632 0.00304383 0.00300958 
0.00300137 0.00298994 0.0029567 0.00295111 0.00290849 0.00284552 0.00282964 0.0028207 0.00281971 
0.00281899 
omega 3 100 double
1.46296 -7.13702 0.45645 1.46296 -7.13702 0.45645 1.46296 -7.13702 0.45645 
1.46296 -7.13702 0.45645 1.46296 -7.13702 0.45645 1.46296 -7.13702 0.45645 
1.46296 -7.13702 0.45645 1.46296 -7.13702 0.45645 1.46296 -7.13702 0.45645 
1.46296 -7.13702 0.45645 1.46296 -7.13702 0.45645 1.46296 -7.13702 0.45645 
1.46296 -7.13702 0.45645 1.46296 -7.13702 0.45645 1.46296 -7.13702 0.45645 
1.46296 -7.13702 0.45645 1.46296 -7.13702 0.45645 1.46296 -7.13702 0.45645 
1.46296 -7.13702 0.45645 1.46296 -7.13702 0.45645 1.46296 -7.13702 0.45645 
1.46296 -7.13702 0.45645 1.46296 -7.13702 0.45645 1.46296 -7.13702 0.45645 
1.46296 -7.13702 0.45645 1.46296 -7.13702 0.45645 1.46296 -7.13702 0.45645 
1.46296 -7.13702 0.45645 1.46296 -7.13702 0.45645 1.46296 -7.13702 0.45645 
1.46296 -7.13702 0.45645 1.46296 -7.13702 0.45645 1.46296 -7.13702 0.45645 
1.46296 -7.13702 0.45645 1.46296 -7.13702 0.45645 1.46296 -7.13702 0.45645 
1.46296 -7.13702 0.45645 1.46296 -7.13702 0.45645 1.46296 -7.13702 0.45645 
1.46296 -7.13702 0.45645 1.46296 -7.13702 0.45645 1.46296 -7.13702 0.45645 
1.46296 -7.13702 0.45645 1.46296 -7.13702 0.45645 1.46296 -7.13702 0.45645 
1.46296 -7.13702 0.45645 1.46296 -7.13702 0.45645 1.46296 -7.13702 0.45645 
1.46296 -7.13702 0.45645 1.46296 -7.13702 0.45645 7.34792 -9.11983 1.72218 
7.34792 -9.11983 1.72218 7.34792 -9.11983 1.72218 7.34792 -9.11983 1.72218 
7.34792 -9.11983 1.72218 7.34792 -9.11983 1.72218 7.34792 -9.11983 1.72218 
7.34792 -9.11983 1.72218 7.34792 -9.11983 1.72218 7.34792 -9.11983 1.72218 
7.34792 -9.11983 1.72218 7.34792 -9.11983 1.72218 7.34792 -9.11983 1.72218 
7.34792 -9.11983 1.72218 7.34792 -9.11983 1.72218 7.34792 -9.11983 1.72218 
7.34792 -9.11983 1.72218 7.34792 -9.11983 1.72218 7.34792 -9.11983 1.72218 
7.34792 -9.11983 1.72218 7.34792 -9.11983 1.72218 7.34792 -9.11983 1.72218 
7.34792 -9.11983 1.72218 7.34792 -9.11983 1.72218 7.34792 -9.11983 1.72218 
7.34792 -9.11983 1.72218 7.34792 -9.11983 1.72218 7.34792 -9.11983 1.72218 
7.34792 -9.11983 1.72218 7.34792 -9.11983 1.72218 7.34792 -9.11983 1.72218 
7.34792 -9.11983 1.72218 7.34792 -9.11983 1.72218 7.34792 -9.11983 1.72218 
7.34792 -9.11983 1.72218 7.34792 -9.11983 1.72218 7.34792 -9.11983 1.72218 
7.34792 -9.11983 1.72218 7.34792 -9.11983 1.72218 7.34792 -9.11983 1.72218 
7.34792 -9.11983 1.72218 7.34792 -9.11983 1.72218 7.34792 -9.11983 1.72218 
7.34792 -9.11983 1.72218 7.34792 -9.11983 1.72218 7.34792 -9.11983 1.72218 
7.34792 -9.11983 1.72218 7.34792 -9.11983 1.72218 7.34792 -9.11983 1.72218 
7.34792 -9.11983 1.72218 
