# vtk DataFile Version 4.0
Generated by LIGGGHTS
ASCII
DATASET POLYDATA
POINTS 100 float
-0.116888 -0.153763 0.0110451 -0.126769 -0.150347 0.0112288 -0.136567 -0.148687 0.0125601 
-0.124052 -0.161466 0.0125742 -0.110411 -0.161773 0.0130347 -0.132442 -0.158888 0.0126493 
-0.143069 -0.155054 0.0128873 -0.11647 -0.165183 0.0101776 -0.145357 -0.146843 0.0128185 
-0.119732 -0.143111 0.0115531 -0.130291 -0.167232 0.0118831 -0.139584 -0.161058 0.0124058 
-0.124459 -0.141534 0.0155859 -0.125208 -0.170295 0.0106678 -0.130665 -0.142099 0.0158106 
-0.136045 -0.165173 0.0116117 -0.11706 -0.165295 0.0164437 -0.14206 -0.14338 0.0178755 
-0.116023 -0.144538 0.00590472 -0.149306 -0.151975 0.0116519 -0.120801 -0.147497 0.00364485 
-0.129578 -0.172851 0.0109129 -0.113128 -0.162145 0.00562843 -0.10305 -0.161223 0.0152608 
-0.10688 -0.156712 0.00900801 -0.120511 -0.145246 0.0172969 -0.108207 -0.156738 0.0180169 
-0.105331 -0.162189 0.0184247 -0.133705 -0.171495 0.011368 -0.127918 -0.156862 0.018616 
-0.136687 -0.169821 0.0115852 -0.110243 -0.167929 0.00872465 -0.133024 -0.146604 0.00461658 
-0.120419 -0.170315 0.00901096 -0.151037 -0.146207 0.0110063 -0.109903 -0.159906 0.00562107 
-0.140761 -0.166576 0.0117277 -0.12062 -0.16936 0.0124053 -0.146273 -0.160604 0.0116663 
-0.125223 -0.140451 0.0102634 -0.137333 -0.156448 0.00778182 -0.12213 -0.167858 0.00713707 
-0.117691 -0.161431 0.0185614 -0.119071 -0.16211 0.00483465 -0.144036 -0.150368 0.0175642 
-0.149202 -0.157042 0.0115711 -0.106637 -0.152799 0.0092179 -0.128122 -0.140532 0.0116282 
-0.140468 -0.169618 0.0121694 -0.134919 -0.14121 0.0181189 -0.0463146 -0.123078 0.0108654 
-0.0564123 -0.120535 0.0118171 -0.0661694 -0.119683 0.0139629 -0.0525919 -0.131308 0.0132893 
-0.0389904 -0.130402 0.0125372 -0.0611436 -0.129472 0.0140276 -0.0720143 -0.126575 0.0150859 
-0.0449383 -0.134444 0.0103508 -0.0750348 -0.118606 0.0149445 -0.0500589 -0.112704 0.0112653 
-0.0583181 -0.137621 0.0133547 -0.0680529 -0.132266 0.0144978 -0.0545445 -0.111379 0.0156492 
-0.0531022 -0.140276 0.0117938 -0.0606317 -0.112475 0.0164475 -0.0642372 -0.136086 0.0135299 
-0.0449745 -0.134346 0.0166448 -0.0716433 -0.11466 0.0195661 -0.046736 -0.114035 0.00535913 
-0.0785878 -0.124108 0.0143102 -0.0514025 -0.117492 0.00363731 -0.057184 -0.143191 0.0125152 
-0.04229 -0.131318 0.00542063 -0.0315456 -0.129118 0.0140757 -0.036293 -0.125223 0.00804174 
-0.0501442 -0.114658 0.0171247 -0.0368311 -0.12499 0.0171289 -0.0334479 -0.130147 0.0174618 
-0.0613625 -0.142183 0.0132916 -0.056325 -0.126811 0.0194936 -0.0644543 -0.140769 0.0137182 
-0.0386358 -0.136694 0.00844008 -0.0635276 -0.117632 0.00566838 -0.0484912 -0.139946 0.00971654 
-0.0808845 -0.118544 0.0136274 -0.0392948 -0.128808 0.00504901 -0.0687785 -0.137889 0.0141148 
-0.0484848 -0.138871 0.0130809 -0.0747943 -0.13243 0.014345 -0.0558594 -0.11059 0.0103829 
-0.066637 -0.127674 0.0095377 -0.0505726 -0.137728 0.0079212 -0.0457679 -0.130467 0.0186785 
-0.0482585 -0.131835 0.00516121 -0.0729961 -0.121801 0.0196694 -0.0780319 -0.129144 0.0143918 
-0.0363895 -0.121299 0.00809662 -0.0586107 -0.110867 0.0120037 -0.0681735 -0.140873 0.0146311 
-0.064734 -0.111865 0.0190959 
VERTICES 100 200
1 0 
1 1 
1 2 
1 3 
1 4 
1 5 
1 6 
1 7 
1 8 
1 9 
1 10 
1 11 
1 12 
1 13 
1 14 
1 15 
1 16 
1 17 
1 18 
1 19 
1 20 
1 21 
1 22 
1 23 
1 24 
1 25 
1 26 
1 27 
1 28 
1 29 
1 30 
1 31 
1 32 
1 33 
1 34 
1 35 
1 36 
1 37 
1 38 
1 39 
1 40 
1 41 
1 42 
1 43 
1 44 
1 45 
1 46 
1 47 
1 48 
1 49 
1 50 
1 51 
1 52 
1 53 
1 54 
1 55 
1 56 
1 57 
1 58 
1 59 
1 60 
1 61 
1 62 
1 63 
1 64 
1 65 
1 66 
1 67 
1 68 
1 69 
1 70 
1 71 
1 72 
1 73 
1 74 
1 75 
1 76 
1 77 
1 78 
1 79 
1 80 
1 81 
1 82 
1 83 
1 84 
1 85 
1 86 
1 87 
1 88 
1 89 
1 90 
1 91 
1 92 
1 93 
1 94 
1 95 
1 96 
1 97 
1 98 
1 99 

POINT_DATA 100
FIELD FieldData 7
id 1 100 int
1 2 3 4 5 6 7 8 9 
10 11 12 13 14 15 16 17 18 
19 20 21 22 23 24 25 26 27 
28 29 30 31 32 33 34 35 36 
37 38 39 40 41 42 43 44 45 
46 47 48 49 50 51 52 53 54 
55 56 57 58 59 60 61 62 63 
64 65 66 67 68 69 70 71 72 
73 74 75 76 77 78 79 80 81 
82 83 84 85 86 87 88 89 90 
91 92 93 94 95 96 97 98 99 
100 
mol 1 100 int
1 1 1 1 1 1 1 1 1 
1 1 1 1 1 1 1 1 1 
1 1 1 1 1 1 1 1 1 
1 1 1 1 1 1 1 1 1 
1 1 1 1 1 1 1 1 1 
1 1 1 1 1 2 2 2 2 
2 2 2 2 2 2 2 2 2 
2 2 2 2 2 2 2 2 2 
2 2 2 2 2 2 2 2 2 
2 2 2 2 2 2 2 2 2 
2 2 2 2 2 2 2 2 2 
2 
type 1 100 int
1 1 1 1 1 1 1 1 1 
1 1 1 1 1 1 1 1 1 
1 1 1 1 1 1 1 1 1 
1 1 1 1 1 1 1 1 1 
1 1 1 1 1 1 1 1 1 
1 1 1 1 1 1 1 1 1 
1 1 1 1 1 1 1 1 1 
1 1 1 1 1 1 1 1 1 
1 1 1 1 1 1 1 1 1 
1 1 1 1 1 1 1 1 1 
1 1 1 1 1 1 1 1 1 
1 
v 3 100 double
-0.0256174 -0.203155 -0.10451 -0.0227161 -0.197126 -0.0605394 -0.0234864 -0.211779 -0.04793 
-0.035574 -0.223847 -0.2554 -0.0366723 -0.244991 -0.236954 -0.0332718 -0.217275 -0.223836 
-0.0300709 -0.211518 -0.173662 -0.0348739 -0.187974 -0.308823 -0.0222002 -0.208124 -0.0302671 
-0.0164548 -0.209592 0.081748 -0.0398029 -0.205549 -0.369881 -0.0348929 -0.206162 -0.275345 
-0.0220483 -0.277536 0.101758 -0.04056 -0.188527 -0.415949 -0.0229765 -0.275711 0.0807067 
-0.037383 -0.195245 -0.343019 -0.0459834 -0.29992 -0.311871 -0.0278116 -0.30203 0.0377021 
-0.0078828 -0.111679 0.0626388 -0.0249957 -0.183449 -0.129345 -0.0067072 -0.0665941 0.00112362 
-0.043403 -0.188804 -0.469512 -0.0240175 -0.10945 -0.248407 -0.0400622 -0.291906 -0.214152 
-0.0248235 -0.176027 -0.139878 -0.028557 -0.311981 0.0420369 -0.0406684 -0.336524 -0.142677 
-0.0465304 -0.34656 -0.235506 -0.0429216 -0.193078 -0.452403 -0.0418379 -0.328674 -0.179524 
-0.0417235 -0.194164 -0.427594 -0.0349144 -0.167765 -0.347189 -0.00757131 -0.0725027 -0.00432036 
-0.0376694 -0.1633 -0.4079 -0.018417 -0.170225 -0.0288138 -0.0218912 -0.112362 -0.202545 
-0.0389102 -0.192877 -0.376475 -0.042728 -0.224053 -0.391094 -0.0331659 -0.186572 -0.278942 
-0.0116791 -0.181251 0.119863 -0.0224212 -0.125265 -0.188621 -0.0320593 -0.128041 -0.366786 
-0.0460549 -0.337348 -0.243601 -0.02259 -0.0895885 -0.258206 -0.0338613 -0.294576 -0.0912355 
-0.0296359 -0.182097 -0.220124 -0.021499 -0.180024 -0.0692072 -0.0141526 -0.203021 0.113314 
-0.0425579 -0.201083 -0.430593 -0.0261904 -0.313142 0.0892115 0.0123776 -0.176067 -0.0951842 
0.0173589 -0.177865 -0.0375219 0.0223104 -0.198657 -0.0067539 0.00614774 -0.205654 -0.211775 
0.00596204 -0.211464 -0.222134 0.00983633 -0.206127 -0.167877 0.015464 -0.208588 -0.103333 
-0.00316687 -0.169841 -0.274264 0.0254597 -0.202505 0.025914 0.0264403 -0.177464 0.0727423 
-0.00185482 -0.199305 -0.299576 0.0070866 -0.204545 -0.198884 0.0360212 -0.239811 0.101379 
-0.00807445 -0.181761 -0.3502 0.0360459 -0.244384 0.0952886 0.000434334 -0.194414 -0.265091 
0.00826882 -0.267589 -0.272676 0.0388396 -0.278677 0.0811302 0.0141149 -0.0899695 0.0460814 
0.0172435 -0.18808 -0.0531865 0.00657465 -0.057214 0.000755481 -0.0105283 -0.18772 -0.388168 
-0.00800473 -0.0966435 -0.230447 0.0103776 -0.244943 -0.215566 0.00454486 -0.145083 -0.146519 
0.0344555 -0.268396 0.0425315 0.0211739 -0.285585 -0.141924 0.0151383 -0.29511 -0.22814 
-0.00783614 -0.194409 -0.364991 0.0230797 -0.297253 -0.135202 -0.00525093 -0.19706 -0.337465 
-0.00949333 -0.148259 -0.320538 0.0100444 -0.0731765 0.0203702 -0.0113832 -0.155416 -0.353365 
0.0231722 -0.174517 0.0373802 -0.00544403 -0.094722 -0.19683 -0.000833642 -0.197662 -0.284944 
-0.00395488 -0.207699 -0.336671 0.00660142 -0.1935 -0.189315 0.0275734 -0.156292 0.116007 
0.00408082 -0.129298 -0.130072 -0.0117562 -0.124844 -0.315162 0.0169125 -0.298167 -0.210978 
-0.00913617 -0.084936 -0.22776 0.0298404 -0.278543 -0.0273937 0.0109118 -0.190063 -0.132445 
0.00969062 -0.145812 -0.0853763 0.0301291 -0.177938 0.116641 -0.00374464 -0.206462 -0.332404 
0.0415893 -0.280258 0.112137 
f 3 100 double
0 0 0 0 0 0 0 0 0 
0 0 0 0 0 0 0 0 0 
0 0 0 0 0 0 0 0 0 
0 0 0 0 0 0 0 0 0 
0 0 0 0 0 0 0 0 0 
0 0 0 0 0 0 0 0 0 
0 0 0 0 0 0 -0.0543453 -0.0380817 0.210134 
0 0 0 0 0 0 0 0 0 
0 0 0 0 0 0 0 0 0 
0 0 0 0 0 0 0 0 0 
0 0 0 0 0 0 0 0 0 
0 0 0 0 0 0 0 0 0 
0 0 0 0 0 0 0 0 0 
0 0 0 0 0 0 0 0 0 
0 0 0 0 0 0 0 0 0 
0 0 0 0 0 0 0 0 0 
0 0 0 0 0 0 0 0 0 
0 0 0 0 0 0 0 0 0 
0 0 0 0 0 0 0 0 0 
0 0 0 0 0 0 0 0 0 
0 0 0 0 0 0 0 0 0 
0 0 0 0 0 0 0 0 0 
0 0 0 0 0 0 0 0 0 
0 0 0 -0.0570973 -0.0706341 0.258871 0 0 0 
0 0 0 0 0 0 0 0 0 
0 0 0 0 0 0 0 0 0 
0 0 0 0 0 0 0 0 0 
0 0 0 0 0 0 0 0 0 
0 0 0 0 0 0 0 0 0 
0 0 0 0 0 0 0 0 0 
0 0 0 0 0 0 0 0 0 
0 0 0 0 0 0 0 0 0 
0 0 0 0 0 0 0 0 0 
0 0 0 
radius 1 100 double
0.010434 0.00981478 0.00892069 0.00845937 0.00731974 0.00728422 0.00643447 0.00619172 0.00585956 
0.00577566 0.00537241 0.00522549 0.00513666 0.00473175 0.00466912 0.00444866 0.00441894 0.00400812 
0.00385622 0.00379948 0.00370243 0.00366942 0.00364039 0.00363813 0.00363644 0.00358692 0.0035797 
0.00341284 0.00337012 0.00336273 0.00332772 0.00323261 0.00320584 0.00320311 0.00318808 0.00313116 
0.00306026 0.00305632 0.00304383 0.00300958 0.00300137 0.00298994 0.0029567 0.00295111 0.00290849 
0.00284552 0.00282964 0.0028207 0.00281971 0.00281899 0.010434 0.00981478 0.00892069 0.00845937 
0.00731974 0.00728422 0.00643447 0.00619172 0.00585956 0.00577566 0.00537241 0.00522549 0.00513666 
0.00473175 0.00466912 0.00444866 0.00441894 0.00400812 0.00385622 0.00379948 0.00370243 0.00366942 
0.00364039 0.00363813 0.00363644 0.00358692 0.0035797 0.00341284 0.00337012 0.00336273 0.00332772 
0.00323261 0.00320584 0.00320311 0.00318808 0.00313116 0.00306026 0.00305632 0.00304383 0.00300958 
0.00300137 0.00298994 0.0029567 0.00295111 0.00290849 0.00284552 0.00282964 0.0028207 0.00281971 
0.00281899 
omega 3 100 double
17.9544 -1.75608 -0.94392 17.9544 -1.75608 -0.94392 17.9544 -1.75608 -0.94392 
17.9544 -1.75608 -0.94392 17.9544 -1.75608 -0.94392 17.9544 -1.75608 -0.94392 
17.9544 -1.75608 -0.94392 17.9544 -1.75608 -0.94392 17.9544 -1.75608 -0.94392 
17.9544 -1.75608 -0.94392 17.9544 -1.75608 -0.94392 17.9544 -1.75608 -0.94392 
17.9544 -1.75608 -0.94392 17.9544 -1.75608 -0.94392 17.9544 -1.75608 -0.94392 
17.9544 -1.75608 -0.94392 17.9544 -1.75608 -0.94392 17.9544 -1.75608 -0.94392 
17.9544 -1.75608 -0.94392 17.9544 -1.75608 -0.94392 17.9544 -1.75608 -0.94392 
17.9544 -1.75608 -0.94392 17.9544 -1.75608 -0.94392 17.9544 -1.75608 -0.94392 
17.9544 -1.75608 -0.94392 17.9544 -1.75608 -0.94392 17.9544 -1.75608 -0.94392 
17.9544 -1.75608 -0.94392 17.9544 -1.75608 -0.94392 17.9544 -1.75608 -0.94392 
17.9544 -1.75608 -0.94392 17.9544 -1.75608 -0.94392 17.9544 -1.75608 -0.94392 
17.9544 -1.75608 -0.94392 17.9544 -1.75608 -0.94392 17.9544 -1.75608 -0.94392 
17.9544 -1.75608 -0.94392 17.9544 -1.75608 -0.94392 17.9544 -1.75608 -0.94392 
17.9544 -1.75608 -0.94392 17.9544 -1.75608 -0.94392 17.9544 -1.75608 -0.94392 
17.9544 -1.75608 -0.94392 17.9544 -1.75608 -0.94392 17.9544 -1.75608 -0.94392 
17.9544 -1.75608 -0.94392 17.9544 -1.75608 -0.94392 17.9544 -1.75608 -0.94392 
17.9544 -1.75608 -0.94392 17.9544 -1.75608 -0.94392 15.5378 1.79689 -1.28624 
15.5378 1.79689 -1.28624 15.5378 1.79689 -1.28624 15.5378 1.79689 -1.28624 
15.5378 1.79689 -1.28624 15.5378 1.79689 -1.28624 15.5378 1.79689 -1.28624 
15.5378 1.79689 -1.28624 15.5378 1.79689 -1.28624 15.5378 1.79689 -1.28624 
15.5378 1.79689 -1.28624 15.5378 1.79689 -1.28624 15.5378 1.79689 -1.28624 
15.5378 1.79689 -1.28624 15.5378 1.79689 -1.28624 15.5378 1.79689 -1.28624 
15.5378 1.79689 -1.28624 15.5378 1.79689 -1.28624 15.5378 1.79689 -1.28624 
15.5378 1.79689 -1.28624 15.5378 1.79689 -1.28624 15.5378 1.79689 -1.28624 
15.5378 1.79689 -1.28624 15.5378 1.79689 -1.28624 15.5378 1.79689 -1.28624 
15.5378 1.79689 -1.28624 15.5378 1.79689 -1.28624 15.5378 1.79689 -1.28624 
15.5378 1.79689 -1.28624 15.5378 1.79689 -1.28624 15.5378 1.79689 -1.28624 
15.5378 1.79689 -1.28624 15.5378 1.79689 -1.28624 15.5378 1.79689 -1.28624 
15.5378 1.79689 -1.28624 15.5378 1.79689 -1.28624 15.5378 1.79689 -1.28624 
15.5378 1.79689 -1.28624 15.5378 1.79689 -1.28624 15.5378 1.79689 -1.28624 
15.5378 1.79689 -1.28624 15.5378 1.79689 -1.28624 15.5378 1.79689 -1.28624 
15.5378 1.79689 -1.28624 15.5378 1.79689 -1.28624 15.5378 1.79689 -1.28624 
15.5378 1.79689 -1.28624 15.5378 1.79689 -1.28624 15.5378 1.79689 -1.28624 
15.5378 1.79689 -1.28624 
