# vtk DataFile Version 4.0
Generated by LIGGGHTS
ASCII
DATASET POLYDATA
POINTS 100 float
-0.118258 -0.143494 0.0140773 -0.128022 -0.141482 0.0109218 -0.137856 -0.139862 0.00982652 
-0.12573 -0.148107 0.0200692 -0.112205 -0.14731 0.0217501 -0.134021 -0.14668 0.017565 
-0.144521 -0.144375 0.0140838 -0.118054 -0.152031 0.0217215 -0.14658 -0.138834 0.00794386 
-0.120863 -0.13587 0.00653407 -0.132022 -0.15292 0.0232137 -0.141161 -0.148719 0.0183587 
-0.125906 -0.132117 0.00778846 -0.126928 -0.155667 0.0250019 -0.132119 -0.132658 0.00783008 
-0.13767 -0.151971 0.0210647 -0.119234 -0.147643 0.0260777 -0.143687 -0.132635 0.0092214 
-0.116677 -0.140729 0.00397157 -0.150533 -0.143434 0.0104962 -0.121295 -0.144645 0.00413808 
-0.131365 -0.157485 0.0266421 -0.114222 -0.153017 0.0166779 -0.105074 -0.144963 0.0235078 
-0.108182 -0.146506 0.0156288 -0.122234 -0.133272 0.0119681 -0.11035 -0.140127 0.0217548 
-0.107666 -0.143479 0.0261952 -0.13548 -0.156422 0.0256356 -0.130027 -0.140766 0.0206067 
-0.138426 -0.155252 0.024333 -0.11179 -0.154671 0.0232137 -0.13353 -0.143937 0.00314362 
-0.122006 -0.156631 0.0242739 -0.152047 -0.139975 0.00575973 -0.110955 -0.151306 0.0153337 
-0.14241 -0.153098 0.0217575 -0.122501 -0.153542 0.0259131 -0.147737 -0.149267 0.0169618 
-0.126138 -0.135221 0.00327213 -0.138368 -0.148721 0.0120421 -0.123469 -0.156353 0.0210712 
-0.119961 -0.14347 0.0247095 -0.120062 -0.153859 0.0156066 -0.145803 -0.137812 0.0138635 
-0.150552 -0.147007 0.0140903 -0.10786 -0.143625 0.012982 -0.129154 -0.134443 0.00402982 
-0.142238 -0.15488 0.0242738 -0.136546 -0.130596 0.00842769 -0.0496791 -0.114604 0.0144296 
-0.0595072 -0.113038 0.0112215 -0.0694145 -0.112066 0.0100244 -0.0568836 -0.120326 0.019755 
-0.0434961 -0.118677 0.0218629 -0.0652109 -0.119293 0.0171785 -0.0757895 -0.117461 0.0136545 
-0.0489591 -0.123801 0.0212299 -0.0781548 -0.111522 0.00801688 -0.0527226 -0.106504 0.00757917 
-0.0628422 -0.125883 0.0222591 -0.0721851 -0.121932 0.0175846 -0.0580652 -0.103281 0.00905039 
-0.0575856 -0.128397 0.0239127 -0.0642167 -0.104291 0.00887526 -0.068505 -0.125159 0.0200608 
-0.0505596 -0.119957 0.0259508 -0.0757761 -0.105275 0.00995464 -0.0481237 -0.110762 0.00467827 
-0.0817863 -0.116632 0.0100143 -0.0524266 -0.115012 0.00434884 -0.0618987 -0.130695 0.0252541 
-0.0449662 -0.124002 0.016219 -0.0366044 -0.115981 0.0240246 -0.039431 -0.116983 0.0159548 
-0.0543954 -0.104555 0.0131973 -0.0422053 -0.111409 0.0225999 -0.0393548 -0.114963 0.0267712 
-0.0660641 -0.129853 0.0242442 -0.0617478 -0.113417 0.0208738 -0.0690659 -0.128788 0.022981 
-0.042539 -0.126093 0.0226302 -0.0646574 -0.115137 0.00310148 -0.0525906 -0.128912 0.0232273 
-0.0834734 -0.112855 0.00558965 -0.0418165 -0.121927 0.0151309 -0.0731556 -0.126701 0.0205172 
-0.0533549 -0.126042 0.0251392 -0.0786706 -0.122837 0.0159676 -0.057969 -0.105941 0.00425474 
-0.06928 -0.121111 0.0113729 -0.0540091 -0.128437 0.0200278 -0.0515822 -0.115739 0.0249669 
-0.0507013 -0.125174 0.0149178 -0.0775727 -0.111023 0.0140254 -0.0815968 -0.120528 0.0132505 
-0.0392831 -0.113843 0.0136036 -0.0610499 -0.10547 0.00500261 -0.0728938 -0.128701 0.0228562 
-0.068802 -0.102636 0.00954844 
VERTICES 100 200
1 0 
1 1 
1 2 
1 3 
1 4 
1 5 
1 6 
1 7 
1 8 
1 9 
1 10 
1 11 
1 12 
1 13 
1 14 
1 15 
1 16 
1 17 
1 18 
1 19 
1 20 
1 21 
1 22 
1 23 
1 24 
1 25 
1 26 
1 27 
1 28 
1 29 
1 30 
1 31 
1 32 
1 33 
1 34 
1 35 
1 36 
1 37 
1 38 
1 39 
1 40 
1 41 
1 42 
1 43 
1 44 
1 45 
1 46 
1 47 
1 48 
1 49 
1 50 
1 51 
1 52 
1 53 
1 54 
1 55 
1 56 
1 57 
1 58 
1 59 
1 60 
1 61 
1 62 
1 63 
1 64 
1 65 
1 66 
1 67 
1 68 
1 69 
1 70 
1 71 
1 72 
1 73 
1 74 
1 75 
1 76 
1 77 
1 78 
1 79 
1 80 
1 81 
1 82 
1 83 
1 84 
1 85 
1 86 
1 87 
1 88 
1 89 
1 90 
1 91 
1 92 
1 93 
1 94 
1 95 
1 96 
1 97 
1 98 
1 99 

POINT_DATA 100
FIELD FieldData 7
id 1 100 int
1 2 3 4 5 6 7 8 9 
10 11 12 13 14 15 16 17 18 
19 20 21 22 23 24 25 26 27 
28 29 30 31 32 33 34 35 36 
37 38 39 40 41 42 43 44 45 
46 47 48 49 50 51 52 53 54 
55 56 57 58 59 60 61 62 63 
64 65 66 67 68 69 70 71 72 
73 74 75 76 77 78 79 80 81 
82 83 84 85 86 87 88 89 90 
91 92 93 94 95 96 97 98 99 
100 
mol 1 100 int
1 1 1 1 1 1 1 1 1 
1 1 1 1 1 1 1 1 1 
1 1 1 1 1 1 1 1 1 
1 1 1 1 1 1 1 1 1 
1 1 1 1 1 1 1 1 1 
1 1 1 1 1 2 2 2 2 
2 2 2 2 2 2 2 2 2 
2 2 2 2 2 2 2 2 2 
2 2 2 2 2 2 2 2 2 
2 2 2 2 2 2 2 2 2 
2 2 2 2 2 2 2 2 2 
2 
type 1 100 int
1 1 1 1 1 1 1 1 1 
1 1 1 1 1 1 1 1 1 
1 1 1 1 1 1 1 1 1 
1 1 1 1 1 1 1 1 1 
1 1 1 1 1 1 1 1 1 
1 1 1 1 1 1 1 1 1 
1 1 1 1 1 1 1 1 1 
1 1 1 1 1 1 1 1 1 
1 1 1 1 1 1 1 1 1 
1 1 1 1 1 1 1 1 1 
1 1 1 1 1 1 1 1 1 
1 
v 3 100 double
0.113184 -0.142167 -0.121969 0.0916411 -0.09847 -0.0274466 0.0858918 -0.0712217 0.064486 
0.152607 -0.176381 -0.0991496 0.167587 -0.215262 -0.201236 0.135192 -0.140687 -0.02115 
0.111585 -0.0929886 0.0816345 0.158506 -0.204067 -0.19231 0.0727154 -0.0397165 0.142751 
0.0669605 -0.0765792 -0.0397184 0.16881 -0.189892 -0.0874072 0.137738 -0.13369 0.0197234 
0.0840591 -0.0772205 0.0309444 0.178008 -0.213832 -0.150377 0.0833785 -0.0659097 0.0764298 
0.153349 -0.16201 -0.0344562 0.201679 -0.236913 -0.14753 0.0945841 -0.0554223 0.169421 
0.0372948 -0.0638035 -0.112402 0.0845692 -0.0528482 0.137442 0.0312909 -0.0564859 -0.10686 
0.187758 -0.218714 -0.129412 0.116196 -0.170661 -0.230987 0.186086 -0.242773 -0.239558 
0.119986 -0.17354 -0.227039 0.115425 -0.11774 -0.00781073 0.181088 -0.218775 -0.158309 
0.210428 -0.259542 -0.206817 0.181676 -0.2029 -0.0878406 0.170679 -0.172651 -0.00559585 
0.17342 -0.186896 -0.0547958 0.165529 -0.227818 -0.263806 0.0246395 -0.0255498 -0.00301771 
0.17036 -0.217199 -0.19762 0.0530544 -0.0118922 0.177424 0.10862 -0.165968 -0.243426 
0.156796 -0.1587 -0.0054928 0.189302 -0.229464 -0.168792 0.125503 -0.110121 0.0680635 
0.0420086 -0.0404394 0.00782716 0.08706 -0.0880911 -0.00269547 0.145187 -0.188682 -0.183648 
0.198525 -0.224539 -0.108116 0.106025 -0.151093 -0.190908 0.12212 -0.0888133 0.144733 
0.106705 -0.0817364 0.10884 0.104153 -0.152844 -0.206435 0.0495458 -0.0408842 0.0382824 
0.173641 -0.179273 -0.0212214 0.0920384 -0.0624191 0.128548 0.095935 -0.115987 -0.103711 
0.0747014 -0.0848445 -0.02346 0.0670955 -0.0681182 0.0530702 0.128627 -0.148436 -0.09435 
0.144769 -0.174569 -0.17643 0.11139 -0.123071 -0.0284681 0.0881576 -0.0890402 0.0589669 
0.136134 -0.165541 -0.174988 0.0534522 -0.0465115 0.11833 0.0544863 -0.0641696 -0.0240226 
0.141654 -0.161592 -0.0925406 0.112081 -0.120289 0.00147451 0.0674485 -0.0703916 0.0366772 
0.151202 -0.1778 -0.147539 0.065393 -0.064097 0.0725774 0.126818 -0.141129 -0.0475873 
0.172411 -0.198224 -0.136077 0.0721627 -0.0624107 0.146614 0.0306434 -0.0470448 -0.0869591 
0.0632883 -0.0579222 0.107018 0.0248535 -0.0411519 -0.0873665 0.158735 -0.183929 -0.133816 
0.100803 -0.132727 -0.204458 0.162147 -0.195773 -0.205382 0.104693 -0.135354 -0.192759 
0.0955095 -0.103254 0.00174741 0.155889 -0.180932 -0.133155 0.182255 -0.2133 -0.178752 
0.152337 -0.173249 -0.0985186 0.142132 -0.152513 -0.0104643 0.144344 -0.161698 -0.0697827 
0.144086 -0.180877 -0.236547 0.0159976 -0.0221625 -0.00242611 0.14597 -0.176952 -0.1863 
0.0353267 -0.0246823 0.146055 0.0948644 -0.12747 -0.211622 0.128759 -0.14061 -0.0260549 
0.161736 -0.190093 -0.160273 0.0999921 -0.103339 0.0404711 0.0316152 -0.0359393 0.016844 
0.0691586 -0.0779385 -0.0130039 0.123905 -0.152753 -0.172922 0.168958 -0.190303 -0.0985229 
0.090712 -0.118665 -0.172645 0.0960288 -0.0902522 0.117837 0.0828126 -0.0813794 0.0776376 
0.0907609 -0.118545 -0.171187 0.0372495 -0.0388034 0.0418604 0.143538 -0.157666 -0.0422936 
0.0714714 -0.0651924 0.116671 
f 3 100 double
0 0 0 0 0 0 0 0 0 
0 0 0 0 0 0 0 0 0 
0 0 0 0 0 0 0 0 0 
0 0 0 0 0 0 0 0 0 
0 0 0 0 0 0 0 0 0 
0 0 0 0 0 0 0 0 0 
0 0 0 0 0 0 0 0 0 
0 0 0 0 0 0 0 0 0 
0 0 0 0 0 0 0 0 0 
0 0 0 0 0 0 0 0 0 
0 0 0 0 0 0 0.0266726 0.00380707 0.263756 
0 0 0 0 0 0 0 0 0 
0 0 0 0 0 0 0 0 0 
0 0 0 0 0 0 0 0 0 
0 0 0 0 0 0 0 0 0 
0 0 0 0 0 0 0 0 0 
0 0 0 0 0 0 0 0 0 
0 0 0 0 0 0 0 0 0 
0 0 0 0 0 0 0 0 0 
0 0 0 0 0 0 0 0 0 
0 0 0 0 0 0 0 0 0 
0 0 0 0 0 0 0 0 0 
0 0 0 0 0 0 0 0 0 
0 0 0 0 0 0 0 0 0 
0 0 0 0 0 0 0 0 0 
0 0 0 0 0 0 0 0 0 
0 0 0 0 0 0 0 0 0 
0 0 0 0.182231 -0.0157656 0.533665 0 0 0 
0 0 0 0 0 0 0 0 0 
0 0 0 0 0 0 0 0 0 
0 0 0 0 0 0 0 0 0 
0 0 0 0 0 0 0 0 0 
0 0 0 0 0 0 0 0 0 
0 0 0 
radius 1 100 double
0.010434 0.00981478 0.00892069 0.00845937 0.00731974 0.00728422 0.00643447 0.00619172 0.00585956 
0.00577566 0.00537241 0.00522549 0.00513666 0.00473175 0.00466912 0.00444866 0.00441894 0.00400812 
0.00385622 0.00379948 0.00370243 0.00366942 0.00364039 0.00363813 0.00363644 0.00358692 0.0035797 
0.00341284 0.00337012 0.00336273 0.00332772 0.00323261 0.00320584 0.00320311 0.00318808 0.00313116 
0.00306026 0.00305632 0.00304383 0.00300958 0.00300137 0.00298994 0.0029567 0.00295111 0.00290849 
0.00284552 0.00282964 0.0028207 0.00281971 0.00281899 0.010434 0.00981478 0.00892069 0.00845937 
0.00731974 0.00728422 0.00643447 0.00619172 0.00585956 0.00577566 0.00537241 0.00522549 0.00513666 
0.00473175 0.00466912 0.00444866 0.00441894 0.00400812 0.00385622 0.00379948 0.00370243 0.00366942 
0.00364039 0.00363813 0.00363644 0.00358692 0.0035797 0.00341284 0.00337012 0.00336273 0.00332772 
0.00323261 0.00320584 0.00320311 0.00318808 0.00313116 0.00306026 0.00305632 0.00304383 0.00300958 
0.00300137 0.00298994 0.0029567 0.00295111 0.00290849 0.00284552 0.00282964 0.0028207 0.00281971 
0.00281899 
omega 3 100 double
8.04762 8.02241 -1.87451 8.04762 8.02241 -1.87451 8.04762 8.02241 -1.87451 
8.04762 8.02241 -1.87451 8.04762 8.02241 -1.87451 8.04762 8.02241 -1.87451 
8.04762 8.02241 -1.87451 8.04762 8.02241 -1.87451 8.04762 8.02241 -1.87451 
8.04762 8.02241 -1.87451 8.04762 8.02241 -1.87451 8.04762 8.02241 -1.87451 
8.04762 8.02241 -1.87451 8.04762 8.02241 -1.87451 8.04762 8.02241 -1.87451 
8.04762 8.02241 -1.87451 8.04762 8.02241 -1.87451 8.04762 8.02241 -1.87451 
8.04762 8.02241 -1.87451 8.04762 8.02241 -1.87451 8.04762 8.02241 -1.87451 
8.04762 8.02241 -1.87451 8.04762 8.02241 -1.87451 8.04762 8.02241 -1.87451 
8.04762 8.02241 -1.87451 8.04762 8.02241 -1.87451 8.04762 8.02241 -1.87451 
8.04762 8.02241 -1.87451 8.04762 8.02241 -1.87451 8.04762 8.02241 -1.87451 
8.04762 8.02241 -1.87451 8.04762 8.02241 -1.87451 8.04762 8.02241 -1.87451 
8.04762 8.02241 -1.87451 8.04762 8.02241 -1.87451 8.04762 8.02241 -1.87451 
8.04762 8.02241 -1.87451 8.04762 8.02241 -1.87451 8.04762 8.02241 -1.87451 
8.04762 8.02241 -1.87451 8.04762 8.02241 -1.87451 8.04762 8.02241 -1.87451 
8.04762 8.02241 -1.87451 8.04762 8.02241 -1.87451 8.04762 8.02241 -1.87451 
8.04762 8.02241 -1.87451 8.04762 8.02241 -1.87451 8.04762 8.02241 -1.87451 
8.04762 8.02241 -1.87451 8.04762 8.02241 -1.87451 7.20048 7.01807 -0.818247 
7.20048 7.01807 -0.818247 7.20048 7.01807 -0.818247 7.20048 7.01807 -0.818247 
7.20048 7.01807 -0.818247 7.20048 7.01807 -0.818247 7.20048 7.01807 -0.818247 
7.20048 7.01807 -0.818247 7.20048 7.01807 -0.818247 7.20048 7.01807 -0.818247 
7.20048 7.01807 -0.818247 7.20048 7.01807 -0.818247 7.20048 7.01807 -0.818247 
7.20048 7.01807 -0.818247 7.20048 7.01807 -0.818247 7.20048 7.01807 -0.818247 
7.20048 7.01807 -0.818247 7.20048 7.01807 -0.818247 7.20048 7.01807 -0.818247 
7.20048 7.01807 -0.818247 7.20048 7.01807 -0.818247 7.20048 7.01807 -0.818247 
7.20048 7.01807 -0.818247 7.20048 7.01807 -0.818247 7.20048 7.01807 -0.818247 
7.20048 7.01807 -0.818247 7.20048 7.01807 -0.818247 7.20048 7.01807 -0.818247 
7.20048 7.01807 -0.818247 7.20048 7.01807 -0.818247 7.20048 7.01807 -0.818247 
7.20048 7.01807 -0.818247 7.20048 7.01807 -0.818247 7.20048 7.01807 -0.818247 
7.20048 7.01807 -0.818247 7.20048 7.01807 -0.818247 7.20048 7.01807 -0.818247 
7.20048 7.01807 -0.818247 7.20048 7.01807 -0.818247 7.20048 7.01807 -0.818247 
7.20048 7.01807 -0.818247 7.20048 7.01807 -0.818247 7.20048 7.01807 -0.818247 
7.20048 7.01807 -0.818247 7.20048 7.01807 -0.818247 7.20048 7.01807 -0.818247 
7.20048 7.01807 -0.818247 7.20048 7.01807 -0.818247 7.20048 7.01807 -0.818247 
7.20048 7.01807 -0.818247 
