# vtk DataFile Version 4.0
Generated by LIGGGHTS
ASCII
DATASET POLYDATA
POINTS 100 float
-0.118708 -0.157792 0.0121993 -0.128581 -0.154361 0.0118994 -0.138509 -0.152971 0.01208 
-0.125795 -0.165348 0.00981843 -0.112413 -0.166183 0.0123905 -0.134156 -0.16271 0.00937964 
-0.144785 -0.158882 0.00914904 -0.117815 -0.168246 0.00758764 -0.147271 -0.151075 0.0114956 
-0.12191 -0.147868 0.0158173 -0.131662 -0.170356 0.00619182 -0.141092 -0.164463 0.00723946 
-0.127281 -0.14762 0.0193075 -0.12636 -0.172968 0.00486484 -0.13342 -0.148051 0.0182999 
-0.137351 -0.168164 0.00569055 -0.119427 -0.170462 0.0132548 -0.144957 -0.14963 0.0178979 
-0.11728 -0.147398 0.0107139 -0.150821 -0.155391 0.00802151 -0.121531 -0.149276 0.00682858 
-0.130633 -0.17533 0.00350344 -0.113861 -0.16394 0.00495758 -0.105539 -0.166632 0.0158526 
-0.108418 -0.160158 0.0109624 -0.123562 -0.151804 0.0202825 -0.11121 -0.163204 0.0190772 
-0.10828 -0.16855 0.0180783 -0.134817 -0.174091 0.00370471 -0.130738 -0.162961 0.0163388 
-0.137842 -0.172506 0.00398224 -0.111355 -0.170512 0.00633693 -0.133769 -0.148417 0.00601535 
-0.121365 -0.172561 0.00411357 -0.152592 -0.149699 0.00909667 -0.110747 -0.161925 0.00624272 
-0.141978 -0.169387 0.00454419 -0.12215 -0.17281 0.00754815 -0.147578 -0.163594 0.00560559 
-0.127189 -0.144773 0.0146203 -0.138248 -0.158623 0.00489382 -0.122815 -0.169566 0.00293044 
-0.120511 -0.16753 0.0164238 -0.119591 -0.163467 0.00325434 -0.146647 -0.156038 0.0149113 
-0.150555 -0.160129 0.00624379 -0.108329 -0.156558 0.0125251 -0.13027 -0.14523 0.0153785 
-0.141672 -0.172406 0.00396847 -0.138021 -0.147877 0.020038 -0.0471046 -0.127089 0.0114673 
-0.057253 -0.124745 0.0123891 -0.0671691 -0.124418 0.0138375 -0.0535597 -0.135438 0.0101933 
-0.0399492 -0.134748 0.01101 -0.0621474 -0.133725 0.0107964 -0.0730763 -0.131065 0.0118776 
-0.0456592 -0.137544 0.00699941 -0.0760899 -0.12349 0.0143644 -0.0508947 -0.117443 0.0152634 
-0.0592521 -0.141169 0.00747135 -0.0690638 -0.136284 0.00961921 -0.0557705 -0.117648 0.0194202 
-0.0539076 -0.143245 0.0055176 -0.0619028 -0.118767 0.0192335 -0.0651657 -0.139616 0.00767249 
-0.0462787 -0.139719 0.012874 -0.0731508 -0.121583 0.0203772 -0.0470356 -0.116661 0.00958958 
-0.0795555 -0.12828 0.011476 -0.0515141 -0.119117 0.00633401 -0.0580317 -0.146095 0.00477667 
-0.0425729 -0.132935 0.00378472 -0.0326822 -0.134338 0.013552 -0.0368593 -0.128385 0.00894522 
-0.051518 -0.121374 0.0199881 -0.0382378 -0.131424 0.0174177 -0.0348876 -0.136458 0.0161569 
-0.0622666 -0.145304 0.00549734 -0.0578625 -0.133365 0.0172526 -0.065388 -0.144043 0.00613478 
-0.0392014 -0.139149 0.00496246 -0.0637749 -0.1196 0.00711055 -0.0491248 -0.142333 0.00411102 
-0.0817924 -0.122775 0.0126536 -0.0395621 -0.130555 0.00460885 -0.0697373 -0.141365 0.00716711 
-0.0494328 -0.142543 0.00762328 -0.0757616 -0.13617 0.00882983 -0.0565935 -0.114973 0.0147025 
-0.0672053 -0.130259 0.00679941 -0.0510361 -0.139553 0.00306498 -0.0472666 -0.13681 0.0160952 
-0.0484903 -0.133138 0.002836 -0.0744902 -0.128235 0.0177728 -0.0789975 -0.133023 0.00977893 
-0.0369699 -0.124743 0.0104067 -0.0594825 -0.11573 0.0158665 -0.0691755 -0.144353 0.00661991 
-0.0662344 -0.119024 0.0215544 
VERTICES 100 200
1 0 
1 1 
1 2 
1 3 
1 4 
1 5 
1 6 
1 7 
1 8 
1 9 
1 10 
1 11 
1 12 
1 13 
1 14 
1 15 
1 16 
1 17 
1 18 
1 19 
1 20 
1 21 
1 22 
1 23 
1 24 
1 25 
1 26 
1 27 
1 28 
1 29 
1 30 
1 31 
1 32 
1 33 
1 34 
1 35 
1 36 
1 37 
1 38 
1 39 
1 40 
1 41 
1 42 
1 43 
1 44 
1 45 
1 46 
1 47 
1 48 
1 49 
1 50 
1 51 
1 52 
1 53 
1 54 
1 55 
1 56 
1 57 
1 58 
1 59 
1 60 
1 61 
1 62 
1 63 
1 64 
1 65 
1 66 
1 67 
1 68 
1 69 
1 70 
1 71 
1 72 
1 73 
1 74 
1 75 
1 76 
1 77 
1 78 
1 79 
1 80 
1 81 
1 82 
1 83 
1 84 
1 85 
1 86 
1 87 
1 88 
1 89 
1 90 
1 91 
1 92 
1 93 
1 94 
1 95 
1 96 
1 97 
1 98 
1 99 

POINT_DATA 100
FIELD FieldData 7
id 1 100 int
1 2 3 4 5 6 7 8 9 
10 11 12 13 14 15 16 17 18 
19 20 21 22 23 24 25 26 27 
28 29 30 31 32 33 34 35 36 
37 38 39 40 41 42 43 44 45 
46 47 48 49 50 51 52 53 54 
55 56 57 58 59 60 61 62 63 
64 65 66 67 68 69 70 71 72 
73 74 75 76 77 78 79 80 81 
82 83 84 85 86 87 88 89 90 
91 92 93 94 95 96 97 98 99 
100 
mol 1 100 int
1 1 1 1 1 1 1 1 1 
1 1 1 1 1 1 1 1 1 
1 1 1 1 1 1 1 1 1 
1 1 1 1 1 1 1 1 1 
1 1 1 1 1 1 1 1 1 
1 1 1 1 1 2 2 2 2 
2 2 2 2 2 2 2 2 2 
2 2 2 2 2 2 2 2 2 
2 2 2 2 2 2 2 2 2 
2 2 2 2 2 2 2 2 2 
2 2 2 2 2 2 2 2 2 
2 
type 1 100 int
1 1 1 1 1 1 1 1 1 
1 1 1 1 1 1 1 1 1 
1 1 1 1 1 1 1 1 1 
1 1 1 1 1 1 1 1 1 
1 1 1 1 1 1 1 1 1 
1 1 1 1 1 1 1 1 1 
1 1 1 1 1 1 1 1 1 
1 1 1 1 1 1 1 1 1 
1 1 1 1 1 1 1 1 1 
1 1 1 1 1 1 1 1 1 
1 1 1 1 1 1 1 1 1 
1 
v 3 100 double
-0.126294 -0.0930528 0.174598 -0.124223 -0.0937822 0.0980905 -0.126271 -0.0970253 0.0104273 
-0.101784 -0.0823063 0.0675298 -0.126174 -0.0925875 0.191088 -0.0982025 -0.0819623 0.00135521 
-0.0968863 -0.0832281 -0.0803202 -0.0797905 -0.0688456 0.128722 -0.121125 -0.0960168 -0.063453 
-0.163176 -0.112624 0.195637 -0.0659599 -0.0647938 -0.0146045 -0.0773401 -0.0724336 -0.0740683 
-0.196592 -0.132034 0.14559 -0.0526707 -0.056658 0.0224726 -0.186862 -0.128215 0.0846701 
-0.0616774 -0.0635049 -0.0575711 -0.133442 -0.0987123 0.101787 -0.182653 -0.128799 -0.0338171 
-0.114507 -0.084991 0.242332 -0.0869196 -0.0787606 -0.11984 -0.0769364 -0.0657573 0.191932 
-0.0391108 -0.0505641 -0.0306512 -0.0556516 -0.0542408 0.188927 -0.15916 -0.10901 0.25445 
-0.113923 -0.0842286 0.260629 -0.20494 -0.136245 0.159363 -0.190776 -0.127107 0.218096 
-0.179989 -0.121229 0.218273 -0.041322 -0.0525822 -0.0641926 -0.164659 -0.117387 0.0327106 
-0.0443423 -0.0547284 -0.0848606 -0.0673106 -0.060838 0.178672 -0.0693628 -0.0643642 0.0794309 
-0.0455846 -0.0515893 0.0723351 -0.0985164 -0.0847668 -0.107144 -0.0684023 -0.0602065 0.229178 
-0.0504369 -0.0586124 -0.108157 -0.0783542 -0.0696458 0.0635356 -0.0619254 -0.0654353 -0.13154 
-0.152453 -0.10762 0.161284 -0.0562757 -0.0595666 -0.0164919 -0.0349713 -0.0457685 0.0740631 
-0.164411 -0.115456 0.10668 -0.039482 -0.0467061 0.136621 -0.152621 -0.113648 -0.0833172 
-0.0688292 -0.0694474 -0.141963 -0.129693 -0.0923402 0.280213 -0.159594 -0.11228 0.129462 
-0.0442338 -0.0555451 -0.120942 -0.203515 -0.138327 0.0416063 -0.098015 -0.176304 0.109876 
-0.104541 -0.184121 0.0579121 -0.116785 -0.199977 -0.022343 -0.0920275 -0.153355 -0.0708731 
-0.0986313 -0.173685 0.0563661 -0.09619 -0.157312 -0.118902 -0.103897 -0.167057 -0.172835 
-0.0658489 -0.110104 -0.0346251 -0.120759 -0.202595 -0.08502 -0.124893 -0.231032 0.222098 
-0.0720518 -0.109125 -0.20576 -0.0875987 -0.135542 -0.216699 -0.160709 -0.290528 0.177159 
-0.0565056 -0.082971 -0.191024 -0.15977 -0.284089 0.107705 -0.0728579 -0.108636 -0.233232 
-0.117586 -0.197907 -0.0725901 -0.171262 -0.294584 -0.0311486 -0.0757054 -0.148163 0.266981 
-0.0987967 -0.157188 -0.186669 -0.0492058 -0.0966442 0.191652 -0.0518337 -0.0694045 -0.269222 
-0.0355101 -0.0636856 0.0610401 -0.120217 -0.216147 0.124919 -0.0771259 -0.144528 0.178405 
-0.167797 -0.301575 0.157756 -0.151685 -0.270872 0.12095 -0.143844 -0.253937 0.0741607 
-0.0575531 -0.077709 -0.293714 -0.151418 -0.256754 -0.0767001 -0.0622789 -0.0854249 -0.301588 
-0.0493093 -0.0833618 -0.00327099 -0.0561605 -0.101027 0.0791177 -0.0438862 -0.0646967 -0.136274 
-0.105644 -0.173535 -0.123261 -0.0411753 -0.0778406 0.12262 -0.0695557 -0.0983393 -0.29875 
-0.0741718 -0.117229 -0.14207 -0.0807529 -0.119721 -0.272515 -0.11861 -0.219232 0.210232 
-0.0598109 -0.0943222 -0.110321 -0.0332547 -0.0478633 -0.110965 -0.143522 -0.245668 -0.037417 
-0.0274829 -0.0459365 0.00719213 -0.152843 -0.254699 -0.142498 -0.0870361 -0.132047 -0.253058 
-0.0875165 -0.166398 0.232112 -0.129055 -0.23499 0.174069 -0.0666287 -0.0904597 -0.338763 
-0.179853 -0.316354 0.0666482 
f 3 100 double
0 0 0 0 0 0 0 0 0 
0 0 0 0 0 0 0 0 0 
0 0 0 0 0 0 0 0 0 
0 0 0 0 0 0 0 0 0 
0 0 0 0 0 0 0 0 0 
0 0 0 0 0 0 0 0 0 
0 0 0 0 0 0 0 0 0 
0.0908501 1.12786 1.50919 0 0 0 0 0 0 
0 0 0 0 0 0 0 0 0 
0 0 0 0 0 0 0 0 0 
0 0 0 0 0 0 0 0 0 
0 0 0 0 0 0 0 0 0 
0 0 0 0 0 0 0 0 0 
0 0 0 0 0 0 0.0813552 0.457549 -0.544456 
0 0 0 0 0 0 0 0 0 
0 0 0 0 0 0 0 0 0 
0 0 0 0 0 0 0 0 0 
0 0 0 0 0 0 0 0 0 
0 0 0 0 0 0 0 0 0 
0 0 0 0 0 0 0 0 0 
0 0 0 0 0 0 0 0 0 
0 0 0 0 0 0 0 0 0 
0 0 0 0 0 0 0 0 0 
0 0 0 0 0 0 0 0 0 
0 0 0 0 0 0 0 0 0 
0 0 0 0 0 0 0 0 0 
0 0 0 0 0 0 0 0 0 
0 0 0 0 0 0 0 0 0 
0 0 0 0 0 0 0 0 0 
0 0 0 0 0 0 0 0 0 
0 0 0 0 0 0 0 0 0 
-0.159306 0.128221 0.474832 0 0 0 0 0 0 
0 0 0 0 0 0 0 0 0 
0 0 0 
radius 1 100 double
0.010434 0.00981478 0.00892069 0.00845937 0.00731974 0.00728422 0.00643447 0.00619172 0.00585956 
0.00577566 0.00537241 0.00522549 0.00513666 0.00473175 0.00466912 0.00444866 0.00441894 0.00400812 
0.00385622 0.00379948 0.00370243 0.00366942 0.00364039 0.00363813 0.00363644 0.00358692 0.0035797 
0.00341284 0.00337012 0.00336273 0.00332772 0.00323261 0.00320584 0.00320311 0.00318808 0.00313116 
0.00306026 0.00305632 0.00304383 0.00300958 0.00300137 0.00298994 0.0029567 0.00295111 0.00290849 
0.00284552 0.00282964 0.0028207 0.00281971 0.00281899 0.010434 0.00981478 0.00892069 0.00845937 
0.00731974 0.00728422 0.00643447 0.00619172 0.00585956 0.00577566 0.00537241 0.00522549 0.00513666 
0.00473175 0.00466912 0.00444866 0.00441894 0.00400812 0.00385622 0.00379948 0.00370243 0.00366942 
0.00364039 0.00363813 0.00363644 0.00358692 0.0035797 0.00341284 0.00337012 0.00336273 0.00332772 
0.00323261 0.00320584 0.00320311 0.00318808 0.00313116 0.00306026 0.00305632 0.00304383 0.00300958 
0.00300137 0.00298994 0.0029567 0.00295111 0.00290849 0.00284552 0.00282964 0.0028207 0.00281971 
0.00281899 
omega 3 100 double
5.2042 -9.55785 0.231992 5.2042 -9.55785 0.231992 5.2042 -9.55785 0.231992 
5.2042 -9.55785 0.231992 5.2042 -9.55785 0.231992 5.2042 -9.55785 0.231992 
5.2042 -9.55785 0.231992 5.2042 -9.55785 0.231992 5.2042 -9.55785 0.231992 
5.2042 -9.55785 0.231992 5.2042 -9.55785 0.231992 5.2042 -9.55785 0.231992 
5.2042 -9.55785 0.231992 5.2042 -9.55785 0.231992 5.2042 -9.55785 0.231992 
5.2042 -9.55785 0.231992 5.2042 -9.55785 0.231992 5.2042 -9.55785 0.231992 
5.2042 -9.55785 0.231992 5.2042 -9.55785 0.231992 5.2042 -9.55785 0.231992 
5.2042 -9.55785 0.231992 5.2042 -9.55785 0.231992 5.2042 -9.55785 0.231992 
5.2042 -9.55785 0.231992 5.2042 -9.55785 0.231992 5.2042 -9.55785 0.231992 
5.2042 -9.55785 0.231992 5.2042 -9.55785 0.231992 5.2042 -9.55785 0.231992 
5.2042 -9.55785 0.231992 5.2042 -9.55785 0.231992 5.2042 -9.55785 0.231992 
5.2042 -9.55785 0.231992 5.2042 -9.55785 0.231992 5.2042 -9.55785 0.231992 
5.2042 -9.55785 0.231992 5.2042 -9.55785 0.231992 5.2042 -9.55785 0.231992 
5.2042 -9.55785 0.231992 5.2042 -9.55785 0.231992 5.2042 -9.55785 0.231992 
5.2042 -9.55785 0.231992 5.2042 -9.55785 0.231992 5.2042 -9.55785 0.231992 
5.2042 -9.55785 0.231992 5.2042 -9.55785 0.231992 5.2042 -9.55785 0.231992 
5.2042 -9.55785 0.231992 5.2042 -9.55785 0.231992 15.0089 -8.58735 -0.593134 
15.0089 -8.58735 -0.593134 15.0089 -8.58735 -0.593134 15.0089 -8.58735 -0.593134 
15.0089 -8.58735 -0.593134 15.0089 -8.58735 -0.593134 15.0089 -8.58735 -0.593134 
15.0089 -8.58735 -0.593134 15.0089 -8.58735 -0.593134 15.0089 -8.58735 -0.593134 
15.0089 -8.58735 -0.593134 15.0089 -8.58735 -0.593134 15.0089 -8.58735 -0.593134 
15.0089 -8.58735 -0.593134 15.0089 -8.58735 -0.593134 15.0089 -8.58735 -0.593134 
15.0089 -8.58735 -0.593134 15.0089 -8.58735 -0.593134 15.0089 -8.58735 -0.593134 
15.0089 -8.58735 -0.593134 15.0089 -8.58735 -0.593134 15.0089 -8.58735 -0.593134 
15.0089 -8.58735 -0.593134 15.0089 -8.58735 -0.593134 15.0089 -8.58735 -0.593134 
15.0089 -8.58735 -0.593134 15.0089 -8.58735 -0.593134 15.0089 -8.58735 -0.593134 
15.0089 -8.58735 -0.593134 15.0089 -8.58735 -0.593134 15.0089 -8.58735 -0.593134 
15.0089 -8.58735 -0.593134 15.0089 -8.58735 -0.593134 15.0089 -8.58735 -0.593134 
15.0089 -8.58735 -0.593134 15.0089 -8.58735 -0.593134 15.0089 -8.58735 -0.593134 
15.0089 -8.58735 -0.593134 15.0089 -8.58735 -0.593134 15.0089 -8.58735 -0.593134 
15.0089 -8.58735 -0.593134 15.0089 -8.58735 -0.593134 15.0089 -8.58735 -0.593134 
15.0089 -8.58735 -0.593134 15.0089 -8.58735 -0.593134 15.0089 -8.58735 -0.593134 
15.0089 -8.58735 -0.593134 15.0089 -8.58735 -0.593134 15.0089 -8.58735 -0.593134 
15.0089 -8.58735 -0.593134 
