# vtk DataFile Version 4.0
Generated by LIGGGHTS
ASCII
DATASET POLYDATA
POINTS 100 float
-0.119203 -0.158061 0.0128751 -0.129065 -0.154638 0.012274 -0.138996 -0.153261 0.0121309 
-0.126195 -0.165601 0.0101798 -0.112907 -0.166447 0.0131967 -0.134539 -0.162967 0.00948344 
-0.14516 -0.159149 0.00892981 -0.11814 -0.168467 0.00819281 -0.147736 -0.151368 0.0112679 
-0.12254 -0.148178 0.0164806 -0.131928 -0.170579 0.0063064 -0.141396 -0.164707 0.00709148 
-0.128027 -0.14797 0.0197885 -0.126581 -0.173172 0.00513444 -0.134128 -0.148397 0.0185687 
-0.1376 -0.168388 0.0056339 -0.11994 -0.170742 0.0137796 -0.145643 -0.149985 0.0177592 
-0.117741 -0.147651 0.0115424 -0.151159 -0.155653 0.00763257 -0.121854 -0.149495 0.00749641 
-0.130801 -0.175524 0.00360526 -0.114104 -0.164132 0.00574155 -0.106154 -0.166923 0.0168858 
-0.108874 -0.160404 0.0119651 -0.124337 -0.15216 0.0208478 -0.111935 -0.163534 0.0199497 
-0.108966 -0.168866 0.0189979 -0.134991 -0.174292 0.00367655 -0.13136 -0.163284 0.0165519 
-0.138026 -0.172713 0.00386685 -0.111638 -0.170714 0.00713988 -0.134059 -0.148642 0.00627637 
-0.121563 -0.172752 0.00455743 -0.152974 -0.149974 0.00870342 -0.111039 -0.162126 0.00715171 
-0.142183 -0.169604 0.00431889 -0.122465 -0.173036 0.00796071 -0.147825 -0.163829 0.00524686 
-0.127781 -0.145076 0.0151357 -0.138483 -0.158841 0.00490197 -0.122977 -0.169747 0.00335552 
-0.121135 -0.167843 0.0169389 -0.119774 -0.163648 0.00384937 -0.147221 -0.156365 0.0146534 
-0.150827 -0.160373 0.00581792 -0.108844 -0.156819 0.0135656 -0.130885 -0.145544 0.0157842 
-0.141853 -0.172617 0.00372395 -0.138785 -0.148245 0.0201512 -0.0475246 -0.127746 0.0119852 
-0.0577007 -0.125434 0.0126477 -0.0676638 -0.125165 0.0137414 -0.0539267 -0.136009 0.010048 
-0.0403561 -0.135385 0.011404 -0.0625312 -0.134313 0.0104181 -0.0734931 -0.131693 0.0112267 
-0.0459126 -0.137962 0.00704658 -0.0765982 -0.124249 0.0139831 -0.0514547 -0.1183 0.016125 
-0.0595131 -0.141583 0.00682755 -0.0693986 -0.136796 0.00885576 -0.0564817 -0.118708 0.0200819 
-0.0540993 -0.143566 0.00497037 -0.0626027 -0.119805 0.0196107 -0.0654303 -0.140031 0.00688778 
-0.0467499 -0.140433 0.0127754 -0.073885 -0.122656 0.0201905 -0.0473873 -0.117236 0.0106458 
-0.0799533 -0.128879 0.0107273 -0.0517413 -0.119516 0.00710501 -0.0581926 -0.146367 0.00393225 
-0.0427095 -0.133201 0.00418808 -0.0331888 -0.135118 0.0142318 -0.0371924 -0.12893 0.00978276 
-0.0522528 -0.122465 0.0206167 -0.0388848 -0.132395 0.0180321 -0.0354893 -0.137364 0.0166414 
-0.0624515 -0.145607 0.00453448 -0.0584895 -0.13429 0.017039 -0.0655947 -0.144374 0.00511902 
-0.0393832 -0.139473 0.00517172 -0.0640224 -0.120016 0.00739977 -0.0492677 -0.142592 0.00379081 
-0.0822332 -0.123438 0.0121003 -0.0397318 -0.130872 0.00524388 -0.0699797 -0.141745 0.00612428 
-0.0497061 -0.14298 0.00727391 -0.0760624 -0.136631 0.00782485 -0.0571291 -0.115795 0.0154794 
-0.0674374 -0.130639 0.00641798 -0.0511392 -0.139759 0.00281766 -0.0478573 -0.13769 0.0161019 
-0.0485875 -0.133345 0.00301105 -0.0751257 -0.129164 0.0172021 -0.0793318 -0.13353 0.00881242 
-0.0373578 -0.125367 0.011423 -0.0600593 -0.116604 0.0164953 -0.0693975 -0.144701 0.00544664 
-0.0670176 -0.120172 0.0217528 
VERTICES 100 200
1 0 
1 1 
1 2 
1 3 
1 4 
1 5 
1 6 
1 7 
1 8 
1 9 
1 10 
1 11 
1 12 
1 13 
1 14 
1 15 
1 16 
1 17 
1 18 
1 19 
1 20 
1 21 
1 22 
1 23 
1 24 
1 25 
1 26 
1 27 
1 28 
1 29 
1 30 
1 31 
1 32 
1 33 
1 34 
1 35 
1 36 
1 37 
1 38 
1 39 
1 40 
1 41 
1 42 
1 43 
1 44 
1 45 
1 46 
1 47 
1 48 
1 49 
1 50 
1 51 
1 52 
1 53 
1 54 
1 55 
1 56 
1 57 
1 58 
1 59 
1 60 
1 61 
1 62 
1 63 
1 64 
1 65 
1 66 
1 67 
1 68 
1 69 
1 70 
1 71 
1 72 
1 73 
1 74 
1 75 
1 76 
1 77 
1 78 
1 79 
1 80 
1 81 
1 82 
1 83 
1 84 
1 85 
1 86 
1 87 
1 88 
1 89 
1 90 
1 91 
1 92 
1 93 
1 94 
1 95 
1 96 
1 97 
1 98 
1 99 

POINT_DATA 100
FIELD FieldData 7
id 1 100 int
1 2 3 4 5 6 7 8 9 
10 11 12 13 14 15 16 17 18 
19 20 21 22 23 24 25 26 27 
28 29 30 31 32 33 34 35 36 
37 38 39 40 41 42 43 44 45 
46 47 48 49 50 51 52 53 54 
55 56 57 58 59 60 61 62 63 
64 65 66 67 68 69 70 71 72 
73 74 75 76 77 78 79 80 81 
82 83 84 85 86 87 88 89 90 
91 92 93 94 95 96 97 98 99 
100 
mol 1 100 int
1 1 1 1 1 1 1 1 1 
1 1 1 1 1 1 1 1 1 
1 1 1 1 1 1 1 1 1 
1 1 1 1 1 1 1 1 1 
1 1 1 1 1 1 1 1 1 
1 1 1 1 1 2 2 2 2 
2 2 2 2 2 2 2 2 2 
2 2 2 2 2 2 2 2 2 
2 2 2 2 2 2 2 2 2 
2 2 2 2 2 2 2 2 2 
2 2 2 2 2 2 2 2 2 
2 
type 1 100 int
1 1 1 1 1 1 1 1 1 
1 1 1 1 1 1 1 1 1 
1 1 1 1 1 1 1 1 1 
1 1 1 1 1 1 1 1 1 
1 1 1 1 1 1 1 1 1 
1 1 1 1 1 1 1 1 1 
1 1 1 1 1 1 1 1 1 
1 1 1 1 1 1 1 1 1 
1 1 1 1 1 1 1 1 1 
1 1 1 1 1 1 1 1 1 
1 1 1 1 1 1 1 1 1 
1 
v 3 100 double
-0.124048 -0.0611246 0.154003 -0.120179 -0.0632774 0.0782862 -0.11944 -0.0662401 -0.00151892 
-0.0993087 -0.0587491 0.0831825 -0.123999 -0.0596432 0.191681 -0.0943974 -0.0602479 0.0186654 
-0.09105 -0.0627276 -0.0626525 -0.0819407 -0.0527297 0.144907 -0.112911 -0.0675804 -0.0705864 
-0.157075 -0.0684024 0.143384 -0.0656491 -0.0539411 0.0271848 -0.0740427 -0.0583505 -0.0410669 
-0.184514 -0.0758635 0.0983374 -0.0551138 -0.0501982 0.0669725 -0.174282 -0.0757373 0.0471198 
-0.0607924 -0.0546174 -0.0159805 -0.127435 -0.0629178 0.126104 -0.167071 -0.0780659 -0.0508867 
-0.116383 -0.0583603 0.184003 -0.0814455 -0.0624355 -0.106282 -0.0823086 -0.0527324 0.146794 
-0.0417003 -0.0489324 0.028006 -0.0630584 -0.0472107 0.185756 -0.154371 -0.0638045 0.246741 
-0.115761 -0.0562223 0.235444 -0.191925 -0.0764926 0.121666 -0.180819 -0.0709411 0.204731 
-0.17122 -0.0683451 0.22013 -0.0426883 -0.0504088 -0.00454595 -0.152784 -0.0713749 0.0444287 
-0.0447731 -0.0517168 -0.0269468 -0.0725022 -0.0488182 0.194846 -0.0724889 -0.054578 0.0472739 
-0.0504748 -0.0475847 0.109212 -0.0921415 -0.0648631 -0.111531 -0.0753751 -0.0486449 0.214572 
-0.0495182 -0.0538372 -0.055998 -0.078544 -0.0537279 0.101267 -0.0590629 -0.0572557 -0.0927481 
-0.146949 -0.0677832 0.105355 -0.0578208 -0.0536441 -0.00686878 -0.0415005 -0.0459747 0.102685 
-0.154513 -0.0687365 0.121196 -0.0475575 -0.045789 0.139675 -0.139311 -0.0732354 -0.0749181 
-0.0649048 -0.0592077 -0.111648 -0.130162 -0.0589644 0.24186 -0.152164 -0.0699013 0.0788669 
-0.0436217 -0.0527076 -0.058449 -0.187426 -0.0799631 0.00884547 -0.113274 -0.141895 0.155429 
-0.120506 -0.15126 0.0770281 -0.131522 -0.164941 -0.0199528 -0.0917363 -0.123917 0.00757564 
-0.10547 -0.134136 0.149719 -0.0958822 -0.129909 -0.0613469 -0.104657 -0.14096 -0.144488 
-0.0611896 -0.0913982 0.0679748 -0.134179 -0.169717 -0.100085 -0.157164 -0.184895 0.211878 
-0.0580557 -0.0927154 -0.104854 -0.0795995 -0.115853 -0.155257 -0.196659 -0.226325 0.157434 
-0.0389527 -0.0724753 -0.0707804 -0.191657 -0.223139 0.0850489 -0.059062 -0.0948655 -0.148346 
-0.117883 -0.149706 0.0345425 -0.196719 -0.231954 -0.0567739 -0.102603 -0.128278 0.263374 
-0.10039 -0.137577 -0.180613 -0.0665731 -0.093507 0.196685 -0.0278341 -0.0630137 -0.140157 
-0.0338196 -0.0615799 0.148304 -0.133841 -0.160946 0.224156 -0.0909236 -0.116874 0.246833 
-0.201033 -0.230647 0.161658 -0.172583 -0.200962 0.194762 -0.157373 -0.185978 0.178356 
-0.0340593 -0.0702282 -0.175066 -0.162151 -0.195993 -0.0206633 -0.0402301 -0.0769731 -0.194025 
-0.0420325 -0.0706887 0.117998 -0.0693931 -0.0996908 0.0686998 -0.0274006 -0.0592577 -0.012553 
-0.115547 -0.152091 -0.148257 -0.0449923 -0.071511 0.20173 -0.0509749 -0.0883071 -0.211252 
-0.0621593 -0.0946902 -0.020877 -0.069325 -0.107133 -0.220276 -0.151354 -0.179825 0.180493 
-0.0568035 -0.0906239 -0.0731973 -0.0183981 -0.0498769 -0.00255775 -0.151888 -0.183725 0.051267 
-0.0220024 -0.0511741 0.088025 -0.165117 -0.201974 -0.135189 -0.0800154 -0.117998 -0.221553 
-0.108267 -0.13355 0.281302 -0.16131 -0.190887 0.142956 -0.0434238 -0.0812844 -0.235405 
-0.213001 -0.246009 0.0371366 
f 3 100 double
0 0 0 0 0 0 0 0 0 
0 0 0 0 0 0 0 0 0 
0 0 0 0 0 0 0 0 0 
0 0 0 0 0 0 0 0 0 
0 0 0 0 0 0 0 0 0 
0 0 0 0 0 0 0 0 0 
0 0 0 0 0 0 0 0 0 
0.00618025 0.0225388 -0.0467416 0 0 0 0 0 0 
0 0 0 0 0 0 0 0 0 
0 0 0 0 0 0 0 0 0 
0 0 0 0 0 0 0 0 0 
0 0 0 0 0 0 0 0 0 
0 0 0 0 0 0 0 0 0 
0 0 0 0 0 0 0 0 0 
0 0 0 0 0 0 0 0 0 
0 0 0 0 0 0 0 0 0 
0 0 0 0 0 0 0 0 0 
0 0 0 0 0 0 0 0 0 
0 0 0 0 0 0 0 0 0 
0 0 0 0 0 0 0 0 0 
0 0 0 0 0 0 0 0 0 
0 0 0 0 0 0 0 0 0 
0 0 0 0 0 0 0 0 0 
0 0 0 0 0 0 0 0 0 
0 0 0 0 0 0 0 0 0 
0 0 0 0 0 0 0 0 0 
0 0 0 0 0 0 0 0 0 
0 0 0 0 0 0 0 0 0 
0 0 0 0 0 0 0 0 0 
0 0 0 0 0 0 0 0 0 
0 0 0 -0.192716 0.576734 1.06922 0 0 0 
0 0 0 0 0 0 0 0 0 
0 0 0 0 0 0 0 0 0 
0 0 0 
radius 1 100 double
0.010434 0.00981478 0.00892069 0.00845937 0.00731974 0.00728422 0.00643447 0.00619172 0.00585956 
0.00577566 0.00537241 0.00522549 0.00513666 0.00473175 0.00466912 0.00444866 0.00441894 0.00400812 
0.00385622 0.00379948 0.00370243 0.00366942 0.00364039 0.00363813 0.00363644 0.00358692 0.0035797 
0.00341284 0.00337012 0.00336273 0.00332772 0.00323261 0.00320584 0.00320311 0.00318808 0.00313116 
0.00306026 0.00305632 0.00304383 0.00300958 0.00300137 0.00298994 0.0029567 0.00295111 0.00290849 
0.00284552 0.00282964 0.0028207 0.00281971 0.00281899 0.010434 0.00981478 0.00892069 0.00845937 
0.00731974 0.00728422 0.00643447 0.00619172 0.00585956 0.00577566 0.00537241 0.00522549 0.00513666 
0.00473175 0.00466912 0.00444866 0.00441894 0.00400812 0.00385622 0.00379948 0.00370243 0.00366942 
0.00364039 0.00363813 0.00363644 0.00358692 0.0035797 0.00341284 0.00337012 0.00336273 0.00332772 
0.00323261 0.00320584 0.00320311 0.00318808 0.00313116 0.00306026 0.00305632 0.00304383 0.00300958 
0.00300137 0.00298994 0.0029567 0.00295111 0.00290849 0.00284552 0.00282964 0.0028207 0.00281971 
0.00281899 
omega 3 100 double
1.71951 -8.27464 0.323117 1.71951 -8.27464 0.323117 1.71951 -8.27464 0.323117 
1.71951 -8.27464 0.323117 1.71951 -8.27464 0.323117 1.71951 -8.27464 0.323117 
1.71951 -8.27464 0.323117 1.71951 -8.27464 0.323117 1.71951 -8.27464 0.323117 
1.71951 -8.27464 0.323117 1.71951 -8.27464 0.323117 1.71951 -8.27464 0.323117 
1.71951 -8.27464 0.323117 1.71951 -8.27464 0.323117 1.71951 -8.27464 0.323117 
1.71951 -8.27464 0.323117 1.71951 -8.27464 0.323117 1.71951 -8.27464 0.323117 
1.71951 -8.27464 0.323117 1.71951 -8.27464 0.323117 1.71951 -8.27464 0.323117 
1.71951 -8.27464 0.323117 1.71951 -8.27464 0.323117 1.71951 -8.27464 0.323117 
1.71951 -8.27464 0.323117 1.71951 -8.27464 0.323117 1.71951 -8.27464 0.323117 
1.71951 -8.27464 0.323117 1.71951 -8.27464 0.323117 1.71951 -8.27464 0.323117 
1.71951 -8.27464 0.323117 1.71951 -8.27464 0.323117 1.71951 -8.27464 0.323117 
1.71951 -8.27464 0.323117 1.71951 -8.27464 0.323117 1.71951 -8.27464 0.323117 
1.71951 -8.27464 0.323117 1.71951 -8.27464 0.323117 1.71951 -8.27464 0.323117 
1.71951 -8.27464 0.323117 1.71951 -8.27464 0.323117 1.71951 -8.27464 0.323117 
1.71951 -8.27464 0.323117 1.71951 -8.27464 0.323117 1.71951 -8.27464 0.323117 
1.71951 -8.27464 0.323117 1.71951 -8.27464 0.323117 1.71951 -8.27464 0.323117 
1.71951 -8.27464 0.323117 1.71951 -8.27464 0.323117 10.1399 -10.0082 0.260147 
10.1399 -10.0082 0.260147 10.1399 -10.0082 0.260147 10.1399 -10.0082 0.260147 
10.1399 -10.0082 0.260147 10.1399 -10.0082 0.260147 10.1399 -10.0082 0.260147 
10.1399 -10.0082 0.260147 10.1399 -10.0082 0.260147 10.1399 -10.0082 0.260147 
10.1399 -10.0082 0.260147 10.1399 -10.0082 0.260147 10.1399 -10.0082 0.260147 
10.1399 -10.0082 0.260147 10.1399 -10.0082 0.260147 10.1399 -10.0082 0.260147 
10.1399 -10.0082 0.260147 10.1399 -10.0082 0.260147 10.1399 -10.0082 0.260147 
10.1399 -10.0082 0.260147 10.1399 -10.0082 0.260147 10.1399 -10.0082 0.260147 
10.1399 -10.0082 0.260147 10.1399 -10.0082 0.260147 10.1399 -10.0082 0.260147 
10.1399 -10.0082 0.260147 10.1399 -10.0082 0.260147 10.1399 -10.0082 0.260147 
10.1399 -10.0082 0.260147 10.1399 -10.0082 0.260147 10.1399 -10.0082 0.260147 
10.1399 -10.0082 0.260147 10.1399 -10.0082 0.260147 10.1399 -10.0082 0.260147 
10.1399 -10.0082 0.260147 10.1399 -10.0082 0.260147 10.1399 -10.0082 0.260147 
10.1399 -10.0082 0.260147 10.1399 -10.0082 0.260147 10.1399 -10.0082 0.260147 
10.1399 -10.0082 0.260147 10.1399 -10.0082 0.260147 10.1399 -10.0082 0.260147 
10.1399 -10.0082 0.260147 10.1399 -10.0082 0.260147 10.1399 -10.0082 0.260147 
10.1399 -10.0082 0.260147 10.1399 -10.0082 0.260147 10.1399 -10.0082 0.260147 
10.1399 -10.0082 0.260147 
