# vtk DataFile Version 4.0
Generated by LIGGGHTS
ASCII
DATASET POLYDATA
POINTS 100 float
-0.110455 -0.130107 0.0208511 -0.120868 -0.131042 0.0206513 -0.13075 -0.131223 0.0223367 
-0.114808 -0.131555 0.0304408 -0.101961 -0.128663 0.0268375 -0.123534 -0.132494 0.0305466 
-0.13479 -0.133427 0.030194 -0.106212 -0.133232 0.0310284 -0.139629 -0.132212 0.0232838 
-0.116682 -0.127933 0.0120018 -0.118688 -0.134565 0.0374075 -0.129493 -0.134493 0.0345799 
-0.122074 -0.124602 0.0129654 -0.11278 -0.135431 0.0384276 -0.127734 -0.125647 0.0153652 
-0.124733 -0.135458 0.0371301 -0.107411 -0.127344 0.0329039 -0.138227 -0.126028 0.0204163 
-0.112119 -0.132972 0.0107867 -0.141519 -0.135125 0.0288732 -0.115381 -0.136637 0.0143382 
-0.116065 -0.136531 0.0421271 -0.103581 -0.136357 0.0260878 -0.0954792 -0.125055 0.0247385 
-0.0998752 -0.130832 0.0201107 -0.117336 -0.123001 0.0156637 -0.102092 -0.122426 0.022823 
-0.0976448 -0.122635 0.0271054 -0.120432 -0.136572 0.0422046 -0.120606 -0.125508 0.0288754 
-0.123803 -0.136566 0.0415935 -0.0993085 -0.13405 0.0313598 -0.127247 -0.137771 0.0173515 
-0.108101 -0.136145 0.0366177 -0.14497 -0.134867 0.0239021 -0.101292 -0.135305 0.0230769 
-0.128708 -0.136506 0.0398355 -0.108973 -0.132722 0.0366623 -0.135836 -0.136342 0.0359361 
-0.122568 -0.129632 0.0108336 -0.128395 -0.137565 0.0284924 -0.11031 -0.137751 0.0343778 
-0.109503 -0.124624 0.0300694 -0.109082 -0.138207 0.0275968 -0.137747 -0.12814 0.0273547 
-0.139746 -0.136234 0.0334894 -0.100958 -0.129774 0.0164887 -0.125409 -0.128871 0.0121076 
-0.12748 -0.136659 0.0426654 -0.132269 -0.124028 0.016383 -0.0415896 -0.102318 0.0215483 
-0.0519924 -0.103263 0.0210723 -0.0619146 -0.103468 0.0225005 -0.0461864 -0.103849 0.0310104 
-0.0332544 -0.100915 0.0277633 -0.0549118 -0.104798 0.0308834 -0.0661534 -0.10574 0.030233 
-0.0376062 -0.105522 0.0318062 -0.0708143 -0.104474 0.0232102 -0.047589 -0.10008 0.012559 
-0.0502414 -0.106919 0.0378502 -0.0609699 -0.106836 0.0347454 -0.053008 -0.0967625 0.01341 
-0.0443611 -0.107787 0.0390154 -0.0587272 -0.0978325 0.0156544 -0.0562766 -0.107816 0.0374097 
-0.0388607 -0.0996501 0.0336975 -0.0693462 -0.0982652 0.0204297 -0.0429895 -0.105104 0.0114215 
-0.0728435 -0.107434 0.0287252 -0.046338 -0.108802 0.0148579 -0.0477384 -0.10892 0.0426199 
-0.0348451 -0.108604 0.0269101 -0.0267254 -0.0972826 0.0258615 -0.0309933 -0.103027 0.0210753 
-0.0483436 -0.0951785 0.0162424 -0.0332895 -0.0946457 0.0237972 -0.0289543 -0.0948849 0.0281911 
-0.052106 -0.108967 0.0425844 -0.0519503 -0.0977952 0.0293447 -0.0554607 -0.108959 0.0418866 
-0.030713 -0.106335 0.032309 -0.0582763 -0.109971 0.0175548 -0.0396354 -0.108482 0.0373212 
-0.0761659 -0.10714 0.023669 -0.0324806 -0.107526 0.0239679 -0.0603186 -0.10889 0.040003 
-0.0405127 -0.105061 0.0373709 -0.0673439 -0.108702 0.0359225 -0.0534404 -0.101775 0.0112257 
-0.0597119 -0.109857 0.0286636 -0.0417838 -0.110071 0.0350121 -0.040883 -0.0969095 0.0308319 
-0.0403805 -0.110472 0.0282617 -0.0690432 -0.100433 0.0273609 -0.0711889 -0.108579 0.0333767 
-0.0319834 -0.101941 0.0174352 -0.0563145 -0.101028 0.012432 -0.0591638 -0.109065 0.0428624 
-0.0632882 -0.0962268 0.0165678 
VERTICES 100 200
1 0 
1 1 
1 2 
1 3 
1 4 
1 5 
1 6 
1 7 
1 8 
1 9 
1 10 
1 11 
1 12 
1 13 
1 14 
1 15 
1 16 
1 17 
1 18 
1 19 
1 20 
1 21 
1 22 
1 23 
1 24 
1 25 
1 26 
1 27 
1 28 
1 29 
1 30 
1 31 
1 32 
1 33 
1 34 
1 35 
1 36 
1 37 
1 38 
1 39 
1 40 
1 41 
1 42 
1 43 
1 44 
1 45 
1 46 
1 47 
1 48 
1 49 
1 50 
1 51 
1 52 
1 53 
1 54 
1 55 
1 56 
1 57 
1 58 
1 59 
1 60 
1 61 
1 62 
1 63 
1 64 
1 65 
1 66 
1 67 
1 68 
1 69 
1 70 
1 71 
1 72 
1 73 
1 74 
1 75 
1 76 
1 77 
1 78 
1 79 
1 80 
1 81 
1 82 
1 83 
1 84 
1 85 
1 86 
1 87 
1 88 
1 89 
1 90 
1 91 
1 92 
1 93 
1 94 
1 95 
1 96 
1 97 
1 98 
1 99 

POINT_DATA 100
FIELD FieldData 7
id 1 100 int
1 2 3 4 5 6 7 8 9 
10 11 12 13 14 15 16 17 18 
19 20 21 22 23 24 25 26 27 
28 29 30 31 32 33 34 35 36 
37 38 39 40 41 42 43 44 45 
46 47 48 49 50 51 52 53 54 
55 56 57 58 59 60 61 62 63 
64 65 66 67 68 69 70 71 72 
73 74 75 76 77 78 79 80 81 
82 83 84 85 86 87 88 89 90 
91 92 93 94 95 96 97 98 99 
100 
mol 1 100 int
1 1 1 1 1 1 1 1 1 
1 1 1 1 1 1 1 1 1 
1 1 1 1 1 1 1 1 1 
1 1 1 1 1 1 1 1 1 
1 1 1 1 1 1 1 1 1 
1 1 1 1 1 2 2 2 2 
2 2 2 2 2 2 2 2 2 
2 2 2 2 2 2 2 2 2 
2 2 2 2 2 2 2 2 2 
2 2 2 2 2 2 2 2 2 
2 2 2 2 2 2 2 2 2 
2 
type 1 100 int
1 1 1 1 1 1 1 1 1 
1 1 1 1 1 1 1 1 1 
1 1 1 1 1 1 1 1 1 
1 1 1 1 1 1 1 1 1 
1 1 1 1 1 1 1 1 1 
1 1 1 1 1 1 1 1 1 
1 1 1 1 1 1 1 1 1 
1 1 1 1 1 1 1 1 1 
1 1 1 1 1 1 1 1 1 
1 1 1 1 1 1 1 1 1 
1 1 1 1 1 1 1 1 1 
1 
v 3 100 double
-0.106956 -0.0595695 0.230289 -0.105346 -0.0614555 0.155212 -0.117147 -0.0670944 0.0854085 
-0.174012 -0.0802145 0.196734 -0.149333 -0.069985 0.29293 -0.174548 -0.0823562 0.133495 
-0.171865 -0.0841145 0.0524986 -0.17777 -0.0795252 0.253687 -0.123583 -0.0709967 0.0209939 
-0.0452613 -0.0427773 0.191001 -0.222295 -0.0953711 0.163295 -0.202444 -0.0919495 0.0875269 
-0.0527661 -0.0459444 0.159956 -0.229271 -0.0961623 0.203021 -0.0693962 -0.0521188 0.118042 
-0.220149 -0.096135 0.118986 -0.192246 -0.0836396 0.257349 -0.1048 -0.0648011 0.0435403 
-0.0356128 -0.0392766 0.212718 -0.162211 -0.0828868 0.00174077 -0.0597568 -0.0472864 0.182272 
-0.25502 -0.104481 0.177689 -0.14237 -0.0688034 0.265755 -0.135382 -0.064247 0.345876 
-0.101594 -0.0557166 0.303133 -0.0720769 -0.0504386 0.196528 -0.122503 -0.061773 0.304814 
-0.152545 -0.0695831 0.335628 -0.255556 -0.105603 0.14692 -0.164347 -0.0782799 0.168408 
-0.251264 -0.105092 0.123246 -0.179918 -0.0786833 0.300507 -0.0806779 -0.0560886 0.0965782 
-0.216398 -0.0914153 0.234434 -0.127342 -0.0734436 -0.0219799 -0.121448 -0.062118 0.283995 
-0.238925 -0.102565 0.0889081 -0.217466 -0.0916992 0.235332 -0.211566 -0.0961324 0.0391641 
-0.0366796 -0.0416773 0.146162 -0.158997 -0.0792113 0.0889319 -0.200306 -0.0873043 0.215619 
-0.172931 -0.0782824 0.248229 -0.152564 -0.073114 0.223311 -0.153082 -0.0789382 0.0425729 
-0.194399 -0.0919719 0.01192 -0.0763795 -0.0485203 0.297698 -0.0457977 -0.0449189 0.127761 
-0.258774 -0.108103 0.0972221 -0.0769038 -0.0552079 0.0895079 -0.106394 -0.0592708 0.182569 
-0.10287 -0.0609537 0.108884 -0.112674 -0.0663297 0.0399963 -0.171307 -0.079392 0.147778 
-0.149642 -0.0696094 0.242903 -0.170191 -0.081349 0.0856613 -0.165463 -0.082895 0.00619205 
-0.176375 -0.0788116 0.203642 -0.117317 -0.070007 -0.023437 -0.0449241 -0.0427825 0.14565 
-0.217732 -0.0941222 0.113644 -0.196326 -0.0906212 0.0397694 -0.0516376 -0.0458607 0.114898 
-0.225553 -0.0949662 0.152486 -0.0668556 -0.0518066 0.0732838 -0.214465 -0.0947694 0.0701951 
-0.190916 -0.0829186 0.206747 -0.0997019 -0.0640646 -0.000867623 -0.0358003 -0.039338 0.167326 
-0.154628 -0.0815699 -0.0433711 -0.0585792 -0.0470711 0.136811 -0.250142 -0.103043 0.126908 
-0.141805 -0.0683033 0.216523 -0.137437 -0.0641446 0.295239 -0.102951 -0.0556378 0.254278 
-0.0715868 -0.0503531 0.150261 -0.123859 -0.0616726 0.255221 -0.154122 -0.0693766 0.28466 
-0.249885 -0.104079 0.0966721 -0.161346 -0.0775157 0.120128 -0.245071 -0.103531 0.0735364 
-0.179639 -0.078072 0.249583 -0.0768944 -0.0554995 0.0520775 -0.213686 -0.0903746 0.183708 
-0.119808 -0.0722824 -0.0657105 -0.121773 -0.0618096 0.235 -0.23209 -0.100989 0.0401487 
-0.214895 -0.0906964 0.184507 -0.203977 -0.0945948 -0.0079581 -0.0352929 -0.0415945 0.101871 
-0.153588 -0.0781184 0.0423984 -0.197347 -0.0862931 0.165696 -0.171834 -0.0776903 0.198281 
-0.150659 -0.0724139 0.174579 -0.146987 -0.0778736 -0.00312005 -0.186439 -0.0904691 -0.0342454 
-0.0781048 -0.0485964 0.249621 -0.043807 -0.0447395 0.0835327 -0.251779 -0.106425 0.0477686 
-0.0735663 -0.0547924 0.0450239 
f 3 100 double
0 0 0 0 0 0 0 0 0 
0 0 0 0 0 0 0 0 0 
0 0 0 0 0 0 0 0 0 
0 0 0 0 0 0 0 0 0 
0 0 0 0 0 0 0 0 0 
0 0 0 0 0 0 0 0 0 
0 0 0 0 0 0 0 0 0 
0 0 0 0 0 0 0 0 0 
0 0 0 0 0 0 0 0 0 
0 0 0 0 0 0 0 0 0 
0 0 0 0 0 0 0 0 0 
0 0 0 0 0 0 0 0 0 
0 0 0 0 0 0 0 0 0 
0 0 0 0 0 0 0 0 0 
0 0 0 0 0 0 0 0 0 
0 0 0 0 0 0 0 0 0 
0 0 0 0 0 0 0 0 0 
0 0 0 0 0 0 0 0 0 
0 0 0 0 0 0 0 0 0 
0 0 0 0 0 0 0 0 0 
0 0 0 0 0 0 0 0 0 
0 0 0 0 0 0 0 0 0 
0 0 0 0 0 0 0 0 0 
0 0 0 0 0 0 0 0 0 
0 0 0 0 0 0 0 0 0 
0 0 0 0 0 0 0 0 0 
0 0 0 0 0 0 0 0 0 
0 0 0 0 0 0 0 0 0 
0 0 0 0 0 0 0 0 0 
0 0 0 0 0 0 0 0 0 
0 0 0 0 0 0 0 0 0 
0 0 0 0 0 0 0 0 0 
0 0 0 0 0 0 0 0 0 
0 0 0 
radius 1 100 double
0.010434 0.00981478 0.00892069 0.00845937 0.00731974 0.00728422 0.00643447 0.00619172 0.00585956 
0.00577566 0.00537241 0.00522549 0.00513666 0.00473175 0.00466912 0.00444866 0.00441894 0.00400812 
0.00385622 0.00379948 0.00370243 0.00366942 0.00364039 0.00363813 0.00363644 0.00358692 0.0035797 
0.00341284 0.00337012 0.00336273 0.00332772 0.00323261 0.00320584 0.00320311 0.00318808 0.00313116 
0.00306026 0.00305632 0.00304383 0.00300958 0.00300137 0.00298994 0.0029567 0.00295111 0.00290849 
0.00284552 0.00282964 0.0028207 0.00281971 0.00281899 0.010434 0.00981478 0.00892069 0.00845937 
0.00731974 0.00728422 0.00643447 0.00619172 0.00585956 0.00577566 0.00537241 0.00522549 0.00513666 
0.00473175 0.00466912 0.00444866 0.00441894 0.00400812 0.00385622 0.00379948 0.00370243 0.00366942 
0.00364039 0.00363813 0.00363644 0.00358692 0.0035797 0.00341284 0.00337012 0.00336273 0.00332772 
0.00323261 0.00320584 0.00320311 0.00318808 0.00313116 0.00306026 0.00305632 0.00304383 0.00300958 
0.00300137 0.00298994 0.0029567 0.00295111 0.00290849 0.00284552 0.00282964 0.0028207 0.00281971 
0.00281899 
omega 3 100 double
2.05275 -7.02582 0.220517 2.05275 -7.02582 0.220517 2.05275 -7.02582 0.220517 
2.05275 -7.02582 0.220517 2.05275 -7.02582 0.220517 2.05275 -7.02582 0.220517 
2.05275 -7.02582 0.220517 2.05275 -7.02582 0.220517 2.05275 -7.02582 0.220517 
2.05275 -7.02582 0.220517 2.05275 -7.02582 0.220517 2.05275 -7.02582 0.220517 
2.05275 -7.02582 0.220517 2.05275 -7.02582 0.220517 2.05275 -7.02582 0.220517 
2.05275 -7.02582 0.220517 2.05275 -7.02582 0.220517 2.05275 -7.02582 0.220517 
2.05275 -7.02582 0.220517 2.05275 -7.02582 0.220517 2.05275 -7.02582 0.220517 
2.05275 -7.02582 0.220517 2.05275 -7.02582 0.220517 2.05275 -7.02582 0.220517 
2.05275 -7.02582 0.220517 2.05275 -7.02582 0.220517 2.05275 -7.02582 0.220517 
2.05275 -7.02582 0.220517 2.05275 -7.02582 0.220517 2.05275 -7.02582 0.220517 
2.05275 -7.02582 0.220517 2.05275 -7.02582 0.220517 2.05275 -7.02582 0.220517 
2.05275 -7.02582 0.220517 2.05275 -7.02582 0.220517 2.05275 -7.02582 0.220517 
2.05275 -7.02582 0.220517 2.05275 -7.02582 0.220517 2.05275 -7.02582 0.220517 
2.05275 -7.02582 0.220517 2.05275 -7.02582 0.220517 2.05275 -7.02582 0.220517 
2.05275 -7.02582 0.220517 2.05275 -7.02582 0.220517 2.05275 -7.02582 0.220517 
2.05275 -7.02582 0.220517 2.05275 -7.02582 0.220517 2.05275 -7.02582 0.220517 
2.05275 -7.02582 0.220517 2.05275 -7.02582 0.220517 2.00336 -6.90128 0.253441 
2.00336 -6.90128 0.253441 2.00336 -6.90128 0.253441 2.00336 -6.90128 0.253441 
2.00336 -6.90128 0.253441 2.00336 -6.90128 0.253441 2.00336 -6.90128 0.253441 
2.00336 -6.90128 0.253441 2.00336 -6.90128 0.253441 2.00336 -6.90128 0.253441 
2.00336 -6.90128 0.253441 2.00336 -6.90128 0.253441 2.00336 -6.90128 0.253441 
2.00336 -6.90128 0.253441 2.00336 -6.90128 0.253441 2.00336 -6.90128 0.253441 
2.00336 -6.90128 0.253441 2.00336 -6.90128 0.253441 2.00336 -6.90128 0.253441 
2.00336 -6.90128 0.253441 2.00336 -6.90128 0.253441 2.00336 -6.90128 0.253441 
2.00336 -6.90128 0.253441 2.00336 -6.90128 0.253441 2.00336 -6.90128 0.253441 
2.00336 -6.90128 0.253441 2.00336 -6.90128 0.253441 2.00336 -6.90128 0.253441 
2.00336 -6.90128 0.253441 2.00336 -6.90128 0.253441 2.00336 -6.90128 0.253441 
2.00336 -6.90128 0.253441 2.00336 -6.90128 0.253441 2.00336 -6.90128 0.253441 
2.00336 -6.90128 0.253441 2.00336 -6.90128 0.253441 2.00336 -6.90128 0.253441 
2.00336 -6.90128 0.253441 2.00336 -6.90128 0.253441 2.00336 -6.90128 0.253441 
2.00336 -6.90128 0.253441 2.00336 -6.90128 0.253441 2.00336 -6.90128 0.253441 
2.00336 -6.90128 0.253441 2.00336 -6.90128 0.253441 2.00336 -6.90128 0.253441 
2.00336 -6.90128 0.253441 2.00336 -6.90128 0.253441 2.00336 -6.90128 0.253441 
2.00336 -6.90128 0.253441 
