# vtk DataFile Version 4.0
Generated by LIGGGHTS
ASCII
DATASET POLYDATA
POINTS 100 float
-0.116693 -0.151801 0.0119215 -0.126605 -0.148481 0.0116654 -0.136403 -0.1467 0.012831 
-0.123761 -0.1592 0.0148017 -0.110113 -0.159317 0.0151277 -0.132175 -0.156711 0.0145578 
-0.142836 -0.152976 0.0142956 -0.11617 -0.163203 0.0129559 -0.145207 -0.144909 0.0128952 
-0.119637 -0.141235 0.0106919 -0.12995 -0.16505 0.0151589 -0.139297 -0.158949 0.0147716 
-0.124332 -0.139048 0.0144687 -0.124851 -0.168232 0.0144023 -0.13053 -0.139618 0.0148655 
-0.135727 -0.16311 0.0146252 -0.116687 -0.162277 0.0191609 -0.141887 -0.140628 0.0172636 
-0.11598 -0.143551 0.00531048 -0.149117 -0.150195 0.0126484 -0.120754 -0.146882 0.00363587 
-0.129191 -0.170746 0.0151255 -0.112912 -0.160936 0.00792218 -0.102733 -0.158347 0.0171348 
-0.10668 -0.154967 0.0102709 -0.120328 -0.142393 0.0167201 -0.107901 -0.153507 0.0191758 
-0.104966 -0.158792 0.0204449 -0.133326 -0.169365 0.0154032 -0.127603 -0.153687 0.0200457 
-0.136322 -0.167703 0.0153788 -0.109933 -0.166102 0.0118973 -0.132974 -0.145938 0.0046063 
-0.120081 -0.168489 0.0127091 -0.150914 -0.144627 0.0110772 -0.10971 -0.158704 0.00750105 
-0.140426 -0.164511 0.0150341 -0.120252 -0.166984 0.0159 -0.145998 -0.158677 0.0140549 
-0.125169 -0.13887 0.00905068 -0.137147 -0.155153 0.00941752 -0.121838 -0.16639 0.010476 
-0.117331 -0.15812 0.020616 -0.118864 -0.16108 0.00721156 -0.143796 -0.147586 0.0181424 
-0.148964 -0.155203 0.0134081 -0.106474 -0.151072 0.00982535 -0.128051 -0.138746 0.010448 
-0.140098 -0.167436 0.0159707 -0.134765 -0.138391 0.0170498 -0.0464922 -0.121394 0.0116839 
-0.056633 -0.118873 0.0120602 -0.0664423 -0.11785 0.0138672 -0.0527374 -0.129274 0.0151353 
-0.0391326 -0.128307 0.0145324 -0.0613211 -0.127463 0.0154326 -0.0722406 -0.124586 0.0158485 
-0.0449911 -0.132698 0.0128292 -0.0753372 -0.116759 0.0145075 -0.0503481 -0.111119 0.0105198 
-0.0584 -0.135587 0.0159897 -0.0682105 -0.130251 0.0161602 -0.0549404 -0.10924 0.0145787 
-0.0531253 -0.138369 0.0149291 -0.0610321 -0.11029 0.0154042 -0.0643367 -0.13412 0.0158254 
-0.0451641 -0.131702 0.0190424 -0.072086 -0.112149 0.0185833 -0.0468853 -0.113237 0.00493245 
-0.0788202 -0.122341 0.0145967 -0.0514787 -0.116965 0.00363058 -0.0571922 -0.141205 0.015979 
-0.0422685 -0.130275 0.00755604 -0.0317361 -0.12672 0.0160193 -0.0363909 -0.12379 0.00939658 
-0.0505403 -0.112216 0.0165957 -0.0371274 -0.122267 0.0183442 -0.0337006 -0.12728 0.0194794 
-0.0613964 -0.14015 0.0165197 -0.0566485 -0.123986 0.0205564 -0.0645108 -0.13873 0.0166777 
-0.0386266 -0.135115 0.0113861 -0.0636428 -0.116971 0.00541873 -0.0484741 -0.13828 0.0129184 
-0.0811574 -0.116963 0.013079 -0.0392913 -0.127805 0.00688868 -0.0688713 -0.13588 0.0165717 
-0.0485511 -0.136735 0.0160937 -0.0749451 -0.130523 0.0158982 -0.0561491 -0.109228 0.00922845 
-0.066734 -0.126396 0.010623 -0.0505384 -0.136369 0.0107829 -0.0460401 -0.127583 0.0204835 
-0.0482245 -0.130901 0.00725446 -0.073369 -0.119219 0.0196809 -0.0782157 -0.127306 0.0154096 
-0.036528 -0.1199 0.00888724 -0.0589318 -0.109307 0.0108171 -0.0682475 -0.138752 0.0175219 
-0.0651966 -0.109361 0.0178557 
VERTICES 100 200
1 0 
1 1 
1 2 
1 3 
1 4 
1 5 
1 6 
1 7 
1 8 
1 9 
1 10 
1 11 
1 12 
1 13 
1 14 
1 15 
1 16 
1 17 
1 18 
1 19 
1 20 
1 21 
1 22 
1 23 
1 24 
1 25 
1 26 
1 27 
1 28 
1 29 
1 30 
1 31 
1 32 
1 33 
1 34 
1 35 
1 36 
1 37 
1 38 
1 39 
1 40 
1 41 
1 42 
1 43 
1 44 
1 45 
1 46 
1 47 
1 48 
1 49 
1 50 
1 51 
1 52 
1 53 
1 54 
1 55 
1 56 
1 57 
1 58 
1 59 
1 60 
1 61 
1 62 
1 63 
1 64 
1 65 
1 66 
1 67 
1 68 
1 69 
1 70 
1 71 
1 72 
1 73 
1 74 
1 75 
1 76 
1 77 
1 78 
1 79 
1 80 
1 81 
1 82 
1 83 
1 84 
1 85 
1 86 
1 87 
1 88 
1 89 
1 90 
1 91 
1 92 
1 93 
1 94 
1 95 
1 96 
1 97 
1 98 
1 99 

POINT_DATA 100
FIELD FieldData 7
id 1 100 int
1 2 3 4 5 6 7 8 9 
10 11 12 13 14 15 16 17 18 
19 20 21 22 23 24 25 26 27 
28 29 30 31 32 33 34 35 36 
37 38 39 40 41 42 43 44 45 
46 47 48 49 50 51 52 53 54 
55 56 57 58 59 60 61 62 63 
64 65 66 67 68 69 70 71 72 
73 74 75 76 77 78 79 80 81 
82 83 84 85 86 87 88 89 90 
91 92 93 94 95 96 97 98 99 
100 
mol 1 100 int
1 1 1 1 1 1 1 1 1 
1 1 1 1 1 1 1 1 1 
1 1 1 1 1 1 1 1 1 
1 1 1 1 1 1 1 1 1 
1 1 1 1 1 1 1 1 1 
1 1 1 1 1 2 2 2 2 
2 2 2 2 2 2 2 2 2 
2 2 2 2 2 2 2 2 2 
2 2 2 2 2 2 2 2 2 
2 2 2 2 2 2 2 2 2 
2 2 2 2 2 2 2 2 2 
2 
type 1 100 int
1 1 1 1 1 1 1 1 1 
1 1 1 1 1 1 1 1 1 
1 1 1 1 1 1 1 1 1 
1 1 1 1 1 1 1 1 1 
1 1 1 1 1 1 1 1 1 
1 1 1 1 1 1 1 1 1 
1 1 1 1 1 1 1 1 1 
1 1 1 1 1 1 1 1 1 
1 1 1 1 1 1 1 1 1 
1 1 1 1 1 1 1 1 1 
1 1 1 1 1 1 1 1 1 
1 
v 3 100 double
-0.0130741 -0.188959 -0.0728425 -0.00996078 -0.176254 -0.0286223 -0.00924877 -0.185705 -0.0081982 
-0.0217105 -0.227417 -0.192832 -0.0220538 -0.2445 -0.184624 -0.0193386 -0.21622 -0.160409 
-0.0158546 -0.202759 -0.110291 -0.0238804 -0.205469 -0.249357 -0.00771815 -0.178945 0.0131139 
-0.00286131 -0.167289 0.0889127 -0.0271273 -0.227507 -0.288142 -0.021467 -0.213262 -0.200356 
-0.00371098 -0.221747 0.119392 -0.0293743 -0.220261 -0.333757 -0.00450451 -0.222443 0.105999 
-0.0250261 -0.214136 -0.2623 -0.0276268 -0.30128 -0.235379 -0.00715781 -0.249643 0.0819729 
-0.000945403 -0.0870219 0.055673 -0.0121936 -0.171669 -0.0717663 -0.00264901 -0.0568351 0.000485507 
-0.0321213 -0.227656 -0.375957 -0.0181826 -0.130244 -0.211793 -0.0226743 -0.282141 -0.164141 
-0.0146504 -0.172173 -0.114607 -0.00831339 -0.260204 0.070437 -0.0199108 -0.309252 -0.092857 
-0.0255003 -0.331527 -0.172695 -0.0311092 -0.228321 -0.357579 -0.0207087 -0.305391 -0.110128 
-0.0296264 -0.225304 -0.333988 -0.0256568 -0.19454 -0.289757 -0.00253054 -0.0611243 0.00615067 
-0.0283559 -0.198193 -0.334237 -0.0061335 -0.145711 0.0132869 -0.0159063 -0.126531 -0.174808 
-0.026561 -0.21634 -0.287488 -0.0293763 -0.247549 -0.311021 -0.0207008 -0.196238 -0.201069 
0.000429021 -0.136953 0.121539 -0.0141865 -0.132091 -0.139884 -0.0248656 -0.162 -0.302976 
-0.025034 -0.323288 -0.171359 -0.017787 -0.113974 -0.218403 -0.0139344 -0.261594 -0.0273844 
-0.0171648 -0.183592 -0.149355 -0.0108914 -0.165442 -0.0540315 -0.00048943 -0.156093 0.121337 
-0.0298265 -0.231161 -0.332623 -0.00502937 -0.2526 0.12192 0.0232267 -0.160731 -0.0698182 
0.0267866 -0.155026 -0.012122 0.0321876 -0.168642 0.0249037 0.0231715 -0.199914 -0.159374 
0.0227488 -0.206269 -0.179101 0.0257934 -0.194803 -0.11482 0.0298222 -0.1888 -0.0505532 
0.0140433 -0.177503 -0.223317 0.03487 -0.167752 0.0606477 0.0312804 -0.141227 0.0756722 
0.0185566 -0.205271 -0.229546 0.0245927 -0.197185 -0.135318 0.0429712 -0.190209 0.111571 
0.0130849 -0.196771 -0.279063 0.0438384 -0.19473 0.112221 0.019711 -0.19683 -0.19589 
0.0299559 -0.259714 -0.209694 0.0494816 -0.225231 0.114001 0.0156807 -0.0707847 0.0392937 
0.0291961 -0.165261 -0.00504037 0.00863462 -0.0486755 0.000845432 0.0126056 -0.206404 -0.306937 
0.00398613 -0.110446 -0.197687 0.0279796 -0.233788 -0.175746 0.0152285 -0.141053 -0.125752 
0.0446565 -0.221598 0.061575 0.0382377 -0.258932 -0.103796 0.0356662 -0.2776 -0.178465 
0.015011 -0.209139 -0.282896 0.0417165 -0.267678 -0.0798941 0.0168869 -0.20795 -0.256615 
0.00804202 -0.165079 -0.270593 0.0129056 -0.0595583 0.0298632 0.00836931 -0.175012 -0.289005 
0.0312381 -0.142668 0.0718705 0.00499493 -0.104736 -0.172054 0.0196402 -0.201945 -0.208381 
0.0175941 -0.217038 -0.268334 0.0236792 -0.186606 -0.122812 0.0301852 -0.117984 0.114615 
0.0154129 -0.125313 -0.0877356 0.00527721 -0.144516 -0.25872 0.0377481 -0.277902 -0.152973 
0.00260377 -0.100165 -0.19175 0.0446501 -0.238433 0.0233146 0.025903 -0.176678 -0.0723369 
0.0181131 -0.134154 -0.073839 0.0339024 -0.136116 0.120227 0.0188839 -0.215204 -0.247957 
0.0506822 -0.222848 0.134499 
f 3 100 double
0 0 0 0 0 0 0 0 0 
0 0 0 0 0 0 0 0 0 
0 0 0 0 0 0 0 0 0 
0 0 0 0 0 0 0 0 0 
0 0 0 0 0 0 0 0 0 
0 0 0 0 0 0 0 0 0 
0 0 0 0 0 0 -0.0675889 -0.060523 0.270714 
0 0 0 0 0 0 0 0 0 
0 0 0 0 0 0 0 0 0 
0 0 0 0 0 0 0 0 0 
0 0 0 0 0 0 0 0 0 
0 0 0 0 0 0 0 0 0 
0 0 0 0 0 0 0 0 0 
0 0 0 0 0 0 0 0 0 
0 0 0 0 0 0 0 0 0 
0 0 0 0 0 0 0 0 0 
0 0 0 0 0 0 0 0 0 
0 0 0 0 0 0 0 0 0 
0 0 0 0 0 0 0 0 0 
0 0 0 0 0 0 0 0 0 
0 0 0 0 0 0 0 0 0 
0 0 0 0 0 0 0 0 0 
0 0 0 0 0 0 0 0 0 
0 0 0 -0.0599473 -0.077987 0.300154 0 0 0 
0 0 0 0 0 0 0 0 0 
0 0 0 0 0 0 0 0 0 
0 0 0 0 0 0 0 0 0 
0 0 0 0 0 0 0 0 0 
0 0 0 0 0 0 0 0 0 
0 0 0 0 0 0 0 0 0 
0 0 0 0 0 0 0 0 0 
0 0 0 0 0 0 0 0 0 
0 0 0 0 0 0 0 0 0 
0 0 0 
radius 1 100 double
0.010434 0.00981478 0.00892069 0.00845937 0.00731974 0.00728422 0.00643447 0.00619172 0.00585956 
0.00577566 0.00537241 0.00522549 0.00513666 0.00473175 0.00466912 0.00444866 0.00441894 0.00400812 
0.00385622 0.00379948 0.00370243 0.00366942 0.00364039 0.00363813 0.00363644 0.00358692 0.0035797 
0.00341284 0.00337012 0.00336273 0.00332772 0.00323261 0.00320584 0.00320311 0.00318808 0.00313116 
0.00306026 0.00305632 0.00304383 0.00300958 0.00300137 0.00298994 0.0029567 0.00295111 0.00290849 
0.00284552 0.00282964 0.0028207 0.00281971 0.00281899 0.010434 0.00981478 0.00892069 0.00845937 
0.00731974 0.00728422 0.00643447 0.00619172 0.00585956 0.00577566 0.00537241 0.00522549 0.00513666 
0.00473175 0.00466912 0.00444866 0.00441894 0.00400812 0.00385622 0.00379948 0.00370243 0.00366942 
0.00364039 0.00363813 0.00363644 0.00358692 0.0035797 0.00341284 0.00337012 0.00336273 0.00332772 
0.00323261 0.00320584 0.00320311 0.00318808 0.00313116 0.00306026 0.00305632 0.00304383 0.00300958 
0.00300137 0.00298994 0.0029567 0.00295111 0.00290849 0.00284552 0.00282964 0.0028207 0.00281971 
0.00281899 
omega 3 100 double
15.5145 -0.735168 -0.881048 15.5145 -0.735168 -0.881048 15.5145 -0.735168 -0.881048 
15.5145 -0.735168 -0.881048 15.5145 -0.735168 -0.881048 15.5145 -0.735168 -0.881048 
15.5145 -0.735168 -0.881048 15.5145 -0.735168 -0.881048 15.5145 -0.735168 -0.881048 
15.5145 -0.735168 -0.881048 15.5145 -0.735168 -0.881048 15.5145 -0.735168 -0.881048 
15.5145 -0.735168 -0.881048 15.5145 -0.735168 -0.881048 15.5145 -0.735168 -0.881048 
15.5145 -0.735168 -0.881048 15.5145 -0.735168 -0.881048 15.5145 -0.735168 -0.881048 
15.5145 -0.735168 -0.881048 15.5145 -0.735168 -0.881048 15.5145 -0.735168 -0.881048 
15.5145 -0.735168 -0.881048 15.5145 -0.735168 -0.881048 15.5145 -0.735168 -0.881048 
15.5145 -0.735168 -0.881048 15.5145 -0.735168 -0.881048 15.5145 -0.735168 -0.881048 
15.5145 -0.735168 -0.881048 15.5145 -0.735168 -0.881048 15.5145 -0.735168 -0.881048 
15.5145 -0.735168 -0.881048 15.5145 -0.735168 -0.881048 15.5145 -0.735168 -0.881048 
15.5145 -0.735168 -0.881048 15.5145 -0.735168 -0.881048 15.5145 -0.735168 -0.881048 
15.5145 -0.735168 -0.881048 15.5145 -0.735168 -0.881048 15.5145 -0.735168 -0.881048 
15.5145 -0.735168 -0.881048 15.5145 -0.735168 -0.881048 15.5145 -0.735168 -0.881048 
15.5145 -0.735168 -0.881048 15.5145 -0.735168 -0.881048 15.5145 -0.735168 -0.881048 
15.5145 -0.735168 -0.881048 15.5145 -0.735168 -0.881048 15.5145 -0.735168 -0.881048 
15.5145 -0.735168 -0.881048 15.5145 -0.735168 -0.881048 13.2612 2.39204 -1.05475 
13.2612 2.39204 -1.05475 13.2612 2.39204 -1.05475 13.2612 2.39204 -1.05475 
13.2612 2.39204 -1.05475 13.2612 2.39204 -1.05475 13.2612 2.39204 -1.05475 
13.2612 2.39204 -1.05475 13.2612 2.39204 -1.05475 13.2612 2.39204 -1.05475 
13.2612 2.39204 -1.05475 13.2612 2.39204 -1.05475 13.2612 2.39204 -1.05475 
13.2612 2.39204 -1.05475 13.2612 2.39204 -1.05475 13.2612 2.39204 -1.05475 
13.2612 2.39204 -1.05475 13.2612 2.39204 -1.05475 13.2612 2.39204 -1.05475 
13.2612 2.39204 -1.05475 13.2612 2.39204 -1.05475 13.2612 2.39204 -1.05475 
13.2612 2.39204 -1.05475 13.2612 2.39204 -1.05475 13.2612 2.39204 -1.05475 
13.2612 2.39204 -1.05475 13.2612 2.39204 -1.05475 13.2612 2.39204 -1.05475 
13.2612 2.39204 -1.05475 13.2612 2.39204 -1.05475 13.2612 2.39204 -1.05475 
13.2612 2.39204 -1.05475 13.2612 2.39204 -1.05475 13.2612 2.39204 -1.05475 
13.2612 2.39204 -1.05475 13.2612 2.39204 -1.05475 13.2612 2.39204 -1.05475 
13.2612 2.39204 -1.05475 13.2612 2.39204 -1.05475 13.2612 2.39204 -1.05475 
13.2612 2.39204 -1.05475 13.2612 2.39204 -1.05475 13.2612 2.39204 -1.05475 
13.2612 2.39204 -1.05475 13.2612 2.39204 -1.05475 13.2612 2.39204 -1.05475 
13.2612 2.39204 -1.05475 13.2612 2.39204 -1.05475 13.2612 2.39204 -1.05475 
13.2612 2.39204 -1.05475 
