# vtk DataFile Version 4.0
Generated by LIGGGHTS
ASCII
DATASET POLYDATA
POINTS 100 float
-0.117458 -0.144884 0.0136385 -0.127351 -0.14251 0.0112225 -0.137212 -0.14074 0.0108159 
-0.124657 -0.150062 0.0195006 -0.111057 -0.149505 0.0205474 -0.133052 -0.148345 0.017594 
-0.143694 -0.145643 0.0149234 -0.116946 -0.154171 0.0203339 -0.146011 -0.139482 0.00950778 
-0.120372 -0.136503 0.0070737 -0.130827 -0.155149 0.0224522 -0.140161 -0.150423 0.0185431 
-0.125307 -0.132879 0.00897232 -0.125675 -0.158089 0.0236775 -0.131514 -0.133394 0.00928154 
-0.136569 -0.153956 0.020711 -0.117857 -0.150256 0.0251777 -0.142994 -0.133463 0.0112693 
-0.116372 -0.141088 0.00380574 -0.149872 -0.144305 0.0117715 -0.121014 -0.144978 0.00380552 
-0.13004 -0.160049 0.0253493 -0.113388 -0.154644 0.0150221 -0.103822 -0.147386 0.0221648 
-0.107346 -0.148085 0.0143411 -0.121436 -0.13448 0.0128122 -0.109133 -0.14237 0.021201 
-0.106258 -0.146178 0.0251234 -0.134191 -0.158868 0.0246746 -0.128849 -0.142798 0.0210207 
-0.137187 -0.157555 0.023656 -0.11064 -0.15698 0.0212152 -0.133276 -0.144116 0.00352944 
-0.120807 -0.158994 0.0225976 -0.151594 -0.140365 0.00750513 -0.110178 -0.152816 0.0136943 
-0.141278 -0.155127 0.0215295 -0.121186 -0.15609 0.0245722 -0.146806 -0.150794 0.0174417 
-0.125801 -0.135494 0.00417643 -0.137697 -0.149779 0.0121234 -0.12243 -0.158378 0.0195217 
-0.118612 -0.14596 0.02429 -0.119283 -0.155342 0.0141754 -0.14492 -0.139087 0.0154529 
-0.149742 -0.148233 0.0149713 -0.107132 -0.144946 0.0119947 -0.128766 -0.134786 0.00516708 
-0.140994 -0.157163 0.0238346 -0.135885 -0.131385 0.0103202 -0.0486267 -0.115767 0.013391 
-0.0586429 -0.113902 0.0110379 -0.0685988 -0.112781 0.0106463 -0.055492 -0.121827 0.0187895 
-0.0419682 -0.120425 0.0200268 -0.0639717 -0.120551 0.0169148 -0.0747562 -0.118393 0.0143224 
-0.0475227 -0.125453 0.0194164 -0.0774549 -0.112032 0.00933137 -0.0520645 -0.107155 0.00740451 
-0.0613178 -0.127518 0.0213031 -0.0709285 -0.123169 0.0176337 -0.0572478 -0.104019 0.00949949 
-0.0559848 -0.130183 0.0223749 -0.0634072 -0.104974 0.00970127 -0.0671164 -0.126596 0.0195861 
-0.0487306 -0.121965 0.0245151 -0.0748684 -0.105964 0.0115492 -0.0477389 -0.111212 0.00386513 
-0.0809915 -0.117256 0.0112036 -0.052104 -0.115399 0.00353657 -0.0602157 -0.132548 0.0238542 
-0.043907 -0.125302 0.0141251 -0.0349064 -0.117942 0.021872 -0.0383235 -0.118317 0.0139791 
-0.0533015 -0.105624 0.0132597 -0.0405419 -0.113241 0.0212064 -0.0374378 -0.117117 0.0248811 
-0.0644333 -0.131607 0.023218 -0.0601804 -0.114991 0.0207734 -0.0675063 -0.130431 0.0222613 
-0.0410452 -0.127884 0.0201675 -0.0643938 -0.115353 0.00318379 -0.0510593 -0.130676 0.0212886 
-0.0829511 -0.113146 0.00720821 -0.0408206 -0.123171 0.0129665 -0.0717394 -0.128139 0.0202662 
-0.0516487 -0.127954 0.0234598 -0.0775246 -0.12391 0.0164338 -0.0575316 -0.106312 0.00452492 
-0.068473 -0.121902 0.0113041 -0.0527007 -0.129953 0.0182461 -0.0497722 -0.117678 0.0239257 
-0.0497349 -0.126337 0.0131644 -0.0764319 -0.11199 0.0153015 -0.0806131 -0.121384 0.0141181 
-0.03831 -0.115011 0.0118638 -0.0605442 -0.105879 0.00552975 -0.0713319 -0.130311 0.0224243 
-0.0679116 -0.103346 0.0108303 
VERTICES 100 200
1 0 
1 1 
1 2 
1 3 
1 4 
1 5 
1 6 
1 7 
1 8 
1 9 
1 10 
1 11 
1 12 
1 13 
1 14 
1 15 
1 16 
1 17 
1 18 
1 19 
1 20 
1 21 
1 22 
1 23 
1 24 
1 25 
1 26 
1 27 
1 28 
1 29 
1 30 
1 31 
1 32 
1 33 
1 34 
1 35 
1 36 
1 37 
1 38 
1 39 
1 40 
1 41 
1 42 
1 43 
1 44 
1 45 
1 46 
1 47 
1 48 
1 49 
1 50 
1 51 
1 52 
1 53 
1 54 
1 55 
1 56 
1 57 
1 58 
1 59 
1 60 
1 61 
1 62 
1 63 
1 64 
1 65 
1 66 
1 67 
1 68 
1 69 
1 70 
1 71 
1 72 
1 73 
1 74 
1 75 
1 76 
1 77 
1 78 
1 79 
1 80 
1 81 
1 82 
1 83 
1 84 
1 85 
1 86 
1 87 
1 88 
1 89 
1 90 
1 91 
1 92 
1 93 
1 94 
1 95 
1 96 
1 97 
1 98 
1 99 

POINT_DATA 100
FIELD FieldData 7
id 1 100 int
1 2 3 4 5 6 7 8 9 
10 11 12 13 14 15 16 17 18 
19 20 21 22 23 24 25 26 27 
28 29 30 31 32 33 34 35 36 
37 38 39 40 41 42 43 44 45 
46 47 48 49 50 51 52 53 54 
55 56 57 58 59 60 61 62 63 
64 65 66 67 68 69 70 71 72 
73 74 75 76 77 78 79 80 81 
82 83 84 85 86 87 88 89 90 
91 92 93 94 95 96 97 98 99 
100 
mol 1 100 int
1 1 1 1 1 1 1 1 1 
1 1 1 1 1 1 1 1 1 
1 1 1 1 1 1 1 1 1 
1 1 1 1 1 1 1 1 1 
1 1 1 1 1 1 1 1 1 
1 1 1 1 1 2 2 2 2 
2 2 2 2 2 2 2 2 2 
2 2 2 2 2 2 2 2 2 
2 2 2 2 2 2 2 2 2 
2 2 2 2 2 2 2 2 2 
2 2 2 2 2 2 2 2 2 
2 
type 1 100 int
1 1 1 1 1 1 1 1 1 
1 1 1 1 1 1 1 1 1 
1 1 1 1 1 1 1 1 1 
1 1 1 1 1 1 1 1 1 
1 1 1 1 1 1 1 1 1 
1 1 1 1 1 1 1 1 1 
1 1 1 1 1 1 1 1 1 
1 1 1 1 1 1 1 1 1 
1 1 1 1 1 1 1 1 1 
1 1 1 1 1 1 1 1 1 
1 1 1 1 1 1 1 1 1 
1 
v 3 100 double
0.0560132 -0.145116 -0.0236318 0.0482582 -0.112883 0.0397936 0.0476742 -0.103143 0.0963423 
0.0751362 -0.206899 -0.0547258 0.0793313 -0.225769 -0.0991839 0.0689342 -0.181153 -0.00422714 
0.0604027 -0.145677 0.0656613 0.0760787 -0.22028 -0.129434 0.0434609 -0.0838788 0.143207 
0.0359569 -0.0701486 0.0809679 0.0834597 -0.236669 -0.0886296 0.0713774 -0.188027 -0.000977816 
0.0449415 -0.0887888 0.139905 0.0864783 -0.253086 -0.140727 0.045823 -0.0889799 0.157283 
0.0775977 -0.214168 -0.0538837 0.0961939 -0.273984 -0.0822385 0.0531949 -0.105171 0.19929 
0.0213634 -0.0356992 0.0147786 0.049359 -0.107168 0.103648 0.0193143 -0.0332528 -0.0114408 
0.091678 -0.269489 -0.146374 0.0560323 -0.162736 -0.147978 0.0864749 -0.24767 -0.102451 
0.0569467 -0.158299 -0.0971363 0.0584107 -0.133779 0.107573 0.0855235 -0.234093 -0.0265401 
0.0981379 -0.279482 -0.0798581 0.0897849 -0.259757 -0.117695 0.0846261 -0.221697 0.0421533 
0.0866793 -0.246785 -0.0918437 0.0778847 -0.233458 -0.184359 0.0187392 -0.0237097 0.0439047 
0.0819769 -0.243569 -0.168993 0.035532 -0.0585383 0.154139 0.0520452 -0.149573 -0.139504 
0.0800319 -0.220845 -0.0494313 0.0908654 -0.265458 -0.135099 0.0670772 -0.172209 0.01964 
0.0256895 -0.0348815 0.112492 0.0477892 -0.117514 -0.00296062 0.0708371 -0.208308 -0.156049 
0.0951465 -0.263656 -0.0313707 0.0525086 -0.150161 -0.133823 0.0658274 -0.150955 0.143565 
0.0592173 -0.143029 0.0592244 0.0498539 -0.132164 -0.0628119 0.0297548 -0.0444022 0.131468 
0.0875519 -0.24678 -0.0732636 0.0507516 -0.0982972 0.196041 0.0979974 -0.112361 -0.0612157 
0.0839655 -0.0869719 0.018625 0.0820601 -0.0783608 0.0917409 0.129244 -0.154814 -0.0691385 
0.137883 -0.172534 -0.143482 0.117955 -0.134323 -0.00412351 0.102552 -0.106485 0.0831301 
0.131327 -0.164383 -0.150955 0.074064 -0.0624487 0.154652 0.0643472 -0.0594354 0.0342395 
0.142275 -0.17319 -0.0805427 0.121158 -0.136779 0.0179239 0.0793775 -0.0745771 0.0940972 
0.147705 -0.185162 -0.137328 0.0801598 -0.0730403 0.125253 0.131805 -0.155463 -0.0356598 
0.165713 -0.207271 -0.113465 0.0914298 -0.082751 0.189948 0.0396112 -0.0315089 -0.0280019 
0.0832489 -0.0765603 0.132633 0.0352988 -0.0263941 -0.0358835 0.155895 -0.195551 -0.130516 
0.0976361 -0.121125 -0.172742 0.150973 -0.192023 -0.167355 0.100401 -0.122834 -0.148747 
0.102527 -0.108766 0.0552085 0.149213 -0.183359 -0.0912554 0.170615 -0.216372 -0.14415 
0.152333 -0.187889 -0.0955581 0.145524 -0.16927 0.0191418 0.146849 -0.178095 -0.0659084 
0.134834 -0.174223 -0.213047 0.0330719 -0.016879 0.0429483 0.140512 -0.178495 -0.172974 
0.0599241 -0.041415 0.180221 0.0913696 -0.112868 -0.174247 0.135329 -0.158823 -0.0193283 
0.155809 -0.196718 -0.145967 0.113108 -0.123045 0.0536989 0.0464152 -0.0319594 0.0763298 
0.0814311 -0.0840426 0.0130671 0.121476 -0.151652 -0.156322 0.16422 -0.201689 -0.0702171 
0.0909573 -0.10984 -0.144379 0.112189 -0.113956 0.148485 0.0996648 -0.101641 0.094971 
0.0886502 -0.104782 -0.120604 0.0530575 -0.0389433 0.0992556 0.147953 -0.177462 -0.0404692 
0.0882269 -0.0802947 0.167901 
f 3 100 double
0 0 0 0 0 0 0 0 0 
0 0 0 0 0 0 0 0 0 
0 0 0 0 0 0 0 0 0 
0 0 0 0 0 0 0 0 0 
0 0 0 0 0 0 0 0 0 
0 0 0 0 0 0 0 0 0 
-0.0108371 -0.0115603 0.0316911 0 0 0 0 0 0 
0 0 0 0 0 0 0 0 0 
0 0 0 0 0 0 0 0 0 
0 0 0 0 0 0 0 0 0 
0 0 0 0 0 0 0 0 0 
0 0 0 0 0 0 0 0 0 
0 0 0 0 0 0 0 0 0 
0 0 0 0 0 0 0 0 0 
0 0 0 0 0 0 0 0 0 
0 0 0 0 0 0 0 0 0 
0 0 0 0 0 0 0 0 0 
0 0 0 0 0 0 0 0 0 
0 0 0 0 0 0 0 0 0 
0 0 0 0 0 0 0 0 0 
0 0 0 0 0 0 0 0 0 
0 0 0 0 0 0 0 0 0 
0 0 0 0 0 0 0 0 0 
0 0 0 -0.300295 -0.0184571 1.58651 0 0 0 
0 0 0 0 0 0 0 0 0 
0 0 0 0 0 0 0 0 0 
0 0 0 0 0 0 0 0 0 
0 0 0 -0.121824 -0.10285 -0.297944 0 0 0 
0 0 0 0 0 0 0 0 0 
0 0 0 0 0 0 0 0 0 
0 0 0 0 0 0 0 0 0 
0 0 0 0 0 0 0 0 0 
0 0 0 0 0 0 0 0 0 
0 0 0 
radius 1 100 double
0.010434 0.00981478 0.00892069 0.00845937 0.00731974 0.00728422 0.00643447 0.00619172 0.00585956 
0.00577566 0.00537241 0.00522549 0.00513666 0.00473175 0.00466912 0.00444866 0.00441894 0.00400812 
0.00385622 0.00379948 0.00370243 0.00366942 0.00364039 0.00363813 0.00363644 0.00358692 0.0035797 
0.00341284 0.00337012 0.00336273 0.00332772 0.00323261 0.00320584 0.00320311 0.00318808 0.00313116 
0.00306026 0.00305632 0.00304383 0.00300958 0.00300137 0.00298994 0.0029567 0.00295111 0.00290849 
0.00284552 0.00282964 0.0028207 0.00281971 0.00281899 0.010434 0.00981478 0.00892069 0.00845937 
0.00731974 0.00728422 0.00643447 0.00619172 0.00585956 0.00577566 0.00537241 0.00522549 0.00513666 
0.00473175 0.00466912 0.00444866 0.00441894 0.00400812 0.00385622 0.00379948 0.00370243 0.00366942 
0.00364039 0.00363813 0.00363644 0.00358692 0.0035797 0.00341284 0.00337012 0.00336273 0.00332772 
0.00323261 0.00320584 0.00320311 0.00318808 0.00313116 0.00306026 0.00305632 0.00304383 0.00300958 
0.00300137 0.00298994 0.0029567 0.00295111 0.00290849 0.00284552 0.00282964 0.0028207 0.00281971 
0.00281899 
omega 3 100 double
11.186 3.72716 -0.526435 11.186 3.72716 -0.526435 11.186 3.72716 -0.526435 
11.186 3.72716 -0.526435 11.186 3.72716 -0.526435 11.186 3.72716 -0.526435 
11.186 3.72716 -0.526435 11.186 3.72716 -0.526435 11.186 3.72716 -0.526435 
11.186 3.72716 -0.526435 11.186 3.72716 -0.526435 11.186 3.72716 -0.526435 
11.186 3.72716 -0.526435 11.186 3.72716 -0.526435 11.186 3.72716 -0.526435 
11.186 3.72716 -0.526435 11.186 3.72716 -0.526435 11.186 3.72716 -0.526435 
11.186 3.72716 -0.526435 11.186 3.72716 -0.526435 11.186 3.72716 -0.526435 
11.186 3.72716 -0.526435 11.186 3.72716 -0.526435 11.186 3.72716 -0.526435 
11.186 3.72716 -0.526435 11.186 3.72716 -0.526435 11.186 3.72716 -0.526435 
11.186 3.72716 -0.526435 11.186 3.72716 -0.526435 11.186 3.72716 -0.526435 
11.186 3.72716 -0.526435 11.186 3.72716 -0.526435 11.186 3.72716 -0.526435 
11.186 3.72716 -0.526435 11.186 3.72716 -0.526435 11.186 3.72716 -0.526435 
11.186 3.72716 -0.526435 11.186 3.72716 -0.526435 11.186 3.72716 -0.526435 
11.186 3.72716 -0.526435 11.186 3.72716 -0.526435 11.186 3.72716 -0.526435 
11.186 3.72716 -0.526435 11.186 3.72716 -0.526435 11.186 3.72716 -0.526435 
11.186 3.72716 -0.526435 11.186 3.72716 -0.526435 11.186 3.72716 -0.526435 
11.186 3.72716 -0.526435 11.186 3.72716 -0.526435 8.53693 6.3822 -0.52918 
8.53693 6.3822 -0.52918 8.53693 6.3822 -0.52918 8.53693 6.3822 -0.52918 
8.53693 6.3822 -0.52918 8.53693 6.3822 -0.52918 8.53693 6.3822 -0.52918 
8.53693 6.3822 -0.52918 8.53693 6.3822 -0.52918 8.53693 6.3822 -0.52918 
8.53693 6.3822 -0.52918 8.53693 6.3822 -0.52918 8.53693 6.3822 -0.52918 
8.53693 6.3822 -0.52918 8.53693 6.3822 -0.52918 8.53693 6.3822 -0.52918 
8.53693 6.3822 -0.52918 8.53693 6.3822 -0.52918 8.53693 6.3822 -0.52918 
8.53693 6.3822 -0.52918 8.53693 6.3822 -0.52918 8.53693 6.3822 -0.52918 
8.53693 6.3822 -0.52918 8.53693 6.3822 -0.52918 8.53693 6.3822 -0.52918 
8.53693 6.3822 -0.52918 8.53693 6.3822 -0.52918 8.53693 6.3822 -0.52918 
8.53693 6.3822 -0.52918 8.53693 6.3822 -0.52918 8.53693 6.3822 -0.52918 
8.53693 6.3822 -0.52918 8.53693 6.3822 -0.52918 8.53693 6.3822 -0.52918 
8.53693 6.3822 -0.52918 8.53693 6.3822 -0.52918 8.53693 6.3822 -0.52918 
8.53693 6.3822 -0.52918 8.53693 6.3822 -0.52918 8.53693 6.3822 -0.52918 
8.53693 6.3822 -0.52918 8.53693 6.3822 -0.52918 8.53693 6.3822 -0.52918 
8.53693 6.3822 -0.52918 8.53693 6.3822 -0.52918 8.53693 6.3822 -0.52918 
8.53693 6.3822 -0.52918 8.53693 6.3822 -0.52918 8.53693 6.3822 -0.52918 
8.53693 6.3822 -0.52918 
