# vtk DataFile Version 4.0
Generated by LIGGGHTS
ASCII
DATASET POLYDATA
POINTS 100 float
-0.109406 -0.129515 0.0180693 -0.119808 -0.130428 0.0186195 -0.129548 -0.130549 0.0209968 
-0.113077 -0.130752 0.0279688 -0.100512 -0.127969 0.0234141 -0.121776 -0.131666 0.0287057 
-0.13303 -0.132579 0.0291625 -0.104463 -0.132438 0.0279876 -0.138341 -0.131495 0.0225845 
-0.116236 -0.127511 0.00963454 -0.116463 -0.133606 0.035252 -0.127439 -0.133566 0.0331878 
-0.121544 -0.124147 0.0109036 -0.110499 -0.134466 0.0358735 -0.127023 -0.125127 0.0137156 
-0.122514 -0.13449 0.0354178 -0.105521 -0.126509 0.0298185 -0.137136 -0.125376 0.0194965 
-0.111775 -0.132586 0.00820864 -0.139836 -0.134286 0.0283524 -0.114784 -0.136168 0.0120562 
-0.113517 -0.13548 0.0398164 -0.102189 -0.135672 0.0229415 -0.0941895 -0.124421 0.0207907 
-0.0989053 -0.130283 0.0166046 -0.116627 -0.122502 0.013229 -0.100917 -0.121817 0.0192885 
-0.0961811 -0.121948 0.0232522 -0.117868 -0.135509 0.0402006 -0.118965 -0.124724 0.026687 
-0.121274 -0.135506 0.0398274 -0.0975547 -0.133267 0.0278515 -0.126411 -0.137208 0.0159169 
-0.105959 -0.135229 0.0337555 -0.143628 -0.134124 0.0236312 -0.100115 -0.13469 0.0197561 
-0.12629 -0.135471 0.0384165 -0.106822 -0.131804 0.0337892 -0.133674 -0.13537 0.0350238 
-0.122191 -0.129219 0.00891773 -0.126775 -0.136767 0.0271041 -0.108321 -0.136876 0.03171 
-0.107805 -0.123844 0.0270811 -0.107572 -0.137477 0.0248708 -0.136174 -0.127344 0.0264271 
-0.137745 -0.135303 0.0328553 -0.100238 -0.129298 0.013046 -0.124935 -0.128425 0.0103714 
-0.124867 -0.135568 0.041156 -0.131473 -0.123476 0.0150144 -0.0405462 -0.10173 0.0192427 
-0.0509584 -0.102654 0.0195035 -0.060759 -0.102802 0.0216153 -0.0444825 -0.103054 0.0290283 
-0.0318007 -0.100224 0.0248392 -0.0531973 -0.10398 0.0295218 -0.0644583 -0.104904 0.0296662 
-0.0358703 -0.104735 0.0292656 -0.0695901 -0.103767 0.0229565 -0.0471473 -0.0996576 0.0106438 
-0.0480612 -0.105973 0.0361925 -0.0589779 -0.105922 0.0338326 -0.0524899 -0.0963081 0.0117976 
-0.0421158 -0.106834 0.0369677 -0.0580425 -0.0973158 0.0144518 -0.0541137 -0.106862 0.0361871 
-0.0369829 -0.0988227 0.031118 -0.068308 -0.0976207 0.0199548 -0.0426444 -0.104718 0.00929562 
-0.0712389 -0.106608 0.0286577 -0.0457537 -0.108334 0.0130296 -0.0452385 -0.107884 0.0408187 
-0.0334575 -0.107924 0.0242554 -0.0254129 -0.0966501 0.0224182 -0.0300087 -0.102478 0.018056 
-0.0476392 -0.0946802 0.0142691 -0.0320997 -0.0940369 0.020757 -0.0274725 -0.0941991 0.0248461 
-0.0495982 -0.107919 0.0410849 -0.0503386 -0.0970192 0.0276395 -0.052993 -0.107915 0.0406196 
-0.0289601 -0.105558 0.0293093 -0.0574795 -0.109415 0.0165653 -0.0375191 -0.107576 0.0349668 
-0.0749012 -0.106408 0.0238372 -0.0312998 -0.106913 0.0211358 -0.057969 -0.107871 0.039074 
-0.0383859 -0.104153 0.0350066 -0.0652585 -0.107746 0.0354838 -0.0530792 -0.101363 0.00975154 
-0.0581463 -0.10907 0.0277419 -0.0398237 -0.109207 0.0328442 -0.0391938 -0.0961352 0.0283428 
-0.0388894 -0.109748 0.0260228 -0.0675314 -0.0996481 0.0268917 -0.0692694 -0.107663 0.0332067 
-0.0312456 -0.101464 0.0144713 -0.0558622 -0.100583 0.0111372 -0.0566202 -0.107991 0.04185 
-0.0625274 -0.0956788 0.015644 
VERTICES 100 200
1 0 
1 1 
1 2 
1 3 
1 4 
1 5 
1 6 
1 7 
1 8 
1 9 
1 10 
1 11 
1 12 
1 13 
1 14 
1 15 
1 16 
1 17 
1 18 
1 19 
1 20 
1 21 
1 22 
1 23 
1 24 
1 25 
1 26 
1 27 
1 28 
1 29 
1 30 
1 31 
1 32 
1 33 
1 34 
1 35 
1 36 
1 37 
1 38 
1 39 
1 40 
1 41 
1 42 
1 43 
1 44 
1 45 
1 46 
1 47 
1 48 
1 49 
1 50 
1 51 
1 52 
1 53 
1 54 
1 55 
1 56 
1 57 
1 58 
1 59 
1 60 
1 61 
1 62 
1 63 
1 64 
1 65 
1 66 
1 67 
1 68 
1 69 
1 70 
1 71 
1 72 
1 73 
1 74 
1 75 
1 76 
1 77 
1 78 
1 79 
1 80 
1 81 
1 82 
1 83 
1 84 
1 85 
1 86 
1 87 
1 88 
1 89 
1 90 
1 91 
1 92 
1 93 
1 94 
1 95 
1 96 
1 97 
1 98 
1 99 

POINT_DATA 100
FIELD FieldData 7
id 1 100 int
1 2 3 4 5 6 7 8 9 
10 11 12 13 14 15 16 17 18 
19 20 21 22 23 24 25 26 27 
28 29 30 31 32 33 34 35 36 
37 38 39 40 41 42 43 44 45 
46 47 48 49 50 51 52 53 54 
55 56 57 58 59 60 61 62 63 
64 65 66 67 68 69 70 71 72 
73 74 75 76 77 78 79 80 81 
82 83 84 85 86 87 88 89 90 
91 92 93 94 95 96 97 98 99 
100 
mol 1 100 int
1 1 1 1 1 1 1 1 1 
1 1 1 1 1 1 1 1 1 
1 1 1 1 1 1 1 1 1 
1 1 1 1 1 1 1 1 1 
1 1 1 1 1 1 1 1 1 
1 1 1 1 1 2 2 2 2 
2 2 2 2 2 2 2 2 2 
2 2 2 2 2 2 2 2 2 
2 2 2 2 2 2 2 2 2 
2 2 2 2 2 2 2 2 2 
2 2 2 2 2 2 2 2 2 
2 
type 1 100 int
1 1 1 1 1 1 1 1 1 
1 1 1 1 1 1 1 1 1 
1 1 1 1 1 1 1 1 1 
1 1 1 1 1 1 1 1 1 
1 1 1 1 1 1 1 1 1 
1 1 1 1 1 1 1 1 1 
1 1 1 1 1 1 1 1 1 
1 1 1 1 1 1 1 1 1 
1 1 1 1 1 1 1 1 1 
1 1 1 1 1 1 1 1 1 
1 1 1 1 1 1 1 1 1 
1 
v 3 100 double
-0.102794 -0.0587008 0.326009 -0.106523 -0.0613208 0.251159 -0.123167 -0.0677485 0.182638 
-0.172002 -0.0803397 0.29764 -0.140467 -0.068872 0.391647 -0.177039 -0.0831216 0.234723 
-0.180114 -0.0856608 0.153906 -0.171899 -0.0791825 0.354415 -0.134163 -0.0723592 0.118999 
-0.0439573 -0.0416475 0.282419 -0.222649 -0.096355 0.267823 -0.208188 -0.0934749 0.190979 
-0.0533189 -0.0450937 0.252402 -0.226885 -0.0968526 0.307783 -0.0728906 -0.0518571 0.211908 
-0.223689 -0.09755 0.223528 -0.185555 -0.0832374 0.359652 -0.113371 -0.065601 0.1405 
-0.0332585 -0.0379841 0.302855 -0.174199 -0.0848777 0.102559 -0.0597263 -0.0466144 0.274119 
-0.254378 -0.105687 0.284468 -0.136084 -0.0680964 0.363453 -0.122574 -0.0623942 0.443528 
-0.0924215 -0.0541151 0.397967 -0.069845 -0.0493735 0.290373 -0.112408 -0.0601231 0.401937 
-0.140169 -0.0679246 0.434849 -0.257067 -0.107112 0.253912 -0.163857 -0.0784224 0.269242 
-0.254451 -0.106789 0.230045 -0.17083 -0.0779319 0.401063 -0.0866393 -0.0564703 0.190415 
-0.211935 -0.091701 0.337975 -0.141133 -0.0753279 0.076335 -0.113896 -0.0610097 0.38008 
-0.244568 -0.104475 0.194967 -0.212648 -0.0918931 0.339235 -0.220805 -0.0982601 0.143433 
-0.0386962 -0.0409453 0.237039 -0.165106 -0.080398 0.188804 -0.197371 -0.0876637 0.317905 
-0.166741 -0.0777123 0.349338 -0.149355 -0.0729624 0.321873 -0.16167 -0.0802593 0.143046 
-0.205617 -0.0941978 0.115043 -0.0676181 -0.0467051 0.390728 -0.0489946 -0.0444293 0.219502 
-0.263755 -0.110124 0.204735 -0.082223 -0.0552477 0.184245 -0.102316 -0.058418 0.278487 
-0.103946 -0.0608136 0.204882 -0.118458 -0.0669607 0.137106 -0.169444 -0.0795255 0.248627 
-0.141109 -0.0685338 0.341832 -0.172677 -0.0821045 0.186703 -0.173507 -0.0844084 0.107256 
-0.170779 -0.0784888 0.304409 -0.127519 -0.0713281 0.0742995 -0.0434887 -0.0416592 0.237367 
-0.218244 -0.0951026 0.217906 -0.202007 -0.0921225 0.14286 -0.0520271 -0.0450155 0.207573 
-0.223427 -0.0956619 0.257037 -0.07012 -0.0515384 0.167247 -0.218049 -0.0961677 0.174386 
-0.184582 -0.0825497 0.30908 -0.107948 -0.0648401 0.0959436 -0.0333081 -0.0380469 0.257812 
-0.166261 -0.083511 0.0570238 -0.0583695 -0.0463868 0.228866 -0.249751 -0.104248 0.233352 
-0.135721 -0.067611 0.314368 -0.125079 -0.0623491 0.393259 -0.0940135 -0.0540692 0.349468 
-0.0693309 -0.0493072 0.244361 -0.114108 -0.0600739 0.352677 -0.142229 -0.0677786 0.384192 
-0.251577 -0.105579 0.203266 -0.160957 -0.0776706 0.2209 -0.248375 -0.105212 0.179903 
-0.170934 -0.077351 0.350263 -0.0825174 -0.0558458 0.145891 -0.209521 -0.0906717 0.287133 
-0.133112 -0.0741094 0.0322304 -0.114426 -0.0607216 0.331331 -0.237743 -0.102874 0.145741 
-0.210404 -0.0909087 0.288307 -0.21305 -0.0966829 0.0958214 -0.0370432 -0.0408534 0.192975 
-0.159519 -0.0792728 0.142019 -0.194619 -0.0866549 0.267868 -0.165956 -0.0771554 0.299464 
-0.147564 -0.072263 0.273171 -0.155342 -0.0791688 0.0970616 -0.197389 -0.0926475 0.0683823 
-0.0695161 -0.0468133 0.343068 -0.0467209 -0.0442381 0.175442 -0.256832 -0.108423 0.154777 
-0.0786177 -0.0548221 0.139787 
f 3 100 double
0 0 0 0 0 0 0 0 0 
0 0 0 0 0 0 0 0 0 
0 0 0 0 0 0 0 0 0 
0 0 0 0 0 0 0 0 0 
0 0 0 0 0 0 0 0 0 
0 0 0 0 0 0 0 0 0 
0 0 0 0 0 0 0 0 0 
0 0 0 0 0 0 0 0 0 
0 0 0 0 0 0 0 0 0 
0 0 0 0 0 0 0 0 0 
0 0 0 0 0 0 0 0 0 
0 0 0 0 0 0 0 0 0 
0 0 0 0 0 0 0 0 0 
0 0 0 0 0 0 0 0 0 
0 0 0 0 0 0 0 0 0 
0 0 0 0 0 0 0 0 0 
0 0 0 0 0 0 0 0 0 
0 0 0 0 0 0 0 0 0 
0 0 0 0 0 0 0 0 0 
0 0 0 0 0 0 0 0 0 
0 0 0 0 0 0 0 0 0 
0 0 0 0 0 0 0 0 0 
0 0 0 0 0 0 0 0 0 
0 0 0 0 0 0 0 0 0 
0 0 0 0 0 0 0 0 0 
0 0 0 0 0 0 0 0 0 
0 0 0 0 0 0 0 0 0 
0 0 0 0 0 0 0 0 0 
0 0 0 0 0 0 0 0 0 
0 0 0 0 0 0 0 0 0 
0 0 0 0 0 0 0 0 0 
0 0 0 0 0 0 0 0 0 
0 0 0 0 0 0 0 0 0 
0 0 0 
radius 1 100 double
0.010434 0.00981478 0.00892069 0.00845937 0.00731974 0.00728422 0.00643447 0.00619172 0.00585956 
0.00577566 0.00537241 0.00522549 0.00513666 0.00473175 0.00466912 0.00444866 0.00441894 0.00400812 
0.00385622 0.00379948 0.00370243 0.00366942 0.00364039 0.00363813 0.00363644 0.00358692 0.0035797 
0.00341284 0.00337012 0.00336273 0.00332772 0.00323261 0.00320584 0.00320311 0.00318808 0.00313116 
0.00306026 0.00305632 0.00304383 0.00300958 0.00300137 0.00298994 0.0029567 0.00295111 0.00290849 
0.00284552 0.00282964 0.0028207 0.00281971 0.00281899 0.010434 0.00981478 0.00892069 0.00845937 
0.00731974 0.00728422 0.00643447 0.00619172 0.00585956 0.00577566 0.00537241 0.00522549 0.00513666 
0.00473175 0.00466912 0.00444866 0.00441894 0.00400812 0.00385622 0.00379948 0.00370243 0.00366942 
0.00364039 0.00363813 0.00363644 0.00358692 0.0035797 0.00341284 0.00337012 0.00336273 0.00332772 
0.00323261 0.00320584 0.00320311 0.00318808 0.00313116 0.00306026 0.00305632 0.00304383 0.00300958 
0.00300137 0.00298994 0.0029567 0.00295111 0.00290849 0.00284552 0.00282964 0.0028207 0.00281971 
0.00281899 
omega 3 100 double
2.13433 -7.00847 0.138988 2.13433 -7.00847 0.138988 2.13433 -7.00847 0.138988 
2.13433 -7.00847 0.138988 2.13433 -7.00847 0.138988 2.13433 -7.00847 0.138988 
2.13433 -7.00847 0.138988 2.13433 -7.00847 0.138988 2.13433 -7.00847 0.138988 
2.13433 -7.00847 0.138988 2.13433 -7.00847 0.138988 2.13433 -7.00847 0.138988 
2.13433 -7.00847 0.138988 2.13433 -7.00847 0.138988 2.13433 -7.00847 0.138988 
2.13433 -7.00847 0.138988 2.13433 -7.00847 0.138988 2.13433 -7.00847 0.138988 
2.13433 -7.00847 0.138988 2.13433 -7.00847 0.138988 2.13433 -7.00847 0.138988 
2.13433 -7.00847 0.138988 2.13433 -7.00847 0.138988 2.13433 -7.00847 0.138988 
2.13433 -7.00847 0.138988 2.13433 -7.00847 0.138988 2.13433 -7.00847 0.138988 
2.13433 -7.00847 0.138988 2.13433 -7.00847 0.138988 2.13433 -7.00847 0.138988 
2.13433 -7.00847 0.138988 2.13433 -7.00847 0.138988 2.13433 -7.00847 0.138988 
2.13433 -7.00847 0.138988 2.13433 -7.00847 0.138988 2.13433 -7.00847 0.138988 
2.13433 -7.00847 0.138988 2.13433 -7.00847 0.138988 2.13433 -7.00847 0.138988 
2.13433 -7.00847 0.138988 2.13433 -7.00847 0.138988 2.13433 -7.00847 0.138988 
2.13433 -7.00847 0.138988 2.13433 -7.00847 0.138988 2.13433 -7.00847 0.138988 
2.13433 -7.00847 0.138988 2.13433 -7.00847 0.138988 2.13433 -7.00847 0.138988 
2.13433 -7.00847 0.138988 2.13433 -7.00847 0.138988 2.08546 -6.88404 0.177842 
2.08546 -6.88404 0.177842 2.08546 -6.88404 0.177842 2.08546 -6.88404 0.177842 
2.08546 -6.88404 0.177842 2.08546 -6.88404 0.177842 2.08546 -6.88404 0.177842 
2.08546 -6.88404 0.177842 2.08546 -6.88404 0.177842 2.08546 -6.88404 0.177842 
2.08546 -6.88404 0.177842 2.08546 -6.88404 0.177842 2.08546 -6.88404 0.177842 
2.08546 -6.88404 0.177842 2.08546 -6.88404 0.177842 2.08546 -6.88404 0.177842 
2.08546 -6.88404 0.177842 2.08546 -6.88404 0.177842 2.08546 -6.88404 0.177842 
2.08546 -6.88404 0.177842 2.08546 -6.88404 0.177842 2.08546 -6.88404 0.177842 
2.08546 -6.88404 0.177842 2.08546 -6.88404 0.177842 2.08546 -6.88404 0.177842 
2.08546 -6.88404 0.177842 2.08546 -6.88404 0.177842 2.08546 -6.88404 0.177842 
2.08546 -6.88404 0.177842 2.08546 -6.88404 0.177842 2.08546 -6.88404 0.177842 
2.08546 -6.88404 0.177842 2.08546 -6.88404 0.177842 2.08546 -6.88404 0.177842 
2.08546 -6.88404 0.177842 2.08546 -6.88404 0.177842 2.08546 -6.88404 0.177842 
2.08546 -6.88404 0.177842 2.08546 -6.88404 0.177842 2.08546 -6.88404 0.177842 
2.08546 -6.88404 0.177842 2.08546 -6.88404 0.177842 2.08546 -6.88404 0.177842 
2.08546 -6.88404 0.177842 2.08546 -6.88404 0.177842 2.08546 -6.88404 0.177842 
2.08546 -6.88404 0.177842 2.08546 -6.88404 0.177842 2.08546 -6.88404 0.177842 
2.08546 -6.88404 0.177842 
