# vtk DataFile Version 4.0
Generated by LIGGGHTS
ASCII
DATASET POLYDATA
POINTS 100 float
-0.115849 -0.132945 0.0212452 -0.125623 -0.13389 0.0176527 -0.135517 -0.134245 0.01607 
-0.122981 -0.135223 0.0287912 -0.109749 -0.131995 0.0297285 -0.131256 -0.136193 0.0260259 
-0.14178 -0.137126 0.0220198 -0.114973 -0.136918 0.0319596 -0.144203 -0.135337 0.0140462 
-0.118998 -0.130039 0.0110741 -0.128785 -0.138829 0.0338866 -0.138125 -0.138548 0.0277685 
-0.124514 -0.126819 0.0105274 -0.123486 -0.139763 0.0366688 -0.13061 -0.128083 0.0108996 
-0.134397 -0.139714 0.0316204 -0.116884 -0.131216 0.0338194 -0.142148 -0.128926 0.0122834 
-0.114135 -0.134942 0.0109814 -0.147684 -0.138724 0.0184854 -0.118246 -0.138908 0.0129973 
-0.127742 -0.141185 0.0390234 -0.110813 -0.1396 0.0278854 -0.103049 -0.1282 0.0301085 
-0.105567 -0.133572 0.0238703 -0.120932 -0.125441 0.014718 -0.108784 -0.125437 0.0263969 
-0.105927 -0.125999 0.0318449 -0.131903 -0.141246 0.0376971 -0.12816 -0.12908 0.0259447 
-0.134903 -0.141197 0.0360428 -0.108513 -0.137741 0.0344137 -0.130414 -0.14033 0.0119578 
-0.118454 -0.140305 0.0363989 -0.14938 -0.138052 0.0127094 -0.107718 -0.138288 0.0258589 
-0.138993 -0.141002 0.0328197 -0.119398 -0.136901 0.0364368 -0.144511 -0.140525 0.0268726 
-0.124152 -0.131649 0.00795331 -0.135054 -0.141084 0.0221255 -0.119785 -0.141719 0.0334491 
-0.118047 -0.128269 0.0306925 -0.11645 -0.141589 0.0274031 -0.143838 -0.131624 0.0188178 
-0.14744 -0.140219 0.0233215 -0.105471 -0.132211 0.0201896 -0.127272 -0.131009 0.00830874 
-0.138726 -0.141393 0.0358718 -0.135279 -0.126571 0.0105408 -0.046945 -0.105141 0.0197291 
-0.0566428 -0.106089 0.0159356 -0.0665027 -0.106457 0.0141524 -0.0542222 -0.107478 0.0271172 
-0.0410194 -0.104225 0.0283384 -0.0624367 -0.108452 0.0241808 -0.0728762 -0.109387 0.0199588 
-0.0462747 -0.109173 0.0304362 -0.0751427 -0.107558 0.0119484 -0.0498966 -0.102184 0.00951338 
-0.0601176 -0.111128 0.0320744 -0.0693336 -0.110833 0.0257716 -0.0554085 -0.0989742 0.00887429 
-0.0548733 -0.112064 0.0349571 -0.0615073 -0.100254 0.00911677 -0.0656817 -0.112012 0.0296909 
-0.0482365 -0.103486 0.0322896 -0.0730688 -0.101132 0.0102637 -0.0450209 -0.107076 0.00949058 
-0.0787039 -0.110978 0.0162975 -0.0491619 -0.111062 0.0114009 -0.0591724 -0.11351 0.0372176 
-0.0420277 -0.111822 0.0264312 -0.0343373 -0.100417 0.0288745 -0.0367162 -0.105759 0.0225566 
-0.0519149 -0.097612 0.0131437 -0.0400034 -0.0976458 0.0250642 -0.0372552 -0.0982325 0.0305651 
-0.0633061 -0.113573 0.0358077 -0.0593577 -0.101332 0.0242022 -0.0662727 -0.113522 0.0340938 
-0.0398633 -0.109995 0.0330148 -0.061303 -0.112507 0.0101092 -0.0498359 -0.112593 0.0347853 
-0.0802851 -0.110277 0.0104925 -0.0388956 -0.110491 0.0244747 -0.0702973 -0.113318 0.0307903 
-0.0507887 -0.109192 0.0348236 -0.0756958 -0.11282 0.0247364 -0.0549826 -0.103789 0.0062806 
-0.0661446 -0.113329 0.0201771 -0.0511045 -0.113994 0.0318014 -0.0493436 -0.100524 0.0291567 
-0.0476484 -0.113821 0.0258245 -0.0748832 -0.103871 0.0167474 -0.0785533 -0.112501 0.021129 
-0.0365505 -0.104377 0.0188862 -0.0581112 -0.103158 0.00657689 -0.0700902 -0.113726 0.0338449 
-0.0661719 -0.0987507 0.00867284 
VERTICES 100 200
1 0 
1 1 
1 2 
1 3 
1 4 
1 5 
1 6 
1 7 
1 8 
1 9 
1 10 
1 11 
1 12 
1 13 
1 14 
1 15 
1 16 
1 17 
1 18 
1 19 
1 20 
1 21 
1 22 
1 23 
1 24 
1 25 
1 26 
1 27 
1 28 
1 29 
1 30 
1 31 
1 32 
1 33 
1 34 
1 35 
1 36 
1 37 
1 38 
1 39 
1 40 
1 41 
1 42 
1 43 
1 44 
1 45 
1 46 
1 47 
1 48 
1 49 
1 50 
1 51 
1 52 
1 53 
1 54 
1 55 
1 56 
1 57 
1 58 
1 59 
1 60 
1 61 
1 62 
1 63 
1 64 
1 65 
1 66 
1 67 
1 68 
1 69 
1 70 
1 71 
1 72 
1 73 
1 74 
1 75 
1 76 
1 77 
1 78 
1 79 
1 80 
1 81 
1 82 
1 83 
1 84 
1 85 
1 86 
1 87 
1 88 
1 89 
1 90 
1 91 
1 92 
1 93 
1 94 
1 95 
1 96 
1 97 
1 98 
1 99 

POINT_DATA 100
FIELD FieldData 7
id 1 100 int
1 2 3 4 5 6 7 8 9 
10 11 12 13 14 15 16 17 18 
19 20 21 22 23 24 25 26 27 
28 29 30 31 32 33 34 35 36 
37 38 39 40 41 42 43 44 45 
46 47 48 49 50 51 52 53 54 
55 56 57 58 59 60 61 62 63 
64 65 66 67 68 69 70 71 72 
73 74 75 76 77 78 79 80 81 
82 83 84 85 86 87 88 89 90 
91 92 93 94 95 96 97 98 99 
100 
mol 1 100 int
1 1 1 1 1 1 1 1 1 
1 1 1 1 1 1 1 1 1 
1 1 1 1 1 1 1 1 1 
1 1 1 1 1 1 1 1 1 
1 1 1 1 1 1 1 1 1 
1 1 1 1 1 2 2 2 2 
2 2 2 2 2 2 2 2 2 
2 2 2 2 2 2 2 2 2 
2 2 2 2 2 2 2 2 2 
2 2 2 2 2 2 2 2 2 
2 2 2 2 2 2 2 2 2 
2 
type 1 100 int
1 1 1 1 1 1 1 1 1 
1 1 1 1 1 1 1 1 1 
1 1 1 1 1 1 1 1 1 
1 1 1 1 1 1 1 1 1 
1 1 1 1 1 1 1 1 1 
1 1 1 1 1 1 1 1 1 
1 1 1 1 1 1 1 1 1 
1 1 1 1 1 1 1 1 1 
1 1 1 1 1 1 1 1 1 
1 1 1 1 1 1 1 1 1 
1 1 1 1 1 1 1 1 1 
1 
v 3 100 double
-0.127956 -0.0638956 -0.214395 -0.10198 -0.0625046 -0.285436 -0.0905632 -0.0643703 -0.35639 
-0.180628 -0.0790865 -0.268767 -0.188727 -0.0747117 -0.16949 -0.160525 -0.0783487 -0.329175 
-0.131612 -0.0766311 -0.405533 -0.202415 -0.0805846 -0.214497 -0.0756815 -0.0649966 -0.419916 
-0.0568883 -0.0490808 -0.232168 -0.215276 -0.0897818 -0.315799 -0.171877 -0.0841726 -0.381795 
-0.0544274 -0.050656 -0.266277 -0.234654 -0.091866 -0.27959 -0.0565148 -0.0539528 -0.311655 
-0.198762 -0.0886591 -0.357139 -0.218175 -0.0843965 -0.219003 -0.0659846 -0.0612756 -0.39508 
-0.0540543 -0.0467764 -0.20539 -0.10576 -0.0736162 -0.450078 -0.0666364 -0.0518128 -0.240956 
-0.250774 -0.0975066 -0.312136 -0.172242 -0.0722461 -0.189182 -0.193113 -0.0723456 -0.115775 
-0.146353 -0.0635194 -0.142249 -0.0848498 -0.0557466 -0.2386 -0.167935 -0.0689734 -0.152169 
-0.206442 -0.0763898 -0.132743 -0.241312 -0.0972383 -0.341837 -0.163102 -0.0768464 -0.295818 
-0.229565 -0.0959322 -0.363103 -0.219509 -0.0816311 -0.169854 -0.0586106 -0.0555527 -0.329785 
-0.232494 -0.0892042 -0.24466 -0.0649677 -0.065162 -0.461071 -0.158408 -0.0676432 -0.165071 
-0.206723 -0.0926088 -0.391884 -0.234273 -0.0896833 -0.24595 -0.164627 -0.0855772 -0.430379 
-0.0339731 -0.0463924 -0.271397 -0.130608 -0.0738167 -0.363996 -0.210882 -0.0850931 -0.256387 
-0.197237 -0.0799283 -0.222579 -0.167929 -0.0739772 -0.232449 -0.111274 -0.0724404 -0.411404 
-0.1395 -0.0812161 -0.450725 -0.120772 -0.0576105 -0.139403 -0.0367854 -0.0483429 -0.292576 
-0.228261 -0.0973549 -0.390605 -0.054633 -0.0554517 -0.34246 -0.126803 -0.0634917 -0.262852 
-0.0998654 -0.0620049 -0.332088 -0.0872381 -0.0637105 -0.401558 -0.177369 -0.0782548 -0.317329 
-0.187378 -0.0741611 -0.220025 -0.156408 -0.0774249 -0.37624 -0.126482 -0.0756097 -0.45064 
-0.199792 -0.0797993 -0.264424 -0.0713376 -0.0642099 -0.463639 -0.0567598 -0.0489813 -0.27889 
-0.210353 -0.0886197 -0.364187 -0.166444 -0.0830211 -0.428128 -0.05375 -0.0504897 -0.312425 
-0.230072 -0.0907134 -0.328994 -0.0548639 -0.0536322 -0.357027 -0.193297 -0.0874454 -0.404439 
-0.215322 -0.0835646 -0.26931 -0.0624796 -0.0606554 -0.439178 -0.0543819 -0.0467345 -0.252409 
-0.100177 -0.0725726 -0.49383 -0.0659228 -0.0515765 -0.28753 -0.245212 -0.0961704 -0.361278 
-0.170605 -0.0716595 -0.238858 -0.192851 -0.071962 -0.167425 -0.14628 -0.0632391 -0.192336 
-0.0842011 -0.055529 -0.2859 -0.167482 -0.0686204 -0.202718 -0.205655 -0.0759085 -0.184425 
-0.235331 -0.0958579 -0.390262 -0.159787 -0.0760615 -0.343679 -0.223377 -0.0945443 -0.410912 
-0.217438 -0.080892 -0.220899 -0.056241 -0.0550792 -0.37461 -0.228631 -0.0881621 -0.294615 
-0.0599311 -0.0642835 -0.503791 -0.157537 -0.0672035 -0.214906 -0.200387 -0.0912446 -0.438717 
-0.230441 -0.0886536 -0.295997 -0.15831 -0.0843008 -0.475668 -0.0334424 -0.0462726 -0.316919 
-0.12622 -0.0728951 -0.409717 -0.207145 -0.084108 -0.305653 -0.194774 -0.0792062 -0.272451 
-0.165459 -0.0732675 -0.281235 -0.106544 -0.0715376 -0.456106 -0.133247 -0.0800001 -0.49514 
-0.12126 -0.0574695 -0.189034 -0.0357989 -0.0481513 -0.337802 -0.221546 -0.0958897 -0.437903 
-0.0524437 -0.0550591 -0.38729 
f 3 100 double
0 0 0 0 0 0 0 0 0 
0 0 0 0 0 0 0 0 0 
0 0 0 0 0 0 0 0 0 
0 0 0 0 0 0 0 0 0 
0 0 0 0 0 0 0 0 0 
0 0 0 0 0 0 0 0 0 
0 0 0 0 0 0 0 0 0 
0 0 0 0 0 0 0 0 0 
0 0 0 0 0 0 0 0 0 
0 0 0 0 0 0 0 0 0 
0 0 0 0 0 0 0 0 0 
0 0 0 0 0 0 0 0 0 
0 0 0 0 0 0 0 0 0 
0 0 0 0 0 0 0 0 0 
0 0 0 0 0 0 0 0 0 
0 0 0 0 0 0 0 0 0 
0 0 0 0 0 0 0 0 0 
0 0 0 0 0 0 0 0 0 
0 0 0 0 0 0 0 0 0 
0 0 0 0 0 0 0 0 0 
0 0 0 0 0 0 0 0 0 
0 0 0 0 0 0 0 0 0 
0 0 0 0 0 0 0 0 0 
0 0 0 0 0 0 0 0 0 
0 0 0 0 0 0 0 0 0 
0 0 0 0 0 0 0 0 0 
0 0 0 0 0 0 0 0 0 
0 0 0 0 0 0 0 0 0 
0 0 0 0 0 0 0 0 0 
0 0 0 0 0 0 0 0 0 
0 0 0 0 0 0 0 0 0 
0 0 0 0 0 0 0 0 0 
0 0 0 0 0 0 0 0 0 
0 0 0 
radius 1 100 double
0.010434 0.00981478 0.00892069 0.00845937 0.00731974 0.00728422 0.00643447 0.00619172 0.00585956 
0.00577566 0.00537241 0.00522549 0.00513666 0.00473175 0.00466912 0.00444866 0.00441894 0.00400812 
0.00385622 0.00379948 0.00370243 0.00366942 0.00364039 0.00363813 0.00363644 0.00358692 0.0035797 
0.00341284 0.00337012 0.00336273 0.00332772 0.00323261 0.00320584 0.00320311 0.00318808 0.00313116 
0.00306026 0.00305632 0.00304383 0.00300958 0.00300137 0.00298994 0.0029567 0.00295111 0.00290849 
0.00284552 0.00282964 0.0028207 0.00281971 0.00281899 0.010434 0.00981478 0.00892069 0.00845937 
0.00731974 0.00728422 0.00643447 0.00619172 0.00585956 0.00577566 0.00537241 0.00522549 0.00513666 
0.00473175 0.00466912 0.00444866 0.00441894 0.00400812 0.00385622 0.00379948 0.00370243 0.00366942 
0.00364039 0.00363813 0.00363644 0.00358692 0.0035797 0.00341284 0.00337012 0.00336273 0.00332772 
0.00323261 0.00320584 0.00320311 0.00318808 0.00313116 0.00306026 0.00305632 0.00304383 0.00300958 
0.00300137 0.00298994 0.0029567 0.00295111 0.00290849 0.00284552 0.00282964 0.0028207 0.00281971 
0.00281899 
omega 3 100 double
1.59388 -7.11392 0.443518 1.59388 -7.11392 0.443518 1.59388 -7.11392 0.443518 
1.59388 -7.11392 0.443518 1.59388 -7.11392 0.443518 1.59388 -7.11392 0.443518 
1.59388 -7.11392 0.443518 1.59388 -7.11392 0.443518 1.59388 -7.11392 0.443518 
1.59388 -7.11392 0.443518 1.59388 -7.11392 0.443518 1.59388 -7.11392 0.443518 
1.59388 -7.11392 0.443518 1.59388 -7.11392 0.443518 1.59388 -7.11392 0.443518 
1.59388 -7.11392 0.443518 1.59388 -7.11392 0.443518 1.59388 -7.11392 0.443518 
1.59388 -7.11392 0.443518 1.59388 -7.11392 0.443518 1.59388 -7.11392 0.443518 
1.59388 -7.11392 0.443518 1.59388 -7.11392 0.443518 1.59388 -7.11392 0.443518 
1.59388 -7.11392 0.443518 1.59388 -7.11392 0.443518 1.59388 -7.11392 0.443518 
1.59388 -7.11392 0.443518 1.59388 -7.11392 0.443518 1.59388 -7.11392 0.443518 
1.59388 -7.11392 0.443518 1.59388 -7.11392 0.443518 1.59388 -7.11392 0.443518 
1.59388 -7.11392 0.443518 1.59388 -7.11392 0.443518 1.59388 -7.11392 0.443518 
1.59388 -7.11392 0.443518 1.59388 -7.11392 0.443518 1.59388 -7.11392 0.443518 
1.59388 -7.11392 0.443518 1.59388 -7.11392 0.443518 1.59388 -7.11392 0.443518 
1.59388 -7.11392 0.443518 1.59388 -7.11392 0.443518 1.59388 -7.11392 0.443518 
1.59388 -7.11392 0.443518 1.59388 -7.11392 0.443518 1.59388 -7.11392 0.443518 
1.59388 -7.11392 0.443518 1.59388 -7.11392 0.443518 1.55146 -6.98769 0.453565 
1.55146 -6.98769 0.453565 1.55146 -6.98769 0.453565 1.55146 -6.98769 0.453565 
1.55146 -6.98769 0.453565 1.55146 -6.98769 0.453565 1.55146 -6.98769 0.453565 
1.55146 -6.98769 0.453565 1.55146 -6.98769 0.453565 1.55146 -6.98769 0.453565 
1.55146 -6.98769 0.453565 1.55146 -6.98769 0.453565 1.55146 -6.98769 0.453565 
1.55146 -6.98769 0.453565 1.55146 -6.98769 0.453565 1.55146 -6.98769 0.453565 
1.55146 -6.98769 0.453565 1.55146 -6.98769 0.453565 1.55146 -6.98769 0.453565 
1.55146 -6.98769 0.453565 1.55146 -6.98769 0.453565 1.55146 -6.98769 0.453565 
1.55146 -6.98769 0.453565 1.55146 -6.98769 0.453565 1.55146 -6.98769 0.453565 
1.55146 -6.98769 0.453565 1.55146 -6.98769 0.453565 1.55146 -6.98769 0.453565 
1.55146 -6.98769 0.453565 1.55146 -6.98769 0.453565 1.55146 -6.98769 0.453565 
1.55146 -6.98769 0.453565 1.55146 -6.98769 0.453565 1.55146 -6.98769 0.453565 
1.55146 -6.98769 0.453565 1.55146 -6.98769 0.453565 1.55146 -6.98769 0.453565 
1.55146 -6.98769 0.453565 1.55146 -6.98769 0.453565 1.55146 -6.98769 0.453565 
1.55146 -6.98769 0.453565 1.55146 -6.98769 0.453565 1.55146 -6.98769 0.453565 
1.55146 -6.98769 0.453565 1.55146 -6.98769 0.453565 1.55146 -6.98769 0.453565 
1.55146 -6.98769 0.453565 1.55146 -6.98769 0.453565 1.55146 -6.98769 0.453565 
1.55146 -6.98769 0.453565 
