# vtk DataFile Version 4.0
Generated by LIGGGHTS
ASCII
DATASET POLYDATA
POINTS 100 float
-0.118525 -0.134426 0.0171543 -0.127649 -0.135218 0.0121096 -0.137197 -0.13554 0.00906572 
-0.126654 -0.137192 0.0234203 -0.113753 -0.133943 0.0264855 -0.134417 -0.138048 0.0194125 
-0.144223 -0.138808 0.0138494 -0.119174 -0.139023 0.027633 -0.145473 -0.136565 0.00572228 
-0.120187 -0.130942 0.00681459 -0.133089 -0.141131 0.0273863 -0.141431 -0.140546 0.0199829 
-0.125611 -0.12773 0.00564646 -0.128243 -0.142195 0.0308617 -0.131675 -0.129051 0.0050411 
-0.138294 -0.141915 0.024269 -0.121422 -0.133453 0.0295165 -0.143278 -0.130047 0.00465532 
-0.115291 -0.135801 0.0071578 -0.149518 -0.14023 0.00939591 -0.119594 -0.139905 0.00831231 
-0.132778 -0.143781 0.032476 -0.114421 -0.141432 0.0240695 -0.107239 -0.130136 0.028069 
-0.108732 -0.135144 0.0212278 -0.122705 -0.126581 0.0103924 -0.112407 -0.127193 0.0237173 
-0.110374 -0.12806 0.0294857 -0.136697 -0.143789 0.0305486 -0.131449 -0.130925 0.0202 
-0.139422 -0.143661 0.0284751 -0.113134 -0.13995 0.0309622 -0.131455 -0.141339 0.00540751 
-0.123219 -0.142688 0.0313067 -0.150356 -0.139227 0.00348138 -0.111082 -0.139983 0.0226013 
-0.142996 -0.1433 0.0247004 -0.124209 -0.139299 0.0314013 -0.147586 -0.142506 0.0180414 
-0.124802 -0.132397 0.00287946 -0.137528 -0.142723 0.0147181 -0.124081 -0.143934 0.0281159 
-0.122157 -0.130333 0.0264276 -0.119895 -0.143424 0.0226463 -0.14587 -0.133139 0.0107018 
-0.149965 -0.142008 0.0141205 -0.108117 -0.133567 0.0176862 -0.12795 -0.131798 0.00280668 
-0.143175 -0.14387 0.0277308 -0.136263 -0.12755 0.00408488 -0.0496059 -0.106878 0.0176737 
-0.0586435 -0.107552 0.0124579 -0.0681397 -0.107837 0.00925269 -0.0578061 -0.109956 0.023698 
-0.0449848 -0.106717 0.0270913 -0.065497 -0.110722 0.0195373 -0.0752081 -0.111349 0.013794 
-0.0503757 -0.111884 0.0279548 -0.0763529 -0.108802 0.00574109 -0.0511401 -0.103009 0.00745181 
-0.064265 -0.114101 0.0274057 -0.0724964 -0.1133 0.019899 -0.0565739 -0.0998008 0.00632311 
-0.0594642 -0.115257 0.0309137 -0.0626159 -0.10115 0.00557078 -0.0694135 -0.114808 0.0241781 
-0.0527043 -0.106411 0.0300169 -0.0742012 -0.10223 0.00496254 -0.0462052 -0.107835 0.00768411 
-0.0804205 -0.112643 0.00920518 -0.0504877 -0.112018 0.00861022 -0.0640084 -0.116944 0.0323932 
-0.0455462 -0.114112 0.0243765 -0.0385311 -0.102919 0.0289244 -0.0398714 -0.10767 0.0218714 
-0.0537527 -0.0988121 0.0111555 -0.0436575 -0.0998537 0.0246086 -0.0417065 -0.100926 0.0303705 
-0.0678975 -0.116911 0.0304049 -0.0626081 -0.103609 0.0206474 -0.070591 -0.116726 0.028295 
-0.0443792 -0.112888 0.0313411 -0.0622878 -0.11344 0.00546408 -0.0544432 -0.115725 0.031419 
-0.0811759 -0.111418 0.00332142 -0.0421976 -0.112578 0.0230188 -0.0741089 -0.116249 0.0244808 
-0.0554657 -0.112351 0.0316291 -0.0786023 -0.115236 0.0177856 -0.0556791 -0.104349 0.0033905 
-0.0684914 -0.115237 0.0146164 -0.0552442 -0.116852 0.028169 -0.0534194 -0.10318 0.02704 
-0.0509787 -0.116095 0.0227905 -0.0768582 -0.105576 0.0108428 -0.0809245 -0.114607 0.0138496 
-0.0392162 -0.105951 0.0184038 -0.058831 -0.103775 0.003291 -0.074329 -0.116938 0.0274836 
-0.0672018 -0.0996516 0.00460078 
VERTICES 100 200
1 0 
1 1 
1 2 
1 3 
1 4 
1 5 
1 6 
1 7 
1 8 
1 9 
1 10 
1 11 
1 12 
1 13 
1 14 
1 15 
1 16 
1 17 
1 18 
1 19 
1 20 
1 21 
1 22 
1 23 
1 24 
1 25 
1 26 
1 27 
1 28 
1 29 
1 30 
1 31 
1 32 
1 33 
1 34 
1 35 
1 36 
1 37 
1 38 
1 39 
1 40 
1 41 
1 42 
1 43 
1 44 
1 45 
1 46 
1 47 
1 48 
1 49 
1 50 
1 51 
1 52 
1 53 
1 54 
1 55 
1 56 
1 57 
1 58 
1 59 
1 60 
1 61 
1 62 
1 63 
1 64 
1 65 
1 66 
1 67 
1 68 
1 69 
1 70 
1 71 
1 72 
1 73 
1 74 
1 75 
1 76 
1 77 
1 78 
1 79 
1 80 
1 81 
1 82 
1 83 
1 84 
1 85 
1 86 
1 87 
1 88 
1 89 
1 90 
1 91 
1 92 
1 93 
1 94 
1 95 
1 96 
1 97 
1 98 
1 99 

POINT_DATA 100
FIELD FieldData 7
id 1 100 int
1 2 3 4 5 6 7 8 9 
10 11 12 13 14 15 16 17 18 
19 20 21 22 23 24 25 26 27 
28 29 30 31 32 33 34 35 36 
37 38 39 40 41 42 43 44 45 
46 47 48 49 50 51 52 53 54 
55 56 57 58 59 60 61 62 63 
64 65 66 67 68 69 70 71 72 
73 74 75 76 77 78 79 80 81 
82 83 84 85 86 87 88 89 90 
91 92 93 94 95 96 97 98 99 
100 
mol 1 100 int
1 1 1 1 1 1 1 1 1 
1 1 1 1 1 1 1 1 1 
1 1 1 1 1 1 1 1 1 
1 1 1 1 1 1 1 1 1 
1 1 1 1 1 1 1 1 1 
1 1 1 1 1 2 2 2 2 
2 2 2 2 2 2 2 2 2 
2 2 2 2 2 2 2 2 2 
2 2 2 2 2 2 2 2 2 
2 2 2 2 2 2 2 2 2 
2 2 2 2 2 2 2 2 2 
2 
type 1 100 int
1 1 1 1 1 1 1 1 1 
1 1 1 1 1 1 1 1 1 
1 1 1 1 1 1 1 1 1 
1 1 1 1 1 1 1 1 1 
1 1 1 1 1 1 1 1 1 
1 1 1 1 1 1 1 1 1 
1 1 1 1 1 1 1 1 1 
1 1 1 1 1 1 1 1 1 
1 1 1 1 1 1 1 1 1 
1 1 1 1 1 1 1 1 1 
1 1 1 1 1 1 1 1 1 
1 
v 3 100 double
-0.120978 -0.134681 0.146396 -0.0913247 -0.0916583 0.0860069 -0.0733174 -0.0627132 0.0264615 
-0.16058 -0.173742 0.0777736 -0.176553 -0.205318 0.178471 -0.137189 -0.139183 0.0250896 
-0.104405 -0.0919287 -0.0391531 -0.187183 -0.209566 0.109446 -0.0540335 -0.0325531 -0.0305132 
-0.0564278 -0.0590878 0.161486 -0.187262 -0.197513 0.0108756 -0.142453 -0.138104 -0.0349201 
-0.0470531 -0.0466803 0.152082 -0.208879 -0.226088 0.0322719 -0.0444005 -0.0378464 0.106228 
-0.169155 -0.171248 -0.0259585 -0.194358 -0.221452 0.136027 -0.0428239 -0.0265012 0.0295196 
-0.0620741 -0.065173 0.15589 -0.0787612 -0.0559865 -0.0811235 -0.0720257 -0.0702978 0.100582 
-0.219727 -0.234349 -0.00631425 -0.167603 -0.187448 0.120602 -0.183232 -0.221519 0.2449 
-0.145925 -0.171213 0.19993 -0.0746513 -0.0829602 0.177765 -0.154974 -0.186403 0.235089 
-0.19019 -0.229392 0.241043 -0.20818 -0.217591 -0.0298696 -0.136647 -0.147039 0.0941106 
-0.195657 -0.200666 -0.045281 -0.207823 -0.237973 0.138985 -0.0556736 -0.0406446 0.0191754 
-0.211911 -0.233 0.0588354 -0.0425684 -0.0128289 -0.0789336 -0.157732 -0.179355 0.151045 
-0.172764 -0.170877 -0.0641076 -0.209975 -0.232949 0.0772773 -0.132264 -0.119594 -0.0859105 
-0.0339147 -0.027377 0.123368 -0.112504 -0.103122 -0.0271791 -0.193705 -0.209414 0.0447112 
-0.173539 -0.198693 0.154062 -0.160544 -0.173169 0.0734643 -0.0813505 -0.0680742 -0.0082493 
-0.108394 -0.0896365 -0.0965931 -0.123531 -0.146195 0.214961 -0.0330365 -0.0245281 0.108802 
-0.19135 -0.19254 -0.0692744 -0.0375597 -0.0275803 0.0895288 -0.0997619 -0.120028 0.127172 
-0.0848035 -0.0811312 0.0962304 -0.075673 -0.059123 0.0672201 -0.115186 -0.173912 0.0786513 
-0.126263 -0.195881 0.141473 -0.103143 -0.143115 0.0507197 -0.0867271 -0.100168 0.0182721 
-0.126203 -0.20563 0.0835128 -0.0653563 -0.0339584 0.0361761 -0.0729405 -0.036023 0.154944 
-0.123597 -0.207753 0.0261632 -0.102919 -0.149477 0.00970644 -0.0713155 -0.0292774 0.166296 
-0.132884 -0.234528 0.0300483 -0.0685564 -0.0259444 0.13816 -0.114201 -0.18347 0.00586065 
-0.134619 -0.223844 0.122349 -0.0663306 -0.0264699 0.0966996 -0.0712728 -0.0355771 0.128781 
-0.0732302 -0.0646315 -0.00707573 -0.0718612 -0.045313 0.0820919 -0.136224 -0.248977 0.0033164 
-0.115092 -0.173644 0.0785903 -0.133232 -0.207976 0.191071 -0.111159 -0.150148 0.147923 
-0.0853496 -0.0679833 0.182408 -0.122596 -0.17466 0.202098 -0.138247 -0.22149 0.19868 
-0.130662 -0.234363 -0.00732319 -0.109677 -0.150929 0.117793 -0.12483 -0.218166 -0.0133447 
-0.135222 -0.230821 0.092016 -0.0623502 -0.0249021 0.0371932 -0.134077 -0.236303 0.0402611 
-0.0573101 -0.0162168 0.000960899 -0.11202 -0.160779 0.100704 -0.114358 -0.188236 -0.0192643 
-0.136288 -0.238537 0.0653653 -0.0960588 -0.134891 -0.0234743 -0.0609012 -0.00453539 0.131101 
-0.0871662 -0.103759 0.00488578 -0.124416 -0.209746 0.0286657 -0.127819 -0.199508 0.147128 
-0.109689 -0.163106 0.046915 -0.0812213 -0.0764955 0.0615034 -0.0853175 -0.103377 -0.0247759 
-0.102256 -0.121086 0.164015 -0.0608977 -0.00522543 0.127012 -0.122452 -0.213236 -0.0255917 
-0.0665547 -0.0201069 0.137712 
f 3 100 double
0 0 0 0 0 0 0 0 0 
0 0 0 0 0 0 0 0 0 
0 0 0 0 0 0 0.487078 0.131639 1.48379 
0 0 0 0 0 0 0 0 0 
0 0 0 0 0 0 0 0 0 
0 0 0 0 0 0 0 0 0 
0 0 0 0 0 0 0 0 0 
0 0 0 0 0 0 0 0 0 
0 0 0 0 0 0 0 0 0 
0 0 0 0 0 0 0 0 0 
0 0 0 0 0 0 0 0 0 
0 0 0 0 0 0 0 0 0 
0 0 0 0 0 0 0 0 0 
0.276854 0.0755916 -0.851958 0 0 0 0 0 0 
0 0 0 0 0 0 0 0 0 
0 0 0 0 0 0 0.151932 0.0351484 -0.738566 
0 0 0 0 0 0 0 0 0 
0 0 0 0 0 0 0 0 0 
0 0 0 0 0 0 0 0 0 
0 0 0 0.148913 -0.0374505 0.307099 0 0 0 
0 0 0 0 0 0 0 0 0 
0 0 0 0 0 0 0 0 0 
0 0 0 0 0 0 0 0 0 
0 0 0 0 0 0 0 0 0 
0 0 0 0 0 0 0 0 0 
0 0 0 0 0 0 0 0 0 
0 0 0 0 0 0 0 0 0 
0 0 0 0 0 0 0 0 0 
0 0 0 0 0 0 0 0 0 
0 0 0 0 0 0 0 0 0 
0 0 0 0 0 0 0 0 0 
0 0 0 0 0 0 0 0 0 
0 0 0 0 0 0 0 0 0 
0 0 0 
radius 1 100 double
0.010434 0.00981478 0.00892069 0.00845937 0.00731974 0.00728422 0.00643447 0.00619172 0.00585956 
0.00577566 0.00537241 0.00522549 0.00513666 0.00473175 0.00466912 0.00444866 0.00441894 0.00400812 
0.00385622 0.00379948 0.00370243 0.00366942 0.00364039 0.00363813 0.00363644 0.00358692 0.0035797 
0.00341284 0.00337012 0.00336273 0.00332772 0.00323261 0.00320584 0.00320311 0.00318808 0.00313116 
0.00306026 0.00305632 0.00304383 0.00300958 0.00300137 0.00298994 0.0029567 0.00295111 0.00290849 
0.00284552 0.00282964 0.0028207 0.00281971 0.00281899 0.010434 0.00981478 0.00892069 0.00845937 
0.00731974 0.00728422 0.00643447 0.00619172 0.00585956 0.00577566 0.00537241 0.00522549 0.00513666 
0.00473175 0.00466912 0.00444866 0.00441894 0.00400812 0.00385622 0.00379948 0.00370243 0.00366942 
0.00364039 0.00363813 0.00363644 0.00358692 0.0035797 0.00341284 0.00337012 0.00336273 0.00332772 
0.00323261 0.00320584 0.00320311 0.00318808 0.00313116 0.00306026 0.00305632 0.00304383 0.00300958 
0.00300137 0.00298994 0.0029567 0.00295111 0.00290849 0.00284552 0.00282964 0.0028207 0.00281971 
0.00281899 
omega 3 100 double
7.19219 -5.99404 -0.7387 7.19219 -5.99404 -0.7387 7.19219 -5.99404 -0.7387 
7.19219 -5.99404 -0.7387 7.19219 -5.99404 -0.7387 7.19219 -5.99404 -0.7387 
7.19219 -5.99404 -0.7387 7.19219 -5.99404 -0.7387 7.19219 -5.99404 -0.7387 
7.19219 -5.99404 -0.7387 7.19219 -5.99404 -0.7387 7.19219 -5.99404 -0.7387 
7.19219 -5.99404 -0.7387 7.19219 -5.99404 -0.7387 7.19219 -5.99404 -0.7387 
7.19219 -5.99404 -0.7387 7.19219 -5.99404 -0.7387 7.19219 -5.99404 -0.7387 
7.19219 -5.99404 -0.7387 7.19219 -5.99404 -0.7387 7.19219 -5.99404 -0.7387 
7.19219 -5.99404 -0.7387 7.19219 -5.99404 -0.7387 7.19219 -5.99404 -0.7387 
7.19219 -5.99404 -0.7387 7.19219 -5.99404 -0.7387 7.19219 -5.99404 -0.7387 
7.19219 -5.99404 -0.7387 7.19219 -5.99404 -0.7387 7.19219 -5.99404 -0.7387 
7.19219 -5.99404 -0.7387 7.19219 -5.99404 -0.7387 7.19219 -5.99404 -0.7387 
7.19219 -5.99404 -0.7387 7.19219 -5.99404 -0.7387 7.19219 -5.99404 -0.7387 
7.19219 -5.99404 -0.7387 7.19219 -5.99404 -0.7387 7.19219 -5.99404 -0.7387 
7.19219 -5.99404 -0.7387 7.19219 -5.99404 -0.7387 7.19219 -5.99404 -0.7387 
7.19219 -5.99404 -0.7387 7.19219 -5.99404 -0.7387 7.19219 -5.99404 -0.7387 
7.19219 -5.99404 -0.7387 7.19219 -5.99404 -0.7387 7.19219 -5.99404 -0.7387 
7.19219 -5.99404 -0.7387 7.19219 -5.99404 -0.7387 8.29022 -2.80583 0.480614 
8.29022 -2.80583 0.480614 8.29022 -2.80583 0.480614 8.29022 -2.80583 0.480614 
8.29022 -2.80583 0.480614 8.29022 -2.80583 0.480614 8.29022 -2.80583 0.480614 
8.29022 -2.80583 0.480614 8.29022 -2.80583 0.480614 8.29022 -2.80583 0.480614 
8.29022 -2.80583 0.480614 8.29022 -2.80583 0.480614 8.29022 -2.80583 0.480614 
8.29022 -2.80583 0.480614 8.29022 -2.80583 0.480614 8.29022 -2.80583 0.480614 
8.29022 -2.80583 0.480614 8.29022 -2.80583 0.480614 8.29022 -2.80583 0.480614 
8.29022 -2.80583 0.480614 8.29022 -2.80583 0.480614 8.29022 -2.80583 0.480614 
8.29022 -2.80583 0.480614 8.29022 -2.80583 0.480614 8.29022 -2.80583 0.480614 
8.29022 -2.80583 0.480614 8.29022 -2.80583 0.480614 8.29022 -2.80583 0.480614 
8.29022 -2.80583 0.480614 8.29022 -2.80583 0.480614 8.29022 -2.80583 0.480614 
8.29022 -2.80583 0.480614 8.29022 -2.80583 0.480614 8.29022 -2.80583 0.480614 
8.29022 -2.80583 0.480614 8.29022 -2.80583 0.480614 8.29022 -2.80583 0.480614 
8.29022 -2.80583 0.480614 8.29022 -2.80583 0.480614 8.29022 -2.80583 0.480614 
8.29022 -2.80583 0.480614 8.29022 -2.80583 0.480614 8.29022 -2.80583 0.480614 
8.29022 -2.80583 0.480614 8.29022 -2.80583 0.480614 8.29022 -2.80583 0.480614 
8.29022 -2.80583 0.480614 8.29022 -2.80583 0.480614 8.29022 -2.80583 0.480614 
8.29022 -2.80583 0.480614 
