# vtk DataFile Version 4.0
Generated by LIGGGHTS
ASCII
DATASET POLYDATA
POINTS 100 float
-0.108201 -0.128817 0.0134595 -0.11852 -0.129693 0.0149034 -0.128026 -0.129731 0.0180909 
-0.111029 -0.129786 0.023661 -0.0988895 -0.12715 0.0179974 -0.119635 -0.130662 0.0251482 
-0.130811 -0.131538 0.0265704 -0.102443 -0.131489 0.0230022 -0.136654 -0.130616 0.0204343 
-0.115714 -0.127021 0.00557691 -0.113792 -0.13244 0.031275 -0.124903 -0.132431 0.0301376 
-0.120897 -0.123613 0.00719713 -0.107797 -0.133296 0.0314169 -0.126121 -0.124508 0.0104833 
-0.119807 -0.133306 0.0319706 -0.103345 -0.125512 0.0247584 -0.135714 -0.124583 0.017096 
-0.111387 -0.132141 0.00391642 -0.137661 -0.133252 0.0263789 -0.114063 -0.135614 0.00809578 
-0.110474 -0.134199 0.0356242 -0.100599 -0.13486 0.0178703 -0.0928097 -0.123686 0.0147608 
-0.0978594 -0.129645 0.0111406 -0.115802 -0.121919 0.00905812 -0.0996398 -0.121108 0.0137596 
-0.0945882 -0.121145 0.0173145 -0.114777 -0.134209 0.0363724 -0.117004 -0.123781 0.0227187 
-0.118202 -0.134209 0.036286 -0.0955704 -0.132336 0.0223095 -0.125325 -0.136528 0.0129433 
-0.10345 -0.134124 0.0289467 -0.141835 -0.133205 0.0219893 -0.0988007 -0.133965 0.0144976 
-0.123319 -0.1342 0.0353 -0.104307 -0.130698 0.0289624 -0.130961 -0.134173 0.0325366 
-0.121708 -0.128734 0.00540696 -0.12475 -0.135792 0.0241062 -0.105975 -0.135819 0.0271506 
-0.10585 -0.122914 0.0221527 -0.105802 -0.136601 0.0202909 -0.134173 -0.126371 0.023971 
-0.1352 -0.134155 0.030716 -0.0994859 -0.128751 0.00768153 -0.12432 -0.127897 0.00706405 
-0.121671 -0.134228 0.0379122 -0.130446 -0.122814 0.0121066 -0.0393466 -0.101035 0.0152122 
-0.0497024 -0.101925 0.0163533 -0.0592956 -0.101994 0.0192683 -0.0424638 -0.102099 0.0253194 
-0.0301689 -0.0994096 0.0200289 -0.0511087 -0.10299 0.0265526 -0.06232 -0.10388 0.0276477 
-0.0338621 -0.103796 0.0248895 -0.0679867 -0.102902 0.0213565 -0.0466329 -0.0991651 0.00713594 
-0.0454413 -0.104825 0.0328264 -0.0565153 -0.104806 0.0313732 -0.0518606 -0.0957736 0.00863974 
-0.0394527 -0.105682 0.0331311 -0.0571761 -0.096699 0.0117673 -0.0514741 -0.105698 0.0333423 
-0.0348155 -0.0978353 0.0266753 -0.0669533 -0.096837 0.018103 -0.0422588 -0.10427 0.00555148 
-0.0691614 -0.105592 0.027245 -0.0450515 -0.107782 0.00962019 -0.0422479 -0.106625 0.0372518 
-0.0318719 -0.107118 0.0197809 -0.0240006 -0.0959149 0.0169994 -0.0289431 -0.10184 0.0131812 
-0.046822 -0.0940958 0.0106609 -0.0308003 -0.0933276 0.0158282 -0.025852 -0.0933975 0.019525 
-0.0465709 -0.106642 0.037877 -0.0484115 -0.0960864 0.0242636 -0.0499924 -0.106641 0.037693 
-0.0269722 -0.104635 0.024385 -0.0564466 -0.108742 0.0141362 -0.0350368 -0.106487 0.0307781 
-0.0732084 -0.105505 0.022739 -0.0299781 -0.106192 0.0164693 -0.0550788 -0.106624 0.0365618 
-0.0358957 -0.103061 0.0308014 -0.0626393 -0.106571 0.0335822 -0.0526189 -0.100878 0.00677929 
-0.05619 -0.108111 0.0253173 -0.0375093 -0.108164 0.0288949 -0.0372463 -0.0952136 0.0240237 
-0.0371406 -0.108882 0.0220359 -0.0656087 -0.098689 0.025002 -0.0668243 -0.106536 0.0316418 
-0.0304707 -0.100914 0.00968565 -0.0552779 -0.100056 0.00836907 -0.053506 -0.106676 0.0392195 
-0.0615467 -0.0950205 0.0132824 
VERTICES 100 200
1 0 
1 1 
1 2 
1 3 
1 4 
1 5 
1 6 
1 7 
1 8 
1 9 
1 10 
1 11 
1 12 
1 13 
1 14 
1 15 
1 16 
1 17 
1 18 
1 19 
1 20 
1 21 
1 22 
1 23 
1 24 
1 25 
1 26 
1 27 
1 28 
1 29 
1 30 
1 31 
1 32 
1 33 
1 34 
1 35 
1 36 
1 37 
1 38 
1 39 
1 40 
1 41 
1 42 
1 43 
1 44 
1 45 
1 46 
1 47 
1 48 
1 49 
1 50 
1 51 
1 52 
1 53 
1 54 
1 55 
1 56 
1 57 
1 58 
1 59 
1 60 
1 61 
1 62 
1 63 
1 64 
1 65 
1 66 
1 67 
1 68 
1 69 
1 70 
1 71 
1 72 
1 73 
1 74 
1 75 
1 76 
1 77 
1 78 
1 79 
1 80 
1 81 
1 82 
1 83 
1 84 
1 85 
1 86 
1 87 
1 88 
1 89 
1 90 
1 91 
1 92 
1 93 
1 94 
1 95 
1 96 
1 97 
1 98 
1 99 

POINT_DATA 100
FIELD FieldData 7
id 1 100 int
1 2 3 4 5 6 7 8 9 
10 11 12 13 14 15 16 17 18 
19 20 21 22 23 24 25 26 27 
28 29 30 31 32 33 34 35 36 
37 38 39 40 41 42 43 44 45 
46 47 48 49 50 51 52 53 54 
55 56 57 58 59 60 61 62 63 
64 65 66 67 68 69 70 71 72 
73 74 75 76 77 78 79 80 81 
82 83 84 85 86 87 88 89 90 
91 92 93 94 95 96 97 98 99 
100 
mol 1 100 int
1 1 1 1 1 1 1 1 1 
1 1 1 1 1 1 1 1 1 
1 1 1 1 1 1 1 1 1 
1 1 1 1 1 1 1 1 1 
1 1 1 1 1 1 1 1 1 
1 1 1 1 1 2 2 2 2 
2 2 2 2 2 2 2 2 2 
2 2 2 2 2 2 2 2 2 
2 2 2 2 2 2 2 2 2 
2 2 2 2 2 2 2 2 2 
2 2 2 2 2 2 2 2 2 
2 
type 1 100 int
1 1 1 1 1 1 1 1 1 
1 1 1 1 1 1 1 1 1 
1 1 1 1 1 1 1 1 1 
1 1 1 1 1 1 1 1 1 
1 1 1 1 1 1 1 1 1 
1 1 1 1 1 1 1 1 1 
1 1 1 1 1 1 1 1 1 
1 1 1 1 1 1 1 1 1 
1 1 1 1 1 1 1 1 1 
1 1 1 1 1 1 1 1 1 
1 1 1 1 1 1 1 1 1 
1 
v 3 100 double
-0.10237 -0.054573 0.488158 -0.112078 -0.0589166 0.416142 -0.133442 -0.0689802 0.352307 
-0.170774 -0.0877666 0.466043 -0.132723 -0.069716 0.556003 -0.180772 -0.0923129 0.405505 
-0.190336 -0.0965554 0.327748 -0.16642 -0.0859233 0.518025 -0.149179 -0.07632 0.291593 
-0.0494773 -0.0285778 0.443669 -0.221897 -0.112518 0.438866 -0.214274 -0.108409 0.364429 
-0.0602142 -0.0336806 0.420056 -0.222879 -0.113195 0.476248 -0.08227 -0.0442192 0.382125 
-0.22659 -0.114573 0.395722 -0.177976 -0.0916229 0.531491 -0.12659 -0.0654583 0.317589 
-0.0385319 -0.0233131 0.455955 -0.189113 -0.0956854 0.276246 -0.0666657 -0.0368577 0.426685 
-0.251109 -0.126831 0.455361 -0.132147 -0.06924 0.519382 -0.110908 -0.0593699 0.608055 
-0.0868588 -0.0473743 0.554764 -0.0726258 -0.0399364 0.45973 -0.104106 -0.0558582 0.570696 
-0.127932 -0.0676408 0.604431 -0.256123 -0.129119 0.426488 -0.164244 -0.0844777 0.445598 
-0.255544 -0.128715 0.40353 -0.161808 -0.0839081 0.561322 -0.0991862 -0.0522764 0.348228 
-0.206354 -0.105289 0.502678 -0.159693 -0.08121 0.248425 -0.109511 -0.0582968 0.534355 
-0.248936 -0.125314 0.369269 -0.206337 -0.105309 0.508113 -0.230414 -0.116022 0.31814 
-0.0483996 -0.027809 0.397906 -0.173972 -0.0887293 0.354482 -0.194377 -0.0993363 0.480223 
-0.16042 -0.0830291 0.523179 -0.148431 -0.0769542 0.478832 -0.17273 -0.0879514 0.322078 
-0.218212 -0.109928 0.289794 -0.0636442 -0.0360266 0.54678 -0.0594754 -0.033124 0.383131 
-0.266443 -0.133898 0.380222 -0.0930882 -0.0493624 0.358665 -0.0976627 -0.0574404 0.393198 
-0.10543 -0.0606883 0.320173 -0.125436 -0.0677338 0.254168 -0.166968 -0.0796314 0.369486 
-0.130849 -0.0672241 0.459732 -0.175367 -0.0829524 0.308205 -0.182819 -0.086164 0.229308 
-0.163891 -0.0780588 0.424849 -0.139704 -0.0729161 0.192534 -0.0423595 -0.0404343 0.347241 
-0.2183 -0.0961626 0.343125 -0.208325 -0.0938273 0.267143 -0.0529346 -0.0440897 0.318722 
-0.220327 -0.0963799 0.382373 -0.0743358 -0.0512794 0.280222 -0.221776 -0.0977313 0.299813 
-0.176592 -0.0820094 0.431255 -0.117819 -0.0657706 0.212803 -0.0311036 -0.0366671 0.366178 
-0.179927 -0.085797 0.178623 -0.0587738 -0.0457144 0.339376 -0.248545 -0.10554 0.361136 
-0.128574 -0.0668116 0.431294 -0.110311 -0.060184 0.509669 -0.0836602 -0.0522553 0.462866 
-0.0669339 -0.0481069 0.356957 -0.102464 -0.0581443 0.468612 -0.127837 -0.0658089 0.502429 
-0.252836 -0.10722 0.331423 -0.160166 -0.077779 0.34172 -0.251573 -0.107074 0.307935 
-0.160365 -0.0764511 0.470323 -0.0897042 -0.0563721 0.259065 -0.204115 -0.0909398 0.410939 
-0.149001 -0.0763074 0.15103 -0.10591 -0.0594762 0.446306 -0.243809 -0.104994 0.273056 
-0.204529 -0.0910542 0.412486 -0.223358 -0.0990814 0.22127 -0.039784 -0.0401038 0.302428 
-0.166507 -0.0806458 0.262198 -0.191063 -0.0870319 0.39032 -0.158584 -0.0764289 0.420264 
-0.143923 -0.0721021 0.391293 -0.165042 -0.08066 0.21801 -0.210041 -0.0951763 0.192617 
-0.059733 -0.0447741 0.454391 -0.0507586 -0.0437553 0.28596 -0.262049 -0.110651 0.28374 
-0.0848618 -0.0548958 0.253865 
f 3 100 double
0 0 0 0 0 0 0 0 0 
0 0 0 0 0 0 0 0 0 
0 0 0 0 0 0 0 0 0 
0.446509 0.0515056 -5.43777 0 0 0 0 0 0 
0 0 0 0 0 0 0 0 0 
0 0 0 0 0 0 0 0 0 
0 0 0 0 0 0 0 0 0 
0 0 0 0 0 0 0 0 0 
0 0 0 0 0 0 0 0 0 
0 0 0 0 0 0 0 0 0 
0 0 0 0 0 0 0 0 0 
0 0 0 0 0 0 0 0 0 
0 0 0 0 0 0 0 0 0 
0 0 0 0 0 0 0 0 0 
0 0 0 0 0 0 0 0 0 
0 0 0 0 0 0 0 0 0 
0 0 0 0 0 0 0 0 0 
0 0 0 0 0 0 0 0 0 
0 0 0 0 0 0 0 0 0 
0 0 0 0 0 0 0 0 0 
0 0 0 0 0 0 0 0 0 
0 0 0 0 0 0 0 0 0 
0 0 0 0 0 0 0 0 0 
0 0 0 0 0 0 0 0 0 
0 0 0 0 0 0 0 0 0 
0 0 0 0 0 0 0 0 0 
0 0 0 0 0 0 0 0 0 
0 0 0 0 0 0 0 0 0 
0 0 0 0 0 0 0 0 0 
0 0 0 0 0 0 0 0 0 
0 0 0 0 0 0 0 0 0 
0 0 0 0 0 0 0 0 0 
0 0 0 0 0 0 0 0 0 
0 0 0 
radius 1 100 double
0.010434 0.00981478 0.00892069 0.00845937 0.00731974 0.00728422 0.00643447 0.00619172 0.00585956 
0.00577566 0.00537241 0.00522549 0.00513666 0.00473175 0.00466912 0.00444866 0.00441894 0.00400812 
0.00385622 0.00379948 0.00370243 0.00366942 0.00364039 0.00363813 0.00363644 0.00358692 0.0035797 
0.00341284 0.00337012 0.00336273 0.00332772 0.00323261 0.00320584 0.00320311 0.00318808 0.00313116 
0.00306026 0.00305632 0.00304383 0.00300958 0.00300137 0.00298994 0.0029567 0.00295111 0.00290849 
0.00284552 0.00282964 0.0028207 0.00281971 0.00281899 0.010434 0.00981478 0.00892069 0.00845937 
0.00731974 0.00728422 0.00643447 0.00619172 0.00585956 0.00577566 0.00537241 0.00522549 0.00513666 
0.00473175 0.00466912 0.00444866 0.00441894 0.00400812 0.00385622 0.00379948 0.00370243 0.00366942 
0.00364039 0.00363813 0.00363644 0.00358692 0.0035797 0.00341284 0.00337012 0.00336273 0.00332772 
0.00323261 0.00320584 0.00320311 0.00318808 0.00313116 0.00306026 0.00305632 0.00304383 0.00300958 
0.00300137 0.00298994 0.0029567 0.00295111 0.00290849 0.00284552 0.00282964 0.0028207 0.00281971 
0.00281899 
omega 3 100 double
3.26372 -6.70192 -0.0357305 3.26372 -6.70192 -0.0357305 3.26372 -6.70192 -0.0357305 
3.26372 -6.70192 -0.0357305 3.26372 -6.70192 -0.0357305 3.26372 -6.70192 -0.0357305 
3.26372 -6.70192 -0.0357305 3.26372 -6.70192 -0.0357305 3.26372 -6.70192 -0.0357305 
3.26372 -6.70192 -0.0357305 3.26372 -6.70192 -0.0357305 3.26372 -6.70192 -0.0357305 
3.26372 -6.70192 -0.0357305 3.26372 -6.70192 -0.0357305 3.26372 -6.70192 -0.0357305 
3.26372 -6.70192 -0.0357305 3.26372 -6.70192 -0.0357305 3.26372 -6.70192 -0.0357305 
3.26372 -6.70192 -0.0357305 3.26372 -6.70192 -0.0357305 3.26372 -6.70192 -0.0357305 
3.26372 -6.70192 -0.0357305 3.26372 -6.70192 -0.0357305 3.26372 -6.70192 -0.0357305 
3.26372 -6.70192 -0.0357305 3.26372 -6.70192 -0.0357305 3.26372 -6.70192 -0.0357305 
3.26372 -6.70192 -0.0357305 3.26372 -6.70192 -0.0357305 3.26372 -6.70192 -0.0357305 
3.26372 -6.70192 -0.0357305 3.26372 -6.70192 -0.0357305 3.26372 -6.70192 -0.0357305 
3.26372 -6.70192 -0.0357305 3.26372 -6.70192 -0.0357305 3.26372 -6.70192 -0.0357305 
3.26372 -6.70192 -0.0357305 3.26372 -6.70192 -0.0357305 3.26372 -6.70192 -0.0357305 
3.26372 -6.70192 -0.0357305 3.26372 -6.70192 -0.0357305 3.26372 -6.70192 -0.0357305 
3.26372 -6.70192 -0.0357305 3.26372 -6.70192 -0.0357305 3.26372 -6.70192 -0.0357305 
3.26372 -6.70192 -0.0357305 3.26372 -6.70192 -0.0357305 3.26372 -6.70192 -0.0357305 
3.26372 -6.70192 -0.0357305 3.26372 -6.70192 -0.0357305 2.17266 -6.86481 0.0742386 
2.17266 -6.86481 0.0742386 2.17266 -6.86481 0.0742386 2.17266 -6.86481 0.0742386 
2.17266 -6.86481 0.0742386 2.17266 -6.86481 0.0742386 2.17266 -6.86481 0.0742386 
2.17266 -6.86481 0.0742386 2.17266 -6.86481 0.0742386 2.17266 -6.86481 0.0742386 
2.17266 -6.86481 0.0742386 2.17266 -6.86481 0.0742386 2.17266 -6.86481 0.0742386 
2.17266 -6.86481 0.0742386 2.17266 -6.86481 0.0742386 2.17266 -6.86481 0.0742386 
2.17266 -6.86481 0.0742386 2.17266 -6.86481 0.0742386 2.17266 -6.86481 0.0742386 
2.17266 -6.86481 0.0742386 2.17266 -6.86481 0.0742386 2.17266 -6.86481 0.0742386 
2.17266 -6.86481 0.0742386 2.17266 -6.86481 0.0742386 2.17266 -6.86481 0.0742386 
2.17266 -6.86481 0.0742386 2.17266 -6.86481 0.0742386 2.17266 -6.86481 0.0742386 
2.17266 -6.86481 0.0742386 2.17266 -6.86481 0.0742386 2.17266 -6.86481 0.0742386 
2.17266 -6.86481 0.0742386 2.17266 -6.86481 0.0742386 2.17266 -6.86481 0.0742386 
2.17266 -6.86481 0.0742386 2.17266 -6.86481 0.0742386 2.17266 -6.86481 0.0742386 
2.17266 -6.86481 0.0742386 2.17266 -6.86481 0.0742386 2.17266 -6.86481 0.0742386 
2.17266 -6.86481 0.0742386 2.17266 -6.86481 0.0742386 2.17266 -6.86481 0.0742386 
2.17266 -6.86481 0.0742386 2.17266 -6.86481 0.0742386 2.17266 -6.86481 0.0742386 
2.17266 -6.86481 0.0742386 2.17266 -6.86481 0.0742386 2.17266 -6.86481 0.0742386 
2.17266 -6.86481 0.0742386 
