# vtk DataFile Version 4.0
Generated by LIGGGHTS
ASCII
DATASET POLYDATA
POINTS 100 float
-0.118245 -0.134165 0.0168258 -0.127442 -0.135027 0.0119261 -0.137033 -0.13539 0.00902564 
-0.126284 -0.136831 0.0232498 -0.113339 -0.133543 0.0260788 -0.134104 -0.137743 0.019368 
-0.14399 -0.138581 0.0139593 -0.118745 -0.138601 0.0273813 -0.145357 -0.13646 0.00581799 
-0.120056 -0.130837 0.00645967 -0.132663 -0.140705 0.0273676 -0.141111 -0.140227 0.0200774 
-0.125494 -0.127639 0.00532146 -0.127767 -0.141719 0.0307883 -0.131567 -0.128966 0.00482384 
-0.137912 -0.141533 0.024338 -0.120964 -0.133002 0.0292125 -0.143174 -0.129961 0.00462082 
-0.115157 -0.135693 0.00680569 -0.14935 -0.140067 0.00960477 -0.119445 -0.139776 0.00808427 
-0.132279 -0.143277 0.0324918 -0.114045 -0.141068 0.0237864 -0.106801 -0.129716 0.0275102 
-0.108395 -0.134827 0.0207679 -0.12252 -0.12642 0.0100069 -0.11203 -0.126837 0.0231895 
-0.109914 -0.127617 0.0289404 -0.136226 -0.143313 0.0306216 -0.131123 -0.13061 0.0200045 
-0.13898 -0.143214 0.028586 -0.112657 -0.139481 0.0306366 -0.131346 -0.141247 0.00537313 
-0.122738 -0.142209 0.0311681 -0.150273 -0.139153 0.00368844 -0.110726 -0.139643 0.0222484 
-0.142608 -0.142909 0.0248582 -0.123725 -0.138818 0.0312257 -0.147294 -0.142213 0.0182549 
-0.124727 -0.132348 0.00261407 -0.137284 -0.142486 0.0147904 -0.123646 -0.143502 0.0280094 
-0.121741 -0.129929 0.0260876 -0.11954 -0.143078 0.0224728 -0.14568 -0.132959 0.0107503 
-0.149729 -0.141773 0.0143618 -0.107831 -0.133303 0.0171943 -0.127876 -0.131749 0.00257772 
-0.142743 -0.143432 0.0278991 -0.136168 -0.127476 0.00391135 -0.049392 -0.106639 0.0174161 
-0.0584658 -0.107391 0.0122744 -0.0679841 -0.10772 0.00913964 -0.0575531 -0.109608 0.023547 
-0.044706 -0.106326 0.0267977 -0.0652732 -0.110436 0.0194525 -0.075024 -0.11115 0.0137872 
-0.0500952 -0.111473 0.0277842 -0.0762221 -0.108736 0.00570107 -0.0509932 -0.102939 0.00714191 
-0.0639899 -0.113685 0.0273674 -0.072272 -0.113001 0.0199052 -0.0564319 -0.099745 0.00599728 
-0.059166 -0.114787 0.0308611 -0.0624802 -0.1011 0.00530903 -0.0691611 -0.11444 0.0241875 
-0.052405 -0.105964 0.0297707 -0.0740702 -0.102179 0.00479843 -0.0460609 -0.107766 0.00742066 
-0.080269 -0.112514 0.00925649 -0.0503405 -0.111928 0.00844567 -0.0637013 -0.116445 0.0323996 
-0.0452924 -0.113765 0.0242103 -0.0382367 -0.102504 0.028523 -0.0396295 -0.10737 0.0215594 
-0.0535768 -0.0986787 0.0107931 -0.0433901 -0.0995058 0.024192 -0.0414004 -0.100484 0.0299575 
-0.067604 -0.116441 0.0304379 -0.0623707 -0.103308 0.0204241 -0.0703118 -0.116288 0.0283437 
-0.0440765 -0.112426 0.0311454 -0.0621632 -0.113391 0.00540475 -0.0541421 -0.115251 0.0313396 
-0.0810638 -0.111387 0.00335846 -0.0419519 -0.112257 0.0228043 -0.0738555 -0.115872 0.0245463 
-0.0551602 -0.111873 0.0315006 -0.078394 -0.114966 0.0178662 -0.0555612 -0.104342 0.00313474 
-0.0683051 -0.11503 0.0146281 -0.0549664 -0.116432 0.0281145 -0.0531378 -0.102782 0.0267454 
-0.0507374 -0.115768 0.0226949 -0.0766895 -0.105425 0.0107517 -0.0807427 -0.114401 0.0139364 
-0.0389968 -0.105709 0.0180592 -0.0587133 -0.103767 0.00304735 -0.0740555 -0.11651 0.0275616 
-0.0670714 -0.0996143 0.00434573 
VERTICES 100 200
1 0 
1 1 
1 2 
1 3 
1 4 
1 5 
1 6 
1 7 
1 8 
1 9 
1 10 
1 11 
1 12 
1 13 
1 14 
1 15 
1 16 
1 17 
1 18 
1 19 
1 20 
1 21 
1 22 
1 23 
1 24 
1 25 
1 26 
1 27 
1 28 
1 29 
1 30 
1 31 
1 32 
1 33 
1 34 
1 35 
1 36 
1 37 
1 38 
1 39 
1 40 
1 41 
1 42 
1 43 
1 44 
1 45 
1 46 
1 47 
1 48 
1 49 
1 50 
1 51 
1 52 
1 53 
1 54 
1 55 
1 56 
1 57 
1 58 
1 59 
1 60 
1 61 
1 62 
1 63 
1 64 
1 65 
1 66 
1 67 
1 68 
1 69 
1 70 
1 71 
1 72 
1 73 
1 74 
1 75 
1 76 
1 77 
1 78 
1 79 
1 80 
1 81 
1 82 
1 83 
1 84 
1 85 
1 86 
1 87 
1 88 
1 89 
1 90 
1 91 
1 92 
1 93 
1 94 
1 95 
1 96 
1 97 
1 98 
1 99 

POINT_DATA 100
FIELD FieldData 7
id 1 100 int
1 2 3 4 5 6 7 8 9 
10 11 12 13 14 15 16 17 18 
19 20 21 22 23 24 25 26 27 
28 29 30 31 32 33 34 35 36 
37 38 39 40 41 42 43 44 45 
46 47 48 49 50 51 52 53 54 
55 56 57 58 59 60 61 62 63 
64 65 66 67 68 69 70 71 72 
73 74 75 76 77 78 79 80 81 
82 83 84 85 86 87 88 89 90 
91 92 93 94 95 96 97 98 99 
100 
mol 1 100 int
1 1 1 1 1 1 1 1 1 
1 1 1 1 1 1 1 1 1 
1 1 1 1 1 1 1 1 1 
1 1 1 1 1 1 1 1 1 
1 1 1 1 1 1 1 1 1 
1 1 1 1 1 2 2 2 2 
2 2 2 2 2 2 2 2 2 
2 2 2 2 2 2 2 2 2 
2 2 2 2 2 2 2 2 2 
2 2 2 2 2 2 2 2 2 
2 2 2 2 2 2 2 2 2 
2 
type 1 100 int
1 1 1 1 1 1 1 1 1 
1 1 1 1 1 1 1 1 1 
1 1 1 1 1 1 1 1 1 
1 1 1 1 1 1 1 1 1 
1 1 1 1 1 1 1 1 1 
1 1 1 1 1 1 1 1 1 
1 1 1 1 1 1 1 1 1 
1 1 1 1 1 1 1 1 1 
1 1 1 1 1 1 1 1 1 
1 1 1 1 1 1 1 1 1 
1 1 1 1 1 1 1 1 1 
1 
v 3 100 double
-0.151733 -0.122932 0.159204 -0.108171 -0.0992953 0.0732737 -0.0825911 -0.0910893 -0.0123382 
-0.20355 -0.181961 0.0698615 -0.232594 -0.184956 0.206242 -0.168719 -0.163979 -0.00452871 
-0.12079 -0.137515 -0.0962301 -0.236796 -0.202192 0.121862 -0.0533676 -0.0788285 -0.0922627 
-0.0667604 -0.0483052 0.168319 -0.233743 -0.221507 -0.014115 -0.171385 -0.179035 -0.0835939 
-0.0613813 -0.0474211 0.145101 -0.261901 -0.240137 0.0206589 -0.0552284 -0.0521907 0.0827228 
-0.206397 -0.206283 -0.0656593 -0.260439 -0.218916 0.144352 -0.0520851 -0.0668734 -0.025026 
-0.0629771 -0.0440458 0.174529 -0.0810718 -0.112583 -0.153629 -0.0683336 -0.0595438 0.107072 
-0.274453 -0.25911 -0.0299419 -0.202278 -0.168878 0.144137 -0.250307 -0.186488 0.291246 
-0.18489 -0.138529 0.239433 -0.103589 -0.0781441 0.179891 -0.216972 -0.161625 0.267473 
-0.2656 -0.201475 0.279957 -0.258236 -0.250697 -0.0643282 -0.184174 -0.164558 0.074332 
-0.240775 -0.23939 -0.0874094 -0.263711 -0.217926 0.167941 -0.0428434 -0.0559703 -0.00676699 
-0.264501 -0.235947 0.060496 -0.0311997 -0.0698374 -0.154809 -0.190969 -0.152801 0.183433 
-0.208974 -0.216706 -0.116497 -0.269729 -0.237752 0.0771986 -0.15286 -0.174097 -0.151826 
-0.0314068 -0.0262004 0.116689 -0.122527 -0.134345 -0.067326 -0.235389 -0.213705 0.0430175 
-0.237711 -0.196744 0.160499 -0.188117 -0.166768 0.0816746 -0.100892 -0.115989 -0.0689978 
-0.119816 -0.148518 -0.169609 -0.156121 -0.111145 0.255649 -0.0319283 -0.0303226 0.0939282 
-0.234533 -0.239527 -0.12156 -0.0494181 -0.0518176 0.0540386 -0.12048 -0.119166 0.1241 
-0.0977975 -0.0816359 0.0785849 -0.0840359 -0.0608324 0.0346124 -0.145511 -0.17381 0.0643181 
-0.161314 -0.193831 0.146989 -0.127329 -0.144181 0.0240446 -0.102397 -0.1027 -0.0240915 
-0.162908 -0.204748 0.081326 -0.0685997 -0.0368646 -0.0094462 -0.0778674 -0.0355567 0.147568 
-0.159948 -0.208565 0.00290579 -0.127954 -0.151549 -0.0273802 -0.0745702 -0.0289839 0.150244 
-0.17452 -0.234766 0.0147589 -0.07088 -0.0264797 0.112884 -0.145769 -0.185125 -0.025719 
-0.174392 -0.222279 0.116587 -0.068104 -0.0283241 0.0537699 -0.0765602 -0.0352769 0.129283 
-0.0820437 -0.0681961 -0.0580454 -0.0788343 -0.0459321 0.07652 -0.180326 -0.249775 -0.0185241 
-0.14622 -0.172871 0.0833079 -0.170786 -0.204639 0.206451 -0.138061 -0.148131 0.160414 
-0.0959167 -0.0669124 0.171386 -0.153573 -0.171729 0.208749 -0.178057 -0.218078 0.209332 
-0.171823 -0.235685 -0.0354143 -0.135256 -0.150654 0.09521 -0.162824 -0.219884 -0.0458979 
-0.176983 -0.229237 0.0995855 -0.0648887 -0.0271012 0.0132419 -0.176352 -0.23608 0.0327269 
-0.0570623 -0.0201343 -0.0522228 -0.140911 -0.159574 0.110185 -0.146578 -0.190521 -0.0578382 
-0.178811 -0.237933 0.056079 -0.118091 -0.137982 -0.0700698 -0.0597642 -0.00500267 0.116234 
-0.10402 -0.10611 -0.026855 -0.161755 -0.210002 0.0194487 -0.162934 -0.197796 0.139561 
-0.138606 -0.163254 0.0432392 -0.092221 -0.0786194 0.0157411 -0.101349 -0.106907 -0.0756035 
-0.123752 -0.119033 0.176807 -0.059685 -0.0059274 0.107294 -0.159318 -0.215408 -0.0639527 
-0.0674784 -0.0209553 0.105194 
f 3 100 double
0 0 0 0 0 0 0 0 0 
0 0 0 0 0 0 0 0 0 
0 0 0 0 0 0 0.0179356 0.391656 1.19411 
0 0 0 0 0 0 0 0 0 
0 0 0 0 0 0 0 0 0 
0 0 0 0 0 0 0 0 0 
0 0 0 0 0 0 0 0 0 
0 0 0 0 0 0 0 0 0 
0 0 0 0 0 0 0 0 0 
0 0 0 0 0 0 0 0 0 
0 0 0 0 0 0 0 0 0 
0 0 0 0 0 0 0 0 0 
0 0 0 0 0 0 0 0 0 
-0.0240171 -0.453472 1.69903 0 0 0 0 0 0 
0 0 0 0 0 0 0 0 0 
0 0 0 0 0 0 -0.0405922 -0.167596 0.344883 
0 0 0 0 0 0 0 0 0 
0 0 0 0 0 0 0 0 0 
0 0 0 0 0 0 0 0 0 
0 0 0 1.15381 0.024367 1.42476 0 0 0 
0 0 0 0 0 0 0 0 0 
0 0 0 0 0 0 0 0 0 
0 0 0 0 0 0 0 0 0 
0 0 0 0 0 0 0 0 0 
0 0 0 0 0 0 0 0 0 
0 0 0 0 0 0 0 0 0 
0 0 0 0 0 0 0 0 0 
0 0 0 0 0 0 0 0 0 
0 0 0 0 0 0 0 0 0 
0 0 0 0 0 0 0 0 0 
0 0 0 0 0 0 0 0 0 
0 0 0 0 0 0 0 0 0 
0 0 0 0 0 0 0 0 0 
0 0 0 
radius 1 100 double
0.010434 0.00981478 0.00892069 0.00845937 0.00731974 0.00728422 0.00643447 0.00619172 0.00585956 
0.00577566 0.00537241 0.00522549 0.00513666 0.00473175 0.00466912 0.00444866 0.00441894 0.00400812 
0.00385622 0.00379948 0.00370243 0.00366942 0.00364039 0.00363813 0.00363644 0.00358692 0.0035797 
0.00341284 0.00337012 0.00336273 0.00332772 0.00323261 0.00320584 0.00320311 0.00318808 0.00313116 
0.00306026 0.00305632 0.00304383 0.00300958 0.00300137 0.00298994 0.0029567 0.00295111 0.00290849 
0.00284552 0.00282964 0.0028207 0.00281971 0.00281899 0.010434 0.00981478 0.00892069 0.00845937 
0.00731974 0.00728422 0.00643447 0.00619172 0.00585956 0.00577566 0.00537241 0.00522549 0.00513666 
0.00473175 0.00466912 0.00444866 0.00441894 0.00400812 0.00385622 0.00379948 0.00370243 0.00366942 
0.00364039 0.00363813 0.00363644 0.00358692 0.0035797 0.00341284 0.00337012 0.00336273 0.00332772 
0.00323261 0.00320584 0.00320311 0.00318808 0.00313116 0.00306026 0.00305632 0.00304383 0.00300958 
0.00300137 0.00298994 0.0029567 0.00295111 0.00290849 0.00284552 0.00282964 0.0028207 0.00281971 
0.00281899 
omega 3 100 double
7.4428 -8.64507 1.39517 7.4428 -8.64507 1.39517 7.4428 -8.64507 1.39517 
7.4428 -8.64507 1.39517 7.4428 -8.64507 1.39517 7.4428 -8.64507 1.39517 
7.4428 -8.64507 1.39517 7.4428 -8.64507 1.39517 7.4428 -8.64507 1.39517 
7.4428 -8.64507 1.39517 7.4428 -8.64507 1.39517 7.4428 -8.64507 1.39517 
7.4428 -8.64507 1.39517 7.4428 -8.64507 1.39517 7.4428 -8.64507 1.39517 
7.4428 -8.64507 1.39517 7.4428 -8.64507 1.39517 7.4428 -8.64507 1.39517 
7.4428 -8.64507 1.39517 7.4428 -8.64507 1.39517 7.4428 -8.64507 1.39517 
7.4428 -8.64507 1.39517 7.4428 -8.64507 1.39517 7.4428 -8.64507 1.39517 
7.4428 -8.64507 1.39517 7.4428 -8.64507 1.39517 7.4428 -8.64507 1.39517 
7.4428 -8.64507 1.39517 7.4428 -8.64507 1.39517 7.4428 -8.64507 1.39517 
7.4428 -8.64507 1.39517 7.4428 -8.64507 1.39517 7.4428 -8.64507 1.39517 
7.4428 -8.64507 1.39517 7.4428 -8.64507 1.39517 7.4428 -8.64507 1.39517 
7.4428 -8.64507 1.39517 7.4428 -8.64507 1.39517 7.4428 -8.64507 1.39517 
7.4428 -8.64507 1.39517 7.4428 -8.64507 1.39517 7.4428 -8.64507 1.39517 
7.4428 -8.64507 1.39517 7.4428 -8.64507 1.39517 7.4428 -8.64507 1.39517 
7.4428 -8.64507 1.39517 7.4428 -8.64507 1.39517 7.4428 -8.64507 1.39517 
7.4428 -8.64507 1.39517 7.4428 -8.64507 1.39517 8.21903 -4.33521 0.521235 
8.21903 -4.33521 0.521235 8.21903 -4.33521 0.521235 8.21903 -4.33521 0.521235 
8.21903 -4.33521 0.521235 8.21903 -4.33521 0.521235 8.21903 -4.33521 0.521235 
8.21903 -4.33521 0.521235 8.21903 -4.33521 0.521235 8.21903 -4.33521 0.521235 
8.21903 -4.33521 0.521235 8.21903 -4.33521 0.521235 8.21903 -4.33521 0.521235 
8.21903 -4.33521 0.521235 8.21903 -4.33521 0.521235 8.21903 -4.33521 0.521235 
8.21903 -4.33521 0.521235 8.21903 -4.33521 0.521235 8.21903 -4.33521 0.521235 
8.21903 -4.33521 0.521235 8.21903 -4.33521 0.521235 8.21903 -4.33521 0.521235 
8.21903 -4.33521 0.521235 8.21903 -4.33521 0.521235 8.21903 -4.33521 0.521235 
8.21903 -4.33521 0.521235 8.21903 -4.33521 0.521235 8.21903 -4.33521 0.521235 
8.21903 -4.33521 0.521235 8.21903 -4.33521 0.521235 8.21903 -4.33521 0.521235 
8.21903 -4.33521 0.521235 8.21903 -4.33521 0.521235 8.21903 -4.33521 0.521235 
8.21903 -4.33521 0.521235 8.21903 -4.33521 0.521235 8.21903 -4.33521 0.521235 
8.21903 -4.33521 0.521235 8.21903 -4.33521 0.521235 8.21903 -4.33521 0.521235 
8.21903 -4.33521 0.521235 8.21903 -4.33521 0.521235 8.21903 -4.33521 0.521235 
8.21903 -4.33521 0.521235 8.21903 -4.33521 0.521235 8.21903 -4.33521 0.521235 
8.21903 -4.33521 0.521235 8.21903 -4.33521 0.521235 8.21903 -4.33521 0.521235 
8.21903 -4.33521 0.521235 
