# vtk DataFile Version 4.0
Generated by LIGGGHTS
ASCII
DATASET POLYDATA
POINTS 100 float
-0.11484 -0.132437 0.0226487 -0.124806 -0.133391 0.0196299 -0.134775 -0.133728 0.0186165 
-0.12154 -0.134589 0.030617 -0.108266 -0.1314 0.0307586 -0.12996 -0.135563 0.0283391 
-0.140698 -0.136508 0.0249498 -0.113369 -0.136274 0.0333476 -0.143565 -0.134813 0.0171038 
-0.118554 -0.129651 0.0126354 -0.127055 -0.138107 0.0360809 -0.136727 -0.137869 0.0304999 
-0.124082 -0.126418 0.0123605 -0.121609 -0.139024 0.0385697 -0.13015 -0.127653 0.0130949 
-0.13279 -0.138999 0.0341489 -0.115154 -0.130541 0.0352375 -0.141594 -0.128434 0.0151427 
-0.113719 -0.134574 0.0123314 -0.146798 -0.138129 0.0217778 -0.117721 -0.138497 0.0146297 
-0.125729 -0.140399 0.0411807 -0.109456 -0.139025 0.0290794 -0.101543 -0.127627 0.0307074 
-0.104428 -0.13307 0.0246937 -0.120263 -0.124999 0.0163223 -0.107471 -0.12489 0.0272914 
-0.104311 -0.125392 0.0325753 -0.129959 -0.140462 0.0400938 -0.126853 -0.128464 0.0279885 
-0.133049 -0.140423 0.0386121 -0.106783 -0.13709 0.0354415 -0.129933 -0.139886 0.0143017 
-0.116603 -0.139589 0.0380216 -0.148818 -0.137525 0.0160991 -0.106477 -0.137751 0.0268633 
-0.137314 -0.140253 0.0356242 -0.117532 -0.136182 0.0380682 -0.14316 -0.139833 0.0299943 
-0.123881 -0.131282 0.00983388 -0.13399 -0.14049 0.0247256 -0.118104 -0.141037 0.0351711 
-0.116483 -0.12763 0.0321431 -0.115117 -0.140998 0.0289443 -0.142918 -0.13104 0.0217976 
-0.146285 -0.139562 0.0266116 -0.104538 -0.131757 0.0209958 -0.126975 -0.130625 0.0103575 
-0.136875 -0.140606 0.038661 -0.134828 -0.126127 0.012982 -0.0459453 -0.104636 0.0215198 
-0.0558428 -0.105593 0.0182857 -0.065788 -0.105946 0.0170603 -0.0528061 -0.106851 0.0293318 
-0.0395454 -0.103634 0.0297727 -0.0611749 -0.10783 0.026871 -0.0718368 -0.108777 0.0232503 
-0.0446912 -0.108535 0.0322237 -0.074541 -0.107041 0.015356 -0.0494532 -0.101797 0.0114476 
-0.0584273 -0.110414 0.0346567 -0.0679798 -0.110164 0.0288745 -0.0549818 -0.0985738 0.0110758 
-0.0530332 -0.111335 0.0372541 -0.0610616 -0.0998264 0.0116745 -0.0641186 -0.111307 0.0325988 
-0.0465282 -0.102817 0.0341105 -0.0725438 -0.100645 0.0134758 -0.0446021 -0.106707 0.0112156 
-0.0778649 -0.110392 0.0199406 -0.0486428 -0.110653 0.0134051 -0.0572041 -0.112735 0.0397693 
-0.040683 -0.111251 0.0280224 -0.0328315 -0.0998463 0.0298862 -0.0355766 -0.105259 0.02378 
-0.0512509 -0.0971715 0.0151258 -0.0386926 -0.0971014 0.0263627 -0.0356435 -0.0976292 0.0317088 
-0.0614103 -0.1128 0.0385931 -0.0580766 -0.100722 0.0266291 -0.0644677 -0.112759 0.0370468 
-0.0381485 -0.10935 0.0344511 -0.0608417 -0.112067 0.0128113 -0.048015 -0.111886 0.0368083 
-0.0797655 -0.109758 0.0142243 -0.0376608 -0.109957 0.0258774 -0.0686698 -0.11258 0.0339707 
-0.0489533 -0.108481 0.036856 -0.0743963 -0.112138 0.0282215 -0.0547169 -0.103422 0.00852442 
-0.0651161 -0.112743 0.0231434 -0.0494527 -0.113319 0.0339181 -0.0477989 -0.0998913 0.0310065 
-0.0463352 -0.113236 0.0277559 -0.0740022 -0.103295 0.0200853 -0.0774496 -0.111854 0.0247753 
-0.0356117 -0.103924 0.0200887 -0.057822 -0.102776 0.00898666 -0.0682938 -0.112951 0.037014 
-0.0657389 -0.0983107 0.0114723 
VERTICES 100 200
1 0 
1 1 
1 2 
1 3 
1 4 
1 5 
1 6 
1 7 
1 8 
1 9 
1 10 
1 11 
1 12 
1 13 
1 14 
1 15 
1 16 
1 17 
1 18 
1 19 
1 20 
1 21 
1 22 
1 23 
1 24 
1 25 
1 26 
1 27 
1 28 
1 29 
1 30 
1 31 
1 32 
1 33 
1 34 
1 35 
1 36 
1 37 
1 38 
1 39 
1 40 
1 41 
1 42 
1 43 
1 44 
1 45 
1 46 
1 47 
1 48 
1 49 
1 50 
1 51 
1 52 
1 53 
1 54 
1 55 
1 56 
1 57 
1 58 
1 59 
1 60 
1 61 
1 62 
1 63 
1 64 
1 65 
1 66 
1 67 
1 68 
1 69 
1 70 
1 71 
1 72 
1 73 
1 74 
1 75 
1 76 
1 77 
1 78 
1 79 
1 80 
1 81 
1 82 
1 83 
1 84 
1 85 
1 86 
1 87 
1 88 
1 89 
1 90 
1 91 
1 92 
1 93 
1 94 
1 95 
1 96 
1 97 
1 98 
1 99 

POINT_DATA 100
FIELD FieldData 7
id 1 100 int
1 2 3 4 5 6 7 8 9 
10 11 12 13 14 15 16 17 18 
19 20 21 22 23 24 25 26 27 
28 29 30 31 32 33 34 35 36 
37 38 39 40 41 42 43 44 45 
46 47 48 49 50 51 52 53 54 
55 56 57 58 59 60 61 62 63 
64 65 66 67 68 69 70 71 72 
73 74 75 76 77 78 79 80 81 
82 83 84 85 86 87 88 89 90 
91 92 93 94 95 96 97 98 99 
100 
mol 1 100 int
1 1 1 1 1 1 1 1 1 
1 1 1 1 1 1 1 1 1 
1 1 1 1 1 1 1 1 1 
1 1 1 1 1 1 1 1 1 
1 1 1 1 1 1 1 1 1 
1 1 1 1 1 2 2 2 2 
2 2 2 2 2 2 2 2 2 
2 2 2 2 2 2 2 2 2 
2 2 2 2 2 2 2 2 2 
2 2 2 2 2 2 2 2 2 
2 2 2 2 2 2 2 2 2 
2 
type 1 100 int
1 1 1 1 1 1 1 1 1 
1 1 1 1 1 1 1 1 1 
1 1 1 1 1 1 1 1 1 
1 1 1 1 1 1 1 1 1 
1 1 1 1 1 1 1 1 1 
1 1 1 1 1 1 1 1 1 
1 1 1 1 1 1 1 1 1 
1 1 1 1 1 1 1 1 1 
1 1 1 1 1 1 1 1 1 
1 1 1 1 1 1 1 1 1 
1 1 1 1 1 1 1 1 1 
1 
v 3 100 double
-0.124151 -0.0631178 -0.136516 -0.102318 -0.0622729 -0.208858 -0.0949815 -0.064799 -0.280191 
-0.1798 -0.079347 -0.187685 -0.182157 -0.0739544 -0.0881049 -0.163217 -0.0790918 -0.249096 
-0.138758 -0.0779521 -0.326904 -0.198467 -0.0804689 -0.13252 -0.0837836 -0.0659857 -0.344403 
-0.0542558 -0.0478695 -0.158194 -0.217092 -0.0908663 -0.232745 -0.177577 -0.0855921 -0.300999 
-0.0536759 -0.0497524 -0.192002 -0.234369 -0.0927379 -0.195632 -0.0583651 -0.0535604 -0.237153 
-0.203 -0.0900532 -0.274955 -0.214314 -0.0844012 -0.135554 -0.0725697 -0.0618549 -0.319694 
-0.0500096 -0.045308 -0.132149 -0.115555 -0.0752103 -0.372927 -0.0646591 -0.0508669 -0.167148 
-0.252319 -0.0988723 -0.227187 -0.167004 -0.0716384 -0.109368 -0.183394 -0.0710167 -0.0340438 
-0.138399 -0.0621368 -0.0636672 -0.0823997 -0.0547891 -0.162514 -0.160308 -0.067792 -0.0715249 
-0.197601 -0.0753291 -0.049938 -0.244578 -0.0988405 -0.257318 -0.163739 -0.0771844 -0.215109 
-0.234076 -0.0976614 -0.279182 -0.212984 -0.0811932 -0.0871394 -0.0617424 -0.0554959 -0.256165 
-0.230239 -0.0896935 -0.161044 -0.0755018 -0.0665259 -0.386246 -0.151813 -0.0666513 -0.0860807 
-0.212939 -0.0944507 -0.309175 -0.232014 -0.0901661 -0.161918 -0.173155 -0.0874714 -0.349962 
-0.0336778 -0.0454224 -0.198751 -0.135478 -0.0747299 -0.285977 -0.209391 -0.0855412 -0.174133 
-0.193584 -0.0797662 -0.140102 -0.165208 -0.0738125 -0.152865 -0.118703 -0.0735977 -0.333474 
-0.149258 -0.0831134 -0.371687 -0.112707 -0.0559706 -0.0622427 -0.0376731 -0.0476142 -0.219605 
-0.234346 -0.0993667 -0.306649 -0.0582103 -0.0553546 -0.267791 -0.123122 -0.0627352 -0.184869 
-0.100153 -0.0617755 -0.255445 -0.091455 -0.0641219 -0.325364 -0.176621 -0.0785135 -0.236329 
-0.181102 -0.0734334 -0.138609 -0.159035 -0.0781497 -0.29628 -0.133376 -0.076892 -0.372169 
-0.196048 -0.0796934 -0.182503 -0.079093 -0.0651635 -0.388185 -0.0541354 -0.0477961 -0.204685 
-0.21219 -0.0896816 -0.28135 -0.171984 -0.0844034 -0.347545 -0.0529533 -0.0496066 -0.237961 
-0.229898 -0.0915701 -0.245246 -0.0565801 -0.0532456 -0.282401 -0.197451 -0.0888056 -0.322493 
-0.211705 -0.0835829 -0.18596 -0.0687812 -0.0612146 -0.363798 -0.0503701 -0.0452946 -0.178892 
-0.109593 -0.0741159 -0.416841 -0.0639097 -0.0506431 -0.213519 -0.246822 -0.0975084 -0.276618 
-0.165567 -0.0710685 -0.158998 -0.183551 -0.0706821 -0.0856009 -0.138608 -0.0618959 -0.113593 
-0.0818053 -0.0545985 -0.209654 -0.160184 -0.0674831 -0.121977 -0.197229 -0.0748932 -0.101581 
-0.238593 -0.0974247 -0.306051 -0.160458 -0.0763987 -0.263053 -0.227829 -0.0962332 -0.327302 
-0.211222 -0.0804741 -0.138217 -0.0591513 -0.0550085 -0.300887 -0.226548 -0.0886458 -0.211158 
-0.0700137 -0.065598 -0.429055 -0.151177 -0.066238 -0.135809 -0.206459 -0.0930403 -0.356308 
-0.22837 -0.0891342 -0.212132 -0.166567 -0.0861423 -0.395513 -0.033043 -0.0453178 -0.244044 
-0.130895 -0.0737771 -0.331796 -0.205769 -0.0845475 -0.223527 -0.191342 -0.079062 -0.190034 
-0.162841 -0.0731053 -0.201654 -0.113707 -0.0726629 -0.378301 -0.142663 -0.0818416 -0.416336 
-0.113455 -0.055874 -0.111654 -0.0365489 -0.0474322 -0.264636 -0.227516 -0.0978532 -0.354292 
-0.0558328 -0.0549609 -0.312534 
f 3 100 double
0 0 0 0 0 0 0 0 0 
0 0 0 0 0 0 0 0 0 
0 0 0 0 0 0 0 0 0 
0 0 0 0 0 0 0 0 0 
0 0 0 0 0 0 0 0 0 
0 0 0 0 0 0 0 0 0 
0 0 0 0 0 0 0 0 0 
0 0 0 0 0 0 0 0 0 
0 0 0 0 0 0 0 0 0 
0 0 0 0 0 0 0 0 0 
0 0 0 0 0 0 0 0 0 
0 0 0 0 0 0 0 0 0 
0 0 0 0 0 0 0 0 0 
0 0 0 0 0 0 0 0 0 
0 0 0 0 0 0 0 0 0 
0 0 0 0 0 0 0 0 0 
0 0 0 0 0 0 0 0 0 
0 0 0 0 0 0 0 0 0 
0 0 0 0 0 0 0 0 0 
0 0 0 0 0 0 0 0 0 
0 0 0 0 0 0 0 0 0 
0 0 0 0 0 0 0 0 0 
0 0 0 0 0 0 0 0 0 
0 0 0 0 0 0 0 0 0 
0 0 0 0 0 0 0 0 0 
0 0 0 0 0 0 0 0 0 
0 0 0 0 0 0 0 0 0 
0 0 0 0 0 0 0 0 0 
0 0 0 0 0 0 0 0 0 
0 0 0 0 0 0 0 0 0 
0 0 0 0 0 0 0 0 0 
0 0 0 0 0 0 0 0 0 
0 0 0 0 0 0 0 0 0 
0 0 0 
radius 1 100 double
0.010434 0.00981478 0.00892069 0.00845937 0.00731974 0.00728422 0.00643447 0.00619172 0.00585956 
0.00577566 0.00537241 0.00522549 0.00513666 0.00473175 0.00466912 0.00444866 0.00441894 0.00400812 
0.00385622 0.00379948 0.00370243 0.00366942 0.00364039 0.00363813 0.00363644 0.00358692 0.0035797 
0.00341284 0.00337012 0.00336273 0.00332772 0.00323261 0.00320584 0.00320311 0.00318808 0.00313116 
0.00306026 0.00305632 0.00304383 0.00300958 0.00300137 0.00298994 0.0029567 0.00295111 0.00290849 
0.00284552 0.00282964 0.0028207 0.00281971 0.00281899 0.010434 0.00981478 0.00892069 0.00845937 
0.00731974 0.00728422 0.00643447 0.00619172 0.00585956 0.00577566 0.00537241 0.00522549 0.00513666 
0.00473175 0.00466912 0.00444866 0.00441894 0.00400812 0.00385622 0.00379948 0.00370243 0.00366942 
0.00364039 0.00363813 0.00363644 0.00358692 0.0035797 0.00341284 0.00337012 0.00336273 0.00332772 
0.00323261 0.00320584 0.00320311 0.00318808 0.00313116 0.00306026 0.00305632 0.00304383 0.00300958 
0.00300137 0.00298994 0.0029567 0.00295111 0.00290849 0.00284552 0.00282964 0.0028207 0.00281971 
0.00281899 
omega 3 100 double
1.68011 -7.09828 0.42417 1.68011 -7.09828 0.42417 1.68011 -7.09828 0.42417 
1.68011 -7.09828 0.42417 1.68011 -7.09828 0.42417 1.68011 -7.09828 0.42417 
1.68011 -7.09828 0.42417 1.68011 -7.09828 0.42417 1.68011 -7.09828 0.42417 
1.68011 -7.09828 0.42417 1.68011 -7.09828 0.42417 1.68011 -7.09828 0.42417 
1.68011 -7.09828 0.42417 1.68011 -7.09828 0.42417 1.68011 -7.09828 0.42417 
1.68011 -7.09828 0.42417 1.68011 -7.09828 0.42417 1.68011 -7.09828 0.42417 
1.68011 -7.09828 0.42417 1.68011 -7.09828 0.42417 1.68011 -7.09828 0.42417 
1.68011 -7.09828 0.42417 1.68011 -7.09828 0.42417 1.68011 -7.09828 0.42417 
1.68011 -7.09828 0.42417 1.68011 -7.09828 0.42417 1.68011 -7.09828 0.42417 
1.68011 -7.09828 0.42417 1.68011 -7.09828 0.42417 1.68011 -7.09828 0.42417 
1.68011 -7.09828 0.42417 1.68011 -7.09828 0.42417 1.68011 -7.09828 0.42417 
1.68011 -7.09828 0.42417 1.68011 -7.09828 0.42417 1.68011 -7.09828 0.42417 
1.68011 -7.09828 0.42417 1.68011 -7.09828 0.42417 1.68011 -7.09828 0.42417 
1.68011 -7.09828 0.42417 1.68011 -7.09828 0.42417 1.68011 -7.09828 0.42417 
1.68011 -7.09828 0.42417 1.68011 -7.09828 0.42417 1.68011 -7.09828 0.42417 
1.68011 -7.09828 0.42417 1.68011 -7.09828 0.42417 1.68011 -7.09828 0.42417 
1.68011 -7.09828 0.42417 1.68011 -7.09828 0.42417 1.63555 -6.97244 0.437461 
1.63555 -6.97244 0.437461 1.63555 -6.97244 0.437461 1.63555 -6.97244 0.437461 
1.63555 -6.97244 0.437461 1.63555 -6.97244 0.437461 1.63555 -6.97244 0.437461 
1.63555 -6.97244 0.437461 1.63555 -6.97244 0.437461 1.63555 -6.97244 0.437461 
1.63555 -6.97244 0.437461 1.63555 -6.97244 0.437461 1.63555 -6.97244 0.437461 
1.63555 -6.97244 0.437461 1.63555 -6.97244 0.437461 1.63555 -6.97244 0.437461 
1.63555 -6.97244 0.437461 1.63555 -6.97244 0.437461 1.63555 -6.97244 0.437461 
1.63555 -6.97244 0.437461 1.63555 -6.97244 0.437461 1.63555 -6.97244 0.437461 
1.63555 -6.97244 0.437461 1.63555 -6.97244 0.437461 1.63555 -6.97244 0.437461 
1.63555 -6.97244 0.437461 1.63555 -6.97244 0.437461 1.63555 -6.97244 0.437461 
1.63555 -6.97244 0.437461 1.63555 -6.97244 0.437461 1.63555 -6.97244 0.437461 
1.63555 -6.97244 0.437461 1.63555 -6.97244 0.437461 1.63555 -6.97244 0.437461 
1.63555 -6.97244 0.437461 1.63555 -6.97244 0.437461 1.63555 -6.97244 0.437461 
1.63555 -6.97244 0.437461 1.63555 -6.97244 0.437461 1.63555 -6.97244 0.437461 
1.63555 -6.97244 0.437461 1.63555 -6.97244 0.437461 1.63555 -6.97244 0.437461 
1.63555 -6.97244 0.437461 1.63555 -6.97244 0.437461 1.63555 -6.97244 0.437461 
1.63555 -6.97244 0.437461 1.63555 -6.97244 0.437461 1.63555 -6.97244 0.437461 
1.63555 -6.97244 0.437461 
