# vtk DataFile Version 4.0
Generated by LIGGGHTS
ASCII
DATASET POLYDATA
POINTS 100 float
-0.116678 -0.148619 0.0128792 -0.126632 -0.145607 0.0117946 -0.136459 -0.143733 0.0124692 
-0.12366 -0.155172 0.0174951 -0.110013 -0.155011 0.0178582 -0.132106 -0.152942 0.0166305 
-0.142815 -0.14954 0.0154359 -0.116007 -0.1594 0.0167098 -0.145286 -0.142107 0.0120756 
-0.119758 -0.138731 0.00906384 -0.129771 -0.160839 0.0192838 -0.139197 -0.155158 0.017383 
-0.1245 -0.135743 0.012174 -0.124626 -0.164036 0.0193466 -0.130692 -0.136284 0.0126914 
-0.135571 -0.159174 0.018278 -0.116566 -0.156972 0.0224908 -0.142045 -0.13683 0.0152501 
-0.116044 -0.142257 0.00442974 -0.149125 -0.147344 0.0131421 -0.120765 -0.145966 0.00362719 
-0.128936 -0.166354 0.020665 -0.112756 -0.158406 0.0112755 -0.102657 -0.153469 0.0195717 
-0.106616 -0.151953 0.0120788 -0.120463 -0.138368 0.01519 -0.1079 -0.148348 0.0203418 
-0.1049 -0.153111 0.0228859 -0.13309 -0.165007 0.0205862 -0.1276 -0.148587 0.021203 
-0.136108 -0.163445 0.0201463 -0.109727 -0.162382 0.0164116 -0.133001 -0.144985 0.0043169 
-0.119846 -0.164637 0.0177764 -0.150988 -0.142367 0.0102369 -0.109582 -0.156302 0.0103182 
-0.140253 -0.160497 0.0190154 -0.120052 -0.162391 0.0204943 -0.145898 -0.155168 0.0166124 
-0.125313 -0.136926 0.00688 -0.137073 -0.152778 0.0112576 -0.121619 -0.163183 0.0150903 
-0.117273 -0.152594 0.0228686 -0.118702 -0.158806 0.0106149 -0.143865 -0.14338 0.0178246 
-0.148907 -0.152005 0.0151204 -0.10646 -0.148288 0.0106815 -0.128203 -0.136501 0.00819923 
-0.13989 -0.163093 0.0206485 -0.134954 -0.134614 0.0144976 -0.0471088 -0.118742 0.0126774 
-0.0572781 -0.11641 0.0119821 -0.0671822 -0.115238 0.013015 -0.053463 -0.125857 0.0173693 
-0.0398555 -0.124754 0.0172952 -0.0620665 -0.124203 0.0168277 -0.0730187 -0.121531 0.0160554 
-0.0455681 -0.129525 0.0162435 -0.0761088 -0.114223 0.0129429 -0.0509899 -0.109019 0.00918444 
-0.0591051 -0.131969 0.0192278 -0.0689594 -0.126921 0.0177593 -0.0558193 -0.10643 0.0125118 
-0.0537534 -0.134801 0.0190534 -0.0619375 -0.107412 0.0132167 -0.0650368 -0.130693 0.0184471 
-0.0460975 -0.127258 0.0220921 -0.0731339 -0.108797 0.0161278 -0.0472004 -0.112184 0.00435555 
-0.0795388 -0.119735 0.014016 -0.0516786 -0.116196 0.00362348 -0.0578459 -0.137439 0.0204584 
-0.0425779 -0.128198 0.0107305 -0.0325689 -0.122737 0.0188042 -0.0368735 -0.121351 0.0114786 
-0.0515111 -0.108828 0.0153367 -0.0381233 -0.11801 0.0198569 -0.0347184 -0.122603 0.0221962 
-0.0620835 -0.136383 0.0205437 -0.0577205 -0.119637 0.0213482 -0.065215 -0.135027 0.0202363 
-0.0391105 -0.132056 0.0156764 -0.0639231 -0.116083 0.00472954 -0.0489982 -0.135036 0.0173166 
-0.0818378 -0.114842 0.011284 -0.0395913 -0.125861 0.0097183 -0.0695893 -0.132352 0.0193057 
-0.049267 -0.132865 0.0200891 -0.0756659 -0.127382 0.0172054 -0.0567271 -0.107561 0.00722182 
-0.0672119 -0.124277 0.011623 -0.0509577 -0.133656 0.0147223 -0.0470914 -0.122947 0.0225899 
-0.0485015 -0.128998 0.0102535 -0.0744099 -0.115508 0.0186133 -0.0789341 -0.124408 0.015882 
-0.0370183 -0.117657 0.0101589 -0.0595934 -0.107364 0.0086428 -0.0689927 -0.134949 0.0208681 
-0.0662411 -0.106079 0.0151962 
VERTICES 100 200
1 0 
1 1 
1 2 
1 3 
1 4 
1 5 
1 6 
1 7 
1 8 
1 9 
1 10 
1 11 
1 12 
1 13 
1 14 
1 15 
1 16 
1 17 
1 18 
1 19 
1 20 
1 21 
1 22 
1 23 
1 24 
1 25 
1 26 
1 27 
1 28 
1 29 
1 30 
1 31 
1 32 
1 33 
1 34 
1 35 
1 36 
1 37 
1 38 
1 39 
1 40 
1 41 
1 42 
1 43 
1 44 
1 45 
1 46 
1 47 
1 48 
1 49 
1 50 
1 51 
1 52 
1 53 
1 54 
1 55 
1 56 
1 57 
1 58 
1 59 
1 60 
1 61 
1 62 
1 63 
1 64 
1 65 
1 66 
1 67 
1 68 
1 69 
1 70 
1 71 
1 72 
1 73 
1 74 
1 75 
1 76 
1 77 
1 78 
1 79 
1 80 
1 81 
1 82 
1 83 
1 84 
1 85 
1 86 
1 87 
1 88 
1 89 
1 90 
1 91 
1 92 
1 93 
1 94 
1 95 
1 96 
1 97 
1 98 
1 99 

POINT_DATA 100
FIELD FieldData 7
id 1 100 int
1 2 3 4 5 6 7 8 9 
10 11 12 13 14 15 16 17 18 
19 20 21 22 23 24 25 26 27 
28 29 30 31 32 33 34 35 36 
37 38 39 40 41 42 43 44 45 
46 47 48 49 50 51 52 53 54 
55 56 57 58 59 60 61 62 63 
64 65 66 67 68 69 70 71 72 
73 74 75 76 77 78 79 80 81 
82 83 84 85 86 87 88 89 90 
91 92 93 94 95 96 97 98 99 
100 
mol 1 100 int
1 1 1 1 1 1 1 1 1 
1 1 1 1 1 1 1 1 1 
1 1 1 1 1 1 1 1 1 
1 1 1 1 1 1 1 1 1 
1 1 1 1 1 1 1 1 1 
1 1 1 1 1 2 2 2 2 
2 2 2 2 2 2 2 2 2 
2 2 2 2 2 2 2 2 2 
2 2 2 2 2 2 2 2 2 
2 2 2 2 2 2 2 2 2 
2 2 2 2 2 2 2 2 2 
2 
type 1 100 int
1 1 1 1 1 1 1 1 1 
1 1 1 1 1 1 1 1 1 
1 1 1 1 1 1 1 1 1 
1 1 1 1 1 1 1 1 1 
1 1 1 1 1 1 1 1 1 
1 1 1 1 1 1 1 1 1 
1 1 1 1 1 1 1 1 1 
1 1 1 1 1 1 1 1 1 
1 1 1 1 1 1 1 1 1 
1 1 1 1 1 1 1 1 1 
1 1 1 1 1 1 1 1 1 
1 
v 3 100 double
0.0129452 -0.165059 -0.0400661 0.0140456 -0.143907 0.0085656 0.0161745 -0.145037 0.0427218 
0.0129632 -0.218037 -0.115257 0.0134725 -0.232862 -0.127825 0.0137126 -0.200791 -0.07809 
0.0149885 -0.177685 -0.0237262 0.00894962 -0.213878 -0.176762 0.0169737 -0.133446 0.0726665 
0.0162865 -0.114624 0.0879421 0.0106229 -0.23601 -0.180187 0.0128544 -0.204959 -0.0984482 
0.021857 -0.150292 0.130706 0.00829008 -0.240665 -0.226015 0.022004 -0.15217 0.130499 
0.0107963 -0.21897 -0.152992 0.0169563 -0.286372 -0.145544 0.0243315 -0.17592 0.135762 
0.00868241 -0.0589629 0.0395015 0.0141832 -0.144017 0.0107197 0.00503893 -0.0452966 -0.00223884 
0.00796027 -0.254058 -0.250642 0.00388235 -0.147776 -0.167704 0.0164638 -0.259997 -0.116235 
0.00958597 -0.162518 -0.0928827 0.0231127 -0.191363 0.0932762 0.0211316 -0.265774 -0.0460426 
0.0202775 -0.300114 -0.109328 0.00888732 -0.249945 -0.229205 0.0218737 -0.261846 -0.0279768 
0.0095892 -0.242131 -0.206277 0.00639162 -0.214832 -0.221099 0.00651353 -0.04481 0.0232296 
0.00615911 -0.224448 -0.238709 0.0148122 -0.105975 0.0754965 0.00443729 -0.138084 -0.144568 
0.0105924 -0.224755 -0.164662 0.0107529 -0.258574 -0.210158 0.0120226 -0.190209 -0.0914049 
0.0153056 -0.0829091 0.116656 0.0080884 -0.129296 -0.0707025 0.00437705 -0.189238 -0.218475 
0.0206475 -0.290607 -0.0895642 0.00287509 -0.13498 -0.166392 0.0221688 -0.207025 0.0551002 
0.0128006 -0.169132 -0.0482991 0.0108427 -0.145011 -0.0468208 0.0170361 -0.0973788 0.12511 
0.0103904 -0.245627 -0.197797 0.0251897 -0.171752 0.15612 0.0448836 -0.135942 -0.0407707 
0.0439696 -0.121278 0.0217812 0.0487198 -0.124765 0.0712815 0.057359 -0.18004 -0.0907419 
0.0578869 -0.189225 -0.130558 0.056528 -0.168118 -0.0411378 0.0555724 -0.152083 0.0278878 
0.0504335 -0.17412 -0.1586 0.0491902 -0.117485 0.115461 0.0388349 -0.0968132 0.0748769 
0.0598908 -0.195221 -0.132985 0.0580498 -0.172754 -0.0434061 0.0532668 -0.127849 0.119966 
0.0571617 -0.197325 -0.182574 0.0552049 -0.130696 0.132825 0.0578825 -0.182771 -0.0973745 
0.0741308 -0.234495 -0.133052 0.0651613 -0.152751 0.16062 0.0183226 -0.0494162 0.0277113 
0.0492017 -0.126124 0.0711235 0.0126284 -0.0385342 0.00289841 0.0605258 -0.208927 -0.194562 
0.0306291 -0.11903 -0.15609 0.0650485 -0.210234 -0.137064 0.0384574 -0.130975 -0.106446 
0.0621579 -0.160351 0.0788233 0.0724734 -0.217107 -0.0670256 0.0779287 -0.243902 -0.12757 
0.0616199 -0.206713 -0.167621 0.076903 -0.218263 -0.0100752 0.061454 -0.201229 -0.141728 
0.0464444 -0.172952 -0.209235 0.0168793 -0.0410676 0.0502172 0.0504449 -0.182759 -0.202937 
0.0424863 -0.0960581 0.130622 0.0285252 -0.110699 -0.143055 0.0599035 -0.18836 -0.0974613 
0.0624811 -0.211367 -0.179362 0.0556253 -0.162093 -0.0229228 0.0325055 -0.0722254 0.111639 
0.0368609 -0.11028 -0.0225228 0.0416784 -0.154372 -0.181215 0.07916 -0.23894 -0.0845271 
0.0282462 -0.10974 -0.142079 0.0696181 -0.17764 0.095712 0.0528148 -0.145954 0.0202958 
0.0361873 -0.117159 -0.0675193 0.0380039 -0.0848916 0.124482 0.0638913 -0.205028 -0.126687 
0.0636394 -0.148114 0.162889 
f 3 100 double
0 0 0 0 0 0 0 0 0 
0 0 0 0 0 0 0 0 0 
0 0 0 0 0 0 0 0 0 
0 0 0 0 0 0 0 0 0 
0 0 0 0 0 0 0 0 0 
0 0 0 0 0 0 0 0 0 
0 0 0 0 0 0 -0.0827731 -0.0578995 0.357434 
0 0 0 0 0 0 0 0 0 
0 0 0 0 0 0 0 0 0 
0 0 0 0 0 0 0 0 0 
0 0 0 0 0 0 0 0 0 
0 0 0 0 0 0 0 0 0 
0 0 0 0 0 0 0 0 0 
0 0 0 0 0 0 0 0 0 
0 0 0 0 0 0 0 0 0 
0 0 0 0 0 0 0 0 0 
0 0 0 0 0 0 0 0 0 
0 0 0 0 0 0 0 0 0 
0 0 0 0 0 0 0 0 0 
0 0 0 0 0 0 0 0 0 
0 0 0 0 0 0 0 0 0 
0 0 0 0 0 0 0 0 0 
0 0 0 0 0 0 0 0 0 
0 0 0 -0.0563976 -0.0598297 0.323292 0 0 0 
0 0 0 0 0 0 0 0 0 
0 0 0 0 0 0 0 0 0 
0 0 0 0 0 0 0 0 0 
0 0 0 0 0 0 0 0 0 
0 0 0 0 0 0 0 0 0 
0 0 0 0 0 0 0 0 0 
0 0 0 0 0 0 0 0 0 
0 0 0 0 0 0 0 0 0 
0 0 0 0 0 0 0 0 0 
0 0 0 
radius 1 100 double
0.010434 0.00981478 0.00892069 0.00845937 0.00731974 0.00728422 0.00643447 0.00619172 0.00585956 
0.00577566 0.00537241 0.00522549 0.00513666 0.00473175 0.00466912 0.00444866 0.00441894 0.00400812 
0.00385622 0.00379948 0.00370243 0.00366942 0.00364039 0.00363813 0.00363644 0.00358692 0.0035797 
0.00341284 0.00337012 0.00336273 0.00332772 0.00323261 0.00320584 0.00320311 0.00318808 0.00313116 
0.00306026 0.00305632 0.00304383 0.00300958 0.00300137 0.00298994 0.0029567 0.00295111 0.00290849 
0.00284552 0.00282964 0.0028207 0.00281971 0.00281899 0.010434 0.00981478 0.00892069 0.00845937 
0.00731974 0.00728422 0.00643447 0.00619172 0.00585956 0.00577566 0.00537241 0.00522549 0.00513666 
0.00473175 0.00466912 0.00444866 0.00441894 0.00400812 0.00385622 0.00379948 0.00370243 0.00366942 
0.00364039 0.00363813 0.00363644 0.00358692 0.0035797 0.00341284 0.00337012 0.00336273 0.00332772 
0.00323261 0.00320584 0.00320311 0.00318808 0.00313116 0.00306026 0.00305632 0.00304383 0.00300958 
0.00300137 0.00298994 0.0029567 0.00295111 0.00290849 0.00284552 0.00282964 0.0028207 0.00281971 
0.00281899 
omega 3 100 double
12.6129 1.06976 -0.750714 12.6129 1.06976 -0.750714 12.6129 1.06976 -0.750714 
12.6129 1.06976 -0.750714 12.6129 1.06976 -0.750714 12.6129 1.06976 -0.750714 
12.6129 1.06976 -0.750714 12.6129 1.06976 -0.750714 12.6129 1.06976 -0.750714 
12.6129 1.06976 -0.750714 12.6129 1.06976 -0.750714 12.6129 1.06976 -0.750714 
12.6129 1.06976 -0.750714 12.6129 1.06976 -0.750714 12.6129 1.06976 -0.750714 
12.6129 1.06976 -0.750714 12.6129 1.06976 -0.750714 12.6129 1.06976 -0.750714 
12.6129 1.06976 -0.750714 12.6129 1.06976 -0.750714 12.6129 1.06976 -0.750714 
12.6129 1.06976 -0.750714 12.6129 1.06976 -0.750714 12.6129 1.06976 -0.750714 
12.6129 1.06976 -0.750714 12.6129 1.06976 -0.750714 12.6129 1.06976 -0.750714 
12.6129 1.06976 -0.750714 12.6129 1.06976 -0.750714 12.6129 1.06976 -0.750714 
12.6129 1.06976 -0.750714 12.6129 1.06976 -0.750714 12.6129 1.06976 -0.750714 
12.6129 1.06976 -0.750714 12.6129 1.06976 -0.750714 12.6129 1.06976 -0.750714 
12.6129 1.06976 -0.750714 12.6129 1.06976 -0.750714 12.6129 1.06976 -0.750714 
12.6129 1.06976 -0.750714 12.6129 1.06976 -0.750714 12.6129 1.06976 -0.750714 
12.6129 1.06976 -0.750714 12.6129 1.06976 -0.750714 12.6129 1.06976 -0.750714 
12.6129 1.06976 -0.750714 12.6129 1.06976 -0.750714 12.6129 1.06976 -0.750714 
12.6129 1.06976 -0.750714 12.6129 1.06976 -0.750714 10.3894 3.76827 -0.731589 
10.3894 3.76827 -0.731589 10.3894 3.76827 -0.731589 10.3894 3.76827 -0.731589 
10.3894 3.76827 -0.731589 10.3894 3.76827 -0.731589 10.3894 3.76827 -0.731589 
10.3894 3.76827 -0.731589 10.3894 3.76827 -0.731589 10.3894 3.76827 -0.731589 
10.3894 3.76827 -0.731589 10.3894 3.76827 -0.731589 10.3894 3.76827 -0.731589 
10.3894 3.76827 -0.731589 10.3894 3.76827 -0.731589 10.3894 3.76827 -0.731589 
10.3894 3.76827 -0.731589 10.3894 3.76827 -0.731589 10.3894 3.76827 -0.731589 
10.3894 3.76827 -0.731589 10.3894 3.76827 -0.731589 10.3894 3.76827 -0.731589 
10.3894 3.76827 -0.731589 10.3894 3.76827 -0.731589 10.3894 3.76827 -0.731589 
10.3894 3.76827 -0.731589 10.3894 3.76827 -0.731589 10.3894 3.76827 -0.731589 
10.3894 3.76827 -0.731589 10.3894 3.76827 -0.731589 10.3894 3.76827 -0.731589 
10.3894 3.76827 -0.731589 10.3894 3.76827 -0.731589 10.3894 3.76827 -0.731589 
10.3894 3.76827 -0.731589 10.3894 3.76827 -0.731589 10.3894 3.76827 -0.731589 
10.3894 3.76827 -0.731589 10.3894 3.76827 -0.731589 10.3894 3.76827 -0.731589 
10.3894 3.76827 -0.731589 10.3894 3.76827 -0.731589 10.3894 3.76827 -0.731589 
10.3894 3.76827 -0.731589 10.3894 3.76827 -0.731589 10.3894 3.76827 -0.731589 
10.3894 3.76827 -0.731589 10.3894 3.76827 -0.731589 10.3894 3.76827 -0.731589 
10.3894 3.76827 -0.731589 
