
//   run_parallel_cfdemSolverPiso_settlingTestMPI_CFDDEM   //

/home/tsimur/CFDEM/tutorials/cfdemSolverPiso/settlingTestMPI/CFD

/*---------------------------------------------------------------------------*\
| =========                 |                                                 |
| \\      /  F ield         | OpenFOAM: The Open Source CFD Toolbox           |
|  \\    /   O peration     | Version:  5.x                                   |
|   \\  /    A nd           | Web:      www.OpenFOAM.org                      |
|    \\/     M anipulation  |                                                 |
\*---------------------------------------------------------------------------*/
Build  : 5.x-538044ac05c4
Exec   : cfdemSolverPiso -parallel
Date   : Mar 11 2019
Time   : 00:36:03
Host   : "tsimur"
PID    : 7127
I/O    : uncollated
Case   : /home/tsimur/CFDEM/tutorials/cfdemSolverPiso/settlingTestMPI/CFD
nProcs : 2
Slaves : 1("tsimur.7128")
Pstream initialized with:
    floatTransfer      : 0
    nProcsSimpleSum    : 0
    commsType          : nonBlocking
    polling iterations : 0
sigFpe : Enabling floating point exception trapping (FOAM_SIGFPE).
fileModificationChecking : Monitoring run-time modified files using timeStampMaster (fileModificationSkew 10)
allowSystemOperations : Allowing user-supplied system call operations

// * * * * * * * * * * * * * * * * * * * * * * * * * * * * * * * * * * * * * //
Create time

Create mesh for time = 0


PISO: Operating solver in PISO mode

Reading field p

Reading physical velocity field U
Note: only if voidfraction at boundary is 1, U is superficial velocity!!!


Reading momentum exchange field Ksl


Reading voidfraction field voidfraction = (Vgas/Vparticle)


Creating density field rho

Reading particle velocity field Us

Reading/calculating face flux field phi

Generating interstitial face flux field phiByVoidfraction

Selecting incompressible transport model Newtonian
Selecting turbulence model type laminar
Selecting laminar stress model Stokes
No finite volume options present


Reading g
Selecting locateModel engine
Selecting dataExchangeModel twoWayMPI
Starting up LIGGGHTS for first time execution
Executing input script '../DEM/in.liggghts_run'
LIGGGHTS (Version LIGGGHTS-PUBLIC 3.8.0, compiled 2018-11-28-21:57:47 by root, git commit 28301df8853491784b1d8b90533ea89b8c6af1e8)
log             ../DEM/log.liggghts
thermo_log      ../DEM/post/thermo.txt

atom_style      granular
atom_modify     map array sort 0 0
communicate     single vel yes

boundary        f f f
newton          off

units           si

region          reg block 0 0.1 0 0.1 0 0.1 units box
create_box      1 reg
Created orthogonal box = (0 0 0) to (0.1 0.1 0.1)
  1 by 1 by 2 MPI processor grid

neighbor        0.003 bin
neigh_modify    delay 0 binsize 0.01


# Material properties required for granular pair styles
fix         m1 all property/global youngsModulus peratomtype 5.e6
fix         m2 all property/global poissonsRatio peratomtype 0.45
fix         m3 all property/global coefficientRestitution peratomtypepair 1 0.3
fix         m4 all property/global coefficientFriction peratomtypepair 1 0.5
#fix         m5 all property/global characteristicVelocity scalar 2.0

# pair style
pair_style  gran model hertz tangential history # hertz without cohesion
pair_coeff  * *

# timestep, gravity
timestep    0.00001
fix         gravi all gravity 9.81 vector 0.0 -1.0 0.0

# walls
fix     xwalls1 all wall/gran model hertz tangential history primitive type 1 xplane 0.0
fix     xwalls2 all wall/gran model hertz tangential history primitive type 1 xplane 0.1
fix     ywalls1 all wall/gran model hertz tangential history primitive type 1 yplane 0.0
fix     ywalls2 all wall/gran model hertz tangential history primitive type 1 yplane 0.1
fix     zwalls1 all wall/gran model hertz tangential history primitive type 1 zplane 0.0
fix     zwalls2 all wall/gran model hertz tangential history primitive type 1 zplane 0.01

# create single partciles
create_atoms    1 single 0.05 0.025  0.05 units box
Created 1 atoms
set             group all diameter 0.0001 density 3000
Setting atom values ...
  1 settings made for diameter
  1 settings made for density
region          bc block 0 0.09 0 0.09 0.05 0.09 units box
fix     pts1 all particletemplate/sphere 15485863 atom_type 1 density constant 2000 radius constant 0.0005
fix     pdd1 all particledistribution/discrete 15485867 1 pts1 1.0
Fix particledistribution/discrete (id pdd1): distribution based on mass%:
    pts1: d=1.000000e-03 (max. bounding sphere) mass%=100.000000%
Fix particledistribution/discrete (id pdd1): distribution based on number%:
    pts1: d=1.000000e-03 (max. bounding sphere) number%=100.000000%
fix     ins all insert/pack seed 32452843 distributiontemplate pdd1 vel constant 0. 0. -1. insert_every once overlapcheck yes all_in yes particles_in_region 10 region bc


# cfd coupling
fix     cfd all couple/cfd couple_every 100 mpi
couple_every as specified in LIGGGHTS is overriden by calling external program (../fix_cfd_coupling.cpp:114)
fix     cfd2 all couple/cfd/force

variable    vx equal vx[1]
variable    vy equal vy[1]
variable    vz equal vz[1]
variable    time equal step*dt
fix         extra all print 100 "${time} ${vx} ${vy} ${vz}" file ../DEM/post/velocity.txt title "#" screen no

# apply nve integration to all particles that are inserted as single particles
fix         integr all nve/sphere

# screen output
compute         rke all erotate/sphere
thermo_style    custom step atoms ke c_rke vol
thermo          1000
thermo_modify   lost ignore norm no
compute_modify  thermo_temp dynamic yes
WARNING: Changing thermo_temp compute object. This object is deprecated and will be removed in the future. (../compute.cpp:161)

# insert the first particles so that dump is not empty
run     0
Setting up run at Mon Mar 11 00:36:04 2019

INFO: Resetting random generator for region bc
INFO: Particle insertion ins: inserting every 0 steps
Memory usage per processor = 4.23785 Mbytes
    Step    Atoms         KinEng            rke         Volume 
       0        1              0              0          0.001 
Loop time of 4.5435e-06 on 2 procs for 0 steps with 1 atoms, finish time Mon Mar 11 00:36:04 2019


Pair  time (%) = 0 (0)
Neigh time (%) = 0 (0)
Comm  time (%) = 0 (0)
Outpt time (%) = 0 (0)
Other time (%) = 4.5435e-06 (100)

Nlocal:    0.5 ave 1 max 0 min
Histogram: 1 0 0 0 0 0 0 0 0 1
Nghost:    0.5 ave 1 max 0 min
Histogram: 1 0 0 0 0 0 0 0 0 1
Neighs:    0 ave 0 max 0 min
Histogram: 2 0 0 0 0 0 0 0 0 0

Total # of neighbors = 0
Ave neighs/atom = 0
Neighbor list builds = 0
Dangerous builds = 0
dump    dmp all custom 1000 ../DEM/post/dump.liggghts_run id type x y z ix iy iz vx vy vz fx fy fz omegax omegay omegaz radius

run     0 upto
Setting up run at Mon Mar 11 00:36:04 2019

Memory usage per processor = 4.23805 Mbytes
    Step    Atoms         KinEng            rke         Volume 
       0        1              0              0          0.001 
Loop time of 2.44149e-06 on 2 procs for 0 steps with 1 atoms, finish time Mon Mar 11 00:36:04 2019


Pair  time (%) = 0 (0)
Neigh time (%) = 0 (0)
Comm  time (%) = 0 (0)
Outpt time (%) = 0 (0)
Other time (%) = 2.44149e-06 (100)

Nlocal:    0.5 ave 1 max 0 min
Histogram: 1 0 0 0 0 0 0 0 0 1
Nghost:    0.5 ave 1 max 0 min
Histogram: 1 0 0 0 0 0 0 0 0 1
Neighs:    0 ave 0 max 0 min
Histogram: 2 0 0 0 0 0 0 0 0 0

Total # of neighbors = 0
Ave neighs/atom = 0
Neighbor list builds = 0
Dangerous builds = 0
Selecting IOModel basicIO
Selecting probeModel off
Selecting voidFractionModel divided
Selecting averagingModel dense
Selecting clockModel off
start clock measurement at t >0.002
Selecting smoothingModel constDiffSmoothing
Selecting meshMotionModel noMeshMotion

CFDEMcoupling version: cfdem-3.8.1
, compatible to LIGGGHTS version: 3.8.0
, compatible to OF version and build: 5.x-commit-538044ac05c4672b37c7df607dca1116fa88df88

You are currently using:
OF version: 5.x
OF build: 5.x-538044ac05c4
CFDEM build: 3.8.0-3-gb237264

cg is set to: 1
LIGGGHTS hosts 1 atom types.
If BC are important, please provide volScalarFields -imp/expParticleForces-
ignoring ddt(voidfraction)
Selecting momCoupleModel implicitCouple

implicit momentum exchange field calculate if alphaP larger than : 1
Selecting forceModel DiFeliceDrag
 Selecting forceSubModel ImEx
 reading switches:
  looking for treatForceExplicit ...  not found in dict, using default. treatForceExplicit = false
  looking for implForceDEM ...  not found in dict, using default. implForceDEM = false
  looking for verbose ...  found in dict. verbose = true
  looking for interpolation ...  not found in dict, using default. interpolation = false
  looking for scalarViscosity ...  not found in dict, using default. scalarViscosity = false

--> FOAM Warning : Please make sure you use the new nomenclature for verbose force model settings, please have a look at the forceSubModel doc.
Selecting forceModel Archimedes
 Selecting forceSubModel ImEx
 reading switches:
  looking for verbose ...  not found in dict, using default. verbose = false

Selecting liggghtsCommandModel runLiggghts ,provide dicts, numbered from 0 to n
Selecting liggghtsCommandModel writeLiggghts ,provide dicts, numbered from 0 to n
Using user defined path to write LIGGGHTS restart file: "../DEM/post/restart"
writeLiggghts: A restart file writeName_write_restart ../DEM/post/restart/liggghts.restartCFDEM is written.
firstCouplingStep = 1
lastCouplingStep = 1000000000
couplingStepInterval = 1
nextRun = -1
solving volume averaged Navier Stokes equations of type B


Starting time loop

Time = 0.001

Courant Number mean: 0 max: 0

 Coupling...
Starting up LIGGGHTS
Executing command: 'run 100    '
run 100    
Setting up run at Mon Mar 11 00:36:04 2019

Memory usage per processor = 4.23805 Mbytes
    Step    Atoms         KinEng            rke         Volume 
       0        1              0              0          0.001 
INFO: Particle insertion ins: inserted 9 particle templates (mass 9.424778e-06) at step 1
 - a total of 9 particle templates (mass 9.424778e-06) inserted so far.
CFD Coupling established at step 100
     100       10   4.712838e-06              0          0.001 
Loop time of 0.00546271 on 2 procs for 100 steps with 10 atoms, finish time Mon Mar 11 00:36:04 2019


Pair  time (%) = 5.4953e-05 (1.00597)
Neigh time (%) = 2.5988e-05 (0.475735)
Comm  time (%) = 0.000533058 (9.75812)
Outpt time (%) = 4.2766e-05 (0.782872)
Other time (%) = 0.00480594 (87.9773)

Nlocal:    5 ave 10 max 0 min
Histogram: 1 0 0 0 0 0 0 0 0 1
Nghost:    1.5 ave 3 max 0 min
Histogram: 1 0 0 0 0 0 0 0 0 1
Neighs:    0 ave 0 max 0 min
Histogram: 2 0 0 0 0 0 0 0 0 0

Total # of neighbors = 0
Ave neighs/atom = 0
Neighbor list builds = 1
Dangerous builds = 0
couplingStep = 1
LIGGGHTS finished
DICPCG:  Solving for sSmoothField, Initial residual = 0.0283381, Final residual = 7.41303e-09, No Iterations 3
DICPCG:  Solving for vSmoothFieldx, Initial residual = 0, Final residual = 0, No Iterations 0
DICPCG:  Solving for vSmoothFieldy, Initial residual = 5.83279e-07, Final residual = 5.64353e-11, No Iterations 2
DICPCG:  Solving for vSmoothFieldz, Initial residual = 0, Final residual = 0, No Iterations 0

 timeStepFraction() = 1
[0] index = 0
[0] Us = (0 -0.00981 0)
[0] Ur = (0 0.00981 0)
[0] dprim = 0.0001
[0] dParcel = 0.0001
[0] rho = 10
[0] nuf = 1e-05
[0] voidfraction = 0.99998
[0] Rep = 0.098098
[0] Cd = 254.574
[0] dragCoefficient = 9.80769e-08
[0] drag (total) = (0 9.62134e-10 0)
DICPCG:  Solving for vSmoothFieldx, Initial residual = 0, Final residual = 0, No Iterations 0
DICPCG:  Solving for vSmoothFieldy, Initial residual = 0.0283381, Final residual = 7.41303e-09, No Iterations 3
DICPCG:  Solving for vSmoothFieldz, Initial residual = 0, Final residual = 0, No Iterations 0

Solver level total Eulerian momentum exchange:
  TotalForceImp:  (0 -9.62134e-10 0)
  Warning, these values are based on latest Ksl and Us but prev. iteration U!

DILUPBiCG:  Solving for Ux, Initial residual = 0, Final residual = 0, No Iterations 0
DILUPBiCG:  Solving for Uy, Initial residual = 1, Final residual = 8.64563e-08, No Iterations 2
DILUPBiCG:  Solving for Uz, Initial residual = 0, Final residual = 0, No Iterations 0
DICPCG:  Solving for p, Initial residual = 1, Final residual = 0.0411329, No Iterations 15
time step continuity errors : sum local = 3.11553e-10, global = -2.08827e-12, cumulative = -2.08827e-12
DICPCG:  Solving for p, Initial residual = 0.010357, Final residual = 0.000818844, No Iterations 3
time step continuity errors : sum local = 2.58086e-11, global = 8.46327e-13, cumulative = -1.24195e-12
DICPCG:  Solving for p, Initial residual = 0.000840112, Final residual = 6.93773e-05, No Iterations 13
time step continuity errors : sum local = 2.16815e-12, global = 7.18102e-14, cumulative = -1.17014e-12
DICPCG:  Solving for p, Initial residual = 7.03696e-05, Final residual = 9.14494e-07, No Iterations 9
time step continuity errors : sum local = 2.84748e-14, global = 1.5564e-14, cumulative = -1.15457e-12
ExecutionTime = 0.06 s  ClockTime = 1 s

Time = 0.002

Courant Number mean: 1.96578e-08 max: 5.38387e-07

 Coupling...
Starting up LIGGGHTS
Executing command: 'run 100    '
run 100    
Setting up run at Mon Mar 11 00:36:04 2019

Memory usage per processor = 8.20537 Mbytes
    Step    Atoms         KinEng            rke         Volume 
     100       10   4.712838e-06              0          0.001 
CFD Coupling established at step 200
     200       10  4.7141942e-06              0          0.001 
Loop time of 0.000652825 on 2 procs for 100 steps with 10 atoms, finish time Mon Mar 11 00:36:04 2019


Pair  time (%) = 6.0527e-05 (9.27156)
Neigh time (%) = 0 (0)
Comm  time (%) = 0.00012173 (18.6467)
Outpt time (%) = 1.27885e-05 (1.95895)
Other time (%) = 0.000457779 (70.1228)

Nlocal:    5 ave 10 max 0 min
Histogram: 1 0 0 0 0 0 0 0 0 1
Nghost:    1.5 ave 3 max 0 min
Histogram: 1 0 0 0 0 0 0 0 0 1
Neighs:    0 ave 0 max 0 min
Histogram: 2 0 0 0 0 0 0 0 0 0

Total # of neighbors = 0
Ave neighs/atom = 0
Neighbor list builds = 0
Dangerous builds = 0
couplingStep = 2
LIGGGHTS finished
DICPCG:  Solving for sSmoothField, Initial residual = 0.0283381, Final residual = 6.3638e-09, No Iterations 3
DICPCG:  Solving for vSmoothFieldx, Initial residual = 0, Final residual = 0, No Iterations 0
DICPCG:  Solving for vSmoothFieldy, Initial residual = 5.83279e-07, Final residual = 5.64353e-11, No Iterations 2
DICPCG:  Solving for vSmoothFieldz, Initial residual = 0, Final residual = 0, No Iterations 0

 timeStepFraction() = 1
[0] index = 0
[0] Us = (0 -0.0189748 0)
[0] Ur = (2.73988e-13 0.0189716 2.73988e-13)
[0] dprim = 0.0001
[0] dParcel = 0.0001
[0] rho = 10
[0] nuf = 1e-05
[0] voidfraction = 0.999983
[0] Rep = 0.189713
[0] Cd = 135.729
[0] dragCoefficient = 1.01125e-07
[0] drag (total) = (2.77069e-20 1.9185e-09 2.77069e-20)
DICPCG:  Solving for vSmoothFieldx, Initial residual = 0.0283356, Final residual = 6.36324e-09, No Iterations 3
DICPCG:  Solving for vSmoothFieldy, Initial residual = 0.0283381, Final residual = 6.3638e-09, No Iterations 3
DICPCG:  Solving for vSmoothFieldz, Initial residual = 0.0283356, Final residual = 6.36324e-09, No Iterations 3

Solver level total Eulerian momentum exchange:
  TotalForceImp:  (-8.98467e-18 -1.91849e-09 -8.95494e-18)
  Warning, these values are based on latest Ksl and Us but prev. iteration U!

DILUPBiCG:  Solving for Ux, Initial residual = 0.331913, Final residual = 4.09815e-07, No Iterations 2
DILUPBiCG:  Solving for Uy, Initial residual = 0.429349, Final residual = 2.0911e-07, No Iterations 2
DILUPBiCG:  Solving for Uz, Initial residual = 0.331913, Final residual = 4.09815e-07, No Iterations 2
DICPCG:  Solving for p, Initial residual = 0.280755, Final residual = 0.0261989, No Iterations 9
time step continuity errors : sum local = 1.12026e-09, global = 4.87951e-10, cumulative = 4.86796e-10
DICPCG:  Solving for p, Initial residual = 0.0196353, Final residual = 0.000603078, No Iterations 12
time step continuity errors : sum local = 3.44987e-11, global = 2.26443e-12, cumulative = 4.89061e-10
DICPCG:  Solving for p, Initial residual = 0.000516597, Final residual = 4.28883e-05, No Iterations 13
time step continuity errors : sum local = 2.93214e-12, global = 2.20357e-13, cumulative = 4.89281e-10
DICPCG:  Solving for p, Initial residual = 4.31736e-05, Final residual = 8.31865e-07, No Iterations 10
time step continuity errors : sum local = 5.6792e-14, global = -2.94438e-14, cumulative = 4.89252e-10
ExecutionTime = 0.07 s  ClockTime = 1 s

Time = 0.003

Courant Number mean: 5.55818e-08 max: 1.37706e-06

 Coupling...
Starting up LIGGGHTS
Executing command: 'run 100    '
run 100    
Setting up run at Mon Mar 11 00:36:04 2019

Memory usage per processor = 8.20537 Mbytes
    Step    Atoms         KinEng            rke         Volume 
     200       10  4.7141942e-06              0          0.001 
CFD Coupling established at step 300
     300       10  4.7164575e-06              0          0.001 
Loop time of 0.000752975 on 2 procs for 100 steps with 10 atoms, finish time Mon Mar 11 00:36:04 2019


Pair  time (%) = 8.3511e-05 (11.0908)
Neigh time (%) = 0 (0)
Comm  time (%) = 0.00012969 (17.2237)
Outpt time (%) = 1.5568e-05 (2.06753)
Other time (%) = 0.000524206 (69.618)

Nlocal:    5 ave 10 max 0 min
Histogram: 1 0 0 0 0 0 0 0 0 1
Nghost:    2 ave 4 max 0 min
Histogram: 1 0 0 0 0 0 0 0 0 1
Neighs:    0 ave 0 max 0 min
Histogram: 2 0 0 0 0 0 0 0 0 0

Total # of neighbors = 0
Ave neighs/atom = 0
Neighbor list builds = 0
Dangerous builds = 0
couplingStep = 3
LIGGGHTS finished
DICPCG:  Solving for sSmoothField, Initial residual = 0.0283381, Final residual = 5.70597e-09, No Iterations 3
DICPCG:  Solving for vSmoothFieldx, Initial residual = 5.83279e-07, Final residual = 5.64353e-11, No Iterations 2
DICPCG:  Solving for vSmoothFieldy, Initial residual = 5.83279e-07, Final residual = 5.64353e-11, No Iterations 2
DICPCG:  Solving for vSmoothFieldz, Initial residual = 5.83279e-07, Final residual = 5.64353e-11, No Iterations 2

 timeStepFraction() = 1
[0] index = 0
[0] Us = (1.76388e-14 -0.0275307 1.76388e-14)
[0] Ur = (4.36208e-13 0.0275224 4.36204e-13)
[0] dprim = 0.0001
[0] dParcel = 0.0001
[0] rho = 10
[0] nuf = 1e-05
[0] voidfraction = 0.999986
[0] Rep = 0.27522
[0] Cd = 95.6402
[0] dragCoefficient = 1.03372e-07
[0] drag (total) = (4.50916e-20 2.84504e-09 4.50912e-20)
DICPCG:  Solving for vSmoothFieldx, Initial residual = 0.0283365, Final residual = 5.70566e-09, No Iterations 3
DICPCG:  Solving for vSmoothFieldy, Initial residual = 0.0283381, Final residual = 5.70597e-09, No Iterations 3
DICPCG:  Solving for vSmoothFieldz, Initial residual = 0.0283365, Final residual = 5.70566e-09, No Iterations 3

Solver level total Eulerian momentum exchange:
  TotalForceImp:  (-1.94424e-17 -2.84502e-09 -1.93864e-17)
  Warning, these values are based on latest Ksl and Us but prev. iteration U!

DILUPBiCG:  Solving for Ux, Initial residual = 0.253893, Final residual = 3.17202e-07, No Iterations 2
DILUPBiCG:  Solving for Uy, Initial residual = 0.288473, Final residual = 1.6591e-07, No Iterations 2
DILUPBiCG:  Solving for Uz, Initial residual = 0.253893, Final residual = 3.17202e-07, No Iterations 2
DICPCG:  Solving for p, Initial residual = 0.17521, Final residual = 0.0154345, No Iterations 6
time step continuity errors : sum local = 1.27623e-09, global = 3.47748e-10, cumulative = 8.37e-10
DICPCG:  Solving for p, Initial residual = 0.0131542, Final residual = 0.00103542, No Iterations 13
time step continuity errors : sum local = 1.00903e-10, global = 6.73248e-12, cumulative = 8.43732e-10
DICPCG:  Solving for p, Initial residual = 0.000927301, Final residual = 7.10607e-05, No Iterations 3
time step continuity errors : sum local = 7.82422e-12, global = -2.22896e-12, cumulative = 8.41503e-10
DICPCG:  Solving for p, Initial residual = 7.19519e-05, Final residual = 3.38742e-07, No Iterations 15
time step continuity errors : sum local = 3.72837e-14, global = -1.62089e-15, cumulative = 8.41502e-10
ExecutionTime = 0.08 s  ClockTime = 1 s

Time = 0.004

Courant Number mean: 1.05487e-07 max: 2.31937e-06

 Coupling...
Starting up LIGGGHTS
Executing command: 'run 100    '
run 100    
Setting up run at Mon Mar 11 00:36:04 2019

Memory usage per processor = 8.20537 Mbytes
    Step    Atoms         KinEng            rke         Volume 
     300       10  4.7164575e-06              0          0.001 
CFD Coupling established at step 400
     400       10  4.7196279e-06              0          0.001 
Loop time of 0.000683808 on 2 procs for 100 steps with 10 atoms, finish time Mon Mar 11 00:36:04 2019


Pair  time (%) = 5.23115e-05 (7.65002)
Neigh time (%) = 0 (0)
Comm  time (%) = 0.000269396 (39.3964)
Outpt time (%) = 1.3239e-05 (1.93607)
Other time (%) = 0.000348862 (51.0175)

Nlocal:    5 ave 9 max 1 min
Histogram: 1 0 0 0 0 0 0 0 0 1
Nghost:    2 ave 3 max 1 min
Histogram: 1 0 0 0 0 0 0 0 0 1
Neighs:    0 ave 0 max 0 min
Histogram: 2 0 0 0 0 0 0 0 0 0

Total # of neighbors = 0
Ave neighs/atom = 0
Neighbor list builds = 0
Dangerous builds = 0
couplingStep = 4
LIGGGHTS finished
DICPCG:  Solving for sSmoothField, Initial residual = 0.0283381, Final residual = 5.70597e-09, No Iterations 3
DICPCG:  Solving for vSmoothFieldx, Initial residual = 5.83279e-07, Final residual = 5.64353e-11, No Iterations 2
DICPCG:  Solving for vSmoothFieldy, Initial residual = 5.83279e-07, Final residual = 5.64353e-11, No Iterations 2
DICPCG:  Solving for vSmoothFieldz, Initial residual = 5.83279e-07, Final residual = 5.64353e-11, No Iterations 2

 timeStepFraction() = 1
[0] index = 0
[0] Us = (4.6345e-14 -0.0354968 4.63447e-14)
[0] Ur = (1.01984e-12 0.0354825 1.01983e-12)
[0] dprim = 0.0001
[0] dParcel = 0.0001
[0] rho = 10
[0] nuf = 1e-05
[0] voidfraction = 0.999986
[0] Rep = 0.35482
[0] Cd = 75.4844
[0] dragCoefficient = 1.05184e-07
[0] drag (total) = (1.07271e-19 3.73218e-09 1.0727e-19)
DICPCG:  Solving for vSmoothFieldx, Initial residual = 0.0283374, Final residual = 5.70584e-09, No Iterations 3
DICPCG:  Solving for vSmoothFieldy, Initial residual = 0.0283381, Final residual = 5.70597e-09, No Iterations 3
DICPCG:  Solving for vSmoothFieldz, Initial residual = 0.0283374, Final residual = 5.70584e-09, No Iterations 3

Solver level total Eulerian momentum exchange:
  TotalForceImp:  (-3.33241e-17 -3.73214e-09 -3.32452e-17)
  Warning, these values are based on latest Ksl and Us but prev. iteration U!

DILUPBiCG:  Solving for Ux, Initial residual = 0.204237, Final residual = 2.5622e-07, No Iterations 2
DILUPBiCG:  Solving for Uy, Initial residual = 0.215946, Final residual = 1.30975e-07, No Iterations 2
DILUPBiCG:  Solving for Uz, Initial residual = 0.204237, Final residual = 2.5622e-07, No Iterations 2
DICPCG:  Solving for p, Initial residual = 0.128937, Final residual = 0.0097674, No Iterations 6
time step continuity errors : sum local = 1.23267e-09, global = 3.24629e-10, cumulative = 1.16613e-09
DICPCG:  Solving for p, Initial residual = 0.00866162, Final residual = 0.00057103, No Iterations 13
time step continuity errors : sum local = 8.14598e-11, global = 4.7596e-12, cumulative = 1.17089e-09
DICPCG:  Solving for p, Initial residual = 0.000533159, Final residual = 4.51928e-05, No Iterations 3
time step continuity errors : sum local = 6.99422e-12, global = -2.31702e-12, cumulative = 1.16857e-09
DICPCG:  Solving for p, Initial residual = 4.60474e-05, Final residual = 2.75383e-07, No Iterations 15
time step continuity errors : sum local = 4.26114e-14, global = -2.09911e-15, cumulative = 1.16857e-09
ExecutionTime = 0.09 s  ClockTime = 1 s

Time = 0.005

Courant Number mean: 1.70649e-07 max: 3.55931e-06

 Coupling...
Starting up LIGGGHTS
Executing command: 'run 100    '
run 100    
Setting up run at Mon Mar 11 00:36:04 2019

Memory usage per processor = 8.96831 Mbytes
    Step    Atoms         KinEng            rke         Volume 
     400       10  4.7196279e-06              0          0.001 
CFD Coupling established at step 500
     500       10  4.7237053e-06              0          0.001 
Loop time of 0.0006851 on 2 procs for 100 steps with 10 atoms, finish time Mon Mar 11 00:36:04 2019


Pair  time (%) = 5.26375e-05 (7.68319)
Neigh time (%) = 0 (0)
Comm  time (%) = 0.000229609 (33.5146)
Outpt time (%) = 1.4081e-05 (2.05532)
Other time (%) = 0.000388773 (56.7469)

Nlocal:    5 ave 8 max 2 min
Histogram: 1 0 0 0 0 0 0 0 0 1
Nghost:    2 ave 2 max 2 min
Histogram: 2 0 0 0 0 0 0 0 0 0
Neighs:    0 ave 0 max 0 min
Histogram: 2 0 0 0 0 0 0 0 0 0

Total # of neighbors = 0
Ave neighs/atom = 0
Neighbor list builds = 0
Dangerous builds = 0
couplingStep = 5
LIGGGHTS finished
DICPCG:  Solving for sSmoothField, Initial residual = 0.0283381, Final residual = 5.70597e-09, No Iterations 3
DICPCG:  Solving for vSmoothFieldx, Initial residual = 5.83279e-07, Final residual = 5.64353e-11, No Iterations 2
DICPCG:  Solving for vSmoothFieldy, Initial residual = 5.83279e-07, Final residual = 5.64353e-11, No Iterations 2
DICPCG:  Solving for vSmoothFieldz, Initial residual = 5.83279e-07, Final residual = 5.64353e-11, No Iterations 2

 timeStepFraction() = 1
[0] index = 0
[0] Us = (1.14636e-13 -0.0428981 1.14635e-13)
[0] Ur = (2.58832e-12 0.0428762 2.58831e-12)
[0] dprim = 0.0001
[0] dParcel = 0.0001
[0] rho = 10
[0] nuf = 1e-05
[0] voidfraction = 0.999986
[0] Rep = 0.428756
[0] Cd = 63.3703
[0] dragCoefficient = 1.06703e-07
[0] drag (total) = (2.76182e-19 4.57502e-09 2.76181e-19)
DICPCG:  Solving for vSmoothFieldx, Initial residual = 0.0283378, Final residual = 5.70592e-09, No Iterations 3
DICPCG:  Solving for vSmoothFieldy, Initial residual = 0.0283381, Final residual = 5.70597e-09, No Iterations 3
DICPCG:  Solving for vSmoothFieldz, Initial residual = 0.0283378, Final residual = 5.70592e-09, No Iterations 3

Solver level total Eulerian momentum exchange:
  TotalForceImp:  (-4.26351e-17 -4.57494e-09 -4.25351e-17)
  Warning, these values are based on latest Ksl and Us but prev. iteration U!

DILUPBiCG:  Solving for Ux, Initial residual = 0.169697, Final residual = 2.13302e-07, No Iterations 2
DILUPBiCG:  Solving for Uy, Initial residual = 0.172274, Final residual = 1.09085e-07, No Iterations 2
DILUPBiCG:  Solving for Uz, Initial residual = 0.169697, Final residual = 2.13302e-07, No Iterations 2
DICPCG:  Solving for p, Initial residual = 0.100588, Final residual = 0.00713679, No Iterations 6
time step continuity errors : sum local = 1.22685e-09, global = 3.16863e-10, cumulative = 1.48543e-09
DICPCG:  Solving for p, Initial residual = 0.00649381, Final residual = 0.000387276, No Iterations 13
time step continuity errors : sum local = 7.33193e-11, global = 3.92675e-12, cumulative = 1.48936e-09
DICPCG:  Solving for p, Initial residual = 0.000368716, Final residual = 3.33229e-05, No Iterations 3
time step continuity errors : sum local = 6.70841e-12, global = -2.38854e-12, cumulative = 1.48697e-09
DICPCG:  Solving for p, Initial residual = 3.38966e-05, Final residual = 7.23857e-07, No Iterations 14
time step continuity errors : sum local = 1.45707e-13, global = -6.0667e-15, cumulative = 1.48697e-09
ExecutionTime = 0.09 s  ClockTime = 1 s

Time = 0.006

Courant Number mean: 2.50315e-07 max: 5.07081e-06

 Coupling...
Starting up LIGGGHTS
Executing command: 'run 100    '
run 100    
Setting up run at Mon Mar 11 00:36:04 2019

Memory usage per processor = 8.96831 Mbytes
    Step    Atoms         KinEng            rke         Volume 
     500       10  4.7237053e-06              0          0.001 
CFD Coupling established at step 600
     600       10  4.7286898e-06              0          0.001 
Loop time of 0.00101566 on 2 procs for 100 steps with 10 atoms, finish time Mon Mar 11 00:36:04 2019


Pair  time (%) = 7.53335e-05 (7.41716)
Neigh time (%) = 0 (0)
Comm  time (%) = 0.00032575 (32.0726)
Outpt time (%) = 3.01705e-05 (2.97052)
Other time (%) = 0.00058441 (57.5397)

Nlocal:    5 ave 8 max 2 min
Histogram: 1 0 0 0 0 0 0 0 0 1
Nghost:    2 ave 2 max 2 min
Histogram: 2 0 0 0 0 0 0 0 0 0
Neighs:    0 ave 0 max 0 min
Histogram: 2 0 0 0 0 0 0 0 0 0

Total # of neighbors = 0
Ave neighs/atom = 0
Neighbor list builds = 0
Dangerous builds = 0
couplingStep = 6
LIGGGHTS finished
DICPCG:  Solving for sSmoothField, Initial residual = 0.0283381, Final residual = 5.70597e-09, No Iterations 3
DICPCG:  Solving for vSmoothFieldx, Initial residual = 5.83279e-07, Final residual = 5.64353e-11, No Iterations 2
DICPCG:  Solving for vSmoothFieldy, Initial residual = 5.83279e-07, Final residual = 5.64353e-11, No Iterations 2
DICPCG:  Solving for vSmoothFieldz, Initial residual = 5.83279e-07, Final residual = 5.64353e-11, No Iterations 2

 timeStepFraction() = 1
[0] index = 0
[0] Us = (2.90459e-13 -0.0497629 2.90457e-13)
[0] Ur = (6.15126e-12 0.0497316 6.15124e-12)
[0] dprim = 0.0001
[0] dParcel = 0.0001
[0] rho = 10
[0] nuf = 1e-05
[0] voidfraction = 0.999986
[0] Rep = 0.497309
[0] Cd = 55.3025
[0] dragCoefficient = 1.08007e-07
[0] drag (total) = (6.6438e-19 5.37137e-09 6.64379e-19)
DICPCG:  Solving for vSmoothFieldx, Initial residual = 0.028338, Final residual = 5.70595e-09, No Iterations 3
DICPCG:  Solving for vSmoothFieldy, Initial residual = 0.0283381, Final residual = 5.70597e-09, No Iterations 3
DICPCG:  Solving for vSmoothFieldz, Initial residual = 0.028338, Final residual = 5.70595e-09, No Iterations 3

Solver level total Eulerian momentum exchange:
  TotalForceImp:  (-4.33276e-17 -5.37125e-09 -4.32082e-17)
  Warning, these values are based on latest Ksl and Us but prev. iteration U!

DILUPBiCG:  Solving for Ux, Initial residual = 0.145433, Final residual = 1.83014e-07, No Iterations 2
DILUPBiCG:  Solving for Uy, Initial residual = 0.14327, Final residual = 9.45788e-08, No Iterations 2
DILUPBiCG:  Solving for Uz, Initial residual = 0.145433, Final residual = 1.83014e-07, No Iterations 2
DICPCG:  Solving for p, Initial residual = 0.0827662, Final residual = 0.00778182, No Iterations 5
time step continuity errors : sum local = 1.70574e-09, global = 1.5833e-10, cumulative = 1.6453e-09
DICPCG:  Solving for p, Initial residual = 0.00716969, Final residual = 0.000555912, No Iterations 13
time step continuity errors : sum local = 1.32127e-10, global = 4.67298e-12, cumulative = 1.64997e-09
DICPCG:  Solving for p, Initial residual = 0.000530554, Final residual = 5.11875e-05, No Iterations 3
time step continuity errors : sum local = 1.27459e-11, global = -1.014e-12, cumulative = 1.64896e-09
DICPCG:  Solving for p, Initial residual = 5.19208e-05, Final residual = 9.85451e-07, No Iterations 14
time step continuity errors : sum local = 2.45345e-13, global = 1.23509e-15, cumulative = 1.64896e-09
ExecutionTime = 0.11 s  ClockTime = 1 s

Time = 0.007

Courant Number mean: 3.43657e-07 max: 6.83381e-06

 Coupling...
Starting up LIGGGHTS
Executing command: 'run 100    '
run 100    
Setting up run at Mon Mar 11 00:36:04 2019

Memory usage per processor = 8.96831 Mbytes
    Step    Atoms         KinEng            rke         Volume 
     600       10  4.7286898e-06              0          0.001 
CFD Coupling established at step 700
     700       10  4.7345813e-06              0          0.001 
Loop time of 0.000702682 on 2 procs for 100 steps with 10 atoms, finish time Mon Mar 11 00:36:04 2019


Pair  time (%) = 5.546e-05 (7.89262)
Neigh time (%) = 0 (0)
Comm  time (%) = 0.000247738 (35.256)
Outpt time (%) = 1.98065e-05 (2.8187)
Other time (%) = 0.000379678 (54.0327)

Nlocal:    5 ave 7 max 3 min
Histogram: 1 0 0 0 0 0 0 0 0 1
Nghost:    2 ave 3 max 1 min
Histogram: 1 0 0 0 0 0 0 0 0 1
Neighs:    0 ave 0 max 0 min
Histogram: 2 0 0 0 0 0 0 0 0 0

Total # of neighbors = 0
Ave neighs/atom = 0
Neighbor list builds = 0
Dangerous builds = 0
couplingStep = 7
LIGGGHTS finished
DICPCG:  Solving for sSmoothField, Initial residual = 0.0283381, Final residual = 5.70723e-09, No Iterations 3
DICPCG:  Solving for vSmoothFieldx, Initial residual = 5.83279e-07, Final residual = 5.64353e-11, No Iterations 2
DICPCG:  Solving for vSmoothFieldy, Initial residual = 5.83279e-07, Final residual = 5.64353e-11, No Iterations 2
DICPCG:  Solving for vSmoothFieldz, Initial residual = 5.83279e-07, Final residual = 5.64353e-11, No Iterations 2

 timeStepFraction() = 1
[0] index = 0
[0] Us = (7.13416e-13 -0.0561207 7.13414e-13)
[0] Ur = (-9.93645e-12 0.0561107 -9.93647e-12)
[0] dprim = 0.0001
[0] dParcel = 0.0001
[0] rho = 10
[0] nuf = 1e-05
[0] voidfraction = 0.999986
[0] Rep = 0.561099
[0] Cd = 49.5332
[0] dragCoefficient = 1.09148e-07
[0] drag (total) = (-1.08455e-18 6.1244e-09 -1.08455e-18)
DICPCG:  Solving for vSmoothFieldx, Initial residual = 0.028338, Final residual = 5.70721e-09, No Iterations 3
DICPCG:  Solving for vSmoothFieldy, Initial residual = 0.0283381, Final residual = 5.70723e-09, No Iterations 3
DICPCG:  Solving for vSmoothFieldz, Initial residual = 0.028338, Final residual = 5.70721e-09, No Iterations 3

Solver level total Eulerian momentum exchange:
  TotalForceImp:  (5.94861e-18 -6.12429e-09 6.08666e-18)
  Warning, these values are based on latest Ksl and Us but prev. iteration U!

DILUPBiCG:  Solving for Ux, Initial residual = 0.126893, Final residual = 1.59802e-07, No Iterations 2
DILUPBiCG:  Solving for Uy, Initial residual = 0.122417, Final residual = 8.36584e-08, No Iterations 2
DILUPBiCG:  Solving for Uz, Initial residual = 0.126893, Final residual = 1.59802e-07, No Iterations 2
DICPCG:  Solving for p, Initial residual = 0.133884, Final residual = 0.0104257, No Iterations 3
time step continuity errors : sum local = 2.78473e-09, global = 1.74991e-11, cumulative = 1.66646e-09
DICPCG:  Solving for p, Initial residual = 0.00994567, Final residual = 0.000780719, No Iterations 13
time step continuity errors : sum local = 2.23214e-10, global = -3.82055e-12, cumulative = 1.66263e-09
DICPCG:  Solving for p, Initial residual = 0.000757848, Final residual = 5.51475e-05, No Iterations 3
time step continuity errors : sum local = 1.63745e-11, global = 3.26413e-13, cumulative = 1.66296e-09
DICPCG:  Solving for p, Initial residual = 5.59808e-05, Final residual = 3.55339e-07, No Iterations 15
time step continuity errors : sum local = 1.05492e-13, global = 6.68049e-15, cumulative = 1.66297e-09
ExecutionTime = 0.11 s  ClockTime = 1 s

Time = 0.008

Courant Number mean: 4.29913e-07 max: 7.03469e-06

 Coupling...
Starting up LIGGGHTS
Executing command: 'run 100    '
run 100    
Setting up run at Mon Mar 11 00:36:04 2019

Memory usage per processor = 8.96831 Mbytes
    Step    Atoms         KinEng            rke         Volume 
     700       10  4.7345813e-06              0          0.001 
CFD Coupling established at step 800
     800       10  4.7413799e-06              0          0.001 
Loop time of 0.000967828 on 2 procs for 100 steps with 10 atoms, finish time Mon Mar 11 00:36:04 2019


Pair  time (%) = 7.10355e-05 (7.33968)
Neigh time (%) = 0 (0)
Comm  time (%) = 0.000312535 (32.2925)
Outpt time (%) = 1.8875e-05 (1.95024)
Other time (%) = 0.000565382 (58.4176)

Nlocal:    5 ave 7 max 3 min
Histogram: 1 0 0 0 0 0 0 0 0 1
Nghost:    1.5 ave 2 max 1 min
Histogram: 1 0 0 0 0 0 0 0 0 1
Neighs:    0 ave 0 max 0 min
Histogram: 2 0 0 0 0 0 0 0 0 0

Total # of neighbors = 0
Ave neighs/atom = 0
Neighbor list builds = 0
Dangerous builds = 0
couplingStep = 8
LIGGGHTS finished
DICPCG:  Solving for sSmoothField, Initial residual = 0.0283381, Final residual = 5.70723e-09, No Iterations 3
DICPCG:  Solving for vSmoothFieldx, Initial residual = 5.83279e-07, Final residual = 5.64353e-11, No Iterations 2
DICPCG:  Solving for vSmoothFieldy, Initial residual = 5.83279e-07, Final residual = 5.64353e-11, No Iterations 2
DICPCG:  Solving for vSmoothFieldz, Initial residual = 5.83279e-07, Final residual = 5.64353e-11, No Iterations 2

 timeStepFraction() = 1
[0] index = 0
[0] Us = (2.29711e-14 -0.0619991 2.29672e-14)
[0] Ur = (-1.80496e-11 0.0619759 -1.80496e-11)
[0] dprim = 0.0001
[0] dParcel = 0.0001
[0] rho = 10
[0] nuf = 1e-05
[0] voidfraction = 0.999986
[0] Rep = 0.61975
[0] Cd = 45.2557
[0] dragCoefficient = 1.10147e-07
[0] drag (total) = (-1.9881e-18 6.82643e-09 -1.9881e-18)
DICPCG:  Solving for vSmoothFieldx, Initial residual = 0.0283381, Final residual = 5.70722e-09, No Iterations 3
DICPCG:  Solving for vSmoothFieldy, Initial residual = 0.0283381, Final residual = 5.70723e-09, No Iterations 3
DICPCG:  Solving for vSmoothFieldz, Initial residual = 0.0283381, Final residual = 5.70722e-09, No Iterations 3

Solver level total Eulerian momentum exchange:
  TotalForceImp:  (2.37102e-19 -6.82628e-09 3.94027e-19)
  Warning, these values are based on latest Ksl and Us but prev. iteration U!

DILUPBiCG:  Solving for Ux, Initial residual = 0.113435, Final residual = 1.42536e-07, No Iterations 2
DILUPBiCG:  Solving for Uy, Initial residual = 0.107378, Final residual = 7.53799e-08, No Iterations 2
DILUPBiCG:  Solving for Uz, Initial residual = 0.113435, Final residual = 1.42536e-07, No Iterations 2
DICPCG:  Solving for p, Initial residual = 0.0791554, Final residual = 0.00669965, No Iterations 3
time step continuity errors : sum local = 2.11092e-09, global = 1.78266e-12, cumulative = 1.66475e-09
DICPCG:  Solving for p, Initial residual = 0.0063738, Final residual = 0.000487333, No Iterations 13
time step continuity errors : sum local = 1.62455e-10, global = -3.78358e-12, cumulative = 1.66097e-09
DICPCG:  Solving for p, Initial residual = 0.000478793, Final residual = 3.40775e-05, No Iterations 3
time step continuity errors : sum local = 1.16567e-11, global = -1.92212e-13, cumulative = 1.66077e-09
DICPCG:  Solving for p, Initial residual = 3.45014e-05, Final residual = 9.00154e-07, No Iterations 14
time step continuity errors : sum local = 3.07882e-13, global = -1.56198e-14, cumulative = 1.66076e-09
ExecutionTime = 0.12 s  ClockTime = 1 s

Time = 0.009

Courant Number mean: 5.35944e-07 max: 7.39491e-06

 Coupling...
Starting up LIGGGHTS
Executing command: 'run 100    '
run 100    
Setting up run at Mon Mar 11 00:36:04 2019

Memory usage per processor = 8.96831 Mbytes
    Step    Atoms         KinEng            rke         Volume 
     800       10  4.7413799e-06              0          0.001 
CFD Coupling established at step 900
     900       10  4.7490854e-06              0          0.001 
Loop time of 0.000675961 on 2 procs for 100 steps with 10 atoms, finish time Mon Mar 11 00:36:04 2019


Pair  time (%) = 6.0395e-05 (8.93468)
Neigh time (%) = 0 (0)
Comm  time (%) = 0.000232621 (34.4134)
Outpt time (%) = 1.3059e-05 (1.93191)
Other time (%) = 0.000369886 (54.7201)

Nlocal:    5 ave 7 max 3 min
Histogram: 1 0 0 0 0 0 0 0 0 1
Nghost:    1 ave 1 max 1 min
Histogram: 2 0 0 0 0 0 0 0 0 0
Neighs:    0 ave 0 max 0 min
Histogram: 2 0 0 0 0 0 0 0 0 0

Total # of neighbors = 0
Ave neighs/atom = 0
Neighbor list builds = 0
Dangerous builds = 0
couplingStep = 9
LIGGGHTS finished
DICPCG:  Solving for sSmoothField, Initial residual = 0.0283381, Final residual = 5.70723e-09, No Iterations 3
DICPCG:  Solving for vSmoothFieldx, Initial residual = 5.83279e-07, Final residual = 5.64353e-11, No Iterations 2
DICPCG:  Solving for vSmoothFieldy, Initial residual = 5.83279e-07, Final residual = 5.64353e-11, No Iterations 2
DICPCG:  Solving for vSmoothFieldz, Initial residual = 5.83279e-07, Final residual = 5.64353e-11, No Iterations 2

 timeStepFraction() = 1
[0] index = 0
[0] Us = (-1.24269e-12 -0.0674305 -1.2427e-12)
[0] Ur = (-3.48778e-11 0.067393 -3.48779e-11)
[0] dprim = 0.0001
[0] dParcel = 0.0001
[0] rho = 10
[0] nuf = 1e-05
[0] voidfraction = 0.999986
[0] Rep = 0.673921
[0] Cd = 41.9522
[0] dragCoefficient = 1.11031e-07
[0] drag (total) = (-3.87252e-18 7.48273e-09 -3.87253e-18)
DICPCG:  Solving for vSmoothFieldx, Initial residual = 0.0283381, Final residual = 5.70722e-09, No Iterations 3
DICPCG:  Solving for vSmoothFieldy, Initial residual = 0.0283381, Final residual = 5.70723e-09, No Iterations 3
DICPCG:  Solving for vSmoothFieldz, Initial residual = 0.0283381, Final residual = 5.70722e-09, No Iterations 3

Solver level total Eulerian momentum exchange:
  TotalForceImp:  (-1.97292e-18 -7.48251e-09 -1.79944e-18)
  Warning, these values are based on latest Ksl and Us but prev. iteration U!

DILUPBiCG:  Solving for Ux, Initial residual = 0.0986885, Final residual = 1.2437e-07, No Iterations 2
DILUPBiCG:  Solving for Uy, Initial residual = 0.094407, Final residual = 6.69236e-08, No Iterations 2
DILUPBiCG:  Solving for Uz, Initial residual = 0.0986885, Final residual = 1.2437e-07, No Iterations 2
DICPCG:  Solving for p, Initial residual = 0.0582339, Final residual = 0.004931, No Iterations 5
time step continuity errors : sum local = 1.7711e-09, global = 2.04593e-10, cumulative = 1.86535e-09
DICPCG:  Solving for p, Initial residual = 0.00469894, Final residual = 0.000452674, No Iterations 13
time step continuity errors : sum local = 1.70575e-10, global = 1.03269e-11, cumulative = 1.87568e-09
DICPCG:  Solving for p, Initial residual = 0.000439497, Final residual = 3.41203e-05, No Iterations 2
time step continuity errors : sum local = 1.33054e-11, global = -5.42715e-13, cumulative = 1.87514e-09
DICPCG:  Solving for p, Initial residual = 3.44985e-05, Final residual = 6.57198e-07, No Iterations 14
time step continuity errors : sum local = 2.56244e-13, global = 6.70938e-15, cumulative = 1.87514e-09
ExecutionTime = 0.13 s  ClockTime = 1 s

Time = 0.01

Courant Number mean: 6.57092e-07 max: 8.30746e-06

 Coupling...
Starting up LIGGGHTS
Executing command: 'run 100    '
run 100    
Setting up run at Mon Mar 11 00:36:04 2019

Memory usage per processor = 8.96831 Mbytes
    Step    Atoms         KinEng            rke         Volume 
     900       10  4.7490854e-06              0          0.001 
CFD Coupling established at step 1000
    1000       10   4.757698e-06              0          0.001 
Loop time of 0.000804143 on 2 procs for 100 steps with 10 atoms, finish time Mon Mar 11 00:36:04 2019


Pair  time (%) = 6.15465e-05 (7.65368)
Neigh time (%) = 0 (0)
Comm  time (%) = 0.0002653 (32.9916)
Outpt time (%) = 7.5903e-05 (9.43899)
Other time (%) = 0.000401394 (49.9157)

Nlocal:    5 ave 7 max 3 min
Histogram: 1 0 0 0 0 0 0 0 0 1
Nghost:    1 ave 1 max 1 min
Histogram: 2 0 0 0 0 0 0 0 0 0
Neighs:    0 ave 0 max 0 min
Histogram: 2 0 0 0 0 0 0 0 0 0

Total # of neighbors = 0
Ave neighs/atom = 0
Neighbor list builds = 0
Dangerous builds = 0
couplingStep = 10
Executing command: 'write_restart ../DEM/post/restart/liggghts.restartCFDEM'
write_restart ../DEM/post/restart/liggghts.restartCFDEM
System init for write_restart ...
LIGGGHTS finished
DICPCG:  Solving for sSmoothField, Initial residual = 0.0283381, Final residual = 5.70597e-09, No Iterations 3
DICPCG:  Solving for vSmoothFieldx, Initial residual = 5.83279e-07, Final residual = 5.64353e-11, No Iterations 2
DICPCG:  Solving for vSmoothFieldy, Initial residual = 5.83279e-07, Final residual = 5.64353e-11, No Iterations 2
DICPCG:  Solving for vSmoothFieldz, Initial residual = 5.83279e-07, Final residual = 5.64353e-11, No Iterations 2

 timeStepFraction() = 1
[0] index = 0
[0] Us = (-3.70802e-12 -0.0724442 -3.70802e-12)
[0] Ur = (8.84023e-11 0.0723941 8.84023e-11)
[0] dprim = 0.0001
[0] dParcel = 0.0001
[0] rho = 10
[0] nuf = 1e-05
[0] voidfraction = 0.999986
[0] Rep = 0.723931
[0] Cd = 39.3314
[0] dragCoefficient = 1.1182e-07
[0] drag (total) = (9.88511e-18 8.09508e-09 9.88511e-18)
DICPCG:  Solving for vSmoothFieldx, Initial residual = 0.0283381, Final residual = 5.70597e-09, No Iterations 3
DICPCG:  Solving for vSmoothFieldy, Initial residual = 0.0283381, Final residual = 5.70597e-09, No Iterations 3
DICPCG:  Solving for vSmoothFieldz, Initial residual = 0.0283381, Final residual = 5.70597e-09, No Iterations 3

Solver level total Eulerian momentum exchange:
  TotalForceImp:  (-7.9532e-17 -8.09474e-09 -7.93439e-17)
  Warning, these values are based on latest Ksl and Us but prev. iteration U!

DILUPBiCG:  Solving for Ux, Initial residual = 0.0895439, Final residual = 1.12788e-07, No Iterations 2
DILUPBiCG:  Solving for Uy, Initial residual = 0.0853108, Final residual = 6.26886e-08, No Iterations 2
DILUPBiCG:  Solving for Uz, Initial residual = 0.0895439, Final residual = 1.12788e-07, No Iterations 2
DICPCG:  Solving for p, Initial residual = 0.113027, Final residual = 0.00663174, No Iterations 3
time step continuity errors : sum local = 2.70906e-09, global = -1.70866e-11, cumulative = 1.85806e-09
DICPCG:  Solving for p, Initial residual = 0.00647559, Final residual = 0.000506729, No Iterations 13
time step continuity errors : sum local = 2.16653e-10, global = 8.59756e-12, cumulative = 1.86665e-09
DICPCG:  Solving for p, Initial residual = 0.000500188, Final residual = 3.95103e-05, No Iterations 3
time step continuity errors : sum local = 1.71952e-11, global = 4.26745e-13, cumulative = 1.86708e-09
DICPCG:  Solving for p, Initial residual = 3.99768e-05, Final residual = 3.51259e-07, No Iterations 15
time step continuity errors : sum local = 1.52852e-13, global = -9.27301e-15, cumulative = 1.86707e-09
ExecutionTime = 0.14 s  ClockTime = 1 s

Time = 0.011

Courant Number mean: 7.90011e-07 max: 1.07226e-05

 Coupling...
Starting up LIGGGHTS
Executing command: 'run 100    '
run 100    
Setting up run at Mon Mar 11 00:36:04 2019

Memory usage per processor = 10.1217 Mbytes
    Step    Atoms         KinEng            rke         Volume 
    1000       10   4.757698e-06              0          0.001 
CFD Coupling established at step 1100
    1100       10  4.7672175e-06              0          0.001 
Loop time of 0.000865372 on 2 procs for 100 steps with 10 atoms, finish time Mon Mar 11 00:36:04 2019


Pair  time (%) = 6.9109e-05 (7.98604)
Neigh time (%) = 0 (0)
Comm  time (%) = 0.00013584 (15.6973)
Outpt time (%) = 2.1534e-05 (2.48841)
Other time (%) = 0.000638889 (73.8282)

Nlocal:    5 ave 6 max 4 min
Histogram: 1 0 0 0 0 0 0 0 0 1
Nghost:    0.5 ave 1 max 0 min
Histogram: 1 0 0 0 0 0 0 0 0 1
Neighs:    0 ave 0 max 0 min
Histogram: 2 0 0 0 0 0 0 0 0 0

Total # of neighbors = 0
Ave neighs/atom = 0
Neighbor list builds = 0
Dangerous builds = 0
couplingStep = 11
Executing command: 'write_restart ../DEM/post/restart/liggghts.restartCFDEM'
write_restart ../DEM/post/restart/liggghts.restartCFDEM
System init for write_restart ...
LIGGGHTS finished
DICPCG:  Solving for sSmoothField, Initial residual = 0.0283381, Final residual = 5.70597e-09, No Iterations 3
DICPCG:  Solving for vSmoothFieldx, Initial residual = 5.83279e-07, Final residual = 5.64353e-11, No Iterations 2
DICPCG:  Solving for vSmoothFieldy, Initial residual = 5.83279e-07, Final residual = 5.64353e-11, No Iterations 2
DICPCG:  Solving for vSmoothFieldz, Initial residual = 5.83279e-07, Final residual = 5.64353e-11, No Iterations 2

 timeStepFraction() = 1
[0] index = 0
[0] Us = (2.58504e-12 -0.077068 2.58503e-12)
[0] Ur = (1.28142e-10 0.0770012 1.28142e-10)
[0] dprim = 0.0001
[0] dParcel = 0.0001
[0] rho = 10
[0] nuf = 1e-05
[0] voidfraction = 0.999986
[0] Rep = 0.770002
[0] Cd = 37.2112
[0] dragCoefficient = 1.12525e-07
[0] drag (total) = (1.44191e-17 8.66453e-09 1.44191e-17)
DICPCG:  Solving for vSmoothFieldx, Initial residual = 0.0283381, Final residual = 5.70597e-09, No Iterations 3
DICPCG:  Solving for vSmoothFieldy, Initial residual = 0.0283381, Final residual = 5.70597e-09, No Iterations 3
DICPCG:  Solving for vSmoothFieldz, Initial residual = 0.0283381, Final residual = 5.70597e-09, No Iterations 3

Solver level total Eulerian momentum exchange:
  TotalForceImp:  (-6.80849e-17 -8.66409e-09 -6.78814e-17)
  Warning, these values are based on latest Ksl and Us but prev. iteration U!

DILUPBiCG:  Solving for Ux, Initial residual = 0.0828881, Final residual = 1.04345e-07, No Iterations 2
DILUPBiCG:  Solving for Uy, Initial residual = 0.0766441, Final residual = 5.66157e-08, No Iterations 2
DILUPBiCG:  Solving for Uz, Initial residual = 0.0828881, Final residual = 1.04345e-07, No Iterations 2
DICPCG:  Solving for p, Initial residual = 0.0648593, Final residual = 0.00601682, No Iterations 2
time step continuity errors : sum local = 2.7263e-09, global = 4.37916e-12, cumulative = 1.87145e-09
DICPCG:  Solving for p, Initial residual = 0.00577737, Final residual = 0.000251049, No Iterations 14
time step continuity errors : sum local = 1.18403e-10, global = -1.0528e-12, cumulative = 1.8704e-09
DICPCG:  Solving for p, Initial residual = 0.000247861, Final residual = 2.02418e-05, No Iterations 5
time step continuity errors : sum local = 9.7467e-12, global = -2.02932e-12, cumulative = 1.86837e-09
DICPCG:  Solving for p, Initial residual = 2.01172e-05, Final residual = 5.99997e-07, No Iterations 14
time step continuity errors : sum local = 2.8889e-13, global = -2.15311e-14, cumulative = 1.86835e-09
ExecutionTime = 0.15 s  ClockTime = 1 s

Time = 0.012

Courant Number mean: 9.34412e-07 max: 1.36496e-05

 Coupling...
Starting up LIGGGHTS
Executing command: 'run 100    '
run 100    
Setting up run at Mon Mar 11 00:36:04 2019

Memory usage per processor = 10.1217 Mbytes
    Step    Atoms         KinEng            rke         Volume 
    1100       10  4.7672175e-06              0          0.001 
CFD Coupling established at step 1200
    1200       10   4.777644e-06              0          0.001 
Loop time of 0.000714766 on 2 procs for 100 steps with 10 atoms, finish time Mon Mar 11 00:36:04 2019


Pair  time (%) = 5.4764e-05 (7.66181)
Neigh time (%) = 0 (0)
Comm  time (%) = 0.000240867 (33.6987)
Outpt time (%) = 1.4811e-05 (2.07215)
Other time (%) = 0.000404324 (56.5674)

Nlocal:    5 ave 6 max 4 min
Histogram: 1 0 0 0 0 0 0 0 0 1
Nghost:    1 ave 1 max 1 min
Histogram: 2 0 0 0 0 0 0 0 0 0
Neighs:    0 ave 0 max 0 min
Histogram: 2 0 0 0 0 0 0 0 0 0

Total # of neighbors = 0
Ave neighs/atom = 0
Neighbor list builds = 0
Dangerous builds = 0
couplingStep = 12
Executing command: 'write_restart ../DEM/post/restart/liggghts.restartCFDEM'
write_restart ../DEM/post/restart/liggghts.restartCFDEM
System init for write_restart ...
LIGGGHTS finished
DICPCG:  Solving for sSmoothField, Initial residual = 0.0283381, Final residual = 5.70723e-09, No Iterations 3
DICPCG:  Solving for vSmoothFieldx, Initial residual = 5.83279e-07, Final residual = 5.64353e-11, No Iterations 2
DICPCG:  Solving for vSmoothFieldy, Initial residual = 5.83279e-07, Final residual = 5.64353e-11, No Iterations 2
DICPCG:  Solving for vSmoothFieldz, Initial residual = 5.83279e-07, Final residual = 5.64353e-11, No Iterations 2

 timeStepFraction() = 1
[0] index = 0
[0] Us = (1.17646e-11 -0.0813293 1.17645e-11)
[0] Ur = (-1.97149e-10 0.0812703 -1.97149e-10)
[0] dprim = 0.0001
[0] dParcel = 0.0001
[0] rho = 10
[0] nuf = 1e-05
[0] voidfraction = 0.999986
[0] Rep = 0.812692
[0] Cd = 35.456
[0] dragCoefficient = 1.13161e-07
[0] drag (total) = (-2.23096e-17 9.19663e-09 -2.23096e-17)
DICPCG:  Solving for vSmoothFieldx, Initial residual = 0.0283381, Final residual = 5.70723e-09, No Iterations 3
DICPCG:  Solving for vSmoothFieldy, Initial residual = 0.0283381, Final residual = 5.70723e-09, No Iterations 3
DICPCG:  Solving for vSmoothFieldz, Initial residual = 0.0283381, Final residual = 5.70723e-09, No Iterations 3

Solver level total Eulerian momentum exchange:
  TotalForceImp:  (3.11876e-17 -9.19615e-09 3.14049e-17)
  Warning, these values are based on latest Ksl and Us but prev. iteration U!

DILUPBiCG:  Solving for Ux, Initial residual = 0.0745277, Final residual = 9.40515e-08, No Iterations 2
DILUPBiCG:  Solving for Uy, Initial residual = 0.0698795, Final residual = 5.27304e-08, No Iterations 2
DILUPBiCG:  Solving for Uz, Initial residual = 0.0745277, Final residual = 9.40515e-08, No Iterations 2
DICPCG:  Solving for p, Initial residual = 0.100804, Final residual = 0.00517384, No Iterations 3
time step continuity errors : sum local = 2.58388e-09, global = 1.81642e-11, cumulative = 1.88651e-09
DICPCG:  Solving for p, Initial residual = 0.005073, Final residual = 0.000181072, No Iterations 14
time step continuity errors : sum local = 9.37388e-11, global = 2.69709e-12, cumulative = 1.88921e-09
DICPCG:  Solving for p, Initial residual = 0.000181699, Final residual = 1.71466e-05, No Iterations 3
time step continuity errors : sum local = 9.02563e-12, global = -8.13798e-13, cumulative = 1.88839e-09
DICPCG:  Solving for p, Initial residual = 1.73522e-05, Final residual = 4.16473e-07, No Iterations 14
time step continuity errors : sum local = 2.19218e-13, global = -1.7829e-15, cumulative = 1.88839e-09
ExecutionTime = 0.16 s  ClockTime = 1 s

Time = 0.013

Courant Number mean: 1.07986e-06 max: 1.39751e-05

 Coupling...
Starting up LIGGGHTS
Executing command: 'run 100    '
run 100    
Setting up run at Mon Mar 11 00:36:04 2019

Memory usage per processor = 10.1217 Mbytes
    Step    Atoms         KinEng            rke         Volume 
    1200       10   4.777644e-06              0          0.001 
CFD Coupling established at step 1300
    1300       10  4.7889776e-06              0          0.001 
Loop time of 0.000529331 on 2 procs for 100 steps with 10 atoms, finish time Mon Mar 11 00:36:04 2019


Pair  time (%) = 5.20535e-05 (9.83382)
Neigh time (%) = 0 (0)
Comm  time (%) = 7.04e-05 (13.2998)
Outpt time (%) = 1.2735e-05 (2.40586)
Other time (%) = 0.000394143 (74.4605)

Nlocal:    5 ave 7 max 3 min
Histogram: 1 0 0 0 0 0 0 0 0 1
Nghost:    1.5 ave 3 max 0 min
Histogram: 1 0 0 0 0 0 0 0 0 1
Neighs:    0 ave 0 max 0 min
Histogram: 2 0 0 0 0 0 0 0 0 0

Total # of neighbors = 0
Ave neighs/atom = 0
Neighbor list builds = 0
Dangerous builds = 0
couplingStep = 13
Executing command: 'write_restart ../DEM/post/restart/liggghts.restartCFDEM'
write_restart ../DEM/post/restart/liggghts.restartCFDEM
System init for write_restart ...
LIGGGHTS finished
DICPCG:  Solving for sSmoothField, Initial residual = 0.0283381, Final residual = 5.70723e-09, No Iterations 3
DICPCG:  Solving for vSmoothFieldx, Initial residual = 5.83279e-07, Final residual = 5.64353e-11, No Iterations 2
DICPCG:  Solving for vSmoothFieldy, Initial residual = 5.83279e-07, Final residual = 5.64353e-11, No Iterations 2
DICPCG:  Solving for vSmoothFieldz, Initial residual = 5.83279e-07, Final residual = 5.64353e-11, No Iterations 2

 timeStepFraction() = 1
[0] index = 0
[0] Us = (-2.43818e-12 -0.0852518 -2.4382e-12)
[0] Ur = (-2.67598e-10 0.085174 -2.67598e-10)
[0] dprim = 0.0001
[0] dParcel = 0.0001
[0] rho = 10
[0] nuf = 1e-05
[0] voidfraction = 0.999986
[0] Rep = 0.851728
[0] Cd = 34.0011
[0] dragCoefficient = 1.1373e-07
[0] drag (total) = (-3.0434e-17 9.68685e-09 -3.0434e-17)
DICPCG:  Solving for vSmoothFieldx, Initial residual = 0.0283381, Final residual = 5.70723e-09, No Iterations 3
DICPCG:  Solving for vSmoothFieldy, Initial residual = 0.0283381, Final residual = 5.70723e-09, No Iterations 3
DICPCG:  Solving for vSmoothFieldz, Initial residual = 0.0283381, Final residual = 5.70723e-09, No Iterations 3

Solver level total Eulerian momentum exchange:
  TotalForceImp:  (2.97121e-17 -9.68625e-09 2.99417e-17)
  Warning, these values are based on latest Ksl and Us but prev. iteration U!

DILUPBiCG:  Solving for Ux, Initial residual = 0.0693424, Final residual = 8.73624e-08, No Iterations 2
DILUPBiCG:  Solving for Uy, Initial residual = 0.0638284, Final residual = 4.86759e-08, No Iterations 2
DILUPBiCG:  Solving for Uz, Initial residual = 0.0693424, Final residual = 8.73624e-08, No Iterations 2
DICPCG:  Solving for p, Initial residual = 0.050621, Final residual = 0.00389396, No Iterations 2
time step continuity errors : sum local = 2.12427e-09, global = -3.13498e-13, cumulative = 1.88808e-09
DICPCG:  Solving for p, Initial residual = 0.00374276, Final residual = 0.000131613, No Iterations 14
time step continuity errors : sum local = 7.43605e-11, global = -4.57038e-13, cumulative = 1.88762e-09
DICPCG:  Solving for p, Initial residual = 0.000132515, Final residual = 9.77897e-06, No Iterations 5
time step continuity errors : sum local = 5.59382e-12, global = -1.40605e-12, cumulative = 1.88622e-09
DICPCG:  Solving for p, Initial residual = 9.67947e-06, Final residual = 9.31778e-07, No Iterations 13
time step continuity errors : sum local = 5.32979e-13, global = -1.87649e-14, cumulative = 1.8862e-09
ExecutionTime = 0.16 s  ClockTime = 1 s

Time = 0.014

Courant Number mean: 1.23701e-06 max: 1.55704e-05

 Coupling...
Starting up LIGGGHTS
Executing command: 'run 100    '
run 100    
Setting up run at Mon Mar 11 00:36:04 2019

Memory usage per processor = 10.1217 Mbytes
    Step    Atoms         KinEng            rke         Volume 
    1300       10  4.7889776e-06              0          0.001 
CFD Coupling established at step 1400
    1400       10  4.8012181e-06              0          0.001 
Loop time of 0.000569155 on 2 procs for 100 steps with 10 atoms, finish time Mon Mar 11 00:36:04 2019


Pair  time (%) = 5.32545e-05 (9.35677)
Neigh time (%) = 0 (0)
Comm  time (%) = 6.8832e-05 (12.0937)
Outpt time (%) = 1.57045e-05 (2.75927)
Other time (%) = 0.000431364 (75.7902)

Nlocal:    5 ave 7 max 3 min
Histogram: 1 0 0 0 0 0 0 0 0 1
Nghost:    1.5 ave 3 max 0 min
Histogram: 1 0 0 0 0 0 0 0 0 1
Neighs:    0 ave 0 max 0 min
Histogram: 2 0 0 0 0 0 0 0 0 0

Total # of neighbors = 0
Ave neighs/atom = 0
Neighbor list builds = 0
Dangerous builds = 0
couplingStep = 14
Executing command: 'write_restart ../DEM/post/restart/liggghts.restartCFDEM'
write_restart ../DEM/post/restart/liggghts.restartCFDEM
System init for write_restart ...
LIGGGHTS finished
DICPCG:  Solving for sSmoothField, Initial residual = 0.0283381, Final residual = 5.70597e-09, No Iterations 3
DICPCG:  Solving for vSmoothFieldx, Initial residual = 5.83279e-07, Final residual = 5.64353e-11, No Iterations 2
DICPCG:  Solving for vSmoothFieldy, Initial residual = 5.83279e-07, Final residual = 5.64353e-11, No Iterations 2
DICPCG:  Solving for vSmoothFieldz, Initial residual = 5.83279e-07, Final residual = 5.64353e-11, No Iterations 2

 timeStepFraction() = 1
[0] index = 0
[0] Us = (-2.1813e-11 -0.0888623 -2.18131e-11)
[0] Ur = (4.53944e-10 0.0887717 4.53944e-10)
[0] dprim = 0.0001
[0] dParcel = 0.0001
[0] rho = 10
[0] nuf = 1e-05
[0] voidfraction = 0.999986
[0] Rep = 0.887705
[0] Cd = 32.7706
[0] dragCoefficient = 1.14244e-07
[0] drag (total) = (5.18605e-17 1.01417e-08 5.18605e-17)
DICPCG:  Solving for vSmoothFieldx, Initial residual = 0.0283381, Final residual = 5.70597e-09, No Iterations 3
DICPCG:  Solving for vSmoothFieldy, Initial residual = 0.0283381, Final residual = 5.70597e-09, No Iterations 3
DICPCG:  Solving for vSmoothFieldz, Initial residual = 0.0283381, Final residual = 5.70597e-09, No Iterations 3

Solver level total Eulerian momentum exchange:
  TotalForceImp:  (-1.01171e-16 -1.01409e-08 -1.00931e-16)
  Warning, these values are based on latest Ksl and Us but prev. iteration U!

DILUPBiCG:  Solving for Ux, Initial residual = 0.0634088, Final residual = 8.00033e-08, No Iterations 2
DILUPBiCG:  Solving for Uy, Initial residual = 0.0587932, Final residual = 4.59207e-08, No Iterations 2
DILUPBiCG:  Solving for Uz, Initial residual = 0.0634088, Final residual = 8.00033e-08, No Iterations 2
DICPCG:  Solving for p, Initial residual = 0.0929678, Final residual = 0.00492148, No Iterations 3
time step continuity errors : sum local = 2.90431e-09, global = -1.26012e-11, cumulative = 1.8736e-09
DICPCG:  Solving for p, Initial residual = 0.0048483, Final residual = 0.000389229, No Iterations 13
time step continuity errors : sum local = 2.3684e-10, global = 7.15912e-12, cumulative = 1.88076e-09
DICPCG:  Solving for p, Initial residual = 0.000385742, Final residual = 3.66714e-05, No Iterations 3
time step continuity errors : sum local = 2.26151e-11, global = 3.09601e-13, cumulative = 1.88107e-09
DICPCG:  Solving for p, Initial residual = 3.72157e-05, Final residual = 3.37324e-07, No Iterations 15
time step continuity errors : sum local = 2.08014e-13, global = -3.14453e-17, cumulative = 1.88106e-09
ExecutionTime = 0.17 s  ClockTime = 1 s

Time = 0.015

Courant Number mean: 1.40093e-06 max: 1.80099e-05

 Coupling...
Starting up LIGGGHTS
Executing command: 'run 100    '
run 100    
Setting up run at Mon Mar 11 00:36:04 2019

Memory usage per processor = 10.1217 Mbytes
    Step    Atoms         KinEng            rke         Volume 
    1400       10  4.8012181e-06              0          0.001 
CFD Coupling established at step 1500
    1500       10  4.8143656e-06              0          0.001 
Loop time of 0.000794251 on 2 procs for 100 steps with 10 atoms, finish time Mon Mar 11 00:36:04 2019


Pair  time (%) = 5.97815e-05 (7.52678)
Neigh time (%) = 0 (0)
Comm  time (%) = 0.000256398 (32.2817)
Outpt time (%) = 1.7794e-05 (2.24035)
Other time (%) = 0.000460277 (57.9511)

Nlocal:    5 ave 6 max 4 min
Histogram: 1 0 0 0 0 0 0 0 0 1
Nghost:    1.5 ave 2 max 1 min
Histogram: 1 0 0 0 0 0 0 0 0 1
Neighs:    0 ave 0 max 0 min
Histogram: 2 0 0 0 0 0 0 0 0 0

Total # of neighbors = 0
Ave neighs/atom = 0
Neighbor list builds = 0
Dangerous builds = 0
couplingStep = 15
Executing command: 'write_restart ../DEM/post/restart/liggghts.restartCFDEM'
write_restart ../DEM/post/restart/liggghts.restartCFDEM
System init for write_restart ...
LIGGGHTS finished
DICPCG:  Solving for sSmoothField, Initial residual = 0.0283381, Final residual = 5.70597e-09, No Iterations 3
DICPCG:  Solving for vSmoothFieldx, Initial residual = 5.83279e-07, Final residual = 5.64353e-11, No Iterations 2
DICPCG:  Solving for vSmoothFieldy, Initial residual = 5.83279e-07, Final residual = 5.64353e-11, No Iterations 2
DICPCG:  Solving for vSmoothFieldz, Initial residual = 5.83279e-07, Final residual = 5.64353e-11, No Iterations 2

 timeStepFraction() = 1
[0] index = 0
[0] Us = (1.12024e-11 -0.0921832 1.12023e-11)
[0] Ur = (5.78118e-10 0.0920722 5.78118e-10)
[0] dprim = 0.0001
[0] dParcel = 0.0001
[0] rho = 10
[0] nuf = 1e-05
[0] voidfraction = 0.999986
[0] Rep = 0.920709
[0] Cd = 31.7241
[0] dragCoefficient = 1.14708e-07
[0] drag (total) = (6.63147e-17 1.05614e-08 6.63147e-17)
DICPCG:  Solving for vSmoothFieldx, Initial residual = 0.0283381, Final residual = 5.70597e-09, No Iterations 3
DICPCG:  Solving for vSmoothFieldy, Initial residual = 0.0283381, Final residual = 5.70597e-09, No Iterations 3
DICPCG:  Solving for vSmoothFieldz, Initial residual = 0.0283381, Final residual = 5.70597e-09, No Iterations 3

Solver level total Eulerian momentum exchange:
  TotalForceImp:  (-8.10303e-17 -1.05605e-08 -8.07788e-17)
  Warning, these values are based on latest Ksl and Us but prev. iteration U!

DILUPBiCG:  Solving for Ux, Initial residual = 0.0595209, Final residual = 7.50847e-08, No Iterations 2
DILUPBiCG:  Solving for Uy, Initial residual = 0.054279, Final residual = 4.25947e-08, No Iterations 2
DILUPBiCG:  Solving for Uz, Initial residual = 0.0595209, Final residual = 7.50847e-08, No Iterations 2
DICPCG:  Solving for p, Initial residual = 0.0471277, Final residual = 0.00327725, No Iterations 2
time step continuity errors : sum local = 2.07966e-09, global = 2.32198e-12, cumulative = 1.88339e-09
DICPCG:  Solving for p, Initial residual = 0.00317616, Final residual = 0.000156137, No Iterations 14
time step continuity errors : sum local = 1.01924e-10, global = 4.91961e-14, cumulative = 1.88344e-09
DICPCG:  Solving for p, Initial residual = 0.000155622, Final residual = 1.40696e-05, No Iterations 3
time step continuity errors : sum local = 9.28281e-12, global = -7.14663e-14, cumulative = 1.88336e-09
DICPCG:  Solving for p, Initial residual = 1.42944e-05, Final residual = 3.84817e-07, No Iterations 14
time step continuity errors : sum local = 2.5389e-13, global = 7.90992e-15, cumulative = 1.88337e-09
ExecutionTime = 0.18 s  ClockTime = 1 s

Time = 0.016

Courant Number mean: 1.57334e-06 max: 2.15367e-05

 Coupling...
Starting up LIGGGHTS
Executing command: 'run 100    '
run 100    
Setting up run at Mon Mar 11 00:36:04 2019

Memory usage per processor = 10.1217 Mbytes
    Step    Atoms         KinEng            rke         Volume 
    1500       10  4.8143656e-06              0          0.001 
CFD Coupling established at step 1600
    1600       10  4.8284201e-06              0          0.001 
Loop time of 0.000665747 on 2 procs for 100 steps with 10 atoms, finish time Mon Mar 11 00:36:04 2019


Pair  time (%) = 5.2935e-05 (7.95122)
Neigh time (%) = 0 (0)
Comm  time (%) = 0.000233922 (35.1368)
Outpt time (%) = 1.56395e-05 (2.34917)
Other time (%) = 0.00036325 (54.5628)

Nlocal:    5 ave 5 max 5 min
Histogram: 2 0 0 0 0 0 0 0 0 0
Nghost:    1.5 ave 2 max 1 min
Histogram: 1 0 0 0 0 0 0 0 0 1
Neighs:    0 ave 0 max 0 min
Histogram: 2 0 0 0 0 0 0 0 0 0

Total # of neighbors = 0
Ave neighs/atom = 0
Neighbor list builds = 0
Dangerous builds = 0
couplingStep = 16
Executing command: 'write_restart ../DEM/post/restart/liggghts.restartCFDEM'
write_restart ../DEM/post/restart/liggghts.restartCFDEM
System init for write_restart ...
LIGGGHTS finished
DICPCG:  Solving for sSmoothField, Initial residual = 0.0283381, Final residual = 5.70723e-09, No Iterations 3
DICPCG:  Solving for vSmoothFieldx, Initial residual = 5.83279e-07, Final residual = 5.64353e-11, No Iterations 2
DICPCG:  Solving for vSmoothFieldy, Initial residual = 5.83279e-07, Final residual = 5.64353e-11, No Iterations 2
DICPCG:  Solving for vSmoothFieldz, Initial residual = 5.83279e-07, Final residual = 5.64353e-11, No Iterations 2

 timeStepFraction() = 1
[0] index = 0
[0] Us = (5.34196e-11 -0.0952369 5.34196e-11)
[0] Ur = (-8.26214e-10 0.0951331 -8.26214e-10)
[0] dprim = 0.0001
[0] dParcel = 0.0001
[0] rho = 10
[0] nuf = 1e-05
[0] voidfraction = 0.999986
[0] Rep = 0.951318
[0] Cd = 30.8168
[0] dragCoefficient = 1.15131e-07
[0] drag (total) = (-9.51232e-17 1.09528e-08 -9.51232e-17)
DICPCG:  Solving for vSmoothFieldx, Initial residual = 0.0283381, Final residual = 5.70723e-09, No Iterations 3
DICPCG:  Solving for vSmoothFieldy, Initial residual = 0.0283381, Final residual = 5.70723e-09, No Iterations 3
DICPCG:  Solving for vSmoothFieldz, Initial residual = 0.0283381, Final residual = 5.70723e-09, No Iterations 3

Solver level total Eulerian momentum exchange:
  TotalForceImp:  (1.57307e-16 -1.09517e-08 1.57568e-16)
  Warning, these values are based on latest Ksl and Us but prev. iteration U!

DILUPBiCG:  Solving for Ux, Initial residual = 0.0547323, Final residual = 6.9171e-08, No Iterations 2
DILUPBiCG:  Solving for Uy, Initial residual = 0.0504642, Final residual = 4.02035e-08, No Iterations 2
DILUPBiCG:  Solving for Uz, Initial residual = 0.0547323, Final residual = 6.9171e-08, No Iterations 2
DICPCG:  Solving for p, Initial residual = 0.086126, Final residual = 0.00398952, No Iterations 3
time step continuity errors : sum local = 2.70402e-09, global = 2.21107e-11, cumulative = 1.90548e-09
DICPCG:  Solving for p, Initial residual = 0.00392909, Final residual = 0.000130857, No Iterations 14
time step continuity errors : sum local = 9.11003e-11, global = 1.72868e-12, cumulative = 1.90721e-09
DICPCG:  Solving for p, Initial residual = 0.000133837, Final residual = 1.10435e-05, No Iterations 3
time step continuity errors : sum local = 7.76619e-12, global = -5.91947e-13, cumulative = 1.90662e-09
DICPCG:  Solving for p, Initial residual = 1.12014e-05, Final residual = 2.51255e-07, No Iterations 14
time step continuity errors : sum local = 1.76689e-13, global = 2.29035e-15, cumulative = 1.90662e-09
ExecutionTime = 0.18 s  ClockTime = 1 s

Time = 0.017

Courant Number mean: 1.74741e-06 max: 2.18822e-05

 Coupling...
Starting up LIGGGHTS
Executing command: 'run 100    '
run 100    
Setting up run at Mon Mar 11 00:36:04 2019

Memory usage per processor = 10.1217 Mbytes
    Step    Atoms         KinEng            rke         Volume 
    1600       10  4.8284201e-06              0          0.001 
CFD Coupling established at step 1700
    1700       10  4.8433815e-06              0          0.001 
Loop time of 0.00106361 on 2 procs for 100 steps with 10 atoms, finish time Mon Mar 11 00:36:04 2019


Pair  time (%) = 8.9744e-05 (8.43764)
Neigh time (%) = 0 (0)
Comm  time (%) = 0.000371762 (34.9527)
Outpt time (%) = 2.3812e-05 (2.23878)
Other time (%) = 0.000578297 (54.3709)

Nlocal:    5 ave 5 max 5 min
Histogram: 2 0 0 0 0 0 0 0 0 0
Nghost:    1.5 ave 2 max 1 min
Histogram: 1 0 0 0 0 0 0 0 0 1
Neighs:    0 ave 0 max 0 min
Histogram: 2 0 0 0 0 0 0 0 0 0

Total # of neighbors = 0
Ave neighs/atom = 0
Neighbor list builds = 0
Dangerous builds = 0
couplingStep = 17
Executing command: 'write_restart ../DEM/post/restart/liggghts.restartCFDEM'
write_restart ../DEM/post/restart/liggghts.restartCFDEM
System init for write_restart ...
LIGGGHTS finished
DICPCG:  Solving for sSmoothField, Initial residual = 0.0283381, Final residual = 5.70723e-09, No Iterations 3
DICPCG:  Solving for vSmoothFieldx, Initial residual = 5.83279e-07, Final residual = 5.64353e-11, No Iterations 2
DICPCG:  Solving for vSmoothFieldy, Initial residual = 5.83279e-07, Final residual = 5.64353e-11, No Iterations 2
DICPCG:  Solving for vSmoothFieldz, Initial residual = 5.83279e-07, Final residual = 5.64353e-11, No Iterations 2

 timeStepFraction() = 1
[0] index = 0
[0] Us = (-7.13767e-12 -0.0980414 -7.1377e-12)
[0] Ur = (-1.00767e-09 0.0979158 -1.00767e-09)
[0] dprim = 0.0001
[0] dParcel = 0.0001
[0] rho = 10
[0] nuf = 1e-05
[0] voidfraction = 0.999986
[0] Rep = 0.979144
[0] Cd = 30.0397
[0] dragCoefficient = 1.15511e-07
[0] drag (total) = (-1.16397e-16 1.13104e-08 -1.16397e-16)
DICPCG:  Solving for vSmoothFieldx, Initial residual = 0.0283381, Final residual = 5.70723e-09, No Iterations 3
DICPCG:  Solving for vSmoothFieldy, Initial residual = 0.0283381, Final residual = 5.70723e-09, No Iterations 3
DICPCG:  Solving for vSmoothFieldz, Initial residual = 0.0283381, Final residual = 5.70723e-09, No Iterations 3

Solver level total Eulerian momentum exchange:
  TotalForceImp:  (2.19742e-16 -1.1309e-08 2.20011e-16)
  Warning, these values are based on latest Ksl and Us but prev. iteration U!

DILUPBiCG:  Solving for Ux, Initial residual = 0.051699, Final residual = 6.52334e-08, No Iterations 2
DILUPBiCG:  Solving for Uy, Initial residual = 0.0470279, Final residual = 3.78621e-08, No Iterations 2
DILUPBiCG:  Solving for Uz, Initial residual = 0.051699, Final residual = 6.52334e-08, No Iterations 2
DICPCG:  Solving for p, Initial residual = 0.042231, Final residual = 0.0026281, No Iterations 2
time step continuity errors : sum local = 1.89362e-09, global = -4.21264e-12, cumulative = 1.90241e-09
DICPCG:  Solving for p, Initial residual = 0.00255442, Final residual = 0.000109092, No Iterations 14
time step continuity errors : sum local = 8.05162e-11, global = -9.69163e-13, cumulative = 1.90144e-09
DICPCG:  Solving for p, Initial residual = 0.000111221, Final residual = 1.04518e-05, No Iterations 3
time step continuity errors : sum local = 7.76682e-12, global = 1.554e-13, cumulative = 1.9016e-09
DICPCG:  Solving for p, Initial residual = 1.05653e-05, Final residual = 8.61233e-07, No Iterations 13
time step continuity errors : sum local = 6.39972e-13, global = 3.07604e-14, cumulative = 1.90163e-09
ExecutionTime = 0.19 s  ClockTime = 1 s

Time = 0.018

Courant Number mean: 1.92975e-06 max: 2.40385e-05

 Coupling...
Starting up LIGGGHTS
Executing command: 'run 100    '
run 100    
Setting up run at Mon Mar 11 00:36:04 2019

Memory usage per processor = 10.1217 Mbytes
    Step    Atoms         KinEng            rke         Volume 
    1700       10  4.8433815e-06              0          0.001 
CFD Coupling established at step 1800
    1800       10  4.8592499e-06              0          0.001 
Loop time of 0.000772499 on 2 procs for 100 steps with 10 atoms, finish time Mon Mar 11 00:36:04 2019


Pair  time (%) = 5.40475e-05 (6.99644)
Neigh time (%) = 0 (0)
Comm  time (%) = 0.00024229 (31.3645)
Outpt time (%) = 1.4426e-05 (1.86744)
Other time (%) = 0.000461736 (59.7716)

Nlocal:    5 ave 5 max 5 min
Histogram: 2 0 0 0 0 0 0 0 0 0
Nghost:    1.5 ave 2 max 1 min
Histogram: 1 0 0 0 0 0 0 0 0 1
Neighs:    0 ave 0 max 0 min
Histogram: 2 0 0 0 0 0 0 0 0 0

Total # of neighbors = 0
Ave neighs/atom = 0
Neighbor list builds = 0
Dangerous builds = 0
couplingStep = 18
Executing command: 'write_restart ../DEM/post/restart/liggghts.restartCFDEM'
write_restart ../DEM/post/restart/liggghts.restartCFDEM
System init for write_restart ...
LIGGGHTS finished
DICPCG:  Solving for sSmoothField, Initial residual = 0.0283381, Final residual = 5.70723e-09, No Iterations 3
DICPCG:  Solving for vSmoothFieldx, Initial residual = 5.83279e-07, Final residual = 5.64353e-11, No Iterations 2
DICPCG:  Solving for vSmoothFieldy, Initial residual = 5.83279e-07, Final residual = 5.64353e-11, No Iterations 2
DICPCG:  Solving for vSmoothFieldz, Initial residual = 5.83279e-07, Final residual = 5.64353e-11, No Iterations 2

 timeStepFraction() = 1
[0] index = 0
[0] Us = (-8.12385e-11 -0.100618 -8.12385e-11)
[0] Ur = (-1.24125e-09 0.100471 -1.24125e-09)
[0] dprim = 0.0001
[0] dParcel = 0.0001
[0] rho = 10
[0] nuf = 1e-05
[0] voidfraction = 0.999986
[0] Rep = 1.00469
[0] Cd = 29.3631
[0] dragCoefficient = 1.15856e-07
[0] drag (total) = (-1.43806e-16 1.16401e-08 -1.43806e-16)
DICPCG:  Solving for vSmoothFieldx, Initial residual = 0.0283381, Final residual = 5.70723e-09, No Iterations 3
DICPCG:  Solving for vSmoothFieldy, Initial residual = 0.0283381, Final residual = 5.70723e-09, No Iterations 3
DICPCG:  Solving for vSmoothFieldz, Initial residual = 0.0283381, Final residual = 5.70723e-09, No Iterations 3

Solver level total Eulerian momentum exchange:
  TotalForceImp:  (4.55102e-16 -1.16383e-08 4.55382e-16)
  Warning, these values are based on latest Ksl and Us but prev. iteration U!

DILUPBiCG:  Solving for Ux, Initial residual = 0.0479053, Final residual = 6.05339e-08, No Iterations 2
DILUPBiCG:  Solving for Uy, Initial residual = 0.0439949, Final residual = 3.58856e-08, No Iterations 2
DILUPBiCG:  Solving for Uz, Initial residual = 0.0479053, Final residual = 6.05339e-08, No Iterations 2
DICPCG:  Solving for p, Initial residual = 0.0307262, Final residual = 0.00234813, No Iterations 2
time step continuity errors : sum local = 1.78454e-09, global = 3.06358e-12, cumulative = 1.90469e-09
DICPCG:  Solving for p, Initial residual = 0.00229124, Final residual = 6.57164e-05, No Iterations 14
time step continuity errors : sum local = 5.10673e-11, global = -3.41127e-13, cumulative = 1.90435e-09
DICPCG:  Solving for p, Initial residual = 6.69896e-05, Final residual = 6.13029e-06, No Iterations 5
time step continuity errors : sum local = 4.8086e-12, global = -1.63525e-12, cumulative = 1.90271e-09
DICPCG:  Solving for p, Initial residual = 6.13173e-06, Final residual = 5.4967e-07, No Iterations 13
time step continuity errors : sum local = 4.31153e-13, global = 8.46135e-16, cumulative = 1.90271e-09
ExecutionTime = 0.2 s  ClockTime = 1 s

Time = 0.019

Courant Number mean: 2.11727e-06 max: 2.78174e-05

 Coupling...
Starting up LIGGGHTS
Executing command: 'run 100    '
run 100    
Setting up run at Mon Mar 11 00:36:04 2019

Memory usage per processor = 10.1217 Mbytes
    Step    Atoms         KinEng            rke         Volume 
    1800       10  4.8592499e-06              0          0.001 
CFD Coupling established at step 1900
    1900       10  4.8760254e-06              0          0.001 
Loop time of 0.0007067 on 2 procs for 100 steps with 10 atoms, finish time Mon Mar 11 00:36:04 2019


Pair  time (%) = 5.3126e-05 (7.51747)
Neigh time (%) = 0 (0)
Comm  time (%) = 0.000241295 (34.1438)
Outpt time (%) = 1.37715e-05 (1.9487)
Other time (%) = 0.000398509 (56.39)

Nlocal:    5 ave 5 max 5 min
Histogram: 2 0 0 0 0 0 0 0 0 0
Nghost:    1.5 ave 2 max 1 min
Histogram: 1 0 0 0 0 0 0 0 0 1
Neighs:    0 ave 0 max 0 min
Histogram: 2 0 0 0 0 0 0 0 0 0

Total # of neighbors = 0
Ave neighs/atom = 0
Neighbor list builds = 0
Dangerous builds = 0
couplingStep = 19
Executing command: 'write_restart ../DEM/post/restart/liggghts.restartCFDEM'
write_restart ../DEM/post/restart/liggghts.restartCFDEM
System init for write_restart ...
LIGGGHTS finished
DICPCG:  Solving for sSmoothField, Initial residual = 0.0283381, Final residual = 5.70597e-09, No Iterations 3
DICPCG:  Solving for vSmoothFieldx, Initial residual = 5.83279e-07, Final residual = 5.64353e-11, No Iterations 2
DICPCG:  Solving for vSmoothFieldy, Initial residual = 5.83279e-07, Final residual = 5.64353e-11, No Iterations 2
DICPCG:  Solving for vSmoothFieldz, Initial residual = 5.83279e-07, Final residual = 5.64353e-11, No Iterations 2

 timeStepFraction() = 1
[0] index = 0
[0] Us = (-1.72788e-10 -0.102985 -1.72788e-10)
[0] Ur = (1.94576e-09 0.102843 1.94576e-09)
[0] dprim = 0.0001
[0] dParcel = 0.0001
[0] rho = 10
[0] nuf = 1e-05
[0] voidfraction = 0.999986
[0] Rep = 1.02842
[0] Cd = 28.7641
[0] dragCoefficient = 1.16172e-07
[0] drag (total) = (2.26043e-16 1.19475e-08 2.26043e-16)
DICPCG:  Solving for vSmoothFieldx, Initial residual = 0.0283381, Final residual = 5.70597e-09, No Iterations 3
DICPCG:  Solving for vSmoothFieldy, Initial residual = 0.0283381, Final residual = 5.70597e-09, No Iterations 3
DICPCG:  Solving for vSmoothFieldz, Initial residual = 0.0283381, Final residual = 5.70597e-09, No Iterations 3

Solver level total Eulerian momentum exchange:
  TotalForceImp:  (-8.71568e-17 -1.1945e-08 -8.68674e-17)
  Warning, these values are based on latest Ksl and Us but prev. iteration U!

DILUPBiCG:  Solving for Ux, Initial residual = 0.0450163, Final residual = 5.68987e-08, No Iterations 2
DILUPBiCG:  Solving for Uy, Initial residual = 0.0413067, Final residual = 3.41962e-08, No Iterations 2
DILUPBiCG:  Solving for Uz, Initial residual = 0.0450163, Final residual = 5.68987e-08, No Iterations 2
DICPCG:  Solving for p, Initial residual = 0.0785935, Final residual = 0.0038479, No Iterations 3
time step continuity errors : sum local = 3.08277e-09, global = -1.80148e-11, cumulative = 1.8847e-09
DICPCG:  Solving for p, Initial residual = 0.00379311, Final residual = 0.000371833, No Iterations 12
time step continuity errors : sum local = 3.04264e-10, global = -3.15115e-11, cumulative = 1.85319e-09
DICPCG:  Solving for p, Initial residual = 0.000369589, Final residual = 2.4981e-05, No Iterations 3
time step continuity errors : sum local = 2.05846e-11, global = 4.17774e-12, cumulative = 1.85737e-09
DICPCG:  Solving for p, Initial residual = 2.5454e-05, Final residual = 5.52325e-07, No Iterations 14
time step continuity errors : sum local = 4.55105e-13, global = 2.52769e-14, cumulative = 1.85739e-09
ExecutionTime = 0.21 s  ClockTime = 1 s

Time = 0.02

Courant Number mean: 2.30694e-06 max: 2.81141e-05

 Coupling...
Starting up LIGGGHTS
Executing command: 'run 100    '
run 100    
Setting up run at Mon Mar 11 00:36:04 2019

Memory usage per processor = 10.1217 Mbytes
    Step    Atoms         KinEng            rke         Volume 
    1900       10  4.8760254e-06              0          0.001 
CFD Coupling established at step 2000
    2000       10  4.8937078e-06              0          0.001 
Loop time of 0.000690282 on 2 procs for 100 steps with 10 atoms, finish time Mon Mar 11 00:36:04 2019


Pair  time (%) = 5.33685e-05 (7.7314)
Neigh time (%) = 0 (0)
Comm  time (%) = 0.000102136 (14.7963)
Outpt time (%) = 8.3802e-05 (12.1403)
Other time (%) = 0.000450975 (65.332)

Nlocal:    5 ave 6 max 4 min
Histogram: 1 0 0 0 0 0 0 0 0 1
Nghost:    1 ave 2 max 0 min
Histogram: 1 0 0 0 0 0 0 0 0 1
Neighs:    0 ave 0 max 0 min
Histogram: 2 0 0 0 0 0 0 0 0 0

Total # of neighbors = 0
Ave neighs/atom = 0
Neighbor list builds = 0
Dangerous builds = 0
couplingStep = 20
Executing command: 'write_restart ../DEM/post/restart/liggghts.restartCFDEM'
write_restart ../DEM/post/restart/liggghts.restartCFDEM
System init for write_restart ...
LIGGGHTS finished
DICPCG:  Solving for sSmoothField, Initial residual = 0.0283381, Final residual = 5.70597e-09, No Iterations 3
DICPCG:  Solving for vSmoothFieldx, Initial residual = 5.83279e-07, Final residual = 5.64353e-11, No Iterations 2
[...]

Solver level total Eulerian momentum exchange:
  TotalForceImp:  (1.05127e-11 -1.52985e-08 -3.7422e-11)
  Warning, these values are based on latest Ksl and Us but prev. iteration U!

DILUPBiCG:  Solving for Ux, Initial residual = 0.00435946, Final residual = 5.37046e-06, No Iterations 1
DILUPBiCG:  Solving for Uy, Initial residual = 0.00342413, Final residual = 4.51445e-06, No Iterations 1
DILUPBiCG:  Solving for Uz, Initial residual = 0.00363371, Final residual = 7.37675e-06, No Iterations 1
DICPCG:  Solving for p, Initial residual = 0.00925878, Final residual = 0.000403231, No Iterations 2
time step continuity errors : sum local = 1.77592e-09, global = 5.58426e-11, cumulative = 8.25803e-09
DICPCG:  Solving for p, Initial residual = 0.00040397, Final residual = 3.13649e-05, No Iterations 11
time step continuity errors : sum local = 1.37489e-10, global = -2.46796e-11, cumulative = 8.23335e-09
DICPCG:  Solving for p, Initial residual = 3.1489e-05, Final residual = 2.0637e-06, No Iterations 6
time step continuity errors : sum local = 9.03588e-12, global = -1.8468e-12, cumulative = 8.23151e-09
DICPCG:  Solving for p, Initial residual = 2.07344e-06, Final residual = 9.71568e-07, No Iterations 1
time step continuity errors : sum local = 4.25395e-12, global = -1.83199e-12, cumulative = 8.22968e-09
ExecutionTime = 1.16 s  ClockTime = 3 s

Time = 0.146

Courant Number mean: 0.000417393 max: 0.00675302

 Coupling...
Starting up LIGGGHTS
Executing command: 'run 100    '
run 100    
Setting up run at Mon Mar 11 00:36:06 2019

Memory usage per processor = 10.1222 Mbytes
    Step    Atoms         KinEng            rke         Volume 
   14500       10  4.1372969e-07  1.5228077e-07          0.001 
CFD Coupling established at step 14600
   14600       10  4.1546815e-07  1.5228077e-07          0.001 
Loop time of 0.000640402 on 2 procs for 100 steps with 10 atoms, finish time Mon Mar 11 00:36:06 2019


Pair  time (%) = 6.2233e-05 (9.7178)
Neigh time (%) = 0 (0)
Comm  time (%) = 7.4719e-05 (11.6675)
Outpt time (%) = 2.9941e-05 (4.67534)
Other time (%) = 0.000473509 (73.9393)

Nlocal:    5 ave 9 max 1 min
Histogram: 1 0 0 0 0 0 0 0 0 1
Nghost:    0.5 ave 1 max 0 min
Histogram: 1 0 0 0 0 0 0 0 0 1
Neighs:    0 ave 0 max 0 min
Histogram: 2 0 0 0 0 0 0 0 0 0

Total # of neighbors = 0
Ave neighs/atom = 0
Neighbor list builds = 0
Dangerous builds = 0
couplingStep = 146
Executing command: 'write_restart ../DEM/post/restart/liggghts.restartCFDEM'
write_restart ../DEM/post/restart/liggghts.restartCFDEM
System init for write_restart ...
LIGGGHTS finished
DICPCG:  Solving for sSmoothField, Initial residual = 0.0337951, Final residual = 1.00114e-08, No Iterations 2
DICPCG:  Solving for vSmoothFieldx, Initial residual = 6.78346e-07, Final residual = 3.0405e-10, No Iterations 1
DICPCG:  Solving for vSmoothFieldy, Initial residual = 6.78346e-07, Final residual = 3.0405e-10, No Iterations 1
DICPCG:  Solving for vSmoothFieldz, Initial residual = 6.78346e-07, Final residual = 3.0405e-10, No Iterations 1

 timeStepFraction() = 1
[0] index = 0
[0] Us = (-6.97981e-05 -0.129127 5.66925e-05)
[0] Ur = (4.496e-06 0.128269 -2.51818e-05)
[0] dprim = 0.0001
[0] dParcel = 0.0001
[0] rho = 10
[0] nuf = 1e-05
[0] voidfraction = 0.999976
[0] Rep = 1.28266
[0] Cd = 23.6998
[0] dragCoefficient = 1.19385e-07
[0] drag (total) = (5.36756e-13 1.53134e-08 -3.00633e-12)
DICPCG:  Solving for vSmoothFieldx, Initial residual = 0.0337951, Final residual = 1.00114e-08, No Iterations 2
DICPCG:  Solving for vSmoothFieldy, Initial residual = 0.0337951, Final residual = 1.00114e-08, No Iterations 2
DICPCG:  Solving for vSmoothFieldz, Initial residual = 0.0337951, Final residual = 1.00114e-08, No Iterations 2

Solver level total Eulerian momentum exchange:
  TotalForceImp:  (1.02793e-11 -1.52962e-08 -3.71271e-11)
  Warning, these values are based on latest Ksl and Us but prev. iteration U!

DILUPBiCG:  Solving for Ux, Initial residual = 0.0043311, Final residual = 5.33655e-06, No Iterations 1
DILUPBiCG:  Solving for Uy, Initial residual = 0.00340949, Final residual = 4.48129e-06, No Iterations 1
DILUPBiCG:  Solving for Uz, Initial residual = 0.00362051, Final residual = 7.31939e-06, No Iterations 1
DICPCG:  Solving for p, Initial residual = 0.00921097, Final residual = 0.000411378, No Iterations 2
time step continuity errors : sum local = 1.7938e-09, global = 4.06248e-11, cumulative = 8.2703e-09
DICPCG:  Solving for p, Initial residual = 0.000411065, Final residual = 1.97845e-05, No Iterations 11
time step continuity errors : sum local = 8.59162e-11, global = 4.4758e-12, cumulative = 8.27478e-09
DICPCG:  Solving for p, Initial residual = 1.99364e-05, Final residual = 1.28574e-06, No Iterations 6
time step continuity errors : sum local = 5.57509e-12, global = 1.72455e-12, cumulative = 8.2765e-09
DICPCG:  Solving for p, Initial residual = 1.28659e-06, Final residual = 9.8678e-07, No Iterations 1
time step continuity errors : sum local = 4.27879e-12, global = 1.54511e-12, cumulative = 8.27805e-09
ExecutionTime = 1.16 s  ClockTime = 3 s

Time = 0.147

Courant Number mean: 0.00041521 max: 0.00669454

 Coupling...
Starting up LIGGGHTS
Executing command: 'run 100    '
run 100    
Setting up run at Mon Mar 11 00:36:06 2019

Memory usage per processor = 10.1222 Mbytes
    Step    Atoms         KinEng            rke         Volume 
   14600       10  4.1546815e-07  1.5228077e-07          0.001 
CFD Coupling established at step 14700
   14700       10  4.1781128e-07  1.5228077e-07          0.001 
Loop time of 0.00106575 on 2 procs for 100 steps with 10 atoms, finish time Mon Mar 11 00:36:06 2019


Pair  time (%) = 9.0636e-05 (8.5044)
Neigh time (%) = 0 (0)
Comm  time (%) = 0.000186541 (17.5032)
Outpt time (%) = 2.39725e-05 (2.24935)
Other time (%) = 0.000764605 (71.7431)

Nlocal:    5 ave 9 max 1 min
Histogram: 1 0 0 0 0 0 0 0 0 1
Nghost:    0.5 ave 1 max 0 min
Histogram: 1 0 0 0 0 0 0 0 0 1
Neighs:    0 ave 0 max 0 min
Histogram: 2 0 0 0 0 0 0 0 0 0

Total # of neighbors = 0
Ave neighs/atom = 0
Neighbor list builds = 0
Dangerous builds = 0
couplingStep = 147
Executing command: 'write_restart ../DEM/post/restart/liggghts.restartCFDEM'
write_restart ../DEM/post/restart/liggghts.restartCFDEM
System init for write_restart ...
LIGGGHTS finished
DICPCG:  Solving for sSmoothField, Initial residual = 0.0337951, Final residual = 1.00114e-08, No Iterations 2
DICPCG:  Solving for vSmoothFieldx, Initial residual = 6.78346e-07, Final residual = 3.0405e-10, No Iterations 1
DICPCG:  Solving for vSmoothFieldy, Initial residual = 6.78346e-07, Final residual = 3.0405e-10, No Iterations 1
DICPCG:  Solving for vSmoothFieldz, Initial residual = 6.78346e-07, Final residual = 3.0405e-10, No Iterations 1

 timeStepFraction() = 1
[0] index = 0
[0] Us = (-6.94564e-05 -0.129155 5.47786e-05)
[0] Ur = (4.5051e-06 0.128254 -2.36323e-05)
[0] dprim = 0.0001
[0] dParcel = 0.0001
[0] rho = 10
[0] nuf = 1e-05
[0] voidfraction = 0.999976
[0] Rep = 1.28251
[0] Cd = 23.7021
[0] dragCoefficient = 1.19383e-07
[0] drag (total) = (5.37834e-13 1.53115e-08 -2.8213e-12)
DICPCG:  Solving for vSmoothFieldx, Initial residual = 0.0337951, Final residual = 1.00114e-08, No Iterations 2
DICPCG:  Solving for vSmoothFieldy, Initial residual = 0.0337951, Final residual = 1.00114e-08, No Iterations 2
DICPCG:  Solving for vSmoothFieldz, Initial residual = 0.0337951, Final residual = 1.00114e-08, No Iterations 2

Solver level total Eulerian momentum exchange:
  TotalForceImp:  (1.0052e-11 -1.52941e-08 -3.68245e-11)
  Warning, these values are based on latest Ksl and Us but prev. iteration U!

DILUPBiCG:  Solving for Ux, Initial residual = 0.00430591, Final residual = 5.30457e-06, No Iterations 1
DILUPBiCG:  Solving for Uy, Initial residual = 0.003394, Final residual = 4.4479e-06, No Iterations 1
DILUPBiCG:  Solving for Uz, Initial residual = 0.00360787, Final residual = 7.26287e-06, No Iterations 1
DICPCG:  Solving for p, Initial residual = 0.00878619, Final residual = 0.000415112, No Iterations 2
time step continuity errors : sum local = 1.79295e-09, global = 2.09416e-10, cumulative = 8.48746e-09
DICPCG:  Solving for p, Initial residual = 0.000416143, Final residual = 1.32054e-05, No Iterations 14
time step continuity errors : sum local = 5.68154e-11, global = 2.56693e-13, cumulative = 8.48772e-09
DICPCG:  Solving for p, Initial residual = 1.33997e-05, Final residual = 1.09495e-06, No Iterations 4
time step continuity errors : sum local = 4.70826e-12, global = 2.69138e-15, cumulative = 8.48772e-09
DICPCG:  Solving for p, Initial residual = 1.10238e-06, Final residual = 6.1489e-07, No Iterations 1
time step continuity errors : sum local = 2.64402e-12, global = 7.93782e-14, cumulative = 8.4878e-09
ExecutionTime = 1.17 s  ClockTime = 3 s

Time = 0.148

Courant Number mean: 0.000413049 max: 0.0066367

 Coupling...
Starting up LIGGGHTS
Executing command: 'run 100    '
run 100    
Setting up run at Mon Mar 11 00:36:06 2019

Memory usage per processor = 10.1222 Mbytes
    Step    Atoms         KinEng            rke         Volume 
   14700       10  4.1781128e-07  1.5228077e-07          0.001 
CFD Coupling established at step 14800
   14800       10   4.163554e-07  1.5239419e-07          0.001 
Loop time of 0.00065452 on 2 procs for 100 steps with 10 atoms, finish time Mon Mar 11 00:36:06 2019


Pair  time (%) = 6.0286e-05 (9.21071)
Neigh time (%) = 0 (0)
Comm  time (%) = 6.6052e-05 (10.0917)
Outpt time (%) = 2.0895e-05 (3.19241)
Other time (%) = 0.000507288 (77.5052)

Nlocal:    5 ave 9 max 1 min
Histogram: 1 0 0 0 0 0 0 0 0 1
Nghost:    0.5 ave 1 max 0 min
Histogram: 1 0 0 0 0 0 0 0 0 1
Neighs:    0 ave 0 max 0 min
Histogram: 2 0 0 0 0 0 0 0 0 0

Total # of neighbors = 0
Ave neighs/atom = 0
Neighbor list builds = 0
Dangerous builds = 0
couplingStep = 148
Executing command: 'write_restart ../DEM/post/restart/liggghts.restartCFDEM'
write_restart ../DEM/post/restart/liggghts.restartCFDEM
System init for write_restart ...
LIGGGHTS finished
DICPCG:  Solving for sSmoothField, Initial residual = 0.0311089, Final residual = 8.743e-09, No Iterations 2
DICPCG:  Solving for vSmoothFieldx, Initial residual = 6.56189e-07, Final residual = 2.62899e-10, No Iterations 1
DICPCG:  Solving for vSmoothFieldy, Initial residual = 6.56189e-07, Final residual = 2.62899e-10, No Iterations 1
DICPCG:  Solving for vSmoothFieldz, Initial residual = 6.56189e-07, Final residual = 2.62899e-10, No Iterations 1

 timeStepFraction() = 1
[0] index = 0
[0] Us = (-6.9114e-05 -0.129185 5.29825e-05)
[0] Ur = (3.13655e-05 0.129085 -4.67667e-05)
[0] dprim = 0.0001
[0] dParcel = 0.0001
[0] rho = 10
[0] nuf = 1e-05
[0] voidfraction = 0.999979
[0] Rep = 1.29083
[0] Cd = 23.5692
[0] dragCoefficient = 1.19483e-07
[0] drag (total) = (3.74762e-12 1.54234e-08 -5.5878e-12)
DICPCG:  Solving for vSmoothFieldx, Initial residual = 0.0311089, Final residual = 8.74299e-09, No Iterations 2
DICPCG:  Solving for vSmoothFieldy, Initial residual = 0.0311089, Final residual = 8.74299e-09, No Iterations 2
DICPCG:  Solving for vSmoothFieldz, Initial residual = 0.0311089, Final residual = 8.74299e-09, No Iterations 2

Solver level total Eulerian momentum exchange:
  TotalForceImp:  (1.41362e-13 -1.54136e-08 -1.42658e-11)
  Warning, these values are based on latest Ksl and Us but prev. iteration U!

DILUPBiCG:  Solving for Ux, Initial residual = 0.00428082, Final residual = 5.27284e-06, No Iterations 1
DILUPBiCG:  Solving for Uy, Initial residual = 0.00356336, Final residual = 4.41981e-06, No Iterations 1
DILUPBiCG:  Solving for Uz, Initial residual = 0.00359619, Final residual = 7.20794e-06, No Iterations 1
DICPCG:  Solving for p, Initial residual = 0.0644989, Final residual = 0.00486176, No Iterations 3
time step continuity errors : sum local = 2.05723e-08, global = 2.4274e-09, cumulative = 1.09152e-08
DICPCG:  Solving for p, Initial residual = 0.00500817, Final residual = 0.000325181, No Iterations 9
time step continuity errors : sum local = 1.3571e-09, global = -6.35987e-10, cumulative = 1.02792e-08
DICPCG:  Solving for p, Initial residual = 0.00032841, Final residual = 2.45247e-05, No Iterations 12
time step continuity errors : sum local = 1.02323e-10, global = -3.72842e-12, cumulative = 1.02755e-08
DICPCG:  Solving for p, Initial residual = 2.46788e-05, Final residual = 9.50388e-07, No Iterations 14
time step continuity errors : sum local = 3.94817e-12, global = 1.43396e-14, cumulative = 1.02755e-08
ExecutionTime = 1.18 s  ClockTime = 3 s

Time = 0.149

Courant Number mean: 0.000410829 max: 0.0065795

 Coupling...
Starting up LIGGGHTS
Executing command: 'run 100    '
run 100    
Setting up run at Mon Mar 11 00:36:06 2019

Memory usage per processor = 10.1222 Mbytes
    Step    Atoms         KinEng            rke         Volume 
   14800       10   4.163554e-07  1.5239419e-07          0.001 
CFD Coupling established at step 14900
   14900       10  4.1874785e-07  1.5239419e-07          0.001 
Loop time of 0.000593599 on 2 procs for 100 steps with 10 atoms, finish time Mon Mar 11 00:36:06 2019


Pair  time (%) = 5.37255e-05 (9.0508)
Neigh time (%) = 0 (0)
Comm  time (%) = 5.7174e-05 (9.63175)
Outpt time (%) = 1.36475e-05 (2.29911)
Other time (%) = 0.000469052 (79.0183)

Nlocal:    5 ave 9 max 1 min
Histogram: 1 0 0 0 0 0 0 0 0 1
Nghost:    0.5 ave 1 max 0 min
Histogram: 1 0 0 0 0 0 0 0 0 1
Neighs:    0 ave 0 max 0 min
Histogram: 2 0 0 0 0 0 0 0 0 0

Total # of neighbors = 0
Ave neighs/atom = 0
Neighbor list builds = 0
Dangerous builds = 0
couplingStep = 149
Executing command: 'write_restart ../DEM/post/restart/liggghts.restartCFDEM'
write_restart ../DEM/post/restart/liggghts.restartCFDEM
System init for write_restart ...
LIGGGHTS finished
DICPCG:  Solving for sSmoothField, Initial residual = 0.0337951, Final residual = 9.69636e-09, No Iterations 2
DICPCG:  Solving for vSmoothFieldx, Initial residual = 6.78346e-07, Final residual = 3.04053e-10, No Iterations 1
DICPCG:  Solving for vSmoothFieldy, Initial residual = 6.78346e-07, Final residual = 3.04053e-10, No Iterations 1
DICPCG:  Solving for vSmoothFieldz, Initial residual = 6.78346e-07, Final residual = 3.04053e-10, No Iterations 1

 timeStepFraction() = 1
[0] index = 0
[0] Us = (-6.67282e-05 -0.129144 4.94252e-05)
[0] Ur = (2.88894e-05 0.128988 -4.34951e-05)
[0] dprim = 0.0001
[0] dParcel = 0.0001
[0] rho = 10
[0] nuf = 1e-05
[0] voidfraction = 0.999976
[0] Rep = 1.28985
[0] Cd = 23.5847
[0] dragCoefficient = 1.19472e-07
[0] drag (total) = (3.45147e-12 1.54105e-08 -5.19643e-12)
DICPCG:  Solving for vSmoothFieldx, Initial residual = 0.0337951, Final residual = 9.69635e-09, No Iterations 2
DICPCG:  Solving for vSmoothFieldy, Initial residual = 0.0337951, Final residual = 9.69635e-09, No Iterations 2
DICPCG:  Solving for vSmoothFieldz, Initial residual = 0.0337951, Final residual = 9.69635e-09, No Iterations 2

Solver level total Eulerian momentum exchange:
  TotalForceImp:  (1.22669e-11 -1.53949e-08 -2.2008e-11)
  Warning, these values are based on latest Ksl and Us but prev. iteration U!

DILUPBiCG:  Solving for Ux, Initial residual = 0.00424536, Final residual = 5.2484e-06, No Iterations 1
DILUPBiCG:  Solving for Uy, Initial residual = 0.00350457, Final residual = 4.3748e-06, No Iterations 1
DILUPBiCG:  Solving for Uz, Initial residual = 0.00359351, Final residual = 7.16673e-06, No Iterations 1
DICPCG:  Solving for p, Initial residual = 0.0370525, Final residual = 0.00305431, No Iterations 2
time step continuity errors : sum local = 1.26937e-08, global = 6.43985e-09, cumulative = 1.67153e-08
DICPCG:  Solving for p, Initial residual = 0.00304356, Final residual = 0.000288531, No Iterations 13
time step continuity errors : sum local = 1.2002e-09, global = -5.45512e-11, cumulative = 1.66608e-08
DICPCG:  Solving for p, Initial residual = 0.000284581, Final residual = 2.50905e-05, No Iterations 3
time step continuity errors : sum local = 1.07105e-10, global = -3.9266e-11, cumulative = 1.66215e-08
DICPCG:  Solving for p, Initial residual = 2.56603e-05, Final residual = 4.53e-07, No Iterations 14
time step continuity errors : sum local = 1.93371e-12, global = 1.51527e-13, cumulative = 1.66217e-08
ExecutionTime = 1.18 s  ClockTime = 3 s

Time = 0.15

Courant Number mean: 0.000408683 max: 0.00652292

 Coupling...
Starting up LIGGGHTS
Executing command: 'run 100    '
run 100    
Setting up run at Mon Mar 11 00:36:06 2019

Memory usage per processor = 10.1222 Mbytes
    Step    Atoms         KinEng            rke         Volume 
   14900       10  4.1874785e-07  1.5239419e-07          0.001 
CFD Coupling established at step 15000
   15000       10  4.2174496e-07  1.5239419e-07          0.001 
Loop time of 0.00067464 on 2 procs for 100 steps with 10 atoms, finish time Mon Mar 11 00:36:06 2019


Pair  time (%) = 5.31515e-05 (7.8785)
Neigh time (%) = 0 (0)
Comm  time (%) = 5.9935e-05 (8.88399)
Outpt time (%) = 0.00010328 (15.3089)
Other time (%) = 0.000458274 (67.9286)

Nlocal:    5 ave 9 max 1 min
Histogram: 1 0 0 0 0 0 0 0 0 1
Nghost:    0.5 ave 1 max 0 min
Histogram: 1 0 0 0 0 0 0 0 0 1
Neighs:    0 ave 0 max 0 min
Histogram: 2 0 0 0 0 0 0 0 0 0

Total # of neighbors = 0
Ave neighs/atom = 0
Neighbor list builds = 0
Dangerous builds = 0
couplingStep = 150
Executing command: 'write_restart ../DEM/post/restart/liggghts.restartCFDEM'
write_restart ../DEM/post/restart/liggghts.restartCFDEM
System init for write_restart ...
LIGGGHTS finished
DICPCG:  Solving for sSmoothField, Initial residual = 0.0337951, Final residual = 9.69636e-09, No Iterations 2
DICPCG:  Solving for vSmoothFieldx, Initial residual = 6.78346e-07, Final residual = 3.04053e-10, No Iterations 1
DICPCG:  Solving for vSmoothFieldy, Initial residual = 6.78346e-07, Final residual = 3.04053e-10, No Iterations 1
DICPCG:  Solving for vSmoothFieldz, Initial residual = 6.78346e-07, Final residual = 3.04053e-10, No Iterations 1

 timeStepFraction() = 1
[0] index = 0
[0] Us = (-6.45309e-05 -0.12911 4.6117e-05)
[0] Ur = (2.64174e-05 0.128898 -4.04717e-05)
[0] dprim = 0.0001
[0] dParcel = 0.0001
[0] rho = 10
[0] nuf = 1e-05
[0] voidfraction = 0.999976
[0] Rep = 1.28895
[0] Cd = 23.599
[0] dragCoefficient = 1.19461e-07
[0] drag (total) = (3.15584e-12 1.53983e-08 -4.83479e-12)
DICPCG:  Solving for vSmoothFieldx, Initial residual = 0.0337951, Final residual = 9.69635e-09, No Iterations 2
DICPCG:  Solving for vSmoothFieldy, Initial residual = 0.0337951, Final residual = 9.69635e-09, No Iterations 2
DICPCG:  Solving for vSmoothFieldz, Initial residual = 0.0337951, Final residual = 9.69635e-09, No Iterations 2

Solver level total Eulerian momentum exchange:
  TotalForceImp:  (1.2378e-11 -1.53826e-08 -2.24309e-11)
  Warning, these values are based on latest Ksl and Us but prev. iteration U!

DILUPBiCG:  Solving for Ux, Initial residual = 0.00428167, Final residual = 5.2589e-06, No Iterations 1
DILUPBiCG:  Solving for Uy, Initial residual = 0.00354376, Final residual = 4.41087e-06, No Iterations 1
DILUPBiCG:  Solving for Uz, Initial residual = 0.00360111, Final residual = 7.13062e-06, No Iterations 1
DICPCG:  Solving for p, Initial residual = 0.0202928, Final residual = 0.000549209, No Iterations 2
time step continuity errors : sum local = 2.32517e-09, global = -3.30023e-10, cumulative = 1.62917e-08
DICPCG:  Solving for p, Initial residual = 0.000541953, Final residual = 2.49195e-05, No Iterations 14
time step continuity errors : sum local = 1.04642e-10, global = -6.96557e-13, cumulative = 1.6291e-08
DICPCG:  Solving for p, Initial residual = 2.52294e-05, Final residual = 1.69453e-06, No Iterations 3
time step continuity errors : sum local = 7.10525e-12, global = 1.185e-12, cumulative = 1.62921e-08
DICPCG:  Solving for p, Initial residual = 1.71326e-06, Final residual = 6.13019e-07, No Iterations 4
time step continuity errors : sum local = 2.57041e-12, global = 1.18183e-12, cumulative = 1.62933e-08
ExecutionTime = 1.2 s  ClockTime = 3 s

End

Finalising parallel run
