
//   run_parallel_cfdemSolverPiso_voidfractionTest_CFDDEM   //

/home/tsimur/CFDEM/TEST/3/voidfractionTest/CFD

/*---------------------------------------------------------------------------*\
| =========                 |                                                 |
| \\      /  F ield         | OpenFOAM: The Open Source CFD Toolbox           |
|  \\    /   O peration     | Version:  5.x                                   |
|   \\  /    A nd           | Web:      www.OpenFOAM.org                      |
|    \\/     M anipulation  |                                                 |
\*---------------------------------------------------------------------------*/
Build  : 5.x-538044ac05c4
Exec   : cfdemSolverPiso -parallel
Date   : Dec 04 2018
Time   : 21:09:34
Host   : "tsimur"
PID    : 12967
I/O    : uncollated
Case   : /home/tsimur/CFDEM/TEST/3/voidfractionTest/CFD
nProcs : 2
Slaves : 1("tsimur.12968")
Pstream initialized with:
    floatTransfer      : 0
    nProcsSimpleSum    : 0
    commsType          : nonBlocking
    polling iterations : 0
sigFpe : Enabling floating point exception trapping (FOAM_SIGFPE).
fileModificationChecking : Monitoring run-time modified files using timeStampMaster (fileModificationSkew 10)
allowSystemOperations : Allowing user-supplied system call operations

// * * * * * * * * * * * * * * * * * * * * * * * * * * * * * * * * * * * * * //
Create time

Create mesh for time = 0


PISO: Operating solver in PISO mode

Reading field p

Reading physical velocity field U
Note: only if voidfraction at boundary is 1, U is superficial velocity!!!


Reading momentum exchange field Ksl


Reading voidfraction field voidfraction = (Vgas/Vparticle)


Creating density field rho

Reading particle velocity field Us

Reading/calculating face flux field phi

Generating interstitial face flux field phiByVoidfraction

Selecting incompressible transport model Newtonian
Selecting turbulence model type laminar
Selecting laminar stress model Stokes
No finite volume options present


Reading g
Selecting locateModel engine
Selecting dataExchangeModel twoWayMPI
Starting up LIGGGHTS for first time execution
Executing input script '../DEM/in.liggghts_run'
LIGGGHTS (Version LIGGGHTS-PUBLIC 3.8.0, compiled 2018-11-28-21:57:47 by root, git commit 28301df8853491784b1d8b90533ea89b8c6af1e8)
log             ../DEM/log.liggghts
thermo_log      ../DEM/post/thermo.txt

atom_style      granular
atom_modify     map array sort 0 0
communicate     single vel yes

boundary        f f f
newton          off

units           si

region          reg block 0 0.1 0 0.1 0. 1.0 units box
create_box      1 reg
Created orthogonal box = (0 0 0) to (0.1 0.1 1)
  1 by 1 by 2 MPI processor grid

neighbor        0.003 bin
neigh_modify    delay 0 binsize 0.01


# Material properties required for granular pair styles
fix         m1 all property/global youngsModulus peratomtype 5.e6
fix         m2 all property/global poissonsRatio peratomtype 0.45
fix         m3 all property/global coefficientRestitution peratomtypepair 1 0.3
fix         m4 all property/global coefficientFriction peratomtypepair 1 0.5
#fix         m5 all property/global characteristicVelocity scalar 2.0

# pair style
pair_style  gran model hertz tangential history # hertz without cohesion
pair_coeff  * *

# timestep, gravity
timestep    0.00001
fix         gravi all gravity 0.0 vector 0.0 0.0 -1.0

# walls
fix     xwalls1 all wall/gran model hertz tangential history primitive type 1 xplane 0.0
fix     xwalls2 all wall/gran model hertz tangential history primitive type 1 xplane 0.1
fix     ywalls1 all wall/gran model hertz tangential history primitive type 1 yplane 0.0
fix     ywalls2 all wall/gran model hertz tangential history primitive type 1 yplane 0.1
fix     zwalls1 all wall/gran model hertz tangential history primitive type 1 zplane 0.0
fix     zwalls2 all wall/gran model hertz tangential history primitive type 1 zplane 0.01

# create single partciles
region      bc block 0 0.1 0 0.1 0.53 1.0 units box
fix		    pts1 all particletemplate/sphere 15485863 atom_type 1 density constant 3000 radius constant 0.0015
fix		    pdd1 all particledistribution/discrete 15485867  1 pts1 1.0
Fix particledistribution/discrete (id pdd1): distribution based on mass%:
    pts1: d=3.000000e-03 (max. bounding sphere) mass%=100.000000%
Fix particledistribution/discrete (id pdd1): distribution based on number%:
    pts1: d=3.000000e-03 (max. bounding sphere) number%=100.000000%

fix		ins all insert/pack seed 32452843 distributiontemplate pdd1 vel constant 0. 0. -0.3 insert_every once overlapcheck yes all_in yes particles_in_region 1000 region bc

create_atoms    1 single 0.00733 0.0517 0.6 units box
Created 1 atoms
set             group all diameter 0.003 density 3000
Setting atom values ...
  1 settings made for diameter
  1 settings made for density

# cfd coupling
fix     cfd all couple/cfd couple_every 100 mpi
couple_every as specified in LIGGGHTS is overriden by calling external program (../fix_cfd_coupling.cpp:114)
fix     cfd2 all couple/cfd/force

variable    vx equal vx[1]
variable    vy equal vy[1]
variable    vz equal vz[1]
variable    time equal step*dt
fix         extra all print 100 "${time} ${vx} ${vy} ${vz}" file ../DEM/post/velocity.txt title "#" screen no

# apply nve integration to all particles that are inserted as single particles
fix         integr all nve/sphere

# screen output
compute         rke all erotate/sphere
thermo_style    custom step atoms ke c_rke vol
thermo          1000
thermo_modify   lost ignore norm no
compute_modify  thermo_temp dynamic yes
WARNING: Changing thermo_temp compute object. This object is deprecated and will be removed in the future. (../compute.cpp:161)

# insert the first particles so that dump is not empty
run     10000
Setting up run at Tue Dec  4 21:09:35 2018

INFO: Resetting random generator for region bc
INFO: Particle insertion ins: inserting every 0 steps
Memory usage per processor = 4.2715 Mbytes
    Step    Atoms         KinEng            rke         Volume 
       0        1              0              0           0.01 
insertion: proc 1 at 0 %
insertion: proc 1 at 10 %
insertion: proc 1 at 20 %
insertion: proc 1 at 30 %
insertion: proc 1 at 40 %
insertion: proc 1 at 50 %
insertion: proc 1 at 60 %
insertion: proc 1 at 70 %
insertion: proc 1 at 80 %
insertion: proc 1 at 90 %
insertion: proc 1 at 100 %
INFO: Particle insertion ins: inserted 999 particle templates (mass 4.236909e-02) at step 1
 - a total of 999 particle templates (mass 4.236909e-02) inserted so far.
CFD Coupling established at step 100
CFD Coupling established at step 200
CFD Coupling established at step 300
CFD Coupling established at step 400
CFD Coupling established at step 500
CFD Coupling established at step 600
CFD Coupling established at step 700
CFD Coupling established at step 800
CFD Coupling established at step 900
CFD Coupling established at step 1000
    1000     1000    0.001906609              0           0.01 
CFD Coupling established at step 1100
CFD Coupling established at step 1200
CFD Coupling established at step 1300
CFD Coupling established at step 1400
CFD Coupling established at step 1500
CFD Coupling established at step 1600
CFD Coupling established at step 1700
CFD Coupling established at step 1800
CFD Coupling established at step 1900
CFD Coupling established at step 2000
    2000     1000    0.001906609              0           0.01 
CFD Coupling established at step 2100
CFD Coupling established at step 2200
CFD Coupling established at step 2300
CFD Coupling established at step 2400
CFD Coupling established at step 2500
CFD Coupling established at step 2600
CFD Coupling established at step 2700
CFD Coupling established at step 2800
CFD Coupling established at step 2900
CFD Coupling established at step 3000
    3000     1000    0.001906609              0           0.01 
CFD Coupling established at step 3100
CFD Coupling established at step 3200
CFD Coupling established at step 3300
CFD Coupling established at step 3400
CFD Coupling established at step 3500
CFD Coupling established at step 3600
CFD Coupling established at step 3700
CFD Coupling established at step 3800
CFD Coupling established at step 3900
CFD Coupling established at step 4000
    4000     1000    0.001906609              0           0.01 
CFD Coupling established at step 4100
CFD Coupling established at step 4200
CFD Coupling established at step 4300
CFD Coupling established at step 4400
CFD Coupling established at step 4500
CFD Coupling established at step 4600
CFD Coupling established at step 4700
CFD Coupling established at step 4800
CFD Coupling established at step 4900
CFD Coupling established at step 5000
    5000     1000    0.001906609              0           0.01 
CFD Coupling established at step 5100
CFD Coupling established at step 5200
CFD Coupling established at step 5300
CFD Coupling established at step 5400
CFD Coupling established at step 5500
CFD Coupling established at step 5600
CFD Coupling established at step 5700
CFD Coupling established at step 5800
CFD Coupling established at step 5900
CFD Coupling established at step 6000
    6000     1000    0.001906609              0           0.01 
CFD Coupling established at step 6100
CFD Coupling established at step 6200
CFD Coupling established at step 6300
CFD Coupling established at step 6400
CFD Coupling established at step 6500
CFD Coupling established at step 6600
CFD Coupling established at step 6700
CFD Coupling established at step 6800
CFD Coupling established at step 6900
CFD Coupling established at step 7000
    7000     1000    0.001906609              0           0.01 
CFD Coupling established at step 7100
CFD Coupling established at step 7200
CFD Coupling established at step 7300
CFD Coupling established at step 7400
CFD Coupling established at step 7500
CFD Coupling established at step 7600
CFD Coupling established at step 7700
CFD Coupling established at step 7800
CFD Coupling established at step 7900
CFD Coupling established at step 8000
    8000     1000    0.001906609              0           0.01 
CFD Coupling established at step 8100
CFD Coupling established at step 8200
CFD Coupling established at step 8300
CFD Coupling established at step 8400
CFD Coupling established at step 8500
CFD Coupling established at step 8600
CFD Coupling established at step 8700
CFD Coupling established at step 8800
CFD Coupling established at step 8900
CFD Coupling established at step 9000
    9000     1000    0.001906609              0           0.01 
CFD Coupling established at step 9100
CFD Coupling established at step 9200
CFD Coupling established at step 9300
CFD Coupling established at step 9400
CFD Coupling established at step 9500
CFD Coupling established at step 9600
CFD Coupling established at step 9700
CFD Coupling established at step 9800
CFD Coupling established at step 9900
CFD Coupling established at step 10000
   10000     1000    0.001906609              0           0.01 
Loop time of 0.398724 on 2 procs for 10000 steps with 1000 atoms, finish time Tue Dec  4 21:09:35 2018


Pair  time (%) = 0.042519 (10.6638)
Neigh time (%) = 0.00164285 (0.412026)
Comm  time (%) = 0.0062325 (1.56311)
Outpt time (%) = 0.00024941 (0.0625519)
Other time (%) = 0.34808 (87.2986)

Nlocal:    500 ave 1000 max 0 min
Histogram: 1 0 0 0 0 0 0 0 0 1
Nghost:    4.5 ave 9 max 0 min
Histogram: 1 0 0 0 0 0 0 0 0 1
Neighs:    47 ave 94 max 0 min
Histogram: 1 0 0 0 0 0 0 0 0 1

Total # of neighbors = 94
Ave neighs/atom = 0.094
Neighbor list builds = 20
Dangerous builds = 0
dump    dmp all custom 1000 ../DEM/post/dump.liggghts_run id type x y z ix iy iz vx vy vz fx fy fz omegax omegay omegaz radius

run     20000 upto
Setting up run at Tue Dec  4 21:09:35 2018

Memory usage per processor = 8.44639 Mbytes
    Step    Atoms         KinEng            rke         Volume 
   10000     1000    0.001906609              0           0.01 
CFD Coupling established at step 10100
CFD Coupling established at step 10200
CFD Coupling established at step 10300
CFD Coupling established at step 10400
CFD Coupling established at step 10500
CFD Coupling established at step 10600
CFD Coupling established at step 10700
CFD Coupling established at step 10800
CFD Coupling established at step 10900
CFD Coupling established at step 11000
   11000     1000    0.001906609              0           0.01 
CFD Coupling established at step 11100
CFD Coupling established at step 11200
CFD Coupling established at step 11300
CFD Coupling established at step 11400
CFD Coupling established at step 11500
CFD Coupling established at step 11600
CFD Coupling established at step 11700
CFD Coupling established at step 11800
CFD Coupling established at step 11900
CFD Coupling established at step 12000
   12000     1000    0.001906609              0           0.01 
CFD Coupling established at step 12100
CFD Coupling established at step 12200
CFD Coupling established at step 12300
CFD Coupling established at step 12400
CFD Coupling established at step 12500
CFD Coupling established at step 12600
CFD Coupling established at step 12700
CFD Coupling established at step 12800
CFD Coupling established at step 12900
CFD Coupling established at step 13000
   13000     1000    0.001906609              0           0.01 
CFD Coupling established at step 13100
CFD Coupling established at step 13200
CFD Coupling established at step 13300
CFD Coupling established at step 13400
CFD Coupling established at step 13500
CFD Coupling established at step 13600
CFD Coupling established at step 13700
CFD Coupling established at step 13800
CFD Coupling established at step 13900
CFD Coupling established at step 14000
   14000     1000    0.001906609              0           0.01 
CFD Coupling established at step 14100
CFD Coupling established at step 14200
CFD Coupling established at step 14300
CFD Coupling established at step 14400
CFD Coupling established at step 14500
CFD Coupling established at step 14600
CFD Coupling established at step 14700
CFD Coupling established at step 14800
CFD Coupling established at step 14900
CFD Coupling established at step 15000
   15000     1000    0.001906609              0           0.01 
CFD Coupling established at step 15100
CFD Coupling established at step 15200
CFD Coupling established at step 15300
CFD Coupling established at step 15400
CFD Coupling established at step 15500
CFD Coupling established at step 15600
CFD Coupling established at step 15700
CFD Coupling established at step 15800
CFD Coupling established at step 15900
CFD Coupling established at step 16000
   16000     1000    0.001906609              0           0.01 
CFD Coupling established at step 16100
CFD Coupling established at step 16200
CFD Coupling established at step 16300
CFD Coupling established at step 16400
CFD Coupling established at step 16500
CFD Coupling established at step 16600
CFD Coupling established at step 16700
CFD Coupling established at step 16800
CFD Coupling established at step 16900
CFD Coupling established at step 17000
   17000     1000    0.001906609              0           0.01 
CFD Coupling established at step 17100
CFD Coupling established at step 17200
CFD Coupling established at step 17300
CFD Coupling established at step 17400
CFD Coupling established at step 17500
CFD Coupling established at step 17600
CFD Coupling established at step 17700
CFD Coupling established at step 17800
CFD Coupling established at step 17900
CFD Coupling established at step 18000
   18000     1000    0.001906609              0           0.01 
CFD Coupling established at step 18100
CFD Coupling established at step 18200
CFD Coupling established at step 18300
CFD Coupling established at step 18400
CFD Coupling established at step 18500
CFD Coupling established at step 18600
CFD Coupling established at step 18700
CFD Coupling established at step 18800
CFD Coupling established at step 18900
CFD Coupling established at step 19000
   19000     1000    0.001906609              0           0.01 
CFD Coupling established at step 19100
CFD Coupling established at step 19200
CFD Coupling established at step 19300
CFD Coupling established at step 19400
CFD Coupling established at step 19500
CFD Coupling established at step 19600
CFD Coupling established at step 19700
CFD Coupling established at step 19800
CFD Coupling established at step 19900
CFD Coupling established at step 20000
   20000     1000    0.001906609              0           0.01 
Loop time of 0.447253 on 2 procs for 10000 steps with 1000 atoms, finish time Tue Dec  4 21:09:35 2018


Pair  time (%) = 0.0423543 (9.46987)
Neigh time (%) = 0.00148453 (0.331921)
Comm  time (%) = 0.0394343 (8.81699)
Outpt time (%) = 0.0408613 (9.13606)
Other time (%) = 0.323119 (72.2452)

Nlocal:    500 ave 935 max 65 min
Histogram: 1 0 0 0 0 0 0 0 0 1
Nghost:    11 ave 14 max 8 min
Histogram: 1 0 0 0 0 0 0 0 0 1
Neighs:    47.5 ave 85 max 10 min
Histogram: 1 0 0 0 0 0 0 0 0 1

Total # of neighbors = 95
Ave neighs/atom = 0.095
Neighbor list builds = 19
Dangerous builds = 0
Selecting IOModel basicIO
Selecting probeModel off
Selecting voidFractionModel trilinear
--> FOAM Warning : trilinearVoidFraction model is ot yet complete and does not work near boundaries
Selecting averagingModel dense
Selecting clockModel off
start clock measurement at t >0.002
Selecting smoothingModel off
Selecting meshMotionModel noMeshMotion

CFDEMcoupling version: cfdem-3.8.1
, compatible to LIGGGHTS version: 3.8.0
, compatible to OF version and build: 5.x-commit-538044ac05c4672b37c7df607dca1116fa88df88

You are currently using:
OF version: 5.x
OF build: 5.x-538044ac05c4
CFDEM build: 3.8.0-3-gb237264

cg is set to: 1
LIGGGHTS hosts 1 atom types.
If BC are important, please provide volScalarFields -imp/expParticleForces-
choice for ddt(voidfraction) = b
Selecting momCoupleModel implicitCouple

implicit momentum exchange field calculate if alphaP larger than : 1
Selecting forceModel DiFeliceDrag
 Selecting forceSubModel ImEx
 reading switches:
  looking for treatForceExplicit ...  not found in dict, using default. treatForceExplicit = false
  looking for implForceDEM ...  not found in dict, using default. implForceDEM = false
  looking for verbose ...  found in dict. verbose = false
  looking for interpolation ...  not found in dict, using default. interpolation = false
  looking for scalarViscosity ...  not found in dict, using default. scalarViscosity = false

--> FOAM Warning : Please make sure you use the new nomenclature for verbose force model settings, please have a look at the forceSubModel doc.
Selecting forceModel Archimedes
 Selecting forceSubModel ImEx
 reading switches:
  looking for verbose ...  not found in dict, using default. verbose = false

Selecting forceModel noDrag
 Selecting forceSubModel ImEx
 reading switches:
  looking for verbose ...  not found in dict, using default. verbose = false

Selecting forceModel particleCellVolume
 Selecting forceSubModel ImEx
 reading switches:
  looking for verbose ...  found in dict. verbose = true

--> FOAM Warning : Please make sure you use the new nomenclature for verbose force model settings, please have a look at the forceSubModel doc.
Selecting forceModel volWeightedAverage
Creating field volAverage_ddtVoidfraction
Selecting liggghtsCommandModel runLiggghts ,provide dicts, numbered from 0 to n
solving volume averaged Navier Stokes equations of type B


Starting time loop

--> FOAM Warning : 
    From function void Foam::timeControl::read(const Foam::dictionary&)
    in file db/functionObjects/timeControl/timeControl.C at line 89
    Reading "/home/tsimur/CFDEM/TEST/3/voidfractionTest/CFD/system/controlDict.functions.probes" from line 58 to line 73
    Using deprecated 'outputControl'
    Please use 'writeControl' with 'writeInterval'
Time = 0.001

Courant Number mean: 0 max: 0

 Coupling...
Starting up LIGGGHTS
Executing command: 'run 100    '
run 100    
Setting up run at Tue Dec  4 21:09:35 2018

Memory usage per processor = 9.36194 Mbytes
    Step    Atoms         KinEng            rke         Volume 
   20000     1000    0.001906609              0           0.01 
CFD Coupling established at step 20100
   20100     1000    0.001906609              0           0.01 
Loop time of 0.00378812 on 2 procs for 100 steps with 1000 atoms, finish time Tue Dec  4 21:09:35 2018


Pair  time (%) = 0.000426946 (11.2707)
Neigh time (%) = 0 (0)
Comm  time (%) = 0.000399608 (10.549)
Outpt time (%) = 2.0036e-05 (0.528917)
Other time (%) = 0.00294153 (77.6514)

Nlocal:    500 ave 933 max 67 min
Histogram: 1 0 0 0 0 0 0 0 0 1
Nghost:    10 ave 12 max 8 min
Histogram: 1 0 0 0 0 0 0 0 0 1
Neighs:    47.5 ave 85 max 10 min
Histogram: 1 0 0 0 0 0 0 0 0 1

Total # of neighbors = 95
Ave neighs/atom = 0.095
Neighbor list builds = 0
Dangerous builds = 0
LIGGGHTS finished

 timeStepFraction() = 1
particleCellVolume.C - setForce()
calculated integral particle volume  = 1.41372e-05,
 considering cells where the field < 1e+20, and > 0,
 the total volume of cells holding particles = 0.01,
 this results in an average volume fraction of:0.00141372,
 the min occurring voidfraction is:0.97299,
 the max occurring voidfraction is:1
volWeightedAverage.C - setForce()
calculated vol. weighted average of field: ddtVoidfraction = 0,
 integral value  = 0,
 volume accounted for  = 0,
 considering cells where the field < 1e+20, and > 0

Solver level total Eulerian momentum exchange:
  TotalForceImp:  (0 0 0)
  Warning, these values are based on latest Ksl and Us but prev. iteration U!

skipping flow solution.
ExecutionTime = 1.05 s  ClockTime = 2 s

Time = 0.002

Courant Number mean: 0 max: 0

 Coupling...
Starting up LIGGGHTS
Executing command: 'run 100    '
run 100    
Setting up run at Tue Dec  4 21:09:36 2018

Memory usage per processor = 9.36194 Mbytes
    Step    Atoms         KinEng            rke         Volume 
   20100     1000    0.001906609              0           0.01 
CFD Coupling established at step 20200
   20200     1000   0.0019053637              0           0.01 
Loop time of 0.00372956 on 2 procs for 100 steps with 1000 atoms, finish time Tue Dec  4 21:09:36 2018


Pair  time (%) = 0.000391488 (10.4969)
Neigh time (%) = 0 (0)
Comm  time (%) = 0.000357267 (9.57933)
Outpt time (%) = 1.84415e-05 (0.494469)
Other time (%) = 0.00296237 (79.4293)

Nlocal:    500 ave 933 max 67 min
Histogram: 1 0 0 0 0 0 0 0 0 1
Nghost:    10 ave 12 max 8 min
Histogram: 1 0 0 0 0 0 0 0 0 1
Neighs:    47.5 ave 85 max 10 min
Histogram: 1 0 0 0 0 0 0 0 0 1

Total # of neighbors = 95
Ave neighs/atom = 0.095
Neighbor list builds = 0
Dangerous builds = 0
LIGGGHTS finished

 timeStepFraction() = 1
particleCellVolume.C - setForce()
calculated integral particle volume  = 1.41372e-05,
 considering cells where the field < 1e+20, and > 0,
 the total volume of cells holding particles = 0.01,
 this results in an average volume fraction of:0.00141372,
 the min occurring voidfraction is:0.972648,
 the max occurring voidfraction is:1
volWeightedAverage.C - setForce()
calculated vol. weighted average of field: ddtVoidfraction = 0.159671,
 integral value  = 0.000296508,
 volume accounted for  = 0.001857,
 considering cells where the field < 1e+20, and > 0

Solver level total Eulerian momentum exchange:
  TotalForceImp:  (0 0 0)
  Warning, these values are based on latest Ksl and Us but prev. iteration U!

skipping flow solution.
ExecutionTime = 1.08 s  ClockTime = 2 s

Time = 0.003

Courant Number mean: 0 max: 0

 Coupling...
Starting up LIGGGHTS
Executing command: 'run 100    '
run 100    
Setting up run at Tue Dec  4 21:09:36 2018

Memory usage per processor = 9.36194 Mbytes
    Step    Atoms         KinEng            rke         Volume 
   20200     1000   0.0019053637              0           0.01 
CFD Coupling established at step 20300
   20300     1000   0.0019041194              0           0.01 
Loop time of 0.00378278 on 2 procs for 100 steps with 1000 atoms, finish time Tue Dec  4 21:09:36 2018


Pair  time (%) = 0.000431368 (11.4035)
Neigh time (%) = 0 (0)
Comm  time (%) = 0.000412084 (10.8937)
Outpt time (%) = 1.88285e-05 (0.497742)
Other time (%) = 0.0029205 (77.2051)

Nlocal:    500 ave 933 max 67 min
Histogram: 1 0 0 0 0 0 0 0 0 1
Nghost:    11.5 ave 15 max 8 min
Histogram: 1 0 0 0 0 0 0 0 0 1
Neighs:    47.5 ave 85 max 10 min
Histogram: 1 0 0 0 0 0 0 0 0 1

Total # of neighbors = 95
Ave neighs/atom = 0.095
Neighbor list builds = 0
Dangerous builds = 0
LIGGGHTS finished

 timeStepFraction() = 1
particleCellVolume.C - setForce()
calculated integral particle volume  = 1.41372e-05,
 considering cells where the field < 1e+20, and > 0,
 the total volume of cells holding particles = 0.01,
 this results in an average volume fraction of:0.00141372,
 the min occurring voidfraction is:0.972307,
 the max occurring voidfraction is:1
volWeightedAverage.C - setForce()
calculated vol. weighted average of field: ddtVoidfraction = 0.175974,
 integral value  = 0.000324145,
 volume accounted for  = 0.001842,
 considering cells where the field < 1e+20, and > 0

Solver level total Eulerian momentum exchange:
  TotalForceImp:  (0 0 0)
  Warning, these values are based on latest Ksl and Us but prev. iteration U!

skipping flow solution.
ExecutionTime = 1.11 s  ClockTime = 2 s

Time = 0.004

Courant Number mean: 0 max: 0

 Coupling...
Starting up LIGGGHTS
Executing command: 'run 100    '
run 100    
Setting up run at Tue Dec  4 21:09:36 2018

Memory usage per processor = 9.36194 Mbytes
    Step    Atoms         KinEng            rke         Volume 
   20300     1000   0.0019041194              0           0.01 
CFD Coupling established at step 20400
   20400     1000   0.0019028763              0           0.01 
Loop time of 0.00417618 on 2 procs for 100 steps with 1000 atoms, finish time Tue Dec  4 21:09:36 2018


Pair  time (%) = 0.000451788 (10.8182)
Neigh time (%) = 0 (0)
Comm  time (%) = 0.000439909 (10.5337)
Outpt time (%) = 2.2351e-05 (0.535201)
Other time (%) = 0.00326214 (78.1129)

Nlocal:    500 ave 931 max 69 min
Histogram: 1 0 0 0 0 0 0 0 0 1
Nghost:    12 ave 15 max 9 min
Histogram: 1 0 0 0 0 0 0 0 0 1
Neighs:    47.5 ave 85 max 10 min
Histogram: 1 0 0 0 0 0 0 0 0 1

Total # of neighbors = 95
Ave neighs/atom = 0.095
Neighbor list builds = 0
Dangerous builds = 0
LIGGGHTS finished

 timeStepFraction() = 1
particleCellVolume.C - setForce()
calculated integral particle volume  = 1.41372e-05,
 considering cells where the field < 1e+20, and > 0,
 the total volume of cells holding particles = 0.01,
 this results in an average volume fraction of:0.00141372,
 the min occurring voidfraction is:0.971966,
 the max occurring voidfraction is:1
volWeightedAverage.C - setForce()
calculated vol. weighted average of field: ddtVoidfraction = 0.181544,
 integral value  = 0.000337127,
 volume accounted for  = 0.001857,
 considering cells where the field < 1e+20, and > 0

Solver level total Eulerian momentum exchange:
  TotalForceImp:  (0 0 0)
  Warning, these values are based on latest Ksl and Us but prev. iteration U!

skipping flow solution.
ExecutionTime = 1.14 s  ClockTime = 2 s

Time = 0.005

Courant Number mean: 0 max: 0

 Coupling...
Starting up LIGGGHTS
Executing command: 'run 100    '
run 100    
Setting up run at Tue Dec  4 21:09:36 2018

Memory usage per processor = 9.36194 Mbytes
    Step    Atoms         KinEng            rke         Volume 
   20400     1000   0.0019028763              0           0.01 
CFD Coupling established at step 20500
   20500     1000   0.0019016344              0           0.01 
Loop time of 0.00383625 on 2 procs for 100 steps with 1000 atoms, finish time Tue Dec  4 21:09:36 2018


Pair  time (%) = 0.000414518 (10.8053)
Neigh time (%) = 0 (0)
Comm  time (%) = 0.000417937 (10.8944)
Outpt time (%) = 2.24395e-05 (0.584934)
Other time (%) = 0.00298135 (77.7153)

Nlocal:    500 ave 928 max 72 min
Histogram: 1 0 0 0 0 0 0 0 0 1
Nghost:    13.5 ave 15 max 12 min
Histogram: 1 0 0 0 0 0 0 0 0 1
Neighs:    47.5 ave 85 max 10 min
Histogram: 1 0 0 0 0 0 0 0 0 1

Total # of neighbors = 95
Ave neighs/atom = 0.095
Neighbor list builds = 0
Dangerous builds = 0
LIGGGHTS finished

 timeStepFraction() = 1
particleCellVolume.C - setForce()
calculated integral particle volume  = 1.41372e-05,
 considering cells where the field < 1e+20, and > 0,
 the total volume of cells holding particles = 0.01,
 this results in an average volume fraction of:0.00141372,
 the min occurring voidfraction is:0.971625,
 the max occurring voidfraction is:1
volWeightedAverage.C - setForce()
calculated vol. weighted average of field: ddtVoidfraction = 0.164975,
 integral value  = 0.000308998,
 volume accounted for  = 0.001873,
 considering cells where the field < 1e+20, and > 0

Solver level total Eulerian momentum exchange:
  TotalForceImp:  (0 0 0)
  Warning, these values are based on latest Ksl and Us but prev. iteration U!

skipping flow solution.
ExecutionTime = 1.18 s  ClockTime = 2 s

Time = 0.006

Courant Number mean: 0 max: 0

 Coupling...
Starting up LIGGGHTS
Executing command: 'run 100    '
run 100    
Setting up run at Tue Dec  4 21:09:36 2018

Memory usage per processor = 9.36194 Mbytes
    Step    Atoms         KinEng            rke         Volume 
   20500     1000   0.0019016344              0           0.01 
CFD Coupling established at step 20600
   20600     1000   0.0019003935              0           0.01 
Loop time of 0.00367233 on 2 procs for 100 steps with 1000 atoms, finish time Tue Dec  4 21:09:36 2018


Pair  time (%) = 0.000410043 (11.1658)
Neigh time (%) = 0 (0)
Comm  time (%) = 0.000357389 (9.73194)
Outpt time (%) = 1.66985e-05 (0.454712)
Other time (%) = 0.0028882 (78.6476)

Nlocal:    500 ave 927 max 73 min
Histogram: 1 0 0 0 0 0 0 0 0 1
Nghost:    13.5 ave 14 max 13 min
Histogram: 1 0 0 0 0 0 0 0 0 1
Neighs:    48 ave 86 max 10 min
Histogram: 1 0 0 0 0 0 0 0 0 1

Total # of neighbors = 96
Ave neighs/atom = 0.096
Neighbor list builds = 0
Dangerous builds = 0
LIGGGHTS finished

 timeStepFraction() = 1
particleCellVolume.C - setForce()
calculated integral particle volume  = 1.41372e-05,
 considering cells where the field < 1e+20, and > 0,
 the total volume of cells holding particles = 0.01,
 this results in an average volume fraction of:0.00141372,
 the min occurring voidfraction is:0.971284,
 the max occurring voidfraction is:1
volWeightedAverage.C - setForce()
calculated vol. weighted average of field: ddtVoidfraction = 0.165446,
 integral value  = 0.000308723,
 volume accounted for  = 0.001866,
 considering cells where the field < 1e+20, and > 0

Solver level total Eulerian momentum exchange:
  TotalForceImp:  (0 0 0)
  Warning, these values are based on latest Ksl and Us but prev. iteration U!

skipping flow solution.
ExecutionTime = 1.21 s  ClockTime = 2 s

Time = 0.007

Courant Number mean: 0 max: 0

 Coupling...
Starting up LIGGGHTS
Executing command: 'run 100    '
run 100    
Setting up run at Tue Dec  4 21:09:36 2018

Memory usage per processor = 9.36194 Mbytes
    Step    Atoms         KinEng            rke         Volume 
   20600     1000   0.0019003935              0           0.01 
CFD Coupling established at step 20700
   20700     1000   0.0018991535              0           0.01 
Loop time of 0.00390013 on 2 procs for 100 steps with 1000 atoms, finish time Tue Dec  4 21:09:36 2018


Pair  time (%) = 0.0004108 (10.533)
Neigh time (%) = 0 (0)
Comm  time (%) = 0.00046385 (11.8932)
Outpt time (%) = 1.94275e-05 (0.498125)
Other time (%) = 0.00300605 (77.0757)

Nlocal:    500 ave 926 max 74 min
Histogram: 1 0 0 0 0 0 0 0 0 1
Nghost:    13.5 ave 14 max 13 min
Histogram: 1 0 0 0 0 0 0 0 0 1
Neighs:    48 ave 86 max 10 min
Histogram: 1 0 0 0 0 0 0 0 0 1

Total # of neighbors = 96
Ave neighs/atom = 0.096
Neighbor list builds = 0
Dangerous builds = 0
LIGGGHTS finished

 timeStepFraction() = 1
particleCellVolume.C - setForce()
calculated integral particle volume  = 1.41372e-05,
 considering cells where the field < 1e+20, and > 0,
 the total volume of cells holding particles = 0.01,
 this results in an average volume fraction of:0.00141372,
 the min occurring voidfraction is:0.971207,
 the max occurring voidfraction is:1
volWeightedAverage.C - setForce()
calculated vol. weighted average of field: ddtVoidfraction = 0.174203,
 integral value  = 0.000322624,
 volume accounted for  = 0.001852,
 considering cells where the field < 1e+20, and > 0

Solver level total Eulerian momentum exchange:
  TotalForceImp:  (0 0 0)
  Warning, these values are based on latest Ksl and Us but prev. iteration U!

skipping flow solution.
ExecutionTime = 1.25 s  ClockTime = 2 s

Time = 0.008

Courant Number mean: 0 max: 0

 Coupling...
Starting up LIGGGHTS
Executing command: 'run 100    '
run 100    
Setting up run at Tue Dec  4 21:09:36 2018

Memory usage per processor = 9.36194 Mbytes
    Step    Atoms         KinEng            rke         Volume 
   20700     1000   0.0018991535              0           0.01 
CFD Coupling established at step 20800
   20800     1000   0.0018979145              0           0.01 
Loop time of 0.00425845 on 2 procs for 100 steps with 1000 atoms, finish time Tue Dec  4 21:09:36 2018


Pair  time (%) = 0.00045751 (10.7436)
Neigh time (%) = 0 (0)
Comm  time (%) = 0.000461998 (10.849)
Outpt time (%) = 4.07675e-05 (0.957331)
Other time (%) = 0.00329818 (77.4502)

Nlocal:    500 ave 924 max 76 min
Histogram: 1 0 0 0 0 0 0 0 0 1
Nghost:    12.5 ave 13 max 12 min
Histogram: 1 0 0 0 0 0 0 0 0 1
Neighs:    47.5 ave 85 max 10 min
Histogram: 1 0 0 0 0 0 0 0 0 1

Total # of neighbors = 95
Ave neighs/atom = 0.095
Neighbor list builds = 0
Dangerous builds = 0
LIGGGHTS finished

 timeStepFraction() = 1
particleCellVolume.C - setForce()
calculated integral particle volume  = 1.41372e-05,
 considering cells where the field < 1e+20, and > 0,
 the total volume of cells holding particles = 0.01,
 this results in an average volume fraction of:0.00141372,
 the min occurring voidfraction is:0.971454,
 the max occurring voidfraction is:1
volWeightedAverage.C - setForce()
calculated vol. weighted average of field: ddtVoidfraction = 0.158664,
 integral value  = 0.000294639,
 volume accounted for  = 0.001857,
 considering cells where the field < 1e+20, and > 0

Solver level total Eulerian momentum exchange:
  TotalForceImp:  (0 0 0)
  Warning, these values are based on latest Ksl and Us but prev. iteration U!

skipping flow solution.
ExecutionTime = 1.28 s  ClockTime = 2 s

Time = 0.009

Courant Number mean: 0 max: 0

 Coupling...
Starting up LIGGGHTS
Executing command: 'run 100    '
run 100    
Setting up run at Tue Dec  4 21:09:36 2018

Memory usage per processor = 9.36194 Mbytes
    Step    Atoms         KinEng            rke         Volume 
   20800     1000   0.0018979145              0           0.01 
CFD Coupling established at step 20900
   20900     1000   0.0018966768              0           0.01 
Loop time of 0.00372707 on 2 procs for 100 steps with 1000 atoms, finish time Tue Dec  4 21:09:36 2018


Pair  time (%) = 0.000405073 (10.8684)
Neigh time (%) = 0 (0)
Comm  time (%) = 0.000374038 (10.0357)
Outpt time (%) = 2.01665e-05 (0.541082)
Other time (%) = 0.00292779 (78.5548)

Nlocal:    500 ave 924 max 76 min
Histogram: 1 0 0 0 0 0 0 0 0 1
Nghost:    12.5 ave 13 max 12 min
Histogram: 1 0 0 0 0 0 0 0 0 1
Neighs:    47.5 ave 85 max 10 min
Histogram: 1 0 0 0 0 0 0 0 0 1

Total # of neighbors = 95
Ave neighs/atom = 0.095
Neighbor list builds = 0
Dangerous builds = 0
LIGGGHTS finished

 timeStepFraction() = 1
particleCellVolume.C - setForce()
calculated integral particle volume  = 1.41372e-05,
 considering cells where the field < 1e+20, and > 0,
 the total volume of cells holding particles = 0.01,
 this results in an average volume fraction of:0.00141372,
 the min occurring voidfraction is:0.971701,
 the max occurring voidfraction is:1
volWeightedAverage.C - setForce()
calculated vol. weighted average of field: ddtVoidfraction = 0.15979,
 integral value  = 0.000296411,
 volume accounted for  = 0.001855,
 considering cells where the field < 1e+20, and > 0

Solver level total Eulerian momentum exchange:
  TotalForceImp:  (0 0 0)
  Warning, these values are based on latest Ksl and Us but prev. iteration U!

skipping flow solution.
ExecutionTime = 1.31 s  ClockTime = 2 s

Time = 0.01

Courant Number mean: 0 max: 0

 Coupling...
Starting up LIGGGHTS
Executing command: 'run 100    '
run 100    
Setting up run at Tue Dec  4 21:09:36 2018

Memory usage per processor = 9.36194 Mbytes
    Step    Atoms         KinEng            rke         Volume 
   20900     1000   0.0018966768              0           0.01 
CFD Coupling established at step 21000
   21000     1000   0.0018954401              0           0.01 
Loop time of 0.00807949 on 2 procs for 100 steps with 1000 atoms, finish time Tue Dec  4 21:09:36 2018


Pair  time (%) = 0.000417453 (5.16682)
Neigh time (%) = 0 (0)
Comm  time (%) = 0.00040308 (4.98893)
Outpt time (%) = 0.00435273 (53.8738)
Other time (%) = 0.00290623 (35.9704)

Nlocal:    500 ave 924 max 76 min
Histogram: 1 0 0 0 0 0 0 0 0 1
Nghost:    12.5 ave 13 max 12 min
Histogram: 1 0 0 0 0 0 0 0 0 1
Neighs:    47.5 ave 85 max 10 min
Histogram: 1 0 0 0 0 0 0 0 0 1

Total # of neighbors = 95
Ave neighs/atom = 0.095
Neighbor list builds = 0
Dangerous builds = 0
LIGGGHTS finished

 timeStepFraction() = 1
particleCellVolume.C - setForce()
calculated integral particle volume  = 1.41372e-05,
 considering cells where the field < 1e+20, and > 0,
 the total volume of cells holding particles = 0.01,
 this results in an average volume fraction of:0.00141372,
 the min occurring voidfraction is:0.971948,
 the max occurring voidfraction is:1
volWeightedAverage.C - setForce()
calculated vol. weighted average of field: ddtVoidfraction = 0.1595,
 integral value  = 0.000294597,
 volume accounted for  = 0.001847,
 considering cells where the field < 1e+20, and > 0

Solver level total Eulerian momentum exchange:
  TotalForceImp:  (0 0 0)
  Warning, these values are based on latest Ksl and Us but prev. iteration U!

skipping flow solution.
ExecutionTime = 1.35 s  ClockTime = 2 s

Time = 0.011

Courant Number mean: 0 max: 0

 Coupling...
Starting up LIGGGHTS
Executing command: 'run 100    '
run 100    
Setting up run at Tue Dec  4 21:09:36 2018

Memory usage per processor = 9.38733 Mbytes
    Step    Atoms         KinEng            rke         Volume 
   21000     1000   0.0018954401              0           0.01 
CFD Coupling established at step 21100
   21100     1000   0.0018942047              0           0.01 
Loop time of 0.00382369 on 2 procs for 100 steps with 1000 atoms, finish time Tue Dec  4 21:09:36 2018


Pair  time (%) = 0.000406721 (10.6369)
Neigh time (%) = 0 (0)
Comm  time (%) = 0.000392455 (10.2638)
Outpt time (%) = 1.88e-05 (0.491671)
Other time (%) = 0.00300572 (78.6077)

Nlocal:    500 ave 924 max 76 min
Histogram: 1 0 0 0 0 0 0 0 0 1
Nghost:    13.5 ave 14 max 13 min
Histogram: 1 0 0 0 0 0 0 0 0 1
Neighs:    47.5 ave 85 max 10 min
Histogram: 1 0 0 0 0 0 0 0 0 1

Total # of neighbors = 95
Ave neighs/atom = 0.095
Neighbor list builds = 0
Dangerous builds = 0
LIGGGHTS finished

 timeStepFraction() = 1
particleCellVolume.C - setForce()
calculated integral particle volume  = 1.41372e-05,
 considering cells where the field < 1e+20, and > 0,
 the total volume of cells holding particles = 0.01,
 this results in an average volume fraction of:0.00141372,
 the min occurring voidfraction is:0.97232,
 the max occurring voidfraction is:1
volWeightedAverage.C - setForce()
calculated vol. weighted average of field: ddtVoidfraction = 0.159563,
 integral value  = 0.000295192,
 volume accounted for  = 0.00185,
 considering cells where the field < 1e+20, and > 0

Solver level total Eulerian momentum exchange:
  TotalForceImp:  (0 0 0)
  Warning, these values are based on latest Ksl and Us but prev. iteration U!

skipping flow solution.
ExecutionTime = 1.39 s  ClockTime = 2 s

Time = 0.012

Courant Number mean: 0 max: 0

 Coupling...
Starting up LIGGGHTS
Executing command: 'run 100    '
run 100    
Setting up run at Tue Dec  4 21:09:36 2018

Memory usage per processor = 9.38733 Mbytes
    Step    Atoms         KinEng            rke         Volume 
   21100     1000   0.0018942047              0           0.01 
CFD Coupling established at step 21200
   21200     1000   0.0018929702              0           0.01 
Loop time of 0.00367899 on 2 procs for 100 steps with 1000 atoms, finish time Tue Dec  4 21:09:36 2018


Pair  time (%) = 0.000385553 (10.4799)
Neigh time (%) = 0 (0)
Comm  time (%) = 0.000410327 (11.1532)
Outpt time (%) = 1.8138e-05 (0.493015)
Other time (%) = 0.00286498 (77.8739)

Nlocal:    500 ave 924 max 76 min
Histogram: 1 0 0 0 0 0 0 0 0 1
Nghost:    13.5 ave 14 max 13 min
Histogram: 1 0 0 0 0 0 0 0 0 1
Neighs:    47.5 ave 85 max 10 min
Histogram: 1 0 0 0 0 0 0 0 0 1

Total # of neighbors = 95
Ave neighs/atom = 0.095
Neighbor list builds = 0
Dangerous builds = 0
LIGGGHTS finished

 timeStepFraction() = 1
particleCellVolume.C - setForce()
calculated integral particle volume  = 1.41372e-05,
 considering cells where the field < 1e+20, and > 0,
 the total volume of cells holding particles = 0.01,
 this results in an average volume fraction of:0.00141372,
 the min occurring voidfraction is:0.973207,
 the max occurring voidfraction is:1
volWeightedAverage.C - setForce()
calculated vol. weighted average of field: ddtVoidfraction = 0.160077,
 integral value  = 0.000297422,
 volume accounted for  = 0.001858,
 considering cells where the field < 1e+20, and > 0

Solver level total Eulerian momentum exchange:
  TotalForceImp:  (0 0 0)
  Warning, these values are based on latest Ksl and Us but prev. iteration U!

skipping flow solution.
ExecutionTime = 1.42 s  ClockTime = 2 s

Time = 0.013

Courant Number mean: 0 max: 0

 Coupling...
Starting up LIGGGHTS
Executing command: 'run 100    '
run 100    
Setting up run at Tue Dec  4 21:09:36 2018

Memory usage per processor = 9.38733 Mbytes
    Step    Atoms         KinEng            rke         Volume 
   21200     1000   0.0018929702              0           0.01 
CFD Coupling established at step 21300
   21300     1000   0.0018917366              0           0.01 
Loop time of 0.00364536 on 2 procs for 100 steps with 1000 atoms, finish time Tue Dec  4 21:09:36 2018


Pair  time (%) = 0.000389156 (10.6754)
Neigh time (%) = 0 (0)
Comm  time (%) = 0.000362241 (9.93704)
Outpt time (%) = 2.048e-05 (0.56181)
Other time (%) = 0.00287348 (78.8258)

Nlocal:    500 ave 924 max 76 min
Histogram: 1 0 0 0 0 0 0 0 0 1
Nghost:    13 ave 14 max 12 min
Histogram: 1 0 0 0 0 0 0 0 0 1
Neighs:    47.5 ave 85 max 10 min
Histogram: 1 0 0 0 0 0 0 0 0 1

Total # of neighbors = 95
Ave neighs/atom = 0.095
Neighbor list builds = 0
Dangerous builds = 0
LIGGGHTS finished

 timeStepFraction() = 1
particleCellVolume.C - setForce()
calculated integral particle volume  = 1.41372e-05,
 considering cells where the field < 1e+20, and > 0,
 the total volume of cells holding particles = 0.01,
 this results in an average volume fraction of:0.00141372,
 the min occurring voidfraction is:0.973928,
 the max occurring voidfraction is:1
volWeightedAverage.C - setForce()
calculated vol. weighted average of field: ddtVoidfraction = 0.160838,
 integral value  = 0.00029739,
 volume accounted for  = 0.001849,
 considering cells where the field < 1e+20, and > 0

Solver level total Eulerian momentum exchange:
  TotalForceImp:  (0 0 0)
  Warning, these values are based on latest Ksl and Us but prev. iteration U!

skipping flow solution.
ExecutionTime = 1.46 s  ClockTime = 2 s

Time = 0.014

Courant Number mean: 0 max: 0

 Coupling...
Starting up LIGGGHTS
Executing command: 'run 100    '
run 100    
Setting up run at Tue Dec  4 21:09:36 2018

Memory usage per processor = 9.38733 Mbytes
    Step    Atoms         KinEng            rke         Volume 
   21300     1000   0.0018917366              0           0.01 
CFD Coupling established at step 21400
   21400     1000   0.0018905041              0           0.01 
Loop time of 0.0038076 on 2 procs for 100 steps with 1000 atoms, finish time Tue Dec  4 21:09:36 2018


Pair  time (%) = 0.000414559 (10.8876)
Neigh time (%) = 0 (0)
Comm  time (%) = 0.000412658 (10.8377)
Outpt time (%) = 1.906e-05 (0.500577)
Other time (%) = 0.00296133 (77.774)

Nlocal:    500 ave 924 max 76 min
Histogram: 1 0 0 0 0 0 0 0 0 1
Nghost:    13 ave 14 max 12 min
Histogram: 1 0 0 0 0 0 0 0 0 1
Neighs:    47.5 ave 85 max 10 min
Histogram: 1 0 0 0 0 0 0 0 0 1

Total # of neighbors = 95
Ave neighs/atom = 0.095
Neighbor list builds = 0
Dangerous builds = 0
LIGGGHTS finished

 timeStepFraction() = 1
particleCellVolume.C - setForce()
calculated integral particle volume  = 1.41372e-05,
 considering cells where the field < 1e+20, and > 0,
 the total volume of cells holding particles = 0.01,
 this results in an average volume fraction of:0.00141372,
 the min occurring voidfraction is:0.974114,
 the max occurring voidfraction is:1
volWeightedAverage.C - setForce()
calculated vol. weighted average of field: ddtVoidfraction = 0.173856,
 integral value  = 0.000321807,
 volume accounted for  = 0.001851,
 considering cells where the field < 1e+20, and > 0

Solver level total Eulerian momentum exchange:
  TotalForceImp:  (0 0 0)
  Warning, these values are based on latest Ksl and Us but prev. iteration U!

skipping flow solution.
ExecutionTime = 1.5 s  ClockTime = 2 s

Time = 0.015

Courant Number mean: 0 max: 0

 Coupling...
Starting up LIGGGHTS
Executing command: 'run 100    '
run 100    
Setting up run at Tue Dec  4 21:09:36 2018

Memory usage per processor = 9.38733 Mbytes
    Step    Atoms         KinEng            rke         Volume 
   21400     1000   0.0018905041              0           0.01 
CFD Coupling established at step 21500
   21500     1000   0.0018892726              0           0.01 
Loop time of 0.00383852 on 2 procs for 100 steps with 1000 atoms, finish time Tue Dec  4 21:09:36 2018


Pair  time (%) = 0.000428664 (11.1674)
Neigh time (%) = 0 (0)
Comm  time (%) = 0.000391055 (10.1876)
Outpt time (%) = 2.1733e-05 (0.566182)
Other time (%) = 0.00299707 (78.0788)

Nlocal:    500 ave 922 max 78 min
Histogram: 1 0 0 0 0 0 0 0 0 1
Nghost:    13 ave 14 max 12 min
Histogram: 1 0 0 0 0 0 0 0 0 1
Neighs:    48 ave 85 max 11 min
Histogram: 1 0 0 0 0 0 0 0 0 1

Total # of neighbors = 96
Ave neighs/atom = 0.096
Neighbor list builds = 0
Dangerous builds = 0
LIGGGHTS finished

 timeStepFraction() = 1
particleCellVolume.C - setForce()
calculated integral particle volume  = 1.41372e-05,
 considering cells where the field < 1e+20, and > 0,
 the total volume of cells holding particles = 0.01,
 this results in an average volume fraction of:0.00141372,
 the min occurring voidfraction is:0.9743,
 the max occurring voidfraction is:1
volWeightedAverage.C - setForce()
calculated vol. weighted average of field: ddtVoidfraction = 0.167512,
 integral value  = 0.000310232,
 volume accounted for  = 0.001852,
 considering cells where the field < 1e+20, and > 0

Solver level total Eulerian momentum exchange:
  TotalForceImp:  (0 0 0)
  Warning, these values are based on latest Ksl and Us but prev. iteration U!

skipping flow solution.
ExecutionTime = 1.53 s  ClockTime = 2 s

Time = 0.016

Courant Number mean: 0 max: 0

 Coupling...
Starting up LIGGGHTS
Executing command: 'run 100    '
run 100    
Setting up run at Tue Dec  4 21:09:36 2018

Memory usage per processor = 9.38733 Mbytes
    Step    Atoms         KinEng            rke         Volume 
   21500     1000   0.0018892726              0           0.01 
CFD Coupling established at step 21600
   21600     1000   0.0018880424              0           0.01 
Loop time of 0.00634123 on 2 procs for 100 steps with 1000 atoms, finish time Tue Dec  4 21:09:36 2018


Pair  time (%) = 0.000402116 (6.34129)
Neigh time (%) = 0 (0)
Comm  time (%) = 0.00172618 (27.2215)
Outpt time (%) = 2.55375e-05 (0.402721)
Other time (%) = 0.0041874 (66.0345)

Nlocal:    500 ave 921 max 79 min
Histogram: 1 0 0 0 0 0 0 0 0 1
Nghost:    12.5 ave 14 max 11 min
Histogram: 1 0 0 0 0 0 0 0 0 1
Neighs:    48.5 ave 85 max 12 min
Histogram: 1 0 0 0 0 0 0 0 0 1

Total # of neighbors = 97
Ave neighs/atom = 0.097
Neighbor list builds = 0
Dangerous builds = 0
LIGGGHTS finished

 timeStepFraction() = 1
particleCellVolume.C - setForce()
calculated integral particle volume  = 1.41372e-05,
 considering cells where the field < 1e+20, and > 0,
 the total volume of cells holding particles = 0.01,
 this results in an average volume fraction of:0.00141372,
 the min occurring voidfraction is:0.974486,
 the max occurring voidfraction is:1
volWeightedAverage.C - setForce()
calculated vol. weighted average of field: ddtVoidfraction = 0.159289,
 integral value  = 0.000295482,
 volume accounted for  = 0.001855,
 considering cells where the field < 1e+20, and > 0

Solver level total Eulerian momentum exchange:
  TotalForceImp:  (0 0 0)
  Warning, these values are based on latest Ksl and Us but prev. iteration U!

skipping flow solution.
ExecutionTime = 1.56 s  ClockTime = 2 s

Time = 0.017

Courant Number mean: 0 max: 0

 Coupling...
Starting up LIGGGHTS
Executing command: 'run 100    '
run 100    
Setting up run at Tue Dec  4 21:09:36 2018

Memory usage per processor = 9.38733 Mbytes
    Step    Atoms         KinEng            rke         Volume 
   21600     1000   0.0018880424              0           0.01 
CFD Coupling established at step 21700
   21700     1000   0.0018868135              0           0.01 
Loop time of 0.00370382 on 2 procs for 100 steps with 1000 atoms, finish time Tue Dec  4 21:09:36 2018


Pair  time (%) = 0.000399814 (10.7946)
Neigh time (%) = 0 (0)
Comm  time (%) = 0.000387219 (10.4546)
Outpt time (%) = 2.5151e-05 (0.679055)
Other time (%) = 0.00289164 (78.0717)

Nlocal:    500 ave 921 max 79 min
Histogram: 1 0 0 0 0 0 0 0 0 1
Nghost:    12.5 ave 14 max 11 min
Histogram: 1 0 0 0 0 0 0 0 0 1
Neighs:    48.5 ave 85 max 12 min
Histogram: 1 0 0 0 0 0 0 0 0 1

Total # of neighbors = 97
Ave neighs/atom = 0.097
Neighbor list builds = 0
Dangerous builds = 0
LIGGGHTS finished

 timeStepFraction() = 1
particleCellVolume.C - setForce()
calculated integral particle volume  = 1.41372e-05,
 considering cells where the field < 1e+20, and > 0,
 the total volume of cells holding particles = 0.01,
 this results in an average volume fraction of:0.00141372,
 the min occurring voidfraction is:0.974671,
 the max occurring voidfraction is:1
volWeightedAverage.C - setForce()
calculated vol. weighted average of field: ddtVoidfraction = 0.157386,
 integral value  = 0.000293839,
 volume accounted for  = 0.001867,
 considering cells where the field < 1e+20, and > 0

Solver level total Eulerian momentum exchange:
  TotalForceImp:  (0 0 0)
  Warning, these values are based on latest Ksl and Us but prev. iteration U!

skipping flow solution.
ExecutionTime = 1.6 s  ClockTime = 2 s

Time = 0.018

Courant Number mean: 0 max: 0

 Coupling...
Starting up LIGGGHTS
Executing command: 'run 100    '
run 100    
Setting up run at Tue Dec  4 21:09:36 2018

Memory usage per processor = 9.38733 Mbytes
    Step    Atoms         KinEng            rke         Volume 
   21700     1000   0.0018868135              0           0.01 
CFD Coupling established at step 21800
   21800     1000   0.0018855856              0           0.01 
Loop time of 0.00372825 on 2 procs for 100 steps with 1000 atoms, finish time Tue Dec  4 21:09:36 2018


Pair  time (%) = 0.000403628 (10.8262)
Neigh time (%) = 0 (0)
Comm  time (%) = 0.000425973 (11.4255)
Outpt time (%) = 2.2171e-05 (0.594676)
Other time (%) = 0.00287648 (77.1536)

Nlocal:    500 ave 921 max 79 min
Histogram: 1 0 0 0 0 0 0 0 0 1
Nghost:    12.5 ave 14 max 11 min
Histogram: 1 0 0 0 0 0 0 0 0 1
Neighs:    48 ave 84 max 12 min
Histogram: 1 0 0 0 0 0 0 0 0 1

Total # of neighbors = 96
Ave neighs/atom = 0.096
Neighbor list builds = 0
Dangerous builds = 0
LIGGGHTS finished

 timeStepFraction() = 1
particleCellVolume.C - setForce()
calculated integral particle volume  = 1.41372e-05,
 considering cells where the field < 1e+20, and > 0,
 the total volume of cells holding particles = 0.01,
 this results in an average volume fraction of:0.00141372,
 the min occurring voidfraction is:0.974734,
 the max occurring voidfraction is:1
volWeightedAverage.C - setForce()
calculated vol. weighted average of field: ddtVoidfraction = 0.157722,
 integral value  = 0.000292732,
 volume accounted for  = 0.001856,
 considering cells where the field < 1e+20, and > 0

Solver level total Eulerian momentum exchange:
  TotalForceImp:  (0 0 0)
  Warning, these values are based on latest Ksl and Us but prev. iteration U!

skipping flow solution.
ExecutionTime = 1.63 s  ClockTime = 2 s

Time = 0.019

Courant Number mean: 0 max: 0

 Coupling...
Starting up LIGGGHTS
Executing command: 'run 100    '
run 100    
Setting up run at Tue Dec  4 21:09:36 2018

Memory usage per processor = 9.38733 Mbytes
    Step    Atoms         KinEng            rke         Volume 
   21800     1000   0.0018855856              0           0.01 
CFD Coupling established at step 21900
   21900     1000   0.0018843586              0           0.01 
Loop time of 0.00370273 on 2 procs for 100 steps with 1000 atoms, finish time Tue Dec  4 21:09:36 2018


Pair  time (%) = 0.000405387 (10.9483)
Neigh time (%) = 0 (0)
Comm  time (%) = 0.000403598 (10.9)
Outpt time (%) = 3.0358e-05 (0.819881)
Other time (%) = 0.00286339 (77.3318)

Nlocal:    500 ave 921 max 79 min
Histogram: 1 0 0 0 0 0 0 0 0 1
Nghost:    12.5 ave 13 max 12 min
Histogram: 1 0 0 0 0 0 0 0 0 1
Neighs:    48 ave 84 max 12 min
Histogram: 1 0 0 0 0 0 0 0 0 1

Total # of neighbors = 96
Ave neighs/atom = 0.096
Neighbor list builds = 0
Dangerous builds = 0
LIGGGHTS finished

 timeStepFraction() = 1
particleCellVolume.C - setForce()
calculated integral particle volume  = 1.41372e-05,
 considering cells where the field < 1e+20, and > 0,
 the total volume of cells holding particles = 0.01,
 this results in an average volume fraction of:0.00141372,
 the min occurring voidfraction is:0.974781,
 the max occurring voidfraction is:1
volWeightedAverage.C - setForce()
calculated vol. weighted average of field: ddtVoidfraction = 0.156069,
 integral value  = 0.000293878,
 volume accounted for  = 0.001883,
 considering cells where the field < 1e+20, and > 0

Solver level total Eulerian momentum exchange:
  TotalForceImp:  (0 0 0)
  Warning, these values are based on latest Ksl and Us but prev. iteration U!

skipping flow solution.
ExecutionTime = 1.66 s  ClockTime = 2 s

Time = 0.02

Courant Number mean: 0 max: 0

 Coupling...
Starting up LIGGGHTS
Executing command: 'run 100    '
run 100    
Setting up run at Tue Dec  4 21:09:36 2018

Memory usage per processor = 9.38733 Mbytes
    Step    Atoms         KinEng            rke         Volume 
   21900     1000   0.0018843586              0           0.01 
CFD Coupling established at step 22000
   22000     1000   0.0018831328              0           0.01 
Loop time of 0.00796741 on 2 procs for 100 steps with 1000 atoms, finish time Tue Dec  4 21:09:36 2018


Pair  time (%) = 0.000429089 (5.38555)
Neigh time (%) = 0 (0)
Comm  time (%) = 0.000395781 (4.96749)
Outpt time (%) = 0.004153 (52.1248)
Other time (%) = 0.00298955 (37.5222)

Nlocal:    500 ave 921 max 79 min
Histogram: 1 0 0 0 0 0 0 0 0 1
Nghost:    12.5 ave 13 max 12 min
Histogram: 1 0 0 0 0 0 0 0 0 1
Neighs:    48 ave 84 max 12 min
Histogram: 1 0 0 0 0 0 0 0 0 1

Total # of neighbors = 96
Ave neighs/atom = 0.096
Neighbor list builds = 0
Dangerous builds = 0
LIGGGHTS finished

 timeStepFraction() = 1
particleCellVolume.C - setForce()
calculated integral particle volume  = 1.41372e-05,
 considering cells where the field < 1e+20, and > 0,
 the total volume of cells holding particles = 0.01,
 this results in an average volume fraction of:0.00141372,
 the min occurring voidfraction is:0.974827,
 the max occurring voidfraction is:1
volWeightedAverage.C - setForce()
calculated vol. weighted average of field: ddtVoidfraction = 0.156235,
 integral value  = 0.000292471,
 volume accounted for  = 0.001872,
 considering cells where the field < 1e+20, and > 0

Solver level total Eulerian momentum exchange:
  TotalForceImp:  (0 0 0)
  Warning, these values are based on latest Ksl and Us but prev. iteration U!

skipping flow solution.
ExecutionTime = 1.7 s  ClockTime = 2 s

Time = 0.021

Courant Number mean: 0 max: 0

 Coupling...
Starting up LIGGGHTS
Executing command: 'run 100    '
run 100    
Setting up run at Tue Dec  4 21:09:36 2018

Memory usage per processor = 9.38733 Mbytes
    Step    Atoms         KinEng            rke         Volume 
   22000     1000   0.0018831328              0           0.01 
CFD Coupling established at step 22100
   22100     1000   0.0018819081              0           0.01 
Loop time of 0.00392718 on 2 procs for 100 steps with 1000 atoms, finish time Tue Dec  4 21:09:36 2018


Pair  time (%) = 0.000464083 (11.8172)
Neigh time (%) = 0 (0)
Comm  time (%) = 0.000494636 (12.5952)
Outpt time (%) = 1.81905e-05 (0.463195)
Other time (%) = 0.00295027 (75.1244)

Nlocal:    500 ave 921 max 79 min
Histogram: 1 0 0 0 0 0 0 0 0 1
Nghost:    12.5 ave 13 max 12 min
Histogram: 1 0 0 0 0 0 0 0 0 1
Neighs:    48 ave 84 max 12 min
Histogram: 1 0 0 0 0 0 0 0 0 1

Total # of neighbors = 96
Ave neighs/atom = 0.096
Neighbor list builds = 0
Dangerous builds = 0
LIGGGHTS finished

 timeStepFraction() = 1
particleCellVolume.C - setForce()
calculated integral particle volume  = 1.41372e-05,
 considering cells where the field < 1e+20, and > 0,
 the total volume of cells holding particles = 0.01,
 this results in an average volume fraction of:0.00141372,
 the min occurring voidfraction is:0.974873,
 the max occurring voidfraction is:1
volWeightedAverage.C - setForce()
calculated vol. weighted average of field: ddtVoidfraction = 0.154518,
 integral value  = 0.000290958,
 volume accounted for  = 0.001883,
 considering cells where the field < 1e+20, and > 0

Solver level total Eulerian momentum exchange:
  TotalForceImp:  (0 0 0)
  Warning, these values are based on latest Ksl and Us but prev. iteration U!

skipping flow solution.
ExecutionTime = 1.73 s  ClockTime = 2 s

Time = 0.022

Courant Number mean: 0 max: 0

 Coupling...
Starting up LIGGGHTS
Executing command: 'run 100    '
run 100    
Setting up run at Tue Dec  4 21:09:36 2018

Memory usage per processor = 9.38733 Mbytes
    Step    Atoms         KinEng            rke         Volume 
   22100     1000   0.0018819081              0           0.01 
CFD Coupling established at step 22200
   22200     1000   0.0018806843              0           0.01 
Loop time of 0.0036382 on 2 procs for 100 steps with 1000 atoms, finish time Tue Dec  4 21:09:36 2018


Pair  time (%) = 0.000409423 (11.2534)
Neigh time (%) = 0 (0)
Comm  time (%) = 0.000411847 (11.3201)
Outpt time (%) = 1.6986e-05 (0.466879)
Other time (%) = 0.00279995 (76.9596)

Nlocal:    500 ave 921 max 79 min
Histogram: 1 0 0 0 0 0 0 0 0 1
Nghost:    12.5 ave 13 max 12 min
Histogram: 1 0 0 0 0 0 0 0 0 1
Neighs:    48 ave 84 max 12 min
Histogram: 1 0 0 0 0 0 0 0 0 1

Total # of neighbors = 96
Ave neighs/atom = 0.096
Neighbor list builds = 0
Dangerous builds = 0
LIGGGHTS finished

 timeStepFraction() = 1
particleCellVolume.C - setForce()
calculated integral particle volume  = 1.41372e-05,
 considering cells where the field < 1e+20, and > 0,
 the total volume of cells holding particles = 0.01,
 this results in an average volume fraction of:0.00141372,
 the min occurring voidfraction is:0.975084,
 the max occurring voidfraction is:1
volWeightedAverage.C - setForce()
calculated vol. weighted average of field: ddtVoidfraction = 0.174971,
 integral value  = 0.00033262,
 volume accounted for  = 0.001901,
 considering cells where the field < 1e+20, and > 0

Solver level total Eulerian momentum exchange:
  TotalForceImp:  (0 0 0)
  Warning, these values are based on latest Ksl and Us but prev. iteration U!

skipping flow solution.
ExecutionTime = 1.76 s  ClockTime = 2 s

Time = 0.023

Courant Number mean: 0 max: 0

 Coupling...
Starting up LIGGGHTS
Executing command: 'run 100    '
run 100    
Setting up run at Tue Dec  4 21:09:36 2018

Memory usage per processor = 9.38733 Mbytes
    Step    Atoms         KinEng            rke         Volume 
   22200     1000   0.0018806843              0           0.01 
CFD Coupling established at step 22300
   22300     1000   0.0018794619              0           0.01 
Loop time of 0.00652506 on 2 procs for 100 steps with 1000 atoms, finish time Tue Dec  4 21:09:36 2018


Pair  time (%) = 0.00061867 (9.48145)
Neigh time (%) = 0 (0)
Comm  time (%) = 0.000964894 (14.7875)
Outpt time (%) = 2.9524e-05 (0.452471)
Other time (%) = 0.00491197 (75.2786)

Nlocal:    500 ave 918 max 82 min
Histogram: 1 0 0 0 0 0 0 0 0 1
Nghost:    12.5 ave 15 max 10 min
Histogram: 1 0 0 0 0 0 0 0 0 1
Neighs:    47.5 ave 83 max 12 min
Histogram: 1 0 0 0 0 0 0 0 0 1

Total # of neighbors = 95
Ave neighs/atom = 0.095
Neighbor list builds = 0
Dangerous builds = 0
LIGGGHTS finished

 timeStepFraction() = 1
particleCellVolume.C - setForce()
calculated integral particle volume  = 1.41372e-05,
 considering cells where the field < 1e+20, and > 0,
 the total volume of cells holding particles = 0.01,
 this results in an average volume fraction of:0.00141372,
 the min occurring voidfraction is:0.974432,
 the max occurring voidfraction is:1
volWeightedAverage.C - setForce()
calculated vol. weighted average of field: ddtVoidfraction = 0.16924,
 integral value  = 0.000318847,
 volume accounted for  = 0.001884,
 considering cells where the field < 1e+20, and > 0

Solver level total Eulerian momentum exchange:
  TotalForceImp:  (0 0 0)
  Warning, these values are based on latest Ksl and Us but prev. iteration U!

skipping flow solution.
ExecutionTime = 1.8 s  ClockTime = 2 s

Time = 0.024

Courant Number mean: 0 max: 0

 Coupling...
Starting up LIGGGHTS
Executing command: 'run 100    '
run 100    
Setting up run at Tue Dec  4 21:09:36 2018

Memory usage per processor = 9.38733 Mbytes
    Step    Atoms         KinEng            rke         Volume 
   22300     1000   0.0018794619              0           0.01 
CFD Coupling established at step 22400
   22400     1000   0.0018782405              0           0.01 
Loop time of 0.00357603 on 2 procs for 100 steps with 1000 atoms, finish time Tue Dec  4 21:09:36 2018


Pair  time (%) = 0.000380882 (10.651)
Neigh time (%) = 0 (0)
Comm  time (%) = 0.000386958 (10.8209)
Outpt time (%) = 1.87715e-05 (0.524926)
Other time (%) = 0.00278942 (78.0032)

Nlocal:    500 ave 916 max 84 min
Histogram: 1 0 0 0 0 0 0 0 0 1
Nghost:    11.5 ave 15 max 8 min
Histogram: 1 0 0 0 0 0 0 0 0 1
Neighs:    47.5 ave 83 max 12 min
Histogram: 1 0 0 0 0 0 0 0 0 1

Total # of neighbors = 95
Ave neighs/atom = 0.095
Neighbor list builds = 0
Dangerous builds = 0
LIGGGHTS finished

 timeStepFraction() = 1
particleCellVolume.C - setForce()
calculated integral particle volume  = 1.41372e-05,
 considering cells where the field < 1e+20, and > 0,
 the total volume of cells holding particles = 0.01,
 this results in an average volume fraction of:0.00141372,
 the min occurring voidfraction is:0.97476,
 the max occurring voidfraction is:1
volWeightedAverage.C - setForce()
calculated vol. weighted average of field: ddtVoidfraction = 0.177715,
 integral value  = 0.000334815,
 volume accounted for  = 0.001884,
 considering cells where the field < 1e+20, and > 0

Solver level total Eulerian momentum exchange:
  TotalForceImp:  (0 0 0)
  Warning, these values are based on latest Ksl and Us but prev. iteration U!

skipping flow solution.
ExecutionTime = 1.83 s  ClockTime = 2 s

Time = 0.025

Courant Number mean: 0 max: 0

 Coupling...
Starting up LIGGGHTS
Executing command: 'run 100    '
run 100    
Setting up run at Tue Dec  4 21:09:36 2018

Memory usage per processor = 9.38733 Mbytes
    Step    Atoms         KinEng            rke         Volume 
   22400     1000   0.0018782405              0           0.01 
CFD Coupling established at step 22500
   22500     1000   0.0018770202              0           0.01 
Loop time of 0.00376808 on 2 procs for 100 steps with 1000 atoms, finish time Tue Dec  4 21:09:36 2018


Pair  time (%) = 0.000418838 (11.1154)
Neigh time (%) = 0 (0)
Comm  time (%) = 0.000390241 (10.3565)
Outpt time (%) = 1.8254e-05 (0.484438)
Other time (%) = 0.00294074 (78.0436)

Nlocal:    500 ave 913 max 87 min
Histogram: 1 0 0 0 0 0 0 0 0 1
Nghost:    10.5 ave 15 max 6 min
Histogram: 1 0 0 0 0 0 0 0 0 1
Neighs:    47 ave 82 max 12 min
Histogram: 1 0 0 0 0 0 0 0 0 1

Total # of neighbors = 94
Ave neighs/atom = 0.094
Neighbor list builds = 0
Dangerous builds = 0
LIGGGHTS finished

 timeStepFraction() = 1
particleCellVolume.C - setForce()
calculated integral particle volume  = 1.41372e-05,
 considering cells where the field < 1e+20, and > 0,
 the total volume of cells holding particles = 0.01,
 this results in an average volume fraction of:0.00141372,
 the min occurring voidfraction is:0.975443,
 the max occurring voidfraction is:1
volWeightedAverage.C - setForce()
calculated vol. weighted average of field: ddtVoidfraction = 0.157127,
 integral value  = 0.000294141,
 volume accounted for  = 0.001872,
 considering cells where the field < 1e+20, and > 0

Solver level total Eulerian momentum exchange:
  TotalForceImp:  (0 0 0)
  Warning, these values are based on latest Ksl and Us but prev. iteration U!

skipping flow solution.
ExecutionTime = 1.86 s  ClockTime = 2 s

Time = 0.026

Courant Number mean: 0 max: 0

 Coupling...
Starting up LIGGGHTS
Executing command: 'run 100    '
run 100    
Setting up run at Tue Dec  4 21:09:36 2018

Memory usage per processor = 9.38733 Mbytes
    Step    Atoms         KinEng            rke         Volume 
   22500     1000   0.0018770202              0           0.01 
CFD Coupling established at step 22600
   22600     1000   0.0018758011              0           0.01 
Loop time of 0.0035803 on 2 procs for 100 steps with 1000 atoms, finish time Tue Dec  4 21:09:36 2018


Pair  time (%) = 0.000400432 (11.1843)
Neigh time (%) = 0 (0)
Comm  time (%) = 0.000363254 (10.1459)
Outpt time (%) = 1.69495e-05 (0.47341)
Other time (%) = 0.00279967 (78.1964)

Nlocal:    500 ave 913 max 87 min
Histogram: 1 0 0 0 0 0 0 0 0 1
Nghost:    10 ave 14 max 6 min
Histogram: 1 0 0 0 0 0 0 0 0 1
Neighs:    47 ave 82 max 12 min
Histogram: 1 0 0 0 0 0 0 0 0 1

Total # of neighbors = 94
Ave neighs/atom = 0.094
Neighbor list builds = 0
Dangerous builds = 0
LIGGGHTS finished

 timeStepFraction() = 1
particleCellVolume.C - setForce()
calculated integral particle volume  = 1.41372e-05,
 considering cells where the field < 1e+20, and > 0,
 the total volume of cells holding particles = 0.01,
 this results in an average volume fraction of:0.00141372,
 the min occurring voidfraction is:0.975884,
 the max occurring voidfraction is:1
volWeightedAverage.C - setForce()
calculated vol. weighted average of field: ddtVoidfraction = 0.157291,
 integral value  = 0.000293663,
 volume accounted for  = 0.001867,
 considering cells where the field < 1e+20, and > 0

Solver level total Eulerian momentum exchange:
  TotalForceImp:  (0 0 0)
  Warning, these values are based on latest Ksl and Us but prev. iteration U!

skipping flow solution.
ExecutionTime = 1.89 s  ClockTime = 2 s

Time = 0.027

Courant Number mean: 0 max: 0

 Coupling...
Starting up LIGGGHTS
Executing command: 'run 100    '
run 100    
Setting up run at Tue Dec  4 21:09:36 2018

Memory usage per processor = 9.38733 Mbytes
    Step    Atoms         KinEng            rke         Volume 
   22600     1000   0.0018758011              0           0.01 
CFD Coupling established at step 22700
   22700     1000   0.0018745829              0           0.01 
Loop time of 0.00385124 on 2 procs for 100 steps with 1000 atoms, finish time Tue Dec  4 21:09:36 2018


Pair  time (%) = 0.000416935 (10.826)
Neigh time (%) = 0 (0)
Comm  time (%) = 0.000402125 (10.4414)
Outpt time (%) = 2.4087e-05 (0.625435)
Other time (%) = 0.00300809 (78.1071)

Nlocal:    500 ave 913 max 87 min
Histogram: 1 0 0 0 0 0 0 0 0 1
Nghost:    9.5 ave 13 max 6 min
Histogram: 1 0 0 0 0 0 0 0 0 1
Neighs:    47 ave 82 max 12 min
Histogram: 1 0 0 0 0 0 0 0 0 1

Total # of neighbors = 94
Ave neighs/atom = 0.094
Neighbor list builds = 0
Dangerous builds = 0
LIGGGHTS finished

 timeStepFraction() = 1
particleCellVolume.C - setForce()
calculated integral particle volume  = 1.41372e-05,
 considering cells where the field < 1e+20, and > 0,
 the total volume of cells holding particles = 0.01,
 this results in an average volume fraction of:0.00141372,
 the min occurring voidfraction is:0.975546,
 the max occurring voidfraction is:1
volWeightedAverage.C - setForce()
calculated vol. weighted average of field: ddtVoidfraction = 0.165975,
 integral value  = 0.000310041,
 volume accounted for  = 0.001868,
 considering cells where the field < 1e+20, and > 0

Solver level total Eulerian momentum exchange:
  TotalForceImp:  (0 0 0)
  Warning, these values are based on latest Ksl and Us but prev. iteration U!

skipping flow solution.
ExecutionTime = 1.93 s  ClockTime = 2 s

Time = 0.028

Courant Number mean: 0 max: 0

 Coupling...
Starting up LIGGGHTS
Executing command: 'run 100    '
run 100    
Setting up run at Tue Dec  4 21:09:36 2018

Memory usage per processor = 9.38733 Mbytes
    Step    Atoms         KinEng            rke         Volume 
   22700     1000   0.0018745829              0           0.01 
CFD Coupling established at step 22800
   22800     1000   0.0018733656              0           0.01 
Loop time of 0.00546477 on 2 procs for 100 steps with 1000 atoms, finish time Tue Dec  4 21:09:36 2018


Pair  time (%) = 0.000634896 (11.618)
Neigh time (%) = 0 (0)
Comm  time (%) = 0.000411881 (7.53703)
Outpt time (%) = 2.7035e-05 (0.494714)
Other time (%) = 0.00439096 (80.3503)

Nlocal:    500 ave 912 max 88 min
Histogram: 1 0 0 0 0 0 0 0 0 1
Nghost:    9 ave 12 max 6 min
Histogram: 1 0 0 0 0 0 0 0 0 1
Neighs:    47 ave 82 max 12 min
Histogram: 1 0 0 0 0 0 0 0 0 1

Total # of neighbors = 94
Ave neighs/atom = 0.094
Neighbor list builds = 0
Dangerous builds = 0
LIGGGHTS finished

 timeStepFraction() = 1
particleCellVolume.C - setForce()
calculated integral particle volume  = 1.41372e-05,
 considering cells where the field < 1e+20, and > 0,
 the total volume of cells holding particles = 0.01,
 this results in an average volume fraction of:0.00141372,
 the min occurring voidfraction is:0.975209,
 the max occurring voidfraction is:1
volWeightedAverage.C - setForce()
calculated vol. weighted average of field: ddtVoidfraction = 0.157602,
 integral value  = 0.000295819,
 volume accounted for  = 0.001877,
 considering cells where the field < 1e+20, and > 0

Solver level total Eulerian momentum exchange:
  TotalForceImp:  (0 0 0)
  Warning, these values are based on latest Ksl and Us but prev. iteration U!

skipping flow solution.
ExecutionTime = 1.96 s  ClockTime = 3 s

Time = 0.029

Courant Number mean: 0 max: 0

 Coupling...
Starting up LIGGGHTS
Executing command: 'run 100    '
run 100    
Setting up run at Tue Dec  4 21:09:37 2018

Memory usage per processor = 9.38733 Mbytes
    Step    Atoms         KinEng            rke         Volume 
   22800     1000   0.0018733656              0           0.01 
CFD Coupling established at step 22900
   22900     1000   0.0018721491              0           0.01 
Loop time of 0.00377182 on 2 procs for 100 steps with 1000 atoms, finish time Tue Dec  4 21:09:37 2018


Pair  time (%) = 0.000419647 (11.1259)
Neigh time (%) = 0 (0)
Comm  time (%) = 0.00036037 (9.55427)
Outpt time (%) = 1.90235e-05 (0.504359)
Other time (%) = 0.00297278 (78.8155)

Nlocal:    500 ave 912 max 88 min
Histogram: 1 0 0 0 0 0 0 0 0 1
Nghost:    9.5 ave 12 max 7 min
Histogram: 1 0 0 0 0 0 0 0 0 1
Neighs:    47 ave 82 max 12 min
Histogram: 1 0 0 0 0 0 0 0 0 1

Total # of neighbors = 94
Ave neighs/atom = 0.094
Neighbor list builds = 0
Dangerous builds = 0
LIGGGHTS finished

 timeStepFraction() = 1
particleCellVolume.C - setForce()
calculated integral particle volume  = 1.41372e-05,
 considering cells where the field < 1e+20, and > 0,
 the total volume of cells holding particles = 0.01,
 this results in an average volume fraction of:0.00141372,
 the min occurring voidfraction is:0.974872,
 the max occurring voidfraction is:1
volWeightedAverage.C - setForce()
calculated vol. weighted average of field: ddtVoidfraction = 0.158901,
 integral value  = 0.000295239,
 volume accounted for  = 0.001858,
 considering cells where the field < 1e+20, and > 0

Solver level total Eulerian momentum exchange:
  TotalForceImp:  (0 0 0)
  Warning, these values are based on latest Ksl and Us but prev. iteration U!

skipping flow solution.
ExecutionTime = 1.99 s  ClockTime = 3 s

Time = 0.03

Courant Number mean: 0 max: 0

 Coupling...
Starting up LIGGGHTS
Executing command: 'run 100    '
run 100    
Setting up run at Tue Dec  4 21:09:37 2018

Memory usage per processor = 9.38733 Mbytes
    Step    Atoms         KinEng            rke         Volume 
   22900     1000   0.0018721491              0           0.01 
CFD Coupling established at step 23000
   23000     1000   0.0018709295  5.4996869e-12           0.01 
Loop time of 0.00897945 on 2 procs for 100 steps with 1000 atoms, finish time Tue Dec  4 21:09:37 2018


Pair  time (%) = 0.000406595 (4.52806)
Neigh time (%) = 0 (0)
Comm  time (%) = 0.000711257 (7.92094)
Outpt time (%) = 0.00466616 (51.9649)
Other time (%) = 0.00319543 (35.5861)

Nlocal:    500 ave 912 max 88 min
Histogram: 1 0 0 0 0 0 0 0 0 1
Nghost:    9.5 ave 12 max 7 min
Histogram: 1 0 0 0 0 0 0 0 0 1
Neighs:    47 ave 82 max 12 min
Histogram: 1 0 0 0 0 0 0 0 0 1

Total # of neighbors = 94
Ave neighs/atom = 0.094
Neighbor list builds = 0
Dangerous builds = 0
LIGGGHTS finished

 timeStepFraction() = 1
particleCellVolume.C - setForce()
calculated integral particle volume  = 1.41372e-05,
 considering cells where the field < 1e+20, and > 0,
 the total volume of cells holding particles = 0.01,
 this results in an average volume fraction of:0.00141372,
 the min occurring voidfraction is:0.974535,
 the max occurring voidfraction is:1
volWeightedAverage.C - setForce()
calculated vol. weighted average of field: ddtVoidfraction = 0.172732,
 integral value  = 0.000320591,
 volume accounted for  = 0.001856,
 considering cells where the field < 1e+20, and > 0

Solver level total Eulerian momentum exchange:
  TotalForceImp:  (0 0 0)
  Warning, these values are based on latest Ksl and Us but prev. iteration U!

skipping flow solution.
ExecutionTime = 2.04 s  ClockTime = 3 s

Time = 0.031

Courant Number mean: 0 max: 0

 Coupling...
Starting up LIGGGHTS
Executing command: 'run 100    '
run 100    
Setting up run at Tue Dec  4 21:09:37 2018

Memory usage per processor = 9.38733 Mbytes
    Step    Atoms         KinEng            rke         Volume 
   23000     1000   0.0018709295  5.4996869e-12           0.01 
CFD Coupling established at step 23100
   23100     1000   0.0018697106  2.3717447e-11           0.01 
Loop time of 0.00370914 on 2 procs for 100 steps with 1000 atoms, finish time Tue Dec  4 21:09:37 2018


Pair  time (%) = 0.000388053 (10.4621)
Neigh time (%) = 0 (0)
Comm  time (%) = 0.000392692 (10.5871)
Outpt time (%) = 2.05275e-05 (0.553431)
Other time (%) = 0.00290786 (78.3973)

Nlocal:    500 ave 910 max 90 min
Histogram: 1 0 0 0 0 0 0 0 0 1
Nghost:    10 ave 14 max 6 min
Histogram: 1 0 0 0 0 0 0 0 0 1
Neighs:    47 ave 82 max 12 min
Histogram: 1 0 0 0 0 0 0 0 0 1

Total # of neighbors = 94
Ave neighs/atom = 0.094
Neighbor list builds = 0
Dangerous builds = 0
LIGGGHTS finished

 timeStepFraction() = 1
particleCellVolume.C - setForce()
calculated integral particle volume  = 1.41372e-05,
 considering cells where the field < 1e+20, and > 0,
 the total volume of cells holding particles = 0.01,
 this results in an average volume fraction of:0.00141372,
 the min occurring voidfraction is:0.974199,
 the max occurring voidfraction is:1
volWeightedAverage.C - setForce()
calculated vol. weighted average of field: ddtVoidfraction = 0.159559,
 integral value  = 0.000293908,
 volume accounted for  = 0.001842,
 considering cells where the field < 1e+20, and > 0

Solver level total Eulerian momentum exchange:
  TotalForceImp:  (0 0 0)
  Warning, these values are based on latest Ksl and Us but prev. iteration U!

skipping flow solution.
ExecutionTime = 2.07 s  ClockTime = 3 s

Time = 0.032

Courant Number mean: 0 max: 0

 Coupling...
Starting up LIGGGHTS
Executing command: 'run 100    '
run 100    
Setting up run at Tue Dec  4 21:09:37 2018

Memory usage per processor = 9.38733 Mbytes
    Step    Atoms         KinEng            rke         Volume 
   23100     1000   0.0018697106  2.3717447e-11           0.01 
CFD Coupling established at step 23200
   23200     1000   0.0018684969  2.6958913e-11           0.01 
Loop time of 0.00410684 on 2 procs for 100 steps with 1000 atoms, finish time Tue Dec  4 21:09:37 2018


Pair  time (%) = 0.000621307 (15.1286)
Neigh time (%) = 0 (0)
Comm  time (%) = 0.000423916 (10.3222)
Outpt time (%) = 2.16435e-05 (0.527011)
Other time (%) = 0.00303997 (74.0222)

Nlocal:    500 ave 910 max 90 min
Histogram: 1 0 0 0 0 0 0 0 0 1
Nghost:    10 ave 14 max 6 min
Histogram: 1 0 0 0 0 0 0 0 0 1
Neighs:    47 ave 82 max 12 min
Histogram: 1 0 0 0 0 0 0 0 0 1

Total # of neighbors = 94
Ave neighs/atom = 0.094
Neighbor list builds = 0
Dangerous builds = 0
LIGGGHTS finished

 timeStepFraction() = 1
particleCellVolume.C - setForce()
calculated integral particle volume  = 1.41372e-05,
 considering cells where the field < 1e+20, and > 0,
 the total volume of cells holding particles = 0.01,
 this results in an average volume fraction of:0.00141372,
 the min occurring voidfraction is:0.973863,
 the max occurring voidfraction is:1
volWeightedAverage.C - setForce()
calculated vol. weighted average of field: ddtVoidfraction = 0.160036,
 integral value  = 0.000295267,
 volume accounted for  = 0.001845,
 considering cells where the field < 1e+20, and > 0

Solver level total Eulerian momentum exchange:
  TotalForceImp:  (0 0 0)
  Warning, these values are based on latest Ksl and Us but prev. iteration U!

skipping flow solution.
ExecutionTime = 2.11 s  ClockTime = 3 s

Time = 0.033

Courant Number mean: 0 max: 0

 Coupling...
Starting up LIGGGHTS
Executing command: 'run 100    '
run 100    
Setting up run at Tue Dec  4 21:09:37 2018

Memory usage per processor = 9.38733 Mbytes
    Step    Atoms         KinEng            rke         Volume 
   23200     1000   0.0018684969  2.6958913e-11           0.01 
CFD Coupling established at step 23300
   23300     1000   0.0018672844  2.6958913e-11           0.01 
Loop time of 0.00383534 on 2 procs for 100 steps with 1000 atoms, finish time Tue Dec  4 21:09:37 2018


Pair  time (%) = 0.000422433 (11.0142)
Neigh time (%) = 0 (0)
Comm  time (%) = 0.000439774 (11.4664)
Outpt time (%) = 3.48095e-05 (0.907599)
Other time (%) = 0.00293832 (76.6118)

Nlocal:    500 ave 910 max 90 min
Histogram: 1 0 0 0 0 0 0 0 0 1
Nghost:    10 ave 14 max 6 min
Histogram: 1 0 0 0 0 0 0 0 0 1
Neighs:    47 ave 82 max 12 min
Histogram: 1 0 0 0 0 0 0 0 0 1

Total # of neighbors = 94
Ave neighs/atom = 0.094
Neighbor list builds = 0
Dangerous builds = 0
LIGGGHTS finished

 timeStepFraction() = 1
particleCellVolume.C - setForce()
calculated integral particle volume  = 1.41372e-05,
 considering cells where the field < 1e+20, and > 0,
 the total volume of cells holding particles = 0.01,
 this results in an average volume fraction of:0.00141372,
 the min occurring voidfraction is:0.973527,
 the max occurring voidfraction is:1
volWeightedAverage.C - setForce()
calculated vol. weighted average of field: ddtVoidfraction = 0.159113,
 integral value  = 0.000293563,
[...]
    Step    Atoms         KinEng            rke         Volume 
   38900     1000   0.0016891668  1.7851901e-07           0.01 
CFD Coupling established at step 39000
   39000     1000   0.0016880871  1.8318314e-07           0.01 
Loop time of 0.00746687 on 2 procs for 100 steps with 1000 atoms, finish time Tue Dec  4 21:09:42 2018


Pair  time (%) = 0.000412125 (5.51938)
Neigh time (%) = 0 (0)
Comm  time (%) = 0.000414949 (5.5572)
Outpt time (%) = 0.0038542 (51.6173)
Other time (%) = 0.0027856 (37.3061)

Nlocal:    500 ave 826 max 174 min
Histogram: 1 0 0 0 0 0 0 0 0 1
Nghost:    9 ave 12 max 6 min
Histogram: 1 0 0 0 0 0 0 0 0 1
Neighs:    46 ave 74 max 18 min
Histogram: 1 0 0 0 0 0 0 0 0 1

Total # of neighbors = 92
Ave neighs/atom = 0.092
Neighbor list builds = 0
Dangerous builds = 0
LIGGGHTS finished

 timeStepFraction() = 1
particleCellVolume.C - setForce()
calculated integral particle volume  = 1.41372e-05,
 considering cells where the field < 1e+20, and > 0,
 the total volume of cells holding particles = 0.01,
 this results in an average volume fraction of:0.00141372,
 the min occurring voidfraction is:0.973076,
 the max occurring voidfraction is:1
volWeightedAverage.C - setForce()
calculated vol. weighted average of field: ddtVoidfraction = 0.158624,
 integral value  = 0.000293931,
 volume accounted for  = 0.001853,
 considering cells where the field < 1e+20, and > 0

Solver level total Eulerian momentum exchange:
  TotalForceImp:  (0 0 0)
  Warning, these values are based on latest Ksl and Us but prev. iteration U!

skipping flow solution.
ExecutionTime = 7.59 s  ClockTime = 8 s

Time = 0.191

Courant Number mean: 0 max: 0

 Coupling...
Starting up LIGGGHTS
Executing command: 'run 100    '
run 100    
Setting up run at Tue Dec  4 21:09:42 2018

Memory usage per processor = 9.38733 Mbytes
    Step    Atoms         KinEng            rke         Volume 
   39000     1000   0.0016880871  1.8318314e-07           0.01 
CFD Coupling established at step 39100
   39100     1000   0.0016870188  1.8683326e-07           0.01 
Loop time of 0.0036088 on 2 procs for 100 steps with 1000 atoms, finish time Tue Dec  4 21:09:42 2018


Pair  time (%) = 0.000438505 (12.151)
Neigh time (%) = 0 (0)
Comm  time (%) = 0.000409431 (11.3453)
Outpt time (%) = 1.86215e-05 (0.516003)
Other time (%) = 0.00274224 (75.9877)

Nlocal:    500 ave 825 max 175 min
Histogram: 1 0 0 0 0 0 0 0 0 1
Nghost:    9.5 ave 12 max 7 min
Histogram: 1 0 0 0 0 0 0 0 0 1
Neighs:    46 ave 74 max 18 min
Histogram: 1 0 0 0 0 0 0 0 0 1

Total # of neighbors = 92
Ave neighs/atom = 0.092
Neighbor list builds = 0
Dangerous builds = 0
LIGGGHTS finished

 timeStepFraction() = 1
particleCellVolume.C - setForce()
calculated integral particle volume  = 1.41372e-05,
 considering cells where the field < 1e+20, and > 0,
 the total volume of cells holding particles = 0.01,
 this results in an average volume fraction of:0.00141372,
 the min occurring voidfraction is:0.973132,
 the max occurring voidfraction is:1
volWeightedAverage.C - setForce()
calculated vol. weighted average of field: ddtVoidfraction = 0.151217,
 integral value  = 0.000280962,
 volume accounted for  = 0.001858,
 considering cells where the field < 1e+20, and > 0

Solver level total Eulerian momentum exchange:
  TotalForceImp:  (0 0 0)
  Warning, these values are based on latest Ksl and Us but prev. iteration U!

skipping flow solution.
ExecutionTime = 7.62 s  ClockTime = 8 s

Time = 0.192

Courant Number mean: 0 max: 0

 Coupling...
Starting up LIGGGHTS
Executing command: 'run 100    '
run 100    
Setting up run at Tue Dec  4 21:09:42 2018

Memory usage per processor = 9.38733 Mbytes
    Step    Atoms         KinEng            rke         Volume 
   39100     1000   0.0016870188  1.8683326e-07           0.01 
CFD Coupling established at step 39200
   39200     1000   0.0016859519  1.9047157e-07           0.01 
Loop time of 0.0033984 on 2 procs for 100 steps with 1000 atoms, finish time Tue Dec  4 21:09:42 2018


Pair  time (%) = 0.000402067 (11.831)
Neigh time (%) = 0 (0)
Comm  time (%) = 0.000378602 (11.1406)
Outpt time (%) = 1.9022e-05 (0.559734)
Other time (%) = 0.00259871 (76.4686)

Nlocal:    500 ave 825 max 175 min
Histogram: 1 0 0 0 0 0 0 0 0 1
Nghost:    8 ave 12 max 4 min
Histogram: 1 0 0 0 0 0 0 0 0 1
Neighs:    46 ave 74 max 18 min
Histogram: 1 0 0 0 0 0 0 0 0 1

Total # of neighbors = 92
Ave neighs/atom = 0.092
Neighbor list builds = 0
Dangerous builds = 0
LIGGGHTS finished

 timeStepFraction() = 1
particleCellVolume.C - setForce()
calculated integral particle volume  = 1.41372e-05,
 considering cells where the field < 1e+20, and > 0,
 the total volume of cells holding particles = 0.01,
 this results in an average volume fraction of:0.00141372,
 the min occurring voidfraction is:0.973188,
 the max occurring voidfraction is:1
volWeightedAverage.C - setForce()
calculated vol. weighted average of field: ddtVoidfraction = 0.157129,
 integral value  = 0.000293518,
 volume accounted for  = 0.001868,
 considering cells where the field < 1e+20, and > 0

Solver level total Eulerian momentum exchange:
  TotalForceImp:  (0 0 0)
  Warning, these values are based on latest Ksl and Us but prev. iteration U!

skipping flow solution.
ExecutionTime = 7.68 s  ClockTime = 8 s

Time = 0.193

Courant Number mean: 0 max: 0

 Coupling...
Starting up LIGGGHTS
Executing command: 'run 100    '
run 100    
Setting up run at Tue Dec  4 21:09:42 2018

Memory usage per processor = 9.38733 Mbytes
    Step    Atoms         KinEng            rke         Volume 
   39200     1000   0.0016859519  1.9047157e-07           0.01 
CFD Coupling established at step 39300
   39300     1000   0.0016848897  1.9236074e-07           0.01 
Loop time of 0.00447402 on 2 procs for 100 steps with 1000 atoms, finish time Tue Dec  4 21:09:42 2018


Pair  time (%) = 0.000431122 (9.63613)
Neigh time (%) = 0 (0)
Comm  time (%) = 0.000447163 (9.99465)
Outpt time (%) = 1.9897e-05 (0.444723)
Other time (%) = 0.00357584 (79.9245)

Nlocal:    500 ave 824 max 176 min
Histogram: 1 0 0 0 0 0 0 0 0 1
Nghost:    8 ave 11 max 5 min
Histogram: 1 0 0 0 0 0 0 0 0 1
Neighs:    45.5 ave 73 max 18 min
Histogram: 1 0 0 0 0 0 0 0 0 1

Total # of neighbors = 91
Ave neighs/atom = 0.091
Neighbor list builds = 0
Dangerous builds = 0
LIGGGHTS finished

 timeStepFraction() = 1
particleCellVolume.C - setForce()
calculated integral particle volume  = 1.41372e-05,
 considering cells where the field < 1e+20, and > 0,
 the total volume of cells holding particles = 0.01,
 this results in an average volume fraction of:0.00141372,
 the min occurring voidfraction is:0.973244,
 the max occurring voidfraction is:1
volWeightedAverage.C - setForce()
calculated vol. weighted average of field: ddtVoidfraction = 0.147832,
 integral value  = 0.000276447,
 volume accounted for  = 0.00187,
 considering cells where the field < 1e+20, and > 0

Solver level total Eulerian momentum exchange:
  TotalForceImp:  (0 0 0)
  Warning, these values are based on latest Ksl and Us but prev. iteration U!

skipping flow solution.
ExecutionTime = 7.71 s  ClockTime = 8 s

Time = 0.194

Courant Number mean: 0 max: 0

 Coupling...
Starting up LIGGGHTS
Executing command: 'run 100    '
run 100    
Setting up run at Tue Dec  4 21:09:42 2018

Memory usage per processor = 9.38733 Mbytes
    Step    Atoms         KinEng            rke         Volume 
   39300     1000   0.0016848897  1.9236074e-07           0.01 
CFD Coupling established at step 39400
   39400     1000   0.0016838076  1.9734828e-07           0.01 
Loop time of 0.00370093 on 2 procs for 100 steps with 1000 atoms, finish time Tue Dec  4 21:09:42 2018


Pair  time (%) = 0.000441482 (11.9289)
Neigh time (%) = 0 (0)
Comm  time (%) = 0.000412622 (11.1491)
Outpt time (%) = 2.7283e-05 (0.737192)
Other time (%) = 0.00281955 (76.1847)

Nlocal:    500 ave 824 max 176 min
Histogram: 1 0 0 0 0 0 0 0 0 1
Nghost:    8 ave 11 max 5 min
Histogram: 1 0 0 0 0 0 0 0 0 1
Neighs:    45.5 ave 73 max 18 min
Histogram: 1 0 0 0 0 0 0 0 0 1

Total # of neighbors = 91
Ave neighs/atom = 0.091
Neighbor list builds = 0
Dangerous builds = 0
LIGGGHTS finished

 timeStepFraction() = 1
particleCellVolume.C - setForce()
calculated integral particle volume  = 1.41372e-05,
 considering cells where the field < 1e+20, and > 0,
 the total volume of cells holding particles = 0.01,
 this results in an average volume fraction of:0.00141372,
 the min occurring voidfraction is:0.973301,
 the max occurring voidfraction is:1
volWeightedAverage.C - setForce()
calculated vol. weighted average of field: ddtVoidfraction = 0.154883,
 integral value  = 0.00028994,
 volume accounted for  = 0.001872,
 considering cells where the field < 1e+20, and > 0

Solver level total Eulerian momentum exchange:
  TotalForceImp:  (0 0 0)
  Warning, these values are based on latest Ksl and Us but prev. iteration U!

skipping flow solution.
ExecutionTime = 7.74 s  ClockTime = 8 s

Time = 0.195

Courant Number mean: 0 max: 0

 Coupling...
Starting up LIGGGHTS
Executing command: 'run 100    '
run 100    
Setting up run at Tue Dec  4 21:09:42 2018

Memory usage per processor = 9.38733 Mbytes
    Step    Atoms         KinEng            rke         Volume 
   39400     1000   0.0016838076  1.9734828e-07           0.01 
CFD Coupling established at step 39500
   39500     1000   0.0016827271  2.0242917e-07           0.01 
Loop time of 0.00338941 on 2 procs for 100 steps with 1000 atoms, finish time Tue Dec  4 21:09:42 2018


Pair  time (%) = 0.000378235 (11.1593)
Neigh time (%) = 0 (0)
Comm  time (%) = 0.000381707 (11.2617)
Outpt time (%) = 2.35455e-05 (0.694678)
Other time (%) = 0.00260592 (76.8843)

Nlocal:    500 ave 823 max 177 min
Histogram: 1 0 0 0 0 0 0 0 0 1
Nghost:    9 ave 12 max 6 min
Histogram: 1 0 0 0 0 0 0 0 0 1
Neighs:    45.5 ave 73 max 18 min
Histogram: 1 0 0 0 0 0 0 0 0 1

Total # of neighbors = 91
Ave neighs/atom = 0.091
Neighbor list builds = 0
Dangerous builds = 0
LIGGGHTS finished

 timeStepFraction() = 1
particleCellVolume.C - setForce()
calculated integral particle volume  = 1.41372e-05,
 considering cells where the field < 1e+20, and > 0,
 the total volume of cells holding particles = 0.01,
 this results in an average volume fraction of:0.00141372,
 the min occurring voidfraction is:0.97409,
 the max occurring voidfraction is:1
volWeightedAverage.C - setForce()
calculated vol. weighted average of field: ddtVoidfraction = 0.148712,
 integral value  = 0.0002772,
 volume accounted for  = 0.001864,
 considering cells where the field < 1e+20, and > 0

Solver level total Eulerian momentum exchange:
  TotalForceImp:  (0 0 0)
  Warning, these values are based on latest Ksl and Us but prev. iteration U!

skipping flow solution.
ExecutionTime = 7.78 s  ClockTime = 8 s

Time = 0.196

Courant Number mean: 0 max: 0

 Coupling...
Starting up LIGGGHTS
Executing command: 'run 100    '
run 100    
Setting up run at Tue Dec  4 21:09:42 2018

Memory usage per processor = 9.38733 Mbytes
    Step    Atoms         KinEng            rke         Volume 
   39500     1000   0.0016827271  2.0242917e-07           0.01 
CFD Coupling established at step 39600
   39600     1000   0.0016816477  2.0761815e-07           0.01 
Loop time of 0.0041216 on 2 procs for 100 steps with 1000 atoms, finish time Tue Dec  4 21:09:42 2018


Pair  time (%) = 0.000510498 (12.3859)
Neigh time (%) = 0 (0)
Comm  time (%) = 0.000465263 (11.2884)
Outpt time (%) = 2.2655e-05 (0.549666)
Other time (%) = 0.00312318 (75.776)

Nlocal:    500 ave 823 max 177 min
Histogram: 1 0 0 0 0 0 0 0 0 1
Nghost:    9 ave 12 max 6 min
Histogram: 1 0 0 0 0 0 0 0 0 1
Neighs:    45.5 ave 73 max 18 min
Histogram: 1 0 0 0 0 0 0 0 0 1

Total # of neighbors = 91
Ave neighs/atom = 0.091
Neighbor list builds = 0
Dangerous builds = 0
LIGGGHTS finished

 timeStepFraction() = 1
particleCellVolume.C - setForce()
calculated integral particle volume  = 1.41372e-05,
 considering cells where the field < 1e+20, and > 0,
 the total volume of cells holding particles = 0.01,
 this results in an average volume fraction of:0.00141372,
 the min occurring voidfraction is:0.974944,
 the max occurring voidfraction is:1
volWeightedAverage.C - setForce()
calculated vol. weighted average of field: ddtVoidfraction = 0.148796,
 integral value  = 0.000277654,
 volume accounted for  = 0.001866,
 considering cells where the field < 1e+20, and > 0

Solver level total Eulerian momentum exchange:
  TotalForceImp:  (0 0 0)
  Warning, these values are based on latest Ksl and Us but prev. iteration U!

skipping flow solution.
ExecutionTime = 7.81 s  ClockTime = 8 s

Time = 0.197

Courant Number mean: 0 max: 0

 Coupling...
Starting up LIGGGHTS
Executing command: 'run 100    '
run 100    
Setting up run at Tue Dec  4 21:09:42 2018

Memory usage per processor = 9.38733 Mbytes
    Step    Atoms         KinEng            rke         Volume 
   39600     1000   0.0016816477  2.0761815e-07           0.01 
CFD Coupling established at step 39700
   39700     1000   0.0016805863  2.1128198e-07           0.01 
Loop time of 0.00403894 on 2 procs for 100 steps with 1000 atoms, finish time Tue Dec  4 21:09:42 2018


Pair  time (%) = 0.000419201 (10.379)
Neigh time (%) = 0 (0)
Comm  time (%) = 0.000487182 (12.0621)
Outpt time (%) = 1.94025e-05 (0.480386)
Other time (%) = 0.00311315 (77.0785)

Nlocal:    500 ave 823 max 177 min
Histogram: 1 0 0 0 0 0 0 0 0 1
Nghost:    9.5 ave 13 max 6 min
Histogram: 1 0 0 0 0 0 0 0 0 1
Neighs:    45.5 ave 73 max 18 min
Histogram: 1 0 0 0 0 0 0 0 0 1

Total # of neighbors = 91
Ave neighs/atom = 0.091
Neighbor list builds = 0
Dangerous builds = 0
LIGGGHTS finished

 timeStepFraction() = 1
particleCellVolume.C - setForce()
calculated integral particle volume  = 1.41372e-05,
 considering cells where the field < 1e+20, and > 0,
 the total volume of cells holding particles = 0.01,
 this results in an average volume fraction of:0.00141372,
 the min occurring voidfraction is:0.9758,
 the max occurring voidfraction is:1
volWeightedAverage.C - setForce()
calculated vol. weighted average of field: ddtVoidfraction = 0.14977,
 integral value  = 0.000278422,
 volume accounted for  = 0.001859,
 considering cells where the field < 1e+20, and > 0

Solver level total Eulerian momentum exchange:
  TotalForceImp:  (0 0 0)
  Warning, these values are based on latest Ksl and Us but prev. iteration U!

skipping flow solution.
ExecutionTime = 7.85 s  ClockTime = 8 s

Time = 0.198

Courant Number mean: 0 max: 0

 Coupling...
Starting up LIGGGHTS
Executing command: 'run 100    '
run 100    
Setting up run at Tue Dec  4 21:09:42 2018

Memory usage per processor = 9.38733 Mbytes
    Step    Atoms         KinEng            rke         Volume 
   39700     1000   0.0016805863  2.1128198e-07           0.01 
CFD Coupling established at step 39800
   39800     1000   0.0016795257  2.1494584e-07           0.01 
Loop time of 0.00383411 on 2 procs for 100 steps with 1000 atoms, finish time Tue Dec  4 21:09:42 2018


Pair  time (%) = 0.00040682 (10.6106)
Neigh time (%) = 0 (0)
Comm  time (%) = 0.000400918 (10.4566)
Outpt time (%) = 6.86435e-05 (1.79034)
Other time (%) = 0.00295773 (77.1425)

Nlocal:    500 ave 823 max 177 min
Histogram: 1 0 0 0 0 0 0 0 0 1
Nghost:    9.5 ave 13 max 6 min
Histogram: 1 0 0 0 0 0 0 0 0 1
Neighs:    45.5 ave 73 max 18 min
Histogram: 1 0 0 0 0 0 0 0 0 1

Total # of neighbors = 91
Ave neighs/atom = 0.091
Neighbor list builds = 0
Dangerous builds = 0
LIGGGHTS finished

 timeStepFraction() = 1
particleCellVolume.C - setForce()
calculated integral particle volume  = 1.41372e-05,
 considering cells where the field < 1e+20, and > 0,
 the total volume of cells holding particles = 0.01,
 this results in an average volume fraction of:0.00141372,
 the min occurring voidfraction is:0.97651,
 the max occurring voidfraction is:1
volWeightedAverage.C - setForce()
calculated vol. weighted average of field: ddtVoidfraction = 0.150051,
 integral value  = 0.000278495,
 volume accounted for  = 0.001856,
 considering cells where the field < 1e+20, and > 0

Solver level total Eulerian momentum exchange:
  TotalForceImp:  (0 0 0)
  Warning, these values are based on latest Ksl and Us but prev. iteration U!

skipping flow solution.
ExecutionTime = 7.88 s  ClockTime = 9 s

Time = 0.199

Courant Number mean: 0 max: 0

 Coupling...
Starting up LIGGGHTS
Executing command: 'run 100    '
run 100    
Setting up run at Tue Dec  4 21:09:43 2018

Memory usage per processor = 9.38733 Mbytes
    Step    Atoms         KinEng            rke         Volume 
   39800     1000   0.0016795257  2.1494584e-07           0.01 
CFD Coupling established at step 39900
   39900     1000   0.0016784663  2.1860834e-07           0.01 
Loop time of 0.00364359 on 2 procs for 100 steps with 1000 atoms, finish time Tue Dec  4 21:09:43 2018


Pair  time (%) = 0.000382657 (10.5022)
Neigh time (%) = 0 (0)
Comm  time (%) = 0.000371817 (10.2047)
Outpt time (%) = 7.68185e-05 (2.10832)
Other time (%) = 0.00281229 (77.1848)

Nlocal:    500 ave 823 max 177 min
Histogram: 1 0 0 0 0 0 0 0 0 1
Nghost:    9.5 ave 13 max 6 min
Histogram: 1 0 0 0 0 0 0 0 0 1
Neighs:    45.5 ave 73 max 18 min
Histogram: 1 0 0 0 0 0 0 0 0 1

Total # of neighbors = 91
Ave neighs/atom = 0.091
Neighbor list builds = 0
Dangerous builds = 0
LIGGGHTS finished

 timeStepFraction() = 1
particleCellVolume.C - setForce()
calculated integral particle volume  = 1.41372e-05,
 considering cells where the field < 1e+20, and > 0,
 the total volume of cells holding particles = 0.01,
 this results in an average volume fraction of:0.00141372,
 the min occurring voidfraction is:0.976331,
 the max occurring voidfraction is:1
volWeightedAverage.C - setForce()
calculated vol. weighted average of field: ddtVoidfraction = 0.149649,
 integral value  = 0.000278646,
 volume accounted for  = 0.001862,
 considering cells where the field < 1e+20, and > 0

Solver level total Eulerian momentum exchange:
  TotalForceImp:  (0 0 0)
  Warning, these values are based on latest Ksl and Us but prev. iteration U!

skipping flow solution.
ExecutionTime = 7.91 s  ClockTime = 9 s

Time = 0.2

Courant Number mean: 0 max: 0

 Coupling...
Starting up LIGGGHTS
Executing command: 'run 100    '
run 100    
Setting up run at Tue Dec  4 21:09:43 2018

Memory usage per processor = 9.38733 Mbytes
    Step    Atoms         KinEng            rke         Volume 
   39900     1000   0.0016784663  2.1860834e-07           0.01 
CFD Coupling established at step 40000
   40000     1000   0.0016773909  2.2391885e-07           0.01 
Loop time of 0.00734809 on 2 procs for 100 steps with 1000 atoms, finish time Tue Dec  4 21:09:43 2018


Pair  time (%) = 0.00038385 (5.2238)
Neigh time (%) = 0 (0)
Comm  time (%) = 0.000353677 (4.81318)
Outpt time (%) = 0.00390932 (53.2018)
Other time (%) = 0.00270124 (36.7612)

Nlocal:    500 ave 823 max 177 min
Histogram: 1 0 0 0 0 0 0 0 0 1
Nghost:    9.5 ave 13 max 6 min
Histogram: 1 0 0 0 0 0 0 0 0 1
Neighs:    45.5 ave 73 max 18 min
Histogram: 1 0 0 0 0 0 0 0 0 1

Total # of neighbors = 91
Ave neighs/atom = 0.091
Neighbor list builds = 0
Dangerous builds = 0
LIGGGHTS finished

 timeStepFraction() = 1
particleCellVolume.C - setForce()
calculated integral particle volume  = 1.41372e-05,
 considering cells where the field < 1e+20, and > 0,
 the total volume of cells holding particles = 0.01,
 this results in an average volume fraction of:0.00141372,
 the min occurring voidfraction is:0.976026,
 the max occurring voidfraction is:1
volWeightedAverage.C - setForce()
calculated vol. weighted average of field: ddtVoidfraction = 0.151234,
 integral value  = 0.000280387,
 volume accounted for  = 0.001854,
 considering cells where the field < 1e+20, and > 0

Solver level total Eulerian momentum exchange:
  TotalForceImp:  (0 0 0)
  Warning, these values are based on latest Ksl and Us but prev. iteration U!

skipping flow solution.
ExecutionTime = 7.95 s  ClockTime = 9 s

End

Finalising parallel run
