/*--------------------------------*- C++ -*----------------------------------*\
| =========                 |                                                 |
| \\      /  F ield         | OpenFOAM: The Open Source CFD Toolbox           |
|  \\    /   O peration     | Version:  5.x                                   |
|   \\  /    A nd           | Web:      www.OpenFOAM.org                      |
|    \\/     M anipulation  |                                                 |
\*---------------------------------------------------------------------------*/
FoamFile
{
    version     2.0;
    format      ascii;
    class       surfaceScalarField;
    location    "0.85";
    object      alphaPhi10;
}
// * * * * * * * * * * * * * * * * * * * * * * * * * * * * * * * * * * * * * //

dimensions      [0 3 -1 0 0 0 0];

internalField   nonuniform List<scalar> 
4432
(
-4.45036e-06
4.45036e-06
-9.85177e-06
5.4014e-06
-1.57411e-05
5.88933e-06
-2.18133e-05
6.07216e-06
-2.59514e-05
4.13817e-06
-2.63522e-05
4.00766e-07
-2.44965e-05
-1.85563e-06
-2.28138e-05
-1.68275e-06
-2.20989e-05
-7.14881e-07
-2.19066e-05
-1.92295e-07
-2.18265e-05
-8.01754e-08
-2.15777e-05
-2.48756e-07
-2.07607e-05
-8.17006e-07
-1.88373e-05
-1.92338e-06
-1.57303e-05
-3.107e-06
-1.28653e-05
-2.51154e-06
-1.39169e-05
1.58441e-06
-2.04648e-05
5.53225e-06
-2.28768e-05
2.41204e-06
-2.02011e-05
-2.63412e-06
-1.43152e-05
-5.81248e-06
-6.6641e-06
-7.64109e-06
-6.66659e-06
-8.09111e-06
1.25415e-05
-1.56742e-05
1.29845e-05
-2.21892e-05
1.24043e-05
-2.69177e-05
1.08007e-05
-2.86802e-05
5.90068e-06
-2.76619e-05
-6.17487e-07
-2.52595e-05
-4.25803e-06
-2.32171e-05
-3.7252e-06
-2.23211e-05
-1.61089e-06
-2.21226e-05
-3.90763e-07
-2.1902e-05
-3.00828e-07
-2.11817e-05
-9.69032e-07
-1.97856e-05
-2.21311e-06
-1.80882e-05
-3.62073e-06
-1.68585e-05
-4.18898e-06
-1.61247e-05
-2.11297e-06
-1.77814e-05
2.8366e-06
-1.83248e-05
5.498e-06
-1.55796e-05
-3.32426e-07
-1.1564e-05
-6.38974e-06
-8.0994e-06
-9.18616e-06
-4.01436e-06
-1.1853e-05
-1.06809e-05
-8.38203e-06
2.09235e-05
-1.56288e-05
2.02313e-05
-2.17336e-05
1.85091e-05
-2.64779e-05
1.5545e-05
-2.89128e-05
8.3356e-06
-2.83175e-05
-1.21282e-06
-2.60869e-05
-6.48869e-06
-2.4073e-05
-5.73911e-06
-2.30297e-05
-2.65417e-06
-2.25782e-05
-8.42302e-07
-2.19584e-05
-9.20632e-07
-2.05607e-05
-2.36673e-06
-1.82165e-05
-4.55733e-06
-1.52771e-05
-6.56011e-06
-1.2615e-05
-6.85009e-06
-1.07244e-05
-3.89213e-06
-8.75036e-06
1.19478e-06
-5.84803e-06
2.55827e-06
-3.05606e-06
-3.25069e-06
-1.2617e-06
-8.31059e-06
-8.86503e-07
-9.68795e-06
-1.62498e-07
-1.27125e-05
-1.08434e-05
-7.41305e-06
2.83365e-05
-1.39591e-05
2.67773e-05
-1.97394e-05
2.42894e-05
-2.4438e-05
2.02436e-05
-2.69644e-05
1.0862e-05
-2.69114e-05
-1.2658e-06
-2.56639e-05
-7.7362e-06
-2.46644e-05
-6.73865e-06
-2.40938e-05
-3.22485e-06
-2.38085e-05
-1.12756e-06
-2.33234e-05
-1.40572e-06
-2.19676e-05
-3.72256e-06
-1.93466e-05
-7.17834e-06
-1.55184e-05
-1.03883e-05
-1.09588e-05
-1.14097e-05
-6.02822e-06
-8.82269e-06
-7.70829e-07
-4.06263e-06
3.25987e-06
-1.4597e-06
5.06036e-06
-5.06519e-06
5.02002e-06
-8.40763e-06
3.35441e-06
-8.29166e-06
1.72002e-06
-1.10781e-05
-9.12379e-06
-6.02549e-06
3.4362e-05
-1.1679e-05
3.24309e-05
-1.66072e-05
2.92176e-05
-2.03527e-05
2.39891e-05
-2.23049e-05
1.28143e-05
-2.28441e-05
-7.26632e-07
-2.34563e-05
-7.12399e-06
-2.44852e-05
-5.70978e-06
-2.51298e-05
-2.58023e-06
-2.52947e-05
-9.62655e-07
-2.49817e-05
-1.71878e-06
-2.37134e-05
-4.99079e-06
-2.09861e-05
-9.90569e-06
-1.67277e-05
-1.46467e-05
-1.13826e-05
-1.67548e-05
-5.47437e-06
-1.4731e-05
3.47875e-07
-9.88487e-06
4.78955e-06
-5.90138e-06
5.96948e-06
-6.24513e-06
5.22619e-06
-7.66434e-06
3.60497e-06
-6.67045e-06
1.72285e-06
-9.19598e-06
-7.40093e-06
-4.26977e-06
3.86318e-05
-8.70342e-06
3.68645e-05
-1.23625e-05
3.28767e-05
-1.47795e-05
2.6406e-05
-1.60705e-05
1.41053e-05
-1.72889e-05
4.91755e-07
-2.02351e-05
-4.17773e-06
-2.37348e-05
-2.21006e-06
-2.59834e-05
-3.31718e-07
-2.68872e-05
-5.8851e-08
-2.68251e-05
-1.78086e-06
-2.55889e-05
-6.22694e-06
-2.25613e-05
-1.29333e-05
-1.75076e-05
-1.97004e-05
-1.11501e-05
-2.31123e-05
-4.69652e-06
-2.11846e-05
6.75391e-07
-1.52568e-05
4.29255e-06
-9.51855e-06
5.06599e-06
-7.01856e-06
4.23074e-06
-6.8291e-06
2.81367e-06
-5.25336e-06
1.35563e-06
-7.73795e-06
-6.04529e-06
-2.28956e-06
4.09213e-05
-5.58249e-06
4.01574e-05
-8.02561e-06
3.53198e-05
-8.85294e-06
2.72333e-05
-9.24754e-06
1.44999e-05
-1.15708e-05
2.81501e-06
-1.75612e-05
1.8126e-06
-2.32056e-05
3.43434e-06
-2.68592e-05
3.32197e-06
-2.86027e-05
1.6846e-06
-2.89126e-05
-1.47091e-06
-2.75614e-05
-7.57818e-06
-2.3611e-05
-1.68837e-05
-1.68676e-05
-2.64436e-05
-8.91866e-06
-3.10606e-05
-1.73514e-06
-2.83679e-05
3.38966e-06
-2.03824e-05
6.18543e-06
-1.23145e-05
6.46076e-06
-7.29391e-06
5.19192e-06
-5.56027e-06
3.67079e-06
-3.73223e-06
1.82347e-06
-5.89063e-06
-4.22182e-06
-1.15279e-07
4.10366e-05
-1.10443e-06
4.11466e-05
-1.37032e-06
3.55857e-05
-1.83575e-07
2.60466e-05
-7.64161e-07
1.50805e-05
-7.49788e-06
9.58077e-06
-1.67089e-05
1.07457e-05
-2.32542e-05
9.97973e-06
-2.74572e-05
7.52491e-06
-3.00273e-05
4.2547e-06
-3.06771e-05
-8.21051e-07
-2.85679e-05
-9.68728e-06
-2.29662e-05
-2.24847e-05
-1.48562e-05
-3.45496e-05
-6.35285e-06
-3.9549e-05
6.82497e-07
-3.53899e-05
5.852e-06
-2.55518e-05
8.08154e-06
-1.45462e-05
7.8309e-06
-7.04374e-06
6.26528e-06
-3.9947e-06
4.81124e-06
-2.27819e-06
2.48632e-06
-3.56572e-06
-1.7355e-06
-1.2952e-05
1.26411e-05
-2.84889e-05
1.55369e-05
-1.80461e-05
-1.04576e-05
9.13542e-06
-2.71815e-05
2.12283e-05
-1.20711e-05
2.0405e-05
8.24275e-07
1.24304e-05
7.97462e-06
-1.66538e-05
2.29693e-05
-2.576e-05
1.20739e-05
-8.97273e-06
-1.33595e-05
-9.99997e-07
-6.84968e-06
-6.90992e-06
4.12093e-06
-1.64975e-05
6.53753e-06
-2.17263e-05
3.64249e-06
-2.76146e-05
5.88835e-06
-3.54321e-05
7.81747e-06
-3.29685e-05
-1.79603e-06
-1.7954e-05
-1.13213e-05
-1.342e-05
-2.23637e-05
3.42304e-05
-2.77401e-05
2.09134e-05
-9.52661e-06
-2.76437e-05
1.21393e-05
-4.73189e-05
2.03583e-05
-1.96627e-05
1.19342e-05
9.24924e-06
-1.39967e-05
3.37823e-05
-2.51587e-05
3.6641e-05
-7.97412e-06
2.42459e-07
2.14874e-06
-2.30412e-05
4.26641e-06
-6.66951e-06
5.64965e-06
1.19627e-06
6.04659e-06
2.34783e-06
6.52746e-06
7.86193e-07
3.99128e-06
4.86172e-06
-9.41823e-06
1.33641e-05
-1.79044e-05
7.41157e-06
-4.57684e-06
-1.95099e-05
-9.22889e-06
-2.09657e-05
4.81968e-05
-2.02898e-05
2.15852e-05
-3.50649e-06
-3.85394e-05
1.08289e-05
-5.68052e-05
9.56351e-06
-1.78999e-05
-1.00116e-05
2.8837e-05
-3.22249e-05
5.54818e-05
-8.26945e-06
1.30941e-05
-3.42004e-06
-3.4993e-06
-5.87494e-07
-2.76713e-05
-7.83828e-07
-5.81077e-06
-1.18175e-06
5.11208e-06
-1.1916e-06
5.19826e-06
6.63544e-07
-5.18515e-07
4.45962e-06
1.70136e-06
8.71475e-06
9.70973e-06
1.32864e-05
4.40984e-06
2.20662e-06
-8.56914e-06
-2.88404e-06
-1.65911e-05
7.06231e-05
-1.4607e-05
2.05215e-05
-2.88922e-06
-5.09516e-05
1.79622e-06
-6.97057e-05
-1.01429e-05
-5.89294e-06
-3.15135e-05
5.02118e-05
-1.66939e-05
4.23629e-05
-1.02994e-06
1.76459e-06
1.19348e-06
-3.78304e-06
-1.65994e-06
-7.98276e-06
-3.9223e-06
-4.90046e-06
-7.22681e-06
8.28902e-06
-6.83929e-06
5.01702e-06
-2.32326e-06
-7.7184e-06
5.31158e-06
-5.35901e-06
1.35763e-05
3.58794e-06
1.57631e-05
1.15463e-06
3.23595e-06
2.5384e-06
-1.4e-06
-1.30577e-05
8.6684e-05
-1.13922e-05
2.11149e-05
-6.3395e-06
-5.67274e-05
-1.25854e-05
-6.33698e-05
-3.39087e-05
1.55145e-05
-4.37649e-05
6.01961e-05
-3.08667e-06
9.78035e-06
2.8083e-07
-1.62496e-06
6.39592e-07
-1.41061e-06
-1.89125e-06
-3.12136e-06
-1.64416e-05
5.82732e-08
-1.77331e-05
1.00292e-05
-1.84611e-05
6.18042e-06
-1.93443e-05
-1.66996e-06
-1.6972e-05
-5.54911e-06
-3.60153e-06
-1.08216e-05
5.39344e-06
-1.10159e-05
5.89268e-06
8.55431e-07
-3.26437e-06
-8.29447e-06
9.59993e-05
-9.21275e-06
2.12797e-05
-1.17821e-05
-5.48502e-05
-3.12021e-05
-4.44695e-05
-5.22796e-05
3.66728e-05
-2.36933e-05
3.94847e-05
-2.9898e-07
-9.30647e-07
2.04185e-06
-3.97713e-06
6.10203e-07
1.44079e-08
-1.98167e-06
-5.43509e-07
-1.30101e-05
1.42718e-06
-2.77933e-05
7.24172e-06
-2.7012e-05
1.07206e-05
-3.12291e-05
6.88336e-06
-3.10703e-05
-6.51993e-06
-2.74045e-05
-1.95421e-05
-1.57995e-05
-3.00199e-05
6.07797e-06
-3.27495e-05
1.58793e-06
-6.69229e-06
0.000103423
-8.03046e-06
2.67578e-05
-1.95607e-05
-4.40734e-05
-4.72603e-05
-1.82376e-05
-5.65261e-05
4.71008e-05
-3.40085e-06
7.47762e-06
3.58442e-07
-4.70054e-06
1.21486e-06
-4.85246e-06
-1.95267e-07
1.40955e-06
-3.18448e-06
2.42679e-06
-1.55241e-05
4.3245e-06
-3.62561e-05
6.27473e-06
-3.78662e-05
3.87591e-06
-4.02975e-05
5.48792e-06
-3.42891e-05
-1.6355e-05
-2.84302e-05
-2.97393e-05
-3.42257e-05
-4.36872e-05
-2.82358e-06
-7.23867e-05
-8.73763e-07
-3.66656e-06
0.000107329
-6.59587e-06
3.1649e-05
-2.72854e-05
-2.65961e-05
-5.55016e-05
8.91252e-06
-3.04502e-05
3.6541e-05
-2.60342e-06
-3.77058e-07
-7.61392e-07
-6.53212e-06
-8.39209e-07
-1.21828e-05
-1.97843e-06
2.50903e-06
-4.57278e-06
4.9864e-06
-8.37682e-06
8.00284e-06
-1.37064e-05
1.06875e-05
-4.06288e-05
6.76842e-06
-5.38059e-05
3.87704e-06
-5.4404e-05
-1.87373e-05
-5.88101e-05
-4.02455e-05
-4.78239e-05
-7.88535e-05
-1.15441e-05
-0.000125548
-1.94042e-05
7.86181e-06
2.46907e-05
5.3287e-06
4.36797e-05
-4.82644e-07
4.1397e-05
-1.16884e-05
3.29985e-05
-2.79824e-05
2.51633e-05
-4.32966e-05
2.11652e-05
-5.08058e-05
1.82549e-05
-5.53059e-05
1.44799e-05
-6.05465e-05
1.27655e-05
-6.57917e-05
9.49993e-06
-6.79262e-05
1.31377e-06
-6.52464e-05
-1.23623e-05
-5.78942e-05
-2.98031e-05
-4.51244e-05
-4.63868e-05
-2.41446e-05
-4.65495e-05
-2.64188e-06
-3.62462e-05
1.24259e-05
-2.30876e-05
1.77509e-05
-1.12248e-05
1.51705e-05
-2.32686e-06
9.74591e-06
1.36665e-06
6.34558e-06
9.82287e-07
7.16564e-07
2.0633e-06
5.72074e-06
-6.73967e-06
-1.69115e-05
1.41433e-05
-3.03874e-05
1.43001e-05
-4.28459e-05
1.75017e-05
-5.11396e-05
1.41859e-05
-5.99364e-05
1.11973e-05
-6.55773e-05
9.43813e-06
-6.28752e-05
5.47388e-06
-5.94531e-05
3.55225e-06
-6.40135e-05
6.45373e-06
-7.29577e-05
1.05908e-05
-8.65555e-05
1.09096e-05
-0.000104373
4.60182e-06
-0.000105356
-7.02575e-06
-6.79153e-05
-2.42128e-05
-2.28814e-05
-3.23943e-05
-2.21281e-06
-1.53961e-05
4.96498e-06
-6.09163e-06
9.84161e-06
-1.02653e-06
1.37016e-05
-1.93319e-07
1.02743e-05
9.07835e-07
1.27409e-06
3.18264e-06
-6.0632e-06
3.66562e-06
5.45673e-06
-1.21304e-05
-1.56834e-05
-4.18762e-06
-2.74115e-05
-3.97405e-07
-3.53009e-05
-5.12266e-07
-3.80775e-05
-1.31675e-07
-3.28035e-05
-1.23622e-06
-4.14026e-05
8.51139e-07
-0.00011185
-4.58287e-06
-0.000149604
-5.89789e-06
-0.00017395
4.96958e-06
-0.000199622
1.47258e-05
-0.00019604
1.74349e-05
-9.54683e-05
2.77147e-06
-5.91805e-05
-1.12646e-05
-4.34838e-05
-4.0418e-05
-1.58935e-05
-4.87101e-05
-1.89444e-06
-1.50854e-05
9.46195e-08
-7.79904e-06
3.50191e-07
-1.32151e-06
3.09218e-07
1.95595e-08
3.68289e-07
2.54148e-07
-4.53635e-07
1.95911e-08
-2.36391e-06
1.09061e-07
-3.1135e-07
-6.92432e-06
-3.77048e-06
-4.14921e-07
-4.37166e-06
8.20259e-08
-5.0173e-06
5.89906e-09
-5.15791e-06
-1.83399e-07
-2.82633e-05
4.05785e-08
-7.98549e-05
-2.68998e-08
-8.88406e-05
-6.02874e-07
-7.47302e-05
-2.78137e-07
-8.40312e-05
-9.35186e-07
-9.91162e-05
-6.35679e-07
-9.65086e-05
-7.74207e-07
-9.35819e-05
1.28415e-07
-9.23401e-05
-1.2819e-05
-9.65451e-05
-3.63293e-05
-6.85604e-05
-6.90982e-05
-4.03496e-05
-3.98936e-05
-8.76278e-06
-2.63884e-05
-8.23477e-07
-2.95654e-06
-6.34006e-07
1.16746e-08
-6.20274e-07
1.86868e-07
-8.753e-07
2.01005e-07
-1.18524e-06
2.41475e-07
-1.50808e-07
-2.03974e-06
-3.54656e-07
-6.10746e-08
-3.07435e-07
1.99248e-08
-2.85155e-07
1.11058e-08
-4.90944e-07
6.33614e-09
-4.19091e-07
1.15326e-08
-1.27378e-07
-1.7984e-09
-7.34157e-07
-2.21928e-09
-9.7566e-07
-2.21065e-08
-1.84866e-06
-2.80416e-08
-2.4911e-06
-1.18461e-08
-3.24368e-06
-2.08331e-08
-6.89411e-06
-5.7885e-08
-1.58166e-05
-1.69627e-06
-3.19727e-05
-8.28012e-06
-5.47545e-05
-4.20519e-05
-4.9353e-05
-3.99886e-05
-3.88968e-05
-3.594e-05
-9.04611e-07
-8.49862e-06
-8.46765e-07
-7.67479e-08
-8.58294e-07
1.54813e-07
-1.00459e-06
2.99836e-07
-1.23503e-06
3.73698e-07
-2.95986e-07
-2.9475e-05
-6.62717e-08
5.41617e-09
-3.27884e-08
2.28592e-10
-1.81318e-08
1.92392e-09
-1.23164e-08
6.99539e-10
-1.26266e-09
2.92335e-10
-2.9992e-09
-1.05796e-11
-5.86394e-09
-7.80346e-11
-1.66604e-08
-2.86747e-10
-4.44778e-08
-7.25969e-10
-5.57598e-08
-9.45742e-10
-7.17489e-08
-1.02449e-09
-1.19006e-07
-4.55229e-09
-1.66669e-06
-1.80014e-07
-8.56145e-06
-1.51889e-06
-4.52323e-05
-1.31198e-05
-4.60182e-05
-3.82981e-05
-4.66763e-05
-3.95911e-05
-4.90113e-06
-2.34496e-05
-6.78639e-07
-4.34146e-06
-6.6424e-07
1.03862e-07
-5.76121e-07
1.83133e-07
-2.87329e-07
5.07482e-08
-2.10644e-07
-2.86169e-07
-7.69996e-09
1.28641e-08
-4.5025e-09
5.63892e-09
-1.22411e-09
3.37964e-10
-3.40862e-10
4.97419e-11
-2.47066e-11
7.59068e-12
-2.54488e-11
2.87079e-14
-9.4572e-11
-3.33761e-13
-3.95542e-10
-3.54327e-12
-1.0395e-09
-2.54637e-11
-1.4981e-09
-8.00704e-11
-1.55292e-09
-1.24584e-10
-3.70877e-09
-3.00279e-11
-1.7701e-07
-1.36227e-08
-1.57491e-06
-2.10133e-07
-1.91282e-05
-1.90628e-06
-5.08873e-05
-2.45399e-05
-5.60486e-05
-3.8151e-05
-4.43201e-05
-3.65587e-05
-1.1871e-06
-1.21605e-05
-4.29921e-07
-6.80281e-07
-3.15507e-07
3.58344e-08
-2.36975e-07
-6.18011e-08
-2.16954e-07
-2.64824e-07
2.98406e-09
9.85437e-09
-4.93955e-10
7.59422e-09
-8.8636e-11
1.28223e-10
-1.16004e-11
1.37045e-11
-7.75509e-13
3.6044e-13
-4.89297e-13
3.82791e-14
-2.353e-12
5.92232e-14
-7.18249e-12
1.83454e-14
-1.86965e-11
-1.84121e-12
-3.41404e-11
-8.50155e-12
-3.02678e-11
-2.07475e-11
8.00332e-11
-2.22893e-11
-1.35248e-08
-3.39689e-10
-2.13262e-07
-1.64876e-08
-1.91972e-06
-2.56308e-07
-2.87021e-05
-2.67972e-06
-5.49338e-05
-2.39667e-05
-5.28661e-05
-3.53288e-05
-2.09071e-05
-3.10244e-05
-1.43669e-06
-5.1933e-06
-5.14698e-07
-9.19043e-07
-4.08083e-07
-2.02573e-07
-2.95104e-07
-3.82444e-07
4.04739e-09
5.80916e-09
-3.44314e-11
1.4779e-08
-5.57298e-12
3.31281e-10
-7.35295e-13
9.28219e-12
-7.10022e-14
2.61346e-13
-3.60704e-14
3.23112e-14
-5.30958e-14
3.36333e-14
1.71857e-14
6.67008e-14
5.61092e-13
-4.34951e-13
2.14142e-12
-9.97448e-13
2.08782e-12
-4.70141e-13
4.24816e-12
-2.13261e-12
-2.09477e-10
-1.63786e-11
-1.66934e-08
-1.82064e-10
-2.64867e-07
-1.26068e-08
-2.76777e-06
-2.21601e-07
-3.00319e-05
-2.07292e-06
-5.66243e-05
-1.41659e-05
-5.82186e-05
-2.59714e-05
-3.15211e-05
-2.84671e-05
-8.45529e-06
-3.47811e-05
-8.38243e-06
-1.21891e-05
-1.31361e-05
-3.68095e-06
1.99577e-09
3.80967e-09
1.83965e-09
2.65099e-08
5.24783e-12
2.80239e-09
-1.15076e-13
1.46939e-11
-2.46883e-14
1.82654e-13
-1.42959e-14
2.81085e-14
-5.41103e-16
1.80804e-14
2.08933e-14
4.29573e-14
2.62294e-13
4.5134e-14
2.92346e-12
7.20064e-13
5.98344e-12
2.00116e-12
2.22826e-12
8.76081e-13
5.07892e-16
3.20633e-12
-7.98331e-11
-9.56938e-12
-1.2852e-08
-2.00202e-11
-2.28259e-07
-9.04865e-09
-2.16576e-06
-1.63097e-07
-1.50749e-05
-1.44088e-06
-5.54353e-05
-8.40087e-06
-9.20127e-05
-4.10065e-05
-8.61203e-05
-5.27029e-05
-9.78341e-05
-4.03643e-05
-3.40862e-05
-6.03642e-05
1.65565e-09
2.40663e-09
6.34655e-09
2.83101e-08
1.61837e-10
1.12034e-08
4.23599e-12
1.75438e-10
5.73553e-14
4.42695e-12
9.19231e-15
7.5032e-14
1.70576e-14
8.94822e-15
3.09032e-14
2.78453e-14
5.01556e-13
5.2122e-14
2.50404e-12
1.82783e-12
2.40223e-12
-2.89302e-14
2.67156e-12
2.16491e-12
2.03707e-12
7.71786e-12
1.39632e-13
5.58373e-12
1.79955e-11
-1.92495e-12
-8.83769e-09
-1.52438e-10
-1.67227e-07
-4.68817e-09
-1.53273e-06
-7.61629e-08
-9.32158e-06
-6.14184e-07
-6.52236e-05
-4.88277e-06
-9.76197e-05
-2.64828e-05
-9.41379e-05
-4.05941e-05
-4.47832e-05
-8.28043e-05
4.89608e-10
7.22329e-10
8.78733e-09
2.66906e-08
2.00857e-09
1.58867e-08
8.15114e-11
2.74511e-09
2.07138e-12
8.70083e-11
9.2561e-14
2.11941e-12
5.32436e-14
4.70219e-14
5.39131e-14
2.98993e-14
1.4644e-13
4.76693e-14
8.25986e-13
2.27425e-13
5.97368e-13
2.10114e-13
5.49425e-12
2.53919e-12
6.87135e-12
1.78797e-11
2.78585e-12
2.18494e-11
-9.40251e-13
5.99399e-12
-2.13641e-11
-8.52376e-12
-4.54046e-09
-8.69058e-11
-8.04731e-08
-4.61054e-11
-6.93595e-07
-1.03621e-09
-5.56442e-06
-8.42367e-09
-3.86047e-05
-5.01185e-08
-6.42604e-05
-2.93932e-07
-1.58361e-06
-3.84185e-05
6.7348e-10
4.88822e-11
5.83222e-09
2.22756e-09
4.65449e-09
1.02693e-08
4.58978e-10
5.75285e-09
2.32392e-11
8.72804e-10
9.07238e-13
2.76215e-11
7.31536e-14
1.06826e-12
3.52762e-14
9.81884e-14
4.66548e-14
4.70547e-14
8.90233e-14
2.06304e-16
2.77716e-13
2.27578e-14
6.19961e-12
5.28211e-12
7.90008e-12
1.81594e-11
4.62765e-12
1.81526e-11
3.43279e-13
3.65247e-12
-1.24692e-12
1.02452e-13
-1.52804e-11
-2.67186e-12
-8.1371e-11
2.69608e-12
-1.01563e-09
-1.12704e-10
-8.24404e-09
-1.19484e-09
-5.61025e-08
-2.05672e-09
-3.46387e-07
-3.88387e-09
-1.8147e-08
-1.91198e-06
4.42603e-11
4.67599e-12
1.1557e-09
1.50473e-10
3.69192e-09
3.8161e-10
1.59095e-09
1.40176e-09
3.80866e-11
1.02165e-09
4.56565e-12
5.23537e-11
1.07124e-13
4.86473e-12
-4.7474e-14
3.49839e-13
9.5594e-15
3.10609e-14
1.20773e-14
9.25038e-15
2.75784e-14
6.82981e-15
5.84595e-12
3.59255e-12
9.53545e-12
1.61418e-11
8.41011e-12
2.08603e-11
-3.00775e-14
4.12775e-12
2.38569e-13
3.17148e-13
6.66742e-13
1.83779e-12
-5.27913e-11
2.61177e-11
-6.06673e-10
1.18746e-10
-1.54763e-09
-2.36723e-10
-2.43634e-09
-1.22415e-09
-4.82589e-09
-1.30156e-09
-2.744e-09
-1.99717e-08
4.50543e-12
1.76018e-13
1.39093e-10
1.33248e-11
3.64931e-10
5.95274e-11
5.0509e-10
2.63575e-11
3.11543e-10
-2.56085e-11
1.57456e-12
8.45076e-11
2.8484e-13
4.56375e-12
1.35286e-14
5.28759e-13
7.27146e-15
3.34808e-14
8.14716e-15
9.42259e-15
8.19092e-15
6.25428e-15
3.48628e-12
1.14035e-13
9.91084e-12
6.198e-12
4.44354e-12
6.09568e-12
-4.90418e-14
2.28904e-12
1.65791e-13
3.3021e-13
1.82843e-12
2.27684e-13
-2.74671e-11
5.62066e-11
-8.40224e-09
2.50251e-09
-1.71947e-08
3.52575e-09
-3.99593e-09
-2.63324e-09
-4.79023e-09
-2.5003e-10
-1.74521e-09
-6.04671e-09
-6.69797e-14
1.53926e-13
1.438e-11
1.09034e-12
5.55172e-11
5.39368e-12
5.74489e-11
2.54864e-12
2.25616e-11
-2.28841e-12
1.63631e-11
-1.86227e-12
-6.9407e-13
2.81756e-12
-3.27979e-14
1.55946e-13
7.50132e-15
2.23476e-14
6.39754e-15
8.6943e-15
5.95695e-15
6.44248e-15
1.10241e-13
9.32632e-15
1.2767e-12
9.77549e-14
9.15722e-13
-1.88057e-14
4.45522e-13
3.36934e-13
1.09002e-13
3.32798e-13
2.59486e-13
5.00499e-14
5.20682e-11
4.4544e-12
-1.18977e-09
1.10996e-09
-3.41855e-08
1.6948e-08
-4.17085e-09
1.0036e-08
-5.38721e-09
7.08835e-10
6.43509e-12
-7.82601e-09
-3.8447e-14
1.45713e-13
8.95732e-13
2.1564e-13
5.14973e-12
5.57501e-13
6.61119e-12
2.64451e-13
3.14874e-12
-2.64361e-13
7.38463e-13
-1.02562e-13
3.89826e-13
-6.65477e-14
2.22268e-14
1.09358e-13
6.95266e-15
2.05793e-14
4.86642e-15
7.04256e-15
4.69856e-15
6.5694e-15
7.89797e-15
5.8347e-15
9.7416e-14
8.30209e-15
7.02343e-14
2.95805e-15
1.73692e-13
3.84699e-14
7.9668e-14
1.53454e-13
6.61772e-14
3.3804e-14
4.06194e-12
4.42786e-13
9.81452e-10
1.32062e-10
-1.86258e-08
1.47448e-08
-2.48127e-08
3.30932e-08
-3.13527e-09
2.61363e-08
3.66006e-09
-7.51427e-09
-9.36694e-15
7.39844e-14
7.5246e-14
5.93448e-14
5.13569e-13
7.55152e-14
5.93842e-13
5.09426e-14
2.39156e-13
-6.62259e-16
7.55227e-14
1.09839e-14
3.23135e-14
1.59191e-14
2.02457e-14
1.4941e-14
4.81414e-15
7.4705e-15
3.83544e-15
4.43886e-15
4.01017e-15
5.33612e-15
3.95323e-15
5.51071e-15
7.76048e-15
4.56632e-15
1.05624e-14
6.37071e-15
4.68236e-14
1.89678e-14
5.52987e-14
5.35138e-14
3.13486e-14
2.89909e-14
4.31517e-13
3.75179e-14
1.20431e-10
1.20245e-11
1.10436e-08
1.44381e-09
-7.01504e-09
4.29576e-08
-3.27496e-09
2.80963e-08
1.39511e-08
7.56978e-09
-1.86984e-17
1.80079e-14
1.13306e-14
2.78446e-14
5.60004e-14
1.96903e-14
6.26272e-14
2.03972e-14
2.87211e-14
2.34822e-14
1.55268e-14
1.62757e-14
7.36689e-15
8.41211e-15
3.29044e-15
2.91679e-15
2.15784e-15
1.66004e-15
2.1177e-15
2.29029e-15
2.79214e-15
3.25428e-15
2.79757e-15
3.25396e-15
2.9853e-15
2.96228e-15
5.01815e-15
4.24615e-15
1.48458e-14
7.09522e-15
2.21715e-14
1.60449e-14
1.21751e-14
1.55541e-14
4.40113e-14
4.07651e-15
1.08661e-11
1.21034e-12
1.26642e-09
1.87385e-10
3.35297e-08
4.98229e-09
1.4425e-08
5.50852e-08
6.33928e-09
5.55208e-08
3.70702e-16
3.69411e-15
3.20454e-15
1.2543e-14
8.16872e-15
1.26661e-14
9.75298e-15
1.1794e-14
7.59146e-15
1.06321e-14
3.87949e-15
5.52031e-15
1.43395e-15
1.83939e-15
6.71883e-16
5.94706e-16
6.04018e-16
4.30081e-16
1.18598e-15
9.79014e-16
1.45713e-15
1.4957e-15
1.3782e-15
1.32606e-15
1.40359e-15
1.2515e-15
2.18844e-15
1.51311e-15
4.29505e-15
1.96213e-15
7.19329e-15
3.9784e-15
7.38624e-15
5.66094e-15
9.36627e-15
1.14759e-15
1.13212e-12
8.59661e-14
1.72693e-10
1.57545e-11
4.68232e-09
4.63774e-10
5.76546e-08
1.0263e-08
6.12106e-08
3.62673e-08
1.09601e-16
7.34965e-16
1.10223e-15
3.66238e-15
1.94781e-15
4.05197e-15
2.25629e-15
3.54285e-15
1.65499e-15
2.30298e-15
6.86885e-16
9.33624e-16
2.42338e-16
3.02102e-16
1.43039e-16
1.06496e-16
1.43818e-16
9.78257e-17
4.77454e-16
3.19972e-16
5.86898e-16
4.99164e-16
5.25656e-16
4.42185e-16
5.23864e-16
3.83236e-16
6.72317e-16
3.86236e-16
1.03684e-15
4.28493e-16
2.19807e-15
7.4695e-16
2.94707e-15
1.5545e-15
2.38978e-15
8.1167e-16
8.32337e-14
4.88418e-15
1.50063e-11
8.26091e-13
4.53002e-10
2.51782e-11
1.03755e-08
3.37174e-10
1.84512e-09
1.09808e-07
2.19777e-17
1.31098e-16
2.59999e-16
6.53641e-16
4.16034e-16
7.12665e-16
4.31335e-16
5.92474e-16
2.59453e-16
3.36275e-16
1.02015e-16
1.32666e-16
3.78968e-17
4.4927e-17
2.6968e-17
1.72859e-17
2.9385e-17
1.77644e-17
1.34148e-16
6.58326e-17
1.75809e-16
1.19351e-16
1.67949e-16
1.17574e-16
1.57813e-16
1.01049e-16
1.66579e-16
8.70305e-17
2.129e-16
8.37557e-17
4.58046e-16
1.24824e-16
7.93931e-16
3.04897e-16
7.48987e-16
5.52245e-16
5.23636e-15
5.42375e-16
7.9924e-13
3.19935e-14
2.48807e-11
1.01227e-12
3.49399e-10
1.322e-11
8.93329e-11
2.19049e-09
3.73116e-18
2.12459e-17
4.23688e-17
8.87194e-17
6.54458e-17
9.34647e-17
6.24471e-17
7.61023e-17
3.54858e-17
4.38403e-17
1.415e-17
1.78806e-17
5.57847e-18
6.29792e-18
4.39093e-18
2.61216e-18
5.18442e-18
2.79707e-18
2.54613e-17
9.17553e-18
4.07828e-17
2.01888e-17
4.36459e-17
2.43721e-17
4.02403e-17
2.27638e-17
3.83178e-17
1.80758e-17
4.10947e-17
1.56308e-17
8.33569e-17
2.13367e-17
2.60103e-16
7.20451e-17
6.31771e-16
4.18449e-16
8.98236e-16
4.57328e-16
3.16594e-14
5.37949e-16
1.02953e-12
1.69205e-14
1.41323e-11
1.99506e-13
1.20519e-12
1.05769e-10
5.81899e-19
3.22559e-18
5.64321e-18
1.15073e-17
8.46791e-18
1.11214e-17
7.94684e-18
9.20942e-18
4.58646e-18
5.50466e-18
1.86235e-18
2.29789e-18
7.74714e-19
8.29513e-19
6.44837e-19
3.72353e-19
8.22312e-19
4.09659e-19
3.69136e-18
1.15337e-18
7.45065e-18
2.72777e-18
8.73193e-18
4.07873e-18
8.92823e-18
4.08064e-18
7.67541e-18
3.38494e-18
7.79413e-18
2.6477e-18
1.59247e-17
3.80168e-18
9.99891e-17
2.64208e-17
6.54828e-16
3.15292e-16
9.39183e-16
5.28067e-16
1.00283e-15
3.32215e-16
1.67636e-14
9.75638e-16
2.99455e-13
-2.78234e-15
-1.01604e-13
1.73181e-12
8.51534e-20
4.62298e-19
6.83338e-19
1.44668e-18
1.00709e-18
1.29117e-18
9.53268e-19
1.08422e-18
5.60392e-19
6.58592e-19
2.31261e-19
2.78228e-19
1.01687e-19
1.02629e-19
8.85629e-20
5.00934e-20
1.22722e-19
5.78745e-20
4.90962e-19
1.51333e-19
1.10321e-18
3.49538e-19
1.47996e-18
5.7512e-19
1.59355e-18
6.08885e-19
1.39091e-18
5.33951e-19
1.31915e-18
3.97355e-19
2.94597e-18
5.94882e-19
3.84137e-17
8.01937e-18
3.91196e-16
2.24604e-16
8.06088e-16
4.73259e-16
5.15122e-16
2.64143e-16
1.34499e-15
4.69805e-17
8.81656e-14
1.58901e-14
1.40922e-15
4.21552e-14
1.17399e-20
6.27269e-20
7.99674e-20
1.71213e-19
1.09562e-19
1.43394e-19
1.07962e-19
1.21057e-19
6.46834e-20
7.44645e-20
2.71252e-20
3.1806e-20
1.26299e-20
1.19687e-20
1.15014e-20
6.36258e-21
1.76377e-20
7.90067e-21
6.46395e-20
2.02519e-20
1.48084e-19
4.48496e-20
2.17007e-19
7.37876e-20
2.37267e-19
8.05624e-20
2.16964e-19
7.20297e-20
1.95327e-19
5.22271e-20
4.16181e-19
6.77765e-20
8.59952e-18
1.04869e-18
2.61805e-16
5.48304e-17
5.33793e-16
2.28247e-16
3.78321e-16
1.79112e-16
2.79603e-16
3.33187e-17
2.9877e-14
3.01463e-15
7.41752e-16
5.42328e-15
1.53067e-21
8.08831e-21
9.07312e-21
1.9098e-20
1.12591e-20
1.51405e-20
1.15468e-20
1.28059e-20
7.07383e-21
7.98384e-21
3.01134e-21
3.44668e-21
1.48542e-21
1.32024e-21
1.41121e-21
7.63045e-22
2.43165e-21
1.02866e-21
8.37481e-21
2.63151e-21
1.89045e-20
5.63846e-21
2.84706e-20
9.05148e-21
3.14268e-20
9.85045e-21
2.93499e-20
8.76424e-21
2.54603e-20
6.16276e-21
4.02721e-20
5.9993e-21
7.97549e-19
4.63479e-20
4.98449e-17
4.38328e-18
1.56013e-16
2.92722e-17
1.64575e-16
3.39874e-17
8.19861e-17
2.3977e-17
1.0087e-15
1.20766e-17
9.92324e-18
4.06565e-16
1.8959e-22
9.94633e-22
9.71747e-22
2.02386e-21
1.11566e-21
1.52418e-21
1.17197e-21
1.29128e-21
7.34372e-22
8.14967e-22
3.16859e-22
3.55081e-22
1.65455e-22
1.38196e-22
1.63294e-22
8.63306e-23
3.16117e-22
1.25866e-22
1.04298e-21
3.23071e-22
2.30409e-21
6.75868e-22
3.46033e-21
1.06585e-21
3.81764e-21
1.132e-21
3.55785e-21
9.93687e-22
2.92647e-21
6.75098e-22
3.24821e-21
5.27755e-22
3.40866e-20
1.3937e-21
2.9633e-18
9.82034e-20
1.7087e-17
8.4211e-19
2.21046e-17
1.95473e-18
1.62797e-17
1.88172e-18
1.52853e-17
2.65887e-19
1.46264e-18
6.41392e-17
2.23998e-23
1.16978e-22
9.8824e-23
2.04851e-22
1.06043e-22
1.46678e-22
1.13396e-22
1.24608e-22
7.24911e-23
7.94505e-23
3.16399e-23
3.48661e-23
1.74554e-23
1.37674e-23
1.77954e-23
9.22437e-24
3.82017e-23
1.43679e-23
1.22531e-22
3.70573e-23
2.65399e-22
7.60737e-23
3.92562e-22
1.18705e-22
4.30002e-22
1.21933e-22
3.95183e-22
1.05437e-22
2.89297e-22
6.9766e-23
2.9144e-22
4.83528e-23
1.26849e-21
6.41654e-23
8.05243e-20
1.99058e-21
6.4064e-19
1.60334e-20
1.3846e-18
5.70989e-20
1.48071e-18
8.65339e-20
7.28581e-19
3.77348e-20
1.87972e-19
9.49434e-18
2.53347e-24
1.31866e-23
9.58706e-24
1.98844e-23
9.66476e-24
1.35307e-23
1.04908e-23
1.15387e-23
6.81561e-24
7.41742e-24
3.00258e-24
3.27159e-24
1.74619e-24
1.30885e-24
1.8287e-24
9.34487e-25
4.27482e-24
1.53528e-24
1.34449e-23
3.96961e-24
2.86034e-23
8.00294e-24
4.13446e-23
1.23644e-23
4.48654e-23
1.22342e-23
4.04298e-23
1.04131e-23
2.76512e-23
6.69286e-24
2.6242e-23
4.33097e-24
5.85518e-23
4.45898e-24
2.37251e-21
6.32225e-23
1.93486e-20
4.76244e-22
6.94877e-20
1.84628e-21
1.1119e-19
5.55061e-21
8.66599e-20
4.79229e-21
5.52564e-21
5.1577e-19
2.75206e-25
1.42612e-24
8.90385e-25
1.85751e-24
8.45623e-25
1.19993e-24
9.29704e-25
1.02766e-24
6.11512e-25
6.64868e-25
2.71283e-25
2.94134e-25
1.65995e-25
1.19111e-25
1.77686e-25
9.0136e-26
4.45394e-25
1.5499e-25
1.37651e-24
3.99895e-25
2.87344e-24
7.9011e-25
4.0232e-24
1.20169e-24
4.33128e-24
1.14617e-24
3.80849e-24
9.5631e-25
2.47087e-24
5.96509e-25
2.23272e-24
3.57256e-25
3.42472e-24
3.47514e-25
8.11626e-23
2.76222e-24
6.81306e-22
1.99876e-23
2.76274e-21
6.61451e-23
6.66857e-21
2.08593e-22
7.62551e-21
2.51062e-22
1.90074e-22
1.43922e-20
2.87853e-26
1.47409e-25
7.94045e-26
1.67498e-25
7.11104e-26
1.025e-25
7.90542e-26
8.8225e-26
5.24619e-26
5.73644e-26
2.33851e-26
2.54053e-26
1.50324e-26
1.04096e-26
1.63732e-26
8.3113e-27
4.35789e-26
1.49047e-26
1.32126e-25
3.82139e-26
2.69647e-25
7.38132e-26
3.63034e-25
1.09262e-25
3.89443e-25
1.0144e-25
3.30037e-25
8.20509e-26
2.03816e-25
4.94266e-26
1.74957e-25
2.72456e-26
2.23911e-25
2.56006e-26
3.51952e-24
1.62361e-25
2.79659e-23
1.03354e-24
9.0642e-23
2.32017e-24
2.32707e-22
4.62708e-24
3.55618e-22
7.88462e-24
2.4409e-23
8.57229e-22
2.88635e-27
1.41378e-26
6.81432e-27
1.45754e-26
5.74905e-27
8.42228e-27
6.45896e-27
7.30608e-27
4.31205e-27
4.77386e-27
1.92727e-27
2.11357e-27
1.30079e-27
8.76021e-28
1.43623e-27
7.36156e-28
4.0311e-27
1.37261e-27
1.1963e-26
3.48683e-27
2.37568e-26
6.5722e-27
3.13168e-26
9.36973e-27
3.23446e-26
8.54118e-27
2.63618e-26
6.62562e-27
1.5543e-26
3.83452e-27
1.27033e-26
1.95093e-27
1.45624e-26
1.77274e-27
1.82335e-25
9.4704e-27
1.25624e-24
5.42631e-26
3.04226e-24
9.66615e-26
6.90673e-24
1.51351e-25
2.06883e-23
6.38924e-25
6.07427e-24
1.43761e-22
2.64441e-28
1.06282e-27
5.61213e-28
1.20032e-27
4.45522e-28
6.54466e-28
5.07474e-28
5.79454e-28
3.40251e-28
3.83042e-28
1.52155e-28
1.69727e-28
1.07893e-28
7.11901e-29
1.2037e-28
6.28971e-29
3.54182e-28
1.21565e-28
1.02687e-27
3.05233e-28
1.97675e-27
5.60516e-28
2.54547e-27
7.66262e-28
2.53024e-27
6.83231e-28
1.9655e-27
5.07942e-28
1.10205e-27
2.80851e-28
8.5647e-28
1.32279e-28
9.14883e-28
1.16568e-28
9.78472e-27
5.48836e-28
5.74488e-26
2.71996e-27
1.19135e-25
4.46824e-27
2.82625e-25
8.71128e-27
2.31076e-24
9.81287e-26
1.36343e-24
3.01275e-23
1.63355e-29
5.33697e-29
4.29029e-29
8.19636e-29
3.25407e-29
4.28543e-29
3.81993e-29
4.20067e-29
2.58541e-29
2.92244e-29
1.15334e-29
1.31503e-29
8.59786e-30
5.59994e-30
9.66242e-30
5.19922e-30
2.96687e-29
1.04023e-29
8.38666e-29
2.57478e-29
1.55972e-28
4.59847e-29
1.95667e-28
6.00618e-29
1.86693e-28
5.22037e-29
1.37631e-28
3.71213e-29
7.30306e-29
1.95218e-29
5.3262e-29
8.53349e-30
5.55926e-29
7.29955e-30
5.2077e-28
3.14728e-29
2.57494e-27
1.31622e-28
5.03528e-27
2.04162e-28
1.65121e-26
6.28069e-28
3.0369e-25
1.37167e-26
1.76712e-25
4.7825e-24
7.88056e-31
3.89505e-29
2.403e-30
6.92205e-30
1.94101e-30
1.88487e-30
2.71552e-30
2.29219e-30
1.90831e-30
1.95024e-30
8.43001e-31
9.63552e-31
6.53288e-31
4.25201e-31
7.48587e-31
4.16951e-31
2.37705e-30
8.64824e-31
6.53182e-30
2.10322e-30
1.16931e-29
3.64533e-30
1.42645e-29
4.53132e-30
1.30164e-29
3.82932e-30
9.06751e-30
2.59555e-30
4.53242e-30
1.29243e-30
3.10319e-30
5.25528e-31
3.21965e-30
4.38341e-31
2.68972e-29
1.76307e-30
1.11945e-28
6.21721e-30
2.1183e-28
9.35364e-30
1.10508e-27
4.65092e-29
3.22609e-26
1.34483e-27
1.38659e-26
4.70014e-25
-4.14119e-30
-1.11965e-28
8.95069e-32
2.69136e-30
7.86209e-32
1.46817e-30
1.17696e-31
1.59062e-30
1.24892e-31
1.20533e-31
6.01639e-32
5.78968e-32
4.69723e-32
3.03092e-32
5.62521e-32
3.26106e-32
1.82462e-31
7.03077e-32
4.85406e-31
1.67275e-31
8.32713e-31
2.80627e-31
9.86525e-31
3.30656e-31
8.56854e-31
2.7086e-31
5.61148e-31
1.74278e-31
2.62959e-31
8.17535e-32
1.70507e-31
3.10342e-32
1.76144e-31
2.54317e-32
1.33867e-30
9.76467e-32
4.72382e-30
2.89739e-31
8.90969e-30
4.48679e-31
7.44238e-29
3.61093e-30
2.74927e-27
1.2206e-28
1.21881e-27
3.6507e-26
-3.40922e-30
-9.31966e-29
-3.79043e-31
-6.40525e-30
-1.98539e-31
-2.31784e-30
-3.83785e-32
-3.47773e-31
5.03981e-33
6.20718e-32
3.34361e-33
8.54645e-33
2.97537e-33
1.74067e-33