/*--------------------------------*- C++ -*----------------------------------*\
| =========                 |                                                 |
| \\      /  F ield         | OpenFOAM: The Open Source CFD Toolbox           |
|  \\    /   O peration     | Version:  5.x                                   |
|   \\  /    A nd           | Web:      www.OpenFOAM.org                      |
|    \\/     M anipulation  |                                                 |
\*---------------------------------------------------------------------------*/
FoamFile
{
    version     2.0;
    format      ascii;
    class       volScalarField;
    location    "0.85";
    object      alpha.water;
}
// * * * * * * * * * * * * * * * * * * * * * * * * * * * * * * * * * * * * * //

dimensions      [0 0 0 0 0 0 0];

internalField   nonuniform List<scalar> 
2268
(
1
1
1
1
1
1
1
1
1
1
1
1
1
1
1
0.993426
0.937089
0.910859
1
0.999032
0.997256
0.998617
0.999769
1
1
1
1
1
1
1
1
1
1
1
1
1
0.999999
0.999096
0.948318
0.924507
0.941392
0.999974
0.97514
0.961918
0.987839
1
1
1
1
1
1
1
1
1
1
1
1
1
1
1
0.999996
0.995972
0.973472
0.962961
0.960558
0.960557
0.960726
0.985306
1
1
1
1
1
1
1
1
1
1
1
1
1
1
1
1
1
1
0.999872
0.998751
0.997369
0.98314
1
0.999968
1
1
1
1
1
1
1
1
1
1
1
1
1
1
1
1
1
1
1
1
1
1
1
1
1
1
1
1
1
1
1
1
1
1
1
1
1
1
1
1
1
1
1
1
1
1
1
1
1
1
1
1
1
1
1
1
1
1
1
0.999999
0.999995
0.999992
0.999996
0.999999
1
1
1
1
1
1
1
1
1
1
0.998986
0.989436
1
1
1
1
1
0.999995
0.999971
0.999888
0.999809
0.999874
0.999964
0.999995
0.999999
1
1
1
0.984015
1
0.999996
1
0.999904
0.999997
1
0.836342
0.920117
0.723627
0.73376
0.82718
0.908902
0.981579
1
1
0.992946
0.932923
0.887281
0.999244
0.999994
0.994175
0.956985
0.99588
0.999996
1
0.854885
0.456254
0.299626
0.340759
0.457757
0.595807
0.580817
0.594269
0.786929
0.991894
0.736188
0.299226
0.943181
0.990581
0.875313
0.879719
0.992688
0.999927
0.997459
0.651065
0.208883
0.233327
0.299983
0.369561
0.375643
0.424328
0.425503
0.428128
0.866797
0.844001
0.140234
0.889823
0.961073
0.817224
0.94422
0.998364
0.999663
0.897389
0.199975
0.108135
0.530704
0.623595
0.641593
0.636875
0.720239
0.764483
0.769352
0.788323
0.722799
0.162581
0.970769
0.905304
0.816818
0.997403
0.99819
0.996438
0.630206
0.0810069
0.0822367
0.0817675
0.184371
0.649513
0.649911
0.594694
0.542093
0.663502
0.710874
0.47366
0.460411
0.988077
0.819008
0.817314
0.992712
0.997546
0.899979
0.202284
0.0808939
0.0808946
0.0808933
0.13613
0.539566
0.555604
0.228791
0.233804
0.337114
0.553968
0.765652
0.904651
0.993446
0.861577
0.819008
0.978865
0.984532
0.583079
0.08201
0.0809243
0.0808931
0.0809243
0.114953
0.275722
0.298824
0.228791
0.228791
0.2398
0.406737
0.898367
0.999331
0.998014
0.974656
0.826721
0.97572
0.854345
0.210535
0.0823197
0.120554
0.0810004
0.080887
0.0813016
0.0856005
0.186696
0.492185
0.498615
0.535377
0.667921
0.522734
0.459794
0.958596
1
1
1
0.975823
0.99372
1
1
1
1
0.999999
0.999985
0.999889
0.998752
0.964778
0.904856
0.873417
0.896123
0.953438
0.988778
0.999965
1
1
0.67411
0.69057
0.739818
0.71465
0.691292
0.72546
0.755556
0.781013
0.856947
0.915032
0.932579
0.93112
0.869771
0.655743
0.392773
0.217735
0.158848
0.179944
0.289823
0.477921
0.652707
0.737901
0.859063
0.199753
0.101138
0.153635
0.156414
0.139418
0.159095
0.418749
0.715165
0.786067
0.820534
0.814541
0.451447
0.182725
0.163848
0.136437
0.0214899
0.00500273
0.00401529
0.00322215
0.00517753
0.0246206
0.0534777
0.126323
-1.49832e-05
0.000907092
0.00101142
0.000973507
0.0294398
0.24502
0.325686
0.21251
0.193516
0.247069
0.264959
0.24592
0.246188
0.239514
0.205777
0.127958
0.0787798
0.00494714
0.00287436
0.00283726
0.00310454
0.00417693
0.00671305
-7.95879e-06
0.000207849
0.000149072
8.53142e-05
0.000204779
0.00106819
1.96179e-05
0.000519085
0.00010796
0.000183158
0.000228416
0.0118933
0.0445066
0.109129
0.176965
0.185598
0.189508
0.0650366
0.00281686
0.00268205
0.0026692
0.00311121
0.046007
-3.07121e-06
8.34832e-05
3.41756e-05
7.82143e-06
2.57561e-06
1.76747e-07
9.52613e-06
5.1643e-06
5.19581e-06
1.00481e-05
1.81992e-05
0.000218564
0.000435021
0.00202116
0.0747022
0.189508
0.193157
0.138319
0.00270912
0.00265382
0.00255368
0.00256666
0.00326748
-1.0017e-06
5.05992e-05
6.97017e-06
7.72738e-07
1.12717e-07
1.19912e-08
5.4725e-08
1.05974e-07
4.40777e-07
1.18474e-06
2.19709e-06
4.96891e-06
5.31044e-05
0.00051289
0.0212563
0.170442
0.201493
0.209716
0.0463018
0.00255843
0.00256553
0.00255617
0.00256666
-1.20647e-07
2.04142e-05
1.32103e-06
9.89265e-08
8.34602e-09
1.55714e-09
1.86889e-09
6.37692e-09
4.17813e-08
1.38342e-07
3.76496e-07
3.77475e-07
2.03551e-06
4.33711e-05
0.000526015
0.0310421
0.200623
0.215508
0.204196
0.00287446
0.00256553
0.00256666
0.00268337
-6.2011e-09
2.58113e-06
2.7883e-07
6.30845e-09
1.4997e-09
1.16982e-09
1.12768e-09
1.34975e-09
5.37092e-09
2.25639e-08
2.07922e-07
1.14479e-07
1.0782e-07
9.44306e-07
2.35444e-05
0.000304518
0.0327506
0.213409
0.230005
0.236191
0.0542292
0.0267345
0.0444308
-2.83413e-10
5.29726e-05
3.36775e-06
1.40184e-09
1.15188e-09
1.14455e-09
1.11041e-09
1.11531e-09
1.99047e-09
8.94461e-09
1.68875e-07
8.4e-08
6.93407e-08
9.82316e-08
8.67192e-07
2.20757e-05
0.000240939
0.00183821
0.158498
0.433295
0.474248
0.422064
0.429672
1.24259e-06
5.74875e-05
8.92753e-06
7.50762e-09
1.15744e-09
1.11027e-09
1.11041e-09
1.11041e-09
1.23601e-09
4.12177e-08
5.77869e-08
5.09064e-08
5.29824e-08
8.12678e-08
1.49953e-07
7.87989e-07
6.27712e-06
6.64085e-05
0.000508381
0.120821
0.479589
0.519429
0.528887
1.38321e-06
5.73214e-05
4.96562e-05
2.22004e-06
7.50598e-09
1.15765e-09
1.11039e-09
1.10914e-09
1.10712e-09
2.0842e-08
2.21338e-10
2.90935e-08
2.12567e-07
1.81527e-07
5.36985e-08
1.98813e-07
1.98371e-07
-4.55339e-08
8.67242e-07
-2.98532e-06
0.0130929
0.295074
0.343779
-2.9953e-11
3.31555e-05
4.63242e-05
2.5086e-05
2.57373e-06
1.00591e-08
1.42457e-09
1.0788e-09
9.56461e-10
6.28081e-10
8.97654e-11
8.13304e-08
2.63882e-07
2.58728e-07
4.79787e-08
1.59506e-08
5.47849e-08
3.09635e-07
3.71989e-07
7.97128e-07
4.54583e-06
1.11077e-05
2.11585e-05
-4.80455e-11
9.03156e-07
1.32102e-05
2.37258e-05
8.82687e-06
5.33718e-08
4.44788e-09
6.04435e-10
2.95773e-10
1.17055e-10
7.87534e-11
6.52747e-08
2.66877e-07
2.66802e-07
5.35562e-08
4.60556e-09
5.15273e-09
2.95195e-07
2.18811e-06
4.3979e-06
7.55944e-06
1.14427e-05
1.35833e-05
-4.85161e-12
7.2096e-09
3.64298e-07
2.10892e-06
3.67016e-06
9.74815e-07
5.0253e-09
4.6032e-10
1.49872e-10
1.09238e-10
7.59709e-11
7.87536e-11
2.18998e-07
2.22828e-07
4.05836e-08
2.98431e-09
5.2009e-10
1.92869e-09
4.13629e-05
0.000207631
9.59715e-05
1.35833e-05
1.45849e-05
5.12448e-10
1.6452e-09
6.79982e-08
7.29675e-08
3.83022e-08
2.38536e-07
4.63302e-08
3.08642e-10
1.21022e-10
9.76656e-11
7.43782e-11
7.14401e-11
2.23474e-08
2.0361e-08
1.88151e-08
3.69571e-09
3.41732e-10
5.05959e-10
6.98044e-06
0.000374865
0.000604421
1.45846e-05
1.57558e-05
1.0362e-09
1.6843e-09
1.29646e-08
1.08133e-08
5.32728e-09
2.10973e-09
7.79135e-09
1.43006e-09
2.01236e-10
8.1914e-11
7.37619e-11
6.56196e-11
6.74679e-11
1.51861e-10
3.32523e-09
2.37024e-09
2.96015e-10
2.20317e-10
1.79444e-09
0.000281447
0.000781077
0.000495166
2.16533e-05
7.68584e-10
8.6337e-10
2.22747e-09
1.90628e-09
1.10063e-09
4.02325e-10
2.27969e-10
3.77129e-10
1.26419e-10
5.83096e-11
6.44587e-11
6.50282e-11
5.15949e-11
7.2094e-11
4.98146e-10
1.00652e-09
2.87292e-10
3.6376e-11
2.47646e-10
7.27397e-06
0.000762171
0.0014539
0.000740441
2.77856e-10
2.59077e-10
4.48344e-10
3.87793e-10
2.56187e-10
2.04517e-10
1.23213e-10
6.89412e-11
3.5249e-11
3.41288e-11
4.5094e-11
4.65372e-11
4.26456e-11
6.00353e-11
1.53249e-10
3.35522e-10
2.0119e-10
1.52896e-11
-8.11584e-11
5.74916e-09
3.1063e-05
0.00146699
0.00212246
6.40868e-11
1.30104e-10
1.41851e-10
1.39915e-10
1.34536e-10
8.88678e-11
3.85956e-11
1.4024e-11
9.41417e-12
1.64295e-11
2.46517e-11
2.32519e-11
2.27232e-11
2.93938e-11
4.6394e-11
9.6457e-11
9.60652e-11
1.02677e-11
1.53444e-11
-1.31097e-11
1.16942e-07
0.000186299
0.00212246
1.36821e-11
5.47138e-11
6.02104e-11
5.70127e-11
4.578e-11
2.18602e-11
7.51403e-12
2.68083e-12
2.39475e-12
6.4788e-12
1.01304e-11
9.1521e-12
8.33069e-12
9.28699e-12
1.16674e-11
2.16314e-11
3.49609e-11
9.93609e-12
6.43093e-12
4.6074e-11
1.004e-08
2.75879e-07
0.000276132
2.69769e-12
1.33619e-11
1.60925e-11
1.40606e-11
8.61173e-12
3.5283e-12
1.21149e-12
4.68503e-13
5.00827e-13
1.76993e-12
3.06642e-12
2.8993e-12
2.53121e-12
2.41329e-12
2.55579e-12
4.10695e-12
8.94655e-12
7.72571e-12
6.93529e-12
9.83784e-12
2.10567e-10
2.08722e-08
3.55121e-07
4.80237e-13
2.15379e-12
2.58782e-12
2.15195e-12
1.23928e-12
5.08074e-13
1.81796e-13
7.6277e-14
8.77383e-14
3.13918e-13
6.57097e-13
7.24789e-13
6.66713e-13
5.62088e-13
5.3088e-13
7.55518e-13
1.94908e-12
6.48394e-12
6.7606e-12
2.2758e-13
4.00512e-11
1.11629e-09
9.92772e-09
7.91803e-14
2.98963e-13
3.35615e-13
2.78932e-13
1.65409e-13
6.98381e-14
2.57728e-14
1.17347e-14
1.38575e-14
4.30954e-14
1.04022e-13
1.44848e-13
1.42896e-13
1.20427e-13
1.02232e-13
1.47343e-13
6.92914e-13
5.37754e-12
9.16747e-12
6.95272e-12
3.96075e-12
5.22988e-11
4.25836e-10
1.22832e-14
4.03442e-14
4.13769e-14
3.48806e-14
2.12079e-14
9.11473e-15
3.44316e-15
1.71124e-15
2.0854e-15
5.80827e-15
1.43274e-14
2.36262e-14
2.50537e-14
2.22821e-14
1.77312e-14
2.76029e-14
2.61405e-13
4.55686e-12
9.16747e-12
6.43759e-12
1.24583e-12
7.86197e-10
3.58775e-10
1.80042e-15
5.19847e-15
4.94571e-15
4.18816e-15
2.58421e-15
1.12471e-15
4.33923e-16
2.36205e-16
3.0472e-16
8.15997e-16
1.93978e-15
3.36212e-15
3.7726e-15
3.49422e-15
2.70289e-15
4.05194e-15
5.88544e-14
2.01872e-12
6.62206e-12
5.36336e-12
1.10287e-12
3.25409e-10
1.42691e-10
2.50178e-16
6.30864e-16
5.65098e-16
4.77273e-16
2.98651e-16
1.31543e-16
5.17173e-17
3.08294e-17
4.28885e-17
1.142e-16
2.61278e-16
4.476e-16
5.13029e-16
4.81849e-16
3.64747e-16
4.36482e-16
5.08855e-15
3.67698e-13
1.984e-12
2.09392e-12
9.93401e-13
1.01902e-11
5.66441e-12
3.30719e-17
7.24698e-17
6.15563e-17
5.17848e-17
3.28362e-17
1.46197e-17
5.84568e-18
3.79704e-18
5.71703e-18
1.52927e-17
3.40374e-17
5.72431e-17
6.49942e-17
6.09245e-17
4.48774e-17
4.20253e-17
1.55586e-16
1.78006e-14
1.56483e-13
2.94412e-13
2.41788e-13
5.57755e-14
5.10426e-13
4.17176e-18
7.9294e-18
6.39909e-18
5.37335e-18
3.44502e-18
1.54725e-18
6.28314e-19
4.40832e-19
7.12359e-19
1.92055e-18
4.19191e-18
6.97411e-18
7.71905e-18
7.18017e-18
5.18394e-18
4.13733e-18
5.01265e-18
1.72045e-16
3.41538e-15
1.51045e-14
2.01378e-14
8.15939e-15
8.07097e-14
5.03379e-19
8.29916e-19
6.36103e-19
5.34541e-19
3.457e-19
1.56258e-19
6.43576e-20
4.83743e-20
8.27914e-20
2.24756e-19
4.82632e-19
7.97586e-19
8.54099e-19
7.87026e-19
5.5568e-19
4.09148e-19
4.09287e-19
1.8784e-18
6.50971e-17
5.2856e-16
1.61792e-15
1.30898e-15
4.9701e-15
5.81984e-20
8.33541e-20
6.06308e-20
5.1066e-20
3.32501e-20
1.50915e-20
6.29756e-21
5.03782e-21
9.03949e-21
2.46009e-20
5.1921e-20
8.50291e-20
8.77781e-20
7.99498e-20
5.51293e-20
3.77372e-20
3.96111e-20
1.68342e-19
2.99138e-18
2.0337e-17
9.12757e-17
1.15432e-16
1.73328e-16
6.4439e-21
8.05671e-21
5.55362e-21
4.69321e-21
3.07184e-21
1.39708e-21
5.90474e-22
4.99728e-22
9.35691e-22
2.53962e-21
5.25405e-21
8.4416e-21
8.4527e-21
7.54278e-21
5.05437e-21
3.19397e-21
3.42385e-21
1.90356e-20
1.97056e-19
7.34748e-19
2.56577e-18
4.72277e-18
1.10548e-17
6.75289e-22
7.50383e-22
4.89095e-22
4.15466e-22
2.73142e-22
1.24251e-22
5.3175e-23
4.7432e-23
9.24034e-23
2.49128e-22
5.04017e-22
7.8377e-22
7.71494e-22
6.6423e-22
4.30032e-22
2.5091e-22
2.65568e-22
1.58502e-21
1.25232e-20
3.13596e-20
7.00198e-20
2.49888e-19
1.88035e-18
6.18689e-23
6.68129e-23
4.106e-23
3.53333e-23
2.33951e-23
1.06381e-23
4.61003e-24
4.32686e-24
8.74222e-24
2.33438e-23
4.60931e-23
6.88797e-23
6.66293e-23
5.51086e-23
3.42465e-23
1.8491e-23
1.91637e-23
1.07466e-22
7.11849e-22
1.55086e-21
3.51563e-21
2.93334e-20
4.27843e-19
2.6548e-24
5.35093e-24
3.13148e-24
2.82063e-24
1.92005e-24
8.77886e-25
3.85776e-25
3.80605e-25
7.95573e-25
2.09812e-24
4.03553e-24
5.77008e-24
5.46316e-24
4.3315e-24
2.56944e-24
1.28712e-24
1.30185e-24
6.75465e-24
3.76063e-23
7.61161e-23
2.38937e-22
4.20178e-21
7.55899e-20
2.67982e-26
2.29298e-25
1.39842e-25
1.84021e-25
1.4465e-25
6.94114e-26
3.1182e-26
3.23208e-26
6.99896e-26
1.81683e-25
3.39643e-25
4.62741e-25
4.27432e-25
3.23769e-25
1.82403e-25
8.4977e-26
8.38762e-26
4.05569e-25
1.90129e-24
3.65344e-24
1.75064e-23
4.96595e-22
8.37029e-21
-1.71697e-24
0
1.23079e-27
3.35667e-27
7.63301e-27
4.93145e-27
2.40477e-27
2.66177e-27
5.98653e-27
1.52322e-26
2.76019e-26
3.56816e-26
3.20483e-26
2.3093e-26
1.22889e-26
5.33913e-27
5.16917e-27
2.36618e-26
9.32756e-26
1.77854e-25
1.30891e-24
4.82138e-23
7.46852e-22
-1.48143e-24
-1.04166e-25
-4.0643e-26
-6.0821e-27
1.91296e-29
1.77854e-28
1.63904e-28
2.13609e-28
5.01168e-28
1.24294e-27
2.17631e-27
2.65785e-27
2.31195e-27
1.57668e-27
7.87677e-28
3.20553e-28
3.07038e-28
1.36381e-27
4.5071e-27
9.11843e-27
1.09942e-25
5.1352e-24
8.28267e-23
-8.01142e-25
-7.98065e-26
-2.96372e-26
-9.15503e-27
-1.03513e-27
1.50487e-45
5.37608e-30
1.63305e-29
4.12543e-29
9.92587e-29
1.67278e-28
1.92187e-28
1.61121e-28
1.03407e-28
4.81754e-29
1.8462e-29
1.77827e-29
7.83186e-29
2.1896e-28
5.19039e-28
1.17432e-26
6.74825e-25
1.05844e-23
-3.50859e-25
-3.83228e-26
-1.30178e-26
-4.6971e-27
-8.09559e-28
-6.28789e-29
0
9.47492e-31
3.34757e-30
7.81987e-30
1.26347e-29
1.36112e-29
1.09198e-29
6.55318e-30
2.83237e-30
1.01454e-30
1.01597e-30
4.50232e-30
1.09833e-29
3.46044e-29
1.48265e-27
9.01216e-26
1.16359e-24
-1.34722e-25
-1.51469e-26
-4.66233e-27
-1.78106e-27
-3.48478e-28
-3.82511e-29
-1.44423e-30
-5.90159e-48
2.76633e-31
5.77277e-31
8.20605e-31
7.94629e-31
6.42065e-31
3.64997e-31
1.22109e-31
3.41203e-32
2.8487e-32
2.30563e-31
5.4571e-31
2.71991e-30
1.8341e-28
9.93603e-27
9.3359e-26
-4.69667e-26
-5.27681e-27
-1.48423e-27
-5.79636e-28
-1.17242e-28
-1.41009e-29
-7.80689e-31
-4.63617e-51
1.16651e-32
4.35377e-32
9.97732e-32
1.17894e-31
6.73581e-32
3.44559e-32
2.69654e-32
2.66656e-32
2.66656e-32
2.66656e-32
3.80345e-32
1.25643e-31
1.11949e-29
4.96432e-28
3.19259e-27
1
1
1
1
0.95866
0.998894
1
0.999999
0.241026
0.382014
0.635285
0.849801
0.0974839
0.306907
0.529332
0.70147
0.579736
0.850813
0.867205
0.870864
0.00354458
0.20884
0.734566
0.867019
0.00268337
0.00354453
0.00902424
0.299772
0.00356185
0.00461687
0.0069442
0.033133
0.0143976
0.0146759
0.0565872
0.0697111
0.164009
0.166003
0.486082
0.589312
0.540541
0.560208
0.571774
0.582183
0.0867351
0.0483868
0.16008
0.385144
5.83454e-05
0.000144343
0.112807
0.202745
2.11587e-05
4.15502e-05
3.62752e-05
7.82821e-06
2.1823e-05
4.46817e-05
2.23818e-05
9.50035e-06
0.00013057
0.000352022
0.000333258
0.000115723
2.6416e-05
9.87453e-05
0.00154357
0.0025798
4.86218e-05
6.47478e-05
0.000464206
0.00264377
0.000927394
6.82317e-05
7.22507e-05
0.00113287
0.00207977
0.000584255
0.00266549
0.0026932
0.00100499
0.00100547
0.000980087
0.00110278
1.03756e-06
4.27686e-05
4.24743e-05
3.37388e-07
7.98049e-09
4.71519e-09
1.91633e-07
4.12619e-07
1.98314e-10
6.62286e-11
4.12778e-09
3.46208e-09
7.05748e-11
2.82963e-11
1.09917e-10
1.6922e-10
1.79082e-11
1.30974e-11
1.90062e-11
3.12677e-11
4.60743e-12
6.35834e-12
9.79616e-12
1.24449e-11
1.24803e-12
2.02562e-12
3.02692e-12
3.64092e-12
2.10796e-13
3.49962e-13
5.46959e-13
6.70189e-13
1.23515e-14
2.11772e-14
3.59789e-14
4.31193e-14
3.45812e-16
6.01557e-16
1.04988e-15
1.33953e-15
2.45424e-17
4.35968e-17
7.98805e-17
1.15289e-16
5.04557e-18
9.34597e-18
1.82444e-17
2.85906e-17
1.21483e-18
2.27058e-18
4.46214e-18
7.07989e-18
2.11383e-19
3.80893e-19
6.98275e-19
1.05348e-18
2.25373e-20
3.87371e-20
6.44453e-20
9.23788e-20
2.0016e-21
3.35347e-21
5.425e-21
8.2747e-21
2.18248e-22
3.44875e-22
6.54147e-22
1.34475e-21
2.52509e-23
3.8881e-23
1.38918e-22
3.72235e-22
2.3914e-24
4.34797e-24
3.68279e-23
7.75564e-23
1.66474e-25
4.65538e-25
5.07808e-24
5.73992e-24
5.33116e-27
2.71557e-26
1.48818e-25
1.68077e-25
0.999991
0.979445
0.888684
0.949318
0.548033
0.108979
0.104727
0.225331
0.0817472
0.080816
0.080887
0.0815641
0.0851419
0.299406
0.485033
0.631157
0.726085
0.743531
0.708837
0.999989
0.946896
0.947114
0.903298
0.343992
0.122299
0.262698
0.215832
0.0808191
0.0808191
0.0808191
0.0809133
0.0814007
0.0820733
0.0821072
0.0773927
0.353135
0.763193
1
0.951677
0.802549
0.945058
0.79465
0.22032
0.164974
0.317769
0.317589
0.219099
0.0855817
0.0859468
0.0814007
0.0814953
0.081643
0.0833349
0.0701282
0.0400311
0.0785938
0.827304
0.820833
0.890279
0.936078
0.653918
0.167553
0.185663
0.317602
0.317837
0.317589
0.317021
0.286848
0.0903982
0.081643
0.0823779
0.110363
0.0580436
0.000249427
0.000286522
0.0834864
0.866566
0.90364
0.911523
0.512445
0.0434988
0.177612
0.31782
0.202282
0.154691
0.296055
0.29851
0.297813
0.276323
0.198792
0.0443453
0.000234362
0.000237249
0.000131027
-1.07447e-21
0.881608
0.895215
0.844139
0.302284
0.00552137
0.0140117
0.0213803
0.0148847
0.0142191
0.0763742
0.187868
0.196858
0.0823244
0.042386
0.00407541
0.000231022
0.000234363
0.000656228
0.00146487
0.761741
0.887838
0.744382
0.0854066
0.00504462
0.00551255
0.00793395
0.0140305
0.00927971
0.00536482
0.00210882
0.00193706
0.0014452
0.000304315
0.000231
0.000231024
0.000230947
0.000787938
0.00291416
0.447225
0.874083
0.75296
0.0995262
0.00486411
0.00500983
0.0205727
0.126408
0.176583
0.0727728
0.0635782
0.00841695
0.000517476
0.00027314
0.000236978
0.000231024
0.00207399
0.000330396
0
0.120652
0.605866
0.746111
0.219001
0.00483391
0.00483823
0.0094056
0.0056248
0.345336
0.339059
0.148294
0.0592614
0.0153627
0.000517521
0.000273162
0.000237555
0.0031974
0.000492583
-5.831e-20
0.591306
0.603293
0.602282
0.15917
0.00483396
0.00483278
0.00483823
0.00485213
0.349724
0.347997
0.106487
0.101259
0.0735922
0.0152567
0.000395371
0.000293959
0.00336621
0.00268162
0.000427932
0.589312
0.591306
0.572607
0.214693
0.00483396
0.00483823
0.00485213
0.220285
0.455392
0.212573
0.00644259
0.0128458
0.0335695
0.0227318
0.000862888
0.000413581
0.00349294
0.00546811
0.011081
0.55026
0.587364
0.579871
0.54743
0.418026
0.40569
0.459526
0.464485
0.455951
0.0590749
0.00383601
0.00291464
2.60531e-05
0.00213785
0.000829202
0.00180081
0.00192456
0.00111964
0.0148326
0.230758
0.279691
0.336545
0.435622
0.467307
0.467339
0.466293
0.417846
0.0559472
0.00135444
0.00367705
2.02932e-05
8.39932e-06
2.17562e-05
0.000857193
0.00181534
0.000157385
7.53127e-06
-6.3824e-14
9.33064e-06
0.0669736
0.198982
0.236314
0.228256
0.20052
0.170185
0.015061
0.000415862
0.00130618
3.4116e-08
0.00010276
5.42011e-06
4.90525e-06
0.000259805
0.000436633
5.8742e-06
3.81564e-06
-2.89438e-15
2.8702e-06
1.24024e-06
7.04916e-07
8.88787e-07
1.18825e-06
1.44692e-06
1.63582e-06
2.96971e-05
0.000414953
3.64924e-09
5.89262e-09
4.0341e-07
6.36135e-07
1.9832e-08
2.23261e-08
2.27862e-08
2.27862e-08
4.98277e-08
-1.20687e-16
5.20436e-06
6.96036e-07
6.4008e-07
7.2714e-07
1.03543e-06
1.35389e-06
1.39852e-06
5.13877e-06
2.4559e-05
3.12414e-09
6.24221e-09
7.04465e-09
8.31747e-09
1.29154e-08
1.83625e-08
2.23261e-08
2.27514e-08
1.17655e-08
-3.23527e-14
0.000934999
5.55314e-07
4.85866e-07
2.04197e-06
3.85051e-06
3.88387e-06
5.88848e-07
3.73821e-08
3.12414e-09
2.84647e-09
6.08151e-09
8.78753e-09
1.43386e-08
8.70132e-08
7.14852e-08
2.39202e-08
2.31862e-08
-2.87683e-08
-2.84248e-13
0.0027137
0.000591354
2.12148e-07
1.56534e-07
3.81232e-06
3.88828e-06
1.95222e-06
1.52001e-08
2.84647e-09
2.75337e-09
2.44229e-09
1.43817e-09
3.79659e-08
1.07652e-07
1.07652e-07
2.93862e-08
2.42868e-08
3.8063e-08
-9.68228e-09
0.0027137
0.00186929
5.17718e-08
2.39925e-08
8.42955e-10
1.39843e-06
2.54884e-06
2.51874e-08
4.56617e-09
4.7639e-09
1.50876e-09
1.14791e-09
4.41502e-08
1.07306e-07
9.33849e-08
1.25501e-08
1.66975e-08
6.07342e-05
0.000125584
0.0027137
0.00105636
1.56192e-07
8.42955e-10
3.17222e-10
3.7091e-10
8.78919e-08
4.80891e-08
2.77875e-08
7.13262e-09
1.09191e-09
1.10418e-09
2.89313e-08
1.05508e-07
1.11805e-08
1.05541e-08
1.25146e-08
0.000148119
0.000343296
0.000695451
8.84691e-08
7.89323e-09
6.69695e-09
2.04091e-10
3.15278e-10
3.48538e-10
6.59026e-10
5.18247e-10
9.28909e-10
1.08938e-09
1.09191e-09
4.01054e-09
2.801e-08
5.62487e-09
4.86726e-09
3.26419e-05
0.00016952
2.43969e-05
8.65806e-08
7.88742e-09
5.35817e-10
2.09125e-10
1.76622e-10
3.26424e-10
3.63014e-10
3.74032e-10
4.9421e-10
8.224e-10
1.11175e-09
1.13417e-09
1.1404e-09
1.37832e-09
1.87837e-09
2.09139e-09
0.00012887
0.00016952
4.40909e-06
3.09899e-07
7.40534e-10
3.82996e-11
6.26066e-11
1.57041e-10
3.15486e-10
4.26461e-10
4.61496e-10
5.1088e-10
7.65368e-10
1.08955e-09
1.10238e-09
1.15039e-09
1.62834e-09
2.09139e-09
2.94842e-09
0.00015782
0.00016952
1.8887e-05
4.41398e-11
3.47493e-11
3.49736e-11
6.0008e-11
1.55241e-10
3.2723e-10
4.3275e-10
4.84781e-10
5.39385e-10
7.80819e-10
1.04643e-09
1.04579e-09
1.50475e-09
4.8128e-09
2.94842e-09
5.66962e-06
0.000154195
0.00011667
3.82309e-06
3.778e-11
3.6541e-11
3.68931e-11
5.80871e-11
1.56952e-10
3.3087e-10
4.10194e-10
4.29178e-10
4.27963e-10
5.74689e-10
1.06457e-09
1.11718e-09
5.38921e-09
4.87516e-08
1.99136e-08
7.66863e-07
0.000103982
3.82337e-09
-1.77948e-24
4.09976e-11
3.66299e-11
3.54283e-11
5.40606e-11
1.54373e-10
2.93822e-10
2.47594e-10
2.43366e-10
9.25673e-10
5.59839e-09
1.12135e-09
1.45047e-09
4.36603e-06
5.0699e-06
4.89129e-07
9.51113e-08
3.68155e-06
2.40812e-10
0
1.15882e-11
9.43442e-12
1.1745e-11
3.25945e-11
1.1577e-10
1.86728e-10
5.131e-11
5.54287e-11
7.97037e-08
1.09547e-07
1.48554e-09
9.52563e-07
9.78876e-06
9.7869e-06
7.35147e-07
7.68482e-08
4.38171e-09
4.08592e-09
3.92027e-09
3.27176e-12
3.15222e-12
6.3291e-12
2.31266e-11
8.99362e-11
9.50228e-11
7.55771e-12
7.2843e-09
1.58201e-07
1.57459e-07
3.278e-09
4.0372e-06
9.76768e-06
9.80422e-06
7.77601e-07
1.10922e-08
1.07877e-08
1.78255e-09
5.04466e-27
6.03847e-13
7.94661e-13
3.40324e-12
1.44155e-11
5.45216e-11
4.45638e-11
6.91704e-12
7.71978e-08
1.57091e-07
1.5813e-07
6.00304e-09
3.88557e-06
9.72168e-06
9.76768e-06
1.03559e-06
1.23154e-08
2.35893e-08
3.18403e-08
1.78324e-24
4.59341e-14
2.6472e-13
1.81652e-12
1.04008e-11
3.432e-11
2.61144e-11
6.70099e-12
7.1905e-08
1.5572e-07
9.73179e-08
1.08382e-08
9.65837e-08
5.08365e-06
5.54405e-06
1.16321e-06
1.29033e-08
9.22271e-09
4.71666e-07
3.78072e-07
5.16745e-15
1.55388e-13
9.88867e-13
8.52932e-12
2.21692e-11
1.88558e-11
6.65443e-12
8.97018e-13
7.93843e-08
2.56391e-08
1.55344e-08
4.57034e-09
4.57829e-09
4.57214e-09
3.70005e-07
3.88481e-08
9.22271e-09
5.83544e-07
1.43863e-06
2.50452e-15
7.22167e-14
6.09803e-13
4.72921e-12
1.27342e-11
1.24734e-11
6.60655e-12
8.35498e-13
5.65558e-13
5.58659e-13
1.71217e-08
7.90272e-09
4.57058e-09
4.57829e-09
4.82598e-09
9.31885e-09
4.69275e-08
4.76534e-08
3.2126e-07
9.95567e-16
2.84092e-14
3.95588e-13
2.70286e-12
6.01524e-12
5.8386e-12
3.91062e-12
1.16046e-12
5.57594e-13
5.4903e-13
1.11299e-08
1.11032e-08
1.11487e-08
1.68952e-08
5.79296e-09
2.90014e-09
7.75075e-08
4.22919e-11
0
2.56842e-16
9.53076e-15
1.41755e-13
8.60463e-13
1.66089e-12
1.52071e-12
1.12307e-12
9.15422e-13
7.07231e-13
5.43416e-13
5.03232e-13
1.03878e-08
3.3138e-08
3.3138e-08
1.90375e-08
2.63261e-09
7.75075e-08
4.99203e-09
1.95616e-13
4.20797e-17
1.91281e-15
1.89833e-14
1.09707e-13
2.10932e-13
2.18847e-13
5.0769e-13
9.2786e-13
8.62278e-13
4.21775e-13
4.37024e-13
2.60105e-08
3.2954e-08
3.3138e-08
1.56267e-08
1.44137e-09
1.58292e-08
2.93363e-09
7.59109e-11
4.31848e-18
1.59619e-16
1.09737e-15
6.25227e-15
1.13906e-14
6.82523e-14
5.76532e-13
9.2786e-13
6.83822e-13
4.2121e-13
4.52395e-10
2.4832e-08
3.03269e-08
1.27246e-08
3.17654e-10
9.16867e-10
6.6949e-11
5.85267e-11
9.71513e-11
4.76775e-19
8.17947e-18
7.96977e-17
2.97762e-16
1.05776e-15
6.86108e-14
4.37302e-13
7.10072e-13
2.1401e-13
6.60019e-13
1.45051e-09
2.09971e-09
1.5539e-09
5.25408e-17
3.16776e-19
8.45804e-10
1.34571e-10
2.08402e-12
2.24088e-11
7.92745e-20
1.31672e-18
2.23514e-17
6.07503e-17
4.67061e-16
4.58811e-14
1.3871e-13
1.19519e-13
5.42898e-15
3.98772e-11
1.71583e-10
7.46581e-15
5.25408e-17
3.16776e-19
1.01863e-20
5.80761e-10
1.78174e-10
1.94709e-12
0
1.66562e-20
3.30781e-19
5.54978e-18
1.06926e-17
2.00831e-16
6.63922e-15
1.33201e-14
6.7504e-15
-7.42034e-16
5.57473e-11
4.77981e-12
6.15308e-15
9.92664e-19
3.24521e-20
3.69189e-21
1.72294e-10
4.70908e-11
4.65167e-13
2.65163e-32
3.21442e-21
5.99163e-20
5.06766e-19
8.23989e-19
4.61184e-17
5.55421e-16
4.32855e-16
1.08828e-16
-3.39522e-15
2.81422e-11
7.24158e-12
9.37373e-14
-3.95527e-23
-6.81146e-37
-2.13203e-45
2.02298e-11
4.39863e-12
2.23293e-14
3.33828e-50
4.18554e-22
5.26485e-21
1.5659e-20
3.21082e-20
4.89169e-18
4.78806e-18
1.88324e-18
1.05557e-19
-6.7174e-16
-3.51872e-16
-8.48613e-17
-1.24292e-17
-1.28876e-18
-1.05832e-19
-7.33896e-21
6.55421e-13
1.64326e-13
7.0616e-16
2.58949e-35
1.98234e-23
1.00029e-22
8.98918e-23
2.17859e-22
1.07521e-20
1.77338e-21
2.23122e-23
-7.44506e-21
-1.26163e-20
-5.21241e-21
-1.2645e-21
-2.2352e-22
-3.08839e-23
-3.4474e-24
-3.16345e-25
-2.37938e-26
-1.57809e-27
-1.03311e-28
-3.07128e-30
)
;

boundaryField
{
    leftWall
    {
        type            zeroGradient;
    }
    rightWall
    {
        type            zeroGradient;
    }
    lowerWall
    {
        type            zeroGradient;
    }
    atmosphere
    {
        type            inletOutlet;
        inletValue      uniform 0;
        value           nonuniform List<scalar> 
46
(
-4.69667e-26
-5.27681e-27
-1.48423e-27
-5.79636e-28
-1.17242e-28
-1.41009e-29
-7.80689e-31
-4.63617e-51
1.16651e-32
4.35377e-32
9.97732e-32
1.17894e-31
6.73581e-32
3.44559e-32
2.69654e-32
2.66656e-32
2.66656e-32
2.66656e-32
3.80345e-32
1.25643e-31
1.11949e-29
4.96432e-28
3.19259e-27
5.33116e-27
2.71557e-26
1.48818e-25
1.68077e-25
0
0
0
0
0
0
0
0
0
0
0
0
0
0
0
0
0
0
0
)
;
    }
    defaultFaces
    {
        type            empty;
    }
}


// ************************************************************************* //
