/*--------------------------------*- C++ -*----------------------------------*\
| =========                 |                                                 |
| \\      /  F ield         | OpenFOAM: The Open Source CFD Toolbox           |
|  \\    /   O peration     | Version:  5.x                                   |
|   \\  /    A nd           | Web:      www.OpenFOAM.org                      |
|    \\/     M anipulation  |                                                 |
\*---------------------------------------------------------------------------*/
FoamFile
{
    version     2.0;
    format      ascii;
    class       volScalarField;
    location    "0.85";
    object      p;
}
// * * * * * * * * * * * * * * * * * * * * * * * * * * * * * * * * * * * * * //

dimensions      [1 -1 -2 0 0 0 0];

internalField   nonuniform List<scalar> 
2268
(
797.168
795.326
792.283
789.207
790.534
798.577
810.797
824.075
837.556
850.83
862.22
869.289
869.438
860.848
843.327
817.776
789.521
764.86
746.59
739.11
742.785
750.635
753.213
738.562
736.052
731.986
727.529
727.946
737.114
751.182
765.003
778.79
792.508
804.386
811.97
812.437
803.669
785.817
762.325
735.438
706.724
683.654
677.013
681.191
688.124
692.438
675.868
672.917
668.699
663.731
664.279
675.179
690.915
705.717
720.039
734.474
747.396
756.138
757.421
748.478
729.578
705.209
677.82
647.308
624.13
618.466
622.318
627.235
631.776
609.446
606.597
603.021
597.978
598.632
611.646
630.164
646.457
661.479
676.963
691.426
701.818
704.239
695.01
673.974
646.156
616.383
585.973
565.037
558.978
562.775
566.636
571.308
540.402
538.072
535.653
531.025
532.322
548.337
570.029
587.547
603.058
619.78
636.228
648.836
652.759
643.049
618.827
585.856
551.605
521.854
503.201
497.627
501.682
505.718
511.189
469.777
468.168
467.471
464.372
467.209
486.804
510.969
528.902
544.591
562.728
581.695
597.283
603.454
593.183
564.109
523.818
483.797
453.872
437.986
434.194
439.372
444.652
451.633
398.243
397.501
399.337
399.293
404.372
427.396
452.148
469.614
485.615
505.594
527.714
547.274
556.471
544.717
508.02
458.027
411.085
381.497
369.854
369.131
376.495
383.653
392.971
327.085
327.04
332.232
336.73
344.019
370.273
394.767
409.497
425.084
447.675
474.029
498.09
509.994
495.756
451.64
390.178
333.867
304.356
299.126
302.515
313.166
323.007
335.337
846
780.309
751.87
724.643
597.453
512.924
476.083
409.745
354.567
366.026
370.609
407.267
462.63
518.848
573.983
629.456
691.149
742.67
762.986
791.805
710.847
681.096
647.569
519.032
446.758
413.45
342.098
290.54
315.902
324.953
360.838
413.771
462.714
514.713
574.193
638.23
685.261
715.704
727.819
639.421
616.755
565.529
429.737
379.201
351.218
271.72
252.414
288.127
299.715
336.363
390.206
436.285
485.858
545.377
584.364
665.313
704.94
659.889
573.264
562.145
480.011
345.971
322.148
291.199
240.407
234.22
248.188
254.572
300.689
355.446
396.115
445.39
520.239
595.896
657.474
693.662
588.576
517.033
515.221
411.699
292.654
283.003
254.552
229.795
224.589
221.174
217.339
254.418
317.065
337.552
388.181
484.784
580.709
630.904
671.713
522.152
475.553
478.981
376.025
269.606
257.287
242.442
221.213
213.408
214.224
209.172
211.873
274.891
318.408
358.696
454.34
563.771
612.413
633.133
461.156
439.638
455.707
372.167
266.892
247.025
233.38
212.043
199.747
206.223
201.406
186.129
205.573
258.48
312.492
416.174
535.364
591.183
615.987
404.068
409.538
443.114
380.624
259.235
241.922
225.801
199.374
185.391
192.85
190.208
166.577
148.104
165.241
221.491
325.068
452.098
539.156
568.456
213.783
216.331
229.031
243.396
260.426
278.729
297.183
309.198
326.127
354.98
390.388
424.878
445.299
431.394
374.538
288.982
212.943
183.174
189.689
199.464
216.724
232.772
252.133
83.5311
83.4131
97.9438
106.66
126.417
155.928
181.203
184.473
191.104
224.941
285.246
350.167
416.132
407.535
288.185
170.828
102.314
67.6363
67.3477
82.88
99.9185
111.629
133.939
24.9176
18.9786
18.8963
22.633
48.0116
75.6496
84.5341
54.4945
55.7117
113.708
188.143
255.337
282.565
270.194
187.557
118.562
73.0676
49.1733
46.9793
51.2473
54.326
58.3191
70.2365
10.8177
4.15996
0.258454
-0.118017
2.65065
15.3051
19.3969
11.204
9.37885
12.814
16.7524
34.5488
72.219
104.209
104.54
86.967
56.0351
47.7673
47.4326
50.1775
52.0857
53.6322
57.0706
3.83648
0.74694
-1.10018
-1.78714
-2.02811
-2.29435
-2.2068
-2.05288
-2.07232
-2.21274
-2.10684
-0.971878
3.43975
14.7265
35
50.0558
47.2513
49.5367
48.9
50.04
50.8668
50.856
52.4188
-0.161743
-1.42466
-2.00163
-2.29318
-2.41848
-2.35234
-2.23153
-2.21544
-2.24929
-2.34855
-2.47873
-2.46806
-1.90163
0.423158
6.86662
21.8889
30.2
44.5037
49.4778
50.1063
50.163
49.4087
48.5962
-1.62607
-2.50331
-2.61344
-2.67354
-2.63409
-2.54219
-2.44013
-2.3824
-2.38947
-2.49515
-2.63659
-2.69732
-2.58513
-2.17105
-1.24582
3.80529
15.1889
28.6194
48.4404
49.7688
50.2824
49.6671
48.9129
-1.97231
-2.96202
-2.88616
-2.89604
-2.79413
-2.68513
-2.58379
-2.52937
-2.54087
-2.6263
-2.73248
-2.75743
-2.67059
-2.55959
-2.41052
-1.66061
4.1377
18.3241
35.9754
49.7321
50.6839
49.9558
49.0311
-2.07631
-3.05853
-3.03232
-3.03974
-2.92928
-2.81689
-2.70934
-2.64703
-2.63877
-2.68153
-2.7368
-2.74464
-2.67956
-2.58151
-2.46385
-2.38015
-1.70169
4.64519
20.3446
43.5767
47.5501
48.0538
45.2889
-2.10344
-2.97388
-3.18246
-3.17555
-3.06782
-2.93957
-2.81137
-2.73966
-2.70867
-2.71463
-2.73074
-2.725
-2.6787
-2.58473
-2.48716
-2.38866
-2.47951
-2.50366
3.58623
17.3075
21.9445
23.1692
24.8818
-2.09836
-2.80385
-3.22125
-3.28331
-3.19435
-3.04265
-2.88804
-2.7972
-2.75948
-2.75051
-2.74846
-2.7347
-2.6972
-2.63526
-2.55505
-2.50586
-2.49589
-2.50455
-2.39371
2.52151
14.8791
22.8152
33.0866
-2.13197
-2.57481
-3.08309
-3.26933
-3.23139
-3.089
-2.92939
-2.82929
-2.79363
-2.78532
-2.78225
-2.7721
-2.74757
-2.70913
-2.66386
-2.64752
-2.66086
-2.69657
-2.72581
-2.95606
-2.09057
15.8343
17.4282
-2.27355
-2.4526
-2.82051
-3.06669
-3.11394
-3.02855
-2.9072
-2.83315
-2.81485
-2.81814
-2.8231
-2.82298
-2.81416
-2.79832
-2.78166
-2.78094
-2.80957
-2.85212
-2.89739
-2.9195
-2.92606
-3.13741
-3.48566
-2.47893
-2.48946
-2.58983
-2.76242
-2.87655
-2.88419
-2.84388
-2.82338
-2.83374
-2.85376
-2.87083
-2.88246
-2.8881
-2.89
-2.89364
-2.90546
-2.9359
-2.9788
-3.02054
-3.05259
-3.11688
-3.2366
-3.27654
-2.6259
-2.5609
-2.47324
-2.54433
-2.67394
-2.75442
-2.79203
-2.82491
-2.86294
-2.89833
-2.92703
-2.94945
-2.96687
-2.9819
-2.99906
-3.02229
-3.05556
-3.1006
-3.14818
-3.1799
-3.23636
-3.36612
-3.47514
-2.67299
-2.58635
-2.4695
-2.49514
-2.60721
-2.71253
-2.79109
-2.85489
-2.90977
-2.9554
-2.99261
-3.02335
-3.04975
-3.07453
-3.10135
-3.13394
-3.17485
-3.22522
-3.289
-3.34884
-3.41924
-3.57243
-3.77376
-2.68757
-2.62737
-2.55524
-2.57407
-2.66042
-2.75757
-2.84248
-2.91418
-2.97455
-3.02482
-3.06698
-3.10331
-3.13605
-3.16784
-3.2019
-3.24198
-3.2921
-3.35753
-3.44438
-3.57527
-3.70776
-3.83283
-4.10659
-2.75277
-2.72415
-2.69036
-2.71027
-2.77465
-2.85263
-2.92761
-2.99494
-3.05369
-3.10437
-3.14846
-3.18783
-3.22449
-3.26079
-3.29966
-3.34485
-3.40077
-3.47646
-3.57603
-3.71952
-3.88989
-4.04146
-4.28925
-2.86309
-2.85624
-2.84102
-2.86045
-2.90836
-2.96824
-3.03013
-3.08914
-3.14306
-3.19149
-3.23516
-3.27537
-3.31366
-3.35201
-3.39289
-3.43969
-3.49613
-3.56983
-3.66607
-3.79896
-3.9692
-4.1301
-4.31126
-2.98998
-2.9923
-2.98865
-3.00729
-3.04389
-3.0903
-3.14077
-3.1912
-3.23921
-3.28394
-3.32555
-3.36477
-3.40269
-3.44082
-3.48107
-3.52605
-3.57883
-3.644
-3.72755
-3.84113
-3.99943
-4.17056
-4.29638
-3.12193
-3.12485
-3.12911
-3.14712
-3.17639
-3.21341
-3.25483
-3.2976
-3.33967
-3.38004
-3.41851
-3.45542
-3.49143
-3.52757
-3.56522
-3.60612
-3.65265
-3.70738
-3.77455
-3.86045
-3.98455
-4.14135
-4.30728
-3.25462
-3.25628
-3.26433
-3.28118
-3.30544
-3.33572
-3.37005
-3.40629
-3.4428
-3.47863
-3.51339
-3.54713
-3.58021
-3.61322
-3.64704
-3.6827
-3.72168
-3.76527
-3.81524
-3.8727
-3.94568
-4.04049
-4.13801
-3.38576
-3.38691
-3.39593
-3.41113
-3.43159
-3.45675
-3.48544
-3.51616
-3.54763
-3.579
-3.60983
-3.63998
-3.66955
-3.69883
-3.72825
-3.75831
-3.78965
-3.82264
-3.85742
-3.89272
-3.92775
-3.96151
-3.98811
-3.51493
-3.516
-3.5247
-3.5381
-3.55544
-3.57653
-3.60062
-3.62664
-3.6536
-3.68078
-3.70771
-3.73414
-3.76001
-3.78536
-3.81032
-3.83502
-3.85956
-3.88382
-3.90727
-3.92835
-3.9446
-3.95193
-3.94761
-3.64225
-3.6433
-3.65118
-3.66281
-3.67752
-3.69525
-3.71552
-3.73751
-3.76048
-3.7838
-3.80702
-3.82983
-3.85205
-3.87359
-3.89437
-3.9143
-3.93323
-3.95085
-3.96654
-3.97915
-3.98705
-3.98746
-3.97831
-3.76785
-3.76886
-3.77579
-3.78576
-3.79821
-3.81313
-3.83016
-3.8487
-3.86815
-3.88798
-3.90777
-3.92719
-3.946
-3.96401
-3.98104
-3.99689
-4.01131
-4.02391
-4.03416
-4.04116
-4.04376
-4.03997
-4.0278
-3.89193
-3.89286
-3.89884
-3.90732
-3.91782
-3.93035
-3.94463
-3.96019
-3.97655
-3.99328
-4.00997
-4.0263
-4.04202
-4.05687
-4.07062
-4.08304
-4.09382
-4.10258
-4.10882
-4.11182
-4.11072
-4.10426
-4.09126
-4.01467
-4.0155
-4.0206
-4.02776
-4.03657
-4.04707
-4.059
-4.072
-4.08567
-4.09965
-4.11358
-4.12717
-4.14013
-4.15221
-4.16316
-4.17272
-4.1806
-4.18643
-4.18979
-4.19013
-4.18687
-4.17928
-4.1668
-4.13627
-4.137
-4.14131
-4.14732
-4.15467
-4.16341
-4.17333
-4.18412
-4.19547
-4.20705
-4.21857
-4.22974
-4.2403
-4.24999
-4.25858
-4.2658
-4.2714
-4.27505
-4.27643
-4.27514
-4.27079
-4.26296
-4.25137
-4.25692
-4.25754
-4.26115
-4.26616
-4.27225
-4.27948
-4.28768
-4.29659
-4.30593
-4.31544
-4.32486
-4.33394
-4.34243
-4.3501
-4.35672
-4.36206
-4.36589
-4.36795
-4.36798
-4.36571
-4.36087
-4.35322
-4.34264
-4.37677
-4.3773
-4.38029
-4.38443
-4.38944
-4.39538
-4.40211
-4.4094
-4.41703
-4.42476
-4.43239
-4.43967
-4.44641
-4.45238
-4.45739
-4.46123
-4.46369
-4.46459
-4.46371
-4.46087
-4.45591
-4.44868
-4.43919
-4.49595
-4.4964
-4.49886
-4.50225
-4.50633
-4.51117
-4.51665
-4.52256
-4.52873
-4.53496
-4.54105
-4.54683
-4.55209
-4.55666
-4.56035
-4.563
-4.56443
-4.56449
-4.56303
-4.55991
-4.55505
-4.54838
-4.53993
-4.61456
-4.61496
-4.61695
-4.61971
-4.623
-4.62691
-4.63132
-4.63607
-4.64101
-4.64596
-4.65077
-4.65528
-4.65932
-4.66274
-4.66537
-4.66709
-4.66774
-4.66722
-4.66541
-4.66221
-4.65759
-4.65152
-4.64405
-4.73271
-4.73307
-4.73466
-4.73689
-4.73952
-4.74264
-4.74615
-4.74992
-4.75382
-4.7577
-4.76144
-4.7649
-4.76794
-4.77042
-4.77222
-4.77321
-4.7733
-4.77239
-4.77039
-4.76725
-4.76295
-4.75748
-4.75091
-4.8505
-4.85082
-4.85208
-4.85387
-4.85593
-4.85839
-4.86115
-4.86409
-4.86712
-4.87012
-4.87297
-4.87556
-4.87778
-4.87952
-4.88066
-4.88112
-4.8808
-4.87965
-4.87759
-4.87459
-4.87064
-4.86577
-4.86002
-4.96802
-4.96827
-4.96926
-4.9707
-4.97228
-4.97418
-4.97631
-4.97857
-4.98088
-4.98314
-4.98526
-4.98715
-4.98871
-4.98985
-4.9905
-4.99056
-4.98998
-4.98869
-4.98667
-4.98388
-4.98032
-4.97602
-4.97105
-5.08533
-5.0855
-5.08628
-5.08741
-5.0886
-5.09005
-5.09165
-5.09333
-5.09505
-5.0967
-5.09823
-5.09955
-5.10059
-5.10129
-5.10156
-5.10135
-5.10061
-5.0993
-5.09739
-5.09486
-5.09172
-5.08801
-5.08377
-5.2025
-5.20256
-5.20318
-5.20406
-5.20492
-5.20599
-5.20715
-5.20837
-5.20959
-5.21076
-5.21181
-5.21268
-5.21333
-5.21369
-5.21371
-5.21334
-5.21254
-5.21129
-5.20957
-5.20736
-5.20469
-5.20157
-5.19806
-5.31958
-5.31951
-5.32002
-5.32068
-5.32127
-5.32202
-5.32282
-5.32366
-5.32448
-5.32526
-5.32593
-5.32647
-5.32683
-5.32696
-5.32682
-5.32639
-5.32564
-5.32454
-5.32307
-5.32125
-5.31908
-5.3166
-5.31385
-5.43663
-5.43642
-5.43684
-5.4373
-5.43767
-5.43816
-5.43867
-5.43919
-5.4397
-5.44016
-5.44056
-5.44085
-5.44101
-5.441
-5.44081
-5.44041
-5.43978
-5.4389
-5.43778
-5.43641
-5.4348
-5.43298
-5.43101
-5.55357
-5.55329
-5.55366
-5.55392
-5.5541
-5.55438
-5.55464
-5.55491
-5.55517
-5.55541
-5.55559
-5.55572
-5.55576
-5.5557
-5.55554
-5.55524
-5.55481
-5.55424
-5.55351
-5.55265
-5.55165
-5.55053
-5.54933
-5.67091
-5.67049
-5.67062
-5.6707
-5.67075
-5.67084
-5.6709
-5.67098
-5.67103
-5.67108
-5.67111
-5.67111
-5.67109
-5.67103
-5.67093
-5.67079
-5.67061
-5.67038
-5.6701
-5.66978
-5.66942
-5.66903
-5.66863
267.857
274.233
275.582
257.025
161.91
180.689
196.842
212.101
98.968
109.775
117.688
131.574
55.4684
48.2849
38.5402
39.3625
67.8316
57.3037
43.3527
31.2597
49.5629
55.5683
64.8517
53.0463
48.7609
48.5212
47.5926
45.9343
48.689
48.5957
48.2924
46.8501
46.3037
46.7704
45.4113
39.5436
34.1927
32.5666
23.7897
10.4926
37.1518
36.8721
36.3258
35.3432
6.47846
7.39829
8.93829
17.115
-2.93529
-1.50646
2.05118
5.10639
-3.16462
-3.11972
-3.46573
-4.00299
-3.5292
-3.59751
-3.64053
-3.60869
-3.9285
-4.00969
-4.02155
-3.9215
-4.32409
-4.41286
-4.43269
-4.31367
-4.46095
-4.5459
-4.60731
-4.59636
-4.50885
-4.55736
-4.56692
-4.56252
-4.42452
-4.46618
-4.52744
-4.51207
-4.3726
-4.38713
-4.38067
-4.34653
-4.17358
-4.17354
-4.15605
-4.11272
-3.98428
-3.97147
-3.94977
-3.91962
-3.93005
-3.91287
-3.89254
-3.8668
-3.96151
-3.94617
-3.92623
-3.90392
-4.01075
-3.99674
-3.98051
-3.96272
-4.07601
-4.0644
-4.05146
-4.03733
-4.15355
-4.14376
-4.13303
-4.12146
-4.23979
-4.23143
-4.22242
-4.21287
-4.33259
-4.32547
-4.31788
-4.3099
-4.43051
-4.42444
-4.41804
-4.41128
-4.53242
-4.52722
-4.52176
-4.51604
-4.63755
-4.63309
-4.62843
-4.62357
-4.7453
-4.74148
-4.7375
-4.73336
-4.8552
-4.85193
-4.84854
-4.84502
-4.96693
-4.96415
-4.96128
-4.95831
-5.0803
-5.07798
-5.0756
-5.07315
-5.19524
-5.19336
-5.19145
-5.18951
-5.31167
-5.31023
-5.30877
-5.30729
-5.42948
-5.42849
-5.42751
-5.42655
-5.54842
-5.54783
-5.54724
-5.54668
-5.66833
-5.66814
-5.66795
-5.66778
318.036
366.255
416.008
371.795
257.494
233.726
210.969
171.527
164.017
168.574
166.054
136.519
90.669
63.449
86.4539
134.545
258.39
412.769
492.039
245.683
281.796
334.972
313.651
253.292
213.984
178.67
140.129
142.415
141.585
135.269
108.381
68.9433
45.8163
41.3369
54.3659
77.9877
162.014
320.118
160.131
179.376
229.304
235.729
197.968
167.059
136.479
114.932
120.558
123.109
113.336
91.1606
67.3784
46.5816
37.1288
30.2444
13.8855
23.6615
133.355
54.8373
64.826
115.813
136.599
110.518
97.1535
87.4908
76.0108
87.3226
96.5384
82.1799
79.0609
71.228
55.5634
35.6627
9.36729
8.43352
9.46656
16.941
7.33752
-2.83902
34.692
37.3692
25.18
19.0417
22.8006
21.5554
25.492
31.255
29.7505
49.1565
56.1469
42.5245
7.16538
5.24858
6.188
7.16679
8.70433
28.4613
18.4039
24.4482
4.87621
0.117485
-2.51956
-2.16337
1.15619
4.4455
11.7995
33.139
23.2473
14.2688
8.16331
3.56559
3.80427
4.63372
5.86246
7.3113
30.5247
44.6357
29.5852
-1.52568
-6.27764
-9.0549
-9.50794
-5.00861
-1.19629
4.08366
14.0068
13.5944
8.92992
5.13662
2.99413
2.96666
4.01259
4.89738
5.57345
43.0184
49.1449
26.744
-6.72657
-9.40743
-12.309
-15.5939
-12.661
-15.0859
-4.66267
5.71586
8.91906
7.428
4.74803
2.811
2.94407
4.42248
4.77292
5.02385
28.5568
26.7094
21.5029
-11.6259
-11.6004
-14.1094
-17.3386
-18.1498
-17.3213
-28.233
-1.65776
4.55329
5.42846
3.63033
2.71387
3.98941
5.91414
4.83395
4.95338
-2.08848
25.0601
38.9396
-8.69434
-10.6337
-13.1032
-14.2462
-14.0047
-14.8219
-29.7442
-2.94427
-1.52192
-0.944007
0.453674
1.58509
3.88761
5.47923
4.39486
4.49371
35.9077
58.4759
74.7313
17.6489
-2.93611
-10.1163
-11.7899
-13.5747
-1.73193
-6.89737
-3.42789
-3.53886
-3.34084
-5.29685
-0.556416
1.94065
2.32915
2.17592
3.10973
36.4435
59.8507
88.2321
86.0676
-5.67031
-31.6626
-38.5459
-3.45342
1.33445
1.2752
-1.4781
-2.33882
-3.70596
-4.16054
-1.90451
-0.532246
-1.18165
-1.13597
0.286619
6.18669
21.6737
44.4373
52.3592
36.3404
33.3865
31.1731
20.3112
1.14986
-1.14377
-1.92447
-2.33809
-2.77318
-2.77069
-2.22341
-1.98384
-2.12502
-1.99985
-1.50806
-3.9779
1.00009
10.0996
12.7609
11.9935
9.98022
8.14517
-1.52361
-2.13859
-2.11215
-2.2823
-2.35894
-2.29481
-2.09328
-2.12667
-2.36036
-2.21357
-1.9795
-1.77106
-3.42793
-3.05551
-2.72865
-2.52346
-2.55285
-2.63621
-2.61866
-2.57694
-2.4456
-2.45446
-2.5009
-2.40502
-2.17078
-1.96697
-1.95908
-2.17622
-2.12662
-1.94422
-1.81993
-3.61366
-3.15921
-2.83074
-2.66898
-2.69625
-2.73212
-2.67376
-2.63199
-2.74015
-2.8557
-2.82846
-2.61992
-2.33817
-2.12197
-2.06376
-2.1431
-2.11166
-1.97117
-1.87246
-3.90499
-3.29906
-2.94257
-2.76477
-2.72522
-2.73272
-2.72972
-2.77773
-2.99917
-3.21337
-3.17799
-2.9095
-2.59795
-2.37166
-2.26753
-2.23863
-2.17503
-2.051
-1.96135
-4.2801
-3.44452
-3.03173
-2.81837
-2.69349
-2.64275
-2.67593
-2.84707
-3.14931
-3.40415
-3.35256
-3.07784
-2.78397
-2.56958
-2.44601
-2.36714
-2.28221
-2.16696
-2.07993
-4.43159
-3.55709
-3.13985
-2.90803
-2.75102
-2.6765
-2.69465
-2.86666
-3.1624
-3.36778
-3.33723
-3.12051
-2.88564
-2.70947
-2.59057
-2.49986
-2.411
-2.30562
-2.22152
-4.3777
-3.70886
-3.2713
-3.03331
-2.88456
-2.82157
-2.8282
-2.91976
-3.08344
-3.22099
-3.21843
-3.09598
-2.94681
-2.8212
-2.72063
-2.63501
-2.55074
-2.46061
-2.39625
-4.19938
-3.76195
-3.39544
-3.16942
-3.04428
-2.99058
-2.98614
-3.02323
-3.09462
-3.15973
-3.16489
-3.1069
-3.02013
-2.93248
-2.85051
-2.7747
-2.69515
-2.6179
-2.57671
-3.9995
-3.73452
-3.47184
-3.29496
-3.20046
-3.155
-3.13907
-3.14527
-3.16832
-3.19231
-3.19323
-3.16227
-3.10971
-3.04895
-2.98581
-2.92246
-2.84958
-2.77997
-2.73807
-3.85045
-3.69846
-3.53366
-3.41577
-3.34639
-3.30547
-3.28152
-3.27018
-3.26794
-3.26796
-3.2607
-3.24097
-3.21036
-3.17227
-3.12893
-3.07908
-3.01561
-2.95342
-2.91779
-3.81579
-3.72368
-3.62372
-3.54174
-3.48406
-3.4441
-3.41518
-3.39371
-3.37727
-3.36392
-3.35133
-3.33784
-3.32209
-3.30249
-3.27821
-3.24115
-3.18505
-3.13203
-3.10256
-3.86315
-3.79704
-3.72589
-3.66183
-3.61174
-3.57364
-3.54297
-3.51674
-3.49348
-3.47383
-3.45852
-3.44838
-3.44135
-3.43538
-3.42704
-3.39938
-3.35034
-3.30193
-3.28134
-3.93071
-3.8801
-3.82649
-3.77614
-3.73359
-3.6984
-3.66802
-3.64038
-3.6148
-3.59311
-3.57684
-3.56794
-3.56413
-3.56556
-3.56705
-3.54404
-3.502
-3.46246
-3.44911
-4.01186
-3.97198
-3.92993
-3.88929
-3.8529
-3.82105
-3.79247
-3.76585
-3.74107
-3.72
-3.70369
-3.69403
-3.68856
-3.68904
-3.69398
-3.67281
-3.64218
-3.61997
-3.60697
-4.10081
-4.06874
-4.03498
-4.00178
-3.97099
-3.94303
-3.91739
-3.89347
-3.87145
-3.8524
-3.83653
-3.82511
-3.81588
-3.81399
-3.81135
-3.79864
-3.78037
-3.76796
-3.75719
-4.19594
-4.16981
-4.14231
-4.11497
-4.08904
-4.06499
-4.04275
-4.02226
-4.00367
-3.98702
-3.97197
-3.9594
-3.94826
-3.94098
-3.93572
-3.92975
-3.91936
-3.91064
-3.9024
-4.29582
-4.27426
-4.2516
-4.22893
-4.20717
-4.18673
-4.16774
-4.15039
-4.1347
-4.12017
-4.1063
-4.0938
-4.08275
-4.07438
-4.06885
-4.06476
-4.05796
-4.05102
-4.04471
-4.39944
-4.38147
-4.36264
-4.34371
-4.32538
-4.30796
-4.29158
-4.27649
-4.26273
-4.24986
-4.23762
-4.22653
-4.21699
-4.20963
-4.20451
-4.2004
-4.19484
-4.18995
-4.18555
-4.50605
-4.49099
-4.47521
-4.45929
-4.44372
-4.42869
-4.41431
-4.4008
-4.38834
-4.37692
-4.36669
-4.35796
-4.35048
-4.34443
-4.33967
-4.33562
-4.33153
-4.32846
-4.32583
-4.61511
-4.60241
-4.58913
-4.57567
-4.56238
-4.54937
-4.53672
-4.52468
-4.51356
-4.5037
-4.49559
-4.48936
-4.48401
-4.47932
-4.4751
-4.47168
-4.46889
-4.46697
-4.46571
-4.72618
-4.71545
-4.70425
-4.69289
-4.6816
-4.67049
-4.65966
-4.64941
-4.64003
-4.63198
-4.62591
-4.62173
-4.61806
-4.61468
-4.61135
-4.60873
-4.60681
-4.60552
-4.60516
-4.83893
-4.8299
-4.8205
-4.81102
-4.80166
-4.79248
-4.78369
-4.77555
-4.76821
-4.76209
-4.75783
-4.75516
-4.75272
-4.75046
-4.7481
-4.74627
-4.74499
-4.74413
-4.7442
-4.95321
-4.94569
-4.93798
-4.93031
-4.92286
-4.91569
-4.90904
-4.90307
-4.89777
-4.89351
-4.8908
-4.88928
-4.88785
-4.88657
-4.88514
-4.88411
-4.88337
-4.88289
-4.88311
-5.06897
-5.06292
-5.05684
-5.05097
-5.04542
-5.04023
-5.03562
-5.03165
-5.0282
-5.02565
-5.02434
-5.02382
-5.02337
-5.02301
-5.02248
-5.02223
-5.02199
-5.02194
-5.02213
-5.18622
-5.1816
-5.17713
-5.17298
-5.16924
-5.1659
-5.16315
-5.16095
-5.15922
-5.15829
-5.15829
-5.15878
-5.1593
-5.15982
-5.16017
-5.16061
-5.16084
-5.16117
-5.16134
-5.3049
-5.30166
-5.29871
-5.29617
-5.2941
-5.29246
-5.29139
-5.29083
-5.29077
-5.29136
-5.29261
-5.29411
-5.29558
-5.29693
-5.29806
-5.2991
-5.29979
-5.30043
-5.30065
-5.42488
-5.42289
-5.42133
-5.42029
-5.41976
-5.41973
-5.42025
-5.42129
-5.4228
-5.42482
-5.42723
-5.42972
-5.43208
-5.43421
-5.43605
-5.43763
-5.43876
-5.43966
-5.43995
-5.54578
-5.54498
-5.54477
-5.54517
-5.54617
-5.54772
-5.54985
-5.55247
-5.55551
-5.55888
-5.56242
-5.56588
-5.56912
-5.57203
-5.57457
-5.5767
-5.57827
-5.57941
-5.57975
-5.66759
-5.66793
-5.66905
-5.67091
-5.67345
-5.67667
-5.68048
-5.68476
-5.68942
-5.69425
-5.69901
-5.70352
-5.70768
-5.71144
-5.71474
-5.71752
-5.71959
-5.72103
-5.72121
)
;

boundaryField
{
    leftWall
    {
        type            calculated;
        value           nonuniform List<scalar> 
50
(
797.168
738.562
675.868
609.446
540.402
469.777
398.243
327.085
213.783
83.5311
24.9176
10.8177
3.83648
-0.161743
-1.62607
-1.97231
-2.07631
-2.10344
-2.09836
-2.13197
-2.27355
-2.47893
-2.6259
-2.67299
-2.68757
-2.75277
-2.86309
-2.98998
-3.12193
-3.25462
-3.38576
-3.51493
-3.64225
-3.76785
-3.89193
-4.01467
-4.13627
-4.25692
-4.37677
-4.49595
-4.61456
-4.73271
-4.8505
-4.96802
-5.08533
-5.2025
-5.31958
-5.43663
-5.55357
-5.67091
)
;
    }
    rightWall
    {
        type            calculated;
        value           nonuniform List<scalar> 
50
(
762.986
715.704
704.94
693.662
671.713
633.133
615.987
568.456
492.039
320.118
133.355
16.941
8.70433
7.3113
5.57345
5.02385
4.95338
4.49371
3.10973
0.286619
-1.50806
-1.77106
-1.81993
-1.87246
-1.96135
-2.07993
-2.22152
-2.39625
-2.57671
-2.73807
-2.91779
-3.10256
-3.28134
-3.44911
-3.60697
-3.75719
-3.9024
-4.04471
-4.18555
-4.32583
-4.46571
-4.60516
-4.7442
-4.88311
-5.02213
-5.16134
-5.30065
-5.43995
-5.57975
-5.72121
)
;
    }
    lowerWall
    {
        type            calculated;
        value           nonuniform List<scalar> 
62
(
826.598
824.756
821.713
818.636
819.963
828.006
840.226
853.504
866.986
880.259
891.649
898.719
898.867
890.277
872.756
847.012
817.101
791.668
776.02
768.51
772.134
780.024
782.635
753.213
692.438
631.776
571.308
511.189
451.633
392.971
335.337
330.454
336.83
338.18
319.623
846
791.805
727.819
659.889
588.576
522.152
461.156
404.068
874.96
809.739
781.299
754.072
626.88
542.353
505.513
434.363
381.647
387.33
392.211
431.616
489.381
547.736
603.412
658.885
720.371
770.127
789.101
)
;
    }
    atmosphere
    {
        type            calculated;
        value           nonuniform List<scalar> 
46
(
-5.72904
-5.72904
-5.72904
-5.72904
-5.72904
-5.72904
-5.72904
-5.72904
-5.72904
-5.72904
-5.72904
-5.72904
-5.72904
-5.72904
-5.72904
-5.72904
-5.72904
-5.72904
-5.72904
-5.72904
-5.72904
-5.72904
-5.72904
-5.72904
-5.72904
-5.72904
-5.72904
-5.72912
-5.72995
-5.73167
-5.73428
-5.73762
-5.74173
-5.74644
-5.75166
-5.75726
-5.76298
-5.76848
-5.77357
-5.77826
-5.7825
-5.78627
-5.7895
-5.79186
-5.79362
-5.79338
)
;
    }
    defaultFaces
    {
        type            empty;
    }
}


// ************************************************************************* //
