/*--------------------------------*- C++ -*----------------------------------*\
| =========                 |                                                 |
| \\      /  F ield         | OpenFOAM: The Open Source CFD Toolbox           |
|  \\    /   O peration     | Version:  5.x                                   |
|   \\  /    A nd           | Web:      www.OpenFOAM.org                      |
|    \\/     M anipulation  |                                                 |
\*---------------------------------------------------------------------------*/
FoamFile
{
    version     2.0;
    format      ascii;
    class       volScalarField;
    location    "0.85";
    object      p_rgh;
}
// * * * * * * * * * * * * * * * * * * * * * * * * * * * * * * * * * * * * * //

dimensions      [1 -1 -2 0 0 0 0];

internalField   nonuniform List<scalar> 
2268
(
826.598
824.756
821.713
818.636
819.963
828.006
840.226
853.504
866.986
880.259
891.649
898.719
898.867
890.277
872.756
847.012
817.101
791.668
776.02
768.51
772.134
780.024
782.635
826.85
824.34
820.274
815.817
816.234
825.403
839.47
853.291
867.078
880.796
892.674
900.258
900.725
891.957
874.025
846.055
817.067
789.843
771.94
763.108
766.12
775.34
780.726
823.014
820.064
815.846
810.878
811.425
822.326
838.062
852.864
867.185
881.621
894.543
903.285
904.568
895.624
876.725
851.764
821.067
789.01
765.479
759.815
763.692
772.222
778.923
815.452
812.602
809.026
803.983
804.638
817.651
836.17
852.463
867.485
882.968
897.431
907.824
910.245
901.016
879.98
852.161
822.389
791.952
770.786
764.442
765.311
772.641
777.307
805.267
802.937
800.517
795.889
797.186
813.201
834.893
852.411
867.922
884.644
901.092
913.7
917.624
907.913
883.691
850.721
816.469
786.718
768.065
762.491
766.547
770.582
776.054
793.5
791.891
791.194
788.095
790.932
810.527
834.692
852.625
868.314
886.451
905.418
921.006
927.177
916.906
887.832
847.541
807.52
777.595
761.709
757.917
763.095
768.375
775.356
780.825
780.083
781.919
781.874
786.954
809.977
834.73
852.196
868.197
888.176
910.296
929.856
939.053
927.299
890.6
840.606
793.665
764.078
752.436
751.713
759.077
766.235
775.553
768.526
768.48
773.673
778.17
785.46
811.266
831.549
850.937
866.524
889.115
915.469
939.53
951.432
937.184
893.031
831.534
775.252
745.781
740.565
743.955
754.607
764.447
776.778
874.96
809.739
781.299
754.072
626.88
542.353
505.513
434.363
381.647
387.33
392.211
431.616
489.381
547.736
603.412
658.885
720.371
770.127
789.101
880.027
799.134
768.87
732.063
606.957
535.046
501.738
417.587
330.869
342.417
355.096
401.301
466.41
514.031
567.216
643.688
725.803
750.281
742.183
866.613
785.183
745.573
694.995
575.809
526.337
497.991
367.574
283.267
322.573
343.96
390.836
445.572
498.808
548.554
608.459
711.93
789.528
725.701
843.22
771.259
730.536
674.537
551.64
528.084
476.087
281.768
256.68
357.613
383.114
432.934
486.72
544.546
602.927
678.777
758.339
806.431
727.327
845.706
756.841
731.615
675.876
557.039
546.925
421.569
251.494
246.614
243.074
266.388
426.544
489.295
495.172
531.884
660.611
769.07
756.499
793.802
842.019
740.743
743.623
697.391
592.536
548.663
308.184
247.698
239.893
240.708
253.52
386.692
454.896
392.722
434.632
563.686
743.247
860.349
926.02
841.232
769.314
769.113
746.67
643.562
470.26
265.107
243.355
231.047
237.535
245.723
291.892
320.166
346.306
400.318
508.207
691.201
934.921
998.313
844.632
839.802
808.138
811.357
636.441
335.209
262.545
252.98
221.554
228.962
226.503
204.768
230.878
382.735
441.821
561.61
747.092
770.123
771.666
725.184
749.798
762.498
776.863
781.008
808.849
830.65
842.665
859.594
888.447
923.854
958.337
978.707
964.196
889.234
771.743
678.95
661.282
698.342
726.951
750.172
766.239
785.6
527.756
538.469
585.405
577.56
581.948
633.941
679.02
699.04
755.637
827.693
899.544
963.505
989.102
839.675
547.29
314.757
207.495
186.699
258.711
398.012
530.06
597.828
699.863
182.123
98.9612
139.988
145.9
157.97
201.016
413.228
615.304
672.043
757.03
826.772
609.637
426.436
399.282
295.181
136.174
77.7689
53.1014
50.2863
56.0855
74.3896
100.98
169.941
11.7132
5.89278
2.08602
1.67512
30.2952
238.727
316.075
205.102
186.028
238.097
258.282
258.788
296.702
322.63
292.324
204.08
128.487
53.1691
50.952
53.6632
55.8141
58.3345
64.0761
4.86251
1.99594
0.0880858
-0.664749
-0.782287
-0.156442
-1.15229
-0.48231
-0.926534
-0.989256
-0.836589
12.3507
50.4587
128.514
218.877
242.852
244.087
117.768
52.8447
53.8453
54.6589
55.1048
100.988
0.99414
-0.168525
-0.802609
-1.12468
-1.25606
-1.19269
-1.06105
-1.05001
-1.08383
-1.17747
-1.29821
-1.05546
-0.238318
3.92367
94.5521
242.551
255.089
205.876
53.7752
54.3396
54.2803
53.541
53.5403
-0.342717
-1.15374
-1.31986
-1.38792
-1.34931
-1.25754
-1.15543
-1.09763
-1.10427
-1.20899
-1.34913
-1.40631
-1.23235
-0.228199
27.318
223.827
275.059
299.043
109.146
54.3368
54.8595
54.2322
53.4915
-0.562653
-1.52344
-1.47447
-1.48608
-1.38429
-1.2753
-1.17396
-1.11953
-1.13098
-1.21628
-1.32212
-1.34707
-1.25789
-1.08868
-0.25984
43.4695
288.109
323.26
324.979
55.1904
55.7071
54.9806
54.2203
-0.541296
-1.51955
-1.49687
-1.50471
-1.39426
-1.28187
-1.17431
-1.112
-1.10374
-1.14647
-1.20145
-1.20945
-1.14438
-1.04504
-0.89272
-0.378149
50.0561
333.44
374.59
407.307
132.245
90.5859
114.958
-0.443223
-1.22581
-1.51665
-1.51533
-1.4076
-1.27935
-1.15115
-1.07944
-1.04844
-1.0544
-1.07024
-1.06464
-1.01837
-0.924351
-0.825509
-0.69183
-0.419684
2.20533
268.125
737.612
810.173
724.848
739.178
-0.310736
-0.915904
-1.41991
-1.49788
-1.40893
-1.25723
-1.10263
-1.01178
-0.974066
-0.965028
-0.962949
-0.949196
-0.911695
-0.849705
-0.769374
-0.719047
-0.699277
-0.600686
0.298467
219.806
872.072
951.069
978.209
-0.218723
-0.554791
-1.0777
-1.35448
-1.32077
-1.17839
-1.01878
-0.918681
-0.88302
-0.874676
-0.871642
-0.861435
-0.83656
-0.798174
-0.753152
-0.736538
-0.749879
-0.786052
-0.813552
-1.05115
24.8104
580.952
675.508
-0.237749
-0.349372
-0.690492
-0.979869
-1.07291
-0.992732
-0.871392
-0.797349
-0.779048
-0.782342
-0.787299
-0.78701
-0.777826
-0.761995
-0.745764
-0.745107
-0.773658
-0.815686
-0.860829
-0.882073
-0.881013
-1.07902
-1.40683
-0.317939
-0.326515
-0.400316
-0.550208
-0.696498
-0.723077
-0.68287
-0.66238
-0.672745
-0.692763
-0.709837
-0.721324
-0.72653
-0.728424
-0.732528
-0.744456
-0.774888
-0.817162
-0.854824
-0.882096
-0.939567
-1.0509
-1.08622
-0.339712
-0.274695
-0.186216
-0.253327
-0.379367
-0.466002
-0.505831
-0.538722
-0.576746
-0.612142
-0.640841
-0.663254
-0.680183
-0.695199
-0.712773
-0.736092
-0.769365
-0.814402
-0.767525
-0.419498
-0.730977
-1.04891
-1.15564
-0.261606
-0.17496
-0.057951
-0.083575
-0.195737
-0.300572
-0.37959
-0.4435
-0.498388
-0.544017
-0.581221
-0.611966
-0.638312
-0.663093
-0.689918
-0.722548
-0.763466
-0.813831
-0.860801
-0.0344188
0.448175
-1.12591
-1.32442
-0.150991
-0.0907822
-0.0186253
-0.0374633
-0.123832
-0.220989
-0.305878
-0.377601
-0.437968
-0.488238
-0.5304
-0.566728
-0.59947
-0.631263
-0.665308
-0.70539
-0.755519
-0.82095
-0.907793
-0.325492
0.8081
-0.0414742
-1.51514
-0.0909943
-0.0623769
-0.0285827
-0.0484908
-0.112876
-0.190859
-0.265837
-0.333161
-0.391917
-0.442594
-0.486683
-0.526059
-0.562717
-0.59902
-0.63788
-0.683069
-0.738991
-0.814684
-0.914254
-1.03841
0.798576
2.48639
0.341438
-0.0761229
-0.0692719
-0.0540487
-0.0734759
-0.121386
-0.181272
-0.243162
-0.302172
-0.356087
-0.404517
-0.448195
-0.488397
-0.526691
-0.565037
-0.605921
-0.652725
-0.709158
-0.782857
-0.879104
-1.01198
-1.09575
2.74124
4.38504
-0.0778189
-0.0801332
-0.0764892
-0.0951284
-0.13173
-0.178134
-0.228603
-0.279037
-0.327047
-0.371779
-0.413387
-0.452604
-0.49053
-0.528655
-0.568909
-0.61389
-0.666668
-0.731841
-0.815388
-0.92897
-1.08693
-0.716406
4.79057
-0.084575
-0.0874892
-0.0917536
-0.109763
-0.139037
-0.176052
-0.217472
-0.260246
-0.302315
-0.342683
-0.381155
-0.418058
-0.454072
-0.490214
-0.52786
-0.568762
-0.615295
-0.670026
-0.73719
-0.82309
-0.947161
-1.10316
-0.432045
-0.0920698
-0.0937258
-0.101777
-0.118626
-0.14289
-0.173169
-0.207501
-0.243743
-0.280252
-0.316075
-0.350835
-0.384578
-0.417656
-0.450669
-0.484484
-0.52015
-0.55913
-0.602713
-0.652686
-0.710148
-0.783129
-0.877875
-0.974334
-0.0980152
-0.0991638
-0.108187
-0.123387
-0.143844
-0.169004
-0.197693
-0.22841
-0.259879
-0.291254
-0.322082
-0.352229
-0.381804
-0.411082
-0.4405
-0.470562
-0.501899
-0.534897
-0.569676
-0.604978
-0.640002
-0.673755
-0.700333
-0.101986
-0.103058
-0.111756
-0.125156
-0.142504
-0.16359
-0.187678
-0.213696
-0.240659
-0.267839
-0.294767
-0.321199
-0.347068
-0.372423
-0.397383
-0.422081
-0.446621
-0.470876
-0.494326
-0.515404
-0.531659
-0.538989
-0.534663
-0.104111
-0.105164
-0.113044
-0.12467
-0.139382
-0.157118
-0.177379
-0.199374
-0.222341
-0.245662
-0.268879
-0.29169
-0.313918
-0.335456
-0.356235
-0.376165
-0.395099
-0.412709
-0.428409
-0.441018
-0.448917
-0.449326
-0.440176
-0.104525
-0.105534
-0.112456
-0.12243
-0.134878
-0.149802
-0.166834
-0.18537
-0.204815
-0.224648
-0.244437
-0.26386
-0.282673
-0.300683
-0.317713
-0.333564
-0.347983
-0.360584
-0.37083
-0.377832
-0.380426
-0.376638
-0.364466
-0.103401
-0.104335
-0.110311
-0.118793
-0.12929
-0.141826
-0.156109
-0.171668
-0.188029
-0.20475
-0.221442
-0.237779
-0.253493
-0.268341
-0.282099
-0.294516
-0.305298
-0.314055
-0.320291
-0.323295
-0.322195
-0.315732
-0.30274
-0.100948
-0.101782
-0.10688
-0.114042
-0.122854
-0.133346
-0.145279
-0.158276
-0.171951
-0.185929
-0.199864
-0.213449
-0.22641
-0.238489
-0.249441
-0.259004
-0.266879
-0.27271
-0.276068
-0.276414
-0.273152
-0.265559
-0.253084
-0.0973608
-0.0980858
-0.102393
-0.108401
-0.115756
-0.124493
-0.134414
-0.145208
-0.156556
-0.16814
-0.179656
-0.190825
-0.201383
-0.211077
-0.219663
-0.22689
-0.232485
-0.23614
-0.237517
-0.236227
-0.231877
-0.224043
-0.212452
-0.0928161
-0.093435
-0.0970436
-0.102048
-0.108144
-0.115374
-0.123573
-0.132478
-0.141822
-0.151335
-0.160754
-0.169831
-0.178322
-0.185992
-0.192613
-0.197956
-0.201783
-0.203842
-0.203872
-0.201597
-0.196759
-0.189107
-0.178534
-0.0874683
-0.087993
-0.0909902
-0.0951257
-0.100137
-0.106078
-0.112807
-0.120096
-0.127723
-0.135461
-0.143083
-0.150371
-0.157107
-0.163081
-0.168088
-0.171925
-0.174391
-0.175286
-0.17441
-0.171571
-0.166606
-0.159381
-0.14989
-0.0814477
-0.0818987
-0.0843609
-0.0877494
-0.0918335
-0.0966746
-0.102151
-0.108065
-0.114232
-0.12046
-0.126557
-0.132331
-0.137595
-0.142163
-0.145855
-0.1485
-0.149932
-0.149991
-0.14853
-0.145417
-0.140555
-0.133882
-0.125436
-0.074865
-0.0752658
-0.0772596
-0.0800161
-0.0833106
-0.0872183
-0.0916326
-0.0963821
-0.101314
-0.106269
-0.111081
-0.115589
-0.11963
-0.123044
-0.12568
-0.127394
-0.128051
-0.127527
-0.125713
-0.122523
-0.117901
-0.111825
-0.104355
-0.067823
-0.0681869
-0.0697772
-0.072007
-0.0746322
-0.077751
-0.0812679
-0.0850357
-0.0889304
-0.0928174
-0.0965584
-0.100015
-0.103051
-0.105531
-0.10733
-0.108328
-0.108417
-0.107502
-0.105504
-0.102366
-0.0980602
-0.0925896
-0.0860199
-0.0604192
-0.0607404
-0.0619963
-0.0637903
-0.0658499
-0.0683059
-0.0710675
-0.0740121
-0.0770402
-0.0800379
-0.0828907
-0.0854836
-0.0877018
-0.0894348
-0.0905786
-0.0910368
-0.0907234
-0.0895652
-0.0875055
-0.0845079
-0.0805629
-0.0756863
-0.0699432
-0.0527404
-0.0529988
-0.0539879
-0.0554205
-0.0570052
-0.0589079
-0.0610367
-0.0632945
-0.065602
-0.0678632
-0.0699852
-0.071874
-0.0734353
-0.0745792
-0.0752217
-0.0752856
-0.0747032
-0.0734189
-0.0713921
-0.0686008
-0.0650458
-0.0607493
-0.0557735
-0.0448593
-0.0450287
-0.0458111
-0.0469421
-0.0481318
-0.0495758
-0.0511767
-0.0528649
-0.0545764
-0.056232
-0.057759
-0.0590818
-0.0601244
-0.0608154
-0.0610879
-0.0608813
-0.060143
-0.0588311
-0.0569172
-0.0543889
-0.0512534
-0.0475358
-0.0432961
-0.0368393
-0.036894
-0.0375194
-0.0383962
-0.0392594
-0.0403249
-0.0414876
-0.0427063
-0.0439287
-0.0450923
-0.0461427
-0.04702
-0.0476652
-0.0480229
-0.0480413
-0.0476735
-0.04688
-0.04563
-0.0439044
-0.0416975
-0.0390207
-0.0359008
-0.032397
-0.0287254
-0.0286467
-0.0291608
-0.029818
-0.0304114
-0.0311642
-0.0319645
-0.0327995
-0.0336252
-0.0343961
-0.0350735
-0.0356116
-0.0359666
-0.0360973
-0.0359651
-0.0355357
-0.0347802
-0.0336774
-0.0322153
-0.0303931
-0.0282246
-0.0257374
-0.0229883
-0.0205794
-0.020366
-0.0207878
-0.0212436
-0.0216142
-0.0221092
-0.0226116
-0.0231372
-0.0236462
-0.0241106
-0.0245046
-0.0247952
-0.0249531
-0.02495
-0.0247593
-0.0243576
-0.0237257
-0.0228503
-0.0217247
-0.0203515
-0.0187442
-0.0169281
-0.0149566
-0.0123207
-0.0120423
-0.012408
-0.0126692
-0.0128536
-0.0131298
-0.013389
-0.0136667
-0.0139267
-0.0141581
-0.0143452
-0.014468
-0.0145101
-0.0144551
-0.0142874
-0.0139937
-0.0135628
-0.0129878
-0.0122655
-0.011399
-0.0103975
-0.00927826
-0.00808147
-0.00447081
-0.00405186
-0.00417533
-0.00425562
-0.00430797
-0.00440051
-0.00446043
-0.00453451
-0.00459118
-0.00463699
-0.00466446
-0.00466764
-0.00464247
-0.00458387
-0.00448706
-0.00434833
-0.0041648
-0.0039353
-0.0036598
-0.00334064
-0.00298162
-0.00259019
-0.00218488
801.324
807.7
809.049
790.492
793.37
838.623
855.503
870.762
288.493
409.703
615.946
797.813
144.907
327.909
520.158
677.306
667.856
937.407
940.392
932.08
54.8279
298.623
916.844
1058.46
53.4893
54.3547
60.4585
431.931
55.1154
56.508
59.4826
94.9251
69.9173
70.8107
133.722
147.98
307.872
309.552
831.645
989.56
1003.06
1037.86
1057.94
1075.53
173.94
101.665
316.393
754.148
-0.780832
0.822901
233.51
419.477
-0.957949
-0.86902
-1.22642
-1.8251
-1.19316
-1.20927
-1.30323
-1.3008
-1.20257
-0.750292
-0.807352
-1.23134
-1.72057
-1.62605
2.01536
4.76024
-1.66989
-1.71196
-0.711156
5.09551
0.860149
-1.58042
-1.57879
1.37857
4.53821
0.145731
6.13928
6.23527
1.71421
1.70116
1.63058
2.03701
-1.00775
-0.875868
-0.859301
-0.949099
-0.696503
-0.683705
-0.661389
-0.630518
-0.517104
-0.499926
-0.479587
-0.453845
-0.423373
-0.408038
-0.388091
-0.365781
-0.347419
-0.333413
-0.317184
-0.299392
-0.287481
-0.27588
-0.262931
-0.248803
-0.239831
-0.230041
-0.219311
-0.207742
-0.200876
-0.192514
-0.183505
-0.173954
-0.168479
-0.161358
-0.153776
-0.145794
-0.141202
-0.135139
-0.12874
-0.121977
-0.117919
-0.112721
-0.10726
-0.101543
-0.0978556
-0.0933987
-0.0887365
-0.0838753
-0.0804113
-0.0765911
-0.0726094
-0.0684723
-0.0651179
-0.0618499
-0.058455
-0.0549389
-0.0516503
-0.0488741
-0.0460021
-0.0430392
-0.0398288
-0.0375109
-0.0351277
-0.0326835
-0.0295725
-0.0276995
-0.0257882
-0.0238447
-0.0208077
-0.0193712
-0.0179109
-0.0164262
-0.0134298
-0.0124391
-0.0114563
-0.0105001
-0.00716893
-0.0065776
-0.00599572
-0.00543432
-0.00188474
-0.00169493
-0.00151162
-0.00134122
851.499
888.768
890.15
878.252
550.092
292.338
267.315
292.147
208.117
212.177
209.695
180.521
136.577
223.546
345.478
471.443
645.879
809.555
870.336
904.337
905.515
958.835
908.683
480.298
295.116
352.185
282.806
196.253
195.423
189.107
162.281
123.164
100.479
96.0223
105.949
311.01
664.857
978.779
906.147
808.614
970.137
858.781
371.278
297.03
386.099
364.41
292.912
190.91
181.422
155.687
131.979
111.298
103.17
85.9437
46.0166
85.99
781.978
801.179
874.235
966.813
731.358
263.589
266.671
376.828
365.561
376.647
385.348
343.587
162.064
146.28
131.283
136.797
62.9881
9.56908
10.6358
93.6675
903.718
931.846
977.522
567.867
71.1577
203.587
352.21
231.59
186.355
338.177
339.208
357.895
342.681
248.953
54.0176
6.52497
7.46738
8.33642
9.73857
1050.77
1056.47
1003.36
356.165
7.67221
14.8693
23.7604
19.5562
22.0746
101.422
251.902
252.423
110.783
58.4176
9.44549
5.23129
6.06462
7.782
10.1675
1009.39
1185.33
986.172
109.365
1.48101
-0.695739
1.95872
14.282
11.9975
12.2532
17.9977
17.365
12.0693
6.8118
4.57522
4.54778
5.59361
7.19321
10.598
674.308
1281.63
1088.64
134.858
-1.14689
-3.8432
14.7909
166.784
235.027
99.2418
96.6704
22.1835
9.56665
6.54256
4.55459
4.67927
8.75335
6.64808
6.43368
215.111
957.333
1167.19
325.745
-2.65267
-5.15505
-1.38019
-7.98919
513.783
493.245
227.284
96.965
30.522
5.95897
4.66778
5.88873
12.3523
7.12435
6.48841
980.287
1027.32
1039.52
256.958
-0.956084
-3.42752
-4.56154
-4.29694
566.875
549.089
175.33
168.081
122.773
27.4181
3.90106
6.03538
12.7225
10.5027
6.86367
1088.81
1114.93
1097.83
402.367
7.4713
0.298699
-1.35011
381.116
812.302
374.038
9.8487
21.1587
58.32
37.0336
2.76807
4.46373
10.3447
13.7144
24.6595
1088.63
1182.86
1196.94
1132.86
794.126
744.587
840.461
885.018
873.517
115.942
7.75429
5.13494
-1.74562
1.83058
1.58879
4.81555
4.40235
2.91169
30.5081
477.53
592.536
730.926
940.347
988.769
985.881
981.54
872.147
116.969
3.64664
7.58959
-0.261021
-0.720293
-0.690644
1.55572
3.74393
0.23087
0.0512713
0.52774
-1.79676
147.746
441.83
525.084
506.922
445.031
377.708
33.1517
0.920186
2.86866
-0.121227
0.0238997
-0.122112
0.0783044
0.595204
0.743254
-0.0398933
0.189736
0.389937
-1.13518
-0.766488
-0.440849
-0.235238
-0.263946
-0.346719
-0.32873
-0.222929
0.788305
-0.168266
-0.214695
-0.117913
0.116862
0.319268
0.327159
0.11002
0.159622
0.34208
0.466265
-1.18974
-0.746146
-0.417813
-0.25584
-0.282369
-0.317469
-0.259004
-0.208221
-0.269599
-0.444303
-0.417064
-0.208513
0.0732378
0.289443
0.347667
0.268335
0.299782
0.440247
0.538929
1.00092
-0.761069
-0.404762
-0.223011
-0.178888
-0.186295
-0.191649
-0.241055
-0.462584
-0.676781
-0.641391
-0.372897
-0.061331
0.165139
0.269228
0.298008
0.361606
0.485504
0.575233
5.59771
0.789733
-0.369396
-0.156183
-0.0215761
0.0293608
-0.0089607
-0.185252
-0.48753
-0.742368
-0.690776
-0.416059
-0.122097
0.0924849
0.216048
0.294711
0.379626
0.494912
0.58182
5.91082
4.43432
-0.352736
-0.120999
0.0359473
0.11436
0.0994138
-0.0796244
-0.375418
-0.580796
-0.550258
-0.333535
-0.0985475
0.0777987
0.196659
0.287142
0.376019
0.650439
0.915095
6.4293
2.27652
-0.358683
-0.12114
0.027608
0.0905976
0.0842237
-0.00746115
-0.1712
-0.308809
-0.306266
-0.183815
-0.0345653
0.091272
0.191568
0.277186
0.361458
0.882467
1.51465
0.948197
-0.724319
-0.358055
-0.132045
-0.00692204
0.0467808
0.0512234
0.0141329
-0.0572622
-0.122367
-0.127531
-0.0695396
0.0172405
0.104963
0.186865
0.26267
0.441252
0.933832
0.534677
-0.836676
-0.571944
-0.309288
-0.132408
-0.0379096
0.0075512
0.0234853
0.01728
-0.00576467
-0.02976
-0.0306743
0.000282895
0.0528441
0.113602
0.176746
0.240103
0.72012
0.918161
0.438413
-0.561685
-0.410711
-0.245917
-0.128026
-0.0586454
-0.0177255
0.0062316
0.017568
0.019804
0.0197915
0.0270503
0.0467834
0.077392
0.115478
0.158823
0.208677
0.790493
0.89111
0.431989
-0.402846
-0.310741
-0.210777
-0.128796
-0.07112
-0.031158
-0.00223553
0.0192303
0.0356756
0.0490268
0.0616158
0.0751056
0.0908547
0.110464
0.134744
0.191117
0.753619
0.678701
0.323413
-0.325014
-0.258906
-0.187752
-0.123693
-0.0736077
-0.0355022
-0.00483408
0.0213998
0.044656
0.0643065
0.0796207
0.0897569
0.0968051
0.102929
0.111164
0.141465
0.55533
0.23622
0.256793
-0.267382
-0.216766
-0.163158
-0.112805
-0.0702551
-0.0350687
-0.00469024
0.0229508
0.048533
0.0702379
0.0864904
0.0953908
0.115181
0.116323
0.0980744
0.11964
0.174802
0.20087
0.214223
-0.223331
-0.183451
-0.141404
-0.100765
-0.0643729
-0.0325248
-0.00394266
0.0226736
0.0477573
0.068939
0.0848424
0.0981001
0.137014
0.136529
0.0973302
0.116008
0.146363
0.168572
0.181573
-0.187091
-0.155023
-0.121261
-0.0880639
-0.0572665
-0.0293111
-0.00366663
0.0202801
0.0428914
0.0619365
0.0772045
0.104393
0.136026
0.138061
0.10541
0.11512
0.133395
0.145765
0.156533
-0.157022
-0.130898
-0.103398
-0.0760548
-0.0501264
-0.0260805
-0.00383947
0.0169646
0.03588
0.0525311
0.0669703
0.0951896
0.129883
0.137346
0.107368
0.109214
0.11965
0.128398
0.136516
-0.131716
-0.110154
-0.0874916
-0.064817
-0.0430577
-0.0226225
-0.00362685
0.0140203
0.0300518
0.0443457
0.0578563
0.0707108
0.102505
0.112789
0.1001
0.0994018
0.106191
0.115052
0.120969
-0.110136
-0.0921721
-0.0733343
-0.0544066
-0.0360779
-0.018654
-0.00227205
0.01281
0.0269091
0.0395546
0.0517523
0.0627915
0.0723322
0.0796889
0.0863821
0.0890645
0.0945059
0.101848
0.109914
-0.0915555
-0.0764892
-0.0607111
-0.044792
-0.0292218
-0.0141964
0.000187005
0.0136932
0.0261553
0.0375796
0.0478853
0.0565756
0.0640348
0.0700839
0.074846
0.0789189
0.0831736
0.0862469
0.0900809
-0.0754165
-0.0627227
-0.0494392
-0.0359826
-0.0226895
-0.00967547
0.00297351
0.0150107
0.0261334
0.035997
0.0441477
0.0503778
0.0557324
0.0604453
0.0646196
0.0680297
0.0711499
0.0727218
0.0739811
-0.0612913
-0.0505646
-0.0393618
-0.0279998
-0.016717
-0.0055999
0.00522477
0.0154753
0.0248527
0.0329099
0.0389789
0.0432026
0.0469818
0.050365
0.0536271
0.0561733
0.0584403
0.0593874
0.0597252
-0.0488529
-0.039814
-0.0304218
-0.0209435
-0.0115748
-0.00240139
0.00638806
0.014528
0.0218668
0.0279876
0.0322488
0.035045
0.0375142
0.039776
0.0420545
0.0438159
0.0451698
0.0459691
0.0458794
-0.0379328
-0.0304191
-0.022705
-0.015039
-0.00758674
-0.000418886
0.00623235
0.0122011
0.0175078
0.0217675
0.0244749
0.0261218
0.0275697
0.0287651
0.0301416
0.031175
0.0319098
0.0323841
0.0321624
-0.0285001
-0.022446
-0.0163711
-0.0104966
-0.00494695
0.000245038
0.00484797
0.00882411
0.0122705
0.014819
0.0161402
0.0166585
0.0171048
0.0174616
0.0179875
0.0182463
0.0184826
0.0185348
0.0183428
-0.0205599
-0.0159363
-0.0114651
-0.00731856
-0.00357784
-0.000236102
0.00251789
0.00471909
0.00644051
0.007377
0.00737752
0.00688625
0.00635994
0.00584222
0.00549882
0.0050609
0.00482461
0.00449346
0.0043217
-0.0140453
-0.0108029
-0.00785231
-0.00531458
-0.00323849
-0.0016014
-0.00052947
2.49902e-05
9.30581e-05
-0.00050243
-0.00175041
-0.00325244
-0.0047248
-0.00607259
-0.00720172
-0.00824129
-0.00893367
-0.00957356
-0.00978705
-0.00882902
-0.0068337
-0.00528065
-0.00423432
-0.00370812
-0.00367564
-0.00420125
-0.00523527
-0.00674573
-0.0087632
-0.0111742
-0.0136621
-0.0160267
-0.0181578
-0.0199993
-0.0215755
-0.0227086
-0.0236043
-0.0238961
-0.00453478
-0.00373122
-0.00352642
-0.00392673
-0.00491936
-0.00647663
-0.0086007
-0.0112204
-0.0142598
-0.017634
-0.0211721
-0.0246343
-0.027872
-0.0307857
-0.0333247
-0.0354474
-0.0370258
-0.0381594
-0.0385066
-0.0011471
-0.00148264
-0.00260604
-0.00446377
-0.00701123
-0.010228
-0.0140338
-0.0183202
-0.0229732
-0.0278038
-0.0325705
-0.0370724
-0.0412378
-0.044993
-0.0482944
-0.0510731
-0.0531424
-0.0545828
-0.0547633
)
;

boundaryField
{
    leftWall
    {
        type            fixedFluxPressure;
        gradient        uniform 0;
        value           nonuniform List<scalar> 
50
(
826.598
826.85
823.014
815.452
805.267
793.5
780.825
768.526
725.184
527.756
182.123
11.7132
4.86251
0.99414
-0.342717
-0.562653
-0.541296
-0.443223
-0.310736
-0.218723
-0.237749
-0.317939
-0.339712
-0.261606
-0.150991
-0.0909943
-0.0761229
-0.0778189
-0.084575
-0.0920698
-0.0980152
-0.101986
-0.104111
-0.104525
-0.103401
-0.100948
-0.0973608
-0.0928161
-0.0874683
-0.0814477
-0.074865
-0.067823
-0.0604192
-0.0527404
-0.0448593
-0.0368393
-0.0287254
-0.0205794
-0.0123207
-0.00447081
)
;
    }
    rightWall
    {
        type            fixedFluxPressure;
        gradient        uniform 0;
        value           nonuniform List<scalar> 
50
(
789.101
742.183
725.701
727.327
793.802
926.02
998.313
771.666
870.336
978.779
781.978
93.6675
9.73857
10.1675
10.598
6.43368
6.48841
6.86367
24.6595
30.5081
0.52774
0.389937
0.466265
0.538929
0.575233
0.58182
0.915095
1.51465
0.534677
0.438413
0.431989
0.323413
0.256793
0.214223
0.181573
0.156533
0.136516
0.120969
0.109914
0.0900809
0.0739811
0.0597252
0.0458794
0.0321624
0.0183428
0.0043217
-0.00978705
-0.0238961
-0.0385066
-0.0547633
)
;
    }
    lowerWall
    {
        type            fixedFluxPressure;
        gradient        uniform 0;
        value           nonuniform List<scalar> 
62
(
826.598
824.756
821.713
818.636
819.963
828.006
840.226
853.504
866.986
880.259
891.649
898.719
898.867
890.277
872.756
847.012
817.101
791.668
776.02
768.51
772.134
780.024
782.635
782.635
780.726
778.923
777.307
776.054
775.356
775.553
776.778
801.324
807.7
809.049
790.492
874.96
880.027
866.613
843.22
845.706
842.019
841.232
844.632
874.96
809.739
781.299
754.072
626.88
542.353
505.513
434.363
381.647
387.33
392.211
431.616
489.381
547.736
603.412
658.885
720.371
770.127
789.101
)
;
    }
    atmosphere
    {
        type            totalPressure;
        rho             rho;
        psi             none;
        gamma           1;
        p0              uniform 0;
        value           nonuniform List<scalar> 
46
(
0
0
0
0
0
0
0
0
0
0
0
0
0
0
0
0
0
0
0
0
0
0
0
0
0
0
0
-7.74679e-05
-0.000908615
-0.00263144
-0.0052375
-0.00857701
-0.012688
-0.0173995
-0.0226158
-0.0282218
-0.0339361
-0.0394366
-0.0445253
-0.0492235
-0.0534627
-0.0572298
-0.0604601
-0.062825
-0.064579
-0.0643385
)
;
    }
    defaultFaces
    {
        type            empty;
    }
}


// ************************************************************************* //
