/*--------------------------------*- C++ -*----------------------------------*\
| =========                 |                                                 |
| \\      /  F ield         | OpenFOAM: The Open Source CFD Toolbox           |
|  \\    /   O peration     | Version:  5.x                                   |
|   \\  /    A nd           | Web:      www.OpenFOAM.org                      |
|    \\/     M anipulation  |                                                 |
\*---------------------------------------------------------------------------*/
FoamFile
{
    version     2.0;
    format      ascii;
    class       volVectorField;
    location    "0.85";
    object      U;
}
// * * * * * * * * * * * * * * * * * * * * * * * * * * * * * * * * * * * * * //

dimensions      [0 1 -1 0 0 0 0];

internalField   nonuniform List<vector> 
2268
(
(-0.0230769 0.00950008 0)
(-0.080772 0.0141213 0)
(-0.146353 0.0166832 0)
(-0.220567 0.0184474 0)
(-0.284967 0.0136246 0)
(-0.307902 0.00288617 0)
(-0.289935 -0.00417319 0)
(-0.26843 -0.0037317 0)
(-0.256093 -0.00151995 0)
(-0.251935 -0.00034427 0)
(-0.250108 -0.000101701 0)
(-0.247526 -0.000199193 0)
(-0.241542 -0.00218015 0)
(-0.225953 -0.00789388 0)
(-0.193548 -0.0153052 0)
(-0.153632 -0.0148914 0)
(-0.141463 0.00368446 0)
(-0.198284 0.0240795 0)
(-0.269249 0.0132383 0)
(-0.258623 -0.00768236 0)
(-0.193604 -0.0233681 0)
(-0.116851 -0.0293027 0)
(-0.0379359 -0.0227206 0)
(-0.049382 0.0441226 0)
(-0.139513 0.0492347 0)
(-0.222345 0.0499957 0)
(-0.294164 0.0462607 0)
(-0.330662 0.0275995 0)
(-0.324293 -8.32596e-05 0)
(-0.301766 -0.0158059 0)
(-0.274968 -0.0138682 0)
(-0.259211 -0.00592211 0)
(-0.254296 -0.00164457 0)
(-0.252571 -0.00133126 0)
(-0.246706 -0.00352105 0)
(-0.232706 -0.00828807 0)
(-0.212081 -0.0150971 0)
(-0.19246 -0.0196613 0)
(-0.18617 -0.0106918 0)
(-0.202476 0.0179832 0)
(-0.225936 0.0348504 0)
(-0.209508 0.00790289 0)
(-0.150556 -0.0258394 0)
(-0.111079 -0.0471673 0)
(-0.0677062 -0.0612143 0)
(-0.0200155 -0.0538008 0)
(-0.0550258 0.0898119 0)
(-0.141767 0.0898054 0)
(-0.218929 0.083835 0)
(-0.288134 0.070769 0)
(-0.328325 0.0368966 0)
(-0.331221 -0.00658538 0)
(-0.31006 -0.0304557 0)
(-0.285649 -0.0261352 0)
(-0.268822 -0.01144 0)
(-0.26142 -0.00340599 0)
(-0.256211 -0.00382106 0)
(-0.244036 -0.00993578 0)
(-0.220542 -0.0191086 0)
(-0.187653 -0.0270575 0)
(-0.153005 -0.0267743 0)
(-0.124894 -0.0107432 0)
(-0.109315 0.0169555 0)
(-0.0953756 0.024173 0)
(-0.0510313 -0.0114948 0)
(-0.0155498 -0.0425385 0)
(-0.00703456 -0.0539966 0)
(-0.0093422 -0.0690225 0)
(0.00706419 -0.0624004 0)
(-0.0501561 0.134068 0)
(-0.124854 0.127946 0)
(-0.196676 0.116215 0)
(-0.265307 0.0957962 0)
(-0.306649 0.0489943 0)
(-0.310097 -0.00953031 0)
(-0.297822 -0.0419598 0)
(-0.289274 -0.0356417 0)
(-0.280793 -0.0165784 0)
(-0.27516 -0.00615125 0)
(-0.27138 -0.00821997 0)
(-0.26062 -0.019283 0)
(-0.236106 -0.0347652 0)
(-0.197114 -0.0478784 0)
(-0.147597 -0.0489796 0)
(-0.0913712 -0.0309757 0)
(-0.0324788 -0.00183508 0)
(0.0190836 0.00919998 0)
(0.0563187 -0.0175056 0)
(0.0652871 -0.0414602 0)
(0.0581353 -0.0460343 0)
(0.0208639 -0.062525 0)
(0.0217969 -0.0533207 0)
(-0.0409374 0.171976 0)
(-0.102481 0.162091 0)
(-0.166211 0.146575 0)
(-0.22499 0.120313 0)
(-0.256019 0.0627896 0)
(-0.255095 -0.00741546 0)
(-0.259388 -0.0429267 0)
(-0.279514 -0.0353188 0)
(-0.289978 -0.0165783 0)
(-0.291534 -0.00646135 0)
(-0.289852 -0.0101401 0)
(-0.280523 -0.0265179 0)
(-0.255996 -0.0501126 0)
(-0.213631 -0.0712869 0)
(-0.156634 -0.0777349 0)
(-0.0908641 -0.0629462 0)
(-0.0221948 -0.0359383 0)
(0.0382704 -0.0190197 0)
(0.0711196 -0.0305531 0)
(0.0665725 -0.0430742 0)
(0.0601936 -0.0390319 0)
(0.0193702 -0.0525914 0)
(0.0235192 -0.0443116 0)
(-0.0291101 0.201515 0)
(-0.0746435 0.19012 0)
(-0.126058 0.169629 0)
(-0.168762 0.136339 0)
(-0.186646 0.0707967 0)
(-0.181641 -0.0029622 0)
(-0.207177 -0.0316633 0)
(-0.26152 -0.0224041 0)
(-0.294954 -0.00884832 0)
(-0.308317 -0.00463599 0)
(-0.310689 -0.0127131 0)
(-0.302601 -0.0351042 0)
(-0.27657 -0.0667269 0)
(-0.226861 -0.0955557 0)
(-0.15732 -0.106559 0)
(-0.0818208 -0.0929352 0)
(-0.0134596 -0.062709 0)
(0.037846 -0.0376303 0)
(0.0634443 -0.0334455 0)
(0.0554523 -0.037552 0)
(0.0476459 -0.030417 0)
(0.014016 -0.0447942 0)
(0.0204189 -0.0370762 0)
(-0.0146003 0.220464 0)
(-0.0444074 0.21063 0)
(-0.0854465 0.187175 0)
(-0.110065 0.147971 0)
(-0.11059 0.0802855 0)
(-0.100439 0.00709946 0)
(-0.163079 -0.0134401 0)
(-0.247895 -4.11941e-05 0)
(-0.299436 0.00675116 0)
(-0.32566 0.00265961 0)
(-0.334332 -0.0116406 0)
(-0.327608 -0.0410458 0)
(-0.294868 -0.0839977 0)
(-0.226624 -0.126688 0)
(-0.135892 -0.147406 0)
(-0.0480537 -0.133608 0)
(0.0205892 -0.0939204 0)
(0.0634426 -0.0559552 0)
(0.0806345 -0.036148 0)
(0.0703274 -0.0314474 0)
(0.0544147 -0.0225851 0)
(0.0261374 -0.0367262 0)
(0.0202995 -0.0282109 0)
(-0.000960839 0.233762 0)
(-0.00726538 0.230197 0)
(-0.0238449 0.197858 0)
(-0.0178582 0.145929 0)
(0.00073628 0.0750162 0)
(-0.024762 0.0267694 0)
(-0.150582 0.0374912 0)
(-0.24621 0.0417637 0)
(-0.301779 0.0311393 0)
(-0.338117 0.01417 0)
(-0.355782 -0.0100326 0)
(-0.346127 -0.0536237 0)
(-0.29444 -0.119716 0)
(-0.206595 -0.183071 0)
(-0.108861 -0.20416 0)
(-0.0188382 -0.174513 0)
(0.0489344 -0.120241 0)
(0.087682 -0.0692748 0)
(0.0979157 -0.0375007 0)
(0.0827514 -0.0246403 0)
(0.0649293 -0.0152286 0)
(0.0398828 -0.0254889 0)
(0.0229539 -0.0194888 0)
(-0.0286327 0.0253157 0)
(-0.308565 0.0460464 0)
(-0.311521 -0.0231114 0)
(-0.010278 -0.0785202 0)
(0.209091 -0.0346575 0)
(0.275545 0.00136774 0)
(0.253955 -0.00509867 0)
(0.0254015 0.0652066 0)
(-0.452542 0.0724578 0)
(-0.270105 -0.0425922 0)
(-0.00648591 -0.0485642 0)
(-0.0320118 0.0544652 0)
(-0.16302 0.0527411 0)
(-0.237117 0.00341821 0)
(-0.280859 -0.026951 0)
(-0.374621 -0.0159077 0)
(-0.447068 0.00958308 0)
(-0.349031 -0.0199897 0)
(-0.0659206 -0.093683 0)
(-0.168781 0.115723 0)
(-0.393608 0.0869572 0)
(-0.201117 -0.0984501 0)
(0.0517061 -0.198029 0)
(0.219201 -0.0912887 0)
(0.254879 0.00463753 0)
(0.0752301 0.0868455 0)
(-0.386232 0.21465 0)
(-0.47881 0.0654542 0)
(0.0428084 -0.200885 0)
(0.0595225 -0.0624438 0)
(0.127895 0.00451439 0)
(0.102309 0.0277882 0)
(0.0999303 0.0308825 0)
(0.0888629 0.0745401 0)
(0.00752081 0.097955 0)
(-0.253467 -0.0290025 0)
(-0.224025 -0.154015 0)
(0.0266421 -0.126418 0)
(-0.206213 0.21564 0)
(-0.331824 0.095417 0)
(-0.128259 -0.19615 0)
(0.0935541 -0.292917 0)
(0.144847 -0.114425 0)
(0.110792 0.0714919 0)
(-0.280817 0.235341 0)
(-0.539238 0.264875 0)
(-0.0857929 -0.0429881 0)
(-0.0788498 -0.270341 0)
(-0.0274032 -0.0287573 0)
(-0.046803 0.0639432 0)
(-0.0592092 0.057682 0)
(-0.0466293 0.0192051 0)
(0.0291765 0.0494256 0)
(0.146788 0.107784 0)
(0.160753 0.0530572 0)
(0.192816 -0.0522613 0)
(-0.0867359 -0.133929 0)
(-0.190898 0.308556 0)
(-0.25037 0.100462 0)
(-0.086674 -0.284096 0)
(0.0498027 -0.349507 0)
(-0.0126693 -0.075296 0)
(-0.16915 0.189965 0)
(-0.513317 0.311622 0)
(-0.345147 0.167895 0)
(0.216807 -0.0718125 0)
(-0.082567 -0.295751 0)
(-0.0400518 -0.128805 0)
(-0.114421 0.0345243 0)
(-0.153535 0.0341565 0)
(-0.099298 -0.0196993 0)
(-0.00478828 -0.00961596 0)
(0.129542 0.0677813 0)
(0.261975 0.0182588 0)
(0.246427 -0.0329921 0)
(-0.0310455 -0.147434 0)
(-0.161674 0.38441 0)
(-0.180667 0.0996314 0)
(-0.0628333 -0.344007 0)
(-0.0808034 -0.33878 0)
(-0.256487 0.0248585 0)
(-0.473544 0.295644 0)
(-0.583953 0.28598 0)
(0.127544 -0.00323168 0)
(0.291865 -0.094076 0)
(-0.119146 -0.17929 0)
(-0.24482 0.0267852 0)
(-0.282745 0.0796847 0)
(-0.319269 0.0417235 0)
(-0.4198 -0.0731391 0)
(-0.491542 -0.0626645 0)
(-0.190893 -0.0207519 0)
(0.0317685 -0.0347875 0)
(0.141081 0.029557 0)
(0.211358 -0.0453746 0)
(-0.131492 0.44195 0)
(-0.129137 0.0994082 0)
(-0.0651456 -0.352814 0)
(-0.252504 -0.258397 0)
(-0.525929 0.146552 0)
(-0.65269 0.31286 0)
(-0.390893 0.0718681 0)
(0.332037 -0.175456 0)
(0.319119 -0.019441 0)
(-0.123341 -0.072241 0)
(-0.323038 0.0218133 0)
(-0.461094 0.0708212 0)
(-0.732035 0.0742844 0)
(-1.44201 0.0945818 0)
(-1.50956 -0.0181494 0)
(-1.12641 -0.124895 0)
(-0.655845 -0.122332 0)
(-0.178245 -0.051937 0)
(0.334379 -0.0284212 0)
(-0.106241 0.482758 0)
(-0.0859091 0.108585 0)
(-0.0939738 -0.312208 0)
(-0.422648 -0.13391 0)
(-0.724715 0.238827 0)
(-0.670168 0.242357 0)
(0.0135622 -0.204079 0)
(0.146838 -0.257156 0)
(0.190698 0.0777248 0)
(-0.225196 0.0813175 0)
(-0.693772 0.197448 0)
(-1.2894 0.331311 0)
(-1.8096 0.388744 0)
(-1.96898 0.155138 0)
(-1.68005 -0.18724 0)
(-1.38649 -0.350447 0)
(-0.971153 -0.43573 0)
(-0.422358 -0.34708 0)
(0.370692 0.046388 0)
(-0.0711843 0.515654 0)
(-0.0334563 0.142849 0)
(-0.122118 -0.223295 0)
(-0.53608 0.00333701 0)
(-0.790888 0.26309 0)
(-0.487509 0.0289512 0)
(0.0374617 -0.336779 0)
(-0.168816 -0.248264 0)
(-0.067374 0.161271 0)
(-0.415111 0.266189 0)
(-0.832783 0.427086 0)
(-1.46863 0.524382 0)
(-1.81611 0.362147 0)
(-1.70129 -0.0136313 0)
(-1.42031 -0.318172 0)
(-1.1944 -0.497612 0)
(-0.869269 -0.644022 0)
(-0.470574 -0.618486 0)
(-0.0162723 -0.0606243 0)
(0.0340657 0.185762 0)
(0.0429823 0.208679 0)
(0.0184731 0.191077 0)
(-0.0228957 0.161914 0)
(-0.108912 0.128245 0)
(-0.202598 0.108721 0)
(-0.257661 0.088643 0)
(-0.288834 0.0694787 0)
(-0.31617 0.0566536 0)
(-0.347581 0.0364572 0)
(-0.370473 -0.00755254 0)
(-0.364433 -0.0828269 0)
(-0.331657 -0.174719 0)
(-0.28326 -0.238243 0)
(-0.195055 -0.244185 0)
(-0.067926 -0.207554 0)
(0.0501207 -0.147964 0)
(0.109564 -0.0779114 0)
(0.103771 -0.0191864 0)
(0.0676208 0.00349325 0)
(0.0404128 0.00666259 0)
(0.0217534 0.00882426 0)
(-0.0193722 0.0182376 0)
(-0.155726 0.179893 0)
(-0.138207 0.246032 0)
(-0.263802 0.23673 0)
(-0.353648 0.215909 0)
(-0.442022 0.178905 0)
(-0.483384 0.140055 0)
(-0.474499 0.114829 0)
(-0.436698 0.103549 0)
(-0.409807 0.0970393 0)
(-0.415568 0.0678794 0)
(-0.462409 0.0129222 0)
(-0.562361 -0.0525582 0)
(-0.668364 -0.11831 0)
(-0.661882 -0.221526 0)
(-0.488049 -0.358606 0)
(-0.179097 -0.393821 0)
(0.116035 -0.302378 0)
(0.236654 -0.152902 0)
(0.23036 -0.0252577 0)
(0.144257 0.0151894 0)
(0.0432452 0.00499645 0)
(-0.0378606 0.0093073 0)
(-0.0632626 0.0319379 0)
(-0.685645 0.50184 0)
(-0.814607 0.3919 0)
(-1.08822 0.350811 0)
(-1.31659 0.317282 0)
(-1.43414 0.2824 0)
(-1.3691 0.177463 0)
(-1.28084 0.0146195 0)
(-1.20349 -0.0424806 0)
(-1.16069 0.00710162 0)
(-1.22212 0.0933879 0)
(-1.36387 0.160869 0)
(-1.49895 0.148878 0)
(-1.49665 -0.070465 0)
(-1.32156 -0.523803 0)
(-1.06641 -0.854643 0)
(-0.60238 -0.864055 0)
(-0.284103 -0.656127 0)
(0.283978 -0.252112 0)
(0.728884 0.0562596 0)
(0.284954 0.164 0)
(-0.00607436 0.150991 0)
(-0.226963 0.105587 0)
(-0.311488 0.0769437 0)
(-1.5414 1.75368 0)
(-1.82057 0.680879 0)
(-1.96957 0.60319 0)
(-1.97808 0.372181 0)
(-1.88937 0.1138 0)
(-1.79688 -0.0748707 0)
(-1.79626 -0.106529 0)
(-1.91077 0.0114916 0)
(-2.03441 0.19336 0)
(-2.06516 0.276521 0)
(-2.06658 0.203055 0)
(-2.00533 -0.0475805 0)
(-1.82311 -0.447866 0)
(-1.62815 -0.85462 0)
(-1.48575 -1.09969 0)
(-1.33233 -1.13031 0)
(-1.2241 -0.995658 0)
(-0.974179 -0.495741 0)
(-0.759462 0.0920134 0)
(-0.722641 0.432203 0)
(-1.02201 0.481934 0)
(-1.18321 0.370122 0)
(-1.03497 0.145689 0)
(-0.747548 3.01829 0)
(-1.09879 1.16135 0)
(-1.40456 0.803975 0)
(-1.56155 0.61088 0)
(-1.69949 0.381614 0)
(-1.72194 0.053038 0)
(-1.71623 0.105045 0)
(-1.83085 0.161048 0)
(-1.80678 0.150734 0)
(-1.89325 0.15459 0)
(-1.90368 0.142693 0)
(-1.85099 -0.0116953 0)
(-1.70156 -0.403129 0)
(-1.64172 -0.851685 0)
(-1.60468 -1.15147 0)
(-1.5761 -1.22588 0)
(-1.53061 -1.13332 0)
(-1.43508 -0.730488 0)
(-1.30887 0.086262 0)
(-1.24046 0.397109 0)
(-1.22205 0.395799 0)
(-1.21752 0.133559 0)
(-1.00257 -0.277767 0)
(-0.397873 3.67331 0)
(-0.567955 1.70413 0)
(-0.862998 1.01666 0)
(-0.905706 0.603157 0)
(-0.91819 0.344796 0)
(-0.963081 0.084496 0)
(-1.11005 0.0224013 0)
(-1.22871 0.0625877 0)
(-1.29626 0.205939 0)
(-1.37865 0.309779 0)
(-1.42479 0.235273 0)
(-1.39769 -0.0734538 0)
(-1.30174 -0.557805 0)
(-1.40663 -0.908059 0)
(-1.48515 -1.15181 0)
(-1.54685 -1.22515 0)
(-1.58918 -1.14407 0)
(-1.54872 -0.836093 0)
(-1.33034 -0.0683499 0)
(-1.09098 0.348707 0)
(-1.03782 0.343661 0)
(-0.942638 0.184102 0)
(-0.820746 -0.214561 0)
(-0.187896 3.92187 0)
(-0.197271 1.9848 0)
(-0.494819 1.15263 0)
(-0.439703 0.618163 0)
(-0.411801 0.293473 0)
(-0.411582 0.195704 0)
(-0.475528 0.251183 0)
(-0.5864 0.301858 0)
(-0.709879 0.306267 0)
(-0.795735 0.273224 0)
(-0.848705 0.117564 0)
(-0.905629 -0.122784 0)
(-1.00923 -0.311706 0)
(-1.16094 -0.658273 0)
(-1.33704 -1.03837 0)
(-1.44752 -1.15462 0)
(-1.53447 -1.11489 0)
(-1.54845 -0.909124 0)
(-1.39262 -0.477426 0)
(-0.999538 0.0999447 0)
(-0.738072 0.23681 0)
(-0.552414 -0.0610613 0)
(-0.382902 -0.364768 0)
(-0.0149358 3.86338 0)
(0.0967053 2.22772 0)
(-0.295017 1.16723 0)
(-0.175111 0.612632 0)
(-0.235049 0.266285 0)
(-0.21575 0.184305 0)
(-0.192458 0.241626 0)
(-0.170155 0.34931 0)
(-0.189816 0.422718 0)
(-0.248514 0.401332 0)
(-0.313448 0.267478 0)
(-0.412729 0.0432436 0)
(-0.579654 -0.216998 0)
(-0.798107 -0.480671 0)
(-1.08579 -0.819825 0)
(-1.30872 -1.01961 0)
(-1.43159 -1.052 0)
(-1.48497 -0.933786 0)
(-1.4271 -0.685294 0)
(-1.11485 -0.298014 0)
(-0.745849 -0.207331 0)
(-0.449992 -0.201216 0)
(-0.441282 -0.3079 0)
(0.132242 3.59317 0)
(0.333463 2.5161 0)
(-0.14094 1.20164 0)
(-0.0548308 0.623897 0)
(-0.18187 0.280641 0)
(-0.157632 0.157208 0)
(-0.107497 0.18795 0)
(-0.0354633 0.281499 0)
(0.040211 0.380988 0)
(0.0758448 0.419991 0)
(0.053425 0.354194 0)
(-0.0284163 0.205056 0)
(-0.173527 0.0228331 0)
(-0.410224 -0.199068 0)
(-0.757685 -0.520367 0)
(-1.09181 -0.806515 0)
(-1.30156 -0.922609 0)
(-1.3973 -0.909184 0)
(-1.39638 -0.763982 0)
(-1.27939 -0.586705 0)
(-1.05763 -0.458356 0)
(-0.92966 -0.429165 0)
(-0.893606 -0.388548 0)
(0.25057 3.17798 0)
(0.54129 2.7645 0)
(0.113065 1.40368 0)
(0.00630831 0.679596 0)
(-0.119071 0.319079 0)
(-0.106131 0.117061 0)
(-0.0548975 0.112397 0)
(0.018186 0.203045 0)
(0.0886273 0.295863 0)
(0.162497 0.361716 0)
(0.192625 0.355968 0)
(0.16122 0.281978 0)
(0.062914 0.175487 0)
(-0.0908286 0.0611169 0)
(-0.369203 -0.148574 0)
(-0.753421 -0.497672 0)
(-1.1031 -0.737182 0)
(-1.29627 -0.811864 0)
(-1.33222 -0.805102 0)
(-1.27949 -0.683861 0)
(-1.1643 -0.551491 0)
(-1.04851 -0.448437 0)
(-1.01249 -0.406161 0)
(0.336635 2.6309 0)
(0.719687 2.87421 0)
(0.454615 1.7324 0)
(0.188325 0.84773 0)
(0.0398036 0.377135 0)
(0.0202846 0.0963775 0)
(0.0352195 0.0409911 0)
(0.0850126 0.134803 0)
(0.127061 0.235234 0)
(0.169697 0.305547 0)
(0.204861 0.336023 0)
(0.205069 0.317318 0)
(0.156997 0.268699 0)
(0.0611722 0.218602 0)
(-0.094164 0.151763 0)
(-0.423181 -0.098355 0)
(-0.823224 -0.457649 0)
(-1.09533 -0.667373 0)
(-1.23565 -0.765504 0)
(-1.23872 -0.7265 0)
(-1.17726 -0.628222 0)
(-1.07287 -0.508567 0)
(-1.00248 -0.415328 0)
(0.358912 1.98969 0)
(0.829941 2.75878 0)
(0.77837 2.01389 0)
(0.517126 1.12202 0)
(0.32973 0.50909 0)
(0.254054 0.134966 0)
(0.202948 0.0201371 0)
(0.189762 0.103073 0)
(0.196475 0.215926 0)
(0.196852 0.284047 0)
(0.203277 0.322291 0)
(0.203515 0.332715 0)
(0.18087 0.322466 0)
(0.12652 0.312484 0)
(0.047192 0.316455 0)
(-0.123436 0.23651 0)
(-0.469014 -0.0726205 0)
(-0.810043 -0.436637 0)
(-1.04075 -0.676431 0)
(-1.18349 -0.783062 0)
(-1.19319 -0.730906 0)
(-1.08837 -0.630286 0)
(-0.954709 -0.513801 0)
(0.283933 1.35517 0)
(0.810693 2.43347 0)
(0.954757 2.11189 0)
(0.821532 1.36001 0)
(0.657943 0.689687 0)
(0.535958 0.243386 0)
(0.414584 0.0790117 0)
(0.325131 0.13246 0)
(0.282733 0.238527 0)
(0.250543 0.301374 0)
(0.226585 0.331222 0)
(0.211545 0.346094 0)
(0.192715 0.353062 0)
(0.159489 0.365872 0)
(0.113171 0.398499 0)
(0.0487722 0.41601 0)
(-0.145962 0.266395 0)
(-0.471502 -0.0731783 0)
(-0.793236 -0.403352 0)
(-1.0309 -0.618903 0)
(-1.21233 -0.719139 0)
(-1.39143 -0.803712 0)
(-1.43389 -0.629577 0)
(0.11615 0.881845 0)
(0.63732 2.01687 0)
(0.912177 2.00766 0)
(0.938825 1.45218 0)
(0.864389 0.830758 0)
(0.741367 0.384485 0)
(0.57933 0.204186 0)
(0.440527 0.222312 0)
(0.359618 0.296921 0)
(0.307655 0.343828 0)
(0.26704 0.361743 0)
(0.237994 0.369735 0)
(0.213699 0.379051 0)
(0.18655 0.39967 0)
(0.153642 0.438901 0)
(0.12635 0.491128 0)
(0.0516699 0.466906 0)
(-0.173041 0.237194 0)
(-0.488104 -0.0854149 0)
(-0.750809 -0.312563 0)
(-0.995815 -0.441765 0)
(-1.27476 -0.598403 0)
(-1.45193 -0.765122 0)
(-0.0622626 0.651948 0)
(0.377468 1.62922 0)
(0.69559 1.76443 0)
(0.852389 1.39274 0)
(0.879355 0.893181 0)
(0.791515 0.517974 0)
(0.636051 0.35421 0)
(0.494794 0.339975 0)
(0.405237 0.372521 0)
(0.349188 0.395313 0)
(0.306332 0.401169 0)
(0.272263 0.401235 0)
(0.24354 0.407344 0)
(0.216567 0.427955 0)
(0.18942 0.464561 0)
(0.168766 0.519281 0)
(0.147291 0.558243 0)
(0.0398015 0.464909 0)
(-0.225344 0.190925 0)
(-0.4641 -0.0570345 0)
(-0.654072 -0.170585 0)
(-0.949175 -0.243764 0)
(-1.25041 -0.395549 0)
(-0.146346 0.608016 0)
(0.138606 1.29809 0)
(0.437135 1.46587 0)
(0.659187 1.24174 0)
(0.750556 0.892047 0)
(0.708005 0.619717 0)
(0.595375 0.485728 0)
(0.48827 0.446175 0)
(0.415776 0.442254 0)
(0.368748 0.442679 0)
(0.332885 0.43854 0)
(0.30221 0.433277 0)
(0.274493 0.436088 0)
(0.249079 0.454217 0)
(0.22636 0.486668 0)
(0.207858 0.533925 0)
(0.19906 0.591706 0)
(0.164859 0.599054 0)
(-0.00355639 0.440535 0)
(-0.31206 0.135636 0)
(-0.477555 -0.00536983 0)
(-0.687754 -0.00495067 0)
(-0.965894 -0.160395 0)
(-0.133189 0.656328 0)
(0.0042198 1.05324 0)
(0.247326 1.1891 0)
(0.463468 1.06783 0)
(0.571408 0.854386 0)
(0.56797 0.676919 0)
(0.509172 0.571365 0)
(0.447514 0.518175 0)
(0.401698 0.492316 0)
(0.369559 0.478275 0)
(0.344419 0.467749 0)
(0.321726 0.460064 0)
(0.299918 0.461058 0)
(0.280023 0.476314 0)
(0.264069 0.504884 0)
(0.252074 0.544955 0)
(0.250175 0.600128 0)
(0.248632 0.656024 0)
(0.214544 0.637125 0)
(-0.0434362 0.387894 0)
(-0.227587 0.156853 0)
(-0.221599 0.17161 0)
(-0.359906 0.125894 0)
(-0.0793527 0.727288 0)
(-0.0189752 0.909356 0)
(0.15002 0.977862 0)
(0.318408 0.916695 0)
(0.415043 0.800624 0)
(0.437873 0.690843 0)
(0.422501 0.609285 0)
(0.397983 0.554877 0)
(0.375822 0.521011 0)
(0.35825 0.500366 0)
(0.343898 0.486746 0)
(0.330441 0.478409 0)
(0.317121 0.478507 0)
(0.305762 0.49071 0)
(0.299288 0.514852 0)
(0.297976 0.548601 0)
(0.307583 0.594017 0)
(0.323727 0.652662 0)
(0.365288 0.714512 0)
(0.277016 0.622 0)
(0.0175074 0.298865 0)
(-0.0601178 0.0840316 0)
(0.065448 0.256306 0)
(-0.0262766 0.761788 0)
(0.0109866 0.833718 0)
(0.115031 0.83626 0)
(0.231512 0.803486 0)
(0.308819 0.743963 0)
(0.343988 0.675956 0)
(0.354057 0.614404 0)
(0.352535 0.566484 0)
(0.34684 0.532969 0)
(0.340855 0.510728 0)
(0.335705 0.496046 0)
(0.330862 0.48754 0)
(0.326444 0.486619 0)
(0.324493 0.495235 0)
(0.328147 0.513683 0)
(0.338577 0.540064 0)
(0.359776 0.574112 0)
(0.39202 0.614287 0)
(0.453069 0.682809 0)
(0.506442 0.727234 0)
(0.369148 0.5263 0)
(0.13449 0.157155 0)
(-0.00588416 -0.0424597 0)
(0.00559818 0.74827 0)
(0.0420591 0.785425 0)
(0.107958 0.745208 0)
(0.186157 0.72338 0)
(0.245472 0.692269 0)
(0.28284 0.648528 0)
(0.304005 0.602684 0)
(0.314474 0.563412 0)
(0.319106 0.533512 0)
(0.32157 0.512027 0)
(0.323706 0.497203 0)
(0.326102 0.488267 0)
(0.329571 0.485649 0)
(0.336069 0.490059 0)
(0.348362 0.501764 0)
(0.368655 0.519462 0)
(0.398569 0.541607 0)
(0.443589 0.563229 0)
(0.505136 0.598918 0)
(0.61797 0.681144 0)
(0.664186 0.679115 0)
(0.536279 0.409431 0)
(0.253638 0.0675466 0)
(0.0167109 0.714279 0)
(0.0560783 0.740246 0)
(0.106344 0.683091 0)
(0.161388 0.665868 0)
(0.207362 0.648264 0)
(0.242333 0.618365 0)
(0.266975 0.583844 0)
(0.283282 0.552296 0)
(0.294281 0.526523 0)
(0.30274 0.506584 0)
(0.310463 0.491894 0)
(0.318575 0.482101 0)
(0.328261 0.477166 0)
(0.341267 0.477073 0)
(0.359751 0.481763 0)
(0.386389 0.490389 0)
(0.421851 0.500623 0)
(0.472361 0.50805 0)
(0.533506 0.510866 0)
(0.642755 0.549552 0)
(0.785798 0.623527 0)
(0.873943 0.568322 0)
(0.76012 0.327256 0)
(0.0176025 0.677193 0)
(0.0573079 0.695348 0)
(0.101592 0.635562 0)
(0.144038 0.621886 0)
(0.181494 0.610978 0)
(0.213257 0.589042 0)
(0.238425 0.562252 0)
(0.257603 0.536668 0)
(0.272571 0.514514 0)
(0.285237 0.496187 0)
(0.297138 0.481635 0)
(0.309525 0.470718 0)
(0.323656 0.463216 0)
(0.34101 0.458781 0)
(0.363199 0.456974 0)
(0.392554 0.457076 0)
(0.430015 0.456518 0)
(0.479109 0.451972 0)
(0.537572 0.435304 0)
(0.618951 0.419698 0)
(0.752793 0.445459 0)
(0.926646 0.471144 0)
(1.01755 0.367294 0)
(0.0161087 0.642247 0)
(0.0537124 0.652357 0)
(0.0939915 0.595581 0)
(0.129466 0.585588 0)
(0.161732 0.578389 0)
(0.190787 0.561237 0)
(0.215542 0.53967 0)
(0.236096 0.518445 0)
(0.25349 0.499166 0)
(0.269014 0.482231 0)
(0.283889 0.467756 0)
(0.299256 0.455683 0)
(0.31624 0.445751 0)
(0.336033 0.437494 0)
(0.359825 0.430235 0)
(0.389204 0.423117 0)
(0.425282 0.4139 0)
(0.469088 0.399735 0)
(0.520083 0.373601 0)
(0.57662 0.332121 0)
(0.655304 0.294387 0)
(0.786279 0.281836 0)
(0.913774 0.221962 0)
(0.0147597 0.610174 0)
(0.0493214 0.612557 0)
(0.0856931 0.560479 0)
(0.116802 0.553936 0)
(0.145681 0.549005 0)
(0.17258 0.534909 0)
(0.196583 0.516919 0)
(0.217632 0.498822 0)
(0.236366 0.481716 0)
(0.253669 0.465877 0)
(0.270466 0.451432 0)
(0.28768 0.438344 0)
(0.306222 0.426357 0)
(0.326997 0.414997 0)
(0.350863 0.403523 0)
(0.378741 0.390965 0)
(0.411408 0.375602 0)
(0.44887 0.355144 0)
(0.490376 0.325277 0)
(0.531608 0.280687 0)
(0.570698 0.222296 0)
(0.629833 0.170745 0)
(0.702458 0.107153 0)
(0.0137023 0.580714 0)
(0.0451746 0.576416 0)
(0.0778306 0.529174 0)
(0.10582 0.525488 0)
(0.132218 0.522014 0)
(0.15731 0.509975 0)
(0.180383 0.494487 0)
(0.201348 0.478633 0)
(0.220628 0.463125 0)
(0.238839 0.448113 0)
(0.256659 0.433685 0)
(0.274785 0.419802 0)
(0.293902 0.406228 0)
(0.314668 0.392523 0)
(0.337666 0.378013 0)
(0.363394 0.36178 0)
(0.392162 0.342538 0)
(0.423774 0.318711 0)
(0.457167 0.288036 0)
(0.48969 0.247748 0)
(0.51536 0.194907 0)
(0.539416 0.139075 0)
(0.566784 0.0790892 0)
(0.0127544 0.553573 0)
(0.0413737 0.543787 0)
(0.0706958 0.500969 0)
(0.0962398 0.499499 0)
(0.120625 0.496984 0)
(0.144109 0.486389 0)
(0.166141 0.472697 0)
(0.186634 0.458466 0)
(0.205887 0.444136 0)
(0.224335 0.429751 0)
(0.242463 0.415358 0)
(0.260779 0.400912 0)
(0.279774 0.386204 0)
(0.299904 0.37085 0)
(0.321543 0.354285 0)
(0.34494 0.335759 0)
(0.370113 0.314313 0)
(0.39681 0.288908 0)
(0.424094 0.258358 0)
(0.450622 0.221697 0)
(0.472483 0.176903 0)
(0.488195 0.127167 0)
(0.499097 0.0726722 0)
(0.0118623 0.528559 0)
(0.0378996 0.514324 0)
(0.0642876 0.475362 0)
(0.0877808 0.475549 0)
(0.110408 0.473667 0)
(0.132401 0.464126 0)
(0.153319 0.45176 0)
(0.173081 0.438732 0)
(0.191906 0.425288 0)
(0.210103 0.4114 0)
(0.228016 0.397081 0)
(0.246002 0.382285 0)
(0.264404 0.366833 0)
(0.283521 0.350404 0)
(0.303573 0.332545 0)
(0.324656 0.312682 0)
(0.34666 0.290113 0)
(0.369266 0.264119 0)
(0.391736 0.233973 0)
(0.413206 0.19932 0)
(0.431677 0.159266 0)
(0.445375 0.114929 0)
(0.452954 0.0662405 0)
(0.0110383 0.505502 0)
(0.0347375 0.487689 0)
(0.0585359 0.452009 0)
(0.0802166 0.453395 0)
(0.101233 0.45192 0)
(0.121803 0.443171 0)
(0.141555 0.431814 0)
(0.160412 0.419703 0)
(0.178536 0.406951 0)
(0.196147 0.393482 0)
(0.213482 0.379287 0)
(0.230788 0.364323 0)
(0.248293 0.348442 0)
(0.266181 0.331388 0)
(0.28456 0.312806 0)
(0.303431 0.292269 0)
(0.322633 0.269282 0)
(0.341823 0.243346 0)
(0.360395 0.213994 0)
(0.377665 0.181053 0)
(0.392498 0.144247 0)
(0.403956 0.104333 0)
(0.410356 0.0613236 0)
(0.0102969 0.484234 0)
(0.031869 0.463589 0)
(0.0533616 0.43067 0)
(0.0733812 0.432889 0)
(0.0928735 0.43166 0)
(0.112062 0.423519 0)
(0.13061 0.412954 0)
(0.148443 0.401566 0)
(0.165684 0.389377 0)
(0.182483 0.376282 0)
(0.199001 0.362263 0)
(0.215399 0.347281 0)
(0.231823 0.33122 0)
(0.248372 0.313883 0)
(0.265082 0.295004 0)
(0.281896 0.274271 0)
(0.298639 0.251351 0)
(0.314996 0.225921 0)
(0.330473 0.197712 0)
(0.344521 0.166655 0)
(0.356357 0.132719 0)
(0.365473 0.0965307 0)
(0.37052 0.0580831 0)
(0.00964252 0.464583 0)
(0.0292732 0.441776 0)
(0.0486892 0.411164 0)
(0.0671553 0.413933 0)
(0.0851828 0.412834 0)
(0.103017 0.40517 0)
(0.120335 0.395244 0)
(0.137065 0.384444 0)
(0.153298 0.372732 0)
(0.169137 0.359988 0)
(0.184681 0.346192 0)
(0.200032 0.331313 0)
(0.215273 0.315264 0)
(0.230449 0.297901 0)
(0.245547 0.279032 0)
(0.260485 0.258438 0)
(0.275089 0.235901 0)
(0.289095 0.211229 0)
(0.302109 0.184284 0)
(0.313705 0.155067 0)
(0.323292 0.123623 0)
(0.33054 0.0904346 0)
(0.33445 0.0554838 0)
(0.00907619 0.446381 0)
(0.0269361 0.422054 0)
(0.044444 0.393339 0)
(0.061449 0.39646 0)
(0.0780603 0.395407 0)
(0.0945633 0.388124 0)
(0.110642 0.378726 0)
(0.126219 0.368421 0)
(0.141367 0.357128 0)
(0.156149 0.344725 0)
(0.170624 0.331191 0)
(0.184847 0.316508 0)
(0.19886 0.300615 0)
(0.212669 0.283409 0)
(0.226238 0.264759 0)
(0.239473 0.244517 0)
(0.252217 0.222547 0)
(0.264246 0.198739 0)
(0.275256 0.17304 0)
(0.284921 0.14549 0)
(0.292802 0.11617 0)
(0.298676 0.0854571 0)
(0.301801 0.0533493 0)
(0.00860635 0.429454 0)
(0.0248582 0.404287 0)
(0.0405437 0.37707 0)
(0.056186 0.380406 0)
(0.0714299 0.37934 0)
(0.0866341 0.372368 0)
(0.101478 0.36342 0)
(0.115879 0.353546 0)
(0.1299 0.342632 0)
(0.143573 0.330566 0)
(0.156926 0.317327 0)
(0.169985 0.302909 0)
(0.182761 0.287272 0)
(0.195239 0.270349 0)
(0.20737 0.252053 0)
(0.219061 0.232291 0)
(0.230173 0.210981 0)
(0.240522 0.188071 0)
(0.249874 0.163557 0)
(0.257984 0.137507 0)
(0.26453 0.11002 0)
(0.269368 0.0813952 0)
(0.271925 0.0516233 0)
(0.00825665 0.413605 0)
(0.0230532 0.388402 0)
(0.0369045 0.36226 0)
(0.0512972 0.365709 0)
(0.0652241 0.364585 0)
(0.0791743 0.357879 0)
(0.0928046 0.349326 0)
(0.106031 0.339835 0)
(0.118912 0.329278 0)
(0.131458 0.317546 0)
(0.143675 0.304627 0)
(0.15557 0.290522 0)
(0.167134 0.27521 0)
(0.178339 0.25865 0)
(0.189132 0.24079 0)
(0.199427 0.221577 0)
(0.209106 0.200967 0)
(0.21802 0.178945 0)
(0.225991 0.155537 0)
(0.232839 0.130826 0)
(0.238333 0.104915 0)
(0.242383 0.0780346 0)
(0.244557 0.0501582 0)
(0.00805589 0.39862 0)
(0.0215287 0.374366 0)
(0.0334731 0.348865 0)
(0.0467264 0.3523 0)
(0.0593762 0.351081 0)
(0.0721273 0.344618 0)
(0.0845732 0.336424 0)
(0.0966419 0.327284 0)
(0.108397 0.317064 0)
(0.119828 0.305665 0)
(0.130927 0.29308 0)
(0.14169 0.279319 0)
(0.152094 0.264375 0)
(0.162106 0.248227 0)
(0.171673 0.230847 0)
(0.180719 0.212211 0)
(0.189145 0.192302 0)
(0.196837 0.171128 0)
(0.203659 0.148729 0)
(0.209483 0.12519 0)
(0.214155 0.10061 0)
(0.217627 0.0751691 0)
(0.219593 0.0488079 0)
(0.00800709 0.384298 0)
(0.0202572 0.362125 0)
(0.0302532 0.33689 0)
(0.0424311 0.340121 0)
(0.0538182 0.338773 0)
(0.0654232 0.332547 0)
(0.0767091 0.324684 0)
(0.0876445 0.315868 0)
(0.0982991 0.305968 0)
(0.108642 0.294893 0)
(0.118661 0.282647 0)
(0.128341 0.269245 0)
(0.137654 0.25469 0)
(0.146561 0.238975 0)
(0.155013 0.222093 0)
(0.162943 0.204035 0)
(0.170273 0.184803 0)
(0.176911 0.164416 0)
(0.182759 0.142918 0)
(0.187728 0.120392 0)
(0.191725 0.0969213 0)
(0.194739 0.0726454 0)
(0.196561 0.0474653 0)
(0.00806251 0.370494 0)
(0.0191642 0.351551 0)
(0.0272771 0.326367 0)
(0.0383651 0.329152 0)
(0.0484744 0.32763 0)
(0.058967 0.321638 0)
(0.0690985 0.31408 0)
(0.0789178 0.305562 0)
(0.0884905 0.295959 0)
(0.0977683 0.285193 0)
(0.106739 0.273278 0)
(0.115379 0.260235 0)
(0.123654 0.246072 0)
(0.131524 0.230795 0)
(0.13894 0.214407 0)
(0.145844 0.196912 0)
(0.152169 0.178322 0)
(0.157844 0.158659 0)
(0.162792 0.137968 0)
(0.166954 0.116314 0)
(0.170279 0.0937668 0)
(0.172775 0.0704314 0)
(0.174288 0.0461721 0)
(0.00813542 0.357167 0)
(0.01815 0.342449 0)
(0.0245468 0.317321 0)
(0.0344632 0.319419 0)
(0.0432552 0.317664 0)
(0.0526377 0.31189 0)
(0.0615925 0.304607 0)
(0.0702933 0.296358 0)
(0.07878 0.287024 0)
(0.0869905 0.276545 0)
(0.0949158 0.264946 0)
(0.102523 0.252252 0)
(0.109771 0.238476 0)
(0.116616 0.223632 0)
(0.123012 0.207731 0)
(0.128901 0.190782 0)
(0.134224 0.172803 0)
(0.138918 0.153819 0)
(0.142922 0.133864 0)
(0.146188 0.112989 0)
(0.148687 0.091244 0)
(0.150429 0.0687102 0)
(0.151272 0.0452291 0)
(0.00813103 0.344357 0)
(0.0171025 0.33457 0)
(0.0219991 0.30976 0)
(0.0306417 0.310977 0)
(0.0380629 0.308912 0)
(0.0463068 0.303325 0)
(0.054036 0.296284 0)
(0.0615941 0.288273 0)
(0.068961 0.279175 0)
(0.0760708 0.26896 0)
(0.0829171 0.257661 0)
(0.0894545 0.245304 0)
(0.0956365 0.231909 0)
(0.101417 0.217495 0)
(0.106746 0.202076 0)
(0.111566 0.185666 0)
(0.11582 0.168286 0)
(0.119448 0.149957 0)
(0.122397 0.130708 0)
(0.124619 0.110573 0)
(0.126092 0.0895823 0)
(0.126818 0.0677993 0)
(0.126665 0.0450554 0)
(0.00799854 0.33227 0)
(0.0159626 0.327788 0)
(0.019568 0.303684 0)
(0.026844 0.303893 0)
(0.0328412 0.301447 0)
(0.0399081 0.296011 0)
(0.0463541 0.289174 0)
(0.0527398 0.281371 0)
(0.0589402 0.272482 0)
(0.0649036 0.262513 0)
(0.0706213 0.251502 0)
(0.0760349 0.239476 0)
(0.0810949 0.22646 0)
(0.0857538 0.212475 0)
(0.0899577 0.19754 0)
(0.0936505 0.181671 0)
(0.0967751 0.164889 0)
(0.0992731 0.147215 0)
(0.101096 0.128666 0)
(0.102196 0.109263 0)
(0.102557 0.0890247 0)
(0.10218 0.0679824 0)
(0.100968 0.045969 0)
(0.00762524 0.320738 0)
(0.0145066 0.321732 0)
(0.0170456 0.299029 0)
(0.0229075 0.298145 0)
(0.0274409 0.295264 0)
(0.0332798 0.289913 0)
(0.0383761 0.283235 0)
(0.043554 0.2756 0)
(0.048531 0.266892 0)
(0.0533008 0.257153 0)
(0.0578416 0.246419 0)
(0.0620868 0.234717 0)
(0.0659895 0.222078 0)
(0.0695038 0.208522 0)
(0.0725764 0.194071 0)
(0.075154 0.178743 0)
(0.0771823 0.162555 0)
(0.0786094 0.145527 0)
(0.0793937 0.127665 0)
(0.0794902 0.108979 0)
(0.0788985 0.0894722 0)
(0.0776245 0.0691256 0)
(0.0756274 0.0477832 0)
(0.0073339 0.311527 0)
(0.0133338 0.317299 0)
(0.0148942 0.295893 0)
(0.0193934 0.293996 0)
(0.0226116 0.29075 0)
(0.02736 0.28548 0)
(0.0312324 0.278921 0)
(0.0353422 0.27144 0)
(0.0392172 0.262888 0)
(0.042923 0.253362 0)
(0.0464139 0.24288 0)
(0.049621 0.231474 0)
(0.0525032 0.219178 0)
(0.0550172 0.206014 0)
(0.0571116 0.192002 0)
(0.0587349 0.177166 0)
(0.059832 0.161517 0)
(0.0603568 0.145078 0)
(0.060264 0.127851 0)