/*--------------------------------*- C++ -*----------------------------------*\
| =========                 |                                                 |
| \\      /  F ield         | OpenFOAM: The Open Source CFD Toolbox           |
|  \\    /   O peration     | Version:  5.x                                   |
|   \\  /    A nd           | Web:      www.OpenFOAM.org                      |
|    \\/     M anipulation  |                                                 |
\*---------------------------------------------------------------------------*/
FoamFile
{
    version     2.0;
    format      ascii;
    class       volScalarField;
    location    "0.95";
    object      alpha.water;
}
// * * * * * * * * * * * * * * * * * * * * * * * * * * * * * * * * * * * * * //

dimensions      [0 0 0 0 0 0 0];

internalField   nonuniform List<scalar> 
2268
(
1
1
1
1
1
1
1
1
1
1
1
1
1
1
0.999302
0.958165
0.909067
1
0.995201
0.98823
0.991829
0.998942
1
1
1
1
1
1
1
1
1
1
1
1
1
1
0.999807
0.954632
0.923976
0.935974
0.999834
0.978752
0.970274
0.970274
0.995761
1
1
1
1
1
1
1
1
1
1
1
1
1
1
0.999995
0.98587
0.944953
0.95328
0.96422
0.982179
0.981027
0.983497
0.998845
1
1
1
1
1
1
1
1
1
1
1
1
1
1
0.999997
0.999992
0.998534
0.997063
0.99342
1
1
1
1
0.99999
1
1
1
1
1
1
1
1
1
1
1
1
1
1
1
0.999997
0.999998
1
1
1
1
1
1
1
1
1
1
1
1
1
1
1
1
1
1
1
1
1
1
1
1
1
1
1
0.999999
1
1
1
1
1
0.999984
0.999724
0.999909
1
0.999997
0.999999
1
1
1
1
1
1
1
1
1
0.999999
0.999995
0.999984
0.999988
1
1
1
1
0.99995
0.998325
0.998885
0.99999
0.999876
0.981432
0.87068
0.823566
0.885256
0.98482
1
1
1
1
0.999999
0.999982
0.999916
0.994055
0.997423
0.988071
0.997591
0.928624
0.900027
0.923435
0.97148
0.999036
1
0.928112
0.724484
0.953636
1
1
0.999974
0.997906
0.981527
0.861084
0.780612
0.800436
0.999998
0.974292
0.854668
0.854084
0.854084
0.854084
0.9707
0.999918
0.926954
0.32944
0.635931
0.959273
0.928478
0.814393
0.788339
0.796277
0.878114
0.878114
0.744948
0.998585
0.882609
0.855565
0.895672
0.93092
0.966099
0.995107
0.999274
0.845622
0.299557
0.299034
0.336208
0.334234
0.391766
0.624638
0.748037
0.878114
0.691151
0.464219
0.999413
0.84545
0.936012
0.997902
0.998069
0.998307
0.99856
0.998711
0.510966
0.489253
0.530652
0.416706
0.59897
0.82185
0.822071
0.820312
0.80023
0.19968
0.00218117
1
0.848341
0.9938
0.997027
0.99797
0.998137
0.998307
0.977496
0.178808
0.424481
0.786063
0.80301
0.814045
0.821313
0.658909
0.490951
0.62461
0.614004
0.163743
0.75601
0.983495
0.992362
0.909715
0.710458
0.711493
0.863652
0.598392
0.171278
0.509303
0.799728
0.802517
0.805597
0.403141
0.048606
0.00316751
0.169956
0.862197
0.862629
0.839239
0.997484
0.979962
0.648717
0.20687
0.153598
0.218962
0.112386
0.150277
0.502693
0.799728
0.635641
0.337556
0.128666
0.00739432
0.00230397
0.00142605
0.353246
1
0.980921
0.998181
0.96391
0.474142
0.102193
0.0866819
0.0879782
0.094746
0.178406
0.602965
0.606388
0.143454
0.0646202
0.00528462
0.00436383
0.00138252
0.000431982
0.0485333
0.790788
0.999998
1
1
1
1
1
0.999997
0.999469
0.837246
0.434999
0.211882
0.167075
0.214395
0.357052
0.621161
0.862031
0.985669
0.999999
0.99987
0.995273
0.980259
0.973112
0.99453
0.974398
0.995782
1
1
0.983325
0.992034
0.999844
0.666127
0.0733896
0.00556304
0.00556175
0.00556304
0.00602814
0.00807855
0.0285619
0.17985
0.469442
0.756444
0.826353
0.805702
0.885211
0.990344
0.999885
0.967318
0.995594
0.976831
0.978347
0.982991
0.938495
0.254385
0.00989655
0.00715578
0.00556175
0.00556175
0.00556175
0.00566258
0.00611875
0.00801744
0.0332759
0.286763
0.48451
0.52045
0.458113
0.560824
0.90843
0.999804
0.993578
0.995747
0.995516
0.993771
0.892825
0.283483
0.074312
0.0694973
0.13707
0.0149321
0.00556175
0.00562177
0.00567565
0.0058041
0.00632149
0.0158694
0.0386054
0.047949
0.0316244
0.0203177
0.0201847
0.488266
0.999533
1
0.998685
0.911925
0.629984
0.193259
0.0172701
0.133558
0.173427
0.18158
0.191641
0.0682506
0.00599012
0.00599162
0.00664568
0.00720891
0.00729666
0.0081996
0.0106467
0.0155438
0.0194286
0.0214135
0.357221
0.999211
0.973992
0.593645
0.165832
0.05255
0.00537002
0.00130156
0.00797947
0.0408955
0.16058
0.193549
0.193549
0.194881
0.166985
0.027631
0.0255235
0.0285412
0.0560992
0.0975525
0.0750893
0.0397687
0.0414697
0.550801
0.998799
0.876909
0.0659539
0.00804268
0.00340314
0.00102284
0.000136187
4.44145e-06
-2.38463e-06
6.39976e-06
0.00352717
0.0769657
0.196942
0.246555
0.288549
0.30065
0.300442
0.39491
0.523519
0.54986
0.479228
0.399241
0.747858
0.997949
0.716576
0.00791444
0.00276779
0.000830067
0.000134357
6.20108e-06
8.42021e-08
-3.19697e-08
-9.69654e-08
-1.89986e-07
-3.59296e-07
-2.62763e-07
-8.2907e-07
0.0306919
0.226641
0.357304
0.39173
0.438818
0.600409
0.752987
0.794466
0.803503
0.994313
0.413604
0.00276804
0.000882635
0.00018235
1.23041e-05
3.49122e-08
2.98206e-09
3.20203e-09
3.41781e-09
5.32113e-09
1.75566e-08
3.65519e-08
1.40079e-07
7.99205e-07
4.91323e-06
2.81879e-05
0.00015061
0.000771431
0.00602825
0.336963
0.702894
0.873911
0.900427
0.427667
0.000908576
0.000217765
3.58814e-05
1.21003e-06
6.65639e-09
2.76361e-09
3.09101e-09
6.37789e-09
1.62691e-08
2.60931e-08
2.79314e-08
2.8297e-08
8.45773e-08
5.78857e-07
4.31338e-06
2.6682e-05
0.000144762
0.000756622
0.00404738
0.207177
0.800245
0.878665
0.630155
0.000301453
5.46846e-05
7.28852e-06
3.64641e-07
3.68488e-09
2.58012e-09
2.93856e-09
8.50017e-09
3.94152e-08
4.13106e-08
3.69875e-08
2.18043e-08
2.38096e-08
4.7475e-08
3.15541e-07
2.66209e-06
1.96488e-05
0.000118155
0.000645468
0.00351561
0.319043
0.811742
0.61032
0.000709846
2.59916e-05
1.61023e-06
3.77912e-08
2.28758e-09
2.40645e-09
2.95601e-09
1.31731e-08
2.02315e-08
1.81634e-08
1.53455e-08
2.06309e-08
2.19604e-08
2.41461e-08
3.74394e-08
1.75718e-07
1.44351e-06
7.13597e-06
3.75584e-05
0.000168298
0.000428695
0.258034
0.267195
0.00308966
8.40554e-06
1.95409e-07
5.16787e-09
2.31843e-09
2.39809e-09
2.6264e-09
3.93405e-09
3.09445e-09
3.38086e-09
1.00797e-08
1.36265e-07
1.86764e-07
3.7341e-08
3.74694e-08
4.42931e-08
1.08671e-07
1.32263e-06
9.94096e-06
7.67983e-05
0.000164123
0.000223933
0.00183536
0.00258908
3.94187e-05
5.14409e-08
1.63255e-09
2.39396e-09
2.39857e-09
2.39852e-09
2.41145e-09
2.47489e-09
2.80351e-09
2.84135e-08
2.30337e-07
2.30337e-07
7.26866e-08
4.30963e-08
2.10154e-06
1.78474e-05
1.97521e-05
0.000245124
0.000947343
0.000747588
0.00015807
-3.77673e-07
0.00146514
4.21766e-05
1.11692e-08
2.64346e-09
2.49657e-09
2.39857e-09
2.41122e-09
6.95815e-09
2.80417e-09
3.85482e-09
5.28752e-09
5.57263e-08
2.27364e-07
2.29831e-07
9.21715e-08
2.14459e-08
1.06614e-05
9.79187e-05
0.000225946
0.000995506
0.00138603
0.00142427
-7.21817e-08
0.000295953
2.26656e-05
5.01881e-09
4.80361e-09
2.65677e-09
2.44501e-09
3.00617e-09
7.5359e-09
3.91139e-08
9.76235e-09
2.91347e-09
2.82366e-09
3.20619e-08
2.22918e-07
1.7789e-07
1.92373e-08
2.43274e-09
2.22291e-05
0.000208476
9.93769e-05
0.00106619
0.00142709
-1.56146e-08
0.000202398
9.07262e-06
1.56637e-08
8.33661e-09
4.51195e-09
1.47539e-06
2.45111e-05
7.59347e-05
4.72933e-06
2.53715e-07
4.26814e-08
2.71343e-09
2.13406e-09
1.04278e-08
6.41409e-08
4.27274e-08
1.40131e-09
6.78765e-10
1.73302e-06
8.61616e-05
0.000439504
0.001427
-2.1379e-10
0.000231823
2.02699e-05
1.18719e-07
1.71612e-08
1.10588e-07
1.05355e-05
0.000222411
0.0002733
0.000179915
2.13209e-05
3.1689e-07
6.0311e-09
1.14005e-09
7.32126e-10
6.28718e-10
3.3368e-09
3.03216e-09
6.5501e-10
8.42921e-11
1.1163e-10
9.65058e-06
0.00038594
-5.18317e-09
0.000144309
0.0001713
6.33771e-06
1.19387e-07
2.42124e-07
3.85394e-07
0.000245551
0.000273549
0.000272148
7.96358e-05
3.57038e-07
3.34717e-08
3.59323e-09
7.48493e-10
5.01568e-10
4.35875e-10
4.81179e-10
2.96714e-10
7.82814e-11
1.23517e-09
2.74875e-11
2.28936e-11
-1.90668e-11
7.3907e-07
0.000127888
6.88022e-05
1.56635e-06
3.85394e-07
2.82854e-06
0.000227577
0.000272148
0.000271979
9.25634e-05
8.41971e-07
9.08275e-08
9.18181e-09
1.06418e-09
2.89308e-10
1.94007e-10
1.89034e-10
1.54978e-10
7.23757e-11
5.51452e-11
4.536e-11
2.16288e-11
4.39392e-25
6.27809e-09
1.35818e-05
0.000155962
0.000155618
7.39157e-05
0.000165341
0.00026288
0.000267659
0.000264993
4.37528e-05
9.34057e-07
1.13206e-07
1.22917e-08
1.30056e-09
2.24066e-10
9.6851e-11
8.93036e-11
8.33067e-11
5.96725e-11
2.09725e-11
4.21205e-11
3.79071e-11
-3.16157e-17
1.6088e-12
2.421e-07
0.00010385
0.000223465
0.00024663
0.000260493
0.000264571
0.000262988
0.000188207
1.27619e-05
5.9149e-07
7.52355e-08
8.45899e-09
8.92361e-10
1.30048e-10
3.81957e-11
3.31459e-11
3.27423e-11
2.75596e-11
1.5793e-11
7.82341e-12
7.83982e-12
-8.59451e-15
2.35663e-10
4.99381e-09
5.42775e-06
0.00017137
0.000256964
0.000261341
0.000261839
0.000238023
4.26923e-05
1.16822e-06
1.70351e-07
2.1497e-08
2.44279e-09
2.6926e-10
4.09524e-11
1.18183e-11
8.42031e-12
9.03465e-12
8.93263e-12
7.39361e-12
6.41789e-12
8.49937e-12
-3.18158e-15
1.35745e-10
9.17972e-09
1.12083e-07
2.62329e-05
0.000150849
0.00025333
0.00019117
4.84356e-05
1.40303e-06
2.32947e-07
3.1574e-08
3.84942e-09
4.36565e-10
6.25857e-11
1.22362e-11
3.03738e-12
1.59252e-12
1.74636e-12
2.76399e-12
3.90403e-12
5.77621e-12
2.19583e-11
7.62482e-12
7.93185e-11
2.85962e-09
9.51344e-08
5.34326e-07
9.13613e-06
2.7603e-05
1.18772e-05
1.00797e-06
2.76138e-07
4.26569e-08
5.63719e-09
6.62651e-10
8.92595e-11
1.6846e-11
3.14436e-12
5.55006e-13
3.14961e-13
5.0971e-13
1.8108e-12
3.26535e-12
7.68663e-12
3.65512e-11
3.84299e-11
6.75983e-11
6.7603e-10
1.61259e-08
9.86053e-08
4.71013e-07
6.2328e-07
3.52893e-07
1.12323e-07
2.95645e-08
5.23971e-09
8.3483e-10
1.21767e-10
2.56493e-11
4.22748e-12
4.87153e-13
8.27789e-14
7.54991e-14
2.44036e-13
1.49163e-12
2.95299e-12
6.17311e-12
2.16492e-11
1.724e-11
1.01397e-10
1.75977e-10
1.49078e-09
1.33184e-08
5.46532e-08
7.21706e-08
3.97762e-08
1.24182e-08
3.06e-09
6.15794e-10
1.15202e-10
3.19962e-11
5.50278e-12
5.51345e-13
5.88426e-14
1.16719e-14
1.80232e-14
1.2188e-13
8.7658e-13
1.78269e-12
2.63662e-12
4.56225e-12
2.63964e-12
4.61393e-11
6.34251e-11
1.79596e-10
1.17455e-09
5.4478e-09
7.18672e-09
3.91523e-09
1.27413e-09
3.47098e-10
8.23317e-11
2.96139e-11
5.69029e-12
5.92094e-13
5.50699e-14
6.39217e-15
1.4325e-15
3.07786e-15
3.00185e-14
2.0647e-13
5.13002e-13
5.15728e-13
4.01355e-13
2.54639e-13
8.05852e-12
1.77256e-11
2.17673e-11
1.41836e-10
4.87312e-10
6.38637e-10
3.76676e-10
1.47327e-10
4.51684e-11
2.0489e-11
4.52672e-12
5.17498e-13
5.13928e-14
4.91034e-15
6.3403e-16
1.46617e-16
2.20239e-16
1.84226e-15
1.18512e-14
3.79889e-14
4.0502e-14
3.1564e-14
2.8016e-14
9.69424e-13
2.78254e-12
7.43858e-12
1.52178e-11
5.84314e-11
7.00751e-11
4.28412e-11
2.24279e-11
1.09501e-11
2.65576e-12
3.51959e-13
4.01955e-14
4.04253e-15
3.89476e-16
5.68429e-17
1.72787e-17
6.4393e-18
1.00103e-17
1.07196e-16
7.98061e-16
1.58059e-15
1.63697e-15
3.34826e-15
1.10462e-13
2.87994e-13
1.18059e-12
3.7447e-12
6.64209e-12
7.51944e-12
8.81056e-12
4.4005e-12
1.17078e-12
1.84632e-13
2.49661e-14
2.86426e-15
2.84178e-16
2.80292e-17
4.73403e-18
1.69929e-18
5.43664e-19
9.03603e-20
1.07421e-18
1.59406e-17
6.13425e-17
9.87891e-17
3.78456e-16
1.20493e-14
2.56297e-14
9.17836e-14
4.62392e-13
1.19661e-12
1.36124e-12
1.06331e-12
3.71046e-13
7.40997e-14
1.21574e-14
1.64035e-15
1.84529e-16
1.80554e-17
1.8712e-18
3.74591e-19
1.46424e-19
4.55835e-20
3.1778e-20
9.9537e-20
6.37193e-19
2.24203e-18
4.24682e-18
3.94165e-17
1.21634e-15
2.17139e-15
6.59194e-15
3.14611e-14
1.02477e-13
1.12958e-13
6.91615e-14
2.19461e-14
4.58763e-15
7.46343e-16
9.85554e-17
1.0839e-17
1.05085e-18
1.18347e-19
2.84769e-20
1.09838e-20
4.11931e-21
5.59223e-21
1.33486e-20
3.46883e-20
7.62922e-20
2.42674e-19
3.81711e-18
1.13076e-16
1.73918e-16
4.74371e-16
2.0533e-15
6.08874e-15
6.46552e-15
4.06231e-15
1.29116e-15
2.6618e-16
4.23562e-17
5.4577e-18
5.86245e-19
5.67985e-20
7.23327e-21
2.06878e-21
7.44276e-22
3.44589e-22
5.19732e-22
1.21552e-21
2.2131e-21
5.02132e-21
4.30349e-20
3.46061e-19
9.75336e-18
1.30094e-17
3.26627e-17
1.33745e-16
3.70861e-16
3.79197e-16
2.31707e-16
7.15279e-17
1.44172e-17
2.23861e-18
2.80899e-19
2.94663e-20
2.89633e-21
4.34295e-22
1.42256e-22
4.81908e-23
2.36627e-23
3.41451e-23
7.82213e-23
1.41213e-22
5.67516e-22
9.4177e-21
2.94694e-20
7.87323e-19
9.12429e-19
2.12751e-18
8.33725e-18
2.17368e-17
2.1338e-17
1.25029e-17
3.73221e-18
7.34065e-19
1.10977e-19
1.3534e-20
1.38886e-21
1.42026e-22
2.58879e-23
9.24563e-24
2.97401e-24
1.46397e-24
2.13465e-24
4.44962e-24
8.97656e-24
7.73875e-23
1.43447e-21
2.36007e-21
5.99511e-20
6.04733e-20
1.31695e-19
4.9567e-19
1.21522e-18
1.14454e-18
6.40643e-19
1.84607e-19
3.53486e-20
5.19117e-21
6.14255e-22
6.19566e-23
6.84374e-24
1.53572e-24
5.69035e-25
1.7139e-25
8.86923e-26
1.34384e-25
2.51808e-25
6.05785e-25
9.79753e-24
1.67286e-22
1.76601e-22
4.32878e-21
3.81271e-21
7.80127e-21
2.82437e-20
6.506e-20
5.88412e-20
3.13061e-20
8.6996e-21
1.61795e-21
2.30229e-22
2.63977e-23
2.6423e-24
3.31037e-25
9.0105e-26
3.31201e-26
9.1974e-27
5.32686e-27
8.29601e-27
1.44896e-26
4.81357e-26
1.31577e-24
2.34194e-23
1.16479e-23
2.97036e-22
2.30014e-22
4.46139e-22
1.5497e-21
3.34938e-21
2.9162e-21
1.46413e-21
3.92394e-22
7.07034e-23
9.72173e-24
1.07954e-24
1.09178e-25
1.6354e-26
5.17473e-27
1.81556e-27
4.63618e-28
3.17627e-28
5.01891e-28
8.65141e-28
5.31224e-27
2.30305e-25
4.12887e-24
3.68091e-25
1.94717e-23
1.34277e-23
2.47895e-23
8.24119e-23
1.67046e-22
1.39571e-22
6.59672e-23
1.69954e-23
2.95646e-24
3.9155e-25
4.21508e-26
4.44618e-27
8.3105e-28
2.87718e-28
9.33665e-29
2.25117e-29
1.91876e-29
3.05739e-29
5.66558e-29
8.38357e-28
4.56105e-26
6.79469e-25
3.84369e-27
1.19482e-24
4.77338e-25
1.00118e-24
3.85529e-24
6.93328e-24
5.77714e-24
2.76041e-24
6.99983e-25
1.18542e-25
1.51888e-26
1.59783e-27
1.84136e-28
4.35754e-29
1.53645e-29
4.11654e-30
5.5247e-31
6.72599e-31
1.47709e-30
4.17744e-30
1.50226e-28
7.82237e-27
8.18306e-26
-2.24295e-25
3.04638e-26
2.22025e-25
2.89177e-25
4.02024e-25
1.10825e-24
7.44231e-25
1.82182e-25
3.03953e-26
3.86115e-27
3.93365e-28
3.6356e-29
4.89367e-30
1.31389e-30
4.76533e-31
3.12144e-31
3.08405e-31
3.08405e-31
3.08405e-31
3.12839e-31
1.51962e-29
6.53311e-28
4.19265e-27
1
1
1
1
1
1
1
1
0.999424
1
0.999999
0.999977
0.996595
0.998329
0.999939
0.999243
0.997501
0.998031
0.998939
0.985989
0.997949
0.996649
0.962861
0.599933
0.994418
0.955294
0.413024
0.0422723
0.950573
0.413021
0.0144209
0.00646766
0.694046
0.147001
0.00649015
0.00577583
0.733764
0.210004
0.00579683
0.00573314
0.7971
0.720132
0.18061
0.0163724
0.711939
0.722669
0.69467
0.52963
0.000120549
0.0186886
0.166026
0.243415
7.61399e-05
3.76695e-05
1.37537e-05
2.98115e-06
0.000688628
0.000556777
0.000332514
0.000129055
0.00142703
0.0014271
0.00140717
0.00134016
0.00142709
0.00119784
0.000462647
0.00125752
0.00140012
0.000540905
0.000152655
0.000414964
0.000160174
0.000536961
0.000193172
1.45086e-06
1.06895e-11
9.80365e-12
3.24716e-05
2.1549e-05
1.76826e-11
8.78214e-12
9.80365e-12
9.90165e-12
7.92209e-12
8.29281e-12
9.26307e-12
1.85032e-11
1.57639e-11
2.83062e-11
5.43874e-11
9.44864e-11
5.47723e-11
9.454e-11
1.33819e-10
1.55474e-10
8.73002e-11
1.4436e-10
1.55288e-10
1.55479e-10
4.32533e-11
6.31112e-11
8.67497e-11
8.49399e-11
6.05987e-12
5.97992e-12
5.59269e-12
4.51665e-12
2.69891e-13
2.04329e-13
1.93755e-13
2.11127e-13
2.27178e-14
2.15873e-14
2.34701e-14
3.32088e-14
1.63067e-15
1.6887e-15
1.97755e-15
2.91927e-15
1.08975e-16
1.0978e-16
1.15346e-16
1.33582e-16
5.63029e-18
6.5697e-18
8.54642e-18
1.15704e-17
5.20313e-19
8.93428e-19
1.71797e-18
2.82143e-18
1.21867e-19
2.38429e-19
4.95209e-19
8.20677e-19
2.76021e-20
5.35095e-20
1.06807e-19
1.66427e-19
4.06913e-21
7.60486e-21
1.42468e-20
2.06509e-20
4.65289e-22
8.59448e-22
1.5466e-21
2.19013e-21
6.57892e-23
1.18597e-22
2.02951e-22
3.12988e-22
1.1098e-23
1.78119e-23
3.4344e-23
7.54733e-23
1.56168e-24
2.31596e-24
8.73865e-24
2.39497e-23
1.51071e-25
2.5248e-25
2.12867e-24
3.70621e-24
6.26313e-27
1.88122e-26
1.19146e-25
1.31633e-25
1
0.999991
0.676464
0.133248
0.0856965
0.0862407
0.0866819
0.171223
0.453444
0.504628
0.0859041
0.0251296
0.0119597
0.00707028
0.00697813
0.00125907
0.00018986
0.00221445
0.147105
0.999991
0.86432
0.184153
0.0852485
0.0852082
0.0856965
0.210283
0.414241
0.423804
0.0684236
0.0328465
0.0254923
0.0534207
0.0701189
0.020515
0.00018986
5.51736e-05
7.30295e-06
0
0.990814
0.481038
0.0852217
0.0851439
0.0852485
0.09918
0.389487
0.39405
0.302818
0.079186
0.121698
0.165859
0.267169
0.214875
0.0166346
6.1894e-05
2.33515e-05
1.66311e-05
1.49909e-05
0.87622
0.23942
0.0851641
0.105234
0.234701
0.23583
0.237362
0.241746
0.181553
0.217543
0.271548
0.27144
0.27063
0.265435
0.0296183
0.000605511
0.00359897
0.00366292
2.71051e-22
0.641659
0.141097
0.100904
0.245445
0.245445
0.245445
0.150783
0.149558
0.207921
0.271548
0.271849
0.271548
0.231445
0.128081
0.0174542
0.00157012
0.00665428
0.00656497
0.000520526
0.157414
0.00674486
0.0743102
0.128899
0.154839
0.200803
0.193864
0.179132
0.140987
0.271849
0.271548
0.111411
0.000709609
0.000753782
0.00336939
0.00215554
0.00655726
0.00718452
0.00729872
0.0067208
0.00575266
0.00581744
0.00595034
0.00671942
0.00886346
0.0103796
0.0155544
0.0194854
0.267341
0.160687
0.000601048
0.000366143
0.000571811
0.00911627
0.00279459
0.00205736
0.00270106
0.000619106
0.00575266
0.00567067
0.00572633
0.005782
0.00594541
0.0217207
0.1153
0.060722
0.13502
0.249292
0.00943433
0.000115092
0.000257583
0.000366143
0.014111
0.0127559
0.00161459
5.37949e-05
-6.6002e-09
0.00567067
0.00567067
0.00567067
0.00576352
0.0181408
0.213147
0.268584
0.269048
0.268584
0.0978111
0.000936844
3.46154e-05
0.000143269
0.00723659
0.0142338
0.0142494
0.00451522
1.52217e-05
-1.75421e-09
0.00572299
0.00567067
0.00575635
0.0161848
0.208061
0.26888
0.269242
0.268584
0.189983
4.16056e-06
8.42096e-06
6.19628e-06
0.000664714
0.0107714
0.0142529
0.0142338
0.00246956
1.60048e-05
-8.29857e-09
0.0182112
0.00761306
0.0447391
0.198127
0.263054
0.26722
0.18029
0.094504
1.14202e-06
1.57261e-06
4.35054e-06
3.63009e-07
1.90557e-06
0.00146319
0.0066742
0.00370942
1.8833e-05
3.56634e-06
-7.5907e-09
0.263838
0.182595
0.233104
0.233104
0.163012
0.0339117
5.17065e-07
4.60085e-07
9.91782e-07
6.46236e-06
3.3037e-06
2.99477e-08
3.16466e-07
2.04121e-06
9.11726e-06
1.35905e-05
2.33831e-06
5.20709e-08
-9.24563e-10
0.269501
0.253113
0.156078
0.0703855
6.74321e-07
6.95486e-07
7.62689e-07
4.27692e-07
2.58795e-09
1.47262e-09
1.61531e-09
4.52367e-09
3.85092e-08
8.74527e-07
1.11127e-05
5.15548e-07
2.65392e-07
3.25183e-09
2.40126e-26
5.18168e-07
5.22393e-07
5.17996e-07
5.33631e-07
6.40877e-07
7.7082e-07
1.7245e-06
1.697e-06
5.62394e-08
1.38255e-09
1.17762e-09
1.04613e-09
1.60538e-10
6.0344e-07
7.87001e-07
7.24102e-08
8.17945e-07
2.83932e-06
1.41612e-05
6.87045e-07
5.22393e-07
3.36599e-07
7.96681e-06
2.05879e-05
5.01655e-06
2.66256e-09
1.63202e-09
1.41268e-09
1.28296e-09
1.23526e-09
9.73139e-10
1.30259e-09
1.51145e-09
2.7233e-09
7.94956e-09
6.94605e-08
4.45431e-05
0.000380557
0.000484092
4.90013e-07
1.2393e-07
1.22826e-05
2.52541e-05
2.53145e-05
1.00695e-05
2.66256e-09
1.63202e-09
2.54328e-09
1.68665e-09
8.28167e-10
5.71305e-09
1.27276e-08
1.2367e-08
1.13185e-08
1.26879e-08
7.42682e-06
0.000420645
0.00119413
2.61567e-05
7.073e-08
9.24867e-09
1.33033e-05
2.5292e-05
2.41579e-05
1.86048e-06
4.0319e-09
3.87879e-09
1.3683e-09
6.8711e-10
1.2541e-09
9.44061e-09
1.35508e-08
9.44575e-09
1.95936e-07
6.12315e-06
-6.77626e-23
0.000801305
9.25866e-05
9.24867e-09
9.78375e-10
6.36478e-10
4.53184e-06
3.6696e-06
1.5692e-06
1.61951e-07
9.83289e-10
6.8711e-10
6.8711e-10
6.8711e-10
1.22287e-09
6.67051e-09
6.87921e-09
3.44907e-07
0.000114723
6.54016e-06
6.87515e-07
4.57785e-05
4.97241e-06
1.63883e-07
1.50918e-10
1.7797e-10
3.28728e-07
5.21055e-07
3.82073e-07
1.33738e-08
7.06857e-10
6.8711e-10
7.06857e-10
2.02456e-09
6.10985e-09
8.80254e-09
1.2124e-06
0.000129811
3.01254e-05
1.19077e-11
1.44421e-11
2.93174e-06
7.41947e-07
1.72599e-11
3.84485e-11
7.50521e-11
9.45479e-11
9.6303e-11
4.70614e-09
1.89751e-09
5.82806e-10
8.61236e-10
1.21759e-08
1.08056e-08
4.72594e-08
6.16382e-05
0.000129851
3.88186e-05
1.0203e-11
1.22294e-11
1.44421e-11
1.5761e-11
1.62395e-11
5.77043e-11
8.66121e-11
1.08637e-10
1.27511e-10
1.30366e-10
1.35628e-10
1.38104e-10
2.72438e-07
2.29514e-06
7.99728e-07
2.09634e-06
0.000129853
0.000129883
1.66822e-05
5.68942e-11
6.49908e-11
3.98893e-11
2.60775e-11
3.63343e-11
8.6974e-11
1.96344e-10
2.97328e-10
3.28506e-10
2.68187e-10
1.38104e-10
5.97675e-09
5.98656e-06
8.47298e-06
1.44545e-06
6.76954e-06
0.000129882
9.96391e-05
8.07794e-30
1.31172e-10
1.11882e-10
6.69224e-11
3.81681e-11
4.35665e-11
9.42516e-11
2.14822e-10
3.11318e-10
3.21957e-10
2.53639e-10
1.58771e-10
4.5148e-07
8.55251e-06
8.55397e-06
4.2093e-07
7.01275e-06
2.95322e-05
9.55691e-13
7.46294e-13
1.55474e-10
1.10749e-10
5.48085e-11
3.68239e-11
4.41249e-11
1.02035e-10
2.12876e-10
1.25593e-10
1.2768e-10
1.32678e-08
3.82971e-10
1.79924e-06
8.55398e-06
8.40149e-06
1.14953e-10
1.01817e-10
4.56293e-11
2.80737e-12
1.23897e-11
1.07245e-10
3.566e-11
2.10253e-11
2.238e-11
3.20788e-11
1.00918e-10
1.17765e-10
5.81224e-12
1.31201e-09
1.05697e-07
3.08392e-09
2.47386e-06
8.5506e-06
7.81341e-06
1.51194e-10
3.84718e-10
2.03013e-09
4.35304e-11
0
3.97599e-11
1.21455e-11
9.24999e-12
9.89628e-12
2.04107e-11
7.31971e-11
4.71647e-11
5.48405e-12
5.62847e-08
1.22722e-07
7.08831e-09
1.36637e-06
8.47585e-06
4.521e-06
7.71755e-10
4.53538e-10
1.23132e-08
1.23592e-08
-2.05627e-21
3.10985e-12
2.8433e-12
2.77617e-12
3.69022e-12
1.52062e-11
4.43159e-11
2.30583e-11
5.38077e-12
1.16599e-07
1.22722e-07
2.0062e-08
7.07828e-08
1.30972e-06
5.86282e-07
3.5929e-07
1.44949e-08
1.50159e-08
2.94027e-07
2.69681e-09
4.96244e-13
7.40834e-13
8.95313e-13
1.92328e-12
1.27814e-11
2.82937e-11
1.71577e-11
5.32896e-12
9.26135e-08
1.22722e-07
4.1989e-08
3.89985e-09
3.8999e-09
3.89999e-09
4.71853e-07
6.63238e-08
1.50669e-08
4.07998e-07
8.9095e-07
8.67503e-14
1.31371e-13
2.48363e-13
1.19149e-12
9.11484e-12
1.9343e-11
1.47398e-11
5.30375e-12
1.1823e-08
3.37035e-08
1.81967e-08
3.92031e-09
3.89856e-09
3.8999e-09
1.32606e-07
5.24669e-08
1.57327e-08
8.89924e-08
1.66296e-06
5.53411e-15
1.65629e-14
1.01806e-13
9.12294e-13
6.21993e-12
1.41817e-11
1.32552e-11
5.29958e-12
5.99463e-13
5.99733e-13
5.99463e-13
4.13546e-09
4.02238e-09
6.50223e-09
3.59772e-09
3.61115e-09
4.1981e-08
3.78685e-09
8.83286e-09
2.73214e-16
5.96836e-15
6.72651e-14
6.79716e-13
3.93365e-12
8.59244e-12
8.67718e-12
5.09404e-12
1.00338e-12
5.99463e-13
1.61822e-10
3.69685e-09
1.63256e-08
2.66853e-08
8.80156e-09
3.61974e-09
4.42085e-08
3.71225e-09
5.16988e-28
7.12184e-17
3.15428e-15
4.48369e-14
4.12002e-13
2.08669e-12
3.85935e-12
3.66735e-12
2.86863e-12
1.29118e-12
6.05809e-13
6.10208e-13
4.18682e-09
2.90077e-08
2.90077e-08
2.32109e-08
3.73162e-09
4.33294e-08
6.81641e-09
6.51367e-13
3.06426e-17
1.38659e-15
2.35774e-14
2.00788e-13
8.52729e-13
1.20024e-12
1.09655e-12
9.96258e-13
8.737e-13
6.1429e-13
6.12802e-13
8.1763e-09
2.88396e-08
2.90077e-08
1.77073e-08
2.27063e-09
6.46419e-09
3.31231e-09
4.22962e-11
9.11135e-18
4.79907e-16
6.88778e-15
4.99936e-14
1.80194e-13
2.20968e-13
2.99846e-13
6.20702e-13
7.15586e-13
6.69219e-13
6.76989e-13
7.43377e-09
2.26301e-08
1.58979e-08
1.16553e-09
6.5984e-10
8.98017e-11
1.37288e-10
5.96286e-11
1.79293e-18
1.00816e-16
9.81192e-16
6.17203e-15
1.68352e-14
3.40108e-14
1.68802e-13
5.5858e-13
4.89975e-13
3.06527e-12
6.32818e-11
1.57162e-09
1.47608e-09
1.17324e-16
3.83661e-18
4.58567e-10
9.00616e-11
4.85025e-12
2.83525e-11
2.46828e-19
1.0411e-17
7.9073e-17
4.37993e-16
9.93208e-16
1.54219e-14
1.42001e-13
3.52836e-13
1.79067e-13
1.2853e-11
2.15909e-10
1.65775e-14
1.17324e-16
3.83661e-18
2.55331e-18
3.24013e-10
1.4064e-10
4.80788e-12
4.1218e-12
4.16438e-20
8.79045e-19
1.07058e-17
3.93054e-17
1.66459e-16
1.28502e-14
6.33967e-14
9.38919e-14
2.39271e-14
1.9668e-11
1.68749e-10
2.44439e-11
1.10327e-13
3.38123e-18
6.39713e-19
1.26131e-10
7.66032e-11
2.92362e-12
2.51469e-13
1.06373e-20
2.21052e-19
3.99894e-18
1.09048e-17
7.98879e-17
4.29897e-15
1.40252e-14
1.092e-14
6.26402e-17
2.10042e-11
1.97798e-11
4.40062e-12
7.05364e-14
6.39713e-19
5.08017e-21
2.76793e-11
1.28758e-11
4.1241e-13
6.41525e-18
3.31738e-21
7.16841e-20
1.07697e-18
2.05862e-18
2.84549e-17
5.43211e-16
1.07985e-15
5.81014e-16
-6.8756e-16
1.1224e-11
3.71054e-12
1.90463e-13
2.07498e-16
4.66463e-21
3.72213e-22
3.86104e-12
1.27756e-12
2.36242e-14
1.66906e-19
9.00779e-22
1.57509e-20
1.1052e-19
1.63312e-19
5.76315e-18
4.96466e-17
3.89277e-17
1.07312e-17
-6.87059e-16
1.54312e-12
7.43848e-13
4.83396e-14
4.6716e-17
-1.46212e-20
-9.23069e-43
2.89968e-13
8.32556e-14
9.41522e-16
2.42568e-21
1.57945e-22
1.72551e-21
4.07496e-21
6.03297e-21
6.50023e-19
5.25787e-19
2.01351e-19
1.19444e-20
-1.16808e-16
-7.09715e-17
-1.98701e-17
-3.36297e-18
-3.89793e-19
-3.36069e-20
-2.28321e-21
7.59504e-15
2.21141e-15
1.96967e-17
1.77998e-23
8.94626e-24
2.88973e-23
1.57198e-23
1.98587e-23
5.71732e-22
9.01199e-23
8.97532e-25
-1.66583e-21
-2.54467e-21
-1.01519e-21
-2.35656e-22
-3.94188e-23
-5.14691e-24
-5.43712e-25
-4.73128e-26
-3.37978e-27
-2.07745e-28
-1.22785e-29
-3.41845e-31
)
;

boundaryField
{
    leftWall
    {
        type            zeroGradient;
    }
    rightWall
    {
        type            zeroGradient;
    }
    lowerWall
    {
        type            zeroGradient;
    }
    atmosphere
    {
        type            inletOutlet;
        inletValue      uniform 0;
        value           nonuniform List<scalar> 
46
(
-2.24295e-25
3.04638e-26
2.22025e-25
2.89177e-25
4.02024e-25
1.10825e-24
7.44231e-25
1.82182e-25
3.03953e-26
3.86115e-27
3.93365e-28
3.6356e-29
4.89367e-30
1.31389e-30
4.76533e-31
3.12144e-31
3.08405e-31
3.08405e-31
3.08405e-31
3.12839e-31
1.51962e-29
6.53311e-28
4.19265e-27
6.26313e-27
0
0
0
0
0
0
0
0
0
0
0
0
0
0
0
0
0
0
0
0
0
0
)
;
    }
    defaultFaces
    {
        type            empty;
    }
}


// ************************************************************************* //
