/*--------------------------------*- C++ -*----------------------------------*\
| =========                 |                                                 |
| \\      /  F ield         | OpenFOAM: The Open Source CFD Toolbox           |
|  \\    /   O peration     | Version:  5.x                                   |
|   \\  /    A nd           | Web:      www.OpenFOAM.org                      |
|    \\/     M anipulation  |                                                 |
\*---------------------------------------------------------------------------*/
FoamFile
{
    version     2.0;
    format      ascii;
    class       surfaceScalarField;
    location    "0.95";
    object      alphaPhi10;
}
// * * * * * * * * * * * * * * * * * * * * * * * * * * * * * * * * * * * * * //

dimensions      [0 3 -1 0 0 0 0];

internalField   nonuniform List<scalar> 
4432
(
1.65367e-06
-1.65367e-06
1.00037e-07
1.55362e-06
-4.49742e-06
4.59746e-06
-9.10445e-06
4.60703e-06
-9.9464e-06
8.41963e-07
-7.60993e-06
-2.33647e-06
-5.04614e-06
-2.56379e-06
-3.38443e-06
-1.66169e-06
-2.51365e-06
-8.70786e-07
-2.5728e-06
5.91714e-08
-3.72296e-06
1.15014e-06
-5.70613e-06
1.98318e-06
-7.83782e-06
2.1317e-06
-9.28587e-06
1.44805e-06
-1.08723e-05
1.637e-06
-1.60693e-05
5.39348e-06
-2.62701e-05
9.49782e-06
-3.17772e-05
5.50707e-06
-2.94402e-05
-2.17363e-06
-2.27597e-05
-6.51554e-06
-1.52404e-05
-7.557e-06
-6.74887e-06
-8.51488e-06
-6.74886e-06
-3.78268e-06
2.12901e-06
-8.71023e-06
6.48116e-06
-1.3094e-05
8.98127e-06
-1.42141e-05
5.72711e-06
-1.19642e-05
-1.4079e-06
-8.49835e-06
-5.80234e-06
-5.59248e-06
-5.46966e-06
-3.63315e-06
-3.621e-06
-2.51664e-06
-1.9873e-06
-2.1944e-06
-2.63057e-07
-2.8104e-06
1.76614e-06
-4.42726e-06
3.60004e-06
-7.14431e-06
4.84877e-06
-1.12459e-05
5.59953e-06
-1.58933e-05
7.32684e-06
-2.2931e-05
1.19123e-05
-2.8344e-05
1.41153e-05
-2.70139e-05
4.1836e-06
-2.14685e-05
-7.31978e-06
-1.60829e-05
-1.20441e-05
-1.08921e-05
-1.28908e-05
-4.81678e-06
-1.47299e-05
-1.15656e-05
-6.14191e-06
8.27093e-06
-1.16594e-05
1.19986e-05
-1.48765e-05
1.21984e-05
-1.51849e-05
6.03551e-06
-1.30563e-05
-3.53654e-06
-9.68133e-06
-9.17725e-06
-6.52201e-06
-8.62899e-06
-4.1978e-06
-5.94519e-06
-2.61335e-06
-3.57176e-06
-1.86646e-06
-1.00992e-06
-2.07411e-06
1.97377e-06
-3.18527e-06
4.71123e-06
-5.25758e-06
6.92108e-06
-8.79841e-06
9.14198e-06
-1.34871e-05
1.28877e-05
-1.80713e-05
1.75831e-05
-1.88011e-05
1.49888e-05
-1.64686e-05
1.39959e-06
-1.3017e-05
-1.14323e-05
-9.97339e-06
-1.53968e-05
-6.87206e-06
-1.65288e-05
-3.02364e-06
-1.86594e-05
-1.45893e-05
-5.92786e-06
1.41988e-05
-1.08946e-05
1.69653e-05
-1.38256e-05
1.51294e-05
-1.4581e-05
6.79091e-06
-1.30266e-05
-5.09092e-06
-1.01204e-05
-1.20834e-05
-7.4392e-06
-1.13102e-05
-5.11521e-06
-8.26916e-06
-3.25771e-06
-5.42925e-06
-2.33701e-06
-1.93061e-06
-2.53761e-06
2.17435e-06
-3.63389e-06
5.80753e-06
-5.36909e-06
8.65627e-06
-7.54505e-06
1.13184e-05
-9.78596e-06
1.51295e-05
-1.09008e-05
1.89101e-05
-1.03384e-05
1.46226e-05
-9.65209e-06
6.69206e-07
-9.46031e-06
-1.16241e-05
-8.26697e-06
-1.65901e-05
-5.87499e-06
-1.89208e-05
-2.59241e-06
-2.19419e-05
-1.71818e-05
-4.43638e-06
1.86352e-05
-8.4919e-06
2.10208e-05
-1.11563e-05
1.77939e-05
-1.21021e-05
7.73672e-06
-1.1218e-05
-5.97504e-06
-9.49739e-06
-1.3804e-05
-7.94784e-06
-1.28598e-05
-5.92733e-06
-1.02897e-05
-3.66348e-06
-7.69312e-06
-2.23078e-06
-3.36331e-06
-2.06156e-06
2.00512e-06
-3.12602e-06
6.872e-06
-5.00722e-06
1.05375e-05
-7.10217e-06
1.34134e-05
-8.36297e-06
1.63904e-05
-7.91982e-06
1.84672e-05
-7.49706e-06
1.41998e-05
-8.83961e-06
2.01176e-06
-1.05991e-05
-9.8646e-06
-9.57345e-06
-1.76157e-05
-6.33589e-06
-2.21583e-05
-2.4135e-06
-2.58643e-05
-1.95953e-05
-2.33529e-06
2.09705e-05
-5.18762e-06
2.38731e-05
-7.2803e-06
1.98866e-05
-8.18271e-06
8.63913e-06
-8.10708e-06
-6.05063e-06
-8.17125e-06
-1.37398e-05
-8.18798e-06
-1.2843e-05
-6.25168e-06
-1.2226e-05
-2.87348e-06
-1.10713e-05
-4.70764e-07
-5.76604e-06
3.40076e-07
1.19427e-06
-5.37909e-07
7.74998e-06
-2.66733e-06
1.26669e-05
-5.35942e-06
1.61055e-05
-7.64827e-06
1.86792e-05
-8.43174e-06
1.92507e-05
-9.15386e-06
1.4922e-05
-1.12037e-05
4.06156e-06
-1.23645e-05
-8.70374e-06
-1.02453e-05
-1.9735e-05
-5.78388e-06
-2.66197e-05
-1.72844e-06
-2.99197e-05
-2.13238e-05
-4.32642e-08
2.10138e-05
-1.47503e-06
2.53049e-05
-3.04035e-06
2.14519e-05
-3.49932e-06
9.09811e-06
-3.86416e-06
-5.68453e-06
-6.40958e-06
-1.11755e-05
-8.1268e-06
-1.11203e-05
-5.27634e-06
-1.50764e-05
-6.55891e-07
-1.56918e-05
1.61369e-06
-8.03719e-06
2.21666e-06
5.91229e-07
1.35235e-06
8.6143e-06
-3.6299e-07
1.43822e-05
-3.14191e-06
1.88844e-05
-6.2711e-06
2.18084e-05
-8.63555e-06
2.16151e-05
-1.0705e-05
1.69914e-05
-1.28501e-05
6.20668e-06
-1.33525e-05
-8.20136e-06
-1.03041e-05
-2.27833e-05
-4.97053e-06
-3.1953e-05
-1.31486e-06
-3.35737e-05
-2.2634e-05
2.79119e-06
1.82226e-05
2.38086e-06
2.57153e-05
1.79668e-06
2.20361e-05
3.32875e-06
7.56603e-06
2.2341e-06
-4.59042e-06
-4.26128e-06
-4.69931e-06
-7.39211e-06
-8.00139e-06
-4.05677e-06
-1.84114e-05
-6.47113e-07
-1.91003e-05
8.31972e-08
-7.54414e-06
3.76498e-07
1.23786e-07
-2.48451e-07
4.27612e-06
-1.46288e-06
8.85208e-06
-3.58797e-06
1.66476e-05
-6.76529e-06
2.49857e-05
-9.70787e-06
2.45577e-05
-1.25055e-05
1.97891e-05
-1.51005e-05
8.80168e-06
-1.55734e-05
-7.72841e-06
-1.20649e-05
-2.62895e-05
-6.01675e-06
-3.79989e-05
-1.75165e-06
-3.73157e-05
-2.42981e-05
-2.44742e-06
2.42342e-06
3.26797e-06
-5.81061e-06
2.2749e-05
-1.95373e-05
3.87193e-05
-1.40509e-05
4.42523e-05
-3.65566e-06
4.03562e-05
5.50798e-06
2.96938e-05
1.08003e-05
1.98494e-05
9.84446e-06
4.40485e-06
1.33563e-05
-6.81949e-06
6.16008e-06
-1.7665e-05
7.97447e-06
-2.81864e-05
1.05214e-05
-3.52655e-05
7.07904e-06
-3.39441e-05
-1.32528e-06
-2.45901e-05
-9.07021e-06
-1.06128e-05
-1.27265e-05
2.48079e-06
-1.28081e-05
6.77708e-06
-5.42492e-06
6.02493e-06
-5.45441e-06
7.87888e-06
8.6518e-06
-1.96329e-05
2.87061e-05
-4.03685e-05
4.10921e-05
-2.71949e-05
4.46556e-05
-7.92946e-06
4.27567e-05
6.97441e-06
4.12385e-05
1.85123e-05
2.65393e-05
2.45502e-05
5.07801e-06
2.93706e-05
-1.91317e-06
8.18251e-06
-1.20824e-05
9.25436e-06
-2.03671e-05
1.27904e-05
-2.02211e-05
8.80226e-06
-1.46911e-05
-4.33786e-06
-8.41932e-06
-1.38393e-05
-1.04517e-06
-2.06912e-05
1.00512e-05
-2.36597e-05
1.6463e-05
-1.15919e-05
1.31179e-05
-1.53226e-06
9.49587e-06
1.18046e-05
-3.03577e-05
2.37644e-05
-5.31288e-05
3.20718e-05
-3.69967e-05
3.7458e-05
-1.30857e-05
4.00081e-05
6.62918e-06
3.45119e-05
2.47895e-05
1.67531e-05
4.22315e-05
-2.71616e-06
3.40544e-05
-2.72229e-06
6.85494e-06
-2.13141e-06
7.32276e-06
-5.00287e-06
3.8955e-06
-8.37619e-06
4.84103e-06
-6.03299e-06
-5.98811e-06
-9.6779e-06
-1.27918e-05
-1.26907e-05
-2.76849e-05
-1.00876e-06
-3.50969e-05
5.05539e-06
-1.05792e-05
4.23535e-06
1.20861e-06
8.29591e-06
1.03784e-05
-4.02655e-05
1.14617e-05
-5.8913e-05
1.20552e-05
-3.74733e-05
1.77037e-05
-1.86257e-05
2.20218e-05
2.35384e-06
1.81553e-05
2.85879e-05
1.34442e-06
5.88972e-05
-9.78043e-06
1.83668e-05
-5.5868e-06
9.85886e-06
-3.78312e-06
1.46223e-05
-5.78416e-06
2.3223e-05
-1.72233e-05
1.58656e-05
-2.71815e-05
4.19667e-06
-3.30319e-05
-6.57372e-06
-3.20459e-05
-2.79299e-05
-1.4128e-05
-5.09745e-05
-1.4881e-06
-1.00571e-05
2.05644e-06
7.45432e-07
7.55048e-06
5.08019e-06
-4.64686e-05
-2.83195e-06
-5.07808e-05
-9.72168e-06
-3.05533e-05
-8.75678e-06
-1.95073e-05
-3.42619e-06
-2.90189e-06
-2.97534e-06
2.81798e-05
-5.18412e-06
5.64023e-05
-5.88691e-06
1.35473e-05
-8.68461e-06
6.04341e-06
-1.60897e-05
1.76255e-05
-2.6875e-05
3.4929e-05
-3.93617e-05
2.86271e-05
-4.17544e-05
6.54071e-06
-2.8392e-05
-2.71808e-06
-2.99161e-05
-4.49026e-06
-3.05931e-05
-3.67526e-05
-5.31465e-06
-2.97695e-05
-3.9759e-07
7.19215e-07
5.48532e-06
2.89242e-06
-5.38548e-05
-4.94418e-06
-4.29818e-05
-1.17269e-05
-1.81254e-05
-1.61349e-05
-7.04556e-06
-1.71631e-05
-2.48594e-06
-1.69209e-05
1.43481e-05
-7.21074e-06
1.48703e-05
-1.24117e-05
1.34338e-05
-3.11917e-05
1.15104e-05
-3.82765e-05
2.55362e-05
-4.17883e-05
3.8403e-05
-3.42105e-05
2.07889e-05
-5.05562e-06
-3.262e-06
-3.08314e-07
-8.99624e-07
-4.98817e-06
-1.59518e-07
-2.56752e-05
-5.66928e-06
-9.35109e-06
-4.81326e-05
-1.18019e-05
1.88409e-06
4.39173e-06
5.28162e-06
-5.71463e-05
5.47761e-06
-4.42444e-05
2.65734e-06
-1.61256e-05
-1.98731e-06
3.95232e-08
-6.46259e-06
8.04923e-07
-6.34153e-06
3.24148e-06
-5.79142e-06
1.03036e-05
-1.37199e-05
1.54492e-05
-4.09617e-05
1.54851e-05
-3.74449e-05
2.28998e-05
-2.5124e-05
1.00376e-05
-3.60648e-06
7.56458e-08
1.45866e-06
-4.58417e-06
6.30209e-07
-4.20761e-07
1.06686e-07
7.8163e-08
-5.27892e-06
-1.60682e-07
-1.19228e-05
-2.14873e-05
-2.37247e-05
4.09374e-06
3.3685e-07
8.0462e-06
-6.10278e-05
1.05754e-05
-4.88271e-05
2.29897e-06
-9.58946e-06
4.24986e-08
2.02928e-06
-3.09686e-06
3.81353e-06
-4.6714e-06
4.68018e-06
-7.66954e-06
1.28005e-05
-3.2062e-05
2.37571e-05
-3.53979e-05
1.91932e-05
-1.10012e-05
1.9134e-06
3.16625e-07
-3.84781e-07
2.33486e-06
-2.22252e-06
5.60111e-07
-2.909e-06
4.34293e-07
-2.60618e-07
2.20068e-07
1.35993e-07
-7.82715e-08
7.4135e-08
-1.58354e-05
-2.75847e-06
-2.59292e-05
1.84554e-05
-2.30899e-07
2.10772e-05
2.30935e-05
2.06052e-05
2.2508e-05
1.58132e-05
1.23581e-05
-7.41334e-07
1.19641e-05
-1.79502e-05
1.25095e-05
-2.3574e-05
-2.37752e-06
-1.98962e-05
-2.17155e-05
-7.30145e-06
-1.00882e-05
2.71955e-08
-9.46216e-07
7.81938e-07
-2.79716e-08
1.06579e-08
2.00893e-07
-1.00629e-06
1.6744e-07
-3.01132e-06
3.54059e-07
-8.79745e-06
4.0743e-06
-2.00045e-05
1.58231e-05
-3.25393e-05
2.44131e-05
-4.36593e-05
1.99219e-05
-5.0518e-05
-7.73543e-07
-4.64785e-05
-3.0012e-05
-3.00395e-05
-5.53505e-05
-1.09509e-05
-5.72952e-05
-3.65803e-05
9.65706e-07
3.24516e-05
-3.23292e-05
4.02631e-05
1.55427e-05
3.28551e-05
2.99161e-05
1.48031e-05
3.041e-05
-6.72698e-06
3.22542e-05
-2.8886e-05
3.29562e-05
-5.08005e-05
1.95561e-05
-1.4155e-05
-2.01672e-06
9.32202e-07
-3.62896e-06
3.07871e-07
-3.68744e-07
1.96498e-07
3.2235e-08
1.14082e-07
2.36453e-07
-1.41141e-07
2.7904e-07
-6.4543e-07
2.23533e-07
-3.0464e-06
1.72364e-07
-1.39735e-05
-4.09726e-07
-4.26543e-05
6.26729e-06
-6.93421e-05
1.31579e-05
-7.77913e-05
3.2389e-06
-7.3815e-05
-3.20703e-05
-6.46567e-05
-7.32709e-05
-3.88161e-05
-8.83357e-05
-5.15666e-05
-2.40831e-05
1.80699e-05
-5.01844e-05
2.09977e-05
1.28607e-05
3.26722e-06
4.59629e-05
-3.09911e-05
6.15803e-05
-7.22877e-05
7.22711e-05
-7.31522e-05
5.22772e-05
-4.30958e-06
1.57156e-06
-2.2685e-06
-1.40113e-06
-1.0894e-06
-2.4858e-06
-1.1566e-06
-3.22903e-07
-1.30375e-06
1.33747e-07
-1.31834e-06
2.04782e-07
-1.37974e-06
2.66819e-07
-1.76223e-06
4.41977e-07
-2.67369e-06
5.04547e-07
-1.7485e-05
2.71557e-07
-6.95952e-05
7.95803e-07
-9.04966e-05
5.40048e-07
-7.29329e-05
-6.35513e-06
-5.17515e-05
-1.64589e-06
-6.84497e-05
-1.78366e-05
-6.97224e-05
-8.14679e-05
-7.13777e-05
-5.02074e-05
-3.42871e-05
-1.71671e-05
-6.52046e-05
4.38087e-05
-0.000103654
8.46635e-05
-0.000153102
0.000111268
-0.000145598
9.08235e-05
-6.31048e-05
3.92275e-06
-5.65884e-05
-2.3056e-07
-5.22697e-05
-3.13923e-06
-2.39405e-05
-7.53345e-06
-2.15841e-06
-3.68983e-06
-1.89912e-06
-1.71176e-07
-1.86603e-06
1.2691e-07
-1.82761e-06
1.92039e-07
-1.84895e-06
4.17821e-07
-1.94434e-06
4.72087e-07
-5.99002e-06
2.03483e-08
-8.63306e-06
-7.60628e-07
-5.31531e-06
-1.83943e-06
-1.3627e-06
-2.62528e-06
-2.54265e-06
-2.42255e-06
-1.77565e-05
-4.41903e-06
-7.27978e-05
-4.79621e-05
-8.28211e-05
-6.16892e-05
-8.78932e-05
7.0726e-05
-0.000149051
0.000100022
-0.000192062
8.07563e-05
-0.000131853
3.85864e-05
-3.45217e-05
1.20216e-05
-3.75728e-05
2.16321e-06
-6.09839e-05
4.80638e-06
-6.48959e-05
-1.13893e-06
-6.65212e-05
-8.16252e-06
-5.98179e-05
-1.07183e-05
-7.67421e-06
-8.29163e-06
-2.69101e-06
-2.79906e-06
-1.69379e-06
-1.35605e-07
-1.57107e-06
2.09744e-07
-1.23707e-06
4.7163e-08
-1.23144e-06
-1.14884e-07
-1.48136e-06
-9.5791e-07
-1.10491e-06
-3.54804e-06
-8.07957e-07
-5.6366e-06
-1.19975e-06
-4.74901e-06
-5.54825e-06
-2.55154e-06
-6.97527e-05
-3.85959e-05
-7.16169e-05
-8.12284e-05
-8.04697e-05
0.000145344
-7.61855e-05
4.26375e-05
-4.15171e-05
7.65554e-06
-1.5236e-05
5.54459e-06
-5.9675e-06
2.96408e-06
-4.56689e-06
8.12151e-07
-2.50073e-06
7.0909e-08
-2.33751e-05
-3.03222e-07
-6.23147e-05
-2.47021e-06
-6.70433e-05
-1.81861e-06
-6.38834e-05
-5.04573e-06
-5.10351e-05
-1.05952e-05
-2.14465e-05
-5.32681e-06
-7.99948e-06
-4.20232e-06
-5.12987e-06
-6.38885e-06
-5.45122e-06
-7.77834e-06
-1.26153e-05
-1.86465e-05
-1.17422e-05
-3.71983e-05
-6.76721e-06
-3.07898e-05
-2.56353e-06
-1.49258e-05
-7.25154e-06
-7.01813e-06
-7.9333e-05
-4.67368e-05
-4.87444e-05
-0.000102765
-1.83585e-05
0.000153437
-1.09916e-05
1.30685e-05
-7.47224e-06
3.05082e-06
-3.51585e-06
1.32785e-06
-9.93112e-07
5.01383e-07
-2.45068e-07
8.63351e-08
-1.75382e-07
4.68061e-09
-4.75262e-07
-2.59359e-09
-2.92756e-06
-1.7371e-08
-6.56285e-06
-7.97844e-08
-2.49491e-05
-5.66639e-07
-3.87591e-05
-2.26945e-06
-4.56058e-05
-4.72118e-06
-5.97744e-05
-8.7495e-06
-5.50633e-05
-2.67834e-05
-4.7952e-05
-3.15585e-05
-6.54389e-05
-4.84926e-05
-7.48713e-05
-7.27079e-05
-7.20583e-05
-7.7945e-05
-4.50714e-05
-6.55484e-05
-4.21068e-05
-5.8314e-05
-9.73173e-05
-5.13871e-05
-2.89386e-05
-0.000119247
-7.68392e-06
0.000115782
-3.22419e-06
7.50959e-06
-1.58929e-06
1.05088e-06
-5.48965e-07
2.60716e-07
-8.81711e-08
6.35275e-08
-5.19859e-09
6.48415e-09
-5.08363e-10
1.15572e-10
-3.09712e-09
-2.23545e-13
-2.04575e-08
-3.41029e-12
-1.00191e-07
-2.14013e-11
-6.66577e-07
-1.45489e-10
-2.93457e-06
-8.77018e-10
-7.64985e-06
-4.65673e-09
-2.10968e-05
-2.44965e-08
-4.91716e-05
-1.28715e-07
-6.81146e-05
-6.07472e-07
-7.09319e-05
-2.76852e-06
-7.91499e-05
-1.10211e-05
-9.45572e-05
-4.06137e-05
-8.66222e-05
-9.80225e-05
-8.50576e-05
-0.000100102
-0.00011059
-6.48622e-05
-2.08202e-05
-0.000124257
-3.98448e-06
0.000114577
-9.70041e-07
4.1298e-06
-2.98223e-07
2.97991e-07
-6.74104e-08
3.96831e-08
-6.35014e-09
6.31682e-09
-1.11454e-10
3.86641e-10
-4.96524e-13
3.43328e-12
-8.5632e-13
3.43027e-14
-4.32673e-12
3.47943e-15
-2.52306e-11
-4.88801e-14
-1.70397e-10
-2.12189e-13
-1.0467e-09
-3.59612e-12
-5.65543e-09
-4.88517e-11
-2.95672e-08
-5.57614e-10
-1.54013e-07
-4.16622e-09
-7.35901e-07
-2.52632e-08
-3.35496e-06
-1.4781e-07
-1.35578e-05
-8.14557e-07
-2.10614e-05
-2.71536e-06
-6.9244e-05
-2.13842e-05
-0.000107192
-7.53019e-05
-0.000121581
-8.13285e-05
-2.5262e-05
-0.000128888
-2.41909e-06
0.0001623
-2.63216e-07
1.86832e-06
-4.79428e-08
7.39333e-08
-7.12314e-09
5.03663e-09
-3.89098e-10
2.29646e-11
-3.65991e-12
7.26311e-12
-2.06436e-13
1.33612e-13
-3.31092e-13
8.73291e-14
-5.15385e-13
1.9687e-13
-1.43636e-12
7.0934e-13
-2.47624e-12
5.00198e-14
-7.06348e-12
-1.95019e-14
-5.49458e-11
-3.00855e-14
-5.90226e-10
-2.2841e-11
-4.50277e-09
-2.66605e-10
-2.74906e-08
-2.36432e-09
-1.56614e-07
-1.82343e-08
-8.46254e-07
-1.23661e-07
-2.99226e-06
-5.68029e-07
-2.07207e-05
-3.68248e-06
-8.81023e-05
-1.67269e-05
-0.000115333
-7.31279e-05
-3.84894e-05
-0.000119978
-1.33227e-06
0.000180856
-4.23755e-08
5.4269e-07
-4.42391e-09
3.38547e-08
-3.87613e-11
1.42359e-09
-4.64775e-12
1.00784e-10
-1.27225e-13
4.6398e-12
-5.61725e-14
1.74993e-13
-1.60872e-13
1.36651e-13
-1.02551e-12
3.74388e-13
-2.35048e-12
9.52631e-13
-2.33715e-12
1.42953e-12
-2.04229e-12
5.66612e-13
-1.3352e-12
4.47593e-13
-2.27789e-11
-2.64855e-13
-2.7574e-10
-1.20521e-11
-2.47289e-09
-1.58067e-10
-1.90118e-08
-1.65904e-09
-1.27883e-07
-1.47659e-08
-6.07751e-07
-8.98333e-08
-3.71721e-06
-5.89358e-07
-1.80946e-05
-2.44554e-06
-0.000101152
-1.63213e-05
-4.48631e-05
-9.93957e-05
-2.09915e-07
0.000119991
-2.14842e-09
7.73982e-07
-2.56543e-10
2.74439e-08
-6.55273e-11
1.38546e-09
-3.0321e-12
5.53488e-11
-5.10845e-14
1.61794e-12
-1.02623e-13
2.20091e-13
-2.69504e-13
1.86494e-13
-8.50357e-13
4.69684e-13
-9.76898e-13
1.52284e-13
-6.86123e-13
1.79588e-13
-6.25137e-13
2.67164e-13
-6.49725e-13
1.84081e-12
-1.20995e-12
1.43886e-12
-1.18017e-11
-2.15685e-13
-1.62976e-10
-6.02365e-12
-1.71546e-09
-1.05557e-10
-1.50903e-08
-1.42169e-09
-9.73096e-08
-8.3449e-09
-6.22432e-07
-6.74339e-08
-2.85075e-06
-2.21172e-07
-1.87437e-05
-4.67846e-07
-2.35264e-06
-7.5866e-05
2.48415e-06
1.7456e-06
-2.21888e-08
1.82048e-06
-3.52355e-10
2.39933e-08
-3.72914e-11
1.0671e-09
-8.29262e-13
1.95909e-11
-1.15991e-13
9.64397e-13
-1.84653e-13
2.83364e-13
-3.04151e-13
1.91715e-13
-2.52614e-13
1.27269e-13
-1.92294e-13
7.62389e-14
-1.02937e-13
3.26772e-14
-1.3041e-12
7.48147e-14
-2.14213e-12
1.23326e-12
-5.81549e-13
1.6172e-12
-1.20646e-12
4.22149e-13
-6.72656e-12
-4.36102e-13
-2.94149e-11
-8.43677e-11
-2.52452e-10
-1.15293e-09
-5.56408e-09
-2.9931e-09
-2.39977e-08
-4.91589e-08
-8.16238e-08
-1.95036e-07
-3.76551e-07
-1.80257e-07
-1.35331e-07
-2.58038e-06
-5.11439e-08
5.28774e-08
-2.9161e-09
7.91313e-07
-3.40555e-10
2.51999e-08
-6.8723e-12
7.24253e-10
-5.83919e-13
1.3425e-11
-2.12448e-13
5.88107e-13
-2.83031e-13
3.48807e-13
-3.02639e-13
2.06218e-13
-2.96903e-13
1.14708e-13
-2.08831e-13
-8.0143e-15
5.14361e-14
-4.42437e-14
-5.42437e-12
-1.50032e-13
-2.1646e-12
-1.559e-12
2.16255e-12
-2.24245e-12
2.12967e-12
-5.71567e-13
5.58349e-12
-2.48338e-15
-3.65682e-11
-3.4479e-13
1.81854e-10
-6.90634e-10
4.14956e-09
-6.53638e-09
-5.68813e-08
-2.55523e-08
-1.62278e-07
-1.34399e-07
-1.01225e-07
-1.94691e-07
-1.98227e-07
-3.06235e-08
-4.5329e-09
5.74994e-08
7.0134e-09
1.76611e-07
-2.33025e-10
1.84071e-08
-9.36828e-12
4.99563e-10
-3.0574e-13
4.63726e-12
-3.20402e-13
8.14791e-13
-5.72019e-13
5.95259e-13
-1.75643e-12
1.38368e-12
-6.00455e-12
1.22377e-13
-1.83984e-12
-3.98647e-12
-2.51612e-13
-1.63587e-12
-7.66166e-13
-5.059e-13
-6.89307e-13
-1.74393e-13
3.24525e-12
-4.49808e-12
7.5892e-12
-4.5072e-12
4.56877e-12
-1.59945e-12
3.14056e-12
-2.01098e-13
1.14895e-09
-1.14502e-13
6.48762e-10
-2.61458e-09
-8.13338e-09
-2.22971e-08
-1.03445e-07
-5.1721e-08
-1.64263e-07
-1.37818e-07
-1.98985e-07
-1.58068e-07
1.66643e-08
4.09028e-08
3.101e-09
4.79892e-08
-1.67114e-10
1.0292e-08
-2.13648e-12
3.38289e-10
-6.06763e-13
3.98075e-12
-3.18201e-12
3.67033e-12
-4.43453e-11
4.1934e-11
-3.40965e-10
2.99369e-10
-2.8278e-10
-4.88087e-11
-5.61881e-11
-2.27684e-10
-3.86049e-12
-5.68325e-11
-6.11163e-14
-4.81438e-12
2.12412e-14
-7.23915e-13
3.29462e-12
-3.7026e-13
7.10768e-12
-4.37314e-12
2.72075e-12
-4.81777e-12
1.6556e-12
-6.72066e-13
1.23016e-12
-6.42303e-14
4.41428e-09
-1.07037e-13
2.88056e-09
-5.27597e-09
-6.5732e-09
-1.33428e-08
-7.1439e-08
-1.1448e-07
-1.60303e-07
-1.00977e-07
2.18848e-08
1.90323e-08
5.84424e-09
2.96034e-08
1.3641e-10
1.04263e-08
-1.17844e-12
4.77892e-10
-1.26521e-11
1.61752e-11
-9.39043e-11
8.5901e-11
-7.58504e-10
1.35255e-09
-1.0064e-08
1.45225e-08
-3.40103e-09
-1.21461e-08
-4.68931e-10
-5.14283e-09
-2.57431e-11
-3.81504e-10
-7.98324e-14
-4.97865e-11
1.9099e-13
-1.43588e-12
1.29839e-13
-4.67744e-13
1.45978e-12
-2.64249e-13
3.52123e-12
-1.2372e-13
8.21284e-13
-4.70713e-13
2.89223e-13
-6.43517e-14
1.00198e-13
-2.56161e-14
2.49473e-09
-5.2192e-14
9.48603e-09
-4.13314e-14
-4.06948e-10
-1.42872e-08
-1.17295e-07
-3.39482e-08
1.44582e-08
4.57433e-09
1.69544e-08
2.3478e-08
2.01763e-09
4.77366e-08
1.89156e-10
2.35107e-09
4.16158e-12
2.02156e-10
-3.27051e-11
1.13193e-10
-1.57437e-09
3.64982e-09
-5.23757e-09
3.02832e-08
-2.69349e-09
-1.25326e-08
-6.94614e-10
-3.78602e-08
-1.01427e-10
-8.41447e-09
-1.32739e-11
-2.79872e-10
-4.84733e-13
-1.50008e-11
1.42837e-13
-9.7132e-13
9.63112e-14
-1.98741e-13
5.19761e-14
-5.21734e-14
2.6897e-13
-5.89015e-14
2.07463e-13
-2.57696e-14
6.5485e-14
-9.01841e-15
1.14373e-14
-4.80075e-15
2.2834e-14
-6.23683e-14
9.31226e-09
-1.17477e-13
-8.00415e-15
2.25299e-08
4.22911e-09
3.50084e-10
2.69158e-08
1.22429e-08
2.13336e-08
4.65109e-08
3.01902e-09
2.04845e-08
3.83925e-10
2.88132e-09
1.21246e-10
3.27832e-10
7.23063e-09
2.33668e-09
2.78126e-08
2.56879e-08
2.75953e-08
-1.00491e-08
2.52443e-08
-3.38943e-08
-9.61952e-10
-1.32149e-08
-6.7962e-11
-1.2522e-09
-3.7372e-12
-8.62224e-11
-1.33629e-13
-5.18928e-12
3.15081e-14
-3.96332e-13
3.65789e-14
-3.88313e-14
3.8305e-14
-1.22645e-14
4.14069e-14
-9.37414e-15
1.84237e-14
-5.92905e-15
9.05371e-15
-2.21657e-15
1.24932e-13
-1.77139e-15
1.24381e-14
-6.31268e-15
-2.65481e-15
5.64384e-15
3.42411e-10
7.69092e-12
1.30082e-08
2.15578e-09
9.72187e-09
1.843e-08
2.66339e-08
7.22126e-08
6.99554e-09
3.18338e-08
1.77162e-09
5.63611e-09
2.73431e-08
2.15996e-08
6.24811e-08
2.97865e-08
5.49354e-08
-8.88479e-10
4.28625e-08
-2.45982e-08
4.15006e-10
-1.03017e-08
2.11494e-11
-1.08127e-09
4.17615e-13
-8.90175e-11
5.55542e-14
-7.12997e-12
3.55095e-14
-5.89489e-13
2.36264e-14
-5.25049e-14
1.73379e-14
-8.05806e-15
1.55149e-14
-4.40828e-15
1.16833e-14
-3.61595e-15
5.62818e-15
-2.25446e-15
5.06642e-15
-1.01723e-15
4.25751e-15
-2.04851e-15
-2.05324e-15
2.36916e-15
7.69102e-12
-1.01639e-16
1.98875e-09
1.69739e-10
1.85303e-08
5.9226e-09
7.13849e-08
5.08338e-08
5.91226e-08
9.38836e-08
5.83458e-08
7.57741e-08
9.53516e-08
7.05753e-08
9.00037e-08
4.04379e-08
7.88361e-08
1.16233e-08
2.95893e-08
-1.18319e-08
8.83683e-10
-2.80422e-09
7.66802e-11
-5.40256e-10
6.56234e-12
-5.17845e-11
6.11494e-13
-4.75949e-12
8.06403e-14
-4.2107e-13
2.0962e-14
-3.74629e-14
9.28753e-15
-4.64083e-15
7.75828e-15
-1.79277e-15
6.77487e-15
-1.54499e-15
3.98905e-15
-1.31943e-15
1.99095e-15
-7.39496e-16
3.9585e-15
-4.36094e-16
-4.2841e-16
3.1743e-15
2.85085e-15
-2.95246e-15
1.69662e-10
8.28684e-14
5.75051e-09
2.82288e-10
4.60038e-08
1.55066e-08
9.22957e-08
6.46235e-08
9.33893e-08
8.57086e-08
9.68289e-08
7.20159e-08
9.21902e-08
4.77908e-08
8.4062e-08
2.44256e-08
1.24253e-08
1.36792e-09
7.66265e-10
-2.19083e-10
7.82683e-11
-7.94529e-11
7.61879e-12
-1.06411e-11
7.25932e-13
-1.20594e-12
7.9166e-14
-1.1787e-13
1.45959e-14
-1.08452e-14
4.03912e-15
-1.36514e-15
3.03933e-15
-4.51142e-16
2.70933e-15
-4.25396e-16
2.02188e-15
-4.32745e-16
9.2899e-16
-3.63555e-16
6.58745e-16
-3.02439e-16
-4.37293e-16
6.26851e-16
1.56786e-16
-3.10994e-15
1.99576e-13
1.44795e-14
2.79013e-10
1.10082e-11
1.49451e-08
4.68134e-10
4.62992e-08
2.25941e-08
7.11454e-08
6.43596e-08
7.92361e-08
6.58875e-08
7.90989e-08
5.15339e-08
2.8837e-08
1.25885e-08
9.65415e-10
1.295e-10
1.81674e-10
4.46991e-11
2.2578e-11
1.65447e-12
2.4627e-12
-5.35486e-13
2.3525e-13
-1.21858e-13
2.74738e-14
-1.37089e-14
3.92389e-15
-1.55128e-15
1.12728e-15
-2.20959e-16
7.99272e-16
-7.20283e-17
7.66518e-16
-7.14695e-17
7.14006e-16
-1.03394e-16
5.30661e-16
-1.48869e-16
4.75892e-16
-2.30191e-16
-7.01385e-16
7.2329e-16
-4.53637e-15
1.42924e-15
-3.96464e-14
1.05558e-13
1.12417e-11
3.20852e-12
5.53021e-10
1.61352e-11
1.24227e-08
2.70555e-10
4.5925e-08
7.28671e-09
3.44204e-08
2.00484e-08
1.62541e-08
6.91244e-09
5.34487e-10
-9.59135e-10
8.32332e-11
-5.01453e-11
1.68554e-11
3.52603e-12
2.80329e-12
7.08002e-13
3.49062e-13
6.03595e-14
4.48717e-14
1.74489e-15
5.5041e-15
-6.25193e-16
1.00448e-15
-1.37082e-16
2.16979e-16
-2.47444e-17
1.46757e-16
-1.03124e-17
1.4901e-16
-1.54968e-17
2.55386e-16
-5.13714e-17
3.37372e-16
-1.02649e-16
5.12114e-16
-2.69007e-16
-1.48652e-15
2.11539e-15
7.27605e-15
1.42049e-15
8.80601e-14
4.76477e-14
2.94294e-12
8.64855e-13
1.85155e-12
3.53449e-12
2.38588e-10
6.06015e-12
2.09977e-09
3.86316e-10
3.78383e-09
4.61195e-10
1.54405e-09
-9.72974e-11
1.7571e-10
-9.50524e-11
1.78881e-11
-1.0867e-11
2.2673e-12
-4.56166e-13
2.81033e-13
6.9015e-14
4.38722e-14
1.37564e-14
6.94531e-15
1.39591e-15
1.36851e-15
7.82021e-17
1.73148e-16
-4.55109e-18
3.66199e-17
-1.97488e-18
2.95228e-17
-1.59438e-18
5.05241e-17
-5.53975e-18
1.82465e-16
-3.58212e-17
2.99319e-16
-8.10644e-17
7.43693e-16
-2.17789e-16
-1.03352e-15
3.33647e-15
-2.46855e-16
1.9356e-15
5.17187e-14
1.04302e-14
8.65084e-13
6.64664e-14
5.71241e-13
3.28621e-14
-9.64081e-12
4.59582e-12
2.16267e-10
3.84463e-11
4.00222e-10
4.94651e-11
1.63498e-10
-4.98066e-12
2.66962e-11
-8.16829e-12
3.15417e-12
-1.49244e-12
3.54819e-13
-1.23605e-13
4.8468e-14
3.08053e-15
9.54761e-15
3.30017e-15
1.89675e-15
4.53052e-16
2.08985e-16
3.10311e-17
2.12209e-17
1.00597e-18
6.94294e-18
-7.8108e-20
6.17763e-18
-2.34368e-19
2.87374e-17
-2.19835e-18
1.48536e-16
-2.04162e-17
2.53821e-16
-5.0809e-17
5.32435e-16
-1.0144e-16
-2.36232e-16
1.75946e-15
-4.54157e-16
5.11952e-16
-8.74505e-16
7.72666e-15
4.39504e-14
1.07354e-14
-1.06165e-13
2.25963e-14
2.47907e-13
6.26912e-13
1.98733e-11
3.81071e-12
3.73998e-11
4.58035e-12
1.61031e-11
-4.41452e-13
3.18053e-12
-7.14384e-13
4.36321e-13
-1.43293e-13
5.44604e-14
-1.29235e-14
1.14877e-14
3.86145e-15
2.31018e-15
8.05189e-16
2.50896e-16
7.41405e-17
2.22242e-17
4.56252e-18
2.42398e-18
2.43467e-19
1.20058e-18
8.81857e-21
1.54547e-18
-1.93993e-20
1.47004e-17
-4.44677e-19
8.2807e-17
-4.73907e-18
1.33278e-16
-1.49133e-17
1.81608e-16
-1.95149e-17
-1.87991e-17
2.88877e-16
-9.52385e-17
5.00093e-17
-4.55544e-16
1.89066e-15
-3.55719e-16
3.306e-15
-4.93312e-15
5.66753e-15
2.8154e-13
6.71449e-14
2.21446e-12
3.3217e-13
3.63117e-12
3.83766e-13
1.54069e-12
-2.58336e-14
3.31383e-13
-4.53757e-14
4.99009e-14
-1.08393e-14
1.02903e-14
3.45721e-15
2.18732e-15
9.0457e-16
2.46535e-16
9.59904e-17
2.30836e-17
7.4908e-18
2.11857e-18
5.16032e-19
2.4501e-19
3.30015e-20
1.53494e-19
2.39947e-21
2.73434e-19
7.90164e-23
3.43079e-18
-1.80306e-20
1.91283e-17
-2.23448e-19
2.89681e-17
-1.00693e-18
2.70975e-17
-1.37088e-18
-1.27449e-18
1.61714e-17
-6.01876e-18
5.05035e-18
-1.94268e-17
2.3382e-16
3.93211e-17
6.00825e-16
2.0397e-15
1.64795e-15
3.64806e-14
7.0984e-15
2.06231e-13
3.21916e-14
3.05045e-13
3.52961e-14
1.33878e-13
3.62269e-15
2.90082e-14
-1.57759e-15
6.46584e-15
2.42611e-15
1.55279e-15
7.01152e-16
1.8917e-16
8.44486e-17
2.00177e-17
8.07022e-18
1.9124e-18
6.67851e-19
1.77405e-19
4.7657e-20
2.17933e-20
3.44799e-21
1.22562e-20
3.42187e-22
1.59566e-20
6.90055e-23
1.92297e-19
-3.88737e-23
1.06637e-18
-1.40924e-21
2.10133e-18
-1.69645e-20
1.9818e-18
-4.43944e-20
-5.63274e-20
1.20709e-18
-8.67306e-20
5.95417e-19
5.20313e-18
2.69255e-17
3.59421e-17
6.94112e-17
3.0566e-16
3.04133e-16
3.40046e-15
1.19567e-15
1.68138e-14
2.03034e-15
2.46099e-14
2.04532e-15
1.01103e-14
2.23291e-15
2.86968e-15
1.19987e-15
7.66194e-16
3.86149e-16
1.10198e-16
5.27389e-17
1.37974e-17
6.20861e-18
1.4849e-18
6.18386e-19
1.39953e-19
5.15887e-20
1.31868e-20
3.75761e-21
1.91477e-21
3.02935e-22
5.56579e-22
4.42496e-23
4.0885e-22
4.4071e-24
6.93135e-22
1.05891e-25
9.99456e-21
-7.94641e-24
5.65197e-20
-2.49327e-22
7.42483e-20
-1.39422e-21
-2.8502e-21
6.96326e-20
3.97084e-21
6.96969e-20
1.19829e-18
3.01882e-18
5.84019e-18
6.40143e-18
4.21589e-17
2.57992e-17
3.41219e-16
1.51289e-16
1.35479e-15
4.60768e-16
1.85203e-15
5.48739e-16
9.57275e-16
3.76196e-16
2.63841e-16
1.34359e-16
4.90082e-17
2.36939e-17
7.41505e-18
3.51808e-18
9.31771e-19
4.25993e-19
9.84836e-20
4.22999e-20
9.1358e-21
3.51768e-21
8.88412e-22
2.61442e-22
1.52529e-22
2.37784e-23
4.66712e-23
4.3036e-24
1.16311e-23
6.89179e-25
5.14005e-24
9.36899e-26
9.49119e-23
-2.70644e-25
1.22274e-21
-6.78052e-24
3.44575e-21
-4.01143e-23
-1.02001e-22
4.29096e-21
8.27034e-22
7.47183e-21
1.67988e-19
3.12457e-19
6.38429e-19
5.46751e-19
3.99924e-18
1.83535e-18
3.20024e-17
1.09504e-17
1.14332e-16
4.4486e-17
1.48301e-16
5.18843e-17
7.01529e-17
2.64878e-17
1.67265e-17
7.47915e-18
3.09321e-18
1.46895e-18
4.63612e-19
2.21487e-19
5.69788e-20
2.65896e-20
5.88536e-21
2.6109e-21
5.39114e-22
2.1563e-22
5.54053e-23
1.64533e-23
1.11788e-23
1.73238e-24
3.72558e-24
3.60572e-25
1.61181e-24
7.35227e-26
1.44875e-24
6.04494e-26
6.92076e-24
9.95537e-27
4.28554e-23
-2.24645e-25
1.21572e-22
-1.02566e-24
-4.50877e-24
1.90177e-22
1.13325e-22
7.3722e-22
1.86833e-20
2.95432e-20
5.7856e-20
4.40894e-20
3.18361e-19
1.31839e-19
2.35684e-18
7.04279e-19
7.82978e-18
2.53262e-18
9.79899e-18
2.82661e-18
4.2563e-18
1.50884e-18
1.00229e-18
4.40095e-19
1.81337e-19
8.6536e-20
2.6502e-20
1.28768e-20
3.17481e-21
1.52276e-21
3.20044e-22
1.47295e-22
2.91199e-23
1.20574e-23
3.26267e-24
9.56899e-25
7.52382e-25
1.19795e-25
2.75488e-25
2.61983e-26
1.9047e-25
7.49281e-27
2.70549e-25
8.38751e-27
7.46485e-25
5.87349e-27
1.82595e-24
-6.79062e-27
3.90144e-24
-4.7726e-26
-6.10888e-25
1.20672e-23
1.27911e-23
6.77364e-23
1.76718e-21
2.57465e-21
4.58617e-21
3.31068e-21
2.29714e-20
9.09315e-21
1.56984e-19
4.53284e-20
4.77982e-19
1.51299e-19
5.8223e-19
1.62202e-19
2.42512e-19
8.57094e-20
5.5628e-20
2.46188e-20
9.80292e-21
4.76191e-21
1.39429e-21
6.96248e-22
1.62504e-22
8.08261e-23
1.59756e-23
7.67567e-24
1.45831e-24
6.22986e-25
1.84181e-25
5.25126e-26
4.74559e-26
7.91205e-27
1.85499e-26
1.75616e-27
1.43172e-26
6.12744e-28
2.4411e-26
5.92794e-28
5.79581e-26
6.34981e-28
9.99974e-26
-2.98753e-29
2.48634e-25
-3.62254e-27
-1.09122e-25
2.20143e-24
1.27562e-24
5.8231e-24
1.46776e-22
2.08963e-22
3.24103e-22
2.32086e-22
1.52219e-21
5.91809e-22
9.7446e-21
2.79718e-21
2.71556e-20
8.74785e-21
3.23881e-20
8.98809e-21
1.28481e-20
4.62303e-21
2.86735e-21
1.29889e-21
4.91957e-22
2.46419e-22
6.79899e-23
3.52968e-23
7.69541e-24
4.00928e-24
7.38156e-25
3.72822e-25
6.86844e-26
3.01151e-26
1.00625e-26
2.77636e-27
2.87334e-27
4.99226e-28
1.11917e-27
1.13005e-28
8.96249e-28
3.99698e-29
1.45528e-27
3.69972e-29
3.38679e-27
4.36308e-29
5.99128e-27
1.97207e-29
2.89131e-26
-3.07852e-28
-1.3893e-26
4.50343e-25
1.15911e-25
4.69508e-25
1.09068e-23
1.59393e-23
2.06529e-23
1.53272e-23
9.34701e-23
3.65234e-23
5.65869e-22
1.64332e-22
1.44292e-21
4.82425e-22
1.69434e-21
4.75195e-22
6.36335e-22
2.37126e-22
1.38188e-22
6.50394e-23
2.30582e-23
1.20712e-23
3.09106e-24
1.68897e-24
3.39242e-25
1.87157e-25
3.18296e-26
1.70128e-26
3.09153e-27
1.37971e-27
5.35532e-28
1.44199e-28
1.66114e-28
3.01545e-29
6.2259e-29
6.82578e-30
5.03963e-29
2.48085e-30
8.23517e-29
2.49917e-30
1.77039e-28
2.83832e-30
3.66518e-28
2.50515e-30
3.81653e-27
-1.8886e-29
-1.27428e-27
6.17348e-26
9.72718e-27
3.54896e-26
7.33209e-25
1.15165e-24
1.19107e-24
9.61662e-25
5.36524e-24
2.15205e-24
3.09014e-23
9.24108e-24
7.23458e-23
2.54818e-23
8.33011e-23
2.40792e-23
2.96411e-23
1.16326e-23
6.25765e-24
3.1083e-24
1.01395e-24
5.62895e-25
1.31606e-25
7.67166e-26
1.3988e-26
8.27033e-27
1.29074e-27
7.3452e-28
1.35164e-28
6.0764e-29
2.7837e-29
7.46474e-30
9.0426e-30
1.74354e-30
3.28294e-30
3.81441e-31
2.7304e-30
1.54245e-31
4.65306e-30
1.68668e-31
9.02922e-30
1.86255e-31