/*--------------------------------*- C++ -*----------------------------------*\
| =========                 |                                                 |
| \\      /  F ield         | OpenFOAM: The Open Source CFD Toolbox           |
|  \\    /   O peration     | Version:  5.x                                   |
|   \\  /    A nd           | Web:      www.OpenFOAM.org                      |
|    \\/     M anipulation  |                                                 |
\*---------------------------------------------------------------------------*/
FoamFile
{
    version     2.0;
    format      ascii;
    class       volScalarField;
    location    "0.95";
    object      p;
}
// * * * * * * * * * * * * * * * * * * * * * * * * * * * * * * * * * * * * * //

dimensions      [1 -1 -2 0 0 0 0];

internalField   nonuniform List<scalar> 
2268
(
1027.59
1016.54
997.677
974.292
946.152
912.971
874.309
832.225
790.714
754.275
728.248
716.109
718.13
732.442
754.854
780.313
807.716
837.358
871.905
905.578
931.133
945.964
948.214
971.352
959.54
939.859
915.312
887.182
854.74
815.802
772.994
730.57
693.211
666.391
654.051
656.368
671.675
696.736
724.55
748.573
773.877
811.208
847.316
871.765
884.866
887.82
917.027
904.066
882.345
856.306
828.741
797.073
757.61
713.411
669.086
629.557
601.268
588.494
591.338
607.938
635.567
665.339
688.756
716.009
755.564
791.072
813.73
824.537
826.764
863.518
849.098
825.252
797.663
770.628
740.146
699.962
653.6
606.327
563.321
532.878
519.42
522.881
540.655
569.66
602.568
631.062
663.457
703.844
736.962
757.03
765.196
765.604
810.704
794.68
769.098
740.168
713.898
684.854
643.303
593.746
542.412
494.294
461.003
446.671
451.095
470.599
501.349
538.222
575.478
616.24
654.114
684.431
701.713
706.835
704.507
759.618
741.535
714.584
684.907
659.852
632.02
588.088
534.241
477.294
421.787
385.076
369.593
375.696
398.009
431.86
473.815
519.179
565.086
605.033
634.24
648.02
648.83
642.71
711.285
690.434
662.231
632.753
609.47
582.43
535.188
475.229
410.313
343.83
305.05
287.274
296.054
322.17
360.162
408.124
461.426
513.964
557.569
586.142
595.119
590.984
579.663
665.509
641.967
611.923
584.576
563.536
536.717
484.543
414.94
339.787
263.47
217.498
204.573
215.041
242.396
285.704
341.092
403.315
463.83
511.094
539.549
546.475
535.809
514.756
648.713
642.861
619.744
547.48
463.222
426.655
433.085
465.602
454.4
403.562
396.304
381.214
348.267
318.473
306.208
304.539
296.518
275.504
268.217
590.664
585.356
557.705
478.703
396.965
362.334
367.383
408.113
398.665
367.087
343.388
321.54
284.362
259.953
247.837
246.026
238.516
216.809
214.115
532.393
528.326
493.321
396.052
319.275
291.222
295.282
344.784
341.398
342.21
317.715
283.453
260.582
236.16
208.337
195.887
176.373
148.464
165.628
481.04
474.44
431.005
323.166
252.033
223.87
220.943
277.111
288.261
304.712
279.573
256.72
225.832
192.959
158.415
128.581
118.576
138.759
163.802
434.618
421.406
377.292
269.193
201.254
169.43
160.813
216.428
255.549
260.154
233.959
210.1
179.763
122.832
53.5159
37.7789
62.3794
119.783
154.708
396.999
368.729
326.384
224.914
168.16
154.857
141.654
176.018
232.859
222.523
183.637
150.989
102.408
51.0963
24.9052
20.3873
24.1752
78.4409
135.135
357.186
318.344
267.26
177.169
144.182
140.262
132.137
157.96
208.663
190.503
148.59
96.5286
54.5198
35.5951
22.7952
19.4074
17.6639
26.0825
102.743
322.637
274.174
206.22
133.276
130.929
133.958
130.753
150.831
182.423
158.597
113.161
75.2426
49.6785
31.4054
21.1375
18.1553
16.9694
18.4481
53.4629
598.492
570.438
537.168
517.117
497.694
471.758
406.866
319.239
229.37
166.466
151.454
149.734
153.861
164.406
188.907
239.67
312.19
386.489
439.432
474.302
479.05
450.892
405.499
511.377
465.378
436.879
434.038
422.379
386.189
311.927
220.086
144.816
136.104
136.38
137.866
139.355
141.031
144.294
157.206
205.647
292.758
383.497
377.018
348.921
320.864
280.632
381.378
291.565
309.712
336.722
360.658
316.895
215.973
182.405
150.89
136.894
135.024
135.743
137.636
139.51
140.838
143.857
156.423
183.233
189.139
176.772
183.559
204.601
191.084
369.113
224.58
197.172
229.732
289.78
246.845
203.032
163.975
133.964
133.009
133.777
134.445
135.957
137.382
138.404
140.008
144.114
146.777
144.879
143.379
143.837
146.666
125.073
535.1
296.694
132.806
66.2359
51.3497
46.049
31.6916
46.3963
67.9137
106.042
127.06
132.335
135.143
136.048
137.092
138.708
141.574
143.217
140.763
137.192
134.913
128.718
84.8964
513.502
207.766
57.123
12.1294
3.68124
1.96695
-0.751276
0.41967
6.61462
17.2803
59.6144
110.222
122.977
131.563
135.433
136.246
135.899
132.768
130.575
129.287
125.139
110.582
63.3349
247.12
69.7742
22.7878
4.31302
-1.52666
-2.91275
-2.96755
-2.69747
-2.57549
-1.82448
2.03206
10.4986
22.4365
67.3765
95.5988
105.17
100.893
97.142
95.6703
96.4105
91.917
66.0163
40.3207
65.7834
17.0598
5.67135
-0.278327
-2.50085
-3.17444
-3.10371
-2.91876
-2.72619
-2.61756
-2.63649
-2.68769
-2.29174
0.306184
12.4194
22.9196
27.3211
36.937
49.9431
52.8561
40.0144
21.0005
17.1906
21.3007
1.32681
-0.841299
-2.55182
-3.1478
-3.38598
-3.30816
-3.10907
-2.93186
-2.83004
-2.77527
-2.73629
-2.75193
-2.8127
-3.01581
-3.03042
-2.65062
-1.37883
0.546531
5.24432
-6.96997
-5.01226
11.464
7.71653
-1.9768
-2.44841
-3.29261
-3.42704
-3.50727
-3.40274
-3.26406
-3.15293
-3.08796
-3.06269
-3.0597
-3.06578
-3.14685
-3.25851
-3.32642
-3.33112
-3.17098
-2.95358
-4.43785
-8.316
-11.2572
20.2589
5.92904
-2.39434
-2.66905
-3.42954
-3.412
-3.51774
-3.4355
-3.37441
-3.32323
-3.29059
-3.28067
-3.29616
-3.33492
-3.39048
-3.4416
-3.47319
-3.49228
-3.49991
-3.53838
-3.89243
-5.7257
-4.07477
16.9894
5.74561
-2.38149
-2.73374
-3.45022
-3.38583
-3.48173
-3.47354
-3.48932
-3.48966
-3.47966
-3.47039
-3.47681
-3.50759
-3.55653
-3.60785
-3.64837
-3.68044
-3.70477
-3.72901
-3.77054
-3.81872
-3.40717
10.5769
14.7135
-2.36267
-3.30665
-3.5497
-3.3996
-3.54239
-3.59055
-3.65605
-3.68183
-3.67453
-3.65233
-3.63649
-3.64157
-3.66842
-3.70841
-3.75103
-3.78477
-3.80523
-3.80371
-3.72005
-3.42364
-2.94961
-2.79772
-2.58225
-3.33164
-3.34272
-3.61555
-3.52514
-3.71096
-3.83759
-3.93564
-3.94884
-3.91004
-3.85
-3.79697
-3.76534
-3.75831
-3.77296
-3.80226
-3.82249
-3.83154
-3.80522
-3.70081
-3.44073
-3.06863
-2.65135
-2.64283
-3.10336
-3.33203
-3.6981
-3.78223
-4.09016
-4.31485
-4.42512
-4.36787
-4.24346
-4.09683
-3.97536
-3.89318
-3.84561
-3.8229
-3.81651
-3.82645
-3.82119
-3.78388
-3.69129
-3.51088
-3.21181
-2.81547
-2.74
-3.0662
-3.4346
-3.90388
-4.21448
-4.72473
-5.10644
-5.23698
-5.07711
-4.75709
-4.42654
-4.17915
-4.02704
-3.93504
-3.87731
-3.84382
-3.82544
-3.80572
-3.76617
-3.69044
-3.57385
-3.37823
-3.05135
-2.65609
-3.03359
-3.66577
-4.25118
-4.80659
-5.57562
-6.18881
-6.38149
-6.07634
-5.42798
-4.81178
-4.38293
-4.16153
-4.01401
-3.92649
-3.87051
-3.83092
-3.79561
-3.753
-3.69015
-3.60274
-3.48643
-3.26772
-2.73911
-3.01499
-3.82602
-4.6151
-5.41694
-6.4253
-7.24356
-7.50888
-7.02185
-6.0131
-5.11628
-4.55128
-4.24055
-4.06495
-3.96042
-3.89177
-3.84052
-3.7951
-3.74755
-3.69208
-3.62324
-3.53439
-3.41416
-3.04883
-3.22335
-3.90543
-4.83414
-5.82627
-6.94569
-7.79915
-8.04591
-7.43724
-6.26372
-5.21012
-4.58155
-4.2549
-4.07772
-3.97267
-3.90278
-3.84925
-3.80118
-3.75141
-3.6959
-3.63264
-3.55638
-3.46569
-3.44614
-3.53633
-3.95724
-4.78891
-5.76986
-6.78756
-7.51437
-7.65543
-7.02691
-5.9408
-5.00078
-4.4578
-4.18965
-4.04759
-3.96185
-3.90259
-3.85494
-3.81033
-3.76316
-3.70974
-3.64787
-3.577
-3.49665
-3.80799
-3.85762
-4.15384
-4.64318
-5.24261
-5.88086
-6.32166
-6.32711
-5.82111
-5.13998
-4.55881
-4.22819
-4.07067
-3.98816
-3.93547
-3.8953
-3.85934
-3.82249
-3.78136
-3.73359
-3.67778
-3.61336
-3.54138
-4.07427
-4.19813
-4.44329
-4.61608
-4.67124
-4.74703
-4.83112
-4.79947
-4.59446
-4.3202
-4.11162
-3.99885
-3.95014
-3.92608
-3.90773
-3.88873
-3.86664
-3.83968
-3.80654
-3.7663
-3.71859
-3.66375
-3.60321
-4.20808
-4.36763
-4.59462
-4.61353
-4.38596
-4.07815
-3.88717
-3.81776
-3.80145
-3.80505
-3.82179
-3.8446
-3.86682
-3.88375
-3.89176
-3.89074
-3.88152
-3.86449
-3.83983
-3.80772
-3.76857
-3.72325
-3.67344
-4.22936
-4.32442
-4.48272
-4.47134
-4.21591
-3.85111
-3.58486
-3.49216
-3.52542
-3.61338
-3.70508
-3.77782
-3.83251
-3.87117
-3.89523
-3.90671
-3.90754
-3.89905
-3.88225
-3.85792
-3.82691
-3.79036
-3.74996
-4.21084
-4.25297
-4.30728
-4.26036
-4.06547
-3.79649
-3.58571
-3.50351
-3.53297
-3.61489
-3.70336
-3.78098
-3.84297
-3.88903
-3.92035
-3.93891
-3.94647
-3.94451
-3.93427
-3.91678
-3.89304
-3.86428
-3.83205
-4.19976
-4.20567
-4.19578
-4.12574
-3.98529
-3.81227
-3.67881
-3.62458
-3.64124
-3.69727
-3.76614
-3.8323
-3.88876
-3.93333
-3.96589
-3.98722
-3.99853
-4.00104
-3.99585
-3.98393
-3.96634
-3.94418
-3.91879
-4.2175
-4.21058
-4.18026
-4.11107
-4.00934
-3.89148
-3.80903
-3.77114
-3.77712
-3.81275
-3.86197
-3.91316
-3.95981
-3.9988
-4.02897
-4.05021
-4.06299
-4.06809
-4.06651
-4.05891
-4.04621
-4.02942
-4.00958
-4.25942
-4.24955
-4.2186
-4.16177
-4.08579
-4.00806
-3.94983
-3.92017
-3.91952
-3.94062
-3.97396
-4.01156
-4.04802
-4.08014
-4.10627
-4.12573
-4.13845
-4.1445
-4.1455
-4.14105
-4.13211
-4.11951
-4.10411
-4.31838
-4.30832
-4.28275
-4.23775
-4.18389
-4.13018
-4.08815
-4.06437
-4.06
-4.07151
-4.09331
-4.12003
-4.14752
-4.17295
-4.19459
-4.21151
-4.22341
-4.23049
-4.23205
-4.2296
-4.2234
-4.21403
-4.20212
-4.3904
-4.38115
-4.36085
-4.32806
-4.2894
-4.25144
-4.22077
-4.20183
-4.196
-4.20164
-4.2155
-4.23406
-4.25427
-4.27385
-4.29119
-4.30531
-4.3157
-4.3222
-4.32463
-4.32361
-4.31942
-4.31248
-4.30329
-4.47305
-4.4653
-4.44979
-4.42605
-4.39841
-4.37119
-4.34857
-4.33363
-4.32761
-4.32982
-4.33838
-4.35103
-4.36562
-4.38037
-4.39392
-4.40535
-4.41409
-4.41987
-4.42259
-4.42236
-4.41956
-4.41444
-4.40734
-4.56424
-4.55789
-4.54627
-4.52921
-4.50942
-4.48972
-4.47293
-4.46123
-4.45564
-4.45592
-4.46102
-4.46949
-4.47986
-4.49077
-4.50115
-4.51018
-4.51733
-4.52226
-4.52485
-4.52509
-4.52325
-4.51946
-4.51398
-4.66202
-4.65687
-4.64828
-4.63606
-4.62184
-4.60748
-4.59497
-4.58586
-4.58095
-4.58021
-4.58309
-4.58866
-4.59591
-4.60387
-4.61168
-4.61867
-4.62437
-4.62845
-4.63076
-4.63127
-4.62998
-4.62716
-4.62291
-4.76484
-4.76074
-4.75445
-4.74569
-4.73542
-4.7249
-4.71555
-4.70848
-4.7043
-4.70309
-4.70456
-4.70814
-4.71313
-4.71885
-4.72463
-4.72995
-4.73439
-4.73767
-4.73961
-4.74015
-4.73923
-4.73715
-4.73385
-4.87152
-4.86831
-4.86373
-4.85746
-4.85
-4.84225
-4.83525
-4.82978
-4.8263
-4.82493
-4.82554
-4.82776
-4.83113
-4.83517
-4.83938
-4.84334
-4.84673
-4.84929
-4.85086
-4.85137
-4.85083
-4.84913
-4.84652
-4.98115
-4.97868
-4.97537
-4.97088
-4.96545
-4.95972
-4.95447
-4.95026
-4.94741
-4.94606
-4.94614
-4.94745
-4.94967
-4.95246
-4.95547
-4.95836
-4.96089
-4.96283
-4.96404
-4.96444
-4.96401
-4.9627
-4.96066
-5.09303
-5.09115
-5.08877
-5.08558
-5.08162
-5.07741
-5.07348
-5.07025
-5.06795
-5.06671
-5.0665
-5.06721
-5.06862
-5.0705
-5.07259
-5.07465
-5.07647
-5.07789
-5.07878
-5.07906
-5.0787
-5.07764
-5.07609
-5.20662
-5.20519
-5.20351
-5.20128
-5.19842
-5.19534
-5.19244
-5.18999
-5.18817
-5.18708
-5.18674
-5.18705
-5.1879
-5.18912
-5.19052
-5.19194
-5.19321
-5.19421
-5.19483
-5.19501
-5.19473
-5.194
-5.19274
-5.32148
-5.32038
-5.31925
-5.31774
-5.31572
-5.31352
-5.31143
-5.30962
-5.30823
-5.30733
-5.30694
-5.30702
-5.30749
-5.30824
-5.30914
-5.31007
-5.31091
-5.31158
-5.31199
-5.31209
-5.31186
-5.3113
-5.3104
-5.43729
-5.43645
-5.43575
-5.4348
-5.43344
-5.43196
-5.43053
-5.42927
-5.42827
-5.42759
-5.42724
-5.42719
-5.42741
-5.42783
-5.42836
-5.42893
-5.42945
-5.42986
-5.43011
-5.43017
-5.43
-5.42962
-5.42901
-5.55365
-5.55303
-5.55272
-5.55222
-5.55142
-5.55056
-5.54971
-5.54896
-5.54835
-5.54791
-5.54766
-5.54759
-5.54767
-5.54787
-5.54814
-5.54844
-5.54872
-5.54894
-5.54908
-5.54911
-5.54902
-5.54884
-5.54859
-5.67088
-5.67047
-5.67032
-5.67016
-5.6699
-5.66961
-5.6693
-5.66902
-5.66878
-5.66859
-5.66846
-5.66839
-5.66837
-5.66839
-5.66845
-5.66851
-5.66858
-5.66863
-5.66866
-5.66865
-5.6686
-5.66851
-5.66838
383.569
365.275
356.085
342.124
261.735
252.14
248.73
251.959
184.532
185.467
185.964
186.784
115.717
115.833
118.895
121.294
69.725
70.1547
78.7041
88.367
51.1052
55.8844
68.9538
71.2379
42.4983
48.4493
48.5081
39.7352
36.6057
42.6602
35.7864
32.7243
31.5234
37.2555
34.4134
32.1028
35.6058
35.5407
35.3748
33.9747
41.0215
39.4988
33.6916
35.21
35.6026
49.4003
46.1958
26.4393
-2.36409
-0.110654
7.78811
13.7326
-2.3819
-2.24395
-2.23992
-2.22231
-2.58906
-2.5153
-2.44356
-2.36181
-2.82996
-2.73548
-2.67257
-2.59062
-3.07332
-2.98275
-2.92333
-2.8616
-3.25196
-3.15932
-3.08797
-3.06989
-3.36754
-3.2787
-3.22026
-3.17352
-3.42401
-3.375
-3.32207
-3.27212
-3.48335
-3.44554
-3.40744
-3.36945
-3.55581
-3.52515
-3.49505
-3.46582
-3.63485
-3.61006
-3.58593
-3.56262
-3.7186
-3.69847
-3.67888
-3.65988
-3.80683
-3.79055
-3.77457
-3.75893
-3.89863
-3.88552
-3.8725
-3.85961
-3.99352
-3.98299
-3.97238
-3.96176
-4.09134
-4.08287
-4.07425
-4.06552
-4.19197
-4.18517
-4.17817
-4.17101
-4.29523
-4.28977
-4.2841
-4.27823
-4.40094
-4.39657
-4.39197
-4.38717
-4.5089
-4.50539
-4.50167
-4.49775
-4.61888
-4.61606
-4.61306
-4.60986
-4.73065
-4.72839
-4.72596
-4.72336
-4.84397
-4.84217
-4.84021
-4.83811
-4.95864
-4.95721
-4.95566
-4.95398
-5.07453
-5.07342
-5.07221
-5.07091
-5.19155
-5.19071
-5.18981
-5.18885
-5.30957
-5.309
-5.30839
-5.30774
-5.42852
-5.42817
-5.42781
-5.42744
-5.54824
-5.54804
-5.54787
-5.54773
-5.66832
-5.66831
-5.66836
-5.66848
309.965
216.666
132.343
100.392
115.519
122.609
124.925
130.077
125.203
104.752
82.7019
69.0617
51.5546
30.4369
17.1802
15.2423
15.8107
15.714
23.5428
244.59
140.401
92.3855
87.0505
96.8823
104.792
104.993
82.782
38.5367
52.6235
67.4895
63.8874
48.7026
25.0881
11.9919
13.3468
14.8571
14.6502
14.4847
169.318
93.9502
79.7331
79.3085
88.0672
92.1842
79.2647
30.1816
11.2791
27.5622
51.2949
49.8338
36.5193
18.1865
13.4744
13.8437
14.6943
14.1131
13.8209
108.284
74.1546
69.451
69.4421
73.6993
84.1029
72.9542
26.5091
14.5281
22.2902
38.4638
39.5037
25.703
14.7979
15.1876
14.2621
14.1307
12.2481
12.5049
86.9638
59.8291
54.3318
54.939
60.3188
79.6746
80.8096
60.8489
21.4727
11.9033
18.6973
21.9446
16.1513
9.15904
8.43696
10.4694
9.00405
9.02566
11.1916
48.3888
38.0074
36.2868
39.727
47.7285
59.7113
67.0346
44.2657
10.5903
2.01494
1.84074
3.71813
0.628591
0.453237
2.36632
4.48267
2.64721
5.21677
6.97576
32.6321
29.9302
29.221
30.7835
35.2378
40.7496
43.9933
36.112
22.9224
13.1336
-0.17321
-0.949746
-0.641201
-0.342372
1.17329
2.51698
1.48637
2.28704
3.01534
29.4466
27.3097
27.1675
28.8845
32.4684
38.2769
38.3224
30.2645
18.8305
4.35108
-1.26265
-1.14315
-1.32127
-1.2315
-1.27809
0.305408
1.15736
1.66236
2.15104
29.5742
27.1671
26.5614
27.5818
29.8636
27.6861
24.8309
16.7655
14.0972
1.74916
-0.555792
-1.26482
-2.03728
-3.1328
-6.32596
-4.56943
-0.183396
1.01494
1.52856
31.6247
29.0372
27.6059
27.3899
23.7055
19.0932
13.2953
8.31826
9.28991
-0.52979
-0.793063
-1.4719
-2.57374
-4.89251
-10.7555
-6.88636
-1.62704
0.185785
0.710604
33.7841
31.1315
27.7511
21.028
16.0723
7.0343
9.14181
1.475
-1.69297
-1.28882
-1.26699
-1.68958
-2.41808
-3.78864
-5.88846
-4.09701
-1.6413
-0.313227
0.116577
25.1893
23.1779
24.8716
14.8322
6.92098
-0.709524
-1.95197
-2.56388
-2.18521
-1.84195
-1.75352
-1.84975
-2.14112
-2.60015
-2.95884
-2.31296
-1.16949
-0.455908
-0.245591
16.9133
16.2391
7.9194
1.64693
-2.2418
-2.31697
-2.38718
-2.54017
-2.36935
-2.18501
-2.05031
-1.98444
-2.00513
-2.03553
-1.85372
-1.40225
-0.938082
-0.622271
-0.533809
-2.15569
-2.17234
-2.25901
-2.46564
-2.49781
-2.5941
-2.66374
-2.74737
-2.65538
-2.46902
-2.2595
-2.09236
-1.96642
-1.83081
-1.6128
-1.32127
-1.07201
-0.911538
-0.826358
-2.28558
-2.31148
-2.37071
-2.44119
-2.46613
-2.6425
-2.85907
-2.97045
-2.89836
-2.68975
-2.42575
-2.1946
-2.00908
-1.83554
-1.6484
-1.47018
-1.32315
-1.24855
-1.15633
-2.45439
-2.45214
-2.44814
-2.42709
-2.4893
-2.69799
-2.96234
-3.08949
-3.03341
-2.81656
-2.53266
-2.28901
-2.09324
-1.92171
-1.7642
-1.63454
-1.55173
-1.52842
-1.50466
-2.65555
-2.59826
-2.57472
-2.53312
-2.57611
-2.73871
-3.00003
-3.09312
-3.04
-2.84603
-2.59385
-2.38402
-2.21361
-2.065
-1.93561
-1.83608
-1.77591
-1.74638
-1.76051
-2.90002
-2.76692
-2.72342
-2.67242
-2.69361
-2.79301
-2.91816
-3.0036
-2.96679
-2.82712
-2.64622
-2.48789
-2.35258
-2.23038
-2.12497
-2.04641
-1.99731
-1.96521
-1.96507
-3.08198
-2.94149
-2.87707
-2.83407
-2.83528
-2.87979
-2.93742
-2.96718
-2.93164
-2.83842
-2.71955
-2.6063
-2.50208
-2.40487
-2.32012
-2.25644
-2.20992
-2.18565
-2.17717
-3.19788
-3.09622
-3.02858
-2.99065
-2.98156
-2.99546
-3.01156
-3.00693
-2.96846
-2.90059
-2.81742
-2.73381
-2.65416
-2.57994
-2.5139
-2.46246
-2.41282
-2.39665
-2.38491
-3.30892
-3.23349
-3.17422
-3.13702
-3.1188
-3.11194
-3.10451
-3.0848
-3.04642
-2.99168
-2.92797
-2.86421
-2.80404
-2.75061
-2.7042
-2.65852
-2.61446
-2.59154
-2.58067
-3.41855
-3.35935
-3.30963
-3.27302
-3.24798
-3.2291
-3.20938
-3.18246
-3.14483
-3.09791
-3.04626
-2.99619
-2.95012
-2.91311
-2.87995
-2.84045
-2.80389
-2.77836
-2.76372
-3.52492
-3.47669
-3.43427
-3.39938
-3.37133
-3.34688
-3.32178
-3.29229
-3.25631
-3.21493
-3.1712
-3.12944
-3.09242
-3.06395
-3.03715
-3.00385
-2.9754
-2.95202
-2.93621
-3.62897
-3.58864
-3.55202
-3.51974
-3.49147
-3.46538
-3.4387
-3.4092
-3.37579
-3.33933
-3.30154
-3.26505
-3.23201
-3.20491
-3.17985
-3.15364
-3.13207
-3.1149
-3.10163
-3.73321
-3.69886
-3.66687
-3.6375
-3.61046
-3.58465
-3.55841
-3.53048
-3.5004
-3.46869
-3.4359
-3.40313
-3.37162
-3.34333
-3.31951
-3.3002
-3.28518
-3.27411
-3.26307
-3.83817
-3.80886
-3.78084
-3.75433
-3.72913
-3.70463
-3.67992
-3.65439
-3.6279
-3.6006
-3.57213
-3.54243
-3.51272
-3.48496
-3.46362
-3.44929
-3.43781
-3.42948
-3.42086
-3.94389
-3.9189
-3.89443
-3.87073
-3.84773
-3.82513
-3.80249
-3.77957
-3.75639
-3.73275
-3.70774
-3.68119
-3.65433
-3.62925
-3.61085
-3.59901
-3.58899
-3.58132
-3.57522
-4.05067
-4.02941
-4.00815
-3.98717
-3.9665
-3.94602
-3.92555
-3.90504
-3.88454
-3.86369
-3.84154
-3.81804
-3.79461
-3.77349
-3.7576
-3.7467
-3.73757
-3.73082
-3.72616
-4.15869
-4.14067
-4.1223
-4.10388
-4.0855
-4.06714
-4.04874
-4.03029
-4.01184
-3.99309
-3.97345
-3.95314
-3.93344
-3.91598
-3.90218
-3.89196
-3.88374
-3.87808
-3.87458
-4.26804
-4.25281
-4.23703
-4.22097
-4.20476
-4.18843
-4.17193
-4.15528
-4.13852
-4.12154
-4.10422
-4.08706
-4.07092
-4.05662
-4.04466
-4.0353
-4.02814
-4.02344
-4.02086
-4.37875
-4.36594
-4.35246
-4.33856
-4.32436
-4.30991
-4.2952
-4.28025
-4.26512
-4.2499
-4.23483
-4.22052
-4.20739
-4.19569
-4.18549
-4.17725
-4.17111
-4.16712
-4.16516
-4.49081
-4.48008
-4.46864
-4.45669
-4.44435
-4.43167
-4.41868
-4.40543
-4.39204
-4.37871
-4.36583
-4.35397
-4.34321
-4.33356
-4.32499
-4.31796
-4.31273
-4.30929
-4.30776
-4.60416
-4.59522
-4.58557
-4.57537
-4.56474
-4.55375
-4.54246
-4.53098
-4.51945
-4.50808
-4.49728
-4.48746
-4.47856
-4.47056
-4.46343
-4.45755
-4.45312
-4.45013
-4.44893
-4.7187
-4.7113
-4.70322
-4.69461
-4.68559
-4.67624
-4.66666
-4.65699
-4.64734
-4.63788
-4.62895
-4.62086
-4.61349
-4.60688
-4.60099
-4.59614
-4.59244
-4.58991
-4.58891
-4.83432
-4.82826
-4.8216
-4.81447
-4.807
-4.79926
-4.79137
-4.78347
-4.7756
-4.76788
-4.76063
-4.75404
-4.74802
-4.74263
-4.73784
-4.73391
-4.73087
-4.72881
-4.72793
-4.95095
-4.94609
-4.94073
-4.93502
-4.92906
-4.92289
-4.91662
-4.91035
-4.90409
-4.89796
-4.89222
-4.88698
-4.8822
-4.87792
-4.87412
-4.87102
-4.86858
-4.86697
-4.86622
-5.06856
-5.0648
-5.06069
-5.05634
-5.0518
-5.0471
-5.04233
-5.03754
-5.03275
-5.02809
-5.02375
-5.01978
-5.01614
-5.01288
-5.01
-5.00764
-5.00577
-5.00456
-5.00395
-5.18713
-5.1844
-5.18146
-5.17837
-5.17515
-5.1718
-5.1684
-5.16499
-5.16159
-5.15832
-5.15529
-5.1525
-5.14994
-5.14762
-5.14558
-5.1439
-5.14256
-5.14171
-5.14124
-5.30659
-5.30481
-5.30294
-5.301
-5.29899
-5.2969
-5.29479
-5.29269
-5.29062
-5.28865
-5.28682
-5.28513
-5.28356
-5.28213
-5.28086
-5.27981
-5.27895
-5.27842
-5.27808
-5.42679
-5.42587
-5.42498
-5.42411
-5.42324
-5.42235
-5.42147
-5.42062
-5.4198
-5.41903
-5.41832
-5.41764
-5.417
-5.4164
-5.41585
-5.41537
-5.41496
-5.41472
-5.4145
-5.54753
-5.54742
-5.54749
-5.54767
-5.54791
-5.54819
-5.54852
-5.54887
-5.54924
-5.54962
-5.54997
-5.55029
-5.55055
-5.55074
-5.55088
-5.55096
-5.55098
-5.551
-5.55087
-5.66877
-5.66949
-5.67049
-5.67169
-5.67303
-5.67449
-5.67602
-5.6776
-5.67919
-5.68075
-5.68223
-5.68356
-5.68475
-5.68578
-5.68663
-5.68731
-5.68778
-5.68808
-5.68788
)
;

boundaryField
{
    leftWall
    {
        type            calculated;
        value           nonuniform List<scalar> 
50
(
1027.59
971.352
917.027
863.518
810.704
759.618
711.285
665.509
598.492
511.377
381.378
369.113
535.1
513.502
247.12
65.7834
21.3007
7.71653
5.92904
5.74561
14.7135
-2.58225
-2.64283
-2.74
-2.65609
-2.73911
-3.04883
-3.44614
-3.80799
-4.07427
-4.20808
-4.22936
-4.21084
-4.19976
-4.2175
-4.25942
-4.31838
-4.3904
-4.47305
-4.56424
-4.66202
-4.76484
-4.87152
-4.98115
-5.09303
-5.20662
-5.32148
-5.43729
-5.55365
-5.67088
)
;
    }
    rightWall
    {
        type            calculated;
        value           nonuniform List<scalar> 
50
(
268.217
214.115
165.628
163.802
154.708
135.135
102.743
53.4629
23.5428
14.4847
13.8209
12.5049
11.1916
6.97576
3.01534
2.15104
1.52856
0.710604
0.116577
-0.245591
-0.533809
-0.826358
-1.15633
-1.50466
-1.76051
-1.96507
-2.17717
-2.38491
-2.58067
-2.76372
-2.93621
-3.10163
-3.26307
-3.42086
-3.57522
-3.72616
-3.87458
-4.02086
-4.16516
-4.30776
-4.44893
-4.58891
-4.72793
-4.86622
-5.00395
-5.14124
-5.27808
-5.4145
-5.55087
-5.68788
)
;
    }
    lowerWall
    {
        type            calculated;
        value           nonuniform List<scalar> 
62
(
1057.02
1045.97
1027.11
1003.72
975.582
942.401
903.738
861.654
820.143
783.705
757.677
745.539
747.56
761.872
784.263
808.512
834.472
866.788
901.193
934.661
960.323
975.362
977.643
948.214
887.82
826.764
765.604
704.507
642.71
579.663
514.756
446.166
427.872
418.682
404.722
648.713
590.664
532.393
481.04
434.618
396.999
357.186
322.637
677.792
672.219
647.075
573.97
490.4
455.245
462.486
495.031
481.715
424.892
424.371
410.643
377.696
347.902
335.576
333.426
321.863
298.483
291.779
)
;
    }
    atmosphere
    {
        type            calculated;
        value           nonuniform List<scalar> 
46
(
-5.72904
-5.72904
-5.72904
-5.72904
-5.72904
-5.72904
-5.72904
-5.72904
-5.72904
-5.72904
-5.72904
-5.72904
-5.72904
-5.72904
-5.72904
-5.72904
-5.72904
-5.72904
-5.72904
-5.72904
-5.72904
-5.72904
-5.72904
-5.72904
-5.72906
-5.72914
-5.7293
-5.72976
-5.73081
-5.73223
-5.73394
-5.73583
-5.73789
-5.74006
-5.74231
-5.74458
-5.7468
-5.74889
-5.75079
-5.75249
-5.75397
-5.75523
-5.75625
-5.75698
-5.75747
-5.75707
)
;
    }
    defaultFaces
    {
        type            empty;
    }
}


// ************************************************************************* //
