/*--------------------------------*- C++ -*----------------------------------*\
| =========                 |                                                 |
| \\      /  F ield         | OpenFOAM: The Open Source CFD Toolbox           |
|  \\    /   O peration     | Version:  5.x                                   |
|   \\  /    A nd           | Web:      www.OpenFOAM.org                      |
|    \\/     M anipulation  |                                                 |
\*---------------------------------------------------------------------------*/
FoamFile
{
    version     2.0;
    format      ascii;
    class       volScalarField;
    location    "0.95";
    object      p_rgh;
}
// * * * * * * * * * * * * * * * * * * * * * * * * * * * * * * * * * * * * * //

dimensions      [1 -1 -2 0 0 0 0];

internalField   nonuniform List<scalar> 
2268
(
1057.02
1045.97
1027.11
1003.72
975.582
942.401
903.738
861.654
820.143
783.705
757.677
745.539
747.56
761.872
784.263
808.512
834.472
866.788
901.193
934.661
960.323
975.362
977.643
1059.64
1047.83
1028.15
1003.6
975.47
943.028
904.09
861.282
818.858
781.499
754.679
742.339
744.656
759.946
781.023
806.133
831.214
862.15
897.622
932.982
957.432
972.78
976.108
1064.17
1051.21
1029.49
1003.45
975.887
944.22
904.757
860.557
816.233
776.704
748.415
735.641
738.485
755.084
780.637
804.393
829.035
857.896
900.091
935.429
958.451
971.514
973.911
1069.52
1055.1
1031.26
1003.67
976.634
946.151
905.968
859.605
812.333
769.327
738.884
725.426
728.886
746.66
775.664
808.272
836.463
868.109
909.85
942.968
963.035
971.202
971.607
1075.57
1059.54
1033.96
1005.03
978.762
949.718
908.168
858.61
807.276
759.159
725.867
711.535
715.959
735.463
766.213
803.086
840.342
881.105
918.978
949.295
966.577
971.699
969.371
1083.34
1065.26
1038.31
1008.63
983.575
955.743
911.811
857.964
801.017
745.51
708.799
693.316
699.419
721.732
755.583
797.538
842.902
888.809
928.756
957.963
971.743
972.553
966.433
1093.87
1073.02
1044.81
1015.33
992.046
964.906
917.735
857.811
792.893
726.411
687.632
669.855
678.636
704.752
742.744
790.706
844.008
896.546
940.15
968.723
977.698
973.559
962.24
1106.95
1083.41
1053.36
1026.02
1004.95
977.419
925.492
856.376
781.172
696.722
601.909
568.206
605.88
677.142
727.145
782.532
844.755
905.27
952.534
980.981
987.878
974.628
955.06
677.792
672.219
647.075
573.97
490.4
455.245
462.486
495.031
481.715
424.892
424.371
410.643
377.696
347.902
335.576
333.426
321.863
298.483
291.779
678.952
671.377
633.175
554.121
472.383
437.753
453.087
496.393
480.511
396.232
399.565
406.236
366.341
331.871
317.457
316.345
316.054
294.347
279.907
679.331
658.216
619.236
527.863
456.267
433.386
441.709
491.824
465.851
386.392
361.82
333.023
309.861
293.897
300.306
305.996
305.603
250.211
234.016
686.925
648.639
623.842
528.74
457.641
429.527
426.652
482.851
393.624
405.606
388.987
342.684
349.305
362.302
327.803
297.607
283.469
180.059
164.457
699.482
646.141
640.516
533.271
465.581
433.801
425.229
475.338
303.127
372.736
442.216
422.841
395.424
340.416
228.128
167.949
227.916
282.513
198.299
641.816
687.115
647.637
519.439
398.245
385.277
421.283
369.861
288.574
387.555
442.592
410.846
363.261
181.795
40.9481
21.7354
79.4625
357.599
414.432
678.325
699.964
642.183
425.491
223.63
199.349
216.206
201.297
266.481
383.014
454.628
339.853
183.916
85.1539
26.0039
20.6706
18.5915
161.475
485.325
755.664
714.813
631.745
342.814
176.438
172.626
169.992
193.055
261.542
424.945
381.019
138.947
78.6174
34.1773
23.5034
19.2064
17.6013
40.2927
402.641
1131.96
1103.9
1070.64
1050.58
1031.16
1005.22
940.331
852.424
676.1
398.825
264.906
239.307
268.653
355.225
520.478
699.609
838.02
919.956
972.83
1005.25
1002
970.029
936.051
1153.19
1121.26
1095.54
1092.7
1070.07
1039.61
970.486
659.058
193.765
140.423
140.698
142.185
143.98
147.006
163.746
276.206
515.2
791.158
927.899
907.831
932.051
973.172
939.219
1139.64
1071.97
1075.42
1103.62
1131.19
1052.59
415.959
190.939
157.277
142.033
140.163
140.882
142.854
145.085
147.901
170.698
381.763
563.424
597.473
536.291
623.509
916.752
974.787
1272.33
1129.77
1102.15
1133.13
1101.5
505.197
271.427
227.997
259.352
147.479
139.737
140.459
142.021
143.562
145.054
155.329
180.082
191.231
174.507
162.739
163.077
590.989
1033.7
1569.35
1329.58
1076.05
718.176
252.062
64.927
170.719
226.617
256.558
305.082
198.611
139.558
142.368
143.949
145.575
147.282
151.08
155.252
157.857
158.3
158.072
498.837
1118.33
1642.82
896.532
250.363
74.1564
11.0607
4.63396
9.65063
48.9476
193.771
242.624
284.958
337.109
317.551
164.727
166.156
170.464
202.037
246.921
218.708
176.51
174.332
749.723
1221.38
1373.79
155.701
34.394
9.96507
1.07064
-1.45334
-1.67721
-1.41589
-1.28265
3.98674
102.091
264.528
340.138
438.97
482.722
492.026
608.985
770.285
802.617
712.712
605.568
1027.06
1322.32
1076.43
29.6165
10.9794
2.30058
-0.901785
-1.75587
-1.69376
-1.50898
-1.3165
-1.208
-1.22717
-1.27823
-0.883075
44.9431
333.035
527.563
580.451
656.387
896.98
1114.79
1160.37
1154.08
1419.01
657.092
7.10658
2.04723
-0.737168
-1.59391
-1.85091
-1.77313
-1.57404
-1.39683
-1.29501
-1.24022
-1.20121
-1.21669
-1.27645
-1.47325
-1.45217
-0.884635
1.33917
11.3258
523.509
1072.45
1336.66
1393.79
718.688
1.19034
-0.427015
-1.57288
-1.76482
-1.84704
-1.74252
-1.60384
-1.49271
-1.42772
-1.40243
-1.39943
-1.40551
-1.48649
-1.59733
-1.65905
-1.62665
-1.27067
-0.0384595
3.93518
336.96
1317.65
1479.24
1131.68
-0.0712474
-0.786105
-1.63113
-1.62594
-1.73232
-1.65009
-1.589
-1.53781
-1.50511
-1.49518
-1.51068
-1.54947
-1.60502
-1.6561
-1.68721
-1.70212
-1.67946
-1.54223
-0.955748
2.33025
566.764
1466.62
1172.57
0.883997
-0.773523
-1.53654
-1.47515
-1.57112
-1.56293
-1.5787
-1.57902
-1.56901
-1.55975
-1.56617
-1.59694
-1.64588
-1.6972
-1.7377
-1.7695
-1.79141
-1.80478
-1.78825
-1.58689
-0.678312
504.995
560.161
5.95677
-1.25375
-1.5135
-1.36378
-1.50659
-1.55474
-1.62024
-1.64602
-1.63872
-1.61652
-1.60067
-1.60549
-1.63224
-1.67253
-1.71516
-1.74888
-1.76921
-1.76522
-1.66403
-1.23165
-0.580021
-0.306493
3.54098
4.41875
-1.09662
-1.45444
-1.36414
-1.54995
-1.67659
-1.77464
-1.78784
-1.74904
-1.689
-1.63591
-1.60385
-1.59682
-1.61181
-1.64117
-1.65696
-1.63201
-1.60158
-1.01063
0.765421
0.70629
-0.149111
-0.357505
2.52908
-0.949509
-1.41189
-1.49603
-1.80396
-2.02865
-2.13893
-2.08166
-1.95726
-1.81063
-1.68916
-1.60686
-1.5589
-1.53619
-1.53011
-1.54022
-1.51065
-1.27405
-0.889056
1.04895
2.23994
2.72361
-0.328786
0.0581341
-0.968614
-1.49248
-1.80309
-2.31334
-2.69505
-2.82559
-2.6657
-2.34561
-2.01513
-1.76776
-1.61564
-1.52358
-1.46539
-1.432
-1.41401
-1.39433
-1.30124
-0.776842
-0.923069
1.60158
2.79785
-0.119549
0.0158729
-1.1062
-1.71456
-2.26999
-3.03903
-3.64849
-3.78279
-3.34734
-2.87941
-2.27456
-1.84625
-1.62494
-1.47742
-1.38988
-1.33377
-1.29423
-1.25902
-1.21642
-1.14917
-0.847823
0.163871
2.88493
-0.0773364
0.263225
-1.11035
-1.95301
-2.75512
-3.76324
-4.55377
-4.25568
-3.63334
-2.87291
-2.39781
-1.88866
-1.57876
-1.40317
-1.29864
-1.22999
-1.17874
-1.13331
-1.08577
-1.03031
-0.961461
-0.846956
0.273869
-0.261871
-0.0346006
-0.641527
-2.02952
-3.03897
-4.15805
-5.01111
-4.57529
-3.88866
-2.71904
-2.20143
-1.79359
-1.46784
-1.29074
-1.1857
-1.11581
-1.06228
-1.01421
-0.964444
-0.908932
-0.845664
-0.769415
-0.678721
-0.533978
-0.622018
-0.673021
-1.67658
-2.85314
-3.87427
-4.59397
-4.08119
-3.323
-2.23738
-1.81933
-1.54319
-1.27723
-1.1354
-1.04968
-0.990424
-0.942777
-0.898167
-0.850996
-0.797575
-0.735711
-0.664833
-0.584489
-0.770633
-0.820244
-1.07527
-1.13258
-1.73306
-2.61922
-2.7826
-2.49209
-1.97159
-1.29855
-1.38869
-1.18799
-1.03297
-0.950767
-0.898107
-0.85794
-0.821985
-0.78513
-0.744002
-0.69623
-0.64042
-0.575998
-0.504021
-0.911716
-1.03558
-1.27997
-1.12543
-0.802678
-0.805274
-0.845571
-0.801041
-0.601027
-0.563031
-0.908743
-0.83443
-0.787355
-0.763505
-0.745172
-0.726177
-0.704088
-0.677129
-0.643986
-0.603748
-0.556042
-0.501198
-0.440656
-0.920331
-1.07988
-1.30686
-1.30796
-0.53536
0.0535838
0.258939
0.329988
0.268072
-0.37708
-0.530211
-0.556298
-0.579006
-0.595993
-0.60401
-0.602995
-0.593773
-0.576747
-0.552088
-0.519973
-0.480825
-0.435504
-0.38569
-0.816416
-0.911479
-1.06975
-1.05802
-0.713532
0.0761525
0.691817
0.572581
0.0526655
-0.195659
-0.29134
-0.364772
-0.419553
-0.458225
-0.482292
-0.493772
-0.494595
-0.486113
-0.46931
-0.444979
-0.413973
-0.377416
-0.337017
-0.672699
-0.714834
-0.769129
-0.721885
-0.525443
-0.22606
0.0499954
0.0766094
0.00873203
-0.0757742
-0.165077
-0.242823
-0.304833
-0.350893
-0.382214
-0.400774
-0.408331
-0.406376
-0.396137
-0.378642
-0.354908
-0.32614
-0.29391
-0.536429
-0.542338
-0.532447
-0.462352
-0.3216
-0.147219
-0.013198
0.0400439
0.0225
-0.0338304
-0.102789
-0.168968
-0.225428
-0.269995
-0.302558
-0.323888
-0.335202
-0.337715
-0.332515
-0.320602
-0.303011
-0.280855
-0.255456
-0.428971
-0.422058
-0.391735
-0.322543
-0.220767
-0.102751
-0.0202327
0.0175385
0.0114544
-0.0242118
-0.0734412
-0.124635
-0.171283
-0.210278
-0.240444
-0.261686
-0.274468
-0.279564
-0.277987
-0.270381
-0.257689
-0.240892
-0.22106
-0.345696
-0.335826
-0.304878
-0.24805
-0.172069
-0.0943173
-0.0360868
-0.00643052
-0.00579251
-0.0269031
-0.0602404
-0.097838
-0.134301
-0.166425
-0.19255
-0.212012
-0.224732
-0.230785
-0.231783
-0.227335
-0.218387
-0.205789
-0.190395
-0.27947
-0.269402
-0.243836
-0.198839
-0.144972
-0.0912681
-0.0492315
-0.0254509
-0.0210895
-0.0325963
-0.0543919
-0.0811128
-0.108606
-0.134039
-0.155675
-0.172599
-0.184495
-0.191575
-0.193141
-0.190685
-0.184488
-0.175112
-0.163202
-0.226295
-0.217042
-0.196739
-0.163948
-0.125288
-0.0873344
-0.0566584
-0.0377247
-0.0318926
-0.0375333
-0.0513921
-0.0699474
-0.0901662
-0.109741
-0.12708
-0.1412
-0.151596
-0.158089
-0.160522
-0.159504
-0.15531
-0.148374
-0.139178
-0.183751
-0.175993
-0.160488
-0.136748
-0.109107
-0.0818916
-0.0592639
-0.0443309
-0.0383111
-0.0405181
-0.0490791
-0.0617279
-0.0763187
-0.0910643
-0.104615
-0.116045
-0.124789
-0.130566
-0.133291
-0.133059
-0.130256
-0.125133
-0.118035
-0.149741
-0.143393
-0.131768
-0.114709
-0.0949232
-0.0752228
-0.0584296
-0.0467368
-0.0411419
-0.0414224
-0.0465198
-0.0549941
-0.0653582
-0.0762737
-0.0866516
-0.0956839
-0.102828
-0.107764
-0.110356
-0.110595
-0.108751
-0.104964
-0.0994792
-0.122324
-0.117179
-0.108591
-0.0963667
-0.0821438
-0.0677896
-0.0552786
-0.0461725
-0.0412548
-0.0405227
-0.0433945
-0.0489653
-0.0562187
-0.0641748
-0.0719853
-0.0789801
-0.0846752
-0.0887588
-0.0910691
-0.0915783
-0.0902923
-0.087471
-0.0832174
-0.0999512
-0.0958502
-0.0895644
-0.0808054
-0.0705316
-0.0600111
-0.0506598
-0.0435937
-0.0394121
-0.0382076
-0.0396747
-0.0432508
-0.0482478
-0.0539599
-0.0597427
-0.0650598
-0.0695003
-0.0727789
-0.0747248
-0.0752604
-0.0743403
-0.0722662
-0.0689618
-0.0814379
-0.0782289
-0.0736539
-0.0673771
-0.0599205
-0.0521728
-0.045167
-0.0396986
-0.036219
-0.0348537
-0.0354544
-0.0376747
-0.0410525
-0.045086
-0.0492951
-0.0532614
-0.0566483
-0.0592085
-0.0607821
-0.0612928
-0.060753
-0.0590515
-0.0564392
-0.065875
-0.0634056
-0.0600912
-0.0555998
-0.0501697
-0.0444492
-0.0391987
-0.0349804
-0.0321319
-0.0307804
-0.0308641
-0.0321726
-0.0343983
-0.0371887
-0.040192
-0.0430888
-0.0456104
-0.0475494
-0.0487625
-0.0491668
-0.0487305
-0.0474245
-0.0453822
-0.0525619
-0.050682
-0.0483008
-0.045107
-0.0411535
-0.0369364
-0.0330138
-0.0297782
-0.0274816
-0.0262382
-0.0260309
-0.0267352
-0.0281486
-0.0300268
-0.0321165
-0.034178
-0.0360022
-0.0374207
-0.0383109
-0.0385942
-0.0382272
-0.0371716
-0.0356235
-0.0409569
-0.0395272
-0.0378497
-0.0356139
-0.0327562
-0.029676
-0.0267742
-0.0243215
-0.0225056
-0.0214203
-0.0210708
-0.0213859
-0.0222348
-0.0234514
-0.0248567
-0.0262749
-0.0275478
-0.028544
-0.0291645
-0.0293458
-0.0290618
-0.0283382
-0.0270732
-0.0306197
-0.0295224
-0.0283958
-0.0268839
-0.0248617
-0.022665
-0.020569
-0.0187577
-0.0173682
-0.0164718
-0.016083
-0.0161634
-0.0166309
-0.0173762
-0.0182765
-0.0192075
-0.0200543
-0.0207191
-0.0211267
-0.0212275
-0.0209979
-0.0204364
-0.0195449
-0.0212392
-0.0203929
-0.0196993
-0.0187442
-0.0173865
-0.0159072
-0.0144756
-0.0132145
-0.012218
-0.0115347
-0.0111814
-0.0111394
-0.0113601
-0.0117761
-0.0123084
-0.0128749
-0.0133978
-0.0138102
-0.0140597
-0.0141114
-0.0139487
-0.0135666
-0.012953
-0.0123975
-0.0117784
-0.0114727
-0.0109729
-0.0101743
-0.00931069
-0.00846495
-0.00771086
-0.00710129
-0.006664
-0.00641297
-0.00634019
-0.00642101
-0.00661937
-0.00689142
-0.00719058
-0.00747197
-0.00769629
-0.00783265
-0.00786118
-0.00777629
-0.00758957
-0.00733998
-0.00443796
-0.00402675
-0.00387588
-0.00371787
-0.00345284
-0.00316412
-0.00285712
-0.00257607
-0.00233657
-0.00214809
-0.00201862
-0.00194708
-0.0019278
-0.00195072
-0.00200255
-0.00206868
-0.00213452
-0.00218676
-0.0022139
-0.00220672
-0.00215813
-0.00206327
-0.00193372
917.036
898.742
889.552
875.591
920.396
910.801
907.391
910.62
967.937
969.323
969.819
970.622
1021.67
1023.37
1027.89
1029.66
1101.39
1102.37
1111.85
1108.14
1208.17
1211.44
1185.38
767.288
1319.97
1275.71
579.847
95.27
1376.82
625.776
57.507
43.2433
1097.37
264.215
45.901
42.495
1254.26
385.505
46.6494
45.1437
1464.54
1325.73
357.619
66.1976
1396.39
1430.67
1374.02
1039.25
-0.0831166
39.9333
347.482
510.816
-0.0565323
-0.00163396
-0.0492365
-0.0548744
1.26989
1.04251
0.60206
0.219134
3.0191
3.11376
3.12864
3.04916
3.07958
2.58922
0.785615
2.86159
3.1329
0.940784
-0.020272
0.695319
-0.134614
1.00327
0.104532
-0.382513
-0.511844
-0.462837
-0.315437
-0.297269
-0.445996
-0.40818
-0.370081
-0.332088
-0.393262
-0.362595
-0.3325
-0.30327
-0.347108
-0.322315
-0.298183
-0.274874
-0.305656
-0.285533
-0.265939
-0.24694
-0.268689
-0.252416
-0.236433
-0.220797
-0.235296
-0.222191
-0.20917
-0.196281
-0.205
-0.194461
-0.183858
-0.173233
-0.177621
-0.169154
-0.160535
-0.151799
-0.153053
-0.146255
-0.139261
-0.132093
-0.131119
-0.125663
-0.119992
-0.11412
-0.111638
-0.107263
-0.102668
-0.0978628
-0.0944034
-0.090895
-0.087174
-0.0832479
-0.0791839
-0.0763718
-0.0733647
-0.0701659
-0.0657588
-0.0635058
-0.0610768
-0.0584755
-0.0538898
-0.0520864
-0.0501316
-0.0480272
-0.0433673
-0.0419374
-0.0403822
-0.0387023
-0.0340586
-0.032947
-0.0317396
-0.0304361
-0.0258825
-0.0250473
-0.024149
-0.0231867
-0.0187158
-0.0181395
-0.0175264
-0.016878
-0.012464
-0.0121198
-0.0117588
-0.0113859
-0.0069883
-0.00679368
-0.00662246
-0.00647886
-0.00187849
-0.0018648
-0.00192159
-0.00203772
843.432
750.128
493.387
171.938
161.723
169.103
171.654
221.861
367.392
374.219
129.017
82.9876
58.4618
34.7384
21.4326
16.4468
16.4454
17.4276
102.473
903.245
709.784
214.218
143.803
153.608
161.839
244.018
356.013
318.059
98.3051
89.7613
81.32
84.5123
71.8852
26.1495
14.1304
15.5521
15.3137
15.1433
945.98
471.422
147.252
146.766
155.607
170.633
385.045
339.535
249.191
90.3545
147.377
180.497
246.515
187.233
27.2844
14.6761
15.4965
14.91
14.6165
904.925
292.491
147.701
165.919
287.75
299.179
289.422
246.958
180.313
220.759
285.977
286.919
272.382
256.759
42.9943
15.7211
18.3082
16.4836
13.414
750.968
206.646
159.621
309.57
314.949
334.305
237.634
216.408
237.333
293.504
300.609
303.546
256.317
142.528
27.5051
13.1259
16.9136
16.8429
12.7637
231.878
46.9793
123.518
190.188
228.235
293.457
292.743
252.91
175.053
318.051
317.529
133.923
2.60996
2.48577
7.42846
8.13883
11.4018
14.6979
16.5892
42.5419
38.5975
37.9715
39.7045
45.1458
53.4091
58.5985
57.3583
49.2136
357.511
207.329
1.10624
1.11332
1.6761
14.1573
7.38805
5.41131
7.03808
5.0945
38.9585
36.7062
36.6424
38.4378
42.2519
70.2786
202.123
117.196
210.405
356.868
13.4347
0.428775
0.451339
0.694014
20.0059
19.6809
4.84121
3.14795
3.56086
39.8051
37.3981
36.7923
37.9551
59.2173
356.08
438.236
430.882
427.503
153.276
2.41587
0.323288
-0.282559
9.49945
17.0365
18.8169
8.27567
2.57331
3.06358
42.7769
40.1025
38.8133
55.8935
370.447
466.706
461.509
455.44
326.049
1.13733
0.881121
0.198598
0.188947
14.6326
14.544
18.3815
4.12908
1.87255
2.37081
68.0515
46.4958
109.334
376.198
487.048
485.44
332.497
171.82
0.0944764
0.499396
0.526177
0.096476
-0.629268
0.606551
7.80124
4.30462
0.177701
1.47855
1.90198
530.687
373.606
471.706
461.667
319.972
65.9283
-0.040377
-0.652394
-0.272707
0.0809912
0.163397
0.0609166
-0.229907
-0.685651
-1.03083
-0.376417
0.745579
1.4548
1.66501
567.052
533.047
327.382
146.83
-0.204625
-0.279752
-0.349828
-0.503502
-0.333545
-0.149206
-0.0145072
0.0513657
0.0307498
0.0020538
0.204685
0.634604
1.09826
1.41354
1.50199
0.00642425
-0.0102152
-0.0968921
-0.303492
-0.335427
-0.431437
-0.499022
-0.582706
-0.494258
-0.308023
-0.0985016
0.0686343
0.194575
0.331493
0.549893
0.839886
1.09076
1.25559
1.36521
0.00217495
-0.0240972
-0.0837474
-0.136802
-0.132921
-0.344849
-0.572869
-0.684251
-0.612162
-0.403558
-0.13956
0.0915937
0.277118
0.450654
0.637793
0.816032
0.963194
1.13937
1.99901
1.12316
-0.0395726
-0.0364588
0.0138791
-0.0170766
-0.225626
-0.5267
-0.678094
-0.622017
-0.405169
-0.12127
0.122376
0.31816
0.489703
0.647213
0.776869
0.85969
0.900852
1.92004
2.90699
0.0046022
-0.0379618
0.0034791
-0.00582296
-0.138042
-0.402229
-0.551829
-0.503408
-0.309442
-0.0572713
0.152564
0.322973
0.471606
0.601006
0.700525
0.761171
0.805715
0.776069
1.89251
0.141055
-0.0616206
-0.0106428
-0.0318304
-0.119186
-0.246627
-0.337655
-0.30459
-0.165345
0.0155516
0.173888
0.309194
0.431401
0.536825
0.615386
0.665379
1.00162
0.714097
-0.293096
-0.0270665
-0.0762558
-0.0466432
-0.0483078
-0.0928259
-0.149541
-0.178764
-0.143603
-0.0514148
0.0674235
0.18067
0.284887
0.382106
0.466861
0.530557
0.580424
0.962732
0.693677
-0.285713
-0.184058
-0.107886
-0.07633
-0.0693932
-0.0832946
-0.0993999
-0.0947667
-0.0563011
0.0115873
0.0947456
0.178351
0.258008
0.332257
0.398299
0.449836
0.678667
0.893283
0.640186
-0.271561
-0.196129
-0.136862
-0.0996636
-0.0814384
-0.0745785
-0.0671502
-0.0474387
-0.00906504
0.0456789
0.109393
0.173144
0.234141
0.29371
0.335588
0.385202
0.816916
0.839921
0.507304
-0.256002
-0.196794
-0.147079
-0.110465
-0.0854259
-0.0665479
-0.046827
-0.0199062
0.0177252
0.0646406
0.116297
0.166385
0.231345
0.276212
0.287165
0.343486
0.769007
0.698993
0.398831
-0.237169
-0.18894
-0.146525
-0.111636
-0.0835814
-0.0591286
-0.0340323
-0.0045439
0.0314395
0.0728196
0.116543
0.159791
0.223415
0.251889
0.251975
0.306934
0.409344
0.335724
0.351537
-0.216024
-0.1757
-0.139083
-0.106795
-0.0785336
-0.0524372
-0.0257569
0.00373723
0.0371472
0.0736607
0.111405
0.154025
0.210095
0.23668
0.233093
0.259303
0.280868
0.298036
0.31131
-0.195078
-0.160724
-0.128731
-0.0993624
-0.0723282
-0.0465176
-0.0202721
0.00765172
0.037738
0.0698183
0.102242
0.14375
0.196742
0.222427
0.218624
0.237932
0.252959
0.264028
0.275061
-0.174843
-0.145531
-0.117513
-0.0910005
-0.065799
-0.0412956
-0.0165904
0.00894144
0.0356317
0.06318
0.0912224
0.125896
0.181628
0.194916
0.199713
0.21404
0.225562
0.233898
0.242468
-0.155368
-0.130373
-0.105905
-0.0822037
-0.0592045
-0.0366043
-0.0139656
0.00895809
0.0325713
0.0562366
0.0808637
0.107603
0.139153
0.161497
0.179035
0.189574
0.199593
0.208313
0.213318
-0.136953
-0.115687
-0.0944267
-0.0734459
-0.0527787
-0.0323027
-0.0118341
0.00868011
0.0295373
0.0505067
0.0723392
0.0956959
0.119126
0.140247
0.157965
0.167281
0.176208
0.184499
0.191044
-0.11978
-0.101755
-0.0833897
-0.0649666
-0.0465857
-0.0282279
-0.00982419
0.00862302
0.0271201
0.0459604
0.0655413
0.0857905
0.105493
0.122949
0.137273
0.147162
0.155241
0.161196
0.171048
-0.103928
-0.0887022
-0.0729232
-0.0568648
-0.0406543
-0.0243166
-0.00782212
0.0088254
0.025589
0.0425699
0.0598862
0.0770658
0.0932068
0.107517
0.119461
0.12882
0.136141
0.140681
0.143286
-0.0894452
-0.0766355
-0.0631579
-0.0492573
-0.0350609
-0.0206113
-0.00590084
0.0090562
0.0241872
0.0394016
0.0544703
0.0687961
0.0819788
0.0937268
0.103851
0.112073
0.118386
0.122195
0.124143
-0.0763136
-0.065586
-0.0541426
-0.0421904
-0.0298479
-0.0171705
-0.0041793
0.00907124
0.0224574
0.0357841
0.0486649
0.0605463
0.0714158
0.0810658
0.0896117
0.0965511
0.101956
0.105239
0.106738
-0.0644716
-0.0555326
-0.0458777
-0.0356784
-0.0250475
-0.0140564
-0.00276587
0.00871529
0.020241
0.0316083
0.0424159
0.0522682
0.0612653
0.0692653
0.0763458
0.0821572
0.0866003
0.0895808
0.0907634
-0.0538167
-0.0464156
-0.0383361
-0.0297272
-0.0207043
-0.0113527
-0.00177069
0.0078999
0.0175471
0.0270087
0.0359326
0.0440606
0.0515022
0.0580804
0.0638976
0.0687513
0.0724458
0.0749817
0.0759794
-0.0442419
-0.0381795
-0.0315143
-0.024387
-0.0169151
-0.00917866
-0.00129337
0.00661069
0.0144854
0.0221962
0.0294468
0.0360482
0.0420703
0.0474519
0.0522412
0.0561774
0.0592123
0.0612701
0.0621507
-0.0356755
-0.0308114
-0.0254573
-0.019748
-0.0137839
-0.00761431
-0.00134869
0.00492303
0.0111904
0.0173176
0.0230588
0.0282917
0.0330784
0.0373605
0.0411563
0.0442622
0.0466942
0.0483039
0.0490576
-0.0280913
-0.0243319
-0.0202199
-0.0158662
-0.0113332
-0.00663378
-0.00185961
0.00293109
0.00772432
0.0123833
0.0167246
0.0206941
0.0243296
0.0275902
0.0304744
0.0328311
0.034702
0.0359104
0.0365229
-0.0214643
-0.0187348
-0.0157922
-0.0127016
-0.00948657
-0.00613975
-0.00273723
0.000675658
0.00407221
0.00734171
0.0103754
0.013166
0.0157294
0.0180417
0.0200862
0.0217615
0.0231074
0.023959
0.0244294
-0.0157262
-0.0139472
-0.0120778
-0.0101382
-0.00812875
-0.00603939
-0.00392857
-0.00182834
0.000238079
0.00220812
0.00403491
0.00572978
0.00729843
0.00872907
0.00999924
0.01105
0.0119092
0.0124404
0.0127824
-0.0107359
-0.00981385
-0.0089259
-0.00805532
-0.00718257
-0.00629364
-0.00541854
-0.00456822
-0.00374812
-0.00297655
-0.00226296
-0.00158957
-0.000949235
-0.000344502
0.000208255
0.000681398
0.00109166
0.00133435
0.0015575
-0.00627821
-0.00617614
-0.00624651
-0.0064201
-0.00665951
-0.0069434
-0.00726815
-0.00762317
-0.00799423
-0.00836791
-0.00872519
-0.00903979
-0.00929741
-0.00949231
-0.0096292
-0.00971437
-0.00973287
-0.0097561
-0.00961741
-0.00233077
-0.00305091
-0.00405036
-0.00524846
-0.00658882
-0.00804382
-0.00957758
-0.011158
-0.0127516
-0.0143109
-0.0157823
-0.0171216
-0.0183092
-0.0193325
-0.0201875
-0.0208656
-0.021334
-0.0216391
-0.0214386
)
;

boundaryField
{
    leftWall
    {
        type            fixedFluxPressure;
        gradient        uniform 0;
        value           nonuniform List<scalar> 
50
(
1057.02
1059.64
1064.17
1069.52
1075.57
1083.34
1093.87
1106.95
1131.96
1153.19
1139.64
1272.33
1569.35
1642.82
1373.79
1076.43
657.092
718.688
1131.68
1172.57
560.161
3.54098
-0.357505
-0.328786
-0.119549
-0.0773364
-0.261871
-0.533978
-0.770633
-0.911716
-0.920331
-0.816416
-0.672699
-0.536429
-0.428971
-0.345696
-0.27947
-0.226295
-0.183751
-0.149741
-0.122324
-0.0999512
-0.0814379
-0.065875
-0.0525619
-0.0409569
-0.0306197
-0.0212392
-0.0123975
-0.00443796
)
;
    }
    rightWall
    {
        type            fixedFluxPressure;
        gradient        uniform 0;
        value           nonuniform List<scalar> 
50
(
291.779
279.907
234.016
164.457
198.299
414.432
485.325
402.641
102.473
15.1433
14.6165
13.414
12.7637
16.5892
5.0945
3.56086
3.06358
2.37081
1.90198
1.66501
1.50199
1.36521
1.99901
1.92004
0.776069
0.714097
0.693677
0.640186
0.507304
0.398831
0.351537
0.31131
0.275061
0.242468
0.213318
0.191044
0.171048
0.143286
0.124143
0.106738
0.0907634
0.0759794
0.0621507
0.0490576
0.0365229
0.0244294
0.0127824
0.0015575
-0.00961741
-0.0214386
)
;
    }
    lowerWall
    {
        type            fixedFluxPressure;
        gradient        uniform 0;
        value           nonuniform List<scalar> 
62
(
1057.02
1045.97
1027.11
1003.72
975.582
942.401
903.738
861.654
820.143
783.705
757.677
745.539
747.56
761.872
784.263
808.512
834.472
866.788
901.193
934.661
960.323
975.362
977.643
977.643
976.108
973.911
971.607
969.371
966.433
962.24
955.06
917.036
898.742
889.552
875.591
677.792
678.952
679.331
686.925
699.482
641.816
678.325
755.664
677.792
672.219
647.075
573.97
490.4
455.245
462.486
495.031
481.715
424.892
424.371
410.643
377.696
347.902
335.576
333.426
321.863
298.483
291.779
)
;
    }
    atmosphere
    {
        type            totalPressure;
        rho             rho;
        psi             none;
        gamma           1;
        p0              uniform 0;
        value           nonuniform List<scalar> 
46
(
0
0
0
0
0
0
0
0
0
0
0
0
0
0
0
0
0
0
0
0
0
0
0
0
-2.11222e-05
-0.000102642
-0.000259077
-0.000719863
-0.00177366
-0.0031944
-0.00490001
-0.00678782
-0.00884866
-0.0110224
-0.0132673
-0.0155366
-0.0177553
-0.0198454
-0.0217482
-0.0234479
-0.0249286
-0.0261863
-0.0272069
-0.0279366
-0.0284285
-0.0280308
)
;
    }
    defaultFaces
    {
        type            empty;
    }
}


// ************************************************************************* //
