/*--------------------------------*- C++ -*----------------------------------*\
| =========                 |                                                 |
| \\      /  F ield         | OpenFOAM: The Open Source CFD Toolbox           |
|  \\    /   O peration     | Version:  5.x                                   |
|   \\  /    A nd           | Web:      www.OpenFOAM.org                      |
|    \\/     M anipulation  |                                                 |
\*---------------------------------------------------------------------------*/
FoamFile
{
    version     2.0;
    format      ascii;
    class       surfaceScalarField;
    location    "0.95";
    object      phi;
}
// * * * * * * * * * * * * * * * * * * * * * * * * * * * * * * * * * * * * * //

dimensions      [0 3 -1 0 0 0 0];

internalField   nonuniform List<scalar> 
4432
(
1.83279e-06
-1.83279e-06
3.89311e-07
1.44348e-06
-4.11402e-06
4.50334e-06
-8.61849e-06
4.50447e-06
-9.33322e-06
7.14722e-07
-6.89805e-06
-2.43516e-06
-4.29881e-06
-2.59925e-06
-2.66696e-06
-1.63185e-06
-1.9002e-06
-7.66748e-07
-2.14644e-06
2.46233e-07
-3.53374e-06
1.3873e-06
-5.76088e-06
2.22714e-06
-8.09138e-06
2.3305e-06
-9.6594e-06
1.56802e-06
-1.14816e-05
1.82224e-06
-1.73445e-05
5.86281e-06
-2.7207e-05
9.86257e-06
-3.2428e-05
5.22094e-06
-2.99069e-05
-2.52109e-06
-2.30122e-05
-6.89471e-06
-1.52232e-05
-7.78896e-06
-6.67197e-06
-8.55125e-06
-6.67197e-06
-3.61196e-06
1.77919e-06
-8.38778e-06
6.2193e-06
-1.26594e-05
8.77497e-06
-1.36676e-05
5.51264e-06
-1.132e-05
-1.63289e-06
-7.77701e-06
-5.9781e-06
-4.83438e-06
-5.54187e-06
-2.89996e-06
-3.56629e-06
-1.88777e-06
-1.77893e-06
-1.75942e-06
1.17877e-07
-2.6307e-06
2.25857e-06
-4.51944e-06
4.11589e-06
-7.49133e-06
5.3024e-06
-1.18731e-05
5.94979e-06
-1.79757e-05
7.92489e-06
-2.53314e-05
1.32184e-05
-2.95096e-05
1.40409e-05
-2.78996e-05
3.61085e-06
-2.22775e-05
-8.14316e-06
-1.66165e-05
-1.25557e-05
-1.10085e-05
-1.3397e-05
-4.75819e-06
-1.48015e-05
-1.14302e-05
-6.00093e-06
7.78012e-06
-1.13936e-05
1.16119e-05
-1.44852e-05
1.18666e-05
-1.46606e-05
5.68814e-06
-1.24155e-05
-3.878e-06
-8.94257e-06
-9.45105e-06
-5.73859e-06
-8.74585e-06
-3.43228e-06
-5.87262e-06
-1.94984e-06
-3.26135e-06
-1.40968e-06
-4.22288e-07
-1.87494e-06
2.72384e-06
-3.26089e-06
5.50185e-06
-5.60538e-06
7.64689e-06
-9.42569e-06
9.77011e-06
-1.49534e-05
1.34526e-05
-1.98699e-05
1.81349e-05
-2.06149e-05
1.47859e-05
-1.76211e-05
6.17051e-07
-1.36423e-05
-1.2122e-05
-1.03964e-05
-1.58016e-05
-6.99e-06
-1.68034e-05
-3.01672e-06
-1.87748e-05
-1.44469e-05
-5.80416e-06
1.35843e-05
-1.0657e-05
1.64647e-05
-1.346e-05
1.46696e-05
-1.40748e-05
6.303e-06
-1.23833e-05
-5.56949e-06
-9.36018e-06
-1.24742e-05
-6.61839e-06
-1.14876e-05
-4.2994e-06
-8.19161e-06
-2.53746e-06
-5.02328e-06
-1.84559e-06
-1.11415e-06
-2.32086e-06
3.19912e-06
-3.70289e-06
6.88388e-06
-5.69517e-06
9.63918e-06
-8.09866e-06
1.21736e-05
-1.05367e-05
1.58906e-05
-1.17144e-05
1.93126e-05
-1.11134e-05
1.4185e-05
-1.03059e-05
-1.90399e-07
-9.9873e-06
-1.24406e-05
-8.59881e-06
-1.71901e-05
-6.00493e-06
-1.93973e-05
-2.59275e-06
-2.2187e-05
-1.70396e-05
-4.3118e-06
1.78961e-05
-8.25704e-06
2.041e-05
-1.08053e-05
1.72178e-05
-1.1621e-05
7.1187e-06
-1.0584e-05
-6.60646e-06
-8.72151e-06
-1.43367e-05
-7.08172e-06
-1.31274e-05
-5.03951e-06
-1.02338e-05
-2.85434e-06
-7.20845e-06
-1.69445e-06
-2.27404e-06
-1.84801e-06
3.35268e-06
-3.24051e-06
8.27638e-06
-5.39023e-06
1.17889e-05
-7.66399e-06
1.44474e-05
-9.00349e-06
1.72301e-05
-8.59259e-06
1.89017e-05
-8.23332e-06
1.38257e-05
-9.54106e-06
1.11733e-06
-1.11468e-05
-1.08348e-05
-9.84555e-06
-1.84914e-05
-6.36789e-06
-2.2875e-05
-2.35243e-06
-2.62025e-05
-1.93921e-05
-2.20216e-06
2.00983e-05
-4.94503e-06
2.31529e-05
-6.94594e-06
1.92187e-05
-7.73813e-06
7.9109e-06
-7.48326e-06
-6.86134e-06
-7.37503e-06
-1.44449e-05
-7.25527e-06
-1.32472e-05
-5.23117e-06
-1.22579e-05
-1.92627e-06
-1.05133e-05
1.04235e-07
-4.30454e-06
5.70644e-07
2.88627e-06
-6.99128e-07
9.54615e-06
-3.13782e-06
1.42276e-05
-6.03677e-06
1.73463e-05
-8.39711e-06
1.95905e-05
-9.17505e-06
1.96796e-05
-9.93317e-06
1.45838e-05
-1.19201e-05
3.10427e-06
-1.28373e-05
-9.91767e-06
-1.03753e-05
-2.09534e-05
-5.68113e-06
-2.75691e-05
-1.62069e-06
-3.02629e-05
-2.10128e-05
8.57065e-08
2.00125e-05
-1.21903e-06
2.44576e-05
-2.7227e-06
2.07224e-05
-3.05603e-06
8.24424e-06
-3.19328e-06
-6.72408e-06
-5.54713e-06
-1.20911e-05
-7.04245e-06
-1.17518e-05
-4.05405e-06
-1.52463e-05
2.47054e-07
-1.48145e-05
2.27824e-06
-6.33572e-06
2.51591e-06
2.64861e-06
1.20273e-06
1.08593e-05
-8.56197e-07
1.62865e-05
-3.88291e-06
2.0373e-05
-7.1637e-06
2.28713e-05
-9.56948e-06
2.20854e-05
-1.16181e-05
1.66324e-05
-1.36177e-05
5.10391e-06
-1.38004e-05
-9.73502e-06
-1.03635e-05
-2.43903e-05
-4.83128e-06
-3.31013e-05
-1.18815e-06
-3.3906e-05
-2.22009e-05
2.97196e-06
1.70406e-05
2.66545e-06
2.47641e-05
2.09286e-06
2.1295e-05
3.66128e-06
6.67582e-06
2.72735e-06
-5.79014e-06
-3.40246e-06
-5.96129e-06
-6.14508e-06
-9.00922e-06
-2.75775e-06
-1.86337e-05
1.63699e-07
-1.77359e-05
7.21208e-07
-6.89322e-06
7.40723e-07
2.62909e-06
-4.17801e-07
1.20179e-05
-1.97958e-06
1.78483e-05
-4.32564e-06
2.27191e-05
-7.72115e-06
2.62668e-05
-1.07816e-05
2.51459e-05
-1.35591e-05
1.94099e-05
-1.59272e-05
7.47198e-06
-1.60581e-05
-9.60405e-06
-1.22858e-05
-2.81627e-05
-6.03265e-06
-3.93545e-05
-1.57106e-06
-3.83676e-05
-2.3772e-05
-2.38385e-06
2.38385e-06
3.62915e-06
-6.013e-06
2.61989e-05
-2.25697e-05
4.24968e-05
-1.62979e-05
4.67572e-05
-4.26043e-06
4.09866e-05
5.77066e-06
2.99219e-05
1.10646e-05
2.02328e-05
9.6892e-06
6.14825e-06
1.40845e-05
-7.36117e-06
1.35094e-05
-1.76699e-05
1.03087e-05
-2.80065e-05
1.03366e-05
-3.48768e-05
6.8703e-06
-3.32539e-05
-1.62294e-06
-2.37906e-05
-9.4633e-06
-1.03158e-05
-1.34747e-05
4.04348e-06
-1.43593e-05
9.74131e-06
-5.69782e-06
9.74131e-06
-5.19763e-06
7.58148e-06
9.27755e-06
-2.04882e-05
3.37523e-05
-4.70445e-05
4.81875e-05
-3.07331e-05
5.27797e-05
-8.85269e-06
5.04652e-05
8.08524e-06
4.23473e-05
1.91825e-05
2.81117e-05
2.39248e-05
8.83176e-06
3.33645e-05
-3.55609e-06
2.58973e-05
-1.35319e-05
2.02845e-05
-2.15297e-05
1.83344e-05
-2.35059e-05
8.84644e-06
-1.78609e-05
-7.26794e-06
-1.06865e-05
-1.66376e-05
-1.35596e-06
-2.28053e-05
1.12629e-05
-2.69782e-05
1.90769e-05
-1.35118e-05
2.88182e-05
-1.20841e-06
8.78989e-06
1.42771e-05
-3.59736e-05
2.71039e-05
-5.98713e-05
3.42276e-05
-3.78567e-05
3.91815e-05
-1.38066e-05
4.10513e-05
6.21545e-06
3.55354e-05
2.46984e-05
1.8657e-05
4.08033e-05
-6.71098e-06
5.87324e-05
-5.71704e-06
2.49033e-05
-5.50805e-06
2.00755e-05
-1.48866e-05
2.77129e-05
-1.96413e-05
1.36012e-05
-1.97132e-05
-7.196e-06
-2.14431e-05
-1.49077e-05
-1.63706e-05
-2.78778e-05
-2.02515e-06
-4.13237e-05
9.15039e-06
-2.46873e-05
3.79686e-05
1.35774e-06
7.43215e-06
1.23425e-05
-4.69584e-05
1.19458e-05
-5.94747e-05
1.18262e-05
-3.77371e-05
1.76378e-05
-1.96182e-05
2.26903e-05
1.16297e-06
1.93189e-05
2.80697e-05
2.83235e-06
5.72898e-05
-1.6014e-05
7.75788e-05
-9.59098e-06
1.84803e-05
-7.69627e-06
1.81808e-05
-1.18181e-05
3.18347e-05
-2.0904e-05
2.26871e-05
-3.38704e-05
5.7704e-06
-4.14067e-05
-7.3715e-06
-3.78377e-05
-3.14467e-05
-2.49204e-05
-5.4241e-05
-1.58965e-05
-3.37112e-05
2.20722e-05
7.97257e-07
6.6349e-06
6.19714e-06
-5.23582e-05
-2.33571e-06
-5.09418e-05
-9.50882e-06
-3.0564e-05
-8.59435e-06
-2.05326e-05
-2.60922e-06
-4.82214e-06
-1.78828e-06
2.72488e-05
-1.53559e-05
7.08575e-05
-1.82344e-05
8.04573e-05
-1.44779e-05
1.47238e-05
-2.03594e-05
2.40622e-05
-3.23641e-05
4.38394e-05
-4.69153e-05
3.72383e-05
-5.30322e-05
1.18873e-05
-5.36538e-05
-6.74992e-06
-4.93902e-05
-3.57103e-05
-3.60158e-05
-6.76154e-05
-2.41619e-05
-4.5565e-05
-2.08976e-06
1.135e-06
5.4999e-06
3.77051e-06
-5.49937e-05
-3.59088e-06
-4.35805e-05
-1.4283e-05
-1.98719e-05
-2.19409e-05
-1.28747e-05
-1.95874e-05
-7.17562e-06
-2.08722e-05
2.85336e-05
-3.35535e-05
8.35387e-05
-3.21938e-05
7.90976e-05
-3.7913e-05
2.04431e-05
-4.67054e-05
3.28546e-05
-5.21733e-05
4.93074e-05
-5.0158e-05
3.52229e-05
-2.59001e-05
-1.23705e-05
-1.3709e-05
-1.8941e-05
-3.72843e-05
-1.2135e-05
-3.75404e-05
-6.73593e-05
-1.18258e-05
-7.12795e-05
-1.39156e-05
2.86052e-06
2.63938e-06
6.50748e-06
-5.86407e-05
8.55584e-06
-4.56288e-05
9.80116e-06
-2.11172e-05
-1.04823e-05
7.40879e-06
-2.88846e-05
1.12267e-05
-4.31046e-05
4.27536e-05
-5.13809e-05
9.18151e-05
-4.69107e-05
7.46274e-05
-5.66355e-05
3.01678e-05
-5.66093e-05
3.28285e-05
-4.47109e-05
3.74089e-05
-8.31278e-06
-1.17517e-06
7.05724e-05
-9.12557e-05
9.6874e-05
-4.52426e-05
3.63371e-05
4.8402e-05
-3.19698e-05
9.47493e-07
-1.39123e-05
-8.93371e-05
-2.78279e-05
4.90302e-06
-2.26364e-06
9.24097e-06
-6.29786e-05
1.50181e-05
-5.1406e-05
1.9962e-05
-2.60611e-05
6.51767e-08
2.73057e-05
-3.35706e-05
4.48625e-05
-5.69114e-05
6.60945e-05
-6.07332e-05
9.56369e-05
-5.72952e-05
7.11894e-05
-5.74423e-05
3.03149e-05
-3.17068e-05
7.09297e-06
1.06822e-05
-4.98009e-06
8.00929e-05
-7.05858e-05
0.00014952
-0.000160683
0.000166757
-6.24796e-05
0.000109112
0.000106047
1.68202e-06
0.000108377
-2.43421e-05
-6.3313e-05
-5.217e-05
1.88072e-05
-1.7666e-06
2.16968e-05
2.18745e-05
2.10169e-05
2.19749e-05
1.65593e-05
1.11334e-05
9.14269e-07
9.85492e-06
-1.56637e-05
1.06167e-05
-2.08821e-05
-3.79088e-06
-1.72159e-05
-2.22998e-05
-7.33487e-06
-2.7617e-05
2.64844e-06
-1.68766e-05
5.52184e-06
-2.44323e-07
-5.97915e-07
1.81376e-05
-6.21167e-06
2.34621e-05
-9.64659e-06
2.6154e-05
-1.53525e-05
3.19727e-05
-2.4117e-05
3.39104e-05
-3.52678e-05
3.05607e-05
-4.58958e-05
1.80999e-05
-5.26712e-05
-2.8286e-06
-4.88358e-05
-3.19981e-05
-3.13493e-05
-5.6841e-05
-1.08721e-05
-5.88448e-05
-3.65174e-05
1.87332e-06
3.3229e-05
-3.49956e-05
4.11021e-05
1.40015e-05
3.34916e-05
2.95854e-05
1.60358e-05
2.85892e-05
-4.77904e-06
3.06698e-05
-2.65189e-05
3.23565e-05
-5.21956e-05
2.18858e-05
-3.90402e-05
-3.54552e-05
2.07615e-05
-8.74187e-05
4.47959e-05
-4.0911e-05
3.29212e-05
1.16302e-05
8.9086e-06
4.215e-05
-1.96268e-05
5.19974e-05
-4.70469e-05
5.35742e-05
-6.62117e-05
5.11374e-05
-7.34977e-05
4.11964e-05
-8.26707e-05
3.97336e-05
-9.51018e-05
3.05311e-05
-9.99164e-05
1.98591e-06
-9.2933e-05
-3.89815e-05
-6.92357e-05
-8.05383e-05
-3.90826e-05
-8.89979e-05
-5.15579e-05
-2.40421e-05
1.93395e-05
-5.43352e-05
2.25055e-05
1.08355e-05
5.26116e-06
4.68297e-05
-2.92201e-05
6.30704e-05
-7.10787e-05
7.25284e-05
-0.000106178
6.74562e-05
-9.82357e-05
1.39432e-05
-0.000111806
-2.18853e-05
-0.000157966
-4.12586e-05
-0.000200992
2.11472e-06
-0.000221953
3.25919e-05
-0.000219412
3.96087e-05
-0.00022141
5.39958e-05
-0.000237472
6.9636e-05
-0.000248556
6.22215e-05
-0.000241838
3.44774e-05
-0.000211534
9.43038e-06
-0.000182236
1.2333e-06
-0.00014959
-3.06606e-05
-0.000117638
-7.09335e-05
-9.45378e-05
-0.000103638
-6.91031e-05
-0.000114433
-7.05723e-05
-5.00887e-05
-3.12749e-05
-2.30602e-05
-6.16912e-05
4.12518e-05
-0.000102954
8.80923e-05
-0.000168095
0.000128212
-0.000252563
0.000156996
-0.00033924
0.000154133
-0.000371641
4.63443e-05
-0.000373282
-2.02442e-05
-0.000375101
-3.94394e-05
-0.000354521
-1.84662e-05
-0.00033217
1.02408e-05
-0.000323672
3.11117e-05
-0.000306885
3.7208e-05
-0.000287242
4.99936e-05
-0.000260804
3.57827e-05
-0.000221382
-4.94404e-06
-0.000176297
-3.5655e-05
-0.00011422
-6.08436e-05
-5.8487e-05
-8.63934e-05
-4.75159e-05
-8.19046e-05
-7.21224e-05
-7.90319e-05
-7.20765e-05
-0.000114478
-8.08432e-05
-6.18056e-05
-8.58714e-05
6.28111e-05
-0.000157616
0.000112997
-0.000220647
0.000151123
-0.000289488
0.000197053
-0.000368252
0.00023576
-0.000396509
0.000182391
-0.00040126
5.10952e-05
-0.00039948
-2.2024e-05
-0.00038723
-5.16898e-05
-0.000358641
-4.70555e-05
-0.000319839
-2.85602e-05
-0.000287464
-1.26398e-06
-0.000255446
5.1903e-06
-0.00022623
2.07775e-05
-0.000188064
-2.38388e-06
-0.0001505
-4.25078e-05
-0.000106644
-7.95108e-05
-6.38593e-05
-0.000103628
-4.66348e-05
-0.000103618
-4.38159e-05
-8.47234e-05
-5.5187e-05
-6.76607e-05
-7.07782e-05
-9.88873e-05
-6.88342e-05
-8.27873e-05
-9.11749e-05
0.000153986
-0.00019093
0.000212751
-0.000285922
0.000246115
-0.000351016
0.000262147
-0.000383062
0.000267805
-0.000366347
0.000165676
-0.000350031
3.47789e-05
-0.000345216
-2.68385e-05
-0.000345685
-5.12215e-05
-0.000348688
-4.40518e-05
-0.000331391
-4.5858e-05
-0.000288977
-4.36779e-05
-0.000252839
-3.09477e-05
-0.000215664
-1.63972e-05
-0.000177879
-4.01687e-05
-0.00015339
-6.69969e-05
-0.000138396
-9.45046e-05
-0.000125348
-0.000116677
-0.000108219
-0.000120747
-7.96599e-05
-0.000113282
-6.18281e-05
-8.54925e-05
-8.30198e-05
-7.76955e-05
-4.56853e-05
-0.000106169
-5.19457e-05
0.000205932
-0.000171399
0.000332204
-0.000284983
0.0003597
-0.000330253
0.000307417
-0.000316927
0.00025448
-0.000272608
0.000121357
-0.000245606
7.77597e-06
-0.000245458
-2.69864e-05
-0.000280437
-1.62421e-05
-0.000306867
-1.7622e-05
-0.000307656
-4.50691e-05
-0.000303769
-4.75647e-05
-0.000296799
-3.7918e-05
-0.000264161
-4.90349e-05
-0.000221852
-8.24781e-05
-0.00019303
-9.58186e-05
-0.000171997
-0.000115538
-0.000154476
-0.000134198
-0.000134867
-0.000140355
-0.000117663
-0.000130486
-9.90626e-05
-0.000104093
-0.000104775
-7.19827e-05
-2.53968e-05
-0.000125064
-3.56366e-05
0.000241568
-0.000136921
0.000433489
-0.000212756
0.000435535
-0.000228954
0.000323615
-0.000201641
0.000227167
-0.000179945
9.96611e-05
-0.000184203
1.20339e-05
-0.000201577
-9.61244e-06
-0.000212092
-5.72736e-06
-0.000222895
-6.81919e-06
-0.000249413
-1.85508e-05
-0.000275512
-2.14658e-05
-0.000285921
-2.75088e-05
-0.000283072
-5.18839e-05
-0.000258418
-0.000107132
-0.000236256
-0.000117981
-0.000214609
-0.000137184
-0.000192267
-0.00015654
-0.000166993
-0.000165629
-0.000144221
-0.000153258
-0.000127191
-0.000121123
-0.000123039
-7.61351e-05
-1.71737e-05
-0.000131262
-2.75146e-05
0.000269083
-0.000106298
0.000512272
-0.000136318
0.000465556
-0.000132833
0.000320129
-0.000104467
0.000198801
-9.76107e-05
9.28046e-05
-0.000116035
3.0458e-05
-0.000138676
1.30288e-05
-0.000156973
1.25691e-05
-0.000177622
1.38307e-05
-0.000202208
6.03509e-06
-0.000220235
-3.43978e-06
-0.000233507
-1.42366e-05
-0.000236748
-4.86423e-05
-0.000257491
-8.63891e-05
-0.00025952
-0.000115952
-0.000246934
-0.000149771
-0.000225533
-0.000177941
-0.000199949
-0.000191213
-0.000168769
-0.000184438
-0.000148868
-0.000141024
-0.000136707
-8.82957e-05
-2.14462e-05
-0.000132435
-2.38513e-05
0.000292934
-7.00477e-05
0.000558468
-7.152e-05
0.000467028
-6.57182e-05
0.000314327
-4.16784e-05
0.000174761
-4.32557e-05
9.43818e-05
-5.61042e-05
4.33064e-05
-7.01314e-05
2.70562e-05
-8.37077e-05
2.61456e-05
-0.000100123
3.02456e-05
-0.000125081
3.09935e-05
-0.000151753
2.32316e-05
-0.000167788
1.79925e-06
-0.000183957
-3.2474e-05
-0.000204724
-6.56224e-05
-0.000220569
-0.000100107
-0.000230196
-0.000140144
-0.000224808
-0.000183329
-0.000205593
-0.000210428
-0.000189478
-0.000200552
-0.000165942
-0.00016456
-0.000147409
-0.000106829
-3.72703e-05
-0.000131585
-1.76092e-05
0.000310543
-2.71498e-05
0.000568009
-2.05532e-05
0.000460432
-5.97889e-06
0.000299753
-3.58277e-07
0.00016914
-5.6107e-06
9.96338e-05
-2.28736e-05
6.05695e-05
-3.95653e-05
4.3748e-05
-5.10461e-05
3.76262e-05
-5.71457e-05
3.63449e-05
-6.26618e-05
3.65097e-05
-7.36707e-05
3.42408e-05
-9.33751e-05
2.15037e-05
-0.000120636
-5.21285e-06
-0.000148285
-3.79736e-05
-0.000177588
-7.08041e-05
-0.000208525
-0.000109207
-0.000231958
-0.000159897
-0.00023577
-0.000206616
-0.000217814
-0.000218508
-0.000195347
-0.000187027
-0.000159492
-0.000142685
-6.95073e-05
-0.000127255
-5.57627e-07
0.000311101
1.04779e-05
0.000556973
9.91689e-06
0.000460993
2.41786e-05
0.000285491
1.7964e-05
0.000175355
-3.66978e-06
0.000121268
-2.91441e-05
8.60438e-05
-4.70525e-05
6.16564e-05
-5.37849e-05
4.43584e-05
-5.10719e-05
3.36318e-05
-4.2879e-05
2.83171e-05
-3.48458e-05
2.62079e-05
-3.61502e-05
2.2808e-05
-5.4534e-05
1.31709e-05
-8.45164e-05
-7.99115e-06
-0.00011613
-3.91902e-05
-0.000152843
-7.24943e-05
-0.000196126
-0.000116613
-0.000232831
-0.000169912
-0.000244683
-0.000206655
-0.000224855
-0.000206855
-0.000198271
-0.000169268
-0.00012821
-0.000139568
2.41236e-06
0.000308689
-6.30298e-07
0.000560016
1.73768e-05
0.000442986
2.61652e-05
0.000276703
-2.66542e-07
0.000201786
-3.48228e-05
0.000155824
-6.38276e-05
0.000115049
-7.66503e-05
7.44789e-05
-7.4477e-05
4.21852e-05
-6.29729e-05
2.21278e-05
-4.65766e-05
1.19209e-05
-2.8211e-05
7.84238e-06
-1.2457e-05
7.05409e-06
-6.84936e-06
7.5635e-06
-1.99718e-05
5.13144e-06
-4.71196e-05
-1.20425e-05
-7.87504e-05
-4.08636e-05
-0.000120111
-7.52521e-05
-0.000170552
-0.000119472
-0.000216667
-0.00016054
-0.000243123
-0.000180399
-0.000230026
-0.000182365
-0.000154999
-0.000203237
-2.02707e-06
0.000310716
2.03567e-05
0.000537632
2.57813e-05
0.000437561
1.25742e-05
0.00028991
-3.30555e-05
0.000247416
-7.94668e-05
0.000202235
-0.000109855
0.000145437
-0.000116983
8.16071e-05
-0.000104119
2.93211e-05
-8.07322e-05
-1.25893e-06
-5.51776e-05
-1.36339e-05
-3.12731e-05
-1.60624e-05
-9.43757e-06
-1.47813e-05
9.77055e-06
-1.16444e-05
2.03181e-05
-5.41612e-06
1.14716e-05
-3.19623e-06
-1.14442e-05
-1.79478e-05
-4.15781e-05
-4.5118e-05
-8.30301e-05
-7.80195e-05
-0.000130892
-0.000112679
-0.000170196
-0.000141094
-0.000194887
-0.000157675
-0.00015312
-0.000196765
6.83665e-06
0.000303879
3.28794e-05
0.00051159
3.22019e-05
0.000438238
-7.99541e-06
0.000330108
-6.63209e-05
0.000305742
-0.000119223
0.000255138
-0.000153234
0.000179448
-0.000160113
8.8486e-05
-0.000138745
7.95362e-06
-0.000102174
-3.78301e-05
-6.33066e-05
-5.25013e-05
-3.12573e-05
-4.81118e-05
-6.79908e-06
-3.92394e-05
1.34705e-05
-3.19138e-05
3.22364e-05
-2.4182e-05
4.41984e-05
-1.51583e-05
3.78849e-05
-1.16343e-05
1.64774e-05
-2.37107e-05
-1.29122e-05
-4.86295e-05
-4.80606e-05
-7.75301e-05
-8.41579e-05
-0.000104997
-0.000113794
-0.000128039
-0.000138008
-0.000128906
1.44479e-05
0.000289431
4.03446e-05
0.000485693
3.37466e-05
0.000444836
-1.50593e-05
0.000378913
-7.69559e-05
0.000367638
-0.000133154
0.000311336
-0.000172866
0.000219161
-0.000183347
9.89662e-05
-0.000160815
-1.45781e-05
-0.000115714
-8.29319e-05
-6.60608e-05
-0.000102154
-2.57423e-05
-8.84302e-05
2.3672e-06
-6.73488e-05
2.19321e-05
-5.14787e-05
3.78088e-05
-4.00587e-05
5.31237e-05
-3.04733e-05
6.26071e-05
-2.11178e-05
5.63772e-05
-1.74807e-05
3.59264e-05
-2.81788e-05
9.67031e-06
-5.12741e-05
-1.97231e-05
-7.56035e-05
-4.91073e-05
-9.86543e-05
-0.000117772
-6.9343e-05
4.80716e-05
0.000241359
6.68611e-05
0.000466904
4.32097e-05
0.000468488
-3.35383e-06
0.000425477
-5.30956e-05
0.00041738
-0.000102002
0.000360242
-0.000140272
0.000257431
-0.000152232
0.000110926
-0.000135497
-3.13137e-05
-9.50341e-05
-0.000123395
-4.81843e-05
-0.000149004
-9.14541e-06
-0.000127469
1.88612e-05
-9.53553e-05
3.64147e-05
-6.90323e-05
4.84724e-05
-5.21166e-05
5.9284e-05
-4.12847e-05
7.05497e-05
-3.23836e-05
7.7348e-05
-2.42788e-05
7.07321e-05
-2.1563e-05
4.9899e-05
-3.04409e-05
2.51822e-05
-5.0887e-05
1.0469e-06
-7.45192e-05
-9.59566e-05
-2.0769e-05
8.74035e-05
0.000153956
0.00013078
0.000423528
0.000102107
0.000497161
5.03869e-05
0.000477197
1.27758e-05
0.000454991
-1.86383e-05
0.000391656
-3.61327e-05
0.000274925
-3.6255e-05
0.000111049
-3.27403e-05
-3.48282e-05
-2.01586e-05
-0.000135976
3.41873e-06
-0.000172582
2.76053e-05
-0.000151656
4.44708e-05
-0.000112221
5.5467e-05
-8.00288e-05
6.28823e-05
-5.9532e-05
6.87463e-05
-4.71487e-05
7.53539e-05
-3.89914e-05
8.35141e-05
-3.2439e-05
8.90211e-05
-2.70701e-05
8.51448e-05
-2.65648e-05
6.93698e-05
-3.5112e-05
4.80369e-05
-5.31863e-05
-7.50458e-05
2.71263e-05
8.40583e-05
6.98978e-05
0.000184738
0.000322848
0.000205265
0.000476633
0.000169207
0.000513255
0.000135542
0.000488655
0.000115031
0.000412167
0.000104746
0.00028521
9.55552e-05
0.00012024
8.85032e-05
-2.7776e-05
8.2242e-05
-0.000129715
7.70503e-05
-0.00016739
7.54639e-05
-0.000150069
7.58938e-05
-0.00011265
7.68956e-05
-8.10305e-05
7.81015e-05
-6.0738e-05
7.94729e-05
-4.85202e-05
8.15139e-05
-4.10324e-05
8.54436e-05
-3.63689e-05
9.15965e-05
-3.32232e-05
9.72618e-05
-3.223e-05
9.73036e-05
-3.51539e-05
8.84508e-05
-4.43334e-05
-5.95257e-05
7.29306e-05
5.46223e-05
1.52755e-05
0.000187729
0.000189742
0.000278127
0.000386235
0.000300283
0.000491099
0.000291181
0.000497756
0.000277108
0.00042624
0.000264422
0.000297896
0.000244189
0.000140473
0.000214301
2.11154e-06
0.000182469
-9.78826e-05
0.00014999
-0.000134911
0.000123889
-0.000123968
0.000106974
-9.5736e-05
9.72681e-05
-7.13242e-05
9.18359e-05
-5.53057e-05
8.88335e-05
-4.55181e-05
8.74105e-05
-3.96095e-05
8.74492e-05
-3.64077e-05
8.95792e-05
-3.53532e-05
9.36199e-05
-3.62706e-05
9.81813e-05
-3.97153e-05
0.000100201
-4.63528e-05
-5.60297e-05
9.67048e-05
3.02422e-05
-1.49667e-05
0.000141073
7.89108e-05
0.000266221
0.000261087
0.000350281
0.00040704
0.000389316
0.000458721
0.000397955
0.000417601
0.000386417
0.000309434
0.000355158
0.000171732
0.000311007
4.62623e-05
0.000255133
-4.20085e-05
0.000201418
-8.11955e-05
0.000158572
-8.11213e-05
0.000129984
-6.71491e-05
0.000112605
-5.39449e-05
0.000102064
-4.47645e-05
9.54801e-05
-3.89342e-05
9.13782e-05
-3.55076e-05
8.89206e-05
-3.395e-05
8.78141e-05
-3.42468e-05
8.80087e-05
-3.64651e-05
8.92663e-05
-4.09728e-05
9.04513e-05
-4.75378e-05
-5.57169e-05
9.01385e-05
9.78424e-06
-2.47509e-05
7.36364e-05
1.50586e-05
0.00018546
0.000149263
0.00029266
0.00029984
0.000368163
0.000383218
0.000406213
0.000379551
0.000409424
0.000306223
0.00038228
0.000198876
0.000333978
9.45642e-05
0.000274538
1.74315e-05
0.000216641
-2.32981e-05
0.000171234
-3.57143e-05
0.000140401
-3.63157e-05
0.000120518
-3.40624e-05
0.000107555
-3.18014e-05
9.88524e-05
-3.02315e-05
9.29155e-05
-2.95707e-05
8.88697e-05
-2.99041e-05
8.59831e-05
-3.136e-05
8.3725e-05
-3.42069e-05
8.16355e-05
-3.88833e-05
7.94783e-05
-4.53805e-05
-5.29139e-05
7.66752e-05
-7.97489e-06
-1.6776e-05
5.42027e-06
1.66347e-06
7.62707e-05
7.84127e-05
0.000171282
0.00020483
0.000256852
0.000297647
0.000314205
0.000322198
0.000336674
0.000283754
0.000326926
0.000208625
0.000293492
0.000127998
0.000247631
6.32922e-05
0.000202066
2.2267e-05
0.000165802
5.50173e-07
0.000139681
-1.01955e-05
0.00012135
-1.57306e-05
0.000108384
-1.8836e-05
9.90664e-05
-2.09141e-05
9.22764e-05
-2.27806e-05
8.72501e-05
-2.48775e-05
8.33558e-05
-2.74655e-05
7.99399e-05
-3.07908e-05
7.63088e-05
-3.52521e-05
7.19756e-05
-4.10473e-05
-4.75412e-05
6.66028e-05
-2.27786e-05
6.00266e-06
-3.66969e-05
1.5582e-05
-1.49712e-05
5.66871e-05
4.81797e-05
0.000141679
0.000122921
0.000222906
0.000186454
0.000258665
0.000225402
0.000244807
0.000236747
0.00019728
0.000225651
0.000139094
0.000201817
8.71258e-05
0.000174951
4.91332e-05
0.000151077
2.44247e-05
0.000131891
8.98975e-06
0.000116983
-8.2282e-07
0.000105504
-7.35664e-06
9.66832e-05
-1.2093e-05
8.98368e-05
-1.5934e-05
8.44223e-05
-1.9463e-05
7.9966e-05
-2.30091e-05
7.59643e-05
-2.6789e-05
7.17629e-05
-3.10507e-05
6.67089e-05
-3.59934e-05
-4.12735e-05
6.04412e-05
-2.54131e-05
3.14158e-05
-5.26702e-05
4.28393e-05
-5.80356e-05
6.20525e-05
-2.80157e-05
0.000111659
2.64197e-05
0.000168471
8.44447e-05
0.00020064
0.000130212
0.00019904
0.000156487
0.000171004
0.000164299
0.000131283
0.000158977
9.24473e-05
0.000147086
6.10243e-05
0.000133481
3.8029e-05
0.000120651
2.18204e-05
0.000109474
1.0354e-05
0.000100103
2.01393e-06
9.24116e-05
-4.40106e-06
8.60418e-05
-9.56408e-06
8.07042e-05
-1.41252e-05
7.60885e-05
-1.83935e-05
7.18198e-05
-2.25203e-05
6.74765e-05
-2.67073e-05
6.25448e-05
-3.10616e-05
-3.54064e-05
5.66776e-05
-1.85595e-05
4.99755e-05
-4.27702e-05
6.70501e-05
-5.47742e-05
7.40566e-05
-4.28495e-05
9.97344e-05
-8.11328e-06
0.000133735
3.64008e-05
0.000156126
7.76866e-05
0.000157754
0.000107063
0.000141628
0.000122464
0.000115882
0.000126398
8.8513e-05
0.000123103
6.43201e-05
0.000116286
4.48456e-05
0.000108325
2.97817e-05
0.000100468
1.82107e-05
9.32751e-05
9.20672e-06
8.68736e-05
2.0005e-06
8.1293e-05
-3.98345e-06
7.63408e-05
-9.17306e-06
7.18387e-05
-1.38913e-05
6.76005e-05
-1.8282e-05
6.33576e-05
-2.24644e-05
5.88153e-05
-2.65193e-05
-3.03353e-05
5.37442e-05
-1.03772e-05
6.03527e-05
-2.49163e-05
8.15891e-05
-3.2584e-05
8.17242e-05
-2.62805e-05
9.34309e-05
-4.49437e-06
0.000111949
2.61475e-05
0.000125484
5.68211e-05
0.00012708
8.09397e-05
0.000117509
9.59807e-05
0.000100841
0.000102741
8.17527e-05
0.000103558
6.35034e-05
0.000100809
4.75944e-05
9.62624e-05
3.43281e-05
9.10307e-05
2.34425e-05
8.57348e-05
1.45027e-05
8.06682e-05
7.0671e-06
7.59385e-05
7.46257e-07
7.15515e-05
-4.78604e-06
6.73845e-05
-9.72433e-06
6.33692e-05
-1.42667e-05
5.93733e-05
-1.84685e-05
5.52463e-05
-2.23924e-05
-2.59696e-05
5.08805e-05
-5.03984e-06
6.53924e-05
-1.09266e-05
8.74758e-05
-1.28742e-05
8.3672e-05
-7.20565e-06
8.77624e-05
7.05805e-06
9.76853e-05
2.72627e-05
0.00010528
4.822e-05
0.000106123
6.58919e-05
9.98376e-05
7.8242e-05
8.84905e-05
8.5193e-05
7.48018e-05
8.77903e-05
6.09063e-05
8.73715e-05
4.80134e-05
8.50983e-05
3.66014e-05
8.18125e-05
2.67283e-05
7.80606e-05
1.82547e-05
7.41637e-05
1.09641e-05
7.02814e-05
4.62853e-06
6.65172e-05
-1.02182e-06
6.28144e-05
-6.02154e-06
5.91478e-05
-1.06e-05
5.54784e-05
-1.47992e-05
5.17391e-05
-1.86532e-05
-2.21158e-05
4.78853e-05
-2.24291e-06
6.76353e-05
-2.84912e-06
8.80821e-05
-1.21584e-06
8.2039e-05
4.41679e-06
8.21298e-05
1.47301e-05
8.73722e-05
2.83299e-05
9.16798e-05
4.2763e-05
9.16903e-05
5.56371e-05
8.69636e-05
6.54486e-05
7.8679e-05
7.17911e-05
6.84595e-05
7.5036e-05
5.76615e-05
7.58876e-05
4.71619e-05
7.50644e-05
3.74247e-05
7.31565e-05
2.86362e-05
7.05977e-05
2.08135e-05
6.76821e-05
1.38796e-05
6.45962e-05
7.71449e-06
6.13905e-05
2.18384e-06
5.81902e-05
-2.82125e-06
5.49448e-05
-7.35461e-06
5.16574e-05
-1.15118e-05
4.83027e-05
-1.52984e-05
-1.86984e-05
4.48854e-05
-6.30542e-07
6.8266e-05
1.43059e-06
8.6021e-05
4.8025e-06
7.86672e-05
1.02086e-05
7.67237e-05
1.80385e-05
7.95422e-05
2.781e-05
8.19083e-05
3.82627e-05
8.12378e-05
4.79349e-05
7.72914e-05
5.5759e-05
7.0855e-05
6.12992e-05
6.29194e-05
6.46357e-05
5.4325e-05
6.6121e-05
4.56766e-05
6.61824e-05
3.73634e-05
6.52157e-05
2.96029e-05
6.35445e-05
2.24847e-05
6.14119e-05
1.60123e-05
5.89864e-05
1.01399e-05
5.63684e-05
4.80181e-06
5.36226e-05
-7.53694e-08
5.08026e-05
-4.53466e-06
4.78977e-05
-8.60678e-06
4.49364e-05
-1.2337e-05
-1.56842e-05
4.19224e-05
4.77262e-07
6.77888e-05
3.77922e-06
8.2719e-05
7.85462e-06
7.45918e-05
1.27727e-05
7.18056e-05
1.8991e-05
7.33236e-05
2.6427e-05
7.44721e-05
3.436e-05
7.33048e-05
4.18449e-05
6.98065e-05
4.81413e-05
6.45587e-05
5.28884e-05
5.81723e-05
5.60535e-05
5.11599e-05
5.77995e-05
4.39306e-05
5.83716e-05
3.67914e-05
5.80269e-05
2.99477e-05
5.69973e-05
2.35143e-05
5.5473e-05
1.75365e-05
5.35986e-05
1.20144e-05
5.14762e-05
6.92422e-06
4.91692e-05
2.23173e-06
4.67418e-05
-2.1072e-06
4.42243e-05
-6.08915e-06
4.1629e-05
-9.74155e-06
-1.30508e-05
3.89957e-05
1.23132e-06
6.65573e-05
5.07001e-06
7.88803e-05
9.26844e-06
7.03931e-05
1.3669e-05
6.74051e-05
1.87767e-05
6.82158e-05
2.46734e-05
6.85752e-05
3.09036e-05
6.70746e-05
3.68315e-05
6.38785e-05
4.19501e-05
5.94402e-05
4.59863e-05
5.4136e-05
4.88707e-05
4.82755e-05
5.06667e-05
4.21347e-05
5.15089e-05
3.59492e-05
5.156e-05
2.98967e-05
5.09817e-05
2.40926e-05
4.9918e-05
1.86002e-05
4.84871e-05
1.34453e-05
4.67813e-05
8.63012e-06
4.48693e-05
4.14383e-06
4.27996e-05
-3.73611e-08
4.0626e-05
-3.91539e-06
3.83745e-05
-7.48996e-06
-1.07718e-05
3.60957e-05
1.70531e-06
6.48518e-05
5.68386e-06
7.49017e-05
9.72184e-06
6.63549e-05
1.36347e-05
6.34924e-05
1.79359e-05
6.39146e-05
2.27557e-05
6.37554e-05
2.77787e-05
6.20516e-05
3.25658e-05
5.90914e-05
3.67719e-05
5.52341e-05
4.01986e-05
5.07094e-05
4.27714e-05
4.57028e-05
4.45034e-05
4.04028e-05
4.54644e-05
3.49883e-05
4.5755e-05
2.96061e-05
4.54859e-05
2.43616e-05
4.47636e-05
1.93225e-05
4.36824e-05
1.45266e-05
4.23214e-05
9.99123e-06
4.07451e-05
5.72014e-06
3.89989e-05
1.70897e-06
3.71485e-05
-2.06493e-06
3.52178e-05
-5.55916e-06
-8.80443e-06
3.32505e-05
1.98407e-06
6.28676e-05
5.85381e-06
7.10319e-05
9.59601e-06
6.26125e-05
1.30655e-05
6.0023e-05
1.67528e-05
6.02272e-05
2.07823e-05
5.97259e-05
2.49168e-05
5.7917e-05
2.88476e-05
5.51606e-05
3.23405e-05
5.17413e-05
3.52543e-05
4.77957e-05
3.75219e-05
4.34353e-05
3.91331e-05
3.87917e-05
4.01206e-05
3.40009e-05
4.05455e-05
2.91812e-05
4.04829e-05
2.44243e-05
4.00107e-05
1.97947e-05
3.92027e-05
1.53346e-05
3.81252e-05
1.10687e-05
3.68362e-05
7.00921e-06
3.53842e-05
3.16105e-06
3.38165e-05
-4.97236e-07
3.21752e-05
-3.91779e-06
-7.14361e-06
3.05144e-05
2.14028e-06
6.07274e-05
5.75013e-06
6.74219e-05
9.13396e-06
5.92286e-05
1.22028e-05
5.69541e-05
1.54019e-05
5.70282e-05
1.88248e-05
5.63031e-05
2.22818e-05
5.446e-05
2.55533e-05
5.18892e-05
2.84811e-05
4.88137e-05
3.09654e-05
4.53116e-05
3.29505e-05
4.14506e-05
3.44169e-05
3.73255e-05
3.53774e-05
3.30404e-05
3.58684e-05
2.86903e-05
3.59405e-05
2.43522e-05
3.56506e-05
2.00847e-05
3.50559e-05
1.59294e-05
3.42109e-05
1.19137e-05
3.31664e-05
8.05373e-06
3.19692e-05
4.35835e-06
3.06466e-05
8.25375e-07
2.92749e-05
-2.54605e-06
-5.74305e-06
2.78744e-05
2.22311e-06
5.85044e-05
5.49144e-06
6.41535e-05
8.49037e-06
5.62296e-05
1.11952e-05
5.42492e-05
1.39902e-05
5.42331e-05
1.69278e-05
5.33656e-05
1.98502e-05
5.15378e-05
2.26003e-05
4.91393e-05
2.50718e-05
4.63424e-05
2.71951e-05
4.31885e-05
2.89253e-05
3.97205e-05
3.02412e-05
3.60096e-05
3.11451e-05
3.21366e-05
3.16582e-05
2.81771e-05
3.18145e-05
2.41959e-05
3.16548e-05
2.02443e-05
3.12229e-05
1.63614e-05
3.0562e-05
1.25746e-05
2.97139e-05
8.90179e-06
2.87183e-05
5.35396e-06
2.76099e-05
1.93379e-06
2.64263e-05
-1.36241e-06
-4.52886e-06
2.52122e-05
2.25898e-06
5.62455e-05
5.1571e-06
6.12553e-05
7.76394e-06
5.36227e-05
1.01326e-05
5.18805e-05
1.25793e-05
5.17865e-05
1.51126e-05
5.08325e-05
1.7598e-05
4.90524e-05
1.99233e-05
4.68141e-05
2.20178e-05
4.42479e-05
2.38333e-05
4.13731e-05
2.53344e-05
3.82195e-05
2.65011e-05
3.48429e-05
2.73304e-05
3.13072e-05
2.78338e-05
2.76737e-05
2.80333e-05
2.39964e-05
2.7957e-05
2.03206e-05
2.76366e-05
1.66818e-05
2.71045e-05
1.31068e-05
2.63922e-05
9.61404e-06
2.55306e-05
6.2156e-06
2.45483e-05
2.91603e-06
2.3476e-05