/*--------------------------------*- C++ -*----------------------------------*\
| =========                 |                                                 |
| \\      /  F ield         | OpenFOAM: The Open Source CFD Toolbox           |
|  \\    /   O peration     | Version:  5.x                                   |
|   \\  /    A nd           | Web:      www.OpenFOAM.org                      |
|    \\/     M anipulation  |                                                 |
\*---------------------------------------------------------------------------*/
FoamFile
{
    version     2.0;
    format      ascii;
    class       volVectorField;
    location    "0.95";
    object      U;
}
// * * * * * * * * * * * * * * * * * * * * * * * * * * * * * * * * * * * * * //

dimensions      [0 1 -1 0 0 0 0];

internalField   nonuniform List<vector> 
2268
(
(0.0156469 -0.013722 0)
(0.0235182 -0.00231128 0)
(-0.0154971 0.0130549 0)
(-0.0826065 0.0177168 0)
(-0.11552 0.00691292 0)
(-0.0952227 -0.00516808 0)
(-0.0612142 -0.00662816 0)
(-0.0389497 -0.00407233 0)
(-0.0257194 -0.00178398 0)
(-0.0223499 0.00127179 0)
(-0.031341 0.00459468 0)
(-0.0527653 0.00619877 0)
(-0.0803 0.00390756 0)
(-0.102332 -0.00267728 0)
(-0.113873 -0.00608595 0)
(-0.14523 0.010233 0)
(-0.255788 0.0327014 0)
(-0.364266 0.0205756 0)
(-0.374717 -0.00565242 0)
(-0.300689 -0.024339 0)
(-0.216955 -0.0282655 0)
(-0.123533 -0.0298264 0)
(-0.037525 -0.0217937 0)
(-0.0197461 -0.00458169 0)
(-0.0681007 0.0197727 0)
(-0.128647 0.0380869 0)
(-0.165492 0.0294985 0)
(-0.147257 -0.000584735 0)
(-0.106109 -0.0217101 0)
(-0.070539 -0.0214647 0)
(-0.0428261 -0.0136601 0)
(-0.0273046 -0.00643654 0)
(-0.0206946 0.00161858 0)
(-0.0242225 0.010753 0)
(-0.0391791 0.0182846 0)
(-0.0656352 0.0217844 0)
(-0.104385 0.0208185 0)
(-0.161157 0.0277089 0)
(-0.24322 0.0562242 0)
(-0.333525 0.068067 0)
(-0.35265 0.0272984 0)
(-0.278407 -0.0264855 0)
(-0.216776 -0.0555033 0)
(-0.158145 -0.0619493 0)
(-0.0895155 -0.0689912 0)
(-0.0236071 -0.0535696 0)
(-0.037334 0.025036 0)
(-0.105407 0.0481984 0)
(-0.160712 0.0556521 0)
(-0.176299 0.0290274 0)
(-0.156077 -0.0165066 0)
(-0.121099 -0.0424499 0)
(-0.0824071 -0.0392376 0)
(-0.0517712 -0.0255594 0)
(-0.0307856 -0.0131948 0)
(-0.0191367 -0.000299045 0)
(-0.0180678 0.0139026 0)
(-0.0279313 0.0263713 0)
(-0.0478305 0.0359746 0)
(-0.0799406 0.0444942 0)
(-0.129737 0.0604471 0)
(-0.20177 0.087582 0)
(-0.255308 0.0784653 0)
(-0.227943 0.00753136 0)
(-0.163256 -0.0602179 0)
(-0.136288 -0.0789857 0)
(-0.0980818 -0.0827229 0)
(-0.0628319 -0.0917876 0)
(-0.00936276 -0.0719357 0)
(-0.0379419 0.0574711 0)
(-0.100491 0.0757069 0)
(-0.149056 0.0707839 0)
(-0.165663 0.0305216 0)
(-0.1524 -0.0271432 0)
(-0.121441 -0.0618325 0)
(-0.0913943 -0.0567626 0)
(-0.0633519 -0.0388129 0)
(-0.0394216 -0.0224719 0)
(-0.0249186 -0.00398286 0)
(-0.0231138 0.0157266 0)
(-0.0333239 0.0330752 0)
(-0.0520865 0.0462794 0)
(-0.0768625 0.059541 0)
(-0.103475 0.0808324 0)
(-0.128669 0.103511 0)
(-0.142574 0.0819302 0)
(-0.117732 0.00202932 0)
(-0.107285 -0.0657056 0)
(-0.112558 -0.0881424 0)
(-0.082135 -0.0961981 0)
(-0.058161 -0.109089 0)
(-0.00533969 -0.0849225 0)
(-0.0288613 0.0853881 0)
(-0.0757811 0.0997543 0)
(-0.118685 0.0855891 0)
(-0.136625 0.0347911 0)
(-0.12469 -0.0349104 0)
(-0.105052 -0.0748907 0)
(-0.0929991 -0.0684784 0)
(-0.0730993 -0.0507209 0)
(-0.046934 -0.0323382 0)
(-0.0261065 -0.00692594 0)
(-0.0187897 0.0192642 0)
(-0.0268753 0.0423851 0)
(-0.0468269 0.0589969 0)
(-0.0736167 0.0724371 0)
(-0.0971845 0.0895668 0)
(-0.102586 0.103455 0)
(-0.0947435 0.0761588 0)
(-0.0925704 -0.000631155 0)
(-0.118574 -0.0637121 0)
(-0.128809 -0.0961816 0)
(-0.0934156 -0.113005 0)
(-0.0554257 -0.129573 0)
(-0.00397178 -0.0979613 0)
(-0.0147897 0.104364 0)
(-0.0416747 0.118347 0)
(-0.0763446 0.0985643 0)
(-0.091128 0.0395742 0)
(-0.0804081 -0.0382027 0)
(-0.0765507 -0.0800714 0)
(-0.0908973 -0.073728 0)
(-0.0796649 -0.0606694 0)
(-0.044833 -0.0444846 0)
(-0.00885737 -0.0144518 0)
(0.00842004 0.0187493 0)
(0.00376853 0.0489052 0)
(-0.0177768 0.0704609 0)
(-0.0502084 0.0859466 0)
(-0.0845332 0.0991962 0)
(-0.103266 0.103663 0)
(-0.104719 0.0755556 0)
(-0.119705 0.0103377 0)
(-0.145303 -0.0552788 0)
(-0.140499 -0.104842 0)
(-0.0934657 -0.133925 0)
(-0.0404685 -0.152656 0)
(-0.00294233 -0.108805 0)
(0.00313697 0.110934 0)
(-0.00245552 0.129994 0)
(-0.0289927 0.108469 0)
(-0.0400189 0.0442238 0)
(-0.0234399 -0.0348846 0)
(-0.0370707 -0.0766631 0)
(-0.0884835 -0.070024 0)
(-0.0764663 -0.0693169 0)
(-0.0215237 -0.066685 0)
(0.0211235 -0.031653 0)
(0.0319537 0.0162882 0)
(0.0252268 0.0563791 0)
(0.00600364 0.0829277 0)
(-0.0240968 0.100527 0)
(-0.0634947 0.111125 0)
(-0.0974981 0.107642 0)
(-0.118696 0.0798013 0)
(-0.142276 0.0207806 0)
(-0.160571 -0.0514723 0)
(-0.146603 -0.119505 0)
(-0.0882807 -0.16493 0)
(-0.0263931 -0.176875 0)
(-0.00768417 -0.117973 0)
(0.0217292 0.105335 0)
(0.0373159 0.132406 0)
(0.0193047 0.113941 0)
(0.0259245 0.0412749 0)
(0.0634303 -0.0405778 0)
(0.00678556 -0.0525491 0)
(-0.0832285 -0.0526809 0)
(-0.0622554 -0.0938267 0)
(-0.00620843 -0.0928301 0)
(0.00422836 -0.038756 0)
(0.0114761 0.00645451 0)
(0.00606858 0.0430527 0)
(-0.013148 0.074331 0)
(-0.0297097 0.104691 0)
(-0.0667703 0.131542 0)
(-0.106705 0.134748 0)
(-0.13657 0.103778 0)
(-0.167157 0.0368241 0)
(-0.187331 -0.0533848 0)
(-0.17086 -0.14761 0)
(-0.10718 -0.197534 0)
(-0.0340739 -0.190498 0)
(-0.0122198 -0.123335 0)
(0.0198608 0.00055211 0)
(-0.0759115 0.0027878 0)
(0.17205 -0.043797 0)
(0.394979 -0.0319488 0)
(0.533055 -0.00979032 0)
(0.537932 0.0128399 0)
(0.417904 0.029323 0)
(0.315001 0.0243958 0)
(0.119556 0.0317659 0)
(-0.00508626 0.0214944 0)
(-0.134389 0.037442 0)
(-0.263438 0.0289595 0)
(-0.378625 0.00180521 0)
(-0.421701 -0.022701 0)
(-0.338752 -0.0362558 0)
(-0.192279 -0.0459171 0)
(-0.0289842 -0.0425715 0)
(0.109898 -0.00563961 0)
(0.098831 0.00367218 0)
(-0.0769232 0.0249751 0)
(-0.0401509 -0.0556856 0)
(0.268069 -0.185826 0)
(0.472225 -0.132125 0)
(0.593049 -0.0370599 0)
(0.618747 0.0360341 0)
(0.547994 0.0755455 0)
(0.46888 0.0790607 0)
(0.141256 0.109368 0)
(0.0417641 0.108648 0)
(-0.102676 0.0697344 0)
(-0.21412 0.0671535 0)
(-0.287317 0.0522473 0)
(-0.243737 0.00307978 0)
(-0.160427 -0.063929 0)
(-0.0721582 -0.0926258 0)
(0.0452878 -0.106389 0)
(0.191479 -0.0578383 0)
(0.230608 0.0811726 0)
(-0.111585 0.038994 0)
(0.0939702 -0.141843 0)
(0.245946 -0.285479 0)
(0.333722 -0.192224 0)
(0.42756 -0.0638285 0)
(0.481365 0.0347397 0)
(0.458956 0.102786 0)
(0.400445 0.147833 0)
(-0.00414212 0.221415 0)
(-0.114797 0.156611 0)
(-0.0359591 0.116534 0)
(-0.113686 0.121602 0)
(-0.215873 0.0494303 0)
(-0.214394 -0.0665078 0)
(-0.234255 -0.0831835 0)
(-0.239578 -0.106714 0)
(-0.136647 -0.16554 0)
(0.0782563 -0.10773 0)
(0.170328 0.154143 0)
(-0.125256 0.0414612 0)
(0.16345 -0.209267 0)
(0.130309 -0.30609 0)
(0.103683 -0.19398 0)
(0.162757 -0.0831587 0)
(0.253314 0.0142563 0)
(0.259666 0.117018 0)
(0.219755 0.230904 0)
(-0.16365 0.316917 0)
(-0.161186 0.0735029 0)
(-0.0885104 0.0846188 0)
(-0.0951814 0.139974 0)
(-0.166994 0.0815393 0)
(-0.305891 0.0129745 0)
(-0.465778 -0.0284231 0)
(-0.484059 -0.1453 0)
(-0.387525 -0.22475 0)
(-0.181744 -0.128028 0)
(0.00716861 0.189127 0)
(-0.116065 0.0413972 0)
(0.13926 -0.249587 0)
(0.0122888 -0.264641 0)
(-0.0878893 -0.158541 0)
(-0.120917 -0.0964742 0)
(-0.0645453 -0.0120576 0)
(-0.00350713 0.140815 0)
(-0.0170659 0.326857 0)
(-0.281559 0.421281 0)
(-0.179152 0.0819285 0)
(-0.19249 0.0791587 0)
(-0.26863 0.176169 0)
(-0.460165 0.155927 0)
(-0.610266 0.040871 0)
(-0.630387 -0.0875572 0)
(-0.605946 -0.224102 0)
(-0.509069 -0.296927 0)
(-0.286162 -0.154322 0)
(-0.209739 0.0371928 0)
(-0.0765618 0.0251081 0)
(0.0987198 -0.262842 0)
(-0.00359022 -0.211563 0)
(-0.109108 -0.105454 0)
(-0.214441 -0.0727992 0)
(-0.252532 -0.0143746 0)
(-0.224806 0.172915 0)
(-0.250764 0.388665 0)
(-0.409617 0.383458 0)
(-0.40744 0.0712759 0)
(-0.507998 0.145008 0)
(-0.554896 0.230089 0)
(-0.63453 0.168211 0)
(-0.526306 0.0384029 0)
(-0.13005 -0.00781128 0)
(-0.241657 -0.18982 0)
(-0.527258 -0.392224 0)
(-0.296597 -0.308942 0)
(0.0619252 -0.047733 0)
(-0.0423553 0.0156378 0)
(0.0981409 -0.273462 0)
(0.0595665 -0.208434 0)
(0.106657 -0.0858396 0)
(0.0994891 -0.0398971 0)
(-0.284656 -0.0436114 0)
(-0.45057 0.150615 0)
(-0.516541 0.429568 0)
(-0.523811 0.374361 0)
(-0.641692 0.133947 0)
(-0.701246 0.19937 0)
(-0.598034 0.254519 0)
(-0.43656 0.143823 0)
(0.23812 -0.130573 0)
(1.17056 -0.103925 0)
(1.10857 0.163231 0)
(-0.308922 -0.28535 0)
(-0.33219 -0.415968 0)
(0.0670958 -0.0701151 0)
(-0.018179 0.00252088 0)
(0.117787 -0.294987 0)
(0.0891179 -0.24649 0)
(0.204731 -0.143426 0)
(0.256145 0.0955065 0)
(-0.243299 0.125902 0)
(-0.609969 0.238669 0)
(-0.646176 0.455472 0)
(-0.642545 0.349405 0)
(-0.751682 0.169814 0)
(-0.597296 0.124187 0)
(-0.141687 0.112827 0)
(0.380772 -0.12537 0)
(1.37453 -0.733665 0)
(1.94843 -0.306204 0)
(1.88833 0.381518 0)
(0.465052 0.32102 0)
(-0.284046 -0.413796 0)
(-0.188974 -0.201927 0)
(0.0677674 0.079325 0)
(0.114186 0.15434 0)
(0.108255 0.127275 0)
(0.1181 0.0403748 0)
(0.068796 -0.00481791 0)
(-0.0555851 0.0172688 0)
(-0.111141 -0.0507946 0)
(-0.112747 -0.134257 0)
(-0.091807 -0.119859 0)
(-0.0179596 -0.0786921 0)
(0.0505418 0.0212111 0)
(0.0196337 0.0831612 0)
(-0.0255 0.105561 0)
(-0.0425114 0.116852 0)
(-0.0622862 0.120269 0)
(-0.0964507 0.109542 0)
(-0.15158 0.099037 0)
(-0.213185 0.0517639 0)
(-0.268744 -0.0569143 0)
(-0.282796 -0.159422 0)
(-0.230329 -0.221854 0)
(-0.112236 -0.231044 0)
(-0.0243112 -0.158957 0)
(0.0948929 -0.0938181 0)
(0.223344 0.103579 0)
(0.221999 0.125556 0)
(0.145563 0.0957958 0)
(0.0340081 0.109164 0)
(-0.0764013 0.0930195 0)
(-0.19749 0.020725 0)
(-0.351684 -0.0832873 0)
(-0.216219 -0.265228 0)
(0.359803 -0.205475 0)
(0.324424 -0.0131969 0)
(0.117021 0.161325 0)
(-0.0118154 0.201153 0)
(-0.225162 0.20518 0)
(-0.347446 0.225 0)
(-0.345005 0.20341 0)
(-0.386968 0.190038 0)
(-0.448735 0.140292 0)
(-0.506905 0.0474857 0)
(-0.546527 -0.131397 0)
(-0.462475 -0.355464 0)
(-0.294285 -0.396768 0)
(-0.145912 -0.23364 0)
(-0.0259364 -0.350318 0)
(0.17693 -0.00405106 0)
(0.104776 0.175382 0)
(-0.0491176 0.212443 0)
(-0.243358 0.241966 0)
(-0.506155 0.298646 0)
(-0.682983 0.216911 0)
(-0.331069 -0.142059 0)
(-1.07932 -0.397888 0)
(-0.733967 -0.0149422 0)
(-1.10994 0.168199 0)
(-1.16643 0.24462 0)
(-1.13813 0.319106 0)
(-1.19474 0.378208 0)
(-1.36338 0.375402 0)
(-1.38344 0.308052 0)
(-1.19041 0.26321 0)
(-1.03998 0.159586 0)
(-0.894703 -0.0700413 0)
(-0.710901 -0.380173 0)
(-0.547599 -0.585753 0)
(-0.442379 -0.580557 0)
(-0.320007 -0.318487 0)
(-0.199036 -0.257283 0)
(-0.219805 0.134572 0)
(-0.428339 0.336519 0)
(-0.680028 0.469653 0)
(-1.08353 0.570909 0)
(-1.64844 0.48429 0)
(-1.99669 0.0960584 0)
(-1.99089 -0.146292 0)
(-2.04826 -0.213854 0)
(-1.96356 0.0038686 0)
(-1.82344 0.217686 0)
(-1.76958 0.239221 0)
(-1.69377 0.27018 0)
(-1.59072 0.334697 0)
(-1.50553 0.247958 0)
(-1.31366 0.0172157 0)
(-1.06962 -0.109729 0)
(-0.790577 -0.13356 0)
(-0.448985 -0.276594 0)
(-0.204089 -0.388581 0)
(-0.318064 -0.51355 0)
(-0.40844 -0.649189 0)
(-0.383137 -0.447375 0)
(-0.35946 0.0809817 0)
(-0.690229 0.404875 0)
(-1.01712 0.642602 0)
(-1.34083 0.879129 0)
(-1.75116 0.999051 0)
(-2.1708 0.741862 0)
(-2.14216 0.113266 0)
(-2.16456 -0.197905 0)
(-2.1256 -0.287436 0)
(-2.00771 -0.237559 0)
(-1.81587 -0.0892074 0)
(-1.60888 0.16709 0)
(-1.46996 0.18797 0)
(-1.31194 0.268323 0)
(-1.14321 0.173007 0)
(-0.920991 -0.0581968 0)
(-0.660312 -0.301908 0)
(-0.422054 -0.498135 0)
(-0.307488 -0.548741 0)
(-0.239781 -0.419555 0)
(-0.19431 -0.338768 0)
(-0.36651 -0.584568 0)
(-0.445092 -0.417317 0)
(-0.344258 0.543743 0)
(-0.804068 0.75614 0)
(-1.32351 0.983485 0)
(-1.72301 1.27587 0)
(-2.02583 1.44082 0)
(-2.03986 1.06091 0)
(-1.95129 0.261109 0)
(-1.81529 -0.116299 0)
(-1.82017 -0.330786 0)
(-1.88107 -0.356062 0)
(-1.84216 -0.301712 0)
(-1.66332 -0.237794 0)
(-1.45567 -0.119754 0)
(-1.24242 0.0463264 0)
(-1.07122 -0.130194 0)
(-0.865326 -0.315018 0)
(-0.761397 -0.500985 0)
(-0.718956 -0.619706 0)
(-0.64935 -0.627001 0)
(-0.514043 -0.553467 0)
(-0.28327 -0.409412 0)
(-0.416641 -0.478156 0)
(-0.532189 -0.309482 0)
(-0.296028 0.980503 0)
(-0.502943 1.34919 0)
(-1.30156 1.59322 0)
(-1.70889 1.56432 0)
(-1.80203 1.52587 0)
(-1.57787 1.01776 0)
(-1.30817 0.237496 0)
(-1.24792 -0.0859922 0)
(-1.4191 -0.131568 0)
(-1.61711 -0.155705 0)
(-1.62056 -0.289909 0)
(-1.64414 -0.360495 0)
(-1.64444 -0.341472 0)
(-1.50624 -0.355961 0)
(-1.29219 -0.423344 0)
(-1.10242 -0.483512 0)
(-0.977164 -0.586957 0)
(-0.881825 -0.671247 0)
(-0.778145 -0.695674 0)
(-0.672595 -0.648261 0)
(-0.553035 -0.52608 0)
(-0.531668 -0.397301 0)
(-0.622522 -0.187086 0)
(-0.309685 1.25704 0)
(-0.269521 2.09661 0)
(-1.08746 2.15397 0)
(-1.23897 1.66801 0)
(-1.18995 1.27274 0)
(-0.949938 0.554186 0)
(-0.890837 -0.0460466 0)
(-1.02377 -0.143936 0)
(-1.11267 -0.0751224 0)
(-1.13902 -0.000394541 0)
(-1.25711 -0.091816 0)
(-1.44139 -0.0790442 0)
(-1.53213 -0.144396 0)
(-1.53031 -0.344814 0)
(-1.44719 -0.566127 0)
(-1.32623 -0.633889 0)
(-1.20647 -0.71398 0)
(-1.09468 -0.781263 0)
(-0.965716 -0.800155 0)
(-0.82948 -0.745085 0)
(-0.716754 -0.595947 0)
(-0.65706 -0.380265 0)
(-0.675011 -0.0957305 0)
(-0.35757 1.3874 0)
(-0.110491 2.63983 0)
(-0.854024 2.54 0)
(-0.702335 1.77817 0)
(-0.650397 1.13591 0)
(-0.485263 0.48318 0)
(-0.5316 0.124728 0)
(-0.670553 0.0286535 0)
(-0.780176 0.000399346 0)
(-0.887166 -0.0212449 0)
(-1.0249 -0.0945502 0)
(-1.14723 -0.131139 0)
(-1.21386 -0.0598949 0)
(-1.25736 -0.166126 0)
(-1.35443 -0.549746 0)
(-1.41641 -0.689577 0)
(-1.36869 -0.863148 0)
(-1.26743 -0.991219 0)
(-1.15366 -1.01054 0)
(-0.979973 -0.895724 0)
(-0.845938 -0.698279 0)
(-0.756215 -0.440764 0)
(-0.71583 -0.0964958 0)
(-0.450637 1.52175 0)
(0.0499463 2.96187 0)
(-0.614682 2.62218 0)
(-0.287972 1.78296 0)
(-0.307374 1.04589 0)
(-0.184042 0.533889 0)
(-0.245084 0.228577 0)
(-0.330732 0.125973 0)
(-0.404857 0.124284 0)
(-0.480261 0.14906 0)
(-0.59085 0.134458 0)
(-0.74394 0.051772 0)
(-0.865192 -0.0806021 0)
(-0.94808 -0.22624 0)
(-1.04969 -0.38176 0)
(-1.15266 -0.526493 0)
(-1.22963 -0.715529 0)
(-1.22291 -0.939227 0)
(-1.14965 -1.09002 0)
(-1.08251 -1.04174 0)
(-0.960628 -0.781764 0)
(-0.837511 -0.490274 0)
(-0.7376 -0.127854 0)
(-0.546134 1.67638 0)
(0.263009 3.10105 0)
(-0.418226 2.5363 0)
(0.078739 1.6946 0)
(-0.075808 0.937912 0)
(0.041797 0.541058 0)
(-0.0807394 0.291774 0)
(-0.16981 0.199196 0)
(-0.247951 0.182656 0)
(-0.289391 0.195906 0)
(-0.312569 0.208944 0)
(-0.349272 0.194731 0)
(-0.438063 0.0939212 0)
(-0.578991 -0.109721 0)
(-0.717241 -0.313063 0)
(-0.867225 -0.489359 0)
(-1.04131 -0.690317 0)
(-1.19656 -0.938974 0)
(-1.27059 -1.14684 0)
(-1.24486 -1.15187 0)
(-1.13524 -0.933423 0)
(-0.950452 -0.606158 0)
(-0.756567 -0.251788 0)
(-0.590505 1.75674 0)
(0.512872 3.03428 0)
(-0.305873 2.47383 0)
(0.331041 1.58038 0)
(0.0504631 0.913006 0)
(0.0935746 0.589067 0)
(-0.107957 0.40023 0)
(-0.218552 0.30002 0)
(-0.281806 0.240085 0)
(-0.285059 0.206228 0)
(-0.249732 0.192441 0)
(-0.19854 0.18738 0)
(-0.171871 0.158574 0)
(-0.224273 0.0605073 0)
(-0.37141 -0.11529 0)
(-0.53392 -0.298839 0)
(-0.711496 -0.500078 0)
(-0.928718 -0.768347 0)
(-1.17203 -1.06074 0)
(-1.32783 -1.2127 0)
(-1.31413 -1.10323 0)
(-1.15887 -0.810923 0)
(-0.878522 -0.43056 0)
(-0.574827 1.72375 0)
(0.369123 3.00064 0)
(-0.206519 2.42964 0)
(0.37 1.4982 0)
(0.00992684 0.996447 0)
(-0.0484122 0.740088 0)
(-0.29966 0.554854 0)
(-0.396897 0.392547 0)
(-0.415745 0.26073 0)
(-0.3706 0.172278 0)
(-0.292907 0.123043 0)
(-0.197452 0.103164 0)
(-0.102029 0.0985428 0)
(-0.0348468 0.092998 0)
(-0.0457967 0.0371794 0)
(-0.17797 -0.123977 0)
(-0.329053 -0.290125 0)
(-0.516207 -0.496244 0)
(-0.789554 -0.772583 0)
(-1.07209 -1.02224 0)
(-1.24932 -1.15239 0)
(-1.30414 -1.10669 0)
(-1.19971 -0.864576 0)
(-0.475357 1.6095 0)
(0.422298 3.00262 0)
(-0.137869 2.38179 0)
(0.320343 1.49699 0)
(-0.13435 1.1923 0)
(-0.294501 0.959699 0)
(-0.551553 0.710264 0)
(-0.630419 0.441735 0)
(-0.602024 0.220834 0)
(-0.49503 0.0834544 0)
(-0.359844 0.014408 0)
(-0.229044 -0.0143248 0)
(-0.10728 -0.0177824 0)
(0.00320964 -0.00250873 0)
(0.0952127 0.028587 0)
(0.110958 0.00289513 0)
(0.00679919 -0.141583 0)
(-0.133476 -0.308328 0)
(-0.332888 -0.508084 0)
(-0.586514 -0.714422 0)
(-0.804451 -0.850591 0)
(-1.00368 -0.92424 0)
(-1.07686 -0.899665 0)
(-0.326995 1.60386 0)
(0.361257 2.83929 0)
(0.0308976 2.36129 0)
(0.248415 1.64301 0)
(-0.265773 1.47376 0)
(-0.51213 1.21953 0)
(-0.776566 0.864665 0)
(-0.862982 0.460016 0)
(-0.810017 0.120169 0)
(-0.645857 -0.0885302 0)
(-0.436848 -0.163081 0)
(-0.245559 -0.163984 0)
(-0.0971576 -0.144225 0)
(0.0191034 -0.120893 0)
(0.121198 -0.0824822 0)
(0.215955 -0.0326166 0)
(0.241338 -0.0423383 0)
(0.153075 -0.165068 0)
(0.0122295 -0.31775 0)
(-0.167022 -0.497389 0)
(-0.350869 -0.665969 0)
(-0.539996 -0.77429 0)
(-0.658349 -0.790253 0)
(-0.181535 1.65674 0)
(0.297967 2.65835 0)
(0.145567 2.35183 0)
(0.185119 1.90441 0)
(-0.30189 1.8043 0)
(-0.589744 1.50464 0)
(-0.869115 1.0404 0)
(-0.976384 0.476269 0)
(-0.924733 -0.0351521 0)
(-0.737095 -0.350571 0)
(-0.480622 -0.428086 0)
(-0.235237 -0.371375 0)
(-0.0546346 -0.289463 0)
(0.0678673 -0.228095 0)
(0.158113 -0.180219 0)
(0.241439 -0.12845 0)
(0.318551 -0.0775748 0)
(0.338776 -0.0825297 0)
(0.255944 -0.193303 0)
(0.115749 -0.330579 0)
(-0.0246888 -0.469096 0)
(-0.181988 -0.605471 0)
(-0.315263 -0.694323 0)
(0.0971709 1.51869 0)
(0.378535 2.59233 0)
(0.292506 2.42289 0)
(0.180766 2.1527 0)
(-0.191937 2.12023 0)
(-0.444144 1.78862 0)
(-0.710182 1.22742 0)
(-0.803225 0.495676 0)
(-0.73688 -0.20343 0)
(-0.605572 -0.624742 0)
(-0.380853 -0.720843 0)
(-0.143975 -0.605166 0)
(0.0344363 -0.450718 0)
(0.149225 -0.332025 0)
(0.227662 -0.254601 0)
(0.285405 -0.201581 0)
(0.344839 -0.149743 0)
(0.402217 -0.102337 0)
(0.413795 -0.10889 0)
(0.334805 -0.207733 0)
(0.192799 -0.339138 0)
(0.0643924 -0.458563 0)
(-0.0492604 -0.578189 0)
(0.291575 1.07622 0)
(0.668125 2.47504 0)
(0.664083 2.63495 0)
(0.434456 2.4097 0)
(0.121979 2.33437 0)
(-0.0408163 2.01648 0)
(-0.205298 1.41617 0)
(-0.206621 0.554359 0)
(-0.143899 -0.234772 0)
(-0.128453 -0.756767 0)
(-0.0623519 -0.917498 0)
(0.0695791 -0.786688 0)
(0.186059 -0.57997 0)
(0.265039 -0.413612 0)
(0.315975 -0.308537 0)
(0.351071 -0.244276 0)
(0.381778 -0.199841 0)
(0.422223 -0.157957 0)
(0.465718 -0.122546 0)
(0.479327 -0.129803 0)
(0.425882 -0.212724 0)
(0.312514 -0.335819 0)
(0.201057 -0.454029 0)
(0.1256 0.517541 0)
(0.810861 2.07154 0)
(1.13718 2.74241 0)
(1.0415 2.73167 0)
(0.773816 2.54524 0)
(0.625933 2.16416 0)
(0.548801 1.51976 0)
(0.55809 0.628674 0)
(0.569275 -0.168077 0)
(0.52359 -0.726562 0)
(0.407885 -0.943579 0)
(0.377795 -0.84296 0)
(0.389028 -0.627552 0)
(0.401736 -0.447049 0)
(0.41145 -0.332026 0)
(0.419835 -0.262935 0)
(0.428758 -0.220378 0)
(0.442996 -0.191904 0)
(0.471073 -0.167568 0)
(0.507003 -0.154603 0)
(0.528974 -0.167187 0)
(0.508894 -0.238453 0)
(0.430267 -0.347515 0)
(-0.0439506 0.178647 0)
(0.67075 1.39839 0)
(1.33478 2.42048 0)
(1.62045 2.83154 0)
(1.58903 2.74611 0)
(1.50085 2.30957 0)
(1.43629 1.60494 0)
(1.39289 0.735175 0)
(1.28919 -0.0744782 0)
(1.1153 -0.616102 0)
(0.879645 -0.828416 0)
(0.699998 -0.75578 0)
(0.59543 -0.575334 0)
(0.535294 -0.419688 0)
(0.500572 -0.318576 0)
(0.480486 -0.257474 0)
(0.46977 -0.220475 0)
(0.465979 -0.199784 0)
(0.470894 -0.190592 0)
(0.488555 -0.190545 0)
(0.513553 -0.204309 0)
(0.535697 -0.235674 0)
(0.53282 -0.292845 0)
(-0.00201569 -0.0225219 0)
(0.349738 0.628688 0)
(1.12333 1.72941 0)
(1.72855 2.48912 0)
(2.02788 2.67652 0)
(2.13132 2.36544 0)
(2.11832 1.70817 0)
(2.02093 0.893633 0)
(1.83277 0.144136 0)
(1.54756 -0.362362 0)
(1.2126 -0.580742 0)
(0.933311 -0.555793 0)
(0.748879 -0.442236 0)
(0.636722 -0.340498 0)
(0.568224 -0.272266 0)
(0.525157 -0.229868 0)
(0.497904 -0.204495 0)
(0.481226 -0.191733 0)
(0.471855 -0.190587 0)
(0.469613 -0.201111 0)
(0.473942 -0.224674 0)
(0.482801 -0.25976 0)
(0.485899 -0.305396 0)
(0.0198891 -0.122397 0)
(0.0762382 0.16901 0)
(0.662559 1.04706 0)
(1.33459 1.88962 0)
(1.83293 2.2977 0)
(2.12235 2.19558 0)
(2.22573 1.70251 0)
(2.16015 1.03084 0)
(1.95176 0.405067 0)
(1.64779 -0.0472104 0)
(1.30459 -0.268863 0)
(1.01551 -0.305036 0)
(0.815809 -0.273041 0)
(0.688012 -0.234877 0)
(0.604967 -0.205996 0)
(0.549241 -0.186861 0)
(0.511227 -0.176289 0)
(0.485361 -0.173434 0)
(0.467579 -0.17848 0)
(0.454771 -0.19307 0)
(0.443599 -0.219731 0)
(0.433058 -0.257383 0)
(0.41991 -0.301083 0)
(-0.0230825 -0.123192 0)
(-0.100994 0.0117606 0)
(0.13489 0.56935 0)
(0.682882 1.32439 0)
(1.20258 1.81824 0)
(1.58259 1.89037 0)
(1.78967 1.5987 0)
(1.81313 1.11251 0)
(1.68663 0.613714 0)
(1.45839 0.230754 0)
(1.19715 0.0162355 0)
(0.972407 -0.0793172 0)
(0.807179 -0.116378 0)
(0.692275 -0.129731 0)
(0.611139 -0.134456 0)
(0.552899 -0.137094 0)
(0.510665 -0.141142 0)
(0.479707 -0.148333 0)
(0.456524 -0.159761 0)
(0.438069 -0.176779 0)
(0.420235 -0.202009 0)
(0.399768 -0.236198 0)
(0.373345 -0.274813 0)
(-0.0533725 -0.0322468 0)
(-0.226236 0.0276975 0)
(-0.231959 0.340325 0)
(0.0646831 0.908306 0)
(0.485918 1.38286 0)
(0.870056 1.55568 0)
(1.14088 1.42381 0)
(1.26822 1.09854 0)
(1.25672 0.729153 0)
(1.15275 0.421658 0)
(1.009 0.209642 0)
(0.868855 0.0799827 0)
(0.753397 0.00465619 0)
(0.663252 -0.0400269 0)
(0.593535 -0.0680291 0)
(0.539856 -0.0876517 0)
(0.498466 -0.103912 0)
(0.466135 -0.11978 0)
(0.440205 -0.136913 0)
(0.418376 -0.156383 0)
(0.39749 -0.179915 0)
(0.373874 -0.208912 0)
(0.342998 -0.240789 0)
(-0.0497905 0.106768 0)
(-0.242432 0.152158 0)
(-0.353633 0.301061 0)
(-0.2694 0.652575 0)
(-0.00594775 1.02863 0)
(0.317037 1.22011 0)
(0.600401 1.18748 0)
(0.789191 0.992324 0)
(0.875812 0.736117 0)
(0.87684 0.495055 0)
(0.824535 0.307189 0)
(0.752407 0.176382 0)
(0.680061 0.0887265 0)
(0.615371 0.0295055 0)
(0.560393 -0.0119675 0)
(0.514907 -0.0428841 0)
(0.477539 -0.0680831 0)
(0.446516 -0.0904799 0)
(0.420188 -0.111959 0)
(0.396935 -0.13362 0)
(0.374629 -0.156409 0)
(0.350756 -0.181214 0)
(0.321407 -0.206673 0)
(-0.030999 0.227487 0)
(-0.17902 0.300529 0)
(-0.29063 0.357238 0)
(-0.292047 0.543994 0)
(-0.153792 0.784181 0)
(0.0779972 0.936239 0)
(0.318417 0.944691 0)
(0.510632 0.834931 0)
(0.629503 0.665311 0)
(0.677245 0.490733 0)
(0.674537 0.342486 0)
(0.644264 0.228014 0)
(0.602858 0.142906 0)
(0.559618 0.079844 0)
(0.518974 0.0322315 0)
(0.482517 -0.00503237 0)
(0.450516 -0.0357931 0)
(0.422496 -0.0625384 0)
(0.397411 -0.0869801 0)
(0.374298 -0.110252 0)
(0.351991 -0.132919 0)
(0.32909 -0.155335 0)
(0.303041 -0.17687 0)
(-0.0164491 0.303674 0)
(-0.101332 0.410284 0)
(-0.169017 0.421673 0)
(-0.175583 0.510399 0)
(-0.0971037 0.642571 0)
(0.0550467 0.738186 0)
(0.228459 0.751158 0)
(0.379196 0.687992 0)
(0.484244 0.579369 0)
(0.540525 0.458373 0)
(0.558174 0.346271 0)
(0.550804 0.251665 0)
(0.529795 0.175235 0)
(0.502754 0.114288 0)
(0.474121 0.065412 0)
(0.446187 0.0254638 0)
(0.419925 -0.00806482 0)
(0.395589 -0.0372769 0)
(0.372828 -0.0635149 0)
(0.35109 -0.0877148 0)
(0.329811 -0.1104 0)
(0.308383 -0.1318 0)
(0.285418 -0.1515 0)
(-0.0106603 0.342205 0)
(-0.046651 0.46358 0)
(-0.0715634 0.450045 0)
(-0.0636383 0.486215 0)
(-0.00814652 0.556467 0)
(0.0900408 0.610254 0)
(0.205136 0.61778 0)
(0.311457 0.578191 0)
(0.392575 0.506263 0)
(0.443516 0.420748 0)
(0.467741 0.335824 0)
(0.472255 0.258988 0)
(0.46403 0.192664 0)
(0.448465 0.13658 0)
(0.429208 0.0893766 0)
(0.408504 0.0493846 0)
(0.387583 0.0150073 0)
(0.367116 -0.0151244 0)
(0.347186 -0.0422551 0)
(0.32756 -0.0669483 0)
(0.30799 -0.0896687 0)
(0.288296 -0.110616 0)
(0.267778 -0.129491 0)
(-0.00833247 0.360169 0)
(-0.01686 0.477254 0)
(-0.0141303 0.448948 0)
(0.00441499 0.457059 0)
(0.0479552 0.494715 0)
(0.114224 0.52504 0)
(0.191872 0.52739 0)
(0.266865 0.49901 0)
(0.328418 0.447847 0)
(0.37157 0.384987 0)
(0.396627 0.319555 0)
(0.406851 0.257139 0)
(0.406274 0.200385 0)
(0.398469 0.150094 0)
(0.386171 0.10605 0)
(0.371302 0.0675374 0)
(0.355119 0.0336653 0)
(0.338243 0.00358514 0)
(0.32111 -0.0235606 0)
(0.303897 -0.0482738 0)
(0.286424 -0.0708413 0)
(0.26871 -0.091444 0)
(0.250413 -0.109854 0)
(-0.00565269 0.367348 0)
(-0.000903799 0.470896 0)
(0.0159681 0.43401 0)
(0.0388196 0.427312 0)
(0.0741435 0.447564 0)
(0.12224 0.464745 0)
(0.177827 0.462865 0)
(0.23294 0.439993 0)
(0.280464 0.401175 0)
(0.316358 0.353146 0)
(0.339866 0.301605 0)
(0.352373 0.250462 0)
(0.356111 0.202045 0)
(0.353348 0.157507 0)
(0.346028 0.117199 0)
(0.335664 0.0809735 0)
(0.323349 0.048418 0)
(0.309793 0.0190275 0)
(0.295423 -0.00756439 0)
(0.280536 -0.0318622 0)
(0.2652 -0.0540752 0)
(0.24951 -0.0743194 0)
(0.233364 -0.0924669 0)
(-0.00264004 0.367421 0)
(0.00881087 0.455503 0)
(0.0313857 0.413219 0)
(0.0549482 0.399607 0)
(0.084397 0.410618 0)
(0.121413 0.419655 0)
(0.163445 0.414562 0)
(0.20555 0.394702 0)
(0.242951 0.363671 0)
(0.272671 0.325609 0)
(0.293764 0.284015 0)
(0.306704 0.241553 0)
(0.31267 0.200099 0)
(0.313054 0.160819 0)
(0.309187 0.124298 0)
(0.302208 0.0906991 0)
(0.29301 0.059924 0)
(0.282251 0.0317541 0)
(0.270364 0.00595228 0)
(0.257685 -0.0176968 0)
(0.244416 -0.0394318 0)
(0.230728 -0.0592999 0)
(0.216599 -0.0772728 0)
(-0.000146356 0.362577 0)
(0.014871 0.435764 0)
(0.0390197 0.390552 0)
(0.0616033 0.374609 0)
(0.0866375 0.380582 0)
(0.11634 0.384389 0)
(0.149399 0.377077 0)
(0.182516 0.359123 0)
(0.212447 0.333278 0)
(0.237098 0.3021 0)
(0.255613 0.267711 0)
(0.268044 0.231909 0)
(0.274968 0.196146 0)
(0.277215 0.161466 0)
(0.275671 0.128506 0)
(0.271168 0.0975769 0)
(0.264407 0.0687657 0)
(0.255952 0.0420298 0)
(0.246228 0.0172677 0)
(0.235552 -0.00561383 0)
(0.22416 -0.0267743 0)
(0.212298 -0.0462535 0)
(0.200045 -0.0640407 0)
(0.00168148 0.354491 0)
(0.0183261 0.414391 0)
(0.0420166 0.3682 0)
(0.0629049 0.352297 0)
(0.0845048 0.355495 0)
(0.109072 0.355882 0)
(0.135846 0.347153 0)
(0.162504 0.330602 0)
(0.18683 0.308401 0)
(0.207381 0.282118 0)
(0.223465 0.253029 0)
(0.234949 0.222356 0)
(0.242082 0.191205 0)
(0.245341 0.160453 0)
(0.245308 0.130704 0)
(0.242573 0.10232 0)
(0.237678 0.0754847 0)
(0.231089 0.050261 0)
(0.223184 0.0266416 0)
(0.214264 0.00459406 0)
(0.204598 -0.0159351 0)
(0.194455 -0.0349859 0)
(0.183911 -0.0525942 0)
(0.00302127 0.344449 0)
(0.0199845 0.393064 0)
(0.0421292 0.347182 0)
(0.0610839 0.332483 0)
(0.0799204 0.334135 0)
(0.100688 0.332258 0)
(0.122862 0.322723 0)
(0.144733 0.307339 0)
(0.164781 0.287827 0)
(0.182026 0.265131 0)
(0.195932 0.240018 0)
(0.206307 0.213331 0)
(0.213225 0.185911 0)
(0.216949 0.15847 0)
(0.217857 0.131543 0)
(0.216366 0.105492 0)
(0.212885 0.0805414 0)
(0.207793 0.0568101 0)
(0.201417 0.0343491 0)
(0.194048 0.0131746 0)
(0.185928 -0.00671096 0)
(0.177313 -0.0253829 0)
(0.168369 -0.0428497 0)
(0.00404723 0.333291 0)
(0.0205203 0.372817 0)
(0.0405087 0.327973 0)
(0.0575133 0.314929 0)
(0.0740468 0.315685 0)
(0.0918629 0.312315 0)
(0.110532 0.302425 0)
(0.128745 0.288083 0)
(0.145461 0.270645 0)
(0.160024 0.250661 0)
(0.172027 0.228593 0)
(0.181273 0.20504 0)
(0.187752 0.180642 0)
(0.191604 0.155973 0)
(0.193069 0.131487 0)
(0.192442 0.107521 0)
(0.190031 0.0843031 0)
(0.186139 0.0619798 0)
(0.181044 0.0406319 0)
(0.175013 0.0203035 0)
(0.16823 0.00100348 0)
(0.160991 -0.0172646 0)
(0.153478 -0.0345893 0)
(0.00486902 0.321513 0)
(0.0204122 0.354252 0)
(0.0379132 0.310783 0)
(0.0530462 0.29942 0)
(0.0675905 0.299604 0)
(0.0830149 0.295266 0)
(0.0989092 0.285339 0)
(0.114237 0.27196 0)
(0.1283 0.25618 0)
(0.14066 0.238303 0)
(0.151012 0.218614 0)
(0.15918 0.197552 0)
(0.165116 0.175614 0)
(0.16889 0.153254 0)
(0.170653 0.130856 0)
(0.170613 0.108717 0)
(0.168997 0.0870574 0)
(0.16604 0.0660271 0)
(0.161971 0.0457208 0)
(0.157008 0.0261957 0)
(0.151342 0.0074653 0)
(0.145193 -0.0104128 0)
(0.138691 -0.0276005 0)
(0.00553683 0.309422 0)
(0.0199517 0.337665 0)
(0.0348504 0.295701 0)
(0.0482116 0.285784 0)
(0.0609646 0.285525 0)
(0.0743747 0.280584 0)
(0.0879877 0.27084 0)
(0.100964 0.258357 0)
(0.112855 0.243938 0)
(0.123371 0.227735 0)
(0.132282 0.209935 0)
(0.139439 0.190876 0)
(0.144784 0.170945 0)
(0.148341 0.150509 0)
(0.150205 0.129886 0)
(0.150514 0.109338 0)
(0.14943 0.0890666 0)
(0.147126 0.0692193 0)
(0.143774 0.049896 0)
(0.139541 0.0311607 0)
(0.134579 0.0130371 0)
(0.12908 -0.00443761 0)
(0.123096 -0.0214033 0)
(0.00604461 0.297202 0)
(0.0192661 0.32305 0)
(0.03165 0.282709 0)
(0.0433181 0.273886 0)
(0.0543827 0.273198 0)
(0.0660257 0.267902 0)
(0.0776786 0.258478 0)
(0.0886616 0.246826 0)
(0.0987147 0.233543 0)
(0.107637 0.218693 0)
(0.115256 0.202416 0)
(0.12145 0.184983 0)
(0.126155 0.166702 0)
(0.12937 0.147875 0)
(0.131145 0.128769 0)
(0.131562 0.109614 0)
(0.130728 0.0905953 0)
(0.128757 0.071854 0)
(0.125765 0.053491 0)
(0.121872 0.0355724 0)
(0.117187 0.0181229 0)
(0.111846 0.00117598 0)
(0.105895 -0.015419 0)
(0.00636525 0.285207 0)
(0.0184285 0.310402 0)
(0.0285526 0.271815 0)
(0.0385557 0.263704 0)
(0.0479685 0.262552 0)
(0.058003 0.257067 0)
(0.0678973 0.24804 0)
(0.0771248 0.237149 0)
(0.0855588 0.224824 0)
(0.0930481 0.211081 0)
(0.0994625 0.196046 0)
(0.104702 0.179946 0)
(0.108699 0.163036 0)
(0.111434 0.145568 0)
(0.112923 0.127775 0)
(0.113207 0.10986 0)
(0.112342 0.0919951 0)
(0.110396 0.0743158 0)
(0.107441 0.0569202 0)
(0.103556 0.0398706 0)
(0.0988183 0.0231872 0)
(0.0933545 0.00689206 0)
(0.0872353 -0.00916237 0)
(0.00641265 0.273107 0)
(0.0172749 0.298974 0)
(0.0254396 0.262649 0)
(0.0337827 0.254996 0)
(0.0415223 0.253294 0)
(0.0499968 0.247696 0)
(0.0581921 0.239096 0)
(0.0657696 0.228902 0)
(0.0726755 0.217395 0)
(0.0787823 0.204581 0)
(0.0839959 0.19059 0)
(0.0882289 0.175616 0)
(0.0914163 0.159877 0)
(0.0935282 0.143593 0)
(0.0945586 0.12697 0)
(0.09452 0.110191 0)
(0.0934396 0.0934159 0)
(0.091354 0.0767706 0)
(0.0883119 0.0603435 0)
(0.0843727 0.0441832 0)
(0.0796149 0.0282948 0)
(0.0741822 0.0126653 0)
(0.0681058 -0.00291454 0)
(0.00639152 0.263527 0)
(0.0164047 0.290522 0)
(0.0230163 0.256125 0)
(0.0297739 0.248644 0)