/*--------------------------------*- C++ -*----------------------------------*\
| =========                 |                                                 |
| \\      /  F ield         | OpenFOAM: The Open Source CFD Toolbox           |
|  \\    /   O peration     | Version:  5.x                                   |
|   \\  /    A nd           | Web:      www.OpenFOAM.org                      |
|    \\/     M anipulation  |                                                 |
\*---------------------------------------------------------------------------*/
FoamFile
{
    version     2.0;
    format      ascii;
    class       volScalarField;
    location    "0.4";
    object      alpha.water;
}
// * * * * * * * * * * * * * * * * * * * * * * * * * * * * * * * * * * * * * //

dimensions      [0 0 0 0 0 0 0];

internalField   nonuniform List<scalar> 
2268
(
1
1
1
1
1
1
1
1
1
1
1
1
1
1
1
1
1
1
1
0.964862
0.729816
0.881569
1
0.999999
1
1
1
1
1
1
1
1
1
1
1
1
1
1
1
1
1
1
0.99783
0.871006
0.917427
1
1
1
1
1
1
1
1
1
1
1
1
1
1
1
1
1
1
1
1
1
0.999905
0.998948
0.997842
1
1
1
1
1
1
1
1
1
1
1
1
1
1
1
1
1
1
1
1
0.999998
0.999999
0.99507
1
1
1
1
1
1
1
1
1
1
1
1
1
1
1
1
1
1
1
1
1
1
0.998606
1
1
1
1
1
1
1
1
1
1
1
1
1
1
1
1
1
1
1
1
1
1
1
1
1
1
1
1
1
1
1
1
1
1
1
1
1
1
1
1
1
1
1
1
1
1
1
1
1
0.999999
0.999999
1
1
1
1
1
1
1
1
1
1
1
1
1
1
1
1
1
1
0
0
1.07198e-09
1.13121e-10
2.00429e-13
1.26851e-14
8.29712e-17
1.69136e-19
5.39809e-21
3.75348e-22
3.16441e-22
7.10774e-22
6.79012e-22
1.65717e-22
3.97199e-23
6.78408e-23
1.91646e-22
1.28053e-22
2.12883e-23
0
4.02323e-09
4.72364e-08
3.32595e-09
1.79694e-12
1.29305e-14
1.16045e-18
2.69061e-18
1.59421e-19
3.09402e-20
5.40659e-20
1.50609e-19
1.70548e-19
7.90506e-20
1.99229e-20
1.72867e-20
3.7295e-20
4.02533e-20
5.90901e-21
2.3399e-23
1.1961e-07
1.0318e-06
8.83983e-08
5.68088e-11
2.99417e-13
-1.59078e-15
1.19965e-16
1.74282e-17
5.64892e-18
5.39434e-18
1.46793e-17
1.95241e-17
1.6234e-17
4.53868e-18
2.36965e-18
3.40615e-18
3.87112e-18
6.60374e-19
3.78903e-22
6.52477e-05
2.58835e-05
4.28494e-07
8.71516e-10
-1.50201e-11
-1.04223e-14
3.10034e-15
1.53199e-15
6.09193e-16
4.34867e-16
9.30189e-16
1.37051e-15
1.49652e-15
6.97657e-16
2.36846e-16
2.02971e-16
2.25858e-16
5.19156e-17
5.29725e-05
0.000231067
0.000219682
1.75641e-05
9.45791e-09
2.46083e-11
-7.61974e-13
9.17127e-15
1.93658e-14
1.91204e-14
2.5097e-14
3.78071e-14
7.85304e-14
5.18228e-14
3.79874e-14
1.67502e-14
9.30001e-15
9.57872e-15
3.33686e-15
0.000211511
0.000243417
0.000316616
3.37953e-05
1.53856e-08
4.35057e-11
-6.06043e-14
2.90698e-14
2.40337e-13
8.21578e-13
1.19364e-12
6.25258e-13
1.99788e-12
8.71146e-13
4.34226e-13
2.3616e-13
2.4867e-13
2.42599e-13
1.07946e-13
-2.89243e-22
0.000346434
0.000531195
8.00202e-05
2.25479e-08
3.15857e-12
2.15992e-13
2.55948e-13
6.93378e-12
2.86698e-11
3.76491e-11
2.19724e-12
9.20348e-12
4.37433e-12
1.65975e-12
5.59472e-13
2.173e-12
2.34189e-12
5.74002e-13
1.89371e-19
0.00066665
0.00115063
8.74631e-05
1.47274e-08
2.96947e-13
7.88687e-14
7.88687e-14
7.88686e-14
2.11933e-13
8.82085e-12
2.19846e-12
9.26216e-12
4.36068e-12
2.0814e-12
5.11877e-12
4.56738e-12
7.14844e-12
-1.14253e-26
1
1
0.99999
0.99998
0.999983
0.999989
0.999993
0.999996
0.999998
0.999999
1
1
1
1
1
1
1
1
1
1
1
1
1
1
0.999992
0.999852
0.999775
0.999808
0.999855
0.999896
0.999927
0.999948
0.999963
0.999974
0.999984
0.999992
0.999997
1
1
1
1
1
1
1
1
1
1
0.961147
0.797489
0.749249
0.770908
0.773642
0.772149
0.780239
0.793841
0.808163
0.822973
0.841472
0.866901
0.900562
0.939464
0.985568
1
1
1
1
1
1
1
0.735628
0.332074
0.077911
0.0697348
0.085027
0.0753739
0.065657
0.0679199
0.0747209
0.083166
0.0924221
0.105558
0.126846
0.160855
0.209301
0.277709
0.414924
0.648128
0.930382
1
1
1
1
0.00395118
1.98066e-18
6.31049e-17
1.81615e-15
1.53196e-14
2.71291e-14
1.04969e-13
5.69808e-13
1.64007e-12
1.23081e-11
2.91849e-10
1.22109e-09
1.88077e-09
3.65044e-09
5.30019e-08
1.16308e-06
0.0021723
0.0246254
0.105657
0.270543
0.560197
0.923519
0.999999
5.32548e-36
3.79696e-20
2.00454e-18
6.31285e-17
6.2819e-14
3.93018e-12
2.40448e-11
3.94926e-11
3.9995e-11
1.68956e-08
6.88377e-08
1.84872e-08
3.65044e-09
3.86494e-08
7.39732e-05
0.000315547
0.00022468
0.000228319
0.000228319
0.000525356
0.0141741
0.123642
0.362233
-2.6464e-67
2.0319e-19
2.52431e-16
3.53789e-14
2.22967e-12
3.78018e-11
1.35298e-10
1.59276e-10
1.14509e-10
6.17175e-08
2.89764e-07
2.2668e-07
5.71888e-08
9.85545e-08
0.000291225
0.000659866
0.00054812
0.000357625
0.000700584
0.000736405
0.000408085
0.000141195
0.000325508
-1.3232e-68
5.09156e-20
3.39586e-16
6.51281e-14
4.88672e-12
6.81119e-11
2.13054e-10
2.31978e-10
1.85833e-10
6.15347e-08
2.89854e-07
2.89181e-07
8.71196e-08
2.34516e-07
0.000231051
0.000452695
0.000578502
0.000581436
0.000567483
0.000731162
0.000573669
5.3143e-05
6.15492e-05
0
1.14553e-20
1.37302e-16
5.75678e-14
5.05415e-12
7.11201e-11
2.2647e-10
2.47087e-10
1.29409e-10
1.82567e-08
2.28648e-07
8.11106e-08
4.95212e-07
3.73355e-06
1.90574e-08
4.01479e-10
7.44584e-05
0.000259032
0.000118101
9.13852e-05
6.32304e-05
5.07954e-05
4.98788e-05
-7.52657e-20
-3.94479e-20
3.68999e-17
3.33712e-14
3.72928e-12
5.15538e-11
1.77503e-10
2.05569e-10
1.28906e-10
5.44799e-10
8.15168e-11
9.86527e-11
9.70503e-07
7.10049e-06
5.02674e-08
1.94221e-10
4.01479e-10
1.918e-08
0.000266408
0.000389749
0.000204053
4.99479e-05
4.9761e-05
-7.81668e-20
2.22072e-35
1.03158e-17
1.5716e-14
1.94685e-12
2.27585e-11
7.83857e-11
8.33031e-11
6.56762e-11
7.55668e-11
7.68156e-11
3.53469e-09
7.81039e-07
2.56715e-07
2.24361e-10
1.09516e-11
1.70732e-10
2.09833e-05
0.000260586
0.000392732
0.000389726
0.000159171
4.97987e-05
-4.3086e-20
3.05319e-21
4.97976e-18
4.90411e-15
6.90964e-13
6.8761e-12
2.39296e-11
2.37461e-11
2.72544e-11
1.47463e-10
8.3132e-11
7.23362e-11
6.98851e-08
9.14359e-12
8.75682e-12
7.59033e-12
1.78811e-12
1.56592e-11
6.95942e-10
0.000116235
0.000343676
0.00043162
0.00043162
-2.06768e-20
1.34424e-23
3.09849e-18
9.93456e-16
1.73168e-13
1.65511e-12
5.28938e-12
5.67538e-12
9.09629e-12
1.023e-10
8.20475e-11
7.15055e-11
9.36248e-12
9.25314e-12
9.66543e-12
7.56199e-12
1.42768e-12
2.74276e-13
2.76693e-13
2.64442e-13
3.57827e-13
1.88686e-05
5.772e-05
-1.11501e-20
0
1.76377e-18
1.54361e-16
3.2669e-14
3.22756e-13
9.18015e-13
1.11609e-12
2.0813e-12
1.64058e-11
2.1617e-11
1.92632e-11
9.95701e-12
1.08256e-11
1.07081e-11
6.49948e-12
1.65403e-12
2.71337e-13
2.77437e-13
2.87552e-13
2.98221e-13
3.57826e-13
5.38161e-13
-7.64063e-21
-2.84829e-21
8.64831e-19
2.05551e-17
4.72163e-15
4.68897e-14
1.29028e-13
1.92738e-13
4.16836e-13
1.13217e-12
4.33772e-12
9.03682e-12
1.06048e-11
8.1757e-12
4.90319e-12
1.41569e-12
4.56587e-13
2.70401e-13
4.17711e-13
5.95841e-13
5.74034e-13
5.83605e-13
5.98126e-13
-5.76461e-21
-8.06631e-21
3.02496e-19
2.46424e-18
5.2118e-16
5.19289e-15
1.47606e-14
3.00044e-14
8.24772e-14
2.80996e-13
1.16629e-12
1.97932e-12
2.551e-12
6.56667e-13
3.4089e-13
1.95173e-13
7.17146e-14
2.10698e-14
2.39965e-14
7.27844e-14
2.6922e-13
1.05824e-12
2.27652e-12
-4.03141e-21
-7.7324e-21
6.42611e-20
2.99187e-19
4.25735e-17
4.29538e-16
1.4935e-15
4.75857e-15
1.63845e-14
4.61961e-14
1.48034e-13
1.62631e-13
1.28665e-13
7.01142e-14
3.48753e-14
1.9623e-14
8.17035e-15
1.94685e-15
1.67116e-15
6.08452e-15
3.62578e-14
1.8592e-13
8.27529e-13
-2.40969e-21
-5.39238e-21
6.5625e-21
3.6435e-20
2.45564e-18
2.64244e-17
1.59501e-16
8.3111e-16
3.32397e-15
8.69292e-15
1.73031e-14
1.8864e-14
1.58599e-14
8.66822e-15
3.31978e-15
1.37665e-15
4.94036e-16
1.58032e-16
2.27701e-16
1.29169e-15
9.66651e-15
6.2479e-14
3.9198e-13
-1.18357e-21
-2.96919e-21
-6.05575e-22
3.22527e-21
9.15641e-20
1.44291e-18
2.00387e-17
1.43045e-16
6.25676e-16
1.71619e-15
3.25154e-15
3.4232e-15
2.88614e-15
1.54888e-15
4.65281e-16
1.15532e-16
2.7564e-17
1.50577e-17
3.36922e-17
2.98433e-16
2.75169e-15
2.48622e-14
2.32741e-13
-4.60893e-22
-1.27262e-21
-1.16653e-21
-9.4574e-24
1.71651e-21
1.04735e-19
2.35545e-18
2.00907e-17
1.0234e-16
3.03257e-16
6.24568e-16
6.67582e-16
5.63141e-16
3.0478e-16
8.81955e-17
1.60526e-17
2.53423e-18
1.95053e-18
6.71551e-18
8.104e-17
8.93354e-16
1.21326e-14
1.60258e-13
-1.35576e-22
-4.02021e-22
-6.62512e-22
-1.56354e-22
1.9206e-41
8.28916e-21
1.82746e-19
2.10176e-18
1.31087e-17
4.25492e-17
9.18375e-17
9.85478e-17
8.34671e-17
4.62513e-17
1.36125e-17
1.86217e-18
1.69156e-19
2.12592e-19
1.57341e-18
2.36945e-17
3.08953e-16
6.58669e-15
1.13101e-13
-2.80254e-23
-8.56559e-23
-1.92739e-22
-6.92223e-23
-1.30108e-23
3.12859e-22
7.96932e-21
1.62991e-19
1.21342e-18
4.26929e-18
9.26457e-18
9.84956e-18
8.35261e-18
4.76177e-18
1.4724e-18
1.66279e-19
1.4148e-20
3.19471e-20
4.34291e-19
6.94726e-18
1.06711e-16
3.57454e-15
7.33708e-14
-3.62449e-24
-1.07393e-23
-2.61064e-23
-9.18234e-24
-2.14434e-24
5.29221e-27
2.16373e-22
9.19797e-21
7.61303e-20
2.82597e-19
6.00934e-19
6.30736e-19
5.38273e-19
3.23582e-19
1.13988e-19
1.58618e-20
2.43238e-21
7.67283e-21
1.18509e-19
1.91013e-18
3.45849e-17
1.77222e-15
4.14323e-14
-2.31579e-25
-6.62282e-25
-1.61914e-24
-5.52984e-25
-1.25516e-25
6.83914e-29
6.56217e-24
3.2216e-22
2.90644e-21
1.14196e-20
2.32645e-20
2.40963e-20
2.09006e-20
1.3461e-20
5.37762e-21
8.64255e-22
2.96398e-22
1.60531e-21
2.96192e-20
4.80924e-19
1.01835e-17
7.67989e-16
2.08359e-14
-1.80992e-46
0
1.47813e-52
4.91765e-33
5.24662e-30
7.9358e-30
4.76996e-27
3.9208e-24
5.19669e-23
2.29555e-22
5.00673e-22
5.33712e-22
4.8237e-22
3.30796e-22
1.37885e-22
2.33243e-23
2.66015e-23
3.28583e-22
6.89261e-21
1.13183e-19
2.72841e-18
2.94894e-16
9.4573e-15
-9.87482e-47
1.56313e-45
9.99323e-42
3.91625e-40
3.65387e-35
2.87465e-33
1.14187e-29
1.26865e-26
1.83277e-25
8.04378e-25
1.91096e-24
2.32489e-24
2.19944e-24
1.67471e-24
8.09023e-25
5.90246e-25
2.81862e-24
6.71974e-23
1.52291e-21
2.61852e-20
6.80862e-19
1.04588e-16
3.92291e-15
-4.01195e-47
-9.13595e-48
1.01057e-47
9.23673e-43
3.81697e-39
2.28878e-37
1.52205e-32
4.05306e-29
8.88259e-28
5.16668e-27
1.51548e-26
2.94457e-26
3.42166e-26
3.33431e-26
2.43688e-26
3.20773e-26
4.71194e-25
1.31003e-23
3.2642e-22
6.22726e-21
1.63744e-19
3.48193e-17
1.53252e-15
-1.07954e-47
-2.73938e-48
-2.15888e-49
4.58351e-46
8.95294e-42
7.89516e-40
4.65998e-38
1.75426e-34
5.20916e-31
1.37845e-29
8.36998e-29
2.55923e-28
3.92175e-28
3.78663e-28
3.33259e-28
2.23146e-27
7.8488e-26
2.44003e-24
6.80246e-23
1.5051e-21
3.90958e-20
1.10485e-17
5.61719e-16
-1.4435e-48
-3.50206e-49
-6.50321e-50
1.05833e-50
2.79885e-46
7.21541e-44
6.20762e-42
1.01588e-38
2.74334e-34
3.12955e-32
2.55834e-31
8.95393e-31
1.53835e-30
1.54762e-30
7.4123e-30
3.19106e-28
1.22916e-26
4.27879e-25
1.34001e-23
3.447e-22
9.20229e-21
3.32465e-18
1.88765e-16
-1.4708e-60
-1.1809e-58
5.1375e-54
7.71705e-53
6.31822e-49
6.78591e-47
5.17977e-45
4.09914e-43
6.78918e-40
3.3646e-36
1.35867e-34
9.82256e-34
1.97337e-33
1.67732e-32
8.94973e-31
4.03072e-29
1.74377e-27
6.87807e-26
2.39337e-24
7.00676e-23
2.0295e-21
9.20531e-19
5.64045e-17
-7.97646e-61
-6.74491e-59
1.44739e-59
1.61723e-55
1.01447e-50
1.491e-48
1.59137e-46
1.62561e-44
1.1193e-42
8.90014e-41
8.09309e-39
3.89618e-37
2.37352e-35
1.72389e-33
9.05281e-32
4.65448e-30
2.20767e-28
9.79694e-27
3.75503e-25
1.23893e-23
3.96714e-22
2.249e-19
1.45977e-17
-3.22915e-61
-2.61234e-59
-8.40297e-61
6.12547e-57
2.99561e-52
4.85859e-50
5.97521e-48
6.84664e-46
6.49922e-44
5.41297e-42
3.6893e-40
3.10839e-38
2.22016e-36
1.35234e-34
8.11377e-33
4.6155e-31
2.43434e-29
1.20316e-27
5.1251e-26
1.9226e-24
6.70747e-23
4.65777e-20
3.2104e-18
-8.68338e-62
-6.80529e-60
-5.51859e-61
1.13402e-58
7.34501e-54
1.31047e-51
1.76e-49
2.21318e-47
2.16534e-45
2.26857e-43
1.93561e-41
1.65736e-39
1.18208e-37
9.27187e-36
6.12234e-34
3.92255e-32
2.31119e-30
1.2603e-28
6.09402e-27
2.62046e-25
9.87053e-24
7.93108e-21
5.92807e-19
-1.16365e-62
-8.96519e-61
0
5.65035e-60
1.18233e-55
2.37738e-53
3.6393e-51
5.29252e-49
6.07443e-47
7.16457e-45
6.77188e-43
7.05466e-41
5.76983e-39
5.25081e-37
3.87315e-35
2.72991e-33
1.84105e-31
1.1216e-29
6.25003e-28
3.08137e-26
1.27977e-24
1.08826e-21
9.11742e-20
-3.78254e-74
-3.13754e-73
2.6708e-62
1.70953e-61
1.23755e-57
3.02127e-55
5.29817e-53
9.13866e-51
1.25792e-48
1.72448e-46
1.98902e-44
2.33664e-42
2.24617e-40
2.28767e-38
1.99101e-36
1.50912e-34
1.17029e-32
8.31565e-31
5.36383e-29
3.04995e-27
1.44721e-25
1.18474e-22
1.15327e-20
-1.911e-74
-2.06043e-71
3.15691e-67
1.88302e-63
7.32637e-60
2.19974e-57
5.17356e-55
9.94207e-53
1.81988e-50
2.78241e-48
4.15805e-46
5.35051e-44
6.18124e-42
7.38595e-40
7.23075e-38
6.40398e-36
5.53284e-34
4.81833e-32
3.6284e-30
2.4274e-28
1.34307e-26
9.99352e-24
1.16609e-21
-7.23904e-75
-9.05067e-72
1.74538e-69
9.75325e-66
1.90156e-62
6.65286e-60
2.20667e-57
5.5069e-55
1.32191e-52
2.52756e-50
4.84743e-48
7.25672e-46
1.14295e-43
1.52242e-41
1.70476e-39
1.88505e-37
1.97309e-35
1.99756e-33
1.76839e-31
1.43648e-29
9.04269e-28
6.22684e-25
8.92448e-23
-1.83215e-75
-2.42255e-72
1.09543e-73
2.96434e-69
7.32388e-66
5.55625e-63
2.06665e-60
9.3059e-58
2.83282e-55
8.87768e-53
1.90751e-50
5.17054e-48
9.11154e-46
1.41964e-43
2.14172e-41
3.47576e-39
4.61141e-37
5.18773e-35
5.41006e-33
5.67512e-31
3.85581e-29
2.72719e-26
4.7363e-24
-2.33207e-76
-3.30561e-73
-2.27427e-74
3.604e-74
1.7515e-70
2.38557e-67
1.78987e-64
1.15102e-61
4.93404e-59
2.66342e-56
9.12924e-54
2.85452e-51
1.14719e-48
2.96062e-46
7.12488e-44
1.49613e-41
2.86325e-39
4.82369e-37
6.92081e-35
1.15713e-32
8.29946e-31
9.59228e-28
1.52289e-25
1.51e-96
0
2.3867e-91
5.16026e-81
4.29018e-77
1.07596e-73
1.56979e-70
1.73708e-67
1.2113e-64
1.10218e-61
6.43474e-59
5.25537e-56
2.38674e-53
1.09951e-50
4.69277e-48
1.85216e-45
6.64104e-43
2.01188e-40
5.35195e-38
1.50103e-35
1.07772e-33
2.31132e-29
2.25564e-27
6.30993e-108
9.07534e-106
-1.67081e-98
2.31539e-94
4.83265e-90
9.63046e-108
7.57065e-83
2.22959e-79
3.79839e-76
9.31233e-73
1.47754e-69
3.08633e-66
4.09711e-63
5.22279e-60
6.12829e-57
6.61765e-54
9.6822e-51
7.60822e-48
5.608e-45
1.9621e-42
1.50482e-36
1.17893e-31
5.3771e-30
0
-9.49898e-124
-9.37645e-126
-5.82832e-128
1.89751e-107
9.37086e-108
5.88271e-97
1.1874e-97
0
7.6721e-87
0
0
-3.65527e-115
4.34152e-74
5.46647e-71
4.23357e-68
7.63965e-65
6.45412e-62
0
1.41489e-56
6.14918e-50
6.19835e-45
2.66165e-43
1
1
0.800432
0.24989
1
1
1
0.953417
1
1
1
0.999963
1
1
1
0.999998
1
1
0.999998
0.999983
0.594321
0.756434
0.928881
0.999976
0.0158104
0.050345
0.118589
0.224952
8.22575e-05
0.000115872
0.000176977
0.000269033
5.0517e-05
5.45191e-05
6.17068e-05
7.32532e-05
4.99479e-05
5.1356e-05
5.50423e-05
6.19242e-05
6.46878e-05
0.000183759
0.000363994
0.000490129
0.00043162
0.000381069
0.000439275
0.000611138
4.28706e-05
3.37626e-05
4.91226e-05
9.69163e-05
1.0802e-12
1.05975e-09
7.8504e-11
9.63355e-10
6.3998e-13
1.0802e-12
2.58398e-12
5.01681e-12
3.01394e-12
3.48414e-12
3.49273e-12
3.58444e-12
1.81308e-12
3.02882e-12
4.70808e-12
6.24293e-12
9.46519e-13
1.70502e-12
2.89683e-12
3.8212e-12
6.12579e-13
1.15859e-12
2.10981e-12
3.23151e-12
4.45015e-13
8.64433e-13
1.65763e-12
2.85972e-12
3.23818e-13
6.28752e-13
1.32142e-12
2.09306e-12
2.14747e-13
4.06224e-13
1.01122e-12
1.52657e-12
1.24748e-13
2.33361e-13
5.83473e-13
9.74684e-13
6.38752e-14
1.23535e-13
2.47299e-13
4.51148e-13
2.88921e-14
5.65517e-14
1.13609e-13
2.08128e-13
1.20302e-14
2.33954e-14
4.81386e-14
9.42128e-14
4.69373e-15
9.01872e-15
1.96926e-14
4.44843e-14
1.70552e-15
3.24207e-15
7.95801e-15
2.19825e-14
5.62138e-16
1.06923e-15
3.12606e-15
1.07664e-14
1.63393e-16
3.16655e-16
1.15362e-15
4.95923e-15
4.09658e-17
8.2826e-17
3.89379e-16
2.06018e-15
8.73218e-18
1.90177e-17
1.17781e-16
7.41662e-16
1.57064e-18
3.85915e-18
3.14225e-17
2.23364e-16
2.37295e-19
7.0386e-19
7.41074e-18
5.50947e-17
2.97598e-20
1.16751e-19
1.52494e-18
1.0807e-17
2.99793e-21
1.70246e-20
2.58188e-19
1.58783e-18
2.26119e-22
1.92061e-21
3.1834e-20
1.59497e-19
1.1209e-23
1.28663e-22
2.20978e-21
1.00585e-20
2.79682e-25
2.56779e-24
4.18532e-23
4.8924e-22
2.02176e-27
1.58683e-26
5.56992e-25
2.39767e-23
2.31806e-30
9.20549e-31
5.80417e-29
3.19357e-27
5.15655e-44
8.60378e-63
0
0
0.00247879
0.00105006
0.00115127
2.78061e-05
5.44299e-08
6.93416e-10
2.96947e-13
1.10367e-10
2.12045e-13
3.42397e-08
1.27937e-07
6.41515e-10
7.80131e-12
3.64497e-12
1.66591e-11
1.53868e-10
7.78708e-11
1.23652e-10
-3.66738e-25
0.219244
0.0447174
1.74226e-06
2.31296e-08
1.5454e-08
1.59121e-09
5.99808e-06
2.21899e-05
8.31474e-08
4.01278e-09
8.62732e-10
3.35586e-10
1.03146e-11
5.37941e-11
2.20833e-10
4.17965e-09
9.05811e-10
1.52313e-09
-1.87371e-22
0.790821
0.307842
7.22546e-08
1.93177e-08
1.93452e-08
1.06026e-08
6.98251e-07
1.55844e-06
8.42352e-08
1.83949e-05
8.05584e-05
9.68503e-10
2.34264e-10
4.6572e-09
7.13955e-07
1.85003e-07
2.50865e-08
3.67183e-08
-1.15496e-10
0.999958
0.974666
0.278034
7.22546e-08
0.0677217
2.77534e-08
4.15045e-07
7.33445e-07
7.63282e-07
1.33092e-05
8.24612e-07
2.33732e-07
3.24366e-08
4.2336e-07
2.02504e-05
5.90565e-06
5.68944e-07
6.90613e-07
-9.46899e-11
0.999976
0.999737
0.948962
0.636187
0.732385
0.703341
0.410365
0.426734
0.603319
0.480506
0.133215
0.0014707
2.55982e-06
0.00313147
3.34467e-05
0.00011371
9.9357e-06
9.91115e-06
-8.85706e-09
0.999737
0.999269
0.999044
0.996805
0.984906
0.975348
0.971255
0.972648
0.974732
0.974244
0.911887
0.814479
0.731297
0.460793
0.0798855
0.0421738
0.000134704
0.000101502
-1.19081e-06
0.47555
0.764822
0.917658
0.983591
0.975348
0.97552
0.975348
0.974952
0.974732
0.974732
0.974722
0.973263
0.96912
0.959659
0.955692
0.697658
0.0681468
0.00073404
-5.3517e-06
0.00368575
0.0612649
0.168011
0.300055
0.443746
0.541912
0.600568
0.63461
0.662655
0.709421
0.793224
0.955459
0.96297
0.95895
0.958384
0.958188
0.667997
0.0875884
0.125239
9.76972e-05
0.000154623
0.000291107
0.000592039
0.0020129
0.0084644
0.0164432
0.0239078
0.0320645
0.0478031
0.0851958
0.180851
0.357208
0.76923
0.958188
0.955618
0.952528
0.575673
0.528179
7.32549e-05
9.77007e-05
0.000160275
0.000362468
0.000589781
0.000184042
1.92787e-05
1.62366e-05
1.99059e-05
2.7176e-05
5.37235e-05
0.000146331
0.000468658
0.0419158
0.383545
0.93359
0.944212
0.910938
0.679788
0.000527384
0.0005632
0.000627971
0.000670126
0.000612138
0.000291517
4.37093e-07
2.90278e-07
2.66635e-07
6.86645e-08
9.67939e-07
4.07501e-06
1.90268e-05
0.000137623
0.00115595
0.563728
0.93622
0.930537
0.616734
0.000611448
0.000611138
0.000545885
0.00026893
4.33932e-05
7.46868e-06
1.01386e-08
4.14198e-09
2.29077e-07
2.5862e-07
2.94328e-07
3.68205e-07
9.92783e-07
9.93773e-06
0.000137624
0.250485
0.878728
0.925141
0.582948
0.000150072
8.59494e-05
3.81884e-05
7.72899e-08
1.82183e-08
3.8895e-09
4.84307e-10
3.20235e-10
2.3768e-07
2.83245e-07
2.84845e-07
2.95026e-07
4.17174e-07
1.17628e-06
9.93773e-06
0.100258
0.764177
0.920813
0.531933
4.91392e-09
7.94706e-09
7.68423e-09
2.05332e-09
8.10958e-10
3.99283e-10
3.23025e-10
2.86768e-10
2.86768e-10
1.77785e-06
2.88393e-06
4.71697e-07
5.44725e-07
8.87754e-07
1.39639e-05
0.0118401
0.633101
0.913945
0.454013
2.68631e-11
1.25807e-10
3.05258e-10
4.62764e-10
4.41724e-10
3.40494e-10
3.36589e-10
2.93531e-10
2.86768e-10
8.04817e-07
4.32894e-06
4.26348e-06
1.05901e-06
5.61644e-06
4.22534e-05
7.85941e-05
0.577126
0.823702
0.297843
5.21331e-12
5.03934e-11
2.15482e-10
4.4471e-10
4.85918e-10
4.83997e-10
1.16573e-09
2.73982e-09
3.56962e-09
1.82222e-09
2.4071e-06
4.52034e-06
4.38304e-06
2.67247e-06
4.32095e-06
0.00424504
0.63793
0.546103
0.0948216
2.36362e-11
1.11867e-10
2.9551e-10
4.91404e-10
5.63349e-10
4.91512e-10
5.0248e-10
2.0073e-08
4.31457e-08
1.43709e-08
1.48017e-08
3.81938e-06
4.65715e-06
1.57669e-06
1.63467e-06
0.043449
0.63793
0.407047
0.00773575
2.02848e-11
1.61561e-10
4.83624e-10
7.27729e-10
9.40692e-10
9.29824e-10
8.82169e-10
6.3331e-10
6.33319e-10
1.99913e-07
1.71566e-08
1.87023e-06
4.67331e-06
1.59071e-06
1.48396e-06
0.0426445
0.567707
0.434937
0.0110308
1.1704e-11
1.29054e-10
4.65935e-10
6.49274e-10
9.80731e-10
2.93125e-09
2.79116e-09
6.33437e-10
6.33271e-10
2.9506e-07
3.80055e-07
3.6709e-06
4.67191e-06
3.39393e-06
2.62548e-06
0.0139377
0.354812
0.527805
0.0362916
6.86572e-12
9.70123e-11
4.77887e-10
6.25852e-10
1.26235e-09
2.95986e-09
2.40403e-09
6.61276e-10
6.46028e-10
1.5533e-09
1.11735e-06
4.67191e-06
4.67216e-06
4.31857e-06
2.2237e-06
1.09866e-05
0.170254
0.533498
0.19071
9.7479e-12
2.39781e-10
8.55985e-10
9.74283e-10
7.30396e-10
3.15477e-10
2.58907e-09
1.72574e-07
1.31289e-07
4.10303e-09
9.23725e-07
4.5393e-06
4.06018e-06
1.26262e-06
1.32289e-06
2.22423e-06
0.0580064
0.533553
0.398639
1.54254e-11
4.4194e-10
9.18076e-10
9.48291e-10
4.6436e-10
3.12481e-10
3.4258e-08
8.27543e-07
8.86465e-07
7.17943e-08
3.33811e-07
1.15272e-06
9.65591e-07
9.14766e-07
1.19264e-06
7.74081e-06
0.0401125
0.533498
0.326677
1.06016e-11
2.59614e-10
8.41742e-10
8.03545e-10
3.21494e-10
3.12535e-10
3.53055e-07
8.86465e-07
8.8733e-07
6.78479e-07
1.29231e-07
1.20586e-07
1.50617e-07
3.888e-07
4.35116e-06
6.83729e-05
0.0454365
0.321499
0.133984
1.53308e-12
1.23741e-10
5.43704e-10
6.58575e-10
3.58968e-10
3.12446e-10
3.12558e-10
5.79304e-07
8.87267e-07
8.87294e-07
1.59856e-07
1.03476e-07
1.29466e-07
5.31195e-07
6.19961e-06
0.000940578
0.00388615
0.0119107
1.39248e-19
1.05098e-12
5.24835e-11
3.70562e-10
5.80078e-10
3.38038e-10
3.4065e-10
1.09029e-08
1.10457e-08
2.03246e-07
8.21487e-07
3.96746e-07
9.08415e-08
9.51663e-08
4.23342e-07
2.76157e-05
0.000322563
0.00158697
0.0140336
0.036266
9.73448e-13
3.61923e-11
3.05491e-10
3.15518e-10
8.25809e-11
8.35545e-09
9.19032e-08
9.55981e-08
9.61153e-08
1.60484e-07
3.24035e-07
8.7053e-08
7.26133e-08
1.21029e-06
6.95664e-06
5.69022e-07
1.15766e-05
0.0189649
0.216246
1.11115e-12
2.81998e-11
1.76562e-10
1.51908e-10
8.18316e-11
1.90525e-08
1.01854e-07
1.05045e-07
1.03681e-07
2.43353e-08
5.36902e-08
8.0063e-08
3.84484e-08
1.41869e-07
4.21486e-08
2.75359e-07
3.9047e-07
0.0186392
0.468904
1.15345e-12
1.80523e-11
9.48186e-11
8.1308e-11
8.13336e-11
1.41027e-09
9.40587e-09
2.2099e-08
3.44176e-08
1.91763e-08
2.02038e-09
1.87446e-08
1.08064e-08
3.43369e-09
1.4794e-08
0.000187301
0.00457619
0.0394883
0.579963
1.0357e-12
8.91707e-12
6.31809e-11
6.06808e-11
3.52628e-10
6.93997e-10
6.94117e-10
7.01971e-10
7.29034e-10
2.49397e-09
1.0918e-09
1.14331e-09
2.42714e-09
3.13134e-09
0.0192899
0.13567
0.0577812
0.0879574
0.638655
5.74505e-13
4.35936e-12
4.81552e-11
4.90736e-11
1.66372e-10
1.16853e-09
1.14824e-09
1.2075e-09
9.92352e-10
1.00943e-09
1.05272e-09
1.0882e-09
1.14331e-09
0.105815
0.171775
0.168359
0.149325
0.19175
0.741568
2.74964e-13
1.95517e-12
2.94391e-11
4.06756e-11
4.59509e-11
1.23497e-10
1.27528e-10
7.02525e-10
1.00943e-09
1.02829e-09
1.02369e-09
1.11133e-09
0.0444566
0.171775
0.171775
0.0873116
0.0376608
0.16214
0.851964
1.08414e-13
6.86834e-13
1.08655e-11
1.43965e-11
4.84987e-11
3.03042e-11
1.65401e-07
3.35071e-08
1.02829e-09
1.02364e-09
0.00103633
0.015306
0.0664553
0.0684771
0.0478412
0.00174319
0.00396015
0.161344
0.834326
3.13896e-14
1.94722e-13
2.45956e-12
3.68742e-12
4.50113e-11
3.15135e-11
8.38912e-07
3.59521e-07
2.41648e-09
1.25594e-08
0.015798
0.0300022
0.0213036
0.0010722
0.000171234
0.000149038
0.0238681
0.145836
0.468535
6.16774e-15
4.68503e-14
5.10231e-13
1.1405e-12
2.90472e-11
3.83763e-12
8.38354e-07
6.84831e-07
1.39405e-08
0.00274601
0.0196074
0.0256996
0.00314791
0.000171234
0.000137634
0.000149038
0.0684481
0.0395722
0.0186099
9.13843e-16
9.45692e-15
1.42249e-13
4.39567e-13
6.28373e-12
3.96446e-12
6.04445e-07
6.86847e-07
3.51936e-08
0.00245496
0.0225126
0.0241929
0.00495627
0.000139657
0.000130604
0.00173939
0.0712876
0.00284325
0
1.09149e-16
1.74441e-15
3.88969e-14
1.3918e-13
2.91606e-13
1.54279e-11
8.84062e-12
2.9695e-07
4.16565e-08
1.57431e-09
0.0175182
0.0238645
0.00871618
0.000130602
0.000121482
0.00336901
0.0399485
0.000875674
-1.41747e-07
1.13821e-17
2.77953e-16
8.60834e-15
1.44504e-14
8.98897e-13
1.06458e-10
1.67051e-11
1.48569e-14
0
1.48569e-14
0.0116707
0.0242017
0.00441099
0.000129879
0.000116997
0.00192455
0.00151435
0.000393915
-4.30319e-08
1.11397e-18
3.27097e-17
6.6231e-16
2.86249e-15
5.03536e-13
1.61405e-11
4.81686e-12
-2.23367e-29
-5.47687e-13
1.87206e-36
0.00335439
0.0402741
0.00666098
0.000112349
0.000112353
0.000152679
0.000275002
6.62219e-05
-4.33151e-08
8.52891e-20
2.41941e-18
4.00286e-17
4.36147e-16
1.95955e-13
2.52814e-14
-1.47803e-26
5.35827e-24
-2.97788e-12
1.82818e-39
0.011542
0.0415981
0.016134
0.000132461
0.000112353
0.000132656
0.000115396
5.3874e-05
4.66928e-05
2.73211e-21
8.47901e-20
1.29969e-18
3.18976e-17
-2.48077e-16
-1.25358e-16
-9.15077e-17
-8.14878e-17
-1.01102e-11
2.65315e-11
0.0176406
0.0425773
0.0435564
0.0130517
0.000132641
0.000146345
0.000117191
8.62475e-05
0.000117623
1.83851e-24
2.54413e-22
1.45099e-20
1.54907e-19
-1.43112e-16
-4.46723e-17
-3.59214e-17
-4.31797e-17
-2.26719e-11
2.4367e-05
9.36886e-23
0.0381711
0.0435564
0.0146055
0.000131745
0.00012553
0.000108345
9.55048e-05
8.38197e-05
-2.56413e-70
0
-3.21336e-24
-1.99395e-20
-2.95569e-17
-4.10765e-18
-7.08399e-18
-1.12904e-17
-1.38853e-16
-6.4187e-17
-2.65777e-17
0.00538208
0.0227571
0
6.62848e-05
0.000124249
0.00013858
0.000149865
2.94518e-05
)
;

boundaryField
{
    leftWall
    {
        type            zeroGradient;
    }
    rightWall
    {
        type            zeroGradient;
    }
    lowerWall
    {
        type            zeroGradient;
    }
    atmosphere
    {
        type            inletOutlet;
        inletValue      uniform 0;
        value           nonuniform List<scalar> 
46
(
0
0
0
0
0
0
0
0
0
0
0
0
0
0
0
0
0
0
0
0
0
0
0
0
0
0
0
0
0
0
0
0
0
0
0
0
0
0
0.00538208
0.0227571
0
0
0.000124249
0.00013858
0.000149865
2.94518e-05
)
;
    }
    defaultFaces
    {
        type            empty;
    }
}


// ************************************************************************* //
