/*--------------------------------*- C++ -*----------------------------------*\
| =========                 |                                                 |
| \\      /  F ield         | OpenFOAM: The Open Source CFD Toolbox           |
|  \\    /   O peration     | Version:  5.x                                   |
|   \\  /    A nd           | Web:      www.OpenFOAM.org                      |
|    \\/     M anipulation  |                                                 |
\*---------------------------------------------------------------------------*/
FoamFile
{
    version     2.0;
    format      ascii;
    class       surfaceScalarField;
    location    "0.4";
    object      alphaPhi10;
}
// * * * * * * * * * * * * * * * * * * * * * * * * * * * * * * * * * * * * * //

dimensions      [0 3 -1 0 0 0 0];

internalField   nonuniform List<scalar> 
4432
(
-3.24971e-06
3.24971e-06
-2.36187e-06
-8.87846e-07
2.28523e-06
-4.6471e-06
8.68531e-06
-6.40008e-06
1.52224e-05
-6.53712e-06
2.09269e-05
-5.70449e-06
2.54678e-05
-4.54089e-06
2.88969e-05
-3.42908e-06
3.14161e-05
-2.51921e-06
3.32413e-05
-1.82522e-06
3.45349e-05
-1.29359e-06
3.5372e-05
-8.37101e-07
3.57116e-05
-3.39554e-07
3.5318e-05
3.93602e-07
3.3717e-05
1.60095e-06
3.02871e-05
3.42989e-06
2.41747e-05
6.1124e-06
1.47983e-05
9.37641e-06
3.52083e-06
1.12775e-05
-5.074e-06
9.41311e-06
-1.11097e-05
7.75282e-06
-1.61475e-05
1.17057e-06
-1.61475e-05
-3.31218e-06
6.56189e-06
-2.12397e-06
-2.07605e-06
2.59453e-06
-9.3656e-06
8.99964e-06
-1.28052e-05
1.54861e-05
-1.30236e-05
2.11206e-05
-1.1339e-05
2.56012e-05
-9.02145e-06
2.89992e-05
-6.8271e-06
3.15263e-05
-5.04628e-06
3.33957e-05
-3.69466e-06
3.47601e-05
-2.65799e-06
3.5697e-05
-1.774e-06
3.62401e-05
-8.82603e-07
3.64426e-05
1.91087e-07
3.64197e-05
1.62381e-06
3.60194e-05
3.83024e-06
3.46373e-05
7.49444e-06
3.05979e-05
1.34159e-05
2.14419e-05
2.04334e-05
6.46002e-06
2.45199e-05
-6.29815e-06
2.2426e-05
-8.86216e-06
2.96694e-06
-2.50097e-05
-2.99976e-06
9.56164e-06
-1.68576e-06
-3.39005e-06
3.10604e-06
-1.41574e-05
9.45505e-06
-1.91542e-05
1.57819e-05
-1.93505e-05
2.12179e-05
-1.6775e-05
2.55215e-05
-1.3325e-05
2.88032e-05
-1.01089e-05
3.1289e-05
-7.53201e-06
3.31852e-05
-5.5909e-06
3.46279e-05
-4.10064e-06
3.56749e-05
-2.82102e-06
3.63089e-05
-1.51659e-06
3.64811e-05
1.88445e-08
3.61129e-05
1.99206e-06
3.52821e-05
4.66097e-06
3.43252e-05
8.45133e-06
3.34673e-05
1.42738e-05
3.09036e-05
2.29971e-05
2.33086e-05
3.21149e-05
1.20776e-05
3.36765e-05
3.49692e-06
1.16178e-05
-2.15145e-05
-2.58894e-06
1.21506e-05
-1.021e-06
-4.95799e-06
3.81467e-06
-1.89931e-05
1.00506e-05
-2.53901e-05
1.61397e-05
-2.54396e-05
2.12958e-05
-2.19311e-05
2.53631e-05
-1.73923e-05
2.85056e-05
-1.32513e-05
3.09609e-05
-9.98729e-06
3.29187e-05
-7.54869e-06
3.44862e-05
-5.66815e-06
3.56929e-05
-4.02774e-06
3.65097e-05
-2.33338e-06
3.68665e-05
-3.37955e-07
3.66773e-05
2.18126e-06
3.58915e-05
5.44675e-06
3.46276e-05
9.71524e-06
3.35994e-05
1.5302e-05
3.34714e-05
2.31251e-05
3.23552e-05
3.32311e-05
2.66809e-05
3.93509e-05
1.45679e-05
2.37309e-05
-6.94034e-06
-2.05435e-06
1.42049e-05
-9.28264e-08
-6.91952e-06
4.66822e-06
-2.37541e-05
1.07257e-05
-3.14476e-05
1.65194e-05
-3.12333e-05
2.13418e-05
-2.67535e-05
2.51375e-05
-2.1188e-05
2.81341e-05
-1.6248e-05
3.05783e-05
-1.24315e-05
3.26324e-05
-9.60279e-06
3.43645e-05
-7.40017e-06
3.57694e-05
-5.43265e-06
3.6796e-05
-3.36003e-06
3.73711e-05
-9.13067e-07
3.74268e-05
2.12562e-06
3.69277e-05
5.94579e-06
3.58892e-05
1.07538e-05
3.45577e-05
1.66335e-05
3.40023e-05
2.36806e-05
3.46535e-05
3.25799e-05
3.25754e-05
4.1429e-05
2.07988e-05
3.55074e-05
1.38236e-05
-1.38567e-06
1.55906e-05
7.8553e-07
-9.09072e-06
5.55752e-06
-2.85261e-05
1.13758e-05
-3.72659e-05
1.6849e-05
-3.67064e-05
2.13367e-05
-3.12412e-05
2.48757e-05
-2.4727e-05
2.77573e-05
-1.91295e-05
3.02309e-05
-1.49051e-05
3.24227e-05
-1.17946e-05
3.43549e-05
-9.33242e-06
3.59842e-05
-7.06194e-06
3.72354e-05
-4.61123e-06
3.80279e-05
-1.70552e-06
3.83034e-05
1.85007e-06
3.80539e-05
6.19535e-06
3.73148e-05
1.14929e-05
3.61467e-05
1.78016e-05
3.49134e-05
2.49139e-05
3.46948e-05
3.27985e-05
3.35843e-05
4.25395e-05
2.34687e-05
4.5623e-05
3.72923e-05
-5.90036e-07
1.61806e-05
1.85105e-06
-1.15318e-05
6.44207e-06
-3.31171e-05
1.19136e-05
-4.27374e-05
1.70345e-05
-4.18273e-05
2.12114e-05
-3.54181e-05
2.45474e-05
-2.8063e-05
2.73804e-05
-2.19624e-05
2.99482e-05
-1.7473e-05
3.23318e-05
-1.41781e-05
3.45054e-05
-1.15061e-05
3.63895e-05
-8.94605e-06
3.78879e-05
-6.10959e-06
3.8912e-05
-2.72959e-06
3.93948e-05
1.36727e-06
3.93408e-05
6.24929e-06
3.879e-05
1.20437e-05
3.7848e-05
1.87436e-05
3.64839e-05
2.6278e-05
3.51768e-05
3.41055e-05
3.35501e-05
4.41662e-05
2.54206e-05
5.37526e-05
6.27129e-05
3.90408e-07
1.57902e-05
3.20491e-06
-1.43463e-05
7.58365e-06
-3.74958e-05
1.25628e-05
-4.77165e-05
1.72038e-05
-4.64683e-05
2.10286e-05
-3.92429e-05
2.41822e-05
-3.12167e-05
2.70073e-05
-2.47875e-05
2.97031e-05
-2.01688e-05
3.22958e-05
-1.67708e-05
3.47156e-05
-1.39259e-05
3.68574e-05
-1.10878e-05
3.86126e-05
-7.8648e-06
3.98943e-05
-4.01129e-06
4.06556e-05
6.05932e-07
4.0847e-05
6.05786e-06
4.04737e-05
1.24171e-05
3.96586e-05
1.95586e-05
3.84233e-05
2.75134e-05
3.66822e-05
3.58466e-05
3.42353e-05
4.66131e-05
2.68733e-05
6.11146e-05
8.95862e-05
1.34782e-15
-1.34782e-15
2.59293e-13
-2.57946e-13
3.35669e-14
1.21821e-13
3.33954e-16
1.56019e-14
4.80775e-18
3.87638e-16
4.47332e-20
1.37854e-18
2.78649e-23
1.41352e-20
-6.10233e-26
1.84321e-23
-5.03796e-27
3.09871e-26
-5.04868e-27
1.63856e-27
-1.32958e-26
8.73797e-28
-1.42974e-26
1.04295e-27
-6.59772e-27
2.21326e-28
-3.67561e-27
-8.27619e-28
-3.78128e-27
-1.22183e-27
-8.16551e-27
-3.20029e-27
-1.77939e-26
-1.23245e-26
-6.4315e-28
-3.0682e-26
-1.8834e-27
1.03444e-13
-1.04792e-13
9.77804e-12
-1.02605e-11
1.49109e-12
4.59582e-12
4.56726e-14
9.8845e-13
2.36602e-16
4.52508e-14
8.14495e-19
2.31651e-16
-2.06266e-23
8.14328e-19
-2.67814e-24
5.19349e-23
-4.24214e-25
3.11667e-24
-5.87262e-25
4.5028e-25
-2.40761e-24
4.63218e-25
-3.18778e-24
6.35117e-25
-2.56165e-24
7.3113e-26
-1.06204e-24
-7.03048e-25
-9.17628e-25
-6.5539e-25
-1.15697e-24
-1.03163e-24
-2.03031e-24
-2.88528e-24
-9.49733e-26
-6.4723e-24
-5.16428e-25
4.68048e-12
-4.78527e-12
1.82187e-10
-1.95972e-10
3.60414e-11
9.35036e-11
1.10392e-12
2.44667e-11
9.36993e-15
1.12529e-12
2.3893e-17
9.46707e-15
-3.26652e-21
2.53122e-17
-2.52004e-22
4.40776e-21
-7.82169e-23
4.96148e-22
-9.07934e-23
1.20806e-22
-2.12098e-22
6.67057e-23
-3.58882e-22
8.69245e-23
-4.11375e-22
9.8882e-24
-2.09828e-22
-2.08262e-22
-1.07625e-22
-1.87333e-22
-1.00962e-22
-1.55882e-22
-1.42953e-22
-2.97438e-22
-9.19923e-24
-6.02347e-22
-6.60648e-23
9.54677e-11
-1.00253e-10
3.23022e-09
-6.11945e-09
4.20613e-10
-4.37376e-10
9.83853e-12
3.61076e-10
1.01225e-13
1.06415e-11
3.62595e-16
1.11987e-13
-4.9474e-19
3.94712e-16
-1.9839e-20
1.23599e-19
-1.04867e-20
5.50823e-20
-7.67187e-21
1.73939e-20
-1.34124e-20
6.92169e-21
-2.44556e-20
6.99677e-21
-3.31533e-20
1.2047e-21
-2.31004e-20
-1.94683e-20
-7.85431e-21
-3.6231e-20
-6.06074e-21
-2.01195e-20
-6.56208e-21
-1.984e-20
-5.95613e-22
-3.50753e-20
-5.62883e-21
1.09744e-09
-3.94363e-09
1.09596e-08
1.51258e-09
6.60003e-09
5.31273e-11
7.44181e-11
2.78318e-09
9.0526e-13
8.19116e-11
2.39185e-15
9.66703e-13
-5.22201e-18
3.08652e-15
-2.0724e-19
3.33864e-19
-2.82742e-19
8.21755e-19
-3.95037e-19
7.05527e-19
-5.66887e-19
4.8492e-19
-1.62677e-18
3.25318e-19
-1.3251e-18
1.21748e-19
-9.70372e-19
-1.05221e-18
-4.42736e-19
-1.24622e-18
-2.26348e-19
-1.38761e-18
-2.15831e-19
-9.33336e-19
-2.79464e-20
-1.43301e-18
-3.94339e-19
2.10212e-09
5.96314e-10
1.32505e-08
1.08276e-08
9.91332e-09
6.67182e-10
7.88917e-11
6.0679e-09
7.19008e-13
1.5638e-10
-1.0216e-16
1.65254e-12
-2.02607e-17
2.9874e-15
-1.80648e-18
1.67963e-18
-9.46097e-18
1.20396e-17
-2.38475e-17
3.73777e-17
-1.32542e-17
1.27526e-17
-4.28223e-17
5.0578e-18
-2.61326e-17
5.04179e-18
-1.07659e-17
-2.28381e-17
-6.85014e-18
-1.23959e-17
-5.27339e-18
-9.16082e-18
-5.03683e-18
-2.46047e-17
-8.73781e-19
-3.42424e-17
-1.3646e-17
2.89557e-09
6.29127e-09
2.86949e-08
-1.48297e-08
1.51167e-08
-8.4786e-09
9.52414e-11
1.04705e-08
7.39291e-13
2.45721e-10
-2.64662e-15
2.39272e-12
-1.39079e-17
2.61443e-16
-2.67375e-17
1.50308e-17
-3.71049e-16
1.98744e-16
-8.22431e-16
1.02897e-15
-4.84595e-17
6.31614e-16
-2.02887e-16
1.08349e-17
-1.38413e-16
2.35511e-17
-5.59535e-17
-3.13602e-17
-1.02696e-16
-3.53474e-17
-6.78506e-17
-2.72833e-17
-8.04306e-17
-2.06979e-16
-1.7494e-17
-4.09218e-16
-7.51246e-17
5.07892e-08
-4.44979e-08
4.77182e-08
1.01224e-08
1.18242e-08
-1.66735e-08
-5.90592e-11
1.15533e-08
-1.45899e-12
1.84261e-10
-2.09786e-16
9.33791e-13
-9.26102e-19
3.64938e-17
-5.49497e-18
3.50992e-18
-1.88231e-17
1.95982e-16
-1.98505e-16
1.19111e-15
-5.24797e-17
9.82891e-17
-2.072e-16
1.91906e-17
-1.47265e-16
4.04712e-17
-1.6008e-16
5.23577e-17
-4.15077e-15
3.92375e-15
-8.94098e-16
-2.24128e-15
-1.21192e-15
-1.97489e-16
-4.35862e-16
-2.557e-15
-5.10987e-16
5.63386e-06
1.01564e-05
1.42908e-05
-2.30032e-05
2.36299e-05
-4.68339e-05
3.17962e-05
-5.58805e-05
3.88947e-05
-5.35648e-05
4.5275e-05
-4.56218e-05
5.13524e-05
-3.72933e-05
5.74642e-05
-3.08989e-05
6.36642e-05
-2.63687e-05
6.97617e-05
-2.28682e-05
7.54639e-05
-1.96281e-05
8.0499e-05
-1.61229e-05
8.46698e-05
-1.20356e-05
8.78582e-05
-7.19969e-06
9.00447e-05
-1.58058e-06
9.12805e-05
4.82202e-06
9.13969e-05
1.23007e-05
9.04726e-05
2.04829e-05
8.88017e-05
2.91843e-05
8.63371e-05
3.83112e-05
8.4016e-05
4.89342e-05
8.52153e-05
5.99154e-05
7.91307e-05
9.56708e-05
1.41309e-05
-3.97449e-06
3.09164e-05
-3.97863e-05
4.04925e-05
-5.63929e-05
4.29197e-05
-5.82837e-05
4.41924e-05
-5.4816e-05
4.7558e-05
-4.89711e-05
5.31071e-05
-4.28311e-05
5.99464e-05
-3.77306e-05
6.72561e-05
-3.36735e-05
7.44188e-05
-3.00276e-05
8.09197e-05
-2.61269e-05
8.63859e-05
-2.1588e-05
9.06629e-05
-1.63121e-05
9.38654e-05
-1.04021e-05
9.61322e-05
-3.84741e-06
9.73344e-05
3.61987e-06
9.7721e-05
1.19141e-05
9.75218e-05
2.06821e-05
9.74387e-05
2.92674e-05
9.76847e-05
3.80652e-05
9.91291e-05
4.74897e-05
0.000103433
5.56118e-05
6.77089e-05
0.000114854
2.5267e-05
-2.92415e-05
4.68895e-05
-5.09077e-05
4.46439e-05
-2.61481e-05
3.99158e-05
-1.9759e-05
3.60663e-05
-2.00033e-05
3.61849e-05
-1.95659e-05
4.02335e-05
-1.82048e-05
4.70665e-05
-1.74101e-05
5.48859e-05
-1.67478e-05
6.29757e-05
-1.59543e-05
7.12094e-05
-1.47892e-05
7.96105e-05
-1.31875e-05
8.79978e-05
-1.10412e-05
9.57149e-05
-8.03001e-06
0.000101819
-3.69465e-06
0.000104454
2.66284e-06
0.000103302
1.3067e-05
0.000101475
2.25091e-05
0.000101603
2.91386e-05
0.000103102
3.65667e-05
0.000105316
4.52762e-05
0.000107613
5.33143e-05
6.11922e-05
0.00011413
2.18165e-05
-1.59319e-05
6.80498e-06
-3.79134e-07
3.6264e-06
-3.73282e-09
2.93135e-06
-1.37273e-11
2.44456e-06
-1.71656e-17
1.80547e-06
-2.21531e-16
1.75733e-06
-1.2125e-15
2.13829e-06
-2.51392e-15
2.83929e-06
-2.93262e-14
3.79355e-06
-7.77132e-13
5.19182e-06
-2.96008e-12
7.45647e-06
-9.78919e-13
1.12365e-05
-5.2285e-12
1.75835e-05
-1.39745e-10
2.795e-05
-3.01824e-09
4.45091e-05
-5.24875e-08
7.15599e-05
1.56401e-07
0.00010001
4.69925e-06
0.00011239
1.82028e-05
0.000114991
3.39659e-05
0.000113589
4.6678e-05
0.000113448
5.34554e-05
5.89116e-05
0.000115728
3.82881e-07
-1.27156e-22
3.74655e-09
-6.55237e-21
1.37273e-11
-1.88981e-19
-4.67073e-20
-4.72803e-18
-9.59773e-19
-4.42703e-18
-8.51861e-18
-1.90141e-16
-3.27002e-17
-1.10829e-15
-4.42486e-16
-2.01163e-15
-1.41669e-14
-1.56694e-14
-6.66894e-14
-7.26284e-13
-5.18055e-14
-3.02201e-12
-1.45218e-13
-1.01471e-12
-3.0817e-12
-2.45949e-12
-8.7091e-11
-5.64887e-11
-1.62579e-09
-1.49676e-09
-4.11745e-08
-1.33575e-08
4.35124e-07
-4.87147e-08
6.00228e-06
-1.26687e-08
2.51315e-05
9.24066e-08
5.92561e-05
6.51195e-07
9.89588e-05
5.87777e-06
0.000116654
3.07798e-05
5.14647e-05
0.000124101
-8.2485e-23
-4.46707e-23
-4.07877e-21
-2.56125e-21
-1.13268e-19
-8.02119e-20
-2.25481e-18
-2.6004e-18
-9.0871e-18
-4.35223e-17
-2.04266e-16
-8.79077e-16
-4.99235e-16
-3.53181e-15
-1.51061e-16
-4.69391e-15
1.9725e-14
-2.26052e-14
-1.6263e-12
-2.09912e-12
-7.81591e-13
-1.24816e-11
3.32077e-13
-2.90169e-12
-8.57061e-13
-2.0237e-12
-1.73598e-11
-4.88505e-11
-7.21226e-09
-7.37426e-09
-1.36744e-10
-4.66222e-08
6.78455e-09
-6.97492e-08
1.37278e-08
-3.38486e-08
1.26255e-07
-3.43578e-08
8.17534e-07
-3.41106e-08
6.16962e-06
8.58238e-08
3.36427e-05
2.12248e-07
1.1437e-06
7.92266e-05
-3.73849e-23
-7.28578e-24
-1.48007e-21
-1.12689e-21
-3.85739e-20
-5.16597e-20
-3.25931e-18
-4.06953e-18
-1.77845e-16
-2.02741e-16
-1.78346e-15
-2.5953e-15
-2.50584e-15
-7.64546e-15
2.55079e-15
-8.28224e-15
1.54934e-14
-3.00076e-14
-6.49012e-12
-2.43476e-12
-5.27808e-12
-1.19885e-11
-1.38101e-12
-8.80843e-12
-1.67909e-11
-9.73538e-13
-7.68449e-11
-5.17806e-12
-2.10969e-09
-1.6367e-08
8.7302e-09
-3.93192e-08
1.116e-08
-8.25681e-08
4.05766e-08
-4.64478e-08
9.66087e-08
-6.77737e-08
1.18668e-07
-3.87138e-08
2.17534e-07
-4.97621e-09
4.52553e-07
-1.69034e-08
8.65412e-08
1.52339e-06
-5.15894e-24
-2.12684e-24
-6.335e-22
-4.99584e-22
-3.79842e-20
-3.75655e-20
-6.54321e-18
-3.94503e-18
-3.26991e-16
-2.17143e-16
-2.62274e-15
-2.82155e-15
-3.08484e-15
-8.48071e-15
8.29783e-16
-8.81319e-15
-1.63655e-14
-1.1709e-14
-5.19407e-12
-1.46768e-12
-5.49374e-12
-1.00047e-11
-2.30007e-12
-1.01657e-11
-2.0246e-12
-9.62866e-12
-7.71216e-12
-5.39882e-11
3.68205e-09
-2.76271e-11
2.31638e-09
-3.62033e-10
3.76059e-09
-4.49923e-08
1.53787e-08
-2.43124e-08
3.23959e-08
-4.20016e-08
5.22086e-08
-3.41898e-08
5.27888e-08
-6.22121e-09
3.27086e-08
2.72073e-09
7.67902e-09
1.11945e-07
-4.29978e-24
2.17294e-24
-3.67406e-22
-1.37109e-22
-1.92259e-20
-1.55398e-20
-5.14647e-18
-2.66468e-18
-2.7562e-16
-1.93916e-16
-2.28704e-15
-2.52651e-15
-2.64929e-15
-7.9371e-15
-1.29402e-15
-8.42565e-15
-7.17407e-15
-6.16442e-15
-2.14049e-12
-1.37236e-13
-1.86043e-13
-4.82876e-14
2.19918e-12
-5.35228e-13
-1.57226e-11
-3.3719e-11
2.72684e-11
-2.87913e-10
1.99346e-13
-5.63052e-12
-3.61584e-10
-2.13636e-13
-2.42785e-09
-5.90715e-11
-2.00098e-09
-5.39954e-09
-4.32131e-10
-3.74519e-08
1.29928e-09
-4.11671e-08
3.22166e-09
-8.1014e-09
5.26541e-09
4.71139e-12
3.00347e-09
9.42652e-09
-5.91063e-24
1.98715e-24
-1.19041e-22
-2.31117e-23
-6.22254e-21
-5.04364e-21
-2.88263e-18
-1.30201e-18
-1.52618e-16
-1.14895e-16
-1.37443e-15
-1.33023e-15
-1.73464e-15
-4.37722e-15
-9.94993e-16
-4.5143e-15
-4.28811e-15
-3.1775e-15
-7.38251e-16
-6.64844e-15
-4.26462e-14
-5.10432e-15
-3.68372e-13
-2.08446e-13
-1.37793e-11
-4.32989e-11
3.49165e-11
-1.21516e-11
5.5669e-14
-6.4779e-14
-1.98278e-14
-2.07235e-14
-4.07364e-11
-1.83189e-11
-2.81527e-09
-2.62101e-09
-5.8562e-09
-2.98782e-08
-7.08969e-09
-3.0818e-08
-1.59558e-09
-2.30444e-08
3.02194e-10
-2.4319e-09
1.07891e-09
1.67431e-09
-6.97833e-25
1.01656e-24
-1.94494e-23
-4.36015e-24
-1.72372e-21
-1.30385e-21
-1.31929e-18
-4.27947e-19
-5.48866e-17
-4.48174e-17
-5.22265e-16
-4.38005e-16
-5.35606e-16
-1.48639e-15
-3.45271e-16
-1.42338e-15
-2.9137e-16
-1.45297e-15
-2.13428e-16
-5.48577e-15
-5.71179e-16
-3.2383e-15
-8.32774e-13
-3.63537e-15
6.93932e-14
-2.5384e-11
1.79237e-13
-2.05601e-14
1.6571e-16
-1.03984e-15
-1.96647e-14
-7.59443e-16
-1.81685e-11
-1.38866e-13
-8.18788e-10
-4.93227e-11
-8.30126e-09
-3.3777e-09
-1.45525e-08
-1.51888e-08
-8.02928e-09
-1.94786e-08
-2.1319e-09
-8.73342e-09
1.24896e-10
-1.72195e-09
-7.08728e-26
4.67093e-25
-3.01716e-25
-4.90503e-25
-3.34538e-22
-3.42973e-22
-4.13109e-19
-9.03201e-20
-1.34599e-17
-1.19078e-17
-1.36606e-16
-1.10352e-16
-1.22793e-16
-3.51207e-16
-9.68209e-17
-3.6162e-16
-3.87528e-16
-5.39628e-16
-1.07206e-16
-3.89374e-15
-6.37697e-18
-3.30233e-15
5.35975e-16
-3.15403e-15
1.97882e-14
-7.49801e-16
-3.38617e-18
-6.12742e-16
-3.24423e-17
-5.17386e-16
-2.06981e-16
-4.76098e-16
-1.38493e-13
-4.73979e-16
-4.94169e-11
-4.34964e-14
-3.42511e-09
-1.97789e-12
-5.9002e-09
-6.05288e-11
-1.37753e-08
-1.28717e-09
-1.44051e-08
-3.48281e-09
-5.48589e-10
-9.11089e-09
-6.1519e-27
2.45644e-25
-3.48204e-25
-1.44467e-25
-4.93256e-23
-1.27495e-22
-8.37106e-20
-1.42046e-20
-2.82356e-18
-2.32734e-18
-2.35343e-17
-2.23795e-17
-2.38628e-17
-6.34569e-17
-2.18824e-17
-7.43221e-17
-2.81449e-16
-1.34429e-16
-1.56128e-16
-1.17609e-15
-8.95042e-17
-1.42977e-15
-1.02301e-17
-1.18304e-15
-1.76991e-17
-7.40281e-16
-3.67289e-17
-5.14703e-16
-6.73889e-17
-5.41825e-16
-3.00206e-17
-3.98132e-16
-3.16634e-16
-1.00701e-16
-4.3779e-14
-2.50508e-17
-2.02163e-12
-3.3241e-17
-6.25504e-11
-5.28978e-17
-1.34972e-09
-1.76926e-16
-3.69006e-09
-3.38845e-15
-7.48848e-14
-2.94372e-09
-8.95897e-28
1.6565e-25
-2.91085e-25
1.45722e-25
-8.69888e-24
-5.72103e-23
-1.22856e-20
-1.86063e-21
-5.00172e-19
-3.44596e-19
-3.16186e-18
-3.36241e-18
-3.88506e-18
-9.15991e-18
-4.49249e-18
-1.31445e-17
-4.27785e-17
-2.75612e-17
-6.43788e-17
-7.85766e-17
-6.08686e-17
-2.86756e-16
-3.36567e-17
-5.54551e-16
-4.95034e-17
-4.60384e-16
-7.15491e-17
-3.6956e-16
-8.87671e-17
-3.55397e-16
-4.05736e-17
-1.19704e-16
-5.70394e-18
-3.82241e-17
-7.90192e-18
-1.40051e-17
-1.0967e-17
-2.1027e-17
-1.6748e-17
-3.8639e-17
-1.42082e-16
-3.96594e-17
-3.39668e-15
-5.53571e-17
-8.67261e-17
-7.81091e-14
7.45531e-28
1.23469e-25
-1.23193e-24
4.03984e-25
-2.30493e-24
-2.10463e-23
-1.46832e-21
-2.13115e-22
-6.41555e-20
-3.87205e-20
-3.40332e-19
-3.80833e-19
-5.44787e-19
-1.06324e-18
-9.48522e-19
-2.05722e-18
-2.11567e-18
-5.45883e-18
-9.59529e-18
-1.85627e-17
-3.38386e-17
-7.82887e-17
-5.38125e-17
-1.41468e-16
-5.2919e-17
-1.0691e-16
-5.73925e-17
-5.25473e-17
-2.57834e-17
-2.82072e-17
-9.86084e-18
-1.59532e-17
-5.68731e-18
-5.8206e-18
-9.08677e-18
-1.76679e-18
-2.0465e-17
-1.99346e-18
-2.35208e-17
-2.97539e-18
-2.71306e-17
-1.36244e-17
-3.05886e-17
-2.72731e-17
-3.87749e-17
-5.25251e-17
1.80854e-27
8.54431e-26
-3.44533e-25
3.80421e-25
-6.09004e-25
-4.85212e-24
-1.39164e-22
-2.39777e-23
-6.11708e-21
-3.20746e-21
-2.95409e-20
-3.19907e-20
-6.54451e-20
-1.07306e-19
-1.57033e-19
-3.21644e-19
-4.86419e-19
-1.07404e-18
-3.30997e-18
-3.09901e-18
-8.39063e-18
-1.05188e-17
-1.52831e-17
-1.19515e-17
-6.97929e-18
-9.70569e-18
-4.22854e-18
-5.23276e-18
-3.23313e-18
-2.67303e-18
-1.70544e-18
-1.52798e-18
-4.22332e-19
-6.29766e-19
-5.29135e-19
-1.45575e-19
-1.02416e-18
-1.18315e-19
-3.98095e-18
-3.78894e-19
-2.24512e-17
-1.83084e-18
-7.06102e-17
-6.99566e-18
-1.91192e-17
-1.15174e-16
1.60849e-27
5.05706e-26
-6.25555e-26
2.61298e-25
-1.10473e-25
-5.60051e-25
-1.00801e-23
-2.76213e-24
-3.91747e-22
-1.87076e-22
-2.12669e-21
-1.97945e-21
-7.57168e-21
-1.12442e-20
-3.02462e-20
-5.53589e-20
-9.62821e-20
-2.16479e-19
-6.34126e-19
-5.67158e-19
-8.81508e-19
-1.1719e-18
-9.66695e-19
-1.28864e-18
-7.22186e-19
-1.08592e-18
-4.4195e-19
-5.96918e-19
-3.1615e-19
-2.35642e-19
-1.82878e-19
-1.00677e-19
-3.99157e-20
-3.60162e-20
-3.75324e-20
-1.07422e-20
-5.93408e-20
-1.41597e-20
-3.3894e-19
-6.85089e-20
-2.13544e-18
-4.19578e-19
-1.32873e-17
-2.01988e-18
-8.09061e-18
-4.79268e-17
1.01119e-27
2.46171e-26
-5.67639e-27
1.41955e-25
-1.0412e-26
2.54066e-26
-5.23212e-25
-2.48856e-25
-1.5031e-23
-7.05789e-24
-1.38987e-22
-1.06998e-22
-9.8603e-22
-1.39326e-21
-5.95792e-21
-9.56899e-21
-2.22876e-20
-4.0934e-20
-7.55177e-20
-1.10808e-19
-1.03404e-19
-2.09171e-19
-1.16468e-19
-2.20253e-19
-9.12185e-20
-1.85252e-19
-4.46754e-20
-9.90585e-20
-2.26664e-20
-3.00488e-20
-1.01807e-20
-7.68549e-21
-2.60025e-21
-1.83982e-21
-3.14107e-21
-9.27228e-22
-7.96464e-21
-1.89672e-21
-6.25681e-20
-1.42683e-20
-4.69337e-19
-1.09213e-19
-4.50373e-18
-7.24441e-19
-4.38969e-18
-1.97778e-17
4.75027e-28
9.51239e-27
4.48134e-28
6.01049e-26
-4.5305e-27
4.82605e-26
-1.58871e-26
3.65449e-28
-4.15753e-25
-1.37431e-25
-1.03935e-23
-7.63994e-24
-1.38936e-22
-1.6575e-22
-1.0267e-21
-1.37005e-21
-4.33866e-21
-6.78575e-21
-1.43241e-20
-1.97554e-20
-1.83427e-20
-4.00885e-20
-2.05265e-20
-4.25134e-20
-1.59558e-20
-3.55521e-20
-6.44246e-21
-1.89865e-20
-1.94941e-21
-5.41427e-21
-4.76743e-22
-9.99127e-22
-2.18357e-22
-1.58565e-22
-2.7274e-22
-1.12472e-22
-1.15749e-21
-3.44291e-22
-1.16935e-20
-3.55954e-21
-1.12477e-19
-3.32787e-20
-1.89968e-18
-3.26738e-19
-2.89671e-18
-1.00658e-17
1.51101e-28
2.78206e-27
7.64192e-28
1.87716e-26
1.12901e-29
2.7052e-26
-3.10958e-27
5.97476e-27
-1.31152e-26
-8.73364e-28
-8.86035e-25
-6.07695e-25
-1.58418e-23
-1.32051e-23
-1.45964e-22
-1.45978e-22
-6.84024e-22
-8.8614e-22
-2.57073e-21
-2.8252e-21
-3.38157e-21
-6.02846e-21
-3.75318e-21
-6.4044e-21
-2.90389e-21
-5.35204e-21
-1.14331e-21
-2.90862e-21
-2.57439e-22
-8.34079e-22
-3.32828e-23
-1.13675e-22
-2.43934e-23
-1.01369e-23
-3.18147e-23
-1.16994e-23
-2.08461e-22
-7.46013e-23
-2.41976e-21
-9.86557e-22
-3.19399e-20
-1.12208e-20
-9.52696e-19
-1.70872e-19
-2.06277e-18
-5.70039e-18
2.64473e-29
5.73247e-28
3.81579e-28
3.95582e-27
1.68101e-28
7.77378e-27
-1.61203e-29
2.61827e-27
-1.37794e-27
4.88453e-28
-5.16047e-26
-2.36664e-26
-1.23571e-24
-5.87682e-25
-1.55681e-23
-1.14617e-23
-8.46522e-23
-8.35507e-23
-3.4681e-22
-2.89348e-22
-4.57461e-22
-6.21656e-22
-5.04353e-22
-6.52739e-22
-3.92117e-22
-5.44589e-22
-1.57774e-22
-3.03256e-22
-2.7162e-23
-9.07178e-23
-1.562e-24
-9.9047e-24
-1.77204e-24
-7.78832e-25
-3.46503e-24
-1.62006e-24
-4.09157e-23
-1.94218e-23
-5.20159e-22
-2.81964e-22
-9.9362e-21
-3.89783e-21
-4.9249e-19
-9.28501e-20
-1.40919e-18
-3.15855e-18
2.49121e-31
7.41266e-29
9.5762e-29
4.90666e-28
6.63994e-29
1.04088e-27
1.7003e-29
3.44121e-28
-5.43068e-28
7.97998e-29
-1.37469e-27
-1.06428e-29
-6.63361e-26
-1.61114e-26
-1.18492e-24
-6.53702e-25
-7.47519e-24
-5.32179e-24
-3.15525e-23
-1.947e-23
-4.06403e-23
-4.09649e-23
-4.41802e-23
-4.23859e-23
-3.45956e-23
-3.54914e-23
-1.45717e-23
-2.07864e-23
-2.0629e-24
-7.06384e-24
-1.07739e-25
-9.36335e-25
-1.25584e-25
-1.28655e-25
-5.23347e-25
-3.6894e-25
-8.29483e-24
-5.16757e-24
-1.08555e-22
-7.70049e-23
-3.08274e-21
-1.29105e-21
-2.27093e-19
-4.74402e-20
-8.52837e-19
-1.51697e-18
-2.35698e-31
4.75119e-30
1.087e-29
2.99398e-29
7.75687e-30
6.38626e-29
2.45854e-30
2.0557e-29
-4.19276e-31
4.6349e-30
-1.19335e-29
-2.65121e-31
-2.67396e-27
-4.90895e-28
-6.15915e-26
-2.31931e-26
-4.32794e-25
-2.05738e-25
-1.79349e-24
-7.96661e-25
-2.22626e-24
-1.6021e-24
-2.3946e-24
-1.6326e-24
-1.91375e-24
-1.38701e-24
-8.98714e-25
-8.69891e-25
-1.52207e-25
-3.36233e-25
-1.46822e-26
-5.18457e-26
-1.74846e-26
-1.60525e-26
-9.99529e-26
-7.68179e-26
-1.53627e-24
-1.28205e-24
-2.01191e-23
-1.93633e-23
-8.44611e-22
-3.87071e-22
-8.33571e-20
-2.14432e-20
-4.59797e-19
-5.67782e-19
-3.11019e-32
3.73761e-51
5.31055e-31
-1.92214e-44
3.95356e-31
-1.02097e-40
1.22397e-31
-2.36224e-37
-9.03239e-33
-1.92688e-34
-3.67054e-31
-7.09952e-34
-7.2321e-29
-4.85682e-31
-1.87067e-27
-2.85123e-28
-1.48589e-26
-3.71506e-27
-5.82507e-26
-1.61846e-26
-6.97777e-26
-3.47871e-26
-7.45015e-26
-3.64416e-26
-6.15551e-26
-3.22525e-26
-3.20521e-26
-2.15614e-26
-5.72281e-27
-8.71633e-27
-1.32898e-27
-1.40607e-27
-1.67625e-27
-1.44757e-27
-1.58513e-26
-1.55345e-26
-2.39808e-25
-2.98135e-25
-3.03582e-24
-4.53652e-24
-1.75674e-22
-1.02381e-22
-2.2627e-20
-8.54922e-21
-2.24475e-19
-1.40627e-19
-3.65801e-53
2.05916e-51
-1.92211e-44
-2.38919e-49
-1.02115e-40
-1.29004e-45
-2.12897e-36
-7.35781e-43
-5.21052e-36
-3.02733e-39
-2.84155e-35
-7.04654e-37
-4.31911e-31
-1.16401e-33
-2.30726e-29
-9.20661e-31
-2.23993e-28
-1.31109e-29
-9.60336e-28
-5.67852e-29
-1.19597e-27
-1.32909e-28
-1.27003e-27
-1.58583e-28
-1.08803e-27
-1.46827e-28
-5.83026e-28
-1.08866e-28
-6.77074e-29
-5.07904e-29
-6.95828e-29
-3.50694e-29
-1.20633e-28
-1.47755e-28
-2.04913e-27
-3.16716e-27
-2.89821e-26
-6.62022e-26
-3.17549e-25
-1.04185e-24
-2.04096e-23
-2.47822e-23
-2.59471e-21
-3.1732e-21
-1.00402e-19
-1.47023e-21
-2.66885e-53
8.47437e-52
-6.12024e-49
4.01228e-52
-6.26182e-48
-2.20658e-50
-5.15508e-43
-1.25527e-46
-3.66001e-41
-4.83249e-43
-2.86527e-38
-5.68866e-40
-9.62945e-34
-1.82385e-36
-6.02617e-32
-2.9357e-33
-5.49493e-31
-6.34032e-32
-2.37297e-30
-3.63712e-31
-3.67854e-30
-1.04987e-30
-3.82293e-30
-1.9995e-30
-3.42951e-30
-2.27293e-30
-1.69542e-30
-2.16004e-30
-9.95361e-31
-1.52607e-30
-1.04754e-30
-1.87069e-30
-7.62082e-30
-2.39846e-29
-1.58499e-28
-6.23805e-28
-1.45743e-27
-1.44621e-26
-8.11223e-29
-2.52496e-25
1.00344e-24
-6.15775e-24
3.44602e-22
-1.11997e-21
-4.24111e-20
1.87916e-20
-1.37453e-53
2.31728e-52
-1.62591e-54
1.19361e-52
-8.26805e-51
8.23963e-54
-7.02938e-46
-7.23278e-50
-4.55175e-45
-6.61e-46
-2.61099e-40
-4.46752e-44
-1.33994e-36
-6.09105e-42
-1.43876e-34
-1.73772e-38
-1.86975e-33
-3.72655e-35
-8.42018e-33
-9.7125e-34
-2.3849e-32
-5.8109e-33
-3.08476e-32
-1.74708e-32
-2.86346e-32
-2.62567e-32
-1.75663e-32
-2.48187e-32
-1.2892e-32
-2.10801e-32
-1.1539e-32
-1.25601e-31
1.20165e-31
-4.06429e-30
1.60663e-29
-1.19246e-28
7.91047e-28
-3.10854e-27
2.44898e-26
-6.3211e-26
9.63432e-25
-1.53461e-24
2.83429e-22
-3.79082e-22
-1.69647e-20
1.43625e-20
-4.61479e-54
3.16024e-53
-3.65836e-55
1.51563e-53
-1.10517e-52
2.46875e-54
-1.69752e-50
-7.75414e-55
-4.24505e-48
-2.04714e-50
-2.45063e-46
-5.26046e-48
-7.4323e-44
-4.49872e-46
-7.3489e-39
-7.31237e-43
-9.80871e-37
-1.95764e-38
-1.14784e-35
-2.20957e-36
-4.83469e-35
-1.78439e-35
-6.10558e-35
-6.1573e-35
5.56073e-36
-1.04057e-34
9.36967e-35
-1.02204e-34
1.91884e-34
-4.48126e-34
4.05659e-33
-1.77716e-32
2.32524e-31
-6.55257e-31
1.03343e-29
-2.16436e-29
3.91936e-28
-6.38842e-28
1.14556e-26
-1.52682e-26
3.90519e-25
-3.81245e-25
1.40075e-22
-1.22773e-22
-6.28717e-21
7.66824e-21
-7.63663e-55
3.29782e-65
-9.80771e-56
5.08133e-63
-7.34008e-57
-1.94208e-58
5.01076e-57
-5.6395e-57
1.83779e-53
-4.57986e-53
2.92352e-51
-4.88953e-51
3.47405e-49
-3.69498e-49
1.25816e-45
-2.89258e-47
6.98318e-41
-4.85168e-44
1.33735e-38
-2.38554e-40
1.58221e-37
-9.53321e-39
7.00758e-37
-6.80622e-38
1.30605e-36
-1.34006e-37
1.85506e-36
-1.06338e-36
2.14639e-35
-5.30144e-35
1.35709e-33
-2.31378e-33
6.82859e-32
-9.63526e-32
3.04818e-30
-3.62999e-30
1.20192e-28
-1.20185e-28
3.84299e-27
-3.31058e-27
1.28252e-25
-9.00123e-26
5.67456e-23
-3.70105e-23
-2.09007e-21
3.35455e-21
-9.48157e-67
1.8399e-65
-4.93344e-65
2.88699e-63
2.73567e-60
-1.13788e-63
3.92284e-59
-1.1624e-59
3.51347e-55
-7.25579e-55
4.21153e-53
-1.05843e-52
3.82353e-51
-1.11669e-50
3.79104e-49
-1.1268e-48
8.0771e-46
-7.78596e-47
5.10188e-42
-6.1412e-45
2.48688e-40
-5.58221e-43
1.84313e-39
-2.6119e-41
4.77134e-39
-1.55317e-39
6.55734e-38
-1.07542e-37
4.64337e-36
-5.53522e-36
2.61947e-34
-2.76377e-34
1.40851e-32
-1.27046e-32
6.83785e-31
-5.43069e-31
2.89935e-29
-1.99753e-29
1.02683e-27
-6.2662e-28
3.63108e-26
-1.90331e-26
1.97994e-23
-9.95432e-24
-6.05634e-22
1.23767e-21
-6.14514e-67
7.69733e-66
-3.60678e-65
1.11199e-63
3.95327e-65
3.15332e-65
1.40092e-61
-4.37132e-61
9.86196e-57
-2.13703e-56
1.668e-54
-3.44819e-54
2.11527e-52
-4.20867e-52
2.61945e-50
-4.78302e-50
2.21717e-48
-4.47899e-48
2.1868e-46
-3.68795e-46
2.45818e-44
-2.50231e-44
1.46263e-42
-2.05644e-42
1.10602e-40
-1.44586e-40
9.89064e-39
-8.71755e-39
6.36312e-37
-5.12387e-37
3.99711e-35
-2.84905e-35
2.30411e-33
-1.46448e-33
1.23513e-31
-7.03327e-32
5.68105e-30
-2.89586e-30
2.23982e-28
-1.04264e-28
8.65977e-27
-3.4963e-27
5.85271e-24
-2.2887e-24
-1.49853e-22
3.82904e-22
-2.91568e-67
2.14827e-66
-1.62081e-65
2.87757e-64
-4.19758e-67
2.06426e-65
6.78172e-63
-8.05153e-63
3.79842e-58
-5.2878e-58
7.16819e-56
-9.39671e-56
1.04941e-53
-1.25524e-53
1.45222e-51
-1.56842e-51
1.67777e-49
-1.52487e-49
1.70625e-47
-1.58122e-47
1.42448e-45
-1.33337e-45
1.46865e-43
-1.13075e-43
1.27808e-41
-7.9905e-42
9.46909e-40
-6.15329e-40
6.89375e-38
-4.00422e-38
4.74035e-36
-2.52279e-36
3.01151e-34
-1.45711e-34
1.78498e-32
-7.78149e-33
9.07769e-31
-3.66431e-31
4.0535e-29
-1.52826e-29
1.70197e-27
-5.59604e-28
1.40809e-24
-4.34655e-25
-3.12385e-23
9.73004e-23
-9.01801e-68
2.99971e-67
-4.53924e-66
3.75757e-65
-2.97365e-67
-1.03599e-68
1.3833e-64
-3.99679e-64
1.0302e-59
-8.59526e-60
2.14586e-57
-1.72283e-57
3.43563e-55
-2.62676e-55
5.21533e-53
-3.80086e-53
6.20786e-51
-4.33603e-51
7.93621e-49
-5.08381e-49
8.26342e-47
-4.77097e-47
8.6238e-45
-4.927e-45
7.48619e-43
-3.99203e-43
7.1273e-41
-3.5972e-41
5.69303e-39
-2.62394e-39
4.40261e-37
-1.83215e-37
3.1212e-35
-1.21882e-35
2.0417e-33
-7.31675e-34
1.18055e-31
-4.00612e-32
6.05319e-30
-1.93713e-30
2.74933e-28
-7.89498e-29
2.64429e-25
-6.65375e-26
-5.42941e-24
1.98191e-23
-1.35853e-68
1.01924e-78
-6.0109e-67
1.29944e-77
3.80541e-67
-9.91991e-67
6.69603e-66
-1.23513e-65
1.60471e-61
-9.06523e-62
3.75736e-59
-2.2085e-59
6.85984e-57
-3.8616e-57
1.20716e-54
-6.64295e-55
1.69085e-52
-9.10444e-53
2.44218e-50
-1.24401e-50
2.82941e-48
-1.42649e-48
3.60793e-46
-1.66977e-46
3.60505e-44
-1.5958e-44
3.99858e-42
-1.61701e-42
3.58227e-40
-1.39886e-40
3.06225e-38
-1.05537e-38
2.49734e-36
-8.13788e-37
1.83492e-34
-5.73113e-35
1.23018e-32
-3.66697e-33
7.27503e-31
-2.06667e-31
3.66275e-29
-9.72114e-30
3.75659e-26
-8.04808e-27
-7.74001e-25
3.17084e-24
-4.81156e-80
5.39247e-79
-1.98812e-79
8.40193e-76
2.29477e-68
-2.35784e-71
1.62844e-67
-1.37978e-67
1.4317e-63
-5.39755e-64
4.02909e-61
-1.61992e-61
8.41545e-59
-3.80391e-59
1.76496e-56
-7.30452e-57
2.98852e-54
-1.33433e-54
5.06726e-52
-2.03819e-52
7.23855e-50
-3.03799e-50
1.05205e-47
-3.9075e-48
1.24875e-45
-4.50165e-46
1.56645e-43
-5.37512e-44
1.67253e-41
-5.26277e-42
1.5525e-39
-4.65511e-40
1.4709e-37
-4.02413e-38
1.27252e-35
-3.5028e-36
9.96633e-34
-2.64103e-34
6.85927e-32
-1.76838e-32
3.97475e-30
-9.82309e-31
3.95893e-27
-7.48361e-28
-8.75889e-26
3.91353e-25
-2.55282e-80
2.13942e-79
-1.16911e-77
3.6211e-76
2.4399e-73
-1.29697e-73
1.52252e-69
-7.18956e-70
6.35662e-66
-1.40604e-66
2.15255e-63
-4.92286e-64
6.00453e-61
-1.63385e-61
1.4153e-58
-4.07954e-59
3.2375e-56
-9.8006e-57
6.23936e-54
-1.87522e-54
1.17795e-51
-3.60114e-52
1.91227e-49
-5.39615e-50
2.78068e-47
-8.51221e-48
4.16472e-45
-1.13822e-45
5.08617e-43
-1.27953e-43
5.6006e-41
-1.41886e-41
5.99682e-39
-1.49292e-39
6.44366e-37
-1.52525e-37
5.96116e-35
-1.36411e-35
4.88072e-33
-1.11898e-33
3.32651e-31
-7.16869e-32
3.03844e-28
-5.08297e-29
-7.42127e-27
3.63216e-26
-9.73858e-81
5.66118e-80
-4.38116e-78
9.48376e-77
1.03354e-75
-8.98626e-78
5.5734e-72
-2.19032e-73
1.07417e-68
-5.42187e-70
4.04647e-66
-4.12e-67