/*--------------------------------*- C++ -*----------------------------------*\
| =========                 |                                                 |
| \\      /  F ield         | OpenFOAM: The Open Source CFD Toolbox           |
|  \\    /   O peration     | Version:  5.x                                   |
|   \\  /    A nd           | Web:      www.OpenFOAM.org                      |
|    \\/     M anipulation  |                                                 |
\*---------------------------------------------------------------------------*/
FoamFile
{
    version     2.0;
    format      ascii;
    class       volScalarField;
    location    "0.4";
    object      p;
}
// * * * * * * * * * * * * * * * * * * * * * * * * * * * * * * * * * * * * * //

dimensions      [1 -1 -2 0 0 0 0];

internalField   nonuniform List<scalar> 
2268
(
878.46
880.382
888.629
897.206
901.058
899.599
895.364
891.457
889.685
890.728
894.814
902.123
912.943
927.617
946.324
969.209
995.738
1023.46
1045.87
1058.28
1045.33
1028.13
1071.16
818.572
820.137
828.461
836.945
840.798
839.362
835.229
831.47
829.838
830.983
835.125
842.427
853.048
867.149
885.031
906.927
932.644
960.738
985.847
1001.22
992.36
957.596
1003.56
757.574
758.774
766.993
775.316
779.157
777.777
773.849
770.381
769.024
770.367
774.613
781.924
792.486
806.546
824.135
845.248
869.223
894.63
918.435
934.65
930.61
900.036
945.045
695.724
696.357
704.316
712.406
716.216
714.928
711.305
708.259
707.294
708.915
713.305
720.639
731.124
744.933
762.239
782.733
805.63
829.121
850.585
865.952
868.419
858.889
899.707
633.339
633.087
640.6
648.392
652.139
650.968
647.719
645.192
644.705
646.658
651.213
658.568
668.96
682.597
699.565
719.544
741.705
764.273
784.691
800.183
809.836
816.474
860.486
570.783
569.054
576.122
583.431
587.072
586.033
583.208
581.265
581.308
583.617
588.341
595.705
605.987
619.426
636.097
655.689
677.344
699.449
719.766
735.963
749.65
764.228
806.81
508.559
504.706
510.547
517.288
520.889
520.097
517.782
516.489
517.097
519.767
524.645
532.003
542.169
555.42
571.824
591.109
612.461
634.394
654.939
671.658
685.955
700.509
731.917
447.186
440.466
443.798
449.852
453.701
453.406
451.722
451.097
452.227
455.182
460.125
467.381
477.357
490.426
506.697
525.805
546.983
568.893
589.718
606.72
619.385
629.081
632.692
298.21
298.176
297.991
297.814
297.697
297.588
297.47
297.354
297.244
297.141
297.046
296.959
296.883
296.823
296.779
296.75
296.734
296.724
296.715
298.154
298.118
297.921
297.743
297.634
297.527
297.409
297.292
297.182
297.08
296.985
296.897
296.821
296.761
296.717
296.689
296.673
296.663
296.654
298.1
298.051
297.837
297.659
297.563
297.46
297.342
297.227
297.118
297.018
296.923
296.834
296.757
296.696
296.652
296.624
296.609
296.6
296.591
298.049
297.968
297.721
297.553
297.484
297.386
297.271
297.158
297.052
296.954
296.86
296.769
296.69
296.628
296.584
296.558
296.544
296.536
296.527
298.001
297.882
297.569
297.423
297.397
297.308
297.196
297.087
296.983
296.888
296.795
296.701
296.62
296.557
296.513
296.488
296.476
296.469
296.461
297.955
297.776
297.371
297.264
297.304
297.223
297.117
297.011
296.911
296.821
296.73
296.631
296.546
296.482
296.438
296.415
296.405
296.401
296.394
297.91
297.597
297.093
297.076
297.206
297.132
297.033
296.931
296.837
296.754
296.665
296.559
296.469
296.402
296.359
296.339
296.332
296.331
296.324
297.895
297.265
296.723
296.881
297.105
297.038
296.946
296.845
296.757
296.685
296.599
296.483
296.387
296.318
296.276
296.26
296.256
296.258
296.254
352.976
341.407
339.001
344.031
348.611
348.962
348.025
348.293
350.1
353.366
358.275
365.215
374.672
387.159
403.012
422.127
443.676
466.345
488.107
505.457
513.366
504.403
426.234
233.368
216.289
200.06
198.068
201.898
201.708
200.815
202.229
205.221
209.236
214.548
221.712
231.289
243.603
258.767
277.008
298.08
322.143
346.752
366.618
375.881
370.74
346.705
129.637
103.45
70.1593
60.561
63.4526
62.927
61.541
62.581
64.7208
67.239
70.2138
74.3219
80.7688
91.208
106.478
125.487
149.904
180.944
213.877
239.077
255.885
267.228
276.104
53.8847
21.6822
5.53143
5.02077
5.98709
5.42113
4.80853
4.91609
5.31798
5.83289
6.40422
7.21442
8.53582
10.6658
13.7201
18.1465
27.3337
47.7563
81.2195
113.526
142.78
167.794
185.475
1.22173
0.35386
0.411904
0.521347
0.516186
0.530433
0.531539
0.523575
0.51654
0.514318
0.519348
0.533564
0.559146
0.609527
0.709228
0.848135
1.03188
2.24285
7.42454
17.7459
36.4745
64.3176
90.6595
0.382293
0.283628
0.316156
0.357732
0.36787
0.375792
0.3789
0.377325
0.375794
0.377467
0.385315
0.401225
0.423074
0.449873
0.514326
0.645988
0.771363
0.783447
0.829188
0.923723
1.32457
7.0981
22.213
0.222547
0.207345
0.202711
0.211356
0.216949
0.22161
0.224847
0.226196
0.227524
0.230983
0.23888
0.252383
0.267312
0.274712
0.305953
0.37575
0.422653
0.431101
0.418433
0.333414
0.120283
-0.0596025
0.101318
0.0580252
0.0502239
0.0534895
0.0600637
0.0648697
0.0688891
0.0722099
0.074774
0.0774483
0.0817496
0.0890003
0.0994493
0.109093
0.1091
0.104392
0.12239
0.134896
0.126232
0.048258
-0.101487
-0.249653
-0.319778
-0.296684
-0.0964301
-0.0959518
-0.0929343
-0.090189
-0.0866832
-0.0831717
-0.0797629
-0.0765617
-0.0732001
-0.0688102
-0.0625959
-0.054703
-0.0487872
-0.0484849
-0.0631986
-0.06806
-0.0811742
-0.110079
-0.17197
-0.316813
-0.470812
-0.547214
-0.497572
-0.248917
-0.246851
-0.244186
-0.241723
-0.238762
-0.235461
-0.231956
-0.228368
-0.224617
-0.220315
-0.215112
-0.20923
-0.204997
-0.204199
-0.212406
-0.220229
-0.239144
-0.271489
-0.322978
-0.426541
-0.541234
-0.588441
-0.564318
-0.40138
-0.399278
-0.396713
-0.394337
-0.391482
-0.388171
-0.38449
-0.38054
-0.376354
-0.371843
-0.366976
-0.362123
-0.358449
-0.356612
-0.360637
-0.367325
-0.3824
-0.409828
-0.460867
-0.525439
-0.580632
-0.600447
-0.561127
-0.554205
-0.552382
-0.550104
-0.547735
-0.544829
-0.541391
-0.537467
-0.533132
-0.52845
-0.523472
-0.518323
-0.513433
-0.509028
-0.50555
-0.506159
-0.509732
-0.518551
-0.53754
-0.576177
-0.623462
-0.658752
-0.655301
-0.605064
-0.707861
-0.706371
-0.704289
-0.701863
-0.698825
-0.695173
-0.690942
-0.686182
-0.680956
-0.675344
-0.669478
-0.663622
-0.658036
-0.653319
-0.650595
-0.650135
-0.652843
-0.660857
-0.676628
-0.698158
-0.714177
-0.70996
-0.680122
-0.862475
-0.861218
-0.859238
-0.856723
-0.853502
-0.849578
-0.844978
-0.839739
-0.833911
-0.827563
-0.820801
-0.813799
-0.806793
-0.800165
-0.79445
-0.78999
-0.787295
-0.787066
-0.789145
-0.790577
-0.784985
-0.76665
-0.732993
-1.0181
-1.01697
-1.01501
-1.01237
-1.00893
-1.00468
-0.999669
-0.993901
-0.987414
-0.980255
-0.972493
-0.96423
-0.955621
-0.946869
-0.938193
-0.929751
-0.921648
-0.913867
-0.905719
-0.895151
-0.878778
-0.852851
-0.815159
-1.17475
-1.17367
-1.17168
-1.16887
-1.16518
-1.16059
-1.15513
-1.1488
-1.14161
-1.13359
-1.12477
-1.11519
-1.10491
-1.09401
-1.08253
-1.07046
-1.05768
-1.04383
-1.02807
-1.00886
-0.984196
-0.95215
-0.911663
-1.33245
-1.33137
-1.3293
-1.32631
-1.32235
-1.3174
-1.31148
-1.30457
-1.29668
-1.28778
-1.27789
-1.26698
-1.25506
-1.24211
-1.22805
-1.21276
-1.196
-1.17732
-1.156
-1.13097
-1.10095
-1.06468
-1.02142
-1.49123
-1.49011
-1.48793
-1.48475
-1.48052
-1.47522
-1.46885
-1.46137
-1.45277
-1.44303
-1.43209
-1.41992
-1.40645
-1.3916
-1.37524
-1.35717
-1.33708
-1.31456
-1.28898
-1.25956
-1.22544
-1.1858
-1.14015
-1.65111
-1.64994
-1.64764
-1.64428
-1.63979
-1.63415
-1.62734
-1.61932
-1.61007
-1.59951
-1.58761
-1.57426
-1.55939
-1.54285
-1.52449
-1.50405
-1.48124
-1.45566
-1.4268
-1.39406
-1.35682
-1.31451
-1.26673
-1.81213
-1.81091
-1.8085
-1.80496
-1.80023
-1.79427
-1.78706
-1.77856
-1.7687
-1.75742
-1.74464
-1.73025
-1.71413
-1.69614
-1.67608
-1.65369
-1.62868
-1.60067
-1.56925
-1.53394
-1.49426
-1.44976
-1.40011
-1.97433
-1.97307
-1.97055
-1.96686
-1.96191
-1.95568
-1.94812
-1.93918
-1.92879
-1.91688
-1.90335
-1.88806
-1.8709
-1.85169
-1.83023
-1.80626
-1.77949
-1.74959
-1.71619
-1.6789
-1.6373
-1.59101
-1.53973
-2.13776
-2.13648
-2.13386
-2.13004
-2.12491
-2.11845
-2.11059
-2.10129
-2.09046
-2.07803
-2.06387
-2.04785
-2.02985
-2.00966
-1.98709
-1.96189
-1.93377
-1.90243
-1.86754
-1.82873
-1.78564
-1.73792
-1.68526
-2.30247
-2.30116
-2.29847
-2.29455
-2.28928
-2.28263
-2.27454
-2.26496
-2.25379
-2.24095
-2.22631
-2.20974
-2.19109
-2.17017
-2.14677
-2.12067
-2.09156
-2.05918
-2.02321
-1.98332
-1.93915
-1.89035
-1.83658
-2.46849
-2.46716
-2.46442
-2.46043
-2.45505
-2.44828
-2.44003
-2.43025
-2.41885
-2.40572
-2.39075
-2.3738
-2.3547
-2.33328
-2.30934
-2.28263
-2.25289
-2.21983
-2.18316
-2.14257
-2.09774
-2.04821
-1.99366
-2.63586
-2.63452
-2.63171
-2.6277
-2.62227
-2.61542
-2.60709
-2.59721
-2.58567
-2.57239
-2.55723
-2.54006
-2.52073
-2.49906
-2.47483
-2.44781
-2.41775
-2.38436
-2.34733
-2.3064
-2.26142
-2.21154
-2.15651
-2.80459
-2.80326
-2.80036
-2.79636
-2.79093
-2.78409
-2.77575
-2.76585
-2.75429
-2.74098
-2.72578
-2.70857
-2.6892
-2.66751
-2.64324
-2.61618
-2.58611
-2.55275
-2.51569
-2.47457
-2.43038
-2.38039
-2.32541
-2.97469
-2.97345
-2.97026
-2.96641
-2.96106
-2.95428
-2.94601
-2.93619
-2.92471
-2.91149
-2.8964
-2.87931
-2.86009
-2.83864
-2.81456
-2.78772
-2.75794
-2.72504
-2.68844
-2.64802
-2.60365
-2.55444
-2.5001
-3.14604
-3.14473
-3.14177
-3.13796
-3.13266
-3.12599
-3.11786
-3.1082
-3.09693
-3.08392
-3.06908
-3.05226
-3.03329
-3.0125
-2.98879
-2.96246
-2.93327
-2.90095
-2.86517
-2.82565
-2.78207
-2.73392
-2.68073
-3.31868
-3.31738
-3.31458
-3.31087
-3.30568
-3.29919
-3.29127
-3.28188
-3.2709
-3.25825
-3.24381
-3.22747
-3.20911
-3.18865
-3.16571
-3.14018
-3.11187
-3.08052
-3.04586
-3.00759
-2.96535
-2.91874
-2.86726
-3.49259
-3.49134
-3.48869
-3.48508
-3.48009
-3.47383
-3.4662
-3.45714
-3.44656
-3.43438
-3.42048
-3.40477
-3.38711
-3.36736
-3.34533
-3.32082
-3.29365
-3.26359
-3.23037
-3.19372
-3.15328
-3.1087
-3.05952
-3.66771
-3.66653
-3.66402
-3.66058
-3.65583
-3.64986
-3.64258
-3.63394
-3.62386
-3.61225
-3.59902
-3.58406
-3.56726
-3.54846
-3.52751
-3.50425
-3.47847
-3.44997
-3.41851
-3.38383
-3.34562
-3.30356
-3.25722
-3.84398
-3.8429
-3.84053
-3.83731
-3.83282
-3.8272
-3.82034
-3.8122
-3.80271
-3.79179
-3.77934
-3.76527
-3.74946
-3.7318
-3.71213
-3.6903
-3.66615
-3.63947
-3.61007
-3.57769
-3.54208
-3.50296
-3.45998
-4.02135
-4.02038
-4.01815
-4.01521
-4.01102
-4.0058
-3.99943
-3.99186
-3.98304
-3.9729
-3.96134
-3.94828
-3.93361
-3.91724
-3.89902
-3.87882
-3.8565
-3.83188
-3.80479
-3.77501
-3.74232
-3.70652
-3.66731
-4.19971
-4.19888
-4.1968
-4.19419
-4.19032
-4.18556
-4.17973
-4.1728
-4.16473
-4.15545
-4.14488
-4.13294
-4.11954
-4.1046
-4.08798
-4.06959
-4.04928
-4.02693
-4.00236
-3.97543
-3.94594
-3.91376
-3.87867
-4.37895
-4.37827
-4.37633
-4.37411
-4.37058
-4.36631
-4.36107
-4.35485
-4.34759
-4.33925
-4.32975
-4.31903
-4.30701
-4.29361
-4.27874
-4.26229
-4.24416
-4.22424
-4.20239
-4.1785
-4.15243
-4.12411
-4.09339
-4.55899
-4.55848
-4.55667
-4.55491
-4.5517
-4.54798
-4.54338
-4.53791
-4.53152
-4.52418
-4.51584
-4.50642
-4.49587
-4.48413
-4.4711
-4.45673
-4.44091
-4.42356
-4.40458
-4.3839
-4.36143
-4.33713
-4.31096
-4.73994
-4.73966
-4.73796
-4.7367
-4.7338
-4.73068
-4.72675
-4.72208
-4.71662
-4.71035
-4.70322
-4.69519
-4.6862
-4.6762
-4.66513
-4.65293
-4.63954
-4.62489
-4.60892
-4.59158
-4.57284
-4.5527
-4.53121
-4.92174
-4.92174
-4.92015
-4.91939
-4.9168
-4.91434
-4.91111
-4.90727
-4.90278
-4.89762
-4.89177
-4.88518
-4.87782
-4.86964
-4.86061
-4.85068
-4.8398
-4.82795
-4.81508
-4.80119
-4.78628
-4.77041
-4.75367
-5.10377
-5.10401
-5.10258
-5.10223
-5.09999
-5.09825
-5.09571
-5.09271
-5.08922
-5.08521
-5.08066
-5.07555
-5.06985
-5.06353
-5.05657
-5.04895
-5.04063
-5.03161
-5.02187
-5.01144
-5.00036
-4.98873
-4.97671
-5.28541
-5.28579
-5.28463
-5.28453
-5.28279
-5.28172
-5.27987
-5.27772
-5.27523
-5.27237
-5.26914
-5.26551
-5.26148
-5.25703
-5.25214
-5.24681
-5.24103
-5.2348
-5.22815
-5.2211
-5.21375
-5.2062
-5.19867
-5.46713
-5.4676
-5.46684
-5.46685
-5.46588
-5.46518
-5.46412
-5.46285
-5.46137
-5.45968
-5.45777
-5.45564
-5.45329
-5.45071
-5.4479
-5.44488
-5.44164
-5.43822
-5.43465
-5.43099
-5.42733
-5.42381
-5.42065
-5.65113
-5.65192
-5.65157
-5.65172
-5.65147
-5.65128
-5.65099
-5.65065
-5.65024
-5.64978
-5.64927
-5.64873
-5.64815
-5.64756
-5.64696
-5.64639
-5.64587
-5.64545
-5.64518
-5.64515
-5.64547
-5.64629
-5.64782
277.044
294.588
302.41
299.249
313.311
303.402
295.723
295.385
275.65
274.515
280.713
296.413
194.014
201.31
213.33
232.73
109.485
122.449
136.199
151.569
35.4772
45.1318
56.8132
69.3897
0.729508
2.55039
6.82517
13.6469
-0.263589
-0.228011
-0.1582
-0.048306
-0.401281
-0.334058
-0.272239
-0.212557
-0.473244
-0.406098
-0.341317
-0.280304
-0.499947
-0.45202
-0.398857
-0.346369
-0.547277
-0.5114
-0.475648
-0.434016
-0.641415
-0.612822
-0.580953
-0.543915
-0.69746
-0.671913
-0.645205
-0.616159
-0.77989
-0.755169
-0.728326
-0.699481
-0.876159
-0.851747
-0.825647
-0.798065
-0.984763
-0.959787
-0.933311
-0.905425
-1.1023
-1.07672
-1.04978
-1.02156
-1.22767
-1.20139
-1.17385
-1.14511
-1.35985
-1.33285
-1.30463
-1.27526
-1.49832
-1.4706
-1.44168
-1.4116
-1.64281
-1.6144
-1.58478
-1.55395
-1.79323
-1.7642
-1.73392
-1.70238
-1.94966
-1.92013
-1.88929
-1.8571
-2.11233
-2.08247
-2.05128
-2.01874
-2.28097
-2.25113
-2.21992
-2.18728
-2.45606
-2.42647
-2.39547
-2.36302
-2.63757
-2.60855
-2.57811
-2.54621
-2.82547
-2.79738
-2.76789
-2.73696
-3.01963
-2.99282
-2.9647
-2.9352
-3.21974
-3.19458
-3.16821
-3.14059
-3.42534
-3.40214
-3.37789
-3.35255
-3.63588
-3.6149
-3.59302
-3.57026
-3.85072
-3.83213
-3.81282
-3.79283
-4.06912
-4.05305
-4.03644
-4.01934
-4.29048
-4.27701
-4.26318
-4.24905
-4.51458
-4.50374
-4.49272
-4.48158
-4.74095
-4.73275
-4.72453
-4.71636
-4.96786
-4.96226
-4.95676
-4.95143
-5.19343
-5.19024
-5.18725
-5.18452
-5.41882
-5.41791
-5.41729
-5.41702
-5.6497
-5.65123
-5.65314
-5.65549
298.2
296.568
296.17
296.654
296.944
296.882
296.8
296.704
296.633
296.591
296.509
296.362
296.251
296.18
296.137
296.129
296.131
296.141
296.143
289.365
294.493
295.421
296.534
296.862
296.75
296.552
296.447
296.419
296.452
296.362
296.173
296.043
295.964
295.918
295.939
295.95
295.976
295.99
301.051
289.405
297.702
297.444
297.107
296.595
296.283
296.218
296.236
296.449
296.378
295.935
295.734
295.67
295.63
295.729
295.735
295.786
295.844
253.564
269.555
299.337
297.506
293.887
295.763
295.83
295.782
295.67
296.004
296.384
295.648
295.331
295.327
295.154
295.396
295.426
295.532
295.741
177.022
208.551
241.919
249.731
230.366
248.167
269.764
267.859
257.917
267.33
291.155
294.346
293.958
294.625
294.548
294.969
295.02
295.222
295.608
93.149
122.73
148.024
172.964
166.985
174.678
191.716
174.474
170.001
199.737
213.334
233.82
248.952
268.643
285.761
292.581
294.336
294.226
295.314
28.8866
46.7199
64.3604
84.2873
95.0494
101.12
108.209
108.995
111.394
123.434
134.55
158.523
188.505
183.642
205.962
255.819
290.265
286.929
296.359
0.21425
3.31493
10.596
19.1609
27.925
33.9466
37.973
40.6213
42.2484
45.4787
54.4589
73.3718
97.1845
122.193
168.958
225.651
253.893
260.6
297.93
-0.128212
-0.0844535
0.104077
0.206032
0.287873
0.913085
1.78356
2.37597
2.91403
3.90007
6.27288
12.2785
24.3212
54.9882
109.521
192.684
278.743
324.498
414.97
-0.18348
-0.081496
0.0193539
0.134687
0.299438
0.455308
0.573806
0.661426
0.722322
0.742672
0.753841
0.813795
1.14847
4.11866
33.2712
136.781
345.923
582.625
766.759
-0.265717
-0.179573
-0.0863903
0.031956
0.175988
0.31671
0.426653
0.517897
0.580659
0.601213
0.607482
0.638571
0.721771
1.07452
5.28713
44.6364
304.38
632.907
891.48
-0.36383
-0.273026
-0.175507
-0.0692805
0.0439859
0.161828
0.279967
0.385614
0.458102
0.490686
0.513624
0.56332
0.666373
0.823276
2.00048
9.16086
180.628
512.63
733.397
-0.475422
-0.385381
-0.293011
-0.188477
-0.0736527
0.0415412
0.152993
0.252536
0.330276
0.383812
0.432259
0.501858
0.599692
0.709115
1.04491
3.33247
65.6319
338.143
486.818
-0.562408
-0.479194
-0.388013
-0.287455
-0.181322
-0.0748144
0.0283767
0.124721
0.209576
0.284939
0.35757
0.44604
0.5514
0.661688
0.791297
1.29403
9.8649
186.008
257.772
-0.648666
-0.568276
-0.480621
-0.386827
-0.289291
-0.189866
-0.0906188
0.0059437
0.094203
0.182177
0.275253
0.38673
0.5093
0.616804
0.708477
0.657323
-0.040781
79.4317
112.982
-0.74782
-0.669219
-0.584383
-0.494728
-0.401528
-0.305615
-0.208665
-0.112898
-0.0204386
0.0732473
0.173118
0.287345
0.430714
0.47158
0.542851
0.346445
4.96551
39.1271
63.9928
-0.856005
-0.778871
-0.695867
-0.60828
-0.517019
-0.422754
-0.32677
-0.23098
-0.137109
-0.0428586
0.0550251
0.160706
0.282906
0.333742
0.467028
0.303223
14.9636
41.4637
52.2368
-0.97195
-0.895133
-0.812717
-0.725806
-0.635161
-0.54123
-0.445242
-0.348805
-0.254999
-0.162411
-0.0690909
0.0285725
0.140223
0.239557
0.36399
0.918095
15.6656
37.0945
43.3673
-1.09481
-1.01751
-0.934673
-0.847259
-0.755962
-0.661077
-0.563893
-0.466053
-0.371795
-0.280881
-0.191777
-0.102881
0.00155749
0.100874
0.172839
0.476157
4.7111
30.6766
32.5137
-1.22402
-1.14563
-1.06149
-0.972552
-0.879474
-0.782295
-0.6821
-0.581865
-0.484413
-0.393214
-0.306602
-0.222869
-0.134555
-0.049615
0.0622588
0.00351776
0.0962919
18.5637
20.5605
-1.3592
-1.2792
-1.19314
-1.10177
-1.00597
-0.905197
-0.800112
-0.693808
-0.590797
-0.495156
-0.407878
-0.329611
-0.247132
-0.150786
0.0174653
0.211
-0.0226529
6.86891
23.8634
-1.50029
-1.41834
-1.32983
-1.23514
-1.13618
-1.0306
-0.918462
-0.80258
-0.689094
-0.583213
-0.490653
-0.4142
-0.334011
-0.211418
0.0138399
0.289978
0.135464
1.44865
35.3787
-1.64745
-1.56359
-1.47209
-1.37259
-1.27172
-1.1594
-1.03855
-0.909514
-0.781477
-0.660754
-0.555205
-0.473242
-0.398224
-0.262769
-0.0156214
0.249958
0.742979
14.4213
19.4428
-1.80085
-1.71578
-1.62163
-1.51961
-1.41066
-1.29112
-1.16025
-1.01884
-0.871563
-0.733042
-0.609944
-0.513145
-0.445179
-0.374087
-0.325927
-0.550444
-1.45152
0.453165
5.47237
-1.96194
-1.87473
-1.77841
-1.67309
-1.55804
-1.43011
-1.28831
-1.13463
-0.963466
-0.808333
-0.671924
-0.563533
-0.511182
-0.566352
-0.71639
-0.793911
-0.277985
1.67843
1.88476
-2.13017
-2.04165
-1.9433
-1.83431
-1.71544
-1.57831
-1.4246
-1.25489
-1.07329
-0.894872
-0.752296
-0.643907
-0.577263
-0.592474
-0.565286
-0.333367
0.249318
1.08752
11.7831
-2.30609
-2.21723
-2.11779
-2.00602
-1.87986
-1.73816
-1.57351
-1.38951
-1.19454
-1.00111
-0.849297
-0.749548
-0.640422
-0.550147
-0.388448
-0.670318
0.0531589
1.13268
43.5984
-2.49014
-2.40219
-2.30328
-2.19121
-2.06378
-1.91595
-1.74131
-1.54543
-1.33741
-1.12305
-0.953524
-0.88052
-0.711713
-0.431453
-0.211711
-0.847622
0.56389
15.5798
141.483
-2.68255
-2.59701
-2.50053
-2.39057
-2.26442
-2.11452
-1.93319
-1.72867
-1.51066
-1.27987
-1.10038
-1.04503
-0.928666
-0.466342
-1.14614
-7.40168
17.8604
71.0208
278.257
-2.88331
-2.80186
-2.70996
-2.60511
-2.48432
-2.33777
-2.15647
-1.94559
-1.72115
-1.48187
-1.31877
-1.33555
-1.3855
-4.17158
-11.7642
2.45495
43.4045
123.168
387.136
-3.09211
-3.01641
-2.93146
-2.83531
-2.72522
-2.58896
-2.41765
-2.20928
-1.97107
-1.70063
-1.5129
-1.5654
-2.55114
0.198898
-2.13583
-0.762807
28.7777
81.7534
344.641
-3.30821
-3.23967
-3.16384
-3.07979
-2.98611
-2.86922
-2.71938
-2.52405
-2.28027
-1.98595
-1.98486
-2.70752
-1.63448
-2.07828
-4.75418
-6.5454
-3.8382
11.8815
235.405
-3.53062
-3.47014
-3.40476
-3.33465
-3.26094
-3.17277
-3.06189
-2.91211
-2.68163
-2.4644
-3.13005
-4.53333
-4.87385
-5.94103
-7.17828
-8.42596
-12.5085
-7.89793
100.551
-3.75822
-3.70625
-3.65171
-3.59556
-3.54146
-3.48434
-3.42374
-3.34708
-3.22874
-3.27502
-5.0334
-5.9272
-5.87731
-6.23758
-7.2492
-9.57998
-13.0004
-19.5634
24.3753
-3.98993
-3.9466
-3.90267
-3.8597
-3.82265
-3.79286
-3.77633
-3.7714
-3.80049
-4.24809
-6.73807
-7.04878
-5.80586
-5.9096
-6.92574
-10.5021
-6.86047
-4.23841
4.26472
-4.22492
-4.19021
-4.15648
-4.12578
-4.10263
-4.09396
-4.10306
-4.15207
-4.24052
-4.59643
-4.76264
-5.35538
-5.00037
-5.13135
-5.94857
-7.94417
-2.69247
-1.10217
-0.311632
-4.4628
-4.43667
-4.41282
-4.39362
-4.38301
-4.39102
-4.41378
-4.47958
-4.53136
-4.68753
-3.83775
-4.81745
-4.33345
-4.3109
-4.54541
-4.074
-3.5422
-2.60141
-2.00073
-4.70285
-4.68514
-4.67088
-4.66263
-4.66447
-4.68758
-4.72348
-4.82239
-4.95462
-5.12622
-5.20898
-6.17813
-4.26164
-3.87801
-3.63861
-2.556
-3.07752
-4.01541
-3.57391
-4.94288
-4.93312
-4.92785
-4.92995
-4.94388
-4.97971
-5.02119
-5.14593
-5.29415
-5.64513
-7.05857
-8.32258
-4.97427
-3.84059
-3.55021
-2.54228
-2.97527
-5.07951
-4.80416
-5.18053
-5.17784
-5.18048
-5.19178
-5.21704
-5.26535
-5.3203
-5.47464
-5.47987
-5.67628
-4.78513
-7.27609
-6.80112
-3.83599
-3.86069
-3.19407
-3.45486
-5.32905
-5.41402
-5.41734
-5.42108
-5.43053
-5.44929
-5.4834
-5.54313
-5.62964
-5.8497
-5.97742
-6.54423
-6.17113
-5.12567
-16.8106
-1.12204
-4.37052
-4.32089
-4.20889
-5.36461
-5.41733
-5.66033
-5.67071
-5.68674
-5.71154
-5.75041
-5.81266
-5.91196
-6.12916
-6.35105
-7.32268
-9.37142
-18.7173
-16.379
-5.37619
-6.80384
-6.02204
-5.52355
-5.53004
-5.45926
)
;

boundaryField
{
    leftWall
    {
        type            calculated;
        value           nonuniform List<scalar> 
50
(
878.46
818.572
757.574
695.724
633.339
570.783
508.559
447.186
352.976
233.368
129.637
53.8847
1.22173
0.382293
0.222547
0.0580252
-0.0964301
-0.248917
-0.40138
-0.554205
-0.707861
-0.862475
-1.0181
-1.17475
-1.33245
-1.49123
-1.65111
-1.81213
-1.97433
-2.13776
-2.30247
-2.46849
-2.63586
-2.80459
-2.97469
-3.14604
-3.31868
-3.49259
-3.66771
-3.84398
-4.02135
-4.19971
-4.37895
-4.55899
-4.73994
-4.92174
-5.10377
-5.28541
-5.46713
-5.65113
)
;
    }
    rightWall
    {
        type            calculated;
        value           nonuniform List<scalar> 
50
(
296.715
296.654
296.591
296.527
296.461
296.394
296.324
296.254
296.143
295.99
295.844
295.741
295.608
295.314
296.359
297.93
414.97
766.759
891.48
733.397
486.818
257.772
112.982
63.9928
52.2368
43.3673
32.5137
20.5605
23.8634
35.3787
19.4428
5.47237
1.88476
11.7831
43.5984
141.483
278.257
387.136
344.641
235.405
100.551
24.3753
4.26472
-0.311632
-2.00073
-3.57391
-4.80416
-5.41402
-5.41733
-5.45926
)
;
    }
    lowerWall
    {
        type            calculated;
        value           nonuniform List<scalar> 
62
(
907.889
909.811
918.059
926.635
930.487
929.028
924.794
920.886
919.115
920.157
924.243
931.553
942.373
957.046
975.753
998.638
1025.17
1052.89
1075.3
1086.68
1066.82
1054.08
1100.58
1071.16
1003.56
945.045
899.707
860.486
806.81
731.917
632.692
339.641
357.185
352.528
314.938
298.21
298.154
298.1
298.049
298.001
297.955
297.91
297.895
298.239
298.205
298.02
297.843
297.727
297.617
297.5
297.384
297.273
297.171
297.075
296.988
296.912
296.852
296.808
296.779
296.763
296.754
296.744
)
;
    }
    atmosphere
    {
        type            calculated;
        value           nonuniform List<scalar> 
46
(
-5.74527
-5.74666
-5.74642
-5.74665
-5.74675
-5.74687
-5.74701
-5.74717
-5.74735
-5.74757
-5.74784
-5.74817
-5.74859
-5.7491
-5.74975
-5.75056
-5.75158
-5.75286
-5.75449
-5.75655
-5.75918
-5.76255
-5.76688
-5.77098
-5.774
-5.77745
-5.78139
-5.78901
-5.80343
-5.82341
-5.85146
-5.89152
-5.94926
-6.03427
-6.19491
-6.2291
-6.90007
-9.19614
-36.5323
-135.975
-5.86472
-5.7415
-6.44016
-6.52217
-6.58677
-5.8976
)
;
    }
    defaultFaces
    {
        type            empty;
    }
}


// ************************************************************************* //
