/*--------------------------------*- C++ -*----------------------------------*\
| =========                 |                                                 |
| \\      /  F ield         | OpenFOAM: The Open Source CFD Toolbox           |
|  \\    /   O peration     | Version:  5.x                                   |
|   \\  /    A nd           | Web:      www.OpenFOAM.org                      |
|    \\/     M anipulation  |                                                 |
\*---------------------------------------------------------------------------*/
FoamFile
{
    version     2.0;
    format      ascii;
    class       volScalarField;
    location    "0.4";
    object      p_rgh;
}
// * * * * * * * * * * * * * * * * * * * * * * * * * * * * * * * * * * * * * //

dimensions      [1 -1 -2 0 0 0 0];

internalField   nonuniform List<scalar> 
2268
(
907.889
909.811
918.059
926.635
930.487
929.028
924.794
920.886
919.115
920.157
924.243
931.553
942.373
957.046
975.753
998.638
1025.17
1052.89
1075.3
1086.68
1066.82
1054.08
1100.58
906.86
908.426
916.749
925.233
929.086
927.65
923.517
919.758
918.127
919.272
923.413
930.715
941.336
955.437
973.319
995.215
1020.93
1049.03
1074.13
1089.32
1069.27
1038.6
1091.85
904.721
905.921
914.14
922.463
926.304
924.924
920.996
917.528
916.171
917.514
921.76
929.071
939.633
953.693
971.282
992.395
1016.37
1041.78
1065.58
1081.8
1077.74
1047.03
1091.87
901.729
902.363
910.322
918.411
922.221
920.934
917.31
914.265
913.3
914.921
919.311
926.645
937.129
950.939
968.244
988.739
1011.64
1035.13
1056.59
1071.96
1074.42
1064.89
1104.7
898.203
897.952
905.464
913.256
917.003
915.832
912.584
910.057
909.569
911.522
916.077
923.432
933.824
947.461
964.43
984.409
1006.57
1029.14
1049.56
1065.05
1074.7
1081.34
1124.98
894.506
892.777
899.845
907.154
910.795
909.756
906.931
904.988
905.031
907.34
912.064
919.428
929.71
943.149
959.82
979.412
1001.07
1023.17
1043.49
1059.69
1073.37
1087.95
1130.53
891.141
887.288
893.129
899.87
903.471
902.678
900.364
899.071
899.678
902.348
907.227
914.585
924.751
938.002
954.406
973.69
995.042
1016.98
1037.52
1054.24
1068.54
1083.09
1114.5
888.626
881.907
885.238
891.292
895.141
894.846
893.162
892.538
893.667
896.623
901.565
908.821
918.798
931.867
948.137
967.245
988.424
1010.33
1031.16
1048.16
1060.83
1070.52
1074.13
298.239
298.205
298.02
297.843
297.727
297.617
297.5
297.384
297.273
297.171
297.075
296.988
296.912
296.852
296.808
296.779
296.763
296.754
296.744
298.242
298.206
298.009
297.831
297.723
297.616
297.497
297.381
297.271
297.169
297.073
296.986
296.91
296.849
296.805
296.777
296.761
296.751
296.742
298.247
298.198
297.984
297.806
297.711
297.607
297.489
297.374
297.265
297.165
297.07
296.981
296.904
296.843
296.799
296.772
296.756
296.748
296.739
298.255
298.187
297.933
297.759
297.69
297.592
297.477
297.364
297.258
297.16
297.066
296.975
296.896
296.834
296.79
296.764
296.75
296.742
296.733
298.28
298.208
297.892
297.692
297.662
297.573
297.461
297.351
297.248
297.153
297.06
296.966
296.885
296.822
296.778
296.753
296.74
296.734
296.726
298.347
298.179
297.797
297.599
297.628
297.547
297.441
297.335
297.235
297.145
297.053
296.955
296.87
296.805
296.762
296.739
296.729
296.725
296.717
298.292
298.112
297.678
297.489
297.588
297.515
297.416
297.313
297.219
297.136
297.047
296.941
296.851
296.785
296.742
296.722
296.715
296.713
296.707
298.336
298.001
297.672
297.361
297.546
297.48
297.387
297.286
297.198
297.126
297.04
296.925
296.828
296.76
296.717
296.701
296.697
296.699
296.696
886.443
874.874
872.462
877.487
882.068
882.423
881.489
881.758
883.567
886.833
891.742
898.682
908.139
920.626
936.479
955.594
977.143
999.812
1021.57
1038.92
1046.83
1037.87
959.702
892.03
874.945
858.624
856.582
860.433
860.275
859.408
860.843
863.848
867.873
873.193
880.363
889.945
902.262
917.428
935.67
956.742
980.805
1005.41
1025.28
1034.54
1029.4
1005.37
913.493
856.882
695.435
648.061
667.913
669.528
666.973
674.349
687.139
700.873
715.445
734.039
760.399
797.197
842.931
898.042
933.76
964.8
997.733
1022.93
1039.74
1051.08
1059.96
722.848
324.162
77.1947
69.2589
84.1127
74.7804
65.3435
67.506
74.0842
82.2684
91.2456
103.985
124.639
157.654
204.704
271.254
405.052
637.257
927.047
1022.58
1051.83
1076.84
1094.53
6.33838
1.38811
1.44615
1.55559
1.55043
1.56468
1.56578
1.55782
1.55079
1.54856
1.55359
1.56781
1.59339
1.64378
1.74353
1.88358
4.31058
28.7203
117.624
298.308
616.31
1019.54
1124.9
1.54173
1.44307
1.4756
1.51717
1.52731
1.53523
1.53834
1.53676
1.53523
1.53693
1.54483
1.56069
1.58252
1.60936
1.75945
2.17092
2.19105
2.20734
2.25308
2.69167
18.9015
151.469
442.94
1.50718
1.49198
1.48735
1.49599
1.50158
1.50624
1.50948
1.51083
1.51216
1.5157
1.52389
1.53731
1.55202
1.55947
1.96433
2.50722
2.41072
2.17469
2.60216
2.56311
1.92863
1.40623
1.80369
1.46785
1.46005
1.46332
1.46989
1.4747
1.47872
1.48204
1.4846
1.48728
1.49167
1.49924
1.50969
1.51904
1.51926
1.83964
2.1698
2.3595
2.35497
2.25734
2.33812
1.96814
1.1649
1.19983
1.43859
1.43907
1.44209
1.44483
1.44834
1.45185
1.45526
1.45846
1.46182
1.46624
1.47278
1.48044
1.487
1.49226
1.47185
1.46696
1.56803
1.82217
1.54416
1.35835
1.16117
1.0657
1.11394
1.4113
1.41337
1.41603
1.41849
1.42146
1.42476
1.42826
1.43185
1.4356
1.4399
1.44511
1.45099
1.45683
1.4678
1.4479
1.43999
1.42107
1.38876
1.77909
1.8801
1.45742
1.15462
1.17843
1.38403
1.38613
1.3887
1.39108
1.39393
1.39724
1.40092
1.40487
1.40906
1.41357
1.41844
1.4233
1.42836
1.42926
1.42478
1.41809
1.40301
1.41301
1.78933
1.96046
1.89991
1.46887
1.31311
1.3564
1.35822
1.3605
1.36287
1.36578
1.36922
1.37314
1.37747
1.38216
1.38713
1.39228
1.39717
1.40171
1.40506
1.40445
1.40087
1.39206
1.37307
1.33443
1.509
1.90783
2.07914
2.12937
1.32794
1.32943
1.33151
1.33394
1.33698
1.34063
1.34486
1.34962
1.35485
1.36046
1.36632
1.37218
1.37777
1.38248
1.38521
1.38567
1.38296
1.37494
1.35917
1.33764
1.32162
1.36422
1.47307
1.29852
1.29978
1.30176
1.30427
1.30749
1.31142
1.31602
1.32126
1.32708
1.33343
1.34019
1.3472
1.3542
1.36083
1.36655
1.37101
1.3737
1.37393
1.37185
1.37042
1.37601
1.39435
1.428
1.26809
1.26922
1.27118
1.27382
1.27727
1.28151
1.28652
1.29229
1.29878
1.30594
1.3137
1.32196
1.33057
1.33932
1.348
1.35644
1.36454
1.37232
1.38047
1.39104
1.40741
1.43334
1.47103
1.23663
1.23771
1.23971
1.24251
1.24621
1.25079
1.25626
1.26259
1.26977
1.27779
1.28661
1.2962
1.30648
1.31737
1.32885
1.34092
1.3537
1.36755
1.38332
1.40253
1.42719
1.45924
1.49972
1.20413
1.20521
1.20728
1.21027
1.21423
1.21918
1.2251
1.23201
1.2399
1.2488
1.25869
1.2696
1.28152
1.29447
1.30853
1.32381
1.34058
1.35926
1.38058
1.40561
1.43563
1.4719
1.51516
1.17055
1.17167
1.17384
1.17702
1.18125
1.18655
1.19293
1.2004
1.209
1.21875
1.22969
1.24186
1.25532
1.27017
1.28653
1.30461
1.3247
1.34721
1.37279
1.40222
1.43634
1.47597
1.52163
1.13586
1.13703
1.13932
1.14269
1.14718
1.15282
1.15963
1.16765
1.1769
1.18745
1.19936
1.2127
1.22758
1.24412
1.26248
1.28292
1.30573
1.3313
1.36017
1.39291
1.43014
1.47246
1.52023
1.10004
1.10126
1.10366
1.1072
1.11194
1.11789
1.1251
1.13361
1.14347
1.15475
1.16753
1.18191
1.19803
1.21602
1.23609
1.25848
1.28349
1.31149
1.34291
1.37822
1.4179
1.4624
1.51205
1.06302
1.06429
1.0668
1.07049
1.07544
1.08168
1.08924
1.09818
1.10856
1.12047
1.13401
1.14929
1.16646
1.18567
1.20713
1.2311
1.25786
1.28777
1.32117
1.35846
1.40006
1.44635
1.49763
1.02479
1.02608
1.02869
1.03251
1.03764
1.04411
1.05196
1.06126
1.07209
1.08452
1.09868
1.1147
1.13271
1.15289
1.17546
1.20066
1.22878
1.26012
1.29501
1.33382
1.37691
1.42463
1.47729
0.985273
0.986586
0.989273
0.993194
0.99847
1.00512
1.0132
1.02279
1.03395
1.0468
1.06144
1.078
1.09666
1.11758
1.14097
1.16708
1.19618
1.22857
1.26454
1.30443
1.34859
1.3974
1.45117
0.944449
0.945778
0.948525
0.952511
0.957889
0.964666
0.972911
0.982692
0.994094
1.00722
1.02219
1.03914
1.05824
1.07966
1.1036
1.13031
1.16005
1.19311
1.22978
1.27037
1.3152
1.36473
1.41928
0.902281
0.903619
0.906422
0.91044
0.91587
0.922713
0.931043
0.94093
0.952464
0.965747
0.980903
0.998072
1.01741
1.03908
1.06331
1.09033
1.12039
1.15378
1.1908
1.23174
1.27672
1.3266
1.38163
0.858742
0.860075
0.862973
0.866973
0.872398
0.879241
0.887579
0.897481
0.909038
0.922354
0.937549
0.954759
0.974127
0.995821
1.02009
1.04715
1.07722
1.11058
1.14764
1.18876
1.23295
1.28294
1.33792
0.813836
0.815071
0.81826
0.822111
0.827464
0.834244
0.842514
0.852339
0.863812
0.877035
0.892126
0.909212
0.928433
0.949886
0.973965
1.0008
1.03058
1.06349
1.10009
1.14051
1.18488
1.23408
1.28842
0.767682
0.768988
0.771951
0.775763
0.781059
0.787728
0.795859
0.805514
0.816794
0.8298
0.844642
0.861458
0.880429
0.901224
0.924931
0.95126
0.980452
1.01277
1.04855
1.08807
1.13165
1.1798
1.23299
0.720236
0.721536
0.724334
0.728049
0.733237
0.739728
0.747645
0.757033
0.768016
0.780668
0.795104
0.81144
0.829802
0.850266
0.873205
0.898733
0.927047
0.95839
0.99305
1.03132
1.07356
1.12018
1.17166
0.671522
0.67277
0.675418
0.679029
0.684014
0.690276
0.69791
0.706971
0.717548
0.729732
0.743624
0.759339
0.777
0.796744
0.818782
0.843288
0.870459
0.900521
0.933735
0.970392
1.01082
1.05541
1.10459
0.621595
0.622771
0.625282
0.628724
0.633477
0.639447
0.646727
0.655367
0.665447
0.677052
0.69028
0.705239
0.722047
0.740841
0.761788
0.785058
0.810836
0.839334
0.870789
0.905469
0.943679
0.985747
1.03208
0.570516
0.5716
0.573972
0.577192
0.581679
0.587299
0.594157
0.602296
0.611787
0.622712
0.63516
0.649231
0.665035
0.6827
0.702368
0.724195
0.748351
0.775025
0.804431
0.836806
0.872417
0.911539
0.954519
0.518345
0.519314
0.521541
0.524485
0.528674
0.533891
0.540266
0.547829
0.556648
0.566797
0.578356
0.591417
0.606078
0.622455
0.640672
0.660867
0.68319
0.707808
0.734904
0.764685
0.79737
0.833175
0.872379
0.465172
0.466004
0.468084
0.470695
0.474564
0.479328
0.485161
0.492082
0.500153
0.509438
0.520011
0.531949
0.545343
0.560291
0.576904
0.595299
0.615603
0.63796
0.662524
0.689461
0.718945
0.751129
0.786216
0.41113
0.411813
0.41375
0.415967
0.419506
0.423769
0.429011
0.435232
0.442487
0.450833
0.460332
0.471051
0.483068
0.496469
0.511344
0.527793
0.545921
0.565845
0.587691
0.611584
0.637647
0.665974
0.696688
0.356282
0.356795
0.358603
0.360365
0.363579
0.367293
0.371899
0.37737
0.383752
0.391091
0.399439
0.408855
0.419401
0.431148
0.444171
0.45855
0.474368
0.491718
0.510691
0.531376
0.553848
0.578146
0.604312
0.300529
0.300813
0.302508
0.303773
0.306672
0.309786
0.313718
0.318394
0.323848
0.33012
0.33725
0.345284
0.354274
0.364274
0.375344
0.387542
0.400934
0.415584
0.431554
0.448894
0.467635
0.487767
0.509262
0.243922
0.243922
0.24551
0.246279
0.248865
0.251321
0.254555
0.2584
0.262885
0.26804
0.273894
0.280483
0.287846
0.296023
0.305057
0.314989
0.325862
0.337715
0.350582
0.364477
0.379388
0.395257
0.411994
0.187091
0.186844
0.188278
0.188633
0.190869
0.192609
0.195151
0.198149
0.201643
0.205653
0.2102
0.21531
0.22101
0.227326
0.234285
0.241911
0.250228
0.259253
0.26899
0.279422
0.290503
0.302131
0.314148
0.130644
0.13026
0.131422
0.131528
0.133267
0.134329
0.136186
0.138331
0.140824
0.143684
0.146916
0.15054
0.154574
0.159028
0.163916
0.169247
0.175028
0.181254
0.187908
0.194949
0.202306
0.209851
0.217381
0.0741203
0.0736461
0.074412
0.0743934
0.0753675
0.0760719
0.0771321
0.078401
0.0798789
0.0815698
0.0834769
0.0856063
0.0879609
0.0905414
0.0933468
0.096373
0.0996078
0.103028
0.106596
0.110255
0.113915
0.117435
0.120601
0.0153125
0.014526
0.0148679
0.0147277
0.0149732
0.0151662
0.0154485
0.0157967
0.0162027
0.0166617
0.017168
0.0177142
0.0182902
0.0188835
0.019478
0.0200511
0.0205706
0.0209931
0.0212601
0.0212909
0.0209745
0.0201565
0.0186223
810.511
828.055
729.521
432.957
971.972
962.063
954.384
923.394
1059.51
1058.37
1064.57
1080.24
1103.06
1110.36
1122.38
1141.78
1143.73
1156.69
1170.44
1185.8
725.027
922.453
1133.88
1228.8
22.3044
68.4453
160.301
303.624
1.26209
1.34501
1.50089
1.74043
1.21121
1.28457
1.35741
1.4348
1.26981
1.3393
1.41019
1.48262
1.40084
1.66115
2.03578
2.31325
2.18716
2.12655
2.2734
2.64307
1.48158
1.49164
1.55475
1.68899
1.46354
1.48908
1.51579
1.54484
1.5063
1.53102
1.55786
1.58671
1.53523
1.55964
1.58574
1.61332
1.55182
1.57679
1.60327
1.63115
1.55947
1.58506
1.612
1.64022
1.5593
1.58558
1.61312
1.64186
1.55232
1.57932
1.60753
1.6369
1.53904
1.56676
1.59568
1.62576
1.51974
1.54816
1.57778
1.6086
1.49452
1.52355
1.55383
1.58536
1.46329
1.49281
1.52365
1.55584
1.4258
1.45567
1.48685
1.51939
1.38236
1.4122
1.44341
1.47605
1.33247
1.36206
1.39305
1.42551
1.27615
1.30517
1.33561
1.36751
1.21344
1.24154
1.27102
1.30196
1.14448
1.17129
1.19941
1.22891
1.06956
1.09473
1.12109
1.14871
0.989156
1.01235
1.03661
1.06195
0.90381
0.924795
0.946672
0.969436
0.814167
0.832758
0.852065
0.872056
0.72096
0.737029
0.753639
0.770737
0.624792
0.638261
0.652094
0.66623
0.525891
0.536729
0.547751
0.558892
0.424717
0.432918
0.441137
0.449305
0.322997
0.328603
0.334104
0.339433
0.222624
0.225815
0.228803
0.231529
0.122423
0.123338
0.12396
0.124225
0.0167428
0.0152098
0.0133019
0.010949
300.055
297.661
297.317
297.202
297.477
297.415
297.334
297.237
297.167
297.125
297.043
296.895
296.785
296.714
296.671
296.663
296.665
296.674
296.676
434.287
324.576
296.081
297.193
297.521
297.409
297.214
297.12
297.078
297.11
297.02
296.831
296.701
296.622
296.576
296.598
296.608
296.634
296.649
921.105
531.251
298.486
298.228
297.89
297.379
297.067
297.003
297.02
297.247
297.225
296.719
296.518
296.454
296.414
296.513
296.518
296.57
296.628
1162.58
1155.6
552.74
298.416
356.297
296.672
296.74
296.692
296.58
296.925
297.293
296.557
296.24
296.237
296.081
296.31
296.336
296.441
296.65
1211.24
1242.52
1223.43
908.08
988.109
975.901
694.792
709.8
882.308
764.828
429.828
296.9
294.995
298.894
295.616
296.121
296.065
296.267
296.642
1252.28
1281.32
1306.36
1328.7
1308.94
1305.56
1317.86
1302.23
1300.17
1329.34
1270.71
1178.37
1097.16
803.531
379.45
342.589
295.651
295.503
296.472
640.468
1029.54
1243.32
1347.86
1348.05
1354.34
1361.21
1361.48
1363.6
1375.64
1386.74
1408.85
1433.51
1416.51
1433.73
1152.44
379.005
289.156
297.637
6.81515
91.0115
248.635
443.174
654.315
798.596
885.234
935.828
976.954
1046.05
1173.06
1420.47
1454.86
1474.21
1520.17
1576.59
1196.12
385.371
475.729
1.55663
1.68768
2.08551
2.64894
4.90965
15.4282
28.534
40.5733
53.6196
78.7405
138.455
291.147
573.631
1236.13
1580.43
1659.65
1740.97
1208.82
1226.46
1.59824
1.74076
1.9454
2.39608
2.93784
2.42077
2.266
2.34857
2.41555
2.44796
2.50316
2.71671
3.58598
75.2987
671.062
1686.85
1913.61
2095.13
1895.89
2.46035
2.61038
2.81909
3.01262
3.05323
2.62208
2.21284
2.30383
2.36655
2.38675
2.39462
2.43125
2.54112
3.1054
9.13433
1051.9
1976.03
2294.42
1993.29
2.71385
2.80406
2.77703
2.35463
2.03742
2.08669
2.19059
2.29623
2.36915
2.40179
2.42479
2.47463
2.57887
2.75285
4.17377
489.171
1859.76
2280.35
1847.98
1.86559
1.82522
1.82046
1.84748
1.96219
2.07735
2.1888
2.28834
2.36656
2.42019
2.46864
2.53826
2.63634
2.74731
3.10092
209.269
1621.82
2212.9
1570.68
1.5986
1.68182
1.773
1.87355
1.97968
2.08618
2.18937
2.28572
2.37057
2.44977
2.52479
2.60805
2.71357
2.8246
2.98244
29.0158
1378.79
2161.22
1240.07
1.63752
1.71791
1.80557
1.89936
1.9969
2.09632
2.19557
2.29213
2.38039
2.47021
2.57133
2.68266
2.79791
2.91582
3.09117
3.12301
1320.35
1962.97
795.512
1.66356
1.74217
1.827
1.91666
2.00986
2.10577
2.20272
2.29849
2.39095
2.48464
2.5903
2.70962
2.85266
2.8894
2.96464
12.984
1544.13
1357.09
294.827
1.68057
1.75771
1.84071
1.9283
2.01956
2.11383
2.20981
2.30565
2.39958
2.49376
2.59164
2.70696
2.83129
2.87432
3.00775
112.941
1634.04
1075.47
74.3761
1.68982
1.76664
1.84906
1.93597
2.02662
2.12055
2.21653
2.31297
2.40678
2.49989
2.59273
2.69532
2.81442
2.90556
3.02971
116.976
1527.92
1196.3
75.3612
1.69216
1.76945
1.8523
1.93971
2.03101
2.1259
2.22308
2.32092
2.41518
2.50691
2.59625
2.69431
2.80153
2.89729
2.96712
42.0682
995.358
1502.97
136.343
1.68815
1.76654
1.85067
1.93961
2.03269
2.12988
2.23007
2.3303
2.42775
2.51895
2.60881
2.70289
2.7912
2.87511
2.98089
2.94764
498.32
1573.56
578.295
1.67816
1.75816
1.84422
1.93559
2.03139
2.13216
2.23725
2.34407
2.44696
2.54221
2.63228
2.72152
2.80255
2.8904
3.05884
3.25511
179.025
1628.88
1236.5
1.66226
1.74421
1.83272
1.92741
2.02637
2.13195
2.2442
2.36259
2.47626
2.57957
2.67295
2.75199
2.83159
2.95402
3.18016
3.47699
130.029
1690.14
1070.64
1.6403
1.72416
1.81566
1.91515
2.01602
2.12835
2.25036
2.38114
2.50918
2.62922
2.73297
2.8149
2.89002
3.02626
3.28642
3.76227
153.265
1073.66
462.796
1.6121
1.69716
1.79131
1.89333
2.00228
2.12183
2.2527
2.39608
2.5444
2.68292
2.80354
2.90015
2.9682
3.04066
3.10815
6.06943
15.2113
44.4759
8.88531
1.57619
1.66341
1.75973
1.86505
1.98009
2.10803
2.24987
2.40354
2.57539
2.73271
2.86761
2.97492
3.02729
2.97328
2.91936
3.88436
8.86944
54.8197
133.609
1.53316
1.62168
1.72003
1.82902
1.9479
2.08505
2.23906
2.40879
2.5904
2.76905
2.91222
3.01974
3.08633
3.07529
3.1235
3.33205
3.95502
74.156
806.835
1.48243
1.5713
1.67073
1.78251
1.90867
2.05044
2.2154
2.39942
2.59437
2.78751
2.93943
3.03928
3.14825
3.23891
3.40024
3.11925
3.84316
75.4658
1822.07
1.42358
1.51153
1.61044
1.72251
1.84994
1.99778
2.17244
2.36837
2.57644
2.79074
2.9602
3.03327
3.20205
3.48228
3.70207
3.79841
22.3696
173.885
2412.94
1.35637
1.4419
1.53838
1.64834
1.7745
1.92439
2.10573
2.31025
2.52826
2.75905
2.93854
2.99388
3.11026
3.57258
80.7253
544.048
255.039
429.957
2859.19
1.2808
1.36225
1.45415
1.559
1.67979
1.82635
2.00764
2.21853
2.44296
2.68224
2.84534
2.82856
2.77861
440.178
706.972
706.984
668.751
925.001
3476.18
1.19719
1.2729
1.35784
1.45399
1.56408
1.70034
1.87165
2.08003
2.31823
2.58868
2.77641
2.72391
192.235
740.544
738.21
377.658
194.444
780.815
3999.61
1.10628
1.17483
1.25066
1.3347
1.42839
1.54528
1.69585
1.89059
2.13424
2.42855
6.99995
69.2077
295.853
304.326
210.644
5.55673
18.0409
727.836
3919.27
1.00907
1.06955
1.13493
1.20504
1.27876
1.36692
1.48161
1.62922
1.85807
2.07535
73.0561
136.071
96.2807
3.46126
-1.86201
-3.21036
100.277
658.032
2229.97
0.906668
0.958635
1.01317
1.06933
1.12342
1.18055
1.24506
1.321
1.43621
14.1869
91.0065
118.504
13.4576
-0.774707
-1.94291
-4.22054
310.648
169.517
115.767
0.800154
0.843486
0.887416
0.930384
0.967435
0.997223
1.01664
1.02197
0.98976
12.2897
105.781
113.511
22.7014
-0.451219
-1.51068
2.61144
339.062
14.1575
9.0548
0.690355
0.725063
0.758799
0.789501
0.812645
0.821311
0.812217
0.764668
0.674962
0.318849
86.1732
116.743
42.7145
0.425227
-0.436775
13.5142
198.384
8.11298
4.60295
0.57767
0.603802
0.627655
0.646846
0.657457
0.649447
0.626693
0.560888
0.509108
0.352938
59.9697
122.089
22.9182
1.38357
1.08419
10.6574
9.12367
4.42259
3.03953
0.462817
0.480521
0.49479
0.503034
0.501199
0.478082
0.442188
0.343275
0.211047
0.0394467
17.267
206.822
35.278
1.86744
2.10685
3.39756
3.5073
1.492
1.59153
0.34798
0.35774
0.363005
0.360905
0.346983
0.311151
0.269671
0.144929
-0.00328892
-0.354266
59.2381
216.838
85.5939
2.1504
2.33449
3.44974
2.92553
0.496105
0.733501
0.235523
0.238215
0.235576
0.224274
0.199018
0.150702
0.0957517
-0.0585861
-0.0638213
-0.260222
96.0781
228.51
234.283
72.1978
2.27303
3.01381
2.59527
0.55366
0.638449
0.12391
0.12017
0.110715
0.0919568
0.0578504
-0.00187726
-0.0883919
-0.30845
-0.436172
-0.868098
-0.629886
211.72
229.846
85.2709
1.90003
1.91525
1.93212
0.705321
0.587923
0.00610982
-0.00426815
-0.0203018
-0.0450978
-0.0839666
-0.146217
-0.245516
-0.462717
-0.68461
-1.65624
-3.70497
17.4159
118.11
0.290251
-0.76217
0.347749
0.927362
0.984759
0.373904
)
;

boundaryField
{
    leftWall
    {
        type            fixedFluxPressure;
        gradient        uniform 0;
        value           nonuniform List<scalar> 
50
(
907.889
906.86
904.721
901.729
898.203
894.506
891.141
888.626
886.443
892.03
913.493
722.848
6.33838
1.54173
1.50718
1.46785
1.43859
1.4113
1.38403
1.3564
1.32794
1.29852
1.26809
1.23663
1.20413
1.17055
1.13586
1.10004
1.06302
1.02479
0.985273
0.944449
0.902281
0.858742
0.813836
0.767682
0.720236
0.671522
0.621595
0.570516
0.518345
0.465172
0.41113
0.356282
0.300529
0.243922
0.187091
0.130644
0.0741203
0.0153125
)
;
    }
    rightWall
    {
        type            fixedFluxPressure;
        gradient        uniform 0;
        value           nonuniform List<scalar> 
50
(
296.744
296.742
296.739
296.733
296.726
296.717
296.707
296.696
296.676
296.649
296.628
296.65
296.642
296.472
297.637
475.729
1226.46
1895.89
1993.29
1847.98
1570.68
1240.07
795.512
294.827
74.3761
75.3612
136.343
578.295
1236.5
1070.64
462.796
8.88531
133.609
806.835
1822.07
2412.94
2859.19
3476.18
3999.61
3919.27
2229.97
115.767
9.0548
4.60295
3.03953
1.59153
0.733501
0.638449
0.587923
0.373904
)
;
    }
    lowerWall
    {
        type            fixedFluxPressure;
        gradient        uniform 0;
        value           nonuniform List<scalar> 
62
(
907.889
909.811
918.059
926.635
930.487
929.028
924.794
920.886
919.115
920.157
924.243
931.553
942.373
957.046
975.753
998.638
1025.17
1052.89
1075.3
1086.68
1066.82
1054.08
1100.58
1100.58
1091.85
1091.87
1104.7
1124.98
1130.53
1114.5
1074.13
810.511
828.055
729.521
432.957
298.239
298.242
298.247
298.255
298.28
298.347
298.292
298.336
298.239
298.205
298.02
297.843
297.727
297.617
297.5
297.384
297.273
297.171
297.075
296.988
296.912
296.852
296.808
296.779
296.763
296.754
296.744
)
;
    }
    atmosphere
    {
        type            totalPressure;
        rho             rho;
        psi             none;
        gamma           1;
        p0              uniform 0;
        value           nonuniform List<scalar> 
46
(
-0.0162308
-0.0176184
-0.0173763
-0.0176145
-0.0177061
-0.0178342
-0.0179712
-0.0181276
-0.0183113
-0.0185316
-0.0188004
-0.0191326
-0.0195463
-0.0200628
-0.0207087
-0.0215186
-0.022537
-0.0238211
-0.0254456
-0.0275092
-0.0301412
-0.033511
-0.0378432
-0.0419411
-0.0449629
-0.0484067
-0.05235
-0.0599741
-0.0743926
-0.094375
-0.12242
-0.162483
-0.220221
-0.305233
-0.465874
-0.500058
-1.17103
-3.4671
0
0
-0.135682
-0.0124557
0
0
0
0
)
;
    }
    defaultFaces
    {
        type            empty;
    }
}


// ************************************************************************* //
