/*--------------------------------*- C++ -*----------------------------------*\
| =========                 |                                                 |
| \\      /  F ield         | OpenFOAM: The Open Source CFD Toolbox           |
|  \\    /   O peration     | Version:  5.x                                   |
|   \\  /    A nd           | Web:      www.OpenFOAM.org                      |
|    \\/     M anipulation  |                                                 |
\*---------------------------------------------------------------------------*/
FoamFile
{
    version     2.0;
    format      ascii;
    class       surfaceScalarField;
    location    "0.4";
    object      phi;
}
// * * * * * * * * * * * * * * * * * * * * * * * * * * * * * * * * * * * * * //

dimensions      [0 3 -1 0 0 0 0];

internalField   nonuniform List<scalar> 
4432
(
-3.27705e-06
3.27705e-06
-2.43996e-06
-8.3709e-07
2.17035e-06
-4.61032e-06
8.55116e-06
-6.38081e-06
1.50884e-05
-6.5372e-06
2.08018e-05
-5.71346e-06
2.53512e-05
-4.54937e-06
2.87831e-05
-3.43193e-06
3.12979e-05
-2.51473e-06
3.31117e-05
-1.81387e-06
3.43889e-05
-1.27716e-06
3.52067e-05
-8.17791e-07
3.55251e-05
-3.18425e-07
3.51106e-05
4.14548e-07
3.34916e-05
1.619e-06
3.00503e-05
3.44125e-06
2.39412e-05
6.10908e-06
1.4598e-05
9.34326e-06
3.4102e-06
1.11878e-05
-6.15952e-06
9.56972e-06
-1.48963e-05
8.73682e-06
-1.61122e-05
1.21589e-06
-1.61122e-05
-3.34299e-06
6.62005e-06
-2.20044e-06
-1.97965e-06
2.48094e-06
-9.29169e-06
8.86826e-06
-1.27681e-05
1.5355e-05
-1.3024e-05
2.0998e-05
-1.13564e-05
2.5486e-05
-9.03735e-06
2.88855e-05
-6.83149e-06
3.14069e-05
-5.03614e-06
3.32642e-05
-3.67119e-06
3.46119e-05
-2.62481e-06
3.55301e-05
-1.73595e-06
3.60569e-05
-8.45269e-07
3.62492e-05
2.22266e-07
3.62197e-05
1.64853e-06
3.58152e-05
3.8457e-06
3.44253e-05
7.49903e-06
3.03716e-05
1.33969e-05
2.12098e-05
2.03496e-05
6.41484e-06
2.43647e-05
-7.20402e-06
2.23557e-05
-8.90522e-06
2.91712e-06
-2.50175e-05
-3.0272e-06
9.64725e-06
-1.758e-06
-3.24885e-06
2.99667e-06
-1.40464e-05
9.32897e-06
-1.91004e-05
1.56562e-05
-1.93512e-05
2.10995e-05
-1.67997e-05
2.54082e-05
-1.33461e-05
2.8689e-05
-1.01122e-05
3.11667e-05
-7.51383e-06
3.30491e-05
-5.55356e-06
3.44741e-05
-4.04982e-06
3.55021e-05
-2.76398e-06
3.61177e-05
-1.46087e-06
3.62757e-05
6.42464e-08
3.58994e-05
2.02483e-06
3.50707e-05
4.67443e-06
3.4126e-05
8.44366e-06
3.32754e-05
1.42476e-05
3.06907e-05
2.29342e-05
2.30605e-05
3.19949e-05
1.1899e-05
3.35172e-05
3.42087e-06
1.13953e-05
-2.15966e-05
-2.61135e-06
1.22586e-05
-1.08648e-06
-4.77372e-06
3.71154e-06
-1.88444e-05
9.93146e-06
-2.53204e-05
1.60211e-05
-2.54409e-05
2.11827e-05
-2.19613e-05
2.52519e-05
-1.74153e-05
2.83895e-05
-1.32498e-05
3.08334e-05
-9.95781e-06
3.27752e-05
-7.49529e-06
3.43239e-05
-5.59859e-06
3.55115e-05
-3.95151e-06
3.63109e-05
-2.26027e-06
3.66527e-05
-2.77612e-07
3.6455e-05
2.22257e-06
3.5668e-05
5.46145e-06
3.44139e-05
9.69771e-06
3.3409e-05
1.52525e-05
3.32958e-05
2.30474e-05
3.21667e-05
3.31241e-05
2.65141e-05
3.91697e-05
1.44686e-05
2.34409e-05
-7.12802e-06
-2.0711e-06
1.43297e-05
-1.5867e-07
-6.68615e-06
4.57069e-06
-2.35737e-05
1.06117e-05
-3.13613e-05
1.64069e-05
-3.12361e-05
2.12343e-05
-2.67887e-05
2.50285e-05
-2.12095e-05
2.80157e-05
-1.6237e-05
3.04448e-05
-1.23869e-05
3.24803e-05
-9.53079e-06
3.41924e-05
-7.31069e-06
3.55779e-05
-5.33704e-06
3.65873e-05
-3.26968e-06
3.71485e-05
-8.38768e-07
3.71959e-05
2.1751e-06
3.66955e-05
5.96194e-06
3.56638e-05
1.07294e-05
3.43528e-05
1.65634e-05
3.38328e-05
2.35674e-05
3.45147e-05
3.24421e-05
3.24572e-05
4.12273e-05
2.07121e-05
3.51859e-05
1.35841e-05
-1.39099e-06
1.57207e-05
7.48576e-07
-8.82571e-06
5.4651e-06
-2.82903e-05
1.12599e-05
-3.71561e-05
1.67359e-05
-3.67121e-05
2.12299e-05
-3.12826e-05
2.47656e-05
-2.47452e-05
2.76344e-05
-1.91058e-05
3.00897e-05
-1.48421e-05
3.22609e-05
-1.1702e-05
3.41726e-05
-9.22233e-06
3.57826e-05
-6.94712e-06
3.70171e-05
-4.50413e-06
3.77961e-05
-1.61779e-06
3.80634e-05
1.90785e-06
3.7812e-05
6.21332e-06
3.70796e-05
1.14618e-05
3.59284e-05
1.77146e-05
3.47297e-05
2.47661e-05
3.45639e-05
3.2608e-05
3.34949e-05
4.22963e-05
2.34066e-05
4.52742e-05
3.69907e-05
-5.8157e-07
1.63023e-05
1.82988e-06
-1.12372e-05
6.36035e-06
-3.28207e-05
1.17988e-05
-4.25946e-05
1.69188e-05
-4.18321e-05
2.11004e-05
-3.54642e-05
2.44302e-05
-2.80751e-05
2.72471e-05
-2.19226e-05
2.97942e-05
-1.73893e-05
3.21561e-05
-1.40639e-05
3.43093e-05
-1.13755e-05
3.61752e-05
-8.813e-06
3.76581e-05
-5.98706e-06
3.86701e-05
-2.62972e-06
3.9145e-05
1.43289e-06
3.90886e-05
6.26978e-06
3.85435e-05
1.20068e-05
3.76174e-05
1.86408e-05
3.62833e-05
2.61003e-05
3.50303e-05
3.38609e-05
3.34618e-05
4.38649e-05
2.53764e-05
5.33595e-05
6.23671e-05
4.26152e-07
1.58761e-05
3.22379e-06
-1.40348e-05
7.55091e-06
-3.71479e-05
1.24869e-05
-4.75306e-05
1.71108e-05
-4.6456e-05
2.09271e-05
-3.92805e-05
2.40652e-05
-3.12132e-05
2.68674e-05
-2.47248e-05
2.9538e-05
-2.00599e-05
3.21065e-05
-1.66324e-05
3.45045e-05
-1.37736e-05
3.66275e-05
-1.0936e-05
3.83671e-05
-7.7267e-06
3.96371e-05
-3.89974e-06
4.03909e-05
6.79155e-07
4.05806e-05
6.08003e-06
4.02135e-05
1.23739e-05
3.94144e-05
1.94399e-05
3.82075e-05
2.73071e-05
3.65157e-05
3.55527e-05
3.41353e-05
4.62453e-05
2.68299e-05
6.06649e-05
8.9197e-05
1.17178e-05
-1.17178e-05
3.51944e-05
-2.34766e-05
3.97948e-05
-4.60023e-06
3.09022e-05
8.89265e-06
2.05087e-05
1.03934e-05
1.12299e-05
9.27893e-06
2.49811e-06
8.73184e-06
-4.70274e-06
7.20067e-06
-1.05169e-05
5.81428e-06
-1.49452e-05
4.42838e-06
-1.77812e-05
2.83586e-06
-1.9361e-05
1.5798e-06
-1.98197e-05
4.58768e-07
-1.90375e-05
-7.82351e-07
-1.70741e-05
-1.96331e-06
-1.38799e-05
-3.19427e-06
-9.38356e-06
-4.49639e-06
-3.87696e-06
-5.50642e-06
-3.87694e-06
1.36778e-05
-2.53955e-05
3.91616e-05
-4.89603e-05
4.32968e-05
-8.73547e-06
3.19209e-05
2.02688e-05
1.84704e-05
2.38436e-05
6.84411e-06
2.09052e-05
-2.15397e-06
1.77302e-05
-8.2645e-06
1.3311e-05
-1.25439e-05
1.00935e-05
-1.55061e-05
7.3907e-06
-1.71077e-05
4.43754e-06
-1.78594e-05
2.3314e-06
-1.78786e-05
4.77965e-07
-1.69631e-05
-1.69799e-06
-1.51131e-05
-3.81317e-06
-1.2233e-05
-6.07415e-06
-8.17149e-06
-8.55813e-06
-3.2493e-06
-1.04287e-05
-7.12616e-06
1.52964e-05
-4.06917e-05
4.37183e-05
-7.73822e-05
4.69404e-05
-1.19576e-05
3.19099e-05
3.52995e-05
1.76394e-05
3.8114e-05
6.34984e-06
3.21946e-05
-2.03412e-06
2.61143e-05
-7.79523e-06
1.90721e-05
-1.22079e-05
1.45061e-05
-1.56741e-05
1.0857e-05
-1.75928e-05
6.35622e-06
-1.8579e-05
3.31746e-06
-1.87621e-05
6.61184e-07
-1.78705e-05
-2.58958e-06
-1.5965e-05
-5.71867e-06
-1.29371e-05
-9.10185e-06
-8.64941e-06
-1.2846e-05
-3.47029e-06
-1.56079e-05
-1.05964e-05
1.42322e-05
-5.49238e-05
4.61072e-05
-0.000109257
5.05579e-05
-1.64084e-05
3.31547e-05
5.27028e-05
1.80418e-05
5.32269e-05
6.44459e-06
4.37915e-05
-2.28013e-06
3.4839e-05
-8.2327e-06
2.50247e-05
-1.27303e-05
1.90035e-05
-1.64593e-05
1.45861e-05
-1.8279e-05
8.1759e-06
-1.92261e-05
4.26456e-06
-1.95659e-05
1.00122e-06
-1.87222e-05
-3.43315e-06
-1.68245e-05
-7.61657e-06
-1.36909e-05
-1.22353e-05
-9.17086e-06
-1.73661e-05
-3.70569e-06
-2.10732e-05
-1.4302e-05
1.04436e-05
-6.53674e-05
4.56835e-05
-0.000144497
5.05491e-05
-2.12741e-05
3.26443e-05
7.06077e-05
1.75971e-05
6.82742e-05
5.46934e-06
5.59191e-05
-3.65432e-06
4.39627e-05
-9.46342e-06
3.08338e-05
-1.36251e-05
2.31652e-05
-1.75596e-05
1.85207e-05
-1.90927e-05
9.7091e-06
-1.98746e-05
5.04643e-06
-2.0387e-05
1.51378e-06
-1.95655e-05
-4.25448e-06
-1.76664e-05
-9.51589e-06
-1.44217e-05
-1.548e-05
-9.65999e-06
-2.21278e-05
-3.91346e-06
-2.68199e-05
-1.82154e-05
7.85245e-06
-7.32198e-05
4.77144e-05
-0.000184359
5.11846e-05
-2.47445e-05
3.10625e-05
9.07298e-05
1.57444e-05
8.35923e-05
3.3611e-06
6.83023e-05
-5.73223e-06
5.30561e-05
-1.11681e-05
3.62697e-05
-1.47038e-05
2.67008e-05
-1.90054e-05
2.28222e-05
-2.01255e-05
1.08294e-05
-2.05884e-05
5.50931e-06
-2.14083e-05
2.3338e-06
-2.05991e-05
-5.06368e-06
-1.86952e-05
-1.14199e-05
-1.52986e-05
-1.88767e-05
-1.0233e-05
-2.71932e-05
-4.15137e-06
-3.29017e-05
-2.23668e-05
1.65819e-05
-8.98017e-05
4.613e-05
-0.000213907
4.81419e-05
-2.67563e-05
2.74801e-05
0.000111391
1.26875e-05
9.8385e-05
6.04383e-07
8.03854e-05
-8.4301e-06
6.20906e-05
-1.33102e-05
4.11499e-05
-1.58609e-05
2.92515e-05
-2.06759e-05
2.76373e-05
-2.09709e-05
1.11244e-05
-2.1183e-05
5.7214e-06
-2.24849e-05
3.63553e-06
-2.17077e-05
-5.84095e-06
-1.9912e-05
-1.32156e-05
-1.63864e-05
-2.24023e-05
-1.09438e-05
-3.26358e-05
-4.44968e-06
-3.93959e-05
-2.68165e-05
3.73022e-05
-0.000127104
3.79814e-05
-0.000214586
3.59781e-05
-2.47532e-05
1.91132e-05
0.000128256
8.04379e-06
0.000109455
-2.08628e-06
9.05155e-05
-1.05091e-05
7.05135e-05
-1.48715e-05
4.55124e-05
-1.66663e-05
3.10462e-05
-2.22777e-05
3.32486e-05
-2.244e-05
1.12867e-05
-2.13964e-05
4.67776e-06
-2.33614e-05
5.60049e-06
-2.26226e-05
-6.57972e-06
-2.10801e-05
-1.47581e-05
-1.76439e-05
-2.58385e-05
-1.18144e-05
-3.84653e-05
-4.83984e-06
-4.63704e-05
-3.16563e-05
5.8272e-06
1.00489e-05
1.46016e-05
-2.28092e-05
2.39342e-05
-4.64805e-05
3.19644e-05
-5.55608e-05
3.89137e-05
-5.34053e-05
4.51852e-05
-4.5552e-05
5.11827e-05
-3.72106e-05
5.72258e-05
-3.07679e-05
6.33636e-05
-2.61977e-05
6.94046e-05
-2.26734e-05
7.50536e-05
-1.94226e-05
8.0036e-05
-1.59183e-05
8.4154e-05
-1.18447e-05
8.72943e-05
-7.04e-06
8.94425e-05
-1.46902e-06
9.06541e-05
4.86843e-06
9.07722e-05
1.22558e-05
8.98794e-05
2.03327e-05
8.82765e-05
2.891e-05
8.592e-05
3.79092e-05
8.37682e-05
4.83971e-05
8.51985e-05
5.92346e-05
7.83217e-05
9.60738e-05
1.44864e-05
-4.43746e-06
3.17816e-05
-4.01044e-05
4.17375e-05
-5.64363e-05
4.39595e-05
-5.77829e-05
4.48172e-05
-5.4263e-05
4.79122e-05
-4.86469e-05
5.33174e-05
-4.26159e-05
6.00725e-05
-3.7523e-05
6.73218e-05
-3.3447e-05
7.44274e-05
-2.97791e-05
8.08575e-05
-2.58526e-05
8.6226e-05
-2.12868e-05
9.03767e-05
-1.59954e-05
9.34292e-05
-1.00926e-05
9.5567e-05
-3.60676e-06
9.67061e-05
3.72933e-06
9.70484e-05
1.19135e-05
9.68328e-05
2.05483e-05
9.67906e-05
2.89523e-05
9.71367e-05
3.7563e-05
9.87339e-05
4.67999e-05
0.000103242
5.4727e-05
6.65489e-05
0.000115014
2.59603e-05
-3.03977e-05
5.36353e-05
-6.77795e-05
6.12271e-05
-6.40282e-05
5.35498e-05
-5.01056e-05
4.64412e-05
-4.71543e-05
4.63026e-05
-4.85084e-05
5.12676e-05
-4.75809e-05
5.88376e-05
-4.5093e-05
6.73434e-05
-4.19528e-05
7.59899e-05
-3.84256e-05
8.4353e-05
-3.42157e-05
9.19955e-05
-2.89293e-05
9.83929e-05
-2.23928e-05
0.000102898
-1.45978e-05
0.000105141
-5.84942e-06
0.000105112
3.75846e-06
0.000102724
1.43013e-05
0.000100684
2.2588e-05
0.000100804
2.8832e-05
0.00010236
3.60069e-05
0.000104654
4.45067e-05
0.000107063
5.23181e-05
5.99239e-05
0.000113688
3.58751e-05
-6.62728e-05
6.33045e-05
-9.52089e-05
5.54697e-05
-5.61934e-05
3.67526e-05
-3.13885e-05
2.5535e-05
-3.59367e-05
2.20883e-05
-4.50617e-05
2.20683e-05
-4.75609e-05
2.52305e-05
-4.82552e-05
3.02528e-05
-4.69751e-05
3.71003e-05
-4.52732e-05
4.63463e-05
-4.34616e-05
5.78996e-05
-4.04826e-05
7.10533e-05
-3.55466e-05
8.58696e-05
-2.9414e-05
0.000101477
-2.14573e-05
0.000112636
-7.39984e-06
0.000117007
9.93032e-06
0.000117618
2.19766e-05
0.000117201
2.92495e-05
0.000114854
3.8354e-05
0.000112817
4.65432e-05
0.000112666
5.24692e-05
5.7686e-05
0.000114904
2.11964e-05
-8.74692e-05
1.13596e-05
-8.53722e-05
3.18251e-06
-4.80164e-05
-2.89497e-06
-2.53111e-05
-5.90253e-06
-3.29292e-05
-9.34182e-06
-4.16224e-05
-1.43775e-05
-4.25252e-05
-2.02279e-05
-4.24049e-05
-2.57362e-05
-4.14668e-05
-2.86737e-05
-4.23357e-05
-2.84296e-05
-4.37059e-05
-2.81862e-05
-4.0726e-05
-3.29262e-05
-3.08067e-05
-4.2594e-05
-1.97462e-05
-4.40482e-05
-2.0003e-05
-1.18834e-05
-3.95646e-05
4.49649e-05
-4.6918e-05
9.32495e-05
-2.63079e-05
0.000112789
9.70982e-06
0.000118379
3.27643e-05
0.000120686
4.42359e-05
0.000122969
5.01865e-05
5.67566e-05
0.000123898
-1.98728e-05
-6.75964e-05
-3.48772e-05
-7.03681e-05
-3.31762e-05
-4.97176e-05
-1.76295e-05
-4.08579e-05
-1.20411e-05
-3.85176e-05
-1.37688e-05
-3.98947e-05
-1.72163e-05
-3.90776e-05
-2.1614e-05
-3.80072e-05
-2.50515e-05
-3.80294e-05
-2.68484e-05
-4.05389e-05
-2.76604e-05
-4.28939e-05
-3.01239e-05
-3.82625e-05
-3.88907e-05
-2.20398e-05
-4.77023e-05
-1.09345e-05
-3.28057e-05
-3.48995e-05
-1.61477e-06
-7.07554e-05
2.82461e-05
-7.67788e-05
5.86833e-05
-5.67451e-05
9.01136e-05
-2.17204e-05
0.000104137
1.87412e-05
0.000104336
4.4037e-05
0.000116411
3.81109e-05
4.80237e-05
0.000125144
-2.41609e-05
-4.34357e-05
-2.59706e-05
-6.85586e-05
-2.08601e-05
-5.48281e-05
-1.71772e-05
-4.45408e-05
-1.54175e-05
-4.02774e-05
-1.61857e-05
-3.91265e-05
-1.78567e-05
-3.74066e-05
-1.99089e-05
-3.59551e-05
-2.1502e-05
-3.64363e-05
-2.26451e-05
-3.93959e-05
-2.36021e-05
-4.19369e-05
-2.42736e-05
-3.7591e-05
-2.50694e-05
-2.12439e-05
-2.17549e-05
-1.42491e-05
-3.53674e-06
-5.31175e-05
1.19911e-05
-8.62833e-05
2.66322e-05
-9.14198e-05
4.90366e-05
-7.91494e-05
8.90589e-05
-6.17426e-05
0.000133978
-2.61774e-05
0.000154643
2.33719e-05
0.000141911
5.08427e-05
6.42351e-05
0.0001257
-9.74621e-06
-3.36895e-05
-1.28989e-05
-6.54061e-05
-1.47743e-05
-5.29527e-05
-1.44847e-05
-4.48304e-05
-1.37504e-05
-4.10117e-05
-1.37249e-05
-3.9152e-05
-1.42448e-05
-3.68867e-05
-1.52604e-05
-3.49394e-05
-1.67601e-05
-3.49366e-05
-1.8837e-05
-3.73189e-05
-2.09542e-05
-3.98196e-05
-2.03211e-05
-3.8224e-05
-1.33854e-05
-2.81795e-05
-3.39249e-07
-2.72952e-05
6.34434e-06
-5.98012e-05
2.54653e-06
-8.24855e-05
5.47139e-06
-9.43446e-05
2.09367e-05
-9.46147e-05
4.84041e-05
-8.921e-05
9.08049e-05
-6.85781e-05
0.000134665
-2.04886e-05
0.000150671
3.48374e-05
6.54937e-05
0.000149412
-5.52108e-06
-2.81685e-05
-9.55735e-06
-6.13698e-05
-1.11399e-05
-5.13702e-05
-1.15576e-05
-4.44128e-05
-1.12934e-05
-4.12759e-05
-1.115e-05
-3.92953e-05
-1.10826e-05
-3.69541e-05
-1.12657e-05
-3.47563e-05
-1.21006e-05
-3.41015e-05
-1.38147e-05
-3.56048e-05
-1.56595e-05
-3.79748e-05
-1.44579e-05
-3.94255e-05
-5.18703e-06
-3.74504e-05
7.5592e-06
-4.00415e-05
5.75122e-06
-5.79933e-05
-3.28259e-06
-7.34518e-05
-1.08578e-05
-8.67694e-05
-1.09654e-05
-9.45071e-05
-2.30181e-06
-9.78735e-05
1.79923e-05
-8.88722e-05
5.60918e-05
-5.85881e-05
9.30857e-05
-2.15656e-06
4.41382e-05
0.000114441
-3.42803e-06
-2.47405e-05
-6.66555e-06
-5.81322e-05
-8.26769e-06
-4.9768e-05
-8.99007e-06
-4.36904e-05
-9.11393e-06
-4.1152e-05
-8.98066e-06
-3.94286e-05
-8.48626e-06
-3.74484e-05
-7.78454e-06
-3.54579e-05
-7.37997e-06
-3.4506e-05
-7.67224e-06
-3.53124e-05
-8.22107e-06
-3.74258e-05
-7.32167e-06
-4.03249e-05
-1.84155e-06
-4.29306e-05
4.97712e-06
-4.68603e-05
4.45415e-06
-5.74704e-05
-6.08234e-07
-6.83894e-05
-8.58252e-06
-7.87951e-05
-1.50013e-05
-8.80883e-05
-1.77844e-05
-9.50903e-05
-2.22059e-05
-8.44506e-05
-1.74285e-05
-6.33655e-05
6.52433e-06
-2.61095e-05
1.7855e-05
3.28075e-05
-1.83845e-06
-2.2902e-05
-4.48776e-06
-5.54828e-05
-6.17125e-06
-4.80845e-05
-6.98503e-06
-4.28766e-05
-7.23941e-06
-4.08977e-05
-7.1092e-06
-3.95588e-05
-6.46184e-06
-3.80958e-05
-5.29733e-06
-3.66223e-05
-4.01547e-06
-3.57877e-05
-3.08662e-06
-3.62411e-05
-2.44835e-06
-3.8064e-05
-1.68593e-06
-4.10873e-05
1.08576e-07
-4.47252e-05
2.66138e-06
-4.94131e-05
1.82859e-06
-5.66377e-05
-2.70826e-06
-6.38526e-05
-9.74452e-06
-7.17588e-05
-1.71271e-05
-8.07056e-05
-2.49498e-05
-8.72676e-05
-3.24845e-05
-7.69159e-05
-4.29281e-05
-5.2922e-05
-4.26417e-05
-2.63958e-05
9.09064e-07
-2.56957e-05
-1.02576e-06
-2.18762e-05
-3.13377e-06
-5.33748e-05
-4.62665e-06
-4.65916e-05
-5.43909e-06
-4.20642e-05
-5.78319e-06
-4.05536e-05
-5.74316e-06
-3.95989e-05
-5.22367e-06
-3.86153e-05
-4.14913e-06
-3.76969e-05
-2.74191e-06
-3.71949e-05
-1.4126e-06
-3.75704e-05
-4.24395e-07
-3.90522e-05
3.95201e-08
-4.15512e-05
1.31101e-07
-4.48168e-05
-4.61536e-07
-4.88205e-05
-3.27468e-06
-5.38245e-05
-8.32091e-06
-5.88063e-05
-1.64287e-05
-6.3651e-05
-2.75163e-05
-6.9618e-05
-4.02228e-05
-7.45611e-05
-4.52019e-05
-7.19367e-05
-4.13535e-05
-5.67703e-05
-3.43363e-05
-3.3413e-05
-1.08116e-05
-2.26157e-05
-5.85043e-07
-2.12911e-05
-2.26983e-06
-5.169e-05
-3.56108e-06
-4.53004e-05
-4.32437e-06
-4.1301e-05
-4.72082e-06
-4.01573e-05
-4.81239e-06
-3.95075e-05
-4.5496e-06
-3.88782e-05
-3.8875e-06
-3.8359e-05
-2.91761e-06
-3.81647e-05
-1.93958e-06
-3.85484e-05
-1.30761e-06
-3.96842e-05
-1.29902e-06
-4.15598e-05
-2.10655e-06
-4.40092e-05
-4.00998e-06
-4.6917e-05
-7.59112e-06
-5.02432e-05
-1.29129e-05
-5.34844e-05
-2.0519e-05
-5.60448e-05
-3.21764e-05
-5.79605e-05
-4.79712e-05
-5.87662e-05
-6.32378e-05
-5.66701e-05
-7.1045e-05
-4.89631e-05
-6.864e-05
-3.58179e-05
-1.95232e-05
-5.99285e-05
-3.76538e-07
-2.09146e-05
-1.72755e-06
-5.0339e-05
-2.82407e-06
-4.4204e-05
-3.53213e-06
-4.05931e-05
-3.9627e-06
-3.97269e-05
-4.17514e-06
-3.92951e-05
-4.16984e-06
-3.88835e-05
-3.93422e-06
-3.85946e-05
-3.53336e-06
-3.85656e-05
-3.16287e-06
-3.89189e-05
-3.0906e-06
-3.97564e-05
-3.58868e-06
-4.10617e-05
-4.82613e-06
-4.27717e-05
-6.99502e-06
-4.4748e-05
-1.03849e-05
-4.68533e-05
-1.50591e-05
-4.88101e-05
-2.09142e-05
-5.01896e-05
-2.81838e-05
-5.06909e-05
-3.73159e-05
-4.9634e-05
-4.79177e-05
-4.60682e-05
-5.74023e-05
-3.94785e-05
-6.31173e-05
-3.01029e-05
-1.87913e-05
-6.38492e-05
-2.8816e-07
-2.06264e-05
-1.38055e-06
-4.92467e-05
-2.31766e-06
-4.3267e-05
-2.97382e-06
-3.99371e-05
-3.43074e-06
-3.92701e-05
-3.73416e-06
-3.89918e-05
-3.90991e-06
-3.87079e-05
-3.98387e-06
-3.85207e-05
-4.01849e-06
-3.8531e-05
-4.13407e-06
-3.88032e-05
-4.51598e-06
-3.93744e-05
-5.33817e-06
-4.02394e-05
-6.77194e-06
-4.13378e-05
-8.94806e-06
-4.25718e-05
-1.20373e-05
-4.37639e-05
-1.6151e-05
-4.46963e-05
-2.12743e-05
-4.50663e-05
-2.73805e-05
-4.45846e-05
-3.42273e-05
-4.27873e-05
-4.11104e-05
-3.91851e-05
-4.70338e-05
-3.3555e-05
-5.10543e-05
-2.60826e-05
-1.74901e-05
-5.23556e-05
-2.50839e-07
-2.03756e-05
-1.15356e-06
-4.83441e-05
-1.96872e-06
-4.2452e-05
-2.57919e-06
-3.93268e-05
-3.04942e-06
-3.88e-05
-3.42053e-06
-3.86208e-05
-3.71686e-06
-3.84116e-05
-3.97701e-06
-3.82605e-05
-4.26276e-06
-3.82452e-05
-4.66317e-06
-3.84027e-05
-5.29342e-06
-3.8744e-05
-6.28323e-06
-3.92494e-05
-7.74933e-06
-3.98716e-05
-9.8076e-06
-4.05134e-05
-1.25404e-05
-4.1031e-05
-1.60001e-05
-4.12365e-05
-2.01575e-05
-4.09088e-05
-2.49549e-05
-3.9787e-05
-3.01244e-05
-3.76178e-05
-3.51325e-05
-3.4177e-05
-3.92964e-05
-2.93911e-05
-4.1958e-05
-2.34211e-05
-1.66421e-05
-4.2806e-05
-2.3508e-07
-2.01406e-05
-9.98016e-07
-4.75813e-05
-1.72602e-06
-4.17241e-05
-2.29433e-06
-3.87586e-05
-2.76846e-06
-3.8326e-05
-3.18389e-06
-3.82054e-05
-3.56162e-06
-3.80338e-05
-3.93554e-06
-3.78865e-05
-4.35938e-06
-3.78212e-05
-4.90375e-06
-3.78582e-05
-5.65365e-06
-3.7994e-05
-6.68797e-06
-3.8215e-05
-8.10401e-06
-3.84555e-05
-9.97724e-06
-3.86401e-05
-1.23502e-05
-3.8658e-05
-1.52271e-05
-3.83595e-05
-1.85829e-05
-3.75529e-05
-2.22783e-05
-3.60916e-05
-2.61022e-05
-3.3794e-05
-2.9717e-05
-3.05623e-05
-3.26803e-05
-2.64279e-05
-3.4636e-05
-2.14653e-05
-1.59188e-05
-3.53593e-05
-2.15446e-07
-1.99253e-05
-8.87429e-07
-4.69094e-05
-1.54747e-06
-4.10641e-05
-2.07751e-06
-3.82286e-05
-2.54472e-06
-3.78588e-05
-2.98456e-06
-3.77656e-05
-3.41333e-06
-3.7605e-05
-3.85743e-06
-3.74423e-05
-4.35784e-06
-3.73205e-05
-4.9677e-06
-3.72481e-05
-5.75059e-06
-3.7211e-05
-6.77317e-06
-3.71924e-05
-8.08919e-06
-3.71395e-05
-9.74381e-06
-3.69855e-05
-1.17611e-05
-3.66405e-05
-1.41327e-05
-3.59879e-05
-1.68017e-05
-3.48838e-05
-1.96581e-05
-3.32353e-05
-2.25231e-05
-3.09291e-05
-2.51535e-05
-2.79319e-05
-2.72822e-05
-2.42991e-05
-2.86639e-05
-2.00837e-05
-1.53929e-05
-2.91899e-05
-1.88866e-07
-1.97365e-05
-7.95625e-07
-4.63027e-05
-1.40578e-06
-4.0454e-05
-1.89942e-06
-3.7735e-05
-2.3518e-06
-3.74064e-05
-2.79589e-06
-3.73215e-05
-3.24675e-06
-3.7154e-05
-3.72411e-06
-3.69647e-05
-4.25902e-06
-3.67854e-05
-4.89207e-06
-3.66149e-05
-5.65874e-06
-3.64443e-05
-6.61155e-06
-3.62396e-05
-7.79266e-06
-3.59583e-05
-9.21607e-06
-3.5562e-05
-1.08933e-05
-3.49632e-05
-1.28216e-05
-3.40594e-05
-1.48986e-05
-3.28067e-05
-1.70665e-05
-3.10675e-05
-1.91821e-05
-2.88135e-05
-2.10744e-05
-2.60395e-05
-2.25769e-05
-2.27965e-05
-2.35318e-05
-1.91288e-05
-1.50568e-05
-2.38679e-05
-1.48646e-07
-1.95879e-05
-7.13791e-07
-4.57376e-05
-1.28094e-06
-3.98869e-05
-1.73908e-06
-3.72769e-05
-2.16721e-06
-3.69783e-05
-2.60091e-06
-3.68877e-05
-3.04956e-06
-3.67052e-05
-3.52803e-06
-3.6486e-05
-4.05855e-06
-3.62547e-05
-4.66761e-06
-3.60058e-05
-5.38778e-06
-3.57241e-05
-6.24653e-06
-3.53809e-05
-7.2674e-06
-3.49374e-05
-8.46471e-06
-3.43645e-05
-9.83981e-06
-3.35879e-05
-1.1332e-05
-3.25671e-05
-1.29329e-05
-3.12058e-05
-1.45516e-05
-2.94488e-05
-1.60894e-05
-2.72757e-05
-1.74276e-05
-2.47012e-05
-1.84535e-05
-2.17705e-05
-1.90689e-05
-1.85134e-05
-1.49012e-05
-1.92246e-05
-9.66258e-08
-1.94912e-05
-6.37267e-07
-4.51968e-05
-1.16642e-06
-3.93576e-05
-1.58613e-06
-3.68571e-05
-1.98372e-06
-3.65807e-05
-2.39285e-06
-3.64786e-05
-2.81981e-06
-3.62781e-05
-3.27483e-06
-3.60309e-05
-3.77406e-06
-3.57554e-05
-4.33612e-06
-3.54437e-05
-4.9815e-06
-3.50788e-05
-5.73367e-06
-3.46288e-05
-6.58339e-06
-3.40876e-05
-7.55446e-06
-3.33933e-05
-8.63e-06
-3.25122e-05
-9.79769e-06
-3.13994e-05
-1.10054e-05
-2.99982e-05
-1.21771e-05
-2.82771e-05
-1.32377e-05
-2.6215e-05
-1.41285e-05
-2.38103e-05
-1.4771e-05
-2.11281e-05
-1.50985e-05
-1.8186e-05
-1.4924e-05
-1.50758e-05
-3.50181e-08
-1.94562e-05
-5.6043e-07
-4.46712e-05
-1.0539e-06
-3.88641e-05
-1.43347e-06
-3.64776e-05
-1.7947e-06
-3.62195e-05
-2.16974e-06
-3.61035e-05
-2.56158e-06
-3.58862e-05
-2.97652e-06
-3.56158e-05
-3.42609e-06
-3.53058e-05
-3.92358e-06
-3.49463e-05
-4.48159e-06
-3.45208e-05
-5.09487e-06
-3.40154e-05
-5.7863e-06
-3.33961e-05
-6.54812e-06
-3.26313e-05
-7.36686e-06
-3.16934e-05
-8.21998e-06
-3.05463e-05
-9.06763e-06
-2.91505e-05
-9.87311e-06
-2.74716e-05
-1.05745e-05
-2.55135e-05
-1.11087e-05
-2.32761e-05
-1.14325e-05
-2.08043e-05
-1.15104e-05
-1.81082e-05
-1.51235e-05
-1.1311e-05
3.22869e-08
-1.94883e-05
-4.81564e-07
-4.41572e-05
-9.41757e-07
-3.84039e-05
-1.27652e-06
-3.61429e-05
-1.59796e-06
-3.58982e-05
-1.93353e-06
-3.5768e-05
-2.28328e-06
-3.55364e-05
-2.64965e-06
-3.52494e-05
-3.03759e-06
-3.49178e-05
-3.45293e-06
-3.4531e-05
-3.90076e-06
-3.4073e-05
-4.38964e-06
-3.35265e-05
-4.92297e-06
-3.28626e-05
-5.49288e-06
-3.20613e-05
-6.08384e-06
-3.11024e-05
-6.6764e-06
-2.99537e-05
-7.23722e-06
-2.85897e-05
-7.71617e-06
-2.69925e-05
-8.09438e-06
-2.51352e-05
-8.3286e-06
-2.30419e-05
-8.3705e-06
-2.07626e-05
-8.22138e-06
-1.82574e-05
-1.55049e-05
-7.84005e-06
1.00661e-07
-1.95889e-05
-3.9455e-07
-4.36618e-05
-8.13725e-07
-3.79847e-05
-1.1074e-06
-3.58493e-05
-1.38516e-06
-3.56206e-05
-1.67407e-06
-3.54791e-05
-1.97118e-06
-3.52393e-05
-2.27698e-06
-3.49435e-05
-2.59515e-06
-3.45996e-05
-2.92912e-06
-3.4197e-05
-3.2808e-06
-3.37213e-05
-3.65397e-06
-3.31533e-05
-4.03848e-06
-3.2478e-05
-4.41978e-06
-3.16799e-05
-4.79566e-06
-3.07265e-05
-5.14595e-06
-2.96034e-05
-5.44162e-06
-2.8294e-05
-5.67055e-06
-2.67636e-05
-5.78076e-06
-2.50251e-05
-5.74746e-06
-2.30753e-05
-5.57198e-06
-2.09382e-05
-5.18067e-06
-1.86488e-05
-1.60759e-05
-4.60979e-06
1.67848e-07
-1.97566e-05
-2.99782e-07
-4.31941e-05
-6.74502e-07
-3.761e-05
-9.25154e-07
-3.55988e-05
-1.15948e-06
-3.53864e-05
-1.40099e-06
-3.52377e-05
-1.64506e-06
-3.49952e-05
-1.89012e-06
-3.46984e-05
-2.13703e-06
-3.43527e-05
-2.3863e-06
-3.39477e-05
-2.6369e-06
-3.34707e-05
-2.88592e-06
-3.29042e-05
-3.12073e-06
-3.22432e-05
-3.34351e-06
-3.14571e-05
-3.5372e-06
-3.05328e-05
-3.68643e-06
-2.94541e-05
-3.77577e-06
-2.82046e-05
-3.74667e-06
-2.67927e-05
-3.61848e-06
-2.51534e-05
-3.34404e-06
-2.33499e-05
-2.92468e-06
-2.13577e-05
-2.34351e-06
-1.923e-05
-1.68355e-05
-1.58398e-06
2.36091e-07
-1.99926e-05
-1.91046e-07
-4.27669e-05
-5.17468e-07
-3.72837e-05
-7.26543e-07
-3.53899e-05
-9.17346e-07
-3.51957e-05
-1.11071e-06
-3.50443e-05
-1.30109e-06
-3.48048e-05
-1.48537e-06
-3.45141e-05
-1.66211e-06
-3.41759e-05
-1.8299e-06
-3.37799e-05
-1.98677e-06
-3.33138e-05
-2.11869e-06
-3.27723e-05
-2.22794e-06
-3.2134e-05
-2.30295e-06
-3.13822e-05
-2.33263e-06
-3.05031e-05
-2.29581e-06
-2.94909e-05
-2.17326e-06
-2.83271e-05
-1.96984e-06
-2.69962e-05
-1.61722e-06
-2.55061e-05
-1.14695e-06
-2.38202e-05
-4.9547e-07
-2.20091e-05
3.00675e-07
-2.00262e-05
-1.78023e-05
1.26746e-06
3.11483e-07
-2.0304e-05
-5.93653e-08
-4.23961e-05
-3.47108e-07
-3.6996e-05
-5.13228e-07
-3.52239e-05
-6.59852e-07
-3.50491e-05
-8.04699e-07
-3.48995e-05
-9.41551e-07
-3.46679e-05
-1.06611e-06
-3.43895e-05
-1.17471e-06
-3.40673e-05
-1.26731e-06
-3.36873e-05
-1.331e-06
-3.32501e-05
-1.3641e-06
-3.27393e-05
-1.35718e-06
-3.21409e-05
-1.30597e-06
-3.14334e-05
-1.18258e-06
-3.06265e-05
-9.82239e-07
-2.96912e-05
-6.87889e-07
-2.86215e-05
-2.74876e-07
-2.74093e-05
2.58418e-07
-2.60395e-05
9.43239e-07
-2.45051e-05
1.76536e-06
-2.28312e-05
2.75401e-06
-2.10148e-05
-1.8969e-05
3.92062e-06
3.95343e-07
-2.06994e-05
6.84902e-08
-4.20693e-05
-1.66345e-07
-3.67613e-05
-2.90411e-07
-3.50999e-05
-3.92971e-07
-3.49466e-05
-4.88912e-07
-3.48036e-05
-5.7236e-07
-3.45844e-05
-6.3895e-07
-3.43229e-05
-6.85768e-07
-3.40205e-05
-6.98008e-07
-3.36751e-05
-6.79258e-07
-3.32689e-05
-6.21918e-07
-3.27967e-05
-5.1701e-07
-3.22459e-05
-3.34192e-07
-3.16162e-05
-8.04592e-08
-3.08802e-05
2.64274e-07
-3.0036e-05
7.15904e-07
-2.90732e-05
1.28847e-06
-2.7982e-05
1.99796e-06
-2.67491e-05
2.85841e-06
-2.53655e-05
3.87093e-06
-2.38438e-05
5.05167e-06
-2.21956e-05
-2.0336e-05
6.41871e-06
4.97524e-07
-2.11969e-05
2.16451e-07
-4.17883e-05
1.8633e-08
-3.65636e-05
-6.8031e-08
-3.50134e-05
-1.27601e-07
-3.48871e-05
-1.75165e-07
-3.47561e-05
-2.04339e-07
-3.45553e-05
-2.09163e-07
-3.43181e-05
-1.84825e-07
-3.40448e-05
-1.28921e-07
-3.3731e-05
-3.08717e-08
-3.33671e-05
1.18175e-07
-3.29459e-05
3.31027e-07
-3.24589e-05
6.13472e-07
-3.18987e-05
9.85719e-07
-3.12524e-05
1.46149e-06
-3.05117e-05
2.05574e-06
-2.96675e-05
2.78338e-06
-2.87097e-05
3.65982e-06
-2.76255e-05
4.6973e-06
-2.6403e-05
5.90047e-06
-2.50469e-05
7.28173e-06
-2.35768e-05
-2.19166e-05
8.86259e-06
6.14619e-07
-2.18116e-05
3.56985e-07
-4.15307e-05
1.85254e-07
-3.63919e-05
1.38072e-07
-3.49663e-05
1.22389e-07
-3.48716e-05
1.22905e-07
-3.47568e-05
1.47135e-07
-3.45796e-05
2.005e-07
-3.43714e-05
2.88584e-07
-3.41329e-05
4.17033e-07
-3.38595e-05
5.94679e-07
-3.35448e-05
8.31447e-07
-3.31828e-05
1.13906e-06
-3.27666e-05
1.52934e-06
-3.22889e-05
2.01826e-06
-3.17413e-05
2.62172e-06
-3.11151e-05
3.35619e-06
-3.04019e-05
4.23838e-06
-2.95918e-05
5.28554e-06
-2.86726e-05
6.51279e-06
-2.76302e-05
7.92907e-06
-2.64631e-05
9.54491e-06
-2.51924e-05
-2.37558e-05
1.13844e-05
7.42125e-07
-2.25537e-05
4.76756e-07
-4.12653e-05
3.21979e-07
-3.62373e-05
3.11522e-07
-3.49561e-05
3.34602e-07
-3.4895e-05
3.7779e-07
-3.48002e-05
4.50108e-07
-3.4652e-05
5.57582e-07
-3.44789e-05
7.06092e-07
-3.42814e-05
9.02478e-07
-3.40559e-05
1.15558e-06
-3.37981e-05
1.47583e-06
-3.35032e-05
1.87539e-06
-3.31662e-05
2.36798e-06
-3.27815e-05
2.96968e-06
-3.23429e-05
3.69817e-06
-3.18436e-05
4.57244e-06
-3.12762e-05
5.6127e-06
-3.0632e-05
6.84079e-06
-2.99006e-05
8.27858e-06
-2.90679e-05
9.94327e-06
-2.81276e-05
1.18473e-05
-2.70961e-05
-2.59264e-05
1.40182e-05
8.76628e-07
-2.34303e-05
5.65489e-07
-4.09542e-05
4.17096e-07
-3.6089e-05
4.35906e-07
-3.49751e-05
4.8801e-07
-3.49474e-05
5.63183e-07
-3.48755e-05
6.72139e-07
-3.4761e-05
8.21511e-07
-3.46282e-05
1.01779e-06
-3.44776e-05
1.26849e-06
-3.43067e-05
1.5829e-06
-3.41127e-05
1.972e-06
-3.38924e-05
2.44869e-06
-3.36429e-05
3.028e-06
-3.33608e-05
3.72745e-06
-3.30423e-05
4.56716e-06
-3.26833e-05
5.56969e-06
-3.22786e-05
6.76033e-06
-3.18225e-05
8.16779e-06
-3.1308e-05
9.82348e-06
-3.07234e-05
1.1757e-05
-3.00609e-05
1.39897e-05
-2.93286e-05
-2.84938e-05
1.65573e-05
1.01444e-06
-2.44448e-05
6.15508e-07
-4.05554e-05
4.61079e-07
-3.59348e-05
4.96598e-07
-3.50109e-05
5.62104e-07
-3.50132e-05
6.52567e-07
-3.49661e-05
7.79871e-07
-3.48883e-05
9.50962e-07
-3.47992e-05
1.1728e-06
-3.46995e-05
1.45336e-06
-3.45874e-05
1.80239e-06
-3.44619e-05
2.23149e-06
-3.43216e-05
2.75448e-06
-3.41659e-05
3.38779e-06
-3.39941e-05
4.15092e-06
-3.38055e-05
5.06683e-06
-3.35991e-05
6.16212e-06
-3.33738e-05
7.46777e-06
-3.31281e-05
9.02003e-06
-3.28601e-05
1.08605e-05
-3.25637e-05
1.30331e-05
-3.22333e-05
1.55754e-05
-3.18707e-05
-3.14567e-05
1.85384e-05
1.14554e-06
-2.55903e-05
6.22954e-07
-4.00329e-05
4.52092e-07
-3.57641e-05
4.88017e-07
-3.50471e-05
5.48355e-07
-3.50737e-05
6.34415e-07
-3.50522e-05
7.58254e-07
-3.50121e-05
9.26543e-07
-3.49675e-05
1.14631e-06
-3.49194e-05
1.42574e-06
-3.4867e-05
1.77486e-06
-3.48112e-05
2.20573e-06
-3.47526e-05
2.73302e-06
-3.46932e-05
3.37438e-06
-3.46354e-05
4.1511e-06
-3.45821e-05
5.08848e-06
-3.45364e-05
6.21654e-06
-3.45018e-05
7.57089e-06
-3.44823e-05
9.19365e-06
-3.44828e-05
1.11346e-05
-3.45045e-05
1.34502e-05
-3.45487e-05
1.61975e-05
-3.46178e-05
-3.47074e-05
1.94484e-05
1.252e-06
-2.68423e-05
5.90785e-07
-3.93717e-05
3.99896e-07
-3.55733e-05
4.20746e-07
-3.50681e-05
4.59753e-07
-3.51128e-05
5.24283e-07
-3.51168e-05
6.25462e-07
-3.51132e-05
7.69164e-07
-3.51113e-05
9.62031e-07
-3.51124e-05
1.21211e-06
-3.51173e-05
1.52932e-06
-3.51285e-05
1.92592e-06
-3.51492e-05
2.41694e-06
-3.51842e-05
3.02056e-06
-3.5239e-05
3.7588e-06
-3.53204e-05
4.65808e-06
-3.54357e-05
5.7501e-06
-3.55937e-05
7.07253e-06
-3.58047e-05
8.66992e-06
-3.60801e-05
1.0596e-05
-3.64305e-05
1.29148e-05
-3.68673e-05
1.56989e-05
-3.74016e-05
-3.80487e-05
1.90403e-05
1.3176e-06
-2.81599e-05
5.29871e-07
-3.8584e-05
3.23564e-07
-3.53671e-05
3.20412e-07
-3.50651e-05
3.29429e-07
-3.51219e-05
3.63133e-07
-3.51505e-05
4.30761e-07
-3.51809e-05
5.3722e-07
-3.52179e-05
6.88436e-07
-3.52638e-05
8.919e-07
-3.53209e-05
1.15705e-06
-3.53936e-05
1.49594e-06
-3.5488e-05
1.92332e-06
-3.56115e-05
2.45691e-06
-3.57726e-05
3.11805e-06
-3.59815e-05
3.93264e-06
-3.62502e-05
4.932e-06
-3.65931e-05
6.15285e-06
-3.70256e-05
7.63864e-06
-3.75658e-05
9.44265e-06
-3.82343e-05
1.16297e-05
-3.90542e-05
1.4278e-05
-4.00498e-05
-4.12584e-05
1.74877e-05
1.32886e-06
-2.94888e-05
4.52384e-07
-3.77074e-05
2.42024e-07
-3.51568e-05
2.15005e-07
-3.50381e-05