/*--------------------------------*- C++ -*----------------------------------*\
| =========                 |                                                 |
| \\      /  F ield         | OpenFOAM: The Open Source CFD Toolbox           |
|  \\    /   O peration     | Version:  5.x                                   |
|   \\  /    A nd           | Web:      www.OpenFOAM.org                      |
|    \\/     M anipulation  |                                                 |
\*---------------------------------------------------------------------------*/
FoamFile
{
    version     2.0;
    format      ascii;
    class       surfaceScalarField;
    location    "1";
    object      alphaPhi10;
}
// * * * * * * * * * * * * * * * * * * * * * * * * * * * * * * * * * * * * * //

dimensions      [0 3 -1 0 0 0 0];

internalField   nonuniform List<scalar> 
4432
(
3.8689e-06
-3.8689e-06
4.91735e-06
-1.04844e-06
1.91665e-06
3.00069e-06
-3.10132e-06
5.01797e-06
-5.53761e-06
2.43629e-06
-4.11371e-06
-1.4239e-06
-2.20516e-06
-1.90854e-06
-2.39794e-06
1.92776e-07
-4.21261e-06
1.81467e-06
-7.04645e-06
2.83384e-06
-1.05486e-05
3.5022e-06
-1.36828e-05
3.13417e-06
-1.49494e-05
1.26663e-06
-1.61603e-05
1.23022e-06
-2.12186e-05
5.62058e-06
-2.94885e-05
8.9798e-06
-3.58579e-05
4.47909e-06
-3.08333e-05
-5.0246e-06
-2.24018e-05
-8.33538e-06
-1.4759e-05
-7.42344e-06
-8.10404e-06
-6.75553e-06
-2.42668e-06
-5.67736e-06
-2.42668e-06
-4.05956e-07
-3.46294e-06
-1.8176e-06
3.63211e-07
-4.48123e-06
5.66432e-06
-7.16022e-06
7.69696e-06
-7.39193e-06
2.66802e-06
-5.11639e-06
-3.69944e-06
-2.78141e-06
-4.24352e-06
-2.68816e-06
9.95302e-08
-4.72325e-06
3.84976e-06
-7.92517e-06
6.03577e-06
-1.16479e-05
7.22495e-06
-1.5528e-05
7.01427e-06
-1.98107e-05
5.94498e-06
-2.54543e-05
7.50523e-06
-3.2159e-05
1.2233e-05
-3.53094e-05
1.18272e-05
-3.11945e-05
-6.70136e-07
-2.2912e-05
-1.32286e-05
-1.60968e-05
-1.53256e-05
-1.01552e-05
-1.34535e-05
-5.10107e-06
-1.20919e-05
-1.09724e-06
-9.68119e-06
-3.52392e-06
-1.98245e-06
-1.48049e-06
-4.42769e-06
2.80845e-06
-6.69729e-06
7.93392e-06
-8.12588e-06
9.12555e-06
-8.0581e-06
2.60024e-06
-5.79777e-06
-5.95978e-06
-3.29137e-06
-6.74992e-06
-3.01199e-06
-1.79853e-07
-4.60165e-06
5.43943e-06
-7.14632e-06
8.58044e-06
-1.01293e-05
1.0208e-05
-1.38521e-05
1.07373e-05
-1.90475e-05
1.14677e-05
-2.4556e-05
1.4382e-05
-2.85942e-05
1.61788e-05
-2.68082e-05
9.94905e-06
-2.23571e-05
-6.47141e-06
-1.72364e-05
-1.84007e-05
-1.26892e-05
-1.99595e-05
-7.68881e-06
-1.86806e-05
-3.15919e-06
-1.66213e-05
-1.38308e-07
-1.27024e-05
-3.66221e-06
-1.2223e-06
-2.58186e-07
-3.09206e-06
4.67821e-06
-5.07967e-06
9.92153e-06
-6.5392e-06
1.05851e-05
-6.71709e-06
2.77812e-06
-4.80414e-06
-7.87272e-06
-3.07375e-06
-8.4803e-06
-3.30357e-06
4.99622e-08
-4.93945e-06
7.07531e-06
-7.26256e-06
1.09036e-05
-9.91301e-06
1.28584e-05
-1.3007e-05
1.38313e-05
-1.68624e-05
1.53702e-05
-1.99837e-05
1.8385e-05
-2.09495e-05
1.8183e-05
-1.91594e-05
7.78056e-06
-1.68817e-05
-8.94336e-06
-1.54748e-05
-1.98076e-05
-1.22528e-05
-2.31814e-05
-6.64898e-06
-2.42843e-05
-1.45503e-06
-2.18151e-05
9.19243e-07
-1.50767e-05
-2.74297e-06
8.07668e-07
-1.06585e-06
3.45238e-07
5.14065e-06
-1.33294e-06
1.15997e-05
-2.83982e-06
1.2092e-05
-2.83917e-06
2.77747e-06
-1.67813e-06
-9.03376e-06
-1.76743e-06
-8.391e-06
-3.23519e-06
1.51771e-06
-5.47076e-06
9.31088e-06
-7.94744e-06
1.33802e-05
-1.06532e-05
1.55642e-05
-1.33757e-05
1.65539e-05
-1.57316e-05
1.77276e-05
-1.68382e-05
1.94932e-05
-1.61714e-05
1.75788e-05
-1.53102e-05
6.91943e-06
-1.60143e-05
-8.2392e-06
-1.58142e-05
-2.00076e-05
-1.1432e-05
-2.75633e-05
-4.40397e-06
-3.13119e-05
1.69061e-06
-2.79095e-05
3.17122e-06
-1.65573e-05
4.28253e-07
3.56498e-06
-4.63083e-06
5.1327e-06
3.57293e-06
4.11253e-06
1.26199e-05
2.34578e-06
1.38587e-05
2.57476e-06
2.54849e-06
2.97974e-06
-9.43725e-06
7.11924e-07
-6.11312e-06
-2.73867e-06
4.96831e-06
-6.00832e-06
1.25805e-05
-8.74401e-06
1.61159e-05
-1.15138e-05
1.8334e-05
-1.41264e-05
1.91665e-05
-1.60308e-05
1.9632e-05
-1.6638e-05
2.01005e-05
-1.63685e-05
1.73096e-05
-1.70759e-05
7.62702e-06
-1.80638e-05
-7.25119e-06
-1.58088e-05
-2.22624e-05
-1.00794e-05
-3.32913e-05
-2.65738e-06
-3.87292e-05
4.82171e-06
-3.53869e-05
5.8921e-06
-1.76281e-05
6.31992e-06
7.19735e-06
-1.18282e-05
1.02964e-05
4.76155e-07
9.91085e-06
1.30054e-05
8.23045e-06
1.55391e-05
8.5069e-06
2.27205e-06
8.2081e-06
-9.14001e-06
4.52803e-06
-2.44447e-06
-1.31728e-06
1.08161e-05
-5.74489e-06
1.70081e-05
-8.65099e-06
1.9022e-05
-1.1331e-05
2.1014e-05
-1.38522e-05
2.16877e-05
-1.59405e-05
2.17203e-05
-1.74584e-05
2.16185e-05
-1.86152e-05
1.84666e-05
-1.97916e-05
8.80365e-06
-1.94475e-05
-7.59499e-06
-1.62987e-05
-2.54081e-05
-1.17301e-05
-3.78433e-05
-4.12772e-06
-4.54412e-05
5.28384e-06
-4.42091e-05
8.33693e-06
-2.03616e-05
1.46499e-05
1.15056e-05
-2.12124e-05
1.62627e-05
-3.47577e-06
1.5535e-05
1.37332e-05
1.40522e-05
1.7022e-05
1.35996e-05
2.72458e-06
1.26608e-05
-8.21053e-06
7.89848e-06
2.3065e-06
1.18888e-06
1.75267e-05
-4.00986e-06
2.22069e-05
-6.87531e-06
2.18875e-05
-9.31778e-06
2.34565e-05
-1.17483e-05
2.41182e-05
-1.4118e-05
2.40901e-05
-1.66626e-05
2.4163e-05
-1.91743e-05
2.09783e-05
-2.11946e-05
1.08241e-05
-2.17794e-05
-7.00806e-06
-2.08105e-05
-2.63408e-05
-1.54966e-05
-4.00451e-05
-5.71598e-06
-5.50726e-05
4.43113e-06
-5.43568e-05
8.86648e-06
-2.46309e-05
2.30346e-05
-1.93772e-06
1.90187e-06
-6.58348e-06
4.58971e-06
1.16644e-05
-1.77057e-05
2.86886e-05
-2.18258e-05
3.77302e-05
-9.70227e-06
4.79156e-05
-1.73901e-06
5.4432e-05
1.10955e-06
4.87877e-05
5.64426e-06
3.76625e-05
1.11252e-05
2.01151e-05
1.22282e-05
2.54081e-06
1.50222e-05
-1.07002e-05
1.41429e-05
-1.77062e-05
3.52838e-06
-1.66977e-05
-2.49828e-06
-1.69341e-05
1.71686e-06
-1.31897e-05
2.76201e-06
-9.78499e-06
-5.07824e-06
3.25838e-07
-1.28685e-05
3.26689e-07
-7.03671e-06
9.19585e-06
-8.76115e-07
-1.4129e-06
2.14585e-05
-4.29428e-05
3.91888e-05
-4.14119e-05
4.79216e-05
-2.15933e-05
4.99742e-05
-8.12399e-06
5.15847e-05
-2.6141e-06
5.7138e-05
3.737e-06
5.59318e-05
1.43838e-05
4.60711e-05
2.21852e-05
1.68544e-05
4.04578e-05
-8.7706e-06
3.18076e-05
-2.47428e-05
1.41565e-05
-2.5121e-05
-3.55911e-06
-2.01198e-05
-4.4466e-07
-1.22214e-05
-1.72887e-06
3.56761e-07
-2.28014e-05
6.17981e-06
-1.86585e-05
6.52883e-06
-4.70846e-06
1.43917e-05
3.71037e-06
-9.87026e-06
2.1172e-05
-6.21443e-05
2.73538e-05
-4.72492e-05
3.06377e-05
-2.45327e-05
3.56685e-05
-1.28103e-05
4.09471e-05
-7.49657e-06
4.42738e-05
1.0828e-06
4.54876e-05
1.32658e-05
4.4343e-05
2.34256e-05
2.48767e-05
4.51835e-05
-1.93341e-06
3.95582e-05
-1.62078e-05
1.81208e-05
-1.45196e-05
-6.61939e-06
-1.15688e-05
-2.08638e-06
-6.01619e-06
-6.3827e-06
2.63292e-06
-3.44803e-05
2.54421e-06
-1.85704e-05
9.07304e-06
-1.1699e-06
1.60066e-05
7.95053e-06
-1.90227e-05
1.48087e-05
-6.78756e-05
9.28651e-06
-4.14631e-05
7.31085e-06
-2.22125e-05
1.00341e-05
-1.24931e-05
1.43928e-05
-7.38485e-06
2.01197e-05
-2.93139e-06
3.04118e-05
2.67039e-06
3.58751e-05
1.21451e-05
2.51727e-05
3.35402e-05
5.1328e-06
1.40566e-05
-2.63588e-06
8.83928e-06
-1.93366e-06
-8.01513e-06
-2.87952e-06
-4.90742e-07
-8.70361e-07
-9.87074e-06
-2.25561e-06
-3.39184e-05
-3.40921e-06
-1.01749e-05
2.69223e-06
1.35994e-06
1.47564e-05
1.06948e-05
-2.96869e-05
8.5816e-06
-6.62889e-05
-4.63332e-06
-2.66274e-05
-5.52101e-06
-7.93668e-06
7.44164e-07
-1.9303e-06
2.35937e-06
-1.99042e-06
2.98111e-06
-1.43269e-06
6.60559e-06
-3.54446e-08
9.84963e-06
5.31708e-07
7.76193e-06
4.72859e-06
2.24966e-06
1.12268e-05
1.29597e-06
5.90368e-06
4.39345e-06
-3.14615e-06
5.44208e-06
-7.46773e-07
1.87262e-06
-8.97558e-06
-3.55837e-06
-2.00139e-05
-6.43691e-06
-3.26457e-06
-7.89353e-06
3.36843e-06
1.1388e-05
1.23306e-05
-4.19302e-05
6.56981e-06
-6.02483e-05
-1.52295e-06
-1.169e-05
-4.83598e-07
-1.64429e-06
-2.60082e-07
-1.90043e-06
-1.32797e-07
-1.98663e-06
-1.4652e-07
-5.57312e-07
-2.94323e-07
2.84796e-07
-9.47746e-07
1.17094e-06
-4.92288e-08
3.67272e-06
1.11876e-06
9.27295e-06
1.90502e-06
4.19504e-06
8.78304e-06
-5.29293e-07
1.07366e-05
4.11328e-06
6.81088e-06
-3.9467e-06
-3.17672e-06
-5.0579e-06
-1.29038e-05
4.78264e-07
-2.19273e-05
5.66609e-06
3.82311e-06
1.24637e-05
-4.84178e-05
5.17322e-06
-5.26323e-05
-1.78561e-06
-2.16534e-06
-1.31257e-06
1.99043e-07
-1.47744e-06
-1.58642e-06
-1.45324e-06
-2.04648e-06
-2.53474e-06
4.79403e-07
-3.07297e-06
7.86789e-07
-2.88425e-06
9.60826e-07
-1.67505e-06
2.44932e-06
1.20923e-06
6.09082e-06
2.17391e-06
2.4445e-06
1.09808e-05
6.46041e-06
1.45432e-05
8.19937e-06
1.49267e-05
-3.22697e-06
1.5019e-06
-1.13662e-06
8.62251e-07
6.47997e-07
-2.30769e-06
8.68701e-06
-4.07588e-06
1.1656e-05
-5.10664e-05
-9.96658e-07
-3.96401e-05
-6.05058e-06
5.14028e-06
-4.86368e-06
1.62704e-06
-4.19065e-06
-2.99209e-07
-2.88067e-06
-6.47166e-07
-4.63085e-06
2.18458e-06
-7.51962e-06
9.83429e-07
-1.59115e-05
-3.84151e-07
-1.09249e-05
3.89354e-06
-2.66097e-06
8.92572e-06
1.42172e-06
1.16611e-05
6.58995e-06
7.92459e-06
1.06697e-05
4.63988e-06
1.76081e-05
-1.24849e-05
3.58591e-06
-1.55123e-05
2.35563e-06
9.06402e-08
4.79357e-08
2.58464e-05
-4.36916e-05
4.75202e-05
-1.96003e-05
5.35441e-05
1.00261e-05
4.66651e-05
2.39023e-05
3.82638e-05
1.1126e-05
2.83718e-05
1.68242e-06
1.89326e-05
1.17466e-05
7.15271e-06
2.93065e-05
-2.78608e-06
3.21457e-05
-9.84775e-06
2.89491e-05
-1.76965e-05
3.13053e-05
-2.48173e-05
3.12389e-05
-3.0235e-05
2.95078e-05
-3.72448e-05
3.11728e-05
-4.65114e-05
3.0245e-05
-5.99649e-05
2.42821e-05
-7.19092e-05
6.49957e-06
-6.20947e-05
-2.25784e-05
-3.85822e-05
-5.71548e-05
-1.55458e-05
-8.11309e-05
-8.07528e-07
-7.06276e-05
1.71401e-05
-4.27787e-05
-4.0953e-06
4.46995e-05
1.53288e-05
-6.27786e-05
3.33854e-05
-3.85776e-05
4.91343e-05
-3.98809e-06
5.36266e-05
1.94121e-05
6.0295e-05
4.45826e-06
4.61356e-05
1.58429e-05
2.93104e-05
2.85728e-05
8.30344e-06
4.46796e-05
-1.61805e-05
5.66296e-05
-2.93671e-05
3.45194e-05
-2.8903e-05
1.17797e-05
-2.88113e-05
6.61651e-06
-3.60387e-05
1.08033e-05
-7.33624e-05
1.5981e-05
-0.000110357
3.22011e-05
-0.000107616
2.57974e-05
-0.000100776
-6.87635e-06
-6.54826e-05
-7.01884e-05
-5.64428e-05
-9.52798e-05
-4.17756e-05
-9.46113e-05
-3.53356e-05
-7.65169e-05
-2.57814e-05
-5.21894e-05
-2.09852e-05
-8.82602e-06
-1.38516e-05
-4.75413e-05
-2.10176e-05
-1.61632e-05
-1.65457e-05
-7.62733e-06
-1.76564e-05
2.04848e-05
-6.0705e-05
4.75091e-05
-0.000122123
6.29801e-05
-0.000153261
4.93297e-05
-0.000105823
1.97138e-05
-4.75892e-05
4.46823e-06
-2.7853e-05
1.85778e-06
-2.14291e-05
5.87648e-06
-2.33293e-05
1.02491e-05
-3.08572e-05
1.51098e-05
-3.93868e-05
1.92348e-05
-3.85022e-05
1.51737e-05
-9.5406e-05
5.16384e-06
-0.000148451
-5.69917e-05
-0.000111748
-0.000107444
-9.4921e-05
-0.000111104
-8.90686e-05
-9.91142e-05
-8.65975e-05
-6.51016e-05
-7.66431e-05
-4.57641e-05
-4.05955e-05
-5.42664e-05
-7.41411e-06
-2.33405e-05
-6.66751e-06
-1.56841e-06
-4.98247e-05
2.49096e-06
-0.000103283
4.88242e-05
-0.000139375
6.00446e-05
-0.000146035
2.29412e-05
-0.00012257
5.31019e-06
-0.000110294
3.75793e-07
-0.000104603
1.1837e-06
-5.36137e-05
2.45008e-07
-3.67874e-05
3.26995e-06
-3.72251e-05
8.60506e-06
-4.00832e-05
1.58862e-05
-4.4658e-05
2.05882e-05
-4.51154e-05
1.14265e-05
-9.76515e-05
-3.47773e-06
-0.000142851
-6.51087e-05
-0.000145217
-0.000109329
-0.000137235
-0.000118333
-8.83275e-05
-6.94942e-05
-5.1359e-05
-1.01057e-05
-5.3485e-05
-7.04979e-06
-1.79264e-05
-0.000108519
9.52287e-07
-1.84113e-05
-6.37019e-07
-4.20905e-08
-5.1533e-05
2.42142e-06
-9.19749e-05
2.38019e-05
-3.23429e-05
8.90648e-06
-1.18925e-05
3.03947e-06
-7.6884e-06
9.79585e-07
-2.07411e-05
1.32341e-07
-7.05158e-05
2.60496e-07
-6.69838e-05
-1.39784e-07
-6.68013e-05
3.95129e-06
-6.32291e-05
7.88259e-06
-4.35379e-05
1.55374e-05
-3.70613e-05
1.06223e-05
-2.81823e-05
2.60075e-06
-3.00883e-05
-1.74868e-06
-7.1328e-05
-6.79889e-06
-0.000147336
-3.22769e-05
-0.000157936
-0.000108395
-2.63799e-05
-7.39245e-05
-1.50705e-05
-8.38517e-06
-2.08806e-05
-3.72422e-06
-4.78827e-06
-4.75906e-05
-7.91e-08
-1.09563e-05
-3.44875e-10
-1.2259e-07
-6.57263e-06
9.12924e-07
-1.02687e-05
4.78118e-06
-3.78409e-06
3.81901e-06
-2.1497e-06
1.5444e-06
-1.77529e-06
5.42374e-07
-1.9929e-06
2.85396e-07
-1.82613e-06
1.86757e-08
-1.79371e-05
-1.33744e-07
-6.19327e-05
8.22426e-07
-5.87287e-05
8.72796e-06
-5.4482e-05
9.5972e-06
-5.11905e-05
8.33852e-06
-1.78605e-05
2.56063e-06
-2.85964e-06
7.36677e-09
-9.04635e-06
-7.77544e-07
-4.22258e-05
-5.66447e-06
-0.000106701
-5.06084e-05
-3.29736e-05
-5.19305e-05
-1.36499e-05
-2.32557e-05
-1.30926e-05
-6.12255e-06
-4.25311e-07
-1.93254e-05
-1.5872e-07
-4.60999e-06
-1.89892e-07
-1.19588e-07
-1.41864e-06
2.11202e-06
-1.92466e-06
4.71063e-06
-7.79869e-07
2.81383e-06
-3.75755e-07
1.07781e-06
-2.44289e-07
3.45822e-07
-1.0584e-07
1.05965e-07
-7.46967e-08
-5.34489e-08
-2.46594e-07
-2.82884e-09
-5.4233e-06
4.29002e-08
-2.52011e-05
5.69862e-07
-3.15013e-05
1.04897e-06
-8.14592e-06
2.56662e-07
-5.30886e-07
-2.89629e-09
-3.54196e-07
6.75326e-10
-1.00428e-06
-1.57727e-07
-5.3577e-06
-1.47285e-06
-5.46363e-05
-1.11692e-05
-6.14388e-05
-6.25453e-05
-4.57318e-05
-3.44396e-05
-1.08882e-05
-1.91538e-05
-4.95452e-06
-8.31688e-06
-2.60337e-07
3.48172e-06
-4.95186e-07
8.56025e-08
-3.00019e-07
1.88256e-06
2.59251e-09
4.15754e-06
3.08871e-07
2.5783e-06
5.98086e-07
8.67566e-07
9.26961e-07
2.02769e-09
9.61684e-07
-2.25158e-08
6.07724e-07
2.59529e-07
1.30169e-06
8.434e-07
-6.2367e-08
2.9461e-07
-8.20449e-07
6.13771e-07
-3.35192e-07
1.02073e-07
-6.03347e-08
9.22247e-09
-5.08286e-08
-1.44801e-09
-3.51315e-08
-2.19631e-10
-1.70286e-07
-2.53694e-08
-1.40102e-06
-2.65619e-07
-1.35026e-05
-1.40704e-06
-7.27293e-05
-1.4812e-05
-6.43314e-05
-2.8255e-05
-3.56041e-05
-3.1993e-05
-2.11543e-05
-1.26109e-05
-5.00368e-07
1.36841e-05
-8.4789e-07
3.98834e-07
-1.06925e-06
2.11391e-06
-6.70109e-09
4.4907e-06
1.2519e-06
2.79864e-06
1.56763e-06
9.43641e-07
5.98996e-07
1.16582e-06
-6.13638e-07
1.38527e-06
-1.15875e-06
1.43464e-06
-1.12997e-06
6.95042e-07
-5.92641e-07
2.30265e-07
-1.85386e-07
2.02178e-07
-4.62967e-08
-9.97354e-09
-2.73247e-08
-4.87533e-10
-1.90432e-08
3.9109e-10
-3.14124e-09
-9.44958e-10
-2.76304e-08
-8.14279e-10
-2.82714e-07
-9.91315e-09
-1.62082e-06
-6.82536e-08
-1.80145e-05
-3.95303e-07
-5.4486e-05
-4.9528e-06
-5.52176e-05
-1.40679e-05
-1.90476e-05
-4.01307e-05
-4.30847e-06
2.01491e-05
-5.14789e-06
1.24825e-06
-4.05045e-06
4.37437e-06
-3.23015e-06
5.1236e-06
-3.5613e-06
4.43535e-06
-4.01976e-06
1.76469e-06
-3.13223e-06
7.76055e-08
-1.8974e-06
7.38624e-09
-9.55016e-07
3.92746e-08
-6.15229e-07
1.47804e-08
-2.10038e-07
7.52524e-08
-5.5134e-08
4.75942e-08
-6.23873e-08
1.15544e-09
-5.27616e-08
8.74303e-09
-2.74642e-08
-2.41035e-11
-5.90253e-10
-4.07507e-12
-1.36932e-09
-2.87953e-11
-1.10266e-08
-3.02158e-10
-7.6849e-08
-2.39526e-09
-4.55566e-07
-1.71069e-08
-5.35075e-06
-5.65055e-08
-2.12667e-05
-6.29312e-08
-3.91306e-08
-2.8685e-05
-8.28547e-06
1.32371e-06
-7.60212e-06
6.44625e-06
-6.71054e-06
2.16096e-06
-4.03717e-06
2.66174e-06
-1.89657e-06
4.19151e-07
-3.18781e-07
1.16908e-07
-2.33623e-07
-2.08991e-08
-2.21748e-07
-1.53453e-08
-1.24e-07
-1.19254e-08
-1.00926e-07
2.08866e-08
-4.97791e-08
2.09818e-08
-9.66842e-09
7.47984e-09
-9.86692e-09
7.55431e-10
-3.17878e-09
1.88704e-10
-7.89023e-12
-1.26381e-12
-1.02439e-11
-1.24492e-12
-3.04622e-11
-7.70772e-12
-2.39034e-10
-9.06817e-11
-1.63531e-09
-9.92658e-10
-4.49279e-09
-1.54646e-08
-1.08499e-08
-4.9736e-08
-1.29814e-08
-5.96246e-08
-3.05307e-08
-1.13333e-08
-2.32642e-06
3.77942e-06
-2.68766e-06
4.99635e-06
-1.7827e-06
5.6126e-07
-4.97153e-07
2.29326e-07
-1.85771e-07
9.68934e-08
-9.26842e-08
2.15717e-08
-1.48293e-07
-3.22493e-09
-1.82676e-07
7.56336e-09
-4.97459e-08
4.38178e-09
-2.64205e-08
1.48009e-09
-7.90951e-09
1.91087e-09
-9.28342e-10
4.91195e-10
-1.8954e-10
3.26184e-11
-7.61835e-13
-6.45846e-14
-1.63002e-12
-2.99241e-13
-2.39193e-12
-2.90711e-13
-9.51468e-12
-5.15664e-13
-9.41613e-11
-4.80193e-12
-1.00679e-09
-6.46803e-11
-9.95603e-09
-1.38175e-09
-2.779e-08
-1.34579e-08
-2.78666e-08
-4.16385e-08
-4.12986e-08
-2.28233e-08
1.04443e-07
3.67498e-06
-4.535e-07
3.6525e-06
-2.58658e-07
3.11986e-07
-1.09157e-07
6.4411e-08
-3.96607e-08
2.52403e-08
-2.41168e-08
5.63039e-09
-4.10339e-08
1.22212e-09
-3.99777e-08
9.24865e-10
-7.78064e-09
1.9179e-09
-2.15047e-09
3.3562e-10
-4.96917e-10
1.93659e-10
-3.2989e-11
3.17597e-11
-9.34282e-13
4.23286e-13
-6.49189e-13
-2.52786e-13
-5.02373e-13
-2.78339e-13
-3.66696e-13
-2.63438e-13
-7.53634e-13
-2.32486e-13
-5.43904e-12
-1.27195e-13
-6.90677e-11
-1.82345e-12
-1.42032e-09
-2.89513e-11
-1.04046e-08
-2.08089e-10
-2.77857e-08
-6.27948e-09
-2.4852e-08
-3.1699e-08
1.81572e-07
1.5186e-05
-1.67151e-07
7.925e-06
-6.38026e-08
1.93367e-07
-2.53448e-08
2.50605e-08
-7.70468e-09
7.21664e-09
-3.59632e-09
1.46722e-09
-2.83769e-09
3.74105e-10
-2.22661e-09
3.0325e-10
-4.82938e-10
2.22671e-10
-1.97784e-10
5.14169e-11
-3.19924e-11
2.09345e-11
-2.67691e-12
2.04768e-12
-2.11566e-12
-3.61296e-13
-1.98446e-12
-3.66648e-13
-9.70252e-13
-1.30085e-12
-3.06793e-13
-9.1136e-13
-1.17334e-13
-3.69176e-13
-1.56669e-13
-8.63806e-14
-1.94556e-12
-2.96026e-14
-3.08748e-11
-1.82349e-14
-2.38745e-10
-1.38356e-13
-6.5129e-09
-3.85075e-12
-8.17985e-11
-6.35435e-09
4.93165e-06
0.000158336
-6.49288e-08
1.73029e-05
-1.78989e-08
1.41637e-07
-6.35895e-09
1.31021e-08
-1.62597e-09
2.58577e-09
-6.24334e-10
4.565e-10
-4.06971e-10
1.46039e-10
-2.11642e-10
1.06444e-10
-5.08693e-11
5.65292e-11
-2.23828e-11
1.42038e-11
-9.21905e-12
3.08498e-12
-1.04587e-11
7.09589e-13
-1.75084e-11
6.2668e-12
-2.23073e-11
3.66191e-12
-9.47553e-12
-1.50085e-11
-2.4342e-12
-8.16567e-12
-2.72486e-13
-2.59476e-12
-1.15502e-14
-2.7282e-13
-6.79035e-15
-2.37769e-14
-1.13425e-14
-1.22769e-14
-1.41984e-13
-8.37768e-15
-3.98477e-12
-7.491e-15
-6.84322e-14
-8.57287e-11
7.42721e-06
0.000181584
-9.15196e-09
3.06332e-05
-8.45717e-09
1.39482e-07
-2.01933e-09
6.58266e-09
-4.10898e-10
9.90138e-10
-1.44035e-10
1.96313e-10
-8.69587e-11
8.84547e-11
-4.41138e-11
5.84979e-11
-2.13491e-11
2.28871e-11
-2.77687e-11
8.99003e-12
-4.43491e-11
1.1121e-11
-8.63612e-11
4.01422e-13
-1.97824e-10
7.62358e-11
-2.20474e-10
1.24829e-11
-8.80113e-11
-1.60559e-10
-2.18547e-11
-7.62758e-11
-2.40375e-12
-2.30488e-11
-8.39048e-14
-2.55929e-12
-8.72484e-15
-9.22294e-14
-2.94602e-15
-1.18144e-14
-2.12929e-15
-1.00322e-14
-3.2393e-15
-5.31523e-15
-3.09035e-14
-4.02657e-14
4.69103e-06
0.000128549
-7.41369e-08
3.28157e-05
-3.88328e-09
6.87192e-08
-6.68586e-10
3.35704e-09
-1.17467e-10
4.45384e-10
-4.74159e-11
1.25282e-10
-3.7324e-11
7.08134e-11
-3.97422e-11
4.75386e-11
-6.35139e-11
3.45509e-11
-1.46883e-10
8.15091e-11
-3.13211e-10
1.60341e-10
-9.42925e-10
2.04137e-11
-1.5151e-09
-3.51995e-10
-1.5236e-09
-1.92067e-09
-5.4421e-10
-2.54914e-09
-1.35941e-10
-5.01996e-10
-1.51534e-11
-1.50055e-10
-5.23029e-13
-1.72034e-11
-2.24554e-14
-5.85241e-13
-4.92753e-15
-2.098e-14
-1.67668e-15
-7.74215e-15
-1.2786e-15
-3.37184e-15
-1.47277e-14
-1.71741e-14
-1.27241e-07
6.36545e-06
-3.90597e-08
2.99247e-05
-1.94107e-09
3.14166e-08
-2.43711e-10
1.66473e-09
-4.78395e-11
2.62513e-10
-3.45419e-11
1.33743e-10
-4.55368e-11
9.62714e-11
-9.56859e-11
9.01645e-11
-3.88757e-10
3.14244e-10
-1.34147e-09
1.00087e-09
-2.76213e-09
2.05178e-09
-1.78185e-09
5.24254e-11
-1.17806e-08
-2.03698e-09
-1.79378e-08
-1.95661e-08
-5.89498e-09
-2.25804e-08
-9.80016e-10
-5.50194e-09
-1.01827e-10
-1.0664e-09
-3.45578e-12
-1.15743e-10
-1.03239e-13
-3.94888e-12
-4.80469e-15
-1.20151e-13
-1.01528e-15
-1.09355e-14
-1.97278e-15
-3.06028e-15
-1.83725e-15
-1.49864e-14
-2.09178e-06
-1.19629e-06
-1.83919e-08
2.44182e-05
-9.876e-10
1.39355e-08
-1.00159e-10
8.09744e-10
-6.10701e-11
2.54452e-10
-1.69188e-10
2.54653e-10
-9.07394e-10
8.56543e-10
-5.50122e-09
4.71365e-09
-3.33492e-08
4.20469e-08
-5.16217e-08
3.54644e-08
-1.96518e-08
1.29662e-08
-9.51595e-09
-4.53567e-09
-2.41721e-08
-1.60004e-09
-2.05615e-08
-2.14959e-08
-1.01485e-08
-3.04917e-08
-3.40198e-09
-7.14872e-09
-3.21004e-10
-4.35538e-09
-1.10317e-11
-4.87137e-10
-3.71383e-13
-1.47593e-11
-1.40693e-14
-5.95069e-13
-8.12791e-16
-3.26328e-14
-3.26822e-16
-4.60382e-15
-1.69554e-15
-5.18547e-16
-1.1619e-06
-5.98203e-08
-8.00404e-09
2.0012e-05
-4.42441e-10
6.33413e-09
-6.42178e-11
4.25837e-10
-2.20862e-11
1.97654e-10
-1.34363e-10
4.10768e-10
-1.2681e-09
2.00208e-09
-2.24345e-08
2.37704e-08
-3.92993e-08
6.39556e-08
-4.52442e-08
4.22012e-08
-4.82413e-08
1.83231e-08
-3.18352e-08
-3.31428e-09
-2.5712e-08
-7.05654e-09
-1.31711e-08
-2.44005e-08
-9.34481e-09
-3.12286e-08
-7.68254e-09
1.62766e-10
-1.36792e-09
-2.46835e-08
-6.85324e-11
-3.56642e-09
-1.03917e-12
-6.29462e-11
-3.79631e-14
-1.98662e-12
-1.14006e-15
-8.18448e-14
-1.77229e-16
-8.11225e-15
-1.80097e-15
-1.50685e-16
-5.01659e-07
3.22863e-07
-3.43781e-09
1.02983e-05
-1.55131e-10
3.00922e-09
-2.81894e-11
2.90667e-10
-4.29272e-11
2.04589e-10
-8.43353e-11
4.46474e-10
-8.4094e-11
3.19373e-09
-2.08374e-08
7.16402e-08
-2.30796e-08
6.70639e-08
-2.03016e-08
4.00598e-08
-2.05989e-08
8.42806e-09
-8.75872e-09
-1.20398e-08
-1.5662e-09
-1.12794e-08
-1.27668e-09
-2.392e-08
-5.1881e-11
-2.98962e-08
3.37444e-10
-5.37706e-09
1.35461e-09
-2.97132e-08
-1.03669e-10
-3.97031e-09
-3.23031e-12
-1.55875e-10
-7.38729e-14
-5.0328e-12
-3.20733e-16
-1.77071e-13
1.66273e-17
-9.5086e-15
-1.98617e-15
-3.54265e-17
1.60656e-08
3.06809e-07
-1.84638e-09
1.4014e-06
-3.81742e-11
1.22841e-09
-9.02068e-12
2.53741e-10
-1.04673e-11
1.98942e-10
1.26747e-10
3.66976e-10
-2.02731e-09
5.92027e-09
-3.77329e-09
7.71563e-08
-1.03e-10
6.40301e-08
5.29001e-09
3.52425e-08
9.23013e-09
4.84701e-09
3.72196e-09
-1.88537e-08
6.72508e-09
-1.44351e-08
7.82034e-09
-2.55381e-08
9.33869e-09
-3.39003e-08
3.62324e-09
-3.35416e-08
5.60286e-10
-2.15341e-08
-1.6351e-11
-1.48279e-09
-3.4662e-12
-1.70311e-10
-2.60438e-13
-8.3563e-12
-1.01443e-14
-4.20775e-13
2.14335e-16
-1.9453e-14
-2.16456e-15
5.76244e-17
8.01612e-09
2.98804e-07
-5.39698e-10
1.41781e-06
-1.11376e-11
6.90158e-10
1.7092e-12
2.33836e-10
7.02617e-12
1.88099e-10
1.17282e-10
3.01805e-10
2.23075e-09
2.70678e-09
1.61082e-08
6.38919e-08
2.41566e-08
5.63757e-08
3.12264e-08
2.8551e-08
3.69634e-08
-4.17826e-10
1.76069e-08
-4.42926e-09
1.78355e-08
-1.69526e-08
1.99369e-08
-3.01252e-08
2.49573e-08
-4.25779e-08
1.93788e-08
-4.90173e-08
-8.39317e-11
-1.6541e-08
-5.51477e-12
-1.65681e-09
-4.32164e-12
-1.80726e-10
-4.09256e-13
-1.28469e-11
-2.28406e-14
-8.24372e-13
2.63006e-16
-4.43215e-14
-2.59698e-15
6.45891e-17
-3.99801e-07
3.1124e-05
-2.02268e-10
1.12927e-06
-1.05264e-11
4.90323e-10
1.78484e-12
2.15997e-10
1.21025e-11
1.73091e-10
8.6373e-11
2.22012e-10
1.9992e-09
7.93734e-10
3.21988e-08
1.29951e-08
3.25734e-08
2.01312e-08
3.27902e-08
2.00599e-08
2.6097e-08
-5.43011e-09
3.5727e-08
-2.44504e-08
4.28035e-08
-3.02702e-08
4.31904e-08
-3.5644e-08
4.50437e-08
-2.89225e-08
3.07103e-08
-5.01317e-08
2.23338e-10
-1.54964e-08
3.00117e-11
-1.69021e-09
4.36948e-13
-1.7176e-10
-7.5881e-14
-1.37128e-11
-7.81805e-15
-9.40402e-13
-2.67193e-16
-5.53004e-14
-2.82542e-15
4.68519e-17
-6.76473e-07
0.000159146
3.12084e-08
1.65214e-06
5.75582e-10
3.12766e-08
6.14781e-12
7.94966e-10
1.00365e-11
1.63872e-10
3.82071e-11
2.03614e-10
4.69109e-10
3.82738e-10
4.66122e-09
8.76224e-09
1.15248e-08
1.00431e-08
1.76154e-08
8.02604e-09
9.7455e-08
-6.3761e-08
1.21046e-07
-1.153e-07
7.106e-08
-1.14137e-07
5.13049e-08
-5.60572e-08
2.91063e-08
-2.02466e-08
2.06404e-08
-4.73038e-08
8.57263e-10
-1.03983e-08
8.34349e-11
-1.11292e-09
5.61555e-12
-1.10715e-10
3.45446e-13
-9.42135e-12
1.94541e-14
-6.65483e-13
8.31666e-16
-3.97071e-14
-2.14812e-15
5.57728e-17
2.52235e-06
0.000102343
3.65104e-07
6.50086e-06
3.03741e-08
3.83311e-07
1.74337e-09
3.06282e-08
6.85983e-11
1.84778e-09
3.57666e-11
2.56359e-10
1.61361e-10
3.42084e-10
1.96983e-09
7.05477e-09
8.42056e-08
4.76477e-08
2.08488e-07
-3.44845e-08
2.7632e-07
-7.73839e-08
2.27081e-07
-5.68129e-08
4.3446e-08
-5.96718e-08
-5.09504e-09
-8.82717e-08
4.50396e-09
-7.38356e-08
8.9033e-09
-3.33341e-08
8.65483e-10
-3.86555e-09
8.50862e-11
-3.85976e-10
6.82742e-12
-3.54269e-11
4.82576e-13
-2.96053e-12
2.86911e-14
-2.05435e-13
1.47051e-15
-1.24659e-14
-6.75837e-16
6.74646e-17
1.02936e-06
1.24825e-06
1.54241e-06
1.73384e-05
2.43773e-07
2.30624e-06
3.41383e-08
2.59123e-07
3.3122e-09
3.39586e-08
4.20507e-10
3.23299e-09
2.44923e-10
6.18658e-10
2.07979e-07
9.43038e-08
3.43431e-07
5.24464e-08
4.52118e-07
-3.31981e-08
1.01162e-07
-5.01335e-08
4.34564e-08
-1.9263e-08
2.7962e-08
-2.1274e-08
6.6793e-08
-4.91149e-08
2.58726e-08
-3.41161e-08
4.55968e-09
-5.12417e-09
3.6354e-10
-2.68456e-10
3.29658e-11
-3.6518e-11
2.69816e-12
-3.00418e-12
1.87073e-13
-2.26076e-13
1.08815e-14
-1.26933e-14
5.60498e-16
-5.1899e-16
-2.50983e-17
2.28909e-17
9.84177e-07
2.64521e-07
2.07218e-06
1.08893e-05
4.30387e-07
8.15946e-06
8.03817e-07
4.82505e-06
2.18008e-07
1.22313e-06
6.50571e-08
5.36236e-07
3.84144e-07
1.22785e-06
7.04482e-07
3.15128e-07
9.66272e-08
-1.08715e-08
6.0274e-08
-3.34882e-08
2.52289e-08
-1.88606e-08
9.1626e-09
-5.3321e-09
1.67491e-08
-3.62257e-09
1.91794e-08
-8.34191e-09
7.33403e-09
-4.20463e-09
2.72078e-10
-2.61807e-10
3.59025e-11
-1.88245e-11
2.93175e-12
-2.02557e-12
2.17033e-13
-1.45519e-13
1.14682e-14
-8.53234e-15
4.29982e-16
-3.09832e-16
1.96057e-17
-1.45957e-17
-7.86944e-19
8.5318e-19
2.2755e-07
3.70351e-08
1.55482e-06
8.16856e-07
2.97468e-06
8.36417e-06
1.7101e-06
4.84421e-06
8.62477e-07
4.29039e-06
9.89963e-07
3.15354e-06
6.18899e-07
1.24278e-06
8.94276e-08
9.99337e-08
5.58499e-08
-1.13981e-08
2.32789e-08
-1.18784e-08
5.85955e-09
-4.2559e-09
3.59559e-10
-8.82272e-10
9.40657e-10
-2.13178e-10
7.54063e-10
-5.53288e-11
2.5618e-10
-5.7739e-12
1.91402e-11
-5.75007e-12
2.06235e-12
-9.99173e-13
1.47118e-13
-5.92221e-14
8.63725e-15
-2.47257e-15
2.67601e-16
-1.11676e-16
1.10249e-17
-1.29792e-17
6.10733e-19
-9.92593e-19
-4.83965e-20
2.92865e-20
3.01728e-08
6.8673e-09
4.46657e-07
1.54229e-07
1.5412e-06
5.41354e-07
1.65126e-06
6.78615e-07
1.65158e-06
2.45541e-06
1.23575e-06
1.41436e-06
2.08576e-07
2.5676e-07
6.03537e-08
2.15116e-08
2.2336e-08
-1.72689e-10
6.09828e-09
-1.8527e-09
1.22862e-09
-5.77453e-10
2.77499e-10
-1.0337e-10
6.13682e-11
-1.52387e-11
6.15221e-12
-1.83761e-12
2.80791e-13
-1.55532e-13
3.66779e-13
-3.22674e-14
4.01746e-14
-8.23661e-15
2.34046e-15
-9.87659e-16
8.84521e-17
-1.80324e-16
1.33156e-17
-2.42312e-17
1.18081e-18
-1.90295e-18
4.32012e-20
-1.0861e-19
-5.4125e-21
2.03504e-21
5.6067e-09
1.26124e-09
5.84355e-08
3.46878e-08
1.9059e-07
9.90756e-08
3.74234e-07
1.26193e-07
6.33803e-07
8.24157e-08
2.89813e-07
-2.13131e-08
5.47465e-08
-2.52114e-08
9.78695e-09
5.51529e-10
3.80404e-09
6.99208e-11
8.68256e-10
-6.18215e-11
1.38843e-10
-4.39491e-11
1.89942e-11
-8.90033e-12
2.15567e-12
-1.16557e-12
1.91558e-13
-1.26543e-13
2.97872e-14
-1.14667e-14
3.27874e-15
-3.77821e-15
9.19854e-16
-1.26227e-15
4.6206e-16
-3.73637e-16
4.96029e-17
-4.43397e-17
2.50323e-18
-3.24614e-18
1.09923e-19
-2.09866e-19
4.96938e-21
-1.14965e-20
-5.53472e-22
2.40201e-22
9.49829e-10
3.11714e-10
1.20477e-08
7.32192e-09
4.43854e-08
2.40295e-08
8.64442e-08
2.81436e-08
1.00928e-07
1.28953e-08
4.76763e-08
-3.17894e-09
1.04024e-08
-2.94782e-09
1.95069e-09
-5.85588e-10
3.50064e-10
-1.2312e-11
8.71234e-11
1.60133e-12
1.38609e-11
-2.32967e-13
1.67085e-12
-5.15303e-13
1.66345e-13
-8.58708e-14
8.13766e-15
-9.52177e-15
5.65189e-15
-1.86678e-15
3.91504e-15
-9.79855e-16
1.20505e-15
-2.91906e-16
1.06972e-16
-3.62603e-17
4.80259e-18
-2.85105e-18
2.37297e-19
-2.00657e-19
1.12495e-20
-1.24114e-20
5.72077e-22
-6.50572e-22
-3.00069e-23
2.34652e-23
2.39311e-10
7.26679e-11
3.04944e-09
1.62667e-09
1.06765e-08
5.36298e-09
1.92376e-08
5.36532e-09
1.7465e-08
1.96133e-09
7.27122e-09
-3.84357e-10
1.73527e-09
-3.76337e-10
2.95217e-10
-8.25161e-11
4.0532e-11
-4.38452e-12
6.35191e-12
7.10768e-13
1.25851e-12
1.10578e-13
1.60239e-13
3.5959e-15
1.66643e-14
-3.22639e-15
4.60103e-15
-8.7063e-16
2.18782e-15
-3.94852e-16
7.90945e-16
-1.27621e-16
1.00934e-16
-1.93737e-17
5.4013e-18
-1.81607e-18
2.74215e-19
-1.43119e-19
1.42664e-20
-9.81983e-21
6.4637e-22
-5.77536e-22
3.06619e-23
-2.89004e-23
-1.36454e-24
1.2672e-24
5.8809e-11
1.39257e-11
8.4372e-10
3.19771e-10
2.54919e-09
1.06979e-09
3.797e-09
9.60766e-10
2.91462e-09
2.72511e-10
1.19372e-09
-5.24777e-11
2.85765e-10
-5.1188e-11
4.78332e-11
-1.19942e-11
6.44458e-12
-1.01403e-12
7.78103e-13
1.09856e-13
1.14813e-13
3.36562e-14
1.79014e-14
3.36023e-15
4.46489e-15
2.33876e-16
1.49153e-15
-4.65029e-17
4.63237e-16
-3.08103e-17
6.78346e-17
-7.0776e-18
4.52035e-18
-8.86033e-19
2.53984e-19
-8.27785e-20
1.41097e-20
-6.39547e-21
6.97013e-22
-4.16599e-22
2.9622e-23
-2.31611e-23
1.13513e-24
-1.09222e-24
-6.22658e-26
-3.88482e-26
1.15994e-11
2.33921e-12
1.8535e-10
5.5371e-11
5.14435e-10
1.90948e-10
6.93596e-10
1.58018e-10
4.62223e-10
3.80435e-11
1.77932e-10
-4.26398e-12
4.32993e-11
-6.03784e-12
7.38695e-12
-1.55603e-12
1.00938e-12
-1.5e-13
1.27834e-13
1.8156e-14
1.63162e-14
6.31927e-15
4.53384e-15
1.39029e-15
9.73019e-16
1.48441e-16
2.15327e-16
9.57436e-18
3.74597e-17
-6.60385e-19
3.29671e-18
-2.43254e-19
2.08983e-19
-3.4117e-20
1.22263e-20
-3.2697e-21
6.38391e-22
-2.44613e-22
2.91059e-23
-1.50844e-23
1.1521e-24
-7.88595e-25
4.71308e-26
-3.42332e-26
-3.64314e-27
9.06262e-27
1.97221e-12
3.69249e-13
3.36133e-11
8.69243e-12
8.71023e-11
3.12259e-11
1.10044e-10
2.37725e-11
6.54914e-11
5.73202e-12
2.42867e-11
1.21493e-13
5.96141e-12
-5.15554e-13
1.06037e-12
-1.3527e-13
1.56917e-13
-1.09369e-15
2.0656e-14
6.9317e-15
5.11932e-15
2.49888e-15
8.39002e-16
3.32429e-16
1.10732e-16
2.69752e-17
1.62662e-17
1.8512e-18
1.82707e-18
5.68484e-20
1.46502e-19
-5.83265e-21
9.39319e-21
-1.20188e-21
5.14669e-22
-1.20229e-22
2.4509e-23
-8.69254e-24
1.02475e-24
-5.03504e-25
3.70985e-26
-2.42183e-26
2.18551e-27
-9.37727e-28
-3.08303e-28
1.46786e-27
2.97039e-13
7.23664e-14
5.34129e-12
1.26821e-12
1.30089e-11
4.80789e-12
1.53605e-11
3.24253e-12
8.42428e-12
9.55102e-13
3.06402e-12
1.51854e-13
7.59769e-13
2.64852e-15
1.4471e-13
6.86804e-15
2.35206e-14
7.69374e-15
5.112e-15
3.13661e-15
7.89944e-16
4.78924e-16
8.34512e-17
4.0693e-17
9.40671e-18
3.16006e-18
1.05074e-18
2.10848e-19
9.66005e-20
1.00393e-20
6.91263e-21
1.02125e-22