/*--------------------------------*- C++ -*----------------------------------*\
| =========                 |                                                 |
| \\      /  F ield         | OpenFOAM: The Open Source CFD Toolbox           |
|  \\    /   O peration     | Version:  5.x                                   |
|   \\  /    A nd           | Web:      www.OpenFOAM.org                      |
|    \\/     M anipulation  |                                                 |
\*---------------------------------------------------------------------------*/
FoamFile
{
    version     2.0;
    format      ascii;
    class       volScalarField;
    location    "1";
    object      alpha.water;
}
// * * * * * * * * * * * * * * * * * * * * * * * * * * * * * * * * * * * * * //

dimensions      [0 0 0 0 0 0 0];

internalField   nonuniform List<scalar> 
2268
(
1
1
1
1
1
1
1
1
1
1
1
1
1
0.999566
0.98248
0.945284
0.97769
1
0.988849
0.982064
0.998098
1
1
1
1
1
1
1
1
1
1
1
1
1
0.999999
0.995549
0.952193
0.942233
0.943208
0.995345
0.996531
0.983278
0.982997
0.986365
1
1
1
1
1
1
1
1
1
1
1
1
1
0.999998
0.997346
0.954647
0.942233
0.942233
0.98526
0.999999
0.99741
0.996265
0.999995
0.99998
1
1
1
1
1
1
1
1
1
1
1
1
1
0.999721
0.987843
0.96288
0.975258
0.998663
0.999999
0.999999
0.999998
0.999997
0.999996
0.999996
1
1
1
1
1
1
1
1
1
1
1
1
0.999989
0.999981
0.999683
0.999999
0.999999
0.999999
0.999999
0.999994
0.999995
1
1
1
1
1
1
1
0.99995
0.999734
1
1
1
1
1
1
0.999999
0.999997
0.999998
0.999999
0.999998
0.999985
0.999926
0.99993
0.999994
1
1
0.999975
0.999999
1
1
0.999674
0.998345
0.999777
1
1
1
1
1
1
0.999999
0.999997
0.999998
0.999979
0.999814
0.989009
0.984237
0.986503
0.999405
0.958929
0.988589
0.999999
1
1
0.999643
0.998343
0.999463
1
1
1
1
1
1
1
0.999999
0.999986
0.999743
0.974489
0.917154
0.938673
0.952944
0.990787
0.987336
0.997136
0.865482
0.781597
0.664855
0.690508
0.927813
1
1
0.981987
0.474539
0.751415
0.904063
0.980473
0.985839
0.668841
0.522261
0.875205
0.875705
0.992449
0.908884
0.887175
0.979454
0.975681
0.901059
0.870006
0.871134
0.989828
0.998338
0.671379
0.768402
0.894158
0.969507
0.930285
0.718385
0.837492
0.999916
0.999945
0.961833
0.840367
0.968974
0.994631
0.994631
0.994631
0.994321
0.993308
0.998338
0.998338
0.933382
0.71949
0.806802
0.904738
0.918413
0.748803
0.958837
0.999972
1
0.964507
0.840289
0.972835
0.994126
0.994631
0.972554
0.881641
0.77037
0.84554
0.946824
0.880091
0.475277
0.557063
0.811662
0.911722
0.823949
0.945805
0.808171
0.871716
0.987352
0.84534
0.966329
0.978253
0.741396
0.324414
0.149947
0.102884
0.155591
0.279159
0.398118
0.0787194
0.118892
0.641793
0.803439
0.894544
0.837641
0.293805
0.294415
1
0.980994
0.987892
0.698451
0.137835
0.0451339
0.0442326
0.0439803
0.0615604
0.0438486
0.047112
0.050797
0.0506001
0.149153
0.802965
0.914876
0.59972
0.258467
0.373055
0.883067
0.989079
0.988003
0.461026
0.0559158
0.0443032
0.0428578
0.0429136
0.0428596
0.0430362
0.0438486
0.047112
0.050797
0.209202
0.871503
0.914876
0.451798
0.175565
0.397962
0.799554
0.990045
0.988872
0.411148
0.0673002
0.0592152
0.0801694
0.0428919
0.0495792
0.189965
0.303632
0.303991
0.376154
0.845745
0.910467
0.911163
0.446668
0.00888183
6.71491e-19
0.748594
0.823531
0.981157
0.99999
1
0.999994
0.999913
1
1
1
1
1
1
1
0.999999
0.999986
0.997841
0.922333
0.843905
0.877984
0.922854
0.943455
0.956905
0.68986
0.794263
0.973147
0.999925
0.999991
0.999991
0.999991
0.988138
1
0.991747
0.738032
0.627531
0.601548
0.672414
0.858148
0.855078
0.68678
0.6869
0.783281
0.969449
0.972784
0.975332
0.976287
0.997981
0.833561
0.977189
0.999731
0.999925
0.999987
0.99999
0.803811
0.397538
0.21633
0.177699
0.159743
0.159143
0.165463
0.201082
0.367867
0.81713
0.954195
0.961219
0.967953
0.948139
0.926087
0.922041
0.722515
0.117983
0.440526
0.935433
0.82013
0.541673
0.444737
0.35228
0.286678
0.189719
0.157803
0.157685
0.157685
0.159143
0.164093
0.300312
0.862029
0.950818
0.954453
0.783884
0.347207
0.280157
0.665308
0.632773
0.00586695
0.180954
0.63128
0.316677
0.00996327
0.00527637
0.022929
0.173393
0.252864
0.254335
0.249961
0.20699
0.164203
0.15843
0.151415
0.367547
0.629953
0.895776
0.532179
0.0687561
0.0654659
0.0984824
0.511986
0.00582248
0.0205129
0.0720113
0.0116474
0.00395889
0.00278908
0.00244284
0.00230802
0.0271663
0.180232
0.245092
0.247143
0.242991
0.174233
0.014242
0.00362878
0.0204102
0.41273
0.582676
0.129149
0.0599392
0.0529744
0.569724
0.00582216
0.0058582
0.00848631
0.00395991
0.00279073
0.00244551
0.00226762
0.00226762
0.00226762
0.0128534
0.114065
0.154325
0.0728575
0.00939313
0.000254134
0.000776244
0.00349534
0.115007
0.454584
0.448381
0.15454
0.0515363
0.513681
0.0058582
0.00591578
0.00590003
0.00392938
0.00348341
0.00384687
0.00340136
0.00226762
0.00451671
0.0124502
0.00302293
0.00197665
0.000157698
0.000102321
7.76966e-05
8.43608e-05
0.000570093
0.00793719
0.23945
0.439234
0.447386
0.268284
0.447846
0.00591578
0.00597417
0.0248717
0.0156106
0.0324849
0.0329604
0.0329604
0.0249538
0.00610188
0.00806245
0.000512075
0.000117351
0.000105642
9.96342e-05
5.91076e-05
1.38343e-06
9.98503e-06
7.43543e-05
0.00368536
0.281372
0.455537
0.455537
0.392503
0.00597417
0.0219974
0.0293337
0.0295226
0.0302938
0.0132113
0.00937826
0.00541934
0.00225449
0.000987372
9.67962e-05
7.29196e-05
0.000289374
0.000294244
1.15886e-05
4.76678e-08
2.02721e-07
2.38896e-06
1.48909e-05
4.43685e-05
0.0114183
0.26626
0.184735
0.0213224
0.0238975
0.0294148
0.0109003
0.00200794
0.000229523
0.000388286
0.000239464
4.96577e-05
4.33024e-05
1.3273e-05
4.20867e-06
5.38621e-05
9.07652e-06
9.31215e-09
1.12554e-08
5.17616e-08
3.32552e-07
1.04654e-05
2.3759e-05
4.59128e-05
6.54374e-05
3.24331e-05
0.0340879
0.00646558
0.0045286
0.000241044
7.24486e-05
0.000130616
0.000478792
0.000283158
8.24354e-06
4.89662e-06
1.1318e-06
5.10078e-08
4.49862e-09
4.33375e-09
3.78801e-09
2.95275e-09
6.15968e-09
9.06219e-08
0.000100687
0.000323442
0.000328454
0.000181018
0
0.0236073
0.000615573
0.000221454
6.03477e-05
1.57754e-05
4.79554e-05
0.000157517
6.86464e-05
1.2652e-06
3.91437e-07
4.54592e-08
4.31417e-09
4.34484e-09
3.82576e-09
3.50354e-09
1.79428e-09
8.43094e-10
4.41685e-10
1.89158e-08
6.06845e-06
0.000335868
0.000423635
0
0.0122178
0.000222982
5.60121e-05
1.39352e-05
3.73027e-06
1.79374e-06
1.30406e-06
4.90705e-07
9.95405e-08
3.51659e-08
1.00791e-08
7.81086e-09
4.73345e-09
3.6246e-09
1.79666e-09
1.06737e-09
7.71746e-10
6.55572e-11
2.29055e-11
1.12421e-10
1.16315e-09
0.000148636
0.317875
0.0288996
7.25756e-05
1.54935e-05
3.00539e-06
9.01749e-07
4.36952e-07
2.59163e-07
1.03953e-07
4.66314e-08
2.93756e-08
1.97e-08
1.03429e-08
8.81782e-09
1.04587e-08
4.19527e-09
6.15192e-10
9.62041e-11
8.22808e-11
6.56352e-11
4.30364e-11
3.95666e-11
5.91763e-11
0.920579
0.0596599
2.4926e-05
4.51784e-06
9.05105e-07
3.32638e-07
1.85768e-07
1.09383e-07
7.01902e-08
6.74153e-08
4.69879e-08
9.7511e-08
1.4039e-07
7.35257e-08
8.91538e-08
3.04249e-08
4.07156e-09
1.02275e-10
6.87494e-11
6.72288e-11
4.33205e-11
3.62221e-11
3.95716e-11
0.898981
0.0799123
9.21539e-06
1.50444e-06
3.4135e-07
1.89082e-07
1.41052e-07
1.26452e-07
9.83721e-08
7.02925e-08
7.69576e-08
1.06678e-06
2.19376e-06
3.01259e-06
2.50847e-06
2.37971e-07
2.63703e-08
5.8921e-10
8.53987e-11
7.36938e-11
6.89999e-11
3.12557e-11
2.572e-11
0.419195
0.0759657
3.63536e-06
6.28194e-07
2.44563e-07
1.94851e-07
1.72905e-07
1.41072e-07
1.26449e-07
1.44101e-07
3.53427e-07
1.25753e-06
2.28826e-05
6.94598e-05
5.7738e-05
1.44999e-06
1.53981e-07
3.29775e-09
1.77652e-10
5.06469e-11
4.2957e-11
1.96846e-11
1.25822e-11
0.0123533
0.0740218
1.66766e-06
4.7857e-07
3.97451e-07
2.46771e-07
1.94409e-07
1.72376e-07
3.82492e-05
0.000164381
8.96924e-05
1.96932e-05
3.90001e-05
9.18808e-05
9.38535e-05
3.30237e-05
7.88275e-07
9.65432e-08
9.21174e-10
2.59069e-10
1.08852e-10
1.97405e-11
1.19997e-11
0.000172598
0.0692852
9.60957e-07
5.26143e-07
5.06813e-07
4.22492e-07
5.87428e-07
1.78148e-05
0.000197483
0.000205872
0.000196566
0.000147665
5.40087e-05
8.3361e-05
9.38535e-05
7.59403e-05
6.23309e-05
5.98953e-06
3.82633e-08
5.01069e-09
2.8718e-10
4.10873e-11
1.21235e-11
0.00062473
0.0571319
6.46119e-07
4.68106e-07
4.20954e-07
4.65364e-07
1.40701e-06
4.06542e-05
0.000207917
0.00020971
0.000189526
7.5861e-05
5.89466e-05
6.42228e-05
8.68976e-05
0.000104551
0.000106628
1.53121e-05
1.14565e-07
5.12057e-09
3.17622e-10
5.10818e-11
1.37704e-11
-1.53986e-08
0.0196658
4.47127e-07
4.20913e-07
3.96717e-07
4.63225e-07
9.28027e-06
0.000204201
0.00020971
0.000210215
0.00021026
0.000182384
6.54033e-05
6.69551e-05
6.94667e-05
0.000155181
8.52339e-05
9.02604e-06
3.93338e-08
1.9511e-09
1.00666e-10
2.76093e-11
1.4183e-11
-1.3699e-08
-9.41463e-06
4.2263e-07
3.96718e-07
3.88887e-07
4.58823e-07
4.32688e-06
0.000208978
0.000210215
0.000210235
0.000210211
0.000167408
7.27754e-05
6.94667e-05
7.4662e-05
0.000197899
5.12057e-05
6.34223e-07
5.7603e-08
3.97851e-09
2.54713e-10
2.39843e-11
1.13131e-11
-3.83202e-13
-8.10732e-07
3.9883e-07
3.88887e-07
3.87815e-07
3.88864e-07
4.48387e-07
0.000101472
0.000186708
0.000150337
0.000112006
0.000104147
8.78769e-05
7.64121e-05
0.00018129
0.000206343
6.53308e-05
9.08096e-07
9.02013e-08
6.8585e-09
4.23703e-10
3.48959e-11
6.91421e-12
0.329166
0.000631582
3.3597e-07
3.77209e-07
3.88633e-07
3.87816e-07
4.12987e-07
8.21075e-07
1.65349e-05
3.63674e-05
0.000121542
0.000340254
0.00034772
0.00014501
0.000233803
0.0002143
5.89803e-05
1.00797e-06
1.00098e-07
7.67228e-09
4.84622e-10
3.87121e-11
4.14522e-12
0.575751
0.00663043
1.61306e-05
6.78072e-07
3.88621e-07
4.1299e-07
4.65133e-07
6.28584e-07
4.58433e-05
0.000649495
0.000670919
0.000669834
0.000578679
0.000318792
0.000273004
0.000179358
3.41336e-05
6.71715e-07
6.31186e-08
4.75084e-09
3.16169e-10
2.76272e-11
2.67507e-12
0.24763
0.0337391
0.000159278
1.5788e-05
1.23676e-06
4.65136e-07
6.28583e-07
0.000250505
0.00117201
0.00116347
0.000678096
6.30919e-05
2.57889e-05
0.000116944
0.000218037
0.000137768
1.2551e-05
9.03156e-08
6.59663e-09
6.57243e-10
8.07837e-11
7.50893e-12
4.38292e-13
-1.79352e-06
0.0532258
0.0190967
0.000399914
1.63449e-05
1.88009e-06
0.000597853
0.00236214
0.00143904
0.000125993
3.21182e-05
1.16083e-05
1.04325e-05
0.000118678
0.000101653
6.64573e-06
4.17942e-08
3.30007e-09
2.78347e-10
2.26731e-11
4.62614e-12
3.0763e-13
1.73884e-14
-2.46217e-07
0.0192771
0.0206603
0.0197803
0.010489
0.00769989
0.00719994
0.00204755
0.000168104
4.68418e-05
1.15727e-05
2.70404e-06
6.34308e-06
4.57993e-06
2.69343e-06
3.01529e-07
7.21865e-10
4.70096e-11
4.58055e-12
1.14175e-12
2.23428e-13
1.57839e-14
9.07405e-16
-3.40384e-08
0.000870331
0.0113681
0.0136817
0.0116459
0.00994071
0.00575809
0.000468961
6.57588e-05
1.43633e-05
2.65131e-06
3.81053e-07
4.22785e-08
4.14146e-09
5.61056e-10
3.3251e-09
1.41303e-10
4.58021e-12
1.23829e-12
4.86527e-13
8.69246e-14
4.81938e-15
9.44081e-17
-6.60601e-09
0.000229557
0.000764345
0.0011027
0.00361832
0.00284022
0.000854215
0.000162281
1.34123e-05
2.51144e-06
4.09025e-07
5.15507e-08
5.54709e-09
5.61056e-10
7.9529e-11
3.84369e-11
1.95567e-11
1.02947e-11
2.70826e-12
2.18789e-13
9.48589e-15
2.79772e-16
8.46689e-18
-2.64486e-09
5.08445e-05
0.000150224
0.000191832
0.000162956
9.47545e-05
3.78876e-05
1.91827e-05
3.4676e-06
4.19508e-07
5.9535e-08
7.46549e-09
8.67821e-10
1.33603e-10
6.38797e-11
6.39177e-11
3.421e-11
6.36299e-12
3.92519e-13
1.50139e-14
5.97575e-16
1.85403e-17
5.80361e-19
-1.12531e-09
9.19702e-06
3.65386e-05
4.449e-05
3.51303e-05
1.8904e-05
7.2154e-06
2.16825e-06
5.24705e-07
7.28497e-08
9.6764e-09
1.18501e-09
1.6001e-10
4.85514e-11
3.81832e-11
2.05854e-11
4.89655e-12
4.1525e-13
1.8535e-14
8.21807e-16
3.40078e-17
1.00244e-18
2.88034e-20
-2.52354e-10
1.63061e-06
8.06207e-06
9.1777e-06
6.72725e-06
3.39418e-06
1.32664e-06
3.69668e-07
8.05609e-08
1.2952e-08
1.5751e-09
2.23207e-10
4.7121e-11
2.58874e-11
1.24399e-11
3.04882e-12
3.11882e-13
1.76806e-14
8.96074e-16
4.22116e-17
1.6382e-18
4.52852e-20
2.23486e-21
-4.09231e-11
2.75569e-07
1.61737e-06
1.70582e-06
1.16394e-06
5.55435e-07
1.97825e-07
5.43312e-08
1.15135e-08
2.05457e-09
3.02315e-10
4.77992e-11
1.6305e-11
5.97728e-12
1.53577e-12
2.02175e-13
1.48557e-14
8.61196e-16
4.40206e-17
1.91249e-18
6.79626e-20
1.63336e-21
2.67136e-22
-5.11195e-12
4.42881e-08
2.96487e-07
2.89048e-07
1.84551e-07
8.38162e-08
2.80348e-08
7.37877e-09
1.6149e-09
3.15975e-10
5.62977e-11
1.4163e-11
3.04274e-12
6.27386e-13
9.8328e-14
1.00009e-14
7.23474e-16
4.13048e-17
1.93547e-18
7.57334e-20
2.43299e-21
4.14237e-23
3.5829e-23
-2.9286e-13
6.77635e-09
4.99658e-08
4.51539e-08
2.71576e-08
1.18021e-08
3.81847e-09
1.03398e-09
2.44206e-10
5.79856e-11
1.38906e-11
2.17044e-12
3.00619e-13
4.57489e-14
5.82014e-15
5.35878e-16
3.56962e-17
1.85195e-18
7.78376e-20
2.68883e-21
7.16513e-23
5.45314e-25
4.37911e-24
6.80714e-11
1.06285e-09
7.85077e-09
6.59349e-09
3.76611e-09
1.57625e-09
5.46687e-10
1.56681e-10
4.79507e-11
1.27154e-11
1.95154e-12
2.09238e-13
2.43718e-14
3.0994e-15
3.46115e-16
2.82964e-17
1.67528e-18
7.68057e-20
2.81927e-21
7.65428e-23
3.16687e-25
6.97074e-41
3.69167e-25
6.23991e-11
2.30669e-10
1.1689e-09
9.15354e-10
5.26914e-10
2.4229e-10
8.30164e-11
3.3131e-11
9.74334e-12
1.64555e-12
1.86475e-13
1.88948e-14
1.90761e-15
2.04124e-16
1.94811e-17
1.39547e-18
7.32239e-20
2.89771e-21
8.12352e-23
8.24805e-26
-8.89575e-42
-8.93228e-25
-4.36423e-26
1.79737e-11
4.67353e-11
2.02006e-10
1.53983e-10
8.49657e-11
3.77316e-11
1.92702e-11
6.13398e-12
1.16113e-12
1.52917e-13
1.6742e-14
1.57354e-15
1.4017e-16
1.25917e-17
1.01182e-18
6.27483e-20
2.85932e-21
8.8894e-23
2.57197e-25
-4.59844e-25
-9.53077e-25
-3.0197e-25
-5.63368e-27
2.25863e-12
3.19012e-11
3.58859e-11
2.3438e-11
1.64798e-11
8.5932e-12
3.12129e-12
6.84225e-13
1.07676e-13
1.359e-14
1.3887e-15
1.19794e-16
9.47234e-18
7.24151e-19
4.91933e-20
2.61696e-21
9.80647e-23
6.75811e-25
-3.79048e-25
-9.1608e-25
-2.99418e-25
-5.96011e-26
5.15529e-28
1.49455e-13
7.06574e-12
1.73261e-11
1.01458e-11
3.63884e-12
1.10692e-12
2.28179e-13
3.69564e-14
5.54914e-15
6.62888e-16
6.31296e-17
4.98441e-18
3.48143e-19
2.26466e-20
1.29693e-21
5.71573e-23
8.40291e-25
-2.59222e-25
-7.60026e-25
-2.3695e-25
-4.24105e-26
-4.68147e-27
2.22657e-28
0.982324
0.999569
1
1
0.976424
0.985704
0.999969
0.999985
0.905042
0.98769
0.989309
0.998713
0.901217
0.70662
0.218252
0.140498
0.23938
0.157986
0.143292
0.143292
0.203766
0.220166
0.220052
0.220227
0.0515363
0.0492916
0.047053
0.150604
0.0522778
0.0469625
0.0460067
0.0460067
0.455537
0.319263
0.0577439
0.122146
0.330561
0.309878
0.297482
0.288725
4.8516e-05
3.61875e-05
3.03582e-05
1.86047e-05
0.000134363
8.18834e-05
3.09928e-05
5.94821e-06
0.000423635
0.000423635
0.000372603
0.00020668
0.000343926
0.000411598
0.000388114
0.00036193
6.01262e-10
4.48617e-09
0.00010305
0.000110524
7.06422e-11
6.0117e-10
4.48622e-09
1.98049e-08
1.04955e-10
3.15953e-08
1.76286e-07
1.63698e-07
2.97866e-11
4.80542e-08
2.18854e-07
2.18854e-07
9.85281e-12
8.2711e-12
9.6841e-09
1.09789e-07
1.02613e-11
9.09784e-12
8.91947e-12
8.78681e-12
1.11032e-11
1.19573e-11
9.1029e-12
8.42552e-12
8.48667e-12
1.11097e-11
1.12507e-11
1.05279e-11
4.92994e-12
5.66445e-12
8.54634e-12
8.39673e-12
2.40281e-12
2.26549e-12
2.4734e-12
2.7373e-12
8.87555e-13
7.21941e-13
6.17794e-13
5.53468e-13
2.8697e-13
1.75409e-13
1.16674e-13
9.63691e-14
2.55329e-14
2.39411e-14
1.3429e-14
9.82605e-15
9.90977e-16
1.42484e-15
8.00473e-16
4.83856e-16
5.26901e-17
7.81831e-17
4.01935e-17
1.9361e-17
5.2211e-18
4.93985e-18
2.22657e-18
1.87311e-18
5.74896e-19
3.73799e-19
3.0701e-19
4.16934e-19
2.99522e-20
4.92855e-20
9.50943e-20
1.7736e-19
3.54556e-21
1.47428e-20
3.40212e-20
6.88865e-20
1.61786e-21
4.39209e-21
9.78829e-21
1.84234e-20
4.92565e-22
9.21774e-22
2.00995e-21
3.52886e-21
7.82784e-23
1.58744e-22
3.44576e-22
5.6841e-22
1.38544e-23
3.07622e-23
6.44796e-23
1.00892e-22
3.23725e-24
7.27563e-24
1.35712e-23
2.03297e-23
8.33647e-25
1.58132e-24
2.5542e-24
3.90821e-24
1.67252e-25
2.37873e-25
3.69451e-25
6.18618e-25
1.99058e-26
2.12526e-26
3.81523e-26
6.20906e-26
5.05594e-28
4.72759e-28
8.64861e-28
1.15828e-27
0.997392
0.997107
0.835319
0.243075
0.0705323
0.0782773
0.193098
0.283604
0.549297
0.549297
0.547249
0.545642
0.543512
0.543271
0.51167
0.402319
0.203826
0.0154738
2.43899e-19
0.99996
0.980018
0.496953
0.082663
0.0761621
0.108108
0.293038
0.523603
0.547118
0.289059
0.105772
0.108983
0.115941
0.152896
0.151845
0.0808231
0.0218517
0.0118078
0.00205137
0.921727
0.358053
0.102877
0.0921143
0.16494
0.301508
0.301563
0.300854
0.256488
0.158377
0.131812
0.136919
0.12113
0.16744
0.149062
0.0218303
0.00189492
0.00243123
0.00219905
0.13783
0.125912
0.117245
0.17676
0.28205
0.286596
0.205123
0.206636
0.222181
0.299854
0.298914
0.298914
0.292886
0.164793
0.0435735
0.00249032
0.00249236
0.000220732
-7.46681e-20
0.140498
0.155626
0.212293
0.212281
0.166244
0.0839997
0.0831144
0.235912
0.300441
0.300794
0.299854
0.187886
0.0124507
0.0015647
0.00185325
0.00718409
0.000491301
0.000209323
1.91434e-20
0.216203
0.210734
0.209287
0.0988404
0.0838217
0.083018
0.152201
0.292818
0.300604
0.244289
0.0474805
0.000171364
0.00038109
0.00152109
0.00370814
0.00203327
0.000319374
0.000248703
0.000396857
0.191848
0.0873245
0.0724061
0.0720956
0.113515
0.171395
0.274081
0.275995
0.134929
2.33482e-05
7.12134e-05
0.000100501
0.000649253
0.00163001
0.00106511
7.96991e-05
8.34123e-05
5.68664e-05
8.49052e-05
0.047734
0.0504894
0.0756103
0.172965
0.202967
0.202967
0.150816
0.0141864
3.83311e-07
2.5738e-06
0.000142321
0.00141851
0.00169235
0.000709985
8.59794e-05
7.01615e-05
5.71124e-05
4.8694e-06
-2.97729e-23
0.151403
0.0882579
0.166885
0.168416
0.14162
0.086236
3.65011e-08
8.01542e-08
1.20698e-07
1.9445e-07
1.85617e-05
8.76709e-05
0.0019023
0.0101651
0.0103557
0.0104588
0.0109743
0.00241509
3.268e-05
0.274856
0.150375
0.0823487
0.0418188
9.02278e-09
8.93462e-09
1.52605e-08
8.23022e-08
1.05098e-07
1.24988e-07
1.30437e-07
1.08424e-06
3.10172e-05
7.81636e-05
1.12465e-05
0.00885063
0.0146865
0.0145877
0.00285906
5.27822e-06
2.29857e-08
1.12221e-08
9.5416e-09
5.87317e-09
1.91939e-08
3.61259e-07
7.81886e-07
7.2212e-07
8.3163e-08
4.39391e-08
2.1258e-06
8.66097e-06
1.17333e-05
1.12552e-05
1.12552e-05
0.00429057
0.0146865
0.0037717
8.84138e-08
6.26876e-08
2.2924e-08
6.94022e-09
9.49989e-10
1.59298e-07
7.81886e-07
7.81886e-07
7.77999e-07
6.54262e-08
3.84171e-10
1.14272e-06
3.40785e-06
6.02326e-06
1.2158e-05
1.1438e-05
1.18886e-05
0.0125708
0
8.87262e-05
8.84138e-08
1.88232e-06
2.80545e-07
1.74468e-10
1.81536e-08
1.89295e-07
4.36046e-07
6.79711e-08
2.91926e-10
2.94438e-10
3.84171e-10
2.91623e-09
2.41691e-06
2.71731e-05
6.01013e-05
2.09954e-05
0.00324714
0.0123346
0.000285721
1.77902e-07
7.6062e-06
1.52197e-06
1.57045e-10
1.57064e-10
1.57059e-10
1.57064e-10
1.57628e-10
2.87709e-10
3.07946e-10
3.12322e-10
4.1833e-10
1.96749e-08
1.27129e-06
0.000417591
0.00237189
0.0114927
0.0234048
2.34932e-07
5.07932e-06
7.75465e-06
2.02978e-06
1.57209e-10
1.57003e-10
1.57064e-10
1.57628e-10
1.9877e-10
5.73292e-10
7.21929e-10
7.39071e-10
7.41793e-10
7.55795e-10
1.64501e-06
0.000246093
0.00616031
0.00932521
0.00444419
2.26108e-07
9.96836e-06
4.63963e-06
4.42374e-07
2.03473e-10
1.57209e-10
1.67123e-10
2.71682e-10
3.77402e-10
4.54565e-10
5.33895e-10
9.4897e-10
8.05253e-10
8.54317e-10
6.73248e-08
4.82801e-05
0.000282743
0.000630272
8.27663e-20
1.51659e-07
1.13782e-06
1.77282e-10
1.35422e-09
3.77738e-08
1.89856e-10
1.68608e-10
3.15657e-10
4.54556e-10
5.32197e-10
6.62011e-10
1.12943e-09
1.3741e-09
2.52659e-09
4.94216e-09
5.84083e-06
6.15669e-05
4.06337e-05
0
8.12375e-08
1.3607e-10
1.38955e-10
1.77622e-09
3.78418e-08
5.73001e-10
1.71609e-10
3.18052e-10
3.9089e-10
9.57357e-10
1.13806e-09
1.19375e-09
3.71159e-09
2.69043e-09
3.10852e-09
1.16139e-06
0.000103449
0.000163087
0
1.01296e-08
1.34173e-10
1.42904e-10
1.90113e-09
8.92591e-09
6.79949e-10
1.8198e-10
4.83729e-10
9.26209e-10
6.15962e-09
6.53159e-09
1.5083e-09
5.25454e-09
2.77258e-09
2.71313e-09
1.44106e-06
0.00011287
0.00016383
4.02348e-05
8.55818e-12
1.37565e-10
2.05073e-10
7.57148e-11
1.3926e-11
3.65428e-10
1.93704e-10
6.33446e-10
5.62605e-08
1.02664e-06
1.57195e-06
2.35532e-09
4.72608e-09
2.76813e-09
3.05124e-09
2.61723e-06
0.000123284
0.00016383
2.57027e-05
8.00063e-12
7.51975e-11
1.64023e-10
8.82029e-11
1.31667e-11
1.40118e-11
3.21143e-11
5.82054e-10
8.091e-07
2.96655e-06
2.96659e-06
1.00508e-07
4.05514e-09
3.05697e-09
7.33644e-09
4.56395e-06
0.000125347
0.000126088
1.00157e-26
7.80344e-12
1.58179e-11
2.81955e-11
1.6549e-11
1.1874e-11
1.31625e-11
4.08774e-11
7.62066e-09
1.81244e-06
2.96698e-06
2.96603e-06
7.95499e-07
4.75372e-09
1.95633e-08
3.54461e-07
3.69926e-05
9.54447e-05
1.00777e-09
0
4.43407e-12
1.05951e-12
5.22286e-13
1.46509e-12
6.30008e-12
7.70275e-12
2.9172e-11
1.55822e-08
1.94207e-06
2.96603e-06
2.95702e-06
1.45847e-06
1.0498e-08
5.27451e-08
2.14486e-05
4.83193e-05
2.7559e-05
1.00198e-09
0
1.45721e-12
4.41658e-13
2.58967e-13
9.21233e-13
6.72768e-12
1.90946e-11
2.39217e-11
2.96637e-10
7.21687e-07
2.95702e-06
2.91302e-06
2.28904e-06
4.23596e-08
3.87528e-07
5.85473e-07
2.89857e-07
6.73109e-08
1.36728e-08
-1.6148e-17
3.10522e-13
5.85868e-14
6.11202e-14
6.68082e-13
9.0869e-12
2.95215e-11
2.97114e-11
1.06664e-10
5.17212e-08
9.01958e-07
2.8696e-06
2.72105e-06
4.61976e-08
4.47663e-08
4.51762e-08
4.48492e-08
7.46835e-07
1.57193e-06
-2.25209e-16
4.92371e-14
1.24684e-14
3.01641e-14
6.63649e-13
1.11174e-11
3.11861e-11
7.3771e-11
8.28019e-09
1.51789e-08
1.13523e-12
6.1397e-07
1.63697e-06
8.34845e-07
1.27731e-07
4.47646e-08
5.08899e-08
1.94938e-06
5.30622e-05
0.000102047
4.62925e-15
2.50735e-15
2.01592e-14
7.1511e-13
1.14701e-11
3.17789e-11
4.54126e-11
8.58241e-10
1.50515e-13
7.13802e-14
1.13523e-12
1.13647e-10
1.06259e-06
1.05986e-06
3.18452e-07
5.57129e-08
9.65341e-09
8.27255e-05
0.000606597
2.59878e-16
7.74071e-16
1.62122e-14
6.62693e-13
9.65472e-12
2.93132e-11
3.09098e-11
5.77645e-13
5.75485e-13
6.46293e-14
2.0138e-12
1.21074e-11
3.20764e-07
1.06379e-06
1.02331e-06
8.82358e-08
9.55526e-09
2.82106e-05
0.000337653
2.3478e-17
4.21118e-16
1.19384e-14
4.22086e-13
5.02956e-12
2.01536e-11
2.58523e-11
1.83698e-11
3.85165e-12
3.59093e-14
2.76898e-10
5.32884e-10
5.37582e-10
1.73018e-07
2.10417e-07
1.02264e-07
9.55539e-09
6.15805e-07
0
5.01349e-18
2.53102e-16
6.5991e-15
1.69243e-13
1.80441e-12
8.50348e-12
1.19376e-11
1.00209e-11
3.82883e-12
7.2868e-15
4.39468e-10
1.66154e-09
1.355e-09
3.70826e-10
3.66612e-10
3.57615e-10
6.05507e-09
2.73212e-12
-6.25982e-28
2.20369e-18
1.22082e-16
2.90198e-15
5.30099e-14
5.30349e-13
2.38186e-12
3.09654e-12
2.65977e-12
1.20796e-12
1.29588e-15
4.35888e-10
1.69558e-09
1.77828e-09
9.83992e-10
3.57615e-10
3.56192e-10
1.69036e-09
6.26391e-10
2.88602e-11
8.74371e-19
5.02309e-17
1.16131e-15
1.61396e-14
1.28662e-13
4.9924e-13
6.45101e-13
5.52899e-13
2.39375e-13
2.40003e-16
2.1443e-10
7.29303e-10
1.47179e-09
1.4502e-09
5.43399e-10
3.57699e-10
4.96087e-10
4.1727e-10
3.76362e-11
2.97134e-19
1.60463e-17
3.50536e-16
3.66337e-15
2.22007e-14
8.30253e-14
1.07873e-13
9.12583e-14
3.81511e-14
9.20026e-17
4.3037e-11
1.32136e-10
3.64123e-10
5.95093e-10
3.9032e-10
3.12435e-10
7.60329e-11
4.90214e-11
5.64735e-12
8.21509e-20
4.10105e-18
6.56242e-17
4.75138e-16
2.48432e-15
1.00611e-14
1.43027e-14
1.20259e-14
5.21606e-15
7.70224e-17
3.79019e-12
1.1777e-11
2.98974e-11
8.73904e-11
5.36266e-11
9.33709e-11
2.62702e-11
1.44031e-11
1.8134e-12
1.9581e-20
8.21283e-19
1.24524e-17
7.29405e-17
3.12887e-16
1.13286e-15
1.54351e-15
1.20848e-15
4.89576e-16
3.30948e-17
9.36516e-14
2.54608e-13
8.03235e-13
5.55192e-12
3.88999e-12
1.68775e-11
1.61618e-11
1.04059e-11
1.16283e-12
5.06271e-21
2.02381e-19
4.57505e-18
2.88584e-17
8.58234e-17
1.58269e-16
1.36772e-16
8.06559e-17
1.75026e-17
-2.85065e-18
-1.40569e-17
-1.39689e-17
-7.80426e-18
1.68734e-13
1.26323e-13
2.40125e-12
1.77663e-12
4.14617e-12
5.40233e-13
1.94572e-21
7.46624e-20
2.91043e-18
1.49342e-17
2.29334e-17
1.50939e-17
6.39168e-18
4.83195e-19
-3.2574e-18
-9.04794e-18
-1.01599e-17
-7.803e-18
-4.69029e-18
-2.374e-18
-1.05745e-18
2.08252e-13
6.9755e-14
1.20173e-12
1.41779e-13
1.01837e-21
2.89788e-20
1.51244e-18
4.2296e-18
3.03859e-18
8.79615e-19
-2.2032e-19
-1.13879e-18
-3.91752e-18
-5.68126e-18
-4.98376e-18
-3.21967e-18
-1.68449e-18
-7.60134e-19
-3.04149e-19
6.05868e-15
1.84643e-15
2.77308e-13
2.1314e-14
4.57731e-22
7.80324e-21
3.97932e-19
3.63617e-19
1.80143e-19
-1.76792e-19
-6.17524e-19
-9.17718e-19
-2.14004e-18
-2.46493e-18
-1.76261e-18
-9.48712e-19
-4.23322e-19
-1.66412e-19
-5.84555e-20
-1.47033e-20
-2.3178e-21
3.76152e-14
2.32149e-15
1.26776e-22
1.239e-21
1.65314e-20
1.48636e-20
4.77435e-21
-2.37895e-19
-3.32338e-19
-3.9038e-19
-8.10139e-19
-7.37031e-19
-4.12587e-19
-1.76516e-19
-6.40653e-20
-2.10008e-20
-6.23496e-21
-1.36974e-21
-1.90413e-22
2.88815e-15
1.42178e-16
1.81418e-23
9.53249e-23
3.72286e-22
2.31587e-22
4.22143e-23
-9.3009e-20
-9.08512e-20
-9.55394e-20
-1.93693e-19
-1.30925e-19
-5.25181e-20
-1.60213e-20
-4.15452e-21
-9.81428e-22
-2.11282e-22
-3.5275e-23
-3.81542e-24
9.96053e-17
3.52317e-18
3.83231e-25
5.10043e-25
2.73982e-25
8.82634e-26
6.62939e-27
-1.7404e-20
-9.5229e-21
-9.43949e-21
-2.21158e-20
-9.86218e-21
-2.36313e-21
-4.072e-22
-5.6189e-23
-6.62172e-24
-6.7578e-25
-5.87816e-26
-4.91014e-27
-3.55625e-28
-7.34934e-30
)
;

boundaryField
{
    leftWall
    {
        type            zeroGradient;
    }
    rightWall
    {
        type            zeroGradient;
    }
    lowerWall
    {
        type            zeroGradient;
    }
    atmosphere
    {
        type            inletOutlet;
        inletValue      uniform 0;
        value           nonuniform List<scalar> 
46
(
1.49455e-13
7.06574e-12
1.73261e-11
1.01458e-11
3.63884e-12
1.10692e-12
2.28179e-13
3.69564e-14
5.54914e-15
6.62888e-16
6.31296e-17
4.98441e-18
3.48143e-19
2.26466e-20
1.29693e-21
5.71573e-23
8.40291e-25
-2.59222e-25
0
0
0
0
0
0
0
0
0
0
0
0
0
0
0
0
0
0
0
0
0
0
0
0
0
0
0
0
)
;
    }
    defaultFaces
    {
        type            empty;
    }
}


// ************************************************************************* //
