/*--------------------------------*- C++ -*----------------------------------*\
| =========                 |                                                 |
| \\      /  F ield         | OpenFOAM: The Open Source CFD Toolbox           |
|  \\    /   O peration     | Version:  5.x                                   |
|   \\  /    A nd           | Web:      www.OpenFOAM.org                      |
|    \\/     M anipulation  |                                                 |
\*---------------------------------------------------------------------------*/
FoamFile
{
    version     2.0;
    format      ascii;
    class       volScalarField;
    location    "1";
    object      p;
}
// * * * * * * * * * * * * * * * * * * * * * * * * * * * * * * * * * * * * * //

dimensions      [1 -1 -2 0 0 0 0];

internalField   nonuniform List<scalar> 
2268
(
920.493
917.467
914.981
912.911
911.852
913.944
917.483
920.761
925.635
932.618
942.501
956.433
973.967
992.427
1013.49
1035.87
1061.05
1083.91
1097.07
1095.6
1084.7
1070.34
1056.79
861.836
858.279
855.853
853.091
851.675
854.322
858.4
861.659
866.269
872.909
882.377
896.046
914.61
935.401
956.384
976.307
997.984
1023.16
1038.06
1036.01
1024.08
1008.47
995.075
803.716
801.528
797.608
792.344
789.967
793.818
799.117
802.267
806.027
811.671
820.368
833.823
853.624
877.83
898.969
917.597
940.949
966.461
979.666
976.29
962.576
944.692
930.928
745.817
744.083
739.268
731.18
727.065
732.477
739.881
742.851
745.231
749.274
756.639
769.366
789.295
815.472
840.061
863.034
889.406
913.292
922.964
916.921
900.039
878.517
864.762
687.914
686.321
680.461
670.029
664.158
671.087
680.964
683.517
683.991
685.868
691.26
702.738
722.353
750.243
781.311
812.675
842.576
863.472
868.029
857.134
835.039
809.89
794.873
629.953
628.029
620.96
609.183
602.431
610.508
622.381
624.107
622.2
621.458
624.219
634.068
653.588
684.026
722.545
763.336
797.719
815.531
813.315
796.583
767.515
737.166
723.717
571.982
568.098
560.527
548.801
543.475
550.902
563.349
564.005
559.261
555.444
554.759
562.631
582.23
615.848
662.066
713.149
754.66
769.309
761.344
738.296
698.388
660.57
640.78
514.473
507.89
498.057
488.044
485.223
492.529
500.106
500.814
495.132
489.117
483.811
488.757
508.053
545.19
600.164
663.747
715.913
733.649
718.842
680.6
624.578
577.621
552.258
662.18
636.358
662.346
626.848
535.797
467.816
444.112
445.981
462.429
492.372
510.814
495.988
472.594
459.909
429.282
380.175
371.858
357.092
336.665
606.501
577.781
598.734
557.888
468.082
408.411
385.06
380.245
393.72
426.669
466.105
442.315
412.806
403.076
377.944
335.978
325.467
292.211
276.193
550.766
527.228
526.637
470.49
384.465
341.206
323.251
312.215
320.287
346.533
389.495
371.065
343.217
345.937
331.435
288.631
268.674
213.156
206.504
497.062
478.512
461.337
396.735
317.073
281.502
266.404
254.636
258.163
272.219
300.451
302.356
287.276
295.895
290.67
243.79
208.633
132.514
144.095
447.926
431.184
406.974
336.594
266.647
243.693
233.726
226.595
227.857
232.427
247.37
270.294
265.876
259.41
251.869
204.403
154.517
97.273
106.728
402.975
382.467
355.25
283.902
240.781
233.124
227.191
220.526
220.106
223.612
234.849
263.659
262.667
245.991
227.446
165.857
116.211
70.1315
74.676
364.291
335.031
307.929
251.015
235.488
229.761
224.352
219.193
219.429
222.88
236.849
266.254
262.382
240.635
198.873
125.672
85.1218
37.9084
34.6995
328.692
295.016
269.463
232.007
228.145
223.778
220.628
216.46
217.187
218.941
231.905
265.699
252.449
215.75
163.951
86.6177
50.5458
29.794
26.6184
426.319
402.24
397.425
397.923
404.028
415.176
411.677
399.184
387.986
378.201
365.696
366.222
384.38
427.357
499.341
590.187
671.569
699.746
655.952
581.847
498.125
428.979
387.521
294.359
212.804
226.23
263.309
275.055
250.83
254.819
254.098
247.134
226.187
202.775
199.541
216.984
260.397
346.021
473.816
563.212
575.32
517.419
414.307
310.844
244.666
227.708
182.756
98.865
105.532
147.116
230.326
226.883
141.222
107.221
133.536
143.982
135.42
133.84
146.415
169.345
213.296
292.943
375.327
401.887
343.875
242.053
152.548
109.917
93.7798
93.6666
51.099
64.6707
116.704
144.146
116.48
57.1069
45.2078
69.6692
83.9019
87.7869
97.0558
109.79
114.558
118.414
136.924
178.059
208.596
184.837
130.127
88.1906
70.7591
54.0605
51.8597
44.1995
45.4518
69.4567
42.661
16.9143
5.37034
3.99694
10.9875
20.2908
46.0506
66.0097
78.2066
75.7153
60.6355
41.4649
41.9129
61.3483
78.5512
79.2372
71.1425
62.6366
49.2271
38.6264
36.5481
36.3425
30.7075
13.1764
2.58781
-1.05303
-1.87661
-0.200815
3.69501
8.88819
30.4531
41.7908
36.1101
15.8428
2.72746
2.89625
4.36898
15.8222
45.8775
59.5447
58.1255
54.6799
32.2507
27.5361
29.0976
22.9967
8.66357
0.0687975
-2.74796
-3.47644
-1.35755
2.68997
5.03195
7.26996
9.08147
2.23443
-1.15739
-1.17334
-1.11219
-0.88935
0.0984613
12.1486
39.0687
50.7948
53.7688
27.1523
22.4441
23.8133
19.9058
9.38162
1.63271
-2.59732
-4.32238
-3.1791
0.297593
3.21258
0.45385
-1.45286
-2.18906
-2.10283
-1.97051
-2.00788
-2.04638
-2.08578
1.94125
20.3607
31.9714
33.9464
24.5455
20.7537
21.8559
19.686
15.3691
9.39941
3.04742
-3.96988
-7.63439
-5.4163
-3.17356
-2.3548
-2.26878
-2.38926
-2.33654
-2.31246
-2.39212
-2.46504
-2.5425
-2.15266
10.6448
18.4074
24.8474
34.5789
24.0941
20.9686
18.6379
17.4923
8.14425
0.0582645
-3.09585
-4.73137
-4.52892
-3.75339
-2.99739
-2.69854
-2.67235
-2.63176
-2.62435
-2.66315
-2.70783
-2.71109
-2.6707
-2.94065
-1.68082
14.0216
41.4596
25.7753
11.9712
5.14076
1.75416
-0.130405
-1.63826
-2.83587
-3.59899
-3.66111
-3.3509
-3.0472
-2.98029
-2.95195
-2.91412
-2.87555
-2.86997
-2.87518
-2.8734
-2.87248
-2.82849
-2.67229
-2.65239
21.5219
12.7468
3.678
-0.00960609
-1.23111
-1.8393
-2.45989
-3.11392
-3.50019
-3.51001
-3.34908
-3.23335
-3.20983
-3.16076
-3.11109
-3.07375
-3.05163
-3.03449
-3.01627
-2.99406
-2.93413
-2.86382
-2.79225
15.6543
3.49381
0.353663
-1.05025
-1.91666
-2.51991
-3.05314
-3.48423
-3.72327
-3.73343
-3.62806
-3.52598
-3.45491
-3.38153
-3.31895
-3.26834
-3.22892
-3.19517
-3.16225
-3.12416
-3.07068
-3.0049
-2.91791
15.1293
1.30485
-1.16042
-1.9155
-2.59035
-3.13889
-3.56075
-3.85799
-4.0318
-4.06478
-3.98935
-3.87647
-3.765
-3.65809
-3.56515
-3.4876
-3.42263
-3.36608
-3.31363
-3.26029
-3.20385
-3.14629
-3.07451
13.2077
-2.68996
-2.56709
-2.90347
-3.40135
-3.78284
-4.05407
-4.2686
-4.42959
-4.49406
-4.44957
-4.33273
-4.17728
-4.0132
-3.86479
-3.74146
-3.63941
-3.55332
-3.47705
-3.40575
-3.33746
-3.27085
-3.20322
31.9255
-3.9571
-3.61467
-3.8428
-4.16461
-4.38698
-4.55887
-4.75158
-4.9518
-5.07983
-5.08107
-4.95955
-4.74165
-4.48284
-4.23854
-4.03937
-3.88146
-3.75608
-3.65197
-3.56138
-3.47991
-3.40422
-3.33093
26.4553
-5.15099
-4.50482
-4.68433
-4.85498
-4.98593
-5.13733
-5.38518
-5.69206
-5.92962
-6.00067
-5.87438
-5.57352
-5.15321
-4.73599
-4.40301
-4.15534
-3.9737
-3.8345
-3.7213
-3.62512
-3.53991
-3.46118
-1.95851
-6.21363
-5.27092
-5.47132
-5.53553
-5.65392
-5.85987
-6.24509
-6.72501
-7.12012
-7.29555
-7.18069
-6.76658
-6.11078
-5.40755
-4.8499
-4.46247
-4.20174
-4.01891
-3.88016
-3.76857
-3.67405
-3.59021
-20.1862
-6.36449
-5.85707
-6.21707
-6.2187
-6.40381
-6.73038
-7.32547
-8.05072
-8.66237
-8.91733
-8.76129
-8.21469
-7.28991
-6.22242
-5.3606
-4.78298
-4.42266
-4.19411
-4.03084
-3.90574
-3.80348
-3.71552
-13.3473
-6.9479
-6.40697
-6.86083
-6.84912
-7.15989
-7.64616
-8.48601
-9.49329
-10.3094
-10.5919
-10.3281
-9.57419
-8.38672
-6.99314
-5.84083
-5.0697
-4.60977
-4.34699
-4.16741
-4.03358
-3.92661
-3.8364
-8.56412
-6.05201
-6.79041
-7.32923
-7.35742
-7.79856
-8.4141
-9.43614
-10.6026
-11.4803
-11.7259
-11.3382
-10.4212
-9.07875
-7.51026
-6.16326
-5.2673
-4.74941
-4.47161
-4.28793
-4.15141
-4.0431
-3.95307
-7.22641
-6.75615
-7.31903
-7.67203
-7.72372
-8.23302
-8.87787
-9.9475
-11.0827
-11.9179
-12.096
-11.6529
-10.6588
-9.28048
-7.6927
-6.29352
-5.35165
-4.8408
-4.5705
-4.39418
-4.26095
-4.15448
-4.06539
-7.99711
-7.88925
-7.71839
-7.90822
-7.95611
-8.43876
-8.99345
-9.94816
-10.9495
-11.6096
-11.7331
-11.2918
-10.3541
-9.04089
-7.54873
-6.22352
-5.34654
-4.89398
-4.6536
-4.49125
-4.36478
-4.26175
-4.17478
-8.42921
-8.44932
-7.9105
-8.07326
-8.04875
-8.4315
-8.79619
-9.46364
-10.1892
-10.6689
-10.7679
-10.5051
-9.69414
-8.49136
-7.18053
-6.05493
-5.32302
-4.94342
-4.73486
-4.58589
-4.46585
-4.36621
-4.28149
-2.58019
-7.74325
-7.63981
-8.09492
-8.02456
-8.29045
-8.44314
-8.7969
-9.24276
-9.62839
-9.815
-9.57271
-8.78605
-7.76762
-6.75839
-5.9044
-5.33924
-5.01737
-4.8243
-4.68167
-4.56514
-4.46785
-4.38512
25.5698
-6.46542
-7.18855
-7.85417
-7.99796
-8.15844
-8.176
-8.3046
-8.54915
-8.77091
-8.68121
-8.19452
-7.59679
-7.02328
-6.40258
-5.81145
-5.38275
-5.10127
-4.9148
-4.77439
-4.65999
-4.56493
-4.4845
20.0009
-9.67279
-6.12157
-7.44731
-7.97439
-8.10042
-8.09002
-8.02594
-7.84941
-7.35526
-7.09217
-6.91152
-6.70507
-6.47369
-6.125
-5.72527
-5.40089
-5.16273
-4.99011
-4.85567
-4.74596
-4.65498
-4.57816
-1.50356
-5.31025
-4.34143
-6.76255
-7.45
-7.75019
-7.73505
-7.07391
-6.42178
-6.18387
-6.08185
-6.09525
-6.07401
-5.98116
-5.8214
-5.59924
-5.37786
-5.1904
-5.04095
-4.92006
-4.82003
-4.73623
-4.66503
-3.72727
-3.93714
-4.34615
-5.31593
-6.58437
-6.96522
-6.24824
-5.67404
-5.40794
-5.40597
-5.458
-5.54212
-5.61597
-5.62448
-5.56664
-5.45379
-5.3157
-5.18363
-5.06784
-4.96802
-4.8823
-4.8087
-4.74513
-3.98167
-3.85999
-3.55601
-3.90957
-5.288
-5.40714
-4.91794
-4.78925
-4.81414
-4.92292
-5.05648
-5.20302
-5.32192
-5.38185
-5.3808
-5.33077
-5.25297
-5.16695
-5.08304
-5.00555
-4.93591
-4.8741
-4.81943
-3.85583
-3.77546
-3.64109
-3.72873
-3.79603
-3.88829
-4.14313
-4.32307
-4.50823
-4.67239
-4.84672
-5.01039
-5.13917
-5.21925
-5.24995
-5.23998
-5.20273
-5.15128
-5.09469
-5.03817
-4.98444
-4.93477
-4.88949
-3.88034
-3.84242
-3.69541
-3.60761
-3.55227
-3.67361
-3.94001
-4.1919
-4.39208
-4.57463
-4.74679
-4.90603
-5.03187
-5.11836
-5.16593
-5.18026
-5.16995
-5.14392
-5.10921
-5.07065
-5.03133
-4.99312
-4.95699
-3.95062
-3.91658
-3.82852
-3.7615
-3.7368
-3.83689
-4.01889
-4.21025
-4.38966
-4.56125
-4.72358
-4.86214
-4.97817
-5.06451
-5.12037
-5.14917
-5.15652
-5.14847
-5.13037
-5.10631
-5.07926
-5.05124
-5.0235
-4.05699
-4.02965
-3.97813
-3.94159
-3.9478
-4.02287
-4.14888
-4.29653
-4.44811
-4.59672
-4.73717
-4.86204
-4.96694
-5.04907
-5.1075
-5.14401
-5.1622
-5.16626
-5.16017
-5.14727
-5.13014
-5.1107
-5.09029
-4.20708
-4.18333
-4.15016
-4.13165
-4.14866
-4.21022
-4.30683
-4.42237
-4.54557
-4.66967
-4.78879
-4.8971
-4.99032
-5.06558
-5.12231
-5.16162
-5.18565
-5.19727
-5.19938
-5.19461
-5.18511
-5.17259
-5.15833
-4.38175
-4.36194
-4.34222
-4.33737
-4.35884
-4.40933
-4.48301
-4.57207
-4.66991
-4.77083
-4.86939
-4.96066
-5.0409
-5.10771
-5.16015
-5.19875
-5.22498
-5.24067
-5.24789
-5.24867
-5.24475
-5.23757
-5.22827
-4.57128
-4.55605
-4.54572
-4.54862
-4.57035
-4.6108
-4.66697
-4.73523
-4.81161
-4.89176
-4.97126
-5.04609
-5.11314
-5.17035
-5.21676
-5.25232
-5.27811
-5.29521
-5.30512
-5.30932
-5.3092
-5.30595
-5.30051
-4.77188
-4.76065
-4.75579
-4.7618
-4.78103
-4.81252
-4.8548
-4.90626
-4.96453
-5.02647
-5.08871
-5.14813
-5.20226
-5.24937
-5.28856
-5.31967
-5.34296
-5.35949
-5.37016
-5.37608
-5.3783
-5.37776
-5.37523
-4.97963
-4.97143
-4.96944
-4.97581
-4.99113
-5.01438
-5.045
-5.0824
-5.12515
-5.17107
-5.21772
-5.26281
-5.30444
-5.34126
-5.37247
-5.39783
-5.41748
-5.43201
-5.44197
-5.44825
-5.45165
-5.45286
-5.45244
-5.19174
-5.18567
-5.18492
-5.19011
-5.20096
-5.21668
-5.23722
-5.26247
-5.2916
-5.32318
-5.35558
-5.38722
-5.41676
-5.44322
-5.46598
-5.48484
-5.49989
-5.51143
-5.51947
-5.52508
-5.52876
-5.53093
-5.53194
-5.40574
-5.40105
-5.40072
-5.40414
-5.41057
-5.4195
-5.43117
-5.44568
-5.46259
-5.48109
-5.50023
-5.51908
-5.53683
-5.55288
-5.56684
-5.57857
-5.58823
-5.59646
-5.60113
-5.60522
-5.60851
-5.61106
-5.61306
-5.62253
-5.62076
-5.62032
-5.62107
-5.62286
-5.62543
-5.62888
-5.6333
-5.63859
-5.6445
-5.65072
-5.65693
-5.66285
-5.66826
-5.67301
-5.677
-5.6801
-5.68176
-5.6846
-5.68712
-5.68971
-5.69231
-5.69489
338.093
329.715
323.761
312.308
228.854
228.214
221.833
212.867
86.0882
82.3799
85.231
100.574
51.4554
55.2058
55.7349
55.6072
42.4517
42.4094
45.8456
48.1384
53.7625
53.8663
53.9756
53.9648
52.0873
50.0161
48.0102
46.8819
36.8141
36.9979
35.5125
34.5081
21.2579
21.8059
25.515
24.9982
18.6894
18.1384
17.6287
17.0797
-2.58558
-2.51314
-2.44341
-2.39563
-2.70333
-2.64437
-2.59285
-2.54832
-2.83897
-2.78754
-2.73897
-2.69651
-3.01023
-2.96505
-2.91666
-2.87028
-3.14977
-3.11294
-3.07243
-3.03102
-3.27624
-3.24085
-3.20546
-3.16954
-3.40551
-3.37034
-3.33568
-3.30139
-3.53309
-3.49756
-3.46318
-3.42981
-3.65725
-3.62142
-3.58711
-3.55423
-3.77772
-3.74195
-3.70793
-3.67556
-3.89476
-3.85944
-3.82602
-3.79439
-4.00848
-3.97405
-3.94148
-3.91077
-4.11946
-4.08603
-4.05438
-4.02457
-4.22771
-4.19526
-4.16453
-4.13561
-4.33281
-4.30131
-4.27151
-4.24351
-4.43386
-4.40345
-4.37474
-4.34781
-4.52984
-4.50087
-4.47357
-4.44801
-4.62005
-4.59305
-4.56762
-4.54378
-4.7045
-4.68001
-4.6569
-4.63517
-4.78389
-4.76233
-4.74188
-4.72256
-4.85939
-4.84097
-4.82337
-4.80663
-4.93231
-4.91704
-4.90232
-4.88818
-5.00391
-4.99164
-4.97967
-4.96806
-5.07529
-5.06574
-5.05631
-5.04703
-5.14729
-5.14014
-5.13295
-5.12579
-5.22056
-5.21545
-5.21021
-5.20491
-5.29552
-5.29212
-5.28854
-5.28485
-5.37242
-5.37041
-5.36823
-5.3659
-5.45132
-5.45042
-5.44937
-5.44818
-5.53209
-5.53206
-5.53192
-5.53168
-5.61428
-5.615
-5.61565
-5.61626
-5.69684
-5.6981
-5.69936
-5.70062
282.74
247.06
217.418
206.961
208.759
208.541
207.17
195.984
182.969
207.201
225.65
230.318
198.718
172.628
118.781
45.1161
21.8073
23.6136
25.7854
197.11
158.351
158.84
173.699
181.972
183.807
178.229
146.197
122.504
152.929
178.081
173.792
151.868
122.32
70.2325
10.9475
-4.4599
1.59007
12.4562
118.767
100.863
119.84
147.488
154.349
150.15
142.469
121.914
103.204
121.876
143.699
137.08
112.071
75.311
22.7207
-4.07297
-8.39073
-6.75519
0.784427
60.9686
80.334
104.57
122.127
119.816
110.959
107.852
104.716
87.7868
85.1935
86.2917
68.4957
28.9622
11.7205
-1.18934
-5.34887
-6.78654
-5.44717
-1.78069
53.5489
70.9416
87.0231
89.1036
80.9335
80.4696
83.3099
77.3991
58.3076
42.479
23.8796
12.5274
1.70764
0.139887
-1.72094
-3.49357
-3.80277
-2.55665
-0.90519
54.035
59.6851
63.3579
63.895
64.7653
65.6917
63.3243
47.5931
27.7324
13.1055
2.43854
0.317258
0.178693
-0.235699
-0.641586
-1.18313
-1.48836
-0.708633
-0.0261115
43.802
41.2459
45.464
49.6623
49.1242
44.9036
34.9476
16.093
6.10817
-0.242401
-0.257794
-0.243747
-0.407978
-0.645101
-0.770732
-0.890539
-0.766614
-0.326421
0.00143246
33.3673
32.3283
33.7799
32.9074
27.8627
19.8966
8.31671
-0.144702
-1.16204
-0.807821
-0.758356
-0.797848
-0.774597
-0.694263
-0.873232
-1.01537
-0.772603
-0.432221
-0.17018
23.3909
22.7665
19.8495
13.5777
7.2537
2.61447
-0.830806
-1.15515
-1.21964
-1.07848
-1.11591
-1.26768
-1.29718
-1.10669
-1.46344
-1.87453
-1.22102
-0.493818
-0.205648
16.1585
8.13117
3.11358
-0.335807
-1.64295
-1.88742
-1.47494
-1.44159
-1.40645
-1.3343
-1.35691
-1.48437
-1.66983
-1.78814
-1.86968
-1.94448
-1.65681
-1.00141
-0.258795
-2.32916
-2.2362
-2.2583
-2.31457
-2.02301
-1.96289
-1.77517
-1.6913
-1.65151
-1.62494
-1.63986
-1.69897
-1.79712
-1.91093
-2.10353
-2.37563
-2.36923
-1.20192
-0.164155
-2.4863
-2.44052
-2.39641
-2.3513
-2.20194
-2.1007
-1.99549
-1.92788
-1.89005
-1.88098
-1.91533
-1.98566
-2.06688
-2.15529
-2.35299
-2.56836
-2.61282
-1.82441
-0.658624
-2.64251
-2.59452
-2.53014
-2.45531
-2.35942
-2.27605
-2.20007
-2.14447
-2.11363
-2.11317
-2.15691
-2.24294
-2.34359
-2.44018
-2.69343
-3.03945
-3.12626
-2.99275
-1.61365
-2.80626
-2.7405
-2.67486
-2.59768
-2.52043
-2.44923
-2.38799
-2.34293
-2.31846
-2.3205
-2.35987
-2.43847
-2.5394
-2.63071
-2.89966
-3.50618
-4.13313
-4.85221
-2.74165
-2.96768
-2.88944
-2.82024
-2.74609
-2.67778
-2.61694
-2.56599
-2.52847
-2.50802
-2.50931
-2.53881
-2.59734
-2.67741
-2.7285
-2.90204
-3.33887
-3.88802
-4.12305
-2.91564
-3.10934
-3.03316
-2.96397
-2.89613
-2.83457
-2.78073
-2.73615
-2.70333
-2.68499
-2.68467
-2.70572
-2.74656
-2.79777
-2.83361
-2.91453
-3.08796
-3.20532
-3.11477
-2.88835
-3.24516
-3.1727
-3.10575
-3.04287
-2.98651
-2.93785
-2.898
-2.86851
-2.85127
-2.84904
-2.86353
-2.89394
-2.92704
-2.95254
-2.99152
-3.0521
-3.04075
-2.9296
-2.9291
-3.37578
-3.30635
-3.2425
-3.18406
-3.13233
-3.08814
-3.05219
-3.02532
-3.00888
-3.00553
-3.01672
-3.04008
-3.06263
-3.07722
-3.09161
-3.11772
-3.11428
-3.06644
-3.0465
-3.50153
-3.4347
-3.37421
-3.31998
-3.27246
-3.23212
-3.1994
-3.17466
-3.15904
-3.15557
-3.16603
-3.1871
-3.20487
-3.21172
-3.21219
-3.21912
-3.21029
-3.17763
-3.16661
-3.62402
-3.55957
-3.50219
-3.45155
-3.4075
-3.37024
-3.34009
-3.31706
-3.3022
-3.2991
-3.31027
-3.33154
-3.34793
-3.34884
-3.33787
-3.32659
-3.31383
-3.29397
-3.28453
-3.74421
-3.68206
-3.62731
-3.57939
-3.53794
-3.50295
-3.47471
-3.45294
-3.43843
-3.43488
-3.44565
-3.46697
-3.48304
-3.47961
-3.45939
-3.43562
-3.41901
-3.40679
-3.39756
-3.86211
-3.80214
-3.74959
-3.70374
-3.66419
-3.63083
-3.60394
-3.58303
-3.56812
-3.56211
-3.56889
-3.58649
-3.6006
-3.59493
-3.57022
-3.54144
-3.52516
-3.51515
-3.50778
-3.97743
-3.91953
-3.86892
-3.82482
-3.78679
-3.75468
-3.72878
-3.70847
-3.69254
-3.68216
-3.68096
-3.68907
-3.69696
-3.69086
-3.67057
-3.64929
-3.63549
-3.62301
-3.61886
-4.08995
-4.03405
-3.98531
-3.94287
-3.90627
-3.87528
-3.85021
-3.83046
-3.81356
-3.79878
-3.78857
-3.78412
-3.78178
-3.77627
-3.76857
-3.76075
-3.74934
-3.73563
-3.73026
-4.19941
-4.14559
-4.09879
-4.05809
-4.02297
-3.99315
-3.96887
-3.94962
-3.93234
-3.91497
-3.89893
-3.88584
-3.87628
-3.87191
-3.87342
-3.87497
-3.86878
-3.85505
-3.8389
-4.30549
-4.254
-4.20934
-4.17054
-4.13704
-4.10845
-4.08493
-4.06604
-4.04888
-4.03089
-4.01313
-3.99745
-3.98594
-3.98235
-3.9864
-3.99261
-3.99463
-3.99324
-3.95293
-4.40786
-4.35911
-4.31686
-4.28018
-4.24851
-4.22114
-4.19843
-4.17975
-4.16293
-4.1456
-4.12852
-4.11381
-4.10306
-4.09972
-4.10239
-4.11169
-4.11655
-4.14525
-4.09452
-4.50634
-4.46081
-4.4213
-4.38694
-4.35715
-4.3314
-4.30951
-4.29108
-4.27466
-4.25862
-4.24301
-4.23028
-4.22062
-4.21789
-4.21836
-4.22547
-4.23321
-4.25915
-4.24411
-4.60094
-4.55913
-4.52272
-4.49092
-4.46321
-4.43912
-4.41831
-4.40038
-4.38447
-4.36964
-4.356
-4.34497
-4.33679
-4.33327
-4.3321
-4.3356
-4.33931
-4.34883
-4.3494
-4.69198
-4.6543
-4.62126
-4.59224
-4.56678
-4.54447
-4.52496
-4.5079
-4.49276
-4.47914
-4.4671
-4.45739
-4.45012
-4.44607
-4.44364
-4.44384
-4.44404
-4.44418
-4.44175
-4.77995
-4.74667
-4.71722
-4.69113
-4.66804
-4.64764
-4.62964
-4.61376
-4.59971
-4.58731
-4.57656
-4.56784
-4.56115
-4.55675
-4.5537
-4.55204
-4.55082
-4.54874
-4.54592
-4.86547
-4.8367
-4.81093
-4.78786
-4.76725
-4.7489
-4.73259
-4.71815
-4.70541
-4.69425
-4.68464
-4.67677
-4.67054
-4.66607
-4.6628
-4.66042
-4.6588
-4.6567
-4.65483
-4.94921
-4.92489
-4.90279
-4.88278
-4.86474
-4.84855
-4.83409
-4.82126
-4.80994
-4.80005
-4.79152
-4.78445
-4.77872
-4.77443
-4.77115
-4.76862
-4.76693
-4.76514
-4.76405
-5.03181
-5.01177
-4.99326
-4.9763
-4.96088
-4.94693
-4.93442
-4.92328
-4.91343
-4.90478
-4.8973
-4.89105
-4.88592
-4.88197
-4.87883
-4.87641
-4.87475
-4.87326
-4.87254
-5.11389
-5.09786
-5.0828
-5.06884
-5.05603
-5.04436
-5.03382
-5.02438
-5.01598
-5.00857
-5.00216
-4.99676
-4.99229
-4.98876
-4.98591
-4.98373
-4.98216
-4.98093
-4.98038
-5.19598
-5.18365
-5.17186
-5.16079
-5.15053
-5.14108
-5.13247
-5.1247
-5.11774
-5.1116
-5.10627
-5.10176
-5.09799
-5.09496
-5.09248
-5.09061
-5.08921
-5.08821
-5.08775
-5.27853
-5.26955
-5.2608
-5.25245
-5.2446
-5.23728
-5.23054
-5.22441
-5.21891
-5.21404
-5.20981
-5.20619
-5.20316
-5.20068
-5.19865
-5.19711
-5.19592
-5.19515
-5.19476
-5.36183
-5.35582
-5.34983
-5.34398
-5.33838
-5.33308
-5.32816
-5.32366
-5.3196
-5.316
-5.31285
-5.31015
-5.30786
-5.30597
-5.30441
-5.30323
-5.3023
-5.30173
-5.30141
-5.44602
-5.44261
-5.43909
-5.43555
-5.43206
-5.42871
-5.42555
-5.42264
-5.42
-5.41763
-5.41555
-5.41375
-5.41222
-5.41093
-5.40988
-5.40907
-5.40842
-5.40804
-5.40777
-5.53115
-5.5301
-5.52887
-5.52749
-5.52603
-5.52455
-5.5231
-5.52173
-5.52046
-5.5193
-5.51827
-5.51737
-5.51659
-5.51594
-5.51539
-5.51496
-5.51459
-5.51439
-5.51417
-5.6172
-5.61828
-5.61916
-5.61981
-5.62026
-5.62056
-5.62074
-5.62086
-5.62092
-5.62094
-5.62095
-5.62093
-5.62091
-5.62088
-5.62084
-5.6208
-5.62072
-5.62067
-5.62049
-5.70272
-5.70562
-5.70836
-5.71085
-5.71308
-5.71506
-5.71682
-5.71839
-5.71977
-5.72098
-5.72203
-5.72292
-5.72367
-5.72428
-5.72478
-5.72516
-5.72539
-5.72553
-5.72519
)
;

boundaryField
{
    leftWall
    {
        type            calculated;
        value           nonuniform List<scalar> 
50
(
920.493
861.836
803.716
745.817
687.914
629.953
571.982
514.473
426.319
294.359
182.756
93.6666
51.8597
38.6264
32.2507
27.1523
24.5455
34.5789
41.4596
21.5219
15.6543
15.1293
13.2077
31.9255
26.4553
-1.95851
-20.1862
-13.3473
-8.56412
-7.22641
-7.99711
-8.42921
-2.58019
25.5698
20.0009
-1.50356
-3.72727
-3.98167
-3.85583
-3.88034
-3.95062
-4.05699
-4.20708
-4.38175
-4.57128
-4.77188
-4.97963
-5.19174
-5.40574
-5.62253
)
;
    }
    rightWall
    {
        type            calculated;
        value           nonuniform List<scalar> 
50
(
336.665
276.193
206.504
144.095
106.728
74.676
34.6995
26.6184
25.7854
12.4562
0.784427
-1.78069
-0.90519
-0.0261115
0.00143246
-0.17018
-0.205648
-0.258795
-0.164155
-0.658624
-1.61365
-2.74165
-2.91564
-2.88835
-2.9291
-3.0465
-3.16661
-3.28453
-3.39756
-3.50778
-3.61886
-3.73026
-3.8389
-3.95293
-4.09452
-4.24411
-4.3494
-4.44175
-4.54592
-4.65483
-4.76405
-4.87254
-4.98038
-5.08775
-5.19476
-5.30141
-5.40777
-5.51417
-5.62049
-5.72519
)
;
    }
    lowerWall
    {
        type            calculated;
        value           nonuniform List<scalar> 
62
(
949.922
946.896
944.41
942.341
941.282
943.373
946.912
950.19
955.064
962.047
971.93
985.863
1003.4
1021.84
1042.4
1063.69
1089.82
1113.34
1126.18
1124.5
1114.07
1099.77
1086.22
1056.79
995.075
930.928
864.762
794.873
723.717
640.78
552.258
399.585
392.285
386.358
374.905
662.18
606.501
550.766
497.062
447.926
402.975
364.291
328.692
691.237
665.703
687.821
649.856
555.373
488.147
471.419
475.41
491.858
521.272
524.795
518.109
499.203
488.764
458.295
399.868
387.242
382.852
362.44
)
;
    }
    atmosphere
    {
        type            calculated;
        value           nonuniform List<scalar> 
46
(
-5.72904
-5.72904
-5.72904
-5.72904
-5.72904
-5.72904
-5.72904
-5.72904
-5.72904
-5.72904
-5.72904
-5.72904
-5.72904
-5.72904
-5.72904
-5.72904
-5.72904
-5.72904
-5.72942
-5.7304
-5.73184
-5.73367
-5.73587
-5.73772
-5.73902
-5.7404
-5.74188
-5.74444
-5.74813
-5.75169
-5.755
-5.75804
-5.76081
-5.76334
-5.76563
-5.76769
-5.7695
-5.77109
-5.77245
-5.77359
-5.77455
-5.77533
-5.77595
-5.77637
-5.77667
-5.776
)
;
    }
    defaultFaces
    {
        type            empty;
    }
}


// ************************************************************************* //
