/*--------------------------------*- C++ -*----------------------------------*\
| =========                 |                                                 |
| \\      /  F ield         | OpenFOAM: The Open Source CFD Toolbox           |
|  \\    /   O peration     | Version:  5.x                                   |
|   \\  /    A nd           | Web:      www.OpenFOAM.org                      |
|    \\/     M anipulation  |                                                 |
\*---------------------------------------------------------------------------*/
FoamFile
{
    version     2.0;
    format      ascii;
    class       volScalarField;
    location    "1";
    object      p_rgh;
}
// * * * * * * * * * * * * * * * * * * * * * * * * * * * * * * * * * * * * * //

dimensions      [1 -1 -2 0 0 0 0];

internalField   nonuniform List<scalar> 
2268
(
949.922
946.896
944.41
942.341
941.282
943.373
946.912
950.19
955.064
962.047
971.93
985.863
1003.4
1021.84
1042.4
1063.69
1089.82
1113.34
1126.18
1124.5
1114.07
1099.77
1086.22
950.124
946.567
944.141
941.379
939.963
942.61
946.688
949.947
954.557
961.197
970.665
984.334
1002.51
1019.47
1039.58
1059.59
1085.86
1111.15
1124.87
1122.8
1111.16
1096.76
1083.36
950.862
948.675
944.755
939.49
937.114
940.965
946.264
949.414
953.174
958.818
967.515
980.97
1000.38
1018.31
1037.62
1056.25
1085.93
1113.61
1126.43
1122.89
1109.72
1091.84
1078.07
951.822
950.089
945.273
937.186
933.07
938.482
945.886
948.856
951.236
955.279
962.645
975.371
995.243
1018.98
1038.43
1063.95
1095.14
1119.3
1128.97
1122.93
1106.04
1084.52
1070.77
952.778
951.186
945.325
934.893
929.022
935.952
945.828
948.381
948.855
950.732
956.124
967.602
987.215
1015.1
1046.09
1077.54
1107.44
1128.34
1132.89
1122
1099.9
1074.75
1059.74
953.676
951.752
944.683
932.906
926.154
934.215
946.018
947.83
945.923
945.181
947.942
957.791
977.311
1007.75
1046.27
1087.06
1121.44
1139.25
1137.03
1120.28
1091.22
1060.89
1047.44
954.564
950.67
943.109
931.383
926.057
933.359
945.298
946.501
941.843
938.025
937.34
945.212
964.812
998.429
1044.65
1095.73
1137.24
1151.88
1143.85
1116.68
1074.94
1037.99
1023.13
937.801
944.298
939.497
929.484
926.664
933.812
940.816
942.017
936.572
930.557
925.251
930.198
949.493
986.63
1041.6
1105.19
1157.35
1174.98
1149.03
1085.51
1038.97
998.31
989.636
691.237
665.703
687.821
649.856
555.373
488.147
471.419
475.41
491.858
521.272
524.795
518.109
499.203
488.764
458.295
399.868
387.242
382.852
362.44
694.123
658.033
677.071
644.364
554.225
487.973
461.883
457.167
481.111
514.81
525.408
510.176
491.759
488.675
460.083
399.428
399.422
380.492
364.476
692.302
650.909
669.223
616.847
530.822
487.563
469.564
458.378
467.19
493.436
526.849
476.977
461.964
479.081
466.589
398.852
409.77
360.298
353.65
695.763
651.649
661.752
601.532
521.973
481.859
448.051
413.383
432.381
467.281
481.779
400.373
402.125
463.141
478.508
413.565
403.485
299.041
323.7
709.443
655.126
662.929
595.704
463.085
329.798
273.667
254.083
269.291
306.557
352.976
291.388
297.6
429.493
464.724
441.364
376.421
175.278
184.895
726.698
700.044
675.057
510.105
285.68
248.044
241.819
235.072
240.339
238.116
250.408
280.41
279.355
294.55
487.448
462.051
310.484
154.043
195.646
702.181
713.439
685.925
427.601
257.242
247.076
241.115
235.977
236.193
239.711
253.99
284.643
282.18
320.975
532.343
475.719
258.181
105.392
187.183
681.736
732.066
705.996
413.764
258.266
250.334
256.424
235.817
239.493
303.157
366.248
400.2
418.774
589.164
565.908
488.881
247.968
34.1523
27.0598
825.803
841.66
920.849
931.385
937.494
948.64
945.097
932.651
921.453
911.668
899.164
899.689
917.847
960.824
1032.81
1123.65
1203.89
1191.82
1106.23
1050.29
990.478
932.312
898.022
748.948
736.091
867.222
921.921
933.711
909.486
913.474
904.955
905.796
879.418
689.061
613.117
613.462
703.506
911.343
1037.12
1015.77
1027.96
1033.48
1052.87
951.598
887.096
870.767
965.031
752.387
871.526
930.762
1014.12
1010.73
925.07
737.447
445.621
314.168
275.355
259.714
271.82
299.699
371.541
581.793
1015.98
1149.88
1097.36
1000.81
895.793
835.894
816.589
750.721
159.153
465.64
967.118
889.849
609.305
461.901
366.037
330.923
257.103
232.003
241.165
253.899
259.992
268.342
410.559
961.813
1072.98
1052.52
842.913
404.413
326.09
659.163
706.681
51.2955
233.45
722.737
370.889
28.2427
11.8562
28.7216
191.173
282.587
309.867
325.306
293.105
246.406
225.361
198.943
422.701
713.257
1005.11
630.124
143.216
131.311
152.014
632.809
44.4516
61.2617
115.276
27.8268
8.33275
3.33694
2.11233
3.63195
36.3206
218.807
315.497
329.212
318.721
218.813
20.3831
8.25884
29.1692
495.038
721.939
210.295
128.711
117.199
764.69
36.2927
37.9004
35.1723
15.0302
4.93492
1.67512
0.71834
2.83723
6.88476
22.812
154.94
208.419
97.0207
12.1819
0.43744
1.16864
4.88102
148.978
596.824
615.783
250.408
121.192
752.04
32.1047
33.555
29.6254
16.3257
7.94864
4.23051
1.87799
1.42448
8.06884
22.1575
6.12123
2.74093
-0.557123
-0.548889
-0.45125
-0.479234
0.166379
10.5029
340.597
640.396
663.488
413.213
712.847
31.3605
32.5522
59.3615
40.8429
60.7496
55.1268
48.1095
32.1669
5.47588
10.7251
-0.0345145
-0.553805
-0.692233
-0.648726
-0.686795
-0.854976
-0.914706
-0.893452
5.03381
443.66
718.503
724.943
687.228
35.6628
59.1128
68.9498
68.1175
60.0485
23.6302
14.1188
5.91713
0.870503
-0.455564
-1.17663
-0.917385
-0.532186
-0.483519
-0.944916
-1.00285
-1.04728
-1.04691
-0.985787
-1.20684
18.9173
457.289
372.744
65.5918
56.3808
59.3911
22.9816
5.23642
0.556536
-0.357896
-1.38646
-1.78712
-1.48826
-1.23811
-1.18738
-1.07047
-1.11252
-1.09012
-1.08454
-1.08968
-1.08739
-1.0684
-1.0007
-0.804988
-0.750258
23.4944
79.7209
17.9294
10.5447
1.13958
0.209589
-0.299976
-0.289445
-1.04913
-1.58367
-1.42912
-1.32058
-1.29912
-1.25015
-1.20048
-1.16314
-1.14102
-1.12387
-1.10549
-0.89127
-0.406167
-0.326291
-0.536137
17.6901
53.5414
3.6414
1.43594
0.24187
-0.452025
-0.919805
-1.12808
-1.54785
-1.69505
-1.59146
-1.49009
-1.4191
-1.34572
-1.28315
-1.23254
-1.19312
-1.15937
-1.12644
-1.08832
-1.02253
-0.286025
-0.0205298
17.2903
29.8421
1.48196
0.36642
-0.399271
-0.969846
-1.39588
-1.69418
-1.86974
-1.90357
-1.82828
-1.71546
-1.60398
-1.49708
-1.40415
-1.3266
-1.26163
-1.20508
-1.15264
-1.0993
-1.04286
-0.985289
-0.59263
741.49
65.6001
-0.11514
-0.581896
-1.1083
-1.49459
-1.76688
-1.98182
-2.14316
-2.20777
-2.16332
-2.04649
-1.89106
-1.72699
-1.57857
-1.45526
-1.35322
-1.26713
-1.19086
-1.11956
-1.05127
-0.984659
-0.917025
2251.99
142.173
-1.14324
-1.42053
-1.75105
-1.9748
-2.14703
-2.33993
-2.54025
-2.66828
-2.66957
-2.54793
-2.32993
-2.07127
-1.82694
-1.62791
-1.47007
-1.34469
-1.24059
-1.14999
-1.06853
-0.992834
-0.919542
2307.05
199.887
-1.94489
-2.14393
-2.31753
-2.44887
-2.60039
-2.84828
-3.15523
-3.39286
-3.4639
-3.3351
-3.03138
-2.609
-2.19305
-1.86582
-1.61869
-1.43712
-1.29792
-1.18472
-1.08854
-1.00333
-0.9246
1115.39
198.449
-2.59948
-2.80787
-2.87311
-2.99163
-3.19764
-3.58294
-4.0629
-4.45796
-4.63284
-4.51557
-4.04396
-3.26431
-2.59224
-2.18427
-1.80028
-1.53996
-1.35713
-1.21838
-1.1068
-1.01228
-0.928439
16.9946
202.513
-3.06545
-3.42877
-3.43062
-3.61615
-3.94287
-4.53802
-5.15726
-5.41773
-5.88064
-5.91949
-5.31914
-4.24712
-3.17415
-2.48169
-1.99381
-1.63542
-1.40714
-1.24387
-1.11877
-1.01651
-0.928556
-9.93305
197.532
-3.49201
-3.94713
-3.93549
-4.2465
-4.73229
-5.52202
-6.0066
-6.79834
-7.10791
-6.9863
-6.5049
-5.23204
-3.80794
-2.70774
-1.9762
-1.68018
-1.43472
-1.25524
-1.12141
-1.01444
-0.924232
-3.63113
170.342
-3.75109
-4.29046
-4.31879
-4.75979
-5.37247
-6.27543
-6.93438
-7.80662
-8.11341
-8.07062
-7.20494
-5.84652
-4.20923
-2.80866
-1.9064
-1.66559
-1.43391
-1.25056
-1.11406
-1.00575
-0.915709
-4.0639
58.5382
-4.15506
-4.50814
-4.55992
-5.06901
-5.686
-6.1398
-7.25756
-8.09124
-8.26917
-7.91415
-7.28962
-5.90639
-4.31068
-2.64069
-1.91981
-1.64973
-1.40782
-1.23162
-1.0984
-0.991925
-0.902834
-4.70941
-4.63243
-4.42925
-4.61917
-4.66708
-5.1495
-5.69149
-5.97403
-6.97128
-7.6313
-7.75489
-7.45422
-6.8273
-5.52499
-4.01575
-2.28578
-1.89061
-1.60415
-1.36566
-1.20349
-1.07703
-0.973998
-0.887033
-5.01627
-5.03915
-4.4962
-4.65899
-4.63448
-5.01723
-5.38172
-5.70473
-6.13971
-6.74342
-6.97305
-6.73704
-5.98158
-4.81789
-3.14947
-1.93845
-1.68733
-1.52738
-1.32161
-1.17292
-1.05291
-0.953266
-0.868546
1164.43
-1.97273
-4.10049
-4.55545
-4.48505
-4.75095
-4.90355
-5.25586
-5.64618
-5.96171
-5.84726
-4.83191
-4.01886
-3.71694
-2.39386
-1.60879
-1.59264
-1.47567
-1.28581
-1.14351
-1.02701
-0.929712
-0.846985
2136.29
21.4631
-3.46618
-4.18836
-4.33321
-4.49359
-4.51097
-4.63897
-4.71805
-2.73064
-2.56254
-2.07982
-1.81569
-2.19328
-1.74015
-1.49173
-1.5945
-1.43548
-1.25124
-1.11104
-0.996656
-0.901601
-0.821175
961.005
121.809
-1.73022
-3.59903
-4.18118
-4.31014
-4.29912
-3.28932
0.374854
0.836677
-0.737234
-2.88421
-2.81894
-2.24256
-1.51126
-1.41533
-1.56486
-1.37386
-1.20156
-1.06714
-0.957432
-0.866452
-0.789631
2.40315
206.706
74.2366
-1.28524
-3.47238
-3.82912
-1.48384
6.07531
3.1183
-1.77755
-2.04255
-2.13614
-2.1195
-1.60343
-1.51024
-1.65954
-1.46398
-1.27667
-1.12723
-1.00634
-0.906307
-0.822511
-0.751313
0.310652
77.8825
83.0546
78.5339
39.7765
28.1418
26.8415
6.62646
-0.690749
-1.17805
-1.3724
-1.4923
-1.55147
-1.56709
-1.51686
-1.41366
-1.27678
-1.14472
-1.02893
-0.929104
-0.843387
-0.769785
-0.706212
0.182295
3.92464
47.8989
57.1696
47.3224
40.1098
23.1995
1.32571
-0.376478
-0.699062
-0.881339
-1.03732
-1.15764
-1.21772
-1.21669
-1.16665
-1.08886
-1.00285
-0.918937
-0.841445
-0.771798
-0.709988
-0.655326
0.433442
1.4975
3.92344
5.28565
15.9978
12.5714
3.8065
0.661608
-0.161459
-0.372327
-0.555663
-0.720864
-0.849843
-0.929942
-0.960651
-0.950678
-0.913429
-0.861979
-0.805392
-0.748866
-0.695137
-0.645463
-0.600188
0.53415
0.796305
1.38159
1.65288
1.58088
1.15876
0.641572
0.30719
0.0377111
-0.158281
-0.332026
-0.491499
-0.617366
-0.703866
-0.751435
-0.765762
-0.755456
-0.729422
-0.694712
-0.656149
-0.616831
-0.578624
-0.542494
0.589071
0.664824
0.876879
0.979961
0.962216
0.788537
0.553524
0.339273
0.152408
-0.0212309
-0.183845
-0.32244
-0.438475
-0.524815
-0.580681
-0.60948
-0.616829
-0.608782
-0.590676
-0.566622
-0.539572
-0.511545
-0.483806
0.607897
0.642833
0.724329
0.766063
0.748433
0.657839
0.522185
0.370083
0.217151
0.0682277
-0.0722765
-0.197153
-0.302058
-0.38418
-0.44261
-0.479126
-0.497317
-0.501376
-0.495286
-0.482385
-0.465254
-0.445814
-0.425406
0.582997
0.608073
0.647656
0.666594
0.646988
0.582518
0.484201
0.367971
0.244568
0.120426
0.00129434
-0.10702
-0.200235
-0.275499
-0.332231
-0.371537
-0.395572
-0.407185
-0.409296
-0.404524
-0.39503
-0.382513
-0.368249
0.533528
0.553551
0.574512
0.579324
0.557342
0.506362
0.432405
0.343242
0.245378
0.144452
0.0458895
-0.0453847
-0.125621
-0.192436
-0.24487
-0.283478
-0.309706
-0.32539
-0.332616
-0.333393
-0.329474
-0.322296
-0.312994
0.469187
0.484454
0.495001
0.492076
0.470255
0.429725
0.373518
0.30525
0.228861
0.148706
0.0692125
-0.0056197
-0.0726693
-0.12988
-0.176288
-0.211847
-0.237635
-0.254743
-0.264645
-0.268849
-0.268734
-0.265478
-0.260043
0.393788
0.405017
0.409918
0.403895
0.384655
0.353151
0.310872
0.259406
0.201133
0.139193
0.0769583
0.0175318
-0.036595
-0.0837047
-0.122892
-0.154002
-0.177295
-0.193826
-0.204495
-0.210412
-0.212637
-0.212098
-0.209568
0.311228
0.319426
0.321422
0.315052
0.299731
0.276479
0.24586
0.208458
0.165709
0.119792
0.0731418
0.0280514
-0.013584
-0.0504015
-0.0816156
-0.106975
-0.126625
-0.141154
-0.151112
-0.15739
-0.160793
-0.161998
-0.161576
0.224317
0.230379
0.231133
0.225945
0.21509
0.199375
0.178836
0.153583
0.124456
0.0928758
0.0604777
0.0288363
-0.000709684
-0.0271663
-0.0499311
-0.0687836
-0.0838394
-0.09538
-0.103419
-0.109025
-0.112709
-0.114872
-0.115882
0.135508
0.140202
0.140527
0.137104
0.130678
0.121753
0.110083
0.0955713
0.0786606
0.0601619
0.0410226
0.0221719
0.00441697
-0.0116297
-0.0255879
-0.037323
-0.0469805
-0.0552075
-0.0598786
-0.0639761
-0.0672634
-0.0698163
-0.0718128
0.0439152
0.0456876
0.0461195
0.0453681
0.0435819
0.0410107
0.0375636
0.0331469
0.0278551
0.0219404
0.015719
0.00950899
0.00359124
-0.00181554
-0.00656293
-0.0105549
-0.0136567
-0.0153176
-0.0181555
-0.0206797
-0.0232699
-0.0258671
-0.0284516
862.14
862.952
857.228
845.775
872.003
877.469
880.474
871.519
795.585
856.597
860.715
883.423
870.797
697.826
254.848
184.108
290.816
206.677
194.931
197.224
290.94
310.039
310.017
310.209
119.511
114.559
109.68
241.444
111.853
104.551
101.719
100.715
721.354
512.927
115.6
213.843
568.604
533.749
512.679
497.607
-0.713636
-0.663184
-0.603853
-0.577036
-0.536265
-0.577473
-0.623087
-0.626363
0.0584079
0.10984
0.0546236
-0.240371
-0.106756
0.0845132
0.0822134
0.0720646
-0.863576
-0.826735
-0.550883
-0.492409
-0.864856
-0.829461
-0.794064
-0.758104
-0.868926
-0.833681
-0.798655
-0.764397
-0.871317
-0.835662
-0.800821
-0.767455
-0.870281
-0.834453
-0.800119
-0.766958
-0.865558
-0.829786
-0.795771
-0.763396
-0.857401
-0.822079
-0.788661
-0.757035
-0.845931
-0.811494
-0.778933
-0.748214
-0.831714
-0.798282
-0.766636
-0.736825
-0.814772
-0.782323
-0.751587
-0.722665
-0.794671
-0.763176
-0.733376
-0.705378
-0.770529
-0.740116
-0.711406
-0.684481
-0.741315
-0.712341
-0.685048
-0.659481
-0.706332
-0.679327
-0.653898
-0.630061
-0.665583
-0.641095
-0.617981
-0.596253
-0.619783
-0.598224
-0.577773
-0.55845
-0.570085
-0.551668
-0.53407
-0.517324
-0.517808
-0.502545
-0.487821
-0.473684
-0.464218
-0.451952
-0.439982
-0.428365
-0.410399
-0.400858
-0.39142
-0.382143
-0.357208
-0.350058
-0.342871
-0.335707
-0.305281
-0.300171
-0.294938
-0.289635
-0.255053
-0.251646
-0.248074
-0.244383
-0.206756
-0.204746
-0.202561
-0.20024
-0.160459
-0.159562
-0.158507
-0.157324
-0.116041
-0.11601
-0.115865
-0.11563
-0.073029
-0.0737477
-0.074406
-0.0750148
-0.0303951
-0.0316553
-0.0329128
-0.0341733
814.817
778.985
663.121
337.037
246.882
250.791
310.612
347.659
476.241
500.473
517.831
521.643
488.907
462.689
392.001
260.059
130.967
32.3936
26.3188
855.746
803.864
486.496
228.75
232.745
255.6
371.707
491.388
483.168
343.789
248.338
246.162
228.816
223.585
170.806
64.7879
10.5773
10.0183
14.4647
841.329
382.028
201.184
220.404
284.293
387.036
379.399
358.288
304.837
246.681
247.702
245.081
207.708
207.212
140.231
13.8056
-6.12302
-4.06751
3.2903
187.047
195.589
211.953
283.559
376.866
372.138
295.042
293.28
290.468
358.413
358.657
340.861
295.853
162.285
39.2906
-2.17826
-3.61408
-4.33766
-0.871636
199.747
232.77
307.4
309.469
253.733
168.293
170.219
322.18
369.76
354.297
334.726
207.688
15.606
2.7908
1.2281
4.96335
-2.26091
-1.30613
0.129056
305.618
304.934
306.93
179.539
163.014
163.009
240.776
387.917
377.076
297.22
58.5937
1.67518
1.77954
2.68559
4.81292
2.3314
0.0410028
0.738875
1.593
291.294
154.598
139.671
143.471
196.088
266.148
387.975
371.575
180.554
1.0722
1.11823
1.16987
1.70987
2.73141
1.88081
0.496377
0.625067
1.03119
1.39503
102.007
104.848
141.681
277.924
315.135
307.169
222.139
21.2455
0.248332
0.605632
0.85192
2.60984
3.01877
1.71552
0.657692
0.493271
0.717664
0.984466
1.23965
257.1
159.644
277.301
273.377
225.961
136.391
0.704273
0.379999
0.315572
0.456839
0.447573
0.401786
3.155
16.0163
15.952
15.6989
17.143
4.74472
1.37949
473.683
259.197
141.354
70.6832
0.0172806
-0.227185
0.1853
0.218766
0.253938
0.326124
0.303525
0.177649
0.0418327
0.00172008
-0.190813
14.395
24.3619
24.8534
6.14335
-0.534338
-0.450751
-0.472865
-0.529145
-0.237591
-0.177445
0.0108869
0.0955031
0.135192
0.160622
0.145633
0.0902366
0.00374265
-0.104587
-0.29804
-0.570145
7.06895
26.7788
8.34857
-0.575526
-0.529797
-0.485756
-0.440678
-0.291336
-0.189786
-0.0833926
-0.015785
0.0220466
0.0297511
-0.00472535
-0.0728719
-0.149769
-0.233182
-0.419181
-0.635925
-0.679521
24.08
1.25198
-0.426264
-0.558535
-0.490515
-0.41894
-0.323615
-0.240208
-0.163885
-0.107779
-0.0776943
-0.0773726
-0.121109
-0.207142
-0.307784
-0.399464
-0.602364
-0.881414
-1.04776
5.64698
25.5078
-0.0284374
-0.579123
-0.49744
-0.433396
-0.359435
-0.288229
-0.226991
-0.181938
-0.157459
-0.1595
-0.198878
-0.277477
-0.378403
-0.469672
-0.735921
-0.443672
3.14839
22.1197
49.9465
-0.680956
-0.591646
-0.516342
-0.455265
-0.391584
-0.330751
-0.2798
-0.242281
-0.221825
-0.223122
-0.252614
-0.311152
-0.391214
-0.442312
-0.612093
-0.490624
12.4677
19.461
9.52066
-0.697406
-0.597757
-0.54141
-0.483676
-0.42318
-0.369343
-0.324766
-0.291942
-0.273608
-0.273281
-0.294334
-0.335177
-0.386387
-0.422226
-0.502978
-0.560267
-0.11281
0.814927
-0.476963
-0.708192
-0.633241
-0.569166
-0.50629
-0.44983
-0.40127
-0.361419
-0.331934
-0.314691
-0.312461
-0.326948
-0.35736
-0.390455
-0.415958
-0.454926
-0.500719
-0.348155
-0.290054
-0.392516
-0.713787
-0.644578
-0.580729
-0.522277
-0.470456
-0.426366
-0.39042
-0.363545
-0.347104
-0.343753
-0.354943
-0.378303
-0.400842
-0.415438
-0.429826
-0.452862
-0.177427
0.0290008
-0.384727
-0.714534
-0.647728
-0.587237
-0.53301
-0.48547
-0.445145
-0.412433
-0.387691
-0.372068
-0.368587
-0.37904
-0.400127
-0.41789
-0.42474
-0.42521
-0.428135
-0.109072
0.0654682
-0.267623
-0.711852
-0.647403
-0.590022
-0.539382
-0.49534
-0.458076
-0.427928
-0.404897
-0.389876
-0.383946
-0.393539
-0.419366
-0.435754
-0.436671
-0.425699
-0.406809
-0.0430029
0.0948138
-0.297589
-0.706855
-0.644698
-0.589953
-0.542035
-0.500579
-0.465593
-0.437349
-0.415582
-0.39862
-0.388523
-0.399292
-0.429305
-0.44567
-0.442239
-0.422008
-0.38441
-0.00131456
0.0131549
-0.360207
-0.699557
-0.639592
-0.58704
-0.541193
-0.501633
-0.468279
-0.441387
-0.420453
-0.399838
-0.39018
-0.396971
-0.421429
-0.438029
-0.43232
-0.406544
-0.262017
-0.0610625
-0.352599
-0.345223
-0.689684
-0.631785
-0.581169
-0.537069
-0.499043
-0.466934
-0.441031
-0.420674
-0.398415
-0.384673
-0.383504
-0.396537
-0.409179
-0.402941
-0.312375
-0.202844
-0.257224
-0.335262
-0.331117
-0.677008
-0.621105
-0.572367
-0.529927
-0.493327
-0.46234
-0.437268
-0.417514
-0.398158
-0.375755
-0.365696
-0.363379
-0.368698
-0.362008
-0.353635
-0.34682
-0.336165
-0.322645
-0.317323
-0.661275
-0.607452
-0.560657
-0.519956
-0.484837
-0.455015
-0.430729
-0.411486
-0.394024
-0.373642
-0.35065
-0.338086
-0.33798
-0.333615
-0.335123
-0.33668
-0.328005
-0.311359
-0.300767
-0.64216
-0.590672
-0.54601
-0.507209
-0.473712
-0.445124
-0.421604
-0.402677
-0.385489
-0.367563
-0.347552
-0.328133
-0.319551
-0.318548
-0.322903
-0.329095
-0.324167
-0.135724
0.0838568
-0.619339
-0.570586
-0.528338
-0.491652
-0.459982
-0.432615
-0.409908
-0.39122
-0.3744
-0.35708
-0.339998
-0.325287
-0.310513
-0.307188
-0.31266
-0.32295
-0.327993
-0.0436325
1.98981
-0.592617
-0.547086
-0.507585
-0.473225
-0.443429
-0.417684
-0.395792
-0.377359
-0.360944
-0.344904
-0.329287
-0.316561
-0.305644
-0.300011
-0.300635
-0.311402
-0.319451
-0.235131
0.989762
-0.56203
-0.520217
-0.483801
-0.452007
-0.424296
-0.400209
-0.379401
-0.361469
-0.345552
-0.330721
-0.317086
-0.306053
-0.297872
-0.293653
-0.29234
-0.296273
-0.300356
-0.307433
-0.310482
-0.527871
-0.490191
-0.457154
-0.428134
-0.402669
-0.38036
-0.360854
-0.343789
-0.328655
-0.315028
-0.302987
-0.293271
-0.286009
-0.281957
-0.27953
-0.279731
-0.279906
-0.280074
-0.277637
-0.490645
-0.457369
-0.427914
-0.401824
-0.378738
-0.35834
-0.340341
-0.324461
-0.310411
-0.298005
-0.287254
-0.278532
-0.271837
-0.267444
-0.264391
-0.262733
-0.261506
-0.259438
-0.256617
-0.450973
-0.422205
-0.396429
-0.37336
-0.352757
-0.334403
-0.318096
-0.303652
-0.290909
-0.279753
-0.270145
-0.262269
-0.256031
-0.25157
-0.248296
-0.24592
-0.244296
-0.242196
-0.240331
-0.409516
-0.385202
-0.363101
-0.34309
-0.32505
-0.308859
-0.294399
-0.281565
-0.270249
-0.260353
-0.251823
-0.244753
-0.239027
-0.234739
-0.23146
-0.228925
-0.227241
-0.22545
-0.224356
-0.366924
-0.346884
-0.328375
-0.311415
-0.295989
-0.282047
-0.269536
-0.258395
-0.24854
-0.239892
-0.232417
-0.226167
-0.221034
-0.217078
-0.213948
-0.211521
-0.209862
-0.208371
-0.207658
-0.323805
-0.307776
-0.292722
-0.278762
-0.26595
-0.25428
-0.243741
-0.234298
-0.225895
-0.21849
-0.212079
-0.206682
-0.202207
-0.198683
-0.195828
-0.193646
-0.192083
-0.190847
-0.1903
-0.280703
-0.268371
-0.256587
-0.245518
-0.235253
-0.225806
-0.217199
-0.209424
-0.202468
-0.196322
-0.190996
-0.186482
-0.182713
-0.179688
-0.177209
-0.175337
-0.17393
-0.172935
-0.172475
-0.23806
-0.229075
-0.220326
-0.211979
-0.204126
-0.196806
-0.19007
-0.183941
-0.178437
-0.173566
-0.169336
-0.165723
-0.162688
-0.160213
-0.158176
-0.156642
-0.155451
-0.15468
-0.154288
-0.19617
-0.190159
-0.184161
-0.178316
-0.172716
-0.16742
-0.1625
-0.157996
-0.153937
-0.150334
-0.147189
-0.144481
-0.142194
-0.140304
-0.138748
-0.137569
-0.136638
-0.136067
-0.135742
-0.155157
-0.151751
-0.148229
-0.144687
-0.141203
-0.137849
-0.134694
-0.131781
-0.129137
-0.126772
-0.124693
-0.12289
-0.121356
-0.120075
-0.11902
-0.118212
-0.11756
-0.117178
-0.116911
-0.115098
-0.114042
-0.112812
-0.111437
-0.109977
-0.108496
-0.10705
-0.105679
-0.104407
-0.103251
-0.102221
-0.101317
-0.10054
-0.0998822
-0.0993352
-0.0989067
-0.0985394
-0.0983372
-0.0981176
-0.0759476
-0.0770315
-0.0779093
-0.0785585
-0.0790093
-0.0793082
-0.0794959
-0.0796077
-0.0796682
-0.0796942
-0.079697
-0.0796835
-0.0796603
-0.0796297
-0.079594
-0.0795529
-0.0794716
-0.0794268
-0.0792402
-0.0362776
-0.0391758
-0.041916
-0.0444086
-0.0466343
-0.0486164
-0.0503787
-0.0519449
-0.0533297
-0.0545414
-0.0555879
-0.0564779
-0.057225
-0.0578411
-0.058338
-0.0587187
-0.058949
-0.0590875
-0.0587484
)
;

boundaryField
{
    leftWall
    {
        type            fixedFluxPressure;
        gradient        uniform 0;
        value           nonuniform List<scalar> 
50
(
949.922
950.124
950.862
951.822
952.778
953.676
954.564
937.801
825.803
748.948
965.031
750.721
706.681
632.809
764.69
752.04
712.847
687.228
372.744
23.4944
17.6901
17.2903
741.49
2251.99
2307.05
1115.39
16.9946
-9.93305
-3.63113
-4.0639
-4.70941
-5.01627
1164.43
2136.29
961.005
2.40315
0.310652
0.182295
0.433442
0.53415
0.589071
0.607897
0.582997
0.533528
0.469187
0.393788
0.311228
0.224317
0.135508
0.0439152
)
;
    }
    rightWall
    {
        type            fixedFluxPressure;
        gradient        uniform 0;
        value           nonuniform List<scalar> 
50
(
362.44
364.476
353.65
323.7
184.895
195.646
187.183
27.0598
26.3188
14.4647
3.2903
-0.871636
0.129056
1.593
1.39503
1.23965
1.37949
6.14335
8.34857
1.25198
25.5078
49.9465
9.52066
-0.476963
-0.392516
-0.384727
-0.267623
-0.297589
-0.360207
-0.345223
-0.331117
-0.317323
-0.300767
0.0838568
1.98981
0.989762
-0.310482
-0.277637
-0.256617
-0.240331
-0.224356
-0.207658
-0.1903
-0.172475
-0.154288
-0.135742
-0.116911
-0.0981176
-0.0792402
-0.0587484
)
;
    }
    lowerWall
    {
        type            fixedFluxPressure;
        gradient        uniform 0;
        value           nonuniform List<scalar> 
62
(
949.922
946.896
944.41
942.341
941.282
943.373
946.912
950.19
955.064
962.047
971.93
985.863
1003.4
1021.84
1042.4
1063.69
1089.82
1113.34
1126.18
1124.5
1114.07
1099.77
1086.22
1086.22
1083.36
1078.07
1070.77
1059.74
1047.44
1023.13
989.636
862.14
862.952
857.228
845.775
691.237
694.123
692.302
695.763
709.443
726.698
702.181
681.736
691.237
665.703
687.821
649.856
555.373
488.147
471.419
475.41
491.858
521.272
524.795
518.109
499.203
488.764
458.295
399.868
387.242
382.852
362.44
)
;
    }
    atmosphere
    {
        type            totalPressure;
        rho             rho;
        psi             none;
        gamma           1;
        p0              uniform 0;
        value           nonuniform List<scalar> 
46
(
0
0
0
0
0
0
0
0
0
0
0
0
0
0
0
0
0
0
-0.000376887
-0.00135888
-0.00280386
-0.00462998
-0.00682665
-0.0086838
-0.00997827
-0.0113645
-0.0128414
-0.0154003
-0.0190861
-0.0226491
-0.0259624
-0.0289952
-0.0317746
-0.0343037
-0.0365939
-0.0386479
-0.0404649
-0.0420494
-0.0434063
-0.044554
-0.0455087
-0.0462903
-0.0469111
-0.0473256
-0.0476308
-0.0469569
)
;
    }
    defaultFaces
    {
        type            empty;
    }
}


// ************************************************************************* //
