/*--------------------------------*- C++ -*----------------------------------*\
| =========                 |                                                 |
| \\      /  F ield         | OpenFOAM: The Open Source CFD Toolbox           |
|  \\    /   O peration     | Version:  5.x                                   |
|   \\  /    A nd           | Web:      www.OpenFOAM.org                      |
|    \\/     M anipulation  |                                                 |
\*---------------------------------------------------------------------------*/
FoamFile
{
    version     2.0;
    format      ascii;
    class       surfaceScalarField;
    location    "1";
    object      phi;
}
// * * * * * * * * * * * * * * * * * * * * * * * * * * * * * * * * * * * * * //

dimensions      [0 3 -1 0 0 0 0];

internalField   nonuniform List<scalar> 
4432
(
3.87951e-06
-3.87951e-06
4.9596e-06
-1.08009e-06
1.97191e-06
2.98769e-06
-3.07478e-06
5.04669e-06
-5.55486e-06
2.48008e-06
-4.16155e-06
-1.39331e-06
-2.27428e-06
-1.88728e-06
-2.5056e-06
2.31324e-07
-4.37602e-06
1.87042e-06
-7.29319e-06
2.91717e-06
-1.08902e-05
3.59705e-06
-1.40604e-05
3.17019e-06
-1.53167e-05
1.25624e-06
-1.6762e-05
1.44528e-06
-2.28194e-05
6.05744e-06
-3.2366e-05
9.54665e-06
-3.62117e-05
3.84561e-06
-3.06354e-05
-5.57631e-06
-2.19893e-05
-8.64608e-06
-1.43482e-05
-7.64106e-06
-7.62847e-06
-6.71974e-06
-2.17145e-06
-5.45702e-06
-2.17145e-06
-3.70744e-07
-3.50876e-06
-1.73834e-06
2.87501e-07
-4.38508e-06
5.63443e-06
-7.11156e-06
7.77317e-06
-7.40871e-06
2.77723e-06
-5.16899e-06
-3.63304e-06
-2.84966e-06
-4.20661e-06
-2.8001e-06
1.81765e-07
-4.915e-06
3.98531e-06
-8.23362e-06
6.23579e-06
-1.20934e-05
7.45682e-06
-1.61227e-05
7.19952e-06
-2.10234e-05
6.1569e-06
-2.79068e-05
8.3287e-06
-3.50294e-05
1.31801e-05
-3.70431e-05
1.15603e-05
-3.12422e-05
-1.95529e-06
-2.28185e-05
-1.4e-05
-1.58645e-05
-1.56001e-05
-9.8725e-06
-1.36331e-05
-4.66941e-06
-1.19228e-05
-8.59861e-07
-9.26659e-06
-3.03131e-06
-1.95772e-06
-1.55104e-06
-4.37591e-06
2.70568e-06
-6.64482e-06
7.90335e-06
-8.09666e-06
9.22502e-06
-8.07946e-06
2.76003e-06
-5.85396e-06
-5.85854e-06
-3.3543e-06
-6.70628e-06
-3.10026e-06
-7.2277e-08
-4.75572e-06
5.64077e-06
-7.40921e-06
8.88928e-06
-1.05514e-05
1.0599e-05
-1.45096e-05
1.11577e-05
-2.03125e-05
1.19598e-05
-2.71189e-05
1.51351e-05
-3.10323e-05
1.70935e-05
-2.85159e-05
9.04382e-06
-2.24011e-05
-8.07001e-06
-1.71578e-05
-1.92433e-05
-1.24581e-05
-2.02999e-05
-7.26024e-06
-1.88309e-05
-2.74577e-06
-1.64373e-05
5.56743e-08
-1.2068e-05
-2.97563e-06
-1.2056e-06
-3.45437e-07
-3.06992e-06
4.57e-06
-5.05856e-06
9.89199e-06
-6.525e-06
1.06915e-05
-6.74315e-06
2.97819e-06
-4.86566e-06
-7.73603e-06
-3.13207e-06
-8.43987e-06
-3.36479e-06
1.60446e-07
-5.0463e-06
7.32228e-06
-7.46175e-06
1.13047e-05
-1.02618e-05
1.3399e-05
-1.35802e-05
1.44762e-05
-1.77315e-05
1.61111e-05
-2.15626e-05
1.89661e-05
-2.24685e-05
1.79995e-05
-1.9772e-05
6.34734e-06
-1.71927e-05
-1.06494e-05
-1.55389e-05
-2.08971e-05
-1.19276e-05
-2.39112e-05
-6.07875e-06
-2.46797e-05
-9.33196e-07
-2.15829e-05
1.2657e-06
-1.42669e-05
-1.70992e-06
8.28306e-07
-1.17374e-06
3.67614e-07
5.03069e-06
-1.3193e-06
1.15789e-05
-2.84005e-06
1.22122e-05
-2.87403e-06
3.01217e-06
-1.73725e-06
-8.87281e-06
-1.8149e-06
-8.36221e-06
-3.26742e-06
1.61296e-06
-5.53311e-06
9.58796e-06
-8.0983e-06
1.38699e-05
-1.09517e-05
1.62525e-05
-1.38649e-05
1.73893e-05
-1.64109e-05
1.86571e-05
-1.76266e-05
2.01818e-05
-1.69105e-05
1.72834e-05
-1.59809e-05
5.4177e-06
-1.64789e-05
-1.01513e-05
-1.57432e-05
-2.16328e-05
-1.08849e-05
-2.87695e-05
-3.68662e-06
-3.1878e-05
2.37061e-06
-2.76401e-05
3.5757e-06
-1.5472e-05
1.86578e-06
3.57921e-06
-4.75295e-06
5.147e-06
3.4629e-06
4.1286e-06
1.25973e-05
2.33343e-06
1.40074e-05
2.52516e-06
2.82044e-06
2.92961e-06
-9.27727e-06
6.89914e-07
-6.12251e-06
-2.73725e-06
5.04013e-06
-6.02936e-06
1.28801e-05
-8.85693e-06
1.66975e-05
-1.17966e-05
1.91922e-05
-1.46093e-05
2.0202e-05
-1.66803e-05
2.07281e-05
-1.73754e-05
2.08769e-05
-1.71687e-05
1.70767e-05
-1.7825e-05
6.07397e-06
-1.83643e-05
-9.61207e-06
-1.55414e-05
-2.44557e-05
-9.61553e-06
-3.46954e-05
-2.08983e-06
-3.94037e-05
5.41685e-06
-3.51468e-05
6.24119e-06
-1.62964e-05
8.10697e-06
7.25803e-06
-1.2011e-05
1.02999e-05
4.21068e-07
9.92043e-06
1.29768e-05
8.21798e-06
1.57098e-05
8.41987e-06
2.61855e-06
8.13196e-06
-8.98935e-06
4.55187e-06
-2.54242e-06
-1.27834e-06
1.08704e-05
-5.74943e-06
1.73512e-05
-8.75636e-06
1.97044e-05
-1.16456e-05
2.20814e-05
-1.44203e-05
2.29767e-05
-1.67489e-05
2.30567e-05
-1.84259e-05
2.25539e-05
-1.9643e-05
1.82938e-05
-2.05919e-05
7.02286e-06
-1.96435e-05
-1.05604e-05
-1.62646e-05
-2.78345e-05
-1.16102e-05
-3.93497e-05
-3.49023e-06
-4.75237e-05
6.05694e-06
-4.46939e-05
8.79214e-06
-1.90316e-05
1.68991e-05
1.19875e-05
-2.39985e-05
1.63521e-05
-3.94349e-06
1.55477e-05
1.37811e-05
1.40036e-05
1.72539e-05
1.35015e-05
3.1206e-06
1.25967e-05
-8.08452e-06
7.94573e-06
2.10855e-06
1.23128e-06
1.75848e-05
-4.02226e-06
2.26047e-05
-6.95829e-06
2.26405e-05
-9.63613e-06
2.47592e-05
-1.23766e-05
2.57171e-05
-1.51078e-05
2.57879e-05
-1.79515e-05
2.53976e-05
-2.05448e-05
2.08871e-05
-2.22313e-05
8.70934e-06
-2.23614e-05
-1.04303e-05
-2.11433e-05
-2.90527e-05
-1.57911e-05
-4.4702e-05
-4.8037e-06
-5.85111e-05
5.51117e-06
-5.50088e-05
9.49738e-06
-2.30178e-05
2.63965e-05
-1.80951e-06
1.80951e-06
-6.42987e-06
4.62036e-06
1.63687e-05
-2.27985e-05
4.192e-05
-2.55514e-05
5.41678e-05
-1.22478e-05
5.67771e-05
-2.60931e-06
5.54032e-05
1.37392e-06
4.92083e-05
6.19485e-06
3.78257e-05
1.13826e-05
2.50031e-05
1.28226e-05
4.52647e-06
2.04766e-05
-1.44367e-05
1.89632e-05
-1.87024e-05
4.26567e-06
-1.62821e-05
-2.4203e-06
-1.78506e-05
1.56848e-06
-2.11717e-05
3.32119e-06
-1.1296e-05
-9.87575e-06
8.73398e-07
-1.21694e-05
8.73383e-07
-7.32519e-06
9.1347e-06
-7.63826e-07
-1.941e-06
2.38369e-05
-4.73993e-05
3.99078e-05
-4.16223e-05
4.95122e-05
-2.18521e-05
5.53807e-05
-8.47783e-06
5.9337e-05
-2.58241e-06
6.07389e-05
4.79296e-06
5.71903e-05
1.49312e-05
4.72649e-05
2.27481e-05
2.50723e-05
4.26692e-05
-1.14385e-05
5.5474e-05
-2.62482e-05
1.90754e-05
-2.50791e-05
-3.58943e-06
-2.22471e-05
-1.26353e-06
-1.5281e-05
-3.64484e-06
1.45216e-06
-2.6609e-05
6.40993e-06
-1.71271e-05
7.28331e-06
-5.28644e-06
1.44211e-05
4.68624e-06
-1.19137e-05
2.1783e-05
-6.44961e-05
2.73274e-05
-4.71666e-05
3.03714e-05
-2.48961e-05
3.53808e-05
-1.34873e-05
4.08446e-05
-8.04623e-06
4.44807e-05
1.15693e-06
4.58421e-05
1.35697e-05
4.47659e-05
2.38243e-05
3.42969e-05
5.31383e-05
-1.80986e-06
9.15807e-05
-1.87662e-05
3.60318e-05
-1.53812e-05
-6.9744e-06
-1.31278e-05
-3.51699e-06
-5.74756e-06
-1.10251e-05
3.35417e-06
-3.57107e-05
2.48997e-06
-1.62629e-05
9.77329e-06
-1.01209e-06
1.54332e-05
9.93021e-06
-2.2856e-05
1.53351e-05
-6.9901e-05
9.50367e-06
-4.13352e-05
7.19733e-06
-2.25897e-05
1.06187e-05
-1.69086e-05
1.749e-05
-1.49176e-05
2.54663e-05
-6.81935e-06
3.35729e-05
5.46314e-06
3.89311e-05
1.8466e-05
3.54894e-05
5.658e-05
1.16633e-05
0.000115407
-4.05381e-06
5.17489e-05
-2.1041e-06
-8.92412e-06
-3.00811e-06
-2.61299e-06
2.99758e-07
-1.43329e-05
-2.27254e-06
-3.31384e-05
-3.85925e-06
-1.46762e-05
5.91403e-06
1.7562e-06
1.3677e-05
1.28531e-05
-3.39528e-05
9.76532e-06
-6.68133e-05
-3.9889e-06
-2.75809e-05
-9.58297e-06
-1.69957e-05
4.66765e-06
-3.11592e-05
2.1187e-05
-3.1437e-05
2.57015e-05
-1.13338e-05
3.04264e-05
7.38173e-07
2.9865e-05
1.90275e-05
2.42013e-05
6.22436e-05
1.85505e-05
0.000121058
5.30844e-06
6.4991e-05
5.50234e-06
-9.11802e-06
6.55156e-06
-3.66222e-06
3.3758e-06
-1.11571e-05
-7.31055e-06
-2.24521e-05
-1.85011e-05
-3.48563e-06
-1.25871e-05
3.68607e-06
9.99096e-06
1.33806e-05
-4.36474e-05
8.02246e-06
-6.14551e-05
-2.16373e-06
-1.73948e-05
-8.20481e-06
-1.09546e-05
-5.24239e-06
-3.41216e-05
-3.55778e-06
-3.31216e-05
-3.03842e-06
-1.18531e-05
-6.01059e-06
3.71031e-06
-9.73681e-06
2.27537e-05
1.59441e-06
5.09124e-05
1.59007e-05
0.000106751
2.35034e-05
5.73884e-05
1.99953e-05
-5.60997e-06
1.45449e-05
1.78817e-06
8.94149e-06
-5.5537e-06
-6.19608e-06
-7.31454e-06
-2.06519e-05
1.09702e-05
-3.3239e-05
6.75223e-06
3.23872e-06
1.32996e-05
-5.01947e-05
6.6647e-06
-5.48202e-05
-5.86258e-06
-4.86748e-06
-2.30549e-05
6.23774e-06
-3.18511e-05
-2.53254e-05
-3.64717e-05
-2.85011e-05
-5.92921e-05
1.09673e-05
-6.83246e-05
1.27428e-05
-5.63721e-05
1.08012e-05
-3.12101e-05
2.57504e-05
2.24107e-05
5.31304e-05
4.0798e-05
3.9001e-05
2.42543e-05
1.09338e-05
1.83263e-05
7.71617e-06
1.75362e-05
-4.76357e-06
1.34674e-05
-3.24583e-06
6.79389e-06
1.76438e-05
-2.64451e-05
1.02193e-05
-6.98053e-06
1.25037e-05
-5.24792e-05
-9.77023e-07
-4.13395e-05
-2.43484e-05
1.85039e-05
-4.03741e-05
2.22634e-05
-5.0927e-05
-1.47725e-05
-6.26742e-05
-1.67539e-05
-7.89531e-05
2.72462e-05
-7.35106e-05
7.3002e-06
-5.82485e-05
-4.4609e-06
-3.80932e-05
5.5951e-06
-8.41838e-06
2.34556e-05
4.73818e-06
2.58444e-05
8.7942e-06
6.87773e-06
1.36044e-05
2.90598e-06
2.70988e-05
-1.8258e-05
6.25813e-05
-3.87283e-05
7.25369e-05
7.68812e-06
4.60917e-05
3.05301e-05
-5.45286e-05
4.93531e-05
-2.27665e-05
5.33091e-05
9.8251e-06
4.66362e-05
2.39268e-05
3.82735e-05
1.14833e-05
2.89217e-05
1.26724e-06
1.94981e-05
1.15321e-05
7.59729e-06
2.94856e-05
-2.43178e-06
3.26338e-05
-9.40755e-06
2.96162e-05
-1.77667e-05
3.31183e-05
-2.56444e-05
3.35948e-05
-3.21278e-05
3.22714e-05
-4.02112e-05
3.3481e-05
-5.03616e-05
3.10375e-05
-6.43242e-05
2.26719e-05
-7.57491e-05
9.94628e-07
-6.79119e-05
-3.68899e-05
-4.16227e-05
-7.09912e-05
-1.59986e-05
-8.41352e-05
2.78802e-08
-7.10353e-05
1.78804e-05
-4.08703e-05
-2.28817e-06
4.6565e-05
1.67747e-05
-7.13033e-05
3.31596e-05
-3.91513e-05
4.76257e-05
-4.64109e-06
5.35441e-05
1.80085e-05
6.11874e-05
3.83998e-06
4.77006e-05
1.4754e-05
3.19584e-05
2.72743e-05
1.14302e-05
5.00138e-05
-1.38576e-05
5.79216e-05
-3.19885e-05
4.77471e-05
-3.97436e-05
4.08734e-05
-4.80995e-05
4.19507e-05
-6.68321e-05
5.1004e-05
-9.94918e-05
6.61407e-05
-0.000137048
6.85934e-05
-0.000158039
4.36628e-05
-0.000135959
-2.10851e-05
-8.99697e-05
-8.28791e-05
-5.69829e-05
-0.000103978
-4.40353e-05
-9.70828e-05
-3.7616e-05
-7.74546e-05
-2.72339e-05
-5.12523e-05
-2.06367e-05
-8.88534e-06
-1.58737e-05
-5.54296e-05
-2.27215e-05
-3.23034e-05
-1.74011e-05
-9.96158e-06
-1.91965e-05
1.98039e-05
-6.13161e-05
4.59597e-05
-0.000117154
7.05914e-05
-0.00014708
5.72007e-05
-0.000137543
4.04768e-05
-0.000116455
3.68332e-05
-0.000108288
3.95806e-05
-0.000114408
4.6993e-05
-0.000138707
6.625e-05
-0.000180504
9.2801e-05
-0.000222385
0.000108022
-0.000239608
8.58162e-05
-0.000208944
1.29989e-05
-0.00015378
-7.62494e-05
-0.000117187
-0.000119472
-0.000102528
-0.000118637
-9.83508e-05
-0.00010126
-9.57041e-05
-8.01013e-05
-8.38251e-05
-6.31313e-05
-4.166e-05
-6.28019e-05
-2.24995e-05
-3.293e-05
-3.60263e-05
-1.87766e-05
-7.06505e-05
2.46625e-05
-0.000125395
7.4548e-05
-0.00021038
0.000130945
-0.000264059
0.00012427
-0.000285342
7.84838e-05
-0.000286737
4.18715e-05
-0.000269165
1.92607e-05
-0.000243176
1.35917e-05
-0.000228232
3.2049e-05
-0.000231303
6.93215e-05
-0.000244098
0.000105596
-0.000244305
0.000108229
-0.000216064
5.7575e-05
-0.000183409
-1.96556e-05
-0.000168773
-9.08855e-05
-0.000160204
-0.000128041
-0.00015266
-0.000126181
-0.000149824
-0.000104096
-0.00015284
-7.70852e-05
-0.000146945
-6.90258e-05
-5.29231e-05
-0.000135682
3.18623e-06
-3.61163e-05
-3.44759e-05
1.88855e-05
-0.000123217
0.000113403
-0.000190769
0.000142101
-0.000260992
0.000201168
-0.000285134
0.000148413
-0.000288641
8.19908e-05
-0.000293478
4.67082e-05
-0.000281304
7.08693e-06
-0.000275682
7.96959e-06
-0.000269647
2.6014e-05
-0.000252662
5.23364e-05
-0.000228553
8.1487e-05
-0.000197876
7.75525e-05
-0.000173918
3.36169e-05
-0.000179018
-1.45554e-05
-0.000193621
-7.62834e-05
-0.00018812
-0.000133542
-0.000179463
-0.000134837
-0.000176734
-0.000106826
-0.000190029
-6.379e-05
-0.000207351
-5.17034e-05
-4.06684e-05
-0.000219606
-1.27101e-05
-2.34061e-05
-1.19044e-05
1.80795e-05
-0.000105058
0.000206557
-0.000184174
0.000221217
-0.000230243
0.000247237
-0.000257853
0.000176023
-0.000276422
0.000100559
-0.000288426
5.87126e-05
-0.0002846
3.26147e-06
-0.000267703
-8.92831e-06
-0.000260987
1.92979e-05
-0.000248589
3.99388e-05
-0.000216529
4.94269e-05
-0.0001863
4.73241e-05
-0.000172356
1.96727e-05
-0.000196862
9.95038e-06
-0.000204217
-6.89281e-05
-0.000198225
-0.000139535
-0.000188708
-0.000144355
-0.000183867
-0.000111667
-0.000182919
-6.47376e-05
-0.000195705
-3.89174e-05
-2.6961e-05
-0.000209413
-1.03871e-05
-1.3019e-05
-1.09743e-05
1.86665e-05
-6.18281e-05
0.000257411
-0.000106967
0.000266357
-0.000117326
0.000257596
-0.00011829
0.000176986
-0.000105147
8.74167e-05
-7.797e-05
3.15354e-05
-6.66302e-05
-8.07854e-06
-9.46461e-05
1.90876e-05
-0.000158223
8.28751e-05
-0.000218997
0.000100712
-0.000213146
4.35765e-05
-0.000186458
2.06358e-05
-0.000184372
1.75865e-05
-0.000193013
1.85919e-05
-0.00019005
-7.18917e-05
-0.00019131
-0.000138274
-0.000187071
-0.000148593
-0.000176806
-0.000121933
-0.000161892
-7.96506e-05
-0.000155584
-4.52259e-05
-2.34018e-05
-0.000159143
-1.601e-05
2.99097e-06
-3.89992e-05
4.16557e-05
-2.58455e-05
0.000244257
-8.70591e-06
0.000249217
4.23999e-05
0.00020649
0.000146537
7.28493e-05
0.000236571
-2.61688e-06
0.000271749
-3.64345e-06
0.000205179
5.84918e-05
9.07821e-05
0.000133484
-1.51763e-05
0.000188834
-0.000133025
0.000218561
-0.00017153
8.20808e-05
-0.000184316
3.34216e-05
-0.00018671
1.99804e-05
-0.000168372
2.54469e-07
-0.000169622
-7.06414e-05
-0.000180237
-0.00012766
-0.000185869
-0.000142961
-0.000168682
-0.00013912
-0.000144897
-0.000103436
-0.000119692
-7.04309e-05
-4.87155e-05
-9.43781e-05
-3.51924e-05
3.81833e-05
-7.49994e-05
8.14627e-05
-3.36732e-05
0.000202931
1.56729e-05
0.000199871
6.2427e-05
0.000159736
6.61036e-05
6.91728e-05
3.33972e-05
3.00895e-05
-9.62467e-06
3.93784e-05
-3.89471e-05
8.78142e-05
-7.04011e-05
0.000164938
-0.000107333
0.000225766
-0.0001244
0.000235627
-0.000147795
0.000105476
-0.000154522
4.01489e-05
-0.00014914
1.45991e-05
-0.000134945
-1.39408e-05
-0.000143845
-6.17422e-05
-0.000163803
-0.000107702
-0.000173958
-0.000132806
-0.00018174
-0.000131338
-0.000149373
-0.000135803
-0.000118839
-0.000100965
-7.8692e-05
-8.88625e-05
-6.33929e-05
0.000101576
-0.000131973
0.000150043
-0.00011418
0.000185137
-9.70151e-05
0.000182706
-0.000101336
0.000164057
-0.000143606
0.000111443
-0.000179182
6.56658e-05
-0.000191382
5.15778e-05
-0.000201207
9.76398e-05
-0.000208351
0.000172082
-0.000205574
0.000222988
-0.00017626
0.000206314
-0.00016596
9.51754e-05
-0.000157582
3.17711e-05
-0.000141219
-1.76411e-06
-0.000123836
-3.13234e-05
-0.000120506
-6.50729e-05
-0.000132682
-9.55255e-05
-0.000151419
-0.000114069
-0.000155927
-0.00012683
-0.000162964
-0.000128767
-0.000156235
-0.000107694
-0.000126993
-0.000107933
-9.75121e-05
0.000199088
-0.00015787
0.000210401
-0.000181901
0.000209168
-0.000180388
0.000181193
-0.000201487
0.000185155
-0.000231418
0.000141374
-0.000269391
0.000103638
-0.000301794
8.39813e-05
-0.000310996
0.000106842
-0.000292282
0.000153368
-0.000252787
0.000183493
-0.000196592
0.000150119
-0.000166808
6.53909e-05
-0.000147922
1.28848e-05
-0.000128833
-2.08533e-05
-0.000110674
-4.94818e-05
-0.000103818
-7.19295e-05
-0.000108852
-9.04918e-05
-0.000118319
-0.000104601
-0.000129291
-0.000115859
-0.000145621
-0.000112437
-0.000141846
-0.000111468
-0.000114239
-0.0001546
-6.83264e-05
0.000267415
-0.000117199
0.000259274
-0.000176632
0.000268601
-0.000215302
0.000219863
-0.000252907
0.00022276
-0.00028715
0.000175618
-0.000312047
0.000128535
-0.000329012
0.000100946
-0.00032498
0.000102811
-0.000297163
0.000125551
-0.000244225
0.000130554
-0.000186155
9.2049e-05
-0.000152775
3.20109e-05
-0.000130464
-9.42515e-06
-0.000111546
-3.97718e-05
-9.88903e-05
-6.21377e-05
-9.15965e-05
-7.92231e-05
-8.98971e-05
-9.21912e-05
-9.25785e-05
-0.00010192
-9.96225e-05
-0.000108815
-0.000101338
-0.000110721
-9.81963e-05
-0.00011461
-0.000115567
-9.68688e-05
-5.69094e-06
0.000273106
-5.80453e-05
0.000311628
-0.000131723
0.000342279
-0.000200483
0.000288623
-0.000242745
0.000265022
-0.000270083
0.000202956
-0.000285835
0.000144288
-0.000293242
0.000108352
-0.00028907
9.86392e-05
-0.000264184
0.000100665
-0.000221074
8.74435e-05
-0.000179876
5.08515e-05
-0.000155999
8.13375e-06
-0.000138391
-2.70325e-05
-0.000123066
-5.50972e-05
-0.000108506
-7.66982e-05
-9.55209e-05
-9.22085e-05
-8.53495e-05
-0.000102363
-7.91685e-05
-0.000108101
-7.7644e-05
-0.00011034
-7.7472e-05
-0.000110893
-7.72371e-05
-0.000114845
-0.000118353
-7.44508e-05
4.15456e-05
0.00023156
-7.47513e-06
0.000360649
-9.19776e-05
0.000426781
-0.000162892
0.000359537
-0.00020156
0.000303691
-0.000223601
0.000224996
-0.000237166
0.000157853
-0.000248527
0.000119712
-0.000254961
0.000105073
-0.00024776
9.34639e-05
-0.000228772
6.84552e-05
-0.000208618
3.06977e-05
-0.000190022
-1.04619e-05
-0.000169489
-4.75649e-05
-0.000147796
-7.67906e-05
-0.000127143
-9.73514e-05
-0.000108525
-0.000110827
-9.23154e-05
-0.000118573
-7.8818e-05
-0.000121599
-6.80637e-05
-0.000121094
-5.97701e-05
-0.000119187
-5.61842e-05
-0.000118431
-0.000119916
-5.46208e-05
1.99037e-05
0.000211656
-3.79744e-06
0.00038435
-6.6855e-05
0.000489839
-0.000127525
0.000420207
-0.000161864
0.000338029
-0.000183783
0.000246916
-0.000206136
0.000180206
-0.000234901
0.000148477
-0.000260802
0.000130974
-0.000272268
0.00010493
-0.00026851
6.46973e-05
-0.000254583
1.67706e-05
-0.000231496
-3.35492e-05
-0.000202039
-7.70215e-05
-0.000170817
-0.000108012
-0.000142353
-0.000125815
-0.000118351
-0.000134828
-9.86541e-05
-0.00013827
-8.23943e-05
-0.000137859
-6.8587e-05
-0.000134902
-5.68983e-05
-0.000130876
-4.79229e-05
-0.000127406
-0.000124904
-4.29352e-05
1.19198e-05
0.000199736
1.65927e-06
0.00039461
-5.09168e-05
0.000542415
-0.000100064
0.000469354
-0.000131749
0.000369715
-0.000161225
0.000276392
-0.000201848
0.000220829
-0.000251437
0.000198066
-0.000293169
0.000172706
-0.000316282
0.000128043
-0.000320456
6.88718e-05
-0.000307482
3.79662e-06
-0.00027887
-6.21606e-05
-0.000238267
-0.000117625
-0.000193919
-0.00015236
-0.000154408
-0.000165326
-0.00012292
-0.000166316
-9.91148e-05
-0.000162075
-8.11042e-05
-0.00015587
-6.7139e-05
-0.000148867
-5.59663e-05
-0.000142048
-4.71864e-05
-0.000136186
-0.00013133
-4.0761e-05
7.5917e-06
0.000192145
-1.62173e-06
0.000403824
-4.61791e-05
0.000586972
-8.33219e-05
0.000506497
-0.00011259
0.000398983
-0.000153835
0.000317636
-0.000213498
0.000280492
-0.000278837
0.000263404
-0.000330975
0.000224845
-0.000362096
0.000159165
-0.000370901
7.76755e-05
-0.000356894
-1.02104e-05
-0.000321933
-9.7122e-05
-0.000270426
-0.000169132
-0.000213122
-0.000209663
-0.000161862
-0.000216587
-0.000122031
-0.000206146
-9.39251e-05
-0.000190182
-7.43371e-05
-0.000175458
-6.05283e-05
-0.000162676
-5.07901e-05
-0.000151786
-4.39634e-05
-0.000143013
-0.000136046
-3.92471e-05
2.47392e-06
0.000189671
-2.07413e-05
0.000427039
-5.20651e-05
0.000618296
-7.59856e-05
0.000530418
-0.000102855
0.000425852
-0.000154132
0.000368914
-0.000224886
0.000351245
-0.000295139
0.000333658
-0.00034753
0.000277236
-0.000377098
0.000188733
-0.000383166
8.37436e-05
-0.000366561
-2.68146e-05
-0.000328709
-0.000134974
-0.00027405
-0.00022379
-0.000212631
-0.000271083
-0.000155685
-0.000273533
-0.000110998
-0.000250834
-8.09529e-05
-0.000220227
-6.17629e-05
-0.000194648
-4.92425e-05
-0.000175196
-4.11772e-05
-0.000159852
-3.64012e-05
-0.000147789
-0.00013847
-3.39766e-05
-1.17601e-05
0.000201431
-5.21798e-05
0.000467459
-6.59297e-05
0.000632046
-7.30268e-05
0.000537515
-9.61919e-05
0.000449018
-0.00014952
0.000422241
-0.000217652
0.000419377
-0.00027828
0.000394287
-0.000317783
0.000316739
-0.000335865
0.000206814
-0.000333335
8.12133e-05
-0.000312895
-4.72547e-05
-0.000277891
-0.000169978
-0.000230488
-0.000271193
-0.000176995
-0.000324575
-0.000125112
-0.000325417
-8.38159e-05
-0.000292129
-5.71961e-05
-0.000246846
-4.20885e-05
-0.000209755
-3.33806e-05
-0.000183903
-2.83488e-05
-0.000164883
-2.59356e-05
-0.000150202
-0.000138809
-2.55968e-05
-2.48075e-05
0.000226238
-6.65779e-05
0.000509229
-7.14437e-05
0.000636911
-6.55075e-05
0.000531579
-8.29514e-05
0.000466461
-0.000127481
0.000466771
-0.000179081
0.000470977
-0.000218096
0.000433302
-0.000237995
0.000336637
-0.000241398
0.000210218
-0.000230836
7.06508e-05
-0.000208629
-6.94614e-05
-0.00017841
-0.000200197
-0.000143079
-0.000306524
-0.00010448
-0.000363175
-6.65266e-05
-0.00036337
-3.82447e-05
-0.000320411
-2.23741e-05
-0.000262717
-1.56794e-05
-0.00021645
-1.34161e-05
-0.000186167
-1.29722e-05
-0.000165327
-1.37306e-05
-0.000149444
-0.000136996
-1.55436e-05
-1.39843e-05
0.000240223
-3.8434e-05
0.000533679
-5.47316e-05
0.000653209
-4.66146e-05
0.000523462
-5.75076e-05
0.000477354
-8.55501e-05
0.000494813
-0.000113296
0.000498723
-0.000128593
0.000448599
-0.000130526
0.00033857
-0.000120704
0.000200396
-0.000101244
5.11914e-05
-7.64872e-05
-9.42187e-05
-5.11761e-05
-0.000225508
-2.65026e-05
-0.000331197
-5.06035e-06
-0.000384617
1.16064e-05
-0.000380037
1.97989e-05
-0.000328604
1.96063e-05
-0.000262524
1.46985e-05
-0.000211542
8.92393e-06
-0.000180392
3.82282e-06
-0.000160226
-6.9277e-07
-0.000144928
-0.000132741
-4.94685e-06
-6.61744e-06
0.00024684
-2.00634e-05
0.000547125
-2.8239e-05
0.000661385
-1.9106e-05
0.000514329
-2.28979e-05
0.000481146
-3.12973e-05
0.000503212
-3.52924e-05
0.000502718
-2.89157e-05
0.000442223
-1.37118e-05
0.000323366
1.21497e-05
0.000174535
3.6197e-05
2.71442e-05
6.15628e-05
-0.000119584
8.31695e-05
-0.000247114
9.67158e-05
-0.000344743
0.000100275
-0.000388176
9.39961e-05
-0.000373758
7.98019e-05
-0.00031441
6.16516e-05
-0.000244374
4.42089e-05
-0.0001941
3.04346e-05
-0.000166618
2.0106e-05
-0.000149898
1.20793e-05
-0.000136901
-0.000126114
5.45216e-06
1.25876e-05
0.000234252
-2.00762e-05
0.000579788
-1.34325e-05
0.000654741
4.36879e-06
0.000496528
1.20664e-05
0.000473448
2.35399e-05
0.000491739
4.34863e-05
0.000482772
7.15218e-05
0.000414187
0.000103286
0.000291602
0.000135455
0.000142366
0.000162726
-1.25858e-07
0.000187353
-0.000144211
0.000207746
-0.000267508
0.000214744
-0.000351742
0.00020087
-0.000374302
0.000168536
-0.000341423
0.000130534
-0.000276408
9.53234e-05
-0.000209163
6.77586e-05
-0.000166535
4.80449e-05
-0.000146905
3.38744e-05
-0.000135727
2.31648e-05
-0.000126191
-0.000117635
1.46862e-05
-2.50253e-05
0.000259278
-4.27972e-05
0.00059756
-2.05747e-05
0.000632519
9.91074e-06
0.000466042
3.43458e-05
0.000449013
6.56685e-05
0.000460416
0.000104507
0.000443934
0.000148049
0.000370645
0.000190338
0.000249312
0.000226575
0.000106129
0.000262096
-3.56464e-05
0.000291162
-0.000173278
0.000313575
-0.00028992
0.000311092
-0.000349259
0.000277024
-0.000340234
0.000220665
-0.000285065
0.000161937
-0.000217679
0.000114513
-0.000161739
8.18369e-05
-0.000133859
5.9773e-05
-0.000124841
4.38819e-05
-0.000119836
3.17722e-05
-0.000114081
-0.000108078
2.22155e-05
-1.88919e-05
0.00027817
-1.72944e-06
0.000580397
3.03974e-06
0.00062775
6.86783e-06
0.000462214
3.26611e-05
0.00042322
7.54872e-05
0.00041759
0.000124933
0.000394488
0.000178778
0.0003168
0.000232725
0.000195366
0.000283598
5.52558e-05
0.000333928
-8.5976e-05
0.000375424
-0.000214774
0.000391229
-0.000305725
0.000366862
-0.000324892
0.000307775
-0.000281147
0.000233302
-0.000210592
0.000165023
-0.0001494
0.000116143
-0.000112859
8.55791e-05
-0.000103295
6.51625e-05
-0.000104424
4.97562e-05
-0.000104429
3.75863e-05
-0.000101911
-9.82939e-05
2.78021e-05
5.49894e-06
0.000272671
5.22548e-05
0.000533642
7.95208e-05
0.000600483
4.06946e-05
0.000501041
3.36381e-05
0.000430277
6.25712e-05
0.000388657
0.000113316
0.000343743
0.000184751
0.000245366
0.000262479
0.000117637
0.000331046
-1.33108e-05
0.000386549
-0.000141478
0.000419709
-0.000247933
0.000407339
-0.000293355
0.000351136
-0.00026869
0.000274525
-0.000204536
0.000199428
-0.000135495
0.000140409
-9.03804e-05
0.000103638
-7.60884e-05
8.16237e-05
-8.12817e-05
6.54816e-05
-8.82819e-05
5.20487e-05
-9.09965e-05
4.08459e-05
-9.07084e-05
-8.89833e-05
3.15353e-05
6.09497e-06
0.000266576
7.86688e-05
0.000461068
0.000136264
0.000542888
0.000112103
0.000525202
8.70304e-05
0.00045535
9.71845e-05
0.000378503
0.000156785
0.000284142
0.000236475
0.000165676
0.000302636
5.14764e-05
0.000359721
-7.03959e-05
0.000393782
-0.00017554
0.000388048
-0.000242199
0.000338216
-0.000243523
0.000264669
-0.000195142
0.000193251
-0.000133119
0.000138388
-8.06319e-05
0.000104356
-5.63486e-05
8.66346e-05
-5.83668e-05
7.44257e-05
-6.90729e-05
6.28174e-05
-7.66736e-05
5.18698e-05
-8.00489e-05
4.21605e-05
-8.09992e-05
-8.05606e-05
3.37378e-05
4.01141e-05
0.000226462
9.62247e-05
0.000404957
0.00015517
0.000483943
0.000183634
0.000496737
0.000187487
0.000451496
0.000206785
0.000359205
0.000249531
0.000241396
0.000289707
0.0001255
0.000333116
8.0671e-06
0.000363265
-0.000100544
0.000354496
-0.000166771
0.000300443
-0.000188147
0.000225503
-0.000168583
0.000155939
-0.000125577
0.000106182
-8.3362e-05
8.23793e-05
-5.68294e-05
7.61533e-05
-5.01228e-05
7.34183e-05
-5.5632e-05
6.74776e-05
-6.31322e-05
5.91709e-05
-6.83669e-05
5.04602e-05
-7.13383e-05
4.2256e-05
-7.2795e-05
-7.31249e-05
3.48202e-05
2.41597e-05
0.000202302
8.61873e-05
0.000342929
0.00014494
0.00042519
0.000198722
0.000442956
0.000235754
0.000414464
0.000263267
0.000331692
0.000288632
0.000216031
0.000314566
9.95665e-05
0.000332699
-1.00658e-05
0.000315745
-8.35903e-05
0.000267226
-0.000118252
0.000202176
-0.000123096
0.000140946
-0.000107353
9.78482e-05
-8.24796e-05
7.58734e-05
-6.13873e-05
6.99907e-05
-5.09469e-05
6.98778e-05
-5.001e-05
6.79099e-05
-5.36641e-05
6.27654e-05
-5.79878e-05
5.59436e-05
-6.15452e-05
4.87194e-05
-6.41142e-05
4.16938e-05
-6.57693e-05
-6.65679e-05
3.51368e-05
1.21953e-05
0.000190107
6.31692e-05
0.000291956
0.000119722
0.000368637
0.000176397
0.000386281
0.000221843
0.000369018
0.000257032
0.000296502
0.00028349
0.000189574
0.000298197
8.48587e-05
0.000286381
1.75059e-06
0.000247207
-4.44159e-05
0.000196438
-6.74836e-05
0.000146752
-7.34105e-05
0.000107772
-6.83726e-05
8.40561e-05
-5.87641e-05
7.36543e-05
-5.09855e-05
7.03741e-05
-4.76668e-05
6.81804e-05
-4.78163e-05
6.44389e-05
-4.99225e-05
5.9204e-05
-5.27529e-05
5.31787e-05
-5.55199e-05
4.69131e-05
-5.78485e-05
4.07534e-05
-5.96096e-05
-6.07361e-05
3.49218e-05
9.06449e-06
0.000181042
3.74848e-05
0.000263536
8.78915e-05
0.00031823
0.000141729
0.000332444
0.000193728
0.000317019
0.000234318
0.000255913
0.000257106
0.000166785
0.000257636
8.43292e-05
0.000232084
2.73034e-05
0.000196539
-8.87169e-06
0.000159017
-2.99615e-05
0.000126307
-4.07005e-05
0.000101865
-4.39303e-05
8.64799e-05
-4.33791e-05
7.76629e-05
-4.21685e-05
7.18832e-05
-4.18871e-05
6.6933e-05
-4.28661e-05
6.1841e-05
-4.48305e-05
5.64163e-05
-4.73283e-05
5.0773e-05
-4.98766e-05
4.50964e-05
-5.21719e-05
3.95625e-05
-5.40755e-05
-5.54923e-05
3.43189e-05
6.46617e-06
0.000174575
2.00175e-05
0.000249985
5.70236e-05
0.000281224
0.000104309
0.000285158
0.000157255
0.000264074
0.000200638
0.000212529
0.000219502
0.000147922
0.000213368
9.04632e-05
0.000193102
4.75694e-05
0.000167464
1.67656e-05
0.000142418
-4.91526e-06
0.000120135
-1.84173e-05
0.000102232
-2.60269e-05
8.89185e-05
-3.00658e-05
7.90898e-05
-3.23398e-05
7.14965e-05
-3.42937e-05
6.51501e-05
-3.65196e-05
5.94054e-05
-3.90857e-05
5.38751e-05
-4.17979e-05
4.8466e-05
-4.44674e-05
4.32026e-05
-4.69084e-05
3.81561e-05
-4.90288e-05
-5.07452e-05
3.34092e-05
6.38966e-06
0.000168186
1.82365e-05
0.000238138
4.80172e-05
0.000251444
8.97427e-05
0.000243432
0.000135195
0.000218621
0.000168438
0.000179286
0.000181514
0.000134846
0.000177915
9.40626e-05
0.000165235
6.025e-05
0.000148616
3.33847e-05
0.000130762
1.2939e-05
0.000113933
-1.58838e-06
9.92901e-05
-1.13845e-05
8.71131e-05
-1.78889e-05
7.73079e-05
-2.25346e-05
6.93514e-05
-2.63371e-05
6.26472e-05
-2.98153e-05
5.67155e-05
-3.31539e-05
5.12369e-05
-3.63193e-05
4.60628e-05
-3.92932e-05
4.11596e-05
-4.20049e-05
3.65369e-05
-4.44059e-05
-4.64423e-05
3.22342e-05
7.77187e-06
0.000160414
2.33679e-05
0.000222542
5.00974e-05
0.000224714
8.41336e-05
0.000209396
0.000117198
0.000185557
0.0001403
0.000156184
0.000150301
0.000124845
0.000149618
9.47463e-05
0.000142174
6.76937e-05
0.000130969
4.45898e-05
0.000118031
2.58775e-05
0.000104966
1.14767e-05
9.28643e-05
7.17001e-07
8.23365e-05
-7.36111e-06
7.34165e-05
-1.36145e-05
6.58707e-05
-1.87913e-05
5.93613e-05
-2.3306e-05
5.35743e-05
-2.73669e-05
4.83226e-05
-3.10675e-05
4.34526e-05
-3.44231e-05
3.89148e-05
-3.74668e-05
3.46925e-05
-4.01834e-05
-4.25457e-05
3.07961e-05
8.25171e-06
0.000152162
2.60052e-05
0.000204788
5.0019e-05
0.0002007
7.63878e-05
0.000183027
9.97691e-05
0.000162175
0.000115974
0.000139979
0.000123897
0.000116923
0.000124816
9.3827e-05
0.000120683
7.18267e-05
0.000113248
5.20252e-05
0.000103982
3.5144e-05
9.41234e-05
2.13348e-05
8.45732e-05
1.02671e-05
7.5835e-05
1.37711e-06
6.81319e-05
-5.91146e-06
6.13541e-05
-1.20134e-05
5.53527e-05
-1.73047e-05
4.99664e-05
-2.19806e-05
4.50755e-05
-2.61764e-05
4.05801e-05
-2.99275e-05
3.64246e-05
-3.33111e-05
3.25816e-05
-3.63403e-05
-3.90077e-05
2.90436e-05
7.82808e-06
0.000144334
2.50348e-05
0.000187581
4.57378e-05
0.000179997
6.60143e-05
0.000162751
8.28868e-05
0.000145303
9.46829e-05
0.000128182
0.000101158
0.000110448
0.000102952
9.20328e-05
0.000101015
7.37642e-05
9.63513e-05
5.66885e-05
8.99635e-05
4.15316e-05
8.27602e-05
2.85381e-05
7.54414e-05
1.7586e-05
6.84422e-05
8.37625e-06
6.19643e-05
5.66376e-07
5.60985e-05
-6.14764e-06
5.07724e-05
-1.19787e-05
4.59282e-05
-1.71363e-05
4.14837e-05
-2.17318e-05
3.74059e-05
-2.58496e-05
3.36319e-05
-2.95369e-05
3.01294e-05
-3.28377e-05
-3.576e-05
2.68818e-05
7.16347e-06
0.000137171
2.23966e-05
0.000172348
3.95944e-05
0.000162799
5.52921e-05
0.000147053
6.78361e-05
0.000132759
7.67489e-05
0.00011927
8.21433e-05
0.000105054
8.43469e-05
8.98293e-05
8.3795e-05
7.43161e-05
8.10496e-05
5.94338e-05
7.67705e-05
4.58107e-05
7.16064e-05
3.37021e-05
6.60879e-05
2.31045e-05
6.05812e-05
1.38829e-05
5.52957e-05
5.85191e-06
5.03389e-05
-1.19086e-06
4.57501e-05
-7.38978e-06
4.14957e-05