/*--------------------------------*- C++ -*----------------------------------*\
| =========                 |                                                 |
| \\      /  F ield         | OpenFOAM: The Open Source CFD Toolbox           |
|  \\    /   O peration     | Version:  5.x                                   |
|   \\  /    A nd           | Web:      www.OpenFOAM.org                      |
|    \\/     M anipulation  |                                                 |
\*---------------------------------------------------------------------------*/
FoamFile
{
    version     2.0;
    format      ascii;
    class       volVectorField;
    location    "1";
    object      U;
}
// * * * * * * * * * * * * * * * * * * * * * * * * * * * * * * * * * * * * * //

dimensions      [0 1 -1 0 0 0 0];

internalField   nonuniform List<vector> 
2268
(
(0.0241225 -0.0182776 0)
(0.0588702 -0.0114194 0)
(0.0530186 0.00471499 0)
(-0.00980685 0.017373 0)
(-0.0636106 0.0114537 0)
(-0.0590718 -0.00195831 0)
(-0.0326091 -0.00431922 0)
(-0.0218477 0.00108277 0)
(-0.0355021 0.00518346 0)
(-0.0641469 0.00806324 0)
(-0.103152 0.0100219 0)
(-0.146125 0.00708305 0)
(-0.172446 -0.00401969 0)
(-0.177427 -0.00993286 0)
(-0.205767 0.00949881 0)
(-0.317352 0.03429 0)
(-0.422517 0.0204197 0)
(-0.396959 -0.0136188 0)
(-0.294528 -0.0286766 0)
(-0.205892 -0.0265644 0)
(-0.12416 -0.0237987 0)
(-0.0514457 -0.0198298 0)
(-0.00754645 -0.00852179 0)
(-0.000754217 -0.0236799 0)
(-0.0100292 -0.00285812 0)
(-0.0304196 0.0254166 0)
(-0.074347 0.036757 0)
(-0.0920988 0.0155894 0)
(-0.0713438 -0.0126655 0)
(-0.0429414 -0.0158696 0)
(-0.0251658 0.00159852 0)
(-0.0391476 0.0159113 0)
(-0.0726934 0.0249056 0)
(-0.116137 0.0301733 0)
(-0.161604 0.0274641 0)
(-0.205559 0.0184963 0)
(-0.271987 0.0276476 0)
(-0.363687 0.0588343 0)
(-0.437708 0.0642603 0)
(-0.412889 0.0108651 0)
(-0.293576 -0.0530688 0)
(-0.214379 -0.0690127 0)
(-0.148041 -0.0604102 0)
(-0.0814375 -0.0533225 0)
(-0.0299834 -0.0429976 0)
(0.00430661 -0.0168489 0)
(-0.0111776 -0.0129608 0)
(-0.0359167 0.00771418 0)
(-0.0667242 0.0376273 0)
(-0.0922621 0.0453015 0)
(-0.0968589 0.0136458 0)
(-0.0795627 -0.0266581 0)
(-0.0491354 -0.0305953 0)
(-0.0313382 0.00015561 0)
(-0.0404223 0.0260859 0)
(-0.0680373 0.0410375 0)
(-0.102265 0.049187 0)
(-0.140762 0.0503727 0)
(-0.19132 0.0501581 0)
(-0.267433 0.0654219 0)
(-0.348319 0.0841298 0)
(-0.366063 0.0545772 0)
(-0.290632 -0.0328555 0)
(-0.210484 -0.0964639 0)
(-0.169673 -0.100373 0)
(-0.11546 -0.0882541 0)
(-0.0541186 -0.0761352 0)
(-0.0158342 -0.0578452 0)
(0.0157876 -0.0173173 0)
(-0.00557118 -0.00306035 0)
(-0.0221678 0.0205246 0)
(-0.0502652 0.0478899 0)
(-0.0737255 0.0523831 0)
(-0.081695 0.0140272 0)
(-0.062226 -0.0391341 0)
(-0.0419839 -0.0430262 0)
(-0.0340671 -0.0011222 0)
(-0.0447367 0.0348194 0)
(-0.0705096 0.0546051 0)
(-0.101187 0.0649905 0)
(-0.135212 0.069938 0)
(-0.176413 0.0777553 0)
(-0.224286 0.0946431 0)
(-0.264143 0.0962754 0)
(-0.254295 0.0414364 0)
(-0.200663 -0.0527069 0)
(-0.18079 -0.108628 0)
(-0.165305 -0.117231 0)
(-0.107224 -0.113468 0)
(-0.0350834 -0.0987209 0)
(0.00668985 -0.0697758 0)
(0.0198177 -0.0130792 0)
(0.00809178 -0.000795234 0)
(0.0129842 0.0278669 0)
(-0.00505093 0.0585617 0)
(-0.0304962 0.0609652 0)
(-0.0409922 0.0158136 0)
(-0.0163459 -0.0471132 0)
(-0.0172307 -0.0471331 0)
(-0.0284725 0.00298302 0)
(-0.0489252 0.0451525 0)
(-0.0773107 0.0675725 0)
(-0.109197 0.0795915 0)
(-0.143034 0.0859895 0)
(-0.175483 0.0950444 0)
(-0.19736 0.10807 0)
(-0.201787 0.0977165 0)
(-0.186238 0.0332167 0)
(-0.176718 -0.0572176 0)
(-0.190698 -0.112457 0)
(-0.161968 -0.138143 0)
(-0.0860747 -0.150797 0)
(-0.0016487 -0.132035 0)
(0.0506741 -0.0811912 0)
(0.0274875 -0.00298636 0)
(0.0269549 -0.0115077 0)
(0.0578707 0.0276758 0)
(0.05506 0.0664693 0)
(0.0303174 0.0698355 0)
(0.0162183 0.0139629 0)
(0.0502677 -0.0495671 0)
(0.0261432 -0.0398826 0)
(-0.0137097 0.0160546 0)
(-0.0514918 0.0603576 0)
(-0.0856903 0.0834512 0)
(-0.118778 0.0971253 0)
(-0.153111 0.102775 0)
(-0.182905 0.107458 0)
(-0.198122 0.111695 0)
(-0.196084 0.0927321 0)
(-0.193531 0.0302644 0)
(-0.207981 -0.0514996 0)
(-0.202712 -0.122296 0)
(-0.147521 -0.17541 0)
(-0.0713777 -0.198755 0)
(0.0192564 -0.17132 0)
(0.0934839 -0.0879215 0)
(0.0461211 0.0257271 0)
(0.0577125 -0.0413951 0)
(0.10894 0.0110204 0)
(0.119242 0.0729858 0)
(0.0952061 0.0838632 0)
(0.0873767 0.0198345 0)
(0.116871 -0.0510095 0)
(0.0826582 -0.0196684 0)
(0.0140066 0.0433448 0)
(-0.0450628 0.0802215 0)
(-0.0856179 0.0939287 0)
(-0.117819 0.106162 0)
(-0.151085 0.112177 0)
(-0.181132 0.114343 0)
(-0.203207 0.112887 0)
(-0.215944 0.0906827 0)
(-0.227736 0.0322358 0)
(-0.233257 -0.0551374 0)
(-0.205328 -0.150028 0)
(-0.164114 -0.210014 0)
(-0.0987726 -0.229934 0)
(0.0124468 -0.206345 0)
(0.114846 -0.0860261 0)
(0.0773798 0.0554358 0)
(0.0900073 -0.0746909 0)
(0.177475 -0.00239312 0)
(0.186484 0.0649296 0)
(0.157865 0.0779226 0)
(0.162741 0.00347382 0)
(0.16129 -0.0548348 0)
(0.127328 -0.015534 0)
(0.0496521 0.0700448 0)
(-0.0239711 0.11282 0)
(-0.0679346 0.129281 0)
(-0.0965567 0.141847 0)
(-0.127516 0.14299 0)
(-0.158879 0.140366 0)
(-0.190143 0.135981 0)
(-0.219364 0.111406 0)
(-0.243608 0.0461163 0)
(-0.250613 -0.0632882 0)
(-0.247445 -0.154655 0)
(-0.231854 -0.205059 0)
(-0.127795 -0.268453 0)
(0.00676334 -0.264978 0)
(0.110893 -0.106669 0)
(0.100351 0.144812 0)
(0.0801068 -0.00766577 0)
(-0.140547 0.0202914 0)
(0.0374175 -0.0465498 0)
(0.331837 -0.0650936 0)
(0.561955 -0.0266366 0)
(0.661376 0.00158309 0)
(0.658799 0.00638372 0)
(0.61594 0.0187592 0)
(0.503809 0.0396193 0)
(0.371236 0.0418991 0)
(0.19091 0.0532483 0)
(-0.105521 0.0172601 0)
(-0.209962 -0.00654168 0)
(-0.184941 -0.00754366 0)
(-0.187975 0.0138535 0)
(-0.268539 0.0269067 0)
(-0.20565 -0.0215576 0)
(-0.0173417 -0.0484336 0)
(0.0317369 -0.00654004 0)
(-0.0302157 0.029333 0)
(-0.174793 0.0166099 0)
(0.173119 -0.186646 0)
(0.357404 -0.191248 0)
(0.507065 -0.107204 0)
(0.619739 -0.0342217 0)
(0.663717 0.00389158 0)
(0.690957 0.0352523 0)
(0.692425 0.0651535 0)
(0.620142 0.0856547 0)
(0.488711 0.148275 0)
(0.0379723 0.164103 0)
(-0.283379 0.0519266 0)
(-0.280168 -0.0123761 0)
(-0.300429 0.0044774 0)
(-0.255259 0.00303295 0)
(-0.0573229 -0.0858017 0)
(0.0842587 -0.0779984 0)
(0.050065 0.0136228 0)
(-0.0653869 0.0577265 0)
(-0.0811939 -0.0324403 0)
(0.213859 -0.294943 0)
(0.265666 -0.243726 0)
(0.320094 -0.131302 0)
(0.391405 -0.0601651 0)
(0.435488 -0.0350721 0)
(0.483459 0.00310186 0)
(0.527356 0.06798 0)
(0.521804 0.118222 0)
(0.542995 0.234002 0)
(0.189228 0.340503 0)
(-0.228998 0.112471 0)
(-0.158966 -0.0273356 0)
(-0.203065 -0.0184631 0)
(-0.138745 -0.0450984 0)
(0.0389463 -0.168786 0)
(0.0176143 -0.0976798 0)
(0.0493572 0.0479482 0)
(-0.0705874 0.0725444 0)
(0.0379264 -0.0841882 0)
(0.213554 -0.337337 0)
(0.11714 -0.222359 0)
(0.0730749 -0.112156 0)
(0.109113 -0.061784 0)
(0.150684 -0.0316936 0)
(0.225687 0.0110547 0)
(0.345122 0.0629352 0)
(0.434714 0.104104 0)
(0.492304 0.251021 0)
(0.314314 0.48115 0)
(-0.0826511 0.215536 0)
(0.012706 -0.0461916 0)
(-0.0622945 -0.0110757 0)
(-0.0306268 -0.0679544 0)
(0.0468944 -0.183045 0)
(-0.128448 -0.0952722 0)
(0.0718177 0.0395694 0)
(-0.0755527 0.0725368 0)
(0.11313 -0.141919 0)
(0.199987 -0.333019 0)
(0.00247462 -0.157808 0)
(-0.115913 -0.0836928 0)
(-0.0855427 -0.0918198 0)
(0.201986 -0.125862 0)
(0.23867 -0.084324 0)
(0.347238 -0.000329709 0)
(0.366597 0.0738899 0)
(0.356504 0.270183 0)
(0.288439 0.579825 0)
(0.0562843 0.297275 0)
(0.0734862 -0.0279564 0)
(0.0616837 -0.0185462 0)
(0.0674944 -0.0643982 0)
(0.0113716 -0.138069 0)
(-0.238643 -0.00919161 0)
(-0.0932817 0.0374118 0)
(-0.0709404 0.0655511 0)
(0.148826 -0.194679 0)
(0.177554 -0.312704 0)
(-0.0194615 -0.106811 0)
(-0.0726457 -0.0830762 0)
(-0.0636209 -0.188532 0)
(-0.0281047 -0.179304 0)
(-0.0834783 -0.0617229 0)
(0.0303211 -0.00705771 0)
(-0.201068 0.09417 0)
(-0.0115937 0.299496 0)
(0.121012 0.620461 0)
(0.18264 0.329274 0)
(0.298746 -0.0682912 0)
(0.147508 -0.011638 0)
(0.149107 -0.035374 0)
(0.0495808 -0.0662311 0)
(-0.246182 -0.00682382 0)
(-0.137317 -0.164338 0)
(-0.0436121 0.0388622 0)
(0.180216 -0.233852 0)
(0.143714 -0.286211 0)
(-0.0224941 -0.0653593 0)
(-0.149053 0.0124355 0)
(-0.310051 -0.125342 0)
(-0.388426 -0.156863 0)
(-0.526622 -0.0045955 0)
(-0.807394 0.0737806 0)
(-0.776696 0.106897 0)
(-0.467236 0.208822 0)
(-0.0712998 0.429361 0)
(0.516153 0.238426 0)
(0.329807 0.0136326 0)
(0.186244 0.0286421 0)
(0.200702 -0.0239658 0)
(0.20232 0.00311989 0)
(0.0298708 0.0680148 0)
(0.170786 -0.211094 0)
(0.00113384 -0.0246384 0)
(0.206859 -0.252481 0)
(0.0946269 -0.237232 0)
(-0.132486 0.0318105 0)
(-0.409422 0.0500754 0)
(-0.499814 -0.123216 0)
(-0.639814 -0.101778 0)
(-0.871861 0.108652 0)
(-0.908745 0.0228428 0)
(-0.751239 -0.00333795 0)
(-0.553546 0.068478 0)
(-0.260926 0.14719 0)
(0.0478632 0.158937 0)
(0.0502092 0.0815489 0)
(0.145491 0.0581441 0)
(0.134138 -0.0142491 0)
(0.445844 -0.0465432 0)
(0.6767 0.139152 0)
(1.1161 0.156625 0)
(0.0581785 -0.232976 0)
(0.236081 -0.0552343 0)
(0.29682 0.116051 0)
(0.27079 0.14692 0)
(0.241479 0.0595697 0)
(0.18171 0.0164369 0)
(0.123395 0.085583 0)
(0.0744489 0.146823 0)
(0.00952098 0.110259 0)
(-0.0372558 0.0768636 0)
(-0.0725882 0.0982585 0)
(-0.120965 0.11929 0)
(-0.159522 0.1276 0)
(-0.195391 0.131594 0)
(-0.239033 0.111541 0)
(-0.29556 0.0557996 0)
(-0.371357 -0.0117611 0)
(-0.414151 -0.0971052 0)
(-0.310805 -0.269139 0)
(-0.147595 -0.401522 0)
(-0.0418583 -0.368116 0)
(0.0386898 -0.198203 0)
(0.179087 0.0702968 0)
(-0.0431258 -0.415793 0)
(0.157603 -0.250867 0)
(0.251003 -0.0410783 0)
(0.288348 0.0903367 0)
(0.313 0.0308055 0)
(0.294498 -0.0248715 0)
(0.225237 0.00842869 0)
(0.128701 0.196467 0)
(-0.00117885 0.28116 0)
(-0.159088 0.259887 0)
(-0.205014 0.233313 0)
(-0.228914 0.197216 0)
(-0.300275 0.173211 0)
(-0.439012 0.189244 0)
(-0.633953 0.204017 0)
(-0.81407 0.199169 0)
(-0.838545 0.0401293 0)
(-0.602717 -0.319541 0)
(-0.366596 -0.52738 0)
(-0.268975 -0.533232 0)
(-0.231281 -0.430693 0)
(-0.191637 -0.271456 0)
(-0.0933621 -0.0820604 0)
(-0.190663 -0.359514 0)
(-0.0358769 -0.146992 0)
(-0.172469 -0.0046526 0)
(-0.028555 0.0698121 0)
(-0.131118 0.0364151 0)
(-0.541348 0.248144 0)
(-0.784352 0.320643 0)
(-0.797409 0.31079 0)
(-0.651451 0.320287 0)
(-0.576972 0.30702 0)
(-0.603932 0.276292 0)
(-0.659499 0.307145 0)
(-0.837402 0.415126 0)
(-1.11251 0.552027 0)
(-1.29341 0.55592 0)
(-1.25451 0.266649 0)
(-0.929612 -0.297703 0)
(-0.680221 -0.604232 0)
(-0.579574 -0.623424 0)
(-0.543002 -0.541952 0)
(-0.535396 -0.427071 0)
(-0.497688 -0.300998 0)
(-0.394414 -0.170777 0)
(-0.322094 -0.198138 0)
(-0.0285048 -0.151853 0)
(-0.285591 -0.0689098 0)
(-0.405198 0.192568 0)
(-0.893681 0.457024 0)
(-1.37673 0.469972 0)
(-1.50489 0.280843 0)
(-1.56091 0.128688 0)
(-1.49764 0.0649379 0)
(-1.36688 0.0875482 0)
(-1.25412 0.191936 0)
(-1.2058 0.376898 0)
(-1.26118 0.571524 0)
(-1.36225 0.597567 0)
(-1.2892 0.319454 0)
(-1.02943 -0.17921 0)
(-0.902562 -0.526353 0)
(-0.88093 -0.675403 0)
(-0.842135 -0.654435 0)
(-0.81064 -0.548741 0)
(-0.813809 -0.419933 0)
(-0.815216 -0.337619 0)
(-0.762816 -0.229422 0)
(-0.414677 -0.18554 0)
(0.287195 0.0867976 0)
(-0.473193 0.374062 0)
(-0.741251 0.643483 0)
(-1.2794 0.905327 0)
(-1.57423 0.669829 0)
(-1.51742 0.396825 0)
(-1.55879 0.210841 0)
(-1.49719 0.0820825 0)
(-1.46756 0.0372639 0)
(-1.47076 0.148507 0)
(-1.40927 0.376851 0)
(-1.29203 0.577743 0)
(-1.15536 0.584674 0)
(-0.97809 0.331047 0)
(-0.909835 -0.0434767 0)
(-1.0231 -0.480131 0)
(-1.03566 -0.713813 0)
(-0.981362 -0.698923 0)
(-0.944993 -0.56378 0)
(-0.959306 -0.398857 0)
(-1.06562 -0.384483 0)
(-1.17702 -0.278581 0)
(-0.43118 -0.17285 0)
(0.242035 0.049187 0)
(-0.324326 0.803295 0)
(-0.849934 0.989981 0)
(-1.22686 1.22652 0)
(-1.32628 0.927857 0)
(-1.41194 0.523744 0)
(-1.55239 0.28679 0)
(-1.51589 0.0386354 0)
(-1.44178 0.0612887 0)
(-1.4314 0.122535 0)
(-1.38015 0.185542 0)
(-1.25036 0.295987 0)
(-1.0643 0.248297 0)
(-0.948938 0.0214016 0)
(-0.961782 -0.182466 0)
(-1.12143 -0.476608 0)
(-1.07623 -0.765746 0)
(-1.02937 -0.752368 0)
(-0.982812 -0.580446 0)
(-0.968453 -0.31628 0)
(-1.00869 -0.227077 0)
(-1.11546 -0.193426 0)
(-0.353363 -0.0874987 0)
(0.156461 0.04147 0)
(-0.1075 1.25219 0)
(-0.593411 1.30058 0)
(-0.736925 1.38776 0)
(-0.637231 1.03456 0)
(-0.533068 0.60658 0)
(-0.642992 0.41251 0)
(-0.12565 0.00982927 0)
(-0.406553 -0.078085 0)
(-0.703565 0.180072 0)
(-1.09724 0.292174 0)
(-1.22174 0.243026 0)
(-1.09556 0.23321 0)
(-0.940542 0.148466 0)
(-1.03224 0.242508 0)
(-1.021 -0.294875 0)
(-1.02504 -0.748404 0)
(-1.02852 -0.782792 0)
(-0.973343 -0.620218 0)
(-0.898684 -0.374883 0)
(-0.832917 -0.18659 0)
(-0.822183 -0.115174 0)
(-0.228849 -0.0485599 0)
(-0.0493335 0.127702 0)
(-0.128836 1.41718 0)
(-0.119713 1.50541 0)
(-0.0718724 1.35238 0)
(0.436907 0.762401 0)
(1.09454 0.150278 0)
(1.45897 -0.133505 0)
(1.54671 -0.0422549 0)
(0.809216 0.2436 0)
(0.217109 0.558088 0)
(-0.44731 0.786233 0)
(-0.9839 0.210911 0)
(-0.936453 0.0486369 0)
(-0.959719 0.0773161 0)
(-0.948017 0.0654796 0)
(-0.871806 -0.349774 0)
(-0.95452 -0.724663 0)
(-1.01142 -0.789891 0)
(-0.953738 -0.668539 0)
(-0.837912 -0.46806 0)
(-0.709497 -0.300822 0)
(-0.582167 -0.190212 0)
(-0.177994 0.0919976 0)
(-0.336238 0.298682 0)
(-0.275264 1.30439 0)
(-0.0961933 1.29727 0)
(0.265996 1.09327 0)
(0.387325 0.346209 0)
(0.296997 -0.0194844 0)
(0.0295093 0.14784 0)
(-0.127621 0.515503 0)
(-0.218359 0.923061 0)
(-0.530851 1.20687 0)
(-0.538469 1.31284 0)
(-0.842942 0.599227 0)
(-0.834598 0.277521 0)
(-0.809039 0.140175 0)
(-0.750076 -0.0271081 0)
(-0.717941 -0.334015 0)
(-0.830989 -0.635866 0)
(-0.949886 -0.781784 0)
(-0.971835 -0.755727 0)
(-0.872259 -0.598294 0)
(-0.718339 -0.408938 0)
(-0.546049 -0.286128 0)
(-0.188975 0.389932 0)
(-0.630048 0.749708 0)
(-0.685292 0.980236 0)
(-0.516915 0.92618 0)
(-0.439157 0.661901 0)
(-0.741692 0.313726 0)
(-0.864729 0.264841 0)
(-1.01704 0.360581 0)
(-1.06377 0.630576 0)
(-1.08485 1.07528 0)
(-1.12908 1.35866 0)
(-0.981408 1.31756 0)
(-0.95549 0.591762 0)
(-0.890148 0.164467 0)
(-0.807874 0.000405009 0)
(-0.699779 -0.135435 0)
(-0.636634 -0.321746 0)
(-0.674442 -0.516106 0)
(-0.751279 -0.660089 0)
(-0.821079 -0.746862 0)
(-0.911127 -0.784822 0)
(-0.870441 -0.625896 0)
(-0.693356 -0.504423 0)
(-0.260667 0.693009 0)
(-0.845119 0.891392 0)
(-0.927111 0.943198 0)
(-0.975724 0.896543 0)
(-0.952673 0.823767 0)
(-1.19753 0.644017 0)
(-1.31609 0.434335 0)
(-1.58901 0.280122 0)
(-1.67643 0.484396 0)
(-1.63663 0.869652 0)
(-1.45658 1.13688 0)
(-1.19422 0.98965 0)
(-0.96428 0.458257 0)
(-0.849838 0.158087 0)
(-0.74319 -0.0251698 0)
(-0.625877 -0.212773 0)
(-0.561602 -0.367395 0)
(-0.561027 -0.490396 0)
(-0.609749 -0.570574 0)
(-0.675509 -0.627398 0)
(-0.731728 -0.670536 0)
(-0.764185 -0.614231 0)
(-0.81449 -0.787043 0)
(-0.311204 1.24984 0)
(-0.66525 1.24866 0)
(-0.748158 1.20765 0)
(-1.0912 1.06692 0)
(-1.19586 1.20125 0)
(-1.45725 0.961687 0)
(-1.62051 0.65723 0)
(-1.76102 0.5021 0)
(-1.78362 0.543124 0)
(-1.69171 0.721481 0)
(-1.4579 0.812971 0)
(-1.14002 0.625297 0)
(-0.891373 0.26198 0)
(-0.754079 0.00350493 0)
(-0.640972 -0.172798 0)
(-0.558313 -0.294816 0)
(-0.505286 -0.39394 0)
(-0.480816 -0.478829 0)
(-0.488188 -0.548296 0)
(-0.519123 -0.595178 0)
(-0.539406 -0.598248 0)
(-0.539139 -0.578 0)
(-0.530859 -0.563081 0)
(0.0020041 1.56196 0)
(-0.332316 1.55891 0)
(-0.379737 1.65996 0)
(-0.933878 1.36293 0)
(-1.18805 1.34486 0)
(-1.39989 1.04865 0)
(-1.50498 0.753278 0)
(-1.57142 0.569907 0)
(-1.58448 0.538185 0)
(-1.50315 0.590092 0)
(-1.30055 0.55252 0)
(-1.05487 0.353822 0)
(-0.885605 0.0976633 0)
(-0.787329 -0.0933326 0)
(-0.702256 -0.242348 0)
(-0.621435 -0.361247 0)
(-0.545683 -0.449087 0)
(-0.481673 -0.509896 0)
(-0.437771 -0.549665 0)
(-0.418426 -0.577381 0)
(-0.414608 -0.598524 0)
(-0.415938 -0.632618 0)
(-0.410309 -0.657651 0)
(0.256758 1.39785 0)
(0.0342202 1.83492 0)
(-0.127467 2.10847 0)
(-0.744721 1.74763 0)
(-1.01348 1.5169 0)
(-1.16245 1.14505 0)
(-1.24027 0.811038 0)
(-1.30437 0.600793 0)
(-1.36629 0.526213 0)
(-1.36355 0.498484 0)
(-1.27507 0.399449 0)
(-1.16387 0.212001 0)
(-1.0706 0.000973389 0)
(-0.967802 -0.188294 0)
(-0.852024 -0.344525 0)
(-0.736462 -0.460773 0)
(-0.630261 -0.541499 0)
(-0.536436 -0.591033 0)
(-0.456555 -0.613595 0)
(-0.390891 -0.614676 0)
(-0.339849 -0.606416 0)
(-0.308123 -0.613179 0)
(-0.293869 -0.631427 0)
(-0.0357526 1.2051 0)
(0.183314 2.04421 0)
(-0.159645 2.50481 0)
(-0.590867 2.11868 0)
(-0.815262 1.73112 0)
(-0.929819 1.27011 0)
(-1.03184 0.899997 0)
(-1.17851 0.704711 0)
(-1.35189 0.621646 0)
(-1.45238 0.527013 0)
(-1.46096 0.358607 0)
(-1.41015 0.135219 0)
(-1.31096 -0.101127 0)
(-1.16651 -0.314846 0)
(-0.999204 -0.478815 0)
(-0.835619 -0.587601 0)
(-0.694367 -0.653993 0)
(-0.57806 -0.688712 0)
(-0.482708 -0.698862 0)
(-0.402691 -0.691645 0)
(-0.333784 -0.675745 0)
(-0.278291 -0.662146 0)
(-0.241162 -0.656879 0)
(-0.180018 1.12593 0)
(0.245456 2.11734 0)
(-0.153074 2.79735 0)
(-0.456695 2.41771 0)
(-0.645514 1.9198 0)
(-0.76615 1.40846 0)
(-0.947067 1.06513 0)
(-1.22067 0.920452 0)
(-1.49568 0.814885 0)
(-1.66572 0.62999 0)
(-1.7292 0.366996 0)
(-1.70085 0.0672096 0)
(-1.58617 -0.234686 0)
(-1.39256 -0.49677 0)
(-1.15632 -0.67553 0)
(-0.925848 -0.765303 0)
(-0.734314 -0.799872 0)
(-0.588407 -0.804226 0)
(-0.478065 -0.790598 0)
(-0.394208 -0.76663 0)
(-0.327863 -0.73937 0)
(-0.274627 -0.714505 0)
(-0.234229 -0.693176 0)
(-0.260485 1.1125 0)
(0.296627 2.14604 0)
(-0.235622 3.05539 0)
(-0.360994 2.6484 0)
(-0.529934 2.0797 0)
(-0.674525 1.58991 0)
(-0.958869 1.33282 0)
(-1.33998 1.23035 0)
(-1.67801 1.06059 0)
(-1.89569 0.764687 0)
(-1.99729 0.392258 0)
(-1.97812 -0.014995 0)
(-1.83751 -0.420124 0)
(-1.59328 -0.757985 0)
(-1.29143 -0.959529 0)
(-0.995367 -1.01564 0)
(-0.747157 -0.995262 0)
(-0.568878 -0.946668 0)
(-0.444201 -0.893892 0)
(-0.356964 -0.842268 0)
(-0.295334 -0.795644 0)
(-0.252161 -0.757071 0)
(-0.222025 -0.72574 0)
(-0.291506 1.11093 0)
(0.312989 2.21306 0)
(-0.410012 3.27405 0)
(-0.300007 2.81473 0)
(-0.474287 2.22539 0)
(-0.633 1.8366 0)
(-1.00201 1.69059 0)
(-1.42748 1.60665 0)
(-1.77139 1.36146 0)
(-1.98561 0.951015 0)
(-2.07456 0.438775 0)
(-2.03814 -0.113656 0)
(-1.87949 -0.647181 0)
(-1.61296 -1.081 0)
(-1.29444 -1.31096 0)
(-0.980343 -1.32727 0)
(-0.70062 -1.23529 0)
(-0.502591 -1.11099 0)
(-0.375495 -1.00345 0)
(-0.293363 -0.916125 0)
(-0.239347 -0.844423 0)
(-0.205747 -0.787776 0)
(-0.187593 -0.743847 0)
(-0.232364 1.1298 0)
(0.240533 2.39751 0)
(-0.652814 3.40206 0)
(-0.244977 2.89941 0)
(-0.455762 2.36012 0)
(-0.593351 2.12807 0)
(-0.98776 2.0786 0)
(-1.37144 1.96722 0)
(-1.65332 1.59482 0)
(-1.79769 1.03303 0)
(-1.82325 0.405784 0)
(-1.75045 -0.232816 0)
(-1.59373 -0.870882 0)
(-1.34506 -1.3837 0)
(-1.07427 -1.6461 0)
(-0.805281 -1.6431 0)
(-0.550923 -1.48341 0)
(-0.369532 -1.27341 0)
(-0.260751 -1.10143 0)
(-0.200244 -0.976749 0)
(-0.164032 -0.881741 0)
(-0.144158 -0.807716 0)
(-0.13724 -0.750652 0)
(-0.163119 1.21346 0)
(0.188879 2.65939 0)
(-0.783939 3.42915 0)
(-0.166287 2.89651 0)
(-0.424545 2.47529 0)
(-0.4959 2.40776 0)
(-0.841963 2.4156 0)
(-1.11018 2.24254 0)
(-1.28462 1.75669 0)
(-1.33144 1.10071 0)
(-1.28275 0.361997 0)
(-1.17175 -0.37992 0)
(-1.03853 -1.05443 0)
(-0.826837 -1.60375 0)
(-0.636218 -1.89487 0)
(-0.454038 -1.89246 0)
(-0.272672 -1.68097 0)
(-0.164625 -1.39476 0)
(-0.100549 -1.16409 0)
(-0.0789932 -1.00833 0)
(-0.0715432 -0.897611 0)
(-0.0718847 -0.812817 0)
(-0.0784997 -0.746808 0)
(-0.189044 1.26303 0)
(0.175188 2.86978 0)
(-0.607807 3.46238 0)
(-0.0432664 2.84685 0)
(-0.341438 2.55485 0)
(-0.316473 2.61552 0)
(-0.563667 2.64142 0)
(-0.695799 2.39896 0)
(-0.7512 1.82895 0)
(-0.72197 1.10948 0)
(-0.619351 0.324907 0)
(-0.435783 -0.441816 0)
(-0.331435 -1.15006 0)
(-0.168553 -1.7352 0)
(-0.0526617 -2.04339 0)
(0.0165454 -2.03762 0)
(0.0931525 -1.77913 0)
(0.0932242 -1.43926 0)
(0.0860056 -1.17021 0)
(0.0581617 -0.999127 0)
(0.0303326 -0.884873 0)
(0.00623269 -0.79843 0)
(-0.0161546 -0.730387 0)
(-0.212518 1.14709 0)
(0.182727 2.92465 0)
(-0.416124 3.55512 0)
(0.0844647 2.80463 0)
(-0.210603 2.59546 0)
(-0.0797998 2.71835 0)
(-0.214411 2.73372 0)
(-0.213312 2.43466 0)
(-0.145096 1.8117 0)
(-0.0331327 1.04121 0)
(0.125993 0.235511 0)
(0.306167 -0.537459 0)
(0.413872 -1.25119 0)
(0.5266 -1.81638 0)
(0.580322 -2.09923 0)
(0.5386 -2.06119 0)
(0.46437 -1.76073 0)
(0.358372 -1.38875 0)
(0.268926 -1.10809 0)
(0.190872 -0.944418 0)
(0.129165 -0.841811 0)
(0.082182 -0.76376 0)
(0.0446865 -0.700608 0)
(-0.0651287 1.17067 0)
(0.191715 2.9455 0)
(-0.364525 3.56784 0)
(0.165923 2.74285 0)
(-0.0733827 2.59495 0)
(0.156645 2.71517 0)
(0.144174 2.69866 0)
(0.266976 2.35507 0)
(0.437553 1.71201 0)
(0.622379 0.917379 0)
(0.810071 0.119038 0)
(0.956831 -0.646207 0)
(1.08383 -1.35377 0)
(1.18426 -1.87042 0)
(1.17399 -2.06915 0)
(1.02032 -1.95252 0)
(0.788536 -1.61919 0)
(0.57582 -1.24034 0)
(0.416395 -0.98131 0)
(0.298444 -0.850004 0)
(0.21213 -0.773321 0)
(0.147925 -0.711823 0)
(0.0986164 -0.659085 0)
(-0.370687 1.35059 0)
(0.0885813 3.2233 0)
(-0.478797 3.45698 0)
(0.168127 2.58453 0)
(-0.0177266 2.51752 0)
(0.324009 2.60707 0)
(0.433188 2.54416 0)
(0.649073 2.16949 0)
(0.890906 1.52356 0)
(1.11547 0.74023 0)
(1.30346 -0.0714449 0)
(1.49167 -0.85128 0)
(1.66476 -1.50696 0)
(1.73943 -1.90249 0)
(1.64106 -1.94474 0)
(1.36299 -1.71109 0)
(1.00178 -1.35041 0)
(0.701919 -1.00857 0)
(0.501991 -0.811204 0)
(0.367333 -0.732438 0)
(0.27068 -0.689558 0)
(0.197797 -0.648729 0)
(0.141795 -0.609484 0)
(-0.640738 1.52097 0)
(0.349848 3.27734 0)
(-0.245619 3.39443 0)
(0.180388 2.44035 0)
(-0.0424292 2.33519 0)
(0.339105 2.37817 0)
(0.523945 2.2778 0)
(0.800028 1.87275 0)
(1.09114 1.20942 0)
(1.36097 0.395206 0)
(1.65001 -0.375906 0)
(1.94032 -1.06341 0)
(2.1247 -1.6196 0)
(2.10113 -1.84643 0)
(1.86201 -1.70653 0)
(1.46207 -1.35317 0)
(1.03409 -0.993873 0)
(0.710247 -0.734821 0)
(0.517574 -0.632183 0)
(0.394538 -0.614106 0)
(0.302436 -0.603169 0)
(0.229787 -0.581956 0)
(0.172637 -0.556453 0)
(-0.62422 1.4525 0)
(0.483418 3.00997 0)
(0.341366 3.34346 0)
(0.406023 2.55504 0)
(0.0939387 2.2127 0)
(0.265967 2.11358 0)
(0.446306 1.9553 0)
(0.769324 1.49614 0)
(1.18848 0.805947 0)
(1.6032 0.118326 0)
(1.94822 -0.533932 0)
(2.21893 -1.18426 0)
(2.28985 -1.6236 0)
(2.08637 -1.63574 0)
(1.70344 -1.32289 0)
(1.26171 -0.924105 0)
(0.871385 -0.626446 0)
(0.616956 -0.488751 0)
(0.481749 -0.485588 0)
(0.389437 -0.514349 0)
(0.311392 -0.524501 0)
(0.24568 -0.518104 0)
(0.191887 -0.504337 0)
(-0.536445 1.34228 0)
(0.523093 2.70946 0)
(0.55264 3.13626 0)
(0.708671 2.83978 0)
(0.520475 2.37613 0)
(0.450127 2.01912 0)
(0.602124 1.65671 0)
(1.0789 1.07623 0)
(1.47486 0.480328 0)
(1.78759 -0.170684 0)
(2.05351 -0.886974 0)
(2.16603 -1.44255 0)
(1.99443 -1.53686 0)
(1.63445 -1.28007 0)
(1.22724 -0.902422 0)
(0.86639 -0.551197 0)
(0.613964 -0.358267 0)
(0.492052 -0.338734 0)
(0.428232 -0.395693 0)
(0.366895 -0.440625 0)
(0.305378 -0.458696 0)
(0.249802 -0.461397 0)
(0.201891 -0.456203 0)
(-0.233185 1.20362 0)
(0.432915 2.35708 0)
(0.646798 2.78067 0)
(0.965059 2.82708 0)
(1.01702 2.5484 0)
(0.991664 2.0502 0)
(1.22944 1.43567 0)
(1.48332 0.813201 0)
(1.65096 0.165289 0)
(1.89939 -0.561256 0)
(1.98523 -1.02313 0)
(1.80405 -1.19696 0)
(1.41906 -1.09745 0)
(1.00899 -0.814876 0)
(0.680406 -0.530084 0)
(0.473883 -0.33008 0)
(0.410058 -0.262775 0)
(0.401626 -0.298883 0)
(0.380898 -0.353208 0)
(0.340148 -0.388505 0)
(0.292949 -0.406065 0)
(0.247189 -0.413173 0)
(0.20555 -0.413377 0)
(-0.0996288 1.28956 0)
(0.344433 2.0478 0)
(0.596866 2.45898 0)
(0.940413 2.57228 0)
(1.18336 2.37059 0)
(1.34141 1.89355 0)
(1.50539 1.24913 0)
(1.61676 0.606116 0)
(1.75959 -0.0721406 0)
(1.78466 -0.545029 0)
(1.5961 -0.788808 0)
(1.26277 -0.830183 0)
(0.904789 -0.717453 0)
(0.619192 -0.534404 0)
(0.447228 -0.36515 0)
(0.381258 -0.274694 0)
(0.375204 -0.26761 0)
(0.373441 -0.295783 0)
(0.35305 -0.326039 0)
(0.318889 -0.348658 0)
(0.280216 -0.363611 0)
(0.241606 -0.372344 0)
(0.205255 -0.37571 0)
(-0.0408338 1.13115 0)
(0.190897 1.63501 0)
(0.493711 2.16224 0)
(0.796044 2.26792 0)
(1.08044 2.15491 0)
(1.29335 1.74391 0)
(1.46918 1.12266 0)
(1.58763 0.463415 0)
(1.60671 -0.0572951 0)
(1.45314 -0.363741 0)
(1.19087 -0.496318 0)
(0.909902 -0.511897 0)
(0.667818 -0.45333 0)
(0.500995 -0.36453 0)
(0.416201 -0.296167 0)
(0.386446 -0.267128 0)
(0.374667 -0.266546 0)
(0.35844 -0.280059 0)
(0.333112 -0.297833 0)
(0.301858 -0.314424 0)
(0.268286 -0.327651 0)
(0.234598 -0.337027 0)
(0.202405 -0.342406 0)
(0.00555616 0.975216 0)
(0.090622 1.45097 0)
(0.334443 1.80275 0)
(0.60827 1.9101 0)
(0.916213 1.86385 0)
(1.15334 1.49773 0)
(1.34208 0.934291 0)
(1.42165 0.417002 0)
(1.33881 0.0697524 0)
(1.15205 -0.138793 0)
(0.946525 -0.251816 0)
(0.756103 -0.29725 0)
(0.603123 -0.296013 0)
(0.499783 -0.274553 0)
(0.439451 -0.254541 0)
(0.402889 -0.244671 0)
(0.374309 -0.245954 0)
(0.346762 -0.255634 0)
(0.318015 -0.269305 0)
(0.28785 -0.283349 0)
(0.2571 -0.295753 0)
(0.226729 -0.305685 0)
(0.197757 -0.312641 0)
(0.0211042 0.958363 0)
(0.0397375 1.37928 0)
(0.196087 1.59324 0)
(0.426892 1.62861 0)
(0.704771 1.51027 0)
(0.972574 1.1991 0)
(1.15891 0.805879 0)
(1.19044 0.459993 0)
(1.10076 0.203503 0)
(0.966427 0.0298376 0)
(0.826731 -0.0850767 0)
(0.69905 -0.153978 0)
(0.592652 -0.187688 0)
(0.511115 -0.199577 0)
(0.450758 -0.202785 0)
(0.404773 -0.206547 0)
(0.367432 -0.214417 0)
(0.334798 -0.226127 0)
(0.304335 -0.239858 0)
(0.274754 -0.253727 0)
(0.245874 -0.26643 0)
(0.217984 -0.277289 0)
(0.191653 -0.285788 0)
(0.0220017 0.928043 0)
(0.0474345 1.32215 0)
(0.161612 1.43159 0)
(0.362484 1.41598 0)
(0.608695 1.28077 0)
(0.832972 1.03822 0)
(0.96238 0.75479 0)
(0.9798 0.498905 0)
(0.926574 0.295981 0)
(0.842556 0.141036 0)
(0.747876 0.0278351 0)
(0.654387 -0.0500446 0)
(0.570364 -0.0994171 0)
(0.499195 -0.129031 0)
(0.44095 -0.148171 0)
(0.393724 -0.163677 0)
(0.354564 -0.178848 0)
(0.320616 -0.194441 0)
(0.289866 -0.210162 0)
(0.26114 -0.225283 0)
(0.233953 -0.23913 0)
(0.208222 -0.251318 0)
(0.184234 -0.261467 0)
(0.0169317 0.885135 0)
(0.0721551 1.24557 0)
(0.186871 1.28055 0)
(0.357632 1.2108 0)
(0.54731 1.07668 0)
(0.70498 0.894232 0)
(0.79369 0.695581 0)
(0.814108 0.509811 0)
(0.787681 0.348393 0)
(0.734481 0.213937 0)
(0.667954 0.107686 0)
(0.597462 0.0288962 0)
(0.529894 -0.0271941 0)
(0.469485 -0.0671477 0)
(0.417726 -0.0970991 0)
(0.373869 -0.121501 0)
(0.336285 -0.143004 0)
(0.303265 -0.162786 0)
(0.27353 -0.181217 0)
(0.246263 -0.198263 0)
(0.220928 -0.213757 0)
(0.1973 -0.227557 0)
(0.175494 -0.239444 0)
(0.0121414 0.841701 0)
(0.0842014 1.15218 0)
(0.200255 1.1422 0)
(0.340605 1.04773 0)
(0.479038 0.92603 0)
(0.587908 0.789988 0)
(0.652153 0.648029 0)
(0.673594 0.508228 0)
(0.662486 0.377814 0)
(0.629487 0.262722 0)
(0.583363 0.166662 0)
(0.531331 0.0902111 0)
(0.479048 0.0309293 0)
(0.43013 -0.0151321 0)
(0.386275 -0.0520118 0)
(0.347601 -0.0827042 0)
(0.313372 -0.109185 0)
(0.282779 -0.132693 0)
(0.255114 -0.153846 0)
(0.229835 -0.173038 0)
(0.206548 -0.190384 0)
(0.18501 -0.205899 0)
(0.1652 -0.2195 0)
(0.010071 0.798576 0)
(0.0821806 1.0556 0)
(0.189752 1.0215 0)
(0.302836 0.925321 0)
(0.404533 0.822207 0)
(0.482364 0.718278 0)
(0.530925 0.610819 0)
(0.551878 0.500872 0)
(0.550147 0.393491 0)
(0.531255 0.294601 0)
(0.500685 0.208286 0)
(0.463645 0.135804 0)
(0.424453 0.0760987 0)
(0.386055 0.0270103 0)
(0.350016 -0.0138084 0)
(0.316987 -0.0485261 0)
(0.286969 -0.0786131 0)
(0.259642 -0.10511 0)
(0.234653 -0.128742 0)
(0.211706 -0.149981 0)
(0.190573 -0.169089 0)
(0.171013 -0.186203 0)
(0.152896 -0.201325 0)
(0.00991184 0.757995 0)
(0.0745629 0.967311 0)
(0.167562 0.919804 0)
(0.257725 0.830379 0)
(0.334255 0.745453 0)
(0.391966 0.664313 0)
(0.429906 0.579663 0)
(0.449617 0.490145 0)
(0.453342 0.399816 0)
(0.443788 0.314028 0)
(0.424316 0.236524 0)
(0.398544 0.168745 0)
(0.369667 0.110455 0)
(0.340031 0.0605724 0)
(0.311101 0.0177483 0)
(0.283661 -0.0193289 0)
(0.258047 -0.0518568 0)
(0.234285 -0.0806109 0)
(0.212235 -0.10625 0)
(0.191758 -0.129197 0)
(0.172676 -0.149789 0)
(0.154826 -0.16821 0)
(0.138064 -0.184536 0)
(0.00990358 0.721416 0)
(0.0656111 0.891587 0)
(0.142962 0.836428 0)
(0.214237 0.756399 0)
(0.272486 0.68728 0)
(0.316218 0.622608 0)
(0.346455 0.553305 0)
(0.364384 0.477929 0)
(0.370782 0.400303 0)
(0.366902 0.325039 0)
(0.354858 0.255216 0)
(0.337172 0.192184 0)
(0.316172 0.136159 0)
(0.293668 0.0867464 0)
(0.270904 0.0432576 0)
(0.248624 0.00491681 0)
(0.227267 -0.0290644 0)
(0.207013 -0.0593491 0)
(0.18785 -0.0863858 0)
(0.169712 -0.110589 0)
(0.152496 -0.132263 0)
(0.136133 -0.151604 0)
(0.120562 -0.168815 0)
(0.00934615 0.689187 0)
(0.0563816 0.828473 0)
(0.119202 0.769735 0)
(0.17468 0.699523 0)
(0.218792 0.643322 0)
(0.252138 0.590272 0)
(0.276381 0.531336 0)
(0.292124 0.465977 0)
(0.299363 0.397926 0)
(0.298693 0.330971 0)
(0.291525 0.267512 0)
(0.27962 0.20876 0)
(0.264626 0.155198 0)
(0.247867 0.106867 0)
(0.23031 0.0635118 0)
(0.2126 0.024715 0)
(0.195104 -0.0099772 0)
(0.178044 -0.0410896 0)
(0.161509 -0.0689284 0)
(0.145486 -0.0938715 0)
(0.130018 -0.116224 0)
(0.115193 -0.136258 0)
(0.101107 -0.154331 0)
(0.00830687 0.660691 0)
(0.0469909 0.775882 0)
(0.0965992 0.716589 0)
(0.138603 0.655814 0)
(0.171291 0.609671 0)
(0.196406 0.564584 0)
(0.215513 0.512723 0)
(0.228658 0.454648 0)
(0.23552 0.393857 0)
(0.236444 0.333344 0)
(0.232416 0.274977 0)
(0.224633 0.219876 0)
(0.214207 0.168699 0)
(0.20204 0.12175 0)
(0.188824 0.0790513 0)
(0.175044 0.0404329 0)
(0.160994 0.00563669 0)
(0.146935 -0.0255547 0)
(0.133058 -0.053839 0)
(0.11942 -0.0793048 0)
(0.106164 -0.102244 0)
(0.0934175 -0.123039 0)
(0.0812363 -0.142014 0)
(0.00685915 0.639954 0)
(0.0381838 0.737694 0)
(0.076659 0.679364 0)
(0.107406 0.626216 0)
(0.130777 0.587121 0)
(0.149223 0.547158 0)
(0.16387 0.499946 0)
(0.174319 0.446896 0)
(0.180216 0.391178 0)
(0.181858 0.335156 0)
(0.179941 0.280372 0)
(0.175234 0.227925 0)
(0.16841 0.178596 0)
(0.160015 0.132855 0)
(0.150477 0.0908876 0)
(0.140133 0.0526523 0)