/*--------------------------------*- C++ -*----------------------------------*\
| =========                 |                                                 |
| \\      /  F ield         | OpenFOAM: The Open Source CFD Toolbox           |
|  \\    /   O peration     | Version:  5.x                                   |
|   \\  /    A nd           | Web:      www.OpenFOAM.org                      |
|    \\/     M anipulation  |                                                 |
\*---------------------------------------------------------------------------*/
FoamFile
{
    version     2.0;
    format      ascii;
    class       volScalarField;
    location    "0.1";
    object      alpha.water;
}
// * * * * * * * * * * * * * * * * * * * * * * * * * * * * * * * * * * * * * //

dimensions      [0 0 0 0 0 0 0];

internalField   nonuniform List<scalar> 
2268
(
1
1
1
0.999999
1
1
1
1
1
1
1
1
1
1
1
0.99871
0.997129
0.999486
1
0.889803
0.216451
-2.9565e-18
0
0.999999
1
1
1
1
1
1
1
1
1
1
1
1
1
0.99998
0.99999
0.999888
0.968852
0.841118
0.59082
0.161086
0.00208856
0
1
1
1
1
1
1
1
1
1
1
1
1
1
1
1
1
0.999987
0.860607
0.346155
0.0709112
0.0992722
0.0394989
-4.30092e-19
1
1
1
1
1
1
1
1
1
1
1
1
1
1
1
0.999999
0.967217
0.573966
0.0900111
0.00662006
0.0253452
0.0410465
0.00495294
1
1
1
1
1
1
1
1
1
1
1
1
1
1
1
0.999991
0.75107
0.180355
0.00687557
0.00230005
0.000727638
0.0238312
0.000734853
1
1
1
1
1
1
1
1
1
1
1
1
1
1
1
0.951137
0.379264
0.014952
0.00223242
0.00103386
0.000271107
0.00129556
0.0125797
1
1
1
1
1
1
1
1
1
1
1
1
1
1
0.999997
0.757625
0.108655
0.00328753
0.000804005
0.000341981
6.71986e-05
0.00020439
0.0208746
1
1
1
1
1
1
1
1
1
1
1
1
1
1
0.999972
0.498598
0.0189617
0.00124657
0.000265449
5.19431e-05
1.48943e-05
8.75389e-05
0.00526317
9.69172e-20
1.02227e-19
5.39305e-20
4.11701e-21
5.59276e-23
9.96443e-25
4.70201e-26
1.86879e-27
5.95741e-29
1.71643e-30
4.45422e-32
1.01206e-33
1.97174e-35
3.21398e-37
4.23312e-39
4.27515e-41
3.03413e-43
1.27693e-45
2.02289e-48
1.59533e-17
1.59894e-17
6.40438e-18
3.89417e-19
5.45135e-21
1.08158e-22
4.28451e-24
1.56967e-25
4.91497e-27
1.40021e-28
3.59489e-30
8.08914e-32
1.55606e-33
2.48241e-35
3.14209e-37
2.93539e-39
1.75246e-41
4.23997e-44
3.82895e-49
9.75224e-16
1.06477e-15
3.62651e-16
1.86333e-17
2.6198e-19
5.36521e-21
1.76922e-22
5.74704e-24
1.68476e-25
4.54337e-27
1.10781e-28
2.37202e-30
4.33017e-32
6.48928e-34
7.52502e-36
6.02166e-38
2.96809e-40
5.57487e-43
1.61296e-48
3.11107e-14
4.59631e-14
1.41082e-14
6.33568e-16
8.65993e-18
1.74354e-19
4.955e-21
1.44871e-22
3.98484e-24
1.0177e-25
2.35575e-27
4.78555e-29
8.22331e-31
1.1339e-32
1.22873e-34
9.36178e-37
4.29778e-39
6.93773e-42
1.72972e-47
6.21982e-13
2.24894e-12
5.34728e-13
1.73812e-14
2.07222e-16
3.9505e-18
1.01789e-19
2.73528e-21
7.05353e-23
1.69981e-24
3.71542e-26
7.08677e-28
1.15925e-29
1.56978e-31
1.59758e-33
1.20328e-35
5.49096e-38
8.99226e-41
2.25808e-46
2.59569e-11
7.26607e-11
1.28704e-11
2.92001e-13
3.13983e-15
6.15777e-17
1.53911e-18
3.90805e-20
9.54527e-22
2.17793e-23
4.5069e-25
8.37929e-27
1.33428e-28
1.68852e-30
1.77655e-32
1.34477e-34
5.59782e-37
8.93908e-40
2.21563e-45
5.74164e-10
4.98647e-10
7.37683e-11
1.69373e-12
2.38428e-14
5.6682e-16
1.51218e-17
3.8784e-19
9.35664e-21
2.09412e-22
4.31971e-24
7.89745e-26
1.20814e-27
1.6036e-29
1.69515e-31
1.23379e-33
5.36344e-36
7.70584e-39
1.71828e-44
2.45217e-09
1.09634e-09
1.16279e-10
3.49538e-12
9.48238e-14
3.0544e-15
9.13324e-17
2.49939e-18
6.26721e-20
1.45407e-21
3.08552e-23
5.73842e-25
8.88958e-27
1.17307e-28
1.25618e-30
9.4413e-33
3.83639e-35
5.56189e-38
1.25442e-43
1
1
1
1
1
1
1
1
1
1
1
1
1
1
0.898404
0.198261
0.00254923
0.00030927
4.52172e-05
8.16113e-06
2.25066e-06
9.69925e-06
4.64254e-05
1
1
1
1
1
1
1
1
1
1
1
1
1
1
0.553288
0.0164104
0.00050384
5.70632e-05
7.21655e-06
1.43891e-06
2.19424e-07
8.60546e-07
6.73633e-06
1
1
1
1
1
1
1
1
1
1
1
1
1
0.959194
0.226983
0.00131203
0.00010058
9.65183e-06
1.66527e-06
3.7957e-07
4.65324e-08
9.59421e-08
8.5954e-07
1
1
1
1
1
1
1
1
1
1
1
1
1
0.770313
0.0700528
0.000334149
1.7823e-05
2.03498e-06
1.0445e-06
2.35178e-07
1.05998e-08
1.01421e-08
9.70155e-08
1
1
1
1
1
1
1
1
1
1
1
1
1
0.549396
0.0107061
6.58755e-05
2.42753e-06
4.52707e-07
3.21503e-07
8.64532e-08
3.5511e-09
1.2989e-09
1.01369e-08
1
1
1
1
1
1
1
1
1
1
1
1
1
0.339445
0.000610455
1.40874e-05
3.368e-07
6.84704e-08
3.59745e-08
1.30604e-08
2.03648e-09
4.64786e-10
1.296e-09
1
1
1
1
1
1
1
1
1
1
1
1
0.934254
0.200875
0.000219095
2.70924e-06
6.02809e-08
1.11093e-08
6.29519e-09
2.55846e-09
1.16467e-09
2.8143e-10
3.43274e-10
1
1
1
1
1
1
1
1
1
1
1
1
0.846759
0.111045
4.61387e-05
3.24171e-07
1.39166e-07
1.37788e-08
2.29072e-09
1.20018e-09
5.92559e-10
1.9753e-10
7.41367e-11
1
1
1
1
1
1
1
1
1
1
1
1
0.746563
0.0526717
3.72317e-06
3.4044e-08
1.91852e-08
5.35754e-09
1.14572e-09
5.79078e-10
2.59395e-10
1.01581e-10
4.38712e-11
1
1
1
1
1
1
1
1
1
1
1
1
0.62923
0.0185269
2.07887e-07
3.62735e-09
8.65984e-10
9.06204e-10
4.7137e-10
2.29287e-10
9.41982e-11
3.46181e-11
1.32499e-11
1
1
1
1
1
1
1
1
1
1
1
0.999999
0.487117
0.00287942
6.5233e-08
1.03106e-09
3.79967e-10
3.20028e-10
1.85959e-10
8.19933e-11
2.81131e-11
7.93732e-12
2.15924e-12
1
1
1
0.999999
0.999999
0.999999
0.999999
0.999998
0.999998
0.999997
0.999996
0.999988
0.334658
1.41503e-05
8.33672e-08
2.82579e-08
1.72224e-10
1.41568e-10
8.40097e-11
3.02831e-11
7.22314e-12
1.40077e-12
2.96211e-13
1
0.999995
0.999994
0.999994
0.999992
0.999991
0.999988
0.999985
0.99998
0.999973
0.99996
0.999894
0.231421
8.94453e-07
5.09842e-08
4.06136e-08
4.85899e-10
7.22561e-11
3.57401e-11
9.84157e-12
1.65558e-12
2.32694e-13
4.07344e-14
1
0.999945
0.999937
0.99993
0.999918
0.999902
0.99988
0.99985
0.999811
0.999739
0.999629
0.999039
0.203205
1.6827e-06
3.50829e-08
7.21362e-10
2.26632e-11
8.99884e-12
7.8025e-12
2.35939e-12
3.66926e-13
4.14136e-14
5.74621e-15
1
0.99937
0.999279
0.999204
0.999092
0.998939
0.998734
0.998465
0.998124
0.995376
0.982582
0.89218
0.231651
0.00407625
1.6945e-06
3.52497e-08
7.20675e-10
1.85166e-11
6.35287e-13
2.1048e-13
8.95947e-14
9.66484e-15
8.53857e-16
0.868558
0.857412
0.849032
0.834185
0.813036
0.785061
0.749714
0.705943
0.654851
0.559434
0.440488
0.215892
0.182562
0.0265341
5.86882e-05
2.50439e-06
5.15564e-08
4.78238e-10
1.69309e-12
2.79576e-14
3.48933e-14
2.72306e-15
1.41043e-16
0.163413
0.155628
0.147192
0.133316
0.115723
0.0957634
0.0742357
0.0517577
0.0313769
0.00279168
1.29859e-08
1.61516e-07
4.9145e-05
0.0295536
0.00569264
5.22302e-06
6.81466e-08
1.0189e-10
1.93283e-12
9.60218e-15
1.37707e-14
9.03713e-16
2.55356e-17
-6.07726e-18
-1.79445e-17
-1.4012e-18
-8.85568e-17
-3.29183e-15
-6.09255e-14
0
2.48286e-14
5.08354e-13
1.56939e-10
3.84702e-10
1.29859e-08
1.61516e-07
0.00760199
0.00654751
3.50247e-05
8.86754e-07
8.0589e-09
1.31905e-14
2.66446e-15
2.3912e-14
3.14127e-16
3.94473e-18
-2.07136e-18
-1.8583e-17
8.11085e-21
9.78882e-19
8.80375e-17
8.05709e-15
3.02313e-13
3.03816e-12
2.92972e-11
1.61812e-09
6.2609e-08
1.17869e-06
1.37773e-05
1.98537e-05
0.00385415
1.23291e-07
4.24761e-08
1.31894e-09
4.52693e-13
1.95966e-15
2.35316e-14
7.39292e-17
4.19531e-19
4.56587e-23
2.2755e-21
6.0332e-21
6.42042e-19
7.37446e-17
1.70926e-14
5.04292e-13
1.24369e-12
1.71328e-11
5.57522e-10
1.46635e-08
6.23066e-07
3.95102e-05
0.000821736
0.00103501
1.21202e-08
1.65412e-10
-5.25973e-12
-7.70576e-15
1.1923e-15
1.14377e-14
9.17177e-18
3.1422e-20
-1.15915e-24
2.03753e-38
0
-3.31723e-34
0
1.19277e-17
7.61467e-16
1.6361e-14
2.15552e-13
4.72988e-12
7.57828e-11
8.84827e-06
2.14004e-05
7.75135e-08
4.30944e-08
1.09726e-09
-4.97995e-11
7.85976e-16
-9.87036e-16
3.60997e-16
1.45333e-15
5.51303e-19
1.95865e-21
-1.84683e-23
-9.45799e-22
-2.24817e-20
-3.23758e-19
-2.80493e-18
-2.64423e-20
0
-1.19132e-19
1.35489e-15
1.62183e-14
5.29902e-13
7.19929e-12
8.37735e-11
8.17535e-10
2.57585e-09
3.55027e-11
6.5654e-13
-1.99672e-13
1.47274e-17
4.09666e-17
4.3128e-17
2.26294e-20
1.07963e-22
-3.74679e-23
-2.2681e-21
-6.63827e-20
-1.22585e-18
-1.47467e-17
-1.07974e-16
-4.09956e-16
-3.04276e-16
-1.76991e-17
1.74365e-16
7.432e-16
2.09769e-14
1.73026e-13
1.51213e-12
1.64733e-11
1.45009e-12
-7.03425e-13
1.37886e-17
1.02274e-18
2.54123e-18
8.86634e-19
7.96457e-22
4.92292e-24
-2.66296e-23
-1.94382e-21
-6.56898e-20
-1.33199e-18
-1.75783e-17
-1.52816e-16
-8.40754e-16
-2.60137e-15
-3.2153e-15
1.60278e-16
2.20735e-15
4.08129e-15
2.51637e-14
2.12672e-13
1.55463e-12
5.73927e-14
1.22362e-15
6.81589e-33
1.85348e-19
9.81672e-20
1.96691e-20
1.93424e-23
1.52601e-25
-1.90063e-47
0
3.114e-43
-8.92045e-38
-3.78222e-33
-1.02455e-30
2.30654e-22
3.11834e-20
1.47809e-18
9.46176e-17
3.43217e-15
1.78781e-13
3.35157e-12
1.17102e-11
1.36432e-11
1.02193e-13
2.07803e-14
-5.07215e-17
2.56553e-19
6.26636e-21
1.3697e-22
1.80848e-25
4.66035e-27
0
2.35616e-33
5.5829e-31
5.15378e-29
3.52004e-27
1.88994e-25
8.28309e-24
3.04029e-22
9.53623e-21
4.88582e-19
2.26965e-16
1.49199e-14
1.5087e-13
3.43229e-13
3.40225e-13
4.69474e-15
4.86955e-15
-1.01829e-17
3.51583e-20
4.46614e-22
1.60743e-25
1.16565e-27
2.51327e-28
2.32011e-51
3.77176e-37
4.57744e-35
2.69668e-33
1.71386e-32
-1.19198e-29
-1.25364e-27
-7.60206e-26
-2.86505e-24
1.03686e-21
2.83385e-18
1.84709e-16
1.8021e-15
4.04576e-15
4.02303e-15
1.72627e-16
7.70431e-17
6.62503e-20
1.21423e-21
2.06596e-23
3.46795e-27
4.40719e-29
1.34491e-29
-1.41608e-55
-3.39545e-40
-1.28212e-37
-1.97002e-35
-1.95104e-33
-1.40813e-31
-7.80938e-30
-3.01458e-28
-6.9938e-27
7.12529e-26
1.09161e-22
1.51796e-20
7.35859e-19
8.99543e-18
2.5924e-17
2.87835e-17
7.44138e-20
3.8386e-20
5.41412e-23
7.27548e-25
8.07744e-29
2.47487e-30
6.06201e-31
-7.29072e-44
-2.30674e-41
-3.46305e-39
-3.61169e-37
-2.78082e-35
-1.68154e-33
-7.34658e-32
-2.00579e-30
-4.27136e-29
2.82765e-29
8.3435e-26
1.61769e-23
1.36538e-21
2.95376e-20
1.18673e-19
1.48674e-19
5.72923e-22
9.22269e-22
2.40558e-24
2.66562e-26
1.82499e-30
2.2648e-31
2.41256e-32
0
2.14911e-48
3.96749e-46
4.87547e-44
4.4883e-42
3.30375e-40
2.02636e-38
1.0667e-36
4.93392e-35
2.07505e-33
1.81707e-29
4.66872e-27
4.21065e-25
1.59214e-23
1.20135e-22
2.37635e-22
2.15148e-22
2.43215e-24
1.01302e-25
9.4057e-28
5.21972e-32
1.28664e-32
8.44374e-34
0
4.62444e-52
9.41668e-50
1.27426e-47
1.30115e-45
1.0591e-43
7.18103e-42
4.18199e-40
2.14386e-38
1.37852e-36
7.61951e-34
4.30163e-31
2.36506e-29
2.07608e-27
1.00813e-25
7.71791e-25
1.30933e-24
5.24039e-27
3.63262e-27
2.37199e-29
8.02333e-33
5.86434e-34
2.5565e-35
0
2.25419e-57
-5.74092e-54
-2.57732e-52
-8.08806e-50
-1.22987e-47
-1.33219e-45
-1.16195e-43
-6.96595e-42
-2.3438e-41
5.06013e-38
1.63749e-34
1.41603e-32
1.60542e-30
1.08628e-28
1.04177e-27
1.95964e-27
1.80863e-29
3.79306e-29
4.55676e-31
8.22574e-34
2.00218e-35
6.93531e-37
0
-7.46378e-60
-2.35456e-58
-1.0027e-55
-1.51238e-53
-1.6878e-51
-1.51925e-49
-9.65667e-48
-2.67642e-46
1.09243e-44
9.21329e-43
1.11774e-39
2.36827e-37
1.21602e-35
1.13718e-33
1.02243e-31
1.32431e-30
2.92939e-30
5.03914e-32
4.15945e-33
3.16598e-35
6.59907e-37
1.69878e-38
-6.12276e-61
-1.33432e-59
-2.44667e-60
-3.99296e-58
-4.88781e-56
-4.79634e-54
-3.40955e-52
-1.37437e-50
-3.72959e-49
1.64698e-48
1.20301e-46
3.64636e-44
1.18141e-40
1.01066e-38
1.23096e-36
1.66629e-34
2.88038e-33
7.26577e-33
2.83014e-35
3.65218e-35
8.46317e-37
1.68074e-38
3.70529e-40
0
0
1.82429e-68
4.19022e-66
7.25309e-64
1.00492e-61
1.19022e-59
1.2118e-57
1.11145e-55
1.40055e-53
1.10093e-51
1.01466e-49
9.80402e-46
1.52926e-42
2.72108e-40
5.64364e-38
1.37294e-36
4.21734e-36
1.06573e-36
1.98474e-37
1.67778e-38
3.01034e-40
7.27053e-42
0
4.35402e-75
1.78219e-72
4.87051e-70
9.88365e-68
1.67158e-65
2.33718e-63
2.84369e-61
4.52143e-59
4.80103e-57
5.41162e-55
4.72309e-53
4.47668e-51
8.23344e-48
1.85015e-45
2.5475e-43
7.99053e-41
3.18646e-39
1.23937e-38
6.38456e-40
1.675e-40
4.03696e-42
1.2947e-43
0
3.20369e-80
2.69428e-78
-5.85523e-74
-6.2149e-73
-5.29088e-70
-1.40775e-67
-2.87858e-65
1.10218e-63
1.70489e-61
2.56984e-59
2.88202e-57
3.02534e-55
4.85801e-53
4.81273e-49
1.79228e-46
9.90312e-44
5.80085e-42
2.71362e-41
1.75579e-42
1.8294e-42
5.1656e-44
2.38582e-45
0
-1.11184e-83
-7.95201e-80
-1.28948e-78
-7.57998e-76
-2.08158e-73
-4.21778e-71
-6.00086e-69
1.58781e-68
2.65781e-66
5.02634e-64
7.49599e-62
1.05938e-59
1.30619e-57
2.69539e-55
9.532e-51
9.72204e-48
1.89592e-45
2.51469e-44
4.50705e-44
9.48819e-45
6.16217e-46
4.146e-47
-4.209e-86
-2.69532e-84
-6.69958e-86
-8.29522e-83
-2.952e-80
-7.23536e-78
-1.17874e-75
-6.87022e-76
1.01343e-72
2.37177e-70
6.53059e-68
1.33606e-65
2.46859e-63
4.30497e-61
7.43633e-59
1.32874e-56
7.74432e-53
1.60703e-49
2.8292e-47
2.34331e-46
4.54147e-47
6.70182e-48
6.57786e-49
0
0
1.30932e-94
1.29787e-91
9.69349e-89
5.84056e-86
2.98224e-83
1.33085e-80
7.20922e-78
2.93236e-75
1.26129e-72
4.1731e-70
1.33891e-67
3.83723e-65
1.10136e-62
3.16389e-60
2.6423e-57
1.52814e-52
5.94263e-50
7.16474e-49
2.00158e-49
6.71436e-50
9.66629e-51
0
5.90607e-110
-4.26332e-105
-2.36551e-100
-3.74549e-95
-3.24551e-92
-2.37622e-89
-5.19967e-87
-3.40311e-85
1.11324e-83
1.58377e-80
2.14452e-77
2.34625e-74
2.05079e-71
1.73481e-68
1.48536e-65
1.313e-61
5.97012e-56
7.66022e-53
1.61465e-51
1.02365e-51
6.83789e-52
1.46401e-52
0
0
-1.13013e-112
-4.36245e-107
-9.33777e-104
-2.13474e-100
-1.38344e-97
-3.10251e-94
-7.93887e-95
-1.57495e-99
-8.19209e-98
1.56756e-93
-8.59003e-92
3.00712e-87
-1.77323e-84
-1.81579e-81
-9.29685e-79
5.20712e-62
9.57874e-57
1.74711e-54
5.91205e-54
1.00851e-52
2.93174e-53
0.000267744
9.03742e-06
-6.37588e-15
8.70502e-08
0.000217901
6.2348e-05
4.26871e-09
7.46574e-08
2.55695e-05
3.83851e-05
9.96878e-06
2.1214e-07
4.14325e-07
3.1496e-06
2.57668e-06
7.38791e-07
3.4367e-08
2.22173e-08
1.03649e-08
5.13502e-08
2.63783e-09
1.67688e-09
7.92349e-10
3.23704e-10
2.461e-10
1.77269e-10
1.04786e-10
5.57363e-11
5.14064e-11
4.67665e-11
5.35863e-11
3.86923e-11
2.58408e-11
1.983e-11
1.42411e-11
7.25189e-12
5.57733e-12
3.45851e-12
1.82228e-12
7.72731e-13
6.65736e-13
3.88029e-13
2.01966e-13
8.35126e-14
7.67815e-14
4.52611e-14
2.29286e-14
9.05636e-15
9.20653e-15
5.32202e-15
2.55462e-15
9.52283e-16
1.10781e-15
6.1396e-16
2.74153e-16
9.62429e-17
1.29516e-16
6.83584e-17
2.8092e-17
9.30528e-18
1.56072e-17
7.31322e-18
2.70956e-18
8.53282e-19
1.96161e-18
7.30117e-19
2.42545e-19
7.35136e-20
2.23709e-19
6.52281e-20
1.99145e-20
5.82985e-21
1.98503e-20
5.12108e-21
1.48691e-21
4.23855e-22
1.34908e-21
3.5446e-22
1.00082e-22
2.82415e-23
7.52624e-23
2.15771e-23
6.0041e-24
1.71932e-24
3.68316e-24
1.15228e-24
3.18457e-25
9.5215e-26
1.65014e-25
5.48874e-26
1.52256e-26
4.88302e-27
6.34721e-27
2.43136e-27
6.78104e-28
2.37281e-28
2.85548e-28
1.03299e-28
2.9448e-29
1.10322e-29
1.30692e-29
4.34514e-30
1.27193e-30
4.98862e-31
5.46434e-31
1.79712e-31
5.37944e-32
2.17767e-32
2.19179e-32
7.20624e-33
2.19737e-33
9.05453e-34
8.39966e-34
2.77396e-34
8.59047e-35
3.56392e-35
3.04819e-35
1.00861e-35
3.17872e-36
1.3216e-36
1.02697e-36
3.41747e-37
1.10176e-37
4.59756e-38
3.16123e-38
1.06967e-38
3.55135e-39
1.49607e-39
8.84523e-40
3.07765e-40
1.06039e-40
4.54585e-41
2.24859e-41
8.13337e-42
2.96991e-42
1.34385e-42
5.20356e-43
1.97618e-43
7.79807e-44
3.84612e-44
1.134e-44
4.95674e-45
2.01741e-45
1.0381e-45
2.48811e-46
1.18569e-46
5.08101e-47
2.64235e-47
5.28041e-48
2.59145e-48
1.19472e-48
6.39296e-49
1.0215e-49
5.25304e-50
2.6787e-50
1.61532e-50
1.84212e-51
1.12939e-51
6.17815e-52
3.99771e-52
3.93741e-53
2.39711e-53
1.42589e-53
9.01601e-54
1.60686e-53
8.94157e-54
4.66172e-54
2.0815e-54
2.1688e-08
1.59082e-09
5.02231e-11
4.93982e-12
3.54024e-13
1.57622e-14
5.54899e-16
1.835e-17
5.62663e-19
1.5519e-20
3.78691e-22
8.01888e-24
1.43433e-25
2.08592e-27
2.31307e-29
1.70677e-31
6.80987e-34
8.2056e-37
1.51129e-42
2.51515e-08
5.10531e-10
3.2457e-11
3.71519e-12
9.87975e-13
5.85919e-14
1.75648e-15
5.72384e-17
1.7687e-18
4.92567e-20
1.21844e-21
2.6382e-23
4.90144e-25
7.59838e-27
9.42427e-29
8.79689e-31
5.58719e-33
1.96521e-35
1.87057e-38
1.64817e-08
9.1892e-10
4.7617e-11
3.68627e-12
8.01473e-13
4.34272e-14
1.38788e-15
4.78794e-17
1.53183e-18
4.3964e-20
1.12166e-21
2.51243e-23
4.85811e-25
7.94544e-27
1.07277e-28
1.14452e-30
8.9879e-33
4.54947e-35
1.09127e-37
3.69462e-09
2.07195e-10
1.65694e-11
4.2755e-12
3.66586e-13
1.40727e-14
5.36967e-16
1.96595e-17
6.5051e-19
1.93084e-20
5.09873e-22
1.18406e-23
2.38349e-25
4.07268e-27
5.71839e-29
6.33515e-31
5.18797e-33
2.79227e-35
7.29236e-38
7.23948e-09
3.69696e-11
1.08024e-11
1.28567e-12
6.59087e-14
2.86171e-15
1.17918e-16
4.41615e-18
1.49044e-19
4.50469e-21
1.20869e-22
2.84763e-24
5.80874e-26
1.00667e-27
1.44055e-29
1.63458e-31
1.3797e-33
7.71854e-36
2.12563e-38
6.96859e-10
8.53858e-11
4.64071e-12
2.30588e-13
1.15651e-14
5.43307e-16
2.28329e-17
8.62154e-19
2.92561e-20
8.87399e-22
2.38683e-23
5.63275e-25
1.15008e-26
1.99357e-28
2.85727e-30
3.25511e-32
2.7665e-34
1.56015e-36
4.34635e-39
6.33734e-11
1.45056e-11
7.61942e-13
3.75657e-14
1.96612e-15
9.41963e-17
4.03028e-18
1.54512e-19
5.3027e-21
1.62179e-22
4.38964e-24
1.04128e-25
2.13603e-27
3.72005e-29
5.35912e-31
6.14277e-33
5.26075e-35
2.99529e-37
8.44103e-40
1.16739e-11
1.17712e-12
8.22572e-14
5.1151e-15
2.86247e-16
1.41576e-17
6.21522e-19
2.43187e-20
8.47598e-22
2.6228e-23
7.16355e-25
1.71183e-26
3.53441e-28
6.19445e-30
8.98347e-32
1.0375e-33
8.96543e-36
5.16213e-38
1.47429e-40
1.56643e-12
1.3023e-13
9.39627e-15
6.29664e-16
3.69899e-17
1.88956e-18
8.49746e-20
3.38629e-21
1.19678e-22
3.74286e-24
1.03075e-25
2.47961e-27
5.14932e-29
9.0744e-31
1.32358e-32
1.53853e-34
1.33986e-36
7.78896e-39
2.24977e-41
1.77267e-13
1.49214e-14
1.0785e-15
7.36098e-17
4.42406e-18
2.30691e-19
1.05491e-20
4.25883e-22
1.52027e-23
4.7912e-25
1.32738e-26
3.20881e-28
6.69205e-30
1.18417e-31
1.73484e-33
2.02697e-35
1.77634e-37
1.04078e-39
3.03379e-42
1.90059e-14
1.60716e-15
1.17915e-16
8.1462e-18
4.94929e-19
2.60912e-20
1.20466e-21
4.90091e-23
1.75982e-24
5.57117e-26
1.54886e-27
3.75493e-29
7.85144e-31
1.39309e-32
2.04737e-34
2.40159e-36
2.11537e-38
1.24759e-40
3.66422e-43
1.96878e-15
1.6412e-16
1.22185e-17
8.51089e-19
5.19117e-20
2.74782e-21
1.27358e-22
5.19685e-24
1.87014e-25
5.92943e-27
1.65029e-28
4.00463e-30
8.38233e-32
1.48939e-33
2.19338e-35
2.58045e-37
2.28229e-39
1.35356e-41
4.00077e-44
1.96224e-16
1.60467e-17
1.20533e-18
8.40524e-20
5.1138e-21
2.70239e-22
1.25114e-23
5.09982e-25
1.83318e-26
5.80586e-28
1.61432e-29
3.91455e-31
8.19148e-33
1.45597e-34
2.14663e-36
2.53091e-38
2.24606e-40
1.33852e-42
3.97781e-45
1.86923e-17
1.50198e-18
1.13267e-19
7.84745e-21
4.73353e-22
2.48489e-23
1.14438e-24
4.64384e-26
1.66289e-27
5.24949e-29
1.45576e-30
3.52297e-32
7.36267e-34
1.30808e-35
1.92961e-37
2.27879e-39
2.02822e-41
1.21398e-43
3.62482e-46
1.6855e-18
1.34019e-19
1.01097e-20
6.91097e-22
4.11201e-23
2.13578e-24
9.7522e-26
3.92947e-27
1.39888e-28
4.39497e-30
1.21417e-31
2.92998e-33
6.11191e-35
1.08494e-36
1.60082e-38
1.89319e-40
1.68962e-42
1.01551e-44
3.0452e-47
1.41615e-19
1.13363e-20
8.52513e-22
5.71729e-23
3.34357e-24
1.71354e-25
7.74053e-27
3.09176e-28
1.09291e-29
3.41441e-31
9.39183e-33
2.25924e-34
4.70322e-36
8.34141e-38
1.23111e-39
1.45814e-41
1.30498e-43
7.87618e-46
2.37126e-48
1.10578e-20
9.0382e-22
6.73669e-23
4.41853e-24
2.5362e-25
1.28073e-26
5.718e-28
2.26261e-29
7.93914e-31
2.46616e-32
6.75462e-34
1.62005e-35
3.36678e-37
5.96797e-39
8.81381e-41
1.04584e-42
9.38894e-45
5.69177e-47
1.7202e-49
8.44516e-22
6.84746e-23
4.97586e-24
3.17634e-25
1.7857e-26
8.89372e-28
3.92795e-29
1.54055e-30
5.36868e-32
1.65926e-33
4.52834e-35
1.08367e-36
2.24983e-38
3.98871e-40
5.89839e-42
7.01608e-44
6.32135e-46
3.85067e-48
1.16814e-50
6.3481e-23
5.00711e-24
3.49703e-25
2.15009e-26
1.17695e-27
5.75704e-29
2.50755e-30
9.75595e-32
3.38356e-33
1.04221e-34
2.83769e-36
6.78363e-38
1.4085e-39
2.50003e-41
3.7051e-43
4.4214e-45
4.00062e-47
2.45006e-49
7.45961e-52
4.6016e-24
3.52034e-25
2.37383e-26
1.41275e-27
7.50869e-29
3.55532e-30
1.51132e-31
5.80729e-33
1.99729e-34
6.12267e-36
1.66606e-37
3.98664e-39
8.29185e-41
1.47536e-42
2.1937e-44
2.62866e-46
2.39047e-48
1.47269e-50
4.49916e-53
3.15487e-25
2.35884e-26
1.5538e-27
9.03404e-29
4.67933e-30
2.15451e-31
8.95146e-33
3.36169e-34
1.13032e-35
3.42073e-37
9.26983e-39
2.21376e-40
4.60759e-42
8.22449e-44
1.22883e-45
1.48041e-47
1.35429e-49
8.39871e-52
2.57326e-54
2.02536e-26
1.49369e-27
9.70927e-29
5.56255e-30
2.83274e-31
1.28158e-32
5.23413e-34
1.92599e-35
6.35021e-37
1.89324e-38
5.05052e-40
1.18931e-41
2.46032e-43
4.39135e-45
6.57917e-47
7.95494e-49
7.31601e-51
4.56646e-53
1.40166e-55
1.21205e-27
8.89209e-29
5.7558e-30
3.27555e-31
1.653e-32
7.40198e-34
2.99112e-35
1.08731e-36
3.5431e-38
1.04385e-39
2.74681e-41
6.39119e-43
1.31174e-44
2.32593e-46
3.46393e-48
4.1733e-50
3.84352e-52
2.40931e-54
7.4042e-57
6.74257e-29
4.96604e-30
3.23101e-31
1.8408e-32
9.26638e-34
4.13019e-35
1.66051e-36
5.99724e-38
1.94136e-39
5.68145e-41
1.48443e-42
3.4325e-44
7.00549e-46
1.23496e-47
1.83053e-49
2.19969e-51
2.02709e-53
1.27473e-55
3.91967e-58
3.47832e-30
2.60044e-31
1.71667e-32
9.86758e-34
4.98701e-35
2.22495e-36
8.94233e-38
3.22212e-39
1.04e-40
3.03509e-42
7.90441e-44
1.82265e-45
3.71164e-47
6.52988e-49
9.66903e-51
1.16223e-52
1.0727e-54
6.77044e-57
2.08186e-59
1.66106e-31
1.2775e-32
8.63499e-34
5.04557e-35
2.57665e-36
1.15712e-37
4.67067e-39
1.68585e-40
5.44493e-42
1.58933e-43
4.13648e-45
9.53285e-47
1.94146e-48
3.41631e-50
5.0627e-52
6.09517e-54
5.64033e-56
3.57618e-58
1.09902e-60
7.36489e-33
5.89086e-34
4.11674e-35
2.46275e-36
1.27861e-37
5.8104e-39
2.36616e-40
8.58977e-42
2.78584e-43
8.15682e-45
2.127e-46
4.90968e-48
1.00172e-49
1.76544e-51
2.62106e-53
3.16287e-55
2.93613e-57
1.87081e-59
5.7419e-62
3.0997e-34
2.55478e-35
1.86397e-36
1.14913e-37
6.09999e-39
2.81898e-40
1.1631e-41
4.26291e-43
1.39291e-44
4.10262e-46
1.07455e-47
2.48956e-49
5.09706e-51
9.00923e-53
1.34138e-54
1.6235e-56
1.51239e-58
9.68471e-61
2.96655e-63
1.24084e-35
1.04761e-36
8.03695e-38
5.13642e-39
2.80221e-40
1.32291e-41
5.5521e-43
2.06173e-44
6.80824e-46
2.02257e-47
5.33337e-49
1.24271e-50
2.55718e-52
4.53894e-54
6.78393e-56
8.24078e-58
7.70592e-60
4.9592e-62
1.51509e-64
4.69335e-37
4.12893e-38
3.30852e-39
2.20503e-40
1.24199e-41
6.01442e-43
2.57684e-44
9.72656e-46
3.25525e-47
9.77808e-49
2.6015e-50
6.10735e-52
1.26496e-53
2.25742e-55
3.38993e-57
4.13536e-59
3.88261e-61
2.511e-63
7.64666e-66
1.6769e-38
1.56226e-39
1.30679e-40
9.11837e-42
5.3236e-43
2.65398e-44
1.16458e-45
4.48148e-47
1.52405e-48
4.63926e-50
1.24781e-51
2.95638e-53
6.17155e-55
1.10851e-56
1.67382e-58
2.05156e-60
1.93434e-62
1.25699e-64
3.81335e-67
5.66954e-40
5.64057e-41
4.97372e-42
3.64373e-43
2.21252e-44
1.13915e-45
5.13443e-47
2.01964e-48
6.99558e-50
2.16243e-51
5.89043e-53
1.41055e-54
2.97135e-56
5.37677e-58
8.16921e-60
1.00645e-61
9.5309e-64
6.22192e-66
1.87938e-68
1.81604e-41
1.94336e-42
1.83123e-43
1.41159e-44
8.94045e-46
4.76721e-47
2.21276e-48
8.91826e-50
3.15291e-51
9.91497e-53
2.73963e-54
6.63956e-56
1.41285e-57
2.57778e-59
3.94321e-61
4.88474e-63
4.64639e-65
3.04642e-67
9.15746e-70
5.50401e-43
6.40637e-44
6.54382e-45
5.31844e-46
3.52254e-47
1.95005e-48
9.34266e-50
3.86627e-51
1.3977e-52
4.47875e-54
1.25707e-55
3.08684e-57
6.64139e-59
1.22264e-60
1.8839e-62
2.34719e-64
2.24267e-66
1.47636e-68
4.4144e-71
1.58355e-44
2.07505e-45
2.27538e-46
1.95482e-47
1.35715e-48
7.81766e-50
3.87387e-51
1.64912e-52
6.10617e-54
1.99657e-55
5.69917e-57
1.41939e-58
3.09008e-60
5.74322e-62
8.91739e-64
1.11765e-65
1.07265e-67
7.08753e-70
2.10708e-72
4.44527e-46
6.59569e-47
7.7194e-48
7.03015e-49
5.12804e-50
3.08008e-51
1.58151e-52
6.93704e-54
2.63449e-55
8.8004e-57
2.55737e-58
6.4651e-60
1.42507e-61
2.67527e-63
4.18696e-65
5.27956e-67
5.08926e-69
3.37397e-71
9.96935e-74
1.24675e-47
2.04143e-48
2.56238e-49
2.48118e-50
1.9061e-51
1.19611e-52
6.37441e-54
2.88503e-55
1.1251e-56
3.8434e-58
1.13795e-59
2.92197e-61
6.52435e-63
1.23755e-64
1.95267e-66
2.47729e-68
2.39823e-70
1.59461e-72
4.6814e-75
3.41249e-49
6.15935e-50
8.3459e-51
8.62111e-52
6.99201e-53
4.59241e-54
2.54392e-55
1.18943e-56
4.76776e-58
1.66683e-59
5.03139e-61
1.31285e-62
2.97044e-64
5.69422e-66
9.05885e-68
1.15628e-69
1.124e-71
7.49249e-74
2.18482e-76
8.99857e-51
1.81857e-51
2.67604e-52
2.95936e-53
2.53997e-54
1.74908e-55
1.00833e-56
4.87503e-58
2.01e-59
7.19556e-61
2.21527e-62
5.87559e-64
1.34735e-65
2.61048e-67
4.18729e-69
5.37678e-71
5.24728e-73
3.50508e-75
1.01497e-77
2.29689e-52
5.26931e-53
8.47779e-54
1.00773e-54
9.17282e-56
6.63182e-57
3.98255e-58
1.99231e-59
8.45299e-61
3.09957e-62
9.73453e-64
2.62472e-65
6.10016e-67
1.19451e-68
1.93167e-70
2.49488e-72
2.44382e-74
1.63509e-76
4.70084e-79
5.60084e-54
1.47411e-54
2.6106e-55
3.34963e-56
3.27366e-57
2.50163e-58
1.5724e-59
8.16582e-61
3.57131e-62
1.34167e-63
4.29903e-65
1.17842e-66
2.77576e-68
5.49301e-70
8.95418e-72
1.16305e-73
1.14321e-75
7.65801e-78
2.18544e-80
5.07263e-55
8.46836e-56
1.07389e-56
1.07607e-57
8.81709e-59
6.04331e-60
3.523e-61
1.74943e-62
7.58661e-64
2.92412e-65
9.57012e-67
2.66937e-68
6.37726e-70
1.27617e-71
2.0981e-73
2.74187e-75
2.70552e-77
1.81514e-79
5.14365e-82
)
;

boundaryField
{
    leftWall
    {
        type            zeroGradient;
    }
    rightWall
    {
        type            zeroGradient;
    }
    lowerWall
    {
        type            zeroGradient;
    }
    atmosphere
    {
        type            inletOutlet;
        inletValue      uniform 0;
        value           nonuniform List<scalar> 
46
(
0
0
0
0
0
0
0
0
0
0
0
0
0
0
0
0
0
0
0
0
5.91205e-54
1.00851e-52
2.93174e-53
1.60686e-53
8.94157e-54
4.66172e-54
2.0815e-54
5.07263e-55
8.46836e-56
1.07389e-56
1.07607e-57
8.81709e-59
6.04331e-60
3.523e-61
1.74943e-62
7.58661e-64
2.92412e-65
9.57012e-67
2.66937e-68
6.37726e-70
1.27617e-71
2.0981e-73
2.74187e-75
2.70552e-77
1.81514e-79
5.14365e-82
)
;
    }
    defaultFaces
    {
        type            empty;
    }
}


// ************************************************************************* //
