/*--------------------------------*- C++ -*----------------------------------*\
| =========                 |                                                 |
| \\      /  F ield         | OpenFOAM: The Open Source CFD Toolbox           |
|  \\    /   O peration     | Version:  5.x                                   |
|   \\  /    A nd           | Web:      www.OpenFOAM.org                      |
|    \\/     M anipulation  |                                                 |
\*---------------------------------------------------------------------------*/
FoamFile
{
    version     2.0;
    format      ascii;
    class       surfaceScalarField;
    location    "0.1";
    object      alphaPhi10;
}
// * * * * * * * * * * * * * * * * * * * * * * * * * * * * * * * * * * * * * //

dimensions      [0 3 -1 0 0 0 0];

internalField   nonuniform List<scalar> 
4432
(
4.71681e-06
-4.71681e-06
1.04633e-05
-5.74651e-06
1.60206e-05
-5.55728e-06
2.15915e-05
-5.57087e-06
2.73583e-05
-5.76686e-06
3.34047e-05
-6.0464e-06
3.98009e-05
-6.39619e-06
4.66118e-05
-6.81088e-06
5.39516e-05
-7.33982e-06
6.18873e-05
-7.93565e-06
7.05172e-05
-8.62988e-06
7.99927e-05
-9.47551e-06
9.06248e-05
-1.06322e-05
0.00010267
-1.20456e-05
0.000115164
-1.24936e-05
0.000125155
-1.0323e-05
0.000131252
-6.11271e-06
0.000134705
-3.27517e-06
0.000137932
-3.22688e-06
7.4361e-05
-1.7428e-06
1.8382e-06
4.40249e-06
1.03568e-07
1.73463e-06
1.03568e-07
4.73318e-06
-9.45e-06
1.04655e-05
-1.14788e-05
1.60233e-05
-1.11151e-05
2.15955e-05
-1.11431e-05
2.73593e-05
-1.15307e-05
3.34003e-05
-1.20874e-05
3.97866e-05
-1.27825e-05
4.65907e-05
-1.36149e-05
5.39092e-05
-1.46584e-05
6.18188e-05
-1.58452e-05
7.04629e-05
-1.72739e-05
7.99441e-05
-1.89567e-05
9.03737e-05
-2.10617e-05
0.000102009
-2.36811e-05
0.000114457
-2.49451e-05
0.000126414
-2.22823e-05
0.00013559
-1.64353e-05
0.000131578
-1.14121e-05
0.000101704
-7.66184e-06
4.52793e-05
-2.01996e-06
1.816e-06
2.60942e-06
3.37239e-07
2.8128e-06
4.40807e-07
4.72936e-06
-1.41794e-05
1.04237e-05
-1.71731e-05
1.59515e-05
-1.66429e-05
2.14974e-05
-1.6689e-05
2.72313e-05
-1.72646e-05
3.32383e-05
-1.80944e-05
3.95846e-05
-1.91289e-05
4.63459e-05
-2.03762e-05
5.36101e-05
-2.19225e-05
6.14599e-05
-2.3695e-05
7.00685e-05
-2.58825e-05
7.95108e-05
-2.8399e-05
8.98211e-05
-3.1372e-05
0.00010132
-3.51802e-05
0.000114022
-3.76467e-05
0.000127534
-3.57942e-05
0.000139086
-2.8918e-05
9.22612e-05
-2.14842e-05
1.82213e-05
-4.24663e-06
1.07358e-05
-1.73605e-07
8.89498e-06
3.56266e-07
4.11888e-07
4.6014e-06
8.52695e-07
4.71854e-06
-1.88979e-05
1.03623e-05
-2.28168e-05
1.58449e-05
-2.21255e-05
2.13507e-05
-2.21948e-05
2.70413e-05
-2.29552e-05
3.29991e-05
-2.40522e-05
3.92888e-05
-2.54186e-05
4.59867e-05
-2.70741e-05
5.3177e-05
-2.91127e-05
6.09466e-05
-3.14647e-05
6.94787e-05
-3.44145e-05
7.88422e-05
-3.77626e-05
8.90797e-05
-4.16096e-05
0.000100592
-4.66924e-05
0.000113729
-5.07833e-05
0.000128267
-5.03336e-05
0.000116296
-4.54513e-05
3.36376e-05
-1.85321e-05
3.32519e-06
-1.08347e-06
2.3845e-06
1.12371e-08
3.9031e-06
-1.33082e-07
2.12023e-06
1.70293e-06
2.72583e-06
4.7005e-06
-2.35984e-05
1.02805e-05
-2.83968e-05
1.5704e-05
-2.75491e-05
2.11563e-05
-2.76471e-05
2.67902e-05
-2.8589e-05
3.26845e-05
-2.99466e-05
3.89015e-05
-3.16356e-05
4.55183e-05
-3.3691e-05
5.26139e-05
-3.62083e-05
6.02825e-05
-3.91333e-05
6.87146e-05
-4.28466e-05
7.79651e-05
-4.70131e-05
8.8109e-05
-5.17534e-05
9.96737e-05
-5.82571e-05
0.000113567
-6.4677e-05
0.000125482
-6.22561e-05
6.05308e-05
-4.62166e-05
2.79877e-06
-6.31964e-06
6.91868e-07
-1.44621e-07
4.71641e-07
1.26326e-08
4.58654e-07
7.77705e-09
1.57066e-06
3.78549e-07
4.70613e-06
4.6768e-06
-2.82752e-05
1.0181e-05
-3.3901e-05
1.55334e-05
-3.29015e-05
2.09215e-05
-3.30352e-05
2.64885e-05
-3.4156e-05
3.23089e-05
-3.57669e-05
3.84424e-05
-3.77691e-05
4.49673e-05
-4.02158e-05
5.19571e-05
-4.31982e-05
5.95108e-05
-4.6687e-05
6.78305e-05
-5.11663e-05
7.69596e-05
-5.61422e-05
8.6982e-05
-6.17758e-05
9.85228e-05
-6.97979e-05
0.000112987
-7.91416e-05
9.41384e-05
-8.07759e-05
9.99252e-06
-2.79773e-05
5.17598e-07
-1.33354e-06
1.43913e-07
1.63153e-08
9.17805e-08
3.55319e-09
9.71925e-08
4.44977e-09
7.00033e-07
2.63844e-07
8.61317e-06
4.65296e-06
-3.29282e-05
1.0067e-05
-3.9315e-05
1.53381e-05
-3.81726e-05
2.06545e-05
-3.83516e-05
2.61478e-05
-3.96494e-05
3.18868e-05
-4.15059e-05
3.79297e-05
-4.3812e-05
4.4353e-05
-4.66391e-05
5.1229e-05
-5.00742e-05
5.86579e-05
-5.41159e-05
6.68396e-05
-5.9348e-05
7.57955e-05
-6.50981e-05
8.56151e-05
-7.15955e-05
9.70207e-05
-8.12035e-05
0.000110317
-9.24386e-05
4.8293e-05
-7.88413e-05
1.51208e-06
-9.26011e-06
2.74048e-08
-2.93483e-07
5.37596e-09
2.92625e-08
1.72592e-08
6.02321e-09
4.04633e-08
-2.19553e-10
2.49165e-07
4.78615e-08
3.2526e-06
4.62954e-06
-3.75577e-05
9.93217e-06
-4.46177e-05
1.51122e-05
-4.33526e-05
2.03471e-05
-4.35866e-05
2.57555e-05
-4.50577e-05
3.13994e-05
-4.71499e-05
3.73347e-05
-4.97473e-05
4.36354e-05
-5.29398e-05
5.03673e-05
-5.68061e-05
5.76399e-05
-6.13885e-05
6.5633e-05
-6.7341e-05
7.43041e-05
-7.37693e-05
8.37626e-05
-8.10539e-05
9.49321e-05
-9.2373e-05
9.93433e-05
-9.68583e-05
1.28217e-05
-5.86468e-05
5.06639e-07
-3.42941e-06
1.68418e-08
8.43436e-09
1.89793e-09
2.51382e-08
1.9611e-09
3.28006e-09
6.54134e-09
2.49087e-11
3.38318e-08
1.66656e-08
1.28166e-07
1.40312e-25
-5.08425e-25
1.14807e-24
-2.72513e-24
2.81392e-25
-8.16963e-25
4.89792e-27
-3.47424e-26
5.54374e-29
-3.8397e-28
1.46052e-30
-2.53326e-30
5.8285e-32
1.52683e-32
1.88793e-33
1.44158e-33
5.08085e-35
6.36702e-35
1.22893e-36
2.17845e-36
2.57847e-38
6.23145e-38
4.55376e-40
1.50448e-39
6.60037e-42
3.05236e-41
7.56727e-44
5.12244e-43
6.48142e-46
6.91824e-45
3.7753e-48
7.18337e-47
1.25223e-50
5.30625e-49
1.53787e-53
2.40071e-51
4.57149e-54
2.10149e-23
-1.21336e-22
1.76373e-22
-6.55443e-22
2.91147e-23
-1.62407e-22
4.57425e-25
-5.76914e-24
6.34248e-27
-6.47099e-26
1.66424e-28
-4.61978e-28
5.73376e-30
5.26311e-30
1.76569e-31
5.21115e-31
4.71837e-33
2.27721e-32
1.12875e-34
7.68394e-34
2.3449e-36
2.16961e-35
4.10404e-38
5.18152e-37
5.87095e-40
1.03885e-38
6.57627e-42
1.71421e-40
5.39353e-44
2.2492e-42
2.88562e-46
2.21377e-44
7.94e-49
1.46918e-46
6.69147e-52
5.13155e-49
6.4595e-52
8.77785e-22
-8.28658e-21
1.17535e-20
-6.004e-20
1.51464e-21
-1.32198e-20
2.16135e-23
-4.19176e-22
3.30787e-25
-4.65892e-24
8.18854e-27
-3.12627e-26
2.37294e-28
4.19265e-28
6.51287e-30
3.30441e-29
1.61569e-31
1.29153e-30
3.62034e-33
4.00452e-32
7.0975e-35
1.05408e-33
1.17704e-36
2.36796e-35
1.5916e-38
4.47995e-37
1.66651e-40
6.95086e-39
1.24225e-42
8.46292e-41
5.81161e-45
7.46281e-43
1.41545e-47
4.37563e-45
1.76032e-50
1.38729e-47
1.82675e-50
8.98964e-21
-1.68508e-19
5.01691e-19
-3.986e-18
5.61027e-20
-8.24387e-19
7.31575e-22
-2.19616e-20
1.17626e-23
-2.2174e-22
2.76151e-25
-1.2765e-24
7.02712e-27
2.11566e-26
1.73568e-28
1.32922e-27
3.9756e-30
4.64138e-29
8.29831e-32
1.31713e-30
1.52687e-33
3.2165e-32
2.38272e-35
6.75871e-34
3.01067e-37
1.19793e-35
2.92522e-39
1.72649e-37
2.06726e-41
1.96984e-39
9.29777e-44
1.65655e-41
2.17031e-46
9.28757e-44
3.63266e-49
2.8381e-46
3.82013e-49
-2.31189e-18
-3.95231e-18
1.73226e-17
-3.02697e-16
1.62261e-18
-5.53772e-17
1.77485e-20
-9.55655e-19
2.96278e-22
-7.61729e-21
6.73585e-24
-3.42706e-23
1.58007e-25
7.3618e-25
3.56753e-27
3.7891e-26
7.5268e-29
1.19231e-27
1.45442e-30
3.09794e-29
2.48751e-32
6.98444e-31
3.62814e-34
1.36093e-32
4.37897e-36
2.26537e-34
4.11815e-38
3.13759e-36
2.7741e-40
3.40281e-38
1.23839e-42
2.79091e-40
2.88312e-45
1.54185e-42
5.96616e-48
4.71864e-45
6.35626e-48
-5.11069e-17
-2.4131e-16
4.52264e-16
-6.89173e-15
2.86836e-17
-1.18647e-15
2.63983e-19
-1.61456e-17
4.77567e-21
-1.1227e-19
1.11044e-22
-3.4843e-22
2.53218e-24
1.63106e-23
5.42263e-26
7.26987e-25
1.07947e-27
2.13814e-26
1.95924e-29
5.22028e-28
3.16819e-31
1.10653e-29
4.45412e-33
2.05854e-31
5.13903e-35
3.28885e-33
4.62904e-37
4.3152e-35
3.16942e-39
4.64746e-37
1.38637e-41
3.77788e-39
3.09733e-44
2.01169e-41
7.62855e-47
6.104e-44
8.27749e-47
1.8508e-15
5.26812e-17
3.87674e-15
-2.49078e-14
1.5965e-16
-3.57063e-15
1.7877e-18
-5.79456e-17
3.83668e-20
-4.89309e-19
9.83699e-22
-4.15035e-22
2.3548e-23
1.80446e-22
5.15478e-25
7.68821e-24
1.03191e-26
2.28019e-25
1.87054e-28
5.60023e-27
3.02168e-30
1.19545e-28
4.16961e-32
2.21662e-30
4.74461e-34
3.47365e-32
4.39827e-36
4.63559e-34
2.97812e-38
5.01353e-36
1.28188e-40
4.01582e-38
2.90096e-43
2.16178e-40
7.89329e-46
6.42667e-43
8.73425e-46
2.09026e-14
-7.00935e-14
6.85276e-15
-4.51046e-14
2.48588e-16
-3.02667e-15
5.37852e-18
-8.14909e-17
1.65262e-19
-7.8028e-19
4.99528e-21
6.27123e-21
1.31421e-22
1.08691e-21
3.09641e-24
4.79063e-23
6.55025e-26
1.51948e-24
1.24574e-27
3.97895e-26
2.08557e-29
8.95997e-28
2.9457e-31
1.73015e-29
3.39603e-33
2.79708e-31
3.16247e-35
3.78629e-33
2.17913e-37
4.16079e-35
9.44629e-40
3.40325e-37
2.07003e-42
1.7964e-39
6.33487e-45
5.33337e-42
7.21974e-45
9.65028e-06
-4.7208e-05
2.05798e-05
-5.55473e-05
3.12145e-05
-5.39872e-05
4.19984e-05
-5.43705e-05
5.31367e-05
-5.61961e-05
6.47281e-05
-5.87412e-05
7.68847e-05
-6.19039e-05
8.97236e-05
-6.57787e-05
0.000103419
-7.05011e-05
0.000118126
-7.60963e-05
0.000134142
-8.3357e-05
0.000151431
-9.10574e-05
0.000170945
-0.000100569
0.000194394
-0.000115821
0.000122461
-0.000110162
3.73684e-06
-1.51879e-05
1.26295e-07
-6.6166e-07
-1.39952e-08
4.0759e-08
-2.16734e-09
5.47595e-09
1.28105e-10
2.36333e-10
1.19518e-09
5.30394e-11
1.47697e-08
3.08724e-09
3.18778e-08
1.05232e-07
9.36876e-06
-5.65767e-05
1.96752e-05
-6.58537e-05
2.97466e-05
-6.40586e-05
3.99873e-05
-6.46112e-05
5.05417e-05
-6.67505e-05
6.14808e-05
-6.96803e-05
7.28913e-05
-7.33145e-05
8.48739e-05
-7.77612e-05
9.75438e-05
-8.31711e-05
0.000111043
-8.95954e-05
0.000125563
-9.78773e-05
0.000140896
-0.00010639
0.000158352
-0.000118025
0.000170926
-0.000128396
2.36881e-05
-7.12722e-05
7.96188e-07
-3.21716e-06
-1.86221e-08
-1.1251e-08
-3.96336e-09
1.29232e-08
-2.23827e-10
6.96101e-10
3.23508e-11
-5.17435e-11
1.4736e-10
4.59643e-12
2.78326e-09
3.97967e-10
6.11022e-09
3.10922e-08
9.01237e-06
-6.55891e-05
1.86209e-05
-7.54622e-05
2.80546e-05
-7.34923e-05
3.76757e-05
-7.42323e-05
4.75614e-05
-7.66362e-05
5.77545e-05
-7.98734e-05
6.83184e-05
-8.38784e-05
7.93259e-05
-8.87687e-05
9.08428e-05
-9.4688e-05
0.000102967
-0.000101719
0.000115771
-0.000110682
0.000128946
-0.000119564
0.000144185
-0.000133265
0.000105952
-0.000139473
2.61871e-06
-2.97905e-05
7.36783e-08
-1.05598e-06
-9.43601e-09
4.02682e-08
-9.36547e-10
3.32289e-09
-8.87272e-11
8.14162e-11
3.46445e-12
1.01565e-11
2.2247e-11
1.04931e-12
3.84494e-10
4.92848e-11
8.04449e-10
5.8287e-09
8.57925e-06
-7.41684e-05
1.74348e-05
-8.43178e-05
2.61805e-05
-8.2238e-05
3.51202e-05
-8.3172e-05
4.42696e-05
-8.57856e-05
5.3647e-05
-8.92508e-05
6.32935e-05
-9.35248e-05
7.3251e-05
-9.87262e-05
8.35427e-05
-0.00010498
9.42143e-05
-0.000112391
0.000105208
-0.000121676
0.000116219
-0.000130575
0.00012895
-0.000145995
4.82336e-05
-0.000122679
9.81865e-07
-7.98574e-06
-1.89128e-08
-1.64894e-07
-3.00312e-09
1.86811e-08
-1.7312e-10
5.20714e-10
-1.52235e-11
3.73981e-11
-2.70793e-13
1.28963e-11
3.89116e-12
5.67059e-13
4.94819e-11
3.22328e-12
5.73919e-11
7.89414e-10
8.0782e-06
-8.22466e-05
1.61434e-05
-9.2383e-05
2.41677e-05
-9.02623e-05
3.23812e-05
-9.13854e-05
4.07478e-05
-9.41522e-05
4.92667e-05
-9.77696e-05
5.79587e-05
-0.000102217
6.68384e-05
-0.000107606
7.58942e-05
-0.000114036
8.51284e-05
-0.000121625
9.43791e-05
-0.000130926
0.000103442
-0.000139638
0.000112162
-0.000154715
1.22585e-05
-8.85716e-05
1.98168e-07
-2.42618e-06
-1.38742e-08
2.64199e-08
-4.70309e-10
4.57656e-09
-1.99625e-11
8.25282e-11
-1.14433e-12
-2.10991e-12
-2.9948e-13
7.77264e-13
6.53365e-13
2.93945e-13
4.01926e-12
1.29159e-13
3.45026e-12
5.757e-11
7.51819e-06
-8.97647e-05
1.47731e-05
-9.96379e-05
2.20566e-05
-9.75459e-05
2.95149e-05
-9.88437e-05
3.70714e-05
-0.000101709
4.4712e-05
-0.00010541
5.2441e-05
-0.000109946
6.02507e-05
-0.000115416
6.81058e-05
-0.000121891
7.59795e-05
-0.000129499
8.36573e-05
-0.000138604
9.11313e-05
-0.000147112
8.42498e-05
-0.000154632
1.40314e-06
-5.61404e-05
1.93398e-08
-1.16405e-06
-3.48097e-09
4.56717e-08
-7.19132e-11
1.12423e-09
-3.04697e-12
1.48761e-11
-1.58785e-14
-1.13263e-12
5.26637e-14
-1.5557e-13
9.23505e-14
1.72133e-13
2.52631e-13
4.13618e-14
3.18639e-13
3.24765e-12
6.90974e-06
-9.66745e-05
1.33501e-05
-0.000106078
1.98852e-05
-0.000104081
2.65731e-05
-0.000105532
3.33094e-05
-0.000108445
4.00712e-05
-0.000112172
4.68503e-05
-0.000116725
5.36231e-05
-0.000122188
6.03406e-05
-0.000128608
6.69584e-05
-0.000136117
7.3243e-05
-0.000144889
7.93379e-05
-0.000153207
5.21814e-05
-0.000154191
6.76724e-07
-3.26848e-05
-2.38208e-08
-5.18193e-07
-1.0433e-09
2.22373e-08
-1.42957e-11
9.14232e-11
-5.13046e-13
2.42936e-12
2.78536e-14
6.76678e-14
4.36991e-14
1.06197e-13
2.5814e-14
9.21407e-14
2.43456e-14
2.59279e-14
1.90756e-14
1.83014e-13
6.2659e-06
-0.00010294
1.18988e-05
-0.000111711
1.76868e-05
-0.000109869
2.36011e-05
-0.000111446
2.95203e-05
-0.000114364
3.54171e-05
-0.000118069
4.12741e-05
-0.000122582
4.70577e-05
-0.000127972
5.27135e-05
-0.000134264
5.81882e-05
-0.000141592
6.32585e-05
-0.000149959
6.81863e-05
-0.000158135
3.32213e-05
-0.000144526
4.51387e-07
-1.70419e-05
-1.9253e-08
-6.24317e-08
-4.67117e-11
2.93257e-09
-1.65588e-12
1.57173e-11
-1.20366e-13
1.07497e-12
1.89581e-14
1.38213e-13
2.36287e-14
8.25925e-14
1.25934e-14
4.219e-14
6.96246e-15
1.58562e-14
5.60471e-15
1.297e-14
5.59917e-06
-0.00010854
1.04413e-05
-0.000116553
1.54906e-05
-0.000114918
2.06375e-05
-0.000116593
2.57534e-05
-0.00011948
3.08087e-05
-0.000123124
3.578e-05
-0.000127553
4.06283e-05
-0.00013282
4.52994e-05
-0.000138935
4.97359e-05
-0.000146028
5.37451e-05
-0.000153968
5.76335e-05
-0.000162023
1.88355e-05
-0.000130787
1.27e-07
-7.34028e-06
-2.44811e-09
6.57653e-08
-1.03162e-11
4.8249e-10
-1.14773e-13
1.11577e-12
5.34212e-15
1.62585e-13
1.24032e-14
7.49998e-14
1.01277e-14
3.82514e-14
5.01922e-15
1.62849e-14
2.55644e-15
6.47791e-15
2.56697e-15
1.74024e-15
4.92148e-06
-0.000113461
8.99541e-06
-0.000120627
1.33198e-05
-0.000119243
1.77132e-05
-0.000120986
2.20463e-05
-0.000123813
2.62898e-05
-0.000127368
3.04159e-05
-0.000131679
3.43846e-05
-0.000136789
3.81453e-05
-0.000142696
4.16389e-05
-0.000149522
4.47236e-05
-0.000157053
4.76251e-05
-0.000164924
8.62171e-06
-0.000111269
-3.94674e-08
-2.16083e-06
-4.6262e-10
2.66645e-08
-8.59413e-13
2.02317e-11
-1.68579e-14
1.85743e-13
8.98909e-15
3.89862e-14
6.19842e-15
2.89652e-14
3.53459e-15
1.36413e-14
1.53804e-15
5.09914e-15
6.3305e-16
1.64526e-15
4.86464e-16
2.56446e-16
4.24098e-06
-0.000117702
7.57374e-06
-0.00012396
1.11911e-05
-0.00012286
1.48493e-05
-0.000124644
1.84245e-05
-0.000127388
2.18887e-05
-0.000130832
2.5212e-05
-0.000135003
2.83582e-05
-0.000139935
3.12848e-05
-0.000145622
3.39285e-05
-0.000152165
3.62034e-05
-0.000159328
3.8074e-05
-0.000166795
2.1479e-06
-8.31472e-05
-2.17592e-08
-6.35725e-07
-1.3047e-11
4.96719e-09
-1.16395e-13
7.6202e-12
-8.20006e-16
9.69042e-14
3.8984e-15
2.01809e-14
2.40866e-15
1.19481e-14
1.04313e-15
4.74191e-15
3.46193e-16
1.33655e-15
1.02545e-16
2.97991e-16
6.42514e-17
2.52197e-17
3.57263e-06
-0.000121275
6.20156e-06
-0.000126589
9.138e-06
-0.000125796
1.20893e-05
-0.000127596
1.49438e-05
-0.000130243
1.76726e-05
-0.000133561
2.0244e-05
-0.000137574
2.26229e-05
-0.000142314
2.47786e-05
-0.000147778
2.66013e-05
-0.000153988
2.80031e-05
-0.000160728
2.84303e-05
-0.000167217
3.63039e-07
-5.38114e-05
-3.29209e-09
-2.71157e-07
-4.53534e-11
1.76417e-09
-7.41497e-14
9.07565e-12
-3.4321e-15
8.76931e-14
1.70583e-15
1.05021e-14
9.8548e-16
5.48419e-15
2.80101e-16
1.68512e-15
5.83658e-17
3.14304e-16
1.24552e-17
4.78477e-17
8.51883e-18
2.12465e-18
2.94943e-06
-0.000124224
4.92591e-06
-0.000128564
7.23538e-06
-0.000128105
9.53698e-06
-0.000129896
1.17355e-05
-0.00013244
1.37955e-05
-0.000135619
1.56761e-05
-0.000139453
1.73242e-05
-0.000143959
1.8702e-05
-0.000149152
1.95513e-05
-0.000154833
1.95983e-05
-0.000160762
1.73303e-05
-0.000164908
2.11192e-07
-3.88193e-05
-1.64436e-09
-5.84164e-08
-6.03576e-12
1.22591e-10
-1.09925e-13
9.38487e-12
-3.13581e-15
1.64476e-13
6.94317e-16
6.67332e-15
3.28241e-16
1.98646e-15
6.16764e-17
4.81189e-16
8.38987e-18
6.92171e-17
1.35708e-18
8.05784e-18
1.17576e-18
1.60237e-19
2.37334e-06
-0.000126597
3.75022e-06
-0.000129926
5.50377e-06
-0.000129838
7.22407e-06
-0.000131594
8.8244e-06
-0.000134015
1.026e-05
-0.000137025
1.14679e-05
-0.000140625
1.23561e-05
-0.000144804
1.28381e-05
-0.000149581
1.26482e-05
-0.000154573
1.12728e-05
-0.000159269
8.87858e-06
-0.000162147
-1.02529e-07
-3.94519e-05
9.7357e-10
-1.62911e-07
4.72615e-11
1.02684e-09
9.10758e-13
5.5288e-11
1.1864e-14
1.05528e-12
1.52815e-16
1.79011e-14
7.4791e-17
7.95977e-16
1.19592e-17
1.08088e-16
1.19105e-18
1.59457e-17
1.37769e-19
1.60044e-18
1.6793e-19
8.83381e-21
1.74803e-06
-0.000128345
2.52458e-06
-0.0001305
3.7046e-06
-0.000130788
4.81159e-06
-0.000132449
5.75728e-06
-0.000134677
6.48817e-06
-0.000137431
6.92908e-06
-0.000140688
6.99692e-06
-0.000144426
6.52627e-06
-0.000148582
6.14426e-06
-0.00015056
6.53939e-06
-0.000143895
9.13796e-06
-0.000108069
-5.71113e-07
-4.33396e-05
1.8338e-08
-3.16391e-06
2.52032e-09
1.58462e-08
6.10015e-11
2.49246e-09
9.20087e-13
6.06891e-11
9.97608e-15
9.20438e-13
-3.88781e-17
1.05578e-14
8.48583e-19
7.32151e-17
2.14138e-19
5.01044e-18
1.24201e-20
4.16939e-19
2.56182e-20
-2.69191e-23
7.29312e-07
-7.36978e-05
7.90487e-07
-7.29593e-05
1.14534e-06
-7.14866e-05
1.3528e-06
-6.91669e-05
1.37704e-06
-6.60063e-05
1.21228e-06
-6.21032e-05
8.63271e-07
-5.74104e-05
4.82299e-07
-5.18912e-05
2.3012e-07
-4.60866e-05
1.24404e-06
-3.51004e-05
4.51162e-06
-1.73332e-06
4.36077e-06
-4.74375e-08
3.64972e-06
-5.94131e-06
1.3606e-08
-4.55926e-06
2.03524e-08
-1.88188e-09
5.51253e-10
2.17057e-08
7.94845e-12
5.90439e-10
6.4015e-14
8.67613e-12
1.66221e-16
7.40662e-14
2.32436e-20
2.37502e-16
-1.67863e-21
2.17755e-18
-9.68033e-23
1.2997e-19
4.32508e-21
-9.85798e-24
-1.5274e-07
7.80061e-22
-3.76734e-07
2.32355e-21
-5.2393e-07
1.82772e-22
-6.69577e-07
1.16621e-20
-7.67336e-07
4.39877e-19
-7.73865e-07
8.30704e-18
-6.79796e-07
-7.62183e-17
-4.87175e-07
-1.45457e-15
-6.26294e-08
-3.56906e-14
2.56608e-07
-6.02136e-13
4.87705e-08
-3.93341e-11
1.68866e-09
-4.12213e-10
2.29765e-07
-3.41062e-09
1.78784e-06
-1.06395e-06
1.15456e-08
-1.6906e-07
4.37661e-10
3.13641e-08
1.88324e-12
1.01134e-09
-4.69126e-14
1.06394e-11
-2.16352e-16
2.48385e-14
-2.00247e-19
2.10054e-17
-1.54968e-20
1.51951e-18
-4.87485e-22
4.53536e-20
7.41122e-22
-2.35073e-23
5.3819e-23
2.59662e-22
9.04871e-24
2.34195e-21
8.39257e-22
-4.9236e-24
4.07414e-20
-4.88086e-22
8.81844e-19
-3.55564e-20
-7.62265e-19
-1.95455e-18
-1.38185e-17
-6.31621e-17
-2.13264e-16
-1.26036e-15
3.00287e-17
-3.60433e-14
1.63809e-14
-8.23674e-13
1.06626e-12
-3.35807e-11
3.44874e-11
-4.52098e-10
9.69916e-10
-4.40262e-09
1.52839e-07
-2.91729e-07
-1.8363e-08
-2.00322e-08
-3.30872e-10
1.29218e-08
-1.6576e-11
2.69612e-10
-2.37522e-14
2.55648e-12
-2.04945e-17
1.10456e-15
-4.9166e-19
7.89042e-19
-6.10298e-21
2.45258e-18
-1.60503e-22
1.37991e-20
9.50471e-23
-6.04888e-24
6.73597e-23
-6.36503e-27
-2.71538e-25
-3.2135e-25
-6.05941e-25
-4.85585e-24
-7.65874e-23
-5.29936e-22
-8.73362e-21
-4.4755e-20
-6.69649e-19
-3.49058e-18
-1.28904e-17
-1.16503e-16
-2.93335e-17
-1.81297e-15
2.82951e-14
-6.69404e-14
7.9819e-13
-2.09057e-12
1.15211e-11
-5.59752e-11
1.00705e-11
-8.62533e-10
8.25733e-10
-9.90799e-09
-2.06517e-07
-8.96575e-08
-1.15123e-08
7.55164e-10
-2.23506e-10
1.56105e-09
-2.01466e-12
3.06711e-11
-1.70946e-15
3.98039e-13
-1.42437e-18
2.59928e-16
-8.00864e-19
1.57523e-19
-4.44488e-21
2.22829e-18
-2.86622e-23
2.24732e-21
8.03877e-24
-9.02791e-25
-2.08665e-27
1.36096e-28
-2.26602e-26
-8.06104e-26
-1.06988e-24
-4.08623e-24
-1.48041e-22
-4.30597e-22
-2.26543e-20
-3.44276e-20
-4.29352e-18
-2.19444e-18
-3.56562e-17
-9.38372e-17
2.65161e-15
-3.92738e-15
7.2692e-14
-1.41127e-13
1.81205e-12
-3.97863e-12
2.27273e-11
-8.07785e-11
1.20663e-09
-1.77082e-09
-2.72893e-08
-6.02026e-09
-1.63067e-07
-1.56347e-08
-1.48733e-09
8.39258e-09
-2.86115e-11
9.59827e-11
-3.79746e-13
2.33533e-12
-2.35556e-16
2.61945e-14
-1.18553e-19
1.11484e-17
-5.25528e-19
8.36756e-20
-8.16106e-22
5.15432e-19
-3.29669e-24
1.72209e-22
5.21551e-25
-9.24549e-26
-1.05301e-27
2.0828e-27
-1.8969e-25
1.08027e-25
-6.86209e-24
2.58617e-24
-4.75186e-22
3.77262e-23
-3.52356e-20
3.32881e-22
-2.21413e-18
-9.10381e-22
-9.54358e-17
-8.05299e-20
-4.0144e-15
-4.40542e-18
-1.44826e-13
-3.13628e-16
-4.11561e-12
-7.71227e-15
-8.4712e-11
-1.74273e-13
-3.17308e-09
-3.15996e-12
-1.1999e-09
-2.87556e-11
-8.25363e-09
-1.93514e-10
-9.42954e-11
2.22551e-10
-2.31558e-12
3.33385e-12
-2.50197e-14
1.17932e-13
-1.25746e-17
4.613e-16
-2.65956e-20
2.11718e-19
-8.74232e-20
1.06734e-20
-7.54959e-23
2.14916e-20
-2.86361e-25
7.82908e-24
2.94931e-26
-7.19655e-27
4.76571e-27
4.03674e-27
2.30135e-25
2.47267e-25
5.05925e-24
7.27849e-24
6.0213e-23
1.35683e-22
-4.33314e-23
1.65375e-21
-1.32487e-20
1.23147e-20
-1.41506e-19
4.77271e-20
-4.58309e-18
3.62636e-20
-3.17307e-16
-8.63819e-19
-7.96884e-15
-4.23441e-17
-1.81163e-13
-1.02535e-15
-3.32092e-12
-1.95044e-14
-3.17428e-11
-2.00022e-13
-2.23032e-10
-2.12341e-12
-3.38881e-12
2.28271e-12
-1.1561e-13
5.32022e-14
-7.0415e-16
1.61291e-15
-1.30612e-19
9.0685e-18
-3.67119e-21
2.4555e-21
-4.85148e-21
6.2526e-22
-4.78149e-24
4.98219e-22
-2.00178e-26
3.13809e-25
1.42592e-27
-4.55073e-28
1.20882e-26
2.72711e-27
7.20172e-25
2.01187e-25
2.03571e-23
6.8243e-24
3.36946e-22
1.39117e-22
3.21987e-21
1.84873e-21
1.55264e-20
1.61985e-20
1.44398e-20
8.98234e-20
-1.60432e-19
2.79469e-19
-1.34765e-18
3.4446e-19
-4.36687e-17
-3.52328e-20
-1.06944e-15
-6.19255e-19
-2.05424e-14
-3.18895e-17
-2.2007e-13
-4.45432e-16
-2.33978e-12
-3.45908e-15
-5.48961e-14
2.7073e-15
-2.45017e-15
3.83147e-16
-6.52846e-18
1.30989e-17
-3.04354e-21
2.28056e-19
-2.71856e-22
1.70956e-22
-2.27773e-22
2.39689e-23
-2.39227e-25
1.47815e-23
-1.11813e-27
1.07569e-26
5.50958e-29
-2.42967e-29
1.07082e-26
-1.32896e-35
7.34275e-25
-3.60521e-33
2.28114e-23
-4.81111e-31
4.13278e-22
-4.21428e-29
4.66915e-21
-2.7078e-27
3.2376e-20
-1.34993e-25
1.24074e-19
-5.39055e-24
1.88164e-19
-1.74877e-22
-3.12446e-20
-4.61676e-21
-1.09425e-19
-5.70526e-20
-6.57116e-19
-1.03792e-18
-1.19558e-17
-2.16945e-17
-2.861e-16
-1.73737e-16
-3.39144e-15
-3.33154e-16
-3.81052e-16
-1.43449e-16
-1.24069e-17
1.81404e-18
-1.65299e-19
3.56091e-19
-1.01699e-22
6.28581e-20
-1.60967e-23
1.15701e-23
-9.03899e-24
8.27858e-25
-9.24138e-27
3.79742e-25
-4.73205e-29
2.87659e-28
1.69388e-30
-1.07705e-30
-1.24887e-35
-8.00904e-37
-3.39719e-33
-2.20506e-34
-4.54711e-31
-2.97972e-32
-3.99486e-29
-2.64888e-30
-2.57461e-27
-1.73135e-28
-1.28751e-25
-8.81647e-27
-5.18269e-24
-3.41748e-25
-1.72245e-22
-9.7794e-24
-4.86194e-21
-2.37082e-22
-9.85672e-20
-4.09797e-21
-2.7871e-18
-9.52777e-20
-1.09992e-16
-1.97788e-18
-1.09487e-15
-1.32221e-17
-1.50559e-15
-1.8557e-17
-2.28272e-17
-6.75324e-18
-3.92085e-18
2.21583e-19
4.42725e-21
2.34531e-19
-2.15631e-23
-1.27255e-21
-1.11889e-24
5.49632e-24
-3.20977e-25
4.02564e-26
-2.74979e-28
9.34372e-27
-1.71702e-30
7.12799e-30
5.22942e-32
-4.52693e-32
-7.96292e-37
-4.61226e-39
-2.20857e-34
-1.29472e-36
-3.00177e-32
-1.78846e-34
-2.67836e-30
-1.64458e-32
-1.75745e-28
-1.11492e-30
-8.98707e-27
-5.91156e-29
-3.50598e-25
-2.40241e-27
-1.01366e-23
-7.27981e-26
-2.47703e-22
-1.88336e-24
-4.43527e-21
-3.60008e-23
-1.99485e-19
-9.53142e-22
-6.25625e-18
-2.16157e-20
-3.20013e-17
-1.44158e-19
-3.22951e-17
-2.15537e-19
-4.3255e-19
-1.03965e-19
-4.1439e-19
-2.90987e-22
7.94402e-22
1.04525e-20
-2.60419e-24
-1.78346e-22
-7.06821e-26
1.36288e-25
-9.13621e-27
1.78014e-27
-7.11885e-30
2.02103e-28
-6.32566e-32
1.54611e-31
1.85332e-33
-1.79907e-33
-4.61187e-39
-3.91235e-43
-1.29934e-36
-1.15155e-40
-1.80143e-34
-1.67007e-38
-1.66251e-32
-1.61352e-36
-1.13142e-30
-1.15269e-34
-6.02356e-29
-6.46718e-33
-2.46192e-27
-2.80038e-31
-7.52257e-26
-9.1325e-30
-1.95727e-24
-2.55868e-28
-3.84129e-23
-5.31746e-27
-2.10754e-21
-1.34167e-25
-6.55156e-20
-3.27889e-24
-3.23224e-19
-6.27752e-23
-3.26579e-19
-4.59958e-22
-2.018e-20
-7.57902e-22
-9.8957e-21
-2.41541e-22
-9.3211e-24
8.20672e-24
-1.86169e-25
7.97826e-25
-3.09828e-27
2.22161e-27
-1.9902e-28
4.99405e-29
-1.60938e-31
3.46223e-30
-2.35403e-33
2.29823e-33
6.40891e-35
-6.58202e-35
-3.9124e-43
5.51694e-48
-1.15485e-40
-6.63313e-44
-1.67599e-38
-1.02132e-41
-1.62253e-36
-1.08068e-39
-1.16172e-34
-8.45133e-38
-6.53398e-33
-5.19923e-36
-2.83953e-31
-2.48428e-34
-9.30209e-30
-9.01685e-33
-2.60701e-28
-2.80878e-31
-5.56524e-27
-6.71997e-30
-1.70175e-25
-1.84933e-28
-7.35097e-24
-4.88818e-27
-2.39534e-22
-1.21615e-25
-1.63171e-21
-1.47607e-24
-1.96543e-21
-3.7258e-24
-2.68285e-23
-2.11826e-24
-3.94032e-24
8.73179e-28
-7.44504e-27
1.64285e-25
-1.02997e-28
7.08773e-29
-3.43112e-30
1.21657e-30
-3.19517e-33
4.78396e-32
-8.49222e-35
4.02944e-35
2.038e-36
-2.27398e-36
-2.19339e-45
-1.65642e-50
-4.51776e-44
-6.19822e-48
-9.27807e-42
-1.15807e-45
-9.79264e-40
-1.28259e-43
-7.71057e-38
-1.05819e-41
-4.79229e-36
-6.91013e-40
-2.29065e-34
-3.62263e-38
-8.17829e-33
-1.52547e-36
-2.58492e-31
-5.58556e-35
-6.9706e-30
-1.76439e-33
-2.14254e-28
-5.41137e-32
-9.41965e-27
-1.6004e-30
-5.06033e-25
-4.36664e-29
-5.80286e-24
-8.0771e-28
-8.8847e-24
-3.91417e-27
-3.79944e-26
-4.24701e-27
-5.31806e-26
-7.51364e-28
-2.83844e-28
1.11777e-28
-3.26639e-30
2.06947e-30
-4.79048e-32
3.1693e-32
-6.59936e-35
5.19806e-34
-2.99961e-36
1.02613e-36
6.00636e-38
-7.47993e-38
-1.65627e-50
-1.48937e-54
-6.21519e-48
-3.17008e-52
-1.16435e-45
-6.43921e-50
-1.29431e-43
-7.78342e-48
-1.0712e-41
-7.01852e-46
-7.0177e-40
-5.02397e-44
-3.69308e-38
-2.89954e-42
-1.56255e-36
-1.35171e-40
-5.74249e-35
-5.50415e-39
-1.81897e-33
-1.94408e-37
-5.98459e-32
-6.65199e-36
-2.49246e-30
-2.18098e-34
-1.4881e-28
-5.96509e-33
-3.40635e-27
-1.65351e-31
-1.243e-26
-3.49274e-30
-1.2014e-26
-1.57195e-29
-3.65737e-28
-1.08092e-29
-1.01642e-29
3.51527e-32
-9.86029e-32
5.21015e-32
-5.44503e-34
7.0299e-34
-1.59904e-36
2.35307e-36
-9.30929e-38
2.66185e-38
1.57231e-39
-2.34407e-39
-1.48909e-54
-2.73867e-58
-3.18588e-52
-6.43493e-56
-6.47268e-50
-1.43626e-53
-7.85018e-48
-1.91617e-51
-7.09911e-46
-1.90952e-49
-5.09648e-44
-1.5142e-47
-2.9515e-42
-9.71682e-46
-1.38181e-40
-5.06051e-44
-5.63916e-39
-2.30976e-42
-2.00042e-37
-9.21576e-41
-6.93766e-36
-3.56749e-39
-2.62033e-34
-1.30807e-37
-1.02877e-32
-4.27345e-36
-7.75801e-31
-1.39917e-34
-2.15681e-29
-3.85574e-33
-5.87876e-29
-2.31703e-32
-5.11524e-31
-2.2342e-32
-2.3491e-31
-2.04622e-35
-2.23123e-33
7.05554e-34
-5.58951e-36
1.02158e-35
-5.08986e-38
3.09289e-38
-2.5464e-39
7.74763e-40
3.62782e-41
-6.89325e-41
-2.73866e-58
-1.15669e-63
-6.46236e-56
-2.97477e-61
-1.44205e-53
-7.36492e-59
-1.93198e-51
-1.10049e-56
-1.92835e-49
-1.22507e-54
-1.53299e-47
-1.08809e-52
-9.86596e-46
-7.84585e-51
-5.15654e-44
-4.61022e-49
-2.3526e-42
-2.37946e-47
-9.44558e-41
-1.08316e-45
-3.66482e-39
-4.78217e-44
-1.48181e-37
-1.96389e-42
-6.60328e-36
-7.70489e-41
-6.01996e-34
-2.50081e-39
-2.30972e-32
-8.26114e-38
-7.72772e-32
-2.58871e-36
-6.96223e-34
-1.81157e-35
-1.59196e-33
-1.18968e-35
-3.81328e-35
1.19349e-36
-9.25269e-38
9.62844e-38
-1.47882e-39
9.80074e-40
-6.18931e-41
1.96093e-41
7.60195e-43
-1.86541e-42
-1.19095e-63
3.42596e-65
-2.91246e-61
7.49354e-64
-7.60141e-59
-1.73004e-62
-1.09978e-56
-2.86941e-60
-1.22942e-54
-3.62406e-58
-1.09496e-52
-3.6587e-56
-7.90977e-51
-3.00334e-54
-4.65632e-49
-2.01877e-52
-2.36695e-47
-1.18704e-50
-1.10837e-45
-6.36095e-49
-4.90287e-44
-3.23835e-47
-2.13975e-42
-1.5135e-45
-9.45008e-41
-6.85326e-44
-4.13388e-39
-2.74543e-42
-3.90827e-37
-1.08431e-40
-2.16031e-35
-4.4886e-39
-9.82e-35
-4.45792e-38
-5.30969e-36
-5.04925e-38
-3.28257e-37
1.3324e-40
-2.19054e-39
4.36054e-40
-4.18598e-41
1.55355e-41
-1.34541e-42
4.73552e-43
1.44166e-44
-4.58582e-44
3.75419e-65
-3.79067e-72
-1.4368e-63
-2.25177e-69
-1.61086e-62
-6.95666e-67
-2.70707e-60
-1.32747e-64
-3.51672e-58
-1.94225e-62
-3.56046e-56
-2.2448e-60
-2.90841e-54
-2.13223e-58
-1.86522e-52
-1.66618e-56
-1.15123e-50
-1.1914e-54
-6.48128e-49
-7.76541e-53
-3.30466e-47
-4.60153e-51
-1.5475e-45
-2.51055e-49
-7.72209e-44
-1.27692e-47
-3.96221e-42
-6.37669e-46
-4.3916e-40
-3.02946e-44
-3.58771e-38
-1.61935e-42
-2.12192e-37
-2.31598e-41
-1.76062e-39
-3.76877e-41
-1.45998e-39
-1.41889e-42
-4.84575e-41
1.86082e-42
-9.48967e-43
2.63096e-43
-2.57681e-44
7.99886e-45
2.45577e-46
-1.01643e-45
-3.79065e-72
-1.50884e-77
-2.25555e-69
-1.04611e-74
-6.97926e-67
-1.9475e-72
-1.33446e-64
-4.32469e-70
-1.95561e-62
-7.37748e-68
-2.26438e-60
-9.95544e-66
-2.1549e-58
-1.10588e-63
-1.68776e-56
-1.013e-61
-1.20829e-54
-8.501e-60
-7.88672e-53
-6.5203e-58
-4.68076e-51
-4.55995e-56
-2.55744e-49
-2.94387e-54
-1.30685e-47
-1.77343e-52
-8.01988e-46
-1.02067e-50
-1.00104e-43
-5.59093e-49
-1.21644e-41
-2.83455e-47
-1.06031e-40
-1.73822e-45
-4.18549e-41
-3.32776e-44
-1.02366e-41
-4.09125e-44
-8.12104e-43
3.84218e-45
-1.54202e-44
2.81309e-45
-4.35978e-46
9.43982e-47
3.81863e-48
-2.02415e-47
-1.50874e-77
-9.97967e-82
-1.04769e-74
-8.22723e-79
-1.95841e-72
-1.82782e-76
-4.34541e-70
-4.82154e-74
-7.42302e-68
-9.79887e-72
-1.00335e-65
-1.57737e-69
-1.11643e-63
-2.09302e-67
-1.02473e-61
-2.29446e-65
-8.61691e-60
-2.31005e-63
-6.62355e-58
-2.12894e-61
-4.62917e-56
-1.79241e-59
-2.99228e-54
-1.3965e-57
-1.80591e-52
-1.01762e-55
-1.08804e-50
-6.99183e-54
-7.24883e-49
-4.62797e-52
-8.8632e-47
-2.98319e-50
-1.85116e-44
-2.37553e-48
-2.57299e-43
-6.76344e-47
-2.8467e-44
-1.32776e-46
-6.7707e-45
3.80737e-48
-1.84563e-46
1.66466e-47
-6.53668e-48
9.36254e-49
5.73091e-50
-3.64202e-49
-9.97961e-82
-5.78047e-87
-8.23726e-79
-5.83647e-84
-1.83598e-76
-1.59301e-81
-4.83462e-74
-5.148e-79
-9.85479e-72
-1.28762e-76
-1.58818e-69
-2.54959e-74
-2.10792e-67
-4.16204e-72
-2.31351e-65
-5.62498e-70
-2.33352e-63
-7.00149e-68
-2.15315e-61
-7.98135e-66
-1.81411e-59
-8.32679e-64
-1.4147e-57
-8.05439e-62
-1.03174e-55
-7.3012e-60
-7.09447e-54
-6.25333e-58
-5.09167e-52
-5.08508e-56
-7.22629e-50
-4.04876e-54
-2.32971e-47
-3.68493e-52