/*--------------------------------*- C++ -*----------------------------------*\
| =========                 |                                                 |
| \\      /  F ield         | OpenFOAM: The Open Source CFD Toolbox           |
|  \\    /   O peration     | Version:  5.x                                   |
|   \\  /    A nd           | Web:      www.OpenFOAM.org                      |
|    \\/     M anipulation  |                                                 |
\*---------------------------------------------------------------------------*/
FoamFile
{
    version     2.0;
    format      ascii;
    class       volScalarField;
    location    "0.1";
    object      p;
}
// * * * * * * * * * * * * * * * * * * * * * * * * * * * * * * * * * * * * * //

dimensions      [1 -1 -2 0 0 0 0];

internalField   nonuniform List<scalar> 
2268
(
1963.62
1959.32
1943.81
1919.13
1886.11
1844.08
1792.18
1729.51
1654.97
1567.5
1465.13
1346.22
1210.19
1054.71
874.459
669.368
459.484
279.557
156.576
100.648
68.8277
58.4739
56.7689
1904.91
1900.59
1885.03
1860.36
1827.34
1785.27
1733.32
1670.57
1595.89
1508.22
1405.54
1286.09
1149.16
992.554
811.053
603.817
390.335
206.834
82.3987
38.8003
44.7928
54.5137
56.0911
1846.36
1841.99
1826.36
1801.69
1768.66
1726.54
1674.49
1611.57
1536.63
1448.57
1345.27
1224.76
1086.21
927.381
742.839
530.654
310.127
126.754
30.9309
10.5592
20.0708
46.5068
53.805
1787.98
1783.53
1767.82
1743.15
1710.1
1667.89
1615.69
1552.54
1477.24
1388.61
1284.37
1162.33
1021.58
859.616
669.595
446.685
214.489
53.9619
7.60749
5.01529
7.43462
25.7049
48.6229
1729.81
1725.25
1709.44
1684.78
1651.69
1609.38
1557.02
1493.57
1417.82
1328.49
1223.08
1099.09
955.591
789.491
590.8
350.261
113.402
13.3378
3.05855
3.30094
4.61238
9.64716
32.8606
1671.86
1667.18
1651.27
1626.61
1593.5
1551.08
1498.53
1434.77
1358.51
1268.4
1161.64
1035.47
888.914
717.678
505.257
241.646
38.3437
4.37591
2.18515
2.60837
3.31423
4.6263
14.8568
1614.13
1609.29
1593.29
1568.65
1535.51
1492.98
1440.23
1376.11
1299.32
1208.34
1100.05
971.57
822.2
645.259
413.738
133.959
10.8998
2.52138
1.89136
2.1713
2.52206
2.45582
4.9915
1556.67
1551.57
1535.51
1510.87
1477.7
1435.06
1382.1
1317.6
1240.23
1148.3
1038.29
907.37
755.514
571.713
317.89
52.6837
4.1204
1.61695
1.6655
1.8476
1.95925
1.46722
1.33017
0.521143
0.55808
0.582755
0.604355
0.620816
0.631888
0.638248
0.640841
0.640685
0.638655
0.635475
0.631669
0.627698
0.623837
0.620357
0.617405
0.615116
0.613556
0.612767
0.458076
0.49814
0.523819
0.546157
0.562837
0.573838
0.580007
0.582431
0.582133
0.579982
0.576709
0.572826
0.568799
0.564897
0.561386
0.558411
0.556109
0.554542
0.553751
0.390639
0.436911
0.464878
0.488729
0.505802
0.516669
0.522514
0.524548
0.52391
0.521482
0.517997
0.513954
0.509808
0.505821
0.502249
0.499232
0.4969
0.495319
0.494519
0.318589
0.373725
0.406103
0.432256
0.449803
0.46039
0.465685
0.467129
0.465977
0.463135
0.459331
0.455051
0.450727
0.446615
0.442952
0.439872
0.437498
0.435893
0.43508
0.241949
0.306996
0.347908
0.376968
0.394952
0.405035
0.409527
0.410153
0.408308
0.404918
0.400695
0.396105
0.39155
0.387273
0.383492
0.380332
0.377902
0.376265
0.375436
0.1578
0.240532
0.291446
0.323155
0.341366
0.350635
0.354021
0.353589
0.350871
0.346803
0.342066
0.337098
0.332263
0.327787
0.323863
0.320606
0.318108
0.316431
0.315583
0.0643279
0.175204
0.23706
0.271117
0.289163
0.29721
0.29914
0.297389
0.293622
0.288753
0.283415
0.278007
0.272851
0.268145
0.264058
0.260688
0.258113
0.256387
0.255518
-0.0458348
0.104403
0.183354
0.221067
0.238494
0.244759
0.244816
0.241485
0.236502
0.230723
0.224708
0.218811
0.213296
0.208337
0.204068
0.200572
0.19791
0.19613
0.195236
1467.41
1461.81
1445.74
1421.14
1387.93
1345.15
1291.89
1226.87
1148.63
1055.25
942.63
808.313
652.569
452.264
173.141
11.1183
1.79237
1.06498
1.30196
1.39051
1.30358
0.79513
-0.25513
1347.89
1341.78
1325.7
1301.28
1268.19
1225.43
1172.08
1106.7
1027.83
933.138
817.98
681.376
521.869
296.924
38.329
2.43397
0.691736
0.736737
0.912966
0.944975
0.86509
0.636163
0.446739
1230.71
1224.12
1208.13
1184.05
1151.28
1108.87
1055.84
990.697
911.995
817.048
701.071
565.444
402.276
163.074
5.8608
0.822061
0.300651
0.484743
0.596875
0.641454
0.64622
0.611526
0.823998
1116.37
1109.38
1093.65
1070.11
1037.98
996.331
944.214
880.098
802.668
708.907
594.575
463.263
296.36
64.5809
2.06785
0.236364
0.108565
0.250024
0.333712
0.398086
0.445545
0.472078
0.61531
1005.31
998.048
982.774
960.015
928.871
888.477
837.928
775.726
700.751
609.752
499.754
375.415
207.271
12.8974
0.289626
-0.200634
-0.0589855
0.0255586
0.103495
0.167357
0.214643
0.244535
0.294401
897.937
890.528
875.919
854.19
824.402
785.783
737.484
678.096
606.727
519.988
416.63
300.555
136.91
1.81478
-0.239601
-0.437511
-0.235153
-0.181745
-0.111486
-0.0584241
-0.0192678
0.0081562
0.0300294
794.506
787.087
773.35
752.901
724.841
688.502
643.106
587.371
520.626
439.434
344.287
236.31
82.6875
0.723196
-0.348947
-0.548513
-0.427943
-0.3731
-0.31735
-0.275079
-0.241237
-0.216645
-0.203048
695.212
687.922
675.247
656.317
630.339
596.749
554.852
503.522
442.281
367.744
282.03
182.79
44.0139
-0.0962902
-0.701959
-0.647316
-0.637249
-0.556731
-0.518361
-0.484807
-0.455978
-0.43583
-0.426976
600.139
593.112
581.66
564.463
540.881
510.445
472.554
426.251
371.214
304.218
228.705
138.663
19.1012
-0.720825
-1.09548
-0.77511
-0.843575
-0.744611
-0.71786
-0.690223
-0.666269
-0.64957
-0.641894
508.924
502.273
492.17
476.879
455.936
428.965
395.458
354.632
306.292
247.466
182.642
102.395
5.86765
-0.891912
-1.21441
-0.947414
-1.00841
-0.938738
-0.914485
-0.891677
-0.871946
-0.857234
-0.849031
421.235
415.08
406.441
393.203
375.109
351.871
323.079
288.111
246.862
196.672
142.731
72.3639
0.39455
-1.1123
-1.20213
-1.13095
-1.14209
-1.11983
-1.1063
-1.09008
-1.07407
-1.06046
-1.05112
338.121
332.579
325.497
314.43
299.363
280.078
256.255
227.41
193.477
152.166
108.725
47.5766
-0.986567
-1.28788
-1.25621
-1.28751
-1.2935
-1.30137
-1.29918
-1.28863
-1.27494
-1.26119
-1.24989
258.536
253.556
247.998
239.03
226.896
211.427
192.371
169.356
142.302
109.309
75.0365
25.0574
-1.35662
-1.33188
-1.31094
-1.42977
-1.46175
-1.49218
-1.49873
-1.49088
-1.47685
-1.461
-1.4465
176.677
172.149
168.105
161.188
151.943
140.288
126.102
109.21
89.5764
65.4741
39.9399
7.48984
-1.68592
-1.17127
-1.33
-1.57789
-1.66235
-1.70282
-1.71097
-1.7003
-1.68174
-1.66106
-1.64177
99.7406
95.9479
93.7764
89.5325
84.0414
77.3671
69.6129
60.9954
51.9375
41.0823
27.0487
10.9082
-6.02229
-1.2992
-1.45823
-1.81744
-1.92574
-1.9461
-1.94228
-1.91957
-1.89062
-1.8618
-1.83592
45.0334
42.9405
42.5065
41.1047
39.4264
37.5495
35.6236
33.8796
32.8372
31.7156
23.7991
8.87547
6.58136
-2.03136
-1.88805
-2.29033
-2.29999
-2.23633
-2.19772
-2.1491
-2.10272
-2.06245
-2.02833
6.54719
6.05249
5.51309
4.63342
3.51062
2.22523
0.832958
-0.646769
-2.1584
-3.92809
-4.30498
-4.73541
-4.64617
-3.77111
-3.43377
-3.19327
-2.79741
-2.57592
-2.47653
-2.38399
-2.31474
-2.26058
-2.21745
-3.73089
-3.73376
-3.74633
-3.7644
-3.79224
-3.83368
-3.89301
-3.98212
-4.12044
-4.27294
-4.50737
-4.87452
-5.25551
-5.79309
-5.92889
-3.96591
-3.31701
-2.93243
-2.7392
-2.60884
-2.51895
-2.4522
-2.40107
-3.81506
-3.8189
-3.82925
-3.84492
-3.8683
-3.90175
-3.9485
-4.01435
-4.10439
-4.21836
-4.44686
-4.84937
-5.35518
-5.89572
-5.58679
-4.20329
-3.60158
-3.18712
-2.95876
-2.80962
-2.70768
-2.63323
-2.57697
-3.87568
-3.87883
-3.88662
-3.89869
-3.91623
-3.94032
-3.97229
-4.01467
-4.06893
-4.14272
-4.30061
-4.63733
-5.08279
-5.30884
-4.91903
-4.12494
-3.66067
-3.32225
-3.11847
-2.97701
-2.87617
-2.80111
-2.74368
-3.93431
-3.93689
-3.94202
-3.95018
-3.96167
-3.9766
-3.9951
-4.01802
-4.04439
-4.07571
-4.14428
-4.30635
-4.52035
-4.57734
-4.33008
-3.89858
-3.60655
-3.38575
-3.23291
-3.11547
-3.02584
-2.95614
-2.90114
-3.99529
-3.99682
-3.99948
-4.00378
-4.00953
-4.01618
-4.02346
-4.03119
-4.03695
-4.03901
-4.05104
-4.0957
-4.14633
-4.09727
-3.92608
-3.72636
-3.57426
-3.43877
-3.3295
-3.23769
-3.16257
-3.10105
-3.05068
-4.05555
-4.05575
-4.05639
-4.05734
-4.05815
-4.0581
-4.05674
-4.05328
-4.04535
-4.03203
-4.01981
-4.01333
-3.99397
-3.92654
-3.81324
-3.70017
-3.60409
-3.51025
-3.42788
-3.35518
-3.29268
-3.23938
-3.19427
-4.11714
-4.11644
-4.11543
-4.11367
-4.11063
-4.10573
-4.09841
-4.08781
-4.07226
-4.05145
-4.02789
-4.00155
-3.96333
-3.90455
-3.8309
-3.75002
-3.673
-3.59913
-3.5327
-3.47294
-3.42009
-3.37382
-3.3337
-4.18107
-4.17997
-4.17767
-4.17387
-4.16815
-4.16002
-4.14892
-4.13409
-4.11452
-4.09018
-4.06186
-4.02838
-3.98601
-3.93378
-3.87592
-3.81596
-3.75551
-3.69659
-3.64181
-3.59159
-3.54628
-3.50588
-3.47021
-4.2483
-4.24686
-4.2436
-4.23839
-4.23094
-4.22083
-4.2076
-4.19066
-4.16945
-4.14395
-4.11438
-4.08024
-4.04037
-3.99498
-3.9463
-3.89662
-3.84727
-3.79913
-3.75344
-3.71083
-3.67173
-3.63633
-3.60459
-4.31933
-4.31753
-4.31361
-4.30756
-4.29912
-4.28797
-4.27374
-4.25605
-4.23461
-4.20944
-4.18057
-4.14791
-4.11146
-4.07187
-4.03041
-3.98839
-3.94667
-3.90605
-3.86723
-3.83068
-3.79672
-3.7656
-3.73734
-4.39385
-4.39177
-4.38754
-4.38109
-4.37222
-4.36069
-4.34625
-4.32867
-4.30784
-4.2838
-4.25665
-4.22654
-4.19378
-4.15901
-4.12313
-4.08699
-4.05121
-4.01636
-3.98289
-3.95118
-3.92149
-3.89403
-3.86886
-4.47172
-4.46953
-4.46525
-4.45874
-4.44983
-4.4384
-4.42428
-4.40736
-4.38764
-4.3652
-4.3402
-4.31289
-4.28367
-4.25309
-4.22178
-4.19036
-4.15933
-4.12908
-4.09996
-4.07225
-4.04615
-4.02186
-3.99941
-4.55298
-4.55084
-4.54666
-4.54029
-4.53164
-4.5206
-4.50713
-4.49121
-4.47286
-4.45223
-4.4295
-4.40496
-4.37898
-4.35202
-4.32458
-4.29709
-4.26998
-4.24355
-4.21807
-4.19374
-4.17073
-4.14921
-4.12921
-4.63764
-4.63565
-4.63164
-4.62554
-4.61729
-4.60684
-4.59422
-4.57944
-4.56259
-4.54381
-4.52332
-4.50138
-4.47832
-4.45454
-4.43041
-4.40629
-4.38251
-4.35933
-4.33696
-4.31555
-4.29525
-4.27619
-4.25841
-4.72552
-4.72369
-4.7199
-4.71412
-4.70636
-4.69661
-4.68493
-4.67137
-4.65603
-4.63907
-4.62069
-4.60114
-4.58071
-4.55972
-4.53849
-4.51731
-4.49643
-4.47608
-4.45643
-4.43761
-4.41972
-4.40289
-4.38712
-4.81622
-4.81453
-4.81098
-4.80559
-4.79838
-4.78939
-4.77869
-4.76635
-4.75249
-4.73726
-4.72086
-4.7035
-4.68544
-4.66695
-4.6483
-4.62971
-4.61141
-4.59358
-4.57635
-4.55985
-4.54415
-4.52935
-4.51545
-4.90929
-4.90773
-4.90445
-4.89947
-4.89286
-4.88467
-4.87495
-4.86382
-4.85138
-4.83779
-4.82323
-4.80789
-4.79199
-4.77576
-4.75943
-4.74318
-4.72721
-4.71165
-4.69663
-4.68225
-4.66856
-4.65563
-4.64348
-5.00433
-5.0029
-4.99989
-4.99536
-4.98938
-4.98198
-4.97326
-4.9633
-4.95224
-4.9402
-4.92736
-4.91389
-4.89998
-4.88582
-4.87161
-4.8575
-4.84366
-4.83019
-4.81722
-4.80479
-4.79297
-4.78179
-4.77128
-5.10105
-5.09974
-5.09702
-5.09296
-5.0876
-5.08101
-5.07326
-5.06445
-5.0547
-5.04414
-5.03292
-5.0212
-5.00913
-4.9969
-4.98465
-4.97252
-4.96065
-4.94914
-4.93806
-4.92747
-4.9174
-4.90788
-4.89892
-5.19918
-5.198
-5.1956
-5.192
-5.18728
-5.18148
-5.17469
-5.167
-5.15851
-5.14936
-5.13967
-5.12958
-5.11925
-5.10881
-5.0984
-5.08814
-5.07812
-5.06843
-5.05914
-5.05029
-5.04187
-5.03393
-5.02647
-5.2985
-5.29746
-5.29537
-5.29225
-5.28816
-5.28315
-5.2773
-5.27069
-5.26342
-5.25561
-5.24739
-5.23887
-5.23018
-5.22144
-5.21277
-5.20426
-5.19599
-5.18804
-5.18044
-5.17322
-5.16642
-5.16
-5.15398
-5.39895
-5.39807
-5.39627
-5.39362
-5.39014
-5.38589
-5.38094
-5.37537
-5.36928
-5.36277
-5.35595
-5.34893
-5.3418
-5.33468
-5.32766
-5.32083
-5.31424
-5.30795
-5.30198
-5.29636
-5.29108
-5.28614
-5.28151
-5.50065
-5.49992
-5.49842
-5.49621
-5.49331
-5.48978
-5.48569
-5.4811
-5.47612
-5.47083
-5.46533
-5.45971
-5.45407
-5.44849
-5.44304
-5.4378
-5.43282
-5.42813
-5.42375
-5.41968
-5.41591
-5.4124
-5.40913
-5.60314
-5.60259
-5.60139
-5.59962
-5.59729
-5.59447
-5.5912
-5.58758
-5.58367
-5.57956
-5.57533
-5.57107
-5.56685
-5.56275
-5.55883
-5.55514
-5.55172
-5.5486
-5.54577
-5.54322
-5.54092
-5.53883
-5.53689
-5.7055
-5.70519
-5.70432
-5.703
-5.70127
-5.69918
-5.69679
-5.69416
-5.69136
-5.68846
-5.68554
-5.68266
-5.67988
-5.67727
-5.67488
-5.67275
-5.67089
-5.66932
-5.66803
-5.66702
-5.66622
-5.66553
-5.66489
-2.17023
-1.46381
-1.26721
-0.985009
-0.421693
-0.835052
-0.870706
-0.674461
0.550405
0.26321
0.107088
0.0664516
0.537294
0.432634
0.335753
0.254492
0.261857
0.222134
0.175993
0.126588
0.0148606
-0.00492942
-0.0318211
-0.0634721
-0.212555
-0.225026
-0.242542
-0.263586
-0.432938
-0.440441
-0.451253
-0.464809
-0.644343
-0.648354
-0.654807
-0.663416
-0.848694
-0.850273
-0.853677
-0.858723
-1.04833
-1.04787
-1.04878
-1.05097
-1.24453
-1.24212
-1.24079
-1.24053
-1.43822
-1.43379
-1.43031
-1.42777
-1.63003
-1.62338
-1.61767
-1.61289
-1.82008
-1.81095
-1.80287
-1.79582
-2.00785
-1.99604
-1.98551
-1.97619
-2.19222
-2.17775
-2.16485
-2.1534
-2.37169
-2.35491
-2.33998
-2.3267
-2.54475
-2.52635
-2.50996
-2.49533
-2.7104
-2.6913
-2.67419
-2.65883
-2.86854
-2.84964
-2.83256
-2.81709
-3.01997
-3.00195
-2.9855
-2.97043
-3.16603
-3.14926
-3.13378
-3.11944
-3.30803
-3.29264
-3.27828
-3.26485
-3.44699
-3.43296
-3.41975
-3.40731
-3.58364
-3.57089
-3.55881
-3.54736
-3.71848
-3.70693
-3.69592
-3.68545
-3.85189
-3.84145
-3.83147
-3.82192
-3.98417
-3.97476
-3.96573
-3.95708
-4.11555
-4.1071
-4.09896
-4.09115
-4.24621
-4.23864
-4.23134
-4.22432
-4.37627
-4.36953
-4.36302
-4.35676
-4.50586
-4.4999
-4.49414
-4.48859
-4.63508
-4.62985
-4.6248
-4.61994
-4.764
-4.75948
-4.75512
-4.7509
-4.89273
-4.88888
-4.88516
-4.88157
-5.02131
-5.01811
-5.01502
-5.01203
-5.14983
-5.14725
-5.14476
-5.14235
-5.27833
-5.27635
-5.27444
-5.27261
-5.40688
-5.40549
-5.40415
-5.40286
-5.53556
-5.53474
-5.53395
-5.53319
-5.66446
-5.66419
-5.66393
-5.66368
-0.399366
-0.0198533
0.108023
0.148867
0.162283
0.164206
0.160659
0.154451
0.147312
0.139954
0.132782
0.12605
0.119931
0.114541
0.109963
0.106252
0.103444
0.101572
0.100638
-0.269853
-0.00965302
0.0653238
0.0749754
0.0686301
0.0588213
0.0476925
0.0364454
0.0257912
0.0159636
0.00703386
-0.000955444
-0.00797445
-0.0140074
-0.0190419
-0.023072
-0.0260932
-0.0280973
-0.0290924
0.043256
0.0487932
0.0310897
0.00113603
-0.0261832
-0.0481605
-0.0667517
-0.08294
-0.0970128
-0.109251
-0.119896
-0.129111
-0.137009
-0.14367
-0.149151
-0.153492
-0.15672
-0.15885
-0.159904
0.134193
0.0312301
-0.0363301
-0.0886349
-0.12915
-0.160193
-0.184851
-0.20512
-0.222053
-0.236337
-0.248453
-0.258729
-0.267391
-0.274602
-0.280474
-0.285086
-0.288493
-0.290733
-0.291838
0.0386163
-0.0659906
-0.141481
-0.199187
-0.244576
-0.280086
-0.308278
-0.331179
-0.350071
-0.365812
-0.379004
-0.390069
-0.399308
-0.406935
-0.413102
-0.417919
-0.421461
-0.423782
-0.424926
-0.1232
-0.205675
-0.272842
-0.32755
-0.372294
-0.40844
-0.437711
-0.461684
-0.481507
-0.498008
-0.511795
-0.523314
-0.53289
-0.540762
-0.547103
-0.552037
-0.555655
-0.558023
-0.559188
-0.30417
-0.365791
-0.421285
-0.469372
-0.510316
-0.544553
-0.573003
-0.596692
-0.61648
-0.633051
-0.646937
-0.658551
-0.668205
-0.676132
-0.682507
-0.687461
-0.691088
-0.69346
-0.694628
-0.491922
-0.536853
-0.580662
-0.620792
-0.656397
-0.687218
-0.713543
-0.735906
-0.754856
-0.770887
-0.784414
-0.795779
-0.805252
-0.813041
-0.819309
-0.824179
-0.827747
-0.83008
-0.831228
-0.681278
-0.713212
-0.746532
-0.778714
-0.808462
-0.835105
-0.858505
-0.87882
-0.896327
-0.911326
-0.924104
-0.934915
-0.94397
-0.95144
-0.957465
-0.962154
-0.965593
-0.967844
-0.968951
-0.869825
-0.891607
-0.91598
-0.94082
-0.964763
-0.986959
-1.00702
-1.02484
-1.04048
-1.05409
-1.06581
-1.07581
-1.08425
-1.09124
-1.0969
-1.10132
-1.10457
-1.10669
-1.10774
-1.05676
-1.0704
-1.0872
-1.10545
-1.12391
-1.14169
-1.15826
-1.17335
-1.18688
-1.19884
-1.20928
-1.21828
-1.22594
-1.23233
-1.23752
-1.24159
-1.24459
-1.24656
-1.24753
-1.24186
-1.24873
-1.25903
-1.27144
-1.28484
-1.29839
-1.31149
-1.32378
-1.33506
-1.34523
-1.35424
-1.36211
-1.36887
-1.37455
-1.3792
-1.38286
-1.38557
-1.38735
-1.38822
-1.42511
-1.42609
-1.43073
-1.43793
-1.44672
-1.4563
-1.46606
-1.47559
-1.4846
-1.49291
-1.50041
-1.50707
-1.51285
-1.51776
-1.52181
-1.52501
-1.52739
-1.52896
-1.52973
-1.60644
-1.60214
-1.60173
-1.60429
-1.6089
-1.61482
-1.62144
-1.6283
-1.63508
-1.64153
-1.64752
-1.65292
-1.65769
-1.66179
-1.6652
-1.66792
-1.66995
-1.67129
-1.67196
-1.78568
-1.77653
-1.77161
-1.77
-1.77086
-1.77344
-1.77715
-1.7815
-1.78615
-1.7908
-1.79528
-1.79944
-1.80319
-1.80647
-1.80923
-1.81146
-1.81313
-1.81423
-1.81478
-1.9625
-1.94892
-1.93995
-1.93465
-1.93216
-1.93174
-1.93279
-1.93483
-1.93748
-1.94043
-1.94347
-1.94643
-1.94918
-1.95165
-1.95376
-1.95549
-1.9568
-1.95767
-1.95811
-2.13643
-2.11889
-2.1064
-2.09786
-2.09243
-2.08935
-2.08803
-2.08798
-2.0888
-2.09017
-2.09186
-2.09367
-2.09548
-2.09716
-2.09866
-2.0999
-2.10085
-2.1015
-2.10182
-2.30695
-2.28609
-2.27059
-2.2593
-2.25136
-2.24598
-2.24259
-2.24069
-2.23987
-2.23981
-2.24025
-2.24101
-2.24193
-2.24288
-2.24378
-2.24456
-2.24518
-2.2456
-2.24582
-2.47352
-2.45013
-2.43226
-2.41875
-2.40871
-2.40141
-2.39624
-2.39276
-2.39049
-2.38915
-2.38849
-2.38829
-2.38839
-2.38867
-2.38902
-2.38937
-2.38968
-2.38989
-2.39001
-2.63582
-2.61075
-2.59118
-2.576
-2.56434
-2.55548
-2.54885
-2.54399
-2.5405
-2.53805
-2.53642
-2.53537
-2.53474
-2.53442
-2.53427
-2.53423
-2.53425
-2.53428
-2.53429
-2.79374
-2.76787
-2.74727
-2.73096
-2.71811
-2.70806
-2.70027
-2.69431
-2.68979
-2.68641
-2.68393
-2.68215
-2.68088
-2.68003
-2.67944
-2.67905
-2.67881
-2.67867
-2.67859
-2.94747
-2.92157
-2.90055
-2.8836
-2.86997
-2.85908
-2.85042
-2.8436
-2.83827
-2.83413
-2.83095
-2.82854
-2.82674
-2.82541
-2.82444
-2.82375
-2.82329
-2.82301
-2.82283
-3.09741
-3.07208
-3.05115
-3.03399
-3.01995
-3.00853
-2.99928
-2.99183
-2.98587
-2.98113
-2.9774
-2.97449
-2.97223
-2.97051
-2.96922
-2.96827
-2.96762
-2.96721
-2.96696
-3.24405
-3.21971
-3.19927
-3.18225
-3.16812
-3.15644
-3.14683
-3.13896
-3.13256
-3.12739
-3.12323
-3.11992
-3.11731
-3.11527
-3.11372
-3.11256
-3.11174
-3.11123
-3.11093
-3.3879
-3.36481
-3.34514
-3.32854
-3.31457
-3.30287
-3.29311
-3.28502
-3.27835
-3.27288
-3.26842
-3.26482
-3.26194
-3.25966
-3.2579
-3.25657
-3.25563
-3.25503
-3.25469
-3.52939
-3.50771
-3.48901
-3.47303
-3.45943
-3.4479
-3.43819
-3.43004
-3.42324
-3.41761
-3.41296
-3.40917
-3.4061
-3.40364
-3.40173
-3.40028
-3.39923
-3.39857
-3.3982
-3.66891
-3.64873
-3.63113
-3.61592
-3.60284
-3.59165
-3.58213
-3.57406
-3.56727
-3.56158
-3.55685
-3.55295
-3.54977
-3.54721
-3.54519
-3.54365
-3.54254
-3.54183
-3.54145
-3.8068
-3.78813
-3.77171
-3.75738
-3.74495
-3.73422
-3.72501
-3.71715
-3.71047
-3.70483
-3.70011
-3.69618
-3.69295
-3.69034
-3.68827
-3.68669
-3.68554
-3.68479
-3.68441
-3.94331
-3.92616
-3.91096
-3.89758
-3.88589
-3.87572
-3.86693
-3.85936
-3.85289
-3.84739
-3.84275
-3.83887
-3.83566
-3.83305
-3.83097
-3.82937
-3.82821
-3.82745
-3.82707
-4.07868
-4.06303
-4.04906
-4.03669
-4.0258
-4.01626
-4.00796
-4.00077
-3.99459
-3.9893
-3.98482
-3.98104
-3.97791
-3.97534
-3.97329
-3.97171
-3.97055
-3.9698
-3.96943
-4.21309
-4.19891
-4.18618
-4.17484
-4.16479
-4.15595
-4.1482
-4.14146
-4.13563
-4.13061
-4.12634
-4.12272
-4.11971
-4.11723
-4.11525
-4.11371
-4.11258
-4.11185
-4.11149
-4.34671
-4.33396
-4.32246
-4.31216
-4.30299
-4.29488
-4.28774
-4.28149
-4.27606
-4.27137
-4.26735
-4.26395
-4.26109
-4.25874
-4.25685
-4.25537
-4.2543
-4.25359
-4.25326
-4.47968
-4.46832
-4.45803
-4.44878
-4.4405
-4.43315
-4.42665
-4.42093
-4.41595
-4.41163
-4.40791
-4.40475
-4.40209
-4.39989
-4.39811
-4.39673
-4.39572
-4.39506
-4.39474
-4.61211
-4.6021
-4.593
-4.58479
-4.57742
-4.57085
-4.56501
-4.55987
-4.55536
-4.55144
-4.54805
-4.54516
-4.54272
-4.5407
-4.53907
-4.5378
-4.53686
-4.53625
-4.53597
-4.74412
-4.73542
-4.72749
-4.72031
-4.71385
-4.70806
-4.70291
-4.69835
-4.69435
-4.69085
-4.68782
-4.68523
-4.68304
-4.68122
-4.67974
-4.67859
-4.67775
-4.67719
-4.67694
-4.87579
-4.86836
-4.86157
-4.85542
-4.84985
-4.84486
-4.84041
-4.83646
-4.83297
-4.82992
-4.82727
-4.825
-4.82307
-4.82146
-4.82016
-4.81915
-4.8184
-4.81791
-4.8177
-5.00722
-5.00102
-4.99535
-4.9902
-4.98553
-4.98134
-4.97758
-4.97424
-4.97129
-4.9687
-4.96644
-4.9645
-4.96285
-4.96148
-4.96036
-4.95949
-4.95885
-4.95843
-4.95825
-5.13848
-5.13348
-5.1289
-5.12473
-5.12095
-5.11755
-5.1145
-5.11177
-5.10936
-5.10724
-5.10538
-5.10378
-5.10243
-5.10129
-5.10037
-5.09966
-5.09913
-5.09878
-5.09864
-5.26964
-5.2658
-5.26229
-5.25909
-5.25619
-5.25357
-5.25121
-5.24911
-5.24724
-5.24558
-5.24414
-5.2429
-5.24184
-5.24095
-5.24023
-5.23967
-5.23926
-5.23898
-5.23888
-5.40077
-5.39808
-5.39561
-5.39335
-5.39131
-5.38946
-5.38779
-5.3863
-5.38497
-5.38379
-5.38276
-5.38188
-5.38112
-5.38049
-5.37997
-5.37957
-5.37927
-5.37907
-5.37901
-5.53196
-5.53037
-5.52891
-5.52758
-5.52637
-5.52528
-5.52429
-5.5234
-5.52261
-5.52191
-5.5213
-5.52076
-5.52031
-5.51993
-5.51963
-5.51939
-5.51921
-5.51909
-5.51906
-5.66328
-5.66276
-5.66229
-5.66186
-5.66146
-5.6611
-5.66078
-5.66049
-5.66023
-5.66
-5.6598
-5.65962
-5.65947
-5.65935
-5.65924
-5.65916
-5.65911
-5.65906
-5.65906
)
;

boundaryField
{
    leftWall
    {
        type            calculated;
        value           nonuniform List<scalar> 
50
(
1963.62
1904.91
1846.36
1787.98
1729.81
1671.86
1614.13
1556.67
1467.41
1347.89
1230.71
1116.37
1005.31
897.937
794.506
695.212
600.139
508.924
421.235
338.121
258.536
176.677
99.7406
45.0334
6.54719
-3.73089
-3.81506
-3.87568
-3.93431
-3.99529
-4.05555
-4.11714
-4.18107
-4.2483
-4.31933
-4.39385
-4.47172
-4.55298
-4.63764
-4.72552
-4.81622
-4.90929
-5.00433
-5.10105
-5.19918
-5.2985
-5.39895
-5.50065
-5.60314
-5.7055
)
;
    }
    rightWall
    {
        type            calculated;
        value           nonuniform List<scalar> 
50
(
0.612767
0.553751
0.494519
0.43508
0.375436
0.315583
0.255518
0.195236
0.100638
-0.0290924
-0.159904
-0.291838
-0.424926
-0.559188
-0.694628
-0.831228
-0.968951
-1.10774
-1.24753
-1.38822
-1.52973
-1.67196
-1.81478
-1.95811
-2.10182
-2.24582
-2.39001
-2.53429
-2.67859
-2.82283
-2.96696
-3.11093
-3.25469
-3.3982
-3.54145
-3.68441
-3.82707
-3.96943
-4.11149
-4.25326
-4.39474
-4.53597
-4.67694
-4.8177
-4.95825
-5.09864
-5.23888
-5.37901
-5.51906
-5.65906
)
;
    }
    lowerWall
    {
        type            calculated;
        value           nonuniform List<scalar> 
62
(
1993.05
1988.75
1973.24
1948.56
1915.54
1873.51
1821.61
1758.94
1684.4
1596.93
1494.56
1375.65
1239.62
1084.14
903.888
698.76
488.829
308.971
186.006
126.837
75.2207
58.5033
56.7983
56.7689
56.0911
53.805
48.6229
32.8606
14.8568
4.9915
1.33017
-2.09089
-1.40064
-1.20461
-0.922406
0.521143
0.458076
0.390639
0.318589
0.241949
0.1578
0.0643279
-0.0458348
0.550573
0.58751
0.612185
0.633784
0.650245
0.661317
0.667678
0.67027
0.670115
0.668084
0.664904
0.661098
0.657127
0.653266
0.649786
0.646834
0.644546
0.642985
0.642196
)
;
    }
    atmosphere
    {
        type            calculated;
        value           nonuniform List<scalar> 
46
(
-5.75603
-5.756
-5.75527
-5.7542
-5.7528
-5.75113
-5.74923
-5.74715
-5.74497
-5.74274
-5.74052
-5.73838
-5.73638
-5.73456
-5.73297
-5.73164
-5.73058
-5.7298
-5.7293
-5.72906
-5.72904
-5.72904
-5.72904
-5.72904
-5.72904
-5.72904
-5.72904
-5.72904
-5.72904
-5.72904
-5.72904
-5.72904
-5.72904
-5.72904
-5.72904
-5.72904
-5.72904
-5.72904
-5.72904
-5.72904
-5.72904
-5.72904
-5.72904
-5.72904
-5.72904
-5.72904
)
;
    }
    defaultFaces
    {
        type            empty;
    }
}


// ************************************************************************* //
