/*--------------------------------*- C++ -*----------------------------------*\
| =========                 |                                                 |
| \\      /  F ield         | OpenFOAM: The Open Source CFD Toolbox           |
|  \\    /   O peration     | Version:  5.x                                   |
|   \\  /    A nd           | Web:      www.OpenFOAM.org                      |
|    \\/     M anipulation  |                                                 |
\*---------------------------------------------------------------------------*/
FoamFile
{
    version     2.0;
    format      ascii;
    class       volScalarField;
    location    "0.1";
    object      p_rgh;
}
// * * * * * * * * * * * * * * * * * * * * * * * * * * * * * * * * * * * * * //

dimensions      [1 -1 -2 0 0 0 0];

internalField   nonuniform List<scalar> 
2268
(
1993.05
1988.75
1973.24
1948.56
1915.54
1873.51
1821.61
1758.94
1684.4
1596.93
1494.56
1375.65
1239.62
1084.14
903.888
698.76
488.829
308.971
186.006
126.837
75.2207
58.5033
56.7983
1993.2
1988.88
1973.32
1948.64
1915.63
1873.56
1821.61
1758.86
1684.18
1596.51
1493.83
1374.38
1237.45
1080.84
899.34
692.104
478.613
292.375
156.673
90.9988
59.0889
54.7862
56.1794
1993.51
1989.14
1973.51
1948.84
1915.81
1873.68
1821.63
1758.71
1683.78
1595.71
1492.41
1371.91
1233.35
1074.53
889.986
677.801
457.272
253.41
81.9628
21.1303
34.811
52.4602
53.9521
1993.99
1989.54
1973.82
1949.15
1916.1
1873.89
1821.7
1758.55
1683.24
1594.61
1490.38
1368.34
1227.59
1065.62
875.601
652.691
413.748
172.29
26.3377
6.5837
12.8567
34.3583
49.8482
1994.67
1990.12
1974.3
1949.64
1916.56
1874.24
1821.88
1758.44
1682.68
1593.36
1487.94
1363.96
1220.46
1054.36
855.664
615.123
312.399
61.3245
5.14269
4.1744
5.06978
16.2178
33.3199
1995.58
1990.9
1974.99
1950.34
1917.22
1874.8
1822.25
1758.49
1682.23
1592.12
1485.36
1359.19
1212.64
1041.4
828.98
549.566
161.321
9.53508
3.23084
3.26644
3.72563
5.36901
19.2488
1996.71
1991.87
1975.88
1951.23
1918.09
1875.56
1822.81
1758.69
1681.9
1590.92
1482.63
1354.15
1204.78
1027.84
796.319
423.906
52.8102
4.16046
2.58124
2.68458
2.93033
2.91652
13.3523
1998.11
1993.01
1976.95
1952.32
1919.14
1876.5
1823.54
1759.04
1681.67
1589.74
1479.73
1348.81
1196.95
1013.15
759.318
273.006
12.9239
2.60813
2.224
2.31195
2.40726
1.94727
4.09266
0.550573
0.58751
0.612185
0.633784
0.650245
0.661317
0.667678
0.67027
0.670115
0.668084
0.664904
0.661098
0.657127
0.653266
0.649786
0.646834
0.644546
0.642985
0.642196
0.546364
0.586428
0.612107
0.634445
0.651125
0.662126
0.668295
0.670719
0.670422
0.66827
0.664997
0.661115
0.657087
0.653185
0.649674
0.6467
0.644397
0.64283
0.642039
0.537786
0.584058
0.612025
0.635876
0.652949
0.663815
0.669661
0.671694
0.671057
0.668629
0.665144
0.661101
0.656954
0.652968
0.649396
0.646379
0.644047
0.642466
0.641665
0.524594
0.579731
0.612109
0.638262
0.655809
0.666395
0.67169
0.673134
0.671982
0.669141
0.665337
0.661057
0.656733
0.652621
0.648957
0.645878
0.643503
0.641899
0.641086
0.506813
0.57186
0.612772
0.641832
0.659816
0.669899
0.674391
0.675018
0.673172
0.669782
0.665559
0.660969
0.656414
0.652137
0.648356
0.645196
0.642766
0.641129
0.640301
0.481523
0.564255
0.615169
0.646878
0.665089
0.674358
0.677744
0.677312
0.674594
0.670526
0.665789
0.660821
0.655986
0.65151
0.647586
0.644329
0.641831
0.640154
0.639306
0.44691
0.557786
0.619642
0.653699
0.671744
0.679792
0.681721
0.67997
0.676204
0.671335
0.665997
0.660589
0.655432
0.650727
0.64664
0.64327
0.640695
0.638969
0.638099
0.395607
0.545844
0.624794
0.662507
0.679934
0.6862
0.686257
0.682925
0.677942
0.672163
0.666149
0.660251
0.654737
0.649777
0.645508
0.642012
0.63935
0.63757
0.636676
2000.88
1995.27
1979.21
1954.61
1921.4
1878.62
1825.36
1760.33
1682.1
1588.72
1476.1
1341.78
1186.04
985.731
652.465
117.312
3.68441
1.76327
1.85952
1.92833
1.83825
1.33377
0.303079
2006.55
2000.45
1984.36
1959.94
1926.85
1884.09
1830.74
1765.37
1686.49
1591.8
1476.64
1340.04
1180.53
955.585
403.053
13.8907
1.68193
1.43295
1.57638
1.60458
1.5239
1.29539
1.10983
2014.57
2007.97
1991.98
1967.9
1935.14
1892.72
1839.69
1774.55
1695.85
1600.9
1484.93
1349.3
1186.13
914.976
184.389
2.63333
1.16327
1.27616
1.38204
1.42561
1.43011
1.39546
1.60853
2025.42
2018.43
2002.7
1979.16
1947.03
1905.38
1853.26
1789.15
1711.72
1617.96
1503.63
1372.31
1205.41
765.043
66.5948
1.44887
1.0338
1.16092
1.24371
1.30735
1.35461
1.38114
1.52445
2039.56
2032.29
2017.02
1994.26
1963.12
1922.72
1872.17
1809.97
1735
1644
1534
1409.66
1241.52
581.573
12.3855
0.901674
0.977768
1.06027
1.13807
1.20169
1.24889
1.27878
1.32866
2057.38
2049.97
2035.36
2013.63
1983.84
1945.22
1896.92
1837.54
1766.17
1679.43
1576.07
1459.99
1296.35
396.147
1.62692
0.738246
0.924677
0.977774
1.048
1.10103
1.14017
1.1676
1.18947
2079.14
2071.72
2057.98
2037.54
2009.48
1973.14
1927.74
1872
1805.26
1724.07
1628.92
1520.94
1282.95
259.801
1.21686
0.739598
0.856769
0.911548
0.967292
1.00956
1.0434
1.06799
1.08159
2105.04
2097.75
2085.08
2066.15
2040.17
2006.58
1964.68
1913.35
1852.11
1777.57
1691.86
1592.62
1238.02
157.712
0.772853
0.762969
0.772776
0.853117
0.891471
0.925023
0.953851
0.973999
0.982853
2135.16
2128.13
2116.68
2099.49
2075.9
2045.47
2007.58
1961.27
1906.24
1839.24
1763.73
1673.69
1165.48
81.5857
0.445256
0.759965
0.691477
0.79042
0.817166
0.844802
0.868755
0.885454
0.893129
2169.14
2162.49
2152.39
2137.1
2116.15
2089.18
2055.68
2014.85
1966.51
1907.68
1842.86
1762.61
1051.14
31.4962
0.446151
0.71281
0.651812
0.721482
0.745734
0.768541
0.788272
0.802984
0.811187
2206.65
2200.49
2191.85
2178.61
2160.52
2137.28
2108.49
2073.52
2032.27
1982.08
1928.14
1857.77
871.014
5.80893
0.583397
0.654464
0.643319
0.665579
0.679109
0.695334
0.711345
0.724953
0.734288
2248.73
2243.19
2236.1
2225.04
2209.97
2190.68
2166.86
2138.01
2104.08
2062.77
2019.32
1958.16
639.685
0.649733
0.654551
0.623155
0.617111
0.609238
0.611426
0.621973
0.635669
0.649416
0.660712
2294.34
2289.35
2283.79
2274.82
2262.68
2247.21
2228.15
2205.13
2178.06
2145.06
2110.76
2060.64
471.336
0.705741
0.724967
0.606117
0.57405
0.543618
0.537076
0.544918
0.55895
0.574804
0.5893
2337.67
2333.03
2328.97
2322.03
2312.76
2301.07
2286.84
2269.88
2250.16
2225.91
2200.14
2166.41
439.16
0.993357
0.831073
0.58311
0.498641
0.458178
0.450029
0.460699
0.479261
0.499935
0.519222
2385.93
2380.7
2378.32
2373.9
2368.16
2361.13
2352.91
2343.68
2333.84
2316.71
2273.46
2050.85
525.333
10.2968
0.831835
0.468836
0.360457
0.340088
0.343914
0.366616
0.39557
0.424386
0.450268
2139.78
2110.84
2090.21
2053.05
2000.42
1931.15
1844.08
1736.89
1612.77
1381.79
1087.33
531.364
448.78
64.3
0.664713
0.127087
0.111518
0.175056
0.213668
0.262282
0.308664
0.348935
0.383051
423.18
402.957
381.04
345
299.294
247.43
191.486
133.046
79.8885
5.68272
-1.76837
-2.19842
-1.98506
73.6556
13.5282
-0.643454
-0.260655
-0.0393433
0.0600483
0.152586
0.221835
0.276
0.319127
-1.06912
-1.07199
-1.08456
-1.10262
-1.13047
-1.17191
-1.23124
-1.32034
-1.45866
-1.61117
-1.8456
-2.21271
-2.59331
17.0832
14.1435
-1.211
-0.652873
-0.270632
-0.0774274
0.0529333
0.142826
0.209576
0.260701
-1.02809
-1.03193
-1.04228
-1.05795
-1.08134
-1.11478
-1.16153
-1.22738
-1.31742
-1.43139
-1.65971
-2.05912
-2.52985
-3.05347
7.93083
-1.41598
-0.814491
-0.400144
-0.171794
-0.0226476
0.0792893
0.153737
0.209996
-0.963513
-0.966667
-0.974461
-0.986531
-1.00407
-1.02816
-1.06013
-1.10251
-1.15676
-1.23056
-1.38841
-1.72335
-2.05569
-0.00603867
1.00423
-1.21274
-0.74851
-0.410092
-0.206312
-0.064845
0.0359913
0.111051
0.168484
-0.896949
-0.899536
-0.904664
-0.912821
-0.924308
-0.939239
-0.957742
-0.980661
-1.00703
-1.03836
-1.10692
-1.24214
-1.41806
-1.53975
-1.29259
-0.861219
-0.569191
-0.348393
-0.19555
-0.078117
0.0115144
0.0812209
0.136218
-0.832734
-0.834264
-0.83693
-0.841231
-0.846978
-0.853632
-0.860906
-0.868637
-0.874397
-0.876458
-0.888487
-0.933145
-0.983778
-0.93471
-0.763517
-0.563808
-0.411703
-0.276221
-0.166943
-0.0751333
-1.48745e-05
0.0614989
0.111869
-0.767803
-0.768005
-0.768645
-0.769597
-0.770404
-0.770356
-0.768994
-0.765537
-0.757601
-0.74428
-0.732063
-0.725586
-0.70622
-0.638794
-0.525498
-0.412425
-0.316346
-0.222501
-0.140131
-0.0674292
-0.004937
0.0483715
0.0934748
-0.704194
-0.703501
-0.702491
-0.700727
-0.69769
-0.692788
-0.685473
-0.674866
-0.659323
-0.638508
-0.614952
-0.588605
-0.550393
-0.49161
-0.417963
-0.337081
-0.26006
-0.186191
-0.119762
-0.0600007
-0.00714633
0.0391255
0.0792434
-0.642937
-0.641839
-0.639538
-0.635731
-0.630014
-0.621884
-0.610785
-0.595957
-0.576389
-0.552049
-0.523726
-0.490242
-0.447876
-0.395644
-0.337782
-0.27782
-0.217376
-0.158457
-0.103676
-0.0534581
-0.00814506
0.032252
0.0679264
-0.584967
-0.583533
-0.580274
-0.575055
-0.567606
-0.557504
-0.544266
-0.527325
-0.506121
-0.480617
-0.451052
-0.416911
-0.377043
-0.331649
-0.282971
-0.233285
-0.183944
-0.1358
-0.0901125
-0.0475023
-0.00839725
0.0270039
0.0587444
-0.530806
-0.529002
-0.525083
-0.519031
-0.510596
-0.499449
-0.485219
-0.467521
-0.44609
-0.420915
-0.392049
-0.359383
-0.322934
-0.283342
-0.241883
-0.199867
-0.158142
-0.117526
-0.0787073
-0.0421503
-0.00819414
0.0229261
0.0511823
-0.480128
-0.478053
-0.473817
-0.467374
-0.458501
-0.446974
-0.432534
-0.414951
-0.39412
-0.37008
-0.342931
-0.312818
-0.280058
-0.245293
-0.209411
-0.173272
-0.137494
-0.102637
-0.0691719
-0.0374613
-0.00777182
0.0196845
0.0448613
-0.432804
-0.430616
-0.426334
-0.419824
-0.41092
-0.399487
-0.385367
-0.368451
-0.34873
-0.326288
-0.301284
-0.273974
-0.244753
-0.214172
-0.182866
-0.151444
-0.120415
-0.0901639
-0.0610459
-0.0333328
-0.00723809
0.0170556
0.0395009
-0.388868
-0.386731
-0.38255
-0.376185
-0.367527
-0.356495
-0.343026
-0.327097
-0.308755
-0.288122
-0.265394
-0.240853
-0.214874
-0.187916
-0.160467
-0.132986
-0.105873
-0.0794442
-0.0539599
-0.0296297
-0.00662589
0.0148971
0.0348963
-0.348337
-0.346347
-0.34234
-0.336239
-0.327982
-0.317537
-0.304912
-0.290135
-0.273286
-0.254511
-0.234017
-0.212077
-0.189021
-0.165233
-0.141103
-0.116987
-0.0932053
-0.0700262
-0.0476531
-0.0262474
-0.00595084
0.0131081
0.0308942
-0.311022
-0.30919
-0.3054
-0.299627
-0.291862
-0.282116
-0.270434
-0.256872
-0.241532
-0.224572
-0.206193
-0.186645
-0.166216
-0.145227
-0.123995
-0.102812
-0.0819354
-0.0615858
-0.0419324
-0.0231077
-0.00522497
0.0116116
0.0273752
-0.276529
-0.274839
-0.271293
-0.265895
-0.258687
-0.249703
-0.239002
-0.226661
-0.212797
-0.197568
-0.181164
-0.163807
-0.14575
-0.127262
-0.108605
-0.0900204
-0.0717201
-0.053883
-0.0366606
-0.0201572
-0.00446123
0.0103449
0.0242417
-0.244403
-0.242848
-0.239562
-0.234581
-0.227973
-0.219779
-0.210067
-0.19893
-0.186493
-0.172905
-0.158341
-0.143001
-0.127105
-0.110878
-0.0945416
-0.0782965
-0.0623185
-0.0467591
-0.0317431
-0.0173634
-0.00367557
0.0092536
0.0214099
-0.214251
-0.212821
-0.209813
-0.205281
-0.199295
-0.1919
-0.183174
-0.173219
-0.162154
-0.150121
-0.137279
-0.123808
-0.109898
-0.0957434
-0.0815279
-0.067422
-0.0535744
-0.0401118
-0.027134
-0.0147109
-0.00288759
0.00828735
0.0188043
-0.18577
-0.184462
-0.181749
-0.177683
-0.172326
-0.165731
-0.157982
-0.149177
-0.139429
-0.128869
-0.117646
-0.10592
-0.0938573
-0.0816216
-0.0693704
-0.0572473
-0.045378
-0.0338647
-0.0227847
-0.012193
-0.00212015
0.00739797
0.0163562
-0.158711
-0.157533
-0.155128
-0.151534
-0.146808
-0.14101
-0.13422
-0.126529
-0.118043
-0.108887
-0.0991959
-0.0891135
-0.078783
-0.0683446
-0.0579316
-0.0476653
-0.037649
-0.027964
-0.0186704
-0.00981532
-0.00139947
0.00653863
0.0140031
-0.132837
-0.1318
-0.129707
-0.126586
-0.122492
-0.117483
-0.111631
-0.105021
-0.0977544
-0.0899476
-0.0817232
-0.0732057
-0.0645181
-0.0557801
-0.0471048
-0.0385934
-0.0303299
-0.0223773
-0.0147783
-0.00755558
-0.000750439
0.00566321
0.0116863
-0.108094
-0.107206
-0.105416
-0.102758
-0.0992788
-0.0950321
-0.0900836
-0.084515
-0.0784226
-0.0719119
-0.0650909
-0.0580668
-0.0509445
-0.0438258
-0.0368058
-0.0299678
-0.0233787
-0.0170865
-0.0111216
-0.00549852
-0.000223314
0.00471979
0.00934746
-0.0845944
-0.0838653
-0.0823684
-0.0801532
-0.077256
-0.0737274
-0.0696314
-0.0650466
-0.0600628
-0.0547743
-0.0492755
-0.0436593
-0.0380162
-0.032433
-0.0269888
-0.0217507
-0.0167696
-0.0120795
-0.00769828
-0.0036271
0.00014867
0.00365712
0.00692614
-0.0618931
-0.0613394
-0.0601456
-0.0583694
-0.0560433
-0.0532178
-0.0499554
-0.0463297
-0.042421
-0.0383124
-0.0340867
-0.0298252
-0.0256068
-0.0215047
-0.0175835
-0.0138952
-0.0104767
-0.00734929
-0.00451809
-0.00197159
0.000323531
0.00241861
0.00435829
-0.0390524
-0.0387485
-0.0378758
-0.0365541
-0.0348243
-0.032736
-0.0303456
-0.0277166
-0.0249177
-0.0220202
-0.0190952
-0.0162127
-0.0134385
-0.0108315
-0.00844116
-0.00630489
-0.00444666
-0.00287673
-0.00159185
-0.000575974
0.000222047
0.0009133
0.0015514
-1.49407
-0.925522
-0.733743
-0.451495
0.380348
-0.135366
-0.212042
-0.01575
1.35428
1.07712
0.898751
0.850474
1.44672
1.34455
1.24714
1.16421
1.29614
1.2564
1.21025
1.16089
1.1743
1.15451
1.12762
1.09597
1.07208
1.05961
1.04209
1.02105
0.976891
0.969387
0.958575
0.94502
0.89068
0.88667
0.880216
0.871608
0.811524
0.809945
0.806541
0.801495
0.737082
0.737544
0.736633
0.734442
0.666077
0.668489
0.669812
0.670076
0.597583
0.602011
0.605495
0.608033
0.530968
0.537612
0.543331
0.54811
0.466112
0.475236
0.483321
0.490371
0.403538
0.415345
0.425876
0.43519
0.344362
0.358832
0.371727
0.383177
0.290085
0.306866
0.321798
0.335078
0.242216
0.260618
0.277009
0.291635
0.201759
0.220866
0.237972
0.253331
0.168818
0.187723
0.204796
0.220266
0.142579
0.1606
0.177055
0.192126
0.121717
0.138484
0.153968
0.168303
0.104914
0.120306
0.134666
0.148087
0.0911431
0.105179
0.118385
0.130822
0.0796909
0.0924398
0.104519
0.115965
0.070049
0.0815966
0.0926002
0.103076
0.0618324
0.0722666
0.0822536
0.0917964
0.0547441
0.0641489
0.0731814
0.0818366
0.0485574
0.057009
0.0651467
0.0729618
0.0430978
0.0506636
0.0579617
0.064982
0.0382275
0.0449656
0.0514732
0.0577401
0.0338319
0.0397915
0.045551
0.0511016
0.0298111
0.0350337
0.0400818
0.0449487
0.0260764
0.0305965
0.0349654
0.0391785
0.0225486
0.0263962
0.0301144
0.0337008
0.0191576
0.0223589
0.025452
0.028436
0.0158396
0.0184176
0.0209081
0.0233107
0.0125319
0.014507
0.0164143
0.018254
0.00916956
0.0105595
0.0119009
0.0131941
0.00568605
0.0065071
0.00729877
0.00806127
0.0019868
0.00225528
0.00251369
0.00276216
0.134112
0.513615
0.64149
0.682334
0.69575
0.697673
0.694126
0.687918
0.680779
0.673421
0.66625
0.659517
0.653398
0.648008
0.64343
0.639719
0.636911
0.635039
0.634105
0.388825
0.649009
0.723985
0.733637
0.727292
0.717483
0.706354
0.695107
0.684453
0.674625
0.665695
0.657706
0.650687
0.644654
0.63962
0.63559
0.632568
0.630564
0.629569
0.827125
0.83265
0.814946
0.784992
0.757673
0.735696
0.717104
0.700916
0.686843
0.674605
0.66396
0.654745
0.646848
0.640186
0.634705
0.630364
0.627136
0.625006
0.623952
1.04325
0.940281
0.872721
0.820416
0.779901
0.748858
0.7242
0.703931
0.686998
0.672714
0.660597
0.650321
0.641659
0.634449
0.628577
0.623965
0.620558
0.618318
0.617213
1.07287
0.968255
0.892765
0.835058
0.789669
0.754159
0.725967
0.703066
0.684174
0.668433
0.655241
0.644176
0.634937
0.627311
0.621143
0.616327
0.612785
0.610463
0.60932
1.03624
0.953765
0.886597
0.831889
0.787146
0.750999
0.721729
0.697756
0.677933
0.661432
0.647645
0.636126
0.62655
0.618677
0.612336
0.607403
0.603784
0.601417
0.600252
0.980465
0.918844
0.86335
0.815262
0.774318
0.740082
0.711631
0.687942
0.668154
0.651584
0.637697
0.626083
0.616429
0.608502
0.602127
0.597174
0.593546
0.591174
0.590006
0.917906
0.872975
0.829167
0.789036
0.753432
0.722611
0.696286
0.673923
0.654972
0.638942
0.625415
0.61405
0.604577
0.596788
0.59052
0.58565
0.582082
0.579749
0.578601
0.853745
0.821811
0.788491
0.756309
0.726561
0.699918
0.676519
0.656203
0.638697
0.623698
0.610919
0.600108
0.591054
0.583583
0.577558
0.572869
0.56943
0.56718
0.566073
0.790393
0.76861
0.744238
0.719398
0.695455
0.673258
0.6532
0.635378
0.619733
0.606131
0.594409
0.584404
0.57597
0.568976
0.563315
0.558897
0.55565
0.553523
0.552476
0.728657
0.715011
0.698217
0.679959
0.661499
0.643723
0.627155
0.612058
0.598532
0.586574
0.576132
0.567127
0.559474
0.553087
0.547892
0.543821
0.540821
0.538853
0.537885
0.668744
0.661875
0.651576
0.639167
0.625764
0.612221
0.599121
0.586826
0.575544
0.565379
0.556364
0.548494
0.541738
0.536057
0.531407
0.527746
0.525039
0.523259
0.522383
0.610694
0.609707
0.605075
0.597871
0.589078
0.579501
0.569738
0.560213
0.551206
0.542896
0.535387
0.528733
0.522952
0.518043
0.513995
0.510789
0.508408
0.50684
0.506066
0.554559
0.558861
0.559263
0.556709
0.552092
0.546174
0.539556
0.532694
0.525918
0.519462
0.513481
0.508076
0.503308
0.49921
0.495797
0.493075
0.491045
0.489702
0.489039
0.500511
0.509661
0.514582
0.516188
0.515331
0.512748
0.509041
0.504686
0.500044
0.495387
0.490909
0.486748
0.482998
0.479721
0.476958
0.474735
0.473065
0.471956
0.471407
0.448889
0.462469
0.471431
0.476735
0.479228
0.479648
0.478593
0.476551
0.473906
0.470953
0.467916
0.46496
0.462206
0.459739
0.457622
0.455895
0.454587
0.453713
0.453279
0.400152
0.417688
0.430182
0.438722
0.444153
0.447231
0.448547
0.448597
0.447781
0.446408
0.444722
0.442906
0.441103
0.439416
0.437924
0.436682
0.435727
0.435083
0.434761
0.354825
0.375683
0.391188
0.402477
0.410419
0.415793
0.419181
0.421082
0.421907
0.421968
0.421521
0.420762
0.419847
0.418894
0.417994
0.417212
0.416594
0.41617
0.415956
0.313445
0.336837
0.354713
0.368218
0.378256
0.385559
0.390728
0.394213
0.39648
0.397817
0.398481
0.398681
0.398579
0.398301
0.397949
0.397596
0.397292
0.397074
0.396962
0.276348
0.301409
0.320983
0.336161
0.347823
0.356682
0.363314
0.368171
0.371664
0.374111
0.375743
0.376793
0.377421
0.377748
0.377894
0.377931
0.377915
0.377885
0.377871
0.24362
0.269487
0.290087
0.306401
0.319249
0.329299
0.337087
0.34305
0.347568
0.350947
0.353423
0.35521
0.356482
0.357328
0.357921
0.358307
0.358547
0.358685
0.358765
0.215082
0.240981
0.261999
0.278954
0.292581
0.303475
0.312128
0.318949
0.324287
0.328427
0.3316
0.334008
0.335816
0.337144
0.338114
0.338801
0.339265
0.339544
0.33972
0.190336
0.215667
0.236592
0.253758
0.267795
0.27922
0.288471
0.29592
0.30188
0.306615
0.310346
0.313261
0.315517
0.317237
0.31853
0.319474
0.32013
0.320534
0.320787
0.168887
0.193231
0.213669
0.230692
0.244826
0.256506
0.266114
0.273978
0.280378
0.285553
0.289708
0.293019
0.295632
0.297667
0.299225
0.300381
0.301198
0.301709
0.302014
0.150238
0.173327
0.192992
0.209598
0.22357
0.23527
0.245023
0.253112
0.259784
0.265256
0.269712
0.273314
0.276197
0.278475
0.280239
0.281564
0.282509
0.283108
0.283448
0.13394
0.155619
0.174316
0.190296
0.203901
0.215426
0.225141
0.23329
0.240087
0.245724
0.250368
0.254164
0.257235
0.259686
0.261602
0.263054
0.264096
0.264762
0.265126
0.11961
0.139797
0.157397
0.172603
0.185682
0.196872
0.206397
0.214463
0.221256
0.226943
0.231672
0.235573
0.238757
0.241318
0.243335
0.244873
0.245983
0.246697
0.247075
0.106923
0.125587
0.142013
0.156337
0.168769
0.179498
0.188709
0.196573
0.203251
0.208887
0.213611
0.217537
0.220765
0.223377
0.225448
0.227034
0.228184
0.228927
0.229311
0.0956058
0.112749
0.127958
0.141329
0.153024
0.163193
0.171988
0.179553
0.186023
0.191521
0.196161
0.200042
0.203251
0.205863
0.207943
0.209544
0.210708
0.211463
0.211845
0.085432
0.101076
0.11505
0.12742
0.138313
0.147848
0.156149
0.163334
0.169517
0.174805
0.179292
0.183065
0.186201
0.188765
0.190816
0.1924
0.193555
0.194307
0.19468
0.076212
0.09039
0.103126
0.114467
0.124512
0.133357
0.141101
0.147843
0.153676
0.15869
0.162966
0.166579
0.169594
0.17207
0.174058
0.175598
0.176723
0.177457
0.177814
0.0677853
0.0805342
0.0920403
0.102339
0.111507
0.119621
0.126761
0.133008
0.138439
0.143128
0.147144
0.150551
0.153406
0.155758
0.157652
0.159123
0.1602
0.160904
0.161241
0.0600129
0.0713724
0.0816646
0.0909168
0.09919
0.106545
0.113046
0.118757
0.123743
0.128065
0.131782
0.134946
0.137606
0.139806
0.14158
0.142962
0.143974
0.144637
0.144949
0.0527736
0.062784
0.0718835
0.080094
0.0874636
0.0940402
0.099875
0.10502
0.109528
0.113451
0.116835
0.119726
0.122164
0.124184
0.125818
0.127091
0.128026
0.128638
0.128921
0.0459607
0.0546626
0.0625937
0.0697721
0.0762357
0.0820223
0.0871726
0.0917292
0.0957348
0.0992313
0.102258
0.104851
0.107044
0.108864
0.110339
0.111489
0.112334
0.112889
0.113139
0.0394806
0.0469129
0.0537011
0.0598605
0.0654206
0.0704116
0.0748661
0.0788186
0.0823038
0.0853553
0.0880045
0.0902803
0.0922083
0.093812
0.0951122
0.0961274
0.0968735
0.0973642
0.0975797
0.033249
0.0394485
0.0451193
0.0502747
0.0549379
0.059133
0.0628863
0.0662256
0.0691784
0.0717711
0.0740279
0.0759709
0.0776198
0.078993
0.0801072
0.0809777
0.081618
0.0820398
0.0822186
0.0271882
0.0321884
0.036767
0.0409354
0.0447118
0.0481155
0.0511676
0.0538897
0.0563031
0.0584277
0.0602812
0.0618799
0.0632384
0.0643707
0.0652901
0.0660089
0.0665379
0.0668873
0.0670282
0.0212233
0.0250557
0.0285672
0.0317675
0.0346707
0.0372918
0.039647
0.0417524
0.0436235
0.0452744
0.0467174
0.0479637
0.0490239
0.0499082
0.0506266
0.0511886
0.0516027
0.0518775
0.0519797
0.0152807
0.0179758
0.0204463
0.0226998
0.0247465
0.0265973
0.0282634
0.0297561
0.0310854
0.0322605
0.0332892
0.0341787
0.0349359
0.0355678
0.0360814
0.0364836
0.0367803
0.0369793
0.0370434
0.0092902
0.0108798
0.0123373
0.0136678
0.0148774
0.0159728
0.0169606
0.0178473
0.0186383
0.0193386
0.0199524
0.0204835
0.0209358
0.0213135
0.0216208
0.0218616
0.0220397
0.0221621
0.0221903
0.00316193
0.00367968
0.00415429
0.00458773
0.00498222
0.00534002
0.00566332
0.00595411
0.0062141
0.00644469
0.00664708
0.00682241
0.00697189
0.00709679
0.00719848
0.00727832
0.0073374
0.00737971
0.00738432
)
;

boundaryField
{
    leftWall
    {
        type            fixedFluxPressure;
        gradient        uniform 0;
        value           nonuniform List<scalar> 
50
(
1993.05
1993.2
1993.51
1993.99
1994.67
1995.58
1996.71
1998.11
2000.88
2006.55
2014.57
2025.42
2039.56
2057.38
2079.14
2105.04
2135.16
2169.14
2206.65
2248.73
2294.34
2337.67
2385.93
2139.78
423.18
-1.06912
-1.02809
-0.963513
-0.896949
-0.832734
-0.767803
-0.704194
-0.642937
-0.584967
-0.530806
-0.480128
-0.432804
-0.388868
-0.348337
-0.311022
-0.276529
-0.244403
-0.214251
-0.18577
-0.158711
-0.132837
-0.108094
-0.0845944
-0.0618931
-0.0390524
)
;
    }
    rightWall
    {
        type            fixedFluxPressure;
        gradient        uniform 0;
        value           nonuniform List<scalar> 
50
(
0.642196
0.642039
0.641665
0.641086
0.640301
0.639306
0.638099
0.636676
0.634105
0.629569
0.623952
0.617213
0.60932
0.600252
0.590006
0.578601
0.566073
0.552476
0.537885
0.522383
0.506066
0.489039
0.471407
0.453279
0.434761
0.415956
0.396962
0.377871
0.358765
0.33972
0.320787
0.302014
0.283448
0.265126
0.247075
0.229311
0.211845
0.19468
0.177814
0.161241
0.144949
0.128921
0.113139
0.0975797
0.0822186
0.0670282
0.0519797
0.0370434
0.0221903
0.00738432
)
;
    }
    lowerWall
    {
        type            fixedFluxPressure;
        gradient        uniform 0;
        value           nonuniform List<scalar> 
62
(
1993.05
1988.75
1973.24
1948.56
1915.54
1873.51
1821.61
1758.94
1684.4
1596.93
1494.56
1375.65
1239.62
1084.14
903.888
698.76
488.829
308.971
186.006
126.837
75.2207
58.5033
56.7983
56.7983
56.1794
53.9521
49.8482
33.3199
19.2488
13.3523
4.09266
-1.49407
-0.925522
-0.733743
-0.451495
0.550573
0.546364
0.537786
0.524594
0.506813
0.481523
0.44691
0.395607
0.550573
0.58751
0.612185
0.633784
0.650245
0.661317
0.667678
0.67027
0.670115
0.668084
0.664904
0.661098
0.657127
0.653266
0.649786
0.646834
0.644546
0.642985
0.642196
)
;
    }
    atmosphere
    {
        type            totalPressure;
        rho             rho;
        psi             none;
        gamma           1;
        p0              uniform 0;
        value           nonuniform List<scalar> 
46
(
-0.0269885
-0.0269607
-0.0262348
-0.0251565
-0.0237599
-0.0220866
-0.0201857
-0.0181126
-0.0159281
-0.0136955
-0.0114793
-0.00934167
-0.00733985
-0.00552388
-0.0039343
-0.00260067
-0.00154098
-0.000761872
-0.000259857
-2.37614e-05
0
0
0
0
0
0
0
0
0
0
0
0
0
0
0
0
0
0
0
0
0
0
0
0
0
0
)
;
    }
    defaultFaces
    {
        type            empty;
    }
}


// ************************************************************************* //
