/*--------------------------------*- C++ -*----------------------------------*\
| =========                 |                                                 |
| \\      /  F ield         | OpenFOAM: The Open Source CFD Toolbox           |
|  \\    /   O peration     | Version:  5.x                                   |
|   \\  /    A nd           | Web:      www.OpenFOAM.org                      |
|    \\/     M anipulation  |                                                 |
\*---------------------------------------------------------------------------*/
FoamFile
{
    version     2.0;
    format      ascii;
    class       surfaceScalarField;
    location    "0.3";
    object      alphaPhi10;
}
// * * * * * * * * * * * * * * * * * * * * * * * * * * * * * * * * * * * * * //

dimensions      [0 3 -1 0 0 0 0];

internalField   nonuniform List<scalar> 
4432
(
-9.04759e-07
9.04759e-07
2.76074e-06
-3.6655e-06
8.86682e-06
-6.10608e-06
1.54019e-05
-6.53513e-06
2.12751e-05
-5.87315e-06
2.62209e-05
-4.94584e-06
3.03855e-05
-4.16459e-06
3.40151e-05
-3.62953e-06
3.73067e-05
-3.29166e-06
4.03587e-05
-3.05194e-06
4.31707e-05
-2.81206e-06
4.56641e-05
-2.49337e-06
4.76975e-05
-2.03342e-06
4.90535e-05
-1.35601e-06
4.9268e-05
-2.14458e-07
4.74331e-05
1.83484e-06
4.23076e-05
5.12553e-06
3.2449e-05
9.85857e-06
1.751e-05
1.4939e-05
4.711e-08
1.74629e-05
-9.7794e-06
1.16122e-05
-1.35984e-05
3.43736e-06
-1.61338e-05
-8.25027e-07
1.72978e-06
2.91037e-06
-7.4009e-06
9.03621e-06
-1.22319e-05
1.55485e-05
-1.30474e-05
2.13908e-05
-1.17154e-05
2.63187e-05
-9.87373e-06
3.0488e-05
-8.3339e-06
3.41468e-05
-7.28832e-06
3.74868e-05
-6.63171e-06
4.05989e-05
-6.16399e-06
4.34772e-05
-5.69035e-06
4.60418e-05
-5.05801e-06
4.81581e-05
-4.14971e-06
4.96562e-05
-2.85411e-06
5.05321e-05
-1.09036e-06
5.08996e-05
1.46731e-06
5.06477e-05
5.37752e-06
4.84792e-05
1.2027e-05
4.13079e-05
2.21103e-05
2.62227e-05
3.25481e-05
5.08567e-06
3.328e-05
-4.21882e-06
1.34754e-05
-2.03526e-05
-6.60515e-07
2.3903e-06
3.15186e-06
-1.12133e-05
9.27316e-06
-1.83532e-05
1.56922e-05
-1.94665e-05
2.14153e-05
-1.74385e-05
2.62505e-05
-1.4709e-05
3.0378e-05
-1.24614e-05
3.40471e-05
-1.09574e-05
3.74368e-05
-1.00214e-05
4.06215e-05
-9.34868e-06
4.35839e-05
-8.6527e-06
4.62398e-05
-7.714e-06
4.84622e-05
-6.37205e-06
5.00986e-05
-4.49059e-06
5.09378e-05
-1.92955e-06
5.08493e-05
1.55581e-06
4.99239e-05
6.30299e-06
4.8852e-05
1.30989e-05
4.75453e-05
2.3417e-05
4.27159e-05
3.73775e-05
2.99098e-05
4.60861e-05
1.28291e-05
3.05528e-05
-7.64427e-06
-4.15503e-07
2.8058e-06
3.50619e-06
-1.5135e-05
9.60867e-06
-2.44557e-05
1.58892e-05
-2.5747e-05
2.1443e-05
-2.29924e-05
2.61545e-05
-1.94205e-05
3.02364e-05
-1.65432e-05
3.39343e-05
-1.46553e-05
3.74056e-05
-1.34927e-05
4.0701e-05
-1.26441e-05
4.37871e-05
-1.17389e-05
4.6575e-05
-1.05019e-05
4.89407e-05
-8.7377e-06
5.0738e-05
-6.28788e-06
5.17995e-05
-2.99108e-06
5.19672e-05
1.38805e-06
5.11154e-05
7.1548e-06
4.95107e-05
1.47037e-05
4.83757e-05
2.4552e-05
4.77575e-05
3.79957e-05
4.19418e-05
5.19018e-05
2.48011e-05
4.7693e-05
1.71047e-05
-7.94285e-08
2.88523e-06
3.95057e-06
-1.9165e-05
1.00071e-05
-3.05122e-05
1.61023e-05
-3.18422e-05
2.14455e-05
-2.83356e-05
2.60139e-05
-2.39889e-05
3.0055e-05
-2.05843e-05
3.38032e-05
-1.84035e-05
3.73847e-05
-1.70742e-05
4.08206e-05
-1.608e-05
4.40595e-05
-1.49778e-05
4.70071e-05
-1.34495e-05
4.95452e-05
-1.12757e-05
5.15413e-05
-8.28404e-06
5.28539e-05
-4.30368e-06
5.33591e-05
8.82889e-07
5.29652e-05
7.54872e-06
5.16304e-05
1.60384e-05
4.97375e-05
2.6445e-05
4.86361e-05
3.90971e-05
4.55255e-05
5.50124e-05
3.0712e-05
6.25064e-05
4.78597e-05
2.40083e-07
2.64515e-06
4.45985e-06
-2.33847e-05
1.04438e-05
-3.64961e-05
1.63096e-05
-3.7708e-05
2.14125e-05
-3.34386e-05
2.58332e-05
-2.84096e-05
2.98489e-05
-2.45999e-05
3.36714e-05
-2.2226e-05
3.73878e-05
-2.07906e-05
4.0986e-05
-1.96781e-05
4.43963e-05
-1.83881e-05
4.75217e-05
-1.6575e-05
5.02525e-05
-1.40065e-05
5.24712e-05
-1.05028e-05
5.40572e-05
-5.88964e-06
5.49061e-05
3.39977e-08
5.49436e-05
7.51119e-06
5.41399e-05
1.68422e-05
5.22869e-05
2.8298e-05
4.9921e-05
4.1463e-05
4.64894e-05
5.8444e-05
3.34152e-05
7.55805e-05
8.12749e-05
6.17666e-07
2.02748e-06
5.02505e-06
-2.77921e-05
1.09025e-05
-4.23736e-05
1.65e-05
-4.33055e-05
2.13475e-05
-3.82861e-05
2.5631e-05
-3.26931e-05
2.96456e-05
-2.86145e-05
3.35687e-05
-2.61491e-05
3.74414e-05
-2.46632e-05
4.1218e-05
-2.34548e-05
4.48147e-05
-2.19847e-05
4.81355e-05
-1.98959e-05
5.1081e-05
-1.6952e-05
5.35461e-05
-1.29679e-05
5.54229e-05
-7.76647e-06
5.6616e-05
-1.1591e-06
5.70627e-05
7.06454e-06
5.67415e-05
1.71634e-05
5.54214e-05
2.9618e-05
5.2753e-05
4.41314e-05
4.84057e-05
6.27912e-05
3.74612e-05
8.65251e-05
0.000118736
1.03965e-06
9.87833e-07
5.62854e-06
-3.2381e-05
1.13667e-05
-4.81117e-05
1.66773e-05
-4.86161e-05
2.12786e-05
-4.28874e-05
2.5453e-05
-3.68676e-05
2.9499e-05
-3.26605e-05
3.35498e-05
-3.01999e-05
3.75989e-05
-2.87124e-05
4.15713e-05
-2.74272e-05
4.53742e-05
-2.57876e-05
4.89175e-05
-2.34391e-05
5.21104e-05
-2.01449e-05
5.48525e-05
-1.571e-05
5.70364e-05
-9.95041e-06
5.85723e-05
-2.69494e-06
5.94119e-05
6.22491e-06
5.95276e-05
1.70477e-05
5.8828e-05
3.03177e-05
5.67923e-05
4.61671e-05
5.22734e-05
6.73101e-05
4.14345e-05
9.7364e-05
0.000160171
5.51593e-17
-5.51593e-17
2.34024e-17
3.17523e-17
9.86854e-17
5.04348e-19
2.15157e-18
9.78415e-19
1.4606e-20
8.11464e-21
4.3303e-22
-2.191e-22
1.73128e-23
-2.34057e-23
6.81562e-25
-1.0687e-24
2.95564e-26
-3.4117e-26
1.43113e-27
-8.85805e-28
7.13102e-29
-6.48702e-31
3.15527e-30
1.24571e-30
1.0709e-31
1.03192e-31
2.99294e-33
5.50173e-33
6.467e-35
2.18741e-34
9.65128e-37
6.42313e-36
8.26536e-39
1.30485e-37
2.64187e-41
1.58591e-39
8.03154e-42
5.1155e-15
-5.17066e-15
1.33361e-15
2.00215e-14
5.41669e-16
1.47835e-16
4.53288e-18
9.23485e-18
3.00863e-19
2.16114e-19
1.43317e-20
-1.56809e-20
5.24444e-22
-2.07602e-21
2.14464e-23
-7.73731e-23
9.74821e-25
-2.65227e-24
4.91671e-26
-8.22492e-26
2.79381e-27
-7.58744e-28
1.62675e-28
1.38028e-28
6.09104e-30
1.61665e-29
1.8373e-31
1.02126e-30
4.31656e-33
4.5962e-32
6.83198e-35
1.48506e-33
5.77352e-37
3.16468e-35
1.59991e-39
3.6286e-37
1.76558e-39
2.69865e-13
-2.75036e-13
9.7969e-14
1.04366e-12
3.95532e-15
3.10436e-14
2.05871e-17
3.84674e-16
2.83514e-18
2.22612e-18
5.56205e-19
-2.11546e-19
2.07765e-20
-6.73618e-20
7.63157e-22
-4.08963e-21
3.71139e-23
-1.51763e-22
1.38191e-24
-3.18557e-24
5.65837e-26
-2.36442e-26
4.83419e-27
4.7838e-27
1.69853e-28
6.42543e-28
4.53289e-30
3.95879e-29
9.55005e-32
1.66636e-30
1.28737e-33
4.84636e-32
9.10001e-36
8.60339e-34
5.38385e-38
9.43686e-36
4.35326e-38
8.77945e-12
-9.05449e-12
7.21163e-12
1.22076e-11
1.29746e-13
3.19264e-12
-7.37996e-16
4.36864e-14
2.41131e-17
2.69581e-16
3.47835e-18
-5.49359e-18
4.8247e-19
-1.68389e-18
2.75334e-20
-1.90441e-19
1.17762e-21
-1.08198e-20
3.09598e-23
-1.39436e-22
9.36105e-25
-8.92052e-25
7.60021e-26
9.27735e-26
5.20125e-27
1.93583e-26
1.09276e-28
1.27125e-27
1.93788e-30
4.97761e-29
2.38837e-32
1.26066e-30
2.01923e-34
2.44609e-32
1.37178e-36
2.90003e-34
1.27921e-36
3.22294e-10
-3.31346e-10
6.79138e-10
-3.08918e-10
1.1886e-12
6.78386e-10
-9.48826e-16
1.74461e-12
2.97909e-16
8.58058e-15
3.5319e-17
-1.98164e-16
5.70492e-18
-1.38911e-17
6.73343e-19
-2.3133e-18
4.42241e-20
-1.2498e-19
1.74365e-21
-1.93048e-20
2.81828e-23
-1.0547e-22
1.86187e-24
2.7653e-24
2.28869e-25
7.4155e-25
4.21322e-27
5.79015e-26
6.02039e-29
1.9926e-27
8.7484e-31
5.32223e-29
8.75492e-33
1.19428e-30
7.03651e-35
1.49432e-32
6.33997e-35
2.79182e-09
-3.12316e-09
1.92765e-08
-4.15961e-08
4.25574e-11
5.94996e-09
3.95521e-14
4.54438e-11
-2.99558e-14
2.53018e-13
-1.37852e-15
-3.368e-15
3.44474e-17
1.31496e-16
5.40534e-18
1.27962e-17
1.04048e-18
-2.05138e-18
3.11274e-19
-3.12858e-19
1.58295e-21
-2.99082e-21
9.01961e-23
1.47169e-22
1.16316e-23
4.28439e-23
2.09968e-25
3.4575e-24
2.67336e-27
1.05674e-25
4.4685e-29
3.01669e-27
4.96938e-31
7.32497e-29
4.5211e-33
1.01493e-30
4.31565e-33
2.57101e-08
-2.88333e-08
3.74489e-08
-9.06509e-08
-3.74712e-13
1.24457e-08
-3.14212e-13
4.51391e-11
-2.35036e-13
1.01638e-12
2.50283e-15
1.1146e-13
1.13237e-15
3.41486e-14
2.15098e-16
5.75678e-15
2.37514e-17
3.26408e-16
1.92397e-18
-5.16853e-18
4.97903e-20
-1.55635e-19
4.32074e-21
5.25236e-21
6.47675e-22
2.31407e-21
1.06702e-23
1.92941e-22
1.44002e-25
6.0448e-24
2.74037e-27
1.92568e-25
3.2021e-29
5.05744e-27
3.284e-31
7.26782e-29
3.1903e-31
1.30181e-08
-4.18516e-08
-1.02064e-08
6.33228e-09
-3.57387e-11
2.36665e-09
3.86826e-13
8.15718e-13
9.51958e-13
2.4023e-12
2.7331e-13
3.20459e-12
7.2538e-14
6.0533e-13
2.01921e-14
2.62186e-13
6.3452e-16
5.28346e-14
5.34629e-17
2.23237e-15
3.10511e-18
2.12823e-17
2.14258e-19
2.74419e-19
2.76744e-20
1.14969e-19
4.6395e-22
9.18903e-21
7.94142e-24
3.3456e-22
1.6436e-25
1.17596e-23
1.9695e-27
3.30243e-25
2.22778e-29
4.73929e-27
2.20248e-29
3.62436e-06
-2.63652e-06
1.39486e-05
-4.27053e-05
2.57156e-05
-5.98786e-05
3.60957e-05
-5.89962e-05
4.5173e-05
-5.19647e-05
5.3854e-05
-4.55486e-05
6.27021e-05
-4.15086e-05
7.18106e-05
-3.93085e-05
8.1018e-05
-3.79197e-05
9.00945e-05
-3.65037e-05
9.88418e-05
-3.45349e-05
0.000107097
-3.16945e-05
0.000114693
-2.77409e-05
0.000121441
-2.24579e-05
0.000127157
-1.56666e-05
0.000131683
-7.22051e-06
0.000134971
2.93722e-06
0.000136896
1.51221e-05
0.000137568
2.96459e-05
0.000136967
4.6768e-05
0.00013618
6.80972e-05
0.000142165
9.1379e-05
0.000130201
0.000171981
5.68346e-06
-8.31999e-06
1.66915e-05
-5.37134e-05
2.76118e-05
-7.0799e-05
3.67733e-05
-6.81578e-05
4.51208e-05
-6.03122e-05
5.37527e-05
-5.41806e-05
6.3009e-05
-5.07649e-05
7.27047e-05
-4.90043e-05
8.2509e-05
-4.77241e-05
9.21442e-05
-4.61391e-05
0.000101445
-4.38359e-05
0.0001103
-4.05497e-05
0.000118626
-3.60668e-05
0.000126338
-3.01703e-05
0.000133418
-2.27468e-05
0.000140058
-1.38596e-05
0.000145867
-2.87228e-06
0.00015119
9.79931e-06
0.000155803
2.50331e-05
0.000160787
4.17837e-05
0.000169331
5.95532e-05
0.000184553
7.61569e-05
9.88941e-05
0.000215721
8.02379e-06
-1.63438e-05
1.93117e-05
-6.50014e-05
2.88427e-05
-8.03319e-05
3.66768e-05
-7.59935e-05
4.44783e-05
-6.8115e-05
5.31529e-05
-6.28564e-05
6.2612e-05
-6.02249e-05
7.24134e-05
-5.88067e-05
8.21831e-05
-5.74957e-05
9.17234e-05
-5.56847e-05
0.000100987
-5.3108e-05
0.000109964
-4.95268e-05
0.000118812
-4.49144e-05
0.00012766
-3.90184e-05
0.000136404
-3.14908e-05
0.000144663
-2.21181e-05
0.000153099
-1.13088e-05
0.000162158
6.90905e-07
0.000168725
1.84656e-05
0.000175848
3.46607e-05
0.000185665
4.97365e-05
0.000197763
6.40589e-05
7.71112e-05
0.000219532
1.10944e-05
-2.74382e-05
2.21525e-05
-7.60661e-05
2.93251e-05
-8.75215e-05
3.54888e-05
-8.21723e-05
4.28455e-05
-7.54884e-05
5.15992e-05
-7.16434e-05
6.11345e-05
-6.97605e-05
7.09476e-05
-6.86181e-05
8.08506e-05
-6.73952e-05
9.09509e-05
-6.57823e-05
0.000101769
-6.39273e-05
0.000112825
-6.06196e-05
0.000123105
-5.18228e-05
0.000131668
-4.06226e-05
0.000138495
-2.93748e-05
0.000143912
-1.89844e-05
0.000149374
-1.04002e-05
0.000154789
-2.51831e-06
0.00016748
6.47404e-06
0.000183961
1.83447e-05
0.000198257
3.54405e-05
0.000206926
5.53898e-05
6.40337e-05
0.000219984
1.60744e-05
-4.35126e-05
2.72959e-05
-8.7278e-05
3.04835e-05
-9.07204e-05
3.44912e-05
-8.61901e-05
4.20245e-05
-8.30276e-05
5.1775e-05
-8.07685e-05
6.17802e-05
-7.36879e-05
7.07398e-05
-6.40149e-05
7.72576e-05
-5.21586e-05
8.00123e-05
-3.94013e-05
7.74933e-05
-2.57995e-05
6.62392e-05
-5.5774e-06
5.29151e-05
-5.38393e-07
4.12104e-05
-4.93543e-08
3.10982e-05
-5.14215e-09
2.26793e-05
-2.72817e-09
1.74165e-05
-5.22819e-09
1.62839e-05
-6.56252e-09
2.35922e-05
2.67443e-07
4.14767e-05
4.2326e-07
7.45795e-05
2.83182e-07
0.000124378
9.39271e-07
8.99077e-06
0.000176055
2.36253e-05
-6.00689e-05
2.64054e-05
-4.63909e-05
2.46956e-05
-3.0267e-05
2.59196e-05
-2.8759e-05
2.85628e-05
-2.51155e-05
2.93261e-05
-1.68953e-06
2.63933e-05
-5.61056e-08
2.178e-05
-2.05405e-09
1.57923e-05
-8.43303e-11
9.01487e-06
-3.92866e-12
6.17034e-06
-1.98688e-12
5.92939e-07
-3.29913e-12
5.45555e-08
-2.78596e-12
5.50068e-09
-3.09857e-10
8.5986e-10
-2.86976e-10
1.01067e-09
-4.99212e-10
1.64704e-09
-5.98578e-10
2.26647e-09
-1.73579e-10
2.75041e-07
1.36279e-09
6.94402e-07
1.06378e-08
9.74246e-07
1.94984e-08
2.12348e-06
7.06434e-08
1.65103e-07
1.04762e-05
1.19382e-05
2.37275e-24
1.91144e-06
-3.06129e-24
1.9632e-06
-1.74061e-21
1.91372e-06
-1.2911e-19
1.74777e-06
-1.28623e-17
5.82481e-08
-4.51133e-16
2.14245e-09
-5.26362e-15
8.84167e-11
-1.43517e-14
4.11834e-12
-1.81028e-14
2.21782e-13
-1.50252e-14
2.45439e-13
-5.45618e-13
4.4312e-13
-4.79706e-13
1.05717e-12
-5.20501e-13
7.20399e-11
-3.74262e-10
4.17289e-10
-4.12371e-10
1.21567e-09
-1.93407e-10
2.41874e-09
5.58783e-10
3.58259e-09
-9.1037e-10
6.82364e-09
1.38839e-10
1.77615e-08
2.39871e-09
5.73454e-08
9.57799e-10
1.28058e-07
4.51358e-09
-1.89492e-09
3.29169e-07
-2.55793e-25
2.65948e-23
2.71356e-26
-3.34422e-24
2.81547e-23
-1.76647e-21
2.59411e-21
-1.3186e-19
2.7259e-19
-1.31429e-17
1.0564e-17
-4.62346e-16
1.2193e-16
-5.38769e-15
4.82602e-16
-1.41118e-14
1.27498e-15
-6.0931e-15
4.0288e-15
-3.84803e-15
2.58019e-13
-7.82532e-13
6.30007e-13
-7.04579e-13
2.53094e-12
-2.0929e-12
9.85785e-10
-1.35623e-09
6.77358e-09
-5.92996e-09
2.96583e-08
-2.63864e-08
3.75483e-08
-2.12124e-08
1.24184e-08
-8.46973e-10
5.24535e-09
1.92104e-09
9.66686e-09
3.47628e-09
1.00873e-08
5.4219e-09
1.42111e-08
4.89103e-09
4.64003e-09
3.01181e-08
-1.69453e-25
3.15751e-23
-1.47339e-25
-1.25492e-23
4.20913e-22
-1.03522e-20
6.06289e-20
-7.667e-19
6.76431e-18
-6.52154e-17
2.85124e-16
-2.41216e-15
3.95098e-15
-2.18868e-14
8.64911e-15
-3.86843e-14
4.27033e-15
-1.3725e-14
2.67414e-14
-5.38829e-15
3.73586e-12
-2.46625e-11
3.17119e-12
-5.65233e-12
3.81678e-11
-3.57954e-11
3.45762e-08
-4.98352e-08
1.64327e-07
-1.81799e-07
8.65337e-08
-6.37946e-08
6.51141e-09
-7.96053e-09
4.29272e-09
-1.59981e-10
3.89717e-09
2.9274e-09
6.57428e-09
3.95855e-09
7.3914e-09
6.38898e-09
8.82792e-09
4.24055e-09
2.08877e-09
1.37352e-08
-7.00765e-25
2.81673e-23
6.14133e-24
-8.74761e-23
4.34102e-21
-2.84976e-20
6.77469e-19
-3.11927e-18
1.02819e-16
-4.21457e-16
3.29325e-15
-1.13531e-14
1.38746e-14
-4.3049e-14
1.70425e-14
-4.55873e-14
7.59277e-15
-1.43179e-14
3.72625e-14
-2.14002e-14
3.90011e-11
-1.64532e-10
1.52475e-11
-1.15334e-11
4.19265e-10
-4.31137e-10
6.94817e-08
-1.6813e-07
1.02627e-07
-1.7803e-07
5.53975e-08
-1.29248e-07
3.13663e-09
-8.81524e-09
4.08524e-09
-1.45693e-09
4.42319e-09
2.35551e-09
6.34856e-09
3.61898e-09
1.94014e-07
9.26114e-09
7.11633e-07
9.4373e-09
-8.66349e-09
6.24014e-07
-1.3831e-24
2.00684e-23
2.08601e-23
-1.4546e-22
7.68392e-21
-3.3149e-20
1.47911e-18
-4.3922e-18
2.84386e-16
-7.83909e-16
6.63904e-15
-1.7832e-14
1.39416e-14
-4.5129e-14
1.55028e-14
-4.21766e-14
1.00098e-14
-1.39546e-14
1.06903e-13
-1.6636e-14
6.61851e-11
-1.62668e-10
5.67135e-11
-1.38037e-11
4.97438e-09
-5.34411e-09
2.85944e-08
-1.04993e-07
2.13531e-08
-1.35535e-07
1.65564e-08
-1.86575e-07
1.14134e-08
-5.70403e-08
4.14668e-08
-4.24703e-08
1.89533e-07
-2.20284e-08
2.52681e-07
-2.87918e-08
2.9685e-07
-5.53965e-09
3.37528e-07
-9.2556e-10
-3.47828e-09
8.09664e-08
-1.37996e-24
1.15199e-23
2.59068e-23
-1.48716e-22
7.96836e-21
-3.179e-20
1.73555e-18
-4.59009e-18
3.72638e-16
-9.31624e-16
6.1049e-15
-1.75495e-14
1.28439e-14
-4.53397e-14
1.13684e-14
-3.40448e-14
7.58288e-15
-1.25396e-14
2.78974e-14
-3.92494e-14
4.40818e-11
-1.37674e-10
3.73774e-11
-1.53588e-11
1.50282e-09
-9.22698e-10
1.32503e-09
-1.57896e-11
2.13676e-09
-1.10541e-13
1.80917e-08
-7.04583e-08
5.75806e-08
-1.00236e-07
8.95524e-08
-5.9888e-08
1.08266e-07
-2.12895e-08
1.00902e-07
-3.15756e-09
1.54603e-08
-1.44157e-10
3.84837e-09
-7.71101e-12
-4.94697e-13
3.70109e-10
-7.77988e-25
5.38279e-24
2.30909e-23
-9.79829e-23
6.16392e-21
-1.67131e-20
1.64407e-18
-3.869e-18
3.73588e-16
-9.15307e-16
5.86915e-15
-1.16165e-14
1.16838e-14
-3.23586e-14
5.9566e-15
-1.83982e-14
7.0661e-15
-1.26134e-14
3.4754e-13
-3.78797e-13
1.17864e-11
-1.09909e-13
2.24999e-12
-5.19799e-12
1.58938e-11
-1.31326e-13
1.09523e-13
-4.91105e-15
2.76894e-16
-1.39883e-15
7.7874e-10
-2.4507e-16
7.59655e-09
-1.1645e-16
1.23735e-08
-3.27336e-16
3.30993e-09
-1.20377e-15
1.52375e-10
-2.45383e-15
8.22259e-12
-4.07563e-15
5.16927e-13
-5.55707e-15
-7.61866e-15
3.12975e-14
-3.31914e-25
2.32583e-24
1.04571e-23
-2.78358e-23
2.49289e-21
-4.88809e-21
9.61418e-19
-1.58429e-18
2.78868e-16
-4.9549e-16
2.95042e-15
-4.76079e-15
5.67607e-15
-1.01588e-14
3.5419e-15
-6.80704e-15
3.48972e-15
-1.17653e-14
1.00894e-13
-8.82165e-15
1.91116e-15
-1.14232e-14
1.2684e-13
-8.22053e-15
1.67004e-15
-5.80422e-15
8.83088e-17
-3.43328e-15
3.94644e-17
-1.3911e-15
2.19892e-17
-2.68311e-16
2.59916e-17
-1.52207e-16
4.10325e-17
-3.56496e-16
7.57588e-17
-1.26644e-15
1.51765e-16
-2.50988e-15
3.32896e-16
-3.80625e-15
7.41015e-16
-4.86931e-15
-8.46531e-15
2.83782e-15
-1.24885e-25
1.39387e-24
2.47876e-24
-4.0248e-24
6.78253e-22
-1.58599e-21
2.93554e-19
-3.72013e-19
1.08273e-16
-1.35572e-16
9.36211e-16
-1.23643e-15
1.49399e-15
-2.29941e-15
1.20532e-15
-2.05713e-15
2.94839e-15
-7.3098e-15
2.27153e-15
-1.12319e-14
1.32289e-15
-1.14201e-14
1.10695e-15
-1.07214e-14
1.05526e-15
-8.51723e-15
1.01989e-15
-6.20586e-15
2.31993e-16
-2.66568e-15
4.85669e-17
-3.20991e-16
4.30741e-17
-1.60969e-16
2.31802e-16
-3.76546e-16
1.07339e-15
-9.31924e-16
3.07187e-15
-1.90438e-15
6.40222e-15
-3.30728e-15
1.13374e-14
-5.15528e-15
-1.03498e-14
2.45486e-14
-6.48653e-26
1.3446e-24
3.38898e-25
8.59172e-25
2.49054e-22
-1.08182e-21
5.7796e-20
-5.86325e-20
2.49077e-17
-2.36055e-17
2.04024e-16
-2.1462e-16
3.05571e-16
-4.04726e-16
3.34775e-16
-5.41466e-16
2.06614e-15
-2.09105e-15
3.16248e-15
-8.58175e-15
3.48948e-15
-9.4216e-15
2.91664e-15
-9.35819e-15
2.37161e-15
-6.76348e-15
1.60077e-15
-4.83523e-15
4.62501e-16
-2.30036e-15
7.42868e-17
-3.19732e-16
7.97593e-17
-5.42424e-17
3.45022e-16
-8.22516e-17
9.71621e-16
-2.18352e-16
1.92934e-15
-6.08564e-16
4.11215e-15
-1.56816e-15
8.262e-15
-3.14679e-15
-9.0022e-15
2.2478e-14
-5.4922e-26
1.37003e-24
-5.29672e-26
2.14117e-24
1.697e-22
-8.62678e-22
8.08531e-21
-7.70758e-21
3.84365e-18
-2.69001e-18
3.18978e-17
-2.50575e-17
5.97517e-17
-5.55927e-17
1.01761e-16
-1.24674e-16
5.56419e-16
-5.17627e-16
2.30365e-15
-1.85954e-15
2.86018e-15
-4.51802e-15
1.93632e-15
-2.41876e-15
1.26737e-15
-1.10309e-15
9.19581e-16
-8.03755e-16
3.64662e-16
-4.44591e-16
3.00406e-17
-8.064e-17
1.61368e-17
-6.31736e-18
3.82752e-17
-1.28556e-17
1.51324e-16
-5.78906e-17
5.55294e-16
-2.41068e-16
1.74946e-15
-8.27878e-16
4.42344e-15
-2.04444e-15
-7.1429e-15
1.62034e-14
-4.98844e-26
1.17596e-24
-1.23956e-25
3.07728e-24
1.1234e-22
-4.2418e-22
9.44347e-22
-1.36255e-21
3.95622e-19
-1.88992e-19
3.55904e-18
-1.85684e-18
8.72841e-18
-7.58383e-18
2.5583e-17
-3.00481e-17
1.23849e-16
-1.15414e-16
4.28405e-16
-2.7213e-16
7.79576e-16
-4.35182e-16
2.77726e-16
-2.88499e-16
1.5611e-16
-1.09829e-16
1.25293e-16
-4.8632e-17
5.86407e-17
-2.4224e-17
4.88547e-18
-4.72362e-18
1.83497e-18
-7.57004e-19
6.75293e-18
-2.32653e-18
4.34569e-17
-1.66035e-17
2.2426e-16
-1.0133e-16
8.99239e-16
-4.57974e-16
2.72667e-15
-1.38682e-15
-6.32612e-15
1.18387e-14
-3.87257e-26
7.9666e-25
-1.6745e-25
3.22942e-24
3.67786e-23
-6.23574e-23
1.45024e-22
-2.63375e-22
2.53345e-20
-6.173e-21
2.72983e-19
-1.10975e-19
1.34719e-18
-1.56167e-18
6.3198e-18
-8.00372e-18
2.41386e-17
-2.55497e-17
5.19758e-17
-5.09599e-17
6.80391e-17
-6.13398e-17
3.60532e-17
-4.34074e-17
1.15796e-17
-1.4882e-17
5.94449e-18
-3.4612e-18
2.89308e-18
-1.92834e-18
3.65916e-19
-5.77482e-19
2.22168e-19
-1.35311e-19
1.31975e-18
-5.01242e-19
1.25203e-17
-5.16558e-18
9.17357e-17
-4.42743e-17
4.73529e-16
-2.56234e-16
1.75735e-15
-9.66971e-16
-6.46654e-15
1.00472e-14
-2.40117e-26
4.01921e-25
-1.653e-25
2.35315e-24
4.68389e-24
1.69194e-25
2.67296e-23
-2.30339e-23
7.62311e-22
-1.8308e-23
1.75311e-20
-1.49264e-20
2.93487e-19
-3.38829e-19
1.58882e-18
-1.95882e-18
4.96991e-18
-6.70313e-18
8.78677e-18
-1.29855e-17
1.01233e-17
-1.63585e-17
5.80515e-18
-1.12677e-17
1.30496e-18
-3.90476e-18
4.38163e-19
-8.69574e-19
2.77633e-19
-4.70608e-19
6.3982e-20
-1.42696e-19
3.93009e-20
-2.69414e-20
2.86451e-19
-1.2159e-19
3.8174e-18
-1.70506e-18
3.84399e-17
-1.98837e-17
2.51502e-16
-1.44959e-16
1.18449e-15
-7.2206e-16
-6.89967e-15
9.43683e-15
-1.11818e-26
1.37544e-25
-1.13314e-25
1.04333e-24
-1.22882e-26
1.78985e-24
1.15e-24
1.78618e-25
1.1118e-24
-3.23027e-25
2.3631e-21
-1.90169e-21
5.89208e-20
-3.68968e-20
3.64654e-19
-3.58052e-19
1.25696e-18
-1.68313e-18
2.27174e-18
-3.57767e-18
2.71946e-18
-4.75413e-18
1.4823e-18
-3.15808e-18
3.45618e-19
-1.10178e-18
1.03933e-19
-1.64186e-19
6.14264e-20
-2.85735e-20
1.36249e-20
-3.44767e-21
7.29753e-21
-3.69027e-21
6.92839e-20
-3.35395e-20
1.21373e-18
-6.03219e-19
1.63301e-17
-9.11052e-18
1.3507e-16
-8.34908e-17
8.5953e-16
-5.86305e-16
-6.97889e-15
8.89897e-15
-3.55114e-27
2.74136e-26
-4.7238e-26
2.09171e-25
-1.22292e-25
4.19259e-25
-1.62422e-26
3.83761e-26
5.69864e-26
2.16883e-27
2.67006e-22
-4.05998e-25
5.79189e-21
-1.35366e-21
6.40149e-20
-4.47459e-20
2.99988e-19
-2.77203e-19
5.91938e-19
-6.70167e-19
7.26293e-19
-9.10033e-19
3.75345e-19
-6.00186e-19
8.48861e-20
-2.39948e-19
8.49444e-21
-4.03905e-20
1.32136e-21
-2.19669e-21
7.22131e-22
-2.50726e-22
1.08627e-21
-7.1363e-22
1.95497e-20
-1.11987e-20
4.09164e-19
-2.3153e-19
6.9926e-18
-4.23486e-18
7.34152e-17
-4.91082e-17
6.67731e-16
-5.14445e-16
-6.98644e-15
7.75937e-15
-6.58764e-28
2.71832e-27
-8.89399e-27
2.04722e-26
-2.69073e-26
4.08231e-26
-3.27971e-27
3.4129e-27
-2.31191e-28
1.8044e-28
5.32797e-26
-1.8009e-26
2.07912e-22
-8.23738e-23
7.5906e-21
-3.49945e-21
4.53449e-20
-2.37966e-20
9.83068e-20
-5.98601e-20
1.20961e-19
-7.31947e-20
6.33222e-20
-4.9868e-20
1.85627e-20
-2.6604e-20
1.55681e-21
-6.11483e-21
6.87599e-23
-4.26036e-22
5.61295e-23
-7.33542e-23
3.01531e-22
-2.31585e-22
6.35672e-21
-4.157e-21
1.47293e-19
-9.40966e-20
2.99515e-18
-1.9655e-18
4.01542e-17
-2.90343e-17
5.46726e-16
-4.73835e-16
-6.877e-15
6.67108e-15
-6.08655e-29
6.47388e-50
-8.15975e-28
-9.52826e-47
-2.45545e-27
-8.76279e-43
-2.7346e-28
-2.70616e-35
-1.80439e-29
-2.57475e-31
2.22923e-27
-1.37327e-29
1.17324e-23
-7.93856e-26
5.38506e-22
-7.87006e-23
3.50615e-21
-9.04399e-22
7.38002e-21
-2.6184e-21
8.61045e-21
-3.28871e-21
4.96241e-21
-2.61537e-21
2.28247e-21
-1.64548e-21
2.69561e-22
-3.98761e-22
1.80426e-23
-3.46474e-23
1.57387e-23
-1.42197e-23
9.4808e-23
-6.98795e-23
2.19575e-21
-1.57277e-21
5.49329e-20
-3.83857e-20
1.25674e-18
-8.7595e-19
2.15671e-17
-1.65954e-17
4.54301e-16
-4.34352e-16
-6.17596e-15
5.52742e-15
-1.34987e-51
9.23008e-50
2.9942e-49
-9.55834e-47
2.05376e-45
-8.78333e-43
4.03919e-36
-1.23469e-38
4.7047e-32
-5.62304e-34
1.51487e-30
-6.5417e-32
1.03981e-26
-2.36337e-28
1.14017e-23
-3.28727e-25
1.25649e-22
-4.30001e-24
2.96872e-22
-1.29335e-23
3.49916e-22
-1.81233e-23
2.59202e-22
-1.64956e-23
1.40727e-22
-9.07105e-24
1.63531e-23
-3.54761e-24
2.54626e-24
-1.73826e-24
2.62186e-24
-2.05851e-24
2.754e-23
-2.04176e-23
7.52284e-22
-5.54499e-22
2.00183e-20
-1.45083e-20
4.94226e-19
-3.51534e-19
1.08901e-17
-8.6975e-18
3.61454e-16
-3.70859e-16
-5.05537e-15
4.26225e-15
-1.78871e-51
1.02159e-49
6.62979e-48
-1.99924e-49
9.17084e-44
-3.31435e-46
8.61246e-40
-7.3437e-42
4.87733e-35
-7.00187e-38
6.81614e-33
-1.45082e-35
2.8835e-29
-3.99391e-31
4.41823e-26
-1.34182e-27
5.53024e-25
-2.96439e-26
1.41871e-24
-1.31262e-25
1.76479e-24
-2.63697e-25
1.6134e-24
-3.29524e-25
6.92893e-25
-3.24216e-25
2.83827e-25
-2.24524e-25
2.48329e-25
-1.18883e-25
4.00525e-25
-2.36934e-25
7.60627e-24
-5.56298e-24
2.33852e-22
-1.70647e-22
6.59304e-21
-4.75999e-21
1.70924e-19
-1.19086e-19
4.91041e-18
-3.98166e-18
2.57639e-16
-2.75845e-16
-3.84932e-15
3.05616e-15
-1.83416e-51
7.81729e-50
8.893e-51
3.09205e-50
1.60879e-47
-2.5717e-49
4.75111e-43
-8.30208e-45
5.6445e-39
-1.87605e-40
1.40136e-36
-1.98723e-38
4.5086e-32
-1.54588e-36
1.69351e-28
-7.08545e-33
3.76773e-27
-2.6015e-29
1.5321e-26
-6.84414e-28
2.76195e-26
-3.10439e-27
3.26218e-26
-5.74503e-27
3.44827e-26
-6.11624e-27
2.05501e-26
-4.44074e-27
1.52751e-26
-3.05989e-27
5.35744e-26
-3.51104e-26
1.88169e-24
-1.37225e-24
6.25889e-23
-4.57865e-23
1.85975e-21
-1.3481e-21
4.91762e-20
-3.34713e-20
1.89215e-18
-1.53001e-18
1.55568e-16
-1.69172e-16
-2.59112e-15
1.96378e-15
-1.29397e-51
3.1052e-50
-9.19709e-52
1.3126e-50
1.28764e-50
4.38651e-52
4.95377e-46
-2.83056e-49
1.39147e-41
-6.70205e-45
1.75387e-39
-2.14021e-42
1.5959e-37
-2.26919e-40
8.40315e-34
-4.78676e-37
3.40422e-30
-1.63549e-32
8.92524e-29
-2.1019e-30
3.57182e-28
-1.39605e-29
5.39319e-28
-3.09083e-29
5.94871e-28
-3.50681e-29
3.85012e-28
-2.40842e-29
3.52857e-28
-1.65235e-28
9.34466e-27
-7.81668e-27
4.09159e-25
-3.05074e-25
1.45496e-23
-1.10702e-23
4.51752e-22
-3.45412e-22
1.17287e-20
-8.33848e-21
6.00604e-19
-4.75046e-19
7.61264e-17
-8.2842e-17
-1.48217e-15
1.07181e-15
-4.71423e-52
4.71963e-64
-3.58676e-52
-6.74123e-61
-1.80336e-53
-3.13348e-55
1.55595e-50
-1.70654e-51
4.57211e-46
-1.4147e-47
1.73896e-43
-1.69516e-45
2.14889e-41
-1.40415e-43
5.19103e-38
-1.24286e-41
1.98341e-33
-4.55641e-38
2.61534e-31
-2.91673e-34
1.54747e-30
-1.28344e-32
2.73778e-30
-5.98884e-32
3.05347e-30
-7.57798e-32
2.2703e-30
-5.27766e-31
3.37167e-29
-2.68526e-29
1.90942e-27
-1.33502e-27
7.89401e-26
-6.14688e-26
3.03419e-24
-2.44814e-24
9.92458e-23
-8.42239e-23
2.50596e-21
-2.15014e-21
1.51972e-19
-1.19765e-19
2.95847e-17
-3.30504e-17
-7.41932e-16
4.99442e-16
-6.53895e-66
7.99753e-64
3.36532e-62
1.04208e-61
2.34821e-56
-2.26497e-58
8.55032e-53
-2.19819e-54
8.83437e-49
-1.87953e-49
1.26101e-46
-3.05721e-47
1.21663e-44
-3.46851e-45
1.23667e-42
-3.84043e-43
5.02804e-39
-3.08172e-41
3.51658e-35
-3.31389e-39
1.51467e-33
-5.54871e-37
5.1659e-33
-1.75801e-35
7.09409e-33
-9.24469e-34
8.71696e-32
-6.64829e-32
5.32212e-30
-3.9007e-30
2.80011e-28
-2.21014e-28
1.37196e-26
-1.14086e-26
5.74443e-25
-5.10058e-25
2.06888e-23
-2.05631e-23
5.5707e-22
-6.29989e-22
3.12052e-20
-2.81591e-20
9.35298e-18
-1.14214e-17
-3.32413e-16
2.00719e-16
-1.00805e-65
1.00823e-63
-2.37222e-63
1.34583e-61
8.02154e-60
-1.63933e-59
1.02305e-55
-1.13579e-55
1.08057e-50
-5.89765e-51
2.09901e-48
-1.07292e-48
2.77921e-46
-1.47768e-46
3.51264e-44
-1.91954e-44
3.13101e-42
-2.02628e-42
3.70376e-40
-1.84662e-40
6.59125e-38
-1.56109e-38
2.29487e-36
-1.30425e-36
1.33709e-34
-1.06427e-34
1.07005e-32
-7.55282e-33
6.66774e-31
-5.034e-31
3.99599e-29
-3.17007e-29
2.16519e-27
-1.88023e-27
1.01122e-25
-9.81519e-26
4.22807e-24
-4.54908e-24
1.35101e-22
-1.65887e-22
5.97353e-21
-7.1082e-21
2.52179e-18
-3.55768e-18
-1.34116e-16
6.93975e-17
-1.15629e-65
8.95751e-64
-2.78491e-63
1.23083e-61
5.30742e-61
-1.06521e-61
4.79944e-57
-1.52131e-57
3.08304e-52
-1.87113e-52
6.68541e-50
-3.77043e-50
1.07094e-47
-5.74376e-48
1.58354e-45
-8.21971e-46
1.87682e-43
-9.24602e-44
1.87958e-41
-1.07765e-41
1.71033e-39
-1.04832e-39
1.57482e-37
-9.97945e-38
1.39396e-35
-8.65065e-36
1.04332e-33
-7.05116e-34
7.35467e-32
-5.56278e-32
4.84076e-30
-3.9429e-30
2.97918e-28
-2.6432e-28
1.6057e-26
-1.64137e-26
7.54339e-25
-8.40012e-25
2.78419e-23
-3.5549e-23
1.18353e-21
-1.67494e-21
5.88478e-19
-1.00695e-18
-4.74718e-17
2.01167e-17
-9.37965e-66
4.22491e-64
-2.31114e-63
6.01706e-62
6.41853e-63
-1.10734e-63
5.78492e-59
-8.30588e-59
8.71697e-54
-3.81619e-54
2.08793e-51
-8.59731e-52
3.6831e-49
-1.5069e-49
5.97245e-47
-2.48826e-47
7.48211e-45
-3.25048e-45
9.62487e-43
-4.41655e-43
1.01798e-40
-4.77771e-41
1.04435e-38
-5.68496e-39
9.59897e-37
-5.34292e-37
8.29367e-35
-5.62404e-35
6.82568e-33
-4.67011e-33
5.01404e-31
-4.09698e-31
3.42687e-29
-3.00176e-29
2.15059e-27
-2.14887e-27
1.08869e-25
-1.26594e-25
4.51328e-24
-6.39464e-24
2.04642e-22
-3.40295e-22
1.1677e-19
-2.69285e-19
-1.40251e-17
4.51591e-18
-4.05617e-66
1.88062e-77
-1.02196e-63
-1.84062e-72
1.55013e-63
-1.98529e-63
2.86771e-60
-4.28714e-60
1.5673e-55
-4.78187e-56
4.18586e-53
-1.31517e-53
8.4663e-51
-2.59893e-51
1.57931e-48
-5.22431e-49
2.29125e-46
-8.10202e-47
3.40797e-44
-1.31833e-44
3.98304e-42
-1.70913e-42
5.07503e-40
-2.43293e-40
5.03524e-38
-2.73009e-38
5.55658e-36
-3.28676e-36
4.75624e-34
-3.35569e-34
4.252e-32
-3.12877e-32
3.12916e-30
-2.92287e-30
2.19741e-28
-2.23829e-28
1.24497e-26
-1.56433e-26
5.88379e-25
-9.31661e-25
2.79464e-23
-5.01476e-23
1.92447e-20
-6.24971e-20
-3.3062e-18
6.58251e-19
-1.65753e-79
2.87687e-77
5.61633e-74
-8.97146e-73
8.80118e-65
-1.08284e-65
1.28382e-61
-6.62622e-62
1.72007e-57
-3.22491e-58
5.59246e-55
-1.10576e-55
1.2716e-52
-2.95301e-53
2.87575e-50
-6.60855e-51
4.93465e-48
-1.39496e-48
8.73766e-46
-2.53368e-46
1.21867e-43
-4.39572e-44
1.83855e-41
-6.95047e-42
2.16122e-39
-9.23881e-40
2.68913e-37
-1.36102e-37
2.80011e-35
-1.6556e-35
2.60432e-33
-1.76232e-33
2.3911e-31
-1.86638e-31
1.7442e-29
-1.84446e-29
1.12201e-27
-1.5669e-27
5.80223e-26
-1.11814e-25
2.44984e-24
-6.49068e-24
2.01846e-21
-9.58096e-21
-6.26859e-19
2.66834e-20
-2.31694e-79
3.45841e-77
1.36698e-74
4.95513e-74
2.11655e-67
-6.62426e-68
1.69504e-63
-4.05139e-64
1.00485e-59
-9.09673e-61
4.06119e-57
-3.61819e-58
1.24457e-54
-1.38737e-55
3.12241e-52
-4.02141e-53
7.26417e-50
-1.14214e-50
1.42831e-47
-2.58494e-48
2.64971e-45
-6.0318e-46
4.40004e-43
-1.07051e-43
6.07581e-41
-2.0726e-41
9.1376e-39
-3.49391e-39
1.11262e-36
-4.8441e-37
1.1602e-34
-6.24529e-35
1.1684e-32
-7.8624e-33
1.06092e-30
-1.01694e-30
7.75506e-29
-1.09522e-28
4.2477e-27
-9.88191e-27
1.45861e-25
-7.38293e-25
1.75212e-23
-1.06492e-21
-9.01667e-20
-1.47226e-20
-2.52034e-79
2.91216e-77
-5.84379e-76
4.65551e-74
1.11404e-69
-8.43717e-72
8.81918e-66
-1.30274e-67
2.416e-62
-3.5996e-64
1.13066e-59
-3.09136e-61
4.96157e-57
-1.32414e-58
1.60916e-54
-6.95473e-56
5.01664e-52
-2.51285e-53
1.22558e-49
-9.44214e-51
3.03712e-47
-2.48667e-48
5.63643e-45
-8.28081e-46
1.12345e-42
-1.83031e-43
1.90743e-40
-3.63164e-41
2.60627e-38
-6.96715e-39
3.22781e-36
-1.43723e-36
3.74798e-34
-2.43307e-34
4.20282e-32
-3.55019e-32
3.52214e-30
-4.72912e-30
1.92266e-28
-5.55155e-28
1.73251e-27
-9.24126e-26
-1.83774e-22
-6.3223e-23
-8.64719e-21
-5.02338e-21
-1.896e-79
1.29422e-77
-4.65013e-76
2.35326e-74
1.19223e-73
2.16137e-76
2.35988e-69
-1.61473e-72
7.95694e-66
-8.55318e-69
8.02994e-63
-1.30675e-65
3.93124e-60