/*--------------------------------*- C++ -*----------------------------------*\
| =========                 |                                                 |
| \\      /  F ield         | OpenFOAM: The Open Source CFD Toolbox           |
|  \\    /   O peration     | Version:  5.x                                   |
|   \\  /    A nd           | Web:      www.OpenFOAM.org                      |
|    \\/     M anipulation  |                                                 |
\*---------------------------------------------------------------------------*/
FoamFile
{
    version     2.0;
    format      ascii;
    class       volScalarField;
    location    "0.3";
    object      alpha.water;
}
// * * * * * * * * * * * * * * * * * * * * * * * * * * * * * * * * * * * * * //

dimensions      [0 0 0 0 0 0 0];

internalField   nonuniform List<scalar> 
2268
(
1
1
1
1
1
1
1
1
1
1
1
1
1
1
1
1
1
1
1
1
0.893224
0.719186
0.858669
1
1
1
1
1
1
1
1
1
1
1
1
1
1
1
1
1
1
1
1
0.979041
0.916269
1
1
1
1
1
1
1
1
1
1
1
1
1
1
1
1
1
1
1
1
1
1
0.999982
0.994452
1
1
1
1
1
1
1
1
1
1
1
1
1
1
1
1
1
1
1
1
1
0.999999
0.993802
1
1
1
1
1
1
1
1
1
1
1
1
1
1
1
1
1
1
1
1
1
1
0.99823
1
1
1
1
1
1
1
1
1
1
1
1
1
1
1
1
1
1
1
1
1
1
1
1
1
1
1
1
1
1
1
1
1
1
1
1
1
1
1
1
1
1
1
1
1
1
1
1
1
1
1
1
1
1
1
1
1
1
1
1
1
1
1
1
1
1
1
1
1
0
4.25409e-18
4.60858e-12
6.75664e-13
1.04087e-14
2.15752e-16
7.91057e-18
2.81593e-19
1.07017e-20
4.77003e-22
2.38101e-23
1.17957e-24
4.73504e-26
1.6336e-27
4.79262e-29
1.11708e-30
1.87021e-32
1.87688e-34
7.09151e-37
0
1.61121e-11
4.00654e-11
2.07523e-12
1.1286e-13
6.2539e-15
2.29026e-16
7.8916e-18
3.01144e-19
1.39185e-20
7.32063e-22
4.77612e-23
2.17875e-24
7.89932e-26
2.42276e-27
5.78438e-29
9.20229e-31
6.41513e-33
4.43292e-38
0
8.92825e-10
2.89396e-10
1.21871e-11
5.17671e-13
1.13615e-13
7.71443e-15
2.73652e-16
1.16625e-17
4.87519e-19
1.1054e-20
1.20132e-21
6.17784e-23
2.0482e-24
5.58459e-26
1.12415e-27
1.19593e-29
7.72683e-32
-2.00799e-49
-6.21443e-23
1.2842e-08
1.20444e-08
2.7991e-10
6.83502e-12
7.53715e-13
1.08668e-13
7.95056e-15
3.95182e-16
1.09401e-17
1.58514e-19
1.44995e-20
1.50111e-21
5.19028e-23
1.1807e-24
1.74505e-26
2.52598e-28
2.14303e-30
-6.57885e-48
-2.34965e-12
3.07233e-07
6.70258e-09
2.09621e-10
9.2016e-11
8.32055e-12
1.11393e-12
1.39637e-13
1.10474e-14
5.76166e-16
6.43263e-18
2.1124e-19
4.57794e-20
2.02179e-21
3.34216e-23
5.58275e-25
1.14812e-26
1.018e-28
0
-1.40473e-11
0.000717345
0.000134264
6.70258e-09
3.70412e-10
4.08116e-11
5.10989e-12
7.01737e-13
7.50188e-14
3.18156e-14
7.2378e-16
1.00076e-17
2.2062e-18
9.97826e-20
1.21248e-21
2.4858e-23
6.02737e-25
6.52224e-27
9.30851e-32
-1.70296e-10
0.00304218
0.000413344
4.13333e-08
3.27563e-09
1.82541e-09
9.79888e-11
6.14592e-12
1.18039e-12
2.51645e-13
1.25545e-14
5.39808e-16
1.12473e-16
4.86487e-18
5.87247e-20
1.48271e-21
3.77441e-23
4.0503e-25
8.85541e-30
-2.05234e-08
0.00306825
3.34063e-07
1.7379e-07
1.44612e-07
4.64101e-09
5.37718e-10
2.17548e-10
3.41098e-11
4.25956e-12
4.86385e-13
2.8476e-14
5.01685e-15
1.93663e-16
3.05245e-18
8.6283e-20
2.23966e-21
2.15549e-23
5.04889e-28
1
1
1
1
1
1
1
1
1
1
1
1
1
1
1
1
1
1
1
1
1
1
0.999352
1
1
1
1
1
1
1
1
1
1
1
1
1
1
1
1
1
1
1
1
1
1
0.99904
1
1
0.999999
0.999999
0.999999
0.999999
0.999999
0.999999
0.999998
0.999998
0.999998
0.999998
0.999997
0.999995
0.999994
0.999996
0.999999
0.999877
1
1
1
1
0.999958
1
0.999996
0.999981
0.999983
0.999983
0.99999
0.999988
0.999979
0.999962
0.999937
0.999906
0.999874
0.992394
0.970273
0.933142
0.885348
0.845036
0.806732
0.829371
0.899487
1
1
0.99996
1
0.999851
0.999737
0.999753
0.999752
0.999104
0.991498
0.970268
0.927851
0.858805
0.760508
0.617173
0.463251
0.326673
0.217826
0.136817
0.0891178
0.0606945
0.0740064
0.116519
0.208366
0.381941
0.590805
0.990585
0.804678
0.717075
0.705526
0.66345
0.578705
0.463656
0.343175
0.227372
0.125756
0.0351153
2.40696e-09
3.65848e-09
1.28556e-07
9.52725e-07
2.44938e-06
3.4169e-06
4.65381e-06
6.73277e-06
3.96007e-05
0.000116935
0.00032739
0.0182978
0.435682
0.118801
0.0474975
0.040866
0.0188931
1.08637e-13
1.4072e-12
5.81177e-12
1.29116e-11
2.01625e-11
8.85434e-10
1.73091e-09
2.91315e-09
3.65848e-09
1.28556e-07
9.52725e-07
4.1378e-06
9.64499e-06
9.28429e-06
1.77283e-05
2.83816e-05
4.08875e-05
5.99941e-05
-2.35408e-20
-4.04567e-60
6.963e-22
4.00913e-19
3.02164e-17
2.97955e-15
1.08637e-13
1.4072e-12
8.34885e-12
1.62572e-11
2.01625e-11
2.74973e-09
3.23327e-09
3.93301e-09
8.28527e-07
5.01746e-05
0.000148921
0.000141959
3.19436e-05
2.5864e-05
3.15219e-05
3.23868e-05
3.74881e-05
-2.38179e-19
1.23138e-20
1.35761e-17
9.14179e-16
6.61618e-14
2.6839e-12
4.53062e-11
1.43315e-10
6.03678e-11
2.49866e-11
1.86756e-08
6.61412e-09
3.93095e-09
1.74969e-05
0.00043679
0.000871776
0.000506721
4.01762e-05
3.087e-05
3.11812e-05
3.19354e-05
3.29636e-05
3.3415e-05
-2.99138e-19
2.68619e-19
1.40076e-16
1.35668e-14
1.52253e-12
4.56281e-11
2.45984e-10
3.22474e-10
9.85746e-11
2.99967e-11
6.87052e-07
4.52069e-08
1.20904e-08
0.000754546
0.00106244
0.00106358
0.000102182
3.29105e-05
3.28076e-05
3.19354e-05
0.000216983
0.00107593
0.00211173
-2.73569e-19
8.0297e-19
2.33054e-16
2.88623e-14
4.53425e-12
1.092e-10
3.37867e-10
3.37987e-10
9.39306e-11
8.46284e-11
9.22335e-07
6.4204e-08
4.89052e-08
0.00101096
0.00106397
0.00105987
0.000579938
0.000344216
0.000759269
0.00154176
0.00155838
0.00155569
0.00100012
-1.85788e-19
1.02324e-18
2.47587e-16
3.35802e-14
6.34447e-12
1.35459e-10
3.37131e-10
3.07079e-10
8.86403e-11
9.11706e-11
9.24267e-07
7.1068e-08
2.99842e-05
8.75455e-05
0.00075489
0.000969233
0.00124653
0.00126337
0.00127938
0.00128455
0.000554991
1.79595e-05
-8.63413e-11
-9.97864e-20
9.62482e-19
1.91854e-16
3.3309e-14
6.81569e-12
1.10406e-10
3.19542e-10
1.83489e-10
8.18091e-11
8.29058e-11
3.01118e-07
8.87477e-08
3.39369e-07
2.44764e-12
1.08264e-12
2.33613e-06
0.000231709
0.000312254
4.61511e-05
1.39279e-12
2.3691e-12
3.97056e-12
8.77051e-12
-4.36766e-20
4.43212e-19
7.78278e-17
2.0561e-14
5.47907e-12
5.84907e-11
1.54829e-10
8.80216e-11
8.22929e-11
2.3936e-09
2.66325e-11
1.29236e-09
2.44764e-12
1.08264e-12
7.3916e-13
7.34671e-13
7.34671e-13
7.21921e-13
7.55356e-13
9.30089e-13
1.46507e-12
3.02703e-12
9.07426e-12
-1.7776e-20
1.04508e-19
2.17123e-17
6.76631e-15
2.20717e-12
2.04622e-11
4.1177e-11
2.91786e-11
6.62942e-11
5.64434e-11
2.4922e-11
2.32564e-11
2.28363e-11
2.29755e-11
1.03761e-11
1.05674e-12
7.22361e-13
2.06241e-12
7.78221e-12
2.02757e-11
3.88272e-11
5.90925e-11
1.05661e-10
-1.01103e-20
1.08676e-20
8.29829e-18
1.4132e-15
5.22268e-13
4.72566e-12
8.66653e-12
8.27186e-12
3.19513e-11
6.74357e-11
7.00018e-11
6.20964e-11
5.18382e-11
3.84005e-11
1.70343e-11
2.05428e-12
1.13387e-12
2.92682e-12
7.4947e-12
1.29999e-11
2.37928e-11
4.01777e-11
9.19335e-11
-9.31918e-21
-5.33595e-21
5.92032e-18
2.07684e-16
8.28152e-14
7.51222e-13
1.42885e-12
2.05553e-12
7.87199e-12
3.69408e-11
5.80937e-11
4.41946e-11
2.82287e-11
2.0197e-11
1.0487e-11
1.71731e-12
1.86366e-13
3.22899e-13
9.57415e-13
3.05032e-12
8.86493e-12
1.94536e-11
6.14536e-11
-9.12279e-21
-1.2973e-20
4.32456e-18
2.68994e-17
8.7488e-15
8.152e-14
1.88063e-13
4.56977e-13
1.87367e-12
6.25503e-12
1.56266e-11
8.0208e-12
3.4918e-12
2.53591e-12
1.43735e-12
2.64902e-13
1.84796e-14
4.76118e-14
2.41075e-13
1.12597e-12
4.25908e-12
1.13715e-11
4.43026e-11
-7.55543e-21
-1.81942e-20
1.59063e-18
4.73471e-18
5.74917e-16
5.72485e-15
2.58517e-14
1.08847e-13
4.04565e-13
9.06774e-13
1.37428e-12
9.25355e-13
3.45183e-13
1.44723e-13
7.32888e-14
1.45841e-14
2.3876e-15
8.24204e-15
6.43659e-14
4.33526e-13
2.13074e-12
6.98116e-12
3.70093e-11
-4.95528e-21
-1.86442e-20
1.87899e-19
8.51854e-19
1.76773e-17
3.44537e-16
5.32676e-15
2.81618e-14
8.90825e-14
1.74857e-13
2.07767e-13
1.46457e-13
4.97134e-14
1.09302e-14
6.19907e-15
1.88533e-15
4.29391e-16
1.71027e-15
1.89045e-14
1.76006e-13
1.09353e-12
4.53014e-12
3.48719e-11
-2.42683e-21
-1.32771e-20
-9.6971e-22
6.58862e-20
5.09116e-20
4.63402e-17
1.07421e-15
6.46451e-15
2.29359e-14
4.47166e-14
5.67965e-14
3.86905e-14
1.3326e-14
2.76234e-15
1.43382e-15
4.2546e-16
7.87113e-17
4.02012e-16
5.94712e-15
7.40661e-14
5.75415e-13
3.2213e-12
3.39028e-11
-8.08022e-22
-5.75915e-21
-1.00206e-20
-9.9904e-22
8.61582e-22
5.39951e-18
1.04936e-16
1.09298e-15
5.36256e-15
1.15908e-14
1.54366e-14
1.0158e-14
3.54859e-15
4.9466e-16
7.30018e-17
8.20778e-18
1.0877e-17
1.09501e-16
2.02884e-15
3.20306e-14
3.11734e-13
2.51472e-12
3.11548e-11
-1.56992e-22
-1.13085e-21
-2.29582e-21
-2.09885e-22
-1.18208e-23
1.08222e-21
3.68324e-18
1.27168e-16
8.00551e-16
1.94937e-15
2.6249e-15
1.72161e-15
6.97192e-16
1.17235e-16
4.93057e-18
6.46406e-19
2.19305e-18
3.61165e-17
7.53882e-16
1.41037e-14
1.73284e-13
2.11685e-12
2.91028e-11
-1.52019e-23
-1.08527e-22
-2.18922e-22
-1.82753e-23
-9.62825e-25
4.69181e-23
2.15206e-19
9.26015e-18
6.33575e-17
1.5937e-16
1.92687e-16
1.3089e-16
7.01913e-17
1.60731e-17
1.01333e-18
2.02393e-19
7.07488e-19
1.30185e-17
2.9466e-16
6.18288e-15
9.64884e-14
1.85099e-12
2.63891e-11
-3.54116e-46
-1.90175e-68
2.34886e-56
1.41096e-31
1.33586e-27
3.43378e-26
1.97064e-22
1.96367e-19
2.26264e-18
6.54039e-18
8.15544e-18
6.44897e-18
4.02707e-18
9.57133e-19
7.69874e-20
3.71531e-20
2.02672e-19
4.69733e-18
1.14029e-16
2.57885e-15
5.14906e-14
1.58572e-12
2.14861e-11
-4.94566e-46
4.87382e-43
4.51265e-39
3.04896e-35
1.38278e-30
1.60341e-28
5.75556e-25
7.96645e-22
1.03763e-20
3.10905e-20
4.33257e-20
3.91143e-20
2.14403e-20
8.35775e-21
4.11071e-21
5.15298e-21
5.68003e-20
1.55935e-18
4.03955e-17
9.59705e-16
2.49926e-14
1.23787e-12
1.63206e-11
-5.36984e-46
4.02269e-46
8.06291e-43
1.78238e-38
1.69294e-34
3.48652e-32
9.53594e-28
3.18456e-24
6.9986e-23
3.08998e-22
6.19213e-22
7.698e-22
7.53585e-22
5.2259e-22
2.71851e-22
5.8111e-22
1.47895e-20
4.52209e-19
1.24341e-17
3.01918e-16
1.05648e-14
8.30851e-13
1.15339e-11
-4.03655e-46
-1.53333e-46
6.13997e-46
1.98137e-41
4.46104e-37
4.69665e-35
3.62692e-33
1.64939e-29
6.00834e-26
1.57276e-24
7.10466e-24
1.30665e-23
1.37167e-23
9.81381e-24
6.83655e-24
8.84512e-23
3.49617e-21
1.15674e-19
3.35154e-18
8.02765e-17
3.75587e-15
4.59958e-13
7.14466e-12
-1.5773e-46
-6.42022e-47
-2.15891e-48
6.67216e-46
1.5692e-41
4.97975e-39
5.24425e-37
1.09712e-33
3.71593e-29
4.73712e-27
3.1219e-26
6.85137e-26
7.66232e-26
5.2338e-26
3.89706e-25
1.941e-23
7.49158e-22
2.69561e-20
8.3151e-19
1.95628e-17
1.09017e-15
2.06569e-13
3.80705e-12
-2.36151e-60
3.24785e-57
1.51592e-51
3.96905e-48
3.29124e-44
3.93002e-42
3.24592e-40
2.85992e-38
1.02069e-34
6.46475e-31
2.81599e-29
1.30301e-28
1.63605e-28
1.20569e-27
6.46709e-26
3.17865e-24
1.46438e-22
5.79667e-21
1.99084e-19
5.07763e-18
2.64398e-16
7.76474e-14
1.81249e-12
-3.94695e-60
-4.9753e-58
5.4193e-55
5.18352e-51
4.38803e-46
7.13045e-44
8.09741e-42
8.96054e-40
7.08481e-38
7.49394e-36
1.22027e-33
3.92339e-32
2.09478e-30
1.55954e-28
9.10496e-27
5.13988e-25
2.64311e-23
1.17972e-21
4.75806e-20
1.47011e-18
6.1918e-17
2.58624e-14
7.81032e-13
-4.9139e-60
-6.35832e-58
3.88035e-56
2.6604e-52
1.37407e-47
2.4954e-45
3.43391e-43
4.45197e-41
4.70423e-39
4.25123e-37
3.52189e-35
2.98678e-33
2.45718e-31
1.72117e-29
1.14485e-27
7.16479e-26
4.23085e-24
2.21059e-22
1.01786e-20
3.71547e-19
1.55526e-17
7.86014e-15
3.04225e-13
-4.31619e-60
-5.75985e-58
2.41853e-58
3.53891e-54
4.2884e-49
8.62103e-47
1.3096e-44
1.86753e-42
2.09038e-40
2.4356e-38
2.36007e-36
2.24093e-34
1.92366e-32
1.56812e-30
1.22863e-28
8.68875e-27
5.77569e-25
3.57716e-23
1.81635e-21
7.67636e-20
3.58105e-18
2.19391e-15
1.0375e-13
-2.01468e-60
-2.79175e-58
4.82598e-60
1.95046e-55
8.57907e-51
1.92785e-48
3.36703e-46
5.54101e-44
7.20979e-42
9.75504e-40
1.04955e-37
1.24547e-35
1.16288e-33
1.2215e-31
1.007e-29
8.78126e-28
6.40742e-26
4.54145e-24
2.66413e-22
1.34354e-20
7.0273e-19
5.77527e-16
2.95297e-14
-8.8826e-74
8.54104e-69
9.15698e-60
9.77378e-57
1.05873e-52
2.90371e-50
5.71765e-48
1.14403e-45
1.7675e-43
2.85933e-41
3.69252e-39
5.22178e-37
5.8264e-35
6.96989e-33
7.08589e-31
6.53546e-29
6.08271e-27
4.62765e-25
3.22541e-23
1.91565e-21
1.01142e-19
1.28815e-16
6.76183e-15
-1.34694e-73
2.22563e-69
2.38436e-62
1.46451e-58
7.05393e-55
2.40923e-52
6.41046e-50
1.42659e-47
2.99789e-45
5.40766e-43
9.3378e-41
1.46373e-38
1.93502e-36
2.82941e-34
3.41367e-32
3.6039e-30
3.78217e-28
3.73344e-26
3.16442e-24
2.25603e-22
1.30784e-20
1.89228e-17
1.25019e-15
-1.60628e-73
-2.25371e-70
1.44761e-64
8.82898e-61
1.97124e-57
7.80612e-55
2.97819e-52
8.5842e-50
2.42263e-47
5.44611e-45
1.26142e-42
2.222e-40
4.27211e-38
7.13304e-36
9.80213e-34
1.2565e-31
1.57128e-29
2.01895e-27
2.16529e-25
1.95235e-23
1.48291e-21
1.9048e-18
1.748e-16
-1.34278e-73
-2.10762e-70
1.82844e-68
2.81552e-64
7.75005e-61
6.6258e-58
2.82225e-55
1.47329e-52
5.28542e-50
1.9714e-47
5.14693e-45
1.70064e-42
3.72328e-40
7.3151e-38
1.39094e-35
2.8493e-33
4.78896e-31
6.92565e-29
9.16775e-27
1.07694e-24
1.04773e-22
9.43229e-20
1.60345e-17
-5.92897e-74
-1.06154e-70
-9.76417e-73
3.4749e-69
1.8337e-65
2.7885e-62
2.36957e-59
1.75194e-56
8.76696e-54
5.61232e-51
2.31658e-48
8.88416e-46
4.44353e-43
1.45027e-40
4.48924e-38
1.23698e-35
3.1459e-33
7.10962e-31
1.38434e-28
3.05859e-26
3.68834e-24
2.41073e-21
7.02387e-19
4.0309e-94
0
7.76661e-89
4.8409e-76
4.37519e-72
1.2107e-68
1.97657e-65
2.48256e-62
1.99476e-59
2.12479e-56
1.47527e-53
1.45741e-50
8.14238e-48
4.70031e-45
2.56054e-42
1.31457e-39
6.24924e-37
2.55764e-34
9.3608e-32
3.66163e-29
5.53786e-27
6.44863e-23
9.27953e-21
4.33059e-103
1.51414e-100
-5.0819e-96
6.21112e-90
1.5121e-86
6.17933e-100
4.60751e-78
2.63925e-74
5.64501e-71
1.61799e-67
3.0144e-64
7.53079e-61
1.21113e-57
1.90385e-54
2.8061e-51
3.87746e-48
7.39799e-45
7.72257e-42
7.70323e-39
3.71177e-36
3.9011e-30
3.94302e-25
2.17759e-23
0
-2.84618e-121
-3.96692e-124
-3.80887e-127
6.12245e-105
5.43082e-100
2.274e-93
6.4113e-96
0
1.07525e-82
-8.29379e-102
0
-4.90445e-109
2.16421e-69
7.10958e-67
2.78244e-64
1.37298e-61
2.85419e-57
0
7.9721e-53
1.65471e-40
3.63534e-35
2.87478e-33
0.999608
0.999996
1
0.17041
0.999057
0.999615
0.999999
0.950044
0.999508
0.999359
0.999223
0.999452
0.999904
0.999873
0.999768
0.999565
0.762092
0.929413
0.999652
0.999461
0.0512811
0.0978352
0.162622
0.244808
0.000127056
0.000228297
0.000349404
0.000542897
9.81455e-05
0.000176102
0.000275255
0.000426541
0.000163278
0.00251149
0.00294076
0.00295331
0.00228566
0.00247117
0.00133876
0.000115214
0.000151583
3.66291e-06
7.01919e-09
1.44511e-09
-8.66918e-10
1.89409e-11
1.00961e-10
2.19259e-10
2.20738e-11
5.1992e-11
7.34382e-11
2.56666e-10
2.93898e-11
7.64999e-11
2.32724e-10
5.1231e-10
1.73985e-10
3.13242e-10
5.62849e-10
5.86273e-10
1.64171e-10
2.2583e-10
3.28571e-10
4.278e-10
1.29858e-10
1.82607e-10
2.46424e-10
2.32933e-10
9.53137e-11
1.35014e-10
1.79336e-10
1.57296e-10
8.29568e-11
1.22034e-10
1.36536e-10
1.27237e-10
7.88913e-11
1.11166e-10
1.00164e-10
1.01981e-10
7.47528e-11
8.85692e-11
8.8145e-11
1.10631e-10
6.53446e-11
7.06377e-11
1.09416e-10
1.06675e-10
5.5262e-11
6.22329e-11
3.14396e-10
1.41376e-10
4.67698e-11
6.46371e-11
3.61578e-10
2.07757e-10
4.11831e-11
7.02894e-11
2.46691e-10
4.50988e-10
3.60403e-11
8.09955e-11
1.95434e-10
1.12531e-09
2.78486e-11
8.14334e-11
3.19862e-10
3.79318e-10
1.81752e-11
6.6181e-11
2.89124e-10
6.57382e-10
1.12021e-11
5.65357e-11
2.4603e-10
4.99186e-10
6.23792e-12
4.03294e-11
1.92576e-10
5.05653e-10
3.0991e-12
2.71071e-11
1.38832e-10
2.86221e-10
1.33229e-12
1.53511e-11
8.37787e-11
1.84293e-10
4.55818e-13
7.16476e-12
4.41608e-11
9.7871e-11
1.1325e-13
2.60264e-12
1.92764e-11
4.49179e-11
2.09445e-14
7.13e-13
6.83765e-12
1.85823e-11
3.57567e-15
1.46625e-13
1.92926e-12
7.61122e-12
5.82156e-16
2.01412e-14
3.87484e-13
3.21788e-12
8.51544e-17
3.78689e-15
7.05405e-14
5.45326e-13
5.20401e-18
2.62346e-16
5.73946e-15
5.44059e-14
2.95863e-20
2.33128e-18
5.71905e-17
6.7858e-16
1.88709e-25
2.47903e-23
2.8044e-21
2.25667e-19
0
0
-7.96374e-40
0
0.156752
0.000822756
4.75112e-06
1.95059e-07
9.84742e-08
2.71393e-08
1.6067e-08
1.07068e-08
2.05396e-09
1.7454e-10
1.28647e-11
1.10056e-12
7.94099e-14
8.78664e-15
3.14819e-16
4.57202e-18
1.0946e-19
1.74934e-21
8.26271e-26
0.927372
0.282225
0.0803804
8.27366e-06
1.02797e-05
1.45093e-06
3.70845e-07
3.06922e-07
3.16855e-08
1.75472e-09
2.78425e-11
1.48324e-11
1.63412e-12
9.30032e-14
4.91344e-15
1.40071e-16
3.21905e-18
7.24243e-20
2.03121e-24
0.999247
0.969931
0.923381
0.378369
0.0551167
0.00315191
3.00477e-05
1.15715e-05
5.08084e-07
1.41385e-07
8.03006e-09
3.34652e-10
3.48205e-11
2.64324e-12
1.81044e-13
9.08015e-15
3.39761e-16
8.36737e-18
-1.19371e-22
0.99934
0.999247
0.998632
0.986038
0.949774
0.496374
0.0703911
0.000577041
2.17242e-05
1.38358e-06
3.26854e-07
1.67434e-08
1.07186e-09
5.74936e-11
2.31174e-12
1.07209e-13
1.24835e-14
2.23525e-16
-1.52662e-20
0.999247
0.998993
0.998699
0.998161
0.997626
0.996361
0.901343
0.337124
0.0131624
4.97373e-05
3.14229e-06
4.86151e-07
2.65754e-08
1.73183e-09
8.44053e-11
2.68439e-12
3.3119e-14
2.26667e-16
-1.04212e-18
0.375946
0.645904
0.967696
0.997678
0.996605
0.995701
0.99443
0.968901
0.512855
0.0338502
8.27478e-05
7.36338e-06
6.73892e-07
3.93746e-08
1.93739e-09
8.02216e-11
1.37651e-12
1.49164e-14
-1.22347e-16
0.00165602
0.0267902
0.107234
0.205034
0.466708
0.912159
0.992552
0.983879
0.974105
0.559727
0.0399052
0.0001249
1.02766e-05
9.28477e-07
5.23108e-08
2.30004e-09
6.76215e-11
1.0875e-12
-1.37359e-14
0.00184001
0.000941833
0.000107399
4.16194e-05
0.00383915
0.0318601
0.25873
0.86707
0.961039
0.92349
0.479385
0.0211765
0.000170388
1.5725e-05
1.45522e-06
9.58375e-08
5.46177e-09
1.82457e-10
-7.21593e-13
0.0029435
0.00140017
7.33283e-06
1.71694e-06
2.75332e-06
4.8701e-06
1.87903e-05
0.110844
0.730751
0.912281
0.817006
0.291408
0.00280819
0.000237505
3.18808e-05
2.76937e-06
1.65624e-07
3.33079e-09
-1.21436e-11
7.46361e-05
5.74043e-05
5.1451e-06
3.05201e-08
7.40491e-08
2.02717e-07
5.42474e-07
7.67791e-06
0.171213
0.78378
0.811265
0.603837
0.0841963
0.000863527
0.000137459
1.39319e-05
8.5386e-07
2.08965e-08
-6.62562e-11
4.50967e-10
3.78683e-10
1.44631e-09
7.08769e-10
4.92239e-09
2.08199e-08
6.33469e-08
2.47297e-07
7.67794e-06
0.415101
0.799799
0.720145
0.227311
0.0021505
0.000283947
4.10734e-05
2.75903e-06
7.72577e-08
-1.61268e-10
3.26143e-10
3.6271e-10
4.90717e-10
4.96095e-10
2.6037e-09
1.33242e-08
2.93818e-08
6.33473e-08
2.4717e-07
0.0986001
0.666729
0.703744
0.400685
0.0224568
0.000479328
7.49486e-05
5.35283e-06
8.80088e-08
-7.46531e-18
3.57447e-10
3.58039e-10
3.6271e-10
4.45836e-08
2.82979e-07
2.20627e-07
1.91586e-07
1.95028e-07
2.24334e-07
4.64746e-07
0.454922
0.682043
0.497461
0.0635191
0.000780219
0.000112175
8.68736e-06
2.46127e-07
-2.20725e-16
4.08223e-10
3.59565e-10
3.59565e-10
1.70595e-06
8.58479e-06
6.19302e-06
7.63525e-07
2.40272e-07
3.34998e-07
4.00243e-07
0.276198
0.657825
0.512292
0.101285
0.000999582
0.000138348
1.07368e-05
3.62911e-07
-5.61446e-16
3.69276e-10
3.59565e-10
3.64239e-10
3.83108e-06
9.79551e-06
9.79551e-06
9.79551e-06
1.88025e-06
3.93585e-07
5.79906e-07
0.170259
0.604657
0.491485
0.104246
0.000971859
0.000126587
1.03672e-05
3.56794e-07
-1.40042e-23
3.16509e-10
6.6966e-10
3.76622e-10
6.32536e-10
3.58452e-06
9.79551e-06
9.69e-06
4.97146e-06
6.94621e-07
1.20166e-06
0.117943
0.550512
0.453975
0.0919861
0.000767458
6.1392e-05
7.02983e-06
2.57969e-07
-2.78786e-24
1.73609e-10
2.41305e-09
5.92594e-09
1.14572e-09
6.46247e-09
2.50471e-06
5.33204e-06
2.7654e-06
1.2829e-06
1.64358e-06
0.127214
0.517245
0.381734
0.0569393
0.000484489
4.43477e-05
1.29626e-05
1.07079e-06
2.99342e-08
1.5752e-10
2.92619e-10
4.97862e-08
4.26644e-08
1.2432e-07
6.43247e-07
1.53813e-06
1.58705e-06
1.59428e-06
1.61342e-06
0.144708
0.487742
0.272505
0.0164329
0.000302587
8.66996e-05
2.8385e-05
2.15205e-06
6.4456e-08
2.72485e-10
3.84272e-10
9.79669e-09
9.58367e-07
2.78107e-06
2.18145e-06
1.5335e-06
1.56144e-06
1.60723e-06
1.61578e-06
0.169573
0.4366
0.153898
0.0012287
0.000264082
0.000188641
3.33451e-05
2.3519e-06
9.02627e-08
6.17492e-09
4.78812e-10
9.45975e-10
1.77847e-06
3.39861e-06
3.39861e-06
1.85575e-06
1.60724e-06
1.61578e-06
0.0173443
0.26613
0.31483
0.0726896
0.000627675
0.000212627
0.000198348
2.90222e-05
2.07558e-06
8.47197e-08
1.12497e-08
1.00364e-09
9.03991e-08
1.0116e-07
1.46938e-06
3.33559e-06
2.0918e-06
1.65419e-06
1.64779e-06
0.196956
0.297502
0.244132
0.0295709
0.000408883
0.000215681
0.000131382
1.96793e-05
1.48067e-06
6.63316e-08
5.36588e-09
2.62786e-08
2.71137e-08
1.6914e-06
1.23232e-06
1.23238e-06
1.28536e-06
2.00236e-06
0.10157
0.29662
0.29662
0.163399
0.00634609
0.000378467
0.000324372
7.70789e-05
1.11754e-05
8.86954e-07
3.97045e-08
3.06618e-10
5.81447e-08
5.83483e-08
4.63998e-06
1.72552e-06
1.29174e-06
0.00120428
0.10269
0.263059
0.285892
0.233096
0.0483497
0.00119107
0.00047531
0.000279651
4.32306e-05
5.60434e-06
4.73135e-07
2.15832e-08
2.70105e-10
5.82793e-08
1.64258e-08
4.62989e-06
3.10429e-06
1.45145e-06
0.032041
0.226368
0.256361
0.221593
0.0632425
0.00409799
0.00221292
0.000629518
0.000150921
2.03029e-05
2.5586e-06
2.30701e-07
1.09363e-08
9.71437e-09
8.40716e-09
1.03927e-08
2.44464e-06
2.56709e-06
1.89611e-06
0.0638508
0.222437
0.180126
0.0537208
0.00346254
0.00162343
0.00182103
0.000537697
5.47481e-05
8.6761e-06
1.13555e-06
1.07252e-07
5.35351e-09
1.22526e-08
7.53241e-09
3.12177e-08
3.5484e-08
2.64867e-06
2.61411e-06
0.0757092
0.179456
0.0407228
0.00193327
0.000888202
0.000671476
0.000423116
0.000260584
2.0911e-05
3.57262e-06
5.18833e-07
5.04053e-08
2.6466e-09
8.49108e-09
6.11963e-09
9.14433e-08
6.10067e-08
3.9434e-05
3.33902e-06
0.0785157
0.149024
0.0117337
0.000729168
0.000348997
0.000211436
4.87305e-05
2.89548e-05
1.32059e-05
1.55364e-06
2.45376e-07
2.46097e-08
1.3522e-09
5.48552e-09
5.55997e-09
2.81139e-08
1.77929e-06
4.03537e-05
6.28754e-06
0.0696715
0.144154
0.0336198
0.000540539
0.000158563
7.0598e-05
2.22251e-05
5.62949e-06
6.73553e-06
8.8785e-07
1.21403e-07
1.25345e-08
7.11885e-10
5.66424e-09
5.73242e-09
1.31197e-07
1.36319e-07
3.4209e-05
1.22415e-05
0.0274406
0.126137
0.122542
0.0048042
3.82363e-05
2.43492e-05
8.3786e-06
2.426e-06
1.61266e-06
6.11104e-07
6.41589e-08
6.50283e-09
3.77217e-10
2.28406e-09
8.07629e-09
6.44809e-08
1.50137e-06
1.54129e-06
4.58632e-05
3.55083e-05
0.106803
0.122969
0.0137565
1.76832e-05
5.10218e-06
2.07978e-06
8.12559e-07
2.04176e-07
2.50789e-07
3.45247e-08
3.24955e-09
1.94806e-10
1.74972e-09
5.76491e-09
7.00562e-08
1.63919e-06
1.32391e-05
0.000175176
3.48072e-05
0.10945
0.122883
0.113966
0.00431027
5.3873e-06
7.21076e-07
3.01761e-07
6.68957e-08
1.50923e-08
1.67216e-08
1.68518e-09
9.97513e-11
1.39637e-09
4.68842e-09
2.88879e-08
1.58106e-06
1.12645e-05
8.04294e-05
3.7976e-05
0.0766559
0.12353
0.124465
0.00984927
2.27519e-05
1.0854e-06
1.42553e-07
2.90659e-08
6.59953e-09
5.92606e-09
9.28066e-10
5.24251e-11
7.88142e-10
3.54465e-09
9.17774e-09
4.81289e-07
8.13111e-06
3.21484e-05
0.000102171
0.00413789
0.124465
0.124754
0.114608
0.00689216
1.40674e-05
3.8658e-07
1.29314e-08
3.74851e-09
2.30646e-09
5.26194e-10
2.71446e-11
3.82399e-10
1.40331e-09
2.05618e-08
2.24956e-07
4.12274e-07
5.65273e-05
0.00129474
0.00131214
0.122965
0.124754
0.124754
0.0364523
3.77238e-05
8.29225e-07
1.45611e-08
5.67273e-09
1.63087e-09
2.96242e-10
1.33208e-11
1.99354e-10
8.72836e-10
1.15566e-08
1.7278e-07
1.5582e-06
2.03683e-06
0.00049674
0.0042536
0.0711224
0.124754
0.123928
0.0451178
3.96599e-05
1.634e-05
6.01075e-07
1.137e-08
1.27941e-09
1.55256e-10
6.33132e-12
1.09421e-10
4.39899e-10
5.3077e-09
8.4106e-08
1.31781e-06
5.40251e-06
9.12074e-05
0.00333289
0.0106362
0.10968
0.0840885
0.0244655
0.000545774
9.68407e-06
3.85416e-07
4.56881e-09
6.40535e-10
7.5139e-11
2.96267e-12
4.75855e-11
1.58743e-10
2.5866e-09
4.09105e-08
4.79554e-07
4.54868e-06
2.00816e-05
0.00212842
0.0061367
0.0152663
0.00602674
0.00171112
0.000311782
2.4187e-06
1.09586e-09
1.26762e-10
1.45294e-10
3.56928e-11
1.34961e-12
1.16034e-11
6.53346e-11
1.19346e-09
1.90395e-08
2.36449e-07
2.12636e-06
3.2275e-05
0.001195
0.00203249
0.00052687
0.000478549
5.06166e-05
1.30869e-06
2.37328e-08
9.15833e-11
4.50699e-11
3.34008e-11
1.7087e-11
5.91839e-13
1.38142e-12
1.12982e-11
2.36592e-10
3.84328e-09
4.74878e-08
3.60525e-07
2.61004e-05
0.000278041
0.000364266
0.000165901
0.000148766
1.31182e-05
3.44387e-07
6.24998e-09
9.2299e-11
1.91685e-11
1.38474e-11
8.06105e-12
2.49668e-13
3.50009e-14
8.34151e-13
2.19918e-11
4.18887e-10
5.36718e-09
3.81706e-08
4.98227e-06
5.10138e-05
6.02151e-05
4.60424e-05
3.96799e-05
4.77782e-06
8.46881e-08
1.57353e-09
2.85718e-11
9.25628e-12
8.12434e-12
3.66519e-12
1.01357e-13
1.7747e-17
2.11844e-15
1.56976e-13
7.02787e-12
1.46772e-10
1.19012e-09
2.40425e-07
3.29231e-06
9.50582e-06
1.5266e-05
1.1188e-05
1.2927e-06
1.99619e-08
3.81489e-10
1.01657e-11
5.6432e-12
6.29305e-12
1.69957e-12
4.19136e-14
-5.93435e-34
-2.76255e-30
-9.31326e-28
-2.29897e-25
-7.78034e-23
-7.25163e-21
7.22329e-09
4.63534e-08
1.01508e-06
4.02615e-06
3.37313e-06
3.33493e-07
8.4035e-09
2.39019e-10
1.04672e-11
3.05344e-12
2.81612e-12
4.91202e-13
1.04579e-14
)
;

boundaryField
{
    leftWall
    {
        type            zeroGradient;
    }
    rightWall
    {
        type            zeroGradient;
    }
    lowerWall
    {
        type            zeroGradient;
    }
    atmosphere
    {
        type            inletOutlet;
        inletValue      uniform 0;
        value           nonuniform List<scalar> 
46
(
0
0
0
0
0
0
0
0
0
0
0
0
0
0
0
0
0
0
0
0
0
0
0
0
0
0
0
0
0
0
0
0
0
7.22329e-09
4.63534e-08
1.01508e-06
4.02615e-06
3.37313e-06
3.33493e-07
8.4035e-09
2.39019e-10
1.04672e-11
3.05344e-12
2.81612e-12
4.91202e-13
1.04579e-14
)
;
    }
    defaultFaces
    {
        type            empty;
    }
}


// ************************************************************************* //
