/*--------------------------------*- C++ -*----------------------------------*\
| =========                 |                                                 |
| \\      /  F ield         | OpenFOAM: The Open Source CFD Toolbox           |
|  \\    /   O peration     | Version:  5.x                                   |
|   \\  /    A nd           | Web:      www.OpenFOAM.org                      |
|    \\/     M anipulation  |                                                 |
\*---------------------------------------------------------------------------*/
FoamFile
{
    version     2.0;
    format      ascii;
    class       volScalarField;
    location    "0.3";
    object      p;
}
// * * * * * * * * * * * * * * * * * * * * * * * * * * * * * * * * * * * * * //

dimensions      [1 -1 -2 0 0 0 0];

internalField   nonuniform List<scalar> 
2268
(
1301.42
1306.71
1312.32
1312.7
1306.45
1295.76
1283.56
1271.52
1260.32
1250.46
1242.49
1237.15
1235.47
1238.8
1249.3
1268.33
1297.32
1335.25
1376.28
1406.02
1413.48
1369.29
1437.87
1241.62
1246.82
1252.42
1252.75
1246.46
1235.81
1223.69
1211.7
1200.52
1190.62
1182.56
1177.1
1175.23
1178.17
1186.95
1203.35
1229.34
1265.39
1308.32
1342.96
1352.69
1292.36
1366.66
1180.88
1185.98
1191.5
1191.71
1185.35
1174.79
1162.83
1150.94
1139.78
1129.79
1121.56
1115.84
1113.61
1116.03
1124.34
1140.01
1163.56
1194.72
1231.07
1264.24
1281.13
1258.73
1316.99
1119.29
1124.22
1129.61
1129.62
1123.17
1112.75
1101
1089.25
1078.09
1067.97
1059.47
1053.37
1050.64
1052.39
1059.83
1074.07
1095.5
1123.34
1154.68
1184.25
1208.36
1217.37
1289.31
1056.92
1061.66
1066.83
1066.56
1059.99
1049.74
1038.24
1026.65
1015.47
1005.15
996.281
989.669
986.275
987.191
993.527
1006.22
1025.52
1050.68
1079.12
1106.55
1134.64
1162.22
1243.32
993.76
998.504
1003.27
1002.62
995.921
985.852
974.613
963.154
951.896
941.279
931.934
924.673
920.468
920.376
925.434
936.463
953.639
976.267
1002.32
1028
1055.63
1087.74
1162.97
930.118
934.647
938.93
937.802
930.987
921.141
910.166
898.798
887.387
876.378
866.429
858.379
853.203
851.93
855.528
864.696
879.724
899.809
923.205
946.35
969.254
993.385
1034.56
866.076
870.267
873.832
872.106
865.205
855.646
844.957
833.648
822.009
810.505
799.829
790.846
784.537
781.9
783.857
791.097
803.799
821.264
841.561
860.967
875.148
884.097
849.024
40.4338
40.4027
40.3722
40.3628
40.359
40.3559
40.3496
40.3365
40.3159
40.2903
40.2619
40.232
40.2025
40.1745
40.1496
40.1287
40.1126
40.1017
40.0963
40.3737
40.3373
40.3105
40.3034
40.2999
40.2976
40.292
40.2788
40.2578
40.2317
40.2027
40.1727
40.1429
40.1147
40.0895
40.0685
40.0523
40.0414
40.036
40.313
40.262
40.2479
40.244
40.2396
40.2398
40.2358
40.2223
40.2005
40.1737
40.1443
40.1136
40.0831
40.0543
40.0283
40.0066
39.9899
39.9786
39.9731
40.2564
40.1688
40.1818
40.1845
40.1776
40.1829
40.1811
40.1669
40.1439
40.1161
40.0858
40.0544
40.023
39.993
39.9659
39.9432
39.9255
39.9136
39.9077
40.1978
40.0546
40.1163
40.1235
40.1128
40.1279
40.1284
40.1129
40.0881
40.0588
40.0275
39.9951
39.9624
39.9309
39.9023
39.878
39.8591
39.8463
39.8399
40.1032
39.8709
40.0661
40.0601
40.0444
40.0756
40.0777
40.0602
40.0328
40.0017
39.9693
39.9356
39.9013
39.8679
39.8372
39.811
39.7905
39.7765
39.7695
39.9773
39.4611
39.9851
39.9946
39.9756
40.0261
40.0289
40.0091
39.9779
39.9445
39.9111
39.8761
39.8397
39.8039
39.7707
39.742
39.7195
39.7041
39.6963
39.945
39.0649
40.0765
39.8427
39.9004
39.981
39.9841
39.96
39.9229
39.8871
39.853
39.8164
39.7776
39.7388
39.7025
39.6709
39.6459
39.6287
39.62
765.349
768.899
771.092
768.399
761.356
752.142
741.751
730.364
718.182
705.692
693.634
682.907
674.508
669.399
668.438
672.293
681.342
694.852
710.265
722.605
717.089
674.203
419.098
626.748
629.129
629.21
624.951
617.438
608.197
597.547
585.342
571.708
557.152
542.466
528.607
516.658
507.42
501.659
499.45
499.58
506.542
514.913
519.026
503.886
451.705
339.589
488.21
487.962
485.208
479.308
471.235
461.571
450.171
436.692
421.202
404.187
386.47
369.238
353.753
340.099
329.623
325.817
330.865
333.422
334.016
339.139
338.453
316.69
277.407
350.586
346.554
340.547
333.225
324.181
313.092
300.15
284.735
266.643
246.093
223.624
199.857
179.811
160.434
140.621
120.088
102.586
92.4362
99.9773
120.962
146.055
158.945
152.008
216.083
208.146
194.222
184.886
174.605
160.34
145.132
128.221
109.261
88.6478
66.329
41.3254
28.6557
19.7686
12.9072
7.82027
4.81114
3.12446
4.21847
6.85697
12.2257
22.9336
37.0977
97.3116
80.3267
57.912
52.5207
47.0592
35.6176
27.9333
20.3763
13.1478
6.7995
1.46249
-0.481198
-0.891591
-0.996761
-1.0563
-1.11191
-1.13894
-1.11901
-1.13525
-1.25439
-1.36533
-1.25218
-0.612403
26.6314
5.92803
1.5823
1.12559
-0.319425
-1.13328
-1.29883
-1.28972
-1.25621
-1.20551
-1.1278
-1.09881
-1.14565
-1.21369
-1.3088
-1.41885
-1.50006
-1.53753
-1.57535
-1.62967
-1.67203
-1.7049
-1.84122
-1.64162
-1.70556
-1.60954
-1.5773
-1.55344
-1.46602
-1.4656
-1.45046
-1.42296
-1.3891
-1.35823
-1.35247
-1.40003
-1.48951
-1.65849
-1.86539
-2.00502
-2.04084
-1.99479
-1.91588
-1.87453
-1.8937
-1.97849
-1.78604
-1.77918
-1.75133
-1.7323
-1.71201
-1.67582
-1.65683
-1.64148
-1.6249
-1.61082
-1.61187
-1.64891
-1.70936
-1.80577
-2.10617
-2.44339
-2.57193
-2.53279
-2.37551
-2.17345
-2.05352
-2.03919
-2.09081
-1.95047
-1.92338
-1.91917
-1.90769
-1.89339
-1.8768
-1.86488
-1.85591
-1.84943
-1.85053
-1.87197
-1.92998
-1.9937
-2.11023
-2.48637
-2.78524
-2.83049
-2.73813
-2.53587
-2.29649
-2.17347
-2.20179
-2.35462
-2.11879
-2.1057
-2.09781
-2.08995
-2.08155
-2.07451
-2.07085
-2.07053
-2.07473
-2.08852
-2.12241
-2.18623
-2.25126
-2.3929
-2.66321
-2.85368
-2.87035
-2.75098
-2.59486
-2.43486
-2.41117
-2.56958
-2.78138
-2.28579
-2.27954
-2.27565
-2.27293
-2.2707
-2.27089
-2.27486
-2.28323
-2.29745
-2.32111
-2.36083
-2.4214
-2.4929
-2.6222
-2.75988
-2.86922
-2.88845
-2.85333
-2.79859
-2.7742
-2.80484
-2.8823
-2.971
-2.45738
-2.45704
-2.45597
-2.45704
-2.45975
-2.46552
-2.47558
-2.4908
-2.51244
-2.54255
-2.58418
-2.63941
-2.70939
-2.8018
-2.90097
-2.96823
-3.00206
-3.01021
-3.00874
-3.0114
-3.02359
-3.06288
-3.13623
-2.63249
-2.6354
-2.63676
-2.6409
-2.64749
-2.65752
-2.67209
-2.69208
-2.71845
-2.75226
-2.79445
-2.84551
-2.90611
-2.97704
-3.04756
-3.10101
-3.13513
-3.14904
-3.15602
-3.17179
-3.20324
-3.2552
-3.32812
-2.80936
-2.81389
-2.81727
-2.82381
-2.83341
-2.84673
-2.86462
-2.88779
-2.91693
-2.95257
-2.99482
-3.04337
-3.09789
-3.15661
-3.21322
-3.25981
-3.29407
-3.31855
-3.34143
-3.37205
-3.41535
-3.4726
-3.54358
-2.98679
-2.99195
-2.9969
-3.00531
-3.01723
-3.03309
-3.05351
-3.07893
-3.10981
-3.14641
-3.18857
-3.23574
-3.28702
-3.34019
-3.39167
-3.43755
-3.47664
-3.51113
-3.54618
-3.58742
-3.63871
-3.70143
-3.77515
-3.16358
-3.16888
-3.17506
-3.18494
-3.19867
-3.21653
-3.23893
-3.26613
-3.29834
-3.33568
-3.37796
-3.42463
-3.47467
-3.52622
-3.57707
-3.62517
-3.67017
-3.71392
-3.76003
-3.81238
-3.87352
-3.94446
-4.0247
-3.33885
-3.34414
-3.35126
-3.3623
-3.37745
-3.39691
-3.42091
-3.44957
-3.48298
-3.52117
-3.564
-3.61103
-3.66135
-3.71362
-3.7664
-3.81878
-3.87096
-3.92451
-3.98192
-4.04577
-4.11782
-4.19907
-4.28931
-3.51194
-3.51721
-3.52503
-3.53701
-3.55331
-3.57406
-3.59939
-3.62933
-3.66391
-3.70317
-3.74705
-3.79523
-3.84704
-3.90155
-3.95793
-4.01589
-4.07597
-4.1395
-4.2083
-4.28423
-4.3687
-4.46294
-4.56704
-3.68232
-3.68759
-3.69596
-3.70872
-3.72597
-3.74781
-3.77429
-3.80542
-3.84123
-3.8818
-3.92717
-3.97716
-4.03133
-4.08908
-4.15003
-4.21432
-4.28271
-4.35643
-4.4369
-4.52565
-4.62399
-4.73355
-4.85484
-3.84954
-3.85487
-3.86368
-3.87709
-3.89516
-3.91796
-3.9455
-3.97778
-4.0149
-4.057
-4.10421
-4.15649
-4.21356
-4.27514
-4.3412
-4.41225
-4.4892
-4.5732
-4.66547
-4.76749
-4.88081
-5.00759
-5.1488
-4.01325
-4.01867
-4.02784
-4.04182
-4.06063
-4.0843
-4.11285
-4.1463
-4.1848
-4.22858
-4.27786
-4.33269
-4.39298
-4.4587
-4.53014
-4.60807
-4.69355
-4.78767
-4.89165
-5.0071
-5.13599
-5.28106
-5.44391
-4.17316
-4.17868
-4.18816
-4.20266
-4.22215
-4.24665
-4.27617
-4.31078
-4.3507
-4.39624
-4.44768
-4.50517
-4.56878
-4.63871
-4.71554
-4.80023
-4.89392
-4.99774
-5.11304
-5.24165
-5.38601
-5.54942
-5.73414
-4.32904
-4.33468
-4.34444
-4.35941
-4.37952
-4.40479
-4.43524
-4.47098
-4.51229
-4.55955
-4.61312
-4.67323
-4.74008
-4.81412
-4.89613
-4.9872
-5.08854
-5.20137
-5.32724
-5.46827
-5.62729
-5.80799
-6.01332
-4.48076
-4.48652
-4.49652
-4.51193
-4.53259
-4.55855
-4.58984
-4.62661
-4.66921
-4.71808
-4.77362
-4.83615
-4.90603
-4.98389
-5.07066
-5.16752
-5.27572
-5.39661
-5.53197
-5.68417
-5.85634
-6.05235
-6.27572
-4.62824
-4.63414
-4.64435
-4.6601
-4.68122
-4.70775
-4.73974
-4.7774
-4.8211
-4.87134
-4.92858
-4.99323
-5.06579
-5.14702
-5.23795
-5.33982
-5.45389
-5.58169
-5.72516
-5.88692
-6.0702
-6.27889
-6.51684
-4.77148
-4.7775
-4.78786
-4.80386
-4.8253
-4.85223
-4.88472
-4.92303
-4.96758
-5.01889
-5.07747
-5.14383
-5.21858
-5.30259
-5.39692
-5.50281
-5.6216
-5.75496
-5.90501
-6.07447
-6.26658
-6.48515
-6.73403
-4.91046
-4.91657
-4.92702
-4.94313
-4.96471
-4.99183
-5.02459
-5.06327
-5.10833
-5.16032
-5.2198
-5.28737
-5.36372
-5.44976
-5.54656
-5.65535
-5.77755
-5.91495
-6.06988
-6.24507
-6.44372
-6.66951
-6.92609
-5.04517
-5.05131
-5.06176
-5.07783
-5.09936
-5.12643
-5.15919
-5.19792
-5.24311
-5.29534
-5.35522
-5.42341
-5.50064
-5.58782
-5.68603
-5.79647
-5.92064
-6.06049
-6.21846
-6.39732
-6.60025
-6.83076
-7.09235
-5.17556
-5.18166
-5.19201
-5.20788
-5.22915
-5.25595
-5.28843
-5.32689
-5.37182
-5.42381
-5.48352
-5.55163
-5.62891
-5.71625
-5.8147
-5.92548
-6.05014
-6.19075
-6.34984
-6.53022
-6.73512
-6.96796
-7.23218
-5.30154
-5.3075
-5.31763
-5.33314
-5.35397
-5.38029
-5.41224
-5.4501
-5.49436
-5.54562
-5.60454
-5.67182
-5.74821
-5.83463
-5.93211
-6.04187
-6.16552
-6.30515
-6.46336
-6.64299
-6.84736
-7.07997
-7.34448
-5.42296
-5.42867
-5.43847
-5.45348
-5.47371
-5.49936
-5.53053
-5.56747
-5.61064
-5.66063
-5.7181
-5.78374
-5.85831
-5.9427
-6.03796
-6.14533
-6.26639
-6.40322
-6.55838
-6.7348
-6.93587
-7.16531
-7.42734
-5.53976
-5.54516
-5.55452
-5.56892
-5.58843
-5.61323
-5.64337
-5.67903
-5.72065
-5.76881
-5.82417
-5.88739
-5.9592
-6.04049
-6.1323
-6.23583
-6.35264
-6.48471
-6.63452
-6.80501
-6.99969
-7.22245
-7.47834
-5.65225
-5.65731
-5.66615
-5.67988
-5.69854
-5.72232
-5.75114
-5.78515
-5.82475
-5.87054
-5.92317
-5.98326
-6.05148
-6.12865
-6.21579
-6.31405
-6.42487
-6.55012
-6.69213
-6.85382
-7.03864
-7.25059
-7.49529
-5.76076
-5.76552
-5.77379
-5.78678
-5.80447
-5.82699
-5.85419
-5.88618
-5.92335
-5.96632
-6.01571
-6.07205
-6.13594
-6.20808
-6.28942
-6.38102
-6.4842
-6.60063
-6.73248
-6.88246
-7.05382
-7.25036
-7.47751
-5.86499
-5.86952
-5.87717
-5.88932
-5.90582
-5.92679
-5.95205
-5.98169
-6.0161
-6.05586
-6.10152
-6.15354
-6.21237
-6.27863
-6.35313
-6.43684
-6.53088
-6.63669
-6.75621
-6.89179
-7.04628
-7.22312
-7.42589
-5.96435
-5.96872
-5.97566
-5.98676
-6.0018
-6.02089
-6.04389
-6.07088
-6.10221
-6.13835
-6.17975
-6.22677
-6.27978
-6.33925
-6.40589
-6.48048
-6.56394
-6.65743
-6.76253
-6.88112
-7.01546
-7.16762
-7.34271
-6.06003
-6.06431
-6.07036
-6.08023
-6.09355
-6.11053
-6.13107
-6.1552
-6.18315
-6.21526
-6.25187
-6.29329
-6.33978
-6.39172
-6.4496
-6.51402
-6.58564
-6.6653
-6.75411
-6.85335
-6.96444
-7.08906
-7.23066
-6.15574
-6.16004
-6.16511
-6.17371
-6.18532
-6.20019
-6.21826
-6.23947
-6.26391
-6.29181
-6.32348
-6.35914
-6.39897
-6.44319
-6.49209
-6.54605
-6.60546
-6.6708
-6.74261
-6.82143
-6.90786
-7.00262
-7.1073
-6.25285
-6.25725
-6.26149
-6.26897
-6.27907
-6.29198
-6.30762
-6.32591
-6.34686
-6.37066
-6.39757
-6.42773
-6.46118
-6.49797
-6.53825
-6.58221
-6.62995
-6.68155
-6.73696
-6.79607
-6.85883
-6.92467
-6.99331
-6.3446
-6.34913
-6.35296
-6.35946
-6.36805
-6.37882
-6.39177
-6.40686
-6.42412
-6.44366
-6.4656
-6.48997
-6.51672
-6.54581
-6.57724
-6.61095
-6.64679
-6.68443
-6.72344
-6.7632
-6.80305
-6.84144
-6.87664
-6.42447
-6.42968
-6.43315
-6.43852
-6.44524
-6.4534
-6.46307
-6.47437
-6.48733
-6.50189
-6.51793
-6.53539
-6.55424
-6.57437
-6.59554
-6.6174
-6.63953
-6.66137
-6.68211
-6.70063
-6.71619
-6.72577
-6.72753
-97.2082
-15.3009
37.0385
-0.926952
175.283
103.7
13.5365
-52.6649
208.491
147.654
93.6075
63.5842
122.985
99.0541
79.5223
67.0589
43.1493
43.8317
42.3693
39.5228
0.89413
3.12785
7.06318
12.2136
-1.94551
-1.99948
-2.01597
-1.96295
-2.08416
-2.15119
-2.25107
-2.337
-2.17315
-2.22675
-2.3119
-2.45313
-2.54683
-2.69946
-2.83491
-2.92181
-2.88484
-2.9364
-2.98632
-3.04002
-3.03583
-3.08445
-3.13579
-3.18378
-3.19997
-3.24217
-3.2856
-3.32909
-3.38986
-3.43007
-3.471
-3.5119
-3.60257
-3.64123
-3.68052
-3.72013
-3.83529
-3.87497
-3.91542
-3.95652
-4.08924
-4.13187
-4.17536
-4.21976
-4.36157
-4.40962
-4.4588
-4.50898
-4.65069
-4.70668
-4.76425
-4.82344
-4.95316
-5.01943
-5.08804
-5.15927
-5.26464
-5.34337
-5.42574
-5.51191
-5.57933
-5.67224
-5.7708
-5.87509
-5.88956
-5.99712
-6.11248
-6.23623
-6.1874
-6.30846
-6.43903
-6.58044
-6.46582
-6.59819
-6.74122
-6.89654
-6.7193
-6.86009
-7.01211
-7.17676
-6.94497
-7.0911
-7.24845
-7.41787
-7.14247
-7.29163
-7.45152
-7.62261
-7.3122
-7.4632
-7.62444
-7.79606
-7.45403
-7.60624
-7.76863
-7.94098
-7.56706
-7.71987
-7.88319
-8.05668
-7.64904
-7.80168
-7.96546
-8.14025
-7.69656
-7.84749
-8.01052
-8.18581
-7.70581
-7.85229
-8.01199
-8.18567
-7.67383
-7.81066
-7.96009
-8.12218
-7.60212
-7.72485
-7.85889
-8.00449
-7.49281
-7.59698
-7.7103
-7.83282
-7.35013
-7.43233
-7.52088
-7.61553
-7.1926
-7.25033
-7.31147
-7.37552
-7.04495
-7.07833
-7.11214
-7.14571
-6.89821
-6.91006
-6.91966
-6.92626
-6.72052
-6.71265
-6.70095
-6.68476
30.1777
37.7249
39.8897
39.8648
39.8273
39.9236
39.9289
39.889
39.8347
39.7963
39.7623
39.7231
39.6797
39.6352
39.593
39.5558
39.5262
39.5058
39.4955
-21.9425
18.8933
35.1339
39.5309
39.5276
39.7882
39.8894
39.7927
39.7005
39.6681
39.6404
39.5965
39.5436
39.488
39.4342
39.3864
39.348
39.3214
39.3079
20.6281
-26.7224
-13.4898
16.4057
35.067
39.7231
39.9337
39.5869
39.5068
39.5407
39.5256
39.4714
39.4042
39.3323
39.262
39.1992
39.1488
39.1138
39.096
42.3484
10.2149
0.849882
-14.7066
-12.1026
10.6505
36.1418
38.9155
39.1937
39.4329
39.4297
39.3497
39.2594
39.1642
39.0708
38.9874
38.9205
38.8744
38.851
35.2175
25.6736
14.2965
3.48281
1.76936
-5.29583
4.07962
17.3482
38.6748
39.5689
39.3857
39.2242
39.1054
38.978
38.8515
38.74
38.6515
38.591
38.5607
20.2241
29.8167
30.4097
23.1709
17.1902
12.1261
15.6889
15.6667
17.8878
38.1703
39.4117
39.0918
38.9217
38.7637
38.5906
38.4395
38.3237
38.2459
38.2072
-1.83464
-1.43201
2.89745
9.48112
23.701
33.7423
20.7002
12.1887
22.6386
31.9482
37.9594
38.9316
38.746
38.4911
38.2595
38.0587
37.9095
37.8128
37.7652
-2.37322
-2.89303
-3.18962
-2.9443
-2.76756
-1.7934
9.06316
17.1009
13.0574
22.6693
27.4683
38.002
38.6617
38.2184
37.8097
37.55
37.3678
37.2543
37.1993
-2.70278
-3.08725
-3.3118
-3.30257
-3.30345
-3.35631
-3.27812
0.269177
2.72279
11.4308
25.3767
38.9555
38.5426
37.6995
37.1565
36.8412
36.6384
36.519
36.4624
-3.0453
-3.23682
-3.37312
-3.39792
-3.39807
-3.436
-3.44216
-3.50099
-0.177445
-8.4165
14.0065
28.5469
35.9392
36.8413
36.2456
35.8397
35.6465
35.5426
35.4959
-3.14422
-3.2884
-3.38741
-3.44227
-3.47285
-3.5306
-3.58725
-3.71693
-4.02901
-3.97293
12.8196
26.304
36.8662
35.8707
34.9817
34.468
34.3065
34.2547
34.2365
-3.26293
-3.36777
-3.43913
-3.48126
-3.53203
-3.61015
-3.68069
-3.71987
-3.58919
-2.01831
-0.0141173
14.4241
28.9829
33.4188
33.2107
32.6406
32.553
32.6042
32.6358
-3.40348
-3.49756
-3.5676
-3.62326
-3.68043
-3.74782
-3.82053
-3.85666
-3.91374
-3.62145
-5.33201
7.99677
23.039
30.0272
30.4935
30.2506
30.3788
30.5901
30.6888
-3.58037
-3.66672
-3.7373
-3.80634
-3.88354
-3.96497
-4.02223
-4.05342
-4.16859
-4.43863
-4.53978
11.5912
19.3118
26.253
27.1466
27.44
27.8879
28.2884
28.4584
-3.78694
-3.87312
-3.95056
-4.03212
-4.11559
-4.18638
-4.23059
-4.24622
-4.31117
-4.47991
-4.19901
16.5405
16.7954
22.4014
23.5822
24.4854
25.2839
25.8443
26.0751
-4.02558
-4.11708
-4.204
-4.29671
-4.38038
-4.42929
-4.44504
-4.4329
-4.40979
-4.38694
-4.06882
17.7412
15.0114
18.7927
19.9182
21.7008
22.7839
23.4246
23.7025
-4.29439
-4.39673
-4.49719
-4.60307
-4.6869
-4.70999
-4.69052
-4.65066
-4.55366
-4.40712
-4.13729
15.6687
12.7849
17.4535
17.5732
19.5536
20.5795
21.192
21.4843
-4.5933
-4.7114
-4.82807
-4.94585
-5.03366
-5.03042
-4.96226
-4.87773
-4.71104
-4.40772
-4.23313
12.315
10.9744
16.4296
16.9898
18.0136
18.7189
19.2263
19.4868
-4.92342
-5.06655
-5.20904
-5.3431
-5.43357
-5.39433
-5.26287
-5.11719
-4.91632
-4.44066
-3.30802
14.9577
13.9961
14.8788
16.2204
16.5876
17.0669
17.479
17.6908
-5.2813
-5.46341
-5.65077
-5.83547
-5.95269
-5.85728
-5.59942
-5.40207
-5.11374
-5.39157
6.07963
15.9687
14.2318
13.6697
14.781
15.0639
15.5213
15.877
16.054
-5.66267
-5.8959
-6.1435
-6.41022
-6.61702
-6.48723
-5.94884
-5.72589
-5.49753
-2.90372
6.54584
11.0515
13.4836
12.4913
13.2978
13.6249
14.0859
14.3894
14.5546
-6.06203
-6.35928
-6.69765
-7.08861
-7.47467
-7.40178
-6.53985
-7.21666
-9.62136
1.95021
9.30844
8.05977
10.0372
11.3429
11.9012
12.3103
12.7483
13.0099
13.1764
-6.46133
-6.83101
-7.29794
-7.91387
-8.63549
-8.97314
-9.11115
-18.7239
-8.59911
8.76718
10.2954
9.0225
8.7447
10.1139
10.574
11.0968
11.5053
11.7408
11.8999
-6.83745
-7.271
-7.84631
-8.66546
-9.7026
-10.8082
-17.0964
-41.3252
-11.2615
10.2029
8.89848
7.30916
8.0865
9.03257
9.49033
10.0144
10.3685
10.5791
10.7146
-7.17746
-7.65923
-8.2808
-9.12942
-10.1142
-11.2142
-14.6119
-34.7203
-0.264188
9.80156
7.25075
6.88776
7.35241
8.1354
8.62254
9.05377
9.33704
9.51322
9.61273
-7.47381
-7.98628
-8.6221
-9.48522
-10.3384
-11.1056
-11.3874
-19.4923
6.24615
7.77831
6.90766
6.77119
7.01525
7.46027
7.88118
8.18443
8.3908
8.52342
8.58179
-7.72251
-8.2396
-8.86678
-9.75726
-10.6187
-11.4978
-11.9225
-7.41317
7.45408
7.62847
6.94115
6.7693
6.81552
7.00718
7.22726
7.38384
7.50342
7.58681
7.60523
-7.92873
-8.43272
-9.03005
-9.8441
-10.5283
-11.6386
-12.4124
-7.36866
7.67353
7.0688
6.9646
6.71364
6.62316
6.59159
6.59518
6.61315
6.64408
6.67887
6.66474
-8.10166
-8.5936
-9.16228
-9.83229
-10.2773
-11.2366
-9.72568
-19.9239
-0.939875
6.43189
7.07751
6.58512
6.34624
6.08956
5.91826
5.82458
5.78035
5.77345
5.74244
-8.2469
-8.73639
-9.29422
-9.90494
-10.5188
-11.0781
-11.2871
-11.7254
1.70094
7.28659
6.81684
6.40831
5.90261
5.44224
5.14941
4.98009
4.88622
4.84909
4.8211
-8.36469
-8.85942
-9.41816
-10.0295
-10.7301
-11.1783
-11.5444
-11.1937
-0.296035
1.41358
5.93759
5.97089
5.16795
4.58873
4.24985
4.05277
3.94377
3.89507
3.88495
-8.45185
-8.95794
-9.5265
-10.1825
-10.9975
-11.3228
-11.366
-8.34651
-6.94734
-0.901744
5.29031
4.99885
4.10881
3.48144
3.19193
3.02667
2.94511
2.90187
2.93376
-8.50041
-9.02808
-9.59929
-10.3476
-11.3552
-11.921
-12.1235
-11.6101
-18.3491
-13.8843
-1.26346
3.11822
2.44892
2.01493
1.95497
1.89683
1.89369
1.86701
1.98069
-8.48913
-9.01669
-9.65324
-10.5173
-11.6523
-12.6668
-13.8946
-16.977
-19.8169
-25.7499
-9.57092
-1.48675
-0.568876
0.196429
0.541313
0.682225
0.808948
0.829734
1.01322
-8.41654
-8.93203
-9.59396
-10.5171
-11.7962
-13.3263
-15.0605
-19.9773
-27.0808
-37.7776
-17.7152
-6.15124
-3.38212
-1.54775
-0.930676
-0.527602
-0.27097
-0.177628
0.0464067
-8.27111
-8.74592
-9.37295
-10.2599
-11.5538
-13.3764
-15.9637
-20.8713
-32.1033
-37.0643
-18.1948
-9.64365
-4.98191
-2.96668
-2.19521
-1.61728
-1.28659
-1.1229
-0.895672
-8.05706
-8.45752
-8.98573
-9.72597
-10.8269
-12.5364
-15.3452
-20.5569
-28.9343
-30.2576
-20.2685
-11.1657
-6.06873
-4.11928
-3.18735
-2.5485
-2.18971
-1.98672
-1.79262
-7.78745
-8.09025
-8.47919
-9.00333
-9.7623
-10.9803
-12.968
-15.724
-18.5434
-19.1993
-16.2641
-11.016
-6.8811
-4.97923
-3.92939
-3.32394
-2.97315
-2.76482
-2.63008
-7.48996
-7.68462
-7.92339
-8.22906
-8.65154
-9.31472
-10.3291
-11.4686
-12.3825
-12.4358
-11.1115
-8.78414
-6.55104
-5.25179
-4.41461
-3.94175
-3.64481
-3.46605
-3.40229
-7.2024
-7.28783
-7.37953
-7.48835
-7.64171
-7.89491
-8.27802
-8.70015
-9.0037
-8.86287
-8.10006
-7.01494
-5.95895
-5.25608
-4.75725
-4.45454
-4.24704
-4.11961
-4.11796
-6.93164
-6.92038
-6.88172
-6.81751
-6.75388
-6.74612
-6.82163
-6.90972
-6.99359
-6.90878
-6.57018
-6.08901
-5.62566
-5.30695
-5.06762
-4.91396
-4.80106
-4.72892
-4.77601
-6.64864
-6.56568
-6.4381
-6.25973
-6.05135
-5.88609
-5.8158
-5.80827
-5.82795
-5.85806
-5.84566
-5.77496
-5.6823
-5.61144
-5.5487
-5.50445
-5.47328
-5.44637
-5.45471
)
;

boundaryField
{
    leftWall
    {
        type            calculated;
        value           nonuniform List<scalar> 
50
(
1301.42
1241.62
1180.88
1119.29
1056.92
993.76
930.118
866.076
765.349
626.748
488.21
350.586
216.083
97.3116
26.6314
-1.64162
-1.78604
-1.95047
-2.11879
-2.28579
-2.45738
-2.63249
-2.80936
-2.98679
-3.16358
-3.33885
-3.51194
-3.68232
-3.84954
-4.01325
-4.17316
-4.32904
-4.48076
-4.62824
-4.77148
-4.91046
-5.04517
-5.17556
-5.30154
-5.42296
-5.53976
-5.65225
-5.76076
-5.86499
-5.96435
-6.06003
-6.15574
-6.25285
-6.3446
-6.42447
)
;
    }
    rightWall
    {
        type            calculated;
        value           nonuniform List<scalar> 
50
(
40.0963
40.036
39.9731
39.9077
39.8399
39.7695
39.6963
39.62
39.4955
39.3079
39.096
38.851
38.5607
38.2072
37.7652
37.1993
36.4624
35.4959
34.2365
32.6358
30.6888
28.4584
26.0751
23.7025
21.4843
19.4868
17.6908
16.054
14.5546
13.1764
11.8999
10.7146
9.61273
8.58179
7.60523
6.66474
5.74244
4.8211
3.88495
2.93376
1.98069
1.01322
0.0464067
-0.895672
-1.79262
-2.63008
-3.40229
-4.11796
-4.77601
-5.45471
)
;
    }
    lowerWall
    {
        type            calculated;
        value           nonuniform List<scalar> 
62
(
1330.85
1336.14
1341.75
1342.13
1335.88
1325.19
1312.99
1300.94
1289.75
1279.89
1271.92
1266.58
1264.9
1268.23
1278.73
1297.76
1326.75
1364.68
1405.7
1435.45
1439.77
1390.47
1463.15
1437.87
1366.66
1316.99
1289.31
1243.32
1162.97
1034.56
849.024
-34.6355
47.2961
99.6358
9.79216
40.4338
40.3737
40.313
40.2564
40.1978
40.1032
39.9773
39.945
40.4632
40.4321
40.4016
40.3922
40.3885
40.3853
40.3791
40.3659
40.3453
40.3197
40.2913
40.2614
40.2319
40.204
40.179
40.1581
40.142
40.1312
40.1258
)
;
    }
    atmosphere
    {
        type            calculated;
        value           nonuniform List<scalar> 
46
(
-6.45052
-6.45743
-6.46011
-6.46461
-6.47002
-6.47638
-6.48385
-6.49259
-6.50264
-6.5138
-6.52583
-6.53861
-6.55209
-6.56614
-6.5804
-6.59433
-6.60742
-6.61899
-6.62809
-6.63352
-6.63369
-6.62648
-6.60939
-6.58759
-6.56991
-6.54834
-6.52251
-6.46901
-6.36519
-6.22561
-6.05558
-5.88112
-5.75322
-5.72908
-5.72931
-5.73485
-5.75208
-5.74835
-5.73095
-5.72909
-5.72904
-5.72904
-5.72904
-5.72904
-5.72904
-5.72904
)
;
    }
    defaultFaces
    {
        type            empty;
    }
}


// ************************************************************************* //
