/*--------------------------------*- C++ -*----------------------------------*\
| =========                 |                                                 |
| \\      /  F ield         | OpenFOAM: The Open Source CFD Toolbox           |
|  \\    /   O peration     | Version:  5.x                                   |
|   \\  /    A nd           | Web:      www.OpenFOAM.org                      |
|    \\/     M anipulation  |                                                 |
\*---------------------------------------------------------------------------*/
FoamFile
{
    version     2.0;
    format      ascii;
    class       volScalarField;
    location    "0.3";
    object      p_rgh;
}
// * * * * * * * * * * * * * * * * * * * * * * * * * * * * * * * * * * * * * //

dimensions      [1 -1 -2 0 0 0 0];

internalField   nonuniform List<scalar> 
2268
(
1330.85
1336.14
1341.75
1342.13
1335.88
1325.19
1312.99
1300.94
1289.75
1279.89
1271.92
1266.58
1264.9
1268.23
1278.73
1297.76
1326.75
1364.68
1405.7
1435.45
1439.77
1390.47
1463.15
1329.91
1335.11
1340.71
1341.04
1334.75
1324.1
1311.98
1299.99
1288.81
1278.91
1270.85
1265.39
1263.52
1266.46
1275.23
1291.64
1317.63
1353.67
1396.61
1431.24
1439.13
1373.26
1454.95
1328.03
1333.12
1338.65
1338.85
1332.5
1321.94
1309.97
1298.09
1286.92
1276.94
1268.71
1262.99
1260.76
1263.17
1271.49
1287.16
1310.71
1341.87
1378.21
1411.38
1428.27
1405.87
1463.32
1325.29
1330.23
1335.62
1335.62
1329.17
1318.75
1307
1295.26
1284.1
1273.98
1265.48
1259.38
1256.64
1258.4
1265.83
1280.07
1301.51
1329.35
1360.69
1390.26
1414.37
1423.38
1494.04
1321.79
1326.52
1331.7
1331.42
1324.86
1314.6
1303.11
1291.52
1280.34
1270.01
1261.15
1254.53
1251.14
1252.06
1258.39
1271.08
1290.39
1315.55
1343.98
1371.41
1399.5
1427.08
1507.72
1317.48
1322.23
1326.99
1326.34
1319.64
1309.57
1298.34
1286.88
1275.62
1265
1255.66
1248.4
1244.19
1244.1
1249.16
1260.19
1277.36
1299.99
1326.04
1351.72
1379.36
1411.47
1486.69
1312.7
1317.23
1321.51
1320.38
1313.57
1303.72
1292.75
1281.38
1269.97
1258.96
1249.01
1240.96
1235.79
1234.51
1238.11
1247.28
1262.31
1282.39
1305.79
1328.93
1351.84
1375.97
1417.14
1307.52
1311.71
1315.27
1313.55
1306.65
1297.09
1286.4
1275.09
1263.45
1251.95
1241.27
1232.29
1225.98
1223.34
1225.3
1232.54
1245.24
1262.7
1283
1302.41
1316.59
1325.54
1290.46
40.4632
40.4321
40.4016
40.3922
40.3885
40.3853
40.3791
40.3659
40.3453
40.3197
40.2913
40.2614
40.2319
40.204
40.179
40.1581
40.142
40.1312
40.1258
40.462
40.4256
40.3987
40.3917
40.3882
40.3859
40.3803
40.3671
40.3461
40.32
40.291
40.261
40.2312
40.203
40.1778
40.1568
40.1406
40.1297
40.1243
40.4601
40.4092
40.395
40.3912
40.3867
40.387
40.3829
40.3694
40.3476
40.3209
40.2914
40.2607
40.2303
40.2014
40.1755
40.1538
40.1371
40.1258
40.1202
40.4624
40.3748
40.3878
40.3905
40.3836
40.389
40.3872
40.373
40.3499
40.3221
40.2919
40.2604
40.229
40.199
40.172
40.1492
40.1315
40.1196
40.1137
40.4627
40.3195
40.3811
40.3883
40.3776
40.3927
40.3932
40.3778
40.3529
40.3236
40.2924
40.2599
40.2272
40.1958
40.1672
40.1429
40.124
40.1111
40.1047
40.4269
40.4266
40.4332
40.3839
40.3681
40.3993
40.4014
40.384
40.3565
40.3254
40.293
40.2594
40.225
40.1916
40.161
40.1347
40.1142
40.1002
40.0932
40.3599
41.0064
40.5257
40.3772
40.3582
40.4087
40.4115
40.3917
40.3605
40.3271
40.2937
40.2587
40.2223
40.1865
40.1533
40.1246
40.1021
40.0866
40.0789
40.3865
40.8594
40.5181
40.2843
40.3419
40.4224
40.4255
40.4015
40.3643
40.3286
40.2944
40.2579
40.2191
40.1803
40.1439
40.1123
40.0873
40.0701
40.0615
1298.82
1302.37
1304.56
1301.87
1294.82
1285.61
1275.22
1263.83
1251.65
1239.16
1227.1
1216.37
1207.98
1202.87
1201.9
1205.76
1214.81
1228.32
1243.73
1256.07
1250.56
1207.67
952.219
1285.41
1287.79
1287.87
1283.61
1276.1
1266.86
1256.21
1244
1230.37
1215.81
1201.13
1187.27
1175.32
1166.08
1160.32
1158.11
1158.24
1165.2
1173.57
1177.69
1162.55
1110.37
997.619
1272.07
1271.82
1269.06
1263.16
1255.09
1245.43
1234.03
1220.55
1205.06
1188.04
1170.32
1153.09
1137.61
1123.95
1113.47
1109.67
1114.72
1117.18
1117.87
1122.99
1122.31
1100.55
1061.23
1259.64
1255.6
1249.58
1242.26
1233.22
1222.13
1209.19
1193.77
1175.66
1155.09
1132.59
1108.79
1081.95
1042.49
988.955
925.018
870.907
825.972
854.073
938.733
1055.11
1068
1061.02
1250.33
1242.24
1228.2
1218.88
1208.59
1193.66
1170.59
1131.75
1068.96
977.009
853.128
680.03
508.325
358.325
239.002
150.215
97.9229
66.869
81.717
128.28
228.546
418.593
648.559
1245.85
1013.53
889.646
870.877
816.68
707.079
566.136
419.029
277.668
153.62
43.2952
0.678245
0.267853
0.162828
0.104239
0.0503688
0.0244576
0.0458174
0.0319857
-0.049079
-0.07045
0.286468
21.741
587.048
159.676
63.8228
54.8555
25.2117
0.151353
-0.0141956
-0.00508281
0.0284212
0.079124
0.156838
0.185822
0.138991
0.0709538
-0.0239977
-0.132989
-0.210117
-0.240521
-0.278797
-0.322286
-0.350974
-0.367797
-0.479593
-0.231794
-0.295736
-0.199706
-0.167476
-0.143615
-0.0561895
-0.0557695
-0.0406263
-0.0131307
0.0207305
0.0515996
0.0573611
0.00980323
-0.0796745
-0.247495
-0.384896
-0.385451
-0.431068
-0.539968
-0.469626
-0.420303
-0.438255
-0.515863
-0.251019
-0.244156
-0.216304
-0.19728
-0.176983
-0.140794
-0.121809
-0.106456
-0.0898756
-0.0758012
-0.0768146
-0.113879
-0.174328
-0.243918
0.0986693
0.428497
-0.259855
-0.936156
-0.793148
-0.590615
-0.469527
-0.453616
-0.504546
-0.290253
-0.263158
-0.258952
-0.247474
-0.233175
-0.21658
-0.204661
-0.195693
-0.189213
-0.190316
-0.210617
-0.269692
-0.333464
0.80145
0.935978
0.638983
-1.0008
-1.02332
-0.821241
-0.583301
-0.153376
1.24292
2.80802
-0.333374
-0.320288
-0.312395
-0.30454
-0.296135
-0.2891
-0.285438
-0.285114
-0.289322
-0.303105
-0.335353
-0.400704
-0.465761
1.19568
1.01993
0.822149
-0.0505449
-0.351613
0.544809
2.10048
2.15382
1.99061
0.787877
-0.375183
-0.36893
-0.365046
-0.362319
-0.360091
-0.360281
-0.364249
-0.372619
-0.386847
-0.410506
-0.448456
-0.510658
-0.52506
-0.544492
0.591588
0.891355
1.4014
1.46867
1.55396
1.58822
0.165081
-0.937413
-1.06039
-0.421576
-0.421243
-0.420164
-0.421235
-0.423945
-0.429717
-0.439773
-0.455001
-0.476641
-0.506749
-0.547767
-0.603425
-0.672897
-0.766
-0.865169
-0.927679
-0.495018
-0.339355
-0.879083
-0.9756
-0.987788
-1.02708
-1.10043
-0.471491
-0.4744
-0.475768
-0.479901
-0.486493
-0.496528
-0.511095
-0.53108
-0.55745
-0.591257
-0.63345
-0.684509
-0.745114
-0.816048
-0.886563
-0.940009
-0.974137
-0.988044
-0.99502
-1.0108
-1.04224
-1.0942
-1.16713
-0.523165
-0.5277
-0.531075
-0.537616
-0.547223
-0.560535
-0.578429
-0.601596
-0.630736
-0.666382
-0.708632
-0.75718
-0.811703
-0.870423
-0.927025
-0.973619
-1.00788
-1.03236
-1.05524
-1.08586
-1.12915
-1.1864
-1.25739
-0.575402
-0.580564
-0.585514
-0.59392
-0.605847
-0.621706
-0.642122
-0.66755
-0.69843
-0.73502
-0.777181
-0.824356
-0.875637
-0.928806
-0.980284
-1.02617
-1.06526
-1.09974
-1.13479
-1.17604
-1.22733
-1.29005
-1.36377
-0.627001
-0.632305
-0.638485
-0.648359
-0.662088
-0.679953
-0.702353
-0.729547
-0.761759
-0.799096
-0.841379
-0.888053
-0.938086
-0.989639
-1.04049
-1.08859
-1.13359
-1.17734
-1.22345
-1.2758
-1.33694
-1.40788
-1.48812
-0.67708
-0.682371
-0.689486
-0.700527
-0.715678
-0.735138
-0.759136
-0.787798
-0.821203
-0.859393
-0.902227
-0.949252
-0.999572
-1.05184
-1.10463
-1.157
-1.20918
-1.26273
-1.32015
-1.384
-1.45604
-1.53729
-1.62754
-0.724974
-0.730238
-0.738062
-0.750045
-0.766343
-0.787096
-0.812421
-0.842362
-0.876943
-0.916202
-0.960079
-1.00826
-1.06007
-1.11458
-1.17097
-1.22893
-1.289
-1.35253
-1.42133
-1.49726
-1.58173
-1.67597
-1.78007
-0.770156
-0.775428
-0.783801
-0.796556
-0.813808
-0.835648
-0.862128
-0.893255
-0.929062
-0.969633
-1.015
-1.065
-1.11917
-1.17692
-1.23786
-1.30215
-1.37055
-1.44427
-1.52474
-1.61348
-1.71182
-1.82139
-1.94268
-0.812185
-0.817512
-0.826323
-0.839731
-0.857803
-0.8806
-0.908138
-0.940426
-0.977541
-1.01964
-1.06685
-1.11913
-1.1762
-1.23778
-1.30385
-1.37489
-1.45185
-1.53584
-1.62811
-1.73014
-1.84346
-1.97023
-2.11144
-0.850701
-0.856116
-0.865289
-0.879269
-0.898075
-0.92175
-0.950297
-0.983749
-1.02225
-1.06603
-1.11531
-1.17014
-1.23043
-1.29614
-1.36759
-1.44552
-1.53099
-1.62511
-1.7291
-1.84455
-1.97344
-2.11851
-2.28135
-0.885411
-0.890932
-0.900416
-0.914915
-0.934398
-0.958899
-0.988418
-1.02303
-1.06295
-1.10849
-1.15993
-1.21742
-1.28103
-1.35096
-1.42779
-1.51249
-1.60617
-1.71
-1.82529
-1.9539
-2.09826
-2.26167
-2.44639
-0.916097
-0.921735
-0.931495
-0.94647
-0.96658
-0.99185
-1.0223
-1.05803
-1.09935
-1.14661
-1.20018
-1.26029
-1.32714
-1.40118
-1.48319
-1.57426
-1.6756
-1.78843
-1.9143
-2.05533
-2.21434
-2.39505
-2.60038
-0.942621
-0.948383
-0.958388
-0.973789
-0.994457
-1.02042
-1.0517
-1.08848
-1.13108
-1.17995
-1.23548
-1.29801
-1.3679
-1.44575
-1.53252
-1.62939
-1.73758
-1.85848
-1.99383
-2.14604
-2.31821
-2.51422
-2.73759
-0.964915
-0.970805
-0.981018
-0.99677
-1.01789
-1.04442
-1.07641
-1.11406
-1.15777
-1.20801
-1.26525
-1.3299
-1.40246
-1.48369
-1.57462
-1.67649
-1.79056
-1.91836
-2.06183
-2.22359
-2.40687
-2.61556
-2.85351
-0.982958
-0.988971
-0.999336
-1.01534
-1.03678
-1.0637
-1.0962
-1.13451
-1.17906
-1.23036
-1.28895
-1.35531
-1.43006
-1.51406
-1.6084
-1.71428
-1.83308
-1.96643
-2.11648
-2.28595
-2.47805
-2.69663
-2.9455
-0.996743
-1.00285
-1.0133
-1.02941
-1.05099
-1.07811
-1.11087
-1.14955
-1.19461
-1.2466
-1.30608
-1.37366
-1.45
-1.53604
-1.63284
-1.74163
-1.86383
-2.00123
-2.15616
-2.33135
-2.53
-2.75579
-3.01237
-1.00625
-1.01239
-1.02284
-1.03892
-1.06045
-1.08752
-1.12027
-1.15901
-1.2042
-1.25642
-1.31631
-1.3845
-1.46173
-1.54891
-1.64712
-1.75756
-1.88173
-2.02158
-2.17954
-2.35841
-2.56134
-2.79185
-3.05344
-1.01145
-1.01755
-1.0279
-1.04377
-1.06504
-1.09184
-1.12432
-1.16278
-1.20771
-1.2597
-1.31941
-1.38753
-1.4648
-1.55214
-1.65059
-1.76137
-1.88603
-2.02664
-2.18573
-2.36611
-2.57101
-2.80385
-3.06807
-1.01224
-1.01819
-1.02833
-1.04384
-1.06467
-1.09099
-1.12293
-1.1608
-1.20506
-1.25632
-1.31524
-1.38251
-1.45891
-1.54533
-1.6428
-1.75257
-1.87622
-2.01585
-2.17406
-2.35368
-2.55806
-2.79067
-3.05518
-1.00846
-1.01417
-1.02398
-1.03898
-1.05922
-1.08486
-1.11603
-1.15298
-1.19614
-1.24613
-1.3036
-1.36924
-1.44381
-1.5282
-1.62346
-1.73083
-1.85189
-1.98872
-2.14389
-2.3203
-2.52137
-2.75081
-3.01284
-1.00007
-1.00546
-1.01483
-1.02923
-1.04874
-1.07354
-1.10367
-1.13934
-1.18095
-1.22911
-1.28447
-1.34769
-1.41951
-1.5008
-1.5926
-1.69614
-1.81295
-1.94502
-2.09482
-2.26532
-2.46
-2.68276
-2.93864
-0.987368
-0.992421
-1.00126
-1.01499
-1.03366
-1.05743
-1.08625
-1.12026
-1.15986
-1.20565
-1.25828
-1.31837
-1.38659
-1.46376
-1.5509
-1.64916
-1.75998
-1.88523
-2.02725
-2.18893
-2.37376
-2.5857
-2.8304
-0.970678
-0.975435
-0.983707
-0.9967
-1.01439
-1.03691
-1.06411
-1.0961
-1.13327
-1.17624
-1.22563
-1.28197
-1.34585
-1.418
-1.49934
-1.59094
-1.69412
-1.81055
-1.9424
-2.09238
-2.26374
-2.46028
-2.68743
-0.949711
-0.954243
-0.961897
-0.974044
-0.990548
-1.01152
-1.03677
-1.06641
-1.10082
-1.14058
-1.18625
-1.23827
-1.2971
-1.36336
-1.43786
-1.52156
-1.6156
-1.72142
-1.84094
-1.97651
-2.13101
-2.30784
-2.51062
-0.923881
-0.928252
-0.935186
-0.946295
-0.961327
-0.980418
-1.00342
-1.03041
-1.06174
-1.09788
-1.13928
-1.1863
-1.23931
-1.29878
-1.36542
-1.44001
-1.52347
-1.61696
-1.72206
-1.84065
-1.97498
-2.12715
-2.30224
-0.894362
-0.898641
-0.904694
-0.914566
-0.927887
-0.944867
-0.965402
-0.989539
-1.01749
-1.04959
-1.08621
-1.12763
-1.17412
-1.22605
-1.28394
-1.34836
-1.41998
-1.49964
-1.58844
-1.68768
-1.79877
-1.9234
-2.065
-0.864881
-0.869182
-0.874255
-0.882851
-0.894459
-0.909334
-0.927398
-0.948611
-0.973053
-1.00096
-1.03262
-1.06828
-1.10811
-1.15233
-1.20123
-1.25519
-1.31461
-1.37994
-1.45175
-1.53057
-1.61701
-1.71176
-1.81644
-0.836792
-0.841194
-0.845437
-0.852921
-0.863014
-0.875923
-0.891569
-0.909856
-0.930804
-0.954606
-0.981513
-1.01167
-1.04513
-1.08192
-1.1222
-1.16615
-1.2139
-1.26549
-1.32091
-1.38001
-1.44277
-1.50862
-1.57726
-0.803349
-0.807881
-0.811708
-0.818216
-0.8268
-0.837576
-0.850526
-0.865614
-0.882873
-0.902415
-0.924356
-0.948725
-0.975475
-1.00456
-1.03599
-1.06971
-1.10554
-1.14318
-1.18219
-1.22195
-1.2618
-1.30019
-1.3354
-0.758024
-0.763235
-0.766709
-0.772077
-0.778802
-0.786954
-0.79663
-0.80793
-0.82089
-0.835444
-0.851487
-0.868952
-0.887801
-0.907929
-0.929096
-0.950953
-0.973085
-0.994926
-1.01567
-1.03418
-1.04974
-1.05933
-1.06109
436.05
518.164
570.506
90.4236
833.324
762.109
672.197
573.125
991.961
931.008
876.855
847.011
1031.95
1007.99
988.362
975.714
831.585
1005.15
1076.26
1073.21
61.4514
117.608
196.584
296.93
-0.497824
-0.421862
-0.282925
0.0184078
-0.536096
-0.493334
-0.453565
-0.326418
-0.387746
3.15962
3.73275
3.61075
2.90429
3.05933
1.04572
-1.0705
-0.829062
-1.14446
-1.2009
-1.25461
-1.12523
-1.17384
-1.22518
-1.27318
-1.16417
-1.20637
-1.2498
-1.29328
-1.22886
-1.26908
-1.31
-1.3509
-1.31638
-1.35504
-1.39433
-1.43394
-1.4239
-1.46359
-1.50404
-1.54514
-1.55266
-1.59529
-1.63878
-1.68318
-1.69979
-1.74785
-1.79702
-1.84721
-1.86372
-1.91971
-1.97728
-2.03647
-2.04099
-2.10727
-2.17588
-2.24711
-2.22729
-2.30602
-2.38839
-2.47455
-2.41677
-2.50969
-2.60825
-2.71254
-2.60182
-2.70937
-2.82473
-2.94848
-2.77446
-2.89552
-3.02609
-3.1675
-2.92768
-3.06005
-3.20308
-3.35841
-3.05597
-3.19675
-3.34877
-3.51342
-3.15644
-3.30258
-3.45993
-3.62934
-3.22875
-3.37791
-3.5378
-3.70888
-3.27328
-3.42429
-3.58553
-3.75714
-3.28992
-3.44214
-3.60452
-3.77687
-3.27776
-3.43057
-3.59389
-3.76738
-3.23455
-3.38718
-3.55096
-3.72575
-3.15687
-3.30779
-3.47083
-3.64612
-3.04093
-3.1874
-3.34711
-3.52078
-2.88375
-3.02058
-3.17001
-3.33209
-2.68684
-2.80958
-2.94361
-3.08921
-2.45234
-2.55651
-2.66983
-2.79235
-2.18447
-2.26667
-2.35522
-2.44987
-1.90175
-1.95947
-2.02061
-2.08466
-1.6289
-1.66228
-1.69609
-1.72966
-1.35696
-1.36881
-1.37841
-1.38502
-1.05408
-1.04621
-1.0345
-1.01832
114.25
38.6969
40.4257
40.3984
40.3609
40.4571
40.4624
40.4225
40.3682
40.3298
40.2958
40.2566
40.2131
40.1687
40.1264
40.0893
40.0597
40.0393
40.0289
588.93
205.257
88.6831
40.195
40.193
40.4478
40.5483
40.4515
40.3592
40.3268
40.299
40.2552
40.2023
40.1467
40.0928
40.045
40.0067
39.9801
39.9665
803.894
733.588
710.368
313.48
79.0113
42.9751
40.7411
40.3799
40.291
40.3247
40.3095
40.2553
40.188
40.1161
40.0459
39.9831
39.9326
39.8976
39.8798
950.799
918.582
908.658
881.665
851.336
462.338
100.976
40.3485
40.1225
40.3432
40.3391
40.2588
40.1684
40.0732
39.9799
39.8964
39.8296
39.7834
39.7601
1068.68
1058.88
1047.2
1035.83
1033.56
1025.19
936.391
366.703
53.3086
40.6545
40.4232
40.2589
40.1397
40.0122
39.8857
39.7742
39.6857
39.6253
39.5949
456.834
779.114
1152.43
1179.92
1172.7
1166.59
1168.68
1139.09
613.077
78.5378
40.667
40.2598
40.0819
39.9232
39.75
39.5989
39.4831
39.4053
39.3667
1.57525
34.2338
141.801
273.896
623.936
1205.65
1295.78
1276.13
1274.04
751.558
90.4564
40.3765
40.0438
39.7769
39.5442
39.3434
39.1941
39.0974
39.0498
1.62812
-0.156705
-1.62852
-1.47586
4.04941
44.4887
374.873
1239.71
1368.01
1324.74
704.053
69.2373
40.3115
39.6504
39.2215
38.96
38.7776
38.6641
38.6092
3.34607
0.594923
-1.76553
-1.76491
-1.7642
-1.81382
-1.71428
171.781
1124.86
1411.94
1279.78
487.361
44.384
39.5988
38.7405
38.3805
38.1736
38.054
37.9975
-1.26129
-1.4814
-1.70436
-1.73765
-1.73773
-1.77545
-1.78104
-1.82804
285.449
1293.19
1361.2
1031.71
177.244
39.9337
38.1338
37.523
37.3082
37.2028
37.1561
-1.35881
-1.50298
-1.602
-1.65686
-1.68742
-1.74515
-1.80173
-1.93108
-2.2299
738.197
1441.15
1312.56
444.089
41.4918
37.2736
36.3266
36.0968
36.0403
36.0219
-1.35232
-1.45716
-1.52852
-1.57066
-1.62142
-1.69951
-1.77003
-1.80914
-1.67811
188.09
1274.48
1359.57
795.68
78.1926
36.0362
34.6943
34.4738
34.5149
34.5464
-1.36767
-1.46176
-1.5318
-1.58737
-1.64405
-1.71157
-1.78433
-1.82046
-1.87748
-1.5847
921.909
1397.15
1036.79
161.246
34.1161
32.5145
32.4323
32.6264
32.7246
-1.41938
-1.50572
-1.5763
-1.64166
-1.70402
-1.79061
-1.85959
-1.8919
-2.00687
-2.27677
593.888
1433.89
1127.43
247.072
31.4655
29.8996
30.0721
30.4502
30.6194
-1.50075
-1.58693
-1.66437
-1.73718
-1.80703
-1.87782
-1.92202
-1.95573
-2.02408
-2.1924
386.942
1399.8
1141.59
262.775
28.0881
27.0607
27.5938
28.1313
28.3613
-1.61419
-1.7057
-1.79261
-1.88532
-1.96036
-1.99431
-2.01032
-2.00954
-1.99673
-1.97266
282.465
1346.32
1111.04
242.796
24.1783
24.26
25.2122
25.8366
26.1139
-1.75781
-1.86015
-1.96059
-2.06649
-2.15031
-2.16707
-2.14043
-2.10708
-2.01383
-1.86637
320.766
1328.93
982.653
164.277
21.3375
22.2026
23.149
23.7313
24.021
-1.93153
-2.04962
-2.16616
-2.28396
-2.37155
-2.36693
-2.2964
-2.21173
-2.04503
-1.74166
383.224
1311.94
738.258
62.7882
20.4562
20.9059
21.4562
21.8938
22.1487
-2.13645
-2.27958
-2.42204
-2.55347
-2.63886
-2.60129
-2.47163
-2.32587
-2.12488
-1.6492
471.6
1233.32
445.264
21.0867
19.7426
19.8997
19.9467
20.2725
20.478
-2.36911
-2.55124
-2.7386
-2.91813
-3.03064
-2.93523
-2.68186
-2.48523
-2.19687
47.9797
783.231
934.8
228.616
18.4079
18.3117
18.5531
18.5179
18.7952
18.9664
-2.62527
-2.85854
-3.10587
-3.37255
-3.5752
-3.43975
-2.90514
-2.68352
-2.45517
597.762
912.301
754.863
106.249
16.7694
16.9896
17.0609
17.183
17.4312
17.5921
-2.89946
-3.19665
-3.53501
-3.92071
-4.30822
-4.23533
-3.37324
-4.04778
314.439
942.25
949.608
527.464
33.2496
15.7012
16.0885
15.7164
15.9461
16.1752
16.339
-3.17358
-3.54307
-4.01
-4.61088
-5.34207
-5.68115
-1.868
321.844
858.696
951.055
779.176
171.113
15.9445
14.9628
14.7803
14.5265
14.8115
15.0301
15.1877
-3.42451
-3.85786
-4.43332
-5.23674
-6.27908
-7.3903
95.5613
733.897
866.22
769.143
227.939
24.6943
19.0445
14.5919
13.4178
13.4965
13.7902
13.9928
14.1276
-3.63929
-4.12107
-4.74263
-5.58264
-6.56694
-7.66937
214.613
755.042
639.949
203.221
23.0276
16.1641
17.3271
13.5741
12.3542
12.6226
12.8792
13.0517
13.1509
-3.81043
-4.32292
-4.95866
-5.82176
-6.66542
-7.43269
269.346
640.919
158.942
18.5167
13.8215
12.8919
12.227
12.0773
11.621
11.8608
12.056
12.1869
12.2451
-3.93395
-4.45106
-5.07791
-5.96851
-6.68097
-7.69665
289.027
560.391
55.6517
14.1767
12.0505
11.3581
10.7885
10.9053
11.0658
11.1782
11.2929
11.3754
11.3938
-4.01499
-4.51898
-5.11622
-5.92342
-6.45685
-7.70026
263.904
560.16
143.034
13.0959
11.4983
10.9034
10.6238
10.5273
10.5352
10.5303
10.5583
10.5926
10.5785
-4.06273
-4.55466
-5.12284
-5.79282
-6.10036
-7.14832
105.033
493.062
497.541
29.8552
11.2707
10.7223
10.419
10.1383
9.96368
9.86596
9.81952
9.81239
9.78136
-4.08278
-4.57225
-5.12984
-5.73459
-6.34828
-6.7232
-6.97533
436.733
517.411
68.677
11.0545
10.5936
10.0754
9.60973
9.31437
9.14524
9.05047
9.01321
8.98521
-4.07538
-4.5701
-5.12856
-5.73314
-6.38403
-6.13832
-7.10599
462.092
530.546
494.05
28.6964
10.2833
9.46034
8.87932
8.53944
8.34214
8.23315
8.18438
8.17425
-4.03735
-4.54342
-5.11187
-5.76099
-6.53328
-6.55358
-6.784
334.127
542.244
552.415
53.1409
9.51368
8.52809
7.89656
7.60655
7.4412
7.35964
7.31637
7.34826
-3.96072
-4.48837
-5.05955
-5.80568
-6.77866
-7.23549
-7.12047
11.6955
550.659
556.432
523.039
38.9149
7.05241
6.55637
6.49472
6.43654
6.4334
6.4067
6.52039
-3.82425
-4.3518
-4.98826
-5.85132
-6.9855
-7.73846
-3.19593
-6.19721
557.892
560.294
576.473
173.054
4.27181
4.86518
5.20627
5.34714
5.47384
5.49462
5.67811
-3.62646
-4.14195
-4.80383
-5.72615
-6.99864
-8.52648
-7.89339
5.16745
318.051
563.994
580.106
214.541
1.59775
3.32052
3.86228
4.26253
4.51912
4.61245
4.83649
-3.35584
-3.83064
-4.45765
-5.34426
-6.63207
-8.43462
-10.6006
0.409602
25.0394
506.419
399.625
115.406
2.61331
1.99615
2.72196
3.29802
3.62869
3.79237
4.0196
-3.01659
-3.41704
-3.94525
-4.68529
-5.78406
-7.47303
-10.2036
-4.79887
7.00711
51.6553
15.1192
2.49099
0.541693
0.933365
1.85312
2.49197
2.85076
3.05375
3.24785
-2.62179
-2.92459
-3.31352
-3.83757
-4.59541
-5.80363
-7.63575
-4.39157
-2.88903
-11.3147
-8.62892
-5.58915
-1.70868
0.186558
1.23628
1.84173
2.19252
2.40085
2.53558
-2.1991
-2.39376
-2.63253
-2.93818
-3.36043
-4.02196
-4.90032
-4.70814
-5.16624
-6.26804
-5.03428
-3.42394
-1.25837
0.039104
0.876248
1.34911
1.64605
1.82481
1.88857
-1.78634
-1.87177
-1.96348
-2.07229
-2.22563
-2.47865
-2.83501
-3.00808
-3.26184
-3.1977
-2.46932
-1.57303
-0.54244
0.159985
0.658808
0.96151
1.16901
1.29645
1.29809
-1.39039
-1.37913
-1.34047
-1.27626
-1.21263
-1.20486
-1.27905
-1.35025
-1.39972
-1.28302
-0.966995
-0.540603
-0.0842991
0.234297
0.473632
0.627292
0.740189
0.812329
0.765239
-0.982199
-0.899235
-0.771661
-0.593284
-0.384904
-0.219649
-0.149317
-0.141565
-0.155761
-0.168828
-0.160119
-0.106626
-0.0158052
0.0550004
0.117743
0.161992
0.193167
0.220071
0.211729
)
;

boundaryField
{
    leftWall
    {
        type            fixedFluxPressure;
        gradient        uniform 0;
        value           nonuniform List<scalar> 
50
(
1330.85
1329.91
1328.03
1325.29
1321.79
1317.48
1312.7
1307.52
1298.82
1285.41
1272.07
1259.64
1250.33
1245.85
587.048
-0.231794
-0.251019
-0.290253
-0.333374
-0.375183
-0.421576
-0.471491
-0.523165
-0.575402
-0.627001
-0.67708
-0.724974
-0.770156
-0.812185
-0.850701
-0.885411
-0.916097
-0.942621
-0.964915
-0.982958
-0.996743
-1.00625
-1.01145
-1.01224
-1.00846
-1.00007
-0.987368
-0.970678
-0.949711
-0.923881
-0.894362
-0.864881
-0.836792
-0.803349
-0.758024
)
;
    }
    rightWall
    {
        type            fixedFluxPressure;
        gradient        uniform 0;
        value           nonuniform List<scalar> 
50
(
40.1258
40.1243
40.1202
40.1137
40.1047
40.0932
40.0789
40.0615
40.0289
39.9665
39.8798
39.7601
39.5949
39.3667
39.0498
38.6092
37.9975
37.1561
36.0219
34.5464
32.7246
30.6194
28.3613
26.1139
24.021
22.1487
20.478
18.9664
17.5921
16.339
15.1877
14.1276
13.1509
12.2451
11.3938
10.5785
9.78136
8.98521
8.17425
7.34826
6.52039
5.67811
4.83649
4.0196
3.24785
2.53558
1.88857
1.29809
0.765239
0.211729
)
;
    }
    lowerWall
    {
        type            fixedFluxPressure;
        gradient        uniform 0;
        value           nonuniform List<scalar> 
62
(
1330.85
1336.14
1341.75
1342.13
1335.88
1325.19
1312.99
1300.94
1289.75
1279.89
1271.92
1266.58
1264.9
1268.23
1278.73
1297.76
1326.75
1364.68
1405.7
1435.45
1439.77
1390.47
1463.15
1463.15
1454.95
1463.32
1494.04
1507.72
1486.69
1417.14
1290.46
436.05
518.164
570.506
90.4236
40.4632
40.462
40.4601
40.4624
40.4627
40.4269
40.3599
40.3865
40.4632
40.4321
40.4016
40.3922
40.3885
40.3853
40.3791
40.3659
40.3453
40.3197
40.2913
40.2614
40.2319
40.204
40.179
40.1581
40.142
40.1312
40.1258
)
;
    }
    atmosphere
    {
        type            totalPressure;
        rho             rho;
        psi             none;
        gamma           1;
        p0              uniform 0;
        value           nonuniform List<scalar> 
46
(
-0.721482
-0.728394
-0.731074
-0.735572
-0.740982
-0.747344
-0.754812
-0.763554
-0.773598
-0.784761
-0.796795
-0.809566
-0.823047
-0.837105
-0.851359
-0.865294
-0.878385
-0.889949
-0.899054
-0.904475
-0.904649
-0.897442
-0.880355
-0.858548
-0.840869
-0.819299
-0.793471
-0.73997
-0.636153
-0.496572
-0.326539
-0.152081
-0.0241772
0
0
0
0
0
0
0
0
0
0
0
0
0
)
;
    }
    defaultFaces
    {
        type            empty;
    }
}


// ************************************************************************* //
