/*--------------------------------*- C++ -*----------------------------------*\
| =========                 |                                                 |
| \\      /  F ield         | OpenFOAM: The Open Source CFD Toolbox           |
|  \\    /   O peration     | Version:  5.x                                   |
|   \\  /    A nd           | Web:      www.OpenFOAM.org                      |
|    \\/     M anipulation  |                                                 |
\*---------------------------------------------------------------------------*/
FoamFile
{
    version     2.0;
    format      ascii;
    class       surfaceScalarField;
    location    "0.3";
    object      phi;
}
// * * * * * * * * * * * * * * * * * * * * * * * * * * * * * * * * * * * * * //

dimensions      [0 3 -1 0 0 0 0];

internalField   nonuniform List<scalar> 
4432
(
-9.34384e-07
9.34384e-07
2.70546e-06
-3.63984e-06
8.80483e-06
-6.09937e-06
1.53487e-05
-6.54384e-06
2.12356e-05
-5.88692e-06
2.61916e-05
-4.95599e-06
3.03586e-05
-4.16705e-06
3.39826e-05
-3.62394e-06
3.72622e-05
-3.27966e-06
4.02981e-05
-3.03585e-06
4.30921e-05
-2.794e-06
4.5567e-05
-2.4749e-06
4.75821e-05
-2.0151e-06
4.89199e-05
-1.33785e-06
4.9117e-05
-1.9703e-07
4.726e-05
1.85698e-06
4.2121e-05
5.13893e-06
3.22668e-05
9.85427e-06
1.73666e-05
1.49002e-05
-2.88879e-09
1.73695e-05
-1.23527e-05
1.23498e-05
-1.62284e-05
3.87573e-06
-1.62284e-05
-8.55353e-07
1.78974e-06
2.85636e-06
-7.35155e-06
8.97593e-06
-1.22189e-05
1.54969e-05
-1.30648e-05
2.13524e-05
-1.17424e-05
2.62898e-05
-9.89335e-06
3.04609e-05
-8.33821e-06
3.41137e-05
-7.27675e-06
3.74417e-05
-6.60761e-06
4.05377e-05
-6.13192e-06
4.33982e-05
-5.65446e-06
4.59446e-05
-5.02128e-06
4.80435e-05
-4.11402e-06
4.95263e-05
-2.82065e-06
5.03909e-05
-1.06158e-06
5.07538e-05
1.49409e-06
5.04926e-05
5.40011e-06
4.83031e-05
1.20437e-05
4.11017e-05
2.21016e-05
2.59934e-05
3.24777e-05
5.08455e-06
3.32587e-05
-4.30243e-06
1.32627e-05
-2.05309e-05
-6.89992e-07
2.47973e-06
3.09973e-06
-1.11413e-05
9.21591e-06
-1.83351e-05
1.56436e-05
-1.94925e-05
2.1379e-05
-1.74778e-05
2.62223e-05
-1.47367e-05
3.03503e-05
-1.24662e-05
3.40125e-05
-1.09389e-05
3.73897e-05
-9.98479e-06
4.05585e-05
-9.30072e-06
4.35033e-05
-8.59931e-06
4.61415e-05
-7.65942e-06
4.83465e-05
-6.31911e-06
4.99671e-05
-4.44123e-06
5.07916e-05
-1.88606e-06
5.06936e-05
1.59209e-06
4.97654e-05
6.3283e-06
4.86973e-05
1.31118e-05
4.73791e-05
2.34198e-05
4.251e-05
3.73469e-05
2.97498e-05
4.60188e-05
1.2736e-05
3.02765e-05
-7.79486e-06
-4.44744e-07
2.92448e-06
3.45647e-06
-1.50425e-05
9.55528e-06
-2.44339e-05
1.58444e-05
-2.57816e-05
2.14092e-05
-2.30426e-05
2.61268e-05
-1.94542e-05
3.02073e-05
-1.65467e-05
3.38972e-05
-1.46288e-05
3.73556e-05
-1.34432e-05
4.06353e-05
-1.25804e-05
4.37045e-05
-1.16685e-05
4.64749e-05
-1.04299e-05
4.88236e-05
-8.66774e-06
5.06048e-05
-6.22246e-06
5.16515e-05
-2.9328e-06
5.18074e-05
1.4362e-06
5.09477e-05
7.18805e-06
4.93446e-05
1.47149e-05
4.82221e-05
2.45422e-05
4.76044e-05
3.79647e-05
4.1806e-05
5.18172e-05
2.47031e-05
4.73795e-05
1.69082e-05
-1.11277e-07
3.03575e-06
3.90388e-06
-1.90576e-05
9.9582e-06
-3.04882e-05
1.60619e-05
-3.18853e-05
2.14143e-05
-2.8395e-05
2.59864e-05
-2.40264e-05
3.00241e-05
-2.05844e-05
3.3763e-05
-1.83677e-05
3.73313e-05
-1.70116e-05
4.0752e-05
-1.6001e-05
4.39744e-05
-1.48909e-05
4.69051e-05
-1.33606e-05
4.94263e-05
-1.11889e-05
5.14062e-05
-8.20234e-06
5.27036e-05
-4.23017e-06
5.31958e-05
9.44022e-07
5.2792e-05
7.59184e-06
5.14529e-05
1.6054e-05
4.95719e-05
2.64232e-05
4.84969e-05
3.90397e-05
4.54134e-05
5.49007e-05
3.06079e-05
6.2185e-05
4.75161e-05
2.20468e-07
2.81529e-06
4.41832e-06
-2.32555e-05
1.04003e-05
-3.64702e-05
1.62738e-05
-3.77588e-05
2.13838e-05
-3.3505e-05
2.58055e-05
-2.84481e-05
2.98156e-05
-2.45946e-05
3.36279e-05
-2.218e-05
3.73312e-05
-2.07149e-05
4.09146e-05
-1.95844e-05
4.43092e-05
-1.82855e-05
4.74182e-05
-1.64697e-05
5.01322e-05
-1.39029e-05
5.23342e-05
-1.04044e-05
5.39039e-05
-5.79991e-06
5.47383e-05
1.09624e-07
5.47641e-05
7.56611e-06
5.39538e-05
1.68643e-05
5.21052e-05
2.82719e-05
4.97654e-05
4.13795e-05
4.63703e-05
5.82958e-05
3.33112e-05
7.5244e-05
8.08273e-05
5.99519e-07
2.21577e-06
4.98868e-06
-2.76447e-05
1.08652e-05
-4.23467e-05
1.64695e-05
-4.33631e-05
2.13216e-05
-3.8357e-05
2.56033e-05
-3.27299e-05
2.96106e-05
-2.86018e-05
3.35228e-05
-2.60922e-05
3.73827e-05
-2.45748e-05
4.11456e-05
-2.33473e-05
4.47274e-05
-2.18673e-05
4.80324e-05
-1.97747e-05
5.09609e-05
-1.68314e-05
5.34085e-05
-1.28519e-05
5.52678e-05
-7.65925e-06
5.64435e-05
-1.06607e-06
5.68757e-05
7.13393e-06
5.65454e-05
1.71945e-05
5.52247e-05
2.95926e-05
5.2572e-05
4.40321e-05
4.82586e-05
6.26092e-05
3.73282e-05
8.61745e-05
0.000118155
1.02307e-06
1.19269e-06
5.59745e-06
-3.2219e-05
1.13364e-05
-4.80857e-05
1.66529e-05
-4.86796e-05
2.12562e-05
-4.29604e-05
2.54265e-05
-3.69001e-05
2.94637e-05
-3.2639e-05
3.35035e-05
-3.0132e-05
3.75409e-05
-2.86121e-05
4.15007e-05
-2.73071e-05
4.52897e-05
-2.56564e-05
4.88173e-05
-2.33022e-05
5.19927e-05
-2.00068e-05
5.4716e-05
-1.55752e-05
5.68802e-05
-9.82353e-06
5.83963e-05
-2.58209e-06
5.92177e-05
6.31255e-06
5.93204e-05
1.70918e-05
5.86164e-05
3.02966e-05
5.6587e-05
4.60616e-05
5.20889e-05
6.71072e-05
4.12625e-05
9.70009e-05
0.000159418
1.28965e-05
-1.28965e-05
2.14454e-05
-8.5488e-06
2.13955e-05
4.98961e-08
1.9911e-05
1.48453e-06
1.93392e-05
5.71883e-07
1.96145e-05
-2.75361e-07
2.06618e-05
-1.0473e-06
2.20357e-05
-1.37387e-06
2.32376e-05
-1.20198e-06
2.39596e-05
-7.2202e-07
2.39894e-05
-2.97574e-08
2.32129e-05
7.764e-07
2.1656e-05
1.55693e-06
1.93551e-05
2.30089e-06
1.63737e-05
2.98139e-06
1.28126e-05
3.56118e-06
8.79499e-06
4.01759e-06
4.46746e-06
4.32752e-06
4.46749e-06
1.40537e-05
-2.69502e-05
2.22285e-05
-1.67235e-05
2.16943e-05
5.84128e-07
2.05106e-05
2.66816e-06
2.00383e-05
1.0442e-06
2.04986e-05
-7.35641e-07
2.18187e-05
-2.36751e-06
2.34353e-05
-2.99037e-06
2.48704e-05
-2.63711e-06
2.58634e-05
-1.71518e-06
2.62533e-05
-4.19545e-07
2.59091e-05
1.12052e-06
2.4674e-05
2.79195e-06
2.2482e-05
4.49307e-06
1.93484e-05
6.11491e-06
1.53558e-05
7.55391e-06
1.06513e-05
8.72207e-06
5.43876e-06
9.53993e-06
9.90627e-06
1.78976e-05
-4.48478e-05
2.47223e-05
-2.35481e-05
2.21561e-05
3.15031e-06
2.05387e-05
4.28553e-06
1.97253e-05
1.85765e-06
2.02213e-05
-1.2316e-06
2.17057e-05
-3.85201e-06
2.34394e-05
-4.72407e-06
2.49653e-05
-4.163e-06
2.59851e-05
-2.73509e-06
2.63319e-05
-7.66339e-07
2.58884e-05
1.56404e-06
2.45778e-05
4.1025e-06
2.23509e-05
6.72008e-06
1.92181e-05
9.24762e-06
1.52499e-05
1.15222e-05
1.05803e-05
1.33916e-05
5.40305e-06
1.47171e-05
1.53093e-05
2.27019e-05
-6.75496e-05
2.78763e-05
-2.87225e-05
2.26721e-05
8.35452e-06
2.05504e-05
6.40716e-06
1.90312e-05
3.37696e-06
1.97583e-05
-1.9587e-06
2.1546e-05
-5.6398e-06
2.34864e-05
-6.66439e-06
2.51715e-05
-5.84809e-06
2.62927e-05
-3.85643e-06
2.66847e-05
-1.15825e-06
2.62375e-05
2.01121e-06
2.48855e-05
5.45437e-06
2.25955e-05
9.01023e-06
1.93966e-05
1.24464e-05
1.53666e-05
1.55521e-05
1.0647e-05
1.81112e-05
5.4343e-06
1.99297e-05
2.07436e-05
2.50195e-05
-9.25692e-05
2.93819e-05
-3.30849e-05
2.28856e-05
1.48509e-05
2.00638e-05
9.22899e-06
1.77064e-05
5.73438e-06
1.91338e-05
-3.38613e-06
2.13452e-05
-7.85116e-06
2.35647e-05
-8.88394e-06
2.54767e-05
-7.76001e-06
2.67458e-05
-5.12564e-06
2.7226e-05
-1.63846e-06
2.68269e-05
2.41028e-06
2.54855e-05
6.79575e-06
2.3166e-05
1.13298e-05
1.98959e-05
1.57165e-05
1.57634e-05
1.96844e-05
1.09228e-05
2.29518e-05
5.57494e-06
2.52775e-05
2.63186e-05
2.40987e-05
-0.000116668
2.69938e-05
-3.59799e-05
2.21774e-05
1.96672e-05
1.8556e-05
1.28505e-05
1.56286e-05
8.66175e-06
1.8336e-05
-6.09346e-06
2.10444e-05
-1.05596e-05
2.36647e-05
-1.15043e-05
2.58822e-05
-9.97743e-06
2.7331e-05
-6.57457e-06
2.79222e-05
-2.22969e-06
2.75934e-05
2.73916e-06
2.62731e-05
8.11591e-06
2.39323e-05
1.36705e-05
2.05862e-05
1.90625e-05
1.63296e-05
2.39411e-05
1.13227e-05
2.79586e-05
5.78145e-06
3.08188e-05
3.21001e-05
1.97875e-05
-0.000136455
1.75956e-05
-3.3788e-05
1.63365e-05
2.09264e-05
1.33822e-05
1.58048e-05
1.30683e-05
8.97569e-06
1.76444e-05
-1.06696e-05
2.06786e-05
-1.35938e-05
2.38273e-05
-1.4653e-05
2.64014e-05
-1.25515e-05
2.80478e-05
-8.221e-06
2.87737e-05
-2.95564e-06
2.85293e-05
2.98359e-06
2.72424e-05
9.40264e-06
2.48744e-05
1.60385e-05
2.14401e-05
2.24967e-05
1.70307e-05
2.83504e-05
1.18199e-05
3.31696e-05
6.03877e-06
3.65999e-05
3.81389e-05
1.26118e-06
-0.000137717
-2.56696e-05
-6.85722e-06
-1.11651e-05
6.42189e-06
3.066e-06
1.5737e-06
1.10871e-05
9.54577e-07
1.75855e-05
-1.7168e-05
2.0557e-05
-1.65653e-05
2.42371e-05
-1.83331e-05
2.71018e-05
-1.54161e-05
2.89322e-05
-1.00515e-05
2.97936e-05
-3.81703e-06
2.96425e-05
3.13466e-06
2.83945e-05
1.06505e-05
2.59973e-05
1.84358e-05
2.24555e-05
2.60385e-05
1.78652e-05
3.29407e-05
1.24116e-05
3.86232e-05
6.34422e-06
4.26674e-05
4.44831e-05
3.60097e-06
-2.40828e-06
1.39004e-05
-4.25184e-05
2.56743e-05
-5.98596e-05
3.60645e-05
-5.90698e-05
4.51381e-05
-5.2034e-05
5.38029e-05
-4.55649e-05
6.26291e-05
-4.14652e-05
7.17146e-05
-3.92175e-05
8.0898e-05
-3.77955e-05
8.99478e-05
-3.63569e-05
9.86631e-05
-3.43717e-05
0.00010688
-3.15191e-05
0.000114433
-2.75602e-05
0.000121138
-2.22794e-05
0.000126809
-1.54952e-05
0.000131285
-7.05754e-06
0.00013452
3.07733e-06
0.000136404
1.52075e-05
0.000137057
2.96439e-05
0.000136466
4.66521e-05
0.000135759
6.78145e-05
0.000141808
9.09517e-05
0.00012985
0.000171376
5.67351e-06
-8.08179e-06
1.66702e-05
-5.35151e-05
2.75947e-05
-7.0784e-05
3.67563e-05
-6.82314e-05
4.5089e-05
-6.03667e-05
5.36957e-05
-5.41716e-05
6.29245e-05
-5.06941e-05
7.2593e-05
-4.88859e-05
8.23683e-05
-4.75709e-05
9.19694e-05
-4.59579e-05
0.000101228
-4.363e-05
0.000110033
-4.03243e-05
0.00011831
-3.58376e-05
0.000125977
-2.99457e-05
0.000133016
-2.25348e-05
0.000139624
-1.36657e-05
0.000145331
-2.62956e-06
0.000150573
9.96567e-06
0.000155136
2.50805e-05
0.000160091
4.16979e-05
0.000168605
5.92999e-05
0.000183798
7.57594e-05
9.84363e-05
0.000215211
8.04872e-06
-1.61305e-05
1.93289e-05
-6.47953e-05
2.88374e-05
-8.02925e-05
3.6647e-05
-7.6041e-05
4.44204e-05
-6.81401e-05
5.30616e-05
-6.28128e-05
6.24907e-05
-6.01232e-05
7.22675e-05
-5.86628e-05
8.20159e-05
-5.73193e-05
9.15351e-05
-5.54771e-05
0.000100773
-5.28682e-05
0.000109723
-4.92741e-05
0.000118564
-4.4679e-05
0.00012741
-3.87909e-05
0.000136096
-3.12208e-05
0.000144218
-2.1788e-05
0.000152519
-1.09305e-05
0.000161455
1.02958e-06
0.000167922
1.86135e-05
0.000174977
3.46428e-05
0.000184736
4.95409e-05
0.000196817
6.36788e-05
7.65713e-05
0.000218682
1.12034e-05
-2.73339e-05
2.22991e-05
-7.5891e-05
2.9394e-05
-8.73874e-05
3.54816e-05
-8.21286e-05
4.28084e-05
-7.5467e-05
5.1564e-05
-7.15684e-05
6.11345e-05
-6.96937e-05
7.10393e-05
-6.85676e-05
8.11054e-05
-6.73854e-05
9.14241e-05
-6.57958e-05
0.000102317
-6.37609e-05
0.000113673
-6.06299e-05
0.000125758
-5.67643e-05
0.000139088
-5.21205e-05
0.00015376
-4.58933e-05
0.000168802
-3.68303e-05
0.000182023
-2.4151e-05
0.000189467
-6.41425e-06
0.000193219
1.4861e-05
0.000195097
3.27651e-05
0.000198838
4.57999e-05
0.000206049
5.64676e-05
6.368e-05
0.00021894
1.63798e-05
-4.37137e-05
2.80325e-05
-8.75437e-05
3.10874e-05
-9.04423e-05
3.49371e-05
-8.59783e-05
4.24729e-05
-8.30027e-05
5.24675e-05
-8.1563e-05
6.3556e-05
-8.07821e-05
7.54132e-05
-8.04248e-05
8.83076e-05
-8.02798e-05
0.000103016
-8.05045e-05
0.000120587
-8.13321e-05
0.000138871
-7.89132e-05
0.00015896
-7.68534e-05
0.000182027
-7.51876e-05
0.000207216
-7.10824e-05
0.000231174
-6.07886e-05
0.000249908
-4.28845e-05
0.000252724
-9.23052e-06
0.000244792
2.27933e-05
0.000232557
4.50005e-05
0.000222235
5.6121e-05
0.00021815
6.05535e-05
6.13731e-05
0.000220456
2.51991e-05
-6.89128e-05
3.81283e-05
-0.000100473
3.63292e-05
-8.86433e-05
3.87062e-05
-8.83552e-05
4.80143e-05
-9.23109e-05
6.06392e-05
-9.41878e-05
7.44601e-05
-9.46031e-05
8.98592e-05
-9.58238e-05
0.000108158
-9.85788e-05
0.00013187
-0.000104217
0.000159419
-0.00010888
0.000182691
-0.000102185
0.00021063
-0.000104793
0.000238671
-0.000103229
0.000263624
-9.60356e-05
0.000280859
-7.80228e-05
0.000288035
-5.00604e-05
0.000289066
-1.02615e-05
0.000285303
2.65562e-05
0.000277187
5.31164e-05
0.000263668
6.964e-05
0.000242519
8.17022e-05
7.55511e-05
0.000228341
3.25131e-05
-0.000101426
4.46036e-05
-0.000112563
4.57196e-05
-8.97594e-05
4.98876e-05
-9.25231e-05
6.19968e-05
-0.00010442
7.15227e-05
-0.000103714
8.15894e-05
-0.00010467
9.20468e-05
-0.000106281
0.000104363
-0.000110895
0.00011969
-0.000119545
0.000140539
-0.000129729
0.000172767
-0.000134413
0.000202887
-0.000134913
0.000233884
-0.000134226
0.000261666
-0.000123818
0.00028063
-9.69869e-05
0.000288457
-5.78872e-05
0.00029124
-1.30447e-05
0.000287289
3.05076e-05
0.000275964
6.4441e-05
0.000263446
8.21578e-05
0.000257472
8.76761e-05
8.34601e-05
0.000249563
9.55407e-06
-0.00011098
1.74952e-05
-0.000120504
3.36015e-05
-0.000105866
4.21771e-05
-0.000101099
4.47364e-05
-0.000106979
5.17733e-05
-0.000110751
6.00835e-05
-0.00011298
7.05447e-05
-0.000116742
8.47285e-05
-0.000125078
0.000103986
-0.000138802
0.000127588
-0.000153331
0.000154472
-0.000161297
0.000182084
-0.000162525
0.000213197
-0.000165339
0.000242332
-0.000152953
0.000263209
-0.000117864
0.000273164
-6.78425e-05
0.000272707
-1.25877e-05
0.000259036
4.41786e-05
0.000241335
8.21414e-05
0.000232452
9.10414e-05
0.000241541
7.85872e-05
5.89477e-05
0.000266053
-6.37495e-06
-0.000104605
-1.00627e-06
-0.000125873
1.34457e-05
-0.000120318
2.68172e-05
-0.00011447
3.50104e-05
-0.000115173
4.21492e-05
-0.00011789
5.0105e-05
-0.000120936
5.98684e-05
-0.000126506
7.26021e-05
-0.000137812
8.83152e-05
-0.000154515
0.00010588
-0.000170896
0.000123338
-0.000178755
0.000139055
-0.000178242
0.000160902
-0.000187187
0.000180811
-0.000172861
0.000197183
-0.000134236
0.000206184
-7.68431e-05
0.000204997
-1.14008e-05
0.000201117
4.80577e-05
0.000202887
8.03715e-05
0.000220621
7.33072e-05
0.000251137
4.8072e-05
2.62697e-05
0.000283815
-2.26488e-06
-0.00010234
7.45265e-06
-0.000135591
1.54629e-05
-0.000128328
2.39336e-05
-0.000122941
3.16895e-05
-0.000122929
3.87335e-05
-0.000124934
4.55356e-05
-0.000127738
5.26251e-05
-0.000133595
6.03444e-05
-0.000145531
6.80613e-05
-0.000162232
7.50152e-05
-0.00017785
8.05801e-05
-0.00018432
8.39518e-05
-0.000181614
9.08133e-05
-0.000194048
9.32127e-05
-0.000175261
9.32931e-05
-0.000134317
9.59783e-05
-7.95284e-05
0.00010419
-1.96127e-05
0.000127966
2.4282e-05
0.000168538
3.97994e-05
0.000212396
2.94493e-05
0.000249858
1.06095e-05
-1.45942e-06
0.000277587
5.13278e-06
-0.000107473
1.1078e-05
-0.000141536
1.6296e-05
-0.000133546
2.27902e-05
-0.000129435
2.95569e-05
-0.000129695
3.57383e-05
-0.000131115
4.11168e-05
-0.000133117
4.54932e-05
-0.000137972
4.83e-05
-0.000148338
4.87317e-05
-0.000162663
4.66167e-05
-0.000175735
4.27133e-05
-0.000180416
3.70557e-05
-0.000175956
2.6929e-05
-0.000183922
1.9855e-05
-0.000168187
2.04211e-05
-0.000134883
3.26098e-05
-9.17171e-05
6.27546e-05
-4.97575e-05
0.000109131
-2.20942e-05
0.000159809
-1.08791e-05
0.000197088
-7.82958e-06
0.000219505
-1.1807e-05
-1.50412e-05
0.000233087
7.39293e-06
-0.000114866
1.15578e-05
-0.000145701
1.60086e-05
-0.000137997
2.19054e-05
-0.000135332
2.79619e-05
-0.000135752
3.35116e-05
-0.000136665
3.82277e-05
-0.000137833
4.13289e-05
-0.000141073
4.16112e-05
-0.000148621
3.83778e-05
-0.00015943
3.20179e-05
-0.000169375
2.45965e-05
-0.000172995
1.74507e-05
-0.00016881
4.75827e-06
-0.000171229
2.39235e-06
-0.000165821
1.25156e-05
-0.000145006
3.55967e-05
-0.000114798
6.64268e-05
-8.05877e-05
9.83362e-05
-5.40037e-05
0.00012699
-3.95326e-05
0.000149133
-2.99734e-05
0.000164948
-2.7622e-05
-2.98952e-05
0.000179802
7.75861e-06
-0.000122624
1.14298e-05
-0.000149372
1.5932e-05
-0.000142499
2.14252e-05
-0.000140826
2.69788e-05
-0.000141305
3.22874e-05
-0.000141974
3.70837e-05
-0.000142629
4.04542e-05
-0.000144444
4.10332e-05
-0.000149199
3.82032e-05
-0.0001566
3.26575e-05
-0.000163829
2.70917e-05
-0.000167429
2.4419e-05
-0.000166138
1.85231e-05
-0.000165333
1.23427e-05
-0.00015964
1.34689e-05
-0.000146132
2.41033e-05
-0.000125433
4.3157e-05
-9.96413e-05
6.63361e-05
-7.71829e-05
9.1197e-05
-6.43935e-05
0.000118833
-5.76092e-05
0.00014629
-5.50795e-05
-5.56858e-05
0.000172081
7.56957e-06
-0.000130194
1.11459e-05
-0.000152948
1.57218e-05
-0.000147075
2.09531e-05
-0.000146057
2.62342e-05
-0.000146587
3.14824e-05
-0.000147222
3.66304e-05
-0.000147777
4.10157e-05
-0.000148829
4.34363e-05
-0.00015162
4.32132e-05
-0.000156377
4.08669e-05
-0.000161483
3.81759e-05
-0.000164738
3.70643e-05
-0.000165026
3.43713e-05
-0.00016264
3.09995e-05
-0.000156269
3.10716e-05
-0.000146204
3.73624e-05
-0.000131724
5.2627e-05
-0.000114906
7.56348e-05
-0.000100191
0.000100968
-8.97269e-05
0.00012693
-8.35708e-05
0.000152024
-8.01743e-05
-7.91615e-05
0.0001755
7.01196e-06
-0.000137206
1.07697e-05
-0.000156706
1.54009e-05
-0.000151706
2.04476e-05
-0.000151104
2.55409e-05
-0.00015168
3.06848e-05
-0.000152366
3.59569e-05
-0.000153049
4.10471e-05
-0.000153919
4.50935e-05
-0.000155666
4.73783e-05
-0.000158662
4.798e-05
-0.000162085
4.76935e-05
-0.000164452
4.74688e-05
-0.000164801
4.72319e-05
-0.000162404
4.83504e-05
-0.000157387
5.17708e-05
-0.000149625
5.94203e-05
-0.000139373
7.25367e-05
-0.000128022
9.00828e-05
-0.000117737
0.000110263
-0.000109907
0.000131592
-0.000104901
0.000153349
-0.000101931
-0.000100762
0.000174949
6.42054e-06
-0.000143626
1.0371e-05
-0.000160656
1.50119e-05
-0.000156347
1.99099e-05
-0.000156002
2.4827e-05
-0.000156597
2.97795e-05
-0.000157318
3.48547e-05
-0.000158125
3.99784e-05
-0.000159043
4.46657e-05
-0.000160354
4.82867e-05
-0.000162283
5.06356e-05
-0.000164434
5.20862e-05
-0.000165902
5.32121e-05
-0.000165927
5.48432e-05
-0.000164035
5.76532e-05
-0.000160198
6.24762e-05
-0.000154448
7.04013e-05
-0.000147298
8.20284e-05
-0.00013965
9.71265e-05
-0.000132835
0.000114876
-0.000127657
0.000134218
-0.000124242
0.000154414
-0.000122127
-0.000121342
0.000174995
5.91356e-06
-0.00014954
9.99179e-06
-0.000164735
1.45857e-05
-0.000160941
1.93458e-05
-0.000160762
2.41031e-05
-0.000161354
2.88539e-05
-0.000162069
3.3633e-05
-0.000162904
3.84505e-05
-0.00016386
4.30781e-05
-0.000164981
4.71113e-05
-0.000166316
5.03458e-05
-0.000167668
5.29909e-05
-0.000168547
5.55042e-05
-0.000168441
5.84931e-05
-0.000167024
6.26237e-05
-0.000164328
6.86697e-05
-0.000160494
7.72566e-05
-0.000155885
8.87371e-05
-0.00015113
0.000102837
-0.000146934
0.000118982
-0.000143802
0.000136593
-0.000141853
0.000155254
-0.000140788
-0.000140799
0.00017471
5.50005e-06
-0.00015504
9.63394e-06
-0.000168868
1.41499e-05
-0.000165457
1.87783e-05
-0.00016539
2.33993e-05
-0.000165975
2.79983e-05
-0.000166668
3.2571e-05
-0.000167476
3.7116e-05
-0.000168405
4.15566e-05
-0.000169422
4.57232e-05
-0.000170482
4.95185e-05
-0.000171464
5.30877e-05
-0.000172117
5.678e-05
-0.000172133
6.1089e-05
-0.000171333
6.65016e-05
-0.000169741
7.34949e-05
-0.000167487
8.24388e-05
-0.000164829
9.3477e-05
-0.000162168
0.000106518
-0.000159975
0.000121336
-0.00015862
0.00013763
-0.000158147
0.000155139
-0.000158297
-0.000159362
0.000173702
5.16654e-06
-0.000160207
9.29362e-06
-0.000172995
1.37139e-05
-0.000169877
1.82161e-05
-0.000169892
2.27163e-05
-0.000170476
2.7207e-05
-0.000171159
3.16754e-05
-0.000171945
3.61079e-05
-0.000172838
4.04875e-05
-0.000173801
4.47847e-05
-0.00017478
4.89995e-05
-0.000175678
5.32446e-05
-0.000176362
5.77792e-05
-0.000176667
6.29485e-05
-0.000176502
6.90825e-05
-0.000175875
7.64854e-05
-0.00017489
8.54041e-05
-0.000173748
9.5989e-05
-0.000172753
0.000108266
-0.000172252
0.000122138
-0.000172492
0.000137426
-0.000173436
0.000153986
-0.000174857
-0.000177141
0.000171766
4.89357e-06
-0.0001651
8.96521e-06
-0.000177067
1.32758e-05
-0.000174187
1.76529e-05
-0.000174269
2.20359e-05
-0.000174859
2.64276e-05
-0.000175551
3.08283e-05
-0.000176345
3.52294e-05
-0.000177239
3.96346e-05
-0.000178207
4.40599e-05
-0.000179205
4.85517e-05
-0.00018017
5.32143e-05
-0.000181024
5.82354e-05
-0.000181688
6.38524e-05
-0.000182119
7.03093e-05
-0.000182332
7.78357e-05
-0.000182416
8.66246e-05
-0.000182536
9.68134e-05
-0.000182942
0.000108448
-0.000183887
0.000121497
-0.00018554
0.000135885
-0.000187824
0.000151568
-0.000190541
-0.000194149
0.000168576
4.66085e-06
-0.000169761
8.64104e-06
-0.000181047
1.28306e-05
-0.000178377
1.70787e-05
-0.000178518
2.13408e-05
-0.000179121
2.56267e-05
-0.000179836
2.9947e-05
-0.000180666
3.43093e-05
-0.000181601
3.87269e-05
-0.000182624
4.3229e-05
-0.000183707
4.78731e-05
-0.000184814
5.27549e-05
-0.000185906
5.80171e-05
-0.000186951
6.38354e-05
-0.000187937
7.03963e-05
-0.000188892
7.78797e-05
-0.0001899
8.64414e-05
-0.000191098
9.61916e-05
-0.000192692
0.000107191
-0.000194886
0.000119454
-0.000197803
0.000132981
-0.000201351
0.000147805
-0.000205365
-0.000210348
0.000164004
4.45241e-06
-0.000174213
8.31474e-06
-0.00018491
1.23714e-05
-0.000182434
1.6484e-05
-0.00018263
2.06177e-05
-0.000183254
2.47859e-05
-0.000184005
2.90046e-05
-0.000184884
3.32919e-05
-0.000185888
3.76713e-05
-0.000187004
4.21787e-05
-0.000188214
4.68698e-05
-0.000189505
5.18269e-05
-0.000190863
5.71615e-05
-0.000192285
6.30075e-05
-0.000193783
6.95127e-05
-0.000195398
7.68175e-05
-0.000197204
8.50476e-05
-0.000199328
9.42938e-05
-0.000201938
0.000104624
-0.000205216
0.000116086
-0.000209265
0.000128726
-0.000213992
0.000142631
-0.000219269
-0.00022564
0.000157923
4.2572e-06
-0.00017847
7.98222e-06
-0.000188635
1.18947e-05
-0.000186346
1.58617e-05
-0.000186597
1.98561e-05
-0.000187249
2.38932e-05
-0.000188042
2.79909e-05
-0.000188982
3.21717e-05
-0.000190069
3.64644e-05
-0.000191296
4.09075e-05
-0.000192657
4.55524e-05
-0.00019415
5.04684e-05
-0.000195779
5.57441e-05
-0.000197561
6.14847e-05
-0.000199524
6.78043e-05
-0.000201717
7.48143e-05
-0.000204214
8.26106e-05
-0.000207124
9.1275e-05
-0.000210602
0.000100877
-0.000214818
0.00011148
-0.000219867
0.000123155
-0.000225667
0.000136005
-0.000232119
-0.000239816
0.000150181
4.06764e-06
-0.000182538
7.63977e-06
-0.000192207
1.13964e-05
-0.000190103
1.52062e-05
-0.000190407
1.90476e-05
-0.00019109
2.2937e-05
-0.000191931
2.68932e-05
-0.000192938
3.09387e-05
-0.000194115
3.51025e-05
-0.00019546
3.94217e-05
-0.000196977
4.39431e-05
-0.000198671
4.87248e-05
-0.000200561
5.3837e-05
-0.000202673
5.93622e-05
-0.000205049
6.53873e-05
-0.000207742
7.1997e-05
-0.000210824
7.92721e-05
-0.000214399
8.72819e-05
-0.000218612
9.60869e-05
-0.000223623
0.000105752
-0.000229532
0.000116356
-0.000236271
0.000128003
-0.000243766
-0.000252638
0.000140825
3.87798e-06
-0.000186416
7.28398e-06
-0.000195613
1.08736e-05
-0.000193692
1.45143e-05
-0.000194048
1.81882e-05
-0.000194764
2.19116e-05
-0.000195654
2.57029e-05
-0.00019673
2.95837e-05
-0.000197996
3.35807e-05
-0.000199457
3.77266e-05
-0.000201123
4.2062e-05
-0.000203007
4.66347e-05
-0.000205134
5.14998e-05
-0.000207539
5.67202e-05
-0.000210269
6.23614e-05
-0.000213383
6.84915e-05
-0.000216954
7.51703e-05
-0.000221078
8.24543e-05
-0.000225896
9.0391e-05
-0.00023156
9.90419e-05
-0.000238183
0.000108477
-0.000245706
0.000118788
-0.000254078
-0.000263925
0.000130075
3.68434e-06
-0.0001901
6.9131e-06
-0.000198841
1.03251e-05
-0.000197104
1.37849e-05
-0.000197507
1.72773e-05
-0.000198256
2.08175e-05
-0.000199195
2.44223e-05
-0.000200335
2.81112e-05
-0.000201684
3.19073e-05
-0.000203253
3.58385e-05
-0.000205054
3.99375e-05
-0.000207106
4.42422e-05
-0.000209439
4.87952e-05
-0.000212091
5.36425e-05
-0.000215117
5.88338e-05
-0.000218575
6.44168e-05
-0.000222537
7.04383e-05
-0.0002271
7.69349e-05
-0.000232393
8.39459e-05
-0.000238571
9.15152e-05
-0.000245752
9.96974e-05
-0.000253888
0.000108553
-0.000262933
-0.000273518
0.000118146
3.48417e-06
-0.000193585
6.52595e-06
-0.000201883
9.75117e-06
-0.00020033
1.30191e-05
-0.000200775
1.63174e-05
-0.000201555
1.9659e-05
-0.000202536
2.30587e-05
-0.000203734
2.65328e-05
-0.000205159
3.01004e-05
-0.000206821
3.37833e-05
-0.000208737
3.76067e-05
-0.000210929
4.15987e-05
-0.000213431
4.57908e-05
-0.000216283
5.02141e-05
-0.00021954
5.49036e-05
-0.000223264
5.9891e-05
-0.000227524
6.52081e-05
-0.000232417
7.08764e-05
-0.000238061
7.6912e-05
-0.000244607
8.33432e-05
-0.000252183
9.02063e-05
-0.000260751
9.75314e-05
-0.000270259
-0.000281293
0.000105307
3.27452e-06
-0.000196859
6.12387e-06
-0.000204733
9.15423e-06
-0.00020336
1.22209e-05
-0.000203842
1.53138e-05
-0.000204648
1.84438e-05
-0.000205666
2.1623e-05
-0.000206913
2.48639e-05
-0.000208399
2.81808e-05
-0.000210138
3.15901e-05
-0.000212146
3.51094e-05
-0.000214449
3.87573e-05
-0.000217078
4.25534e-05
-0.000220079
4.65179e-05
-0.000223504
5.06702e-05
-0.000227416
5.50303e-05
-0.000231885
5.96121e-05
-0.000236998
6.44158e-05
-0.000242865
6.94529e-05
-0.000249644
7.47235e-05
-0.000257454
8.02424e-05
-0.00026627
8.59994e-05
-0.000276015
-0.000287231
9.19374e-05
3.05759e-06
-0.000199917
5.71158e-06
-0.000207387
8.53994e-06
-0.000206188
1.13971e-05
-0.000206699
1.42754e-05
-0.000207526
1.71831e-05
-0.000208574
2.01295e-05
-0.00020986
2.31232e-05
-0.000211393
2.61738e-05
-0.000213188
2.92916e-05
-0.000215264
3.24871e-05
-0.000217644
3.57706e-05
-0.000220362
3.91515e-05
-0.00022346
4.26355e-05
-0.000226988
4.6231e-05
-0.000231012
4.99442e-05
-0.000235598
5.37718e-05
-0.000240826
5.77089e-05
-0.000246802
6.17375e-05
-0.000253672
6.58444e-05
-0.000261561
7.00287e-05
-0.000270455
7.42607e-05
-0.000280248
-0.000291395
7.8424e-05
2.83748e-06
-0.000202754
5.29705e-06
-0.000209846
7.91727e-06
-0.000208809
1.05584e-05
-0.00020934
1.32146e-05
-0.000210182
1.58919e-05
-0.000211251
1.85963e-05
-0.000212564
2.13329e-05
-0.00021413
2.41068e-05
-0.000215962
2.69223e-05
-0.000218079
2.97831e-05
-0.000220505
3.26913e-05
-0.00022327
3.56454e-05
-0.000226414
3.86442e-05
-0.000229987
4.16797e-05
-0.000234047
4.47443e-05
-0.000238662
4.78234e-05
-0.000243905
5.08958e-05
-0.000249874
5.39265e-05
-0.000256703
5.68881e-05
-0.000264522
5.97669e-05
-0.000273333
6.25097e-05
-0.00028299
-0.0002939
6.50147e-05
2.62223e-06
-0.000205376
4.89045e-06
-0.000212114
7.29746e-06
-0.000211216
9.71808e-06
-0.000211761
1.21471e-05
-0.000212611
1.45886e-05
-0.000213693
1.70451e-05
-0.000215021
1.95185e-05
-0.000216603
2.20096e-05
-0.000218453
2.45177e-05
-0.000220587
2.70405e-05
-0.000223027
2.95718e-05
-0.000225801
3.21029e-05
-0.000228945
3.46205e-05
-0.000232505
3.71052e-05
-0.000236532
3.95355e-05
-0.000241092
4.1884e-05
-0.000246254
4.41141e-05
-0.000252104
4.61743e-05
-0.000258763
4.80212e-05
-0.000266369
4.9621e-05
-0.000274933
5.09329e-05
-0.000284302
-0.000294781
5.18147e-05
2.42091e-06
-0.000207797
4.50029e-06
-0.000214194
6.69011e-06
-0.000213405
8.88857e-06
-0.000213959
1.10886e-05
-0.000214811
1.32922e-05
-0.000215896
1.54987e-05
-0.000217227
1.7707e-05
-0.000218811
1.99141e-05
-0.00022066
2.2115e-05
-0.000222788
2.43019e-05
-0.000225214
2.64629e-05
-0.000227962
2.85806e-05
-0.000231063
3.06321e-05
-0.000234556
3.25892e-05
-0.000238489
3.44149e-05
-0.000242918
3.60679e-05
-0.000247907
3.7497e-05
-0.000253533
3.86343e-05
-0.000259901
3.94119e-05
-0.000267147
3.97823e-05
-0.000275304
3.96776e-05
-0.000284197
-0.000294062
3.89584e-05
2.23986e-06
-0.000210037
4.1291e-06
-0.000216083
6.09991e-06
-0.000215376
8.07707e-06
-0.000215936
1.00497e-05
-0.000216784
1.20178e-05
-0.000217864
1.39772e-05
-0.000219187
1.5924e-05
-0.000220758
1.78516e-05
-0.000222588
1.97516e-05
-0.000224688
2.16115e-05
-0.000227074
2.34141e-05
-0.000229765
2.51365e-05
-0.000232785
2.67477e-05
-0.000236167
2.82094e-05
-0.00023995
2.94725e-05
-0.000244181
3.04825e-05
-0.000248917
3.11711e-05
-0.000254222
3.14535e-05
-0.000260183
3.12362e-05
-0.000266929
3.04471e-05
-0.000274514
2.89988e-05
-0.000282749
-0.000291779
2.67155e-05
2.07775e-06
-0.000212115
3.77112e-06
-0.000217776
5.52385e-06
-0.000217129
7.28262e-06
-0.000217695
9.033e-06
-0.000218534
1.07722e-05
-0.000219603
1.24932e-05
-0.000220907
1.41888e-05
-0.000222454
1.58494e-05
-0.000224248
1.7463e-05
-0.000226302
1.90131e-05
-0.000228624
2.04786e-05
-0.00023123
2.18315e-05
-0.000234138
2.30358e-05
-0.000237371
2.40446e-05
-0.000240959
2.47998e-05
-0.000244936
2.52321e-05
-0.000249349
2.52596e-05
-0.00025425
2.47775e-05
-0.000259701
2.36643e-05
-0.000265816
2.18188e-05
-0.000272669
1.91548e-05
-0.000280085
-0.000288031
1.54067e-05
1.9268e-06
-0.000214042
3.41519e-06
-0.000219265
4.95257e-06
-0.000218666
6.49792e-06
-0.000219241
8.0334e-06
-0.00022007
9.5537e-06
-0.000221124
1.10496e-05
-0.000222403
1.2511e-05
-0.000223915
1.39251e-05
-0.000225662
1.52764e-05
-0.000227653
1.65451e-05
-0.000229893
1.77064e-05
-0.000232392
1.87286e-05
-0.00023516
1.95713e-05
-0.000238214
2.01824e-05
-0.00024157
2.04975e-05
-0.000245251
2.04374e-05
-0.000249289
1.98947e-05
-0.000253707
1.87588e-05
-0.000258565
1.68803e-05
-0.000263938
1.41194e-05
-0.000269908
1.03498e-05
-0.000276315
-0.000283028
5.34743e-06
1.77625e-06
-0.000215818
3.05094e-06
-0.000220539
4.37865e-06
-0.000219994
5.71573e-06
-0.000220578
7.04442e-06
-0.000221398
8.3574e-06
-0.000222437
9.64386e-06
-0.00022369
1.08913e-05
-0.000225162
1.20848e-05
-0.000226856
1.32058e-05
-0.000228774
1.42318e-05
-0.000230919
1.51351e-05
-0.000233295
1.58802e-05
-0.000235906
1.64229e-05
-0.000238757
1.67071e-05
-0.000241854
1.66627e-05
-0.000245207
1.61992e-05
-0.000248825
1.52141e-05
-0.000252722
1.35674e-05
-0.000256918
1.1092e-05
-0.000261462
7.61126e-06
-0.000266427
2.98912e-06
-0.000271693
-0.000276962
-3.07659e-06
1.62019e-06
-0.000217438
2.67163e-06
-0.000221591
3.79484e-06
-0.000221117
4.93106e-06
-0.000221714
6.06161e-06
-0.000222529
7.17825e-06
-0.000223553
8.26997e-06
-0.000224781
9.32355e-06
-0.000226216
1.03233e-05
-0.000227856
1.12495e-05
-0.0002297
1.20785e-05
-0.000231748
1.27797e-05
-0.000233996
1.33151e-05
-0.000236441
1.36374e-05
-0.000239079
1.36875e-05
-0.000241905
1.33916e-05
-0.000244911
1.26572e-05
-0.000248091
1.1371e-05
-0.000251435
9.3873e-06
-0.000254934
6.52149e-06
-0.000258596
2.56045e-06
-0.000262466
-2.69035e-06
-0.000266442
-0.000270205
-9.4472e-06
1.45801e-06
-0.000218896
2.27061e-06
-0.000222403
3.19426e-06
-0.000222041
4.13431e-06
-0.000222654