/*--------------------------------*- C++ -*----------------------------------*\
| =========                 |                                                 |
| \\      /  F ield         | OpenFOAM: The Open Source CFD Toolbox           |
|  \\    /   O peration     | Version:  5.x                                   |
|   \\  /    A nd           | Web:      www.OpenFOAM.org                      |
|    \\/     M anipulation  |                                                 |
\*---------------------------------------------------------------------------*/
FoamFile
{
    version     2.0;
    format      ascii;
    class       volVectorField;
    location    "0.3";
    object      U;
}
// * * * * * * * * * * * * * * * * * * * * * * * * * * * * * * * * * * * * * //

dimensions      [0 1 -1 0 0 0 0];

internalField   nonuniform List<vector> 
2268
(
(-0.0202179 0.00258467 0)
(0.00125856 -0.009771 0)
(0.0639119 -0.016409 0)
(0.137378 -0.0176157 0)
(0.209316 -0.0158373 0)
(0.272124 -0.0133071 0)
(0.324247 -0.011157 0)
(0.368202 -0.00967126 0)
(0.407123 -0.00872625 0)
(0.442952 -0.00805821 0)
(0.476241 -0.00740061 0)
(0.506503 -0.00653354 0)
(0.532465 -0.0052906 0)
(0.551987 -0.00349952 0)
(0.563057 -5.17469e-05 0)
(0.556888 0.00657121 0)
(0.522283 0.0179836 0)
(0.444279 0.0348463 0)
(0.306104 0.0518985 0)
(0.108165 0.0543256 0)
(-0.106552 0.0129267 0)
(-0.229078 -0.0246849 0)
(-0.0762217 -0.076026 0)
(-0.0200773 0.00741884 0)
(0.00274036 -0.0297183 0)
(0.0659352 -0.0495184 0)
(0.139516 -0.0530596 0)
(0.21109 -0.0477474 0)
(0.273433 -0.0402207 0)
(0.325363 -0.0338382 0)
(0.369492 -0.0294444 0)
(0.408877 -0.026658 0)
(0.445349 -0.024685 0)
(0.479382 -0.0227292 0)
(0.510443 -0.0201534 0)
(0.537302 -0.0164612 0)
(0.558356 -0.0111614 0)
(0.570935 -0.00288498 0)
(0.577712 0.00999495 0)
(0.58042 0.030596 0)
(0.574635 0.0627176 0)
(0.537924 0.105491 0)
(0.413651 0.143385 0)
(0.196035 0.127216 0)
(-0.114271 0.0478278 0)
(0.0465966 -0.126256 0)
(-0.0191658 0.0116387 0)
(0.005301 -0.0499024 0)
(0.068918 -0.0825316 0)
(0.142032 -0.0880576 0)
(0.212311 -0.0790929 0)
(0.273221 -0.066648 0)
(0.324238 -0.0562191 0)
(0.368167 -0.049129 0)
(0.407932 -0.044671 0)
(0.445147 -0.0414956 0)
(0.48011 -0.0382921 0)
(0.512195 -0.034037 0)
(0.540169 -0.0279606 0)
(0.562445 -0.0193578 0)
(0.577034 -0.00761131 0)
(0.581762 0.00821395 0)
(0.575738 0.0310772 0)
(0.562341 0.0669384 0)
(0.554857 0.123442 0)
(0.534449 0.193615 0)
(0.442935 0.223838 0)
(0.194074 0.122986 0)
(0.138256 -0.0887688 0)
(-0.017897 0.0148015 0)
(0.00914673 -0.0706225 0)
(0.0731585 -0.115533 0)
(0.145412 -0.122467 0)
(0.213809 -0.109678 0)
(0.272795 -0.0924986 0)
(0.322696 -0.07837 0)
(0.366523 -0.068932 0)
(0.406978 -0.0630614 0)
(0.445355 -0.0588346 0)
(0.481701 -0.0544575 0)
(0.515265 -0.0485671 0)
(0.54481 -0.0401809 0)
(0.568802 -0.0284839 0)
(0.585502 -0.0127007 0)
(0.593143 0.00854418 0)
(0.590167 0.0369967 0)
(0.575146 0.0754149 0)
(0.554875 0.129336 0)
(0.547973 0.205733 0)
(0.541152 0.272405 0)
(0.387558 0.21665 0)
(0.226324 0.0226924 0)
(-0.016098 0.0164109 0)
(0.0140894 -0.0919721 0)
(0.0783322 -0.148319 0)
(0.149236 -0.155917 0)
(0.215188 -0.139154 0)
(0.271887 -0.117574 0)
(0.320606 -0.100262 0)
(0.364506 -0.0889437 0)
(0.405959 -0.0819783 0)
(0.445844 -0.0768685 0)
(0.483913 -0.0713884 0)
(0.519277 -0.0639019 0)
(0.550707 -0.0532632 0)
(0.576785 -0.0385672 0)
(0.595989 -0.0189045 0)
(0.606831 0.0069404 0)
(0.608176 0.0405674 0)
(0.598863 0.0839469 0)
(0.578565 0.137894 0)
(0.552402 0.207247 0)
(0.554452 0.290069 0)
(0.46547 0.298907 0)
(0.280605 0.175581 0)
(-0.0136457 0.0160848 0)
(0.019935 -0.114076 0)
(0.0841857 -0.180739 0)
(0.153229 -0.188167 0)
(0.216246 -0.167313 0)
(0.270462 -0.141788 0)
(0.318095 -0.121951 0)
(0.36233 -0.10932 0)
(0.405079 -0.101623 0)
(0.446743 -0.0958108 0)
(0.48676 -0.0893038 0)
(0.524126 -0.080273 0)
(0.557652 -0.0674699 0)
(0.586059 -0.0499285 0)
(0.608028 -0.0267139 0)
(0.622286 0.00333275 0)
(0.627902 0.0415568 0)
(0.623736 0.0897036 0)
(0.610359 0.148476 0)
(0.578369 0.216277 0)
(0.556692 0.303932 0)
(0.490003 0.371901 0)
(0.308204 0.351152 0)
(-0.0107032 0.0139318 0)
(0.026441 -0.137132 0)
(0.0905533 -0.212794 0)
(0.157228 -0.21924 0)
(0.216946 -0.194231 0)
(0.268663 -0.165231 0)
(0.315453 -0.143513 0)
(0.360346 -0.130102 0)
(0.40468 -0.121993 0)
(0.448336 -0.115614 0)
(0.490471 -0.108118 0)
(0.530013 -0.0975687 0)
(0.565857 -0.082679 0)
(0.596865 -0.0624627 0)
(0.621852 -0.035984 0)
(0.639632 -0.00223231 0)
(0.649465 0.0400597 0)
(0.650202 0.0923468 0)
(0.642816 0.15682 0)
(0.618388 0.2308 0)
(0.581826 0.325288 0)
(0.515733 0.435942 0)
(0.35258 0.527566 0)
(-0.0073818 0.010047 0)
(0.0333286 -0.161228 0)
(0.0971832 -0.244407 0)
(0.161145 -0.249052 0)
(0.217489 -0.219953 0)
(0.266952 -0.188039 0)
(0.313285 -0.16505 0)
(0.359201 -0.151287 0)
(0.405393 -0.142973 0)
(0.451248 -0.136073 0)
(0.4957 -0.127563 0)
(0.537675 -0.115483 0)
(0.576181 -0.0985564 0)
(0.61017 -0.0757739 0)
(0.638462 -0.0461621 0)
(0.659885 -0.0087386 0)
(0.673758 0.0374594 0)
(0.679452 0.0935885 0)
(0.676913 0.162421 0)
(0.663649 0.243828 0)
(0.629205 0.349543 0)
(0.573436 0.499853 0)
(0.344868 0.760622 0)
(0.0742564 -0.0312608 0)
(0.205855 -0.0215876 0)
(0.260371 -0.000325494 0)
(0.239764 0.00416348 0)
(0.221365 0.00214079 0)
(0.221012 -0.000112342 0)
(0.229366 -0.00209928 0)
(0.243529 -0.00293766 0)
(0.258679 -0.00254482 0)
(0.270372 -0.00140503 0)
(0.275061 0.000447373 0)
(0.270669 0.00215377 0)
(0.257373 0.00389156 0)
(0.235234 0.00554115 0)
(0.204936 0.00705066 0)
(0.167379 0.00831644 0)
(0.123865 0.0092996 0)
(0.0760096 0.0099667 0)
(0.0255336 0.0104477 0)
(0.0855451 -0.0936086 0)
(0.219899 -0.0584207 0)
(0.265816 0.000433285 0)
(0.24479 0.0096116 0)
(0.228119 0.00394982 0)
(0.229982 -0.00244486 0)
(0.241025 -0.00819867 0)
(0.258107 -0.0104983 0)
(0.276033 -0.0092285 0)
(0.290298 -0.00581058 0)
(0.298435 -0.0008268 0)
(0.299136 0.00475073 0)
(0.290522 0.0106522 0)
(0.271053 0.0165416 0)
(0.240631 0.0220913 0)
(0.199718 0.0269478 0)
(0.149699 0.0308387 0)
(0.092659 0.0335453 0)
(0.0311473 0.0347179 0)
(0.121561 -0.174239 0)
(0.265127 -0.0953305 0)
(0.28301 0.00672738 0)
(0.242881 0.0152525 0)
(0.224629 0.00663274 0)
(0.226926 -0.00491628 0)
(0.238691 -0.0149791 0)
(0.25739 -0.0185865 0)
(0.276686 -0.0164147 0)
(0.291753 -0.0107457 0)
(0.299838 -0.00293184 0)
(0.299457 0.00649665 0)
(0.289742 0.0167259 0)
(0.269648 0.0272161 0)
(0.239068 0.037289 0)
(0.198343 0.0463051 0)
(0.148697 0.053659 0)
(0.0920714 0.0588446 0)
(0.0309238 0.0611379 0)
(0.14631 -0.257531 0)
(0.331745 -0.126196 0)
(0.305924 0.0252537 0)
(0.236185 0.0252875 0)
(0.218006 0.0125631 0)
(0.221026 -0.00768289 0)
(0.234913 -0.0227041 0)
(0.25668 -0.0274034 0)
(0.278302 -0.0241432 0)
(0.294819 -0.0158837 0)
(0.30376 -0.00458953 0)
(0.303598 0.00873181 0)
(0.293571 0.0232262 0)
(0.272848 0.0382037 0)
(0.241485 0.0526777 0)
(0.2 0.0657437 0)
(0.149712 0.0765008 0)
(0.0925992 0.0841403 0)
(0.0310872 0.0875601 0)
(0.130468 -0.364558 0)
(0.377083 -0.132414 0)
(0.328145 0.0499126 0)
(0.220293 0.0351112 0)
(0.206359 0.0216796 0)
(0.21135 -0.0124194 0)
(0.229774 -0.0321234 0)
(0.255984 -0.0374303 0)
(0.280754 -0.0328159 0)
(0.299309 -0.0216426 0)
(0.309548 -0.00668234 0)
(0.310168 0.010813 0)
(0.300477 0.029793 0)
(0.279633 0.0494121 0)
(0.247669 0.068384 0)
(0.205184 0.0855382 0)
(0.15359 0.0996783 0)
(0.094982 0.109739 0)
(0.0318945 0.114249 0)
(0.104757 -0.531576 0)
(0.366297 -0.152259 0)
(0.323694 0.111267 0)
(0.19198 0.058414 0)
(0.188963 0.0330632 0)
(0.195159 -0.0215813 0)
(0.222847 -0.0435472 0)
(0.255221 -0.0490661 0)
(0.283985 -0.0427719 0)
(0.305122 -0.0281909 0)
(0.316984 -0.00925718 0)
(0.318625 0.0126026 0)
(0.309461 0.0362725 0)
(0.288642 0.0607407 0)
(0.256105 0.0844405 0)
(0.212462 0.105885 0)
(0.159179 0.123549 0)
(0.0984863 0.136124 0)
(0.03309 0.141766 0)
(0.083814 -0.67731 0)
(0.271995 -0.220842 0)
(0.230958 0.0293267 0)
(0.10122 0.0919229 0)
(0.159894 0.0508015 0)
(0.174618 -0.0403767 0)
(0.216153 -0.0591285 0)
(0.254765 -0.0633141 0)
(0.288181 -0.0543306 0)
(0.312387 -0.0356783 0)
(0.326096 -0.0124112 0)
(0.328966 0.014018 0)
(0.320459 0.0426 0)
(0.299693 0.0721738 0)
(0.266494 0.100918 0)
(0.221466 0.126942 0)
(0.166122 0.148372 0)
(0.102856 0.163636 0)
(0.0345832 0.170492 0)
(0.0473687 -0.708881 0)
(-0.0674019 -0.0429404 0)
(-0.327777 0.256763 0)
(-0.0453486 0.0058008 0)
(0.128918 0.0224218 0)
(0.158215 -0.0645027 0)
(0.215894 -0.0741483 0)
(0.257385 -0.0804688 0)
(0.294353 -0.0673454 0)
(0.321596 -0.0439663 0)
(0.337147 -0.0162219 0)
(0.341293 0.0150032 0)
(0.333528 0.0487743 0)
(0.31284 0.0836902 0)
(0.278867 0.117747 0)
(0.232173 0.148626 0)
(0.174369 0.174042 0)
(0.108043 0.19215 0)
(0.0363512 0.200304 0)
(-0.00202336 -0.00167097 0)
(0.0441403 -0.201218 0)
(0.107382 -0.292045 0)
(0.166903 -0.291981 0)
(0.218483 -0.2572 0)
(0.265427 -0.222673 0)
(0.311985 -0.199488 0)
(0.360049 -0.186288 0)
(0.409294 -0.178192 0)
(0.458477 -0.17074 0)
(0.50635 -0.160906 0)
(0.551963 -0.146839 0)
(0.594505 -0.127288 0)
(0.633062 -0.101094 0)
(0.6666 -0.0671631 0)
(0.694226 -0.0245458 0)
(0.715334 0.0282125 0)
(0.730079 0.0914793 0)
(0.736967 0.168261 0)
(0.741904 0.259185 0)
(0.733336 0.377829 0)
(0.783164 0.524186 0)
(0.79434 0.880753 0)
(0.00561825 -0.0260318 0)
(0.0592126 -0.258281 0)
(0.120803 -0.353891 0)
(0.173898 -0.345405 0)
(0.219622 -0.304398 0)
(0.264362 -0.269235 0)
(0.312128 -0.248259 0)
(0.363133 -0.237283 0)
(0.415675 -0.230158 0)
(0.46793 -0.222273 0)
(0.51867 -0.210926 0)
(0.567219 -0.194496 0)
(0.613165 -0.171709 0)
(0.656117 -0.141239 0)
(0.695679 -0.10208 0)
(0.732249 -0.0544411 0)
(0.76577 0.000376997 0)
(0.796387 0.0637872 0)
(0.822559 0.141102 0)
(0.850131 0.229779 0)
(0.876174 0.336045 0)
(0.942994 0.447003 0)
(1.04161 0.625715 0)
(0.014608 -0.062909 0)
(0.0753172 -0.319595 0)
(0.131794 -0.410549 0)
(0.176363 -0.39179 0)
(0.216811 -0.347888 0)
(0.26048 -0.316046 0)
(0.309287 -0.299395 0)
(0.361309 -0.290846 0)
(0.414032 -0.28379 0)
(0.465855 -0.274196 0)
(0.516149 -0.26009 0)
(0.56479 -0.239878 0)
(0.61246 -0.212835 0)
(0.659784 -0.178269 0)
(0.706685 -0.135323 0)
(0.752483 -0.0826813 0)
(0.797196 -0.0188558 0)
(0.843739 0.0617757 0)
(0.885488 0.150812 0)
(0.921887 0.241836 0)
(0.962908 0.328144 0)
(1.01858 0.40309 0)
(1.10496 0.461692 0)
(0.025301 -0.113338 0)
(0.0963114 -0.381419 0)
(0.141827 -0.456593 0)
(0.173041 -0.429026 0)
(0.208317 -0.387419 0)
(0.251913 -0.361604 0)
(0.301703 -0.34897 0)
(0.354321 -0.341398 0)
(0.407959 -0.333497 0)
(0.462411 -0.322772 0)
(0.518867 -0.308539 0)
(0.57826 -0.289624 0)
(0.641226 -0.267851 0)
(0.709254 -0.242274 0)
(0.78429 -0.211908 0)
(0.86482 -0.174425 0)
(0.944088 -0.12503 0)
(1.00296 -0.0586198 0)
(1.03316 0.0183337 0)
(1.04445 0.102895 0)
(1.05705 0.191196 0)
(1.08099 0.280894 0)
(1.13496 0.350265 0)
(0.0398808 -0.188091 0)
(0.134948 -0.437208 0)
(0.162406 -0.483885 0)
(0.172242 -0.456229 0)
(0.203938 -0.427101 0)
(0.252864 -0.411509 0)
(0.310138 -0.404815 0)
(0.37167 -0.401674 0)
(0.437426 -0.39909 0)
(0.510237 -0.396286 0)
(0.596567 -0.394229 0)
(0.693153 -0.391461 0)
(0.795368 -0.383313 0)
(0.911287 -0.367106 0)
(1.04265 -0.336736 0)
(1.17962 -0.280367 0)
(1.30164 -0.18901 0)
(1.37179 -0.0446647 0)
(1.34825 0.0956494 0)
(1.27989 0.192439 0)
(1.21513 0.250537 0)
(1.17445 0.291669 0)
(1.17271 0.321911 0)
(0.0684656 -0.291887 0)
(0.195829 -0.502094 0)
(0.204801 -0.497934 0)
(0.19107 -0.480593 0)
(0.226324 -0.478109 0)
(0.289198 -0.479832 0)
(0.360398 -0.482015 0)
(0.437899 -0.486179 0)
(0.525782 -0.492764 0)
(0.634204 -0.504687 0)
(0.775427 -0.526926 0)
(0.90768 -0.517671 0)
(1.06768 -0.494279 0)
(1.21228 -0.464621 0)
(1.35561 -0.418757 0)
(1.47478 -0.333493 0)
(1.54029 -0.213546 0)
(1.56578 -0.0118709 0)
(1.54907 0.18121 0)
(1.50134 0.290139 0)
(1.46096 0.350378 0)
(1.36306 0.368226 0)
(1.25456 0.346435 0)
(0.0844838 -0.430242 0)
(0.230426 -0.614791 0)
(0.258683 -0.489004 0)
(0.243957 -0.488328 0)
(0.288972 -0.535274 0)
(0.357906 -0.556619 0)
(0.415048 -0.558627 0)
(0.46955 -0.557822 0)
(0.52984 -0.565882 0)
(0.600857 -0.593028 0)
(0.695993 -0.616102 0)
(0.837558 -0.5559 0)
(1.00376 -0.5796 0)
(1.17067 -0.596413 0)
(1.33352 -0.564935 0)
(1.46677 -0.454865 0)
(1.54517 -0.281265 0)
(1.56802 -0.0757973 0)
(1.55788 0.14438 0)
(1.51555 0.325401 0)
(1.4496 0.427704 0)
(1.39845 0.500284 0)
(1.35644 0.479253 0)
(0.0075146 -0.65943 0)
(0.0617167 -0.655315 0)
(0.170452 -0.493762 0)
(0.210614 -0.494925 0)
(0.231419 -0.561119 0)
(0.258261 -0.554 0)
(0.298898 -0.556843 0)
(0.347933 -0.570178 0)
(0.412002 -0.609478 0)
(0.501223 -0.680231 0)
(0.617888 -0.757124 0)
(0.755071 -0.806252 0)
(0.903367 -0.830479 0)
(1.05946 -0.837456 0)
(1.2151 -0.76712 0)
(1.36377 -0.597679 0)
(1.45647 -0.359559 0)
(1.48977 -0.0761185 0)
(1.45011 0.194388 0)
(1.34445 0.397255 0)
(1.25141 0.478753 0)
(1.2513 0.470172 0)
(1.34867 0.403863 0)
(-0.0372285 -0.571658 0)
(-0.0396728 -0.556232 0)
(0.0315611 -0.58852 0)
(0.112992 -0.583574 0)
(0.168065 -0.597267 0)
(0.208032 -0.61197 0)
(0.246889 -0.629683 0)
(0.292998 -0.661045 0)
(0.353314 -0.721517 0)
(0.431325 -0.810665 0)
(0.520544 -0.89836 0)
(0.610793 -0.941601 0)
(0.717862 -0.941469 0)
(0.8058 -0.972114 0)
(0.882009 -0.921533 0)
(1.02248 -0.73311 0)
(1.09656 -0.430687 0)
(1.12598 -0.0886953 0)
(1.11333 0.243811 0)
(1.07271 0.468866 0)
(1.10723 0.496108 0)
(1.25379 0.382757 0)
(1.4338 0.249093 0)
(-0.0259988 -0.546799 0)
(0.00963095 -0.730521 0)
(0.0616287 -0.683467 0)
(0.106206 -0.648782 0)
(0.149902 -0.646474 0)
(0.19032 -0.658061 0)
(0.226847 -0.675169 0)
(0.26413 -0.708031 0)
(0.305117 -0.773415 0)
(0.348565 -0.866624 0)
(0.385148 -0.955748 0)
(0.410772 -0.995578 0)
(0.472262 -0.98755 0)
(0.44727 -1.05734 0)
(0.468179 -0.964261 0)
(0.507908 -0.731964 0)
(0.504223 -0.410421 0)
(0.546046 -0.0256835 0)
(0.626117 0.289237 0)
(0.775471 0.41055 0)
(1.02139 0.313751 0)
(1.2493 0.150908 0)
(1.4212 0.0257901 0)
(0.0152383 -0.562112 0)
(0.0453552 -0.750905 0)
(0.0702025 -0.708743 0)
(0.104412 -0.682158 0)
(0.140962 -0.683246 0)
(0.176448 -0.692525 0)
(0.207812 -0.705594 0)
(0.235711 -0.735837 0)
(0.257016 -0.798899 0)
(0.266943 -0.885544 0)
(0.257646 -0.964542 0)
(0.233709 -0.99281 0)
(0.25052 -0.969839 0)
(0.134342 -1.02255 0)
(0.118639 -0.902711 0)
(0.0941162 -0.677486 0)
(0.140648 -0.396878 0)
(0.23907 -0.15369 0)
(0.458036 0.0119694 0)
(0.725744 0.0415253 0)
(0.968167 0.000592534 0)
(1.13025 -0.0442987 0)
(1.22208 -0.0514413 0)
(0.0297833 -0.597648 0)
(0.053603 -0.774898 0)
(0.0698128 -0.732453 0)
(0.101366 -0.715124 0)
(0.134644 -0.717431 0)
(0.165922 -0.723533 0)
(0.194358 -0.731908 0)
(0.217957 -0.754195 0)
(0.229266 -0.803407 0)
(0.221421 -0.871393 0)
(0.190717 -0.932085 0)
(0.148161 -0.950866 0)
(0.133157 -0.922974 0)
(0.0421448 -0.943393 0)
(0.00446065 -0.878629 0)
(0.0190418 -0.730837 0)
(0.125028 -0.547957 0)
(0.273154 -0.377774 0)
(0.442226 -0.257133 0)
(0.607204 -0.173368 0)
(0.746463 -0.0980197 0)
(0.851453 -0.0727255 0)
(0.925986 -0.088148 0)
(0.0293851 -0.641326 0)
(0.0539958 -0.796949 0)
(0.0703565 -0.756991 0)
(0.10016 -0.745779 0)
(0.130572 -0.748251 0)
(0.159588 -0.75214 0)
(0.18762 -0.756395 0)
(0.212005 -0.769197 0)
(0.224681 -0.801427 0)
(0.218158 -0.849397 0)
(0.192014 -0.894145 0)
(0.157984 -0.912661 0)
(0.138033 -0.896114 0)
(0.116351 -0.900784 0)
(0.0747353 -0.882564 0)
(0.0600902 -0.801145 0)
(0.0886332 -0.661274 0)
(0.178307 -0.480676 0)
(0.290105 -0.328665 0)
(0.421693 -0.242652 0)
(0.563073 -0.20822 0)
(0.71083 -0.213284 0)
(0.854262 -0.231309 0)
(0.0264342 -0.683215 0)
(0.0521731 -0.81553 0)
(0.0699758 -0.781268 0)
(0.0984117 -0.774381 0)
(0.12708 -0.777047 0)
(0.15511 -0.780303 0)
(0.183464 -0.782987 0)
(0.210845 -0.7896 0)
(0.230872 -0.808361 0)
(0.236488 -0.839654 0)
(0.227378 -0.872067 0)
(0.211153 -0.891364 0)
(0.199213 -0.891042 0)
(0.192193 -0.88223 0)
(0.172295 -0.85078 0)
(0.159975 -0.786742 0)
(0.175823 -0.693474 0)
(0.234355 -0.579401 0)
(0.339725 -0.484298 0)
(0.471664 -0.43024 0)
(0.611615 -0.397891 0)
(0.74942 -0.378373 0)
(0.879216 -0.371442 0)
(0.0230145 -0.722702 0)
(0.0491935 -0.835233 0)
(0.0688941 -0.806114 0)
(0.0961821 -0.801968 0)
(0.123722 -0.804937 0)
(0.150972 -0.808419 0)
(0.178949 -0.811548 0)
(0.207754 -0.816002 0)
(0.233573 -0.826932 0)
(0.250772 -0.846579 0)
(0.257504 -0.869117 0)
(0.257117 -0.884748 0)
(0.253838 -0.887745 0)
(0.251306 -0.87574 0)
(0.252807 -0.846148 0)
(0.265794 -0.800383 0)
(0.294014 -0.737235 0)
(0.349297 -0.667472 0)
(0.432474 -0.600365 0)
(0.535207 -0.546978 0)
(0.647857 -0.511941 0)
(0.764015 -0.492242 0)
(0.880495 -0.485488 0)
(0.0200252 -0.75871 0)
(0.0461008 -0.856055 0)
(0.0673341 -0.831186 0)
(0.0937057 -0.828738 0)
(0.120295 -0.831888 0)
(0.146629 -0.835695 0)
(0.173416 -0.83976 0)
(0.201178 -0.844385 0)
(0.228336 -0.851998 0)
(0.251104 -0.864446 0)
(0.266766 -0.878933 0)
(0.276012 -0.889161 0)
(0.281442 -0.890446 0)
(0.287547 -0.880205 0)
(0.299753 -0.857696 0)
(0.3195 -0.821595 0)
(0.353519 -0.774953 0)
(0.405326 -0.723114 0)
(0.477295 -0.676743 0)
(0.566365 -0.642617 0)
(0.666944 -0.620859 0)
(0.773386 -0.607445 0)
(0.8832 -0.601705 0)
(0.0177758 -0.791701 0)
(0.0433908 -0.877769 0)
(0.0654995 -0.856105 0)
(0.0910692 -0.854752 0)
(0.116791 -0.857931 0)
(0.142253 -0.861807 0)
(0.167754 -0.866309 0)
(0.193589 -0.87143 0)
(0.219334 -0.877778 0)
(0.242953 -0.886033 0)
(0.262294 -0.894863 0)
(0.277331 -0.900785 0)
(0.29028 -0.900477 0)
(0.304362 -0.891874 0)
(0.322811 -0.874416 0)
(0.34977 -0.84894 0)
(0.388699 -0.817769 0)
(0.442571 -0.785708 0)
(0.511569 -0.757371 0)
(0.593109 -0.735518 0)
(0.684333 -0.720795 0)
(0.781649 -0.711589 0)
(0.884484 -0.708823 0)
(0.0161236 -0.822273 0)
(0.0410817 -0.899995 0)
(0.063545 -0.880682 0)
(0.088394 -0.88005 0)
(0.113332 -0.883193 0)
(0.138076 -0.886954 0)
(0.162681 -0.891378 0)
(0.187147 -0.896501 0)
(0.211352 -0.902178 0)
(0.234565 -0.908308 0)
(0.255796 -0.914134 0)
(0.275066 -0.917915 0)
(0.29393 -0.917521 0)
(0.314901 -0.911633 0)
(0.340628 -0.90046 0)
(0.373617 -0.88469 0)
(0.416267 -0.865919 0)
(0.469873 -0.846582 0)
(0.534578 -0.829683 0)
(0.609442 -0.817679 0)
(0.693409 -0.811149 0)
(0.783903 -0.808606 0)
(0.881365 -0.81128 0)
(0.0149071 -0.850898 0)
(0.0391121 -0.92233 0)
(0.0615468 -0.904788 0)
(0.0857209 -0.904662 0)
(0.109944 -0.907782 0)
(0.134076 -0.911444 0)
(0.15813 -0.915684 0)
(0.182005 -0.920547 0)
(0.205609 -0.925814 0)
(0.228839 -0.931152 0)
(0.251535 -0.935994 0)
(0.273916 -0.939417 0)
(0.297088 -0.940267 0)
(0.322812 -0.93786 0)
(0.35291 -0.932182 0)
(0.38903 -0.923809 0)
(0.432685 -0.913933 0)
(0.484904 -0.904444 0)
(0.546251 -0.897556 0)
(0.616469 -0.894846 0)
(0.695109 -0.896263 0)
(0.780154 -0.900482 0)
(0.87303 -0.90937 0)
(0.0139873 -0.877935 0)
(0.0373955 -0.944483 0)
(0.0595267 -0.92834 0)
(0.0830318 -0.928603 0)
(0.106571 -0.931742 0)
(0.130113 -0.935414 0)
(0.153706 -0.939625 0)
(0.177309 -0.944371 0)
(0.200875 -0.949512 0)
(0.224459 -0.954765 0)
(0.248233 -0.959705 0)
(0.27258 -0.963792 0)
(0.298324 -0.966438 0)
(0.326665 -0.967281 0)
(0.358896 -0.966374 0)
(0.396228 -0.964216 0)
(0.439851 -0.961762 0)
(0.490654 -0.960499 0)
(0.549193 -0.962001 0)
(0.615469 -0.967351 0)
(0.68938 -0.976202 0)
(0.76947 -0.987416 0)
(0.858056 -1.00329 0)
(0.0132487 -0.903641 0)
(0.0358403 -0.966223 0)
(0.0574736 -0.951269 0)
(0.0802879 -0.951867 0)
(0.103138 -0.955066 0)
(0.126065 -0.958842 0)
(0.149141 -0.963194 0)
(0.17241 -0.968083 0)
(0.195907 -0.973401 0)
(0.219732 -0.978967 0)
(0.244132 -0.984521 0)
(0.269539 -0.989766 0)
(0.296604 -0.994427 0)
(0.326201 -0.99837 0)
(0.359281 -1.00169 0)
(0.396789 -1.00484 0)
(0.439689 -1.00866 0)
(0.488729 -1.01433 0)
(0.544388 -1.02306 0)
(0.606835 -1.03562 0)
(0.676223 -1.05153 0)
(0.751584 -1.0698 0)
(0.835861 -1.09303 0)
(0.0126122 -0.92818 0)
(0.0343738 -0.987388 0)
(0.0553689 -0.973514 0)
(0.0774528 -0.974423 0)
(0.0995814 -0.977722 0)
(0.121848 -0.981664 0)
(0.14433 -0.986262 0)
(0.167114 -0.991476 0)
(0.190305 -0.99722 0)
(0.214053 -1.00339 0)
(0.238619 -1.00985 0)
(0.264399 -1.01648 0)
(0.291916 -1.02319 0)
(0.321829 -1.03 0)
(0.354851 -1.03708 0)
(0.391752 -1.04487 0)
(0.433305 -1.05406 0)
(0.480129 -1.06565 0)
(0.532647 -1.08066 0)
(0.591128 -1.09968 0)
(0.655897 -1.12221 0)
(0.726392 -1.14745 0)
(0.805884 -1.17825 0)
(0.0120317 -0.951647 0)
(0.0329442 -1.00786 0)
(0.053194 -0.995015 0)
(0.0744965 -0.996224 0)
(0.0958519 -0.99966 0)
(0.117395 -1.00382 0)
(0.139203 -1.00872 0)
(0.161378 -1.01436 0)
(0.18405 -1.02068 0)
(0.207402 -1.02762 0)
(0.231695 -1.03515 0)
(0.257273 -1.04325 0)
(0.284561 -1.05196 0)
(0.314068 -1.0614 0)
(0.346332 -1.07182 0)
(0.381963 -1.0836 0)
(0.421584 -1.09739 0)
(0.465707 -1.11403 0)
(0.514723 -1.13449 0)
(0.568947 -1.15927 0)
(0.628749 -1.1879 0)
(0.693895 -1.21979 0)
(0.767625 -1.25802 0)
(0.0114787 -0.974088 0)
(0.0315128 -1.02755 0)
(0.050932 -1.01571 0)
(0.0713951 -1.01721 0)
(0.0919131 -1.02081 0)
(0.112652 -1.02522 0)
(0.133689 -1.03048 0)
(0.155127 -1.03659 0)
(0.177097 -1.04354 0)
(0.199781 -1.05133 0)
(0.223428 -1.05996 0)
(0.24834 -1.06951 0)
(0.27486 -1.08009 0)
(0.303371 -1.0919 0)
(0.334289 -1.10522 0)
(0.368086 -1.12043 0)
(0.405267 -1.13812 0)
(0.446241 -1.15907 0)
(0.491371 -1.1842 0)
(0.540963 -1.21401 0)
(0.595334 -1.24809 0)
(0.654502 -1.28599 0)
(0.721389 -1.33101 0)
(0.0109335 -0.995515 0)
(0.0300504 -1.04638 0)
(0.0485699 -1.03553 0)
(0.0681325 -1.03732 0)
(0.0877451 -1.0411 0)
(0.107593 -1.04577 0)
(0.12775 -1.0514 0)
(0.148312 -1.058 0)
(0.169401 -1.0656 0)
(0.191183 -1.07421 0)
(0.213881 -1.08391 0)
(0.237753 -1.09482 0)
(0.263069 -1.10708 0)
(0.290121 -1.12096 0)
(0.31922 -1.13676 0)
(0.350735 -1.15486 0)
(0.385054 -1.1758 0)
(0.422484 -1.20037 0)
(0.463361 -1.2294 0)
(0.507922 -1.26346 0)
(0.556406 -1.3022 0)
(0.609 -1.34529 0)
(0.66814 -1.39612 0)
(0.0103823 -1.01591 0)
(0.0285368 -1.06429 0)
(0.0461004 -1.05442 0)
(0.0647018 -1.05648 0)
(0.0833427 -1.06044 0)
(0.102216 -1.06538 0)
(0.121389 -1.07137 0)
(0.140944 -1.07844 0)
(0.16099 -1.08665 0)
(0.181671 -1.09603 0)
(0.203173 -1.10671 0)
(0.225708 -1.11881 0)
(0.24948 -1.13254 0)
(0.27471 -1.14817 0)
(0.301624 -1.16603 0)
(0.330506 -1.18649 0)
(0.361613 -1.21009 0)
(0.395183 -1.23758 0)
(0.431487 -1.26974 0)
(0.470655 -1.30723 0)
(0.512867 -1.34975 0)
(0.558368 -1.39703 0)
(0.608986 -1.4525 0)
(0.00981329 -1.03525 0)
(0.0269594 -1.0812 0)
(0.0435236 -1.07233 0)
(0.0611064 -1.07463 0)
(0.0787144 -1.07876 0)
(0.0965385 -1.08395 0)
(0.114636 -1.09027 0)
(0.133073 -1.09778 0)
(0.151941 -1.10653 0)
(0.171357 -1.11659 0)
(0.191468 -1.1281 0)
(0.212437 -1.1412 0)
(0.234408 -1.15614 0)
(0.257542 -1.1732 0)
(0.282004 -1.1927 0)
(0.307978 -1.21502 0)
(0.335611 -1.2407 0)
(0.365095 -1.27039 0)
(0.396573 -1.30492 0)
(0.430089 -1.34499 0)
(0.465732 -1.39031 0)
(0.503738 -1.44068 0)
(0.54528 -1.49938 0)
(0.00921791 -1.05348 0)
(0.0253161 -1.09708 0)
(0.0408513 -1.0892 0)
(0.0573632 -1.09171 0)
(0.0738828 -1.096 0)
(0.0905926 -1.10141 0)
(0.107537 -1.10802 0)
(0.124766 -1.11589 0)
(0.14235 -1.1251 0)
(0.160375 -1.13572 0)
(0.178949 -1.1479 0)
(0.198186 -1.16181 0)
(0.218176 -1.17769 0)
(0.239027 -1.19581 0)
(0.260845 -1.21653 0)
(0.283718 -1.24022 0)
(0.307725 -1.26737 0)
(0.332967 -1.2986 0)
(0.359452 -1.33476 0)
(0.387185 -1.37651 0)
(0.416112 -1.42367 0)
(0.446454 -1.47591 0)
(0.478787 -1.53629 0)
(0.00860024 -1.07055 0)
(0.0236231 -1.11191 0)
(0.0381098 -1.10499 0)
(0.0535069 -1.10769 0)
(0.0688889 -1.1121 0)
(0.0844314 -1.11769 0)
(0.100159 -1.12454 0)
(0.116111 -1.13271 0)
(0.132331 -1.14227 0)
(0.148875 -1.15332 0)
(0.165811 -1.166 0)
(0.183206 -1.18048 0)
(0.201108 -1.19702 0)
(0.219563 -1.21587 0)
(0.238619 -1.23739 0)
(0.258294 -1.26195 0)
(0.278597 -1.29 0)
(0.299514 -1.32212 0)
(0.320971 -1.35914 0)
(0.342897 -1.40172 0)
(0.365118 -1.44977 0)
(0.38789 -1.50277 0)
(0.411295 -1.56342 0)
(0.00797885 -1.08645 0)
(0.0219181 -1.1257 0)
(0.0353423 -1.1197 0)
(0.0495917 -1.12252 0)
(0.0637944 -1.12704 0)
(0.0781286 -1.13276 0)
(0.0925918 -1.13979 0)
(0.107215 -1.14817 0)
(0.122014 -1.15798 0)
(0.137019 -1.16932 0)
(0.152259 -1.18233 0)
(0.167754 -1.19717 0)
(0.183516 -1.21408 0)
(0.199533 -1.23332 0)
(0.215793 -1.25522 0)
(0.232256 -1.28017 0)
(0.248844 -1.30856 0)
(0.265454 -1.34095 0)
(0.281951 -1.3781 0)
(0.298133 -1.42069 0)
(0.313771 -1.46872 0)
(0.329173 -1.52148 0)
(0.344045 -1.58132 0)
(0.00738626 -1.10117 0)
(0.0202549 -1.13845 0)
(0.0326009 -1.13327 0)
(0.0456848 -1.13618 0)
(0.0586764 -1.14076 0)
(0.0717756 -1.14658 0)
(0.0849412 -1.15372 0)
(0.0982007 -1.16223 0)
(0.111546 -1.17219 0)
(0.124981 -1.18369 0)
(0.138501 -1.19685 0)
(0.152086 -1.21183 0)
(0.165703 -1.22885 0)
(0.179303 -1.24816 0)
(0.192809 -1.27006 0)
(0.206115 -1.29492 0)
(0.219073 -1.32312 0)
(0.231488 -1.35515 0)
(0.243158 -1.39172 0)
(0.253771 -1.43355 0)
(0.263014 -1.48067 0)
(0.271227 -1.53231 0)
(0.277805 -1.59037 0)
(0.00686187 -1.11472 0)
(0.0186885 -1.15014 0)
(0.0299284 -1.14563 0)
(0.0418462 -1.1486 0)
(0.0536096 -1.15321 0)
(0.0654648 -1.15906 0)
(0.0773205 -1.16625 0)
(0.0892038 -1.17481 0)
(0.101084 -1.18482 0)
(0.112943 -1.19634 0)
(0.124747 -1.2095 0)
(0.136446 -1.22443 0)
(0.147965 -1.24132 0)
(0.159216 -1.2604 0)
(0.170066 -1.28194 0)
(0.18035 -1.30628 0)
(0.189845 -1.33378 0)
(0.198272 -1.36487 0)
(0.205347 -1.40017 0)
(0.21066 -1.44044 0)
(0.213772 -1.48579 0)
(0.215007 -1.53534 0)
(0.213457 -1.59065 0)
(0.00642978 -1.12719 0)
(0.0172468 -1.16078 0)
(0.0273389 -1.15678 0)
(0.0381053 -1.15979 0)
(0.048642 -1.16438 0)
(0.0592643 -1.17022 0)
(0.0698242 -1.17739 0)
(0.0803468 -1.18592 0)
(0.090781 -1.19587 0)
(0.10109 -1.20729 0)
(0.111218 -1.2203 0)
(0.121086 -1.23499 0)
(0.13059 -1.25153 0)
(0.1396 -1.27011 0)
(0.147944 -1.29098 0)
(0.155408 -1.3144 0)
(0.161683 -1.34071 0)
(0.166425 -1.37032 0)
(0.169256 -1.4037 0)
(0.16964 -1.44161 0)
(0.167045 -1.4843 0)
(0.161598 -1.53077 0)
(0.15222 -1.5821 0)
(0.00608017 -1.13886 0)
(0.0159105 -1.1705 0)
(0.0248096 -1.16687 0)
(0.0344467 -1.1699 0)
(0.0437781 -1.17445 0)
(0.0531965 -1.18025 0)
(0.0625035 -1.18735 0)
(0.0717151 -1.19576 0)
(0.0807625 -1.20555 0)
(0.0895909 -1.21677 0)
(0.0981253 -1.22948 0)
(0.106264 -1.24378 0)
(0.113877 -1.25979 0)
(0.120805 -1.27765 0)
(0.126848 -1.29755 0)
(0.131745 -1.31971 0)
(0.135114 -1.34442 0)
(0.136557 -1.372 0)
(0.135594 -1.40286 0)
(0.131556 -1.43766 0)
(0.123797 -1.47675 0)
(0.112218 -1.51917 0)
(0.0955555 -1.56521 0)
(0.00577156 -1.14989 0)
(0.0146172 -1.17933 0)
(0.0222909 -1.17597 0)
(0.0308218 -1.17904 0)
(0.0389861 -1.18354 0)
(0.047243 -1.18927 0)
(0.0553608 -1.19625 0)
(0.0633407 -1.2045 0)
(0.0710992 -1.21407 0)
(0.0785642 -1.22499 0)
(0.085644 -1.23731 0)
(0.0922161 -1.25109 0)
(0.0981299 -1.26642 0)
(0.103202 -1.28339 0)
(0.107207 -1.30212 0)
(0.109851 -1.32279 0)
(0.110712 -1.34558 0)
(0.109321 -1.37072 0)
(0.105101 -1.39854 0)
(0.0972877 -1.42955 0)
(0.0850732 -1.46418 0)
(0.0681754 -1.50153 0)
(0.0450463 -1.54111 0)
(0.00545469 -1.15989 0)
(0.0132939 -1.1868 0)
(0.0197351 -1.1837 0)
(0.0271845 -1.18683 0)
(0.0342304 -1.19128 0)
(0.0413758 -1.19692 0)
(0.0483754 -1.20376 0)
(0.0552164 -1.21181 0)
(0.0618061 -1.2211 0)
(0.0680601 -1.23166 0)
(0.0738748 -1.24351 0)
(0.0791085 -1.25668 0)
(0.0835902 -1.27122 0)
(0.0871139 -1.28716 0)
(0.0894342 -1.30459 0)
(0.090228 -1.32358 0)
(0.0890686 -1.34424 0)
(0.0854111 -1.36668 0)
(0.0786043 -1.39111 0)
(0.0678323 -1.41786 0)
(0.0521359 -1.44738 0)
(0.0308876 -1.47886 0)
(0.00254882 -1.51107 0)
(0.00510313 -1.16835 0)
(0.011897 -1.19238 0)
(0.017113 -1.1896 0)
(0.0235109 -1.19277 0)
(0.0294876 -1.19717 0)
(0.0355696 -1.20271 0)
(0.0415166 -1.20938 0)
(0.047307 -1.21721 0)
(0.0528505 -1.22619 0)
(0.0580603 -1.23632 0)
(0.0628263 -1.24762 0)
(0.0669925 -1.26007 0)
(0.0703715 -1.27368 0)
(0.0727397 -1.28846 0)
(0.0738367 -1.30441 0)
(0.0733217 -1.32153 0)
(0.0707486 -1.33984 0)
(0.0655426 -1.35935 0)
(0.0570105 -1.38009 0)
(0.0442813 -1.40224 0)
(0.0262789 -1.42611 0)
(0.00210922 -1.45112 0)
(-0.0299141 -1.47548 0)
(0.00471317 -1.17595 0)
(0.010409 -1.19673 0)
(0.0143898 -1.19439 0)
(0.0197567 -1.19762 0)
(0.0246982 -1.20197 0)
(0.0297423 -1.20743 0)
(0.0346818 -1.21395 0)
(0.0394887 -1.22155 0)
(0.0440898 -1.23021 0)
(0.0484024 -1.2399 0)
(0.0523144 -1.25061 0)
(0.0556747 -1.26231 0)
(0.0582933 -1.27494 0)
(0.0599488 -1.28847 0)
(0.0603797 -1.30282 0)
(0.0592343 -1.31793 0)
(0.0560558 -1.3337 0)
(0.0502594 -1.35004 0)
(0.0411384 -1.36681 0)
(0.0278028 -1.38394 0)
(0.00913407 -1.40155 0)
(-0.0161575 -1.41924 0)
(-0.0499095 -1.43517 0)
(0.00424076 -1.18467 0)
(0.00877227 -1.20176 0)
(0.0114976 -1.20013 0)
(0.0157976 -1.20347 0)
(0.0197001 -1.20784 0)
(0.0236904 -1.21327 0)
(0.0276208 -1.21973 0)
(0.03146 -1.2272 0)
(0.0351544 -1.23566 0)
(0.0386293 -1.24506 0)
(0.0417865 -1.25536 0)
(0.0445042 -1.26649 0)
(0.0466147 -1.27837 0)
(0.0479228 -1.29088 0)
(0.0481915 -1.30391 0)
(0.0470944 -1.3173 0)
(0.044203 -1.33082 0)
(0.0389748 -1.34426 0)
(0.0307447 -1.35727 0)
(0.0186494 -1.3695 0)
(0.0015502 -1.38069 0)
(-0.0220878 -1.39044 0)
(-0.0543913 -1.39702 0)
(0.0035524 -1.19449 0)
(0.00684604 -1.2074 0)
(0.00836693 -1.2069 0)
(0.011481 -1.21039 0)
(0.0142868 -1.21486 0)
(0.0171606 -1.22037 0)
(0.0200146 -1.22688 0)
(0.0228148 -1.23437 0)
(0.0255226 -1.24282 0)
(0.0280844 -1.25218 0)
(0.0304346 -1.26238 0)
(0.0324865 -1.27331 0)
(0.0341127 -1.28489 0)
(0.0351647 -1.29694 0)
(0.0354653 -1.30929 0)
(0.0347824 -1.3217 0)
(0.032778 -1.33385 0)
(0.0290314 -1.34537 0)
(0.0230234 -1.35578 0)
(0.0140178 -1.36442 0)
(0.000999509 -1.37063 0)
(-0.017445 -1.37358 0)
(-0.0434255 -1.37158 0)
(0.00249336 -1.20002 0)
(0.00446476 -1.20868 0)
(0.00498163 -1.2096 0)
(0.00679613 -1.21317 0)
(0.00844159 -1.2177 0)
(0.0101275 -1.22323 0)
(0.0118056 -1.22976 0)
(0.0134503 -1.23726 0)
(0.0150424 -1.24568 0)
(0.0165559 -1.25497 0)
(0.0179498 -1.26504 0)
(0.0191635 -1.27581 0)
(0.0201256 -1.28712 0)
(0.0207563 -1.2988 0)
(0.0209575 -1.31062 0)
(0.0206027 -1.3223 0)
(0.0194863 -1.33348 0)
(0.0173674 -1.34369 0)
(0.0139583 -1.35235 0)
(0.00878668 -1.35866 0)
(0.00117284 -1.36161 0)
(-0.009741 -1.35994 0)
(-0.0252992 -1.3518 0)