/*--------------------------------*- C++ -*----------------------------------*\
| =========                 |                                                 |
| \\      /  F ield         | OpenFOAM: The Open Source CFD Toolbox           |
|  \\    /   O peration     | Version:  5.x                                   |
|   \\  /    A nd           | Web:      www.OpenFOAM.org                      |
|    \\/     M anipulation  |                                                 |
\*---------------------------------------------------------------------------*/
FoamFile
{
    version     2.0;
    format      ascii;
    class       surfaceScalarField;
    location    "0.25";
    object      alphaPhi10;
}
// * * * * * * * * * * * * * * * * * * * * * * * * * * * * * * * * * * * * * //

dimensions      [0 3 -1 0 0 0 0];

internalField   nonuniform List<scalar> 
15580
(
4.94904e-18
1.14589e-10
1.13366e-18
2.7435e-10
-1.90962e-18
3.83419e-10
-3.94855e-18
4.53554e-10
-5.21229e-18
4.94504e-10
-5.86242e-18
5.14933e-10
-5.99392e-18
5.22255e-10
-5.7699e-18
5.22471e-10
-5.33998e-18
5.20098e-10
-4.84067e-18
5.18155e-10
-4.47537e-18
5.18155e-10
-4.53674e-18
5.20098e-10
-5.41648e-18
5.22471e-10
-7.64382e-18
5.22255e-10
-1.18344e-17
5.14933e-10
-1.82954e-17
4.94504e-10
-2.6496e-17
4.53554e-10
-3.19784e-17
3.8342e-10
-2.11332e-17
2.7435e-10
1.1459e-10
1.14021e-18
1.14589e-10
-5.48549e-18
2.7435e-10
-1.08664e-17
3.83419e-10
-1.49556e-17
4.53554e-10
-1.77959e-17
4.94504e-10
-1.93689e-17
5.14933e-10
-1.96717e-17
5.22255e-10
-1.89653e-17
5.22471e-10
-1.75395e-17
5.20098e-10
-1.58255e-17
5.18155e-10
-1.44479e-17
5.18155e-10
-1.42451e-17
5.20098e-10
-1.64208e-17
5.22471e-10
-2.22645e-17
5.22255e-10
-3.35073e-17
5.14933e-10
-5.09899e-17
4.94504e-10
-7.36274e-17
4.53554e-10
-9.08869e-17
3.8342e-10
-8.69603e-17
2.7435e-10
1.14589e-10
-1.51577e-17
1.14589e-10
-2.00705e-17
2.7435e-10
-2.45909e-17
3.83419e-10
-2.8748e-17
4.53554e-10
-3.24263e-17
4.94504e-10
-3.49307e-17
5.14933e-10
-3.55138e-17
5.22255e-10
-3.42613e-17
5.22471e-10
-3.17535e-17
5.20098e-10
-2.8656e-17
5.18155e-10
-2.59268e-17
5.18155e-10
-2.47135e-17
5.20098e-10
-2.67323e-17
5.22471e-10
-3.40184e-17
5.22255e-10
-4.82003e-17
5.14933e-10
-7.0116e-17
4.94504e-10
-9.5443e-17
4.53554e-10
-1.12022e-16
3.8342e-10
-1.01331e-16
2.7435e-10
1.14589e-10
-2.54408e-17
1.14589e-10
-3.05032e-17
2.7435e-10
-3.5024e-17
3.83419e-10
-4.00651e-17
4.53554e-10
-4.56297e-17
4.94504e-10
-4.9752e-17
5.14933e-10
-5.09716e-17
5.22255e-10
-4.93263e-17
5.22471e-10
-4.5894e-17
5.20098e-10
-4.17449e-17
5.18155e-10
-3.76473e-17
5.18155e-10
-3.47489e-17
5.20098e-10
-3.48383e-17
5.22471e-10
-4.03406e-17
5.22255e-10
-5.26099e-17
5.14933e-10
-7.12139e-17
4.94504e-10
-8.98925e-17
4.53554e-10
-9.8059e-17
3.8342e-10
-7.4102e-17
2.7435e-10
1.14589e-10
-2.17667e-17
1.14589e-10
-2.73602e-17
2.7435e-10
-3.51969e-17
3.83419e-10
-4.45399e-17
4.53554e-10
-5.41932e-17
4.94504e-10
-6.09256e-17
5.14933e-10
-6.35002e-17
5.22255e-10
-6.23531e-17
5.22471e-10
-5.86613e-17
5.20098e-10
-5.34782e-17
5.18155e-10
-4.7819e-17
5.18155e-10
-4.29789e-17
5.20098e-10
-4.04944e-17
5.22471e-10
-4.1945e-17
5.22255e-10
-4.92487e-17
5.14933e-10
-6.13205e-17
4.94504e-10
-7.27122e-17
4.53554e-10
-7.56371e-17
3.8342e-10
-5.16307e-17
2.7435e-10
1.14589e-10
-6.14476e-19
1.14589e-10
-9.46435e-18
2.7435e-10
-2.37976e-17
3.83419e-10
-4.10789e-17
4.53554e-10
-5.69108e-17
4.94504e-10
-6.77782e-17
5.14933e-10
-7.30163e-17
5.22255e-10
-7.30882e-17
5.22471e-10
-6.91e-17
5.20098e-10
-6.24785e-17
5.18155e-10
-5.47485e-17
5.18155e-10
-4.73789e-17
5.20098e-10
-4.16677e-17
5.22471e-10
-3.92132e-17
5.22255e-10
-4.12742e-17
5.14933e-10
-4.65262e-17
4.94504e-10
-5.18242e-17
4.53554e-10
-5.25768e-17
3.8342e-10
-3.84367e-17
2.7435e-10
1.14589e-10
2.07612e-17
1.14589e-10
1.37229e-17
2.7435e-10
-7.27428e-18
3.8342e-10
-3.3213e-17
4.53554e-10
-5.54307e-17
4.94504e-10
-7.09252e-17
5.14933e-10
-7.90855e-17
5.22255e-10
-8.02656e-17
5.22471e-10
-7.54299e-17
5.20098e-10
-6.68082e-17
5.18155e-10
-5.69656e-17
5.18155e-10
-4.77663e-17
5.20098e-10
-3.95967e-17
5.22471e-10
-3.347e-17
5.22255e-10
-3.03313e-17
5.14933e-10
-2.91035e-17
4.94504e-10
-2.8303e-17
4.53554e-10
-2.64368e-17
3.8342e-10
-1.86661e-17
2.7435e-10
1.14589e-10
4.39e-17
1.14589e-10
3.59483e-17
2.7435e-10
7.14636e-18
3.8342e-10
-2.56981e-17
4.53554e-10
-5.2858e-17
4.94504e-10
-7.17034e-17
5.14933e-10
-8.14038e-17
5.22255e-10
-8.24923e-17
5.22471e-10
-7.6598e-17
5.20098e-10
-6.62577e-17
5.18155e-10
-5.45365e-17
5.18155e-10
-4.38945e-17
5.20098e-10
-3.46589e-17
5.22471e-10
-2.58978e-17
5.22255e-10
-1.77767e-17
5.14933e-10
-1.11042e-17
4.94504e-10
-5.27633e-18
4.53554e-10
-7.46853e-19
3.8342e-10
3.85787e-18
2.7435e-10
1.14589e-10
5.11935e-17
1.14589e-10
4.1301e-17
2.7435e-10
9.17631e-18
3.8342e-10
-2.53997e-17
4.53554e-10
-5.35028e-17
4.94504e-10
-7.24714e-17
5.14933e-10
-8.12803e-17
5.22255e-10
-8.07461e-17
5.22471e-10
-7.2965e-17
5.20098e-10
-6.08179e-17
5.18155e-10
-4.7476e-17
5.18155e-10
-3.55307e-17
5.20098e-10
-2.54285e-17
5.22471e-10
-1.51985e-17
5.22255e-10
-4.22828e-18
5.14933e-10
5.78034e-18
4.94504e-10
1.39239e-17
4.53554e-10
1.74403e-17
3.8342e-10
1.36668e-17
2.7435e-10
1.14589e-10
3.91507e-17
1.14589e-10
2.47743e-17
2.7435e-10
-6.21893e-18
3.8342e-10
-3.66886e-17
4.53554e-10
-6.0709e-17
4.94504e-10
-7.55522e-17
5.14933e-10
-8.05603e-17
5.22255e-10
-7.674e-17
5.22471e-10
-6.62184e-17
5.20098e-10
-5.18623e-17
5.18155e-10
-3.672e-17
5.18155e-10
-2.30963e-17
5.20098e-10
-1.1774e-17
5.22471e-10
-8.8725e-19
5.22255e-10
1.09681e-17
5.14933e-10
2.24191e-17
4.94504e-10
3.0998e-17
4.53554e-10
3.30856e-17
3.8342e-10
2.22533e-17
2.7435e-10
1.14589e-10
7.28699e-18
1.14589e-10
-1.27153e-17
2.7435e-10
-3.7886e-17
3.8342e-10
-5.93467e-17
4.53554e-10
-7.45553e-17
4.94504e-10
-8.1584e-17
5.14933e-10
-8.02767e-17
5.22255e-10
-7.16901e-17
5.22471e-10
-5.77517e-17
5.20098e-10
-4.09617e-17
5.18155e-10
-2.38396e-17
5.18155e-10
-8.27594e-18
5.20098e-10
4.72564e-18
5.22471e-10
1.62836e-17
5.22255e-10
2.80209e-17
5.14933e-10
3.92877e-17
4.94504e-10
4.73753e-17
4.53554e-10
4.80139e-17
3.8342e-10
3.17994e-17
2.7435e-10
1.14589e-10
-3.97315e-17
1.14589e-10
-6.33247e-17
2.7435e-10
-7.93325e-17
3.8342e-10
-8.84568e-17
4.53554e-10
-9.16303e-17
4.94504e-10
-8.8513e-17
5.14933e-10
-7.94692e-17
5.22255e-10
-6.54243e-17
5.22471e-10
-4.79419e-17
5.20098e-10
-2.88599e-17
5.18155e-10
-9.91527e-18
5.18155e-10
7.49391e-18
5.20098e-10
2.22327e-17
5.22471e-10
3.42776e-17
5.22255e-10
4.51845e-17
5.14933e-10
5.54721e-17
4.94504e-10
6.31858e-17
4.53554e-10
6.39845e-17
3.8342e-10
4.45811e-17
2.7435e-10
1.14589e-10
-8.71024e-17
1.14589e-10
-1.16101e-16
2.7435e-10
-1.20359e-16
3.8342e-10
-1.16148e-16
4.53554e-10
-1.06435e-16
4.94504e-10
-9.27321e-17
5.14933e-10
-7.59181e-17
5.22255e-10
-5.68045e-17
5.22471e-10
-3.63732e-17
5.20098e-10
-1.56481e-17
5.18155e-10
4.38335e-18
5.18155e-10
2.27894e-17
5.20098e-10
3.85111e-17
5.22471e-10
5.06915e-17
5.22255e-10
6.04014e-17
5.14933e-10
6.94476e-17
4.94504e-10
7.75378e-17
4.53554e-10
8.05906e-17
3.8342e-10
6.07101e-17
2.7435e-10
1.14589e-10
-1.21946e-16
1.14589e-10
-1.53476e-16
2.7435e-10
-1.48581e-16
3.8342e-10
-1.33038e-16
4.53554e-10
-1.12347e-16
4.94504e-10
-8.98824e-17
5.14933e-10
-6.70349e-17
5.22255e-10
-4.44169e-17
5.22471e-10
-2.23428e-17
5.20098e-10
-1.16973e-18
5.18155e-10
1.86279e-17
5.18155e-10
3.65306e-17
5.20098e-10
5.18672e-17
5.22471e-10
6.35227e-17
5.22255e-10
7.20824e-17
5.14933e-10
8.00211e-17
4.94504e-10
8.88465e-17
4.53554e-10
9.5243e-17
3.8342e-10
7.68881e-17
2.7435e-10
1.14589e-10
-1.31972e-16
1.1459e-10
-1.62738e-16
2.7435e-10
-1.53053e-16
3.8342e-10
-1.3057e-16
4.53554e-10
-1.03193e-16
4.94504e-10
-7.59351e-17
5.14933e-10
-5.04804e-17
5.22255e-10
-2.70362e-17
5.22471e-10
-5.39927e-18
5.20098e-10
1.44377e-17
5.18155e-10
3.23228e-17
5.18155e-10
4.81098e-17
5.20098e-10
6.15292e-17
5.22471e-10
7.18273e-17
5.22255e-10
7.93329e-17
5.14933e-10
8.62153e-17
4.94504e-10
9.47275e-17
4.53554e-10
1.02692e-16
3.8342e-10
8.57867e-17
2.7435e-10
1.14589e-10
-1.14134e-16
1.1459e-10
-1.39364e-16
2.7435e-10
-1.284e-16
3.8342e-10
-1.02878e-16
4.53554e-10
-7.45509e-17
4.94504e-10
-4.81245e-17
5.14933e-10
-2.47727e-17
5.22255e-10
-4.15149e-18
5.22471e-10
1.4197e-17
5.20098e-10
3.04608e-17
5.18155e-10
4.47425e-17
5.18155e-10
5.71212e-17
5.20098e-10
6.74627e-17
5.22471e-10
7.54405e-17
5.22255e-10
8.13249e-17
5.14933e-10
8.61345e-17
4.94504e-10
9.15775e-17
4.53554e-10
9.6092e-17
3.8342e-10
7.88123e-17
2.7435e-10
1.1459e-10
-7.94846e-17
1.1459e-10
-8.70578e-17
2.7435e-10
-7.00273e-17
3.8342e-10
-4.70182e-17
4.53554e-10
-2.48093e-17
4.94504e-10
-5.97927e-18
5.14933e-10
9.81356e-18
5.22255e-10
2.34561e-17
5.22471e-10
3.54524e-17
5.20098e-10
4.60028e-17
5.18155e-10
5.52716e-17
5.18155e-10
6.33054e-17
5.20098e-10
6.97372e-17
5.22471e-10
7.4162e-17
5.22255e-10
7.67117e-17
5.14933e-10
7.69471e-17
4.94504e-10
7.49341e-17
4.53554e-10
7.01831e-17
3.8342e-10
5.12101e-17
2.7435e-10
1.1459e-10
-2.6357e-17
1.1459e-10
1.16899e-17
2.7435e-10
2.51543e-17
3.8342e-10
3.74395e-17
4.53554e-10
4.36604e-17
4.94504e-10
4.72493e-17
5.14933e-10
5.02949e-17
5.22255e-10
5.35009e-17
5.22471e-10
5.68826e-17
5.20098e-10
6.0255e-17
5.18155e-10
6.3565e-17
5.18155e-10
6.65361e-17
5.20098e-10
6.82287e-17
5.22471e-10
6.77007e-17
5.22255e-10
6.46729e-17
5.14933e-10
5.78165e-17
4.94504e-10
4.52276e-17
4.53554e-10
2.81194e-17
3.8342e-10
6.95798e-18
2.7435e-10
1.1459e-10
1.70673e-16
1.1459e-10
1.77701e-16
2.7435e-10
1.64089e-16
3.8342e-10
1.41155e-16
4.53554e-10
1.19491e-16
4.94504e-10
1.0261e-16
5.14933e-10
9.04285e-17
5.22255e-10
8.21458e-17
5.22471e-10
7.64116e-17
5.20098e-10
7.22466e-17
5.18155e-10
6.92136e-17
5.18155e-10
6.65918e-17
5.20098e-10
6.29049e-17
5.22471e-10
5.66555e-17
5.22255e-10
4.71065e-17
5.14933e-10
3.25244e-17
4.94504e-10
1.07626e-17
4.53554e-10
-1.71904e-17
3.8342e-10
-3.5924e-17
2.7435e-10
1.1459e-10
2.33909e-16
1.14589e-10
2.7791e-16
2.7435e-10
2.57883e-16
3.8342e-10
2.15419e-16
4.53554e-10
1.76276e-16
4.94504e-10
1.44854e-16
5.14933e-10
1.2147e-16
5.22255e-10
1.04314e-16
5.22471e-10
9.09572e-17
5.20098e-10
8.00743e-17
5.18155e-10
7.1091e-17
5.18155e-10
6.30791e-17
5.20098e-10
5.43423e-17
5.22471e-10
4.31809e-17
5.22255e-10
2.87851e-17
5.14933e-10
9.50542e-18
4.94504e-10
-1.77984e-17
4.53554e-10
-4.90603e-17
3.8342e-10
-5.89475e-17
2.7435e-10
1.1459e-10
2.22943e-16
1.14589e-10
2.87045e-16
2.7435e-10
2.75212e-16
3.8342e-10
2.37091e-16
4.53554e-10
1.97858e-16
4.94504e-10
1.6363e-16
5.14933e-10
1.36649e-16
5.22255e-10
1.15146e-16
5.22471e-10
9.6924e-17
5.20098e-10
8.13031e-17
5.18155e-10
6.79761e-17
5.18155e-10
5.60921e-17
5.20098e-10
4.41384e-17
5.22471e-10
3.04793e-17
5.22255e-10
1.38913e-17
5.14933e-10
-4.30359e-18
4.94504e-10
-2.60096e-17
4.53554e-10
-5.27462e-17
3.8342e-10
-5.14469e-17
2.7435e-10
1.14589e-10
1.85061e-16
1.14589e-10
2.22284e-16
2.7435e-10
2.24962e-16
3.8342e-10
2.08325e-16
4.53554e-10
1.82885e-16
4.94504e-10
1.56748e-16
5.14933e-10
1.33135e-16
5.22255e-10
1.1168e-16
5.22471e-10
9.20062e-17
5.20098e-10
7.46293e-17
5.18155e-10
5.96738e-17
5.18155e-10
4.66276e-17
5.20098e-10
3.46238e-17
5.22471e-10
2.25176e-17
5.22255e-10
8.88901e-18
5.14933e-10
-4.83621e-18
4.94504e-10
-1.46652e-17
4.53554e-10
-2.46533e-17
3.8342e-10
-2.87684e-17
2.7435e-10
1.14589e-10
4.07335e-17
1.14589e-10
9.45649e-17
2.7435e-10
1.29049e-16
3.8342e-10
1.43977e-16
4.53554e-10
1.40772e-16
4.94504e-10
1.28643e-16
5.14933e-10
1.12382e-16
5.22255e-10
9.43323e-17
5.22471e-10
7.65808e-17
5.20098e-10
6.05649e-17
5.18155e-10
4.67041e-17
5.18155e-10
3.50241e-17
5.20098e-10
2.56181e-17
5.22471e-10
1.82442e-17
5.22255e-10
1.19957e-17
5.14933e-10
7.17286e-18
4.94504e-10
9.65038e-18
4.53554e-10
1.57894e-17
3.8342e-10
1.61336e-17
2.7435e-10
1.14589e-10
-4.49979e-17
1.14589e-10
-1.40062e-18
2.7435e-10
4.47498e-17
3.8342e-10
7.64972e-17
4.53554e-10
8.9363e-17
4.94504e-10
8.88681e-17
5.14933e-10
7.99227e-17
5.22255e-10
6.69416e-17
5.22471e-10
5.3351e-17
5.20098e-10
4.06115e-17
5.18155e-10
2.92525e-17
5.18155e-10
1.98304e-17
5.20098e-10
1.33405e-17
5.22471e-10
1.06034e-17
5.22255e-10
1.1251e-17
5.14933e-10
1.55259e-17
4.94504e-10
2.7546e-17
4.53554e-10
4.13122e-17
3.8342e-10
4.37761e-17
2.7435e-10
1.14589e-10
-6.56942e-17
1.14589e-10
-4.32149e-17
2.7435e-10
-5.42853e-18
3.8342e-10
2.49556e-17
4.53554e-10
4.19246e-17
4.94504e-10
4.669e-17
5.14933e-10
4.26824e-17
5.22255e-10
3.4689e-17
5.22471e-10
2.55766e-17
5.20098e-10
1.61476e-17
5.18155e-10
7.0044e-18
5.18155e-10
-9.16264e-19
5.20098e-10
-6.12943e-18
5.22471e-10
-7.1794e-18
5.22255e-10
-3.64487e-18
5.14933e-10
5.31176e-18
4.94504e-10
1.8534e-17
4.53554e-10
3.20047e-17
3.8342e-10
4.15342e-17
2.7435e-10
1.1459e-10
-4.21389e-17
1.14589e-10
-4.07392e-17
2.7435e-10
-2.46802e-17
3.83419e-10
-7.88748e-18
4.53554e-10
3.60308e-18
4.94504e-10
7.82216e-18
5.14933e-10
6.13187e-18
5.22255e-10
1.73407e-18
5.22471e-10
-4.31579e-18
5.20098e-10
-1.16853e-17
5.18155e-10
-1.96238e-17
5.18155e-10
-2.71247e-17
5.20098e-10
-3.28135e-17
5.22471e-10
-3.54077e-17
5.22255e-10
-3.41829e-17
5.14933e-10
-2.87066e-17
4.94504e-10
-2.23878e-17
4.53554e-10
-8.13737e-18
3.8342e-10
1.37966e-17
2.7435e-10
1.1459e-10
-9.94665e-18
1.14589e-10
-2.40844e-17
2.7435e-10
-3.01193e-17
3.83419e-10
-2.96622e-17
4.53554e-10
-2.70558e-17
4.94504e-10
-2.60697e-17
5.14933e-10
-2.71517e-17
5.22255e-10
-2.98323e-17
5.22471e-10
-3.46185e-17
5.20098e-10
-4.09665e-17
5.18155e-10
-4.81679e-17
5.18155e-10
-5.54855e-17
5.20098e-10
-6.20724e-17
5.22471e-10
-6.74499e-17
5.22255e-10
-7.13435e-17
5.14933e-10
-7.37811e-17
4.94504e-10
-7.40367e-17
4.53554e-10
-6.5446e-17
3.8342e-10
-4.25027e-17
2.7435e-10
1.1459e-10
5.30537e-18
1.14589e-10
-1.83244e-17
2.7435e-10
-3.91759e-17
3.8342e-10
-5.01128e-17
4.53554e-10
-5.41367e-17
4.94504e-10
-5.56438e-17
5.14933e-10
-5.66819e-17
5.22255e-10
-5.89057e-17
5.22471e-10
-6.30661e-17
5.20098e-10
-6.8367e-17
5.18155e-10
-7.44841e-17
5.18155e-10
-8.10382e-17
5.20098e-10
-8.76557e-17
5.22471e-10
-9.44931e-17
5.22255e-10
-1.01795e-16
5.14933e-10
-1.09274e-16
4.94504e-10
-1.14182e-16
4.53554e-10
-1.08873e-16
3.8342e-10
-8.45006e-17
2.7435e-10
1.14589e-10
-7.56594e-18
1.14589e-10
-3.75043e-17
2.7435e-10
-6.13887e-17
3.8342e-10
-7.49159e-17
4.53554e-10
-8.02919e-17
4.94504e-10
-8.16723e-17
5.14933e-10
-8.21283e-17
5.22255e-10
-8.38312e-17
5.22471e-10
-8.6651e-17
5.20098e-10
-9.02222e-17
5.18155e-10
-9.46738e-17
5.18155e-10
-9.98079e-17
5.20098e-10
-1.05346e-16
5.22471e-10
-1.11517e-16
5.22255e-10
-1.18753e-16
5.14933e-10
-1.27215e-16
4.94504e-10
-1.34811e-16
4.53554e-10
-1.32703e-16
3.8342e-10
-1.06587e-16
2.7435e-10
1.14589e-10
-4.26204e-17
1.14589e-10
-7.41793e-17
2.7435e-10
-9.29958e-17
3.8342e-10
-1.02129e-16
4.53554e-10
-1.04365e-16
4.94504e-10
-1.03321e-16
5.14933e-10
-1.02136e-16
5.22255e-10
-1.02203e-16
5.22471e-10
-1.02707e-16
5.20098e-10
-1.04028e-16
5.18155e-10
-1.06465e-16
5.18155e-10
-1.09763e-16
5.20098e-10
-1.1354e-16
5.22471e-10
-1.17622e-16
5.22255e-10
-1.22002e-16
5.14933e-10
-1.27132e-16
4.94504e-10
-1.32178e-16
4.53554e-10
-1.29555e-16
3.8342e-10
-9.83155e-17
2.7435e-10
1.14589e-10
-7.94075e-17
1.14589e-10
-1.11437e-16
2.7435e-10
-1.22773e-16
3.8342e-10
-1.24995e-16
4.53554e-10
-1.22521e-16
4.94504e-10
-1.18238e-16
5.14933e-10
-1.14623e-16
5.22255e-10
-1.11948e-16
5.22471e-10
-1.09792e-16
5.20098e-10
-1.08827e-16
5.18155e-10
-1.09194e-16
5.18155e-10
-1.10544e-16
5.20098e-10
-1.12452e-16
5.22471e-10
-1.14258e-16
5.22255e-10
-1.15164e-16
5.14933e-10
-1.15315e-16
4.94504e-10
-1.15324e-16
4.53554e-10
-1.10151e-16
3.8342e-10
-7.63198e-17
2.7435e-10
1.14589e-10
-1.01747e-16
1.14589e-10
-1.34319e-16
2.7435e-10
-1.40069e-16
3.8342e-10
-1.36895e-16
4.53554e-10
-1.30856e-16
4.94504e-10
-1.23942e-16
5.14933e-10
-1.17853e-16
5.22255e-10
-1.12304e-16
5.22471e-10
-1.07853e-16
5.20098e-10
-1.0496e-16
5.18155e-10
-1.03526e-16
5.18155e-10
-1.03171e-16
5.20098e-10
-1.0348e-16
5.22471e-10
-1.03471e-16
5.22255e-10
-1.0161e-16
5.14933e-10
-9.71702e-17
4.94504e-10
-9.13319e-17
4.53554e-10
-8.19107e-17
3.8342e-10
-5.54341e-17
2.7435e-10
1.14589e-10
-1.02847e-16
1.14589e-10
-1.35028e-16
2.7435e-10
-1.3939e-16
3.8342e-10
-1.34515e-16
4.53554e-10
-1.27457e-16
4.94504e-10
-1.19333e-16
5.14933e-10
-1.11443e-16
5.22255e-10
-1.03993e-16
5.22471e-10
-9.80858e-17
5.20098e-10
-9.39649e-17
5.18155e-10
-9.13373e-17
5.18155e-10
-8.97875e-17
5.20098e-10
-8.88611e-17
5.22471e-10
-8.7385e-17
5.22255e-10
-8.33237e-17
5.14933e-10
-7.48893e-17
4.94504e-10
-6.18022e-17
4.53554e-10
-4.42242e-17
3.8342e-10
-1.91777e-17
2.7435e-10
1.14589e-10
-8.51048e-17
1.1459e-10
-1.15133e-16
2.7435e-10
-1.21169e-16
3.8342e-10
-1.18341e-16
4.53554e-10
-1.12897e-16
4.94504e-10
-1.05135e-16
5.14933e-10
-9.66613e-17
5.22255e-10
-8.89088e-17
5.22471e-10
-8.27729e-17
5.20098e-10
-7.83605e-17
5.18155e-10
-7.52255e-17
5.18155e-10
-7.2924e-17
5.20098e-10
-7.09428e-17
5.22471e-10
-6.8035e-17
5.22255e-10
-6.21396e-17
5.14933e-10
-5.10703e-17
4.94504e-10
-3.31217e-17
4.53554e-10
-9.34033e-18
3.8342e-10
1.40405e-17
2.7435e-10
1.14589e-10
-5.64327e-17
1.1459e-10
-8.0959e-17
2.7435e-10
-8.9684e-17
3.8342e-10
-9.15107e-17
4.53554e-10
-8.92173e-17
4.94504e-10
-8.34951e-17
5.14933e-10
-7.6287e-17
5.22255e-10
-6.99359e-17
5.22471e-10
-6.48474e-17
5.20098e-10
-6.08424e-17
5.18155e-10
-5.74491e-17
5.18155e-10
-5.43749e-17
5.20098e-10
-5.11629e-17
5.22471e-10
-4.67128e-17
5.22255e-10
-3.9491e-17
5.14933e-10
-2.81526e-17
4.94504e-10
-1.16688e-17
4.53554e-10
7.23388e-18
3.8342e-10
1.64884e-17
2.7435e-10
1.14589e-10
-2.36427e-17
1.1459e-10
-3.98086e-17
2.7435e-10
-5.05535e-17
3.8342e-10
-5.76719e-17
4.53554e-10
-5.93956e-17
4.94504e-10
-5.74728e-17
5.14933e-10
-5.36039e-17
5.22255e-10
-4.9926e-17
5.22471e-10
-4.65066e-17
5.20098e-10
-4.29315e-17
5.18155e-10
-3.89882e-17
5.18155e-10
-3.47393e-17
5.20098e-10
-2.9986e-17
5.22471e-10
-2.39878e-17
5.22255e-10
-1.59344e-17
5.14933e-10
-5.78989e-18
4.94504e-10
5.4138e-18
4.53554e-10
1.3916e-17
3.8342e-10
9.23909e-18
2.7435e-10
1.14589e-10
8.95392e-18
1.1459e-10
1.03096e-18
2.7435e-10
-1.07387e-17
3.8342e-10
-2.20305e-17
4.53554e-10
-2.80851e-17
4.94504e-10
-3.07352e-17
5.14933e-10
-3.1115e-17
5.22255e-10
-3.02784e-17
5.22471e-10
-2.81953e-17
5.20098e-10
-2.46229e-17
5.18155e-10
-1.97909e-17
5.18155e-10
-1.41576e-17
5.20098e-10
-7.87118e-18
5.22471e-10
-6.59417e-19
5.22255e-10
7.67939e-18
5.14933e-10
1.62763e-17
4.94504e-10
2.24248e-17
4.53554e-10
2.13e-17
3.8342e-10
7.36928e-18
2.7435e-10
1.14589e-10
3.42349e-17
1.1459e-10
3.43879e-17
2.7435e-10
2.18065e-17
3.8342e-10
8.13602e-18
4.53554e-10
-8.74213e-19
4.94504e-10
-6.79734e-18
5.14933e-10
-1.0128e-17
5.22255e-10
-1.10171e-17
5.22471e-10
-9.42903e-18
5.20098e-10
-5.51585e-18
5.18155e-10
1.39408e-19
5.18155e-10
6.85017e-18
5.20098e-10
1.4229e-17
5.22471e-10
2.21417e-17
5.22255e-10
3.03944e-17
5.14933e-10
3.79973e-17
4.94504e-10
4.19355e-17
4.53554e-10
3.71651e-17
3.8342e-10
1.9211e-17
2.7435e-10
1.14589e-10
5.26406e-17
1.1459e-10
5.52966e-17
2.7435e-10
4.12403e-17
3.8342e-10
2.79458e-17
4.53554e-10
1.88745e-17
4.94504e-10
1.25936e-17
5.14933e-10
8.8745e-18
5.22255e-10
7.88516e-18
5.22471e-10
9.71134e-18
5.20098e-10
1.4001e-17
5.18155e-10
2.00621e-17
5.18155e-10
2.72276e-17
5.20098e-10
3.5078e-17
5.22471e-10
4.32525e-17
5.22255e-10
5.13015e-17
5.14933e-10
5.85704e-17
4.94504e-10
6.26257e-17
4.53554e-10
5.82852e-17
3.8342e-10
3.94626e-17
2.7435e-10
1.14589e-10
6.17742e-17
1.14589e-10
5.67238e-17
2.7435e-10
4.46979e-17
3.8342e-10
3.61241e-17
4.53554e-10
3.06616e-17
4.94504e-10
2.72965e-17
5.14933e-10
2.54474e-17
5.22255e-10
2.55652e-17
5.22471e-10
2.79998e-17
5.20098e-10
3.25163e-17
5.18155e-10
3.85142e-17
5.18155e-10
4.55336e-17
5.20098e-10
5.33158e-17
5.22471e-10
6.13909e-17
5.22255e-10
6.9054e-17
5.14933e-10
7.58411e-17
4.94504e-10
8.0015e-17
4.53554e-10
7.64492e-17
3.8342e-10
5.71369e-17
2.7435e-10
1.14589e-10
2.37157e-17
1.14589e-10
2.87883e-17
2.7435e-10
3.09738e-17
3.8342e-10
3.34332e-17
4.53554e-10
3.59211e-17
4.94504e-10
3.77964e-17
5.14933e-10
3.89487e-17
5.22255e-10
4.06147e-17
5.22471e-10
4.36581e-17
5.20098e-10
4.81302e-17
5.18155e-10
5.36816e-17
5.18155e-10
6.01616e-17
5.20098e-10
6.74804e-17
5.22471e-10
7.50472e-17
5.22255e-10
8.17968e-17
5.14933e-10
8.69162e-17
4.94504e-10
8.89377e-17
4.53554e-10
8.37447e-17
3.8342e-10
6.3097e-17
2.7435e-10
1.14589e-10
-1.57947e-17
1.14589e-10
-3.30802e-19
2.7435e-10
1.42235e-17
3.8342e-10
2.83053e-17
4.53554e-10
3.90474e-17
4.94504e-10
4.56652e-17
5.14933e-10
4.9315e-17
5.22255e-10
5.20826e-17
5.22471e-10
5.53062e-17
5.20098e-10
5.93671e-17
5.18155e-10
6.42603e-17
5.18155e-10
7.00517e-17
5.20098e-10
7.66397e-17
5.22471e-10
8.32415e-17
5.22255e-10
8.83851e-17
5.14933e-10
9.04257e-17
4.94504e-10
8.76597e-17
4.53554e-10
7.80039e-17
3.8342e-10
5.5224e-17
2.7435e-10
1.14589e-10
-2.90684e-17
1.14589e-10
-1.42215e-17
2.7435e-10
9.26519e-18
3.8342e-10
3.03399e-17
4.53554e-10
4.50248e-17
4.94504e-10
5.32354e-17
5.14933e-10
5.74057e-17
5.22255e-10
6.00747e-17
5.22471e-10
6.27683e-17
5.20098e-10
6.61015e-17
5.18155e-10
7.02835e-17
5.18155e-10
7.53483e-17
5.20098e-10
8.09851e-17
5.22471e-10
8.62062e-17
5.22255e-10
8.92666e-17
5.14933e-10
8.77376e-17
4.94504e-10
7.95204e-17
4.53554e-10
6.45825e-17
3.8342e-10
4.02021e-17
2.7435e-10
1.14589e-10
-2.99844e-17
1.1459e-10
-4.46377e-19
2.7435e-10
2.59777e-17
3.8342e-10
4.62005e-17
4.53554e-10
5.76106e-17
4.94504e-10
6.2589e-17
5.14933e-10
6.44868e-17
5.22255e-10
6.55287e-17
5.22471e-10
6.69427e-17
5.20098e-10
6.9257e-17
5.18155e-10
7.2599e-17
5.18155e-10
7.6779e-17
5.20098e-10
8.12091e-17
5.22471e-10
8.47802e-17
5.22255e-10
8.57814e-17
5.14933e-10
8.16763e-17
4.94504e-10
7.03094e-17
4.53554e-10
5.23945e-17
3.8342e-10
2.85251e-17
2.7435e-10
1.14589e-10
3.7363e-17
1.14589e-10
5.91254e-17
2.7435e-10
7.3688e-17
3.8342e-10
7.84569e-17
4.53554e-10
7.69544e-17
4.94504e-10
7.3811e-17
5.14933e-10
7.0891e-17
5.22255e-10
6.90096e-17
5.22471e-10
6.84776e-17
5.20098e-10
6.93443e-17
5.18155e-10
7.14569e-17
5.18155e-10
7.43987e-17
5.20098e-10
7.74003e-17
5.22471e-10
7.93831e-17
5.22255e-10
7.89942e-17
5.14933e-10
7.44543e-17
4.94504e-10
6.41741e-17
4.53554e-10
4.79321e-17
3.8342e-10
2.71829e-17
2.7435e-10
1.14589e-10
9.88177e-17
1.14589e-10
1.24502e-16
2.7435e-10
1.24174e-16
3.8342e-10
1.10059e-16
4.53554e-10
9.44715e-17
4.94504e-10
8.26165e-17
5.14933e-10
7.45927e-17
5.22255e-10
6.95443e-17
5.22471e-10
6.67414e-17
5.20098e-10
6.57231e-17
5.18155e-10
6.61438e-17
5.18155e-10
6.75213e-17
5.20098e-10
6.91034e-17
5.22471e-10
7.00047e-17
5.22255e-10
6.93797e-17
5.14933e-10
6.65585e-17
4.94504e-10
6.08387e-17
4.53554e-10
5.01639e-17
3.8342e-10
3.3573e-17
2.7435e-10
1.14589e-10
1.27565e-16
1.14589e-10
1.55053e-16
2.7435e-10
1.45612e-16
3.8342e-10
1.21453e-16
4.53554e-10
9.92124e-17
4.94504e-10
8.31578e-17
5.14933e-10
7.2447e-17
5.22255e-10
6.53153e-17
5.22471e-10
6.05804e-17
5.20098e-10
5.76818e-17
5.18155e-10
5.63406e-17
5.18155e-10
5.61843e-17
5.20098e-10
5.66458e-17
5.22471e-10
5.71397e-17
5.22255e-10
5.72748e-17
5.14933e-10
5.70884e-17
4.94504e-10
5.63509e-17
4.53554e-10
5.15819e-17
3.8342e-10
3.85178e-17
2.7435e-10
1.1459e-10
1.11918e-16
1.14589e-10
1.34336e-16
2.7435e-10
1.24918e-16
3.8342e-10
1.04567e-16
4.53554e-10
8.6056e-17
4.94504e-10
7.24894e-17
5.14933e-10
6.28077e-17
5.22255e-10
5.55516e-17
5.22471e-10
5.00032e-17
5.20098e-10
4.59965e-17
5.18155e-10
4.34799e-17
5.18155e-10
4.22451e-17
5.20098e-10
4.19543e-17
5.22471e-10
4.23321e-17
5.22255e-10
4.32973e-17
5.14933e-10
4.49506e-17
4.94504e-10
4.6858e-17
4.53554e-10
4.52547e-17
3.8342e-10
3.44117e-17
2.7435e-10
1.1459e-10
3.82016e-17
1.14589e-10
6.41901e-17
2.7435e-10
6.90562e-17
3.8342e-10
6.47487e-17
4.53554e-10
5.84357e-17
4.94504e-10
5.24979e-17
5.14933e-10
4.6858e-17
5.22255e-10
4.14586e-17
5.22471e-10
3.66676e-17
5.20098e-10
3.28569e-17
5.18155e-10
3.0143e-17
5.18155e-10
2.84396e-17
5.20098e-10
2.75715e-17
5.22471e-10
2.74883e-17
5.22255e-10
2.83092e-17
5.14933e-10
2.99861e-17
4.94504e-10
3.1721e-17
4.53554e-10
3.03164e-17
3.8342e-10
2.0999e-17
2.7435e-10
1.1459e-10
-7.04375e-18
1.14589e-10
2.14144e-18
2.7435e-10
1.23818e-17
3.8342e-10
2.10943e-17
4.53554e-10
2.66084e-17
4.94504e-10
2.84776e-17
5.14933e-10
2.75727e-17
5.22255e-10
2.52114e-17
5.22471e-10
2.25201e-17
5.20098e-10
2.00617e-17
5.18155e-10
1.79904e-17
5.18155e-10
1.6289e-17
5.20098e-10
1.48422e-17
5.22471e-10
1.37053e-17
5.22255e-10
1.3155e-17
5.14933e-10
1.32521e-17
4.94504e-10
1.33513e-17
4.53554e-10
1.1348e-17
3.8342e-10
4.26935e-18
2.7435e-10
1.1459e-10
-4.35635e-17
1.14589e-10
-4.34717e-17
2.7435e-10
-3.07375e-17
3.8342e-10
-1.44399e-17
4.53554e-10
-2.2367e-18
4.94504e-10
4.46712e-18
5.14933e-10
7.3287e-18
5.22255e-10
8.28802e-18
5.22471e-10
8.31601e-18
5.20098e-10
7.76781e-18
5.18155e-10
6.79881e-18
5.18155e-10
5.38884e-18
5.20098e-10
3.38641e-18
5.22471e-10
8.9813e-19
5.22255e-10
-1.63509e-18
5.14933e-10
-3.83378e-18
4.94504e-10
-5.60101e-18
4.53554e-10
-7.34889e-18
3.8342e-10
-9.8098e-18
2.7435e-10
1.1459e-10
-5.70943e-17
1.14589e-10
-6.47578e-17
2.7435e-10
-5.40207e-17
3.8342e-10
-3.78094e-17
4.53554e-10
-2.53424e-17
4.94504e-10
-1.75941e-17
5.14933e-10
-1.24435e-17
5.22255e-10
-8.62444e-18
5.22471e-10
-6.06461e-18
5.20098e-10
-4.73758e-18
5.18155e-10
-4.51847e-18
5.18155e-10
-5.51543e-18
5.20098e-10
-7.91504e-18
5.22471e-10
-1.1556e-17
5.22255e-10
-1.5882e-17
5.14933e-10
-2.03608e-17
4.94504e-10
-2.40675e-17
4.53554e-10
-2.50951e-17
3.8342e-10
-2.1105e-17
2.7435e-10
1.1459e-10
-5.12468e-17
1.14589e-10
-6.52048e-17
2.7435e-10
-6.05359e-17
3.8342e-10
-5.0611e-17
4.53554e-10
-4.26546e-17
4.94504e-10
-3.64375e-17
5.14933e-10
-3.03454e-17
5.22255e-10
-2.47415e-17
5.22471e-10
-2.05051e-17
5.20098e-10
-1.78476e-17
5.18155e-10
-1.66975e-17
5.18155e-10
-1.71562e-17
5.20098e-10
-1.94355e-17
5.22471e-10
-2.34703e-17
5.22255e-10
-2.88501e-17
5.14933e-10
-3.51869e-17
4.94504e-10
-4.11118e-17
4.53554e-10
-4.23684e-17
3.8342e-10
-3.26891e-17
2.7435e-10
1.1459e-10
-3.82703e-17
1.14589e-10
-5.55607e-17
2.7435e-10
-5.79581e-17
3.8342e-10
-5.66017e-17
4.53554e-10
-5.45698e-17
4.94504e-10
-5.06343e-17
5.14933e-10
-4.4763e-17
5.22255e-10
-3.88133e-17
5.22471e-10
-3.40644e-17
5.20098e-10
-3.07428e-17
5.18155e-10
-2.87856e-17
5.18155e-10
-2.83066e-17
5.20098e-10
-2.95637e-17
5.22471e-10
-3.28699e-17
5.22255e-10
-3.82606e-17
5.14933e-10
-4.55447e-17
4.94504e-10
-5.35037e-17
4.53554e-10
-5.65018e-17
3.8342e-10
-4.44451e-17
2.7435e-10
1.14589e-10
-2.70607e-17
1.14589e-10
-4.47238e-17
2.7435e-10
-5.30242e-17
3.8342e-10
-5.90529e-17
4.53554e-10
-6.1516e-17
4.94504e-10
-5.95461e-17
5.14933e-10
-5.4846e-17
5.22255e-10
-4.96888e-17
5.22471e-10
-4.5167e-17
5.20098e-10
-4.14163e-17
5.18155e-10
-3.84454e-17
5.18155e-10
-3.6569e-17
5.20098e-10
-3.59345e-17
5.22471e-10
-3.73711e-17
5.22255e-10
-4.13668e-17
5.14933e-10
-4.7774e-17
4.94504e-10
-5.60161e-17
4.53554e-10
-6.10174e-17
3.8342e-10
-5.01655e-17
2.7435e-10
1.14589e-10
-1.9342e-17
1.14589e-10
-3.72433e-17
2.7435e-10
-5.03577e-17
3.8342e-10
-6.08219e-17
4.53554e-10
-6.53172e-17
4.94504e-10
-6.46653e-17
5.14933e-10
-6.1344e-17
5.22255e-10
-5.69482e-17
5.22471e-10
-5.24403e-17
5.20098e-10
-4.83037e-17
5.18155e-10
-4.44621e-17
5.18155e-10
-4.08286e-17
5.20098e-10
-3.79255e-17
5.22471e-10
-3.65658e-17
5.22255e-10
-3.71299e-17
5.14933e-10
-3.96162e-17
4.94504e-10
-4.41112e-17
4.53554e-10
-4.80575e-17
3.8342e-10
-4.08683e-17
2.7435e-10
1.14589e-10
-1.57662e-17
1.14589e-10
-3.60579e-17
2.7435e-10
-5.40578e-17
3.8342e-10
-6.54295e-17
4.53554e-10
-6.9632e-17
4.94504e-10
-6.91942e-17
5.14933e-10
-6.62793e-17
5.22255e-10
-6.18858e-17
5.22471e-10
-5.68368e-17
5.20098e-10
-5.18811e-17
5.18155e-10
-4.70478e-17
5.18155e-10
-4.19896e-17
5.20098e-10
-3.70012e-17
5.22471e-10
-3.1894e-17
5.22255e-10
-2.67286e-17
5.14933e-10
-2.17469e-17
4.94504e-10
-1.71499e-17
4.53554e-10
-1.45263e-17
3.8342e-10
-1.16374e-17
2.7435e-10
1.14589e-10
-2.2032e-17
1.14589e-10
-5.05593e-17
2.7435e-10
-6.76039e-17
3.8342e-10
-7.6238e-17
4.53554e-10
-7.79575e-17
4.94504e-10
-7.59623e-17
5.14933e-10
-7.17056e-17
5.22255e-10
-6.6238e-17
5.22471e-10
-6.05372e-17
5.20098e-10
-5.47411e-17
5.18155e-10
-4.87305e-17
5.18155e-10
-4.23168e-17
5.20098e-10
-3.474e-17
5.22471e-10
-2.50675e-17
5.22255e-10
-1.30654e-17
5.14933e-10
1.40736e-18
4.94504e-10
1.81919e-17
4.53554e-10
3.10037e-17
3.8342e-10
3.17174e-17
2.7435e-10
1.14589e-10
-4.21607e-17
1.14589e-10
-7.12353e-17
2.7435e-10
-8.80727e-17
3.8342e-10
-9.22274e-17
4.53554e-10
-8.99421e-17
4.94504e-10
-8.48649e-17
5.14933e-10
-7.85109e-17
5.22255e-10
-7.18412e-17
5.22471e-10
-6.50919e-17
5.20098e-10
-5.8074e-17
5.18155e-10
-5.06098e-17
5.18155e-10
-4.22922e-17
5.20098e-10
-3.21518e-17
5.22471e-10
-1.88573e-17
5.22255e-10
-1.37685e-18
5.14933e-10
2.07646e-17
4.94504e-10
4.67721e-17
4.53554e-10
6.80374e-17
3.8342e-10
6.6858e-17
2.7435e-10
1.14589e-10
-7.18758e-17
1.14589e-10
-1.00985e-16
2.7435e-10
-1.09834e-16
3.8342e-10
-1.07752e-16
4.53554e-10
-1.00814e-16
4.94504e-10
-9.25043e-17
5.14933e-10
-8.42588e-17
5.22255e-10
-7.65108e-17
5.22471e-10
-6.88025e-17
5.20098e-10
-6.07493e-17
5.18155e-10
-5.22761e-17
5.18155e-10
-4.29723e-17
5.20098e-10
-3.18018e-17
5.22471e-10
-1.7426e-17
5.22255e-10
1.41086e-18
5.14933e-10
2.51593e-17
4.94504e-10
5.20135e-17
4.53554e-10
7.50441e-17
3.8342e-10
7.33464e-17
2.7435e-10
1.1459e-10
-9.03822e-17
1.1459e-10
-1.1458e-16
2.7435e-10
-1.17423e-16
3.8342e-10
-1.11291e-16
4.53554e-10
-1.02136e-16
4.94504e-10
-9.27188e-17
5.14933e-10
-8.42019e-17
5.22255e-10
-7.65199e-17
5.22471e-10
-6.90274e-17
5.20098e-10
-6.14692e-17
5.18155e-10
-5.3765e-17
5.18155e-10
-4.55047e-17
5.20098e-10
-3.58959e-17
5.22471e-10
-2.40938e-17
5.22255e-10
-9.26005e-18
5.14933e-10
8.94046e-18
4.94504e-10
2.85589e-17
4.53554e-10
4.64201e-17
3.8342e-10
4.61596e-17
2.7435e-10
1.1459e-10
-7.53716e-17
1.1459e-10
-9.75739e-17
2.7435e-10
-9.99286e-17
3.8342e-10
-9.44623e-17
4.53554e-10
-8.78297e-17
4.94504e-10
-8.10798e-17
5.14933e-10
-7.51785e-17
5.22255e-10
-6.99711e-17
5.22471e-10
-6.49304e-17
5.20098e-10
-5.99393e-17
5.18155e-10
-5.49575e-17
5.18155e-10
-4.98086e-17
5.20098e-10
-4.43019e-17
5.22471e-10
-3.8344e-17