/*--------------------------------*- C++ -*----------------------------------*\
| =========                 |                                                 |
| \\      /  F ield         | OpenFOAM: The Open Source CFD Toolbox           |
|  \\    /   O peration     | Version:  5.x                                   |
|   \\  /    A nd           | Web:      www.OpenFOAM.org                      |
|    \\/     M anipulation  |                                                 |
\*---------------------------------------------------------------------------*/
FoamFile
{
    version     2.0;
    format      ascii;
    class       volScalarField;
    location    "0.25";
    object      alpha.water;
}
// * * * * * * * * * * * * * * * * * * * * * * * * * * * * * * * * * * * * * //

dimensions      [0 0 0 0 0 0 0];

internalField   nonuniform List<scalar> 
8000
(
1
1
1
1
1
1
1
1
1
1
1
1
1
1
1
1
1
1
1
1
1
1
1
1
1
1
1
1
1
1
1
1
1
1
1
1
1
1
1
1
1
1
1
1
1
1
1
1
1
1
1
1
1
1
1
1
1
1
1
1
1
1
1
1
1
1
1
1
1
1
1
1
1
1
1
1
1
1
1
1
1
1
1
1
1
1
1
1
1
1
1
1
1
1
1
1
1
1
1
1
1
1
1
1
1
1
1
1
1
1
1
1
1
1
1
1
1
1
1
1
1
1
1
1
1
1
1
1
1
1
1
1
1
1
1
1
1
1
1
1
1
1
1
1
1
1
1
1
1
1
1
1
1
1
1
1
1
1
1
1
1
1
1
1
1
1
1
1
1
1
1
1
1
1
1
1
1
1
1
1
1
1
1
1
1
1
1
1
1
1
1
1
1
1
1
1
1
1
1
1
1
1
1
1
1
1
1
1
1
1
1
1
1
1
1
1
1
1
1
1
1
1
1
1
1
1
1
1
1
1
1
1
1
1
1
1
1
1
1
1
1
1
1
1
1
1
1
1
1
1
1
1
1
1
1
1
1
1
1
1
1
1
1
1
1
1
1
1
1
1
1
1
1
1
1
1
1
1
1
1
1
1
1
1
1
1
1
1
1
1
1
1
1
1
1
1
1
1
1
1
1
1
1
1
1
1
1
1
1
1
1
1
1
1
1
1
1
1
1
1
1
1
1
1
1
1
1
1
1
1
1
1
1
1
1
1
1
1
1
1
1
1
1
1
1
1
1
1
1
1
1
1
1
1
1
1
1
1
1
1
1
1
1
1
1
1
1
1
1
1
1
1
1
1
1
1
1
1
1
1
1
1
1
1
1
1
1
1
1
1
1
1
1
1
1
1
1
1
1
1
1
1
1
1
1
1
1
1
1
1
1
1
1
1
1
1
1
1
1
1
1
1
1
1
1
1
1
1
1
1
1
1
1
1
1
1
1
1
1
1
1
1
1
1
1
1
1
1
1
1
1
1
1
1
1
1
1
1
1
1
1
1
1
1
1
1
1
1
1
1
1
1
1
1
1
1
1
1
1
1
1
1
1
1
1
1
1
1
1
1
1
1
1
1
1
1
1
1
1
1
1
1
1
1
1
1
1
1
1
1
1
1
1
1
1
1
1
1
1
1
1
1
1
1
1
1
1
1
1
1
1
1
1
1
1
1
1
1
1
1
1
1
1
1
1
1
1
1
1
1
1
1
1
1
1
1
1
1
1
1
1
1
1
1
1
1
1
1
1
1
1
1
1
1
1
1
1
1
1
1
1
1
1
1
1
1
1
1
1
1
1
1
1
1
1
1
1
1
1
1
1
1
1
1
1
1
1
1
1
1
1
1
1
1
1
1
1
1
1
1
1
1
1
1
1
1
1
1
1
1
1
1
1
1
1
1
1
1
1
1
1
1
1
1
1
1
1
1
1
1
1
1
1
1
1
1
1
1
1
1
1
1
1
1
1
1
1
1
1
1
1
1
1
1
1
1
1
1
1
1
1
1
1
1
1
1
1
1
1
1
1
1
1
1
1
1
1
1
1
1
1
1
1
1
1
1
1
1
1
1
1
1
1
1
1
1
1
1
1
1
1
1
1
1
1
1
1
1
1
1
1
1
1
1
1
1
1
1
1
1
1
1
1
1
1
1
1
1
1
1
1
1
1
1
1
1
1
1
1
1
1
1
1
1
1
1
1
1
1
1
1
1
1
1
1
1
1
1
1
1
1
1
1
1
1
1
1
1
1
1
1
1
1
1
1
1
1
1
1
1
1
1
1
1
1
1
1
1
1
1
1
1
1
1
1
1
1
1
1
1
1
1
1
1
1
1
1
1
1
1
1
1
1
1
1
1
1
1
1
1
1
1
1
1
1
1
1
1
1
1
1
1
1
1
1
1
1
1
1
1
1
1
1
1
1
1
1
1
1
1
1
1
1
1
1
1
1
1
1
1
1
1
1
1
1
1
1
1
1
1
1
1
1
1
1
1
1
1
1
1
1
1
1
1
1
1
1
1
1
1
1
1
1
1
1
1
1
1
1
1
1
1
1
1
1
1
1
1
1
1
1
1
1
1
1
1
1
1
1
1
1
1
1
1
1
1
1
1
1
1
1
1
1
1
1
1
1
1
1
1
1
1
1
1
1
1
1
1
1
1
1
1
1
1
1
1
1
1
1
1
1
1
1
1
1
1
1
1
1
1
1
1
1
1
1
1
1
1
1
1
1
1
1
1
1
1
1
1
1
1
1
1
1
1
1
1
1
1
1
1
1
1
1
1
1
1
1
1
1
1
1
1
1
1
1
1
1
1
1
1
1
1
1
1
1
1
1
1
1
1
1
1
1
1
1
1
1
1
1
1
1
1
1
1
1
1
1
1
1
1
1
1
1
1
1
1
1
1
1
1
1
1
1
1
1
1
1
1
1
1
1
1
1
1
1
1
1
1
1
1
1
1
1
1
1
1
1
1
1
1
1
1
1
1
1
1
1
1
1
1
1
1
1
1
1
1
1
1
1
1
1
1
1
1
1
1
1
1
1
1
1
1
1
1
1
1
1
1
1
1
1
1
1
1
1
1
1
1
1
1
1
1
1
1
1
1
1
1
1
1
1
1
1
1
1
1
1
1
1
1
1
1
1
1
1
1
1
1
1
1
1
1
1
1
1
1
1
1
1
1
1
1
1
1
1
1
1
1
1
1
1
1
1
1
1
1
1
1
1
1
1
1
1
1
1
1
1
1
1
1
1
1
1
1
1
1
1
1
1
1
1
1
1
1
1
1
1
1
1
1
1
1
1
1
1
1
1
1
1
1
1
1
1
1
1
1
1
1
1
1
1
1
1
1
1
1
1
1
1
1
1
1
1
1
1
1
1
1
1
1
1
1
1
1
1
1
1
1
1
1
1
1
1
1
1
1
1
1
1
1
1
1
1
1
1
1
1
1
1
1
1
1
1
1
1
1
1
1
1
1
1
1
1
1
1
1
1
1
1
1
1
1
1
1
1
1
1
1
1
1
1
1
1
1
1
1
1
1
1
1
1
1
1
1
1
1
1
1
1
1
1
1
1
1
1
1
1
1
1
1
1
1
1
1
1
1
1
1
1
1
1
1
1
1
1
1
1
1
1
1
1
1
1
1
1
1
1
1
1
1
1
1
1
1
1
1
1
1
1
1
1
1
1
1
1
1
1
1
1
1
1
1
1
1
1
1
1
1
1
1
1
1
1
1
1
1
1
1
1
1
1
1
1
1
1
1
1
1
1
1
1
1
1
1
1
1
1
1
1
1
1
1
1
1
1
1
1
1
1
1
1
1
1
1
1
1
1
1
1
1
1
1
1
1
1
1
1
1
1
1
1
1
1
1
1
1
1
1
1
1
1
1
1
1
1
1
1
1
1
1
1
1
1
1
1
1
1
1
1
1
1
1
1
1
1
1
1
1
1
1
1
1
1
1
1
1
1
1
1
1
1
1
1
1
1
1
1
1
1
1
1
1
1
1
1
1
1
1
1
1
1
1
1
1
1
1
1
1
1
1
1
1
1
1
1
1
1
1
1
1
1
1
1
1
1
1
1
1
1
1
1
1
1
1
1
1
1
1
1
1
1
1
1
1
1
1
1
1
1
1
1
1
1
1
1
1
1
1
1
1
1
1
1
1
1
1
1
1
1
1
1
1
1
1
1
1
1
1
1
1
1
1
1
1
1
1
1
1
1
1
1
1
1
1
1
1
1
1
1
1
1
1
1
1
1
1
1
1
1
1
1
1
1
1
1
1
1
1
1
1
1
1
1
1
1
1
1
1
1
1
1
1
1
1
1
1
1
1
1
1
1
1
1
1
1
1
1
1
1
1
1
1
1
1
1
1
1
1
1
1
1
1
1
1
1
1
1
1
1
1
1
1
1
1
1
1
1
1
1
1
1
1
1
1
1
1
1
1
1
1
1
1
1
1
1
1
1
1
1
1
1
1
1
1
1
1
1
1
1
1
1
1
1
1
1
1
1
1
1
1
1
1
1
1
1
1
1
1
1
1
1
1
1
1
1
1
1
1
1
1
1
1
1
1
1
1
1
1
1
1
1
1
1
1
1
1
1
1
1
1
1
1
1
1
1
1
1
1
1
1
1
1
1
1
1
1
1
1
1
1
1
1
1
1
1
1
1
1
1
1
1
1
1
1
1
1
1
1
1
1
1
1
1
1
1
1
1
1
1
1
1
1
1
1
1
1
1
1
1
1
1
1
1
1
1
1
1
1
1
1
1
1
1
1
1
1
1
1
1
1
1
1
1
1
1
1
1
1
1
1
1
1
1
1
1
1
1
1
1
1
1
1
1
1
1
1
1
1
1
1
1
1
1
1
1
1
1
1
1
1
1
1
1
1
1
1
1
1
1
1
1
1
1
1
1
1
1
1
1
1
1
1
1
1
1
1
1
1
1
1
1
1
1
1
1
1
1
1
1
1
1
1
1
1
1
1
1
1
1
1
1
1
1
1
1
1
1
1
1
1
1
1
1
1
1
1
1
1
1
1
1
1
1
1
1
1
1
1
1
1
1
1
1
1
1
1
1
1
1
1
1
1
1
1
1
1
1
1
1
1
1
1
1
1
1
1
1
1
1
1
1
1
1
1
1
1
1
1
1
1
1
1
1
1
1
1
1
1
1
1
1
1
1
1
1
1
1
1
1
1
1
1
1
1
1
1
1
1
1
1
1
1
1
1
1
1
1
1
1
1
1
1
1
1
1
1
1
1
1
1
1
1
1
1
1
1
1
1
1
1
1
1
1
1
1
1
1
1
1
1
1
1
1
1
1
1
1
1
1
1
1
1
1
1
1
1
1
1
1
1
1
1
1
1
1
1
1
1
1
1
1
1
1
1
1
1
1
1
1
1
1
1
1
1
1
1
1
1
1
1
1
1
1
1
1
1
1
1
1
1
1
1
1
1
1
1
1
1
1
1
1
1
1
1
1
1
1
1
1
1
1
1
1
1
1
1
1
1
1
1
1
1
1
1
1
1
1
1
1
1
1
1
1
1
1
1
1
1
1
1
1
1
1
1
1
1
1
1
1
1
1
1
1
1
1
1
1
1
1
1
1
1
1
1
1
1
1
1
1
1
1
1
1
1
1
1
1
1
1
1
1
1
1
1
1
1
1
1
1
1
1
1
1
1
1
1
1
1
1
1
1
1
1
1
1
1
1
1
1
1
1
1
1
1
1
1
1
1
1
1
1
1
1
1
1
1
1
1
1
1
1
1
1
1
1
1
1
1
1
1
1
1
1
1
1
1
1
1
1
1
1
1
1
1
1
1
1
1
1
1
1
1
1
1
1
1
1
1
1
1
1
1
1
1
1
1
1
1
1
1
1
1
1
1
1
1
1
1
1
1
1
1
1
1
1
1
1
1
1
1
1
1
1
1
1
1
1
1
1
1
1
1
1
1
1
1
1
1
1
1
1
1
1
1
1
1
1
1
1
1
1
1
1
1
1
1
1
1
1
1
1
1
1
1
1
1
1
1
1
1
1
1
1
1
1
1
1
1
1
1
1
1
1
1
1
1
1
1
1
1
1
1
1
1
1
1
1
1
1
1
1
1
1
1
1
1
1
1
1
1
1
1
1
1
1
1
1
1
1
1
1
1
1
1
1
1
1
1
1
1
1
1
1
1
1
1
1
1
1
1
1
1
1
1
1
1
1
1
1
1
1
1
1
1
1
1
1
1
1
1
1
1
1
1
1
1
1
1
1
1
1
1
1
1
1
1
1
1
1
1
1
1
1
1
1
1
1
1
1
1
1
1
1
1
1
1
1
1
1
1
1
1
1
1
1
1
1
1
1
1
1
1
1
1
1
1
1
1
1
1
1
1
1
1
1
1
1
1
1
1
1
1
1
1
1
1
1
1
1
1
1
1
1
1
1
1
1
1
1
1
1
1
1
1
1
1
1
1
1
1
1
1
1
1
1
1
1
1
1
1
1
1
1
1
1
1
1
1
1
1
1
1
1
1
1
1
1
1
1
1
1
1
1
1
1
1
1
1
1
1
1
1
1
1
1
1
1
1
1
1
1
1
1
1
1
1
1
1
1
1
1
1
1
1
1
1
1
1
1
1
1
1
1
1
1
1
1
1
1
1
1
1
1
1
1
1
1
1
1
1
1
1
1
1
1
1
1
1
1
1
1
1
1
1
1
1
1
1
1
1
1
1
1
1
1
1
1
1
1
1
1
1
1
1
1
1
1
1
1
1
1
1
1
1
1
1
1
1
1
1
1
1
1
1
1
1
1
1
1
1
1
1
1
1
1
1
1
1
1
1
1
1
1
1
1
1
1
1
1
1
1
1
1
1
1
1
1
1
1
1
1
1
1
1
1
1
1
1
1
1
1
1
1
1
1
1
1
1
1
1
1
1
1
1
1
1
1
1
1
1
1
1
1
1
1
1
1
1
1
1
1
1
1
1
1
1
1
1
1
1
1
1
1
1
1
1
1
1
1
1
1
1
1
1
1
1
1
1
1
1
1
1
1
1
1
1
1
1
1
1
1
1
1
1
1
1
1
1
1
1
1
1
1
1
1
1
1
1
1
1
1
1
1
1
1
1
1
1
1
1
1
1
1
1
1
1
1
1
1
1
1
1
1
1
1
1
1
1
1
1
1
1
1
1
1
1
1
1
1
1
1
1
1
1
1
1
1
1
1
1
1
1
1
1
1
1
1
1
1
1
1
1
1
1
1
1
1
1
1
1
1
1
1
1
1
1
1
1
1
1
1
1
1
1
1
1
1
1
1
1
1
1
1
1
1
1
1
1
1
1
1
1
1
1
1
1
1
1
1
1
1
1
1
1
1
1
1
1
1
1
1
1
1
1
1
1
1
1
1
1
1
1
1
1
1
1
1
1
1
1
1
1
1
1
1
1
1
1
1
1
1
1
1
1
1
1
1
1
1
1
1
1
1
1
1
1
1
1
1
1
1
1
1
1
1
1
1
1
1
1
1
1
1
1
0.999998
1
1
1
1
1
1
1
1
1
0.999994
0.999993
1
1
1
1
1
1
1
1
0.99999
0.999984
0.999992
1
1
1
1
0.999995
0.999975
0.999958
0.999958
0.999988
1
1
1
1
1
1
1
1
0.99999
0.999957
0.999957
0.999966
0.999987
1
1
0.999956
0.999955
0.999955
0.999959
0.999993
1
1
1
1
1
1
1
1
0.999996
0.999968
0.999957
0.999957
0.999957
1
1
0.999967
0.999964
0.99997
0.999993
0.999999
1
1
0.999989
0.99963
0.999621
0.999844
0.999996
1
1
0.999998
0.999982
0.999968
0.999969
1
0.99995
0.999993
0.999998
0.999999
1
1
1
1
0.999639
0.999376
0.999376
0.999398
0.99993
1
1
1
1
0.999999
0.999992
0.999948
0.999986
0.999995
1
1
1
1
1
1
0.999376
0.999376
0.999376
0.999376
0.999893
1
1
1
1
1
0.999995
0.999987
1
1
1
1
1
1
1
0.999999
0.999459
0.999376
0.999376
0.999376
0.999951
1
1
1
1
1
1
1
1
1
0.999991
0.999969
0.999982
1
1
1
0.999882
0.999376
0.999376
0.999528
1
1
1
0.999999
0.999999
0.999999
1
1
1
1
0.999995
0.999962
0.999952
0.999952
0.999979
1
0.999999
0.999512
0.999384
0.999953
1
1
1
0.999997
0.999991
0.999991
0.999993
1
1
0.999988
0.999997
0.999998
0.999995
0.999971
0.99997
0.999982
1
0.999962
0.999891
1
1
1
1
0.999999
0.999998
0.999989
0.999984
0.999984
0.999944
0.999947
0.999995
1
1
1
0.99997
0.99997
0.999993
1
1
1
1
1
1
1
1
1
0.999988
0.999959
0.999745
0.999965
1
1
1
1
0.999994
0.999973
0.999991
1
1
1
1
1
1
1
1
0.999997
0.999996
1
1
1
1
1
1
1
1
0.999995
0.999996
1
1
1
1
1
1
1
1
0.999999
1
1
1
1
1
1
1
1
1
1
0.999998
1
1
0.999999
1
1
1
1
1
1
1
0.999997
0.999999
1
1
1
1
1
1
0.999998
0.999999
1
1
0.999999
1
1
1
1
1
1
1
0.999985
0.999999
1
1
1
1
1
1
0.999999
1
1
1
1
1
1
1
1
1
1
1
0.999989
1
1
1
1
1
1
1
1
1
0.985883
0.994747
1
1
1
1
1
1
1
1
1
1
1
1
0.98198
0.919221
0.750614
0.508869
0.324532
0.202734
0.163969
0.166547
0.241999
0.387127
0.566921
0.766887
0.90139
0.954792
0.992556
1
1
1
0.987553
0.862728
0.622853
0.258537
0.0524467
0.00545209
3.15289e-22
2.23906e-20
-1.63404e-21
-2.46385e-22
3.04206e-33
9.99084e-21
0.0361866
0.136709
0.380246
0.714751
0.886341
0.997581
1
1
0.746315
0.332735
0.0343205
1.07949e-14
1.07979e-14
1.07948e-14
8.9927e-11
4.03795e-11
2.36517e-11
1.65458e-11
4.82194e-12
6.39629e-13
6.46424e-14
6.46424e-14
0.00788401
0.0966699
0.446246
0.810471
1
0.65527
0.0987417
1.83138e-13
1.73341e-13
1.71362e-12
4.64583e-11
1.2848e-10
1.40749e-10
6.31101e-11
1.3766e-11
4.60562e-12
1.49603e-12
3.34688e-13
6.46424e-14
6.46424e-14
6.46424e-14
6.46423e-14
0.00776683
0.185376
0.750436
0.0517707
1.58766e-14
5.08038e-13
4.33901e-12
1.56273e-11
3.85404e-11
1.06044e-10
1.63348e-10
1.45807e-10
1.6238e-11
1.2164e-12
4.66097e-13
4.02415e-13
4.13689e-13
2.14667e-13
6.46424e-14
1.1072e-13
1.42461e-14
1.42246e-14
0.080987
1.78897e-21
1.64125e-14
8.11428e-13
4.51555e-12
9.41101e-12
5.84907e-12
2.26592e-11
1.08475e-10
2.2757e-10
8.82978e-11
2.77874e-12
2.24306e-13
2.24702e-13
2.4211e-13
3.40446e-13
3.46721e-13
3.2588e-13
1.76246e-13
1.42028e-14
-3.22746e-20
2.36288e-19
1.61876e-18
1.2021e-14
2.63371e-13
8.68774e-13
6.31508e-14
6.74677e-13
1.84791e-11
2.32591e-10
1.89846e-10
4.44049e-11
2.6712e-12
1.83472e-13
1.43395e-13
1.51009e-13
1.9403e-13
1.16188e-13
2.14678e-14
1.85762e-16
2.13508e-17
1.4969e-17
1.62389e-18
4.86059e-18
6.29198e-16
4.73462e-15
4.51225e-15
4.06175e-13
5.41681e-12
1.55829e-10
2.3048e-10
1.26749e-10
1.96193e-11
6.01897e-13
9.39306e-14
8.18149e-14
6.44114e-14
1.60781e-14
1.48433e-16
5.54205e-35
2.95275e-17
8.2624e-16
1.62387e-18
1.68409e-17
1.21555e-16
6.18584e-16
6.91712e-15
6.50924e-13
8.18784e-12
1.47838e-10
2.78427e-10
1.80107e-10
3.15386e-11
8.41004e-13
7.51543e-14
4.57135e-14
2.54119e-14
2.54893e-15
4.24248e-18
2.67594e-35
6.494e-17
1.03707e-15
9.39284e-17
1.05585e-16
2.1032e-16
3.87923e-16
4.78325e-14
2.0048e-12
2.13444e-11
2.33861e-10
3.89922e-10
2.31772e-10
3.28279e-11
5.48292e-13
6.6196e-14
3.12757e-14
1.22709e-14
1.97833e-15
1.98299e-17
-1.3429e-34
3.99355e-16
6.68615e-12
9.4682e-17
2.76372e-14
3.77815e-14
1.177e-13
3.86487e-12
2.40821e-11
9.47678e-11
4.82685e-10
5.74367e-10
2.69229e-10
2.22743e-11
1.9325e-13
6.00202e-14
2.88042e-14
8.7092e-15
2.17521e-15
8.44157e-17
4.27251e-33
3.41176e-14
-9.46552e-32
8.92134e-14
1.40436e-12
2.6677e-12
1.14764e-11
5.56596e-11
8.14292e-11
2.31991e-10
8.90468e-10
8.06749e-10
2.32567e-10
1.00709e-11
9.20822e-14
4.6584e-14
3.2867e-14
8.862e-15
1.74042e-15
2.13032e-16
7.04733e-48
-3.66669e-34
9.81268e-06
8.95854e-14
1.86557e-12
1.81061e-11
6.99251e-11
9.43332e-11
8.45242e-11
4.08704e-10
1.386e-09
9.16597e-10
1.43209e-10
7.03986e-12
2.09703e-13
3.38929e-14
3.38438e-14
1.6854e-14
3.06969e-15
4.76089e-16
-4.64752e-27
7.82786e-08
0.000116711
2.94906e-06
1.86913e-12
2.56437e-11
7.00682e-11
6.51865e-11
6.51427e-11
2.85585e-09
3.31198e-09
8.15557e-10
4.63573e-11
1.53302e-11
1.66195e-12
3.51175e-14
2.33816e-14
1.81727e-14
3.62389e-15
2.17355e-16
2.4021e-06
6.29141e-05
0.000119512
1.0136e-11
1.01234e-11
1.80286e-11
1.19695e-11
1.17255e-11
6.58134e-09
1.00187e-08
3.55585e-09
6.18723e-11
4.04953e-11
3.62865e-11
8.42714e-12
1.45118e-13
5.37401e-15
7.73424e-15
3.32627e-15
2.1745e-16
2.17355e-16
7.62863e-05
0.000117664
8.70832e-07
5.1923e-12
5.19666e-12
5.1923e-12
2.19642e-08
2.6261e-08
1.0972e-08
2.20823e-10
1.42355e-11
5.40291e-11
8.55783e-11
5.95931e-11
4.02767e-12
2.14799e-16
2.14799e-16
5.22622e-16
2.1478e-16
1.68075e-07
4.95528e-05
5.14583e-05
1.82449e-25
1.15284e-09
1.62836e-08
3.41772e-08
3.55813e-08
2.63713e-08
2.09132e-09
1.09948e-11
1.29338e-11
2.5131e-11
7.09253e-11
2.91781e-10
4.56636e-10
2.4276e-10
1.01277e-10
2.1478e-16
2.1478e-16
7.50517e-08
1.07305e-05
1.6816e-07
3.08946e-25
1.65334e-09
2.3544e-08
3.66324e-08
3.13802e-08
5.52365e-09
9.39137e-12
1.09913e-11
1.2322e-11
1.35157e-11
2.88488e-11
1.55518e-10
1.27348e-09
3.95936e-09
5.0923e-09
4.31266e-09
2.50245e-09
4.71678e-09
3.68543e-25
-4.6874e-27
2.40961e-11
1.11778e-09
4.99232e-09
1.05848e-08
3.56009e-09
4.63957e-12
9.38747e-12
1.15305e-11
1.13414e-11
1.14567e-11
1.3196e-11
2.82336e-11
9.33267e-10
4.55969e-09
6.21405e-09
6.214e-09
2.65627e-09
3.95291e-12
3.95228e-12
2.27024e-11
5.28454e-11
1.23104e-10
2.58046e-13
2.5803e-13
2.58046e-13
4.42192e-12
1.04109e-11
1.14392e-11
9.59362e-12
9.63868e-12
1.15932e-11
1.26933e-11
2.71606e-10
1.89885e-09
3.42331e-09
3.02212e-09
8.70361e-10
1.84366e-11
3.3005e-12
5.88267e-12
3.00513e-11
4.15625e-12
3.26313e-13
3.91344e-13
1.09082e-12
6.36578e-12
1.08464e-11
1.04967e-11
6.98513e-12
6.95254e-12
1.03337e-11
1.16115e-11
2.37765e-11
1.11377e-10
2.39225e-10
1.57254e-10
2.60229e-11
1.11521e-11
5.11187e-13
1.88594e-13
3.46245e-12
9.72048e-13
8.02747e-13
1.3508e-12
3.22732e-12
8.07281e-12
1.08488e-11
8.7163e-12
4.23647e-12
3.93922e-12
7.98716e-12
1.01716e-11
8.92105e-12
4.17798e-12
9.60203e-13
9.60224e-13
9.60211e-13
1.04377e-12
8.19254e-14
6.68731e-14
9.62526e-14
1.00282e-12
2.36658e-12
3.12453e-12
4.67068e-12
8.10878e-12
9.68285e-12
6.17747e-12
2.24204e-12
1.82803e-12
4.80783e-12
7.84714e-12
7.59161e-12
4.54933e-12
2.93106e-12
3.05818e-12
1.16459e-12
8.63194e-14
6.60522e-14
7.089e-14
1.2479e-13
2.93416e-12
4.7813e-12
3.72862e-12
4.61919e-12
7.15148e-12
6.93277e-12
3.53896e-12
1.15981e-12
9.13089e-13
2.29469e-12
4.89633e-12
5.84934e-12
4.22785e-12
3.38146e-12
5.03884e-12
3.63557e-12
1.91875e-13
5.82563e-14
8.60048e-14
5.15263e-13
7.34309e-12
5.83824e-12
3.31807e-12
3.81454e-12
4.8661e-12
3.81531e-12
1.68048e-12
6.58689e-13
5.6097e-13
1.06175e-12
2.44857e-12
3.44217e-12
3.03188e-12
2.70826e-12
5.42458e-12
7.84219e-12
5.54243e-13
4.86646e-14
1.95532e-13
2.85576e-12
1.05072e-11
5.54576e-12
2.0851e-12
2.33084e-12
2.43353e-12
1.6225e-12
7.69916e-13
4.08861e-13
3.70912e-13
5.61345e-13
1.06246e-12
1.57734e-12
1.58715e-12
1.37069e-12
4.85567e-12
1.05224e-11
2.12694e-12
1.04317e-13
6.25398e-13
1.08644e-11
1.11657e-11
4.0275e-12
8.18903e-13
1.0648e-12
9.70537e-13
6.02399e-13
3.87405e-13
2.55546e-13
2.35188e-13
3.26049e-13
4.51517e-13
6.54061e-13
6.98e-13
4.54133e-13
3.26036e-12
1.08347e-11
8.30481e-12
4.53458e-13
1.22827e-12
2.4931e-11
1.08007e-11
1.79102e-12
2.34784e-13
4.21135e-13
3.62242e-13
2.32124e-13
2.09989e-13
1.49885e-13
1.35324e-13
1.901e-13
1.99948e-13
2.67088e-13
2.97672e-13
1.36351e-13
1.38253e-12
1.04442e-11
2.07909e-11
9.94837e-13
1.14645e-12
3.42557e-11
8.297e-12
4.34908e-13
7.54737e-14
1.63765e-13
1.35942e-13
9.86604e-14
1.12682e-13
7.7942e-14
6.89199e-14
1.04204e-13
9.16701e-14
1.0594e-13
1.22869e-13
4.86479e-14
3.5705e-13
8.20967e-12
3.33469e-11
9.30033e-13
1.49888e-12
3.514e-11
4.43049e-12
5.72405e-14
2.91765e-14
6.22848e-14
4.8866e-14
4.39914e-14
5.67228e-14
3.5405e-14
3.1039e-14
5.26583e-14
4.21125e-14
3.93332e-14
4.68064e-14
1.9193e-14
5.83271e-14
4.51312e-12
3.53335e-11
1.08356e-12
1.77342e-11
3.20505e-11
1.86722e-12
5.67126e-15
1.0809e-14
2.21412e-14
1.60816e-14
1.91078e-14
2.64365e-14
1.43662e-14
1.26282e-14
2.45785e-14
1.86611e-14
1.34408e-14
1.63353e-14
7.20183e-15
7.20575e-15
1.89522e-12
3.41598e-11
8.21299e-12
2.63466e-10
1.95818e-11
4.85195e-13
6.18327e-16
3.5392e-15
7.16116e-15
4.85291e-15
7.80363e-15
1.13847e-14
5.37169e-15
4.76142e-15
1.06278e-14
7.7669e-15
4.25348e-15
5.28876e-15
2.39247e-15
8.68041e-16
5.77291e-13
2.47817e-11
1.68672e-10
1.13259e-09
3.78515e-12
5.97846e-14
1.12083e-16
1.05196e-15
2.10742e-15
1.37394e-15
2.97305e-15
4.52451e-15
1.87964e-15
1.68169e-15
4.25136e-15
3.00758e-15
1.25735e-15
1.59197e-15
7.02785e-16
1.00723e-16
8.86417e-14
7.75755e-12
9.25289e-10
2.05128e-09
6.1314e-14
3.30813e-15
4.21336e-17
2.94754e-16
5.67797e-16
3.69974e-16
1.06082e-15
1.65742e-15
6.14148e-16
5.54741e-16
1.57048e-15
1.08282e-15
3.49343e-16
4.40624e-16
1.90058e-16
3.27912e-17
6.19732e-15
4.60685e-14
1.95946e-09
1.94913e-09
5.07424e-18
2.5908e-16
1.74848e-17
7.74826e-17
1.40539e-16
9.46707e-17
3.55493e-16
5.61074e-16
1.864e-16
1.70188e-16
5.36758e-16
3.62717e-16
9.14781e-17
1.11109e-16
4.83534e-17
1.82606e-17
5.14136e-16
5.61194e-18
2.05387e-09
9.01499e-10
5.07424e-18
4.75945e-17
4.84494e-18
1.86137e-17
3.20111e-17
2.29438e-17
1.11337e-16
1.76531e-16
5.25832e-17
4.85714e-17
1.70444e-16
1.12987e-16
2.25787e-17
2.5536e-17
1.14131e-17
7.86032e-18
8.50404e-17
5.61194e-18
1.1283e-09
1.08344e-10
5.07424e-18
1.13545e-17
8.48811e-19
4.03492e-18
6.70168e-18
5.2735e-18
3.23601e-17
5.18251e-17
1.38353e-17
1.29241e-17
5.04173e-17
3.26953e-17
5.25803e-18
5.37495e-18
2.44829e-18
1.68614e-18
1.51007e-17
5.61194e-18
1.69909e-10
1.64493e-12
5.73681e-16
5.78363e-18
1.08113e-19
7.91418e-19
1.28403e-18
1.15458e-18
8.70728e-18
1.41953e-17
3.40002e-18
3.2083e-18
1.38895e-17
8.78525e-18
1.16046e-18
1.03693e-18
4.72813e-19
1.4404e-19
6.82015e-18
5.573e-16
3.2129e-12
1.77433e-15
6.26097e-16
4.5405e-18
1.2537e-20
1.40794e-19
2.23925e-19
2.41789e-19
2.17284e-18
3.62086e-18
7.7956e-19
7.42246e-19
3.55887e-18
2.19246e-18
2.44067e-19
1.82359e-19
8.24493e-20
6.2239e-21
4.62894e-18
6.8186e-16
3.64853e-15
1.70121e-16
2.40733e-16
2.01751e-18
1.3615e-21
2.26235e-20
3.53919e-20
4.85281e-20
5.03706e-19
8.58865e-19
1.66528e-19
1.59837e-19
8.47256e-19
5.08269e-19
4.91008e-20
2.90224e-20
1.30374e-20
3.63069e-22
2.05573e-18
2.64836e-16
1.58505e-16
2.74732e-17
1.60176e-17
2.40701e-19
1.58844e-22
3.26604e-21
5.05075e-21
9.33811e-21
1.08423e-19
1.89309e-19
3.3119e-20
3.20136e-20
1.87295e-19
1.09403e-19
9.45594e-21
4.16046e-21
1.86542e-21
4.54002e-23
3.05711e-19
1.76162e-17
2.39795e-17
7.57669e-19
1.01684e-19
4.43674e-21
2.17043e-23
4.22352e-22
6.4798e-22
1.71795e-21
2.16321e-20
3.87413e-20
6.12824e-21
5.95932e-21
3.84139e-20
2.18351e-20
1.73874e-21
5.3661e-22
2.40313e-22
7.40014e-24
8.08973e-21
1.10382e-19
6.97379e-19
1.38036e-21
3.84507e-23
8.12864e-24
2.91058e-24
4.87513e-23
7.44608e-23
3.00163e-22
3.99227e-21
7.35043e-21
1.05364e-21
1.02968e-21
7.30017e-21
4.03306e-21
3.03556e-22
6.22256e-23
2.7721e-23
1.05615e-24
2.21184e-23
4.09735e-23
1.44153e-21
8.88817e-26
1.06982e-27
1.34985e-27
3.13211e-25
4.98367e-24
7.63677e-24
4.9358e-23
6.80067e-22
1.29055e-21
1.67989e-22
1.64827e-22
1.28326e-21
6.87878e-22
4.99225e-23
6.46037e-24
2.83983e-24
1.11523e-25
4.11477e-27
1.14159e-27
1.10598e-25
1.42575e-30
2.29725e-31
3.81728e-29
2.62477e-26
4.45991e-25
6.94807e-25
7.56281e-24
1.06673e-22
2.09222e-22
2.47765e-23
2.43867e-23
2.08227e-22
1.0808e-22
7.6612e-24
5.95668e-25
2.55478e-25
8.99297e-27
8.70429e-30
7.91614e-32
1.83328e-30
2.55725e-34
2.67129e-32
4.95697e-30
1.87306e-27
3.44973e-26
5.5578e-26
1.06927e-24
1.53647e-23
3.12401e-23
3.37108e-24
3.32595e-24
3.11126e-23
1.56003e-23
1.08597e-24
4.83388e-26
1.99384e-26
6.30012e-28
1.04202e-30
6.48493e-33
8.19411e-35
2.66058e-35
3.05214e-33
4.30266e-31
1.18624e-28
2.27423e-27
3.87618e-27
1.38329e-25
2.0255e-24
4.28353e-24
4.21768e-25
4.1684e-25
4.26832e-24
2.0616e-24
1.40881e-25
3.4309e-27
1.33174e-27
4.01616e-29
1.02088e-31
7.62233e-34
6.87644e-36
2.30327e-36
1.83551e-34
2.1189e-32
6.36776e-30
1.25518e-28
2.35222e-28
1.62739e-26
2.43427e-25
5.37488e-25
4.83426e-26
4.78332e-26
5.35813e-25
2.48436e-25
1.66146e-26
2.13056e-28
7.47594e-29
2.20198e-30
5.40162e-33
4.81357e-35
6.691e-37
9.9456e-38
6.79945e-36
8.56505e-34
2.72916e-31
5.65877e-30
1.25999e-29
1.73399e-27
2.65473e-26
6.14683e-26
5.05387e-27
5.00409e-27
6.13001e-26
2.71741e-26
1.77382e-27
1.17724e-29
3.43752e-30
9.71369e-32
2.14531e-34
1.75827e-36
3.22018e-38
2.54529e-39
2.3002e-37
3.26847e-35
8.92355e-33
2.01412e-31
6.29246e-31
1.66765e-28
2.61321e-27
6.37657e-27
4.79395e-28
4.7482e-28
6.36135e-27
2.68371e-27
1.70885e-28
6.1321e-31
1.24977e-31
3.28948e-33
8.63734e-36
4.77058e-38
6.79013e-40
1.56981e-41
3.7057e-39
9.81228e-37
2.10758e-34
5.39725e-33
3.32927e-32
1.44145e-29
2.30753e-28
5.96687e-28
4.10096e-29
4.06184e-29
5.95463e-28
2.37851e-28
1.47928e-29
3.41442e-32
3.42485e-33
8.10516e-35
2.98649e-37
4.26158e-40
1.87401e-42
-3.18999e-41
5.40713e-42
1.89051e-38
3.28574e-36
1.01768e-34
2.1812e-33
1.11272e-30
1.81457e-29
5.00324e-29
3.14115e-30
3.11042e-30
4.99463e-29
1.87813e-29
1.14335e-30
2.33375e-33
6.62252e-35
1.33002e-36
6.24253e-39
-1.30979e-39
-8.15456e-41
-5.199e-41
-6.97032e-40
1.42605e-40
2.77838e-38
1.22907e-36
1.78083e-34
7.6025e-32
1.25968e-30
3.72961e-30
2.13595e-31
2.11412e-31
3.72442e-30
1.30993e-30
7.81873e-32
1.93726e-34
8.27294e-37
1.15343e-38
3.72493e-41
-1.99105e-39
-1.12643e-40
-4.47583e-41
-7.10674e-40
1.30255e-43
6.74942e-41
7.84864e-39
1.49979e-35
4.54168e-33
7.6386e-32
2.44815e-31
1.2761e-32
1.26229e-32
2.44559e-31
7.98601e-32
4.67309e-33
1.62093e-35
5.32833e-39
2.66812e-41
-3.21531e-41
-1.5945e-39
-9.1986e-41
-2.47488e-41
-4.47967e-40
-2.21087e-41
-3.78315e-41
1.41479e-41
1.02633e-36
2.33452e-34
3.99396e-33
1.39871e-32
6.61325e-34
6.5367e-34
1.39775e-32
4.20171e-33
2.40249e-34
1.09034e-36
9.26947e-42
-1.12116e-40
-7.10325e-41
-9.23769e-40
-4.98848e-41
-9.76071e-42
-2.18637e-40
-2.90175e-41
-1.07186e-40
-7.4771e-41
4.66112e-38
1.01132e-35
1.77192e-34
6.85597e-34
2.92593e-35
2.88943e-35
6.85405e-34
1.87784e-34
1.04089e-35
4.74743e-38
-1.76897e-40
-2.26961e-40
-7.38953e-41
-4.3234e-40
-1.94833e-41
-3.10341e-42
-9.00792e-41
-2.43739e-41
-1.28937e-40
-1.80749e-40
1.03721e-39
3.60271e-37
6.53606e-36
2.83123e-35
1.0832e-36
1.06853e-36
2.8317e-35
6.98822e-36
3.70494e-37
8.78149e-40
-3.80719e-40
-2.54232e-40
-5.71582e-41
-1.73889e-40
-6.19183e-42
-8.65387e-43
-3.29682e-41
-1.65919e-41
-1.14129e-40
-2.35346e-40
5.39692e-42
9.70467e-39
1.95572e-37
9.62278e-37
3.2734e-38
3.22514e-38
9.63013e-37
2.11302e-37
9.80665e-39
2.78316e-42
-4.71427e-40
-2.18009e-40
-3.73338e-41
-6.27322e-41
-1.73952e-42
-2.22502e-43
-1.10981e-41
-9.9273e-42
-8.53117e-41
-2.30706e-40
-3.9231e-41
1.34578e-40
4.42329e-39
2.60922e-38
7.62307e-40
7.40442e-40
2.60846e-38
4.78654e-39
1.17746e-40
-9.79794e-41
-4.48708e-40
-1.60686e-40
-2.18094e-41
-2.09415e-41
-4.52962e-43
-5.42527e-44
-3.51953e-42
-5.42607e-42
-5.7465e-41
-1.91294e-40
-7.97439e-41
3.97672e-43
5.50445e-41
5.14868e-40
1.0733e-41
9.41808e-42
5.04221e-40
5.49487e-41
2.03721e-43
-1.72798e-40
-3.65663e-40
-1.07653e-40
-1.17443e-41
-6.61276e-42
-1.12169e-43
-1.27434e-44
-1.0683e-42
-2.77043e-42
-3.61374e-41
-1.42513e-40
-9.40655e-41
-1.00932e-41
1.67493e-43
4.7097e-42
4.34681e-44
2.97002e-44
3.79916e-42
1.29015e-43
-2.2845e-41
-1.90127e-40
-2.69678e-40
-6.75769e-41
-5.93814e-42
-2.00469e-42
-2.67852e-44
-2.90936e-45
-3.1356e-43
-1.34147e-42
-2.16549e-41
-9.89051e-41
-8.62889e-41
-1.92827e-41
-2.37215e-42
7.08007e-45
-1.79491e-43
-4.18833e-43
1.51779e-45
-5.16753e-42
-3.96112e-41
-1.67879e-40
-1.86066e-40
-4.04648e-41
-2.85625e-42
-5.89152e-43
-6.21488e-45
-6.49415e-46
-8.96101e-44
-6.22966e-43
-1.25183e-41
-6.54196e-41
-6.85979e-41
-2.22861e-41
-4.94209e-42
-8.29272e-43
-4.32098e-43
-8.90491e-43
-1.77096e-42
-9.92137e-42
-4.37538e-41
-1.30633e-40
-1.22649e-40
-2.33761e-41
-1.3202e-42
-1.68998e-43
-1.4083e-45
-1.42387e-46
-2.50662e-44
-2.79814e-43
-7.03434e-42
-4.1835e-41
-5.00096e-41
-2.03623e-41
-6.04902e-42
-1.52075e-42
-5.74079e-43
-1.11491e-42
-2.95646e-42
-1.16529e-41
-3.9035e-41
-9.41153e-41
-7.82652e-41
-1.3124e-41
-5.90961e-43
-4.75761e-44
-3.12976e-46
-3.07813e-47
-6.89574e-45
-1.22316e-43
-3.86037e-42
-2.60893e-41
-3.45596e-41
-1.62751e-41
-5.76758e-42
-1.76228e-42
-5.80675e-43
-1.08886e-42
-3.30234e-42
-1.08581e-41
-3.07828e-41
-6.46281e-41
-4.87352e-41
-7.19461e-42
-2.57653e-43
-1.32125e-44
-6.84835e-47
-6.58202e-48
-1.87466e-45
-5.22629e-44
-2.07504e-42
-1.59445e-41
-2.30825e-41
-1.20052e-41
-4.76813e-42
-1.64007e-42
-5.02429e-43
-9.22537e-43
-3.01688e-42
-8.85775e-42
-2.25341e-41
-4.30198e-41
-2.97491e-41
-3.86273e-42
-1.09853e-43
-3.63848e-45
-1.48126e-47
-1.39659e-48
-5.06213e-46
-2.18928e-44
-1.09447e-42
-9.5753e-42
-1.50611e-41
-8.43443e-42
-3.61745e-42
-1.34312e-42
-3.95536e-43
-7.17402e-43
-2.44486e-42
-6.66864e-42
-1.57644e-41
-2.80161e-41
-1.78466e-41
-2.0349e-42
-4.59295e-44
-9.9881e-46
-3.18014e-48
-2.95147e-49
-1.36504e-46
-9.00995e-45
-5.67115e-43
-5.65866e-42
-9.65327e-42
-5.74798e-42
-2.6051e-42
-1.01772e-42
-2.93992e-43
-5.29598e-43
-1.8415e-42
-4.78161e-42
-1.07176e-41
-1.79337e-41
-1.05362e-41
-1.05312e-42
-1.8867e-44
-2.7472e-46
-6.80693e-49
-6.24029e-50
-3.69565e-47
-3.6486e-45
-2.88922e-43
-3.29343e-42
-6.09363e-42
-3.83735e-42
-1.81675e-42
-7.35609e-43
-2.10976e-43
-3.78682e-43
-1.32657e-42
-3.32649e-42
-7.14455e-42
-1.13093e-41
-6.12629e-42
-5.35863e-43
-7.62518e-45
-7.60486e-47
-1.45929e-49
-1.32648e-50
-1.0094e-47
-1.45559e-45
-1.44809e-43
-1.88878e-42
-3.79312e-42
-2.52188e-42
-1.24058e-42
-5.1642e-43
-1.48052e-43
-2.65236e-43
-9.29513e-43
-2.2682e-42
-4.6904e-42
-7.03343e-42
-3.51009e-42
-2.68253e-43
-3.03529e-45
-2.12591e-47
-3.14775e-50
-2.84849e-51
-2.79162e-48
-5.72657e-46
-7.14388e-44
-1.06775e-42
-2.3297e-42
-1.63517e-42
-8.34146e-43
-3.55624e-43
-1.02274e-43
-1.83028e-43
-6.39329e-43
-1.52357e-42
-3.03857e-42
-4.3162e-42
-1.98246e-42
-1.32178e-43
-1.19106e-45
-6.01204e-48
-6.86048e-51
-6.20505e-52
-7.83267e-49
-2.22369e-46
-3.47037e-44
-5.95184e-43
-1.41235e-42
-1.04709e-42
-5.53712e-43
-2.41409e-43
-6.97687e-44
-1.24767e-43
-4.33622e-43
-1.01054e-42
-1.94419e-42
-2.61446e-42
-1.10405e-42
-6.41331e-44
-4.61088e-46
-1.72004e-48
-1.51573e-51
-1.37508e-52
-2.22962e-49
-8.52936e-47
-1.66065e-44
-3.2722e-43
-8.45341e-43
-6.62512e-43
-3.63286e-43
-1.61912e-43
-4.70659e-44
-8.41176e-44
-2.90615e-43
-6.62522e-43
-1.22916e-42
-1.56357e-42
-6.06435e-43
-3.06528e-44
-1.76211e-46
-4.97094e-49
-3.40063e-52
-3.10372e-53
-6.42848e-50
-3.23392e-47
-7.83049e-45
-1.77476e-43
-4.99643e-43
-4.14289e-43
-2.357e-43
-1.07397e-43
-3.14169e-44
-5.61183e-44
-1.92637e-43
-4.29544e-43
-7.68049e-43
-9.23414e-43
-3.28624e-43
-1.44367e-44
-6.65177e-47
-1.44745e-49
-7.7467e-53
-7.13191e-54
-1.87222e-50
-1.2128e-47
-3.63944e-45
-9.49846e-44
-2.91682e-43
-2.56093e-43
-1.51263e-43
-7.04832e-44
-2.07563e-44
-3.70558e-44
-1.26344e-43
-2.75474e-43
-4.74412e-43
-5.38645e-43
-1.75724e-43
-6.70196e-45
-2.48157e-47
-4.23354e-50
-1.78835e-53
-1.66551e-54
-5.49044e-51
-4.50132e-48
-1.66777e-45
-5.01729e-44
-1.68213e-43
-1.56511e-43
-9.60367e-44
-4.5778e-44
-1.35747e-44
-2.42216e-44
-8.20064e-44
-1.74781e-43
-2.89721e-43
-3.10393e-43
-9.2741e-44
-3.06757e-45
-9.15389e-48
-1.24e-50
-4.16938e-54
-3.94308e-55
-1.61638e-51
-1.65417e-48
-7.53705e-46
-2.61623e-44
-9.5848e-44
-9.45819e-44
-6.03303e-44
-2.94283e-44
-8.78927e-45
-1.56744e-44
-5.26846e-44
-1.09724e-43
-1.74954e-43
-1.76726e-43
-4.83179e-44
-1.3847e-45
-3.34011e-48
-3.62744e-51
-9.77614e-55
-9.43675e-56
-4.76461e-52
-6.02098e-49
-3.35996e-46
-1.34696e-44
-5.39697e-44
-5.65261e-44
-3.75041e-44
-1.87268e-44
-5.63452e-45
-1.00429e-44
-3.35051e-44
-6.81642e-44
-1.04484e-43
-9.94339e-44
-2.48555e-44
-6.16579e-46
-1.20603e-48
-1.0576e-51
-2.29647e-55
-2.27618e-56
-1.4032e-52
-2.17129e-49
-1.47785e-46
-6.84837e-45
-3.0035e-44
-3.34137e-44
-2.30736e-44
-1.17976e-44
-3.57668e-45
-6.37151e-45
-2.10947e-44
-4.19091e-44
-6.17181e-44
-5.52948e-44
-1.26268e-44
-2.70889e-46
-4.31074e-49
-3.06857e-52
-5.39014e-56
-5.51728e-57
-4.12145e-53
-7.759e-50
-6.41477e-47
-3.4391e-45
-1.65227e-44
-1.95385e-44
-1.40506e-44
-7.35861e-45
-2.24832e-45
-4.00296e-45
-1.31495e-44
-2.55037e-44
-3.60637e-44
-3.03958e-44
-6.33572e-45
-1.17451e-46
-1.52573e-49
-8.85176e-53
-1.26243e-56
-1.33969e-57
-1.20556e-53
-2.74768e-50
-2.74835e-47
-1.70608e-45
-8.98613e-45
-1.13032e-44
-8.46953e-45
-4.54478e-45
-1.39966e-45
-2.49063e-45
-8.11641e-45
-1.53634e-44
-2.08485e-44
-1.6519e-44
-3.14051e-45
-5.02654e-47
-5.34881e-50
-2.53745e-53
-2.94923e-57
-3.24654e-58
-3.50769e-54
-9.6429e-51
-1.16248e-47
-8.36221e-46
-4.83239e-45
-6.47005e-45
-5.05423e-45
-2.7796e-45
-8.63002e-46
-1.53482e-45
-4.96104e-45
-9.16234e-45
-1.19255e-44
-8.87682e-45
-1.53807e-45
-2.12381e-47
-1.85777e-50
-7.2273e-54
-6.8745e-58
-7.82999e-59
-1.01431e-54
-3.35366e-51
-4.8551e-48
-4.05018e-46
-2.56984e-45
-3.66488e-45
-2.98623e-45
-1.68361e-45
-5.27055e-46
-9.36837e-46
-3.00313e-45
-5.41002e-45
-6.75042e-45
-4.71725e-45
-7.44371e-46
-8.86084e-48
-6.39381e-51
-2.04539e-54
-1.60031e-58
-1.87966e-59
-2.91341e-55
-1.15578e-51
-2.00256e-48
-1.93876e-46
-1.35165e-45
-2.05451e-45
-1.74705e-45
-1.01002e-45
-3.1885e-46
-5.66445e-46
-1.80054e-45
-3.16306e-45
-3.78165e-45
-2.47934e-45
-3.56044e-46
-3.65108e-48
-2.18082e-51
-5.75215e-55
-3.72315e-59
-4.50079e-60
-8.31003e-56
-3.94685e-52
-8.15869e-49
-9.17344e-47
-7.03211e-46
-1.13998e-45
-1.01214e-45
-6.00171e-46
-1.91089e-46
-3.39289e-46
-1.06929e-45
-1.83135e-45
-2.09689e-45
-1.289e-45
-1.68337e-46
-1.48604e-48
-7.37238e-52
-1.60747e-55
-8.65443e-60
-1.07614e-60
-2.35335e-56
-1.3354e-52
-3.28375e-49
-4.29098e-47
-3.61931e-46
-6.26145e-46
-5.8072e-46
-3.53279e-46
-1.13458e-46
-2.01341e-46
-6.2905e-46
-1.05009e-45
-1.15097e-45
-6.62961e-46
-7.86821e-47
-5.97541e-49
-2.47027e-52
-4.46345e-56
-2.00647e-60
-2.56396e-61
-6.61558e-57
-4.47637e-53
-1.30588e-49
-1.98452e-47
-1.84304e-46
-3.40474e-46
-3.30006e-46
-2.0601e-46
-6.67443e-47
-1.18379e-46
-3.66611e-46
-5.96372e-46
-6.25436e-46
-3.37363e-46
-3.63623e-47
-2.37413e-49
-8.20416e-53
-1.2312e-56
-4.62812e-61
-6.06501e-62
-1.84581e-57
-1.4865e-53
-5.13197e-50
-9.07581e-48
-9.28673e-47
-1.83303e-46
-1.85756e-46
-1.19021e-46
-3.89047e-47
-6.8965e-47
-2.11685e-46
-3.35485e-46
-3.36497e-46