/*--------------------------------*- C++ -*----------------------------------*\
| =========                 |                                                 |
| \\      /  F ield         | OpenFOAM: The Open Source CFD Toolbox           |
|  \\    /   O peration     | Version:  5.x                                   |
|   \\  /    A nd           | Web:      www.OpenFOAM.org                      |
|    \\/     M anipulation  |                                                 |
\*---------------------------------------------------------------------------*/
FoamFile
{
    version     2.0;
    format      ascii;
    class       volScalarField;
    location    "0.25";
    object      p;
}
// * * * * * * * * * * * * * * * * * * * * * * * * * * * * * * * * * * * * * //

dimensions      [1 -1 -2 0 0 0 0];

internalField   nonuniform List<scalar> 
8000
(
-0.265315
-0.265315
-0.265315
-0.265315
-0.265315
-0.265315
-0.265315
-0.265315
-0.265315
-0.265315
-0.265315
-0.265315
-0.265315
-0.265315
-0.265315
-0.265315
-0.265315
-0.265315
-0.265315
-0.265315
-0.795944
-0.795944
-0.795944
-0.795944
-0.795944
-0.795944
-0.795945
-0.795945
-0.795945
-0.795945
-0.795945
-0.795945
-0.795945
-0.795946
-0.795946
-0.795946
-0.795946
-0.795946
-0.795946
-0.795946
-1.32657
-1.32657
-1.32657
-1.32657
-1.32657
-1.32657
-1.32657
-1.32657
-1.32657
-1.32658
-1.32658
-1.32658
-1.32658
-1.32658
-1.32658
-1.32658
-1.32658
-1.32658
-1.32658
-1.32658
-1.8572
-1.8572
-1.8572
-1.8572
-1.8572
-1.8572
-1.8572
-1.8572
-1.8572
-1.85721
-1.85721
-1.85721
-1.85721
-1.85721
-1.85721
-1.85721
-1.85721
-1.85721
-1.85721
-1.85721
-2.38783
-2.38783
-2.38783
-2.38783
-2.38783
-2.38783
-2.38783
-2.38783
-2.38783
-2.38784
-2.38784
-2.38784
-2.38784
-2.38784
-2.38784
-2.38784
-2.38784
-2.38784
-2.38784
-2.38784
-2.91846
-2.91846
-2.91846
-2.91846
-2.91846
-2.91846
-2.91846
-2.91846
-2.91846
-2.91846
-2.91847
-2.91847
-2.91847
-2.91847
-2.91847
-2.91847
-2.91847
-2.91847
-2.91847
-2.91847
-3.44909
-3.44909
-3.44909
-3.44909
-3.44909
-3.44909
-3.44909
-3.44909
-3.44909
-3.44909
-3.4491
-3.4491
-3.4491
-3.4491
-3.4491
-3.4491
-3.4491
-3.4491
-3.4491
-3.4491
-3.97972
-3.97972
-3.97972
-3.97972
-3.97972
-3.97972
-3.97972
-3.97972
-3.97972
-3.97972
-3.97973
-3.97973
-3.97973
-3.97973
-3.97973
-3.97973
-3.97973
-3.97973
-3.97973
-3.97973
-4.51035
-4.51035
-4.51035
-4.51035
-4.51035
-4.51035
-4.51035
-4.51035
-4.51035
-4.51035
-4.51035
-4.51036
-4.51036
-4.51036
-4.51036
-4.51036
-4.51036
-4.51036
-4.51036
-4.51036
-5.04098
-5.04098
-5.04098
-5.04098
-5.04098
-5.04098
-5.04098
-5.04098
-5.04098
-5.04098
-5.04098
-5.04099
-5.04099
-5.04099
-5.04099
-5.04099
-5.04099
-5.04099
-5.04099
-5.04099
-5.57161
-5.57161
-5.57161
-5.57161
-5.57161
-5.57161
-5.57161
-5.57161
-5.57161
-5.57161
-5.57161
-5.57161
-5.57162
-5.57162
-5.57162
-5.57162
-5.57162
-5.57162
-5.57162
-5.57162
-6.10224
-6.10224
-6.10224
-6.10224
-6.10224
-6.10224
-6.10224
-6.10224
-6.10224
-6.10224
-6.10224
-6.10224
-6.10224
-6.10224
-6.10225
-6.10225
-6.10225
-6.10225
-6.10225
-6.10225
-6.63287
-6.63287
-6.63287
-6.63287
-6.63287
-6.63287
-6.63287
-6.63287
-6.63287
-6.63287
-6.63287
-6.63287
-6.63287
-6.63287
-6.63287
-6.63288
-6.63288
-6.63288
-6.63288
-6.63287
-7.1635
-7.1635
-7.1635
-7.1635
-7.1635
-7.1635
-7.1635
-7.1635
-7.1635
-7.1635
-7.1635
-7.1635
-7.1635
-7.1635
-7.1635
-7.1635
-7.1635
-7.16351
-7.16351
-7.1635
-7.69413
-7.69413
-7.69413
-7.69413
-7.69413
-7.69413
-7.69413
-7.69413
-7.69413
-7.69413
-7.69413
-7.69413
-7.69413
-7.69413
-7.69413
-7.69413
-7.69413
-7.69413
-7.69413
-7.69413
-8.22476
-8.22476
-8.22476
-8.22476
-8.22476
-8.22476
-8.22476
-8.22476
-8.22476
-8.22476
-8.22476
-8.22476
-8.22476
-8.22476
-8.22476
-8.22476
-8.22476
-8.22476
-8.22476
-8.22476
-8.75539
-8.75539
-8.75539
-8.75539
-8.75539
-8.75539
-8.75539
-8.75539
-8.75539
-8.75539
-8.75539
-8.75539
-8.75539
-8.75539
-8.75539
-8.75539
-8.75539
-8.75539
-8.75539
-8.75539
-9.28602
-9.28602
-9.28602
-9.28602
-9.28602
-9.28602
-9.28602
-9.28602
-9.28602
-9.28602
-9.28602
-9.28602
-9.28602
-9.28602
-9.28602
-9.28602
-9.28602
-9.28602
-9.28602
-9.28602
-9.81665
-9.81665
-9.81665
-9.81665
-9.81665
-9.81665
-9.81665
-9.81665
-9.81665
-9.81665
-9.81665
-9.81665
-9.81665
-9.81665
-9.81665
-9.81665
-9.81665
-9.81665
-9.81665
-9.81665
-10.3473
-10.3473
-10.3473
-10.3473
-10.3473
-10.3473
-10.3473
-10.3473
-10.3473
-10.3473
-10.3473
-10.3473
-10.3473
-10.3473
-10.3473
-10.3473
-10.3473
-10.3473
-10.3473
-10.3473
-10.8779
-10.8779
-10.8779
-10.8779
-10.8779
-10.8779
-10.8779
-10.8779
-10.8779
-10.8779
-10.8779
-10.8779
-10.8779
-10.8779
-10.8779
-10.8779
-10.8779
-10.8779
-10.8779
-10.8779
-11.4085
-11.4085
-11.4085
-11.4085
-11.4085
-11.4085
-11.4085
-11.4085
-11.4085
-11.4085
-11.4085
-11.4085
-11.4085
-11.4085
-11.4085
-11.4085
-11.4085
-11.4085
-11.4085
-11.4085
-11.9392
-11.9392
-11.9392
-11.9392
-11.9392
-11.9392
-11.9392
-11.9392
-11.9392
-11.9392
-11.9392
-11.9392
-11.9392
-11.9392
-11.9392
-11.9392
-11.9392
-11.9392
-11.9392
-11.9392
-12.4698
-12.4698
-12.4698
-12.4698
-12.4698
-12.4698
-12.4698
-12.4698
-12.4698
-12.4698
-12.4698
-12.4698
-12.4698
-12.4698
-12.4698
-12.4698
-12.4698
-12.4698
-12.4698
-12.4698
-13.0004
-13.0004
-13.0004
-13.0004
-13.0004
-13.0004
-13.0004
-13.0004
-13.0004
-13.0004
-13.0004
-13.0004
-13.0004
-13.0004
-13.0004
-13.0004
-13.0004
-13.0004
-13.0004
-13.0004
-13.5311
-13.5311
-13.5311
-13.5311
-13.5311
-13.5311
-13.5311
-13.5311
-13.5311
-13.5311
-13.5311
-13.5311
-13.5311
-13.5311
-13.5311
-13.5311
-13.5311
-13.5311
-13.5311
-13.5311
-14.0617
-14.0617
-14.0617
-14.0617
-14.0617
-14.0617
-14.0617
-14.0617
-14.0617
-14.0617
-14.0617
-14.0617
-14.0617
-14.0617
-14.0617
-14.0617
-14.0617
-14.0617
-14.0617
-14.0617
-14.5923
-14.5923
-14.5923
-14.5923
-14.5923
-14.5923
-14.5923
-14.5923
-14.5923
-14.5923
-14.5923
-14.5923
-14.5923
-14.5923
-14.5923
-14.5923
-14.5923
-14.5923
-14.5923
-14.5923
-15.1229
-15.1229
-15.1229
-15.1229
-15.1229
-15.1229
-15.1229
-15.1229
-15.1229
-15.1229
-15.1229
-15.1229
-15.1229
-15.1229
-15.1229
-15.1229
-15.1229
-15.1229
-15.1229
-15.1229
-15.6536
-15.6536
-15.6536
-15.6536
-15.6536
-15.6536
-15.6536
-15.6536
-15.6536
-15.6536
-15.6536
-15.6536
-15.6536
-15.6536
-15.6536
-15.6536
-15.6536
-15.6536
-15.6536
-15.6536
-16.1842
-16.1842
-16.1842
-16.1842
-16.1842
-16.1842
-16.1842
-16.1842
-16.1842
-16.1842
-16.1842
-16.1842
-16.1842
-16.1842
-16.1842
-16.1842
-16.1842
-16.1842
-16.1842
-16.1842
-16.7148
-16.7148
-16.7148
-16.7148
-16.7148
-16.7148
-16.7148
-16.7148
-16.7148
-16.7148
-16.7148
-16.7148
-16.7148
-16.7148
-16.7148
-16.7148
-16.7148
-16.7148
-16.7148
-16.7148
-17.2455
-17.2455
-17.2455
-17.2455
-17.2455
-17.2455
-17.2455
-17.2455
-17.2455
-17.2455
-17.2455
-17.2455
-17.2455
-17.2455
-17.2455
-17.2455
-17.2455
-17.2455
-17.2455
-17.2455
-17.7761
-17.7761
-17.7761
-17.7761
-17.7761
-17.7761
-17.7761
-17.7761
-17.7761
-17.7761
-17.7761
-17.7761
-17.7761
-17.7761
-17.7761
-17.7761
-17.7761
-17.7761
-17.7761
-17.7761
-18.3067
-18.3067
-18.3067
-18.3067
-18.3067
-18.3067
-18.3067
-18.3067
-18.3067
-18.3067
-18.3067
-18.3067
-18.3067
-18.3067
-18.3067
-18.3067
-18.3067
-18.3067
-18.3067
-18.3067
-18.8374
-18.8374
-18.8374
-18.8374
-18.8374
-18.8374
-18.8374
-18.8374
-18.8374
-18.8374
-18.8374
-18.8374
-18.8374
-18.8374
-18.8374
-18.8374
-18.8374
-18.8374
-18.8374
-18.8374
-19.368
-19.368
-19.368
-19.368
-19.368
-19.368
-19.368
-19.368
-19.368
-19.368
-19.368
-19.368
-19.368
-19.368
-19.368
-19.368
-19.368
-19.368
-19.368
-19.368
-19.8986
-19.8986
-19.8986
-19.8986
-19.8986
-19.8986
-19.8986
-19.8986
-19.8986
-19.8986
-19.8986
-19.8986
-19.8986
-19.8986
-19.8986
-19.8986
-19.8986
-19.8986
-19.8986
-19.8986
-20.4292
-20.4292
-20.4292
-20.4292
-20.4292
-20.4292
-20.4292
-20.4292
-20.4292
-20.4293
-20.4293
-20.4293
-20.4293
-20.4293
-20.4293
-20.4293
-20.4293
-20.4293
-20.4293
-20.4293
-20.9599
-20.9599
-20.9599
-20.9599
-20.9599
-20.9599
-20.9599
-20.9599
-20.9599
-20.9599
-20.9599
-20.9599
-20.9599
-20.9599
-20.9599
-20.9599
-20.9599
-20.9599
-20.9599
-20.9599
-21.4905
-21.4905
-21.4905
-21.4905
-21.4905
-21.4905
-21.4905
-21.4905
-21.4905
-21.4905
-21.4905
-21.4905
-21.4905
-21.4905
-21.4905
-21.4905
-21.4905
-21.4905
-21.4905
-21.4905
-22.0211
-22.0211
-22.0211
-22.0211
-22.0211
-22.0211
-22.0211
-22.0211
-22.0211
-22.0211
-22.0211
-22.0211
-22.0211
-22.0211
-22.0211
-22.0211
-22.0211
-22.0211
-22.0211
-22.0211
-22.5518
-22.5518
-22.5518
-22.5518
-22.5518
-22.5518
-22.5518
-22.5518
-22.5518
-22.5518
-22.5518
-22.5518
-22.5518
-22.5518
-22.5518
-22.5518
-22.5518
-22.5518
-22.5518
-22.5518
-23.0824
-23.0824
-23.0824
-23.0824
-23.0824
-23.0824
-23.0824
-23.0824
-23.0824
-23.0824
-23.0824
-23.0824
-23.0824
-23.0824
-23.0824
-23.0824
-23.0824
-23.0824
-23.0824
-23.0824
-23.613
-23.613
-23.613
-23.613
-23.613
-23.613
-23.613
-23.613
-23.613
-23.613
-23.613
-23.613
-23.613
-23.613
-23.613
-23.613
-23.613
-23.613
-23.613
-23.613
-24.1437
-24.1437
-24.1437
-24.1437
-24.1437
-24.1437
-24.1437
-24.1437
-24.1437
-24.1437
-24.1437
-24.1437
-24.1437
-24.1437
-24.1437
-24.1437
-24.1437
-24.1437
-24.1437
-24.1437
-24.6743
-24.6743
-24.6743
-24.6743
-24.6743
-24.6743
-24.6743
-24.6743
-24.6743
-24.6743
-24.6743
-24.6743
-24.6743
-24.6743
-24.6743
-24.6743
-24.6743
-24.6743
-24.6743
-24.6743
-25.2049
-25.2049
-25.2049
-25.2049
-25.2049
-25.2049
-25.2049
-25.2049
-25.2049
-25.2049
-25.2049
-25.2049
-25.2049
-25.2049
-25.2049
-25.2049
-25.2049
-25.2049
-25.2049
-25.2049
-25.7356
-25.7356
-25.7356
-25.7356
-25.7356
-25.7356
-25.7356
-25.7356
-25.7356
-25.7356
-25.7356
-25.7356
-25.7356
-25.7356
-25.7356
-25.7356
-25.7356
-25.7356
-25.7356
-25.7356
-26.2662
-26.2662
-26.2662
-26.2662
-26.2662
-26.2662
-26.2662
-26.2662
-26.2662
-26.2662
-26.2662
-26.2662
-26.2662
-26.2662
-26.2662
-26.2662
-26.2662
-26.2662
-26.2662
-26.2662
-26.7968
-26.7968
-26.7968
-26.7968
-26.7968
-26.7968
-26.7968
-26.7968
-26.7968
-26.7968
-26.7968
-26.7968
-26.7968
-26.7968
-26.7968
-26.7968
-26.7968
-26.7968
-26.7968
-26.7968
-27.3275
-27.3275
-27.3275
-27.3275
-27.3275
-27.3275
-27.3275
-27.3275
-27.3275
-27.3275
-27.3275
-27.3275
-27.3275
-27.3275
-27.3275
-27.3275
-27.3275
-27.3275
-27.3275
-27.3275
-27.8581
-27.8581
-27.8581
-27.8581
-27.8581
-27.8581
-27.8581
-27.8581
-27.8581
-27.8581
-27.8581
-27.8581
-27.8581
-27.8581
-27.8581
-27.8581
-27.8581
-27.8581
-27.8581
-27.8581
-28.3887
-28.3887
-28.3887
-28.3887
-28.3887
-28.3887
-28.3887
-28.3887
-28.3887
-28.3887
-28.3887
-28.3887
-28.3887
-28.3887
-28.3887
-28.3887
-28.3887
-28.3887
-28.3887
-28.3887
-28.9193
-28.9193
-28.9193
-28.9193
-28.9193
-28.9193
-28.9193
-28.9193
-28.9193
-28.9193
-28.9193
-28.9193
-28.9193
-28.9193
-28.9193
-28.9193
-28.9193
-28.9193
-28.9193
-28.9193
-29.45
-29.45
-29.45
-29.45
-29.45
-29.45
-29.45
-29.45
-29.45
-29.45
-29.45
-29.45
-29.45
-29.45
-29.45
-29.45
-29.45
-29.45
-29.45
-29.45
-29.9806
-29.9806
-29.9806
-29.9806
-29.9806
-29.9806
-29.9806
-29.9806
-29.9806
-29.9806
-29.9806
-29.9806
-29.9806
-29.9806
-29.9806
-29.9806
-29.9806
-29.9806
-29.9806
-29.9806
-30.5112
-30.5112
-30.5112
-30.5112
-30.5112
-30.5112
-30.5112
-30.5112
-30.5112
-30.5112
-30.5112
-30.5112
-30.5112
-30.5112
-30.5112
-30.5112
-30.5112
-30.5112
-30.5112
-30.5112
-31.0419
-31.0419
-31.0419
-31.0419
-31.0419
-31.0419
-31.0419
-31.0419
-31.0419
-31.0419
-31.0419
-31.0419
-31.0419
-31.0419
-31.0419
-31.0419
-31.0419
-31.0419
-31.0419
-31.0419
-31.5725
-31.5725
-31.5725
-31.5725
-31.5725
-31.5725
-31.5725
-31.5725
-31.5725
-31.5725
-31.5725
-31.5725
-31.5725
-31.5725
-31.5725
-31.5725
-31.5725
-31.5725
-31.5725
-31.5725
-32.1031
-32.1031
-32.1031
-32.1031
-32.1031
-32.1031
-32.1031
-32.1031
-32.1031
-32.1031
-32.1031
-32.1031
-32.1031
-32.1031
-32.1031
-32.1031
-32.1031
-32.1031
-32.1031
-32.1031
-32.6338
-32.6338
-32.6338
-32.6338
-32.6338
-32.6338
-32.6338
-32.6338
-32.6338
-32.6338
-32.6338
-32.6338
-32.6338
-32.6338
-32.6338
-32.6338
-32.6338
-32.6338
-32.6338
-32.6338
-33.1644
-33.1644
-33.1644
-33.1644
-33.1644
-33.1644
-33.1644
-33.1644
-33.1644
-33.1644
-33.1644
-33.1644
-33.1644
-33.1644
-33.1644
-33.1644
-33.1644
-33.1644
-33.1644
-33.1644
-33.695
-33.695
-33.695
-33.695
-33.695
-33.695
-33.695
-33.695
-33.695
-33.695
-33.695
-33.695
-33.695
-33.695
-33.695
-33.695
-33.695
-33.695
-33.695
-33.695
-34.2256
-34.2256
-34.2256
-34.2256
-34.2256
-34.2256
-34.2256
-34.2256
-34.2256
-34.2256
-34.2256
-34.2256
-34.2257
-34.2257
-34.2257
-34.2257
-34.2257
-34.2257
-34.2257
-34.2257
-34.7563
-34.7563
-34.7563
-34.7563
-34.7563
-34.7563
-34.7563
-34.7563
-34.7563
-34.7563
-34.7563
-34.7563
-34.7563
-34.7563
-34.7563
-34.7563
-34.7563
-34.7563
-34.7563
-34.7563
-35.2869
-35.2869
-35.2869
-35.2869
-35.2869
-35.2869
-35.2869
-35.2869
-35.2869
-35.2869
-35.2869
-35.2869
-35.2869
-35.2869
-35.2869
-35.2869
-35.2869
-35.2869
-35.2869
-35.2869
-35.8175
-35.8175
-35.8175
-35.8175
-35.8175
-35.8175
-35.8175
-35.8175
-35.8175
-35.8175
-35.8175
-35.8175
-35.8175
-35.8175
-35.8175
-35.8175
-35.8175
-35.8175
-35.8175
-35.8175
-36.3482
-36.3482
-36.3482
-36.3482
-36.3482
-36.3482
-36.3482
-36.3482
-36.3482
-36.3482
-36.3482
-36.3482
-36.3482
-36.3482
-36.3482
-36.3482
-36.3482
-36.3482
-36.3482
-36.3482
-36.8788
-36.8788
-36.8788
-36.8788
-36.8788
-36.8788
-36.8788
-36.8788
-36.8788
-36.8788
-36.8788
-36.8788
-36.8788
-36.8788
-36.8788
-36.8788
-36.8788
-36.8788
-36.8788
-36.8788
-37.4094
-37.4094
-37.4094
-37.4094
-37.4094
-37.4094
-37.4094
-37.4094
-37.4094
-37.4094
-37.4094
-37.4094
-37.4094
-37.4094
-37.4094
-37.4094
-37.4094
-37.4094
-37.4094
-37.4094
-37.9401
-37.9401
-37.9401
-37.9401
-37.9401
-37.9401
-37.9401
-37.9401
-37.9401
-37.9401
-37.9401
-37.9401
-37.9401
-37.9401
-37.9401
-37.9401
-37.9401
-37.9401
-37.9401
-37.9401
-38.4707
-38.4707
-38.4707
-38.4707
-38.4707
-38.4707
-38.4707
-38.4707
-38.4707
-38.4707
-38.4707
-38.4707
-38.4707
-38.4707
-38.4707
-38.4707
-38.4707
-38.4707
-38.4707
-38.4707
-39.0013
-39.0013
-39.0013
-39.0013
-39.0013
-39.0013
-39.0013
-39.0013
-39.0013
-39.0013
-39.0013
-39.0013
-39.0013
-39.0013
-39.0013
-39.0013
-39.0013
-39.0013
-39.0013
-39.0013
-39.5319
-39.5319
-39.5319
-39.5319
-39.5319
-39.5319
-39.532
-39.532
-39.532
-39.532
-39.532
-39.532
-39.532
-39.532
-39.532
-39.532
-39.532
-39.532
-39.532
-39.532
-40.0626
-40.0626
-40.0626
-40.0626
-40.0626
-40.0626
-40.0626
-40.0626
-40.0626
-40.0626
-40.0626
-40.0626
-40.0626
-40.0626
-40.0626
-40.0626
-40.0626
-40.0626
-40.0626
-40.0626
-40.5932
-40.5932
-40.5932
-40.5932
-40.5932
-40.5932
-40.5932
-40.5932
-40.5932
-40.5932
-40.5932
-40.5932
-40.5932
-40.5932
-40.5932
-40.5932
-40.5932
-40.5932
-40.5932
-40.5932
-41.1238
-41.1238
-41.1238
-41.1238
-41.1238
-41.1238
-41.1238
-41.1238
-41.1238
-41.1238
-41.1238
-41.1238
-41.1238
-41.1238
-41.1238
-41.1238
-41.1238
-41.1238
-41.1238
-41.1238
-41.6545
-41.6545
-41.6545
-41.6545
-41.6545
-41.6545
-41.6545
-41.6545
-41.6545
-41.6545
-41.6545
-41.6545
-41.6545
-41.6545
-41.6545
-41.6545
-41.6545
-41.6545
-41.6545
-41.6545
-42.1851
-42.1851
-42.1851
-42.1851
-42.1851
-42.1851
-42.1851
-42.1851
-42.1851
-42.1851
-42.1851
-42.1851
-42.1851
-42.1851
-42.1851
-42.1851
-42.1851
-42.1851
-42.1851
-42.1851
-42.7157
-42.7157
-42.7157
-42.7157
-42.7157
-42.7157
-42.7157
-42.7157
-42.7157
-42.7157
-42.7157
-42.7157
-42.7157
-42.7157
-42.7157
-42.7157
-42.7157
-42.7157
-42.7157
-42.7157
-43.2464
-43.2464
-43.2464
-43.2464
-43.2464
-43.2464
-43.2464
-43.2464
-43.2464
-43.2464
-43.2464
-43.2464
-43.2464
-43.2464
-43.2464
-43.2464
-43.2464
-43.2464
-43.2464
-43.2464
-43.777
-43.777
-43.777
-43.777
-43.777
-43.777
-43.777
-43.777
-43.777
-43.777
-43.777
-43.777
-43.777
-43.777
-43.777
-43.777
-43.777
-43.777
-43.777
-43.777
-44.3076
-44.3076
-44.3076
-44.3076
-44.3076
-44.3076
-44.3076
-44.3076
-44.3076
-44.3076
-44.3076
-44.3076
-44.3076
-44.3076
-44.3076
-44.3076
-44.3076
-44.3076
-44.3076
-44.3076
-44.8382
-44.8382
-44.8382
-44.8382
-44.8382
-44.8382
-44.8383
-44.8383
-44.8383
-44.8383
-44.8383
-44.8383
-44.8383
-44.8383
-44.8383
-44.8383
-44.8383
-44.8383
-44.8383
-44.8383
-45.3689
-45.3689
-45.3689
-45.3689
-45.3689
-45.3689
-45.3689
-45.3689
-45.3689
-45.3689
-45.3689
-45.3689
-45.3689
-45.3689
-45.3689
-45.3689
-45.3689
-45.3689
-45.3689
-45.3689
-45.8995
-45.8995
-45.8995
-45.8995
-45.8995
-45.8995
-45.8995
-45.8995
-45.8995
-45.8995
-45.8995
-45.8995
-45.8995
-45.8995
-45.8995
-45.8995
-45.8995
-45.8995
-45.8995
-45.8995
-46.4301
-46.4301
-46.4301
-46.4301
-46.4301
-46.4301
-46.4301
-46.4301
-46.4301
-46.4301
-46.4301
-46.4301
-46.4301
-46.4301
-46.4301
-46.4301
-46.4301
-46.4301
-46.4301
-46.4301
-46.9608
-46.9608
-46.9608
-46.9608
-46.9608
-46.9608
-46.9608
-46.9608
-46.9608
-46.9608
-46.9608
-46.9608
-46.9608
-46.9608
-46.9608
-46.9608
-46.9608
-46.9608
-46.9608
-46.9608
-47.4914
-47.4914
-47.4914
-47.4914
-47.4914
-47.4914
-47.4914
-47.4914
-47.4914
-47.4914
-47.4914
-47.4914
-47.4914
-47.4914
-47.4914
-47.4914
-47.4914
-47.4914
-47.4914
-47.4914
-48.022
-48.022
-48.022
-48.022
-48.022
-48.022
-48.022
-48.022
-48.022
-48.022
-48.022
-48.022
-48.022
-48.022
-48.022
-48.022
-48.022
-48.022
-48.022
-48.022
-48.5527
-48.5527
-48.5527
-48.5527
-48.5527
-48.5527
-48.5527
-48.5527
-48.5527
-48.5527
-48.5527
-48.5527
-48.5527
-48.5527
-48.5527
-48.5527
-48.5527
-48.5527
-48.5527
-48.5527
-49.0833
-49.0833
-49.0833
-49.0833
-49.0833
-49.0833
-49.0833
-49.0833
-49.0833
-49.0833
-49.0833
-49.0833
-49.0833
-49.0833
-49.0833
-49.0833
-49.0833
-49.0833
-49.0833
-49.0833
-49.6139
-49.6139
-49.6139
-49.6139
-49.6139
-49.6139
-49.6139
-49.6139
-49.6139
-49.6139
-49.6139
-49.6139
-49.6139
-49.6139
-49.6139
-49.6139
-49.6139
-49.6139
-49.6139
-49.6139
-50.1445
-50.1445
-50.1445
-50.1445
-50.1445
-50.1445
-50.1445
-50.1445
-50.1445
-50.1446
-50.1446
-50.1446
-50.1446
-50.1446
-50.1446
-50.1446
-50.1446
-50.1446
-50.1446
-50.1446
-50.6752
-50.6752
-50.6752
-50.6752
-50.6752
-50.6752
-50.6752
-50.6752
-50.6752
-50.6752
-50.6752
-50.6752
-50.6752
-50.6752
-50.6752
-50.6752
-50.6752
-50.6752
-50.6752
-50.6752
-51.2058
-51.2058
-51.2058
-51.2058
-51.2058
-51.2058
-51.2058
-51.2058
-51.2058
-51.2058
-51.2058
-51.2058
-51.2058
-51.2058
-51.2058
-51.2058
-51.2058
-51.2058
-51.2058
-51.2058
-51.7364
-51.7364
-51.7364
-51.7364
-51.7364
-51.7364
-51.7364
-51.7364
-51.7364
-51.7364
-51.7364
-51.7364
-51.7364
-51.7365
-51.7365
-51.7365
-51.7365
-51.7365
-51.7365
-51.7365
-52.267
-52.267
-52.267
-52.2671
-52.2671
-52.2671
-52.2671
-52.2671
-52.2671
-52.2671
-52.2671
-52.2671
-52.2671
-52.2671
-52.2671
-52.2671
-52.2671
-52.2671
-52.2671
-52.2671
-52.7977
-52.7977
-52.7977
-52.7977
-52.7977
-52.7977
-52.7977
-52.7977
-52.7977
-52.7977
-52.7977
-52.7977
-52.7977
-52.7977
-52.7977
-52.7977
-52.7977
-52.7977
-52.7977
-52.7977
-53.3283
-53.3283
-53.3283
-53.3283
-53.3283
-53.3283
-53.3283
-53.3283
-53.3283
-53.3283
-53.3283
-53.3283
-53.3283
-53.3283
-53.3284
-53.3284
-53.3284
-53.3284
-53.3284
-53.3284
-53.8589
-53.8589
-53.8589
-53.8589
-53.8589
-53.8589
-53.8589
-53.8589
-53.859
-53.859
-53.859
-53.859
-53.859
-53.859
-53.859
-53.859
-53.859
-53.859
-53.859
-53.859
-54.3895
-54.3895
-54.3896
-54.3896
-54.3896
-54.3896
-54.3896
-54.3896
-54.3896
-54.3896
-54.3896
-54.3896
-54.3896
-54.3896
-54.3896
-54.3896
-54.3896
-54.3896
-54.3896
-54.3896
-54.9202
-54.9202
-54.9202
-54.9202
-54.9202
-54.9202
-54.9202
-54.9202
-54.9202
-54.9202
-54.9202
-54.9202
-54.9202
-54.9202
-54.9203
-54.9203
-54.9203
-54.9203
-54.9203
-54.9203
-55.4508
-55.4508
-55.4508
-55.4508
-55.4508
-55.4508
-55.4508
-55.4508
-55.4508
-55.4508
-55.4509
-55.4509
-55.4509
-55.4509
-55.4509
-55.4509
-55.4509
-55.4509
-55.4509
-55.4509
-55.9814
-55.9814
-55.9814
-55.9814
-55.9814
-55.9814
-55.9814
-55.9815
-55.9815
-55.9815
-55.9815
-55.9815
-55.9815
-55.9815
-55.9815
-55.9815
-55.9815
-55.9815
-55.9815
-55.9815
-56.512
-56.512
-56.512
-56.512
-56.5121
-56.5121
-56.5121
-56.5121
-56.5121
-56.5121
-56.5121
-56.5121
-56.5121
-56.5121
-56.5122
-56.5122
-56.5122
-56.5122
-56.5122
-56.5122
-57.0427
-57.0427
-57.0427
-57.0427
-57.0427
-57.0427
-57.0427
-57.0427
-57.0427
-57.0427
-57.0427
-57.0428
-57.0428
-57.0428
-57.0428
-57.0428
-57.0428
-57.0428
-57.0428
-57.0428
-57.5733
-57.5733
-57.5733
-57.5733
-57.5733
-57.5733
-57.5733
-57.5733
-57.5733
-57.5734
-57.5734
-57.5734
-57.5734
-57.5734
-57.5734
-57.5734
-57.5735
-57.5735
-57.5735
-57.5735
-58.1039
-58.1039
-58.1039
-58.1039
-58.1039
-58.1039
-58.1039
-58.104
-58.104
-58.104
-58.104
-58.104
-58.104
-58.1041
-58.1041
-58.1041
-58.1041
-58.1041
-58.1041
-58.1041
-58.6345
-58.6345
-58.6345
-58.6345
-58.6345
-58.6345
-58.6346
-58.6346
-58.6346
-58.6346
-58.6346
-58.6347
-58.6347
-58.6347
-58.6347
-58.6347
-58.6347
-58.6348
-58.6348
-58.6348
-59.1651
-59.1651
-59.1651
-59.1651
-59.1651
-59.1652
-59.1652
-59.1652
-59.1652
-59.1652
-59.1653
-59.1653
-59.1653
-59.1653
-59.1654
-59.1654
-59.1654
-59.1654
-59.1654
-59.1654
-59.6957
-59.6957
-59.6957
-59.6957
-59.6958
-59.6958
-59.6958
-59.6958
-59.6959
-59.6959
-59.6959
-59.6959
-59.696
-59.696
-59.696
-59.696
-59.696
-59.696
-59.6961
-59.6961
-60.2263
-60.2263
-60.2263
-60.2264
-60.2264
-60.2264
-60.2264
-60.2264
-60.2265
-60.2265
-60.2265
-60.2266
-60.2266
-60.2266
-60.2266
-60.2267
-60.2267
-60.2267
-60.2267
-60.2267
-60.7569
-60.7569
-60.7569
-60.757
-60.757
-60.757
-60.757
-60.7571
-60.7571
-60.7571
-60.7572
-60.7572
-60.7572
-60.7573
-60.7573
-60.7573
-60.7573
-60.7574
-60.7574
-60.7574
-61.2875
-61.2875
-61.2875
-61.2876
-61.2876
-61.2876
-61.2876
-61.2877
-61.2877
-61.2878
-61.2878
-61.2878
-61.2879
-61.2879
-61.2879
-61.288
-61.288
-61.288
-61.288
-61.2881
-61.8181
-61.8181
-61.8181
-61.8182
-61.8182
-61.8182
-61.8183
-61.8183
-61.8183
-61.8184
-61.8184
-61.8185
-61.8185
-61.8186
-61.8186
-61.8186
-61.8187
-61.8187
-61.8187
-61.8187
-62.3487
-62.3487
-62.3487
-62.3487
-62.3488
-62.3488
-62.3489
-62.3489
-62.349
-62.349
-62.3491
-62.3491
-62.3492
-62.3492
-62.3493
-62.3493
-62.3493
-62.3494
-62.3494
-62.3494
-62.8792
-62.8793
-62.8793
-62.8793
-62.8794
-62.8794
-62.8795
-62.8795
-62.8796
-62.8796
-62.8797
-62.8798
-62.8798
-62.8799
-62.8799
-62.88
-62.88
-62.88
-62.8801
-62.8801
-63.4098
-63.4098
-63.4099
-63.4099
-63.41
-63.41
-63.4101
-63.4101
-63.4102
-63.4103
-63.4103
-63.4104
-63.4105
-63.4105
-63.4106
-63.4106
-63.4107
-63.4107
-63.4108
-63.4108
-63.9404
-63.9404
-63.9404
-63.9405
-63.9405
-63.9406
-63.9407
-63.9407
-63.9408
-63.9409
-63.941
-63.941
-63.9411
-63.9412
-63.9413
-63.9413
-63.9414
-63.9414
-63.9415
-63.9415
-64.4709
-64.4709
-64.471
-64.471
-64.4711
-64.4712
-64.4713
-64.4713
-64.4714
-64.4715
-64.4716
-64.4717
-64.4718
-64.4719
-64.4719
-64.472
-64.4721
-64.4721
-64.4722
-64.4722
-65.0014
-65.0015
-65.0015
-65.0016
-65.0017
-65.0017
-65.0018
-65.0019
-65.002
-65.0021
-65.0022
-65.0023
-65.0024
-65.0025
-65.0026
-65.0027
-65.0028
-65.0028
-65.0029
-65.0029
-65.532
-65.532
-65.5321
-65.5321
-65.5322
-65.5323
-65.5324
-65.5325
-65.5326
-65.5328
-65.5329
-65.533
-65.5331
-65.5332
-65.5333
-65.5334
-65.5335
-65.5336
-65.5336
-65.5337
-66.0625
-66.0625
-66.0626
-66.0627
-66.0628
-66.0629
-66.063
-66.0631
-66.0632
-66.0634
-66.0635
-66.0636
-66.0638
-66.0639
-66.064
-66.0641
-66.0642
-66.0643
-66.0644
-66.0644
-66.5929
-66.593
-66.5931
-66.5932
-66.5933
-66.5934
-66.5935
-66.5937
-66.5938
-66.594
-66.5942
-66.5943
-66.5945
-66.5946
-66.5947
-66.5949
-66.595
-66.5951
-66.5951
-66.5952
-67.1234
-67.1235
-67.1236
-67.1237
-67.1238
-67.1239
-67.1241
-67.1243
-67.1244
-67.1246
-67.1248
-67.125
-67.1251
-67.1253
-67.1255
-67.1256
-67.1257
-67.1258
-67.1259
-67.126
-67.6538
-67.6539
-67.654
-67.6542
-67.6543
-67.6545
-67.6546
-67.6548
-67.655
-67.6552
-67.6554
-67.6556
-67.6558
-67.656
-67.6562
-67.6564
-67.6565
-67.6566
-67.6567
-67.6568
-68.1842
-68.1843
-68.1845
-68.1846
-68.1848
-68.185
-68.1852
-68.1854
-68.1856
-68.1858
-68.1861
-68.1863
-68.1865
-68.1868
-68.187
-68.1871
-68.1873
-68.1875
-68.1876
-68.1877
-68.7146
-68.7147
-68.7149
-68.715
-68.7152
-68.7155
-68.7157
-68.7159
-68.7162
-68.7165
-68.7167
-68.717
-68.7173
-68.7175
-68.7177
-68.7179
-68.7181
-68.7183
-68.7185
-68.7186
-69.245
-69.2451
-69.2453
-69.2454
-69.2457
-69.2459
-69.2462
-69.2465
-69.2468
-69.2471
-69.2474
-69.2477
-69.248
-69.2483
-69.2485
-69.2488
-69.249
-69.2492
-69.2494
-69.2495
-69.7752
-69.7754
-69.7756
-69.7758
-69.7761
-69.7764
-69.7767
-69.777
-69.7773
-69.7777
-69.778
-69.7784
-69.7787
-69.779
-69.7793
-69.7796
-69.7799
-69.7801
-69.7803
-69.7804
-70.3055
-70.3057
-70.3059
-70.3062
-70.3064
-70.3068
-70.3071
-70.3075
-70.3079
-70.3083
-70.3087
-70.3091
-70.3095
-70.3098
-70.3102
-70.3105
-70.3108
-70.3111
-70.3113
-70.3115
-70.8357
-70.8359
-70.8362
-70.8364
-70.8368
-70.8372
-70.8376
-70.838
-70.8384
-70.8389
-70.8394
-70.8398
-70.8402
-70.8407
-70.8411
-70.8414
-70.8418
-70.8421
-70.8423
-70.8425
-71.3658
-71.3661
-71.3664
-71.3667
-71.3671
-71.3675
-71.368
-71.3685
-71.369
-71.3695
-71.37
-71.3705
-71.371
-71.3715
-71.372
-71.3724
-71.3728
-71.3731
-71.3734
-71.3736
-71.8959
-71.8961
-71.8965
-71.8969
-71.8973
-71.8978
-71.8984
-71.8989
-71.8995
-71.9001
-71.9007
-71.9013
-71.9019
-71.9024
-71.9029
-71.9034
-71.9038
-71.9042
-71.9046
-71.9048
-72.4258
-72.4262
-72.4266
-72.427
-72.4275
-72.4281
-72.4287
-72.4294
-72.43
-72.4307
-72.4314
-72.432
-72.4327
-72.4333
-72.4339
-72.4344
-72.4349
-72.4354
-72.4358
-72.4361
-72.9557
-72.9561
-72.9566
-72.9571
-72.9577
-72.9583
-72.959
-72.9598
-72.9605
-72.9613
-72.9621
-72.9628
-72.9636
-72.9643
-72.9649
-72.9655
-72.9661
-72.9666
-72.9671
-72.9675
-73.4855
-73.4859
-73.4865
-73.4871
-73.4878
-73.4885
-73.4893
-73.4902
-73.491
-73.4919
-73.4928
-73.4936
-73.4945
-73.4953
-73.496
-73.4967
-73.4974
-73.4979
-73.4985
-73.4989
-74.0151
-74.0156
-74.0163
-74.017
-74.0178
-74.0186
-74.0196
-74.0205
-74.0215
-74.0225
-74.0235
-74.0245
-74.0254
-74.0263
-74.0272
-74.028
-74.0287
-74.0293
-74.0299
-74.0305
-74.5446
-74.5452
-74.546
-74.5468
-74.5477
-74.5487
-74.5498
-74.5508
-74.552
-74.5531
-74.5542
-74.5553
-74.5564
-74.5574
-74.5584
-74.5593
-74.5601
-74.5609
-74.5615
-74.5621
-75.0739
-75.0747
-75.0755
-75.0765
-75.0776
-75.0787
-75.0799
-75.0811
-75.0824
-75.0837
-75.085
-75.0862
-75.0874
-75.0886
-75.0897
-75.0907
-75.0916
-75.0925
-75.0933
-75.0939
-75.6031
-75.604
-75.605
-75.6061
-75.6073
-75.6086
-75.61
-75.6114
-75.6129
-75.6143
-75.6158
-75.6172
-75.6185
-75.6198
-75.621
-75.6222
-75.6232
-75.6242
-75.6251
-75.6259
-76.132
-76.1331
-76.1342
-76.1355
-76.137
-76.1385
-76.14
-76.1417
-76.1433
-76.145
-76.1466
-76.1482
-76.1497
-76.1511
-76.1525
-76.1538
-76.1549
-76.156
-76.1571
-76.158
-76.6607
-76.6619
-76.6633
-76.6648
-76.6665
-76.6682
-76.67
-76.6719
-76.6738
-76.6756
-76.6775
-76.6792
-76.6809
-76.6825
-76.684
-76.6855
-76.6868
-76.688
-76.6892
-76.6903
-77.1892
-77.1906
-77.1922
-77.194
-77.1959
-77.1979
-77.1999
-77.2021
-77.2042
-77.2063
-77.2084
-77.2104
-77.2123
-77.214
-77.2157
-77.2173
-77.2188
-77.2202
-77.2215
-77.2227
-77.7173
-77.719
-77.7209
-77.7229
-77.7251
-77.7274
-77.7298
-77.7323
-77.7347
-77.7371
-77.7394
-77.7416
-77.7437
-77.7457
-77.7475
-77.7492
-77.7509
-77.7525
-77.754
-77.7554
-78.2451
-78.247
-78.2492
-78.2516
-78.2542
-78.2569
-78.2596
-78.2624
-78.2652
-78.2679
-78.2705
-78.273
-78.2753
-78.2774
-78.2794
-78.2813
-78.2831
-78.2849
-78.2866
-78.2883
-78.7725
-78.7748
-78.7773
-78.7801
-78.7831
-78.7862
-78.7894
-78.7926
-78.7958
-78.7989
-78.8018
-78.8045
-78.807
-78.8094
-78.8115
-78.8136
-78.8155
-78.8175
-78.8195
-78.8214
-79.2995
-79.3021
-79.3051
-79.3083
-79.3118
-79.3155
-79.3192
-79.3229
-79.3265
-79.33
-79.3333
-79.3363
-79.339
-79.3415
-79.3438
-79.3459
-79.348
-79.3502
-79.3525
-79.3547
-79.826
-79.829
-79.8324
-79.8362
-79.8403
-79.8446
-79.8489
-79.8532
-79.8574
-79.8613
-79.865
-79.8683
-79.8712
-79.8738
-79.8762
-79.8784
-79.8806
-79.883
-79.8856
-79.8882
-80.3519
-80.3553
-80.3593
-80.3637
-80.3686
-80.3737
-80.3787
-80.3837
-80.3885
-80.393
-80.397
-80.4006
-80.4037
-80.4064
-80.4088
-80.411
-80.4133
-80.4158
-80.4188
-80.422
-80.8771
-80.8809
-80.8856
-80.8908
-80.8966
-80.9027
-80.9086
-80.9144
-80.9199
-80.925
-80.9296
-80.9334
-80.9367
-80.9394
-80.9417
-80.9438
-80.9459
-80.9486
-80.952
-80.9558
-81.4014
-81.4055
-81.4112
-81.4174
-81.4244
-81.4316
-81.4387
-81.4454
-81.4517
-81.4576
-81.4626
-81.4669
-81.4702
-81.4728
-81.4749
-81.4766
-81.4785
-81.4812
-81.4849
-81.4896
-81.9245
-81.9292
-81.9359
-81.9432
-81.952
-81.9607
-81.9689
-81.9768
-81.9842
-81.9909
-81.9967
-82.0011
-82.0045
-82.0066
-82.0086
-82.0095
-82.0106
-82.0133
-82.0177
-82.0232
-82.4459
-82.4519
-82.4594
-82.4677
-82.4793
-82.4902
-82.4994
-82.5086
-82.5173
-82.5253
-82.5318
-82.5365
-82.5397
-82.5418
-82.5429
-82.5422
-82.5418
-82.5442
-82.5501
-82.5562
-82.965
-82.9723
-82.9813
-82.9899
-83.0064
-83.0134
-83.0306
-83.041
-83.0514
-83.061
-83.0686
-83.0734
-83.0761
-83.0773
-83.0706
-83.0686
-83.0707
-83.0729
-83.0816
-83.0884
-83.4801
-83.49
-83.4999
-83.4885
-83.4903
-83.5405
-83.5602
-83.5731
-83.5864
-83.5987
-83.6079
-83.6122
-83.6136
-83.6118
-83.6072
-83.5635
-83.5735
-83.5936
-83.6102
-83.6193
-83.9891
-83.9752
-83.9755
-84.0015
-84.0188
-84.0687
-84.0889
-84.1058
-84.1226
-84.1397
-84.1507
-84.1542
-84.1551
-84.1479
-84.1416
-84.1182
-84.0991
-84.104
-84.1165
-84.1445
-84.5119
-84.5092
-84.5214
-84.5424
-84.5699
-84.597
-84.6184
-84.6385
-84.6554
-84.5126
-84.5406
-84.6525
-84.7058
-84.6848
-84.6732
-84.6652
-84.6628
-84.6583
-84.6644
-84.6885
-84.925
-85.0297
-85.0424
-85.0669
-85.0942
-85.1232
-85.1491
-85.1678
-85.0689
-84.8946
-84.8723
-84.9166
-85.2123
-85.2134
-85.2018
-85.1922
-85.1874
-85.1877
-85.2002
-85.1181
-85.5255
-85.5361
-85.5535
-85.5829
-85.6169
-85.6535
-85.6881
-85.7142
-85.4187
-85.4476
-85.4517
-85.4805
-85.7355
-85.7424
-85.7302
-85.7176
-85.7103
-85.7117
-85.7261
-85.7443
-86.0266
-86.0328
-86.0583
-86.0956
-86.1382
-86.1847
-86.2241
-86.2508
-86.0716
-86.0265
-86.0233
-86.0871
-86.2883
-86.2813
-86.2626
-86.243
-86.2295
-86.2279
-86.2433
-86.2758
-86.5035
-86.5123
-86.545
-86.5668
-86.6553
-86.7229
-86.7681
-86.788
-86.7723
-86.6035
-86.5549