/*--------------------------------*- C++ -*----------------------------------*\
| =========                 |                                                 |
| \\      /  F ield         | OpenFOAM: The Open Source CFD Toolbox           |
|  \\    /   O peration     | Version:  5.x                                   |
|   \\  /    A nd           | Web:      www.OpenFOAM.org                      |
|    \\/     M anipulation  |                                                 |
\*---------------------------------------------------------------------------*/
FoamFile
{
    version     2.0;
    format      ascii;
    class       volScalarField;
    location    "0.25";
    object      p_rgh;
}
// * * * * * * * * * * * * * * * * * * * * * * * * * * * * * * * * * * * * * //

dimensions      [1 -1 -2 0 0 0 0];

internalField   nonuniform List<scalar> 
8000
(
-0.0153146
-0.0153146
-0.0153147
-0.0153147
-0.0153148
-0.0153148
-0.0153149
-0.0153149
-0.015315
-0.015315
-0.015315
-0.0153151
-0.0153151
-0.0153152
-0.0153152
-0.0153152
-0.0153152
-0.0153152
-0.0153152
-0.0153153
-0.0459441
-0.0459441
-0.0459441
-0.0459442
-0.0459443
-0.0459445
-0.0459446
-0.0459448
-0.0459449
-0.0459451
-0.0459452
-0.0459453
-0.0459454
-0.0459455
-0.0459456
-0.0459457
-0.0459457
-0.0459457
-0.0459457
-0.0459457
-0.0765737
-0.0765736
-0.0765737
-0.0765738
-0.076574
-0.0765742
-0.0765745
-0.0765747
-0.0765749
-0.0765751
-0.0765753
-0.0765755
-0.0765757
-0.0765759
-0.076576
-0.0765761
-0.0765761
-0.0765762
-0.0765761
-0.0765761
-0.107203
-0.107203
-0.107203
-0.107203
-0.107204
-0.107204
-0.107204
-0.107205
-0.107205
-0.107205
-0.107205
-0.107206
-0.107206
-0.107206
-0.107206
-0.107206
-0.107206
-0.107206
-0.107206
-0.107206
-0.137833
-0.137833
-0.137833
-0.137833
-0.137834
-0.137834
-0.137834
-0.137834
-0.137835
-0.137835
-0.137835
-0.137836
-0.137836
-0.137836
-0.137836
-0.137837
-0.137837
-0.137837
-0.137837
-0.137836
-0.168463
-0.168463
-0.168463
-0.168463
-0.168463
-0.168464
-0.168464
-0.168464
-0.168465
-0.168465
-0.168465
-0.168466
-0.168466
-0.168466
-0.168466
-0.168467
-0.168467
-0.168467
-0.168467
-0.168466
-0.199093
-0.199092
-0.199092
-0.199093
-0.199093
-0.199093
-0.199094
-0.199094
-0.199094
-0.199095
-0.199095
-0.199096
-0.199096
-0.199096
-0.199096
-0.199097
-0.199097
-0.199097
-0.199097
-0.199096
-0.229722
-0.229722
-0.229722
-0.229722
-0.229723
-0.229723
-0.229723
-0.229724
-0.229724
-0.229725
-0.229725
-0.229725
-0.229726
-0.229726
-0.229726
-0.229727
-0.229727
-0.229727
-0.229727
-0.229726
-0.260352
-0.260352
-0.260352
-0.260352
-0.260352
-0.260353
-0.260353
-0.260354
-0.260354
-0.260354
-0.260355
-0.260355
-0.260356
-0.260356
-0.260356
-0.260356
-0.260357
-0.260357
-0.260357
-0.260356
-0.290981
-0.290982
-0.290982
-0.290982
-0.290982
-0.290983
-0.290983
-0.290983
-0.290984
-0.290984
-0.290985
-0.290985
-0.290985
-0.290986
-0.290986
-0.290986
-0.290986
-0.290986
-0.290987
-0.290986
-0.321611
-0.321611
-0.321612
-0.321612
-0.321612
-0.321612
-0.321613
-0.321613
-0.321614
-0.321614
-0.321614
-0.321615
-0.321615
-0.321615
-0.321616
-0.321616
-0.321616
-0.321616
-0.321616
-0.321615
-0.352241
-0.352241
-0.352241
-0.352242
-0.352242
-0.352242
-0.352242
-0.352243
-0.352243
-0.352244
-0.352244
-0.352244
-0.352245
-0.352245
-0.352245
-0.352245
-0.352246
-0.352246
-0.352246
-0.352245
-0.382871
-0.382871
-0.382871
-0.382871
-0.382872
-0.382872
-0.382872
-0.382872
-0.382873
-0.382873
-0.382873
-0.382874
-0.382874
-0.382874
-0.382875
-0.382875
-0.382875
-0.382875
-0.382875
-0.382875
-0.413501
-0.413501
-0.413501
-0.413501
-0.413501
-0.413501
-0.413502
-0.413502
-0.413502
-0.413503
-0.413503
-0.413503
-0.413504
-0.413504
-0.413504
-0.413505
-0.413505
-0.413505
-0.413505
-0.413504
-0.44413
-0.444131
-0.444131
-0.444131
-0.444131
-0.444131
-0.444131
-0.444132
-0.444132
-0.444132
-0.444132
-0.444133
-0.444133
-0.444134
-0.444134
-0.444134
-0.444135
-0.444135
-0.444135
-0.444134
-0.47476
-0.47476
-0.47476
-0.47476
-0.474761
-0.474761
-0.474761
-0.474761
-0.474761
-0.474762
-0.474762
-0.474762
-0.474763
-0.474763
-0.474763
-0.474764
-0.474764
-0.474764
-0.474764
-0.474763
-0.50539
-0.50539
-0.50539
-0.50539
-0.50539
-0.50539
-0.50539
-0.505391
-0.505391
-0.505391
-0.505392
-0.505392
-0.505392
-0.505393
-0.505393
-0.505393
-0.505393
-0.505394
-0.505394
-0.505393
-0.536019
-0.536019
-0.536019
-0.536019
-0.53602
-0.53602
-0.53602
-0.53602
-0.536021
-0.536021
-0.536021
-0.536022
-0.536022
-0.536022
-0.536022
-0.536023
-0.536023
-0.536023
-0.536023
-0.536022
-0.566649
-0.566649
-0.566649
-0.566649
-0.566649
-0.56665
-0.56665
-0.56665
-0.56665
-0.566651
-0.566651
-0.566651
-0.566651
-0.566651
-0.566652
-0.566652
-0.566652
-0.566652
-0.566652
-0.566652
-0.597278
-0.597278
-0.597278
-0.597279
-0.597279
-0.597279
-0.597279
-0.59728
-0.59728
-0.59728
-0.59728
-0.59728
-0.597281
-0.597281
-0.597281
-0.597281
-0.597281
-0.597282
-0.597282
-0.597282
-0.627908
-0.627908
-0.627908
-0.627908
-0.627909
-0.627909
-0.627909
-0.627909
-0.627909
-0.62791
-0.62791
-0.62791
-0.62791
-0.62791
-0.62791
-0.627911
-0.627911
-0.627911
-0.627911
-0.627911
-0.658538
-0.658537
-0.658538
-0.658538
-0.658538
-0.658538
-0.658539
-0.658539
-0.658539
-0.658539
-0.658539
-0.658539
-0.658539
-0.65854
-0.65854
-0.65854
-0.65854
-0.65854
-0.65854
-0.658541
-0.689167
-0.689167
-0.689167
-0.689167
-0.689168
-0.689168
-0.689168
-0.689168
-0.689168
-0.689169
-0.689169
-0.689169
-0.689169
-0.689169
-0.689169
-0.68917
-0.68917
-0.68917
-0.68917
-0.689171
-0.719797
-0.719797
-0.719797
-0.719797
-0.719797
-0.719797
-0.719798
-0.719798
-0.719798
-0.719798
-0.719798
-0.719799
-0.719799
-0.719799
-0.719799
-0.719799
-0.719799
-0.719799
-0.719799
-0.7198
-0.750426
-0.750427
-0.750427
-0.750427
-0.750427
-0.750427
-0.750427
-0.750428
-0.750428
-0.750428
-0.750428
-0.750429
-0.750429
-0.750429
-0.750429
-0.750429
-0.750429
-0.750429
-0.750429
-0.75043
-0.781056
-0.781056
-0.781056
-0.781057
-0.781057
-0.781057
-0.781057
-0.781057
-0.781058
-0.781058
-0.781058
-0.781059
-0.781059
-0.781059
-0.781059
-0.781059
-0.781059
-0.781059
-0.781059
-0.781059
-0.811686
-0.811686
-0.811686
-0.811687
-0.811687
-0.811687
-0.811687
-0.811687
-0.811688
-0.811688
-0.811688
-0.811688
-0.811689
-0.811689
-0.811689
-0.811689
-0.811689
-0.811689
-0.811689
-0.811689
-0.842316
-0.842316
-0.842316
-0.842317
-0.842317
-0.842317
-0.842317
-0.842317
-0.842318
-0.842318
-0.842318
-0.842318
-0.842319
-0.842319
-0.842319
-0.842319
-0.842319
-0.842319
-0.842319
-0.842319
-0.872946
-0.872946
-0.872947
-0.872947
-0.872947
-0.872947
-0.872947
-0.872947
-0.872948
-0.872948
-0.872948
-0.872948
-0.872949
-0.872949
-0.872949
-0.872949
-0.872949
-0.872949
-0.872949
-0.872949
-0.903576
-0.903577
-0.903577
-0.903577
-0.903577
-0.903577
-0.903577
-0.903577
-0.903578
-0.903578
-0.903578
-0.903578
-0.903579
-0.903579
-0.903579
-0.903579
-0.903579
-0.903579
-0.903579
-0.903579
-0.934206
-0.934207
-0.934207
-0.934207
-0.934207
-0.934207
-0.934207
-0.934207
-0.934208
-0.934208
-0.934208
-0.934208
-0.934208
-0.934209
-0.934209
-0.934209
-0.934209
-0.934209
-0.934209
-0.934209
-0.964836
-0.964837
-0.964837
-0.964837
-0.964837
-0.964837
-0.964837
-0.964837
-0.964838
-0.964838
-0.964838
-0.964838
-0.964838
-0.964839
-0.964839
-0.964839
-0.964839
-0.964839
-0.964839
-0.964839
-0.995467
-0.995467
-0.995467
-0.995467
-0.995467
-0.995467
-0.995467
-0.995467
-0.995468
-0.995468
-0.995468
-0.995468
-0.995468
-0.995469
-0.995469
-0.995469
-0.995469
-0.995469
-0.99547
-0.995469
-1.0261
-1.0261
-1.0261
-1.0261
-1.0261
-1.0261
-1.0261
-1.0261
-1.0261
-1.0261
-1.0261
-1.0261
-1.0261
-1.0261
-1.0261
-1.0261
-1.0261
-1.0261
-1.0261
-1.0261
-1.05673
-1.05673
-1.05673
-1.05673
-1.05673
-1.05673
-1.05673
-1.05673
-1.05673
-1.05673
-1.05673
-1.05673
-1.05673
-1.05673
-1.05673
-1.05673
-1.05673
-1.05673
-1.05673
-1.05673
-1.08736
-1.08736
-1.08736
-1.08736
-1.08736
-1.08736
-1.08736
-1.08736
-1.08736
-1.08736
-1.08736
-1.08736
-1.08736
-1.08736
-1.08736
-1.08736
-1.08736
-1.08736
-1.08736
-1.08736
-1.11799
-1.11799
-1.11799
-1.11799
-1.11799
-1.11799
-1.11799
-1.11799
-1.11799
-1.11799
-1.11799
-1.11799
-1.11799
-1.11799
-1.11799
-1.11799
-1.11799
-1.11799
-1.11799
-1.11799
-1.14862
-1.14862
-1.14862
-1.14862
-1.14862
-1.14862
-1.14862
-1.14862
-1.14862
-1.14862
-1.14862
-1.14862
-1.14862
-1.14862
-1.14862
-1.14862
-1.14862
-1.14862
-1.14862
-1.14862
-1.17925
-1.17925
-1.17925
-1.17925
-1.17925
-1.17925
-1.17925
-1.17925
-1.17925
-1.17925
-1.17925
-1.17925
-1.17925
-1.17925
-1.17925
-1.17925
-1.17925
-1.17925
-1.17925
-1.17925
-1.20988
-1.20988
-1.20988
-1.20988
-1.20988
-1.20988
-1.20988
-1.20988
-1.20988
-1.20988
-1.20988
-1.20988
-1.20988
-1.20988
-1.20988
-1.20988
-1.20989
-1.20989
-1.20989
-1.20989
-1.24051
-1.24051
-1.24051
-1.24051
-1.24051
-1.24051
-1.24051
-1.24051
-1.24051
-1.24051
-1.24051
-1.24051
-1.24051
-1.24051
-1.24052
-1.24052
-1.24052
-1.24052
-1.24052
-1.24052
-1.27114
-1.27114
-1.27114
-1.27114
-1.27114
-1.27114
-1.27114
-1.27114
-1.27114
-1.27114
-1.27114
-1.27114
-1.27114
-1.27115
-1.27115
-1.27115
-1.27115
-1.27115
-1.27115
-1.27115
-1.30177
-1.30177
-1.30177
-1.30177
-1.30177
-1.30177
-1.30177
-1.30177
-1.30177
-1.30177
-1.30177
-1.30177
-1.30178
-1.30178
-1.30178
-1.30178
-1.30178
-1.30178
-1.30178
-1.30178
-1.3324
-1.3324
-1.3324
-1.3324
-1.3324
-1.3324
-1.3324
-1.3324
-1.3324
-1.3324
-1.3324
-1.33241
-1.33241
-1.33241
-1.33241
-1.33241
-1.33241
-1.33241
-1.33241
-1.33241
-1.36303
-1.36303
-1.36303
-1.36303
-1.36303
-1.36303
-1.36303
-1.36303
-1.36303
-1.36304
-1.36304
-1.36304
-1.36304
-1.36304
-1.36304
-1.36304
-1.36304
-1.36304
-1.36304
-1.36304
-1.39366
-1.39366
-1.39366
-1.39366
-1.39366
-1.39366
-1.39366
-1.39366
-1.39367
-1.39367
-1.39367
-1.39367
-1.39367
-1.39367
-1.39367
-1.39367
-1.39367
-1.39367
-1.39367
-1.39367
-1.42429
-1.42429
-1.42429
-1.42429
-1.42429
-1.4243
-1.4243
-1.4243
-1.4243
-1.4243
-1.4243
-1.4243
-1.4243
-1.4243
-1.4243
-1.4243
-1.4243
-1.4243
-1.4243
-1.4243
-1.45493
-1.45493
-1.45493
-1.45493
-1.45493
-1.45493
-1.45493
-1.45493
-1.45493
-1.45493
-1.45493
-1.45493
-1.45493
-1.45493
-1.45493
-1.45493
-1.45493
-1.45493
-1.45493
-1.45493
-1.48556
-1.48556
-1.48556
-1.48556
-1.48556
-1.48556
-1.48556
-1.48556
-1.48556
-1.48556
-1.48556
-1.48556
-1.48556
-1.48556
-1.48556
-1.48556
-1.48556
-1.48556
-1.48556
-1.48556
-1.51619
-1.51619
-1.51619
-1.51619
-1.51619
-1.51619
-1.51619
-1.51619
-1.51619
-1.51619
-1.51619
-1.51619
-1.51619
-1.51619
-1.51619
-1.51619
-1.51619
-1.51619
-1.51619
-1.51619
-1.54682
-1.54682
-1.54682
-1.54682
-1.54682
-1.54682
-1.54682
-1.54682
-1.54682
-1.54682
-1.54682
-1.54682
-1.54682
-1.54682
-1.54682
-1.54682
-1.54682
-1.54682
-1.54682
-1.54682
-1.57745
-1.57745
-1.57745
-1.57745
-1.57745
-1.57745
-1.57745
-1.57745
-1.57745
-1.57745
-1.57745
-1.57745
-1.57745
-1.57746
-1.57746
-1.57746
-1.57746
-1.57746
-1.57746
-1.57746
-1.60808
-1.60808
-1.60808
-1.60808
-1.60808
-1.60808
-1.60808
-1.60808
-1.60808
-1.60808
-1.60808
-1.60809
-1.60809
-1.60809
-1.60809
-1.60809
-1.60809
-1.60809
-1.60809
-1.60809
-1.63871
-1.63871
-1.63871
-1.63871
-1.63871
-1.63871
-1.63871
-1.63871
-1.63871
-1.63872
-1.63872
-1.63872
-1.63872
-1.63872
-1.63872
-1.63872
-1.63872
-1.63872
-1.63872
-1.63872
-1.66934
-1.66934
-1.66934
-1.66934
-1.66934
-1.66934
-1.66934
-1.66935
-1.66935
-1.66935
-1.66935
-1.66935
-1.66935
-1.66935
-1.66935
-1.66935
-1.66935
-1.66935
-1.66935
-1.66935
-1.69997
-1.69997
-1.69997
-1.69997
-1.69997
-1.69998
-1.69998
-1.69998
-1.69998
-1.69998
-1.69998
-1.69998
-1.69998
-1.69998
-1.69998
-1.69998
-1.69998
-1.69998
-1.69998
-1.69998
-1.7306
-1.7306
-1.73061
-1.73061
-1.73061
-1.73061
-1.73061
-1.73061
-1.73061
-1.73061
-1.73061
-1.73061
-1.73061
-1.73061
-1.73061
-1.73061
-1.73061
-1.73061
-1.73061
-1.73061
-1.76123
-1.76124
-1.76124
-1.76124
-1.76124
-1.76124
-1.76124
-1.76124
-1.76124
-1.76124
-1.76124
-1.76124
-1.76124
-1.76124
-1.76124
-1.76124
-1.76124
-1.76124
-1.76124
-1.76124
-1.79187
-1.79187
-1.79187
-1.79187
-1.79187
-1.79187
-1.79187
-1.79187
-1.79187
-1.79187
-1.79187
-1.79187
-1.79187
-1.79187
-1.79187
-1.79187
-1.79187
-1.79187
-1.79187
-1.79187
-1.8225
-1.8225
-1.8225
-1.8225
-1.8225
-1.8225
-1.8225
-1.8225
-1.8225
-1.8225
-1.8225
-1.8225
-1.8225
-1.8225
-1.8225
-1.8225
-1.8225
-1.8225
-1.8225
-1.8225
-1.85313
-1.85313
-1.85313
-1.85313
-1.85313
-1.85313
-1.85313
-1.85313
-1.85313
-1.85313
-1.85313
-1.85313
-1.85313
-1.85313
-1.85313
-1.85313
-1.85313
-1.85313
-1.85313
-1.85313
-1.88376
-1.88376
-1.88376
-1.88376
-1.88376
-1.88376
-1.88376
-1.88376
-1.88376
-1.88376
-1.88376
-1.88376
-1.88376
-1.88376
-1.88376
-1.88376
-1.88376
-1.88376
-1.88376
-1.88376
-1.91439
-1.91439
-1.91439
-1.91439
-1.91439
-1.91439
-1.91439
-1.91439
-1.91439
-1.91439
-1.91439
-1.91439
-1.91439
-1.91439
-1.91439
-1.91439
-1.91439
-1.91439
-1.91439
-1.91439
-1.94502
-1.94502
-1.94502
-1.94502
-1.94502
-1.94502
-1.94502
-1.94502
-1.94502
-1.94502
-1.94502
-1.94502
-1.94502
-1.94502
-1.94502
-1.94502
-1.94502
-1.94502
-1.94502
-1.94502
-1.97565
-1.97565
-1.97565
-1.97565
-1.97565
-1.97565
-1.97565
-1.97565
-1.97565
-1.97565
-1.97565
-1.97565
-1.97565
-1.97565
-1.97565
-1.97565
-1.97565
-1.97565
-1.97565
-1.97565
-2.00628
-2.00628
-2.00628
-2.00628
-2.00628
-2.00628
-2.00628
-2.00628
-2.00628
-2.00628
-2.00628
-2.00628
-2.00628
-2.00628
-2.00628
-2.00628
-2.00628
-2.00628
-2.00628
-2.00628
-2.03691
-2.03691
-2.03691
-2.03691
-2.03691
-2.03691
-2.03691
-2.03691
-2.03691
-2.03691
-2.03691
-2.03691
-2.03691
-2.03691
-2.03691
-2.03691
-2.03691
-2.03691
-2.03691
-2.03691
-2.06754
-2.06754
-2.06754
-2.06754
-2.06754
-2.06754
-2.06754
-2.06754
-2.06754
-2.06754
-2.06754
-2.06754
-2.06754
-2.06754
-2.06754
-2.06754
-2.06754
-2.06754
-2.06754
-2.06754
-2.09817
-2.09817
-2.09817
-2.09817
-2.09817
-2.09817
-2.09817
-2.09817
-2.09817
-2.09817
-2.09817
-2.09817
-2.09817
-2.09817
-2.09817
-2.09817
-2.09817
-2.09817
-2.09817
-2.09817
-2.1288
-2.1288
-2.1288
-2.1288
-2.1288
-2.1288
-2.1288
-2.1288
-2.1288
-2.1288
-2.1288
-2.1288
-2.1288
-2.1288
-2.1288
-2.1288
-2.1288
-2.1288
-2.1288
-2.1288
-2.15943
-2.15943
-2.15943
-2.15943
-2.15943
-2.15943
-2.15943
-2.15943
-2.15943
-2.15943
-2.15943
-2.15943
-2.15943
-2.15943
-2.15943
-2.15943
-2.15943
-2.15943
-2.15943
-2.15943
-2.19006
-2.19006
-2.19006
-2.19006
-2.19006
-2.19006
-2.19006
-2.19006
-2.19006
-2.19006
-2.19006
-2.19006
-2.19006
-2.19006
-2.19006
-2.19006
-2.19006
-2.19006
-2.19006
-2.19006
-2.22069
-2.22069
-2.22069
-2.22069
-2.22069
-2.22069
-2.22069
-2.22069
-2.22069
-2.22069
-2.22069
-2.22069
-2.22069
-2.22069
-2.22069
-2.22069
-2.22069
-2.22069
-2.22069
-2.22069
-2.25132
-2.25132
-2.25132
-2.25132
-2.25132
-2.25132
-2.25132
-2.25132
-2.25132
-2.25132
-2.25132
-2.25132
-2.25132
-2.25132
-2.25132
-2.25132
-2.25132
-2.25132
-2.25132
-2.25132
-2.28195
-2.28195
-2.28195
-2.28195
-2.28195
-2.28195
-2.28195
-2.28195
-2.28195
-2.28195
-2.28195
-2.28195
-2.28195
-2.28195
-2.28195
-2.28195
-2.28195
-2.28195
-2.28195
-2.28195
-2.31258
-2.31258
-2.31258
-2.31258
-2.31258
-2.31258
-2.31258
-2.31258
-2.31258
-2.31258
-2.31258
-2.31258
-2.31258
-2.31258
-2.31258
-2.31258
-2.31258
-2.31258
-2.31258
-2.31258
-2.34321
-2.34321
-2.34321
-2.34321
-2.34321
-2.34321
-2.34321
-2.34321
-2.34321
-2.34321
-2.34321
-2.34321
-2.34321
-2.34321
-2.34321
-2.34321
-2.34321
-2.34321
-2.34321
-2.34321
-2.37384
-2.37384
-2.37384
-2.37384
-2.37384
-2.37384
-2.37384
-2.37384
-2.37384
-2.37384
-2.37384
-2.37384
-2.37384
-2.37384
-2.37384
-2.37384
-2.37384
-2.37384
-2.37384
-2.37384
-2.40447
-2.40447
-2.40447
-2.40447
-2.40447
-2.40447
-2.40447
-2.40447
-2.40447
-2.40447
-2.40447
-2.40447
-2.40447
-2.40447
-2.40447
-2.40447
-2.40447
-2.40447
-2.40447
-2.40447
-2.4351
-2.4351
-2.4351
-2.4351
-2.4351
-2.4351
-2.4351
-2.4351
-2.4351
-2.4351
-2.4351
-2.4351
-2.4351
-2.4351
-2.4351
-2.4351
-2.4351
-2.4351
-2.4351
-2.4351
-2.46573
-2.46573
-2.46573
-2.46573
-2.46573
-2.46573
-2.46573
-2.46573
-2.46573
-2.46573
-2.46573
-2.46573
-2.46573
-2.46573
-2.46573
-2.46573
-2.46573
-2.46573
-2.46573
-2.46573
-2.49636
-2.49636
-2.49636
-2.49636
-2.49636
-2.49636
-2.49636
-2.49636
-2.49636
-2.49636
-2.49636
-2.49636
-2.49636
-2.49636
-2.49636
-2.49636
-2.49636
-2.49636
-2.49636
-2.49636
-2.52699
-2.52699
-2.52699
-2.52699
-2.52699
-2.52699
-2.52699
-2.52699
-2.52699
-2.52699
-2.52699
-2.52699
-2.52699
-2.52699
-2.52699
-2.52699
-2.52699
-2.52699
-2.52699
-2.52699
-2.55762
-2.55762
-2.55762
-2.55762
-2.55762
-2.55762
-2.55762
-2.55762
-2.55762
-2.55762
-2.55762
-2.55762
-2.55762
-2.55762
-2.55762
-2.55762
-2.55762
-2.55762
-2.55762
-2.55762
-2.58825
-2.58825
-2.58825
-2.58825
-2.58825
-2.58825
-2.58825
-2.58825
-2.58825
-2.58825
-2.58825
-2.58825
-2.58825
-2.58825
-2.58825
-2.58825
-2.58825
-2.58825
-2.58825
-2.58826
-2.61888
-2.61888
-2.61888
-2.61888
-2.61888
-2.61888
-2.61888
-2.61888
-2.61888
-2.61888
-2.61888
-2.61888
-2.61888
-2.61888
-2.61888
-2.61888
-2.61888
-2.61889
-2.61889
-2.61889
-2.64951
-2.64951
-2.64951
-2.64951
-2.64951
-2.64951
-2.64951
-2.64951
-2.64951
-2.64951
-2.64951
-2.64951
-2.64951
-2.64951
-2.64952
-2.64952
-2.64952
-2.64952
-2.64952
-2.64952
-2.68014
-2.68014
-2.68014
-2.68014
-2.68014
-2.68014
-2.68014
-2.68014
-2.68014
-2.68014
-2.68014
-2.68014
-2.68014
-2.68014
-2.68015
-2.68015
-2.68015
-2.68015
-2.68015
-2.68015
-2.71076
-2.71076
-2.71077
-2.71077
-2.71077
-2.71077
-2.71077
-2.71077
-2.71077
-2.71077
-2.71077
-2.71077
-2.71077
-2.71078
-2.71078
-2.71078
-2.71078
-2.71078
-2.71078
-2.71078
-2.74139
-2.74139
-2.74139
-2.7414
-2.7414
-2.7414
-2.7414
-2.7414
-2.7414
-2.7414
-2.7414
-2.7414
-2.7414
-2.74141
-2.74141
-2.74141
-2.74141
-2.74141
-2.74141
-2.74141
-2.77202
-2.77202
-2.77202
-2.77202
-2.77203
-2.77203
-2.77203
-2.77203
-2.77203
-2.77203
-2.77203
-2.77203
-2.77204
-2.77204
-2.77204
-2.77204
-2.77204
-2.77204
-2.77204
-2.77204
-2.80265
-2.80265
-2.80265
-2.80265
-2.80265
-2.80266
-2.80266
-2.80266
-2.80266
-2.80266
-2.80266
-2.80266
-2.80267
-2.80267
-2.80267
-2.80267
-2.80267
-2.80267
-2.80267
-2.80267
-2.83328
-2.83328
-2.83328
-2.83328
-2.83328
-2.83328
-2.83329
-2.83329
-2.83329
-2.83329
-2.83329
-2.83329
-2.8333
-2.8333
-2.8333
-2.8333
-2.8333
-2.8333
-2.8333
-2.8333
-2.86391
-2.86391
-2.86391
-2.86391
-2.86391
-2.86391
-2.86392
-2.86392
-2.86392
-2.86392
-2.86392
-2.86392
-2.86393
-2.86393
-2.86393
-2.86393
-2.86393
-2.86393
-2.86393
-2.86394
-2.89454
-2.89454
-2.89454
-2.89454
-2.89454
-2.89454
-2.89454
-2.89455
-2.89455
-2.89455
-2.89455
-2.89455
-2.89456
-2.89456
-2.89456
-2.89456
-2.89456
-2.89457
-2.89457
-2.89457
-2.92517
-2.92517
-2.92517
-2.92517
-2.92517
-2.92517
-2.92517
-2.92517
-2.92518
-2.92518
-2.92518
-2.92519
-2.92519
-2.92519
-2.92519
-2.92519
-2.9252
-2.9252
-2.9252
-2.9252
-2.95579
-2.95579
-2.95579
-2.9558
-2.9558
-2.9558
-2.9558
-2.9558
-2.95581
-2.95581
-2.95581
-2.95582
-2.95582
-2.95582
-2.95582
-2.95583
-2.95583
-2.95583
-2.95583
-2.95583
-2.98642
-2.98642
-2.98642
-2.98642
-2.98642
-2.98643
-2.98643
-2.98643
-2.98644
-2.98644
-2.98644
-2.98645
-2.98645
-2.98645
-2.98646
-2.98646
-2.98646
-2.98646
-2.98646
-2.98646
-3.01705
-3.01705
-3.01705
-3.01705
-3.01705
-3.01706
-3.01706
-3.01706
-3.01707
-3.01707
-3.01707
-3.01708
-3.01708
-3.01708
-3.01709
-3.01709
-3.01709
-3.01709
-3.0171
-3.0171
-3.04767
-3.04767
-3.04768
-3.04768
-3.04768
-3.04768
-3.04769
-3.04769
-3.04769
-3.0477
-3.0477
-3.04771
-3.04771
-3.04772
-3.04772
-3.04772
-3.04772
-3.04773
-3.04773
-3.04773
-3.0783
-3.0783
-3.0783
-3.0783
-3.07831
-3.07831
-3.07831
-3.07832
-3.07832
-3.07833
-3.07833
-3.07834
-3.07834
-3.07835
-3.07835
-3.07835
-3.07836
-3.07836
-3.07836
-3.07836
-3.10892
-3.10892
-3.10893
-3.10893
-3.10893
-3.10894
-3.10894
-3.10895
-3.10895
-3.10896
-3.10896
-3.10897
-3.10897
-3.10898
-3.10898
-3.10899
-3.10899
-3.109
-3.109
-3.109
-3.13955
-3.13955
-3.13955
-3.13956
-3.13956
-3.13956
-3.13957
-3.13957
-3.13958
-3.13959
-3.13959
-3.1396
-3.13961
-3.13961
-3.13962
-3.13962
-3.13963
-3.13963
-3.13963
-3.13963
-3.17017
-3.17017
-3.17018
-3.17018
-3.17018
-3.17019
-3.1702
-3.1702
-3.17021
-3.17022
-3.17022
-3.17023
-3.17024
-3.17024
-3.17025
-3.17026
-3.17026
-3.17027
-3.17027
-3.17027
-3.20079
-3.2008
-3.2008
-3.2008
-3.20081
-3.20082
-3.20082
-3.20083
-3.20084
-3.20085
-3.20085
-3.20086
-3.20087
-3.20088
-3.20089
-3.20089
-3.2009
-3.2009
-3.20091
-3.20091
-3.23141
-3.23142
-3.23142
-3.23143
-3.23143
-3.23144
-3.23145
-3.23146
-3.23147
-3.23148
-3.23149
-3.23149
-3.2315
-3.23151
-3.23152
-3.23153
-3.23153
-3.23154
-3.23154
-3.23155
-3.26203
-3.26204
-3.26204
-3.26205
-3.26206
-3.26206
-3.26207
-3.26208
-3.26209
-3.2621
-3.26212
-3.26213
-3.26214
-3.26215
-3.26216
-3.26217
-3.26217
-3.26218
-3.26218
-3.26219
-3.29265
-3.29266
-3.29266
-3.29267
-3.29268
-3.29269
-3.2927
-3.29271
-3.29272
-3.29273
-3.29275
-3.29276
-3.29277
-3.29278
-3.29279
-3.2928
-3.29281
-3.29282
-3.29282
-3.29283
-3.32327
-3.32327
-3.32328
-3.32329
-3.3233
-3.32331
-3.32332
-3.32333
-3.32335
-3.32336
-3.32338
-3.32339
-3.32341
-3.32342
-3.32343
-3.32344
-3.32345
-3.32346
-3.32347
-3.32347
-3.35388
-3.35389
-3.3539
-3.35391
-3.35392
-3.35393
-3.35394
-3.35396
-3.35397
-3.35399
-3.35401
-3.35403
-3.35404
-3.35406
-3.35407
-3.35408
-3.3541
-3.3541
-3.35411
-3.35412
-3.38449
-3.3845
-3.38451
-3.38452
-3.38453
-3.38455
-3.38456
-3.38458
-3.3846
-3.38462
-3.38464
-3.38466
-3.38468
-3.3847
-3.38471
-3.38473
-3.38474
-3.38475
-3.38476
-3.38477
-3.4151
-3.41511
-3.41512
-3.41513
-3.41515
-3.41517
-3.41518
-3.4152
-3.41523
-3.41525
-3.41527
-3.41529
-3.41531
-3.41533
-3.41535
-3.41537
-3.41539
-3.4154
-3.41541
-3.41542
-3.44571
-3.44572
-3.44573
-3.44574
-3.44576
-3.44578
-3.4458
-3.44583
-3.44585
-3.44588
-3.4459
-3.44593
-3.44595
-3.44598
-3.446
-3.44602
-3.44603
-3.44605
-3.44606
-3.44607
-3.47631
-3.47632
-3.47634
-3.47635
-3.47637
-3.47639
-3.47642
-3.47645
-3.47648
-3.4765
-3.47653
-3.47656
-3.47659
-3.47662
-3.47664
-3.47667
-3.47669
-3.4767
-3.47672
-3.47673
-3.50691
-3.50692
-3.50694
-3.50696
-3.50698
-3.50701
-3.50703
-3.50707
-3.5071
-3.50713
-3.50717
-3.5072
-3.50723
-3.50726
-3.50729
-3.50732
-3.50734
-3.50736
-3.50738
-3.50739
-3.5375
-3.53752
-3.53753
-3.53756
-3.53758
-3.53761
-3.53765
-3.53768
-3.53772
-3.53776
-3.5378
-3.53784
-3.53787
-3.53791
-3.53794
-3.53797
-3.538
-3.53802
-3.53804
-3.53805
-3.56809
-3.56811
-3.56813
-3.56815
-3.56818
-3.56822
-3.56826
-3.5683
-3.56834
-3.56839
-3.56843
-3.56848
-3.56852
-3.56856
-3.5686
-3.56863
-3.56866
-3.56869
-3.56871
-3.56873
-3.59867
-3.59869
-3.59871
-3.59874
-3.59878
-3.59882
-3.59886
-3.59891
-3.59896
-3.59901
-3.59906
-3.59912
-3.59916
-3.59921
-3.59926
-3.5993
-3.59933
-3.59936
-3.59939
-3.5994
-3.62925
-3.62927
-3.6293
-3.62933
-3.62937
-3.62942
-3.62947
-3.62952
-3.62958
-3.62964
-3.6297
-3.62976
-3.62981
-3.62987
-3.62992
-3.62996
-3.63001
-3.63004
-3.63007
-3.63009
-3.65981
-3.65984
-3.65987
-3.65991
-3.65996
-3.66001
-3.66007
-3.66013
-3.6602
-3.66026
-3.66033
-3.6604
-3.66046
-3.66053
-3.66059
-3.66064
-3.66069
-3.66073
-3.66076
-3.66078
-3.69037
-3.6904
-3.69043
-3.69048
-3.69053
-3.6906
-3.69066
-3.69073
-3.69081
-3.69089
-3.69097
-3.69104
-3.69112
-3.69119
-3.69126
-3.69132
-3.69137
-3.69142
-3.69146
-3.69149
-3.72091
-3.72095
-3.72099
-3.72104
-3.7211
-3.72118
-3.72125
-3.72134
-3.72142
-3.72151
-3.7216
-3.72169
-3.72178
-3.72186
-3.72194
-3.72201
-3.72207
-3.72212
-3.72217
-3.7222
-3.75144
-3.75148
-3.75153
-3.7516
-3.75167
-3.75175
-3.75184
-3.75193
-3.75203
-3.75213
-3.75224
-3.75234
-3.75244
-3.75254
-3.75262
-3.7527
-3.75278
-3.75284
-3.75289
-3.75293
-3.78196
-3.78201
-3.78207
-3.78214
-3.78222
-3.78231
-3.78241
-3.78252
-3.78264
-3.78276
-3.78288
-3.78299
-3.78311
-3.78322
-3.78332
-3.78341
-3.78349
-3.78357
-3.78363
-3.78367
-3.81246
-3.81251
-3.81258
-3.81267
-3.81276
-3.81287
-3.81299
-3.81311
-3.81324
-3.81338
-3.81351
-3.81365
-3.81378
-3.81391
-3.81402
-3.81413
-3.81422
-3.81431
-3.81438
-3.81443
-3.84294
-3.84301
-3.84308
-3.84318
-3.84329
-3.84341
-3.84355
-3.84369
-3.84384
-3.844
-3.84415
-3.84431
-3.84446
-3.8446
-3.84474
-3.84486
-3.84497
-3.84507
-3.84515
-3.84521
-3.8734
-3.87348
-3.87357
-3.87368
-3.8738
-3.87395
-3.8741
-3.87427
-3.87444
-3.87462
-3.8748
-3.87497
-3.87515
-3.87531
-3.87546
-3.8756
-3.87573
-3.87584
-3.87593
-3.87601
-3.90384
-3.90392
-3.90403
-3.90416
-3.9043
-3.90446
-3.90464
-3.90483
-3.90503
-3.90523
-3.90544
-3.90564
-3.90584
-3.90603
-3.9062
-3.90637
-3.90651
-3.90664
-3.90675
-3.90683
-3.93425
-3.93434
-3.93447
-3.93461
-3.93478
-3.93497
-3.93517
-3.93539
-3.93562
-3.93585
-3.93608
-3.93632
-3.93654
-3.93676
-3.93696
-3.93715
-3.93731
-3.93746
-3.93758
-3.93768
-3.96462
-3.96473
-3.96487
-3.96504
-3.96524
-3.96545
-3.96569
-3.96594
-3.9662
-3.96646
-3.96673
-3.967
-3.96726
-3.9675
-3.96774
-3.96795
-3.96814
-3.96831
-3.96845
-3.96857
-3.99496
-3.99509
-3.99525
-3.99545
-3.99567
-3.99592
-3.99619
-3.99647
-3.99677
-3.99708
-3.99738
-3.99769
-3.99798
-3.99826
-3.99853
-3.99877
-3.99899
-3.99919
-3.99935
-3.99949
-4.02525
-4.0254
-4.02559
-4.02582
-4.02607
-4.02636
-4.02667
-4.02699
-4.02734
-4.02768
-4.02804
-4.02838
-4.02872
-4.02904
-4.02935
-4.02963
-4.02988
-4.0301
-4.0303
-4.03045
-4.05549
-4.05567
-4.0559
-4.05615
-4.05645
-4.05678
-4.05713
-4.0575
-4.05789
-4.05829
-4.05869
-4.05909
-4.05948
-4.05985
-4.06019
-4.06051
-4.0608
-4.06106
-4.06128
-4.06146
-4.08568
-4.08589
-4.08615
-4.08645
-4.08679
-4.08716
-4.08757
-4.088
-4.08844
-4.0889
-4.08936
-4.08981
-4.09025
-4.09067
-4.09106
-4.09143
-4.09176
-4.09206
-4.09231
-4.09252
-4.11581
-4.11605
-4.11635
-4.1167
-4.11709
-4.11752
-4.11798
-4.11847
-4.11898
-4.1195
-4.12002
-4.12054
-4.12104
-4.12152
-4.12197
-4.12239
-4.12277
-4.12311
-4.1234
-4.12364
-4.14586
-4.14615
-4.14649
-4.14689
-4.14734
-4.14784
-4.14837
-4.14893
-4.14951
-4.1501
-4.1507
-4.15129
-4.15186
-4.1524
-4.15291
-4.15339
-4.15382
-4.15421
-4.15455
-4.15483
-4.17583
-4.17616
-4.17657
-4.17703
-4.17755
-4.17811
-4.17872
-4.17936
-4.18003
-4.1807
-4.18138
-4.18205
-4.1827
-4.18332
-4.1839
-4.18444
-4.18494
-4.18538
-4.18577
-4.1861
-4.20571
-4.20609
-4.20656
-4.2071
-4.20769
-4.20834
-4.20904
-4.20977
-4.21053
-4.2113
-4.21207
-4.21283
-4.21357
-4.21427
-4.21493
-4.21555
-4.21611
-4.21662
-4.21707
-4.21745
-4.23547
-4.23592
-4.23647
-4.23709
-4.23778
-4.23852
-4.23932
-4.24016
-4.24102
-4.2419
-4.24278
-4.24364
-4.24447
-4.24527
-4.24602
-4.24672
-4.24736
-4.24794
-4.24846
-4.2489
-4.26511
-4.26564
-4.26628
-4.267
-4.26779
-4.26865
-4.26956
-4.27052
-4.2715
-4.2725
-4.27349
-4.27447
-4.27541
-4.27631
-4.27716
-4.27796
-4.27868
-4.27935
-4.27995
-4.28045
-4.29461
-4.29523
-4.29598
-4.29681
-4.29772
-4.29871
-4.29976
-4.30085
-4.30197
-4.3031
-4.30423
-4.30533
-4.3064
-4.30741
-4.30837
-4.30927
-4.3101
-4.31085
-4.31154
-4.31213
-4.32395
-4.32468
-4.32555
-4.32651
-4.32757
-4.3287
-4.3299
-4.33115
-4.33243
-4.33371
-4.33499
-4.33623
-4.33743
-4.33858
-4.33966
-4.34067
-4.3416
-4.34246
-4.34325
-4.34393
-4.3531
-4.35396
-4.35497
-4.35609
-4.35731
-4.35862
-4.35999
-4.36142
-4.36287
-4.36433
-4.36577
-4.36718
-4.36853
-4.36981
-4.37103
-4.37216
-4.37322
-4.37419
-4.37509
-4.37587
-4.38204
-4.38306
-4.38424
-4.38554
-4.38695
-4.38845
-4.39003
-4.39166
-4.39332
-4.39497
-4.3966
-4.39818
-4.39969
-4.40113
-4.40248
-4.40376
-4.40494
-4.40605
-4.40708
-4.40798
-4.41075
-4.41194
-4.41332
-4.41484
-4.41647
-4.4182
-4.42002
-4.42188
-4.42376
-4.42563
-4.42747
-4.42924
-4.43093
-4.43254
-4.43404
-4.43546
-4.43679
-4.43804
-4.43921
-4.44025
-4.43918
-4.44059
-4.4422
-4.44396
-4.44585
-4.44786
-4.44994
-4.45207
-4.45422
-4.45634
-4.4584
-4.46039
-4.46227
-4.46405
-4.46572
-4.46729
-4.46877
-4.47017
-4.47152
-4.47271
-4.46732
-4.46896
-4.47085
-4.4729
-4.47509
-4.47741
-4.47981
-4.48226
-4.4847
-4.4871
-4.48942
-4.49163
-4.49372
-4.49567
-4.49751
-4.49924
-4.50088
-4.50246
-4.50399
-4.50538
-4.49512
-4.49704
-4.49924
-4.50162
-4.50418
-4.50687
-4.50964
-4.51244
-4.51522
-4.51794
-4.52054
-4.523
-4.5253
-4.52744
-4.52944
-4.53133
-4.53313
-4.53489
-4.53664
-4.53825
-4.52254
-4.52476
-4.52732
-4.5301
-4.53308
-4.53621
-4.53942
-4.54265
-4.54582
-4.54889
-4.55181
-4.55453
-4.55705
-4.55937
-4.56152
-4.56355
-4.56552
-4.56748
-4.56947
-4.57135
-4.54953
-4.55209
-4.55507
-4.55831
-4.5618
-4.56546
-4.56918
-4.5729
-4.57653
-4.58001
-4.58326
-4.58627
-4.589
-4.59148
-4.59376
-4.59591
-4.59803
-4.60019
-4.60246
-4.60468
-4.57602
-4.57896
-4.58241
-4.58621
-4.59031
-4.5946
-4.59894
-4.60324
-4.6074
-4.61134
-4.61498
-4.61827
-4.62121
-4.62382
-4.62619
-4.62841
-4.63063
-4.633
-4.6356
-4.63823
-4.60193
-4.60528
-4.60928
-4.61374
-4.6186
-4.62366
-4.62874
-4.63373
-4.63851
-4.64297
-4.64703
-4.65062
-4.65374
-4.65644
-4.65882
-4.66103
-4.6633
-4.66584
-4.66882
-4.67195
-4.62714
-4.63092
-4.63558
-4.64083
-4.64664
-4.65266
-4.65861
-4.66442
-4.66989
-4.67501
-4.67955
-4.68344
-4.68671
-4.68941
-4.69171
-4.69376
-4.69595
-4.69863
-4.70204
-4.70579
-4.65143
-4.65556
-4.66118
-4.66738
-4.67442
-4.68165
-4.68866
-4.6954
-4.70175
-4.70756
-4.71264
-4.71689
-4.72025
-4.72276
-4.72492
-4.72658
-4.72847
-4.73118
-4.7349
-4.7396
-4.67451
-4.67923
-4.68591
-4.69317
-4.70199
-4.71073
-4.71888
-4.72676
-4.73421
-4.74094
-4.74666
-4.75115
-4.75452
-4.75661
-4.75862
-4.75945
-4.76062
-4.76326
-4.76769
-4.77315
-4.69594
-4.70187
-4.70941
-4.71771
-4.72931
-4.74024
-4.74942
-4.75858
-4.76733
-4.77528
-4.78181
-4.7865
-4.78974
-4.79181
-4.79305
-4.79218
-4.79183
-4.79423
-4.80008
-4.80618
-4.71501
-4.72234
-4.73134
-4.73992
-4.75686
-4.76399
-4.78064
-4.79098
-4.80138
-4.81103
-4.81865
-4.82337
-4.8261
-4.82734
-4.82141
-4.81981
-4.82135
-4.82287
-4.83156
-4.83837
-4.73011
-4.7404
-4.75183
-4.74182
-4.74358
-4.79144
-4.81022
-4.82313
-4.83636
-4.84873
-4.85794
-4.86221
-4.86362
-4.86179
-4.85804
-4.8169
-4.82687
-4.84629
-4.86119
-4.86933
-4.7391
-4.72869
-4.72906
-4.75505
-4.77209
-4.81924
-4.83885
-4.8558
-4.87263
-4.88968
-4.90065
-4.90418
-4.90508
-4.89787
-4.89192
-4.87075
-4.85257
-4.8574
-4.86991
-4.89457
-4.76186
-4.76185
-4.77429
-4.79479
-4.82047
-4.84707
-4.86842
-4.8885
-4.90625
-4.79215
-4.82079
-4.91484
-4.95609
-4.93482