/*--------------------------------*- C++ -*----------------------------------*\
| =========                 |                                                 |
| \\      /  F ield         | OpenFOAM: The Open Source CFD Toolbox           |
|  \\    /   O peration     | Version:  5.x                                   |
|   \\  /    A nd           | Web:      www.OpenFOAM.org                      |
|    \\/     M anipulation  |                                                 |
\*---------------------------------------------------------------------------*/
FoamFile
{
    version     2.0;
    format      ascii;
    class       surfaceScalarField;
    location    "0.25";
    object      phi;
}
// * * * * * * * * * * * * * * * * * * * * * * * * * * * * * * * * * * * * * //

dimensions      [0 3 -1 0 0 0 0];

internalField   nonuniform List<scalar> 
15580
(
4.90307e-18
1.14609e-10
1.27666e-18
2.7442e-10
-1.66635e-18
3.83521e-10
-3.64234e-18
4.53682e-10
-4.87426e-18
4.94655e-10
-5.5156e-18
5.15104e-10
-5.65426e-18
5.22443e-10
-5.44344e-18
5.22671e-10
-5.02712e-18
5.20306e-10
-4.5402e-18
5.18367e-10
-4.18653e-18
5.18367e-10
-4.26454e-18
5.20306e-10
-5.17035e-18
5.22671e-10
-7.43638e-18
5.22443e-10
-1.16779e-17
5.15104e-10
-1.81961e-17
4.94655e-10
-2.64536e-17
4.53682e-10
-3.19787e-17
3.83521e-10
-2.11408e-17
2.7442e-10
1.14609e-10
1.05071e-18
1.14609e-10
-5.08105e-18
2.7442e-10
-1.01786e-17
3.83521e-10
-1.40858e-17
4.53682e-10
-1.68281e-17
4.94655e-10
-1.83727e-17
5.15104e-10
-1.8692e-17
5.22443e-10
-1.80208e-17
5.22671e-10
-1.66333e-17
5.20306e-10
-1.49528e-17
5.18367e-10
-1.36112e-17
5.18367e-10
-1.34573e-17
5.20306e-10
-1.57083e-17
5.22671e-10
-2.16631e-17
5.22443e-10
-3.30466e-17
5.15104e-10
-5.06886e-17
4.94655e-10
-7.34858e-17
4.53682e-10
-9.08843e-17
3.83521e-10
-8.70608e-17
2.7442e-10
1.14609e-10
-1.51418e-17
1.14609e-10
-1.93824e-17
2.7442e-10
-2.34988e-17
3.83521e-10
-2.73941e-17
4.53682e-10
-3.09336e-17
4.94655e-10
-3.33976e-17
5.15104e-10
-3.40024e-17
5.22443e-10
-3.27988e-17
5.22671e-10
-3.03418e-17
5.20306e-10
-2.72937e-17
5.18367e-10
-2.46225e-17
5.18367e-10
-2.34925e-17
5.20306e-10
-2.56378e-17
5.22671e-10
-3.3098e-17
5.22443e-10
-4.7495e-17
5.15104e-10
-6.96488e-17
4.94655e-10
-9.52151e-17
4.53682e-10
-1.12017e-16
3.83521e-10
-1.01525e-16
2.7442e-10
1.14609e-10
-2.52453e-17
1.14609e-10
-2.95624e-17
2.7442e-10
-3.36215e-17
3.83521e-10
-3.83622e-17
4.53682e-10
-4.37664e-17
4.94655e-10
-4.78377e-17
5.15104e-10
-4.90737e-17
5.22443e-10
-4.74746e-17
5.22671e-10
-4.40951e-17
5.20306e-10
-4.00052e-17
5.18367e-10
-3.59861e-17
5.18367e-10
-3.32042e-17
5.20306e-10
-3.34609e-17
5.22671e-10
-3.91822e-17
5.22443e-10
-5.17119e-17
5.15104e-10
-7.05985e-17
4.94655e-10
-8.95658e-17
4.53682e-10
-9.80145e-17
3.83521e-10
-7.43297e-17
2.7442e-10
1.14609e-10
-2.13965e-17
1.14609e-10
-2.62587e-17
2.7442e-10
-3.36238e-17
3.83521e-10
-4.26505e-17
4.53682e-10
-5.21251e-17
4.94655e-10
-5.87818e-17
5.15104e-10
-6.13451e-17
5.22443e-10
-6.02197e-17
5.22671e-10
-5.65693e-17
5.20306e-10
-5.14515e-17
5.18367e-10
-4.58923e-17
5.18367e-10
-4.11986e-17
5.20306e-10
-3.89094e-17
5.22671e-10
-4.06008e-17
5.22443e-10
-4.81789e-17
5.15104e-10
-6.05465e-17
4.94655e-10
-7.22476e-17
4.53682e-10
-7.54892e-17
3.83521e-10
-5.18022e-17
2.7442e-10
1.14609e-10
-1.4239e-19
1.14609e-10
-8.32142e-18
2.7442e-10
-2.21934e-17
3.83521e-10
-3.91466e-17
4.53682e-10
-5.47642e-17
4.94655e-10
-6.55049e-17
5.15104e-10
-7.06756e-17
5.22443e-10
-7.07256e-17
5.22671e-10
-6.67601e-17
5.20306e-10
-6.02099e-17
5.18367e-10
-5.26046e-17
5.18367e-10
-4.54106e-17
5.20306e-10
-3.99168e-17
5.22671e-10
-3.77117e-17
5.22443e-10
-4.00453e-17
5.15104e-10
-4.55938e-17
4.94655e-10
-5.12142e-17
4.53682e-10
-5.23154e-17
3.83521e-10
-3.85396e-17
2.7442e-10
1.14609e-10
2.12224e-17
1.14609e-10
1.48021e-17
2.7442e-10
-5.7383e-18
3.83521e-10
-3.13209e-17
4.53682e-10
-5.32646e-17
4.94655e-10
-6.8554e-17
5.15104e-10
-7.65712e-17
5.22443e-10
-7.7678e-17
5.22671e-10
-7.28468e-17
5.20306e-10
-6.43105e-17
5.18367e-10
-5.46261e-17
5.18367e-10
-4.56365e-17
5.20306e-10
-3.77079e-17
5.22671e-10
-3.18402e-17
5.22443e-10
-2.89769e-17
5.15104e-10
-2.80508e-17
4.94655e-10
-2.75898e-17
4.53682e-10
-2.61052e-17
3.83521e-10
-1.87441e-17
2.7442e-10
1.14608e-10
4.42757e-17
1.14609e-10
3.69176e-17
2.7442e-10
8.58103e-18
3.83521e-10
-2.38604e-17
4.53682e-10
-5.06691e-17
4.94655e-10
-6.92191e-17
5.15104e-10
-7.87009e-17
5.22443e-10
-7.9674e-17
5.22671e-10
-7.37807e-17
5.20306e-10
-6.35551e-17
5.18367e-10
-5.20357e-17
5.18367e-10
-4.1646e-17
5.20306e-10
-3.26809e-17
5.22671e-10
-2.41931e-17
5.22443e-10
-1.63566e-17
5.15104e-10
-9.99707e-18
4.94655e-10
-4.52758e-18
4.53682e-10
-4.04647e-19
3.83521e-10
3.76721e-18
2.7442e-10
1.14608e-10
5.14744e-17
1.14609e-10
4.21762e-17
2.7442e-10
1.05347e-17
3.83521e-10
-2.35881e-17
4.53682e-10
-5.12662e-17
4.94655e-10
-6.98648e-17
5.15104e-10
-7.8404e-17
5.22443e-10
-7.77381e-17
5.22671e-10
-6.99778e-17
5.20306e-10
-5.79869e-17
5.18367e-10
-4.48922e-17
5.18367e-10
-3.32368e-17
5.20306e-10
-2.34277e-17
5.22671e-10
-1.34826e-17
5.22443e-10
-2.80325e-18
5.15104e-10
6.885e-18
4.94655e-10
1.46609e-17
4.53682e-10
1.7765e-17
3.83521e-10
1.35604e-17
2.7442e-10
1.14609e-10
3.93938e-17
1.14609e-10
2.56069e-17
2.7442e-10
-4.89625e-18
3.83521e-10
-3.48825e-17
4.53682e-10
-5.84354e-17
4.94655e-10
-7.28752e-17
5.15104e-10
-7.76026e-17
5.22443e-10
-7.36654e-17
5.22671e-10
-6.31977e-17
5.20306e-10
-4.90325e-17
5.18367e-10
-3.41625e-17
5.18367e-10
-2.08372e-17
5.20306e-10
-9.80396e-18
5.22671e-10
8.06749e-19
5.22443e-10
1.2381e-17
5.15104e-10
2.35188e-17
4.94655e-10
3.1737e-17
4.53682e-10
3.34245e-17
3.83521e-10
2.21793e-17
2.7442e-10
1.14609e-10
7.57951e-18
1.14609e-10
-1.18847e-17
2.7442e-10
-3.65916e-17
3.83521e-10
-5.75785e-17
4.53682e-10
-7.23262e-17
4.94655e-10
-7.89667e-17
5.15104e-10
-7.74046e-17
5.22443e-10
-6.87319e-17
5.22671e-10
-5.48687e-17
5.20306e-10
-3.82698e-17
5.18367e-10
-2.1397e-17
5.18367e-10
-6.09058e-18
5.20306e-10
6.6672e-18
5.22671e-10
1.79887e-17
5.22443e-10
2.94735e-17
5.15104e-10
4.04455e-17
4.94655e-10
4.81862e-17
4.53682e-10
4.8437e-17
3.83521e-10
3.18173e-17
2.7442e-10
1.14609e-10
-3.93369e-17
1.14609e-10
-6.25054e-17
2.7442e-10
-7.81151e-17
3.83521e-10
-8.68178e-17
4.53682e-10
-8.95815e-17
4.94655e-10
-8.61253e-17
5.15104e-10
-7.68669e-17
5.22443e-10
-6.2753e-17
5.22671e-10
-4.53266e-17
5.20306e-10
-2.63799e-17
5.18367e-10
-7.60067e-18
5.18367e-10
9.64386e-18
5.20306e-10
2.42199e-17
5.22671e-10
3.60862e-17
5.22443e-10
4.67724e-17
5.15104e-10
5.67771e-17
4.94655e-10
6.41434e-17
4.53682e-10
6.45442e-17
3.83521e-10
4.47129e-17
2.7442e-10
1.14609e-10
-8.66284e-17
1.14609e-10
-1.15355e-16
2.7442e-10
-1.19304e-16
3.83521e-10
-1.14748e-16
4.53682e-10
-1.04693e-16
4.94655e-10
-9.07042e-17
5.15104e-10
-7.36992e-17
5.22443e-10
-5.44947e-17
5.22671e-10
-3.40485e-17
5.20306e-10
-1.33492e-17
5.18367e-10
6.64422e-18
5.18367e-10
2.50029e-17
5.20306e-10
4.06492e-17
5.22671e-10
5.26982e-17
5.22443e-10
6.21975e-17
5.15104e-10
7.0946e-17
4.94655e-10
7.86595e-17
4.53682e-10
8.12747e-17
3.83521e-10
6.09145e-17
2.7442e-10
1.14609e-10
-1.21485e-16
1.14609e-10
-1.52883e-16
2.7442e-10
-1.47757e-16
3.83521e-10
-1.31933e-16
4.53682e-10
-1.10954e-16
4.94655e-10
-8.82321e-17
5.15104e-10
-6.51815e-17
5.22443e-10
-4.24107e-17
5.22671e-10
-2.02169e-17
5.20306e-10
1.06001e-18
5.18367e-10
2.09454e-17
5.18367e-10
3.88977e-17
5.20306e-10
5.4213e-17
5.22671e-10
6.57464e-17
5.22443e-10
7.40705e-17
5.15104e-10
8.16683e-17
4.94655e-10
9.00672e-17
4.53682e-10
9.59745e-17
3.83521e-10
7.7084e-17
2.7442e-10
1.14609e-10
-1.31634e-16
1.14609e-10
-1.62334e-16
2.7442e-10
-1.5245e-16
3.83521e-10
-1.29715e-16
4.53682e-10
-1.02068e-16
4.94655e-10
-7.45485e-17
5.15104e-10
-4.88521e-17
5.22443e-10
-2.51821e-17
5.22671e-10
-3.32965e-18
5.20306e-10
1.67079e-17
5.18367e-10
3.47544e-17
5.18367e-10
5.0628e-17
5.20306e-10
6.40243e-17
5.22671e-10
7.41691e-17
5.22443e-10
8.13937e-17
5.15104e-10
8.78886e-17
4.94655e-10
9.59353e-17
4.53682e-10
1.0338e-16
3.83521e-10
8.591e-17
2.7442e-10
1.14609e-10
-1.13975e-16
1.14609e-10
-1.39097e-16
2.7442e-10
-1.27914e-16
3.83521e-10
-1.02126e-16
4.53682e-10
-7.35174e-17
4.94655e-10
-4.68118e-17
5.15104e-10
-2.31872e-17
5.22443e-10
-2.30024e-18
5.22671e-10
1.63019e-17
5.20305e-10
3.2787e-17
5.18367e-10
4.72241e-17
5.18367e-10
5.96586e-17
5.20306e-10
6.99327e-17
5.22671e-10
7.77156e-17
5.22443e-10
8.32919e-17
5.15104e-10
8.77049e-17
4.94655e-10
9.26888e-17
4.53682e-10
9.66979e-17
3.83521e-10
7.88632e-17
2.7442e-10
1.14609e-10
-7.94715e-17
1.14609e-10
-8.68143e-17
2.7442e-10
-6.9498e-17
3.83521e-10
-4.61874e-17
4.53682e-10
-2.36833e-17
4.94655e-10
-4.57538e-18
5.15104e-10
1.14757e-17
5.22443e-10
2.53562e-17
5.22671e-10
3.75612e-17
5.20305e-10
4.82701e-17
5.18367e-10
5.76228e-17
5.18367e-10
6.56464e-17
5.20306e-10
7.19686e-17
5.22671e-10
7.61929e-17
5.22443e-10
7.84652e-17
5.15104e-10
7.83597e-17
4.94655e-10
7.59507e-17
4.53682e-10
7.07473e-17
3.83521e-10
5.12532e-17
2.7442e-10
1.14609e-10
-2.64155e-17
1.14609e-10
1.20363e-17
2.7442e-10
2.58636e-17
3.83521e-10
3.84776e-17
4.53682e-10
4.49815e-17
4.94655e-10
4.88006e-17
5.15104e-10
5.20279e-17
5.22443e-10
5.53735e-17
5.22671e-10
5.88517e-17
5.20305e-10
6.22722e-17
5.18367e-10
6.55772e-17
5.18367e-10
6.84908e-17
5.20306e-10
7.00809e-17
5.22671e-10
6.94126e-17
5.22443e-10
6.62051e-17
5.15104e-10
5.91161e-17
4.94655e-10
4.62244e-17
4.53682e-10
2.87241e-17
3.83521e-10
7.06868e-18
2.7442e-10
1.14609e-10
1.70686e-16
1.14609e-10
1.78248e-16
2.7442e-10
1.65037e-16
3.83521e-10
1.42425e-16
4.53682e-10
1.20988e-16
4.94655e-10
1.04243e-16
5.15104e-10
9.21223e-17
5.22443e-10
8.38451e-17
5.22671e-10
7.80784e-17
5.20305e-10
7.38604e-17
5.18367e-10
7.07702e-17
5.18367e-10
6.81015e-17
5.20306e-10
6.43838e-17
5.22671e-10
5.81086e-17
5.22443e-10
4.85093e-17
5.15104e-10
3.38091e-17
4.94655e-10
1.18189e-17
4.53682e-10
-1.64971e-17
3.83521e-10
-3.57213e-17
2.7442e-10
1.14609e-10
2.34149e-16
1.14609e-10
2.78703e-16
2.7442e-10
2.5905e-16
3.83521e-10
2.16845e-16
4.53682e-10
1.77839e-16
4.94655e-10
1.46443e-16
5.15104e-10
1.23001e-16
5.22443e-10
1.05734e-16
5.22671e-10
9.2255e-17
5.20306e-10
8.12723e-17
5.18367e-10
7.22413e-17
5.18367e-10
6.42477e-17
5.20306e-10
5.55842e-17
5.22671e-10
4.45132e-17
5.22443e-10
3.0167e-17
5.15104e-10
1.08311e-17
4.94655e-10
-1.66809e-17
4.53682e-10
-4.83137e-17
3.83521e-10
-5.86947e-17
2.7442e-10
1.14609e-10
2.23284e-16
1.14609e-10
2.87943e-16
2.7442e-10
2.76455e-16
3.83521e-10
2.38533e-16
4.53682e-10
1.99365e-16
4.94655e-10
1.65087e-16
5.15104e-10
1.37976e-16
5.22443e-10
1.1631e-16
5.22671e-10
9.79418e-17
5.20306e-10
8.22356e-17
5.18367e-10
6.89122e-17
5.18367e-10
5.71209e-17
5.20306e-10
4.53155e-17
5.22671e-10
3.17998e-17
5.22443e-10
1.52807e-17
5.15104e-10
-2.98303e-18
4.94655e-10
-2.49363e-17
4.53682e-10
-5.2063e-17
3.83521e-10
-5.12109e-17
2.7442e-10
1.14609e-10
1.85397e-16
1.14608e-10
2.23158e-16
2.7442e-10
2.2615e-16
3.83521e-10
2.09686e-16
4.53682e-10
1.84289e-16
4.94655e-10
1.58088e-16
5.15104e-10
1.34344e-16
5.22443e-10
1.12741e-16
5.22671e-10
9.29525e-17
5.20306e-10
7.55346e-17
5.18367e-10
6.06273e-17
5.18367e-10
4.77e-17
5.20306e-10
3.58357e-17
5.22671e-10
2.38231e-17
5.22443e-10
1.01812e-17
5.15104e-10
-3.69364e-18
4.94655e-10
-1.38071e-17
4.53682e-10
-2.41633e-17
3.83521e-10
-2.86244e-17
2.7442e-10
1.14609e-10
4.09283e-17
1.14608e-10
9.53044e-17
2.7442e-10
1.30122e-16
3.83521e-10
1.4525e-16
4.53682e-10
1.42123e-16
4.94655e-10
1.29975e-16
5.15104e-10
1.13636e-16
5.22443e-10
9.54934e-17
5.22671e-10
7.76776e-17
5.20306e-10
6.16518e-17
5.18367e-10
4.78341e-17
5.18367e-10
3.62188e-17
5.20306e-10
2.6849e-17
5.22671e-10
1.94329e-17
5.22443e-10
1.30369e-17
5.15104e-10
7.97278e-18
4.94655e-10
1.01624e-17
4.53682e-10
1.60281e-17
3.83521e-10
1.62085e-17
2.7442e-10
1.14609e-10
-4.49811e-17
1.14608e-10
-7.7922e-19
2.74419e-10
4.57446e-17
3.83521e-10
7.77459e-17
4.53682e-10
9.07538e-17
4.94655e-10
9.03108e-17
5.15104e-10
8.13595e-17
5.22443e-10
6.83483e-17
5.22671e-10
5.47303e-17
5.20306e-10
4.19744e-17
5.18367e-10
3.05941e-17
5.18367e-10
2.11138e-17
5.20306e-10
1.44964e-17
5.22671e-10
1.15484e-17
5.22443e-10
1.19189e-17
5.15104e-10
1.59015e-17
4.94655e-10
2.76906e-17
4.53682e-10
4.13578e-17
3.83521e-10
4.38659e-17
2.7442e-10
1.14609e-10
-6.57769e-17
1.14608e-10
-4.26378e-17
2.74419e-10
-4.44386e-18
3.83521e-10
2.62367e-17
4.53682e-10
4.34032e-17
4.94655e-10
4.82856e-17
5.15104e-10
4.43376e-17
5.22443e-10
3.63657e-17
5.22671e-10
2.72437e-17
5.20306e-10
1.77625e-17
5.18367e-10
8.50113e-18
5.18367e-10
3.75131e-19
5.20306e-10
-5.13234e-18
5.22671e-10
-6.53676e-18
5.22443e-10
-3.35692e-18
5.15104e-10
5.3236e-18
4.94655e-10
1.84274e-17
4.53682e-10
3.19626e-17
3.83521e-10
4.17135e-17
2.7442e-10
1.14609e-10
-4.21798e-17
1.14608e-10
-4.01387e-17
2.74419e-10
-2.36846e-17
3.83521e-10
-6.59383e-18
4.53682e-10
5.12001e-18
4.94655e-10
9.50377e-18
5.15104e-10
7.93094e-18
5.22443e-10
3.60307e-18
5.22671e-10
-2.44125e-18
5.20306e-10
-9.8989e-18
5.18367e-10
-1.80445e-17
5.18367e-10
-2.58737e-17
5.20306e-10
-3.198e-17
5.22671e-10
-3.50137e-17
5.22443e-10
-3.41617e-17
5.15104e-10
-2.89061e-17
4.94655e-10
-2.26032e-17
4.53682e-10
-8.16915e-18
3.83521e-10
1.407e-17
2.7442e-10
1.14609e-10
-9.83771e-18
1.14608e-10
-2.34598e-17
2.74419e-10
-2.91743e-17
3.83521e-10
-2.84578e-17
4.53682e-10
-2.56233e-17
4.94655e-10
-2.44289e-17
5.15104e-10
-2.53284e-17
5.22443e-10
-2.78781e-17
5.22671e-10
-3.26283e-17
5.20306e-10
-3.90786e-17
5.18367e-10
-4.6541e-17
5.18367e-10
-5.42597e-17
5.20306e-10
-6.13267e-17
5.22671e-10
-6.71707e-17
5.22443e-10
-7.14183e-17
5.15104e-10
-7.40234e-17
4.94655e-10
-7.42349e-17
4.53682e-10
-6.54221e-17
3.83521e-10
-4.21689e-17
2.7442e-10
1.14609e-10
5.55727e-18
1.14608e-10
-1.77578e-17
2.74419e-10
-3.83944e-17
3.83521e-10
-4.91196e-17
4.53682e-10
-5.29042e-17
4.94655e-10
-5.41453e-17
5.15104e-10
-5.49207e-17
5.22443e-10
-5.69406e-17
5.22671e-10
-6.10223e-17
5.20306e-10
-6.64185e-17
5.18367e-10
-7.28147e-17
5.18367e-10
-7.97933e-17
5.20306e-10
-8.69001e-17
5.22671e-10
-9.41897e-17
5.22443e-10
-1.01814e-16
5.15104e-10
-1.09431e-16
4.94655e-10
-1.1429e-16
4.53682e-10
-1.08804e-16
3.83521e-10
-8.42273e-17
2.7442e-10
1.14609e-10
-7.27837e-18
1.14608e-10
-3.70964e-17
2.7442e-10
-6.0854e-17
3.83521e-10
-7.41908e-17
4.53682e-10
-7.92923e-17
4.94655e-10
-8.03365e-17
5.15104e-10
-8.04524e-17
5.22443e-10
-8.18922e-17
5.22671e-10
-8.46024e-17
5.20306e-10
-8.82596e-17
5.18367e-10
-9.29867e-17
5.18367e-10
-9.85304e-17
5.20306e-10
-1.04524e-16
5.22671e-10
-1.111e-16
5.22443e-10
-1.18617e-16
5.15104e-10
-1.27204e-16
4.94655e-10
-1.34785e-16
4.53682e-10
-1.32583e-16
3.83521e-10
-1.0637e-16
2.7442e-10
1.14609e-10
-4.24091e-17
1.14609e-10
-7.39713e-17
2.7442e-10
-9.26958e-17
3.83521e-10
-1.01622e-16
4.53682e-10
-1.03537e-16
4.94655e-10
-1.02103e-16
5.15104e-10
-1.00543e-16
5.22443e-10
-1.00335e-16
5.22671e-10
-1.00734e-16
5.20306e-10
-1.02143e-16
5.18367e-10
-1.04835e-16
5.18367e-10
-1.08491e-16
5.20306e-10
-1.12644e-16
5.22671e-10
-1.17047e-16
5.22443e-10
-1.21645e-16
5.15104e-10
-1.26885e-16
4.94655e-10
-1.31961e-16
4.53682e-10
-1.29339e-16
3.83521e-10
-9.8131e-17
2.7442e-10
1.14609e-10
-7.93086e-17
1.14609e-10
-1.1137e-16
2.7442e-10
-1.22598e-16
3.83521e-10
-1.24582e-16
4.53682e-10
-1.21765e-16
4.94655e-10
-1.17097e-16
5.15104e-10
-1.1314e-16
5.22443e-10
-1.10241e-16
5.22671e-10
-1.08017e-16
5.20306e-10
-1.0714e-16
5.18367e-10
-1.07709e-16
5.18367e-10
-1.09315e-16
5.20306e-10
-1.11469e-16
5.22671e-10
-1.13469e-16
5.22443e-10
-1.14506e-16
5.15104e-10
-1.14741e-16
4.94655e-10
-1.14818e-16
4.53682e-10
-1.09731e-16
3.83521e-10
-7.60139e-17
2.7442e-10
1.14609e-10
-1.01704e-16
1.14609e-10
-1.3427e-16
2.7442e-10
-1.39883e-16
3.83521e-10
-1.36465e-16
4.53682e-10
-1.30117e-16
4.94655e-10
-1.22892e-16
5.15104e-10
-1.16555e-16
5.22443e-10
-1.10862e-16
5.22671e-10
-1.06377e-16
5.20306e-10
-1.03534e-16
5.18367e-10
-1.02196e-16
5.18367e-10
-1.01939e-16
5.20306e-10
-1.02322e-16
5.22671e-10
-1.02361e-16
5.22443e-10
-1.00542e-16
5.15104e-10
-9.61697e-17
4.94655e-10
-9.04517e-17
4.53682e-10
-8.12138e-17
3.83521e-10
-5.49635e-17
2.7442e-10
1.14608e-10
-1.02766e-16
1.14609e-10
-1.34896e-16
2.7442e-10
-1.39112e-16
3.83521e-10
-1.34031e-16
4.53682e-10
-1.26748e-16
4.94655e-10
-1.18423e-16
5.15104e-10
-1.10386e-16
5.22443e-10
-1.02844e-16
5.22671e-10
-9.68803e-17
5.20306e-10
-9.27101e-17
5.18367e-10
-9.00172e-17
5.18367e-10
-8.83797e-17
5.20306e-10
-8.73588e-17
5.22671e-10
-8.58142e-17
5.22443e-10
-8.17495e-17
5.15104e-10
-7.3408e-17
4.94655e-10
-6.05225e-17
4.53682e-10
-4.32375e-17
3.83521e-10
-1.85294e-17
2.74419e-10
1.14608e-10
-8.49511e-17
1.14609e-10
-1.14905e-16
2.7442e-10
-1.20811e-16
3.83521e-10
-1.17833e-16
4.53682e-10
-1.12247e-16
4.94655e-10
-1.04363e-16
5.15104e-10
-9.57803e-17
5.22443e-10
-8.79071e-17
5.22671e-10
-8.16163e-17
5.20306e-10
-7.70033e-17
5.18367e-10
-7.36318e-17
5.18367e-10
-7.10904e-17
5.20306e-10
-6.89139e-17
5.22671e-10
-6.59053e-17
5.22443e-10
-6.00404e-17
5.15104e-10
-4.91469e-17
4.94655e-10
-3.15067e-17
4.53682e-10
-8.12726e-18
3.83521e-10
1.48223e-17
2.74419e-10
1.14608e-10
-5.62799e-17
1.14609e-10
-8.07014e-17
2.7442e-10
-8.92979e-17
3.83521e-10
-9.09949e-17
4.53682e-10
-8.85757e-17
4.94655e-10
-8.27165e-17
5.15104e-10
-7.53347e-17
5.22443e-10
-6.87502e-17
5.22671e-10
-6.33633e-17
5.20306e-10
-5.90144e-17
5.18367e-10
-5.52745e-17
5.18367e-10
-5.19087e-17
5.20306e-10
-4.85167e-17
5.22671e-10
-4.4039e-17
5.22443e-10
-3.6957e-17
5.15104e-10
-2.59127e-17
4.94655e-10
-9.84334e-18
4.53682e-10
8.57076e-18
3.83521e-10
1.73151e-17
2.74419e-10
1.14608e-10
-2.36313e-17
1.14609e-10
-3.95868e-17
2.7442e-10
-5.01395e-17
3.83521e-10
-5.70608e-17
4.53682e-10
-5.8569e-17
4.94655e-10
-5.63893e-17
5.15104e-10
-5.22037e-17
5.22443e-10
-4.81484e-17
5.22671e-10
-4.4314e-17
5.20306e-10
-4.03326e-17
5.18367e-10
-3.60502e-17
5.18367e-10
-3.15849e-17
5.20306e-10
-2.6776e-17
5.22671e-10
-2.08951e-17
5.22443e-10
-1.31172e-17
5.15104e-10
-3.37382e-18
4.94655e-10
7.34115e-18
4.53682e-10
1.52998e-17
3.83521e-10
1.0051e-17
2.74419e-10
1.14608e-10
8.7252e-18
1.14609e-10
1.24239e-18
2.7442e-10
-1.01785e-17
3.83521e-10
-2.11122e-17
4.53682e-10
-2.67778e-17
4.94655e-10
-2.8998e-17
5.15104e-10
-2.8913e-17
5.22443e-10
-2.7603e-17
5.22671e-10
-2.5082e-17
5.20306e-10
-2.11599e-17
5.18367e-10
-1.61134e-17
5.18367e-10
-1.04281e-17
5.20306e-10
-4.25528e-18
5.22671e-10
2.69632e-18
5.22443e-10
1.066e-17
5.15104e-10
1.8797e-17
4.94655e-10
2.44198e-17
4.53682e-10
2.27092e-17
3.83521e-10
8.13392e-18
2.74419e-10
1.14608e-10
3.38035e-17
1.14609e-10
3.47304e-17
2.7442e-10
2.27205e-17
3.83521e-10
9.61493e-18
4.53682e-10
1.17992e-18
4.94655e-10
-4.16996e-18
5.15104e-10
-6.95924e-18
5.22443e-10
-7.38046e-18
5.22671e-10
-5.44204e-18
5.20306e-10
-1.32953e-18
5.18367e-10
4.36175e-18
5.18367e-10
1.09563e-17
5.20306e-10
1.80943e-17
5.22671e-10
2.56728e-17
5.22443e-10
3.35195e-17
5.15104e-10
4.06482e-17
4.94655e-10
4.4032e-17
4.53682e-10
3.86115e-17
3.83521e-10
1.99065e-17
2.7442e-10
1.14609e-10
5.21817e-17
1.14609e-10
5.59595e-17
2.7442e-10
4.26933e-17
3.83521e-10
3.01384e-17
4.53682e-10
2.17666e-17
4.94655e-10
1.61125e-17
5.15104e-10
1.29081e-17
5.22443e-10
1.22854e-17
5.22671e-10
1.43093e-17
5.20306e-10
1.86314e-17
5.18367e-10
2.45869e-17
5.18367e-10
3.15477e-17
5.20306e-10
3.91283e-17
5.22671e-10
4.69809e-17
5.22443e-10
5.4642e-17
5.15104e-10
6.14248e-17
4.94655e-10
6.48631e-17
4.53682e-10
5.97628e-17
3.83521e-10
4.00561e-17
2.7442e-10
1.14609e-10
6.15085e-17
1.14609e-10
5.78284e-17
2.7442e-10
4.67331e-17
3.83521e-10
3.89883e-17
4.53682e-10
3.42513e-17
4.94655e-10
3.14699e-17
5.15104e-10
3.00324e-17
5.22443e-10
3.03776e-17
5.22671e-10
3.28712e-17
5.20306e-10
3.73195e-17
5.18367e-10
4.31737e-17
5.18367e-10
5.00137e-17
5.20306e-10
5.75891e-17
5.22671e-10
6.54002e-17
5.22443e-10
7.26866e-17
5.15104e-10
7.89305e-17
4.94655e-10
8.23724e-17
4.53682e-10
7.79089e-17
3.83521e-10
5.75918e-17
2.7442e-10
1.14609e-10
2.37924e-17
1.14609e-10
3.03068e-17
2.7442e-10
3.34612e-17
3.83521e-10
3.67423e-17
4.53682e-10
3.98991e-17
4.94655e-10
4.22602e-17
5.15104e-10
4.37053e-17
5.22443e-10
4.5492e-17
5.22671e-10
4.85345e-17
5.20306e-10
5.2947e-17
5.18367e-10
5.84282e-17
5.18367e-10
6.48368e-17
5.20306e-10
7.20432e-17
5.22671e-10
7.93818e-17
5.22443e-10
8.57099e-17
5.15104e-10
9.01733e-17
4.94655e-10
9.13244e-17
4.53682e-10
8.51212e-17
3.83521e-10
6.34112e-17
2.7442e-10
1.14609e-10
-1.54116e-17
1.14609e-10
1.42836e-18
2.7442e-10
1.69093e-17
3.83521e-10
3.17493e-17
4.53682e-10
4.30709e-17
4.94655e-10
5.0076e-17
5.15104e-10
5.39381e-17
5.22443e-10
5.67952e-17
5.22671e-10
6.00561e-17
5.20306e-10
6.41608e-17
5.18367e-10
6.91202e-17
5.18367e-10
7.49586e-17
5.20306e-10
8.14878e-17
5.22671e-10
8.78281e-17
5.22443e-10
9.24466e-17
5.15104e-10
9.37044e-17
4.94655e-10
8.99721e-17
4.53682e-10
7.92755e-17
3.83521e-10
5.54596e-17
2.7442e-10
1.14609e-10
-2.85256e-17
1.14609e-10
-1.24443e-17
2.7442e-10
1.18949e-17
3.83521e-10
3.36502e-17
4.53682e-10
4.88339e-17
4.94655e-10
5.73675e-17
5.15104e-10
6.17304e-17
5.22443e-10
6.45345e-17
5.22671e-10
6.73749e-17
5.20306e-10
7.08949e-17
5.18367e-10
7.52688e-17
5.18367e-10
8.04406e-17
5.20306e-10
8.59903e-17
5.22671e-10
9.08534e-17
5.22443e-10
9.32764e-17
5.15104e-10
9.08953e-17
4.94655e-10
8.17169e-17
4.53682e-10
6.58054e-17
3.83521e-10
4.0468e-17
2.7442e-10
1.14609e-10
-2.94401e-17
1.14609e-10
1.18932e-18
2.7442e-10
2.83937e-17
3.83521e-10
4.92247e-17
4.53682e-10
6.10726e-17
4.94655e-10
6.63483e-17
5.15104e-10
6.84718e-17
5.22443e-10
6.97444e-17
5.22671e-10
7.14367e-17
5.20306e-10
7.4056e-17
5.18367e-10
7.7645e-17
5.18367e-10
8.19003e-17
5.20306e-10
8.61453e-17
5.22671e-10
8.92521e-17
5.22443e-10
8.95669e-17
5.15104e-10
8.46528e-17
4.94655e-10
7.24397e-17
4.53682e-10
5.36741e-17
3.83521e-10
2.89124e-17
2.7442e-10
1.14609e-10
3.78371e-17
1.14609e-10
6.05821e-17
2.7442e-10
7.58459e-17
3.83521e-10
8.11485e-17
4.53682e-10
8.00357e-17
4.94655e-10
7.7195e-17
5.15104e-10
7.45695e-17
5.22443e-10
7.30296e-17
5.22671e-10
7.28805e-17
5.20306e-10
7.40972e-17
5.18367e-10
7.64147e-17
5.18367e-10
7.93218e-17
5.20306e-10
8.20231e-17
5.22671e-10
8.34942e-17
5.22443e-10
8.24815e-17
5.15104e-10
7.72865e-17
4.94655e-10
6.63322e-17
4.53682e-10
4.93433e-17
3.83521e-10
2.76988e-17
2.7442e-10
1.14609e-10
9.93211e-17
1.14609e-10
1.25838e-16
2.7442e-10
1.26099e-16
3.83521e-10
1.12429e-16
4.53682e-10
9.71951e-17
4.94655e-10
8.56779e-17
5.15104e-10
7.80374e-17
5.22443e-10
7.3424e-17
5.22671e-10
7.10425e-17
5.20306e-10
7.03224e-17
5.18367e-10
7.08197e-17
5.18367e-10
7.20227e-17
5.20306e-10
7.32352e-17
5.22671e-10
7.36785e-17
5.22443e-10
7.25941e-17
5.15104e-10
6.93189e-17
4.94655e-10
6.30681e-17
4.53682e-10
5.16729e-17
3.83521e-10
3.4125e-17
2.7442e-10
1.14609e-10
1.28157e-16
1.14609e-10
1.56303e-16
2.7442e-10
1.47319e-16
3.83521e-10
1.23527e-16
4.53682e-10
1.01641e-16
4.94655e-10
8.59949e-17
5.15104e-10
7.57574e-17
5.22443e-10
6.91031e-17
5.22671e-10
6.4737e-17
5.20306e-10
6.19936e-17
5.18367e-10
6.05585e-17
5.18367e-10
6.01188e-17
5.20306e-10
6.02282e-17
5.22671e-10
6.04064e-17
5.22443e-10
6.02779e-17
5.15104e-10
5.97884e-17
4.94655e-10
5.85642e-17
4.53682e-10
5.30272e-17
3.83521e-10
3.89607e-17
2.7442e-10
1.14609e-10
1.12642e-16
1.14609e-10
1.35489e-16
2.7442e-10
1.26412e-16
3.83521e-10
1.06404e-16
4.53682e-10
8.83081e-17
4.94655e-10
7.52453e-17
5.15104e-10
6.60942e-17
5.22443e-10
5.92752e-17
5.22671e-10
5.39507e-17
5.20306e-10
4.99059e-17
5.18367e-10
4.71462e-17
5.18367e-10
4.55979e-17
5.20306e-10
4.50535e-17
5.22671e-10
4.52774e-17
5.22443e-10
4.61047e-17
5.15104e-10
4.7478e-17
4.94655e-10
4.8836e-17
4.53682e-10
4.64121e-17
3.83521e-10
3.46417e-17
2.7442e-10
1.14609e-10
3.89317e-17
1.14608e-10
6.518e-17
2.7442e-10
7.03627e-17
3.83521e-10
6.64665e-17
4.53682e-10
6.06816e-17
4.94655e-10
5.53291e-17
5.15104e-10
5.0203e-17
5.22443e-10
4.51088e-17
5.22671e-10
4.03438e-17
5.20306e-10
3.63227e-17
5.18367e-10
3.32999e-17
5.18367e-10
3.13408e-17
5.20306e-10
3.034e-17
5.22671e-10
3.01863e-17
5.22443e-10
3.08445e-17
5.15104e-10
3.21246e-17
4.94655e-10
3.32065e-17
4.53682e-10
3.10237e-17
3.83521e-10
2.10333e-17
2.7442e-10
1.14609e-10
-6.43815e-18
1.14608e-10
2.97102e-18
2.7442e-10
1.36131e-17
3.83521e-10
2.28725e-17
4.53682e-10
2.90231e-17
4.94655e-10
3.14883e-17
5.15104e-10
3.09879e-17
5.22443e-10
2.87458e-17
5.22671e-10
2.59085e-17
5.20306e-10
2.31652e-17
5.18367e-10
2.08287e-17
5.18367e-10
1.89733e-17
5.20306e-10
1.74483e-17
5.22671e-10
1.61702e-17
5.22443e-10
1.52738e-17
5.15104e-10
1.47887e-17
4.94655e-10
1.41961e-17
4.53682e-10
1.16126e-17
3.83521e-10
4.2516e-18
2.7442e-10
1.14609e-10
-4.31632e-17
1.14609e-10
-4.27077e-17
2.7442e-10
-2.94118e-17
3.83521e-10
-1.24374e-17
4.53682e-10
4.34631e-19
4.94655e-10
7.64573e-18
5.15104e-10
1.07443e-17
5.22443e-10
1.16666e-17
5.22671e-10
1.14892e-17
5.20306e-10
1.07166e-17
5.18367e-10
9.60084e-18
5.18367e-10
8.10047e-18
5.20306e-10
5.93837e-18
5.22671e-10
3.08445e-18
5.22443e-10
-5.26105e-20
5.15104e-10
-2.96479e-18
4.94655e-10
-5.31999e-18
4.53682e-10
-7.32906e-18
3.83521e-10
-9.69196e-18
2.7442e-10
1.14609e-10
-5.68568e-17
1.14609e-10
-6.39129e-17
2.7442e-10
-5.24671e-17
3.83521e-10
-3.55378e-17
4.53682e-10
-2.24815e-17
4.94655e-10
-1.43812e-17
5.15104e-10
-9.13381e-18
5.22443e-10
-5.38917e-18
5.22671e-10
-2.94325e-18
5.20306e-10
-1.68158e-18
5.18367e-10
-1.50125e-18
5.18367e-10
-2.63452e-18
5.20306e-10
-5.40689e-18
5.22671e-10
-9.69465e-18
5.22443e-10
-1.48138e-17
5.15104e-10
-1.99826e-17
4.94655e-10
-2.40445e-17
4.53682e-10
-2.50279e-17
3.83521e-10
-2.07534e-17
2.7442e-10
1.14609e-10
-5.10195e-17
1.14609e-10
-6.41715e-17
2.7442e-10
-5.87551e-17
3.83521e-10
-4.81969e-17
4.53682e-10
-3.98074e-17
4.94655e-10
-3.3374e-17
5.15104e-10
-2.72118e-17
5.22443e-10
-2.15693e-17
5.22671e-10
-1.72513e-17
5.20306e-10
-1.44997e-17
5.18367e-10
-1.33741e-17
5.18367e-10
-1.41272e-17
5.20306e-10
-1.70257e-17
5.22671e-10
-2.18921e-17
5.22443e-10
-2.80674e-17
5.15104e-10
-3.49104e-17
4.94655e-10
-4.09464e-17
4.53682e-10
-4.2034e-17
3.83521e-10
-3.21835e-17
2.7442e-10
1.14609e-10
-3.78971e-17
1.14609e-10
-5.43587e-17
2.7442e-10
-5.61105e-17
3.83521e-10
-5.42884e-17
4.53682e-10
-5.19671e-17
4.94655e-10
-4.78489e-17
5.15104e-10
-4.17978e-17
5.22443e-10
-3.56068e-17
5.22671e-10
-3.05912e-17
5.20306e-10
-2.71142e-17
5.18367e-10
-2.5277e-17
5.18367e-10
-2.52733e-17
5.20306e-10
-2.72806e-17
5.22671e-10
-3.13882e-17
5.22443e-10
-3.73808e-17
5.15104e-10
-4.49374e-17
4.94655e-10
-5.29102e-17
4.53682e-10
-5.58883e-17
3.83521e-10
-4.40227e-17
2.7442e-10
1.14609e-10
-2.64928e-17
1.14609e-10
-4.35017e-17
2.7442e-10
-5.13447e-17
3.83521e-10
-5.70631e-17
4.53682e-10
-5.92871e-17
4.94655e-10
-5.70502e-17
5.15104e-10
-5.19946e-17
5.22443e-10
-4.64268e-17
5.22671e-10
-4.15706e-17
5.20306e-10
-3.77268e-17
5.18367e-10
-3.50033e-17
5.18367e-10
-3.36712e-17
5.20306e-10
-3.36993e-17
5.22671e-10
-3.56974e-17
5.22443e-10
-4.00271e-17
5.15104e-10
-4.6587e-17
4.94655e-10
-5.49833e-17
4.53682e-10
-6.0328e-17
3.83521e-10
-5.0081e-17
2.7442e-10
1.14609e-10
-1.86663e-17
1.14609e-10
-3.61855e-17
2.7442e-10
-4.90123e-17
3.83521e-10
-5.92298e-17
4.53682e-10
-6.3432e-17
4.94655e-10
-6.23829e-17
5.15104e-10
-5.85854e-17
5.22443e-10
-5.37466e-17
5.22671e-10
-4.89764e-17
5.20306e-10
-4.48589e-17
5.18367e-10
-4.1302e-17
5.18367e-10
-3.80871e-17
5.20306e-10
-3.55679e-17
5.22671e-10
-3.44619e-17
5.22443e-10
-3.51968e-17
5.15104e-10
-3.79293e-17
4.94655e-10
-4.28981e-17
4.53682e-10
-4.75678e-17
3.83521e-10
-4.12192e-17
2.7442e-10
1.14609e-10
-1.51322e-17
1.14609e-10
-3.52612e-17
2.7442e-10
-5.30446e-17
3.83521e-10
-6.41351e-17
4.53682e-10
-6.79556e-17
4.94655e-10
-6.70544e-17
5.15104e-10
-6.36831e-17
5.22443e-10
-5.89572e-17
5.22671e-10
-5.37794e-17
5.20306e-10
-4.88889e-17
5.18367e-10
-4.42192e-17
5.18367e-10
-3.93044e-17
5.20306e-10
-3.4387e-17
5.22671e-10
-2.93472e-17
5.22443e-10
-2.43999e-17
5.15104e-10
-1.99185e-17
4.94655e-10
-1.61029e-17
4.53682e-10
-1.43794e-17
3.83521e-10
-1.228e-17
2.7442e-10
1.14609e-10
-2.15314e-17
1.14609e-10
-4.99691e-17
2.7442e-10
-6.67696e-17
3.83521e-10
-7.5059e-17
4.53682e-10
-7.63707e-17
4.94655e-10
-7.3976e-17
5.15104e-10
-6.94104e-17
5.22443e-10
-6.37708e-17
5.22671e-10
-5.80148e-17
5.20306e-10
-5.22001e-17
5.18367e-10
-4.61247e-17
5.18367e-10
-3.95865e-17
5.20306e-10
-3.19183e-17
5.22671e-10
-2.23487e-17
5.22443e-10
-1.07688e-17
5.15104e-10
2.97388e-18
4.94655e-10
1.88869e-17
4.53682e-10
3.09171e-17
3.83521e-10
3.10908e-17
2.7442e-10
1.14609e-10
-4.17733e-17
1.14609e-10
-7.06997e-17
2.7442e-10
-8.72358e-17
3.83521e-10
-9.104e-17
4.53682e-10
-8.84313e-17
4.94655e-10
-8.31164e-17
5.15104e-10
-7.66248e-17
5.22443e-10
-6.9875e-17
5.22671e-10
-6.30248e-17
5.20306e-10
-5.58219e-17
5.18367e-10
-4.80993e-17
5.18367e-10
-3.95583e-17
5.20306e-10
-2.93921e-17
5.22671e-10
-1.639e-17
5.22443e-10
4.91095e-19
5.15104e-10
2.1886e-17
4.94655e-10
4.72182e-17
4.53682e-10
6.80116e-17
3.83521e-10
6.65354e-17
2.7442e-10
1.14609e-10
-7.1505e-17
1.14609e-10
-1.00375e-16
2.7442e-10
-1.08918e-16
3.83521e-10
-1.06572e-16
4.53682e-10
-9.94628e-17
4.94655e-10
-9.10696e-17
5.15104e-10
-8.2768e-17
5.22443e-10
-7.49081e-17
5.22671e-10
-6.69786e-17
5.20306e-10
-5.86177e-17
5.18367e-10
-4.98615e-17
5.18367e-10
-4.0453e-17
5.20306e-10
-2.94642e-17
5.22671e-10
-1.554e-17
5.22443e-10
2.72371e-18
5.15104e-10
2.59734e-17
4.94655e-10
5.25154e-17
4.53682e-10
7.53558e-17
3.83521e-10
7.34132e-17
2.7442e-10
1.14609e-10
-8.9954e-17
1.14609e-10
-1.13892e-16
2.7442e-10
-1.16502e-16
3.83521e-10
-1.10234e-16
4.53682e-10
-1.01026e-16
4.94655e-10
-9.15712e-17
5.15104e-10
-8.29493e-17
5.22443e-10
-7.50495e-17
5.22671e-10
-6.72573e-17
5.20306e-10
-5.9425e-17
5.18367e-10
-5.16082e-17
5.18367e-10
-4.34814e-17
5.20306e-10
-3.42212e-17
5.22671e-10
-2.28368e-17
5.22443e-10
-8.31195e-18
5.15104e-10
9.77439e-18
4.94655e-10
2.93901e-17
4.53682e-10
4.71426e-17
3.83521e-10
4.64798e-17
2.7442e-10
1.14609e-10
-7.49059e-17
1.14609e-10
-9.69181e-17
2.7442e-10
-9.91393e-17
3.83521e-10
-9.36155e-17
4.53682e-10
-8.69311e-17
4.94655e-10
-8.00603e-17
5.15104e-10
-7.39364e-17