/*--------------------------------*- C++ -*----------------------------------*\
| =========                 |                                                 |
| \\      /  F ield         | OpenFOAM: The Open Source CFD Toolbox           |
|  \\    /   O peration     | Version:  5.x                                   |
|   \\  /    A nd           | Web:      www.OpenFOAM.org                      |
|    \\/     M anipulation  |                                                 |
\*---------------------------------------------------------------------------*/
FoamFile
{
    version     2.0;
    format      ascii;
    class       volVectorField;
    location    "0.25";
    object      U;
}
// * * * * * * * * * * * * * * * * * * * * * * * * * * * * * * * * * * * * * //

dimensions      [0 1 -1 0 0 0 0];

internalField   nonuniform List<vector> 
8000
(
(5.02309e-11 0.00229217 0)
(7.05632e-11 0.00548839 0)
(-1.87042e-12 0.00767042 0)
(-5.53445e-11 0.00907364 0)
(-8.77695e-11 0.00989311 0)
(-1.06154e-10 0.0103021 0)
(-1.13582e-10 0.0104489 0)
(-1.12387e-10 0.0104534 0)
(-1.05514e-10 0.0104061 0)
(-9.56489e-11 0.0103673 0)
(-8.61137e-11 0.0103673 0)
(-8.17915e-11 0.0104061 0)
(-8.96247e-11 0.0104534 0)
(-1.18901e-10 0.0104489 0)
(-1.81668e-10 0.0103021 0)
(-2.89653e-10 0.00989311 0)
(-4.45866e-10 0.00907365 0)
(-6.05721e-10 0.00767042 0)
(-6.48835e-10 0.00548839 0)
(-1.80341e-10 0.00229218 0)
(1.95891e-11 0.00229217 0)
(-3.76962e-11 0.00548839 0)
(-1.51921e-10 0.00767042 0)
(-2.46868e-10 0.00907364 0)
(-3.14629e-10 0.00989311 0)
(-3.58098e-10 0.0103021 0)
(-3.76562e-10 0.0104489 0)
(-3.71696e-10 0.0104534 0)
(-3.4916e-10 0.0104061 0)
(-3.16014e-10 0.0103673 0)
(-2.82446e-10 0.0103673 0)
(-2.62973e-10 0.0104061 0)
(-2.7799e-10 0.0104534 0)
(-3.53283e-10 0.0104489 0)
(-5.20883e-10 0.0103021 0)
(-8.12235e-10 0.00989311 0)
(-1.23643e-09 0.00907365 0)
(-1.71676e-09 0.00767042 0)
(-2.1571e-09 0.00548839 0)
(-8.3364e-10 0.00229218 0)
(-1.25154e-10 0.00229217 0)
(-3.78863e-10 0.00548839 0)
(-4.34512e-10 0.00767042 0)
(-5.10588e-10 0.00907364 0)
(-5.88581e-10 0.00989311 0)
(-6.52545e-10 0.0103021 0)
(-6.84281e-10 0.0104489 0)
(-6.76346e-10 0.0104534 0)
(-6.36275e-10 0.0104061 0)
(-5.77237e-10 0.0103673 0)
(-5.15073e-10 0.0103673 0)
(-4.70244e-10 0.0104061 0)
(-4.71809e-10 0.0104534 0)
(-5.58697e-10 0.0104489 0)
(-7.71977e-10 0.0103021 0)
(-1.14347e-09 0.00989311 0)
(-1.64929e-09 0.00907365 0)
(-2.16493e-09 0.00767042 0)
(-2.58825e-09 0.00548839 0)
(-9.57367e-10 0.00229217 0)
(-2.18339e-10 0.00229217 0)
(-6.12837e-10 0.00548839 0)
(-6.38468e-10 0.00767042 0)
(-7.17916e-10 0.00907364 0)
(-8.26831e-10 0.00989311 0)
(-9.29078e-10 0.0103021 0)
(-9.84302e-10 0.0104489 0)
(-9.78012e-10 0.0104534 0)
(-9.23558e-10 0.0104061 0)
(-8.43646e-10 0.0103673 0)
(-7.56501e-10 0.0103673 0)
(-6.80799e-10 0.0104061 0)
(-6.46294e-10 0.0104534 0)
(-6.97001e-10 0.0104489 0)
(-8.76532e-10 0.0103021 0)
(-1.20311e-09 0.00989311 0)
(-1.61875e-09 0.00907365 0)
(-1.97771e-09 0.00767042 0)
(-2.05956e-09 0.00548839 0)
(-6.28534e-10 0.00229217 0)
(-1.78869e-10 0.00229217 0)
(-5.16849e-10 0.00548839 0)
(-5.97189e-10 0.00767042 0)
(-7.59692e-10 0.00907364 0)
(-9.57146e-10 0.00989311 0)
(-1.12825e-09 0.0103021 0)
(-1.2229e-09 0.0104489 0)
(-1.23368e-09 0.0104534 0)
(-1.17969e-09 0.0104061 0)
(-1.08552e-09 0.0103673 0)
(-9.72126e-10 0.0103673 0)
(-8.62107e-10 0.0104061 0)
(-7.83213e-10 0.0104534 0)
(-7.69171e-10 0.0104489 0)
(-8.6126e-10 0.0103021 0)
(-1.07457e-09 0.00989311 0)
(-1.34871e-09 0.00907365 0)
(-1.56458e-09 0.00767042 0)
(-1.49325e-09 0.00548839 0)
(-4.08333e-10 0.00229217 0)
(1.69041e-11 0.00229218 0)
(-4.70097e-11 0.00548839 0)
(-2.8055e-10 0.00767042 0)
(-6.12027e-10 0.00907364 0)
(-9.56609e-10 0.00989311 0)
(-1.23053e-09 0.0103021 0)
(-1.39111e-09 0.0104489 0)
(-1.43897e-09 0.0104534 0)
(-1.39252e-09 0.0104061 0)
(-1.2787e-09 0.0103673 0)
(-1.12848e-09 0.0103673 0)
(-9.73111e-10 0.0104061 0)
(-8.39606e-10 0.0104534 0)
(-7.56456e-10 0.0104489 0)
(-7.57271e-10 0.0103021 0)
(-8.46639e-10 0.00989311 0)
(-9.80604e-10 0.00907365 0)
(-1.09663e-09 0.00767042 0)
(-1.05165e-09 0.00548839 0)
(-3.09003e-10 0.00229217 0)
(2.10571e-10 0.00229217 0)
(5.00473e-10 0.00548839 0)
(1.3872e-10 0.00767042 0)
(-3.72543e-10 0.00907364 0)
(-8.72758e-10 0.00989311 0)
(-1.25529e-09 0.0103021 0)
(-1.48893e-09 0.0104489 0)
(-1.57509e-09 0.0104534 0)
(-1.52884e-09 0.0104061 0)
(-1.38381e-09 0.0103673 0)
(-1.19062e-09 0.0103673 0)
(-9.96285e-10 0.0104061 0)
(-8.23096e-10 0.0104534 0)
(-6.82521e-10 0.0104489 0)
(-5.95137e-10 0.0103021 0)
(-5.62891e-10 0.00989311 0)
(-5.59773e-10 0.00907365 0)
(-5.63517e-10 0.00767042 0)
(-5.10143e-10 0.00548839 0)
(-1.43786e-10 0.00229217 0)
(4.35717e-10 0.00229217 0)
(1.05529e-09 0.00548839 0)
(5.23553e-10 0.00767042 0)
(-1.59622e-10 0.00907365 0)
(-7.8129e-10 0.00989311 0)
(-1.24377e-09 0.0103021 0)
(-1.52385e-09 0.0104489 0)
(-1.62256e-09 0.0104534 0)
(-1.56243e-09 0.0104061 0)
(-1.38686e-09 0.0103673 0)
(-1.15622e-09 0.0103673 0)
(-9.30193e-10 0.0104061 0)
(-7.36016e-10 0.0104534 0)
(-5.62185e-10 0.0104489 0)
(-3.9923e-10 0.0103021 0)
(-2.58479e-10 0.00989311 0)
(-1.40374e-10 0.00907365 0)
(-4.13375e-11 0.00767042 0)
(4.46175e-11 0.00548839 0)
(4.31867e-11 0.00229217 0)
(5.11507e-10 0.00229217 0)
(1.2215e-09 0.00548839 0)
(5.96981e-10 0.00767042 0)
(-1.44398e-10 0.00907365 0)
(-7.89812e-10 0.00989311 0)
(-1.26013e-09 0.0103021 0)
(-1.53072e-09 0.0104489 0)
(-1.60234e-09 0.0104534 0)
(-1.50573e-09 0.0104061 0)
(-1.29281e-09 0.0103673 0)
(-1.02784e-09 0.0103673 0)
(-7.73208e-10 0.0104061 0)
(-5.60343e-10 0.0104534 0)
(-3.67161e-10 0.0104489 0)
(-1.60989e-10 0.0103021 0)
(4.61944e-11 0.00989311 0)
(2.28223e-10 0.00907365 0)
(3.54999e-10 0.00767042 0)
(3.73792e-10 0.00548839 0)
(1.11472e-10 0.00229217 0)
(4.02765e-10 0.00229217 0)
(8.80968e-10 0.00548839 0)
(2.59179e-10 0.00767042 0)
(-4.17501e-10 0.00907365 0)
(-9.74792e-10 0.00989311 0)
(-1.36068e-09 0.0103021 0)
(-1.55102e-09 0.0104489 0)
(-1.55106e-09 0.0104534 0)
(-1.39445e-09 0.0104061 0)
(-1.13341e-09 0.0103673 0)
(-8.29675e-10 0.0103673 0)
(-5.40457e-10 0.0104061 0)
(-2.98894e-10 0.0104534 0)
(-8.8522e-11 0.0104489 0)
(1.32554e-10 0.0103021 0)
(3.65443e-10 0.00989311 0)
(5.72487e-10 0.00907365 0)
(7.00935e-10 0.00767042 0)
(6.49238e-10 0.00548839 0)
(1.711e-10 0.00229217 0)
(1.10956e-10 0.00229217 0)
(4.09642e-11 0.00548839 0)
(-4.69161e-10 0.00767042 0)
(-9.65828e-10 0.00907365 0)
(-1.33669e-09 0.00989311 0)
(-1.55427e-09 0.0103021 0)
(-1.6028e-09 0.0104489 0)
(-1.49285e-09 0.0104534 0)
(-1.25634e-09 0.0104061 0)
(-9.3924e-10 0.0103673 0)
(-5.93231e-10 0.0103673 0)
(-2.64359e-10 0.0104061 0)
(1.60397e-11 0.0104534 0)
(2.51329e-10 0.0104489 0)
(4.76788e-10 0.0103021 0)
(7.06135e-10 0.00989311 0)
(9.0884e-10 0.00907365 0)
(1.0291e-09 0.00767042 0)
(9.328e-10 0.00548839 0)
(2.44618e-10 0.00229217 0)
(-3.02537e-10 0.00229217 0)
(-1.12952e-09 0.00548839 0)
(-1.44328e-09 0.00767042 0)
(-1.67633e-09 0.00907365 0)
(-1.79449e-09 0.00989311 0)
(-1.78831e-09 0.0103021 0)
(-1.65786e-09 0.0104489 0)
(-1.41764e-09 0.0104534 0)
(-1.09372e-09 0.0104061 0)
(-7.20806e-10 0.0103673 0)
(-3.3512e-10 0.0103673 0)
(3.15586e-11 0.0104061 0)
(3.51813e-10 0.0104534 0)
(6.12799e-10 0.0104489 0)
(8.33902e-10 0.0103021 0)
(1.0414e-09 0.00989311 0)
(1.22881e-09 0.00907365 0)
(1.3588e-09 0.00767042 0)
(1.27618e-09 0.00548839 0)
(3.55493e-10 0.00229217 0)
(-7.48628e-10 0.00229217 0)
(-2.35612e-09 0.00548839 0)
(-2.43045e-09 0.00767043 0)
(-2.3699e-09 0.00907365 0)
(-2.21631e-09 0.00989311 0)
(-1.97296e-09 0.0103021 0)
(-1.65889e-09 0.0104489 0)
(-1.29204e-09 0.0104534 0)
(-8.90153e-10 0.0104061 0)
(-4.73072e-10 0.0103673 0)
(-6.0729e-11 0.0103673 0)
(3.28044e-10 0.0104061 0)
(6.71863e-10 0.0104534 0)
(9.47534e-10 0.0104489 0)
(1.15689e-09 0.0103021 0)
(1.33421e-09 0.00989311 0)
(1.50746e-09 0.00907365 0)
(1.67564e-09 0.00767042 0)
(1.67817e-09 0.00548839 0)
(5.09016e-10 0.00229217 0)
(-1.09341e-09 0.00229218 0)
(-3.25974e-09 0.00548839 0)
(-3.11974e-09 0.00767043 0)
(-2.82727e-09 0.00907365 0)
(-2.4433e-09 0.00989311 0)
(-1.99901e-09 0.0103021 0)
(-1.5364e-09 0.0104489 0)
(-1.07541e-09 0.0104534 0)
(-6.23409e-10 0.0104061 0)
(-1.86103e-10 0.0103673 0)
(2.28355e-10 0.0103673 0)
(6.10324e-10 0.0104061 0)
(9.46954e-10 0.0104534 0)
(1.21548e-09 0.0104489 0)
(1.40705e-09 0.0103021 0)
(1.55613e-09 0.00989311 0)
(1.71874e-09 0.00907365 0)
(1.93622e-09 0.00767042 0)
(2.0615e-09 0.00548839 0)
(6.73739e-10 0.00229217 0)
(-1.19595e-09 0.00229218 0)
(-3.52175e-09 0.00548839 0)
(-3.27196e-09 0.00767042 0)
(-2.85368e-09 0.00907365 0)
(-2.32607e-09 0.00989311 0)
(-1.76337e-09 0.0103021 0)
(-1.22642e-09 0.0104489 0)
(-7.32031e-10 0.0104534 0)
(-2.76826e-10 0.0104061 0)
(1.42594e-10 0.0103673 0)
(5.24435e-10 0.0103673 0)
(8.65469e-10 0.0104061 0)
(1.16102e-09 0.0104534 0)
(1.39678e-09 0.0104489 0)
(1.56416e-09 0.0103021 0)
(1.68974e-09 0.00989311 0)
(1.83418e-09 0.00907365 0)
(2.06588e-09 0.00767042 0)
(2.25959e-09 0.00548839 0)
(7.68807e-10 0.00229218 0)
(-1.02797e-09 0.00229218 0)
(-3.0526e-09 0.00548839 0)
(-2.78207e-09 0.00767042 0)
(-2.32715e-09 0.00907365 0)
(-1.75813e-09 0.00989311 0)
(-1.19316e-09 0.0103021 0)
(-6.87074e-10 0.0104489 0)
(-2.43329e-10 0.0104534 0)
(1.50102e-10 0.0104061 0)
(5.00421e-10 0.0103673 0)
(8.09636e-10 0.0103673 0)
(1.07914e-09 0.0104061 0)
(1.30804e-09 0.0104534 0)
(1.48904e-09 0.0104489 0)
(1.61883e-09 0.0103021 0)
(1.71077e-09 0.00989311 0)
(1.80439e-09 0.00907365 0)
(1.96157e-09 0.00767042 0)
(2.07313e-09 0.00548839 0)
(6.99037e-10 0.00229218 0)
(-7.56079e-10 0.00229218 0)
(-2.02798e-09 0.0054884 0)
(-1.6331e-09 0.00767042 0)
(-1.1681e-09 0.00907365 0)
(-6.90058e-10 0.00989311 0)
(-2.69783e-10 0.0103021 0)
(8.03987e-11 0.0104489 0)
(3.77128e-10 0.0104534 0)
(6.36505e-10 0.0104061 0)
(8.65036e-10 0.0103673 0)
(1.06563e-09 0.0103673 0)
(1.24061e-09 0.0104061 0)
(1.38626e-09 0.0104534 0)
(1.49307e-09 0.0104489 0)
(1.55809e-09 0.0103021 0)
(1.57894e-09 0.00989311 0)
(1.5566e-09 0.00907365 0)
(1.51901e-09 0.00767042 0)
(1.38839e-09 0.00548839 0)
(4.24157e-10 0.00229218 0)
(-3.47819e-10 0.00229218 0)
(-1.86805e-10 0.00548839 0)
(3.7489e-10 0.00767042 0)
(6.58013e-10 0.00907365 0)
(8.42751e-10 0.00989311 0)
(9.42148e-10 0.0103021 0)
(1.00918e-09 0.0104489 0)
(1.07371e-09 0.0104534 0)
(1.14258e-09 0.0104061 0)
(1.21226e-09 0.0103673 0)
(1.28061e-09 0.0103673 0)
(1.34572e-09 0.0104061 0)
(1.39485e-09 0.0104534 0)
(1.40735e-09 0.0104489 0)
(1.37282e-09 0.0103021 0)
(1.27623e-09 0.00989311 0)
(1.08009e-09 0.00907365 0)
(7.66146e-10 0.00767042 0)
(3.35107e-10 0.00548839 0)
(1.70878e-11 0.00229218 0)
(1.75114e-09 0.00229218 0)
(4.19657e-09 0.00548839 0)
(3.48113e-09 0.00767042 0)
(3.07205e-09 0.00907365 0)
(2.62385e-09 0.00989311 0)
(2.23551e-09 0.0103021 0)
(1.94618e-09 0.0104489 0)
(1.74668e-09 0.0104534 0)
(1.61098e-09 0.0104061 0)
(1.51401e-09 0.0103673 0)
(1.44361e-09 0.0103673 0)
(1.39095e-09 0.0104061 0)
(1.33348e-09 0.0104534 0)
(1.23887e-09 0.0104489 0)
(1.08676e-09 0.0103021 0)
(8.55716e-10 0.00989311 0)
(4.91472e-10 0.00907365 0)
(-6.71617e-11 0.00767042 0)
(-7.35704e-10 0.00548839 0)
(-3.85872e-10 0.00229218 0)
(2.28044e-09 0.00229218 0)
(6.17861e-09 0.00548839 0)
(5.50515e-09 0.00767042 0)
(4.78146e-09 0.00907365 0)
(3.93001e-09 0.00989311 0)
(3.21107e-09 0.0103021 0)
(2.6646e-09 0.0104489 0)
(2.26606e-09 0.0104534 0)
(1.96594e-09 0.0104061 0)
(1.72528e-09 0.0103673 0)
(1.52862e-09 0.0103673 0)
(1.36434e-09 0.0104061 0)
(1.20551e-09 0.0104534 0)
(1.01512e-09 0.0104489 0)
(7.67289e-10 0.0103021 0)
(4.3991e-10 0.00989311 0)
(-2.71456e-11 0.00907365 0)
(-7.00031e-10 0.00767042 0)
(-1.38161e-09 0.00548839 0)
(-5.88893e-10 0.00229218 0)
(2.0643e-09 0.00229217 0)
(6.11227e-09 0.00548839 0)
(5.821e-09 0.00767042 0)
(5.20238e-09 0.00907365 0)
(4.37526e-09 0.00989311 0)
(3.61869e-09 0.0103021 0)
(3.00349e-09 0.0104489 0)
(2.52257e-09 0.0104534 0)
(2.12799e-09 0.0104061 0)
(1.78988e-09 0.0103673 0)
(1.50236e-09 0.0103673 0)
(1.25669e-09 0.0104061 0)
(1.0281e-09 0.0104534 0)
(7.8105e-10 0.0104489 0)
(4.84968e-10 0.0103021 0)
(1.41511e-10 0.00989311 0)
(-2.64518e-10 0.00907365 0)
(-8.23923e-10 0.00767043 0)
(-1.29195e-09 0.00548839 0)
(-4.86227e-10 0.00229218 0)
(1.7488e-09 0.00229217 0)
(4.82877e-09 0.00548839 0)
(4.61732e-09 0.00767042 0)
(4.41844e-09 0.00907365 0)
(3.96344e-09 0.00989311 0)
(3.42276e-09 0.0103021 0)
(2.9134e-09 0.0104489 0)
(2.45959e-09 0.0104534 0)
(2.04593e-09 0.0104061 0)
(1.67326e-09 0.0103673 0)
(1.35092e-09 0.0103673 0)
(1.07595e-09 0.0104061 0)
(8.33444e-10 0.0104534 0)
(5.99886e-10 0.0104489 0)
(3.42713e-10 0.0103021 0)
(6.27703e-11 0.00989311 0)
(-1.77439e-10 0.00907365 0)
(-4.1487e-10 0.00767043 0)
(-6.50943e-10 0.00548839 0)
(-2.67351e-10 0.00229218 0)
(2.37029e-10 0.00229217 0)
(1.52163e-09 0.00548839 0)
(2.33179e-09 0.00767042 0)
(2.84087e-09 0.00907365 0)
(2.93465e-09 0.00989311 0)
(2.75083e-09 0.0103021 0)
(2.44669e-09 0.0104489 0)
(2.09192e-09 0.0104534 0)
(1.72592e-09 0.0104061 0)
(1.38379e-09 0.0103673 0)
(1.08421e-09 0.0103673 0)
(8.30016e-10 0.0104061 0)
(6.21615e-10 0.0104534 0)
(4.56859e-10 0.0104489 0)
(3.1625e-10 0.0103021 0)
(1.89743e-10 0.00989311 0)
(1.64001e-10 0.00907365 0)
(2.69796e-10 0.00767043 0)
(3.79286e-10 0.00548839 0)
(1.51316e-10 0.00229218 0)
(-5.97059e-10 0.00229217 0)
(-7.26723e-10 0.00548839 0)
(4.7345e-10 0.00767042 0)
(1.32559e-09 0.00907365 0)
(1.76244e-09 0.00989311 0)
(1.85931e-09 0.0103021 0)
(1.74243e-09 0.0104489 0)
(1.50639e-09 0.0104534 0)
(1.23004e-09 0.0104061 0)
(9.61447e-10 0.0103673 0)
(7.17399e-10 0.0103673 0)
(5.05601e-10 0.0104061 0)
(3.41545e-10 0.0104534 0)
(2.45157e-10 0.0104489 0)
(2.17051e-10 0.0103021 0)
(2.52162e-10 0.00989311 0)
(4.12762e-10 0.00907365 0)
(7.17529e-10 0.00767043 0)
(1.04591e-09 0.00548839 0)
(4.25449e-10 0.00229218 0)
(-7.20233e-10 0.00229217 0)
(-1.44205e-09 0.00548839 0)
(-4.87879e-10 0.00767042 0)
(2.79657e-10 0.00907365 0)
(7.6146e-10 0.00989311 0)
(9.64877e-10 0.0103021 0)
(9.54857e-10 0.0104489 0)
(8.19624e-10 0.0104534 0)
(6.39632e-10 0.0104061 0)
(4.49441e-10 0.0103673 0)
(2.58472e-10 0.0103673 0)
(7.91861e-11 0.0104061 0)
(-6.33555e-11 0.0104534 0)
(-1.36259e-10 0.0104489 0)
(-1.19557e-10 0.0103021 0)
(-3.55781e-12 0.00989311 0)
(2.13238e-10 0.00907365 0)
(5.16086e-10 0.00767043 0)
(9.33791e-10 0.00548839 0)
(4.2069e-10 0.00229218 0)
(-4.00568e-10 0.00229217 0)
(-1.03595e-09 0.00548839 0)
(-6.73573e-10 0.00767042 0)
(-2.8274e-10 0.00907365 0)
(1.98323e-11 0.00989311 0)
(1.78286e-10 0.0103021 0)
(1.96109e-10 0.0104489 0)
(1.27253e-10 0.0104534 0)
(1.83698e-11 0.0104061 0)
(-1.19631e-10 0.0103673 0)
(-2.79488e-10 0.0103673 0)
(-4.44961e-10 0.0104061 0)
(-5.90641e-10 0.0104534 0)
(-6.86137e-10 0.0104489 0)
(-7.08614e-10 0.0103021 0)
(-6.48731e-10 0.00989311 0)
(-5.38048e-10 0.00907365 0)
(-3.23096e-10 0.00767042 0)
(1.32743e-10 0.00548839 0)
(1.77718e-10 0.00229218 0)
(-5.88654e-11 0.00229217 0)
(-3.79889e-10 0.00548839 0)
(-5.53328e-10 0.00767042 0)
(-5.91208e-10 0.00907365 0)
(-5.38706e-10 0.00989311 0)
(-4.89e-10 0.0103021 0)
(-4.85692e-10 0.0104489 0)
(-5.22281e-10 0.0104534 0)
(-5.96758e-10 0.0104061 0)
(-7.11051e-10 0.0103673 0)
(-8.53653e-10 0.0103673 0)
(-1.00978e-09 0.0104061 0)
(-1.16169e-09 0.0104534 0)
(-1.29315e-09 0.0104489 0)
(-1.39458e-09 0.0103021 0)
(-1.46311e-09 0.00989311 0)
(-1.50599e-09 0.00907365 0)
(-1.4579e-09 0.00767042 0)
(-1.20583e-09 0.00548839 0)
(-3.37286e-10 0.00229218 0)
(1.10563e-10 0.00229217 0)
(-7.29904e-11 0.00548839 0)
(-5.82094e-10 0.00767042 0)
(-9.1167e-10 0.00907365 0)
(-1.04069e-09 0.00989311 0)
(-1.0744e-09 0.0103021 0)
(-1.08613e-09 0.0104489 0)
(-1.11078e-09 0.0104534 0)
(-1.17168e-09 0.0104061 0)
(-1.26832e-09 0.0103673 0)
(-1.38867e-09 0.0103673 0)
(-1.52493e-09 0.0104061 0)
(-1.66742e-09 0.0104534 0)
(-1.81163e-09 0.0104489 0)
(-1.96069e-09 0.0103021 0)
(-2.11502e-09 0.00989311 0)
(-2.25586e-09 0.00907365 0)
(-2.30922e-09 0.00767042 0)
(-2.25579e-09 0.00548839 0)
(-7.38331e-10 0.00229218 0)
(2.25189e-12 0.00229217 0)
(-4.29736e-10 0.00548839 0)
(-1.01119e-09 0.00767042 0)
(-1.39405e-09 0.00907365 0)
(-1.56274e-09 0.00989311 0)
(-1.60597e-09 0.0103021 0)
(-1.60601e-09 0.0104489 0)
(-1.61693e-09 0.0104534 0)
(-1.6584e-09 0.0104061 0)
(-1.72314e-09 0.0103673 0)
(-1.80812e-09 0.0103673 0)
(-1.91237e-09 0.0104061 0)
(-2.02852e-09 0.0104534 0)
(-2.15358e-09 0.0104489 0)
(-2.29361e-09 0.0103021 0)
(-2.45684e-09 0.00989311 0)
(-2.63436e-09 0.00907365 0)
(-2.75877e-09 0.00767042 0)
(-2.82139e-09 0.00548839 0)
(-9.54644e-10 0.00229217 0)
(-3.10165e-10 0.00229217 0)
(-1.27779e-09 0.00548839 0)
(-1.72684e-09 0.00767042 0)
(-1.98297e-09 0.00907365 0)
(-2.07498e-09 0.00989311 0)
(-2.06413e-09 0.0103021 0)
(-2.02388e-09 0.0104489 0)
(-2.00301e-09 0.0104534 0)
(-2.00513e-09 0.0104061 0)
(-2.02313e-09 0.0103673 0)
(-2.06451e-09 0.0103673 0)
(-2.12964e-09 0.0104061 0)
(-2.20937e-09 0.0104534 0)
(-2.29546e-09 0.0104489 0)
(-2.3844e-09 0.0103021 0)
(-2.48286e-09 0.00989311 0)
(-2.60294e-09 0.00907365 0)
(-2.7064e-09 0.00767042 0)
(-2.67608e-09 0.00548839 0)
(-8.44676e-10 0.00229217 0)
(-6.62554e-10 0.00229217 0)
(-2.18868e-09 0.00548839 0)
(-2.42364e-09 0.00767042 0)
(-2.50252e-09 0.00907365 0)
(-2.478e-09 0.00989311 0)
(-2.3919e-09 0.0103021 0)
(-2.29844e-09 0.0104489 0)
(-2.22833e-09 0.0104534 0)
(-2.17679e-09 0.0104061 0)
(-2.14487e-09 0.0103673 0)
(-2.14224e-09 0.0103673 0)
(-2.16609e-09 0.0104061 0)
(-2.20668e-09 0.0104534 0)
(-2.2513e-09 0.0104489 0)
(-2.28233e-09 0.0103021 0)
(-2.29361e-09 0.00989311 0)
(-2.31039e-09 0.00907365 0)
(-2.33194e-09 0.00767042 0)
(-2.15744e-09 0.00548839 0)
(-6.17429e-10 0.00229217 0)
(-8.84571e-10 0.00229217 0)
(-2.75841e-09 0.00548839 0)
(-2.83582e-09 0.00767042 0)
(-2.78711e-09 0.00907365 0)
(-2.67392e-09 0.00989311 0)
(-2.53087e-09 0.0103021 0)
(-2.39046e-09 0.0104489 0)
(-2.26865e-09 0.0104534 0)
(-2.16548e-09 0.0104061 0)
(-2.09126e-09 0.0103673 0)
(-2.05046e-09 0.0103673 0)
(-2.0368e-09 0.0104061 0)
(-2.04194e-09 0.0104534 0)
(-2.05192e-09 0.0104489 0)
(-2.03827e-09 0.0103021 0)
(-1.97622e-09 0.00989311 0)
(-1.88285e-09 0.00907365 0)
(-1.78296e-09 0.00767042 0)
(-1.54104e-09 0.00548839 0)
(-4.3381e-10 0.00229217 0)
(-8.93227e-10 0.00229218 0)
(-2.79036e-09 0.00548839 0)
(-2.83482e-09 0.00767042 0)
(-2.75318e-09 0.00907365 0)
(-2.61504e-09 0.00989311 0)
(-2.45372e-09 0.0103021 0)
(-2.28553e-09 0.0104489 0)
(-2.12665e-09 0.0104534 0)
(-1.98933e-09 0.0104061 0)
(-1.8877e-09 0.0103673 0)
(-1.82059e-09 0.0103673 0)
(-1.77955e-09 0.0104061 0)
(-1.75721e-09 0.0104534 0)
(-1.73921e-09 0.0104489 0)
(-1.69153e-09 0.0103021 0)
(-1.57231e-09 0.00989311 0)
(-1.36328e-09 0.00907365 0)
(-1.06776e-09 0.00767042 0)
(-6.4752e-10 0.00548839 0)
(-1.06804e-10 0.00229217 0)
(-7.1766e-10 0.00229218 0)
(-2.3339e-09 0.00548839 0)
(-2.4425e-09 0.00767042 0)
(-2.41025e-09 0.00907365 0)
(-2.31204e-09 0.00989311 0)
(-2.17205e-09 0.0103021 0)
(-2.0012e-09 0.0104489 0)
(-1.83151e-09 0.0104534 0)
(-1.68753e-09 0.0104061 0)
(-1.57908e-09 0.0103673 0)
(-1.50096e-09 0.0103673 0)
(-1.4439e-09 0.0104061 0)
(-1.40087e-09 0.0104534 0)
(-1.35699e-09 0.0104489 0)
(-1.27879e-09 0.0103021 0)
(-1.12026e-09 0.00989311 0)
(-8.34442e-10 0.00907365 0)
(-3.91765e-10 0.00767042 0)
(1.60889e-10 0.00548839 0)
(1.94288e-10 0.00229217 0)
(-4.51538e-10 0.00229218 0)
(-1.57467e-09 0.00548839 0)
(-1.76276e-09 0.00767042 0)
(-1.82773e-09 0.00907365 0)
(-1.81245e-09 0.00989311 0)
(-1.72362e-09 0.0103021 0)
(-1.58289e-09 0.0104489 0)
(-1.43712e-09 0.0104534 0)
(-1.31586e-09 0.0104061 0)
(-1.21963e-09 0.0103673 0)
(-1.14009e-09 0.0103673 0)
(-1.0705e-09 0.0104061 0)
(-1.0063e-09 0.0104534 0)
(-9.34067e-10 0.0104489 0)
(-8.26842e-10 0.0103021 0)
(-6.5222e-10 0.00989311 0)
(-3.7514e-10 0.00907365 0)
(1.08871e-11 0.00767042 0)
(3.68503e-10 0.00548839 0)
(1.78693e-10 0.00229217 0)
(-1.68208e-10 0.00229218 0)
(-6.95563e-10 0.00548839 0)
(-9.25705e-10 0.00767042 0)
(-1.0942e-09 0.00907365 0)
(-1.17692e-09 0.00989311 0)
(-1.16373e-09 0.0103021 0)
(-1.09133e-09 0.0104489 0)
(-1.00367e-09 0.0104534 0)
(-9.24223e-10 0.0104061 0)
(-8.46906e-10 0.0103673 0)
(-7.64445e-10 0.0103673 0)
(-6.77177e-10 0.0104061 0)
(-5.86468e-10 0.0104534 0)
(-4.83481e-10 0.0104489 0)
(-3.50504e-10 0.0103021 0)
(-1.74972e-10 0.00989311 0)
(4.20301e-11 0.00907365 0)
(2.60224e-10 0.00767042 0)
(3.2513e-10 0.00548839 0)
(8.03632e-11 0.00229217 0)
(9.76405e-11 0.00229218 0)
(1.61843e-10 0.00548839 0)
(-7.93939e-11 0.00767042 0)
(-3.30201e-10 0.00907365 0)
(-5.00746e-10 0.00989311 0)
(-5.73353e-10 0.0103021 0)
(-5.88034e-10 0.0104489 0)
(-5.70814e-10 0.0104534 0)
(-5.3239e-10 0.0104061 0)
(-4.67654e-10 0.0103673 0)
(-3.7646e-10 0.0103673 0)
(-2.67867e-10 0.0104061 0)
(-1.49761e-10 0.0104534 0)
(-1.99526e-11 0.0104489 0)
(1.2988e-10 0.0103021 0)
(2.97585e-10 0.00989311 0)
(4.51314e-10 0.00907365 0)
(5.12333e-10 0.00767042 0)
(3.57387e-10 0.00548839 0)
(4.29491e-11 0.00229217 0)
(3.09592e-10 0.00229218 0)
(8.56879e-10 0.00548839 0)
(6.10096e-10 0.00767042 0)
(3.09313e-10 0.00907365 0)
(8.6949e-11 0.00989311 0)
(-4.54105e-11 0.0103021 0)
(-1.22922e-10 0.0104489 0)
(-1.53781e-10 0.0104534 0)
(-1.38296e-10 0.0104061 0)
(-7.61621e-11 0.0103673 0)
(2.46682e-11 0.0103673 0)
(1.49783e-10 0.0104061 0)
(2.87884e-10 0.0104534 0)
(4.35358e-10 0.0104489 0)
(5.923e-10 0.0103021 0)
(7.51221e-10 0.00989311 0)
(8.74451e-10 0.00907365 0)
(8.77363e-10 0.00767042 0)
(6.57222e-10 0.00548839 0)
(1.37223e-10 0.00229217 0)
(4.83504e-10 0.00229218 0)
(1.33024e-09 0.00548839 0)
(1.02845e-09 0.00767043 0)
(7.13068e-10 0.00907365 0)
(4.99452e-10 0.00989311 0)
(3.65269e-10 0.0103021 0)
(2.78743e-10 0.0104489 0)
(2.40116e-10 0.0104534 0)
(2.54466e-10 0.0104061 0)
(3.20112e-10 0.0103673 0)
(4.25902e-10 0.0103673 0)
(5.5739e-10 0.0104061 0)
(7.04264e-10 0.0104534 0)
(8.60046e-10 0.0104489 0)
(1.01819e-09 0.0103021 0)
(1.17077e-09 0.00989311 0)
(1.29087e-09 0.00907365 0)
(1.30967e-09 0.00767042 0)
(1.13431e-09 0.00548839 0)
(3.15931e-10 0.00229217 0)
(5.97687e-10 0.00229218 0)
(1.45023e-09 0.00548839 0)
(1.07843e-09 0.00767043 0)
(8.40203e-10 0.00907365 0)
(7.18103e-10 0.00989311 0)
(6.49747e-10 0.0103021 0)
(6.07813e-10 0.0104489 0)
(5.94827e-10 0.0104534 0)
(6.22623e-10 0.0104061 0)
(6.93633e-10 0.0103673 0)
(7.98892e-10 0.0103673 0)
(9.27552e-10 0.0104061 0)
(1.07345e-09 0.0104534 0)
(1.2298e-09 0.0104489 0)
(1.38409e-09 0.0103021 0)
(1.52579e-09 0.00989311 0)
(1.63841e-09 0.00907365 0)
(1.67338e-09 0.00767042 0)
(1.55835e-09 0.00548839 0)
(4.81092e-10 0.00229217 0)
(1.958e-10 0.00229218 0)
(6.3049e-10 0.00548839 0)
(6.51262e-10 0.00767043 0)
(6.9853e-10 0.00907365 0)
(7.67656e-10 0.00989311 0)
(8.25453e-10 0.0103021 0)
(8.60448e-10 0.0104489 0)
(8.87912e-10 0.0104534 0)
(9.33621e-10 0.0104061 0)
(1.00834e-09 0.0103673 0)
(1.10832e-09 0.0103673 0)
(1.22823e-09 0.0104061 0)
(1.36645e-09 0.0104534 0)
(1.51576e-09 0.0104489 0)
(1.65718e-09 0.0103021 0)
(1.77114e-09 0.00989311 0)
(1.84038e-09 0.00907365 0)
(1.83477e-09 0.00767042 0)
(1.70759e-09 0.00548839 0)
(5.32234e-10 0.00229217 0)
(-1.81963e-10 0.00229218 0)
(-2.2413e-10 0.00548839 0)
(1.73896e-10 0.00767043 0)
(5.01312e-10 0.00907365 0)
(7.66817e-10 0.00989311 0)
(9.47681e-10 0.0103021 0)
(1.04917e-09 0.0104489 0)
(1.10831e-09 0.0104534 0)
(1.16483e-09 0.0104061 0)
(1.23722e-09 0.0103673 0)
(1.32795e-09 0.0103673 0)
(1.4367e-09 0.0104061 0)
(1.56312e-09 0.0104534 0)
(1.69739e-09 0.0104489 0)
(1.81418e-09 0.0103021 0)
(1.88025e-09 0.00989311 0)
(1.86571e-09 0.00907365 0)
(1.75525e-09 0.00767042 0)
(1.52827e-09 0.00548839 0)
(4.46579e-10 0.00229217 0)
(-3.15396e-10 0.00229218 0)
(-5.8573e-10 0.00548839 0)
(-1.72395e-11 0.00767042 0)
(4.81889e-10 0.00907365 0)
(8.55532e-10 0.00989311 0)
(1.08583e-09 0.0103021 0)
(1.20384e-09 0.0104489 0)
(1.26567e-09 0.0104534 0)
(1.3166e-09 0.0104061 0)
(1.37829e-09 0.0103673 0)
(1.45711e-09 0.0103673 0)
(1.55383e-09 0.0104061 0)
(1.66472e-09 0.0104534 0)
(1.77579e-09 0.0104489 0)
(1.85804e-09 0.0103021 0)
(1.86737e-09 0.00989311 0)
(1.75861e-09 0.00907365 0)
(1.52428e-09 0.00767042 0)
(1.1771e-09 0.00548839 0)
(2.99724e-10 0.00229217 0)
(-3.6455e-10 0.00229218 0)
(-4.31906e-10 0.00548839 0)
(2.95361e-10 0.00767042 0)
(8.13108e-10 0.00907365 0)
(1.13579e-09 0.00989311 0)
(1.29505e-09 0.0103021 0)
(1.35728e-09 0.0104489 0)
(1.38275e-09 0.0104534 0)
(1.40813e-09 0.0104061 0)
(1.44997e-09 0.0103673 0)
(1.5126e-09 0.0103673 0)
(1.59325e-09 0.0104061 0)
(1.68263e-09 0.0104534 0)
(1.76329e-09 0.0104489 0)
(1.80724e-09 0.0103021 0)
(1.77039e-09 0.00989311 0)
(1.60287e-09 0.00907365 0)
(1.29687e-09 0.00767042 0)
(8.96011e-10 0.00548839 0)
(1.96466e-10 0.00229218 0)
(2.88376e-10 0.00229218 0)
(1.08331e-09 0.00548839 0)
(1.41692e-09 0.00767042 0)
(1.60271e-09 0.00907365 0)
(1.63e-09 0.00989311 0)
(1.57767e-09 0.0103021 0)
(1.51528e-09 0.0104489 0)
(1.47038e-09 0.0104534 0)
(1.45257e-09 0.0104061 0)
(1.46365e-09 0.0103673 0)
(1.50058e-09 0.0103673 0)
(1.55576e-09 0.0104061 0)
(1.6162e-09 0.0104534 0)
(1.6639e-09 0.0104489 0)
(1.67619e-09 0.0103021 0)
(1.62138e-09 0.00989311 0)
(1.46249e-09 0.00907365 0)
(1.18676e-09 0.00767042 0)
(8.38455e-10 0.00548839 0)
(1.93597e-10 0.00229218 0)
(8.97843e-10 0.00229218 0)
(2.63929e-09 0.00548839 0)
(2.61385e-09 0.00767042 0)
(2.41127e-09 0.00907365 0)
(2.09441e-09 0.00989311 0)
(1.81462e-09 0.0103021 0)
(1.62238e-09 0.0104489 0)
(1.50293e-09 0.0104534 0)
(1.43563e-09 0.0104061 0)
(1.40655e-09 0.0103673 0)
(1.40641e-09 0.0103673 0)
(1.42627e-09 0.0104061 0)
(1.45401e-09 0.0104534 0)
(1.47459e-09 0.0104489 0)
(1.47263e-09 0.0103021 0)
(1.43331e-09 0.00989311 0)
(1.34164e-09 0.00907365 0)
(1.17956e-09 0.00767042 0)
(9.59202e-10 0.00548839 0)
(2.65537e-10 0.00229218 0)
(1.18868e-09 0.00229217 0)
(3.38526e-09 0.00548839 0)
(3.1528e-09 0.00767042 0)
(2.72869e-09 0.00907365 0)
(2.23634e-09 0.00989311 0)
(1.85157e-09 0.0103021 0)
(1.59751e-09 0.0104489 0)
(1.43517e-09 0.0104534 0)
(1.32904e-09 0.0104061 0)
(1.26004e-09 0.0103673 0)
(1.21985e-09 0.0103673 0)
(1.20312e-09 0.0104061 0)
(1.20223e-09 0.0104534 0)
(1.20735e-09 0.0104489 0)
(1.20967e-09 0.0103021 0)
(1.20542e-09 0.00989311 0)
(1.19372e-09 0.00907365 0)
(1.15214e-09 0.00767042 0)
(1.05353e-09 0.00548839 0)
(3.22701e-10 0.00229218 0)
(1.0319e-09 0.00229217 0)
(2.94302e-09 0.00548839 0)
(2.73376e-09 0.00767042 0)
(2.34963e-09 0.00907365 0)
(1.93327e-09 0.00989311 0)
(1.61524e-09 0.0103021 0)
(1.39837e-09 0.0104489 0)
(1.24412e-09 0.0104534 0)
(1.12519e-09 0.0104061 0)
(1.03221e-09 0.0103673 0)
(9.64644e-10 0.0103673 0)
(9.2256e-10 0.0104061 0)
(9.03002e-10 0.0104534 0)
(9.0095e-10 0.0104489 0)
(9.12153e-10 0.0103021 0)
(9.35364e-10 0.00989311 0)
(9.69485e-10 0.00907365 0)
(9.88267e-10 0.00767042 0)
(9.3801e-10 0.00548839 0)
(2.87675e-10 0.00229218 0)
(2.88141e-10 0.00229217 0)
(1.2203e-09 0.00548839 0)
(1.4204e-09 0.00767042 0)
(1.39167e-09 0.00907365 0)
(1.27307e-09 0.00989311 0)
(1.15626e-09 0.0103021 0)
(1.0524e-09 0.0104489 0)
(9.50779e-10 0.0104534 0)
(8.51301e-10 0.0104061 0)
(7.62302e-10 0.0103673 0)
(6.91408e-10 0.0103673 0)
(6.42025e-10 0.0104061 0)
(6.13238e-10 0.0104534 0)
(6.02226e-10 0.0104489 0)
(6.07574e-10 0.0103021 0)
(6.28223e-10 0.00989311 0)
(6.58315e-10 0.00907365 0)
(6.69467e-10 0.00767042 0)
(6.01147e-10 0.00548839 0)
(1.64637e-10 0.00229218 0)
(-9.63796e-11 0.00229217 0)
(-7.65042e-11 0.00548839 0)
(1.75391e-10 0.00767042 0)
(3.83338e-10 0.00907365 0)
(5.34221e-10 0.00989311 0)
(6.17091e-10 0.0103021 0)
(6.33053e-10 0.0104489 0)
(6.01386e-10 0.0104534 0)
(5.47099e-10 0.0104061 0)
(4.89195e-10 0.0103673 0)
(4.37782e-10 0.0103673 0)
(3.96398e-10 0.0104061 0)
(3.63287e-10 0.0104534 0)
(3.35152e-10 0.0104489 0)
(3.12857e-10 0.0103021 0)
(2.99546e-10 0.00989311 0)
(2.92669e-10 0.00907365 0)
(2.69412e-10 0.00767042 0)
(1.79801e-10 0.00548839 0)
(2.24435e-11 0.00229218 0)
(-4.12466e-10 0.00229217 0)
(-1.05486e-09 0.00548839 0)
(-7.62618e-10 0.00767042 0)
(-4.0901e-10 0.00907365 0)
(-9.80154e-11 0.00989311 0)
(1.00876e-10 0.0103021 0)
(1.9688e-10 0.0104489 0)
(2.30993e-10 0.0104534 0)
(2.34913e-10 0.0104061 0)
(2.23832e-10 0.0103673 0)
(2.04859e-10 0.0103673 0)
(1.7965e-10 0.0104061 0)
(1.43699e-10 0.0104534 0)
(9.26168e-11 0.0104489 0)
(3.06372e-11 0.0103021 0)
(-3.14421e-11 0.00989311 0)
(-8.43652e-11 0.00907365 0)
(-1.32657e-10 0.00767042 0)
(-2.05717e-10 0.00548839 0)
(-8.92593e-11 0.00229218 0)
(-5.1667e-10 0.00229217 0)
(-1.45639e-09 0.00548839 0)
(-1.22833e-09 0.00767042 0)
(-8.78455e-10 0.00907365 0)
(-5.60201e-10 0.00989311 0)
(-3.51276e-10 0.0103021 0)
(-2.25007e-10 0.0104489 0)
(-1.39003e-10 0.0104534 0)
(-7.81472e-11 0.0104061 0)
(-4.12302e-11 0.0103673 0)
(-2.62809e-11 0.0103673 0)
(-3.4573e-11 0.0104061 0)
(-7.30563e-11 0.0104534 0)
(-1.452e-10 0.0104489 0)
(-2.42529e-10 0.0103021 0)
(-3.49207e-10 0.00989311 0)
(-4.46614e-10 0.00907365 0)
(-5.14204e-10 0.00767042 0)
(-5.44903e-10 0.00548839 0)
(-1.74257e-10 0.00229218 0)
(-4.34185e-10 0.00229217 0)
(-1.36132e-09 0.00548839 0)
(-1.29525e-09 0.00767042 0)
(-1.07578e-09 0.00907365 0)
(-8.70306e-10 0.00989311 0)
(-7.25212e-10 0.0103021 0)
(-6.02935e-10 0.0104489 0)
(-4.83872e-10 0.0104534 0)
(-3.82088e-10 0.0104061 0)
(-3.10348e-10 0.0103673 0)
(-2.70698e-10 0.0103673 0)
(-2.65728e-10 0.0104061 0)
(-3.01741e-10 0.0104534 0)
(-3.80749e-10 0.0104489 0)
(-4.94186e-10 0.0103021 0)
(-6.28718e-10 0.00989311 0)
(-7.66745e-10 0.00907365 0)
(-8.69364e-10 0.00767042 0)
(-8.82323e-10 0.00548839 0)
(-2.67628e-10 0.00229218 0)
(-2.97664e-10 0.00229217 0)
(-1.05972e-09 0.00548839 0)
(-1.15788e-09 0.00767042 0)
(-1.11677e-09 0.00907365 0)
(-1.0666e-09 0.00989311 0)
(-1.0042e-09 0.0103021 0)
(-9.00636e-10 0.0104489 0)
(-7.72404e-10 0.0104534 0)
(-6.56115e-10 0.0104061 0)
(-5.69708e-10 0.0103673 0)
(-5.1571e-10 0.0103673 0)
(-4.96239e-10 0.0104061 0)
(-5.15439e-10 0.0104534 0)
(-5.7671e-10 0.0104489 0)
(-6.78984e-10 0.0103021 0)
(-8.17167e-10 0.00989311 0)
(-9.83378e-10 0.00907365 0)
(-1.13873e-09 0.00767043 0)
(-1.19191e-09 0.00548839 0)
(-3.75885e-10 0.00229218 0)
(-1.91629e-10 0.00229217 0)
(-7.76214e-10 0.00548839 0)
(-9.86082e-10 0.00767042 0)