# vtk DataFile Version 4.0
Generated by LIGGGHTS
ASCII
DATASET POLYDATA
POINTS 54 float
0.5692 0.0757659 0.0026966 0.565945 0.0771319 0.00747453 0.861551 0.149018 0.00298809 
0.864787 0.15401 0.00374007 0.847447 0.242688 0.00299817 0.841743 0.241136 0.00367121 
0.847887 0.257238 0.00396298 0.852454 0.260684 0.00279294 0.847887 0.257238 0.00396298 
0.84788 0.254467 0.00819944 0.847451 0.281315 0.00355034 0.844158 0.277557 0.00487445 
0.848001 0.288286 0.00440158 0.847458 0.293958 0.0036569 0.849707 0.386993 0.00254676 
0.846879 0.388148 0.00282157 0.849707 0.386993 0.00254676 0.84832 0.392281 0.0039342 
0.849707 0.386993 0.00254676 0.845698 0.386295 0.00412872 0.845698 0.386295 0.00412872 
0.846879 0.388148 0.00282157 0.846879 0.388148 0.00282157 0.84832 0.392281 0.0039342 
0.726168 0.434579 0.00296232 0.727429 0.435132 0.00744611 0.494566 0.457959 0.00298296 
0.494484 0.452418 0.00504157 0.8462 0.461121 0.00230472 0.846722 0.459317 0.00737358 
0.847376 0.476268 0.00287646 0.848465 0.478813 0.00410884 0.848402 0.623235 0.00293966 
0.846643 0.62302 0.00567624 0.841263 0.66846 0.00275765 0.836236 0.670016 0.00310826 
0.848613 0.697746 0.00396605 0.849646 0.702291 0.00237692 0.846592 0.481034 0.0157619 
0.846716 0.486547 0.0168817 0.798622 0.720342 0.0118015 0.795876 0.719342 0.00851646 
0.260857 0.251971 0.00850757 0.258754 0.257395 0.00816095 0.837364 0.282745 0.0113346 
0.841561 0.2849 0.0108972 0.881607 0.357791 0.0129395 0.883513 0.36025 0.0109457 
0.847824 0.78121 0.0135677 0.851442 0.782926 0.016603 1.0352 0.588105 0.0208041 
1.03538 0.58616 0.0153698 1.36967 0.713505 0.0201795 1.36567 0.716655 0.0173291 

LINES 27 81
2 0 1 
2 2 3 
2 4 5 
2 6 7 
2 8 9 
2 10 11 
2 12 13 
2 14 15 
2 16 17 
2 18 19 
2 20 21 
2 22 23 
2 24 25 
2 26 27 
2 28 29 
2 30 31 
2 32 33 
2 34 35 
2 36 37 
2 38 39 
2 40 41 
2 42 43 
2 44 45 
2 46 47 
2 48 49 
2 50 51 
2 52 53 

CELL_DATA 27
FIELD FieldData 6
vel1 3 27 double
50.4174 -1.87162 2.55225 21.3928 -0.186434 -0.0138922 -0.0349768 0.762837 -0.00363123 
-1.62563 -3.86116 -0.713091 -1.62563 -3.86116 -0.713091 2.17813 0.419288 0.106416 
0.656278 -0.513963 0.669993 3.62299 1.31169 -1.54742 3.62299 1.31169 -1.54742 
3.62299 1.31169 -1.54742 13.1023 -7.24207 4.71348 9.58057 -0.0913087 -2.00863 
52.2903 -0.296163 -1.34657 45.9701 0.0801354 -0.137542 -3.11614 1.40875 3.09894 
27.76 -5.01402 -2.35809 15.3131 0.081881 -1.05307 58.1971 -2.37665 -0.841881 
-5.54754 4.48027 0.634517 -3.72298 2.72525 4.23102 51.0989 -0.389123 0.994794 
46.8543 -0.605355 -0.675888 64.067 -1.17011 0.36983 66.7284 -5.46702 1.04194 
16.2441 -0.144117 -0.420483 196.01 -0.402394 3.7854 203.121 -0.0981096 0.17011 

vel2 3 27 double
52.6146 0.0277893 5.35936 21.4218 0.458452 0.0633668 5.20508 -4.1402 0.411292 
10.0336 1.12314 -0.662225 -0.39354 -3.63026 3.64482 43.772 -0.174051 -0.337113 
0.35554 -0.569255 0.300831 9.58057 -0.0913087 -2.00863 -0.731117 1.43422 -0.148073 
13.1023 -7.24207 4.71348 9.58057 -0.0913087 -2.00863 -0.731117 1.43422 -0.148073 
186.294 1.32219 2.52649 46.5277 0.505734 -0.0916311 -2.85954 -0.359445 5.61687 
11.1446 0.629974 0.339016 31.6725 -0.258637 3.00945 58.143 0.749245 1.81848 
-5.87465 8.60637 -0.913942 -1.25126 -1.057 6.28454 190.616 1.61498 -3.16375 
48.9363 0.928765 -0.814656 48.6613 2.87055 -2.00877 194.797 1.54117 -3.45261 
184.01 1.24784 2.27891 186.651 -1.21292 -4.04706 203.875 0.0981096 -0.14758 

force 3 27 double
-0.400504 0.1423 0.217379 0.121701 0.0283194 0.00372484 1.11943 0.628271 -0.133114 
6.86605 -0.426262 1.28703 -0.804825 1.93471 -1.47406 28.1617 3.48859 -1.64476 
-0.0672884 -0.618155 0.305473 33.2024 0.474702 -7.53524 -0.0672573 -0.322794 -0.0492048 
15.1963 -0.261206 -1.86451 -23.7372 -13.8957 10.1346 -8.12765 -8.11623 -1.28917 
58.433 3.44951 5.52399 0.0397556 0.214537 -0.223855 0.201889 0.0875608 -0.593005 
-21.7348 -17.7658 -8.80805 26.8346 1.23884 -15.9397 2.04355 -1.44497 -1.10723 
-9.85362 0.0553287 2.34334 -1.48242 -2.96651 0.251255 108.262 -4.44382 11.3752 
0.0519904 -0.0501361 -0.00768424 -11.7188 -10.5527 4.67483 82.0046 1.71777 0.00810023 
96.544 5.65792 11.1991 1.17473 -0.0587369 -3.02028 0.40067 -0.203255 0.164616 

force_normal 3 27 double
-0.233941 0.0981921 0.343445 0.0484109 0.0746899 0.0112498 1.20049 0.32665 -0.141657 
3.80122 2.86809 -0.973798 0.00328272 1.25436 -1.91769 13.3109 15.193 -5.35339 
0.0608681 -0.635031 0.0833746 28.6825 -11.7181 -2.78704 0.073367 -0.279552 -0.0733511 
13.3956 2.33142 -5.28507 -12.1136 -19.0013 13.402 -3.29782 -9.46098 -2.54738 
5.75117 2.52141 20.4524 0.00391462 0.262067 -0.0973646 -0.0547133 0.18886 -0.530475 
-9.45761 -22.1025 -10.7013 15.0726 1.84708 -23.4514 2.33316 -0.722404 -0.162756 
-0.58132 -2.55824 0.894463 -0.0637305 -2.83065 -0.574929 46.9098 17.0777 56.1142 
0.023441 -0.060466 0.00386384 -13.8282 -7.10144 1.44114 22.3974 28.902 -23.4346 
56.3161 26.7097 47.2474 0.0913666 -0.97639 -2.72814 0.318452 -0.250976 0.227155 

force_tangential 3 27 double
-0.166563 0.0441076 -0.126066 0.0732906 -0.0463705 -0.00752495 -0.0810619 0.301621 0.00854318 
3.06483 -3.29435 2.26083 -0.808108 0.680359 0.443637 14.8508 -11.7044 3.70862 
-0.128156 0.016876 0.222099 4.51991 12.1928 -4.7482 -0.140624 -0.0432418 0.0241462 
1.80078 -2.59262 3.42056 -11.6236 5.10564 -3.26738 -4.82983 1.34476 1.25822 
52.6818 0.928098 -14.9284 0.0358409 -0.0475299 -0.126491 0.256602 -0.101299 -0.0625305 
-12.2772 4.33672 1.89327 11.762 -0.608232 7.51173 -0.289609 -0.72257 -0.944469 
-9.2723 2.61357 1.44887 -1.41869 -0.135864 0.826184 61.3526 -21.5215 -44.739 
0.0285495 0.0103299 -0.0115481 2.1094 -3.45127 3.23369 59.6072 -27.1843 23.4427 
40.2279 -21.0518 -36.0484 1.08336 0.917653 -0.292143 0.0822187 0.0477208 -0.0625385 

contact_area 1 27 double
5.60302e-07 2.96196e-08 4.74948e-07 1.48855e-06 8.14751e-06 7.29303e-06 2.33984e-06 2.08845e-05 3.28988e-06 
1.32993e-05 2.31385e-05 1.22609e-05 1.09959e-05 8.2707e-07 5.32239e-06 2.10613e-05 1.99264e-05 6.43425e-06 
9.22888e-06 3.40318e-06 1.30907e-05 1.59801e-06 1.06385e-05 1.75512e-05 8.44558e-06 2.08341e-06 1.56352e-06 

