# vtk DataFile Version 4.0
Generated by LIGGGHTS
ASCII
DATASET POLYDATA
POINTS 86 float
0.866879 0.0274118 0.00380194 0.871785 0.0307076 0.00299397 0.864704 0.0336495 0.00292755 
0.864476 0.0344043 0.00879524 0.838526 0.102464 0.00331315 0.837173 0.107634 0.00299465 
0.848448 0.10328 0.00447658 0.850985 0.107325 0.0026975 0.848448 0.10328 0.00447658 
0.848028 0.108077 0.0077203 0.850985 0.107325 0.0026975 0.851139 0.112393 0.00287634 
0.850985 0.107325 0.0026975 0.848028 0.108077 0.0077203 0.851139 0.112393 0.00287634 
0.854864 0.115138 0.00384115 0.85866 0.114206 0.00264141 0.854864 0.115138 0.00384115 
0.385778 0.116779 0.00299104 0.383931 0.119575 0.00780942 0.849596 0.173753 0.00239118 
0.849258 0.178576 0.00370636 0.846857 0.243288 0.00405149 0.847235 0.241666 0.00186278 
0.846857 0.243288 0.00405149 0.849985 0.241549 0.00347185 0.849985 0.241549 0.00347185 
0.847235 0.241666 0.00186278 0.849985 0.241549 0.00347185 0.847805 0.236294 0.00449582 
0.848782 0.249839 0.00280676 0.84643 0.25343 0.00235291 0.84643 0.25343 0.00235291 
0.848754 0.256457 0.00439581 0.847384 0.287594 0.005206 0.846894 0.293126 0.00448319 
0.846894 0.293126 0.00448319 0.846769 0.298381 0.00231433 0.848786 0.304952 0.00257275 
0.849644 0.303447 0.00421707 0.848526 0.347419 0.00298487 0.84806 0.343435 0.00330561 
0.849054 0.376452 0.00283782 0.847642 0.371202 0.00378755 0.849054 0.376452 0.00283782 
0.850696 0.379241 0.00606993 0.736577 0.381821 0.00303019 0.732053 0.380073 0.00644337 
0.847269 0.387426 0.00301871 0.847004 0.39316 0.00316522 0.849633 0.481133 0.00543702 
0.849566 0.476917 0.00371703 0.847125 0.622704 0.00297736 0.847834 0.627037 0.00193528 
0.847125 0.622704 0.00297736 0.848611 0.622347 0.00447899 0.847834 0.627037 0.00193528 
0.848611 0.622347 0.00447899 0.847834 0.627037 0.00193528 0.847538 0.631542 0.0047925 
0.847483 0.683629 0.0061498 0.846387 0.68854 0.00370018 0.847353 0.731652 0.00312877 
0.848733 0.730471 0.00268381 0.847353 0.731652 0.00312877 0.846362 0.736278 0.00370759 
0.846362 0.736278 0.00370759 0.848731 0.739729 0.00292933 0.849331 0.762179 0.00648528 
0.849703 0.764652 0.00885738 0.721046 0.0915926 0.00364406 0.717594 0.0893859 0.00390568 
0.849674 0.443295 0.0035997 0.850032 0.447412 0.00364926 0.847684 0.0198335 0.00357833 
0.848089 0.0223088 0.00724142 0.768575 0.22309 0.0119845 0.771696 0.223085 0.0101131 
0.873774 0.768449 0.0178749 0.870006 0.764367 0.0174481 0.760929 0.0445446 0.00924716 
0.765509 0.0471775 0.00881902 1.10571 0.684029 0.0211539 1.10617 0.687363 0.0162399 
1.40993 0.725804 0.0196213 1.41325 0.723309 0.018799 
LINES 43 129
2 0 1 
2 2 3 
2 4 5 
2 6 7 
2 8 9 
2 10 11 
2 12 13 
2 14 15 
2 16 17 
2 18 19 
2 20 21 
2 22 23 
2 24 25 
2 26 27 
2 28 29 
2 30 31 
2 32 33 
2 34 35 
2 36 37 
2 38 39 
2 40 41 
2 42 43 
2 44 45 
2 46 47 
2 48 49 
2 50 51 
2 52 53 
2 54 55 
2 56 57 
2 58 59 
2 60 61 
2 62 63 
2 64 65 
2 66 67 
2 68 69 
2 70 71 
2 72 73 
2 74 75 
2 76 77 
2 78 79 
2 80 81 
2 82 83 
2 84 85 

CELL_DATA 43
FIELD FieldData 6
vel1 3 43 double
28.6433 -0.0285281 0.0048869 28.7157 -0.0975775 -0.137762 13.7146 2.88629 0.14755 
-1.08273 3.3357 0.508803 -1.08273 3.3357 0.508803 16.2208 2.58859 -0.979698 
16.2208 2.58859 -0.979698 22.2026 1.7495 -0.829802 23.8298 0.36398 -0.571488 
53.0897 0.106499 -0.229121 -6.60724 -9.67212 -1.02192 8.96928 7.73735 8.43435 
8.96928 7.73735 8.43435 6.41726 -3.13681 -1.40285 6.41726 -3.13681 -1.40285 
-5.51301 -1.31136 0.301384 -11.2526 0.807526 -2.29562 0.750394 -1.43988 0.881138 
-2.94717 -1.41333 1.98331 11.0176 8.30515 -5.94095 37.2842 5.66594 -0.313393 
-2.17297 1.59033 0.54927 -2.17297 1.59033 0.54927 53.2169 -0.154937 -0.0794049 
-2.76123 -2.19207 0.140959 7.36745 10.6095 4.4736 24.1898 -2.92099 -1.23694 
24.1898 -2.92099 -1.23694 0.580331 2.01114 0.873752 0.580331 2.01114 0.873752 
0.913508 2.6221 2.90554 22.1481 0.932844 2.11337 22.1481 0.932844 2.11337 
2.24049 -5.17125 2.65723 8.41306 -1.66226 -3.99477 62.6059 -0.234373 -2.29834 
-4.78924 3.67226 -0.347237 5.21668 1.82274 -1.26619 73.0002 0.107095 0.287958 
27.2152 0.673086 4.66123 62.5329 -1.79541 1.07926 233.724 -2.68403 3.54762 
228.139 2.73072 2.90933 
vel2 3 43 double
28.6202 0.028692 -0.0114678 32.635 0.407143 0.543419 51.2633 0.687439 -0.00579572 
16.2208 2.58859 -0.979698 0.402198 -4.8426 2.81716 22.2026 1.7495 -0.829802 
0.402198 -4.8426 2.81716 22.558 1.10423 2.32074 22.558 1.10423 2.32074 
62.1095 0.414882 -0.839535 -8.23479 -2.96687 -0.628724 4.53727 -2.12494 -3.92872 
6.41726 -3.13681 -1.40285 4.53727 -2.12494 -3.92872 -7.25692 -3.81027 0.481297 
-11.2526 0.807526 -2.29562 -5.85878 1.06595 1.12651 -2.94717 -1.41333 1.98331 
-2.94712 1.59424 2.14043 12.2567 -1.73294 2.32622 6.70718 0.884952 0.0415669 
2.84392 -2.02837 0.664028 15.5607 4.21675 4.03091 90.3682 -2.61037 -2.6552 
-5.03953 -0.0449781 -0.775559 3.72962 0.520152 0.807508 0.580331 2.01114 0.873752 
10.55 -0.935235 2.91916 10.55 -0.935235 2.91916 -1.79184 5.05469 1.67367 
4.43833 2.80005 -0.490296 16.3692 -1.08791 0.405543 2.24049 -5.17125 2.65723 
-4.38276 0.609092 0.553554 24.5215 5.15664 7.52382 65.0107 -2.03311 2.73947 
3.61192 10.7873 0.0398382 57.1502 1.80505 2.00746 65.0857 -0.0964329 1.49 
26.2364 -3.63678 2.13205 62.3448 -0.444468 -2.61946 223.938 1.32276 -2.91359 
229.277 -3.26885 -1.18882 
force 3 43 double
-0.0220416 -0.0184172 0.00585929 -0.0420768 0.0424805 0.0916843 15.0196 -6.15652 0.100798 
2.58246 -0.339487 -0.716712 0.921411 -3.51022 0.0196951 0.274098 -4.98333 -1.00769 
-6.06087 -2.93076 1.44824 -7.60073 -1.31378 -0.997717 11.6992 -0.111235 -3.00778 
0.746478 0.831289 -2.08614 3.80393 0.117451 -1.41201 -10.2332 9.56922 11.5466 
-17.4122 0.233223 -1.74069 23.0549 -6.39367 2.8307 -1.94538 -1.66403 0.404106 
6.1527 -4.27668 2.51564 -5.90982 -3.52599 -3.78551 0.510219 -1.16656 -0.132929 
-0.144127 0.524243 0.00351289 -19.1025 13.8405 -11.4076 -2.86707 7.88905 -0.583087 
0.29858 0.375053 -0.216231 6.0565 -1.06892 -3.51814 11.0323 -4.48074 -5.4768 
-0.0680444 0.399834 0.334809 2.60304 0.968599 -0.202308 -5.76823 -7.77418 2.2015 
-51.2136 0.842006 -13.8294 4.96537 -0.282488 -0.862186 -0.659787 -0.135139 -1.36629 
1.18257 -0.358157 0.572057 -45.6527 16.0975 6.76347 -7.48924 -9.81213 -2.35895 
-6.42957 -8.83808 -0.2707 6.416 -9.97218 -2.75466 15.2754 1.73055 -2.53781 
-3.87497 -6.52812 -0.157688 1.76003 -2.55313 -3.71472 -27.6736 0.189632 2.12401 
-0.848565 -0.322191 0.500143 -1.91526 -1.46118 1.40502 0.774093 1.35547 -1.51784 
-6.15614 4.99566 0.757046 
force_normal 3 43 double
-0.0239301 -0.0160764 0.00394117 -0.00376666 0.0124811 0.0970303 2.46469 -9.414 0.58001 
0.630447 1.00535 -0.442152 0.214167 -2.44223 -1.65143 -0.151459 -4.99978 -0.176452 
-1.96893 0.500495 3.344 -5.48232 -4.04006 -1.41991 10.9277 -2.68108 -3.45388 
0.48824 -0.739138 -1.27398 0.0345795 -0.494448 -0.134836 -2.2315 9.57604 12.9232 
-12.8187 7.12504 2.37539 18.5863 -0.789471 10.8749 -0.87443 -2.10719 0.410557 
3.91016 -5.96846 0.754347 -3.9867 -5.19253 -3.50393 0.103153 -1.16534 0.152257 
-0.0106938 0.449416 -0.185483 -8.41941 14.7688 -16.133 0.870238 7.45121 -0.599911 
0.120349 0.447462 -0.0809369 -0.34592 -0.587383 -0.6809 7.81646 3.02073 -5.89683 
-0.018929 0.410385 0.0104842 0.0125324 0.79464 0.324207 -1.39523 -8.52612 2.05043 
-31.448 7.54935 -31.7897 0.0797779 -0.481892 0.261375 0.0448654 -0.681213 -0.431986 
0.156028 -0.698826 0.348589 -33.5628 28.7051 10.8183 1.71587 -8.01001 -1.00233 
-5.94891 -8.66622 1.95441 -0.903221 -5.99493 -5.75106 11.7183 7.49075 -0.888119 
-0.592716 -6.81452 -0.0820283 -0.394698 -2.41316 -3.57116 -21.2901 0.0339543 12.7683 
-0.521823 -0.565303 -0.059129 -2.15543 -1.23911 0.201495 0.16223 1.15934 -1.70897 
-6.20894 4.66814 1.538 
force_tangential 3 43 double
0.00188846 -0.00234079 0.00191812 -0.0383101 0.0299994 -0.00534603 12.5549 3.25748 -0.479212 
1.95201 -1.34484 -0.274561 0.707244 -1.06799 1.67113 0.425557 0.0164445 -0.831239 
-4.09194 -3.43126 -1.89576 -2.11841 2.72628 0.422193 0.7715 2.56985 0.446096 
0.258238 1.57043 -0.812162 3.76935 0.611898 -1.27717 -8.00169 -0.00681983 -1.37663 
-4.59341 -6.89182 -4.11608 4.4686 -5.60419 -8.04415 -1.07095 0.443159 -0.0064509 
2.24254 1.69178 1.76129 -1.92311 1.66654 -0.281588 0.407066 -0.00122855 -0.285186 
-0.133433 0.0748277 0.188996 -10.6831 -0.928303 4.72543 -3.73731 0.43784 0.0168235 
0.178231 -0.072409 -0.135295 6.40242 -0.481541 -2.83724 3.21587 -7.50147 0.420021 
-0.0491155 -0.0105511 0.324325 2.59051 0.173959 -0.526515 -4.373 0.751936 0.151073 
-19.7656 -6.70735 17.9603 4.88559 0.199404 -1.12356 -0.704652 0.546074 -0.934308 
1.02654 0.340669 0.223468 -12.0899 -12.6076 -4.05482 -9.20511 -1.80212 -1.35663 
-0.480655 -0.171862 -2.22511 7.31922 -3.97725 2.9964 3.55711 -5.76021 -1.6497 
-3.28225 0.286396 -0.0756594 2.15473 -0.139975 -0.143564 -6.38348 0.155678 -10.6443 
-0.326742 0.243112 0.559272 0.240172 -0.222071 1.20353 0.611863 0.196125 0.191131 
0.0527967 0.327522 -0.780954 
contact_area 1 43 double
3.28636e-07 7.45128e-07 5.76703e-06 7.88217e-06 1.7987e-06 8.06274e-06 1.14678e-06 1.07255e-05 1.51462e-05 
1.22395e-06 8.55866e-06 2.23339e-05 1.79516e-05 2.02902e-05 2.02218e-06 1.36385e-05 1.35549e-05 3.6386e-06 
2.87848e-06 2.37929e-05 1.5559e-05 4.34736e-06 1.18463e-05 6.46999e-07 2.37295e-06 1.19889e-05 1.22796e-05 
2.46704e-05 5.44492e-06 5.84922e-06 3.67655e-06 2.55273e-05 1.04359e-05 1.40379e-05 1.8944e-05 1.50371e-05 
1.48614e-05 1.27948e-05 1.78763e-05 3.90107e-06 6.21119e-06 4.10146e-07 1.41985e-05 
