# vtk DataFile Version 4.0
Generated by LIGGGHTS
ASCII
DATASET POLYDATA
POINTS 16 float
0.616383 0.112534 0.00297135 0.612289 0.108951 0.00516519 0.778161 0.423671 0.00300008 
0.781446 0.418721 0.00282344 0.847293 0.629854 0.00299328 0.84516 0.630872 0.00799362 
0.802321 0.795834 0.00286912 0.804848 0.800884 0.0048565 0.514203 0.0505902 0.0153211 
0.513287 0.0479057 0.0200592 0.618961 0.384213 0.0154151 0.619249 0.387524 0.0180369 
0.636114 0.758565 0.0151269 0.636745 0.762421 0.0116895 0.283901 0.809952 0.013926 
0.283956 0.811747 0.0188043 
LINES 8 24
2 0 1 
2 2 3 
2 4 5 
2 6 7 
2 8 9 
2 10 11 
2 12 13 
2 14 15 

CELL_DATA 8
FIELD FieldData 6
vel1 3 8 double
14.2101 0.0809371 -0.241489 13.7342 0.188502 0.161697 1.82901 -0.0206978 -0.134263 
13.3983 -0.435141 0.280615 15.9912 0.104807 0.251257 32.3905 -1.42849 -3.08108 
67.5679 -0.473259 0.236087 16.6128 -0.374225 -0.500836 
vel2 3 8 double
14.0542 -0.0813407 -2.19276 12.5368 -0.265882 0.780518 12.7679 0.0728818 0.0296795 
14.3675 0.493367 -1.71115 68.8914 -0.104807 0.384463 61.4488 3.23871 3.01676 
17.3147 0.473259 -0.694712 67.8249 0.0306269 0.303115 
force 3 8 double
0.259061 0.226648 -0.389413 -0.109627 0.127308 0.0869623 3.32721 -0.560528 -2.81108 
0.0581738 0.0915298 0.0428556 4.30481 2.90251 -5.13784 1.9903 -3.88668 -2.80484 
-4.13741 -4.665 4.15199 1.34195 -0.959354 -2.58526 
force_normal 3 8 double
0.324406 0.283967 -0.173846 -0.0935272 0.140917 0.00502859 1.51524 -0.722983 -3.55115 
0.04896 0.0978498 0.0385113 1.08345 3.17596 -5.60554 -0.315478 -3.63092 -2.87484 
-0.81189 -4.96512 4.42538 -0.0294306 -0.947271 -2.57403 
force_tangential 3 8 double
-0.0653454 -0.0573198 -0.215567 -0.0160996 -0.0136092 0.0819338 1.81197 0.162455 0.740074 
0.00921379 -0.00632 0.00434426 3.22136 -0.27345 0.467703 2.30578 -0.255767 0.0700025 
-3.32552 0.300111 -0.273393 1.37138 -0.012083 -0.0112332 
contact_area 1 8 double
1.2456e-06 5.3117e-07 4.24738e-06 1.32669e-07 4.32363e-06 1.41992e-05 7.00021e-06 7.04894e-06 
