# vtk DataFile Version 4.0
Generated by LIGGGHTS
ASCII
DATASET POLYDATA
POINTS 48 float
0.851762 0.00665645 0.00284162 0.84933 0.00359198 0.00346577 0.847464 0.0379635 0.0109376 
0.847163 0.0346377 0.0150625 0.835371 0.108149 0.00388336 0.840429 0.108681 0.00256156 
0.847002 0.251426 0.00269161 0.846879 0.256182 0.00520674 0.847374 0.260566 0.00295859 
0.846879 0.256182 0.00520674 0.847008 0.292982 0.0027984 0.848335 0.294679 0.00839189 
0.85344 0.327881 0.00295053 0.849431 0.329535 0.00385678 0.85344 0.327881 0.00295053 
0.85876 0.32975 0.00298698 0.844411 0.331856 0.00299517 0.849431 0.329535 0.00385678 
0.844302 0.379154 0.00299479 0.848487 0.381001 0.00298535 0.846367 0.385385 0.00301539 
0.848487 0.381001 0.00298535 0.849509 0.416493 0.00446212 0.847297 0.418606 0.00434304 
0.849336 0.726775 0.00233181 0.849418 0.728715 0.00546069 0.8394 0.00426641 0.00277865 
0.834114 0.00509813 0.00443398 0.846318 0.00948641 0.00391914 0.847752 0.0143859 0.00305518 
0.848322 0.480683 0.00505182 0.846327 0.482415 0.00954416 0.846327 0.482415 0.00954416 
0.848979 0.486455 0.00971973 0.527286 0.386849 0.0133362 0.531858 0.388085 0.0143596 
0.704182 0.691652 0.0160588 0.709029 0.692989 0.018521 1.09225 0.405717 0.020236 
1.09617 0.41012 0.0202055 1.23065 0.595682 0.0956808 1.23023 0.601255 0.0973295 
1.49275 0.321479 0.18416 1.48949 0.325474 0.181387 1.52989 0.814503 0.216025 
1.53335 0.811823 0.219824 1.12398 0.815907 0.433542 1.12107 0.816514 0.438589 

LINES 24 72
2 0 1 
2 2 3 
2 4 5 
2 6 7 
2 8 9 
2 10 11 
2 12 13 
2 14 15 
2 16 17 
2 18 19 
2 20 21 
2 22 23 
2 24 25 
2 26 27 
2 28 29 
2 30 31 
2 32 33 
2 34 35 
2 36 37 
2 38 39 
2 40 41 
2 42 43 
2 44 45 
2 46 47 

CELL_DATA 24
FIELD FieldData 6
vel1 3 24 double
15.6854 6.38421 -0.136127 -2.15668 4.0386 3.53492 38.0798 1.61719 4.81042 
-1.83161 0.76965 0.18003 -3.90541 -0.854025 -0.831423 0.754245 1.02243 1.41409 
17.4883 -1.21544 -0.503987 17.4883 -1.21544 -0.503987 34.7162 0.0304684 0.0473872 
31.8189 -0.326053 0.00393151 -2.24464 8.42933 0.0568557 6.90831 -0.302619 -0.0911709 
5.25537 0.598122 -2.10338 55.9882 0.531056 0.896498 -1.7888 -4.8838 2.03246 
-1.03006 -1.40825 -1.11734 0.399345 -3.66157 5.01592 71.4833 -3.38224 -3.26709 
76.3033 -1.19551 -3.23679 150.555 -0.0279619 0.0476487 325.422 -0.539803 -2.38514 
327.157 -0.263101 -1.86259 327.448 0.364124 -2.47654 324.705 -0.00542274 -2.29753 

vel2 3 24 double
3.49469 -10.9103 4.45841 -1.13741 0.0533962 4.21914 38.8969 0.525086 -1.43579 
0.371306 -1.99673 1.62617 0.371306 -1.99673 1.62617 0.0875494 -1.17588 2.98109 
12.2268 1.34193 0.797471 16.3577 0.21691 -0.160978 12.2268 1.34193 0.797471 
-3.41299 -0.0200286 -0.00507185 -3.41299 -0.0200286 -0.00507185 6.25553 8.15911 0.450554 
14.4398 5.93028 15.1518 164.3 -0.57868 -2.71269 -4.51812 1.55171 0.370709 
0.399345 -3.66157 5.01592 -2.98713 -0.78646 2.3132 148.506 2.62053 0.463902 
153.225 1.28642 2.05514 149.012 0.0279619 0.0966889 329.948 0.539803 -2.11333 
327.659 0.263101 -2.21122 326.775 -0.364124 -1.41931 327.413 0.00542274 -2.23226 

force 3 24 double
-8.73716 3.96588 2.29805 0.429687 1.00182 -0.584177 -1.56508 -0.169581 1.37485 
1.06201 -3.8528 -0.337912 1.30864 3.82131 -1.79469 -0.0281891 0.0661111 0.123974 
5.13913 -1.8082 -0.904187 -1.88121 1.04353 0.664219 -12.7786 2.68029 0.635745 
-33.7458 -4.28959 0.0392197 -1.03776 0.800006 0.00435355 19.1285 -9.11175 1.83699 
-2.54822 -6.9716 0.608523 58.9128 6.07952 -8.61822 -0.110078 -0.142265 0.0909474 
0.664799 0.0307823 -0.903747 -6.54951 -2.96103 -1.31263 44.4577 11.2554 8.26252 
29.7246 7.18533 20.2922 -0.664789 -0.166306 0.0136925 0.0155372 -0.0250135 -0.00756226 
0.0595988 -0.142948 0.108621 -0.0140389 0.123387 -0.190775 1.0798 -0.0336236 -0.316812 

force_normal 3 24 double
-1.6307 -2.05529 0.418612 0.0626507 0.693197 -0.859756 -1.79941 -0.189147 0.470201 
0.0824129 -3.17039 -1.67654 0.433346 3.83256 -1.96571 0.028372 0.0362994 0.119605 
4.98643 -2.05625 -1.12719 -1.34414 -0.472181 -0.00921178 -11.1866 5.1739 -1.92003 
-29.8283 -13.1653 0.0673037 -0.510202 1.05509 0.00723197 14.5863 -13.9279 0.785146 
-0.0713209 -1.69331 -2.73004 54.0205 -8.49955 -16.9161 -0.049927 -0.170601 0.0300831 
0.391741 -0.340062 -0.882045 -3.35244 -5.10708 -0.221932 43.9363 11.8829 9.83362 
31.491 8.68826 15.9992 -0.376189 -0.423027 0.00293548 0.00197798 -0.0260057 -0.00769473 
0.101416 -0.124325 0.0863097 -0.113715 0.0881094 -0.124924 0.403826 -0.084309 -0.700435 

force_tangential 3 24 double
-7.10646 6.02117 1.87944 0.367036 0.308622 0.275579 0.234336 0.0195665 0.904651 
0.979599 -0.682417 1.33863 0.875294 -0.0112544 0.171019 -0.0565611 0.0298116 0.00436946 
0.1527 0.248052 0.223008 -0.537069 1.51571 0.673431 -1.59198 -2.49361 2.55577 
-3.91749 8.87566 -0.028084 -0.527558 -0.255087 -0.00287842 4.54217 4.81617 1.05184 
-2.4769 -5.27829 3.33857 4.89228 14.5791 8.29789 -0.0601513 0.0283361 0.0608643 
0.273058 0.370845 -0.0217021 -3.19707 2.14605 -1.0907 0.521337 -0.627461 -1.5711 
-1.76642 -1.50293 4.29298 -0.2886 0.256721 0.010757 0.0135592 0.000992115 0.000132463 
-0.0418176 -0.0186231 0.0223113 0.0996759 0.0352773 -0.0658509 0.675975 0.0506853 0.383623 

contact_area 1 24 double
1.59497e-05 6.15201e-06 6.58386e-06 5.52727e-06 9.02222e-06 5.54204e-08 1.28594e-05 3.30584e-06 3.66528e-06 
1.18441e-05 9.65236e-06 2.09142e-05 1.76221e-05 3.63183e-06 7.2197e-06 6.94167e-06 9.90656e-06 9.82864e-06 
3.66216e-06 1.01002e-06 1.61156e-06 1.3586e-06 1.90843e-06 1.32438e-06 
