# vtk DataFile Version 4.0
Generated by LIGGGHTS
ASCII
DATASET POLYDATA
POINTS 4 float
0.532012 0.0859619 0.00291817 0.52799 0.0878367 0.00694596 0.69106 0.284036 0.0149499 
0.694453 0.280198 0.0178084 
LINES 2 6
2 0 1 
2 2 3 

CELL_DATA 2
FIELD FieldData 6
vel1 3 2 double
0.481962 0.0114101 -1.08601 -0.0502983 0.056913 -0.471815 
vel2 3 2 double
-0.398411 0.276684 -1.60588 0.0502983 -0.056913 -2.16468 
force 3 2 double
-0.0628514 0.0317548 0.0126234 -0.222912 0.252226 -0.493944 
force_normal 3 2 double
-0.040674 0.0189578 0.040728 -0.309169 0.349828 -0.26051 
force_tangential 3 2 double
-0.0221774 0.0127969 -0.0281046 0.0862577 -0.0976013 -0.233434 
contact_area 1 2 double
6.42908e-08 1.24448e-06 
