# vtk DataFile Version 4.0
Generated by LIGGGHTS
ASCII
DATASET POLYDATA
POINTS 44 float
0.544275 0.0767449 0.00237831 0.540523 0.0770885 0.00489771 0.851666 0.149093 0.00299651 
0.854917 0.153805 0.00371095 0.84738 0.294221 0.00346164 0.847477 0.299811 0.00346647 
0.851059 0.310232 0.00370903 0.855272 0.312982 0.00441958 0.852594 0.356442 0.00298753 
0.856719 0.359733 0.00306181 0.847771 0.365144 0.00291683 0.847038 0.369318 0.0030635 
0.844789 0.388168 0.00281634 0.842622 0.388493 0.00297422 0.844789 0.388168 0.00281634 
0.847543 0.39204 0.00397393 0.849903 0.433529 0.00291807 0.847938 0.429494 0.0043139 
0.848802 0.460454 0.00154135 0.849456 0.459286 0.00600564 0.296587 0.469327 0.00268665 
0.294378 0.467947 0.00651617 0.847208 0.663926 0.00282238 0.847575 0.669216 0.00412562 
0.847575 0.669216 0.00412562 0.848488 0.66776 0.00963139 0.847827 0.774796 0.00281479 
0.846714 0.773612 0.00547822 0.847021 0.838059 0.0119067 0.846543 0.833912 0.00767438 
0.455527 0.182739 0.00890149 0.450568 0.184288 0.00821121 0.849124 0.665103 0.00921073 
0.848488 0.66776 0.00963139 0.688277 0.0526009 0.0110954 0.683514 0.0503696 0.00987518 
0.851872 0.671762 0.01182 0.848488 0.66776 0.00963139 0.849283 0.03573 0.0183646 
0.846511 0.0339994 0.0201084 0.940744 0.0414253 0.0199814 0.945579 0.0437191 0.0199654 
0.868596 0.0936784 0.0144066 0.867528 0.0951482 0.0198484 
LINES 22 66
2 0 1 
2 2 3 
2 4 5 
2 6 7 
2 8 9 
2 10 11 
2 12 13 
2 14 15 
2 16 17 
2 18 19 
2 20 21 
2 22 23 
2 24 25 
2 26 27 
2 28 29 
2 30 31 
2 32 33 
2 34 35 
2 36 37 
2 38 39 
2 40 41 
2 42 43 

CELL_DATA 22
FIELD FieldData 6
vel1 3 22 double
49.8504 -2.22428 -3.14219 21.5863 0.00843034 0.0103572 -0.361914 -0.485558 0.467334 
17.8391 -1.43444 -0.360401 12.8524 -1.21877 -0.0162382 -0.528161 2.36208 -0.00819717 
18.1045 -0.524412 0.219472 18.1045 -0.524412 0.219472 19.1123 5.96091 -1.15483 
-4.47085 1.96703 -1.32538 45.4174 2.2389 -3.3948 1.05689 -0.346346 0.580925 
-2.30812 2.7015 1.9909 8.52273 1.46432 -2.3046 -0.298698 7.4589 3.17166 
43.93 -0.320729 0.0769201 1.35035 -3.32648 1.87248 52.8091 2.4861 -0.810134 
22.0162 0.0607021 -0.0963786 15.0141 7.5671 5.18236 175.918 -3.57267 -0.816578 
175.33 1.45936 -1.03928 
vel2 3 22 double
49.933 0.29674 3.69696 17.7784 0.0756462 0.00937089 0.137137 1.00736 0.255621 
23.274 1.96613 0.591085 17.8621 2.51799 0.0754318 -1.51685 -5.04051 0.0862261 
18.1494 1.01924 -0.00926661 2.20423 0.821686 0.442283 2.95392 8.8562 0.209806 
-5.64424 0.290656 -1.07658 56.9927 -0.770273 2.47752 -2.30812 2.7015 1.9909 
26.5699 7.07148 3.80328 23.335 -1.81376 5.77175 0.78789 0.418627 8.26128 
70.1475 -1.20616 -2.69955 26.5699 7.07148 3.80328 48.4466 -2.40842 -0.387445 
26.5699 7.07148 3.80328 204.67 0.176281 0.754733 175.85 3.09618 0.98036 
186.49 0.144666 0.2686 
force 3 22 double
4.47255 0.636662 -4.5005 -1.95864 -0.53777 -0.0832892 -0.268442 -0.514762 -0.00953292 
-0.105239 -0.180491 -0.0463243 1.60638 -0.764717 -0.0211524 5.03204 -16.9102 -0.235879 
38.1186 -1.14292 -0.537882 -15.2252 -3.41646 -0.731557 0.628886 4.02083 -1.59422 
-6.74486 0.254225 -6.85085 4.18842 2.18514 -6.50289 -1.42302 0.00457942 -0.626172 
1.22527 -0.365499 1.67348 18.521 6.58247 -15.6778 0.105604 -0.307522 -0.17372 
19.6948 -4.28459 -6.27215 17.9995 -21.3662 -6.72692 -1.45701 0.0780535 0.769693 
8.92988 0.576699 -0.283444 169.109 1.394 -17.7991 -0.683591 -0.823793 -0.175228 
0.848502 -0.383068 -1.06089 
force_normal 3 22 double
5.09611 -0.466524 -3.42126 -0.875366 -1.26868 -0.192352 -0.00897448 -0.519254 -0.000448543 
-0.158727 -0.103574 -0.0267682 0.60832 0.485389 0.010954 3.02798 -17.249 -0.606062 
37.2906 -5.59972 -2.71689 -6.44872 -9.06701 -2.71036 1.75126 3.59536 -1.2438 
-1.0634 1.89754 -7.25386 3.82787 2.39187 -6.63635 -0.0161869 -0.233184 -0.0574451 
0.2982 -0.475419 1.79816 8.02178 8.53417 -19.1973 -0.0264913 -0.230023 -0.234751 
18.049 -5.63899 2.5122 5.91333 -24.7049 -3.9115 -0.951913 -0.445927 -0.24385 
3.34814 3.95853 2.1651 101.478 63.3469 -63.8332 -0.87654 -0.415908 0.0028949 
0.235124 -0.323417 -1.19744 
force_tangential 3 22 double
-0.623553 1.10319 -1.07924 -1.08327 0.730905 0.109063 -0.259468 0.00449234 -0.00908437 
0.0534884 -0.0769167 -0.0195561 0.998061 -1.25011 -0.0321064 2.00405 0.338796 0.370183 
0.828009 4.4568 2.179 -8.77646 5.65055 1.9788 -1.12237 0.425469 -0.350424 
-5.68146 -1.64332 0.403013 0.36055 -0.206727 0.133458 -1.40683 0.237764 -0.568726 
0.927067 0.10992 -0.124679 10.4992 -1.95171 3.51955 0.132096 -0.0774988 0.0610311 
1.64582 1.3544 -8.78435 12.0862 3.3387 -2.81541 -0.505097 0.52398 1.01354 
5.58174 -3.38183 -2.44855 67.6307 -61.9529 46.0342 0.192949 -0.407885 -0.178123 
0.613377 -0.059651 0.136551 
contact_area 1 22 double
1.21356e-05 2.13159e-06 3.71843e-06 7.99867e-06 6.3972e-06 1.4151e-05 2.44836e-05 9.48602e-06 1.09245e-05 
1.12139e-05 1.14279e-05 4.85441e-06 2.14711e-06 2.0629e-05 5.1972e-07 6.69744e-06 2.22737e-05 5.37571e-06 
2.94018e-06 1.74971e-05 5.78572e-06 2.423e-06 
