# vtk DataFile Version 4.0
Generated by LIGGGHTS
ASCII
DATASET POLYDATA
POINTS 58 float
0.853427 0.0274179 0.00380161 0.858372 0.0307014 0.00299723 0.833591 0.100688 0.00325133 
0.832044 0.106098 0.00310422 0.848728 0.110981 0.00503845 0.851754 0.113642 0.00269349 
0.860273 0.220309 0.00307253 0.854915 0.21956 0.00291373 0.848474 0.243059 0.00304635 
0.84488 0.241554 0.00281115 0.848474 0.243059 0.00304635 0.846809 0.238636 0.00411488 
0.84488 0.241554 0.00281115 0.846809 0.238636 0.00411488 0.84808 0.25032 0.00278719 
0.84792 0.255909 0.00364357 0.847327 0.288021 0.00476354 0.84913 0.293601 0.0038789 
0.84913 0.293601 0.0038789 0.849368 0.29745 0.00244015 0.849368 0.29745 0.00244015 
0.848368 0.301656 0.00379101 0.846943 0.377477 0.00299269 0.849082 0.378114 0.0029991 
0.849082 0.378114 0.0029991 0.848361 0.381188 0.00793121 0.847945 0.387632 0.00283891 
0.847979 0.391557 0.00519742 0.849179 0.39356 0.00369001 0.847979 0.391557 0.00519742 
0.518408 0.458088 0.00291618 0.518625 0.45258 0.0050596 0.848396 0.458399 0.00325561 
0.851704 0.462186 0.00305869 0.850462 0.512351 0.00450262 0.848726 0.513756 0.00231237 
0.84954 0.56882 0.00235426 0.848814 0.567381 0.00596124 0.846547 0.625033 0.00296028 
0.847931 0.623115 0.00383909 0.846547 0.625033 0.00296028 0.847505 0.63006 0.00439443 
0.85219 0.729539 0.00479619 0.848651 0.730082 0.00190404 0.843173 0.737949 0.00281011 
0.847662 0.740069 0.00293271 0.843173 0.737949 0.00281011 0.844493 0.741355 0.00624513 
0.847662 0.740069 0.00293271 0.844493 0.741355 0.00624513 0.846704 0.792516 0.00276142 
0.847468 0.791399 0.00854354 0.828269 0.434906 0.00669846 0.8233 0.435613 0.0082258 
0.849238 0.481601 0.0182909 0.848289 0.485619 0.0203972 1.47573 0.71339 0.0203246 
1.47196 0.71677 0.0171928 
LINES 29 87
2 0 1 
2 2 3 
2 4 5 
2 6 7 
2 8 9 
2 10 11 
2 12 13 
2 14 15 
2 16 17 
2 18 19 
2 20 21 
2 22 23 
2 24 25 
2 26 27 
2 28 29 
2 30 31 
2 32 33 
2 34 35 
2 36 37 
2 38 39 
2 40 41 
2 42 43 
2 44 45 
2 46 47 
2 48 49 
2 50 51 
2 52 53 
2 54 55 
2 56 57 

CELL_DATA 29
FIELD FieldData 6
vel1 3 29 double
25.1681 -0.000825543 -0.00422718 4.94587 4.24105 0.0498931 -0.205068 -7.47281 6.85394 
25.8908 0.028495 -0.0599036 9.31814 -1.53367 0.881478 9.31814 -1.53367 0.881478 
17.4951 3.4061 -2.22794 -0.766272 -0.486776 -0.170102 -1.03866 -0.389155 0.734692 
0.664173 -0.709803 0.596791 1.58833 3.46602 -2.94974 20.6152 -2.82204 -0.0845669 
22.0094 0.141145 -0.040104 6.09909 -1.06542 -0.406017 8.74478 1.95899 -3.89351 
49.3611 0.3795 -0.0165718 3.47651 -10.0424 0.507762 15.443 0.141034 2.63215 
17.2583 3.80899 -6.72593 28.8396 2.13111 -1.1742 28.8396 2.13111 -1.1742 
16.1181 -0.532691 3.26065 13.1682 -2.03854 -0.877715 13.1682 -2.03854 -0.877715 
6.05911 -1.05481 -1.46094 1.69495 8.21434 -0.068849 48.7599 -0.184118 0.0592416 
-7.99389 -0.593747 5.82868 220.969 -0.275482 0.333813 
vel2 3 29 double
25.0251 0.000992368 0.000995382 50.1201 0.234678 0.0832406 15.0525 1.79439 -1.07939 
139.388 -2.51392 -0.285497 17.4951 3.4061 -2.22794 23.5318 -9.1855 2.97602 
23.5318 -9.1855 2.97602 0.751438 -0.256435 1.19891 0.664173 -0.709803 0.596791 
1.58833 3.46602 -2.94974 0.522839 3.78893 0.729846 22.0094 0.141145 -0.040104 
-1.37687 -9.69662 6.71383 14.3668 1.06313 10.7521 14.3668 1.06313 10.7521 
50.0552 0.204055 0.0876851 14.1693 1.57212 -0.513131 2.6056 6.16329 -5.9888 
4.45812 0.49985 1.02743 7.56517 -1.47574 2.2805 2.23238 0.234362 0.339088 
-2.49653 1.32074 -3.28816 6.05911 -1.05481 -1.46094 38.721 2.39517 2.64864 
38.721 2.39517 2.64864 -0.856266 -0.11973 1.31805 198.441 1.13507 2.16552 
-2.77284 -2.82465 9.19741 221.394 0.275482 -0.321094 
force 3 29 double
-0.03319 -0.00388302 0.00722371 20.9324 -4.22564 -0.494524 6.30404 2.08012 -1.68118 
69.0772 5.41879 -2.26763 24.5678 1.12579 0.935909 3.68243 3.44656 -0.59314 
-4.81938 2.66866 -1.55892 0.282825 -0.855504 0.192642 0.00166309 -0.0108688 0.00265355 
2.05279 -9.29761 1.4944 -3.97624 -9.69102 0.739025 -35.1269 -6.01159 -0.39743 
-0.681615 0.412722 1.00613 2.31986 -6.48555 4.94026 21.0901 12.3328 -11.0241 
-0.00927715 0.041674 -0.0153814 9.06214 -0.171242 0.697395 10.5305 -3.02251 5.20959 
-3.3071 1.47399 -7.03917 -39.0075 20.5143 -9.68442 -4.52627 -5.79037 -1.63312 
-5.81857 0.261146 -1.33722 -10.3615 -0.48436 2.35948 5.40868 1.43183 1.22771 
24.6452 -0.887708 -4.75395 -0.276203 -0.634826 0.735347 86.016 -10.257 -34.1141 
3.13852 -7.98389 -3.7033 -0.0619691 0.0327358 -0.0268945 
force_normal 3 29 double
-0.0251762 -0.0167177 0.0040954 2.69432 -9.42109 0.256189 3.97623 3.49508 -3.08048 
68.3725 9.55198 2.02646 21.2806 8.90771 1.39257 1.56079 4.14648 -1.00169 
-2.64615 4.00292 -1.78808 0.0232942 -0.814299 -0.124759 -0.00307569 -0.00951915 0.00150896 
-0.52699 -8.50741 3.18059 1.74406 -7.33733 -2.35626 -33.9104 -10.0992 -0.101641 
-0.141346 0.602494 0.966854 -0.0224751 -2.56877 -1.54362 10.3513 17.2763 -13.0045 
-0.00163425 0.041652 -0.0162084 3.8123 4.36539 -0.226972 6.02351 -4.8725 7.59664 
1.16772 2.31493 -5.80331 -22.134 30.6838 -14.0556 -1.21456 -6.36939 -1.81709 
-4.10989 0.630777 -3.35866 -8.60073 -4.06226 -0.234896 0.852579 2.19948 2.21786 
13.277 -5.39003 -13.8799 0.102969 -0.150376 0.778759 87.8788 -12.5042 -27.0142 
1.893 -8.01659 -4.20203 -0.0455751 0.0408624 -0.0378586 
force_tangential 3 29 double
-0.00801376 0.0128347 0.00312831 18.238 5.19545 -0.750713 2.32781 -1.41497 1.39929 
0.704698 -4.13319 -4.2941 3.28728 -7.78193 -0.45666 2.12164 -0.699919 0.408546 
-2.17323 -1.33426 0.229159 0.25953 -0.0412049 0.317401 0.00473878 -0.00134969 0.00114459 
2.57978 -0.790206 -1.68619 -5.7203 -2.35369 3.09528 -1.2165 4.08763 -0.295789 
-0.540269 -0.189771 0.0392731 2.34233 -3.91678 6.48389 10.7389 -4.94356 1.98042 
-0.0076429 2.19498e-05 0.00082702 5.24984 -4.53663 0.924367 4.50696 1.85 -2.38705 
-4.47482 -0.840945 -1.23586 -16.8735 -10.1695 4.37119 -3.31171 0.579016 0.183971 
-1.70868 -0.369631 2.02144 -1.76076 3.5779 2.59437 4.5561 -0.767649 -0.990145 
11.3682 4.50232 9.12597 -0.379172 -0.484451 -0.0434112 -1.8628 2.24722 -7.09999 
1.24552 0.0326975 0.498722 -0.0163941 -0.00812661 0.0109641 
contact_area 1 29 double
9.42681e-08 3.39045e-06 1.12004e-05 5.2692e-06 1.63064e-05 9.83469e-06 1.73254e-05 3.14025e-06 6.45837e-07 
1.49723e-05 1.21581e-05 2.4364e-05 1.34184e-06 1.18059e-05 2.22093e-05 8.00691e-07 8.38609e-06 2.05878e-05 
1.60164e-05 2.3273e-05 6.08916e-06 1.16362e-05 8.90509e-06 8.52344e-06 1.04722e-05 5.78063e-07 6.66104e-06 
1.14015e-05 4.32376e-07 
