# vtk DataFile Version 4.0
Generated by LIGGGHTS
ASCII
DATASET POLYDATA
POINTS 14 float
0.844653 0.410268 0.00226282 0.847992 0.407066 0.00440422 0.642553 0.806365 0.00852836 
0.640484 0.804244 0.0136679 0.444471 0.102355 0.0104139 0.445614 0.104226 0.0118821 
0.846874 0.724133 0.0102849 0.843841 0.722518 0.0102826 0.844815 0.0478343 0.0144366 
0.849255 0.047692 0.0150952 0.694553 0.375582 0.0194655 0.689423 0.377028 0.0193754 
0.641861 0.015754 0.0210503 0.645368 0.0183264 0.0180784 
LINES 7 21
2 0 1 
2 2 3 
2 4 5 
2 6 7 
2 8 9 
2 10 11 
2 12 13 

CELL_DATA 7
FIELD FieldData 6
vel1 3 7 double
-2.78147 3.03062 -0.802917 21.0013 0.321897 0.353591 41.6297 -5.23126 -4.3921 
8.38397 0.435794 -0.35135 -6.42357 0.299772 -1.19789 83.3683 -3.09859 2.541 
100.026 -2.99456 4.93341 
vel2 3 7 double
-3.89562 -0.675021 0.619259 21.1587 0.056709 -0.133736 85.6943 5.23126 2.49168 
98.773 -0.435794 -2.35014 -3.56238 -0.0207122 0.113989 104.393 -1.06118 0.9689 
98.6057 2.38328 -2.60346 
force 3 7 double
-1.6921 1.12992 -2.65303 0.115295 -0.0217081 -0.219525 0.0621257 -3.12012 -2.5191 
96.4293 9.07679 -1.61511 -7.18391 0.146347 -0.672392 18.2976 9.56105 -6.57724 
0.0373998 -0.305175 -1.1529 
force_normal 3 7 double
-1.92053 1.84213 -1.23192 0.0776385 0.0795975 -0.192875 -1.55372 -2.54362 -1.99596 
78.8895 42.0111 0.0596287 -7.12426 0.228408 -1.05678 14.3421 -4.04354 0.251923 
0.350383 0.257041 -0.296952 
force_tangential 3 7 double
0.228431 -0.712212 -1.42112 0.0376567 -0.101306 -0.0266497 1.61584 -0.576499 -0.523139 
17.5398 -32.9343 -1.67474 -0.0596494 -0.0820612 0.384388 3.95558 13.6046 -6.82916 
-0.312983 -0.562216 -0.85595 
contact_area 1 7 double
7.86644e-06 6.3338e-07 2.2806e-05 1.89996e-05 1.24365e-05 5.95555e-06 6.48357e-06 
