# vtk DataFile Version 4.0
Generated by LIGGGHTS
ASCII
DATASET POLYDATA
POINTS 14 float
0.53537 0.0859971 0.00284749 0.53091 0.0882241 0.00590552 0.558499 0.269412 0.00299371 
0.55992 0.274889 0.00489811 0.767877 0.423516 0.00293091 0.771521 0.418923 0.00370872 
0.266374 0.535686 0.00305845 0.272206 0.534472 0.00296486 0.521713 0.515296 0.0123418 
0.521015 0.517751 0.0169553 0.848786 0.794858 0.0179338 0.849731 0.79961 0.0196236 
0.231452 0.812087 0.0194828 0.235309 0.815067 0.0225761 
LINES 7 21
2 0 1 
2 2 3 
2 4 5 
2 6 7 
2 8 9 
2 10 11 
2 12 13 

CELL_DATA 7
FIELD FieldData 6
vel1 3 7 double
6.70132 -0.0841701 0.257083 7.066 -0.00401306 -0.0631537 6.82573 0.188482 -0.105706 
7.09401 -0.428351 0.0962403 15.5546 -1.99828 -3.96762 -3.23547 1.61994 0.7599 
34.9837 -0.296649 -0.734409 
vel2 3 7 double
6.1047 0.562451 -0.302621 7.07457 0.00401924 -2.39824 7.23306 -0.20112 -2.16432 
7.32413 -0.144303 0.0101398 26.8867 1.99828 3.58611 4.77154 5.89971 2.19118 
35.7519 0.296649 -1.64667 
force 3 7 double
0.0696692 -0.0311124 -0.122286 -0.0124375 -0.0491869 -0.586907 -0.0129389 0.0172054 -0.0145678 
0.00528031 -0.00948672 0.00306776 -2.42936 0.4266 0.781645 -0.0413074 -0.249421 -0.0699336 
-0.303373 -0.234304 -0.139063 
force_normal 3 7 double
0.0983169 -0.0490916 -0.0674117 -0.0559728 -0.215874 -0.0750627 -0.0143242 0.0180555 -0.00305734 
0.0069043 -0.00143659 -0.000110812 -0.159416 0.560631 1.05374 -0.0481538 -0.24229 -0.0861587 
-0.266067 -0.205491 -0.213341 
force_tangential 3 7 double
-0.0286476 0.0179792 -0.0548743 0.0435353 0.166688 -0.511844 0.00138529 -0.000850055 -0.0115105 
-0.00162399 -0.00805013 0.00317857 -2.26995 -0.134031 -0.2721 0.00684633 -0.00713033 0.0162251 
-0.0373057 -0.0288122 0.0742777 
contact_area 1 7 double
1.41175e-06 2.8308e-07 7.97071e-07 4.01032e-07 6.44335e-06 7.59455e-06 2.09874e-06 
