# vtk DataFile Version 4.0
Generated by LIGGGHTS
ASCII
DATASET POLYDATA
POINTS 34 float
0.723892 0.101439 0.00312271 0.725692 0.0962121 0.00270536 0.796419 0.106014 0.00294714 
0.792781 0.106421 0.00655031 0.847395 0.249836 0.0030187 0.841721 0.249489 0.00299472 
0.847395 0.249836 0.0030187 0.849288 0.254566 0.00475464 0.847776 0.280451 0.00307657 
0.849482 0.286057 0.00340679 0.849482 0.286057 0.00340679 0.848875 0.29082 0.00297971 
0.848685 0.553237 0.00299386 0.845488 0.550174 0.0028662 0.844981 0.739702 0.0029977 
0.849155 0.739866 0.00299227 0.843644 0.794941 0.00306293 0.837785 0.794587 0.00398677 
0.844967 0.82611 0.00467073 0.848488 0.823318 0.0029162 0.723227 0.385176 0.00677708 
0.720804 0.384796 0.0109304 0.685216 0.00853833 0.0108075 0.686391 0.00556347 0.00729869 
0.37334 0.713713 0.0115895 0.376432 0.71747 0.0136892 0.45403 0.261445 0.0162737 
0.452288 0.263765 0.0184104 0.796711 0.599972 0.0186142 0.801261 0.600035 0.0223577 
1.17928 0.327032 0.416997 1.18142 0.329558 0.421822 0.974633 0.474637 0.520614 
0.977403 0.477116 0.525317 
LINES 17 51
2 0 1 
2 2 3 
2 4 5 
2 6 7 
2 8 9 
2 10 11 
2 12 13 
2 14 15 
2 16 17 
2 18 19 
2 20 21 
2 22 23 
2 24 25 
2 26 27 
2 28 29 
2 30 31 
2 32 33 

CELL_DATA 17
FIELD FieldData 6
vel1 3 17 double
32.3644 1.47994 1.36827 33.3462 1.54843 -0.456974 -2.84242 8.0105 -0.137846 
-2.84242 8.0105 -0.137846 0.84276 -0.610916 0.182399 4.2533 2.30907 0.280368 
-5.36814 0.135445 -0.199297 -8.31229 -0.411397 0.00546401 28.4509 -0.479748 -0.234838 
-6.10104 5.83395 3.74454 31.2827 1.41396 -1.44979 35.9757 0.826904 0.541809 
39.0735 -0.943107 -0.279782 38.4314 -0.613696 -0.202201 140.745 -0.0101494 -0.843558 
257.975 -0.276001 -2.60391 260.699 -0.000548145 -2.26655 
vel2 3 17 double
27.0131 -1.62138 0.315045 49.5913 1.70949 0.494175 27.7339 0.244136 -0.0102985 
-7.82204 0.593206 -0.0724131 4.2533 2.30907 0.280368 13.9277 4.62894 -0.235661 
22.6419 -0.853631 -1.49593 -5.02175 0.0341595 -0.00942767 28.0397 -0.918112 0.566189 
-6.00664 -0.307074 -0.137179 48.4747 1.10904 -1.15854 133.958 -0.763548 -3.26423 
130.692 0.943107 -1.64952 131.964 0.591607 0.96826 142.197 0.0101494 -1.35621 
256.587 0.276001 -1.55715 254.471 0.000548145 -2.18958 
force 3 17 double
-0.41996 0.738376 0.46874 10.8582 3.20188 -5.37944 16.6946 -6.9807 0.381164 
-7.83307 -4.98153 -1.00934 -0.242764 1.43448 0.145396 3.58726 -5.34461 0.41208 
29.1023 5.70438 -0.789373 -9.98005 -0.23669 0.00458123 -0.110507 0.00560027 0.0399071 
-2.62668 1.28817 0.81299 11.1942 4.15448 -7.55988 51.7217 0.218182 -0.495078 
43.0066 6.54657 2.65064 90.1454 -10.2083 -9.93668 0.0610657 0.000853533 0.129415 
-0.0327103 -0.0128889 -0.0264413 -1.06465 -0.0332851 -0.0376743 
force_normal 3 17 double
-0.281607 0.818203 0.0653264 7.94019 -0.888594 -7.86367 16.2081 0.991723 0.0685024 
-2.6239 -6.55453 -2.40539 0.380169 1.24912 0.0735807 0.726441 -5.7003 0.511195 
17.9946 17.2373 0.718446 -9.97396 -0.391586 0.012979 -0.113236 -0.00682416 0.0178527 
-2.15949 1.71214 1.07599 6.25995 0.981952 -10.7291 3.22188 -8.16067 -9.62542 
17.9615 21.824 12.1969 27.0995 -36.0924 -33.2345 0.0999055 0.00139641 0.0822002 
-0.0144231 -0.0169782 -0.032433 -0.247344 -0.221326 -0.41995 
force_tangential 3 17 double
-0.138353 -0.0798271 0.403414 2.91805 4.09047 2.48423 0.486486 -7.97242 0.312661 
-5.20917 1.573 1.39605 -0.622934 0.185359 0.0718151 2.86082 0.355691 -0.0991158 
11.1077 -11.5329 -1.50782 -0.00609227 0.154896 -0.00839774 0.00272833 0.0124244 0.0220544 
-0.467188 -0.423973 -0.263001 4.93422 3.17253 3.16925 48.4998 8.37885 9.13034 
25.0451 -15.2774 -9.54624 63.0458 25.8841 23.2978 -0.0388398 -0.000542876 0.0472149 
-0.0182872 0.00408932 0.00599171 -0.817303 0.188041 0.382276 
contact_area 1 17 double
4.13462e-06 7.55143e-06 2.89694e-06 5.5173e-06 1.22024e-06 1.00293e-05 1.28619e-05 1.45687e-05 5.38693e-07 
9.99642e-06 1.00008e-05 1.05707e-05 6.21673e-06 1.80764e-05 1.00627e-06 1.37016e-06 5.62092e-08 
