# vtk DataFile Version 4.0
Generated by LIGGGHTS
ASCII
DATASET POLYDATA
POINTS 48 float
0.863917 0.0101532 0.0027305 0.86029 0.00597231 0.00336474 0.848113 0.0976192 0.00307469 
0.849423 0.102581 0.00355761 0.851443 0.108795 0.0070754 0.854354 0.108752 0.00230485 
0.847171 0.250769 0.00292147 0.847478 0.255712 0.00615631 0.847525 0.293828 0.00325703 
0.847373 0.299653 0.00334254 0.851896 0.3271 0.00298466 0.857007 0.328758 0.00462149 
0.848509 0.333236 0.00267571 0.845774 0.337881 0.00317847 0.847595 0.361848 0.00297634 
0.849902 0.359758 0.00304618 0.844837 0.387681 0.00285627 0.848063 0.39167 0.00380458 
0.556601 0.432415 0.00302818 0.55215 0.434082 0.00622774 0.839284 0.459892 0.00299472 
0.844765 0.459429 0.00538942 0.851333 0.504854 0.00397509 0.847632 0.507078 0.0021989 
0.846466 0.663089 0.00298834 0.849004 0.667922 0.00374343 0.846466 0.663089 0.00298834 
0.844141 0.665202 0.00687966 0.849004 0.667922 0.00374343 0.849334 0.672495 0.0027173 
0.847131 0.690385 0.00377836 0.849747 0.686512 0.0037664 0.848276 0.777213 0.00299726 
0.84922 0.773696 0.0029926 0.847291 0.8337 0.00359779 0.849917 0.833732 0.00237963 
0.86029 0.00597231 0.00336474 0.858288 0.00117415 0.00377064 0.847116 0.486428 0.0108013 
0.850726 0.489885 0.0140402 0.861538 0.0464059 0.0232646 0.863196 0.0432419 0.019744 
1.17175 0.405568 0.0202615 1.17529 0.410268 0.0202498 1.2954 0.815879 0.432178 
1.29339 0.816542 0.437686 1.10907 0.254074 0.506161 1.11223 0.254799 0.510511 

LINES 24 72
2 0 1 
2 2 3 
2 4 5 
2 6 7 
2 8 9 
2 10 11 
2 12 13 
2 14 15 
2 16 17 
2 18 19 
2 20 21 
2 22 23 
2 24 25 
2 26 27 
2 28 29 
2 30 31 
2 32 33 
2 34 35 
2 36 37 
2 38 39 
2 40 41 
2 42 43 
2 44 45 
2 46 47 

CELL_DATA 24
FIELD FieldData 6
vel1 3 24 double
30.7614 7.61628 0.198956 4.83372 0.79138 0.160488 16.9876 1.0057 6.87342 
1.68571 -1.33609 0.445147 0.349246 2.55363 0.475115 13.9839 -0.565398 0.0346108 
-7.47987 0.799668 0.459975 6.13771 3.33924 -0.191825 -4.31648 1.72291 -0.546525 
39.7736 -0.0907351 -0.214859 38.8921 -0.0474362 -0.00392247 13.4782 -0.14269 0.211185 
-0.471166 5.47267 -0.33116 -0.471166 5.47267 -0.33116 0.292203 2.19835 -0.234334 
13.714 7.078 0.0102441 12.1733 9.77429 0.0229442 -2.29406 0.746774 6.15036 
31.7108 6.64789 0.96802 7.62202 0.552545 2.56539 38.9138 2.02937 0.971515 
167.702 -0.499972 0.0488365 360.604 -0.0828813 -2.9504 365.557 -0.116853 -3.01947 

vel2 3 24 double
31.7108 6.64789 0.96802 32.4097 3.00554 4.16513 16.8124 0.0576891 0.655512 
1.39896 -0.263483 0.941337 0.00499373 -1.03105 0.237718 17.8319 -1.79104 1.86231 
2.32048 0.732108 0.0590159 7.71979 -2.84454 -2.77641e-05 -0.251192 0.499156 0.109129 
170.393 0.51607 0.137987 2.80408 -0.0851653 0.00276534 -1.08337 5.66874 -1.8468 
0.292203 2.19835 -0.234334 35.9414 0.876295 0.699279 5.51427 10.0276 -1.50608 
4.44045 -0.0356818 0.00048105 6.57717 -0.856724 -0.0121809 4.74902 0.314559 0.478414 
17.8141 6.86141 0.0492704 165.833 0.369803 0.29798 157.823 -0.534377 -0.045409 
167.233 0.499972 0.0856912 362.25 0.0828813 -1.5892 362.531 0.116853 -1.62312 

force 3 24 double
0.369878 1.40403 -0.334032 1.55907 1.84804 0.626008 1.41459 0.0859239 -0.89242 
-0.0752033 0.316907 0.0666703 -0.657162 -1.95351 -0.0725889 1.2585 -0.941322 -0.395118 
5.07309 -3.26145 0.650569 -21.9305 6.13068 -0.257273 -2.55362 -0.980694 -0.711824 
53.1194 -5.34295 -13.4515 -4.51496 0.0444166 -0.233782 -3.47698 0.683942 -0.250767 
-4.12621 -1.50059 0.284114 24.1273 -7.40998 -3.92718 -1.68667 -1.32148 0.855319 
-9.45858 2.42397 0.00326759 -8.2432 9.28476 0.00516728 -18.6224 0.497593 7.61898 
9.09265 -3.50115 -0.519872 38.6108 5.63349 5.00335 67.3869 -1.28346 -0.209884 
0.00157421 0.000783827 -2.42038e-05 -0.11939 0.00901311 0.0784703 -2.56394 -0.225749 -1.33315 

force_normal 3 24 double
0.867443 1.00014 -0.15172 0.567859 2.15035 0.209274 0.780308 -0.0115671 -1.27862 
0.0154606 0.248483 0.162609 0.0504673 -1.93571 -0.0284161 0.684321 0.22202 0.219174 
2.67788 -4.54806 -0.492233 -15.0901 13.6732 -0.456767 -1.52024 -1.87953 -0.446843 
39.1023 -14.6452 -28.1057 -3.85697 0.325782 -1.68529 -2.51879 1.51354 -1.2087 
-1.46288 -2.78645 -0.435301 8.09162 -7.35288 -13.5407 -0.112089 -1.54932 0.347651 
-4.08744 6.0517 0.0186895 -2.88066 10.7251 0.0142076 -18.2247 -0.226276 8.4567 
0.119524 0.28634 -0.024223 17.813 17.0618 15.9828 7.67837 -14.6553 -16.307 
0.000946095 0.00125674 -3.11892e-06 -0.0390324 0.0129206 0.107246 -1.51031 -0.346332 -2.07862 

force_tangential 3 24 double
-0.497565 0.403893 -0.182312 0.991214 -0.302314 0.416735 0.634284 0.097491 0.386204 
-0.0906639 0.0684244 -0.0959389 -0.70763 -0.0178007 -0.0441729 0.574178 -1.16334 -0.614292 
2.39521 1.28661 1.1428 -6.84032 -7.54252 0.199494 -1.03338 0.898837 -0.264981 
14.0171 9.30227 14.6543 -0.657995 -0.281365 1.45151 -0.958196 -0.829603 0.957932 
-2.66333 1.28586 0.719415 16.0357 -0.057099 9.61355 -1.57459 0.227833 0.507668 
-5.37114 -3.62773 -0.0154219 -5.36254 -1.44032 -0.00904034 -0.397707 0.723869 -0.837713 
8.97313 -3.78749 -0.495649 20.7978 -11.4283 -10.9795 59.7086 13.3719 16.0971 
0.000628119 -0.000472912 -2.10848e-05 -0.0803572 -0.00390746 -0.0287755 -1.05363 0.120582 0.74547 

contact_area 1 24 double
3.90285e-06 7.40434e-06 3.74167e-06 7.90452e-07 1.60294e-06 3.4971e-06 5.25196e-06 2.06573e-05 6.89623e-06 
2.48829e-06 1.18025e-08 1.11512e-05 4.42021e-06 8.62779e-06 1.09369e-05 1.11171e-05 1.78597e-05 2.16953e-05 
6.9127e-06 4.1103e-07 8.51816e-06 1.08927e-06 9.50035e-07 5.15645e-06 
