# vtk DataFile Version 4.0
Generated by LIGGGHTS
ASCII
DATASET POLYDATA
POINTS 32 float
0.848775 0.24028 0.00298675 0.847857 0.245192 0.00300636 0.848931 0.301908 0.00257948 
0.848214 0.299882 0.00727119 0.847564 0.379054 0.00300367 0.849133 0.382957 0.00299364 
0.846209 0.566736 0.0029927 0.845218 0.566489 0.00846967 0.843146 0.739802 0.00299484 
0.84764 0.739853 0.00299731 0.830355 0.795189 0.00319441 0.824597 0.795038 0.00368717 
0.844634 0.824316 0.00350305 0.848114 0.823483 0.00298493 0.720206 0.39428 0.0064786 
0.71991 0.391421 0.0109792 0.65398 0.80653 0.00861844 0.651906 0.804268 0.0136853 
0.218613 0.128917 0.0136538 0.22059 0.125092 0.0151094 0.340709 0.732851 0.0103513 
0.335915 0.731076 0.0104953 0.847902 0.0476739 0.0151983 0.844964 0.0459854 0.0196522 
0.479561 0.0884127 0.0180174 0.475447 0.088787 0.0161084 0.294962 0.1881 0.0163089 
0.290408 0.188602 0.0174815 0.730646 0.599975 0.0189581 0.734697 0.600032 0.0231112 
1.05902 0.327106 0.418176 1.06208 0.329483 0.422721 
LINES 16 48
2 0 1 
2 2 3 
2 4 5 
2 6 7 
2 8 9 
2 10 11 
2 12 13 
2 14 15 
2 16 17 
2 18 19 
2 20 21 
2 22 23 
2 24 25 
2 26 27 
2 28 29 
2 30 31 

CELL_DATA 16
FIELD FieldData 6
vel1 3 16 double
-2.70912 1.11821 -0.0173311 -5.78498 -0.672667 -1.2641 -1.89294 -10.5144 0.0311084 
0.415535 0.0167788 -0.38834 20.5565 -0.0110903 0.0036145 24.4126 -0.497695 -0.174523 
12.7988 0.907783 0.629178 28.2204 0.53667 0.0221373 24.6603 0.371314 0.0804055 
33.8956 2.01764 -0.337081 35.073 -0.198637 -1.76364 1.22528 -0.0368855 0.267628 
116.454 -0.312557 1.60677 27.9453 -0.0378172 0.313755 123.715 -0.0010092 -0.102692 
223.382 -0.001188 -2.08416 
vel2 3 16 double
4.46645 9.56756 0.0370133 -1.53522 -4.61868 -3.28057 -5.44002 -0.734268 -0.00940798 
23.4413 -0.0169567 0.0368438 3.23012 0.00577679 -0.00739589 25.0044 -0.900166 0.515683 
8.25347 -0.309659 -0.152984 99.6985 5.45633 -2.49221 24.5733 0.00729289 0.12964 
114.649 -2.01764 0.651406 30.3433 -3.54313 -1.02064 122.672 -0.025473 0.318172 
114.823 2.25935 0.69395 120.599 0.0378172 0.00204957 123.859 0.0010092 -2.08726 
220.445 0.001188 -2.0671 
force 3 16 double
0.255049 -0.336686 -0.000544785 2.71298 0.919287 -4.14649 -5.1801 -4.58873 -0.00728554 
2.31834 0.138488 -3.09501 -22.5235 -0.0938108 0.0140538 0.734506 -0.069335 -0.437176 
-22.1395 2.86543 1.77635 4.4911 4.24446 -6.61389 0.00176987 0.0368947 -0.0202042 
44.1821 -0.970505 0.0668583 0.44337 0.422392 0.123443 60.4821 1.72252 -4.54315 
6.82866 -0.231021 2.83992 73.6537 -1.26732 -3.29049 -0.359377 -0.00502311 -1.11452 
-0.753994 -0.0302849 -0.0361728 
force_normal 3 16 double
0.0693661 -0.371366 -0.00148243 0.626277 1.76962 -4.0982 -2.30866 -5.74298 0.0147596 
0.615428 0.153452 -3.40236 -22.5216 -0.25633 -0.0123926 0.763981 0.0200297 -0.0653816 
-21.391 5.11742 3.18529 0.449579 4.33413 -6.82322 0.0111977 0.0122204 -0.0273651 
8.72805 -16.8817 6.42402 0.523776 0.193896 -0.0157343 18.8387 10.8277 -28.5599 
6.67512 -0.607238 3.09709 69.2122 -7.61795 -17.8234 -0.732301 -0.0102356 -0.750635 
-0.218583 -0.169597 -0.324243 
force_tangential 3 16 double
0.185683 0.0346793 0.000937641 2.08671 -0.850334 -0.0482923 -2.87144 1.15425 -0.0220451 
1.70291 -0.0149646 0.307352 -0.00186427 0.16252 0.0264465 -0.0294753 -0.0893647 -0.371794 
-0.748554 -2.25199 -1.40894 4.04153 -0.0896692 0.209336 -0.00942786 0.0246744 0.00716091 
35.4541 15.9111 -6.35716 -0.0804059 0.228496 0.139178 41.6434 -9.10515 24.0168 
0.153543 0.376216 -0.257167 4.44146 6.35062 14.5329 0.372924 0.00521247 -0.363887 
-0.53541 0.139312 0.288071 
contact_area 1 16 double
8.65854e-06 7.35884e-06 1.43773e-05 3.89584e-06 1.24108e-05 2.02689e-06 1.80106e-05 5.87772e-06 7.13632e-07 
1.20465e-05 7.73135e-06 3.67645e-06 1.20074e-05 1.07109e-05 1.83201e-06 2.38985e-07 
