# vtk DataFile Version 4.0
Generated by LIGGGHTS
ASCII
DATASET POLYDATA
POINTS 18 float
0.624396 0.112653 0.00286033 0.620107 0.108829 0.00419684 0.844593 0.408744 0.00346046 
0.848323 0.407295 0.00453273 0.78587 0.423815 0.00311222 0.788601 0.418539 0.00311411 
0.816684 0.674537 0.0115098 0.817876 0.674959 0.0149062 0.604075 0.0191859 0.0145529 
0.601892 0.0180666 0.0180289 0.843768 0.0477581 0.0146897 0.848395 0.0477007 0.0150192 
0.524169 0.0506624 0.0153979 0.521767 0.050686 0.019049 0.658117 0.377668 0.0178374 
0.655751 0.38103 0.0148683 0.63727 0.383625 0.0144239 0.634483 0.385664 0.0136804 

LINES 9 27
2 0 1 
2 2 3 
2 4 5 
2 6 7 
2 8 9 
2 10 11 
2 12 13 
2 14 15 
2 16 17 

CELL_DATA 9
FIELD FieldData 6
vel1 3 9 double
17.7218 0.317389 0.00107483 6.47897 1.69823 -2.11485 17.1388 0.348278 0.258857 
32.0064 -0.67939 -5.09958 24.0852 0.190403 -0.120907 13.5653 0.0143181 0.266939 
26.7798 0.297688 -0.734259 64.1467 -5.51376 4.2175 47.1956 -1.8689 -2.58506 

vel2 3 9 double
17.2958 -0.334013 -1.80395 5.24357 -0.425811 -0.30164 16.083 -0.422873 0.486678 
74.0969 0.67939 5.44266 82.0181 -0.190403 0.943358 3.35023 -0.00501514 0.0354763 
83.3776 -0.167247 1.21266 33 3.70354 -2.96265 79.3323 0.817413 -1.60923 

force 3 9 double
0.0190484 -0.0136159 -0.151115 -12.4888 3.0591 -2.15644 -0.00383113 0.00502773 0.00291286 
1.15662 0.139715 1.11697 52.0315 2.68883 -8.4444 -15.6058 0.0870087 -0.817684 
44.7697 0.98157 -10.4369 -0.951523 10.9892 -7.33171 45.7112 -7.7998 -1.17596 

force_normal 3 9 double
0.028543 0.0254449 -0.00889391 -11.5899 4.50322 -3.33146 -0.00286115 0.00552866 -1.97756e-06 
0.475026 0.168029 1.35279 17.6032 9.02537 -28.0274 -15.5837 0.193216 -1.10974 
18.3191 -0.179895 -27.8364 -5.60893 7.9706 -7.03864 31.8136 -23.2738 8.48599 

force_tangential 3 9 double
-0.00949457 -0.0390608 -0.142221 -0.898863 -1.44412 1.17502 -0.000969977 -0.000500933 0.00291484 
0.681593 -0.0283141 -0.235821 34.4283 -6.33655 19.583 -0.0221148 -0.106208 0.292058 
26.4506 1.16147 17.3996 4.65741 3.01862 -0.293074 13.8976 15.474 -9.66196 

contact_area 1 9 double
9.39081e-07 1.47921e-05 5.52497e-07 1.79575e-05 1.40576e-05 1.13676e-05 1.32698e-05 8.07506e-06 1.84713e-05 

