# vtk DataFile Version 4.0
Generated by LIGGGHTS
ASCII
DATASET POLYDATA
POINTS 6 float
0.532887 0.0860117 0.00275777 0.528661 0.0879822 0.00621145 0.26369 0.5359 0.0030112 
0.269437 0.534545 0.00297982 0.0878032 0.255314 0.014604 0.0850845 0.254247 0.0194571 

LINES 3 9
2 0 1 
2 2 3 
2 4 5 

CELL_DATA 3
FIELD FieldData 6
vel1 3 3 double
3.22541 0.0649999 0.140053 3.6991 -0.442318 0.0870246 4.39497 0.0216387 0.340902 

vel2 3 3 double
2.96765 0.363422 -1.10264 3.69355 -0.132131 -0.0670372 16.8257 -0.0216387 0.176141 

force 3 3 double
0.295746 -0.150641 -0.653294 -0.171911 0.0573836 0.0335533 6.28512 0.244868 -1.27737 

force_normal 3 3 double
0.477295 -0.222591 -0.390133 -0.175845 0.0414434 0.000959937 1.99549 0.782981 -3.56212 

force_tangential 3 3 double
-0.181549 0.0719494 -0.263161 0.00393472 0.0159402 0.0325933 4.28963 -0.538114 2.28475 

contact_area 1 3 double
1.83471e-06 8.96411e-07 3.07688e-06 
