# vtk DataFile Version 4.0
Generated by LIGGGHTS
ASCII
DATASET POLYDATA
POINTS 12 float
0.562868 0.269323 0.00291511 0.564364 0.27498 0.00379583 0.796423 0.796056 0.00290455 
0.798546 0.800642 0.0057069 0.399049 0.344824 0.00965635 0.399294 0.343619 0.0151247 
0.399117 0.612315 0.0147478 0.396189 0.613126 0.0183168 0.683431 0.675074 0.0151365 
0.684735 0.679382 0.0180037 0.848942 0.309018 0.017785 0.851992 0.310943 0.0200277 

LINES 6 18
2 0 1 
2 2 3 
2 4 5 
2 6 7 
2 8 9 
2 10 11 

CELL_DATA 6
FIELD FieldData 6
vel1 3 6 double
10.3885 -0.286477 -0.0835639 10.3453 -0.291654 -0.440697 11.7075 0.439108 -0.18796 
14.686 -0.113468 -0.0480104 21.6758 -3.81318 -2.1225 2.4087 -5.69674 -6.63934 

vel2 3 6 double
10.6858 0.297937 -2.10714 10.7518 0.302108 -1.79551 51.8476 -0.0745553 -1.94665 
48.976 0.113468 0.830951 41.9862 3.81318 2.92743 20.2064 2.0636 2.4054 

force 3 6 double
0.000306368 0.000968567 -0.000327495 -0.190411 -0.398884 -0.336408 0.542515 0.24288 -1.19137 
28.9971 -1.31063 -5.84698 -1.61503 5.25426 3.50658 4.93431 1.01423 1.18342 

force_normal 3 6 double
0.000241351 0.000912663 0.000142074 -0.201993 -0.436207 -0.266552 -0.0520354 0.256067 -1.16184 
14.2377 -3.94603 -17.3557 1.40041 4.62585 3.07922 3.32402 2.09751 2.44389 

force_tangential 3 6 double
6.50175e-05 5.59039e-05 -0.000469569 0.0115819 0.0373238 -0.0698566 0.59455 -0.0131877 -0.0295348 
14.7594 2.6354 11.5087 -3.01543 0.628403 0.427361 1.61029 -1.08329 -1.26046 

contact_area 1 6 double
7.6776e-07 2.04657e-06 3.60062e-06 1.10201e-05 5.91044e-06 1.41064e-05 
