# vtk DataFile Version 4.0
Generated by LIGGGHTS
ASCII
DATASET POLYDATA
POINTS 42 float
0.847951 0.00630207 0.00298657 0.846774 0.0106519 0.0031867 0.846012 0.0896323 0.00302 
0.849642 0.0884887 0.00299529 0.845443 0.171318 0.0029726 0.845838 0.169017 0.00546757 
0.849323 0.250639 0.00274845 0.845321 0.249317 0.00283707 0.848332 0.263397 0.00297926 
0.848425 0.267417 0.00293669 0.84642 0.286963 0.00356836 0.847502 0.292491 0.00257504 
0.847502 0.292491 0.00257504 0.847969 0.295287 0.00681996 0.844387 0.382783 0.00299694 
0.847709 0.381413 0.00299023 0.842282 0.65673 0.00299494 0.845376 0.6537 0.00300186 
0.853988 0.794949 0.00282807 0.84919 0.794033 0.0045171 0.846774 0.0106519 0.0031867 
0.848898 0.0143509 0.00297832 0.848375 0.481619 0.00605577 0.846702 0.486377 0.00916679 
0.624491 0.764445 0.0104932 0.620864 0.763634 0.0150857 0.388733 0.0205954 0.0157682 
0.386466 0.0186878 0.015709 0.388733 0.0205954 0.0157682 0.386286 0.0221962 0.0197248 
0.677691 0.691718 0.0169056 0.673369 0.691513 0.0202257 0.386466 0.0186878 0.015709 
0.386286 0.0221962 0.0197248 0.867767 0.599966 0.018196 0.872137 0.600041 0.0217537 
1.14686 0.0747882 0.17716 1.14713 0.0711262 0.181832 1.17651 0.308761 0.231847 
1.18055 0.311242 0.234861 1.11338 0.47451 0.519246 1.11393 0.477243 0.524455 

LINES 21 63
2 0 1 
2 2 3 
2 4 5 
2 6 7 
2 8 9 
2 10 11 
2 12 13 
2 14 15 
2 16 17 
2 18 19 
2 20 21 
2 22 23 
2 24 25 
2 26 27 
2 28 29 
2 30 31 
2 32 33 
2 34 35 
2 36 37 
2 38 39 
2 40 41 

CELL_DATA 21
FIELD FieldData 6
vel1 3 21 double
3.76693 -0.990249 -0.0704832 -11.5825 3.82562 0.0904583 9.96659 1.5528 -1.83815 
-3.71935 1.04803 -0.229643 11.0772 -8.5745 0.086243 -5.72782 0.601876 0.418669 
-3.93621 1.19489 -1.5249 11.8054 2.05281 0.01903 25.7972 0.89813 0.00425268 
17.2147 0.992349 -1.53424 8.95529 -2.1556 0.699648 -9.62789 -1.75171 -1.36568 
31.8016 -0.0333806 0.417458 54.1912 -0.386862 -1.8664 54.1912 -0.386862 -1.8664 
33.1324 0.00484536 0.326479 136.38 -1.89018 -1.21638 131.042 -0.0188575 -1.17685 
290.944 0.0618631 -2.2793 293.733 -0.292565 -2.59111 294.863 -0.362673 -2.9443 

vel2 3 21 double
8.95529 -2.1556 0.699648 -4.80871 0.0267728 -0.00249353 149.655 -1.5723 -0.637187 
-5.60435 -3.31655 0.305215 -1.31549 2.16588 -0.103887 -3.93621 1.19489 -1.5249 
-0.38984 -1.06662 3.21055 17.5997 -2.71995 -0.0158314 6.31791 -0.898132 -0.00615427 
3.98839 -1.48243 2.30424 7.12715 0.0528492 -0.0942006 -4.94203 -0.925068 -0.625526 
41.2382 -0.168603 -0.330803 136.38 -1.89018 -1.21638 152.585 1.12094 1.3232 
157.853 -0.00484536 0.257627 152.585 1.12094 1.3232 132.809 0.0201134 -0.515246 
288.469 -0.0618631 -2.1046 292.635 0.292565 -1.84331 291.043 0.362673 -1.52163 

force 3 21 double
8.28282 -9.3003 -0.303756 -10.2397 1.90213 0.0490651 1.81194 3.36891 -3.691 
9.61446 1.83382 -0.338624 -3.03553 -5.73822 0.0696225 -2.92823 0.287654 -0.780585 
-0.5606 -0.601364 -2.34904 -12.36 4.21291 0.025176 -22.9552 6.33911 0.00188133 
-6.09775 0.469423 -1.15174 -9.44871 -7.07037 0.193103 0.151174 -0.137077 -0.0870346 
-0.589374 -0.71193 -3.8395 99.2541 10.9485 -12.6859 61.9747 -5.76087 -6.07597 
71.3261 0.334816 -5.55056 0.285581 -0.650074 -0.371662 -0.082917 -0.00386775 -0.183785 
-0.0199783 0.0221278 -0.0281037 -0.979753 -0.52119 -0.631784 0.0347497 0.15071 0.279467 

force_normal 3 21 double
2.90569 -10.7456 -0.494385 -9.86009 3.10651 0.0671122 -0.549234 3.20161 -3.47174 
9.21793 3.04372 -0.204118 -0.132979 -5.8048 0.0614725 -0.0265476 -0.135637 0.0243723 
-0.213767 -1.27871 -1.94101 -12.0493 4.96671 0.024321 -14.8813 14.5798 -0.0332831 
-4.82848 -0.921711 1.69966 -5.38658 -9.38336 0.528623 0.0560162 -0.15933 -0.104167 
1.55006 0.346935 -1.96263 63.2936 53.2482 1.65243 18.6965 -12.2299 -30.2274 
47.4849 2.24715 -36.4725 0.0241706 -0.471341 -0.53952 -0.139864 -0.00238703 -0.113869 
-0.00167504 0.0225812 -0.0288125 -0.91614 -0.562227 -0.683307 0.0298249 0.147721 0.281557 

force_tangential 3 21 double
5.37713 1.44525 0.190629 -0.379574 -1.20438 -0.0180472 2.36118 0.1673 -0.21926 
0.396526 -1.2099 -0.134506 -2.90255 0.0665794 0.00814999 -2.90169 0.423292 -0.804957 
-0.346832 0.677348 -0.408031 -0.310717 -0.753805 0.000855062 -8.0739 -8.24073 0.0351644 
-1.26927 1.39113 -2.8514 -4.06213 2.31299 -0.33552 0.0951574 0.0222538 0.0171325 
-2.13943 -1.05886 -1.87687 35.9605 -42.2996 -14.3383 43.2782 6.46901 24.1515 
23.8412 -1.91233 30.9219 0.261411 -0.178732 0.167858 0.056947 -0.00148072 -0.0699163 
-0.0183033 -0.000453408 0.000708729 -0.0636124 0.0410371 0.0515226 0.00492476 0.00298954 -0.00209015 

contact_area 1 21 double
1.22955e-05 1.68978e-05 1.91052e-05 1.43173e-05 1.55734e-05 2.57901e-06 7.80819e-06 1.81355e-05 1.35437e-05 
7.29235e-06 1.3953e-05 6.90598e-07 8.59367e-07 2.1376e-05 9.26213e-06 4.90913e-06 5.91554e-06 3.33084e-06 
5.36897e-07 3.47714e-06 8.61117e-07 
