ITEM: TIMESTEP
37100
ITEM: NUMBER OF ATOMS
338
ITEM: BOX BOUNDS mm mm mm
-0.05 0.05
-0.05 0.05
0 0.15
ITEM: ATOMS id type type x y z ix iy iz vx vy vz fx fy fz omegax omegay omegaz radius 
319 1 1 -0.0146387 -0.0442535 0.00612322 0 0 0 0.000100229 -0.000362343 0.00307357 -0.000660127 0.000415906 -0.00351433 0.372918 0.012928 -0.219885 0.00638145 
243 1 1 -0.00279006 -0.0436331 0.00606997 0 0 0 -7.68249e-05 -0.00375369 0.00232742 -0.00211334 0.00364349 -0.000190276 0.459808 0.0368962 -0.173965 0.00638145 
260 1 1 0.0253767 -0.0436845 0.00611254 0 0 0 -0.0144276 0.00385538 0.00549439 -0.00928268 -0.00134022 -0.0014341 -0.877776 0.515251 -1.84305 0.00638145 
131 1 1 -0.0256136 -0.039608 0.00586319 0 0 0 0.00132218 0.0024627 0.00341091 -0.000946613 -0.00242124 0.00136883 -0.812598 0.35837 -0.155862 0.00638145 
173 1 1 -0.01552 -0.0319409 0.00585384 0 0 0 -0.00513579 0.00734414 -0.000938826 7.67822e-05 -0.0057145 -0.000316973 -1.13263 -0.71007 0.844982 0.00638145 
78 1 1 0.0409744 -0.040653 0.00934497 0 0 0 -0.000304647 -0.0024611 0.00295483 -0.000981409 -0.00330186 0.00345218 0.354458 0.335652 0.213769 0.0102103 
296 1 1 -0.0274587 -0.0274411 0.00625435 0 0 0 0.00903163 0.00565956 0.00328729 -0.00129131 0.00023288 0.00015313 0.554906 0.989228 -1.17792 0.00638145 
275 1 1 -0.00362221 -0.0295423 0.00595323 0 0 0 -0.00264438 0.00390771 0.000514261 0.0027656 0.000310397 -0.00145295 -0.525282 -0.10592 -1.27701 0.00638145 
144 1 1 0.0423308 -0.025042 0.00614499 0 0 0 0.00215049 0.000988878 0.00329211 -0.0034091 0.00701187 -0.0010051 -0.0558144 0.255789 -0.449171 0.00638145 
102 1 1 -0.0404393 -0.0171698 0.00907329 0 0 0 0.00562508 0.00932131 0.00630446 -0.00697639 -0.00896103 0.00737842 -0.315705 0.467647 -1.0644 0.0102103 
328 1 1 -0.0253989 -0.0154357 0.00573727 0 0 0 0.00520877 0.00825878 -0.00263134 -0.00154456 0.000487894 0.0025876 -1.18131 0.721152 1.80918 0.00638145 
267 1 1 0.0152291 -0.0202124 0.00604217 0 0 0 -0.000920512 0.00149204 -0.00123375 -0.00314304 0.00309997 0.00799859 -0.371431 0.295705 0.583455 0.00638145 
202 1 1 0.0446569 -0.0130933 0.00626249 0 0 0 0.00498498 0.00198438 -0.000112319 -0.00773719 5.95731e-05 0.00492594 -0.585137 0.308377 0.00855697 0.00638145 
257 1 1 -0.0438556 -0.00140395 0.0062684 0 0 0 -0.00280238 0.017083 0.00228508 -0.00363997 0.00546575 0.00198819 -0.17855 -0.283246 2.88958 0.00638145 
268 1 1 -0.0321996 0.00309447 0.00633185 0 0 0 -0.00680812 0.0301015 0.00253804 -0.00258745 0.00834457 -0.00417507 -4.59222 -1.50899 -1.03463 0.00638145 
274 1 1 -0.0216437 -0.00424555 0.0081035 0 0 0 -0.00822149 0.0149775 -0.00273957 -0.00057308 -0.00248238 -3.47526e-05 1.08459 0.340673 1.63681 0.00638145 
164 1 1 0.0203007 0.00151422 0.00581029 0 0 0 0.00531802 -0.000468545 -0.00139288 -0.00416576 0.00663825 0.0199876 -0.228573 0.904904 0.258751 0.00638145 
232 1 1 -0.0432906 0.0115957 0.0063471 0 0 0 0.00188637 0.00642547 -0.00191273 -0.00655775 0.0114352 -0.000537912 -1.39055 0.33846 1.40026 0.00638145 
171 1 1 -0.0207425 0.00765431 0.00839557 0 0 0 0.00118559 0.0106287 0.00912549 0.00230707 -7.30668e-05 -0.00598192 0.807299 -1.00485 -2.96722 0.00638145 
297 1 1 -0.0248354 0.0189783 0.00595406 0 0 0 -0.00200752 0.00799143 0.0016407 0.00133893 -0.00663738 0.00231997 -1.19621 -0.600841 3.08964 0.00638145 
222 1 1 -0.0106651 0.0143169 0.0058243 0 0 0 0.00519813 0.00867855 0.00638146 -0.00251183 0.000460288 0.000283471 -1.85429 0.897487 2.7321 0.00638145 
290 1 1 -0.000682702 0.0211856 0.00561651 0 0 0 0.00258684 0.00563263 0.00152058 -0.00287899 0.00414504 0.00211537 -0.513713 -0.412613 -2.29438 0.00638145 
316 1 1 0.0323285 0.0194396 0.00566373 0 0 0 -0.00284148 0.00147934 -0.00302622 0.00334551 0.0061169 2.35337e-05 -0.203387 -0.686411 0.370956 0.00638145 
162 1 1 0.0443577 0.0198894 0.00585366 0 0 0 0.000933634 0.00346847 0.0016595 -0.00414446 -0.00371879 -0.000717997 -1.27436 0.213085 -0.226694 0.00638145 
294 1 1 -0.0437689 0.0251625 0.00620582 0 0 0 -9.15684e-05 0.00610599 0.00570711 0.00181238 -0.014297 -0.001186 -1.68376 -0.330918 0.803268 0.00638145 
175 1 1 -0.0328739 0.03125 0.00616989 0 0 0 0.0030018 0.00374586 -0.000833163 0.00312532 -0.00485156 0.000725287 -0.542961 0.568087 -0.774663 0.00638145 
255 1 1 -0.0147945 0.0257269 0.00607825 0 0 0 0.00168162 0.00817707 0.00209384 -0.00185225 0.00108421 0.00204792 0.541116 0.440918 -2.45479 0.00638145 
155 1 1 0.0375071 0.0306225 0.00593294 0 0 0 -0.00176101 0.00734835 -0.00215478 0.0063576 -0.00184324 0.00362354 -0.735709 -0.519421 0.107264 0.00638145 
324 1 1 -0.00359101 0.0323063 0.00589878 0 0 0 0.00984841 0.00907776 -0.00348247 -0.00446914 -0.00435257 0.000699563 -1.21397 1.89232 0.436927 0.00638145 
161 1 1 0.0081999 0.0321441 0.00657881 0 0 0 0.00208886 -0.0057812 0.0191064 0.00533014 0.00659278 -0.00180566 -4.45067 -5.71064 -3.04018 0.00638145 
321 1 1 -0.043819 0.0437456 0.00628116 0 0 0 -0.000356794 0.00120985 0.000767717 -8.83327e-06 0.00186585 -4.48802e-05 -0.403767 -0.00643662 -0.00860012 0.00638145 
207 1 1 -0.0313511 0.0437269 0.00629272 0 0 0 0.00199645 0.00136208 0.00169814 -0.00176441 -0.00204644 0.00101593 0.191769 -0.40028 0.0944528 0.00638145 
149 1 1 0.0113512 0.0438879 0.00575931 0 0 0 0.0146917 -0.00542481 -0.000955661 -0.00745711 0.00507129 0.00348625 0.705679 2.45248 1.76448 0.00638145 
249 1 1 0.0278806 0.0439614 0.00620744 0 0 0 -0.0043599 -0.00283793 0.00766087 -0.0174802 0.00215848 0.00478831 -1.73242 0.268054 -0.608544 0.00638145 
289 1 1 0.044106 0.04188 0.00612698 0 0 0 0.00151648 3.21935e-05 0.000418506 -0.00038818 -0.00138572 0.00351122 0.0437165 0.343846 0.0261272 0.00638145 
299 1 1 -0.0244028 -0.0445653 0.0168054 0 0 0 0.00518683 0.00185431 0.00835281 -0.00207468 -0.00213849 -0.0025974 1.10164 0.678385 -0.72959 0.00638145 
225 1 1 -0.0116993 -0.0439326 0.0186562 0 0 0 0.00761541 0.00434357 0.00366656 0.00207387 -0.00138773 0.00310626 0.591421 -3.32839 -1.36276 0.00638145 
130 1 1 0.0208526 -0.0440551 0.0177258 0 0 0 -0.0056318 0.00149896 0.0182517 0.00284091 5.59688e-05 0.00038018 2.6372 -4.33012 1.28444 0.00638145 
74 1 1 -0.0405153 -0.0363232 0.00965198 0 0 0 0.000127603 0.00245269 0.0060049 0.0035953 -0.0124789 0.00637042 0.0738003 -0.170659 0.268707 0.0102103 
60 1 1 0.0102871 -0.0357528 0.00973721 0 0 0 -0.00108002 0.00108 0.00405977 -0.0131759 -0.000721459 0.00788903 -0.259285 -0.144761 0.488984 0.0102103 
67 1 1 0.0274782 -0.028031 0.0127147 0 0 0 -0.000657693 0.00121649 0.00663065 -0.0225237 -0.0281507 0.0126122 -0.63484 -0.43299 -0.569799 0.0102103 
40 1 1 -0.0106994 -0.0160331 0.0109573 0 0 0 0.00482454 0.0160415 -0.00160771 -0.00702905 -0.0101116 -0.00150626 0.0918388 -0.4931 -0.726477 0.0102103 
279 1 1 0.00422197 -0.0209151 0.0110977 0 0 0 -0.00290016 0.0046155 0.00400265 -0.00488438 0.00343966 0.00501663 0.133843 -0.469276 -0.80028 0.00638145 
96 1 1 0.011669 -0.00758621 0.0157549 0 0 0 0.0136407 0.00121411 0.0104962 -0.0224172 0.00537692 0.0941348 1.05416 1.68849 -1.22167 0.0102103 
50 1 1 0.0301793 -0.00941646 0.00980617 0 0 0 0.00486625 -0.00121295 -0.00017003 -0.0185064 0.00256501 0.0452107 0.20308 -0.394323 0.158521 0.0102103 
183 1 1 0.0441858 -0.00711112 0.0172314 0 0 0 0.00434172 -0.00440568 0.0083046 -0.00283894 -0.000331066 0.00195662 2.90101 0.612014 0.818231 0.00638145 
17 1 1 -0.00513788 0.00231913 0.0143136 0 0 0 0.0154846 0.0166591 0.017858 -0.00421767 0.000344187 0.0203654 0.884898 -1.506 -0.162692 0.0102103 
94 1 1 0.03822 0.00775252 0.0137672 0 0 0 -0.0064908 0.00544064 0.0136562 -0.0301865 0.00212906 0.0198216 -0.561387 -2.32767 0.69812 0.0102103 
300 1 1 -0.0441049 0.018599 0.0169484 0 0 0 -0.00314262 -0.00815968 0.00880271 -0.00732858 0.0037804 -3.55128e-05 4.66591 -1.13238 -0.909879 0.00638145 
273 1 1 -0.0320228 0.0182094 0.0157303 0 0 0 -0.000603886 -6.36341e-05 0.00679761 -0.00266022 0.00172594 -0.00179418 -1.1726 1.08583 1.60542 0.00638145 
286 1 1 -0.00139179 0.017736 0.0169362 0 0 0 0.00825712 0.032065 0.0135015 -0.000498488 0.00280784 0.0118339 -4.56237 1.01601 2.41868 0.00638145 
98 1 1 0.0122461 0.0136721 0.00994299 0 0 0 0.00062655 -0.00902246 0.00968407 0.0179449 0.129681 0.0159815 1.1171 -0.261175 0.185164 0.0102103 
320 1 1 0.0051197 0.0285661 0.0183209 0 0 0 -0.0175048 0.0755892 0.0734487 0.00302952 0.00661058 0.00956202 -13.0225 4.3783 6.68116 0.00638145 
77 1 1 0.0227393 0.0297358 0.0121037 0 0 0 -0.00101574 -0.00653118 0.0214579 0.0486245 0.0736759 -0.0316693 1.54377 2.89732 0.814493 0.0102103 
284 1 1 0.0443153 0.0273965 0.0156093 0 0 0 0.00302375 0.00093654 0.00282132 0.00147705 -0.000358958 -0.000810253 1.39755 0.399061 -0.333427 0.00638145 
305 1 1 -0.0433308 0.0344261 0.0149504 0 0 0 0.0205641 0.0132077 1.513e-05 0.00231331 -0.0257762 -0.0123817 -0.57227 5.56728 -0.458791 0.00638145 
38 1 1 -0.0156133 0.0410701 0.00956417 0 0 0 0.00788886 0.0057891 0.00404712 0.00608373 -0.010072 -0.00559092 -0.42277 0.568599 0.788564 0.0102103 
237 1 1 0.000313547 0.0437783 0.0116217 0 0 0 0.0179144 -0.00495701 0.00847426 -0.00593174 0.00835447 -0.0049396 1.60039 -1.05387 -3.40826 0.00638145 
239 1 1 0.0189483 0.044458 0.0150134 0 0 0 -0.00493358 0.00177227 0.0195931 0.0016737 0.0134456 0.0137413 -2.71496 -7.01327 -1.1809 0.00638145 
331 1 1 -0.0428465 -0.0449238 0.0217973 0 0 0 0.00236537 -0.00100836 0.00977211 -0.00581998 -0.0152241 0.00332649 1.03803 0.895783 -0.559896 0.00638145 
242 1 1 0.000773567 -0.0441641 0.0194593 0 0 0 0.00512511 -0.00343195 0.0124937 0.00188844 0.0019935 0.00420341 1.71816 2.1813 -0.48667 0.00638145 
167 1 1 0.0319111 -0.0441356 0.0223913 0 0 0 -0.00316848 -0.00064319 0.0211629 -0.00395294 0.00792116 0.00133835 4.05053 4.02509 0.716899 0.00638145 
136 1 1 0.0439868 -0.0444456 0.0240648 0 0 0 0.0021171 -0.00138955 0.00185393 0.0022411 0.00276022 0.00147424 -0.107249 -0.157696 -0.00417576 0.00638145 
180 1 1 -0.0439025 -0.033675 0.0264863 0 0 0 -0.00131635 0.00177017 0.0216258 -0.0063053 -0.00928705 0.0115705 0.021413 -3.89564 0.383226 0.00638145 
256 1 1 -0.0324161 -0.0394757 0.0251601 0 0 0 0.0105706 -0.00442942 0.0217801 0.00515798 -0.00755849 0.00658007 2.34649 -0.765744 -0.165476 0.00638145 
179 1 1 -0.0343201 -0.0260066 0.0207251 0 0 0 0.00216416 0.00687615 0.0238691 -0.000986761 -0.00629898 -0.00947096 -0.480898 -1.10873 -0.39805 0.00638145 
7 1 1 -0.0198568 -0.030232 0.0210604 0 0 0 0.0116279 0.0111018 0.0115807 0.021654 -0.0171898 -0.0379347 0.119637 2.52379 0.715465 0.0102103 
104 1 1 -0.000495262 -0.0284876 0.0244376 0 0 0 0.0193397 0.00776305 0.0291866 0.0117238 -0.00156264 0.0401573 -0.714208 4.18378 0.199865 0.0102103 
128 1 1 -0.0445968 -0.0216627 0.023653 0 0 0 -0.00292996 0.00451435 0.0117338 -0.00778403 -0.00162509 -0.00180074 0.00891968 -1.80132 0.922268 0.00638145 
278 1 1 0.0327128 -0.0169688 0.0236144 0 0 0 -0.0104914 0.0142243 0.02091 -0.0129931 -0.0125203 0.00961314 -4.13646 -0.5777 -2.66371 0.00638145 
146 1 1 -0.0444967 -0.00941528 0.0218915 0 0 0 0.00125686 0.00251574 0.0236147 0.00782272 -0.0113125 -0.00659779 3.27217 -3.50042 -0.480143 0.00638145 
19 1 1 -0.0259674 -0.0121755 0.0270613 0 0 0 0.0128043 0.0150197 0.0360489 0.0272552 -0.0175476 -0.00446711 1.17943 -0.769671 -0.19156 0.0102103 
258 1 1 0.00113158 -0.0124897 0.0269512 0 0 0 0.0141383 0.0143933 0.0149484 -0.00226883 -0.0128098 0.0234548 -2.37587 -0.165368 1.21144 0.00638145 
25 1 1 -0.0372144 0.00443459 0.02223 0 0 0 0.0108742 0.00621666 0.0361714 0.0153008 -0.0343143 -0.0286446 -1.95558 0.2869 -0.0144384 0.0102103 
28 1 1 -0.0163756 0.0178095 0.0202556 0 0 0 0.00259313 0.0124932 0.0155097 -0.00413272 -0.0152469 -0.00993218 -0.644367 -0.172079 1.14297 0.0102103 
261 1 1 0.0433523 0.0159273 0.0268575 0 0 0 -0.0274005 0.0246151 0.020681 -0.0131796 0.0121106 0.000271407 1.10239 2.14649 4.50413 0.00638145 
246 1 1 -0.043902 0.0259753 0.0271758 0 0 0 -0.000905277 -0.00781973 0.0229041 0.00518576 0.00204587 0.00487717 -5.25827 -4.44684 -1.18608 0.00638145 
23 1 1 -0.0279445 0.032727 0.0216115 0 0 0 -0.00224966 0.0063245 0.00460194 0.00169182 -0.0135744 -0.00444457 0.142431 -1.35535 -0.847 0.0102103 
61 1 1 0.0367763 0.0406292 0.0203327 0 0 0 0.00299591 0.000347186 0.00595227 0.0189566 -0.0102593 0.0338171 -0.426198 -0.136518 0.480749 0.0102103 
224 1 1 -0.0438313 -0.0441519 0.0339971 0 0 0 0.00370558 0.000887173 0.0176551 0.00464318 0.0256203 0.0109677 2.58043 -1.26699 -0.393539 0.00638145 
125 1 1 0.043741 -0.0437977 0.036632 0 0 0 0.0012073 -0.00390372 0.00469209 0.000292449 0.00031401 0.00441377 0.219156 -0.143865 -0.206016 0.00638145 
42 1 1 -0.0118698 -0.0403326 0.0353741 0 0 0 -0.000268195 0.000430825 0.0237739 -0.00933923 -0.0159488 0.00192355 1.58633 -5.87901 0.248053 0.0102103 
271 1 1 0.0309838 -0.0404434 0.0339277 0 0 0 0.0134547 -0.00956193 0.0293506 -0.00425579 0.00293718 0.00879706 -3.24587 -0.888167 1.47745 0.00638145 
51 1 1 0.0179665 -0.0236077 0.0295839 0 0 0 0.0240155 0.033532 0.03423 0.0342702 0.0537063 0.0571036 6.91299 -3.8454 3.72793 0.0102103 
120 1 1 0.0406259 -0.0297649 0.0288295 0 0 0 -0.00473546 0.00152285 0.0184166 -0.00110903 -0.0327775 0.00206586 1.98487 1.99191 0.497437 0.0102103 
178 1 1 -0.0125456 -0.0203854 0.0312618 0 0 0 0.0109491 -0.000931045 0.0491949 -0.00718972 -0.0251681 0.00345359 4.86037 -5.99421 -0.556217 0.00638145 
134 1 1 0.0439608 -0.0148125 0.03236 0 0 0 -0.00323631 0.0054356 0.0295098 -0.00168072 0.00453383 -0.00649495 -0.0265946 4.17764 0.954501 0.00638145 
310 1 1 -0.0103192 -0.00890738 0.0291686 0 0 0 0.0194393 0.0135505 0.0344812 -0.00759746 -0.0134643 0.0260392 -4.67223 3.94563 0.664954 0.00638145 
18 1 1 0.0128274 -0.00521679 0.0355284 0 0 0 -0.0154643 0.035672 0.0276747 -0.0133519 -0.0550579 0.110569 -5.0329 -6.74353 -3.64647 0.0102103 
184 1 1 0.0278085 -0.00884339 0.0318136 0 0 0 -0.00237648 0.00678256 0.0587946 -0.00543648 -0.000378049 0.0148127 8.44795 4.88112 2.38933 0.00638145 
112 1 1 -0.0178017 0.00418845 0.0343701 0 0 0 0.0139834 0.020161 0.0327593 -0.0125316 0.00831917 0.0227153 -1.00605 1.58599 -0.0721624 0.0102103 
160 1 1 -0.00241446 0.00020923 0.0307 0 0 0 -7.27142e-05 0.0673382 0.0467207 0.0277032 -0.0760271 -0.0528933 6.30044 -5.11232 8.30495 0.00638145 
55 1 1 0.0405187 0.000642474 0.0320059 0 0 0 0.000282779 0.0138957 0.0322697 0.0135423 0.00466556 -0.00376562 -0.88158 3.40823 -1.31391 0.0102103 
100 1 1 0.00690239 0.0130606 0.0293439 0 0 0 0.0117152 0.0677433 0.0372401 -0.112659 -0.345321 -0.0250598 -6.82171 1.59323 -7.51708 0.0102103 
95 1 1 0.0242923 0.0104819 0.0375268 0 0 0 0.000610666 0.0214779 0.0548763 -0.0162656 -0.022066 0.0868848 1.00581 -2.18419 0.497878 0.0102103 
2 1 1 -0.031365 0.0186884 0.0345173 0 0 0 0.00765467 0.0228219 0.0466578 -0.0290473 0.0116026 0.0354558 -3.93997 4.68145 0.360862 0.0102103 
69 1 1 -0.00482601 0.0296379 0.0314539 0 0 0 -0.0136987 -0.0348412 0.121655 0.0572661 0.0632456 0.076893 16.72 -0.0398934 3.793 0.0102103 
108 1 1 0.0265323 0.0285453 0.0319821 0 0 0 -0.00357985 0.00780833 0.0280802 -0.00623021 -0.032679 0.0202065 -3.68324 -1.05443 0.516441 0.0102103 
16 1 1 0.0118309 0.0406835 0.0285853 0 0 0 -0.0188281 -0.00593289 0.0221362 -0.0367506 -0.0327883 -0.0074598 -1.96501 4.46995 -0.537038 0.0102103 
9 1 1 -0.0406806 0.0411936 0.0321754 0 0 0 -0.000820305 0.00386226 0.000172098 0.00684656 0.00110414 -0.00172203 0.224689 0.404276 0.253416 0.0102103 
323 1 1 -0.0119015 0.0440463 0.0303619 0 0 0 -0.0136739 -0.0149639 0.0601984 -0.0139826 -0.0126313 0.0382599 -9.85045 -57.1234 -2.69195 0.00638145 
329 1 1 -0.0234494 -0.0444242 0.0451133 0 0 0 -0.0186758 0.00340954 0.0235616 -0.00733813 -0.00111055 0.00322369 -0.748575 7.58644 -4.32377 0.00638145 
168 1 1 0.00187677 -0.0445275 0.0399343 0 0 0 0.00139872 -0.00396939 0.00668294 -0.00643032 0.00222508 -0.0018886 0.829664 12.1172 0.0722445 0.00638145 
283 1 1 0.0309677 -0.0442307 0.0453576 0 0 0 -0.0110689 0.00149145 0.0365595 -0.00814728 0.021262 0.00511955 1.90913 -2.78367 3.42943 0.00638145 
211 1 1 -0.0437167 -0.0329741 0.0388461 0 0 0 0.0138968 0.00457583 0.0358082 -0.000312806 3.66091e-05 0.0131756 -0.379382 7.15847 1.1876 0.00638145 
191 1 1 0.00320056 -0.0322419 0.0401769 0 0 0 -0.0134117 -0.00458121 -0.00552528 -0.0132677 0.0126007 0.0167275 0.455502 11.4207 3.00804 0.00638145 
3 1 1 0.0166634 -0.0405771 0.0396852 0 0 0 0.000268634 -0.00254323 -0.017343 -0.0327162 0.0156571 -0.0347725 -1.32298 -4.86034 -0.373061 0.0102103 
93 1 1 -0.0266392 -0.0293285 0.0421359 0 0 0 0.0110346 0.0125254 0.0236945 -0.0139394 -0.0376583 -0.0457574 -2.36313 6.94129 -2.09901 0.0102103 
43 1 1 -0.00846391 -0.0239876 0.0466042 0 0 0 0.0183767 0.00284897 0.0792268 -0.212266 -0.00108451 0.0478891 2.66729 1.6357 -4.49678 0.0102103 
105 1 1 0.0302988 -0.0281582 0.0462135 0 0 0 -0.0232571 0.00993842 0.0322063 0.0109021 0.0305038 0.00849336 -1.08166 -3.67395 -0.55849 0.0102103 
66 1 1 -0.0409806 -0.0171147 0.0387027 0 0 0 -0.000552326 0.0133311 0.0220658 0.0295043 -0.0101175 -0.0313326 -1.72861 -2.35576 1.19223 0.0102103 
259 1 1 0.0246026 -0.0138997 0.0425687 0 0 0 -0.0385991 0.0242842 0.0663461 0.00436421 -0.00495111 0.0100656 9.84811 2.8682 4.1979 0.00638145 
336 1 1 -0.0205325 -0.0130155 0.0426054 0 0 0 -0.0290418 -0.00402228 0.0642066 -0.0253178 0.00423066 0.00347857 15.1834 -8.54873 40.1014 0.00638145 
245 1 1 0.000548532 -0.0121829 0.0419298 0 0 0 -0.0309915 0.0211975 -0.00168611 -0.0206082 -0.00313275 0.0374257 -33.3712 -18.8951 29.521 0.00638145 
107 1 1 -0.0380683 0.00171496 0.0420905 0 0 0 -0.00492251 0.0177649 0.049696 1.94596e-05 0.00381845 0.0125414 3.19704 -4.8341 -1.41218 0.0102103 
303 1 1 0.0267326 -0.00243767 0.0462702 0 0 0 -0.0155103 0.030594 0.0852308 -0.00242444 -0.00464896 0.0283024 -7.10456 5.10981 -4.60516 0.00638145 
208 1 1 -0.0443769 0.0162569 0.0431619 0 0 0 -0.00421158 0.0143454 0.0566081 0.000777677 0.0093518 -0.00173141 5.21387 -9.44676 1.24785 0.00638145 
282 1 1 -0.0183208 0.0174384 0.0437048 0 0 0 0.0352604 0.0318569 0.0223467 -0.0060066 -0.0145585 -0.00112286 -1.18264 0.453158 -0.279446 0.00638145 
4 1 1 -0.00338604 0.0140272 0.0466175 0 0 0 0.0288357 0.0157605 0.0824003 -0.0320462 -0.0586192 -0.00247822 2.82472 -6.88611 -0.732873 0.0102103 
58 1 1 0.0407624 0.0194167 0.042521 0 0 0 0.00870988 0.0206188 0.0377805 0.00634599 -0.0279944 0.0341274 -2.0551 3.77359 -1.86631 0.0102103 
199 1 1 -0.0442025 0.0279136 0.0401145 0 0 0 0.000686558 0.0161233 0.0398703 0.00311975 0.0144712 0.00908288 -8.46839 -6.27931 2.70681 0.00638145 
192 1 1 -0.024321 0.0273446 0.045701 0 0 0 0.00620805 0.00549146 0.0765939 0.0214049 -0.0134262 -0.00783568 15.234 -6.44717 3.17217 0.00638145 
73 1 1 0.0107751 0.0276357 0.0440704 0 0 0 0.032742 0.0257592 0.0901926 0.0306793 -0.142191 -0.125502 -0.0644955 8.6249 0.535804 0.0102103 
292 1 1 -0.0130824 0.0319923 0.0455675 0 0 0 0.000741512 0.0226555 0.155565 0.00879347 -0.000346693 -0.00867344 4.18978 -1.34666 -0.565995 0.00638145 
114 1 1 0.0401631 0.0402875 0.0400797 0 0 0 -0.00315183 0.0110704 0.0131547 -0.0144379 0.010351 0.0828694 -0.914194 -0.400487 -1.12428 0.0102103 
126 1 1 -0.0104117 0.0439812 0.0450846 0 0 0 0.00911838 0.010466 0.0932569 -0.0125424 0.000475146 0.00284969 -15.3679 -2.02679 0.365081 0.00638145 
248 1 1 0.000847344 0.0436562 0.0401447 0 0 0 0.0163826 -0.0111446 0.0824402 -0.00242631 -0.00502267 0.0337168 6.06283 3.39542 -0.0952909 0.00638145 
229 1 1 0.0125283 0.0439831 0.0446157 0 0 0 0.0352056 0.0102272 0.0340059 -7.15512e-05 -0.0324506 -0.0103444 -6.12838 4.75185 3.66341 0.00638145 
314 1 1 -0.0165954 -0.0442014 0.0552076 0 0 0 -0.0323955 0.00553185 0.0316902 -0.0141547 -0.00193361 -0.0194246 4.70943 -8.78239 5.53588 0.00638145 
265 1 1 0.0227702 -0.0437372 0.0547768 0 0 0 -0.03935 0.0283172 0.0446583 -0.0161724 -0.0144369 -0.00185839 -7.94642 0.886626 -5.80038 0.00638145 
84 1 1 -0.040781 -0.0329459 0.0547732 0 0 0 0.00583684 0.0174315 0.0469452 0.0378084 0.0314593 0.036968 0.683132 -5.44422 1.82028 0.0102103 
307 1 1 -0.0185865 -0.0322252 0.0560333 0 0 0 -0.0156077 0.0314873 0.0851364 -0.0165569 -0.000719176 0.00245611 4.949 5.34408 -10.4764 0.00638145 
337 1 1 -0.00590677 -0.0396763 0.0507489 0 0 0 -0.00855249 -0.00608555 0.0592642 0.0357266 -0.0182524 -0.0161085 -4.43166 1.80647 -6.85027 0.00638145 
326 1 1 0.0443251 -0.0255165 0.0529156 0 0 0 -0.00928546 0.0057583 0.029936 -0.00352174 -0.00543995 -0.00425635 -4.26264 5.11615 -2.52836 0.00638145 
52 1 1 0.0116567 -0.0219295 0.0490473 0 0 0 -0.0478549 -0.00938663 0.068395 0.129142 -0.197712 -0.0173704 13.282 2.77162 2.70672 0.0102103 
332 1 1 0.0261008 -0.0150975 0.0549309 0 0 0 -0.00897697 -0.00766229 0.0571282 0.018755 -0.0181603 0.00982214 2.36143 -1.47002 1.06207 0.00638145 
220 1 1 -0.0436374 -0.00934541 0.053082 0 0 0 0.0114483 -0.00628878 0.058527 -0.00475953 -0.00787099 -0.00893923 6.13114 9.01938 -0.13974 0.00638145 
240 1 1 0.016983 -0.00722745 0.0527502 0 0 0 -0.00728771 -0.00684641 0.108163 -0.020068 -0.025266 0.00960309 -7.64848 18.2972 -4.93884 0.00638145 
5 1 1 0.0402218 -0.0109793 0.0481952 0 0 0 -0.0116955 0.0089899 0.038174 -0.0143353 -0.0176081 -0.0161122 2.23343 3.76454 -0.42502 0.0102103 
133 1 1 -0.0279764 -0.0029114 0.0542156 0 0 0 0.0380399 0.0214292 0.0540725 -0.0273998 -0.0156086 0.00417749 -8.3899 -4.27267 5.50409 0.00638145 
24 1 1 -0.00963108 -0.00416336 0.051252 0 0 0 -0.00128357 0.0166167 0.035881 -0.125816 0.0396748 0.0754529 9.17774 25.7757 -8.24842 0.0102103 
318 1 1 0.0440533 0.00450851 0.0475299 0 0 0 0.00187464 0.0137017 0.0422614 -0.00772237 -0.0058179 0.00331749 0.290813 6.68998 -2.26248 0.00638145 
236 1 1 -0.0242921 0.00780359 0.0489797 0 0 0 0.0263258 0.0296242 0.034079 -0.00281585 -0.00716374 0.0343351 2.67534 0.680096 -1.94011 0.00638145 
15 1 1 0.0138635 0.00820017 0.0540851 0 0 0 0.0259854 0.00986031 0.0931815 -0.10774 -0.0597011 -0.00119505 -0.762218 5.33219 1.43311 0.0102103 
298 1 1 0.0294583 0.0134976 0.0529896 0 0 0 0.0234143 0.0301333 0.0578802 0.00393218 -0.0124336 0.0194539 3.3781 -1.48806 0.700355 0.00638145 
335 1 1 -0.0341733 0.0155611 0.0505685 0 0 0 -0.00261384 0.00333409 0.0500645 -0.0205581 -0.0497003 -0.0191499 -7.88119 3.26457 9.5462 0.00638145 
262 1 1 -0.0360489 0.0279784 0.0495485 0 0 0 -0.00243551 -0.00361399 0.0572748 0.0154326 0.00894053 -0.00761237 8.0428 3.80914 -8.07147 0.00638145 
122 1 1 -0.0264404 0.0405946 0.0535397 0 0 0 -0.0224701 0.0061612 0.0833912 0.168936 -0.00671339 0.0337101 -8.45441 -3.18701 -2.3031 0.0102103 
47 1 1 0.024083 0.0385626 0.0546535 0 0 0 0.0317685 0.0469239 0.0797183 -0.0857355 -0.277266 0.0371043 1.03438 -7.81229 0.858348 0.0102103 
327 1 1 -0.0436353 0.0436282 0.0482734 0 0 0 0.00315123 -0.00305324 0.00900889 0.000610953 0.00332542 0.00213736 0.715457 0.173212 -0.432623 0.00638145 
203 1 1 0.0420122 0.0438739 0.0560894 0 0 0 0.00039412 0.00196803 0.0376945 -0.0698631 0.0104718 0.027722 -5.69452 6.88722 0.0478491 0.00638145 
190 1 1 -0.00702291 -0.0439966 0.0629289 0 0 0 -0.0642632 0.00874412 0.0782515 -0.0129844 0.000647166 0.000442523 12.9502 1.052 10.5166 0.00638145 
56 1 1 0.00781242 -0.0387383 0.0596019 0 0 0 -0.0428526 0.00987427 0.134755 -0.0567582 -0.0306717 0.0989038 -15.3254 -10.143 -5.40722 0.0102103 
49 1 1 0.0405232 -0.0405308 0.0574295 0 0 0 -0.0104042 -0.00472082 0.0329845 -0.0287213 -0.0288328 0.013285 3.26344 2.83002 1.08801 0.0102103 
137 1 1 -0.00151852 -0.0229171 0.0615792 0 0 0 0.0211936 0.0397471 0.0973267 -0.0230001 0.00558281 0.0184036 -8.8684 -5.68772 11.8836 0.00638145 
91 1 1 0.0230256 -0.0270438 0.0650292 0 0 0 -0.00403438 -0.000606564 0.0718792 -0.0441187 -0.0290295 0.0824192 -1.98138 5.47873 -3.28706 0.0102103 
247 1 1 0.0390738 -0.0256621 0.0664045 0 0 0 -0.00408776 0.000615003 0.101688 0.0100704 0.0165695 -0.0545129 0.432729 -14.7954 4.29631 0.00638145 
81 1 1 -0.0221813 -0.0169752 0.0595983 0 0 0 0.0479298 0.034597 0.123946 -0.0202619 -0.008923 0.0582724 0.642003 -2.19637 -0.106421 0.0102103 
217 1 1 0.0440185 -0.014599 0.0638591 0 0 0 0.00322074 -0.00736569 -0.00160475 0.00277242 0.014947 0.00497374 -25.2209 -1.49041 -1.44104 0.00638145 
10 1 1 0.00511264 -0.00647085 0.064767 0 0 0 0.0292743 -0.0658861 0.0221569 0.0216886 -0.166469 -0.0320907 1.93532 -22.9417 9.29418 0.0102103 
197 1 1 -0.0194427 -0.000246187 0.0638353 0 0 0 0.0732705 -0.0142274 0.107399 -0.0126076 0.0406016 -0.0107984 12.9977 -33.2623 -12.888 0.00638145 
87 1 1 0.028774 0.000905678 0.064854 0 0 0 0.027646 0.0162598 0.102971 -0.00662262 -0.0882568 0.0483809 -9.89823 0.0116807 -8.17453 0.0102103 
148 1 1 0.0441611 -0.00225048 0.0621515 0 0 0 0.00376368 -0.016565 0.0405209 -0.00366626 -0.0320076 0.0272975 32.8881 6.81515 2.91279 0.00638145 
32 1 1 -0.039851 0.00498296 0.0618529 0 0 0 0.00529488 -0.0252668 0.0567387 -0.0954062 -0.00411361 0.0428213 0.534279 4.92659 5.67665 0.0102103 
115 1 1 -0.00426791 0.0112507 0.0658978 0 0 0 0.00150733 -0.0626773 0.0270609 0.0370542 -0.0553254 -0.0592097 9.0185 5.84134 -7.35177 0.0102103 
291 1 1 0.0436469 0.012724 0.057379 0 0 0 -0.010325 -0.00270208 0.0438716 0.00419225 -0.0106343 0.00518938 3.37203 4.12811 -0.770434 0.00638145 
117 1 1 -0.0213582 0.0209812 0.0604882 0 0 0 0.0160393 -0.0188762 0.0863777 -0.0456343 -0.122317 -0.0762769 9.69209 -4.71224 0.989719 0.0102103 
140 1 1 0.00871134 0.0205019 0.0623587 0 0 0 0.0333509 0.0114485 0.112752 -0.00236752 -0.0143336 0.00633803 -0.70859 1.1703 0.526957 0.00638145 
266 1 1 0.0212208 0.0225651 0.0577354 0 0 0 0.052133 0.0291348 0.0458496 -0.0161631 -0.0347959 -0.0452555 5.27868 16.7409 1.13082 0.00638145 
39 1 1 -0.0403544 0.0248776 0.0648576 0 0 0 -0.00695971 -0.0206674 0.0380361 0.0015882 -0.0455794 0.0264386 -1.41254 -2.40124 -2.8396 0.0102103 
99 1 1 -0.00363891 0.02994 0.0585868 0 0 0 0.0154759 -0.00227267 0.134774 -0.0211659 -0.0298678 -0.0196628 1.61855 3.47992 0.835671 0.0102103 
106 1 1 0.0400925 0.0285921 0.0614756 0 0 0 0.013666 0.025474 0.0954413 0.0532997 0.0142155 -0.0461507 -2.64509 7.80915 -2.71906 0.0102103 
174 1 1 -0.0435477 0.0426052 0.0609696 0 0 0 0.00638147 -0.0129533 0.0142366 -0.00211955 0.00110223 -0.00257094 0.802941 0.440256 -1.60172 0.00638145 
315 1 1 -0.0118068 0.0438786 0.0606151 0 0 0 0.00475427 0.00465743 0.0896013 -0.0145743 0.00154438 0.00605267 -14.2881 -0.33227 0.80106 0.00638145 
158 1 1 0.00196385 0.0442578 0.0623912 0 0 0 0.0319319 0.0105516 0.0398913 -0.0269932 -0.00344793 0.0172627 -6.67855 27.457 4.7427 0.00638145 
189 1 1 0.0273272 -0.0438315 0.0664566 0 0 0 -0.0286838 0.0208253 0.0600703 -0.0457143 0.0110984 -0.00836366 6.3715 -1.10506 -0.367173 0.00638145 
186 1 1 0.0436099 -0.0438377 0.0732916 0 0 0 0.0020746 -0.0111315 0.0149069 -0.00587119 0.0303166 -0.00272753 1.65446 10.4007 0.131985 0.00638145 
230 1 1 -0.0401155 -0.0323632 0.0735585 0 0 0 -0.0250732 0.039533 0.14401 0.0722979 -0.0448993 -0.0393686 -14.7684 -37.0453 10.8076 0.00638145 
6 1 1 -0.0268898 -0.0402994 0.0671693 0 0 0 -0.0179058 0.00132311 0.0605001 0.149806 -0.0145695 0.0438945 6.20216 0.244963 1.90792 0.0102103 
313 1 1 -0.0139501 -0.0292165 0.0673138 0 0 0 0.0207727 -0.0566445 0.11905 0.039444 -0.00209487 -0.0334302 4.1592 -4.31589 -6.91523 0.00638145 
227 1 1 0.00738338 -0.0256028 0.0702718 0 0 0 0.0061852 0.0367876 0.132474 -0.000382312 0.0150439 0.00201581 15.4128 -1.15254 -5.70802 0.00638145 
36 1 1 -0.0403393 -0.0173638 0.0676157 0 0 0 0.00735407 0.0154114 0.0558639 0.00376299 -0.0915781 0.0141646 1.23272 -5.42319 1.1897 0.0102103 
215 1 1 0.0324482 -0.0144542 0.0684458 0 0 0 0.0219764 -0.00986792 0.0670521 0.0180849 -0.0241284 0.0143372 18.6433 14.409 6.89943 0.00638145 
182 1 1 -0.0295809 -0.00507508 0.0699326 0 0 0 0.00608601 0.0285759 0.166527 -0.0603562 -0.00205603 0.0771229 -11.6693 -25.3937 -4.28016 0.00638145 
204 1 1 -0.0178232 -0.00803248 0.0736264 0 0 0 0.0204591 -0.0110914 0.126513 -0.0496068 0.00297097 0.0172347 -20.1422 41.954 -12.7761 0.00638145 
276 1 1 0.0196894 -0.0117851 0.0696703 0 0 0 0.020569 0.0154915 0.154874 -0.0134812 -0.0172657 0.0157254 12.3966 8.30822 6.92561 0.00638145 
306 1 1 -0.0438424 -0.00353809 0.0752347 0 0 0 0.00316338 0.00435787 0.0842855 -0.00470191 -0.0120127 -0.00268272 6.04033 -5.09892 -9.05187 0.00638145 
338 1 1 0.041939 0.00909478 0.0695303 0 0 0 0.0498427 -0.0415524 0.119214 -0.0222644 0.0223386 0.101705 22.1481 -0.438877 5.69237 0.00638145 
263 1 1 0.010184 0.0158062 0.0739596 0 0 0 -0.0486506 -0.03333 0.0743917 -0.015717 -0.00483793 0.0300343 8.35344 -14.425 -1.3109 0.00638145 
45 1 1 0.0266169 0.0192972 0.0732789 0 0 0 -0.0447489 0.0725667 0.0758301 0.0502598 -0.108383 0.0228388 1.33848 -9.19914 -4.22608 0.0102103 
322 1 1 0.0438926 0.0199743 0.0750308 0 0 0 -0.00757339 -0.0440097 0.129049 -0.0386241 0.0559577 0.0886269 -16.0208 18.1419 12.7152 0.00638145 
35 1 1 -0.0286782 0.0390447 0.0733862 0 0 0 -0.114896 0.0457352 0.0941327 -0.0347983 -0.0553765 0.109401 3.71108 -6.40461 15.0824 0.0102103 
113 1 1 0.0101665 0.0321145 0.0732034 0 0 0 -0.0744455 -0.0339594 0.210403 -0.0132379 -0.040186 -0.0670923 9.14896 -12.7857 4.81779 0.0102103 
76 1 1 0.0286184 0.0400342 0.0746549 0 0 0 -0.0506465 -0.0132191 0.0689822 -0.108006 -0.00927942 -0.0985968 -7.3438 29.2108 -4.45874 0.0102103 
124 1 1 0.043697 0.0430292 0.0686191 0 0 0 -0.0229327 0.0468405 0.0885694 -0.0297617 0.0774746 0.0174753 1.28377 -12.9058 13.295 0.00638145 
252 1 1 -0.0393508 -0.0439946 0.0774333 0 0 0 -0.0300078 0.0173913 0.122142 0.0506328 -0.0549817 -0.0499158 20.5457 -16.9771 5.50619 0.00638145 
163 1 1 -0.0268672 -0.0436396 0.0849132 0 0 0 -0.0551582 -0.00566372 0.0712706 -0.00272944 0.0166263 -0.0210886 13.3667 10.2157 -5.24434 0.00638145 
213 1 1 0.0320247 -0.0438709 0.0807452 0 0 0 0.0191921 -0.0139787 0.0214135 -0.0369612 0.000269507 -0.0106166 3.09222 7.75503 -2.88748 0.00638145 
79 1 1 -0.0114593 -0.0378963 0.0829836 0 0 0 -0.0145631 -0.0468734 0.129544 0.0748012 -0.0916108 -0.14907 3.56455 -9.06062 8.62231 0.0102103 
109 1 1 0.0163559 -0.0402445 0.0780175 0 0 0 0.0100847 0.0055173 0.120064 -0.0924558 0.00200843 -0.0138473 2.94395 5.93965 -4.11193 0.0102103 
147 1 1 -0.0429947 -0.0258116 0.0838493 0 0 0 -0.0798495 0.0625729 0.141705 -0.0525533 -0.0168025 -0.0194561 8.49056 37.8641 6.38228 0.00638145 