ITEM: TIMESTEP
45150
ITEM: NUMBER OF ATOMS
338
ITEM: BOX BOUNDS mm mm mm
-0.05 0.05
-0.05 0.05
0 0.15
ITEM: ATOMS id type type x y z ix iy iz vx vy vz fx fy fz omegax omegay omegaz radius 
319 1 1 -0.0146578 -0.0444063 0.00612421 0 0 0 -0.00139586 -0.0020696 -0.00134365 -0.00708075 0.00564644 -0.00469784 -0.876428 0.911255 0.595391 0.00672771 
243 1 1 -0.00277058 -0.0437886 0.00612857 0 0 0 -0.00382521 0.0010925 0.0230553 -0.0203577 0.0228405 -0.0734566 2.41213 -4.31419 0.757962 0.00672771 
260 1 1 0.0251804 -0.0436748 0.00611078 0 0 0 -0.0086273 0.0144697 0.00469482 0.00305462 -0.0354676 -0.0759916 -0.782062 -0.531604 -0.883669 0.00672771 
131 1 1 -0.0256796 -0.0398374 0.00575267 0 0 0 -0.0111714 -0.00309789 -0.00557888 0.0231833 0.0178994 0.0102366 -0.233419 -1.13016 -0.924933 0.00672771 
173 1 1 -0.0155723 -0.0318881 0.00570569 0 0 0 -0.0129124 -0.00432342 -0.0122919 0.0469714 0.0183614 0.00145937 0.485415 0.656526 1.41541 0.00672771 
296 1 1 -0.0274506 -0.0273934 0.00623553 0 0 0 -0.00734865 0.00464461 -0.00540935 0.0188332 0.00478253 0.023434 1.87472 -0.673219 -1.39101 0.00672771 
275 1 1 -0.00359359 -0.0296607 0.00585746 0 0 0 -0.0290156 0.0104074 -0.0223326 0.0228212 0.061482 -0.0845643 -7.80633 -4.60435 0.648807 0.00672771 
144 1 1 0.0427764 -0.0249055 0.00613915 0 0 0 -0.00196554 0.0135298 0.0138594 -0.0156222 -0.0200817 -0.122179 -1.33593 0.622286 1.3404 0.00672771 
102 1 1 -0.0404723 -0.0169682 0.00911495 0 0 0 -0.0118309 0.00551674 -0.00658413 -0.1648 -0.204903 -0.106207 0.0721733 -0.363372 0.273087 0.0107643 
328 1 1 -0.0253876 -0.0152259 0.00552315 0 0 0 -0.021567 0.0317732 0.0115653 -0.0592558 0.011605 0.0852364 -3.17099 -4.79257 4.57583 0.00672771 
267 1 1 0.0153922 -0.0200256 0.00578712 0 0 0 -0.0261491 0.0306419 -0.0641576 0.0683752 -0.0383618 0.21919 -9.06105 -4.82776 4.97987 0.00672771 
202 1 1 0.0450147 -0.0129753 0.00623231 0 0 0 0.007599 0.0171929 -0.0107489 -0.0371045 -0.0281963 0.0544777 -3.21491 -0.893394 -3.28659 0.00672771 
257 1 1 -0.0441047 -0.00110159 0.00628853 0 0 0 -0.00516742 0.000355188 -0.00835499 -0.00161735 -0.0544909 -0.0596538 -0.34465 1.34349 -1.01672 0.00672771 
268 1 1 -0.0325395 0.00362187 0.00632413 0 0 0 -0.022523 0.0137505 -0.0111114 -0.0258077 -0.0778864 -0.101426 0.862272 -3.93822 5.30732 0.00672771 
274 1 1 -0.0219095 -0.00387308 0.00787825 0 0 0 -0.0408129 0.0431196 0.0497849 -0.138232 -0.048534 0.161851 2.94483 -11.1111 0.848098 0.00672771 
164 1 1 0.020466 0.00162301 0.00562695 0 0 0 0.0272103 0.0209769 -0.0116972 0.0617811 -0.0749584 -0.120134 -2.67343 6.65807 -8.5941 0.00672771 
232 1 1 -0.043368 0.0117955 0.00633226 0 0 0 -0.00583859 0.00540474 -0.00732474 -0.0413388 -0.0585799 -0.0849639 -0.618169 -1.07404 0.935302 0.00672771 
171 1 1 -0.020995 0.00793572 0.00846132 0 0 0 -0.0114252 0.0174629 0.0252182 -0.0020058 -0.130558 -0.0458475 -5.35431 -0.87635 -7.21264 0.00672771 
297 1 1 -0.0251623 0.0193863 0.00577238 0 0 0 0.00140851 0.010263 -0.0077254 0.134193 -0.124506 -0.068655 -0.855472 -0.224656 2.23039 0.00672771 
222 1 1 -0.0107477 0.0145621 0.00569556 0 0 0 0.0134329 0.00326286 0.00852293 0.081499 -0.134335 -0.0416166 -1.3816 1.42285 4.55809 0.00672771 
290 1 1 -0.000762652 0.0213917 0.00543807 0 0 0 0.000609265 -0.00558329 0.0180772 0.154799 -0.0858223 0.0348204 -1.12855 -1.10598 -4.52077 0.00672771 
316 1 1 0.0322073 0.0195593 0.00530475 0 0 0 -0.0121637 0.01042 -0.00410935 0.00505793 0.0361864 0.00204451 -3.86081 -2.97274 1.6222 0.00672771 
162 1 1 0.0445184 0.0201335 0.00562763 0 0 0 -0.00233831 0.00907743 0.000742535 -0.0339252 0.0291697 0.0234832 -1.32185 0.516155 -1.13864 0.00672771 
294 1 1 -0.0438545 0.0251619 0.00620624 0 0 0 -0.0132041 0.00711654 -0.00924151 -0.0257753 -0.0372606 -0.0516595 -0.396222 -0.476004 1.39613 0.00672771 
175 1 1 -0.0327937 0.0313672 0.00614391 0 0 0 -0.0198618 0.00234988 0.00463935 -0.0154736 -0.0061265 0.0231995 -0.570258 -3.68798 -2.76395 0.00672771 
255 1 1 -0.0148115 0.0260248 0.00599493 0 0 0 -0.00607427 0.00740021 0.00207321 0.109767 -0.102886 0.0464616 -0.178328 -0.65231 -0.112613 0.00672771 
155 1 1 0.037519 0.0310257 0.00581353 0 0 0 -0.00390194 0.00402046 -0.00302447 0.00766158 0.0224513 -0.0335451 0.655244 -2.74771 -1.19652 0.00672771 
324 1 1 -0.0033788 0.0326142 0.00573409 0 0 0 -0.00462339 -5.61088e-05 -0.00378395 0.112693 -0.0240659 -0.000853372 -0.0648559 3.32082 1.40534 0.00672771 
161 1 1 0.0082187 0.0320356 0.00667733 0 0 0 -0.00337741 0.0171838 -0.0374814 0.0703885 -0.0230866 -0.0302897 5.29035 -1.24861 5.47086 0.00672771 
321 1 1 -0.0439461 0.0437709 0.00630821 0 0 0 -0.00164914 0.00176099 0.00650995 0.016594 -0.00835913 0.0156339 -1.17787 -0.430102 0.17123 0.00672771 
207 1 1 -0.0314127 0.0438787 0.00633592 0 0 0 -0.00449404 0.00610092 -0.000770258 -0.00524594 -0.0246006 0.0151196 -0.352817 1.26452 0.385636 0.00672771 
149 1 1 0.0119169 0.0438029 0.00555549 0 0 0 -0.0069305 0.012463 -0.0173322 0.0759243 0.0409435 0.0751959 -0.982904 -0.815804 -2.28935 0.00672771 
249 1 1 0.0275993 0.0439995 0.00628838 0 0 0 0.0111484 0.00987873 -0.0102568 0.0262817 -0.0218813 -0.0160929 0.335086 0.938073 0.00871304 0.00672771 
289 1 1 0.0442181 0.0420366 0.00602842 0 0 0 0.00834266 -0.00691503 0.0155395 0.0572191 0.0114394 0.0285046 2.16901 2.78437 0.693622 0.00672771 
299 1 1 -0.0245149 -0.0448967 0.0168652 0 0 0 -0.0198804 -0.00913151 -0.00230686 0.0778512 0.0178179 -0.00430894 0.000919914 0.740356 2.4136 0.00672771 
225 1 1 -0.0115919 -0.0440605 0.0187041 0 0 0 -0.00788465 0.00980919 0.0159534 0.03231 -0.0388422 -0.0681246 1.06598 -5.15681 4.01567 0.00672771 
130 1 1 0.02084 -0.0441148 0.0181523 0 0 0 0.0219775 0.029022 0.0121954 -0.0726467 -0.0420518 -0.0493858 1.8564 7.82424 -6.35212 0.00672771 
74 1 1 -0.0406914 -0.0365578 0.00968448 0 0 0 -0.00850912 0.0029229 -0.00400699 0.0300063 -0.0446769 -0.0571127 -0.508387 0.090717 0.612907 0.0107643 
60 1 1 0.0105065 -0.0358817 0.00964694 0 0 0 -0.00452809 0.0393129 0.0254493 -0.193046 -0.290104 -0.406985 -5.16763 1.92374 1.53669 0.0107643 
78 1 1 0.0411621 -0.0407145 0.00938844 0 0 0 -0.00383582 0.00468415 0.010434 0.0559909 -0.00532986 -0.471882 0.961618 0.510837 0.0595042 0.0107643 
67 1 1 0.027682 -0.0279619 0.0128606 0 0 0 -0.0126617 0.0299443 0.00387287 0.424121 -0.418164 -0.825611 -0.728188 -2.85762 -2.84392 0.0107643 
40 1 1 -0.0106524 -0.0158406 0.0107088 0 0 0 -0.0262914 0.0268528 -0.0176353 -0.168869 0.197433 0.139039 7.77729 7.42308 -2.95164 0.0107643 
279 1 1 0.0043203 -0.0207649 0.0110055 0 0 0 -0.0505817 0.0306858 -0.0922108 0.0962832 0.00129107 0.0855727 -11.058 -1.77813 3.9171 0.00672771 
96 1 1 0.0118893 -0.00737819 0.0160953 0 0 0 0.011976 -0.0110113 -0.0384127 -0.200218 1.0019 0.452626 16.0069 3.85463 -7.99769 0.0107643 
50 1 1 0.0304665 -0.00923354 0.0098415 0 0 0 0.00850833 0.0102383 -0.030419 -0.200915 -0.0181553 0.403892 0.00969368 -0.956208 3.10759 0.0107643 
183 1 1 0.0445435 -0.00702384 0.0175446 0 0 0 -0.00145803 0.0118787 -0.0141463 -0.0257223 0.0511267 0.0303256 2.98379 -2.64029 -1.46183 0.00672771 
17 1 1 -0.00513077 0.00259134 0.0145356 0 0 0 0.033802 0.0120983 0.0436521 0.268047 -0.698502 -0.714364 -0.624554 -4.58178 0.268786 0.0107643 
98 1 1 0.0121356 0.0134356 0.00998805 0 0 0 0.0229682 0.00914699 0.0122461 0.655809 -0.70351 -0.626867 0.00598866 3.78191 6.70274 0.0107643 
94 1 1 0.0383487 0.00827342 0.0137487 0 0 0 0.000820134 0.0165945 0.00513517 -0.0816833 0.249166 0.280355 1.95927 2.98381 -0.977089 0.0107643 
300 1 1 -0.044452 0.0187772 0.017118 0 0 0 -0.0196583 0.00119318 -0.0267987 0.0333214 -0.0768596 -0.185998 0.354426 1.13972 -1.14212 0.00672771 
273 1 1 -0.0324219 0.0186355 0.0157587 0 0 0 -0.0158858 -0.00699186 -0.0282298 0.0923387 -0.206211 -0.201793 5.51024 -2.17854 -1.50494 0.00672771 
286 1 1 -0.00157054 0.0184544 0.0170522 0 0 0 0.0279856 -0.0179307 0.0427048 0.25668 -0.390695 -0.0140022 3.27457 2.30104 -5.02188 0.00672771 
320 1 1 0.00409365 0.0294519 0.0186177 0 0 0 -0.00955387 0.014257 -0.0512889 0.246399 -0.498679 0.102201 -16.7765 -2.8901 9.91019 0.00672771 
77 1 1 0.0226009 0.0295475 0.0125631 0 0 0 -0.0118053 0.0215831 -0.0286795 0.311957 -0.290371 -0.307277 1.30871 0.303929 -2.78114 0.0107643 
284 1 1 0.0445052 0.0273683 0.0157068 0 0 0 -5.03126e-05 -0.0169827 0.0106587 0.0305 0.0371131 -0.00361319 5.25954 1.38683 2.78753 0.00672771 
305 1 1 -0.043596 0.0345927 0.0153788 0 0 0 -0.0197789 -0.0091714 0.0157336 0.0148901 -0.0700828 0.0547402 2.40112 -3.25191 -1.47537 0.00672771 
38 1 1 -0.015417 0.041409 0.00971128 0 0 0 -0.0147453 0.0054196 0.00129321 0.162057 -0.232101 0.187958 -0.0332763 -1.47917 -0.922955 0.0107643 
237 1 1 0.00093171 0.0436993 0.0119833 0 0 0 0.00188348 -0.00809869 -0.0216332 0.0595353 0.0438329 0.115966 9.7028 6.07067 -0.787512 0.00672771 
239 1 1 0.0187165 0.0446439 0.0155771 0 0 0 -0.00159053 0.0213444 -0.0261553 0.00512825 -0.0272996 -0.0240995 -0.00728714 -3.30422 0.112833 0.00672771 
331 1 1 -0.0430969 -0.0453029 0.0218659 0 0 0 -0.0135462 -0.00241416 -0.000394589 0.0137289 0.0146254 -0.0117429 0.195139 -3.20498 1.35741 0.00672771 
242 1 1 0.00102616 -0.0444371 0.0197294 0 0 0 0.0221244 0.0279334 0.0531734 -0.144514 -0.0408009 -0.182866 7.55563 2.93591 -3.77109 0.00672771 
167 1 1 0.0319145 -0.0441639 0.0228629 0 0 0 -9.11388e-05 0.00287707 -0.00489167 0.0430573 -0.00535989 -0.0248246 -3.38769 -5.41161 0.722872 0.00672771 
136 1 1 0.0441659 -0.0445818 0.0241889 0 0 0 -0.00127454 -0.00133959 0.0130815 0.0242273 -0.00662222 -0.0566598 0.722197 0.769744 0.18975 0.00672771 
180 1 1 -0.0440447 -0.0337724 0.0265684 0 0 0 -0.0137334 0.0035972 -0.00170618 0.0110919 -0.0177108 -0.00501004 0.388424 0.728914 -1.19089 0.00672771 
256 1 1 -0.0326179 -0.0398047 0.0255869 0 0 0 -0.0299025 0.0119554 0.00138511 0.0719648 -0.00677954 -0.0285789 -6.4112 0.679711 1.22106 0.00672771 
179 1 1 -0.0344569 -0.026019 0.0213006 0 0 0 -0.015186 0.00712964 -0.0155064 0.0165422 -0.0701959 -0.0366007 0.588169 2.12291 -0.840228 0.00672771 
7 1 1 -0.0199395 -0.0302548 0.0211477 0 0 0 -0.0340095 -0.00594655 -0.0168728 0.481867 -0.032482 0.118931 -1.4882 -1.75608 -0.883204 0.0107643 
104 1 1 -0.000204107 -0.0284055 0.0247709 0 0 0 -0.0413722 0.0710793 -0.00390437 0.877152 -0.825253 -0.100205 -7.78306 -1.61996 11.7202 0.0107643 
128 1 1 -0.0448487 -0.0216475 0.023834 0 0 0 -0.00733289 0.00647006 -0.00167211 0.00829415 -0.0177092 -0.00289616 -1.47388 1.10531 0.76613 0.00672771 
278 1 1 0.0329841 -0.016285 0.0241577 0 0 0 0.0739476 0.00991614 -0.0243617 -0.130325 -0.325186 0.0565252 -3.68532 12.6491 -12.8429 0.00672771 
146 1 1 -0.0446832 -0.00925639 0.0224644 0 0 0 -0.00683037 -0.00841068 -0.0130438 -0.0404018 -0.0611163 -0.147973 -0.826015 2.38359 -1.30945 0.00672771 
19 1 1 -0.0261574 -0.0119394 0.0275343 0 0 0 0.00463269 0.00543177 -0.0324322 -0.165968 -0.787704 -0.141888 -0.845632 2.61303 -3.79825 0.0107643 
258 1 1 0.00104966 -0.0124221 0.0273792 0 0 0 0.00164732 -0.00863595 -0.0439002 0.0268837 0.353966 0.239228 15.9387 13.328 -24.838 0.00672771 
25 1 1 -0.0374323 0.00473937 0.0226699 0 0 0 -0.022756 -0.0275689 -0.0521628 -0.161971 -0.771011 -0.924214 -0.759391 1.38115 1.74428 0.0107643 
28 1 1 -0.0166103 0.0182434 0.0205851 0 0 0 0.00327282 -0.00989198 0.00417892 0.360444 -0.99674 -0.403476 2.3364 -1.73794 1.4865 0.0107643 
261 1 1 0.0431714 0.0175848 0.0270078 0 0 0 0.00354212 0.022985 0.00455643 -0.0428097 0.086594 0.0489032 -4.05888 -5.76399 3.17167 0.00672771 
246 1 1 -0.0441298 0.0260436 0.0275724 0 0 0 -0.00828769 -0.0174236 -0.0240526 0.0210776 -0.0272208 -0.14626 10.6619 4.98118 -0.59901 0.00672771 
23 1 1 -0.0280004 0.0333476 0.0218918 0 0 0 -0.0182712 -0.0180828 0.0134662 0.27315 -0.814135 0.122773 2.14993 2.45374 1.49651 0.0107643 
61 1 1 0.0369392 0.0407558 0.0205404 0 0 0 -0.0107084 -0.017127 0.0179185 0.26681 0.00211989 -0.142423 -0.242912 -4.35789 -1.12846 0.0107643 
323 1 1 -0.00889902 0.0441358 0.0267313 0 0 0 0.124282 -0.0205501 -0.0428108 0.0181059 -0.211453 -0.224944 8.41123 -84.8244 19.0263 0.00672771 
224 1 1 -0.0437357 -0.0443179 0.0342537 0 0 0 -0.0050233 -4.6278e-06 0.00286553 0.00448873 -0.0124141 -0.0156197 -0.164825 3.74023 1.01294 0.00672771 
125 1 1 0.0437589 -0.0439603 0.0369927 0 0 0 -0.0114009 -0.00442264 0.0128187 0.0596927 -0.0169011 -0.0324277 1.7282 -0.466654 1.26426 0.00672771 
42 1 1 -0.0119764 -0.0406212 0.0355573 0 0 0 -0.0309632 -0.00128852 0.00211199 0.256494 0.0263798 -0.0537258 1.71308 -0.210465 0.665782 0.0107643 
271 1 1 0.0312513 -0.0405413 0.0344053 0 0 0 -0.0389226 0.0302963 -0.00223779 0.186179 -0.216067 -0.0415034 2.07015 -1.43632 -6.37637 0.00672771 
120 1 1 0.0407675 -0.0295759 0.0291148 0 0 0 -0.00422634 0.00224355 0.00559766 0.378528 -0.4198 -0.399783 -1.85099 0.132398 -0.732976 0.0107643 
178 1 1 -0.0125677 -0.0206085 0.0320597 0 0 0 -0.0388763 0.00334642 -0.0137517 0.15608 -0.0210056 0.0706672 -2.33588 0.703178 -5.00221 0.00672771 
51 1 1 0.0183839 -0.0222458 0.0303851 0 0 0 0.0300204 0.0815106 0.00187264 11.2069 -32.0788 -11.3633 6.80036 1.41809 -13.1964 0.0107643 
134 1 1 0.043953 -0.0143971 0.0326858 0 0 0 0.0178963 0.00262937 0.00994742 -0.0110933 -0.0292138 -0.0898743 3.14491 0.312929 -2.88826 0.00672771 
310 1 1 -0.0103253 -0.00891864 0.0299911 0 0 0 0.0267315 -0.00433349 -0.000607532 -0.0573129 -0.133037 -0.0972457 4.08374 -8.38105 2.99736 0.00672771 
18 1 1 0.0123946 -0.00505357 0.036606 0 0 0 0.0646517 -0.0661064 -0.0341972 -13.2379 36.3459 10.1665 1.19961 -0.0238203 9.67503 0.0107643 
184 1 1 0.0278058 -0.00826921 0.0328736 0 0 0 0.130835 -0.00206504 0.00203286 -0.710655 0.177146 0.335039 1.05326 -6.00098 9.1111 0.00672771 
160 1 1 -0.0024578 0.000507697 0.0310012 0 0 0 0.0326024 -0.0830996 0.00516143 -0.0696677 0.351474 -0.0592515 5.50545 10.0414 -11.6749 0.00672771 
55 1 1 0.0405698 0.0014301 0.0323089 0 0 0 0.0397148 0.00313236 0.0165173 -0.00231432 -0.0344981 0.0601258 -0.0420528 0.49367 1.1259 0.0107643 
112 1 1 -0.0177134 0.00462711 0.0352062 0 0 0 0.0247468 -0.0399112 -0.0215454 -0.352726 -0.191949 -0.0769197 -0.0694254 -3.92343 3.62999 0.0107643 
2 1 1 -0.0314456 0.0194606 0.0354339 0 0 0 -0.0338405 -0.0828134 -0.0714941 -0.273822 0.37469 -0.17511 4.42528 -6.43694 -0.489361 0.0107643 
100 1 1 0.00662429 0.0138699 0.0299476 0 0 0 0.0380995 -0.153389 0.0178076 2.45728 -3.92676 0.919255 4.95509 -1.0638 -1.87082 0.0107643 
69 1 1 -0.00643825 0.0296174 0.03415 0 0 0 0.0156447 -0.0530982 -0.015963 0.164901 -1.34691 -0.507214 0.0749904 4.68839 0.58639 0.0107643 
108 1 1 0.0262255 0.0287999 0.0326922 0 0 0 -0.0518156 -0.0349959 -0.0327226 0.737833 -0.0603882 -0.405241 1.20896 -7.20286 1.22011 0.0107643 
16 1 1 0.0105571 0.0407044 0.0290331 0 0 0 -0.0150251 0.0129521 -0.079559 0.219875 -0.554771 -0.187669 5.69044 1.50366 -2.9771 0.0107643 
9 1 1 -0.0407639 0.0415936 0.0323727 0 0 0 -0.0065153 -0.00926712 0.0228224 0.042769 -0.322602 0.213977 -3.26158 -1.29015 -0.488028 0.0107643 
329 1 1 -0.0241077 -0.0446485 0.0452361 0 0 0 -0.0351421 -0.0194718 0.00059678 0.0439702 0.00473522 -0.0487652 -0.583793 0.161123 4.73937 0.00672771 
168 1 1 0.00173823 -0.0447654 0.0401254 0 0 0 -0.032513 0.0150172 -0.0168219 0.113355 -0.0427544 -0.0269559 -4.83142 1.26053 4.26579 0.00672771 
283 1 1 0.0308725 -0.044354 0.0459079 0 0 0 -0.0266633 0.00605783 -0.0100104 0.0916922 -0.0761188 0.0161541 1.56718 2.9826 -0.895961 0.00672771 
211 1 1 -0.0437197 -0.0330712 0.0392001 0 0 0 -0.00804719 0.00854538 -0.00294582 -0.0104426 -0.0372645 -0.0170499 -1.44612 -0.758844 0.039912 0.00672771 
191 1 1 0.00290167 -0.032143 0.0407581 0 0 0 -0.0426756 0.0452451 0.0217105 0.186144 -0.177195 -0.0743994 16.068 -3.05764 -5.07214 0.00672771 
3 1 1 0.0164935 -0.0405882 0.0394153 0 0 0 -0.0501661 0.0455106 -0.0111591 0.868088 -1.35528 -0.460005 1.29763 -0.310916 1.86132 0.0107643 
93 1 1 -0.0269891 -0.0291948 0.042055 0 0 0 -0.0261865 -0.00283585 0.0113528 0.0503237 -0.231576 -0.202163 2.52121 -1.91573 -3.8482 0.0107643 
105 1 1 0.030245 -0.0279499 0.0466648 0 0 0 -0.0039765 -0.0016967 0.0309633 -0.0150234 -0.507785 -0.601598 3.43601 1.25195 -2.1299 0.0107643 
66 1 1 -0.0414379 -0.0169075 0.0389566 0 0 0 -0.00636041 0.0129851 0.00671448 0.137716 -0.2302 0.136977 1.92384 -0.738976 1.61558 0.0107643 
336 1 1 -0.024646 -0.0121331 0.0449253 0 0 0 -0.0169135 0.024379 0.0188656 0.0391921 0.00179008 -0.0565557 -1.31317 -4.71195 6.48047 0.00672771 
245 1 1 -0.00012198 -0.0121397 0.0427153 0 0 0 0.0651096 -0.0803429 -0.0014429 -0.366084 0.825907 0.220517 -24.3679 0.593455 -21.3609 0.00672771 
259 1 1 0.024184 -0.0133165 0.0439171 0 0 0 0.0674852 -0.0181634 0.017612 -0.517767 0.35532 0.136203 -6.28187 -8.91245 -2.2638 0.00672771 
107 1 1 -0.0379663 0.00202565 0.0432326 0 0 0 -0.0169403 -0.00657948 -0.0119285 0.118159 0.209678 -0.0711731 -4.95692 4.15717 -0.242673 0.0107643 
95 1 1 0.0238914 0.01087 0.039183 0 0 0 -0.0130887 -0.07957 -0.0141145 0.41498 1.39242 0.101353 -2.57077 -2.69665 7.46896 0.0107643 
208 1 1 -0.0445246 0.0167845 0.0448808 0 0 0 -0.0248171 -0.0154297 -0.0789103 -0.0276583 0.0888994 0.0350826 -24.8649 11.7646 2.94741 0.00672771 
282 1 1 -0.0180435 0.0182912 0.0443984 0 0 0 -0.0410837 -0.0462267 -0.00545091 -0.0133211 0.311993 -0.129714 4.42188 1.6984 5.1649 0.00672771 
58 1 1 0.0408936 0.0198943 0.0435645 0 0 0 -0.0368417 -0.0212152 0.0146062 0.126272 0.349769 0.0886548 2.19845 1.63044 1.57632 0.0107643 
199 1 1 -0.0446023 0.0283863 0.0408519 0 0 0 -0.0461202 -0.0605846 -0.0642689 0.0823828 0.268874 0.123893 23.8354 2.38168 -8.93318 0.00672771 
73 1 1 0.010889 0.0279615 0.0457916 0 0 0 -0.0130287 0.00543549 -0.0742012 0.94171 -0.854979 0.513435 -5.92094 3.26751 -1.13578 0.0107643 
114 1 1 0.0400851 0.0406091 0.0406844 0 0 0 -0.0269342 -0.00833503 0.0184305 -0.319597 0.0968997 -0.0954038 -2.5356 3.81511 -1.86415 0.0107643 
126 1 1 -0.0113254 0.0441646 0.0464738 0 0 0 0.0209529 0.0142053 -0.15996 0.0258329 0.0253049 0.42341 17.4958 -26.7474 5.54037 0.00672771 
248 1 1 0.000257604 0.0431023 0.0421777 0 0 0 0.0578328 0.0412846 -0.0853343 0.0110336 -0.423649 0.0580636 -16.0518 6.6637 -1.31626 0.00672771 
229 1 1 0.0124768 0.0443397 0.0454267 0 0 0 0.0240645 0.00998995 -0.0623934 0.173305 -0.244068 0.141419 4.93676 -6.75956 0.527083 0.00672771 
314 1 1 -0.0173785 -0.0443468 0.0556039 0 0 0 -0.0134929 -0.0216568 0.00615886 -0.0211676 0.0128498 0.0067839 2.2055 1.93669 1.06576 0.00672771 
265 1 1 0.0219364 -0.0436345 0.0551967 0 0 0 -0.00698248 0.00888245 0.00279584 0.0221882 0.00906309 -0.0204741 1.62653 2.83994 -0.894338 0.00672771 
84 1 1 -0.0409601 -0.0328509 0.0553105 0 0 0 -0.0105604 0.00584424 0.0014016 -0.0607643 -0.0657199 -0.0753415 0.716558 1.50042 0.045592 0.0107643 
337 1 1 -0.00602799 -0.0405729 0.0515133 0 0 0 -0.0118833 -0.024468 -0.00175912 -0.022656 0.0304091 0.0748668 -0.354776 2.6745 0.262167 0.00672771 
43 1 1 -0.00878688 -0.0241754 0.0478454 0 0 0 -0.0479758 -0.0340517 0.0548129 0.363734 -0.00370324 -0.0817085 5.74475 -2.23103 2.99898 0.0107643 
326 1 1 0.0445769 -0.0254285 0.0534466 0 0 0 0.0104959 -0.0173891 0.017605 -0.0844601 0.0378287 -0.0425445 3.80128 1.99942 0.553621 0.00672771 
52 1 1 0.011324 -0.0221476 0.0506331 0 0 0 -0.0142085 -0.0110849 0.0685029 -0.189224 -0.0118808 -0.147598 -2.47186 2.31935 0.684416 0.0107643 
220 1 1 -0.0436145 -0.00963042 0.0541894 0 0 0 -0.00241452 0.015018 0.0114562 0.10726 0.049763 0.0779222 -1.90969 0.13714 0.183165 0.00672771 
240 1 1 0.0171824 -0.00757126 0.0552078 0 0 0 -0.000481381 -0.00985467 0.0199851 -0.0155197 0.0785381 0.0529168 -2.5607 7.03127 0.866284 0.00672771 
5 1 1 0.0403681 -0.0107071 0.0487966 0 0 0 0.0275519 -0.00758476 0.0395381 -0.436029 -0.0323851 -0.283404 -0.963918 1.5854 -0.813627 0.0107643 
133 1 1 -0.0270403 -0.00267679 0.0559674 0 0 0 0.0430576 0.00677378 -0.0170115 0.125938 0.18111 -0.0356715 11.051 0.217523 -2.56024 0.00672771 
24 1 1 -0.0101189 -0.00379831 0.0526356 0 0 0 0.0649387 -0.0293267 -0.0240504 -0.295464 -0.532464 0.425167 7.69415 -2.53125 9.30651 0.0107643 
303 1 1 0.0268382 -0.00159619 0.0491621 0 0 0 0.0114855 -0.0250074 0.0171153 -0.0623394 0.163458 0.0733278 0.209935 -10.4807 3.87996 0.00672771 
236 1 1 -0.0234313 0.00813892 0.0505342 0 0 0 0.00751616 0.0676457 -0.0307114 0.0158874 0.277633 0.0288168 -19.7245 0.262356 1.00541 0.00672771 
15 1 1 0.013644 0.00804237 0.0562228 0 0 0 -0.00315305 -0.014268 0.00961907 0.0618535 0.165351 0.0757646 -3.82364 4.81897 -2.42996 0.0107643 
298 1 1 0.0300131 0.0134534 0.0552232 0 0 0 -0.0173483 -0.0469025 -0.0112994 0.0563921 -0.0807874 -0.0536008 3.56687 0.447728 -3.25199 0.00672771 
318 1 1 0.0442334 0.00472131 0.0485008 0 0 0 0.0150389 -0.0113623 0.0119288 -0.0120124 0.000362271 0.0201943 -1.07655 0.317023 3.56836 0.00672771 
335 1 1 -0.0340026 0.0158338 0.0524913 0 0 0 0.0417951 0.152873 -0.0542825 -0.206204 0.158604 0.0496969 -7.4246 4.28859 0.843241 0.00672771 
4 1 1 -0.00347394 0.0144666 0.0481307 0 0 0 -0.0021098 -0.0172417 0.0187857 0.243334 -0.142237 0.0144667 -7.64847 -1.47468 -0.463945 0.0107643 
262 1 1 -0.0372732 0.0283022 0.0505863 0 0 0 -0.0484677 0.0820357 -0.13124 -0.215228 0.0728029 0.950533 -42.116 11.6905 16.7029 0.00672771 
192 1 1 -0.0252805 0.0269887 0.0479601 0 0 0 -0.0654725 0.0637973 -0.147905 -0.244786 0.0212197 1.07532 -47.3906 0.387453 2.97185 0.00672771 
122 1 1 -0.0273577 0.0406293 0.0556692 0 0 0 -0.0937929 -0.000773569 -0.0808464 -1.42316 -1.40968 17.0218 35.1732 0.73023 -6.43986 0.0107643 
292 1 1 -0.0143406 0.0323398 0.0486442 0 0 0 -0.0380098 0.0395344 -0.128501 -0.253505 0.253111 0.584042 -21.1016 -23.1756 -8.98206 0.00672771 
47 1 1 0.0243817 0.0398899 0.0558663 0 0 0 0.0320794 0.00451083 -0.00486843 1.93702 0.296451 11.8273 7.33191 -2.74202 2.88948 0.0107643 
327 1 1 -0.0433128 0.0433162 0.0494941 0 0 0 -0.0533173 0.0817457 -0.0921243 -0.0617971 0.279535 0.179545 -2.58946 12.1017 16.5948 0.00672771 
190 1 1 -0.00844339 -0.0439663 0.0643955 0 0 0 0.00213011 -0.0130944 -0.011837 0.0135703 -0.0629737 0.0825761 -3.03742 0.716577 -1.30825 0.00672771 
307 1 1 -0.0194961 -0.0322377 0.057027 0 0 0 -0.0355501 -0.0550922 0.0264754 -0.0624878 -0.00312862 -0.0512379 0.234483 2.77908 1.63464 0.00672771 
56 1 1 0.00700175 -0.0392193 0.0618141 0 0 0 0.00256304 -0.0136869 0.0139125 0.0494341 0.0159996 0.448074 3.34349 -1.84351 1.61088 0.0107643 
49 1 1 0.04053 -0.0406271 0.0580704 0 0 0 -0.00056802 -0.0144606 -0.00392442 -0.0165284 0.0899618 0.0553236 -0.100429 -0.0212154 0.243935 0.0107643 
137 1 1 -0.0022638 -0.0229324 0.0633239 0 0 0 -0.0258395 -0.0244514 0.0228643 0.0277112 -0.0921798 0.143987 -8.19641 7.63574 -1.2722 0.00672771 
81 1 1 -0.0215913 -0.0169621 0.0621997 0 0 0 0.0165965 -0.0423288 -0.0017576 -0.229583 -0.0810198 -0.193999 -6.54504 2.09433 -8.05589 0.0107643 
332 1 1 0.026647 -0.0152731 0.0564344 0 0 0 0.00719159 0.00934569 0.0443841 -0.0378698 0.000403471 -0.0559131 -2.65208 -4.60785 0.193847 0.00672771 
217 1 1 0.0443931 -0.0150231 0.0643118 0 0 0 0.012878 0.00603731 0.0249812 -0.0369499 -0.0287874 0.000794527 2.23536 0.13392 -0.563259 0.00672771 
32 1 1 -0.039869 0.00445887 0.0636089 0 0 0 0.0193371 0.00965665 0.00725493 0.678514 0.467009 -0.0260141 5.44748 -1.50097 -1.11328 0.0107643 
148 1 1 0.0442992 -0.0024358 0.0633263 0 0 0 0.0141532 0.0210196 0.0025653 -0.0207772 -0.0595352 0.000494719 -6.49125 -1.32629 -1.38903 0.00672771 
291 1 1 0.0436671 0.0123885 0.0587203 0 0 0 0.00615023 -0.0339925 0.034226 -0.00552501 0.114094 -0.0801943 3.41117 4.78945 6.34696 0.00672771 
117 1 1 -0.0210608 0.0197487 0.0627032 0 0 0 0.0295458 0.154494 -0.00924547 -0.0263812 0.526461 -0.169564 15.4205 -2.27376 -7.19552 0.0107643 
140 1 1 0.00942846 0.0207027 0.0650594 0 0 0 0.0397336 0.0453641 0.00684221 -0.0500376 -0.0409741 0.0499981 -0.245465 -2.7567 -2.21723 0.00672771 
99 1 1 -0.00355445 0.0300427 0.0613197 0 0 0 -0.00955214 0.0603336 0.0250832 0.507279 0.103328 -0.173766 3.05273 5.81708 3.04576 0.0107643 
266 1 1 0.0215984 0.023178 0.0585285 0 0 0 0.00679645 -0.00728707 -0.0743853 0.0683409 -0.212919 0.351694 -12.4006 -10.8442 -1.75879 0.00672771 
106 1 1 0.0401045 0.0284338 0.0623902 0 0 0 -0.012635 0.00969453 0.00118858 0.533567 -0.539262 0.73471 -6.51169 -3.08296 -2.46285 0.0107643 
174 1 1 -0.0432991 0.0433145 0.0632533 0 0 0 0.0245485 -0.0014661 0.0137619 -0.0104279 -0.0910157 -0.0152377 -4.12188 0.519182 0.916774 0.00672771 
315 1 1 -0.0117522 0.0440957 0.0641981 0 0 0 -0.0197264 0.0298241 0.0856018 0.153887 0.00285217 -0.0624194 -11.8829 15.3515 -1.13329 0.00672771 
158 1 1 0.00283303 0.0446131 0.0615507 0 0 0 -0.0284952 0.0352205 -0.0364463 0.146902 0.00188179 0.0126605 5.55955 39.1721 -4.78146 0.00672771 
203 1 1 0.041891 0.0440241 0.0568544 0 0 0 0.0182836 0.00756226 -0.0167493 0.108395 -0.0740429 0.117125 3.02123 0.0817292 2.72966 0.00672771 
189 1 1 0.0267768 -0.044001 0.0671873 0 0 0 0.0026377 -0.00915018 0.0043713 0.0207984 0.0254776 0.0428612 0.585671 0.486853 -0.640456 0.00672771 
186 1 1 0.0436871 -0.044101 0.0737797 0 0 0 0.000768771 -0.00351696 -0.00104805 0.0011905 0.00520347 0.0072303 -0.859097 0.0475346 -0.0941073 0.00672771 
6 1 1 -0.0272154 -0.0405895 0.0683981 0 0 0 -0.00338936 -0.0135769 0.0140138 -0.199293 -0.0722728 0.0131616 -0.673198 -0.645418 -1.08293 0.0107643 
313 1 1 -0.0116329 -0.0313738 0.0678765 0 0 0 0.00296062 0.0035896 0.035167 -0.0964013 -0.149517 -0.132342 1.18302 -7.25575 1.0368 0.00672771 
227 1 1 0.00763485 -0.0252897 0.0717318 0 0 0 -0.00894194 -0.00969889 0.0224877 -0.00233128 -0.0595048 0.189894 -2.37638 -5.33405 -2.40906 0.00672771 
91 1 1 0.0234639 -0.0276826 0.0662779 0 0 0 0.00255606 -0.0016101 0.0368002 -0.0391448 0.146662 0.5504 2.56769 1.86417 0.031152 0.0107643 
247 1 1 0.039883 -0.0262951 0.0680065 0 0 0 0.00908065 0.00169364 -0.000765666 -0.0256221 0.00752689 0.0807887 1.00595 1.22721 0.836735 0.00672771 
36 1 1 -0.0405217 -0.0173249 0.0689623 0 0 0 0.000719845 0.0140878 0.0177069 0.029778 0.111847 0.20435 1.27271 -1.22006 1.81591 0.0107643 
215 1 1 0.0331572 -0.0150268 0.0704139 0 0 0 0.0125599 0.0105421 0.0293873 0.0421967 -0.0305097 0.142726 -2.17212 0.643463 -0.578198 0.00672771 
10 1 1 0.00497254 -0.0079047 0.0663206 0 0 0 0.0160772 -0.00290663 0.0103229 0.0321944 -0.0340545 0.434498 3.29837 -3.49656 -0.936778 0.0107643 
276 1 1 0.0201027 -0.0125 0.0719447 0 0 0 0.01313 0.00704753 0.0460646 0.0528407 0.0735824 0.217422 -4.82743 0.237097 1.56119 0.00672771 
182 1 1 -0.0290468 -0.00397033 0.073445 0 0 0 -0.000705831 -0.0207912 0.0597573 0.0802726 -0.0758368 0.136317 -11.0842 -1.248 -0.928807 0.00672771 
197 1 1 -0.0189691 0.00200205 0.0657858 0 0 0 0.0141552 -0.0780803 0.00162878 -0.0476359 -0.260459 0.0085473 -7.28065 -1.3166 -6.04992 0.00672771 
87 1 1 0.0289682 0.000733211 0.0669393 0 0 0 -0.000120317 0.0206866 -0.00946546 0.153925 -0.355332 0.0942519 -3.32579 0.585553 2.45226 0.0107643 
115 1 1 -0.00358804 0.010467 0.0684574 0 0 0 0.014339 0.0388381 0.0147331 -0.247414 0.128687 -0.236449 -0.863761 -1.63613 0.234716 0.0107643 
338 1 1 0.0427457 0.00863814 0.0716024 0 0 0 -0.00424262 0.00893843 0.0108354 -0.10858 0.0190528 0.0997265 0.840441 -8.9005 -8.44156 0.00672771 
45 1 1 0.0264691 0.0196757 0.0749185 0 0 0 -0.00015369 0.0327299 0.0172104 -0.278893 -0.489736 -0.99749 4.19371 7.24962 -0.226087 0.0107643 
39 1 1 -0.0404989 0.0237033 0.0663226 0 0 0 0.0542824 0.115056 0.0112341 -1.02943 0.456419 0.496196 23.6719 -3.27586 6.05479 0.0107643 
308 1 1 -0.00221565 0.0436697 0.074274 0 0 0 0.0538893 -0.0127046 -0.0491521 0.113468 0.0305047 0.147854 13.854 -44.9201 11.5958 0.00672771 
124 1 1 0.04371 0.0435915 0.0697236 0 0 0 0.00998612 -0.00547711 -0.00641435 0.103834 0.0287668 -0.169743 1.88921 -1.64288 -0.123074 0.00672771 
252 1 1 -0.0394275 -0.0442303 0.0795616 0 0 0 -0.00866036 -0.00252744 0.000192927 -0.00858857 0.0131499 0.0197378 -0.704151 -1.30647 0.608386 0.00672771 
213 1 1 0.0324934 -0.0440872 0.0811544 0 0 0 -0.000477292 -0.004574 0.0102539 -0.0122846 -0.00495126 0.0818061 1.572 1.43275 0.201211 0.00672771 
230 1 1 -0.0401907 -0.0323659 0.0757188 0 0 0 -0.00228462 0.00198371 0.00309546 -0.0310294 0.00796371 -0.00130172 2.01433 -3.03307 -0.579555 0.00672771 
109 1 1 0.016501 -0.0402704 0.0800753 0 0 0 -0.00658381 -0.00957112 0.012967 0.0419719 -0.102999 0.300544 -0.507088 -0.872605 0.421303 0.0107643 
165 1 1 0.0438017 -0.032341 0.0783386 0 0 0 0.00446379 -0.000408946 -0.00334746 -0.00392772 -0.00740602 0.0390929 -0.0228175 -0.717087 0.15845 0.00672771 
75 1 1 -0.0258795 -0.0244885 0.081049 0 0 0 0.00526951 0.00932381 0.029499 -0.135802 -0.0592475 0.275047 0.67875 1.21963 -0.213438 0.0107643 
143 1 1 0.0308415 -0.0314672 0.080919 0 0 0 0.00349641 -0.00762662 0.00882323 0.000735243 -0.0286842 0.112768 -2.49255 0.197016 -0.411316 0.00672771 
26 1 1 -0.00615766 -0.0195946 0.0795511 0 0 0 0.00249607 -0.00357683 -0.00166993 0.0546204 -0.0885254 0.440164 0.673053 1.44022 -0.243943 0.0107643 
209 1 1 0.00961564 -0.0143429 0.080893 0 0 0 -0.00511014 -0.00319033 0.000292205 -0.00997267 0.0141449 0.10802 -5.52514 -0.838944 1.37846 0.00672771 
169 1 1 0.0436885 -0.0191702 0.0781324 0 0 0 0.00812572 0.0123377 -0.00988833 0.0224372 -0.017108 0.0646262 -1.81045 -1.59677 -1.78023 0.00672771 
204 1 1 -0.0163488 -0.00644531 0.0756053 0 0 0 0.00547307 -0.0175522 0.0341274 0.00213855 -0.143819 0.0931732 -2.55069 7.56335 -1.95134 0.00672771 
325 1 1 0.0373648 -0.00827787 0.0807916 0 0 0 6.62343e-05 0.0216921 -0.0184893 0.0206566 -0.0566589 0.0260493 -1.82097 3.49299 4.3668 0.00672771 
306 1 1 -0.0440235 -0.00392498 0.0776464 0 0 0 -0.00845229 -0.00868034 0.0124274 0.052448 0.0728272 0.0377264 -3.80199 0.228198 -0.120752 0.00672771 
63 1 1 -0.039978 0.011121 0.0833455 0 0 0 0.00519024 -0.0450404 0.0290861 0.572826 0.457236 -0.0707499 0.849347 -3.42946 -3.94575 0.0107643 
57 1 1 -0.0196792 0.0097947 0.0807437 0 0 0 0.00631765 -0.00936595 0.0256578 0.233563 -0.0717487 -0.516214 -1.84735 1.7958 4.28509 0.0107643 
263 1 1 0.0101034 0.0152446 0.0770666 0 0 0 0.00799809 0.0310207 0.0386363 -0.0990663 0.0183819 -0.0397443 0.254889 -3.24535 -1.03028 0.00672771 