ITEM: TIMESTEP
53200
ITEM: NUMBER OF ATOMS
338
ITEM: BOX BOUNDS mm mm mm
-0.05 0.05
-0.05 0.05
0 0.15
ITEM: ATOMS id type type x y z ix iy iz vx vy vz fx fy fz omegax omegay omegaz radius 
131 1 1 -0.0257482 -0.0400548 0.00560296 0 0 0 -8.21924e-05 -0.000137199 -0.000205584 0.000123504 0.000271219 0.000439335 0.0158759 -0.00107975 0.00183631 0.00694698 
319 1 1 -0.0146874 -0.044541 0.00605282 0 0 0 -4.38787e-05 -6.43883e-05 -0.000121899 5.91896e-05 0.000137134 0.000262002 -0.00265624 -0.0111979 0.00745425 0.00694698 
243 1 1 -0.00279114 -0.043873 0.00610427 0 0 0 -1.79158e-05 -2.58797e-05 -8.14206e-05 -3.90397e-05 4.79289e-05 0.000153294 -0.00693855 0.00809411 -0.00314005 0.00694698 
260 1 1 0.0252547 -0.0438308 0.00594034 0 0 0 -8.63746e-06 -3.92214e-05 -8.09177e-05 -5.1481e-05 5.25372e-05 0.000160815 -0.00511069 -0.00347503 0.000225006 0.00694698 
78 1 1 0.0413085 -0.0407812 0.00927571 0 0 0 -9.28167e-06 -1.90994e-05 -5.52194e-05 -8.65913e-05 9.16183e-05 0.000402149 -0.00220659 -0.00423823 0.00311071 0.0111152 
74 1 1 -0.0408281 -0.0367697 0.00959693 0 0 0 -0.000111273 -0.000114923 -0.0001308 0.000664532 0.00082209 0.00101006 -0.000504487 0.000995769 -0.00111451 0.0111152 
296 1 1 -0.027483 -0.027457 0.00612154 0 0 0 -0.000130507 -0.000150144 -0.00022671 0.000172491 0.000305277 0.000538632 0.0102846 0.00419398 -0.00189282 0.00694698 
173 1 1 -0.0155729 -0.0319601 0.00557407 0 0 0 -9.52768e-05 -0.000120887 -0.000257606 0.000104804 0.000307575 0.000627701 -0.00104877 -0.0114627 0.00447503 0.00694698 
275 1 1 -0.00359023 -0.029775 0.00572407 0 0 0 -7.94415e-05 -0.000100551 -0.000222704 2.61014e-05 0.000343314 0.000562358 -0.00512441 -0.00175979 0.00314619 0.00694698 
60 1 1 0.0105837 -0.0360377 0.00947736 0 0 0 -4.897e-05 -5.93153e-05 -0.000218474 -0.000249143 0.000418612 0.00192396 -0.00407486 -0.00546369 0.00339222 0.0111152 
102 1 1 -0.0405429 -0.0169479 0.00905834 0 0 0 -0.000107616 -0.000134 -9.59489e-05 0.000732051 0.00113946 0.000966326 0.0108423 -0.00762129 -0.00732834 0.0111152 
328 1 1 -0.0254334 -0.0151903 0.00543669 0 0 0 -0.000142783 -0.000164657 -9.36515e-05 0.00013725 0.000443225 0.000203308 0.0210767 0.0124 0.00554435 0.00694698 
40 1 1 -0.0106765 -0.0158187 0.0106453 0 0 0 -0.000198523 -0.000142472 -0.000418791 0.000187932 0.00195554 0.00494264 0.000215142 0.000813207 0.00483619 0.0111152 
279 1 1 0.0044077 -0.0207354 0.0109045 0 0 0 -0.000164116 -9.26577e-05 -0.000470141 6.535e-05 0.000270371 0.00111769 -0.0216803 -0.00605303 0.00603811 0.00694698 
267 1 1 0.0155006 -0.0199623 0.00561687 0 0 0 -7.65749e-05 -7.95614e-05 -0.000253608 -4.86233e-05 0.00014929 0.000608439 0.00103927 -0.0116245 0.00290972 0.00694698 
144 1 1 0.0430495 -0.0248667 0.00596781 0 0 0 -5.11815e-05 -2.18536e-05 -7.55773e-05 7.65151e-06 1.64129e-05 0.000172327 -0.000711147 -0.0161227 0.00447983 0.00694698 
202 1 1 0.0452017 -0.0129602 0.00612936 0 0 0 -4.62783e-05 -3.22242e-05 -4.28655e-05 9.02897e-06 2.52145e-05 0.000144729 0.00678224 -0.0091401 -0.00107696 0.00694698 
257 1 1 -0.0442073 -0.001047 0.00624931 0 0 0 -3.28276e-05 -1.73105e-05 -7.04059e-05 5.58549e-05 -3.02878e-05 0.000206229 -0.00927989 0.0141267 0.00197695 0.00694698 
274 1 1 -0.0220226 -0.00377923 0.00775045 0 0 0 -0.00018379 -0.000152174 -0.000455883 0.000241481 0.000540757 0.00188738 -0.0609177 0.0499202 -0.00343517 0.00694698 
50 1 1 0.0305736 -0.00918801 0.00973499 0 0 0 -0.000116124 -5.31569e-06 -0.000176783 8.4543e-05 -0.00044049 0.00205821 0.00975719 -0.00702769 -0.00287785 0.0111152 
232 1 1 -0.0434389 0.0118757 0.00626128 0 0 0 -0.000115478 2.82643e-05 -0.000170491 0.000260476 -0.000174168 0.000525216 -0.00928534 -0.00667014 0.0123266 0.00694698 
268 1 1 -0.0326771 0.00368208 0.00609297 0 0 0 -0.000140702 -8.37053e-05 -0.000398112 0.00032471 0.000282248 0.00149892 -0.00643913 0.00648381 -0.0165443 0.00694698 
171 1 1 -0.0211977 0.00798614 0.00823196 0 0 0 -0.000335197 -0.00010386 -0.000827975 0.00103347 0.000620306 0.00345007 0.000522288 0.0149553 0.0255119 0.00694698 
164 1 1 0.0205999 0.00173771 0.00544572 0 0 0 -0.000150375 2.69331e-05 -0.000156985 0.000158798 -9.64291e-05 0.000614439 0.00942816 -0.0333492 0.019183 0.00694698 
297 1 1 -0.0253912 0.0195858 0.00549702 0 0 0 -0.000328909 -5.70784e-05 -0.000623538 0.000822726 0.000125785 0.00215247 0.0173963 -0.0417603 -0.00194638 0.00694698 
222 1 1 -0.0108512 0.0145907 0.00545398 0 0 0 -0.000310156 -2.28348e-05 -0.000514639 0.000701728 0.000568296 0.0020577 0.0289739 -0.0504691 -0.01875 0.00694698 
290 1 1 -0.000799562 0.0214674 0.00523706 0 0 0 -0.000190079 4.85749e-05 -0.000286462 0.000463387 6.73794e-05 0.000889959 -0.00451419 -0.00330984 0.0114069 0.00694698 
98 1 1 0.012223 0.0135227 0.00979246 0 0 0 -0.000350123 -1.63989e-05 -0.000320762 0.00233306 -0.00017847 0.00470708 0.0236129 -0.0451098 -0.0139976 0.0111152 
316 1 1 0.0321803 0.0195781 0.00502869 0 0 0 -4.26897e-06 -8.64731e-05 8.24776e-06 -0.000228433 0.000105236 0.000135762 0.0213617 0.0142271 0.00909912 0.00694698 
162 1 1 0.0446349 0.0202023 0.00544604 0 0 0 9.21978e-06 -4.55756e-05 -7.41083e-05 -0.000135026 4.46814e-06 0.000269937 0.0261398 -0.00591632 0.00675033 0.00694698 
294 1 1 -0.0439426 0.0252728 0.00613914 0 0 0 -0.000110479 7.929e-05 -0.000110076 0.000252004 -0.000257176 0.000343362 -0.0013011 -0.0107315 -0.00349986 0.00694698 
175 1 1 -0.0327497 0.0313746 0.00614144 0 0 0 -0.000137881 0.00025813 -0.00025363 8.87843e-05 -0.000633866 0.000821067 -0.0492734 -0.00354439 0.0184155 0.00694698 
255 1 1 -0.014848 0.0261364 0.00587509 0 0 0 -0.000215103 -2.58091e-06 -0.00032113 0.000301177 0.00027823 0.00107459 0.0207585 -0.03074 -0.0152221 0.00694698 
324 1 1 -0.00330548 0.0326851 0.00566892 0 0 0 -7.64496e-05 -7.77743e-05 -7.34825e-05 -8.00468e-06 0.000667662 0.000549222 0.0222958 0.00272018 -0.0201113 0.00694698 
161 1 1 0.00824516 0.0320293 0.00644776 0 0 0 -2.16411e-05 -0.0001407 -0.00024901 -0.000405124 0.00113174 0.00185694 0.0497511 0.00732107 0.0254935 0.00694698 
77 1 1 0.0226327 0.0295985 0.0123424 0 0 0 -0.000102194 2.6082e-05 -0.000110441 -0.00184338 -0.00159699 0.00399391 -0.0375063 -0.0160038 -0.00596122 0.0111152 
155 1 1 0.0376086 0.0311765 0.00564447 0 0 0 -3.95282e-05 -7.37457e-05 2.82126e-06 -0.000209639 -2.88119e-05 0.000430468 -0.00105699 -0.000608029 0.00570891 0.00694698 
321 1 1 -0.0440201 0.0437755 0.0062936 0 0 0 -8.93378e-05 4.03484e-05 -0.000133386 0.000202573 -8.47564e-05 0.000319007 0.0140806 -0.00403073 -0.00933453 0.00694698 
207 1 1 -0.0314325 0.0439672 0.00637382 0 0 0 -6.42286e-05 4.72289e-05 -0.000156683 5.11033e-05 -2.76621e-05 0.000374844 0.0260284 -0.00400325 -0.00668728 0.00694698 
38 1 1 -0.0153313 0.041594 0.00979042 0 0 0 -3.07804e-05 -1.30512e-05 -5.18434e-05 -0.000923561 0.000586686 0.000921836 0.00522313 -0.00891333 -0.00628495 0.0111152 
149 1 1 0.012064 0.043872 0.00543364 0 0 0 -9.91875e-05 4.10071e-06 2.44806e-05 0.000560211 3.79743e-05 -0.000469919 -0.006162 -0.00972328 -0.00266613 0.00694698 
237 1 1 0.00118701 0.0437538 0.0121482 0 0 0 -3.76465e-05 -3.05551e-05 1.81638e-05 2.53315e-06 8.03379e-05 0.000117822 -0.00426284 0.00906654 0.00725366 0.00694698 
249 1 1 0.0277054 0.0441439 0.00611569 0 0 0 2.65419e-06 -2.73898e-06 -0.000182506 -0.000263311 -0.000231333 0.0011258 0.008747 -0.0239626 0.00575089 0.00694698 
289 1 1 0.0443721 0.0422258 0.00592165 0 0 0 -2.38466e-05 -8.86584e-06 -5.03909e-05 -3.01395e-05 -0.000361494 0.000506409 -0.00521846 -0.00632947 -0.000823638 0.00694698 
331 1 1 -0.0432694 -0.0455643 0.0218633 0 0 0 -8.17519e-05 -6.90166e-05 -6.62657e-05 0.00010094 0.000107067 0.000111661 -0.00679067 0.00123192 0.00621247 0.00694698 
299 1 1 -0.0246086 -0.0451874 0.016809 0 0 0 -0.000112045 -0.000154798 -0.000283468 0.000171249 0.00026113 0.000614927 -0.0370329 -0.0107364 0.011754 0.00694698 
225 1 1 -0.0115499 -0.0442711 0.0185947 0 0 0 -0.00010482 -0.000121522 -0.000301429 0.000144681 0.000206413 0.000636805 -0.0141408 0.00344167 0.00672843 0.00694698 
242 1 1 0.00106182 -0.0446808 0.019682 0 0 0 -9.33671e-05 -2.07408e-05 -0.000238641 6.82267e-05 1.12246e-05 0.000473954 -0.0381104 -0.0197839 0.0138486 0.00694698 
130 1 1 0.0208358 -0.0442058 0.0182026 0 0 0 -2.32893e-05 1.203e-05 -0.000106889 -2.68974e-05 -4.82671e-05 0.000218029 -0.0114336 0.00437394 -0.000118032 0.00694698 
167 1 1 0.0319451 -0.0442251 0.022886 0 0 0 -2.5778e-06 -9.16153e-06 -0.000142421 -4.0685e-06 -2.28877e-05 0.00022595 -0.00990255 -0.00261522 -0.00239737 0.00694698 
136 1 1 0.0442903 -0.0447089 0.0241886 0 0 0 -5.19859e-06 -7.43588e-06 -5.36084e-05 2.21308e-05 -2.30832e-05 7.43147e-05 -0.00542109 -0.00340063 0.000234115 0.00694698 
179 1 1 -0.0345748 -0.026203 0.0213887 0 0 0 -0.000226582 -0.000255233 -0.00037097 0.000317871 0.000338601 0.000970995 0.0048003 0.0315265 0.00457968 0.00694698 
7 1 1 -0.0200355 -0.0304273 0.0211157 0 0 0 -0.000276947 -0.000193216 -0.000636253 0.00163639 0.0011345 0.00618969 -0.00497137 -0.0069917 0.00581641 0.0111152 
104 1 1 -0.000112985 -0.0285697 0.0247228 0 0 0 -0.000324228 -6.51663e-05 -0.000619226 0.00171291 -2.51864e-05 0.0057083 -0.00287861 -0.0147039 0.00783602 0.0111152 
67 1 1 0.0278423 -0.0280454 0.0126277 0 0 0 -8.5521e-05 -4.54098e-05 -0.000286942 -2.60521e-05 -5.99536e-05 0.00253667 -0.0078853 -0.0051182 0.00247121 0.0111152 
128 1 1 -0.0450315 -0.0217267 0.0238333 0 0 0 -0.000141658 -0.000131873 -0.000131431 0.000327642 0.000231177 0.000397578 0.0146934 0.000955152 -0.0188161 0.00694698 
278 1 1 0.0331688 -0.0161931 0.0241354 0 0 0 -0.000163013 -5.37805e-05 -0.000400933 5.53125e-05 -0.000118247 0.000925664 -0.00290376 -0.0118581 0.00126529 0.00694698 
146 1 1 -0.0448732 -0.00919974 0.0224701 0 0 0 -0.000184929 2.29391e-06 -0.000455462 0.000225792 -9.89594e-05 0.00128403 -0.0949443 0.0560186 0.039541 0.00694698 
96 1 1 0.011917 -0.00721243 0.0161308 0 0 0 -0.000411317 -1.28741e-05 -0.000620338 0.00204665 -0.000457527 0.00640321 -0.00910698 -0.0334625 0.00834195 0.0111152 
183 1 1 0.0447603 -0.00703516 0.0175416 0 0 0 -1.55878e-05 -4.37264e-05 -0.000115826 -8.71847e-05 -5.70234e-05 0.00037069 -0.0231109 0.00267327 -0.00520353 0.00694698 
25 1 1 -0.0377549 0.00483168 0.0223869 0 0 0 -0.000656557 -9.46823e-05 -0.000980753 0.00498425 0.000269055 0.0124649 0.0153982 -0.0421334 -0.00532893 0.0111152 
17 1 1 -0.00526052 0.00256244 0.0144057 0 0 0 -0.000473107 -5.93401e-05 -0.000823644 0.00317806 0.0028656 0.0116301 -0.0146575 0.0183781 0.0131569 0.0111152 
94 1 1 0.0384745 0.00842688 0.0134962 0 0 0 0.000101813 -0.000104993 -0.000266798 -0.0016437 2.13922e-05 0.00304483 -0.00310654 0.0262877 -0.0132046 0.0111152 
300 1 1 -0.0447066 0.0189524 0.0170501 0 0 0 -0.000308469 6.25619e-07 -0.000391568 0.000762584 -9.61376e-05 0.00123341 0.0269683 0.0225338 -0.00159354 0.00694698 
273 1 1 -0.0327476 0.0189504 0.0155412 0 0 0 -0.000577105 1.80053e-06 -0.000881811 0.00144384 -0.000191944 0.0029208 -0.0365263 0.0263266 0.0116547 0.00694698 
28 1 1 -0.016813 0.0183619 0.0204887 0 0 0 -0.000722286 -3.31711e-05 -0.000993069 0.00781248 0.00611176 0.0148834 -0.00360734 -0.0164113 0.00127456 0.0111152 
286 1 1 -0.0017341 0.0186067 0.0168793 0 0 0 -0.000609331 -7.73918e-06 -0.000654803 0.00151295 0.000677888 0.00192566 0.0555165 -0.0388146 -0.0122668 0.00694698 
305 1 1 -0.0436936 0.0348181 0.0156107 0 0 0 -8.85648e-05 0.000285059 -0.000308245 -3.54746e-05 -0.000729522 0.000932413 -0.0376568 0.0412173 0.0351906 0.00694698 
23 1 1 -0.0279416 0.0337346 0.0221082 0 0 0 -0.000375936 8.4772e-06 -0.000589791 0.0017045 0.0008406 0.00766745 0.0588846 -0.0224413 -0.0477115 0.0111152 
320 1 1 0.00379864 0.0296087 0.0183771 0 0 0 6.26306e-05 -0.000111572 -0.00037343 -0.00343809 0.000827417 0.00332995 -0.0539052 0.0158098 -0.0910846 0.00694698 
284 1 1 0.0446348 0.0273729 0.0157367 0 0 0 -4.73835e-05 -1.36955e-05 -6.68696e-06 -9.10066e-05 -0.000517218 0.00044162 -0.0198944 -0.00158655 0.00179531 0.00694698 
239 1 1 0.0187764 0.0448281 0.0154883 0 0 0 0.000162106 6.43454e-05 -0.000237859 -0.00242227 -0.000965219 0.00122681 0.012102 0.0682996 -0.00288022 0.00694698 
61 1 1 0.0370833 0.0409701 0.0204865 0 0 0 -3.64658e-05 8.9097e-05 -0.000130161 -0.00198294 -0.00241102 0.00353946 -0.00152961 0.00311022 -0.00841831 0.0111152 
224 1 1 -0.0437843 -0.0444768 0.0343522 0 0 0 -6.89325e-05 1.17256e-05 -9.29198e-05 9.90524e-05 -7.77914e-05 0.000163372 -0.0154826 0.00345525 0.0126757 0.00694698 
256 1 1 -0.0327608 -0.0400948 0.025717 0 0 0 -0.000111819 -6.55963e-05 -0.000372714 9.97449e-05 -3.18431e-05 0.000805619 -0.0182088 0.0404831 0.00227045 0.00694698 
42 1 1 -0.0120033 -0.0408869 0.0355055 0 0 0 -0.000272383 -0.000122574 -0.000587632 0.00184144 -0.000218051 0.00492393 -0.0268926 -0.0135987 0.0194085 0.0111152 
271 1 1 0.0313717 -0.040779 0.034315 0 0 0 -9.8856e-05 -9.16426e-06 -0.0003198 0.000222069 -0.000211879 0.000540303 -0.00210732 -0.017914 0.0025764 0.00694698 
125 1 1 0.0438558 -0.0440726 0.0371342 0 0 0 -6.66332e-05 3.46615e-05 -6.66324e-05 0.000140417 -0.000123446 8.78264e-05 -0.00787849 -0.0104064 0.00430687 0.00694698 
180 1 1 -0.044235 -0.0338854 0.0265892 0 0 0 -0.000131551 -8.23006e-05 -0.000165567 0.000201096 0.000112278 0.000368092 -0.00992715 0.00455134 -0.000761129 0.00694698 
120 1 1 0.0409684 -0.0296039 0.0290172 0 0 0 -5.12959e-05 5.79902e-06 -0.000246286 0.000253841 -0.000542378 0.00184097 -0.00754262 -0.0128571 0.00270727 0.0111152 
178 1 1 -0.0126395 -0.0206733 0.0321243 0 0 0 -0.000507789 -3.45027e-05 -0.00112609 0.000943606 -6.43901e-05 0.00256404 -0.00498479 -0.00907195 0.00342454 0.00694698 
51 1 1 0.0185587 -0.0226609 0.0301871 0 0 0 -0.000336333 5.12238e-05 -0.000685417 0.00182 -0.00187229 0.00619063 -0.0108181 -0.00368828 0.0054951 0.0111152 
134 1 1 0.0440827 -0.0143843 0.0325103 0 0 0 -4.60796e-05 2.35595e-05 -0.000282679 3.88795e-05 -0.00017484 0.000613339 -0.00210267 -0.0281636 -0.00678467 0.00694698 
19 1 1 -0.0263977 -0.0120073 0.0273689 0 0 0 -0.000696276 -0.000188266 -0.00110059 0.00473646 0.000717244 0.0108804 -0.0340167 0.0393618 0.027127 0.0111152 
310 1 1 -0.0104373 -0.00898788 0.0299613 0 0 0 -0.00071729 8.49978e-05 -0.00138536 0.00127152 -0.000325821 0.00302035 -0.0386485 -0.0453176 0.00981747 0.00694698 
258 1 1 0.000949395 -0.012339 0.0275481 0 0 0 -0.000611418 2.22665e-05 -0.000795009 0.000945216 -0.000352651 0.00199794 -0.0212545 -0.0255466 0.00732603 0.00694698 
18 1 1 0.0121868 -0.00447252 0.0369584 0 0 0 -0.000473203 0.000216847 -0.000923853 0.00232106 -0.00453749 0.00944107 -0.0144457 0.0326237 0.00768783 0.0111152 
184 1 1 0.0277391 -0.00806859 0.032894 0 0 0 -0.000281826 0.000119571 -0.000851249 0.000268638 -0.000659341 0.00200648 -0.0273216 -0.0450711 -0.0134181 0.00694698 
112 1 1 -0.0179415 0.00468425 0.035172 0 0 0 -0.00101496 0.000118486 -0.00160696 0.00854943 -0.00240395 0.0177551 0.00393279 0.0062636 0.00981332 0.0111152 
160 1 1 -0.00258867 0.000661746 0.0310698 0 0 0 -0.000744098 0.000118944 -0.000983299 0.00132544 -0.000446751 0.00274496 0.0096194 -0.0839772 -0.00585108 0.00694698 
55 1 1 0.0406911 0.00155587 0.0321757 0 0 0 -1.36504e-05 2.87526e-05 -0.000424582 -0.000739307 -0.00123419 0.00448144 -0.00650879 -0.0337277 -0.00319031 0.0111152 
2 1 1 -0.0316947 0.0196549 0.035482 0 0 0 -0.000993927 -5.48653e-05 -0.00125629 0.00906049 2.66537e-05 0.0162193 -0.00483283 0.00506829 -0.00344629 0.0111152 
100 1 1 0.00652062 0.0141763 0.0298251 0 0 0 -0.000690781 8.46294e-05 -0.0010238 0.00590106 -0.000891254 0.0125078 -0.0345418 0.0177768 0.0046972 0.0111152 
261 1 1 0.0433997 0.0180072 0.026807 0 0 0 0.000213852 -4.39222e-05 -0.000362257 -0.000793589 -5.73592e-05 0.000937582 -0.00896765 -0.0340344 -0.00113206 0.00694698 
246 1 1 -0.0443146 0.0262016 0.0275312 0 0 0 -0.000492818 3.93464e-05 -0.000575037 0.00117601 -0.000134911 0.00177135 -0.00233591 0.0327325 0.00218608 0.00694698 
69 1 1 -0.00686352 0.0298271 0.0340137 0 0 0 -0.000461063 0.000400427 -0.00162592 0.000430309 -0.00443956 0.04935 -0.0437692 -0.0252483 -0.0377239 0.0111152 
108 1 1 0.0262501 0.0288968 0.0325385 0 0 0 -8.17321e-05 0.0002155 -0.000351554 -0.00352069 -0.00385057 0.00709525 0.0362265 0.0101204 -0.0112503 0.0111152 
9 1 1 -0.0407959 0.0418489 0.0325574 0 0 0 -0.000145709 -3.07795e-05 -0.000282113 0.000881837 0.000387896 0.00387154 0.0345685 0.0129055 -0.0196934 0.0111152 
323 1 1 -0.00700498 0.0443555 0.0261219 0 0 0 0.000307992 0.000304058 -0.00120589 -0.00356227 -0.000248182 0.0133082 0.169628 -0.126959 0.0356589 0.00694698 
16 1 1 0.0103852 0.0409509 0.0288239 0 0 0 0.000195033 0.000181158 -0.000487013 -0.0146509 -0.00302084 0.016624 0.00368138 -0.0566642 0.0053353 0.0111152 
329 1 1 -0.024334 -0.0448883 0.0452008 0 0 0 -0.000235949 -0.000126488 -0.000465869 0.00045487 -8.87609e-05 0.000957162 -0.0581717 0.00122796 0.0355997 0.00694698 
168 1 1 0.00170624 -0.0450128 0.0401986 0 0 0 -0.000184908 7.72926e-05 -0.000232473 0.000359229 -0.000327399 0.000449151 -0.0389543 -0.0084242 0.00659449 0.00694698 
3 1 1 0.016506 -0.0408745 0.0393124 0 0 0 -0.000180555 2.61204e-05 -0.000403826 0.00149408 -0.00114588 0.00315565 -0.0268766 0.00602489 0.00227361 0.0111152 
283 1 1 0.0310351 -0.0446314 0.0458367 0 0 0 -0.000110775 4.65151e-05 -0.000301287 0.000290412 -0.000339136 0.000493192 -0.0229064 0.00608153 0.000505394 0.00694698 
211 1 1 -0.0439278 -0.033195 0.039179 0 0 0 -0.000227467 -3.02206e-05 -0.000252509 0.000404651 -0.000207693 0.000710914 0.00644341 0.00679741 0.000570691 0.00694698 
93 1 1 -0.027146 -0.0292816 0.0419039 0 0 0 -0.000449011 -0.000216725 -0.00086486 0.00302033 -0.000796288 0.00881062 0.0021529 0.0303017 -0.0106617 0.0111152 
191 1 1 0.00287866 -0.032318 0.0407464 0 0 0 -0.000385502 7.78401e-05 -0.000763936 0.000716894 -0.00060197 0.0017673 -0.0440357 -0.00657318 0.0181344 0.00694698 
105 1 1 0.0303965 -0.028061 0.0465888 0 0 0 -0.000278197 0.000100025 -0.000649477 0.00282708 -0.00273558 0.00499015 -0.00758452 -0.0210035 0.00428857 0.0111152 
66 1 1 -0.0416823 -0.0169767 0.0389226 0 0 0 -0.000258036 -6.96703e-05 -0.000389524 0.00220705 -0.000707236 0.00582828 -0.0215895 0.0219621 0.00568091 0.0111152 
43 1 1 -0.00883025 -0.0242895 0.047873 0 0 0 -0.000671546 0.000138637 -0.00141791 0.00479954 -0.00548948 0.014632 -0.05125 -0.02065 0.025547 0.0111152 
259 1 1 0.0241566 -0.0131295 0.0440599 0 0 0 -0.00033253 0.000195971 -0.000898974 0.000508619 -0.00101252 0.00214182 -0.00781707 -0.00886363 -0.00737593 0.00694698 
336 1 1 -0.0249188 -0.0116289 0.0453407 0 0 0 0.0207536 0.00358526 -0.00509438 0.00263151 0.000226085 0.00430553 -0.647678 3.06083 -1.67963 0.00694698 
245 1 1 -0.000274186 -0.0118494 0.0427877 0 0 0 -0.000530728 0.000144298 -0.00142497 0.000824971 -0.00156282 0.00389175 -0.0260023 -0.155658 0.0234005 0.00694698 
303 1 1 0.0269172 -0.00136516 0.04933 0 0 0 -0.000466579 0.000205557 -0.00130743 0.000917839 -0.00143938 0.00332334 -0.0507238 -0.0468195 0.0321228 0.00694698 
5 1 1 0.0405046 -0.0106679 0.0488239 0 0 0 -0.00019792 0.000102572 -0.000495454 0.00165504 -0.00245804 0.00446147 -0.00264691 -0.011439 -0.00952177 0.0111152 
107 1 1 -0.0382442 0.0019573 0.0431256 0 0 0 -0.000885134 4.6763e-05 -0.00107332 0.00763065 -0.00230999 0.0133039 -0.0286779 0.0157989 0.025324 0.0111152 
95 1 1 0.0239299 0.0111495 0.0391368 0 0 0 -0.000346144 0.00020399 -0.00125701 0.0017981 -0.00535992 0.0139406 0.0141375 -0.0254842 -0.0150536 0.0111152 
318 1 1 0.0443648 0.00472862 0.0485662 0 0 0 -0.000148012 3.04853e-05 -0.00032667 0.000327764 -0.000314855 0.000813562 0.00723773 -0.0145976 0.00322006 0.00694698 
208 1 1 -0.0448671 0.0168568 0.044969 0 0 0 -0.000528617 3.41879e-05 -0.000776301 0.00103627 -0.000347701 0.0023112 0.0203517 0.0997139 -0.0276416 0.00694698 
282 1 1 -0.0182473 0.018534 0.0445849 0 0 0 -0.00098923 0.000329828 -0.00185262 0.00194697 -0.00227022 0.00590749 -0.0584663 0.0402593 0.0135734 0.00694698 
4 1 1 -0.00366753 0.0146168 0.0482165 0 0 0 -0.00101949 0.000477689 -0.0018848 0.00805422 -0.0150289 0.0214106 0.0234756 -0.0131281 -0.000554982 0.0111152 
58 1 1 0.0410776 0.020022 0.0435599 0 0 0 -0.0001168 2.17685e-05 -0.000465468 6.74433e-05 -0.00141867 0.00557682 0.00210599 -0.0263471 -0.00642127 0.0111152 
199 1 1 -0.0449275 0.0285899 0.0409773 0 0 0 -0.000365257 3.11535e-05 -0.000649322 0.000581769 -0.00024207 0.00200415 -0.0017724 0.0728769 -0.0262364 0.00694698 
192 1 1 -0.0256321 0.0271749 0.0481223 0 0 0 -0.000943169 0.000362986 -0.00162691 0.00128467 -0.00194193 0.0055039 -0.00202175 0.102983 0.0390553 0.00694698 
292 1 1 -0.0146969 0.0324722 0.0485731 0 0 0 -0.000937026 0.000291431 -0.0019444 0.000529779 -0.00438767 0.00686147 0.122033 -0.0339515 -0.0556678 0.00694698 
73 1 1 0.0108542 0.0280469 0.0457801 0 0 0 -0.000804275 0.000307045 -0.000916834 0.00777399 -0.00935359 0.016869 0.00533715 -0.0708967 -0.0230263 0.0111152 
327 1 1 -0.0435039 0.0432739 0.0497708 0 0 0 -0.000184125 0.000104496 -7.3826e-05 0.000119847 -0.000218996 0.000438179 -0.0441522 -0.00960613 0.0123619 0.00694698 
126 1 1 -0.0115878 0.044298 0.0464522 0 0 0 3.21495e-06 0.000136664 -0.000494504 0.00463249 -0.0032568 0.00452433 0.0714718 -0.186769 -0.0344856 0.00694698 
248 1 1 0.000170783 0.0432544 0.0424989 0 0 0 0.000453597 0.000180774 -0.000598913 0.0314983 -0.00197268 0.0219393 0.0722115 0.214607 -0.00612251 0.00694698 
229 1 1 0.012561 0.0445189 0.0454173 0 0 0 -0.000299611 0.000145552 -0.000418776 0.00517429 -7.73724e-05 0.00041484 0.0321062 -0.0639354 -0.0176178 0.00694698 
114 1 1 0.0401338 0.0408001 0.0407334 0 0 0 -5.07304e-05 1.35954e-05 -0.000163046 -0.00121638 -0.000722604 0.00313225 0.00993239 -0.0162214 0.0016104 0.0111152 
314 1 1 -0.0174739 -0.0445491 0.0555934 0 0 0 -0.000136781 -1.23397e-05 -0.000478475 0.000147703 -0.00026485 0.00123567 -0.0197784 0.0168723 -0.00982758 0.00694698 
337 1 1 -0.00610023 -0.040857 0.0515853 0 0 0 -0.000343597 2.02062e-05 -0.00083173 0.000609472 -0.000692875 0.00170262 0.0371367 0.0327168 0.000597312 0.00694698 
56 1 1 0.00688334 -0.0394001 0.0619714 0 0 0 -0.00033448 -7.43383e-05 -0.000933319 0.00362061 -0.00237313 0.00698217 -0.0255688 -0.00553864 0.00708047 0.0111152 
265 1 1 0.0220175 -0.0437239 0.0552623 0 0 0 -0.000147806 1.82917e-06 -0.000396537 0.000360174 -0.000377463 0.000765874 0.00875135 -0.0213359 0.0105611 0.00694698 
49 1 1 0.0406722 -0.0407583 0.0580762 0 0 0 -0.000156211 3.61545e-05 -0.000281894 0.00168665 -0.0012017 0.00182525 -0.00542195 -0.0130688 0.00834901 0.0111152 
84 1 1 -0.0411458 -0.0329928 0.0553177 0 0 0 -0.000197782 -8.6563e-05 -0.000484697 0.0013984 -0.00045696 0.00583672 -0.00378951 0.0193454 -0.00493395 0.0111152 
307 1 1 -0.0195839 -0.0324341 0.0571138 0 0 0 -0.000431669 3.83807e-05 -0.00111019 0.000460142 -0.000908935 0.00269955 -0.0621318 -0.0135623 0.0646042 0.00694698 
326 1 1 0.0447953 -0.0254456 0.0534943 0 0 0 -0.000239726 7.61881e-05 -0.000269075 0.000579478 -0.000412741 0.000447673 -0.00609326 -0.0321548 -0.00138389 0.00694698 
81 1 1 -0.0216693 -0.017039 0.0624286 0 0 0 -0.000895556 0.000323411 -0.00195752 0.00722234 -0.00790319 0.0213499 -0.0298099 0.0323749 0.0243144 0.0111152 
52 1 1 0.0112848 -0.0221405 0.050729 0 0 0 -0.000507664 0.00012715 -0.00106152 0.00455679 -0.00488558 0.0107049 0.0156461 0.00347153 -0.00821445 0.0111152 
332 1 1 0.0267553 -0.0152031 0.0567069 0 0 0 -0.00056422 0.000158091 -0.000818132 0.00148252 -0.00135202 0.00198658 0.0361766 -0.0301028 -0.00345102 0.00694698 
220 1 1 -0.0438054 -0.00977055 0.0542169 0 0 0 -0.000373162 0.000173797 -0.00058168 0.000835552 -0.000683165 0.00188979 -0.014034 0.00166569 0.0253651 0.00694698 
133 1 1 -0.0272093 -0.0028314 0.0559921 0 0 0 -0.00103147 0.000338784 -0.0017275 0.00220799 -0.00177588 0.00502863 0.0557755 0.0461479 -0.0401234 0.00694698 
24 1 1 -0.0102687 -0.00371968 0.0527963 0 0 0 -0.00119895 0.00034162 -0.00222012 0.00955865 -0.0102259 0.0237447 -0.00618772 -0.00119802 0.00299321 0.0111152 
240 1 1 0.0172577 -0.00749153 0.0553573 0 0 0 -0.000745314 0.000269491 -0.00167813 0.00178702 -0.0018769 0.00455366 -0.105325 -0.11724 0.0312881 0.00694698 
236 1 1 -0.0236951 0.00828209 0.050774 0 0 0 -0.000965563 0.00034342 -0.00159626 0.00176129 -0.00202773 0.00463241 -0.0157882 0.000355054 -0.00124275 0.00694698 
15 1 1 0.0136556 0.00817957 0.0562963 0 0 0 -0.0009875 0.000395669 -0.00208895 0.00804225 -0.00975831 0.0221392 0.020644 -0.0236123 -0.00994138 0.0111152 
291 1 1 0.043783 0.0122421 0.0588936 0 0 0 -0.000151857 7.44737e-05 -0.000416551 0.00051206 -0.000545399 0.000995304 -0.0190533 -0.00997438 -0.0042964 0.00694698 
335 1 1 -0.0343166 0.0161604 0.0526614 0 0 0 -0.000864766 0.000265686 -0.00136665 0.00167375 -0.00134288 0.00413866 -0.0124617 0.0155237 0.00977102 0.00694698 
266 1 1 0.0217579 0.0233202 0.0586698 0 0 0 -0.000835431 0.000180284 -0.00124364 0.00212319 -0.00179564 0.00360243 0.0757095 0.0907442 0.000583803 0.00694698 
298 1 1 0.0302837 0.013536 0.0553158 0 0 0 -0.00085568 0.000298194 -0.00135655 0.00180827 -0.00170846 0.00353838 -0.0172448 -0.0790123 0.00376144 0.00694698 
262 1 1 -0.0377386 0.028734 0.0508364 0 0 0 -0.000660045 0.000300159 -0.00100818 0.000960188 -0.00119734 0.00324196 -0.00673912 -0.0550393 -0.0103859 0.00694698 
99 1 1 -0.00360683 0.0303694 0.0615015 0 0 0 -0.00141277 0.000213735 -0.00180632 0.00822797 -0.00577726 0.0104474 2.96654e-05 -0.0148193 0.0709702 0.0111152 
122 1 1 -0.0274281 0.0409194 0.055832 0 0 0 -0.000328536 0.000141776 -0.000703951 0.0014225 -0.00271482 0.00823778 0.051895 0.0681151 -0.0188643 0.0111152 
158 1 1 0.000196323 0.0448774 0.0561688 0 0 0 0.000861941 0.000117886 0.000591572 0.0629257 -0.000234797 0.0545528 -0.182271 -2.50272 0.245006 0.00694698 
47 1 1 0.0244968 0.0400923 0.0559301 0 0 0 -0.00042466 8.49527e-05 -0.00044231 0.00470065 -0.00349309 0.00900795 0.00634176 0.0231939 -0.0202487 0.0111152 
203 1 1 0.0420082 0.0441914 0.0569418 0 0 0 -0.000112417 -2.50697e-06 -0.00016365 0.000322213 -0.000211525 0.000662321 0.0096258 0.00644874 -0.00861458 0.00694698 
6 1 1 -0.0273258 -0.0408016 0.0684902 0 0 0 -0.0002391 7.09576e-05 -0.000681128 0.0015407 -0.00220841 0.00788817 -0.0380644 -0.00985143 0.0280146 0.0111152 
190 1 1 -0.00862807 -0.044209 0.0646024 0 0 0 -0.000181286 0.000137693 -0.000702014 0.000433879 -0.0005332 0.00146303 -0.0992551 -0.00350098 -0.000636552 0.00694698 
189 1 1 0.0268462 -0.0442001 0.0673432 0 0 0 -0.000191475 4.73472e-05 -0.000490398 0.000540138 -0.000567044 0.000939082 -0.050982 -0.013734 0.0326148 0.00694698 
186 1 1 0.0437406 -0.0441967 0.0738311 0 0 0 -2.83646e-05 -2.18086e-05 -0.000222379 0.000179375 -0.000120948 0.000327118 -0.0182368 0.0050704 0.00274826 0.00694698 
313 1 1 -0.0118606 -0.0316731 0.0682069 0 0 0 -0.000267369 0.000324668 -0.00155169 -2.7226e-05 -0.00127419 0.00363308 -0.00839986 0.0647952 -0.000501134 0.00694698 
227 1 1 0.00766339 -0.0253924 0.072221 0 0 0 -0.000605395 0.000641923 -0.00177805 0.00111007 -0.00281488 0.00355108 -0.102038 -0.0514174 -0.0621638 0.00694698 
91 1 1 0.0235306 -0.0277774 0.0665865 0 0 0 -0.000548011 -9.77806e-06 -0.00112207 0.00585374 -0.00394964 0.00929327 -0.018299 -0.0136753 0.0121259 0.0111152 
247 1 1 0.0400876 -0.0264407 0.0680848 0 0 0 -0.000260354 -0.00011534 -0.000932275 0.000774801 -0.000363214 0.00180941 -0.0179891 0.0331816 -0.00985464 0.00694698 
36 1 1 -0.0407302 -0.0173213 0.0691396 0 0 0 -0.000283016 0.000214741 -0.000843556 0.00196899 -0.00345558 0.0101188 -0.00989062 0.0543792 0.0102448 0.0111152 
137 1 1 -0.00226796 -0.0232139 0.0635588 0 0 0 -0.000769972 0.000609977 -0.00201367 0.0010541 -0.00265916 0.00478409 0.0199789 0.0530896 0.051321 0.00694698 
276 1 1 0.0201764 -0.0125498 0.0722551 0 0 0 -0.000713507 0.000223087 -0.00240681 0.00160317 -0.0017341 0.00532137 -0.0630721 0.0191407 -0.0305193 0.00694698 
215 1 1 0.0333362 -0.015138 0.070583 0 0 0 -0.000499819 -2.31668e-05 -0.00171747 0.00108548 -0.000995771 0.00371252 -0.0879123 -0.0437769 -0.0292412 0.00694698 
217 1 1 0.0446138 -0.0151031 0.0644098 0 0 0 -0.000253743 -4.94014e-05 -0.000597137 0.000680446 -0.00033121 0.00127518 0.0542764 -0.0779046 0.0376988 0.00694698 
182 1 1 -0.0291258 -0.00430468 0.0735704 0 0 0 -0.000272398 0.000877227 -0.00162105 0.000474161 -0.00293694 0.00485978 -0.0330026 0.0449121 0.0214484 0.00694698 
10 1 1 0.00493057 -0.00796196 0.0666169 0 0 0 -0.00118208 0.000609067 -0.00247775 0.0111283 -0.0123903 0.0249589 -0.00512571 0.0127745 -0.00404667 0.0111152 
148 1 1 0.0445353 -0.00238251 0.0634342 0 0 0 -0.000271784 0.000226716 -0.000826374 0.000574231 -0.00106188 0.00200231 -0.0833677 -0.13589 -0.0449284 0.00694698 
32 1 1 -0.0399495 0.00415302 0.0635912 0 0 0 -0.000474989 0.000354578 -0.000995691 0.00436388 -0.00512685 0.0123265 -0.00827954 0.0461765 0.0116717 0.0111152 
197 1 1 -0.0192989 0.00213729 0.0660061 0 0 0 -0.00101774 0.000321554 -0.00188999 0.00211484 -0.00235895 0.0055169 -0.0173662 0.061715 0.0756727 0.00694698 
115 1 1 -0.00374419 0.010583 0.0687253 0 0 0 -0.00108148 0.000461597 -0.00231425 0.00826703 -0.0102898 0.0250742 0.00332132 0.00907619 -0.00722274 0.0111152 
87 1 1 0.029135 0.00060131 0.0669603 0 0 0 -0.000710134 0.000213793 -0.00218319 0.00658093 -0.00703986 0.0216438 0.0406424 -0.0222577 0.0334153 0.0111152 
338 1 1 0.0431283 0.00836744 0.0719499 0 0 0 -0.000456269 0.000159412 -0.00111517 0.000940644 -0.00123936 0.00271304 0.0389336 -0.039314 -0.0637937 0.00694698 
39 1 1 -0.0408657 0.0245427 0.0667515 0 0 0 -0.000416426 0.000316807 -0.000916062 0.00382391 -0.00516185 0.0116987 0.0176611 0.0706088 0.010836 0.0111152 
117 1 1 -0.0212928 0.0203471 0.0630616 0 0 0 -0.000903523 0.000281169 -0.00200521 0.00530669 -0.00726108 0.0236242 -0.00566133 0.00581998 -0.0291255 0.0111152 
140 1 1 0.00954872 0.0208967 0.0652305 0 0 0 -0.00109237 0.000563289 -0.00199071 0.00148574 -0.00233164 0.004069 0.0263222 -0.015348 -0.00596384 0.00694698 
106 1 1 0.0402749 0.0284287 0.0625108 0 0 0 -0.00018305 8.57187e-06 -0.000504151 0.00274443 -0.00226565 0.00577842 0.0127537 -0.0233317 0.00139092 0.0111152 
174 1 1 -0.0431538 0.0430566 0.0643871 0 0 0 -2.53453e-06 0.000172331 -0.000278457 -0.00011074 -0.000426322 0.00101493 -0.0219204 0.036761 0.0188033 0.00694698 