ITEM: TIMESTEP
47250
ITEM: NUMBER OF ATOMS
338
ITEM: BOX BOUNDS mm mm mm
-0.05 0.05
-0.05 0.05
0 0.15
ITEM: ATOMS id type type x y z ix iy iz vx vy vz fx fy fz omegax omegay omegaz radius 
319 1 1 -0.0146715 -0.0444597 0.00609646 0 0 0 0.00232687 -0.00281028 -0.00171898 -0.00214702 -0.0174078 -0.00104411 0.340381 0.959737 -0.36904 0.0068221 
243 1 1 -0.00278417 -0.0438202 0.0061049 0 0 0 -0.00386819 0.00497355 -0.00185549 0.0146639 -0.0171081 0.0152601 -0.666022 -0.909371 1.46494 0.0068221 
260 1 1 0.0252113 -0.043747 0.00602696 0 0 0 -0.0049065 0.000536138 0.00479997 0.0184501 0.00493752 0.0209008 0.631142 -0.505925 0.106067 0.0068221 
131 1 1 -0.0257056 -0.0399215 0.00569459 0 0 0 0.00280148 -0.00446623 -0.00154946 -0.00272541 -0.0387508 -0.00222944 0.742305 -0.514845 0.458614 0.0068221 
173 1 1 -0.0155646 -0.031901 0.00565506 0 0 0 0.0051124 0.0023077 0.00371553 -0.0112487 -0.0531325 -0.00265201 -0.0494043 0.270344 -0.15739 0.0068221 
78 1 1 0.0412262 -0.0407449 0.00932266 0 0 0 -0.00177675 0.00040645 0.00335468 0.0640315 0.0504585 0.188688 0.326119 0.353761 0.025362 0.0109154 
296 1 1 -0.0274621 -0.0274113 0.00619345 0 0 0 0.00237883 -0.00129697 0.00250877 -0.0133097 -0.0458147 0.00124073 0.200139 -0.630468 0.489687 0.0068221 
275 1 1 -0.00358611 -0.0296871 0.00579568 0 0 0 0.00343254 0.00701724 0.00414894 -0.00250332 -0.0920134 -0.0208695 0.260283 0.532287 1.18267 0.0068221 
144 1 1 0.0428904 -0.0248944 0.00604891 0 0 0 0.000762625 0.00164912 0.00211632 0.0414628 0.0364258 0.0532256 -0.421922 0.308282 -0.704999 0.0068221 
102 1 1 -0.0405088 -0.0169589 0.00908851 0 0 0 -0.00285029 -0.0071124 -0.00327001 0.102296 -0.0165215 0.0759272 0.541101 -0.385397 0.770344 0.0109154 
328 1 1 -0.0254116 -0.0151971 0.0054928 0 0 0 0.000427371 -0.00378519 -0.00328377 -0.0149772 -0.081995 -0.0111558 -1.25234 -0.212193 -0.915891 0.0068221 
267 1 1 0.0154473 -0.0199937 0.00578184 0 0 0 0.0106124 0.00295626 0.00391864 0.0402001 -0.0697993 -0.123861 1.19821 1.88738 -1.7109 0.0068221 
202 1 1 0.0450868 -0.0129762 0.00620205 0 0 0 0.00369729 -8.0515e-05 0.00152726 0.0327477 0.0330412 -0.0111797 0.400695 0.390171 0.155765 0.0068221 
257 1 1 -0.0441543 -0.00108419 0.00625668 0 0 0 -0.0039655 -0.00641503 -0.00746668 0.0142818 0.0118073 0.0621908 -1.01918 0.956881 -1.03134 0.0068221 
268 1 1 -0.0326273 0.00364921 0.00621198 0 0 0 -0.0018007 -0.0148534 -0.019215 0.0701699 0.020484 0.06982 2.2262 0.600963 -0.499812 0.0068221 
274 1 1 -0.0219901 -0.00382018 0.00786955 0 0 0 -0.0104143 -0.0164158 -0.00610159 0.0678948 -0.0866277 -0.118738 1.58653 -5.89144 1.65825 0.0068221 
164 1 1 0.0205364 0.00166571 0.0055391 0 0 0 0.0147377 -0.0101245 -0.0416623 -0.0909919 -0.0354304 -0.0105789 -2.07145 -1.77973 1.27433 0.0068221 
232 1 1 -0.0434029 0.0118199 0.00629264 0 0 0 -0.00847483 -0.0104871 -0.0117038 0.0684992 0.00701547 0.0795726 0.806405 -1.14506 0.874289 0.0068221 
171 1 1 -0.0210932 0.00795331 0.0083903 0 0 0 0.000915579 -0.0324651 -0.0150069 0.0624787 -0.0117293 -0.0869857 -2.87961 -1.99201 -3.30028 0.0068221 
297 1 1 -0.0252519 0.0194628 0.00564453 0 0 0 0.0135146 -0.0278444 -0.0117018 0.0279477 -0.0082994 0.0491762 4.14157 0.882416 2.3975 0.0068221 
222 1 1 -0.0107863 0.0145727 0.00560021 0 0 0 0.0104667 -0.0268634 -0.011112 -0.0106939 -0.0350059 -0.0600781 4.45267 -0.958982 0.290599 0.0068221 
290 1 1 -0.000759465 0.0214215 0.00538431 0 0 0 0.0250515 -0.0141453 0.0170277 -0.0120164 -0.0024206 -0.142979 0.668604 3.82968 0.3124 0.0068221 
316 1 1 0.032186 0.0195678 0.0051896 0 0 0 -0.00141257 -0.00508698 -0.0124934 0.0928097 -0.0117988 0.0189759 -0.252893 -0.992801 -1.38169 0.0068221 
162 1 1 0.0445598 0.020164 0.00555576 0 0 0 -0.00254013 -0.000698345 -0.00147101 0.0752122 0.0141766 -0.0354102 0.751196 -0.97313 -0.790425 0.0068221 
294 1 1 -0.0438998 0.0252005 0.00616721 0 0 0 -0.00625318 -0.00547129 -0.00810165 0.0803211 -0.0302488 0.0386745 2.11735 -0.110512 -0.625297 0.0068221 
175 1 1 -0.0328006 0.0313894 0.0061413 0 0 0 -0.00549613 0.00250845 0.000790972 0.147749 -0.0380847 -0.0527128 -0.875379 -0.629265 1.13596 0.0068221 
255 1 1 -0.0148252 0.0260695 0.0059469 0 0 0 0.0121068 -0.0189949 0.00479093 0.059416 0.00727774 -0.0130218 2.32836 0.92218 -0.154809 0.0068221 
155 1 1 0.0375512 0.0310949 0.00575694 0 0 0 0.00770401 -0.000549613 -0.00450206 0.00593881 0.017109 -0.0182109 0.522167 -1.32881 0.866112 0.0068221 
324 1 1 -0.00333807 0.0326507 0.00570131 0 0 0 0.0138547 -0.0118342 0.0158075 -0.0279695 0.0199449 0.0269133 0.391188 0.272129 -0.211191 0.0068221 
161 1 1 0.00823448 0.0320427 0.00656214 0 0 0 0.00887121 -0.029326 0.0166657 -0.0459754 -0.0564731 0.143871 5.95816 0.197908 -0.908213 0.0068221 
321 1 1 -0.04398 0.0437802 0.00630795 0 0 0 -0.000560271 -0.000996324 -0.000451937 0.00333473 -0.0214414 -0.0396202 0.406836 0.186551 0.402607 0.0068221 
207 1 1 -0.0314298 0.0439212 0.00634561 0 0 0 -0.00241943 -0.00113921 0.0012992 0.028209 -0.016254 -0.0012099 0.269967 -0.589746 -1.25256 0.0068221 
149 1 1 0.0119834 0.0438408 0.00550199 0 0 0 0.0162181 -0.00685775 0.00617573 0.000369579 -0.0661477 0.095699 -1.43338 5.74219 0.857955 0.0068221 
249 1 1 0.0276554 0.0440599 0.00621192 0 0 0 0.011565 -0.00568718 -0.00646608 -0.101164 -0.0522436 0.0384792 1.42123 4.28314 -0.126017 0.0068221 
289 1 1 0.0442953 0.0421122 0.00600329 0 0 0 0.0174072 0.00608839 0.00247401 -0.0661255 0.0377805 -0.0956639 -0.104488 2.45547 -1.48339 0.0068221 
299 1 1 -0.0245472 -0.045015 0.0168452 0 0 0 0.00948609 -0.0114421 -0.00352859 -0.00287888 -0.0335975 0.0150431 0.154127 1.76499 -0.689858 0.0068221 
225 1 1 -0.0115749 -0.0441516 0.0186541 0 0 0 0.0128813 -0.00767563 -0.00532084 0.00938877 -0.0161679 0.0188242 -0.339206 -0.438657 -1.12668 0.0068221 
130 1 1 0.0208206 -0.0441619 0.0181738 0 0 0 -0.00720154 -0.00131723 0.00668477 0.0280913 0.00597256 0.0142481 0.802669 0.609791 0.253501 0.0068221 
74 1 1 -0.0407511 -0.0366429 0.0096509 0 0 0 0.000196666 -0.00740857 -0.00370866 -0.0555512 -0.155182 -0.00218511 0.143231 0.0774126 -0.298509 0.0109154 
60 1 1 0.0105286 -0.0359577 0.00956041 0 0 0 -0.0034238 0.00975574 0.00376828 0.128888 -0.100509 0.0117137 -0.155788 -0.331584 -0.711291 0.0109154 
67 1 1 0.0277643 -0.0280356 0.0127522 0 0 0 -0.00758107 0.0140245 0.00831286 0.0734449 0.178809 0.0968221 -1.8899 -0.583154 -0.229143 0.0109154 
40 1 1 -0.0106645 -0.0158118 0.0106992 0 0 0 0.000829439 0.002031 0.00456912 -0.113804 -0.505041 -0.253505 -1.51393 0.403599 0.29711 0.0109154 
279 1 1 0.00437278 -0.0207311 0.0110104 0 0 0 0.0118102 0.010447 0.0115402 0.0192806 -0.115998 -0.0956778 0.379237 -0.193273 -1.69071 0.0068221 
96 1 1 0.0118818 -0.00722107 0.0161558 0 0 0 0.00883596 0.0112935 -0.0255869 0.100658 -0.794851 -0.431124 -5.51054 -2.05563 2.06508 0.0109154 
50 1 1 0.0304997 -0.0092197 0.00983765 0 0 0 0.00319907 0.00593865 -0.0018993 0.150025 0.203866 -0.286965 -0.85136 -0.522305 -0.507413 0.0109154 
183 1 1 0.0446368 -0.00702677 0.0175679 0 0 0 0.00119097 0.00425474 0.00386203 0.00437707 0.0305547 0.00360323 -0.917991 -0.44429 -0.352761 0.0068221 
17 1 1 -0.00518245 0.00258624 0.0144802 0 0 0 0.00544904 -0.0339814 -0.0429153 -0.32952 -0.460732 -0.409818 -0.174494 2.11247 0.125488 0.0109154 
98 1 1 0.0121928 0.013437 0.00991202 0 0 0 0.0267697 -0.0424828 -0.0268457 -0.287205 -0.171183 -0.231733 5.76768 1.50786 -0.289094 0.0109154 
94 1 1 0.0383965 0.0083416 0.0136594 0 0 0 -0.0103102 0.00681392 -0.00249657 0.29336 0.200711 -0.111744 -0.44871 0.964763 0.892648 0.0109154 
300 1 1 -0.0445728 0.0188415 0.0170563 0 0 0 0.000546118 -0.00724054 -0.0211762 0.122903 0.0786787 0.182939 -3.01377 3.40407 -2.20494 0.0068221 
273 1 1 -0.0325705 0.0187358 0.0156262 0 0 0 0.00646655 -0.0343128 -0.0279484 0.15785 0.119543 0.196454 -4.30219 -3.36165 0.83419 0.0068221 
286 1 1 -0.00158868 0.0184556 0.0170311 0 0 0 0.0526835 -0.0763115 0.0205971 -0.134255 0.108825 -0.215856 11.2261 -1.88724 -9.54849 0.0068221 
320 1 1 0.00400739 0.0294641 0.0185314 0 0 0 0.0553778 -0.112927 0.0742211 0.0465729 -0.0576542 0.206272 -2.25993 6.53478 21.0767 0.0068221 
77 1 1 0.0226146 0.0295682 0.012468 0 0 0 0.020962 -0.0283422 -0.00662819 -0.0280545 -0.565773 0.534436 0.311911 2.08058 1.52695 0.0109154 
284 1 1 0.044563 0.0273606 0.0157399 0 0 0 0.0153722 0.00423798 0.00760301 0.00584542 0.0471559 -0.08707 -2.17653 2.53127 -2.39857 0.0068221 
305 1 1 -0.0436556 0.034675 0.0154727 0 0 0 -0.00301385 -0.00296152 0.00969623 0.0983766 0.0146451 -0.082976 -2.27415 -1.04125 -0.201308 0.0068221 
38 1 1 -0.0153907 0.0414817 0.0097444 0 0 0 0.00668045 -0.00762494 0.010197 0.267157 0.117099 -0.010041 -0.45906 -0.0163658 0.603889 0.0109154 
237 1 1 0.00103863 0.043723 0.0120549 0 0 0 0.0129576 0.00166716 0.0281541 -0.0125654 -0.000580697 0.070192 -3.50286 -3.6793 0.893324 0.0068221 
239 1 1 0.0187427 0.0447277 0.0155301 0 0 0 0.00203789 -0.0150854 0.000658196 0.0029584 -0.11682 0.167196 1.52246 -7.29582 -0.224042 0.0068221 
331 1 1 -0.0431799 -0.0454133 0.0218635 0 0 0 -0.000825223 -0.00746057 -0.00242412 -0.0144902 -0.0342319 -0.00420958 -0.29524 0.0435436 -0.274281 0.0068221 
242 1 1 0.00100834 -0.0445451 0.0196797 0 0 0 0.00241816 0.00204448 -0.000784753 0.0347974 -0.0283055 0.035088 -0.303411 0.343005 1.09638 0.0068221 
167 1 1 0.031931 -0.0441893 0.0228843 0 0 0 -0.00651298 0.000993524 0.00152096 -0.00684197 0.022202 0.00497766 -0.517695 -0.492519 0.381155 0.0068221 
136 1 1 0.0442207 -0.04464 0.0241862 0 0 0 -0.00281225 0.00202187 0.000774169 -0.00804555 0.0233555 0.0246422 -0.693514 -0.316608 0.30592 0.0068221 
180 1 1 -0.0441245 -0.0338137 0.0265751 0 0 0 -0.000582472 -0.00658525 0.00153599 -0.00390103 -0.0169224 0.000647484 1.01695 0.220014 -0.178241 0.0068221 
256 1 1 -0.0326792 -0.0399168 0.0256396 0 0 0 0.00870541 -0.0198959 0.00177974 -0.00887409 -0.0875977 0.0189685 -0.240339 -0.908239 -1.8116 0.0068221 
179 1 1 -0.0345107 -0.026099 0.0213475 0 0 0 -0.00189565 -0.0249417 0.0123421 0.00671243 -0.0153212 0.0433974 1.82704 -1.93175 -1.79936 0.0068221 
7 1 1 -0.0199743 -0.0303183 0.0211415 0 0 0 0.00857133 -0.0153563 0.0118775 -0.056078 -0.0997519 0.151477 2.32315 0.266561 1.88362 0.0109154 
104 1 1 -0.000136122 -0.0285012 0.0247486 0 0 0 0.0065208 0.00705101 0.0122407 -0.228075 -0.00907839 -0.11895 2.00236 0.307356 0.0676338 0.0109154 
128 1 1 -0.0449262 -0.0216719 0.0238411 0 0 0 -0.00261544 -0.00438149 0.00375271 -0.00870936 -0.0185171 0.00670305 -2.55239 0.16981 -0.166643 0.0068221 
278 1 1 0.0330216 -0.0162906 0.0241913 0 0 0 -0.0215166 0.0417857 0.0112471 0.00439958 0.107665 -0.017562 -1.79992 -2.46009 -1.49461 0.0068221 
146 1 1 -0.0447795 -0.00923912 0.0224416 0 0 0 -0.00688945 -0.0125287 -0.0155037 0.0124545 0.102127 0.142276 -1.69517 2.42549 -0.534917 0.0068221 
19 1 1 -0.0262759 -0.011992 0.0274257 0 0 0 -0.0116625 -0.0299562 0.0113102 -0.377441 0.410949 0.669609 -3.50671 -0.314292 1.00477 0.0109154 
258 1 1 0.000995988 -0.0122787 0.0275035 0 0 0 -0.0172934 0.0352242 -0.0210941 -0.0501396 -0.122572 -0.13413 -9.77606 -4.74625 7.05238 0.0068221 
25 1 1 -0.0376027 0.00473873 0.0224942 0 0 0 -0.00823202 -0.0265392 -0.0179321 0.624464 1.04474 1.40861 0.636424 -1.69912 -0.489733 0.0109154 
28 1 1 -0.0166966 0.0182791 0.0205398 0 0 0 0.0141541 -0.0368462 -0.00840081 0.272147 0.414565 0.104349 -0.543912 -0.159406 -2.11869 0.0109154 
261 1 1 0.043283 0.0177931 0.0269221 0 0 0 0.00999822 0.011942 -0.00215502 0.074637 0.0229393 0.00880645 0.874382 2.42079 0.0912084 0.0068221 
246 1 1 -0.0442107 0.0260959 0.0275242 0 0 0 -0.00098664 0.0052062 -0.00403585 0.0440659 0.114648 0.11806 6.39721 -0.420451 2.58171 0.0068221 
23 1 1 -0.0279998 0.0334773 0.0219698 0 0 0 0.00630305 -0.0201118 0.00433358 0.539008 0.664007 -0.203014 3.09615 0.596653 -1.25916 0.0109154 
61 1 1 0.0369985 0.0408412 0.0205309 0 0 0 0.0220808 0.00371329 -0.00828474 -0.00054218 0.0761657 -0.246196 -0.00870742 -2.52694 2.04086 0.0109154 
323 1 1 -0.00652409 0.044215 0.0262418 0 0 0 -0.00135762 -0.0405413 0.00100073 0.0929019 0.0293899 0.0762563 1.10133 13.4038 -1.9222 0.0068221 
224 1 1 -0.0437547 -0.0443835 0.0342934 0 0 0 0.000131109 -0.00662935 0.000715261 0.00639515 0.0018941 0.0045212 -0.0186851 0.0481053 -0.149235 0.0068221 
125 1 1 0.0438174 -0.0440138 0.0370587 0 0 0 -0.00510861 0.00439544 0.00181873 -0.0293296 0.0462202 0.0146702 0.0961127 0.304526 0.124911 0.0068221 
42 1 1 -0.011991 -0.0407179 0.0355396 0 0 0 0.0122738 -0.0101828 0.00227972 0.1382 0.08449 0.0945369 -0.21707 -0.328671 -0.29834 0.0109154 
271 1 1 0.0313321 -0.0406798 0.0344016 0 0 0 -0.0116418 0.0201083 -0.00161597 -0.0528559 0.0982296 0.000595773 -1.43585 -0.0335359 -1.20421 0.0068221 
120 1 1 0.0408658 -0.0296133 0.0290821 0 0 0 -0.0100179 0.0168328 -0.000695559 -0.150107 0.461903 0.19099 0.577109 0.10073 -0.540051 0.0109154 
178 1 1 -0.0125877 -0.0206215 0.0320901 0 0 0 -0.00123609 -0.00783831 0.0175884 -0.0409965 0.0939044 -0.00947106 -2.43393 1.11621 1.56722 0.0068221 
51 1 1 0.0185189 -0.0226259 0.0302549 0 0 0 -0.0349042 0.0533749 0.0121431 0.0176978 -0.17413 -0.0891882 -0.383939 0.229951 3.76418 0.0109154 
134 1 1 0.0440033 -0.0144001 0.0326056 0 0 0 -0.00398127 0.0118773 -0.00302055 -0.0181909 0.0629014 0.043713 -0.785626 -0.403294 -0.746716 0.0068221 
310 1 1 -0.0103915 -0.00897433 0.0299342 0 0 0 -0.0247683 -0.00585905 -0.021841 -0.107564 0.185094 0.00333383 0.144801 6.73097 1.46153 0.0068221 
18 1 1 0.0121301 -0.0043339 0.0367911 0 0 0 -0.0390269 0.0848337 -0.0168737 0.500857 -1.9162 0.704916 -3.64228 -3.33391 -5.25734 0.0109154 
184 1 1 0.0276405 -0.0081055 0.0329088 0 0 0 -0.042112 0.051732 0.0165034 0.109972 -0.0857492 0.0287396 2.00934 -0.384214 -3.09222 0.0068221 
160 1 1 -0.00253997 0.0006252 0.0310311 0 0 0 -0.00912017 -0.00285051 -0.0224722 -0.0563119 0.046793 0.0588212 1.52829 -2.06385 0.969915 0.0068221 
55 1 1 0.0406122 0.00148709 0.0322579 0 0 0 0.0102551 0.0141457 0.00577648 0.0353127 0.215366 0.0993129 0.0822809 1.58625 -1.82533 0.0109154 
112 1 1 -0.0178279 0.00461632 0.0351505 0 0 0 -0.0227113 0.00936787 0.0132735 -0.159045 0.957623 0.60643 -0.875688 1.19558 -1.56812 0.0109154 
2 1 1 -0.0315807 0.0195248 0.0353951 0 0 0 -0.0114686 0.0587655 0.0215681 1.08094 1.24681 1.23723 -6.80148 -1.21598 1.06769 0.0109154 
100 1 1 0.00664063 0.0138481 0.0299627 0 0 0 0.0508057 -0.0755949 0.0106737 -0.656464 1.80663 -0.304523 -3.07375 2.47217 -0.00095618 0.0109154 
69 1 1 -0.00661839 0.029653 0.0340888 0 0 0 0.0144207 -0.0476171 0.0128985 -0.415218 1.02896 1.00764 -1.4537 -6.25822 0.680257 0.0109154 
108 1 1 0.0262453 0.0288445 0.0326414 0 0 0 0.0429859 -0.0115489 -0.000608766 0.250607 0.0896381 0.615115 -2.40071 2.77358 1.90299 0.0109154 
16 1 1 0.0105051 0.0407869 0.0289311 0 0 0 0.0175332 -0.0321281 0.0248721 -0.166037 -0.10159 1.61765 -0.604555 6.2995 0.659262 0.0109154 
9 1 1 -0.0407799 0.0416865 0.0324609 0 0 0 0.0105181 -0.00768083 0.0326977 -0.456357 0.504421 -0.659062 -0.011321 -0.241203 -1.4595 0.0109154 
329 1 1 -0.0242119 -0.0447429 0.0452199 0 0 0 0.00407583 -0.00434345 0.000621802 0.0338188 0.0162837 0.0210468 -0.54261 -1.1836 -0.630866 0.0068221 
168 1 1 0.00173341 -0.0448759 0.0401538 0 0 0 0.00393982 -0.00243713 0.0069304 -0.0156556 0.0412701 0.0517773 1.4655 0.591692 0.975106 0.0068221 
283 1 1 0.030948 -0.0444925 0.0459108 0 0 0 -0.00509388 0.0184782 -0.00299091 -0.0149227 0.0593679 0.00796728 0.453135 0.997248 0.67601 0.0068221 
211 1 1 -0.0438025 -0.03312 0.0391959 0 0 0 0.000123488 -0.00779023 -0.00379896 -0.00405708 -0.0210616 0.0189627 -0.743868 0.308227 -0.426343 0.0068221 
191 1 1 0.002903 -0.0322359 0.0407342 0 0 0 0.00314935 0.0115545 -0.000867945 -0.0585733 0.145377 0.0228591 -4.33403 0.912192 -0.263934 0.0068221 
3 1 1 0.0165262 -0.0407668 0.0393713 0 0 0 -0.00562654 0.020245 0.00100804 -0.19386 0.248075 0.0738423 1.12743 0.0311862 1.03914 0.0109154 
93 1 1 -0.0270662 -0.0292171 0.0419944 0 0 0 0.0109495 -0.00829577 -0.00241292 0.0749943 0.0360976 -0.0236392 -0.0854437 -0.710708 0.477673 0.0109154 
105 1 1 0.0302794 -0.028012 0.0466595 0 0 0 -0.0128794 0.0378082 -0.0079071 -0.0432306 0.284236 0.24276 -0.263241 0.938917 -0.537268 0.0109154 
66 1 1 -0.0415383 -0.0169246 0.0389701 0 0 0 0.00994276 -0.0042455 0.0162642 -0.120383 -0.0811028 -0.15557 2.61827 0.492981 -1.47497 0.0109154 
336 1 1 -0.0251253 -0.0118771 0.0450902 0 0 0 -0.0161235 0.0175774 -0.000572051 -0.0268668 0.00424459 0.0404316 -1.05072 -3.54921 2.39241 0.0068221 
245 1 1 -0.000261454 -0.011835 0.042762 0 0 0 -0.0487527 0.0719096 -0.00451592 0.0663448 -0.158705 0.0121588 8.77821 7.84477 8.75476 0.0068221 
259 1 1 0.0240606 -0.0131171 0.0439943 0 0 0 -0.0369661 0.0552294 0.0119184 0.128981 -0.10877 0.0166403 2.17727 4.49142 0.93996 0.0068221 
107 1 1 -0.0380791 0.00203177 0.0431996 0 0 0 0.00446154 0.020909 0.0200919 0.457694 -0.087767 0.0811132 -1.7232 1.44933 4.0121 0.0109154 
95 1 1 0.0239088 0.0110591 0.0391948 0 0 0 0.0388063 0.0140173 0.00440345 0.138165 -0.0232284 0.176464 -0.721455 -3.0413 -0.721446 0.0109154 
208 1 1 -0.0446836 0.0168305 0.0448637 0 0 0 -0.0114791 0.0297142 0.0312413 0.184854 0.0194795 0.29085 17.0222 -4.25578 -3.26755 0.0068221 
282 1 1 -0.018156 0.0183944 0.0444252 0 0 0 0.00352588 0.0929863 -0.0160347 0.212092 0.116137 0.174089 -5.7673 5.1913 -7.06477 0.0068221 
58 1 1 0.0409677 0.019949 0.0435793 0 0 0 0.0232005 0.0137459 -0.00581148 0.518902 -0.0246958 -0.15362 -1.49121 -0.742589 0.0708215 0.0109154 
199 1 1 -0.0447386 0.0284753 0.0408601 0 0 0 0.0300268 0.0849689 0.0404596 0.107316 0.0856794 0.190891 -17.676 5.47752 8.18086 0.0068221 
73 1 1 0.0108825 0.0279525 0.0458555 0 0 0 0.0362477 -0.0306377 0.0967437 -0.506446 0.100395 0.451406 2.44338 -6.28314 0.707482 0.0109154 
114 1 1 0.0400785 0.0406959 0.0407309 0 0 0 -0.00600875 0.00533389 -0.00885195 0.622387 -0.139564 -0.246956 1.49444 -2.49139 0.711204 0.0109154 
126 1 1 -0.0114323 0.0442546 0.0464404 0 0 0 -0.0488123 -0.00950821 0.205649 -0.198214 -0.202843 1.05876 -32.1394 19.3368 -14.189 0.0068221 
248 1 1 0.000273406 0.0431779 0.0422687 0 0 0 -0.00302951 -0.096165 0.0685121 -0.548949 -0.264275 0.57861 7.51395 2.49801 5.13369 0.0068221 
229 1 1 0.0125584 0.0443842 0.0455214 0 0 0 0.0137443 -0.0275417 0.0906497 -0.387533 0.116235 0.039142 -7.87998 -15.2938 1.51829 0.0068221 
314 1 1 -0.0174306 -0.0444231 0.0556041 0 0 0 0.00128523 0.00219654 0.00803922 0.0231294 0.029137 -0.0172532 0.73675 0.538914 -0.118275 0.0068221 
265 1 1 0.0219641 -0.0436974 0.0552239 0 0 0 -0.0041594 0.00486289 0.00389893 -0.00496751 0.0438951 -0.0197216 0.887778 -1.11229 1.11491 0.0068221 
84 1 1 -0.0410416 -0.032901 0.0553318 0 0 0 -0.00116793 0.000418442 -0.000564944 0.099773 -0.00838936 0.000372965 -0.756057 -0.190129 -0.237912 0.0109154 
337 1 1 -0.00608087 -0.0406819 0.0515554 0 0 0 0.00543044 -0.00620858 0.010991 0.0161828 0.0924908 -0.0159814 -1.3235 -1.48339 -2.48999 0.0068221 
43 1 1 -0.0088071 -0.0241751 0.0478578 0 0 0 0.012613 0.0123024 0.00225375 -0.233266 0.68289 -0.00150556 -0.359994 1.47413 1.15886 0.0109154 
326 1 1 0.044647 -0.0254281 0.0534904 0 0 0 -0.00521288 0.0143841 -0.0092804 0.0094004 0.0649446 0.0432774 0.0171367 -0.951265 -0.587963 0.0068221 
52 1 1 0.0112928 -0.0221287 0.0506495 0 0 0 -0.00505333 0.0314531 -0.00595638 -0.140451 0.484734 0.0457645 2.00754 -1.10319 0.583819 0.0109154 
220 1 1 -0.0436552 -0.00962251 0.0542518 0 0 0 0.0190599 0.00928528 0.0328158 -0.0328688 -0.0704185 -0.0524315 -2.57462 -3.30893 -0.809202 0.0068221 
240 1 1 0.0172114 -0.00753432 0.0552908 0 0 0 -0.0115428 0.0276876 0.0213716 0.056765 0.0556203 0.0716682 0.305528 -1.65115 1.16999 0.0068221 
5 1 1 0.0403974 -0.0106903 0.0488094 0 0 0 -0.00137069 0.0202754 -0.00531783 0.132731 0.299145 0.129543 0.910145 -0.0257728 -1.93898 0.0109154 
133 1 1 -0.0271015 -0.00262866 0.0560304 0 0 0 0.00355871 0.0403152 0.0171221 -0.0940114 -0.272846 -0.00441044 1.27039 -1.97422 -3.1897 0.0068221 
24 1 1 -0.010214 -0.00387224 0.0527128 0 0 0 -0.0259965 0.00818019 0.0457281 -0.306301 0.383659 -0.252561 0.0977312 0.258366 -1.18467 0.0109154 
303 1 1 0.0268392 -0.00144782 0.0492845 0 0 0 0.00413278 0.0396504 0.0190399 0.0733849 0.0376784 0.0354525 -0.627491 2.3786 -2.05893 0.0068221 
236 1 1 -0.023502 0.00824776 0.0505768 0 0 0 0.00559994 0.0411526 0.0144904 0.0551103 -0.527805 0.137381 3.65093 1.66769 0.77327 0.0068221 
298 1 1 0.0301232 0.0134813 0.055286 0 0 0 0.0177756 0.00628958 0.00227359 0.0579923 0.112986 0.0293266 0.199854 0.153385 -1.15673 0.0068221 
318 1 1 0.0442826 0.00471724 0.0485362 0 0 0 0.0161885 0.00824956 0.00251817 0.0643167 0.0468014 0.0160705 0.791097 -0.667004 -0.64725 0.0068221 
335 1 1 -0.0341083 0.016032 0.0524663 0 0 0 -0.0505864 -0.0183962 0.00668488 0.0453281 -0.716135 0.277255 6.00833 0.81448 10.2866 0.0068221 
4 1 1 -0.00357778 0.0144764 0.0481681 0 0 0 -0.000917437 0.00187932 0.017564 -0.0725532 0.0545 0.241539 -3.12656 -3.51683 -1.6337 0.0109154 
262 1 1 -0.0375052 0.0284729 0.0507403 0 0 0 -0.0445809 0.00985204 0.25467 0.363608 -0.515075 0.152501 58.2424 -44.8944 -12.5249 0.0068221 
192 1 1 -0.0254827 0.027114 0.0482024 0 0 0 -0.0359535 0.017731 0.355815 0.379273 -0.343357 0.196463 76.4359 7.77295 7.77229 0.0068221 
122 1 1 -0.0275663 0.0406855 0.0563457 0 0 0 -0.0566387 0.0185912 0.599933 1.40258 -0.504386 -1.05584 -46.2682 -2.43377 -1.1295 0.0109154 
292 1 1 -0.0145543 0.0324365 0.0487666 0 0 0 -0.0483062 -0.00540491 0.3178 0.21702 -0.228243 0.556217 20.056 44.6456 8.66873 0.0068221 
47 1 1 0.0244882 0.0399813 0.0563093 0 0 0 -0.0210377 0.00916108 0.207927 -0.965387 -0.0723508 -3.3647 -8.17244 4.24678 -1.51202 0.0109154 
327 1 1 -0.0434561 0.0433129 0.0497359 0 0 0 -0.0519333 -0.0481876 0.246992 0.534299 -0.722021 -0.332331 -12.4324 -33.3329 -10.3981 0.0068221 
190 1 1 -0.00852816 -0.0440653 0.0644848 0 0 0 -0.00298046 -0.00715425 0.0167046 0.0182195 0.0423577 -0.00184874 2.70472 -0.929275 0.847454 0.0068221 
307 1 1 -0.0195497 -0.0323031 0.0570786 0 0 0 0.00887314 0.00544317 0.0172205 0.0320568 0.0693893 -0.00357014 -0.232234 -1.14433 -0.166726 0.0068221 
56 1 1 0.00694933 -0.0393191 0.0618783 0 0 0 0.00113291 -0.00260497 0.00527588 -0.0801729 0.28095 -0.219951 -0.629185 1.29032 0.114885 0.0109154 
49 1 1 0.040587 -0.040684 0.0580989 0 0 0 -0.00278211 0.00937954 -0.00602669 -0.0926373 0.209988 0.0753866 0.231979 -0.139607 -0.32682 0.0109154 
137 1 1 -0.0022977 -0.0230748 0.0634437 0 0 0 0.0232746 0.00102677 0.0210233 -0.0155423 0.131327 -0.058663 2.26812 -2.03143 2.30076 0.0068221 
81 1 1 -0.0216506 -0.0169969 0.0623352 0 0 0 -0.0159861 0.011474 0.0289715 -0.0315995 0.322827 0.254726 0.307354 -0.80863 1.22938 0.0109154 
332 1 1 0.0266722 -0.0152518 0.0565288 0 0 0 -0.00204084 0.0293135 0.00810518 0.00408995 0.10176 0.0761764 2.8659 2.34491 0.302794 0.0068221 
217 1 1 0.0444899 -0.0150612 0.0643634 0 0 0 0.00540002 -0.00341617 -0.00207453 0.0296311 -0.00317594 -0.0182316 -0.208159 0.730327 0.196464 0.0068221 
32 1 1 -0.0398869 0.00453602 0.0636743 0 0 0 0.0256395 0.0228155 0.0211388 -0.397718 -0.337561 -0.246416 0.682109 0.584306 0.780149 0.0109154 
148 1 1 0.0443944 -0.00241027 0.0633749 0 0 0 0.00430412 -0.00749003 0.0012126 0.0239993 -0.0314603 0.0447754 1.87284 -0.197698 1.55964 0.0068221 
15 1 1 0.0136383 0.00810168 0.0562787 0 0 0 -0.00489876 0.0119645 0.016819 0.0612442 -0.14446 0.0222049 -0.0417083 1.16096 -1.55348 0.0109154 
291 1 1 0.043718 0.0123146 0.058809 0 0 0 -0.00130413 0.0068494 -0.0217637 0.0081689 0.0822611 -0.0426179 -2.67269 -4.00504 -1.60153 0.0068221 
117 1 1 -0.0211443 0.0199653 0.0627782 0 0 0 -0.036026 -0.0131071 -0.00489959 -0.711994 -3.20282 0.607478 -6.42117 -3.21976 4.76158 0.0109154 
140 1 1 0.00943195 0.0207614 0.0651465 0 0 0 -0.0283665 -0.000655743 0.00709918 -0.0215612 -0.183395 0.0175984 0.204436 -2.5579 4.13446 0.0068221 
99 1 1 -0.0036143 0.030185 0.0614109 0 0 0 0.0174071 0.0143858 0.0142786 0.139235 -1.46688 0.104979 -0.733614 -2.62108 -5.43323 0.0109154 
266 1 1 0.0216714 0.0232133 0.0587442 0 0 0 0.00668135 -0.0411503 0.106248 -0.0768838 0.131902 -0.28234 25.0073 5.11885 7.1883 0.0068221 
106 1 1 0.040194 0.028412 0.062469 0 0 0 0.027753 -0.0196059 -0.00131371 0.135837 -0.232154 0.49088 7.64234 3.89066 -0.870806 0.0109154 
174 1 1 -0.0431989 0.0432034 0.0640614 0 0 0 0.0174124 -0.0072779 0.0493433 -0.38734 0.538834 1.09133 -0.000893147 -20.5626 14.6734 0.0068221 
315 1 1 -0.0117336 0.0442258 0.0645377 0 0 0 0.0323984 0.0195432 -0.0274935 0.0852794 -0.167473 -0.194365 5.24124 -19.1174 4.65132 0.0068221 
158 1 1 0.00277349 0.0447291 0.0603636 0 0 0 0.0380495 0.00862519 -0.0553136 0.123744 -0.195371 -0.0133325 8.86857 51.9021 5.50299 0.0068221 
203 1 1 0.041973 0.0440923 0.0568956 0 0 0 0.0124825 -0.00754401 0.00875011 -0.174191 -0.00218942 0.0829843 -1.54567 10.5808 0.316107 0.0068221 
189 1 1 0.0268114 -0.0440952 0.0672559 0 0 0 0.00435066 0.000603152 0.00567059 -0.0213563 0.0168637 -0.0669405 0.505118 2.67954 -0.187283 0.0068221 
186 1 1 0.0437135 -0.0441478 0.0738087 0 0 0 -0.00187743 0.000707535 0.000517104 0.00204909 -0.00990516 -0.0015579 0.47952 0.216504 -0.33242 0.0068221 
6 1 1 -0.0272625 -0.0406748 0.0684722 0 0 0 -0.00729582 -0.00250103 0.00931248 0.120798 0.115558 -0.175039 0.890234 -1.42682 0.334964 0.0109154 
313 1 1 -0.011786 -0.0315228 0.0680424 0 0 0 0.00405521 -0.00558146 0.0262957 0.0601497 0.0590505 -0.0126933 -1.12932 -0.71216 -3.66934 0.0068221 
227 1 1 0.00764306 -0.0253748 0.0719203 0 0 0 0.0157004 -0.00239667 0.0222162 -0.00671159 0.0381092 -0.0619715 2.44082 2.00029 0.219265 0.0068221 
91 1 1 0.0235118 -0.0277384 0.0663474 0 0 0 0.00632643 0.00326394 0.00358326 -0.0846981 0.210165 -0.324527 -0.199517 -0.179351 0.0381552 0.0109154 
247 1 1 0.0399814 -0.0263739 0.0680337 0 0 0 0.00620391 -0.00300327 0.0040002 -0.0112944 0.00838636 -0.0217418 0.423476 -0.0829804 -0.789213 0.0068221 
36 1 1 -0.0406081 -0.0173092 0.0690817 0 0 0 -0.0125946 -0.000322923 0.0282756 0.0172999 0.136019 -0.132722 2.52553 -1.43962 -0.355639 0.0109154 
215 1 1 0.0332492 -0.015091 0.0704935 0 0 0 0.00874218 -0.00956835 0.00333945 -0.0374179 -0.00489106 -0.0551465 -0.463943 0.520058 0.395373 0.0068221 
10 1 1 0.00495189 -0.00797337 0.0664608 0 0 0 -0.00823206 0.0156766 0.0285416 -0.129951 0.124828 0.118376 -0.862942 0.976157 1.72263 0.0109154 
276 1 1 0.020155 -0.0125402 0.0720943 0 0 0 0.00276503 -0.00215296 0.0126597 -0.0320766 0.025393 -0.00465769 2.55189 0.487496 -2.58307 0.0068221 
182 1 1 -0.0291098 -0.00403853 0.0736028 0 0 0 0.0248985 -0.0231049 0.021051 -0.00360741 0.0553312 -0.426432 2.39581 -3.96597 -5.05454 0.0068221 
197 1 1 -0.019116 0.00195525 0.0659067 0 0 0 -0.0129277 -0.00407471 0.0343955 -0.0625332 0.22045 -0.19132 3.03064 -3.4359 -7.53977 0.0068221 
87 1 1 0.0290401 0.000672423 0.066973 0 0 0 0.011184 -0.0220697 0.0140973 0.101425 -0.170433 0.0433436 1.18596 1.49529 -1.14004 0.0109154 
115 1 1 -0.00367902 0.0104812 0.0685635 0 0 0 -0.0253332 0.0239089 0.0163777 -0.0212901 -0.653394 0.278787 0.989855 0.561602 -0.445472 0.0109154 
338 1 1 0.0428969 0.00847695 0.0718452 0 0 0 0.00127689 -0.000573718 0.0267336 0.0899299 -0.051588 -0.0478816 -4.01701 -6.80542 4.15198 0.0068221 
45 1 1 0.0265084 0.0196376 0.0749562 0 0 0 -0.00159037 -0.0287107 -0.0331216 0.325796 -0.13391 0.77922 -10.6657 -4.82289 2.192 0.0109154 
39 1 1 -0.0406239 0.0238608 0.0663911 0 0 0 -0.0818094 -0.0328407 -0.030372 -1.42531 -1.78189 0.200405 -16.2002 9.48672 3.37258 0.0109154 
308 1 1 -0.00213697 0.0437309 0.0741666 0 0 0 0.0172872 0.0281781 0.0554658 -0.269438 -0.00972071 0.0208345 -13.2239 40.3292 -2.99303 0.0068221 
124 1 1 0.0437995 0.0436505 0.0697038 0 0 0 0.026574 0.00575566 -0.00744865 -0.0539215 -0.0194789 0.28915 -5.93758 -5.35968 1.76251 0.0068221 
252 1 1 -0.0395719 -0.0443462 0.0795937 0 0 0 -0.0121498 -0.0100311 0.00743051 -0.00520981 0.00311401 -0.00435632 -0.310147 2.39638 0.46763 0.0068221 
213 1 1 0.0324972 -0.0441311 0.0812537 0 0 0 -0.00238422 0.000444019 0.0171486 0.0349493 -0.0242945 -0.0777725 2.45272 1.78094 0.438568 0.0068221 
230 1 1 -0.0404087 -0.0324582 0.0757442 0 0 0 -0.0217203 -0.0157791 0.00665181 0.0131301 0.0708639 0.00568286 0.646181 -0.708699 0.513616 0.0068221 
109 1 1 0.0164561 -0.0403341 0.0801673 0 0 0 0.000531862 0.0014501 0.00916738 0.269699 -0.0243461 -0.347293 0.21727 -1.54504 -0.0476336 0.0109154 
165 1 1 0.0438609 -0.0323928 0.0783906 0 0 0 0.00322178 -0.0048427 0.00789788 -0.00357413 -0.00377335 -0.00476852 0.0985686 0.826745 0.159365 0.0068221 
75 1 1 -0.0259764 -0.0245544 0.0812817 0 0 0 -0.0190579 -0.00765107 0.0323838 -0.0456176 -0.0988373 -0.443552 1.23907 0.259644 0.533207 0.0109154 
143 1 1 0.0308631 -0.0314751 0.081052 0 0 0 0.00147367 0.00388789 0.0221892 0.0274007 -0.0200307 -0.0841365 -1.31777 -0.268529 -1.36546 0.0068221 
26 1 1 -0.0061985 -0.0197441 0.0797983 0 0 0 0.00376148 -0.00184124 0.0279268 0.101865 0.0638058 -0.0838178 -0.903846 -0.896427 0.128875 0.0109154 
209 1 1 0.00964214 -0.0144212 0.0810896 0 0 0 0.00598588 0.00218093 0.0305029 0.0110537 -0.00623608 -0.00283851 3.76847 0.856689 -0.897681 0.0068221 
169 1 1 0.0437625 -0.0191537 0.0781356 0 0 0 0.00734906 -0.00420061 0.00427577 -0.0270434 0.000380271 -0.0135916 -0.48116 0.227937 -0.0428892 0.0068221 
204 1 1 -0.0164195 -0.00656227 0.0758372 0 0 0 0.00231285 -0.0242989 0.0308862 -0.07155 0.104066 -0.236703 -8.11435 11.7647 0.625412 0.0068221 
325 1 1 0.0374833 -0.00825074 0.0807845 0 0 0 0.0101582 -0.0109072 0.0102302 -0.00522559 0.0112603 -0.000782518 2.10082 -1.34945 0.047053 0.0068221 
306 1 1 -0.0440768 -0.00391033 0.0777829 0 0 0 0.000611556 0.0111122 0.0225596 -0.0376915 0.0373497 -0.0776613 -1.00255 -3.83223 -2.98445 0.0068221 
63 1 1 -0.0400397 0.0111399 0.0835371 0 0 0 0.0145285 0.042229 0.0105359 -0.570773 0.82523 -0.372635 -2.06565 -0.376258 0.971785 0.0109154 
57 1 1 -0.0197522 0.00985396 0.0809183 0 0 0 0.00465425 0.0183463 0.00127799 -0.322874 0.468133 -0.348297 -0.925939 1.57012 0.611727 0.0109154 
263 1 1 0.010044 0.0152445 0.0772129 0 0 0 -0.0173432 0.00393603 0.00313742 0.0761214 -0.144149 -0.0219585 -4.45076 4.40401 -1.34607 0.0068221 