ITEM: TIMESTEP
45500
ITEM: NUMBER OF ATOMS
338
ITEM: BOX BOUNDS mm mm mm
-0.05 0.05
-0.05 0.05
0 0.15
ITEM: ATOMS id type type x y z ix iy iz vx vy vz fx fy fz omegax omegay omegaz radius 
319 1 1 -0.0146592 -0.0444143 0.0061206 0 0 0 -0.00078784 -0.00312815 0.00117925 -0.0208406 0.00778904 0.000159407 -0.419116 0.0898754 0.83189 0.00674364 
243 1 1 -0.00277402 -0.0437924 0.00609604 0 0 0 0.0027915 -0.00949223 0.021261 -0.00719067 -0.00406281 0.0280321 3.19381 -2.4696 -1.54274 0.00674364 
260 1 1 0.0251929 -0.0437056 0.00607819 0 0 0 0.00382438 0.00180135 0.00157617 -0.00129675 0.00851628 -0.0654907 0.223894 -0.681665 -0.937149 0.00674364 
131 1 1 -0.0256732 -0.0398477 0.0057483 0 0 0 -0.00861529 -0.00677985 -0.00271529 -0.0302168 0.0176776 -0.0042662 -0.100054 -0.336173 -0.401856 0.00674364 
173 1 1 -0.0155543 -0.031882 0.00570478 0 0 0 -0.0126342 -0.00831418 -0.000744556 -0.0407325 0.0204038 -0.0263773 1.1133 -1.97054 0.949139 0.00674364 
296 1 1 -0.0274447 -0.0273967 0.00623471 0 0 0 -0.00510901 -0.00288315 -0.00539584 -0.0181481 0.0337492 0.00060215 0.029039 -0.31112 -1.77738 0.00674364 
275 1 1 -0.00356918 -0.0296601 0.00584412 0 0 0 -0.00916462 -0.0167066 0.0160509 -0.0750674 0.0581558 -0.0815945 1.67779 -1.73217 -1.43873 0.00674364 
144 1 1 0.0427999 -0.0249111 0.00610227 0 0 0 0.012083 0.00365448 0.0163736 -0.0108108 -0.00363756 -0.111936 -1.19237 2.47146 0.401598 0.00674364 
102 1 1 -0.0404744 -0.0169687 0.00911383 0 0 0 0.00640311 0.010388 0.00461297 -0.225529 -0.032808 -0.12613 -0.168698 0.189125 -0.788344 0.0107898 
328 1 1 -0.0253881 -0.0152385 0.00552186 0 0 0 0.0122379 0.00613443 -0.0204681 -0.0722998 0.139498 0.0674036 -0.845571 4.67335 0.44068 0.00674364 
267 1 1 0.0154298 -0.020046 0.00586634 0 0 0 -0.0181725 0.00901804 -0.0431447 -0.0474214 0.0778786 0.0702413 -3.65756 -2.17725 3.07342 0.00674364 
202 1 1 0.0450196 -0.0129883 0.00624253 0 0 0 0.00766005 0.00421107 -0.0111221 -0.00921068 0.015299 -0.00812052 -2.40395 -0.77306 -0.18238 0.00674364 
257 1 1 -0.0441142 -0.00110126 0.00628527 0 0 0 -0.000951074 0.0111379 0.00890557 -0.00718928 -0.0258003 -0.0509522 0.471104 -1.15277 2.06827 0.00674364 
268 1 1 -0.0325518 0.00361962 0.00632289 0 0 0 -0.00175657 0.015088 0.0172064 -0.0735721 -0.000107961 -0.106787 -2.40165 -0.807799 -1.31226 0.00674364 
274 1 1 -0.0219265 -0.00389361 0.00789874 0 0 0 0.025612 0.0188305 -0.0322946 -0.148404 0.169962 0.150612 1.67321 10.3209 0.812203 0.00674364 
164 1 1 0.0204634 0.0016115 0.005608 0 0 0 -0.0128796 0.0208723 0.0404672 0.113604 0.0109643 -0.0487714 2.41661 4.40825 1.40609 0.00674364 
232 1 1 -0.0433697 0.0117907 0.00632922 0 0 0 0.00406534 0.0122806 0.0153026 -0.0414661 0.000370922 -0.0597615 -0.495798 0.12633 -1.61504 0.00674364 
171 1 1 -0.02101 0.00791997 0.00846422 0 0 0 -0.00700313 0.0286915 0.0155907 -0.0349542 0.0346377 0.0133798 5.28374 1.9746 5.11739 0.00674364 
297 1 1 -0.0251667 0.0193857 0.00575881 0 0 0 -0.0345019 0.0266502 0.0114697 0.0325392 -0.0130298 -0.0666185 -4.71973 -2.37315 -1.84503 0.00674364 
222 1 1 -0.0107587 0.014553 0.00568021 0 0 0 -0.0208998 0.0312809 0.0117054 0.0602962 -0.0119335 0.0305694 -5.67152 0.283671 -0.0924655 0.00674364 
290 1 1 -0.000749163 0.0213954 0.00542325 0 0 0 -0.0367557 0.0252261 -0.0216749 0.0297145 -0.0476292 0.162256 -2.01412 -4.72012 1.94165 0.00674364 
316 1 1 0.0322107 0.0195553 0.00528454 0 0 0 -0.000168593 -0.00738443 -0.00534264 -0.0416322 0.0523464 -0.0110327 3.08796 1.36413 1.47148 0.00674364 
162 1 1 0.0445263 0.020135 0.00561586 0 0 0 0.00782331 -0.00355762 -0.00641749 -0.0302386 0.0265247 0.0249851 1.26983 0.157253 1.13939 0.00674364 
294 1 1 -0.0438511 0.0251584 0.0062039 0 0 0 0.000524059 0.00952028 0.00918346 -0.0616467 0.00866983 -0.0464723 -2.76467 -0.106843 1.4755 0.00674364 
175 1 1 -0.0327762 0.0313705 0.00614463 0 0 0 -0.0042372 0.00230423 0.000561435 -0.0913126 -3.9859e-05 0.0251596 -0.292114 -1.25302 -2.07538 0.00674364 
255 1 1 -0.0147984 0.026025 0.0059951 0 0 0 -0.0271021 0.0225233 -0.00647682 -0.0603007 0.0100683 0.00365449 -2.17373 -1.70085 -0.275418 0.00674364 
155 1 1 0.0375271 0.0310387 0.00580185 0 0 0 -0.00158343 -0.00540629 0.00650831 -0.001338 0.0107407 -0.0261729 0.63014 1.36003 -0.488025 0.00674364 
324 1 1 -0.00335716 0.0326299 0.0057291 0 0 0 -0.0194575 0.00883057 -0.0088882 -0.000528959 -0.034238 -0.0175725 1.895 -1.54576 -2.07115 0.00674364 
161 1 1 0.00823113 0.0320373 0.00667996 0 0 0 -0.0077836 0.0151317 -0.0155577 -0.0118526 0.0181221 -0.176591 -8.20701 3.23154 2.12494 0.00674364 
321 1 1 -0.0439495 0.0437705 0.00630451 0 0 0 -0.00429848 0.0025522 -0.000686199 0.00375313 0.00313429 0.0349198 -0.371321 -0.573292 -0.583543 0.00674364 
207 1 1 -0.031413 0.0438822 0.00634079 0 0 0 -0.00151296 0.00690385 -0.00187079 -0.0163466 0.0047064 -0.00329953 -0.40507 0.595094 1.42275 0.00674364 
149 1 1 0.0119449 0.0438056 0.0055661 0 0 0 -0.0106342 0.00392134 -0.0143612 -0.0237717 0.0401777 -0.101106 2.21009 -4.07474 -0.920928 0.00674364 
249 1 1 0.0276023 0.0440015 0.00628319 0 0 0 0.00216323 0.00641354 8.43746e-05 0.0716226 0.0446134 -0.0462257 -0.979975 -2.16002 1.28206 0.00674364 
289 1 1 0.0442304 0.0420573 0.00601423 0 0 0 -0.00786813 -0.00321996 -0.000949328 0.0545114 -0.0413023 0.081152 -0.149412 -1.01942 1.203 0.00674364 
299 1 1 -0.0245009 -0.0449099 0.016867 0 0 0 -0.0203758 -0.008017 0.00212836 -0.0222467 0.0175011 0.0124381 0.427324 -1.17168 2.2998 0.00674364 
225 1 1 -0.0115829 -0.0440901 0.018685 0 0 0 -0.0105917 0.00542006 0.0172154 -0.028848 0.0263542 -0.0240804 1.26096 -3.60733 3.47467 0.00674364 
130 1 1 0.020811 -0.0441498 0.0181425 0 0 0 0.0287824 0.0120892 0.00191855 0.0482422 0.0536026 -0.0200053 -0.316255 4.9419 -5.45313 0.00674364 
74 1 1 -0.0406941 -0.0365748 0.0096832 0 0 0 -0.00538075 0.000745909 0.00234389 -0.112247 0.0683869 -0.0909526 0.0265571 -0.0819802 -0.0155932 0.0107898 
60 1 1 0.0105044 -0.035936 0.00959582 0 0 0 0.0120608 0.00452189 0.0180015 -0.0695259 0.168763 0.0426554 -2.72641 2.86009 1.87894 0.0107898 
78 1 1 0.0411808 -0.0407244 0.0093543 0 0 0 0.00421473 -0.0016213 0.0133558 0.0455126 -0.000703347 -0.375548 1.40378 0.83258 -0.14633 0.0107898 
67 1 1 0.027721 -0.0280361 0.0128198 0 0 0 0.000467659 0.0033896 0.00199735 0.249081 -0.0889092 -0.495612 -0.696016 -3.69112 -0.907911 0.0107898 
40 1 1 -0.0106463 -0.0158458 0.010729 0 0 0 0.00280179 0.000120276 -0.00819118 -0.240822 0.54487 -0.0899155 -0.147409 -6.06269 -1.69999 0.0107898 
279 1 1 0.00437618 -0.0207739 0.0110808 0 0 0 -0.023416 -0.00318847 -0.0142501 -0.0823669 0.094274 -0.0696904 -3.98728 6.39235 3.77995 0.00674364 
96 1 1 0.0118651 -0.0072985 0.0161589 0 0 0 0.00411265 -0.0188452 0.0112301 0.0375824 0.834288 0.157071 10.1656 2.28203 -5.30827 0.0107898 
50 1 1 0.0304565 -0.0092384 0.00988231 0 0 0 0.00759106 -0.00457607 -0.0174149 -0.0134523 -0.0611103 0.0405735 0.901594 0.851985 0.597482 0.0107898 
183 1 1 0.0445585 -0.00703064 0.0175744 0 0 0 0.00702533 -0.00677385 -0.00992659 -0.0124388 0.0371009 -0.0307944 3.16831 -1.14974 0.432644 0.00674364 
17 1 1 -0.00516457 0.0025728 0.0144998 0 0 0 -0.00814562 0.0481563 0.0529586 0.709556 0.232249 0.420418 0.987348 -2.61282 1.43283 0.0107898 
98 1 1 0.0121427 0.0134131 0.00995879 0 0 0 -0.0386933 0.0621974 0.0365756 0.592895 -0.179103 0.202779 -7.3292 -1.57881 -1.50077 0.0107898 
94 1 1 0.0383505 0.00828491 0.0137457 0 0 0 0.0117643 -0.0104774 -0.0186367 -0.107793 0.0773135 0.189074 -0.863048 -2.85016 0.335804 0.0107898 
300 1 1 -0.0444543 0.018789 0.0171223 0 0 0 -0.0165725 0.011217 0.0316529 -0.0731646 -0.0595212 -0.18727 2.88407 -4.25339 1.08139 0.00674364 
273 1 1 -0.0324237 0.0186475 0.0157578 0 0 0 -0.0340409 0.0371633 0.0359253 -0.0657294 -0.140734 -0.223624 3.42429 3.44409 -0.795033 0.00674364 
286 1 1 -0.00157508 0.0184475 0.0170263 0 0 0 -0.0709927 0.106611 -0.0093306 0.224557 -0.249477 0.274755 -13.111 1.40699 11.5044 0.00674364 
320 1 1 0.00409514 0.0294055 0.0186522 0 0 0 -0.0788933 0.128235 -0.069738 0.0167269 -0.0191365 -0.22161 -0.282081 -14.2047 -25.7458 0.00674364 
77 1 1 0.022615 0.0295259 0.0125651 0 0 0 -0.0142036 0.0211632 0.000885104 0.00557272 0.39602 -0.646755 -0.377555 -2.69424 -2.90551 0.0107898 
284 1 1 0.0445191 0.0273806 0.0157065 0 0 0 -0.00337657 -0.0115601 0.00275285 0.000324337 -0.0620778 0.0388245 0.693374 -0.682859 2.04528 0.00674364 
305 1 1 -0.0435888 0.0346066 0.0153916 0 0 0 -0.0108061 0.0153823 0.000324367 -0.0890546 -0.0655096 0.0704564 -0.250064 -0.409591 1.4403 0.00674364 
38 1 1 -0.0153956 0.0414189 0.00972238 0 0 0 -0.0113502 0.013282 -0.00635228 -0.259142 -0.0857146 0.0346253 0.255291 -0.620384 -1.17971 0.0107898 
237 1 1 0.000960527 0.0437093 0.0120225 0 0 0 -0.00678665 -0.00444838 -0.0197311 -6.23677e-05 -0.0167516 -0.0532405 2.93254 4.17778 -0.930201 0.00674364 
239 1 1 0.0187198 0.044641 0.0155916 0 0 0 0.00312361 0.0147877 -0.00395442 0.00290878 0.0801315 -0.150617 -1.10765 4.11527 1.07844 0.00674364 
331 1 1 -0.0431008 -0.0453215 0.0218684 0 0 0 -0.0109192 -0.00455918 0.00264148 -0.0306837 0.0174833 -0.0194364 0.396901 -1.13231 0.967276 0.00674364 
242 1 1 0.000983051 -0.0444863 0.0196614 0 0 0 0.0229047 0.00173376 0.0440182 -0.0451957 0.0456138 0.00696267 6.32396 1.23392 -4.67323 0.00674364 
167 1 1 0.0319217 -0.0441699 0.0228645 0 0 0 0.00198448 0.000438636 -0.00252733 0.061259 -0.0132677 -0.0271408 -3.44802 -4.91774 0.397782 0.00674364 
136 1 1 0.0441806 -0.044594 0.0241754 0 0 0 -0.000278919 -0.00221347 0.0123627 0.0336333 -0.0198847 -0.0213065 -0.226037 0.177376 0.437379 0.00674364 
180 1 1 -0.044046 -0.0337811 0.0265741 0 0 0 -0.00884464 0.00106455 0.00385797 -0.0423941 0.0137556 -0.0267506 -0.705792 -0.359432 -0.825171 0.00674364 
256 1 1 -0.0326006 -0.0398304 0.025601 0 0 0 -0.0255742 -0.00458744 0.0111031 -0.066654 0.0719168 -0.010133 0.933621 0.684598 0.637113 0.00674364 
179 1 1 -0.0344476 -0.0260354 0.0213214 0 0 0 -0.00997418 0.0135773 0.00394781 -0.0671639 0.00126037 -0.0628572 -0.950393 -0.0185413 0.311716 0.00674364 
7 1 1 -0.0199103 -0.0302563 0.0211658 0 0 0 -0.0312354 -0.00132792 -0.00484769 -0.192821 0.157837 -0.153666 -1.90672 0.642843 -1.45379 0.0107898 
104 1 1 -0.000135071 -0.028511 0.0247592 0 0 0 -0.0259288 0.0198227 0.00918968 0.14196 0.384355 0.059451 -5.7224 -4.36169 6.68635 0.0107898 
128 1 1 -0.0448542 -0.0216544 0.0238416 0 0 0 -0.00371113 0.00397691 0.000833875 -0.0299152 0.0131461 -0.0199676 0.976585 -0.320266 0.317438 0.00674364 
278 1 1 0.0329263 -0.0163367 0.024197 0 0 0 0.0239486 -0.010314 -0.0172704 0.0736614 -0.133526 0.0313456 -2.89453 0.6017 0.00802848 0.00674364 
146 1 1 -0.0447042 -0.00924465 0.0224748 0 0 0 0.00762198 0.00393752 0.0273622 -0.018606 -0.0916498 -0.125795 3.92513 -3.58519 -1.40159 0.00674364 
19 1 1 -0.026187 -0.0119576 0.0275581 0 0 0 0.00807317 0.0310643 0.0017147 0.106206 -0.172491 -0.666528 1.96558 0.106815 -2.3057 0.0107898 
258 1 1 0.00104061 -0.0123406 0.0274813 0 0 0 0.00055064 -0.0220284 0.0103696 0.0576825 0.272394 0.0456863 13.7749 6.88488 -18.6266 0.00674364 
25 1 1 -0.0374526 0.00475688 0.0226903 0 0 0 2.21829e-05 0.0230705 0.0328075 -0.416129 -0.975999 -1.41222 -0.667265 2.55038 3.01345 0.0107898 
28 1 1 -0.0166154 0.0182463 0.0205899 0 0 0 -0.0319182 0.0523161 0.0204397 -0.0200475 -0.589755 -0.167175 -0.853565 0.746352 3.44421 0.0107898 
261 1 1 0.0432018 0.0176323 0.0269962 0 0 0 0.00550048 0.000222633 -0.0138945 -0.0478839 0.0118433 0.0534815 -1.23616 -2.27109 -6.37201 0.00674364 
246 1 1 -0.0441333 0.0260653 0.0275825 0 0 0 -0.00717288 0.00134824 0.0268697 -0.028475 -0.122201 -0.158513 -4.97853 -0.996707 -2.46246 0.00674364 
23 1 1 -0.0279754 0.0333749 0.0219112 0 0 0 -0.0213072 0.0368164 0.00432404 -0.39397 -0.792113 0.174198 -3.00427 0.323231 0.247118 0.0107898 
61 1 1 0.0369615 0.0407823 0.0205256 0 0 0 -0.0120137 -0.00432425 0.0110305 -0.0970644 -0.256692 0.225758 -0.0509096 1.12289 -1.13901 0.0107898 
323 1 1 -0.008452 0.0441454 0.0265851 0 0 0 0.109585 0.0535457 0.0194635 -0.0527284 -0.124962 -0.0912211 -3.23284 -89.5533 17.1922 0.00674364 
224 1 1 -0.0437334 -0.0443327 0.0342644 0 0 0 -0.00297592 -0.000541556 0.00387781 -0.0207988 0.0199708 -0.0276742 0.105708 1.14215 0.271004 0.00674364 
125 1 1 0.0437844 -0.0439689 0.036996 0 0 0 -0.00808955 -0.00328605 0.0111496 0.0436177 -0.0559077 0.00403599 1.10105 -0.173544 0.729975 0.00674364 
42 1 1 -0.0119534 -0.040637 0.0355603 0 0 0 -0.0234461 -0.00332619 0.00964509 -0.316635 0.0787371 -0.0897994 0.943363 0.401376 0.368101 0.0107898 
271 1 1 0.0313157 -0.0406283 0.0344018 0 0 0 -0.0287915 0.0177788 0.00610791 0.0954429 -0.153812 -0.00959473 3.28886 -0.69347 -3.61268 0.00674364 
120 1 1 0.0408034 -0.0295985 0.029097 0 0 0 -0.00393167 0.00523764 0.01758 0.405583 -0.502866 -0.235259 0.165131 1.92312 -0.745879 0.0107898 
178 1 1 -0.0125317 -0.0206116 0.0320956 0 0 0 -0.0214376 0.00307867 -0.0090613 0.00593223 0.0239215 -0.0065817 2.30148 1.54488 -4.58234 0.00674364 
51 1 1 0.0185087 -0.0226888 0.030274 0 0 0 0.0195654 0.00845453 0.000259895 0.400345 0.0787044 -0.0725328 0.0650607 3.8107 -9.166 0.0107898 
134 1 1 0.0439516 -0.0143981 0.0326586 0 0 0 0.0103218 0.00272194 0.0149717 0.0712465 -0.0789021 -0.0398416 0.266573 2.07547 -0.600891 0.00674364 
310 1 1 -0.0103632 -0.00893429 0.0300047 0 0 0 0.023282 0.0195878 0.0326012 0.0622662 -0.119543 -0.0838045 2.39085 -6.40967 1.8122 0.00674364 
18 1 1 0.0121857 -0.00458305 0.0367979 0 0 0 0.0595561 -0.0934152 0.0257625 -0.404697 2.76472 -0.790775 4.15033 4.08287 9.16799 0.0107898 
184 1 1 0.0276007 -0.0082216 0.0329262 0 0 0 0.0744248 -0.0283014 -0.0144605 -0.0497495 0.175233 -0.00179646 5.32491 2.14401 2.74421 0.00674364 
160 1 1 -0.00250713 0.000653946 0.0310425 0 0 0 0.00245597 0.0054631 0.0478116 0.0750696 -0.115817 -0.09861 0.536037 2.60189 -2.07404 0.00674364 
55 1 1 0.0405464 0.0014454 0.0323027 0 0 0 -0.00150994 -0.00226443 -0.00210232 0.191414 -0.390202 -0.0211885 -1.08659 -0.298485 2.28701 0.0107898 
112 1 1 -0.0177529 0.00465603 0.035251 0 0 0 0.0180439 -0.00165746 0.00373513 0.0905439 -0.989833 -0.820638 1.51581 -2.15193 1.04874 0.0107898 
2 1 1 -0.0314376 0.0195456 0.0355019 0 0 0 0.000807673 -0.0513799 -0.00900184 -0.969617 -1.55845 -1.62262 7.29919 2.19888 -1.4656 0.0107898 
100 1 1 0.00659881 0.0140399 0.0299502 0 0 0 -0.0556461 0.0820305 0.0309224 1.057 -3.09783 0.245782 4.36826 -2.46022 -2.62335 0.0107898 
69 1 1 -0.00648632 0.029644 0.0341815 0 0 0 -0.0257683 0.0819706 0.021742 0.354996 -1.28375 -0.76424 3.76597 7.71787 -1.01514 0.0107898 
108 1 1 0.0262796 0.0288296 0.03271 0 0 0 -0.0506367 -0.00135806 0.00134649 -0.39171 -0.248827 -0.691299 2.05229 -3.24141 -1.92812 0.0107898 
16 1 1 0.0105516 0.0406971 0.0290777 0 0 0 -0.0309745 0.0409987 -0.0302284 0.0302007 0.0989583 -1.59929 0.133268 -5.39215 -2.84289 0.0107898 
9 1 1 -0.0407615 0.0416148 0.0323844 0 0 0 -0.00601508 0.0160144 -0.00245084 -0.171771 -0.357239 0.462445 0.300078 1.53883 1.68109 0.0107898 
329 1 1 -0.0241048 -0.0446566 0.0452362 0 0 0 -0.018455 -0.0069364 0.0142049 -0.0850387 -0.041763 -0.0232268 1.13298 2.15529 1.47243 0.00674364 
168 1 1 0.00177187 -0.0448037 0.0401383 0 0 0 -0.026242 0.000182349 0.0067857 -0.00521856 -0.00930025 -0.0897522 -0.22915 -2.63421 2.81818 0.00674364 
283 1 1 0.030921 -0.0444085 0.0459215 0 0 0 -0.0109766 -0.00441674 9.8498e-05 0.0119156 -0.0886771 0.015315 0.919913 2.74735 -1.04725 0.00674364 
211 1 1 -0.0437275 -0.0330914 0.0392109 0 0 0 -0.00332466 0.00793668 0.00495231 -0.0292363 0.0380661 -0.0418202 -0.459129 -0.125764 0.515541 0.00674364 
191 1 1 0.00295379 -0.0322097 0.0407203 0 0 0 -0.0367482 0.00733432 0.0257097 0.0173406 -0.0524802 -0.00960005 6.86782 0.465131 -2.24846 0.00674364 
3 1 1 0.016564 -0.0407153 0.0393951 0 0 0 -0.0320972 0.0142611 0.0151685 0.13462 -0.417577 -0.26185 0.906375 1.21767 0.880695 0.0107898 
93 1 1 -0.0269839 -0.0292026 0.0420554 0 0 0 -0.0126635 0.0108997 0.0192973 -0.334836 -0.0252763 -0.0450655 0.202592 -0.680281 -1.85547 0.0107898 
105 1 1 0.030257 -0.0279875 0.0466285 0 0 0 0.0182562 -0.0167052 0.0220534 -0.189009 -0.261903 -0.145256 0.816914 -0.451208 -1.37073 0.0107898 
66 1 1 -0.0414498 -0.0169235 0.0389703 0 0 0 -0.0126335 0.012797 -0.00217605 -0.0185013 0.141484 0.076986 -1.00536 -0.772902 2.04071 0.0107898 
336 1 1 -0.0247363 -0.0120805 0.0449727 0 0 0 -0.0282069 0.014665 0.0412451 0.0715106 0.0284455 0.0102391 -1.80392 -0.473884 4.96016 0.00674364 
245 1 1 -0.000231891 -0.0119035 0.0427724 0 0 0 0.0638816 -0.0973073 0.0224001 -0.160405 0.327569 0.109152 -11.8486 -11.3826 -13.5683 0.00674364 
259 1 1 0.0240592 -0.0132268 0.0439434 0 0 0 0.0689728 -0.0410016 -0.00684841 -0.177066 0.324881 0.0543854 -4.67216 -6.39878 -2.92945 0.00674364 
107 1 1 -0.0379585 0.00203913 0.0432632 0 0 0 -0.0131053 -0.0102626 0.00451074 -0.326246 -0.156274 -0.435702 0.48121 -2.74833 -3.55557 0.0107898 
95 1 1 0.023906 0.0110117 0.039234 0 0 0 -0.0398442 -0.0257785 0.00753543 -0.0171112 -0.0833809 -0.313234 0.723405 4.09388 1.46597 0.0107898 
208 1 1 -0.0445303 0.0168155 0.0449566 0 0 0 -0.00880513 -0.0241507 -0.0277981 -0.105553 -0.0659957 -0.428597 -18.14 3.09567 4.70334 0.00674364 
282 1 1 -0.0180315 0.0183713 0.0444515 0 0 0 -0.0111028 -0.0917407 0.0295494 -0.229815 -0.0644781 -0.236729 7.67363 -6.14413 10.3585 0.00674364 
58 1 1 0.0409405 0.0199223 0.0435696 0 0 0 -0.0129219 -0.0234729 0.00312247 -0.540615 -0.134327 0.254386 2.48352 1.54717 0.413999 0.0107898 
199 1 1 -0.0445873 0.028463 0.0409205 0 0 0 -0.0515252 -0.083891 -0.0450644 -0.0750201 -0.129591 -0.272474 20.6638 -8.6512 -9.08213 0.00674364 
73 1 1 0.0109156 0.0279352 0.0458797 0 0 0 -0.0586779 0.0413689 -0.090571 0.401041 0.304917 -0.365554 -4.61048 5.9145 -0.841386 0.0107898 
114 1 1 0.0400981 0.0406335 0.040682 0 0 0 0.00830179 -0.00382884 0.0115794 -0.58847 0.01705 0.216788 -2.0073 3.25451 -0.43994 0.0107898 
126 1 1 -0.0113663 0.0441674 0.0466764 0 0 0 0.0493216 0.00668431 -0.180943 0.0742387 0.087092 -0.800606 30.9408 -30.9425 15.0373 0.00674364 
248 1 1 0.000214369 0.0430451 0.0422954 0 0 0 0.006026 0.123505 -0.0305166 0.479179 0.150863 -0.590204 -9.66979 6.32663 -1.28451 0.00674364 
229 1 1 0.0124838 0.0443256 0.0454904 0 0 0 -0.0271044 0.0500291 -0.089691 0.314842 -0.0655946 0.191134 7.80722 9.3956 -3.48058 0.00674364 
314 1 1 -0.0173881 -0.0443452 0.0556108 0 0 0 -0.00332176 -0.0100225 0.00536641 -0.0342789 -0.0603582 0.00938312 0.099765 -0.319823 -0.617286 0.00674364 
265 1 1 0.0219462 -0.0436519 0.0551982 0 0 0 -0.00468659 -0.00999125 0.00974557 0.0152943 -0.0331582 0.0031986 2.66894 1.19168 1.42368 0.00674364 
84 1 1 -0.0409688 -0.0328672 0.0553289 0 0 0 -0.00609735 -0.00231314 0.00459112 -0.181558 0.110469 -0.135448 1.91039 -0.0339347 1.00889 0.0107898 
337 1 1 -0.00603638 -0.0405763 0.0515423 0 0 0 -0.00834769 -0.0135474 -0.00134865 -0.0371419 -0.0801209 -0.0136967 2.06085 3.20103 2.08969 0.00674364 
43 1 1 -0.00875257 -0.0241469 0.0478227 0 0 0 -0.0183847 -0.0164562 0.0243022 -0.201643 -0.549885 0.389838 0.156097 -0.122363 -1.13163 0.0107898 
326 1 1 0.0445759 -0.0254118 0.0534446 0 0 0 0.0208511 -0.0106359 0.017269 -0.0364586 -0.0448232 0.0144942 1.36983 1.78463 -0.0227252 0.00674364 
52 1 1 0.0113171 -0.0221311 0.0505886 0 0 0 0.00331399 -0.0320465 0.0152394 -0.0881214 -0.130961 0.470011 -0.216595 1.77188 1.13458 0.0107898 
220 1 1 -0.0436044 -0.00963673 0.0542152 0 0 0 -0.0283325 -0.00729822 -0.0153361 0.0175484 0.0852361 0.0325732 2.78015 2.43169 1.85953 0.00674364 
240 1 1 0.0171908 -0.00755276 0.055242 0 0 0 0.00201354 -0.03255 -0.0094468 0.00747484 -0.00481989 -0.0024728 -0.335506 4.50571 -1.92724 0.00674364 
5 1 1 0.0403449 -0.0106996 0.0487738 0 0 0 0.0239534 -0.00427514 0.02328 -0.0853748 -0.274465 0.0988063 -0.746426 1.10477 1.12128 0.0107898 
133 1 1 -0.0270593 -0.00265992 0.0560335 0 0 0 -0.0124995 -0.0278454 0.0110463 0.178973 0.189497 -0.0884598 -2.58195 0.261029 4.49167 0.00674364 
24 1 1 -0.010187 -0.00381018 0.052722 0 0 0 0.030589 0.0107385 -0.0246852 0.593825 -0.50113 -0.205185 -3.39918 1.48987 1.66965 0.0107898 
303 1 1 0.0268204 -0.00152833 0.0492131 0 0 0 -0.00157272 -0.035807 -0.00286297 -0.0377572 0.0220402 0.0334578 1.74353 -8.72962 6.0531 0.00674364 
236 1 1 -0.0234396 0.00813207 0.0506227 0 0 0 -0.00713737 -0.0291533 0.00133598 0.0120789 0.460321 -0.274049 -6.55024 -0.611811 -3.16994 0.00674364 
15 1 1 0.0136478 0.00806355 0.0562779 0 0 0 -0.000114587 -0.0151769 -0.000932863 0.019101 0.220355 -0.0891455 -1.3125 -1.57536 1.04525 0.0107898 
298 1 1 0.0300594 0.013477 0.055275 0 0 0 -0.00937281 -0.0120828 0.0128506 -0.0426428 -0.160972 -0.0622898 -2.78757 -0.999154 1.6079 0.00674364 
318 1 1 0.0442367 0.00472776 0.0485117 0 0 0 0.00383123 -0.00407437 0.00210741 -0.0109034 -0.0638625 0.0101109 -1.5127 0.652149 1.01528 0.00674364 
335 1 1 -0.0340493 0.0157864 0.0525766 0 0 0 0.044261 0.0350387 -0.0154168 0.129911 0.723441 -0.422202 -7.44194 -1.4706 -10.7939 0.00674364 
4 1 1 -0.003488 0.014478 0.0481767 0 0 0 -0.0139191 0.0158737 -0.00579001 0.148415 -0.398626 -0.114042 4.6777 2.56582 1.66937 0.0107898 
262 1 1 -0.0372939 0.028289 0.0507941 0 0 0 0.014167 0.00895659 -0.307727 -0.187873 0.467329 0.350703 -57.4915 47.3132 19.7331 0.00674364 
192 1 1 -0.025284 0.0269727 0.0482195 0 0 0 0.0335808 0.00834872 -0.384495 -0.41362 0.437424 0.571078 -83.6345 -10.7343 -12.6836 0.00674364 
122 1 1 -0.0273552 0.0406351 0.055935 0 0 0 0.0197659 0.0349475 -0.52146 -2.34417 -0.497528 8.03859 50.6082 -4.65629 0.340212 0.0107898 
292 1 1 -0.0143628 0.0323488 0.048872 0 0 0 0.054229 -0.00663897 -0.300735 -0.465459 -0.104626 0.386908 -16.1159 -49.0449 -2.23797 0.00674364 
47 1 1 0.0243722 0.0399024 0.0559484 0 0 0 0.0283922 -0.00808119 -0.205231 1.06672 0.12466 4.5167 11.0406 4.16415 0.284823 0.0107898 
327 1 1 -0.0432952 0.0432746 0.0495923 0 0 0 -0.0266149 0.00658224 -0.104352 -0.188229 0.346469 -0.38619 1.81219 14.5237 2.20664 0.00674364 
190 1 1 -0.00846058 -0.0439844 0.0644363 0 0 0 -0.00988402 0.00204765 -0.00108876 0.0103515 -0.0525135 -0.0237374 -0.617329 2.05761 1.94039 0.00674364 
307 1 1 -0.0194822 -0.0322182 0.0570504 0 0 0 -0.0018753 -0.00767557 0.0133824 -0.120542 -0.152041 -0.0187999 0.200935 2.49834 -0.493034 0.00674364 
56 1 1 0.00698563 -0.039236 0.0618377 0 0 0 -0.00903804 -0.00865223 -0.00570566 0.0972814 -0.20151 0.200586 -2.23965 -2.05272 -1.89133 0.0107898 
49 1 1 0.0405415 -0.0406267 0.0580839 0 0 0 0.00625844 -0.0113369 0.00236938 0.039471 -0.194117 0.0895396 0.223705 -0.0697852 0.025867 0.0107898 
137 1 1 -0.00227277 -0.0229593 0.0633633 0 0 0 -0.0170064 -0.00576796 -0.0162667 -0.00108774 -0.125638 0.0623785 -0.942779 2.55919 4.87042 0.00674364 
81 1 1 -0.0216106 -0.0169459 0.0622686 0 0 0 0.0142989 -0.00673778 0.00967252 0.0957296 -0.538007 -0.475909 1.24514 -1.9222 -0.321447 0.0107898 
332 1 1 0.0266396 -0.0152804 0.0564204 0 0 0 0.00724265 -0.0187433 0.00696487 -0.0140234 -0.0552837 -0.00910723 0.00756658 -6.206 2.96764 0.00674364 
217 1 1 0.0443998 -0.0150389 0.0643161 0 0 0 0.0142906 0.00267455 0.0090544 -0.0143374 -0.00315524 0.0476684 2.16376 -0.936358 -0.624578 0.00674364 
32 1 1 -0.0398628 0.00447665 0.0636524 0 0 0 -0.038374 -0.0152311 0.00164518 0.459279 0.298942 -0.153387 0.978816 -0.00732217 -0.607774 0.0107898 
148 1 1 0.0443052 -0.0024548 0.0633545 0 0 0 0.00857302 0.0111454 0.0108956 -0.00038697 0.0449962 -0.0448273 -1.62119 -0.120435 0.0426304 0.00674364 
291 1 1 0.0436769 0.0124005 0.058717 0 0 0 0.0116798 -0.0277175 0.0373985 0.016841 -0.13366 0.071435 5.6784 4.08849 3.38347 0.00674364 
117 1 1 -0.0210974 0.0197026 0.0627812 0 0 0 0.0154682 0.0398987 0.0102789 0.670089 2.96684 -0.99826 8.58352 0.0578128 -1.6912 0.0107898 
140 1 1 0.00940704 0.0206632 0.0651292 0 0 0 0.0319025 0.00773076 0.000813907 0.0686636 0.153623 -0.0286222 0.224143 4.71818 -4.13237 0.00674364 
99 1 1 -0.00353715 0.030017 0.0613664 0 0 0 -0.0189937 0.0147523 0.0207681 -0.0498051 1.04287 -0.128735 1.07449 4.83605 2.80964 0.0107898 
266 1 1 0.0216193 0.0231735 0.0586532 0 0 0 -0.00342525 0.0554634 -0.118676 0.165348 -0.214998 0.0658924 -30.9479 -3.31247 -7.03281 0.00674364 
106 1 1 0.0401366 0.0284194 0.0624179 0 0 0 -0.03859 0.0244804 -0.0276898 0.310212 -0.120689 0.539753 -13.4808 -8.2273 1.21604 0.0107898 
174 1 1 -0.043298 0.0433174 0.0634029 0 0 0 0.0243585 -0.0142705 0.00794315 0.0397625 -0.12245 -0.0488617 -3.38541 4.54775 -0.420814 0.00674364 
315 1 1 -0.0116883 0.0440956 0.0643107 0 0 0 -0.0181047 0.00480674 0.0586907 -0.0695936 0.132527 0.173242 -9.04998 15.5116 -1.74251 0.00674364 
158 1 1 0.00288017 0.0446067 0.0613917 0 0 0 -0.0248373 0.00826872 -0.0471643 -0.103486 0.156694 -0.0027299 7.43915 40.2861 -4.66181 0.00674364 
203 1 1 0.0419013 0.0440291 0.0568836 0 0 0 -0.0278353 0.0123852 -0.0204713 0.195962 0.0297138 -0.114078 5.27314 -18.4095 0.370268 0.00674364 
189 1 1 0.0267814 -0.0440126 0.067201 0 0 0 -0.00365774 -0.0124483 -0.00479835 0.0276899 -0.0295409 0.0523223 -1.36178 -1.8021 0.551847 0.00674364 
186 1 1 0.043691 -0.0441093 0.073789 0 0 0 0.00262239 -0.0048601 -0.000542568 0.0153554 -0.00950589 0.0043258 -0.881908 -0.0960163 0.126094 0.00674364 
6 1 1 -0.0272244 -0.0405962 0.0684304 0 0 0 0.0033333 -0.00764942 0.00323588 -0.143187 -0.196034 -0.024504 0.307392 -0.567713 0.00228436 0.0107898 
313 1 1 -0.0117047 -0.0314181 0.0679667 0 0 0 -0.00495988 0.00493927 0.0128223 0.0039159 -0.0368672 -0.12158 -0.022374 -4.52139 -1.76843 0.00674364 
227 1 1 0.00761725 -0.0253284 0.0717864 0 0 0 -0.00935911 -0.00143018 -0.020663 0.0270542 -0.0193422 0.0644515 3.25535 -2.68273 -1.19812 0.00674364 
91 1 1 0.0234627 -0.0276897 0.0662862 0 0 0 0.00521908 -0.016777 -0.0173579 0.0952569 -0.13011 0.473492 -0.526844 0.513038 -0.80041 0.0107898 
247 1 1 0.0398907 -0.0263107 0.0680254 0 0 0 0.0125263 -0.00866091 -0.0153379 0.0187289 -0.00978385 0.0315896 -0.166322 -0.941587 1.14393 0.00674364 
36 1 1 -0.04054 -0.017327 0.0689963 0 0 0 -0.00398591 -0.00782975 -0.0154224 0.0198923 0.194297 0.0780605 -2.21018 0.826612 -0.579907 0.0107898 
215 1 1 0.0331635 -0.0150608 0.0704459 0 0 0 0.00214028 -0.00323225 -0.00655462 0.0512075 0.0340309 0.0831863 1.90821 -2.18253 1.14029 0.00674364 
10 1 1 0.00495377 -0.00793449 0.0663961 0 0 0 0.00258226 -0.0169479 -0.0118996 0.321481 0.0245279 -0.279763 3.0028 -0.867952 -3.42125 0.0107898 
276 1 1 0.0201084 -0.0125177 0.0720114 0 0 0 -0.0018018 -0.0291651 -0.0121221 0.0477139 0.0313948 0.0789747 3.36869 -0.923929 4.32003 0.00674364 
182 1 1 -0.0290644 -0.00400353 0.0734671 0 0 0 -0.0350333 0.0149515 -0.0296003 0.0353195 -0.0732604 0.247385 -2.50377 6.094 3.42727 0.00674364 
197 1 1 -0.0190284 0.00204473 0.0658262 0 0 0 0.0216337 0.0425441 -0.0168923 0.110678 -0.382696 0.0013819 0.769661 -0.257162 6.42419 0.00674364 
87 1 1 0.0289819 0.000690675 0.0669962 0 0 0 -0.00622622 0.0103057 0.00511393 -0.0314092 0.315743 -0.368059 -0.421886 -0.164537 0.525682 0.0107898 
115 1 1 -0.00362035 0.0104341 0.0685155 0 0 0 0.0165324 -0.0135318 0.00775862 0.14604 0.788371 -0.452548 -0.648033 0.112322 0.290398 0.0107898 
338 1 1 0.0427643 0.00859332 0.0716941 0 0 0 0.02119 -0.0184239 -0.00765802 -0.0663671 0.109644 -0.0566563 -4.54788 0.315196 -6.74677 0.00674364 
45 1 1 0.026475 0.0196347 0.0749299 0 0 0 0.0131839 0.0294159 0.0767746 -0.309635 0.259291 -0.984337 12.0723 7.34741 -1.13905 0.0107898 
39 1 1 -0.0405863 0.0236845 0.0663809 0 0 0 0.0749082 0.0308161 -0.00931113 0.859393 1.91956 -0.393998 15.29 -7.80447 -4.3769 0.0107898 
308 1 1 -0.00219977 0.043683 0.0742288 0 0 0 -0.0334868 0.000835431 -0.0394423 0.27781 -0.010543 0.0312202 7.90946 -32.8146 -0.645074 0.00674364 
124 1 1 0.0437297 0.0436038 0.069737 0 0 0 -0.0186316 -0.00745027 0.033736 -0.0121153 -0.0417584 -0.377987 7.948 17.0972 -0.74738 0.00674364 
252 1 1 -0.0394559 -0.044253 0.0795826 0 0 0 -0.00718918 -0.00797403 -0.00844783 -0.012903 0.021849 -0.0223343 -0.910248 -2.5133 0.87417 0.00674364 
213 1 1 0.032496 -0.0440992 0.081174 0 0 0 0.00269927 -0.00458843 -0.0135745 -0.0108709 -0.00351395 0.0498526 -1.8862 -2.26467 -0.129383 0.00674364 
230 1 1 -0.0402436 -0.0323769 0.0757505 0 0 0 -0.0073539 -0.00682647 -0.00524083 -0.00213662 0.00701062 -0.0770987 0.92558 0.0196379 -0.171953 0.00674364 
109 1 1 0.0165022 -0.0402865 0.0800962 0 0 0 -0.00344071 -0.00472356 -0.00839134 -0.148617 -0.0877316 0.23338 -0.0128982 1.69799 -0.192777 0.0107898 
165 1 1 0.0438077 -0.0323552 0.0783594 0 0 0 0.00455333 -0.00240412 -0.00827822 0.0145917 0.00105844 -0.00768003 -0.336497 -0.84618 -0.214357 0.00674364 
75 1 1 -0.0259237 -0.0245059 0.0811305 0 0 0 -0.00476491 -0.00363835 -0.0128885 0.179283 0.120335 -0.00966367 -1.96259 -0.434129 -0.301427 0.0107898 
143 1 1 0.0308446 -0.0314775 0.0809564 0 0 0 0.00399961 -0.00429113 -0.0199889 0.00374364 -0.0164331 0.0379528 0.284552 -0.970751 0.53489 0.00674364 
26 1 1 -0.00617202 -0.0196482 0.0796473 0 0 0 -0.0159982 -0.0115964 -0.0145602 0.0453024 0.0840155 -0.409554 0.150447 0.912714 -0.0921263 0.0107898 
209 1 1 0.00961822 -0.0143851 0.0809729 0 0 0 -0.00995973 -0.0309729 -0.0119526 -0.0156048 0.0394913 -0.0618017 -5.08047 -1.07717 -1.70107 0.00674364 
169 1 1 0.0436938 -0.0191757 0.0781585 0 0 0 -0.00192017 -0.00113146 -0.0104052 0.0372924 0.0213807 -0.0236877 -0.11654 -1.04294 0.884512 0.00674364 
204 1 1 -0.0163924 -0.00647264 0.0756742 0 0 0 -0.0157173 0.0199028 -0.0254663 0.0942879 -0.128568 0.0331662 11.4743 -16.3285 0.890231 0.00674364 
325 1 1 0.0373665 -0.00829362 0.0808046 0 0 0 -0.000654576 -0.000403009 0.00345774 0.026441 0.0199513 -0.0414322 0.907211 2.98058 -1.01145 0.00674364 
306 1 1 -0.0440373 -0.00392102 0.0776836 0 0 0 -0.0126398 -0.0175502 -0.00372617 -0.0011423 -0.0103162 0.0131496 3.43138 1.17918 1.69256 0.00674364 
63 1 1 -0.0400015 0.011174 0.0834088 0 0 0 -0.0321996 -0.0286854 0.00522767 0.471264 -0.808735 0.0925931 -2.14293 -1.2732 -0.662744 0.0107898 
57 1 1 -0.0197123 0.00980982 0.0807955 0 0 0 -0.0213249 -0.010634 0.0239624 0.277352 -0.266516 -0.131311 1.95938 -1.19485 -1.18383 0.0107898 
263 1 1 0.0100816 0.0152167 0.0771207 0 0 0 0.0209155 -0.00954617 0.0275097 -0.0240143 0.127924 0.0335437 4.88579 -6.65543 0.538167 0.00674364 