ITEM: TIMESTEP
21700
ITEM: NUMBER OF ATOMS
338
ITEM: BOX BOUNDS mm mm mm
-0.05 0.05
-0.05 0.05
0 0.15
ITEM: ATOMS id type type x y z ix iy iz vx vy vz fx fy fz omegax omegay omegaz radius 
319 1 1 -0.0150149 -0.0438321 0.00599539 0 0 0 -0.0125148 0.0245845 0.0198233 0 0 -0.0197056 12.4334 1.91685 -1.47659 0.00576719 
243 1 1 -0.0034992 -0.0446071 0.00570216 0 0 0 0.0248331 -0.010646 0.0202532 0.0168996 0.0147821 0.0105034 3.6826 2.7327 -5.08103 0.00576719 
260 1 1 0.0217038 -0.044328 0.00552427 0 0 0 0.0205575 -0.00171026 0.00863397 0.0355011 0.00693538 -0.00239385 -0.596042 4.73797 21.1744 0.00576719 
78 1 1 0.0392889 -0.0414348 0.00869107 0 0 0 -0.00285002 0.0176927 0.0167056 0.184073 0.0785189 -0.0170726 3.04463 -7.09418 1.65171 0.0092275 
74 1 1 -0.0400716 -0.0363997 0.00900247 0 0 0 -0.0995038 -0.0117288 -0.00939024 -0.0748957 0.0246736 -0.0151485 1.24793 -11.1078 -11.255 0.0092275 
131 1 1 -0.0259349 -0.0400978 0.00567288 0 0 0 -0.0597904 0.0204513 0.0106704 -0.0349318 -0.0147557 -0.000311923 -3.61208 -10.0979 2.76347 0.00576719 
60 1 1 0.00773183 -0.035905 0.00883312 0 0 0 0.00561459 0.020523 0.011673 0.118837 0.133743 -0.131697 -0.598051 2.3573 8.70179 0.0092275 
296 1 1 -0.0266719 -0.0280056 0.00574709 0 0 0 0.0351658 -0.0166122 0.0022893 -0.00223248 -0.00361645 0.00114284 2.36249 6.20189 1.34119 0.00576719 
173 1 1 -0.0144116 -0.0308539 0.00574899 0 0 0 0.0646205 -0.0485482 0.0037946 2.41138e-05 -1.81163e-05 -7.06278e-05 8.43124 11.2225 19.7628 0.00576719 
275 1 1 -0.00278447 -0.0264139 0.00535561 0 0 0 -0.0759134 -0.0340933 0.0138308 -0.0626757 -0.0615214 0.0388472 6.88964 -14.6868 0.612434 0.00576719 
144 1 1 0.0394575 -0.0267446 0.00575219 0 0 0 -0.0188363 0.0134777 0.00245147 0.00325857 0.0136844 -0.00194614 -2.05253 -3.36233 -2.18651 0.00576719 
102 1 1 -0.0411749 -0.0184758 0.00869665 0 0 0 0.00536647 -0.0047644 0.00178711 0.0156522 0.0138489 0.0142434 0.739982 0.328606 -0.416104 0.0092275 
328 1 1 -0.0266573 -0.0164869 0.00574297 0 0 0 0.00882509 -0.014105 -0.000111503 -0.00423991 0.0104897 -0.00335434 2.50899 0.98406 -1.09522 0.00576719 
40 1 1 -0.0120465 -0.0156799 0.00935005 0 0 0 -0.0854688 -0.022454 0.0463983 -0.170243 -0.251379 0.0851365 0.798117 9.69145 0.448027 0.0092275 
279 1 1 0.00432044 -0.0178633 0.00705908 0 0 0 -0.0327135 -0.0662284 0.0794932 -0.0364435 -0.0379073 -0.00042113 5.96329 12.6233 -9.10353 0.00576719 
267 1 1 0.0149304 -0.021948 0.00569675 0 0 0 -0.00928454 0.00350363 -0.0109183 -0.0176511 -0.0373064 0.0127941 0.745607 1.28829 20.7534 0.00576719 
202 1 1 0.0443225 -0.0161732 0.00565244 0 0 0 -0.00679596 -0.0520374 0.00682989 0.00807977 -0.0163241 -0.00341285 9.11788 -1.47999 8.59046 0.00576719 
274 1 1 -0.0225613 -0.00575109 0.00573421 0 0 0 -0.0645389 0.0162273 0.00822798 0.0164454 -0.00661383 0.000550633 -13.3717 -12.579 -11.1343 0.00576719 
50 1 1 0.026657 -0.0101837 0.00893545 0 0 0 0.0477617 -0.0070492 0.0087691 0.115188 0.00607609 0.000404345 0.921365 6.20574 4.8378 0.0092275 
257 1 1 -0.0428299 -0.00390787 0.00574006 0 0 0 0.000375899 -0.00684703 0.00341412 -0.00345952 0.0100422 -0.00121502 0.335895 0.202828 1.43449 0.00576719 
164 1 1 0.0209605 0.00338764 0.00548083 0 0 0 0.00450798 -0.0266118 0.00408528 0.00991269 -0.0132369 0.0115662 3.54511 -0.599621 3.72358 0.00576719 
268 1 1 -0.0313975 0.00884511 0.00544564 0 0 0 -0.00464898 0.000958688 -0.000516287 -0.00280901 0.00525464 0.00662769 -1.16096 0.0906136 4.05363 0.00576719 
171 1 1 -0.0207243 0.00552663 0.00575345 0 0 0 0.00227628 0.0184107 -0.00448918 -0.0078561 0.00283161 0.0338881 8.72964 -1.35452 -0.306504 0.00576719 
232 1 1 -0.0386303 0.0178462 0.00538103 0 0 0 -0.00549845 0.0054638 -0.000259921 0.00243141 0.00577892 0.000712382 -1.00647 -0.757569 -10.3748 0.00576719 
297 1 1 -0.026272 0.0187398 0.00559957 0 0 0 0.00647779 -0.0109088 0.00342028 0.00402314 0.000956089 0.00212137 2.61809 -0.143378 -7.14758 0.00576719 
222 1 1 -0.01188 0.015876 0.00520829 0 0 0 0.00640288 -0.010754 0.000669706 0.0110428 -0.0117935 0.00492008 2.12936 1.03887 4.87755 0.00576719 
290 1 1 -0.000894677 0.0187723 0.00565178 0 0 0 0.00380032 0.0190276 -0.00275111 0.00822169 0.000147394 0.0106141 -4.6295 0.112532 -1.6992 0.00576719 
98 1 1 0.0132313 0.0154203 0.00912205 0 0 0 -0.00323098 -0.0263263 0.00660192 0.0507924 -0.0938138 0.0313356 0.0272802 -0.475196 -1.34165 0.0092275 
316 1 1 0.0273969 0.0178812 0.00557191 0 0 0 0.0101382 -0.00784336 -0.00759739 0.0232934 0.00175503 -0.0183812 0.390701 1.98008 4.73503 0.00576719 
162 1 1 0.0442588 0.0167453 0.00575808 0 0 0 -0.0135218 0.028257 0.00625471 -0.00196765 0.00378468 -0.0090836 -7.05346 1.02361 -4.76775 0.00576719 
294 1 1 -0.0443479 0.0287737 0.00567609 0 0 0 0.0062687 -0.00797012 0.00577059 -2.90941e-05 0.000917814 0.000484783 0.463592 -1.25979 -1.43311 0.00576719 
255 1 1 -0.0188808 0.0271893 0.00559225 0 0 0 0.0314406 -0.0209007 0.00419478 0.00272481 -0.00176764 0.000445088 3.06926 5.87323 2.98098 0.00576719 
324 1 1 -0.00486088 0.0312592 0.00574229 0 0 0 0.0552618 0.0266782 0.00268456 0.00124828 -0.00213827 0.00453094 -4.737 9.48311 9.22192 0.00576719 
77 1 1 0.0221526 0.0312947 0.00857293 0 0 0 0.0112383 -0.0242962 0.016783 -0.0127902 -0.0504652 0.0166206 2.26937 1.95915 -1.1735 0.0092275 
155 1 1 0.036269 0.0270948 0.00574821 0 0 0 0.0209788 0.0142025 0.00563456 -2.25727e-05 5.62479e-05 -0.000993074 -2.47353 3.63937 5.80027 0.00576719 
175 1 1 -0.0332752 0.0326609 0.00564297 0 0 0 0.00486224 0.000206232 0.00525558 0.00240628 0.0040585 0.00254322 0.0398605 0.697241 0.229436 0.00576719 
161 1 1 0.0075161 0.0321928 0.00573148 0 0 0 -0.00335019 0.0275747 0.00762287 -0.0132175 0.00355401 -0.00212916 -5.1536 -0.469481 -1.2488 0.00576719 
289 1 1 0.0443416 0.0382086 0.00555962 0 0 0 -0.0101001 0.0833182 0.0186839 -0.00436768 -0.000340827 0.0154847 -14.7284 -1.66123 -14.4841 0.00576719 
321 1 1 -0.0444386 0.0444022 0.00560824 0 0 0 0.000298208 -0.00089859 0.00225093 -0.000372923 -0.00232797 -0.00177358 -0.212598 -0.294965 -0.0948061 0.00576719 
207 1 1 -0.0325534 0.0441546 0.00575047 0 0 0 0.00909939 0.00752071 0.00291525 -0.00324525 0.00639757 -0.00415077 -0.967434 1.57542 -0.724838 0.00576719 
38 1 1 -0.0156407 0.0411773 0.00884453 0 0 0 0.0132986 -0.00880379 0.00679683 0.0263011 -0.0209317 0.0127861 -0.458854 1.40797 1.59908 0.0092275 
149 1 1 0.00894391 0.0442396 0.00574402 0 0 0 0.04515 -0.00366007 0.00353875 -2.65091e-05 0.000110065 0.00220016 0.617061 7.80983 8.08708 0.00576719 
249 1 1 0.0291518 0.0442806 0.00571142 0 0 0 0.0209105 -0.004749 0.00329352 -0.000562039 -0.00855406 -0.00105812 0.297654 3.6344 4.56375 0.00576719 
299 1 1 -0.0264115 -0.0447877 0.0160755 0 0 0 0.0828818 0.0110556 0.0270932 -0.000849271 0.00611544 -0.0109168 4.7843 42.2417 -14.7113 0.00576719 
130 1 1 0.0167774 -0.0447413 0.0155991 0 0 0 0.0132583 0.0247448 0.0363999 0.0138946 0.0218418 0.00547208 8.58131 -17.4282 -1.97966 0.00576719 
167 1 1 0.0277554 -0.0446143 0.0176985 0 0 0 0.0258704 -0.00640837 -0.031458 -0.00750738 0.0072646 0.000616402 -2.48737 28.1223 -4.74293 0.00576719 
67 1 1 0.0247901 -0.0313606 0.0117483 0 0 0 0.0225892 0.0328895 -0.0329392 0.0892327 0.1016 -0.0931564 -2.4129 2.09796 -8.74031 0.0092275 
278 1 1 0.0320932 -0.0204489 0.0175169 0 0 0 0.00724442 -0.00430246 0.0543765 0.00952042 0.00317568 0.0299523 1.67744 -36.1098 -0.546146 0.00576719 
146 1 1 -0.0444646 -0.00752326 0.0179192 0 0 0 0.000526071 -0.00559447 0.00705563 -0.000253313 0.000169315 0.00239023 -0.64332 -1.26523 0.00424742 0.00576719 
183 1 1 0.0406343 -0.0133317 0.0160805 0 0 0 0.0047203 0.00908399 0.00466079 0.0381672 -0.00947426 -0.00477972 -28.6373 10.6055 14.6307 0.00576719 
17 1 1 -0.00698142 0.00302233 0.0102661 0 0 0 0.0041114 -0.0382094 -0.0253717 0.0125493 -0.149798 -0.0360231 1.24773 2.11829 -4.42 0.0092275 
96 1 1 0.00948198 -0.00448921 0.0103447 0 0 0 0.00822826 -0.055223 0.0188476 0.0650702 -0.176198 -0.0410106 -9.11721 -3.13848 2.69253 0.0092275 
25 1 1 -0.0410108 0.00664411 0.0161796 0 0 0 0.00258497 -0.00753435 0.0073574 -0.0150808 0.0237081 0.0219038 0.46489 0.189063 -0.427388 0.0092275 
94 1 1 0.0347649 0.00599895 0.0100533 0 0 0 0.0024052 0.013295 0.0489675 0.0605986 -0.00327348 -0.0194107 -0.141703 -14.2522 0.394851 0.0092275 
261 1 1 0.0445639 0.0126051 0.0185554 0 0 0 -0.0106012 -0.0107944 0.0947408 0.00292144 -0.00591785 0.0175348 10.7089 17.1427 1.6722 0.00576719 
300 1 1 -0.0443763 0.0210859 0.015201 0 0 0 0.00112953 -0.00296971 -0.00129924 -0.00450659 0.00795067 0.00589047 -2.19072 0.387624 -0.449366 0.00576719 
273 1 1 -0.0330493 0.0205453 0.0145285 0 0 0 0.00207953 -0.010106 0.00341098 -0.00525259 0.00450758 0.00568895 -0.456989 -0.710474 2.17401 0.00576719 
28 1 1 -0.0180835 0.0185383 0.0178857 0 0 0 0.0102379 -0.0337871 0.0115387 0.00232099 0.00912986 -0.00597941 -0.71293 0.820506 2.64771 0.0092275 
286 1 1 -0.00167213 0.0154165 0.0168275 0 0 0 -0.00543632 -0.0219189 -0.0149851 -0.0206695 -0.0384916 0.0183514 -1.12379 3.25126 4.99178 0.00576719 
320 1 1 0.00349735 0.0252675 0.013951 0 0 0 0.01558 -0.00702636 0.0214167 0.0074825 -0.0111436 0.0113498 8.91444 -6.19104 -7.0507 0.00576719 
284 1 1 0.0427496 0.0237592 0.0147694 0 0 0 0.105903 0.102174 -0.0156459 -0.00299291 0.00332759 -0.0165089 -5.27307 13.4382 -10.5588 0.00576719 
305 1 1 -0.0409614 0.0366846 0.013155 0 0 0 0.00297271 0.00018874 0.0117564 -0.00247533 -0.000997719 -0.00102192 -0.847326 0.143979 0.839862 0.00576719 
61 1 1 0.0362848 0.0374892 0.0179263 0 0 0 -0.0237355 0.0212911 0.0382143 -0.0195831 -0.137887 0.107329 12.0002 0.293814 16.8662 0.0092275 
237 1 1 -0.00117577 0.0442392 0.0112464 0 0 0 0.0248533 -0.00418303 -0.0187724 0.000622247 0.000798377 -0.00713538 -9.17272 -9.92279 -3.49035 0.00576719 
239 1 1 0.0198705 0.0448507 0.0124297 0 0 0 0.0151266 -0.0087353 0.02112 -0.00797371 -0.00261356 0.000997731 -3.93251 1.96347 2.73773 0.00576719 
331 1 1 -0.0428661 -0.0448996 0.0202544 0 0 0 -0.0720204 0.000807601 -0.00551058 0.00423216 0.0061318 0.00827188 -2.89995 27.8332 14.0385 0.00576719 
225 1 1 -0.00540942 -0.0443822 0.0188845 0 0 0 -0.108889 0.0128378 -0.0729531 0.0333523 0.0160926 -0.0106712 -12.4807 42.9409 18.7607 0.00576719 
242 1 1 0.00751874 -0.0442559 0.0233116 0 0 0 -0.296576 0.0278526 -0.0990102 0.0300267 -0.00416346 -0.011948 15.1612 -34.528 14.5295 0.00576719 
136 1 1 0.0443705 -0.0444841 0.0222538 0 0 0 -0.0105992 -0.0174764 0.032895 0.00236846 -0.00360387 0.0190043 6.2254 8.40503 2.45721 0.00576719 
180 1 1 -0.0444517 -0.0344167 0.0238535 0 0 0 0.00501307 0.00383553 0.032321 -0.013116 0.0335879 0.0226391 7.04741 -2.03858 -6.364 0.00576719 
256 1 1 -0.034078 -0.0393742 0.0245393 0 0 0 0.0408081 -0.0611448 -0.0900625 0.0131238 -0.016783 -0.0519081 27.4105 7.34389 -21.3574 0.00576719 
7 1 1 -0.0222091 -0.0317595 0.0203501 0 0 0 0.0332665 0.0582794 -0.00565938 0.046407 0.0528055 -0.084515 -1.14509 -6.08984 21.9295 0.0092275 
271 1 1 0.0319208 -0.0399763 0.0268403 0 0 0 -0.172656 0.0200207 0.00295659 0.0157708 -0.0187816 0.0589614 -11.2605 -74.421 -4.57862 0.00576719 
128 1 1 -0.0448849 -0.0232076 0.0222022 0 0 0 0.00446945 0.0221403 0.0218216 0.00527027 -0.000893303 0.00241331 -8.16913 -3.43367 4.95122 0.00576719 
179 1 1 -0.0353079 -0.026905 0.0191254 0 0 0 -0.0206679 -0.0443278 -0.00120158 -0.00798498 -0.00155476 -0.000435651 -4.63103 13.2195 -13.87 0.00576719 
104 1 1 -0.00487033 -0.0295933 0.0197144 0 0 0 0.0696012 0.0194286 0.100378 0.0168108 0.0920732 -0.130994 26.9737 -3.71026 -29.4116 0.0092275 
51 1 1 0.011881 -0.024942 0.0228146 0 0 0 0.119925 -0.115064 0.109866 0.0909246 0.12573 -0.146211 15.4123 16.2659 20.3665 0.0092275 
120 1 1 0.0414452 -0.0301072 0.0223251 0 0 0 -0.0287389 -0.021326 0.113004 -0.0594084 -0.0779786 0.219664 -0.544315 13.149 -0.387364 0.0092275 
19 1 1 -0.0293928 -0.0141053 0.0221737 0 0 0 -0.00305684 -0.031335 0.0423485 -0.0424361 -0.014762 0.0121035 1.49625 -21.4134 3.41862 0.0092275 
178 1 1 -0.0156809 -0.0191293 0.0242336 0 0 0 -0.0290792 0.0223079 0.154688 0.0469961 0.00844933 0.0696885 33.146 7.55564 -20.4201 0.00576719 
258 1 1 -0.00514403 -0.0152326 0.0230988 0 0 0 -0.0396441 0.00949572 0.129625 0.0580753 -0.0133848 0.0202195 5.28767 10.9923 13.9943 0.00576719 
134 1 1 0.0444713 -0.0165201 0.0266711 0 0 0 -0.00355809 0.0131987 -0.0102374 0.000378943 -0.0135716 -0.00766704 -21.7638 -5.247 1.53878 0.00576719 
310 1 1 -0.0144714 -0.00770959 0.0215392 0 0 0 0.0609315 0.0229011 0.0552146 -0.0062417 0.013785 -0.0164279 -15.8661 33.3903 26.4749 0.00576719 
18 1 1 0.0178813 -0.00865388 0.0264829 0 0 0 -0.0182057 -0.0366218 0.112481 0.0710171 0.0936571 -0.0420621 -13.9678 -10.1472 -0.826529 0.0092275 
184 1 1 0.0315292 -0.0122533 0.0247229 0 0 0 -0.0120029 -0.0141914 0.0590753 -0.00104348 0.018191 0.00272476 0.240423 34.3367 6.59156 0.00576719 
112 1 1 -0.0243719 0.00299162 0.0239041 0 0 0 0.00118924 -0.0285871 0.0675389 -0.0451989 0.0300859 -0.0336128 -5.78934 -1.37336 -3.57493 0.0092275 
160 1 1 -0.00281638 -0.0041298 0.0225079 0 0 0 -0.0185607 0.0175138 0.0264079 0.0549445 -0.0077219 0.00170179 -23.5803 3.44216 -14.5163 0.00576719 
55 1 1 0.0414915 -0.00216789 0.0255815 0 0 0 -0.00312524 0.00421612 0.0341013 -0.0131167 -0.00939284 0.0650693 20.0865 3.95568 -0.832969 0.0092275 
100 1 1 0.00884707 0.00677627 0.0246475 0 0 0 -0.00423896 -0.0273332 0.019632 -0.0198004 0.021137 0.00327381 6.40652 3.71501 0.139476 0.0092275 
95 1 1 0.0264504 0.00720203 0.0283092 0 0 0 -0.00525904 -0.0360357 0.097783 -0.0232751 0.0483544 0.0700177 5.63652 -11.8203 0.912835 0.0092275 
246 1 1 -0.0443 0.0271934 0.0248869 0 0 0 -0.00181546 -0.00373603 0.00857861 -0.00737482 0.00358538 0.0145398 2.58941 -1.79942 -0.52075 0.00576719 
108 1 1 0.0223597 0.0241753 0.025086 0 0 0 0.0128951 -0.0203469 0.0612751 0.0339686 0.0217177 -0.04584 -5.14374 -1.17717 -0.377838 0.0092275 
23 1 1 -0.0280529 0.0334325 0.0195461 0 0 0 0.00549556 -0.0211843 0.0189312 0.00172688 0.0165582 0.00326669 1.87533 -0.817628 -2.38825 0.0092275 
69 1 1 -0.00692461 0.03187 0.0218617 0 0 0 0.00266039 -0.0121564 0.0236899 0.0159488 0.00477369 0.0570149 1.73574 -1.04616 -0.463466 0.0092275 
16 1 1 0.0103497 0.0371301 0.0209359 0 0 0 0.0164785 -0.018678 0.037574 0.0263734 0.0218973 -0.00255276 1.78907 0.0336716 -0.710451 0.0092275 
323 1 1 -0.0131703 0.0447944 0.0229494 0 0 0 -0.000751876 0.00036266 0.0121226 0.0019366 -0.000762222 0.0022492 -1.77619 -4.7908 -0.215547 0.00576719 
224 1 1 -0.0431663 -0.0439261 0.0317244 0 0 0 0.00833274 -0.0185949 0.0016415 0.0088957 -0.000568452 -0.00321716 5.98472 -7.91862 -6.73571 0.00576719 
42 1 1 -0.0117427 -0.041068 0.0320313 0 0 0 -0.00749057 -0.0115217 -0.00436922 0.0352921 0.000601402 -0.0959438 -1.00722 11.4553 1.96866 0.0092275 
168 1 1 0.00265544 -0.0443165 0.0337385 0 0 0 0.0398564 0.0114345 0.0771881 0.099178 0.01545 -0.0133943 12.1234 -35.2031 -2.41338 0.00576719 
3 1 1 0.018648 -0.0409278 0.0327614 0 0 0 -0.260654 0.0176083 -0.0736226 0.158347 -0.113094 -0.0475463 -3.89088 34.7993 4.49417 0.0092275 
125 1 1 0.0434652 -0.0442467 0.0337132 0 0 0 0.0531833 0.00025079 0.0389584 0.000424289 -0.00765811 0.0217881 -7.61324 2.08522 -9.76971 0.00576719 
211 1 1 -0.0439174 -0.0329556 0.0351687 0 0 0 0.0306655 -0.0207856 0.0368984 -0.00293629 0.0114972 -0.00232399 -3.41604 6.41994 5.06597 0.00576719 
191 1 1 0.00581407 -0.0333066 0.0335972 0 0 0 -0.164707 0.141001 0.152024 0.391017 -0.000899184 -0.214527 -13.1932 -7.38548 34.4742 0.00576719 
93 1 1 -0.028629 -0.0313958 0.0372312 0 0 0 0.0245452 0.00904213 0.0227057 0.0990643 0.0134985 -0.148359 -2.00463 6.71446 1.92463 0.0092275 
105 1 1 0.0320854 -0.0289942 0.0378893 0 0 0 -0.0257535 -0.0937539 0.123487 0.0902637 -0.0196356 0.149277 -0.660252 -10.7145 14.7153 0.0092275 
66 1 1 -0.041124 -0.0183442 0.0358447 0 0 0 0.00180799 -0.000480152 0.0426102 0.0201815 -0.0270764 -0.0633332 2.72256 -4.68829 0.371764 0.0092275 
259 1 1 0.0275516 -0.0149357 0.0355154 0 0 0 -0.0396985 -0.0617947 0.129212 -0.00734163 -0.0288308 -0.00262199 4.1982 9.72022 6.43435 0.00576719 
336 1 1 -0.0231826 -0.00766372 0.0340085 0 0 0 -0.0912905 -0.0334622 0.118923 -0.0194725 0.00782482 0.00815691 -0.158978 7.12618 -5.06924 0.00576719 
24 1 1 -0.00855125 -0.00754274 0.0359877 0 0 0 -0.0437994 0.00473957 0.0959506 -0.0119698 0.0686653 -0.0459106 -0.151906 -3.61555 1.22051 0.0092275 
245 1 1 0.00367497 -0.0111993 0.0286788 0 0 0 -0.0334575 0.0126521 0.0757057 0.0310924 0.0227271 0.00611166 5.29691 5.7833 -3.46411 0.00576719 
107 1 1 -0.0396706 -0.000596699 0.0328357 0 0 0 -0.0156377 0.00693627 0.0397566 -0.00627259 0.0350617 0.0285447 -3.3412 -3.91738 2.88641 0.0092275 
303 1 1 0.0303848 -0.00412456 0.0366554 0 0 0 -0.0650673 -0.0456056 0.124441 -0.0297948 0.00681353 -0.0228562 -5.76496 -7.9512 2.98014 0.00576719 
208 1 1 -0.0447032 0.0126433 0.0366646 0 0 0 -0.0148778 -0.00419504 0.00592728 -0.00108558 0.00216292 0.00843596 2.75906 -2.09952 -3.25513 0.00576719 
236 1 1 -0.0208036 0.00747223 0.0377331 0 0 0 -0.0125919 0.0353873 0.0654592 0.0168121 0.00667391 -0.0159802 -2.14935 -0.264007 4.42903 0.00576719 
4 1 1 -0.00809793 0.00942041 0.0300136 0 0 0 0.00414953 -0.00303581 0.0487218 0.0113611 0.0683253 -0.0683752 -5.9153 -1.24561 -3.76955 0.0092275 
2 1 1 -0.0335558 0.0176506 0.0287877 0 0 0 0.00606824 -0.00269463 0.0119216 -0.0305193 0.0354162 0.042112 -0.458991 0.39312 1.18432 0.0092275 
282 1 1 -0.0193063 0.0180833 0.0325564 0 0 0 0.00620851 0.00305444 0.0229861 -0.00988085 0.0265761 -0.00193196 11.9395 -4.80907 3.29134 0.00576719 
58 1 1 0.0412047 0.0162899 0.032556 0 0 0 -0.00466835 -0.00219101 0.0839255 -0.00816539 0.00144003 0.0316323 -16.646 8.45462 0.340455 0.0092275 
199 1 1 -0.0444284 0.0240643 0.0364771 0 0 0 -0.000380261 -0.00352155 0.0150804 -0.00374951 0.00169233 0.01145 0.162863 -2.01481 -0.688852 0.00576719 
262 1 1 -0.0346494 0.0300055 0.0364383 0 0 0 0.00124762 -0.00473084 0.0257606 0.00178746 0.0150771 0.0112231 3.24083 3.33413 1.06735 0.00576719 
192 1 1 -0.0241107 0.0280694 0.0329433 0 0 0 0.00411367 -0.00516173 0.0436481 -0.0143353 0.0181303 -0.000722019 0.201162 -8.02468 -2.98109 0.00576719 
73 1 1 0.00553065 0.0231669 0.0315599 0 0 0 -0.00222495 -0.0199733 0.053815 0.0250058 -0.0172887 0.00824153 -3.16145 -1.35963 -0.162988 0.0092275 
292 1 1 -0.0142056 0.0333257 0.0345711 0 0 0 0.00266274 0.00160961 0.042239 -0.010914 0.00590684 -0.00973174 -6.28415 3.36489 3.45509 0.00576719 
114 1 1 0.0410096 0.0409173 0.0349536 0 0 0 -0.00873674 0.0142295 0.0474839 0.0257849 -0.0167575 0.117456 -7.00038 5.26769 -1.37718 0.0092275 
9 1 1 -0.0411842 0.0411287 0.0290247 0 0 0 -0.00138066 -0.00246542 0.0138768 -0.0125445 0.0108384 0.0210657 -1.486 -1.10506 -0.366745 0.0092275 
126 1 1 -0.0093054 0.0436952 0.0337529 0 0 0 -0.0117 0.0292838 0.0145481 3.70592e-05 -0.000416256 -0.0186781 2.25766 1.903 -0.779974 0.00576719 
248 1 1 0.00183926 0.0442685 0.0309472 0 0 0 -0.00301091 0.000870048 0.0245571 0.00953617 -0.00974787 -0.00110372 -4.53875 -4.66746 -1.22884 0.00576719 
229 1 1 0.0136749 0.044682 0.0327938 0 0 0 -0.00986438 -0.00130838 0.041294 0.0192442 0.00102789 -0.00203223 -7.10353 -7.96902 -1.84502 0.00576719 
329 1 1 -0.0236788 -0.0447483 0.0397171 0 0 0 0.0172168 -0.00347682 0.0254411 0.0249869 0.00708165 -0.00429142 3.7094 -10.9401 -4.48778 0.00576719 
283 1 1 0.0299656 -0.0439169 0.0419762 0 0 0 0.0066635 0.050008 -0.309759 0.019976 -0.0172859 -0.0294094 18.3502 4.96545 13.6478 0.00576719 
307 1 1 -0.0159756 -0.0338449 0.0443179 0 0 0 0.0426557 -0.0180377 0.0121923 0.0295473 0.0129452 -0.0308387 2.7192 -7.81108 -8.61586 0.00576719 
337 1 1 -0.00544254 -0.036971 0.0469784 0 0 0 0.0310957 -0.00336989 0.089204 0.0259795 -0.00467008 -0.00789827 -15.7575 -35.2898 2.01709 0.00576719 
56 1 1 0.00903604 -0.0376088 0.04771 0 0 0 0.064672 0.0507322 0.172551 0.163306 -0.0156046 -0.0586916 -6.55531 14.3636 5.92003 0.0092275 
43 1 1 -0.00582696 -0.0251232 0.0382034 0 0 0 0.0229631 -0.0103904 0.0168347 -0.281085 -0.0384298 0.00656715 8.52904 12.5867 3.75899 0.0092275 
326 1 1 0.0443381 -0.0266514 0.0459859 0 0 0 -0.00304148 0.0325881 0.0980284 0.00672948 0.00560551 0.0314025 -40.858 17.1104 -13.1106 0.00576719 
81 1 1 -0.0211016 -0.0169486 0.0453339 0 0 0 -0.00513097 -0.0198568 0.13994 -0.13096 0.0426974 -0.0227032 -4.03841 5.4632 4.7708 0.0092275 
52 1 1 0.0117004 -0.0211512 0.0406012 0 0 0 0.0334443 0.00913328 0.0846749 0.0263879 0.0593163 -0.0441542 -4.15875 -18.2925 -1.51634 0.0092275 
332 1 1 0.025131 -0.0184375 0.0458779 0 0 0 0.0527818 -0.0642455 0.153566 0.0182769 0.00710126 0.0311564 -1.21215 15.5589 -15.5114 0.00576719 
220 1 1 -0.0441556 -0.00705001 0.0453528 0 0 0 -0.0080417 -0.00314856 0.0393822 -0.00881311 -0.00116617 0.0145091 1.33505 0.248978 10.6415 0.00576719 
240 1 1 0.0203345 -0.00570949 0.0413324 0 0 0 -0.0718395 -0.0207168 0.119198 -0.0130727 -0.02194 -0.00242222 4.10184 6.43703 -7.74607 0.00576719 
5 1 1 0.0411643 -0.0131115 0.0407602 0 0 0 -0.0070532 -0.0335484 0.0498313 -0.06582 0.0804637 -0.0891771 18.1207 5.91276 5.13659 0.0092275 
133 1 1 -0.0291784 -0.00360609 0.0428516 0 0 0 -0.0378416 0.0308447 0.099017 0.00188519 0.0599888 -0.00142219 -5.78442 0.100295 -7.35768 0.00576719 
197 1 1 -0.0184342 -0.00249684 0.0464049 0 0 0 -0.0535014 0.0035179 0.126317 0.0119527 0.0037703 0.0136219 3.65685 -7.24686 2.54505 0.00576719 
10 1 1 0.00642495 -0.00450342 0.0458007 0 0 0 -0.0560633 -0.0499295 0.16143 -0.0538791 -0.0129049 -0.0389849 17.3793 -0.836162 1.77412 0.0092275 
318 1 1 0.0442492 0.00324467 0.0392571 0 0 0 -0.00674591 -0.0287177 0.0596486 0.00207796 -0.00572353 0.00812495 -18.1576 -1.27809 7.86205 0.00576719 
115 1 1 0.000379406 0.0125851 0.0460328 0 0 0 -0.0334185 -0.0354412 0.112149 0.00170764 -0.0406596 0.00259291 -18.481 -10.4215 -3.64214 0.0092275 
298 1 1 0.0331588 0.0100097 0.0435065 0 0 0 -0.0211557 -0.0173953 0.0729321 -0.00732851 -0.00267826 0.004684 13.3417 -16.535 10.1746 0.00576719 
291 1 1 0.044384 0.0129406 0.0465464 0 0 0 -0.0141968 0.0149925 0.110233 0.000450826 -0.00543573 0.00252319 22.4052 -14.7773 -11.3468 0.00576719 
335 1 1 -0.0316505 0.0216749 0.043543 0 0 0 -0.028594 -0.0525929 0.00323051 -0.0167876 0.0115071 0.00392626 5.48305 -4.97193 -4.95523 0.00576719 
15 1 1 0.0184948 0.0138143 0.043342 0 0 0 -0.0441708 -0.0606923 0.0791514 0.0441396 0.0600667 0.110581 -0.0932205 2.19824 -8.68239 0.0092275 
117 1 1 -0.0174301 0.0234711 0.0460922 0 0 0 -0.0322331 -0.0331365 0.0430639 0.0092131 0.0579574 0.0268927 -8.39026 -2.00247 4.25082 0.0092275 
140 1 1 0.00869077 0.0246649 0.0459635 0 0 0 -0.0167573 -0.0229247 0.0662809 -0.00433628 -0.0142585 0.017726 1.60379 -5.50533 5.63239 0.00576719 
106 1 1 0.0402629 0.0272719 0.0471875 0 0 0 -0.0267951 0.0402293 0.0538004 -0.0149981 -0.0382133 0.0230903 9.36336 -9.73031 1.18653 0.0092275 
99 1 1 -0.00271935 0.0335227 0.0438562 0 0 0 -0.0209434 -0.0164664 0.064108 0.0180873 0.0124145 -0.130019 6.41995 -3.38995 -2.62324 0.0092275 
47 1 1 0.0238911 0.0362012 0.0393671 0 0 0 -0.0244018 0.0235653 0.118758 0.0670275 0.0308504 0.0290668 -2.39646 -1.09941 1.88477 0.0092275 
327 1 1 -0.0433576 0.0444793 0.0431923 0 0 0 0.00451066 -0.00409345 0.0370047 0.00578263 0.00683998 -0.000353275 1.9285 4.24764 5.21718 0.00576719 
122 1 1 -0.0257916 0.041296 0.0387802 0 0 0 -0.00369711 0.00350028 0.0234763 -0.0316915 0.0567039 -0.027698 -2.2249 -1.30287 -0.263234 0.0092275 
6 1 1 -0.0253069 -0.0411436 0.0551671 0 0 0 0.031978 0.00428756 0.0357004 0.0598292 0.0780555 -0.0471038 3.5189 7.48727 -2.90476 0.0092275 
314 1 1 -0.0135275 -0.0445226 0.0472031 0 0 0 0.0116198 -0.0114139 -0.00767629 0.0110255 0.0015926 -0.00984846 -1.10773 -4.4042 -1.24014 0.00576719 
190 1 1 -0.00171919 -0.0437249 0.0559933 0 0 0 0.0456594 -0.0324429 0.161246 0.0282215 0.0153995 0.0067328 24.1254 -24.7016 -2.14265 0.00576719 
265 1 1 0.0219362 -0.0444075 0.0500861 0 0 0 0.132275 0.023681 -0.0835899 0.027461 0.000353682 -0.0120886 -11.6059 38.6117 -18.6638 0.00576719 
84 1 1 -0.0411617 -0.0344949 0.0497157 0 0 0 0.0198321 0.00332582 0.0490155 0.0359557 -0.0939056 -0.100001 -0.310916 -5.37771 0.182685 0.0092275 
49 1 1 0.0409003 -0.0401512 0.0513123 0 0 0 -0.0483599 -0.06573 -0.0763092 -0.0388785 -0.0154341 -0.0740959 33.4282 -6.18942 7.07052 0.0092275 
313 1 1 -0.0118175 -0.0273318 0.0529703 0 0 0 -0.0193938 -0.054888 0.0753779 -0.00119527 -0.000445707 -0.0191913 13.6915 -8.69215 0.63886 0.00576719 
137 1 1 -0.000321232 -0.0270959 0.052347 0 0 0 0.00631905 0.00409943 0.171895 0.0219276 -0.00530221 -0.0192215 -5.94794 -6.20106 11.0196 0.00576719 
227 1 1 0.0103112 -0.0260796 0.0568087 0 0 0 0.0387289 -0.00715416 0.2621 0.018244 -0.00876765 -0.00977591 28.8381 -8.34618 9.67001 0.00576719 
91 1 1 0.0246016 -0.0303513 0.0544684 0 0 0 0.0960259 -0.0442327 0.193115 0.0858494 -0.0866455 0.0617089 -3.30484 27.3331 -14.5808 0.0092275 
36 1 1 -0.0411085 -0.0174346 0.0554249 0 0 0 -0.00467706 0.00492164 0.0531362 0.0865793 0.0130571 0.0672876 0.384076 -6.56699 -0.171932 0.0092275 
26 1 1 -0.00588482 -0.0139735 0.0564056 0 0 0 -0.0448128 -0.041629 0.218634 0.0139805 0.0151574 -0.00942618 10.9532 1.24988 0.16565 0.0092275 
209 1 1 0.00898708 -0.0149125 0.0561583 0 0 0 -0.0341848 -0.019075 0.211076 -0.0072984 -0.00316893 0.0149232 -35.4432 -0.0336638 3.85153 0.00576719 
215 1 1 0.0330986 -0.0169798 0.0538127 0 0 0 0.0162596 -0.046471 0.183875 0.0152237 0.00561805 0.0610182 -4.10031 -23.4723 15.732 0.00576719 
217 1 1 0.0444011 -0.016842 0.0549323 0 0 0 0.008646 0.0270948 0.153346 -0.0129096 0.0278653 0.133533 -16.1794 27.3475 -4.86676 0.00576719 
182 1 1 -0.0300012 -0.00791132 0.0533825 0 0 0 -0.00750049 0.0304133 0.109221 -0.00436795 0.0381491 -0.00156563 5.30286 2.93383 5.46987 0.00576719 
276 1 1 0.0185437 -0.0109342 0.0514332 0 0 0 -0.0368209 -0.0776292 0.122444 -0.0121034 -0.00759692 0.0150355 -6.94627 -1.02485 3.70263 0.00576719 
148 1 1 0.0445034 -0.00487437 0.0555904 0 0 0 -0.00375544 -0.00740358 0.0617771 -0.00815364 -0.0119234 -0.00601819 -34.6253 10.9126 1.32009 0.00576719 
306 1 1 -0.0402032 -0.00282158 0.0569326 0 0 0 -0.110779 0.0345634 0.15149 -0.0524791 0.0213226 0.0296738 12.4821 5.27404 20.5214 0.00576719 
87 1 1 0.0306124 -0.00244849 0.0515254 0 0 0 -0.0298984 -0.0563915 0.0849938 -0.0681611 -0.058211 0.0931878 -4.30417 0.756295 -2.37555 0.0092275 
32 1 1 -0.0364678 0.00861777 0.0483794 0 0 0 -0.135542 0.0101466 0.0858933 -0.0192111 0.0684059 0.0476236 -16.5422 -7.02036 -6.38871 0.0092275 
57 1 1 -0.0145502 0.0082936 0.0556082 0 0 0 -0.031029 -0.0013836 0.127996 -0.0246255 0.00499631 0.0400586 -1.80952 5.1844 -5.07762 0.0092275 
266 1 1 0.0179575 0.0208384 0.0564405 0 0 0 -0.00362551 -0.0316151 0.0689415 -0.0092197 -0.00317091 0.0174994 -2.65837 8.26362 6.12326 0.00576719 
39 1 1 -0.0411964 0.0311872 0.0493515 0 0 0 0.00431231 -0.021719 0.0298451 0.0225452 0.031022 0.0181985 1.18213 -2.91955 -3.06427 0.0092275 
250 1 1 -0.0289872 0.0249739 0.0551838 0 0 0 -0.0116513 -0.0383313 0.0872149 -0.00359982 0.0153829 0.0122883 -5.51886 14.8387 8.81214 0.00576719 
113 1 1 0.0142553 0.0349186 0.0548518 0 0 0 -0.0492167 -0.0340933 0.131754 -0.0191473 0.00562331 -0.0374928 7.29689 0.497024 0.807892 0.0092275 
76 1 1 0.0312491 0.0407882 0.0558129 0 0 0 -0.044645 -0.0157596 0.141841 0.0235572 -0.0257582 -0.0803614 6.78714 4.07394 1.6004 0.0092275 
174 1 1 -0.0344622 0.0444112 0.0503449 0 0 0 0.00954744 -0.00720183 0.0482581 -0.00396016 -0.00411559 0.026045 2.48067 9.38357 7.07859 0.00576719 
315 1 1 -0.0081706 0.0445525 0.0517534 0 0 0 0.0225127 0.00153228 0.0861864 0.0114444 -0.00621153 -0.0215494 -15.2006 22.3629 3.98875 0.00576719 
158 1 1 0.00426783 0.0446344 0.0499944 0 0 0 -0.020065 -0.00930392 0.0867855 0.00253424 0.0113636 -0.0263461 -16.1534 -10.2854 -3.26608 0.00576719 
203 1 1 0.044317 0.0441343 0.0489455 0 0 0 -0.010698 0.0127661 0.0555867 0.00740149 0.0344212 0.0159732 12.7065 -9.59385 4.42436 0.00576719 
252 1 1 -0.0375814 -0.0444356 0.062742 0 0 0 0.0505986 0.0092842 0.0972173 0.0134041 0.0112442 -0.000504319 17.1047 5.10909 -8.99389 0.00576719 
109 1 1 0.0143151 -0.0412487 0.0645658 0 0 0 0.0328228 -0.00983341 0.159964 -0.00851548 0.00384165 0.0190186 16.2081 -18.6857 -3.92027 0.0092275 
189 1 1 0.0288914 -0.0442493 0.0592342 0 0 0 -0.00497479 0.00353588 0.0325461 0.00904216 -0.00822568 0.00577403 -10.406 -12.1256 -8.49486 0.00576719 
186 1 1 0.0439086 -0.044314 0.0653913 0 0 0 -0.0264544 0.00528258 -0.0276225 -0.00162254 -0.00426243 -0.0339242 -4.17401 -4.55292 4.54382 0.00576719 
165 1 1 0.044218 -0.0328879 0.0652811 0 0 0 -0.0138638 0.018459 0.148415 -0.0110905 -0.00568337 0.0129789 34.5406 16.1522 -6.46726 0.00576719 
230 1 1 -0.0427321 -0.0291638 0.0643425 0 0 0 -0.00734649 -0.000254175 0.0544226 0.0267068 0.00016996 0.0058589 -4.47905 -19.0717 23.1929 0.00576719 
75 1 1 -0.0246912 -0.0241469 0.0617603 0 0 0 0.0511196 -0.0193793 0.170134 0.0221664 0.0841126 -0.0118767 11.1512 -0.0784146 4.18394 0.0092275 
247 1 1 0.0386664 -0.0264712 0.057162 0 0 0 0.118593 -0.0647843 0.0760756 0.0227468 -0.0197861 0.0262007 38.2196 -15.1897 26.2202 0.00576719 
59 1 1 0.0228515 -0.0166343 0.066405 0 0 0 0.0857287 -0.0267831 0.190544 0.0648599 -0.158367 0.059065 -1.21062 -5.36656 35.2543 0.0092275 
169 1 1 0.044324 -0.0214659 0.0657142 0 0 0 0.00779286 0.0287595 0.0887271 -0.0101437 0.00766567 0.0331293 -43.7081 7.67125 3.04634 0.00576719 
204 1 1 -0.0195118 -0.00839956 0.0578207 0 0 0 -0.0215893 -0.0100913 0.188161 -0.0198633 0.0206364 -0.0110468 4.52324 -16.1808 -11.0417 0.00576719 
185 1 1 0.00926106 -0.00993296 0.0663055 0 0 0 -0.0135211 -0.00541715 0.209389 0.036319 -0.00943427 0.00294986 30.7138 3.72614 -4.85319 0.00576719 
325 1 1 0.0404623 -0.0107332 0.0647661 0 0 0 -0.00869969 0.0138249 0.0510583 0.0139695 -0.000111034 -0.0243498 39.5761 -13.9798 0.285355 0.00576719 
53 1 1 -0.0283893 0.00113972 0.0649906 0 0 0 -0.0379192 -0.0230671 0.156299 -0.136285 -0.0535679 0.0924324 4.62383 -0.12874 4.59295 0.0092275 
295 1 1 -0.0125498 -0.00177 0.0662737 0 0 0 -0.0488496 0.131329 0.290159 0.0036831 0.0259451 0.0336145 -37.0995 2.21728 -9.23067 0.00576719 