ITEM: TIMESTEP
34650
ITEM: NUMBER OF ATOMS
338
ITEM: BOX BOUNDS mm mm mm
-0.05 0.05
-0.05 0.05
0 0.15
ITEM: ATOMS id type type x y z ix iy iz vx vy vz fx fy fz omegax omegay omegaz radius 
319 1 1 -0.0146569 -0.0442072 0.00607489 0 0 0 -0.00147358 -0.00141639 0.00188948 -0.00252409 -0.00343717 0.00175765 0.270358 -0.304637 0.297325 0.00627993 
243 1 1 -0.00282577 -0.0434944 0.0060385 0 0 0 -0.000721859 -0.000484841 0.00217937 -0.0045084 -0.00108021 0.000977249 -0.0879652 0.0883406 0.0410023 0.00627993 
260 1 1 0.0255173 -0.0437127 0.00608141 0 0 0 -0.00431852 0.000920963 0.000566046 -0.0063181 -2.55052e-06 -0.00229962 -0.239031 -0.204432 -0.0417944 0.00627993 
131 1 1 -0.0256658 -0.0395991 0.00584213 0 0 0 0.000752729 -0.000256662 -0.000697259 0.000611949 -0.00380694 -0.00289285 0.0523464 0.000992796 -0.558354 0.00627993 
173 1 1 -0.0154122 -0.0320148 0.00584528 0 0 0 -0.0033133 0.00481901 -0.00107823 -0.00247647 0.00144239 -0.00430471 -0.808024 -0.483222 -0.420013 0.00627993 
78 1 1 0.0409341 -0.0406339 0.00930527 0 0 0 0.00208998 -0.000170007 0.000911936 0.0062827 -0.00550675 -0.00637346 0.0558519 0.144699 -0.238086 0.0100479 
296 1 1 -0.0275693 -0.0275095 0.00619375 0 0 0 0.00399114 0.00536563 0.00335532 0.00290769 0.0048258 -0.000211754 0.484671 0.189244 0.195786 0.00627993 
275 1 1 -0.00361011 -0.0295657 0.00591508 0 0 0 0.000158591 0.00225808 0.000111525 -0.000162038 -0.00330899 -0.000890857 -0.210808 0.16174 0.0784353 0.00627993 
144 1 1 0.0422683 -0.0250898 0.00609103 0 0 0 0.00345997 0.00182979 0.00118222 -0.000434329 0.00153885 -0.00083084 -0.0524443 0.567003 -0.0230973 0.00627993 
102 1 1 -0.0404762 -0.0172846 0.00901499 0 0 0 -2.33862e-05 0.00721442 0.000660015 0.000995572 0.00533208 -0.00491166 -0.666688 0.0539907 0.268687 0.0100479 
328 1 1 -0.0254444 -0.0155629 0.00577451 0 0 0 0.0003734 0.00840835 -0.00201784 0.000201635 0.000123009 -0.00247669 -1.36721 0.0501532 0.234139 0.00627993 
267 1 1 0.0151773 -0.0202716 0.00602417 0 0 0 0.00379133 0.00420109 -0.000390838 -0.00277452 -0.00509273 0.00408047 -0.581705 0.31522 -0.371839 0.00627993 
202 1 1 0.0445588 -0.0131539 0.006257 0 0 0 0.00467254 0.00168927 -0.000551852 0.00353071 -0.00115401 -0.00323187 -0.137826 0.173912 -0.12437 0.00627993 
257 1 1 -0.0437854 -0.00158909 0.00624085 0 0 0 -0.000376023 0.00191617 0.000977553 -0.00325349 0.0224678 -0.00345561 0.166965 -0.130642 -0.253518 0.00627993 
268 1 1 -0.0321191 0.00280246 0.00626574 0 0 0 0.00187983 0.000684832 0.00530749 0.00928295 0.0141382 -0.00449032 0.432379 -0.113741 0.666646 0.00627993 
274 1 1 -0.0215569 -0.00444633 0.00814612 0 0 0 -0.000114552 0.0108511 -0.0017205 0.0180945 -0.00124262 -0.00259411 1.2438 -0.290447 -0.0126873 0.00627993 
164 1 1 0.0202571 0.00150449 0.0058415 0 0 0 0.00546679 0.00429884 0.00199623 0.000132376 0.00196415 -0.00590391 -0.477156 0.918634 0.0129834 0.00627993 
232 1 1 -0.0436394 0.0115043 0.00625723 0 0 0 0.0151699 0.00396036 0.00707 0.0014661 -0.00141191 -0.00107874 -0.605429 2.44742 -0.74037 0.00627993 
171 1 1 -0.0207429 0.00751499 0.00823822 0 0 0 0.000920605 0.00788987 0.0100237 0.0149786 -0.00944977 -0.00803421 0.639791 0.235915 0.133074 0.00627993 
297 1 1 -0.0247976 0.0188415 0.00592099 0 0 0 -0.00141948 0.00803399 0.00346844 -0.00462399 -0.00362197 -0.00703094 -1.44724 -0.0548369 -0.558022 0.00627993 
222 1 1 -0.0107064 0.0141776 0.00574147 0 0 0 0.00248821 0.0070549 0.00449526 0.00293138 0.00329943 -0.0103053 -1.03649 0.491553 -0.178179 0.00627993 
290 1 1 -0.00067178 0.0211172 0.00563783 0 0 0 0.00181697 0.00331866 0.00077135 0.0012174 0.00691776 -0.00368099 -0.588784 0.026118 0.250954 0.00627993 
316 1 1 0.0323605 0.0193849 0.00572429 0 0 0 0.00163133 0.00246817 -0.00168112 0.000143752 -0.00552157 0.00227497 0.126952 0.389225 0.140942 0.00627993 
162 1 1 0.0443134 0.0197508 0.00588477 0 0 0 0.00321713 0.00472107 -0.00297722 0.00397933 0.00367016 -0.0028193 -0.685309 -0.0300769 -0.242441 0.00627993 
294 1 1 -0.0437689 0.0251257 0.00616839 0 0 0 -0.00960853 0.0240631 0.017387 0.0387158 0.0247263 -0.0625744 -1.54154 -1.20084 13.0196 0.00627993 
175 1 1 -0.0328727 0.0311898 0.0061394 0 0 0 -0.00888911 0.0119027 0.00200243 0.0413406 -0.00988158 -0.0046285 -2.65278 -1.38868 -18.0283 0.00627993 
255 1 1 -0.0147814 0.0255921 0.00606319 0 0 0 -0.000114709 0.00597361 -0.000104119 -0.00179188 0.00194258 -0.00492182 -0.420296 -0.0932844 0.719343 0.00627993 
155 1 1 0.0374938 0.0304356 0.00591766 0 0 0 0.00553818 0.00598996 -0.000769381 -0.00675874 0.00849853 -0.00628905 -0.535399 0.448617 0.575835 0.00627993 
324 1 1 -0.00359816 0.0322398 0.00590929 0 0 0 -0.00228715 0.00046073 0.00251406 -0.00121883 -0.0017906 -0.000419476 0.621021 -0.19141 0.112713 0.00627993 
161 1 1 0.00828564 0.0323196 0.0062789 0 0 0 -0.00070043 -0.00195275 0.00451342 -0.00772966 0.00541218 -0.00468224 -0.558893 0.0757751 0.0554092 0.00627993 
321 1 1 -0.0437839 0.04374 0.0062407 0 0 0 -0.00195113 -0.00169457 0.0018031 -0.000899875 0.00246873 0.000482097 0.0454048 -0.250856 -0.246761 0.00627993 
207 1 1 -0.0313109 0.0436352 0.00625369 0 0 0 -0.00187316 0.00527926 -0.00135874 -0.0016593 0.00956414 -0.00335526 -0.297069 0.639101 1.14987 0.00627993 
149 1 1 0.0112223 0.0439624 0.00575489 0 0 0 0.00173178 -0.000231359 0.00047415 0.000457314 0.0022383 -0.00424613 0.0691444 0.532803 -0.0516185 0.00627993 
249 1 1 0.0278397 0.0439883 0.00613932 0 0 0 0.00466779 0.00315815 0.00208403 -0.00113886 0.000715374 -0.0022392 -0.532309 0.831219 0.414509 0.00627993 
289 1 1 0.0440686 0.0419176 0.00607814 0 0 0 0.00167919 0.000465877 0.00069016 0.00225358 -0.00203943 5.58802e-05 -0.0742972 0.394014 -0.0344835 0.00627993 
299 1 1 -0.0243587 -0.0445408 0.0166916 0 0 0 -0.00174757 -0.000457925 0.00102313 0.00289392 -0.00922382 0.00184042 -0.122854 -0.141694 0.381281 0.00627993 
225 1 1 -0.0117537 -0.0439468 0.0184343 0 0 0 0.00582747 0.0013557 0.0118813 -0.000817383 -0.00368389 0.000176179 1.9647 -8.45307 -0.726716 0.00627993 
130 1 1 0.0208859 -0.0440453 0.0175001 0 0 0 -0.00136566 -0.000459681 0.0070211 0.00172714 -0.00135778 0.00607604 0.809961 -1.48557 0.447447 0.00627993 
74 1 1 -0.0405143 -0.0362924 0.00959713 0 0 0 0.000428897 0.000125718 0.00194874 -0.0206216 -0.0113515 -0.00229825 0.25685 -0.0218172 0.0285035 0.0100479 
60 1 1 0.0102257 -0.0357134 0.00971173 0 0 0 0.00265991 0.000916739 -0.000145483 -0.00809225 0.00191397 0.00586782 -0.246133 0.0845176 -0.247988 0.0100479 
67 1 1 0.0273831 -0.0280626 0.0125761 0 0 0 0.00531536 0.00103257 0.00441014 -0.0153557 -0.0245197 -0.00228507 0.352332 -0.271383 -0.0111759 0.0100479 
40 1 1 -0.0107428 -0.0162226 0.0108997 0 0 0 0.00122962 0.00920448 -0.00166007 -0.00491948 -0.00816871 -0.00212211 -0.456543 0.043334 -0.374254 0.0100479 
279 1 1 0.00419433 -0.0209915 0.010986 0 0 0 0.00298953 0.00669456 0.000396796 -0.00297396 0.000358227 -0.00302138 0.081231 -0.111776 0.131508 0.00627993 
96 1 1 0.011517 -0.00768743 0.015543 0 0 0 0.00493197 0.00786241 0.00646979 -0.0101069 0.00702366 -0.00667318 -0.0185358 -0.314238 -0.244946 0.0100479 
50 1 1 0.0300691 -0.0094906 0.00973032 0 0 0 0.00561914 0.00331493 0.00391187 -0.00846775 -0.00430629 -0.011147 -0.268637 0.307823 -0.137778 0.0100479 
183 1 1 0.0440563 -0.00713373 0.0170837 0 0 0 0.00672385 0.00125895 0.00459802 0.00351845 -0.000856406 0.0040293 0.788245 0.174759 -0.252703 0.00627993 
17 1 1 -0.00527582 0.00207954 0.0140165 0 0 0 0.00472621 0.0102342 0.0056544 -0.00447273 0.000302538 -0.0156764 0.954143 -0.178903 0.0865219 0.0100479 
94 1 1 0.0382113 0.00752486 0.0136014 0 0 0 0.00487203 0.00819749 0.00218081 -0.00459568 -0.00817002 -0.0158818 -0.5254 -0.4988 0.441775 0.0100479 
300 1 1 -0.0440707 0.0187519 0.016845 0 0 0 0.00348305 0.000113049 0.0109916 0.00965378 -0.00330112 -0.0152827 3.34638 -1.95596 -0.469611 0.00627993 
273 1 1 -0.0320271 0.0182223 0.0155977 0 0 0 0.0034895 0.00651593 0.0121001 -0.000879038 -0.00796829 -0.00257767 1.39258 1.12404 0.906712 0.00627993 
286 1 1 -0.00146862 0.0172048 0.0167967 0 0 0 0.0071672 0.0151979 0.00914939 -0.00647716 0.00500413 -0.000998475 -1.42087 0.378705 -0.403402 0.00627993 
98 1 1 0.0122951 0.0138512 0.00981193 0 0 0 0.00606062 0.004732 0.0052077 -0.0104043 -0.0203633 0.00217882 -0.6775 0.585104 0.0212106 0.0100479 
320 1 1 0.00531633 0.0273549 0.0169841 0 0 0 0.00805173 0.0286329 0.0348457 0.000119673 -0.00474396 -0.00631966 -7.14252 0.332158 3.31862 0.00627993 
77 1 1 0.0227784 0.0298653 0.0117824 0 0 0 0.00390911 0.00154432 0.00496816 -0.0551541 -0.0254313 0.0133268 0.442648 -0.0809712 -0.0916317 0.0100479 
284 1 1 0.0442414 0.0274039 0.0155272 0 0 0 0.00485292 0.000895321 0.00162083 0.000418434 -0.00501025 0.00595763 1.53436 -0.167627 -0.493938 0.00627993 
305 1 1 -0.0430912 0.0342873 0.0147008 0 0 0 -0.0978037 0.0374835 0.0884714 0.0105935 -0.0160785 -0.0483706 1.66262 1.65056 -10.7482 0.00627993 
38 1 1 -0.015629 0.0409702 0.00949942 0 0 0 -0.0038392 0.00405871 -0.000197775 -0.0177261 0.00848673 0.000947689 -0.020771 -0.688732 -0.488516 0.0100479 
237 1 1 0.00018053 0.0438003 0.0114626 0 0 0 0.00128965 0.000660272 0.008115 0.00084634 -0.00662004 0.000738297 -1.33321 -0.0386773 0.220591 0.00627993 
239 1 1 0.0189921 0.0444542 0.0148029 0 0 0 0.00118208 0.00161301 0.00517432 -0.00302357 0.00322798 0.00262322 -0.179792 -1.04799 0.493525 0.00627993 
331 1 1 -0.0428007 -0.0448451 0.0217425 0 0 0 -0.00207659 -0.00354219 0.00125336 -0.00380101 -0.00847386 0.000624842 0.0961006 -0.498124 0.053764 0.00627993 
242 1 1 0.000625121 -0.0441568 0.0190384 0 0 0 0.0134644 0.00101115 0.023791 -0.00395275 -0.00665931 0.00383807 3.65155 7.33628 -2.35925 0.00627993 
167 1 1 0.0319425 -0.0441293 0.0220998 0 0 0 0.000186472 -0.00129047 0.00933401 -0.00272535 -0.000430598 -0.00223843 1.15186 1.08261 -0.113665 0.00627993 
136 1 1 0.0439407 -0.0444269 0.0240067 0 0 0 0.00206986 -0.0016233 0.0025752 0.00493452 -0.00644478 0.00454316 0.00228323 0.00674492 0.125964 0.00627993 
180 1 1 -0.0439005 -0.0336616 0.0263381 0 0 0 0.000586356 0.000672814 0.00205697 0.00253864 0.000246221 -0.000119642 -0.13701 -0.151389 -0.278984 0.00627993 
256 1 1 -0.0323426 -0.0394534 0.0248625 0 0 0 -0.00335277 -0.000381243 0.00683168 -0.00623919 -0.00467491 -0.0016006 0.198076 0.100653 0.443847 0.00627993 
179 1 1 -0.0342883 -0.0261399 0.0203881 0 0 0 -0.00135224 0.00870109 0.0101852 0.00932679 -0.0104734 0.00203518 -0.424632 -0.106228 -0.657449 0.00627993 
7 1 1 -0.0198393 -0.0303598 0.0208473 0 0 0 -0.00277765 0.00631059 0.00382517 -0.0141933 -0.0135697 0.0123615 0.468067 0.385098 0.0658346 0.0100479 
104 1 1 -0.000664905 -0.0285314 0.0241641 0 0 0 0.00430045 0.00341914 0.00458805 -0.0143885 0.00245042 0.00377316 0.569987 0.207046 -0.218139 0.0100479 
128 1 1 -0.044517 -0.0217487 0.0234945 0 0 0 -0.0023137 0.00617272 0.00599321 -0.0142884 0.00269968 0.00614498 0.716633 -0.688761 0.858145 0.00627993 
278 1 1 0.0327662 -0.0172703 0.0232132 0 0 0 0.00134607 0.00769121 0.0142852 0.00379536 0.00166039 0.00101458 -0.955255 -1.20576 -0.590282 0.00627993 
146 1 1 -0.044445 -0.00939629 0.0215071 0 0 0 -0.00702862 0.00833974 0.00702576 0.0023185 -0.00802144 0.00745402 1.28787 -0.874732 1.66147 0.00627993 
19 1 1 -0.025972 -0.0125658 0.0265696 0 0 0 -0.00852668 0.0149487 0.012316 -0.0127249 -0.016093 -0.0207592 1.03449 2.13997 -0.10282 0.0100479 
258 1 1 0.00101382 -0.0126684 0.0267308 0 0 0 3.3965e-05 0.00772304 0.00693189 -0.00525783 0.00144457 0.00152698 -0.748285 -0.870343 0.957612 0.00627993 
25 1 1 -0.0374379 0.00444405 0.0216553 0 0 0 -0.000561276 0.0100402 0.0135037 0.0280477 -0.0246964 -0.025738 0.0835559 1.37617 -2.12684 0.0100479 
28 1 1 -0.0164302 0.0175817 0.0199779 0 0 0 0.00630316 0.0138403 0.0142861 -0.015638 -0.00321885 -0.0258312 -0.580123 0.296747 0.352208 0.0100479 
261 1 1 0.0437972 0.0152315 0.0264275 0 0 0 -0.00896235 0.0209799 0.0120113 0.00938521 -0.00662724 -0.00448952 1.93023 0.414703 4.79494 0.00627993 
246 1 1 -0.0439138 0.0260834 0.0269182 0 0 0 0.000108602 -0.00256528 0.00898967 -0.00643419 -0.0141737 0.00556717 -2.00322 -0.518033 -0.269419 0.00627993 
23 1 1 -0.0279015 0.0325808 0.0214294 0 0 0 -0.00333439 0.00923886 0.00551451 -0.0126998 0.0100844 -0.0283177 -1.28008 0.744551 0.951475 0.0100479 
61 1 1 0.0367354 0.0406376 0.0201362 0 0 0 0.00396013 0.00256615 0.00627114 -0.0243152 0.0330286 0.0172947 -0.431782 -0.079582 0.39058 0.0100479 
224 1 1 -0.0438914 -0.0440823 0.0338636 0 0 0 0.00187155 -0.0022784 0.0015221 0.000618913 -0.000917001 0.0072401 -0.047535 0.91983 -0.297966 0.00627993 
125 1 1 0.0437471 -0.0437304 0.0365072 0 0 0 -0.00254571 -0.00771499 0.00785254 0.00538394 0.0039908 0.00207874 0.994992 -0.884902 0.249429 0.00627993 
42 1 1 -0.0118662 -0.0403213 0.0351261 0 0 0 7.52284e-05 0.000358497 0.00101312 -0.00402241 -0.0100852 -8.8538e-05 0.0798199 -0.162007 -0.215376 0.0100479 
271 1 1 0.0308116 -0.0403943 0.0335353 0 0 0 0.00571912 -0.00174482 0.0147486 9.09903e-05 -0.0017372 -0.00467942 -1.03813 -0.164841 0.154493 0.00627993 
51 1 1 0.0177244 -0.0239559 0.029154 0 0 0 0.00740477 0.0101979 0.0126539 0.00392616 0.0265258 0.00284796 0.131358 -0.716398 0.886564 0.0100479 
120 1 1 0.0406373 -0.0298585 0.0285392 0 0 0 0.00114126 0.00111779 0.011702 0.00106082 0.00693758 -0.0100048 0.8811 1.12068 -0.00942575 0.0100479 
178 1 1 -0.0126295 -0.0205294 0.0309093 0 0 0 -0.0019934 0.00979745 0.00591198 -0.00334115 0.00458845 0.00544772 -1.80373 -1.10479 0.0231661 0.00627993 
134 1 1 0.0440242 -0.0150184 0.0319231 0 0 0 -0.0019287 0.00549275 0.0110185 0.00301257 -0.00150963 0.00188294 -1.17326 1.10341 1.34564 0.00627993 
310 1 1 -0.0105656 -0.00910766 0.0288622 0 0 0 0.00148133 0.00702216 -0.000694931 0.00151941 -0.00130719 -0.00359716 0.917357 -0.277946 -0.792253 0.00627993 
18 1 1 0.0130179 -0.00564041 0.0350616 0 0 0 -0.00189084 0.00981241 0.0169108 -0.00336575 -0.00184696 0.019684 0.0915491 -0.339954 -0.673058 0.0100479 
184 1 1 0.0279518 -0.00921766 0.031189 0 0 0 -0.00277693 0.0101984 0.0142586 0.00213425 -0.00707959 -0.00199183 0.291604 0.912386 1.41103 0.00627993 
112 1 1 -0.0182844 0.0038873 0.0336979 0 0 0 0.0172389 0.00998509 0.022442 -0.0223773 -1.03411e-05 -0.0407959 1.09472 1.56516 -0.984448 0.0100479 
160 1 1 -0.002065 -0.000802956 0.0297653 0 0 0 0.00668473 0.00320565 0.00417157 -0.00792135 0.00237248 0.00470229 2.57261 2.6109 0.193682 0.00627993 
55 1 1 0.0405415 0.000287234 0.0316118 0 0 0 0.0014454 0.0102774 0.00815541 0.0190113 -0.0329886 0.01917 0.18241 0.52123 -1.40437 0.0100479 
100 1 1 0.00698304 0.0120192 0.0287237 0 0 0 0.00231003 0.0130636 0.0197047 -0.0114074 0.0190078 0.00694218 0.787947 -1.08878 0.562318 0.0100479 
95 1 1 0.0244371 0.0101596 0.0364014 0 0 0 0.00249828 0.0107417 0.0337038 0.0084189 0.00591277 -0.0561716 1.99064 0.073513 0.694302 0.0100479 
2 1 1 -0.0315763 0.0184221 0.0338233 0 0 0 0.0101722 0.0137691 0.0261549 -0.0311175 0.0127938 0.00268447 -0.859436 -0.569204 1.27183 0.0100479 
69 1 1 -0.00439787 0.0297323 0.0296941 0 0 0 0.00338224 0.00382447 0.0451219 -0.0515859 0.0454957 -0.00174652 4.88624 0.677969 1.30511 0.0100479 
108 1 1 0.0266755 0.0283905 0.0313449 0 0 0 0.00271608 0.00882591 0.0268373 -0.0117998 0.0211574 0.00684953 -2.20472 0.875763 -0.623706 0.0100479 
16 1 1 0.0121182 0.0406816 0.028421 0 0 0 0.000397952 0.00517336 0.0156899 -0.019672 -0.00401044 0.0144198 -1.62602 0.901647 0.104741 0.0100479 
9 1 1 -0.0406724 0.0410876 0.0320396 0 0 0 -0.00156453 0.00446014 0.00350221 -0.0130578 0.00896012 -0.0284247 0.041521 -0.196391 0.203872 0.0100479 
323 1 1 -0.011319 0.0440656 0.0299154 0 0 0 -0.00804279 0.00259807 0.00695887 -0.00340541 0.00790407 -0.0249545 -1.19156 -29.5876 -1.04111 0.00627993 
329 1 1 -0.0232911 -0.0444011 0.0448787 0 0 0 -0.00157149 -0.0019506 0.00183729 -0.00874795 -0.0052723 0.00323057 0.207219 0.551138 -0.0670047 0.00627993 
168 1 1 0.00187176 -0.0444606 0.0398146 0 0 0 -0.000525983 -0.00116019 0.00071914 -0.00247727 -0.00478517 0.0059901 -0.0767954 0.398017 0.235287 0.00627993 
283 1 1 0.0309827 -0.0441956 0.0449138 0 0 0 0.000273627 -0.00423273 0.0143413 0.0107445 -0.0132147 -0.00362103 1.75716 -0.951368 0.426673 0.00627993 
211 1 1 -0.0438271 -0.0328814 0.0385501 0 0 0 0.00296337 -0.00441844 0.00763907 -6.90847e-05 -0.00054659 0.00364241 1.2848 0.573006 0.770092 0.00627993 
191 1 1 0.0033093 -0.0322738 0.0401294 0 0 0 -0.00267517 0.00524568 -0.00438283 -0.00765095 -0.00291018 -0.000800265 -0.543088 -1.31015 -0.0275113 0.00627993 
3 1 1 0.0166479 -0.0405648 0.0396199 0 0 0 0.000284464 9.51563e-05 0.00760045 -0.00819884 -0.0130661 0.00439546 0.758726 -0.848181 -0.186673 0.0100479 
93 1 1 -0.0266214 -0.0294356 0.0416843 0 0 0 -0.000799132 0.00404122 0.0152255 -0.00564231 0.0373959 0.00754648 1.33755 0.538691 0.134634 0.0100479 
43 1 1 -0.0085945 -0.0240651 0.0459339 0 0 0 0.00449784 0.00608137 0.0158477 0.0267664 0.0247764 0.00721066 1.53754 1.02725 0.441726 0.0100479 
105 1 1 0.0304628 -0.0282736 0.0455922 0 0 0 -0.00236538 -0.00010628 0.0254777 0.0177576 -0.00751157 -0.014935 -0.17508 -0.871642 0.0713362 0.0100479 
66 1 1 -0.0408876 -0.0172219 0.0382749 0 0 0 -0.00458856 0.00365615 0.0158869 -0.0015611 0.0179726 0.0132625 -0.141608 -1.47425 0.359044 0.0100479 
259 1 1 0.0247831 -0.0140908 0.0418516 0 0 0 8.68888e-05 0.00328097 0.0210035 0.0039341 0.00273424 0.00570199 0.136185 -0.164625 -0.054417 0.00627993 
336 1 1 -0.0208367 -0.0122967 0.0419112 0 0 0 0.0255346 -0.0300667 0.0178241 0.000201356 0.00149539 0.000825836 11.1864 1.39004 14.8747 0.00627993 
245 1 1 0.000867621 -0.0124776 0.0418357 0 0 0 -0.00543659 0.0163989 0.0179557 0.000518873 -0.000936389 -0.00152276 -0.0476022 0.882337 0.0206203 0.00627993 
107 1 1 -0.0380924 0.00159807 0.0411541 0 0 0 0.00606475 0.00316504 0.0257402 -0.00629493 0.0181233 -0.00416692 1.0779 0.248923 -1.26023 0.0100479 
303 1 1 0.0269988 -0.00263747 0.0451489 0 0 0 0.000227117 0.00442032 0.023265 -0.00150125 0.00276689 -0.00089835 -0.526298 -1.07312 -0.334795 0.00627993 
318 1 1 0.0439452 0.00428974 0.0468404 0 0 0 0.00520633 0.00589203 0.0175625 -0.00541561 0.00537703 0.00933428 1.77164 2.51411 -0.851362 0.00627993 
4 1 1 -0.00365132 0.0135941 0.0452977 0 0 0 0.00738159 0.0111838 0.0378168 -0.0588469 0.0194796 -0.0029099 0.354447 1.5604 -3.22855 0.0100479 
208 1 1 -0.0443603 0.0160585 0.0425519 0 0 0 0.000470861 0.00674941 0.0189808 -0.0102928 0.00807131 0.00807257 -1.74429 -2.61407 1.46651 0.00627993 
282 1 1 -0.0187314 0.0168537 0.043109 0 0 0 0.00513749 0.0118643 0.0427344 -0.00748345 -0.00896863 -0.00636029 0.438647 -1.31741 4.80547 0.00627993 
58 1 1 0.0406481 0.0190414 0.0416245 0 0 0 0.00910678 0.0116773 0.0235655 0.0258256 -0.0165661 -0.021016 -0.994759 2.28401 -1.0413 0.0100479 
199 1 1 -0.0441502 0.0277966 0.0398086 0 0 0 -0.00318164 0.00378258 0.006734 -0.003364 -0.00139205 -0.00245611 -0.741763 -1.46529 0.492819 0.00627993 
192 1 1 -0.0237485 0.0274747 0.0437609 0 0 0 -0.0207435 -0.00516797 0.080572 0.00955931 -0.00484473 -0.0161874 10.2507 -5.21318 -0.152667 0.00627993 
73 1 1 0.0104478 0.0269965 0.0426391 0 0 0 0.0164405 0.0058784 0.0407209 -0.0768704 -0.00349892 0.0987492 0.560931 -0.264992 2.15187 0.0100479 
292 1 1 -0.0125031 0.0319972 0.0435385 0 0 0 -0.0167577 -0.00676965 0.0544943 -0.00383178 0.00391178 -4.03372e-05 -0.849372 13.3598 -0.419513 0.00627993 
114 1 1 0.0401886 0.0400719 0.0396652 0 0 0 0.0110054 0.00237768 0.014271 0.0172586 -0.0355582 0.0561898 1.46958 1.09447 -0.232163 0.0100479 
126 1 1 -0.0103884 0.0439911 0.0443206 0 0 0 -0.00496402 -0.00123838 0.0192911 -0.00849955 0.00478648 0.00992742 -2.94271 0.324364 -0.596646 0.00627993 
248 1 1 0.000773537 0.0437894 0.0393512 0 0 0 0.000680564 -0.00118682 0.0200672 -0.0213173 0.0033756 -0.0150718 2.52631 -0.589989 0.537454 0.00627993 
229 1 1 0.0120961 0.0440194 0.0442816 0 0 0 0.0147937 0.00923794 0.00809321 -0.0169433 0.00412598 0.0159708 -0.23742 2.84355 2.58172 0.00627993 
314 1 1 -0.0163497 -0.0441943 0.0547889 0 0 0 -0.00341468 -0.00321581 0.00447319 0.000809901 -0.00192257 0.00384171 0.506728 -1.46377 0.454353 0.00627993 
265 1 1 0.0229345 -0.0438191 0.0543178 0 0 0 0.00111185 -0.0012269 0.0164353 -0.00133027 0.00241842 -0.008035 0.130013 1.54017 -2.84304 0.00627993 
84 1 1 -0.0406619 -0.0330755 0.0542519 0 0 0 -0.00224371 -0.000572911 0.0145377 0.00119221 -0.00317955 0.00954404 -1.34926 -1.14023 0.00851738 0.0100479 
307 1 1 -0.0183942 -0.0323568 0.0552683 0 0 0 0.00326681 -0.00623207 0.0144011 0.00638393 -0.0117997 0.00588846 0.941796 0.330638 -1.48155 0.00627993 
337 1 1 -0.00596629 -0.0394847 0.0502113 0 0 0 0.0063711 -0.00924484 0.00188397 -0.00902987 -0.00051966 0.00108184 0.0170605 1.56548 -2.50739 0.00627993 
326 1 1 0.0443027 -0.0256338 0.0524071 0 0 0 0.00378622 0.00202522 0.0184762 0.0169241 -0.00139323 -0.000160355 -1.36867 2.82558 -0.878989 0.00627993 
52 1 1 0.0121104 -0.0220093 0.0482467 0 0 0 -0.00859068 0.00506218 0.016324 -0.00529385 -0.0281412 -0.00141316 1.10494 -0.779839 -0.501981 0.0100479 
332 1 1 0.0260643 -0.0152169 0.0539863 0 0 0 -0.000815173 0.00278939 0.0283719 -8.38588e-07 -0.00465243 0.00654996 0.237362 -0.0720796 -0.165327 0.00627993 
220 1 1 -0.043735 -0.00908599 0.0521006 0 0 0 0.00468273 -0.00738336 0.0365127 -0.0030439 0.012502 0.00187957 4.1008 3.43803 -2.29414 0.00627993 
240 1 1 0.0169623 -0.00732213 0.051176 0 0 0 0.00300572 0.00353392 0.0506277 0.00534026 0.00120594 0.000952893 3.85937 1.28737 -0.49174 0.00627993 
5 1 1 0.0402239 -0.0111876 0.0475698 0 0 0 0.00166656 0.00301616 0.0165986 0.0209556 0.00556218 0.0266851 -0.130061 1.49221 -0.223165 0.0100479 
133 1 1 -0.0285005 -0.003226 0.0530815 0 0 0 0.00525564 -0.00283518 0.0410321 0.00528479 0.000766012 0.00640229 -1.98445 -3.6273 2.6427 0.00627993 
24 1 1 -0.00970384 -0.0043736 0.0505859 0 0 0 0.000311775 0.00866069 0.0432231 -0.00742229 0.0102394 -0.0209888 0.57719 2.25371 1.32358 0.0100479 
236 1 1 -0.0246795 0.00738953 0.0482068 0 0 0 0.0127863 -0.00283379 0.0363986 -0.000252231 -0.0153043 0.0065724 -0.74112 -2.33052 -0.821214 0.00627993 
15 1 1 0.0137604 0.00795159 0.0526559 0 0 0 0.00217442 0.00586519 0.0428481 -0.0335675 -0.024008 -0.0651888 -3.31862 -0.808758 0.653369 0.0100479 
298 1 1 0.0293687 0.0129091 0.0516913 0 0 0 0.0101989 0.0214173 0.0474594 0.00580255 0.00149587 -0.00919952 -4.25698 0.510399 -0.0784869 0.00627993 
291 1 1 0.044004 0.0129872 0.0559922 0 0 0 -0.00899328 0.0121802 0.043682 -0.0133228 0.00371783 0.0329261 -3.00858 -3.98746 -5.68467 0.00627993 
335 1 1 -0.0341014 0.0158693 0.0496962 0 0 0 -0.00485395 0.0130708 0.0373612 0.00498038 -0.00113163 0.000141881 0.0369067 -2.36931 4.71002 0.00627993 
266 1 1 0.0210749 0.0219758 0.0559348 0 0 0 -0.00167353 0.02762 0.0590959 0.0116447 -0.00477774 0.00371766 10.755 6.57842 2.30675 0.00627993 
262 1 1 -0.0352511 0.028189 0.0484011 0 0 0 -0.0389048 0.00931367 0.0452406 -0.000445452 0.00435564 -0.0101046 1.83878 -6.4899 1.47423 0.00627993 
122 1 1 -0.0253924 0.0406097 0.0516562 0 0 0 -0.0378324 0.00248801 0.0705211 0.0463978 -0.0064265 -0.0353453 -7.03735 -7.63365 -4.09398 0.0100479 
47 1 1 0.0240601 0.0374916 0.0525767 0 0 0 0.00807956 0.0444259 0.0519872 0.0483982 -0.00895993 -0.0338371 -7.09756 -3.59175 -2.08733 0.0100479 
327 1 1 -0.043767 0.0437479 0.04778 0 0 0 0.0108235 0.00589848 0.0198769 -0.00144796 -0.00973307 -0.00706928 -2.26203 1.70532 1.3043 0.00627993 
203 1 1 0.041774 0.0439862 0.0551177 0 0 0 -0.0108465 0.00626888 0.0274105 0.00899196 -0.00121668 0.0123415 -3.90994 -6.89657 -1.34015 0.00627993 
190 1 1 -0.0065816 -0.0439532 0.0622209 0 0 0 -0.00708356 -0.00345235 0.00854444 0.00149007 -0.00146383 0.00114539 1.11302 1.27598 0.658286 0.00627993 
56 1 1 0.00801639 -0.038777 0.0581819 0 0 0 -0.00531206 0.00304336 0.0305972 0.0233686 -0.0412028 -0.0249684 -2.92647 -4.20196 1.38883 0.0100479 
49 1 1 0.0405212 -0.0404927 0.0569008 0 0 0 0.00201686 -0.00401256 0.0190688 0.0140859 -0.00843455 -0.000959197 1.57869 1.60955 0.116928 0.0100479 
313 1 1 -0.0133982 -0.0279629 0.0655958 0 0 0 -0.00326702 -0.0444563 0.0365938 -0.0132012 -0.0169754 0.0250002 4.80704 -3.70706 -1.23357 0.00627993 
137 1 1 -0.00149401 -0.0237769 0.0605958 0 0 0 0.0225399 0.0233405 0.0152104 -0.0610426 -0.0213335 -0.0400444 1.84317 1.29148 13.0931 0.00627993 
91 1 1 0.0229943 -0.0271867 0.0639865 0 0 0 -0.0137622 0.0109242 0.0365527 0.0326745 -0.0407019 -0.00927603 -1.1818 0.155658 -1.6139 0.0100479 
247 1 1 0.0389836 -0.025793 0.0637854 0 0 0 -0.00566089 -0.00555875 0.041367 -0.000213159 -0.00259986 0.0252595 2.71722 -1.05819 -0.0904575 0.00627993 
81 1 1 -0.0227908 -0.017224 0.0579366 0 0 0 0.0108626 -0.00852786 0.0455086 0.0213879 0.0125332 0.0325641 2.04725 0.201947 -0.487614 0.0100479 
217 1 1 0.0441014 -0.014664 0.062732 0 0 0 -0.00276928 -0.000143915 0.0305289 -0.00322391 -0.0062041 0.0172948 -2.69634 4.92963 -0.415182 0.00627993 
10 1 1 0.00487347 -0.00606549 0.0638204 0 0 0 -0.0101861 0.00609397 0.0693285 -0.0261263 0.0116955 0.0154825 2.06891 -4.97019 0.628497 0.0100479 
197 1 1 -0.0203499 8.89607e-05 0.0619171 0 0 0 0.0110053 0.00376911 0.0561001 0.000728419 0.0163744 0.00287087 -2.71043 0.0113743 1.19654 0.00627993 
87 1 1 0.0286539 0.000413762 0.0629912 0 0 0 -0.00655637 0.00741761 0.0714875 -0.0251988 -0.0309532 -0.0563014 1.52284 -0.569747 -0.965816 0.0100479 
148 1 1 0.044145 -0.00246941 0.0611274 0 0 0 -0.00361213 0.00258761 0.0340572 0.00333545 0.00510105 -0.00534443 3.43329 5.75148 -0.252906 0.00627993 
32 1 1 -0.039737 0.00527974 0.0605801 0 0 0 0.00655931 -0.000252751 0.041335 -0.0175602 -0.00609988 -0.0156438 1.10903 2.77308 -1.84528 0.0100479 
115 1 1 -0.00446817 0.0114449 0.0649419 0 0 0 0.00656544 0.0215359 0.0549895 -0.0094997 -0.0243012 0.0298161 -0.803961 -0.770175 -3.08581 0.0100479 
117 1 1 -0.0214896 0.0215145 0.0585896 0 0 0 0.00124249 -0.00663294 0.0695802 -0.0241453 -0.0197408 -0.00791484 -5.65356 6.14211 -2.12509 0.0100479 
140 1 1 0.00816931 0.0201774 0.0607096 0 0 0 0.0154439 0.00598966 0.0532299 -0.00840979 -0.00486647 -0.0191461 5.62786 5.26405 0.255832 0.00627993 
39 1 1 -0.0402837 0.0248999 0.0635354 0 0 0 0.00485091 0.00977951 0.0691435 -0.0332371 -0.0145792 -0.0098341 2.11687 -6.23594 1.12013 0.0100479 
99 1 1 -0.00370423 0.0298605 0.0567548 0 0 0 0.00250887 -0.00308625 0.0541553 -0.0590408 0.0174362 0.0220858 1.38163 -6.45686 2.14066 0.0100479 
106 1 1 0.0402303 0.0284143 0.0592543 0 0 0 0.00417601 0.0120414 0.0424339 -0.0391144 0.0342334 -0.0273806 6.88934 4.89975 -1.02747 0.0100479 
174 1 1 -0.0431227 0.0429924 0.0602834 0 0 0 -0.0697055 -0.0104924 0.0374031 0.00657776 -0.00350152 -0.0223006 5.72508 -14.2 7.31408 0.00627993 
315 1 1 -0.0114064 0.0438495 0.0593286 0 0 0 -0.00914142 0.00223321 0.0420976 0.00172731 0.00555638 0.00034686 -6.61583 14.6807 -1.80082 0.00627993 
158 1 1 0.00194102 0.0440001 0.0616605 0 0 0 -0.00496537 0.00593275 0.0333971 0.00117917 0.00245996 -0.00271873 -5.25904 12.6516 -1.08891 0.00627993 
189 1 1 0.0275709 -0.0438082 0.0658121 0 0 0 -0.00874779 0.00445894 0.0209947 0.00503133 -0.00803125 -0.00118745 -3.35024 -3.63586 -1.67371 0.00627993 
186 1 1 0.0437882 -0.0438677 0.0723524 0 0 0 -0.00386371 0.000177187 0.0356384 -0.00133484 0.0104219 0.0121501 6.37324 -1.45591 0.706636 0.00627993 
230 1 1 -0.0398395 -0.0326284 0.0716267 0 0 0 -0.00647569 -0.00817196 0.040734 -0.00555826 -0.00468057 0.00814259 -6.35517 0.357028 4.66309 0.00627993 
6 1 1 -0.02667 -0.0403116 0.0663572 0 0 0 0.0043765 -0.00602585 0.0198429 -0.0105749 -0.00193544 0.00983891 1.56192 2.03086 -1.01788 0.0100479 
227 1 1 0.00746705 -0.0265001 0.0689222 0 0 0 -0.0322855 0.0457154 0.00304223 0.0630453 0.00568432 0.0269772 1.80977 -6.85787 -3.44296 0.00627993 
165 1 1 0.0438189 -0.0314607 0.0737239 0 0 0 -0.0017647 -0.0019018 0.0466069 0.00450311 -0.00657038 0.0444064 -4.6545 2.8611 -1.21661 0.00627993 
36 1 1 -0.0404586 -0.0174942 0.0665641 0 0 0 -0.00257699 -0.00950753 0.0264026 0.00304786 0.0173265 0.0212919 2.74856 -2.40714 -1.89986 0.0100479 
215 1 1 0.0324998 -0.0147048 0.0667659 0 0 0 -0.00498924 0.000574192 0.0494865 -0.00604951 -0.0044107 -0.0114698 2.31028 -2.10656 1.13292 0.00627993 
169 1 1 0.0437796 -0.0189757 0.0743165 0 0 0 -0.0113209 0.00327203 0.0440798 -0.00638415 0.0124838 0.0289371 1.41525 -5.51451 -2.41897 0.00627993 
182 1 1 -0.029983 -0.00533726 0.0675498 0 0 0 0.0110109 -0.0040525 0.0531312 -0.000325099 0.0108418 0.00734977 -3.78174 -2.70324 2.39716 0.00627993 
204 1 1 -0.0187538 -0.00794436 0.0720511 0 0 0 0.0196469 -0.0128277 0.0434765 -0.00500534 -0.000497198 0.0107097 -6.87011 7.20623 -8.40766 0.00627993 
276 1 1 0.0193412 -0.0119136 0.0676786 0 0 0 -0.00807334 0.00263921 0.0636522 0.000530676 -0.00871079 -0.015128 4.66423 4.76889 0.769259 0.00627993 
306 1 1 -0.0438656 -0.00337702 0.0736109 0 0 0 -0.00123032 -0.00928279 0.0390461 -0.000815552 0.0012265 0.000774518 0.120831 -4.90803 -1.60345 0.00627993 
57 1 1 -0.0213585 0.00984363 0.074799 0 0 0 0.0112094 0.0134438 0.0709631 -0.0132554 0.0120267 0.0457786 1.83401 2.08824 3.08379 0.0100479 
338 1 1 0.0410414 0.0096347 0.0674815 0 0 0 -0.00648093 0.00415389 0.0612547 -0.0340153 -2.75448e-05 0.00368922 4.27078 5.79385 4.34059 0.00627993 
263 1 1 0.0112146 0.0167905 0.0725457 0 0 0 -0.0265837 -0.0233829 0.0903136 0.00322635 -0.0427975 -0.0200127 -0.737879 -1.72272 -3.98261 0.00627993 
45 1 1 0.0278054 0.0184919 0.0712578 0 0 0 -0.0241298 0.0325077 0.0322641 -0.165821 -0.105348 0.125708 -7.27303 -7.44158 -1.14256 0.0100479 
322 1 1 0.0438829 0.0203762 0.0728908 0 0 0 -0.00174544 -0.00900757 0.062663 -0.0264378 0.000291568 0.0231361 1.12276 10.7436 1.85398 0.00627993 
35 1 1 -0.0264289 0.0385087 0.0712205 0 0 0 -0.0566825 0.0484235 0.0859077 0.0589443 0.0608152 -0.0318967 1.96846 4.40577 16.0047 0.0100479 
113 1 1 0.0109242 0.0327066 0.0699547 0 0 0 -0.0379869 -0.0196141 0.121035 -0.0173669 -0.133591 0.0423095 3.78298 -5.25029 5.17956 0.0100479 
76 1 1 0.0289682 0.0402405 0.0718299 0 0 0 -0.0379781 0.00793261 0.116388 0.0291723 -0.0683378 0.0719936 -12.6435 1.88387 -3.60144 0.0100479 
195 1 1 0.0438805 0.0327284 0.0743609 0 0 0 -0.0125021 -0.0220421 0.0686959 -0.0289239 0.0193858 0.04351 0.181338 9.31393 3.96063 0.00627993 