ITEM: TIMESTEP
29050
ITEM: NUMBER OF ATOMS
338
ITEM: BOX BOUNDS mm mm mm
-0.05 0.05
-0.05 0.05
0 0.15
ITEM: ATOMS id type type x y z ix iy iz vx vy vz fx fy fz omegax omegay omegaz radius 
319 1 1 -0.014814 -0.0440616 0.00598065 0 0 0 -0.00631755 0.00491318 0.00502492 0.00390864 -0.00271654 0.0240523 1.10638 0.0532358 0.866494 0.00605301 
243 1 1 -0.00293786 -0.0430527 0.00596114 0 0 0 -0.0134508 0.00798473 0.0149859 0.00439831 -0.00210113 0.012286 -0.968791 -2.75398 -0.29112 0.00605301 
260 1 1 0.0258017 -0.0437689 0.00599208 0 0 0 -0.00139741 0.0102961 0.00727672 -0.00912218 0.00622695 0.00907636 -1.85659 -0.180013 1.99712 0.00605301 
74 1 1 -0.0405833 -0.0363926 0.00940876 0 0 0 0.00386214 0.00163254 0.0060049 -0.0925642 -0.00771407 -0.0112556 -0.77302 -0.139377 0.211325 0.00968481 
131 1 1 -0.0259383 -0.0397335 0.00572961 0 0 0 0.0034832 0.00835035 0.00624515 -0.0212068 -0.00247457 0.00432505 -2.31326 0.842862 0.027512 0.00605301 
173 1 1 -0.0151858 -0.0320825 0.00581817 0 0 0 -0.00889062 0.014878 -0.00521607 -0.000710189 0.0133682 -0.00109826 -1.59272 -2.09619 -8.1918 0.00605301 
78 1 1 0.0408533 -0.0406568 0.00922883 0 0 0 0.00468348 0.0104617 0.00445486 -0.022535 0.0166546 0.03732 -1.49463 0.328078 -1.78968 0.00968481 
296 1 1 -0.0279287 -0.0278345 0.0060075 0 0 0 -0.010764 0.00870243 0.00339451 -0.00497668 -0.0038046 0.00163165 -1.82019 -1.59906 3.25998 0.00605301 
275 1 1 -0.00357791 -0.0297722 0.00587303 0 0 0 0.000970932 -0.0117567 0.00406556 0.0129355 0.00272623 -0.0113861 3.53684 1.19104 4.02005 0.00605301 
144 1 1 0.0418486 -0.0248058 0.0060323 0 0 0 0.0216038 -0.080755 0.00342804 -0.000157418 -0.00199951 0.00277724 13.5715 3.55116 -6.82092 0.00605301 
102 1 1 -0.0405832 -0.0178101 0.00894321 0 0 0 -0.00560398 0.00534675 -0.00350376 -0.0024677 -0.020093 -0.0116387 -0.329475 -0.323027 1.14102 0.00968481 
328 1 1 -0.0256709 -0.0160597 0.00581735 0 0 0 -0.00458011 -0.00588764 0.00870503 0.00246527 -0.0060315 0.00551451 1.88874 -2.0817 -5.27033 0.00605301 
267 1 1 0.0150381 -0.0207187 0.00601661 0 0 0 0.00282923 0.0205337 -0.0132154 -0.0061909 0.00347438 -0.00505481 -3.44316 -1.94731 -5.2063 0.00605301 
274 1 1 -0.0207601 -0.0053093 0.00608782 0 0 0 -0.0180231 0.0078914 0.0370771 -0.000821283 -0.00452435 0.0161844 2.76896 3.24171 9.92069 0.00605301 
202 1 1 0.0442396 -0.0129075 0.0062181 0 0 0 0.0130449 -0.0469372 0.0259327 0.0103296 0.00966694 -0.0286012 -6.27427 4.5099 7.54248 0.00605301 
257 1 1 -0.0425392 -0.00241931 0.00603099 0 0 0 0.011517 0.025864 0.00306618 -2.43207e-05 0.000391578 0.00620299 -5.37713 1.81938 0.886129 0.00605301 
164 1 1 0.0200799 0.00152984 0.00573761 0 0 0 0.0413243 0.00563552 -0.00833059 0.0131085 0.0185879 0.0183175 -1.73807 6.70285 8.58671 0.00605301 
268 1 1 -0.0309214 0.00835877 0.00629873 0 0 0 -0.0548847 -0.16481 0.00554408 -0.0437246 -0.0951957 -0.0601359 -12.6056 -3.3496 39.3926 0.00605301 
171 1 1 -0.0191401 0.00639915 0.00598236 0 0 0 -0.0251965 0.0147604 0.0174049 -0.020528 -0.00375524 0.0217926 -4.55231 3.82409 -9.14187 0.00605301 
232 1 1 -0.0388804 0.0172529 0.00582866 0 0 0 -0.0431761 -0.158496 0.0146394 -0.0150122 -0.0719183 -0.0417839 26.8004 -6.94156 -40.6782 0.00605301 
297 1 1 -0.0231424 0.0177965 0.00612563 0 0 0 -0.0795801 0.0233118 -0.0431849 0.0187509 0.0121858 -0.0198818 -2.82881 -6.94712 3.46713 0.00605301 
222 1 1 -0.010604 0.0145655 0.00580383 0 0 0 0.00264519 -0.0137943 -0.00523211 0.01181 0.0172447 -0.00160041 1.40555 0.447503 2.89637 0.00605301 
290 1 1 -0.000415988 0.0207891 0.00567325 0 0 0 -0.00711517 -0.0107731 -0.00632302 -0.00600821 -0.00942549 -0.00889774 2.14973 -1.12723 -2.70812 0.00605301 
98 1 1 0.0128262 0.0142219 0.00949039 0 0 0 -0.00675684 -0.0204586 -0.000876998 0.0151098 0.139285 -0.0161515 1.6822 -1.85004 1.30805 0.00968481 
316 1 1 0.0324188 0.0193345 0.00572958 0 0 0 0.0116634 -0.00420427 0.0129187 -0.0153649 0.00603491 -0.00293161 -0.65998 1.34706 5.82497 0.00605301 
162 1 1 0.0441843 0.0193779 0.00590686 0 0 0 0.0060666 0.0162822 0.00213223 -0.000487659 0.00374672 0.0060607 -2.74298 0.547838 -2.67827 0.00605301 
294 1 1 -0.0440172 0.0285377 0.00599495 0 0 0 -0.00383567 -0.0375469 -7.45187e-05 -0.00227436 0.0295552 -0.0269408 4.70281 -0.347502 -6.81098 0.00605301 
175 1 1 -0.0315828 0.0318415 0.00597347 0 0 0 -0.0119319 -0.0029288 -0.00105256 0.00310021 -0.0170054 0.00317842 -0.10183 -2.32085 0.426843 0.00605301 
255 1 1 -0.0141671 0.0259078 0.00593212 0 0 0 -0.00177353 -0.0148778 0.000633844 0.0115055 0.0190213 -0.00186435 -0.578301 0.598345 -1.69121 0.00605301 
155 1 1 0.0375914 0.0301204 0.0059118 0 0 0 -0.00403408 0.00941371 -0.00278929 -0.00354137 0.0218736 -0.0292947 -0.628789 -0.299909 1.58726 0.00605301 
324 1 1 -0.00309425 0.0320334 0.00584572 0 0 0 0.00575866 -0.00227536 -0.000934631 -0.0224076 -0.0179608 0.014949 -0.510921 0.67805 0.515557 0.00605301 
161 1 1 0.00869036 0.0320331 0.00644425 0 0 0 0.00188168 0.00981395 0.023106 -0.0265323 -0.0132936 -0.0112639 8.93494 -5.00383 1.49892 0.00605301 
321 1 1 -0.044074 0.0440071 0.00602634 0 0 0 0.0193686 -0.013658 -0.0647617 0.0991216 -0.0317627 0.0203153 8.6354 9.17717 -1.16838 0.00605301 
207 1 1 -0.0312829 0.0439558 0.00603137 0 0 0 0.0257785 -0.00398653 0.00387206 1.44937e-05 -0.000177746 0.00227818 0.618882 4.26649 4.26534 0.00605301 
149 1 1 0.0112144 0.0438532 0.00586721 0 0 0 0.0244908 0.00228698 -0.00084409 -0.020566 0.00921656 0.00169496 -0.455426 4.63305 -3.40451 0.00605301 
249 1 1 0.0279213 0.0439598 0.00604508 0 0 0 0.0028487 -0.00666535 0.00398377 0.00488594 0.00782942 -0.0173641 -3.12265 0.787321 0.389632 0.00605301 
289 1 1 0.0440276 0.0420649 0.00596307 0 0 0 0.00212525 -0.00341124 0.000380265 -0.000326235 0.00432426 -0.00686443 0.562352 0.343244 0.620978 0.00605301 
299 1 1 -0.0243706 -0.0444591 0.0163362 0 0 0 0.0125578 0.016268 0.016906 0.0157863 -0.0138593 0.00384073 1.88801 1.26966 -1.54218 0.00605301 
225 1 1 -0.0116084 -0.043628 0.0175912 0 0 0 -0.044806 -0.00322171 0.0131905 -0.0123159 -0.0130144 0.0397717 2.62333 -7.16145 3.79334 0.00605301 
242 1 1 0.000362879 -0.0442126 0.017752 0 0 0 -0.015821 0.0142156 0.0363911 -0.00615667 -0.00907553 0.0189422 6.02914 2.55728 1.1127 0.00605301 
130 1 1 0.0208393 -0.0440665 0.0169572 0 0 0 -0.00635632 -0.000548553 0.0182254 -0.00760514 0.00174749 0.0192441 2.65453 0.0444544 1.68832 0.00605301 
60 1 1 0.0101927 -0.0355689 0.00958442 0 0 0 -0.0010323 -0.00392726 0.00211082 -0.0115439 -0.00948795 0.0175212 -5.81301 0.77718 -3.37096 0.00968481 
67 1 1 0.0273092 -0.0281469 0.0122151 0 0 0 -0.00360176 -0.000739357 0.0122486 0.0031635 0.0342797 -0.0494713 5.48048 -2.2132 3.58683 0.00968481 
40 1 1 -0.0108043 -0.0166424 0.0100301 0 0 0 -0.0189894 -0.0262408 0.0227 0.0796839 0.0460843 0.0195981 -2.00807 0.606253 0.828507 0.00968481 
279 1 1 0.00391986 -0.0214016 0.0104132 0 0 0 0.000880428 0.0139934 -0.00894749 0.00838979 0.00811992 -0.00577254 3.76143 4.23365 5.78887 0.00605301 
96 1 1 0.0109364 -0.00794455 0.0142884 0 0 0 0.00554063 0.0257814 0.020271 0.216174 -0.129617 0.139328 1.76085 2.77703 5.96868 0.00968481 
50 1 1 0.0295688 -0.00963524 0.00952291 0 0 0 0.0329187 0.00174136 0.0183943 0.0420857 0.0456946 -0.0854127 -5.42701 -1.31344 -7.82769 0.00968481 
183 1 1 0.0439413 -0.0070501 0.0167949 0 0 0 -0.0178686 0.085794 -0.044345 0.0031015 0.00393021 -0.0172104 -19.933 -6.53227 -13.5611 0.00605301 
17 1 1 -0.00569483 0.00161275 0.0126664 0 0 0 -0.0177595 -0.0181942 0.025552 0.11296 0.0569713 0.15137 -0.5528 -6.10891 -1.17966 0.00968481 
25 1 1 -0.0400356 0.00616572 0.0194874 0 0 0 0.146779 -0.153677 0.188094 0.145504 -0.197597 -0.113442 -20.3063 -32.6678 1.07995 0.00968481 
94 1 1 0.0376005 0.00717497 0.0134485 0 0 0 0.0887945 -0.00577776 -0.00192942 0.0166217 0.0295078 -0.0104001 3.056 2.60482 2.50167 0.00968481 
300 1 1 -0.044161 0.0210126 0.0156739 0 0 0 0.0168537 -0.113383 0.0451167 0.0295516 -0.00424126 0.0131771 -3.8644 -6.42758 -21.1306 0.00605301 
273 1 1 -0.0324094 0.0191239 0.0159217 0 0 0 0.0613641 -0.108658 0.0779529 0.0708361 0.0107284 0.00304276 -16.6882 4.38273 26.2582 0.00605301 
286 1 1 -0.000897118 0.0160325 0.0162869 0 0 0 -0.0155806 -0.0126154 -0.00763669 0.0227814 0.023877 -0.00634199 -3.06884 2.67834 1.32315 0.00605301 
320 1 1 0.00635527 0.026424 0.016757 0 0 0 -0.0287198 -0.0253038 0.00232952 -0.00801452 0.00544744 -0.0100621 -1.89726 -0.571063 -0.919273 0.00605301 
77 1 1 0.0231418 0.0300251 0.0115145 0 0 0 -0.000832382 -0.011769 0.0272418 -0.0496962 0.0609604 -0.0850951 0.590076 1.72392 -0.992002 0.00968481 
284 1 1 0.0442477 0.0275771 0.0153404 0 0 0 0.00330622 -0.00065732 -0.00258489 -0.010169 -0.000103839 -0.00891928 3.50591 0.116422 -0.598166 0.00605301 
305 1 1 -0.0407121 0.0363219 0.0145228 0 0 0 0.0105646 0.00661934 -0.0450786 0.0226827 0.00670663 -0.00519401 -18.5007 -7.19158 -6.03021 0.00605301 
38 1 1 -0.0147626 0.0409725 0.00947603 0 0 0 0.00049908 -0.0105055 0.00251282 -0.035171 0.0420967 0.0378344 0.692417 0.0160948 0.909704 0.00968481 
237 1 1 0.000812421 0.0439547 0.0119959 0 0 0 -0.0021453 -0.00718436 -0.0358703 -0.0329678 0.00219871 -0.00551785 1.02311 -13.129 4.8769 0.00605301 
239 1 1 0.0192217 0.0443658 0.0146218 0 0 0 0.00319147 0.000598495 0.0138959 0.00742476 0.0170382 -0.00879231 -2.38423 -8.95818 -0.104352 0.00605301 
331 1 1 -0.0427529 -0.0448129 0.0213628 0 0 0 -0.0013871 -0.00355571 0.0127359 0.0135789 -0.00344654 0.0186723 2.32342 -0.969665 0.180348 0.00605301 
167 1 1 0.0318472 -0.0441322 0.0214987 0 0 0 -0.00321368 0.00676784 0.0205372 -0.0040104 -0.000510997 0.0147985 3.21252 -0.109918 1.3609 0.00605301 
136 1 1 0.0437996 -0.0443088 0.0238057 0 0 0 0.0053919 -0.00473412 0.012741 0.00147531 0.0017307 0.00523943 3.29342 0.378198 -0.62096 0.00605301 
180 1 1 -0.0439949 -0.0339515 0.0257759 0 0 0 -0.0126528 -0.000684021 0.0133591 0.0116358 0.0226899 0.00520445 -3.58231 -1.95223 0.777671 0.00605301 
256 1 1 -0.0322809 -0.0393128 0.0242719 0 0 0 0.0013687 0.03215 -0.00999779 0.00183856 0.001293 -0.0222857 -0.306616 2.99311 -2.96732 0.00605301 
179 1 1 -0.0342224 -0.026697 0.0196376 0 0 0 -0.00865809 0.00873025 0.00984329 -0.00469997 -0.0324652 -0.00298652 1.44854 -2.54535 1.72001 0.00605301 
7 1 1 -0.0197627 -0.0305956 0.0204433 0 0 0 0.0023131 0.0544726 0.000512194 0.0123889 -0.0705256 0.0151252 -2.93148 2.89797 3.67268 0.00968481 
104 1 1 -0.00110205 -0.0287461 0.0234227 0 0 0 -0.00179709 0.0361807 -0.0035078 -0.0621231 -0.0497783 -0.0523073 7.53127 -4.22746 -4.75592 0.00968481 
51 1 1 0.0169623 -0.0248947 0.0279338 0 0 0 0.0126442 -0.0115561 0.0151864 -0.0184257 -0.111842 -0.0807818 -5.07791 4.08865 -1.77645 0.00968481 
120 1 1 0.0406922 -0.0297792 0.0278116 0 0 0 -0.00448354 -0.0143744 0.0298988 -0.0116553 0.0473196 -0.0765362 -0.9287 2.59748 1.89985 0.00968481 
128 1 1 -0.0444558 -0.0224087 0.0229888 0 0 0 -0.0108254 -0.003012 0.000528574 -0.000389385 -0.00801596 -0.00220669 1.70385 -0.508424 -0.700352 0.00605301 
178 1 1 -0.0126458 -0.0199085 0.0289802 0 0 0 0.0199669 -0.0232994 0.0697423 0.0792436 0.121412 -0.252171 25.5574 2.79262 -3.52053 0.00605301 
258 1 1 0.00147881 -0.0134683 0.025656 0 0 0 0.0502873 0.0261252 0.0765645 0.0610031 0.092151 0.0527748 -2.1398 -13.3809 -1.26267 0.00605301 
278 1 1 0.0331137 -0.0175769 0.0222429 0 0 0 -0.0213389 -0.00439433 0.0403887 0.0289239 0.0179047 -0.0429665 3.64613 -1.81666 -1.56215 0.00605301 
146 1 1 -0.0444566 -0.00818117 0.0198631 0 0 0 0.00728886 -0.115368 0.0875087 0.00522712 -0.0316252 0.00892339 32.889 -14.2842 -22.217 0.00605301 
19 1 1 -0.0266626 -0.0133967 0.0245826 0 0 0 0.0231114 0.0726288 0.0788852 0.142136 0.144231 -0.0738856 23.1784 -27.2732 -12.0525 0.00968481 
310 1 1 -0.0119537 -0.00860281 0.0262738 0 0 0 0.0282096 -0.00677076 0.252178 0.0509528 0.105568 -0.283527 6.62448 14.0621 0.731646 0.00605301 
160 1 1 -0.00222442 -0.00212849 0.0273881 0 0 0 0.006061 0.0165059 0.0937455 -0.003469 0.0449384 0.0119878 -8.55404 17.7761 8.6743 0.00605301 
100 1 1 0.00748627 0.00978068 0.027317 0 0 0 -0.0193552 0.0270596 -0.00721376 0.0524266 0.160294 -0.00331222 -4.9281 -0.967461 -2.31425 0.00968481 
28 1 1 -0.0153805 0.0179001 0.0202214 0 0 0 -0.0240815 -0.0539652 -0.00230096 0.143773 0.11297 0.0273041 -0.48978 -1.40339 3.04189 0.00968481 
261 1 1 0.0440247 0.0142085 0.025695 0 0 0 0.0101899 0.0196491 0.0459448 -0.00212463 0.0214837 -0.0189862 -5.11374 -15.0074 5.59373 0.00605301 
246 1 1 -0.0441259 0.0265278 0.0262134 0 0 0 0.00628042 -0.0356777 0.0399545 -0.00651902 -0.000319133 -0.0341548 -5.31546 -7.53858 -3.08398 0.00605301 
69 1 1 -0.00316815 0.0302458 0.0284839 0 0 0 -0.0381264 -0.0398632 0.0123507 0.0349821 0.228011 -0.163726 -0.920825 1.79648 6.17675 0.00968481 
23 1 1 -0.0270178 0.0326776 0.0209191 0 0 0 -0.0133852 -0.0316064 0.00391827 0.0369335 -0.00426578 0.0410074 2.78988 1.33208 -4.32173 0.00968481 
61 1 1 0.0368818 0.0405127 0.0197374 0 0 0 0.00874359 -0.000649331 0.00683091 -0.0484449 0.0371618 -0.0506773 -1.20377 0.483544 0.594392 0.00968481 
224 1 1 -0.043812 -0.04402 0.0334769 0 0 0 -0.00332238 0.00170394 0.0116456 -0.0170853 -0.00687532 -0.0150674 2.20089 10.924 0.677284 0.00605301 
125 1 1 0.0433029 -0.0435824 0.0358492 0 0 0 0.00220994 -0.0393381 0.0202708 0.00889074 -0.00255784 0.0109694 2.68549 -2.23408 -13.3881 0.00605301 
211 1 1 -0.0440163 -0.0327544 0.0376428 0 0 0 0.00675166 -0.00397879 0.0297436 -0.00631427 -0.0147647 0.000697747 0.355891 5.33676 3.02565 0.00605301 
42 1 1 -0.011767 -0.040531 0.0342832 0 0 0 -0.00292849 0.0210141 0.0356725 0.00509385 -0.000374828 0.0624322 6.68797 -7.70076 -0.104174 0.00968481 
191 1 1 0.00383597 -0.0317764 0.0384549 0 0 0 -0.0388993 -0.0289329 0.0943798 -0.0204821 -0.0621114 -0.0818671 -7.23993 18.5394 -3.50614 0.00605301 
271 1 1 0.0306958 -0.0400844 0.0326244 0 0 0 -0.0155399 -0.00247843 0.0378673 0.0177008 -0.000997812 0.0111 -0.152969 -2.8907 -6.18657 0.00605301 
66 1 1 -0.0406541 -0.0176069 0.036999 0 0 0 -0.00817311 0.00809911 0.00206355 0.0680399 0.0372476 0.00944906 -2.07674 0.891274 0.0956698 0.00968481 
134 1 1 0.0441569 -0.0152161 0.0314576 0 0 0 -0.00484961 0.00178968 -0.0127614 -0.00464829 0.00744792 -0.00550129 -5.71879 -2.04398 -1.14318 0.00605301 
18 1 1 0.0141974 -0.00684639 0.0335518 0 0 0 -0.027061 0.0115288 0.0237076 -0.0612471 0.0312038 -0.16941 2.37554 0.115015 0.564393 0.00968481 
184 1 1 0.0289294 -0.00993485 0.0304799 0 0 0 -0.0168655 -0.00033076 0.0244388 -0.00625718 -0.00267274 -0.0425935 -1.71533 -1.07369 -1.95523 0.00605301 
107 1 1 -0.0382387 0.00117614 0.0381377 0 0 0 0.0143579 0.0278958 0.102636 -0.118308 -0.0743359 -0.149982 9.86852 -12.7838 -2.37091 0.00968481 
112 1 1 -0.0204694 0.00330366 0.0312564 0 0 0 0.0438443 0.034385 0.184129 0.132278 0.0235778 -0.0788405 -20.843 5.68513 3.58937 0.00968481 
55 1 1 0.040751 -0.000163153 0.0308892 0 0 0 -0.00971568 0.00331703 0.0392109 -0.0458492 0.0795689 0.0138043 8.14215 4.52974 0.924539 0.00968481 
95 1 1 0.0248426 0.00955405 0.0346327 0 0 0 -0.0282986 0.0105421 0.0639004 -0.0297281 0.155404 -0.00937485 -0.92463 -6.62855 -2.95636 0.00968481 
2 1 1 -0.0323049 0.0182028 0.0317139 0 0 0 0.0271145 0.0131093 0.0886404 0.0089751 -0.0584529 -0.192821 -8.48009 13.2341 -1.50704 0.00968481 
108 1 1 0.027104 0.0280269 0.0305815 0 0 0 0.00211214 0.0165856 0.0297803 -0.014179 0.118438 -0.0107985 -5.05959 -3.67385 3.13622 0.00968481 
16 1 1 0.0130161 0.040607 0.0282577 0 0 0 -0.0382707 -0.00165802 -0.00341074 0.00141454 0.0220119 -0.0333325 2.49134 1.00542 -0.967503 0.00968481 
9 1 1 -0.0407253 0.0409301 0.0306524 0 0 0 0.00356301 -0.00633821 0.0145589 -0.0233451 -0.0474103 0.0577754 -1.63481 -0.909719 0.114177 0.00968481 
323 1 1 -0.0103493 0.0440712 0.0288445 0 0 0 -0.0583749 -0.0180344 0.0329356 0.0446679 0.0423699 -0.0420091 -5.5808 18.457 -9.47039 0.00605301 
329 1 1 -0.0228308 -0.0443244 0.0442484 0 0 0 0.0070208 -0.0129849 0.0327958 -0.0132389 -0.00951792 -0.0447617 4.46102 16.4816 -2.12151 0.00605301 
168 1 1 0.00207112 -0.0443251 0.0389318 0 0 0 -0.0155313 -0.0104905 0.054078 0.00075222 0.0182257 0.0263468 9.01563 3.29414 1.06327 0.00605301 
283 1 1 0.0310193 -0.0442223 0.0437418 0 0 0 -0.0130928 -0.00122877 0.036317 0.0166286 0.00164039 0.0101868 5.68673 -3.9699 2.09002 0.00605301 
3 1 1 0.0167924 -0.0406009 0.0388644 0 0 0 -0.0209037 0.00146033 0.0436002 0.0342139 0.100295 0.0863867 4.51144 1.87225 1.55327 0.00968481 
93 1 1 -0.0266511 -0.0299367 0.0402813 0 0 0 -0.00362592 -0.0107079 0.0328813 0.146009 0.134339 -0.104022 -5.81849 2.73511 -1.34924 0.00968481 
43 1 1 -0.00885651 -0.0240096 0.0434138 0 0 0 -0.0138498 -0.000838747 0.103446 0.207397 0.0624816 0.109267 -11.0431 -14.2657 0.41632 0.00968481 
105 1 1 0.0306327 -0.0286376 0.0441687 0 0 0 -0.0124732 0.00659597 0.0563566 0.0501808 0.100801 -0.0399267 -1.34712 -0.596359 -1.21762 0.00968481 
52 1 1 0.0125843 -0.0214881 0.0464082 0 0 0 0.0316738 -0.0299814 0.0177641 -0.150006 -0.125167 -0.0957528 4.53354 -3.58864 0.778813 0.00968481 
259 1 1 0.0255375 -0.014448 0.0409587 0 0 0 -0.0031147 0.00929325 0.0313256 -0.0247537 -0.00551692 -0.0586167 -2.30457 2.56797 -0.148983 0.00605301 
336 1 1 -0.0230694 -0.0107008 0.0395983 0 0 0 0.00980536 -0.0623715 0.107454 -0.031325 0.00751248 0.120179 -16.1093 32.7493 8.29426 0.00605301 
245 1 1 0.00130294 -0.0130862 0.0393691 0 0 0 0.0121503 -0.0154556 0.0934243 0.0542228 0.015647 0.0501153 19.8485 26.1538 -7.35154 0.00605301 
5 1 1 0.040369 -0.011531 0.0465168 0 0 0 0.000623258 0.0071624 0.0428794 -0.0228861 0.0379651 -0.0792629 -0.132786 -2.46641 -2.32517 0.00968481 
303 1 1 0.027755 -0.00299524 0.0431942 0 0 0 -0.030625 0.00293255 0.0522647 -0.0392071 0.00576511 -0.0148362 6.25653 3.25117 8.02807 0.00605301 
318 1 1 0.0440212 0.00382512 0.0456577 0 0 0 -0.0163651 -0.0734997 0.0884884 0.00271018 -0.0100584 0.00522211 5.5697 15.9236 11.9862 0.00605301 
236 1 1 -0.0244493 0.00806652 0.0456997 0 0 0 -0.0906133 0.112375 0.151883 0.00257204 -0.0065134 -0.0343657 14.0695 -23.4802 20.4093 0.00605301 
4 1 1 -0.00531379 0.0114168 0.041267 0 0 0 0.0922446 0.0376002 0.133665 -0.0938366 -0.0382348 -0.023414 -13.0252 22.8321 21.7135 0.00968481 
208 1 1 -0.0444231 0.015115 0.0404082 0 0 0 0.00302034 0.0313048 0.105798 -0.000123752 -0.0298807 -0.0540032 0.991264 -20.2955 3.72121 0.00605301 
335 1 1 -0.0335143 0.0166171 0.0472164 0 0 0 -0.0100286 -0.088032 0.0703567 0.0385702 -0.0917823 -0.00516439 19.0361 -11.8583 26.4132 0.00605301 
282 1 1 -0.0189925 0.0178723 0.0396579 0 0 0 0.0279732 -0.0167502 0.111251 -0.0474939 -0.0151098 -0.00331979 -22.4912 -20.9367 -25.3235 0.00605301 
58 1 1 0.0406573 0.0184598 0.0402524 0 0 0 -0.0128646 -0.0194379 0.07715 -0.0117667 0.0308557 -0.000610165 7.23285 8.69558 2.16182 0.00968481 
199 1 1 -0.0441702 0.0267509 0.0380796 0 0 0 -0.00837257 0.0303643 0.0526812 -0.0125846 -0.0742888 -0.0625391 -5.87794 -7.73105 3.75842 0.00605301 
262 1 1 -0.0344099 0.0287285 0.0445918 0 0 0 -0.0060553 -0.0390672 0.0516386 -0.00863638 0.0573727 0.0281819 67.8893 18.2503 23.9889 0.00605301 
192 1 1 -0.0237661 0.028392 0.038972 0 0 0 0.0168953 0.0233039 0.072075 -0.022894 0.0328383 0.00842472 26.8885 -5.50147 24.1678 0.00605301 
292 1 1 -0.0127234 0.0321471 0.040521 0 0 0 0.033043 0.0799677 0.0554229 -0.035404 0.0630418 -0.0218157 -20.8849 12.3295 -14.8545 0.00605301 
73 1 1 0.0108556 0.0237615 0.0399015 0 0 0 0.00371551 -0.0208484 0.0171421 -0.124121 0.218912 0.267207 11.8668 3.72884 0.746118 0.00968481 
114 1 1 0.0403897 0.0400679 0.0386297 0 0 0 -0.00578915 0.0050167 0.00475948 -0.0378794 0.0807382 -0.0266762 0.768751 -2.95291 0.601979 0.00968481 
327 1 1 -0.0439462 0.0439808 0.0456483 0 0 0 0.00265423 0.00186106 0.0262645 -0.0199539 0.00859483 0.0994777 -0.542702 -0.616641 0.183661 0.00605301 
122 1 1 -0.0250898 0.0408224 0.0473216 0 0 0 -0.0344665 -0.00379313 0.125793 0.135316 0.0873478 0.338122 -12.6966 16.1063 -3.26295 0.00968481 
126 1 1 -0.00923394 0.0432365 0.0438376 0 0 0 -0.0299224 0.118466 0.0415019 -0.0134645 0.00526134 -0.0288531 18.1382 -5.21853 30.6795 0.00605301 
248 1 1 0.00164394 0.0438514 0.0385898 0 0 0 -0.108012 0.0113608 -0.140897 -0.0311042 0.0423461 0.0746201 -25.4743 14.9172 -3.5367 0.00605301 
229 1 1 0.0127067 0.0440959 0.0440639 0 0 0 -0.0506548 -0.000576726 -0.0750813 0.0123701 0.0186432 -0.00238541 12.0612 -30.3314 -7.4827 0.00605301 
314 1 1 -0.0159894 -0.0440676 0.0542081 0 0 0 -0.0464262 -0.00683571 0.0768496 -0.0204759 -0.0350286 -0.04316 0.323355 4.943 -16.4748 0.00605301 
265 1 1 0.0231299 -0.0435079 0.0528962 0 0 0 0.0678049 -0.027096 0.0307518 -0.0704607 0.00590062 0.00204447 -5.90921 7.34614 0.753256 0.00605301 
84 1 1 -0.0405435 -0.0334814 0.0528483 0 0 0 0.00767752 0.0185995 0.0454515 0.0583846 -0.0263763 -0.0545092 -1.61735 -3.40319 0.737635 0.00968481 
307 1 1 -0.0179158 -0.0320806 0.0534591 0 0 0 -0.0850232 0.0572909 0.117485 -0.000339408 -0.00446928 -0.0258346 -0.644112 22.484 17.1706 0.00605301 
337 1 1 -0.00682033 -0.0380742 0.0495758 0 0 0 -0.0337843 -0.00909375 0.10094 -0.00156682 -0.0924532 -0.0219329 22.3221 5.44995 4.78387 0.00605301 
56 1 1 0.00755514 -0.0376665 0.0554184 0 0 0 -0.0197385 0.00363111 0.0910517 0.0977258 -0.397367 0.232139 -13.8686 -2.79913 -2.88853 0.00968481 
49 1 1 0.0404405 -0.0404869 0.0555942 0 0 0 0.00148298 0.000416396 0.0362264 0.0285325 0.0751304 0.00528244 2.42433 4.62206 -0.359494 0.00968481 
326 1 1 0.0442003 -0.0259523 0.0510669 0 0 0 -0.00112123 -0.000533995 0.0352772 0.0169346 0.0180529 -0.0126342 1.00963 5.49623 0.510403 0.00605301 
81 1 1 -0.0235018 -0.0170456 0.0542096 0 0 0 -0.0220437 -0.0635531 0.0827411 -0.0824764 -0.0031882 0.123391 14.0564 -10.1446 -1.69631 0.00968481 
332 1 1 0.0257896 -0.0155921 0.0528143 0 0 0 0.0819353 0.00951571 0.0383227 0.00242744 0.0155492 -0.0366882 3.01197 14.6659 -30.9276 0.00605301 
220 1 1 -0.043904 -0.00832056 0.0493157 0 0 0 -0.0175676 -0.0328869 0.0631006 -0.0005967 0.00456627 -0.0303392 5.06464 -3.19097 -11.2798 0.00605301 
24 1 1 -0.00838445 -0.00567649 0.0489564 0 0 0 0.0533533 0.00812683 0.131078 0.046767 -0.125644 0.0148548 13.3426 -30.0273 -22.6637 0.00968481 
240 1 1 0.017225 -0.00691052 0.0489235 0 0 0 0.0249365 -0.0158013 0.0571978 0.0919904 -0.0134466 -0.0593316 -1.07255 1.27144 -0.0401724 0.00605301 
133 1 1 -0.0285402 -0.00296708 0.0496029 0 0 0 -0.090019 -0.0326661 0.204666 -0.089743 -0.0296757 0.0105181 13.4701 -13.2983 23.1253 0.00605301 
32 1 1 -0.0400761 0.00586371 0.0565845 0 0 0 0.0118715 -0.0893322 0.157268 -0.150936 -0.0958281 0.066185 4.25022 11.754 2.55037 0.00968481 
15 1 1 0.0145387 0.00822965 0.0507999 0 0 0 -0.0378028 0.00221425 0.0883063 -0.000526075 0.00205713 -0.0195981 0.562945 6.95166 7.46745 0.00968481 
298 1 1 0.0298777 0.0115409 0.0493748 0 0 0 -0.0513461 -0.0294507 0.064578 0.00706111 0.0235017 0.033671 -14.2833 -22.6208 0.173798 0.00605301 
291 1 1 0.0440245 0.0123258 0.0541966 0 0 0 0.0030443 -0.0413835 0.0709509 0.00105435 -0.00416166 0.00420905 -10.2813 -8.32996 -8.57921 0.00605301 
140 1 1 0.0086729 0.0214566 0.056106 0 0 0 -0.0408382 0.00334232 0.147582 -0.04494 0.026702 0.00420595 -12.7098 30.5744 3.13612 0.00605301 
117 1 1 -0.0215077 0.0232922 0.0546832 0 0 0 -0.00998408 -0.0994126 0.0963365 0.0458149 0.106176 -0.0231103 15.1356 16.5088 -4.42392 0.00968481 
99 1 1 -0.00361164 0.0303012 0.0529377 0 0 0 -0.0503053 -0.00380352 0.164499 -0.31523 0.218249 -0.00341803 18.1871 -22.2895 1.63882 0.00968481 
106 1 1 0.040483 0.0287165 0.0566256 0 0 0 -0.0162496 0.0850071 0.0414301 0.0675273 0.132991 -0.115154 0.908697 4.13646 -9.7032 0.00968481 
47 1 1 0.0238369 0.0344628 0.0490995 0 0 0 -0.052713 0.0491437 0.0469995 0.00234572 0.201135 0.0153192 -4.40087 -1.24345 13.5816 0.00968481 
174 1 1 -0.0379779 0.0439492 0.0561137 0 0 0 -0.143621 -0.00575892 0.145844 0.0150907 0.0110173 0.0447842 4.80877 -29.6102 6.6762 0.00605301 
315 1 1 -0.0106262 0.0439767 0.0560451 0 0 0 -0.0430471 0.00159509 0.143234 -0.0430263 0.0418152 0.0106691 -23.56 15.8424 -7.23998 0.00605301 
158 1 1 0.00229227 0.0440939 0.0571665 0 0 0 -0.0382163 -0.00717023 0.194909 -0.0135169 0.0275183 0.00529026 -31.6876 20.1433 -7.26532 0.00605301 
203 1 1 0.042304 0.043983 0.0536374 0 0 0 0.0174296 0.0474027 -0.0217561 -0.0195019 0.0206512 0.00681574 -9.67842 10.341 5.85646 0.00605301 
190 1 1 -0.00575517 -0.0438228 0.060981 0 0 0 0.035139 -0.00222354 0.103616 -0.133662 -0.0809998 0.0155027 1.768 3.7524 22.8113 0.00605301 
189 1 1 0.0276772 -0.0439635 0.0640718 0 0 0 -0.0368219 0.00802369 0.00212296 0.0594911 -0.00196083 0.0583589 -0.988833 -17.9274 -1.73395 0.00605301 
6 1 1 -0.027084 -0.0404638 0.0646221 0 0 0 0.000359656 0.0173486 0.089007 0.0321592 -0.0303623 0.0609412 5.6636 -1.1722 0.471479 0.00968481 
313 1 1 -0.0135549 -0.0255848 0.0626813 0 0 0 -0.00460498 -0.0201122 0.14216 0.000633442 -0.106286 -0.0256867 -9.08728 -9.96567 29.1146 0.00605301 
137 1 1 -0.00184057 -0.0262305 0.0603519 0 0 0 0.0556898 0.137088 0.108445 0.00560629 -0.047616 -0.0210418 12.938 16.0662 -8.00002 0.00605301 
91 1 1 0.0230008 -0.0280184 0.0617384 0 0 0 -0.00889168 0.0399058 0.0641523 0.0419384 0.0916175 0.0695795 -2.64925 -0.269203 1.5594 0.00968481 
247 1 1 0.0398141 -0.0265859 0.0627963 0 0 0 -0.0525955 0.0102306 0.0981781 -0.00709798 0.0196399 0.0109849 5.08592 -19.2407 6.14438 0.00605301 
36 1 1 -0.0404571 -0.0176811 0.0637632 0 0 0 -0.0292899 -0.0376086 0.143248 0.0750558 0.0526908 0.144331 14.5856 -17.7774 -5.05699 0.00968481 
215 1 1 0.0323161 -0.0156701 0.0632958 0 0 0 -0.0420606 0.0525019 0.181775 0.0185393 0.0344716 -0.0239789 28.1976 -1.00249 5.1499 0.00605301 
217 1 1 0.0440852 -0.0154211 0.0612765 0 0 0 -0.030608 0.0439925 0.09302 -0.00136285 0.0228328 -0.00135948 -7.15905 16.4627 -8.20226 0.00605301 
182 1 1 -0.0309327 -0.00550605 0.0620877 0 0 0 0.0480409 -0.0542169 0.273204 -4.04487e-05 0.0177944 0.0289164 -31.8568 -16.758 -1.4204 0.00605301 
10 1 1 0.0062554 -0.00616649 0.0611424 0 0 0 0.00231251 -0.00639016 0.228529 -0.103802 0.13739 0.0293162 -14.8823 17.7029 19.5077 0.00968481 
276 1 1 0.0197989 -0.0129843 0.0642968 0 0 0 0.0583548 0.0439137 0.180209 0.00292174 0.0490028 -0.0268643 28.0025 -19.5034 -18.629 0.00605301 
197 1 1 -0.0203001 -0.00187056 0.0581609 0 0 0 0.0109091 -0.0258028 0.140572 -0.021348 -0.00736252 -0.0424343 19.1146 35.6475 12.2785 0.00605301 
87 1 1 0.0286743 -0.000844478 0.0601565 0 0 0 -0.00618447 0.0828778 0.150378 0.110772 0.0988383 -0.223197 -20.04 -0.523734 -9.2302 0.00968481 
148 1 1 0.0440743 -0.00307883 0.0592259 0 0 0 -0.0111128 -0.0144135 0.0878932 0.00846682 0.00814186 -0.0167421 3.90516 15.1286 1.64737 0.00605301 
115 1 1 -0.00221758 0.0112091 0.0601964 0 0 0 -0.0608179 -0.00664434 0.172861 -0.153971 0.00785686 0.00750216 10.025 -17.3803 -1.1639 0.00968481 
338 1 1 0.0418297 0.00800029 0.0651679 0 0 0 -0.0834353 0.0594269 0.0957051 0.0241292 -0.000262703 0.0107929 0.548379 9.77579 -35.6981 0.00605301 
266 1 1 0.0204466 0.0221268 0.057939 0 0 0 -0.0178939 0.0820711 0.129324 0.00265248 -0.00844298 0.0368976 -16.8926 -26.2205 8.47082 0.00605301 
39 1 1 -0.0404452 0.0250064 0.0584721 0 0 0 0.0139893 -0.0693442 0.0807215 0.0439643 0.276495 -0.0926779 -42.4955 -8.87985 -8.23234 0.00968481 
35 1 1 -0.0246894 0.0402481 0.066311 0 0 0 0.0513149 0.0310847 0.244026 0.313111 -0.0611365 -0.336654 10.2842 -8.56649 7.39203 0.00968481 
113 1 1 0.0114067 0.0339723 0.0647526 0 0 0 -0.0109756 -0.0178425 0.193559 -0.0749554 0.0961767 0.0905339 14.9971 -6.76038 1.4305 0.00968481 
124 1 1 0.0441454 0.0436453 0.0654858 0 0 0 0.00229342 0.0138447 -0.0496173 -0.011291 -0.0182302 0.0142593 17.6842 -10.5145 -2.80652 0.00605301 
252 1 1 -0.0388466 -0.0439705 0.0744886 0 0 0 -0.0726008 -0.0227573 0.019409 0.0263212 0.0643478 0.00743937 11.7685 -4.60411 1.53973 0.00605301 
186 1 1 0.0439891 -0.0439622 0.0704728 0 0 0 0.00193054 0.0022455 0.0346533 -0.0223763 -0.00165124 0.00486906 -3.72797 2.72975 -0.575717 0.00605301 
230 1 1 -0.0402068 -0.0332798 0.0690417 0 0 0 0.0228383 0.0730553 0.118261 0.0219455 -0.00426339 -0.00459627 8.38503 -4.85275 -16.7535 0.00605301 
109 1 1 0.0142361 -0.0404894 0.0731939 0 0 0 0.0404264 0.0215216 0.089635 0.0472513 -0.0387291 0.136448 7.47391 11.4428 -4.4493 0.00968481 
165 1 1 0.0439624 -0.0320588 0.0727094 0 0 0 -0.0218451 -0.01719 0.103402 0.0100979 -0.00951177 0.0111676 0.261523 20.6304 -1.68189 0.00605301 
75 1 1 -0.0247401 -0.0233431 0.0733945 0 0 0 -0.031985 -0.000250333 0.189667 0.0716796 0.0297307 -0.116497 -9.14306 16.7467 -2.47752 0.00968481 
227 1 1 0.00812371 -0.026182 0.0685063 0 0 0 -0.174099 0.00325617 -0.0125108 0 0 -0.022783 19.6644 24.0638 -10.2472 0.00605301 
26 1 1 -0.00619802 -0.0163998 0.0729536 0 0 0 -0.0209439 -0.0397825 0.187626 -0.0612838 -0.0721437 0.0359501 16.2325 -8.02438 -0.928349 0.00968481 
209 1 1 0.0104989 -0.0150987 0.0731507 0 0 0 0.0264362 -0.0861024 0.145126 0.0213869 0.0687508 -0.00270841 39.6779 -16.5478 -38.1224 0.00605301 
169 1 1 0.0440986 -0.0192842 0.0729917 0 0 0 -0.000222973 0.0302911 0.137998 -0.0459762 0.0122259 -0.00532321 8.04372 23.0358 -5.04892 0.00605301 
204 1 1 -0.0187173 -0.00737101 0.0704634 0 0 0 0.0207091 -0.0193919 0.0581053 -0.00220804 0.0176202 0.038342 8.04423 -38.7873 1.45658 0.00605301 
325 1 1 0.0370839 -0.00958331 0.0724286 0 0 0 -0.0500281 0.0208369 0.209085 0.00181719 0.0785255 -0.0295374 -14.5666 8.06504 11.9547 0.00605301 
306 1 1 -0.0439265 -0.00319788 0.0692035 0 0 0 0.0171995 -0.0190701 0.257772 0 0 -0.022783 20.3773 -13.8815 3.20914 0.00605301 
63 1 1 -0.0404595 0.0120744 0.0747039 0 0 0 0.00272209 -0.0410712 0.114882 0.177444 0.0251631 0.194641 -9.79549 -10.738 -4.05672 0.00968481 
57 1 1 -0.0196959 0.00822679 0.0699764 0 0 0 0.0194451 -0.0224657 0.152143 -0.0644918 0.0718361 -0.120028 -11.1431 -11.5808 4.11435 0.00968481 
250 1 1 -0.0290278 0.0206372 0.06822 0 0 0 0.0138061 0.00673884 0.164889 0.0133793 0.0502064 -0.0157799 21.3886 18.7117 -7.40752 0.00605301 
233 1 1 -0.00710244 0.0162665 0.0742386 0 0 0 -0.030437 -0.00911741 0.216508 0.0564529 0.0476144 -0.00396597 11.1226 -2.55844 -6.72149 0.00605301 
263 1 1 0.00712044 0.0195723 0.0696398 0 0 0 0.106021 -0.0309295 0.113765 -0.00539356 0.00456363 -0.0203569 -4.89606 38.8702 40.3963 0.00605301 