ITEM: TIMESTEP
17150
ITEM: NUMBER OF ATOMS
338
ITEM: BOX BOUNDS mm mm mm
-0.05 0.05
-0.05 0.05
0 0.15
ITEM: ATOMS id type type x y z ix iy iz vx vy vz fx fy fz omegax omegay omegaz radius 
319 1 1 -0.0148097 -0.0443487 0.00557998 0 0 0 -0.00354603 0.00608617 0.00366239 -1.0792e-06 1.85227e-06 -0.000731884 -1.08902 -0.634505 -1.77023 0.00559691 
243 1 1 -0.00357321 -0.0443961 0.00558677 0 0 0 0.00164555 0.0145473 -0.00812085 -0.000282904 -0.0114904 0.000875127 -2.21693 0.281036 -0.299215 0.00559691 
260 1 1 0.0216218 -0.0444812 0.00538927 0 0 0 0.00941741 0.00190127 0.000356324 0.0135384 0.000254306 0.00576427 -0.524442 1.94529 1.69286 0.00559691 
78 1 1 0.0394971 -0.0415264 0.00851673 0 0 0 0.000552974 -0.000488765 0.00517328 0.0123672 -0.00113571 -0.00530548 0.519477 -0.253763 -0.173455 0.00895506 
74 1 1 -0.0404265 -0.0363189 0.0090114 0 0 0 0.0131691 -0.0080817 -0.00357297 -0.00981568 0.0235906 -0.0719383 -0.739305 9.27834 -0.124409 0.00895506 
131 1 1 -0.0269528 -0.0403239 0.00549782 0 0 0 0.00606669 -0.016514 -0.0107689 -0.000850987 -0.00689644 0.0203951 -1.23149 0.130099 5.71648 0.00559691 
60 1 1 0.00817737 -0.0356168 0.00859786 0 0 0 0.00383782 0.000404885 -5.63174e-05 -0.0346694 -0.0303703 0.0169497 -0.177741 0.451963 1.3456 0.00895506 
296 1 1 -0.0282598 -0.0292718 0.00559259 0 0 0 0.0658751 -0.0456391 0.0147637 -0.0161079 0.0300759 -0.0140212 8.09828 -13.8041 -15.1062 0.00559691 
173 1 1 -0.0171823 -0.0285773 0.00554174 0 0 0 0.0747115 -0.0353095 0.00725876 -0.00709335 0.0222849 0.013932 7.00193 14.6164 19.5001 0.00559691 
275 1 1 -0.00206522 -0.0262515 0.00534167 0 0 0 -0.00185683 -0.00772299 -0.00606069 -0.0070871 -0.00996829 0.00821601 1.11664 -0.93686 0.986052 0.00559691 
144 1 1 0.0404971 -0.0265899 0.00557927 0 0 0 -0.0265145 -0.0117634 0.00382642 0.001361 0.00238006 -0.000838696 2.10558 -4.75056 -4.9242 0.00559691 
102 1 1 -0.04148 -0.0188167 0.00848346 0 0 0 0.00806121 -0.000946192 -0.000175623 0.00912897 -0.0175871 0.00969537 0.424201 0.692725 0.0902656 0.00895506 
328 1 1 -0.0273763 -0.0170321 0.00556195 0 0 0 0.0348003 0.0645505 0.0155715 0.00408617 0.0012677 0.00619294 -11.5458 -1.26897 12.1958 0.00559691 
40 1 1 -0.0112813 -0.0157929 0.0088465 0 0 0 0.0135647 -0.00373462 0.012365 -0.00133593 0.0215687 0.00833596 1.04572 2.07669 -2.34352 0.00895506 
279 1 1 0.00404509 -0.0169408 0.00557787 0 0 0 -0.0510656 0.0370068 0.000935916 -0.01734 -0.00732312 0.012339 -5.41494 -7.33642 9.88767 0.00559691 
267 1 1 0.0152227 -0.0199509 0.00557999 0 0 0 -0.0125954 -0.0455854 0.0037439 -3.84208e-06 -1.41717e-05 -0.000842552 8.15676 -2.25373 -20.5271 0.00559691 
202 1 1 0.0444712 -0.0161304 0.0055191 0 0 0 0.00340474 -0.0132629 0.000780015 0.00109705 0.00779726 7.44294e-05 2.18845 0.844089 2.25758 0.00559691 
274 1 1 -0.0224945 -0.00699114 0.00607635 0 0 0 0.0603225 0.0783921 0.032813 -0.00445745 -0.0107774 -0.00867179 10.7551 -8.338 -14.442 0.00559691 
50 1 1 0.0258303 -0.0102778 0.00873659 0 0 0 -0.035901 -0.00294668 0.00214999 -0.00399884 -0.0492278 0.0395511 0.0536955 -4.0294 1.8275 0.00895506 
257 1 1 -0.0435971 -0.00417498 0.00557998 0 0 0 0.0257693 -0.0401091 0.00366197 7.84179e-06 -1.22055e-05 -0.000730868 7.17687 4.61099 -9.99631 0.00559691 
171 1 1 -0.0217011 0.00412596 0.00556765 0 0 0 0.0944046 0.0854717 0.00348167 0.0113443 -0.00585401 0.00164275 -15.5792 15.0347 8.33764 0.00559691 
17 1 1 -0.00766879 0.00322635 0.00929643 0 0 0 0.100098 0.0367732 0.0313109 0.0444412 0.019054 0.00684146 -0.882613 -7.98997 6.26904 0.00895506 
96 1 1 0.00918405 -0.00385668 0.00911415 0 0 0 -0.0339425 0.0370553 0.0272797 -0.0572205 -0.0698363 -0.0225595 6.56044 4.77082 -7.56838 0.00895506 
164 1 1 0.0209269 0.00376418 0.00549039 0 0 0 -0.00905057 -0.00207848 0.00445803 -0.0230612 -0.0340893 0.011364 -0.729784 0.0640188 5.176 0.00559691 
268 1 1 -0.0316375 0.00918178 0.00544229 0 0 0 0.0279921 -0.0242583 -0.00109634 0.00466269 -0.0127896 -0.00106573 3.3022 5.76615 -0.853781 0.00559691 
94 1 1 0.0347599 0.00510547 0.00931738 0 0 0 -0.00995723 -0.00437239 0.00396557 -0.0621833 -0.00956367 -0.0105781 -1.68407 0.420022 -3.81259 0.00895506 
232 1 1 -0.0390963 0.0176975 0.00542759 0 0 0 -0.0140993 0.0017841 -0.00226174 0.00879581 -0.00622833 0.00489436 -0.529576 -2.18462 -19.9637 0.00559691 
297 1 1 -0.0266024 0.0189897 0.00547636 0 0 0 0.0136845 -0.0179391 0.000864366 0.00621562 -0.00592628 0.00470114 3.17384 2.92456 3.39451 0.00559691 
222 1 1 -0.0124882 0.0161506 0.0052407 0 0 0 0.0243042 0.00914717 -0.00406203 0.00261134 -0.00192678 0.00898505 -1.95726 4.12604 7.12603 0.00559691 
290 1 1 -0.000722165 0.0165281 0.00555358 0 0 0 -0.0404614 0.147777 0.0123533 -0.0181294 -0.0312266 -0.00318249 -26.407 -7.13853 -26.0662 0.00559691 
98 1 1 0.0134247 0.0156568 0.00886036 0 0 0 -0.0110948 0.00264549 0.00690921 0.0274198 -0.0240559 -0.0106634 0.0493863 -1.35323 -8.33713 0.00895506 
316 1 1 0.0274632 0.0170225 0.00555173 0 0 0 -4.42874e-05 0.0127343 0.00117398 -0.00749653 0.00404717 -0.00371106 -1.498 0.486487 7.87933 0.00559691 
162 1 1 0.0442553 0.0171873 0.00557998 0 0 0 -0.00815875 0.0449114 0.00366216 -2.4829e-06 1.36676e-05 -0.000731305 -8.03617 -1.45988 -1.75426 0.00559691 
294 1 1 -0.0445014 0.0290935 0.00550958 0 0 0 0.00846706 -0.0110674 0.00905453 -2.30638e-05 0.00179566 0.00146882 0.750693 -2.13167 -2.10268 0.00559691 
255 1 1 -0.0199892 0.0278537 0.00552325 0 0 0 0.0186121 -0.0149958 0.00440387 -0.0204141 0.00872004 0.00198665 2.57485 3.33603 -3.95734 0.00559691 
324 1 1 -0.00654102 0.0293198 0.00557999 0 0 0 -0.013057 0.0903684 0.00366823 -3.98048e-06 2.7549e-05 -0.000754091 -16.1699 -2.33634 14.2966 0.00559691 
161 1 1 0.00765748 0.0315061 0.00557802 0 0 0 -0.0280495 0.0505634 -0.00742851 -0.0371085 -0.00612975 -0.0192541 -6.69205 -3.87928 -23.1221 0.00559691 
77 1 1 0.0218694 0.031332 0.00842469 0 0 0 -4.96857e-05 0.00643078 0.000707726 -0.0761987 0.00563624 0.0210148 -1.10995 0.808486 7.73492 0.00895506 
155 1 1 0.0356891 0.0259467 0.00558698 0 0 0 -0.00513074 0.0344721 0.00549323 -0.00400406 0.00548607 -0.0172712 -6.28513 -1.00388 -14.626 0.00559691 
175 1 1 -0.0333434 0.0323654 0.00550236 0 0 0 0.0215562 0.0305891 0.000466154 -0.00580392 -0.0130855 0.00327616 -5.33206 3.88221 -6.89159 0.00559691 
289 1 1 0.0445427 0.0354722 0.00543616 0 0 0 0.000973723 0.0108352 0.00174567 -0.00619473 -0.00452135 0.00133786 -1.97178 0.397388 -1.98104 0.00559691 
321 1 1 -0.044504 0.0444953 0.00553135 0 0 0 -0.000132145 -0.00270013 -0.0029097 0.00470136 -0.00146358 0.00408303 0.981637 0.249864 -0.843721 0.00559691 
207 1 1 -0.0331521 0.0443689 0.00557998 0 0 0 0.0132689 -0.00509345 0.00366142 4.03738e-06 -1.5498e-06 -0.000731394 0.91139 2.37426 2.35996 0.00559691 
38 1 1 -0.0161074 0.0414159 0.0086034 0 0 0 0.0231794 -0.00831393 0.00455755 -0.0603248 -0.0159025 0.00549729 -0.489523 2.47858 3.09921 0.00895506 
149 1 1 0.00672657 0.0444105 0.00557479 0 0 0 0.0514564 -0.00360817 0.00528701 -0.00051532 0.000112953 0.000703535 0.65146 9.32786 9.21936 0.00559691 
249 1 1 0.0301265 0.0442112 0.00557999 0 0 0 -0.0571544 -0.0134124 0.00364811 -1.7337e-05 -4.06845e-06 -0.000726026 2.39993 -10.2268 -10.3126 0.00559691 
299 1 1 -0.0279377 -0.0447873 0.0156256 0 0 0 0.0153913 -0.00888962 0.00502334 0.00677041 -0.00637399 0.00586442 1.04522 0.817469 -3.20236 0.00559691 
130 1 1 0.0167427 -0.0447489 0.0152107 0 0 0 0.00837022 -0.00150667 0.00309307 0.00502625 -0.00406076 -0.00445456 1.00675 -2.39912 -1.11249 0.00559691 
167 1 1 0.0276322 -0.0445347 0.0175885 0 0 0 0.0157227 -0.0031903 -0.00565759 0.000114862 -0.000964032 0.0107298 -0.446288 14.1171 -3.30382 0.00559691 
67 1 1 0.0250518 -0.0318372 0.0112262 0 0 0 0.00287007 0.00757616 0.00440664 0.00469124 -0.0247618 0.0270464 0.616196 -1.12174 -0.406966 0.00895506 
179 1 1 -0.0348188 -0.0262207 0.0186042 0 0 0 -0.0147376 -0.0147969 0.0220788 -0.0125945 -0.00469368 0.00515676 -6.67108 6.12463 -6.88889 0.00559691 
104 1 1 -0.00525362 -0.0302469 0.0186586 0 0 0 -0.00846091 0.0250112 -0.00462321 -0.0287375 -0.0283443 0.0102343 -4.3926 -0.480164 -1.82038 0.00895506 
278 1 1 0.031854 -0.0206828 0.0164262 0 0 0 -0.00813295 0.0121364 0.00716202 0.014134 -0.0060843 0.00361538 1.44045 4.76645 4.20159 0.00559691 
183 1 1 0.0406182 -0.0141255 0.015747 0 0 0 0.0187322 -0.0139352 0.00529144 0.0223224 0.0017469 0.00261294 1.94711 -0.781155 -12.0846 0.00559691 
146 1 1 -0.0444925 -0.00742997 0.0168962 0 0 0 0.00674198 -0.00502125 0.0205606 0.0106777 -0.00564517 0.0023046 3.35007 -3.62741 -1.76311 0.00559691 
160 1 1 -0.00147996 -0.00567689 0.0187523 0 0 0 0.0246399 0.0504357 0.118071 0.000693324 -0.00736218 0.00290791 -5.89433 -9.33537 -11.1541 0.00559691 
25 1 1 -0.0411964 0.00660686 0.0157998 0 0 0 0.00827531 0.00807564 0.00121787 0.00218559 -0.00694314 -0.00464813 -5.53434 -5.26137 -1.19698 0.00895506 
261 1 1 0.0445586 0.01196 0.0172401 0 0 0 0.000205397 -0.00114639 -0.00401578 -0.00105964 0.0055617 -0.0138653 -3.05992 -1.38268 1.05409 0.00559691 
300 1 1 -0.0444606 0.0207009 0.0164273 0 0 0 -0.00332872 0.0145864 -0.0374125 0.00297384 -0.00254171 0.00644881 1.6403 6.23373 2.9381 0.00559691 
273 1 1 -0.033572 0.0213346 0.0141972 0 0 0 0.00175964 -0.0129697 -0.0046435 0.00531129 -0.0119422 0.0180003 -9.10214 -3.78344 -1.35155 0.00559691 
28 1 1 -0.0187562 0.0193158 0.0175444 0 0 0 0.0168252 -0.0171902 -0.000410712 0.0110671 -0.0168634 0.0316238 0.717482 -1.09846 3.77339 0.00895506 
286 1 1 -0.00152279 0.0152762 0.0166018 0 0 0 0.00125123 0.0614111 0.0240171 -0.0193015 -0.0956594 -0.0282127 38.2637 27.0302 -35.8964 0.00559691 
284 1 1 0.0400601 0.021946 0.0150676 0 0 0 0.0443062 0.0361284 -0.00623746 0.00275961 0.0152812 -0.0262252 -7.56489 24.8822 -16.9288 0.00559691 
320 1 1 0.00311232 0.0248209 0.0132627 0 0 0 0.031304 0.0476391 0.037576 -0.0276118 -0.0381558 -0.015053 -4.15131 14.9542 17.1576 0.00559691 
305 1 1 -0.0411034 0.0367853 0.0127294 0 0 0 0.0184501 0.0100412 0.000113122 -0.00434953 -0.00770723 0.00331086 -4.3226 3.97665 2.31709 0.00559691 
61 1 1 0.0362695 0.0361679 0.0171279 0 0 0 -0.00286927 0.0225624 0.00526318 -0.0463106 -0.0403237 0.00788847 3.49819 -0.776873 -4.23386 0.00895506 
237 1 1 -0.00230611 0.0443105 0.0121609 0 0 0 0.0373067 -0.00128724 0.00211959 -0.00863266 -0.0017161 -0.0112223 -4.32836 -10.7926 -7.0832 0.00559691 
239 1 1 0.0199511 0.0447834 0.0122044 0 0 0 -0.0392329 0.00356266 -0.00618942 -0.00783611 -0.00287247 -4.36661e-06 1.27354 -8.15339 -7.09797 0.00559691 
331 1 1 -0.0424737 -0.0448433 0.0201053 0 0 0 0.0115775 -0.00231362 0.00241324 0.0105196 0.006335 -0.00934714 0.307846 -13.3199 -2.57182 0.00559691 
225 1 1 -0.00402822 -0.0445594 0.0188855 0 0 0 -0.00896718 0.00931684 0.00420397 -0.0154223 -0.000531562 0.0100287 0.80295 55.8808 1.6366 0.00559691 
242 1 1 0.00749123 -0.0444723 0.0211781 0 0 0 -0.0290326 0.0123379 -0.0635963 0.0324206 -0.0129331 0.0525105 -13.0654 -10.2066 4.39456 0.00559691 
136 1 1 0.0444226 -0.0444284 0.021855 0 0 0 -0.00359323 0.00126662 0.0100534 0.0100022 -0.000685763 0.0019452 -1.13101 0.00395864 0.857949 0.00559691 
180 1 1 -0.0446471 -0.0345848 0.0232714 0 0 0 0.0024755 0.00478542 0.0134874 0.00464983 0.00186311 -0.010047 4.99935 -2.21754 -0.106161 0.00559691 
256 1 1 -0.0344016 -0.0384328 0.0241357 0 0 0 3.93988e-05 -0.0123181 0.0358168 0.000372917 0.00352082 -0.00473222 -8.3121 -1.16502 -3.42565 0.00559691 
7 1 1 -0.0223657 -0.0323684 0.0193161 0 0 0 -0.00652483 -0.00103182 0.00628138 -0.0267779 -0.0233814 0.0333204 -0.54608 1.11386 5.38483 0.00895506 
271 1 1 0.0329616 -0.039899 0.0261077 0 0 0 0.0124763 0.0134431 -0.0127846 0.0158303 -0.00336611 0.00180504 -1.66526 -11.6128 8.4618 0.00559691 
128 1 1 -0.0447684 -0.0236884 0.0215741 0 0 0 -0.00460197 0.0172538 0.0169193 -0.00480158 0.00501694 -0.000722551 -4.86225 -3.74575 3.09298 0.00559691 
51 1 1 0.0106534 -0.0234353 0.0211244 0 0 0 -0.00326251 -0.00516941 0.0299678 0.00834882 -0.0273696 -0.0461541 2.76663 -4.77272 -1.3402 0.00895506 
120 1 1 0.0415153 -0.0298655 0.0211707 0 0 0 0.00515345 0.0171848 -0.000314599 0.020307 -0.0212586 -0.0248995 -2.89925 0.0731685 -1.54169 0.00895506 
178 1 1 -0.0161497 -0.0195057 0.0220185 0 0 0 0.0227139 -0.00583747 0.0236646 -0.0108147 -0.00214239 0.00476674 2.6297 2.42883 -9.86202 0.00559691 
258 1 1 -0.00320846 -0.0163665 0.0208411 0 0 0 -0.0201349 0.0284488 0.0490788 -0.00943782 -0.00475333 -0.00666675 17.9284 0.856382 4.70413 0.00559691 
134 1 1 0.0446619 -0.0168814 0.0262659 0 0 0 0.00477608 0.00254199 0.0130666 -0.00387553 -0.00357875 0.0126407 8.73268 1.29394 1.1661 0.00559691 
19 1 1 -0.0297543 -0.0130516 0.0203722 0 0 0 0.00275242 -0.0162402 0.0260702 -0.0104566 -0.0416952 0.027955 6.12535 -0.217958 3.78259 0.00895506 
310 1 1 -0.016129 -0.00775074 0.0197399 0 0 0 0.0181593 -0.0282811 0.0524361 -0.00327127 -5.50898e-05 2.86454e-05 4.44315 1.86023 7.80212 0.00559691 
245 1 1 0.00449102 -0.0117488 0.0269122 0 0 0 -0.0124238 -0.0219051 0.081343 -0.00732215 -0.0012763 -0.01906 7.71486 6.75722 3.49762 0.00559691 
18 1 1 0.0181517 -0.00830503 0.0253964 0 0 0 -0.0059979 -0.000490079 0.0310317 -0.0136028 0.0216769 -0.0713072 -5.66084 0.670781 0.0193809 0.00895506 
184 1 1 0.0313262 -0.0125974 0.0232794 0 0 0 -0.00508437 -0.00668765 0.0368605 0.0011346 0.000523389 0.0148279 4.4369 -0.0286614 -0.0197305 0.00559691 
112 1 1 -0.0246279 0.00358533 0.0222233 0 0 0 0.0036999 -0.0156297 0.0302274 0.0368032 -0.0831279 -0.0703976 -5.79167 -1.7813 -4.11528 0.00895506 
55 1 1 0.0414711 -0.0030876 0.024866 0 0 0 -0.00238496 0.00259457 0.00718038 -0.012312 -0.00116893 0.0607391 -7.03949 1.0113 -0.239469 0.00895506 
4 1 1 -0.00832559 0.00953043 0.0280565 0 0 0 0.0264769 -0.00292347 0.021355 -0.0372194 -0.0550603 0.0105986 -1.6075 -1.00156 -0.842606 0.00895506 
100 1 1 0.00910989 0.00675692 0.0237034 0 0 0 -0.00540915 0.00378171 0.0262505 0.030717 0.0441024 -0.0221321 0.646691 7.80815 -0.975151 0.00895506 
95 1 1 0.0270771 0.00666307 0.0265025 0 0 0 -0.00936698 0.00989612 0.00256557 -0.00845658 0.0021217 0.0176254 2.966 0.805251 0.837054 0.00895506 
2 1 1 -0.0335161 0.0176661 0.0281098 0 0 0 0.000780043 -0.00252701 0.0076904 0.0148506 0.0105396 0.0371152 3.19276 1.87782 3.29502 0.00895506 
108 1 1 0.0218184 0.0228069 0.0236356 0 0 0 0.00536977 0.0203723 0.0156369 -0.0278373 0.0115179 0.0127135 -0.65691 -3.09342 -1.8345 0.00895506 
246 1 1 -0.0443478 0.0275127 0.025219 0 0 0 -0.00293793 -0.00758868 -0.0173908 -0.00226629 -0.002012 0.0125173 4.16396 -3.31009 0.203843 0.00559691 
23 1 1 -0.0284445 0.0339614 0.0189957 0 0 0 0.0119001 -0.0127043 0.0152213 -0.0154722 -0.0125859 0.00426866 5.54412 -4.65545 -3.30312 0.00895506 
69 1 1 -0.00716127 0.0320084 0.0204684 0 0 0 -7.02545e-05 -0.00542269 0.0375974 -0.0366914 0.0192256 0.0357987 -0.830326 -6.13022 -3.15548 0.00895506 
16 1 1 0.00965667 0.0374956 0.019573 0 0 0 -0.00343902 -0.00144744 0.0163981 -0.0354159 0.0160241 0.0306736 0.75125 0.427035 -5.54659 0.00895506 
323 1 1 -0.013053 0.044775 0.0222001 0 0 0 0.00888078 0.004501 0.00333025 -0.0129272 -0.00265673 -0.00107486 0.00618031 -4.56881 1.55501 0.00559691 
224 1 1 -0.0425451 -0.0437171 0.0312064 0 0 0 -0.0283207 0.0488693 -0.0022951 0.0116512 0.00846014 0.0278539 -10.7158 3.53359 -4.3484 0.00559691 
42 1 1 -0.012513 -0.0412382 0.0309442 0 0 0 0.00826913 0.00741305 0.0186005 0.0792196 -0.0243511 -0.0334708 1.93461 -3.47279 -0.983347 0.00895506 
168 1 1 0.00168589 -0.0423947 0.0303294 0 0 0 0.00188253 -0.0415288 -0.0361413 0.0337512 -0.0184079 0.00639807 28.73 13.9039 -9.04412 0.00559691 
3 1 1 0.0201483 -0.0412919 0.0318002 0 0 0 0.0188577 0.00290688 -0.00513643 0.0769787 0.00696722 0.0299154 -0.403981 7.94238 -2.95553 0.00895506 
125 1 1 0.0404659 -0.0443749 0.0336406 0 0 0 0.055148 0.0269685 -0.076467 0 0 -0.0180112 -10.8455 0.625346 -9.71881 0.00559691 
211 1 1 -0.0444554 -0.0327592 0.0341584 0 0 0 0.00666646 -0.00160257 0.0236728 0.00331061 0.00820131 -0.00578299 -2.47035 2.73255 -2.12953 0.00559691 
191 1 1 0.00820869 -0.0336235 0.0308447 0 0 0 -0.0132756 -0.0218556 0.0330652 0.000730505 0.0153337 -0.00108596 -3.88188 -0.110728 13.0692 0.00559691 
93 1 1 -0.0290105 -0.0316185 0.0357555 0 0 0 0.00557292 -0.00454112 0.0297987 -0.0167058 0.0383853 -0.00177099 0.899743 1.2003 -3.7939 0.00895506 
43 1 1 -0.00624136 -0.0249765 0.0358201 0 0 0 -0.00362879 -0.0294534 0.0583493 0.0179618 -0.0232538 -0.0341139 11.9773 1.29475 5.47791 0.00895506 
105 1 1 0.0327076 -0.0285712 0.0365248 0 0 0 -0.00532066 0.036294 0.0113832 -0.0166169 -0.0279663 -0.0650227 0.545878 -0.983499 1.76776 0.00895506 
66 1 1 -0.0412044 -0.0187237 0.034631 0 0 0 0.00491943 0.015686 0.02297 -0.0160369 0.035541 -0.0262265 0.291052 -2.79228 2.22061 0.00895506 
259 1 1 0.0284238 -0.0149558 0.0336535 0 0 0 -0.0123413 -0.00360318 0.0462737 -0.0420537 0.0150234 0.00506773 -3.78668 5.44508 -9.36435 0.00559691 
336 1 1 -0.0218569 -0.00743845 0.030951 0 0 0 -0.0236297 -0.0102107 0.0633976 -0.0158604 -0.0160777 0.00346338 0.602441 -0.213128 6.97056 0.00559691 
24 1 1 -0.00775022 -0.0075273 0.0328038 0 0 0 -0.0187301 -0.00648504 0.0908193 -0.0242518 -0.0259433 -0.00125597 -6.61353 -2.37362 -3.69697 0.00895506 
107 1 1 -0.0389206 -0.00148784 0.0313419 0 0 0 -0.0345851 0.0285018 0.0335145 -0.0138143 0.0243708 0.0222496 2.05098 -0.649195 0.358456 0.00895506 
303 1 1 0.030954 -0.00418563 0.0350412 0 0 0 -0.000241904 0.0043782 0.00296048 0.00596774 0.00876666 -0.0063749 -8.42388 9.4088 -8.76689 0.00559691 
208 1 1 -0.0447166 0.0127766 0.0353868 0 0 0 -0.00085125 -0.00605345 0.0207024 0.00834419 0.00272323 0.00505252 -11.8146 -4.1641 -1.25099 0.00559691 
236 1 1 -0.0205936 0.0072119 0.0357199 0 0 0 0.019284 -0.0531718 -0.121463 -0.0503127 0.073876 0.100999 -2.42282 -9.88747 6.66336 0.00559691 
282 1 1 -0.0195723 0.0176737 0.0318772 0 0 0 0.0073645 0.00810863 0.0137436 0.00585871 0.000907678 0.00481359 6.81738 -3.46565 0.21684 0.00559691 
58 1 1 0.0414518 0.0153355 0.0309677 0 0 0 -0.000608514 0.00473447 0.0101483 -0.00515162 -0.0249076 0.0588363 1.71599 1.05922 -1.07012 0.00895506 
199 1 1 -0.0444096 0.0240126 0.035821 0 0 0 0.00394396 0.00995489 -0.00930155 -0.0010142 -0.00457219 0.0138586 -7.71713 3.87973 2.04295 0.00559691 
262 1 1 -0.0349208 0.0301666 0.0351259 0 0 0 -0.00976449 -0.0142182 0.0294427 0.00135969 -0.00301156 0.00588358 -0.197893 -1.56627 -0.439051 0.00559691 
192 1 1 -0.0244807 0.0281816 0.031746 0 0 0 -0.0078037 -0.00740157 0.0485701 0.00160354 -0.00388407 0.0133063 7.31545 -1.61394 -1.77887 0.00559691 
73 1 1 0.00529423 0.0231694 0.028962 0 0 0 0.00653995 0.000804154 0.0450026 0.0163275 0.0381918 0.016749 -1.39095 6.04174 3.95596 0.00895506 
292 1 1 -0.0150544 0.0338145 0.0323629 0 0 0 -0.000193334 -0.0099893 0.0467747 0.000139468 -0.00794054 0.0119402 6.01055 10.6076 1.92604 0.00559691 
47 1 1 0.0245356 0.0359775 0.0353354 0 0 0 -0.00382847 -0.00144242 0.0655985 -0.0143339 -0.00775827 0.0373152 -3.52982 5.09067 0.0354319 0.00895506 
9 1 1 -0.0412873 0.0412694 0.0286082 0 0 0 -0.000169848 -0.00717467 0.00524451 0.00277964 -0.00335483 0.0102132 -0.619674 -0.000408151 -0.677569 0.00895506 
122 1 1 -0.026061 0.0412581 0.037698 0 0 0 -0.0138712 -0.0046132 0.0486287 -0.00909064 0.00688876 0.0164184 -4.38387 -6.55853 -1.24256 0.00895506 
126 1 1 -0.0109545 0.0444867 0.0338661 0 0 0 0.0586419 -0.00899009 -0.0270372 -0.00654866 -0.00640912 -0.00821825 5.02999 -37.4146 10.2017 0.00559691 
248 1 1 0.00252242 0.0443983 0.0301869 0 0 0 -0.0245109 0.0308845 -0.00914256 -0.00389816 0.0025834 -0.00370906 -10.5382 -2.32824 11.9115 0.00559691 
229 1 1 0.0139006 0.0446979 0.0310749 0 0 0 -0.00734481 -0.00290772 0.0269917 -0.00183707 0.00100382 -0.00486725 -4.51958 -8.60755 -1.62135 0.00559691 
114 1 1 0.0413105 0.0412575 0.033083 0 0 0 7.0089e-05 -0.00169446 0.0131004 -0.00115144 -0.00225774 0.00600002 -1.65955 0.237395 0.388423 0.00895506 
329 1 1 -0.0238597 -0.0446143 0.038985 0 0 0 -0.00756929 -0.0084908 0.00477781 0.00371357 0.00630962 0.0107391 0.920263 2.5517 1.97311 0.00559691 
314 1 1 -0.0137516 -0.0445449 0.0457682 0 0 0 0.0121384 -0.00257076 0.0436219 -0.00837289 -0.000897625 -0.0105363 7.21197 -6.75252 -3.62251 0.00559691 
283 1 1 0.0298173 -0.0445201 0.0419681 0 0 0 0.00708591 0.00627382 0.0240742 0.00386507 -0.00702269 0.00137173 -1.91371 -17.7891 3.82202 0.00559691 
307 1 1 -0.0166138 -0.0338334 0.0427647 0 0 0 0.0162146 -0.0451915 0.0294253 0.000680605 0.0141057 0.00222728 6.71858 0.108483 2.5575 0.00559691 
337 1 1 -0.00607594 -0.0369914 0.0437844 0 0 0 0.0365264 -0.0442916 0.035243 -0.00859346 -0.010537 -0.0383398 -14.7144 1.69542 -3.0635 0.00559691 
56 1 1 0.00813715 -0.0384797 0.0444786 0 0 0 0.0468874 -0.00412679 0.0452623 -0.0190012 -0.0466229 -0.0925862 -2.78842 -0.910916 6.51711 0.00895506 
326 1 1 0.0445448 -0.027789 0.0446715 0 0 0 0.00207709 0.0197902 0.0130007 -0.00467511 -0.0128388 -0.00289627 4.30466 2.37318 -3.42426 0.00559691 
81 1 1 -0.0211008 -0.0168643 0.0416925 0 0 0 -0.0130962 -0.0123348 0.0669961 0.014157 0.00752913 0.00404751 0.863506 -6.48712 3.61222 0.00895506 
52 1 1 0.0110936 -0.0219353 0.0388391 0 0 0 -0.00365437 -0.00525068 0.0308973 -0.0308705 0.0304892 -0.0405091 0.218939 3.6884 -0.306808 0.00895506 
332 1 1 0.0244501 -0.0188229 0.0432254 0 0 0 -0.0084313 0.00722282 0.0457949 -0.0152203 0.00644777 -0.00580793 4.08675 -4.91126 3.68943 0.00559691 
220 1 1 -0.0443128 -0.007487 0.0432359 0 0 0 0.00669924 0.00421734 0.0603455 0.0146263 0.00359938 0.00951409 -3.30346 7.28257 6.73438 0.00559691 
10 1 1 0.00728844 -0.00488283 0.0417604 0 0 0 -0.0126394 -0.00815328 0.0687035 0.0122399 -0.00614527 -0.0267582 2.22885 2.77727 2.00593 0.00895506 
240 1 1 0.0212492 -0.0065842 0.0393647 0 0 0 0.000237785 0.0323138 0.0481648 0.00202808 -0.0208783 -0.0151119 4.40336 -1.1028 4.43222 0.00559691 
5 1 1 0.0412919 -0.0128708 0.0397905 0 0 0 0.0040042 -0.0134149 0.0164399 -0.022047 0.0116977 0.0279685 -3.72186 1.31615 1.91284 0.00895506 
133 1 1 -0.0275218 -0.00399 0.0398882 0 0 0 -0.0410287 -0.0112744 0.0569825 0.00208257 0.000726614 0.00996385 0.268594 -2.93162 -6.22174 0.00559691 
197 1 1 -0.0169461 -0.00142476 0.0421536 0 0 0 -0.0285214 -0.0121167 0.0818102 0.012437 -0.015801 0.0211622 10.1558 1.94895 6.82593 0.00559691 
318 1 1 0.0444047 0.002886 0.0377844 0 0 0 -0.00108097 -0.0238638 0.0290996 0.0213916 -0.0375011 0.0110216 -3.42754 0.596018 1.85448 0.00559691 
32 1 1 -0.0347842 0.00891644 0.0450615 0 0 0 -0.0511055 -0.00945646 0.0769675 -0.00385243 -0.0243852 0.00250641 2.8592 -3.9834 -3.60576 0.00895506 
115 1 1 0.00190064 0.0119433 0.0423347 0 0 0 -0.0053256 -0.00487029 0.0685467 -0.0942439 0.0168703 -0.018089 -0.579999 -5.96301 -3.88389 0.00895506 
298 1 1 0.033011 0.0101777 0.0415428 0 0 0 0.0386805 -0.00312396 0.0383036 -0.00828383 -0.00167394 0.016248 -8.33168 2.61121 9.81548 0.00559691 
291 1 1 0.0442732 0.0125345 0.0448962 0 0 0 -0.00516877 -0.0778527 -0.00190831 0.0242132 0.0082017 -0.00966494 10.0938 -0.179936 -8.29022 0.00559691 
335 1 1 -0.0313617 0.0226051 0.042363 0 0 0 -0.0104685 -0.012496 0.059392 0.0156848 -0.00433886 0.00604511 -6.92992 0.787445 -1.17093 0.00559691 
15 1 1 0.019337 0.0147852 0.040277 0 0 0 0.0180076 -0.0409431 0.0746134 -0.0734332 -0.0297581 -0.00307173 5.22465 5.2106 -0.445663 0.00895506 
117 1 1 -0.0173587 0.0251874 0.04402 0 0 0 -0.00331224 -0.0171635 0.0443938 0.0662276 -0.0532824 0.0370749 0.0981607 1.00244 -0.235022 0.00895506 
140 1 1 0.00840463 0.0246506 0.043066 0 0 0 0.0178483 -0.00944049 0.0446998 -0.0199483 0.00718279 -0.0111898 -9.23099 -0.437103 1.78772 0.00559691 
106 1 1 0.0411287 0.0272786 0.0440759 0 0 0 -0.0157906 -0.00275348 0.0337325 -0.0266149 0.0239828 0.0392854 0.467379 -5.01681 0.23224 0.00895506 
99 1 1 -0.00279664 0.0341578 0.0398369 0 0 0 0.00608365 -0.0176845 0.0671381 -0.0115487 -0.00509376 -0.00358219 3.15014 -2.19771 -0.992126 0.00895506 
327 1 1 -0.0434707 0.0445135 0.0425131 0 0 0 -0.00133733 0.00536733 0.0133668 0.0101479 -0.00808412 0.000395404 -2.19936 -0.347918 -0.0601304 0.00559691 
158 1 1 0.00424624 0.044596 0.0466105 0 0 0 0.00840883 -0.00161997 0.0594082 -0.00497939 -0.00219367 -0.0141166 -10.607 0.528274 1.21924 0.00559691 
203 1 1 0.0446137 0.0445117 0.0466532 0 0 0 0.00436879 -0.00368465 0.0194793 -0.00765182 -0.00115446 -0.00208202 3.64254 2.81614 0.927795 0.00559691 
6 1 1 -0.0256122 -0.0411765 0.0531235 0 0 0 -0.00271494 -0.017875 0.0391054 0.00361009 0.016631 -0.00828868 5.27338 0.350774 -0.455196 0.00895506 
190 1 1 -0.00240013 -0.0436301 0.0528144 0 0 0 -0.0126539 0.019225 0.0129756 -0.00935213 -0.0144959 -0.0280846 16.3454 -3.03081 -26.6977 0.00559691 
265 1 1 0.0204221 -0.0446062 0.0488294 0 0 0 0.0529767 -0.00225715 0.0533865 -0.00771768 0.00326546 -0.018273 9.57876 -2.09858 -9.21198 0.00559691 
189 1 1 0.0286361 -0.0443367 0.056765 0 0 0 0.00666525 0.00533856 0.0924917 -0.0115522 -0.008692 -0.0132194 36.6453 5.62585 -3.96907 0.00559691 
49 1 1 0.0410924 -0.0407452 0.0502035 0 0 0 -0.0109936 0.0325772 0.0493676 -0.0172299 0.00199487 -0.0261415 -5.05514 5.94384 -3.44851 0.00895506 
84 1 1 -0.04131 -0.0348526 0.0480547 0 0 0 -0.00356646 0.000526925 0.0292927 0.00246342 0.00774626 -0.040125 0.806971 -2.82263 0.424961 0.00895506 
313 1 1 -0.012111 -0.026038 0.0494089 0 0 0 -0.0194429 -0.0388007 0.0750432 0.00768831 0.00263382 -0.0179612 3.96916 2.71156 10.3377 0.00559691 
137 1 1 -0.00111869 -0.0282169 0.0490116 0 0 0 0.0318096 0.00114586 0.0768897 0.0180291 -0.0243934 -0.0113146 -22.569 0.618413 2.28423 0.00559691 
227 1 1 0.00939524 -0.0264625 0.0524767 0 0 0 0.0233854 0.00524254 0.0313662 -0.0418957 -0.0325631 -0.0184322 2.48467 -7.61475 -10.5395 0.00559691 
91 1 1 0.0232098 -0.0307637 0.0513743 0 0 0 0.0780466 -0.00330726 0.0860274 -0.057246 0.00270456 -0.107981 0.0657725 14.0445 5.66223 0.00895506 
247 1 1 0.0369663 -0.0276102 0.0548403 0 0 0 0.0887818 0.0742021 0.0825829 -0.0104998 0.00204845 -0.0165819 19.3948 -14.4115 2.30472 0.00559691 
36 1 1 -0.0412408 -0.0176987 0.0528831 0 0 0 -0.00403436 -0.0164216 0.0650198 0.0180805 -0.0044958 0.0118769 3.82975 -7.60654 -3.08397 0.00895506 
209 1 1 0.00813476 -0.01541 0.0517173 0 0 0 0.030084 0.00978662 0.0507333 0.0194095 -0.0299311 0.0128297 -0.494049 -2.38921 7.9578 0.00559691 
215 1 1 0.0326755 -0.0173122 0.0506185 0 0 0 -0.0162006 0.0735757 0.0560183 0.0107038 0.00890525 0.0178153 -19.9925 -3.19623 -1.27442 0.00559691 
217 1 1 0.0444307 -0.0195902 0.0522659 0 0 0 0.00300693 0.00665367 0.035556 -0.0120274 0.00319367 0.0128439 1.26082 -1.22311 -2.48339 0.00559691 
182 1 1 -0.030003 -0.00920952 0.0500984 0 0 0 -0.0104444 7.27987e-05 0.0705419 0.0230168 -0.00690727 0.00940107 -2.76978 12.8729 7.43288 0.00559691 
204 1 1 -0.0196576 -0.00955542 0.0542207 0 0 0 -0.00179207 0.0324941 0.0711951 -0.00142462 -0.021108 -0.00341992 -4.30385 -10.9361 -2.88368 0.00559691 
26 1 1 -0.00609195 -0.0128314 0.0503332 0 0 0 -0.00758439 -0.0219725 0.101493 0.0444829 -0.0160745 0.0177977 1.05557 3.30711 -3.94247 0.00895506 
276 1 1 0.0182139 -0.011539 0.0488228 0 0 0 0.0397874 0.0308661 0.0911955 -0.0316779 -0.00146663 -0.00931295 -0.0251346 15.3803 -8.88989 0.00559691 
148 1 1 0.0444763 -0.00520827 0.0532612 0 0 0 -0.0110651 -0.0266818 0.0598368 0.000936224 0.0143497 0.00831879 -34.7921 9.66821 3.80431 0.00559691 
306 1 1 -0.0391391 -0.00303951 0.0520395 0 0 0 -0.0358276 -0.0204059 0.109142 0.0167615 0.00401073 -0.00797085 2.40858 -2.16816 1.31392 0.00559691 
87 1 1 0.0309599 -0.00193918 0.0492908 0 0 0 -0.00440752 -0.0183681 0.0153873 0.0234169 0.049017 0.0186275 9.00902 -7.92789 -6.71564 0.00895506 
57 1 1 -0.0139067 0.00934127 0.0512731 0 0 0 -0.0402073 -0.00662179 0.0922921 0.0217483 -0.0445815 0.0905619 -5.95 -4.30933 -3.41729 0.00895506 
338 1 1 0.0445278 0.0113919 0.0559607 0 0 0 0.00136139 -0.0405844 0.00389068 0.000209722 0.0103905 -0.0178927 -15.8681 1.30757 6.21219 0.00559691 
233 1 1 -0.0025884 0.0174246 0.0549045 0 0 0 -0.0227601 -0.0207766 0.0833389 -0.0056841 -0.00379365 0.00594678 4.67507 4.22242 -0.079103 0.00559691 
263 1 1 0.00800576 0.0205432 0.0556217 0 0 0 -0.0170289 -0.0327924 0.0516744 -0.0117143 0.00409227 -0.0101136 5.47831 4.84656 -1.95913 0.00559691 
266 1 1 0.018637 0.0217554 0.052917 0 0 0 -0.00672383 -0.0271659 0.0792517 -0.00979066 -0.00623481 -0.00185914 -9.5215 -10.6647 4.37923 0.00559691 
45 1 1 0.0304721 0.0143973 0.0564913 0 0 0 -0.00716707 -0.0323543 0.0746449 -0.00426512 -0.00642481 -0.0587725 3.61838 8.46178 -4.25893 0.00895506 
39 1 1 -0.0412094 0.0314193 0.0480591 0 0 0 -0.0102287 0.00109464 0.0241622 0.061203 -0.0309634 0.024172 1.45347 -2.52855 -0.108836 0.00895506 
250 1 1 -0.0287396 0.0258533 0.0527254 0 0 0 -0.0120346 -0.0116579 0.0495938 0.0145545 -0.0116755 0.00970252 1.03322 -2.16334 -0.608893 0.00559691 
113 1 1 0.0147025 0.0353518 0.0501315 0 0 0 0.00502727 -0.0200117 0.0776112 -0.0336652 0.0125646 -0.0159009 8.19252 -3.81221 -1.83856 0.00895506 
174 1 1 -0.0342363 0.0444308 0.0492634 0 0 0 -0.0844436 0.00315848 0.00264857 -0.0015722 -0.0083071 0.00637707 7.14385 -5.40201 -2.7075 0.00559691 
35 1 1 -0.0202351 0.041063 0.0545611 0 0 0 -0.0203486 -0.00620601 0.0716888 0.0268302 0.000158776 0.0270854 4.10285 5.97903 0.567752 0.00895506 
315 1 1 -0.00767535 0.0446556 0.0481498 0 0 0 -0.0123998 -0.000535362 0.0425432 0.00493322 0.00971537 -0.0131976 -7.55859 -6.07745 -2.12946 0.00559691 
76 1 1 0.031416 0.0411162 0.051171 0 0 0 0.0171849 -0.0141309 0.081725 -0.0485362 0.00200633 -0.00853528 -6.56444 3.71091 1.91889 0.00895506 
252 1 1 -0.0380473 -0.0444684 0.0597296 0 0 0 -0.00735841 0.0243872 0.120974 -0.000981081 0.00419542 -0.0051845 12.4187 19.055 -23.2959 0.00559691 
79 1 1 -0.0114274 -0.0412724 0.0637694 0 0 0 0.000571103 0.00636794 0.0482738 0.0129347 0.00232463 -0.0751698 5.56557 1.79547 -0.118706 0.00895506 
109 1 1 0.0127241 -0.0411606 0.0613944 0 0 0 0.0249135 -0.00406834 0.0552489 -0.0116902 0.00525502 -0.0765445 5.28284 -2.37234 -1.7321 0.00895506 
186 1 1 0.0444117 -0.0444781 0.0638158 0 0 0 -0.00765614 -0.0145566 0.0276436 0.0101 0.0361146 0.0427553 5.83996 -5.55262 1.70948 0.00559691 