ITEM: TIMESTEP
64050
ITEM: NUMBER OF ATOMS
338
ITEM: BOX BOUNDS mm mm mm
-0.05 0.05
-0.05 0.05
0 0.15
ITEM: ATOMS id type type x y z ix iy iz vx vy vz fx fy fz omegax omegay omegaz radius 
131 1 1 -0.0257481 -0.0400546 0.00560328 0 0 0 -4.70025e-07 -4.87746e-07 -7.68609e-06 -3.56626e-06 -8.73726e-06 4.75683e-07 0.00057212 1.45553e-05 -4.6071e-05 0.00694698 
319 1 1 -0.0146874 -0.0445409 0.00605302 0 0 0 2.6599e-09 1.06563e-08 -4.17399e-06 -1.63847e-06 -4.42409e-06 -7.38461e-07 -0.000134112 -0.000159797 -0.000180168 0.00694698 
243 1 1 -0.00279117 -0.043873 0.0061044 0 0 0 -1.36453e-06 2.61382e-06 5.99112e-07 1.58009e-06 -5.65856e-06 -8.55395e-07 -0.000126933 -0.00059308 0.000615292 0.00694698 
260 1 1 0.0252546 -0.0438307 0.00594051 0 0 0 -1.61766e-06 4.80574e-06 8.40177e-06 1.69097e-06 -6.64945e-06 -1.2496e-05 0.000406713 -0.000240285 0.000132467 0.00694698 
78 1 1 0.0413085 -0.0407811 0.00927582 0 0 0 -2.01315e-06 3.89063e-06 9.17133e-06 4.72707e-06 -1.84551e-05 -4.56033e-05 0.000386406 0.000513291 -0.000219632 0.0111152 
74 1 1 -0.0408279 -0.0367696 0.00959711 0 0 0 -2.19144e-06 -4.79596e-07 -4.33522e-06 -1.90924e-05 -3.08419e-05 -9.05775e-06 -0.00012271 1.21519e-05 0.000213279 0.0111152 
296 1 1 -0.0274828 -0.0274567 0.00612191 0 0 0 -1.45798e-06 1.41127e-06 -9.25034e-06 -5.51433e-06 -1.43076e-05 5.41355e-06 0.000141994 0.000546369 -6.93957e-05 0.00694698 
173 1 1 -0.0155729 -0.0319598 0.00557452 0 0 0 7.03393e-07 3.75873e-06 -9.50547e-06 -6.18883e-06 -1.48621e-05 3.20482e-06 -0.000687084 -0.000369471 0.000502614 0.00694698 
275 1 1 -0.0035902 -0.0297747 0.00572449 0 0 0 3.41466e-07 9.67376e-06 -9.59226e-07 -5.49078e-06 -1.89137e-05 4.84803e-07 -0.00122185 -0.000526576 -9.06712e-05 0.00694698 
60 1 1 0.0105837 -0.0360376 0.00947777 0 0 0 -2.21433e-06 7.18469e-06 7.84744e-06 6.69358e-06 -5.22701e-05 -4.18868e-05 -0.000100383 -0.000370548 -0.000233761 0.0111152 
102 1 1 -0.0405428 -0.0169476 0.00905849 0 0 0 -3.72248e-06 1.76533e-07 -6.0452e-06 -1.16728e-06 -3.61271e-05 2.91076e-05 8.88203e-05 -0.000326738 -0.000158107 0.0111152 
328 1 1 -0.0254333 -0.01519 0.00543684 0 0 0 -2.42815e-06 5.8771e-06 -5.9441e-06 -3.61496e-06 -1.87229e-05 6.62536e-06 -0.000292088 0.000484896 0.00101412 0.00694698 
40 1 1 -0.0106765 -0.0158183 0.0106462 0 0 0 -2.77922e-06 1.21781e-05 -8.72792e-06 -4.84187e-05 -0.000113526 3.31762e-05 0.00020801 -0.000749876 0.000127724 0.0111152 
279 1 1 0.00440775 -0.0207351 0.0109055 0 0 0 -4.7612e-08 1.2171e-05 8.47509e-06 -9.69501e-06 -2.44368e-05 -1.58236e-05 0.00103586 -0.00144606 -0.000344684 0.00694698 
267 1 1 0.0155005 -0.0199621 0.00561747 0 0 0 1.2178e-06 8.01693e-06 1.33986e-05 -4.88487e-06 -1.45533e-05 -2.05796e-05 -8.46195e-05 -8.71485e-05 -0.000295722 0.00694698 
144 1 1 0.0430495 -0.0248667 0.005968 0 0 0 1.34508e-06 3.56113e-06 1.23385e-05 -1.80881e-06 -6.30199e-06 -1.59169e-05 -0.000248636 0.00156632 -0.000864028 0.00694698 
202 1 1 0.0452017 -0.0129601 0.0061295 0 0 0 -3.20613e-07 2.61483e-06 7.63144e-06 3.57644e-07 -8.88785e-06 -9.86228e-06 -0.000488436 0.000918627 0.000672321 0.00694698 
257 1 1 -0.0442073 -0.00104701 0.00624946 0 0 0 2.0195e-06 4.03256e-06 -3.63631e-06 -9.14654e-06 -6.71688e-06 -1.22107e-07 -0.000205717 0.000621132 0.00022631 0.00694698 
274 1 1 -0.0220225 -0.00377879 0.00775196 0 0 0 -1.04362e-06 1.51457e-05 -1.18665e-05 -2.54052e-05 -3.74761e-05 2.60292e-05 -0.000393762 0.00164562 -0.000770024 0.00694698 
50 1 1 0.0305736 -0.00918801 0.00973544 0 0 0 -1.54991e-06 4.40908e-06 1.81523e-05 2.95531e-06 -3.81606e-05 -7.86206e-05 -0.000888866 -5.38969e-05 -0.000598313 0.0111152 
232 1 1 -0.0434387 0.0118756 0.00626167 0 0 0 2.13102e-07 6.99817e-06 -7.62636e-06 -9.99077e-06 -9.93117e-06 5.63335e-06 -0.0005385 0.00108784 0.000563622 0.00694698 
268 1 1 -0.0326769 0.00368233 0.00609414 0 0 0 8.28169e-07 1.57455e-05 -1.46487e-05 -2.44391e-05 -3.09723e-05 1.51782e-05 -0.0026257 -0.000655845 0.000600449 0.00694698 
171 1 1 -0.021197 0.00798671 0.00823476 0 0 0 3.16352e-06 1.88941e-05 -3.85248e-06 -4.09315e-05 -4.76795e-05 -1.18661e-05 0.00144985 -0.000785127 -2.70263e-05 0.00694698 
164 1 1 0.0206 0.00173768 0.00544627 0 0 0 -6.30993e-07 2.13583e-06 7.61793e-06 -2.50331e-06 -6.78397e-06 -1.32387e-05 -0.000707436 0.000384544 0.000643974 0.00694698 
297 1 1 -0.0253905 0.019586 0.00549872 0 0 0 6.57564e-06 1.58212e-05 -3.59873e-06 -4.26227e-05 -3.75189e-05 -2.72031e-05 -0.00190087 0.000204967 -0.00120624 0.00694698 
222 1 1 -0.0108507 0.0145912 0.00545576 0 0 0 6.11532e-06 1.20642e-05 5.76985e-06 -3.63835e-05 -2.80123e-05 -3.59962e-05 -0.00121501 0.000242076 -0.000607882 0.00694698 
290 1 1 -0.000799293 0.0214674 0.00523789 0 0 0 6.3521e-06 5.80758e-06 8.77138e-06 -2.39152e-05 -1.24331e-05 -3.66396e-05 -0.000845302 -0.000315601 0.000163108 0.00694698 
98 1 1 0.0122233 0.0135227 0.00979359 0 0 0 3.9679e-06 8.21355e-07 1.67746e-05 -0.000104991 -3.81376e-05 -0.000233163 0.00011525 0.000800445 -0.000672053 0.0111152 
316 1 1 0.0321802 0.0195781 0.00502884 0 0 0 3.33745e-06 -3.42855e-06 5.36196e-06 -3.66724e-06 2.32544e-06 -1.68896e-05 0.000991566 0.000379472 0.000495279 0.00694698 
162 1 1 0.0446349 0.0202023 0.00544626 0 0 0 2.49227e-06 -2.62863e-07 7.53566e-06 -2.27615e-06 -1.51504e-06 -2.24511e-05 -0.0018256 0.000814497 0.000128371 0.00694698 
294 1 1 -0.0439424 0.0252727 0.00613941 0 0 0 -4.35333e-06 6.622e-06 -5.968e-06 2.72791e-06 -5.60437e-06 1.13037e-05 -0.000506199 -0.00040603 0.000300121 0.00694698 
175 1 1 -0.0327496 0.0313742 0.00614205 0 0 0 -1.44745e-06 3.44924e-06 -6.02449e-06 -1.51255e-05 1.88875e-05 1.79951e-05 -0.000433194 0.000143505 -0.000906066 0.00694698 
255 1 1 -0.0148477 0.0261367 0.005876 0 0 0 4.98632e-06 9.01956e-06 -3.25576e-06 -3.04279e-05 -1.9774e-05 -8.45316e-06 -0.000809883 -7.37654e-05 0.000711951 0.00694698 
324 1 1 -0.00330542 0.0326855 0.00566931 0 0 0 5.81496e-07 6.40959e-06 -4.02823e-07 -5.15843e-06 -1.81687e-05 -2.68782e-06 -0.000565719 -0.000563482 0.000449512 0.00694698 
161 1 1 0.00824506 0.0320299 0.00644886 0 0 0 -4.16613e-07 1.54704e-06 1.04567e-05 2.22639e-06 -1.10303e-05 -4.76688e-05 -0.00150722 -0.000594668 -0.00180394 0.00694698 
77 1 1 0.0226325 0.0295981 0.0123431 0 0 0 -6.9941e-07 -1.06349e-05 2.02468e-05 -3.44984e-05 7.70747e-05 -0.00024154 0.000680031 -0.000429893 9.1713e-05 0.0111152 
155 1 1 0.0376085 0.0311764 0.00564484 0 0 0 -6.92965e-07 -2.86672e-06 9.52583e-06 -9.25701e-07 4.33672e-06 -2.57628e-05 0.000556174 0.000721118 0.00027891 0.00694698 
321 1 1 -0.04402 0.0437755 0.00629381 0 0 0 -1.6013e-06 6.79024e-07 -1.14285e-06 -1.15425e-06 3.99809e-06 -1.11249e-06 1.05705e-05 -0.000217508 -0.000359404 0.00694698 
207 1 1 -0.0314325 0.0439672 0.00637411 0 0 0 5.42905e-07 1.58416e-06 -3.251e-06 -9.1247e-06 4.4794e-06 2.04149e-06 0.000337341 0.000402274 0.000559302 0.00694698 
38 1 1 -0.0153313 0.0415942 0.0097906 0 0 0 -9.89726e-07 5.95902e-06 -5.05631e-06 -1.60318e-05 -4.95271e-05 5.85834e-05 -7.53635e-06 -0.00025751 -0.000209317 0.0111152 
149 1 1 0.0120644 0.043872 0.00543327 0 0 0 3.04962e-06 -2.56371e-06 3.18712e-06 -1.11153e-05 5.81917e-06 -7.90055e-06 0.000335769 -0.000181697 0.000261294 0.00694698 
237 1 1 0.0011871 0.0437539 0.0121483 0 0 0 -1.30797e-06 6.39545e-07 -2.47223e-07 1.04353e-06 -4.88837e-06 -1.55956e-06 0.000121946 -0.000557481 -0.000641555 0.00694698 
249 1 1 0.0277053 0.0441438 0.00611634 0 0 0 -2.57235e-07 -6.0179e-06 1.053e-05 -1.12901e-06 1.25779e-05 -3.18446e-05 -0.000450622 0.000356208 -9.875e-05 0.00694698 
289 1 1 0.0443721 0.0422256 0.00592205 0 0 0 -2.05406e-06 -5.07865e-06 8.25207e-06 1.62162e-07 1.27522e-05 -2.35007e-05 0.00108281 0.0006394 0.000603149 0.00694698 
331 1 1 -0.0432693 -0.0455642 0.0218634 0 0 0 -1.45447e-06 -5.25406e-07 -2.29846e-06 -4.74394e-06 -5.98308e-06 -1.09921e-06 -0.000286749 -0.000133753 0.000125727 0.00694698 
299 1 1 -0.0246085 -0.0451872 0.0168094 0 0 0 -2.39903e-06 -7.90746e-07 -1.37643e-05 3.66704e-07 -1.72706e-05 5.49456e-06 -0.00200782 -0.00055815 0.000340327 0.00694698 
225 1 1 -0.0115498 -0.0442709 0.0185952 0 0 0 -2.42575e-06 6.25552e-07 -9.69293e-06 2.5304e-06 -1.31959e-05 -1.04268e-06 -0.000783113 -0.00043339 1.39488e-05 0.00694698 
242 1 1 0.00106186 -0.0446807 0.0196824 0 0 0 -3.78496e-06 4.95021e-06 1.52233e-06 2.63865e-06 -1.29073e-05 -7.22005e-06 0.000138865 -0.000911512 0.000570418 0.00694698 
130 1 1 0.0208357 -0.0442058 0.0182028 0 0 0 -4.26087e-06 1.12643e-06 8.91108e-06 6.43414e-06 -2.38145e-06 -1.36108e-05 0.00102753 -0.000399122 0.000473942 0.00694698 
167 1 1 0.0319451 -0.0442251 0.0228862 0 0 0 -4.42819e-06 3.11477e-06 1.55836e-05 3.98609e-06 -6.82071e-06 -2.2102e-05 0.00079934 -0.000275096 0.000230768 0.00694698 
136 1 1 0.0442903 -0.0447089 0.0241887 0 0 0 -4.70685e-06 3.65082e-06 9.69518e-06 6.27467e-06 -6.33794e-06 -1.32536e-05 0.000672419 -4.76971e-05 0.000501308 0.00694698 
179 1 1 -0.0345746 -0.0262026 0.0213894 0 0 0 -7.31087e-06 1.27955e-06 -1.91874e-05 -1.29519e-05 -4.51582e-05 1.75429e-05 -0.000554218 0.00216376 0.000364346 0.00694698 
7 1 1 -0.0200353 -0.030427 0.0211168 0 0 0 -1.0015e-05 3.0725e-06 -2.65409e-05 -2.41898e-05 -0.000151204 4.78401e-05 0.000154599 -0.00117221 0.000287445 0.0111152 
104 1 1 -0.000112739 -0.0285696 0.0247238 0 0 0 -1.50335e-05 1.04491e-05 9.38413e-09 6.07021e-06 -0.000127554 -2.22506e-05 -3.79371e-05 -0.0016812 0.000507413 0.0111152 
67 1 1 0.0278423 -0.0280453 0.0126283 0 0 0 -5.82994e-06 8.37892e-06 2.68422e-05 1.29621e-05 -6.20066e-05 -0.000135897 0.000362747 -0.000926697 0.000153011 0.0111152 
128 1 1 -0.0450313 -0.0217265 0.0238335 0 0 0 -6.64105e-06 3.94738e-06 -8.86337e-06 4.74701e-06 -1.85899e-05 1.55204e-05 7.32201e-06 -0.000424807 -0.000206694 0.00694698 
278 1 1 0.0331688 -0.016193 0.0241362 0 0 0 -1.93519e-05 1.44751e-05 4.0483e-05 1.41696e-05 -2.95154e-05 -5.3888e-05 -0.000387328 -0.00128207 0.000133547 0.00694698 
146 1 1 -0.044873 -0.00919979 0.0224711 0 0 0 -7.0551e-06 1.72825e-05 -2.5792e-05 -2.04354e-05 -2.57385e-05 5.77138e-06 -0.00477211 0.00322127 0.00296906 0.00694698 
96 1 1 0.0119173 -0.00721232 0.0161322 0 0 0 -1.58194e-06 1.31398e-05 2.13214e-05 -8.23024e-05 -0.000116437 -0.000175285 -0.000763313 -0.000344131 1.45794e-05 0.0111152 
183 1 1 0.0447601 -0.00703514 0.017542 0 0 0 -7.04566e-06 1.43062e-06 1.82564e-05 1.95391e-05 -3.85117e-06 -3.39235e-05 0.00262652 0.000160422 0.00121352 0.00694698 
25 1 1 -0.0377541 0.00483186 0.0223891 0 0 0 -1.39881e-05 2.29977e-05 -4.3788e-05 -0.000268985 -0.000257988 7.89471e-05 0.00197058 -0.000698056 -0.00164239 0.0111152 
17 1 1 -0.00526005 0.00256309 0.0144082 0 0 0 -8.36149e-07 1.49709e-05 8.81247e-06 -0.000123665 -0.000136441 -0.00019759 0.00063334 -0.000909006 -0.000457057 0.0111152 
94 1 1 0.0384742 0.00842694 0.0134969 0 0 0 -1.27872e-05 4.16638e-06 2.5188e-05 0.000143133 -3.71441e-05 -0.000258013 -0.000785282 -0.00467881 0.000800843 0.0111152 
300 1 1 -0.0447061 0.0189524 0.017051 0 0 0 -9.36023e-07 1.64813e-05 -1.29392e-05 -2.28662e-05 -2.45903e-05 1.13926e-05 -4.04223e-05 0.0010433 0.00216824 0.00694698 
273 1 1 -0.0327466 0.0189504 0.0155434 0 0 0 2.95275e-06 2.68872e-05 -1.41844e-05 -5.68858e-05 -5.38972e-05 -8.00089e-06 0.00151951 -0.000887258 -0.000468453 0.00694698 
28 1 1 -0.0168118 0.0183633 0.0204917 0 0 0 -1.60017e-06 2.18188e-05 2.14885e-06 -0.000235446 -0.00017254 -0.000237688 -0.000128804 -0.00127124 -0.000119368 0.0111152 
286 1 1 -0.00173311 0.0186074 0.0168812 0 0 0 8.9299e-06 1.10992e-05 1.79111e-05 -4.97259e-05 -2.49761e-05 -8.11925e-05 -0.000644748 -0.000213388 -0.00105231 0.00694698 
305 1 1 -0.0436936 0.0348177 0.0156113 0 0 0 -2.40704e-06 2.73667e-06 -8.46133e-06 -8.60643e-06 2.24323e-05 2.41995e-05 0.000582232 0.00127037 0.000273912 0.00694698 
23 1 1 -0.0279413 0.0337349 0.0221096 0 0 0 -6.87633e-06 1.67337e-05 -1.20064e-05 -6.07749e-05 -0.000155046 0.000117739 -0.000822632 -0.000735768 0.00074807 0.0111152 
320 1 1 0.0037966 0.0296091 0.0183791 0 0 0 -6.3801e-08 5.30862e-06 1.83321e-05 1.00388e-05 -1.62737e-05 -8.62833e-05 0.00173681 0.000552684 0.00233612 0.00694698 
284 1 1 0.0446348 0.0273726 0.015737 0 0 0 2.24117e-06 -7.10094e-06 5.55084e-06 -9.0536e-06 1.58166e-05 -2.0492e-05 0.00255846 0.000326845 0.00149414 0.00694698 
239 1 1 0.0187751 0.0448273 0.0154887 0 0 0 -1.95861e-06 -5.95308e-06 1.36256e-05 1.02588e-05 1.52903e-05 -3.969e-05 -0.000944574 -0.000548268 4.66482e-05 0.00694698 
61 1 1 0.037083 0.0409697 0.0204872 0 0 0 -5.2677e-06 -1.27979e-05 1.75256e-05 1.20043e-05 9.56837e-05 -0.0001998 -0.000489725 -0.000312056 -0.000172311 0.0111152 
224 1 1 -0.0437842 -0.0444768 0.0343523 0 0 0 -2.88204e-06 2.35931e-06 -2.68057e-06 -2.83255e-06 -9.95308e-06 -7.76922e-07 -0.000563862 -1.40756e-05 0.00060926 0.00694698 
256 1 1 -0.0327608 -0.0400947 0.0257176 0 0 0 -1.93939e-06 6.00146e-06 -1.97898e-05 -5.58202e-06 -2.99227e-05 9.59224e-06 -0.00164497 0.00242055 0.000845847 0.00694698 
42 1 1 -0.0120031 -0.0408868 0.0355064 0 0 0 -1.75644e-05 2.97047e-07 -1.82617e-05 1.85893e-05 -0.00014058 2.88093e-06 -0.00063946 -0.00134312 0.00111432 0.0111152 
271 1 1 0.0313717 -0.040779 0.0343155 0 0 0 -1.33176e-05 1.43836e-05 3.19194e-05 8.14915e-06 -2.82858e-05 -5.02025e-05 -0.00078066 -0.000743695 -0.00113103 0.00694698 
125 1 1 0.0438559 -0.0440726 0.0371344 0 0 0 -8.04399e-07 -5.97351e-07 1.31615e-05 -2.25917e-06 -2.92386e-06 -1.96253e-05 0.00150448 0.00220349 -8.85322e-05 0.00694698 
180 1 1 -0.0442349 -0.0338852 0.0265895 0 0 0 -4.68366e-06 3.84849e-07 -7.81041e-06 -3.86097e-06 -1.23863e-05 4.71193e-06 -7.59215e-07 -9.62774e-05 0.000161036 0.00694698 
120 1 1 0.0409684 -0.0296038 0.0290176 0 0 0 -1.28088e-05 7.61516e-06 3.04985e-05 4.34123e-05 -7.07046e-05 -0.000174822 0.000483926 0.00151243 -0.000126432 0.0111152 
178 1 1 -0.012639 -0.0206731 0.0321261 0 0 0 -2.59655e-05 1.27391e-05 -3.32708e-05 -1.07054e-05 -4.65868e-05 -9.35725e-06 -0.00155706 -0.000612884 -0.000251271 0.00694698 
51 1 1 0.0185589 -0.0226609 0.0301883 0 0 0 -2.38983e-05 1.73988e-05 3.73214e-05 3.57909e-05 -0.000142086 -0.000215144 -0.000147954 -0.00107168 -1.39012e-05 0.0111152 
134 1 1 0.0440827 -0.0143844 0.0325108 0 0 0 -1.5696e-05 5.24137e-06 3.05302e-05 1.62937e-05 -9.95248e-06 -5.81679e-05 0.000272531 0.00186676 0.000997763 0.00694698 
19 1 1 -0.0263968 -0.0120069 0.0273709 0 0 0 -2.68584e-05 1.25043e-05 -5.63221e-05 -0.000132024 -0.000301251 6.44298e-07 -0.00162564 -0.000134096 0.000673024 0.0111152 
310 1 1 -0.0104365 -0.00898779 0.0299638 0 0 0 -2.72053e-05 1.73778e-05 -3.59065e-05 -1.66137e-05 -4.82826e-05 -4.77904e-05 0.00158273 -0.00380694 6.74216e-06 0.00694698 
258 1 1 0.000949977 -0.012339 0.0275497 0 0 0 -1.85e-05 1.74007e-05 2.83246e-06 -9.35307e-06 -4.93513e-05 1.21239e-06 -7.12836e-05 -0.00311383 -0.000815656 0.00694698 
18 1 1 0.0121869 -0.004473 0.0369606 0 0 0 -4.16687e-05 6.80258e-06 4.7799e-05 0.000122177 -3.00622e-05 -0.000432856 0.00261724 -0.00331659 0.000608291 0.0111152 
184 1 1 0.0277391 -0.00806876 0.0328958 0 0 0 -3.11446e-05 1.32044e-05 5.98729e-05 2.34117e-05 -2.03215e-05 -0.000126984 0.001942 0.000707656 -0.00141286 0.00694698 
112 1 1 -0.0179401 0.00468424 0.0351756 0 0 0 -3.04679e-05 1.13855e-05 -2.29639e-05 -0.000245733 -0.000257549 -0.000380298 0.00250111 -0.00180268 -0.00100475 0.0111152 
160 1 1 -0.0025879 0.000661782 0.0310725 0 0 0 -2.71792e-05 1.11236e-05 8.0435e-06 -1.90227e-05 -3.41652e-05 -7.73468e-05 0.000701944 -0.00349685 -0.000138237 0.00694698 
55 1 1 0.0406908 0.00155577 0.0321767 0 0 0 -2.92371e-05 3.78963e-06 4.07093e-05 0.000173161 -2.90988e-06 -0.000401103 0.000204919 0.00228286 0.000454576 0.0111152 
2 1 1 -0.0316934 0.0196551 0.0354849 0 0 0 -1.65714e-05 9.67925e-06 -1.68734e-05 -0.000267932 -0.000310143 -6.62318e-05 0.00136025 -0.00126487 0.000113127 0.0111152 
100 1 1 0.00652131 0.0141766 0.0298282 0 0 0 -1.77645e-05 8.51225e-06 4.66464e-05 -0.000120259 -0.000141762 -0.000682145 -3.19364e-05 -0.00358139 -0.000415836 0.0111152 
261 1 1 0.0433989 0.0180072 0.0268079 0 0 0 -3.89224e-05 6.44834e-06 3.44419e-05 7.36836e-05 -9.53252e-06 -8.52301e-05 0.0011365 0.00247274 -0.000440503 0.00694698 
246 1 1 -0.0443138 0.0262016 0.0275325 0 0 0 -7.58341e-06 1.0351e-05 -1.34779e-05 -1.67869e-05 -2.11314e-05 1.7473e-05 0.000575359 0.00101929 0.00131584 0.00694698 
69 1 1 -0.00686324 0.0298272 0.0340234 0 0 0 -2.05024e-05 1.0151e-05 2.80973e-05 -0.000149093 -0.000110509 -0.000644259 0.000782864 -0.000726096 -0.000871711 0.0111152 
108 1 1 0.0262495 0.0288961 0.0325399 0 0 0 -2.42809e-05 -6.71941e-06 4.82656e-05 3.9376e-05 7.86788e-05 -0.000452308 -0.0027545 -0.000186408 -0.00103622 0.0111152 
9 1 1 -0.0407958 0.0418491 0.032558 0 0 0 -5.71193e-06 4.4097e-06 -9.09792e-06 2.66467e-05 -5.90137e-05 0.000168417 0.000994555 0.00107645 -0.000145309 0.0111152 
323 1 1 -0.0070076 0.0443556 0.0261317 0 0 0 -6.05483e-06 3.21238e-06 1.89992e-05 -2.55488e-05 1.03598e-05 -7.53577e-05 -0.00315927 0.000826071 -0.000827608 0.00694698 
16 1 1 0.0103834 0.0409506 0.0288256 0 0 0 -1.16305e-05 -1.40498e-06 2.26623e-05 2.73716e-05 2.70087e-05 -0.00034738 -0.000972682 -0.000536178 -0.000829815 0.0111152 
329 1 1 -0.0243337 -0.0448883 0.0452014 0 0 0 -1.89823e-05 -5.19742e-06 -1.96008e-05 1.19451e-05 -2.9015e-05 8.8533e-06 -0.00213509 0.000573577 0.00234022 0.00694698 
168 1 1 0.00170639 -0.0450129 0.040199 0 0 0 -1.66922e-05 3.95742e-06 3.00038e-06 9.46707e-06 -1.62222e-05 1.17297e-06 0.000925187 -0.0015548 0.000919621 0.00694698 
3 1 1 0.0165061 -0.0408745 0.039313 0 0 0 -1.94218e-05 1.07915e-05 2.36353e-05 5.71788e-05 -8.526e-05 -0.000105467 0.00190772 -0.00082837 0.00108292 0.0111152 
283 1 1 0.0310352 -0.0446314 0.0458371 0 0 0 -1.85037e-05 1.2809e-05 2.59349e-05 2.13054e-05 -2.39963e-05 -4.28901e-05 0.00274362 -0.000987037 0.0023608 0.00694698 
211 1 1 -0.0439276 -0.0331951 0.0391794 0 0 0 -1.11612e-05 7.64647e-06 -1.74152e-05 1.23572e-06 -4.35505e-05 3.34632e-05 -0.00179733 0.000684612 0.000320541 0.00694698 
93 1 1 -0.0271456 -0.0292816 0.0419054 0 0 0 -2.55945e-05 -1.94291e-06 -4.67489e-05 -2.56837e-05 -0.000292959 0.000200064 -0.000974218 0.000138702 -0.00120788 0.0111152 
191 1 1 0.00287897 -0.0323181 0.0407478 0 0 0 -2.82416e-05 8.40878e-06 1.16642e-05 1.12065e-05 -3.49984e-05 -1.8238e-05 -0.000136812 -0.00184842 -0.000445481 0.00694698 
105 1 1 0.0303968 -0.0280612 0.0465899 0 0 0 -3.164e-05 1.57457e-05 5.3441e-05 0.000145138 -0.000125834 -0.000361428 0.000277643 -0.00065794 -3.85203e-05 0.0111152 
66 1 1 -0.041682 -0.0169767 0.0389235 0 0 0 -1.24113e-05 6.83643e-06 -2.96023e-05 1.12083e-05 -0.000225607 0.000258877 0.000157028 0.00228128 0.000791337 0.0111152 
43 1 1 -0.00882965 -0.02429 0.0478755 0 0 0 -4.90962e-05 5.84287e-06 -2.45399e-05 1.3571e-06 -0.00026577 -8.24756e-05 -0.000260634 -0.00315565 0.000974225 0.0111152 
259 1 1 0.0241568 -0.0131299 0.0440617 0 0 0 -3.80701e-05 1.20746e-05 5.73349e-05 4.22689e-05 -1.9776e-05 -0.000109988 0.000598357 -0.000144757 0.000537401 0.00694698 
336 1 1 -0.0246138 -0.0117327 0.0453175 0 0 0 -1.65693e-05 -1.73082e-05 -7.71328e-05 -0.000162599 -5.49108e-05 -0.000130052 0.00745991 0.00369823 0.0069215 0.00694698 
245 1 1 -0.000273875 -0.0118499 0.0427908 0 0 0 -4.80495e-05 -6.41172e-07 -2.65138e-07 2.0054e-05 -6.23539e-05 -7.60863e-05 -0.000881672 -0.00198415 0.0004631 0.00694698 
303 1 1 0.0269175 -0.00136567 0.0493331 0 0 0 -3.62312e-05 4.88087e-06 9.30874e-05 2.76811e-05 -1.68424e-05 -0.000238741 0.00326284 0.000471177 -0.000104117 0.00694698 
5 1 1 0.0405047 -0.0106681 0.0488249 0 0 0 -2.36732e-05 7.25186e-06 4.57978e-05 0.00013038 -5.98527e-05 -0.00042162 -0.000235872 0.000942883 -0.000600413 0.0111152 
107 1 1 -0.038243 0.00195709 0.0431279 0 0 0 -2.69647e-05 2.41155e-06 -3.32209e-05 -0.000137093 -0.000293994 0.000138526 0.000248675 -0.000106981 -1.09771e-05 0.0111152 
95 1 1 0.0239299 0.0111489 0.0391399 0 0 0 -3.56148e-05 1.44965e-06 9.33417e-05 7.22024e-05 -5.4047e-06 -0.00095487 -0.000349588 0.00110605 -0.000567231 0.0111152 
318 1 1 0.044365 0.0047285 0.048567 0 0 0 -4.95585e-06 9.12945e-07 3.31739e-05 -9.47419e-06 -2.37363e-06 -7.02517e-05 0.00031346 0.00284366 -0.000369733 0.00694698 
208 1 1 -0.0448665 0.0168567 0.0449706 0 0 0 -1.26628e-05 3.94392e-07 -1.7839e-05 -3.58207e-05 -4.43232e-05 6.13312e-06 0.000834171 0.00231257 -0.000721906 0.00694698 
282 1 1 -0.0182461 0.018533 0.0445894 0 0 0 -3.37836e-05 -7.05143e-06 4.46855e-06 -5.62368e-05 -7.15905e-05 -0.000102028 0.000684425 -0.00308446 -0.00105334 0.00694698 
4 1 1 -0.00366638 0.0146154 0.0482214 0 0 0 -4.57283e-05 -1.32637e-05 3.43445e-05 -0.00017241 -0.000286631 -0.00090623 0.00165745 -0.00127607 0.000200389 0.0111152 
58 1 1 0.0410775 0.0200219 0.0435611 0 0 0 -1.92731e-05 -3.03334e-06 4.3091e-05 3.41083e-05 2.0536e-05 -0.000453562 -0.000343402 0.00246728 0.000145315 0.0111152 
199 1 1 -0.0449272 0.0285898 0.0409787 0 0 0 -6.75084e-06 7.42192e-07 -1.1591e-05 -2.35994e-05 -3.13507e-05 1.59784e-05 0.000444883 0.00105799 -0.000890708 0.00694698 
192 1 1 -0.0256315 0.0271739 0.0481263 0 0 0 -3.01875e-05 -9.00892e-06 4.03616e-06 -5.99281e-05 -3.37677e-05 -7.41958e-05 0.00164601 0.00130001 0.000615314 0.00694698 
292 1 1 -0.0146966 0.032469 0.04858 0 0 0 -3.60393e-05 -1.47245e-05 2.4699e-05 -7.14943e-05 -2.43803e-05 -0.00016763 0.00523388 -0.0042594 -0.0027909 0.00694698 
73 1 1 0.0108553 0.0280466 0.0457836 0 0 0 -4.639e-05 5.0719e-06 5.19785e-05 -0.000209245 -0.000107592 -0.000685974 -0.000430284 -0.00174143 0.000561308 0.0111152 
327 1 1 -0.0435039 0.0432738 0.0497711 0 0 0 -4.61928e-06 8.84546e-07 -3.2946e-06 -3.27164e-05 6.21055e-06 2.87096e-05 -0.000506318 -0.000514705 -1.26448e-05 0.00694698 
126 1 1 -0.0115806 0.044294 0.0464581 0 0 0 -8.07748e-06 -6.22143e-06 3.4859e-05 -2.15096e-05 -1.343e-05 -8.14594e-05 -0.00487088 0.000398547 -0.000390011 0.00694698 
248 1 1 0.000187016 0.0432518 0.0425159 0 0 0 -1.15734e-05 1.81583e-06 2.2708e-05 -2.64147e-05 -8.85458e-06 -0.00011112 -6.47197e-05 0.00201397 0.00173431 0.00694698 
229 1 1 0.0125664 0.0445193 0.045416 0 0 0 -2.09753e-05 5.47239e-06 2.27149e-05 -4.2669e-05 -1.31466e-05 -6.69164e-05 -0.00326303 -0.00213251 -0.00350357 0.00694698 
114 1 1 0.0401335 0.0408 0.0407341 0 0 0 -1.11388e-05 -4.39012e-06 1.724e-05 -8.21668e-06 2.9588e-05 -0.0002318 -0.00094078 0.000401524 -0.000455696 0.0111152 
314 1 1 -0.0174739 -0.0445492 0.0555942 0 0 0 -1.57113e-05 -8.43493e-07 -1.86514e-05 -3.94818e-06 -9.24981e-06 3.20373e-05 -0.000968914 -0.00024239 0.000790946 0.00694698 
337 1 1 -0.00609996 -0.0408572 0.0515866 0 0 0 -2.34397e-05 5.33095e-06 -2.04159e-05 7.51802e-06 -3.90185e-05 5.35698e-06 0.0016921 0.00103162 0.00124114 0.00694698 
56 1 1 0.00688369 -0.0394003 0.0619727 0 0 0 -3.26927e-05 5.8479e-06 1.18278e-05 0.000174227 -0.00014637 -0.000193595 0.000724027 -0.00295007 0.00162991 0.0111152 
265 1 1 0.0220177 -0.043724 0.0552628 0 0 0 -1.48035e-05 5.59421e-06 2.20922e-05 2.06649e-05 -1.91613e-05 -3.20283e-05 -0.000559468 0.00163498 -9.17421e-05 0.00694698 
49 1 1 0.0406724 -0.0407584 0.0580766 0 0 0 -1.39678e-05 7.35195e-06 2.4759e-05 5.71225e-05 -5.8333e-05 -0.000187378 0.00153889 0.00205319 0.000384898 0.0111152 
84 1 1 -0.0411457 -0.0329929 0.0553186 0 0 0 -1.33635e-05 6.18222e-07 -2.38864e-05 1.17444e-05 -0.000112279 0.000288383 0.00168572 0.000907065 -0.000196335 0.0111152 
307 1 1 -0.0195837 -0.0324345 0.0571156 0 0 0 -5.05432e-05 -4.09686e-06 -4.33916e-05 2.51476e-06 -3.91956e-05 4.91599e-05 -0.00115525 -0.00117564 0.00350965 0.00694698 
326 1 1 0.0447956 -0.0254458 0.0534948 0 0 0 -1.46704e-05 6.68816e-06 3.20728e-05 1.75473e-05 -1.1276e-05 -6.45874e-05 0.000711655 0.00552627 -0.00133167 0.00694698 
81 1 1 -0.0216684 -0.01704 0.0624321 0 0 0 -5.0146e-05 -1.08557e-05 -2.12254e-05 8.61265e-05 -0.000223234 0.000135944 0.00234823 0.00293644 -0.00167836 0.0111152 
52 1 1 0.0112853 -0.0221409 0.050731 0 0 0 -4.68025e-05 1.5118e-05 3.46201e-05 0.000171309 -0.000176477 -0.000271137 0.000162884 -0.001865 0.000768524 0.0111152 
332 1 1 0.0267559 -0.0152036 0.0567085 0 0 0 -4.12632e-05 1.62448e-05 5.81346e-05 5.89995e-05 -2.66475e-05 -0.000109652 -0.001849 -0.000900153 0.00080511 0.00694698 
220 1 1 -0.043805 -0.00977094 0.0542181 0 0 0 -9.72089e-06 1.76774e-06 -1.70495e-05 7.90214e-06 -3.82107e-05 5.64994e-05 -0.000408332 0.000233951 0.00169309 0.00694698 
133 1 1 -0.027208 -0.00283237 0.0559955 0 0 0 -4.06533e-05 -6.84827e-06 -1.44309e-05 2.97388e-06 -5.62887e-05 8.68085e-06 -0.00234941 -0.00127616 -0.000995058 0.00694698 
24 1 1 -0.0102673 -0.00372074 0.0528009 0 0 0 -5.30799e-05 -9.02038e-06 -4.95599e-06 -8.8904e-05 -0.000393027 -0.00052488 0.00104285 -0.00068561 -0.000286502 0.0111152 
240 1 1 0.0172585 -0.00749224 0.0553609 0 0 0 -4.3324e-05 3.112e-06 7.77384e-05 4.93174e-05 -3.95999e-05 -0.000203802 0.00544172 0.00130881 -0.00185886 0.00694698 
236 1 1 -0.0236943 0.00828099 0.0507775 0 0 0 -3.53581e-05 -1.63117e-05 -1.83245e-05 -2.91642e-05 -5.19157e-05 -6.99561e-05 0.00283706 0.000780908 -0.000530683 0.00694698 
15 1 1 0.0136566 0.00817875 0.0563012 0 0 0 -4.64548e-05 -7.16348e-06 9.09111e-05 -6.56616e-05 -0.000197368 -0.0012766 -0.00121847 -0.00335948 0.0016086 0.0111152 
291 1 1 0.0437832 0.0122417 0.0588946 0 0 0 -7.31398e-06 1.38782e-06 3.8413e-05 8.6332e-06 3.86298e-05 -9.08331e-05 -0.00110682 -0.000429371 0.000433273 0.00694698 
335 1 1 -0.0343157 0.0161597 0.0526644 0 0 0 -2.38768e-05 -1.1914e-05 -1.42663e-05 -2.72706e-05 -4.50214e-05 -1.91662e-05 0.00103455 -0.00131478 -0.00119239 0.00694698 
266 1 1 0.0217589 0.0233197 0.0586733 0 0 0 -5.53104e-05 4.91546e-07 7.90287e-05 -1.28893e-05 -4.61662e-06 -0.000244535 -0.000183977 0.000743662 -0.000564377 0.00694698 
298 1 1 0.0302847 0.0135353 0.0553191 0 0 0 -3.40464e-05 -1.01525e-06 9.95876e-05 -4.13652e-05 2.42679e-05 -0.000280087 -0.00176278 -0.000977381 -0.00076351 0.00694698 
262 1 1 -0.0377381 0.0287333 0.0508388 0 0 0 -2.13413e-05 -1.02869e-05 -5.38517e-06 -3.8834e-05 -4.79739e-05 2.07604e-06 0.00132319 -0.00254381 0.000923516 0.00694698 
99 1 1 -0.00360806 0.0303682 0.0615076 0 0 0 -6.90049e-05 -2.47592e-05 4.21415e-05 -0.000135636 -0.000201143 -0.00103482 -0.00118445 0.000536262 0.00255289 0.0111152 
122 1 1 -0.0274283 0.0409191 0.0558337 0 0 0 -2.05527e-05 -3.72604e-06 3.31234e-06 -7.28874e-05 -7.15379e-05 -0.000208442 -0.00104644 -0.000339439 -0.00144406 0.0111152 
158 1 1 0.000207039 0.0448778 0.0561866 0 0 0 -4.5216e-05 -1.66385e-05 1.88249e-05 -3.78908e-05 -1.78479e-05 -0.000142879 -0.00229756 -0.00789575 -0.00696771 0.00694698 
47 1 1 0.0244974 0.0400921 0.055932 0 0 0 -3.1885e-05 2.69835e-06 3.60929e-05 -9.91053e-05 1.49065e-05 -0.000437224 -0.00201969 0.000994696 -0.0022568 0.0111152 
203 1 1 0.0420083 0.0441913 0.0569425 0 0 0 -1.48446e-05 -3.22678e-06 1.15096e-05 1.06568e-05 1.73613e-05 -6.81798e-05 -0.000739046 -0.00128874 -0.0020799 0.00694698 
6 1 1 -0.0273257 -0.0408019 0.0684914 0 0 0 -1.97729e-05 -3.61976e-06 -1.99753e-05 8.19023e-05 -4.82541e-05 0.000360316 -0.00143759 0.000402175 0.00192352 0.0111152 
190 1 1 -0.00862791 -0.0442093 0.0646035 0 0 0 -2.17507e-05 8.5401e-06 -1.9382e-05 2.63914e-05 -7.68252e-06 4.56504e-06 -0.00306588 -0.000712491 0.000130225 0.00694698 
189 1 1 0.0268465 -0.0442003 0.0673438 0 0 0 -2.41492e-05 9.31744e-06 3.03562e-05 2.69061e-05 -1.54745e-05 -4.88478e-05 0.00186912 -0.00292893 0.00146611 0.00694698 
186 1 1 0.0437407 -0.0441968 0.0738313 0 0 0 -3.3341e-06 -5.16264e-06 -1.75698e-06 1.35374e-05 4.39205e-07 -1.75749e-05 0.000183751 -0.00132899 0.000315715 0.00694698 
313 1 1 -0.0118607 -0.0316738 0.0682094 0 0 0 -8.44585e-05 3.56215e-05 -5.25552e-05 3.45955e-05 -4.14067e-05 3.7076e-05 -0.00224313 -0.00141334 0.00794069 0.00694698 
227 1 1 0.00766389 -0.0253939 0.072224 0 0 0 -9.65796e-05 -6.05749e-07 -5.26488e-06 7.23682e-05 -4.70373e-05 -9.25264e-05 -0.00251023 -0.00617448 0.00327919 0.00694698 
91 1 1 0.0235312 -0.0277778 0.0665882 0 0 0 -5.41551e-05 2.12994e-05 6.35837e-05 0.000254583 -0.000113665 -0.000416847 0.00142521 -0.00142771 0.000362911 0.0111152 
247 1 1 0.0400879 -0.0264408 0.0680861 0 0 0 -4.19862e-05 1.74779e-05 5.40621e-05 6.75932e-05 -3.85094e-05 -0.000140373 0.000822942 0.00176989 0.000706621 0.00694698 
36 1 1 -0.0407301 -0.0173219 0.0691412 0 0 0 -2.07866e-05 -4.4545e-06 -7.74024e-06 6.70894e-05 -0.000120721 0.000279504 0.000772233 -0.000453543 -0.000413244 0.0111152 
137 1 1 -0.00226742 -0.0232152 0.0635624 0 0 0 -9.17975e-05 2.25493e-05 -1.44654e-05 3.79835e-05 -8.31431e-05 -4.96873e-05 -5.81028e-05 -0.0028156 -0.00816552 0.00694698 
276 1 1 0.0201771 -0.0125509 0.0722592 0 0 0 -8.45456e-05 6.05504e-06 0.00012249 0.000167258 5.13319e-05 -0.000280501 0.00427382 -0.00936531 0.00143089 0.00694698 
215 1 1 0.0333366 -0.0151385 0.0705859 0 0 0 -4.13415e-05 1.92631e-05 0.000112803 0.000112424 -6.07956e-06 -0.000278122 0.00384189 0.00525643 0.000960027 0.00694698 
217 1 1 0.0446141 -0.0151032 0.0644109 0 0 0 -2.29938e-05 9.50019e-06 4.13579e-05 3.10508e-05 -2.87888e-05 -0.000120906 -0.00132448 0.00348045 -0.00382185 0.00694698 
182 1 1 -0.0291258 -0.00430644 0.0735738 0 0 0 -2.37467e-05 -2.20807e-05 1.08039e-05 -1.75097e-05 -7.34831e-05 4.81455e-05 -0.00480829 -0.0012999 -0.00506243 0.00694698 
10 1 1 0.00493197 -0.00796358 0.0666218 0 0 0 -5.81654e-05 -1.18662e-05 6.03618e-05 0.00025029 -0.00021146 -0.000930785 0.000316186 -0.00274663 0.00038059 0.0111152 
148 1 1 0.0445355 -0.00238308 0.063436 0 0 0 -2.57147e-05 -1.20219e-06 4.90553e-05 4.93222e-05 3.43235e-05 -0.000220748 0.00230588 0.00661578 0.0033087 0.00694698 
32 1 1 -0.039949 0.00415225 0.0635932 0 0 0 -1.70136e-05 -6.26689e-06 -1.04197e-05 5.37442e-05 -0.000144982 0.00012583 0.000778441 0.00152257 -6.22231e-06 0.0111152 
197 1 1 -0.019298 0.00213569 0.0660105 0 0 0 -4.6967e-05 -3.45567e-05 3.16988e-05 9.46329e-07 -0.000106491 -0.000110269 0.00488028 0.00150792 7.17688e-05 0.00694698 
115 1 1 -0.00374316 0.0105811 0.0687305 0 0 0 -4.85736e-05 -3.63987e-05 6.32024e-05 -5.06769e-07 -0.000368646 -0.00118177 0.00042276 -0.000106256 0.00115065 0.0111152 