ITEM: TIMESTEP
23450
ITEM: NUMBER OF ATOMS
338
ITEM: BOX BOUNDS mm mm mm
-0.05 0.05
-0.05 0.05
0 0.15
ITEM: ATOMS id type type x y z ix iy iz vx vy vz fx fy fz omegax omegay omegaz radius 
319 1 1 -0.015275 -0.0438121 0.00581212 0 0 0 -0.0410989 -0.0374097 0.00844206 -0.0493353 -0.00285167 -0.0305072 5.11349 -1.27318 2.46764 0.00583428 
243 1 1 -0.00365237 -0.0443665 0.00574249 0 0 0 -0.0551207 0.0263199 -0.0367201 -0.0445118 0.0239488 0.103764 -6.45406 -10.6497 10.8303 0.00583428 
260 1 1 0.0222074 -0.0442433 0.00575137 0 0 0 0.0067422 0.00215485 0.00269251 -0.0124651 -0.00550905 -0.0142252 0.249559 0.637143 -2.63666 0.00583428 
78 1 1 0.0399336 -0.041231 0.00882727 0 0 0 0.0192039 0.0117201 -0.00372288 0.0999891 0.0118904 -0.0277509 -1.38161 1.44014 -2.49782 0.00933485 
74 1 1 -0.0408972 -0.0365059 0.0089522 0 0 0 0.00489502 -0.00111254 0.00491385 -0.00699374 -0.043142 -0.0340111 0.0823844 -0.216449 -0.254885 0.00933485 
131 1 1 -0.0266737 -0.0400762 0.00562449 0 0 0 0.0199846 0.0148551 0.00667458 0.000164859 -0.00308733 -0.00300286 -2.98166 2.62117 5.02683 0.00583428 
173 1 1 -0.014163 -0.0322087 0.00584622 0 0 0 -0.0546908 -0.032263 -0.00530709 -0.0112426 -0.0195772 -0.0162938 3.05174 2.64789 -3.90543 0.00583428 
60 1 1 0.00806819 -0.0356594 0.00892504 0 0 0 -0.00612294 0.00523213 0.00625954 0.0228308 -0.0600131 -0.00582084 -1.5584 -1.30533 -3.03199 0.00933485 
296 1 1 -0.0261752 -0.0282894 0.00581248 0 0 0 0.00683879 -0.0139382 0.0106849 -0.00350835 -0.00256016 0.00801848 2.31279 1.15639 2.5409 0.00583428 
275 1 1 -0.00370091 -0.0271246 0.00560799 0 0 0 -0.0394054 -0.00977258 0.00443535 -0.00100188 -0.0261129 -0.00462893 2.06288 -1.32486 8.03646 0.00583428 
144 1 1 0.0394621 -0.0260643 0.00602627 0 0 0 -0.0128498 0.0559042 -0.0310445 0 0 -0.0204014 10.5998 -5.22393 17.3866 0.00583428 
102 1 1 -0.0411185 -0.0185095 0.00872368 0 0 0 0.00911477 0.0101696 0.00260047 0.0135222 -0.00681617 0.0130649 -0.535912 0.945174 0.163383 0.00933485 
328 1 1 -0.0268079 -0.0154904 0.00574292 0 0 0 0.0279415 0.054823 0.000328608 0.0181382 -0.0438762 0.00406609 -13.494 -4.64572 8.19629 0.00583428 
40 1 1 -0.0121858 -0.0152664 0.00918204 0 0 0 0.0509511 0.0715659 0.00519656 0.0847725 -0.114507 0.0673679 -6.51756 6.13567 -17.1044 0.00933485 
279 1 1 0.00385844 -0.0187974 0.0078785 0 0 0 -0.0421312 -0.0111803 0.000765617 -0.0138073 -0.0362537 0.0102506 0.121964 4.46467 -6.00015 0.00583428 
267 1 1 0.0145249 -0.0224846 0.00563352 0 0 0 -0.0182123 -0.000117571 0.00936 0.0203942 0.00448894 0.0138244 -0.0364729 -4.4746 3.93126 0.00583428 
202 1 1 0.0442582 -0.01528 0.00570147 0 0 0 -0.00812822 0.041072 0.00185779 0.0060369 -0.0265641 0.00894159 -7.24649 -2.19254 -7.45649 0.00583428 
274 1 1 -0.0230109 -0.00469369 0.00578758 0 0 0 0.000458348 0.0898371 0.0201013 0.0286541 -0.0310298 0.00776625 11.4511 -17.6164 -1.28089 0.00583428 
50 1 1 0.0281102 -0.00990699 0.00900686 0 0 0 0.0185547 0.00863704 0.00178002 -0.0843856 -0.135587 0.0235713 -1.20401 2.55504 7.61468 0.00933485 
257 1 1 -0.0428124 -0.00386654 0.00577024 0 0 0 -0.00860327 0.021444 0.000677257 -0.0132161 -0.00360941 0.00823165 0.16201 -1.06812 2.58517 0.00583428 
164 1 1 0.0213939 0.00320598 0.00572614 0 0 0 -0.00536395 0.00456963 0.0259447 0.00461213 -0.0114231 -0.0103188 -0.410278 -1.66331 10.602 0.00583428 
268 1 1 -0.0312432 0.00880666 0.0055541 0 0 0 -0.00883732 0.0128957 0.0116924 -0.0102329 0.00218953 -0.00716484 -5.92382 -0.144322 19.137 0.00583428 
171 1 1 -0.0200633 0.00637007 0.00574574 0 0 0 0.0318469 0.097925 0.00757068 -0.0111913 -0.00663182 0.0123381 -17.1327 5.69169 -3.66179 0.00583428 
232 1 1 -0.0386771 0.0178172 0.00542449 0 0 0 -0.00605686 -0.00104163 0.00566234 0.015189 -0.00265716 -0.00499162 0.310967 -1.19401 -12.6952 0.00583428 
297 1 1 -0.0259607 0.0186895 0.00567261 0 0 0 0.0218651 0.0163761 0.00458596 0.00994866 0.00199832 -0.00200723 3.00811 -1.37618 -23.3927 0.00583428 
222 1 1 -0.0115703 0.0156512 0.0053323 0 0 0 0.0146414 0.0026733 -0.00144128 -0.00769283 0.000132798 -0.0068221 1.48548 3.7185 18.9178 0.00583428 
290 1 1 -0.00082904 0.0192842 0.00553689 0 0 0 -0.00523332 0.0701806 -0.00585284 -0.0173899 0.0113778 0.00997501 -11.3525 0.899036 -7.4895 0.00583428 
98 1 1 0.013039 0.0152334 0.00912884 0 0 0 -0.035055 0.0122986 -0.00180457 0.0442499 0.0169089 0.0108622 -1.18008 -3.67509 -4.38397 0.00933485 
316 1 1 0.0279012 0.0181403 0.00550986 0 0 0 0.0683339 0.0177395 -0.00633348 0.00656089 0.0031285 0.00343397 -2.81947 12.078 17.0423 0.00583428 
162 1 1 0.0443296 0.0174773 0.00619078 0 0 0 -0.00304826 0.0128111 0.0210594 -0.00516874 -0.00303112 -0.00331181 -33.6721 3.70967 -2.1685 0.00583428 
294 1 1 -0.0441694 0.0283494 0.00581672 0 0 0 0.00267831 -0.0324677 -0.000379899 0.00063743 0.000168703 0.00354117 5.4554 1.02861 -5.44524 0.00583428 
255 1 1 -0.0181111 0.0268397 0.00567882 0 0 0 0.0836289 -0.0281606 0.00347269 0.0312333 -0.0151423 0.00376415 6.5658 12.0506 10.4144 0.00583428 
324 1 1 -0.00407769 0.0316115 0.00581861 0 0 0 0.0240094 0.00482168 -0.00737559 0.0189526 -0.000916481 0.00988391 -0.989416 3.03333 0.142993 0.00583428 
77 1 1 0.0221334 0.031179 0.00874169 0 0 0 0.00273284 -0.0056398 0.0131014 0.0135391 -0.00558307 -0.0112333 0.657046 0.868361 -0.883292 0.00933485 
155 1 1 0.0365272 0.0276964 0.00580438 0 0 0 0.0160354 0.0502363 0.016878 0.00580478 -0.00546693 -0.0235416 -8.95829 0.643895 14.3785 0.00583428 
175 1 1 -0.0332254 0.0326006 0.00577809 0 0 0 0.0163787 -0.00913345 0.0123508 0.0156117 0.00795187 0.00492983 1.3034 2.31222 13.0513 0.00583428 
161 1 1 0.00747725 0.0324962 0.00572495 0 0 0 0.00191076 0.0217576 -0.00904669 0.0145337 0.0315164 -0.0103253 -4.11196 -1.96704 1.4259 0.00583428 
289 1 1 0.044002 0.039729 0.00581554 0 0 0 -0.026211 0.0870147 0.00414459 -1.07183e-05 4.02256e-05 -0.000114081 -14.9389 -4.49876 -15.2725 0.00583428 
321 1 1 -0.0443665 0.0442569 0.00565963 0 0 0 -0.00148002 -0.0112411 0.00489413 -0.0183389 0.0123313 -0.00718991 1.902 -0.751912 -1.95731 0.00583428 
207 1 1 -0.0327387 0.0442023 0.00584392 0 0 0 -0.0219709 -0.00828454 0.0153735 0.0399734 0.00557061 -0.00247843 -2.11815 -2.44658 -4.40652 0.00583428 
38 1 1 -0.0153766 0.0410723 0.00902664 0 0 0 0.0296489 -0.0067683 0.0137203 0.0822486 -0.0520512 0.0428106 -1.43579 2.99231 2.35891 0.00933485 
149 1 1 0.00971387 0.0441758 0.00580144 0 0 0 0.0429275 -0.00374915 0.00243154 0.00231881 -0.000673244 0.00648581 0.59949 7.25979 7.24137 0.00583428 
249 1 1 0.0293816 0.0441617 0.00581393 0 0 0 0.0114278 0.00167536 0.00466811 0.00270395 0.000438519 0.00158183 -0.442628 2.06996 -0.348656 0.00583428 
299 1 1 -0.0256132 -0.0446791 0.016006 0 0 0 0.0107338 -0.00198973 0.0222195 0.0123406 -0.00558001 -0.00459278 4.81771 -6.35967 -2.52372 0.00583428 
225 1 1 -0.0076739 -0.0440494 0.0165746 0 0 0 -0.174011 0.021887 -0.0846305 0.0128129 0.0573533 0.264722 -1.38812 -13.5527 7.34445 0.00583428 
130 1 1 0.0171892 -0.0445004 0.0162015 0 0 0 0.0492705 0.0245903 0.0361221 -0.00384639 -0.00835743 -0.0229884 -8.72428 9.3482 10.1841 0.00583428 
167 1 1 0.0283754 -0.0444317 0.0183361 0 0 0 0.0590663 0.00810457 0.0581109 0.0119238 -0.000307182 0.000575459 10.8111 -12.9106 -11.2701 0.00583428 
67 1 1 0.0255188 -0.0306936 0.0115645 0 0 0 0.0127093 0.0131599 0.016028 0.0628373 -0.0626471 0.034919 1.8163 2.33021 3.37792 0.00933485 
278 1 1 0.0328837 -0.0201142 0.0181882 0 0 0 0.0190135 0.0253382 0.0379941 -0.00376384 0.00137152 0.00997773 -3.42812 -10.1735 -7.76539 0.00583428 
146 1 1 -0.0444843 -0.00769386 0.018233 0 0 0 0.000298943 -0.0168568 0.0341583 -0.00726673 -0.00638239 0.00591085 8.89609 -5.92439 -2.52073 0.00583428 
96 1 1 0.010225 -0.00557931 0.0107579 0 0 0 -0.00485794 -0.0364927 0.0283602 0.00568726 -0.0433147 0.0296735 3.9321 -1.43373 -1.43719 0.00933485 
183 1 1 0.0411109 -0.0123692 0.0164079 0 0 0 -0.012628 0.0751952 -0.00399734 0.0485708 0.0734945 -0.0215225 -2.00767 4.68539 21.7171 0.00583428 
17 1 1 -0.00623762 0.00254938 0.0100093 0 0 0 0.0355956 0.0398682 0.0191578 -0.0175734 -0.0188453 0.0351458 -6.19296 0.725799 -8.63964 0.00933485 
25 1 1 -0.0408179 0.00644546 0.016556 0 0 0 0.0110241 -0.0165383 0.0509381 -0.0466671 -0.0135682 -0.0281063 -3.24498 2.64492 0.400616 0.00933485 
94 1 1 0.0351165 0.00667744 0.0109638 0 0 0 0.0111753 0.0125976 0.0767119 -0.0328853 -0.0319437 0.0688928 1.31584 -25.7438 -10.104 0.00933485 
300 1 1 -0.0442995 0.0210716 0.0151099 0 0 0 0.00516184 -0.0124853 0.00871645 -0.000262686 -0.00197659 -0.007507 -2.09416 -1.23743 -2.24753 0.00583428 
273 1 1 -0.0328656 0.020199 0.0146443 0 0 0 0.0113775 -0.0166541 0.0110646 0.0157179 0.00836411 -0.00662254 -3.17829 1.30746 2.07428 0.00583428 
28 1 1 -0.0177538 0.0181061 0.0181791 0 0 0 0.0257688 -0.028811 0.0173639 0.000505002 0.00549988 -0.000292938 -3.5916 0.85983 0.699639 0.00933485 
286 1 1 -0.00136378 0.0152746 0.0166119 0 0 0 0.0517675 0.062259 -0.006071 0.00387195 0.017511 -0.0109092 4.38171 -1.3495 11.7898 0.00583428 
320 1 1 0.00359879 0.0256613 0.0141013 0 0 0 0.0149814 0.0470476 0.0162179 0.00335955 0.0167349 0.00133949 1.35147 10.1857 -4.09847 0.00583428 
284 1 1 0.0442122 0.0261572 0.0143556 0 0 0 0.0168166 0.0914929 0.0247444 0.00473328 -0.0120556 -0.0517623 -1.77227 2.33048 -15.6621 0.00583428 
305 1 1 -0.0409825 0.0366031 0.0135155 0 0 0 0.0100572 -0.00248382 0.0304117 0.00701155 0.0371165 -0.00754067 -8.01777 3.90642 0.46689 0.00583428 
61 1 1 0.0357085 0.038083 0.018598 0 0 0 -0.0346107 0.0302749 0.0494084 -0.0182059 -0.00310426 0.0643008 12.151 0.587908 15.6401 0.00933485 
237 1 1 -0.000696694 0.0441785 0.0110075 0 0 0 0.0350372 -0.000253223 -0.000250742 0.0140787 0.00155631 0.0276135 -8.30746 -3.8219 -3.95231 0.00583428 
239 1 1 0.0197893 0.0448749 0.0125711 0 0 0 0.00300929 0.00669693 0.00310993 -0.00613807 0.00369342 0.000651555 -1.89061 -8.95659 -0.700033 0.00583428 
331 1 1 -0.0431847 -0.0449494 0.0203352 0 0 0 -0.00143075 -0.00417144 0.00342257 -0.00169017 -0.0100269 -0.00828617 0.393637 -0.827439 0.0839331 0.00583428 
242 1 1 0.00351117 -0.0437871 0.0207869 0 0 0 -0.158912 -0.0162658 -0.133979 -0.0580409 -0.171856 0.195821 13.6238 -34.3162 0.699246 0.00583428 
136 1 1 0.0443753 -0.0446445 0.0229494 0 0 0 -0.00358319 -0.00298738 0.00217651 0.000602211 -0.000796704 -0.00160129 0.575799 0.486694 0.752261 0.00583428 
180 1 1 -0.0443981 -0.0344457 0.024248 0 0 0 0.000606256 -0.00137564 -0.000200452 0.00372014 -0.00972747 -0.00402203 -1.05584 0.512723 -0.375308 0.00583428 
256 1 1 -0.0333624 -0.0400135 0.0232685 0 0 0 0.00105165 -0.0207636 0.0387861 0.0229673 -0.0142409 -0.0159713 5.20117 -2.70023 -2.13385 0.00583428 
271 1 1 0.0313073 -0.0399646 0.0283358 0 0 0 -0.0301609 0.0237918 0.0846397 -0.00715072 0.00724225 0.0209709 -17.5854 -11.1192 -2.56729 0.00583428 
128 1 1 -0.044831 -0.0230575 0.0223957 0 0 0 -0.000459982 0.0036797 0.00577858 -0.00505591 -0.00350298 0.0048195 2.64718 -0.962915 0.203678 0.00583428 
179 1 1 -0.0354237 -0.0273469 0.0190583 0 0 0 -0.00169544 -0.000832202 0.0200936 0.00566262 -0.0172457 0.0184787 -0.529338 -4.06617 -2.36721 0.00583428 
7 1 1 -0.0217933 -0.0311948 0.0200313 0 0 0 0.00386305 -0.00299212 0.034373 0.10292 0.0170599 -0.0214278 -2.72556 2.15104 2.08738 0.00933485 
104 1 1 -0.00419391 -0.0290446 0.0205541 0 0 0 -0.00176721 0.0323069 0.00723462 0.0742451 0.0968561 -0.0304726 -0.417841 0.366153 1.38549 0.00933485 
51 1 1 0.012955 -0.0255876 0.0236315 0 0 0 0.0194702 -0.0264578 0.0538867 0.149773 -0.0824547 0.0487951 7.31859 -3.02644 -7.52686 0.00933485 
120 1 1 0.0412667 -0.0304531 0.0237764 0 0 0 -0.00733743 -0.00278545 0.0438232 -0.00614245 0.00761047 0.055232 2.9553 5.05796 -0.0256066 0.00933485 
19 1 1 -0.0289952 -0.0146257 0.0228585 0 0 0 0.0150545 -0.00814259 0.062137 0.0409744 -0.0220099 -0.0277195 4.61233 -0.728319 -2.4426 0.00933485 
178 1 1 -0.014954 -0.0195179 0.026302 0 0 0 0.0727228 -0.00653626 0.00587598 0.0169198 0.0459203 0.00224336 36.127 62.5566 20.3528 0.00583428 
258 1 1 -0.0048765 -0.0145509 0.024326 0 0 0 0.0866524 0.0233788 0.0943122 0.031373 0.0430394 -0.0116586 20.4213 -51.0984 -29.0824 0.00583428 
134 1 1 0.0444388 -0.0164784 0.0269814 0 0 0 -0.0183191 0.0294622 0.0147029 -0.00447424 0.00549474 -0.00744417 -9.45186 -1.51601 6.72945 0.00583428 
310 1 1 -0.0130967 -0.0070656 0.021642 0 0 0 0.15598 0.0911464 0.0377561 0.0383459 -0.0401116 -0.0312373 10.7353 8.86395 25.1929 0.00583428 
18 1 1 0.0178326 -0.00873757 0.027341 0 0 0 -0.0354937 0.0259784 0.0539177 0.0233435 0.027026 0.0687271 -15.0242 2.03532 -7.77692 0.00933485 
184 1 1 0.0316177 -0.0123154 0.0260407 0 0 0 -0.0200747 0.0223675 0.0369887 0.00443918 0.00300704 -0.0127246 3.26874 5.61348 13.1808 0.00583428 
112 1 1 -0.023902 0.00262876 0.0249065 0 0 0 0.0342402 -0.0122154 0.0788152 0.0666019 0.0182042 -0.08888 -4.09299 -1.90214 0.467105 0.00933485 
160 1 1 -0.00257921 -0.00298513 0.0242232 0 0 0 0.164466 0.118749 0.0749366 -0.327639 0.0927689 -0.0265736 -5.25027 -10.2134 -13.7198 0.00583428 
55 1 1 0.0414895 -0.00197449 0.0271144 0 0 0 -0.0105282 0.0404684 0.0473546 0.0181555 0.0788123 -0.0550648 8.31627 5.5751 -5.33896 0.00933485 
100 1 1 0.00890172 0.00681213 0.0247531 0 0 0 0.0106471 0.0469385 0.0118463 0.246293 0.0136419 0.064483 -0.25226 11.6982 1.52364 0.00933485 
261 1 1 0.0444533 0.0129883 0.0204361 0 0 0 -0.0118602 -0.00974419 0.123954 0.000615282 0.000318961 -0.00393865 -10.6635 22.0103 1.44249 0.00583428 
246 1 1 -0.0442912 0.0270843 0.0249849 0 0 0 0.00314883 -0.00382121 0.0117564 0.00483167 0.0080941 -0.00515445 1.04018 -1.72601 -0.390716 0.00583428 
69 1 1 -0.00688159 0.0318313 0.0226623 0 0 0 0.0240614 -0.00858876 0.0773757 0.0229492 -0.0743453 0.167421 9.63209 -3.65988 2.5962 0.00933485 
108 1 1 0.0227886 0.02455 0.0258118 0 0 0 0.0782932 0.0742988 0.048068 0.153742 0.0516 -0.0344609 -9.35374 13.1348 -12.6736 0.00933485 
23 1 1 -0.0278673 0.0331477 0.0198962 0 0 0 0.0252581 -0.0158974 0.0250557 0.032893 0.0153206 0.0230257 3.50746 -0.527809 -2.23652 0.00933485 
16 1 1 0.0104916 0.0375771 0.0215769 0 0 0 0.0302276 0.0691908 0.0614417 0.00181761 -0.0229431 0.0799229 -10.8638 6.9961 4.12188 0.00933485 
323 1 1 -0.0134122 0.0447626 0.0234239 0 0 0 -0.00858298 -0.0105391 0.0499906 0.00819114 -0.0104929 0.0494358 -10.6909 -12.2623 -0.769634 0.00583428 
224 1 1 -0.0426053 -0.0441868 0.0319457 0 0 0 0.016694 0.00215321 0.00253639 0.0258889 -0.0226209 -0.0485544 0.274698 0.997069 -2.95439 0.00583428 
42 1 1 -0.0117887 -0.0409946 0.03196 0 0 0 0.0415517 0.0116041 0.0374543 0.0195044 0.0348936 0.0074308 3.14539 11.882 -3.19179 0.00933485 
168 1 1 0.00256478 -0.0443564 0.0342843 0 0 0 0.0246724 -0.0154063 0.0681735 0.0096853 -0.00608179 -0.0305367 11.1558 -28.9398 -1.50631 0.00583428 
3 1 1 0.0177652 -0.0410202 0.0336326 0 0 0 -0.048758 0.0184038 0.0688986 -0.0486528 0.0162246 0.0244913 6.93559 4.18103 3.55755 0.00933485 
125 1 1 0.0441442 -0.044042 0.034565 0 0 0 -0.0163197 0.0412301 0.00462286 0.000302029 0.0221758 0.0207999 -8.04398 -3.15565 -3.72082 0.00583428 
211 1 1 -0.0437767 -0.0331841 0.03555 0 0 0 0.0193573 -0.0198506 0.0100227 -0.00610007 0.0211632 -0.0316208 2.9658 3.71914 6.73427 0.00583428 
191 1 1 0.00521052 -0.0332481 0.0337936 0 0 0 -0.0863583 0.0189613 0.0526248 -0.0276262 -0.0057657 -0.0129702 -16.58 -5.76892 -0.0614043 0.00583428 
93 1 1 -0.0283903 -0.0313598 0.037209 0 0 0 0.0228926 0.00993706 0.0401434 0.111288 0.0504618 0.0842008 -2.72345 0.727579 4.63972 0.00933485 
66 1 1 -0.041149 -0.0184834 0.0361962 0 0 0 -0.00758323 -0.0140149 0.0251261 0.0560204 0.0235254 0.00375743 0.852926 -2.31407 -1.26654 0.00933485 
259 1 1 0.0268505 -0.0152717 0.0370902 0 0 0 -0.0438052 0.0082425 0.0559562 -0.00956195 -0.0118727 -0.00229967 14.4689 3.43641 -3.61693 0.00583428 
336 1 1 -0.0237627 -0.00814118 0.0354272 0 0 0 -0.0289769 0.0099488 0.0949448 0.0047396 0.0256515 -0.0123649 -4.82191 -4.74342 14.7297 0.00583428 
245 1 1 0.00353896 -0.010624 0.0307314 0 0 0 -0.00875828 0.0440735 0.212436 0.0391673 0.0264157 0.0281986 -33.3403 16.9376 23.1446 0.00583428 
107 1 1 -0.0395355 -0.000648422 0.0336355 0 0 0 0.0136713 -0.00597326 0.06295 0.0208263 -0.00823047 -0.0523212 2.68633 -1.65391 -0.755644 0.00933485 
208 1 1 -0.04476 0.0126609 0.0368717 0 0 0 -0.00121998 0.00514513 0.0294463 -0.00542932 -0.000254261 -0.0119324 -7.44339 -4.24233 1.55819 0.00583428 
4 1 1 -0.00781514 0.00958641 0.0309989 0 0 0 0.0288648 0.0415887 0.086828 0.0440777 -0.0719568 0.0531781 -7.2181 -2.66664 2.86213 0.00933485 
95 1 1 0.0262955 0.00729229 0.0299212 0 0 0 -0.0111797 0.0398226 0.0533432 0.03141 0.0525075 -0.00111609 9.55821 -16.2759 2.17963 0.00933485 
2 1 1 -0.0334625 0.0175879 0.0290793 0 0 0 0.00953034 -6.09129e-05 0.0286652 -0.0181151 -0.0180822 -0.0405215 -0.109092 -1.15751 0.896909 0.00933485 
282 1 1 -0.0192355 0.0182542 0.0330668 0 0 0 0.00667136 0.0136562 0.0279134 0.000336819 -0.0148019 0.0105858 -0.116154 -0.798903 2.29567 0.00583428 
58 1 1 0.0411382 0.0165517 0.0345652 0 0 0 -0.0065952 0.028482 0.110115 -0.0342052 0.0398899 -0.0397759 -6.72277 11.0794 -3.09567 0.00933485 
199 1 1 -0.0445158 0.0240398 0.0367366 0 0 0 -0.0118521 0.00331521 0.00398759 -0.00442812 -0.0050632 0.00586111 0.423333 -1.69179 0.764776 0.00583428 
262 1 1 -0.034798 0.0298191 0.0372974 0 0 0 -0.0221608 -0.000506335 0.0468106 0.0166542 0.00517853 -0.00649154 2.97667 -5.79423 -1.99683 0.00583428 
192 1 1 -0.0242183 0.028051 0.0335891 0 0 0 -0.0107598 -0.00136054 0.0433726 -0.0039002 -0.00421427 0.00418085 2.297 1.58025 0.968816 0.00583428 
73 1 1 0.00585345 0.0232547 0.0325483 0 0 0 0.093228 0.0571988 0.118365 0.167391 0.0275334 0.109152 -0.230127 -5.38507 18.6539 0.00933485 
292 1 1 -0.0143257 0.032932 0.0354699 0 0 0 -0.0143149 -0.0324438 0.0487071 -0.00283151 -0.0173882 0.0224507 -8.15631 -4.34124 -5.94174 0.00583428 
114 1 1 0.0409739 0.0408582 0.0357475 0 0 0 -0.00533079 -0.00142157 0.0525178 -0.0233346 0.00173988 0.0660733 -3.78657 5.34739 -0.0799285 0.00933485 
9 1 1 -0.0411763 0.0410226 0.0294142 0 0 0 0.00400019 -0.00451712 0.0264034 -0.0181992 0.0375514 -0.0109449 -0.394757 -3.3968 -0.891659 0.00933485 
126 1 1 -0.00973118 0.0437362 0.0344088 0 0 0 -0.0800137 -0.0152425 0.0632506 -0.00268414 0.00623563 0.0448643 6.22751 1.77367 -12.832 0.00583428 
248 1 1 0.00158655 0.0442605 0.0317072 0 0 0 -0.0587477 -0.0255448 0.0983523 -0.0175914 -0.00871896 0.0187097 4.76795 -8.61481 8.91774 0.00583428 
229 1 1 0.0138321 0.0443133 0.0345484 0 0 0 0.0159865 -0.0483171 0.19778 6.48875e-05 -0.00138982 0.0120773 22.257 -19.9947 -9.01285 0.00583428 
329 1 1 -0.0234217 -0.0447254 0.0401287 0 0 0 0.0287216 0.00433755 0.0458969 0.00934217 -0.00248564 0.0305823 8.58882 -15.1503 -4.47497 0.00583428 
283 1 1 0.0306911 -0.0442764 0.0405245 0 0 0 -0.0213923 -0.00119215 0.0454128 -0.0151772 -0.0181573 0.0426566 8.74417 -5.75565 3.40964 0.00583428 
307 1 1 -0.0160336 -0.0338157 0.0450825 0 0 0 -0.0444505 0.0289224 0.15202 0.00471132 0.0113022 0.0478684 4.18286 -23.6311 -3.45642 0.00583428 
43 1 1 -0.00589659 -0.0249527 0.039029 0 0 0 -0.0590215 0.0468802 0.138889 -0.0188337 0.00811412 0.065694 3.19822 19.9947 0.657507 0.00933485 
105 1 1 0.0315315 -0.0293189 0.0393965 0 0 0 -0.0520638 0.00500491 0.042297 0.0598675 -0.00282222 0.0776875 -5.9556 -8.48289 2.24696 0.00933485 
81 1 1 -0.0214465 -0.01747 0.0470349 0 0 0 -0.0394257 0.00460779 0.0934087 -0.0390469 0.124761 0.0444701 9.90435 -2.38084 4.11199 0.00933485 
52 1 1 0.0119913 -0.0210456 0.0414509 0 0 0 -0.0149219 0.0152732 0.0501784 0.0503181 0.013141 0.0317244 2.01678 -7.75381 -4.36934 0.00933485 
220 1 1 -0.0439944 -0.00645468 0.0467069 0 0 0 0.0122461 0.031717 0.0905575 -0.00275639 -0.0210571 -0.0203427 -21.3529 -8.22632 26.689 0.00583428 
24 1 1 -0.0090044 -0.00705956 0.0381445 0 0 0 -0.0270798 0.0672515 0.171471 -0.0040316 -0.0401115 0.0206892 -2.1083 -6.47472 -5.19634 0.00933485 
240 1 1 0.0195156 -0.00613114 0.0438542 0 0 0 -0.0278288 0.0408446 0.112059 -0.00559921 0.0239621 -0.0405936 -1.80395 2.21995 -1.51361 0.00583428 
5 1 1 0.0409518 -0.0132888 0.0417174 0 0 0 -0.0131908 0.0253819 0.0464755 -0.0549797 0.0113176 -0.00716951 -6.13308 5.20766 -3.08821 0.00933485 
133 1 1 -0.02933 -0.0032655 0.0443203 0 0 0 -0.00449264 0.02644 0.110921 -0.00194492 0.00460977 0.00872681 -18.7192 -2.38604 -4.98192 0.00583428 
303 1 1 0.0294525 -0.00432011 0.0385784 0 0 0 -0.0396767 0.0172385 0.0544953 0.00481641 0.00582301 -0.0165059 -10.2159 7.94149 3.50733 0.00583428 
318 1 1 0.044172 0.00325464 0.0411539 0 0 0 -0.00143706 0.00694771 0.097612 -0.00178131 -0.00690308 -0.0132578 8.26239 -14.7825 3.46607 0.00583428 
236 1 1 -0.0208604 0.00818817 0.0386591 0 0 0 0.00961429 0.0382543 0.07809 -0.0104626 -0.0415551 -0.00371892 -6.04445 -1.93149 -1.2539 0.00583428 
15 1 1 0.0175608 0.0130066 0.0448782 0 0 0 -0.088178 -0.0523872 0.0601762 -0.102067 -0.100182 0.0388309 2.0081 8.7498 1.08978 0.00933485 
298 1 1 0.0324978 0.00914219 0.0445699 0 0 0 -0.05887 -0.0531146 0.0231509 -0.00159568 -0.000140773 -0.0190021 25.063 -33.9049 9.19966 0.00583428 
335 1 1 -0.0327709 0.020261 0.0439058 0 0 0 -0.0818844 -0.0695235 0.0639365 -0.0185323 0.00255166 -0.00205033 11.488 -5.79982 -4.58211 0.00583428 
99 1 1 -0.00329791 0.0328978 0.0451517 0 0 0 -0.0661949 -0.0356377 0.106556 0.00400228 0.00748347 0.101461 2.28437 -5.37639 0.413182 0.00933485 
47 1 1 0.0240575 0.0355056 0.0413484 0 0 0 0.0378169 -0.109464 0.142211 -0.0339123 -0.0569048 0.0249677 6.72895 5.75694 11.8453 0.00933485 
327 1 1 -0.0432965 0.0442424 0.0439936 0 0 0 -0.0312641 -0.0166674 0.0510626 -0.00449818 -0.00329885 0.00724529 -9.64704 0.054006 -5.48346 0.00583428 
122 1 1 -0.0257813 0.0413365 0.0393024 0 0 0 0.00590457 0.00261777 0.0276631 -0.00219668 0.0236268 -0.0621647 -2.79703 4.97971 0.39953 0.00933485 
6 1 1 -0.0250524 -0.040886 0.0564376 0 0 0 0.0112838 0.0146582 0.125964 0.0214907 0.0206682 -0.0174381 13.4208 -8.64222 -2.28357 0.00933485 
314 1 1 -0.0137961 -0.0445528 0.0474104 0 0 0 -0.0330271 0.00432652 0.062732 0.01257 -0.00688984 0.00530988 11.4021 25.3662 5.61736 0.00583428 
265 1 1 0.0233467 -0.0440665 0.0495019 0 0 0 -0.0666603 -0.010505 0.00836346 -0.0315322 -0.010883 0.00834041 -0.28273 -3.98023 -14.4078 0.00583428 
84 1 1 -0.0409702 -0.0340629 0.0502506 0 0 0 0.00865167 0.0248131 0.0308986 -0.00776653 0.00900599 -0.0507264 -5.50375 -4.34174 4.25131 0.00933485 
337 1 1 -0.00503636 -0.0372666 0.0475798 0 0 0 -0.0277355 -0.000725239 0.0601976 -0.00373331 0.0123144 0.0130132 9.06839 -7.96279 -7.36547 0.00583428 
56 1 1 0.00976765 -0.0373932 0.0497068 0 0 0 -0.043261 0.0232935 0.103155 -0.0339023 0.00626545 0.0540874 -10.6698 -0.66512 5.42639 0.00933485 
49 1 1 0.0405937 -0.0407698 0.0513321 0 0 0 -0.0206135 0.0108322 0.0672136 0.0491979 0.0195522 0.0397245 7.31075 0.901001 1.68285 0.00933485 
313 1 1 -0.0129128 -0.0277477 0.0543909 0 0 0 -0.158306 0.0342092 0.206731 0.0207068 0.00526048 0.0455511 -0.879405 3.86817 11.5622 0.00583428 
137 1 1 -0.00125419 -0.0278342 0.053395 0 0 0 -0.137479 -0.0349495 0.0730014 0.0359969 0.0317116 0.0439212 12.4287 -3.01563 10.5743 0.00583428 
326 1 1 0.0442626 -0.0266218 0.0477571 0 0 0 -0.00991491 0.0249523 0.0854153 0.00601995 0.0105857 0.00322438 -2.39844 14.9928 -7.02532 0.00583428 
332 1 1 0.0253595 -0.0184763 0.0478629 0 0 0 -0.0162757 0.0182272 0.0718962 0.0151991 0.0159092 0.00495623 -16.4117 4.02886 0.52619 0.00583428 
215 1 1 0.0329913 -0.0173546 0.0565138 0 0 0 0.0175239 -0.0129029 0.0557955 0.0118144 0.0269813 0.00163628 -1.9133 5.14203 8.65406 0.00583428 
182 1 1 -0.0294966 -0.00695852 0.0553553 0 0 0 0.069355 0.0487141 0.142735 -0.00439608 0.0478859 0.0363284 14.457 12.66 12.806 0.00583428 
10 1 1 0.00562019 -0.00552482 0.0491409 0 0 0 -0.0154949 -0.0240042 0.189309 0.0546624 0.0934768 -0.0785609 14.8142 5.84178 3.05546 0.00933485 
276 1 1 0.0181486 -0.0120157 0.0544728 0 0 0 0.000896544 -0.0433744 0.178629 -0.00708695 -0.0152391 -0.0370378 -33.1137 0.0331748 9.02404 0.00583428 
197 1 1 -0.0191293 -0.00294278 0.0496637 0 0 0 -0.0404364 -0.00706242 0.19994 0.00265632 0.0053112 -0.0085024 0.137439 -15.334 -10.2132 0.00583428 
87 1 1 0.0299982 -0.0027927 0.0540834 0 0 0 -0.0225991 -0.00345651 0.115953 -0.0466825 0.0606499 -0.178591 7.91225 -0.756588 0.0384309 0.00933485 
32 1 1 -0.0395424 0.00821972 0.0504724 0 0 0 -0.201019 -0.0405186 0.0849177 0 0 -0.0835641 -29.5363 -2.54415 -10.6855 0.00933485 
115 1 1 -0.000394157 0.0119149 0.0494585 0 0 0 -0.084104 -0.0353018 0.137007 -0.193509 0.0149 -0.156352 -17.05 -4.35397 1.45998 0.00933485 
291 1 1 0.0441055 0.0127269 0.0488181 0 0 0 -0.0329942 0.013239 0.130635 0.011665 0.0226241 -0.0202483 9.53443 -18.9081 -9.87408 0.00583428 
117 1 1 -0.0182344 0.022417 0.0472986 0 0 0 -0.0591426 -0.0829613 0.0582315 -0.0477602 0.0380647 0.0219153 5.30485 2.80935 4.04073 0.00933485 
39 1 1 -0.0407574 0.0310398 0.0509049 0 0 0 0.0298958 0.00340157 0.110666 -0.0441224 -0.0254947 -0.0611448 -2.86369 14.347 2.55495 0.00933485 
140 1 1 0.00812505 0.0240218 0.0477497 0 0 0 -0.0621998 -0.0347922 0.126811 -0.00406474 -0.0279373 0.00829469 -12.4414 12.8572 -2.94384 0.00583428 
106 1 1 0.0402058 0.0278007 0.0492579 0 0 0 -0.00591991 -0.00746358 0.147934 0.132245 -0.185648 0.0180575 12.712 -9.59195 3.44444 0.00933485 
113 1 1 0.013359 0.0346495 0.0565891 0 0 0 -0.0496467 -0.00442928 0.10996 -0.0353763 -0.0667503 0.0643423 14.1495 7.15779 9.53789 0.00933485 
174 1 1 -0.0341493 0.0444481 0.0511953 0 0 0 0.0082652 0.0174414 0.0256547 -0.012377 -0.00801728 0.0109237 -3.80073 -7.52579 2.00717 0.00583428 
315 1 1 -0.00801224 0.044441 0.053193 0 0 0 -0.0142011 0.00259308 0.0878959 0.00453025 0.0144655 0.0225113 -15.0702 24.6959 -2.1818 0.00583428 
158 1 1 0.0035401 0.044474 0.0513548 0 0 0 -0.0672917 -0.00929783 0.106808 0.00751783 0.00314011 0.0056868 -19.2512 -14.5404 -11.2238 0.00583428 
203 1 1 0.0439847 0.0438982 0.0500473 0 0 0 -0.0217804 -0.0224795 0.0700248 0.0117515 0.017821 -0.00732886 11.9054 -9.81176 9.27916 0.00583428 
252 1 1 -0.0375112 -0.0442741 0.0642238 0 0 0 0.00111247 0.0119905 0.105102 0.0316149 0.0187586 0.00955482 15.7853 24.406 -2.52657 0.00583428 
190 1 1 -0.000936877 -0.0442154 0.0578662 0 0 0 -0.0354987 -0.00283365 0.0933719 -0.0528687 -0.00660649 0.0347491 12.5579 -4.2339 0.492185 0.00583428 
189 1 1 0.0285001 -0.0444764 0.0598849 0 0 0 -0.0301595 -0.00660093 -0.0156559 8.94467e-05 -0.0016514 -0.0044829 -3.28542 12.3958 5.69515 0.00583428 
186 1 1 0.0434951 -0.0442235 0.0658173 0 0 0 -0.069623 0.0210453 0.0696642 -0.00645277 -0.0134374 -0.0276553 11.2571 1.81016 11.7537 0.00583428 
230 1 1 -0.0426193 -0.0297895 0.0645634 0 0 0 0.0272352 -0.0340646 -0.00710298 0.02252 0.0228297 0.0141401 5.75882 13.4686 1.5977 0.00583428 
75 1 1 -0.0243384 -0.0240174 0.0640833 0 0 0 0.0210526 0.0426849 0.124273 -0.0761667 0.0887815 0.0943863 -15.6562 5.93641 1.32898 0.00933485 
227 1 1 0.010939 -0.0268477 0.060155 0 0 0 0.034098 -0.0426928 0.181038 0.00496103 -0.00898092 0.0391951 35.5655 7.90094 -20.4668 0.00583428 
91 1 1 0.0254775 -0.0303071 0.0568353 0 0 0 -0.00276624 0.0213539 0.0823188 0.0463002 0.0162351 0.016379 8.43182 14.9583 -11.5719 0.00933485 
247 1 1 0.040051 -0.0271169 0.0585834 0 0 0 0.0405317 -0.0117996 0.0865101 0.000961544 0.0355948 0.00402244 -36.2585 -24.9133 11.3387 0.00583428 
36 1 1 -0.0408097 -0.0168677 0.0569999 0 0 0 0.0294053 0.0429038 0.112227 0.0643442 -0.00535514 0.0448163 14.9179 -7.56852 -1.63189 0.00933485 
26 1 1 -0.00650367 -0.0150958 0.0594662 0 0 0 -0.0174899 -0.00685803 0.175857 0.0790371 0.0493249 0.112379 1.44086 8.18394 -19.7059 0.00933485 
209 1 1 0.00858083 -0.0157264 0.0597727 0 0 0 0.0117751 -0.0353794 0.204451 -0.0164701 -0.00355768 0.000956759 -29.9124 -18.6577 24.0165 0.00583428 
217 1 1 0.0443755 -0.0164978 0.0572428 0 0 0 0.00463719 0.00820401 0.0134854 -0.00869304 0.0451616 0.0243242 15.8592 2.3963 -1.85086 0.00583428 
204 1 1 -0.0195659 -0.00798908 0.0613931 0 0 0 0.0412344 0.0868895 0.253679 0.0535583 -0.0362234 -0.0266933 38.782 -19.2063 7.57852 0.00583428 
148 1 1 0.0444053 -0.0049872 0.0571183 0 0 0 0.000505912 0.00914821 0.0551183 0.0223887 0.0294619 -0.0600407 -9.8654 10.5325 0.563804 0.00583428 
306 1 1 -0.0428192 -0.00217925 0.0611472 0 0 0 -0.159058 0.0323231 0.212778 0 0 -0.0204014 18.454 -1.93326 34.0773 0.00583428 
22 1 1 0.0011328 0.00134195 0.0657103 0 0 0 -0.00915864 0.0064559 0.202286 0.0356674 0.200051 -0.13153 -21.1009 1.60943 12.4038 0.00933485 
57 1 1 -0.015856 0.00824008 0.0589788 0 0 0 -0.0891946 0.0114464 0.202704 0.0306612 -0.0286573 -0.0953852 -2.09678 2.9786 7.59127 0.00933485 
45 1 1 0.030155 0.0135863 0.0626242 0 0 0 -0.0131958 -0.00739147 0.139581 -0.140108 -0.0593073 -0.0770821 -7.31639 -11.2544 -5.52278 0.00933485 
338 1 1 0.0443196 0.00954878 0.0599156 0 0 0 -0.00927054 -0.0350237 0.130228 -0.0082201 0.0164087 -0.0321323 -1.66081 23.2777 6.42795 0.00583428 
233 1 1 -0.00354032 0.015467 0.0635658 0 0 0 -0.0702894 -0.011621 0.174034 -0.0226157 0.0250866 -0.0215085 26.6076 9.56276 -8.64697 0.00583428 
263 1 1 0.00852048 0.0186308 0.0633909 0 0 0 0.0112084 -0.0178338 -0.0533382 0 0 -0.0204014 -38.2504 19.8643 17.0658 0.00583428 
266 1 1 0.0185951 0.0209618 0.0574682 0 0 0 0.0321359 0.00525429 0.0210792 -0.0581747 -0.0275532 0.0269717 -14.4181 9.68645 -3.28625 0.00583428 
322 1 1 0.0440531 0.021007 0.0621986 0 0 0 0.0110261 -0.0521673 0.115723 0.0594798 -0.0643034 0.05534 -9.42691 13.0542 4.80979 0.00583428 
280 1 1 -0.0444112 0.030131 0.0653062 0 0 0 0.00800483 0.0020715 0.128733 -0.0104553 -0.000231779 -0.010684 4.42962 -24.5025 -0.892543 0.00583428 
198 1 1 -0.0328655 0.0307079 0.065789 0 0 0 0.0177812 -0.0733078 0.135826 -0.0107915 0.00854721 -0.00933823 -6.03633 -9.27245 -4.81123 0.00583428 
250 1 1 -0.0291518 0.0238407 0.0574131 0 0 0 -0.0290968 -0.111962 0.121432 -0.0371125 0.000941179 -0.0151149 8.7341 5.37815 -15.1396 0.00583428 
46 1 1 -0.00165986 0.0300334 0.0662783 0 0 0 0.0138764 -0.00449527 0.229105 -0.00978985 0.0278597 -0.0016253 -10.0685 8.98543 -1.19451 0.00933485 
127 1 1 0.0346968 0.0275598 0.0649299 0 0 0 -0.0126378 -0.00382192 0.122703 -0.035668 -0.0076999 -0.085705 -4.5061 -24.7235 2.13479 0.00583428 