ITEM: TIMESTEP
59150
ITEM: NUMBER OF ATOMS
338
ITEM: BOX BOUNDS mm mm mm
-0.05 0.05
-0.05 0.05
0 0.15
ITEM: ATOMS id type type x y z ix iy iz vx vy vz fx fy fz omegax omegay omegaz radius 
131 1 1 -0.0257481 -0.0400546 0.00560326 0 0 0 2.54102e-06 4.82692e-06 8.90692e-06 3.77085e-06 2.51586e-05 3.80063e-05 -0.000621317 -0.000106256 0.000250996 0.00694698 
319 1 1 -0.0146874 -0.0445409 0.006053 0 0 0 1.63497e-06 3.49338e-06 6.53972e-06 -1.64602e-06 1.11071e-05 2.52546e-05 6.71184e-05 0.000426867 -0.000213029 0.00694698 
243 1 1 -0.00279116 -0.043873 0.00610439 0 0 0 2.00514e-07 1.71553e-06 5.92855e-06 -1.29967e-05 8.24607e-06 1.98232e-05 0.000516534 -0.000653763 0.000225307 0.00694698 
260 1 1 0.0252546 -0.0438307 0.00594049 0 0 0 -1.04225e-07 6.24612e-06 1.21277e-05 -1.89443e-05 1.00904e-05 2.18297e-05 0.000669377 0.000114752 0.000113461 0.00694698 
78 1 1 0.0413085 -0.0407811 0.00927582 0 0 0 -5.12765e-07 4.49908e-06 1.05645e-05 -4.29927e-05 2.59884e-05 4.24768e-05 0.000397116 0.000621493 -0.000365896 0.0111152 
74 1 1 -0.040828 -0.0367696 0.00959709 0 0 0 1.36097e-06 1.41021e-06 3.11741e-06 5.04747e-05 8.6589e-05 9.51397e-05 -6.12038e-05 -0.000206668 3.25565e-05 0.0111152 
296 1 1 -0.0274829 -0.0274567 0.00612188 0 0 0 2.26311e-06 3.86055e-06 8.58528e-06 6.2448e-06 2.26841e-05 3.15089e-05 -0.000593761 -0.00057177 0.000361323 0.00694698 
173 1 1 -0.0155729 -0.0319598 0.00557448 0 0 0 2.23205e-06 5.15443e-06 1.32371e-05 1.27946e-06 1.75938e-05 4.44152e-05 -1.28162e-05 0.000293633 -0.000252867 0.00694698 
275 1 1 -0.0035902 -0.0297747 0.00572446 0 0 0 1.85455e-06 4.01632e-06 1.22889e-05 -7.84964e-06 2.7632e-05 4.67383e-05 0.000117751 -6.50785e-05 0.000230898 0.00694698 
60 1 1 0.0105837 -0.0360376 0.00947773 0 0 0 1.32688e-08 6.47512e-06 1.87166e-05 -0.000109424 9.5696e-05 0.000246019 -1.10324e-05 -9.49422e-05 -4.01326e-05 0.0111152 
102 1 1 -0.0405428 -0.0169477 0.00905848 0 0 0 -8.17864e-08 -6.7541e-09 -6.68971e-07 2.80647e-05 0.000101757 7.43585e-05 -0.000101604 -0.000180976 0.000183685 0.0111152 
328 1 1 -0.0254333 -0.01519 0.00543683 0 0 0 1.07956e-06 2.64766e-06 4.52801e-06 8.46936e-07 1.9723e-05 5.23077e-06 -0.000221832 -0.000390851 4.65723e-05 0.00694698 
40 1 1 -0.0106765 -0.0158183 0.0106462 0 0 0 2.50413e-06 6.34458e-06 1.15181e-05 -8.31886e-05 0.000119617 0.000286647 -0.00106972 -0.000128988 -0.000152698 0.0111152 
279 1 1 0.00440775 -0.0207351 0.0109054 0 0 0 1.5629e-06 7.52893e-06 2.63467e-05 -2.427e-05 3.70648e-05 9.54759e-05 0.00103003 -0.00103851 -4.78556e-05 0.00694698 
267 1 1 0.0155005 -0.0199622 0.00561742 0 0 0 9.82225e-07 8.11204e-06 2.21489e-05 -2.50291e-05 2.61665e-05 5.94079e-05 2.46381e-05 0.000259689 0.00016762 0.00694698 
144 1 1 0.0430495 -0.0248667 0.00596799 0 0 0 2.57272e-06 5.63098e-06 1.36675e-05 -1.2826e-05 3.03529e-06 1.53354e-05 -0.000284486 0.00174504 -0.000536802 0.00694698 
202 1 1 0.0452017 -0.0129601 0.00612949 0 0 0 1.42779e-07 6.06647e-06 7.8759e-06 -8.8856e-06 -8.80983e-06 8.34633e-06 -0.00100087 0.000922283 0.000247981 0.00694698 
257 1 1 -0.0442073 -0.00104702 0.00624944 0 0 0 1.90081e-06 5.45323e-07 2.28406e-06 -6.94171e-06 -1.57938e-06 2.17663e-05 0.000399505 -0.000351303 -0.000163869 0.00694698 
274 1 1 -0.0220225 -0.00377881 0.00775189 0 0 0 7.50563e-06 4.42762e-06 -8.06722e-06 -8.09322e-06 1.60383e-05 7.35873e-05 -0.00214665 0.000784807 -0.000811307 0.00694698 
50 1 1 0.0305736 -0.00918801 0.00973541 0 0 0 -2.83104e-07 8.14404e-06 2.03796e-05 -8.23641e-05 1.72366e-05 0.000167341 -0.00108841 0.000146844 -0.000260465 0.0111152 
232 1 1 -0.0434387 0.0118756 0.00626164 0 0 0 1.16877e-06 1.30976e-06 1.29747e-06 3.68127e-06 -6.37592e-06 4.57153e-05 -0.000357635 -7.4475e-05 0.000436012 0.00694698 
268 1 1 -0.0326769 0.00368232 0.00609406 0 0 0 8.20019e-06 4.15918e-06 -1.79246e-06 -2.31466e-06 -4.7377e-06 0.000106252 -0.000847026 0.00188321 0.000119003 0.00694698 
171 1 1 -0.021197 0.00798668 0.00823462 0 0 0 9.06599e-06 3.63864e-06 -5.91611e-07 -6.20647e-06 1.74265e-05 0.000153282 0.0027485 -0.00177008 0.000466225 0.00694698 
164 1 1 0.0206 0.00173767 0.00544623 0 0 0 -2.55237e-06 3.25095e-06 1.38985e-05 -2.21444e-05 1.37015e-05 5.51881e-05 -0.000264788 0.000675253 0.000563123 0.00694698 
297 1 1 -0.0253905 0.019586 0.00549862 0 0 0 2.46271e-06 -7.43419e-07 9.21057e-06 -1.45672e-05 4.58343e-06 9.8277e-05 0.000169193 -0.00023404 0.000912093 0.00694698 
222 1 1 -0.0108508 0.0145911 0.00545567 0 0 0 3.85185e-06 3.7028e-06 1.52474e-05 -1.92738e-05 1.96652e-05 0.000101356 -0.0005158 0.000372291 0.00052939 0.00694698 
290 1 1 -0.000799294 0.0214674 0.00523784 0 0 0 6.18591e-07 1.33349e-06 1.73415e-05 -2.62141e-05 2.38818e-06 4.40735e-05 -0.000700157 -0.00107282 -0.000101742 0.00694698 
98 1 1 0.0122233 0.0135227 0.00979352 0 0 0 -1.73819e-06 1.58114e-06 3.09546e-05 -0.000141319 7.48917e-05 0.000291705 -7.17888e-05 0.000779089 -0.000288312 0.0111152 
316 1 1 0.0321803 0.0195781 0.00502884 0 0 0 2.14902e-06 -3.5585e-06 9.83917e-06 -1.59979e-05 -5.92785e-06 -1.22916e-05 0.00142283 0.000568754 0.00117741 0.00694698 
162 1 1 0.0446349 0.0202023 0.00544625 0 0 0 2.44782e-06 2.11372e-06 1.04584e-05 -6.9645e-06 -5.90271e-06 -1.02737e-05 -0.0026057 0.00116431 1.59725e-05 0.00694698 
294 1 1 -0.0439424 0.0252727 0.00613939 0 0 0 -3.47886e-07 3.25317e-07 -3.26991e-07 1.28049e-05 -8.67905e-06 2.92272e-05 -0.000204287 -0.000101892 -0.000127914 0.00694698 
175 1 1 -0.0327496 0.0313742 0.00614202 0 0 0 1.98741e-06 -3.12302e-06 -1.22909e-06 -4.35858e-06 -1.95716e-05 5.32953e-05 0.000659079 0.000628613 -0.00020418 0.00694698 
255 1 1 -0.0148477 0.0261367 0.00587594 0 0 0 1.48348e-06 4.7258e-07 9.07858e-06 -1.75112e-05 5.78846e-06 6.4171e-05 -0.00068398 0.000290277 -0.000219082 0.00694698 
324 1 1 -0.00330542 0.0326855 0.0056693 0 0 0 5.75661e-07 2.12365e-06 3.24605e-06 -1.08189e-05 8.87374e-06 1.43873e-05 -0.000752973 -0.000353533 0.000157315 0.00694698 
161 1 1 0.00824506 0.0320298 0.00644882 0 0 0 -2.56732e-06 -1.44733e-06 1.45239e-05 -2.26732e-05 2.09049e-05 1.77762e-05 -0.00107474 -0.000802317 -0.00121157 0.00694698 
77 1 1 0.0226325 0.0295981 0.012343 0 0 0 -6.7669e-06 -1.12809e-05 2.95909e-05 -0.000122954 2.3398e-05 -7.62171e-06 0.000246391 -0.00080397 -0.000147502 0.0111152 
155 1 1 0.0376085 0.0311764 0.00564484 0 0 0 -3.45631e-06 -4.06552e-06 1.60256e-05 -1.73633e-05 -2.65969e-06 -1.66085e-05 0.000939674 0.000759725 0.000340123 0.00694698 
321 1 1 -0.04402 0.0437755 0.0062938 0 0 0 -3.63886e-07 -1.74899e-07 -9.96232e-07 6.10864e-06 3.57442e-07 1.41366e-05 0.000158357 -3.07567e-05 -0.000156989 0.00694698 
207 1 1 -0.0314325 0.0439672 0.00637409 0 0 0 4.2631e-07 -1.53867e-06 1.17804e-06 -2.51104e-06 -2.50496e-07 2.2842e-05 6.88924e-06 -0.000253423 3.91976e-05 0.00694698 
38 1 1 -0.0153313 0.0415941 0.00979058 0 0 0 1.80747e-06 -5.28581e-07 1.38619e-06 -4.55193e-05 -8.59162e-06 9.81786e-05 -2.32465e-05 0.000315354 0.000292653 0.0111152 
149 1 1 0.0120644 0.043872 0.00543326 0 0 0 1.85227e-06 -3.23817e-06 5.0101e-06 -7.27079e-06 4.85095e-06 -4.93624e-06 8.31878e-05 -0.000104114 -7.11388e-05 0.00694698 
237 1 1 0.0011871 0.0437539 0.0121483 0 0 0 -3.16271e-07 8.42343e-07 1.26114e-06 -5.65594e-06 3.41071e-06 -4.14786e-06 -0.000147922 -0.00063451 -0.000351245 0.00694698 
249 1 1 0.0277054 0.0441438 0.00611633 0 0 0 -7.37301e-07 -8.06806e-06 1.35459e-05 -1.58649e-05 1.62781e-06 -1.64683e-06 -0.000531634 0.000463607 -0.000299557 0.00694698 
289 1 1 0.0443721 0.0422256 0.00592206 0 0 0 -2.76505e-06 -8.91521e-06 1.43792e-05 -1.22127e-05 5.03116e-06 -2.37103e-05 0.00183913 0.00122453 0.000901601 0.00694698 
331 1 1 -0.0432693 -0.0455642 0.0218634 0 0 0 9.35439e-07 2.19064e-06 1.92179e-06 7.55411e-06 1.20798e-05 1.70819e-05 -2.66281e-05 0.000174821 4.53694e-05 0.00694698 
299 1 1 -0.0246085 -0.0451872 0.0168094 0 0 0 3.32201e-06 7.79852e-06 1.31732e-05 -3.11762e-06 3.29071e-05 6.2456e-05 0.00155267 -3.85283e-05 -0.000189006 0.00694698 
225 1 1 -0.0115498 -0.0442709 0.0185951 0 0 0 2.02759e-06 1.04789e-05 1.96696e-05 -8.19283e-06 3.20446e-05 7.17099e-05 0.000616901 -0.000543847 -9.65738e-05 0.00694698 
242 1 1 0.00106186 -0.0446807 0.0196824 0 0 0 8.62741e-07 5.57511e-06 1.99186e-05 -1.40658e-05 2.12841e-05 5.93987e-05 0.00287845 0.00101027 -0.000385469 0.00694698 
130 1 1 0.0208357 -0.0442058 0.0182027 0 0 0 -1.65832e-06 6.42896e-07 1.44613e-05 -7.82565e-06 -2.92815e-06 2.68265e-05 0.00154786 -0.000705426 0.000465359 0.00694698 
167 1 1 0.0319451 -0.0442251 0.0228862 0 0 0 -2.08906e-06 5.00803e-06 2.02204e-05 -6.40057e-06 -3.79832e-06 -6.17662e-06 0.000744971 0.000227809 0.000175336 0.00694698 
136 1 1 0.0442903 -0.0447089 0.0241887 0 0 0 -4.505e-06 5.40571e-06 1.2278e-05 -4.27838e-06 -1.64353e-07 1.60623e-06 0.000824845 -0.000110037 0.000471397 0.00694698 
179 1 1 -0.0345746 -0.0262027 0.0213893 0 0 0 2.59801e-07 1.06008e-05 1.10686e-05 8.60429e-06 5.29854e-05 5.94173e-05 -0.00158742 -0.00102121 0.000301544 0.00694698 
7 1 1 -0.0200353 -0.0304271 0.0211167 0 0 0 2.09556e-06 1.32093e-05 3.05065e-05 -2.6689e-05 0.000219445 0.000409759 2.54914e-05 -0.000299683 0.000236001 0.0111152 
104 1 1 -0.000112749 -0.0285696 0.0247238 0 0 0 -2.23865e-06 1.88708e-05 3.58407e-05 -9.77305e-05 0.000173689 0.000507308 -0.0012731 -7.92598e-05 0.000170511 0.0111152 
67 1 1 0.0278423 -0.0280453 0.0126282 0 0 0 -1.89626e-06 1.21779e-05 3.38544e-05 -0.000124763 5.75697e-05 0.000238179 0.000166577 -0.000523139 7.90739e-05 0.0111152 
128 1 1 -0.0450313 -0.0217266 0.0238335 0 0 0 -3.86669e-06 5.86219e-06 7.00926e-08 2.15348e-05 1.46212e-05 3.67023e-05 -0.00163853 -0.000611376 0.000967179 0.00694698 
278 1 1 0.0331688 -0.016193 0.0241361 0 0 0 -1.34208e-05 2.35382e-05 4.74383e-05 -3.11033e-05 6.87499e-06 5.93518e-05 -0.000460075 -0.00061956 0.000193041 0.00694698 
146 1 1 -0.044873 -0.00919979 0.022471 0 0 0 4.52799e-06 -3.59936e-07 -2.54144e-06 -2.20373e-06 -8.75335e-06 0.000114057 0.000805826 0.000450062 -0.00163879 0.00694698 
96 1 1 0.0119172 -0.00721233 0.0161321 0 0 0 4.37743e-07 1.46623e-05 3.48759e-05 -9.3547e-05 0.000112371 0.000498559 -0.00116661 0.000254056 0.000124614 0.0111152 
183 1 1 0.0447601 -0.00703514 0.017542 0 0 0 -9.81648e-06 6.16296e-06 2.11297e-05 3.96503e-06 -7.46849e-06 -2.07271e-07 0.00352577 -0.000280689 0.00115108 0.00694698 
25 1 1 -0.0377542 0.00483183 0.0223889 0 0 0 6.00766e-06 5.83319e-06 9.0917e-06 1.54307e-05 7.16348e-05 0.00104522 7.28898e-05 -0.00153357 0.00174577 0.0111152 
17 1 1 -0.00526007 0.00256307 0.0144081 0 0 0 -4.60316e-07 5.94006e-06 2.36997e-05 -0.000145223 0.000135754 0.000653063 0.000909454 -0.00194634 0.000236153 0.0111152 
94 1 1 0.0384742 0.00842695 0.0134969 0 0 0 -1.71221e-05 9.70436e-06 3.28106e-05 2.23252e-05 -4.21869e-05 -0.000105071 -0.000857474 -0.00609465 0.00110166 0.0111152 
300 1 1 -0.0447061 0.0189524 0.0170509 0 0 0 -1.69118e-06 5.05926e-07 2.16245e-06 1.00362e-05 -1.13471e-05 8.55277e-05 0.000380252 -0.000267955 8.17911e-05 0.00694698 
273 1 1 -0.0327467 0.0189504 0.0155432 0 0 0 -1.52257e-06 8.62762e-07 8.39028e-06 -1.26241e-06 -1.4817e-05 0.000161392 -0.000925855 -0.00071726 -0.000509671 0.00694698 
28 1 1 -0.0168118 0.0183632 0.0204916 0 0 0 -7.40945e-06 -2.02379e-06 2.51294e-05 -4.57355e-05 0.000125306 0.000735499 0.000117019 -0.00103394 0.000115845 0.0111152 
286 1 1 -0.00173313 0.0186073 0.0168811 0 0 0 -3.94424e-06 3.77432e-06 3.58255e-05 -3.10606e-05 4.39184e-05 0.00010527 -0.00153958 -0.000644519 0.000742279 0.00694698 
305 1 1 -0.0436936 0.0348177 0.0156113 0 0 0 9.50149e-07 -7.82576e-07 -4.3537e-06 -9.9575e-06 -5.845e-06 5.40533e-05 0.00018311 0.000730547 -0.000103339 0.00694698 
23 1 1 -0.0279413 0.0337349 0.0221095 0 0 0 -3.99484e-06 -8.26486e-07 2.78173e-06 -2.64914e-05 4.43971e-05 0.000474564 -0.000910995 -0.00121684 -0.000249915 0.0111152 
320 1 1 0.00379661 0.0296091 0.018379 0 0 0 -1.70445e-05 7.88471e-07 2.99489e-05 -3.92756e-05 3.45195e-05 4.8104e-05 0.00124307 -0.00119092 0.000865796 0.00694698 
284 1 1 0.0446348 0.0273726 0.015737 0 0 0 7.60803e-07 -1.21093e-05 1.10016e-05 -1.11985e-05 7.1963e-06 -2.02651e-05 0.00454608 0.00068916 0.00272463 0.00694698 
239 1 1 0.0187751 0.0448273 0.0154887 0 0 0 -6.07686e-06 -8.77359e-06 1.73405e-05 -2.5377e-05 -1.53969e-06 5.17281e-06 -0.000650455 -0.00121666 -6.26977e-05 0.00694698 
61 1 1 0.037083 0.0409697 0.0204872 0 0 0 -1.17e-05 -1.48911e-05 2.74372e-05 1.74435e-06 -1.15018e-06 -0.000160814 -0.00124395 -0.00104089 -0.000868264 0.0111152 
224 1 1 -0.0437842 -0.0444768 0.0343522 0 0 0 1.12104e-06 6.16359e-07 4.8864e-06 2.70367e-06 1.3068e-06 1.19221e-05 0.000691938 -0.000311635 -0.000181106 0.00694698 
256 1 1 -0.0327608 -0.0400947 0.0257175 0 0 0 -1.14094e-06 3.67805e-06 1.35008e-05 -1.24786e-05 3.47837e-05 8.03086e-05 0.000927609 -0.00189756 4.16483e-05 0.00694698 
42 1 1 -0.0120031 -0.0408869 0.0355063 0 0 0 -1.36001e-06 2.18677e-05 3.70144e-05 -6.82232e-05 0.000172925 0.000461912 0.000910701 -2.65431e-05 4.57108e-05 0.0111152 
271 1 1 0.0313717 -0.040779 0.0343155 0 0 0 -8.79784e-06 2.46824e-05 3.86076e-05 -3.99899e-05 -6.57435e-06 -2.70005e-05 -0.00112632 -0.00114905 -0.0010516 0.00694698 
125 1 1 0.0438559 -0.0440726 0.0371344 0 0 0 1.69925e-06 2.30201e-06 1.73893e-05 -1.39061e-05 -8.00748e-06 -2.71288e-06 0.0020104 0.0029403 -0.000630918 0.00694698 
180 1 1 -0.0442349 -0.0338853 0.0265895 0 0 0 2.85868e-07 2.66467e-06 5.12111e-06 7.55071e-06 1.8493e-05 3.18843e-05 0.00065799 -0.000252842 0.00026002 0.00694698 
120 1 1 0.0409684 -0.0296038 0.0290176 0 0 0 -9.11795e-06 1.43753e-05 3.50137e-05 -6.46664e-05 -1.70862e-05 4.51343e-05 -2.52489e-05 0.00180138 -0.000603442 0.0111152 
178 1 1 -0.012639 -0.0206731 0.032126 0 0 0 -5.75767e-06 2.24346e-05 5.48521e-05 -6.30316e-06 5.98239e-05 0.000137132 -0.00153817 0.00115047 0.001596 0.00694698 
51 1 1 0.0185589 -0.0226609 0.0301882 0 0 0 -1.53126e-05 2.90328e-05 5.47876e-05 -0.000169696 0.000103427 0.000430677 -0.000438917 -0.00128674 0.00036681 0.0111152 
134 1 1 0.0440827 -0.0143843 0.0325108 0 0 0 -1.65062e-05 1.05892e-05 3.44289e-05 -1.31696e-05 -8.05016e-06 -8.9191e-06 0.00101378 0.00141809 0.0014555 0.00694698 
19 1 1 -0.0263969 -0.0120069 0.0273707 0 0 0 -2.06055e-06 1.70936e-05 3.6065e-05 0.00010851 0.000275462 0.000960655 0.000961921 -0.00508616 -0.00100886 0.0111152 
310 1 1 -0.0104365 -0.00898782 0.0299636 0 0 0 -1.61218e-05 1.43563e-05 5.76165e-05 2.54538e-05 6.57758e-05 0.00025313 0.0033513 0.00611801 0.000958289 0.00694698 
258 1 1 0.000949948 -0.012339 0.0275496 0 0 0 -1.2013e-05 2.41582e-05 2.21222e-05 -5.66912e-06 5.07262e-05 0.000177447 -0.000446528 -0.00234314 0.000334001 0.00694698 
18 1 1 0.0121869 -0.00447301 0.0369605 0 0 0 -4.64109e-05 1.66059e-05 6.8743e-05 5.42943e-05 0.000200376 0.000512997 0.00300368 -0.00413039 0.000989903 0.0111152 
184 1 1 0.0277391 -0.00806875 0.0328957 0 0 0 -3.24598e-05 2.53864e-05 7.93e-05 -1.86254e-05 4.43766e-06 5.27718e-05 0.0017328 0.00106804 -0.00137387 0.00694698 
112 1 1 -0.0179402 0.00468419 0.0351753 0 0 0 -2.1753e-05 1.19597e-05 6.31394e-05 0.000139672 0.000205483 0.0012696 -0.00218592 -0.00201305 0.000118873 0.0111152 
160 1 1 -0.00258795 0.000661762 0.0310723 0 0 0 -2.51697e-05 1.15354e-05 5.15154e-05 9.08135e-06 4.82104e-05 0.000223602 0.000856556 0.00125485 0.000746326 0.00694698 
55 1 1 0.0406908 0.00155578 0.0321767 0 0 0 -3.64012e-05 1.06514e-05 5.09326e-05 3.1959e-06 -1.13447e-05 -0.000145021 0.00037547 0.00320267 0.000549589 0.0111152 
2 1 1 -0.0316935 0.0196551 0.0354847 0 0 0 -1.83719e-05 8.23082e-06 2.14965e-05 0.000207703 0.000192473 0.00104569 -0.000623514 -0.000489667 -3.28736e-05 0.0111152 
100 1 1 0.00652127 0.0141766 0.029828 0 0 0 -2.95834e-05 1.62208e-05 8.05306e-05 -4.71978e-05 0.000199234 0.000445921 -6.89929e-05 -0.00301148 4.40684e-05 0.0111152 
261 1 1 0.043399 0.0180073 0.0268079 0 0 0 -4.78835e-05 1.409e-05 4.57328e-05 1.47794e-05 -1.04466e-05 -5.01694e-05 0.00101455 0.00324075 -0.00130598 0.00694698 
246 1 1 -0.0443139 0.0262016 0.0275324 0 0 0 -4.87871e-06 1.03512e-06 4.77365e-06 3.54407e-05 -1.27573e-06 0.00013332 -0.000779275 -0.000748916 -0.000127479 0.00694698 
69 1 1 -0.00686329 0.0298272 0.0340232 0 0 0 -3.38125e-05 1.03049e-05 4.95545e-05 3.12037e-05 0.000129508 0.000944803 -0.00121217 -0.00141907 0.000400822 0.0111152 
108 1 1 0.0262495 0.0288961 0.0325398 0 0 0 -3.66084e-05 -1.92923e-06 6.59599e-05 7.90371e-05 4.75043e-05 -6.14547e-05 -0.00282665 -0.000221947 -0.000481222 0.0111152 
9 1 1 -0.0407958 0.0418491 0.032558 0 0 0 -5.05234e-07 1.04397e-07 2.60967e-07 2.5071e-05 8.65112e-05 0.000259997 0.000367314 0.001061 -0.000171501 0.0111152 
323 1 1 -0.00700759 0.0443556 0.0261316 0 0 0 -1.20673e-05 -6.17273e-07 1.70081e-05 -4.04794e-05 -8.17003e-06 0.00015158 -0.00294166 -0.00263434 -0.00150963 0.00694698 
16 1 1 0.0103834 0.0409506 0.0288255 0 0 0 -2.2489e-05 -2.37766e-06 3.30922e-05 -3.00692e-05 1.13609e-05 0.00020993 -0.0020535 -0.000250372 -0.0014288 0.0111152 
329 1 1 -0.0243337 -0.0448883 0.0452014 0 0 0 -5.10693e-06 1.61467e-05 2.85124e-05 -1.34007e-05 -1.9508e-06 7.14162e-05 0.00303896 -0.000842045 0.000260783 0.00694698 
168 1 1 0.00170639 -0.0450129 0.040199 0 0 0 -4.76957e-06 9.83059e-06 2.27294e-05 -2.73123e-05 1.15599e-05 0.000107988 0.00417225 0.000999415 0.00059932 0.00694698 
3 1 1 0.0165061 -0.0408745 0.039313 0 0 0 -1.18977e-05 2.05243e-05 3.26657e-05 -0.000161976 4.57867e-05 0.000271365 0.00276831 -0.000208354 0.000957651 0.0111152 
283 1 1 0.0310352 -0.0446314 0.0458371 0 0 0 -1.46026e-05 1.83895e-05 2.72342e-05 -1.50246e-06 -2.73223e-05 -3.56459e-05 0.00338778 -0.000708565 0.00230749 0.00694698 
211 1 1 -0.0439276 -0.0331951 0.0391794 0 0 0 1.41867e-06 9.96031e-06 3.86001e-06 1.3728e-05 -1.44138e-05 8.03962e-05 -0.00242582 -0.000143363 0.000719983 0.00694698 
93 1 1 -0.0271457 -0.0292817 0.0419053 0 0 0 6.07943e-07 2.78449e-05 2.41525e-05 8.07281e-05 9.90244e-06 0.000774968 -0.00249169 -0.00264467 0.000114405 0.0111152 
191 1 1 0.00287896 -0.0323181 0.0407477 0 0 0 -1.56689e-05 2.92699e-05 5.99595e-05 -4.20951e-05 5.03867e-05 0.00015555 0.00123218 -0.000832768 -0.000729789 0.00694698 
105 1 1 0.0303968 -0.0280612 0.0465898 0 0 0 -2.96283e-05 3.24273e-05 6.59253e-05 1.51442e-05 -0.000203387 -2.26612e-05 0.000987984 -0.000663503 0.000155682 0.0111152 
66 1 1 -0.041682 -0.0169767 0.0389235 0 0 0 -8.88078e-06 1.23435e-05 7.14992e-07 6.70815e-05 -1.1376e-05 0.000573566 0.00140581 0.000985249 0.00104319 0.0111152 
43 1 1 -0.0088297 -0.0242901 0.0478754 0 0 0 -1.76186e-05 4.45246e-05 8.37735e-05 -4.73116e-05 0.000198623 0.000833338 0.00191722 -0.00107544 -5.88841e-05 0.0111152 
259 1 1 0.0241567 -0.0131299 0.0440616 0 0 0 -4.0773e-05 3.34864e-05 8.35402e-05 2.23638e-05 -1.04584e-05 8.3713e-05 0.000499567 -0.00053507 0.0016058 0.00694698 
336 1 1 -0.0246143 -0.0117319 0.0453169 0 0 0 4.42183e-05 -0.000180716 0.000162687 0.000519359 -0.000566653 0.000306297 0.0391591 0.0313447 0.0338551 0.00694698 
245 1 1 -0.000273921 -0.0118499 0.0427906 0 0 0 -4.83764e-05 4.1763e-05 8.90992e-05 -9.60209e-06 8.29967e-05 0.000217171 -0.00220082 0.0106122 -0.00308782 0.00694698 
303 1 1 0.0269175 -0.00136562 0.049333 0 0 0 -4.27718e-05 4.34746e-05 0.00012045 9.52847e-05 -4.59753e-05 -4.80151e-05 -0.000114785 0.00480814 -5.39063e-05 0.00694698 
5 1 1 0.0405046 -0.0106681 0.0488249 0 0 0 -2.34093e-05 2.63492e-05 5.53135e-05 0.000168786 -0.000198529 -0.000153444 -0.00171398 0.00195245 -0.0014548 0.0111152 
107 1 1 -0.0382431 0.00195704 0.0431277 0 0 0 -1.78049e-05 1.25649e-05 2.92468e-05 0.00029605 9.60927e-05 0.00104497 4.73504e-05 -0.000815243 0.000283007 0.0111152 
95 1 1 0.0239299 0.0111489 0.0391398 0 0 0 -4.82051e-05 1.60381e-05 0.000119171 0.000140455 3.30851e-05 -4.78798e-05 -0.00161015 0.00101777 -0.00118423 0.0111152 
318 1 1 0.044365 0.00472851 0.0485669 0 0 0 -1.90984e-06 1.00863e-05 3.39783e-05 1.60695e-05 -1.44657e-05 -3.69248e-05 0.000789152 0.00335532 -0.000232291 0.00694698 
208 1 1 -0.0448666 0.0168566 0.0449705 0 0 0 -1.30219e-05 8.77158e-06 1.59113e-05 3.68451e-05 2.28056e-05 0.000199511 -0.000550802 -0.0017371 0.000588334 0.00694698 
282 1 1 -0.0182463 0.018533 0.0445891 0 0 0 -4.026e-05 2.2576e-05 5.07135e-05 7.72669e-05 4.64348e-05 0.000305441 -0.00138518 -0.00358027 0.00161257 0.00694698 
4 1 1 -0.00366651 0.0146154 0.0482211 0 0 0 -5.6258e-05 4.30669e-05 0.000102151 0.000426507 0.00013145 0.000937947 -0.00203983 -0.00153122 -0.00056938 0.0111152 
58 1 1 0.0410774 0.0200219 0.0435611 0 0 0 -2.57503e-05 5.13868e-06 6.03115e-05 0.000258209 1.08682e-05 -0.000353549 -0.000141114 0.00284933 -1.09038e-05 0.0111152 
199 1 1 -0.0449273 0.0285898 0.0409786 0 0 0 -7.43688e-06 5.844e-06 1.14562e-05 1.47211e-05 1.72534e-05 0.000152286 -0.000778015 -0.00165914 -0.000195337 0.00694698 
192 1 1 -0.0256316 0.0271739 0.0481261 0 0 0 -3.61057e-05 -2.27233e-06 4.76824e-05 0.00011384 1.56234e-05 0.000268895 0.00346671 0.000117562 -0.000162588 0.00694698 
292 1 1 -0.0146968 0.032469 0.0485797 0 0 0 -4.26135e-05 1.05944e-05 5.10552e-05 0.000143715 1.08463e-05 0.000315721 -0.00307097 -0.00198741 0.0035045 0.00694698 
73 1 1 0.0108551 0.0280466 0.0457835 0 0 0 -5.28926e-05 3.13052e-05 8.81491e-05 0.000406219 -6.37043e-06 0.000277932 -0.00246332 -0.000439359 -0.00114628 0.0111152 
327 1 1 -0.0435039 0.0432739 0.0497711 0 0 0 -1.31891e-05 -1.18893e-06 2.62442e-05 2.58735e-05 7.8851e-06 6.45072e-06 -0.00215325 -0.00586234 -0.00132879 0.00694698 
126 1 1 -0.0115806 0.044294 0.0464579 0 0 0 -2.57626e-05 4.07482e-06 2.21226e-05 5.63999e-05 4.56046e-06 0.000162675 -0.00385923 -0.0096456 -0.00355818 0.00694698 
248 1 1 0.000186954 0.0432518 0.0425158 0 0 0 -1.42319e-05 9.62531e-07 4.60192e-05 3.9597e-05 2.27132e-05 8.2858e-05 0.00207045 0.00489673 0.00163192 0.00694698 
229 1 1 0.0125664 0.0445193 0.045416 0 0 0 -1.72091e-05 1.44711e-05 3.11666e-05 2.66295e-05 5.76472e-06 5.81714e-05 -0.00405898 -0.00200452 -0.00274651 0.00694698 
114 1 1 0.0401335 0.0407999 0.0407341 0 0 0 -1.55385e-05 -2.05578e-06 2.96039e-05 0.000123927 5.61605e-05 -0.00029511 -0.00115357 0.00158429 -0.000842112 0.0111152 
314 1 1 -0.0174739 -0.0445492 0.0555942 0 0 0 -4.45229e-06 2.25652e-05 3.15739e-05 -5.65281e-05 2.28049e-05 0.000102067 0.000668673 0.00114717 6.82603e-05 0.00694698 
337 1 1 -0.00609996 -0.0408572 0.0515865 0 0 0 -1.35949e-05 3.55128e-05 4.56474e-05 -6.26359e-05 4.05201e-05 0.000128133 0.000431336 -0.00221654 0.00257152 0.00694698 
56 1 1 0.00688368 -0.0394003 0.0619726 0 0 0 -2.89966e-05 3.06436e-05 4.24763e-05 -9.38386e-05 -0.000210532 8.45455e-05 0.00474726 0.00136261 0.00236881 0.0111152 
265 1 1 0.0220177 -0.043724 0.0552628 0 0 0 -1.36663e-05 1.63935e-05 2.03837e-05 -1.57646e-05 -3.52786e-05 -6.37357e-06 -0.00160505 1.55632e-05 -0.00225073 0.00694698 
49 1 1 0.0406724 -0.0407583 0.0580766 0 0 0 -9.53331e-06 8.57427e-06 1.5706e-05 1.98253e-05 -0.000218697 -0.000161817 0.0012822 0.00222988 7.89396e-05 0.0111152 
84 1 1 -0.0411457 -0.032993 0.0553186 0 0 0 4.70729e-06 3.26356e-05 1.34107e-05 -8.11857e-05 -0.000119047 0.000591219 0.000218418 0.000291031 0.00234289 0.0111152 
307 1 1 -0.0195837 -0.0324345 0.0571155 0 0 0 -3.18846e-06 4.27896e-05 6.54642e-05 -2.57425e-05 7.35676e-06 0.000199583 0.00205847 0.003345 -0.000308214 0.00694698 
326 1 1 0.0447956 -0.0254458 0.0534947 0 0 0 -1.29387e-05 1.46282e-05 3.85936e-05 1.64268e-05 -3.95338e-05 -3.69334e-05 0.00400346 0.00695999 -0.00150541 0.00694698 
81 1 1 -0.0216685 -0.01704 0.0624319 0 0 0 -2.09006e-05 5.03859e-05 9.60322e-05 0.00027871 -0.000101752 0.00138424 6.82748e-05 -0.0011251 0.00174698 0.0111152 
52 1 1 0.0112853 -0.0221409 0.0507309 0 0 0 -3.94997e-05 4.72532e-05 7.70678e-05 6.46891e-05 -1.7444e-05 0.000485205 -0.00109188 -0.000688828 0.000343664 0.0111152 
332 1 1 0.0267559 -0.0152035 0.0567085 0 0 0 -4.01488e-05 4.16766e-05 8.39612e-05 9.84137e-05 -0.00011735 4.7373e-05 0.000340765 0.000338393 0.00048333 0.00694698 
220 1 1 -0.043805 -0.00977094 0.054218 0 0 0 -6.43235e-07 1.32777e-05 2.69657e-05 3.08368e-05 -2.80568e-05 0.000131445 -0.000972723 -0.000561429 0.00254011 0.00694698 
133 1 1 -0.0272082 -0.00283239 0.0559953 0 0 0 -2.66888e-05 2.83062e-05 7.79215e-05 0.000142102 6.63044e-06 0.00033701 -0.00266242 -0.0053606 0.00143655 0.00694698 
24 1 1 -0.0102674 -0.00372078 0.0528006 0 0 0 -4.39334e-05 6.62642e-05 0.000121733 0.000360399 0.000203608 0.00127512 -0.00194869 -0.00190362 0.00313214 0.0111152 
240 1 1 0.0172584 -0.0074922 0.0553607 0 0 0 -5.18761e-05 5.62716e-05 0.000135975 0.000151253 -4.55172e-05 9.74005e-05 0.00730258 0.000485714 -0.00250785 0.00694698 
236 1 1 -0.0236944 0.00828094 0.0507772 0 0 0 -2.54515e-05 1.4145e-05 6.43082e-05 0.000132769 3.75539e-05 0.000300308 0.00289628 0.00120563 0.000209287 0.00694698 
15 1 1 0.0136564 0.00817879 0.056301 0 0 0 -4.89239e-05 6.26245e-05 0.000150533 0.000802591 -0.000122367 6.13794e-05 -0.00317406 -0.000516762 0.000353374 0.0111152 
291 1 1 0.0437832 0.0122417 0.0588946 0 0 0 1.31925e-06 -1.08694e-05 4.81056e-05 0.000101998 3.89475e-05 -0.000104314 0.00370428 0.00184195 0.0029375 0.00694698 
335 1 1 -0.0343159 0.0161596 0.0526642 0 0 0 -1.87593e-05 5.58455e-06 4.89108e-05 0.000147247 1.38247e-05 0.000296238 0.000870627 -0.00172516 -0.00127124 0.00694698 
266 1 1 0.0217587 0.0233198 0.0586733 0 0 0 -6.13701e-05 3.84984e-05 0.000121908 0.000301639 -7.5004e-05 -0.000154488 0.000868477 -0.000839046 0.000510683 0.00694698 
298 1 1 0.0302845 0.0135354 0.055319 0 0 0 -3.68873e-05 5.09855e-05 0.000129261 0.000174027 -2.25479e-05 -0.000167343 -0.00639952 5.98883e-05 -0.00136555 0.00694698 
262 1 1 -0.0377382 0.0287333 0.0508386 0 0 0 -2.36186e-05 7.34917e-07 5.20399e-05 8.03572e-05 -1.33274e-06 0.000224699 0.00217869 -0.00138913 0.000517869 0.00694698 
99 1 1 -0.00360837 0.0303682 0.0615074 0 0 0 -7.02667e-05 3.829e-05 0.000124052 0.00160115 0.000342183 0.000547714 0.00246742 -0.00256673 0.00210358 0.0111152 
122 1 1 -0.0274283 0.0409191 0.0558336 0 0 0 -1.30363e-05 -6.25189e-06 4.63542e-05 0.000108435 -4.99147e-06 0.000563564 -0.00202018 0.00498945 -0.000484023 0.0111152 
158 1 1 0.000206873 0.0448778 0.0561866 0 0 0 -3.55173e-05 1.14768e-05 8.13835e-05 0.000210748 3.46094e-05 -3.82857e-05 -0.0132049 -0.0100466 -0.00595621 0.00694698 
47 1 1 0.0244973 0.0400921 0.055932 0 0 0 -3.40325e-05 9.90456e-06 6.55798e-05 0.00078004 1.39699e-05 -0.000457308 -0.00252636 -0.000237684 -0.00307112 0.0111152 
203 1 1 0.0420082 0.0441912 0.0569426 0 0 0 -1.83891e-05 -3.78977e-06 2.72473e-05 0.00011539 3.73799e-05 -0.000104377 -0.0018502 -0.00345337 -0.00303708 0.00694698 
6 1 1 -0.0273257 -0.0408019 0.0684914 0 0 0 -1.95857e-06 3.03074e-05 3.86862e-05 -6.20756e-05 -0.0001043 0.000770666 0.00223092 -0.00248086 -0.000435865 0.0111152 
190 1 1 -0.00862791 -0.0442093 0.0646034 0 0 0 -6.91074e-06 3.30128e-06 3.85593e-05 -2.75459e-05 -2.49931e-05 9.9495e-05 0.00560222 0.000812229 -0.00032742 0.00694698 
189 1 1 0.0268465 -0.0442003 0.0673438 0 0 0 -1.27869e-05 1.5279e-05 2.28896e-05 -3.78329e-06 -7.30657e-05 -1.57512e-05 0.00117298 -0.000140843 0.00137526 0.00694698 
186 1 1 0.0437407 -0.0441967 0.0738313 0 0 0 9.37961e-06 3.44294e-06 -1.28763e-05 1.42985e-05 -6.1611e-05 -4.37887e-05 -0.00574169 -0.00119447 -0.00248093 0.00694698 
313 1 1 -0.0118607 -0.0316737 0.0682093 0 0 0 4.74713e-06 4.08126e-05 9.575e-05 -4.31628e-05 -6.14841e-05 0.000189555 -0.000771072 -0.00410418 -0.000915617 0.00694698 
227 1 1 0.00766383 -0.0253938 0.0722239 0 0 0 -2.31079e-05 8.73001e-05 0.000116165 3.58287e-05 -0.000136505 -3.32535e-06 -0.00237451 0.00492394 -0.00887268 0.00694698 
91 1 1 0.0235312 -0.0277777 0.0665882 0 0 0 -4.83699e-05 3.05945e-05 6.1325e-05 0.000138664 -0.000573952 -0.00012328 0.00261786 0.000503264 -0.000802271 0.0111152 
247 1 1 0.0400879 -0.0264407 0.0680861 0 0 0 -1.86958e-05 2.53591e-05 -1.48371e-05 5.04033e-05 -0.000227851 -9.08771e-05 0.00243174 0.0109216 0.00365837 0.00694698 
36 1 1 -0.0407301 -0.0173218 0.0691411 0 0 0 -7.46474e-06 3.18651e-05 4.84517e-05 5.38276e-05 -0.000289396 0.000680025 0.000823264 -0.00303519 0.000722344 0.0111152 
137 1 1 -0.00226748 -0.0232152 0.0635622 0 0 0 -3.35051e-05 8.88198e-05 0.000133033 1.06393e-05 -7.28848e-05 0.000100158 -0.00307853 -0.00109991 0.0109423 0.00694698 
276 1 1 0.020177 -0.0125507 0.0722591 0 0 0 -3.65324e-05 5.7354e-05 8.51614e-05 0.000158924 -0.000238649 -0.000129438 -0.00323628 0.0084369 -0.00236854 0.00694698 
215 1 1 0.0333366 -0.0151384 0.0705859 0 0 0 -2.6514e-05 1.69866e-05 5.38141e-05 0.000134097 -0.0002448 -0.00032356 0.00168319 0.00179053 -0.00020294 0.00694698 
217 1 1 0.0446141 -0.0151031 0.0644108 0 0 0 -1.91249e-05 2.163e-05 2.04356e-05 7.35553e-05 -0.000156471 -0.00013443 0.0042807 0.00154889 -0.00391579 0.00694698 
182 1 1 -0.0291258 -0.00430637 0.0735737 0 0 0 2.39796e-05 0.00013362 0.00016129 7.79377e-05 -0.000117792 0.000212221 -0.0210744 -0.0035612 0.00622175 0.00694698 
10 1 1 0.00493182 -0.00796353 0.0666216 0 0 0 -7.90431e-05 0.000104215 0.000153498 0.000733922 -0.000152826 0.000363825 -0.000160102 -0.000628645 -0.00374878 0.0111152 
148 1 1 0.0445355 -0.00238299 0.063436 0 0 0 -1.00041e-05 2.36359e-05 5.22368e-05 0.000126368 -0.000101262 -0.000218928 0.00382444 0.00428766 -0.000946134 0.00694698 
32 1 1 -0.0399491 0.00415226 0.0635931 0 0 0 2.15242e-06 1.81807e-05 5.20266e-05 0.000295237 -0.000243017 0.000708642 -0.000117736 0.00212545 0.000130282 0.0111152 
197 1 1 -0.0192982 0.0021356 0.0660103 0 0 0 -1.94872e-05 7.86306e-05 0.000211593 0.000268215 9.32449e-05 0.000234186 0.00294909 0.0115822 0.00260503 0.00694698 
115 1 1 -0.00374341 0.0105811 0.0687302 0 0 0 -3.4968e-05 9.76185e-05 0.000156982 0.00138802 0.000153786 0.000760816 -0.00529907 0.00338242 -0.00077804 0.0111152 
87 1 1 0.0291355 0.000600516 0.0669647 0 0 0 -2.1272e-05 3.64138e-05 0.00012765 0.0013505 -0.000573132 -0.0014786 0.00575974 0.00413265 -0.0013653 0.0111152 
338 1 1 0.0431285 0.00836676 0.0719524 0 0 0 -2.73409e-05 1.37068e-05 8.91949e-05 0.00026616 -7.97495e-05 -0.000289667 -0.00963055 -0.00328247 -0.00183159 0.00694698 