ITEM: TIMESTEP
25200
ITEM: NUMBER OF ATOMS
338
ITEM: BOX BOUNDS mm mm mm
-0.05 0.05
-0.05 0.05
0 0.15
ITEM: ATOMS id type type x y z ix iy iz vx vy vz fx fy fz omegax omegay omegaz radius 
319 1 1 -0.0155961 -0.0441712 0.00585252 0 0 0 0.0216738 -0.00246376 0.0118581 -0.243057 0.00579915 -0.00426239 1.02625 -3.57275 0.776827 0.00590216 
243 1 1 -0.00382996 -0.0436091 0.00586885 0 0 0 0.0400776 0.0473125 0.00360101 -0.00969909 -0.013131 0.0243424 -10.0753 6.40403 5.08035 0.00590216 
260 1 1 0.0228441 -0.0441883 0.00579627 0 0 0 0.12071 0.00405408 0.0196299 0.0501661 -0.0405511 0.0280707 5.35065 22.0771 -20.2538 0.00590216 
78 1 1 0.040736 -0.0410516 0.00892389 0 0 0 0.00494952 0.0094949 -0.00123345 0.116547 0.119217 -0.0463116 -0.426307 0.698018 -1.31868 0.00944345 
74 1 1 -0.0408478 -0.0365091 0.00900057 0 0 0 0.000199455 0.00361474 0.00952287 0.0186837 0.0214751 0.0157072 -0.740468 -0.740695 0.519104 0.00944345 
131 1 1 -0.0265484 -0.040031 0.00560751 0 0 0 0.0120612 0.00788963 0.0125429 0.00918668 0.0335444 0.00255894 -2.98561 2.10194 -0.343409 0.00590216 
173 1 1 -0.0154065 -0.0324333 0.00586114 0 0 0 -0.0637625 -0.00869808 0.0072572 0.0467301 -0.008109 0.0156301 -2.37872 8.36413 -1.84508 0.00590216 
60 1 1 0.00879908 -0.0352194 0.00924789 0 0 0 0.0615191 -0.0178604 0.00509616 -0.0227652 -0.242411 -0.0181089 2.14329 5.87852 19.7324 0.00944345 
296 1 1 -0.0263484 -0.0280691 0.00587862 0 0 0 -0.0589092 0.0354489 0.00379731 0.0247566 -0.00826908 0.00394694 -4.78837 -6.3889 -5.49488 0.00590216 
275 1 1 -0.00440518 -0.0284163 0.00581374 0 0 0 -0.0275895 -0.0876105 0.0110769 -0.0128535 -0.0897735 0.00891968 3.01487 -7.3706 -11.6333 0.00590216 
144 1 1 0.0395945 -0.0255444 0.00599799 0 0 0 0.0549784 0.070501 -0.0127295 0.00639123 0.0389764 -0.0479041 0.929158 11.4488 7.12653 0.00590216 
102 1 1 -0.0409068 -0.0183295 0.00888496 0 0 0 -0.000504244 0.00841312 -0.000507213 0.0252117 0.0574102 0.00312842 -0.655375 0.247567 0.25966 0.00944345 
328 1 1 -0.0264412 -0.0153908 0.00570888 0 0 0 -0.00277076 -0.00209228 -0.00210586 -0.00063075 0.0240958 -0.00533451 0.363908 -0.322301 -2.4551 0.00590216 
40 1 1 -0.0117896 -0.0156642 0.00938402 0 0 0 -0.0085394 -0.0335418 0.0135318 -0.00332233 0.00959045 -0.0847097 1.09012 -1.88605 -0.886106 0.00944345 
279 1 1 0.00386364 -0.0208859 0.00905668 0 0 0 -0.0668115 -0.0576564 0.0877692 -0.0588893 0.0309947 0.0190941 8.82986 -2.79875 -13.7082 0.00590216 
267 1 1 0.0152216 -0.0216713 0.00586754 0 0 0 -0.00390965 0.0706455 0.0135707 0.0404025 -0.0209456 -0.0440959 -13.6823 2.7959 24.9716 0.00590216 
202 1 1 0.0442259 -0.0148863 0.00582686 0 0 0 -0.0018768 0.10379 0.00170174 -0.00802394 0.0564736 -0.00684171 5.80396 -1.78666 3.28587 0.00590216 
50 1 1 0.0287343 -0.00981581 0.00909688 0 0 0 0.065355 -0.00660769 0.0121218 0.107559 0.127663 0.0155492 0.604158 7.10749 18.2015 0.00944345 
257 1 1 -0.0428986 -0.00357476 0.00583016 0 0 0 0.00341815 0.0207867 -0.00381109 0.00676098 0.00798691 0.00355058 -1.84742 0.696658 -1.54196 0.00590216 
274 1 1 -0.0220098 -0.00413931 0.00588008 0 0 0 0.0908096 0.0176258 0.00415001 2.38755e-05 -3.48351e-06 0.0062256 -2.992 15.4149 0.737165 0.00590216 
164 1 1 0.020639 0.00246917 0.00575924 0 0 0 -0.0620659 -0.0895555 0.00171279 -0.0251426 -0.014489 0.00458129 1.58728 -18.4949 -0.804016 0.00590216 
268 1 1 -0.0311281 0.00892048 0.00565156 0 0 0 0.0297181 0.0158798 0.00605344 0.0138345 -0.0113064 0.00319596 -2.24152 4.97386 -3.85536 0.00590216 
171 1 1 -0.0195011 0.00749977 0.00613999 0 0 0 0.0463519 0.0154728 0.016252 -0.00381588 -0.212558 0.074849 8.43354 -6.56708 5.12621 0.00590216 
232 1 1 -0.0386148 0.0178733 0.00548816 0 0 0 0.00875386 0.014652 0.0121654 0.00657339 0.00145753 -0.00469882 -2.44175 1.04131 5.82235 0.00590216 
297 1 1 -0.0243897 0.0182295 0.0058682 0 0 0 0.209648 -0.0858552 0.0175585 0.00878082 0.135507 -0.0641157 -9.95352 -28.1524 -31.3883 0.00590216 
222 1 1 -0.0106408 0.0157223 0.00558376 0 0 0 0.0428964 -0.0275115 0.0341484 -0.0630964 0.0117591 0.0191356 3.92734 8.79807 4.16814 0.00590216 
290 1 1 -0.000433803 0.0207269 0.00555767 0 0 0 0.0245079 0.0366951 0.00205438 0.0146083 -0.00547932 -0.0108356 -5.90444 1.83103 4.85351 0.00590216 
98 1 1 0.0129729 0.0149582 0.0091101 0 0 0 0.018832 -0.0320113 -0.00585442 -0.0587765 -0.0285517 0.127897 3.94566 1.39215 -12.5757 0.00944345 
316 1 1 0.0296946 0.0187145 0.00548939 0 0 0 0.169215 0.0498373 -0.0196766 0.0205514 0.000300267 -0.011218 -7.40486 23.7563 12.1564 0.00590216 
162 1 1 0.0442221 0.0175955 0.00605843 0 0 0 -0.0180435 0.0230654 -0.0653979 0.0182603 -0.0464226 0.0109627 -45.0975 -7.24661 2.15681 0.00590216 
294 1 1 -0.044133 0.0282273 0.00580755 0 0 0 -0.000886958 0.0111989 -0.000392614 0.00927907 -0.0358495 0.00407139 -1.42129 -0.316207 -4.29253 0.00590216 
255 1 1 -0.0163477 0.0264415 0.00576157 0 0 0 0.182038 -0.0322048 -0.00138418 0.037583 -0.0110187 0.00421507 5.99118 30.7792 40.7158 0.00590216 
77 1 1 0.0223524 0.0309576 0.009165 0 0 0 0.0650801 -0.032795 0.0331426 0.0609057 -0.0373511 0.0287554 3.33263 6.5365 8.94084 0.00944345 
155 1 1 0.0369026 0.0278488 0.00583305 0 0 0 0.0490789 0.263653 0.0103689 0.0165411 0.0775782 0.00115032 -6.89235 -39.8453 31.3994 0.00590216 
175 1 1 -0.0326264 0.0322629 0.00588232 0 0 0 0.0357727 -0.0158609 0.0040816 1.83765e-05 -8.81266e-06 0.00152927 2.69207 6.07165 -1.75707 0.00590216 
324 1 1 -0.00381526 0.0318855 0.00583961 0 0 0 0.0219396 0.0134864 -0.0174168 0.0522159 -0.00404169 -0.00269981 -1.98995 5.73373 1.23058 0.00590216 
161 1 1 0.00767901 0.0320161 0.00576446 0 0 0 0.0532811 -0.0537619 0.0213401 0.0387138 0.0244391 -0.00394776 -1.13662 -13.3022 -11.3075 0.00590216 
321 1 1 -0.0441459 0.0441098 0.0058534 0 0 0 0.0172914 -0.00968704 0.0141383 -0.0376874 -0.00349955 -0.00147943 2.53444 -2.53357 -1.17126 0.00590216 
207 1 1 -0.0322728 0.0441005 0.00588072 0 0 0 0.0268812 -0.00190064 0.00426092 0.00034708 0.000754958 0.00457522 0.369916 4.52542 3.5386 0.00590216 
38 1 1 -0.0152091 0.0410382 0.0093506 0 0 0 0.00482461 0.00273124 0.00722219 0.110524 0.029079 0.0176267 -1.46264 2.03821 0.514848 0.00944345 
149 1 1 0.0098676 0.0441132 0.00581445 0 0 0 0.00727184 -0.00359949 0.00598574 -0.0228194 -0.0182633 0.00452631 0.320754 1.96987 -8.14276 0.00590216 
249 1 1 0.0287687 0.0443564 0.00614904 0 0 0 0.0165221 0.0162134 0.0356393 0.0415952 -0.0499002 -0.0422335 -9.59727 -30.5016 3.43895 0.00590216 
289 1 1 0.0435426 0.0412542 0.00588246 0 0 0 -0.0262952 0.087301 0.00381196 -1.29783e-05 4.30883e-05 0.00161271 -14.8171 -4.46294 -15.2725 0.00590216 
299 1 1 -0.0251528 -0.0446475 0.0159973 0 0 0 0.0127495 -0.00601508 0.0338877 0.0130437 -0.00931669 0.0295273 6.25044 -0.647473 -2.4286 0.00590216 
225 1 1 -0.0105296 -0.0436737 0.0165169 0 0 0 -0.0690567 0.0335372 0.102304 0 0 -0.0211218 -1.98633 -23.9631 3.68606 0.00590216 
130 1 1 0.0185813 -0.0441412 0.0167006 0 0 0 0.117397 0.0180469 0.0442757 -0.0720833 -0.00569354 -0.0124492 3.30952 -22.7426 -11.2647 0.00590216 
67 1 1 0.0264229 -0.0301853 0.011913 0 0 0 0.047159 0.0846195 0.00627575 0.319951 0.169333 0.148529 3.90879 -3.53777 -8.41908 0.00944345 
146 1 1 -0.044494 -0.00766114 0.0185638 0 0 0 -0.00105881 0.0168306 -0.00333098 -0.00697676 0.00355079 0.01948 -0.520228 1.03994 2.12221 0.00590216 
96 1 1 0.0102663 -0.0073602 0.0114715 0 0 0 0.0258155 -0.103155 0.0422679 0.100435 0.21613 0.0897853 -13.0209 -2.97858 -2.8042 0.00944345 
183 1 1 0.0419118 -0.0115031 0.0168656 0 0 0 0.0494583 0.0732825 0.0147687 -0.0186112 0.0138986 0.0152449 -2.21698 13.2807 5.47446 0.00590216 
17 1 1 -0.00588044 0.00218776 0.0105545 0 0 0 0.0453786 -0.0528839 0.00283814 -0.0362213 -0.108395 0.10128 0.460953 5.1526 -5.41017 0.00944345 
25 1 1 -0.0406685 0.00650345 0.0169857 0 0 0 0.0109029 0.0266206 0.0179217 -0.0416405 -0.142561 0.0516568 2.28465 -2.5039 -2.10784 0.00944345 
94 1 1 0.0354261 0.00695441 0.0123997 0 0 0 0.033662 0.024885 0.0714157 0.499482 0.279451 -0.16122 -2.24425 -28.4647 -17.5619 0.00944345 
300 1 1 -0.0441553 0.0212485 0.0151835 0 0 0 0.00627983 0.0277766 0.0197961 -0.00986545 -0.0357497 -0.0199789 -3.20551 2.62804 3.58318 0.00590216 
273 1 1 -0.0325002 0.0200829 0.0147639 0 0 0 0.0188917 0.021349 0.0222883 0.0120679 0.00642812 -0.0328535 5.28097 1.99354 0.203771 0.00590216 
286 1 1 -0.000691456 0.0155638 0.0160459 0 0 0 0.00339803 0.0255069 -0.0378976 0.0104285 -0.0381428 0.0035062 8.81076 -11.296 16.136 0.00590216 
320 1 1 0.00459249 0.0260403 0.0152803 0 0 0 0.0957859 -0.00170213 0.109113 0.0324259 0.07923 -0.0878533 -12.4488 23.1159 10.0366 0.00590216 
284 1 1 0.0442608 0.0264355 0.0146938 0 0 0 -0.0259102 0.182763 0.101391 -0.0170808 0.0509304 0.0100434 31.6625 18.3422 -30.6705 0.00590216 
305 1 1 -0.0408916 0.036314 0.0140303 0 0 0 0.0141325 -0.0235939 0.037709 0.00587581 -0.0137083 -0.00959202 1.05663 -10.3864 9.74065 0.00590216 
237 1 1 -0.000445277 0.0441042 0.0112126 0 0 0 0.000403809 0.0267114 0.00514141 0.0312711 -0.00244262 0.030225 -2.04554 -3.48519 2.72755 0.00590216 
239 1 1 0.0191224 0.044795 0.0128841 0 0 0 -0.00397344 -0.0253561 0.034507 0.051933 0.0119095 0.0166603 -6.23679 -7.69118 -0.658443 0.00590216 
331 1 1 -0.0430207 -0.0449566 0.020497 0 0 0 0.00530248 -0.000975876 0.018093 -0.0123273 0.0489688 0.0115166 2.9478 3.0429 -1.09956 0.00590216 
242 1 1 0.00101313 -0.0438734 0.0193531 0 0 0 -0.125082 0.0276783 -0.147946 0 0 -0.0211218 -8.74769 -40.0368 21.2766 0.00590216 
167 1 1 0.0299592 -0.0441857 0.0193315 0 0 0 0.140888 -0.000107777 0.0574737 -0.059192 -0.0895814 0.0681978 12.6412 23.4724 10.9566 0.00590216 
136 1 1 0.0442878 -0.0446201 0.0230418 0 0 0 -0.00641636 0.00785873 -0.00386935 0.0039629 -0.0300259 -0.0193399 -0.967651 -3.78905 0.84937 0.00590216 
180 1 1 -0.0442979 -0.0343914 0.0245944 0 0 0 0.00693299 0.00714033 0.0274036 -0.0118919 -0.0802878 0.00568873 -2.56703 -4.41168 0.433182 0.00590216 
256 1 1 -0.0328662 -0.0401875 0.0236035 0 0 0 0.000944651 -0.00318837 0.0361365 0.00810954 -0.00111124 0.0333086 -1.90203 -5.5483 0.427401 0.00590216 
128 1 1 -0.0447679 -0.023028 0.0226006 0 0 0 0.000545463 0.0125064 0.0075194 0.0653633 0.0305349 -0.0147393 -0.480315 -1.35713 2.42011 0.00590216 
179 1 1 -0.0352379 -0.0275117 0.0193627 0 0 0 0.00689006 0.00833156 0.00591638 -0.0677441 0.033723 0.034391 -1.00846 1.78086 -2.79098 0.00590216 
7 1 1 -0.0212415 -0.0310563 0.0200929 0 0 0 0.0119338 -0.00163804 0.0223752 0.0852999 -0.246904 0.0354308 -7.20243 -0.8849 0.82042 0.00944345 
104 1 1 -0.0034122 -0.0283276 0.0213582 0 0 0 0.0389057 -0.0239943 -0.00264602 0.133788 0.0879511 -0.101624 -15.0226 -0.166778 -3.59884 0.00944345 
51 1 1 0.0141545 -0.0256529 0.0248022 0 0 0 0.0523415 0.0248243 0.0599921 -0.353917 0.14457 -0.0582666 12.3755 -6.41207 7.61867 0.00944345 
120 1 1 0.0411125 -0.0303695 0.0250573 0 0 0 -0.00676535 0.00109613 0.110253 -0.19856 0.326768 -0.165101 12.3274 11.601 0.205247 0.00944345 
19 1 1 -0.0288329 -0.0146169 0.0232296 0 0 0 0.013753 0.0260303 -0.0208263 0.143165 0.0160632 -0.0486703 -0.920375 4.70351 -1.8147 0.00944345 
178 1 1 -0.0146205 -0.01924 0.0266836 0 0 0 0.0581092 -0.00101424 -0.0314532 0.0559389 0.0425915 -0.0412104 -2.77343 -3.251 -14.8538 0.00590216 
258 1 1 -0.00436481 -0.0140122 0.0262595 0 0 0 0.0789255 -0.0265057 0.113224 -0.0311862 -0.107873 -0.0495913 6.20441 -24.023 10.5004 0.00590216 
278 1 1 0.0332872 -0.0193292 0.019366 0 0 0 0.0500094 0.0570597 0.100012 0.0226548 0.0288591 -0.00868444 -11.6792 -33.5548 -9.86366 0.00590216 
310 1 1 -0.0124543 -0.00709099 0.021837 0 0 0 0.0360118 -0.0665633 0.0513866 0.109606 0.068046 0.0515696 6.75395 5.51226 -11.916 0.00590216 
184 1 1 0.0308384 -0.0114882 0.0271719 0 0 0 -0.087308 0.0603881 0.0794575 0.000276216 0.022441 -0.0146126 16.7246 -7.89972 1.35157 0.00590216 
112 1 1 -0.0233241 0.00260464 0.0254721 0 0 0 0.0721506 0.00953973 0.0790298 0.0579671 -0.165029 0.106872 9.70772 -12.7915 -5.40793 0.00944345 
160 1 1 -0.0026111 -0.00208068 0.0248465 0 0 0 -0.0168821 0.0266539 0.0777383 0.0197449 0.000904543 0.0572947 -20.0564 -18.6731 25.4585 0.00590216 
100 1 1 0.00859093 0.00787877 0.0253639 0 0 0 -0.0559963 0.079674 0.0262767 -0.0985715 0.0654349 0.118351 -12.5608 -2.06173 -9.04606 0.00944345 
261 1 1 0.0443513 0.0133386 0.0225217 0 0 0 0.000880271 0.0190364 0.115047 0.0125865 -0.00227799 -0.0271031 -20.4967 18.3487 -2.27402 0.00590216 
28 1 1 -0.0165843 0.0181865 0.0189313 0 0 0 0.105253 0.0163107 0.0860704 0.0649457 -0.0311609 0.0721333 -11.7791 3.81441 6.51096 0.00944345 
246 1 1 -0.044218 0.0270689 0.0252423 0 0 0 0.00962122 0.0130375 0.040285 0.115015 -0.0177265 -0.0225242 6.58284 2.41707 1.12326 0.00590216 
69 1 1 -0.00520357 0.0311699 0.0257412 0 0 0 0.129585 -0.0312083 0.188132 0.132007 -0.0532046 -0.0658134 19.3817 -9.89527 -12.2189 0.00944345 
108 1 1 0.0251433 0.0263551 0.0272479 0 0 0 0.134692 0.0835178 0.125511 -0.263789 -0.23141 -0.251994 0.597088 29.0701 -28.3312 0.00944345 
23 1 1 -0.0274073 0.033068 0.0205033 0 0 0 0.0438378 0.00490978 0.0521449 -0.0266993 -0.0714111 -0.000363474 2.32583 4.88353 -0.43235 0.00944345 
16 1 1 0.0115938 0.038684 0.0241189 0 0 0 0.0947531 0.074482 0.177531 0.0577808 -0.13286 0.188782 -29.4685 5.99913 25.2343 0.00944345 
61 1 1 0.0348929 0.0402051 0.0192916 0 0 0 -0.000911397 0.106948 0.0262322 0.00331327 -0.752801 0.23437 8.85186 7.37514 25.456 0.00944345 
323 1 1 -0.012113 0.0444268 0.0252272 0 0 0 0.12694 -0.0130698 0.103288 0.0100882 0.000688858 0.018429 -18.174 -40.4573 21.5514 0.00590216 
224 1 1 -0.0423891 -0.0442535 0.0322122 0 0 0 -0.0119123 0.00449007 0.041541 0.036448 -0.0655524 0.0165691 8.37697 -3.32133 1.98764 0.00590216 
42 1 1 -0.0113208 -0.040918 0.0322277 0 0 0 0.00397514 0.0135693 0.0537124 0.0308878 0.130312 0.173662 5.77386 -0.52423 -1.36078 0.00944345 
168 1 1 0.00285243 -0.0442807 0.0346892 0 0 0 0.00264769 0.0145018 0.0473384 -0.11887 -0.0222342 0.00754562 7.74968 -1.9647 8.20302 0.00590216 
125 1 1 0.0438474 -0.0432703 0.0347172 0 0 0 -0.0298915 0.0579624 -0.0138027 -0.00897236 0.0110894 0.0449062 -6.08799 0.791091 -4.11749 0.00590216 
211 1 1 -0.0435649 -0.0333653 0.0360777 0 0 0 0.00780301 0.0117006 0.041385 0.0355552 0.0826179 -0.0126389 -9.60037 8.18242 -4.07679 0.00590216 
191 1 1 0.00429233 -0.0326716 0.0339353 0 0 0 -0.0350237 0.0122792 -0.0133353 0.0908877 0.16171 -0.113867 -22.5634 -14.7456 -4.98924 0.00590216 
3 1 1 0.017276 -0.0408232 0.035087 0 0 0 -0.00583157 0.0109189 0.0839395 0.113991 -0.185087 -0.0274245 -11.0505 -4.67539 -6.08203 0.00944345 
271 1 1 0.0313091 -0.040195 0.0302469 0 0 0 0.0335145 -0.0605754 0.130658 0.0252018 0.0328691 -0.0039794 -9.06572 -2.91783 6.03829 0.00590216 
66 1 1 -0.0411069 -0.0185301 0.03661 0 0 0 0.0153365 0.0179424 0.0121385 -0.0405123 -0.0218905 0.057623 2.05466 -1.81788 2.20301 0.00944345 
134 1 1 0.0441807 -0.0159847 0.0284122 0 0 0 -0.0118034 0.0264866 0.124279 -0.103483 -0.0020315 -0.0481956 -10.6245 17.6434 10.616 0.00590216 
336 1 1 -0.0243014 -0.00800288 0.0364611 0 0 0 -0.00579566 -0.0529455 0.00381858 -0.0549122 -0.0187559 0.0585628 -1.01105 17.1418 -12.3419 0.00590216 
245 1 1 0.00302849 -0.010763 0.0344684 0 0 0 -0.0427057 -0.108553 0.249399 0.00298382 -0.0283931 0.0566914 40.4319 7.09332 20.3455 0.00590216 
18 1 1 0.0168093 -0.00802215 0.0291718 0 0 0 -0.10657 0.0557113 0.145446 0.433934 -0.0519006 0.131996 -5.2946 10.3498 -0.881513 0.00944345 
107 1 1 -0.0392273 -0.000571017 0.0342661 0 0 0 0.0125266 0.0247685 0.0162109 0.0467093 -0.167569 0.104651 -1.14378 5.52468 -1.95499 0.00944345 
55 1 1 0.0412095 -0.00116538 0.0282892 0 0 0 -0.0347197 0.0417558 0.10475 -0.478269 -0.0201301 0.0121104 -0.299546 11.4188 -4.3294 0.00944345 
208 1 1 -0.0446696 0.0128366 0.0372045 0 0 0 0.00315668 0.0292173 0.0222493 0.0803922 0.0121454 0.0835274 0.298859 -4.68245 4.86083 0.00590216 
4 1 1 -0.00759664 0.0100057 0.0332258 0 0 0 -0.0089285 -0.00966432 0.219533 -0.0656858 0.00157308 0.258216 24.8789 24.6799 15.2219 0.00944345 
95 1 1 0.0257667 0.00830044 0.0313874 0 0 0 -0.0594897 0.0604824 0.122119 -0.114971 0.175589 -0.171091 -0.24011 -9.47199 2.61341 0.00944345 
2 1 1 -0.0331613 0.0177406 0.0294642 0 0 0 0.0267317 0.0175994 0.0369757 0.32087 0.0532097 0.198721 -2.61902 -0.396981 -2.87368 0.00944345 
282 1 1 -0.0194116 0.0181625 0.0346075 0 0 0 -0.0261446 -0.0113131 0.225074 -0.00342121 -0.00167352 0.0317917 -50.4819 -35.1399 -22.3944 0.00590216 
58 1 1 0.0409332 0.0172242 0.036733 0 0 0 -0.0251324 0.0372508 0.117594 -0.32525 0.16031 -0.0951422 3.50546 11.3828 -5.24204 0.00944345 
199 1 1 -0.0445703 0.0242988 0.0367485 0 0 0 0.00950412 0.0388152 -0.0047957 -0.104363 0.0278632 -0.0482065 -12.0499 0.666664 6.60061 0.00590216 
192 1 1 -0.0240309 0.0281277 0.0346842 0 0 0 0.00739468 0.0164023 0.0771452 0.0080898 0.0204959 -0.0433817 29.799 16.8898 16.9433 0.00590216 
73 1 1 0.00860015 0.0234038 0.0357229 0 0 0 0.147844 -0.0181931 0.181643 0.209579 0.271239 0.490148 26.9731 3.51869 17.3639 0.00944345 
114 1 1 0.0408164 0.0407952 0.0368254 0 0 0 -0.0121889 -0.00592422 0.036026 0.413879 0.449287 -0.146224 3.22653 0.218108 -0.252398 0.00944345 
9 1 1 -0.0410385 0.0410188 0.0299433 0 0 0 0.0216534 0.0122462 0.0531464 -0.133959 -0.0141596 -0.0689414 -6.37404 -4.85057 2.54511 0.00944345 
126 1 1 -0.010669 0.0436735 0.0372136 0 0 0 -0.0562389 -0.000603923 0.0987885 0 0 -0.0211218 20.4226 20.2425 -16.6088 0.00590216 
248 1 1 0.00042772 0.0440604 0.0331454 0 0 0 -0.057681 -0.0110661 0.0405061 0.0235758 0.0529859 -0.00230644 -3.78544 -14.1754 8.77541 0.00590216 
329 1 1 -0.0230084 -0.0446467 0.0406182 0 0 0 0.00261564 -0.00536659 0.0436508 -0.019286 -0.0255853 0.01931 6.91993 3.2815 -1.7745 0.00590216 
283 1 1 0.0304119 -0.0443924 0.0413784 0 0 0 -0.00338251 -0.000456429 0.0537101 -0.120676 0.107497 0.0982374 8.68626 15.7669 2.15032 0.00590216 
93 1 1 -0.0280228 -0.0312087 0.0376657 0 0 0 0.0235289 0.011084 0.0349345 -0.0748772 0.153931 0.0931649 -7.47015 4.33788 -3.41732 0.00944345 
43 1 1 -0.0066459 -0.0246058 0.0407438 0 0 0 -0.0473795 -0.0200499 0.0609676 -0.366457 -0.220387 0.286459 29.7788 17.0651 19.6814 0.00944345 
105 1 1 0.0308575 -0.0292435 0.0407437 0 0 0 -0.0285786 0.0135112 0.0827497 0.319529 -0.193362 0.26224 -1.23692 -5.2403 3.31407 0.00944345 
52 1 1 0.011636 -0.0207911 0.0427693 0 0 0 -0.0573023 0.0563141 0.0648468 -0.0239782 -0.207973 -0.140662 -8.22028 -14.5433 -10.25 0.00944345 
259 1 1 0.0262691 -0.0149436 0.0385239 0 0 0 -0.0289742 0.0308383 0.069473 -0.030407 0.18813 0.136341 0.770883 9.06993 -9.97491 0.00590216 
24 1 1 -0.00969376 -0.00633015 0.0413757 0 0 0 -0.041228 -0.0188656 0.209364 0.0715684 -0.0331178 -0.150855 -21.1163 -10.1447 -26.0693 0.00944345 
240 1 1 0.0185534 -0.00564494 0.0454597 0 0 0 -0.0740384 -0.0616392 0.12748 -0.169857 0.0301365 0.101323 -19.263 9.26143 5.79558 0.00590216 
5 1 1 0.0407112 -0.0126659 0.0429841 0 0 0 -0.0123932 0.0303634 0.0948237 0.261997 -0.0503301 -0.161985 3.01312 6.37359 -6.69229 0.00944345 
133 1 1 -0.028778 -0.00197692 0.045578 0 0 0 0.123029 0.0922846 -0.03123 0 0 -0.0211218 -15.1776 7.41398 7.63842 0.00590216 
303 1 1 0.0287341 -0.00374466 0.0399748 0 0 0 -0.0597375 0.035906 0.127539 0.0202869 0.0278649 -0.0354705 9.59504 -13.5287 16.3985 0.00590216 
318 1 1 0.0441305 0.00341786 0.042589 0 0 0 -0.0210307 0.0045718 0.144374 -0.0105953 0.027634 -0.0195819 9.01394 -17.8357 5.23836 0.00590216 
236 1 1 -0.0212825 0.0077385 0.0397387 0 0 0 -0.0519059 -0.045755 0.138327 -0.000793857 -0.0528831 0.0892879 -3.83001 -3.31091 0.928559 0.00590216 
298 1 1 0.0313908 0.00874469 0.0456221 0 0 0 -0.0638724 0.098094 0.142822 -0.269198 0.0152107 -0.025114 2.53573 -0.320184 10.7936 0.00590216 
335 1 1 -0.0331274 0.0197631 0.0445826 0 0 0 0.0436754 -0.0117728 0.0495483 -0.119703 -0.00407835 -0.109802 8.41025 0.0788921 12.5719 0.00590216 
262 1 1 -0.034772 0.0297122 0.0386218 0 0 0 0.0105694 -0.00210416 0.146549 0.0696018 0.109719 0.0732284 26.0181 -24.3454 -9.77665 0.00590216 
292 1 1 -0.0140114 0.0319569 0.0378222 0 0 0 0.0270611 -0.0463354 0.138063 -0.184256 -0.123765 -0.0949333 6.27486 -16.2299 -22.2291 0.00590216 
47 1 1 0.0246221 0.0345701 0.0441254 0 0 0 0.0149375 0.0410003 0.165102 -0.275971 -0.107633 -0.247561 -4.7374 -5.98853 2.00702 0.00944345 
327 1 1 -0.0436616 0.044126 0.0446985 0 0 0 -0.0333754 -0.0165598 0.0764699 -0.000899148 0.0191622 -0.0106076 11.932 -0.24846 -0.922712 0.00590216 
122 1 1 -0.0255293 0.0412997 0.040563 0 0 0 0.017465 -0.0107611 0.146182 0.0875909 0.212592 -0.0566068 -15.1384 20.3251 2.93564 0.00944345 
229 1 1 0.0141788 0.0440672 0.0382168 0 0 0 0.0287041 0.0316471 0.19626 0.00393858 0.361839 -0.0293661 42.1431 -13.5434 -5.00416 0.00590216 
314 1 1 -0.0151524 -0.0444243 0.0496676 0 0 0 -0.107545 0.0126515 0.173617 0.00831779 -0.0300391 -0.0313201 30.1923 26.81 19.2269 0.00590216 
265 1 1 0.023012 -0.0436316 0.0504324 0 0 0 0.0206848 0.0745811 0.0730063 0.028649 0.029129 0.116599 -12.423 -9.29924 -17.4153 0.00590216 
84 1 1 -0.0407738 -0.0338449 0.0509974 0 0 0 0.0105866 0.0256924 0.0463544 0.283641 0.14237 -0.202423 5.62255 -4.80874 3.12682 0.00944345 
307 1 1 -0.0167236 -0.0333934 0.0474089 0 0 0 -0.0346457 0.015409 0.107081 -0.00772974 -0.0286763 0.0146276 -45.8263 -13.2914 -38.5966 0.00590216 
337 1 1 -0.00568551 -0.0375896 0.0486841 0 0 0 -0.0403917 -0.0596846 0.0467171 0.0412948 -0.0140434 -0.0369386 -44.2263 -9.35279 -35.0912 0.00590216 
56 1 1 0.00922899 -0.0371646 0.0517332 0 0 0 -0.0175405 0.0138067 0.0811549 -0.100856 0.382326 -0.0238923 -5.77402 2.52206 22.8433 0.00944345 
49 1 1 0.0406752 -0.0407181 0.051867 0 0 0 0.00209958 -0.000730083 0.051739 0.143992 -0.0211187 0.0374488 5.60199 4.81026 -0.168838 0.00944345 
137 1 1 -0.00271967 -0.028407 0.055514 0 0 0 -0.0308413 -0.0643757 0.127372 0.0528481 -0.100946 -0.00495505 34.1126 -11.1028 -26.9976 0.00590216 
326 1 1 0.0441801 -0.0263611 0.0485082 0 0 0 -0.0144623 0.00760789 0.0577051 -0.00521863 -0.00332542 0.0255114 -3.15535 9.65809 -0.0185537 0.00590216 
81 1 1 -0.022818 -0.0172395 0.0488869 0 0 0 -0.111141 -0.00329566 0.147885 -0.0916757 -0.0293789 0.111658 19.958 -0.909395 22.6989 0.00944345 
332 1 1 0.0252056 -0.0181673 0.0493842 0 0 0 -0.0278536 0.0271805 0.0737319 0.101628 0.053744 -0.108777 1.31625 -0.0938383 -8.54418 0.00590216 
220 1 1 -0.0440525 -0.00678709 0.0474401 0 0 0 0.0157656 -0.0153472 -0.0143497 0.00019842 0.0122563 -0.00983102 4.05309 -6.46643 -0.0602316 0.00590216 
10 1 1 0.00511254 -0.00604003 0.052577 0 0 0 -0.0469366 -0.0178827 0.239726 0.0510892 0.0159416 -0.026731 -8.84518 6.05414 2.29671 0.00944345 
197 1 1 -0.019583 -0.00295922 0.0532937 0 0 0 0.109778 -0.022782 0.0869126 -0.0433673 -0.00940202 0.0153073 -14.4745 -56.5638 -65.4895 0.00590216 
87 1 1 0.0294718 -0.00263776 0.055672 0 0 0 -0.0439783 0.0319382 0.0918501 0.28224 0.0560626 -0.330778 6.19768 17.2014 1.46907 0.00944345 
32 1 1 -0.0401742 0.00795554 0.0510476 0 0 0 0.0476948 0.0150483 0.0405141 -0.0519068 -0.330728 0.0401045 -5.31472 -2.30417 -7.48208 0.00944345 
115 1 1 -0.00200802 0.0112669 0.05216 0 0 0 -0.139347 -0.0456648 0.141186 -0.112291 -0.0988816 -0.214273 1.91236 -16.5805 8.33677 0.00944345 
15 1 1 0.0161912 0.00998193 0.0473205 0 0 0 -0.1021 -0.194239 0.159135 -0.00452299 -0.0818192 0.0570516 30.7402 7.21126 2.83537 0.00944345 
291 1 1 0.0442338 0.0127336 0.0508344 0 0 0 0.0541633 -0.012771 0.0750855 -0.13396 0.043937 0.00855898 -0.430339 10.3337 -2.2818 0.00590216 
117 1 1 -0.0186707 0.0216908 0.0492149 0 0 0 0.000783953 0.0143078 0.230841 0.00376947 0.088498 0.0724858 27.5491 15.6717 -25.4686 0.00944345 
140 1 1 0.00822527 0.022318 0.0508999 0 0 0 0.0102751 -0.129939 0.207803 0.0247657 0.111533 0.135653 -32.6756 -25.7205 -35.1919 0.00590216 
39 1 1 -0.0405465 0.0304184 0.052549 0 0 0 0.0464852 -0.0959729 0.151342 0.141161 0.138609 0.127573 -3.30964 16.2103 1.27143 0.00944345 
106 1 1 0.0405961 0.0275908 0.0523931 0 0 0 -0.027022 0.00724811 0.164647 0.232258 0.176984 -0.0877913 -0.396134 3.87858 12.4848 0.00944345 
99 1 1 -0.00301524 0.0318545 0.0478648 0 0 0 0.0608532 -0.0719747 0.121128 0.0841321 -0.0314548 -0.193275 -3.78525 13.8754 11.8067 0.00944345 
174 1 1 -0.0342293 0.0442504 0.0526121 0 0 0 -0.0395488 -0.023652 0.17821 0.0430213 0.0247158 -0.0782919 10.4727 -32.3374 19.3654 0.00590216 
315 1 1 -0.00851988 0.0440979 0.0553149 0 0 0 -0.0759463 -0.0428107 0.0704128 0.0467757 -0.00245209 -0.00975931 -17.6691 29.2612 17.7347 0.00590216 
158 1 1 0.00308716 0.0444231 0.0532854 0 0 0 -0.0376796 0.00274219 0.0722526 0.00203213 0.00657248 0.013561 -12.825 -40.1038 -5.9773 0.00590216 
203 1 1 0.0435461 0.0434885 0.0515502 0 0 0 -0.0678062 -0.0739867 0.0840283 0.0115048 0.00618031 -0.00220233 8.8651 -8.50274 9.79387 0.00590216 
190 1 1 -0.00192507 -0.0441375 0.0595478 0 0 0 -0.0501437 0.00350688 0.0477862 0.0628263 -0.125127 -0.0515715 3.80092 -24.8916 -2.62022 0.00590216 
189 1 1 0.028555 -0.0443906 0.0607098 0 0 0 0.00662738 0.0118434 0.080387 -0.000507323 -0.000169205 -0.0192354 13.7983 6.96182 -1.50395 0.00590216 
6 1 1 -0.0256541 -0.0406524 0.0597854 0 0 0 -0.0798642 -0.00155718 0.203867 0.280086 0.00554598 0.212664 -14.3186 -12.8236 -11.6225 0.00944345 
313 1 1 -0.0142807 -0.0270978 0.0569268 0 0 0 0.00749668 0.0223879 0.104215 0.125921 0.134902 0.114324 40.0758 1.65953 1.52446 0.00590216 
227 1 1 0.0114978 -0.0274236 0.0637661 0 0 0 0.0157105 0.0166603 0.163756 -0.0308231 0.0371349 -0.0328967 -6.75316 0.301938 6.73905 0.00590216 
91 1 1 0.0257575 -0.0297491 0.0589769 0 0 0 -0.00513411 0.0329064 0.119039 -0.0554067 0.05921 -0.187977 -5.68508 6.89611 0.80808 0.00944345 
247 1 1 0.040789 -0.0271557 0.059673 0 0 0 0.00412021 0.021881 0.0713317 0.0400769 0.0347212 -0.0300521 1.01871 -4.83318 -3.51998 0.00590216 
36 1 1 -0.0407046 -0.0167567 0.0589029 0 0 0 0.0439388 0.0469692 0.0510453 -0.362948 0.0478716 0.0101802 3.66583 -4.99736 5.12413 0.00944345 
26 1 1 -0.0064764 -0.015867 0.0635876 0 0 0 -0.011248 -0.0422865 0.297299 -0.0901851 0.215814 0.0930089 0.200865 -4.80635 6.5387 0.00944345 
209 1 1 0.00876282 -0.0162844 0.0630359 0 0 0 0.0202043 0.0113438 0.212825 0.00492276 -0.0365805 0.0789503 10.0435 13.51 -9.22567 0.00590216 
215 1 1 0.0332179 -0.0170077 0.0576368 0 0 0 -0.00862228 0.0337476 0.0486593 -0.0781277 0.00699165 0.061465 -6.77376 -11.5175 2.06208 0.00590216 
217 1 1 0.0444598 -0.0161074 0.0583496 0 0 0 -0.00111443 0.0232674 0.0647786 -0.0756923 0.00131975 0.00661951 36.833 11.3017 -3.46798 0.00590216 
182 1 1 -0.0302198 -0.00560297 0.057703 0 0 0 -0.0163264 0.178308 0.0198716 0 0 -0.0211218 13.2094 41.1466 22.1429 0.00590216 
276 1 1 0.0181022 -0.0126086 0.0567682 0 0 0 -0.00188208 -0.0043427 0.151293 -0.00310984 0.0150619 0.0045345 14.9914 7.497 2.8411 0.00590216 
148 1 1 0.044343 -0.00456462 0.0575804 0 0 0 -0.012444 0.0334564 -0.0154943 0.0864598 0.0143985 -0.0514423 -50.9938 -2.78806 -6.51968 0.00590216 
306 1 1 -0.0438123 -0.00116975 0.063107 0 0 0 0.0499298 0.0801565 0.0141728 0 0 -0.0211218 18.454 -13.3754 13.7689 0.00590216 
57 1 1 -0.0173353 0.00883344 0.0627651 0 0 0 -0.125244 -0.0469038 0.189802 -0.030607 -0.250829 0.0627172 -25.0108 -13.2444 2.01894 0.00944345 
45 1 1 0.0297155 0.0134318 0.0648343 0 0 0 -0.0512491 -0.00308795 0.158565 -0.072869 0.186118 0.216296 2.40277 -14.8941 0.358106 0.00944345 
338 1 1 0.0440931 0.00896252 0.0618621 0 0 0 -0.0141042 -0.0421785 0.103242 -0.0435146 -0.00979411 -0.0424351 3.59954 -17.3677 -23.3007 0.00590216 
250 1 1 -0.0294854 0.0221902 0.0597734 0 0 0 -0.0167593 -0.148844 0.252966 0.00159643 -0.0818188 0.0377828 32.4501 -26.9794 7.15384 0.00590216 
263 1 1 0.00751495 0.0181235 0.0629942 0 0 0 -0.139079 -0.0314808 0.00991496 0.0236838 0.00737788 -0.0197826 -21.3895 -39.1646 24.6499 0.00590216 
266 1 1 0.0181408 0.020377 0.0583922 0 0 0 -0.0637925 -0.035816 0.0762547 0.0420555 0.00457509 -0.0252434 -33.5986 27.6476 -8.17821 0.00590216 
322 1 1 0.0441 0.0202903 0.0654127 0 0 0 -0.00195216 -0.0218184 0.160611 -0.00131657 0.00361004 -0.0238756 2.57953 -13.3825 -6.14659 0.00590216 
35 1 1 -0.0220338 0.0383131 0.0596616 0 0 0 -0.0534482 -0.162181 0.144615 0.0180827 0.000389296 0.0594361 31.6533 -2.051 -6.31088 0.00944345 
113 1 1 0.0127413 0.0343201 0.0587104 0 0 0 -0.0892916 -0.0211808 0.139879 -0.0680052 -0.244325 0.0100916 21.6422 -0.216038 7.78347 0.00944345 
76 1 1 0.0300528 0.0405775 0.0611569 0 0 0 -0.0739942 0.00185621 0.214164 0.0211463 0.269206 -0.160367 -0.526257 0.103227 -3.78441 0.00944345 
308 1 1 0.00402027 0.0443652 0.0656952 0 0 0 -0.110186 -0.00957943 0.131875 -0.0461261 -0.0102304 0.0424309 -22.5316 -20.1721 -20.6552 0.00590216 
124 1 1 0.0444025 0.0443639 0.0631604 0 0 0 -0.0162776 -0.0123816 0.0960051 0.0170476 0.0145322 -0.0118545 -17.5723 17.2369 -0.0494812 0.00590216 
252 1 1 -0.0375862 -0.0442228 0.068293 0 0 0 -0.0343793 -0.00508083 0.233122 0.00555109 0.0224377 0.011008 40.2806 35.7384 6.09006 0.00590216 
163 1 1 -0.0260824 -0.0441244 0.0746808 0 0 0 -0.0597453 -0.00288668 0.233891 -0.121116 -0.0580963 -0.0667363 35.4397 9.03317 9.776 0.00590216 
109 1 1 0.0152926 -0.0409924 0.0690966 0 0 0 0.0156509 0.00158684 0.112008 0.0976438 0.212392 -0.143549 12.2877 -1.04032 -2.31811 0.00944345 
186 1 1 0.0431595 -0.0441534 0.0665413 0 0 0 -0.00314313 0.00684128 0.070095 -0.0121309 -0.0964532 -0.10558 1.69771 -9.25796 3.12403 0.00590216 
188 1 1 -0.0330587 -0.0346631 0.0739832 0 0 0 -0.0400254 0.0601825 0.310779 -0.00273798 0.00145929 -0.021753 -29.9069 -10.6878 10.3495 0.00590216 
79 1 1 -0.0114459 -0.0403095 0.0719779 0 0 0 -0.0245203 -0.00943353 0.154163 0.0115734 0.0295644 -0.0768205 -14.352 20.5071 -13.1256 0.00944345 
165 1 1 0.0441307 -0.0327828 0.0694305 0 0 0 -0.00903389 0.00531048 0.078044 -0.0174727 2.60164e-05 -0.0540076 -0.63947 4.98725 -2.9811 0.00590216 
230 1 1 -0.0410615 -0.0308671 0.0660263 0 0 0 0.105946 -0.102676 0.0843841 0.00224785 0.00358361 -0.00839783 13.2491 21.6793 -21.5211 0.00590216 
75 1 1 -0.0251689 -0.0233128 0.0669655 0 0 0 0.0390235 0.0404448 0.173882 -0.185573 0.0968018 -0.357558 -3.94961 -8.53085 -3.94957 0.00944345 
147 1 1 -0.0440427 -0.0223187 0.0735873 0 0 0 0.031569 -0.13175 0.100436 0.0133413 -0.0211685 0.00156829 -16.4296 2.43262 55.9191 0.00590216 