ITEM: TIMESTEP
67550
ITEM: NUMBER OF ATOMS
338
ITEM: BOX BOUNDS mm mm mm
-0.05 0.05
-0.05 0.05
0 0.15
ITEM: ATOMS id type type x y z ix iy iz vx vy vz fx fy fz omegax omegay omegaz radius 
131 1 1 -0.0257481 -0.0400546 0.00560327 0 0 0 3.18487e-07 6.81486e-07 1.05297e-06 -3.68368e-07 -9.44394e-07 -1.24055e-06 -9.11065e-05 4.50452e-07 -7.45652e-06 0.00694698 
319 1 1 -0.0146874 -0.0445409 0.00605301 0 0 0 1.3718e-07 3.38372e-07 6.86601e-07 -1.50663e-07 -4.57629e-07 -7.63064e-07 6.16016e-06 5.108e-05 -3.55398e-05 0.00694698 
243 1 1 -0.00279117 -0.043873 0.0061044 0 0 0 -1.02354e-07 2.01532e-07 5.58981e-07 8.70805e-08 -2.95961e-07 -5.97291e-07 4.39916e-05 -7.31235e-05 4.70306e-05 0.00694698 
260 1 1 0.0252546 -0.0438307 0.0059405 0 0 0 -1.99371e-07 3.8086e-07 7.852e-07 1.28575e-07 -4.06062e-07 -6.73149e-07 5.01199e-05 3.05113e-06 1.70871e-05 0.00694698 
78 1 1 0.0413085 -0.0407811 0.00927582 0 0 0 -1.52804e-07 2.93114e-07 6.12965e-07 1.61616e-07 -9.15172e-07 -1.80721e-06 2.42818e-05 3.79215e-05 -1.5072e-05 0.0111152 
74 1 1 -0.040828 -0.0367696 0.0095971 0 0 0 4.27629e-07 5.40312e-07 6.42769e-07 -2.24788e-06 -2.92312e-06 -3.02046e-06 -2.667e-06 -7.9165e-06 1.24698e-05 0.0111152 
296 1 1 -0.0274829 -0.0274567 0.0061219 0 0 0 4.4047e-07 6.68407e-07 1.04383e-06 -5.0534e-07 -9.82623e-07 -1.18726e-06 -5.35126e-05 -3.11376e-05 1.64228e-05 0.00694698 
173 1 1 -0.0155729 -0.0319598 0.0055745 0 0 0 3.28854e-07 6.0533e-07 1.33385e-06 -4.05859e-07 -8.79952e-07 -1.50523e-06 3.89114e-06 4.35996e-05 -9.15996e-06 0.00694698 
275 1 1 -0.0035902 -0.0297747 0.00572448 0 0 0 1.73454e-07 7.68502e-07 1.33669e-06 -3.22121e-07 -1.04508e-06 -1.40892e-06 7.30569e-06 -1.9817e-05 -5.39244e-06 0.00694698 
60 1 1 0.0105837 -0.0360376 0.00947775 0 0 0 -1.81295e-07 5.71119e-07 1.69436e-06 -2.3187e-09 -3.29141e-06 -6.50695e-06 1.23576e-05 9.54546e-06 -2.36046e-05 0.0111152 
102 1 1 -0.0405428 -0.0169477 0.00905849 0 0 0 3.34324e-07 6.29219e-07 4.24262e-07 -1.63736e-06 -3.50989e-06 -1.72045e-06 -5.27186e-05 3.3013e-05 2.4844e-05 0.0111152 
328 1 1 -0.0254333 -0.01519 0.00543683 0 0 0 3.6969e-07 6.41911e-07 4.18105e-07 -4.58587e-07 -1.01216e-06 -4.66362e-07 -8.65159e-05 -7.83596e-05 -2.00642e-05 0.00694698 
40 1 1 -0.0106765 -0.0158183 0.0106462 0 0 0 2.22875e-07 7.82377e-07 2.46287e-06 -2.20173e-06 -5.21049e-06 -9.83338e-06 3.62188e-05 -5.89828e-05 2.46184e-05 0.0111152 
279 1 1 0.00440774 -0.0207351 0.0109054 0 0 0 1.62073e-07 9.19834e-07 3.14875e-06 -4.91086e-07 -1.37973e-06 -3.03535e-06 0.000163096 -5.66689e-06 -1.92605e-05 0.00694698 
267 1 1 0.0155005 -0.0199621 0.00561744 0 0 0 -1.4365e-07 7.71967e-07 2.05576e-06 -7.76544e-08 -9.88421e-07 -1.98586e-06 3.0718e-06 1.52617e-05 -1.3562e-05 0.00694698 
144 1 1 0.0430495 -0.0248667 0.00596799 0 0 0 -3.83061e-08 3.06199e-07 8.14169e-07 -7.19061e-08 -2.97815e-07 -6.31376e-07 -2.2914e-05 9.00983e-05 -5.16217e-05 0.00694698 
202 1 1 0.0452017 -0.0129601 0.00612949 0 0 0 -8.29725e-08 2.39706e-07 5.43107e-07 -1.47175e-08 -2.71274e-07 -3.69782e-07 -2.84376e-05 6.43199e-05 3.02598e-05 0.00694698 
257 1 1 -0.0442073 -0.00104702 0.00624945 0 0 0 -2.09081e-08 1.29871e-08 3.94092e-07 6.80033e-09 -3.25637e-08 -5.2188e-07 6.01335e-05 -8.53162e-05 -3.70505e-06 0.00694698 
274 1 1 -0.0220225 -0.0037788 0.00775194 0 0 0 2.36981e-07 5.19424e-07 2.62417e-06 -5.24351e-07 -1.05097e-06 -3.18743e-06 0.000343606 -0.000302684 1.99624e-05 0.00694698 
50 1 1 0.0305736 -0.00918801 0.00973542 0 0 0 -1.67397e-07 3.65182e-07 1.6076e-06 -5.38722e-07 -2.40305e-06 -5.62047e-06 -6.94338e-05 2.14349e-05 -2.67074e-05 0.0111152 
232 1 1 -0.0434387 0.0118756 0.00626166 0 0 0 2.52022e-07 -1.96297e-07 8.92932e-07 -3.97597e-07 2.06749e-07 -1.1967e-06 3.09517e-05 -2.70699e-05 -5.56981e-05 0.00694698 
268 1 1 -0.0326769 0.00368232 0.00609412 0 0 0 2.7822e-07 1.37555e-07 2.32896e-06 -4.54439e-07 -4.07529e-07 -3.08952e-06 7.39611e-05 -3.55857e-05 6.75512e-05 0.00694698 
171 1 1 -0.021197 0.00798668 0.0082347 0 0 0 7.73513e-07 3.98022e-07 4.38293e-06 -1.15005e-06 -1.04213e-06 -5.80176e-06 -6.61719e-05 -0.000114298 -8.49936e-05 0.00694698 
164 1 1 0.0205999 0.00173767 0.00544625 0 0 0 -1.98735e-07 2.23801e-07 1.46059e-06 -1.26354e-07 -5.66356e-07 -1.59089e-06 -1.72354e-05 9.38826e-05 -2.23548e-05 0.00694698 
297 1 1 -0.0253905 0.019586 0.00549868 0 0 0 7.16515e-07 -5.66224e-09 2.764e-06 -1.14074e-06 -4.57811e-07 -3.87533e-06 -5.36943e-05 8.29695e-05 7.82367e-05 0.00694698 
222 1 1 -0.0108508 0.0145911 0.00545572 0 0 0 5.83816e-07 2.06403e-07 2.98599e-06 -8.79154e-07 -6.83432e-07 -3.89708e-06 -0.000170664 0.000150942 7.76622e-05 0.00694698 
290 1 1 -0.000799305 0.0214674 0.00523786 0 0 0 1.56183e-07 -3.30811e-08 1.97958e-06 -3.42806e-07 -2.15342e-07 -2.27109e-06 -5.93546e-05 -7.457e-05 -3.82224e-05 0.00694698 
98 1 1 0.0122233 0.0135227 0.00979354 0 0 0 2.60022e-07 3.25004e-07 3.02597e-06 -2.80099e-06 -3.58469e-06 -1.33266e-05 -8.04229e-05 0.000152206 1.60874e-05 0.0111152 
316 1 1 0.0321802 0.019578 0.00502883 0 0 0 -1.35408e-08 -6.03501e-08 4.71406e-07 -1.22284e-08 -1.72262e-07 -6.38252e-07 3.40189e-05 1.15636e-06 3.55646e-05 0.00694698 
162 1 1 0.0446349 0.0202023 0.00544624 0 0 0 3.64098e-08 7.72796e-08 5.46013e-07 -5.12744e-08 -2.60283e-07 -5.56855e-07 -0.000120725 5.42703e-05 -3.0089e-06 0.00694698 
294 1 1 -0.0439424 0.0252727 0.0061394 0 0 0 3.95481e-07 -3.7331e-07 5.18119e-07 -5.39681e-07 3.89258e-07 -7.24956e-07 8.63092e-07 3.3283e-05 2.91604e-06 0.00694698 
175 1 1 -0.0327496 0.0313742 0.00614205 0 0 0 4.29992e-07 -8.81178e-07 8.93756e-07 -5.60233e-07 1.11367e-06 -1.36589e-06 0.00016221 1.1234e-05 -3.65476e-05 0.00694698 
255 1 1 -0.0148477 0.0261367 0.00587598 0 0 0 3.63067e-07 5.92113e-08 1.71868e-06 -6.37786e-07 -3.68531e-07 -2.2173e-06 -0.000119848 9.33697e-05 1.1827e-05 0.00694698 
324 1 1 -0.00330542 0.0326855 0.0056693 0 0 0 6.16646e-08 2.86381e-07 4.89898e-07 -1.28988e-07 -5.15405e-07 -6.39752e-07 -9.10663e-05 -2.53037e-05 4.992e-05 0.00694698 
161 1 1 0.00824506 0.0320299 0.00644882 0 0 0 -1.61895e-07 4.1601e-07 1.52448e-06 7.88141e-08 -7.92022e-07 -1.78691e-06 -0.000206363 -5.31052e-05 -9.90806e-05 0.00694698 
77 1 1 0.0226325 0.0295981 0.012343 0 0 0 -8.09519e-08 -3.71643e-07 1.78805e-06 -4.16367e-07 -1.7357e-07 -7.79817e-06 6.05869e-05 2.41224e-05 -1.68123e-05 0.0111152 
155 1 1 0.0376085 0.0311764 0.00564482 0 0 0 -1.14861e-07 -9.08801e-08 7.2104e-07 1.75996e-08 -7.76793e-08 -7.52207e-07 3.83492e-05 3.54449e-05 1.16348e-07 0.00694698 
321 1 1 -0.04402 0.0437755 0.00629381 0 0 0 2.18889e-07 -1.29689e-07 3.12826e-07 -3.37668e-07 1.3395e-07 -4.82767e-07 -2.70646e-05 9.87891e-06 2.24501e-05 0.00694698 
207 1 1 -0.0314325 0.0439672 0.00637411 0 0 0 1.22072e-07 -1.76788e-07 5.47553e-07 -2.15245e-07 1.35735e-07 -7.26326e-07 -8.62259e-05 -9.61747e-06 1.2724e-05 0.00694698 
38 1 1 -0.0153313 0.0415941 0.0097906 0 0 0 3.60274e-08 1.81317e-08 3.58294e-07 -3.65468e-07 -8.33063e-07 -1.8033e-06 -2.23654e-05 3.34738e-05 2.48695e-05 0.0111152 
149 1 1 0.0120644 0.043872 0.00543326 0 0 0 1.96338e-07 -1.2452e-07 2.312e-07 -2.15667e-07 3.78573e-08 -2.05386e-07 1.56826e-05 -4.44387e-06 -1.07472e-05 0.00694698 
237 1 1 0.0011871 0.0437539 0.0121483 0 0 0 -2.74989e-08 1.55402e-07 5.56441e-08 8.43442e-09 -2.74676e-07 -7.00806e-08 -1.5412e-06 -2.40578e-05 -3.02142e-05 0.00694698 
249 1 1 0.0277053 0.0441438 0.00611632 0 0 0 -1.98625e-08 -3.13625e-07 9.29694e-07 -5.08722e-08 1.61713e-07 -9.95165e-07 -4.64582e-05 5.51835e-05 -1.76392e-05 0.00694698 
289 1 1 0.0443721 0.0422256 0.00592204 0 0 0 -7.76541e-08 -3.10266e-07 6.39047e-07 6.79352e-09 2.20702e-07 -5.98514e-07 6.67811e-05 5.86191e-05 3.44081e-05 0.00694698 
331 1 1 -0.0432693 -0.0455642 0.0218634 0 0 0 3.01238e-07 3.50636e-07 3.64981e-07 -4.63993e-07 -4.93928e-07 -4.34575e-07 3.59816e-05 -1.81216e-05 -1.76097e-05 0.00694698 
299 1 1 -0.0246085 -0.0451872 0.0168094 0 0 0 3.1005e-07 8.85574e-07 1.5737e-06 -4.30495e-07 -1.29122e-06 -1.93599e-06 0.000194683 1.70428e-05 -2.80219e-05 0.00694698 
225 1 1 -0.0115498 -0.0442709 0.0185952 0 0 0 2.1469e-07 8.75776e-07 1.98626e-06 -3.45059e-07 -1.19043e-06 -1.98164e-06 8.80938e-05 -4.20723e-05 -6.09759e-06 0.00694698 
242 1 1 0.00106186 -0.0446807 0.0196824 0 0 0 1.68471e-07 4.01164e-07 1.76517e-06 -2.96558e-07 -6.5256e-07 -1.70105e-06 0.000262997 0.000133265 -4.99173e-05 0.00694698 
130 1 1 0.0208357 -0.0442058 0.0182027 0 0 0 -1.47499e-07 -5.64714e-08 9.29886e-07 -8.39623e-09 -7.09559e-08 -8.21642e-07 0.000107262 1.40853e-05 2.46676e-05 0.00694698 
167 1 1 0.0319451 -0.0442251 0.0228862 0 0 0 -2.56596e-07 2.40424e-07 1.14059e-06 9.44702e-08 -2.01109e-07 -7.83306e-07 3.92797e-05 -2.36238e-05 3.13961e-05 0.00694698 
136 1 1 0.0442903 -0.0447089 0.0241887 0 0 0 -2.69039e-07 2.71489e-07 6.81776e-07 1.5434e-07 -1.92643e-07 -4.7879e-07 5.11907e-05 8.71943e-06 2.32685e-05 0.00694698 
179 1 1 -0.0345746 -0.0262027 0.0213893 0 0 0 7.53264e-07 1.60056e-06 1.66835e-06 -1.10485e-06 -2.2869e-06 -2.03099e-06 -6.1339e-05 -0.000126453 2.5772e-05 0.00694698 
7 1 1 -0.0200353 -0.030427 0.0211168 0 0 0 7.05855e-07 1.37941e-06 3.24017e-06 -4.64984e-06 -8.63315e-06 -1.47448e-05 -2.62434e-05 -9.75964e-07 -3.43843e-05 0.0111152 
104 1 1 -0.000112751 -0.0285696 0.0247238 0 0 0 5.4481e-07 1.18432e-06 3.83945e-06 -4.13116e-06 -6.88901e-06 -1.48707e-05 -3.58558e-05 3.11388e-05 9.04776e-06 0.0111152 
67 1 1 0.0278423 -0.0280453 0.0126282 0 0 0 -2.91276e-07 6.36002e-07 2.46793e-06 8.31419e-08 -3.1022e-06 -8.32187e-06 4.02268e-05 1.24181e-05 1.17142e-05 0.0111152 
128 1 1 -0.0450313 -0.0217265 0.0238335 0 0 0 4.27173e-07 6.46727e-07 6.82487e-07 -6.85661e-07 -9.90604e-07 -8.00604e-07 -7.38089e-05 -1.72343e-05 0.000103756 0.00694698 
278 1 1 0.0331688 -0.0161931 0.0241362 0 0 0 -5.22929e-07 1.11528e-06 3.23771e-06 -2.09154e-07 -1.02898e-06 -2.62653e-06 -2.01515e-05 4.35335e-05 2.13758e-05 0.00694698 
146 1 1 -0.044873 -0.00919979 0.0224711 0 0 0 4.84554e-07 -1.74409e-07 2.5435e-06 -7.36346e-07 3.63621e-08 -3.27088e-06 0.000533449 -0.00033229 -0.000167785 0.00694698 
96 1 1 0.0119172 -0.00721233 0.0161322 0 0 0 6.54838e-07 9.69505e-07 4.111e-06 -4.72963e-06 -5.8912e-06 -1.75612e-05 -3.17169e-05 0.000157486 -5.90591e-06 0.0111152 
183 1 1 0.0447601 -0.00703515 0.017542 0 0 0 -4.45154e-07 2.64342e-07 1.251e-06 2.79156e-07 -3.94256e-07 -9.68542e-07 0.000155796 1.7975e-05 6.17802e-05 0.00694698 
25 1 1 -0.0377541 0.00483183 0.0223891 0 0 0 1.70718e-06 5.87326e-07 5.53363e-06 -1.08338e-05 -5.36851e-06 -2.96253e-05 -0.000158366 0.000102342 6.99032e-05 0.0111152 
17 1 1 -0.00526008 0.00256307 0.0144081 0 0 0 5.68394e-07 7.78918e-07 5.19015e-06 -4.88374e-06 -5.64485e-06 -2.39913e-05 4.19518e-05 -8.74859e-05 -4.87333e-05 0.0111152 
94 1 1 0.0384742 0.00842693 0.0134968 0 0 0 -8.62375e-07 4.83233e-07 1.86059e-06 2.25044e-06 -2.72004e-06 -7.14571e-06 -4.94921e-05 -0.000253431 4.39836e-05 0.0111152 
300 1 1 -0.0447061 0.0189524 0.017051 0 0 0 6.69074e-07 -2.27031e-07 1.75191e-06 -1.06079e-06 -2.4727e-08 -2.46537e-06 -9.03648e-05 -0.000126193 -4.15624e-05 0.00694698 
273 1 1 -0.0327467 0.0189504 0.0155433 0 0 0 1.23365e-06 -2.83924e-07 3.7835e-06 -2.01788e-06 -3.35152e-07 -5.38328e-06 1.76237e-05 -0.000115098 -7.83014e-06 0.00694698 
28 1 1 -0.0168118 0.0183632 0.0204917 0 0 0 1.37255e-06 5.97015e-07 5.17648e-06 -9.95918e-06 -5.6859e-06 -2.7788e-05 -2.02608e-05 3.80252e-06 3.20379e-05 0.0111152 
286 1 1 -0.00173314 0.0186073 0.0168811 0 0 0 9.34837e-07 8.21602e-07 4.38407e-06 -1.59822e-06 -1.39093e-06 -5.22484e-06 -0.000290369 9.12236e-05 6.18782e-05 0.00694698 
305 1 1 -0.0436936 0.0348177 0.0156113 0 0 0 1.8335e-07 -7.064e-07 8.49958e-07 -2.84388e-07 9.30564e-07 -1.39324e-06 6.39962e-05 -0.000122258 -8.74542e-05 0.00694698 
23 1 1 -0.0279413 0.0337349 0.0221096 0 0 0 5.94881e-07 2.19539e-07 2.20204e-06 -4.63846e-06 -3.22502e-06 -1.31477e-05 -0.000237742 1.18627e-05 0.000111058 0.0111152 
320 1 1 0.0037966 0.0296091 0.018379 0 0 0 -5.52207e-07 5.28479e-07 3.06899e-06 8.9429e-08 -7.17904e-07 -3.97401e-06 0.000270154 -6.77341e-06 0.000135576 0.00694698 
284 1 1 0.0446347 0.0273726 0.015737 0 0 0 1.73599e-07 -4.04556e-07 5.18639e-07 -2.3656e-07 2.28947e-07 -5.10229e-07 0.000175649 5.11635e-05 8.68227e-05 0.00694698 
239 1 1 0.0187751 0.0448273 0.0154887 0 0 0 -4.97092e-07 -4.76699e-07 1.30219e-06 4.80987e-07 4.12797e-07 -1.40681e-06 -5.38337e-05 -0.000145193 3.31136e-05 0.00694698 
61 1 1 0.037083 0.0409697 0.0204872 0 0 0 -2.21304e-07 -6.67454e-07 1.39079e-06 1.14874e-07 1.52608e-06 -5.74191e-06 -4.71296e-05 -2.66968e-05 -2.81971e-06 0.0111152 
224 1 1 -0.0437842 -0.0444768 0.0343523 0 0 0 2.72852e-07 2.88895e-08 4.54559e-07 -3.72031e-07 -9.80076e-08 -4.84051e-07 6.84908e-05 -6.96287e-06 -4.91742e-05 0.00694698 
256 1 1 -0.0327608 -0.0400947 0.0257176 0 0 0 1.4504e-07 5.9558e-07 1.92489e-06 -3.62272e-07 -1.09989e-06 -2.3895e-06 6.86501e-05 -0.00019442 2.66894e-05 0.00694698 
42 1 1 -0.0120031 -0.0408869 0.0355063 0 0 0 5.66744e-07 1.5839e-06 3.59017e-06 -4.17891e-06 -8.04461e-06 -1.3955e-05 0.000110902 3.35212e-05 -5.95167e-05 0.0111152 
271 1 1 0.0313717 -0.040779 0.0343154 0 0 0 -6.27916e-07 1.24393e-06 2.44986e-06 2.69458e-07 -1.05712e-06 -1.83554e-06 -4.15975e-05 7.06144e-06 -9.56229e-05 0.00694698 
125 1 1 0.0438559 -0.0440726 0.0371344 0 0 0 5.03797e-08 -2.26003e-08 9.00222e-07 -1.04412e-07 -1.15794e-08 -6.56164e-07 0.000107062 0.000142049 -1.97892e-05 0.00694698 
180 1 1 -0.0442349 -0.0338853 0.0265895 0 0 0 4.51895e-07 4.85544e-07 8.52824e-07 -6.42348e-07 -7.22255e-07 -9.70423e-07 4.03478e-05 -2.87761e-05 5.59881e-06 0.00694698 
120 1 1 0.0409684 -0.0296039 0.0290176 0 0 0 -4.60759e-07 5.77156e-07 2.15054e-06 3.74379e-07 -1.99851e-06 -6.41064e-06 2.45415e-05 0.000105042 -3.21018e-05 0.0111152 
178 1 1 -0.012639 -0.0206731 0.0321261 0 0 0 1.14789e-06 1.55657e-06 5.51423e-06 -2.07323e-06 -2.2695e-06 -5.77264e-06 -0.00011425 2.50401e-05 -4.80137e-06 0.00694698 
51 1 1 0.0185589 -0.0226609 0.0301883 0 0 0 -1.53618e-07 1.49649e-06 4.85539e-06 -2.4725e-06 -6.56543e-06 -1.76754e-05 -1.27736e-05 -2.97305e-05 -4.23724e-05 0.0111152 
134 1 1 0.0440827 -0.0143844 0.0325108 0 0 0 -6.15484e-07 4.23606e-07 2.12522e-06 2.29292e-07 -3.73166e-07 -1.61592e-06 2.41736e-05 0.000136935 6.25347e-05 0.00694698 
19 1 1 -0.0263969 -0.0120069 0.0273708 0 0 0 1.95418e-06 1.90248e-06 6.25617e-06 -1.23108e-05 -1.17275e-05 -3.01008e-05 0.000324652 -0.00020997 -6.21075e-05 0.0111152 
310 1 1 -0.0104365 -0.00898782 0.0299637 0 0 0 1.47159e-06 1.27078e-06 7.82989e-06 -2.67156e-06 -1.97312e-06 -9.00498e-06 0.000535831 0.000370317 5.19164e-06 0.00694698 
258 1 1 0.000949952 -0.012339 0.0275496 0 0 0 1.03411e-06 1.56924e-06 4.44195e-06 -1.91058e-06 -2.07566e-06 -4.94278e-06 5.80739e-05 -5.31851e-05 -6.95038e-05 0.00694698 
18 1 1 0.0121869 -0.00447301 0.0369605 0 0 0 -2.41291e-07 8.93631e-07 6.46863e-06 -5.30137e-06 -4.42197e-06 -2.66438e-05 0.000155256 -0.000175637 1.20213e-05 0.0111152 
184 1 1 0.0277391 -0.00806877 0.0328957 0 0 0 -5.68865e-07 1.01712e-06 5.60647e-06 -5.13716e-07 -1.05082e-06 -5.0078e-06 0.000104594 0.000214622 -4.45961e-05 0.00694698 
112 1 1 -0.0179401 0.0046842 0.0351755 0 0 0 2.48819e-06 1.29449e-06 9.6664e-06 -1.65442e-05 -8.44393e-06 -4.62335e-05 -0.000182235 -6.29596e-05 -3.33268e-05 0.0111152 
160 1 1 -0.00258793 0.00066176 0.0310723 0 0 0 1.10701e-06 1.02365e-06 7.16108e-06 -2.48668e-06 -1.48873e-06 -8.32662e-06 -3.71926e-05 0.000351831 6.29626e-05 0.00694698 
55 1 1 0.0406908 0.00155576 0.0321766 0 0 0 -1.26078e-06 4.53405e-07 3.04178e-06 2.44397e-06 -1.91706e-06 -1.10623e-05 2.74902e-05 0.000203757 1.23162e-05 0.0111152 
2 1 1 -0.0316934 0.0196551 0.0354848 0 0 0 2.41946e-06 1.49782e-06 5.75568e-06 -1.56368e-05 -9.4655e-06 -3.08993e-05 -9.19985e-05 9.13386e-06 5.16528e-05 0.0111152 
100 1 1 0.00652128 0.0141766 0.0298281 0 0 0 4.46955e-07 1.3485e-06 7.5621e-06 -7.10445e-06 -7.40113e-06 -3.40523e-05 8.12977e-05 -9.54801e-05 -1.71479e-05 0.0111152 
261 1 1 0.043399 0.0180072 0.0268078 0 0 0 -1.94471e-06 6.5189e-07 2.47633e-06 1.32058e-06 -6.0972e-07 -2.30927e-06 4.99475e-05 0.000182043 -5.86053e-05 0.00694698 
246 1 1 -0.0443139 0.0262016 0.0275325 0 0 0 1.1855e-06 -7.48109e-08 2.32139e-06 -1.82998e-06 -2.49717e-07 -3.20296e-06 -8.95464e-05 -0.000180766 -2.40698e-05 0.00694698 
69 1 1 -0.00686327 0.0298272 0.0340233 0 0 0 5.80168e-07 6.01321e-07 8.43073e-06 -8.25212e-06 -4.08206e-06 -4.26698e-05 -2.06416e-06 5.99885e-05 2.24708e-05 0.0111152 
108 1 1 0.0262495 0.0288961 0.0325398 0 0 0 -6.71535e-07 -2.83587e-07 3.79671e-06 -4.81726e-07 -1.93954e-07 -1.56955e-05 -0.000183832 1.01282e-05 -2.4598e-05 0.0111152 
9 1 1 -0.0407958 0.0418491 0.032558 0 0 0 1.88396e-07 3.67342e-07 7.8461e-07 -1.48731e-06 -2.65035e-06 -5.01438e-06 -0.000103835 -1.89191e-05 5.71783e-05 0.0111152 
323 1 1 -0.00700761 0.0443556 0.0261317 0 0 0 -3.56414e-07 -7.13157e-07 4.49724e-06 1.69339e-08 7.88575e-07 -6.01499e-06 -0.000704054 0.00015397 -3.71164e-05 0.00694698 
16 1 1 0.0103834 0.0409506 0.0288255 0 0 0 -5.51513e-07 -3.52608e-07 3.26545e-06 1.7177e-07 1.06894e-06 -1.65701e-05 -0.000162614 0.000155899 -3.93259e-05 0.0111152 
329 1 1 -0.0243337 -0.0448883 0.0452014 0 0 0 5.41982e-07 1.09441e-06 2.59401e-06 -9.81512e-07 -1.46015e-06 -2.49877e-06 0.000294844 -4.28535e-05 -9.84918e-05 0.00694698 
168 1 1 0.00170639 -0.0450129 0.040199 0 0 0 -3.12191e-08 3.02574e-07 2.42133e-06 -3.23398e-07 -4.75873e-07 -2.25039e-06 0.00042096 -3.45843e-05 4.09054e-05 0.00694698 
3 1 1 0.0165061 -0.0408745 0.039313 0 0 0 -5.14659e-07 1.09629e-06 3.26305e-06 1.00823e-07 -4.16646e-06 -1.11072e-05 0.000236871 5.32993e-05 4.41942e-05 0.0111152 
283 1 1 0.0310352 -0.0446314 0.0458371 0 0 0 -4.72124e-07 8.31918e-07 2.05622e-06 6.02754e-09 -5.92118e-07 -1.43837e-06 0.000220489 -3.73588e-05 0.000127534 0.00694698 
211 1 1 -0.0439276 -0.0331951 0.0391794 0 0 0 7.17568e-07 2.54657e-07 1.41093e-06 -1.0739e-06 -5.21524e-07 -1.45982e-06 1.25474e-05 -5.56514e-05 3.48798e-05 0.00694698 
93 1 1 -0.0271457 -0.0292817 0.0419053 0 0 0 1.10508e-06 1.85087e-06 4.57692e-06 -7.25169e-06 -9.88053e-06 -1.94705e-05 -7.20737e-06 -0.000150976 0.000103525 0.0111152 
191 1 1 0.00287896 -0.0323181 0.0407477 0 0 0 1.1355e-07 1.52481e-06 5.62887e-06 -9.14234e-07 -1.75412e-06 -5.12293e-06 5.14587e-05 -5.08444e-05 -0.000134962 0.00694698 
105 1 1 0.0303968 -0.0280612 0.0465898 0 0 0 -6.27979e-07 1.30379e-06 4.74899e-06 -1.54333e-06 -4.06972e-06 -1.50028e-05 4.14291e-05 6.09875e-05 -2.4982e-05 0.0111152 
66 1 1 -0.041682 -0.0169767 0.0389235 0 0 0 4.65618e-07 7.33202e-07 2.23423e-06 -4.09805e-06 -5.01308e-06 -1.12433e-05 7.519e-05 -0.000122953 -2.18398e-05 0.0111152 
43 1 1 -0.00882967 -0.0242901 0.0478754 0 0 0 1.10261e-06 2.38831e-06 7.99485e-06 -9.70732e-06 -1.09332e-05 -3.26586e-05 0.000226761 2.49372e-05 -5.37074e-05 0.0111152 
259 1 1 0.0241568 -0.0131299 0.0440616 0 0 0 -5.73296e-07 1.30886e-06 6.18429e-06 -7.51097e-07 -1.19333e-06 -5.46356e-06 3.11888e-05 4.04754e-05 2.82169e-05 0.00694698 
336 1 1 -0.0246139 -0.0117327 0.0453174 0 0 0 2.87359e-06 -5.21345e-08 1.10141e-05 -3.38872e-06 -1.53074e-06 -1.07177e-05 0.000213871 0.000370908 6.5865e-05 0.00694698 
245 1 1 -0.000273882 -0.0118499 0.0427906 0 0 0 -9.4495e-08 2.66293e-06 9.05763e-06 -1.54368e-06 -3.03158e-06 -9.48506e-06 7.21428e-05 0.000822673 -0.000297641 0.00694698 
303 1 1 0.0269175 -0.00136569 0.0493329 0 0 0 -2.88804e-08 1.44664e-06 8.77145e-06 -1.54721e-06 -1.44587e-06 -7.85245e-06 0.00021546 0.000298784 -0.000140603 0.00694698 
5 1 1 0.0405047 -0.0106682 0.0488248 0 0 0 -3.86968e-07 7.61619e-07 3.56728e-06 -2.13765e-06 -2.06307e-06 -1.16177e-05 -3.55519e-05 0.0001095 -3.50047e-05 0.0111152 
107 1 1 -0.0382431 0.00195705 0.0431279 0 0 0 2.49723e-06 1.27502e-06 5.81702e-06 -1.53875e-05 -7.97336e-06 -2.88674e-05 0.000122361 -8.1361e-05 -5.68216e-05 0.0111152 
95 1 1 0.02393 0.0111489 0.0391398 0 0 0 -6.27374e-07 7.02728e-07 8.45794e-06 -2.98383e-06 -3.84892e-06 -3.19677e-05 -0.000123965 0.000170747 -3.45935e-05 0.0111152 
318 1 1 0.044365 0.0047285 0.0485669 0 0 0 3.64413e-07 3.54221e-07 2.19908e-06 -7.16357e-07 -3.0269e-07 -1.9483e-06 -1.15486e-05 0.00016469 -3.0257e-05 0.00694698 
208 1 1 -0.0448665 0.0168567 0.0449706 0 0 0 1.2378e-06 9.25734e-07 3.88783e-06 -2.08073e-06 -1.33126e-06 -5.03707e-06 -0.000151263 -0.000493156 0.000190071 0.00694698 
282 1 1 -0.0182462 0.018533 0.0445893 0 0 0 2.08535e-06 1.76169e-06 9.24473e-06 -3.86355e-06 -2.34714e-06 -1.11965e-05 4.51265e-05 -0.000416834 2.23185e-06 0.00694698 
4 1 1 -0.00366643 0.0146154 0.0482212 0 0 0 1.87122e-06 2.05961e-06 1.19985e-05 -1.63133e-05 -1.05198e-05 -5.47275e-05 -0.000148588 7.5621e-05 -4.71379e-05 0.0111152 
58 1 1 0.0410775 0.0200219 0.043561 0 0 0 -2.79893e-07 2.2525e-07 3.44587e-06 -1.69972e-06 -1.5983e-06 -1.26754e-05 -8.78477e-06 0.000175584 3.22671e-06 0.0111152 
199 1 1 -0.0449272 0.0285898 0.0409786 0 0 0 7.03625e-07 5.57499e-07 2.6029e-06 -1.18399e-06 -9.17783e-07 -3.61673e-06 -6.92528e-05 -0.000292334 0.000123339 0.00694698 
192 1 1 -0.0256316 0.0271739 0.0481262 0 0 0 2.25895e-06 4.11559e-07 7.42984e-06 -4.12856e-06 -5.36175e-07 -9.41853e-06 0.000229536 -0.00032623 -0.000132431 0.00694698 
292 1 1 -0.0146967 0.032469 0.0485799 0 0 0 2.72009e-06 3.43411e-07 1.01378e-05 -4.69757e-06 -4.83512e-07 -1.23692e-05 -9.11065e-05 8.96721e-05 0.000216192 0.00694698 
73 1 1 0.0108552 0.0280466 0.0457835 0 0 0 1.56828e-06 1.07873e-06 7.20063e-06 -1.42905e-05 -5.31828e-06 -3.27858e-05 -0.000110119 0.000286616 -1.20555e-05 0.0111152 
327 1 1 -0.0435039 0.0432739 0.0497711 0 0 0 6.47935e-07 4.25445e-08 1.27035e-07 -9.71336e-07 1.55563e-07 -2.86546e-07 0.00011296 4.90207e-05 2.09416e-05 0.00694698 
126 1 1 -0.0115806 0.044294 0.046458 0 0 0 8.9404e-07 2.59867e-08 4.97526e-06 -1.84477e-06 1.5e-09 -6.16063e-06 -0.000807972 -0.000238407 0.000145825 0.00694698 
248 1 1 0.000186983 0.0432518 0.0425158 0 0 0 1.18097e-06 4.09343e-08 5.16781e-06 -2.27025e-06 -1.78089e-07 -6.42084e-06 -7.31566e-05 0.000286036 0.000119135 0.00694698 
229 1 1 0.0125664 0.0445193 0.045416 0 0 0 1.21369e-06 6.33883e-07 2.72718e-06 -2.17862e-06 -8.70457e-07 -3.0847e-06 -0.00025149 3.14638e-05 1.87748e-06 0.00694698 
114 1 1 0.0401335 0.0408 0.0407341 0 0 0 5.26689e-09 -5.16202e-08 1.65579e-06 -1.67655e-06 -4.54007e-07 -7.03667e-06 -6.59495e-05 0.000122596 -1.55875e-05 0.0111152 
314 1 1 -0.0174739 -0.0445492 0.0555942 0 0 0 1.11424e-07 1.22621e-06 2.92311e-06 -7.14711e-07 -1.30983e-06 -2.7352e-06 0.000109874 -4.59766e-05 5.92509e-05 0.00694698 
337 1 1 -0.00609996 -0.0408572 0.0515865 0 0 0 3.9334e-07 2.04705e-06 4.7488e-06 -1.09468e-06 -1.96314e-06 -4.16354e-06 -0.00010206 -0.000170897 8.88464e-05 0.00694698 
56 1 1 0.0068837 -0.0394003 0.0619726 0 0 0 -1.17437e-07 2.0851e-06 5.1554e-06 -4.0662e-06 -5.92972e-06 -1.53147e-05 0.000234406 3.97173e-05 5.72712e-05 0.0111152 
265 1 1 0.0220177 -0.043724 0.0552628 0 0 0 2.83955e-08 7.4263e-07 2.31083e-06 -5.8164e-07 -4.23424e-07 -1.5336e-06 -9.09575e-05 0.000117157 -0.000144553 0.00694698 
49 1 1 0.0406724 -0.0407584 0.0580766 0 0 0 -3.16267e-08 4.50048e-07 1.8637e-06 -1.54718e-06 -5.01651e-07 -4.97732e-06 9.76846e-05 0.000134044 -2.06497e-05 0.0111152 
84 1 1 -0.0411457 -0.032993 0.0553186 0 0 0 5.70179e-07 1.17809e-06 2.59861e-06 -4.53835e-06 -5.72558e-06 -1.02956e-05 -6.80897e-05 -8.95538e-05 7.01755e-05 0.0111152 
307 1 1 -0.0195837 -0.0324346 0.0571156 0 0 0 9.43426e-07 2.01367e-06 6.15272e-06 -2.00132e-06 -2.21868e-06 -5.96774e-06 0.000216576 9.18298e-05 -0.000172793 0.00694698 
326 1 1 0.0447956 -0.0254458 0.0534947 0 0 0 1.09642e-07 4.91161e-07 2.34896e-06 -5.93533e-07 -2.51298e-07 -1.72939e-06 8.85981e-05 0.000369658 -7.67628e-05 0.00694698 
81 1 1 -0.0216684 -0.0170401 0.062432 0 0 0 2.03996e-06 1.85271e-06 9.85986e-06 -1.35379e-05 -8.602e-06 -4.03376e-05 0.000165762 -0.000155679 -6.74904e-05 0.0111152 
52 1 1 0.0112853 -0.0221409 0.0507309 0 0 0 -9.32413e-08 2.26092e-06 7.02215e-06 -5.61501e-06 -8.20017e-06 -2.61719e-05 -3.9113e-05 -3.57326e-06 2.10287e-05 0.0111152 
332 1 1 0.026756 -0.0152036 0.0567084 0 0 0 2.56756e-07 1.72531e-06 5.97019e-06 -1.80225e-06 -1.1045e-06 -5.15531e-06 -0.000121688 0.000143537 -2.96848e-05 0.00694698 
220 1 1 -0.043805 -0.00977095 0.0542181 0 0 0 1.01177e-06 4.46877e-07 3.08545e-06 -1.41479e-06 -7.33915e-07 -3.47361e-06 3.74651e-05 -4.22938e-05 -1.67844e-05 0.00694698 
133 1 1 -0.0272081 -0.00283241 0.0559954 0 0 0 2.75169e-06 1.48137e-06 9.2788e-06 -4.37675e-06 -1.86903e-06 -1.02736e-05 -0.000255511 -0.000348296 0.000231213 0.00694698 
24 1 1 -0.0102673 -0.00372081 0.0528007 0 0 0 2.53884e-06 3.08896e-06 1.30148e-05 -1.78854e-05 -1.45235e-05 -5.66648e-05 2.28753e-05 -9.66844e-05 8.44499e-05 0.0111152 
240 1 1 0.0172585 -0.00749228 0.0553607 0 0 0 3.59455e-07 2.18279e-06 1.06334e-05 -2.28803e-06 -2.12292e-06 -9.86382e-06 0.000507255 0.00042523 -0.000173572 0.00694698 
236 1 1 -0.0236943 0.00828096 0.0507773 0 0 0 2.26354e-06 1.3956e-06 9.03712e-06 -4.00691e-06 -1.76072e-06 -1.06747e-05 0.00015136 1.17608e-05 5.95579e-05 0.00694698 
15 1 1 0.0136566 0.00817871 0.0563009 0 0 0 1.98121e-06 2.41455e-06 1.30067e-05 -1.71525e-05 -1.08577e-05 -5.24289e-05 -0.000126404 0.000146212 -5.53159e-05 0.0111152 
291 1 1 0.0437832 0.0122418 0.0588945 0 0 0 3.62987e-07 -5.11402e-07 2.85682e-06 -4.93983e-07 2.95462e-07 -2.51729e-06 0.000195701 4.91184e-05 8.20933e-05 0.00694698 
335 1 1 -0.0343158 0.0161596 0.0526643 0 0 0 2.19711e-06 1.00981e-06 7.06841e-06 -3.84885e-06 -1.28293e-06 -8.71347e-06 3.04497e-05 -0.000108061 -4.99527e-05 0.00694698 
266 1 1 0.0217589 0.0233197 0.0586731 0 0 0 1.61202e-06 1.48627e-06 9.09999e-06 -3.39538e-06 -1.56162e-06 -9.33326e-06 -0.00025911 -0.000391125 3.67929e-05 0.00694698 
298 1 1 0.0302846 0.0135353 0.0553189 0 0 0 2.17108e-06 8.89137e-07 9.00199e-06 -3.97823e-06 -1.01344e-06 -8.20007e-06 -7.40356e-05 0.00034292 -0.000154391 0.00694698 
262 1 1 -0.0377382 0.0287333 0.0508387 0 0 0 1.2824e-06 4.79183e-07 4.79651e-06 -2.77399e-06 -6.46472e-07 -6.36853e-06 -6.53558e-05 0.000106476 2.8112e-05 0.00694698 
99 1 1 -0.00360813 0.0303682 0.0615074 0 0 0 3.11756e-06 2.27665e-06 1.21871e-05 -2.28486e-05 -1.12351e-05 -5.81819e-05 -2.69381e-05 -0.000145306 -3.9132e-05 0.0111152 
122 1 1 -0.0274283 0.0409191 0.0558336 0 0 0 1.35033e-07 2.58004e-07 4.3426e-06 -5.01089e-06 -1.63698e-07 -2.22209e-05 -0.000276492 -0.000430602 -2.23236e-05 0.0111152 
158 1 1 0.000206978 0.0448778 0.0561865 0 0 0 2.15676e-06 6.80618e-07 6.06119e-06 -3.55393e-06 -1.19999e-06 -7.38074e-06 -0.000955843 -2.12936e-05 0.000366314 0.00694698 
47 1 1 0.0244974 0.0400921 0.0559319 0 0 0 8.33685e-07 3.86857e-07 4.16716e-06 -5.76923e-06 -1.13039e-06 -1.8339e-05 -0.000116821 -7.51135e-05 -3.38182e-05 0.0111152 
203 1 1 0.0420083 0.0441913 0.0569424 0 0 0 -1.41639e-07 -1.31928e-07 1.82558e-06 -3.6981e-07 -2.61129e-08 -1.87684e-06 -0.000119403 -0.000172895 -6.0268e-05 0.00694698 
6 1 1 -0.0273257 -0.0408019 0.0684914 0 0 0 5.51051e-07 1.10563e-06 3.8825e-06 -4.71804e-06 -4.24647e-06 -1.41257e-05 0.000207961 -1.00594e-05 -9.10739e-05 0.0111152 
190 1 1 -0.00862791 -0.0442093 0.0646035 0 0 0 1.01397e-07 1.4902e-07 4.00322e-06 -9.78231e-07 -2.24693e-07 -3.4725e-06 0.000552597 4.2601e-05 1.82518e-05 0.00694698 
189 1 1 0.0268465 -0.0442003 0.0673438 0 0 0 9.88529e-08 5.02223e-07 2.56213e-06 -8.29679e-07 -1.84194e-08 -1.67002e-06 0.000231408 -1.77261e-05 -8.31666e-05 0.00694698 
186 1 1 0.0437407 -0.0441968 0.0738313 0 0 0 4.42221e-08 1.04566e-07 8.59066e-07 -3.30015e-07 3.69465e-07 -1.54489e-07 4.76563e-05 -4.74851e-05 5.34681e-07 0.00694698 
313 1 1 -0.0118607 -0.0316738 0.0682093 0 0 0 5.3643e-07 1.66901e-06 8.835e-06 -2.44847e-06 -1.47735e-06 -8.04899e-06 -3.50922e-05 -0.00035686 2.12555e-06 0.00694698 
227 1 1 0.00766388 -0.0253939 0.0722239 0 0 0 9.76337e-07 1.6905e-06 1.05344e-05 -3.02681e-06 -8.93148e-07 -9.13961e-06 0.000293018 0.000277782 -0.000203907 0.00694698 
91 1 1 0.0235312 -0.0277778 0.0665881 0 0 0 2.48234e-07 1.66006e-06 6.39816e-06 -7.23501e-06 -2.95444e-06 -2.03819e-05 0.000173577 0.000105473 -3.35479e-05 0.0111152 
247 1 1 0.0400879 -0.0264408 0.068086 0 0 0 -3.9518e-07 1.5396e-06 4.63809e-06 -7.9418e-07 -5.80683e-07 -3.44016e-06 6.41998e-05 -6.81099e-05 5.39547e-05 0.00694698 
36 1 1 -0.0407301 -0.0173219 0.0691412 0 0 0 4.35118e-07 8.27544e-07 3.97823e-06 -4.18895e-06 -3.45817e-06 -1.62696e-05 5.47341e-05 -0.000261037 3.49377e-05 0.0111152 
137 1 1 -0.00226743 -0.0232153 0.0635623 0 0 0 1.00008e-06 2.89223e-06 1.1743e-05 -3.0893e-06 -2.65431e-06 -1.07829e-05 -0.000138707 -0.000193113 0.000215555 0.00694698 
276 1 1 0.0201771 -0.0125509 0.072259 0 0 0 2.47957e-07 1.387e-06 1.23954e-05 -2.34205e-06 -6.33934e-07 -9.72336e-06 0.000166814 3.27998e-05 7.07474e-05 0.00694698 
215 1 1 0.0333366 -0.0151385 0.0705857 0 0 0 1.47965e-07 1.42583e-06 8.85918e-06 -1.52552e-06 -6.41018e-07 -6.89164e-06 0.000415479 0.000249825 0.00014631 0.00694698 
217 1 1 0.0446141 -0.0151032 0.0644108 0 0 0 9.47351e-08 1.06072e-06 3.3213e-06 -9.52285e-07 -4.99042e-07 -2.5276e-06 -0.000172918 0.000379103 -0.000278443 0.00694698 
182 1 1 -0.0291258 -0.0043065 0.0735738 0 0 0 1.11614e-06 2.41154e-06 8.71138e-06 -2.30998e-06 -2.4444e-06 -9.55888e-06 -0.00017043 -0.000253235 0.000327363 0.00694698 
10 1 1 0.00493197 -0.00796362 0.0666216 0 0 0 1.53001e-06 3.13285e-06 1.46447e-05 -1.58888e-05 -1.1445e-05 -5.60556e-05 7.47228e-05 4.35246e-05 -0.000179406 0.0111152 
148 1 1 0.0445355 -0.00238307 0.0634358 0 0 0 1.66516e-07 -5.78727e-08 5.2311e-06 -1.20389e-06 4.27837e-07 -4.41826e-06 0.00049194 0.000711125 0.00017544 0.00694698 
32 1 1 -0.039949 0.00415223 0.0635932 0 0 0 1.15308e-06 5.65276e-07 5.06305e-06 -9.1164e-06 -1.45719e-06 -2.30417e-05 1.18336e-05 -0.000157351 -1.04951e-05 0.0111152 
197 1 1 -0.019298 0.0021356 0.0660103 0 0 0 2.97644e-06 4.20839e-06 1.28019e-05 -5.41292e-06 -4.68249e-06 -1.42222e-05 -2.84212e-05 9.51648e-05 -0.000283085 0.00694698 
115 1 1 -0.0037432 0.010581 0.0687302 0 0 0 3.03359e-06 4.09246e-06 1.48801e-05 -2.40577e-05 -1.73909e-05 -6.51553e-05 -0.000142903 -1.1509e-05 -4.84903e-06 0.0111152 