ITEM: TIMESTEP
2450
ITEM: NUMBER OF ATOMS
338
ITEM: BOX BOUNDS mm mm mm
-0.05 0.05
-0.05 0.05
0 0.15
ITEM: ATOMS id type type x y z ix iy iz vx vy vz fx fy fz omegax omegay omegaz radius 
131 1 1 -0.0269571 -0.0409758 0.00506331 0 0 0 -0.0103642 -0.0124537 0.00691484 8.31975e-06 9.99707e-06 0.00354634 2.45761 -2.04527 -1.1815e-14 0.00508216 
319 1 1 -0.0142646 -0.0448529 0.00682785 0 0 0 0 0 -0.240296 0 0 -0.0134848 0 0 0 0.00508216 
60 1 1 0.00523969 -0.0364874 0.00810024 0 0 0 3.36027e-05 -2.6739e-05 0.00371733 0.00569773 -0.00447493 -0.131526 -0.115569 -0.133367 -0.00046598 0.00813146 
260 1 1 0.0208522 -0.0367612 0.00514089 0 0 0 0 0 0.0410308 0 0 -0.0134848 0 0 0 0.00508216 
173 1 1 -0.0143053 -0.0294904 0.00517223 0 0 0 0 0 0.0072663 0 0 -0.0134848 0 0 0 0.00508216 
102 1 1 -0.0415551 -0.016109 0.00809797 0 0 0 0 0 0.00514573 0 0 0.00339977 0 0 0 0.00813146 
40 1 1 -0.0095744 -0.0169003 0.00804394 0 0 0 0 0 -0.188098 0 0 0.926913 0 0 0 0.00813146 
274 1 1 -0.017856 -0.00594656 0.00619816 0 0 0 0 0 -0.240296 0 0 -0.0134848 0 0 0 0.00508216 
279 1 1 0.00345611 -0.0132293 0.00516749 0 0 0 0 0 0.0258091 0 0 -0.0134848 0 0 0 0.00508216 
202 1 1 0.0424697 -0.0112183 0.0051439 0 0 0 0 0 -0.0110066 0 0 -0.0134848 0 0 0 0.00508216 
257 1 1 -0.0427917 -0.000788059 0.00501217 0 0 0 0 0 0.0906292 0 0 0.0268923 0 0 0 0.00508216 
171 1 1 -0.025394 0.0029722 0.00507082 0 0 0 0 0 0.00314471 0 0 -0.0050772 0 0 0 0.00508216 
232 1 1 -0.038845 0.0117131 0.00509959 0 0 0 0.00202139 -0.013349 0.0275345 0 0 -0.0134848 2.84098 0.430198 -3.21327e-15 0.00508216 
297 1 1 -0.0229893 0.0196618 0.00593372 0 0 0 0 0 -0.240296 0 0 -0.0134848 0 0 0 0.00508216 
222 1 1 -0.011817 0.0214316 0.00500377 0 0 0 0.0224092 0.00278851 -0.17029 -0.0616286 -0.00766881 0.183259 0.0188961 -0.151855 4.27026e-15 0.00508216 
290 1 1 0.00209967 0.0152567 0.0050692 0 0 0 -0.0294541 0.00437671 0.00596178 -4.30333e-05 6.39451e-06 -0.0053857 -0.863554 -5.81149 -6.23466e-15 0.00508216 
316 1 1 0.0298993 0.0168772 0.00573764 0 0 0 0 0 -0.240296 0 0 -0.0134848 0 0 0 0.00508216 
162 1 1 0.0442265 0.0150863 0.00557539 0 0 0 0 0 -0.240296 0 0 -0.0134848 0 0 0 0.00508216 
77 1 1 0.0212263 0.0296744 0.00846274 0 0 0 -0.013425 -0.00320721 -0.224447 -0.136217 -0.0316611 0.072019 0.663209 -3.4337 -0.133087 0.00813146 
255 1 1 -0.0221554 0.0335727 0.00625948 0 0 0 0 0 -0.240296 0 0 -0.0134848 0 0 0 0.00508216 
324 1 1 -0.0104341 0.033894 0.00735113 0 0 0 0 0 -0.240296 0 0 -0.0134848 0 0 0 0.00508216 
149 1 1 0.00449458 0.0403794 0.00816359 0 0 0 0 0 -0.240296 0 0 -0.0134848 0 0 0 0.00508216 
155 1 1 0.0336252 0.032207 0.00488936 0 0 0 0.00852373 -0.0107447 0.00575348 0.00791897 -0.00579187 0.0472055 3.26304 -2.45353 -1.03652 0.00508216 
289 1 1 0.0441148 0.0370355 0.00623106 0 0 0 0 0 -0.240296 0 0 -0.0134848 0 0 0 0.00508216 
321 1 1 -0.0447942 0.0434911 0.00515905 0 0 0 0 0 0.031508 0 0 -0.0134848 0 0 0 0.00508216 
249 1 1 0.0260036 0.0420097 0.00729811 0 0 0 0 0 -0.240296 0 0 -0.0134848 0 0 0 0.00508216 
299 1 1 -0.0272293 -0.0432402 0.0154755 0 0 0 0 0 -0.240296 0 0 -0.0134848 0 0 0 0.00508216 
74 1 1 -0.0384622 -0.0338395 0.0119682 0 0 0 0 0 -0.240296 0 0 -0.0552336 0 0 0 0.00813146 
296 1 1 -0.022057 -0.0350878 0.0118367 0 0 0 0.0458579 0.0551032 -0.0930213 0 0 -0.0134848 -18.5815 15.4639 -1.1815e-14 0.00508216 
243 1 1 -0.00934353 -0.0367014 0.0106688 0 0 0 0 0 -0.240296 0 0 -0.0134848 0 0 0 0.00508216 
78 1 1 0.0383985 -0.037225 0.0115726 0 0 0 0 0 -0.240296 0 0 -0.0552336 0 0 0 0.00813146 
275 1 1 -0.00350068 -0.0289358 0.0145077 0 0 0 -0.000857257 0.00160796 -0.241269 -0.00678898 0.00688929 0.108934 -0.752679 -0.87193 -0.00057048 0.00508216 
328 1 1 -0.0269007 -0.0202082 0.0137731 0 0 0 0 0 -0.240296 0 0 -0.0134848 0 0 0 0.00508216 
267 1 1 0.0163076 -0.0176735 0.0138272 0 0 0 0 0 -0.240296 0 0 -0.0134848 0 0 0 0.00508216 
144 1 1 0.042374 -0.0206485 0.0126936 0 0 0 0 0 -0.240296 0 0 -0.0134848 0 0 0 0.00508216 
50 1 1 0.026536 -0.00915926 0.0125294 0 0 0 0 0 -0.240296 0 0 -0.0552336 0 0 0 0.00813146 
183 1 1 0.039709 -0.0112415 0.017338 0 0 0 0 0 -0.240296 0 0 -0.0134848 0 0 0 0.00508216 
17 1 1 -0.00938276 0.00387687 0.00992947 0 0 0 0 0 -0.240296 0 0 -0.0552336 0 0 0 0.00813146 
96 1 1 0.0113165 -0.00336412 0.0109242 0 0 0 0 0 -0.240296 0 0 -0.0552336 0 0 0 0.00813146 
268 1 1 -0.0295644 0.0111299 0.0112024 0 0 0 0 0 -0.240296 0 0 -0.0134848 0 0 0 0.00508216 
286 1 1 -0.00196266 0.013629 0.0155427 0 0 0 0 0 -0.240296 0 0 -0.0134848 0 0 0 0.00508216 
94 1 1 0.0348132 0.00478129 0.0107904 0 0 0 0 0 -0.240296 0 0 -0.0552336 0 0 0 0.00813146 
273 1 1 -0.0392348 0.014287 0.0149561 0 0 0 -0.00692489 0.0457311 0.0600484 0 0 -0.0134848 -13.0284 -1.97284 -3.21327e-15 0.00508216 
28 1 1 -0.015475 0.0209764 0.0175772 0 0 0 -0.0116253 -0.00144661 -0.177524 -0.0334155 -0.00415808 0.215354 0.238001 -1.91264 6.54201e-16 0.00813146 
98 1 1 0.0117147 0.0138171 0.0141629 0 0 0 0.0199527 -0.0260346 -0.150884 -0.0715421 -0.146875 -0.295808 -2.70174 9.58234 5.40759 0.00813146 
294 1 1 -0.0446702 0.0281705 0.0155035 0 0 0 0 0 -0.240296 0 0 -0.0134848 0 0 0 0.00508216 
175 1 1 -0.0367447 0.0315142 0.00964092 0 0 0 0 0 -0.240296 0 0 -0.0134848 0 0 0 0.00508216 
161 1 1 0.00320249 0.0241958 0.00983762 0 0 0 0 0 -0.240296 0 0 -0.0134848 0 0 0 0.00508216 
61 1 1 0.0346135 0.0347021 0.0176275 0 0 0 0.0106438 0.0278234 0.0233922 0.0472091 0.0720614 0.543844 -6.8806 2.87587 -0.0254049 0.00813146 
207 1 1 -0.034013 0.042938 0.0093005 0 0 0 0 0 -0.240296 0 0 -0.0134848 0 0 0 0.00508216 
38 1 1 -0.0154435 0.0418771 0.0166551 0 0 0 0 -0.00575873 -0.236236 0 0.00198247 -0.0542423 1.25224 0 0 0.00813146 
130 1 1 0.0141819 -0.0447393 0.0228615 0 0 0 0 0 -0.240296 0 0 -0.0134848 0 0 0 0.00508216 
7 1 1 -0.0212432 -0.0348266 0.025059 0 0 0 0 0 -0.240296 0 0 -0.0552336 0 0 0 0.00813146 
104 1 1 -0.00119784 -0.0337261 0.0265913 0 0 0 0.000170174 -0.000361062 -0.239366 -0.00111112 -0.000510598 -0.0461762 0.00217116 0.00199995 0.000379061 0.00813146 
67 1 1 0.0220426 -0.029466 0.018736 0 0 0 0 0 -0.240296 0 0 -0.0552336 0 0 0 0.00813146 
120 1 1 0.0413982 -0.0277669 0.0268928 0 0 0 0.000195653 0.00151455 -0.241894 4.851e-05 0.000375516 -0.0556297 -1.95526e-15 6.27497e-16 3.55422e-16 0.00813146 
179 1 1 -0.0369204 -0.0203388 0.021846 0 0 0 0 0 -0.240296 0 0 -0.0134848 0 0 0 0.00508216 
310 1 1 -0.0148815 -0.0136629 0.0242476 0 0 0 0 0 -0.240296 0 0 -0.0134848 0 0 0 0.00508216 
278 1 1 0.0313014 -0.0165843 0.0245209 0 0 0 0 0 -0.240296 0 0 -0.0134848 0 0 0 0.00508216 
19 1 1 -0.0282448 -0.0111162 0.0276107 0 0 0 0 0 -0.240296 0 0 -0.0552336 0 0 0 0.00813146 
18 1 1 0.0146359 -0.00432336 0.0274403 0 0 0 0.000264493 0.00523825 -0.241144 6.77386e-05 0.00134155 -0.0554507 1.78731e-15 -2.59229e-16 -1.04415e-15 0.00813146 
55 1 1 0.0384601 -0.000870472 0.0270101 0 0 0 0 0 -0.240296 0 0 -0.0552336 0 0 0 0.00813146 
25 1 1 -0.0391738 0.00556727 0.025751 0 0 0 0 0 -0.240296 0 0 -0.0552336 0 0 0 0.00813146 
112 1 1 -0.0205863 0.00564464 0.026299 0 0 0 0 0 -0.240296 0 0 -0.0552336 0 0 0 0.00813146 
164 1 1 0.0238656 0.0089406 0.0190351 0 0 0 0 0 -0.240296 0 0 -0.0134848 0 0 0 0.00508216 
320 1 1 -0.00684117 0.0205016 0.0277648 0 0 0 0 0 -0.240296 0 0 -0.0134848 0 0 0 0.00508216 
108 1 1 0.0154664 0.02215 0.027486 0 0 0 0.0419469 0.0168367 -0.181025 0.0715421 0.146875 0.185341 -5.07864 -6.41359 5.40759 0.00813146 
261 1 1 0.0415966 0.014492 0.0217653 0 0 0 0 0 -0.240296 0 0 -0.0134848 0 0 0 0.00508216 
23 1 1 -0.029349 0.031015 0.0265484 0 0 0 0 0 -0.240296 0 0 -0.0552336 0 0 0 0.00813146 
16 1 1 0.00608296 0.036233 0.0240303 0 0 0 0 0 -0.240296 0 0 -0.0552336 0 0 0 0.00813146 
239 1 1 0.0232367 0.0396958 0.022862 0 0 0 0 0 -0.240296 0 0 -0.0134848 0 0 0 0.00508216 
225 1 1 0.00206793 -0.0443639 0.0347635 0 0 0 0 0 -0.240296 0 0 -0.0134848 0 0 0 0.00508216 
180 1 1 -0.0423831 -0.0321371 0.0301008 0 0 0 0 0 -0.240296 0 0 -0.0134848 0 0 0 0.00508216 
167 1 1 0.0223335 -0.040431 0.0367821 0 0 0 0 0 -0.240296 0 0 -0.0134848 0 0 0 0.00508216 
271 1 1 0.028986 -0.0321488 0.0336102 0 0 0 0 0 -0.240296 0 0 -0.0134848 0 0 0 0.00508216 
136 1 1 0.0402294 -0.0368143 0.0364363 0 0 0 -0.000801395 -0.0062036 -0.233752 -4.851e-05 -0.000375516 -0.0130886 -1.28073e-14 4.11035e-15 2.32821e-15 0.00508216 
178 1 1 -0.0116213 -0.019767 0.0355106 0 0 0 0 0 -0.240296 0 0 -0.0134848 0 0 0 0.00508216 
51 1 1 0.013827 -0.0203424 0.0300327 0 0 0 -0.000264493 -0.00523825 -0.239448 -6.77386e-05 -0.00134155 -0.0550165 1.78731e-15 -2.59229e-16 -1.04415e-15 0.00813146 
134 1 1 0.0446472 -0.0137875 0.0324177 0 0 0 0 0 -0.240296 0 0 -0.0134848 0 0 0 0.00508216 
146 1 1 -0.0446365 -0.00615984 0.0294966 0 0 0 0 0 -0.240296 0 0 -0.0134848 0 0 0 0.00508216 
160 1 1 -0.00352292 -0.00979518 0.0307798 0 0 0 0 0 -0.240296 0 0 -0.0134848 0 0 0 0.00508216 
245 1 1 0.00494971 -0.0102947 0.0369973 0 0 0 0 0 -0.240296 0 0 -0.0134848 0 0 0 0.00508216 
184 1 1 0.0289516 -0.0107054 0.0344341 0 0 0 0 0 -0.240296 0 0 -0.0134848 0 0 0 0.00508216 
100 1 1 0.00889555 0.0074955 0.0373007 0 0 0 0 0 -0.240296 0 0 -0.0552336 0 0 0 0.00813146 
300 1 1 -0.040958 0.0191512 0.0334964 0 0 0 0 0 -0.240296 0 0 -0.0134848 0 0 0 0.00508216 
284 1 1 0.028257 0.0149266 0.0284682 0 0 0 0 0 -0.240296 0 0 -0.0134848 0 0 0 0.00508216 
58 1 1 0.0404484 0.0169499 0.0372442 0 0 0 0 0 -0.240296 0 0 -0.0552336 0 0 0 0.00813146 
305 1 1 -0.0432541 0.0290219 0.0293149 0 0 0 0 0 -0.240296 0 0 -0.0134848 0 0 0 0.00508216 
69 1 1 -0.0129094 0.0313545 0.0351904 0 0 0 0 0 -0.240296 0 0 -0.0552336 0 0 0 0.00813146 
114 1 1 0.0363322 0.0356563 0.0350894 0 0 0 0 0 -0.240296 0 0 -0.0552336 0 0 0 0.00813146 
237 1 1 -0.00192521 0.0429747 0.0364329 0 0 0 0 0 -0.240296 0 0 -0.0134848 0 0 0 0.00508216 
331 1 1 -0.0420922 -0.0428226 0.0419954 0 0 0 0 0 -0.240296 0 0 -0.0134848 0 0 0 0.00508216 
242 1 1 0.00882703 -0.0440483 0.0423837 0 0 0 0 0 -0.240296 0 0 -0.0134848 0 0 0 0.00508216 
42 1 1 -0.012134 -0.035903 0.0386869 0 0 0 0 0 -0.240296 0 0 -0.0552336 0 0 0 0.00813146 
128 1 1 -0.0446972 -0.0250028 0.0377605 0 0 0 0 0 -0.240296 0 0 -0.0134848 0 0 0 0.00508216 
93 1 1 -0.0301495 -0.0234678 0.0381367 0 0 0 0 0 -0.240296 0 0 -0.0552336 0 0 0 0.00813146 
191 1 1 0.00787612 -0.0261212 0.0430359 0 0 0 0 0 -0.240296 0 0 -0.0134848 0 0 0 0.00508216 
258 1 1 -0.00332392 -0.0193355 0.0422951 0 0 0 0.00250961 -0.005499 -0.243832 0.000249238 -0.000546125 -0.0138359 1.47437e-14 8.10249e-15 -2.13645e-15 0.00508216 
336 1 1 -0.0183143 -0.00775994 0.0401002 0 0 0 0 0 -0.240296 0 0 -0.0134848 0 0 0 0.00508216 
259 1 1 0.0299512 -0.0104967 0.0456526 0 0 0 0 0 -0.240296 0 0 -0.0134848 0 0 0 0.00508216 
107 1 1 -0.0399833 1.677e-05 0.0448365 0 0 0 0 0 -0.240296 0 0 -0.0552336 0 0 0 0.00813146 
318 1 1 0.0427324 0.00340808 0.0415198 0 0 0 0 0 -0.240296 0 0 -0.0134848 0 0 0 0.00508216 
95 1 1 0.0279053 0.00489548 0.0396178 0 0 0 0 0 -0.240296 0 0 -0.0552336 0 0 0 0.00813146 
2 1 1 -0.0301948 0.0152128 0.0438563 0 0 0 0 0 -0.240296 0 0 -0.0552336 0 0 0 0.00813146 
73 1 1 0.000965103 0.0204903 0.0439224 0 0 0 0 0 -0.240296 0 0 -0.0552336 0 0 0 0.00813146 
192 1 1 -0.0230245 0.0268449 0.044252 0 0 0 0 0 -0.240296 0 0 -0.0134848 0 0 0 0.00508216 
47 1 1 0.0213025 0.0313786 0.0418987 0 0 0 0 0 -0.240296 0 0 -0.0552336 0 0 0 0.00813146 
323 1 1 -0.0165976 0.0442779 0.0401838 0 0 0 0 0 -0.240296 0 0 -0.0134848 0 0 0 0.00508216 
256 1 1 -0.0288237 -0.0392525 0.0476125 0 0 0 0 0 -0.240296 0 0 -0.0134848 0 0 0 0.00508216 
314 1 1 -0.0161265 -0.0377647 0.0538472 0 0 0 0 0 -0.240296 0 0 -0.0134848 0 0 0 0.00508216 
168 1 1 -0.00297731 -0.0397283 0.051304 0 0 0 0 0 -0.240296 0 0 -0.0134848 0 0 0 0.00508216 
3 1 1 0.0203703 -0.0371817 0.0522805 0 0 0 0 0 -0.240296 0 0 -0.0552336 0 0 0 0.00813146 
125 1 1 0.0354829 -0.0395199 0.0549833 0 0 0 0 0 -0.240296 0 0 -0.0134848 0 0 0 0.00508216 
329 1 1 -0.0232421 -0.0304347 0.0475784 0 0 0 0 0 -0.240296 0 0 -0.0134848 0 0 0 0.00508216 
43 1 1 -0.000459792 -0.0262466 0.0547691 0 0 0 0.000723899 0.000677203 -0.241683 0.000310845 0.000290794 -0.0558293 -5.73536e-15 6.36995e-15 1.1672e-16 0.00813146 
105 1 1 0.0347458 -0.026835 0.0481476 0 0 0 0 0 -0.240296 0 0 -0.0552336 0 0 0 0.00813146 
66 1 1 -0.0415789 -0.0157681 0.0513715 0 0 0 0 0 -0.240296 0 0 -0.0552336 0 0 0 0.00813146 
81 1 1 -0.0205639 -0.0172316 0.0552802 0 0 0 0 0 -0.240296 0 0 -0.0552336 0 0 0 0.00813146 
24 1 1 -0.00805576 -0.00896721 0.0489625 0 0 0 -0.000612697 0.00134253 -0.239433 -0.000249238 0.000546125 -0.0548824 2.2504e-15 1.23673e-15 -3.26099e-16 0.00813146 
133 1 1 -0.0248112 -0.00222023 0.0489634 0 0 0 0 0 -0.240296 0 0 -0.0134848 0 0 0 0.00508216 
208 1 1 -0.0396315 0.0127143 0.0560735 0 0 0 0 0 -0.240296 0 0 -0.0134848 0 0 0 0.00508216 
4 1 1 -0.0113994 0.0100841 0.0478565 0 0 0 0 0 -0.240296 0 0 -0.0552336 0 0 0 0.00813146 
298 1 1 0.0362654 0.0125535 0.0526556 0 0 0 0 0 -0.240296 0 0 -0.0134848 0 0 0 0.00508216 
246 1 1 -0.0415527 0.0238641 0.0490929 0 0 0 0 0 -0.240296 0 0 -0.0134848 0 0 0 0.00508216 
262 1 1 -0.0254579 0.0291419 0.0540462 0 0 0 0 0 -0.240296 0 0 -0.0134848 0 0 0 0.00508216 
292 1 1 -0.0145814 0.031016 0.0500135 0 0 0 0 0 -0.240296 0 0 -0.0134848 0 0 0 0.00508216 
106 1 1 0.0363139 0.028523 0.0500366 0 0 0 0 0 -0.240296 0 0 -0.0552336 0 0 0 0.00813146 
9 1 1 -0.0337218 0.0378404 0.0481662 0 0 0 0 0 -0.240296 0 0 -0.0552336 0 0 0 0.00813146 
248 1 1 0.00409611 0.0433263 0.0501577 0 0 0 0 0 -0.240296 0 0 -0.0134848 0 0 0 0.00508216 
229 1 1 0.0170728 0.0425053 0.0522876 0 0 0 0 0 -0.240296 0 0 -0.0134848 0 0 0 0.00508216 
203 1 1 0.0430085 0.0441891 0.0521447 0 0 0 0 0 -0.240296 0 0 -0.0134848 0 0 0 0.00508216 
224 1 1 -0.0366537 -0.0379548 0.0622602 0 0 0 0 0 -0.240296 0 0 -0.0134848 0 0 0 0.00508216 
211 1 1 -0.0421804 -0.0254125 0.0611887 0 0 0 0 0 -0.240296 0 0 -0.0134848 0 0 0 0.00508216 
52 1 1 0.0154032 -0.0180526 0.0572457 0 0 0 0 0 -0.240296 0 0 -0.0552336 0 0 0 0.00813146 
332 1 1 0.0295284 -0.0161129 0.0579923 0 0 0 0 0 -0.240296 0 0 -0.0134848 0 0 0 0.00508216 
5 1 1 0.0412576 -0.010117 0.0622877 0 0 0 0.00161593 -0.0019666 -0.243668 0.00533956 -0.00705779 -0.0653591 -0.0863096 -0.0365021 -0.0200711 0.00813146 
10 1 1 0.011638 -0.000482538 0.0570364 0 0 0 0 0 -0.240296 0 0 -0.0552336 0 0 0 0.00813146 
303 1 1 0.0311837 0.00396808 0.0592632 0 0 0 0 0 -0.240296 0 0 -0.0134848 0 0 0 0.00508216 
240 1 1 0.0235615 -0.00132712 0.0646189 0 0 0 0 0 -0.240296 0 0 -0.0134848 0 0 0 0.00508216 
236 1 1 -0.01826 0.0106623 0.0606554 0 0 0 -0.00536924 -0.000293878 -0.246499 -0.000457625 -2.21168e-05 -0.0140546 0.0225924 -0.164968 -0.0117404 0.00508216 
115 1 1 0.00311519 0.0135813 0.0591373 0 0 0 -0.00681649 -0.00058564 -0.240506 0.000514328 4.41886e-05 -0.0552177 1.11218e-15 -1.31271e-14 5.08536e-16 0.00813146 
199 1 1 -0.0443433 0.0219429 0.0630389 0 0 0 0 0 -0.240296 0 0 -0.0134848 0 0 0 0.00508216 
282 1 1 -0.0248218 0.0191938 0.0564353 0 0 0 0 0 -0.240296 0 0 -0.0134848 0 0 0 0.00508216 
15 1 1 0.0192938 0.0149713 0.0596348 0 0 0 0.00681649 0.00058564 -0.240086 -0.000514328 -4.41886e-05 -0.0552494 1.11218e-15 -1.31271e-14 5.08536e-16 0.00813146 
127 1 1 0.0360342 0.02656 0.0641542 0 0 0 0 0 -0.240296 0 0 -0.0134848 0 0 0 0.00508216 
99 1 1 -0.000450282 0.0321111 0.0580397 0 0 0 0 0 -0.240296 0 0 -0.0552336 0 0 0 0.00813146 
76 1 1 0.0313465 0.0404174 0.0647048 0 0 0 0 0 -0.240296 0 0 -0.0552336 0 0 0 0.00813146 
327 1 1 -0.0379102 0.0440646 0.0620746 0 0 0 0 0 -0.240296 0 0 -0.0134848 0 0 0 0.00508216 
126 1 1 -0.0148126 0.0439456 0.0621126 0 0 0 0 0 -0.240296 0 0 -0.0134848 0 0 0 0.00508216 
158 1 1 0.00652377 0.0449221 0.0640905 0 0 0 0 -0.00308306 -0.237324 0 -0.000363956 -0.0133028 1.46762 0 0 0.00508216 
6 1 1 -0.0215944 -0.0377404 0.0669054 0 0 0 0 0 -0.240296 0 0 -0.0552336 0 0 0 0.00813146 
56 1 1 0.00625104 -0.0388468 0.073669 0 0 0 0 0 -0.240296 0 0 -0.0552336 0 0 0 0.00813146 
283 1 1 0.0344894 -0.0364612 0.0659753 0 0 0 0 0 -0.240296 0 0 -0.0134848 0 0 0 0.00508216 
307 1 1 -0.0128294 -0.0242639 0.0681038 0 0 0 0 0 -0.240296 0 0 -0.0134848 0 0 0 0.00508216 
337 1 1 -0.0060656 -0.0314908 0.0655125 0 0 0 -0.00296509 -0.00277382 -0.234613 -0.000310845 -0.000290794 -0.012889 -3.75765e-14 4.17339e-14 7.64611e-16 0.00508216 
91 1 1 0.0238395 -0.0295294 0.0713561 0 0 0 0 0 -0.240296 0 0 -0.0552336 0 0 0 0.00813146 
326 1 1 0.0428617 -0.0238533 0.0688309 0 0 0 0 0 -0.240296 0 0 -0.0134848 0 0 0 0.00508216 
36 1 1 -0.0381517 -0.0154818 0.0689725 0 0 0 0 0 -0.240296 0 0 -0.0552336 0 0 0 0.00813146 
26 1 1 -6.62862e-05 -0.0140715 0.0716691 0 0 0 0 0 -0.240296 0 0 -0.0552336 0 0 0 0.00813146 
215 1 1 0.0295226 -0.0144583 0.0719543 0 0 0 0 0 -0.240296 0 0 -0.0134848 0 0 0 0.00508216 
182 1 1 -0.0245857 -0.011775 0.068835 0 0 0 0 0 -0.240296 0 0 -0.0134848 0 0 0 0.00508216 
197 1 1 -0.0154165 -0.00546226 0.0658695 0 0 0 0 0 -0.240296 0 0 -0.0134848 0 0 0 0.00508216 
276 1 1 0.014428 -0.00937105 0.0731009 0 0 0 0 0 -0.240296 0 0 -0.0134848 0 0 0 0.00508216 
87 1 1 0.0348154 -0.00162057 0.0745386 0 0 0 -0.00210279 0.00331826 -0.237288 -0.00487297 0.00622144 -0.0455934 -0.0308993 -0.013068 -0.00718559 0.00813146 
32 1 1 -0.0357228 0.00649715 0.0683746 0 0 0 0 0 -0.240296 0 0 -0.0552336 0 0 0 0.00813146 
57 1 1 -0.0100443 0.0110523 0.0709848 0 0 0 -0.000638085 -0.000165577 -0.239197 -0.000267375 -6.82021e-05 -0.0547898 4.26798e-06 -3.11645e-05 -2.2179e-06 0.00813146 
233 1 1 0.00287591 0.0126656 0.0731782 0 0 0 0.00798284 0.000972081 -0.238593 0.000724999 9.03189e-05 -0.0133587 -0.0225684 0.164792 0.0117279 0.00508216 
291 1 1 0.0418759 0.00849624 0.0664825 0 0 0 0 0 -0.240296 0 0 -0.0134848 0 0 0 0.00508216 
335 1 1 -0.0280227 0.0221394 0.0683633 0 0 0 0 0 -0.240296 0 0 -0.0134848 0 0 0 0.00508216 
117 1 1 -0.0105713 0.0275123 0.0711345 0 0 0 0 0 -0.240296 0 0 -0.0552336 0 0 0 0.00813146 
322 1 1 0.0432571 0.0229131 0.0722116 0 0 0 0 0 -0.240296 0 0 -0.0134848 0 0 0 0.00508216 
122 1 1 -0.0249159 0.0388111 0.0694424 0 0 0 6.57829e-07 -4.70479e-06 -0.240319 3.43002e-05 -0.000245315 -0.0564577 2.85222e-19 8.00505e-20 -8.04978e-21 0.00813146 
315 1 1 -0.000253583 0.0380258 0.0712154 0 0 0 0 0 -0.240296 0 0 -0.0134848 0 0 0 0.00508216 
113 1 1 0.0165965 0.0366038 0.0731669 0 0 0 0 0 -0.240296 0 0 -0.0552336 0 0 0 0.00813146 
265 1 1 0.014652 -0.0432494 0.0835348 0 0 0 0 0 -0.240296 0 0 -0.0134848 0 0 0 0.00508216 
84 1 1 -0.0382957 -0.0356933 0.0754471 0 0 0 0 0 -0.240296 0 0 -0.0552336 0 0 0 0.00813146 
49 1 1 0.0375297 -0.0383468 0.0803416 0 0 0 0 0 -0.240296 0 0 -0.0552336 0 0 0 0.00813146 
75 1 1 -0.0262822 -0.0253701 0.0791864 0 0 0 0 0 -0.240296 0 0 -0.0552336 0 0 0 0.00813146 
137 1 1 -0.00363123 -0.0300467 0.080745 0 0 0 0 0 -0.240296 0 0 -0.0134848 0 0 0 0.00508216 
147 1 1 -0.039794 -0.0179325 0.083806 0 0 0 0 0 -0.240296 0 0 -0.0134848 0 0 0 0.00508216 
204 1 1 -0.0107942 -0.0174805 0.0795506 0 0 0 0 0 -0.240296 0 0 -0.0134848 0 0 0 0.00508216 
217 1 1 0.0396214 -0.0138248 0.0760668 0 0 0 0.00199421 -0.00553639 -0.238803 -0.000466583 0.000836355 -0.0129994 0.363027 0.153531 0.0844212 0.00508216 
145 1 1 -0.0307201 -0.0128574 0.0807315 0 0 0 0 0 -0.240296 0 0 -0.0134848 0 0 0 0.00508216 
220 1 1 -0.0374843 0.00171989 0.0813262 0 0 0 0 0 -0.240296 0 0 -0.0134848 0 0 0 0.00508216 
53 1 1 -0.0210984 -0.00118973 0.0784671 0 0 0 0 0 -0.240296 0 0 -0.0552336 0 0 0 0.00813146 
45 1 1 0.0314343 0.0166123 0.0762214 0 0 0 0 0 -0.240296 0 0 -0.0552336 0 0 0 0.00813146 
338 1 1 0.0445718 0.0180464 0.0811677 0 0 0 0 0 -0.240296 0 0 -0.0134848 0 0 0 0.00508216 
250 1 1 -0.0226139 0.0282147 0.0799651 0 0 0 0 0 -0.240296 0 0 -0.0134848 0 0 0 0.00508216 
140 1 1 0.0108541 0.0242341 0.0766674 0 0 0 0 0 -0.240296 0 0 -0.0134848 0 0 0 0.00508216 
39 1 1 -0.0393506 0.0352058 0.0773833 0 0 0 0 0 -0.240296 0 0 -0.0552336 0 0 0 0.00813146 
35 1 1 -0.0126116 0.0370565 0.0842175 0 0 0 0 0 -0.240296 0 0 -0.0552336 0 0 0 0.00813146 
154 1 1 0.027479 0.0388057 0.0829548 0 0 0 0 0 -0.240296 0 0 -0.0134848 0 0 0 0.00508216 
195 1 1 0.0389143 0.0324035 0.0798386 0 0 0 0 0 -0.240296 0 0 -0.0134848 0 0 0 0.00508216 
174 1 1 -0.0252787 0.0414058 0.0823904 0 0 0 -2.69447e-06 1.92708e-05 -0.2402 -3.43002e-05 0.000245315 -0.0122606 1.86901e-18 5.24558e-19 -5.27489e-20 0.00508216 
124 1 1 0.0420088 0.042441 0.0807018 0 0 0 0 0 -0.240296 0 0 -0.0134848 0 0 0 0.00508216 
252 1 1 -0.0341074 -0.0434334 0.0932343 0 0 0 0 0 -0.240296 0 0 -0.0134848 0 0 0 0.00508216 
79 1 1 -0.0176142 -0.0414344 0.0903902 0 0 0 0 0 -0.240296 0 0 -0.0552336 0 0 0 0.00813146 
190 1 1 0.000515076 -0.0431242 0.0889496 0 0 0 0 0 -0.240296 0 0 -0.0134848 0 0 0 0.00508216 
189 1 1 0.022815 -0.0350564 0.0854475 0 0 0 -0.00108589 -0.00139162 -0.243144 -0.000127953 -0.000163978 -0.0138203 -4.8247e-14 3.17912e-14 2.862e-15 0.00508216 
230 1 1 -0.0418354 -0.0281007 0.0905485 0 0 0 0 0 -0.240296 0 0 -0.0134848 0 0 0 0.00508216 
313 1 1 -0.0111159 -0.0253459 0.0885432 0 0 0 0 0 -0.240296 0 0 -0.0134848 0 0 0 0.00508216 
227 1 1 0.0105119 -0.0261492 0.0876355 0 0 0 0 0 -0.240296 0 0 -0.0134848 0 0 0 0.00508216 
209 1 1 0.0100426 -0.0144994 0.0851509 0 0 0 0 0 -0.240296 0 0 -0.0134848 0 0 0 0.00508216 
59 1 1 0.0243646 -0.0153886 0.0857809 0 0 0 -0.000568175 0.000345418 -0.241899 -0.00030248 0.000183891 -0.056087 5.60294e-16 -7.91595e-17 -2.15641e-16 0.00813146 
247 1 1 0.0363883 -0.0216333 0.0866129 0 0 0 0 0 -0.240296 0 0 -0.0134848 0 0 0 0.00508216 
196 1 1 -0.0200099 -0.00674635 0.0931046 0 0 0 0 0 -0.240296 0 0 -0.0134848 0 0 0 0.00508216 
295 1 1 -0.00320175 -0.0118873 0.0884955 0 0 0 0 0 -0.240296 0 0 -0.0134848 0 0 0 0.00508216 
148 1 1 0.0440706 -0.00493793 0.0843384 0 0 0 0 0 -0.240296 0 0 -0.0134848 0 0 0 0.00508216 
22 1 1 0.00672359 0.00340981 0.0851194 0 0 0 0 0 -0.240296 0 0 -0.0552336 0 0 0 0.00813146 
123 1 1 0.0257625 0.00429993 0.0915694 0 0 0 -0.00458464 -0.00255506 -0.241077 -0.00115819 -0.000645472 -0.0554308 3.40837e-15 -5.22416e-15 -2.91823e-15 0.00813146 
312 1 1 -0.0220558 0.00846736 0.0884775 0 0 0 0 0 -0.240296 0 0 -0.0134848 0 0 0 0.00508216 
333 1 1 -0.00325388 0.0120493 0.0914857 0 0 0 0 0 -0.240296 0 0 -0.0134848 0 0 0 0.00508216 
63 1 1 -0.0344071 0.0201469 0.0852101 0 0 0 0 0 -0.240296 0 0 -0.0552336 0 0 0 0.00813146 
62 1 1 -0.0128982 0.0195936 0.0857803 0 0 0 0 0 -0.240296 0 0 -0.0552336 0 0 0 0.00813146 
263 1 1 0.00682569 0.0193914 0.0879577 0 0 0 0 0 -0.240296 0 0 -0.0134848 0 0 0 0.00508216 
266 1 1 0.0144063 0.0263379 0.0863823 0 0 0 0.00551375 -0.00430462 -0.240013 0.000558385 -0.000435934 -0.0134562 5.14673e-14 6.67135e-14 1.20295e-14 0.00508216 
82 1 1 0.0286385 0.0274834 0.0912689 0 0 0 0 0 -0.240296 0 0 -0.0552336 0 0 0 0.00813146 
198 1 1 -0.0259991 0.0335641 0.0893313 0 0 0 0 0 -0.240296 0 0 -0.0134848 0 0 0 0.00508216 
46 1 1 0.00400689 0.0344567 0.0858496 0 0 0 -0.00134613 0.00105093 -0.240365 -0.000558385 0.000435934 -0.0552622 7.85677e-15 1.01842e-14 1.83607e-15 0.00813146 
188 1 1 -0.0266813 -0.0324856 0.0939792 0 0 0 0 0 -0.240296 0 0 -0.0134848 0 0 0 0.00508216 
109 1 1 0.0138074 -0.0384174 0.0999103 0 0 0 0 0 -0.240296 0 0 -0.0552336 0 0 0 0.00813146 
165 1 1 0.0362744 -0.0355914 0.0942106 0 0 0 0 0 -0.240296 0 0 -0.0134848 0 0 0 0.00508216 
41 1 1 -0.0184639 -0.0235902 0.102185 0 0 0 0 0 -0.240296 0 0 -0.0552336 0 0 0 0.00813146 
44 1 1 0.000170875 -0.0281064 0.096537 0 0 0 0 0 -0.240296 0 0 -0.0552336 0 0 0 0.00813146 
205 1 1 0.0119519 -0.0250776 0.102178 0 0 0 0 0 -0.240296 0 0 -0.0134848 0 0 0 0.00508216 
143 1 1 0.0261072 -0.0308373 0.094081 0 0 0 0.00108589 0.00139162 -0.237448 0.000127953 0.000163978 -0.0131492 -4.8247e-14 3.17912e-14 2.862e-15 0.00508216 
285 1 1 -0.0448811 -0.0171348 0.0947243 0 0 0 0 0 -0.240296 0 0 -0.0134848 0 0 0 0.00508216 
170 1 1 0.0286872 -0.0180166 0.097977 0 0 0 0.00232724 -0.00141483 -0.23373 0.00030248 -0.000183891 -0.0126313 3.66977e-15 -5.19878e-16 -1.41269e-15 0.00508216 
169 1 1 0.0440342 -0.0175274 0.0970547 0 0 0 0 0 -0.240296 0 0 -0.0134848 0 0 0 0.00508216 
223 1 1 -0.0109188 -0.0115954 0.0951691 0 0 0 0 0 -0.240296 0 0 -0.0134848 0 0 0 0.00508216 
185 1 1 0.0138686 -0.0105482 0.095443 0 0 0 0 0 -0.240296 0 0 -0.0134848 0 0 0 0.00508216 
325 1 1 0.0422676 -0.00782889 0.101775 0 0 0 0 0 -0.240296 0 0 -0.0134848 0 0 0 0.00508216 
111 1 1 -0.0343607 -0.000968929 0.0948775 0 0 0 0 0 -0.240296 0 0 -0.0552336 0 0 0 0.00813146 
306 1 1 -0.040173 0.012472 0.096576 0 0 0 0 0 -0.240296 0 0 -0.0134848 0 0 0 0.00508216 
153 1 1 -0.0246441 0.00580828 0.10159 0 0 0 0 0 -0.240296 0 0 -0.0134848 0 0 0 0.00508216 
287 1 1 0.00950234 0.00576649 0.0980836 0 0 0 0 0 -0.240296 0 0 -0.0134848 0 0 0 0.00508216 
33 1 1 0.0398005 0.0121234 0.0939597 0 0 0 0.00458464 0.00255506 -0.239515 0.00115819 0.000645472 -0.0550364 3.40837e-15 -5.22416e-15 -2.91823e-15 0.00813146 
206 1 1 -0.0251312 0.0196475 0.0957724 0 0 0 0 0 -0.240296 0 0 -0.0134848 0 0 0 0.00508216 
280 1 1 -0.0444501 0.0275669 0.0983568 0 0 0 0 0 -0.240296 0 0 -0.0134848 0 0 0 0.00508216 
281 1 1 0.0381233 0.0376639 0.0983869 0 0 0 0 0 -0.240296 0 0 -0.0134848 0 0 0 0.00508216 
64 1 1 -0.0335074 0.041877 0.101347 0 0 0 0 -0.00547819 -0.236097 0 0.00165901 -0.0544041 1.29543 0 0 0.00813146 
194 1 1 -0.00746468 0.041091 0.0966128 0 0 0 0 0 -0.240296 0 0 -0.0134848 0 0 0 0.00508216 
302 1 1 0.0253015 0.0426858 0.102844 0 0 0 0 0 -0.240296 0 0 -0.0134848 0 0 0 0.00508216 
163 1 1 -0.0237247 -0.0414279 0.10406 0 0 0 0 0 -0.240296 0 0 -0.0134848 0 0 0 0.00508216 
156 1 1 -0.0433591 -0.0363526 0.104274 0 0 0 0 0 -0.240296 0 0 -0.0134848 0 0 0 0.00508216 
212 1 1 -0.0112176 -0.0345138 0.110902 0 0 0 0 0 -0.240296 0 0 -0.0134848 0 0 0 0.00508216 
272 1 1 0.030004 -0.0329449 0.103875 0 0 0 -0.00254408 0.00192648 -0.241296 -0.000306798 0.000232319 -0.0136053 -3.00642e-14 -3.32239e-14 1.24816e-14 0.00508216 
186 1 1 0.0377314 -0.0387964 0.106912 0 0 0 0.00254408 -0.00192648 -0.239296 0.000306798 -0.000232319 -0.0133642 -3.00642e-14 -3.32239e-14 1.24816e-14 0.00508216 
48 1 1 -0.0341121 -0.0228758 0.112026 0 0 0 0 0 -0.240296 0 0 -0.0552336 0 0 0 0.00813146 
235 1 1 -0.00167923 -0.0228936 0.112217 0 0 0 0 0 -0.240296 0 0 -0.0134848 0 0 0 0.00508216 
135 1 1 0.021287 -0.0286533 0.107651 0 0 0 0 0 -0.240296 0 0 -0.0134848 0 0 0 0.00508216 
264 1 1 -0.0419635 -0.00860917 0.108763 0 0 0 0.000317966 0.000908199 -0.243369 -1.07923e-05 -3.08257e-05 -0.0133805 -6.36674e-15 1.31005e-14 3.21315e-15 0.00508216 
21 1 1 -0.0201588 -0.00866756 0.108625 0 0 0 0 0 -0.240296 0 0 -0.0552336 0 0 0 0.00813146 
90 1 1 0.000232514 -0.0116464 0.102996 0 0 0 0.000122355 -0.0016393 -0.240872 6.10683e-05 -0.000818191 -0.0555213 -2.10761e-15 -1.66381e-16 2.58037e-17 0.00813146 
253 1 1 0.0297251 -0.00994694 0.104712 0 0 0 0 0 -0.240296 0 0 -0.0134848 0 0 0 0.00508216 
238 1 1 -0.000694896 0.000779031 0.107365 0 0 0 -0.000501165 0.00671459 -0.237935 -6.10683e-05 0.000818191 -0.0131971 -1.37948e-14 -1.08907e-15 1.69073e-16 0.00508216 
29 1 1 0.0191169 -0.00148596 0.110244 0 0 0 0 0 -0.240296 0 0 -0.0552336 0 0 0 0.00813146 
89 1 1 -0.0378706 0.00959867 0.109333 0 0 0 0 0 -0.240296 0 0 -0.0552336 0 0 0 0.00813146 
70 1 1 -0.00755569 0.0114373 0.112073 0 0 0 0 0 -0.240296 0 0 -0.0552336 0 0 0 0.00813146 
37 1 1 0.039228 0.00532663 0.109031 0 0 0 0 0 -0.240296 0 0 -0.0552336 0 0 0 0.00813146 
138 1 1 -0.0214365 0.0175001 0.10902 0 0 0 0 0 -0.240296 0 0 -0.0134848 0 0 0 0.00508216 
27 1 1 0.00953859 0.0150368 0.107603 0 0 0 0 0 -0.240296 0 0 -0.0552336 0 0 0 0.00813146 
270 1 1 -0.033568 0.0228847 0.107187 0 0 0 0 0 -0.240296 0 0 -0.0134848 0 0 0 0.00508216 
241 1 1 -0.0406478 0.0329759 0.11047 0 0 0 0 0 -0.240296 0 0 -0.0134848 0 0 0 0.00508216 
68 1 1 -0.0169434 0.0321367 0.104123 0 0 0 0 0 -0.240296 0 0 -0.0552336 0 0 0 0.00813146 
151 1 1 0.00156082 0.0326604 0.108301 0 0 0 0 0 -0.240296 0 0 -0.0134848 0 0 0 0.00508216 
12 1 1 0.0162332 0.0319286 0.107938 0 0 0 0 0 -0.240296 0 0 -0.0552336 0 0 0 0.00813146 
308 1 1 0.00373908 0.0427277 0.10865 0 0 0 0 0 -0.240296 0 0 -0.0134848 0 0 0 0.00508216 
216 1 1 0.0363801 0.0411094 0.111482 0 0 0 0 0 -0.240296 0 0 -0.0134848 0 0 0 0.00508216 
85 1 1 -0.033435 -0.0414988 0.116114 0 0 0 0 0 -0.240296 0 0 -0.0552336 0 0 0 0.00813146 
172 1 1 -0.00256696 -0.0428257 0.114363 0 0 0 0 0 -0.240296 0 0 -0.0134848 0 0 0 0.00508216 
213 1 1 0.0188587 -0.0424271 0.114575 0 0 0 0 0 -0.240296 0 0 -0.0134848 0 0 0 0.00508216 
226 1 1 0.0447704 -0.0435931 0.118656 0 0 0 0 0 -0.240296 0 0 -0.0134848 0 0 0 0.00508216 
234 1 1 -0.0417821 -0.0323476 0.121709 0 0 0 0 0 -0.240296 0 0 -0.0134848 0 0 0 0.00508216 
88 1 1 0.00755449 -0.0317052 0.116926 0 0 0 0 0 -0.240296 0 0 -0.0552336 0 0 0 0.00813146 
34 1 1 0.0407376 -0.0227746 0.112425 0 0 0 0 0 -0.240296 0 0 -0.0552336 0 0 0 0.00813146 
218 1 1 -0.0429666 -0.0114744 0.118457 0 0 0 -0.000317966 -0.000908199 -0.237223 1.07923e-05 3.08257e-05 -0.0135891 -6.36674e-15 1.31005e-14 3.21315e-15 0.00508216 
14 1 1 -0.028143 0.000358946 0.121261 0 0 0 0 0 -0.240296 0 0 -0.0552336 0 0 0 0.00813146 
159 1 1 0.0075506 0.00296492 0.119127 0 0 0 0 0 -0.240296 0 0 -0.0134848 0 0 0 0.00508216 
166 1 1 0.0220212 0.0100631 0.118913 0 0 0 0 0 -0.240296 0 0 -0.0134848 0 0 0 0.00508216 
304 1 1 -0.0447004 0.0196663 0.118979 0 0 0 0 0 -0.240296 0 0 -0.0134848 0 0 0 0.00508216 
20 1 1 -0.00594818 0.0289304 0.120928 0 0 0 0 0 -0.240296 0 0 -0.0552336 0 0 0 0.00813146 
118 1 1 0.0329998 0.0279305 0.113679 0 0 0 0 0 -0.240296 0 0 -0.0552336 0 0 0 0.00813146 
334 1 1 0.0404499 0.0413478 0.121095 0 0 0 0 0 -0.240296 0 0 -0.0134848 0 0 0 0.00508216 
277 1 1 -0.0032809 -0.0420578 0.125056 0 0 0 0 0 -0.240296 0 0 -0.0134848 0 0 0 0.00508216 
251 1 1 0.0113559 -0.0419209 0.12598 0 0 0 0 0 -0.240296 0 0 -0.0134848 0 0 0 0.00508216 
72 1 1 -0.018289 -0.0400552 0.124188 0 0 0 -0.000326001 -0.00106186 -0.241427 -0.000222409 -0.000724433 -0.0560054 -1.24012e-14 3.88772e-15 -7.54729e-17 0.00813146 
221 1 1 0.019597 -0.0333351 0.127254 0 0 0 0 0 -0.240296 0 0 -0.0134848 0 0 0 0.00508216 
13 1 1 0.0326924 -0.0381369 0.121811 0 0 0 0 0 -0.240296 0 0 -0.0552336 0 0 0 0.00813146 