ITEM: TIMESTEP
66150
ITEM: NUMBER OF ATOMS
338
ITEM: BOX BOUNDS mm mm mm
-0.05 0.05
-0.05 0.05
0 0.15
ITEM: ATOMS id type type x y z ix iy iz vx vy vz fx fy fz omegax omegay omegaz radius 
131 1 1 -0.0257481 -0.0400546 0.00560327 0 0 0 4.95802e-07 8.85558e-07 1.48791e-06 2.06806e-06 4.02265e-06 5.31028e-06 -9.77173e-05 1.86609e-06 -7.45382e-06 0.00694698 
319 1 1 -0.0146874 -0.0445409 0.00605301 0 0 0 2.42238e-07 4.1457e-07 8.85147e-07 9.99472e-07 1.95454e-06 3.31873e-06 2.40388e-05 6.12618e-05 -3.79027e-05 0.00694698 
243 1 1 -0.00279117 -0.043873 0.00610439 0 0 0 1.20615e-07 8.31215e-08 6.88818e-07 -7.96811e-08 1.30568e-06 2.76823e-06 6.97148e-05 -5.65725e-05 1.19925e-06 0.00694698 
260 1 1 0.0252546 -0.0438307 0.00594049 0 0 0 1.6646e-07 2.3246e-07 7.3994e-07 -5.0113e-07 2.00992e-06 3.22938e-06 6.49821e-05 2.16621e-05 -3.32224e-06 0.00694698 
78 1 1 0.0413085 -0.0407811 0.00927582 0 0 0 1.53662e-07 1.08139e-07 5.43252e-07 -1.25709e-06 5.2798e-06 9.81376e-06 3.1048e-05 4.44467e-05 -2.25768e-05 0.0111152 
74 1 1 -0.040828 -0.0367696 0.0095971 0 0 0 6.58395e-07 6.56333e-07 8.62556e-07 1.13867e-05 1.34445e-05 1.43147e-05 3.48868e-06 -9.68941e-06 1.56623e-06 0.0111152 
296 1 1 -0.0274829 -0.0274567 0.00612189 0 0 0 7.90571e-07 9.30667e-07 1.74972e-06 2.91e-06 4.20251e-06 5.10764e-06 -8.32292e-05 -5.87845e-05 3.20685e-05 0.00694698 
173 1 1 -0.0155729 -0.0319598 0.0055745 0 0 0 6.57038e-07 6.88244e-07 2.08684e-06 2.39604e-06 3.81512e-06 6.22592e-06 4.10701e-05 7.23068e-05 -6.02909e-05 0.00694698 
275 1 1 -0.0035902 -0.0297747 0.00572447 0 0 0 6.95487e-07 4.76596e-07 1.91123e-06 1.83937e-06 4.81345e-06 6.28173e-06 5.68134e-05 2.00566e-05 -1.65696e-05 0.00694698 
60 1 1 0.0105837 -0.0360376 0.00947775 0 0 0 4.84513e-07 1.53265e-07 1.88108e-06 1.19586e-06 1.49599e-05 3.0784e-05 5.50315e-05 4.50263e-05 -1.83914e-05 0.0111152 
102 1 1 -0.0405428 -0.0169477 0.00905849 0 0 0 7.16172e-07 8.33456e-07 7.27122e-07 8.78312e-06 1.56782e-05 8.55758e-06 -7.18079e-05 5.61177e-05 4.49987e-05 0.0111152 
328 1 1 -0.0254333 -0.01519 0.00543683 0 0 0 9.63197e-07 8.56294e-07 1.06505e-06 2.78014e-06 4.46064e-06 1.90514e-06 -0.000103128 -0.000133306 -8.7392e-05 0.00694698 
40 1 1 -0.0106765 -0.0158183 0.0106462 0 0 0 1.32702e-06 3.41484e-07 4.04399e-06 1.28407e-05 2.29683e-05 4.69227e-05 6.32622e-05 -1.84643e-05 -2.25474e-06 0.0111152 
279 1 1 0.00440774 -0.0207351 0.0109054 0 0 0 1.21682e-06 3.06122e-07 4.86165e-06 2.96353e-06 6.116e-06 1.4037e-05 0.000329919 -5.06749e-05 -5.15888e-05 0.00694698 
267 1 1 0.0155005 -0.0199622 0.00561743 0 0 0 4.51338e-07 4.97744e-07 3.10373e-06 9.08019e-07 4.58036e-06 8.50685e-06 0.000108813 0.000124141 -5.1243e-06 0.00694698 
144 1 1 0.0430495 -0.0248667 0.00596798 0 0 0 4.24378e-07 1.95415e-07 8.91526e-07 6.18117e-07 1.43459e-06 3.06872e-06 1.07587e-05 0.000150711 -4.40168e-05 0.00694698 
202 1 1 0.0452017 -0.0129601 0.00612949 0 0 0 2.1808e-07 3.46884e-07 6.28842e-07 4.42656e-07 1.15517e-06 1.69762e-06 -7.27785e-05 9.0956e-05 3.65944e-05 0.00694698 
257 1 1 -0.0442073 -0.00104702 0.00624945 0 0 0 2.08017e-07 -2.07324e-07 1.03336e-06 2.53149e-07 4.74538e-07 1.61736e-06 0.000140201 -0.000186288 -4.32338e-05 0.00694698 
274 1 1 -0.0220225 -0.00377881 0.00775192 0 0 0 1.77519e-06 5.19827e-07 4.81217e-06 2.39492e-06 4.41708e-06 1.34404e-05 0.000550866 -0.000492631 -3.98692e-05 0.00694698 
50 1 1 0.0305736 -0.00918802 0.00973542 0 0 0 5.37354e-07 -8.3209e-08 2.24979e-06 5.96246e-06 1.0487e-05 2.51374e-05 -4.43219e-05 7.04648e-05 9.25988e-06 0.0111152 
232 1 1 -0.0434387 0.0118756 0.00626165 0 0 0 9.55702e-07 -7.01886e-07 2.21755e-06 1.7464e-06 -5.51108e-07 3.86975e-06 9.28501e-05 -4.15704e-05 -0.000124668 0.00694698 
268 1 1 -0.0326769 0.00368232 0.00609411 0 0 0 1.50617e-06 -3.7577e-08 4.8447e-06 1.93578e-06 2.02865e-06 1.08979e-05 0.000165875 3.259e-05 0.000147793 0.00694698 
171 1 1 -0.021197 0.00798668 0.00823468 0 0 0 3.30381e-06 3.48026e-07 8.99472e-06 5.52007e-06 3.87841e-06 2.20354e-05 9.69086e-05 -0.000229636 -0.000160907 0.00694698 
164 1 1 0.0205999 0.00173767 0.00544625 0 0 0 4.21883e-07 -4.1258e-07 2.65706e-06 1.66553e-06 2.06779e-06 5.41008e-06 1.32233e-05 0.00022794 -6.29471e-05 0.00694698 
297 1 1 -0.0253905 0.019586 0.00549866 0 0 0 2.79495e-06 -3.14809e-07 7.43451e-06 5.50869e-06 1.58395e-06 1.29812e-05 -4.7065e-05 0.000305088 0.000146707 0.00694698 
222 1 1 -0.0108508 0.0145911 0.0054557 0 0 0 2.47409e-06 6.43362e-08 6.92504e-06 5.07875e-06 2.12848e-06 1.34948e-05 -0.000258509 0.000441657 0.000136368 0.00694698 
290 1 1 -0.000799307 0.0214674 0.00523785 0 0 0 1.24624e-06 -5.00563e-07 4.93591e-06 2.85027e-06 8.51305e-07 7.77607e-06 -6.82147e-05 -8.70923e-05 -7.48247e-05 0.00694698 
98 1 1 0.0122233 0.0135227 0.00979352 0 0 0 1.78084e-06 -6.73329e-07 6.399e-06 2.18664e-05 1.54749e-05 4.55794e-05 -3.97476e-05 0.000356062 5.2108e-05 0.0111152 
316 1 1 0.0321802 0.019578 0.00502883 0 0 0 2.68284e-07 -4.70984e-07 1.35668e-06 5.39327e-07 1.79395e-06 1.4018e-06 0.000136364 6.78551e-05 7.2899e-05 0.00694698 
162 1 1 0.0446349 0.0202023 0.00544624 0 0 0 2.32526e-07 -2.69489e-09 1.18016e-06 3.34222e-07 1.4562e-06 1.76281e-06 -0.000222234 0.000127386 2.57204e-05 0.00694698 
294 1 1 -0.0439424 0.0252727 0.0061394 0 0 0 1.38111e-06 -1.08404e-06 1.64844e-06 1.87931e-06 -1.48675e-06 1.95266e-06 4.78945e-05 9.62472e-05 -3.55093e-05 0.00694698 
175 1 1 -0.0327496 0.0313742 0.00614204 0 0 0 1.51241e-06 -2.48743e-06 3.21555e-06 2.61857e-06 -4.37858e-06 3.37458e-06 0.000473026 4.92899e-05 -4.30418e-05 0.00694698 
255 1 1 -0.0148477 0.0261367 0.00587597 0 0 0 1.85679e-06 -1.91016e-07 4.79077e-06 3.13777e-06 1.34545e-06 6.72447e-06 -0.000259839 0.000324278 9.76592e-05 0.00694698 
324 1 1 -0.00330543 0.0326855 0.0056693 0 0 0 5.69031e-07 6.48422e-07 1.39873e-06 1.03971e-06 1.95126e-06 1.7403e-06 -0.000255841 -4.48797e-05 0.000123072 0.00694698 
161 1 1 0.00824506 0.0320298 0.00644882 0 0 0 -2.43018e-07 4.4827e-07 3.80608e-06 9.15381e-07 3.6433e-06 6.14395e-06 -0.000390624 -0.000107144 -0.00031081 0.00694698 
77 1 1 0.0226325 0.0295981 0.012343 0 0 0 7.87788e-08 -1.59744e-06 4.59705e-06 1.06891e-05 5.00912e-06 2.22231e-05 0.000108188 3.839e-05 2.06562e-05 0.0111152 
155 1 1 0.0376085 0.0311764 0.00564482 0 0 0 -1.63572e-07 -4.59867e-07 1.88437e-06 8.05325e-07 1.7349e-06 8.41626e-07 9.6766e-05 0.000111278 1.35715e-05 0.00694698 
321 1 1 -0.04402 0.0437755 0.0062938 0 0 0 8.84478e-07 -2.91017e-07 1.10056e-06 1.12526e-06 -8.06903e-07 1.62848e-06 -0.000115173 5.62942e-05 0.000113463 0.00694698 
207 1 1 -0.0314325 0.0439672 0.0063741 0 0 0 4.46618e-07 -4.89449e-07 1.90254e-06 1.03175e-06 -7.53868e-07 2.19201e-06 -0.000272021 -7.14995e-05 -1.04095e-05 0.00694698 
38 1 1 -0.0153313 0.0415941 0.00979059 0 0 0 5.82586e-07 -1.71591e-07 1.41864e-06 1.12806e-06 4.00474e-06 2.44e-06 -7.44294e-05 0.000162971 0.000111217 0.0111152 
149 1 1 0.0120644 0.043872 0.00543326 0 0 0 5.70453e-07 -4.78031e-07 8.30493e-07 1.16169e-06 5.04518e-09 6.27966e-07 1.9464e-05 -2.36628e-06 9.85902e-06 0.00694698 
237 1 1 0.0011871 0.0437539 0.0121483 0 0 0 9.88948e-08 4.55893e-07 1.82242e-07 3.69907e-08 9.7367e-07 -1.24322e-07 -2.0575e-05 -0.000116669 -8.92431e-05 0.00694698 
249 1 1 0.0277053 0.0441438 0.00611632 0 0 0 -1.44249e-07 -1.01786e-06 2.28602e-06 6.55487e-07 3.23326e-07 3.3876e-06 -0.000100462 0.000106699 -4.59837e-05 0.00694698 
289 1 1 0.0443721 0.0422256 0.00592203 0 0 0 -2.40071e-07 -8.25497e-07 1.48627e-06 1.25995e-07 8.12322e-07 6.53672e-07 0.000153306 0.000128757 9.84488e-05 0.00694698 
331 1 1 -0.0432693 -0.0455642 0.0218634 0 0 0 4.26872e-07 4.0637e-07 3.80969e-07 2.18481e-06 2.16895e-06 2.05811e-06 4.21965e-05 -1.46654e-05 -2.33954e-05 0.00694698 
299 1 1 -0.0246085 -0.0451872 0.0168094 0 0 0 5.95505e-07 1.03464e-06 2.18984e-06 2.28009e-06 5.27585e-06 7.8053e-06 0.000279464 4.33256e-05 -6.35013e-05 0.00694698 
225 1 1 -0.0115498 -0.0442709 0.0185952 0 0 0 6.41229e-07 7.79793e-07 2.26392e-06 1.94217e-06 4.82246e-06 8.9839e-06 0.000120735 1.4782e-05 -1.91786e-05 0.00694698 
242 1 1 0.00106185 -0.0446807 0.0196824 0 0 0 7.15379e-07 -1.07617e-07 1.90745e-06 1.80535e-06 2.67443e-06 7.99236e-06 0.000320365 0.000122945 -0.000135241 0.00694698 
130 1 1 0.0208357 -0.0442058 0.0182027 0 0 0 2.86102e-07 -2.24816e-07 8.56031e-07 4.6834e-08 2.20246e-07 3.95069e-06 7.62998e-05 -2.87831e-05 6.28085e-06 0.00694698 
167 1 1 0.0319451 -0.0442251 0.0228862 0 0 0 1.31927e-07 4.2369e-08 1.09387e-06 -7.55419e-07 1.06524e-06 4.54969e-06 6.59287e-05 1.17705e-05 4.1495e-06 0.00694698 
136 1 1 0.0442903 -0.0447089 0.0241887 0 0 0 5.96445e-08 3.5901e-08 5.05405e-07 -8.48585e-07 1.11232e-06 2.56177e-06 4.43002e-05 1.83125e-05 5.22846e-06 0.00694698 
179 1 1 -0.0345746 -0.0262027 0.0213893 0 0 0 1.69487e-06 1.93615e-06 2.99093e-06 5.27631e-06 9.46993e-06 8.21048e-06 -5.40242e-05 -0.00024561 -1.8951e-05 0.00694698 
7 1 1 -0.0200353 -0.0304271 0.0211168 0 0 0 1.91132e-06 1.12541e-06 5.09431e-06 2.24087e-05 3.44088e-05 6.15371e-05 4.77335e-05 6.16687e-05 -9.27836e-05 0.0111152 
104 1 1 -0.000112756 -0.0285696 0.0247238 0 0 0 2.11605e-06 -4.2521e-08 5.11032e-06 2.21233e-05 2.88414e-05 7.09583e-05 4.54472e-06 7.6891e-05 -2.37171e-05 0.0111152 
67 1 1 0.0278423 -0.0280453 0.0126282 0 0 0 5.3848e-07 2.46224e-07 2.80164e-06 1.24573e-06 1.47523e-05 4.12106e-05 7.02308e-05 2.66603e-05 1.33734e-06 0.0111152 
128 1 1 -0.0450313 -0.0217266 0.0238335 0 0 0 1.05829e-06 7.83901e-07 1.1653e-06 2.98319e-06 4.14604e-06 3.35531e-06 -0.000166675 1.74185e-05 0.000174668 0.00694698 
278 1 1 0.0331688 -0.0161931 0.0241361 0 0 0 6.58746e-07 3.58196e-07 4.20493e-06 1.2525e-06 5.44831e-06 1.27477e-05 1.62382e-05 7.9295e-05 2.51614e-05 0.00694698 
146 1 1 -0.044873 -0.00919979 0.0224711 0 0 0 1.50344e-06 -1.24832e-06 5.19607e-06 3.19829e-06 8.51877e-07 1.22173e-05 0.00114491 -0.000657405 -0.00049327 0.00694698 
96 1 1 0.0119172 -0.00721234 0.0161321 0 0 0 2.61546e-06 -1.58527e-07 7.26356e-06 2.90223e-05 2.57069e-05 7.50097e-05 3.03092e-06 0.0003035 -2.53332e-05 0.0111152 
183 1 1 0.0447601 -0.00703515 0.017542 0 0 0 -4.80168e-07 1.05695e-07 2.0001e-06 -2.30948e-07 2.03193e-06 3.81332e-06 0.000346422 -6.58602e-06 0.00015526 0.00694698 
25 1 1 -0.0377542 0.00483183 0.022389 0 0 0 5.32166e-06 -3.71345e-07 1.23504e-05 4.75211e-05 2.30396e-05 0.000101206 -0.000207737 0.000238237 0.000137238 0.0111152 
17 1 1 -0.00526008 0.00256307 0.0144081 0 0 0 3.01788e-06 -2.46817e-07 9.95387e-06 2.97179e-05 2.54315e-05 9.79565e-05 0.0002183 -0.000127583 -0.000113322 0.0111152 
94 1 1 0.0384742 0.00842693 0.0134968 0 0 0 -1.25114e-06 2.67266e-07 3.62532e-06 -6.88361e-06 1.55395e-05 2.79152e-05 -6.94659e-05 -0.000515821 9.98683e-05 0.0111152 
300 1 1 -0.0447061 0.0189524 0.017051 0 0 0 2.48861e-06 -9.53589e-07 4.8179e-06 4.64859e-06 3.89643e-07 7.68021e-06 -0.000215194 -0.000314579 -0.000133161 0.00694698 
273 1 1 -0.0327467 0.0189504 0.0155433 0 0 0 4.53108e-06 -1.57888e-06 1.02659e-05 9.30799e-06 1.5487e-06 1.73789e-05 0.000174361 -0.000274642 -6.96392e-05 0.00694698 
28 1 1 -0.0168118 0.0183632 0.0204916 0 0 0 5.21752e-06 -9.20025e-07 1.27109e-05 4.85807e-05 2.80591e-05 9.34697e-05 9.78304e-05 2.85662e-05 3.75122e-05 0.0111152 
286 1 1 -0.00173315 0.0186073 0.0168811 0 0 0 4.09198e-06 -7.4881e-07 1.05474e-05 1.01466e-05 6.53889e-06 1.79494e-05 -0.000394887 0.000271593 2.5234e-05 0.00694698 
305 1 1 -0.0436936 0.0348177 0.0156113 0 0 0 1.11374e-06 -2.20001e-06 3.53096e-06 1.24931e-06 -4.16278e-06 3.32911e-06 0.000201584 -0.00048324 -0.000275669 0.00694698 
23 1 1 -0.0279413 0.0337349 0.0221096 0 0 0 3.56651e-06 -1.0938e-06 7.72507e-06 1.72986e-05 1.55012e-05 3.36081e-05 -0.000497776 0.000146264 0.000266684 0.0111152 
320 1 1 0.0037966 0.0296091 0.018379 0 0 0 4.82524e-07 -1.61466e-06 8.74739e-06 4.72468e-06 4.44003e-06 1.23928e-05 0.000797599 0.000268673 0.000600465 0.00694698 
284 1 1 0.0446347 0.0273726 0.015737 0 0 0 5.05624e-07 -1.13203e-06 1.25811e-06 1.56213e-06 1.39922e-06 -4.78286e-08 0.000377202 0.000122412 0.000209931 0.00694698 
239 1 1 0.0187751 0.0448273 0.0154887 0 0 0 -1.08872e-06 -1.68463e-06 3.39061e-06 -9.32326e-08 -1.99861e-07 4.76512e-06 -8.29472e-05 -0.000276828 7.89372e-05 0.00694698 
61 1 1 0.037083 0.0409697 0.0204872 0 0 0 -4.33089e-07 -1.81559e-06 3.31787e-06 9.0333e-06 -1.98192e-06 1.35729e-05 -0.000103664 -2.85635e-05 4.91995e-06 0.0111152 
224 1 1 -0.0437842 -0.0444768 0.0343523 0 0 0 2.32791e-07 -2.00624e-07 4.61002e-07 1.86231e-06 3.90109e-07 2.4483e-06 8.97509e-05 -3.29161e-05 -5.15515e-05 0.00694698 
256 1 1 -0.0327608 -0.0400947 0.0257175 0 0 0 4.33565e-07 3.40884e-07 2.79242e-06 2.20389e-06 4.3236e-06 9.77414e-06 0.000183371 -0.000314955 -2.0817e-05 0.00694698 
42 1 1 -0.0120031 -0.0408869 0.0355063 0 0 0 1.71892e-06 3.06747e-07 4.13134e-06 1.91946e-05 3.49499e-05 6.70091e-05 0.000226884 4.24073e-05 -0.000109706 0.0111152 
271 1 1 0.0313717 -0.040779 0.0343154 0 0 0 6.94712e-07 -1.9844e-09 2.59762e-06 -1.71483e-06 5.36115e-06 9.57179e-06 6.34359e-05 0.000101827 -3.17245e-05 0.00694698 
125 1 1 0.0438559 -0.0440726 0.0371343 0 0 0 5.4333e-07 -3.23771e-07 6.74339e-07 4.37226e-07 -4.52189e-08 3.29941e-06 7.89227e-05 9.5144e-05 -3.21613e-05 0.00694698 
180 1 1 -0.0442349 -0.0338853 0.0265895 0 0 0 7.83707e-07 5.00441e-07 1.21764e-06 3.16171e-06 3.06941e-06 4.44853e-06 0.000107735 -6.10138e-05 -2.18253e-05 0.00694698 
120 1 1 0.0409684 -0.0296039 0.0290176 0 0 0 2.93413e-07 -6.85162e-09 2.33126e-06 -3.00848e-06 9.8166e-06 3.42091e-05 6.86317e-05 0.000136592 -1.24836e-05 0.0111152 
178 1 1 -0.012639 -0.0206732 0.032126 0 0 0 3.86749e-06 -7.37319e-07 9.28594e-06 8.97101e-06 9.19107e-06 2.48524e-05 4.47022e-05 0.000133004 3.96331e-06 0.00694698 
51 1 1 0.0185589 -0.0226609 0.0301882 0 0 0 2.03147e-06 -4.91557e-07 6.32781e-06 1.32859e-05 3.23565e-05 8.48562e-05 0.000119688 1.03606e-05 -5.48384e-05 0.0111152 
134 1 1 0.0440827 -0.0143844 0.0325108 0 0 0 -1.50986e-07 -1.38318e-07 3.05757e-06 -8.66363e-07 1.8488e-06 7.85697e-06 9.2977e-05 0.000264747 0.000108998 0.00694698 
19 1 1 -0.0263969 -0.0120069 0.0273708 0 0 0 5.42531e-06 7.46713e-07 1.19834e-05 5.49478e-05 4.99521e-05 0.000112646 0.000603107 -0.000315184 -0.000210769 0.0111152 
310 1 1 -0.0104365 -0.00898783 0.0299637 0 0 0 5.03798e-06 -1.73231e-06 1.45954e-05 1.26351e-05 8.92254e-06 3.58432e-05 0.000902812 0.000579401 -3.87499e-05 0.00694698 
258 1 1 0.000949941 -0.012339 0.0275496 0 0 0 4.06161e-06 -5.37038e-07 8.00871e-06 1.01698e-05 9.17655e-06 2.15474e-05 0.00035585 6.75786e-05 -0.000116421 0.00694698 
18 1 1 0.0121869 -0.00447301 0.0369605 0 0 0 2.33536e-06 -3.58794e-06 1.1914e-05 2.99001e-05 2.90186e-05 0.000110389 0.000466058 -0.000258286 6.50433e-05 0.0111152 
184 1 1 0.0277391 -0.00806877 0.0328957 0 0 0 1.11513e-06 -1.08092e-06 9.35026e-06 3.12719e-06 5.56292e-06 2.2212e-05 0.000403307 0.000397958 6.81076e-05 0.00694698 
112 1 1 -0.0179402 0.00468419 0.0351754 0 0 0 7.39512e-06 -2.36244e-06 1.91547e-05 7.65267e-05 4.23809e-05 0.000170171 -0.000117154 -0.000133688 -0.000102374 0.0111152 
160 1 1 -0.00258795 0.000661755 0.0310723 0 0 0 4.6392e-06 -2.66191e-06 1.41015e-05 1.26408e-05 8.33995e-06 3.07138e-05 0.000100029 0.000618954 0.000100262 0.00694698 
55 1 1 0.0406908 0.00155576 0.0321766 0 0 0 -1.51289e-06 -3.9459e-07 5.72982e-06 -5.06743e-06 1.12686e-05 4.39917e-05 0.000100577 0.000422287 7.68079e-05 0.0111152 
2 1 1 -0.0316934 0.0196551 0.0354848 0 0 0 7.69096e-06 -3.2217e-07 1.44628e-05 6.84339e-05 4.33596e-05 0.000102547 -2.44955e-05 2.1067e-05 -1.3119e-05 0.0111152 
100 1 1 0.00652127 0.0141766 0.029828 0 0 0 3.52854e-06 -1.98018e-06 1.63756e-05 4.55513e-05 3.70494e-05 0.000119637 0.000252432 -0.000120951 -6.58642e-05 0.0111152 
261 1 1 0.043399 0.0180072 0.0268078 0 0 0 -3.75044e-06 3.38062e-07 5.0977e-06 -4.26574e-06 3.11552e-06 9.15778e-06 0.000129518 0.000407367 -3.26292e-05 0.00694698 
246 1 1 -0.0443139 0.0262016 0.0275324 0 0 0 4.35354e-06 -8.83301e-07 6.87503e-06 6.91395e-06 8.20637e-07 9.45762e-06 -9.68708e-05 -0.000491896 -0.00016987 0.00694698 
69 1 1 -0.00686328 0.0298272 0.0340232 0 0 0 3.7682e-06 -3.22567e-06 2.14986e-05 4.8234e-05 2.2052e-05 0.000140851 0.00021506 0.000229188 0.000105333 0.0111152 
108 1 1 0.0262495 0.0288961 0.0325398 0 0 0 -7.04921e-07 -2.14519e-06 8.93797e-06 1.88148e-05 3.02792e-06 5.16932e-05 -0.000285401 0.000116456 -6.20508e-05 0.0111152 
9 1 1 -0.0407958 0.0418491 0.032558 0 0 0 1.53261e-06 2.51523e-07 3.49876e-06 3.75437e-06 9.57783e-06 8.46297e-06 -0.000395587 -0.000228876 0.000186027 0.0111152 
323 1 1 -0.00700761 0.0443556 0.0261316 0 0 0 -6.77923e-07 -3.8991e-06 1.30287e-05 3.11474e-06 -2.10668e-06 1.9281e-05 -0.00192108 0.000705696 -9.44227e-05 0.00694698 
16 1 1 0.0103834 0.0409506 0.0288255 0 0 0 -6.47562e-07 -2.65481e-06 8.88706e-06 1.60644e-05 2.46754e-06 5.23207e-05 -0.000425029 0.000368721 1.2779e-05 0.0111152 
329 1 1 -0.0243337 -0.0448883 0.0452014 0 0 0 1.61945e-06 3.60166e-08 2.78444e-06 3.91607e-06 6.76936e-06 1.21222e-05 0.000312107 -1.96918e-05 -0.000206913 0.00694698 
168 1 1 0.00170638 -0.0450129 0.040199 0 0 0 1.14012e-06 -7.74472e-07 2.03171e-06 1.43441e-06 1.98465e-06 1.09192e-05 0.000322754 6.18677e-05 -3.16362e-05 0.00694698 
3 1 1 0.0165061 -0.0408746 0.039313 0 0 0 1.11337e-06 -4.12138e-07 3.19416e-06 -1.66169e-06 2.20433e-05 5.75168e-05 0.000246551 -1.86964e-05 -1.6939e-05 0.0111152 
283 1 1 0.0310352 -0.0446314 0.0458371 0 0 0 7.94738e-07 -6.09989e-07 2.19085e-06 -5.91541e-07 3.35512e-06 7.9533e-06 0.000162093 -3.44078e-05 -9.34469e-06 0.00694698 
211 1 1 -0.0439276 -0.0331951 0.0391794 0 0 0 9.70588e-07 -4.8179e-07 1.77389e-06 5.28844e-06 2.37067e-06 7.02774e-06 5.33761e-05 -7.47769e-05 -3.6731e-05 0.00694698 
93 1 1 -0.0271457 -0.0292817 0.0419053 0 0 0 2.25117e-06 -2.06052e-07 6.49462e-06 3.5425e-05 4.62464e-05 8.60009e-05 0.000159202 -0.000186595 0.000128529 0.0111152 
191 1 1 0.00287896 -0.0323182 0.0407477 0 0 0 2.25039e-06 -1.02981e-06 6.62115e-06 4.1857e-06 8.17182e-06 2.44435e-05 0.000402657 3.17459e-05 -5.60956e-05 0.00694698 
105 1 1 0.0303968 -0.0280612 0.0465898 0 0 0 1.93132e-06 -1.41202e-06 5.46819e-06 3.86696e-06 2.42855e-05 7.74417e-05 0.000128056 0.000142597 6.38387e-06 0.0111152 
66 1 1 -0.041682 -0.0169767 0.0389235 0 0 0 1.73496e-06 -4.94219e-07 4.60406e-06 1.92017e-05 2.37644e-05 3.95647e-05 0.00026993 -0.000291787 -0.00016647 0.0111152 
43 1 1 -0.00882969 -0.0242901 0.0478754 0 0 0 3.72897e-06 -2.61403e-06 1.20722e-05 4.23241e-05 5.4925e-05 0.000138978 0.000548943 1.49529e-05 -0.000191177 0.0111152 
259 1 1 0.0241568 -0.0131299 0.0440616 0 0 0 1.72415e-06 -2.48544e-06 9.22441e-06 3.92275e-06 7.0199e-06 2.50759e-05 0.00012665 6.7668e-05 0.000140079 0.00694698 
336 1 1 -0.0246139 -0.0117327 0.0453173 0 0 0 2.40338e-08 -3.37332e-06 1.57032e-05 2.88434e-05 -1.48568e-06 5.30281e-05 -1.05038e-05 -0.000709529 -0.000650907 0.00694698 
245 1 1 -0.000273889 -0.0118499 0.0427906 0 0 0 2.95407e-06 -2.84482e-06 1.51319e-05 7.49513e-06 1.44389e-05 3.63256e-05 7.93969e-05 0.00124203 -0.000371265 0.00694698 
303 1 1 0.0269175 -0.00136569 0.0493328 0 0 0 2.73223e-06 -2.63086e-06 1.53625e-05 8.56659e-06 8.20796e-06 3.36266e-05 0.00064285 0.000562163 -0.000251161 0.00694698 
5 1 1 0.0405047 -0.0106682 0.0488248 0 0 0 9.69441e-07 -1.21824e-06 5.40798e-06 1.03628e-05 1.27352e-05 5.33452e-05 6.01254e-05 0.000144885 8.91983e-05 0.0111152 
107 1 1 -0.0382431 0.00195705 0.0431278 0 0 0 6.84342e-06 -1.03835e-06 1.27152e-05 7.09998e-05 3.59136e-05 0.000102313 0.000310872 -0.000131478 -0.000167295 0.0111152 
95 1 1 0.0239299 0.0111489 0.0391397 0 0 0 7.06355e-07 -2.40702e-06 1.66139e-05 2.44816e-05 2.25835e-05 0.00013199 -0.000132952 0.000350888 0.000109187 0.0111152 
318 1 1 0.044365 0.0047285 0.0485669 0 0 0 1.21182e-06 -6.82245e-07 4.25138e-06 3.43174e-06 1.94884e-06 8.14871e-06 -2.85865e-05 0.000277046 -2.84652e-05 0.00694698 
208 1 1 -0.0448666 0.0168567 0.0449705 0 0 0 3.97349e-06 -4.50954e-07 9.32655e-06 9.25793e-06 5.71238e-06 1.67512e-05 -0.000265814 -0.00117456 0.000224187 0.00694698 
282 1 1 -0.0182462 0.018533 0.0445892 0 0 0 7.62671e-06 -3.4322e-06 2.15374e-05 1.77381e-05 1.20782e-05 3.86012e-05 0.000354179 -0.000777602 -0.0002042 0.00694698 
4 1 1 -0.00366645 0.0146154 0.0482211 0 0 0 7.27223e-06 -4.69641e-06 2.52868e-05 7.90203e-05 4.73643e-05 0.00019018 -1.28627e-05 0.000158165 -5.13171e-05 0.0111152 
58 1 1 0.0410775 0.0200219 0.043561 0 0 0 9.51944e-08 -8.61261e-07 6.89648e-06 1.60648e-05 9.14087e-06 4.80152e-05 -1.86734e-05 0.000369199 7.29828e-05 0.0111152 
199 1 1 -0.0449272 0.0285898 0.0409786 0 0 0 3.01502e-06 -3.87907e-07 7.72964e-06 5.19576e-06 3.53052e-06 1.04607e-05 3.32504e-05 -0.000792393 0.000217275 0.00694698 
192 1 1 -0.0256316 0.0271739 0.0481262 0 0 0 8.52644e-06 -4.555e-06 1.88822e-05 1.65928e-05 5.70112e-06 3.08052e-05 0.00035528 -0.000730184 -0.000266407 0.00694698 
292 1 1 -0.0146967 0.032469 0.0485798 0 0 0 8.79625e-06 -4.86346e-06 2.56093e-05 1.99086e-05 3.85207e-06 4.22264e-05 -1.84641e-05 -4.16605e-05 0.000160234 0.00694698 
73 1 1 0.0108552 0.0280466 0.0457834 0 0 0 5.30509e-06 -2.61195e-06 1.71029e-05 6.7944e-05 2.84035e-05 0.000108682 -6.84254e-05 0.000606276 0.000240384 0.0111152 
327 1 1 -0.0435039 0.0432739 0.0497711 0 0 0 1.68916e-06 -1.23374e-06 5.13859e-07 5.06685e-06 -8.19397e-09 -1.27418e-06 0.000501527 0.000166679 -0.000165416 0.00694698 
126 1 1 -0.0115806 0.044294 0.0464579 0 0 0 3.74479e-06 -2.91335e-06 1.39685e-05 8.76925e-06 9.27853e-07 2.09893e-05 -0.00216859 -0.000321769 0.000682925 0.00694698 
248 1 1 0.000186972 0.0432518 0.0425158 0 0 0 3.58956e-06 -2.19154e-06 1.31012e-05 1.01964e-05 2.06947e-06 2.00852e-05 -0.000487509 0.000713116 0.000497644 0.00694698 
229 1 1 0.0125664 0.0445193 0.045416 0 0 0 2.50321e-06 -5.66666e-07 7.47205e-06 9.53703e-06 4.21078e-06 1.01285e-05 -0.000639837 -3.44256e-05 -0.000148267 0.00694698 
114 1 1 0.0401335 0.0408 0.0407341 0 0 0 2.18723e-07 -8.96322e-07 3.72276e-06 1.55927e-05 3.92961e-06 1.85046e-05 -0.000140006 0.000261203 3.17368e-05 0.0111152 
314 1 1 -0.0174739 -0.0445492 0.0555942 0 0 0 6.344e-07 -7.00533e-07 3.38792e-06 2.3159e-06 7.27697e-06 1.35095e-05 0.000205173 -0.000179695 6.82228e-05 0.00694698 
337 1 1 -0.00609997 -0.0408572 0.0515865 0 0 0 1.79499e-06 -1.17553e-06 5.84023e-06 4.63699e-06 1.06148e-05 2.09192e-05 -0.000260148 -0.000143571 3.535e-05 0.00694698 
56 1 1 0.00688369 -0.0394003 0.0619726 0 0 0 2.29523e-06 -1.40924e-06 5.76135e-06 1.32731e-05 4.17636e-05 8.50923e-05 0.000256384 5.13005e-05 -0.000139227 0.0111152 
265 1 1 0.0220177 -0.043724 0.0552628 0 0 0 9.23858e-07 -8.59029e-07 2.6053e-06 2.05055e-06 3.28653e-06 8.91248e-06 -1.84836e-05 0.000101431 3.53101e-05 0.00694698 
49 1 1 0.0406724 -0.0407584 0.0580765 0 0 0 1.18896e-06 -7.87884e-07 2.00445e-06 4.87156e-06 6.28452e-06 2.79739e-05 9.75489e-05 0.000112033 -3.85714e-05 0.0111152 
84 1 1 -0.0411457 -0.032993 0.0553186 0 0 0 5.98335e-07 -9.47463e-07 3.25558e-06 2.31264e-05 3.44103e-05 5.3565e-05 -5.84809e-06 -0.000162614 -0.000122208 0.0111152 
307 1 1 -0.0195837 -0.0324346 0.0571155 0 0 0 1.23075e-06 -2.33331e-06 7.642e-06 8.73775e-06 1.28349e-05 2.82669e-05 0.000327365 -6.37442e-05 -0.000282509 0.00694698 
326 1 1 0.0447956 -0.0254458 0.0534947 0 0 0 1.66039e-06 -9.52814e-07 2.66092e-06 2.73121e-06 1.75442e-06 8.41489e-06 9.52064e-05 0.000316435 3.02379e-05 0.00694698 
81 1 1 -0.0216685 -0.0170401 0.062432 0 0 0 4.652e-06 -5.47269e-06 1.60502e-05 7.26685e-05 5.64981e-05 0.000180886 0.000491601 -0.000247227 -0.000385879 0.0111152 
52 1 1 0.0112853 -0.0221409 0.0507309 0 0 0 3.33112e-06 -2.91232e-06 9.98436e-06 2.23334e-05 5.16157e-05 0.000119021 0.000137027 0.000131555 7.5952e-05 0.0111152 
332 1 1 0.0267559 -0.0152036 0.0567084 0 0 0 3.82412e-06 -3.41795e-06 8.15249e-06 8.03873e-06 8.94122e-06 2.37364e-05 4.49195e-05 0.000284232 9.68096e-05 0.00694698 
220 1 1 -0.043805 -0.00977096 0.0542181 0 0 0 2.56697e-06 -2.00457e-06 6.3631e-06 7.45466e-06 4.12196e-06 1.33039e-05 8.18893e-05 -0.000141559 -0.000293411 0.00694698 
133 1 1 -0.0272081 -0.00283241 0.0559954 0 0 0 7.33863e-06 -4.37406e-06 1.79218e-05 2.14492e-05 1.12887e-05 4.07627e-05 -0.000348786 -0.000429621 0.000216687 0.00694698 
24 1 1 -0.0102673 -0.00372082 0.0528006 0 0 0 7.84646e-06 -4.39667e-06 2.30582e-05 9.08009e-05 6.84724e-05 0.000217956 0.000291133 -5.58889e-05 3.03135e-05 0.0111152 
240 1 1 0.0172585 -0.00749229 0.0553607 0 0 0 4.83891e-06 -4.21827e-06 1.76604e-05 1.20152e-05 1.28729e-05 4.31508e-05 0.0010653 0.000815223 -0.000252363 0.00694698 
236 1 1 -0.0236943 0.00828095 0.0507773 0 0 0 7.098e-06 -4.4235e-06 1.8611e-05 1.72422e-05 1.08367e-05 3.79473e-05 0.00040034 2.98082e-05 1.39785e-05 0.00694698 
15 1 1 0.0136565 0.0081787 0.0563008 0 0 0 6.88899e-06 -4.71936e-06 2.51304e-05 8.37366e-05 5.76805e-05 0.000206475 4.23441e-05 0.000368664 8.9928e-05 0.0111152 
291 1 1 0.0437832 0.0122418 0.0588945 0 0 0 1.35937e-06 -2.0545e-06 5.17382e-06 3.61023e-06 7.35491e-07 1.08379e-05 0.000376993 5.44706e-05 9.82897e-05 0.00694698 
335 1 1 -0.0343158 0.0161596 0.0526643 0 0 0 7.39663e-06 -3.34555e-06 1.63383e-05 1.49867e-05 7.99513e-06 2.9402e-05 0.000196041 -0.000119308 -0.000223749 0.00694698 
266 1 1 0.0217589 0.0233197 0.058673 0 0 0 5.17452e-06 -3.02578e-06 1.96112e-05 1.77371e-05 9.53404e-06 3.21305e-05 -0.000417637 -0.000782337 4.97502e-05 0.00694698 
298 1 1 0.0302846 0.0135353 0.0553188 0 0 0 6.52936e-06 -3.46825e-06 1.73819e-05 1.86972e-05 7.81832e-06 3.30943e-05 0.000225155 0.000768131 -5.52928e-05 0.00694698 
262 1 1 -0.0377382 0.0287333 0.0508387 0 0 0 6.18539e-06 -3.82313e-06 1.29083e-05 1.01647e-05 4.82397e-06 1.82872e-05 -3.10728e-05 0.000494592 1.48071e-05 0.00694698 
99 1 1 -0.00360815 0.0303682 0.0615073 0 0 0 9.09938e-06 -5.07894e-06 2.84681e-05 9.73882e-05 5.38443e-05 0.000179994 -2.20571e-06 -8.85549e-05 -1.19553e-05 0.0111152 
122 1 1 -0.0274283 0.0409191 0.0558336 0 0 0 2.3087e-06 -2.92855e-06 1.02606e-05 1.51089e-05 1.26877e-05 7.13787e-05 -0.000705102 -0.00102092 7.71172e-05 0.0111152 
158 1 1 0.000206962 0.0448778 0.0561864 0 0 0 5.36932e-06 -2.40645e-06 1.44486e-05 1.42948e-05 5.02455e-06 2.09064e-05 -0.00199761 -0.000103798 0.00100446 0.00694698 
47 1 1 0.0244974 0.0400921 0.0559319 0 0 0 2.34649e-06 -1.7618e-06 9.21077e-06 3.53913e-05 1.66872e-05 5.82349e-05 -0.000287606 3.24556e-05 1.11478e-05 0.0111152 
203 1 1 0.0420083 0.0441913 0.0569424 0 0 0 -5.94748e-08 -8.30132e-07 4.17739e-06 2.63947e-06 1.37203e-06 4.72939e-06 -0.000256692 -0.000339024 -8.39975e-05 0.00694698 
6 1 1 -0.0273257 -0.0408019 0.0684914 0 0 0 9.25989e-08 -2.32121e-06 3.91901e-06 2.67305e-05 3.38312e-05 8.16264e-05 0.000274413 6.40416e-06 -6.42172e-05 0.0111152 
190 1 1 -0.00862792 -0.0442093 0.0646034 0 0 0 9.02267e-07 -1.71854e-06 4.68331e-06 3.5338e-06 2.82809e-06 1.74984e-05 0.00064575 6.32678e-05 4.98709e-05 0.00694698 
189 1 1 0.0268465 -0.0442003 0.0673438 0 0 0 1.69848e-06 -1.61857e-06 3.35106e-06 2.32713e-06 2.27382e-06 9.29154e-06 0.000423945 0.000118942 -0.000244214 0.00694698 
186 1 1 0.0437407 -0.0441968 0.0738313 0 0 0 4.986e-07 -9.65214e-07 6.37107e-07 1.11158e-06 3.01122e-07 2.64704e-06 0.000149808 -6.80939e-05 -2.84431e-05 0.00694698 
313 1 1 -0.0118607 -0.0316738 0.0682093 0 0 0 -3.92111e-07 -4.15466e-06 1.04183e-05 8.48828e-06 1.26836e-05 3.84615e-05 0.000150761 -0.000486165 3.89975e-05 0.00694698 
227 1 1 0.00766387 -0.0253939 0.0722238 0 0 0 2.95089e-06 -8.58642e-06 1.31616e-05 1.16815e-05 9.19633e-06 4.21064e-05 0.00103591 0.000349927 0.00065294 0.00694698 
91 1 1 0.0235312 -0.0277778 0.0665881 0 0 0 3.98192e-06 -2.81434e-06 8.31582e-06 2.57819e-05 3.62365e-05 0.000106506 7.65598e-05 3.04129e-05 -5.20794e-05 0.0111152 
247 1 1 0.0400879 -0.0264408 0.068086 0 0 0 1.84741e-06 -1.19282e-06 7.24179e-06 2.56401e-06 6.79052e-06 1.67639e-05 0.000138282 -0.000251822 6.39807e-05 0.00694698 
36 1 1 -0.0407301 -0.0173219 0.0691412 0 0 0 7.52009e-07 -3.00388e-06 6.99735e-06 2.71927e-05 3.04257e-05 7.56581e-05 0.000238732 -0.000477196 -0.000159494 0.0111152 
137 1 1 -0.00226745 -0.0232153 0.0635622 0 0 0 3.14753e-06 -7.13732e-06 1.5995e-05 1.28166e-05 1.6798e-05 4.83214e-05 -0.000118689 -0.000368602 -0.00038646 0.00694698 
276 1 1 0.0201771 -0.0125509 0.0722589 0 0 0 3.8347e-06 -7.68317e-06 1.86737e-05 1.27495e-05 1.49309e-05 5.12568e-05 0.00106128 -4.65255e-05 0.000534268 0.00694698 
215 1 1 0.0333366 -0.0151385 0.0705856 0 0 0 2.66994e-06 -2.98875e-06 1.40355e-05 8.72844e-06 8.25613e-06 3.45077e-05 0.00100866 0.00027338 0.000335534 0.00694698 
217 1 1 0.0446141 -0.0151032 0.0644108 0 0 0 2.08664e-06 -7.73756e-07 5.38595e-06 3.49638e-06 4.15162e-06 1.16061e-05 -0.000306494 0.000634319 -0.000269804 0.00694698 
182 1 1 -0.0291258 -0.00430651 0.0735737 0 0 0 2.78257e-07 -9.43368e-06 1.60812e-05 1.27227e-05 1.42747e-05 3.72952e-05 0.00022255 -0.00040813 -0.000483335 0.00694698 
10 1 1 0.00493195 -0.00796363 0.0666215 0 0 0 7.46625e-06 -9.09974e-06 2.36864e-05 7.90009e-05 7.56804e-05 0.000239329 0.000494032 1.31611e-05 -0.000175607 0.0111152 
148 1 1 0.0445355 -0.00238306 0.0634358 0 0 0 1.49846e-06 -3.25499e-06 9.93645e-06 6.46594e-06 4.19058e-07 1.64237e-05 0.000994547 0.00148211 0.000625762 0.00694698 
32 1 1 -0.039949 0.00415223 0.0635931 0 0 0 3.56008e-06 -3.67952e-06 1.09572e-05 4.06075e-05 1.75671e-05 8.67984e-05 0.000103981 -0.000468448 -0.000172655 0.0111152 
197 1 1 -0.0192981 0.00213558 0.0660103 0 0 0 6.88823e-06 -6.36168e-06 2.22858e-05 2.55434e-05 2.35199e-05 5.18801e-05 0.00030191 -0.000462067 -0.000773182 0.00694698 
115 1 1 -0.00374323 0.010581 0.0687302 0 0 0 8.67387e-06 -8.48047e-06 2.96587e-05 0.000101396 8.99629e-05 0.000225464 0.00022042 -0.000202773 0.000158179 0.0111152 
87 1 1 0.0291357 0.000600421 0.0669644 0 0 0 3.79081e-06 -4.88658e-06 2.23421e-05 6.50031e-05 3.13598e-05 0.000193343 -0.000120596 -8.57682e-05 -0.000288257 0.0111152 
338 1 1 0.0431286 0.00836674 0.0719521 0 0 0 2.61121e-06 -4.09591e-06 1.18654e-05 1.04648e-05 2.23931e-06 2.47491e-05 -0.000656002 0.000663778 0.000471102 0.00694698 