ITEM: TIMESTEP
29750
ITEM: NUMBER OF ATOMS
338
ITEM: BOX BOUNDS mm mm mm
-0.05 0.05
-0.05 0.05
0 0.15
ITEM: ATOMS id type type x y z ix iy iz vx vy vz fx fy fz omegax omegay omegaz radius 
319 1 1 -0.0147832 -0.0440701 0.00601922 0 0 0 0.00707823 0.00152269 0.00443856 0.00591124 0.00251251 -0.0049309 0.253937 -0.37235 -1.55473 0.00608012 
243 1 1 -0.00290951 -0.0431549 0.00600285 0 0 0 0.00823673 -0.0243253 0.00134427 0.00283426 -0.0178068 -0.00511465 3.45561 1.30283 -3.41502 0.00608012 
260 1 1 0.0257676 -0.0437114 0.00603537 0 0 0 -0.00791453 -0.00340656 -0.0017867 0.0075362 -0.000283429 0.00101192 0.647527 -1.21796 0.359448 0.00608012 
131 1 1 -0.0258975 -0.039702 0.00576423 0 0 0 0.0104789 0.0117657 0.0115712 0.00757582 0.0130052 0.00702611 -1.31758 2.51201 -0.751145 0.00608012 
173 1 1 -0.015222 -0.0320261 0.00581166 0 0 0 -0.00189529 0.00443215 0.00941074 0.0134955 -0.0242887 0.00421437 0.196141 0.689662 5.74393 0.00608012 
78 1 1 0.0408744 -0.0406206 0.00924777 0 0 0 -0.000951856 0.00206621 0.00548044 -0.0201293 0.0277743 0.0217666 0.55304 0.323167 0.0751854 0.00972819 
296 1 1 -0.0279438 -0.0278153 0.00601632 0 0 0 0.000457734 0.0187725 0.00547871 0.00591653 0.00640735 0.00978813 -3.20624 2.31086 2.64172 0.00608012 
275 1 1 -0.00353694 -0.0297646 0.00587245 0 0 0 0.00386738 -0.00171738 0.0104328 -0.00264162 -0.019297 0.00292441 0.284908 -0.281338 -8.50633 0.00608012 
144 1 1 0.0420154 -0.0252297 0.00607974 0 0 0 0.0312359 0.0367612 0.00208776 -0.0013916 0.0329425 -0.0404921 -2.95811 5.06257 -6.1494 0.00608012 
102 1 1 -0.0405675 -0.0177488 0.00894876 0 0 0 0.00917561 0.0412736 0.0033895 -8.24495e-05 0.189066 0.0893541 -4.00815 1.23186 0.196789 0.00972819 
328 1 1 -0.0256239 -0.0160819 0.00582435 0 0 0 0.0128914 0.00899756 -0.00930171 -0.0018597 0.0116441 0.000908203 -0.0166553 0.805671 -5.43824 0.00608012 
267 1 1 0.0150667 -0.0206284 0.005998 0 0 0 -0.00241363 0.000781806 0.00376344 -0.0220133 -0.0221909 -0.00013676 -0.00452944 -0.163658 4.64683 0.00608012 
274 1 1 -0.0210238 -0.00517411 0.00631467 0 0 0 -0.112834 0.0725988 0.029724 -0.119085 0.0743861 -0.00231563 4.53492 -5.62453 29.5395 0.00608012 
202 1 1 0.0443374 -0.013113 0.00613769 0 0 0 0.00981395 -0.0140955 -0.00561769 -0.0146511 0.00397441 0.0273342 -6.03652 -0.689009 2.13984 0.00608012 
257 1 1 -0.0424595 -0.00222626 0.00606041 0 0 0 0.0113821 0.0277996 0.00387917 3.64403e-06 1.96103e-05 -0.000311872 -4.57948 1.87499 0.886129 0.00608012 
164 1 1 0.0203191 0.00166245 0.00581337 0 0 0 0.0144838 -0.00191411 0.0138724 -0.0143311 -0.022355 -0.000892018 0.247922 2.18397 4.06055 0.00608012 
268 1 1 -0.0315773 0.00624065 0.00610369 0 0 0 -0.13879 -0.346671 -0.0418224 -0.0278647 0.00790098 -0.00819195 -13.0804 -6.35561 92.6056 0.00608012 
171 1 1 -0.0194698 0.00658099 0.00610321 0 0 0 -0.114406 0.0717897 0.0210645 -0.0672056 0.0572207 0.012522 -7.07959 -0.813605 -28.194 0.00608012 
232 1 1 -0.0393504 0.0155449 0.00596058 0 0 0 -0.123723 -0.284307 0.0211244 -0.0282677 0.0107337 0.00785865 46.8989 -20.8161 -100.836 0.00608012 
297 1 1 -0.0236045 0.0179559 0.00606449 0 0 0 -0.057109 0.0589335 -0.0106136 0.00715227 0.128856 -0.0275299 -0.0124763 -8.49655 13.3709 0.00608012 
222 1 1 -0.0105813 0.0144663 0.00580785 0 0 0 -0.00201578 -0.0155323 -0.000992337 -0.00689846 -0.0104955 0.0018075 1.52283 -0.1331 5.11155 0.00608012 
290 1 1 -0.000446558 0.0207961 0.00566549 0 0 0 0.000779231 0.00144024 8.50005e-05 0.00456828 -0.00295786 -0.00355683 -0.869836 0.443677 -2.66715 0.00608012 
316 1 1 0.0324486 0.0193784 0.00579049 0 0 0 0.00921897 0.00190452 0.00673836 0.000961388 -0.00237505 0.00174078 0.643705 0.985931 1.81332 0.00608012 
162 1 1 0.0442242 0.0195015 0.0059249 0 0 0 0.00889777 0.0114633 0.00124083 -0.00727569 -0.0156446 0.000764786 -2.60346 0.846949 -0.639576 0.00608012 
294 1 1 -0.043961 0.0283943 0.0060369 0 0 0 0.00723069 -0.0145428 0.00650443 0.00115021 0.00824627 -0.00385665 1.52829 -1.05528 -2.77516 0.00608012 
255 1 1 -0.0143019 0.0258048 0.00593792 0 0 0 -0.0447779 -0.0138687 -0.00163445 -0.0138822 -0.00785531 0.00408673 0.443286 -7.23052 1.99877 0.00608012 
155 1 1 0.0376 0.0302044 0.00590379 0 0 0 -0.000946126 0.0216058 -0.00131277 -0.00833152 0.00275006 -0.00891339 -3.29864 -0.240778 1.30676 0.00608012 
175 1 1 -0.0318107 0.0318328 0.00600088 0 0 0 -0.0565139 0.0314794 -9.60469e-05 -0.00887538 0.0359412 -0.000170046 -6.06548 -9.69874 -0.631114 0.00608012 
324 1 1 -0.00315679 0.0320076 0.00586924 0 0 0 -0.0223013 -0.00413581 0.0103442 -0.0151124 0.0197451 0.0113996 2.99861 -2.17147 5.97564 0.00608012 
161 1 1 0.00863685 0.0320876 0.00635429 0 0 0 -0.0149255 0.00771811 -0.0120292 0.00106961 0.0130018 0.0239146 -3.03823 6.67387 -3.11085 0.00608012 
321 1 1 -0.0440435 0.0439821 0.00598634 0 0 0 0.00293239 -0.00475429 -0.0118299 -0.00869941 0.00143657 0.002757 2.13385 1.60947 -0.396451 0.00608012 
207 1 1 -0.0311182 0.0439347 0.00605818 0 0 0 0.00977475 0.00976606 0.000518209 -0.0371974 0.027977 -0.0080842 -0.415058 2.41239 0.346994 0.00608012 
149 1 1 0.0110914 0.0439196 0.00589865 0 0 0 -0.0255906 0.00823104 0.00554584 0.0275386 -0.00808318 -0.00346342 -0.793187 -4.92797 -0.492929 0.00608012 
249 1 1 0.0279679 0.0440016 0.00604606 0 0 0 0.00456173 -0.000381643 0.000901438 -0.00812416 -0.0044977 0.00752002 -0.143931 0.957837 0.490467 0.00608012 
289 1 1 0.0440325 0.0420255 0.00599251 0 0 0 0.000138297 -0.0136266 0.00964067 -0.00250547 -0.00178959 -0.00022655 2.0929 1.17945 2.27908 0.00608012 
299 1 1 -0.0243383 -0.0444273 0.0164084 0 0 0 0.000831082 0.000961581 0.0151378 0.00983105 0.00687914 0.00932784 2.57096 -3.59017 -0.131014 0.00608012 
225 1 1 -0.0117193 -0.0437219 0.0177495 0 0 0 -0.00586003 -0.019284 0.0209074 0.00877542 -0.00880693 0.00457612 2.92334 -1.51518 -3.23615 0.00608012 
242 1 1 0.000368279 -0.0441757 0.0179743 0 0 0 0.00850142 -0.00178233 0.022719 -0.0097381 0.00795926 0.00511136 3.39611 2.51987 -2.28258 0.00608012 
130 1 1 0.0209107 -0.0440205 0.0171308 0 0 0 0.015985 0.00486545 0.0104764 -0.0161574 -0.0197076 -0.0259787 -1.59868 -5.23463 0.0865933 0.00608012 
74 1 1 -0.040578 -0.0363901 0.00945212 0 0 0 0.00753589 0.0178339 0.0188484 0.040049 0.0506722 0.0453783 -0.55675 -1.80663 0.527034 0.00972819 
60 1 1 0.0102321 -0.0356221 0.00960415 0 0 0 0.00634343 -0.0152514 0.00281689 -0.0265261 -0.0568532 0.0104721 1.97137 1.32255 4.21637 0.00972819 
67 1 1 0.0273311 -0.0280873 0.0122398 0 0 0 -0.00259587 0.00884183 0.0136337 -0.0890688 -0.00207111 0.0458427 0.757697 -1.38773 -0.99679 0.00972819 
40 1 1 -0.010829 -0.0166884 0.0102188 0 0 0 0.00632419 0.000490038 0.0307379 0.0279402 -0.045371 0.0483837 4.34774 -4.89124 4.0497 0.00972819 
279 1 1 0.00399744 -0.02132 0.0105127 0 0 0 0.00986182 0.000959081 0.0353901 -0.0199906 -0.00562083 0.00878964 -0.178761 4.83943 -4.98574 0.00608012 
96 1 1 0.011178 -0.00789393 0.0145659 0 0 0 0.0111785 0.00706339 0.0256809 -0.0481517 -0.0204962 -0.0886644 -0.354647 -1.26804 2.91205 0.00972819 
50 1 1 0.0298267 -0.00955846 0.00952208 0 0 0 0.0232897 0.00540859 0.00472704 -0.107934 -0.0402277 0.0383697 -0.981017 2.66824 -2.39867 0.00972819 
183 1 1 0.043969 -0.00697911 0.0166584 0 0 0 -0.0156759 -0.0430938 -0.00707889 -0.00607844 -0.0240069 -0.00226246 4.14433 -3.14 -7.42674 0.00608012 
17 1 1 -0.00565732 0.00156629 0.0129475 0 0 0 0.0052631 0.00955115 0.039291 -0.023446 -0.0340866 -0.00326163 -4.65977 3.35639 -3.84183 0.00972819 
94 1 1 0.0380334 0.0072454 0.0134504 0 0 0 0.0311186 0.0075199 0.00685078 -0.0798976 -0.059496 0.0248415 0.628375 -2.29907 2.67476 0.00972819 
300 1 1 -0.0440018 0.0202931 0.0159759 0 0 0 0.0079348 -0.10824 0.0407795 -0.0155248 -0.00222699 0.00237647 -23.2358 -6.25376 -17.6173 0.00608012 
273 1 1 -0.0320542 0.0186923 0.0156727 0 0 0 0.015436 -0.0121471 -0.130165 -0.0416401 0.0101504 -0.00536854 19.5481 19.0549 28.1253 0.00608012 
286 1 1 -0.000912988 0.0160994 0.0163167 0 0 0 0.00211054 0.0248458 0.00896316 -0.00554545 0.0206499 0.00346193 -2.01935 -2.68651 7.0894 0.00608012 
98 1 1 0.0128519 0.0142899 0.00950423 0 0 0 0.00315678 -0.00825689 0.00775806 -0.0316322 -0.122512 0.0349853 -3.51604 1.11575 0.128223 0.00972819 
320 1 1 0.00626198 0.0264936 0.016721 0 0 0 -0.0141063 0.00544813 -0.00539234 -0.0316572 -0.0369925 -0.0159045 3.53221 -5.40927 0.214423 0.00608012 
77 1 1 0.0231062 0.0300911 0.0114704 0 0 0 -0.00731612 -0.003623 -0.00664008 0.0126857 -0.0679773 0.0673991 0.0078731 -3.88588 -0.0198216 0.00972819 
284 1 1 0.0442398 0.0275459 0.0153509 0 0 0 -0.0032022 -0.00603458 -0.00385601 -0.00531272 0.00446999 -0.0116221 11.1707 -1.09222 1.20958 0.00608012 
305 1 1 -0.040924 0.0363383 0.0146676 0 0 0 -0.0390565 0.0164547 0.0147781 -0.0106795 0.022693 0.00362398 -6.87029 -12.041 1.50204 0.00608012 
38 1 1 -0.0148784 0.0409202 0.00947676 0 0 0 -0.0361338 -0.00279772 -0.00110657 0.00396314 0.00860717 0.0480104 0.242579 -2.88653 -3.89848 0.00972819 
237 1 1 0.000416569 0.0439259 0.0116868 0 0 0 -0.0342692 -0.000319589 -0.0106989 0.117372 0.00930112 0.0432502 -2.54722 9.55251 6.90065 0.00608012 
239 1 1 0.0192265 0.044419 0.0146346 0 0 0 -0.00328461 0.00237905 0.000359979 0.0020996 -0.0121142 0.0117407 0.0363911 8.91544 -0.708457 0.00608012 
331 1 1 -0.0427074 -0.0448313 0.0214465 0 0 0 -0.000822815 0.00119332 0.016271 0.006769 0.0127339 0.00450352 3.46812 0.953919 -0.204608 0.00608012 
167 1 1 0.0319235 -0.0441006 0.0216823 0 0 0 0.00801393 0.0011222 0.0226965 -0.0219481 -0.00503921 -0.00387346 2.804 2.47907 -0.873678 0.00608012 
136 1 1 0.0438042 -0.0443219 0.0238575 0 0 0 0.00273297 -0.00275419 0.00694388 -0.00672713 0.0118951 -0.000813101 0.56333 -0.0828142 0.415972 0.00608012 
180 1 1 -0.0439694 -0.0339266 0.0258983 0 0 0 0.00357187 0.011741 0.0159733 -0.00551047 0.0131158 0.0110933 -5.46065 -2.887 -0.885715 0.00608012 
256 1 1 -0.0323509 -0.0391797 0.0241458 0 0 0 -0.00211515 -0.00233555 0.0187843 0.0533784 0.00254254 0.0776334 1.43391 -0.734329 1.99562 0.00608012 
179 1 1 -0.0342183 -0.0266436 0.0197352 0 0 0 0.00857817 0.0367493 0.0216225 0.00436137 0.0289429 0.00961976 0.449462 0.625999 -4.38281 0.00608012 
7 1 1 -0.0197338 -0.0304513 0.0204877 0 0 0 0.00138964 0.00539174 0.0231843 0.0728416 -0.00582037 -0.0117241 -1.54509 -0.292799 -0.57623 0.00972819 
104 1 1 -0.0010371 -0.028772 0.0234643 0 0 0 0.0142421 -0.0221604 0.0360426 0.06448 -0.00512945 0.00199902 -0.723675 -0.445144 -4.00375 0.00972819 
51 1 1 0.0170507 -0.0248546 0.0280559 0 0 0 0.0234629 0.0210086 0.0495238 0.103871 0.000497014 0.105186 -3.26721 -0.609408 8.16195 0.00972819 
120 1 1 0.0406495 -0.0298132 0.027956 0 0 0 0.0003221 0.000395751 0.0268049 -0.0111586 0.0109253 -0.000287708 1.33831 2.48079 -0.0156755 0.00972819 
128 1 1 -0.0444264 -0.0223813 0.0230726 0 0 0 -0.000845903 0.0265376 0.0221829 -0.0521229 0.0300648 0.0106741 7.33343 -4.48859 4.20835 0.00608012 
278 1 1 0.0331807 -0.0175171 0.0223232 0 0 0 0.0103809 0.0134715 0.0209565 -0.0186965 -0.000208643 0.0108913 -3.28499 -2.79569 -3.45313 0.00608012 
146 1 1 -0.0444202 -0.00872307 0.0204606 0 0 0 -0.0186909 -0.0205558 0.095372 0.0294722 -0.0127976 -0.030576 32.4637 -15.2175 -3.04752 0.00608012 
19 1 1 -0.0263967 -0.0131403 0.0253464 0 0 0 0.0525201 0.0199228 0.0756022 0.0348552 0.0362944 -0.190112 7.23179 1.19699 -5.07472 0.00972819 
310 1 1 -0.0116161 -0.008636 0.0273113 0 0 0 0.0635493 -0.00709606 0.0697681 -0.00631906 0.0156496 -0.0441307 -4.08497 2.70838 -13.8374 0.00608012 
258 1 1 0.00187368 -0.0133752 0.0261531 0 0 0 0.0735282 -0.0139157 0.0320919 -0.0482889 -0.0121941 -0.05076 -2.82989 -9.98832 -8.66038 0.00608012 
160 1 1 -0.00198333 -0.00198764 0.0277846 0 0 0 0.0627496 7.93276e-05 0.0409386 -0.0220918 0.0202465 -0.0258746 5.7035 3.98328 16.7013 0.00608012 
25 1 1 -0.0391232 0.00551622 0.0200752 0 0 0 0.0706448 -0.0109903 0.059598 0.0687473 -0.149078 -0.0436569 -33.641 -10.6566 -8.81702 0.00972819 
100 1 1 0.00747564 0.0101284 0.0274931 0 0 0 0.00846845 0.0499553 0.0452984 -0.0181745 -0.0035315 0.0310081 -1.62689 -0.0285732 -2.93196 0.00972819 
28 1 1 -0.0154987 0.0176568 0.0202189 0 0 0 -0.0260196 -0.0139171 -0.0275619 -0.0738569 0.106823 -0.0759142 -10.3873 -1.17205 3.78017 0.00972819 
261 1 1 0.0439993 0.0144181 0.0259933 0 0 0 -0.00983406 0.0261014 0.0341734 0.00834045 0.0160399 -0.0195821 0.422495 -2.03001 3.60476 0.00608012 
246 1 1 -0.044091 0.0263602 0.0263912 0 0 0 0.00317858 -0.0248537 0.0353582 -0.000497825 -0.000460235 0.00512708 10.0515 -6.61719 -2.72979 0.00608012 
23 1 1 -0.027161 0.0324934 0.0209979 0 0 0 -0.0366642 -0.0169058 -0.00127164 -0.0608663 0.0565966 -0.0625693 8.99485 8.25588 -2.99326 0.00972819 
61 1 1 0.0368416 0.0405339 0.0198251 0 0 0 -0.0126955 -0.00221611 0.0222456 -0.00850902 -0.037251 -0.019401 -2.63624 -1.87769 -1.41398 0.00972819 
224 1 1 -0.0438888 -0.0440195 0.033489 0 0 0 7.60423e-05 0.00484884 -0.00230969 0.0170369 0.0017851 0.0187431 -1.33843 6.04821 0.191053 0.00608012 
125 1 1 0.0432824 -0.0438186 0.0359678 0 0 0 -0.00179619 -0.0317973 0.012414 0.00442654 0.00245102 0.0074101 4.51689 -1.62921 -13.3652 0.00608012 
42 1 1 -0.0117871 -0.0404492 0.0344228 0 0 0 -0.00509631 -0.000430785 0.0276815 0.0152905 0.0746233 0.0276147 1.84751 0.21681 0.180224 0.00972819 
271 1 1 0.0306763 -0.0401489 0.0328916 0 0 0 0.00289586 -0.00645969 0.0332079 -0.0235433 -0.00915699 -0.00210911 -2.13211 -2.53854 0.875535 0.00608012 
66 1 1 -0.0406915 -0.0175321 0.0372815 0 0 0 0.00197992 0.0195756 0.046115 0.0191516 0.0446646 -0.0852915 -6.28183 -5.63654 1.7143 0.00972819 
178 1 1 -0.0124452 -0.020071 0.0294028 0 0 0 0.0003159 -0.0100555 0.0506986 0.00220027 0.0154275 -0.0224829 7.61178 -1.71978 2.27183 0.00608012 
134 1 1 0.044083 -0.0151487 0.0314128 0 0 0 -0.00297251 0.0102088 0.0127888 0.00876633 -0.00476254 0.0139185 -3.69273 1.21377 2.45498 0.00608012 
18 1 1 0.0140423 -0.00669289 0.0336899 0 0 0 -0.0125964 0.0239222 0.0399426 -0.0416408 0.0376995 0.056007 1.25595 4.15233 -2.3894 0.00972819 
184 1 1 0.0288083 -0.00989488 0.0304507 0 0 0 -0.0101737 0.0161007 0.00770543 0.00257425 0.0233589 0.0336884 3.21483 -2.3344 2.471 0.00608012 
112 1 1 -0.0200028 0.00347984 0.0322544 0 0 0 0.0894634 0.0303528 0.0901113 -0.0949028 0.058093 -0.16694 -3.13244 8.97012 6.84113 0.00972819 
55 1 1 0.0406371 -2.61836e-05 0.0311405 0 0 0 -0.00567588 0.0151696 0.0274886 0.0392504 -0.00829351 -0.0330964 3.17053 2.8947 -1.51978 0.00972819 
95 1 1 0.0246996 0.00980397 0.0352106 0 0 0 -0.00373737 0.0173721 0.0853785 0.0304982 -0.117232 -0.0168035 -0.316129 -3.31798 -1.16766 0.00972819 
2 1 1 -0.0320854 0.0182311 0.0323112 0 0 0 0.0355108 0.0145217 0.0748088 -0.0802208 -0.000190834 -0.188074 -12.7182 11.4264 -1.01626 0.00972819 
69 1 1 -0.00327923 0.0301618 0.0285111 0 0 0 -0.0185386 -0.0225696 0.0140332 -0.0803208 -0.0718011 -0.0360118 -0.505738 5.04632 2.88711 0.00972819 
108 1 1 0.0270876 0.0281984 0.0309636 0 0 0 -0.00630734 0.0149385 0.0588343 0.000896637 -0.106126 -0.135787 -2.53571 2.51081 2.28903 0.00972819 
16 1 1 0.0129304 0.0406274 0.0283128 0 0 0 -0.0174215 -0.00476582 0.00793384 -0.0956786 -0.0848947 -0.0937446 -0.707539 -6.51898 -0.848239 0.00972819 
9 1 1 -0.0407245 0.0408906 0.0308695 0 0 0 -0.0018153 -0.00742978 0.049134 0.00799383 0.0141595 0.0172401 -5.56242 -4.3809 -0.543904 0.00972819 
323 1 1 -0.0104399 0.0440594 0.0290455 0 0 0 -0.024454 -0.00841586 0.0350656 -0.00451658 -0.00741135 -0.0100989 -5.74889 11.2352 -4.14716 0.00608012 
329 1 1 -0.0228796 -0.0443698 0.0442641 0 0 0 -0.00204594 -0.0144779 0.0243211 0.0113509 0.0198639 0.00377248 3.439 0.894933 -0.186214 0.00608012 
168 1 1 0.00197736 -0.04431 0.0393086 0 0 0 -0.0072273 -0.00183825 0.0395007 0.00783544 0.00313097 -0.0235379 6.40823 -5.07696 2.12155 0.00608012 
283 1 1 0.0309846 -0.0442127 0.0440259 0 0 0 0.00241722 0.00221555 0.0405007 0.0144392 0.00661851 0.0158406 2.06453 -4.20527 3.60243 0.00608012 
211 1 1 -0.043964 -0.0328075 0.0378638 0 0 0 0.0165886 -0.0037447 0.0433904 0.0134208 0.00293306 0.021377 9.28578 5.79961 1.31034 0.00608012 
191 1 1 0.00367582 -0.0319743 0.0390919 0 0 0 -0.00167536 -0.0167354 0.0732078 0.00417577 0.0120592 -0.0444449 -10.2568 4.84488 3.92241 0.00608012 
3 1 1 0.0167122 -0.0405519 0.0392265 0 0 0 -0.000969508 0.002943 0.049906 0.0145281 0.00726458 -0.0296169 0.81726 3.15877 -1.1449 0.00972819 
93 1 1 -0.0266317 -0.0298885 0.0405746 0 0 0 0.00515675 0.00227986 0.0892517 0.0312354 0.12386 0.10583 4.19996 2.65421 -1.88847 0.00972819 
43 1 1 -0.00877773 -0.0240006 0.0440157 0 0 0 0.0143749 -0.00639866 0.0553795 0.0419643 0.0114788 -0.0573909 -4.82963 1.91423 0.768532 0.00972819 
105 1 1 0.0306051 -0.0285554 0.0445089 0 0 0 0.00498381 0.0120891 0.0574357 -0.00295778 0.00059754 0.00312554 -1.99473 -5.61027 0.826878 0.00972819 
52 1 1 0.0126839 -0.0217047 0.0466771 0 0 0 -0.00759923 -0.00657833 0.0641563 -0.0556288 0.0269721 0.00982094 9.40537 3.0406 1.7853 0.00972819 
259 1 1 0.0254351 -0.0144722 0.0409465 0 0 0 -0.0024445 -0.000357471 0.00857455 -0.00160985 0.00867338 0.0221147 -2.20054 1.24459 0.946263 0.00608012 
336 1 1 -0.0226777 -0.0110037 0.0405877 0 0 0 0.081523 -0.0341623 0.122038 0 0 -0.0230905 -10.5001 12.2062 10.184 0.00608012 
245 1 1 0.0013821 -0.0129461 0.0400605 0 0 0 -0.00445429 0.0112329 0.0548671 -0.00267245 -0.0197205 -0.0215942 12.4804 2.62685 0.254996 0.00608012 
5 1 1 0.0403051 -0.0114658 0.046738 0 0 0 -0.00455975 0.0114164 0.0393396 0.0406813 0.0287252 0.0356634 -4.11317 -1.5947 0.33692 0.00972819 
107 1 1 -0.0380995 0.00130221 0.0389146 0 0 0 0.0353449 0.0286034 0.0957993 -0.173857 -0.0146412 -0.165703 12.7473 0.79699 -5.29259 0.00972819 
303 1 1 0.0274002 -0.00303102 0.0435354 0 0 0 -0.0223179 -0.00712385 0.0446029 0.0124613 -0.00567549 0.031186 9.54996 -2.53274 2.52868 0.00608012 
318 1 1 0.0439723 0.00379673 0.0459977 0 0 0 0.000724601 0.0156996 0.036486 0.00285713 0.0031209 -0.0180308 -0.29899 -2.38379 0.189164 0.00608012 
236 1 1 -0.0245405 0.00840505 0.0465601 0 0 0 0.0197964 -0.00433348 0.114575 -0.0162901 -0.00959265 -0.0478426 5.96507 -18.8627 13.7761 0.00608012 
4 1 1 -0.00477077 0.0116051 0.0421803 0 0 0 0.0945933 0.0367846 0.135732 0.131903 0.0363959 -0.0216341 -1.31438 13.1218 8.2169 0.00972819 
208 1 1 -0.0443654 0.0153715 0.0410808 0 0 0 0.010222 0.06916 0.105283 0.000548729 -0.00281782 -0.0481094 -12.3787 -19.8459 11.597 0.00608012 
282 1 1 -0.0187996 0.01762 0.0403873 0 0 0 0.0530555 -0.0538449 0.0493647 -0.00117896 -0.0578352 -0.0664545 -9.20755 -29.0746 1.94104 0.00608012 
58 1 1 0.0406466 0.0184852 0.0407187 0 0 0 0.00733343 0.00863547 0.0533094 -0.0566099 -0.0463001 -0.00479607 -1.84839 5.63794 -0.857093 0.00972819 
199 1 1 -0.0439887 0.0271306 0.0384253 0 0 0 0.0459043 0.126495 0.0730587 -0.0175957 0.0198238 0.0283038 -10.4875 -0.479842 -1.51214 0.00608012 
262 1 1 -0.0340371 0.0281537 0.0452723 0 0 0 0.0871631 -0.131497 0.0827764 -0.0406192 0.0586561 -0.0261877 49.7298 6.05383 -23.9798 0.00608012 
192 1 1 -0.0233927 0.0283687 0.0396711 0 0 0 0.0901603 -0.026069 0.0923204 -0.024502 -0.0441129 0.0136507 32.1625 -6.93617 -5.02522 0.00608012 
73 1 1 0.0106393 0.0239613 0.0404772 0 0 0 -0.0556705 0.0576723 0.10262 -0.0767198 0.156241 0.0263914 3.73498 -10.2162 5.34134 0.00972819 
292 1 1 -0.0123799 0.0326627 0.0409327 0 0 0 0.0556975 0.0160426 0.0689263 -0.0025293 -0.0712076 0.0352663 -24.236 13.238 18.1397 0.00608012 
114 1 1 0.0403844 0.0401577 0.0387689 0 0 0 -0.00106807 -0.0135742 0.0312282 -0.0576692 -0.161321 -0.0387741 4.35864 3.32974 1.15898 0.00972819 
327 1 1 -0.0439663 0.0439619 0.0459542 0 0 0 -0.00531028 0.00280076 0.0464189 0.00280718 0.0032193 -0.00625815 6.77252 5.91474 0.0617746 0.00608012 
126 1 1 -0.00959094 0.0440122 0.0439585 0 0 0 -0.00664358 -0.00828169 -0.0547191 0.00674243 0.00665365 -0.0643027 10.8 2.25996 -3.27446 0.00608012 
248 1 1 0.0010091 0.043904 0.0381174 0 0 0 -0.0400816 -0.023524 -0.0560995 0.084878 0.042441 -0.0147329 4.33871 2.70464 -4.54002 0.00608012 
229 1 1 0.0123305 0.0440375 0.0436379 0 0 0 -0.108146 -0.0213303 0.0233012 0.00452085 0.0071954 0.0174538 0.52239 -4.0846 -21.6262 0.00608012 
314 1 1 -0.0162383 -0.0441025 0.054418 0 0 0 -0.0165882 -0.00898058 0.034162 0.0360637 -0.0112851 -0.0286455 -2.95508 -1.75715 -6.74797 0.00608012 
265 1 1 0.0231786 -0.0435189 0.0533284 0 0 0 -0.00642052 0.00543347 0.0510924 0.0106115 -0.0068996 -0.0134972 -0.936988 1.828 -7.8326 0.00608012 
84 1 1 -0.040545 -0.0333189 0.053189 0 0 0 -0.0129063 0.0186238 0.0730597 -0.0191091 0.0138214 0.0550321 -7.66881 -7.30838 2.08225 0.00972819 
307 1 1 -0.0181851 -0.0321785 0.0539723 0 0 0 0.0117989 -0.0330855 0.0585285 0.0122959 0.106087 0.0345288 3.7649 23.6671 6.49673 0.00608012 
337 1 1 -0.00685985 -0.0383693 0.0497891 0 0 0 0.0154612 -0.0428388 0.0317933 0.00511292 0.0179807 0.00536995 12.7981 7.11023 -6.88159 0.00608012 
56 1 1 0.00753215 -0.0379044 0.0560729 0 0 0 0.0133622 -0.0185804 0.0902086 0.044815 0.0503292 0.0272779 -8.79627 -9.77058 7.79033 0.00972819 
49 1 1 0.0404514 -0.0404721 0.0558736 0 0 0 0.00263535 -0.000546739 0.047711 -0.00393219 0.0214547 0.0197458 4.84026 4.69082 -0.118855 0.00972819 
326 1 1 0.0442086 -0.0258798 0.0513688 0 0 0 0.005309 0.0111694 0.0576432 0.000908225 0.00371589 -0.00856186 2.22303 9.39336 -1.66864 0.00608012 
81 1 1 -0.0236885 -0.0174368 0.0551439 0 0 0 0.00917983 -0.0652045 0.156689 0.274924 0.0473904 -0.0621827 4.03221 -5.73777 -1.92358 0.00972819 
332 1 1 0.0262498 -0.0155262 0.052889 0 0 0 0.0759193 -0.0044864 0.0201576 0.00818255 -0.00716626 0.0172625 0.405924 13.9278 -32.77 0.00608012 
220 1 1 -0.0440025 -0.00853528 0.0497214 0 0 0 0.0201787 0.00833161 0.0992565 0.035703 0.0431151 0.032503 14.8516 0.111366 -8.35806 0.00608012 
24 1 1 -0.0082643 -0.00561452 0.0497788 0 0 0 -0.025668 0.0107298 0.0644445 -0.227114 0.0137933 -0.235455 8.88198 -14.5884 -15.5144 0.00972819 
240 1 1 0.0175495 -0.00706493 0.049324 0 0 0 0.00586604 -0.0193549 0.0792047 -0.00347117 -0.00117486 0.0359275 -5.66534 14.8427 -2.06281 0.00608012 
133 1 1 -0.0288643 -0.0033126 0.0507178 0 0 0 0.0240987 -0.0617994 0.110164 0.0295696 0.0130529 -0.0230288 -6.32595 -7.2849 5.00213 0.00608012 
15 1 1 0.0142641 0.00810933 0.05136 0 0 0 -0.0526206 -0.0362209 0.0749081 -0.0690757 -0.0656324 -0.0438979 2.28752 -3.00943 8.32347 0.00972819 
298 1 1 0.0296202 0.0116655 0.050097 0 0 0 -0.0363438 0.0259142 0.108395 -8.82224e-06 0.0011294 -0.0152627 -5.02883 -2.60159 -10.3908 0.00608012 
291 1 1 0.0440577 0.0122435 0.0546345 0 0 0 0.000892616 0.00114082 0.0520483 0.0072805 -0.0255974 -0.0261881 3.69172 -4.33679 -5.87183 0.00608012 
335 1 1 -0.0339675 0.0159746 0.0477558 0 0 0 -0.0686079 -0.0710568 0.0512315 0.0203712 -0.000246788 -0.0234137 17.4656 -7.49832 -1.1351 0.00608012 
117 1 1 -0.0217235 0.022632 0.054984 0 0 0 -0.0191963 -0.0880979 -0.0116952 0.0221846 0.0701702 0.0226893 4.44275 21.8532 7.27845 0.00972819 
99 1 1 -0.00409412 0.0303297 0.0540185 0 0 0 -0.062377 -0.00957298 0.139082 0.0191989 0.0646532 0.0191862 29.3361 -25.7713 1.15026 0.00972819 
122 1 1 -0.0247435 0.0407191 0.0483374 0 0 0 0.095655 -0.0154621 0.145432 -0.0198524 -0.0685288 0.0626231 -15.717 13.8195 9.48564 0.00972819 
47 1 1 0.0235443 0.0348723 0.0496871 0 0 0 -0.0208785 0.0639852 0.129924 -0.00756086 0.132836 0.0621229 -6.61061 6.34628 -11.6355 0.00972819 
203 1 1 0.0423821 0.0441292 0.0537708 0 0 0 -0.0184374 -0.019473 0.0390363 -0.0213793 -0.0158027 0.00375815 -5.55804 -8.11824 -3.36653 0.00608012 
190 1 1 -0.00599352 -0.0439238 0.0615741 0 0 0 -0.0466732 0.0136162 0.0461313 0.0173772 -0.0118612 -0.0264983 8.89279 0.459615 4.12294 0.00608012 
189 1 1 0.0276498 -0.0439224 0.0646637 0 0 0 -0.00165593 0.00588377 0.0807914 -9.88438e-05 -0.00389509 -0.0250355 -2.32235 -1.63192 1.06912 0.00608012 
6 1 1 -0.0270761 -0.0403553 0.0651898 0 0 0 0.00231389 0.00813154 0.0838783 0.0266288 -0.0688972 0.00284647 9.21089 2.62999 -0.589627 0.00972819 
313 1 1 -0.0134695 -0.0260368 0.0634469 0 0 0 0.0587507 -0.0992577 0.103762 0.0720847 -0.0672029 0.0201622 4.14782 13.1862 5.96761 0.00608012 
137 1 1 -0.00171986 -0.0255324 0.0605353 0 0 0 0.0358374 0.0670035 -0.0413551 0.0477397 -0.0140329 -0.0184201 11.5294 6.84986 14.5761 0.00608012 
91 1 1 0.0229147 -0.0277101 0.0621809 0 0 0 -0.00273095 0.0300292 0.0632513 0.0599969 0.00191329 0.0612422 -0.65316 4.92936 0.180818 0.00972819 
247 1 1 0.0394353 -0.0265144 0.0633091 0 0 0 -0.0544569 0.00779025 0.039846 0 0 -0.0230905 2.25271 -17.2945 4.78965 0.00608012 
36 1 1 -0.0404388 -0.0177983 0.0648392 0 0 0 -0.000931114 0.00463152 0.132633 0.00206323 0.119465 -0.155964 10.8943 -13.4228 -0.0189338 0.00972819 
215 1 1 0.0321746 -0.015221 0.0641516 0 0 0 -0.00360589 0.0418122 0.108349 0.0267766 -0.0321454 0.0417776 23.4658 10.1765 5.48502 0.00608012 
217 1 1 0.0439861 -0.0150591 0.0616351 0 0 0 -0.0071268 0.0532329 0.0332114 0.0118541 -0.0266841 0.0222757 0.0588944 4.1053 -8.83887 0.00608012 
182 1 1 -0.0306077 -0.00560359 0.0640346 0 0 0 0.0322145 0.0210869 0.248259 -0.0128972 0.0245514 -0.0138283 -26.2872 -20.2085 -1.38321 0.00608012 
10 1 1 0.00595171 -0.00622293 0.0625568 0 0 0 -0.0623945 -0.0367387 0.126269 -0.103601 0.0160565 -0.248625 -4.33213 7.70101 12.3138 0.00972819 
276 1 1 0.0199895 -0.0126031 0.065405 0 0 0 -0.0142902 0.0292419 0.151143 -0.0199101 -0.00825188 0.00252178 18.4906 -22.5306 -3.008 0.00608012 
197 1 1 -0.0202718 -0.00188858 0.0590363 0 0 0 0.00948156 0.0122222 0.141387 -0.0157172 0.0104372 0.014449 6.79864 32.4686 8.3447 0.00608012 
87 1 1 0.0287243 -0.000229168 0.0609672 0 0 0 -0.0185735 0.0475124 0.137282 -0.0604823 -0.197613 0.0683537 -14.4003 3.2593 -3.82953 0.00972819 
148 1 1 0.044065 -0.00298322 0.0596966 0 0 0 -0.0128033 0.00136619 0.063226 -0.011714 -0.0307637 0.000819197 6.1022 10.44 -0.0955427 0.00608012 
32 1 1 -0.0399312 0.00533171 0.0576741 0 0 0 -0.00459792 -0.0759567 0.0934345 0.037441 -0.0511533 0.0270776 -1.56477 5.83213 2.62781 0.00972819 
115 1 1 -0.00277068 0.0110589 0.0614242 0 0 0 -0.120499 -0.0362371 0.17381 -0.0453964 -0.013354 -0.0277069 3.81706 -10.2763 -5.70334 0.00972819 
338 1 1 0.0413858 0.00843689 0.0657361 0 0 0 -0.0511409 0.0414781 0.0467013 0.0429107 -0.069245 -0.0392565 -5.65881 3.35461 -21.3866 0.00608012 
140 1 1 0.00823926 0.0213221 0.0569466 0 0 0 -0.0831737 -0.0557021 0.0880602 0.00919101 -0.00162593 -0.0243714 -9.27164 23.21 -0.803072 0.00608012 
266 1 1 0.0203057 0.0226284 0.0590247 0 0 0 0.0400731 0.0248095 0.121356 0.142151 -0.188347 -0.154399 -3.29318 -18.0741 14.3979 0.00608012 
39 1 1 -0.0404539 0.0246865 0.0591629 0 0 0 -0.000920595 -0.0481397 0.0819908 0.048528 -0.056714 -0.0519692 -30.745 -8.69109 -5.16568 0.00972819 
106 1 1 0.0403905 0.0289796 0.0569675 0 0 0 -0.0105735 -0.0397047 0.0817072 0.00976859 -0.110204 0.034957 -1.35491 4.98807 3.53057 0.00972819 
113 1 1 0.0115665 0.0338238 0.0656632 0 0 0 -0.0151971 -0.040012 0.0701336 -0.193234 0.0903958 -0.0591011 7.20636 -4.00945 -10.292 0.00972819 
174 1 1 -0.0389428 0.0439118 0.0570094 0 0 0 -0.133183 -0.00982418 0.0967529 0.0130557 -0.0103958 -0.00459662 0.444283 -27.3242 6.35784 0.00608012 
315 1 1 -0.0110788 0.0440231 0.0571329 0 0 0 -0.0616657 -0.00453931 0.160835 -0.00201568 0.0043091 -0.00763888 -26.5597 7.84256 -10.1856 0.00608012 
158 1 1 0.00203517 0.044041 0.0584853 0 0 0 -0.0386344 -0.0150265 0.184384 -0.0193122 0.0187583 -0.0246039 -31.4984 55.7058 -4.93012 0.00608012 
124 1 1 0.0442104 0.0436976 0.0655989 0 0 0 -0.00223203 0.00612008 0.0504469 -0.0181925 -0.00884165 -0.0101366 0.444478 9.55152 -0.753669 0.00608012 
252 1 1 -0.0392485 -0.0438874 0.0745892 0 0 0 -0.0638203 0.00248134 0.00256934 -0.0177777 -0.0210199 0.00430338 5.06496 -7.15665 4.19658 0.00608012 
186 1 1 0.0439588 -0.0439796 0.0707954 0 0 0 -0.00550233 0.00162245 0.0604272 0.000526781 0.0109662 0.00807661 -7.68239 -9.78306 1.99122 0.00608012 
230 1 1 -0.0399548 -0.0326849 0.0698472 0 0 0 -0.0108444 0.000154189 0.127426 -0.101752 -0.141174 0.0191997 -14.1567 0.223863 3.22041 0.00608012 
109 1 1 0.0145482 -0.040367 0.0739995 0 0 0 0.0584824 0.0105993 0.113986 0.0225578 -0.015685 0.038355 6.65193 13.9724 -7.16937 0.00972819 
165 1 1 0.0438007 -0.0320851 0.0732339 0 0 0 -0.0262535 0.00826354 0.0404785 -0.00186418 0.013572 -0.0186888 4.68494 16.8697 2.96575 0.00608012 
75 1 1 -0.024757 -0.0234821 0.0745053 0 0 0 0.00873996 -0.0168716 0.130649 -0.0229194 0.121196 -0.0852169 -11.6385 14.872 -1.40309 0.00972819 
227 1 1 0.00750144 -0.0262351 0.0684199 0 0 0 0.00179924 -0.0153817 -0.00623335 0.00365005 -4.48794e-06 -0.0221703 15.6901 0.931712 -6.54881 0.00608012 
26 1 1 -0.00627844 -0.0167097 0.0740645 0 0 0 0.0337333 -0.0157576 0.0923535 0.119806 0.0178874 -0.134536 1.75765 0.0230797 4.8922 0.00972819 
209 1 1 0.0105183 -0.0155727 0.0740434 0 0 0 -0.0583254 -0.0607675 0.100603 -0.0536789 0.00892981 -0.0127413 20.1925 -26.015 -0.860973 0.00608012 
169 1 1 0.0439538 -0.018936 0.0735979 0 0 0 0.00210993 0.0444076 0.0442247 0.0182311 -0.00494959 0.0013852 14.669 10.7513 -16.5559 0.00608012 
204 1 1 -0.0186667 -0.00743167 0.0707718 0 0 0 -0.0015928 0.00303225 0.00781203 -0.00339576 0.022492 -0.011618 29.649 -40.7177 2.32733 0.00608012 
325 1 1 0.0367327 -0.00923827 0.0735428 0 0 0 -0.0220449 0.0416739 0.12367 0.0419394 -0.0198375 0.0222294 -8.73214 2.3689 21.172 0.00608012 
306 1 1 -0.0438061 -0.00333137 0.0707675 0 0 0 0.0171995 -0.0190701 0.189102 0 0 -0.0230905 20.3773 -13.8815 3.20914 0.00608012 
63 1 1 -0.0403787 0.011837 0.0757504 0 0 0 -0.0107084 -0.03369 0.134692 0.0428853 0.132032 0.242553 -2.41145 -9.86617 -6.3053 0.00972819 
57 1 1 -0.0199 0.00831899 0.0709082 0 0 0 -0.0347278 0.0300694 0.142495 0.165429 0.00975013 0.0974701 -5.23218 -22.3216 0.625525 0.00972819 
250 1 1 -0.0291955 0.0208577 0.0693741 0 0 0 -0.0477557 0.0179619 0.165711 0.00408541 0.00957674 -0.00416778 35.3544 2.11894 7.45415 0.00608012 
233 1 1 -0.00729159 0.0161602 0.0761175 0 0 0 -0.0291309 -0.0140241 0.253142 -0.0117226 -0.000993856 -0.147006 9.80162 13.8531 -14.6355 0.00608012 
263 1 1 0.00778432 0.019204 0.0702431 0 0 0 0.0991326 -0.0830175 0.0656212 -0.0266194 -0.0118545 -0.001542 -3.98425 33.9851 25.0927 0.00608012 