ITEM: TIMESTEP
15050
ITEM: NUMBER OF ATOMS
338
ITEM: BOX BOUNDS mm mm mm
-0.05 0.05
-0.05 0.05
0 0.15
ITEM: ATOMS id type type x y z ix iy iz vx vy vz fx fy fz omegax omegay omegaz radius 
319 1 1 -0.0147353 -0.0444762 0.00550337 0 0 0 -0.00362486 0.00606103 0.0040966 5.52334e-05 -0.000200834 0.000587435 -1.1003 -0.598835 -1.77023 0.00552092 
243 1 1 -0.00362844 -0.0434223 0.00550368 0 0 0 0.00288294 -0.0591844 0.00344885 5.28189e-07 -2.11101e-05 0.000791785 10.7371 0.522968 0.495629 0.00552092 
260 1 1 0.0216087 -0.044506 0.00541607 0 0 0 0.0176121 -0.000891786 -0.000135387 -0.0178631 -0.00651587 -0.00357596 -0.0332758 3.50132 1.67832 0.00552092 
78 1 1 0.0395078 -0.0415616 0.00850012 0 0 0 0.00823073 0.000897944 -0.0043502 -0.0211866 0.025747 0.0247299 -0.388825 0.782849 -0.823869 0.00883348 
74 1 1 -0.0411506 -0.0362397 0.00879303 0 0 0 0.0165024 -0.0107189 -0.00897968 0.0204351 0.00973668 -0.0194006 1.21523 2.18267 2.68346 0.00883348 
131 1 1 -0.0277082 -0.0404613 0.00550484 0 0 0 0.0862195 0.0530705 -0.00800286 -0.000212984 -0.000254401 0.0122716 -9.67787 15.6787 18.6492 0.00552092 
60 1 1 0.00822627 -0.0356092 0.00853322 0 0 0 0.0132476 -0.00758627 -0.00204391 -0.0334482 -0.0235921 -0.012037 0.516829 1.18097 1.23675 0.00883348 
296 1 1 -0.0286173 -0.0292874 0.00550373 0 0 0 -0.0618186 -0.0403666 0.00353058 -2.22478e-05 -1.45546e-05 0.000608055 7.32315 -11.2148 -13.8699 0.00552092 
173 1 1 -0.0169341 -0.0280065 0.00548992 0 0 0 -0.0790593 -0.0211161 -0.00111729 0.00172636 -0.01418 0.00539095 3.2914 -14.0615 1.22339 0.00552092 
275 1 1 -0.00207626 -0.0263334 0.00537582 0 0 0 0.0461632 0.0306157 0.00791836 -0.0196217 4.60661e-05 0.00470882 -5.23531 7.6605 -14.7712 0.00552092 
144 1 1 0.0408125 -0.026703 0.00550366 0 0 0 -0.00430451 0.0224786 0.00361955 -1.57592e-06 8.22965e-06 0.000629939 -4.07801 -0.780913 -10.8352 0.00552092 
102 1 1 -0.041576 -0.0188363 0.00844292 0 0 0 0.0063459 -0.00654197 0.00240817 0.00218811 0.0313694 -0.0250612 0.304923 0.2159 -1.57465 0.00883348 
328 1 1 -0.0276323 -0.0179333 0.0054763 0 0 0 0.00277535 -0.000719298 0.000739151 0.00174609 0.00680224 -0.00512793 0.146967 0.0991488 4.20925 0.00552092 
40 1 1 -0.0107674 -0.0154922 0.00870922 0 0 0 -0.0460806 -0.036456 0.0177393 -0.00552472 -0.0059653 0.0264934 4.01277 -5.40843 -3.56881 0.00883348 
279 1 1 0.00457198 -0.0175355 0.00550647 0 0 0 0.014225 0.0730366 0.00666773 -0.0156384 -0.00823675 -0.00764107 -2.21601 -1.94149 5.39073 0.00552092 
267 1 1 0.0155104 -0.0188667 0.00548287 0 0 0 0.0114817 -0.0496923 -0.00755326 -0.0211247 -0.0155611 -0.00311222 6.64879 4.52645 -27.5262 0.00552092 
202 1 1 0.0445074 -0.0158137 0.00547511 0 0 0 0.00522568 -0.0247028 0.0112332 -0.00172398 -0.00174594 -0.00369031 4.26134 2.03285 5.04644 0.00552092 
274 1 1 -0.0226873 -0.0081338 0.00587045 0 0 0 -0.0203393 0.00959569 0.0117847 0.00588589 0.00450488 -0.0148722 2.9417 1.64765 -0.730845 0.00552092 
50 1 1 0.0262241 -0.00993652 0.00863608 0 0 0 0.00905283 -0.0473118 0.00574107 -0.0270262 0.0012228 0.0140356 5.60303 1.97333 20.6068 0.00883348 
257 1 1 -0.0441372 -0.00333435 0.00550396 0 0 0 0.0256681 -0.0399519 0.0034527 9.17267e-06 -1.43402e-05 0.000267457 7.24745 4.65643 -9.99631 0.00552092 
171 1 1 -0.0230297 0.0028371 0.00553987 0 0 0 0.0596296 0.019661 0.00980707 0.000441408 0.00523091 -0.00972655 -3.44887 1.48653 -13.8441 0.00552092 
17 1 1 -0.00911675 0.00257298 0.00884171 0 0 0 0.084378 0.0326229 0.0296734 0.0126378 -0.0502738 0.0362068 -4.91996 -2.32267 9.27243 0.00883348 
96 1 1 0.00965631 -0.00398489 0.00880781 0 0 0 -0.0125324 -0.0266519 0.0114211 0.0186761 0.02275 -0.0426609 3.18509 -1.97707 -22.8793 0.00883348 
164 1 1 0.0213089 0.00370145 0.00551207 0 0 0 -0.0168648 0.00488984 0.0153315 -0.000344835 -0.000643507 -0.0241239 -0.947716 -2.9782 30.5655 0.00552092 
268 1 1 -0.0318269 0.0093785 0.00541015 0 0 0 0.00707113 -0.00828202 0.00398038 0.00177277 0.00196849 -0.00787449 0.542337 -0.0137239 22.0148 0.00552092 
290 1 1 4.38654e-05 0.0130679 0.0053805 0 0 0 -0.0414053 0.127727 0.00065184 -0.019696 0.0257761 -0.00559859 -23.3081 -7.39302 -48.4266 0.00552092 
94 1 1 0.0353048 0.00508523 0.00898667 0 0 0 -0.0800767 0.0285765 -0.00159013 0.124645 -0.00330557 0.0135689 2.3202 12.2455 -7.16871 0.00883348 
232 1 1 -0.0393183 0.0174661 0.00535357 0 0 0 0.00957196 0.0101877 0.00962675 0.000965858 -0.00491687 0.00396479 -1.68335 1.46595 -39.3011 0.00552092 
297 1 1 -0.026397 0.0188544 0.00535 0 0 0 -0.0382726 0.0189568 0.0131376 0.00583734 0.0051498 -0.00270707 -2.73421 -7.35847 -12.022 0.00552092 
222 1 1 -0.0125068 0.0159881 0.00540018 0 0 0 -0.0228283 0.00284442 -0.0138348 0.0104004 0.0158988 0.029934 -1.39316 -5.07936 7.36406 0.00552092 
98 1 1 0.013641 0.0158511 0.00875907 0 0 0 -0.000933357 0.0127319 -0.00195672 -0.0074449 -0.0543282 0.00619597 -2.78665 0.879165 11.4752 0.00883348 
316 1 1 0.0274876 0.0164514 0.00544055 0 0 0 0.000938435 0.0856498 -0.000883994 -0.00831393 -0.022564 0.00488813 -14.4489 -2.07539 -6.71583 0.00552092 
162 1 1 0.0444263 0.0162461 0.00550369 0 0 0 -0.00812663 0.0447345 0.00372581 -3.01605e-06 1.67213e-05 0.000449072 -8.11561 -1.4743 -1.75426 0.00552092 
294 1 1 -0.0445529 0.0291981 0.00545928 0 0 0 0.00304667 -0.0119706 0.00189023 2.31648e-05 -0.000540419 -0.0021816 2.10536 0.172213 -2.38044 0.00552092 
255 1 1 -0.0206178 0.0281546 0.00546605 0 0 0 0.0355128 -0.0141416 0.00873008 0.00470523 -0.000801105 -0.00653856 2.05203 6.20417 -3.68319 0.00552092 
324 1 1 -0.00626952 0.0274271 0.00549728 0 0 0 -0.0104139 0.0884548 0.0153258 -0.00104458 0.000946199 0.0159632 -17.045 -3.44025 14.3271 0.00552092 
161 1 1 0.00597347 0.0299072 0.00548201 0 0 0 0.0607614 0.029535 -0.0256904 0.0102554 0.012769 -0.000697967 -3.19278 9.68421 -13.3077 0.00552092 
77 1 1 0.0217681 0.0313994 0.00844187 0 0 0 -0.0117811 -0.0034611 0.000584629 0.00297707 0.028703 -0.00616175 1.15996 -1.51564 -7.64498 0.00883348 
155 1 1 0.0345844 0.0248708 0.00549564 0 0 0 0.0998764 0.0933196 0.00663213 -0.0323414 -0.0200292 0.00301745 10.3072 -1.95597 -3.83441 0.00552092 
175 1 1 -0.0336843 0.0322047 0.00542918 0 0 0 0.0346207 0.00987642 0.00461592 0.00073864 -0.00185879 -0.000209377 -1.76003 6.31416 -9.72984 0.00552092 
289 1 1 0.0445336 0.0349038 0.00541969 0 0 0 -0.00588759 0.0275638 0.00655858 0.00655957 0.000460262 -0.000889496 -5.04117 -1.08411 -5.149 0.00552092 
321 1 1 -0.0445331 0.0445369 0.00546403 0 0 0 -0.00167996 -0.00480623 0.00100071 -0.000264901 0.000186797 0.000796045 0.594359 -0.366705 -0.825296 0.00552092 
207 1 1 -0.0334302 0.0444757 0.00550454 0 0 0 0.0132184 -0.00504976 0.00392584 4.12306e-06 -0.000115998 -0.00137706 0.931088 2.39696 2.35996 0.00552092 
38 1 1 -0.0165651 0.0415003 0.00854089 0 0 0 0.0398975 -0.00274843 0.0011319 0.00186279 -0.0310073 -0.0233306 0.0745846 4.72274 4.38982 0.00883348 
149 1 1 0.00564971 0.0444805 0.00549861 0 0 0 0.0508857 0.015488 0.00308197 0.0128434 -0.012067 0.00626741 -2.76368 9.11591 11.7616 0.00552092 
249 1 1 0.0313244 0.0444983 0.00552181 0 0 0 -0.0568946 -0.0254455 0.000139343 0.000175541 0.00543818 -0.0187928 0.132344 -10.3538 -10.3024 0.00552092 
299 1 1 -0.0282608 -0.044698 0.0157716 0 0 0 0.0456431 0.00561723 -0.0165131 0.0160394 0.00417878 -0.0169601 -3.03144 -35.7167 -8.12972 0.00552092 
130 1 1 0.0166458 -0.0447444 0.0151248 0 0 0 0.0108677 -0.00427885 0.00333093 -0.0114713 -0.00502322 -0.00279413 0.262162 -4.55749 -1.43639 0.00552092 
167 1 1 0.0274278 -0.044329 0.0178695 0 0 0 0.065567 -0.0216879 -0.0578993 0.00805029 -0.0191755 -0.00656988 11.3237 8.00084 6.47837 0.00552092 
7 1 1 -0.0221848 -0.0323894 0.0189816 0 0 0 0.00760336 0.0271171 0.0247193 0.114164 0.0314236 0.0394193 0.324568 8.98114 6.8417 0.00883348 
67 1 1 0.0250828 -0.0319198 0.0111022 0 0 0 0.0142383 0.00853629 -0.0056436 -0.0169916 -0.060478 0.070221 -0.221725 -0.717866 0.160174 0.00883348 
179 1 1 -0.0345167 -0.0260599 0.0180724 0 0 0 -0.0234606 -0.0158288 0.0462296 0.0273468 0.00851195 -0.0216295 -1.71439 -8.66684 -0.488269 0.00552092 
278 1 1 0.0318748 -0.0205971 0.0159285 0 0 0 0.0346341 -0.0143068 0.0298589 -0.00980648 -0.00108135 0.00496548 -5.68255 -20.6932 -13.4809 0.00552092 
183 1 1 0.0403899 -0.0137746 0.015453 0 0 0 0.0308637 -0.0261163 0.0371302 -0.00282527 0.0112179 -0.0139093 -9.9491 6.09665 12.4636 0.00552092 
146 1 1 -0.0445152 -0.00722367 0.0162714 0 0 0 0.00638986 -0.0218561 0.0500187 -0.0017295 0.00817713 -0.00865962 10.5971 -9.24583 -4.04656 0.00552092 
310 1 1 -0.0157898 -0.00698969 0.0189728 0 0 0 -0.0203456 -0.0434008 0.0512331 -0.00967326 0.00277116 -0.00571132 0.846334 9.38292 -2.63037 0.00552092 
160 1 1 -0.00164316 -0.0061896 0.017282 0 0 0 0.00570418 0.00763062 0.0714217 -0.00205289 -0.00608501 -0.0130675 14.6614 -20.7985 -17.4517 0.00552092 
25 1 1 -0.0413185 0.00671995 0.0156275 0 0 0 -0.000429993 -0.00836444 0.0121389 0.036803 -0.00225286 -0.0193887 -11.0204 -2.36413 -1.67444 0.00883348 
286 1 1 -0.00184959 0.0126998 0.0160661 0 0 0 0.0244857 0.133753 0.0208406 -0.0255659 -0.00163366 0.00500493 30.2993 22.5624 -2.53594 0.00552092 
261 1 1 0.0445582 0.0122498 0.0171115 0 0 0 -0.00290945 -0.0241105 -0.0091332 0.0124276 -0.00817671 -0.00347686 9.85874 -1.93947 4.61497 0.00552092 
300 1 1 -0.0445532 0.0205496 0.0172546 0 0 0 0.00547423 0.00699487 -0.027275 0.000195092 -0.00678602 0.00931737 9.61062 5.4139 1.21533 0.00552092 
273 1 1 -0.0342353 0.0218622 0.0138525 0 0 0 0.0400268 -0.0243147 0.0293993 0.000777612 -0.0100226 0.010623 -15.4509 -18.7504 -5.45519 0.00552092 
28 1 1 -0.0191704 0.0195502 0.0174893 0 0 0 0.0239906 -0.0080299 0.00432036 -0.0100675 0.00859777 0.0305291 0.255178 11.1764 0.613445 0.00883348 
320 1 1 0.0011658 0.0224549 0.0119545 0 0 0 0.0352541 0.14063 0.0654356 -0.0341798 -0.00530606 0.0665675 -6.38978 13.9381 -16.9211 0.00552092 
284 1 1 0.0398964 0.0221197 0.0156349 0 0 0 -0.00527945 -0.0140356 0.00875368 -0.00187548 -0.00439005 0.00272637 -18.7256 34.5421 -9.25157 0.00552092 
305 1 1 -0.0414047 0.036855 0.0126229 0 0 0 0.0282721 -0.00607213 -0.00164174 -0.00273432 -0.00253589 0.000143863 -1.45769 6.63578 3.00428 0.00552092 
23 1 1 -0.0288255 0.0340902 0.0186909 0 0 0 0.0317787 0.00269941 0.018062 -0.0162519 -0.021614 0.0430512 -0.71173 -5.74817 -1.45104 0.00883348 
16 1 1 0.00910686 0.0374653 0.0188903 0 0 0 0.0271575 -0.00121223 0.0663365 0.00411234 0.0318639 0.0133969 7.78365 6.94381 -0.150212 0.00883348 
61 1 1 0.0362769 0.0359166 0.0169862 0 0 0 -0.0127961 -0.0115761 0.020741 0.0205878 -0.00484011 0.0140878 4.61684 1.03498 9.19891 0.00883348 
237 1 1 -0.00306043 0.0445005 0.0122519 0 0 0 0.0477959 -0.00362255 0.00944792 0.00414542 -0.004295 0.0023784 2.25966 -8.39443 -6.90599 0.00552092 
239 1 1 0.020177 0.0447805 0.0122294 0 0 0 0.0180862 0.00208861 0.0026644 0.0116632 0.0070515 -0.00801411 -0.395055 -8.20805 3.37299 0.00552092 
331 1 1 -0.0427433 -0.0448109 0.0198511 0 0 0 0.00790521 -0.00400425 -0.0109239 -0.00896585 0.00253767 -0.00229327 -3.12976 -8.4174 -1.31872 0.00552092 
225 1 1 -0.00386246 -0.0446139 0.0190346 0 0 0 -0.03084 0.000407837 -0.0440469 0.0251574 0.00760948 0.0279835 -8.13879 51.2417 5.63424 0.00552092 
242 1 1 0.00783924 -0.0445461 0.0216512 0 0 0 -0.0104053 0.00503365 -0.0138688 0.0136998 -0.008655 0.00206655 -2.90803 0.340051 1.74079 0.00552092 
136 1 1 0.0445165 -0.0434768 0.0217714 0 0 0 0.0190883 -0.0238106 -0.0129796 -0.0062371 -0.0606439 0.00870202 -5.37925 -0.27227 -6.53749 0.00552092 
180 1 1 -0.0446616 -0.0345943 0.0228198 0 0 0 -0.00095041 0.00101257 -0.0210777 0.00592478 0.00425174 0.00155024 3.08332 4.22865 1.70711 0.00552092 
256 1 1 -0.034445 -0.0383133 0.0230002 0 0 0 0.00981249 -0.00428139 0.0468058 0.0152426 -0.00542483 -0.0214206 -11.9471 -15.9915 -2.2353 0.00552092 
271 1 1 0.0329067 -0.038995 0.0264188 0 0 0 -0.049505 -0.082719 -0.105634 -0.000507078 0.0144927 0.000615383 31.9523 -1.06707 -29.5919 0.00552092 
128 1 1 -0.0446523 -0.0239287 0.0212444 0 0 0 -0.0111371 1.10186e-05 -0.00115927 0.0137401 0.012444 0.00541501 -0.586125 0.0508137 -1.36634 0.00552092 
104 1 1 -0.00502689 -0.0304731 0.0186078 0 0 0 0.00548853 0.0103067 -0.00149193 0.0997206 0.0636824 0.103964 7.82254 -4.42981 -8.51259 0.00883348 
51 1 1 0.0106943 -0.0229057 0.0201294 0 0 0 0.00631547 -0.0190661 0.0229853 0.11481 -0.033944 0.0109412 0.929934 -3.88439 -1.36268 0.00883348 
120 1 1 0.0415178 -0.0295501 0.0206103 0 0 0 0.00382655 -0.0412426 0.0474691 0.00579951 0.0390239 0.0255121 9.4467 4.63879 6.07791 0.00883348 
178 1 1 -0.0166035 -0.0193449 0.0212131 0 0 0 0.020842 -0.014121 0.0815126 -0.00273613 -0.00436304 -0.00652523 -8.98348 27.1409 -1.22686 0.00552092 
258 1 1 -0.00291096 -0.0166056 0.0205015 0 0 0 -0.014424 0.00646602 0.0216022 0.0208906 0.00236664 -0.00572758 -7.54183 12.3691 17.6686 0.00552092 
134 1 1 0.0447206 -0.016751 0.0256658 0 0 0 -0.00527967 -0.00905722 0.0499168 0.00233371 0.00753354 -0.0116074 -12.4577 9.53054 0.195334 0.00552092 
19 1 1 -0.0297643 -0.0128442 0.0197137 0 0 0 -0.0341195 -0.005683 0.0646908 0.108505 0.02843 -0.131985 -4.64851 -12.76 -2.13669 0.00883348 
245 1 1 0.0046716 -0.0112074 0.0259932 0 0 0 0.00428188 0.0107178 -0.00461256 0.0161307 0.00046898 -0.0149476 25.3208 7.14288 -3.64412 0.00552092 
18 1 1 0.0182545 -0.00797769 0.024339 0 0 0 0.0119763 -0.0144176 0.0136061 0.0708194 -0.00276901 0.0397966 -6.1075 -3.99755 -1.69942 0.00883348 
184 1 1 0.031342 -0.0125511 0.0227847 0 0 0 0.0198294 -0.00627417 0.0203648 0.00679904 0.00859475 -0.00653693 4.17865 8.33137 6.78025 0.00552092 
112 1 1 -0.0248417 0.00371971 0.0214953 0 0 0 0.00905528 -0.00282573 0.0403871 0.0135236 0.0126105 -0.0116345 -3.00516 -5.14415 -3.69236 0.00883348 
55 1 1 0.0414471 -0.00313779 0.0248596 0 0 0 0.00717754 0.00891271 0.00553129 0.0208981 0.0372438 0.0215545 0.965747 0.600322 -1.47412 0.00883348 
4 1 1 -0.00912378 0.00948219 0.0277956 0 0 0 0.0428723 -0.0182392 0.00430926 -0.0774148 0.000127254 0.0649159 4.27907 -8.8958 -1.88452 0.00883348 
100 1 1 0.00905016 0.00669327 0.023003 0 0 0 0.00723612 -0.008339 -0.03759 -0.042018 -0.0805426 0.0286326 5.58474 -8.38234 1.89644 0.00883348 
95 1 1 0.0272898 0.00666431 0.0262147 0 0 0 -0.00185357 0.00101201 0.0277118 -0.00635304 0.0306063 -0.00110382 5.18738 -2.32613 2.72476 0.00883348 
2 1 1 -0.0336065 0.0176893 0.0274042 0 0 0 0.0111776 0.00675284 0.0507671 -0.0510154 -0.0745946 0.0594996 5.97662 6.82549 7.89665 0.00883348 
108 1 1 0.0213278 0.0223898 0.0231711 0 0 0 -0.0314127 0.00623898 0.0272957 -0.0329332 0.0208888 0.0148911 -3.91029 1.87631 1.10281 0.00883348 
246 1 1 -0.0444845 0.0276455 0.0256685 0 0 0 -0.00349471 0.024363 -0.0224633 0.0282728 -0.0213441 0.0277523 -6.66134 -1.03819 4.92157 0.00552092 
73 1 1 0.00478025 0.0228951 0.0277401 0 0 0 -0.022224 -0.0203107 0.0797604 -0.0381371 -0.045806 -0.0244692 8.56866 4.35467 0.498192 0.00883348 
69 1 1 -0.0075083 0.0320489 0.0198677 0 0 0 0.0120855 0.00759923 0.0502287 6.753e-05 -0.00881614 0.0118141 1.74426 -16.3133 1.59885 0.00883348 
323 1 1 -0.013033 0.0447463 0.0221767 0 0 0 -0.0259226 0.00454848 -0.0231441 0.0101195 0.00339009 -0.0128231 4.28378 -24.603 -4.46267 0.00552092 
224 1 1 -0.0419579 -0.0442078 0.032287 0 0 0 0.0148301 -0.0901093 -0.254519 0 0 -0.0172875 26.9493 -27.7334 -5.04489 0.00552092 
42 1 1 -0.0124533 -0.0413076 0.0304154 0 0 0 0.00256271 -0.00677369 0.019514 0.121051 -0.0125761 -0.00839001 -0.525687 -7.08376 -13.5646 0.00883348 
3 1 1 0.019853 -0.0413641 0.0310121 0 0 0 -0.0267163 -0.00406119 -0.0142017 0.0182798 -0.0130279 -0.00402653 -2.57571 15.0359 3.14652 0.00883348 
125 1 1 0.0392413 -0.0440777 0.0344186 0 0 0 0.0109887 0.0622914 -0.0497402 0 0 -0.0172875 8.30863 -16.669 -12.827 0.00552092 
211 1 1 -0.0445333 -0.0329054 0.0335987 0 0 0 0.00836057 0.0097119 -0.0135032 -0.00337938 0.0263179 0.00193439 -4.02783 -0.252054 1.79717 0.00552092 
93 1 1 -0.0293621 -0.031897 0.0348943 0 0 0 0.0297937 0.0247269 0.0414757 0.0242434 -0.0699894 -0.0573558 -2.47366 -6.42435 1.72386 0.00883348 
168 1 1 0.00163454 -0.0412878 0.030046 0 0 0 0.00843896 -0.0687731 0.0412761 0.020406 -0.00401944 -0.0215066 11.4973 9.64987 11.8508 0.00552092 
191 1 1 0.00852091 -0.0329872 0.0297249 0 0 0 -0.0491468 -0.0175955 0.0392391 0.0253523 -0.0118969 0.00557919 -5.062 -3.90744 -0.603241 0.00552092 
43 1 1 -0.00612386 -0.0245174 0.0355153 0 0 0 -0.00329511 -0.0288675 0.0151282 -0.0121582 -0.0872583 -0.0812727 1.81249 7.5087 0.693618 0.00883348 
105 1 1 0.0329564 -0.0278226 0.0357615 0 0 0 -0.0104862 -0.0758082 0.0547678 0.0723106 0.0378603 0.0753731 -18.5059 -2.98524 16.243 0.00883348 
66 1 1 -0.0412615 -0.0189409 0.0341021 0 0 0 -0.00510548 0.0102622 -0.000480823 0.0982773 -0.00335373 0.0330046 0.33195 0.460537 1.74941 0.00883348 
52 1 1 0.0112441 -0.0213908 0.0376926 0 0 0 0.0499805 -0.0295378 0.0233771 -0.111453 0.00597924 -0.028494 -4.74525 2.72105 -0.94497 0.00883348 
259 1 1 0.0285943 -0.014433 0.0331288 0 0 0 0.0190681 -0.0366276 0.0206028 0.0172716 0.0156888 0.0125246 -5.20427 -14.1545 13.6231 0.00552092 
336 1 1 -0.0214935 -0.00740653 0.0296951 0 0 0 -0.0151842 -0.00202765 0.0527404 0.0217374 -0.00749302 -0.0203796 -1.01997 20.363 -6.67845 0.00552092 
24 1 1 -0.0075804 -0.00745904 0.0318823 0 0 0 -0.0047924 -0.0278697 0.00337289 0.0231258 -0.0134238 -0.0415311 -2.36662 -7.64962 0.406761 0.00883348 
107 1 1 -0.0386852 -0.00202435 0.0305058 0 0 0 -0.0021871 0.0254978 0.0346118 0.0487243 0.0223705 0.0858007 5.84509 6.16266 -3.74279 0.00883348 
303 1 1 0.0309378 -0.00386764 0.0350223 0 0 0 -0.00682627 -0.0164252 0.00452333 0.00302624 0.00217162 0.00913964 -5.06421 9.51987 -10.8546 0.00552092 
208 1 1 -0.0447814 0.0132692 0.034643 0 0 0 0.0106595 -0.0418504 0.0498184 -0.0186272 -0.0143529 0.00994683 -0.995213 -9.36608 -7.82648 0.00552092 
236 1 1 -0.0209766 0.00798119 0.0369595 0 0 0 0.0169793 -0.0166579 0.00403674 0.000243953 0.00138405 -0.017341 -26.8666 -6.74536 9.77037 0.00552092 
282 1 1 -0.0200687 0.0176514 0.0317137 0 0 0 0.0409106 -0.00759706 0.0140752 -0.0136462 0.00518576 0.0183117 18.9576 -2.68096 -7.12768 0.00552092 
58 1 1 0.0414744 0.0153993 0.0307275 0 0 0 -0.00162726 0.0135326 0.0147386 -0.0591396 0.027345 -0.046233 -10.6897 1.79741 -2.20819 0.00883348 
199 1 1 -0.0443482 0.024213 0.036134 0 0 0 -0.0172593 -0.0421724 -0.0341157 0.0051687 -0.000804318 0.00665792 19.7317 -4.59815 6.60887 0.00552092 
262 1 1 -0.0350221 0.0304218 0.0352228 0 0 0 0.0204859 -0.0331384 -0.0311124 -0.00126067 0.00554757 -0.00752423 12.1383 -7.76289 7.30009 0.00552092 
192 1 1 -0.0249034 0.0281773 0.03108 0 0 0 -0.00607365 0.0269837 0.0295426 -0.026662 0.00178978 0.0337175 -5.15171 2.99403 -3.97079 0.00552092 
292 1 1 -0.0155964 0.0336264 0.0314722 0 0 0 0.00885342 -0.0013368 0.0501839 -0.011912 -0.00734558 0.00860174 10.4339 -4.98502 -1.40705 0.00552092 
99 1 1 -0.00304007 0.0345156 0.037895 0 0 0 -0.00996109 -0.036314 0.1101 0.0163926 -0.0482473 -0.0277794 -3.52846 -3.65855 -2.08704 0.00883348 
47 1 1 0.0248691 0.0360245 0.0335057 0 0 0 -0.00917099 -0.0147369 0.0755775 -0.0214526 0.0785086 0.0382109 10.4703 3.8939 0.404825 0.00883348 
9 1 1 -0.0412833 0.0413223 0.0285954 0 0 0 0.00150904 -0.0024594 -0.00243604 -0.0351558 0.0469769 -0.0596452 1.23654 -0.12848 0.124692 0.00883348 
122 1 1 -0.0259833 0.0412998 0.0372745 0 0 0 -0.0062868 -0.00232725 0.0294576 -0.0446321 -0.0315342 0.0656987 -3.48081 -1.85459 -0.773938 0.00883348 
126 1 1 -0.0121773 0.0445917 0.0337419 0 0 0 0.015773 -0.0183286 0.00364274 0.00982011 -0.00177599 -0.00879133 -0.355295 -15.8316 1.98836 0.00552092 
248 1 1 0.0024874 0.0445719 0.0293029 0 0 0 0.00085513 -0.0244531 0.106366 -0.0184436 -0.00899786 0.0260471 -6.03528 -8.9828 9.18327 0.00552092 
229 1 1 0.0140481 0.0446126 0.0300778 0 0 0 0.00102795 0.00419199 0.0757951 0.00214428 0.00518134 0.00401226 -13.5887 -17.1046 0.300841 0.00552092 
114 1 1 0.0414189 0.0413855 0.0327102 0 0 0 -0.0010099 -0.00266941 0.0297416 0.00203014 0.0108565 0.0105098 -2.67256 3.68063 -0.0232253 0.00883348 
329 1 1 -0.0239849 -0.0446053 0.0381273 0 0 0 0.0176442 0.008437 0.0412563 0.0105623 -0.0176622 -0.00079039 7.442 9.39662 -3.69166 0.00552092 
314 1 1 -0.0139072 -0.044614 0.0445799 0 0 0 0.00595952 -0.0075621 0.0453326 0.00136681 -0.00425844 0.000740158 8.05713 14.1652 -2.19788 0.00552092 
265 1 1 0.0195628 -0.0446151 0.0468183 0 0 0 0.0235645 0.00305237 0.106074 -0.00491601 -0.0107385 0.033867 19.9965 -6.96085 -4.23421 0.00552092 
283 1 1 0.0298685 -0.0439342 0.0407152 0 0 0 -0.00827054 0.0212656 0.0208579 -0.00561152 -0.00887986 0.00719133 13.1495 -29.9424 10.3518 0.00552092 
307 1 1 -0.0172832 -0.0340195 0.0421584 0 0 0 0.0291747 0.00693159 0.0600369 0.00779102 -0.0128995 -0.0189365 5.65428 8.46461 -3.85742 0.00552092 
337 1 1 -0.00670978 -0.0367508 0.0426938 0 0 0 0.0192274 -0.0328048 0.0180328 0.00791571 -0.00054344 -0.00351994 -2.82473 0.141426 -4.12374 0.00552092 
56 1 1 0.00724555 -0.0388614 0.0428533 0 0 0 0.0232985 -0.00359752 0.0579632 0.0172156 0.00310555 -0.0125497 -7.79596 -3.43294 5.78342 0.00883348 
326 1 1 0.0445926 -0.0281425 0.0439654 0 0 0 -0.00414202 0.045869 0.0531459 -0.00607025 0.00421124 0.00147302 8.75775 7.84929 -11.3395 0.00552092 
81 1 1 -0.0209981 -0.0165463 0.0404186 0 0 0 0.0164844 -0.0108526 0.0512903 -0.0696478 -0.0522723 -0.0999995 0.940064 -2.81589 -1.77818 0.00883348 
332 1 1 0.0245891 -0.0184255 0.0423983 0 0 0 0.0252213 -0.0245015 0.0324265 0.00349438 -0.00722164 0.0161442 6.85494 22.0824 -21.4071 0.00552092 
220 1 1 -0.0444858 -0.00743375 0.0423016 0 0 0 -0.0018179 -0.0213188 0.0123182 0.00430078 -0.00886763 0.0156762 -2.51151 -12.2929 12.9231 0.00552092 
240 1 1 0.0209733 -0.00685714 0.0382665 0 0 0 -0.00276628 -0.00754105 0.0209959 0.00970019 -0.00981234 0.0179645 4.39967 -6.7139 9.56218 0.00552092 
276 1 1 0.01718 -0.0121393 0.047161 0 0 0 0.0450603 0.000615427 0.0656111 -0.0209248 -0.0206737 0.0136221 -10.016 -12.7224 19.3141 0.00552092 
5 1 1 0.0413054 -0.0121978 0.0399563 0 0 0 -0.00315895 -0.0251228 -0.0061074 0.00290269 -0.0493866 -0.0268282 -0.379024 -0.811455 3.24825 0.00883348 
133 1 1 -0.0269553 -0.00368102 0.0384817 0 0 0 -0.0298421 -0.0180122 0.0795285 0.0375927 0.00362338 0.00432692 7.37235 -23.6157 8.09473 0.00552092 
197 1 1 -0.0165896 -0.00128688 0.0412636 0 0 0 0.00344471 -0.0343673 0.0163887 0.0232861 0.0160656 -0.0056249 2.17509 14.2182 25.2676 0.00552092 
10 1 1 0.00720389 -0.00446618 0.0407235 0 0 0 -0.00695478 -0.0593877 0.0351095 0.110219 0.0373578 -0.0393954 5.45074 4.65813 -0.940152 0.00883348 
318 1 1 0.044496 0.00189232 0.0379168 0 0 0 0.000276092 0.0306332 -0.00094421 0.00356796 -0.00272946 0.0179664 -5.74661 -4.36594 -3.12971 0.00552092 
32 1 1 -0.0344235 0.00907433 0.0434147 0 0 0 0.00295676 -0.0216031 0.0881094 -0.0982789 0.114422 0.0817491 3.71355 -0.437916 11.0924 0.00883348 
115 1 1 0.00173456 0.0121094 0.0412925 0 0 0 -0.000902153 -0.0531862 0.0695754 -0.00638246 -0.0284027 -0.081509 -2.58258 -0.340482 -0.730798 0.00883348 
298 1 1 0.0327159 0.0104851 0.0409521 0 0 0 -0.0140221 0.0215223 0.0483631 -0.00745937 -0.00324082 -0.0160936 -0.294908 -10.3492 13.9104 0.00552092 
291 1 1 0.0444911 0.0133163 0.0444363 0 0 0 0.0157973 0.16694 0.0542934 -0.102052 -0.0033622 0.0114717 -18.3338 4.55356 -23.5803 0.00552092 
15 1 1 0.0192486 0.0153127 0.0392375 0 0 0 -0.0491578 -0.0326893 0.0250108 -0.0150917 0.101904 -0.0178015 -0.266907 -6.52728 -4.61503 0.00883348 
335 1 1 -0.0308826 0.0227179 0.0417453 0 0 0 -0.0246259 -0.0239877 0.0206558 -0.00865225 0.0181302 0.00960627 -19.5046 -1.14634 -12.9175 0.00552092 
117 1 1 -0.0170042 0.0254445 0.0432984 0 0 0 -0.0243085 -0.0357957 0.0697529 0.0628818 -0.0788985 -0.00254982 -6.68391 -8.29225 5.22124 0.00883348 
140 1 1 0.00773686 0.0249033 0.0418383 0 0 0 0.0109034 -0.0519983 0.086193 0.0149003 -0.0162564 -0.0534984 -0.137103 -14.663 -1.15229 0.00552092 
106 1 1 0.0412292 0.0274385 0.0434253 0 0 0 0.0211326 -0.0170102 0.0389112 -0.401894 0.0475427 -0.0578347 14.9786 3.69153 3.29215 0.00883348 
113 1 1 0.01457 0.0358099 0.0476918 0 0 0 0.00350138 -0.0473493 0.104839 0.039631 -0.112507 -0.0139902 -2.9566 -0.26134 -2.43897 0.00883348 
327 1 1 -0.0437931 0.0443987 0.0423592 0 0 0 0.0343731 0.0234286 0.0073452 -0.00222951 0.00584898 0.0111743 -8.71993 9.31038 9.23624 0.00552092 
315 1 1 -0.00754559 0.0445828 0.0468838 0 0 0 -0.0312219 0.012551 0.0343623 -0.00207062 -0.00171893 -0.00215092 -5.87103 -10.6231 -5.81032 0.00552092 
158 1 1 0.0039075 0.0447049 0.044749 0 0 0 0.00302209 -0.0111684 0.059527 -0.00494078 -0.011809 0.0103671 -10.0404 2.05916 -1.69155 0.00552092 
203 1 1 0.0446768 0.0444163 0.0462143 0 0 0 -0.0124559 0.00737295 0.0593332 -0.00259432 0.025879 -0.000525827 6.8388 12.7602 -1.6976 0.00552092 
252 1 1 -0.0380076 -0.0447283 0.0567848 0 0 0 0.0110731 0.01909 0.0983881 -0.00183251 0.000315832 0.0325873 19.8356 25.2982 -5.44267 0.00552092 
190 1 1 -0.00223698 -0.0443647 0.0519419 0 0 0 -0.0231342 0.0287935 0.0416234 -0.0101364 0.0110664 -0.00735498 6.08839 -4.39979 -12.7596 0.00552092 
189 1 1 0.0282852 -0.0445908 0.0533512 0 0 0 -0.00513568 0.00352639 0.161236 -0.00386326 0.00563535 0.0613451 28.4216 -0.851442 1.00202 0.00552092 
49 1 1 0.0412923 -0.0412071 0.0486625 0 0 0 -0.0175084 0.0230872 0.0967526 -0.0172858 -0.00779398 0.0223517 -3.80719 11.7821 -3.46865 0.00883348 
84 1 1 -0.0413072 -0.0346177 0.0473574 0 0 0 0.00458476 -0.0072738 -0.00740008 0.0414853 -0.0468252 -0.0382141 4.81575 0.222319 0.38561 0.00883348 
6 1 1 -0.0254906 -0.0407861 0.0517358 0 0 0 0.00576398 -0.000635022 0.0579887 -0.0116393 0.0178383 -0.034956 -3.40869 -7.99349 -0.338913 0.00883348 
75 1 1 -0.0252202 -0.0237417 0.0557494 0 0 0 -0.0129778 -0.00437888 0.0486976 -0.137148 0.0137373 -0.0960355 2.77814 -1.3221 0.085622 0.00883348 
313 1 1 -0.0129607 -0.0256105 0.0480714 0 0 0 0.0714487 0.0435075 0.0918542 0.00584622 -0.021608 -0.0174895 -22.0899 4.12111 12.3098 0.00552092 
137 1 1 -0.00207687 -0.0287055 0.048624 0 0 0 0.0165702 -0.0181247 0.0277342 -0.00320814 -0.00269285 -0.0231045 3.8507 -1.42458 1.56395 0.00552092 
227 1 1 0.00839512 -0.0263579 0.0510734 0 0 0 0.0249188 -0.000682661 0.0976082 -0.00148625 0.00208475 -0.0115411 0.764574 -10.8055 1.68738 0.00552092 
91 1 1 0.0217836 -0.0307717 0.0489342 0 0 0 0.0367383 0.00690604 0.119853 -0.0141811 -0.00541508 0.100878 -10.7382 7.78089 1.63979 0.00883348 
247 1 1 0.0357253 -0.0285222 0.0522548 0 0 0 -4.10839e-05 0.0302684 0.130292 0.0252688 0.00316241 0.0212748 17.5719 -30.5242 -2.66394 0.00552092 
36 1 1 -0.0413548 -0.0177043 0.0516314 0 0 0 0.00338737 0.00053434 0.0286968 0.00959648 -0.115238 0.0453627 1.20689 -0.391023 0.0976689 0.00883348 
209 1 1 0.0073302 -0.0154079 0.0510648 0 0 0 0.0177369 0.00889156 0.0239964 0.00882453 0.00442305 -0.00743971 -14.9982 8.35926 2.20915 0.00552092 
215 1 1 0.0327621 -0.0182401 0.0497235 0 0 0 0.0149254 0.00701197 0.0287873 0.0213257 -0.00616237 0.0272092 -22.4387 -25.0491 14.6994 0.00552092 
217 1 1 0.0444891 -0.0200931 0.0514851 0 0 0 0.0013628 0.0472954 0.0509025 -0.00140993 -0.000746276 0.00875484 -9.21098 -8.98717 9.63849 0.00552092 
182 1 1 -0.0299892 -0.00965478 0.0490205 0 0 0 0.0157951 0.00395617 0.0453519 -0.0268732 -0.00508606 0.00540162 1.88269 0.0879823 -3.48549 0.00552092 
204 1 1 -0.0199134 -0.0101559 0.0531004 0 0 0 -0.0097162 0.00651064 0.0689448 -0.010447 0.000672641 -0.0247117 -3.56601 -5.54929 2.23558 0.00552092 
26 1 1 -0.00639175 -0.0118302 0.049041 0 0 0 0.000654476 -0.069406 0.0621225 0.0236997 0.0365889 -0.0285127 1.92878 1.13897 -2.64675 0.00883348 
306 1 1 -0.041237 -0.00340251 0.0520477 0 0 0 0.157905 0.00377629 -0.0419529 0.0230631 0.0741688 -0.0450344 -30.4491 23.4907 -40.6467 0.00552092 
22 1 1 0.00159293 0.00220318 0.0559438 0 0 0 -0.00917344 -0.0390205 0.0333116 0.00786709 0.0837587 -0.0788696 -7.70642 -2.93381 3.37586 0.00883348 
87 1 1 0.0310498 -0.00119749 0.0490939 0 0 0 -0.0246003 -0.033019 0.0149286 -0.0382553 0.00997752 -0.0658375 5.69492 -1.67566 -3.26658 0.00883348 
148 1 1 0.0445472 -0.00463051 0.0522013 0 0 0 -0.00663627 -0.0140785 0.029326 0.000763774 0.000931205 -0.00828056 -35.6624 6.26972 3.20874 0.00552092 
57 1 1 -0.0133394 0.00949024 0.0501112 0 0 0 -0.0278343 -0.0444011 0.0749846 -0.0736496 0.0712618 -0.0809273 10.5409 8.32442 -2.77667 0.00883348 
338 1 1 0.0445777 0.0119028 0.0552178 0 0 0 -0.0138315 -0.00501329 0.0537679 -0.0269136 0.0227452 0.0175248 49.5707 -9.21816 9.10694 0.00552092 
233 1 1 -0.00266612 0.0183834 0.0532665 0 0 0 0.00980122 -0.048895 0.0809581 -0.00527705 -6.1523e-05 0.0111553 2.45164 7.39437 4.26931 0.00552092 
263 1 1 0.00790784 0.0212163 0.0542231 0 0 0 0.00630919 -0.0195196 0.0409931 -0.0175766 -0.0151243 -0.0540888 9.73034 1.51936 1.29315 0.00552092 
45 1 1 0.0301313 0.0153401 0.0554114 0 0 0 0.0142233 -0.0342618 -0.0396588 0.0266365 -0.0977935 -0.0351286 8.29363 -8.50257 -3.36023 0.00883348 
39 1 1 -0.040694 0.0310734 0.0483451 0 0 0 -0.0273543 -0.0571777 -0.0270755 -0.195244 0.0125024 -0.0608471 -3.04089 2.35875 -5.13783 0.00883348 
250 1 1 -0.0279248 0.0260985 0.0524206 0 0 0 -0.0414511 -0.0229408 0.0317615 0.0205079 -0.00310485 0.0249454 -19.6234 6.0953 13.2215 0.00552092 
266 1 1 0.0184273 0.0226063 0.051498 0 0 0 0.0107135 -0.0544772 0.0555188 -0.00866841 -0.000539669 0.0155929 9.96815 14.4845 -1.55341 0.00552092 
127 1 1 0.0344144 0.0290061 0.0558631 0 0 0 0.062393 -0.0459317 0.0493786 -0.0817675 0.00884761 -0.0249912 -9.85163 -10.3278 -16.625 0.00552092 
322 1 1 0.0444875 0.0228016 0.0566485 0 0 0 0.00303181 -0.00109148 0.108663 0.00184926 0.0637632 0.0164981 -23.2887 -29.7183 -25.0028 0.00552092 
46 1 1 -0.00104728 0.0323886 0.0551181 0 0 0 0.0174262 -0.0402222 0.121815 -0.0202788 0.0245559 -0.0124054 3.53209 6.44761 -0.7181 0.00883348 
195 1 1 0.0446085 0.0338126 0.0556513 0 0 0 -0.0388717 -0.0243064 0.101921 -0.0435754 0.0363661 0.0766908 -16.2568 12.83 4.28245 0.00552092 
174 1 1 -0.0333709 0.0444893 0.0491274 0 0 0 -0.0146756 0.000415201 0.0277966 -0.00106416 0.0103767 0.00938907 2.02315 2.4241 4.0332 0.00552092 
35 1 1 -0.0196498 0.0411768 0.05385 0 0 0 -0.0853247 -0.00623662 -0.00510625 0.00105184 0.0021121 -0.0707155 -0.648344 -0.390993 3.89403 0.00883348 