ITEM: TIMESTEP
11200
ITEM: NUMBER OF ATOMS
338
ITEM: BOX BOUNDS mm mm mm
-0.05 0.05
-0.05 0.05
0 0.15
ITEM: ATOMS id type type x y z ix iy iz vx vy vz fx fy fz omegax omegay omegaz radius 
131 1 1 -0.0288758 -0.0412058 0.00521166 0 0 0 0.0225755 0.00679772 0.0108388 -0.0356291 0.00118249 0.0292595 -1.06233 4.50304 -5.9071 0.00538334 
319 1 1 -0.0140275 -0.0440994 0.00536576 0 0 0 -0.0172675 -0.00515029 0.00395487 -1.71272e-05 -5.14612e-06 0.00199038 0.9598 -3.21798 -7.51047 0.00538334 
243 1 1 -0.00357479 -0.0411994 0.00536805 0 0 0 0.0275739 -0.0810355 0.00337141 4.53717e-05 -1.21078e-05 -0.00147738 15.0774 5.12427 -8.65079 0.00538334 
260 1 1 0.0217736 -0.0443273 0.00521901 0 0 0 0.0350421 -0.0889384 0.0347185 -0.00854822 0.00263435 0.0238023 10.1806 8.92859 25.2355 0.00538334 
78 1 1 0.0396115 -0.041539 0.00833617 0 0 0 -0.00543134 -0.00885865 0.00150152 0.00452813 -0.0333227 -0.0363312 0.792604 -0.389114 0.789221 0.00861334 
74 1 1 -0.0414501 -0.0363205 0.00858976 0 0 0 0.00940658 0.0218796 0.0192816 0.0998448 0.0387666 0.0597689 2.7483 -3.31487 2.46345 0.00861334 
60 1 1 0.0091255 -0.0355304 0.00821282 0 0 0 -0.0419669 -0.0206954 0.0031902 -0.245589 0.0111679 -0.0346111 2.64991 -5.22338 1.8014 0.00861334 
296 1 1 -0.0260609 -0.0283569 0.00526295 0 0 0 -0.16448 0.00774804 0.0116508 0.0700015 0.0294292 -0.0148651 -3.37583 -31.9204 1.25811 0.00538334 
173 1 1 -0.0142503 -0.0284623 0.00519897 0 0 0 -0.11139 0.0494404 0.010302 -0.00433885 -6.4012e-05 0.0508241 -10.0317 -20.2525 -37.0459 0.00538334 
275 1 1 -0.00182212 -0.0273601 0.00531976 0 0 0 -0.0178167 0.0126059 -0.0219385 -0.0413728 0.0502957 -0.0721888 -0.807189 -2.41591 -8.18403 0.00538334 
144 1 1 0.0410507 -0.0272885 0.0052816 0 0 0 -0.0125168 -0.00380076 0.00703819 0.00161589 -0.00409351 -0.00832505 0.67099 -2.29135 -11.5576 0.00538334 
102 1 1 -0.041619 -0.0191383 0.00835083 0 0 0 -0.00989501 0.0511053 0.0174819 -0.132739 -0.0529775 -0.0314835 -6.99811 -1.048 6.2482 0.00861334 
328 1 1 -0.028144 -0.0179333 0.00520962 0 0 0 -0.0169511 0.0530065 0.0105957 0.0154187 0.0422866 0.0678456 -12.3738 -3.50711 -1.05993 0.00538334 
40 1 1 -0.0102238 -0.0155353 0.00850537 0 0 0 -0.0150166 0.0293856 0.0262567 0.0351024 -0.0191982 -0.0611952 -3.64173 -3.01596 2.89256 0.00861334 
279 1 1 0.0044773 -0.017295 0.00536643 0 0 0 0.00408134 -0.0512228 0.0034717 1.55158e-06 -1.9473e-05 0.00130267 9.5307 0.75939 11.0931 0.00538334 
267 1 1 0.0153934 -0.0173699 0.00532315 0 0 0 0.0103462 -0.0256099 0.0160581 -0.0330301 0.00138119 0.00158045 3.95747 2.23888 -1.39373 0.00538334 
202 1 1 0.0442338 -0.0166681 0.00537393 0 0 0 0.0144859 0.0326213 0.00637544 0.00195156 -0.00214568 -0.0135502 -5.66758 3.05488 -2.09963 0.00538334 
274 1 1 -0.0220676 -0.00921016 0.00526365 0 0 0 -0.00811063 0.0387535 -0.000946365 0.0646244 -0.0808638 -0.0360301 1.52268 1.81304 -7.49889 0.00538334 
50 1 1 0.0271195 -0.0101899 0.00854388 0 0 0 -0.00610971 0.0648489 0.0222741 0.0267024 -0.375091 -0.183726 4.56064 2.28137 16.4165 0.00861334 
257 1 1 -0.044532 -0.0020286 0.00535233 0 0 0 -0.0109956 0.0266721 0.0210307 -0.000305805 0.00311554 -0.00658664 -5.79174 -2.15953 -4.59171 0.00538334 
171 1 1 -0.0255642 0.000880436 0.00538004 0 0 0 0.0162075 0.0452994 0.00777718 0.00186217 -0.0106482 -0.0141068 -4.10472 9.0997 3.09852 0.00538334 
17 1 1 -0.0107442 0.0018464 0.00852586 0 0 0 0.0358739 0.129399 0.0132032 -0.0709568 -0.0212627 0.0516749 -15.06 4.0441 1.00716 0.00861334 
96 1 1 0.0111503 -0.00406105 0.00850867 0 0 0 -0.0303339 0.022342 0.0229642 0.0805842 0.0576571 -0.0985589 -2.68747 -3.12141 -11.2733 0.00861334 
94 1 1 0.0384492 0.00253607 0.00840929 0 0 0 -0.00093482 0.0623393 0.0192663 0.0884656 -0.00674834 -0.0128775 -5.44981 -1.02033 -16.1187 0.00861334 
268 1 1 -0.0320567 0.0093566 0.00519896 0 0 0 0.0047111 0.0296069 -0.00279356 0.000108013 -0.0178544 -0.0103131 -4.77428 0.196764 0.716805 0.00538334 
290 1 1 0.00119423 0.0111568 0.00528766 0 0 0 -0.0251429 0.0335232 0.0161505 -0.00845621 0.00434646 -0.00500589 -5.73574 -5.67085 -4.63621 0.00538334 
164 1 1 0.0250706 0.00664325 0.00902707 0 0 0 -0.120212 -0.173773 -0.139167 0 0 -0.016027 15.3972 -8.37439 19.6178 0.00538334 
232 1 1 -0.0403198 0.0178176 0.00514038 0 0 0 0.052872 0.0253072 0.0175984 0.00570024 -0.0241044 0.0270079 -0.348321 10.6256 -28.1239 0.00538334 
297 1 1 -0.025775 0.0179361 0.00527176 0 0 0 0.0225733 0.032528 -0.00828982 -0.0222228 -0.0549671 0.00778075 1.98941 -0.00151864 -2.38806 0.00538334 
222 1 1 -0.0128319 0.0169654 0.0052172 0 0 0 0.00803784 -0.0107555 -0.00708004 0.0220158 0.00145354 -0.00928186 1.38801 1.38404 -12.4256 0.00538334 
98 1 1 0.0140487 0.0153026 0.00845316 0 0 0 0.0040518 0.0177069 0.029674 -0.0710704 -0.0638541 -0.047556 -2.44324 0.736274 -1.84046 0.00861334 
316 1 1 0.0292745 0.0164252 0.00536386 0 0 0 -0.109131 -0.0885453 0.00291018 -1.86479e-05 -1.18199e-05 0.00688887 16.4844 -20.3156 6.63845 0.00538334 
162 1 1 0.0446449 0.0147376 0.00532892 0 0 0 0.0158524 0.027891 0.0129564 -0.00345806 -0.0588952 0.0160391 -6.26094 4.51585 4.94254 0.00538334 
294 1 1 -0.0446286 0.0276228 0.00534543 0 0 0 0.0444425 0.0915887 -0.00832825 -0.02074 -0.00942371 0.00611135 -19.361 9.57457 21.3768 0.00538334 
255 1 1 -0.0239712 0.0298217 0.00538301 0 0 0 0.0594122 -0.074296 -0.0015986 0.00519534 0.00654268 -0.0153044 10.4656 13.6856 26.2397 0.00538334 
324 1 1 -0.00708875 0.0260724 0.00537955 0 0 0 0.0376482 -0.00987503 0.0460638 -0.00407794 0.00387259 -0.0502846 1.68948 6.71009 -2.07424 0.00538334 
161 1 1 0.00439267 0.030253 0.00536652 0 0 0 0.0156072 -0.0501525 0.00346288 5.93447e-06 -1.90721e-05 0.00115964 9.33144 2.9039 -16.3951 0.00538334 
77 1 1 0.0219758 0.0317584 0.00817646 0 0 0 0.00211787 0.0122901 0.00860614 0.0442203 0.0420223 -0.0188433 -3.18531 0.0200806 7.79358 0.00861334 
155 1 1 0.03571 0.0263691 0.00535898 0 0 0 -0.0729886 -0.00823497 0.00837457 -0.0115508 0.0606933 0.0223137 1.47355 -13.5846 -28.7074 0.00538334 
175 1 1 -0.0347592 0.0319787 0.00540723 0 0 0 0.167329 -0.00644386 0.0218646 0 0 -0.016027 31.6965 -11.977 -43.6264 0.00538334 
289 1 1 0.0448763 0.0323077 0.00549132 0 0 0 -0.00896921 -0.015739 0.0154499 0.0184546 0.0178871 0.0135071 -3.42522 2.16957 3.26201 0.00538334 
321 1 1 -0.0446181 0.0446514 0.0053602 0 0 0 0.00494631 -0.0269065 0.00609072 -0.00607263 -0.0217537 -0.00265735 2.63728 1.40613 0.101775 0.00538334 
207 1 1 -0.0338508 0.0436116 0.00536641 0 0 0 0.00758652 0.0342237 0.00347422 2.88403e-06 1.30103e-05 0.00133632 -6.36779 1.41158 1.32539 0.00538334 
38 1 1 -0.0167198 0.041557 0.00831602 0 0 0 0.049341 0.00782747 0.0238529 -0.0758276 0.0478258 0.0633466 -2.33435 7.03438 6.08772 0.00861334 
149 1 1 0.00468054 0.0435992 0.00525507 0 0 0 -0.0319375 0.0124509 0.0297993 -0.0284804 -0.0344931 -0.0129495 -2.66546 -5.13406 7.98622 0.00538334 
249 1 1 0.030645 0.0439214 0.00536614 0 0 0 0.0968803 -0.0236644 0.00323374 3.49084e-05 -8.52804e-06 0.00212808 4.40324 18.0266 11.1566 0.00538334 
299 1 1 -0.0283681 -0.0448983 0.0151002 0 0 0 0.0185285 -0.0160324 0.0216578 -0.0210913 -0.0130313 0.0410743 3.77933 0.995206 -6.67486 0.00538334 
130 1 1 0.0165874 -0.0449541 0.0145959 0 0 0 -0.0440145 -0.00940155 0.0255489 -0.0315174 0.00713333 0.0189206 6.97194 -13.7985 10.3007 0.00538334 
7 1 1 -0.0201065 -0.0340541 0.0163308 0 0 0 -0.107017 0.0253119 0.0284085 -0.0557165 0.16586 0.0438732 10.1022 15.4387 20.419 0.00861334 
67 1 1 0.025346 -0.0329119 0.0121088 0 0 0 -0.0169013 0.0108619 -0.0194787 -0.13137 -0.0502632 0.0237562 -14.5817 5.92437 -0.00649188 0.00861334 
179 1 1 -0.0320138 -0.0271436 0.0144194 0 0 0 -0.106851 0.0378088 0.124856 0.0273538 0.014434 -0.041559 -27.3971 3.69495 -40.2365 0.00538334 
104 1 1 -0.00349806 -0.0311957 0.018584 0 0 0 -0.0978714 0.0498432 -0.0558169 -0.228349 -0.0188246 -0.203994 -1.05721 -5.24559 -14.701 0.00861334 
51 1 1 0.0128218 -0.0222919 0.0180977 0 0 0 -0.0460539 -0.0260374 0.0354926 -0.314635 -0.0489278 -0.00579379 -1.31982 -4.84031 -7.47947 0.00861334 
278 1 1 0.0306953 -0.0211005 0.0161125 0 0 0 0.0165981 0.0203356 -0.0378824 -0.0244269 0.0119743 -0.123722 11.4394 -22.5642 -10.7763 0.00538334 
183 1 1 0.0397578 -0.0154164 0.0150897 0 0 0 0.0152081 0.0200049 0.0311853 0.0315993 -0.00709696 0.0278914 8.4764 -1.25623 1.19473 0.00538334 
146 1 1 -0.0441514 -0.00694384 0.0148938 0 0 0 -0.0214925 0.0764396 0.0674298 0.000494114 -0.00583361 -0.000645464 -5.34959 2.1244 0.418724 0.00538334 
19 1 1 -0.0294566 -0.0117785 0.0175049 0 0 0 -0.00227024 0.0945989 -0.00951627 -0.0104946 -0.00270589 0.0187461 3.64315 3.99218 -1.22087 0.00861334 
310 1 1 -0.0168596 -0.00628557 0.0179605 0 0 0 0.0297866 0.105343 0.0340514 0.00105983 -0.00667387 0.0207983 22.1619 -5.1064 2.07616 0.00538334 
160 1 1 -0.0011306 -0.00679167 0.0144044 0 0 0 -0.0293289 0.0473654 0.0586443 -0.0118837 0.053783 -0.0195619 15.7729 14.2372 6.17602 0.00538334 
25 1 1 -0.0416161 0.00829911 0.0149874 0 0 0 0.00133603 -0.00591679 -0.00777981 0.00464208 0.0880463 0.0989069 5.52953 -0.75875 1.65616 0.00861334 
286 1 1 -0.00162294 0.00977568 0.0154736 0 0 0 0.0575753 0.0865543 0.0670046 -0.035607 0.0784465 -0.0979695 12.7565 -7.28699 -13.3267 0.00538334 
261 1 1 0.0446747 0.0124294 0.01578 0 0 0 -0.00388317 0.0797897 0.0423958 0.0139323 0.00369532 0.00753703 -2.58018 -15.2888 13.537 0.00538334 
28 1 1 -0.0189321 0.0203137 0.0171321 0 0 0 0.0330318 0.0371834 -0.00675328 0.161965 -0.0588541 -0.0594578 -3.02576 0.189433 -0.932986 0.00861334 
320 1 1 -0.000848697 0.0199958 0.0117269 0 0 0 0.167897 -0.135499 -0.103957 0 0 -0.016027 29.4729 27.5964 0.766608 0.00538334 
284 1 1 0.0391035 0.0215038 0.0143177 0 0 0 -0.00574968 0.0761563 0.0343993 -0.0033943 -0.0438765 -0.0271713 -23.8474 54.698 -16.9687 0.00538334 
273 1 1 -0.0363749 0.0238437 0.0129344 0 0 0 0.154794 -0.104897 0.091959 -0.0182176 0.0203506 0.0165994 7.68794 -22.8321 -20.6869 0.00538334 
305 1 1 -0.0431676 0.0354328 0.0125459 0 0 0 0.0417525 0.0843544 0.0334262 -0.00533878 0.036608 0.0106753 33.3574 11.1131 0.489447 0.00538334 
23 1 1 -0.028792 0.0343489 0.0178655 0 0 0 0.0856291 -0.0397301 0.118248 -0.119082 0.319888 -0.0473688 -15.4175 -7.7726 13.8293 0.00861334 
69 1 1 -0.00721941 0.0324073 0.0187918 0 0 0 0.0362818 0.0138014 0.0463657 -0.10574 0.0846358 0.00813107 3.23949 -10.4713 -3.51049 0.00861334 
16 1 1 0.00891897 0.0376242 0.0170122 0 0 0 0.0123577 -0.00411329 0.0464481 -0.116413 -0.216864 0.0878608 1.79195 6.51155 -4.27336 0.00861334 
61 1 1 0.0365398 0.0356166 0.0158381 0 0 0 -0.000977267 0.00264313 0.0375666 -0.0797132 0.161925 0.0588597 5.80865 -4.17107 -8.41599 0.00861334 
237 1 1 -0.00338702 0.0446574 0.0122143 0 0 0 -0.0849403 -0.0262808 0.0307772 -0.0372886 -0.0203857 0.00665334 8.31653 -0.814534 1.93106 0.00538334 
239 1 1 0.0193369 0.0448706 0.0118244 0 0 0 -0.00784639 -0.00187494 -0.0132652 -0.0916995 -0.0147741 0.0310853 3.28754 9.32444 -0.266138 0.00538334 
331 1 1 -0.0427998 -0.0449507 0.0203689 0 0 0 -0.0507664 -0.0133541 -0.276761 0.147806 0.0246107 -0.114355 -53.9481 66.1611 9.40452 0.00538334 
225 1 1 -0.00143358 -0.0447759 0.0208247 0 0 0 -0.110078 0.00332428 -0.116538 -0.0164122 -0.0509474 0.241207 -20.3522 58.5795 17.6495 0.00538334 
242 1 1 0.00947372 -0.0439431 0.0224252 0 0 0 -0.130917 0.0756095 -0.0909339 -0.0317664 0.0355687 0.020029 5.18665 -18.3104 -51.5471 0.00538334 
167 1 1 0.0270492 -0.0447635 0.0191028 0 0 0 0.058921 0.0159338 0.00483622 0.0318377 0.0192688 0.00370693 17.2247 13.2136 1.55972 0.00538334 
136 1 1 0.0446919 -0.0436682 0.0212027 0 0 0 0.0241601 0.0222974 0.0247277 -0.252798 0.0204229 0.0685229 -7.40855 1.85078 -1.1445 0.00538334 
180 1 1 -0.0447584 -0.0349875 0.0223232 0 0 0 0.00366154 -0.0171676 -0.203572 0.0875575 0.0758393 -0.000929505 52.3893 29.6597 -1.46905 0.00538334 
256 1 1 -0.0340605 -0.0389223 0.0219042 0 0 0 -0.18938 0.0974796 -0.173636 0.106741 0.0337332 0.0248701 15.9018 -75.7566 -57.3289 0.00538334 
191 1 1 0.0106531 -0.0318985 0.027827 0 0 0 -0.0821887 -0.0456037 0.0370547 -0.0322564 -0.00666006 -0.0165513 12.7881 46.2391 -32.322 0.00538334 
271 1 1 0.0321771 -0.0368431 0.0250568 0 0 0 -0.00449303 -0.0257327 0.129594 0.00117227 0.0703042 -0.00320862 -51.8843 -16.75 21.1853 0.00538334 
128 1 1 -0.0447614 -0.0248182 0.020335 0 0 0 0.030157 0.067295 0.0926926 -0.0283826 0.00384237 0.0162617 6.06296 15.1164 -14.3581 0.00538334 
120 1 1 0.0416531 -0.0287177 0.0190723 0 0 0 -0.0140194 -0.0306172 0.0167552 -0.273365 -0.389 -0.126104 2.54005 1.54646 3.10493 0.00861334 
178 1 1 -0.013832 -0.0199528 0.0212521 0 0 0 -0.110919 -0.032943 -0.0218179 0.00655777 -0.0199036 0.0261145 12.0517 -22.1415 16.9554 0.00538334 
258 1 1 -0.001355 -0.0176615 0.0188336 0 0 0 -0.0123524 0.0290949 0.0343514 -0.000298454 -0.00353631 0.0160305 17.8948 2.90503 6.8486 0.00538334 
134 1 1 0.0447763 -0.0165392 0.0245435 0 0 0 -0.0123426 -0.00300585 0.00759741 0.00971898 -0.00442855 0.0187039 -6.15378 2.03632 -0.575106 0.00538334 
336 1 1 -0.0214021 -0.00748227 0.027937 0 0 0 0.0760198 -0.0114177 0.00393443 -0.0106859 -0.0386494 0.0332025 9.88778 -9.34517 -24.9881 0.00538334 
24 1 1 -0.00673079 -0.00797111 0.0271093 0 0 0 -0.00175987 0.0285199 0.0857934 0.00120145 0.0334693 -0.0068425 -5.74173 -4.75594 -5.9337 0.00861334 
245 1 1 0.00590362 -0.0110642 0.0223763 0 0 0 -0.00879676 -0.00706921 0.0850679 -0.0302578 0.00750812 -0.0128647 12.2644 8.68469 0.793617 0.00538334 
18 1 1 0.0190288 -0.00736802 0.0234004 0 0 0 -0.00799784 -0.0115053 0.0358784 -0.0194509 -0.123549 -0.0844755 -1.72399 2.21883 -0.439669 0.00861334 
184 1 1 0.0317437 -0.0121937 0.0215034 0 0 0 -0.00634766 -0.00196862 0.0167336 0.0624924 0.0683195 -0.0567723 -0.0612242 -1.49166 3.69803 0.00538334 
112 1 1 -0.0254814 0.00465509 0.0192245 0 0 0 0.0227213 0.073919 0.0226074 -0.00543184 -0.258302 -0.16928 1.37347 1.38583 -3.121 0.00861334 
55 1 1 0.0416783 -0.00312392 0.0242422 0 0 0 -0.00556064 0.0140356 0.0321559 -0.130079 0.0186005 -0.047456 5.75342 3.84607 -1.17516 0.00861334 
4 1 1 -0.0104194 0.00864366 0.0261758 0 0 0 0.0249508 0.0549486 0.0346377 0.104843 -0.0839886 0.0381064 0.237795 -2.47521 1.82042 0.00861334 
100 1 1 0.00987442 0.00704344 0.0229121 0 0 0 -0.00519954 0.00493362 0.0589965 0.180049 -0.0244678 0.0722028 -1.69868 5.16735 -1.95753 0.00861334 
95 1 1 0.0279503 0.00684704 0.0251682 0 0 0 -0.0080309 0.00808495 0.0688203 -0.00138242 0.0170916 -0.112327 4.58509 -6.49718 1.32728 0.00861334 
300 1 1 -0.0448597 0.0210582 0.0187697 0 0 0 0.0136403 -0.0166187 0.00944207 0.0126307 -0.0113294 0.0499579 -2.52133 -1.73152 -6.44418 0.00538334 
2 1 1 -0.0333438 0.0188588 0.0258912 0 0 0 0.0303658 0.0368348 0.0147379 0.183461 -0.230661 0.327529 -8.21095 2.30466 9.14771 0.00861334 
108 1 1 0.0218787 0.022094 0.0219652 0 0 0 0.00294114 0.0299844 0.0579871 -0.00715058 0.0134009 0.0640596 -0.478316 -4.03391 0.379503 0.00861334 
246 1 1 -0.0448462 0.0288431 0.0257726 0 0 0 0.0175368 -0.0139923 0.0456159 0.00808716 -0.0211152 0.0424472 8.06589 -8.63447 -3.70032 0.00538334 
73 1 1 0.00545668 0.0234056 0.0254462 0 0 0 0.00990382 0.00642985 0.084796 0.0375035 -0.056729 -0.130527 -3.67837 4.60461 2.32669 0.00861334 
9 1 1 -0.0405553 0.0416362 0.0278353 0 0 0 0.0246095 0.0132288 0.0478324 -0.0352606 -0.134166 0.0623272 -4.96305 8.25974 4.10335 0.00861334 
323 1 1 -0.0127714 0.0447489 0.0215659 0 0 0 0.0527666 0.0183554 0.0810084 -0.0262249 -0.000902001 0.0163467 -15.0761 49.1053 9.60535 0.00538334 
248 1 1 0.00266424 0.0449431 0.0266317 0 0 0 0.00904028 0.00051178 0.030809 -0.0312046 -0.00925623 0.00909308 -4.32376 -14.7384 2.73852 0.00538334 
224 1 1 -0.0408038 -0.044594 0.0335697 0 0 0 -0.0724703 0.0731445 0.198506 0 0 -0.016027 38.083 -51.092 13.5253 0.00538334 
42 1 1 -0.012037 -0.0416236 0.0291556 0 0 0 -0.0114689 0.0104527 0.0122469 0.0427456 0.0674035 0.127028 1.42777 -11.3504 -0.562484 0.00861334 
3 1 1 0.0203569 -0.0414564 0.0307331 0 0 0 -0.105584 -0.0899726 -0.0398827 0.0951298 0.769431 0.0883624 -1.3093 -27.8168 11.9419 0.00861334 
125 1 1 0.036382 -0.0447481 0.0307321 0 0 0 0.0718832 0.0142097 0.185266 -0.0305878 0.0394514 0.0391929 34.9789 29.0521 -13.9125 0.00538334 
329 1 1 -0.0240841 -0.0402311 0.0358761 0 0 0 -0.0172982 -0.226609 0.111415 -0.0128033 0.058017 -0.0968698 -0.835208 21.3045 32.2788 0.00538334 
168 1 1 0.00250401 -0.0387111 0.0285644 0 0 0 -0.180669 -0.0015162 -0.112419 0.0372797 0.055937 -0.0783763 30.7248 -10.8573 38.7099 0.00538334 
211 1 1 -0.0447802 -0.0317549 0.0323007 0 0 0 0.165464 -0.181651 -0.180311 0.0079647 0.136274 0.0623408 -23.8816 -13.1772 -53.2383 0.00538334 
93 1 1 -0.0287794 -0.0287075 0.0297816 0 0 0 -0.0617955 -0.166659 0.189082 -0.0809218 0.00951084 0.2565 16.6133 -3.53854 -16.5185 0.00861334 
43 1 1 -0.00578919 -0.0245454 0.0341405 0 0 0 0.0172224 0.0756683 -0.0475807 -0.193832 -0.282966 0.165302 -3.05455 21.1687 17.3571 0.00861334 
105 1 1 0.0340555 -0.0258315 0.0339844 0 0 0 -0.0296712 -0.114432 0.00415951 0.286834 0.160167 0.0943876 -10.4878 12.2469 -0.51458 0.00861334 
66 1 1 -0.0416941 -0.0181201 0.0320027 0 0 0 0.013657 -0.0147267 0.159906 -0.00528473 -0.0192097 0.339593 3.72149 -19.0869 -5.19555 0.00861334 
52 1 1 0.0135749 -0.0199136 0.0349174 0 0 0 -0.0411335 -0.0400737 0.0614491 -0.0772832 -0.225669 -0.0682628 0.887697 6.80764 6.95824 0.00861334 
240 1 1 0.0224367 -0.00562651 0.0367741 0 0 0 -0.0742218 -0.0610687 0.0429183 0.0441418 -0.204806 -0.109023 -23.4303 27.4212 -15.6239 0.00538334 
259 1 1 0.0297406 -0.012642 0.031948 0 0 0 0.00495326 -0.12737 -0.0168098 -0.00259859 -0.0809119 -0.0437554 19.0377 2.5008 19.5002 0.00538334 
107 1 1 -0.0397572 -0.00177541 0.0283767 0 0 0 0.0650157 0.0439471 0.063042 -0.00890763 -0.373711 0.124617 -15.5962 5.4791 3.97906 0.00861334 
133 1 1 -0.0272021 -0.00102104 0.0341614 0 0 0 0.058556 -0.133439 0.137746 0.0298651 0.115465 -0.0570011 22.943 -14.071 -20.7387 0.00538334 
197 1 1 -0.0164239 -0.00126997 0.0359357 0 0 0 0.160943 0.00233377 -0.0112972 0 0 -0.016027 -16.2739 22.8471 28.4632 0.00538334 
10 1 1 0.008644 -0.00367282 0.0367229 0 0 0 -0.0504612 -0.022511 0.0801239 0.101347 -0.0300288 0.335471 -3.71922 1.88513 -3.27055 0.00861334 
303 1 1 0.0322548 -0.00253169 0.0342187 0 0 0 -0.0729418 -0.107368 -0.0120924 -0.0178429 0.0278003 0.0500065 23.6803 -19.1153 4.91597 0.00538334 
318 1 1 0.0442167 0.00237719 0.0368503 0 0 0 0.0303788 -0.0911501 0.107284 -0.00683023 -0.0062968 -0.0333546 18.6117 7.39858 20.4533 0.00538334 
236 1 1 -0.0221521 0.00826839 0.0336699 0 0 0 0.0235904 -0.10625 0.0858996 -0.0349786 -0.00653931 0.0537681 -40.1705 3.38455 30.2009 0.00538334 
115 1 1 0.00202526 0.0119195 0.0372992 0 0 0 0.00753369 0.00477736 0.0831321 0.0800079 0.185045 -0.0658929 5.05419 -3.66033 -3.77842 0.00861334 
208 1 1 -0.0448279 0.0149956 0.0324142 0 0 0 0.0236744 0.0280553 0.038022 0.031689 0.0532349 0.0511654 -5.28652 -6.77297 -0.0515761 0.00538334 
282 1 1 -0.0214705 0.0188514 0.0329728 0 0 0 0.10017 -0.0976896 -0.0663769 0.0380353 -0.0356477 0.00913518 10.8926 13.9723 -46.6997 0.00538334 
15 1 1 0.0189124 0.0147546 0.0373999 0 0 0 0.0027512 0.0426206 0.0841067 -0.136659 -0.149459 0.0678623 -0.307823 3.59829 -1.54135 0.00861334 
58 1 1 0.0416868 0.0159099 0.0288346 0 0 0 0.00105468 -0.000864108 0.101773 -0.07858 0.0451302 -0.0727865 11.3357 12.4726 -0.134707 0.00861334 
199 1 1 -0.0445095 0.0250553 0.0359181 0 0 0 0.068409 0.0954025 0.102897 0.0271151 0.140263 0.0491733 13.8342 10.1801 -5.63486 0.00538334 
262 1 1 -0.034914 0.0303439 0.0334869 0 0 0 0.109443 0.0449218 0.0321826 0.021835 -0.0742632 0.0151409 1.66139 24.1377 -11.783 0.00538334 
192 1 1 -0.0245754 0.0289077 0.030011 0 0 0 -0.00404563 0.00948091 0.199661 -0.0439337 0.0685985 -0.444487 -2.4514 -20.8884 -17.9151 0.00538334 
292 1 1 -0.0153611 0.0344025 0.0303547 0 0 0 0.0657404 -0.0134712 -0.0802202 -0.0405038 0.00353153 0.134374 29.4797 -25.656 -1.85169 0.00538334 
99 1 1 -0.00226433 0.0351974 0.0348896 0 0 0 0.00858628 0.0162651 0.0752854 0.00999666 -0.152398 0.0760069 -5.01524 6.0613 1.65432 0.00861334 
47 1 1 0.025605 0.0359276 0.0310495 0 0 0 -0.0148384 0.0636543 0.0569726 -0.054839 -0.256785 0.130672 -5.02106 -7.65815 -9.37199 0.00861334 
122 1 1 -0.0258417 0.0413101 0.0362846 0 0 0 0.0950216 -0.0106771 -0.0215761 -0.0565387 -0.124803 0.21328 -1.32822 4.80082 -10.4021 0.00861334 
126 1 1 -0.0130045 0.0447284 0.0322579 0 0 0 0.160495 -0.036279 0.110563 0.049397 0.0321405 0.0200534 -23.8611 -39.7207 33.1528 0.00538334 
229 1 1 0.0140968 0.0434704 0.0285964 0 0 0 -0.047771 0.179972 -0.0225343 0.07574 -0.0583398 0.0257112 -25.3 20.9401 -2.08948 0.00538334 
114 1 1 0.0416093 0.0415385 0.0309566 0 0 0 0.0186085 -0.0137563 0.0444912 -0.124243 0.096836 0.0359005 -4.69494 5.75784 1.90176 0.00861334 
314 1 1 -0.0148066 -0.0447598 0.0428016 0 0 0 0.120096 0.00139178 0.109047 0.013535 -0.00549657 -0.0216555 20.1863 6.46419 -23.4774 0.00538334 
265 1 1 0.0198279 -0.0447273 0.0442126 0 0 0 -0.0641856 -0.00371497 0.00356215 0.114005 -0.0672396 -0.0333948 -2.33343 53.4647 14.7975 0.00538334 
283 1 1 0.0313605 -0.0412386 0.0395114 0 0 0 -0.139417 -0.0627251 0.116578 -0.0184694 0.00430625 0.0551805 -11.8148 5.30236 42.2583 0.00538334 
84 1 1 -0.0414456 -0.0349554 0.0451651 0 0 0 0.0667694 0.0398443 0.0183525 -0.262543 0.590502 0.359078 -36.7602 -3.4445 -41.3581 0.00861334 
337 1 1 -0.00766041 -0.0369476 0.0415174 0 0 0 0.0441903 0.0688375 0.020345 -0.0130528 0.0263996 -0.021509 2.19209 40.8683 37.8345 0.00538334 
56 1 1 0.00755776 -0.0377141 0.0413476 0 0 0 -0.175444 -0.0563601 -0.147779 0.0997101 0.145135 0.155127 -10.4736 14.2122 -10.7428 0.00861334 
307 1 1 -0.0190828 -0.0311528 0.04089 0 0 0 -0.0920407 -0.212806 -0.293778 0 0 -0.016027 -33.2051 3.59119 1.45837 0.00538334 
137 1 1 -0.00218072 -0.0293572 0.0466077 0 0 0 0.0737742 0.126269 -0.0291988 -0.036819 -0.0320279 -0.0227249 -5.31675 -19.6224 -29.1797 0.00538334 
227 1 1 0.00789427 -0.0248446 0.0466738 0 0 0 -0.228628 -0.118409 0.0451793 0.0576757 -0.0520987 -0.0600185 2.86776 -52.9439 2.99282 0.00538334 
91 1 1 0.022276 -0.0300899 0.0456212 0 0 0 -0.0932892 -0.217881 -0.0596634 -0.0636058 0.0219738 0.00894952 33.7112 -16.0989 -7.67665 0.00861334 
326 1 1 0.0447436 -0.0275507 0.042649 0 0 0 0.0190162 -0.0138922 -0.0584441 -0.0713995 -0.121996 0.0823838 15.1911 -8.73646 10.8462 0.00538334 
81 1 1 -0.0203249 -0.0166184 0.0383049 0 0 0 -0.0617622 -0.0249167 0.0343119 0.0791666 0.285054 -0.230679 -7.5846 -5.54281 1.75725 0.00861334 
332 1 1 0.0256623 -0.016562 0.0410033 0 0 0 0.00773033 -0.147814 -0.011394 -0.086861 -0.144405 -0.0561693 -4.23213 4.46713 -31.2426 0.00538334 
182 1 1 -0.0299043 -0.0108087 0.0465623 0 0 0 0.0253062 0.0232653 0.134602 -0.101727 -0.175237 -0.141449 17.8557 22.5826 13.9652 0.00538334 
26 1 1 -0.00536189 -0.0105195 0.0438661 0 0 0 -0.0560751 -0.00796126 0.0907627 0.169425 -0.00487813 -0.310439 9.99983 -0.745983 -0.958295 0.00861334 
276 1 1 0.0174258 -0.0107902 0.0446483 0 0 0 -0.0352182 -0.154949 0.0299587 0.0503399 -0.0688274 0.106898 55.6732 -14.4486 11.045 0.00538334 
5 1 1 0.0415853 -0.0115476 0.0391768 0 0 0 -0.038583 -0.0895941 -0.0166819 0.38048 -0.280491 -0.193106 12.0003 -3.93088 10.4381 0.00861334 
32 1 1 -0.0348808 0.0092271 0.0402309 0 0 0 0.0953218 0.113609 0.0557956 -0.0412986 -0.072398 -0.0428421 8.90706 -7.84485 -10.0169 0.00861334 
57 1 1 -0.0133509 0.00990309 0.0442647 0 0 0 0.0184962 -0.0107935 0.0899856 0.295423 0.305274 0.0409724 9.52262 5.55322 -5.04957 0.00861334 
298 1 1 0.0323605 0.0107076 0.0378617 0 0 0 0.0365485 0.102237 0.0529447 0.0605742 -0.12285 0.121135 -14.0807 12.9771 4.55961 0.00538334 
291 1 1 0.0440021 0.00940423 0.0450902 0 0 0 0.0980102 0.0883881 -0.109032 0 0 -0.016027 -16.4842 -15.7964 4.51844 0.00538334 
335 1 1 -0.0296299 0.0232375 0.0394339 0 0 0 0.0053493 -0.0859697 0.0541296 0.0898292 -0.0781169 0.105868 7.08604 -26.6609 -18.116 0.00538334 
117 1 1 -0.0149653 0.0268191 0.0422165 0 0 0 -0.000720804 -0.045855 0.00643326 -0.129332 -0.103945 0.0912805 -16.7229 -33.7462 21.2619 0.00861334 
140 1 1 0.00866369 0.023329 0.0419416 0 0 0 -0.0454473 0.130081 -0.122492 -0.000970257 -0.00412442 -0.0159288 2.70807 6.65396 -16.1609 0.00538334 
106 1 1 0.0402435 0.0277691 0.0411299 0 0 0 0.111379 0.0202899 0.149706 -0.0673735 -0.0321092 0.0186174 -8.88324 5.3439 1.3674 0.00861334 
113 1 1 0.0144637 0.0359912 0.0438545 0 0 0 0.0322658 0.096444 0.0996959 0.031733 -0.162023 0.102611 -7.49978 13.3216 18.2646 0.00861334 
327 1 1 -0.0447683 0.0447304 0.0405651 0 0 0 0.0116356 0.0184718 0.0469496 -0.000468277 -0.0298414 0.0250038 -2.0751 -10.9136 2.86657 0.00538334 
315 1 1 -0.00622905 0.0448139 0.044064 0 0 0 -0.0636567 3.28853e-05 0.111619 -0.0276291 -0.0232026 0.0257017 -19.4996 39.9262 7.09065 0.00538334 
158 1 1 0.00410669 0.0448437 0.0423399 0 0 0 -0.0452947 0.00802703 0.036778 0.000483749 -0.00536819 0.0384652 -4.36409 -25.386 -6.6628 0.00538334 
76 1 1 0.0311798 0.0414949 0.0463351 0 0 0 -0.013711 0.00696288 0.0888263 0.130276 0.46063 -0.0347357 -10.8533 5.09973 -1.87003 0.00861334 
203 1 1 0.0446895 0.044194 0.0442702 0 0 0 -0.00655215 -0.00471253 0.0634725 0.074047 0.0125601 -0.0321259 12.3137 -4.22624 1.96785 0.00538334 
252 1 1 -0.0383094 -0.0448083 0.0542753 0 0 0 -0.0371486 0.0364153 0.11933 -0.0411532 0.055338 0.021011 26.1661 40.9388 6.91752 0.00538334 
190 1 1 -0.00156119 -0.044802 0.0488238 0 0 0 -0.000566863 0.00545043 0.137954 0.0363096 0.0155447 0.0481551 23.8586 61.554 -2.94614 0.00538334 
189 1 1 0.0277878 -0.0418543 0.0507031 0 0 0 0.0416989 -0.123786 -0.0499196 -0.100801 0.20981 0.0420776 44.2094 -15.1423 26.1251 0.00538334 
6 1 1 -0.0259383 -0.0402419 0.049673 0 0 0 0.0889931 -0.148887 0.182788 -0.127863 -0.0376495 -0.154231 -9.92414 -0.524133 9.92371 0.00861334 
49 1 1 0.04138 -0.0393313 0.0490491 0 0 0 -0.0248939 0.0441107 -0.00149233 0.074249 -0.608131 0.318374 -15.4052 1.44885 -8.4411 0.00861334 
75 1 1 -0.0257495 -0.0233464 0.0529683 0 0 0 0.0584825 -0.0476865 0.0661121 -0.213586 0.35259 -0.420456 7.22481 20.5513 13.5085 0.00861334 
313 1 1 -0.0122599 -0.0277091 0.0505928 0 0 0 -0.138792 -0.00142518 -0.236396 0 0 -0.016027 -49.6446 -19.2761 39.1231 0.00538334 
247 1 1 0.0359811 -0.0253663 0.0532692 0 0 0 0.000322292 -0.219486 -0.0878165 -0.0180769 -0.0311406 -0.0117502 27.0336 -4.31517 12.0833 0.00538334 
36 1 1 -0.0415159 -0.0178294 0.0492808 0 0 0 0.0342667 -0.017725 0.0847789 -0.333096 -0.279676 0.00935873 4.08454 -12.1092 -4.65629 0.00861334 
209 1 1 0.0076213 -0.0141735 0.0472686 0 0 0 -0.0700555 -0.15322 -0.0205742 0.0353339 0.00908711 0.109069 -21.9336 22.1993 -30.0218 0.00538334 
215 1 1 0.0327117 -0.0157687 0.0490397 0 0 0 0.0246349 -0.22695 -0.0186014 -0.118313 -0.145681 -0.137974 -5.0868 0.438828 9.64123 0.00538334 
217 1 1 0.0444301 -0.0195263 0.0501888 0 0 0 0.115888 -0.356181 -0.151369 -0.0758271 0.0172907 0.113601 12.3901 34.9548 -35.055 0.00538334 
204 1 1 -0.0175614 -0.00999504 0.0504105 0 0 0 -0.0626303 0.0248396 0.0899647 -0.0263676 -0.048494 0.0449391 -3.78798 20.5372 -2.52645 0.00538334 
295 1 1 -0.0101879 -0.004435 0.0563285 0 0 0 -0.0875769 0.346735 0.0822215 0 0 -0.016027 7.94174 -23.6082 31.4008 0.00538334 
220 1 1 -0.0427926 -2.5658e-05 0.0483071 0 0 0 -0.217334 -0.226828 -0.31189 0 0 -0.016027 75.909 -16.8192 -34.1345 0.00538334 
53 1 1 -0.0256703 0.0011854 0.0520729 0 0 0 0.00193508 0.0210222 0.104571 0.316603 -0.132924 -0.0976228 -5.37849 -0.0672409 -0.565751 0.00861334 
22 1 1 0.00226184 0.00247433 0.0516773 0 0 0 -0.057876 0.0169778 0.128604 0.228483 0.177752 -0.0252182 -9.71864 -3.08089 3.60404 0.00861334 
87 1 1 0.0321095 -0.000359055 0.047667 0 0 0 -0.0561875 -0.057037 -0.0271915 0.211369 0.139799 -0.0178736 -18.6071 13.3686 -9.82412 0.00861334 
148 1 1 0.0448737 -0.00432026 0.0506573 0 0 0 -0.0230635 -0.0423137 -0.0311192 -0.127341 0.0467928 0.012563 -27.1596 -4.50238 7.93307 0.00538334 
63 1 1 -0.0360107 0.0185424 0.0543089 0 0 0 0.083864 0.00970106 0.150211 0.187595 -0.118234 -0.0603228 9.52858 -5.39237 -6.54587 0.00861334 
233 1 1 -0.00201877 0.0155696 0.0498488 0 0 0 0.0312418 0.0783296 0.0544274 0.0161552 -0.150621 -0.0784657 -13.8153 4.835 -4.54035 0.00538334 
263 1 1 0.0054801 0.0216566 0.0540133 0 0 0 0.218483 0.0228247 -0.0496955 0.108732 0.0311476 -0.00747272 7.51547 22.4657 -27.4135 0.00538334 
45 1 1 0.0280344 0.0155891 0.0519032 0 0 0 0.0669876 0.033754 0.0523838 0.000145809 0.0654606 0.138341 12.2238 13.8637 2.07653 0.00861334 
250 1 1 -0.0260414 0.0271088 0.0502283 0 0 0 0.0037737 -0.04719 -0.00387611 -0.0190869 0.04457 0.0422618 -17.3924 53.7522 4.04659 0.00538334 
266 1 1 0.0155766 0.0239033 0.0509081 0 0 0 0.148016 -0.0212376 -0.123409 0 0 -0.016027 35.734 -20.1806 2.25543 0.00538334 
127 1 1 0.0314521 0.0289434 0.0520544 0 0 0 -0.00566774 0.052576 0.165743 -0.00832678 0.0428994 0.0149733 1.86649 -18.4087 10.3717 0.00538334 
322 1 1 0.0446486 0.0242138 0.0538644 0 0 0 0.00493222 -0.0828321 0.170911 0.0720389 0.0620674 -0.0661536 -10.8057 -7.18962 -4.07819 0.00538334 
39 1 1 -0.0413232 0.0331792 0.0472633 0 0 0 0.0273644 -0.00869137 0.0433589 -0.0451509 -0.209014 0.145585 5.55913 1.881 3.1197 0.00861334 
198 1 1 -0.0301646 0.0354833 0.0551774 0 0 0 0.0403115 -0.0426596 0.0931165 0.0613358 0.0367152 0.0829591 14.121 -10.2291 4.39776 0.00538334 
46 1 1 -0.000578423 0.0337913 0.0518233 0 0 0 0.034069 0.0453883 0.117489 0.256665 -0.0351626 0.105625 13.7339 -2.41436 36.9365 0.00861334 
195 1 1 0.0440679 0.034828 0.0525551 0 0 0 0.0233002 -0.0652311 0.267447 -0.027678 0.0185324 0.028147 37.208 -26.7013 8.0659 0.00538334 
174 1 1 -0.0335053 0.0446763 0.0480336 0 0 0 0.0179988 -0.0154402 -0.0848799 0.0508747 0.0296427 0.205132 7.18122 59.641 -1.54551 0.00538334 
35 1 1 -0.0175636 0.0413161 0.0511411 0 0 0 -0.0696814 -0.0164057 0.105108 -0.270941 0.0831771 0.0747902 -0.740109 -28.8413 7.23496 0.00861334 
154 1 1 0.0203905 0.0411566 0.0551984 0 0 0 0.0230219 0.0268287 0.157323 -0.0168623 -0.0422236 -0.0288916 37.1222 -16.9648 -11.945 0.00538334 
163 1 1 -0.0252773 -0.044232 0.0630798 0 0 0 -0.0774672 -0.124658 0.029234 -0.264352 0.0170431 -0.810543 -39.7093 -40.3793 -51.907 0.00538334 