ITEM: TIMESTEP
56350
ITEM: NUMBER OF ATOMS
338
ITEM: BOX BOUNDS mm mm mm
-0.05 0.05
-0.05 0.05
0 0.15
ITEM: ATOMS id type type x y z ix iy iz vx vy vz fx fy fz omegax omegay omegaz radius 
131 1 1 -0.0257481 -0.0400546 0.00560325 0 0 0 -1.42313e-06 4.78912e-06 5.29554e-06 2.42622e-06 2.29492e-05 2.22136e-05 -0.000610468 -8.43801e-05 -0.000101576 0.00694698 
319 1 1 -0.0146874 -0.0445409 0.006053 0 0 0 -1.83504e-06 2.38605e-06 3.68727e-06 -2.00451e-06 8.50195e-06 1.08901e-05 2.91274e-05 0.000134035 -2.06471e-05 0.00694698 
243 1 1 -0.00279116 -0.043873 0.00610439 0 0 0 -4.01276e-06 1.72302e-06 2.77243e-06 -4.97233e-06 7.55416e-06 -4.88096e-07 0.000114259 -0.000545453 0.000529117 0.00694698 
260 1 1 0.0252546 -0.0438307 0.0059405 0 0 0 -4.93986e-06 1.35169e-06 1.11691e-06 -7.53901e-06 -1.48175e-06 -1.15902e-05 -5.03766e-05 -8.42068e-05 0.00021213 0.00694698 
78 1 1 0.0413085 -0.0407811 0.00927582 0 0 0 -2.68781e-06 7.7301e-07 -6.42229e-07 -8.25987e-06 -1.51282e-05 -7.00587e-05 1.94373e-05 -7.76915e-05 0.000163459 0.0111152 
74 1 1 -0.040828 -0.0367696 0.00959709 0 0 0 -2.04969e-07 3.9741e-06 3.29126e-06 5.50372e-05 9.22872e-05 8.16096e-05 -0.000231942 -0.000108053 0.000304234 0.0111152 
296 1 1 -0.0274829 -0.0274568 0.00612188 0 0 0 -2.39224e-06 5.15132e-06 3.40939e-06 6.81064e-06 2.99147e-05 2.29535e-05 -0.000366809 -0.000418316 1.22422e-05 0.00694698 
173 1 1 -0.0155729 -0.0319598 0.00557448 0 0 0 -3.92761e-06 4.88041e-06 6.41879e-06 7.04626e-07 2.3183e-05 2.44452e-05 -0.00035326 -0.000289577 0.000124183 0.00694698 
275 1 1 -0.0035902 -0.0297747 0.00572446 0 0 0 -6.20705e-06 4.13882e-06 5.48662e-06 -1.91269e-06 2.30975e-05 1.25102e-05 6.21946e-05 -0.00018874 0.000151326 0.00694698 
60 1 1 0.0105837 -0.0360376 0.00947774 0 0 0 -8.3069e-06 5.4317e-06 6.43369e-06 -3.55179e-05 5.5551e-05 -1.97646e-05 -0.000473493 -0.000140089 -0.000137685 0.0111152 
102 1 1 -0.0405428 -0.0169477 0.00905848 0 0 0 -1.52167e-06 4.64653e-06 4.86625e-07 3.84109e-05 0.000114729 6.9742e-05 -0.000442791 1.44534e-05 3.74738e-05 0.0111152 
328 1 1 -0.0254333 -0.01519 0.00543683 0 0 0 -4.05096e-06 6.02527e-06 -2.09626e-06 8.04493e-06 3.19568e-05 -1.56341e-06 -0.00072548 6.52361e-05 0.000491528 0.00694698 
40 1 1 -0.0106765 -0.0158183 0.0106462 0 0 0 -7.67483e-06 1.10949e-05 -4.02788e-06 2.51809e-05 0.000152746 0.000103667 -0.00151551 -0.000295949 -0.000216639 0.0111152 
279 1 1 0.00440774 -0.0207351 0.0109054 0 0 0 -1.0935e-05 8.55181e-06 -1.90787e-06 -8.13759e-07 3.07422e-05 7.12764e-06 -0.00160532 0.000767721 0.000330912 0.00694698 
267 1 1 0.0155005 -0.0199622 0.00561743 0 0 0 -7.44916e-06 4.30065e-06 -2.49487e-06 -5.58943e-06 1.5783e-05 -9.04522e-06 -0.000961177 -0.000974042 -0.000181323 0.00694698 
144 1 1 0.0430495 -0.0248667 0.00596799 0 0 0 -4.72556e-06 2.77364e-08 -1.03311e-06 -7.95252e-06 -4.36742e-06 -2.07019e-05 -0.000339069 -0.000623357 -0.000320773 0.00694698 
202 1 1 0.0452017 -0.0129601 0.0061295 0 0 0 -2.4106e-06 -3.03833e-06 -1.54471e-06 -1.49823e-06 -5.19405e-06 -1.09039e-05 0.000578999 -0.000202347 0.000192016 0.00694698 
257 1 1 -0.0442073 -0.00104702 0.00624944 0 0 0 -1.8638e-06 2.38734e-06 2.62798e-06 -6.12108e-06 -9.86321e-07 1.8942e-05 0.00054196 -0.000647468 0.000344342 0.00694698 
274 1 1 -0.0220225 -0.00377882 0.00775189 0 0 0 -3.99302e-06 1.11537e-05 -8.43067e-06 7.35763e-06 2.96383e-05 6.80149e-05 0.00021437 0.00297534 -0.00014795 0.00694698 
50 1 1 0.0305736 -0.00918802 0.00973542 0 0 0 -5.20862e-06 2.21294e-06 -1.93816e-06 1.12816e-05 1.78677e-05 -6.37213e-05 -0.000273538 0.000137094 -0.000596535 0.0111152 
232 1 1 -0.0434387 0.0118756 0.00626163 0 0 0 -5.877e-07 3.8161e-06 4.83167e-06 8.95157e-06 -9.03898e-06 4.36962e-05 -0.000209139 -3.04895e-05 -0.00016188 0.00694698 
268 1 1 -0.0326769 0.00368232 0.00609405 0 0 0 -3.74348e-06 8.31856e-06 8.79547e-06 9.84158e-09 -6.82237e-07 0.000102832 -0.0014355 0.000335252 0.000291412 0.00694698 
171 1 1 -0.021197 0.00798667 0.0082346 0 0 0 -9.26102e-06 1.31978e-05 2.24539e-06 8.96743e-06 2.49859e-05 0.000148257 0.00151916 0.000374996 0.000968034 0.00694698 
164 1 1 0.0205999 0.00173766 0.00544623 0 0 0 -2.50672e-06 8.09667e-06 1.09203e-06 6.64717e-06 2.53466e-05 1.98738e-05 -0.000528521 0.000149435 -0.000306819 0.00694698 
297 1 1 -0.0253905 0.019586 0.00549861 0 0 0 -1.02545e-05 9.05049e-06 4.10672e-06 4.01551e-06 9.8637e-06 9.7253e-05 -0.00133539 -0.000785223 -0.000278548 0.00694698 
222 1 1 -0.0108508 0.0145911 0.00545565 0 0 0 -1.08466e-05 1.10204e-05 5.20507e-07 -4.16232e-07 2.4024e-05 8.17672e-05 -0.000921268 -0.000403618 -5.54812e-05 0.00694698 
290 1 1 -0.0007993 0.0214674 0.00523783 0 0 0 -8.68653e-06 5.4661e-06 -1.03461e-05 -1.12723e-05 8.20992e-06 2.69887e-05 -0.000156917 -4.59097e-05 -0.000571082 0.00694698 
98 1 1 0.0122233 0.0135227 0.0097935 0 0 0 -9.45517e-06 1.53119e-05 -1.24461e-05 -5.83952e-08 0.00017469 0.000133602 -0.00154087 -0.000648655 0.000258786 0.0111152 
316 1 1 0.0321803 0.019578 0.00502883 0 0 0 -4.04785e-06 5.15082e-06 -8.24096e-06 -1.71888e-05 1.50164e-05 -2.79279e-06 -0.00122 -0.000850807 -0.00056848 0.00694698 
162 1 1 0.0446349 0.0202023 0.00544624 0 0 0 -2.50133e-06 7.48457e-07 -6.60003e-06 -1.01494e-05 5.06549e-06 -9.75891e-06 0.00112484 -0.000750007 -0.000360031 0.00694698 
294 1 1 -0.0439424 0.0252727 0.00613938 0 0 0 -8.51381e-07 3.84713e-06 2.63363e-06 1.71575e-05 -1.14533e-05 3.00056e-05 -0.00056998 -9.09667e-05 0.000367564 0.00694698 
175 1 1 -0.0327496 0.0313742 0.00614202 0 0 0 -4.59895e-06 4.11317e-06 4.56651e-06 2.69442e-06 -2.31545e-05 5.4442e-05 -0.000694865 -0.00107046 -0.000385124 0.00694698 
255 1 1 -0.0148477 0.0261367 0.00587594 0 0 0 -7.94422e-06 6.17975e-06 -3.92868e-07 -4.30849e-06 1.08383e-05 5.37075e-05 -0.000361319 -0.000643025 -0.000630182 0.00694698 
324 1 1 -0.00330542 0.0326855 0.00566929 0 0 0 -2.60735e-06 1.25308e-06 -1.31352e-06 -5.992e-06 7.8921e-06 1.16454e-05 0.000567835 0.000339698 -0.000128076 0.00694698 
161 1 1 0.00824506 0.0320298 0.00644881 0 0 0 -2.92624e-08 7.76254e-06 -9.57113e-06 -8.3955e-06 3.18785e-05 1.3082e-05 -0.000277749 0.000809764 0.00137584 0.00694698 
77 1 1 0.0226325 0.0295981 0.012343 0 0 0 -8.92619e-07 1.46725e-05 -2.29304e-05 -1.77539e-05 0.000164356 -3.44521e-05 0.00011845 0.000336795 -0.000565513 0.0111152 
155 1 1 0.0376085 0.0311764 0.00564482 0 0 0 1.2137e-07 5.12372e-06 -1.39689e-05 -2.92381e-06 1.00968e-05 -8.60903e-06 -0.000918711 -0.000430448 -4.57057e-05 0.00694698 
321 1 1 -0.04402 0.0437755 0.0062938 0 0 0 -5.97475e-07 1.52578e-06 5.13152e-07 1.0134e-05 -1.49602e-06 1.77647e-05 -0.000273588 -0.000132033 2.74543e-05 0.00694698 
207 1 1 -0.0314325 0.0439672 0.00637409 0 0 0 -7.10917e-07 2.76475e-06 -6.37143e-07 1.78537e-06 7.96783e-07 2.19313e-05 -0.000140449 0.00020609 7.67818e-05 0.00694698 
38 1 1 -0.0153313 0.0415941 0.00979058 0 0 0 -2.5896e-06 2.95105e-06 1.96921e-07 -3.21563e-05 1.09921e-05 7.42881e-05 -0.000130404 -0.00033069 -0.000391095 0.0111152 
149 1 1 0.0120644 0.043872 0.00543326 0 0 0 -2.51297e-06 4.17857e-06 -5.46812e-06 -1.09081e-05 9.43328e-06 -7.00067e-08 1.10808e-05 -3.02526e-05 -0.000314625 0.00694698 
237 1 1 0.0011871 0.0437539 0.0121483 0 0 0 8.55177e-08 7.0027e-07 -1.23527e-06 -5.8655e-06 7.47334e-06 -2.93425e-06 0.000229957 0.000894637 0.000320599 0.00694698 
249 1 1 0.0277053 0.0441438 0.00611631 0 0 0 -1.65914e-08 7.99517e-06 -9.00169e-06 -2.2722e-06 1.63796e-05 -2.38795e-06 0.000164699 -0.000238852 0.000194155 0.00694698 
289 1 1 0.0443721 0.0422256 0.00592203 0 0 0 3.56319e-07 7.68939e-06 -1.32428e-05 1.14282e-06 9.37306e-06 -1.05257e-05 -0.00138163 -0.00135518 -0.000907638 0.00694698 
331 1 1 -0.0432693 -0.0455642 0.0218634 0 0 0 4.57651e-07 3.64587e-06 3.78659e-06 1.18879e-05 1.18849e-05 1.33007e-05 0.000275909 -0.000168775 0.000136929 0.00694698 
299 1 1 -0.0246085 -0.0451872 0.0168094 0 0 0 -2.26229e-06 7.30898e-06 8.37454e-06 3.02514e-06 2.53682e-05 2.91733e-05 0.000847366 2.95241e-05 0.00039928 0.00694698 
225 1 1 -0.0115498 -0.0442709 0.0185951 0 0 0 -4.73073e-06 8.66198e-06 1.00121e-05 -2.06704e-06 1.61074e-05 1.20365e-05 0.00029567 -0.000319798 -1.47129e-06 0.00694698 
242 1 1 0.00106186 -0.0446807 0.0196824 0 0 0 -6.79503e-06 7.25954e-06 7.80326e-06 -5.3754e-06 1.18197e-05 -4.35087e-06 0.000693934 0.000301686 0.000777479 0.00694698 
130 1 1 0.0208357 -0.0442058 0.0182027 0 0 0 -2.04588e-06 1.01403e-06 2.02287e-06 -3.14602e-07 3.53065e-06 -1.11833e-05 0.000570087 0.0016498 -0.00019216 0.00694698 
167 1 1 0.0319451 -0.0442251 0.0228862 0 0 0 -1.95723e-06 -1.26853e-06 -6.75024e-06 4.62086e-06 -7.78195e-06 -3.53744e-05 -0.00053194 -0.000652446 0.000266338 0.00694698 
136 1 1 0.0442903 -0.0447089 0.0241887 0 0 0 -9.82034e-07 -5.25791e-07 -2.18096e-06 8.651e-06 -7.64061e-06 -2.22386e-05 -0.000184972 -5.7266e-05 4.20792e-05 0.00694698 
179 1 1 -0.0345746 -0.0262027 0.0213893 0 0 0 -5.8755e-06 1.21516e-05 8.18344e-06 1.9377e-05 4.51057e-05 4.88343e-05 5.5798e-06 -0.000772564 0.000615511 0.00694698 
7 1 1 -0.0200353 -0.0304271 0.0211167 0 0 0 -9.37498e-06 1.60413e-05 1.28797e-05 6.52464e-05 0.000169494 0.000233916 -0.000478753 -0.000138167 0.000290335 0.0111152 
104 1 1 -0.00011276 -0.0285696 0.0247238 0 0 0 -1.36434e-05 1.49356e-05 1.07715e-05 9.22326e-05 4.42043e-05 4.57867e-05 -7.70448e-05 0.000219818 -0.000199964 0.0111152 
67 1 1 0.0278423 -0.0280453 0.0126282 0 0 0 -8.81843e-06 2.00771e-06 -9.17294e-07 8.40343e-06 -9.82378e-06 -0.000157998 9.81653e-05 0.000275941 8.32565e-05 0.0111152 
128 1 1 -0.0450313 -0.0217266 0.0238335 0 0 0 5.21915e-07 9.2527e-06 5.72933e-06 1.84885e-05 1.51065e-05 2.74744e-05 -0.000738785 0.000211469 0.000181992 0.00694698 
278 1 1 0.0331688 -0.0161931 0.0241362 0 0 0 -7.65089e-06 -2.46558e-06 -6.97517e-06 3.60472e-05 -2.12099e-05 -5.65009e-05 0.000395991 7.54491e-05 -7.60383e-05 0.00694698 
146 1 1 -0.044873 -0.00919979 0.022471 0 0 0 -3.97055e-06 1.05549e-05 6.26648e-06 7.54649e-06 -1.1043e-05 0.000110385 0.00126567 -0.000899244 0.00139132 0.00694698 
96 1 1 0.0119172 -0.00721235 0.0161321 0 0 0 -1.3344e-05 9.48948e-06 -7.37558e-06 6.91513e-05 7.01553e-05 9.67112e-05 0.000815354 -0.000915279 -0.00037941 0.0111152 
183 1 1 0.0447601 -0.00703516 0.017542 0 0 0 3.77567e-06 -1.5452e-06 -1.02683e-05 1.48401e-05 2.27036e-06 -2.68793e-05 -0.00210385 0.000221401 -0.000885347 0.00694698 
25 1 1 -0.0377542 0.00483183 0.0223889 0 0 0 -9.70634e-06 2.40134e-05 2.57083e-05 0.000187405 3.15426e-05 0.000962416 -0.000163443 -0.000714953 -0.000285174 0.0111152 
17 1 1 -0.00526009 0.00256305 0.014408 0 0 0 -1.24946e-05 1.50964e-05 -8.9505e-06 7.76173e-05 0.000153488 0.00038321 0.000932692 -0.000112398 0.000134407 0.0111152 
94 1 1 0.0384742 0.00842692 0.0134968 0 0 0 7.15627e-06 -1.20196e-06 -2.01343e-05 8.17649e-05 1.17423e-05 -0.000135306 0.00055978 0.00325002 -0.000395459 0.0111152 
300 1 1 -0.0447062 0.0189524 0.0170509 0 0 0 -2.32131e-06 1.04963e-05 1.09378e-05 2.6027e-05 -1.24513e-05 8.49812e-05 -0.000350726 -0.000775194 0.000717188 0.00694698 
273 1 1 -0.0327467 0.0189504 0.0155432 0 0 0 -8.33245e-06 1.69225e-05 1.57897e-05 3.3771e-05 -1.27364e-05 0.000161067 -0.000557191 0.000751417 9.54852e-05 0.00694698 
28 1 1 -0.0168118 0.0183632 0.0204915 0 0 0 -9.26795e-06 1.78311e-05 5.19361e-06 0.00017786 8.16627e-05 0.0006364 -0.000639025 0.00099262 -1.79448e-05 0.0111152 
286 1 1 -0.00173315 0.0186073 0.0168811 0 0 0 -1.724e-05 1.94792e-05 -1.52526e-05 1.04858e-05 4.54633e-05 7.85114e-05 -0.00157274 0.000648702 0.000909932 0.00694698 
305 1 1 -0.0436936 0.0348177 0.0156113 0 0 0 -4.16165e-06 6.13387e-06 4.46575e-06 -2.0695e-06 -1.74313e-05 6.23638e-05 -0.000270659 -0.000984426 0.000617953 0.00694698 
23 1 1 -0.0279413 0.0337349 0.0221095 0 0 0 -5.75739e-06 1.46859e-05 7.71994e-06 9.76198e-05 3.70363e-05 0.000459631 -0.000693277 0.000649546 3.03076e-05 0.0111152 
320 1 1 0.00379662 0.0296091 0.018379 0 0 0 -8.51005e-06 1.75273e-05 -1.9381e-05 2.41496e-05 2.904e-05 3.99614e-05 -0.000462576 -0.00232422 -0.00345559 0.00694698 
284 1 1 0.0446347 0.0273726 0.015737 0 0 0 -2.35473e-06 1.1127e-05 -1.16883e-05 -3.54966e-06 1.37916e-05 -5.52125e-06 -0.00311918 -0.00111729 -0.00205802 0.00694698 
239 1 1 0.0187751 0.0448273 0.0154887 0 0 0 -5.30846e-10 7.41182e-06 -1.13951e-05 1.54896e-06 1.41483e-05 9.13513e-06 0.000716882 -9.16759e-05 0.00012408 0.00694698 
61 1 1 0.037083 0.0409697 0.0204872 0 0 0 7.32855e-06 1.14434e-05 -2.45039e-05 4.33735e-05 8.39592e-05 -5.40741e-05 0.0010571 0.00114126 0.000466479 0.0111152 
224 1 1 -0.0437842 -0.0444768 0.0343522 0 0 0 3.00225e-06 2.09145e-06 5.69301e-06 9.54106e-06 -6.70294e-08 1.2675e-05 0.000768883 7.0498e-05 -0.000479641 0.00694698 
256 1 1 -0.0327608 -0.0400947 0.0257175 0 0 0 -3.76053e-06 8.59165e-06 1.00403e-05 1.19575e-05 2.2713e-05 4.80229e-05 -0.000288106 -0.000666267 0.000499739 0.00694698 
42 1 1 -0.0120031 -0.0408869 0.0355063 0 0 0 -9.2801e-06 1.51851e-05 1.67814e-05 0.000100936 1.43754e-05 7.14074e-05 0.000381237 0.000111193 0.000153893 0.0111152 
271 1 1 0.0313717 -0.040779 0.0343155 0 0 0 -1.15699e-05 -2.91128e-06 -1.68231e-05 2.11805e-05 -4.03351e-05 -7.08375e-05 0.00026039 -0.000722705 -0.000619218 0.00694698 
125 1 1 0.0438559 -0.0440727 0.0371344 0 0 0 -5.43464e-06 -7.40007e-07 -4.02306e-06 -1.74573e-06 -2.66382e-06 -3.23435e-05 -0.000435702 -0.000749358 0.000624659 0.00694698 
180 1 1 -0.0442349 -0.0338853 0.0265895 0 0 0 5.26753e-07 5.68277e-06 7.19128e-06 1.5915e-05 1.46711e-05 2.60532e-05 7.00446e-05 0.000271692 0.000258754 0.00694698 
120 1 1 0.0409684 -0.0296039 0.0290176 0 0 0 -4.14848e-06 -2.32256e-06 -8.87203e-06 9.26291e-05 -7.98448e-05 -0.000245991 0.000101412 -0.000611835 0.000140077 0.0111152 
178 1 1 -0.012639 -0.0206732 0.032126 0 0 0 -1.54493e-05 2.57377e-05 1.13965e-05 4.86528e-05 -3.81612e-06 0.000113173 -0.00131772 -0.000979395 -0.000404666 0.00694698 
51 1 1 0.0185589 -0.0226609 0.0301883 0 0 0 -1.70723e-05 4.07006e-06 -4.15532e-06 0.000210521 -0.000109952 -0.000181341 -0.000264467 0.000277192 -0.000484273 0.0111152 
134 1 1 0.0440827 -0.0143844 0.0325108 0 0 0 5.12109e-07 -2.98661e-06 -1.57785e-05 2.96007e-05 -1.08261e-05 -5.34274e-05 -0.00107138 -0.00113969 -0.000517286 0.00694698 
19 1 1 -0.0263969 -0.0120069 0.0273707 0 0 0 -1.52726e-05 2.6467e-05 1.10585e-05 0.000185165 7.37901e-05 0.000879846 1.05695e-05 0.00129697 0.000315544 0.0111152 
310 1 1 -0.0104366 -0.00898784 0.0299636 0 0 0 -1.38889e-05 2.4944e-05 9.29448e-06 6.24735e-05 -1.7499e-05 0.000194434 0.00123904 -0.00123883 -0.000496032 0.00694698 
258 1 1 0.000949924 -0.012339 0.0275496 0 0 0 -1.75483e-05 1.58381e-05 4.9399e-06 5.11986e-05 -5.42761e-06 6.52585e-05 -0.000774937 0.00129289 -0.000163391 0.00694698 
18 1 1 0.0121869 -0.00447301 0.0369605 0 0 0 -1.3752e-07 2.34519e-05 -2.72492e-05 0.000428265 -5.84859e-05 -1.03491e-05 -0.00384534 0.0021931 -0.00172243 0.0111152 
184 1 1 0.0277391 -0.00806877 0.0328957 0 0 0 -4.04956e-06 -2.14995e-07 -3.09011e-05 6.91947e-05 -2.36033e-05 -6.91186e-05 -0.00262186 -4.49979e-05 0.000227618 0.00694698 
112 1 1 -0.0179402 0.00468418 0.0351753 0 0 0 -1.01102e-05 2.51164e-05 1.69475e-05 0.000421992 -0.000107246 0.000972223 0.000441831 -0.000494546 -0.000930342 0.0111152 
160 1 1 -0.00258798 0.000661746 0.0310722 0 0 0 -7.24925e-06 2.06804e-05 -5.592e-06 8.24875e-05 -1.5378e-05 0.000112926 -0.00276002 0.00322814 -0.000335352 0.00694698 
55 1 1 0.0406908 0.00155576 0.0321766 0 0 0 1.22078e-05 -1.98037e-06 -3.26873e-05 0.000228055 -1.14183e-05 -0.000228561 -0.000626695 -0.0021614 -0.000735789 0.0111152 
2 1 1 -0.0316935 0.0196551 0.0354847 0 0 0 5.79293e-06 2.49022e-05 3.28432e-05 0.000479252 0.000100438 0.000894025 -0.000333637 0.00183195 -0.000265399 0.0111152 
100 1 1 0.00652126 0.0141765 0.029828 0 0 0 -2.78452e-06 1.85676e-05 -3.79624e-05 0.000223703 8.95726e-05 0.000251521 0.00122344 0.00212179 0.000107014 0.0111152 
261 1 1 0.043399 0.0180072 0.0268078 0 0 0 2.37874e-05 -6.38811e-06 -3.33328e-05 6.73654e-05 -6.42641e-06 -4.04868e-05 -0.000600334 -0.0019603 0.000614816 0.00694698 
246 1 1 -0.0443139 0.0262016 0.0275324 0 0 0 1.81231e-06 9.2622e-06 2.01683e-05 5.76844e-05 -6.39294e-06 0.000116666 -0.000837055 -0.00146922 0.000352942 0.00694698 
69 1 1 -0.0068633 0.0298271 0.0340231 0 0 0 7.18655e-06 1.46593e-05 -6.13667e-06 0.000313066 1.55032e-05 0.000714895 0.0004819 0.00119208 -0.000479452 0.0111152 
108 1 1 0.0262495 0.0288961 0.0325398 0 0 0 1.91182e-05 8.80676e-06 -4.64962e-05 0.00019205 5.02142e-05 -8.36285e-05 0.00110479 0.000775431 3.2762e-05 0.0111152 
9 1 1 -0.0407958 0.0418491 0.032558 0 0 0 -2.96422e-07 7.67712e-06 7.83378e-06 5.69235e-05 7.3671e-05 0.000232108 -0.000756655 8.58401e-05 0.00040278 0.0111152 
323 1 1 -0.0070076 0.0443556 0.0261316 0 0 0 1.9522e-06 7.67887e-06 -4.89594e-09 2.79857e-05 -2.73e-05 8.25321e-05 -0.000184362 0.000620828 0.000160708 0.00694698 
16 1 1 0.0103834 0.0409506 0.0288255 0 0 0 6.37982e-06 7.52665e-06 -1.619e-05 0.000150072 -2.72423e-05 0.000208993 0.000770375 0.0011108 0.000195571 0.0111152 
329 1 1 -0.0243337 -0.0448883 0.0452014 0 0 0 -7.43883e-06 1.00577e-05 1.63633e-05 3.36239e-05 2.00281e-06 2.76281e-05 0.00176685 -0.00012191 0.0006154 0.00694698 
168 1 1 0.00170638 -0.0450129 0.040199 0 0 0 -1.00786e-05 6.4273e-06 1.79386e-05 2.62213e-05 -1.33669e-05 -1.76795e-05 0.00294027 -0.00125994 0.000600062 0.00694698 
3 1 1 0.0165061 -0.0408745 0.039313 0 0 0 -1.30686e-05 3.52335e-06 3.5247e-06 0.000152548 -0.000124897 -0.000176397 0.000129017 0.00257484 -0.000198322 0.0111152 
283 1 1 0.0310352 -0.0446314 0.0458371 0 0 0 -3.14942e-06 -4.82737e-06 -1.58657e-05 4.08334e-05 -4.00971e-05 -5.79608e-05 -0.00104714 0.00138131 -0.000353196 0.00694698 
211 1 1 -0.0439276 -0.0331951 0.0391794 0 0 0 6.00276e-06 9.90538e-06 1.61434e-05 2.58255e-05 -4.49464e-06 4.77186e-05 -0.000361685 -0.000633886 0.000921041 0.00694698 
93 1 1 -0.0271457 -0.0292816 0.0419052 0 0 0 -3.92077e-06 2.19505e-05 2.829e-05 0.000228965 2.5813e-05 0.000489801 -0.000450794 0.000278213 -0.0003301 0.0111152 
191 1 1 0.00287894 -0.0323182 0.0407477 0 0 0 -1.70296e-05 1.67357e-05 1.8929e-05 6.61255e-05 -3.53725e-05 -3.87865e-05 -0.00224925 -0.000341813 -0.000240089 0.00694698 
105 1 1 0.0303968 -0.0280612 0.0465898 0 0 0 -3.89041e-06 -8.78109e-06 -2.51443e-05 0.000357131 -0.000249204 -0.000430359 0.000268067 0.000590821 -9.9917e-05 0.0111152 
66 1 1 -0.041682 -0.0169767 0.0389234 0 0 0 -2.53437e-06 1.85878e-05 1.85749e-05 9.16151e-05 -1.63702e-05 0.000388616 0.000397215 -0.000944484 0.000971839 0.0111152 
43 1 1 -0.00882972 -0.0242901 0.0478753 0 0 0 -1.23356e-05 2.74261e-05 2.47193e-05 0.000544206 -0.000338547 0.000353744 0.0001979 0.00079667 0.000316557 0.0111152 
259 1 1 0.0241567 -0.0131299 0.0440616 0 0 0 2.15656e-06 1.87623e-06 -2.424e-05 0.000102739 -4.89981e-05 -6.96374e-05 -0.000161429 0.0016321 -0.00190956 0.00694698 
336 1 1 -0.0246616 -0.011651 0.0453201 0 0 0 0.00148138 -0.003838 -0.000237223 -4.73786e-05 -0.00122924 0.000561477 0.648428 0.249193 0.929465 0.00694698 
245 1 1 -0.000273908 -0.01185 0.0427905 0 0 0 -1.47473e-05 3.09747e-05 1.16845e-05 0.000120182 -4.93564e-05 8.56823e-05 -0.000705674 -0.00228489 0.0029677 0.00694698 
303 1 1 0.0269175 -0.0013657 0.0493329 0 0 0 1.84612e-05 -8.01842e-06 -7.76372e-05 0.000117032 -4.5969e-05 -9.53406e-05 -0.004156 -0.000975298 0.00070554 0.00694698 
5 1 1 0.0405047 -0.0106682 0.0488249 0 0 0 8.81244e-06 -9.2693e-06 -3.16903e-05 0.000275723 -0.000175587 -0.000331372 0.00060713 0.000577795 -0.000116244 0.0111152 
107 1 1 -0.0382431 0.00195706 0.0431277 0 0 0 4.53821e-06 2.60809e-05 4.1386e-05 0.000495742 -1.73014e-05 0.000830808 0.00117184 0.00186241 -0.00107739 0.0111152 
95 1 1 0.0239299 0.0111489 0.0391397 0 0 0 1.7473e-05 5.1779e-06 -7.79135e-05 0.000343841 -2.58292e-05 -0.000256404 0.00164292 -1.10944e-06 -0.000327654 0.0111152 
318 1 1 0.044365 0.0047285 0.0485669 0 0 0 2.37619e-06 -5.91956e-07 -2.90261e-05 1.36077e-05 -1.46191e-05 -3.02417e-05 -0.0010207 -0.00177567 -0.000398112 0.00694698 
208 1 1 -0.0448666 0.0168567 0.0449705 0 0 0 1.07344e-05 1.87153e-05 3.75634e-05 7.1237e-05 6.06298e-06 0.000160699 -0.00146525 -0.00397526 0.00238517 0.00694698 
282 1 1 -0.0182463 0.018533 0.0445891 0 0 0 1.7739e-05 2.33101e-05 2.11714e-05 0.000147391 -2.28052e-05 0.000234136 -0.000252496 0.00235172 0.000328245 0.00694698 
4 1 1 -0.00366652 0.0146153 0.0482209 0 0 0 2.06629e-05 1.40144e-05 -1.3373e-05 0.000615336 -0.00027093 0.0006518 -0.000461778 0.00276357 -0.00235644 0.0111152 
58 1 1 0.0410775 0.0200219 0.043561 0 0 0 2.17298e-05 3.82166e-06 -5.15655e-05 0.000171516 5.90171e-07 -0.000173644 -0.00050874 -0.000823523 -0.000680722 0.0111152 
199 1 1 -0.0449273 0.0285898 0.0409785 0 0 0 3.02983e-06 1.14072e-05 2.853e-05 4.5977e-05 1.34431e-05 0.000118756 -0.000222012 -0.00293169 0.00143275 0.00694698 
192 1 1 -0.0256316 0.0271739 0.048126 0 0 0 3.15181e-05 7.44964e-06 4.2743e-05 0.000169098 -1.46547e-05 0.000212747 0.00277767 -0.000592601 -0.000980503 0.00694698 
292 1 1 -0.0146968 0.032469 0.0485796 0 0 0 3.97335e-05 8.87387e-06 2.61522e-05 0.000190002 -1.36801e-05 0.000285839 -0.000165971 0.0061243 0.0025655 0.00694698 
73 1 1 0.0108551 0.0280465 0.0457834 0 0 0 3.84635e-05 -5.68683e-06 -4.21828e-05 0.000549189 -0.000137844 0.000275383 0.00162843 0.00208908 8.83178e-05 0.0111152 
327 1 1 -0.0435039 0.0432739 0.049771 0 0 0 7.22878e-06 -1.43655e-06 2.71644e-06 4.74781e-05 -1.20411e-05 -1.05169e-05 0.0012463 0.000230297 -8.30536e-05 0.00694698 
126 1 1 -0.0115806 0.044294 0.0464579 0 0 0 1.18636e-05 5.78986e-06 4.77124e-06 6.19165e-05 3.29141e-06 0.000190758 -0.00114373 0.00261069 0.00117571 0.00694698 
248 1 1 0.000186962 0.0432518 0.0425157 0 0 0 1.26242e-05 5.98286e-06 -1.09795e-05 -1.28217e-05 -4.63415e-06 1.35815e-05 -0.000775271 0.000144619 -0.000432054 0.00694698 
229 1 1 0.0125663 0.0445193 0.0454159 0 0 0 1.41429e-05 -3.0612e-06 -1.11423e-05 3.70329e-05 -9.64557e-06 3.66976e-05 0.00216691 -0.000453265 0.0017268 0.00694698 
114 1 1 0.0401335 0.0408 0.040734 0 0 0 1.24587e-05 7.63129e-06 -3.31441e-05 0.000125539 1.2233e-05 -2.83345e-05 0.000616393 -0.00186889 0.000271071 0.0111152 
314 1 1 -0.0174739 -0.0445492 0.0555941 0 0 0 -8.80698e-06 1.62012e-05 1.85879e-05 1.85957e-05 -3.26013e-05 1.9536e-05 0.000773857 0.000381022 0.000701226 0.00694698 
337 1 1 -0.00609997 -0.0408572 0.0515865 0 0 0 -1.31898e-05 2.04177e-05 1.80207e-05 5.08077e-05 -6.85681e-05 -8.37217e-06 -7.53569e-05 -0.000120508 -0.000631093 0.00694698 
56 1 1 0.00688367 -0.0394003 0.0619726 0 0 0 -6.03814e-06 3.17836e-06 5.13142e-07 0.000358128 -0.000302765 -0.000282579 0.000288694 0.00158191 -0.000824948 0.0111152 
265 1 1 0.0220177 -0.043724 0.0552628 0 0 0 -2.5395e-06 -3.24924e-06 -7.24199e-06 3.60893e-05 -3.87889e-05 -4.03427e-05 0.000560201 -0.00122717 -9.25041e-05 0.00694698 
49 1 1 0.0406724 -0.0407583 0.0580766 0 0 0 -1.50259e-06 -8.9183e-06 -1.60536e-05 0.000145308 -0.00012919 -0.000238748 -0.000278425 -0.000894891 0.000335765 0.0111152 
84 1 1 -0.0411457 -0.032993 0.0553185 0 0 0 8.37934e-06 2.44103e-05 3.30509e-05 0.000103713 -0.000131838 0.000287002 -0.000793464 -0.000932696 0.00127606 0.0111152 
307 1 1 -0.0195838 -0.0324346 0.0571154 0 0 0 -2.42167e-06 2.77481e-05 3.91776e-05 9.25192e-05 -7.48137e-05 8.56724e-05 0.000387871 0.00157594 -0.000811968 0.00694698 
326 1 1 0.0447956 -0.0254458 0.0534947 0 0 0 -9.84158e-07 -6.70872e-06 -2.00535e-05 4.69601e-05 -3.54388e-05 -7.77806e-05 -0.00198809 -0.00290368 0.000262316 0.00694698 
81 1 1 -0.0216685 -0.0170401 0.0624318 0 0 0 1.98009e-05 3.43323e-05 7.00362e-05 0.000804516 -0.000554529 0.000891312 0.00139047 0.0022434 -0.00100381 0.0111152 
52 1 1 0.0112853 -0.0221409 0.0507309 0 0 0 -2.02599e-06 8.92331e-06 -2.83824e-06 0.000569347 -0.000366084 -0.000215789 0.000996554 0.00219003 -0.00214566 0.0111152 
332 1 1 0.0267559 -0.0152036 0.0567084 0 0 0 1.54129e-05 -1.71369e-05 -2.87625e-05 0.000141668 -9.45963e-05 -8.95384e-05 0.00266289 0.000613571 -0.00143678 0.00694698 
220 1 1 -0.043805 -0.00977094 0.054218 0 0 0 1.05764e-05 1.38849e-05 2.94155e-05 4.98256e-05 -4.9766e-05 8.4151e-05 0.000313678 0.000578953 0.00071188 0.00694698 
133 1 1 -0.0272082 -0.00283241 0.0559952 0 0 0 2.32374e-05 2.58757e-05 6.32257e-05 0.00020856 -0.000112383 0.000234601 -0.00432962 -0.00256416 0.00180158 0.00694698 
24 1 1 -0.0102674 -0.00372086 0.0528005 0 0 0 -7.42776e-06 2.44138e-05 2.90758e-05 0.00088674 -0.000557753 0.000782599 -0.00224858 0.00623079 -0.000731942 0.0111152 
240 1 1 0.0172584 -0.00749228 0.0553607 0 0 0 2.58532e-05 -4.19182e-06 -4.89791e-05 0.000170954 -8.49174e-05 -6.18777e-05 -0.0062219 -0.000100717 0.000492275 0.00694698 
236 1 1 -0.0236944 0.00828096 0.0507772 0 0 0 3.09967e-05 1.57713e-05 4.21591e-05 0.00014147 -3.99203e-05 0.000207857 0.00295462 0.00444455 -0.00230112 0.00694698 
15 1 1 0.0136565 0.00817868 0.0563008 0 0 0 4.16638e-05 -4.90097e-06 -8.2494e-05 0.000690079 -0.000322061 2.76163e-05 -0.000250183 0.0039253 -0.0012047 0.0111152 
291 1 1 0.0437832 0.0122418 0.0588945 0 0 0 2.25745e-05 1.52e-05 -5.30939e-05 3.24041e-06 1.01001e-05 -2.2627e-05 -0.00210809 0.000162369 -0.00377211 0.00694698 
335 1 1 -0.0343159 0.0161597 0.0526642 0 0 0 4.06948e-05 1.75511e-05 6.24254e-05 0.000123833 -3.19873e-05 0.0001951 0.00139856 0.000779533 -0.00125245 0.00694698 
266 1 1 0.0217589 0.0233197 0.0586729 0 0 0 8.52548e-05 -1.58806e-05 -9.82644e-05 0.000129527 -4.14623e-05 -5.08836e-06 0.00144221 0.0063036 -0.00357258 0.00694698 
298 1 1 0.0302846 0.0135353 0.0553188 0 0 0 3.63006e-05 -1.14013e-05 -0.00010836 0.000125463 -3.44495e-05 -7.11228e-05 0.00255707 -0.000150253 0.00233991 0.00694698 
262 1 1 -0.0377383 0.0287333 0.0508386 0 0 0 2.65747e-05 8.65737e-06 5.20109e-05 0.000116048 -2.04381e-05 0.000141429 -0.00160591 0.00428093 -1.49867e-05 0.00694698 
99 1 1 -0.00360815 0.0303682 0.061507 0 0 0 0.000120747 2.37782e-05 -2.7375e-05 0.000651395 -0.000475732 0.000985953 -0.00326485 0.00488631 -0.00415926 0.0111152 
122 1 1 -0.0274283 0.0409192 0.0558335 0 0 0 1.49649e-05 -2.87173e-06 3.28991e-05 0.000299666 -6.62262e-05 0.000477044 -0.0012279 -0.00277936 0.000675556 0.0111152 
158 1 1 0.000206952 0.0448778 0.0561862 0 0 0 6.93307e-05 1.2847e-05 -4.0382e-05 5.16162e-05 -4.25938e-05 9.47941e-05 0.00587672 0.00711419 0.011349 0.00694698 
47 1 1 0.0244975 0.0400922 0.0559318 0 0 0 5.90396e-05 1.64142e-06 -5.9196e-05 0.000175905 -6.75994e-05 4.05321e-05 0.00228445 0.00548338 0.00370423 0.0111152 
203 1 1 0.0420083 0.0441913 0.0569424 0 0 0 3.52504e-05 1.47411e-05 -3.84193e-05 1.08266e-05 -2.73959e-06 1.24197e-05 0.00298409 0.00476383 0.00578 0.00694698 
6 1 1 -0.0273257 -0.0408019 0.0684913 0 0 0 1.5254e-05 2.02062e-05 4.51587e-05 0.000162862 -0.000230977 0.000216316 0.00247093 0.00223606 -0.0018253 0.0111152 
190 1 1 -0.00862794 -0.0442093 0.0646034 0 0 0 -3.01336e-06 7.32659e-06 1.70054e-05 5.40112e-05 -3.76511e-05 2.87524e-06 0.0022818 0.00114249 -0.000181984 0.00694698 
189 1 1 0.0268465 -0.0442003 0.0673438 0 0 0 -3.17174e-06 -9.20197e-06 -1.57951e-05 4.92255e-05 -4.44279e-05 -4.84008e-05 -0.00125967 0.000573145 0.00068961 0.00694698 
186 1 1 0.0437407 -0.0441967 0.0738313 0 0 0 6.6812e-06 -1.23484e-05 -1.45052e-05 1.16713e-05 -1.84857e-05 -3.10317e-05 -0.000758909 0.000684869 -0.000559944 0.00694698 
313 1 1 -0.0118608 -0.0316738 0.0682092 0 0 0 7.6986e-06 1.9102e-05 4.14423e-05 9.6312e-05 -0.00015948 5.68845e-05 0.000589968 0.00091565 0.000608562 0.00694698 
227 1 1 0.00766378 -0.025394 0.0722238 0 0 0 2.53621e-05 3.3041e-06 -1.85581e-05 0.000139331 -0.000182772 -6.25359e-05 -0.00179841 0.0025708 0.000428442 0.00694698 
91 1 1 0.0235312 -0.0277778 0.0665882 0 0 0 9.70339e-06 -2.08058e-05 -3.8001e-05 0.00053318 -0.000385608 -0.000367999 -0.00195049 0.00119713 -0.00166455 0.0111152 
247 1 1 0.0400879 -0.0264408 0.0680861 0 0 0 2.29295e-05 -5.26519e-05 -5.80138e-05 9.57081e-05 -7.0804e-05 -7.67568e-05 -0.00170345 0.00246019 -0.00280715 0.00694698 
36 1 1 -0.0407301 -0.0173219 0.0691411 0 0 0 1.70666e-05 1.56501e-05 4.99005e-05 0.000245766 -0.000326373 0.000348293 0.000591731 -0.00256231 0.00078386 0.0111152 
137 1 1 -0.00226752 -0.0232153 0.0635621 0 0 0 4.89874e-06 1.67156e-05 1.03608e-05 0.000169812 -0.000218526 -5.44842e-06 0.000242719 0.00298061 -0.0028111 0.00694698 
276 1 1 0.0201771 -0.0125509 0.072259 0 0 0 7.57075e-05 -1.8627e-05 -9.99505e-05 0.000190102 -0.000108206 -0.000148908 4.58407e-05 0.00835757 -0.00484195 0.00694698 
215 1 1 0.0333366 -0.0151384 0.0705857 0 0 0 4.1266e-05 -5.29297e-05 -0.000120833 0.000125153 -6.95544e-05 -0.000125807 -0.00612867 -0.00206805 -0.00484509 0.00694698 
217 1 1 0.0446141 -0.0151032 0.0644108 0 0 0 1.97449e-05 -3.55073e-05 -4.6927e-05 6.41498e-05 -5.18252e-05 -6.46366e-05 0.00440058 -0.00519125 0.00564922 0.00694698 
182 1 1 -0.029126 -0.00430663 0.0735734 0 0 0 5.5352e-05 2.73908e-05 7.59577e-05 7.14437e-05 -0.00021126 0.000125034 -0.00188786 -0.000929448 0.00505795 0.00694698 
10 1 1 0.00493189 -0.00796363 0.0666215 0 0 0 5.01305e-05 1.80198e-05 -3.31125e-05 0.000905738 -0.000774296 -0.000194939 -0.000794211 0.00292084 -0.00126724 0.0111152 
148 1 1 0.0445355 -0.00238306 0.0634358 0 0 0 3.23067e-05 -1.75315e-05 -7.93348e-05 7.29693e-05 -4.22405e-05 -8.96722e-05 -0.00738604 -0.0101761 -0.00260429 0.00694698 
32 1 1 -0.0399491 0.00415227 0.063593 0 0 0 3.10238e-05 9.04892e-06 4.45059e-05 0.000315221 -0.000365626 0.00048267 0.000893611 0.000315223 -0.000876206 0.0111152 
197 1 1 -0.0192982 0.00213557 0.0660099 0 0 0 7.46766e-05 6.95202e-05 6.95055e-05 0.000206661 -0.000186328 0.000138596 -4.23716e-05 0.00576096 -0.00380635 0.00694698 
115 1 1 -0.0037433 0.010581 0.06873 0 0 0 0.000109098 3.70811e-05 5.39393e-06 0.000637693 -0.000776653 0.000346913 0.000711178 0.00677732 -0.00351137 0.0111152 
87 1 1 0.0291356 0.000600454 0.0669645 0 0 0 8.52025e-05 -2.56328e-05 -0.000158039 0.000660065 -0.000337752 -0.000575063 0.00181123 0.00344174 -0.000377637 0.0111152 
338 1 1 0.0431286 0.00836672 0.0719521 0 0 0 7.03356e-05 7.00115e-06 -0.000119851 8.35759e-05 -5.34789e-05 -4.856e-05 -0.000748186 -0.00149149 0.00124501 0.00694698 