ITEM: TIMESTEP
63700
ITEM: NUMBER OF ATOMS
338
ITEM: BOX BOUNDS mm mm mm
-0.05 0.05
-0.05 0.05
0 0.15
ITEM: ATOMS id type type x y z ix iy iz vx vy vz fx fy fz omegax omegay omegaz radius 
131 1 1 -0.0257481 -0.0400546 0.00560327 0 0 0 5.85433e-06 1.09311e-05 2.12307e-05 -2.37128e-06 -1.01584e-05 -3.37455e-05 -0.00178241 9.72103e-05 -0.000202196 0.00694698 
319 1 1 -0.0146874 -0.0445409 0.00605301 0 0 0 2.35259e-06 4.73587e-06 1.24019e-05 -4.58622e-07 -3.73919e-06 -1.84056e-05 0.000263762 0.000797668 -0.000358003 0.00694698 
243 1 1 -0.00279117 -0.043873 0.00610439 0 0 0 1.76694e-06 3.5622e-08 6.22782e-06 5.10374e-07 2.17632e-06 -1.00537e-05 0.000653586 -0.000167294 -0.000180493 0.00694698 
260 1 1 0.0252546 -0.0438307 0.00594049 0 0 0 1.13451e-06 -2.23571e-07 -1.62254e-06 1.50887e-06 6.46122e-06 8.3603e-06 -3.67546e-05 0.00040267 -9.75114e-05 0.00694698 
78 1 1 0.0413085 -0.0407811 0.00927581 0 0 0 1.82467e-06 -1.12397e-06 -4.25953e-06 -7.95477e-06 2.3408e-05 5.577e-05 -0.000177703 -0.000158687 -2.75413e-05 0.0111152 
74 1 1 -0.040828 -0.0367696 0.0095971 0 0 0 1.01315e-05 9.49978e-06 1.35197e-05 -2.94361e-05 -3.12732e-05 -6.57899e-05 4.65383e-05 -3.38472e-05 -3.09058e-06 0.0111152 
296 1 1 -0.0274829 -0.0274567 0.0061219 0 0 0 9.24114e-06 9.98384e-06 2.25553e-05 -5.07273e-06 -3.52703e-06 -4.00713e-05 -0.000996482 -0.000733069 0.000367368 0.00694698 
173 1 1 -0.0155729 -0.0319598 0.00557451 0 0 0 5.67256e-06 5.91769e-06 2.55015e-05 4.40432e-07 2.81912e-06 -4.436e-05 0.0005463 0.000999528 -0.000729796 0.00694698 
275 1 1 -0.00359021 -0.0297747 0.00572448 0 0 0 4.74668e-06 1.64314e-06 1.6981e-05 6.30892e-07 9.90118e-06 -3.3362e-05 0.00107716 0.000481481 -0.000205007 0.00694698 
60 1 1 0.0105837 -0.0360376 0.00947774 0 0 0 4.10713e-06 6.04359e-07 9.93596e-06 -7.02199e-06 2.77797e-05 -6.25194e-05 0.000225052 0.000768122 -5.30225e-06 0.0111152 
102 1 1 -0.0405428 -0.0169477 0.00905849 0 0 0 9.46395e-06 9.95125e-06 1.12768e-05 -4.81281e-05 -3.61383e-05 -9.89691e-05 -0.00087464 0.000863248 0.00065684 0.0111152 
328 1 1 -0.0254333 -0.01519 0.00543684 0 0 0 9.90857e-06 4.6927e-06 1.16032e-05 -1.01707e-05 2.83158e-06 -2.28453e-05 -0.00104131 -0.00173944 -0.00156029 0.00694698 
40 1 1 -0.0106765 -0.0158183 0.0106462 0 0 0 1.03896e-05 -1.01029e-06 4.40784e-05 -1.17622e-05 6.77564e-05 -0.000276056 0.000812598 0.000239589 0.000298051 0.0111152 
279 1 1 0.00440773 -0.0207351 0.0109054 0 0 0 7.58511e-06 9.00098e-07 2.99337e-05 -1.09645e-06 1.4697e-05 -4.06043e-05 0.00130031 0.00154641 4.30133e-05 0.00694698 
267 1 1 0.0155005 -0.0199622 0.00561742 0 0 0 4.75263e-07 3.01424e-06 9.47864e-06 3.17411e-06 1.08218e-05 -5.50684e-06 0.000161025 0.000782301 0.000155645 0.00694698 
144 1 1 0.0430495 -0.0248667 0.00596797 0 0 0 3.37787e-07 1.75296e-07 -5.22256e-06 2.0573e-06 7.71533e-06 1.84507e-05 0.000108005 -0.000491565 0.000553898 0.00694698 
202 1 1 0.0452017 -0.0129602 0.00612948 0 0 0 1.04376e-06 1.59717e-06 -3.1152e-06 -3.27252e-06 1.19069e-05 1.19278e-05 -7.85463e-05 -0.000304829 -0.000696525 0.00694698 
257 1 1 -0.0442073 -0.00104702 0.00624946 0 0 0 -2.4091e-06 -3.55612e-06 8.34652e-06 1.03096e-05 1.04066e-05 -1.47716e-05 0.00101846 -0.00174104 -0.000290974 0.00694698 
274 1 1 -0.0220225 -0.00377882 0.00775193 0 0 0 4.96035e-06 -7.89378e-06 5.87126e-05 7.2945e-06 3.17275e-05 -9.62036e-05 0.00671525 -0.00757017 0.00151339 0.00694698 
50 1 1 0.0305736 -0.00918802 0.0097354 0 0 0 4.29694e-06 1.63685e-06 -9.76894e-07 -4.13747e-05 4.59066e-05 6.24654e-05 0.000185174 0.000638037 0.000541597 0.0111152 
232 1 1 -0.0434387 0.0118756 0.00626166 0 0 0 3.30088e-06 -1.00473e-05 1.96241e-05 -1.61478e-07 2.20305e-05 -3.76668e-05 0.00106132 -0.00142962 -0.00131881 0.00694698 
268 1 1 -0.0326769 0.0036823 0.00609412 0 0 0 3.10524e-06 -1.3696e-05 4.89141e-05 1.324e-05 4.1043e-05 -8.86798e-05 0.00367075 -0.000449014 0.000284491 0.00694698 
171 1 1 -0.021197 0.00798666 0.00823468 0 0 0 8.28412e-06 -1.39239e-05 7.34924e-05 1.39676e-05 5.06946e-05 -9.10878e-05 -0.0037893 -0.000858979 -0.001594 0.00694698 
164 1 1 0.0206 0.00173767 0.00544624 0 0 0 1.96934e-06 1.4917e-06 1.11915e-05 -7.72572e-06 1.14219e-05 5.48636e-06 0.000204773 0.00139327 -0.0013167 0.00694698 
297 1 1 -0.0253906 0.019586 0.00549866 0 0 0 5.60399e-06 -1.57243e-05 4.2777e-05 2.36177e-05 4.76294e-05 -4.10554e-05 0.00103395 0.00122147 0.00219173 0.00694698 
222 1 1 -0.0108508 0.0145911 0.00545569 0 0 0 3.74982e-06 -1.05561e-05 3.6637e-05 1.56165e-05 2.93762e-05 -1.90708e-05 -0.00133478 0.00210207 0.00181726 0.00694698 
290 1 1 -0.000799311 0.0214674 0.00523783 0 0 0 -2.50422e-06 -7.00073e-06 1.66182e-05 7.0125e-06 1.02892e-05 1.26604e-05 0.000183969 -0.00030101 -0.000717836 0.00694698 
98 1 1 0.0122233 0.0135227 0.00979349 0 0 0 4.41014e-06 5.37854e-06 2.04159e-05 -2.02815e-05 4.62535e-05 0.000169237 -0.00149383 0.00143332 0.00122836 0.0111152 
316 1 1 0.0321802 0.0195781 0.00502882 0 0 0 -2.28764e-06 6.04744e-06 1.10148e-06 -3.46133e-06 -7.73079e-06 2.17933e-05 -0.00114742 -0.000357503 -0.000179857 0.00694698 
162 1 1 0.0446349 0.0202023 0.00544623 0 0 0 -1.49435e-06 3.99939e-06 -8.58427e-07 -5.27245e-07 5.21267e-07 2.84212e-05 -7.68258e-05 -0.000112437 -0.000415199 0.00694698 
294 1 1 -0.0439424 0.0252727 0.00613941 0 0 0 1.04656e-05 -1.23919e-05 1.35338e-05 -2.1231e-05 2.02955e-05 -3.36848e-05 0.000712631 0.000846676 -0.000408724 0.00694698 
175 1 1 -0.0327496 0.0313742 0.00614206 0 0 0 8.61643e-06 -1.53085e-05 1.95079e-05 5.56682e-07 4.43615e-07 -5.47705e-05 0.00258632 8.78486e-05 0.000648721 0.00694698 
255 1 1 -0.0148477 0.0261367 0.00587597 0 0 0 1.48439e-06 -8.2627e-06 2.69964e-05 1.72601e-05 2.23353e-05 -2.99539e-05 -0.000822003 0.00148024 -0.000471109 0.00694698 
324 1 1 -0.00330542 0.0326855 0.0056693 0 0 0 1.59636e-06 -2.90515e-06 7.29625e-06 -3.76442e-06 1.05228e-05 -2.92884e-06 -0.000649169 0.000275607 0.000215654 0.00694698 
161 1 1 0.00824506 0.0320298 0.00644879 0 0 0 1.25187e-06 5.95654e-06 8.45838e-06 -8.49942e-06 5.84059e-06 4.12778e-05 -0.00135588 0.000282734 0.00100715 0.00694698 
77 1 1 0.0226325 0.0295981 0.012343 0 0 0 3.58878e-06 9.69032e-06 6.84394e-07 -4.63353e-05 -9.9484e-05 0.000273659 0.000364747 0.000698984 -0.000422319 0.0111152 
155 1 1 0.0376085 0.0311764 0.0056448 0 0 0 1.33991e-06 4.6987e-06 -1.0015e-06 -6.13389e-06 -1.36631e-05 4.3217e-05 -8.1168e-05 -0.000137652 -0.000176257 0.00694698 
321 1 1 -0.04402 0.0437755 0.00629381 0 0 0 4.90042e-06 -2.68359e-06 5.5871e-06 -7.9851e-06 -1.48778e-06 -1.06945e-05 -0.000366025 0.000388685 0.000725669 0.00694698 
207 1 1 -0.0314325 0.0439672 0.00637411 0 0 0 1.33168e-06 -3.75474e-06 1.10542e-05 5.74532e-06 -1.79498e-06 -2.14844e-05 -0.00158081 -0.000555667 -0.000383608 0.00694698 
38 1 1 -0.0153313 0.0415941 0.0097906 0 0 0 2.1786e-06 -5.10705e-06 1.01449e-05 -1.09535e-05 4.95313e-05 -0.000116342 -0.000404637 0.000768484 0.00053553 0.0111152 
149 1 1 0.0120644 0.043872 0.00543326 0 0 0 -2.56001e-07 1.57681e-06 -5.7405e-07 3.18617e-06 -7.02326e-06 1.04751e-05 -3.63329e-05 0.00013627 -0.000472452 0.00694698 
237 1 1 0.0011871 0.0437539 0.0121483 0 0 0 1.62364e-06 1.78233e-06 6.27932e-07 -5.1742e-06 9.21988e-07 2.38076e-06 -0.000129394 0.000246829 0.000291467 0.00694698 
249 1 1 0.0277053 0.0441438 0.0061163 0 0 0 1.83086e-06 3.95075e-06 1.46237e-06 1.37783e-06 -1.86091e-05 3.68234e-05 -0.000291404 0.000435829 9.32511e-05 0.00694698 
289 1 1 0.0443721 0.0422256 0.00592202 0 0 0 2.41348e-06 3.29306e-06 2.7162e-07 -1.63593e-06 -2.66238e-05 4.38954e-05 -0.000433543 0.000262961 -0.000443355 0.00694698 
331 1 1 -0.0432693 -0.0455642 0.0218634 0 0 0 7.34813e-06 6.0884e-06 6.93362e-06 -4.03581e-06 -3.07791e-06 -8.39214e-06 0.000783981 -0.000281465 -0.000518964 0.00694698 
299 1 1 -0.0246085 -0.0451872 0.0168094 0 0 0 7.94011e-06 1.41156e-05 3.33239e-05 -1.16763e-05 -4.48666e-06 -5.8139e-05 0.00431331 0.00104638 -0.000916397 0.00694698 
225 1 1 -0.0115498 -0.0442709 0.0185952 0 0 0 7.6366e-06 1.01873e-05 3.03154e-05 -1.31638e-05 -4.58595e-06 -4.35988e-05 0.00164488 0.000373038 -0.000262091 0.00694698 
242 1 1 0.00106186 -0.0446807 0.0196824 0 0 0 9.06271e-06 -2.16161e-07 1.70252e-05 -1.07736e-05 7.28823e-06 -2.16384e-05 0.00275568 0.00195198 -0.00148057 0.00694698 
130 1 1 0.0208357 -0.0442058 0.0182027 0 0 0 5.6116e-06 -6.35907e-07 -5.89203e-07 -1.26025e-05 5.18491e-06 9.12108e-06 -9.78352e-06 0.000479142 -0.000631529 0.00694698 
167 1 1 0.0319451 -0.0442251 0.0228862 0 0 0 3.43264e-06 -1.31749e-06 -5.12861e-06 -7.99471e-06 8.94133e-06 3.66782e-05 -0.000349546 8.87849e-05 8.14158e-05 0.00694698 
136 1 1 0.0442903 -0.0447089 0.0241887 0 0 0 3.34126e-06 -1.49108e-06 -4.11164e-06 -1.1152e-05 8.29454e-06 2.00144e-05 -0.000218376 0.000194505 -0.000388268 0.00694698 
179 1 1 -0.0345746 -0.0262027 0.0213893 0 0 0 2.30439e-05 2.49848e-05 4.12534e-05 -9.21222e-06 1.57379e-05 -8.15981e-05 -0.000603408 -0.00357671 -2.9517e-06 0.00694698 
7 1 1 -0.0200353 -0.0304271 0.0211168 0 0 0 2.59076e-05 1.69993e-05 6.56816e-05 -9.48852e-05 3.58231e-05 -0.000441326 -0.000269369 0.00150196 -0.00109351 0.0111152 
104 1 1 -0.000112749 -0.0285696 0.0247238 0 0 0 3.05112e-05 2.205e-06 4.40262e-05 -0.000147071 7.85185e-05 -0.000270208 -5.68322e-05 0.00218554 -0.000602799 0.0111152 
67 1 1 0.0278423 -0.0280453 0.0126282 0 0 0 7.925e-06 -4.54599e-07 -3.19597e-06 -3.64167e-05 6.23319e-05 9.71304e-05 0.000192058 0.00115313 -0.000229109 0.0111152 
128 1 1 -0.0450313 -0.0217266 0.0238335 0 0 0 1.40019e-05 6.87316e-06 1.62072e-05 -2.53901e-05 4.68632e-06 -4.27486e-05 -0.00150421 0.000155341 0.00209421 0.00694698 
278 1 1 0.0331688 -0.0161931 0.0241361 0 0 0 2.33383e-05 -3.46243e-06 -7.44435e-06 -4.485e-05 3.159e-05 5.61999e-05 0.000435459 0.00199062 -0.000224064 0.00694698 
146 1 1 -0.044873 -0.00919981 0.0224711 0 0 0 1.74525e-05 -2.06703e-05 6.14223e-05 5.65049e-06 4.26284e-05 -9.06249e-05 0.0128593 -0.00778734 -0.00612723 0.00694698 
96 1 1 0.0119172 -0.00721235 0.0161321 0 0 0 1.7018e-05 -1.46642e-06 3.27988e-05 -4.68131e-05 0.000104478 -3.06448e-05 0.000780753 0.00257005 -0.000233665 0.0111152 
183 1 1 0.0447601 -0.00703516 0.0175419 0 0 0 3.99336e-06 4.83179e-06 -5.63051e-06 -3.0012e-05 4.42164e-06 4.08263e-05 -0.000785521 -0.000310646 -0.000901473 0.00694698 
25 1 1 -0.0377542 0.0048318 0.0223891 0 0 0 4.47808e-05 -1.44385e-05 0.000118379 4.60713e-05 0.000298178 -0.000794108 -0.00427977 0.00283688 0.00325295 0.0111152 
17 1 1 -0.00526008 0.00256305 0.0144081 0 0 0 1.4858e-05 -4.33206e-06 6.60728e-05 -3.69214e-05 0.000114878 -0.000136271 -0.000283602 0.000234071 -0.000208925 0.0111152 
94 1 1 0.0384742 0.00842692 0.0134968 0 0 0 5.46417e-06 6.20262e-06 -1.64211e-06 -0.000211518 4.05327e-05 0.000308504 0.00044573 0.00186915 -9.52833e-05 0.0111152 
300 1 1 -0.0447061 0.0189524 0.017051 0 0 0 1.04433e-05 -1.98481e-05 3.61774e-05 -2.00551e-06 4.08055e-05 -7.15634e-05 -0.00147256 -0.00272895 -0.00271816 0.00694698 
273 1 1 -0.0327467 0.0189504 0.0155433 0 0 0 1.65731e-05 -2.86979e-05 6.64419e-05 1.60476e-05 7.9696e-05 -0.000104001 -0.000985103 -0.00108983 0.000264035 0.00694698 
28 1 1 -0.0168118 0.0183632 0.0204916 0 0 0 2.65501e-05 -1.01269e-05 7.00833e-05 1.14929e-05 0.000170552 -0.000157104 -0.000417186 0.00156242 0.000516503 0.0111152 
286 1 1 -0.00173316 0.0186073 0.0168811 0 0 0 1.00445e-05 3.67397e-07 3.96524e-05 -3.47278e-06 2.33504e-05 3.17673e-05 -0.00345419 0.00178698 0.00162974 0.00694698 
305 1 1 -0.0436936 0.0348177 0.0156113 0 0 0 5.90295e-06 -1.2179e-05 2.16765e-05 -2.28449e-06 -5.21739e-06 -6.70392e-05 4.07021e-05 -0.00309597 -0.001405 0.00694698 
23 1 1 -0.0279413 0.0337348 0.0221096 0 0 0 1.81704e-05 -1.068e-05 4.35983e-05 -9.21431e-05 0.000178848 -0.000444378 -0.00251044 0.00105347 0.000961895 0.0111152 
320 1 1 0.00379662 0.0296091 0.018379 0 0 0 1.78579e-06 6.09013e-07 2.16329e-05 -4.83831e-05 1.51606e-05 6.39038e-05 0.00240166 -0.00041291 -0.000440905 0.00694698 
284 1 1 0.0446347 0.0273726 0.015737 0 0 0 1.34984e-06 5.02415e-06 5.73908e-07 4.8914e-06 -3.72402e-05 3.78755e-05 -6.99103e-05 0.000231168 -0.000873469 0.00694698 
239 1 1 0.0187751 0.0448273 0.0154886 0 0 0 -1.94494e-06 8.58188e-07 3.27295e-06 -1.35273e-05 -2.10309e-05 4.6538e-05 0.000233082 -0.00104191 0.000842047 0.00694698 
61 1 1 0.037083 0.0409697 0.0204872 0 0 0 4.2278e-06 6.761e-06 2.91605e-06 -0.000102609 -0.000172236 0.00031886 -5.19834e-05 -0.000189203 0.000396904 0.0111152 
224 1 1 -0.0437842 -0.0444768 0.0343523 0 0 0 6.34718e-06 -9.91597e-07 7.49197e-06 -4.43571e-06 1.1496e-05 -7.33463e-06 0.0011822 -9.48994e-05 -0.00116745 0.00694698 
256 1 1 -0.0327608 -0.0400947 0.0257176 0 0 0 7.85689e-06 5.14639e-06 4.50263e-05 -1.23647e-06 2.01475e-05 -7.88064e-05 0.0022859 -0.00480581 -0.000269864 0.00694698 
42 1 1 -0.0120031 -0.0408869 0.0355063 0 0 0 3.00687e-05 1.65874e-05 5.64749e-05 -0.000167813 5.00048e-05 -0.000308301 0.00201653 0.00161913 -0.0021602 0.0111152 
271 1 1 0.0313717 -0.040779 0.0343154 0 0 0 1.19517e-05 -5.14457e-06 -7.46123e-06 -1.25271e-05 3.54025e-05 7.939e-05 0.000568218 0.0013842 0.00047621 0.00694698 
125 1 1 0.0438559 -0.0440727 0.0371343 0 0 0 2.75957e-06 -1.23394e-07 -5.86474e-06 3.73374e-06 4.17091e-06 3.18678e-05 -0.000616393 -0.00108582 -0.000177957 0.00694698 
180 1 1 -0.0442349 -0.0338853 0.0265895 0 0 0 1.25322e-05 7.48949e-06 1.78076e-05 -9.17662e-06 9.80941e-07 -2.825e-05 0.000810355 -0.000629716 -0.000105555 0.00694698 
120 1 1 0.0409684 -0.0296039 0.0290175 0 0 0 1.20275e-05 -3.168e-06 -1.00907e-05 -0.000109612 8.58389e-05 0.000236904 -0.00010772 -0.000538857 -0.000238211 0.0111152 
178 1 1 -0.012639 -0.0206732 0.032126 0 0 0 5.22998e-05 2.15131e-06 0.000106455 -4.71827e-05 3.40271e-05 -0.000125961 0.00235747 0.00126883 0.000269056 0.00694698 
51 1 1 0.0185589 -0.022661 0.0301882 0 0 0 3.39415e-05 -4.95164e-06 1.55334e-05 -0.000191625 0.000118726 9.26931e-05 0.000476349 0.00098087 -0.00055075 0.0111152 
134 1 1 0.0440827 -0.0143844 0.0325108 0 0 0 1.151e-05 -1.21204e-06 -7.81519e-06 -3.50914e-05 1.12187e-05 7.11473e-05 -2.03169e-05 -0.000404587 -0.000250195 0.00694698 
19 1 1 -0.0263969 -0.012007 0.0273708 0 0 0 6.69504e-05 1.70548e-05 0.000141699 -0.00015998 0.000224597 -0.00073585 0.00607174 -0.00363334 -0.00206385 0.0111152 
310 1 1 -0.0104365 -0.00898785 0.0299637 0 0 0 6.02359e-05 -1.26213e-06 0.000154045 -6.32801e-05 4.44732e-05 -0.00012055 0.00432467 0.00799855 -0.000212392 0.00694698 
258 1 1 0.000949953 -0.012339 0.0275496 0 0 0 4.40128e-05 -2.0235e-06 6.29155e-05 -5.62616e-05 4.06858e-05 -0.000109592 0.00212228 0.00408239 -0.000117521 0.00694698 
18 1 1 0.012187 -0.00447301 0.0369604 0 0 0 5.61998e-05 -1.71322e-06 3.31695e-05 -0.00052364 -4.18462e-05 0.000250909 -0.000761181 0.00204149 -0.000447998 0.0111152 
184 1 1 0.0277392 -0.00806879 0.0328956 0 0 0 3.62438e-05 -5.46066e-06 3.24261e-06 -8.11632e-05 1.91973e-05 0.000127031 -0.00054116 0.00188667 0.0015679 0.00694698 
112 1 1 -0.0179402 0.00468416 0.0351754 0 0 0 7.3812e-05 1.11704e-05 0.00015408 -0.000135091 0.00024517 -0.000269532 -0.00491489 0.000861509 0.00105172 0.0111152 
160 1 1 -0.00258793 0.000661739 0.0310723 0 0 0 5.49226e-05 2.68894e-06 9.16137e-05 -6.61934e-05 2.49673e-05 -2.27752e-05 -0.00194288 0.00861341 0.000248823 0.00694698 
55 1 1 0.0406908 0.00155576 0.0321766 0 0 0 1.84312e-05 2.30009e-06 -2.66003e-06 -0.000317428 -2.10137e-05 0.000471286 0.000599164 0.000214271 -0.000361601 0.0111152 
2 1 1 -0.0316934 0.0196551 0.0354848 0 0 0 5.16418e-05 1.40101e-05 9.27685e-05 -3.12456e-05 0.000274566 -0.000517929 -0.00240879 0.000716192 0.000719864 0.0111152 
100 1 1 0.00652129 0.0141765 0.0298279 0 0 0 3.40049e-05 7.26495e-06 5.04361e-05 -0.00022092 0.000132328 0.000609313 0.00140085 0.00265884 0.000304012 0.0111152 
261 1 1 0.043399 0.0180072 0.0268077 0 0 0 1.84787e-05 3.74251e-06 1.93592e-06 -0.000108652 1.11118e-05 0.000108726 -0.000346635 -0.000173047 -0.000300944 0.00694698 
246 1 1 -0.0443139 0.0262016 0.0275325 0 0 0 2.46961e-05 -9.71878e-06 4.21638e-05 -2.51666e-05 2.87845e-05 -9.21947e-05 -0.00159643 -0.00303813 -0.00132952 0.00694698 
69 1 1 -0.00686327 0.0298271 0.0340232 0 0 0 3.8867e-05 -2.15049e-06 8.80961e-05 -0.00011699 0.000151954 0.000386794 -0.00049215 0.00138936 0.00112927 0.0111152 
108 1 1 0.0262495 0.0288961 0.0325397 0 0 0 1.94006e-05 2.2209e-06 2.61493e-06 -0.000268617 -0.000164841 0.00058959 0.000754678 -6.72264e-05 0.000705635 0.0111152 
9 1 1 -0.0407958 0.0418491 0.032558 0 0 0 8.85139e-06 1.30449e-06 2.05373e-05 -0.00010456 4.42059e-05 -0.000360307 -0.00226795 -0.00157069 0.000954564 0.0111152 
323 1 1 -0.00700761 0.0443556 0.0261316 0 0 0 3.71772e-06 -1.31145e-05 4.58419e-05 2.39422e-05 -5.29743e-07 2.06915e-05 -0.00683986 0.00331719 0.000636616 0.00694698 
16 1 1 0.0103834 0.0409506 0.0288255 0 0 0 1.01592e-05 -3.74228e-06 2.23989e-05 -0.00013536 -7.78187e-05 0.000358224 -0.00133695 0.00260385 0.000576113 0.0111152 
329 1 1 -0.0243337 -0.0448883 0.0452014 0 0 0 2.70445e-05 1.8291e-05 4.32768e-05 -4.75848e-05 8.58449e-06 -6.37029e-05 0.00487145 -0.001392 -0.00361242 0.00694698 
168 1 1 0.00170639 -0.0450129 0.040199 0 0 0 2.1584e-05 -3.07615e-06 2.06928e-05 -2.92785e-05 1.95597e-05 -5.53678e-05 0.00310592 0.0016267 -0.000845889 0.00694698 
3 1 1 0.0165061 -0.0408746 0.039313 0 0 0 2.11988e-05 -3.37277e-06 9.38799e-06 -0.000123621 7.73705e-05 -6.3324e-06 0.00037245 0.00105161 -0.000872745 0.0111152 
283 1 1 0.0310352 -0.0446315 0.0458371 0 0 0 1.87656e-05 -7.46741e-06 -3.81341e-06 -4.56443e-05 4.12785e-05 6.51643e-05 -0.000655094 0.000479407 -0.00150287 0.00694698 
211 1 1 -0.0439276 -0.0331952 0.0391794 0 0 0 2.01976e-05 -5.82462e-08 2.68509e-05 -2.72032e-05 5.16664e-05 -7.39777e-05 0.0011696 -0.00104969 0.000128065 0.00694698 
93 1 1 -0.0271457 -0.0292817 0.0419054 0 0 0 4.54556e-05 2.62888e-05 9.25811e-05 -0.00020976 0.000193452 -0.000739668 0.00159104 -0.00251503 0.00194451 0.0111152 
191 1 1 0.00287897 -0.0323182 0.0407477 0 0 0 3.9614e-05 2.19899e-06 4.89321e-05 -5.50253e-05 2.6821e-05 -5.46613e-05 0.00165231 0.00183232 -0.00108791 0.00694698 
105 1 1 0.0303968 -0.0280613 0.0465897 0 0 0 3.37204e-05 -7.24897e-06 -2.53601e-06 -0.000349574 0.000216733 0.000487153 0.000236786 0.00152091 -9.00826e-05 0.0111152 
66 1 1 -0.041682 -0.0169768 0.0389236 0 0 0 2.28069e-05 6.77463e-06 5.28247e-05 -0.000146137 0.000217267 -0.000640192 0.00128619 -0.00354859 -0.000929514 0.0111152 
43 1 1 -0.00882965 -0.0242901 0.0478754 0 0 0 7.20682e-05 1.39437e-05 0.000116803 -0.000391734 0.000215502 -0.000487082 0.0029057 0.00315886 -0.00191868 0.0111152 
259 1 1 0.0241568 -0.0131299 0.0440615 0 0 0 4.14378e-05 -4.68856e-06 1.222e-05 -0.000119103 2.34662e-05 0.000109093 -0.000222929 6.08766e-05 -0.000234423 0.00694698 
336 1 1 -0.0246139 -0.0117327 0.0453173 0 0 0 6.94147e-05 3.93637e-05 0.000230102 0.000119645 3.35566e-06 -6.73035e-05 -0.00828617 0.00179519 -0.0106654 0.00694698 
245 1 1 -0.000273847 -0.01185 0.0427906 0 0 0 6.34996e-05 2.85597e-05 0.000116137 -0.000121267 4.38885e-05 -3.80444e-05 0.00332828 0.0113735 -0.0050586 0.00694698 
303 1 1 0.0269176 -0.0013657 0.0493327 0 0 0 3.05488e-05 4.21803e-06 1.88338e-05 -0.000108877 1.98012e-05 0.000278534 0.00141205 0.00131954 -0.00129766 0.00694698 
5 1 1 0.0405047 -0.0106682 0.0488248 0 0 0 2.08454e-05 -1.7626e-06 -4.02865e-06 -0.000323776 0.000114619 0.000535039 9.27451e-05 8.10447e-05 0.000617504 0.0111152 
107 1 1 -0.0382431 0.00195701 0.0431279 0 0 0 6.28995e-05 1.83919e-05 0.000104412 -0.000244023 0.000255433 -0.000796619 0.00106733 -0.00186041 -0.000461433 0.0111152 
95 1 1 0.02393 0.0111489 0.0391396 0 0 0 3.23483e-05 5.79945e-06 1.54798e-05 -0.000385923 -7.76723e-05 0.00109095 -0.0013084 0.000176653 0.000565978 0.0111152 
318 1 1 0.044365 0.0047285 0.0485668 0 0 0 8.39667e-06 3.57988e-07 -2.97317e-06 -6.16545e-06 -6.34722e-06 8.83724e-05 -0.00012365 -0.000823751 0.000328759 0.00694698 
208 1 1 -0.0448666 0.0168566 0.0449706 0 0 0 2.75108e-05 1.31049e-05 6.36546e-05 -3.39018e-06 3.86577e-05 -0.000109323 -0.00215291 -0.00847854 0.00325911 0.00694698 
282 1 1 -0.0182462 0.0185329 0.0445892 0 0 0 6.39123e-05 3.70294e-05 0.000121327 -4.24842e-05 5.82544e-05 -1.41124e-05 0.00029017 -0.00231595 0.00156662 0.00694698 
4 1 1 -0.00366642 0.0146153 0.048221 0 0 0 7.64221e-05 4.12813e-05 0.000128513 -0.000307382 0.000291314 0.000735278 -0.00338166 0.00207876 -0.00149275 0.0111152 
58 1 1 0.0410775 0.0200219 0.0435609 0 0 0 1.12941e-05 2.99271e-06 1.23722e-05 -0.000208747 -0.000114273 0.000601978 0.000728452 -0.000792071 0.000160237 0.0111152 
199 1 1 -0.0449272 0.0285898 0.0409786 0 0 0 1.53769e-05 8.90564e-06 4.32623e-05 2.33027e-06 2.69828e-05 -9.74165e-05 -0.00165432 -0.00479177 0.00273684 0.00694698 
192 1 1 -0.0256316 0.0271739 0.0481262 0 0 0 6.04499e-05 2.14277e-05 9.42878e-05 -2.41192e-06 3.30411e-05 -3.76791e-05 0.000278147 -0.00584042 -0.0025978 0.00694698 
292 1 1 -0.0146967 0.032469 0.0485797 0 0 0 8.19929e-05 2.32279e-05 0.000114004 1.16285e-05 3.53829e-05 9.73985e-05 -0.00837812 0.00493358 0.00609702 0.00694698 
73 1 1 0.0108552 0.0280466 0.0457833 0 0 0 7.81145e-05 3.06415e-06 4.96097e-05 -0.000144326 3.22096e-05 0.000771566 -0.000488242 0.00654128 -0.000949475 0.0111152 
327 1 1 -0.0435039 0.0432739 0.0497711 0 0 0 1.17591e-05 1.55663e-06 8.18357e-06 3.69257e-05 -2.48286e-06 -7.09727e-05 0.00156659 0.000833261 0.000406619 0.00694698 
126 1 1 -0.0115806 0.044294 0.0464579 0 0 0 2.63585e-05 5.12001e-06 2.87419e-05 -2.39511e-05 2.81087e-05 5.52751e-05 -0.00597291 -0.00776043 0.00277413 0.00694698 
248 1 1 0.000186972 0.0432518 0.0425157 0 0 0 3.85417e-05 -6.40001e-06 5.6863e-05 -2.53678e-05 2.91081e-06 9.18878e-05 8.22611e-07 0.00334524 -9.32614e-05 0.00694698 
229 1 1 0.0125664 0.0445193 0.0454159 0 0 0 4.63435e-05 -4.52841e-07 1.6538e-05 9.71168e-06 -5.587e-06 7.95104e-05 -9.70439e-05 0.00271599 0.00416559 0.00694698 
114 1 1 0.0401335 0.0408 0.040734 0 0 0 1.14876e-05 -5.57458e-07 1.5499e-05 -0.000115841 -9.34154e-05 0.000343601 0.00039014 0.00190299 0.000487661 0.0111152 
314 1 1 -0.0174739 -0.0445492 0.0555942 0 0 0 2.21308e-05 1.07784e-05 4.62092e-05 -3.41895e-05 5.52702e-07 -8.74929e-05 0.00217246 9.43584e-05 -0.000959995 0.00694698 
337 1 1 -0.00609995 -0.0408572 0.0515865 0 0 0 3.64791e-05 8.47301e-06 6.76976e-05 -5.70356e-05 4.42357e-05 -6.46931e-05 -0.00190848 -0.00246004 -0.000295411 0.00694698 
56 1 1 0.00688373 -0.0394003 0.0619726 0 0 0 4.00433e-05 8.63901e-06 4.49772e-05 -0.000358273 0.000129683 0.000110504 0.00145255 0.00267682 -0.00113864 0.0111152 
265 1 1 0.0220177 -0.043724 0.0552628 0 0 0 2.0461e-05 4.5801e-08 5.24225e-06 -5.39793e-05 2.82199e-05 2.6015e-05 -0.000204982 -6.40032e-05 -0.00124516 0.00694698 
49 1 1 0.0406724 -0.0407584 0.0580765 0 0 0 1.76802e-05 -3.15904e-06 -3.75516e-06 -0.000128699 0.000107398 0.000258493 -0.00072566 -0.000764769 -0.000744763 0.0111152 
84 1 1 -0.0411457 -0.032993 0.0553187 0 0 0 1.75781e-05 8.6324e-06 3.87515e-05 -0.000186655 4.53181e-05 -0.000538063 -0.00107242 -0.00147411 0.000899835 0.0111152 
307 1 1 -0.0195837 -0.0324346 0.0571156 0 0 0 6.51955e-05 2.12795e-05 0.000104909 -0.000109538 1.33724e-05 -0.000192818 0.00355801 0.00145272 -0.00492917 0.00694698 
326 1 1 0.0447956 -0.0254458 0.0534947 0 0 0 2.02724e-05 -3.40001e-06 -7.49958e-06 -4.83306e-05 2.66202e-05 9.38035e-05 0.000364004 -0.0018824 0.000872995 0.00694698 
81 1 1 -0.0216684 -0.0170401 0.062432 0 0 0 6.05239e-05 2.44541e-05 0.000115734 -0.000674426 5.19365e-05 -0.000867518 -0.000682147 -0.00656231 0.00146473 0.0111152 
52 1 1 0.0112853 -0.022141 0.0507309 0 0 0 5.69408e-05 -3.77712e-06 4.56401e-05 -0.000507151 0.000198045 0.000125882 -0.000104619 0.00188809 -0.000122304 0.0111152 
332 1 1 0.026756 -0.0152037 0.0567083 0 0 0 4.79142e-05 -3.96861e-06 1.12145e-05 -0.000152416 6.71904e-05 0.000132898 0.000274901 0.00271601 -0.000658419 0.00694698 
220 1 1 -0.043805 -0.00977097 0.0542181 0 0 0 1.9046e-05 4.51647e-06 4.90366e-05 -4.99381e-05 3.54617e-05 -0.000145364 0.00129642 -0.00139148 -0.00195726 0.00694698 
133 1 1 -0.027208 -0.00283243 0.0559954 0 0 0 6.68272e-05 2.60785e-05 0.000117241 -0.00014953 2.838e-05 -0.000187939 0.00302355 -0.00287893 0.00266242 0.00694698 
24 1 1 -0.0102673 -0.00372086 0.0528006 0 0 0 8.37827e-05 4.21103e-05 0.000167201 -0.000547956 0.000285594 -7.4688e-05 0.00037103 -0.00241778 0.00131354 0.0111152 
240 1 1 0.0172585 -0.0074923 0.0553605 0 0 0 3.71633e-05 8.42206e-06 4.47659e-05 -0.000158904 4.49842e-05 0.000192489 -0.00018375 0.00328521 0.0013922 0.00694698 
236 1 1 -0.0236943 0.00828092 0.0507773 0 0 0 6.24457e-05 4.47954e-05 0.000135747 -6.87791e-05 2.31444e-05 -9.35979e-05 -0.00225477 -0.00202034 0.00143615 0.00694698 
15 1 1 0.0136566 0.00817869 0.0563006 0 0 0 6.01475e-05 2.42092e-05 8.29359e-05 -0.000378861 0.000148726 0.00137457 0.00197759 0.00474938 -0.00350137 0.0111152 
291 1 1 0.0437832 0.0122418 0.0588944 0 0 0 5.2621e-06 -2.08238e-05 9.29804e-06 -6.68282e-06 -6.86587e-05 0.000131904 0.00548706 0.00135745 0.00213678 0.00694698 
335 1 1 -0.0343158 0.0161596 0.0526643 0 0 0 4.61261e-05 3.30957e-05 9.90107e-05 -4.50974e-05 2.91538e-05 -0.000134004 -0.000927142 9.72119e-05 0.00138763 0.00694698 
266 1 1 0.0217589 0.0233197 0.0586729 0 0 0 5.82248e-05 7.19198e-06 8.14513e-05 -5.26478e-05 -4.34146e-05 0.000261722 -0.00568688 -0.0123722 0.00279427 0.00694698 
298 1 1 0.0302846 0.0135353 0.0553186 0 0 0 5.12407e-05 -7.68516e-06 3.85689e-05 -3.80099e-05 -4.59677e-05 0.000333842 0.00440574 0.00650794 -0.00332824 0.00694698 
262 1 1 -0.0377382 0.0287332 0.0508387 0 0 0 3.42087e-05 2.45183e-05 6.39798e-05 -1.01449e-06 5.25872e-05 -0.000129883 -0.00198956 0.00328772 -0.000990238 0.00694698 
99 1 1 -0.00360811 0.0303681 0.0615071 0 0 0 0.000117537 4.70398e-05 0.000162607 -0.000350556 0.000168284 0.00103517 0.00327462 -0.0056699 -0.00360846 0.0111152 
122 1 1 -0.0274283 0.0409191 0.0558336 0 0 0 2.39506e-05 1.08098e-05 5.32138e-05 -6.27586e-05 0.000102164 -4.26094e-05 -0.0021005 -0.00465639 0.00126568 0.0111152 
158 1 1 0.00020696 0.0448778 0.0561863 0 0 0 8.85178e-05 2.36455e-05 9.79378e-05 -1.33592e-06 4.99342e-06 0.000160085 -0.0160258 0.00589317 0.0144104 0.00694698 
47 1 1 0.0244974 0.0400922 0.0559318 0 0 0 2.72878e-05 -1.5265e-05 5.17334e-05 -5.25703e-05 -0.000123878 0.000532688 0.000907946 -0.00595156 0.000944782 0.0111152 
203 1 1 0.0420083 0.0441913 0.0569424 0 0 0 -2.36018e-06 -1.11735e-05 3.41365e-05 -3.07593e-05 -3.65165e-05 8.01046e-05 -0.00253502 -0.00288661 -0.00130032 0.00694698 
6 1 1 -0.0273257 -0.0408019 0.0684915 0 0 0 1.70118e-05 9.83826e-06 4.59686e-05 -0.000339483 -1.50282e-05 -0.000649774 0.00307569 -0.00231636 -0.00200632 0.0111152 
190 1 1 -0.00862789 -0.0442093 0.0646035 0 0 0 2.69732e-05 -1.01798e-05 5.63604e-05 -7.25633e-05 2.21552e-05 -4.85144e-05 0.00797163 0.000470203 -0.000140549 0.00694698 
189 1 1 0.0268465 -0.0442003 0.0673437 0 0 0 3.17957e-05 -6.65908e-06 1.93838e-06 -4.79456e-05 2.1051e-05 4.8434e-05 0.00127518 0.0033485 -0.00293648 0.00694698 
186 1 1 0.0437407 -0.0441968 0.0738313 0 0 0 2.71325e-06 6.25261e-06 1.07197e-05 -9.63762e-06 -1.87875e-05 -3.2275e-06 0.00143017 0.000635662 -0.000211822 0.00694698 
313 1 1 -0.0118607 -0.0316738 0.0682093 0 0 0 9.95276e-05 -2.15821e-05 0.000137582 -0.000196389 8.55302e-05 -0.000217306 0.00183213 -0.00162667 -0.00955983 0.00694698 
227 1 1 0.00766396 -0.025394 0.0722237 0 0 0 0.000114468 1.68527e-05 0.000135309 -0.000237379 3.2389e-05 -1.29784e-05 0.00676995 0.0100138 -0.00728409 0.00694698 
91 1 1 0.0235313 -0.0277778 0.066588 0 0 0 6.33964e-05 -1.07881e-05 1.726e-05 -0.000538103 0.000210544 0.0006062 0.000599417 0.00197817 -0.000194113 0.0111152 
247 1 1 0.040088 -0.0264408 0.0680859 0 0 0 3.79419e-05 5.55874e-06 1.37734e-05 -0.000119853 5.79943e-05 0.000211495 0.000394499 -0.00312672 0.000807747 0.00694698 
36 1 1 -0.0407301 -0.0173219 0.0691412 0 0 0 1.65902e-05 9.86151e-06 4.12205e-05 -0.000321848 3.17361e-05 -0.0005965 -0.000430732 -0.00188115 0.000468093 0.0111152 
137 1 1 -0.00226737 -0.0232153 0.0635622 0 0 0 0.000112387 6.10145e-06 0.000152371 -0.000208309 9.86394e-05 -0.000116534 -0.00113122 8.00923e-05 0.0129215 0.00694698 
276 1 1 0.0201773 -0.0125509 0.0722587 0 0 0 7.15348e-05 -3.67339e-06 3.97998e-05 -0.000259252 -2.62609e-05 0.000346413 -0.00363241 0.00661892 0.000155106 0.00694698 
215 1 1 0.0333367 -0.0151385 0.0705854 0 0 0 3.63462e-05 -5.21498e-06 1.72712e-05 -0.000157606 1.48397e-05 0.000405955 0.00199728 -0.00220549 0.00239425 0.00694698 
217 1 1 0.0446141 -0.0151032 0.0644107 0 0 0 2.22979e-05 4.5576e-06 4.88448e-06 -6.1211e-05 4.1418e-05 0.000171379 -0.00227724 0.00185859 -2.12117e-05 0.00694698 
182 1 1 -0.0291258 -0.00430653 0.0735738 0 0 0 2.85883e-05 6.00972e-05 8.80741e-05 -6.67958e-05 3.82185e-05 -0.00020129 0.00277361 -0.00175666 0.0106187 0.00694698 
10 1 1 0.00493205 -0.00796364 0.0666214 0 0 0 6.55465e-05 3.55303e-05 0.000122259 -0.000852505 0.000110503 0.000637931 0.000765022 0.00459572 -0.00281757 0.0111152 
148 1 1 0.0445356 -0.00238305 0.0634357 0 0 0 1.60143e-05 -4.70701e-06 2.81787e-05 -7.56186e-05 -2.182e-05 0.000266282 0.00608998 0.00356447 0.000600815 0.00694698 
32 1 1 -0.039949 0.00415221 0.0635932 0 0 0 2.44787e-05 1.51259e-05 6.7605e-05 -0.000311489 0.000150204 -0.000607719 -0.000442884 -0.00383506 -0.000173106 0.0111152 
197 1 1 -0.019298 0.00213557 0.0660102 0 0 0 7.06931e-05 7.61958e-05 0.000127246 -0.000179536 2.69712e-05 -3.6093e-05 -0.0058372 0.00031563 -0.0023619 0.00694698 
115 1 1 -0.00374315 0.010581 0.06873 0 0 0 6.98765e-05 7.91789e-05 0.000134288 -0.000584489 8.24651e-05 0.000913003 -0.0020523 -0.00137957 -0.00200636 0.0111152 
87 1 1 0.0291358 0.00060045 0.0669641 0 0 0 2.77361e-05 -1.23049e-05 4.57639e-05 -0.000658215 -0.000178087 0.00214251 0.00147144 -0.00255026 0.00133129 0.0111152 
338 1 1 0.0431287 0.00836679 0.0719519 0 0 0 5.43176e-06 2.39765e-05 2.69489e-05 -0.000124973 -9.35731e-05 0.000361988 -0.0167697 -0.0019436 -0.00336146 0.00694698 