ITEM: TIMESTEP
31150
ITEM: NUMBER OF ATOMS
338
ITEM: BOX BOUNDS mm mm mm
-0.05 0.05
-0.05 0.05
0 0.15
ITEM: ATOMS id type type x y z ix iy iz vx vy vz fx fy fz omegax omegay omegaz radius 
319 1 1 -0.014712 -0.0441154 0.00603636 0 0 0 0.00671912 -0.00315866 0.00130282 0.0131518 -0.0075048 -0.00114634 -0.116123 0.0864529 -2.09263 0.00613632 
243 1 1 -0.00286597 -0.0433586 0.00599003 0 0 0 0.00447598 -0.0171859 -0.00321245 -0.000710126 0.0123814 0.0052676 2.66067 0.910211 0.169663 0.00613632 
260 1 1 0.0256561 -0.0437291 0.0060671 0 0 0 -0.000673943 -0.00514101 0.000174687 -0.00330793 -0.000224767 -0.00228213 0.543355 -0.0979426 1.78857 0.00613632 
131 1 1 -0.0257709 -0.0396017 0.00582832 0 0 0 0.00876211 0.00615929 0.00530374 0.000734842 0.00329859 0.00273255 -1.37284 1.14227 0.602839 0.00613632 
173 1 1 -0.0152672 -0.032031 0.00586359 0 0 0 -0.0102685 -0.00449497 0.00120389 0.00565968 -0.00467405 0.00540173 1.00398 -1.02435 5.80657 0.00613632 
78 1 1 0.0408692 -0.0406202 0.0092947 0 0 0 0.000643347 0.00264853 0.00128376 -0.00529432 0.00289971 0.0223647 -0.201477 0.182971 -0.208248 0.00981811 
296 1 1 -0.0277195 -0.0276518 0.0061008 0 0 0 0.00475466 0.0070996 0.000849236 -0.000662235 0.00112378 0.00700792 -0.167368 0.713416 -0.00417957 0.00613632 
275 1 1 -0.00357961 -0.0297228 0.00591326 0 0 0 -0.00584922 0.00655097 0.00260928 -0.0118872 0.0202104 -0.00587693 -1.18943 0.114766 -4.31152 0.00613632 
144 1 1 0.042183 -0.0251596 0.00608483 0 0 0 0.00705926 -0.00250571 0.00273956 0.00477915 -0.000743689 -0.000787125 0.618276 1.08901 -1.2193 0.00613632 
102 1 1 -0.0404643 -0.0174519 0.00903035 0 0 0 0.00112225 0.00946755 -0.000538367 -0.0165727 0.00247621 0.0234054 -0.658076 0.0149742 -0.0733608 0.00981811 
328 1 1 -0.0254508 -0.0158359 0.00584882 0 0 0 0.00489438 0.007552 -0.00625141 -0.00210194 0.0158377 -0.0104486 -1.02744 1.15685 -0.0217633 0.00613632 
267 1 1 0.0151015 -0.020458 0.00602591 0 0 0 -0.00575448 0.0134778 -0.000977998 0.014177 0.0103537 -0.00109683 -2.16374 -1.49168 -0.630262 0.00613632 
274 1 1 -0.0215797 -0.00458389 0.00653186 0 0 0 0.0612005 -0.0127462 0.0420924 -0.126676 0.0534731 0.0233975 9.23303 -2.24372 -9.50253 0.00613632 
202 1 1 0.0444104 -0.0132239 0.00630609 0 0 0 0.0051209 -0.00807623 0.013359 0.000725572 7.32312e-05 -0.00137599 1.64609 2.46468 1.5861 0.00613632 
257 1 1 -0.0427938 -0.00195091 0.00611384 0 0 0 -0.067366 0.0200766 0.00919083 0.0193992 -0.00882489 -0.0106794 -3.2474 -10.814 13.0183 0.00613632 
164 1 1 0.0202854 0.00150543 0.00584582 0 0 0 0.00408298 -0.00537393 -0.00714568 0.011319 0.00271386 -0.000295612 0.742374 0.625628 5.50049 0.00613632 
268 1 1 -0.0321122 0.00408895 0.00614353 0 0 0 0.00345723 -0.0657306 0.00610598 -0.0101599 -0.00528105 -0.0124089 5.48694 3.97428 -31.1053 0.00613632 
171 1 1 -0.0202501 0.00726503 0.00647192 0 0 0 0.0250498 -0.00700616 0.0438332 -0.0317059 0.0456841 0.0519558 -8.98652 2.535 14.5914 0.00613632 
232 1 1 -0.0416507 0.0118816 0.00611344 0 0 0 -0.171203 -0.240786 0.00704051 0.000325872 0.00188943 0.00113176 39.2566 -27.917 -82.3383 0.00613632 
297 1 1 -0.0243991 0.0186267 0.0059886 0 0 0 -0.00318043 -0.00511839 0.00359104 0.0198063 0.0324695 -0.00768459 0.811371 0.0643725 -10.6662 0.00613632 
222 1 1 -0.0104826 0.0142382 0.00578333 0 0 0 0.00418418 0.00292687 -0.00477633 -0.0125289 0.0232919 -0.00991639 0.446812 0.699683 -3.33384 0.00613632 
290 1 1 -0.000545241 0.0208904 0.00565761 0 0 0 0.00116559 0.002897 -0.0021057 0.00465758 0.00364707 -0.00214 -0.937584 -0.82618 0.866558 0.00613632 
316 1 1 0.0324551 0.019322 0.00581084 0 0 0 0.00278642 -0.000411417 0.0031174 -0.00776592 0.0101381 -0.00233888 -0.360899 0.411793 0.74763 0.00613632 
162 1 1 0.044269 0.0195582 0.00594268 0 0 0 0.00466097 0.0042825 -0.0011547 -0.011206 0.00640129 -0.00200105 -0.141396 0.298869 -0.161249 0.00613632 
294 1 1 -0.0439316 0.0277144 0.00605699 0 0 0 0.00735363 -0.122765 0.0127781 -0.000992666 0.001642 0.00853563 20.8996 -1.31939 -20.0522 0.00613632 
255 1 1 -0.014602 0.0256089 0.00603561 0 0 0 -0.00040904 -0.00346779 0.00147889 -0.0263642 0.0375935 -0.00829785 -0.890069 0.354295 9.80578 0.00613632 
155 1 1 0.0375471 0.0302828 0.00592818 0 0 0 0.00018827 0.00498437 -0.00212776 -0.0112578 -0.00575903 0.00015724 -0.567673 -0.100575 0.205378 0.00613632 
175 1 1 -0.0324096 0.031651 0.00609702 0 0 0 0.0140495 -0.0582566 -0.0174291 -0.0232013 0.0469371 0.00186507 -8.6798 -11.9689 25.3162 0.00613632 
324 1 1 -0.00335745 0.0320685 0.00589288 0 0 0 -0.0251566 -0.00142592 0.00602318 -0.00756924 0.0126028 0.00162533 2.28662 1.48476 4.57758 0.00613632 
161 1 1 0.0085017 0.0322106 0.0061152 0 0 0 -0.0122112 0.000106618 0.00735338 -0.00560994 0.00919445 0.000558579 -5.36596 -1.47061 -4.94369 0.00613632 
321 1 1 -0.0440501 0.0439734 0.0059925 0 0 0 0.00130842 -0.00130682 0.00572774 0.0141119 -0.00815294 0.00431701 -0.43606 -0.942075 -0.289197 0.00613632 
207 1 1 -0.0318513 0.0438755 0.00611292 0 0 0 0.0230472 -0.0318115 0.0330183 0.0941032 0.0203072 -0.0536505 7.29292 -2.12399 -3.3044 0.00613632 
149 1 1 0.0110461 0.0439648 0.00588751 0 0 0 0.00943087 -0.00248031 -0.00903029 0.00554601 -0.00205457 -0.0156216 1.14834 1.96003 1.5271 0.00613632 
249 1 1 0.0279192 0.0439641 0.00605437 0 0 0 -0.00668894 -0.000707995 0.00341308 -0.00624553 -0.000882393 -0.00121067 -0.377103 -1.05393 -1.154 0.00613632 
289 1 1 0.0440138 0.0419271 0.00605735 0 0 0 0.00152174 0.00283183 -0.000647861 -0.00349185 0.0060554 -0.00597046 -0.385045 0.16565 -0.44508 0.00613632 
299 1 1 -0.0242945 -0.0444494 0.0165493 0 0 0 -0.00143067 -0.00370615 0.0148101 -0.000451984 0.0101688 -0.00320665 2.89605 -3.82275 -0.0605795 0.00613632 
225 1 1 -0.0119116 -0.0439372 0.0179499 0 0 0 0.00209103 -0.000488829 0.0147664 -0.00867732 0.00739227 0.00239022 2.67032 -1.43898 0.12632 0.00613632 
242 1 1 0.000237282 -0.044133 0.0183135 0 0 0 0.00668009 -0.00853074 0.00631892 -0.0147833 0.013024 0.000679442 0.407975 2.61273 -1.68675 0.00613632 
130 1 1 0.0209143 -0.0440269 0.0172996 0 0 0 0.00292331 -0.000521463 0.00493195 -0.00355369 0.00355868 0.00198205 -0.592311 -0.872959 0.0350222 0.00613632 
74 1 1 -0.0405134 -0.0362586 0.00954516 0 0 0 0.00261787 0.00327311 0.00462538 -0.00396034 0.00717489 -0.00222336 -0.168158 -0.213262 0.37217 0.00981811 
60 1 1 0.0101941 -0.0357414 0.00964491 0 0 0 -0.00405872 -0.00645439 0.00232595 -0.0656106 0.0627665 0.0275042 0.867235 -0.121448 1.62879 0.00981811 
67 1 1 0.0272361 -0.0280971 0.0124603 0 0 0 -0.0070363 0.00532648 0.0137314 -0.018108 -0.00894377 0.0295913 1.67091 -0.0669038 0.482239 0.00981811 
40 1 1 -0.0106996 -0.0165129 0.0107284 0 0 0 -0.00252037 0.0071794 0.0348353 0.00543492 0.0922727 -0.1133 3.87274 -5.45043 0.891917 0.00981811 
279 1 1 0.00415297 -0.0211899 0.0108229 0 0 0 0.00567422 0.0129359 0.0274151 0.00724623 0.0231771 -0.00475125 2.07489 6.94492 1.08076 0.00613632 
96 1 1 0.0114089 -0.00785136 0.0152357 0 0 0 0.00456249 0.0167129 0.0305191 0.00981744 0.0621495 -0.0693342 3.11467 3.30646 1.49556 0.00981811 
50 1 1 0.0299274 -0.00958867 0.00968572 0 0 0 0.00851496 0.00428904 0.0108044 0.0350983 -0.00974993 -0.00485502 -2.11933 -1.67239 -2.30105 0.00981811 
183 1 1 0.0438906 -0.00719399 0.0169707 0 0 0 0.0128091 0.000909736 0.00875107 -0.0160751 0.0161594 -0.00802079 -3.14961 2.17775 -0.0220827 0.00613632 
17 1 1 -0.0053632 0.00177064 0.0136783 0 0 0 -0.0165195 0.0162461 0.0384901 0.0293164 0.0737806 -0.159946 -5.777 -0.618725 -0.361755 0.00981811 
94 1 1 0.0381463 0.00727236 0.0135799 0 0 0 0.0237478 3.27256e-05 -0.00205685 0.016135 0.0476246 -0.0419196 0.67118 2.13836 0.636153 0.00981811 
300 1 1 -0.044054 0.0193076 0.0163497 0 0 0 -0.00645459 -0.0147841 -0.00896729 0.00475651 0.0131014 -0.016029 -35.0541 1.26067 -2.65988 0.00613632 
273 1 1 -0.0321026 0.0184295 0.015283 0 0 0 -0.00580096 0.00332683 0.00886564 0.0111992 0.00116139 -0.00626027 -1.17933 -0.739911 9.64761 0.00613632 
286 1 1 -0.00111435 0.0166788 0.0166107 0 0 0 -0.00518019 0.0289552 0.0104272 0.0139475 -0.0111892 -0.00866259 -3.16086 -0.350454 2.33491 0.00613632 
98 1 1 0.01257 0.0140313 0.00963137 0 0 0 -0.00861192 -0.0168334 0.00523882 0.0131834 0.0106039 -0.0184361 1.84327 -1.01204 -1.89308 0.00981811 
320 1 1 0.00564094 0.0267484 0.0164266 0 0 0 -0.0254551 0.0374364 0.0149494 0.00472864 0.00163509 -0.00162897 1.0819 -0.463487 1.95151 0.00613632 
77 1 1 0.0229519 0.0299525 0.0114853 0 0 0 -0.00197987 -0.00922548 0.0141827 -0.0431797 0.0179118 -0.0331333 -0.122065 1.63978 1.30865 0.00981811 
284 1 1 0.0442142 0.0274429 0.0153798 0 0 0 0.00228877 0.0010048 -0.000138718 -0.00631589 0.00555221 -0.0035149 0.522826 0.0987996 -0.654934 0.00613632 
305 1 1 -0.041452 0.0364816 0.0150398 0 0 0 -0.0417703 -0.00735165 0.0192562 -0.0153433 -0.030439 0.0219326 3.58151 -15.0684 8.13191 0.00613632 
38 1 1 -0.0152311 0.0408909 0.00949773 0 0 0 -0.0326746 -6.74317e-05 -0.00219509 -0.0493768 0.0111128 -0.00557846 0.263216 -3.49799 -3.37101 0.00981811 
237 1 1 0.0002842 0.0438571 0.0117855 0 0 0 -0.00798879 -0.00941282 -0.0208062 0.00620825 -0.00201092 -0.0163806 -2.60968 3.65227 2.69299 0.00613632 
239 1 1 0.0191466 0.0444038 0.0146183 0 0 0 -0.00928736 -0.00216079 0.00507794 -0.00270838 0.0020562 0.00458934 -0.728091 -6.61612 -1.67414 0.00613632 
331 1 1 -0.0426739 -0.0447434 0.021697 0 0 0 -0.00387731 0.000924117 0.00327878 -0.00219281 0.00663224 -0.00454227 -0.0114543 -1.92283 0.569499 0.00613632 
167 1 1 0.0319342 -0.0440776 0.0219307 0 0 0 0.0021449 -0.000414502 0.00791858 -0.00188083 -0.0041041 -0.00104561 1.366 0.419067 0.168224 0.00613632 
136 1 1 0.0438544 -0.0443547 0.023916 0 0 0 0.00600856 -7.41171e-05 0.00675388 0.00543906 0.000507194 0.00523062 0.838448 0.345981 -0.660186 0.00613632 
180 1 1 -0.043914 -0.0337066 0.0262247 0 0 0 0.00256212 0.0082506 0.00441106 -0.0102343 -0.00937102 -0.00472909 2.05718 -2.33851 -3.51173 0.00613632 
256 1 1 -0.0322526 -0.039245 0.0245447 0 0 0 -0.00331851 -0.00414804 0.0310742 -0.0135625 0.0143671 -0.0167113 4.62894 0.275339 -0.479802 0.00613632 
179 1 1 -0.0341911 -0.0263516 0.0200498 0 0 0 -0.0036742 0.0132569 0.0165045 -0.0111114 -0.00453021 -0.0175238 -3.90776 1.13485 -3.76232 0.00613632 
7 1 1 -0.0196881 -0.0304478 0.0207025 0 0 0 -0.00595131 0.00137641 0.00945997 -0.029116 0.0475604 -0.0516197 -3.08946 1.67677 0.738045 0.00981811 
104 1 1 -0.000773573 -0.0287278 0.0238434 0 0 0 0.0154799 0.011987 0.0277894 -0.0674244 0.103364 -0.0162373 -1.35475 -3.2562 -0.425354 0.00981811 
120 1 1 0.0406286 -0.0298648 0.0282906 0 0 0 -0.00303873 0.00529394 0.0166114 -0.0103306 -0.0109134 -0.038793 4.05842 2.01397 -0.256121 0.00981811 
128 1 1 -0.0444315 -0.0220398 0.0233113 0 0 0 0.000236192 0.0209356 0.00366608 -0.0110414 -0.014279 0.00146662 -2.10275 -0.477176 3.76966 0.00613632 
278 1 1 0.0328351 -0.0174573 0.0228577 0 0 0 -0.0290426 0.0153683 0.0380703 0.015218 -0.00432623 -0.00534636 0.63801 -6.48549 5.76813 0.00613632 
146 1 1 -0.0443782 -0.00909078 0.0211183 0 0 0 -0.00971664 0.00746755 0.00553904 -0.00101668 0.00483486 -0.00564585 1.6569 -0.889391 2.57846 0.00613632 
19 1 1 -0.0260589 -0.0129886 0.0259666 0 0 0 0.0347631 0.0185782 0.026802 -0.0249796 0.0425848 -0.0148828 5.00268 -0.762879 -5.85309 0.00981811 
310 1 1 -0.0110009 -0.00901184 0.0284221 0 0 0 0.0499004 -0.0345507 0.0977725 -0.0215274 0.0188946 -0.0173743 -15.2106 -10.6039 -12.6453 0.00613632 
258 1 1 0.00156514 -0.0132375 0.0265047 0 0 0 -0.0358592 0.0293346 0.00762509 0.00194698 0.0258709 -0.00964733 -8.57325 -15.4127 -1.3714 0.00613632 
160 1 1 -0.00191657 -0.001425 0.0289763 0 0 0 0.0122229 0.0173053 0.076603 0.0113253 -0.00314707 -0.049264 7.4826 8.7829 22.6482 0.00613632 
25 1 1 -0.0381685 0.00494846 0.0208785 0 0 0 0.00171635 -3.74087e-05 0.0220234 -0.0460215 0.0370274 -0.0262324 -1.24836 -3.54488 -3.93081 0.00981811 
100 1 1 0.00738241 0.0110124 0.0280332 0 0 0 -0.0193 0.0449719 0.0211826 0.00620784 -0.00358654 -0.0162158 -5.99803 2.22069 -9.71426 0.00981811 
28 1 1 -0.0159479 0.0175391 0.0199666 0 0 0 -0.0199687 0.0080199 -0.0143521 -0.00455223 -0.0295858 -0.0584244 -2.87818 -2.99265 1.99676 0.00981811 
261 1 1 0.0438831 0.0146783 0.0262488 0 0 0 0.00755183 0.00551844 0.00911768 0.0187251 -0.0110612 -0.0101798 1.05911 -3.61369 4.24458 0.00613632 
246 1 1 -0.0439617 0.0261998 0.0268004 0 0 0 0.0097912 -0.00790764 0.0156114 0.00383256 0.00214196 -0.00593726 8.28943 -2.26493 -1.98564 0.00613632 
23 1 1 -0.0275568 0.0323773 0.02117 0 0 0 -0.0243143 0.00645535 0.0153827 -0.0303487 -0.017871 -0.0302144 2.8056 8.73413 -0.859973 0.00981811 
61 1 1 0.0367358 0.0405104 0.0199936 0 0 0 0.00526974 0.00289641 0.00328646 0.00988167 -0.0279391 -0.056422 0.0683024 0.357255 0.370584 0.00981811 
224 1 1 -0.0439276 -0.0440142 0.0337292 0 0 0 -0.00457843 -0.00170917 0.00521493 -0.000326468 0.000179912 0.000830468 0.703744 0.939251 0.642217 0.00613632 
125 1 1 0.0434213 -0.0438541 0.0361455 0 0 0 0.0134377 0.00601615 0.0137114 0.00617481 -0.00329651 -0.000561012 -1.3138 1.25528 -2.27998 0.00613632 
42 1 1 -0.0118498 -0.0403608 0.0348653 0 0 0 0.00484315 0.00759641 0.0165501 -0.0290232 0.118924 0.0594733 1.77378 -0.650859 -0.272337 0.00981811 
271 1 1 0.0307604 -0.0403048 0.0332932 0 0 0 0.00674029 -0.0071472 0.00993796 -0.0183922 0.00209259 -0.0106434 -0.906693 0.362151 0.571266 0.00613632 
51 1 1 0.017445 -0.0244202 0.0287766 0 0 0 0.026654 0.0286168 0.0383512 -0.0182038 0.0339574 -0.0268937 -1.42652 2.06208 1.09012 0.00981811 
66 1 1 -0.0407537 -0.017389 0.0377625 0 0 0 0.000812996 0.00363454 0.00729138 0.0184643 0.0281007 -0.0325767 3.8693 -0.290744 -0.0609736 0.00981811 
178 1 1 -0.0124724 -0.020513 0.0303634 0 0 0 -0.0127643 -0.0368785 0.0633957 -0.0300147 0.0172456 -0.0237764 19.8597 -0.0334408 3.46698 0.00613632 
134 1 1 0.0440498 -0.0151282 0.0316839 0 0 0 0.00173708 0.00470488 0.0160632 -8.44422e-05 0.00115572 -0.00875084 -5.52006 2.25544 0.579674 0.00613632 
18 1 1 0.0133866 -0.00621165 0.0345203 0 0 0 -0.0441052 0.0287185 0.0489016 0.0712484 0.0633407 -0.0582173 2.21595 -0.332742 5.25851 0.00981811 
184 1 1 0.02828 -0.00957515 0.0309563 0 0 0 -0.0389677 0.0355842 0.0309454 0.00505033 -0.00839911 -0.0417 -1.54422 2.95425 -7.72932 0.00613632 
112 1 1 -0.0191824 0.00360601 0.03285 0 0 0 0.0724661 0.0108274 0.0333186 -0.0473149 0.0288677 0.0304084 -0.736234 9.52013 5.61146 0.00981811 
55 1 1 0.0405842 4.96972e-05 0.0314393 0 0 0 -0.0046126 0.00581942 0.0152202 -0.0413515 -0.0219632 -0.100203 2.70236 1.856 0.111828 0.00981811 
95 1 1 0.0245819 0.00978598 0.0358162 0 0 0 -0.0161264 0.000211485 0.0220295 -0.00192186 0.0189883 0.0063355 -3.05597 -1.84743 0.201505 0.00981811 
2 1 1 -0.0318157 0.0182283 0.0330696 0 0 0 0.0235187 -0.00729487 0.0289108 0.00848838 0.020885 -0.00141647 0.146205 1.14453 -1.07133 0.00981811 
69 1 1 -0.00379904 0.0299819 0.028648 0 0 0 -0.0215812 -0.0046507 0.0307688 0.0285394 -0.0622348 -0.0123236 6.10554 0.0155679 -2.83444 0.00981811 
108 1 1 0.0268897 0.028159 0.0311418 0 0 0 -0.00483749 -0.00458244 -0.00778517 0.0577689 -0.0184882 -0.0145328 -0.398204 -2.76028 0.239165 0.00981811 
9 1 1 -0.0406899 0.0409257 0.0315313 0 0 0 0.00314236 0.00578603 0.0410589 -0.00355093 -0.0248994 -0.00493216 -4.06013 -3.83981 0.949132 0.00981811 
16 1 1 0.0125967 0.0405621 0.028236 0 0 0 -0.00579913 -0.00538313 0.00862892 0.0255754 -0.0214687 0.010461 -0.562011 5.8034 -0.0647372 0.00981811 
323 1 1 -0.0108666 0.0440277 0.0297355 0 0 0 0.000376955 0.00517489 0.0400795 0.00688035 -0.00747834 -0.0348762 -6.51521 -3.41926 0.252942 0.00613632 
329 1 1 -0.0230699 -0.0443537 0.0446543 0 0 0 -0.00458554 -0.00369635 0.00805226 -0.00707147 0.0197765 0.00211985 1.04551 -1.44702 0.118386 0.00613632 
168 1 1 0.00193267 -0.0443439 0.0396924 0 0 0 0.00186003 -0.00283949 0.0143928 -0.00692158 0.0144645 0.0046443 2.72279 0.434057 0.427348 0.00613632 
283 1 1 0.03101 -0.0441722 0.0445835 0 0 0 0.00343878 0.00233827 0.0240979 -0.0221733 0.0146515 -0.00743657 -1.20186 -3.26815 3.00185 0.00613632 
211 1 1 -0.0439172 -0.0328285 0.0383426 0 0 0 -0.00555932 0.00290701 -0.00479718 0.00180192 0.00380483 0.00394626 -2.5886 0.250145 -0.329476 0.00613632 
191 1 1 0.00349702 -0.03227 0.0399551 0 0 0 -0.0108058 -0.00983009 0.0776595 0.0186911 0.0239643 -0.0699713 -9.20665 17.5157 4.55181 0.00613632 
3 1 1 0.0167351 -0.0405484 0.0395436 0 0 0 0.00501411 -0.00172469 0.00994776 -0.0794628 0.0049058 -0.00482062 1.07911 0.383111 -0.738923 0.00981811 
93 1 1 -0.0266187 -0.0296441 0.0412177 0 0 0 5.00875e-05 -0.00172493 0.000672962 0.0206826 0.0815211 0.103079 -0.784709 -1.75296 0.377419 0.00981811 
43 1 1 -0.00872653 -0.0242311 0.0451779 0 0 0 -0.0111382 -0.00259602 0.0744278 -0.00246569 0.199533 -0.321043 -0.501881 -6.24766 -0.449847 0.00981811 
105 1 1 0.0305377 -0.0284121 0.0452109 0 0 0 0.00400379 0.00597518 0.0243084 -0.0552783 -0.0019833 -0.056002 -2.12525 -3.06226 0.426866 0.00981811 
259 1 1 0.0250505 -0.0143111 0.0415171 0 0 0 -0.0209404 0.0157174 0.0337175 -0.0115178 -0.0195737 -0.0404499 6.33564 2.97075 3.04678 0.00613632 
336 1 1 -0.0215364 -0.011482 0.0413348 0 0 0 0.081523 -0.0341623 -0.0153022 0 0 -0.0237367 -10.5001 12.2062 10.184 0.00613632 
245 1 1 0.00119241 -0.0129763 0.0413792 0 0 0 -0.0149702 -0.00277629 0.0740398 0.0146694 0.0519709 -0.0666275 -14.2871 -1.6929 5.13908 0.00613632 
5 1 1 0.0402665 -0.0113562 0.0472024 0 0 0 0.00752489 -0.00264093 -0.00427927 -0.0681301 0.0067088 -0.0358453 -0.410036 -0.323644 -0.084975 0.00981811 
107 1 1 -0.0381284 0.00144205 0.0400214 0 0 0 0.0266393 2.45971e-05 0.0463941 0.0029686 0.0610104 -0.0237673 1.12893 7.78421 -1.5049 0.00981811 
303 1 1 0.027188 -0.00293834 0.0444269 0 0 0 0.00277712 0.0143637 0.0491723 -0.0156521 -0.00689518 -0.0175804 -1.32312 12.3718 -2.8493 0.00613632 
318 1 1 0.0439115 0.00401073 0.0464186 0 0 0 0.00283356 0.00620281 0.0205708 0.00917811 -0.00981277 -0.0363751 -0.090555 -0.378471 2.6186 0.00613632 
236 1 1 -0.0246061 0.0078469 0.0471987 0 0 0 -0.0351729 -0.0852085 0.0188068 -0.00216455 0.0438875 0.0362107 -4.58698 -16.829 10.9574 0.00613632 
4 1 1 -0.00384109 0.0125435 0.0437572 0 0 0 0.0516852 0.0738768 0.0773869 0.068988 -0.0139302 -0.0521454 2.8928 8.43442 9.95729 0.00981811 
208 1 1 -0.0443157 0.015785 0.0418691 0 0 0 0.0110446 0.0115453 0.0347478 0.00232557 0.0226104 -0.00623234 -8.62888 -5.33655 3.23587 0.00613632 
282 1 1 -0.0186054 0.0168778 0.0414437 0 0 0 -0.00057292 -0.0359372 0.101724 0.0168714 0.00704431 -0.0152282 14.4244 -14.5639 6.87114 0.00613632 
58 1 1 0.0406082 0.0185901 0.0411499 0 0 0 -0.00775671 0.00880983 0.0117494 0.0231892 -0.0539319 -0.0284572 -1.44211 1.10753 -0.803135 0.00981811 
199 1 1 -0.0440117 0.027642 0.0393163 0 0 0 -0.0046847 0.0032882 0.0236338 -0.0209455 0.00819768 -0.0337496 7.07362 -3.04633 1.30296 0.00613632 
262 1 1 -0.0336656 0.0274108 0.0464604 0 0 0 -0.00225716 0.0121069 0.0865835 -0.0281065 0.074616 -0.0216061 5.38454 22.57 14.668 0.00613632 
192 1 1 -0.0228592 0.0279201 0.0410143 0 0 0 0.0171 -0.0254016 0.0526718 -0.00506583 -0.00648026 -0.00211519 -9.95866 -16.8037 -8.90983 0.00613632 
73 1 1 0.0102714 0.0259593 0.0416096 0 0 0 0.0188054 0.137186 0.0714437 0.0373429 -0.120899 0.00843707 -22.2389 -6.03482 4.72947 0.00981811 
292 1 1 -0.0117241 0.0322462 0.0422035 0 0 0 0.0300535 -0.0324272 0.0507012 -0.0165032 0.0193301 -0.0585056 -2.9929 12.0049 4.61634 0.00613632 
114 1 1 0.0402557 0.0399269 0.0391933 0 0 0 -0.011712 -0.00781714 0.0216045 0.0108086 -0.0364063 -0.0569345 4.18125 1.99974 0.967579 0.00981811 
327 1 1 -0.0438712 0.0438722 0.046856 0 0 0 0.0119447 -0.0134671 0.0653608 -0.00224185 0.00490284 -0.0211551 10.3289 9.30884 1.2932 0.00613632 
126 1 1 -0.00969699 0.0440424 0.0439191 0 0 0 0.00646536 -0.00779331 0.0332678 -0.0238255 -0.00646842 0.00506488 -5.35435 -2.28924 0.189552 0.00613632 
248 1 1 0.000899011 0.0439369 0.0381878 0 0 0 0.0213542 -0.00436476 0.0483028 -0.0191233 -0.00808251 -0.0195589 -4.94994 -0.0770076 5.58505 0.00613632 
229 1 1 0.0117024 0.0440135 0.0438712 0 0 0 0.0467167 0.00064959 0.024466 -0.015174 -0.0944088 -0.0277879 -6.0356 2.11863 12.5215 0.00613632 
314 1 1 -0.0162283 -0.0441108 0.0546199 0 0 0 0.0112971 -0.0130016 0.00253729 -0.0202992 -0.0115587 -0.0128648 0.979525 5.96332 -0.495103 0.00613632 
265 1 1 0.023014 -0.0435573 0.0538539 0 0 0 -0.00110132 -0.000172655 0.0222702 0.000234081 0.000745445 0.00129765 -2.75949 -2.47244 0.859447 0.00613632 
84 1 1 -0.0405766 -0.0331731 0.0538037 0 0 0 -0.00504997 -0.0113114 -0.00692564 -0.0104912 0.0112139 0.0255049 2.55553 0.592399 -0.858631 0.00981811 
307 1 1 -0.0183727 -0.0323114 0.0546722 0 0 0 -0.0329488 -0.0351125 0.0483086 0.0558718 0.0273371 -0.0560997 4.53584 2.02753 7.35571 0.00613632 
337 1 1 -0.00611801 -0.0393241 0.0496516 0 0 0 0.0642535 -0.0609988 0.0129714 -0.00345532 0.0288166 0.0436115 2.26225 13.2902 -14.587 0.00613632 
49 1 1 0.0404691 -0.0404665 0.056486 0 0 0 0.00442303 0.00053049 0.0303998 -0.040931 0.00462179 0.000389478 2.9894 2.77241 -0.140846 0.00981811 
326 1 1 0.0442413 -0.0257284 0.0519993 0 0 0 0.0038194 0.00937344 0.0227206 -0.0182203 3.09831e-05 -0.000606464 -4.55886 3.76941 -2.14836 0.00613632 
81 1 1 -0.0230946 -0.017288 0.05656 0 0 0 -0.0301443 -0.0377635 0.0359057 0.00188723 -0.150484 -0.172077 -2.39438 -1.37704 -0.537027 0.00981811 
52 1 1 0.0124869 -0.0219394 0.0476194 0 0 0 0.00403106 -0.00211588 0.0572943 -0.0609744 0.017341 -0.0755724 11.622 2.64563 -1.64254 0.00981811 
332 1 1 0.0262437 -0.0154398 0.0534874 0 0 0 0.0165078 -0.0380637 0.0270966 -0.0388034 0.0174259 -0.0397755 4.69309 4.555 -10.0326 0.00613632 
220 1 1 -0.0438457 -0.00882458 0.0508491 0 0 0 0.016251 -0.0316947 0.0452353 -0.000183522 8.55501e-05 -0.022934 6.65924 1.61838 -2.55327 0.00613632 
24 1 1 -0.00899898 -0.0049861 0.0502177 0 0 0 -0.00944188 0.0684607 0.043625 0.0244007 -0.00669902 -0.0760621 2.44385 -1.7844 -18.3931 0.00981811 
240 1 1 0.0175246 -0.00738538 0.0505183 0 0 0 -0.0017284 0.00539376 0.0505734 -0.0332445 0.0232705 -0.0295632 -14.9461 11.5332 9.52972 0.00613632 
133 1 1 -0.028699 -0.00334111 0.0516637 0 0 0 0.0189945 -0.0304887 0.0285687 -0.00151462 -0.0333955 -0.00960963 5.99316 -11.5011 0.0236798 0.00613632 
15 1 1 0.0137012 0.00776929 0.0517119 0 0 0 0.00352375 0.0113439 0.0453447 0.0236189 0.0820578 0.0596725 5.65136 6.28453 -6.24721 0.00981811 
298 1 1 0.0291323 0.0120906 0.0508981 0 0 0 -0.0141408 0.028658 0.022781 0.0210496 -0.0118046 0.0184007 -2.74467 3.06778 -7.05785 0.00613632 
291 1 1 0.0440794 0.0125292 0.0551748 0 0 0 0.00453418 0.0113529 0.0157183 0.00616733 -0.0388778 -0.0184143 0.517302 2.36395 -1.78766 0.00613632 
335 1 1 -0.0341448 0.0154695 0.0485406 0 0 0 0.0535631 -0.0150704 0.0360474 -0.0125397 0.0255338 0.00930813 2.80881 3.59035 -8.31028 0.00613632 
117 1 1 -0.0217363 0.0219152 0.0561842 0 0 0 0.0010924 -0.0391539 0.134123 0.151481 -0.0773827 -0.0621369 -11.9687 16.7878 -0.665283 0.00981811 
99 1 1 -0.00420974 0.030169 0.0558353 0 0 0 0.0105767 -0.0298313 0.0528861 0.0987094 0.0540503 -0.210782 3.21444 -10.3875 0.761001 0.00981811 
122 1 1 -0.0240498 0.0405649 0.0496159 0 0 0 -0.00953032 0.00620216 -0.0089455 -0.0609255 -0.0221835 0.00280659 0.726546 -4.23276 -0.824818 0.00981811 
47 1 1 0.0236473 0.0366181 0.0511364 0 0 0 0.0533517 0.133699 0.0568744 0.106587 -0.294746 0.0020373 5.62238 -2.68381 -14.7764 0.00981811 
203 1 1 0.042025 0.0440114 0.0543889 0 0 0 -0.00985761 -0.00678974 0.029727 -0.00119319 -0.0052864 -0.0077713 -5.38675 -2.83959 -1.59742 0.00613632 
190 1 1 -0.00615973 -0.0439629 0.0615147 0 0 0 0.0143575 -0.000598718 -0.000218975 -0.0380722 0.0313305 1.43434e-05 -0.0735283 -3.44321 -1.47415 0.00613632 
189 1 1 0.0275717 -0.0438695 0.0652149 0 0 0 -0.00364985 0.00356623 0.0267188 0.00768689 -0.00589317 0.0115391 1.97495 2.57998 -0.663797 0.00613632 
6 1 1 -0.0267655 -0.0402777 0.0657185 0 0 0 0.00626384 -0.0115301 0.00280553 -0.116605 -0.0631789 0.044559 1.65141 -5.82844 -1.99577 0.00981811 
56 1 1 0.00801621 -0.0385846 0.056939 0 0 0 0.0516095 -0.0415695 0.0359565 -0.0889967 -0.00744539 0.0313798 -8.47333 -5.78322 -1.45921 0.00981811 
313 1 1 -0.0130508 -0.0269228 0.064127 0 0 0 -0.050183 -0.042982 0.0728034 0.0196072 0.00958406 -0.0474501 -1.38075 -2.56438 -3.20591 0.00613632 
137 1 1 -0.00123579 -0.0247418 0.0591494 0 0 0 0.000990842 0.0319555 -0.0832587 -0.0410305 -0.109445 0.444083 6.26774 19.7625 18.9204 0.00613632 
91 1 1 0.0228462 -0.0274577 0.0631127 0 0 0 0.0148761 -0.0173434 0.0480501 0.100134 0.0707708 -0.058056 -5.81414 -2.23947 4.9585 0.00981811 
247 1 1 0.0386758 -0.0260533 0.0630743 0 0 0 0.0140079 0.052182 -0.0431804 0.118688 0.0065773 0.03527 -8.28713 9.95755 5.3771 0.00613632 
36 1 1 -0.0404152 -0.0176702 0.0656322 0 0 0 0.00168687 -0.0155922 0.0109096 -0.00225533 0.00530454 -0.00282718 -0.010721 -0.606378 -1.66673 0.00981811 
215 1 1 0.0322147 -0.0149065 0.0649689 0 0 0 0.0184587 -0.00943304 0.0170698 -0.00622149 -0.00303091 0.00113044 1.4064 5.15049 -7.97149 0.00613632 
217 1 1 0.0439957 -0.0148704 0.0621418 0 0 0 0.00547963 -0.028019 -0.00961414 -0.0200772 -0.00845376 -0.0157228 5.7283 -1.11687 4.18615 0.00613632 
182 1 1 -0.0303542 -0.00557995 0.065829 0 0 0 0.0309063 -0.0372319 0.0530169 0.0493039 0.0256138 0.0141427 2.16669 -8.13939 -1.72976 0.00613632 
10 1 1 0.00535017 -0.00647229 0.0632456 0 0 0 0.0125642 0.0146327 0.0303667 -0.0763252 0.0268075 -0.042134 -0.810384 3.90399 11.1395 0.00981811 
197 1 1 -0.0205297 -0.00114455 0.0602389 0 0 0 -0.0134288 0.0840915 0.0556908 0.0225772 -0.0122731 0.015839 -5.44788 6.16057 27.0809 0.00613632 
87 1 1 0.0286609 0.000106376 0.0614099 0 0 0 0.0154544 -0.01831 -0.00142472 0.0269347 0.0571021 0.0965076 -3.01367 -1.85741 4.64742 0.00981811 
148 1 1 0.0440551 -0.00277358 0.0600184 0 0 0 0.0152843 0.00908686 0.00786532 -0.0103293 0.00205825 -0.00895896 -0.229574 1.56124 -1.40359 0.00613632 
32 1 1 -0.0397601 0.00513756 0.0590914 0 0 0 0.0505849 0.00368994 0.0755121 -0.0580743 -0.0818805 -0.0119826 1.66278 8.9863 -7.9243 0.00981811 
115 1 1 -0.00372691 0.0108662 0.0631191 0 0 0 -0.045165 0.0139487 0.0902804 -0.0642276 0.103543 0.0677344 -5.86508 -4.22456 -10.6365 0.00981811 
140 1 1 0.0077521 0.0204789 0.0584633 0 0 0 0.0216072 -0.0203961 0.121233 0.0165882 0.0268071 -0.0083854 4.60271 -5.75665 7.51673 0.00613632 
266 1 1 0.0206159 0.0221282 0.0585596 0 0 0 0.0169867 -0.0301721 -0.109694 0 0 -0.0237367 -3.40844 -21.9222 16.9341 0.00613632 
39 1 1 -0.0404188 0.0246408 0.0605217 0 0 0 0.00346678 0.00797293 0.128653 0.100794 -0.0721918 0.00201936 -10.238 -14.0552 0.684654 0.00981811 
106 1 1 0.0402049 0.0286772 0.0578281 0 0 0 -0.0052723 -0.0138336 0.0381303 0.0426608 -0.0508139 0.025315 4.82036 -0.146206 1.66544 0.00981811 
174 1 1 -0.0402988 0.0435986 0.0585772 0 0 0 -0.0803417 -0.0270577 0.104416 -0.000762869 0.00121097 -0.0174006 -5.39485 -26.1295 8.80872 0.00613632 
315 1 1 -0.0113933 0.0440402 0.0583635 0 0 0 -0.00997234 -0.0109925 0.0208516 -0.00703479 -0.013149 -0.0135747 -3.61622 1.31212 -1.81878 0.00613632 
158 1 1 0.00210145 0.0439994 0.0600962 0 0 0 -0.0113171 -0.00839782 0.0681907 -0.0119429 0.0161816 -0.0351154 -11.0521 -2.1966 -1.7802 0.00613632 
252 1 1 -0.0391657 -0.0439642 0.0750567 0 0 0 0.0235223 -0.000376449 0.0172863 -0.0386905 -0.0134528 0.00353226 2.05467 -2.05623 -3.74697 0.00613632 
186 1 1 0.0439142 -0.0438926 0.0716059 0 0 0 -0.0147253 -0.00443871 0.0552967 0.0154947 -0.00804612 -0.0204883 -7.39054 0.573687 -1.45316 0.00613632 
230 1 1 -0.0396991 -0.0326691 0.0706332 0 0 0 0.00828744 -0.00632728 0.0131732 -0.0354346 -0.0193699 -0.0171898 -2.63709 10.0605 2.38942 0.00613632 
109 1 1 0.0156247 -0.0403979 0.0754932 0 0 0 0.0765187 -0.0175124 0.0745467 -0.108697 0.0130164 -0.191777 8.31503 13.308 -7.6813 0.00981811 
165 1 1 0.0439301 -0.0317102 0.0727217 0 0 0 -0.00378328 -0.00121737 -0.0665579 0.028666 -0.000629898 0.0333601 1.84676 -11.1026 0.288061 0.00613632 
75 1 1 -0.0248623 -0.0235515 0.0756484 0 0 0 -0.0134447 -0.0529829 0.0563594 0.107818 -0.0103822 -0.101824 2.93897 -5.39936 -0.714616 0.00981811 
227 1 1 0.00755838 -0.0264897 0.0674783 0 0 0 -0.0577318 -0.0243692 -0.0880152 0.0918286 0.0106774 0.00814756 14.5514 -27.2319 -9.07206 0.00613632 
26 1 1 -0.00651826 -0.0171072 0.0746331 0 0 0 -0.0183813 -0.0141106 0.0345833 0.0453566 -0.0146129 -0.0672057 -0.507884 7.80338 4.84013 0.00981811 
209 1 1 0.0092409 -0.016346 0.0748955 0 0 0 0.00471749 0.0301173 0.0159827 0.0121347 0.0348728 0.00982551 3.06266 -9.04692 -0.277708 0.00613632 
169 1 1 0.0439408 -0.0186351 0.0737006 0 0 0 -0.000415376 -0.0197618 -0.00793882 -0.00440403 0.00711463 -0.0114949 -7.22467 -1.75706 3.48693 0.00613632 
204 1 1 -0.018852 -0.00772788 0.0704923 0 0 0 -0.0289128 -0.0676324 -0.0177269 0 0 -0.0237367 25.8926 -24.992 12.0125 0.00613632 
276 1 1 0.0198369 -0.0120943 0.0666245 0 0 0 0.0673698 0.0733767 -0.00376976 -0.0910658 -0.120784 -0.0532786 1.40629 -11.7747 -6.32265 0.00613632 
325 1 1 0.0364641 -0.00885601 0.0746039 0 0 0 0.00903281 0.00807608 0.0471017 0.0210283 -0.0285451 0.00346107 1.57609 -5.70216 13.8787 0.00613632 
306 1 1 -0.043641 -0.00350471 0.0724398 0 0 0 0.0106802 -0.0133326 0.0461253 0.00211436 -0.00124355 -0.0229354 19.2328 -13.5858 4.9074 0.00613632 
57 1 1 -0.0206212 0.00869116 0.0725629 0 0 0 -0.0796021 0.0479868 0.0932955 -0.0602705 0.0952378 0.0407006 8.45116 3.47299 4.74029 0.00981811 
338 1 1 0.0410807 0.00878758 0.066247 0 0 0 -0.00429508 0.00969033 0.0123368 -0.00257562 -0.0418309 -0.00134208 0.918157 -2.51684 -3.84816 0.00613632 
250 1 1 -0.0293814 0.0219713 0.0717106 0 0 0 0.00166086 0.115624 0.155626 -0.0159464 -0.013492 -0.00095596 9.00832 5.00885 -7.79112 0.00613632 
263 1 1 0.00915511 0.0178656 0.0705228 0 0 0 0.104632 -0.102624 -0.0274128 0.00852843 0.0293599 -0.0173049 10.7869 29.8345 21.2739 0.00613632 
45 1 1 0.028503 0.0169245 0.0714882 0 0 0 -0.0251368 0.00930096 -0.0198512 0.0523639 -0.0398119 -0.0280073 -0.87357 -1.38638 3.56663 0.00981811 
322 1 1 0.0438909 0.0210315 0.0712815 0 0 0 -0.00501628 -0.0185826 0.0494895 0.00223105 -0.0180696 0.00428027 -8.33479 0.373165 -3.51962 0.00613632 