ITEM: TIMESTEP
5600
ITEM: NUMBER OF ATOMS
338
ITEM: BOX BOUNDS mm mm mm
-0.05 0.05
-0.05 0.05
0 0.15
ITEM: ATOMS id type type x y z ix iy iz vx vy vz fx fy fz omegax omegay omegaz radius 
131 1 1 -0.0280111 -0.0415941 0.00516648 0 0 0 -0.00642026 0.00391365 0.023691 0.00520986 -0.011382 -0.0165465 1.50915 -0.233138 6.40073 0.00518881 
319 1 1 -0.0142264 -0.044651 0.00517274 0 0 0 0.00825158 0.0130721 0.00345163 5.41746e-06 9.4127e-06 0.00138056 -2.52501 1.59398 -1.87532 0.00518881 
74 1 1 -0.0386634 -0.0338664 0.00820605 0 0 0 -0.0521866 0.00192518 0.0380728 0.0257371 -0.0586384 0.0291735 0.0347453 -6.12256 -2.38359 0.0083021 
296 1 1 -0.0233891 -0.0324509 0.00671757 0 0 0 -0.0326308 0.0906201 -0.251926 -0.00956229 -0.0232655 -0.0170353 -36.2651 29.9027 11.1394 0.00518881 
243 1 1 -0.00696776 -0.037145 0.00545314 0 0 0 0.0759148 0.00480894 -0.249867 -0.000775024 -0.000722769 -0.0147752 0.767932 33.2071 -1.12362 0.00518881 
60 1 1 0.00748537 -0.0361702 0.00829085 0 0 0 0.193417 0.120149 0.0132191 -0.120456 -0.0618441 -0.179654 -14.345 22.9114 17.0649 0.0083021 
260 1 1 0.0223348 -0.0401774 0.00501052 0 0 0 0.0174442 -0.189012 -0.0383444 -0.0472903 -0.0117745 0.0164033 33.4842 4.02383 -5.19543 0.00518881 
78 1 1 0.0381628 -0.03801 0.00818634 0 0 0 -0.00767117 -0.1 0.0247078 0.225057 0.0775718 -0.109601 12.153 -0.848794 -4.11377 0.0083021 
173 1 1 -0.0138292 -0.0286938 0.00517648 0 0 0 0.0488184 0.0483998 0.00113942 -9.20263e-05 -4.51708e-05 -0.00245502 -9.32628 9.37865 -4.11114 0.00518881 
102 1 1 -0.0418223 -0.0163492 0.00807324 0 0 0 -0.0290845 -0.0713247 -0.0513523 0.13344 -0.245239 0.510399 6.99195 -3.79232 -6.58744 0.0083021 
328 1 1 -0.0269007 -0.0202082 0.00576265 0 0 0 0 0 0.0852257 0 0 -0.0143516 0 0 0 0.00518881 
40 1 1 -0.00930009 -0.015871 0.00819707 0 0 0 -0.00261069 -0.0115346 -0.10686 -0.0208693 -0.119418 0.205985 -1.06887 1.91008 -8.72705 0.0083021 
279 1 1 0.00370459 -0.0142523 0.00514004 0 0 0 0.0336346 -0.0747006 -0.00543182 -0.0230191 0.0250052 -0.170093 15.4973 5.06731 0.651031 0.00518881 
267 1 1 0.0157488 -0.0182761 0.0056476 0 0 0 -0.0413905 -0.0399489 0.0847516 0 0 -0.0143516 7.76308 -8.05495 -3.97583 0.00518881 
144 1 1 0.0425628 -0.0236249 0.00541572 0 0 0 0.0045252 -0.188484 0.0621807 0 0 -0.0143516 36.5894 0.847679 -7.76297 0.00518881 
274 1 1 -0.018085 -0.00613972 0.00515788 0 0 0 -0.0107034 0.03471 0.00623288 -0.00631905 -0.0316264 -0.119432 -6.98365 -2.26143 12.9803 0.00518881 
50 1 1 0.0271287 -0.0100808 0.00822886 0 0 0 0.0359682 0.0191351 -0.0353203 -0.0032301 0.160739 0.113466 -1.21064 4.89833 3.12183 0.0083021 
202 1 1 0.0437552 -0.0124836 0.00513096 0 0 0 0.0117828 -0.0959252 0.0286952 -0.013925 0.00430595 -0.0047217 18.4646 3.27381 6.67704 0.00518881 
257 1 1 -0.0428317 -0.000766476 0.00501858 0 0 0 -0.0742698 0.0379605 -0.237157 -0.0577455 0.00795432 0.0762699 -9.61044 -10.9479 14.4147 0.00518881 
171 1 1 -0.0253596 0.0028196 0.00517295 0 0 0 0.00126428 -0.00584635 0.00336429 4.35244e-07 -2.01265e-06 0.00110449 1.12853 0.244045 0.682868 0.00518881 
17 1 1 -0.00934788 0.00370384 0.00838434 0 0 0 0.0131389 -0.0165179 -0.0209665 -0.0539667 -0.195544 -0.244376 -1.58675 3.77366 -0.200346 0.0083021 
96 1 1 0.011722 -0.00390817 0.00818953 0 0 0 0.0112873 -0.0313323 -0.016181 0.0523465 0.0355027 0.202628 3.19975 1.88607 6.77982 0.0083021 
268 1 1 -0.0298492 0.0116851 0.00857125 0 0 0 -0.0990069 -0.179541 0.0501931 0 0 -0.0143516 -5.90015 31.7572 2.33461 0.00518881 
94 1 1 0.0362345 0.00450274 0.00821295 0 0 0 0.0691967 0.00208763 0.00792258 0.0209622 -0.0823223 0.0321329 -0.235123 8.2028 4.27314 0.0083021 
232 1 1 -0.0393819 0.0142939 0.00522553 0 0 0 -0.1149 0.0700101 0.0439688 0 0 -0.0143516 -13.5794 -23.5518 -62.8 0.00518881 
297 1 1 -0.0235475 0.0192338 0.00513596 0 0 0 -0.133356 -0.0382278 0.0469091 -0.00134359 0.00508124 -0.00431463 7.71234 -27.7951 22.5062 0.00518881 
222 1 1 -0.0119081 0.0205838 0.00519859 0 0 0 -0.084655 -0.098472 -0.0084992 0 0 -0.0143516 19.0406 -16.6372 12.7445 0.00518881 
290 1 1 -0.000754236 0.0147433 0.00516951 0 0 0 -0.13625 -0.0109944 0.00955967 -4.14662e-05 -1.56471e-05 0.00054202 2.12184 -26.3275 -20.9108 0.00518881 
316 1 1 0.0299448 0.0168714 0.0051732 0 0 0 0.00259348 -0.00013706 0.00244726 7.40227e-07 -3.89597e-08 0.00163721 0.0264549 0.500595 1.29547 0.00518881 
162 1 1 0.0449084 0.0146111 0.00515263 0 0 0 0.0176171 -0.0910445 0.090872 -0.255568 -0.00295525 -0.080028 18.0764 12.3873 20.5142 0.00518881 
175 1 1 -0.0363366 0.0316419 0.00504509 0 0 0 -0.0597588 0.0498336 0.119232 0.00731983 0.0613201 -0.0357851 -7.09645 -22.9124 -2.17407 0.00518881 
161 1 1 0.00358671 0.0269609 0.00556672 0 0 0 0.0151072 0.11294 0.0113108 0 0 -0.0143516 -22.0106 2.94172 0.872205 0.00518881 
77 1 1 0.0188954 0.0295158 0.00825459 0 0 0 -0.0409658 0.00729225 -0.00261702 0.014275 0.0702422 0.0744377 -1.19516 -4.88373 0.732322 0.0083021 
155 1 1 0.0330584 0.0297826 0.00517328 0 0 0 -0.0307671 -0.100993 0.00364777 -1.12426e-05 -3.6904e-05 0.0002319 19.494 -5.93874 -3.72186 0.00518881 
255 1 1 -0.0222479 0.0336792 0.00508787 0 0 0 -0.0444991 0.0177551 0.0508521 -0.0309716 -0.0359847 -0.0467156 -0.508398 -10.5987 13.5063 0.00518881 
324 1 1 -0.00959273 0.0318375 0.00513892 0 0 0 0.0460796 -0.11054 -0.0245577 0.00439263 -0.00713991 0.127027 20.0687 8.11151 6.07184 0.00518881 
149 1 1 0.0042 0.0411484 0.00571227 0 0 0 -0.0258866 0.067577 0.0469058 0 0 -0.0143516 -15.3192 -5.86829 2.70625e-14 0.00518881 
289 1 1 0.0441148 0.0370355 0.00517299 0 0 0 0 0 0.00575476 0 0 -0.00149915 0 0 0 0.00518881 
321 1 1 -0.0447942 0.0434911 0.00517292 0 0 0 0 0 0.0033369 0 0 0.00119301 0 0 0 0.00518881 
207 1 1 -0.034013 0.042938 0.00560274 0 0 0 0 0 -0.0469516 0 0 -0.0143516 0 0 0 0.00518881 
249 1 1 0.0260037 0.0420095 0.00518773 0 0 0 0.00179982 -0.00240446 -0.00440155 0.0221304 -0.0267429 -0.201132 1.334 -3.00468 0.60934 0.00518881 
299 1 1 -0.02767 -0.0448254 0.0149983 0 0 0 -0.00018576 0.0102705 0.0519113 0.00136313 0.00555455 -0.0110638 -5.06524 -0.207415 0.716936 0.00518881 
130 1 1 0.0163125 -0.0447429 0.0140034 0 0 0 0.283103 0.0485914 -0.0740689 0 0 -0.0143516 -9.25034 27.2956 -56.9633 0.00518881 
275 1 1 -0.00403188 -0.0282222 0.00984639 0 0 0 0.0410402 -0.00651182 -0.1881 0.000775024 0.000722769 -0.013928 26.2821 10.1517 6.55973 0.00518881 
67 1 1 0.0242279 -0.0302482 0.0136286 0 0 0 0.0642416 -0.104892 -0.207431 -0.310864 0.00480505 0.121438 -40.3494 2.3856 -1.05398 0.0083021 
179 1 1 -0.0351283 -0.023244 0.0176442 0 0 0 0.185631 -0.250108 -0.187624 0 0 -0.0143516 35.2601 44.0099 -14.3878 0.00518881 
278 1 1 0.0308942 -0.0191862 0.0172245 0 0 0 0.0677396 -0.119716 -0.0882613 0.0086225 -0.0707164 0.124233 37.817 -17.6589 19.5921 0.00518881 
183 1 1 0.0396821 -0.0131097 0.0145855 0 0 0 -0.0488142 -0.0683944 0.0432462 -0.0215329 0.00622927 -0.000341723 -27.5364 -15.0844 -0.165975 0.00518881 
25 1 1 -0.0392735 0.00479343 0.0165027 0 0 0 -0.124507 -0.0215706 -0.308759 0.0252921 0.139307 0.862653 7.12821 2.18514 -3.51069 0.0083021 
98 1 1 0.0119538 0.0125694 0.00994946 0 0 0 -0.0326284 -0.0162604 -0.161965 -0.0315177 0.0402847 0.0256842 -15.2367 40.048 4.97936 0.0083021 
164 1 1 0.0246141 0.00922636 0.013159 0 0 0 0.000226457 0.0226349 -0.209385 -0.00952129 0.00719451 -0.00338694 -14.893 -44.5317 -9.00662 0.00518881 
273 1 1 -0.0395031 0.0203312 0.0137003 0 0 0 0.0420702 0.0905607 0.0585367 0.107015 -0.162874 0.108294 -54.9388 5.48196 26.2089 0.00518881 
28 1 1 -0.0183561 0.020125 0.0174949 0 0 0 -0.0823157 -0.0154041 0.0806004 0.0959228 0.242345 -0.0834551 -6.07712 22.7633 -8.16254 0.0083021 
286 1 1 -0.00422698 0.0141014 0.0151427 0 0 0 -0.0128683 -0.0364658 -0.154406 0.11629 -0.0641574 -0.117935 -19.4677 -1.38708 7.46077 0.00518881 
261 1 1 0.0420987 0.0147333 0.0150698 0 0 0 0.0604772 0.0143034 0.185551 -0.0544196 -0.00468427 -0.00523649 -38.9006 -20.4192 -18.7704 0.00518881 
294 1 1 -0.0449274 0.0273872 0.00859692 0 0 0 -0.062621 0.0188554 -0.0162291 -0.0340514 -0.0493523 -0.0528052 28.1065 4.48755 -0.547065 0.00518881 
23 1 1 -0.0301188 0.0316909 0.016878 0 0 0 0.0117308 0.117746 0.253397 -0.035483 0.145265 -0.162158 -14.4344 21.1537 -14.287 0.0083021 
16 1 1 0.00663196 0.0348985 0.0183472 0 0 0 0.0712718 -0.137736 0.0386516 -0.123725 0.257166 0.143359 19.9065 2.01043 -1.48742 0.0083021 
239 1 1 0.0208701 0.0415646 0.0141566 0 0 0 -0.0800427 0.195846 -0.245299 -0.0298543 0.0247323 0.174781 -49.4809 -21.0737 -3.81501 0.00518881 
61 1 1 0.035146 0.0370043 0.0166146 0 0 0 0.00887334 0.0833687 -0.189102 -8.7346e-05 0.000626923 -0.0610115 -35.014 9.39192 0.618163 0.0083021 
38 1 1 -0.0167066 0.0418388 0.0141118 0 0 0 -0.011348 0.0607033 0.0491642 -0.290638 -0.964104 -0.172053 -0.58585 16.9024 -0.97433 0.0083021 
180 1 1 -0.0431526 -0.0321535 0.0207314 0 0 0 -0.132119 -0.00379775 0.0269844 0.0547786 0.0369461 0.00863005 2.87634 -7.27756 -5.49245 0.00518881 
7 1 1 -0.0197362 -0.031605 0.0196578 0 0 0 0.0605388 0.0894048 -0.264014 0.00862746 0.0219782 -0.0556337 21.086 -6.01951 -1.47168 0.0083021 
104 1 1 -0.000540973 -0.033102 0.0224819 0 0 0 0.0507188 0.110544 -0.0938599 -0.275252 -0.417044 -0.790594 -4.73172 -25.5399 8.17748 0.0083021 
167 1 1 0.0223335 -0.040431 0.0243458 0 0 0 0 0 -0.549311 0 0 -0.0143516 0 0 0 0.00518881 
271 1 1 0.0307824 -0.0322949 0.0250243 0 0 0 -0.0106527 0.00648842 -0.187097 0.12283 -0.192532 0.032124 31.3862 -6.9474 -22.2998 0.00518881 
136 1 1 0.0400306 -0.0381623 0.0268806 0 0 0 -0.0368371 -0.19928 -0.22717 0 0 -0.0143516 57.9829 -5.78651 3.48867 0.00518881 
120 1 1 0.0417108 -0.0267988 0.0197628 0 0 0 0.0386044 -0.0251786 -0.0564004 0.20521 0.018687 -0.019874 -16.1211 -8.09349 1.87341 0.0083021 
178 1 1 -0.0115561 -0.0199521 0.0235742 0 0 0 0.0136432 -0.041949 -0.430925 0 0 -0.0143516 30.924 18.0589 2.89278 0.00518881 
51 1 1 0.0135977 -0.0212235 0.0225536 0 0 0 0.00128605 -0.0307014 -0.328209 -0.0132348 0.0650473 -0.0262816 28.4119 -16.28 -2.26141 0.0083021 
134 1 1 0.0448624 -0.0142561 0.0234397 0 0 0 -0.0437162 -0.0408031 0.0736628 0.0454295 0.0348042 -0.12989 30.4855 13.9371 11.0709 0.00518881 
146 1 1 -0.0447547 -0.0077757 0.0178599 0 0 0 0.00454849 -0.0130524 -0.280584 -0.0805248 0.268275 0.623174 -49.4099 -8.83866 -1.26627 0.00518881 
19 1 1 -0.0298704 -0.0105051 0.0174747 0 0 0 0.0396405 -0.0333692 -0.0817567 0.638414 0.0305221 0.568948 -25.3248 13.5182 -2.20453 0.0083021 
310 1 1 -0.0158023 -0.0116353 0.0190221 0 0 0 -0.0820748 0.0905135 -0.160644 -0.150888 0.0596298 0.231568 -2.94555 -32.5424 -6.4488 0.00518881 
160 1 1 -0.00348548 -0.00976528 0.018493 0 0 0 0.11105 0.0928479 -0.205984 0.254355 0.227289 0.425673 -40.168 29.8162 4.91876 0.00518881 
18 1 1 0.0165204 -0.00496091 0.0239236 0 0 0 0.0837122 -0.0490214 -0.0127157 0.0613875 -0.0217682 0.231007 0.666773 5.41477 -2.37092 0.0083021 
184 1 1 0.0287912 -0.0104828 0.0224528 0 0 0 -0.0586493 0.08986 -0.372096 0.00707248 -0.0284479 -0.0162569 -45.4582 -0.659099 -14.6879 0.00518881 
55 1 1 0.0402258 -0.00166591 0.0229905 0 0 0 0.0484445 0.048917 0.0822236 0.00331046 0.0420272 0.0802923 -13.5032 -5.74382 -20.2386 0.0083021 
112 1 1 -0.0229428 0.0043678 0.0186993 0 0 0 -0.0912147 -0.0132264 -0.0427084 0.313924 0.153688 0.210072 20.0646 -38.1422 12.1911 0.0083021 
300 1 1 -0.0412961 0.0198291 0.0239441 0 0 0 -0.0661289 0.137631 0.0285984 0 0 -0.0143516 61.6532 -9.6047 9.3006 0.00518881 
320 1 1 -0.00605248 0.0207144 0.0227458 0 0 0 0.0999761 0.0788579 -0.2921 0.0660305 0.0990103 -0.0610859 -28.2562 48.7072 10.2953 0.00518881 
284 1 1 0.0287275 0.0170584 0.0200733 0 0 0 -0.0108661 0.150792 -0.230508 0 0 -0.0143516 -20.8845 2.1964 -17.0757 0.00518881 
58 1 1 0.0402601 0.0177511 0.0280284 0 0 0 -0.059367 0.173729 0.200313 0.0170567 0.00576508 -0.0269574 7.42258 -2.74362 -0.910527 0.0083021 
305 1 1 -0.043234 0.0289308 0.018619 0 0 0 0.022418 0.00452109 -0.151486 0.0817882 0.0482712 0.295955 -23.3361 16.2412 1.03236 0.00518881 
108 1 1 0.0167278 0.0228199 0.0235974 0 0 0 0.0465626 0.0201066 -0.0273933 0.44842 0.312666 -0.633236 14.666 7.62203 8.76875 0.0083021 
69 1 1 -0.0124926 0.032356 0.026931 0 0 0 0.119861 -0.0176503 -0.0897444 0.363679 0.280929 0.629895 -3.04618 14.4354 2.31473 0.0083021 
237 1 1 -0.00212722 0.0430979 0.0245323 0 0 0 -0.0979971 0.056789 -0.267618 0 0 -0.0143516 -64.7429 -60.8939 -10.2527 0.00518881 
331 1 1 -0.0420922 -0.0428226 0.0295591 0 0 0 0 0 -0.549311 0 0 -0.0143516 0 0 0 0.00518881 
225 1 1 0.00188288 -0.0447607 0.0298215 0 0 0 -0.156233 -0.0181666 -0.146029 0 0 -0.0143516 29.4448 38.2644 -27.9365 0.00518881 
242 1 1 0.0115916 -0.0447643 0.0341674 0 0 0 0.0714571 -0.104679 -0.368645 0 0 -0.0143516 -14.1121 21.4026 12.7464 0.00518881 
42 1 1 -0.0123262 -0.0367127 0.03363 0 0 0 -0.0941996 -0.0653827 -0.20749 -0.0109787 0.0046423 -0.0451732 19.9523 0.302742 12.5422 0.0083021 
128 1 1 -0.0448055 -0.0241926 0.0270968 0 0 0 -0.00294172 0.155202 -0.149871 -0.0890352 0.00939919 0.0892202 -41.0962 37.3212 12.302 0.00518881 
93 1 1 -0.0301382 -0.0230453 0.0302219 0 0 0 0.194267 -0.0818897 -0.0723705 -0.0700283 0.0617534 0.0280366 -43.3122 -31.1362 11.9073 0.0083021 
191 1 1 0.00685603 -0.0278726 0.0321769 0 0 0 -0.0186674 0.0489347 -0.199399 0.441917 0.387488 0.533212 9.86736 45.8218 -42.4427 0.00518881 
258 1 1 -0.00320521 -0.0194999 0.0297218 0 0 0 0.00385745 -0.00517835 -0.553709 0.000573731 -0.00133409 -0.0151844 -0.411363 0.182486 -0.575723 0.00518881 
336 1 1 -0.0184565 -0.00759916 0.0280604 0 0 0 -0.163252 0.184463 -0.103843 -0.0757663 0.0754922 0.154282 -4.93368 14.9462 -7.99346 0.00518881 
245 1 1 0.00422461 -0.010719 0.0262212 0 0 0 -0.0664283 -0.038864 -0.393097 0 0 -0.0143516 25.8712 -46.358 -0.438572 0.00518881 
259 1 1 0.0299512 -0.0104967 0.0332162 0 0 0 0 0 -0.549311 0 0 -0.0143516 0 0 0 0.00518881 
107 1 1 -0.0399833 1.677e-05 0.0324002 0 0 0 0 0 -0.549311 0 0 -0.0587843 0 0 0 0.0083021 
318 1 1 0.0440887 0.00474332 0.0341871 0 0 0 0.1324 0.174495 -0.0394484 0.00152912 -0.0010415 0.0380193 -18.1768 11.2206 0.803687 0.00518881 
100 1 1 0.00991317 0.0102142 0.0315988 0 0 0 0.0991883 -0.0153672 -0.0653594 -0.342523 -0.494199 0.302161 -9.24882 -8.8113 4.36379 0.0083021 
95 1 1 0.0274338 0.00589847 0.030261 0 0 0 -0.0647844 0.190361 -0.191799 -0.030968 0.0186921 0.00656453 -19.8723 -18.033 20.422 0.0083021 
2 1 1 -0.0302106 0.0151972 0.0314094 0 0 0 -0.0120887 -0.0147308 -0.555634 -0.00123971 -0.0124959 -0.053162 -1.26988 0.707966 0.812721 0.0083021 
192 1 1 -0.0232781 0.0266581 0.0326984 0 0 0 -0.0136199 0.00613365 -0.351148 0.00123971 0.0124959 -0.0199739 14.6871 -53.4791 -1.91093 0.00518881 
73 1 1 0.000651427 0.0237805 0.0338978 0 0 0 0.200956 0.187091 -0.40687 0.0749445 0.058629 0.0417308 -5.45241 -21.0451 -12.8482 0.0083021 
47 1 1 0.0225188 0.0336051 0.0349975 0 0 0 0.0728335 0.11745 -0.0939005 0.0219456 0.00840586 -0.0674327 -34.7578 13.648 5.0796 0.0083021 
114 1 1 0.0377134 0.0398804 0.0327423 0 0 0 0.0634305 0.172243 -0.196658 -0.00646583 -0.034768 -0.121462 29.0862 -3.51477 1.77988 0.0083021 
323 1 1 -0.0165554 0.0448401 0.0298641 0 0 0 0.0318442 -0.0239398 -0.0911132 0.0234103 0.0113921 0.0583105 16.7009 -32.7675 6.15086 0.00518881 
256 1 1 -0.0288783 -0.0392816 0.0352184 0 0 0 -0.0139333 -0.00648974 -0.537165 0 0 -0.0143516 5.07962 -3.78794 3.94522 0.00518881 
168 1 1 -0.000661485 -0.0406508 0.0420887 0 0 0 0.15436 -0.0635074 -0.328276 0 0 -0.0143516 4.79245 10.0241 -0.365198 0.00518881 
3 1 1 0.0208709 -0.0369362 0.0402128 0 0 0 0.0910455 0.0447659 -0.482972 0 0 -0.0587843 -3.8025 0.0043634 5.22492 0.0083021 
125 1 1 0.0354829 -0.0395199 0.042547 0 0 0 0 0 -0.549311 0 0 -0.0143516 0 0 0 0.00518881 
329 1 1 -0.0233938 -0.0309823 0.0387825 0 0 0 -0.00792258 -0.118549 0.115144 0.00579793 0.00459108 -0.0508769 53.0744 13.7391 -48.3807 0.00518881 
43 1 1 -0.000902645 -0.0263788 0.0430428 0 0 0 -0.0724173 -0.0211273 -0.41947 -0.0552981 0.0928509 0.231103 -5.84699 -3.68294 -3.56347 0.0083021 
105 1 1 0.0349892 -0.0267522 0.0363004 0 0 0 0.0818649 0.0216007 -0.2637 -0.165896 0.243593 0.978752 -29.4501 5.89133 7.88914 0.0083021 
66 1 1 -0.041793 -0.0155679 0.0393276 0 0 0 -0.044739 0.0824053 -0.334932 0.599217 -0.106158 0.136942 -3.8621 7.21004 5.69161 0.0083021 
81 1 1 -0.0206957 -0.0173066 0.0429143 0 0 0 -0.00447129 -0.00255642 -0.546926 -0.0022609 -0.001523 -0.0576516 0.0672883 -0.02985 0.0941734 0.0083021 
24 1 1 -0.00795294 -0.00885208 0.0364892 0 0 0 0.00352953 0.00382066 -0.550622 0.00168717 0.00285709 -0.0590842 0.00449781 -0.00199529 0.00629491 0.0083021 
133 1 1 -0.0248112 -0.00222023 0.0365271 0 0 0 0 0 -0.549311 0 0 -0.0143516 0 0 0 0.00518881 
208 1 1 -0.0396315 0.0127143 0.0436372 0 0 0 0 0 -0.549311 0 0 -0.0143516 0 0 0 0.00518881 
4 1 1 -0.0113994 0.0100841 0.0354201 0 0 0 0 0 -0.549311 0 0 -0.0587843 0 0 0 0.0083021 
298 1 1 0.0362654 0.0125535 0.0402192 0 0 0 0 0 -0.549311 0 0 -0.0143516 0 0 0 0.00518881 
246 1 1 -0.0415527 0.0238641 0.0366566 0 0 0 0 0 -0.549311 0 0 -0.0143516 0 0 0 0.00518881 
262 1 1 -0.0259673 0.0291501 0.0424556 0 0 0 -0.131451 0.0102487 -0.357974 -0.00107312 0.00299963 -0.0182641 -27.477 39.2845 -14.1644 0.00518881 
292 1 1 -0.0143992 0.0312359 0.0405462 0 0 0 0.0231355 0.0138222 -0.106933 0 0 -0.0143516 23.5163 -37.94 0.104105 0.00518881 
106 1 1 0.0364751 0.0267962 0.0428277 0 0 0 0.0129616 -0.0299665 -0.431004 -0.0153924 0.0257352 0.0147687 2.64361 -6.39785 -2.8072 0.0083021 
9 1 1 -0.0337447 0.0378722 0.0357154 0 0 0 -0.000976212 0.000406996 -0.548078 0.00107312 -0.00299963 -0.0548718 -0.279329 -0.340132 -0.104193 0.0083021 
248 1 1 0.00409611 0.0433263 0.0377214 0 0 0 0 0 -0.549311 0 0 -0.0143516 0 0 0 0.00518881 
229 1 1 0.0167017 0.0444711 0.0414822 0 0 0 -0.0650353 0.311789 -0.290701 0 0 -0.0143516 -3.73899 -28.0343 32.3145 0.00518881 
203 1 1 0.0444372 0.0446424 0.0441737 0 0 0 0.132717 -0.0559933 -0.0584899 0 0 -0.0143516 4.44705 20.4276 25.5888 0.00518881 
224 1 1 -0.0366427 -0.0379588 0.0498166 0 0 0 0.00501987 -0.00163162 -0.548851 0 0 -0.0143516 0.804669 2.39802 -0.287052 0.00518881 
314 1 1 -0.0176218 -0.0394828 0.0458729 0 0 0 -0.0355127 -0.227977 -0.34 0.0047854 -0.00218696 -0.0429982 18.5867 23.6548 7.84686 0.00518881 
211 1 1 -0.0422378 -0.025554 0.0486415 0 0 0 -0.00214495 -0.00528731 -0.553455 -0.000509647 -0.00125628 -0.0153363 1.9825e-13 -7.65367e-14 -4.96216e-15 0.00518881 
337 1 1 -0.00654657 -0.0318623 0.0540092 0 0 0 -0.0719643 -0.043216 -0.417488 0 0 -0.0143516 12.1338 3.33179 8.20371 0.00518881 
52 1 1 0.0154032 -0.0180526 0.0448094 0 0 0 0 0 -0.549311 0 0 -0.0587843 0 0 0 0.0083021 
332 1 1 0.0295284 -0.0161129 0.045556 0 0 0 0 0 -0.549311 0 0 -0.0143516 0 0 0 0.00518881 
5 1 1 0.0413222 -0.0101978 0.0497203 0 0 0 0.00201766 -0.00251988 -0.553404 0.00118702 -0.00157714 -0.0610204 -0.0740256 -0.0313069 -0.0172145 0.0083021 
10 1 1 0.011638 -0.000482538 0.0446001 0 0 0 0 0 -0.549311 0 0 -0.0587843 0 0 0 0.0083021 
303 1 1 0.0311837 0.00396808 0.0468268 0 0 0 0 0 -0.549311 0 0 -0.0143516 0 0 0 0.00518881 
240 1 1 0.0235615 -0.00132712 0.0521826 0 0 0 0 0 -0.549311 0 0 -0.0143516 0 0 0 0.00518881 
236 1 1 -0.018433 0.0106164 0.0480073 0 0 0 -0.00519975 -0.0019467 -0.55664 -0.0011125 -3.74456e-05 -0.015753 0.638547 0.238195 -0.514378 0.00518881 
115 1 1 0.00294602 0.0135672 0.0467176 0 0 0 -0.00357992 -0.00277749 -0.523144 0.00879634 -0.0176187 0.0350831 4.42096 0.996373 -0.286044 0.0083021 
199 1 1 -0.0443433 0.0219429 0.0506026 0 0 0 0 0 -0.549311 0 0 -0.0143516 0 0 0 0.00518881 
282 1 1 -0.0248235 0.0189416 0.0441462 0 0 0 -0.00784499 -0.0381653 -0.517115 0 0 -0.0143516 10.9161 1.86294 4.85541 0.00518881 
15 1 1 0.019464 0.014986 0.0472044 0 0 0 0.00581803 0.000405089 -0.548129 0.00771339 -0.00672989 -0.0352749 -0.0266484 0.30069 0.0283712 0.0083021 
99 1 1 -0.000553707 0.0335078 0.047205 0 0 0 0.0333245 0.19227 -0.380179 0.0880857 0.0047312 -0.0672779 8.80081 -5.47957 5.46755 0.0083021 
76 1 1 0.0313465 0.0404174 0.0522685 0 0 0 0 0 -0.549311 0 0 -0.0587843 0 0 0 0.0083021 
327 1 1 -0.0379102 0.0440646 0.0496383 0 0 0 0 0 -0.549311 0 0 -0.0143516 0 0 0 0.00518881 
126 1 1 -0.0148103 0.0439467 0.0496739 0 0 0 0.00372335 0.00181285 -0.552531 0.00659471 0.00340713 -0.0189279 0.120526 -0.193982 0.0301629 0.00518881 
158 1 1 0.00652377 0.044816 0.0517936 0 0 0 0 -0.00338276 -0.543464 0 -0.000552258 -0.0140755 2.86691 0 0 0.00518881 
6 1 1 -0.0231035 -0.0384214 0.0581042 0 0 0 -0.0232225 -0.155249 -0.296297 0.117102 -0.0326519 -0.014242 -18.2235 -9.14587 -11.4977 0.0083021 
56 1 1 0.00625104 -0.0388468 0.0612327 0 0 0 0 0 -0.549311 0 0 -0.0587843 0 0 0 0.0083021 
283 1 1 0.0344894 -0.0364612 0.053539 0 0 0 0 0 -0.549311 0 0 -0.0143516 0 0 0 0.00518881 
307 1 1 -0.0131625 -0.0240959 0.0559424 0 0 0 -0.0463976 0.0196567 -0.507934 0 0 -0.0143516 -12.0723 -7.77425 -9.84832 0.00518881 
91 1 1 0.0238395 -0.0295294 0.0589198 0 0 0 0 0 -0.549311 0 0 -0.0587843 0 0 0 0.0083021 
326 1 1 0.0428617 -0.0238533 0.0563946 0 0 0 0 0 -0.549311 0 0 -0.0143516 0 0 0 0.00518881 
36 1 1 -0.0381377 -0.0154472 0.0565633 0 0 0 0.000523669 0.00129085 -0.548299 0.000509647 0.00125628 -0.0577996 3.02595e-14 -1.1682e-14 -7.57379e-16 0.0083021 
26 1 1 -6.62862e-05 -0.0140715 0.0592328 0 0 0 0 0 -0.549311 0 0 -0.0587843 0 0 0 0.0083021 
215 1 1 0.0295226 -0.0144583 0.059518 0 0 0 0 0 -0.549311 0 0 -0.0143516 0 0 0 0.00518881 
182 1 1 -0.0245857 -0.011775 0.0563987 0 0 0 0 0 -0.549311 0 0 -0.0143516 0 0 0 0.00518881 
197 1 1 -0.0154165 -0.00546226 0.0534332 0 0 0 0 0 -0.549311 0 0 -0.0143516 0 0 0 0.00518881 
276 1 1 0.014428 -0.00937105 0.0606646 0 0 0 0 0 -0.549311 0 0 -0.0143516 0 0 0 0.00518881 
87 1 1 0.0347392 -0.00150535 0.06222 0 0 0 -0.00238862 0.0036263 -0.545634 -0.00180654 0.00313354 -0.0567146 0.00506313 0.0021413 0.00117742 0.0083021 
32 1 1 -0.0357228 0.00649715 0.0559382 0 0 0 0 0 -0.549311 0 0 -0.0587843 0 0 0 0.0083021 
57 1 1 -0.0100509 0.010947 0.0585592 0 0 0 0.00114655 -0.00407905 -0.550547 -0.000484479 -0.000175795 -0.0576497 -0.748429 -0.0296094 -0.573805 0.0083021 
233 1 1 0.00313157 0.0126664 0.0607879 0 0 0 0.0100451 -0.000974075 -0.548201 0.00159698 0.00021324 -0.0140849 -0.143497 -0.280912 1.06504 0.00518881 
291 1 1 0.0418759 0.00849624 0.0540462 0 0 0 0 0 -0.549311 0 0 -0.0143516 0 0 0 0.00518881 
335 1 1 -0.0280227 0.0221394 0.055927 0 0 0 0 0 -0.549311 0 0 -0.0143516 0 0 0 0.00518881 
117 1 1 -0.0106574 0.0275459 0.0588272 0 0 0 -0.0396248 2.19263e-05 -0.468852 -0.0166081 -0.0757409 -0.0635727 10.8331 -6.60249 4.64692 0.0083021 
127 1 1 0.0351742 0.0259136 0.0566506 0 0 0 -0.0314953 0.0347396 -0.364637 0 0 -0.0143516 -13.3557 3.22109 9.29976 0.00518881 
322 1 1 0.044482 0.02303 0.0619407 0 0 0 0.0603038 0.0718731 -0.516895 0.000675654 -0.0021432 -0.0101851 15.5327 30.0744 -7.541 0.00518881 
122 1 1 -0.024914 0.0388006 0.0569566 0 0 0 -0.000122732 -0.00059691 -0.548741 -0.00659471 -0.00340713 -0.054208 0.0513508 0.201108 -0.0407557 0.0083021 
315 1 1 -0.000250241 0.038559 0.05989 0 0 0 0.000668921 0.144659 -0.2397 0 0 -0.0143516 6.23253 3.38752 -1.587 0.00518881 
113 1 1 0.0165965 0.0366038 0.0607305 0 0 0 0 0 -0.549311 0 0 -0.0587843 0 0 0 0.0083021 
265 1 1 0.014652 -0.0432494 0.0710985 0 0 0 0 0 -0.549311 0 0 -0.0143516 0 0 0 0.00518881 
84 1 1 -0.0385792 -0.0357843 0.0631402 0 0 0 -0.147018 0.0124136 -0.448614 -0.121888 0.0348389 -0.07468 -2.31015 -14.4349 -2.3024 0.0083021 
49 1 1 0.0375297 -0.0383468 0.0679053 0 0 0 0 0 -0.549311 0 0 -0.0587843 0 0 0 0.0083021 
75 1 1 -0.0264246 -0.0248876 0.0674592 0 0 0 -0.0560522 0.102639 -0.393342 0 0 -0.0587843 -12.4701 0.964404 -6.11246 0.0083021 
137 1 1 -0.00363123 -0.0300467 0.0683087 0 0 0 0 0 -0.549311 0 0 -0.0143516 0 0 0 0.00518881 
147 1 1 -0.039794 -0.0179325 0.0713697 0 0 0 0 0 -0.549311 0 0 -0.0143516 0 0 0 0.00518881 
204 1 1 -0.0107942 -0.0174805 0.0671143 0 0 0 0 0 -0.549311 0 0 -0.0143516 0 0 0 0.00518881 
217 1 1 0.0396685 -0.0139661 0.0636848 0 0 0 0.00151948 -0.00453188 -0.547603 0.00061952 -0.0015564 -0.0141852 0.518177 0.219148 0.120501 0.00518881 
145 1 1 -0.0309073 -0.0121451 0.0684172 0 0 0 -0.0517672 0.174669 -0.516724 0 0 -0.0143516 -5.80289 -2.70204 5.03009 0.00518881 
148 1 1 0.0440706 -0.00493793 0.0719021 0 0 0 0 0 -0.549311 0 0 -0.0143516 0 0 0 0.00518881 
220 1 1 -0.0374843 0.00171989 0.0688899 0 0 0 0 0 -0.549311 0 0 -0.0143516 0 0 0 0.00518881 
53 1 1 -0.0210984 -0.00118973 0.0660308 0 0 0 0 0 -0.549311 0 0 -0.0587843 0 0 0 0.0083021 
45 1 1 0.0310378 0.015826 0.0653517 0 0 0 -0.0456203 -0.0917852 -0.370675 0 0 -0.0587843 18.5849 -7.36448 0.973657 0.0083021 
338 1 1 0.0448317 0.017671 0.0708025 0 0 0 -0.0394098 0.0575342 -0.488448 0.0188462 -0.00900494 0.00909121 -15.5274 -52.9054 7.39588 0.00518881 
250 1 1 -0.0226139 0.0282147 0.0675288 0 0 0 0 0 -0.549311 0 0 -0.0143516 0 0 0 0.00518881 
140 1 1 0.0108541 0.0242341 0.0642311 0 0 0 0 0 -0.549311 0 0 -0.0143516 0 0 0 0.00518881 
39 1 1 -0.0393506 0.0352058 0.064947 0 0 0 0 0 -0.549311 0 0 -0.0587843 0 0 0 0.0083021 
35 1 1 -0.0127035 0.0371969 0.0720656 0 0 0 -0.0444555 0.0230773 -0.439612 -0.011529 0.0558988 0.0116418 -13.7551 7.06886 -7.69319 0.0083021 
154 1 1 0.027479 0.0388057 0.0705185 0 0 0 0 0 -0.549311 0 0 -0.0143516 0 0 0 0.00518881 
195 1 1 0.0389143 0.0324035 0.0674023 0 0 0 0 0 -0.549311 0 0 -0.0143516 0 0 0 0.00518881 
174 1 1 -0.0253252 0.0414707 0.0701791 0 0 0 -0.0418976 0.0235925 -0.530169 -0.031549 0.0363789 0.0432553 -4.06481 -9.2472 4.15954 0.00518881 
124 1 1 0.0420088 0.042441 0.0682655 0 0 0 0 0 -0.549311 0 0 -0.0143516 0 0 0 0.00518881 
252 1 1 -0.0341074 -0.0434334 0.080798 0 0 0 0 0 -0.549311 0 0 -0.0143516 0 0 0 0.00518881 
79 1 1 -0.0175813 -0.0414669 0.0779408 0 0 0 0.00117932 -0.00116393 -0.549778 0.00114774 -0.00113276 -0.0592386 7.60092e-14 7.70886e-14 -1.85539e-16 0.0083021 
190 1 1 0.000515076 -0.0431242 0.0765133 0 0 0 0 0 -0.549311 0 0 -0.0143516 0 0 0 0.00518881 
189 1 1 0.0227805 -0.0351005 0.0729209 0 0 0 -0.00109152 -0.00139882 -0.552173 -0.000317098 -0.000406374 -0.0151832 1.54169e-13 -1.40725e-13 9.98185e-15 0.00518881 
230 1 1 -0.0418354 -0.0281007 0.0781122 0 0 0 0 0 -0.549311 0 0 -0.0143516 0 0 0 0.00518881 
313 1 1 -0.0111159 -0.0253459 0.0761069 0 0 0 0 0 -0.549311 0 0 -0.0143516 0 0 0 0.00518881 
227 1 1 0.0105119 -0.0261492 0.0751992 0 0 0 0 0 -0.549311 0 0 -0.0143516 0 0 0 0.00518881 
209 1 1 0.0100426 -0.0144994 0.0727146 0 0 0 0 0 -0.549311 0 0 -0.0143516 0 0 0 0.00518881 
59 1 1 0.0243468 -0.0153778 0.0732945 0 0 0 -0.000563558 0.000342611 -0.550901 -0.000548886 0.000333691 -0.0603329 -2.42373e-14 -4.10052e-14 -2.45117e-16 0.0083021 
247 1 1 0.0363883 -0.0216333 0.0741766 0 0 0 0 0 -0.549311 0 0 -0.0143516 0 0 0 0.00518881 
196 1 1 -0.0200099 -0.00674635 0.0806683 0 0 0 0 0 -0.549311 0 0 -0.0143516 0 0 0 0.00518881 
295 1 1 -0.00313999 -0.0118896 0.0760057 0 0 0 0.00254671 -9.63012e-05 -0.551513 0.000739392 -2.79593e-05 -0.0149911 5.52957e-15 1.29184e-13 7.45386e-16 0.00518881 
22 1 1 0.00671288 0.00338129 0.0726134 0 0 0 -0.00118775 -0.00322739 -0.557099 0.00054559 0.00207614 -0.054606 0.536317 0.142562 -0.14087 0.0083021 
123 1 1 0.025284 0.00400925 0.0792443 0 0 0 -0.111263 -0.0678063 -0.516714 0.00431308 0.00245628 -0.0603486 7.83837 -13.5603 -1.36902 0.0083021 
312 1 1 -0.0220558 0.00846736 0.0760412 0 0 0 0 0 -0.549311 0 0 -0.0143516 0 0 0 0.00518881 
333 1 1 -0.00325388 0.0120493 0.0790494 0 0 0 0 0 -0.549311 0 0 -0.0143516 0 0 0 0.00518881 
63 1 1 -0.0344071 0.0201469 0.0727738 0 0 0 0 0 -0.549311 0 0 -0.0587843 0 0 0 0.0083021 
62 1 1 -0.0128982 0.0195936 0.073344 0 0 0 0 0 -0.549311 0 0 -0.0587843 0 0 0 0.0083021 
263 1 1 0.00682569 0.0193914 0.0755214 0 0 0 0 0 -0.549311 0 0 -0.0143516 0 0 0 0.00518881 
266 1 1 0.014581 0.0262014 0.073955 0 0 0 0.00555319 -0.00433541 -0.549026 0.00132046 -0.00103089 -0.014284 -2.85775e-14 -3.44471e-14 3.28803e-14 0.00518881 
82 1 1 0.0286385 0.0274834 0.0788326 0 0 0 0 0 -0.549311 0 0 -0.0587843 0 0 0 0.0083021 
198 1 1 -0.0259991 0.0335641 0.076895 0 0 0 0 0 -0.549311 0 0 -0.0143516 0 0 0 0.00518881 
46 1 1 0.00396423 0.03449 0.0734111 0 0 0 -0.00135576 0.00105845 -0.54938 -0.00132046 0.00103089 -0.0588519 -4.36126e-15 -5.257e-15 5.01869e-15 0.0083021 
188 1 1 -0.0268161 -0.0323526 0.0815962 0 0 0 -0.00483051 0.00476748 -0.547399 -0.00114774 0.00113276 -0.0138973 4.9797e-13 5.05042e-13 -1.21538e-15 0.00518881 
109 1 1 0.0138074 -0.0384174 0.087474 0 0 0 0 0 -0.549311 0 0 -0.0587843 0 0 0 0.0083021 
165 1 1 0.0362744 -0.0355914 0.0817743 0 0 0 0 0 -0.549311 0 0 -0.0143516 0 0 0 0.00518881 
41 1 1 -0.0184512 -0.0237025 0.0897 0 0 0 0.000562579 -0.00495337 -0.551449 0.000313285 -0.0027584 -0.0599747 1.54337e-13 1.85395e-14 -2.34189e-15 0.0083021 
44 1 1 0.000158551 -0.0281095 0.0840948 0 0 0 -0.00144138 -0.000370558 -0.550001 -0.00195344 -0.000502201 -0.0597196 -4.38054e-15 1.72151e-14 -9.44209e-17 0.0083021 
205 1 1 0.0120023 -0.0250647 0.0897659 0 0 0 0.00590389 0.00151781 -0.546484 0.00195344 0.000502201 -0.0134163 -2.86988e-14 1.12783e-13 -6.18373e-16 0.00518881 
143 1 1 0.0261416 -0.0307932 0.0817349 0 0 0 0.00109152 0.00139882 -0.546449 0.000317098 0.000406374 -0.0135201 1.54169e-13 -1.40725e-13 9.98185e-15 0.00518881 
285 1 1 -0.0448161 -0.0171348 0.0823441 0 0 0 0.00337269 0 -0.545339 0.00057152 0 -0.0140659 0 1.93111 0 0.00518881 
170 1 1 0.02876 -0.0180608 0.0857459 0 0 0 0.00230833 -0.00140334 -0.542798 0.000548886 -0.000333691 -0.012803 -1.5879e-13 -2.68645e-13 -1.60581e-15 0.00518881 
169 1 1 0.0440342 -0.0175274 0.0846184 0 0 0 0 0 -0.549311 0 0 -0.0143516 0 0 0 0.00518881 
223 1 1 -0.0109805 -0.0115931 0.0827862 0 0 0 -0.00254671 9.63012e-05 -0.547109 -0.000739392 2.79593e-05 -0.0137122 5.52957e-15 1.29184e-13 7.45386e-16 0.00518881 
90 1 1 0.000256086 -0.0117628 0.0905167 0 0 0 0.00223437 -0.00857401 -0.552578 -0.000968263 0.0037132 -0.0573693 -0.071831 0.154247 -0.453928 0.0083021 
185 1 1 0.0138686 -0.0105482 0.0830067 0 0 0 0 0 -0.549311 0 0 -0.0143516 0 0 0 0.00518881 
325 1 1 0.0422676 -0.00782889 0.0893388 0 0 0 0 0 -0.549311 0 0 -0.0143516 0 0 0 0.00518881 
111 1 1 -0.0343607 -0.000968929 0.0824412 0 0 0 0 0 -0.549311 0 0 -0.0587843 0 0 0 0.0083021 