ITEM: TIMESTEP
40600
ITEM: NUMBER OF ATOMS
338
ITEM: BOX BOUNDS mm mm mm
-0.05 0.05
-0.05 0.05
0 0.15
ITEM: ATOMS id type type x y z ix iy iz vx vy vz fx fy fz omegax omegay omegaz radius 
319 1 1 -0.01464 -0.0442974 0.00616051 0 0 0 0.000210881 -8.9612e-05 0.000776505 -0.00244851 -0.0141235 0.00166898 -0.0155052 0.160252 -0.258831 0.00653079 
243 1 1 -0.00276797 -0.0437088 0.00610084 0 0 0 -0.00146115 0.00023524 0.000940509 -0.00667738 0.000853754 0.00161043 0.016921 -0.232961 0.409337 0.00653079 
260 1 1 0.0251618 -0.0436319 0.00617188 0 0 0 -0.00264063 0.00113194 -7.61826e-07 -0.0209289 0.00663605 -0.00975373 -0.112861 -0.20752 0.189517 0.00653079 
131 1 1 -0.025614 -0.0396545 0.00585496 0 0 0 -0.000247199 0.00167324 0.00103015 0.00226414 -0.0114531 -0.0145587 -0.316267 -0.0241849 -0.238022 0.00653079 
173 1 1 -0.0155631 -0.0318473 0.00580152 0 0 0 0.000191182 0.0049951 -0.0012283 0.0131927 0.0211671 -0.0165215 -0.397102 -0.153247 0.749867 0.00653079 
296 1 1 -0.0274151 -0.0273481 0.00630544 0 0 0 0.00167396 0.00552704 0.000427954 0.00875274 0.014312 -0.00275959 0.00523206 0.285872 -0.358229 0.00653079 
275 1 1 -0.00360695 -0.0295281 0.00592676 0 0 0 0.0010306 0.00914129 -0.000816539 -0.00801552 0.00579836 -0.0122486 -1.2314 0.0349916 -0.881959 0.00653079 
144 1 1 0.0425187 -0.0249717 0.00618425 0 0 0 0.00458285 0.00155098 0.000378431 0.0126886 0.0176591 0.000794965 -0.185066 0.597252 -0.125116 0.00653079 
102 1 1 -0.040435 -0.0170236 0.0091346 0 0 0 0.000502607 0.00808321 0.000362096 -0.020143 0.0245532 -0.0523448 -0.494702 0.0723925 0.145846 0.0104493 
328 1 1 -0.0253692 -0.0152566 0.00564656 0 0 0 0.00226884 0.0107791 -0.00511531 -0.00691675 0.0117247 -0.000466766 -1.41224 0.532914 0.467842 0.00653079 
267 1 1 0.0153082 -0.0201015 0.00604183 0 0 0 0.00184463 0.00473424 -0.00197518 0.00500617 0.021541 -0.0210616 -0.360646 0.133394 -0.523813 0.00653079 
202 1 1 0.0448299 -0.0130274 0.00630878 0 0 0 0.00272112 0.000851242 9.09809e-05 0.0269884 0.00695466 -0.0147415 0.195519 0.124393 0.160283 0.00653079 
257 1 1 -0.043967 -0.00121032 0.0063018 0 0 0 -0.00351014 0.00776835 0.00109275 -0.0207457 -0.03169 -0.00403288 0.97652 -0.119245 0.765583 0.00653079 
268 1 1 -0.0323385 0.00347089 0.00641605 0 0 0 -0.00259428 0.0119064 0.0116239 -0.0376121 0.028689 0.0146004 -0.787118 -1.41579 -0.203534 0.00653079 
274 1 1 -0.0218151 -0.00397526 0.00802753 0 0 0 -2.32038e-05 0.014673 0.0105162 -0.0491385 0.0187776 0.0648799 3.62675 -1.40723 0.299532 0.00653079 
164 1 1 0.0203588 0.0015075 0.00574435 0 0 0 0.0038035 0.00529518 -0.000766055 0.0164626 0.0224964 -0.0291677 -0.6642 0.679481 -0.361985 0.00653079 
232 1 1 -0.0432532 0.011639 0.00638466 0 0 0 0.00358083 0.00528661 0.00410355 -0.0406381 -0.019457 -0.00940175 -0.172372 0.250794 -1.61734 0.00653079 
171 1 1 -0.0208005 0.00784704 0.00857792 0 0 0 0.00309505 0.0120561 0.0207875 -0.016386 -0.0234146 0.021217 -1.66309 0.360152 -0.374145 0.00653079 
297 1 1 -0.024955 0.0191549 0.00596079 0 0 0 0.00110454 0.00629257 0.0021936 0.00128027 0.004584 -0.0167791 -1.11422 -0.215145 0.0206725 0.00653079 
222 1 1 -0.0106489 0.0144922 0.00587486 0 0 0 0.00436934 0.0103984 0.00794989 0.00681507 -0.00779608 -0.0401844 -1.61101 0.638488 -0.623724 0.00653079 
290 1 1 -0.000716533 0.0213019 0.00560002 0 0 0 0.00397741 0.00538967 0.00196473 0.0142866 0.0248524 -0.0207312 -0.785907 0.135211 0.338306 0.00653079 
316 1 1 0.0322033 0.0195589 0.00552903 0 0 0 0.000775262 0.000111709 0.00172809 -0.0132519 -0.00431331 -0.0279232 0.731992 0.94736 0.270821 0.00653079 
162 1 1 0.0443927 0.0200679 0.00579695 0 0 0 0.00312359 0.000335957 -0.00310875 0.0302592 0.0201059 -0.016907 0.617172 0.0262854 0.172189 0.00653079 
294 1 1 -0.0437864 0.0251062 0.00624578 0 0 0 -0.00299619 0.0031379 -0.0014048 -0.00672547 -0.0264123 -0.0199796 -0.169041 -0.324831 1.03816 0.00653079 
175 1 1 -0.0327832 0.0312705 0.00615569 0 0 0 -0.00187718 0.00433817 -0.00175855 -0.00897064 -0.0176746 -0.00159563 -0.558206 -0.227213 -1.00661 0.00653079 
255 1 1 -0.0147922 0.0258852 0.00609609 0 0 0 -0.000944586 0.0102877 0.00104846 0.0101081 0.00505594 -0.022063 -0.663344 -0.0271745 1.53044 0.00653079 
155 1 1 0.0374513 0.0308951 0.00592243 0 0 0 0.00110598 0.0011757 0.00461162 0.00936626 0.0294509 -0.0218337 0.141761 0.540337 -0.378009 0.00653079 
324 1 1 -0.00343661 0.0325044 0.00581724 0 0 0 -0.00595419 0.00191332 0.00304284 0.0386243 0.0261151 -0.0211851 0.612331 -0.9136 0.76903 0.00653079 
161 1 1 0.00819325 0.0320628 0.00699009 0 0 0 -0.00664248 0.000365799 0.00649855 0.0259745 0.0141503 -0.0445884 -3.34437 1.01891 -1.16405 0.00653079 
321 1 1 -0.0438687 0.0437499 0.0063074 0 0 0 -0.00161704 0.00109306 0.000600272 -0.00832749 -0.00361563 -0.00601591 -0.391904 -0.0917863 -0.142291 0.00653079 
207 1 1 -0.031365 0.0437736 0.00633868 0 0 0 -0.00103619 0.00521005 -0.00113308 -0.0108974 0.0020273 0.00158923 -0.0633908 0.0424614 0.785404 0.00653079 
149 1 1 0.0117924 0.0437671 0.00569549 0 0 0 -0.003152 -0.00097524 -0.00143591 0.0388804 0.00975164 -0.0139209 0.564809 -1.82531 0.117363 0.00653079 
249 1 1 0.0274833 0.0439064 0.00639606 0 0 0 -0.00048862 0.00131909 0.00320473 0.0217035 0.0058747 -0.00856177 -0.711002 -0.987388 0.312245 0.00653079 
289 1 1 0.0441142 0.0418769 0.00612015 0 0 0 0.000234584 -0.000927423 0.00192918 0.0198936 0.0113871 -0.00402191 0.336141 0.152818 0.295637 0.00653079 
299 1 1 -0.0244183 -0.0446301 0.016896 0 0 0 -0.00162843 0.00187355 0.00414582 -0.00667755 -0.0315667 9.40382e-05 0.316115 0.370503 0.296661 0.00653079 
225 1 1 -0.0116256 -0.0439241 0.0186991 0 0 0 -0.00097448 0.00177935 0.00439637 0.0065465 -0.00710972 0.00547462 0.321938 -0.478572 -0.0838034 0.00653079 
130 1 1 0.0208069 -0.0440594 0.0180606 0 0 0 -0.00174806 -0.000658499 0.00373283 -0.0039491 0.000141876 0.0250068 0.381819 0.167845 0.178734 0.00653079 
74 1 1 -0.0405567 -0.0363838 0.00971609 0 0 0 -0.000182197 0.00209791 0.00222223 -0.0147129 -0.0351487 0.00223428 0.0238243 -0.0587103 0.174509 0.0104493 
60 1 1 0.0103842 -0.0357923 0.009725 0 0 0 -0.000387651 0.00180287 0.00131705 0.0108953 0.0343014 0.00222953 -0.256329 -0.00779191 -0.342771 0.0104493 
78 1 1 0.0410438 -0.0406783 0.00939683 0 0 0 0.00187808 -0.000190729 0.000973706 0.0233303 0.000535463 -0.00351888 0.129007 0.141002 -0.181489 0.0104493 
67 1 1 0.02759 -0.0279867 0.0128988 0 0 0 0.000872076 0.00190247 0.00335771 0.00674373 0.0567202 0.0592292 -0.217555 -0.208971 0.1332 0.0104493 
40 1 1 -0.0106416 -0.0158037 0.0108478 0 0 0 0.00167081 0.0156469 0.000779278 -0.0119606 0.0818493 0.106703 1.19287 -1.0114 0.375998 0.0104493 
279 1 1 0.00426778 -0.0207933 0.0111575 0 0 0 0.00271998 0.011027 0.0015099 0.000552335 0.0322395 -0.0109174 0.435629 0.307722 -0.438851 0.00653079 
96 1 1 0.0118353 -0.00743106 0.0161122 0 0 0 0.00216917 0.00870832 0.00517953 0.0787271 0.0397949 0.0720747 0.309928 0.164291 -0.0250844 0.0104493 
50 1 1 0.0303393 -0.00930992 0.00992379 0 0 0 0.00126786 0.00286748 0.00149298 0.0379427 0.0724945 -0.0127856 -0.068613 -0.0765143 -0.328798 0.0104493 
183 1 1 0.0443498 -0.00704651 0.0174485 0 0 0 0.00391551 -0.000880026 0.00431238 0.0316073 0.0103107 0.0273324 0.287721 0.306293 -0.0604184 0.00653079 
17 1 1 -0.00500923 0.00258563 0.0146068 0 0 0 0.00111499 0.0148583 0.0151338 0.0249883 0.00965343 0.0683128 0.00841945 0.691362 -0.734058 0.0104493 
98 1 1 0.0120968 0.0133956 0.0100898 0 0 0 0.00659711 0.0038298 0.00445814 0.0530196 -0.0662847 -0.0542354 -0.0328995 0.493685 0.0151714 0.0104493 
94 1 1 0.0381912 0.00810652 0.0139517 0 0 0 0.0075677 0.00311596 -0.00168765 0.0249906 0.118619 0.0219247 -0.729382 0.590718 -0.347405 0.0104493 
300 1 1 -0.044215 0.0185863 0.0171497 0 0 0 -0.00214043 0.00987107 0.00204431 -0.0176522 -0.0190341 -0.0310692 -1.52431 -0.519471 1.052 0.00653079 
273 1 1 -0.0321215 0.0183161 0.0159192 0 0 0 -0.00039091 0.0124313 0.00216909 -0.0119441 -0.040717 -0.0532354 0.239469 -0.0681396 -0.663942 0.00653079 
286 1 1 -0.00139727 0.0182411 0.0171617 0 0 0 0.011572 0.0155319 0.0104247 -0.00664238 0.0204833 -0.0095438 -0.459514 0.879002 -2.08606 0.00653079 
77 1 1 0.0226045 0.029537 0.0127091 0 0 0 -0.00320833 0.000846747 0.0109229 0.0504987 -0.0843431 -0.0232805 -0.0869208 -0.837175 0.0906028 0.0104493 
284 1 1 0.044406 0.0273786 0.01568 0 0 0 0.00169543 -0.00523643 0.00529436 0.0233919 -0.0118086 0.0204183 0.965519 0.342642 0.705826 0.00653079 
305 1 1 -0.0433818 0.0344343 0.015154 0 0 0 -0.0137438 0.0035584 0.00302332 0.0101725 0.0059551 -0.0156718 0.334777 -1.01646 -1.13716 0.00653079 
38 1 1 -0.0154692 0.0412264 0.00966472 0 0 0 -0.00474035 0.0076276 0.000369532 0.0251326 0.00518859 -0.00140631 -0.319691 -0.237632 -0.852529 0.0104493 
237 1 1 0.000723042 0.0437199 0.0118674 0 0 0 -0.00225911 -0.00323513 -0.00621134 0.0213425 -0.00527689 0.0322951 1.3321 1.63617 -0.463844 0.00653079 
239 1 1 0.0186807 0.0445073 0.0156367 0 0 0 -0.000716175 0.0013644 0.00731896 0.0139215 0.0245034 0.00862076 -0.673597 2.37819 0.185393 0.00653079 
331 1 1 -0.0429134 -0.0450637 0.0218876 0 0 0 -0.000517709 -0.00118531 0.00208631 -0.0132877 -0.0351344 0.00194097 0.237343 -0.281117 0.0192664 0.00653079 
242 1 1 0.000894397 -0.0442802 0.0196381 0 0 0 -0.00055855 0.000918536 0.00401465 -0.0053464 -0.0189168 0.0127964 0.31445 0.485488 0.16214 0.00653079 
167 1 1 0.0319003 -0.0441314 0.0227794 0 0 0 -0.000522685 -0.000526119 0.00255621 -0.00928245 0.00128489 0.00124155 0.189713 -0.00822632 -0.0297747 0.00653079 
136 1 1 0.0440734 -0.0444827 0.0241317 0 0 0 0.00113943 -0.00126841 0.00169578 0.0234336 -0.0286474 0.00940501 -0.0196446 -0.0420876 0.0217178 0.00653079 
180 1 1 -0.0439375 -0.033718 0.0266392 0 0 0 0.000895773 0.00275008 0.000638926 0.000827242 0.0132895 -0.00488557 -0.24096 0.12818 -0.12603 0.00653079 
256 1 1 -0.0324332 -0.0395664 0.025503 0 0 0 -0.00227195 0.00712694 0.00780262 -0.0026045 0.00338006 0.0175242 -1.32452 -0.46768 0.920327 0.00653079 
179 1 1 -0.0343446 -0.0259183 0.0211018 0 0 0 0.00102702 0.0119755 0.00435943 0.00805976 -0.00268949 0.0275512 -0.358204 0.369102 0.0944869 0.00653079 
7 1 1 -0.019796 -0.0300902 0.0211775 0 0 0 -0.00153707 0.0107634 0.000145955 -0.0468824 -0.00357747 0.00611216 -0.633142 0.144912 -0.239785 0.0104493 
104 1 1 -0.00021104 -0.0284385 0.0247572 0 0 0 -3.87286e-05 0.00842002 0.0041864 -0.0150399 0.0367522 0.00849527 0.137636 -0.223293 -0.153796 0.0104493 
128 1 1 -0.044698 -0.0216396 0.0237958 0 0 0 -0.000745597 0.00632177 0.00218063 -0.023646 -0.0119154 0.00504649 0.140062 -0.413067 0.790318 0.00653079 
278 1 1 0.0326546 -0.0165265 0.0241467 0 0 0 0.00407026 0.00685708 0.00445018 0.0210135 0.0288957 0.0280106 -0.36128 1.2337 -1.02004 0.00653079 
146 1 1 -0.0444981 -0.00935954 0.0224298 0 0 0 -0.0036976 0.00695336 0.0113774 -0.0200916 -0.00776193 -0.00465917 1.88085 -1.52139 0.522566 0.00653079 
19 1 1 -0.0258858 -0.0118946 0.027756 0 0 0 0.00264484 0.0246546 0.00541364 -0.00721178 -0.103844 -0.0165074 1.18293 -1.17537 -0.392685 0.0104493 
258 1 1 0.0011811 -0.0123695 0.0273284 0 0 0 8.6358e-05 0.0105252 0.010085 -0.00594913 -0.00334851 0.0030698 0.0266636 -0.0446803 -0.0412476 0.00653079 
25 1 1 -0.0371401 0.00461732 0.0229362 0 0 0 -0.000576004 0.0126009 0.0097853 -0.138458 -0.274141 -0.440634 -0.517074 2.78183 -0.32652 0.0104493 
28 1 1 -0.0164217 0.0180583 0.0206116 0 0 0 0.00645435 0.0232927 0.0132438 -0.0136552 -0.0499555 -0.0681847 -0.30919 -0.386419 1.01459 0.0104493 
261 1 1 0.0429496 0.0170565 0.0272065 0 0 0 0.00440715 0.0146681 0.00875165 -0.0458827 0.0746158 -0.0017614 1.59428 -1.56487 2.55395 0.00653079 
246 1 1 -0.0439912 0.0259033 0.0275666 0 0 0 -0.00301964 0.0056516 -0.000488741 0.0243693 -0.00585666 0.000949294 2.05026 0.687032 0.955862 0.00653079 
320 1 1 0.00439232 0.0292312 0.0188603 0 0 0 0.0191039 0.00334108 0.022273 -0.0295891 -0.00517972 -0.0444881 4.41376 2.95465 1.34796 0.00653079 
23 1 1 -0.0279953 0.0329748 0.0217535 0 0 0 -0.00688214 0.0145224 -4.22224e-05 0.0644626 -0.121066 0.120968 -0.2879 -0.274752 1.24769 0.0104493 
61 1 1 0.0368802 0.0405858 0.0205743 0 0 0 -0.000737123 -0.000156124 0.00929948 0.0426067 0.0266363 0.0149965 -0.581116 0.238202 -0.332836 0.0104493 
224 1 1 -0.0437466 -0.0441945 0.0342001 0 0 0 0.000729191 -0.00032093 0.00202277 0.00584588 -0.0132933 0.016547 -0.121896 0.09676 -0.126665 0.00653079 
125 1 1 0.0437323 -0.0438655 0.0367922 0 0 0 -2.85116e-05 -0.00103871 0.00422804 -0.00557675 -0.00916203 0.0156285 0.233231 0.089232 -0.0163403 0.00653079 
42 1 1 -0.0119258 -0.0404187 0.0355971 0 0 0 -0.00242336 0.00471477 0.00274727 0.0162851 -0.028942 0.00634715 0.316419 -0.125705 -0.212733 0.0104493 
271 1 1 0.0312498 -0.0405492 0.0343737 0 0 0 -0.000639299 0.000527185 0.00338031 0.0107096 -0.0105205 -0.00667071 -0.134251 0.0293167 0.00944596 0.00653079 
51 1 1 0.01832 -0.02299 0.0301797 0 0 0 -0.00186396 0.007523 0.0102868 0.0121392 0.0395743 0.0923578 0.298185 -0.0599203 0.133308 0.0104493 
120 1 1 0.0406565 -0.0296191 0.0290932 0 0 0 -0.000129844 0.00242152 0.00111094 0.0245681 0.0210984 -0.031329 -0.0799382 0.100809 -0.0723239 0.0104493 
178 1 1 -0.0123972 -0.0205866 0.0320689 0 0 0 -0.00218923 0.0124724 0.00553165 0.00714898 0.00880609 0.0182902 0.847942 -0.614963 -0.362141 0.00653079 
134 1 1 0.0438592 -0.0144444 0.0327851 0 0 0 -0.00309668 0.00495041 0.00232335 0.00956166 -0.00623368 -0.0167386 0.422085 -0.0240228 0.262747 0.00653079 
310 1 1 -0.0102089 -0.00889459 0.030051 0 0 0 0.00416995 0.0136584 0.0194025 0.0298636 -0.0217864 -0.022926 1.70288 0.735928 -0.833833 0.00653079 
18 1 1 0.0122805 -0.00474256 0.0364334 0 0 0 0.00480653 0.0119911 0.00933735 -0.0108756 0.0463042 0.093591 -0.947873 0.189635 -0.987964 0.0104493 
184 1 1 0.0275788 -0.00836206 0.032895 0 0 0 0.00491436 0.00854148 0.00883479 0.0100867 -0.0101066 0.0241952 -0.89022 0.151024 2.23825 0.00653079 
160 1 1 -0.00237253 0.000577349 0.0309195 0 0 0 0.0102675 0.00831636 0.0134186 0.0208818 -0.0181304 0.00383059 -1.0251 1.37467 -0.243019 0.00653079 
55 1 1 0.0404267 0.00124757 0.0323927 0 0 0 0.00390955 0.0118904 0.00400304 0.0442847 0.00515452 0.0037463 -0.283371 -0.0986391 -1.25792 0.0104493 
112 1 1 -0.0175306 0.00459327 0.0352542 0 0 0 0.017205 0.0224668 0.0140034 0.0773649 -0.367874 -0.339737 -1.80856 -0.121297 -1.04629 0.0104493 
2 1 1 -0.031304 0.0193172 0.0354542 0 0 0 0.0136753 -0.00987281 -0.017203 0.07698 -1.47145 -0.82557 2.27978 1.0182 -0.342783 0.0104493 
100 1 1 0.00676366 0.0136788 0.029973 0 0 0 0.00292432 0.00470311 0.0147893 0.0722391 -0.0321155 0.0061633 0.843024 -1.49082 1.01869 0.0104493 
69 1 1 -0.00603056 0.029377 0.0341588 0 0 0 0.00763851 0.00880088 0.0435738 0.0501764 0.0382764 -0.129943 3.53085 1.53237 -1.61168 0.0104493 
108 1 1 0.0263183 0.028744 0.0327303 0 0 0 -0.00136887 0.0134823 0.0397349 0.00679787 -0.0858772 -0.0374681 -0.993396 2.66194 -1.99351 0.0104493 
16 1 1 0.0107766 0.0404927 0.02916 0 0 0 0.00413784 0.011013 0.0279056 -0.0568783 -0.185772 -0.154938 -2.68738 -1.27608 1.18756 0.0104493 
9 1 1 -0.040734 0.0413503 0.0322037 0 0 0 -0.00416966 0.00410519 0.00402509 0.0821174 -0.0119087 0.237766 -0.587054 0.864044 0.0245901 0.0104493 
323 1 1 -0.012821 0.0438858 0.0302486 0 0 0 0.0648304 0.00576545 -0.043267 -0.00665675 0.00581724 -0.00407869 6.99007 -67.829 10.2436 0.00653079 
329 1 1 -0.0238618 -0.0444531 0.0452821 0 0 0 -0.00888194 0.00246146 -0.000513064 -0.0242778 -0.0172467 0.0154588 -0.463067 -1.22172 1.032 0.00653079 
168 1 1 0.0018451 -0.04461 0.0400269 0 0 0 -0.00340872 -0.000304231 0.00477988 -0.00190184 -0.0214796 0.0115639 0.818619 -0.292317 0.293236 0.00653079 
283 1 1 0.0308382 -0.0442402 0.0459214 0 0 0 0.000266423 -0.00182367 0.00329628 0.0218685 -0.0405981 -0.00833198 0.392255 -0.0112905 0.192809 0.00653079 
211 1 1 -0.0436319 -0.0329781 0.0392052 0 0 0 0.00275214 0.00303914 0.00224843 0.00241966 -0.00848155 -0.00331663 0.422012 -0.298085 -0.27859 0.00653079 
191 1 1 0.00307604 -0.0321724 0.0406908 0 0 0 -0.00395254 0.00694889 0.00705449 -0.00729351 0.00389594 -0.00143986 -0.672701 -0.0925018 -0.636496 0.00653079 
3 1 1 0.0166522 -0.0406129 0.0394317 0 0 0 -0.00311291 0.000675735 0.00534259 -0.0204679 -0.0425265 -0.0338044 0.456851 0.162217 0.0250753 0.0104493 
93 1 1 -0.0267841 -0.0291608 0.042203 0 0 0 -0.00150899 0.0138703 0.00337351 -0.00253046 0.0775513 -0.00931775 1.11893 -0.542105 -0.92512 0.0104493 
105 1 1 0.0301752 -0.0279873 0.0464956 0 0 0 2.84545e-05 0.00139815 0.00969098 0.0348504 -0.0331252 -0.0175376 0.347237 0.289276 -0.0579658 0.0104493 
66 1 1 -0.0412097 -0.0169088 0.0389322 0 0 0 -0.00325848 0.0145277 0.00358263 -0.0542777 -0.0304319 0.0858491 -0.214867 0.127679 1.16486 0.0104493 
336 1 1 -0.0226748 -0.0128553 0.0443642 0 0 0 -0.0582792 0.0243929 0.0288221 0.0152982 0.0298506 0.0144917 0.254866 -8.52211 9.25435 0.00653079 
245 1 1 -0.000141352 -0.01199 0.0426731 0 0 0 -0.00337121 0.022695 0.0164129 0.0115785 0.00962991 0.00541853 4.41335 2.39526 -1.92107 0.00653079 
259 1 1 0.023973 -0.0133898 0.0437289 0 0 0 0.00478234 0.00618583 0.0141044 0.00684529 0.00610424 0.06699 0.436105 -0.281942 -0.410282 0.00653079 
107 1 1 -0.0378386 0.00200847 0.0432595 0 0 0 0.00804938 0.0148004 0.0076641 -0.164328 -0.259745 -0.175126 -0.677143 -1.16756 -2.09719 0.0104493 
95 1 1 0.0238724 0.0107977 0.0391558 0 0 0 0.00112676 0.00753797 0.0223655 0.0592099 -0.00783955 0.00291373 3.22129 0.151242 1.1655 0.0104493 
208 1 1 -0.0442797 0.0167121 0.0448715 0 0 0 3.51397e-06 0.00246224 -0.0118447 -0.127752 -0.130171 -0.179866 -7.14787 1.37226 4.35219 0.00653079 
282 1 1 -0.0178648 0.0181748 0.0442054 0 0 0 0.0119983 -0.0374688 0.0340253 0.0836219 -0.531582 0.261016 13.1735 -3.24534 8.91155 0.00653079 
58 1 1 0.0407696 0.0198351 0.0435079 0 0 0 0.00190882 0.00398853 0.0197372 0.0724471 -0.11053 0.0789549 -0.334678 1.06024 -0.549097 0.0104493 
199 1 1 -0.0442793 0.0283248 0.0408261 0 0 0 -0.0435958 -0.0408314 -0.0195817 -0.294539 -0.380415 -0.185465 13.5766 -6.88364 -5.77883 0.00653079 
73 1 1 0.011076 0.0279737 0.0457767 0 0 0 -0.00418447 0.00505219 0.0513994 0.0705144 -0.15599 -0.0637685 0.0553647 -4.19866 4.03887 0.0104493 
114 1 1 0.0400566 0.0404676 0.0405835 0 0 0 0.0131548 0.00415962 0.00834469 -0.145194 0.0879562 0.0502502 -0.341045 1.18204 0.5811 0.0104493 
126 1 1 -0.0110818 0.0440044 0.0465102 0 0 0 -0.0217989 -0.00186879 0.00723654 0.0740523 0.0343648 0.0620041 -2.97893 -24.7175 -3.74844 0.00653079 
248 1 1 0.000421713 0.0428235 0.0418737 0 0 0 0.0139228 -0.00668495 0.0755795 0.0300501 -0.00505439 0.00489067 3.28617 10.2519 5.74034 0.00653079 
229 1 1 0.0125351 0.0441752 0.0454526 0 0 0 -0.0103294 0.00725005 0.0277844 -0.0210854 0.130382 -0.0389635 -4.74543 -4.04854 -3.2866 0.00653079 
314 1 1 -0.0172848 -0.0442015 0.0556316 0 0 0 -0.00475827 0.00371342 0.00656753 0.00932394 -0.00812916 -0.00891124 1.09138 1.23856 -0.317095 0.00653079 
265 1 1 0.0219022 -0.0435264 0.0551252 0 0 0 -0.000602631 -3.93314e-05 0.00539 0.0115969 0.00804569 -0.00522404 -0.133131 0.033581 -0.85433 0.00653079 
84 1 1 -0.040797 -0.0327639 0.0552846 0 0 0 -0.00278862 0.00680111 0.00339771 -0.00667044 0.0405051 0.0146605 -0.763564 -0.221506 0.997071 0.0104493 
337 1 1 -0.00591571 -0.0403546 0.0515253 0 0 0 -0.00799426 0.00495197 -0.00209749 -0.000525455 -0.00217402 -0.0228948 1.18636 0.729273 -0.836775 0.00653079 
43 1 1 -0.00864113 -0.0242132 0.0477795 0 0 0 -0.00339164 0.0122965 0.0079151 0.0309232 0.0939764 0.0539361 -0.171034 0.233887 0.542877 0.0104493 
326 1 1 0.0443856 -0.0254253 0.0532708 0 0 0 0.00414543 0.000422433 0.00459537 0.0336501 -0.00420774 0.00731509 -0.194525 0.62524 -0.198345 0.00653079 
52 1 1 0.0113824 -0.022249 0.0505283 0 0 0 -0.00268583 0.0106206 0.00886359 0.0549635 0.00504965 0.0273652 -0.203095 -0.553127 -0.661086 0.0104493 
332 1 1 0.026554 -0.0154115 0.0560802 0 0 0 0.00304449 -0.000446331 0.0190501 0.0152687 0.00225819 0.0455135 0.25863 -0.16051 0.263802 0.00653079 
220 1 1 -0.0435009 -0.00971725 0.0540419 0 0 0 -0.00950514 0.0172157 0.00670485 -0.0158223 0.00939042 0.0264434 0.582009 -0.35562 2.32967 0.00653079 
240 1 1 0.017078 -0.00767017 0.0549407 0 0 0 0.00726858 0.000656986 0.0322724 0.0363024 0.00414383 0.0369523 3.58776 0.0163449 -0.98346 0.00653079 
5 1 1 0.0402231 -0.0107856 0.0486411 0 0 0 0.00266576 0.00310962 0.00954729 0.0301102 -0.0197064 0.0202088 0.366739 1.08406 -0.167496 0.0104493 
133 1 1 -0.0269778 -0.00269606 0.0558428 0 0 0 -0.0572722 -3.279e-05 -0.0220259 -0.0431535 0.0679878 -0.00620743 -12.9852 17.9716 3.16077 0.00653079 
24 1 1 -0.00998792 -0.00371222 0.0525658 0 0 0 -0.00276901 0.0116707 0.0386421 0.0976735 0.0360863 0.123372 0.0425476 -0.802134 0.880373 0.0104493 
303 1 1 0.0267317 -0.00178626 0.0489136 0 0 0 0.00766332 0.00387947 0.0184367 0.0180377 0.0202523 0.00729911 -3.87686 1.41813 -0.37054 0.00653079 
236 1 1 -0.0231907 0.00810969 0.0504444 0 0 0 -0.0238458 0.0122324 -0.00889562 -0.216248 0.016425 -0.320592 11.2104 -12.6329 -14.7611 0.00653079 
15 1 1 0.0136539 0.00792726 0.0561144 0 0 0 0.00829599 -0.00667444 0.0236317 0.0683568 0.0976004 0.0670928 -2.8371 0.595908 1.21757 0.0104493 
318 1 1 0.0441041 0.00471312 0.0484268 0 0 0 0.00414917 0.00186564 0.0143454 0.00877299 -0.000860229 -0.0152846 1.43145 1.61644 0.0379519 0.00653079 
335 1 1 -0.0339909 0.0154947 0.0524921 0 0 0 0.0189435 0.0194181 0.0135754 0.0805419 0.176972 0.0692614 -0.967434 -4.31644 -4.01942 0.00653079 
4 1 1 -0.00322534 0.0144733 0.0481035 0 0 0 0.000869914 -0.00954959 0.0256877 0.0861778 -0.105645 0.0180958 -1.01246 1.28159 -2.04703 0.0104493 
298 1 1 0.0296889 0.0137059 0.0547836 0 0 0 0.0194808 0.00504755 0.0333946 0.0279082 0.028583 0.0413665 -5.35165 1.64313 -1.59443 0.00653079 
262 1 1 -0.0368564 0.0278075 0.0507641 0 0 0 -0.0112114 0.0054497 -0.286099 -0.334685 -0.163361 -1.53971 -60.3598 54.3061 8.08874 0.00653079 
192 1 1 -0.0248543 0.026873 0.0481865 0 0 0 0.0184001 -0.0318503 -0.384182 0.229838 -0.0435101 -1.82834 -82.7194 -29.7133 -15.1841 0.00653079 
122 1 1 -0.0274952 0.0404054 0.0558588 0 0 0 0.121786 0.0879171 -1.05944 -1.02294 2.18075 3.41725 32.8059 19.0459 3.50715 0.0104493 
292 1 1 -0.0138938 0.0321649 0.0488827 0 0 0 -0.00651457 -0.012732 -0.0823745 0.374114 -0.220868 -0.917396 9.0784 -19.529 11.1883 0.00653079 
47 1 1 0.0242873 0.039791 0.0561934 0 0 0 -0.00854842 0.0199916 0.0163073 0.181327 -0.0523425 -0.197154 -3.65509 5.64203 -2.7944 0.0104493 
327 1 1 -0.0434981 0.0435109 0.0487507 0 0 0 -0.00419393 0.00370795 0.00288657 -0.0499713 0.0279232 -0.0208518 -0.447885 -2.53365 0.392693 0.00653079 
190 1 1 -0.00825357 -0.0438595 0.0642963 0 0 0 -0.00274835 -0.00467998 0.000405588 0.00464488 -0.00158662 -0.00188682 -0.0391334 0.696155 -0.214969 0.00653079 
307 1 1 -0.0194043 -0.0321207 0.0569099 0 0 0 -0.00187777 0.00680959 0.0127064 0.00334687 0.00671756 0.00922673 -1.53778 0.293538 0.9905 0.00653079 
56 1 1 0.00712783 -0.0390087 0.0617181 0 0 0 -0.00942659 -9.42572e-05 0.00190291 0.0400245 -0.0892068 -0.0702522 1.26151 -0.484567 0.912022 0.0104493 
49 1 1 0.0404453 -0.0405386 0.0579764 0 0 0 0.00144602 -0.000973952 0.00459243 0.0301789 -0.0228844 -0.00968435 0.146011 0.191941 -0.0597514 0.0104493 
137 1 1 -0.00216804 -0.0227537 0.0631243 0 0 0 -0.010073 0.0176013 0.025076 -0.0134993 -0.0167356 0.00949331 0.0246483 -1.36047 0.929481 0.00653079 
81 1 1 -0.0215006 -0.0169282 0.0619259 0 0 0 -0.00659962 0.00532558 0.0154278 -0.0448863 0.172325 0.0435822 1.8961 -0.90248 -0.644085 0.0104493 
217 1 1 0.0441116 -0.0149066 0.0641403 0 0 0 0.00482222 -0.0122041 0.000391976 0.0335049 0.00231419 0.020262 2.52193 -0.729651 0.341929 0.00653079 
32 1 1 -0.0397849 0.00434336 0.063476 0 0 0 -0.00227642 0.020288 0.0123248 -0.128606 -0.0266455 0.0668424 0.628064 0.0382693 1.2783 0.0104493 
148 1 1 0.0440839 -0.00243962 0.0635184 0 0 0 0.00417395 -0.014701 0.012282 0.00350498 0.0162037 -0.00300027 -0.391681 2.18288 2.2544 0.00653079 
291 1 1 0.0435468 0.0125643 0.0584288 0 0 0 0.00872202 -0.00478381 0.0260087 0.0313912 -0.0247279 0.0546169 0.0606973 1.53385 2.1176 0.00653079 
117 1 1 -0.0209714 0.0193783 0.0625005 0 0 0 -0.00352564 0.0303993 0.0282684 -0.27118 1.39748 -0.470682 -0.645355 3.5267 0.742447 0.0104493 
140 1 1 0.00926099 0.0204754 0.0650933 0 0 0 0.0165566 0.0164596 -0.00635038 -0.0556523 -0.0874019 -0.0697956 -4.11864 5.07473 0.602738 0.00653079 
99 1 1 -0.00353804 0.0297891 0.0613659 0 0 0 0.00899361 0.00974744 -0.0080308 -0.23309 0.0921697 0.13517 -1.92286 -0.185584 -1.36523 0.0104493 
266 1 1 0.0213023 0.0230214 0.0582939 0 0 0 0.0666245 0.0162523 0.0790014 -0.00635063 0.0141512 0.0476759 1.36177 13.6479 -1.10786 0.00653079 
106 1 1 0.0399523 0.0283366 0.0622976 0 0 0 -0.00602464 0.012593 0.00874058 0.113924 0.0782488 0.0225552 -2.53863 0.28391 -0.223871 0.0104493 
174 1 1 -0.0435036 0.041981 0.0616808 0 0 0 0.0174652 0.0185814 -0.0305737 0.0941224 -0.0410307 0.0193221 -0.422386 8.21811 2.04074 0.00653079 
315 1 1 -0.0120559 0.0438776 0.0624024 0 0 0 0.0126244 0.00615176 -0.0268274 -0.0242474 0.0212302 0.0214651 4.1984 -6.39948 2.1437 0.00653079 
158 1 1 0.0025329 0.0443847 0.0631308 0 0 0 0.0344974 0.00493468 -0.0670897 0.00708755 0.019867 -0.0564208 12.2818 52.449 5.19174 0.00653079 
203 1 1 0.0417911 0.0438591 0.0568313 0 0 0 -0.00141072 0.00361441 -0.00079018 0.0318654 0.0138397 -0.0524866 0.869096 -5.04903 0.122982 0.00653079 
189 1 1 0.0267313 -0.0438025 0.0671017 0 0 0 -0.0057409 -0.00401561 0.0070544 0.00787196 -0.0173983 0.0127941 0.469016 -0.401876 0.900938 0.00653079 
186 1 1 0.0436637 -0.0439665 0.0736704 0 0 0 0.000466784 -0.00251917 0.00277806 -0.00230704 -0.00410564 -0.0107302 0.16156 -0.266216 -0.0155964 0.00653079 
6 1 1 -0.0271538 -0.0404218 0.0682666 0 0 0 -0.00043777 -0.000244004 0.0175778 0.0443062 0.0197347 0.0196442 1.58382 -0.396469 -0.367063 0.0104493 
313 1 1 -0.0120707 -0.0309922 0.0676162 0 0 0 0.0890983 -0.0429817 -0.0294632 0.0190481 0.0224024 0.000320143 8.86403 15.1804 -3.18921 0.00653079 
227 1 1 0.00761145 -0.025206 0.0714062 0 0 0 -0.0131158 0.0179149 0.0253489 -0.00501062 -0.0160217 0.00694587 -1.46014 1.98382 -1.49514 0.00653079 
91 1 1 0.0233405 -0.0275858 0.0661771 0 0 0 -0.00750123 -0.0041599 0.016016 0.0690591 0.000999675 -0.00189838 0.568277 -0.153604 -1.11241 0.0104493 
247 1 1 0.0396247 -0.025994 0.0680587 0 0 0 -0.00322523 -0.0147911 0.00418839 0.00389946 0.0111178 0.00105218 -3.48883 1.00557 -0.533561 0.00653079 
36 1 1 -0.0403353 -0.0173834 0.0687755 0 0 0 -0.0114875 -0.000408752 0.00173795 -0.105594 0.0784786 0.0116118 1.39579 -0.366957 -0.402332 0.0104493 
215 1 1 0.0329437 -0.0149883 0.0702683 0 0 0 0.0123212 -0.0124436 0.0173518 -0.0251934 0.00550084 0.00963688 -0.313772 3.54137 -0.610954 0.00653079 
182 1 1 -0.0294889 -0.00460311 0.0731489 0 0 0 0.0161523 0.0841026 0.0289336 -0.00870493 -0.0304509 0.0165067 6.27734 -13.0216 18.5807 0.00653079 
10 1 1 0.00494116 -0.00784261 0.0659831 0 0 0 9.86318e-05 0.00558409 0.0432682 0.0473402 -0.0165168 0.0799741 0.463141 0.186376 -2.42149 0.0104493 
276 1 1 0.0198332 -0.0124903 0.0715905 0 0 0 0.00254244 -0.00716155 0.0260755 -0.000465482 0.00439982 0.0205097 -0.302022 3.20739 1.61514 0.00653079 
197 1 1 -0.0186624 0.00176077 0.0657225 0 0 0 -0.00917551 0.0616292 0.0195819 0.0461028 -0.0253438 0.00213211 3.97187 -7.84882 -21.9364 0.00653079 
87 1 1 0.0287262 0.000695469 0.0670568 0 0 0 0.0130053 -0.00890562 0.0246554 0.0916763 0.162024 0.0327617 1.63243 -0.285697 -2.72663 0.0104493 
115 1 1 -0.00357167 0.0104403 0.0682611 0 0 0 0.0162161 0.0198317 0.0371717 -0.11855 -0.0423634 -0.157024 -1.85716 -0.00698133 -0.312961 0.0104493 
338 1 1 0.0422575 0.00883729 0.0712636 0 0 0 0.0342409 -0.0249981 0.0166198 0.0743202 0.0587166 -0.084402 -8.02823 -0.7744 -0.363142 0.00653079 
45 1 1 0.0261553 0.0195553 0.0746044 0 0 0 -0.0238319 0.0071106 0.0128794 0.500798 0.335028 0.189991 -2.76439 -5.54875 5.81158 0.0104493 
39 1 1 -0.0403736 0.0234147 0.0660435 0 0 0 0.0127824 0.0195411 0.0124809 0.995145 1.4166 -0.246114 0.712651 -4.03625 0.307922 0.0104493 
124 1 1 0.0435284 0.0435063 0.0695635 0 0 0 -0.017597 -0.0102906 0.00218832 0.0367154 -0.037985 -0.108976 0.972476 3.08301 -0.0294007 0.00653079 
252 1 1 -0.0391636 -0.0440118 0.0794852 0 0 0 0.00526372 -0.00362911 0.0284496 -0.0072415 -0.0192762 0.00625504 3.681 4.30956 -1.28648 0.00653079 
213 1 1 0.0323963 -0.0439695 0.0810255 0 0 0 -0.00440632 -0.000993526 0.00688341 0.00239435 -0.0132778 0.00785813 1.41636 0.611937 0.735664 0.00653079 
230 1 1 -0.039796 -0.0322027 0.075692 0 0 0 -0.00709584 -0.00174808 0.0205277 0.00351948 -0.0118617 -0.0116263 -5.01524 0.932882 1.02053 0.00653079 
109 1 1 0.0165012 -0.0401498 0.0799312 0 0 0 -0.0117934 -0.00886719 0.0111404 -0.0582357 0.00762645 0.0383872 0.691983 -0.0493342 0.79439 0.0104493 
165 1 1 0.0437263 -0.0321728 0.0782085 0 0 0 -0.000117379 -0.00283307 0.00770948 0.0109218 0.00483917 -0.0356287 0.665119 0.129336 0.116199 0.00653079 
75 1 1 -0.0256821 -0.0243749 0.0807043 0 0 0 -0.023877 0.0163705 0.0153574 -0.0835972 -0.0518232 0.0816184 -3.30092 -1.28272 1.59261 0.0104493 
143 1 1 0.0307032 -0.0314206 0.0806962 0 0 0 -0.00825703 -0.00359482 0.0129075 0.0121203 -0.00552369 -0.00602526 -1.17648 0.54664 -0.386608 0.00653079 
26 1 1 -0.00608347 -0.0193945 0.0791066 0 0 0 -0.030909 0.0315472 0.0279595 -0.0278623 -0.0943006 0.132378 -0.420861 -2.20687 1.21134 0.0104493 
209 1 1 0.00951489 -0.0142942 0.0804095 0 0 0 -0.0197076 0.010467 0.0488469 0.0175696 0.0173129 0.0160884 -4.6723 0.127411 -6.02083 0.00653079 
169 1 1 0.0436424 -0.018968 0.0780608 0 0 0 -0.00913978 -0.0445691 0.0352217 0.0149394 0.045031 -0.000374594 14.2336 4.51815 8.02758 0.00653079 
204 1 1 -0.0169669 -0.00718951 0.0750504 0 0 0 0.0105752 0.08605 0.0181051 0.0125079 -0.0128512 0.0670653 -9.01934 15.6248 -17.3449 0.00653079 
325 1 1 0.0367302 -0.00845931 0.0805958 0 0 0 0.0118248 0.000201672 0.0354659 0.193129 -0.15655 0.0446816 -6.06715 -17.5406 -17.3965 0.00653079 
306 1 1 -0.0439201 -0.00393919 0.0773479 0 0 0 0.00297102 0.00175559 0.0132703 -0.0260935 -0.0791541 0.0169365 0.57699 0.835242 -2.96854 0.00653079 