ITEM: TIMESTEP
31500
ITEM: NUMBER OF ATOMS
338
ITEM: BOX BOUNDS mm mm mm
-0.05 0.05
-0.05 0.05
0 0.15
ITEM: ATOMS id type type x y z ix iy iz vx vy vz fx fy fz omegax omegay omegaz radius 
319 1 1 -0.0146798 -0.0441309 0.00603928 0 0 0 0.00590541 -0.00343801 0.000392199 -0.0111224 -0.00021539 -0.000346686 -0.0101189 0.146885 -1.8264 0.00615085 
243 1 1 -0.00284994 -0.0433898 0.00599338 0 0 0 0.00160048 0.000500623 0.00387318 -0.00908027 0.0166666 0.00457829 0.239778 -0.603309 3.1156 0.00615085 
260 1 1 0.0256333 -0.0437204 0.00606732 0 0 0 -0.00912493 0.00774968 5.8631e-05 0.00515895 -0.00387491 -0.000296676 -1.09082 -0.942495 -2.18551 0.00615085 
131 1 1 -0.0257383 -0.0395842 0.00583797 0 0 0 0.00627061 0.00292418 0.00040997 -0.0115235 -0.0048604 -0.000311476 -0.726311 0.565494 0.705296 0.00615085 
173 1 1 -0.0152908 -0.0320427 0.0058625 0 0 0 -0.00323444 0.000607109 -0.00302543 0.00545119 0.0056216 -0.000401054 -0.117664 -0.577769 3.80995 0.00615085 
78 1 1 0.04087 -0.0406159 0.00930126 0 0 0 0.000576625 -0.000702765 0.000252188 0.00955743 -0.0108889 -0.0149006 0.103021 0.137068 0.0305116 0.00984137 
296 1 1 -0.0276909 -0.0276272 0.00611457 0 0 0 0.0101091 0.00582973 0.00468527 0.00090005 0.000333888 -0.0017228 1.41526 0.263704 -1.20936 0.00615085 
275 1 1 -0.00359324 -0.0296612 0.00591407 0 0 0 -0.00170715 0.020803 -0.00356495 0.00201108 -0.00281353 -0.00202849 -3.80628 -0.0726854 -0.76463 0.00615085 
144 1 1 0.0422039 -0.0251588 0.00608487 0 0 0 0.000836253 0.00319304 -0.00242425 -0.00639465 0.000738817 0.00119392 -0.705778 0.180886 -0.260566 0.00615085 
102 1 1 -0.0404628 -0.0174284 0.00902905 0 0 0 -6.28681e-05 0.00378849 -0.000438618 -0.0106205 0.0114507 0.00372997 -0.381021 0.0363324 -0.335366 0.00984137 
328 1 1 -0.0254439 -0.0157918 0.00582741 0 0 0 -0.00279297 0.0138769 -0.00135153 -0.00689481 0.00352406 0.00747144 -2.32038 -0.366432 3.83174 0.00615085 
267 1 1 0.015113 -0.0203919 0.00602847 0 0 0 0.0101189 0.0184976 0.00155557 0.00879014 -0.0109462 -0.00591838 -2.96433 1.60321 -0.198864 0.00615085 
274 1 1 -0.0216653 -0.00453625 0.00681074 0 0 0 -0.0820258 0.0266194 0.134818 0.00800486 -0.000302436 0.0902897 26.3587 1.03243 8.92301 0.00615085 
202 1 1 0.0444325 -0.0132364 0.00632833 0 0 0 0.00564667 0.00243217 -0.00295396 -0.00202295 0.00446183 -0.0121985 0.954388 -0.30063 -0.305967 0.00615085 
257 1 1 -0.0430195 -0.00190442 0.00612908 0 0 0 -0.0646463 0.00944383 0.00391663 -0.000145388 0.000141748 0.00335883 -1.72958 -10.5047 12.8127 0.00615085 
268 1 1 -0.0320965 0.00386765 0.00612681 0 0 0 0.00544361 -0.052684 -0.001778 -0.0442201 0.00944042 0.0284203 9.84066 0.105341 -29.3343 0.00615085 
164 1 1 0.0203024 0.00150036 0.00583361 0 0 0 0.00213212 0.000935672 0.00104451 -0.00296824 -0.00544744 0.000634454 -0.616313 0.331682 1.6209 0.00615085 
232 1 1 -0.04225 0.0110391 0.00613166 0 0 0 -0.171277 -0.240894 0.00306612 -7.26257e-05 -9.55119e-05 -0.000923485 39.2126 -27.8868 -82.3383 0.00615085 
171 1 1 -0.0203155 0.00730082 0.00676782 0 0 0 -0.0653141 0.0234183 0.128999 -0.0255847 0.03753 0.0742618 -25.379 13.0913 -9.04222 0.00615085 
297 1 1 -0.0243884 0.0186492 0.00600603 0 0 0 -0.00772704 0.0140914 0.00504187 -0.0464027 0.0187102 -0.0127295 -2.71001 3.94035 -2.10564 0.00615085 
222 1 1 -0.010512 0.014235 0.0057554 0 0 0 -0.0219202 -0.0125347 -0.00831587 -0.0151347 -0.0244183 0.00430165 1.12755 -4.04223 11.8646 0.00615085 
290 1 1 -0.000552116 0.020927 0.00564584 0 0 0 -0.00839764 0.0148299 -0.00168524 -0.0116481 -0.00554746 0.00557917 -2.24187 0.420885 -6.71703 0.00615085 
316 1 1 0.0324384 0.0193352 0.00579979 0 0 0 -0.0114817 0.00624894 -0.00782888 -0.00625618 0.00148451 0.00410056 -0.258143 -0.856678 1.67602 0.00615085 
162 1 1 0.0442737 0.0195927 0.00593407 0 0 0 -0.00173985 0.0130628 -0.00358266 -0.00580155 0.00210776 7.80167e-05 -1.46604 -0.332093 -1.5459 0.00615085 
294 1 1 -0.0439217 0.0273041 0.00607493 0 0 0 4.1902e-05 -0.109584 -0.00448159 0.00941529 0.000647844 0.00744807 17.3742 0.654037 -18.4028 0.00615085 
175 1 1 -0.0324767 0.0315489 0.00610332 0 0 0 -0.0318794 -0.0156147 0.0123778 0.0297675 0.00608224 -0.0129668 3.30551 -4.14431 34.6015 0.00615085 
255 1 1 -0.014643 0.0256355 0.00603574 0 0 0 -0.0129004 0.00670555 0.000948387 7.62366e-05 -0.0146828 0.000566712 -0.0365001 -3.55457 3.80695 0.00615085 
155 1 1 0.037534 0.0302835 0.00591958 0 0 0 -0.00737325 -0.00239387 0.000541192 -0.00965578 0.000199177 0.00797932 1.03926 -1.42872 -3.12917 0.00615085 
324 1 1 -0.00343681 0.032094 0.00590496 0 0 0 -0.0152954 0.01428 0.000362661 0.00954256 0.00345144 -0.00262683 0.695419 5.20127 7.29823 0.00615085 
161 1 1 0.0084481 0.03224 0.00613197 0 0 0 -0.0165962 0.0156158 0.00700848 0.00683597 0.000114882 0.0112181 -3.72943 -6.23583 -6.16869 0.00615085 
321 1 1 -0.0440366 0.0439616 0.00600014 0 0 0 0.00140327 -0.0022448 -0.00101473 -0.000427715 0.00196792 0.00311407 0.419561 0.346656 -0.123321 0.00615085 
207 1 1 -0.0317173 0.0438016 0.00613903 0 0 0 0.0286818 -0.00805587 -0.00533003 -0.0164603 0.0138617 -0.000970561 4.19381 0.818311 -5.18166 0.00615085 
149 1 1 0.0110841 0.043962 0.00585689 0 0 0 0.0098905 0.00278618 -0.00423026 -0.000786248 0.000390376 0.00606644 0.299404 1.46794 1.38751 0.00615085 
249 1 1 0.027883 0.0439663 0.00607046 0 0 0 -0.0132079 0.00194056 0.00709506 -0.00261873 -4.53011e-05 0.00116221 -1.21805 -1.95697 -2.32285 0.00615085 
289 1 1 0.0440102 0.0419441 0.00603837 0 0 0 -0.00255637 0.00451728 -0.0068147 0.000698887 -0.00343157 0.00513315 -0.629249 -1.06118 -0.730865 0.00615085 
299 1 1 -0.0242974 -0.0444568 0.0165889 0 0 0 -7.18164e-05 -0.000539471 0.00580252 0.000744357 0.00255035 -0.00828102 0.977182 -2.20835 -0.10187 0.00615085 
225 1 1 -0.0119164 -0.0439337 0.018002 0 0 0 -0.00121779 0.00194694 0.0117244 0.00605996 0.00552524 -0.00568136 1.88836 -4.26791 -0.660695 0.00615085 
242 1 1 0.000234316 -0.0441375 0.0183576 0 0 0 -0.00316885 0.00298387 0.0200293 0.00590175 0.00300414 0.0084577 3.35096 3.13117 0.974289 0.00615085 
130 1 1 0.0209049 -0.0440238 0.0173252 0 0 0 -0.00462604 0.00244131 0.00976222 0.00334222 -0.00200123 -0.000979875 1.98794 2.13922 0.434584 0.00615085 
74 1 1 -0.0405111 -0.0362569 0.0095538 0 0 0 0.000140065 -0.00115968 0.000609731 0.00882807 0.00519461 -0.00190267 0.226914 -0.1853 0.251451 0.00984137 
60 1 1 0.0101721 -0.0357231 0.00967219 0 0 0 -0.0043879 0.0121742 0.0121535 0.022255 -0.00484728 -0.0115599 -0.922225 -0.592979 -1.08494 0.00984137 
67 1 1 0.0272272 -0.0280813 0.012515 0 0 0 0.00408691 0.00208506 0.0130822 0.0463388 -0.024795 -0.038258 0.830698 0.828307 -0.504174 0.00984137 
40 1 1 -0.0107042 -0.0164441 0.0107884 0 0 0 -9.81398e-05 0.0248246 0.00527384 0.00437693 -0.0171399 -0.0347296 3.85439 -0.477254 -0.340996 0.00984137 
279 1 1 0.0041755 -0.0211064 0.0108872 0 0 0 0.00596954 0.0215571 0.00568816 -0.00514722 -0.0365569 -0.0283427 1.05107 -1.19123 0.0235917 0.00615085 
96 1 1 0.011433 -0.00777229 0.0153118 0 0 0 0.0109997 0.01653 0.0165632 0.0333621 -0.115963 -0.00897926 -0.348324 -0.341951 -0.387353 0.00984137 
50 1 1 0.0299635 -0.00957127 0.00971723 0 0 0 0.00969329 0.00575241 0.0057097 0.00263302 -0.000675 -0.0374405 -1.09185 1.19834 -0.317166 0.00984137 
183 1 1 0.0439239 -0.00716767 0.016993 0 0 0 0.00700813 0.0102736 0.00104565 -0.00667614 -0.00867 -0.0170949 -1.4769 -0.550562 -1.15188 0.00615085 
17 1 1 -0.00536843 0.00184742 0.0137613 0 0 0 0.0167436 0.018618 0.012981 0.0740826 -0.0642998 -0.0721688 -2.71073 1.73491 -1.12359 0.00984137 
94 1 1 0.0381946 0.00730698 0.0135581 0 0 0 0.00105418 0.0168593 -0.00914431 -0.0247182 0.00238255 0.00168041 0.226558 -0.486752 1.82621 0.00984137 
300 1 1 -0.0440545 0.0192527 0.0163249 0 0 0 0.00399157 -0.0165114 0.00287573 0.000601092 -0.00185381 0.0239544 -35.8047 -0.585412 -2.7565 0.00615085 
273 1 1 -0.0320818 0.0184202 0.0153345 0 0 0 0.0135899 -0.00339634 0.0219175 -0.00280532 0.0138461 0.00584288 0.828972 0.01127 8.06911 0.00615085 
286 1 1 -0.00115587 0.0167527 0.016611 0 0 0 -0.0222913 0.0135369 -0.00384907 -0.0107206 2.10446e-05 0.00115239 2.29121 -4.22206 7.46254 0.00615085 
98 1 1 0.012535 0.0139872 0.00964582 0 0 0 -0.0157075 -0.0123106 0.00517329 -0.0440462 -0.0333084 0.0153625 1.52319 -1.41033 0.676344 0.00984137 
320 1 1 0.00558627 0.0268198 0.016467 0 0 0 -0.00731223 -0.00245643 0.0109188 0.00138913 -0.0246546 0.00326367 11.2635 16.8914 -9.82264 0.00615085 
77 1 1 0.0229173 0.0299332 0.0115344 0 0 0 -0.016833 -0.00283503 0.0183613 -0.030122 0.00457484 0.0361102 1.00925 2.90987 0.782892 0.00984137 
284 1 1 0.0442136 0.02744 0.0153889 0 0 0 -0.00204817 -0.00201871 0.00837953 -0.00372982 0.00115817 0.00966548 -4.65953 1.791 -0.000449778 0.00615085 
305 1 1 -0.0416014 0.0364126 0.0150869 0 0 0 -0.0351298 -0.0215651 0.000552151 0.02016 0.00130233 -0.00732116 4.71303 -14.5832 7.12084 0.00615085 
38 1 1 -0.0153516 0.0409033 0.00949136 0 0 0 -0.0279592 0.00607678 -4.88476e-05 0.0731135 0.00196669 0.0169395 -0.260089 -3.50772 -2.93726 0.00984137 
237 1 1 0.000258825 0.0438231 0.0116578 0 0 0 -0.0101413 -0.0100816 -0.047217 -0.0141664 -0.000498775 -0.00386188 -2.70487 1.22887 2.46448 0.00615085 
239 1 1 0.0191048 0.044404 0.0146502 0 0 0 -0.0129982 0.00305854 0.0145477 0.00421974 0.00754216 0.0111153 -1.95813 -6.70569 -2.45791 0.00615085 
331 1 1 -0.042689 -0.0447487 0.0217009 0 0 0 -0.00133692 -0.00235907 0.000751739 0.00553764 0.00465311 0.00196519 -0.397466 -0.222556 -0.0225948 0.00615085 
167 1 1 0.03193 -0.0440867 0.0219462 0 0 0 -0.00113217 -0.00130224 0.000318025 0.0069455 0.00314043 -0.00274439 0.141693 -0.634767 0.0242307 0.00615085 
136 1 1 0.0438758 -0.0443597 0.0239309 0 0 0 0.003445 -0.00272843 0.000739163 -0.0087375 8.61399e-05 -0.00542208 -0.376937 0.291071 -0.250294 0.00615085 
180 1 1 -0.0439125 -0.0336967 0.0262304 0 0 0 0.00374079 0.00367505 0.00314304 0.00694052 0.00956415 0.012002 1.25388 0.337303 -0.782509 0.00615085 
256 1 1 -0.0322684 -0.0392522 0.0246089 0 0 0 0.00152434 -0.00389825 0.0080893 0.00928412 -0.00177852 -0.0129698 4.15895 1.14916 0.7004 0.00615085 
179 1 1 -0.0342032 -0.0263246 0.0200804 0 0 0 -0.00231312 0.00714273 0.00741122 -0.00491187 0.00890489 0.00426113 -1.47736 1.26464 -1.10776 0.00615085 
7 1 1 -0.0197097 -0.0304255 0.020712 0 0 0 -0.00343821 0.00913865 -0.00227287 0.0190029 0.0158608 -0.0364511 -1.88381 0.723428 0.545748 0.00984137 
104 1 1 -0.000749043 -0.0286434 0.0239337 0 0 0 0.00426433 0.0288533 0.0199224 0.00168884 0.0104947 -0.0391637 0.160378 -0.587449 1.55223 0.00984137 
128 1 1 -0.0444376 -0.0219951 0.0233234 0 0 0 -0.00245787 0.0113535 0.0059062 -0.00648699 0.00731398 0.00975918 -1.39085 -0.653512 1.69253 0.00615085 
278 1 1 0.0327734 -0.0174255 0.0229688 0 0 0 -0.00653145 -8.94959e-05 0.0206202 0.0137165 -0.00818244 -0.024771 1.06201 -5.98189 1.15157 0.00615085 
146 1 1 -0.0444019 -0.00908252 0.0211478 0 0 0 -0.00142726 -0.00680239 0.0127627 0.00823289 -0.0150646 0.00271453 4.00171 -1.815 -1.16225 0.00615085 
19 1 1 -0.0259549 -0.0129037 0.0260623 0 0 0 0.0256203 0.0261642 0.030456 -0.0252166 0.0198355 0.025997 5.84839 -0.0730446 -4.8536 0.00984137 
258 1 1 0.00143101 -0.0130752 0.0265167 0 0 0 -0.0479152 0.0599061 0.00508355 -0.0149368 0.00448439 0.0156427 -7.45134 -11.2183 2.43409 0.00615085 
25 1 1 -0.038152 0.00494733 0.0209606 0 0 0 0.0179018 -0.00829138 0.0281909 0.107509 -0.0820524 0.0242942 -4.66458 -8.12878 -1.18667 0.00984137 
100 1 1 0.00731381 0.0111815 0.0281097 0 0 0 -0.0194802 0.0511396 0.0254414 0.00776152 0.023936 0.0393984 -7.66882 1.95821 -5.02136 0.00984137 
28 1 1 -0.0160327 0.0175618 0.0199007 0 0 0 -0.0318306 0.00312211 -0.0131513 -0.0420002 -0.0519201 0.0848689 -4.13618 2.37011 -3.45229 0.00984137 
261 1 1 0.0439097 0.0147073 0.0262565 0 0 0 0.00084238 0.0148056 -0.000221665 -0.00349704 0.00113544 -0.000605625 1.5042 0.958662 -1.30033 0.00615085 
246 1 1 -0.0439311 0.0261795 0.0268401 0 0 0 0.00547005 -0.00440165 0.0072723 -0.00419045 0.000521842 -0.00450794 8.06278 -1.26675 -1.14034 0.00615085 
23 1 1 -0.0276357 0.0324083 0.0212217 0 0 0 -0.0172976 0.0148924 0.0158356 0.0418088 0.026999 0.0104347 0.931874 6.69078 1.64783 0.00984137 
61 1 1 0.0367524 0.040522 0.0199844 0 0 0 0.00385641 0.0061208 -0.00280934 0.00141983 0.00508381 0.0285565 0.230088 1.75268 0.210983 0.00984137 
224 1 1 -0.0439298 -0.0440192 0.0337455 0 0 0 0.00251419 -0.00117635 0.00544727 -0.00100923 0.00133359 0.00478817 0.704988 0.751638 -0.220505 0.00615085 
125 1 1 0.0434747 -0.0438324 0.0361918 0 0 0 0.0132727 0.00790725 0.0103032 -0.00646542 0.00168889 -0.00774678 -1.07159 0.891077 -2.25894 0.00615085 
42 1 1 -0.0118399 -0.0403282 0.0349159 0 0 0 0.00207309 0.00691811 0.00502968 0.00620974 0.000315063 -0.0262227 1.03505 -0.314547 -0.479907 0.00984137 
271 1 1 0.0307407 -0.04033 0.0333031 0 0 0 -0.0106542 -0.00667358 0.000721932 0.00457687 -0.00518792 0.00628608 1.04675 -2.04249 -4.08087 0.00615085 
51 1 1 0.0175058 -0.0243116 0.0288869 0 0 0 0.0138541 0.0324594 0.0236656 0.0359499 0.00940227 -0.0345659 -3.07454 0.304561 -1.96347 0.00984137 
120 1 1 0.0406185 -0.0298664 0.0283404 0 0 0 -0.000209019 -0.00724506 0.0160727 0.0272937 -0.0228752 0.0299137 1.99423 1.42571 0.783418 0.00984137 
178 1 1 -0.0125455 -0.0205665 0.0305106 0 0 0 -0.0174294 0.00318063 0.0240793 0.0076133 0.0131198 -0.0235319 6.92466 -3.48936 0.250354 0.00615085 
134 1 1 0.0440476 -0.0151232 0.03172 0 0 0 -0.00443723 0.000711522 0.00195869 -0.00527819 0.0101026 -0.0183598 -5.67151 0.232673 0.61673 0.00615085 
310 1 1 -0.0108495 -0.00908271 0.028646 0 0 0 0.0395633 -0.00480016 0.0214076 -0.00823915 0.0257937 -0.0694674 -8.14982 1.01915 -9.36589 0.00615085 
18 1 1 0.0132846 -0.00609941 0.0346555 0 0 0 -0.0239148 0.0319626 0.0306198 -0.0146015 0.0385558 -0.0502199 4.17195 4.65617 -0.440165 0.00984137 
184 1 1 0.0281717 -0.0094999 0.0309586 0 0 0 -0.0239462 0.0152094 -0.0177666 0.00243801 0.0113757 0.00328708 -6.72382 1.15336 -1.55058 0.00615085 
112 1 1 -0.0189387 0.00365852 0.0329867 0 0 0 0.0711432 0.0198199 0.0470946 0.0148241 0.0113293 0.0537817 0.0824047 12.4488 5.25654 0.00984137 
160 1 1 -0.00184905 -0.00137526 0.0291666 0 0 0 0.018032 0.0196418 0.0344344 -0.0167847 0.0235367 -0.0322695 14.3547 1.71042 15.4218 0.00615085 
55 1 1 0.0405624 5.86175e-05 0.0314151 0 0 0 -0.00683248 0.00373955 -0.0219201 -0.00848646 0.0344196 0.0425682 1.49934 -1.9351 -0.410781 0.00984137 
95 1 1 0.0245327 0.00981557 0.0358869 0 0 0 -0.00813601 0.01401 0.0169578 0.0259126 0.0131941 -0.00852802 -2.41277 0.538386 -3.00013 0.00984137 
2 1 1 -0.031731 0.0182296 0.0331681 0 0 0 0.0209073 0.00700792 0.0265881 -0.0440001 0.00364795 -0.0195752 0.868187 2.81228 -3.14885 0.00984137 
69 1 1 -0.00385901 0.0299319 0.0287371 0 0 0 -0.0139135 -0.0191401 0.0217858 -0.00484352 0.00738806 -0.00768148 1.05997 -12.0946 -3.34126 0.00984137 
108 1 1 0.0269034 0.0281551 0.031115 0 0 0 0.00921456 0.00511787 -0.00563378 -0.00671314 0.0320478 0.0160261 -0.185848 -1.61524 0.84749 0.00984137 
16 1 1 0.0125679 0.0405486 0.0282862 0 0 0 -0.0121025 -0.00284892 0.0190155 -0.0376374 -0.00337064 0.00837512 -0.474118 5.59324 0.87447 0.00984137 
9 1 1 -0.0406851 0.0409449 0.0316634 0 0 0 3.87027e-05 0.00664543 0.0320851 -0.000356608 0.0113257 -0.0537488 -3.35174 -2.78908 0.525907 0.00984137 
323 1 1 -0.0108645 0.04403 0.0297831 0 0 0 0.00156488 -0.00149293 -0.011262 0.00292164 0.0028188 -0.0309773 1.82816 0.130583 0.393416 0.00615085 
329 1 1 -0.0230992 -0.0443625 0.044672 0 0 0 -0.00741393 -0.00175715 -0.0001057 0.0108281 0.00659769 -0.00324338 0.249623 -1.15107 0.725249 0.00615085 
168 1 1 0.00192365 -0.0443522 0.0397418 0 0 0 -0.00511746 -0.00356067 0.0126257 0.00391333 -0.000270878 -0.000498419 1.9521 -1.97148 0.353381 0.00615085 
283 1 1 0.0310057 -0.0441587 0.0446439 0 0 0 -0.00304741 0.00321242 0.00805254 0.00884436 -0.00445587 -0.00916086 1.57178 -3.09335 0.680972 0.00615085 
211 1 1 -0.0439171 -0.0328145 0.0383417 0 0 0 0.00448328 0.00442963 0.00453241 0.000198531 0.000920701 0.00730311 -1.29179 -0.701206 -0.0895837 0.00615085 
191 1 1 0.00346779 -0.0322572 0.0401014 0 0 0 -0.000744018 0.00500682 0.0172496 0.0219504 -0.0106939 -0.0292735 -3.58069 -0.224049 -2.28015 0.00615085 
3 1 1 0.0167187 -0.040544 0.0395775 0 0 0 -0.00958326 0.00312068 0.008217 0.0130329 -0.0015917 -0.0276397 0.851953 2.0814 0.846149 0.00984137 
93 1 1 -0.026621 -0.0296246 0.0412462 0 0 0 0.00240485 0.00932606 0.014454 0.034465 0.0296314 0.0641453 1.71222 -0.45377 -0.948535 0.00984137 
43 1 1 -0.00875848 -0.0242084 0.0453357 0 0 0 0.00745208 0.00828082 0.0223736 0.12626 0.0170275 -0.0683218 1.09665 1.29069 1.26748 0.00984137 
105 1 1 0.0305364 -0.0283885 0.0452484 0 0 0 0.000518099 0.00893883 -0.00480807 0.0157864 0.0116719 -0.0680603 -2.77859 -2.22212 -1.37558 0.00984137 
66 1 1 -0.0407553 -0.0173548 0.037795 0 0 0 -0.000318659 0.0137964 0.0160632 0.0195408 0.0129821 0.0532767 1.34038 -1.56315 1.25375 0.00984137 
259 1 1 0.0249832 -0.0142762 0.0415388 0 0 0 -0.0120752 0.00722198 -0.012978 -0.00179968 -0.00359174 -0.00112156 5.9835 -2.48662 6.05213 0.00615085 
336 1 1 -0.0212477 -0.0115901 0.0412351 0 0 0 0.0905471 -0.00990262 -0.0143886 0.0377183 0.052398 0.103346 -2.31999 12.9173 7.60386 0.00615085 
245 1 1 0.00113297 -0.0129235 0.0415559 0 0 0 -0.013852 0.0255092 0.0283202 0.030704 0.0362037 -0.0253858 -9.21764 -9.91874 4.72462 0.00615085 
107 1 1 -0.0380542 0.00148375 0.040177 0 0 0 0.0152173 0.0200014 0.0436989 -0.0241814 -0.0039397 0.00449116 1.38226 8.7159 -1.83883 0.00984137 
303 1 1 0.0271458 -0.00290176 0.0445457 0 0 0 -0.0224093 0.00921449 0.0238846 0.00201407 0.00643406 -0.00312857 1.38243 6.39773 -2.47801 0.00615085 
318 1 1 0.0439083 0.0040116 0.0464171 0 0 0 -0.00672438 0.00332117 -0.013764 0.0029708 0.00778073 0.00291533 3.69963 -1.01863 -1.43147 0.00615085 
4 1 1 -0.00366669 0.0127984 0.0440077 0 0 0 0.0403357 0.0739536 0.0682661 -0.0666381 -0.00178197 -0.00165392 6.04341 5.68567 4.86483 0.00984137 
208 1 1 -0.044283 0.0158603 0.0419921 0 0 0 0.0076156 0.0241591 0.0382441 -0.00311038 -0.0080524 0.00222315 -6.36408 -5.95476 4.29968 0.00615085 
282 1 1 -0.0185717 0.0168101 0.0417516 0 0 0 0.0158705 -0.00183902 0.0743813 0.00363066 0.0143028 -0.0180734 6.61393 -12.5212 7.22933 0.00615085 
58 1 1 0.0406052 0.0186027 0.0411768 0 0 0 0.00483387 0.00381415 0.00620722 0.0200585 0.0270949 -0.00833849 0.495678 -0.0492816 0.0893664 0.00984137 
199 1 1 -0.0440421 0.0276709 0.0393937 0 0 0 -0.00882029 0.0136468 0.0299378 0.00453645 0.00336953 0.00401817 3.61129 -4.97869 1.95952 0.00615085 
262 1 1 -0.0337565 0.0275958 0.046721 0 0 0 -0.0472699 0.0700471 0.0668851 -0.0263894 -0.00891005 -0.006869 5.3072 22.5072 17.8824 0.00615085 
192 1 1 -0.0228276 0.0278483 0.0411991 0 0 0 -0.00505383 -0.0135371 0.0612468 -0.0212623 0.00347691 0.0172455 0.0113084 -13.234 0.402497 0.00615085 
73 1 1 0.0103395 0.0263502 0.0418078 0 0 0 0.0178791 0.0767858 0.023813 0.0177669 -0.246804 -0.282135 -14.1581 -3.74449 -3.09934 0.00984137 
292 1 1 -0.0116788 0.0321708 0.0423136 0 0 0 -0.0112426 -0.00661415 0.0245732 -0.0245188 0.0184858 -0.000696707 -1.19034 19.063 0.570504 0.00615085 
114 1 1 0.0402469 0.039903 0.0392467 0 0 0 0.0051735 0.00198985 0.0131974 -0.00744358 0.0737791 0.00990373 3.69867 1.94043 0.0985502 0.00984137 
126 1 1 -0.00970379 0.044008 0.0440234 0 0 0 -0.0101286 -0.00841961 0.0234303 -0.0181308 0.00256531 -0.0148311 -1.91541 5.85946 1.00332 0.00615085 
248 1 1 0.000918629 0.0439156 0.0383236 0 0 0 -0.00824186 -0.00504467 0.0292901 -0.0230423 0.00324409 -0.0143318 -1.32225 -6.58194 1.08309 0.00615085 
229 1 1 0.0118096 0.0439972 0.0439203 0 0 0 0.00851274 -0.0130402 0.0037567 -0.0327161 -0.012141 -0.0148682 -0.0777992 9.8966 0.456351 0.00615085 
314 1 1 -0.0162271 -0.0441374 0.0546148 0 0 0 -0.00624051 0.000171478 0.00113804 0.00369965 0.0113089 0.0101382 -0.0702289 1.35424 0.864266 0.00615085 
265 1 1 0.023015 -0.0435652 0.0539355 0 0 0 0.00642147 -0.0176528 0.0198248 0.00534046 -0.0468611 -0.021158 -0.977317 2.10425 5.76191 0.00615085 
84 1 1 -0.0405936 -0.0331932 0.0538077 0 0 0 -0.00375513 -0.00369 0.00850311 0.00775903 -0.027757 0.0177924 1.90564 -0.399822 -0.566936 0.00984137 
307 1 1 -0.0184043 -0.0323729 0.0547367 0 0 0 0.00406363 -0.00104908 0.0128051 0.025858 0.0175086 0.0141172 1.71609 -0.730664 -2.98116 0.00615085 
337 1 1 -0.00599462 -0.039403 0.0497334 0 0 0 0.00437305 0.0107575 0.0216239 -0.0278931 0.0243072 -0.00737617 -1.01606 -0.641679 2.52006 0.00615085 
326 1 1 0.0442412 -0.0257065 0.0520648 0 0 0 -0.000308768 0.00362186 0.0129312 -0.00412809 0.00290145 -0.00941017 3.00272 1.69088 -0.0975073 0.00615085 
52 1 1 0.012476 -0.0219374 0.0477756 0 0 0 -0.00432018 0.00655896 0.0359845 -0.0245227 0.0322878 -0.0514534 7.25986 5.05578 1.03053 0.00984137 
332 1 1 0.0262182 -0.0154654 0.0535258 0 0 0 -0.0143865 0.00609402 0.0029815 0.0177347 0.00163461 -0.00458816 -0.543792 -0.532967 5.21536 0.00615085 
220 1 1 -0.0438034 -0.00892157 0.0509929 0 0 0 0.00471499 -0.0148906 0.0450717 -0.0114568 0.022005 0.0137894 4.91441 2.81909 -3.7364 0.00615085 
24 1 1 -0.00904517 -0.00473 0.0502955 0 0 0 -0.0290843 0.0739835 -0.000859565 -0.150306 -0.0836757 -0.0974243 3.2781 1.33406 -16.2928 0.00984137 
240 1 1 0.0174452 -0.0073381 0.0506155 0 0 0 -0.0296627 0.0193832 0.017104 -0.000585641 0.00365245 0.00337944 -10.9105 4.28968 5.72005 0.00615085 
5 1 1 0.0402511 -0.011357 0.0471864 0 0 0 -0.013768 0.00583321 -0.000983531 -0.0150643 -0.00241165 0.0416161 -3.63572 0.546082 0.214024 0.00984137 
133 1 1 -0.0286203 -0.00344301 0.0517524 0 0 0 0.0299979 -0.00439459 0.0239292 0.0120544 0.0284463 0.0173003 -0.723775 -7.54876 -5.67719 0.00615085 
236 1 1 -0.0246841 0.00763469 0.0473408 0 0 0 -0.0142878 -0.0461505 0.0505225 -0.00586043 0.0136524 -0.000186213 5.31312 -24.2289 13.0864 0.00615085 
15 1 1 0.0136969 0.00784057 0.0518612 0 0 0 -0.0155532 0.0210134 0.0265245 -0.115149 -0.043818 -0.0992418 7.24743 -0.102512 -4.9406 0.00984137 
298 1 1 0.0291316 0.0121764 0.0509936 0 0 0 0.00820234 0.0239133 0.024708 0.00454104 0.00394594 -0.00903626 -1.02195 -0.794108 -5.90366 0.00615085 
291 1 1 0.0440973 0.0125181 0.0552104 0 0 0 5.63911e-05 -0.00577503 0.0102737 -0.0190896 0.00109489 0.00702122 0.180454 1.52372 0.706748 0.00615085 
335 1 1 -0.0340412 0.0154994 0.0486957 0 0 0 0.0109441 0.0236074 0.0501156 -0.0211621 0.0032353 -0.00146561 -2.28496 -3.32004 -15.0167 0.00615085 
99 1 1 -0.00415797 0.0300888 0.0559207 0 0 0 0.0101732 -0.0164672 0.0102465 -0.0249366 0.0284645 0.0104197 4.00907 -9.49875 2.93887 0.00984137 
122 1 1 -0.0241393 0.0405787 0.0496301 0 0 0 -0.0404803 0.00672669 0.0243984 -0.0597429 0.0336358 0.11881 -2.63057 -5.71831 -3.85651 0.00984137 
47 1 1 0.0238391 0.0368663 0.0513084 0 0 0 0.0384058 0.024403 0.0329471 -0.11503 -0.110123 -0.0782092 3.94657 -6.80014 -6.22861 0.00984137 
327 1 1 -0.043836 0.043833 0.047047 0 0 0 0.0113924 -0.0116376 0.0472728 0.00899589 -0.00458434 -0.0115277 8.6088 7.51941 0.957088 0.00615085 
203 1 1 0.0420015 0.0439783 0.0544872 0 0 0 -0.00594485 -0.0109945 0.022922 -0.0100623 0.00838657 -0.0088746 -3.50775 -5.50301 -0.962369 0.00615085 
190 1 1 -0.00618139 -0.0439327 0.0615318 0 0 0 -0.0174971 0.0130675 0.0228451 8.30995e-05 -0.00234074 0.0373928 3.59237 -5.43646 4.09516 0.00615085 
189 1 1 0.027565 -0.0438721 0.0653367 0 0 0 -0.00160778 0.00108745 0.0317705 0.00181141 0.0126983 -0.0189792 2.26839 -1.05109 -1.29893 0.00615085 
56 1 1 0.00814613 -0.0387091 0.0570809 0 0 0 0.0185245 -0.0113336 0.0399642 -0.137146 0.189226 -0.00623002 0.173032 1.63252 -7.5028 0.00984137 
49 1 1 0.0404658 -0.0404642 0.0565695 0 0 0 -0.00135944 0.00362706 0.013509 0.0152837 0.0146636 -0.0477805 0.322758 2.13839 -0.150663 0.00984137 
313 1 1 -0.0131148 -0.0270469 0.0642617 0 0 0 0.00389877 -0.0264009 0.0308417 -0.00199094 0.00788408 0.043061 2.93613 -3.28479 -1.97011 0.00615085 
137 1 1 -0.0011201 -0.0246453 0.059282 0 0 0 0.0235369 0.0329742 0.0730803 -0.0981934 0.00756998 0.0192179 3.01295 -6.4604 16.5588 0.00615085 
91 1 1 0.0229438 -0.0274722 0.0632557 0 0 0 0.0331023 0.0047393 0.0334767 -0.0399011 0.00357632 -0.0881735 -3.81276 -3.95376 5.77069 0.00984137 
247 1 1 0.0388177 -0.0259432 0.0630319 0 0 0 0.0131025 -0.0195862 0.0254402 -0.0520697 0.0161999 -0.011745 -1.43857 4.19231 -0.680866 0.00615085 
81 1 1 -0.0231611 -0.0173933 0.0566361 0 0 0 0.00510712 -0.00584407 0.031417 0.181018 0.134325 0.160527 0.0179632 1.05388 1.44976 0.00984137 
215 1 1 0.0322767 -0.0149063 0.0650536 0 0 0 0.0096957 0.0136554 0.0328328 -0.0233654 0.00790593 0.0108956 1.35978 2.92646 -4.21646 0.00615085 
217 1 1 0.0440138 -0.0149217 0.0621153 0 0 0 0.00358341 0.000147368 0.00717583 -0.0142686 0.0118568 0.0211925 4.86722 1.48888 0.585717 0.00615085 
10 1 1 0.00529964 -0.00638174 0.0633223 0 0 0 -0.0341967 0.0422011 0.0177164 -0.0425245 0.0977791 0.00178781 -8.42482 -2.32277 7.40338 0.00984137 
197 1 1 -0.0205368 -0.000855838 0.0604164 0 0 0 -0.00383795 0.0908285 0.0388062 -0.0167057 0.00454589 -0.0222601 -5.25152 5.22209 25.8453 0.00615085 
87 1 1 0.0286825 5.4904e-05 0.0614389 0 0 0 -0.0144636 -0.0120089 0.0184875 -0.105823 0.0479534 0.0438029 -2.98534 0.295258 3.6543 0.00984137 
148 1 1 0.0440838 -0.0027383 0.0600387 0 0 0 -0.00204828 0.00879169 0.00739948 -0.0134836 -0.00217851 0.00157997 7.93686 0.924073 -1.63593 0.00615085 
32 1 1 -0.039626 0.00511189 0.059357 0 0 0 0.0262911 -0.0127054 0.0727922 -0.131727 0.00649854 -0.0762363 5.08823 8.6944 5.91989 0.00984137 
115 1 1 -0.00393901 0.0109912 0.0634213 0 0 0 -0.0720991 0.0530872 0.0746234 -0.0179214 0.046454 -0.0285335 -10.4965 -5.01518 -6.22025 0.00984137 
117 1 1 -0.0216667 0.0217391 0.0565903 0 0 0 0.0235911 -0.0582407 0.0919399 -0.0508274 -0.0158815 -0.150676 -9.73796 15.5479 1.55491 0.00984137 
140 1 1 0.00781282 0.020453 0.0588135 0 0 0 0.00342013 -0.0043258 0.085553 -0.0311964 -0.0202414 0.00366283 1.64857 -6.5251 0.586394 0.00615085 
266 1 1 0.0206754 0.0220226 0.0581156 0 0 0 0.0169867 -0.0301721 -0.144029 0 0 -0.0239058 -3.40844 -21.9222 16.9341 0.00615085 
39 1 1 -0.0403707 0.0246304 0.0609435 0 0 0 0.0146088 -0.0153228 0.106534 -0.0357646 -0.0876676 -0.0920874 -5.50949 -11.5199 -2.30535 0.00984137 
106 1 1 0.0402242 0.0285914 0.0579748 0 0 0 0.0129265 -0.0321867 0.0423481 -0.00158979 0.00398165 -0.0211394 4.33975 2.72241 2.40804 0.00984137 
174 1 1 -0.040583 0.0435083 0.0588912 0 0 0 -0.0826946 -0.0242424 0.0762884 -0.00438348 0.00370948 -0.0120903 -4.23317 -24.516 8.51619 0.00615085 
315 1 1 -0.0114226 0.0439908 0.0584328 0 0 0 -0.00804643 -0.0127983 0.0224401 -0.00312257 0.00969826 0.0017052 -1.73977 10.5857 -3.46777 0.00615085 
158 1 1 0.00203589 0.0439859 0.0602696 0 0 0 -0.0236808 -0.00351978 0.0475784 0.00996039 0.000745777 0.00813116 -7.74383 -3.55146 -3.80222 0.00615085 
186 1 1 0.0438941 -0.0438981 0.0717276 0 0 0 -0.00727824 -0.00254406 0.0270487 -0.00358442 -0.00461314 0.00258882 3.69831 -6.30348 1.21866 0.00615085 
230 1 1 -0.0397558 -0.0327041 0.0706389 0 0 0 -0.0328308 -0.00770585 -0.00362368 -0.000619628 0.00872401 0.0137374 6.99494 -4.09677 -4.55866 0.00615085 
6 1 1 -0.0267823 -0.0403249 0.0657429 0 0 0 -0.0161138 -0.00660777 0.00683191 -0.0428321 0.0614865 -0.0154863 0.260889 -0.932483 1.83221 0.00984137 
227 1 1 0.00765879 -0.0266144 0.0675398 0 0 0 0.0405978 -0.0396706 0.0896821 -0.0963055 0.0184064 -0.0143102 21.9314 4.77359 -8.9374 0.00615085 
165 1 1 0.0439562 -0.0316621 0.0725884 0 0 0 0.0199011 0.020433 0.0221207 0.00193869 -0.0189673 0.115501 -6.36641 3.43275 -4.62325 0.00615085 
36 1 1 -0.0404177 -0.0176953 0.0656767 0 0 0 -0.00197013 0.00343295 0.0182804 -0.00839495 0.0654357 0.025947 -2.39157 -2.01236 -0.209304 0.00984137 
26 1 1 -0.00655507 -0.0171491 0.0747248 0 0 0 -0.0141987 -0.00205687 0.0268034 -0.0821328 0.118915 0.0591119 -2.44745 3.98681 5.42646 0.00984137 
209 1 1 0.00921896 -0.0161946 0.0749877 0 0 0 -0.0260554 0.0488069 0.0351065 -0.0165895 0.00410843 -0.00104822 14.3385 -6.67601 -0.14793 0.00615085 
169 1 1 0.04394 -0.0186763 0.0736772 0 0 0 -0.00103783 0.00653522 0.00496708 -0.0105701 0.0330904 0.0541857 -6.02109 -1.56148 -1.38336 0.00615085 
182 1 1 -0.0301986 -0.00568548 0.0660016 0 0 0 0.0302498 -0.0145612 0.0349777 -0.0733019 0.049322 -0.0175996 -1.13932 -9.87944 -5.53261 0.00615085 
204 1 1 -0.018953 -0.0079644 0.0703722 0 0 0 -0.0257641 -0.066743 -0.0383529 0.067813 -0.00787329 0.049627 27.0505 -20.349 11.4449 0.00615085 
276 1 1 0.0198219 -0.0120989 0.0666831 0 0 0 -0.0375703 -0.0130763 0.0314213 -0.0196267 0.0181737 -0.0247088 -3.91011 -5.43893 -3.71972 0.00615085 
325 1 1 0.0365173 -0.0088564 0.0747903 0 0 0 0.00539 0.00702666 0.0565424 -0.0400907 0.0166546 0.00775507 5.086 -1.83491 11.1341 0.00615085 
306 1 1 -0.0435877 -0.00355939 0.0725453 0 0 0 0.018626 -0.0172516 0.0139648 0 0 -0.0239058 20.0549 -12.4311 3.98361 0.00615085 
57 1 1 -0.0209245 0.00888944 0.0728826 0 0 0 -0.0880768 0.0561171 0.0880135 0.0131008 -0.0744883 0.00950985 9.21053 4.59312 7.35865 0.00984137 
338 1 1 0.0410593 0.00877204 0.0662885 0 0 0 -0.0114857 -0.00757879 0.0139196 -0.00203935 0.00221768 0.0060587 1.13202 -1.98116 -5.91862 0.00615085 
250 1 1 -0.0294467 0.0223481 0.0723267 0 0 0 -0.0431891 0.102488 0.19904 -0.0230689 -0.00341449 0.01348 -7.41948 6.86803 -11.7109 0.00615085 
263 1 1 0.00958618 0.0175097 0.0705544 0 0 0 0.143828 -0.114953 0.0883847 -0.00858961 -0.033307 0.042186 20.3387 22.5932 18.2116 0.00615085 
45 1 1 0.0284371 0.0169589 0.0714375 0 0 0 -0.0142446 0.0107853 -0.00763417 0.0190454 -0.00894185 0.0118827 -2.00607 0.696927 2.26617 0.00984137 
322 1 1 0.0438915 0.0209093 0.0714542 0 0 0 0.00566494 -0.0481943 0.0452899 0.00105978 -0.00223144 -0.0172029 -4.77381 -4.57501 -4.73456 0.00615085 
35 1 1 -0.0245504 0.0393015 0.0690979 0 0 0 -0.0621433 -0.0438639 0.0169574 0.0435546 0.107543 0.0992643 7.35014 4.32459 -4.64837 0.00984137 
113 1 1 0.0115421 0.0331861 0.0670441 0 0 0 -0.0226036 0.00160006 0.0811123 0.000656669 -0.108834 0.036373 -1.17591 2.42059 1.78469 0.00984137 
76 1 1 0.0292764 0.040312 0.0698161 0 0 0 -0.0129019 0.00598671 0.0533372 -0.00771845 -0.00420342 0.0117579 -4.6985 -1.3023 -2.19147 0.00984137 