ITEM: TIMESTEP
26600
ITEM: NUMBER OF ATOMS
338
ITEM: BOX BOUNDS mm mm mm
-0.05 0.05
-0.05 0.05
0 0.15
ITEM: ATOMS id type type x y z ix iy iz vx vy vz fx fy fz omegax omegay omegaz radius 
319 1 1 -0.0152096 -0.0441164 0.00589281 0 0 0 0.0239836 -0.00149968 -0.00285637 0.00616552 0.0145955 -0.0284711 -0.650716 3.66065 -4.11433 0.00595671 
243 1 1 -0.00334403 -0.0429559 0.00593654 0 0 0 0.0323284 0.044918 0.00415581 0.000189632 1.20122e-05 0.00157423 -7.55401 5.45884 8.33152 0.00595671 
260 1 1 0.0250503 -0.0440147 0.00593754 0 0 0 0.164625 -0.00463827 0.00800052 0.00307616 0.000142429 -0.00596862 0.648007 27.6959 -25.7495 0.00595671 
74 1 1 -0.04074 -0.0364692 0.00917848 0 0 0 0.00973381 0.00847701 0.0263442 -0.176542 0.00963555 -0.0375334 -3.25629 -1.7759 -1.62241 0.00953074 
131 1 1 -0.0262334 -0.0397777 0.00572207 0 0 0 0.0239659 0.0141867 0.0104141 -0.00231834 -0.00958654 0.024965 -2.25589 5.10504 5.95015 0.00595671 
173 1 1 -0.0155043 -0.0322929 0.00586768 0 0 0 0.050468 -0.00399685 -0.00312702 -0.00951483 -0.00506451 0.0185125 1.24093 6.20152 -0.150843 0.00595671 
60 1 1 0.00998772 -0.0355506 0.00918648 0 0 0 0.1073 0.00448837 0.0238187 0.162425 0.24642 -0.159501 -0.788217 11.7306 16.9845 0.00953074 
78 1 1 0.0408828 -0.0407991 0.00910309 0 0 0 0.00919968 0.00894229 -0.000391499 0.0445639 0.0519247 -0.0392052 -1.63995 0.268636 -1.78303 0.00953074 
296 1 1 -0.0273212 -0.0276033 0.00593487 0 0 0 -0.0664178 -0.0262767 0.000240314 -0.00586752 0.00983544 -0.00380821 -2.33524 -10.7384 -13.5745 0.00595671 
275 1 1 -0.00395497 -0.029875 0.00595232 0 0 0 0.0690006 -0.0748772 0.0279211 -0.0336033 0.0398794 -0.0547093 -9.81134 -13.2646 -13.3408 0.00595671 
144 1 1 0.0407344 -0.0243799 0.00593609 0 0 0 0.0946639 0.075296 -0.00175786 -0.0105244 -0.046864 -0.0774421 -12.4304 15.3115 6.55123 0.00595671 
102 1 1 -0.0407388 -0.0181443 0.00887678 0 0 0 0.0144649 0.0215908 -0.00286462 0.00874143 -0.0460161 -0.102572 -2.25337 2.00785 0.0274016 0.00953074 
328 1 1 -0.0258322 -0.01583 0.00588129 0 0 0 0.0480177 -0.0263018 0.0149295 -0.0319168 -0.0307 -0.0215804 3.40857 -7.79438 -6.7079 0.00595671 
279 1 1 0.00370881 -0.0214698 0.00931589 0 0 0 0.061402 -0.0399005 0.0146352 -0.13514 0.0657079 0.263448 7.34424 -1.36691 9.39874 0.00595671 
267 1 1 0.0155482 -0.0208983 0.00582245 0 0 0 0.0388911 0.0251183 -0.0177163 -0.00564367 -0.000953683 0.0138721 -4.57134 6.92983 27.192 0.00595671 
274 1 1 -0.020786 -0.00513716 0.00591876 0 0 0 0.0485513 -0.0366955 -0.000849199 0.0362312 0.0705416 -0.00147945 -3.6895 13.7957 3.99064 0.00595671 
50 1 1 0.0293271 -0.00959017 0.00918892 0 0 0 0.0644133 -0.00393599 0.00624316 -0.028459 0.0500786 0.127823 -0.520528 6.78784 13.1795 0.00953074 
202 1 1 0.0440265 -0.012918 0.00592649 0 0 0 0.034295 0.103698 -0.00583106 0.0808647 -0.0786197 -0.0177689 -12.0294 -3.67231 -0.0665108 0.00595671 
257 1 1 -0.0427042 -0.00329861 0.00582326 0 0 0 0.00744641 0.043713 0.0163518 0.0148519 0.0108234 0.0055245 9.43727 4.50074 -1.36213 0.00595671 
164 1 1 0.0201647 0.00196045 0.00582663 0 0 0 -0.0189711 -0.0712635 0.00247719 0.0168769 0.0337743 0.10724 -3.62805 -6.02156 -3.82108 0.00595671 
268 1 1 -0.0307384 0.00928206 0.00575703 0 0 0 0.015392 0.0228705 0.0118456 -0.00066621 -0.097241 -0.018945 -3.70211 0.964306 1.42343 0.00595671 
171 1 1 -0.0192176 0.00656808 0.0059726 0 0 0 0.0258322 -0.0494262 -0.0555866 0.0377521 0.0786716 0.0273081 -2.10738 9.07679 0.468964 0.00595671 
232 1 1 -0.0386174 0.0180172 0.00558681 0 0 0 -0.0246073 -0.00103411 0.00903864 -0.0425726 -0.0273291 0.0258688 0.0701449 -4.35937 -19.8801 0.00595671 
297 1 1 -0.0227081 0.0178203 0.00624727 0 0 0 0.0844141 -0.0182436 0.0333986 0.0294587 0.00604808 0.0416483 13.838 5.65585 -12.9269 0.00595671 
222 1 1 -0.0105957 0.0149846 0.00574496 0 0 0 0.0254666 -0.0534089 0.0325768 -0.0113351 0.0054843 -0.0509034 10.3313 4.17092 5.98451 0.00595671 
290 1 1 -0.000375328 0.0208649 0.00560889 0 0 0 0.0197849 -0.00262802 0.00254157 0.00697241 -0.0319419 0.0273789 -0.457112 1.3287 -1.60269 0.00595671 
98 1 1 0.0129471 0.0147313 0.0092742 0 0 0 0.0151239 -0.0417873 0.00493095 -0.0437073 -0.116121 -0.0371892 3.62822 0.392966 -3.32575 0.00953074 
316 1 1 0.0317934 0.0190437 0.00554086 0 0 0 0.109736 0.0260494 0.019858 -0.029307 0.0181564 -0.0083699 -3.07172 19.9091 16.4967 0.00595671 
162 1 1 0.0440677 0.018675 0.00592567 0 0 0 -0.0142136 0.0712539 0.0120789 0.00290519 9.05247e-05 -0.0323052 -11.6979 -2.72404 -11.9041 0.00595671 
294 1 1 -0.0441383 0.0285164 0.0058412 0 0 0 -0.00304439 0.0314297 0.00629549 0.0620343 -0.0288662 -0.00291522 -5.8684 -1.5935 5.29748 0.00595671 
255 1 1 -0.0145308 0.026174 0.00586617 0 0 0 0.1046 -0.0162416 -0.00167503 0.0358672 0.00361646 0.00746235 1.71813 18.2275 9.53381 0.00595671 
155 1 1 0.0376291 0.0292381 0.00580045 0 0 0 0.02926 0.0575371 -0.0139135 -0.0212135 0.00159986 -0.041386 6.94 -2.80385 -3.14501 0.00595671 
175 1 1 -0.0321249 0.0320406 0.00593671 0 0 0 0.0358672 -0.0159029 0.00385134 1.81834e-05 -8.06217e-06 0.00164167 2.67441 6.03185 -1.75707 0.00595671 
324 1 1 -0.00351249 0.0319223 0.00579564 0 0 0 0.0530631 0.00597939 0.0111375 0.0342492 0.0249904 0.043218 -0.217252 10.3614 -2.77222 0.00595671 
161 1 1 0.00827551 0.0318146 0.00585612 0 0 0 0.0704714 0.00879979 0.0179164 0.00615345 -0.067243 -0.000696533 -1.66951 -5.06951 1.1532 0.00595671 
321 1 1 -0.0440404 0.0440777 0.00594023 0 0 0 0.00545983 -0.00918989 -4.9979e-05 0.00653378 0.0248219 0.014799 0.728067 0.826682 0.764895 0.00595671 
207 1 1 -0.0319122 0.0440506 0.00593582 0 0 0 0.0255923 -0.00389855 0.00392908 4.62371e-05 -0.000689746 -0.00449437 0.695991 4.30427 4.30504 0.00595671 
149 1 1 0.0102811 0.0437925 0.00583885 0 0 0 0.0228757 -0.0513453 0.0233493 -0.0221366 -0.0039128 0.0109376 8.85867 1.7866 -0.913816 0.00595671 
249 1 1 0.0288266 0.0441248 0.00598602 0 0 0 -0.0457725 -0.00846438 0.0226117 -0.0508029 0.00648062 0.00306478 -4.29882 79.639 -6.50875 0.00595671 
289 1 1 0.0443491 0.0423384 0.00587094 0 0 0 -0.043041 0.0527108 -0.0542791 -0.139414 0.00277827 -0.0710252 -9.73135 -8.36274 -8.46183 0.00595671 
299 1 1 -0.0247109 -0.0444736 0.0163028 0 0 0 0.0321758 0.0140107 0.0159137 -0.00812377 -0.0174459 0.00809922 2.26386 -4.1302 -5.34964 0.00595671 
225 1 1 -0.0114243 -0.0434126 0.0171416 0 0 0 -0.0476982 0.018039 0.0281969 0.00421834 1.81128e-05 -0.00206859 -3.91677 -16.7147 -0.0257689 0.00595671 
242 1 1 0.000504223 -0.0440694 0.0179994 0 0 0 -0.00635877 0.000711546 -0.121748 0.00361165 0.0420086 0.001785 -19.9183 -21.1227 1.37568 0.00595671 
130 1 1 0.0202153 -0.0440165 0.0168381 0 0 0 0.134558 0.00207056 0.0379473 -0.046553 0.0334138 0.0265294 18.6953 -34.0736 -11.4492 0.00595671 
67 1 1 0.0271507 -0.0287788 0.0118908 0 0 0 0.0819348 0.0825213 -0.0252514 0.075558 0.127232 0.0284766 2.9822 -4.33679 -8.72889 0.00953074 
40 1 1 -0.0109059 -0.0166287 0.00963151 0 0 0 0.0628929 -0.0583381 0.0309387 -0.102448 -0.190709 0.0320231 9.10478 2.31664 3.17012 0.00953074 
146 1 1 -0.0444432 -0.00744179 0.0185845 0 0 0 0.0133635 0.011232 0.0200776 0.00499096 0.00262387 0.0226702 8.03202 -3.41134 -0.0542224 0.00595671 
96 1 1 0.010595 -0.00806006 0.012434 0 0 0 0.0279752 -0.0466713 0.114384 0.0457949 -0.0218301 -0.0436488 11.2015 19.7396 -3.50279 0.00953074 
183 1 1 0.0425274 -0.00990075 0.0173331 0 0 0 0.0417489 0.133772 0.00455583 0.0378587 0.0170748 -0.0151394 4.3375 13.4201 -3.89523 0.00595671 
17 1 1 -0.0055785 0.00154243 0.0109813 0 0 0 0.0224253 -0.0255995 0.106378 0.438101 0.127985 -0.37075 -7.58051 -20.0366 2.99356 0.00953074 
25 1 1 -0.0405566 0.00684409 0.0171271 0 0 0 -0.00110186 0.036756 0.028397 0.0942594 -0.415228 0.34762 -4.55124 -1.85631 3.7777 0.00953074 
94 1 1 0.0367232 0.00704187 0.0129914 0 0 0 0.0772421 0.00693396 0.0355702 -0.0386495 0.138812 0.0819432 0.886852 -12.3399 -15.3115 0.00953074 
300 1 1 -0.0441235 0.0215484 0.0153279 0 0 0 -0.0213916 0.0293173 0.00886344 -0.0178663 -0.17911 0.0265958 5.61288 -3.59355 -0.732882 0.00595671 
273 1 1 -0.0324098 0.0199737 0.0150673 0 0 0 -0.0300155 -0.0306191 0.0339036 0.020237 0.074677 -0.016548 -1.22994 0.0543184 8.89837 0.00595671 
286 1 1 -0.000637057 0.0163265 0.0161022 0 0 0 0.0402532 0.0516124 0.0262704 -0.0174749 -0.0315498 0.00502602 -11.0574 4.56593 -7.88629 0.00595671 
320 1 1 0.00610552 0.0266351 0.0162493 0 0 0 0.0857867 -0.00738039 0.0523918 -0.0331043 0.00314177 -0.0101576 1.95158 10.4243 -6.04805 0.00595671 
77 1 1 0.0230402 0.0304544 0.0100532 0 0 0 0.042961 -0.0380401 0.130121 -0.217466 0.395637 0.0554716 9.48243 -5.27077 1.34285 0.00953074 
284 1 1 0.0443132 0.0277648 0.0151996 0 0 0 0.0105555 0.0490949 -0.0137661 -0.0900003 0.00517262 -0.150947 -14.7709 -1.50017 -9.68487 0.00595671 
305 1 1 -0.0405284 0.0362227 0.0141287 0 0 0 0.0403864 0.00868299 0.022007 -0.0240557 0.0296046 -0.0466605 -0.794182 6.09833 -2.56213 0.00595671 
38 1 1 -0.0149509 0.041002 0.00950472 0 0 0 0.0264677 -0.00699512 0.00380102 -0.299628 0.036757 -0.056532 -0.154393 -8.57924 3.41119 0.00953074 
237 1 1 -6.73124e-05 0.0441133 0.0114302 0 0 0 0.0354847 -0.0112719 0.0569587 -0.0108444 -0.00172035 0.00127959 -5.34963 3.89174 -8.44368 0.00595671 
239 1 1 0.0192391 0.0445072 0.0133856 0 0 0 -0.0027436 -0.0266197 0.100016 -0.00436504 0.0186727 0.0237615 -15.5767 -11.6837 0.884281 0.00595671 
331 1 1 -0.0427708 -0.0449182 0.0208533 0 0 0 0.0341393 0.00466481 0.0450002 0.018973 -0.0188743 0.0186628 8.14963 15.3688 -6.0679 0.00595671 
167 1 1 0.0313106 -0.0441622 0.0206662 0 0 0 0.128113 0.00635726 0.101015 -0.0341527 0.00653409 -0.00765194 -9.21967 23.5339 16.2229 0.00595671 
136 1 1 0.044061 -0.0443992 0.0233833 0 0 0 -0.0100307 0.0122453 0.0153457 -0.00356913 -0.0412179 -0.0412832 2.33262 -3.68238 1.95464 0.00595671 
180 1 1 -0.0440954 -0.0342163 0.0251091 0 0 0 0.00527532 0.0169416 0.0555005 -0.0308616 -0.0712044 -0.00779438 -7.74763 -33.9836 3.40308 0.00595671 
256 1 1 -0.03247 -0.0397691 0.0239834 0 0 0 0.0357593 0.0415257 2.85405e-05 -0.0212579 -0.000905895 0.00465649 -1.30203 0.897291 -1.63867 0.00595671 
128 1 1 -0.0445848 -0.0228487 0.0226771 0 0 0 0.00951079 0.0160247 0.0195572 -0.021696 0.0159139 0.00123672 4.11901 -5.52507 4.53357 0.00595671 
179 1 1 -0.0347116 -0.0271741 0.019344 0 0 0 0.0454029 0.0411525 0.000572875 -0.0545664 0.0268426 -0.0189362 -2.3104 6.77894 -0.203597 0.00595671 
7 1 1 -0.0204527 -0.0306846 0.0203581 0 0 0 0.0608125 0.0361719 -0.00227741 -0.015772 -0.10978 0.0529337 -5.58978 -2.30289 -0.819106 0.00953074 
104 1 1 -0.00214745 -0.0288499 0.0215546 0 0 0 0.0941165 -0.0132244 0.0609884 -0.143245 0.101399 -0.0931878 -6.52016 -5.14988 -4.59354 0.00953074 
51 1 1 0.0154838 -0.0250632 0.0260254 0 0 0 0.119166 0.0232262 0.0280898 -0.241469 -0.175358 -0.0133872 5.10609 10.215 8.34041 0.00953074 
120 1 1 0.0410572 -0.0299577 0.0263399 0 0 0 -0.00855396 0.0158151 0.0993007 0.0278282 0.0139863 0.00738133 8.43492 11.6709 -0.89803 0.00953074 
19 1 1 -0.0282366 -0.0139724 0.0229795 0 0 0 0.0516882 0.059069 0.00650741 0.0940326 -0.0376983 0.0336692 6.20788 2.14936 -0.622996 0.00953074 
178 1 1 -0.0128032 -0.0187008 0.0260727 0 0 0 0.114434 0.0337296 -0.00119446 -0.118486 0.102939 -0.145995 -8.57282 4.72159 -0.188599 0.00595671 
258 1 1 -0.0018401 -0.0140245 0.0268986 0 0 0 0.211402 -0.0276039 -0.0237285 -0.086713 -0.0100115 0.0114989 -23.96 -44.8121 -1.98521 0.00595671 
278 1 1 0.0338088 -0.0182538 0.0205245 0 0 0 0.02619 0.0534874 0.0825798 -0.0183684 0.0216208 0.014444 -7.08395 -34.0278 -2.32194 0.00595671 
310 1 1 -0.0119889 -0.00770048 0.0222001 0 0 0 -0.0534249 0.0273215 -0.0960474 -0.142058 -0.0562425 0.12987 -2.35119 77.2565 3.56156 0.00595671 
184 1 1 0.0296627 -0.0105194 0.0282386 0 0 0 -0.0548523 0.0202855 0.0932179 -0.112935 0.184228 0.0858339 25.9252 0.970395 -12.872 0.00595671 
112 1 1 -0.0218006 0.00280052 0.0275707 0 0 0 0.0940272 0.0272779 0.165492 -0.360914 -0.311303 -0.195814 7.68787 -13.0769 -5.37553 0.00953074 
160 1 1 -0.0029733 -0.00128943 0.0259274 0 0 0 -0.0970297 0.0873129 -0.11608 -0.394729 -0.238722 0.386622 18.6482 -45.2044 18.9559 0.00595671 
100 1 1 0.00788261 0.0094071 0.026464 0 0 0 -0.0144691 0.0508346 0.074503 -0.0343809 -0.697655 0.163601 -11.6371 3.81455 -18.0619 0.00953074 
261 1 1 0.0443082 0.0136035 0.0242044 0 0 0 -0.0149436 0.0306272 0.104009 0.00872931 0.0136891 0.0133809 -13.7967 -12.0885 13.071 0.00595671 
28 1 1 -0.0151055 0.0184332 0.0199244 0 0 0 0.0570976 0.0234332 0.0569056 -0.051293 -0.0709098 -0.0416325 -22.6972 5.98445 15.1957 0.00953074 
246 1 1 -0.0441535 0.0269693 0.0256363 0 0 0 0.00950372 -0.021401 0.0447498 0.119014 0.172987 0.13665 5.42617 4.521 -11.0977 0.00595671 
69 1 1 -0.00322891 0.0307383 0.0277635 0 0 0 0.120966 -0.0504386 0.12927 -0.0260333 0.927746 -0.0675101 29.6448 -10.9841 -26.4167 0.00953074 
23 1 1 -0.0269665 0.0328705 0.0209779 0 0 0 0.00925746 -0.0203594 0.00868341 -0.0285873 -0.0298455 -0.138267 2.98884 9.96302 -5.26812 0.00953074 
16 1 1 0.0131662 0.0400792 0.0267127 0 0 0 0.101128 0.0299464 0.221044 -0.189115 0.0411181 0.102185 -17.6881 8.41819 32.8051 0.00953074 
61 1 1 0.0367181 0.0406185 0.0187939 0 0 0 0.000845164 0.00778385 -0.00582172 -0.437097 0.0257149 0.219243 8.80471 15.3358 10.706 0.00953074 
323 1 1 -0.0101375 0.0442812 0.0274348 0 0 0 0.190948 -0.00781943 0.168696 -0.0204264 0.0492651 -0.0576835 -29.0148 -4.50224 31.6309 0.00595671 
224 1 1 -0.0430037 -0.0442402 0.0329903 0 0 0 -0.155031 0.0084967 0.0543357 -0.0541802 -0.00368892 -0.0110533 9.20164 -16.1086 26.3729 0.00595671 
168 1 1 0.00299791 -0.0442429 0.0354903 0 0 0 -0.0150282 0.00111547 0.074711 -0.00579996 0.00492919 0.0105286 13.4414 -2.47634 2.2093 0.00595671 
125 1 1 0.043237 -0.0424461 0.0350969 0 0 0 -0.0087974 0.0128739 0.0415283 0.0599535 -0.17545 0.101075 -8.05411 -2.43027 -12.0101 0.00595671 
211 1 1 -0.0439268 -0.0332725 0.0368569 0 0 0 -0.13368 0.0110358 0.0893138 0.036066 0.204738 -0.0214687 -3.31904 14.8002 -30.6441 0.00595671 
42 1 1 -0.0111484 -0.0406573 0.03298 0 0 0 0.00173308 0.0251524 0.0423979 -0.0513831 0.00840526 -0.0785097 3.79978 -4.90642 -1.88836 0.00953074 
191 1 1 0.00459466 -0.0325847 0.0347439 0 0 0 -0.00521408 0.0350748 0.137073 -0.0291608 0.0196853 0.0016397 -5.57084 -7.15089 -6.02836 0.00595671 
3 1 1 0.0174294 -0.0407941 0.0361502 0 0 0 -0.0216878 0.0152828 0.107658 -0.0108486 0.110596 -0.29606 12.407 2.54562 2.30926 0.00953074 
271 1 1 0.0315905 -0.0400125 0.0317219 0 0 0 -0.0193801 0.0140152 0.106514 -0.00219077 -0.00247555 -0.0403015 2.38927 -2.00678 -10.1885 0.00595671 
66 1 1 -0.0407468 -0.0184049 0.0366472 0 0 0 0.0272922 0.00259071 0.0302583 -0.0225612 -0.0393948 -0.0661562 -0.76339 9.0718 1.5179 0.00953074 
134 1 1 0.0441393 -0.0154751 0.0301126 0 0 0 -0.0040605 0.0207151 0.135488 0.00374294 0.00287961 -0.0128025 0.00569805 18.6665 10.4774 0.00595671 
336 1 1 -0.0242627 -0.00910941 0.0371082 0 0 0 0.0481496 -0.0595482 0.0621842 -0.0119485 -0.0518101 -0.0398037 15.2753 1.14443 9.58612 0.00595671 
245 1 1 0.00262107 -0.0119421 0.0377291 0 0 0 -0.0506756 -0.135906 0.120184 0.0937094 -0.00164074 -0.094846 37.8243 15.9714 -8.01335 0.00595671 
18 1 1 0.0153659 -0.00704166 0.0311756 0 0 0 -0.0879927 -0.00129618 0.140638 0.557512 -0.0407156 -0.264181 6.53171 -1.61166 6.11023 0.00953074 
107 1 1 -0.0389825 -0.000224268 0.0345472 0 0 0 0.0225105 0.0307061 0.0476817 -0.187275 -0.122915 0.0963506 4.75966 1.09301 -1.4449 0.00953074 
55 1 1 0.0408601 -0.000519813 0.0297437 0 0 0 -0.0194053 0.0306013 0.0923026 -0.0346039 -0.249155 -0.113218 -9.38364 10.4347 -5.3076 0.00953074 
4 1 1 -0.00728719 0.0104418 0.0370692 0 0 0 0.0720506 0.0633711 0.244771 0.023111 0.0651926 -0.121008 6.73526 16.9215 23.3056 0.00953074 
95 1 1 0.025228 0.00941726 0.0330242 0 0 0 -0.0138229 0.0319527 0.0902806 0.0459865 -0.416326 -0.108049 0.134255 -5.74615 8.70623 0.00953074 
2 1 1 -0.032857 0.0177172 0.0300482 0 0 0 0.0327139 -0.000345684 0.066518 0.280148 0.40424 -0.130559 -3.92888 6.66914 -2.90795 0.00953074 
282 1 1 -0.020011 0.0178051 0.0378173 0 0 0 -0.00820617 -0.00775875 0.18102 -0.0447695 -0.0593731 -0.033244 -32.3758 -30.8429 -19.1225 0.00595671 
199 1 1 -0.0444202 0.0246591 0.0372019 0 0 0 0.031591 0.0421433 0.0483566 -0.181654 -0.0268604 -0.0517095 -11.4976 -6.6997 7.00415 0.00595671 
192 1 1 -0.0240379 0.0280922 0.035751 0 0 0 0.0285498 -0.000259712 0.0831121 0.000906421 0.00472035 -0.0262287 23.8039 3.29152 16.2774 0.00595671 
108 1 1 0.0272425 0.0275806 0.0284161 0 0 0 0.122267 0.0387513 0.0951613 -0.293171 -0.520354 0.310817 3.24299 26.7443 -28.7053 0.00953074 
114 1 1 0.0404389 0.0404368 0.0374447 0 0 0 -0.0211091 -0.0296522 0.0346681 0.0004692 -0.00157442 -0.0953039 2.21244 1.344 0.698918 0.00953074 
9 1 1 -0.0408969 0.0410079 0.0303215 0 0 0 0.0252728 -0.0118144 0.0467166 0.17619 0.262945 -0.0518836 -4.61043 -4.00465 4.71403 0.00953074 
248 1 1 0.000645877 0.0440491 0.034726 0 0 0 0.0855 -0.043962 0.245863 0.039018 0.0197088 0.0387103 -42.1672 12.7232 11.0549 0.00595671 
329 1 1 -0.0224488 -0.0446324 0.041827 0 0 0 0.0493021 0.000440082 0.10329 0.000569274 -0.00892055 0.0329376 17.6399 29.9155 -8.58807 0.00595671 
283 1 1 0.0304741 -0.0443006 0.0426886 0 0 0 -0.0215778 0.0130193 0.131457 0.0192875 0.0182739 -0.00171569 16.4374 -18.5952 14.9219 0.00595671 
93 1 1 -0.0272677 -0.0309035 0.0388195 0 0 0 0.0540613 0.0195078 0.111118 0.124479 -0.229268 0.123436 -12.8875 -7.88884 1.21286 0.00953074 
43 1 1 -0.00641682 -0.0247187 0.0419474 0 0 0 -0.059531 0.0180615 0.126602 -0.865507 -0.201483 0.158039 4.73291 0.100337 8.15941 0.00953074 
105 1 1 0.0308802 -0.0287817 0.0421671 0 0 0 -0.0103158 0.0229564 0.102992 -0.0922461 -0.0775509 0.339764 -1.95635 -13.3125 -8.5665 0.00953074 
52 1 1 0.012259 -0.0216863 0.0443319 0 0 0 0.067404 -0.0937421 0.0548456 -0.474077 0.322905 -0.458981 -5.7431 -14.754 24.8549 0.00953074 
259 1 1 0.0262038 -0.0144845 0.0390163 0 0 0 0.0289443 0.0266131 0.049926 0.0756961 0.0192146 -0.0128349 -6.60313 24.9692 4.84546 0.00595671 
24 1 1 -0.00973022 -0.00648247 0.044316 0 0 0 0.0554779 0.0383152 0.191271 0.278531 0.0618142 0.0153628 0.73383 -11.0196 -29.0991 0.00953074 
240 1 1 0.0183157 -0.0074957 0.0463787 0 0 0 0.0384716 -0.0501703 0.164146 0 0 -0.0217129 -5.02573 20.2406 -11.6558 0.00595671 
5 1 1 0.0405672 -0.0118457 0.0448824 0 0 0 -0.0322309 0.0219588 0.123585 0.335471 -0.0881932 -0.188483 4.29423 8.64619 -1.17904 0.00953074 
133 1 1 -0.0286534 -0.00251701 0.0461294 0 0 0 -0.116324 -0.127832 0.0986007 -0.154975 0.324913 0.130357 -18.5687 -17.9643 3.19369 0.00595671 
303 1 1 0.0283861 -0.00307271 0.0414255 0 0 0 -0.0459079 0.0177536 0.0833503 0.182292 -0.077141 0.0146709 12.7835 -34.9758 9.31304 0.00595671 
318 1 1 0.0440688 0.00393762 0.0441681 0 0 0 0.0136644 0.0314128 0.0347837 0.0159073 -0.00260861 0.0249895 8.85963 -9.4124 -3.16525 0.00595671 
208 1 1 -0.0446511 0.013094 0.0377306 0 0 0 0.00505722 0.0248501 0.0727776 0.106487 -0.000276508 0.0783474 1.44979 -13.3169 3.28538 0.00595671 
236 1 1 -0.0223555 0.00701066 0.0426232 0 0 0 -0.13977 -0.0561231 0.208698 0 0 -0.0217129 15.4128 -11.2512 17.7912 0.00595671 
335 1 1 -0.0328788 0.0187142 0.0459367 0 0 0 0.00340801 -0.101312 0.124725 -0.014251 0.0741414 -0.0466218 -30.696 -45.6112 14.9257 0.00595671 
58 1 1 0.0408088 0.0182108 0.0382863 0 0 0 -0.00522544 0.0536463 0.0998185 -0.126503 0.079114 0.0296926 5.15484 9.79264 -5.13591 0.00953074 
262 1 1 -0.0347273 0.0294368 0.0414465 0 0 0 0.0530902 -0.0457301 0.227671 0.0111347 -0.0253631 -0.0355356 59.4893 -4.39484 -7.34412 0.00595671 
292 1 1 -0.0134814 0.0310574 0.0391726 0 0 0 0.0503806 -0.0215713 0.082417 -0.0143429 0.0296055 -0.0428782 -4.5596 3.16852 -14.3135 0.00595671 
73 1 1 0.010886 0.0238265 0.0382553 0 0 0 0.0769357 -0.0747032 0.0971808 -1.32883 -0.163469 -0.410607 5.72632 2.33562 13.4606 0.00953074 
47 1 1 0.0245252 0.0339467 0.0463171 0 0 0 0.00123829 -0.00959744 0.199141 0.211059 0.230724 0.0736467 16.8871 6.10506 4.25675 0.00953074 
327 1 1 -0.0440979 0.0439716 0.0451272 0 0 0 0.0207244 0.00351994 0.0532701 -0.088337 -0.0353221 0.000460206 8.23085 -10.2224 0.925491 0.00595671 
122 1 1 -0.0251453 0.0411625 0.0422226 0 0 0 0.07424 -0.0111107 0.12806 0.035285 -0.0501716 0.0409054 -13.5607 49.1636 8.59506 0.00953074 
126 1 1 -0.0102348 0.043342 0.0392398 0 0 0 0.0656635 -0.0217294 0.163114 -0.0594925 0.0159101 -0.0740375 35.3187 -27.5208 -12.8078 0.00595671 
229 1 1 0.0141754 0.0442186 0.0414168 0 0 0 -0.0543195 -0.0180384 0.271908 0.0487358 0.00911926 0.00219044 7.41704 -28.586 6.07346 0.00595671 
314 1 1 -0.0159853 -0.0443206 0.0516354 0 0 0 -0.00460738 0.0065396 0.161246 -0.121121 -0.0292346 0.0953308 28.9849 8.27733 -0.309056 0.00595671 
265 1 1 0.0227867 -0.0441719 0.0516946 0 0 0 -0.061756 -0.00879108 0.0843657 0.0427766 -0.0613276 0.0880543 9.46141 12.42 26.0967 0.00595671 
84 1 1 -0.040594 -0.0334765 0.0518698 0 0 0 0.0107004 -0.0359091 0.0803378 -0.131618 -0.216825 0.0236902 13.3358 2.1416 4.60976 0.00953074 
307 1 1 -0.0166014 -0.0328642 0.0497521 0 0 0 -0.0420315 0.0440798 0.222533 0.153867 0.20043 -0.171723 -25.9028 4.65574 -10.5429 0.00595671 
337 1 1 -0.00613748 -0.0383849 0.0489868 0 0 0 -0.0563785 0.0193262 0.0778404 0.168183 -0.0230776 0.259211 -11.0692 20.4724 0.432208 0.00595671 
56 1 1 0.00871051 -0.0382207 0.05285 0 0 0 -0.074126 -0.0554142 0.057708 0.555199 0.847319 0.23416 -5.04635 -11.7473 -13.3526 0.00953074 
49 1 1 0.0407492 -0.0406087 0.0531404 0 0 0 -0.0164646 0.00391559 0.144467 0.136339 -0.0628014 0.108696 1.71046 15.644 0.826427 0.00953074 
326 1 1 0.0439552 -0.0259889 0.0497604 0 0 0 0.0246685 0.00419453 0.103973 -0.16507 0.0155646 -0.113544 -10.254 20.9215 0.971749 0.00595671 
81 1 1 -0.0241872 -0.0165038 0.0508532 0 0 0 0.019605 0.0435525 0.125937 -0.262148 -0.0174871 0.0375971 13.3568 12.8021 19.636 0.00953074 
332 1 1 0.0254589 -0.0170598 0.0504918 0 0 0 0.0202139 0.111535 0.0918044 -0.0307936 -0.0555159 0.080598 3.14112 6.91536 -13.4555 0.00595671 
220 1 1 -0.0440647 -0.00747585 0.0472132 0 0 0 0.00534178 -0.0960028 -0.0234106 0.0177726 -0.00820108 0.018315 12.3436 -14.9529 18.2575 0.00595671 
10 1 1 0.00537941 -0.00585276 0.0558495 0 0 0 0.0546465 0.0290455 0.243385 0.064962 0.0740575 0.618703 -14.1173 5.33611 16.0491 0.00953074 
197 1 1 -0.0202945 -0.00202938 0.0546709 0 0 0 -0.0293744 0.108396 0.0768786 -0.0359617 0.00962004 -0.0199935 21.1963 -21.0391 6.5814 0.00595671 
32 1 1 -0.0404438 0.00682735 0.05208 0 0 0 -0.0972673 -0.0454211 0.0814502 0.450649 0.162178 0.160626 0.421498 -8.42292 -3.92412 0.00953074 
115 1 1 -0.00266558 0.0112014 0.0551579 0 0 0 0.0243107 0.0198802 0.26772 -0.237228 -0.0867577 -0.482916 1.49644 -21.0432 -8.44622 0.00953074 
15 1 1 0.0152129 0.00868896 0.0489381 0 0 0 -0.035329 0.026118 0.0672955 0.365215 -0.230744 -0.0236164 -3.8229 1.1575 -5.30304 0.00953074 
298 1 1 0.0304643 0.0109371 0.0475175 0 0 0 -0.0458099 0.154139 0.104466 -0.0154274 0.00373776 -0.0262281 -13.9652 2.16598 9.50909 0.00595671 
291 1 1 0.044144 0.0126608 0.0522021 0 0 0 -0.0121269 -0.0160645 0.0957256 0.102665 0.00614858 -0.0351151 2.27142 -1.82113 -4.09999 0.00595671 
117 1 1 -0.0193316 0.021975 0.0525303 0 0 0 -0.0450057 0.0548244 0.197919 -0.478211 -0.0300263 -0.107261 8.71123 15.6742 -1.91435 0.00953074 
140 1 1 0.00835822 0.0215302 0.0533421 0 0 0 0.0273892 0.0199298 0.142837 -0.287248 -0.121053 0.050673 -8.47353 53.2509 13.6531 0.00595671 
39 1 1 -0.0401017 0.0288252 0.0558435 0 0 0 -0.0388602 -0.208867 0.18953 -0.0985315 -0.297783 -0.15069 -16.7185 -6.41864 -2.08397 0.00953074 
99 1 1 -0.00298859 0.0310396 0.049975 0 0 0 -0.0113193 -0.0226302 0.162597 -0.0652947 0.124623 -0.0854927 -12.8863 -12.7154 -7.56811 0.00953074 
106 1 1 0.0404085 0.0279201 0.0545723 0 0 0 -0.0277093 0.00165522 0.173081 0.286445 -0.0301635 0.127204 4.92657 -14.8244 9.46012 0.00953074 
174 1 1 -0.0344268 0.0439133 0.0542689 0 0 0 -0.0456001 -0.0144508 0.0485736 0.0153824 -0.0291269 -0.102489 -0.812804 -26.4582 9.50309 0.00595671 
315 1 1 -0.00977126 0.0441059 0.0555685 0 0 0 -0.0571319 -0.00135307 0.0258766 0.0491186 -0.158076 0.080102 -7.63573 22.5974 -8.31656 0.00595671 
158 1 1 0.00213322 0.0443983 0.0547457 0 0 0 -0.0167141 0.000822023 0.085328 0.0843692 0.0951738 0.0559065 -13.7768 -30.0248 -4.58912 0.00595671 
203 1 1 0.0427662 0.0432294 0.0524828 0 0 0 -0.0393578 0.0513305 0.0363734 0.000774766 0.00110664 -0.0201079 -24.6185 -4.82489 -15.0331 0.00595671 
190 1 1 -0.003881 -0.0440271 0.0598961 0 0 0 -0.22374 0.0192103 -0.00813162 0 0 -0.0217129 -7.70109 -6.04382 15.6547 0.00595671 
189 1 1 0.0287703 -0.0440643 0.0622578 0 0 0 -0.0278211 0.0113616 0.175161 -0.00425112 -0.0105643 0.00936238 11.6291 -15.8234 -13.5298 0.00595671 
6 1 1 -0.0264013 -0.0405473 0.0620917 0 0 0 -0.0168856 0.0140279 0.156385 0.0215191 -0.131931 0.0261483 -18.6355 -7.0214 -2.2703 0.00953074 
313 1 1 -0.0137201 -0.0261818 0.0591029 0 0 0 0.0849911 0.0847016 0.182445 -0.0108199 0.0352403 -0.0515675 13.815 9.34508 -6.58612 0.00595671 
137 1 1 -0.0020971 -0.0281675 0.0574539 0 0 0 0.0685129 0.0682232 0.101008 -0.098439 -0.0536532 -0.0580136 34.3451 -4.15989 -10.176 0.00595671 
227 1 1 0.0113346 -0.0269179 0.0659951 0 0 0 -0.0145259 0.0932272 0.204177 -0.0102768 0.0286993 -0.0211566 12.2997 -16.4712 -15.8748 0.00595671 
91 1 1 0.0255037 -0.0289493 0.0602295 0 0 0 -0.0759078 0.0691588 0.0710077 -0.105798 0.0220916 -0.160007 4.4411 6.36628 -15.0399 0.00953074 
247 1 1 0.0407397 -0.0265835 0.0611597 0 0 0 -0.0294248 0.0422072 0.111358 0.00712334 -0.0339509 0.0504157 0.255144 -28.2592 10.656 0.00595671 
36 1 1 -0.040762 -0.0163352 0.0596494 0 0 0 0.00489172 -0.0723804 0.13307 0.0916423 0.14538 -0.156681 -6.04985 -13.0075 -7.80341 0.00953074 
215 1 1 0.0330364 -0.0159316 0.0592768 0 0 0 -0.00210901 0.0389902 0.148703 0.0362989 0.0548053 -0.117856 8.61493 -14.4171 8.40544 0.00595671 
217 1 1 0.0444323 -0.0152407 0.0598226 0 0 0 0.00115764 0.0383111 0.126568 0.000535829 0.00564541 -0.0463659 -0.0479358 20.9837 -7.28718 0.00595671 
276 1 1 0.0186751 -0.0128811 0.0594347 0 0 0 0.0472138 0.00533539 0.207534 0.00324626 0.00506671 -0.00496787 20.3181 6.2407 15.0518 0.00595671 
306 1 1 -0.0440951 -0.00196793 0.0641846 0 0 0 -0.00322886 -0.0577264 0.100734 -0.137116 -0.0368105 -0.0182816 7.2484 10.6672 10.4037 0.00595671 
182 1 1 -0.0314443 -0.00415695 0.0581361 0 0 0 -0.0161309 -0.0322222 0.0635703 0.0577073 0.0243645 0.0284554 -4.24958 21.9466 16.2531 0.00595671 
87 1 1 0.0288947 -0.00164622 0.0567793 0 0 0 -0.0165288 0.0419193 0.0754549 -0.0792509 -0.0688437 0.125158 -15.8313 11.7855 -3.99119 0.00953074 
148 1 1 0.0441472 -0.00360239 0.0573563 0 0 0 -0.00260441 0.0588007 0.0884527 -0.00732186 -0.0574713 -0.0923087 -12.8996 -6.29186 4.4746 0.00595671 
57 1 1 -0.0190765 0.00847775 0.0659383 0 0 0 -0.138344 0.0128953 0.183298 0.705533 -0.438823 -0.161945 -0.230046 -5.06283 -9.23767 0.00953074 
338 1 1 0.043422 0.00819161 0.0631145 0 0 0 0.00272869 -0.0852084 0.0770087 -0.226975 0.103751 0.0508537 12.3185 18.4585 -29.3107 0.00595671 
250 1 1 -0.0293665 0.0197133 0.0638766 0 0 0 0.0644205 -0.0841753 0.306957 -0.281424 0.210708 -0.0705237 23.1454 8.96657 6.27415 0.00595671 
263 1 1 0.00604305 0.0188516 0.0656048 0 0 0 -0.0174212 0.161414 0.320436 0 0 -0.0217129 5.59798 17.9877 19.2228 0.00595671 
266 1 1 0.0187142 0.0207866 0.0589269 0 0 0 0.162024 0.0964766 -0.0533668 -0.0501393 0.100798 -0.0130612 25.928 -23.4693 31.7999 0.00595671 
35 1 1 -0.0224713 0.0380289 0.0621017 0 0 0 -0.0771372 0.0704603 0.182215 -0.0904945 -0.368873 0.154872 -11.7403 -6.76598 3.53904 0.00953074 
113 1 1 0.0119983 0.0342455 0.0608517 0 0 0 -0.00518074 0.00443582 0.167844 0.145674 -0.289276 -0.0391502 12.6793 9.74718 -0.926227 0.00953074 
76 1 1 0.0293348 0.0407041 0.0636742 0 0 0 0.0035308 -0.00600716 0.139007 0.00789992 -0.0596383 0.0105979 -14.6886 -8.06926 -0.839442 0.00953074 
124 1 1 0.0442105 0.0442036 0.064372 0 0 0 0.0042195 -0.0035964 0.0795227 -0.103743 0.00221571 -0.034482 -12.7661 14.2626 0.704148 0.00595671 
252 1 1 -0.0375376 -0.0441684 0.0718924 0 0 0 0.00784325 0.0223394 0.266928 0.0255441 0.0985316 0.0114052 40.564 35.4901 -9.79483 0.00595671 
109 1 1 0.0154037 -0.0408758 0.0703584 0 0 0 -0.0542717 0.0291227 0.0638716 -0.194575 -0.407027 -0.171117 8.5362 10.5048 5.79217 0.00953074 
186 1 1 0.0439721 -0.0441115 0.0677726 0 0 0 0.0954188 0.000421818 0.127976 -0.112406 -0.00319588 -0.00867377 -0.864395 -5.99364 -0.45209 0.00595671 
230 1 1 -0.0395338 -0.0326638 0.0672651 0 0 0 0.129207 -0.16591 0.105955 0.00306509 -0.0190454 -0.00427399 1.97852 15.7379 -16.933 0.00595671 
79 1 1 -0.0119044 -0.0395686 0.0742318 0 0 0 0.00469037 0.123811 0.13172 0.0285959 0.141172 0.066389 -3.18305 8.39521 -1.26824 0.00953074 
165 1 1 0.0440912 -0.0326366 0.0707708 0 0 0 -0.020991 0.0160412 0.130529 0.0933454 -0.0399689 -0.0375577 6.81536 16.7374 1.63958 0.00595671 
147 1 1 -0.0438747 -0.0244246 0.0746651 0 0 0 0.004292 -0.138241 0.0315525 -0.00230327 0.00295491 -0.0218942 -31.584 -0.575588 59.6756 0.00595671 
75 1 1 -0.0253536 -0.0227573 0.0688135 0 0 0 -0.0201417 0.0588069 0.0899036 0.218451 -0.545724 0.204414 3.60508 -1.3671 4.19122 0.00953074 
26 1 1 -0.00577518 -0.0159079 0.0674166 0 0 0 0.0820948 0.0427425 0.268586 -0.424192 0.277783 -0.423241 -0.145309 -12.27 -1.06914 0.00953074 
209 1 1 0.00974971 -0.0154654 0.06679 0 0 0 0.089469 0.106871 0.30952 0.0175421 0.00417158 0.0304884 11.4859 -19.6397 -4.83207 0.00595671 
59 1 1 0.0252275 -0.016024 0.0741436 0 0 0 -0.00887406 0.0608276 0.128167 -0.0237585 0.0652596 -0.0760923 1.00897 -6.87886 4.95386 0.00953074 
169 1 1 0.0437601 -0.0198272 0.0706691 0 0 0 0.0689998 0.0148157 0.149444 -0.0142278 -0.0170868 -0.0246226 1.22688 -10.1564 11.0939 0.00595671 
145 1 1 -0.0427605 -0.0124625 0.0744097 0 0 0 -0.129855 -0.133584 0.144433 0.107384 0.0319624 0.0303974 26.7038 -17.5 -39.439 0.00595671 
204 1 1 -0.0181264 -0.00685119 0.0690696 0 0 0 -0.00871641 -0.0245049 0.105912 -0.0182053 -0.0115093 -0.00566382 -8.04556 -8.40684 20.5413 0.00595671 
325 1 1 0.0378764 -0.00912361 0.067598 0 0 0 -0.0522891 -0.0113636 0.177399 -0.0954925 -0.242244 0.260083 -0.0222781 -19.0356 -26.0589 0.00595671 