ITEM: TIMESTEP
43050
ITEM: NUMBER OF ATOMS
338
ITEM: BOX BOUNDS mm mm mm
-0.05 0.05
-0.05 0.05
0 0.15
ITEM: ATOMS id type type x y z ix iy iz vx vy vz fx fy fz omegax omegay omegaz radius 
319 1 1 -0.0146485 -0.0443547 0.00614529 0 0 0 -0.000422831 -0.00511564 -0.00175314 -0.00448905 -0.000196382 0.00444261 0.08243 -0.505101 0.566994 0.00663637 
243 1 1 -0.00277043 -0.0437473 0.00610121 0 0 0 0.00336601 -0.00475605 0.000194977 0.00394865 -0.0104681 0.0115551 0.424833 0.556997 -0.885093 0.00663637 
260 1 1 0.0251509 -0.0436368 0.00614542 0 0 0 0.00479969 -0.00289245 -0.00327237 0.0112713 -0.00779569 -0.0069666 0.0317415 0.254022 -0.0692748 0.00663637 
131 1 1 -0.0256453 -0.039751 0.00580231 0 0 0 -0.00112444 -0.0124445 -0.00482702 -0.00265812 0.00574174 0.00424589 1.18753 -0.108281 0.932291 0.00663637 
173 1 1 -0.0155638 -0.0318616 0.005752 0 0 0 0.000724998 -0.00960632 0.000544057 0.000398196 0.00313616 -0.00314298 0.922682 0.0448603 -1.24344 0.00663637 
296 1 1 -0.027431 -0.0273695 0.00627519 0 0 0 -0.00247782 -0.011868 0.000196492 0.00262727 0.012862 -0.00717942 0.0783572 -0.350517 0.58448 0.00663637 
275 1 1 -0.00359751 -0.0295773 0.0058712 0 0 0 0.00290645 -0.0200076 0.000245679 0.00794788 -0.0194131 0.0136339 2.4071 0.259844 1.11144 0.00663637 
144 1 1 0.0426569 -0.0249359 0.00614636 0 0 0 0.00909489 0.00124019 -0.0018981 0.0179858 0.000705926 -0.00353207 0.0349682 0.967024 0.0731837 0.00663637 
102 1 1 -0.0404637 -0.017004 0.00911849 0 0 0 0.00010216 -0.00842874 0.000276022 0.0851033 0.174897 0.0513101 0.226303 0.0258599 -0.382914 0.0106182 
328 1 1 -0.025393 -0.0152345 0.005597 0 0 0 -0.00131012 -0.015574 0.00656779 0.0210576 0.0132201 -0.0222398 2.18819 -0.653894 -0.975953 0.00663637 
267 1 1 0.0153657 -0.0200623 0.00595303 0 0 0 0.00552672 -0.00352635 -0.005426 4.48263e-05 -0.00424902 -0.0115487 0.430484 0.632284 0.381081 0.00663637 
202 1 1 0.0449252 -0.0129985 0.00627384 0 0 0 0.00656956 0.00169184 -0.00270946 0.000577071 -0.00482493 -0.00890975 -0.144568 -0.0273316 -0.0458698 0.00663637 
257 1 1 -0.0440511 -0.0011568 0.00628956 0 0 0 0.0056124 -0.00194203 0.00494893 -0.0196202 0.0559503 0.0471924 0.546969 -0.315057 -0.792571 0.00663637 
268 1 1 -0.0324644 0.00354948 0.00638319 0 0 0 0.0175476 -0.00433849 -0.0158512 -0.00295841 0.0857059 0.0995351 -1.17808 4.79416 -1.14895 0.00663637 
274 1 1 -0.021909 -0.00392128 0.00799948 0 0 0 0.0173539 -0.0150184 -0.0291561 0.041344 0.0419725 0.0119118 -8.1778 2.5134 -2.75386 0.00663637 
164 1 1 0.0204205 0.00155976 0.00565854 0 0 0 0.00788449 0.00202917 -0.00308105 -0.00598157 0.00518592 0.010058 -0.0469678 0.81521 -0.699172 0.00663637 
232 1 1 -0.0433663 0.011712 0.00633116 0 0 0 0.00390389 0.0056365 0.00187855 0.106048 0.091446 0.0664185 -1.13653 1.56057 2.59877 0.00663637 
171 1 1 -0.0209136 0.00787483 0.00853025 0 0 0 0.0108076 -0.00530051 -0.0302727 0.00288569 0.076757 0.0731555 6.55719 -2.42129 3.42927 0.00663637 
297 1 1 -0.0250432 0.0192654 0.00585077 0 0 0 -0.00424741 0.00301476 0.00254991 -0.0225018 0.0698066 0.0516817 -0.377017 0.0901405 -0.413247 0.00663637 
222 1 1 -0.0106926 0.0145117 0.00577824 0 0 0 -0.00362038 -0.0038656 -0.00271698 -0.00909702 0.0460603 0.0340835 0.514687 -0.356748 -0.358508 0.00663637 
290 1 1 -0.000721256 0.0213444 0.00552973 0 0 0 -0.00172923 -0.00380609 -0.000986708 -0.0249804 8.69836e-05 0.0070968 1.3835 0.143937 -0.601659 0.00663637 
316 1 1 0.0322072 0.0195632 0.00540142 0 0 0 0.00238565 0.000759225 0.00265406 -0.0110016 -0.0114462 0.0298479 1.00443 1.12859 -0.00529293 0.00663637 
162 1 1 0.0444573 0.0201097 0.0057111 0 0 0 0.00513778 0.00255803 -0.00317958 0.0120582 -0.00876418 -0.00407055 -0.526919 0.0767475 -0.467682 0.00663637 
294 1 1 -0.0438318 0.025126 0.00621333 0 0 0 0.00192475 0.00387203 0.00561126 0.0200449 0.0441259 0.0337233 -1.57552 -0.252945 -0.257255 0.00663637 
175 1 1 -0.0328006 0.031322 0.00616192 0 0 0 0.00595199 0.00220866 -0.000816622 0.0331589 -0.00879046 -0.0294556 -0.623291 0.685918 0.612185 0.00663637 
255 1 1 -0.0147831 0.025947 0.00604791 0 0 0 0.00400088 -0.00181702 -0.00170868 -0.00804486 0.0642901 0.0119856 0.470313 0.350776 -1.29906 0.00663637 
155 1 1 0.0374899 0.0309691 0.00585125 0 0 0 0.00527866 0.00471904 0.000834174 0.00682546 -0.0211412 0.0231844 0.0335569 2.62627 1.07735 0.00663637 
324 1 1 -0.00338459 0.0325681 0.0057645 0 0 0 0.00689898 0.00244095 0.00854451 -0.0624195 -0.0377865 0.0373659 -0.34438 -1.01314 -0.563365 0.00663637 
161 1 1 0.00822919 0.0320533 0.00680567 0 0 0 0.00549133 0.00480535 0.0110583 -0.0847987 -0.0482137 0.0952503 -3.72937 3.61262 0.194684 0.00663637 
321 1 1 -0.0439076 0.0437538 0.00631391 0 0 0 -0.00193551 -0.00204758 -0.00463321 -0.00256043 -0.000490968 -0.00480755 1.17066 4.0498e-05 -0.197283 0.00663637 
207 1 1 -0.0313949 0.0438242 0.00634198 0 0 0 0.00103973 -0.0004071 -0.000566721 0.0197134 0.0109794 -0.011996 0.360736 -0.368625 -0.0236264 0.00663637 
149 1 1 0.0118813 0.0437907 0.00562502 0 0 0 0.00376769 0.000438991 0.00154669 -0.0530795 -0.0126509 0.000964744 0.898868 -0.388776 0.186317 0.00663637 
249 1 1 0.0275588 0.0439513 0.00633626 0 0 0 0.00907623 0.00563526 0.00303609 -0.0229591 0.00252922 0.0291695 -0.94395 0.838946 1.65133 0.00663637 
289 1 1 0.0441816 0.0419673 0.00607344 0 0 0 -0.00202932 0.00889606 -0.0102656 -0.0311496 -0.0161466 -0.00732023 -1.30157 -1.53186 -0.893281 0.00663637 
299 1 1 -0.0244643 -0.0447749 0.0168778 0 0 0 -0.000716919 -0.0138053 -0.00376251 -0.0118586 0.0175537 0.0247619 -0.222883 -1.05721 -0.00363789 0.00663637 
225 1 1 -0.0116119 -0.0440008 0.018714 0 0 0 0.00369174 -0.00968244 -0.000878192 -0.00593274 0.0170593 0.0137806 0.219804 0.66504 0.31852 0.00663637 
130 1 1 0.0208055 -0.0440937 0.0181183 0 0 0 0.00446018 -0.00294532 -0.000764612 0.0141927 -0.00499025 0.00574807 -0.544941 -1.07758 -0.252582 0.00663637 
74 1 1 -0.0406274 -0.0364803 0.00969777 0 0 0 -0.00674955 -0.0143344 -0.00423123 -0.0224 0.0483988 0.0441919 0.797759 -0.199177 -0.943118 0.0106182 
60 1 1 0.0104409 -0.0358445 0.00967145 0 0 0 0.00913884 -0.00886317 -0.00435476 0.0768608 -0.0701045 -0.00191692 0.293514 0.434622 0.405732 0.0106182 
78 1 1 0.0411081 -0.0406962 0.00938158 0 0 0 0.00469622 -0.00140868 -0.00102196 0.0425393 -0.0162992 -0.00695184 0.0473266 0.0400264 -0.232656 0.0106182 
67 1 1 0.027665 -0.027988 0.0128679 0 0 0 0.00807942 -0.00174142 -0.00286241 0.0383578 -0.0408466 -0.028936 -0.0653283 -0.463305 0.0785608 0.0106182 
40 1 1 -0.0106588 -0.0158074 0.0107881 0 0 0 0.00186226 -0.0256924 0.00336318 0.0643868 0.00441565 -0.0265936 -1.4845 0.905828 -0.371494 0.0106182 
279 1 1 0.00430466 -0.0207657 0.0110975 0 0 0 0.00468497 -0.0140754 -0.00206977 0.00877336 -0.00897077 0.0139915 -0.813539 0.308597 0.954015 0.00663637 
96 1 1 0.0118647 -0.00734952 0.0161278 0 0 0 0.00552326 -0.00440389 -0.00227471 -0.07515 -0.00723981 -0.00383185 -0.0803679 -0.388148 0.34824 0.0106182 
50 1 1 0.0304029 -0.00926291 0.00989353 0 0 0 0.00756452 0.000593429 -0.00295996 -0.00513631 -0.0542928 -0.021041 -0.130173 0.261902 0.117588 0.0106182 
183 1 1 0.0444526 -0.00702619 0.0175103 0 0 0 0.0067375 0.0007573 0.00176266 0.0103253 -0.0205787 0.00600346 0.630675 -0.318703 -0.238791 0.00663637 
17 1 1 -0.00506393 0.00257646 0.0145638 0 0 0 0.000483871 -0.0142502 -0.00525987 -0.143215 0.119866 0.17272 0.622762 -0.0830191 0.73528 0.0106182 
98 1 1 0.0121361 0.0133825 0.0100257 0 0 0 0.00375493 0.00301973 -0.0031226 -0.0766475 0.0601626 0.14529 -0.668453 0.124458 1.12833 0.0106182 
94 1 1 0.0382661 0.00820991 0.0138603 0 0 0 0.00403924 0.00503744 -0.00152033 0.0474669 -0.100789 -0.026726 -0.170979 -0.812829 0.657671 0.0106182 
300 1 1 -0.0443489 0.0186636 0.0170791 0 0 0 0.00391766 0.0045689 0.0173958 0.0283337 0.0933749 0.146346 2.61639 -0.497368 0.981114 0.00663637 
273 1 1 -0.0322834 0.0184374 0.0157702 0 0 0 0.00220749 0.016811 0.0182506 0.0281572 0.156598 0.170703 -2.14732 0.655019 1.32549 0.00663637 
286 1 1 -0.00145724 0.0182996 0.0171274 0 0 0 -0.00398005 -0.00144815 -0.00356748 -0.00489198 0.0460047 0.0358306 -2.05409 -0.286054 1.55649 0.00663637 
77 1 1 0.0226236 0.0295266 0.0126186 0 0 0 -0.000109344 0.00623411 0.00655207 -0.235166 0.0353857 0.279331 -0.160397 -2.47244 -1.15915 0.0106182 
284 1 1 0.0444673 0.0273838 0.0156941 0 0 0 0.00531039 0.00792353 -0.00757171 -0.0212158 -0.0329233 0.00991319 -1.2572 -1.70426 -1.39035 0.00663637 
305 1 1 -0.043545 0.0344951 0.0153323 0 0 0 0.0036472 0.012915 0.003309 0.0111674 0.0107972 -0.0495606 -4.98598 0.60091 1.72435 0.00663637 
38 1 1 -0.0154346 0.0413148 0.00969852 0 0 0 0.00893292 0.00282063 0.00127479 -0.0653243 0.13847 -0.0948036 -0.256615 0.318085 0.662295 0.0106182 
237 1 1 0.000850112 0.0437134 0.0119536 0 0 0 0.00926221 0.00190758 0.0056953 -0.0420189 0.00831541 -0.0368881 -0.577462 -0.278682 -0.595317 0.00663637 
239 1 1 0.0187048 0.0445772 0.0155961 0 0 0 0.00682437 -0.00136224 0.0162538 -0.035105 0.00621516 0.0424427 0.340753 1.993 1.51437 0.00663637 
331 1 1 -0.0430092 -0.0451918 0.0218751 0 0 0 -0.00850184 -0.0111086 -0.00465452 -0.00722569 -0.00593667 0.00481059 -1.02674 1.5002 0.769628 0.00663637 
242 1 1 0.000936804 -0.0443686 0.0196656 0 0 0 0.00768785 -0.0106159 -0.000592425 0.00541796 -0.00750488 0.0138824 0.0703364 -0.355195 -0.977864 0.00663637 
167 1 1 0.0319094 -0.0441521 0.0228292 0 0 0 0.00214347 -0.000914323 0.00187398 0.00355612 -0.00488751 0.010672 -0.01694 0.332963 -0.152771 0.00663637 
136 1 1 0.0441241 -0.0445357 0.0241545 0 0 0 0.0031139 -0.00239583 0.00108224 0.00960039 -0.00982835 0.00460086 -0.0268272 -0.113228 -0.0723824 0.00663637 
180 1 1 -0.0439909 -0.033749 0.0266016 0 0 0 -0.00432767 -0.00575553 -0.00404517 -0.00189077 0.0164928 -0.0113583 0.0119081 0.340657 -0.220756 0.00663637 
256 1 1 -0.0325287 -0.0396974 0.0255443 0 0 0 -0.00584022 -0.0245661 -0.00513606 -0.0150336 0.0385311 0.0217129 4.03969 -0.679603 -1.99588 0.00663637 
179 1 1 -0.0344097 -0.0259866 0.0212045 0 0 0 -0.0048599 -0.0204634 0.0088904 0.0144051 0.0629829 0.017886 0.187617 -1.2249 -0.443573 0.00663637 
7 1 1 -0.0198703 -0.0301848 0.0211695 0 0 0 -0.000236909 -0.0177614 0.00696076 -0.0346322 0.246316 -0.0211796 0.562353 0.391371 0.23329 0.0106182 
104 1 1 -0.000204934 -0.0284506 0.0247484 0 0 0 0.00465696 -0.0111208 0.000657552 0.0274202 0.0846289 0.00420058 -0.252894 -0.240079 0.770063 0.0106182 
128 1 1 -0.0447804 -0.021649 0.0238184 0 0 0 -0.00403359 -0.00685206 0.000478971 0.0032695 0.0260151 0.00483494 0.325029 -0.350745 -1.15637 0.00663637 
278 1 1 0.0327405 -0.0164225 0.0241889 0 0 0 0.00878097 0.00486241 0.000374358 0.0152284 -0.00274019 -0.00373913 -0.22117 -0.346903 -0.277027 0.00663637 
146 1 1 -0.0446079 -0.00932387 0.022413 0 0 0 0.0016479 0.00517957 0.00246824 0.0198667 0.0671721 0.116539 -0.866933 -0.11822 0.537132 0.00663637 
19 1 1 -0.0260378 -0.0119634 0.0276351 0 0 0 -0.0125241 -0.00398995 0.0029018 0.0685423 0.628833 0.163089 -0.814366 0.406814 1.6063 0.0106182 
258 1 1 0.00112888 -0.0123387 0.0273928 0 0 0 -0.00582982 0.00112886 -0.0029609 -0.02656 0.0311801 -0.00285267 -1.04917 -1.36578 -1.10666 0.00663637 
25 1 1 -0.0373169 0.00462098 0.0227052 0 0 0 0.0090221 0.0224708 0.0194533 0.254898 0.727355 0.938801 0.764754 -2.25336 -0.420801 0.0106182 
28 1 1 -0.0165287 0.0181157 0.020593 0 0 0 -0.000853649 0.0105203 0.00630837 0.145494 0.459499 0.325047 -2.13233 1.33508 -1.90184 0.0106182 
261 1 1 0.0430135 0.017357 0.0271351 0 0 0 0.0151038 -0.00600031 0.00683841 0.0182846 -0.0536278 0.000973028 3.85543 2.9269 -1.72205 0.00663637 
246 1 1 -0.0440504 0.0259676 0.0275434 0 0 0 -0.00142866 0.0140649 0.0230096 -0.0232747 0.0283107 0.0818562 -9.18603 -4.32926 -0.103834 0.00663637 
320 1 1 0.00424001 0.0292979 0.0187261 0 0 0 0.0143011 -0.00666018 0.0436786 0.0210335 0.00907404 0.0970822 8.7316 -1.67949 -4.23073 0.00663637 
23 1 1 -0.0279925 0.0331313 0.0218479 0 0 0 0.00835656 0.0291013 0.00186533 -0.0159077 0.507606 -0.147167 -2.09308 -0.539185 -1.35931 0.0106182 
61 1 1 0.0369245 0.0406816 0.0205484 0 0 0 0.00614664 0.00770453 -0.00675057 -0.203966 -0.0390261 0.109312 0.520492 2.43951 0.707556 0.0106182 
224 1 1 -0.0437432 -0.0442607 0.034227 0 0 0 0.000236941 -0.00379208 -0.00116059 0.0071 0.00288766 0.00505133 -0.270018 0.0758223 -0.0365674 0.00663637 
125 1 1 0.0437495 -0.0439123 0.0368896 0 0 0 0.00237627 -0.00162553 0.0041943 0.00910494 -0.00186725 0.00886281 0.215816 0.127976 -0.215887 0.00663637 
42 1 1 -0.0119453 -0.040529 0.0355776 0 0 0 0.00484524 -0.0143757 0.0008057 -0.0236679 0.0722413 -0.0394054 -0.449941 -0.430749 0.100029 0.0106182 
271 1 1 0.0312907 -0.0405929 0.0344059 0 0 0 0.00394984 -0.00121901 0.00123025 0.00821844 -0.00524381 0.0131722 0.219978 -0.274298 0.348172 0.00663637 
51 1 1 0.0183433 -0.0229125 0.0302248 0 0 0 0.00442022 0.00153943 -0.000314199 0.000387717 0.0141384 -0.0136235 -0.176424 0.0804612 0.0671706 0.0106182 
120 1 1 0.0407163 -0.029602 0.0290988 0 0 0 0.00449119 0.0015006 0.00103979 0.0204621 -0.00989503 0.0142566 -0.160149 0.130603 -0.159044 0.0106182 
178 1 1 -0.0124752 -0.0206102 0.0320845 0 0 0 0.00115604 -0.00223131 9.5e-06 -0.00133669 0.0648734 -0.0169021 -1.09865 1.34143 0.11673 0.00663637 
134 1 1 0.0439061 -0.01442 0.0327359 0 0 0 0.00253144 0.0021239 0.00092716 -0.00257822 -0.00119257 0.00696112 0.403499 -0.0192515 0.155083 0.00663637 
310 1 1 -0.0102746 -0.00893436 0.0300089 0 0 0 -0.0149792 0.012253 -0.0120487 0.00596653 0.0674664 0.0611719 -0.61773 -0.183751 1.01548 0.00663637 
18 1 1 0.0122598 -0.00461791 0.0365966 0 0 0 0.000919622 0.00502191 0.00388244 0.0123217 0.049602 -0.0323221 0.257561 0.420507 0.374121 0.0106182 
184 1 1 0.0276137 -0.00825922 0.0329229 0 0 0 0.00402385 0.00703868 0.000856542 0.00565842 -0.00966561 -0.016147 0.473321 -0.456 0.123634 0.00663637 
160 1 1 -0.00242403 0.000566921 0.0309787 0 0 0 -0.0115485 0.00841928 -0.00229781 0.00671099 0.0340585 0.049253 -1.18272 -2.46433 -0.678128 0.00663637 
55 1 1 0.0404981 0.00134419 0.0323594 0 0 0 0.00401336 0.00535691 0.00196569 -0.0226437 -0.0127854 -0.0157159 -0.390592 0.27982 -0.356032 0.0106182 
112 1 1 -0.0176444 0.00457488 0.0352221 0 0 0 -0.0121687 0.0290286 0.0155511 0.145726 0.429123 0.315677 2.08043 2.66383 -2.09641 0.0106182 
2 1 1 -0.031397 0.0193626 0.0354104 0 0 0 0.00940409 0.0752076 0.0701196 0.37982 0.471956 0.446888 -2.78176 3.49188 1.294 0.0106182 
100 1 1 0.00672723 0.0137312 0.0299953 0 0 0 0.00569405 0.0139237 0.00650652 -0.109666 0.100659 0.120989 0.274837 0.430609 -1.02625 0.0106182 
69 1 1 -0.00624707 0.0294703 0.034154 0 0 0 -0.0069494 0.0227312 0.0162669 -0.0689471 0.0244076 0.48576 0.213446 -6.15343 1.14953 0.0106182 
108 1 1 0.0262994 0.0287747 0.03269 0 0 0 0.0143371 0.00301301 0.0230326 -0.270869 0.111756 0.339497 0.722498 6.74093 -3.24336 0.0106182 
16 1 1 0.0106605 0.0405869 0.0290621 0 0 0 0.0147284 -0.00218003 0.068212 -0.294676 0.0202742 0.281254 -4.0494 -0.014888 1.27265 0.0106182 
9 1 1 -0.040744 0.0414664 0.0323283 0 0 0 0.000332932 0.0178281 -0.0109371 -0.0469843 0.200664 -0.30621 2.15106 -0.56812 0.779646 0.0106182 
323 1 1 -0.0111859 0.0439985 0.0280636 0 0 0 0.0980755 0.0121248 -0.0869191 0.0255653 0.00670185 0.167422 12.4708 -76.3851 15.6353 0.00663637 
329 1 1 -0.023989 -0.0445559 0.0452592 0 0 0 0.00287454 -0.00847657 0.00182577 -0.0199077 -0.00854775 -0.0160163 -0.0996191 1.04299 -0.72809 0.00663637 
168 1 1 0.00180995 -0.0446993 0.0400718 0 0 0 0.00283207 -0.00773367 0.00474451 -0.00425109 0.00306399 -0.00298004 0.50967 0.410008 0.237027 0.00663637 
283 1 1 0.0308784 -0.0443259 0.045941 0 0 0 0.0041436 -0.00331001 0.00023973 0.00407703 -0.00869761 0.0120022 0.000617734 -0.0399609 -0.0690264 0.00663637 
211 1 1 -0.0436797 -0.0330313 0.0392014 0 0 0 -0.00485473 -0.00646659 -0.00130413 0.0130554 0.0100493 0.00933382 0.562055 -0.0862005 0.560398 0.00663637 
191 1 1 0.00301696 -0.0321764 0.0407112 0 0 0 0.00174672 -0.00575179 0.00285655 -0.00377411 0.0197996 -0.00699631 -0.636941 0.28634 0.269081 0.00663637 
3 1 1 0.0166175 -0.0406651 0.0394371 0 0 0 0.00211888 -0.0032959 0.000327492 -0.000707681 0.00441427 0.00319192 0.08409 0.125453 0.0312663 0.0106182 
93 1 1 -0.0268883 -0.0291791 0.0421295 0 0 0 -0.00328533 -0.0150217 -0.0100807 -0.0277347 0.072209 -0.00735344 -1.31907 0.513891 1.01005 0.0106182 
105 1 1 0.0302067 -0.0279773 0.0465873 0 0 0 0.00309703 0.00296305 0.0049669 0.0141004 -0.0114853 0.0425213 0.20189 -0.26947 0.0460114 0.0106182 
66 1 1 -0.0413314 -0.0169158 0.0389604 0 0 0 -0.00184072 -0.00696155 -0.00301747 -0.023831 0.173291 -0.0248917 -0.455662 0.446992 -1.26756 0.0106182 
336 1 1 -0.0239103 -0.0123929 0.0447271 0 0 0 -0.0420548 0.0112443 0.00170272 0.00961863 -0.021781 0.00103854 0.321711 -5.15326 6.28991 0.00663637 
245 1 1 -0.000141668 -0.0119741 0.0427376 0 0 0 0.00957169 -0.000724389 -0.00107408 -0.0168959 0.0344527 0.00664162 2.31419 0.867211 -1.19042 0.00663637 
259 1 1 0.0240412 -0.0132655 0.0438577 0 0 0 0.00317359 0.00641134 0.00327843 0.00377334 -0.00976409 -0.00670492 -0.435783 -0.194858 -0.339122 0.00663637 
107 1 1 -0.0379169 0.00202091 0.0432342 0 0 0 0.0107525 0.00879169 0.0149649 0.289973 0.0764721 0.377705 3.66595 -1.14752 0.770466 0.0106182 
95 1 1 0.0238971 0.0109101 0.0392192 0 0 0 0.00937346 0.00622925 0.00859258 -0.104776 -0.0560798 -0.00688956 0.469605 0.207086 -0.0735276 0.0106182 
208 1 1 -0.0444217 0.0167599 0.0448646 0 0 0 0.00478264 0.018701 0.0741466 0.0476456 0.0142809 0.0669324 18.6639 -10.2613 -2.20079 0.00663637 
282 1 1 -0.0179746 0.0182571 0.0442979 0 0 0 0.0215836 0.0763537 -0.000907132 0.0452309 0.0212375 0.164475 -9.83539 1.89514 -9.49721 0.00663637 
58 1 1 0.040837 0.0198975 0.0435666 0 0 0 0.0132679 0.0084585 -0.00474281 0.0469289 -0.158976 -0.0896993 -4.86121 -1.64888 -0.597355 0.0106182 
199 1 1 -0.0444476 0.0283979 0.0408729 0 0 0 0.0313838 0.066428 0.0607015 -0.00484804 -0.0721776 -0.0518668 -22.1336 -1.19598 8.61574 0.00663637 
73 1 1 0.0110288 0.0279298 0.0458036 0 0 0 0.00903132 -0.0104553 0.0961771 -0.265928 0.287277 0.184586 8.03943 -2.94183 -0.949089 0.0106182 
114 1 1 0.0400491 0.0405563 0.0406415 0 0 0 0.0142211 -0.0110442 -0.00667582 0.169317 -0.0402075 0.0103804 2.52456 -2.693 2.12711 0.0106182 
126 1 1 -0.0112006 0.0441035 0.0465615 0 0 0 -0.00651103 0.00983242 0.073065 -0.0952005 -0.0390194 -0.0919595 -9.51079 -0.0786318 -1.82115 0.00663637 
248 1 1 0.000369133 0.0429155 0.0420301 0 0 0 -0.00775755 -0.0113492 0.0947453 -0.0797434 0.0639147 0.0994226 11.4339 -1.08311 -2.78165 0.00663637 
229 1 1 0.0125701 0.0442138 0.0454818 0 0 0 0.00768329 -0.00849281 0.0880636 -0.129014 0.0980977 -0.0412979 -7.72104 1.32229 -0.473581 0.00663637 
314 1 1 -0.0173331 -0.0442756 0.0556169 0 0 0 0.00436946 -0.00420081 -0.00315471 -0.00731189 -0.00309776 0.00319474 -0.887753 -0.871448 -0.527523 0.00663637 
265 1 1 0.0219322 -0.0435918 0.0551748 0 0 0 0.00380397 -0.00423443 0.000390564 -0.0019807 0.00226575 0.0220594 0.239441 0.0244266 -0.0302667 0.00663637 
84 1 1 -0.0408849 -0.0328073 0.055297 0 0 0 -0.00175801 -0.00466825 -0.00111341 -0.00745905 0.000492199 0.0670407 -0.790435 0.30361 -0.726792 0.0106182 
337 1 1 -0.00596983 -0.0404603 0.0515124 0 0 0 0.00289412 -0.00666143 0.00386222 0.00115644 -0.00810364 -0.00587823 0.218767 -0.270143 0.810608 0.00663637 
43 1 1 -0.00870071 -0.024184 0.0478217 0 0 0 0.00149612 0.00132275 -0.00543865 -0.0431686 0.00177249 -0.0421541 -0.741205 -0.57609 -0.421961 0.0106182 
326 1 1 0.0444783 -0.0254164 0.0533713 0 0 0 0.00486169 0.00187157 0.00596979 0.0126548 0.00101282 0.00976405 0.35987 0.748291 -0.209536 0.00663637 
52 1 1 0.0113478 -0.0221676 0.0505839 0 0 0 -0.00248061 0.00308828 0.00209441 0.00251362 0.0166824 -0.00312632 0.247554 -0.368561 0.63462 0.0106182 
332 1 1 0.0265971 -0.0153198 0.0562733 0 0 0 -0.00260814 0.00729576 0.0067892 0.00307967 -0.0160293 0.0194074 0.168311 -1.04461 0.290315 0.00663637 
220 1 1 -0.0435525 -0.00965177 0.0541502 0 0 0 0.00468081 -0.000106806 -0.00582324 -0.0206042 0.0148028 -0.0229628 -1.86635 0.0284281 -0.649707 0.00663637 
240 1 1 0.0171374 -0.00758578 0.0551146 0 0 0 0.000832806 0.00945652 0.00910888 0.0353648 -0.0246087 0.030144 0.618791 1.30312 -1.2827 0.00663637 
5 1 1 0.0402824 -0.0107325 0.0487331 0 0 0 0.00426618 0.00500909 0.00630331 0.0180366 -7.95247e-05 0.0409051 -0.218557 0.380891 -0.296002 0.0106182 
133 1 1 -0.0269252 -0.00257457 0.0559555 0 0 0 0.0623238 -0.0120193 0.0260915 -0.211965 -0.313416 -0.0486548 1.64733 -7.36208 -5.1476 0.00663637 
24 1 1 -0.0100518 -0.00377032 0.0526485 0 0 0 0.0054289 0.00762795 -0.0115408 -0.108891 -0.000331656 -0.00504504 -2.53138 -0.869329 1.47079 0.0106182 
303 1 1 0.026782 -0.00163802 0.0491005 0 0 0 0.00456172 0.00668733 0.00775696 0.0100996 -0.0154387 -0.0131275 0.209058 -0.921174 -0.0406077 0.00663637 
236 1 1 -0.0233033 0.00822344 0.0505209 0 0 0 0.0432415 -0.0291291 0.0663845 -0.0606779 -0.247065 -0.0760915 9.61615 7.31564 15.4735 0.00663637 
15 1 1 0.0136583 0.0080316 0.0562398 0 0 0 0.00227178 0.00903109 0.00262904 -0.0692411 -0.196635 -0.142777 -1.56268 -1.5292 0.525914 0.0106182 
318 1 1 0.0441723 0.0047266 0.0484721 0 0 0 0.00373258 0.00446426 0.015715 0.0012779 -0.00189898 0.00600382 3.12282 1.05082 0.235898 0.00663637 
335 1 1 -0.0339658 0.0157813 0.0524617 0 0 0 -0.0466456 -0.0709319 0.0501986 0.0172363 -0.268719 -0.0201613 6.08901 1.23057 7.22925 0.00663637 
4 1 1 -0.0033366 0.0144679 0.0481396 0 0 0 -0.00868944 0.00632977 -0.010651 -0.0775864 -0.233035 0.177927 2.35871 -0.771208 -0.668683 0.0106182 
298 1 1 0.0298728 0.0135458 0.0551374 0 0 0 0.0339833 -0.0155279 0.0151354 -0.0026841 -0.000161751 0.0236689 7.49825 2.33643 -1.78989 0.00663637 
262 1 1 -0.0371353 0.0282365 0.0509329 0 0 0 -0.0180255 -0.0253598 0.218495 0.395579 -0.0148922 -0.675138 41.9369 -27.3129 -17.6485 0.00663637 
192 1 1 -0.0252056 0.0269369 0.0482831 0 0 0 -0.0125947 -0.00599798 0.252414 0.0673179 0.0486227 -0.199113 57.899 10.645 15.1074 0.00663637 
292 1 1 -0.0142395 0.0323146 0.0488773 0 0 0 -0.0414205 0.0419153 0.132428 -0.0250816 -0.147634 0.0107654 1.29638 24.2007 -8.04352 0.00663637 
47 1 1 0.0243983 0.0398371 0.0562488 0 0 0 -0.0207534 0.0182977 0.156691 -0.253078 0.0269895 -1.35154 -11.8295 -2.89231 -2.14374 0.0106182 
327 1 1 -0.0433534 0.0433827 0.0492288 0 0 0 0.00445929 0.00414079 0.000420511 0.0247775 -0.0199758 -0.0155769 -0.281438 5.43101 0.605446 0.00663637 
190 1 1 -0.00834457 -0.0439251 0.0643549 0 0 0 -0.00178905 -0.00247115 0.00552728 -0.00896705 -0.00150959 0.00744322 0.44671 -0.531167 -0.00962889 0.00663637 
307 1 1 -0.0194567 -0.0321723 0.0569818 0 0 0 0.00092114 0.0033542 -0.00761036 -0.00548224 -0.0316121 -0.00651812 0.00199265 -0.58071 0.945825 0.00663637 
56 1 1 0.00707256 -0.0391098 0.0617903 0 0 0 0.00105472 -0.00536363 0.003029 -0.0486918 0.0019583 0.0295 -0.182958 0.34946 -0.0933843 0.0106182 
49 1 1 0.0404942 -0.040582 0.0580413 0 0 0 0.00319102 -0.00178825 0.00197017 0.00500841 0.00204454 0.051295 0.315306 0.000376614 0.0368124 0.0106182 
137 1 1 -0.00221378 -0.022838 0.0632901 0 0 0 0.00911946 0.00929381 0.00192153 -0.0170568 0.0246892 -0.0431884 0.235968 1.08848 0.92222 0.00663637 
81 1 1 -0.0215553 -0.0169232 0.0620863 0 0 0 0.00731719 0.00876224 0.000833744 0.0689611 -0.3188 0.0283884 0.691977 0.633099 -1.04682 0.0106182 
217 1 1 0.0442681 -0.0149661 0.0642743 0 0 0 0.0094425 -0.0053679 0.00486525 -0.00369464 -0.0216586 -0.00106851 1.97715 0.596711 0.320035 0.00663637 
32 1 1 -0.0398015 0.00445491 0.0635612 0 0 0 0.00789979 0.000988294 0.00723182 -0.141361 -0.496703 0.234489 -4.02222 -0.241604 1.54515 0.0106182 
148 1 1 0.0441944 -0.00246431 0.0633657 0 0 0 0.00311718 -0.00972294 -0.0046119 -0.0167609 -0.0309343 0.00891445 -3.18148 -0.472323 1.65759 0.00663637 
291 1 1 0.043613 0.0124678 0.0585977 0 0 0 -0.00398815 0.0314695 -0.0129319 -0.0056847 0.0490308 -0.0135305 -7.32231 -2.61366 -3.65764 0.00663637 
117 1 1 -0.0209805 0.0196674 0.0626013 0 0 0 -0.0224634 -0.0696112 0.0356522 0.0539583 -1.06598 0.386036 -11.5748 0.994348 2.29272 0.0106182 
140 1 1 0.00937144 0.0206241 0.0650926 0 0 0 -0.019053 0.00480536 -0.0283138 0.00573467 -0.00640673 -0.050472 -0.305593 0.745563 1.93849 0.00663637 
99 1 1 -0.00350595 0.0299466 0.0613155 0 0 0 -0.0120608 -0.00884918 -0.0169884 -0.212667 -0.189062 -0.0262464 -0.45857 -1.30287 -0.0269505 0.0106182 
266 1 1 0.0214497 0.0231218 0.0586437 0 0 0 0.0406054 -0.0208607 0.0722951 -0.0527718 0.0748085 -0.0887834 16.7164 4.37939 -1.38224 0.00663637 
106 1 1 0.0400728 0.0283993 0.062408 0 0 0 0.0216231 -0.0143858 0.0413812 -0.261422 -0.0181048 -0.516424 13.1878 6.53718 0.823553 0.0106182 
122 1 1 -0.0272724 0.04047 0.0564359 0 0 0 0.00365324 -0.0347982 0.406988 -0.68992 0.144328 -1.27264 -37.4538 1.14123 -1.27832 0.0106182 
174 1 1 -0.0433771 0.0425708 0.0624306 0 0 0 0.0273306 0.0434683 0.021123 -0.0266983 -0.00131209 0.0192501 -6.61683 -2.77945 6.58061 0.00663637 
315 1 1 -0.0119481 0.0440204 0.0631411 0 0 0 0.033529 0.0276132 0.0690077 0.0056624 -0.00627457 0.0180734 -8.15851 42.9365 -2.71794 0.00663637 
158 1 1 0.00273676 0.0445228 0.0624034 0 0 0 0.00314695 -0.00519223 -0.0237879 -0.0703272 -0.00682242 -0.0159867 5.02958 17.8001 -0.0481621 0.00663637 
203 1 1 0.0418859 0.0439567 0.0568467 0 0 0 0.000108411 0.011541 0.0305605 -0.0961469 -0.0421869 -0.0507841 -10.6754 6.36944 -1.34024 0.00663637 
189 1 1 0.0267644 -0.0439024 0.0671517 0 0 0 0.00432998 -0.00472506 -0.00175823 -0.0107888 -0.00600697 0.0370779 -0.486059 -0.13268 -0.3501 0.00663637 
186 1 1 0.0436771 -0.0440463 0.07374 0 0 0 0.0013346 -0.00294972 0.0013107 -0.00258505 -0.00158935 0.00737816 -0.0792556 0.0503062 -0.0270192 0.00663637 
6 1 1 -0.0271928 -0.0405151 0.0683386 0 0 0 0.00151445 0.00112322 -0.00663053 0.0238322 -0.0040718 0.128691 -0.483684 0.170532 0.126969 0.0106182 
313 1 1 -0.0113721 -0.0314269 0.0673946 0 0 0 0.00058566 0.00102357 0.0134662 0.00691556 0.0278217 0.010919 1.88703 -1.55774 -0.755979 0.00663637 
227 1 1 0.00762003 -0.0252502 0.0716307 0 0 0 0.0130244 0.00228618 0.00927935 -0.0217096 0.0320202 -0.0316832 0.935254 -0.505612 -2.51887 0.00663637 
91 1 1 0.0234192 -0.027614 0.0662596 0 0 0 0.0043504 -0.00239725 -0.00265345 -0.0729578 -0.0466694 0.15435 0.79672 0.857196 0.346461 0.0106182 
247 1 1 0.0397689 -0.0261469 0.0680642 0 0 0 0.00835848 -0.00663188 -0.00736804 -0.0231562 -0.0183766 0.0104579 -0.419767 -1.01674 -0.562976 0.00663637 
36 1 1 -0.0404467 -0.0173409 0.0688778 0 0 0 0.00302125 0.0138099 -0.0010302 0.0425915 -0.0451215 0.0230651 -0.154544 -0.0707057 0.592538 0.0106182 
215 1 1 0.0330924 -0.014979 0.0704308 0 0 0 0.000423738 -0.00854229 -0.00286929 -0.0337688 -0.0145137 0.00315259 -2.44821 -2.55599 0.512623 0.00663637 
10 1 1 0.00497526 -0.00786353 0.0662201 0 0 0 0.00144518 0.0195933 0.00971739 0.0133971 -0.101871 -0.0357828 -0.17324 -0.501726 0.469301 0.0106182 
276 1 1 0.0199961 -0.0124781 0.0718638 0 0 0 0.00459254 0.00049722 0.00881454 -0.0315543 -0.0136545 -0.0178338 -0.874645 2.08181 -1.82435 0.00663637 
182 1 1 -0.0290098 -0.00402669 0.073341 0 0 0 -0.00410477 0.0107723 -0.000267335 -0.0784645 -0.0295362 0.0245709 -1.06148 7.36196 -12.1661 0.00663637 
197 1 1 -0.018821 0.001983 0.0657004 0 0 0 -0.0197513 0.0202731 -0.0235582 -0.0295538 0.0418055 0.0433264 1.17987 1.16937 1.77725 0.00663637 
87 1 1 0.0288767 0.000732497 0.0670344 0 0 0 0.0070451 -0.0133765 0.011076 -0.147708 -0.0996279 -0.105942 3.25453 1.30887 -1.43794 0.0106182 
115 1 1 -0.00355223 0.010472 0.0683774 0 0 0 -0.0104849 0.000276479 0.00429837 0.172699 -0.223514 0.124404 -0.931614 2.42238 0.394038 0.0106182 
338 1 1 0.0425116 0.00888608 0.0713405 0 0 0 0.00799506 -0.018316 0.03752 0.0727694 -0.142379 -0.119048 -5.5205 -6.86551 1.92092 0.00663637 
45 1 1 0.0263255 0.0196452 0.0747507 0 0 0 0.00560987 -0.0291037 -0.0235747 0.0772816 -0.0852712 0.528787 -8.12783 -6.96762 -0.84235 0.0106182 
39 1 1 -0.04045 0.0235794 0.0662487 0 0 0 -0.0630631 -0.0481468 0.0443466 0.395513 -1.00371 -0.30244 -14.4595 1.97856 -0.434042 0.0106182 
35 1 1 -0.029263 0.0396447 0.0752765 0 0 0 0.0753342 0.055509 -0.364235 -0.881315 0.250942 -0.0821807 27.1508 -5.34671 2.14071 0.0106182 
308 1 1 -0.00227402 0.0435886 0.0745703 0 0 0 -0.00194751 0.0353585 0.0170064 -0.120882 -0.0433565 -0.0771809 -5.87031 26.4614 -3.95581 0.00663637 
124 1 1 0.0436362 0.0435421 0.0695836 0 0 0 0.0052344 0.033467 -0.0361394 0.00462606 -0.0744554 0.187075 6.2438 -6.35597 -2.22633 0.00663637 
252 1 1 -0.0393189 -0.0441221 0.0795179 0 0 0 -0.00186251 0.0016836 -0.00610944 0.0242654 -0.00533004 0.0536834 -1.22828 -0.0153563 0.793723 0.00663637 
213 1 1 0.0324723 -0.0440493 0.0810945 0 0 0 0.0068918 -0.00346502 -0.00105338 -0.0282008 0.0206636 0.0385605 -0.102576 -0.451539 -0.484719 0.00663637 
230 1 1 -0.0400263 -0.0322849 0.0756929 0 0 0 -0.00200513 0.00716819 -0.0125816 0.0104186 0.00389641 0.0525153 1.31415 -1.77994 -0.790789 0.00663637 
109 1 1 0.0165408 -0.0402222 0.0800228 0 0 0 0.00723162 -0.0028804 0.000377367 -0.194269 0.0807174 0.174665 -0.15614 0.374862 -0.0996219 0.0106182 
165 1 1 0.0437545 -0.0322837 0.0783006 0 0 0 0.00168632 -0.00155636 0.000456339 -0.00835266 0.0111522 0.0105343 -0.293963 0.15454 0.224208 0.00663637 
75 1 1 -0.0258183 -0.0244453 0.0809012 0 0 0 0.00805447 0.00768977 -0.000730148 0.107008 0.129662 0.0641888 0.545023 0.400425 -0.350344 0.0106182 
143 1 1 0.030811 -0.0314624 0.0808445 0 0 0 0.00860618 -0.000600973 -0.00122883 -0.0428815 0.0353806 0.0483125 -0.36989 -1.16048 0.445062 0.00663637 
26 1 1 -0.00612725 -0.0194843 0.0794086 0 0 0 0.0109371 0.0124522 0.0026729 -0.094797 0.101801 -0.214122 -0.0705502 -0.718101 0.195615 0.0106182 
209 1 1 0.00958282 -0.0142883 0.0807588 0 0 0 0.0119357 0.0155603 0.00802491 -0.0471779 0.0385866 0.0296015 2.68071 1.37508 0.775726 0.00663637 
169 1 1 0.0436531 -0.019179 0.0782023 0 0 0 0.00270854 0.00595808 -0.00812694 -0.0126219 0.0176656 0.00659427 -1.63263 -1.14198 -0.961823 0.00663637 
204 1 1 -0.0163601 -0.00649681 0.0754038 0 0 0 -0.00399946 -0.0080542 -0.0341716 -0.04409 0.0594833 0.0263424 0.547718 -5.10926 6.61929 0.00663637 