ITEM: TIMESTEP
33250
ITEM: NUMBER OF ATOMS
338
ITEM: BOX BOUNDS mm mm mm
-0.05 0.05
-0.05 0.05
0 0.15
ITEM: ATOMS id type type x y z ix iy iz vx vy vz fx fy fz omegax omegay omegaz radius 
319 1 1 -0.0146753 -0.0441723 0.00605732 0 0 0 0.00154636 -0.00306277 0.00157602 -0.00332786 0.000537805 0.0030262 0.168499 -0.199658 -0.367756 0.00622241 
243 1 1 -0.00284877 -0.0434338 0.00602016 0 0 0 0.00303555 -0.00844807 -0.000122524 -6.84692e-05 -0.0037778 0.0025436 1.31696 0.622031 -0.158141 0.00622241 
260 1 1 0.025565 -0.0437116 0.00607718 0 0 0 -0.000792055 -0.00258538 0.000492017 0.00365375 0.00261755 -0.00112848 0.218836 0.346967 0.787348 0.00622241 
131 1 1 -0.025699 -0.0395867 0.0058405 0 0 0 0.00224047 -0.00198995 0.000566951 0.00441557 -0.00231823 -0.00409767 -0.122329 0.211302 0.374453 0.00622241 
173 1 1 -0.0153669 -0.0320298 0.00584813 0 0 0 -0.00276277 -0.000709633 0.00154079 -0.00319199 0.00610463 -0.00102746 0.0593325 -0.0770927 0.459851 0.00622241 
78 1 1 0.0409054 -0.0406293 0.00930015 0 0 0 0.0026406 -0.000103601 0.000497856 0.00444548 -0.00470358 -0.00646343 0.0491169 0.101171 -0.223419 0.00995586 
296 1 1 -0.0276128 -0.0275385 0.00616739 0 0 0 0.00225241 -0.00191144 -0.000910622 0.00590738 0.00210802 9.16814e-05 -0.267847 0.491001 -0.135127 0.00622241 
275 1 1 -0.00361175 -0.0296042 0.00591128 0 0 0 -0.00073038 -0.00325512 0.00126782 -0.00100839 -0.00173058 0.00131284 0.432902 -0.0886467 -0.402753 0.00622241 
144 1 1 0.0422376 -0.025122 0.00608381 0 0 0 0.00264167 0.00249551 -0.000261858 -0.00465464 0.00396554 0.000214197 -0.304109 0.470854 0.263406 0.00622241 
102 1 1 -0.040471 -0.0173399 0.00902149 0 0 0 -0.000831407 -0.000919616 -4.00852e-05 -0.000934462 0.000509244 -0.00785962 0.0169538 -0.0423242 -0.251687 0.00995586 
328 1 1 -0.0254447 -0.0156292 0.00579743 0 0 0 -0.00253153 -0.00277341 0.00202796 0.0022821 0.00451173 -0.00431448 1.15345 -0.458788 0.7863 0.00622241 
267 1 1 0.0151463 -0.0203231 0.00602598 0 0 0 0.00148698 0.000624582 0.00229119 -0.000675401 0.00496316 -0.00119461 0.11385 0.35931 0.377944 0.00622241 
274 1 1 -0.0214114 -0.00455368 0.00812135 0 0 0 -0.0605915 -0.00398872 0.0833464 -0.00202274 0.00211759 0.0419935 14.0531 6.11938 9.77029 0.00622241 
202 1 1 0.0445045 -0.0131932 0.00627964 0 0 0 0.00331573 0.00279717 -0.00186171 0.00566003 0.00523309 -0.00252639 0.269857 -0.114287 -0.307534 0.00622241 
257 1 1 -0.0437352 -0.00171405 0.00618099 0 0 0 -0.0133132 0.0130978 -0.00955003 -0.00189135 -0.00154426 0.0811181 -2.65947 -1.46154 9.00613 0.00622241 
268 1 1 -0.0321902 0.00301716 0.00619713 0 0 0 0.0344326 -0.0345602 0.00765507 0.00386076 0.00143805 0.00466223 5.43879 5.88044 -19.502 0.00622241 
164 1 1 0.0202504 0.00147566 0.00583355 0 0 0 -7.41401e-05 0.00203388 -0.000321957 0.000629785 0.000484448 -0.00358424 -0.0762653 0.133323 -0.262555 0.00622241 
232 1 1 -0.0435481 0.0111026 0.00644724 0 0 0 -0.0418218 0.0813415 -0.043422 0 0 -0.0247499 -2.60846 -23.5582 -33.6532 0.00622241 
171 1 1 -0.0205697 0.00742307 0.00813024 0 0 0 -0.0489592 -0.00517533 0.0761985 -0.0276033 -0.00111958 0.0589775 -11.7739 4.1631 -10.9304 0.00622241 
297 1 1 -0.0246915 0.0187099 0.00595045 0 0 0 -0.00166685 0.00739598 -0.00176436 -0.0187748 0.0144385 -0.00523152 -2.30442 0.426003 1.97145 0.00622241 
222 1 1 -0.0106563 0.0141211 0.00569942 0 0 0 -0.00700677 -0.00995468 -0.00113002 -0.00688451 0.00914546 0.00829735 0.0104282 -0.0871054 4.75306 0.00622241 
290 1 1 -0.000652274 0.0210346 0.00562746 0 0 0 -0.00468523 0.00238244 -0.00291827 -0.00890805 -3.10126e-05 0.00248578 -0.0457107 0.0361474 -1.61026 0.00622241 
316 1 1 0.0323685 0.0193647 0.00575545 0 0 0 0.000189684 0.000312394 -0.0032195 -0.01204 -0.000351151 -0.00091127 0.222795 0.130731 0.178799 0.00622241 
162 1 1 0.0442857 0.0196932 0.0059107 0 0 0 0.00238619 0.00270358 -0.0024741 0.000733029 0.00662747 -0.000830612 -0.168225 -0.096237 -0.0905826 0.00622241 
294 1 1 -0.0437155 0.0252417 0.00610278 0 0 0 0.0383468 -0.0457965 -0.000898828 0.00451607 0.0573893 0.0327819 7.40483 6.40381 -20.6723 0.00622241 
175 1 1 -0.032778 0.0310965 0.00613407 0 0 0 0.000182877 0.00299568 -0.000903632 0.00965147 -0.0142446 -0.0094391 0.395969 -0.692305 30.8663 0.00622241 
255 1 1 -0.0147322 0.0255449 0.00605675 0 0 0 -0.00553279 -0.00305294 -0.00119169 -0.00657864 -0.00926772 -0.00266918 1.44521 -1.4546 -3.65578 0.00622241 
155 1 1 0.0374733 0.030371 0.0059248 0 0 0 0.00396193 0.0027006 -0.00222507 -0.00654082 0.00340577 0.0017293 -0.17896 0.278923 0.269759 0.00622241 
324 1 1 -0.00360252 0.0321716 0.00592617 0 0 0 0.00471912 0.0035693 0.000621264 -0.00915454 0.00123849 0.00304255 -0.0313429 1.02222 -0.285697 0.00622241 
161 1 1 0.00829535 0.0323056 0.00628247 0 0 0 0.00342013 0.00334616 -0.0083477 -0.0231627 0.0101115 -0.000550656 0.227049 0.402576 0.567569 0.00622241 
321 1 1 -0.0439603 0.0438664 0.00605492 0 0 0 0.0188216 -0.0191026 0.0137987 0.0154942 -0.00534567 0.0144861 3.40526 -1.98722 -3.14691 0.00622241 
207 1 1 -0.0314053 0.043675 0.00620127 0 0 0 0.0172323 -0.0074322 0.00410745 8.98933e-06 -3.89807e-06 0.00087399 1.19649 2.77419 -8.07238 0.00622241 
149 1 1 0.0111663 0.0439595 0.00579665 0 0 0 0.000777354 0.00268902 -0.00268062 -0.0120776 0.00839327 0.00129321 0.123433 -0.0603108 -0.0103573 0.00622241 
249 1 1 0.027819 0.0439679 0.00611518 0 0 0 0.0048152 0.00361433 -0.00329097 -0.0089026 0.000113451 -0.000676293 -0.00639217 0.179305 0.468806 0.00622241 
289 1 1 0.0440495 0.0419207 0.00607114 0 0 0 0.00248063 0.0027707 -0.000787999 -0.00327085 -0.00361423 -0.0036595 -0.391239 0.31762 -0.414709 0.00622241 
299 1 1 -0.0243271 -0.0445079 0.0166488 0 0 0 -0.00260899 -0.00222974 0.00464146 0.00314506 0.00388563 -0.00683809 0.472711 -1.68396 0.268438 0.00622241 
225 1 1 -0.0118214 -0.0439312 0.0182396 0 0 0 0.00538611 -0.00208773 0.015777 0.00334687 -0.00122997 -0.000535933 2.57068 -5.97648 -0.519476 0.00622241 
242 1 1 0.000431401 -0.0441537 0.0187425 0 0 0 0.0160498 -0.00225541 0.0188322 0.00308248 0.00176031 0.00366359 2.65747 6.57541 -3.31786 0.00622241 
130 1 1 0.0208877 -0.0440356 0.0174245 0 0 0 0.00186694 -0.00224274 0.00348947 -0.00218676 -2.42755e-05 0.00185679 -0.00117092 -0.768728 -0.242656 0.00622241 
74 1 1 -0.0405046 -0.036267 0.00957742 0 0 0 -0.00199652 -0.00424075 0.000946307 -0.0106945 -0.0192348 0.00188541 0.171938 -0.177051 -0.0930999 0.00995586 
60 1 1 0.0101886 -0.0357126 0.00970545 0 0 0 0.00417987 -0.00404479 0.000321387 0.0108843 0.0108151 -0.0150452 0.165153 0.098988 0.447361 0.00995586 
67 1 1 0.0273122 -0.0280793 0.0125441 0 0 0 0.00546211 0.00103553 0.00259925 0.0131039 0.00608625 -0.00967523 -0.015248 0.0768197 0.0411868 0.00995586 
40 1 1 -0.0107352 -0.016321 0.0108581 0 0 0 -0.00176778 0.00140476 0.0003405 0.011335 0.0367158 -0.0274285 -0.50384 0.332296 -0.102814 0.00995586 
279 1 1 0.00417961 -0.0210634 0.0109464 0 0 0 0.000320331 -0.00171738 0.00316123 -0.00231366 0.00474794 -0.000957038 0.831583 -0.713316 -0.159873 0.00622241 
96 1 1 0.0114915 -0.00777383 0.0154538 0 0 0 0.000475229 0.00251767 0.0104588 0.00760797 0.0199423 0.0124377 -0.256102 0.873059 0.323904 0.00995586 
50 1 1 0.0300197 -0.00953581 0.0097058 0 0 0 0.00143444 0.00254989 0.00058626 0.00184046 0.00714423 0.00191355 -0.231345 0.117308 0.14741 0.00995586 
183 1 1 0.0439905 -0.00714684 0.0170261 0 0 0 0.00329024 0.00113478 0.00322536 0.00298923 0.00403597 0.00622652 0.401675 0.0529744 -0.185748 0.00622241 
17 1 1 -0.00527698 0.00194416 0.0138857 0 0 0 -0.00239537 0.00326723 0.00336335 0.00856088 0.0334437 0.0219376 0.195444 -2.57859 -0.0976451 0.00995586 
94 1 1 0.0381937 0.00742221 0.013563 0 0 0 0.000686683 0.00463078 -0.00125567 -0.0324467 0.0306143 0.0162194 -0.360354 -0.439083 0.0987282 0.00995586 
300 1 1 -0.0440816 0.0190017 0.0166877 0 0 0 0.00156904 -0.0348686 0.00102585 -0.000972288 -0.0114977 0.0242047 -8.02661 0.35824 -5.12897 0.00622241 
273 1 1 -0.0320876 0.018326 0.015524 0 0 0 0.0124723 -0.00482626 0.000429961 0.00427771 -0.00589085 -0.00031453 -4.30984 0.53932 11.0104 0.00622241 
286 1 1 -0.00141639 0.0169735 0.0166676 0 0 0 -0.0076255 0.013719 0.000943631 -0.0161415 -0.00820233 0.00859967 -2.10502 -0.455157 -0.36777 0.00622241 
98 1 1 0.0123383 0.0138579 0.00975458 0 0 0 -0.00330288 0.000729869 -0.000292921 -0.0305933 -0.0268509 0.02619 -0.324257 -0.128023 0.460578 0.00995586 
320 1 1 0.00544047 0.0269655 0.0167525 0 0 0 0.00445416 0.00678753 -0.00415173 0.00367749 -0.0146441 -0.00105665 -0.189469 -0.193245 -1.86719 0.00622241 
77 1 1 0.0227964 0.0298799 0.0117143 0 0 0 0.000902959 0.00325484 -0.00365196 -0.0807492 -0.00303052 0.0157053 -0.188672 -0.459771 -0.531855 0.00995586 
284 1 1 0.0442054 0.0274101 0.0154918 0 0 0 0.00334474 0.00117271 0.000933365 -0.00185831 -0.00668329 0.00590475 0.333101 -0.151519 -0.448541 0.00622241 
305 1 1 -0.042144 0.0355563 0.0148941 0 0 0 -0.0471045 -0.0867722 -0.00654365 -0.0113542 -0.0269917 0.00536184 10.2494 -23.18 13.3598 0.00622241 
38 1 1 -0.0156064 0.0409281 0.00948035 0 0 0 0.00370072 0.00516217 0.0045109 -0.0482811 -0.000211691 -0.00960288 -0.657699 0.209674 0.302468 0.00995586 
237 1 1 0.000127419 0.0438103 0.0114012 0 0 0 0.00434544 0.00248563 -0.000337986 -0.0135182 0.0053518 -0.00477272 0.971183 0.783752 -0.415574 0.00622241 
239 1 1 0.0190269 0.0444382 0.0147536 0 0 0 0.00444687 0.00486146 -0.00298553 -0.00971912 0.00421987 0.00502116 0.196875 0.571248 0.418324 0.00622241 
331 1 1 -0.0427635 -0.0447914 0.0217214 0 0 0 -0.00224986 -0.00419925 0.00259668 0.00437957 -0.00829704 0.00345641 -0.102657 0.50191 0.0121012 0.00622241 
167 1 1 0.0319434 -0.0441057 0.0220082 0 0 0 2.06277e-05 -0.00212049 0.00579653 -0.00228369 -0.0020992 0.00246895 0.701894 0.219721 0.131389 0.00622241 
136 1 1 0.0439152 -0.0444023 0.0239747 0 0 0 0.00267797 -0.00285792 0.00299954 0.00403027 -0.00499577 0.00268818 0.196613 0.119723 -0.0151304 0.00622241 
180 1 1 -0.0438953 -0.0336502 0.0262965 0 0 0 -0.00194197 -0.00217658 0.00813997 0.0081533 0.0014979 0.00203196 0.905777 -1.51753 -0.193391 0.00622241 
256 1 1 -0.032279 -0.0394223 0.0247537 0 0 0 0.00171227 -0.0131363 0.0060794 0.00472587 -0.0174768 0.0104148 7.19349 2.98498 0.534379 0.00622241 
179 1 1 -0.0342587 -0.0262036 0.0202806 0 0 0 -0.0027044 0.000985187 0.0089138 0.000912006 -0.00391775 0.00517217 -0.769041 -0.206161 0.124548 0.00622241 
7 1 1 -0.0197872 -0.0303974 0.0207817 0 0 0 -0.00301871 0.00219558 0.00944059 -0.010944 0.0150115 0.0230829 -0.368877 0.182248 -0.136813 0.00995586 
104 1 1 -0.000695769 -0.0285619 0.024096 0 0 0 0.00232453 -0.000999296 0.0075596 -0.0106776 0.0340045 0.00419352 -0.668269 0.320701 -0.0203323 0.00995586 
128 1 1 -0.0444824 -0.021806 0.0234347 0 0 0 -0.00295772 0.00253769 0.00442947 0.00865007 -0.00116346 -0.00281751 -0.979578 -0.136526 0.319282 0.00622241 
278 1 1 0.0327685 -0.0173614 0.0230793 0 0 0 -0.000457696 0.00354171 0.00769895 -0.00322603 0.00519855 0.00918679 0.467644 -0.868184 0.0910179 0.00622241 
146 1 1 -0.0444252 -0.00926213 0.0213443 0 0 0 0.000304076 8.90601e-06 0.00178155 0.000361671 -0.0243894 0.0178976 -0.438923 0.0681438 -0.274769 0.00622241 
19 1 1 -0.025904 -0.0127255 0.0263757 0 0 0 0.00128231 0.0152397 0.0152353 -0.0853158 -0.000634163 -0.0903855 0.787327 0.528752 -0.378395 0.00995586 
258 1 1 0.00100751 -0.0127442 0.0265878 0 0 0 0.00201939 -0.000224677 0.00864872 -0.0119423 0.00410239 0.0179379 0.897507 -1.89872 -0.261318 0.00622241 
25 1 1 -0.0377297 0.00464707 0.0213719 0 0 0 0.0338345 -0.0122847 0.00885777 0.0891947 -0.116291 -0.00327845 -0.338679 -3.71495 -3.21682 0.00995586 
28 1 1 -0.0163532 0.0174952 0.0198368 0 0 0 -0.0098882 0.00816864 0.000546777 0.00387417 0.0925034 0.159307 -3.163 0.764587 2.14454 0.00995586 
261 1 1 0.0439117 0.014934 0.0263084 0 0 0 0.000486933 0.00741385 0.00330006 -0.00448119 0.00452327 0.00626388 0.592266 0.20482 -0.453923 0.00622241 
246 1 1 -0.0438745 0.0261228 0.0268633 0 0 0 -0.00478179 -0.00291441 -0.00840764 -0.0216242 0.00154309 -0.00577969 4.31258 0.895516 -1.34416 0.00622241 
23 1 1 -0.0278191 0.0324962 0.0213654 0 0 0 -0.00381317 0.0127737 0.00605676 -0.0229495 0.0241268 0.00972867 3.39967 1.33419 -3.23709 0.00995586 
61 1 1 0.0367178 0.0405998 0.0200683 0 0 0 0.00281015 0.00601993 0.000903172 -0.0237098 -0.0146507 0.00926959 -0.184695 -0.329695 0.162859 0.00995586 
224 1 1 -0.043915 -0.044041 0.0338223 0 0 0 0.00118585 -0.00374267 0.00715673 0.000383586 -0.00245593 0.00557731 0.995058 -0.310236 -0.305329 0.00622241 
125 1 1 0.0436474 -0.0436614 0.0363646 0 0 0 0.00902098 0.0125904 0.0112997 0.000183701 0.00178745 0.00415477 -2.72269 0.740284 -2.28903 0.00622241 
42 1 1 -0.0118611 -0.0403116 0.0350595 0 0 0 -0.00167687 -0.000563268 0.0107717 0.0154311 0.00635848 0.017759 0.518336 -0.258886 -0.122008 0.00995586 
271 1 1 0.03077 -0.0403678 0.0333899 0 0 0 0.000673309 -0.00127639 0.00842143 0.00199885 -0.00484698 0.000546889 -0.815012 0.05862 -0.391788 0.00622241 
51 1 1 0.0176601 -0.0240562 0.0290365 0 0 0 0.00346375 0.00607612 0.00930515 -0.0022537 0.0213271 -0.0146276 -0.0782565 -0.468426 0.0508544 0.00995586 
120 1 1 0.0406364 -0.0298664 0.0284344 0 0 0 0.000163852 -0.00109038 0.00348279 -0.00180199 -0.00205804 0.0121966 0.0361359 0.242033 0.177288 0.00995586 
178 1 1 -0.0126046 -0.0205874 0.0307974 0 0 0 0.00186606 0.00683338 0.00936936 -0.00667739 0.0163908 0.00962948 -0.31558 -0.036505 -0.341835 0.00622241 
134 1 1 0.0440421 -0.0150739 0.0318039 0 0 0 -0.000731037 0.00180204 0.00382011 -0.000176527 0.000541166 0.00664723 0.039675 0.526809 0.0321654 0.00622241 
310 1 1 -0.0106009 -0.00916658 0.0287052 0 0 0 0.00902274 0.00598235 0.00534203 -0.017143 0.0131796 -0.00987828 -0.0144766 1.37201 -1.14258 0.00622241 
18 1 1 0.0130804 -0.00579117 0.0348819 0 0 0 -0.0049581 0.0134794 0.0128041 -0.0127983 0.00953808 -0.00677369 0.0611427 -0.645882 0.171778 0.00995586 
184 1 1 0.0280114 -0.00935763 0.0310297 0 0 0 -0.00325878 0.00916942 0.0115502 -0.00458133 0.00496397 0.00483731 -0.734299 0.65006 -0.479224 0.00622241 
112 1 1 -0.0184546 0.00375853 0.0333743 0 0 0 0.0217553 0.0141174 0.0265975 -0.125267 -0.0173449 0.00158549 1.01193 1.39922 -0.508343 0.00995586 
160 1 1 -0.00199835 -0.00099787 0.029476 0 0 0 -0.00103247 0.0175851 0.0160079 -0.0265397 0.0133411 0.0123546 1.92584 -2.02436 4.08933 0.00622241 
55 1 1 0.0405465 0.000159508 0.0314869 0 0 0 -0.000332457 0.00645964 0.00511252 -0.00612277 0.00960478 0.0242587 -0.00512478 0.477299 -0.281834 0.00995586 
100 1 1 0.00706208 0.0117324 0.0284821 0 0 0 -0.0060625 0.0259112 0.0125221 -0.0651819 0.0365568 0.0717854 -1.75928 0.895315 -1.68956 0.00995586 
95 1 1 0.0244784 0.00998277 0.0360714 0 0 0 -0.0021737 0.0154633 0.0118427 -0.0296922 0.0146985 0.063912 -0.769958 -0.42595 -0.484259 0.00995586 
2 1 1 -0.0315724 0.0182979 0.0335234 0 0 0 -0.00331894 0.00932385 0.00439872 -0.0546198 0.0371472 0.0745581 -3.08384 -2.09597 3.20434 0.00995586 
69 1 1 -0.00430318 0.0298264 0.0290993 0 0 0 -0.00590299 -0.00251232 0.0027475 0.107658 0.0111708 0.116323 4.68897 -1.30334 -2.80268 0.00995586 
108 1 1 0.0267149 0.0282661 0.0311294 0 0 0 0.00168396 0.00859547 0.00200748 -0.00303476 0.00375724 0.0807923 -0.505281 -0.111709 0.37357 0.00995586 
16 1 1 0.0122225 0.0406003 0.0283052 0 0 0 0.000718798 0.00231548 -0.00523814 0.0131427 0.0151917 0.0819033 0.153911 -0.889979 0.392739 0.00995586 
9 1 1 -0.0406603 0.0410246 0.0319944 0 0 0 0.00436249 0.00726763 0.0167547 -0.0275566 -0.00391848 -0.048437 -1.39688 -1.55385 0.985914 0.00995586 
323 1 1 -0.0111247 0.0440844 0.0296504 0 0 0 0.00723881 0.00461043 -0.00246987 0.0110633 0.00433398 -0.0190571 0.38957 -16.4713 1.37128 0.00622241 
329 1 1 -0.0232463 -0.0443638 0.0448087 0 0 0 -0.00406771 -0.00327192 0.0105019 -0.00402357 -0.00267976 0.00728226 1.5944 0.898184 -0.226125 0.00622241 
168 1 1 0.00188949 -0.0444174 0.0397941 0 0 0 -0.0026162 -0.00278792 0.0070074 0.00130811 -0.00390717 0.00180307 1.01668 0.804078 0.47887 0.00622241 
283 1 1 0.0309881 -0.0441699 0.0447467 0 0 0 -0.00115947 0.000745303 0.0100423 0.00521312 -0.00878205 0.00512042 0.491709 -0.565256 0.764363 0.00622241 
211 1 1 -0.0438551 -0.0328088 0.0384396 0 0 0 0.00175034 -0.00528498 0.0122891 -0.00369915 0.000140597 -0.000225449 -0.447827 2.20578 0.809643 0.00622241 
191 1 1 0.00339055 -0.0322819 0.0401242 0 0 0 -0.00614818 0.00434649 0.0137576 -0.00219864 0.00172626 0.00238301 0.527657 0.563907 -0.410822 0.00622241 
3 1 1 0.0166717 -0.0405532 0.039542 0 0 0 -0.00359275 0.0005718 0.00747729 -0.00637387 -0.00810546 0.0114771 0.678974 -0.320281 0.152021 0.00995586 
93 1 1 -0.026599 -0.0294638 0.0415013 0 0 0 -0.00323193 0.00302327 0.0166839 0.00853328 0.0197218 -0.00644599 -1.04302 0.992949 0.0220208 0.00995586 
43 1 1 -0.00861684 -0.0241463 0.0457175 0 0 0 -0.00195687 0.0096227 0.0168051 0.0218101 0.0135977 0.0687075 -0.145969 -0.498459 0.245423 0.00995586 
105 1 1 0.0305151 -0.0283036 0.0453509 0 0 0 -0.00393901 0.00616293 0.0116347 0.0107953 -0.0198916 -0.0123376 -0.446745 0.106743 -0.234658 0.00995586 
66 1 1 -0.0408166 -0.0172386 0.0380965 0 0 0 -0.00463682 0.00154602 0.0126985 -0.0274213 0.0119406 -0.0179095 0.849719 -1.11922 0.163893 0.00995586 
259 1 1 0.024822 -0.0141707 0.0416458 0 0 0 -0.00430156 0.011575 0.0133352 -0.000975259 0.0028125 0.000718277 0.884163 -0.379175 0.107948 0.00622241 
336 1 1 -0.0210113 -0.011904 0.0416669 0 0 0 0.00491587 -0.0127106 0.0213426 -0.017663 -0.00498771 -0.0104697 8.63227 0.740408 17.2702 0.00622241 
245 1 1 0.00097178 -0.0126419 0.0417115 0 0 0 -0.0103959 0.0168782 0.00312791 -0.00253628 0.00579297 0.00484488 -6.89991 -4.26319 3.06424 0.00622241 
107 1 1 -0.0381084 0.00158584 0.0407562 0 0 0 0.00513416 -0.000557677 0.0224944 -0.035533 0.0132378 0.00512925 0.107157 0.766291 -0.933287 0.00995586 
303 1 1 0.027052 -0.00274097 0.0448597 0 0 0 -0.00262725 0.0147081 0.0205598 -0.00139868 -0.00160746 0.0171681 0.177539 2.07581 -0.206068 0.00622241 
318 1 1 0.0438481 0.0041963 0.0466478 0 0 0 0.00478924 0.00768021 0.0120516 0.00893486 0.010205 0.0222499 0.691486 1.12047 0.0628965 0.00622241 
4 1 1 -0.00365772 0.0132641 0.0448638 0 0 0 -0.00650165 0.0439609 0.0329141 -0.0910063 0.0188963 0.00825221 2.17306 -0.447373 -1.95498 0.00995586 
208 1 1 -0.0443077 0.0159904 0.0422998 0 0 0 -0.00214619 0.00376171 0.00957647 -0.0143302 0.00179376 -0.000953476 -2.85104 -0.980087 1.18772 0.00622241 
282 1 1 -0.0186665 0.016672 0.0425821 0 0 0 -0.0141523 0.0146925 0.0301893 -0.015836 -0.00328468 0.0334577 -1.34651 -0.617331 9.23596 0.00622241 
58 1 1 0.0405831 0.0188695 0.0413313 0 0 0 0.00384956 0.0117678 0.00951405 0.00355681 -0.0252854 0.00960779 -0.787409 0.401195 -0.913088 0.00995586 
199 1 1 -0.0441158 0.0277922 0.039767 0 0 0 -0.0020514 0.00206848 0.0124856 -0.00322324 -0.0125621 -0.0335389 2.62976 -2.36104 0.060709 0.00622241 
192 1 1 -0.0231418 0.0275544 0.0426438 0 0 0 -0.0319236 0.00160289 0.0487055 -0.0338712 -0.000619064 0.019965 8.03371 -7.83408 -6.66095 0.00622241 
73 1 1 0.0102966 0.0267713 0.0421808 0 0 0 0.00560834 0.0227618 0.0204641 -0.0018958 0.00476531 0.114919 -3.13372 1.20289 -0.305628 0.00995586 
292 1 1 -0.0119708 0.0320681 0.0428951 0 0 0 -0.0112753 -0.000111062 0.00588484 -0.0597567 0.0273304 0.0186184 -5.453 16.3245 6.51286 0.00622241 
114 1 1 0.0401754 0.0400061 0.0394719 0 0 0 0.00334073 0.00448801 0.0118585 0.0194387 0.0029077 0.0347757 2.78836 1.00668 -0.232032 0.00995586 
126 1 1 -0.0101782 0.0440028 0.0442529 0 0 0 -0.0210939 0.00370573 -0.020876 -0.024251 0.0151467 0.0306315 3.25721 -5.99223 -3.34928 0.00622241 
248 1 1 0.000670705 0.0438508 0.0387797 0 0 0 -0.00325277 -0.00318435 -0.00137183 -0.00421868 -0.00446048 0.0316418 1.09649 1.67849 -0.564261 0.00622241 
229 1 1 0.0118095 0.0439906 0.0440498 0 0 0 0.00104383 0.0050308 0.0084162 0.00657114 0.0116776 0.00485795 -2.49875 -2.81022 1.45532 0.00622241 
314 1 1 -0.0163023 -0.0441545 0.0547351 0 0 0 -0.0038688 -0.00336979 0.00306338 0.000308985 -0.00115783 0.0149098 -0.368093 -0.252057 0.935638 0.00622241 
265 1 1 0.0229738 -0.0438112 0.0541353 0 0 0 -0.00389565 0.00120503 0.0100532 0.00173233 0.00418772 0.00885426 -0.195605 1.02769 0.0723887 0.00622241 
84 1 1 -0.0406338 -0.0331353 0.0540294 0 0 0 -0.0018325 0.0115056 0.0228866 -0.0174242 -0.00143316 -0.0206524 -1.52349 -1.86429 1.14525 0.00995586 
307 1 1 -0.018403 -0.0323307 0.0550593 0 0 0 -0.00221197 0.000999669 0.0130048 0.00826515 -0.00374535 0.0127271 2.13062 0.920661 -0.956745 0.00622241 
337 1 1 -0.00603911 -0.0394195 0.0500374 0 0 0 -0.000531536 0.00425115 0.0245723 0.00173793 -0.00277231 0.00285236 -0.438796 -4.88377 1.19891 0.00622241 
326 1 1 0.0442764 -0.0256637 0.0522377 0 0 0 0.00229394 0.00366264 0.00716957 0.00725866 -0.0012156 -0.00162975 -0.847558 1.17201 -0.471363 0.00622241 
52 1 1 0.0122619 -0.0220257 0.0480439 0 0 0 -0.0109235 0.0108876 0.0160048 0.020606 -0.00246186 -0.0128068 -0.397358 0.0946345 0.473166 0.00995586 
332 1 1 0.0261225 -0.0153564 0.053734 0 0 0 -0.00424019 0.0147982 0.013751 0.00309259 0.00510012 -0.00200503 -1.05396 0.449242 0.0161786 0.00622241 
220 1 1 -0.043833 -0.00890344 0.0515742 0 0 0 0.002282 -0.00681511 0.0304715 0.00788414 -0.00913066 0.010486 0.608561 0.102907 -0.0628254 0.00622241 
24 1 1 -0.00962788 -0.00455821 0.0503209 0 0 0 -0.00885978 0.0272018 0.0120318 -0.0269998 -0.0171488 0.00733402 1.84077 5.56906 0.114447 0.00995586 
240 1 1 0.0171317 -0.00739365 0.0508688 0 0 0 -0.00789162 0.0139051 0.00407864 0.00278522 -0.000542283 -0.0230935 -1.45074 -0.00906305 -0.667485 0.00622241 
5 1 1 0.04021 -0.0112529 0.0473912 0 0 0 0.000531453 0.00539188 0.00484715 0.0202036 -0.0165071 -0.00127174 0.275548 0.349117 -0.498867 0.00995586 
133 1 1 -0.0285386 -0.00324575 0.0524968 0 0 0 0.0117321 0.00770719 0.0471323 -0.000365425 -0.00423405 -0.00133289 -5.42405 -1.77168 -0.0948341 0.00622241 
236 1 1 -0.0248168 0.0074229 0.0477491 0 0 0 0.0205668 -0.00552322 0.0295519 -0.0111975 0.0137868 0.0428306 0.74745 -2.12214 -0.464446 0.00622241 
15 1 1 0.0137296 0.00782982 0.0521613 0 0 0 -0.00154953 0.012713 0.018733 -0.0840487 -0.0582061 -0.0490081 2.04137 1.27409 -0.23098 0.00995586 
298 1 1 0.029448 0.012659 0.0512173 0 0 0 -0.0164322 0.0184255 0.0289206 -0.0231206 -0.0155186 0.00830589 0.0927239 -0.464609 0.139196 0.00622241 
291 1 1 0.0440717 0.0127513 0.0555152 0 0 0 -0.00184705 0.0179983 0.0232811 -0.00963977 0.0205402 0.0184883 -2.12789 4.20868 -3.21988 0.00622241 
335 1 1 -0.0339995 0.0157394 0.0492321 0 0 0 -0.00989109 0.0222645 0.0105119 -0.0131693 -0.00800928 0.0124186 2.04591 2.08867 -1.07753 0.00622241 
266 1 1 0.0209882 0.0218033 0.05535 0 0 0 0.00825122 0.0226234 0.0128401 -3.60007e-05 -0.0174135 -0.0153034 -3.77409 -0.299329 -0.0814044 0.00622241 
262 1 1 -0.0344885 0.028223 0.0475086 0 0 0 -0.032359 -0.00621578 0.0586293 -0.0256011 -0.0436838 0.0102089 4.69973 2.65669 2.22068 0.00622241 
99 1 1 -0.00367814 0.0299545 0.0561833 0 0 0 0.0141302 0.00736445 0.00725203 -0.128521 -0.0350681 0.137629 5.71522 -9.45215 1.14668 0.00995586 
122 1 1 -0.0246232 0.0405635 0.0507703 0 0 0 -0.0204575 0.00119574 0.0484333 -0.108343 0.0217686 0.0131604 -4.44763 -2.18905 -2.10045 0.00995586 
47 1 1 0.0239597 0.0371871 0.0517928 0 0 0 -0.00120131 0.0284924 0.0280055 0.048321 0.00539822 -0.0571077 3.26337 -1.57294 1.65779 0.00995586 
327 1 1 -0.04373 0.0436928 0.0476098 0 0 0 -0.00820263 0.00397112 0.0317627 -0.000218272 -0.00216052 -0.00398658 2.87042 1.50239 0.890109 0.00622241 
203 1 1 0.0419245 0.0440021 0.0548112 0 0 0 0.00176147 0.00319066 0.0214069 0.00943516 0.00315279 0.00371337 -3.98381 -2.56644 0.771208 0.00622241 
190 1 1 -0.00640151 -0.0439348 0.06195 0 0 0 -0.0135747 -0.00127179 0.0291119 0.00377125 -0.00387015 0.00207074 4.5636 -3.84457 1.96517 0.00622241 
189 1 1 0.0276242 -0.0438719 0.0655585 0 0 0 0.00245633 0.000653093 0.0106299 -0.00150642 0.00109873 0.00432937 0.132534 -0.580731 -1.0347 0.00622241 
56 1 1 0.00808704 -0.0388438 0.0575742 0 0 0 -0.00666351 0.00994428 0.0376679 0.000283158 0.002004 0.0229637 -0.767969 1.82813 -0.489287 0.00995586 
49 1 1 0.0404916 -0.0404719 0.0567071 0 0 0 0.00215112 0.000695131 0.00856995 0.00260674 0.00771968 0.00371643 0.649775 0.924145 -0.0273126 0.00995586 
313 1 1 -0.0132891 -0.0275928 0.0651482 0 0 0 -0.00601627 -0.0329509 0.0264293 0.00784126 0.0144657 0.0156486 0.805367 -4.27279 -5.22367 0.00622241 
137 1 1 -0.00158332 -0.0241722 0.0602458 0 0 0 -0.0151462 0.0313849 0.0347069 0.014343 -0.00465871 0.0165017 3.1377 -2.35944 13.4462 0.00622241 
91 1 1 0.0230485 -0.0274327 0.0635632 0 0 0 0.001373 0.0133217 0.0190411 -0.0131298 0.00932775 0.00596168 0.464971 0.598858 0.165737 0.00995586 
247 1 1 0.03897 -0.0259062 0.0634347 0 0 0 0.00420888 0.00901057 0.0202041 0.00389337 -0.00264083 0.00741417 0.532805 -1.21053 -0.685169 0.00622241 
81 1 1 -0.0229317 -0.0172553 0.0573122 0 0 0 0.0147305 0.0100425 0.0584785 -0.0114179 0.00263113 0.0257666 1.56249 4.34198 -0.982116 0.00995586 
217 1 1 0.0440956 -0.0148131 0.0624326 0 0 0 -0.000409727 0.0142469 0.00544783 0.000520681 -0.000278461 0.00489868 -3.58863 0.390895 -1.82602 0.00622241 
10 1 1 0.00491279 -0.0060176 0.0633941 0 0 0 0.00247353 -0.00630742 0.00857072 0.032288 0.0360864 -0.0110847 2.8912 -4.67759 0.011689 0.00995586 
197 1 1 -0.0205041 9.27721e-05 0.0611892 0 0 0 0.0203214 5.24068e-06 0.0583407 -0.00089421 -0.0151656 0.00580756 4.05779 -1.10522 0.0686318 0.00622241 
87 1 1 0.0286068 9.28251e-05 0.0621114 0 0 0 -0.00311715 0.0297011 0.0448081 -0.0525644 0.0032972 -0.0235738 -7.29014 -2.13353 -0.101648 0.00995586 
148 1 1 0.0440984 -0.00264095 0.0605574 0 0 0 0.00198465 0.0169443 0.0349458 0.0033773 -0.000865149 -0.016734 9.18044 5.68475 -1.65469 0.00622241 
32 1 1 -0.0398003 0.00527941 0.0600209 0 0 0 0.00567519 0.0134985 0.0199424 0.049835 -0.0464867 0.0538644 -1.35225 0.229193 1.78878 0.00995586 
115 1 1 -0.00443834 0.0113615 0.06443 0 0 0 0.00748053 -0.0034677 0.0454628 -0.089396 -0.0474872 -0.0399637 2.68507 2.65253 -0.718977 0.00995586 
117 1 1 -0.0214863 0.0219023 0.0575573 0 0 0 0.0103373 0.0169155 0.048991 -0.0810957 -0.122462 0.153493 -7.44585 13.1301 -2.28191 0.00995586 
140 1 1 0.00795958 0.0200798 0.0599181 0 0 0 0.00287102 -0.000402441 0.0429752 -0.0105134 -0.0130431 -0.0130969 0.824465 -0.545012 0.625735 0.00622241 
39 1 1 -0.0403127 0.024866 0.0622064 0 0 0 0.00769806 0.0216994 0.0894085 -0.0417849 -0.080915 0.0729303 6.39797 -9.00635 2.27128 0.00995586 
106 1 1 0.0402412 0.0285124 0.0584875 0 0 0 -0.00717545 0.00599065 0.0282342 0.0207592 -0.0095285 0.0193485 2.03092 -1.6031 -1.2802 0.00995586 
174 1 1 -0.0420129 0.0431706 0.0598941 0 0 0 -0.0804748 -0.0151506 0.0531369 -0.000330917 0.0019293 0.00195436 1.36416 -13.8918 7.73666 0.00622241 
315 1 1 -0.0110268 0.0439448 0.0586807 0 0 0 -0.0028621 0.00395247 0.0190572 -0.0326234 -0.00269391 0.0435481 -2.63951 6.30933 -0.981058 0.00622241 
158 1 1 0.00223085 0.0439731 0.0609609 0 0 0 -0.00752017 0.00447206 0.0458534 -0.00967659 -0.0038803 0.0248267 -7.23693 3.81299 -1.42286 0.00622241 
186 1 1 0.0438323 -0.0438841 0.0719879 0 0 0 -0.00773648 -0.00643779 0.00786535 0.00784697 0.00887364 0.0124743 1.36484 -4.06903 1.32558 0.00622241 
230 1 1 -0.0398716 -0.0326035 0.0710845 0 0 0 0.00397555 0.00239453 0.0428363 -0.000999338 0.0122028 0.0419383 1.24671 -4.86767 4.98955 0.00622241 
6 1 1 -0.0267997 -0.0402983 0.0660311 0 0 0 0.0148476 0.00562989 0.0270403 -0.0427145 0.0109822 0.0771251 0.398103 3.33151 -2.02581 0.00995586 
227 1 1 0.00766693 -0.0269535 0.0684895 0 0 0 0.00334996 0.00549188 0.0567492 -0.0077581 0.0167687 0.00396548 3.58112 0.487324 1.78986 0.00622241 
165 1 1 0.0437989 -0.031564 0.0733859 0 0 0 -0.0055327 -0.00156842 0.0197867 -0.00593459 0.0701303 0.0269191 0.272761 1.44869 -1.57945 0.00622241 
36 1 1 -0.0404238 -0.0174879 0.0660752 0 0 0 -0.00560733 0.0100254 0.0493251 -0.0211308 0.00744746 0.0143331 0.169901 -5.59733 0.889975 0.00995586 
215 1 1 0.032389 -0.0148613 0.0658872 0 0 0 0.00670582 0.0168357 0.0471838 0.00470005 0.00160687 0.0166177 10.4232 6.69591 0.454558 0.00622241 
169 1 1 0.043836 -0.0190435 0.0739545 0 0 0 -0.0016026 0.00425068 0.0043825 -0.00421287 0.0138478 0.0117445 5.45338 0.570388 -0.797401 0.00622241 
182 1 1 -0.0300672 -0.00537351 0.066708 0 0 0 0.00179704 0.0171751 0.0604386 -0.00155431 -0.0130129 0.00509309 -5.82911 -1.29933 -3.65008 0.00622241 
204 1 1 -0.0189864 -0.00799167 0.0714131 0 0 0 0.0164183 -0.00521295 0.0211947 -0.0233699 0.00512147 0.0179825 4.82279 8.23149 -0.320743 0.00622241 
276 1 1 0.0193221 -0.0121295 0.0669658 0 0 0 0.000245246 0.0180668 0.0347595 0.0131424 0.00140219 0.0125601 0.627944 -0.567752 5.15127 0.00622241 
306 1 1 -0.0438427 -0.00337217 0.0730261 0 0 0 0.00871183 0.0306501 0.0425857 0.00653858 -0.00580843 -0.0140776 -2.12208 -2.06512 -0.365091 0.00622241 
57 1 1 -0.02141 0.00965163 0.0739918 0 0 0 0.00698366 0.0148592 0.0563264 -0.0286228 -0.0148239 0.0353129 -3.50024 -1.70753 -0.983849 0.00995586 
338 1 1 0.0409596 0.00912082 0.0667562 0 0 0 -0.00164441 0.0427804 0.0334876 0.00228525 0.0114597 -0.00175691 -0.34119 -2.69417 -2.79602 0.00622241 
263 1 1 0.0112163 0.0162781 0.0711914 0 0 0 0.0044897 0.0555335 0.0858055 0.00398545 0.00826319 0.0226704 -15.4697 1.77705 -7.59955 0.00622241 
45 1 1 0.0281287 0.0175528 0.0713727 0 0 0 -0.024158 0.0520609 0.0074914 -0.0171404 0.0193087 0.0128642 3.26681 -2.82021 -1.85754 0.00995586 
322 1 1 0.0438969 0.0206051 0.0719482 0 0 0 -0.00280135 0.00255121 0.0351258 -0.00360896 0.00852874 0.0266931 -3.86972 5.45952 -0.97971 0.00622241 
250 1 1 -0.0301135 0.0233215 0.0746328 0 0 0 0.00555307 0.0369028 0.103262 0.0100164 -0.0133005 0.00224099 -1.72232 8.25194 4.86672 0.00622241 
35 1 1 -0.0253698 0.0385492 0.0703017 0 0 0 -0.0575682 -0.0468882 0.0635823 -0.0914286 0.0728953 -0.0718364 9.22771 -0.789212 -2.00122 0.00995586 
113 1 1 0.0113879 0.0328023 0.0684896 0 0 0 -0.0167659 -0.0222489 0.0801667 -0.00106549 -0.0909859 -0.0373233 5.37707 3.66113 3.47315 0.00995586 
76 1 1 0.0292224 0.0402395 0.0707053 0 0 0 -0.0109843 -0.000289118 0.0456114 0.0268782 0.000163544 -0.0159476 -4.15055 0.638159 -1.46913 0.00995586 