ITEM: TIMESTEP
22750
ITEM: NUMBER OF ATOMS
338
ITEM: BOX BOUNDS mm mm mm
-0.05 0.05
-0.05 0.05
0 0.15
ITEM: ATOMS id type type x y z ix iy iz vx vy vz fx fy fz omegax omegay omegaz radius 
319 1 1 -0.015134 -0.0436243 0.00575799 0 0 0 -0.00449917 -0.00818015 0.0205601 -0.00450877 0.0184196 0.0533765 -1.65785 -1.53047 -1.47659 0.00580674 
243 1 1 -0.00348809 -0.0444843 0.00578743 0 0 0 -0.0246602 0.0256226 0.00113602 -0.00213168 0.0166185 0.00153345 -0.351945 -5.229 5.79736 0.00580674 
260 1 1 0.022078 -0.0443307 0.00569563 0 0 0 0.032912 0.011023 0.0135443 -0.0240629 0.0279244 0.00111345 1.90143 8.74495 -4.08822 0.00580674 
78 1 1 0.0397965 -0.0412889 0.00880007 0 0 0 0.0430774 0.00932145 -0.00102696 -0.0965044 -0.00443392 0.0250555 -1.05929 5.22911 -4.17804 0.00929078 
74 1 1 -0.0408802 -0.0365023 0.00892884 0 0 0 0.0098348 -0.00671752 -0.00807409 -0.177101 -0.00920854 0.00231006 1.04816 -1.1871 1.42569 0.00929078 
131 1 1 -0.0266869 -0.0400823 0.00561758 0 0 0 0.0337647 -0.00295739 -0.0244866 -0.0739793 -0.01738 0.0337068 1.99429 6.26413 -1.16878 0.00580674 
60 1 1 0.00797426 -0.0357145 0.00886774 0 0 0 0.0264245 0.0131316 0.0124602 0.0137061 0.0234952 0.0179172 -2.93745 2.64041 3.70564 0.00929078 
296 1 1 -0.0263372 -0.0281829 0.00578888 0 0 0 0.0314094 -0.0168715 0.00392269 1.07246e-05 -2.81154e-06 -0.00129472 2.90972 5.41729 3.74439 0.00580674 
173 1 1 -0.0140392 -0.0316959 0.00578998 0 0 0 -0.0206091 -0.130223 -0.000681544 0.00820538 0.00788287 0.00264298 14.9133 4.29977 -3.20351 0.00580674 
275 1 1 -0.00336272 -0.0270341 0.00548634 0 0 0 -0.0239026 -0.0359075 0.00374987 -0.0179031 -0.0139067 0.0132188 5.49353 -7.0631 5.40769 0.00580674 
144 1 1 0.039552 -0.0264557 0.00600325 0 0 0 -0.0127135 0.0563154 0.0374718 -0.00615622 -0.0190974 -0.0132959 10.6321 -5.21198 17.4471 0.00580674 
102 1 1 -0.0411484 -0.0185446 0.00869376 0 0 0 0.00429993 0.00269336 -5.72659e-05 0.0199724 -0.0141494 0.116719 -0.237442 -0.0597577 0.0895662 0.00929078 
328 1 1 -0.0268649 -0.0161148 0.0057238 0 0 0 0.00551771 0.0761951 -0.0660231 0.0308344 -0.0177455 0.0878601 3.19579 16.508 10.9152 0.00580674 
279 1 1 0.0039956 -0.0186612 0.0078951 0 0 0 0.0155177 -0.051652 0.0125218 -0.0397511 0.0108904 -0.0377166 -7.83028 3.37464 -14.8868 0.00580674 
267 1 1 0.0145977 -0.022474 0.00564719 0 0 0 0.0053776 -0.0337859 -0.00629099 -0.0184678 0.0156789 0.0126846 6.12934 1.01619 17.535 0.00580674 
202 1 1 0.0442786 -0.0158463 0.00568844 0 0 0 -0.000283162 0.100659 0.00656616 0.0108024 0.0150585 -0.011413 -17.6835 0.826456 -17.3847 0.00580674 
274 1 1 -0.022791 -0.00544996 0.00573329 0 0 0 0.00772978 0.100037 0.012928 -0.0203863 -0.0194769 -0.0366506 13.2524 -12.558 -7.9982 0.00580674 
50 1 1 0.0278893 -0.0100435 0.00899579 0 0 0 0.0766002 0.0326199 -0.00738714 -0.19013 -0.0488635 0.0279415 -3.95893 8.0983 -0.0683521 0.00929078 
257 1 1 -0.042808 -0.00395962 0.00577877 0 0 0 -0.0068971 0.00771207 -0.00591145 0.0112032 0.0173506 -0.0112512 -0.457838 -0.955912 1.31792 0.00580674 
164 1 1 0.0213095 0.00315075 0.00558315 0 0 0 0.0205848 0.00829039 0.0164003 0.00244533 0.0103433 0.0236616 -1.56987 3.72412 0.172498 0.00580674 
268 1 1 -0.0312741 0.00877166 0.00545828 0 0 0 0.00651059 0.00813686 0.00428357 -0.000159833 0.0100032 0.0154538 -1.97768 0.758095 13.7384 0.00580674 
171 1 1 -0.0203054 0.00571257 0.00571037 0 0 0 0.0467463 0.0956505 0.00202929 -0.0229638 0.0182988 0.00974835 -16.6874 5.43083 0.540173 0.00580674 
232 1 1 -0.0385805 0.0177659 0.00538754 0 0 0 -0.000381865 0.00800314 3.56159e-05 0.000904168 0.0282461 0.00544192 -1.4235 0.371154 -10.8159 0.00580674 
297 1 1 -0.02608 0.0186027 0.00562192 0 0 0 0.0171392 0.00158856 0.00497644 0.00232312 0.0128817 0.0115653 2.63276 -1.01765 -14.915 0.00580674 
222 1 1 -0.011674 0.0156196 0.00528735 0 0 0 0.00825601 -0.0177162 0.00815734 0.00107784 0.0113169 0.00317687 3.64266 1.94459 -4.89505 0.00580674 
290 1 1 -0.00085047 0.0190075 0.00559607 0 0 0 0.000249672 -0.00314144 0.0104934 -0.00216802 -0.00812444 0.0159467 1.45491 0.000397436 8.12299 0.00580674 
98 1 1 0.0132089 0.0152424 0.00915711 0 0 0 -0.00925765 0.000760205 -0.00432329 -0.00225754 -0.109907 0.00498045 1.14083 -1.01924 -2.93858 0.00929078 
316 1 1 0.0275511 0.0180375 0.00551184 0 0 0 0.0112376 0.0211729 0.00524931 0.022406 -0.00716405 0.0060909 -3.28276 2.46799 1.04093 0.00580674 
162 1 1 0.0443263 0.0172729 0.00598803 0 0 0 0.00472851 0.0583138 0.0553403 -0.0182746 -0.0122336 -0.0147655 -34.9177 9.55277 -9.53977 0.00580674 
294 1 1 -0.0442593 0.0285795 0.00575188 0 0 0 0.0159432 -0.0326363 0.0104954 0.00806196 -0.00275907 0.00246177 4.81269 -1.60982 -6.4964 0.00580674 
255 1 1 -0.0184874 0.0269566 0.00564083 0 0 0 0.0515294 -0.0269501 0.00985889 -0.0151296 0.0132413 7.14667e-05 5.90619 8.63643 7.8112 0.00580674 
324 1 1 -0.00423269 0.0315099 0.00579004 0 0 0 0.0548972 0.0240378 0.00524934 0.00363981 -0.00233204 -0.00524918 -3.93622 9.66833 10.294 0.00580674 
77 1 1 0.0221791 0.0311798 0.00865649 0 0 0 -0.00823456 0.00250507 0.0103145 -0.028432 -0.0374278 0.0471616 0.772313 0.30912 2.90051 0.00929078 
155 1 1 0.0364885 0.0273092 0.00578799 0 0 0 0.0141617 0.0391678 0.00514976 -0.000173847 0.000235467 0.000343295 -6.73459 2.29015 5.58809 0.00580674 
175 1 1 -0.0332246 0.0326516 0.00570403 0 0 0 -0.00829824 0.00182314 0.0130559 -0.00134282 -0.0027273 0.00705562 -0.304425 -0.880783 7.65379 0.00580674 
161 1 1 0.00752465 0.0324349 0.00573316 0 0 0 -0.0125464 0.00923446 -0.00424046 0.00107428 -0.020374 -0.00390231 -1.24265 -2.15885 -4.45146 0.00580674 
289 1 1 0.0441837 0.03912 0.0057902 0 0 0 -0.0203773 0.0877862 0.00652358 -0.011685 -0.00175005 -0.0001893 -15.1813 -3.40102 -15.2636 0.00580674 
321 1 1 -0.0444185 0.0443487 0.00562823 0 0 0 -0.000440052 -0.00776188 0.00254394 0.00747846 0.0031595 0.00273249 1.42563 -0.804303 -2.47116 0.00580674 
207 1 1 -0.0325199 0.0442159 0.00578574 0 0 0 -0.0136068 0.00310047 0.00320182 -0.0164375 0.00197649 0.00235856 -0.621325 -2.06413 -2.67546 0.00580674 
38 1 1 -0.0154641 0.0410945 0.00894768 0 0 0 0.00658866 -0.00765882 0.0164427 -0.0127225 0.00507251 -0.00181595 -3.07398 -1.17494 1.06081 0.00929078 
149 1 1 0.00941213 0.0442005 0.00578692 0 0 0 0.0432998 -0.00337967 0.0042725 -0.000903092 0.000192855 0.000898717 0.56305 7.60977 7.63266 0.00580674 
249 1 1 0.0293147 0.0441804 0.00578788 0 0 0 0.0109117 -0.00739059 0.00376506 3.43174e-05 -4.80509e-05 0.000909489 1.27322 1.88198 1.60602 0.00580674 
299 1 1 -0.0256857 -0.0446813 0.0159937 0 0 0 0.0588707 0.0168569 -0.0393979 -0.0715702 -0.00356631 0.0176463 -8.31141 3.28231 -10.5797 0.00580674 
225 1 1 -0.00625264 -0.0440927 0.017985 0 0 0 -0.17194 -0.00131747 -0.172755 -0.236386 -0.0023047 -0.106379 -4.93042 25.2746 1.74788 0.00580674 
130 1 1 0.0168864 -0.0446217 0.0159395 0 0 0 0.0216167 0.0102789 0.0390775 0.0217138 0.00914958 0.00756806 7.9148 -13.3305 -2.96291 0.00580674 
167 1 1 0.0280071 -0.0444768 0.0178842 0 0 0 0.0303776 0.0041823 0.0673776 0.0205888 -0.00331896 0.0159797 12.1513 4.21829 -5.56837 0.00580674 
67 1 1 0.0253635 -0.0309456 0.0114789 0 0 0 0.0526631 0.0428185 -0.0016976 -0.0811399 0.030173 0.0704125 -3.70758 -1.90813 0.42548 0.00929078 
40 1 1 -0.0124873 -0.0160382 0.00929898 0 0 0 0.0300708 0.0591201 -0.160048 0.18598 0.186179 0.202539 -17.1618 -3.49581 -12.8415 0.00929078 
278 1 1 0.0326754 -0.0203511 0.017975 0 0 0 0.0544219 0.0406201 0.0121107 -0.012463 0.00825687 0.0129283 -0.206362 -8.92417 -10.8432 0.00580674 
146 1 1 -0.044462 -0.00761441 0.0180461 0 0 0 -0.00303592 -0.0089878 0.0149319 -0.00249996 0.00210824 0.013328 4.68489 -2.39545 -0.756124 0.00580674 
96 1 1 0.0101896 -0.00540564 0.0107009 0 0 0 0.0412022 -0.0405832 0.00381197 -0.172431 0.0629285 -0.045887 1.82372 -5.56185 7.46445 0.00929078 
183 1 1 0.0410827 -0.0129344 0.0163375 0 0 0 0.0287803 0.0833191 0.0316428 0.0160468 0.00819547 -0.0245939 18.9178 6.9738 25.4064 0.00580674 
17 1 1 -0.00642164 0.00237745 0.00996488 0 0 0 0.0437769 -0.00528401 -0.016409 -0.148918 0.189924 0.0847693 6.37853 -0.0785245 -11.4899 0.00929078 
25 1 1 -0.0408943 0.00653084 0.0162925 0 0 0 0.00646486 -0.0109176 0.0194202 0.000536182 0.0395113 0.0605669 -2.78173 -0.246664 -0.851986 0.00929078 
94 1 1 0.0349573 0.00653569 0.0104935 0 0 0 0.0107778 0.0572883 0.0644824 0.0463576 -0.162105 0.0504966 6.87561 -21.3181 7.91284 0.00929078 
300 1 1 -0.0442947 0.0210893 0.0150396 0 0 0 0.00106415 -0.00533631 -0.00918953 -0.00949664 0.00781056 0.0370903 -2.11887 1.60178 -1.23922 0.00580674 
273 1 1 -0.0328483 0.0202788 0.0145415 0 0 0 0.00632703 0.00474427 0.00423174 -0.00779891 0.0224325 0.0195682 -0.194837 -1.24176 6.2112 0.00580674 
28 1 1 -0.0179264 0.0181976 0.0180331 0 0 0 0.0122206 -0.0166118 0.0215687 0.036462 0.044922 0.0256763 -2.514 -0.96749 2.81206 0.00929078 
286 1 1 -0.00166106 0.0151184 0.0164602 0 0 0 0.0335261 -0.0199523 0.0316221 0.00717027 -0.0207026 0.0331804 0.324687 -3.13068 14.2332 0.00580674 
320 1 1 0.00355538 0.025453 0.0139526 0 0 0 -0.00231173 0.0270282 0.0144766 0.0111315 -0.017974 0.00917134 -2.03461 6.38333 1.60374 0.00580674 
284 1 1 0.0439687 0.025241 0.0144187 0 0 0 0.123347 0.196358 -0.0388135 -0.00620705 -0.0109651 -0.0255221 7.14761 8.14704 -0.345897 0.00580674 
305 1 1 -0.0409604 0.0366623 0.0133054 0 0 0 -0.0197951 0.00231723 0.0234099 0.0054314 0.000598182 0.00477653 -6.5097 0.960621 -1.61618 0.00580674 
61 1 1 0.0359699 0.0377528 0.0183779 0 0 0 -0.0330228 0.0543531 0.0186104 -0.0428154 0.0273888 0.00164803 11.1657 3.96045 12.6467 0.00929078 
237 1 1 -0.000862811 0.044196 0.0111821 0 0 0 0.0230055 -0.00585563 -0.014894 -0.00703391 0.00228572 -0.0165141 -7.65768 -6.61221 -3.03695 0.00580674 
239 1 1 0.0198622 0.0448258 0.0125833 0 0 0 -0.0166814 0.00490067 0.00667971 -0.015424 -0.00927645 -0.00697452 -1.53432 -2.1744 -3.38061 0.00580674 
331 1 1 -0.0431766 -0.0449265 0.0202835 0 0 0 -0.0146427 -0.0049801 -0.0165229 0.000732354 0.00679835 0.00447091 -3.4297 -8.19736 2.82151 0.00580674 
242 1 1 0.00457013 -0.0440457 0.0218919 0 0 0 -0.186401 0.0461463 -0.135226 0.236386 0.0023047 0.0661518 19.1708 -27.2184 3.20997 0.00580674 
136 1 1 0.0444167 -0.0446334 0.0228411 0 0 0 -0.00652407 -0.00221264 0.0288311 -0.00790535 0.00953681 -0.0145224 5.404 5.087 1.16228 0.00580674 
180 1 1 -0.0444027 -0.0344352 0.0241242 0 0 0 -0.00555221 -0.00771215 -0.0143565 0.0144108 0.00617114 0.0247555 5.3845 3.81668 -5.63488 0.00580674 
256 1 1 -0.033354 -0.0400441 0.0232695 0 0 0 0.0150323 -0.0154074 -0.0283531 -0.025502 0.0310559 -0.023633 -15.1311 1.63911 -12.2215 0.00580674 
271 1 1 0.0314416 -0.0401923 0.0277398 0 0 0 -0.0214309 0.0299288 0.087274 0.00157014 0.0250953 -0.00184182 -17.4558 -16.6996 3.71416 0.00580674 
128 1 1 -0.044839 -0.0230764 0.0223207 0 0 0 0.00262274 0.00670152 0.00245174 -0.00751267 -0.0142417 0.011522 -1.64305 -0.212659 1.41825 0.00580674 
179 1 1 -0.0354373 -0.0273708 0.0190213 0 0 0 6.89991e-06 -0.0108604 0.00494838 -0.0114051 0.0239431 0.0295046 -0.0485595 0.0268796 -2.87495 0.00580674 
7 1 1 -0.02184 -0.0312417 0.0199908 0 0 0 0.0298806 0.029509 0.00450164 -0.0465676 -0.0550789 0.00472099 11.1588 -3.81901 9.38114 0.00929078 
104 1 1 -0.00429063 -0.029047 0.0203321 0 0 0 0.0498401 0.00770562 0.0697667 -0.0778727 -0.204945 -0.0539533 16.4013 -1.55229 -12.825 0.00929078 
51 1 1 0.0128013 -0.0254502 0.0233013 0 0 0 0.0727406 -0.0351287 0.0502222 -0.115941 -0.0194166 0.0526262 3.88577 9.24246 10.9362 0.00929078 
120 1 1 0.041297 -0.0304872 0.0235109 0 0 0 -0.00863572 0.0035951 0.0391945 0.00397307 0.0754265 -0.055938 -3.9632 3.94602 -0.826075 0.00929078 
19 1 1 -0.0291572 -0.0146137 0.0224559 0 0 0 0.0294379 -0.021653 0.0443413 -0.0513308 0.0158159 0.103807 1.31884 -7.05304 -6.23612 0.00929078 
178 1 1 -0.015326 -0.0193357 0.0260002 0 0 0 0.0666923 -0.0531517 0.149243 0.0307728 0.0225353 -0.0958228 37.4764 55.095 -4.70199 0.00580674 
258 1 1 -0.00525067 -0.0146103 0.0238078 0 0 0 0.0461531 -0.0147717 0.0723616 0.0381418 0.0376597 -0.0978487 -24.173 -35.9893 10.4101 0.00580674 
134 1 1 0.0444584 -0.0165407 0.0267696 0 0 0 0.00254778 0.00216853 0.0391225 -0.000454667 0.0072538 0.00267694 9.95567 7.47784 0.80062 0.00580674 
310 1 1 -0.0139387 -0.00765998 0.0215552 0 0 0 0.0574162 -0.00694689 -0.0668215 0.115592 0.103976 -0.042602 47.8801 -9.26016 -6.86317 0.00580674 
18 1 1 0.0179398 -0.00883371 0.0270792 0 0 0 0.00608977 -0.0021866 0.032077 -0.0762061 -0.0145453 0.0058515 -3.99204 -0.111837 -0.537291 0.00929078 
184 1 1 0.0316714 -0.0123966 0.0255899 0 0 0 0.01061 -0.00146642 0.0836576 -0.0156235 0.0114329 -0.0127292 17.5293 -13.0259 1.89608 0.00580674 
112 1 1 -0.0241601 0.00265251 0.0243713 0 0 0 0.0401695 -0.0164976 0.053479 0.0492475 0.031778 0.0536812 -3.60283 -3.68378 2.38058 0.00929078 
160 1 1 -0.00266528 -0.00303103 0.0238406 0 0 0 0.00375816 -0.0173713 0.110738 -0.0819293 0.121723 -0.0845645 -28.6134 -7.56785 2.90645 0.00580674 
55 1 1 0.0415147 -0.00213423 0.0264887 0 0 0 0.00472465 0.0103031 0.119588 -0.0373009 0.00944891 0.00273995 -0.94342 13.2021 -0.901287 0.00929078 
100 1 1 0.00889393 0.00663471 0.0247 0 0 0 0.0075292 0.00541835 0.00979423 -0.0338622 -0.0217094 0.0203241 -1.63943 6.65079 -0.933308 0.00929078 
261 1 1 0.0445092 0.0129135 0.0195889 0 0 0 -0.0185613 0.0487147 0.125434 0.00160588 -0.0283502 0.00560022 -3.43104 22.9209 -9.18508 0.00580674 
246 1 1 -0.0442517 0.0271291 0.0248398 0 0 0 -0.00483951 -0.00300138 0.00580752 -0.00858474 0.00516852 0.0365132 3.26607 -3.75828 0.0939269 0.00580674 
108 1 1 0.0225476 0.0241676 0.0254466 0 0 0 0.0159967 0.033386 0.0435855 -0.0339963 0.0532842 0.0166534 -5.2941 1.75249 -0.767538 0.00929078 
23 1 1 -0.0279676 0.033222 0.0197219 0 0 0 -0.00572717 -0.0106803 0.0257697 0.0445406 0.0505106 0.0202263 3.36487 1.02673 -1.63757 0.00929078 
69 1 1 -0.00694844 0.0317493 0.0222674 0 0 0 -0.0123072 0.00677621 0.0488788 0.0351873 0.0349632 0.0388742 3.6733 -1.96528 2.14988 0.00929078 
16 1 1 0.0104438 0.0371372 0.0213009 0 0 0 -0.00853245 0.0357384 0.0357474 -0.0472418 0.114057 -0.0390992 -1.95044 4.46206 0.0410653 0.00929078 
323 1 1 -0.0133104 0.0447427 0.0232433 0 0 0 -0.0195325 0.00397867 0.0314926 0.00668953 -0.0131734 -0.00432885 -6.27909 -3.23478 -3.01331 0.00580674 
224 1 1 -0.0427464 -0.044106 0.0318502 0 0 0 0.0495033 -0.0174647 -0.0190814 -0.00348105 0.000682387 -0.0124777 3.69126 -26.0615 -5.15519 0.00580674 
42 1 1 -0.0118794 -0.0410129 0.0318531 0 0 0 -0.00516671 -0.000658785 0.00482366 0.0187812 -0.0248341 -0.0553381 -2.35978 4.82086 0.270748 0.00929078 
168 1 1 0.00254155 -0.0443171 0.0338805 0 0 0 -0.000358033 -5.61201e-05 0.00692976 -0.0192402 0.00728297 0.0178047 1.67528 -7.12322 -0.0533319 0.00580674 
3 1 1 0.0179481 -0.0411266 0.0330824 0 0 0 -0.0234001 -0.00435142 0.0837638 0.0218432 0.0364571 0.0524484 7.93179 9.33412 2.69539 0.00929078 
125 1 1 0.0440773 -0.0441877 0.0344797 0 0 0 0.0644632 0.0065173 0.054327 0 0 -0.0201138 -15.9839 -6.22212 -10.2435 0.00580674 
211 1 1 -0.0438605 -0.032968 0.0353316 0 0 0 0.022411 -0.0279663 -0.00132584 -0.00122915 -0.00637492 0.035617 -3.09785 0.659458 7.2779 0.00580674 
191 1 1 0.00557284 -0.0333281 0.0334814 0 0 0 -0.00424992 0.00329041 0.0158795 -0.0442572 0.0115086 0.0247538 -10.6389 -30.1706 -9.67993 0.00580674 
93 1 1 -0.0284328 -0.0313263 0.0370503 0 0 0 0.010915 -0.0231082 0.00882509 -0.0486167 -0.0539454 0.0954707 -8.15544 3.60698 1.35151 0.00929078 
66 1 1 -0.041137 -0.01834 0.0359508 0 0 0 0.00206331 -0.0210383 0.0114333 0.019732 -0.0398938 0.0725494 4.28706 -0.369298 -2.02184 0.00929078 
259 1 1 0.0270375 -0.0153659 0.0366501 0 0 0 -0.0252509 0.00984496 0.0788769 -0.0103183 0.0133579 -0.0132971 7.34086 -11.9402 3.03661 0.00580674 
336 1 1 -0.0236815 -0.00801044 0.0348528 0 0 0 0.0117103 -0.0141035 0.0639606 0.000162914 0.0234836 0.00362404 4.24271 -0.724339 -0.430075 0.00580674 
24 1 1 -0.00888225 -0.00746311 0.0370871 0 0 0 -0.00705661 0.027594 0.115704 -0.0346195 0.117838 0.141419 -6.19634 -6.56257 0.454978 0.00929078 
245 1 1 0.00358779 -0.0107853 0.0295338 0 0 0 0.00598627 0.0283963 0.130912 -0.0275197 0.0469143 0.00480556 7.77731 17.606 -7.25713 0.00580674 
107 1 1 -0.0396577 -0.000562538 0.0332458 0 0 0 0.020277 -0.0147307 0.0376727 0.0552243 -0.0404162 0.010809 -1.50467 -0.250531 0.832024 0.00929078 
303 1 1 0.029791 -0.00445288 0.037919 0 0 0 -0.0602536 0.0189945 0.130813 -0.0218277 0.0114636 -0.00671015 -1.85059 0.178193 4.95542 0.00580674 
208 1 1 -0.04472 0.0127129 0.0367042 0 0 0 -0.00645711 -0.00445075 0.00410702 0.0123399 -0.00451543 0.00723679 -4.79349 -0.698915 1.31362 0.00580674 
4 1 1 -0.00798991 0.00931427 0.0304834 0 0 0 0.017988 0.0168785 0.0613146 -0.00213717 0.120097 0.0570152 -0.739638 -0.411785 -0.164874 0.00929078 
95 1 1 0.0263898 0.00709166 0.0293539 0 0 0 -0.00719938 0.0180636 0.101548 -0.0600199 0.0265786 0.0177176 2.91211 -17.2195 1.481 0.00929078 
2 1 1 -0.0334674 0.0175759 0.0288582 0 0 0 -0.00714186 -0.00315986 0.0163743 -0.0479455 0.0121663 0.064219 1.43684 -1.47763 0.971204 0.00929078 
282 1 1 -0.0192745 0.0180416 0.0328863 0 0 0 -0.0105736 0.0103807 0.0434653 0.0105192 0.0408081 -0.0093254 2.7429 -6.72009 3.52136 0.00580674 
58 1 1 0.0411749 0.0163328 0.0337178 0 0 0 0.00150104 0.0289842 0.127129 -0.0334817 0.0416889 -0.0180451 -6.43356 13.4587 -2.98239 0.00929078 
199 1 1 -0.0444619 0.0240674 0.0365169 0 0 0 -0.011971 -0.0104836 0.0277051 0.0265933 0.0219983 0.0419754 8.44456 -4.85541 -1.27514 0.00580674 
262 1 1 -0.0346738 0.0298911 0.0367273 0 0 0 -0.0235744 -0.0118727 0.0803968 0.00254155 0.00337667 0.0463845 6.76018 4.33109 1.14705 0.00580674 
192 1 1 -0.024104 0.0280075 0.0332664 0 0 0 -0.0240286 -0.00249823 0.0408696 -0.00951515 0.0175146 0.0079663 0.979014 0.319893 -0.530031 0.00580674 
73 1 1 0.00557981 0.0230208 0.0319892 0 0 0 0.00786153 0.00555587 0.0475133 0.023957 0.0381877 0.0302889 4.20759 -1.68244 3.57015 0.00929078 
292 1 1 -0.0142199 0.0330761 0.0351464 0 0 0 -0.0192501 -0.0318631 0.0505946 0.00441344 0.00916863 -0.00501909 -1.98678 -5.56011 -4.95034 0.00580674 
9 1 1 -0.0412051 0.0410812 0.0291938 0 0 0 -0.00539007 -0.0051677 0.0301129 0.0523485 0.00411027 0.0339287 -1.0358 -3.4677 -1.43211 0.00929078 
126 1 1 -0.00941703 0.0437891 0.0341143 0 0 0 -0.0220204 0.00639203 0.0328976 -0.00523377 -0.00609079 0.00330244 3.70922 6.30758 -1.47437 0.00580674 
248 1 1 0.00180345 0.0442701 0.0312742 0 0 0 -0.0153389 0.016636 0.0326143 0.00227528 0.00851367 -0.00409908 1.36556 -6.93151 2.74057 0.00580674 
229 1 1 0.0137305 0.044623 0.0333893 0 0 0 0.00690872 -0.0284939 0.115954 0.0155696 -0.031172 0.0460518 2.97754 -9.56025 -4.24277 0.00580674 
114 1 1 0.0409869 0.0408592 0.0355017 0 0 0 -0.000700716 -0.00330205 0.0256448 -0.00771704 0.0548953 -0.0196903 -1.1686 2.39699 -0.178375 0.00929078 
329 1 1 -0.0235422 -0.0447244 0.0399615 0 0 0 0.0133033 -0.00821475 0.0370856 0.000601244 0.00297234 -0.00394272 6.41727 -0.804736 -2.01671 0.00580674 
283 1 1 0.030586 -0.0442729 0.0404381 0 0 0 0.0484307 0.00582704 0.000106971 -0.0141562 -0.000965252 0.011967 3.53345 2.83179 11.3039 0.00580674 
307 1 1 -0.015775 -0.033914 0.0444554 0 0 0 0.00777167 0.00543342 0.060814 -0.000352567 -0.00969905 0.0134281 -6.67694 -13.7098 -7.19333 0.00580674 
43 1 1 -0.00562648 -0.0251469 0.038381 0 0 0 0.019754 0.00435246 0.0456569 -0.221023 0.110335 0.137329 12.5381 18.1149 2.5819 0.00929078 
105 1 1 0.0317831 -0.0293989 0.0390991 0 0 0 -0.0500056 0.00896584 0.0520655 0.105108 0.041407 -0.03727 3.56625 -7.15045 1.0626 0.00929078 
326 1 1 0.0443478 -0.0267365 0.0472973 0 0 0 0.0189117 0.0211746 0.0692522 -0.0571537 -0.00784624 -0.0396998 -2.35922 9.7168 -0.602383 0.00580674 
81 1 1 -0.0213908 -0.017256 0.0464268 0 0 0 -0.00342749 -0.0473964 0.0588798 0.0890423 -0.0845373 -0.0583028 16.9332 -1.11791 2.69694 0.00929078 
52 1 1 0.0120349 -0.0210954 0.0410917 0 0 0 0.0285887 -0.00863325 0.050387 0.0241842 0.100504 0.0109907 0.727495 -15.6926 -3.19436 0.00929078 
332 1 1 0.0254015 -0.0186324 0.0473549 0 0 0 -0.00855785 0.00216301 0.089992 0.0148379 0.0184822 -0.0128812 -7.99169 13.9247 0.0136533 0.00580674 
220 1 1 -0.0441181 -0.00672477 0.0460484 0 0 0 0.0158782 0.035271 0.0690314 0.01374 -0.018936 -0.00448847 -15.5549 -10.1131 19.1639 0.00580674 
10 1 1 0.00587597 -0.00517191 0.047712 0 0 0 -0.0450285 -0.0721434 0.19313 -0.114774 0.0337849 0.0614623 24.0475 -1.6968 -2.5396 0.00929078 
240 1 1 0.0197367 -0.00620578 0.0427403 0 0 0 -0.038361 -0.00735228 0.167747 -0.0191423 0.0398933 0.00160046 -9.73358 5.85269 5.87667 0.00580674 
5 1 1 0.04102 -0.0134796 0.0412876 0 0 0 -0.0175168 0.0158613 0.0765165 0.00171261 0.162282 -0.0465491 -0.132745 8.18308 -1.06735 0.00929078 
133 1 1 -0.0293888 -0.00328156 0.0436474 0 0 0 0.0239496 -0.00615718 0.0754845 0.00553463 -0.0148744 0.0191355 -3.96581 -2.45262 -4.82167 0.00580674 
197 1 1 -0.0188951 -0.00269424 0.0481308 0 0 0 -0.00985231 -0.0591095 0.216537 -0.00359592 -0.0100894 0.028915 -2.2116 -22.5444 -7.18565 0.00580674 
318 1 1 0.044218 0.00312376 0.0403416 0 0 0 -0.0101746 0.0125416 0.138746 -0.00100223 0.0183466 -0.00561583 2.60516 -13.8276 3.31677 0.00580674 
236 1 1 -0.0209 0.00778337 0.0381476 0 0 0 -0.00658789 0.0455531 0.0538205 0.0150099 0.025229 0.0169107 -4.80889 -2.72036 -3.03702 0.00580674 
115 1 1 -3.92874e-05 0.0121176 0.0478177 0 0 0 -0.0357269 -0.0388885 0.261423 -0.0732875 0.105986 0.236121 -10.352 -14.9851 0.752112 0.00929078 
298 1 1 0.032838 0.00953681 0.0443012 0 0 0 -0.036942 -0.0604263 0.0524878 0.00118612 0.00211708 -0.0212222 14.9904 -30.8786 3.03026 0.00580674 
335 1 1 -0.0321926 0.0208174 0.0433963 0 0 0 -0.107079 -0.0782305 0.065327 0.0310904 0.0193381 0.0523596 11.7572 -8.2773 9.997 0.00580674 
15 1 1 0.0180698 0.0133194 0.0443136 0 0 0 -0.0548838 -0.0388419 0.0969126 -0.117585 0.0200536 0.0494174 1.31086 12.7611 4.17267 0.00929078 
117 1 1 -0.0178388 0.022944 0.046795 0 0 0 -0.0856218 -0.0667399 0.0944556 0.062985 -0.00116292 -0.019726 -3.70413 1.10474 -3.3392 0.00929078 
140 1 1 0.0084405 0.0242231 0.0468771 0 0 0 -0.0430467 -0.0388074 0.126429 -0.0109178 0.00802167 0.0304416 -22.06 9.41376 -0.70119 0.00580674 
99 1 1 -0.00289401 0.033182 0.0445127 0 0 0 -0.0544392 -0.0550627 0.0898335 -0.032877 0.0187108 0.0130722 2.86369 -2.11008 1.81067 0.00929078 
47 1 1 0.0237977 0.0360894 0.040496 0 0 0 0.0130823 -0.0511965 0.102834 0.0900583 -0.0966957 0.0294475 1.84134 5.48455 2.84985 0.00929078 
327 1 1 -0.0432111 0.0443681 0.0436037 0 0 0 -0.000582258 -0.0121512 0.0528711 -0.00533807 -0.0111129 0.00391449 -10.3101 8.20899 -0.27363 0.00580674 
122 1 1 -0.0257914 0.0413342 0.0389829 0 0 0 -0.000715484 0.00115811 0.0307145 -0.00220592 -0.000184596 0.071475 -3.2835 5.00646 -0.207098 0.00929078 
6 1 1 -0.0250375 -0.0409716 0.0556236 0 0 0 -0.00475122 0.0162275 0.0748982 -0.0691854 0.00387889 0.163246 8.24044 -4.84719 -0.144149 0.00929078 
314 1 1 -0.013553 -0.0445668 0.0470085 0 0 0 -0.0174522 -0.00176075 0.0456505 -0.0190281 0.00133528 0.0472856 8.43599 15.2319 3.28452 0.00580674 
265 1 1 0.0234284 -0.0441752 0.0494975 0 0 0 0.0426098 0.00835309 0.0217921 -0.0548345 0.00916993 -0.0438362 -4.58823 -2.16809 -10.7955 0.00580674 
84 1 1 -0.0409885 -0.0342306 0.0499039 0 0 0 0.0023977 0.0313655 0.029937 -0.0965902 -0.0498452 0.110088 -2.94772 -3.56245 2.47138 0.00929078 
337 1 1 -0.00499203 -0.0371252 0.0472956 0 0 0 0.028803 -0.037251 0.025117 -0.00184149 0.0191381 0.0339631 -14.2205 -17.0431 -14.0257 0.00580674 
56 1 1 0.00983189 -0.0374753 0.0489687 0 0 0 0.0297954 0.00140871 0.124804 -0.0358415 0.042571 -0.0203919 -12.6992 0.651648 10.9955 0.00929078 
49 1 1 0.0406855 -0.040793 0.0509917 0 0 0 0.0142442 0.030422 0.0555579 0.0445329 -0.0865231 -0.0480396 1.01554 -8.41731 -1.44585 0.00929078 
313 1 1 -0.0119534 -0.0278363 0.0535357 0 0 0 -0.000217321 0.000381315 0.0971653 0.0107927 0.0271458 -0.00422039 4.76442 3.15278 -5.19983 0.00580674 
137 1 1 -0.000334974 -0.027363 0.0531567 0 0 0 -0.100419 -0.0863746 0.0451812 -0.0267962 -0.00610797 -0.0187356 1.7852 -3.63045 12.9157 0.00580674 
91 1 1 0.0253755 -0.0304642 0.0562327 0 0 0 0.0345983 0.01615 0.122648 -0.0580006 0.0521595 -0.103022 0.485504 20.012 -14.4045 0.00929078 
36 1 1 -0.0409609 -0.0171255 0.0562346 0 0 0 0.0141055 0.046075 0.0931533 0.0776217 -0.0497937 -0.00684762 9.57996 -3.572 -2.82182 0.00929078 
215 1 1 0.0329611 -0.017244 0.0558213 0 0 0 -0.0146114 -0.00351121 0.104779 -0.0247411 -0.00459503 0.0540797 12.5251 -12.9646 12.4949 0.00580674 
217 1 1 0.0443453 -0.0165223 0.0567049 0 0 0 -0.00756634 0.0262488 0.0993718 0.00991509 -0.0181157 0.0528597 -1.26569 16.3324 -6.09852 0.00580674 
182 1 1 -0.0298692 -0.0073107 0.0544297 0 0 0 0.0293603 0.0676191 0.120501 0.000803147 -0.00898423 0.00666029 -10.6469 2.06187 6.25598 0.00580674 
276 1 1 0.0181778 -0.0117395 0.0530692 0 0 0 -0.0161699 -0.0459004 0.179088 0.00459523 0.0165777 0.010902 -23.4923 -5.31231 16.1483 0.00580674 
148 1 1 0.0444103 -0.00496697 0.0564428 0 0 0 -0.0043356 0.00203264 0.107767 0.000850939 0.00151816 0.0100542 -7.21253 19.4121 1.37769 0.00580674 
87 1 1 0.0301578 -0.00284634 0.0528959 0 0 0 -0.0289737 0.0153718 0.166803 0.0299898 0.138776 0.072183 2.08938 -4.85507 -3.85195 0.00929078 
32 1 1 -0.0381327 0.0085055 0.0496413 0 0 0 -0.201501 -0.0379268 0.146992 -0.0186208 -0.0602204 -0.00519248 -30.764 -2.07696 -10.7746 0.00929078 
57 1 1 -0.0151204 0.00819244 0.0574589 0 0 0 -0.0846907 -0.0137858 0.206794 -0.120624 0.0777876 0.055846 -4.75405 3.10335 7.10668 0.00929078 
291 1 1 0.044287 0.0127622 0.0478211 0 0 0 -0.00890847 -0.0101072 0.134399 -0.0114 0.0135616 0.00805753 14.2647 -21.5905 -8.29551 0.00580674 
39 1 1 -0.040984 0.0309805 0.0499229 0 0 0 0.0279394 0.0247869 0.152209 -0.0132046 0.0213167 0.0865304 -7.0443 6.97379 -2.27518 0.00929078 
250 1 1 -0.0291266 0.0244179 0.056361 0 0 0 -0.0173722 -0.0294089 0.163439 -0.0104161 -0.00472057 0.000133525 11.0743 12.8167 -8.39825 0.00580674 
106 1 1 0.040276 0.0274696 0.0483133 0 0 0 0.0177608 0.0519611 0.134316 -0.0337774 0.0617633 -0.0607542 6.10007 -19.4123 -5.70922 0.00929078 
113 1 1 0.0136855 0.0345889 0.0559492 0 0 0 -0.0425575 -0.00470722 0.09167 0.00886777 0.0900766 -0.021807 11.6302 2.34318 7.27232 0.00929078 
76 1 1 0.0308217 0.0406044 0.0571064 0 0 0 -0.035755 0.0217934 0.142175 0.012161 0.0569579 0.050189 9.58151 -0.731603 -2.77669 0.00929078 
174 1 1 -0.0342525 0.0443025 0.0509553 0 0 0 0.02457 0.0267524 0.0365103 -0.0171013 0.000310394 0.0200666 -6.45332 -2.34811 4.89939 0.00580674 
315 1 1 -0.00790172 0.0444557 0.0526361 0 0 0 -0.00519094 -0.0109238 0.0799004 -0.016038 0.0101247 -0.0052048 -14.6328 19.8888 -1.54115 0.00580674 
158 1 1 0.00401994 0.0445383 0.0506986 0 0 0 -0.0530006 -0.0149648 0.0818385 -0.0121136 -0.00177837 0.00710334 -15.6207 -8.52155 -7.95541 0.00580674 
203 1 1 0.0442205 0.0440883 0.049581 0 0 0 -0.0264442 -0.0248844 0.0595033 -0.00457179 0.00231182 -0.00597747 8.80787 -8.72675 10.145 0.00580674 
252 1 1 -0.0373121 -0.0442641 0.0637137 0 0 0 -0.0192944 0.0057033 0.083228 -0.0289178 -0.00725123 -0.0204958 14.9073 25.4889 3.98255 0.00580674 
190 1 1 -0.000912366 -0.0439513 0.0572713 0 0 0 0.03946 -0.0543854 0.0866552 -0.0845557 -0.0454136 0.0246816 20.3338 -7.30037 -7.29832 0.00580674 
109 1 1 0.0144917 -0.0411787 0.0661187 0 0 0 0.0108119 0.00787825 0.136233 -0.0127093 0.0536991 -0.0419997 14.9765 -5.29486 -1.08068 0.00929078 
189 1 1 0.0287002 -0.0444463 0.05977 0 0 0 -0.0439175 -0.0122832 0.0628319 -0.0191877 0.00657179 -0.0115539 9.10802 -19.4554 7.11565 0.00580674 
186 1 1 0.0438104 -0.0443402 0.0652668 0 0 0 -0.031271 0.0120775 0.0647677 -0.0458921 -0.0181217 0.00439939 9.53196 5.85727 5.20102 0.00580674 
230 1 1 -0.0427094 -0.0293345 0.0647043 0 0 0 0.023305 -0.0493521 -0.00204973 0.000831756 -0.019396 -0.0169431 3.25753 -14.927 20.4507 0.00580674 
75 1 1 -0.0243223 -0.0242011 0.0633633 0 0 0 -0.00147401 0.0129524 0.118796 -0.0359446 0.089041 -0.0713744 -2.25497 9.23741 1.39948 0.00929078 
227 1 1 0.0106948 -0.0264736 0.0588542 0 0 0 0.0448439 -0.0627275 0.204946 0.0182688 0.0240018 0.000960687 38.5964 3.46251 -17.0346 0.00580674 
247 1 1 0.0397712 -0.0269872 0.0578038 0 0 0 0.0321211 -0.00495385 0.0857995 0.0453779 -0.00410007 0.0716069 -1.58937 -27.6389 17.0004 0.00580674 
26 1 1 -0.00630405 -0.0146868 0.0583447 0 0 0 -0.0430351 -0.10084 0.163178 -0.0466675 -0.0028126 -0.0159861 13.2697 3.49935 -14.7746 0.00929078 
209 1 1 0.00861119 -0.0153618 0.0583282 0 0 0 -0.0177795 -0.0695811 0.208894 -0.0028173 0.0352405 0.00241282 -35.8451 -14.7231 28.524 0.00580674 
204 1 1 -0.0197129 -0.00838272 0.0596624 0 0 0 -0.00146203 0.0194018 0.216117 0.00884022 0.02119 0.0153664 33.3726 -20.8091 -3.79852 0.00580674 
325 1 1 0.0402887 -0.0108109 0.0658907 0 0 0 -0.0447252 0.0210595 0.120757 0.00556977 0.0279593 -0.0244643 16.2216 -24.7613 -2.16737 0.00580674 
306 1 1 -0.0417049 -0.00240105 0.0594131 0 0 0 -0.160758 0.0312722 0.285561 0.00552618 -0.0144705 -0.0184863 18.9217 -2.47593 31.9355 0.00580674 
53 1 1 -0.0289997 0.000803782 0.0669351 0 0 0 -0.0749648 -0.0439039 0.223727 -0.0146876 -0.0193547 -0.0179041 -2.52323 -5.41762 0.464549 0.00929078 
22 1 1 0.00126637 0.00155437 0.0641856 0 0 0 -0.0207094 -0.0379861 0.194484 -0.0359571 -0.000930119 0.028488 -28.2487 5.59867 3.3396 0.00929078 
45 1 1 0.0301149 0.0134317 0.0614829 0 0 0 0.0113905 0.0322268 0.157573 -0.0140729 0.138109 0.0929663 -4.4583 -10.7935 -8.89481 0.00929078 
338 1 1 0.0443421 0.00981508 0.0588552 0 0 0 0.000307627 -0.0350209 0.138583 -0.00505165 0.0247525 0.0233661 -10.1906 24.3963 5.92646 0.00580674 
63 1 1 -0.0376105 0.0169509 0.0662343 0 0 0 -0.0408893 -0.0234352 0.168557 -0.0356034 -0.0195067 -0.0270576 0.711921 -3.89819 -4.48083 0.00929078 
233 1 1 -0.00323665 0.0156298 0.0624167 0 0 0 -0.0253371 -0.0242913 0.134197 -0.0125986 0.00421408 -0.0117483 24.3313 22.4683 -9.8917 0.00580674 
263 1 1 0.00844202 0.0187557 0.0635239 0 0 0 0.0112084 -0.0178338 0.0153318 0 0 -0.0201138 -38.2504 19.8643 17.0658 0.00580674 
266 1 1 0.0181469 0.0206935 0.0572624 0 0 0 0.0540215 0.0296189 0.0553601 0.00871808 0.0347832 -0.0076413 -16.1369 8.87321 5.98462 0.00580674 