ITEM: TIMESTEP
54950
ITEM: NUMBER OF ATOMS
338
ITEM: BOX BOUNDS mm mm mm
-0.05 0.05
-0.05 0.05
0 0.15
ITEM: ATOMS id type type x y z ix iy iz vx vy vz fx fy fz omegax omegay omegaz radius 
131 1 1 -0.0257481 -0.0400546 0.00560332 0 0 0 2.38293e-05 5.04147e-05 5.25066e-05 8.15098e-06 -4.14683e-05 -0.000116651 -0.00630773 -2.26654e-05 -0.000497855 0.00694698 
319 1 1 -0.0146874 -0.0445409 0.00605304 0 0 0 1.50039e-05 2.70848e-05 3.26199e-05 1.22147e-05 -1.25242e-05 -6.46583e-05 0.000191466 0.00366035 -0.00292166 0.00694698 
243 1 1 -0.00279118 -0.043873 0.00610441 0 0 0 6.51529e-06 2.41873e-05 1.83323e-05 3.2183e-05 1.86263e-05 -6.08798e-06 3.16563e-05 -0.00219483 0.00293431 0.00694698 
260 1 1 0.0252546 -0.0438307 0.00594053 0 0 0 1.3182e-06 3.68755e-05 2.68155e-05 1.89099e-05 5.70027e-05 -5.21512e-05 -0.000616872 0.000998687 -0.000639122 0.00694698 
78 1 1 0.0413085 -0.0407811 0.00927585 0 0 0 1.55652e-06 1.95343e-05 1.98846e-05 8.97417e-05 6.16075e-05 -0.000234933 0.000328628 0.00128528 -0.00200746 0.0111152 
74 1 1 -0.0408279 -0.0367696 0.00959713 0 0 0 3.09533e-05 3.72484e-05 3.16379e-05 -0.000100443 -0.000209014 -0.000235756 -0.00049839 0.000143781 0.0014904 0.0111152 
296 1 1 -0.0274829 -0.0274567 0.00612197 0 0 0 3.09204e-05 5.53679e-05 4.17216e-05 -9.17493e-06 -3.88987e-05 -0.000151289 -0.0027939 -3.06768e-05 0.000662219 0.00694698 
173 1 1 -0.0155729 -0.0319598 0.00557458 0 0 0 2.76666e-05 5.83006e-05 5.21376e-05 2.73049e-05 -1.07622e-05 -0.000168864 -0.0031831 0.00195148 0.000789525 0.00694698 
275 1 1 -0.00359022 -0.0297747 0.00572456 0 0 0 2.39302e-05 7.83738e-05 3.90706e-05 3.41363e-05 2.52818e-05 -0.0001433 -0.0057811 0.00247609 -0.000625657 0.00694698 
60 1 1 0.0105836 -0.0360376 0.00947782 0 0 0 1.35612e-05 7.32906e-05 4.43785e-05 0.000227799 0.000488029 -0.000365538 -0.00229422 0.000688048 -0.0010293 0.0111152 
102 1 1 -0.0405427 -0.0169476 0.00905852 0 0 0 1.77134e-05 4.31001e-05 1.50413e-05 -0.000183238 -0.000233763 -0.000311222 -0.00336449 0.0014225 0.00218229 0.0111152 
328 1 1 -0.0254333 -0.01519 0.00543688 0 0 0 2.44011e-05 7.00334e-05 2.69793e-06 -2.58999e-05 -4.78276e-05 -7.80033e-05 -0.00834954 -0.00140936 0.00207998 0.00694698 
40 1 1 -0.0106765 -0.0158184 0.0106464 0 0 0 3.98966e-05 0.000115182 4.3413e-05 0.000223584 0.00018796 -0.00164294 -0.00296934 0.000616147 0.000364966 0.0111152 
279 1 1 0.00440772 -0.0207352 0.0109056 0 0 0 4.20541e-05 0.000119561 4.92422e-05 4.44707e-05 0.000134965 -0.000339229 0.00124616 -0.000388661 -0.000721193 0.00694698 
267 1 1 0.0155005 -0.0199622 0.00561757 0 0 0 3.17226e-05 8.5167e-05 2.54712e-05 7.20651e-05 0.00013693 -0.000190465 -0.00707321 0.00338952 -0.00212831 0.00694698 
144 1 1 0.0430495 -0.0248667 0.00596803 0 0 0 2.03265e-05 2.45601e-05 1.89347e-05 3.63041e-05 4.29044e-05 -6.7089e-05 -0.00140489 0.00536629 -0.000955307 0.00694698 
202 1 1 0.0452017 -0.0129602 0.00612954 0 0 0 1.64314e-05 2.53205e-05 -1.44611e-06 3.5698e-05 4.29744e-05 -0.000103467 -0.00405308 0.00107921 -0.00214331 0.00694698 
257 1 1 -0.0442073 -0.00104704 0.00624948 0 0 0 5.65049e-07 1.55206e-05 4.15374e-08 -1.37002e-05 3.56573e-05 -3.68764e-05 0.000673982 -0.00108871 0.000795444 0.00694698 
274 1 1 -0.0220225 -0.00377884 0.00775211 0 0 0 1.45986e-05 9.67427e-05 8.45903e-05 -7.63585e-05 -1.61812e-05 -0.000356387 0.0189076 -0.00534617 0.00270678 0.00694698 
50 1 1 0.0305735 -0.00918811 0.00973552 0 0 0 4.74283e-05 7.25262e-05 2.56844e-05 0.000520318 0.000870034 -0.00056232 -0.00547947 0.00402199 -0.00220248 0.0111152 
232 1 1 -0.0434387 0.0118755 0.00626172 0 0 0 6.03578e-06 1.43833e-05 7.04404e-06 -6.09052e-05 6.33735e-05 -8.89699e-05 -5.90593e-05 0.00214133 -0.000943171 0.00694698 
268 1 1 -0.0326769 0.00368226 0.00609426 0 0 0 -1.18093e-06 5.72879e-05 6.18457e-05 -9.46896e-05 6.33279e-05 -0.000230459 -0.00488294 -0.00836094 0.00562635 0.00694698 
171 1 1 -0.0211969 0.00798665 0.00823494 0 0 0 2.10497e-05 0.000101236 0.000170874 -0.000187148 -4.61509e-05 -0.000495585 -0.00367009 -0.00032981 -0.00186454 0.00694698 
164 1 1 0.0205999 0.00173755 0.0054463 0 0 0 4.53022e-05 8.32753e-05 3.68341e-05 8.22449e-05 0.000234674 -9.60751e-06 -0.00753166 0.0125704 -0.00353645 0.00694698 
297 1 1 -0.0253905 0.0195859 0.00549884 0 0 0 2.57577e-05 7.16715e-05 6.92107e-05 -0.000180702 -1.6977e-05 -0.000287288 -0.0122625 0.00339381 -0.00332323 0.00694698 
222 1 1 -0.0108507 0.0145911 0.00545587 0 0 0 2.35669e-05 8.11015e-05 8.47976e-05 -0.000143333 -1.9869e-05 -0.0002674 -0.0139412 0.00686147 0.00441635 0.00694698 
290 1 1 -0.000799259 0.0214674 0.00523798 0 0 0 8.06534e-06 4.15805e-05 7.72653e-06 -0.000126803 2.52915e-05 -0.000122204 -0.00244464 -0.000626851 -0.00321668 0.00694698 
98 1 1 0.0122233 0.0135226 0.00979366 0 0 0 4.03503e-05 0.000129978 4.09536e-05 -0.000364702 0.000962208 -0.000360924 -0.0139479 0.0072505 0.00395549 0.0111152 
316 1 1 0.0321802 0.019578 0.00502884 0 0 0 2.23935e-07 5.94292e-05 6.01144e-06 4.56427e-05 0.000109107 1.87882e-05 -0.00746761 -0.00220186 -0.000180565 0.00694698 
162 1 1 0.0446349 0.0202022 0.00544627 0 0 0 2.1823e-06 4.78031e-05 1.43299e-05 4.75495e-05 0.000140015 -5.37843e-05 -0.0109581 0.00211818 -0.00437481 0.00694698 
294 1 1 -0.0439424 0.0252726 0.00613944 0 0 0 -5.1702e-06 1.18337e-05 -4.04784e-07 -6.13927e-05 5.47763e-05 -5.57323e-05 -0.000948902 0.00018813 0.00224435 0.00694698 
175 1 1 -0.0327496 0.0313741 0.00614212 0 0 0 -1.50658e-05 -2.69832e-07 2.21017e-05 -2.94996e-05 9.38436e-05 -0.000112365 7.14261e-05 -0.00494291 -0.00431645 0.00694698 
255 1 1 -0.0148477 0.0261367 0.00587609 0 0 0 3.41761e-06 4.82302e-05 1.42747e-05 -0.000105635 -2.66647e-05 -0.000136938 -0.00657515 0.000343541 0.0018722 0.00694698 
324 1 1 -0.00330541 0.0326855 0.00566934 0 0 0 -3.29948e-06 3.74842e-05 8.26601e-06 -8.112e-06 -9.88752e-05 -5.56265e-05 -0.00110687 -0.00246157 0.00515456 0.00694698 
161 1 1 0.00824503 0.0320298 0.00644892 0 0 0 1.21886e-05 9.38975e-05 2.85875e-05 6.62222e-05 -2.47404e-05 -0.000189696 -0.0194054 0.00574972 -0.00157405 0.00694698 
77 1 1 0.0226325 0.029598 0.0123431 0 0 0 -1.174e-06 6.95456e-05 -2.15108e-06 0.000441887 0.00102682 -0.000302163 0.00875346 -0.00382798 -0.00299558 0.0111152 
155 1 1 0.0376085 0.0311764 0.00564486 0 0 0 1.07063e-05 4.092e-05 1.53851e-05 4.87039e-05 0.000126843 -0.000100203 0.00135398 0.000822813 -0.00177442 0.00694698 
321 1 1 -0.04402 0.0437755 0.00629383 0 0 0 6.64745e-07 7.78567e-07 1.14926e-05 -3.5186e-05 1.38655e-05 -5.39687e-05 -0.00174748 -0.000768145 0.000155574 0.00694698 
207 1 1 -0.0314324 0.0439672 0.00637415 0 0 0 8.56987e-07 1.07704e-05 -1.96352e-06 -1.4129e-05 3.20059e-06 -5.68993e-05 -0.0019832 0.00331754 0.00216136 0.00694698 
38 1 1 -0.0153313 0.0415941 0.00979063 0 0 0 -2.10775e-05 2.78708e-05 -1.55752e-05 8.10653e-05 -9.49612e-05 -2.49318e-05 -0.000462916 -0.00266607 -0.00206867 0.0111152 
149 1 1 0.0120645 0.043872 0.00543325 0 0 0 1.45536e-05 1.96141e-05 -3.28429e-05 -0.000130997 2.40822e-05 0.000111636 0.00305708 0.00130056 -0.000126858 0.00694698 
237 1 1 0.0011871 0.0437539 0.0121483 0 0 0 -4.80041e-07 6.97808e-06 -6.77199e-06 -1.95908e-05 1.0466e-05 -1.91263e-05 0.001597 0.00293256 -0.00109049 0.00694698 
249 1 1 0.0277053 0.0441437 0.00611638 0 0 0 1.49529e-05 2.51015e-05 4.02302e-05 7.28197e-05 0.000108316 -0.00012943 -0.00354211 0.00733829 -0.000102203 0.00694698 
289 1 1 0.0443721 0.0422255 0.00592206 0 0 0 1.3222e-05 -3.00408e-06 3.58299e-05 1.09304e-05 0.000147101 -0.00011681 0.00404274 0.00458596 0.000111895 0.00694698 
331 1 1 -0.0432693 -0.0455642 0.0218634 0 0 0 3.18757e-05 2.51947e-05 2.33021e-05 -1.02001e-06 -2.19219e-05 -2.10092e-05 0.00215912 -0.0014131 -0.00209105 0.00694698 
299 1 1 -0.0246085 -0.0451872 0.0168095 0 0 0 3.44875e-05 6.97526e-05 7.76316e-05 -1.31625e-05 -1.39967e-05 -0.000191166 0.00858603 0.00505831 -0.00306001 0.00694698 
225 1 1 -0.0115498 -0.0442709 0.0185952 0 0 0 2.61215e-05 6.71581e-05 7.23343e-05 -1.88104e-05 3.17873e-07 -0.000162784 0.00120075 -0.00175359 -0.00262734 0.00694698 
242 1 1 0.00106186 -0.0446808 0.0196825 0 0 0 2.04721e-05 5.75685e-05 5.62107e-05 7.60633e-06 8.35947e-05 -7.85481e-05 0.0075739 0.00416546 -0.00124107 0.00694698 
130 1 1 0.0208357 -0.0442059 0.0182028 0 0 0 3.90929e-06 2.67566e-05 3.68566e-05 6.90305e-05 8.64747e-05 -5.57704e-05 0.00570894 -0.00153459 -0.00191872 0.00694698 
167 1 1 0.0319451 -0.0442251 0.0228863 0 0 0 -2.0864e-06 1.89017e-05 4.57538e-05 4.38511e-05 -8.46133e-06 -0.000172088 0.00209213 0.00120012 0.00100403 0.00694698 
136 1 1 0.0442903 -0.0447089 0.0241887 0 0 0 -7.36649e-06 1.92718e-05 2.12495e-05 2.6816e-05 4.09274e-06 -9.43085e-05 0.00115347 -8.35143e-05 0.000198127 0.00694698 
179 1 1 -0.0345746 -0.0262027 0.0213895 0 0 0 4.47989e-05 9.84127e-05 6.07308e-05 -3.06995e-05 1.22672e-05 -0.000355875 -0.00303295 -0.0049514 0.00341322 0.00694698 
7 1 1 -0.0200353 -0.0304271 0.021117 0 0 0 5.98194e-05 0.000125871 0.000120483 -0.000209083 0.000151968 -0.00171816 -0.00255797 0.00108471 0.000312253 0.0111152 
104 1 1 -0.000112718 -0.0285697 0.024724 0 0 0 5.66288e-05 0.000130716 9.86703e-05 -0.000439666 0.000642045 -0.00142503 -0.00142166 0.00312333 -0.00124657 0.0111152 
67 1 1 0.0278423 -0.0280454 0.0126284 0 0 0 2.46853e-05 7.84691e-05 6.38024e-05 0.00029385 0.00069523 -0.000957849 0.000138862 -0.00102776 -0.00219882 0.0111152 
128 1 1 -0.0450313 -0.0217265 0.0238336 0 0 0 2.59777e-05 4.61431e-05 2.28875e-05 -0.000116555 -4.66062e-05 -0.000143205 0.000688102 -0.00113759 0.00322762 0.00694698 
278 1 1 0.0331687 -0.0161931 0.0241363 0 0 0 2.75157e-05 0.000107685 9.50074e-05 0.000120502 0.000137013 -0.000273293 -0.000457414 -0.00355655 -0.00322511 0.00694698 
146 1 1 -0.044873 -0.00919986 0.0224712 0 0 0 -5.05169e-07 6.48164e-05 5.04164e-05 -4.39797e-05 4.78341e-05 -0.000291752 0.00690776 -0.00678886 0.00575771 0.00694698 
96 1 1 0.0119172 -0.00721247 0.0161324 0 0 0 7.71334e-05 0.00014245 9.1514e-05 -0.000134815 0.000902456 -0.000948052 0.00285095 0.00130021 -0.0024316 0.0111152 
183 1 1 0.0447601 -0.00703522 0.0175421 0 0 0 9.27911e-06 5.40924e-05 8.97262e-06 0.000111948 0.000120414 -0.000193993 0.00489745 -0.00552156 -0.00481244 0.00694698 
25 1 1 -0.037754 0.00483173 0.0223894 0 0 0 2.57756e-05 0.000126066 7.95918e-05 -0.0011226 0.000483554 -0.00214564 -0.00361366 0.00600906 -0.00299049 0.0111152 
17 1 1 -0.00526005 0.00256299 0.0144084 0 0 0 6.38915e-05 0.000158684 0.000130256 -0.000406698 2.54284e-05 -0.00195543 0.00538263 -0.00363397 -0.000728192 0.0111152 
94 1 1 0.0384741 0.00842683 0.0134969 0 0 0 -9.83316e-07 9.16154e-05 4.57019e-05 0.000958355 0.000798441 -0.000650828 0.00295666 -0.00840591 0.00613526 0.0111152 
300 1 1 -0.0447061 0.0189523 0.0170511 0 0 0 1.61761e-05 5.67469e-05 1.60053e-05 -0.000180861 9.65318e-05 -0.00015621 -0.00649107 -0.000841142 0.00636072 0.00694698 
273 1 1 -0.0327465 0.0189503 0.0155436 0 0 0 4.01384e-05 0.000108514 8.05025e-05 -0.000300985 0.000105969 -0.000381299 0.00877399 -0.00662009 0.000546736 0.00694698 
28 1 1 -0.0168117 0.0183632 0.0204919 0 0 0 5.4421e-05 0.000173634 0.000135795 -0.00137575 -0.000757068 -0.00190362 -0.0055563 0.00101665 0.00402212 0.0111152 
286 1 1 -0.00173301 0.0186072 0.0168813 0 0 0 3.93399e-05 0.000185116 5.89623e-05 -0.000315952 5.00491e-05 -0.000223247 -0.0268091 0.00586424 0.00771272 0.00694698 
305 1 1 -0.0436936 0.0348177 0.0156114 0 0 0 -2.03304e-05 1.50998e-06 2.55504e-05 -2.0535e-05 0.00011046 -0.000152123 0.00186037 -0.00494886 -9.68127e-05 0.00694698 
23 1 1 -0.0279412 0.0337348 0.0221097 0 0 0 -1.26852e-05 0.000107736 3.07927e-05 -0.000544941 -0.000153217 -0.00094998 -0.0106679 0.00438631 0.00693801 0.0111152 
320 1 1 0.00379646 0.029609 0.0183793 0 0 0 -0.000128784 0.000186842 2.24472e-05 0.000722047 -7.09514e-05 -0.000288469 0.0137275 -0.0345381 0.00760765 0.00694698 
284 1 1 0.0446347 0.0273725 0.0157371 0 0 0 -2.00233e-06 -3.19782e-06 1.61255e-05 6.45679e-05 0.000215629 -0.000150812 0.0167173 -0.00094155 0.00366539 0.00694698 
239 1 1 0.018775 0.0448272 0.0154887 0 0 0 -5.71103e-05 7.53393e-06 3.8929e-05 0.000457801 0.000214975 -6.45765e-05 0.000388083 -0.0216442 0.00117789 0.00694698 
61 1 1 0.0370829 0.0409696 0.0204872 0 0 0 -2.91049e-05 1.07989e-06 6.1543e-05 0.000795497 0.000650645 -0.000449703 -0.0032583 -0.00703117 -0.00327218 0.0111152 
224 1 1 -0.0437842 -0.0444768 0.0343523 0 0 0 2.89321e-05 1.29709e-05 2.76707e-05 -1.98009e-05 1.28361e-05 -1.85104e-05 0.00323011 -5.78909e-05 -0.00429402 0.00694698 
256 1 1 -0.0327608 -0.0400948 0.0257177 0 0 0 4.19403e-05 7.26855e-05 9.89441e-05 2.32203e-05 8.39976e-05 -0.000268948 -0.0027721 -0.00936199 0.00454467 0.00694698 
42 1 1 -0.0120031 -0.0408869 0.0355065 0 0 0 5.39461e-05 0.000125791 0.000133066 -0.000397008 5.33979e-05 -0.00120304 0.00409353 0.00437995 -0.00463559 0.0111152 
271 1 1 0.0313717 -0.040779 0.0343156 0 0 0 3.17141e-06 6.71199e-05 8.66846e-05 2.75658e-05 -3.98929e-05 -0.000392584 -0.00363008 0.000771861 -0.00100188 0.00694698 
125 1 1 0.0438559 -0.0440727 0.0371344 0 0 0 8.00159e-06 1.37864e-05 2.78887e-05 -4.10787e-05 4.71757e-05 -0.000141122 0.00337386 0.00546671 -0.00244054 0.00694698 
180 1 1 -0.0442349 -0.0338853 0.0265895 0 0 0 3.47224e-05 3.63508e-05 3.3284e-05 -2.67293e-05 -2.20874e-05 -8.35129e-05 -0.000397703 -0.000421042 0.00238943 0.00694698 
120 1 1 0.0409684 -0.0296039 0.0290177 0 0 0 -2.93331e-06 4.90123e-05 7.03066e-05 0.000214297 0.000175648 -0.00109509 0.00133691 0.00347021 -0.00267058 0.0111152 
178 1 1 -0.0126389 -0.0206733 0.0321263 0 0 0 5.88476e-05 0.000190242 0.000179353 -0.000278828 -2.39228e-05 -0.000388631 -0.00916699 -0.00144981 0.000959487 0.00694698 
51 1 1 0.0185589 -0.022661 0.0301885 0 0 0 2.78412e-05 0.000127763 0.000118375 -0.000115125 0.000648462 -0.00209936 0.000674574 -0.00187542 0.00126833 0.0111152 
134 1 1 0.0440826 -0.0143844 0.0325109 0 0 0 -1.74655e-05 4.44716e-05 6.98922e-05 7.16436e-05 4.07596e-05 -0.000225902 -0.000683808 0.00332695 0.00262958 0.00694698 
19 1 1 -0.0263967 -0.012007 0.0273713 0 0 0 4.89235e-05 0.000165223 0.000134886 -0.00138348 0.000114122 -0.00318753 0.00232193 -0.00653852 0.00127538 0.0111152 
310 1 1 -0.0104364 -0.00898797 0.0299641 0 0 0 4.71847e-05 0.000184388 0.000143697 -0.000400604 -4.96089e-07 -0.000161733 0.0100951 0.013748 -0.000224024 0.00694698 
258 1 1 0.000950047 -0.0123391 0.0275499 0 0 0 4.9436e-05 0.000165014 5.50872e-05 -0.000271764 0.000110102 -0.000306158 -0.0063247 -0.00555332 0.000210471 0.00694698 
18 1 1 0.012187 -0.0044732 0.0369608 0 0 0 -3.41053e-05 0.000164344 0.000126133 -0.000237384 0.000656101 -0.00197611 0.00119576 -0.0106307 -0.00188686 0.0111152 
184 1 1 0.0277391 -0.0080689 0.032896 0 0 0 -2.4686e-05 0.00012137 0.000153275 7.14251e-06 0.000173631 -0.000552067 0.00107107 0.0054828 -0.00142748 0.00694698 
112 1 1 -0.01794 0.00468406 0.0351759 0 0 0 5.73866e-05 0.000165564 0.00021877 -0.0021222 -4.25946e-06 -0.0019588 0.00236115 -0.00567948 -0.000769104 0.0111152 
160 1 1 -0.00258783 0.000661608 0.0310727 0 0 0 4.0998e-05 0.000188594 0.000111068 -0.000327529 -1.87092e-07 -0.000369694 -0.00357406 0.0137084 0.00338942 0.00694698 
55 1 1 0.0406907 0.00155569 0.0321768 0 0 0 -4.3284e-05 6.66194e-05 8.13153e-05 0.000547821 0.000339204 -0.00128065 0.00101456 0.00426088 -0.0014319 0.0111152 
2 1 1 -0.0316932 0.019655 0.0354851 0 0 0 4.46519e-05 0.000140324 0.000119016 -0.00165498 -0.000112616 -0.00189555 0.00136094 -0.00649573 0.0040006 0.0111152 
100 1 1 0.00652139 0.0141764 0.0298284 0 0 0 -1.06426e-06 0.000245816 0.000177852 -0.00102809 0.000285719 -0.00180338 0.0110993 -0.00942935 0.00126764 0.0111152 
261 1 1 0.0433989 0.0180072 0.0268079 0 0 0 -5.81652e-05 7.50814e-05 8.36051e-05 0.000243112 5.36467e-05 -9.85784e-05 5.07853e-05 0.00424414 -0.00455539 0.00694698 
246 1 1 -0.0443137 0.0262015 0.0275326 0 0 0 2.19709e-05 5.74678e-05 2.19748e-05 -0.000222543 2.9542e-05 -0.000187777 0.00128891 0.000230255 0.00608969 0.00694698 
69 1 1 -0.00686324 0.029827 0.0340239 0 0 0 -7.19574e-05 0.000159265 0.000337017 0.000561565 0.000626404 -0.00606063 0.0164352 0.000619659 0.00526778 0.0111152 
108 1 1 0.0262495 0.028896 0.0325399 0 0 0 -0.000104996 4.50133e-05 0.000104845 0.00131567 0.000677045 -0.000549448 -0.00808285 -0.00354099 0.00483988 0.0111152 
9 1 1 -0.0407957 0.0418491 0.0325581 0 0 0 -5.81339e-06 4.20257e-05 2.0317e-05 -0.000218354 -9.91798e-05 -0.000385346 0.000339851 0.000660532 0.00216123 0.0111152 
323 1 1 -0.00700785 0.0443555 0.0261323 0 0 0 -0.000113559 6.44481e-05 0.000281615 0.000896429 -3.88616e-05 -0.00177482 -0.0453013 0.0209393 -0.0141886 0.00694698 
16 1 1 0.0103832 0.0409505 0.0288257 0 0 0 -0.000136098 5.33952e-05 0.000103917 0.00313999 0.000306004 -0.00120195 -0.00560184 0.0146449 -0.0114191 0.0111152 
329 1 1 -0.0243337 -0.0448884 0.0452015 0 0 0 3.21126e-05 0.000101983 0.00011109 -0.000111723 -4.66791e-06 -0.000193261 0.0149942 -0.00730825 -0.00574307 0.00694698 
168 1 1 0.00170639 -0.045013 0.0401991 0 0 0 2.71641e-05 4.84778e-05 4.06232e-05 -1.47212e-05 9.22821e-05 -0.000227031 0.00785258 0.00424518 -0.000694056 0.00694698 
3 1 1 0.0165061 -0.0408746 0.0393132 0 0 0 1.13314e-05 7.1053e-05 7.09409e-05 0.000105276 0.000109207 -0.00172329 0.00531969 -0.00280189 0.00040551 0.0111152 
283 1 1 0.0310352 -0.0446315 0.0458373 0 0 0 -1.23899e-05 5.70208e-05 7.77108e-05 5.89516e-05 -2.13977e-05 -0.000343233 0.00798558 -0.00367994 0.00425208 0.00694698 
211 1 1 -0.0439276 -0.0331952 0.0391795 0 0 0 6.86473e-05 6.28721e-05 5.7213e-05 -7.61935e-05 6.2146e-05 -0.000178021 -0.0031102 -0.00128802 0.00434615 0.00694698 
93 1 1 -0.0271456 -0.0292817 0.0419056 0 0 0 0.000101359 0.000187334 0.000196026 -0.000457546 0.000132433 -0.00219103 -0.00110823 -0.00844384 0.00201027 0.0111152 
191 1 1 0.00287898 -0.0323183 0.040748 0 0 0 4.81878e-05 0.00012326 0.000127594 -5.58754e-05 9.41164e-05 -0.000521068 0.00420434 -0.00037057 -0.00725833 0.00694698 
105 1 1 0.0303968 -0.0280613 0.0465901 0 0 0 -2.16156e-05 0.000101477 0.000160604 0.000394318 2.38388e-05 -0.00267497 0.000674399 -0.000271851 -0.00119332 0.0111152 
66 1 1 -0.041682 -0.0169768 0.0389237 0 0 0 1.89085e-05 9.47271e-05 3.66972e-05 -0.000684348 9.42719e-05 -0.00204669 -0.0031985 -0.00221267 0.00720535 0.0111152 
43 1 1 -0.00882965 -0.0242903 0.0478758 0 0 0 0.000107409 0.000168249 0.000304201 -0.00054399 8.26142e-05 -0.00249568 0.0122776 0.00790342 -0.00122979 0.0111152 
259 1 1 0.0241568 -0.01313 0.0440619 0 0 0 -3.66067e-05 0.00012724 0.000180938 7.01193e-05 0.000120353 -0.000613779 0.00312547 0.000449766 0.0026841 0.00694698 
336 1 1 -0.0246929 -0.0116109 0.0453251 0 0 0 -0.000765556 -0.00353821 0.0016778 0.00227443 0.00123448 -0.00717298 0.593345 -0.125536 0.520026 0.00694698 
245 1 1 -0.000273848 -0.0118502 0.042791 0 0 0 -2.1898e-05 0.000222419 0.000289073 -9.34638e-05 3.70707e-05 -0.000672983 0.00804012 0.0473809 -0.00713291 0.00694698 
303 1 1 0.0269175 -0.00136587 0.0493333 0 0 0 -6.79868e-05 0.000136606 0.000259396 8.95191e-05 0.000152274 -0.000783025 0.00380585 0.00743019 -0.00277693 0.00694698 
5 1 1 0.0405047 -0.0106682 0.048825 0 0 0 -3.739e-05 7.75829e-05 0.00011857 0.000272949 0.000218856 -0.00166636 -0.00235093 0.00207091 -0.00228751 0.0111152 
107 1 1 -0.0382429 0.00195702 0.0431282 0 0 0 2.26353e-05 0.000109737 7.99516e-05 -0.00141215 -7.96151e-05 -0.0020039 0.00442967 -0.00365106 -0.00322885 0.0111152 
95 1 1 0.02393 0.0111487 0.0391402 0 0 0 -6.47597e-05 0.000125342 0.000244493 1.91433e-05 0.000617601 -0.00280788 -0.00182165 0.0023409 -0.00368426 0.0111152 
318 1 1 0.044365 0.00472844 0.048567 0 0 0 -7.71821e-06 4.70762e-05 6.60764e-05 -2.36324e-05 1.73127e-05 -0.000187515 0.000538265 0.00541757 -0.0011027 0.00694698 
208 1 1 -0.0448665 0.0168566 0.0449707 0 0 0 3.67772e-06 6.50977e-05 5.00336e-05 -0.000183648 2.41498e-06 -0.000220636 -0.00178583 -0.00748066 0.00765508 0.00694698 
282 1 1 -0.018246 0.0185328 0.0445897 0 0 0 -3.98453e-05 0.000132291 0.000252459 -0.000380677 0.000180171 -0.000692463 0.00511731 -0.0138933 0.00352353 0.00694698 
4 1 1 -0.00366627 0.0146151 0.0482216 0 0 0 -6.03346e-05 0.000173327 0.000332876 -0.00132181 0.000752527 -0.00321626 -0.00350727 -0.00216381 0.00179317 0.0111152 
58 1 1 0.0410775 0.0200218 0.0435611 0 0 0 -6.00952e-05 5.36364e-05 0.000133414 0.000303551 -5.63811e-06 -0.000818299 0.00280584 0.00366736 0.000298519 0.0111152 
199 1 1 -0.0449272 0.0285897 0.0409788 0 0 0 -9.13973e-06 5.25075e-05 3.93242e-05 -0.000105841 1.04985e-05 -0.000164931 -0.00231394 -0.00766191 0.0046553 0.00694698 
192 1 1 -0.0256314 0.0271738 0.0481266 0 0 0 -7.13163e-05 5.78399e-05 0.000205936 -0.000245236 9.77844e-05 -0.000609095 0.0105178 -0.0107786 -0.00391063 0.00694698 
292 1 1 -0.0146966 0.0324687 0.0485804 0 0 0 -8.54547e-05 4.94154e-05 0.000318216 -0.000105372 0.000427005 -0.000994457 -0.0211408 -0.013916 0.00697124 0.00694698 
73 1 1 0.0108553 0.0280464 0.0457837 0 0 0 -6.8575e-05 0.000154522 0.000241468 -0.000630941 0.000522681 -0.00157823 -0.00850608 0.0113676 -0.0086683 0.0111152 
327 1 1 -0.0435039 0.0432739 0.0497709 0 0 0 -3.02773e-05 1.55323e-05 6.33345e-05 -2.00818e-05 -8.17785e-06 3.13192e-05 -0.00303847 -0.0119822 -0.000857634 0.00694698 
126 1 1 -0.0115804 0.0442938 0.0464582 0 0 0 -4.99892e-06 -4.98915e-06 0.000161737 -0.000312857 0.000386794 -0.000117388 -0.0302025 -0.0893572 -0.000767568 0.00694698 
248 1 1 0.00018729 0.0432518 0.0425163 0 0 0 9.32602e-05 1.05977e-05 0.000386368 -0.000861376 0.000104247 -0.00171206 0.00930677 0.0496676 0.0102791 0.00694698 
229 1 1 0.0125665 0.0445192 0.0454161 0 0 0 6.80146e-05 7.66801e-05 4.87425e-05 -0.000376406 -1.2345e-05 -4.14898e-05 -0.00627346 0.00234641 0.000909328 0.00694698 
114 1 1 0.0401335 0.0407999 0.040734 0 0 0 -4.8265e-05 2.36175e-05 8.15004e-05 0.000735528 -0.000142407 -0.00020494 -0.00106882 0.00760737 -0.0045871 0.0111152 
314 1 1 -0.0174739 -0.0445492 0.0555943 0 0 0 2.44151e-05 8.15747e-05 0.000128684 2.34957e-05 -3.25339e-05 -0.000264326 0.00489862 0.00627742 0.000343088 0.00694698 
337 1 1 -0.00609995 -0.0408573 0.0515868 0 0 0 4.86474e-05 0.000116419 0.000159849 -2.82845e-05 -5.70166e-05 -0.000506636 -0.00403132 -0.0105814 -0.000418072 0.00694698 
56 1 1 0.0068837 -0.0394003 0.061973 0 0 0 -1.05357e-05 0.000134184 0.000187138 0.000522708 -0.000545683 -0.00270711 0.00715501 0.00128513 0.00461265 0.0111152 
265 1 1 0.0220177 -0.043724 0.055263 0 0 0 -4.48747e-06 6.28572e-05 8.06105e-05 4.40108e-05 -1.88595e-05 -0.000350139 -0.00317509 0.00441205 -0.00803803 0.00694698 
49 1 1 0.0406724 -0.0407584 0.0580767 0 0 0 -8.06044e-06 4.16831e-05 7.43128e-05 9.41902e-05 -2.01383e-05 -0.00128515 0.00348437 0.00472327 -0.0013674 0.0111152 
84 1 1 -0.0411458 -0.032993 0.0553187 0 0 0 6.19997e-05 9.73035e-05 9.59609e-05 0.000108236 0.000188265 -0.00112569 0.00352604 -0.00280304 0.00925419 0.0111152 
307 1 1 -0.0195838 -0.0324347 0.0571157 0 0 0 0.000141494 0.000138363 0.000301549 -4.8448e-05 2.56594e-05 -0.000481602 0.0136873 0.0119295 -0.0153729 0.00694698 
326 1 1 0.0447956 -0.0254458 0.0534949 0 0 0 -4.05526e-06 4.93684e-05 8.88808e-05 1.16421e-06 2.64878e-06 -0.000335395 0.00420688 0.0149239 -0.00409495 0.00694698 
81 1 1 -0.0216685 -0.0170403 0.0624323 0 0 0 9.15203e-05 0.000147021 0.000380336 7.33887e-05 0.000138293 -0.00201199 -0.00593848 -0.011436 0.0117731 0.0111152 
52 1 1 0.0112853 -0.0221411 0.0507313 0 0 0 1.0286e-05 0.000154178 0.000191115 0.000320214 7.31706e-06 -0.00293779 -0.00505667 -0.00478355 0.000569716 0.0111152 
332 1 1 0.026756 -0.0152037 0.0567088 0 0 0 -2.74973e-05 0.000154663 0.000201725 8.81938e-05 -4.71356e-05 -0.000668032 -0.00889007 0.00466999 -0.000831752 0.00694698 
220 1 1 -0.043805 -0.00977101 0.0542182 0 0 0 2.14506e-05 5.39442e-05 4.90166e-05 -1.28941e-05 -2.06685e-05 -0.000295568 0.0070302 0.00482625 0.00617592 0.00694698 
133 1 1 -0.027208 -0.00283256 0.0559957 0 0 0 1.23795e-05 7.64086e-05 0.000232152 -0.000141262 -4.64468e-05 -0.000408343 -0.00626963 -0.0152021 0.00636938 0.00694698 
24 1 1 -0.0102672 -0.00372115 0.0528011 0 0 0 1.16204e-05 0.000211708 0.000435458 -0.000969452 0.000219781 -0.00259313 -0.00944882 -0.0084332 0.0115889 0.0111152 
240 1 1 0.0172586 -0.00749249 0.0553612 0 0 0 -8.18699e-05 0.000170667 0.000291463 0.000141372 0.000100555 -0.000880588 0.013631 0.00322355 0.000963026 0.00694698 
236 1 1 -0.0236941 0.00828088 0.0507777 0 0 0 -3.2344e-05 8.03453e-05 0.000191122 -0.000387495 -6.93619e-06 -0.000566383 0.00282642 -0.00577866 0.00801505 0.00694698 
15 1 1 0.0136567 0.00817839 0.0563014 0 0 0 -6.56114e-05 0.000191173 0.000386512 -0.000443372 0.000691061 -0.00407937 -0.000979248 0.00369252 -0.00395483 0.0111152 
291 1 1 0.0437833 0.0122418 0.0588945 0 0 0 -5.01752e-05 -1.10759e-05 0.000120218 -5.05456e-05 -1.48071e-05 -0.000136017 0.0111498 -0.00024235 0.00961738 0.00694698 
335 1 1 -0.0343156 0.0161596 0.0526646 0 0 0 -4.16549e-05 6.01481e-05 0.000123824 -0.000282852 -4.64458e-05 -0.000399994 0.00307079 -0.00648001 -0.000435201 0.00694698 
266 1 1 0.0217592 0.0233195 0.0586733 0 0 0 -0.000136801 0.00015528 0.000314142 -0.000344818 0.000181251 -0.000425056 -0.0140319 -0.0273182 0.00683122 0.00694698 
298 1 1 0.0302848 0.0135351 0.0553192 0 0 0 -4.72786e-05 9.47295e-05 0.000306744 -0.000176987 0.000326803 -0.000644726 -0.000944194 0.00745372 -0.0118653 0.00694698 
262 1 1 -0.0377381 0.0287332 0.0508388 0 0 0 -6.14069e-05 5.19208e-05 0.000135266 -0.000123245 3.44191e-05 -0.000181708 0.00933896 -0.0043092 0.00236299 0.00694698 
99 1 1 -0.00360765 0.0303681 0.0615074 0 0 0 -0.000286572 8.01211e-05 0.000539613 -0.00198223 -0.000784742 -0.0023057 0.0291876 -0.0198788 0.016638 0.0111152 
122 1 1 -0.0274283 0.0409191 0.0558337 0 0 0 -4.24938e-05 3.65365e-05 0.000138836 2.74594e-05 -0.000202707 -0.000233002 -0.00807095 0.00792307 -0.000906187 0.0111152 
158 1 1 0.000207384 0.0448778 0.0561864 0 0 0 -0.00010241 4.35591e-05 0.000513892 -0.00079781 -0.000127162 -0.000694943 -0.0790343 -0.100251 -0.0165192 0.00694698 
47 1 1 0.0244976 0.0400921 0.0559318 0 0 0 -9.13623e-05 3.90896e-05 0.000180427 -0.000893504 2.56856e-05 -0.000180699 -0.00140717 -0.0189059 -0.00718043 0.0111152 
203 1 1 0.0420084 0.0441913 0.0569424 0 0 0 -7.3543e-05 -1.60823e-05 0.000111497 -0.00010448 -2.92132e-05 2.92468e-05 -0.00817121 -0.0124952 -0.0130763 0.00694698 
6 1 1 -0.0273258 -0.040802 0.0684915 0 0 0 4.91594e-05 9.72008e-05 0.000178482 0.000203909 -6.67244e-05 -0.00127769 0.00898469 -0.00808917 -0.00550656 0.0111152 
190 1 1 -0.00862797 -0.0442094 0.0646037 0 0 0 2.97113e-05 1.13493e-05 0.000157407 0.000104588 8.35304e-05 -0.000460019 0.0259231 0.00287957 -6.73959e-05 0.00694698 
189 1 1 0.0268465 -0.0442003 0.067344 0 0 0 -2.51669e-06 4.91359e-05 0.000101695 6.12953e-05 -1.20575e-05 -0.000402337 0.00745999 0.00122544 -0.00232572 0.00694698 
186 1 1 0.0437407 -0.0441968 0.0738314 0 0 0 -1.48263e-05 1.74981e-05 3.92338e-05 -1.2788e-05 2.49451e-05 -0.000127669 0.00369399 -0.00295618 0.000606845 0.00694698 
313 1 1 -0.011861 -0.031674 0.0682096 0 0 0 0.000163903 7.33541e-05 0.000424508 0.000206262 4.14051e-05 -0.000781386 -0.00284818 -0.0155447 -0.0123731 0.00694698 
227 1 1 0.00766372 -0.0253943 0.0722242 0 0 0 8.85797e-05 0.000239507 0.000491057 0.000207066 7.09191e-05 -0.0011598 0.0144569 0.0180653 -0.0336605 0.00694698 
91 1 1 0.0235313 -0.0277778 0.0665886 0 0 0 -1.46303e-05 0.000124555 0.00024722 0.0005274 -0.000389571 -0.00350575 0.0106459 0.00462479 -0.000394763 0.0111152 
247 1 1 0.0400879 -0.0264408 0.0680864 0 0 0 -5.17978e-05 0.000118224 0.000204558 0.000136979 -6.79743e-05 -0.000624927 0.00298538 -0.00695076 0.00302191 0.00694698 
36 1 1 -0.0407302 -0.017322 0.0691413 0 0 0 2.36377e-05 7.50087e-05 0.000144828 0.00042123 7.22286e-05 -0.000712023 -0.0055778 -0.0107267 0.00221502 0.0111152 
137 1 1 -0.00226751 -0.0232156 0.0635626 0 0 0 0.00011389 0.000224848 0.00050785 1.94667e-05 4.88812e-05 -0.00107865 -0.0116009 -0.0112646 0.0447907 0.00694698 
276 1 1 0.0201772 -0.0125511 0.0722597 0 0 0 -0.000113283 0.000175053 0.000437351 0.000226557 9.40858e-05 -0.00138984 -0.0237766 -0.0165892 0.00402586 0.00694698 
215 1 1 0.0333367 -0.0151385 0.0705862 0 0 0 -5.71553e-05 0.000130046 0.000374026 6.13697e-05 -3.31733e-05 -0.00107767 0.0140003 0.00715636 0.00794814 0.00694698 
217 1 1 0.0446142 -0.0151032 0.064411 0 0 0 -3.61896e-05 8.93354e-05 0.000140976 1.19491e-05 -1.26034e-05 -0.000398699 -0.00856542 0.0169656 -0.0128289 0.00694698 
182 1 1 -0.0291262 -0.00430718 0.0735737 0 0 0 0.000108075 0.00029708 0.000381126 0.000332238 0.000161033 -0.000281523 -0.0357889 -0.00248033 0.0202754 0.00694698 
10 1 1 0.00493206 -0.007964 0.0666222 0 0 0 -5.48087e-05 0.000266483 0.000493304 0.000446226 8.94199e-05 -0.00516973 0.000885214 0.0126847 -0.0134373 0.0111152 
148 1 1 0.0445356 -0.00238321 0.063436 0 0 0 -5.26354e-05 6.71739e-05 0.000194437 3.85077e-05 0.000163584 -0.000417924 0.0167946 0.0233831 0.00175964 0.00694698 
32 1 1 -0.039949 0.00415218 0.0635933 0 0 0 -2.13514e-06 5.01792e-05 0.00011324 -7.70423e-05 -0.000286561 -0.00133812 -0.000911847 -0.000943948 0.00309201 0.0111152 
197 1 1 -0.0192981 0.00213531 0.0660101 0 0 0 -3.62969e-06 0.000156567 0.000551599 9.13326e-05 -9.87448e-06 -0.000277497 0.0137728 0.0222392 0.00823036 0.00694698 
115 1 1 -0.0037431 0.0105807 0.0687306 0 0 0 -9.997e-05 0.000247805 0.00043799 -0.000295258 -0.00023011 -0.00376085 -0.0234969 -0.00199481 0.00850259 0.0111152 
87 1 1 0.0291358 0.000600233 0.0669651 0 0 0 -0.000145154 0.000100668 0.000424798 7.07104e-05 0.00105126 -0.00441825 -0.0018854 -0.00246534 0.00116571 0.0111152 
338 1 1 0.0431288 0.00836643 0.0719524 0 0 0 -0.000119574 3.88002e-05 0.000260514 -5.55442e-05 0.000381129 -0.000508891 -0.0109638 0.00314611 -0.00440799 0.00694698 
39 1 1 -0.0408654 0.024542 0.0667536 0 0 0 -7.11027e-05 3.33474e-05 8.76325e-05 7.22492e-05 -0.000134702 -0.000761122 -0.0027195 -0.00475941 0.00172746 0.0111152 
117 1 1 -0.0212922 0.0203449 0.0630666 0 0 0 -0.00014407 4.80747e-06 0.000215108 -0.00058729 -0.000974188 -0.00300563 -0.000731708 -0.00432383 -0.000516907 0.0111152 