ITEM: TIMESTEP
66500
ITEM: NUMBER OF ATOMS
338
ITEM: BOX BOUNDS mm mm mm
-0.05 0.05
-0.05 0.05
0 0.15
ITEM: ATOMS id type type x y z ix iy iz vx vy vz fx fy fz omegax omegay omegaz radius 
131 1 1 -0.0257481 -0.0400546 0.00560328 0 0 0 5.37982e-07 1.20921e-06 1.64765e-06 -1.59148e-06 -3.12614e-06 -4.31291e-06 -0.000158991 5.17708e-06 -2.01042e-05 0.00694698 
319 1 1 -0.0146874 -0.0445409 0.00605301 0 0 0 2.32887e-07 5.92331e-07 1.06842e-06 -7.63605e-07 -1.48901e-06 -2.61096e-06 5.98581e-06 8.4746e-05 -6.45681e-05 0.00694698 
243 1 1 -0.00279117 -0.043873 0.0061044 0 0 0 -1.67671e-07 4.27179e-07 8.19949e-07 -1.06443e-07 -8.14962e-07 -2.10426e-06 5.2777e-05 -0.000112923 9.14722e-05 0.00694698 
260 1 1 0.0252546 -0.0438307 0.0059405 0 0 0 -3.63367e-07 6.59648e-07 1.10108e-06 3.43627e-08 -1.26707e-06 -2.25239e-06 5.84953e-05 6.10636e-06 2.56428e-05 0.00694698 
78 1 1 0.0413085 -0.0407811 0.00927582 0 0 0 -2.61562e-07 4.7792e-07 8.15221e-07 -3.30752e-07 -2.91605e-06 -6.4959e-06 2.94236e-05 4.91096e-05 -2.48377e-05 0.0111152 
74 1 1 -0.0408279 -0.0367696 0.00959711 0 0 0 7.68969e-07 1.00534e-06 1.07917e-06 -8.95765e-06 -1.01074e-05 -1.11474e-05 -9.66354e-06 -8.40782e-06 2.93853e-05 0.0111152 
296 1 1 -0.0274829 -0.0274567 0.0061219 0 0 0 7.3296e-07 1.22812e-06 1.51023e-06 -2.32897e-06 -3.31063e-06 -4.44931e-06 -8.93803e-05 -3.03307e-05 2.28576e-05 0.00694698 
173 1 1 -0.0155729 -0.0319598 0.00557451 0 0 0 5.45915e-07 1.14326e-06 1.91192e-06 -1.95296e-06 -2.83916e-06 -5.35048e-06 -2.4054e-05 6.59976e-05 2.5511e-08 0.00694698 
275 1 1 -0.0035902 -0.0297747 0.00572448 0 0 0 2.73246e-07 1.54393e-06 1.86837e-06 -1.76485e-06 -3.19709e-06 -5.15328e-06 -3.2961e-05 -2.17998e-05 -1.39363e-05 0.00694698 
60 1 1 0.0105837 -0.0360376 0.00947776 0 0 0 -3.24343e-07 1.19707e-06 2.40673e-06 -3.17694e-06 -8.89609e-06 -2.28909e-05 -3.85396e-06 1.29082e-05 -4.41374e-05 0.0111152 
102 1 1 -0.0405428 -0.0169477 0.00905849 0 0 0 5.24763e-07 1.15184e-06 6.22224e-07 -7.64995e-06 -1.21487e-05 -7.37505e-06 -9.25873e-05 5.42351e-05 4.22755e-05 0.0111152 
328 1 1 -0.0254333 -0.01519 0.00543684 0 0 0 5.72665e-07 1.23845e-06 4.30027e-07 -2.45314e-06 -3.38972e-06 -2.1031e-06 -0.000161233 -0.000107093 -1.06265e-05 0.00694698 
40 1 1 -0.0106765 -0.0158183 0.0106462 0 0 0 3.52097e-07 1.74222e-06 3.38344e-06 -1.26332e-05 -1.43166e-05 -4.17937e-05 5.19588e-05 -9.01298e-05 4.47945e-05 0.0111152 
279 1 1 0.00440774 -0.0207351 0.0109054 0 0 0 2.84894e-07 1.96739e-06 4.18268e-06 -2.95802e-06 -3.77829e-06 -1.21279e-05 0.000208622 1.02313e-05 -3.15469e-05 0.00694698 
267 1 1 0.0155005 -0.0199621 0.00561745 0 0 0 -1.63138e-07 1.46709e-06 2.60073e-06 -1.03202e-06 -3.04816e-06 -7.4784e-06 -4.5827e-05 2.30552e-05 -3.51956e-05 0.00694698 
144 1 1 0.0430495 -0.0248667 0.00596799 0 0 0 -9.71005e-08 5.01837e-07 1.02501e-06 -8.00732e-07 -9.23336e-07 -2.27925e-06 -4.12453e-05 0.000108817 -6.68141e-05 0.00694698 
202 1 1 0.0452017 -0.0129601 0.00612949 0 0 0 -9.28744e-08 3.65065e-07 6.28538e-07 -4.85199e-07 -9.73343e-07 -1.37838e-06 -3.86145e-05 7.70383e-05 2.2338e-05 0.00694698 
257 1 1 -0.0442073 -0.00104702 0.00624946 0 0 0 -8.42703e-08 1.48054e-07 4.38983e-07 -2.99877e-07 -1.6639e-09 -1.98264e-06 7.73208e-05 -0.000111228 8.6675e-06 0.00694698 
274 1 1 -0.0220225 -0.0037788 0.00775195 0 0 0 5.58418e-08 1.15451e-06 3.9037e-06 -3.03508e-06 -3.02929e-06 -1.29003e-05 0.000575325 -0.000448173 6.78444e-05 0.00694698 
50 1 1 0.0305736 -0.00918801 0.00973543 0 0 0 -1.08781e-07 8.66491e-07 1.93585e-06 -5.86664e-06 -5.51462e-06 -2.16718e-05 -0.000113605 3.36145e-05 -4.90578e-05 0.0111152 
232 1 1 -0.0434387 0.0118756 0.00626166 0 0 0 2.75324e-07 -1.39159e-07 1.10222e-06 -1.91511e-06 1.0846e-06 -4.54272e-06 3.77026e-05 -2.38977e-05 -7.87718e-05 0.00694698 
268 1 1 -0.0326769 0.00368232 0.00609413 0 0 0 1.12498e-07 4.67294e-07 3.26357e-06 -2.53756e-06 -1.06023e-06 -1.14293e-05 7.69327e-05 -0.000112658 0.000104125 0.00694698 
171 1 1 -0.021197 0.00798669 0.00823472 0 0 0 6.9958e-07 9.54102e-07 6.26149e-06 -6.32944e-06 -2.63022e-06 -2.22919e-05 -0.000189518 -0.000132621 -0.000138169 0.00694698 
164 1 1 0.0205999 0.00173767 0.00544626 0 0 0 -1.35893e-07 7.47255e-07 1.70128e-06 -1.38451e-06 -9.05692e-07 -5.80056e-06 -6.10547e-05 0.000153683 -4.86286e-05 0.00694698 
297 1 1 -0.0253905 0.019586 0.00549869 0 0 0 8.0464e-07 3.04389e-07 3.28439e-06 -5.8823e-06 -6.2127e-07 -1.53241e-05 -0.000126465 0.00010605 9.01398e-05 0.00694698 
222 1 1 -0.0108508 0.0145911 0.00545573 0 0 0 6.51141e-07 5.55398e-07 3.73806e-06 -5.18739e-06 -1.39601e-06 -1.5109e-05 -0.00028213 0.000190179 0.000116122 0.00694698 
290 1 1 -0.000799303 0.0214674 0.00523787 0 0 0 1.71384e-07 2.18662e-07 2.16575e-06 -2.66252e-06 4.98188e-10 -9.55508e-06 -9.75162e-05 -8.26242e-05 -4.34194e-05 0.00694698 
98 1 1 0.0122233 0.0135227 0.00979355 0 0 0 5.00793e-07 1.16396e-06 3.47126e-06 -1.85991e-05 -6.41733e-06 -5.29206e-05 -0.000166948 0.000215271 3.12301e-05 0.0111152 
316 1 1 0.0321802 0.019578 0.00502883 0 0 0 -6.75141e-08 3.33948e-07 3.4748e-07 -4.18895e-07 -4.39284e-07 -2.36448e-06 -2.9697e-05 -2.53158e-05 1.97112e-05 0.00694698 
162 1 1 0.0446349 0.0202023 0.00544625 0 0 0 1.91085e-09 3.18244e-07 5.28733e-07 -3.67254e-07 -7.97903e-07 -2.17435e-06 -0.000167658 5.1123e-05 -3.57044e-05 0.00694698 
294 1 1 -0.0439424 0.0252727 0.00613941 0 0 0 3.87465e-07 -3.99276e-07 5.08238e-07 -2.45079e-06 1.96049e-06 -2.85773e-06 -1.49569e-05 4.00698e-05 2.42524e-05 0.00694698 
175 1 1 -0.0327496 0.0313742 0.00614205 0 0 0 4.57742e-07 -1.03844e-06 7.70312e-07 -2.8828e-06 5.09995e-06 -5.37295e-06 0.000187973 1.4288e-05 -7.53713e-05 0.00694698 
255 1 1 -0.0148477 0.0261367 0.00587598 0 0 0 3.04625e-07 3.07355e-07 1.79953e-06 -3.56408e-06 -6.33113e-07 -8.96399e-06 -0.00016358 9.70317e-05 1.44843e-05 0.00694698 
324 1 1 -0.00330542 0.0326855 0.00566931 0 0 0 1.89214e-08 4.43477e-07 4.72699e-07 -1.03533e-06 -1.78813e-06 -2.53545e-06 -9.82507e-05 -3.84641e-05 6.91472e-05 0.00694698 
161 1 1 0.00824506 0.0320299 0.00644883 0 0 0 -5.92499e-08 9.31719e-07 1.68941e-06 -1.38692e-08 -2.62595e-06 -7.47712e-06 -0.000314829 -4.70952e-05 -7.57276e-05 0.00694698 
77 1 1 0.0226325 0.0295981 0.012343 0 0 0 1.60204e-07 1.83997e-07 1.63044e-06 -4.53361e-06 3.53356e-06 -3.27808e-05 0.000108706 5.00279e-05 -3.87358e-05 0.0111152 
155 1 1 0.0376085 0.0311764 0.00564482 0 0 0 -2.34266e-08 2.66696e-07 4.50024e-07 -9.85648e-08 -3.47679e-07 -2.63983e-06 1.95967e-05 4.2596e-05 1.55094e-06 0.00694698 
321 1 1 -0.04402 0.0437755 0.00629381 0 0 0 1.91716e-07 -1.96432e-07 3.37648e-07 -1.55361e-06 7.27912e-07 -2.09247e-06 -2.33544e-05 2.37376e-06 1.01246e-05 0.00694698 
207 1 1 -0.0314325 0.0439672 0.00637411 0 0 0 1.57412e-07 -1.88512e-07 4.86237e-07 -1.01627e-06 9.04743e-07 -3.22398e-06 -9.22747e-05 1.90107e-05 4.31813e-05 0.00694698 
38 1 1 -0.0153313 0.0415941 0.0097906 0 0 0 -1.24156e-07 1.93958e-07 1.59863e-07 -2.7082e-06 -1.49063e-06 -7.68649e-06 -2.28247e-05 7.63712e-06 8.82955e-06 0.0111152 
149 1 1 0.0120644 0.043872 0.00543326 0 0 0 2.28184e-07 -5.79227e-09 1.158e-07 -1.05857e-06 4.50296e-07 -1.2442e-06 3.27305e-05 -1.01937e-05 -2.38309e-05 0.00694698 
237 1 1 0.0011871 0.0437539 0.0121483 0 0 0 -7.56478e-08 1.9729e-07 -4.99401e-09 -3.54363e-08 -1.03185e-06 -1.39714e-07 1.13447e-05 -5.24775e-06 -3.16956e-05 0.00694698 
249 1 1 0.0277053 0.0441438 0.00611632 0 0 0 7.49885e-08 -4.87036e-08 9.77135e-07 -9.9502e-08 9.04626e-07 -4.27651e-06 -6.99202e-05 7.11509e-05 -4.56724e-06 0.00694698 
289 1 1 0.0443721 0.0422256 0.00592204 0 0 0 -2.40828e-08 -4.79277e-08 4.54036e-07 2.5264e-07 5.66007e-07 -1.99936e-06 4.09645e-05 4.31821e-05 3.11615e-06 0.00694698 
331 1 1 -0.0432693 -0.0455642 0.0218634 0 0 0 6.00655e-07 6.62421e-07 6.57247e-07 -1.66303e-06 -1.61111e-06 -1.47471e-06 6.3664e-05 -3.74821e-05 -3.76212e-05 0.00694698 
299 1 1 -0.0246085 -0.0451872 0.0168094 0 0 0 5.20059e-07 1.62701e-06 2.45359e-06 -1.81199e-06 -3.99285e-06 -6.39274e-06 0.000291745 4.08181e-05 -4.74582e-05 0.00694698 
225 1 1 -0.0115498 -0.0442709 0.0185952 0 0 0 3.24046e-07 1.58161e-06 3.02338e-06 -1.71615e-06 -3.39449e-06 -6.75861e-06 0.000118265 -7.37876e-05 -1.7839e-05 0.00694698 
242 1 1 0.00106186 -0.0446807 0.0196824 0 0 0 2.41431e-07 9.44576e-07 2.61268e-06 -1.74421e-06 -1.37805e-06 -5.86075e-06 0.000379263 0.000213988 -6.30136e-05 0.00694698 
130 1 1 0.0208357 -0.0442058 0.0182027 0 0 0 -2.52563e-07 5.89707e-08 1.34026e-06 -4.47477e-07 2.53528e-08 -2.71843e-06 0.000168371 3.79961e-05 2.20051e-05 0.00694698 
167 1 1 0.0319451 -0.0442251 0.0228862 0 0 0 -4.20558e-07 4.06195e-07 1.5305e-06 1.08504e-07 -5.28843e-07 -3.02656e-06 4.19645e-05 -3.75307e-05 5.45586e-05 0.00694698 
136 1 1 0.0442903 -0.0447089 0.0241887 0 0 0 -4.1771e-07 4.55173e-07 9.11946e-07 2.51236e-07 -5.30153e-07 -1.57686e-06 6.4111e-05 1.13735e-05 2.91965e-05 0.00694698 
179 1 1 -0.0345746 -0.0262026 0.0213893 0 0 0 1.27706e-06 2.97169e-06 2.4207e-06 -4.70855e-06 -7.31398e-06 -7.4503e-06 -0.000121092 -0.000159841 6.87638e-05 0.00694698 
7 1 1 -0.0200353 -0.030427 0.0211168 0 0 0 1.16115e-06 2.72943e-06 4.66404e-06 -2.06286e-05 -2.3949e-05 -5.30766e-05 -6.90435e-05 7.24493e-07 -5.40574e-05 0.0111152 
104 1 1 -0.000112748 -0.0285696 0.0247238 0 0 0 9.28103e-07 2.51546e-06 5.38519e-06 -2.15011e-05 -1.5206e-05 -5.63801e-05 -6.20573e-05 5.98248e-05 1.02769e-05 0.0111152 
67 1 1 0.0278423 -0.0280453 0.0126282 0 0 0 -4.01106e-07 1.21312e-06 3.24891e-06 -3.72294e-06 -8.84615e-06 -3.08933e-05 4.29953e-05 2.54252e-05 5.35609e-06 0.0111152 
128 1 1 -0.0450313 -0.0217265 0.0238335 0 0 0 6.84372e-07 1.23104e-06 1.00192e-06 -2.77357e-06 -3.12156e-06 -2.96109e-06 -0.000110529 -3.3921e-05 0.000173571 0.00694698 
278 1 1 0.0331688 -0.0161931 0.0241362 0 0 0 -4.52935e-07 2.01014e-06 4.06935e-06 -1.8193e-06 -3.02567e-06 -1.0302e-05 -3.39568e-05 7.14227e-05 6.60132e-06 0.00694698 
146 1 1 -0.044873 -0.0091998 0.0224711 0 0 0 6.64356e-07 2.27428e-07 3.64331e-06 -3.30714e-06 9.67209e-07 -1.2313e-05 0.000755884 -0.000476837 -0.000194445 0.00694698 
96 1 1 0.0119172 -0.00721233 0.0161322 0 0 0 1.11384e-06 2.14033e-06 5.28757e-06 -2.68809e-05 -1.35261e-05 -7.06705e-05 -4.12199e-05 0.000226676 -1.71362e-05 0.0111152 
183 1 1 0.0447601 -0.00703515 0.017542 0 0 0 -3.99536e-07 6.04357e-07 1.34438e-06 5.40635e-07 -1.17066e-06 -3.85532e-06 0.000154814 1.16996e-05 2.25338e-05 0.00694698 
25 1 1 -0.0377541 0.00483183 0.0223891 0 0 0 2.35427e-06 1.68806e-06 7.33301e-06 -4.84965e-05 -1.1217e-05 -0.000110657 -0.00026086 0.000202969 9.06951e-05 0.0111152 
17 1 1 -0.00526007 0.00256307 0.0144081 0 0 0 8.45241e-07 1.94516e-06 6.9867e-06 -2.86279e-05 -1.33613e-05 -9.71219e-05 2.43604e-05 -0.000103722 -6.52706e-05 0.0111152 
94 1 1 0.0384742 0.00842693 0.0134968 0 0 0 -8.65534e-07 1.0689e-06 2.03747e-06 8.24084e-06 -9.08495e-06 -2.95864e-05 -4.39182e-05 -0.000253365 6.7096e-05 0.0111152 
300 1 1 -0.0447061 0.0189524 0.017051 0 0 0 7.80659e-07 1.89769e-08 2.05248e-06 -5.0757e-06 8.09767e-07 -9.53137e-06 -0.000143578 -0.000150552 -1.19629e-05 0.00694698 
273 1 1 -0.0327467 0.0189504 0.0155433 0 0 0 1.52166e-06 2.88939e-07 4.48312e-06 -9.71912e-06 7.53275e-07 -2.08712e-05 1.84203e-05 -0.000152225 -4.02035e-06 0.00694698 
28 1 1 -0.0168118 0.0183632 0.0204917 0 0 0 1.89973e-06 1.96919e-06 6.27069e-06 -4.85323e-05 -1.25589e-05 -0.000108783 -8.98713e-05 3.41306e-05 5.32377e-05 0.0111152 
286 1 1 -0.00173314 0.0186073 0.0168811 0 0 0 1.3674e-06 2.18955e-06 5.02958e-06 -9.54138e-06 -2.91542e-06 -2.12779e-05 -0.000461244 0.000136048 0.000103669 0.00694698 
305 1 1 -0.0436936 0.0348177 0.0156113 0 0 0 6.61146e-08 -8.56493e-07 6.39711e-07 -1.73263e-06 4.657e-06 -5.68191e-06 8.80339e-05 -9.30475e-05 -0.000103713 0.00694698 
23 1 1 -0.0279413 0.0337349 0.0221096 0 0 0 3.41016e-07 1.10978e-06 1.88286e-06 -2.40412e-05 -4.2324e-06 -5.30384e-05 -0.000354534 -1.242e-06 0.000189316 0.0111152 
320 1 1 0.00379661 0.0296091 0.0183791 0 0 0 -3.28199e-07 1.80839e-06 3.06451e-06 -2.96825e-06 -5.68614e-07 -1.65907e-05 0.000326948 -2.93968e-05 8.74491e-05 0.00694698 
284 1 1 0.0446347 0.0273726 0.015737 0 0 0 2.50706e-07 -1.35611e-08 2.61682e-07 -1.26013e-06 6.11294e-07 -1.43964e-06 0.000164335 2.40194e-05 2.6424e-05 0.00694698 
239 1 1 0.0187751 0.0448273 0.0154887 0 0 0 -4.17148e-07 -1.41696e-07 1.32172e-06 1.3509e-06 1.95125e-06 -6.27921e-06 -9.18144e-05 -0.00016672 6.37737e-05 0.00694698 
61 1 1 0.037083 0.0409697 0.0204872 0 0 0 1.1562e-07 -3.99405e-07 1.20695e-06 -2.16945e-06 8.90658e-06 -2.21025e-05 -2.67038e-05 -2.02317e-07 2.45772e-05 0.0111152 
224 1 1 -0.0437842 -0.0444768 0.0343523 0 0 0 5.75672e-07 1.63067e-07 7.95689e-07 -1.19416e-06 -3.09675e-08 -1.69626e-06 0.000111639 -1.35571e-06 -9.70102e-05 0.00694698 
256 1 1 -0.0327608 -0.0400947 0.0257176 0 0 0 4.13014e-07 1.38359e-06 3.03463e-06 -1.70721e-06 -2.91084e-06 -8.09864e-06 6.27581e-05 -0.000281728 8.07881e-05 0.00694698 
42 1 1 -0.0120031 -0.0408869 0.0355064 0 0 0 1.01728e-06 3.15671e-06 5.44849e-06 -1.80623e-05 -1.91525e-05 -4.97425e-05 0.000143765 7.79761e-05 -0.000107306 0.0111152 
271 1 1 0.0313717 -0.040779 0.0343155 0 0 0 -1.01705e-06 2.1111e-06 3.21526e-06 -1.94441e-07 -2.34161e-06 -6.75847e-06 -8.86499e-05 8.29663e-06 -0.000145163 0.00694698 
125 1 1 0.0438559 -0.0440727 0.0371344 0 0 0 -2.332e-08 9.4937e-08 1.18244e-06 -8.07203e-07 3.45787e-07 -2.0378e-06 0.000142237 0.000193069 -3.03862e-05 0.00694698 
180 1 1 -0.0442349 -0.0338853 0.0265895 0 0 0 8.40686e-07 9.49649e-07 1.37545e-06 -2.52839e-06 -2.22366e-06 -3.56294e-06 5.32866e-05 -4.36284e-05 2.12144e-05 0.00694698 
120 1 1 0.0409684 -0.0296039 0.0290176 0 0 0 -6.18743e-07 1.01481e-06 2.75862e-06 -1.03531e-06 -4.4805e-06 -2.47364e-05 3.03861e-05 0.000127155 -6.03762e-05 0.0111152 
178 1 1 -0.012639 -0.0206731 0.0321261 0 0 0 1.84439e-06 3.50498e-06 7.6969e-06 -9.21009e-06 -4.12946e-06 -2.22352e-05 -0.000186518 3.37451e-05 -2.57992e-05 0.00694698 
51 1 1 0.0185589 -0.0226609 0.0301883 0 0 0 -2.88463e-08 3.00293e-06 6.44164e-06 -1.77945e-05 -1.36983e-05 -6.76127e-05 -4.0257e-05 -3.10562e-05 -7.65741e-05 0.0111152 
134 1 1 0.0440827 -0.0143844 0.0325108 0 0 0 -6.81858e-07 8.24024e-07 2.57528e-06 3.11058e-07 -7.02671e-07 -6.81635e-06 1.3459e-06 0.000164738 6.038e-05 0.00694698 
19 1 1 -0.0263969 -0.0120069 0.0273709 0 0 0 2.99999e-06 4.07237e-06 8.60044e-06 -5.38694e-05 -3.09364e-05 -0.000112152 0.000454497 -0.000322637 -7.88607e-05 0.0111152 
310 1 1 -0.0104365 -0.00898782 0.0299637 0 0 0 2.38855e-06 3.35924e-06 1.08171e-05 -1.23608e-05 -3.08898e-06 -3.46083e-05 0.000737421 0.000551867 -2.34703e-06 0.00694698 
258 1 1 0.000949958 -0.012339 0.0275496 0 0 0 1.70389e-06 3.39196e-06 5.89641e-06 -9.93449e-06 -4.25642e-06 -1.98113e-05 2.21482e-05 -6.87898e-05 -0.000111743 0.00694698 
18 1 1 0.0121869 -0.00447301 0.0369605 0 0 0 3.72877e-07 2.96964e-06 8.0119e-06 -2.89447e-05 2.1174e-06 -0.000108712 0.000138079 -0.000209426 -1.84349e-05 0.0111152 
184 1 1 0.0277391 -0.00806877 0.0328957 0 0 0 -3.29124e-07 2.29606e-06 6.83398e-06 -3.43206e-06 -1.48101e-06 -2.07024e-05 6.4619e-05 0.000297291 -7.73488e-05 0.00694698 
112 1 1 -0.0179401 0.0046842 0.0351755 0 0 0 4.01612e-06 3.75866e-06 1.29512e-05 -7.3265e-05 -1.29214e-05 -0.000175306 -0.000310385 -4.15167e-05 -3.65465e-05 0.0111152 
160 1 1 -0.00258793 0.000661759 0.0310724 0 0 0 2.07311e-06 3.14881e-06 9.21825e-06 -1.19312e-05 -1.53544e-06 -3.18809e-05 -0.000137884 0.000535555 7.42066e-05 0.00694698 
55 1 1 0.0406908 0.00155577 0.0321766 0 0 0 -1.12207e-06 1.07967e-06 3.37379e-06 7.72173e-06 -3.51555e-06 -4.64662e-05 2.34109e-05 0.000230177 -1.87954e-05 0.0111152 
2 1 1 -0.0316934 0.0196551 0.0354848 0 0 0 3.49194e-06 3.54311e-06 7.00365e-06 -7.01008e-05 -2.26306e-05 -0.000120261 -0.000172032 1.59382e-05 0.000131282 0.0111152 
100 1 1 0.00652129 0.0141766 0.0298281 0 0 0 1.19862e-06 3.51987e-06 8.86466e-06 -3.97527e-05 -1.08871e-05 -0.000136558 9.47413e-05 -0.000119879 -1.48329e-05 0.0111152 
261 1 1 0.043399 0.0180072 0.0268078 0 0 0 -1.79302e-06 1.15864e-06 2.72078e-06 5.86969e-06 -1.76912e-06 -9.97749e-06 5.98624e-05 0.000217316 -8.7303e-05 0.00694698 
246 1 1 -0.0443138 0.0262016 0.0275325 0 0 0 1.33367e-06 2.52479e-07 2.49065e-06 -8.33073e-06 3.81481e-07 -1.26691e-05 -0.000138213 -0.000183077 3.46346e-05 0.00694698 
69 1 1 -0.00686327 0.0298272 0.0340233 0 0 0 1.32019e-06 2.36779e-06 9.68293e-06 -4.26656e-05 1.48744e-06 -0.000174376 -3.21901e-05 7.89978e-05 7.56578e-06 0.0111152 
108 1 1 0.0262495 0.0288961 0.0325398 0 0 0 -6.65012e-09 3.51519e-07 3.86814e-06 -6.8065e-06 7.50288e-06 -6.76039e-05 -0.000260798 1.72496e-05 -4.39562e-05 0.0111152 
9 1 1 -0.0407958 0.0418491 0.032558 0 0 0 -5.93211e-08 7.4829e-07 3.63037e-07 -8.2149e-06 -6.72099e-06 -1.9989e-05 -8.73564e-05 3.27846e-05 6.9934e-05 0.0111152 
323 1 1 -0.00700761 0.0443556 0.0261317 0 0 0 1.56596e-08 -1.17653e-07 4.93619e-06 -8.31329e-07 5.29492e-06 -2.52261e-05 -0.000813601 0.000175329 2.23603e-05 0.00694698 
16 1 1 0.0103834 0.0409506 0.0288256 0 0 0 -5.59411e-08 3.82808e-07 3.372e-06 -5.87247e-06 1.07979e-05 -6.96652e-05 -0.000170455 0.000205727 -3.14651e-05 0.0111152 
329 1 1 -0.0243337 -0.0448883 0.0452014 0 0 0 9.40086e-07 2.43147e-06 4.13863e-06 -3.86969e-06 -3.46147e-06 -8.60952e-06 0.000487051 -7.54157e-05 -0.000178188 0.00694698 
168 1 1 0.00170639 -0.0450129 0.040199 0 0 0 2.41153e-08 9.04512e-07 3.55327e-06 -2.18087e-06 -2.31639e-07 -7.32885e-06 0.000627423 -5.40845e-05 5.3104e-05 0.00694698 
3 1 1 0.0165061 -0.0408745 0.039313 0 0 0 -7.56765e-07 2.09501e-06 4.54706e-06 -5.75359e-06 -8.23613e-06 -3.99229e-05 0.000326563 9.39382e-05 6.35572e-05 0.0111152 
283 1 1 0.0310352 -0.0446314 0.0458371 0 0 0 -7.13693e-07 1.54056e-06 2.72035e-06 -1.00953e-06 -6.43012e-07 -5.61205e-06 0.000319669 -4.83416e-05 0.000189648 0.00694698 
211 1 1 -0.0439276 -0.0331951 0.0391794 0 0 0 1.49107e-06 8.80292e-07 2.24033e-06 -3.7461e-06 -8.3303e-07 -5.25074e-06 -8.87649e-06 -6.77365e-05 8.61622e-05 0.00694698 
93 1 1 -0.0271457 -0.0292817 0.0419053 0 0 0 2.26778e-06 4.17741e-06 6.83592e-06 -2.83482e-05 -2.25392e-05 -7.01184e-05 -6.94498e-05 -0.000229247 0.000148246 0.0111152 
191 1 1 0.00287896 -0.0323181 0.0407477 0 0 0 4.69463e-07 3.28021e-06 7.86095e-06 -5.00908e-06 -2.91061e-06 -1.85795e-05 -1.07264e-05 -5.83086e-05 -0.000255345 0.00694698 
105 1 1 0.0303968 -0.0280612 0.0465898 0 0 0 -8.05373e-07 2.66528e-06 6.25228e-06 -1.38151e-05 -3.31851e-06 -5.79374e-05 2.77668e-05 9.59824e-05 -7.47069e-05 0.0111152 
66 1 1 -0.041682 -0.0169767 0.0389235 0 0 0 8.62105e-07 1.98611e-06 2.8847e-06 -1.83179e-05 -1.07148e-05 -4.11444e-05 6.78134e-05 -0.00013979 2.3205e-05 0.0111152 
43 1 1 -0.00882967 -0.0242901 0.0478755 0 0 0 2.42403e-06 5.53107e-06 1.11598e-05 -3.97132e-05 -1.45743e-05 -0.000120076 0.00025223 0.000105051 -7.68878e-05 0.0111152 
259 1 1 0.0241568 -0.0131299 0.0440616 0 0 0 -2.70303e-07 3.12469e-06 7.89107e-06 -4.69797e-06 -3.15709e-07 -2.18293e-05 4.13653e-05 6.19113e-05 -3.83892e-06 0.00694698 
336 1 1 -0.0246138 -0.0117327 0.0453174 0 0 0 8.38309e-06 2.01625e-07 1.76411e-05 -1.3554e-05 3.69896e-06 -4.25474e-05 0.000636985 0.00124376 0.000379272 0.00694698 
245 1 1 -0.000273878 -0.0118499 0.0427907 0 0 0 6.3565e-07 6.098e-06 1.19382e-05 -7.88213e-06 -3.86698e-06 -3.445e-05 0.000181018 0.00117567 -0.00046386 0.00694698 
303 1 1 0.0269175 -0.00136569 0.0493329 0 0 0 7.84985e-07 3.53645e-06 1.08459e-05 -8.08018e-06 -6.63695e-07 -3.28924e-05 0.000185054 0.000419476 -0.000243203 0.00694698 
5 1 1 0.0405047 -0.0106682 0.0488249 0 0 0 -1.68914e-07 1.63049e-06 4.29698e-06 -1.1703e-05 1.04261e-06 -4.83708e-05 -5.90555e-05 0.000144081 -7.73148e-05 0.0111152 
107 1 1 -0.0382431 0.00195705 0.0431279 0 0 0 3.97929e-06 3.23277e-06 7.54658e-06 -6.77345e-05 -1.50563e-05 -0.000110742 0.000162154 -0.00012339 -8.76532e-05 0.0111152 
95 1 1 0.02393 0.0111489 0.0391398 0 0 0 5.79321e-08 2.24714e-06 1.01176e-05 -1.76833e-05 -1.85495e-07 -0.000139219 -0.000161123 0.000245266 -7.64816e-05 0.0111152 
318 1 1 0.044365 0.0047285 0.0485669 0 0 0 6.19445e-07 8.68653e-07 2.50739e-06 -3.15422e-06 -8.31477e-11 -8.66702e-06 -4.06871e-06 0.000171104 -3.94044e-05 0.00694698 
208 1 1 -0.0448665 0.0168567 0.0449706 0 0 0 1.92431e-06 2.15486e-06 4.87325e-06 -9.15467e-06 -2.63065e-06 -1.91669e-05 -0.000222725 -0.000629601 0.000353811 0.00694698 
282 1 1 -0.0182462 0.018533 0.0445893 0 0 0 3.37505e-06 4.8796e-06 1.13936e-05 -1.77001e-05 -2.68449e-06 -4.42705e-05 5.14417e-06 -0.00053292 3.55275e-05 0.00694698 
4 1 1 -0.00366642 0.0146154 0.0482212 0 0 0 3.50995e-06 5.38935e-06 1.46884e-05 -7.48176e-05 -2.16043e-06 -0.000212868 -0.000270031 0.000145903 -5.9874e-05 0.0111152 
58 1 1 0.0410775 0.0200219 0.0435611 0 0 0 2.64236e-07 8.15614e-07 3.79974e-06 -9.88277e-06 -3.47396e-07 -5.37604e-05 -1.41334e-05 0.000188949 -2.76054e-05 0.0111152 
199 1 1 -0.0449272 0.0285898 0.0409786 0 0 0 8.27011e-07 1.30579e-06 2.72967e-06 -5.8867e-06 -1.53177e-06 -1.40828e-05 -0.000152058 -0.000329904 0.00020686 0.00694698 
192 1 1 -0.0256315 0.0271739 0.0481263 0 0 0 3.09983e-06 2.65583e-06 8.65154e-06 -1.82443e-05 1.84846e-06 -3.72752e-05 0.000324997 -0.000438853 -0.00015698 0.00694698 
292 1 1 -0.0146967 0.032469 0.0485799 0 0 0 4.0273e-06 2.25936e-06 1.1995e-05 -2.02638e-05 3.43782e-06 -5.14604e-05 -0.0001189 0.000227851 0.00031609 0.00694698 
73 1 1 0.0108552 0.0280466 0.0457835 0 0 0 3.00736e-06 3.01064e-06 7.8907e-06 -5.99633e-05 -2.35698e-06 -0.000135829 -0.000177718 0.000363284 -6.20898e-05 0.0111152 
327 1 1 -0.0435039 0.0432739 0.0497711 0 0 0 1.15489e-06 4.6386e-07 -3.97524e-07 -4.6358e-06 1.24571e-06 5.87875e-07 0.000117482 0.000150784 0.000120547 0.00694698 
126 1 1 -0.0115806 0.044294 0.046458 0 0 0 1.44909e-06 9.3201e-07 5.56094e-06 -9.13324e-06 2.80062e-06 -2.76934e-05 -0.00093435 -0.000250395 0.000189989 0.00694698 
248 1 1 0.000186988 0.0432518 0.0425158 0 0 0 1.98501e-06 9.77152e-07 5.7311e-06 -9.58832e-06 1.30042e-06 -2.55543e-05 -5.16839e-05 0.000312847 8.37271e-05 0.00694698 
229 1 1 0.0125664 0.0445193 0.045416 0 0 0 2.20487e-06 1.52714e-06 2.72366e-06 -7.73858e-06 -1.59378e-06 -1.39688e-05 -0.000239614 6.74649e-05 0.000113935 0.00694698 
114 1 1 0.0401335 0.0408 0.0407341 0 0 0 4.87246e-07 3.40258e-07 1.54141e-06 -9.41469e-06 2.1474e-06 -2.59377e-05 -7.44031e-05 0.000114471 -1.67588e-05 0.0111152 
314 1 1 -0.0174739 -0.0445492 0.0555942 0 0 0 5.22519e-07 2.71823e-06 4.44394e-06 -2.04559e-06 -2.61344e-06 -9.8861e-06 0.000127279 -1.86026e-05 5.90894e-05 0.00694698 
337 1 1 -0.00609996 -0.0408572 0.0515865 0 0 0 1.02328e-06 4.21346e-06 6.89503e-06 -4.51736e-06 -3.64332e-06 -1.58811e-05 -0.000110495 -0.000262693 0.000116697 0.00694698 
56 1 1 0.0068837 -0.0394003 0.0619726 0 0 0 1.1567e-07 4.33704e-06 7.39724e-06 -1.98717e-05 -1.04814e-05 -6.15712e-05 0.000313366 6.64435e-05 0.000113211 0.0111152 
265 1 1 0.0220177 -0.043724 0.0552628 0 0 0 2.62569e-07 1.57649e-06 3.10231e-06 -2.33756e-06 -3.25406e-07 -6.54779e-06 -0.000150693 0.000194485 -0.000290917 0.00694698 
49 1 1 0.0406724 -0.0407584 0.0580766 0 0 0 -4.99062e-08 9.48406e-07 2.42714e-06 -9.00988e-06 1.82065e-06 -2.01779e-05 0.000117128 0.000181032 -4.24785e-05 0.0111152 
84 1 1 -0.0411457 -0.032993 0.0553186 0 0 0 1.54912e-06 3.01623e-06 4.09955e-06 -1.41584e-05 -1.19597e-05 -3.90447e-05 -0.000139421 -0.000117975 0.000202155 0.0111152 
307 1 1 -0.0195837 -0.0324346 0.0571156 0 0 0 2.61047e-06 4.94993e-06 9.35395e-06 -5.78996e-06 -3.3668e-06 -2.13776e-05 0.000335589 0.00020502 -0.0002981 0.00694698 
326 1 1 0.0447956 -0.0254458 0.0534947 0 0 0 2.18962e-07 1.02101e-06 2.91107e-06 -3.52353e-06 5.31583e-07 -6.40577e-06 0.000117782 0.000473099 -0.000128587 0.00694698 
81 1 1 -0.0216684 -0.0170401 0.062432 0 0 0 4.46283e-06 5.68045e-06 1.39862e-05 -5.69803e-05 -7.03297e-07 -0.000157568 0.000188807 -0.000244946 -6.53122e-05 0.0111152 
52 1 1 0.0112853 -0.0221409 0.050731 0 0 0 3.03745e-07 5.1421e-06 9.27821e-06 -3.0027e-05 -9.32772e-06 -0.000100238 -0.000119147 -3.87661e-05 1.15422e-05 0.0111152 
332 1 1 0.026756 -0.0152036 0.0567085 0 0 0 8.58927e-07 4.08208e-06 7.63536e-06 -9.26658e-06 5.02795e-07 -1.98303e-05 -0.000276675 0.000207189 -0.000104388 0.00694698 
220 1 1 -0.043805 -0.00977096 0.0542181 0 0 0 1.74213e-06 1.70261e-06 3.99131e-06 -6.49187e-06 4.90491e-08 -1.35857e-05 5.53899e-05 -2.77921e-05 3.90605e-05 0.00694698 
133 1 1 -0.027208 -0.00283241 0.0559955 0 0 0 5.05051e-06 4.63639e-06 1.24611e-05 -1.90884e-05 -7.63359e-07 -3.99608e-05 -0.000402863 -0.00051355 0.000457573 0.00694698 
24 1 1 -0.0102673 -0.00372081 0.0528007 0 0 0 5.00456e-06 7.33539e-06 1.7533e-05 -8.24002e-05 -1.26665e-05 -0.000211449 -3.06646e-05 -9.73808e-05 0.000113129 0.0111152 
240 1 1 0.0172585 -0.00749228 0.0553607 0 0 0 1.42535e-06 5.53181e-06 1.39288e-05 -1.24226e-05 -8.11613e-07 -4.00478e-05 0.000689166 0.000655944 -0.000305876 0.00694698 
236 1 1 -0.0236943 0.00828095 0.0507774 0 0 0 3.6949e-06 4.5963e-06 1.17995e-05 -1.67596e-05 -8.72082e-07 -4.01708e-05 0.000134561 -8.9695e-06 0.000134323 0.00694698 
15 1 1 0.0136566 0.00817871 0.0563009 0 0 0 4.10224e-06 6.16042e-06 1.62344e-05 -7.63743e-05 -3.95618e-06 -0.000214962 -0.000293045 0.000164996 -0.000116184 0.0111152 
291 1 1 0.0437832 0.0122418 0.0588945 0 0 0 6.66649e-07 3.46448e-08 3.50722e-06 -3.26566e-06 1.66948e-06 -1.09176e-05 0.000183838 0.000107913 7.49635e-05 0.00694698 
335 1 1 -0.0343158 0.0161596 0.0526643 0 0 0 3.15006e-06 3.44287e-06 8.77185e-06 -1.6075e-05 -6.60999e-07 -3.34251e-05 -4.70035e-06 -0.000149545 -7.26576e-07 0.00694698 
266 1 1 0.0217589 0.0233197 0.0586731 0 0 0 3.60448e-06 3.95756e-06 1.01442e-05 -1.53452e-05 -5.54899e-07 -3.80713e-05 -0.000318768 -0.000423718 8.14513e-05 0.00694698 
298 1 1 0.0302846 0.0135353 0.0553189 0 0 0 3.95689e-06 3.14084e-06 1.06862e-05 -1.72902e-05 4.06527e-07 -3.51212e-05 -0.000276787 0.000455697 -0.000224826 0.00694698 
262 1 1 -0.0377382 0.0287333 0.0508387 0 0 0 1.47527e-06 2.37735e-06 5.06052e-06 -1.21816e-05 1.56621e-06 -2.377e-05 -0.00017446 9.94358e-05 3.95584e-05 0.00694698 
99 1 1 -0.00360811 0.0303682 0.0615074 0 0 0 5.39919e-06 6.13822e-06 1.34065e-05 -9.39706e-05 -1.22537e-06 -0.000225043 -0.000104035 -0.000182755 -7.48977e-05 0.0111152 
122 1 1 -0.0274283 0.0409191 0.0558336 0 0 0 -5.63247e-08 1.6813e-06 5.0008e-06 -1.73133e-05 6.63683e-06 -8.35345e-05 -0.000318994 -0.000667636 -4.69597e-05 0.0111152 
158 1 1 0.000206986 0.0448778 0.0561865 0 0 0 3.49183e-06 2.22538e-06 6.25803e-06 -1.34794e-05 2.47749e-07 -2.74655e-05 -0.00108523 1.71599e-05 0.000565592 0.00694698 
47 1 1 0.0244974 0.0400921 0.0559319 0 0 0 1.86617e-06 1.59726e-06 4.40466e-06 -3.02275e-05 4.25744e-07 -7.17552e-05 -0.000114491 -0.000116021 -1.60574e-05 0.0111152 
203 1 1 0.0420083 0.0441913 0.0569425 0 0 0 3.39029e-07 3.09232e-07 1.5971e-06 -1.50236e-06 2.66887e-07 -7.02021e-06 -0.000107211 -0.000148418 -6.94439e-06 0.00694698 
6 1 1 -0.0273257 -0.0408019 0.0684914 0 0 0 1.91136e-06 3.18201e-06 6.36511e-06 -1.29281e-05 -4.17211e-06 -5.40218e-05 0.000332459 9.37984e-06 -0.000215106 0.0111152 
190 1 1 -0.00862791 -0.0442093 0.0646035 0 0 0 6.93094e-07 1.1204e-06 5.94574e-06 -3.09277e-06 6.02259e-07 -1.29874e-05 0.000811358 8.82568e-05 -4.61862e-05 0.00694698 
189 1 1 0.0268465 -0.0442003 0.0673438 0 0 0 1.67871e-07 1.35297e-06 3.1659e-06 -3.52032e-06 1.16378e-06 -7.64623e-06 0.000266488 -5.71352e-05 -0.000120416 0.00694698 
186 1 1 0.0437407 -0.0441968 0.0738313 0 0 0 1.09905e-07 5.36938e-07 1.32532e-06 -1.18323e-06 1.43084e-06 -1.42849e-06 4.18153e-05 -4.44704e-05 -2.65308e-06 0.00694698 
313 1 1 -0.0118607 -0.0316738 0.0682094 0 0 0 2.72206e-06 4.95534e-06 1.30893e-05 -3.8987e-06 -7.28221e-07 -2.87275e-05 -0.000149906 -0.000459093 2.35239e-05 0.00694698 
227 1 1 0.00766389 -0.025394 0.0722239 0 0 0 2.94848e-06 5.40657e-06 1.48277e-05 -9.47076e-06 6.65494e-06 -3.31285e-05 0.000286825 0.00044293 -0.000555402 0.00694698 
91 1 1 0.0235312 -0.0277778 0.0665882 0 0 0 7.94194e-07 3.96436e-06 8.55685e-06 -3.47623e-05 -3.98711e-07 -8.4618e-05 0.000320299 0.000195355 -6.98703e-05 0.0111152 
247 1 1 0.0400879 -0.0264408 0.0680861 0 0 0 -1.12442e-07 3.17785e-06 5.69342e-06 -3.95152e-06 -9.88186e-07 -1.57723e-05 8.86186e-05 -3.08895e-05 7.18429e-05 0.00694698 
36 1 1 -0.0407301 -0.0173219 0.0691412 0 0 0 1.57e-06 2.88493e-06 5.51133e-06 -1.61717e-05 3.40236e-07 -6.64328e-05 3.16482e-05 -0.000341278 0.000151278 0.0111152 
137 1 1 -0.00226743 -0.0232153 0.0635623 0 0 0 3.26944e-06 7.70647e-06 1.65543e-05 -1.01953e-05 9.8272e-07 -3.95024e-05 -0.000238177 -0.000263085 0.000359925 0.00694698 
276 1 1 0.0201771 -0.0125509 0.072259 0 0 0 2.05818e-06 5.61674e-06 1.71346e-05 -1.12076e-05 3.58402e-06 -4.32973e-05 -8.56002e-05 0.000106009 -8.81545e-05 0.00694698 
215 1 1 0.0333367 -0.0151385 0.0705857 0 0 0 1.33494e-06 3.75326e-06 1.14984e-05 -7.98004e-06 8.03868e-08 -3.12723e-05 0.000392651 0.000417802 0.000120653 0.00694698 
217 1 1 0.0446141 -0.0151032 0.0644108 0 0 0 2.79785e-07 2.09268e-06 3.95038e-06 -4.62035e-06 -5.39128e-07 -1.13334e-05 -0.000236026 0.000480992 -0.000394331 0.00694698 
182 1 1 -0.0291258 -0.00430651 0.0735738 0 0 0 3.38104e-06 7.11298e-06 1.13872e-05 -5.68602e-06 4.90237e-06 -3.53126e-05 -0.000373467 -0.000309818 0.000683385 0.00694698 
10 1 1 0.00493198 -0.00796363 0.0666216 0 0 0 3.77883e-06 8.68909e-06 1.9829e-05 -7.60487e-05 1.15693e-05 -0.000218862 -1.34193e-05 7.1996e-05 -0.000238054 0.0111152 
148 1 1 0.0445355 -0.00238307 0.0634358 0 0 0 9.44614e-07 8.17126e-07 5.83601e-06 -5.21281e-06 4.06458e-06 -1.85163e-05 0.000553177 0.000811566 6.60767e-05 0.00694698 
32 1 1 -0.039949 0.00415223 0.0635932 0 0 0 2.12026e-06 2.29425e-06 6.3842e-06 -3.66328e-05 8.42196e-06 -9.245e-05 -2.32455e-06 -0.000177395 3.71905e-05 0.0111152 
197 1 1 -0.019298 0.0021356 0.0660104 0 0 0 6.04241e-06 1.03521e-05 1.67609e-05 -2.05019e-05 -3.638e-06 -4.94988e-05 -0.000172322 0.000177541 -0.000394743 0.00694698 
115 1 1 -0.00374319 0.010581 0.0687303 0 0 0 5.79609e-06 1.04125e-05 1.82565e-05 -9.34396e-05 1.02251e-06 -0.000247383 -0.000316699 5.48744e-05 -4.06352e-05 0.0111152 