ITEM: TIMESTEP
1050
ITEM: NUMBER OF ATOMS
338
ITEM: BOX BOUNDS mm mm mm
-0.05 0.05
-0.05 0.05
0 0.15
ITEM: ATOMS id type type x y z ix iy iz vx vy vz fx fy fz omegax omegay omegaz radius 
131 1 1 -0.0268662 -0.0408667 0.0052121 0 0 0 0 0 -0.102956 0 0 -0.0131176 0 0 0 0.00503562 
60 1 1 0.00523969 -0.0364874 0.00797061 0 0 0 0 0 0.0210708 0 0 0.174294 0 0 0 0.00805699 
260 1 1 0.0208522 -0.0367612 0.00660508 0 0 0 0 0 -0.102956 0 0 -0.0131176 0 0 0 0.00503562 
173 1 1 -0.0143053 -0.0294904 0.00609183 0 0 0 0 0 -0.102956 0 0 -0.0131176 0 0 0 0.00503562 
102 1 1 -0.0415551 -0.016109 0.00803338 0 0 0 0 0 0.014081 0 0 -0.0464075 0 0 0 0.00805699 
274 1 1 -0.017856 -0.00594656 0.00860092 0 0 0 0 0 -0.102956 0 0 -0.0131176 0 0 0 0.00503562 
279 1 1 0.00345611 -0.0132293 0.00636987 0 0 0 0 0 -0.102956 0 0 -0.0131176 0 0 0 0.00503562 
202 1 1 0.0424697 -0.0112183 0.00584037 0 0 0 0 0 -0.102956 0 0 -0.0131176 0 0 0 0.00503562 
257 1 1 -0.0427917 -0.000788059 0.00710613 0 0 0 0 0 -0.102956 0 0 -0.0131176 0 0 0 0.00503562 
171 1 1 -0.025394 0.0029722 0.00520357 0 0 0 0 0 -0.102956 0 0 -0.0131176 0 0 0 0.00503562 
232 1 1 -0.0388522 0.0117602 0.00503161 0 0 0 0 0 0.0121718 0 0 -0.019468 0 0 0 0.00503562 
297 1 1 -0.0229893 0.0196618 0.00833649 0 0 0 0 0 -0.102956 0 0 -0.0131176 0 0 0 0.00503562 
222 1 1 -0.011839 0.0214288 0.00589805 0 0 0 0 0 -0.102956 0 0 -0.0131176 0 0 0 0.00503562 
290 1 1 0.0024459 0.0152052 0.00498773 0 0 0 -0.00133663 0.000198616 -0.0222631 -0.007854 0.00116706 -0.0623295 0.719023 4.83883 -9.54346e-17 0.00503562 
316 1 1 0.0298993 0.0168772 0.0081404 0 0 0 0 0 -0.102956 0 0 -0.0131176 0 0 0 0.00503562 
162 1 1 0.0442265 0.0150863 0.00797815 0 0 0 0 0 -0.102956 0 0 -0.0131176 0 0 0 0.00503562 
255 1 1 -0.0221554 0.0335727 0.00866224 0 0 0 0 0 -0.102956 0 0 -0.0131176 0 0 0 0.00503562 
155 1 1 0.0336248 0.0322219 0.00498029 0 0 0 0 0 0.0161716 0 0 0.0871656 0 0 0 0.00503562 
289 1 1 0.0441148 0.0370355 0.00863383 0 0 0 0 0 -0.102956 0 0 -0.0131176 0 0 0 0.00503562 
321 1 1 -0.0447942 0.0434911 0.00646074 0 0 0 0 0 -0.102956 0 0 -0.0131176 0 0 0 0.00503562 
299 1 1 -0.0272293 -0.0432402 0.0178783 0 0 0 0 0 -0.102956 0 0 -0.0131176 0 0 0 0.00503562 
319 1 1 -0.0142646 -0.0448529 0.00923062 0 0 0 0 0 -0.102956 0 0 -0.0131176 0 0 0 0.00503562 
74 1 1 -0.0384622 -0.0338395 0.014371 0 0 0 0 0 -0.102956 0 0 -0.0537298 0 0 0 0.00805699 
296 1 1 -0.0224689 -0.0355829 0.0129064 0 0 0 0 0 -0.102956 0 0 -0.0131176 0 0 0 0.00503562 
243 1 1 -0.00934353 -0.0367014 0.0130716 0 0 0 0 0 -0.102956 0 0 -0.0131176 0 0 0 0.00503562 
78 1 1 0.0383985 -0.037225 0.0139754 0 0 0 0 0 -0.102956 0 0 -0.0537298 0 0 0 0.00805699 
275 1 1 -0.00350026 -0.0289367 0.0169125 0 0 0 0 0 -0.102956 0 0 -0.0131176 0 0 0 0.00503562 
328 1 1 -0.0269007 -0.0202082 0.0161758 0 0 0 0 0 -0.102956 0 0 -0.0131176 0 0 0 0.00503562 
40 1 1 -0.0095744 -0.0169003 0.0104378 0 0 0 0 0 -0.102956 0 0 -0.0537298 0 0 0 0.00805699 
267 1 1 0.0163076 -0.0176735 0.01623 0 0 0 0 0 -0.102956 0 0 -0.0131176 0 0 0 0.00503562 
144 1 1 0.042374 -0.0206485 0.0150964 0 0 0 0 0 -0.102956 0 0 -0.0131176 0 0 0 0.00503562 
50 1 1 0.026536 -0.00915926 0.0149322 0 0 0 0 0 -0.102956 0 0 -0.0537298 0 0 0 0.00805699 
17 1 1 -0.00938276 0.00387687 0.0123322 0 0 0 0 0 -0.102956 0 0 -0.0537298 0 0 0 0.00805699 
96 1 1 0.0113165 -0.00336412 0.013327 0 0 0 0 0 -0.102956 0 0 -0.0537298 0 0 0 0.00805699 
268 1 1 -0.0295644 0.0111299 0.0136052 0 0 0 0 0 -0.102956 0 0 -0.0131176 0 0 0 0.00503562 
286 1 1 -0.00196266 0.013629 0.0179454 0 0 0 0 0 -0.102956 0 0 -0.0131176 0 0 0 0.00503562 
94 1 1 0.0348132 0.00478129 0.0131932 0 0 0 0 0 -0.102956 0 0 -0.0537298 0 0 0 0.00805699 
273 1 1 -0.039209 0.0141168 0.0162187 0 0 0 0 0 -0.102956 0 0 -0.0131176 0 0 0 0.00503562 
98 1 1 0.0109748 0.0139379 0.014744 0 0 0 0.00728407 -0.00108237 -0.0803041 0.0814509 -0.0121031 0.122978 0.42989 2.89304 -1.45891e-17 0.00805699 
294 1 1 -0.0446702 0.0281705 0.0179062 0 0 0 0 0 -0.102956 0 0 -0.0131176 0 0 0 0.00503562 
175 1 1 -0.0367447 0.0315142 0.0120437 0 0 0 0 0 -0.102956 0 0 -0.0131176 0 0 0 0.00503562 
161 1 1 0.00320249 0.0241958 0.0122404 0 0 0 0 0 -0.102956 0 0 -0.0131176 0 0 0 0.00503562 
77 1 1 0.021231 0.0296756 0.0108582 0 0 0 0 0 -0.102956 0 0 -0.0537298 0 0 0 0.00805699 
324 1 1 -0.0104341 0.033894 0.00975389 0 0 0 0 0 -0.102956 0 0 -0.0131176 0 0 0 0.00503562 
149 1 1 0.00449458 0.0403794 0.0105664 0 0 0 0 0 -0.102956 0 0 -0.0131176 0 0 0 0.00503562 
207 1 1 -0.034013 0.042938 0.0117033 0 0 0 0 0 -0.102956 0 0 -0.0131176 0 0 0 0.00503562 
249 1 1 0.0260036 0.0420097 0.00970088 0 0 0 0 0 -0.102956 0 0 -0.0131176 0 0 0 0.00503562 
130 1 1 0.0141819 -0.0447393 0.0252643 0 0 0 0 0 -0.102956 0 0 -0.0131176 0 0 0 0.00503562 
7 1 1 -0.0212432 -0.0348266 0.0274618 0 0 0 0 0 -0.102956 0 0 -0.0537298 0 0 0 0.00805699 
67 1 1 0.0220426 -0.029466 0.0211388 0 0 0 0 0 -0.102956 0 0 -0.0537298 0 0 0 0.00805699 
179 1 1 -0.0369204 -0.0203388 0.0242488 0 0 0 0 0 -0.102956 0 0 -0.0131176 0 0 0 0.00503562 
310 1 1 -0.0148815 -0.0136629 0.0266503 0 0 0 0 0 -0.102956 0 0 -0.0131176 0 0 0 0.00503562 
278 1 1 0.0313014 -0.0165843 0.0269237 0 0 0 0 0 -0.102956 0 0 -0.0131176 0 0 0 0.00503562 
183 1 1 0.039709 -0.0112415 0.0197408 0 0 0 0 0 -0.102956 0 0 -0.0131176 0 0 0 0.00503562 
164 1 1 0.0238656 0.0089406 0.0214379 0 0 0 0 0 -0.102956 0 0 -0.0131176 0 0 0 0.00503562 
28 1 1 -0.0154685 0.0209772 0.0199395 0 0 0 0 0 -0.102956 0 0 -0.0537298 0 0 0 0.00805699 
261 1 1 0.0415966 0.014492 0.024168 0 0 0 0 0 -0.102956 0 0 -0.0131176 0 0 0 0.00503562 
16 1 1 0.00608296 0.036233 0.0264331 0 0 0 0 0 -0.102956 0 0 -0.0537298 0 0 0 0.00805699 
239 1 1 0.0232367 0.0396958 0.0252648 0 0 0 0 0 -0.102956 0 0 -0.0131176 0 0 0 0.00503562 
61 1 1 0.0346007 0.0346679 0.0196927 0 0 0 0 0 -0.102956 0 0 -0.0537298 0 0 0 0.00805699 
38 1 1 -0.0154435 0.0419208 0.0190344 0 0 0 0 0 -0.102956 0 0 -0.0537298 0 0 0 0.00805699 
180 1 1 -0.0423831 -0.0321371 0.0325036 0 0 0 0 0 -0.102956 0 0 -0.0131176 0 0 0 0.00503562 
104 1 1 -0.00119794 -0.0337258 0.0289935 0 0 0 0 0 -0.102956 0 0 -0.0537298 0 0 0 0.00805699 
271 1 1 0.028986 -0.0321488 0.0360129 0 0 0 0 0 -0.102956 0 0 -0.0131176 0 0 0 0.00503562 
120 1 1 0.0413978 -0.02777 0.0292989 0 0 0 0 0 -0.102956 0 0 -0.0537298 0 0 0 0.00805699 
51 1 1 0.0138307 -0.0202701 0.0324238 0 0 0 -0.00028056 -0.00555645 -0.102057 0.000109647 0.00217155 -0.0540812 2.23559e-15 -4.00782e-16 -1.77896e-15 0.00805699 
134 1 1 0.0446472 -0.0137875 0.0348205 0 0 0 0 0 -0.102956 0 0 -0.0131176 0 0 0 0.00503562 
146 1 1 -0.0446365 -0.00615984 0.0318993 0 0 0 0 0 -0.102956 0 0 -0.0131176 0 0 0 0.00503562 
19 1 1 -0.0282448 -0.0111162 0.0300134 0 0 0 0 0 -0.102956 0 0 -0.0537298 0 0 0 0.00805699 
160 1 1 -0.00352292 -0.00979518 0.0331826 0 0 0 0 0 -0.102956 0 0 -0.0131176 0 0 0 0.00503562 
184 1 1 0.0289516 -0.0107054 0.0368369 0 0 0 0 0 -0.102956 0 0 -0.0131176 0 0 0 0.00503562 
18 1 1 0.0146322 -0.00439564 0.0298547 0 0 0 0.00028056 0.00555645 -0.103855 -0.000109647 -0.00217155 -0.0533784 2.23559e-15 -4.00782e-16 -1.77896e-15 0.00805699 
55 1 1 0.0384601 -0.000870472 0.0294129 0 0 0 0 0 -0.102956 0 0 -0.0537298 0 0 0 0.00805699 
25 1 1 -0.0391738 0.00556727 0.0281537 0 0 0 0 0 -0.102956 0 0 -0.0537298 0 0 0 0.00805699 
112 1 1 -0.0205863 0.00564464 0.0287017 0 0 0 0 0 -0.102956 0 0 -0.0537298 0 0 0 0.00805699 
300 1 1 -0.040958 0.0191512 0.0358992 0 0 0 0 0 -0.102956 0 0 -0.0131176 0 0 0 0.00503562 
320 1 1 -0.00684117 0.0205016 0.0301676 0 0 0 0 0 -0.102956 0 0 -0.0131176 0 0 0 0.00503562 
108 1 1 0.0154354 0.0221438 0.0298523 0 0 0 0 0 -0.102956 0 0 -0.0537298 0 0 0 0.00805699 
284 1 1 0.028257 0.0149266 0.0308709 0 0 0 0 0 -0.102956 0 0 -0.0131176 0 0 0 0.00503562 
305 1 1 -0.0432541 0.0290219 0.0317177 0 0 0 0 0 -0.102956 0 0 -0.0131176 0 0 0 0.00503562 
23 1 1 -0.029349 0.031015 0.0289512 0 0 0 0 0 -0.102956 0 0 -0.0537298 0 0 0 0.00805699 
331 1 1 -0.0420922 -0.0428226 0.0443982 0 0 0 0 0 -0.102956 0 0 -0.0131176 0 0 0 0.00503562 
225 1 1 0.00206793 -0.0443639 0.0371663 0 0 0 0 0 -0.102956 0 0 -0.0131176 0 0 0 0.00503562 
242 1 1 0.00882703 -0.0440483 0.0447865 0 0 0 0 0 -0.102956 0 0 -0.0131176 0 0 0 0.00503562 
42 1 1 -0.012134 -0.035903 0.0410897 0 0 0 0 0 -0.102956 0 0 -0.0537298 0 0 0 0.00805699 
167 1 1 0.0223335 -0.040431 0.0391848 0 0 0 0 0 -0.102956 0 0 -0.0131176 0 0 0 0.00503562 
136 1 1 0.040231 -0.0368016 0.0388257 0 0 0 0 0 -0.102956 0 0 -0.0131176 0 0 0 0.00503562 
128 1 1 -0.0446972 -0.0250028 0.0401633 0 0 0 0 0 -0.102956 0 0 -0.0131176 0 0 0 0.00503562 
93 1 1 -0.0301495 -0.0234678 0.0405395 0 0 0 0 0 -0.102956 0 0 -0.0537298 0 0 0 0.00805699 
191 1 1 0.00787612 -0.0261212 0.0454387 0 0 0 0 0 -0.102956 0 0 -0.0131176 0 0 0 0.00503562 
178 1 1 -0.0116213 -0.019767 0.0379134 0 0 0 0 0 -0.102956 0 0 -0.0131176 0 0 0 0.00503562 
258 1 1 -0.00335851 -0.0192597 0.0447466 0 0 0 0.00286155 -0.00627016 -0.106988 -0.000316306 0.000693083 -0.0126719 1.13087e-14 5.30958e-15 -2.31037e-16 0.00503562 
336 1 1 -0.0183143 -0.00775994 0.042503 0 0 0 0 0 -0.102956 0 0 -0.0131176 0 0 0 0.00503562 
245 1 1 0.00494971 -0.0102947 0.0394001 0 0 0 0 0 -0.102956 0 0 -0.0131176 0 0 0 0.00503562 
318 1 1 0.0427324 0.00340808 0.0439226 0 0 0 0 0 -0.102956 0 0 -0.0131176 0 0 0 0.00503562 
100 1 1 0.00889555 0.0074955 0.0397035 0 0 0 0 0 -0.102956 0 0 -0.0537298 0 0 0 0.00805699 
95 1 1 0.0279053 0.00489548 0.0420206 0 0 0 0 0 -0.102956 0 0 -0.0537298 0 0 0 0.00805699 
2 1 1 -0.0301948 0.0152128 0.046259 0 0 0 0 0 -0.102956 0 0 -0.0537298 0 0 0 0.00805699 
73 1 1 0.000965103 0.0204903 0.0463251 0 0 0 0 0 -0.102956 0 0 -0.0537298 0 0 0 0.00805699 
58 1 1 0.0404484 0.0169499 0.039647 0 0 0 0 0 -0.102956 0 0 -0.0537298 0 0 0 0.00805699 
69 1 1 -0.0129094 0.0313545 0.0375931 0 0 0 0 0 -0.102956 0 0 -0.0537298 0 0 0 0.00805699 
47 1 1 0.0213025 0.0313786 0.0443015 0 0 0 0 0 -0.102956 0 0 -0.0537298 0 0 0 0.00805699 
114 1 1 0.0363322 0.0356563 0.0374922 0 0 0 0 0 -0.102956 0 0 -0.0537298 0 0 0 0.00805699 
323 1 1 -0.0165976 0.0442779 0.0425865 0 0 0 0 0 -0.102956 0 0 -0.0131176 0 0 0 0.00503562 
237 1 1 -0.00192521 0.0429747 0.0388357 0 0 0 0 0 -0.102956 0 0 -0.0131176 0 0 0 0.00503562 
256 1 1 -0.0288237 -0.0392525 0.0500153 0 0 0 0 0 -0.102956 0 0 -0.0131176 0 0 0 0.00503562 
168 1 1 -0.00297731 -0.0397283 0.0537068 0 0 0 0 0 -0.102956 0 0 -0.0131176 0 0 0 0.00503562 
3 1 1 0.0203703 -0.0371817 0.0546832 0 0 0 0 0 -0.102956 0 0 -0.0537298 0 0 0 0.00805699 
329 1 1 -0.0232421 -0.0304347 0.0499811 0 0 0 0 0 -0.102956 0 0 -0.0131176 0 0 0 0.00503562 
105 1 1 0.0347458 -0.026835 0.0505504 0 0 0 0 0 -0.102956 0 0 -0.0537298 0 0 0 0.00805699 
66 1 1 -0.0415789 -0.0157681 0.0537742 0 0 0 0 0 -0.102956 0 0 -0.0537298 0 0 0 0.00805699 
24 1 1 -0.00804731 -0.00898572 0.0513533 0 0 0 -0.000698619 0.0015308 -0.101972 0.000316306 -0.000693083 -0.0541755 1.72594e-15 8.10358e-16 -3.52701e-17 0.00805699 
259 1 1 0.0299512 -0.0104967 0.0480553 0 0 0 0 0 -0.102956 0 0 -0.0131176 0 0 0 0.00503562 
107 1 1 -0.0399833 1.677e-05 0.0472392 0 0 0 0 0 -0.102956 0 0 -0.0537298 0 0 0 0.00805699 
133 1 1 -0.0248112 -0.00222023 0.0513662 0 0 0 0 0 -0.102956 0 0 -0.0131176 0 0 0 0.00503562 
4 1 1 -0.0113994 0.0100841 0.0502592 0 0 0 0 0 -0.102956 0 0 -0.0537298 0 0 0 0.00805699 
298 1 1 0.0362654 0.0125535 0.0550583 0 0 0 0 0 -0.102956 0 0 -0.0131176 0 0 0 0.00503562 
246 1 1 -0.0415527 0.0238641 0.0514956 0 0 0 0 0 -0.102956 0 0 -0.0131176 0 0 0 0.00503562 
192 1 1 -0.0230245 0.0268449 0.0466548 0 0 0 0 0 -0.102956 0 0 -0.0131176 0 0 0 0.00503562 
292 1 1 -0.0145814 0.031016 0.0524162 0 0 0 0 0 -0.102956 0 0 -0.0131176 0 0 0 0.00503562 
106 1 1 0.0363139 0.028523 0.0524393 0 0 0 0 0 -0.102956 0 0 -0.0537298 0 0 0 0.00805699 
9 1 1 -0.0337218 0.0378404 0.0505689 0 0 0 0 0 -0.102956 0 0 -0.0537298 0 0 0 0.00805699 
248 1 1 0.00409611 0.0433263 0.0525605 0 0 0 0 0 -0.102956 0 0 -0.0131176 0 0 0 0.00503562 
229 1 1 0.0170728 0.0425053 0.0546904 0 0 0 0 0 -0.102956 0 0 -0.0131176 0 0 0 0.00503562 
203 1 1 0.0430085 0.0441891 0.0545474 0 0 0 0 0 -0.102956 0 0 -0.0131176 0 0 0 0.00503562 
224 1 1 -0.0366537 -0.0379548 0.0646629 0 0 0 0 0 -0.102956 0 0 -0.0131176 0 0 0 0.00503562 
314 1 1 -0.0161265 -0.0377647 0.0562499 0 0 0 0 0 -0.102956 0 0 -0.0131176 0 0 0 0.00503562 
125 1 1 0.0354829 -0.0395199 0.057386 0 0 0 0 0 -0.102956 0 0 -0.0131176 0 0 0 0.00503562 
211 1 1 -0.0421804 -0.0254125 0.0635915 0 0 0 0 0 -0.102956 0 0 -0.0131176 0 0 0 0.00503562 
43 1 1 -0.000470093 -0.0262562 0.0571917 0 0 0 0.000919772 0.000860441 -0.104719 0.000716011 0.000669824 -0.055102 1.24267e-15 -1.02126e-15 1.49902e-16 0.00805699 
81 1 1 -0.0205639 -0.0172316 0.0576829 0 0 0 0 0 -0.102956 0 0 -0.0537298 0 0 0 0.00805699 
52 1 1 0.0154032 -0.0180526 0.0596485 0 0 0 0 0 -0.102956 0 0 -0.0537298 0 0 0 0.00805699 
332 1 1 0.0295284 -0.0161129 0.0603951 0 0 0 0 0 -0.102956 0 0 -0.0131176 0 0 0 0.00503562 
5 1 1 0.041256 -0.0101152 0.064694 0 0 0 0 0 -0.102956 0 0 -0.0537298 0 0 0 0.00805699 
10 1 1 0.011638 -0.000482538 0.0594392 0 0 0 0 0 -0.102956 0 0 -0.0537298 0 0 0 0.00805699 
303 1 1 0.0311837 0.00396808 0.0616659 0 0 0 0 0 -0.102956 0 0 -0.0131176 0 0 0 0.00503562 
208 1 1 -0.0396315 0.0127143 0.0584762 0 0 0 0 0 -0.102956 0 0 -0.0131176 0 0 0 0.00503562 
236 1 1 -0.0181848 0.0106664 0.0631448 0 0 0 -0.00550612 -0.000309286 -0.109206 -0.000508759 -3.32858e-05 -0.0136289 0.0278713 -0.203514 -0.0144836 0.00503562 
115 1 1 0.00313641 0.0135831 0.0615407 0 0 0 0 0 -0.102956 0 0 -0.0537298 0 0 0 0.00805699 
282 1 1 -0.0248218 0.0191938 0.0588381 0 0 0 0 0 -0.102956 0 0 -0.0131176 0 0 0 0.00503562 
15 1 1 0.0192726 0.0149695 0.0620369 0 0 0 0 0 -0.102956 0 0 -0.0537298 0 0 0 0.00805699 
262 1 1 -0.0254579 0.0291419 0.0564489 0 0 0 0 0 -0.102956 0 0 -0.0131176 0 0 0 0.00503562 
99 1 1 -0.000450282 0.0321111 0.0604425 0 0 0 0 0 -0.102956 0 0 -0.0537298 0 0 0 0.00805699 
327 1 1 -0.0379102 0.0440646 0.0644774 0 0 0 0 0 -0.102956 0 0 -0.0131176 0 0 0 0.00503562 
126 1 1 -0.0148126 0.0439456 0.0645154 0 0 0 0 0 -0.102956 0 0 -0.0131176 0 0 0 0.00503562 
6 1 1 -0.0215944 -0.0377404 0.0693082 0 0 0 0 0 -0.102956 0 0 -0.0537298 0 0 0 0.00805699 
283 1 1 0.0344894 -0.0364612 0.0683781 0 0 0 0 0 -0.102956 0 0 -0.0131176 0 0 0 0.00503562 
307 1 1 -0.0128294 -0.0242639 0.0705066 0 0 0 0 0 -0.102956 0 0 -0.0131176 0 0 0 0.00503562 
337 1 1 -0.00602341 -0.0314513 0.0678344 0 0 0 -0.00376739 -0.00352437 -0.0957359 -0.000716011 -0.000669824 -0.0117454 8.14109e-15 -6.69082e-15 9.81947e-16 0.00503562 
91 1 1 0.0238395 -0.0295294 0.0737588 0 0 0 0 0 -0.102956 0 0 -0.0537298 0 0 0 0.00805699 
326 1 1 0.0428617 -0.0238533 0.0712337 0 0 0 0 0 -0.102956 0 0 -0.0131176 0 0 0 0.00503562 
36 1 1 -0.0381517 -0.0154818 0.0713752 0 0 0 0 0 -0.102956 0 0 -0.0537298 0 0 0 0.00805699 
26 1 1 -6.62862e-05 -0.0140715 0.0740718 0 0 0 0 0 -0.102956 0 0 -0.0537298 0 0 0 0.00805699 
215 1 1 0.0295226 -0.0144583 0.0743571 0 0 0 0 0 -0.102956 0 0 -0.0131176 0 0 0 0.00503562 
182 1 1 -0.0245857 -0.011775 0.0712377 0 0 0 0 0 -0.102956 0 0 -0.0131176 0 0 0 0.00503562 
197 1 1 -0.0154165 -0.00546226 0.0682723 0 0 0 0 0 -0.102956 0 0 -0.0131176 0 0 0 0.00503562 
240 1 1 0.0235615 -0.00132712 0.0670217 0 0 0 0 0 -0.102956 0 0 -0.0131176 0 0 0 0.00503562 
32 1 1 -0.0357228 0.00649715 0.0707773 0 0 0 0 0 -0.102956 0 0 -0.0537298 0 0 0 0.00805699 
57 1 1 -0.010035 0.0110546 0.0733723 0 0 0 -0.0011891 -0.000234546 -0.101949 -0.000449243 -8.72812e-05 -0.0533679 0.000687351 -0.00501898 -0.000357189 0.00805699 
291 1 1 0.0418759 0.00849624 0.0688853 0 0 0 0 0 -0.102956 0 0 -0.0131176 0 0 0 0.00503562 
199 1 1 -0.0443433 0.0219429 0.0654416 0 0 0 0 0 -0.102956 0 0 -0.0131176 0 0 0 0.00503562 
335 1 1 -0.0280227 0.0221394 0.070766 0 0 0 0 0 -0.102956 0 0 -0.0131176 0 0 0 0.00503562 
117 1 1 -0.0105713 0.0275123 0.0735373 0 0 0 0 0 -0.102956 0 0 -0.0537298 0 0 0 0.00805699 
127 1 1 0.0360342 0.02656 0.066557 0 0 0 0 0 -0.102956 0 0 -0.0131176 0 0 0 0.00503562 
122 1 1 -0.0249159 0.0388111 0.0718451 0 0 0 0 0 -0.102956 0 0 -0.0537298 0 0 0 0.00805699 
315 1 1 -0.000253583 0.0380258 0.0736181 0 0 0 0 0 -0.102956 0 0 -0.0131176 0 0 0 0.00503562 
76 1 1 0.0313465 0.0404174 0.0671076 0 0 0 0 0 -0.102956 0 0 -0.0537298 0 0 0 0.00805699 
158 1 1 0.00652377 0.0449512 0.0664741 0 0 0 0 0 -0.102956 0 0 -0.0131176 0 0 0 0.00503562 
84 1 1 -0.0382957 -0.0356933 0.0778498 0 0 0 0 0 -0.102956 0 0 -0.0537298 0 0 0 0.00805699 
56 1 1 0.00625104 -0.0388468 0.0760718 0 0 0 0 0 -0.102956 0 0 -0.0537298 0 0 0 0.00805699 
49 1 1 0.0375297 -0.0383468 0.0827444 0 0 0 0 0 -0.102956 0 0 -0.0537298 0 0 0 0.00805699 
75 1 1 -0.0262822 -0.0253701 0.0815892 0 0 0 0 0 -0.102956 0 0 -0.0537298 0 0 0 0.00805699 
137 1 1 -0.00363123 -0.0300467 0.0831478 0 0 0 0 0 -0.102956 0 0 -0.0131176 0 0 0 0.00503562 
204 1 1 -0.0107942 -0.0174805 0.0819534 0 0 0 0 0 -0.102956 0 0 -0.0131176 0 0 0 0.00503562 
217 1 1 0.0395898 -0.0137441 0.0784586 0 0 0 0 0 -0.102956 0 0 -0.0131176 0 0 0 0.00503562 
145 1 1 -0.0307201 -0.0128574 0.0831343 0 0 0 0 0 -0.102956 0 0 -0.0131176 0 0 0 0.00503562 
276 1 1 0.014428 -0.00937105 0.0755037 0 0 0 0 0 -0.102956 0 0 -0.0131176 0 0 0 0.00503562 
220 1 1 -0.0374843 0.00171989 0.083729 0 0 0 0 0 -0.102956 0 0 -0.0131176 0 0 0 0.00503562 
53 1 1 -0.0210984 -0.00118973 0.0808698 0 0 0 0 0 -0.102956 0 0 -0.0537298 0 0 0 0.00805699 
87 1 1 0.0348247 -0.00164207 0.0769404 0 0 0 0 0 -0.102956 0 0 -0.0537298 0 0 0 0.00805699 
233 1 1 0.00276261 0.0126518 0.0755568 0 0 0 0.0103767 0.00126998 -0.100833 0.000958002 0.000120567 -0.0129682 -0.0233722 0.170662 0.0121456 0.00503562 
45 1 1 0.0314343 0.0166123 0.0786242 0 0 0 0 0 -0.102956 0 0 -0.0537298 0 0 0 0.00805699 
338 1 1 0.0445718 0.0180464 0.0835705 0 0 0 0 0 -0.102956 0 0 -0.0131176 0 0 0 0.00503562 
250 1 1 -0.0226139 0.0282147 0.0823679 0 0 0 0 0 -0.102956 0 0 -0.0131176 0 0 0 0.00503562 
140 1 1 0.0108541 0.0242341 0.0790701 0 0 0 0 0 -0.102956 0 0 -0.0131176 0 0 0 0.00503562 
322 1 1 0.0432571 0.0229131 0.0746143 0 0 0 0 0 -0.102956 0 0 -0.0131176 0 0 0 0.00503562 
39 1 1 -0.0393506 0.0352058 0.0797861 0 0 0 0 0 -0.102956 0 0 -0.0537298 0 0 0 0.00805699 
113 1 1 0.0165965 0.0366038 0.0755696 0 0 0 0 0 -0.102956 0 0 -0.0537298 0 0 0 0.00805699 
195 1 1 0.0389143 0.0324035 0.0822414 0 0 0 0 0 -0.102956 0 0 -0.0131176 0 0 0 0.00503562 
124 1 1 0.0420088 0.042441 0.0831046 0 0 0 0 0 -0.102956 0 0 -0.0131176 0 0 0 0.00503562 
79 1 1 -0.0176142 -0.0414344 0.0927929 0 0 0 0 0 -0.102956 0 0 -0.0537298 0 0 0 0.00805699 
190 1 1 0.000515076 -0.0431242 0.0913524 0 0 0 0 0 -0.102956 0 0 -0.0131176 0 0 0 0.00503562 
265 1 1 0.014652 -0.0432494 0.0859376 0 0 0 0 0 -0.102956 0 0 -0.0131176 0 0 0 0.00503562 
189 1 1 0.02283 -0.0350371 0.0878897 0 0 0 -0.00129902 -0.00166475 -0.106362 0.000116559 0.000149375 -0.012812 -1.09977e-14 5.49995e-15 1.50598e-15 0.00503562 
230 1 1 -0.0418354 -0.0281007 0.0929512 0 0 0 0 0 -0.102956 0 0 -0.0131176 0 0 0 0.00503562 
313 1 1 -0.0111159 -0.0253459 0.090946 0 0 0 0 0 -0.102956 0 0 -0.0131176 0 0 0 0.00503562 
227 1 1 0.0105119 -0.0261492 0.0900383 0 0 0 0 0 -0.102956 0 0 -0.0131176 0 0 0 0.00503562 
147 1 1 -0.039794 -0.0179325 0.0862088 0 0 0 0 0 -0.102956 0 0 -0.0131176 0 0 0 0.00503562 
209 1 1 0.0100426 -0.0144994 0.0875537 0 0 0 0 0 -0.102956 0 0 -0.0131176 0 0 0 0.00503562 
59 1 1 0.0243699 -0.0153919 0.0881986 0 0 0 0 0 -0.102956 0 0 -0.0537298 0 0 0 0.00805699 
247 1 1 0.0363883 -0.0216333 0.0890157 0 0 0 0 0 -0.102956 0 0 -0.0131176 0 0 0 0.00503562 
295 1 1 -0.00320175 -0.0118873 0.0908982 0 0 0 0 0 -0.102956 0 0 -0.0131176 0 0 0 0.00503562 
148 1 1 0.0440706 -0.00493793 0.0867411 0 0 0 0 0 -0.102956 0 0 -0.0131176 0 0 0 0.00503562 
22 1 1 0.00672359 0.00340981 0.0875221 0 0 0 0 0 -0.102956 0 0 -0.0537298 0 0 0 0.00805699 
312 1 1 -0.0220558 0.00846736 0.0908803 0 0 0 0 0 -0.102956 0 0 -0.0131176 0 0 0 0.00503562 
63 1 1 -0.0344071 0.0201469 0.0876129 0 0 0 0 0 -0.102956 0 0 -0.0537298 0 0 0 0.00805699 
62 1 1 -0.0128982 0.0195936 0.0881831 0 0 0 0 0 -0.102956 0 0 -0.0537298 0 0 0 0.00805699 
263 1 1 0.00682569 0.0193914 0.0903605 0 0 0 0 0 -0.102956 0 0 -0.0131176 0 0 0 0.00503562 
266 1 1 0.0143295 0.0263978 0.0887811 0 0 0 0.00680473 -0.00531249 -0.102607 -0.000388885 0.000303605 -0.0131376 4.12038e-14 5.27221e-14 -8.47597e-16 0.00503562 
198 1 1 -0.0259991 0.0335641 0.0917341 0 0 0 0 0 -0.102956 0 0 -0.0131176 0 0 0 0.00503562 
35 1 1 -0.0126116 0.0370565 0.0866203 0 0 0 0 0 -0.102956 0 0 -0.0537298 0 0 0 0.00805699 
46 1 1 0.00402563 0.0344421 0.0882533 0 0 0 -0.00166131 0.00129699 -0.103041 0.000388885 -0.000303605 -0.0537099 6.28998e-15 8.0483e-15 -1.29429e-16 0.00805699 
154 1 1 0.027479 0.0388057 0.0853575 0 0 0 0 0 -0.102956 0 0 -0.0131176 0 0 0 0.00503562 
174 1 1 -0.0252787 0.0414058 0.0847932 0 0 0 0 0 -0.102956 0 0 -0.0131176 0 0 0 0.00503562 
252 1 1 -0.0341074 -0.0434334 0.0956371 0 0 0 0 0 -0.102956 0 0 -0.0131176 0 0 0 0.00503562 
188 1 1 -0.0266813 -0.0324856 0.096382 0 0 0 0 0 -0.102956 0 0 -0.0131176 0 0 0 0.00503562 
109 1 1 0.0138074 -0.0384174 0.102313 0 0 0 0 0 -0.102956 0 0 -0.0537298 0 0 0 0.00805699 
165 1 1 0.0362744 -0.0355914 0.0966133 0 0 0 0 0 -0.102956 0 0 -0.0131176 0 0 0 0.00503562 
44 1 1 0.000170875 -0.0281064 0.0989398 0 0 0 0 0 -0.102956 0 0 -0.0537298 0 0 0 0.00805699 
143 1 1 0.0260921 -0.0308566 0.0964442 0 0 0 0.00129902 0.00166475 -0.0995494 -0.000116559 -0.000149375 -0.0134233 -1.09977e-14 5.49995e-15 1.50598e-15 0.00503562 
285 1 1 -0.0448811 -0.0171348 0.097127 0 0 0 0 0 -0.102956 0 0 -0.0131176 0 0 0 0.00503562 
170 1 1 0.0286656 -0.0180034 0.100319 0 0 0 0 0 -0.102956 0 0 -0.0131176 0 0 0 0.00503562 
169 1 1 0.0440342 -0.0175274 0.0994575 0 0 0 0 0 -0.102956 0 0 -0.0131176 0 0 0 0.00503562 
196 1 1 -0.0200099 -0.00674635 0.0955074 0 0 0 0 0 -0.102956 0 0 -0.0131176 0 0 0 0.00503562 
223 1 1 -0.0109188 -0.0115954 0.0975718 0 0 0 0 0 -0.102956 0 0 -0.0131176 0 0 0 0.00503562 
185 1 1 0.0138686 -0.0105482 0.0978457 0 0 0 0 0 -0.102956 0 0 -0.0131176 0 0 0 0.00503562 
111 1 1 -0.0343607 -0.000968929 0.0972803 0 0 0 0 0 -0.102956 0 0 -0.0537298 0 0 0 0.00805699 
123 1 1 0.025826 0.00433535 0.093983 0 0 0 -0.00511145 -0.00284866 -0.103826 0.00209912 0.00116986 -0.0533724 1.47363e-15 -2.26952e-15 -1.22628e-15 0.00805699 
306 1 1 -0.040173 0.012472 0.0989788 0 0 0 0 0 -0.102956 0 0 -0.0131176 0 0 0 0.00503562 
333 1 1 -0.00325388 0.0120493 0.0938885 0 0 0 0 0 -0.102956 0 0 -0.0131176 0 0 0 0.00503562 
287 1 1 0.00950234 0.00576649 0.100486 0 0 0 0 0 -0.102956 0 0 -0.0131176 0 0 0 0.00503562 
33 1 1 0.0397369 0.012088 0.0963516 0 0 0 0.00511145 0.00284866 -0.102086 -0.00209912 -0.00116986 -0.0540872 1.47363e-15 -2.26952e-15 -1.22628e-15 0.00805699 
206 1 1 -0.0251312 0.0196475 0.0981752 0 0 0 0 0 -0.102956 0 0 -0.0131176 0 0 0 0.00503562 
280 1 1 -0.0444501 0.0275669 0.10076 0 0 0 0 0 -0.102956 0 0 -0.0131176 0 0 0 0.00503562 
82 1 1 0.0286385 0.0274834 0.0936716 0 0 0 0 0 -0.102956 0 0 -0.0537298 0 0 0 0.00805699 
281 1 1 0.0381233 0.0376639 0.10079 0 0 0 0 0 -0.102956 0 0 -0.0131176 0 0 0 0.00503562 
194 1 1 -0.00746468 0.041091 0.0990156 0 0 0 0 0 -0.102956 0 0 -0.0131176 0 0 0 0.00503562 
163 1 1 -0.0237247 -0.0414279 0.106462 0 0 0 0 0 -0.102956 0 0 -0.0131176 0 0 0 0.00503562 
156 1 1 -0.0433591 -0.0363526 0.106677 0 0 0 0 0 -0.102956 0 0 -0.0131176 0 0 0 0.00503562 
272 1 1 0.0300394 -0.0329717 0.106292 0 0 0 -0.00237829 0.00180093 -0.103891 -0.000479496 0.000363093 -0.0133061 -1.44926e-14 -1.66383e-14 4.81753e-15 0.00503562 
186 1 1 0.037696 -0.0387696 0.109301 0 0 0 0.00237829 -0.00180093 -0.102021 0.000479496 -0.000363093 -0.0129292 -1.44926e-14 -1.66383e-14 4.81753e-15 0.00503562 
41 1 1 -0.0184639 -0.0235902 0.104588 0 0 0 0 0 -0.102956 0 0 -0.0537298 0 0 0 0.00805699 
205 1 1 0.0119519 -0.0250776 0.104581 0 0 0 0 0 -0.102956 0 0 -0.0131176 0 0 0 0.00503562 
135 1 1 0.021287 -0.0286533 0.110054 0 0 0 0 0 -0.102956 0 0 -0.0131176 0 0 0 0.00503562 
264 1 1 -0.0419652 -0.008614 0.111182 0 0 0 0 0 -0.102956 0 0 -0.0131176 0 0 0 0.00503562 
21 1 1 -0.0201588 -0.00866756 0.111028 0 0 0 0 0 -0.102956 0 0 -0.0537298 0 0 0 0.00805699 
90 1 1 0.000231354 -0.0116308 0.105404 0 0 0 0 0 -0.102956 0 0 -0.0537298 0 0 0 0.00805699 
253 1 1 0.0297251 -0.00994694 0.107115 0 0 0 0 0 -0.102956 0 0 -0.0131176 0 0 0 0.00503562 
325 1 1 0.0422676 -0.00782889 0.104178 0 0 0 0 0 -0.102956 0 0 -0.0131176 0 0 0 0.00503562 
238 1 1 -0.000690146 0.000715388 0.109746 0 0 0 0 0 -0.102956 0 0 -0.0131176 0 0 0 0.00503562 
89 1 1 -0.0378706 0.00959867 0.111736 0 0 0 0 0 -0.102956 0 0 -0.0537298 0 0 0 0.00805699 
153 1 1 -0.0246441 0.00580828 0.103993 0 0 0 0 0 -0.102956 0 0 -0.0131176 0 0 0 0.00503562 
37 1 1 0.039228 0.00532663 0.111434 0 0 0 0 0 -0.102956 0 0 -0.0537298 0 0 0 0.00805699 
138 1 1 -0.0214365 0.0175001 0.111423 0 0 0 0 0 -0.102956 0 0 -0.0131176 0 0 0 0.00503562 
27 1 1 0.00953859 0.0150368 0.110006 0 0 0 0 0 -0.102956 0 0 -0.0537298 0 0 0 0.00805699 
270 1 1 -0.033568 0.0228847 0.10959 0 0 0 0 0 -0.102956 0 0 -0.0131176 0 0 0 0.00503562 
68 1 1 -0.0169434 0.0321367 0.106525 0 0 0 0 0 -0.102956 0 0 -0.0537298 0 0 0 0.00805699 
151 1 1 0.00156082 0.0326604 0.110704 0 0 0 0 0 -0.102956 0 0 -0.0131176 0 0 0 0.00503562 
12 1 1 0.0162332 0.0319286 0.110341 0 0 0 0 0 -0.102956 0 0 -0.0537298 0 0 0 0.00805699 
64 1 1 -0.0335074 0.0419242 0.103724 0 0 0 0 0 -0.102956 0 0 -0.0537298 0 0 0 0.00805699 
308 1 1 0.00373908 0.0427277 0.111053 0 0 0 0 0 -0.102956 0 0 -0.0131176 0 0 0 0.00503562 
302 1 1 0.0253015 0.0426858 0.105247 0 0 0 0 0 -0.102956 0 0 -0.0131176 0 0 0 0.00503562 
85 1 1 -0.033435 -0.0414988 0.118516 0 0 0 0 0 -0.102956 0 0 -0.0537298 0 0 0 0.00805699 
172 1 1 -0.00256696 -0.0428257 0.116766 0 0 0 0 0 -0.102956 0 0 -0.0131176 0 0 0 0.00503562 
213 1 1 0.0188587 -0.0424271 0.116978 0 0 0 0 0 -0.102956 0 0 -0.0131176 0 0 0 0.00503562 
226 1 1 0.0447704 -0.0435931 0.121059 0 0 0 0 0 -0.102956 0 0 -0.0131176 0 0 0 0.00503562 
212 1 1 -0.0112176 -0.0345138 0.113305 0 0 0 0 0 -0.102956 0 0 -0.0131176 0 0 0 0.00503562 
48 1 1 -0.0341121 -0.0228758 0.114429 0 0 0 0 0 -0.102956 0 0 -0.0537298 0 0 0 0.00805699 
235 1 1 -0.00167923 -0.0228936 0.114619 0 0 0 0 0 -0.102956 0 0 -0.0131176 0 0 0 0.00503562 
88 1 1 0.00755449 -0.0317052 0.119329 0 0 0 0 0 -0.102956 0 0 -0.0537298 0 0 0 0.00805699 
34 1 1 0.0407376 -0.0227746 0.114828 0 0 0 0 0 -0.102956 0 0 -0.0537298 0 0 0 0.00805699 
218 1 1 -0.0429649 -0.0114696 0.120844 0 0 0 0 0 -0.102956 0 0 -0.0131176 0 0 0 0.00503562 
29 1 1 0.0191169 -0.00148596 0.112647 0 0 0 0 0 -0.102956 0 0 -0.0537298 0 0 0 0.00805699 
70 1 1 -0.00755569 0.0114373 0.114475 0 0 0 0 0 -0.102956 0 0 -0.0537298 0 0 0 0.00805699 
166 1 1 0.0220212 0.0100631 0.121316 0 0 0 0 0 -0.102956 0 0 -0.0131176 0 0 0 0.00503562 
118 1 1 0.0329998 0.0279305 0.116082 0 0 0 0 0 -0.102956 0 0 -0.0537298 0 0 0 0.00805699 
241 1 1 -0.0406478 0.0329759 0.112873 0 0 0 0 0 -0.102956 0 0 -0.0131176 0 0 0 0.00503562 
216 1 1 0.0363801 0.0411094 0.113884 0 0 0 0 0 -0.102956 0 0 -0.0131176 0 0 0 0.00503562 
277 1 1 -0.0032809 -0.0420578 0.127458 0 0 0 0 0 -0.102956 0 0 -0.0131176 0 0 0 0.00503562 
251 1 1 0.0113559 -0.0419209 0.128382 0 0 0 0 0 -0.102956 0 0 -0.0131176 0 0 0 0.00503562 
234 1 1 -0.0417821 -0.0323476 0.124112 0 0 0 0 0 -0.102956 0 0 -0.0131176 0 0 0 0.00503562 
72 1 1 -0.0182864 -0.0400467 0.1266 0 0 0 0 0 -0.102956 0 0 -0.0537298 0 0 0 0.00805699 
221 1 1 0.019597 -0.0333351 0.129657 0 0 0 0 0 -0.102956 0 0 -0.0131176 0 0 0 0.00503562 
13 1 1 0.0326924 -0.0381369 0.124213 0 0 0 0 0 -0.102956 0 0 -0.0537298 0 0 0 0.00805699 
317 1 1 -0.00269714 -0.0307945 0.130651 0 0 0 0 0 -0.102956 0 0 -0.0131176 0 0 0 0.00503562 
86 1 1 -0.0143941 -0.0213819 0.126293 0 0 0 0 0 -0.102956 0 0 -0.0537298 0 0 0 0.00805699 
119 1 1 0.0242272 -0.0164258 0.124965 0 0 0 0.000177418 -0.000210002 -0.105869 0.000894659 -0.00105897 -0.068418 3.96786e-16 2.01145e-16 9.66629e-18 0.00805699 
228 1 1 0.0421657 -0.0213937 0.129643 0 0 0 0 0 -0.102956 0 0 -0.0131176 0 0 0 0.00503562 
8 1 1 0.00333723 -0.0112255 0.124275 0 0 0 0 0 -0.102956 0 0 -0.0537298 0 0 0 0.00805699 
293 1 1 0.0438862 -0.00462704 0.124373 0 0 0 0 0 -0.102956 0 0 -0.0131176 0 0 0 0.00503562 
14 1 1 -0.028143 0.000358946 0.123664 0 0 0 0 0 -0.102956 0 0 -0.0537298 0 0 0 0.00805699 
254 1 1 -0.0102221 -0.00250883 0.125711 0 0 0 0 0 -0.102956 0 0 -0.0131176 0 0 0 0.00503562 
159 1 1 0.0075506 0.00296492 0.12153 0 0 0 0 0 -0.102956 0 0 -0.0131176 0 0 0 0.00503562 
11 1 1 -0.0175455 0.0119971 0.128082 0 0 0 0 0 -0.102956 0 0 -0.0537298 0 0 0 0.00805699 
304 1 1 -0.0447004 0.0196663 0.121381 0 0 0 0 0 -0.102956 0 0 -0.0131176 0 0 0 0.00503562 
101 1 1 -0.0322411 0.0244323 0.124444 0 0 0 0 0 -0.102956 0 0 -0.0537298 0 0 0 0.00805699 
20 1 1 -0.00594818 0.0289304 0.12333 0 0 0 0 0 -0.102956 0 0 -0.0537298 0 0 0 0.00805699 
193 1 1 0.00834952 0.0303168 0.126597 0 0 0 0 0 -0.102956 0 0 -0.0131176 0 0 0 0.00503562 
141 1 1 0.0442093 0.0260507 0.124897 0 0 0 0 0 -0.102956 0 0 -0.0131176 0 0 0 0.00503562 
311 1 1 -0.0422837 0.0378434 0.125856 0 0 0 0 0 -0.102956 0 0 -0.0131176 0 0 0 0.00503562 
80 1 1 -0.0190435 0.0365763 0.130022 0 0 0 0 0 -0.102956 0 0 -0.0537298 0 0 0 0.00805699 
152 1 1 -0.00641736 0.04349 0.12947 0 0 0 0 0 -0.102956 0 0 -0.0131176 0 0 0 0.00503562 
132 1 1 0.0296034 0.0447215 0.124745 0 0 0 0 0 -0.102956 0 0 -0.0131176 0 0 0 0.00503562 
334 1 1 0.0404499 0.0413478 0.123498 0 0 0 0 0 -0.102956 0 0 -0.0131176 0 0 0 0.00503562 
214 1 1 -0.000228697 -0.0437174 0.137329 0 0 0 0 0 -0.102956 0 0 -0.0131176 0 0 0 0.00503562 
71 1 1 -0.0378852 -0.0366369 0.139708 0 0 0 0 0 -0.102956 0 0 -0.0537298 0 0 0 0.00805699 
210 1 1 0.0278375 -0.035459 0.136467 0 0 0 0 0 -0.102956 0 0 -0.0131176 0 0 0 0.00503562 
150 1 1 -0.0155847 -0.0312464 0.135976 0 0 0 0 0 -0.102956 0 0 -0.0131176 0 0 0 0.00503562 
31 1 1 -0.0333266 -0.019549 0.134101 0 0 0 0 0 -0.102956 0 0 -0.0537298 0 0 0 0.00805699 
244 1 1 -0.00304163 -0.0206736 0.133447 0 0 0 0 0 -0.102956 0 0 -0.0131176 0 0 0 0.00503562 