ITEM: TIMESTEP
7000
ITEM: NUMBER OF ATOMS
338
ITEM: BOX BOUNDS mm mm mm
-0.05 0.05
-0.05 0.05
0 0.15
ITEM: ATOMS id type type x y z ix iy iz vx vy vz fx fy fz omegax omegay omegaz radius 
131 1 1 -0.0280601 -0.0415548 0.00521919 0 0 0 -0.00366765 0.00452879 0.0023209 -0.000222121 -0.000859003 -0.002763 -0.799949 -0.703573 5.66121 0.00523677 
319 1 1 -0.0141107 -0.0444677 0.00522063 0 0 0 0.00827505 0.013109 0.0033764 2.91005e-06 4.60999e-06 0.00122073 -2.50731 1.58273 -1.87532 0.00523677 
260 1 1 0.022285 -0.0424742 0.00506034 0 0 0 0.0576205 -0.0464748 0.0296615 0.113788 0.0710101 0.00472187 8.6125 9.25355 -12.6782 0.00523677 
74 1 1 -0.0400148 -0.0355221 0.00830261 0 0 0 -0.0188917 -0.169971 -0.0287551 0.475599 -0.100605 -0.0466374 19.7482 -1.39294 1.31992 0.00837884 
296 1 1 -0.0236419 -0.0312613 0.0050592 0 0 0 0.0535991 -0.0190492 0.0167418 0.0449298 -0.0451114 -0.00626494 3.50454 9.38003 -6.09472 0.00523677 
243 1 1 -0.005741 -0.0379129 0.00522001 0 0 0 0.0945202 -0.0650695 0.0101478 -0.0151348 0.00484319 -0.015982 12.9339 17.9128 -6.5232 0.00523677 
60 1 1 0.00922267 -0.0355408 0.00821022 0 0 0 -0.0165476 -0.0443767 -0.0376103 0.0345449 0.28773 -0.504179 4.15288 -7.50178 2.54202 0.00837884 
78 1 1 0.0384741 -0.0398462 0.00828941 0 0 0 0.0713397 -0.163123 -0.000557649 -0.156446 -0.15432 -0.0685984 21.1678 9.73675 0.409644 0.00837884 
173 1 1 -0.0135612 -0.0282667 0.00519354 0 0 0 0.0309885 0.0210418 -0.018478 -0.0215066 -0.0263865 0.049089 -4.63182 6.64765 14.9285 0.00523677 
275 1 1 -0.00241704 -0.0285234 0.00842706 0 0 0 0.120728 -0.0263287 -0.109022 -0.176592 -0.0794283 0.0918947 -19.5998 24.0398 9.2924 0.00523677 
144 1 1 0.0426262 -0.0262637 0.00532487 0 0 0 0.0045252 -0.188484 -0.0751593 0 0 -0.0147533 36.5894 0.847679 -7.76297 0.00523677 
102 1 1 -0.041582 -0.0177657 0.00833816 0 0 0 0.0250177 -0.0937999 0.0160146 0.00118089 0.000167573 -0.0108966 11.2641 3.00739 -11.694 0.00837884 
328 1 1 -0.0269007 -0.0202082 0.00599443 0 0 0 0 0 -0.0521143 0 0 -0.0147533 0 0 0 0.00523677 
40 1 1 -0.00883426 -0.0159427 0.00838789 0 0 0 0.00559494 0.0147089 0.00877205 0.0446678 -0.00098125 -0.0845873 -1.84475 -0.070076 -17.0828 0.00837884 
279 1 1 0.00428868 -0.0151262 0.00513872 0 0 0 0.0120448 -0.0632888 0.0123002 -0.0101642 0.0229595 -0.0639792 13.688 0.599611 8.84829 0.00523677 
267 1 1 0.0154086 -0.0183968 0.00508007 0 0 0 0.0340889 0.115594 -0.068072 -0.00356895 0.0169659 0.713071 -18.3388 7.32889 -8.39461 0.00523677 
274 1 1 -0.0191775 -0.00739607 0.00522126 0 0 0 -0.109102 -0.130813 0.000701995 0.00618511 0.00636391 0.00299549 -4.36085 7.68778 -1.88266 0.00523677 
50 1 1 0.0271853 -0.00973422 0.00839083 0 0 0 0.00524557 -0.0816231 -0.0023097 0.300483 0.043974 0.143113 -9.32432 -0.0911813 0.78313 0.00837884 
202 1 1 0.0438848 -0.0138332 0.00518671 0 0 0 0.00661395 -0.0966346 -0.0120028 -0.00963475 0.00257154 0.0166121 18.4347 0.702948 6.67719 0.00523677 
257 1 1 -0.0448039 -0.000338728 0.00593033 0 0 0 -0.181567 -0.00607105 0.0195838 0.266477 0.22964 0.271445 2.07992 -31.2286 22.3802 0.00523677 
171 1 1 -0.0249732 0.0019193 0.00500228 0 0 0 -0.0484978 -0.0385381 0.0221834 0.00785612 0.0667582 0.0788646 8.77501 -11.4946 19.4735 0.00523677 
17 1 1 -0.00927062 0.0015394 0.00833376 0 0 0 0.0137584 -0.201374 0.0161189 -0.0126073 -0.00646531 0.00406851 25.2886 1.58233 -13.6534 0.00837884 
96 1 1 0.0115153 -0.00414786 0.00824335 0 0 0 0.0161691 -0.0441308 0.0258039 0.110362 0.0392466 0.182486 5.59966 3.89144 -5.08795 0.00837884 
94 1 1 0.0368469 0.00379134 0.00826759 0 0 0 0.0220994 -0.0828872 -0.00109352 0.239988 0.113645 -0.16624 8.65111 1.95816 -3.91369 0.00837884 
268 1 1 -0.0305393 0.0110732 0.00696243 0 0 0 -0.0536322 -0.046234 -0.17396 -0.0378399 -0.0361402 0.000324278 10.4238 -26.081 -13.7026 0.00523677 
98 1 1 0.0123652 0.0132188 0.0084219 0 0 0 0.029814 0.109743 0.0511374 -0.0214689 0.0022516 -0.0722194 -13.0202 3.92374 1.02631 0.00837884 
232 1 1 -0.0403269 0.0145312 0.00508463 0 0 0 -0.0266678 -0.0078989 0.00485473 -0.021755 0.0201206 -0.0077706 3.38505 -5.83143 -88.7493 0.00523677 
297 1 1 -0.0243515 0.0192791 0.00513241 0 0 0 -0.0605347 -0.0190661 -0.00105593 -0.0406251 0.044363 -0.0382403 3.24337 -12.0899 22.273 0.00523677 
222 1 1 -0.0126852 0.0197073 0.00508201 0 0 0 -0.0668868 -0.0281527 -0.0246015 -0.0411708 0.0445929 -0.0509621 3.43002 -14.7321 1.10481 0.00523677 
290 1 1 -0.0010617 0.0135528 0.00522622 0 0 0 0.00807043 -0.129562 0.0174939 -0.00241565 -0.00236118 -0.0143885 24.8459 1.62513 31.8164 0.00523677 
316 1 1 0.0299812 0.0168695 0.00522062 0 0 0 0.00260027 -0.000137418 0.00337585 9.14203e-07 -4.83134e-08 0.00123142 0.0262834 0.497343 1.29547 0.00523677 
162 1 1 0.0448827 0.0141986 0.00507363 0 0 0 -0.0194867 -0.0324077 -0.0198814 0.0762188 -0.0214038 0.105486 6.603 -4.8695 4.89594 0.00523677 
294 1 1 -0.0448346 0.0276016 0.00696562 0 0 0 -0.0214478 -0.0238175 -0.0995799 -0.0983485 -0.0531991 0.0242261 60.9893 18.5849 -3.39254 0.00523677 
324 1 1 -0.00896185 0.0303124 0.00522017 0 0 0 0.0450323 -0.108937 0.00371063 1.66917e-05 -4.03784e-05 0.00167387 20.8373 8.61373 6.07184 0.00523677 
161 1 1 0.0037985 0.0285444 0.00523951 0 0 0 0.0151873 0.113566 0.00563368 0 0 -0.0147533 -21.7115 2.90347 0.872205 0.00523677 
77 1 1 0.0197369 0.030925 0.00814671 0 0 0 0.134474 0.0300749 0.0207216 -0.00832771 -0.180167 -0.0585864 -2.3931 20.8158 9.84956 0.00837884 
155 1 1 0.0326932 0.0283932 0.0052392 0 0 0 0.128916 -0.0663499 -0.106861 0.143276 -0.105226 0.0518744 2.02759 -26.2683 -42.9069 0.00523677 
175 1 1 -0.0356822 0.0320578 0.0051115 0 0 0 -0.0274154 -0.0276284 0.0343298 -0.0230597 0.0225327 -0.0127338 8.05285 -11.4007 -6.35242 0.00523677 
255 1 1 -0.0231743 0.0328945 0.00519891 0 0 0 -0.0459022 -0.0708848 0.00952435 -0.00569735 -0.0017548 -0.0173244 13.7601 -8.95458 -1.62673 0.00523677 
289 1 1 0.0439427 0.0364618 0.00511637 0 0 0 0.00155025 -0.0926283 0.0213935 0.0493347 -0.0120676 0.0130132 18.1494 2.0557 22.8061 0.00523677 
321 1 1 -0.0447697 0.0434911 0.00521994 0 0 0 0.00471098 0 0.00391248 0.000416288 0 -0.00535767 0 1.06993 0 0.00523677 
207 1 1 -0.034013 0.042938 0.00521291 0 0 0 0 0 0.00138247 0 0 0.0189408 0 0 0 0.00523677 
149 1 1 0.00383759 0.0420945 0.00540758 0 0 0 -0.0258866 0.067577 -0.0904342 0 0 -0.0147533 -15.3192 -5.86829 2.70625e-14 0.00523677 
249 1 1 0.0264371 0.0421493 0.00504497 0 0 0 0.034314 0.0546832 -0.0360212 -0.0256248 -0.034546 -0.0212837 11.9413 10.0855 -3.58962 0.00523677 
299 1 1 -0.027651 -0.0447714 0.0151632 0 0 0 0.00152509 -0.00357844 0.00613113 -0.00175528 0.0099525 0.00104609 2.07133 -0.0512684 -0.206807 0.00523677 
130 1 1 0.0172662 -0.0448843 0.013668 0 0 0 0.0281558 -0.00784298 0.0475844 -0.0681346 -0.0989187 -0.121585 -4.18901 -3.93047 -5.33942 0.00523677 
179 1 1 -0.0343788 -0.0260481 0.0163996 0 0 0 -0.0153184 -0.175462 -0.0291951 -0.0306544 -0.16007 -0.00881694 -53.7242 44.1343 -45.697 0.00523677 
7 1 1 -0.018561 -0.0310746 0.0174648 0 0 0 0.180835 -0.129522 0.000953152 -0.161889 -0.297369 0.134461 15.9862 10.4413 11.4676 0.00837884 
67 1 1 0.0248216 -0.030946 0.0118829 0 0 0 0.0477913 -0.0855169 -0.148492 -0.26148 -0.168206 0.517067 -26.4113 -8.77238 -19.0302 0.00837884 
278 1 1 0.0310563 -0.0198572 0.0163746 0 0 0 0.0423286 -0.102312 -0.0446757 -0.10124 -0.213083 -0.198935 46.9258 -18.125 17.2363 0.00523677 
146 1 1 -0.044663 -0.00608423 0.0170348 0 0 0 0.0147399 0.119628 -0.115705 0 0 -0.0147533 -75.442 -5.81307 16.8164 0.00523677 
19 1 1 -0.0288125 -0.0114664 0.0172684 0 0 0 0.0874505 -0.0791687 -0.11464 0.0301292 -0.0575604 0.0728139 20.8093 1.6138 28.6248 0.00837884 
310 1 1 -0.0153539 -0.0101258 0.0188129 0 0 0 0.0768252 0.152406 -0.0199781 -0.0515444 0.000320034 -0.0323901 -20.3086 -1.32531 13.3654 0.00523677 
160 1 1 -0.00144887 -0.00742776 0.0160393 0 0 0 0.129009 0.172821 -0.238388 -0.0194566 0.0227051 -0.0962079 -48.8429 15.0131 9.49348 0.00523677 
183 1 1 0.039216 -0.0135846 0.0144959 0 0 0 0.0127066 0.0616675 -0.0121482 -0.0212927 -0.0198137 0.0474124 -48.6412 2.25047 -16.2339 0.00523677 
112 1 1 -0.0227893 0.00400954 0.0180146 0 0 0 -0.0575687 0.0222536 0.0369709 0.10467 0.344102 0.520938 -12.5829 8.70314 -4.44142 0.00837884 
25 1 1 -0.0407736 0.00731844 0.0164239 0 0 0 -0.231371 0.0825517 0.0279634 0.177783 0.112846 0.122481 -10.9889 21.0977 -17.7738 0.00837884 
164 1 1 0.0250948 0.00971771 0.0115822 0 0 0 0.0518556 0.0408817 0.0343594 0.0074741 0.022815 0.00985232 -9.22078 3.76647 -20.4831 0.00523677 
273 1 1 -0.0382079 0.0215965 0.0128067 0 0 0 0.100239 0.131718 -0.107892 0 0 -0.0147533 -62.6482 -36.929 4.24211 0.00523677 
28 1 1 -0.018446 0.0207234 0.017171 0 0 0 -0.00654831 0.00161222 -0.031853 -0.113133 0.144166 -0.281651 0.168238 15.6731 -7.2491 0.00837884 
286 1 1 -0.00471919 0.0125168 0.0149836 0 0 0 0.0390394 -0.212691 0.0444279 0.00322478 0.00158129 -0.0218107 -28.4983 0.443259 22.5669 0.00523677 
284 1 1 0.0304878 0.0182995 0.0158073 0 0 0 0.160953 0.0742344 -0.374181 0 0 -0.0147533 -11.5017 23.5268 -18.2716 0.00523677 
261 1 1 0.0428535 0.0138072 0.015126 0 0 0 0.085972 -0.0953818 -0.0142758 0.00182807 -0.033331 -0.00121563 1.74233 26.3996 13.5224 0.00523677 
23 1 1 -0.0302617 0.0324161 0.0174337 0 0 0 0.00258837 0.0370846 0.0613684 -0.00989516 0.148286 -0.282104 -14.0069 12.6059 6.20303 0.00837884 
16 1 1 0.00675509 0.0357791 0.0174511 0 0 0 0.0038256 0.169129 -0.127889 0.0105795 -0.0668967 0.0088678 10.5857 -11.4924 23.2935 0.00837884 
61 1 1 0.0346448 0.0378411 0.0147686 0 0 0 -0.0985045 -0.0905026 -0.0333739 0.348105 0.190492 0.307849 -0.957974 -17.2792 -24.8592 0.00837884 
38 1 1 -0.0168095 0.0416134 0.0134225 0 0 0 0.00506752 -0.00243269 -0.0849368 -0.00242261 0.0925713 -0.321724 6.10797 -0.727441 -0.846658 0.00837884 
239 1 1 0.0185926 0.0443057 0.0129885 0 0 0 -0.169358 0.195442 -0.134392 0 0 -0.0147533 -46.8793 -44.9173 -2.99265 0.00523677 
331 1 1 -0.0420726 -0.0431647 0.0211667 0 0 0 0.0302991 -0.270391 -0.49437 0.00182178 -0.00584417 -0.0112612 71.885 23.4161 21.0477 0.00523677 
180 1 1 -0.0449081 -0.0331582 0.0205897 0 0 0 0.0301322 -0.138062 0.0363897 0.0481352 0.141378 0.0944603 -47.1292 11.3368 -25.7327 0.00523677 
104 1 1 -0.000322859 -0.0324915 0.021387 0 0 0 -0.0634692 -0.0828721 -0.138209 -0.384764 0.139744 -0.0145278 9.666 -5.82605 -12.568 0.00837884 
167 1 1 0.0230536 -0.041206 0.0213744 0 0 0 0.172402 0.0284028 -0.0262542 -0.168741 -0.149904 0.116504 9.15083 37.8967 18.1294 0.00523677 
271 1 1 0.0303957 -0.0326811 0.0240242 0 0 0 0.0535494 -0.0414721 -0.0859954 -0.0885786 -0.00501438 0.0876233 7.5437 25.9858 -17.6893 0.00523677 
136 1 1 0.0395149 -0.0409522 0.0227388 0 0 0 -0.0368371 -0.19928 -0.36451 0 0 -0.0147533 57.9829 -5.78651 3.48867 0.00523677 
128 1 1 -0.0447532 -0.023246 0.0239015 0 0 0 0.0127845 -0.00825275 -0.311462 -0.0115682 -0.0064094 -0.0273972 -37.0923 38.2444 7.71873 0.00523677 
120 1 1 0.0418006 -0.0275898 0.0191669 0 0 0 0.0454792 -0.0562197 -0.0883432 -0.0986293 0.0520426 0.163786 -3.08699 -13.3856 8.50387 0.00837884 
178 1 1 -0.0113983 -0.0201017 0.0210646 0 0 0 -0.0143698 0.0618983 0.026964 -0.019288 -0.0297565 0.0129215 -5.27723 -3.63591 19.3114 0.00523677 
258 1 1 -0.00143344 -0.0191781 0.0240413 0 0 0 0.141551 0.0463612 -0.328626 -0.0428584 0.0360005 0.0154568 -54.8007 50.9473 1.87131 0.00523677 
51 1 1 0.0129603 -0.0207292 0.0182866 0 0 0 -0.0464607 -0.0382217 -0.28549 0 0 -0.0604295 40.0886 -8.5252 -17.2023 0.00837884 
134 1 1 0.0445225 -0.0144052 0.023435 0 0 0 0.0514034 0.0149933 0.0096066 -0.00783512 -0.0107047 0.0250662 52.274 -1.03138 -0.227486 0.00523677 
336 1 1 -0.019843 -0.00552699 0.0272294 0 0 0 -0.0181262 0.0181838 -0.0230334 0.0466456 -0.0342074 0.0395052 4.38387 39.4087 6.76922 0.00523677 
245 1 1 0.00511801 -0.0104165 0.0235841 0 0 0 0.105707 0.111509 -0.304098 -0.0289955 0.0230479 0.0979634 41.7312 -56.1719 -41.8356 0.00523677 
18 1 1 0.0177094 -0.00555614 0.023604 0 0 0 0.124387 -0.102462 0.0229917 0.230987 0.0304828 0.109564 -1.47293 6.1208 -0.986327 0.00837884 
184 1 1 0.030421 -0.0097615 0.0215851 0 0 0 0.147472 -0.0659773 -0.0544798 -0.27808 0.365005 -0.0321659 12.1814 -7.14733 24.7771 0.00523677 
55 1 1 0.0408048 -0.00130519 0.0236701 0 0 0 0.142104 -0.0128643 0.0146483 -0.175547 -0.163295 -0.0813603 -18.9161 -3.06466 -12.0757 0.00837884 
300 1 1 -0.0429055 0.0209476 0.0222299 0 0 0 -0.138399 0.0818025 -0.180428 0.0142389 0.0206522 -0.0368774 58.3148 -8.39423 13.7559 0.00523677 
320 1 1 -0.0054266 0.021581 0.0202442 0 0 0 0.0896205 -0.0415889 -0.218146 0.0207606 0.00236302 -0.0836098 -27.4489 13.9409 -0.738834 0.00523677 
58 1 1 0.0408923 0.0181221 0.0276639 0 0 0 0.18813 -0.0725732 -0.00941681 0.0186527 -0.273842 -0.0906377 -4.81072 -5.60191 -15.887 0.00837884 
305 1 1 -0.0442418 0.0313188 0.0177369 0 0 0 -0.109113 0.233057 -0.169881 0 0 -0.0147533 -14.7867 -47.9634 -6.10969 0.00523677 
108 1 1 0.0186709 0.0229411 0.0224721 0 0 0 0.225809 -0.138332 -0.0542139 -0.216349 -0.263136 0.0960768 27.9374 -11.9108 -5.64336 0.00837884 
69 1 1 -0.0103525 0.0328714 0.0260824 0 0 0 0.151517 0.0454664 -0.202227 0.139691 0.178063 -0.893731 -5.47075 11.6863 11.4763 0.00837884 
237 1 1 -0.00389231 0.0442663 0.0196625 0 0 0 -0.136451 0.0935092 -0.421742 0 0 -0.0147533 -53.0623 -48.4544 -9.88001 0.00523677 
225 1 1 -0.00014785 -0.0447967 0.0269225 0 0 0 -0.134714 -0.112508 -0.264757 0.0380414 -0.0789489 0.186586 9.68626 43.6922 -10.0432 0.00523677 
242 1 1 0.0120288 -0.0447601 0.0294041 0 0 0 0.0340761 0.00537851 -0.384817 0 0 -0.0147533 -52.774 14.7507 -14.6619 0.00523677 
256 1 1 -0.0290734 -0.0393725 0.0267368 0 0 0 -0.0139333 -0.00648974 -0.674505 0 0 -0.0147533 5.07962 -3.78794 3.94522 0.00523677 
42 1 1 -0.0124203 -0.0385627 0.0310225 0 0 0 0.146057 -0.323206 -0.0301665 -0.110425 -0.127229 0.00387922 19.0692 -14.2246 16.8581 0.00837884 
93 1 1 -0.028528 -0.023771 0.0284437 0 0 0 0.0228528 -0.0558828 -0.0581468 -0.146362 -0.158016 0.145915 -22.2879 -28.1482 -10.2219 0.00837884 
191 1 1 0.00903773 -0.0275082 0.0295047 0 0 0 0.162895 -0.114737 -0.26576 0.0210103 -0.0507312 0.0193754 -27.0631 50.1465 -5.74096 0.00523677 
105 1 1 0.0365776 -0.0259212 0.0349936 0 0 0 0.0920436 0.0996453 -0.0893591 -0.0324952 0.0369812 -0.0688081 -29.9663 18.5982 19.0066 0.00837884 
24 1 1 -0.00664438 -0.00796749 0.0297168 0 0 0 0.0944095 0.147464 -0.37053 -0.320851 -0.0874937 0.0124834 -2.98522 17.831 5.63388 0.00837884 
259 1 1 0.0315228 -0.00966511 0.0319358 0 0 0 0.067971 0.0680145 -0.227415 -0.36576 -0.374559 -0.797656 -2.92763 35.9632 -16.3339 0.00523677 
107 1 1 -0.0399893 0.00111007 0.0318734 0 0 0 -0.0704165 0.102031 -0.0613245 -0.137935 -0.0283485 0.373738 31.4774 -8.84019 -0.432826 0.00837884 
133 1 1 -0.0264089 -3.7426e-05 0.0334774 0 0 0 -0.0116846 0.139213 0.0245081 0 0 -0.0147533 -48.4626 2.81056 8.18128 0.00523677 
4 1 1 -0.010839 0.0104127 0.0277866 0 0 0 0.233566 0.112597 -0.259882 -0.00564315 -0.360981 0.401867 -9.67676 39.074 1.0993 0.00837884 
100 1 1 0.010582 0.00913851 0.0271502 0 0 0 -0.0166719 -0.0265404 -0.334694 0.281522 -0.476011 0.301078 -22.7317 -21.8221 0.616631 0.00837884 
95 1 1 0.0274992 0.00815397 0.0270839 0 0 0 0.0391098 0.0335561 -0.317053 -0.0403938 0.0808842 0.00877166 -17.0452 -20.2878 15.3067 0.00837884 
318 1 1 0.0447757 0.00678549 0.0338431 0 0 0 0.0548675 -0.135043 0.111627 0.092572 -0.165379 0.0349615 -1.22727 0.894061 5.1896 0.00523677 
2 1 1 -0.0308966 0.0159534 0.0271273 0 0 0 -0.091478 0.0689516 -0.129904 0.211403 -0.088532 -0.815662 0.722898 -22.585 -8.54415 0.00837884 
246 1 1 -0.0418785 0.0244162 0.0320448 0 0 0 -0.0441658 0.0695306 -0.189753 -0.0142389 -0.0206522 0.00737085 -47.541 24.8622 -7.76911 0.00523677 
192 1 1 -0.0230208 0.027592 0.0278942 0 0 0 0.0264549 0.293405 -0.0926612 -0.027966 0.0616626 0.264173 -52.8731 -23.2004 -8.12465 0.00523677 
73 1 1 0.00379091 0.0245383 0.029517 0 0 0 0.143953 -0.0713372 -0.199622 -0.0380348 -0.169707 0.118457 4.81318 -11.483 -18.8996 0.00837884 
9 1 1 -0.0346485 0.0393026 0.0319608 0 0 0 -0.0899255 0.137083 -0.0233149 0.030117 -0.533053 -0.185986 -1.69639 -20.1639 6.34741 0.00837884 
47 1 1 0.0235023 0.0347187 0.033046 0 0 0 0.0956904 -0.0704739 -0.0331394 0.0802118 -0.243985 0.499124 -31.6486 10.5947 28.7334 0.00837884 
114 1 1 0.0383439 0.0417028 0.0304771 0 0 0 0.0393471 -0.0684317 -0.0430661 0.166777 0.223223 0.269232 -0.553091 26.0677 -4.40954 0.00837884 
323 1 1 -0.016387 0.0447708 0.0287523 0 0 0 0.00244048 -0.0192978 -0.0943431 0.00737564 -0.000691279 -0.0223198 17.612 -42.2592 0.320225 0.00523677 
248 1 1 0.00409611 0.0433263 0.0290697 0 0 0 0 0 -0.686651 0 0 -0.0147533 0 0 0 0.00523677 
168 1 1 0.00150471 -0.0415428 0.0366641 0 0 0 0.166517 -0.0683997 -0.30686 0.0175986 -0.00459179 0.0974861 -21.0489 14.7657 1.76272 0.00523677 
224 1 1 -0.0365725 -0.0379816 0.0411713 0 0 0 0.00501987 -0.00163162 -0.686191 0 0 -0.0147533 0.804669 2.39802 -0.287052 0.00523677 
314 1 1 -0.0181 -0.0440321 0.0420577 0 0 0 -0.0357753 -0.486858 -0.149874 -0.0214163 -0.0222556 0.00574153 2.49682 -18.6219 -19.1436 0.00523677 
3 1 1 0.0219432 -0.0362135 0.0338673 0 0 0 -0.0272251 0.0420801 -0.0633888 -0.0714855 0.0445062 0.478187 -14.7332 -27.4547 5.66434 0.00837884 
125 1 1 0.0356207 -0.0401592 0.0346365 0 0 0 0.0176611 -0.0782111 -0.593308 0 0 -0.0147533 33.9271 -2.60661 -8.61273 0.00523677 
211 1 1 -0.042106 -0.0275565 0.0416153 0 0 0 0.00823023 -0.199122 -0.538718 0 0 -0.0147533 3.81382 -9.64559 -8.50968 0.00523677 
329 1 1 -0.023497 -0.0326319 0.0393453 0 0 0 -0.00736939 -0.117821 -0.0285189 0 0 -0.0147533 52.6702 13.6265 -48.4774 0.00523677 
43 1 1 -0.00204621 -0.0260757 0.0377135 0 0 0 -0.080467 0.0247864 -0.443872 0 0 -0.0604295 -0.569126 -19.6058 3.36556 0.00837884 
66 1 1 -0.0415032 -0.0153047 0.034435 0 0 0 -0.113002 0.0982315 -0.337565 -0.22611 -0.126401 -0.100058 1.04151 -12.4168 0.928846 0.00837884 
81 1 1 -0.0183771 -0.0159375 0.0389302 0 0 0 0.278632 0.0756258 -0.305034 0.087563 0.0689243 0.0540107 -7.79405 32.1567 5.83626 0.00837884 
52 1 1 0.0157357 -0.0182994 0.036499 0 0 0 0.224775 0.0565677 -0.476615 0.398701 0.276971 0.279853 -3.81199 -2.67847 18.9997 0.00837884 
332 1 1 0.0289342 -0.0158814 0.0401348 0 0 0 -0.0983907 -0.0242129 -0.174105 0 0 -0.0147533 9.64069 -17.0069 13.2908 0.00523677 
5 1 1 0.041369 -0.0102262 0.0410437 0 0 0 0.0238539 0.00602876 -0.629412 0.46753 0.0874723 0.822705 0.96197 8.84764 -1.37159 0.00837884 
10 1 1 0.0111715 -0.00248717 0.0392438 0 0 0 -0.0646264 -0.0663945 -0.424239 0.120942 0.248448 0.0989442 13.4982 8.41048 13.1333 0.00837884 
303 1 1 0.0309455 0.00249999 0.0393445 0 0 0 -0.0101636 -0.199231 -0.519169 0.0331846 0.0167741 -0.0557121 32.2291 -4.69839 4.49553 0.00523677 
208 1 1 -0.0398553 0.0141527 0.0369931 0 0 0 -0.210524 0.252226 -0.270256 0.0389761 -0.613954 -0.430416 -34.7472 4.46009 8.62481 0.00523677 
236 1 1 -0.0184164 0.0105659 0.0393612 0 0 0 0.0345705 -0.0234704 -0.646432 0.0357834 0.00533724 0.0510697 13.925 8.95171 -6.77339 0.00523677 
115 1 1 0.00224191 0.0127688 0.0412013 0 0 0 -0.0565131 -0.182223 -0.296386 -0.179802 0.234946 -0.014719 5.8078 0.407891 -8.96748 0.00837884 
298 1 1 0.0351565 0.0120346 0.0384195 0 0 0 -0.08875 -0.0233507 -0.18262 -0.226558 0.172295 -0.480903 53.6818 11.6121 23.7636 0.00523677 
282 1 1 -0.0243425 0.0191337 0.0384548 0 0 0 0.0878074 0.0360079 -0.310275 -0.120151 0.00572792 0.354767 -8.99271 63.6787 -3.68899 0.00523677 
15 1 1 0.0195882 0.0154482 0.0398706 0 0 0 -0.0135274 0.144607 -0.349569 0.000538482 -0.0033602 -0.0694509 -3.59554 18.0391 -5.40579 0.00837884 
262 1 1 -0.0274058 0.0291533 0.037362 0 0 0 -0.07045 -0.0158347 -0.358626 0.0195962 -0.0235003 0.0214177 9.94745 58.0914 -27.1085 0.00523677 
292 1 1 -0.0139113 0.0313014 0.0388747 0 0 0 0.0357614 0.038004 -0.398618 -0.0767203 -0.0347954 0.123795 7.98016 -54.5434 -4.50245 0.00523677 
106 1 1 0.0367946 0.0278375 0.0403783 0 0 0 0.215709 -0.0299143 -0.0251341 0.0651629 -0.279742 0.461727 12.1207 -19.3454 -21.0744 0.00837884 
99 1 1 0.000276273 0.0343255 0.042517 0 0 0 -0.00169941 0.0481431 -0.278299 -0.268152 0.0421583 -0.0948883 -12.6536 -33.2488 -12.0837 0.00837884 
327 1 1 -0.0386587 0.0449053 0.0435193 0 0 0 -0.154356 -0.0263371 -0.047121 -0.0610458 0.142291 0.107116 22.2745 7.3035 -26.8627 0.00523677 
126 1 1 -0.0147292 0.0439872 0.0409584 0 0 0 0.00554504 0.00277218 -0.691023 0.00129664 0.000661539 -0.0156898 0.0827295 -0.135936 0.0187433 0.00523677 
229 1 1 0.0164106 0.044854 0.0384455 0 0 0 -0.076734 -0.0495909 -0.168449 -0.0743831 0.00593575 0.0449705 30.2743 -40.6335 -17.546 0.00523677 
203 1 1 0.0444372 0.0436118 0.0430751 0 0 0 -0.0419846 -0.0779842 -0.134332 0 0 -0.0147533 4.44705 -9.04193 15.0476 0.00523677 
337 1 1 -0.00821532 -0.0329812 0.0480641 0 0 0 -0.0190308 -0.243929 -0.460324 0.0414813 -0.0802968 -0.0126153 26.6604 20.9323 8.46371 0.00523677 
283 1 1 0.0344894 -0.0364612 0.0448873 0 0 0 0 0 -0.686651 0 0 -0.0147533 0 0 0 0.00523677 
307 1 1 -0.0133969 -0.0239994 0.0486172 0 0 0 0.14944 -0.0506721 -0.28402 0.0525216 -0.0180988 -0.0478267 24.6326 -36.8036 -58.3875 0.00523677 
91 1 1 0.0238395 -0.0295294 0.050268 0 0 0 0 0 -0.686651 0 0 -0.0604295 0 0 0 0.00837884 
326 1 1 0.0428617 -0.0238533 0.0477429 0 0 0 0 0 -0.686651 0 0 -0.0147533 0 0 0 0.00523677 
36 1 1 -0.0375628 -0.0155982 0.050619 0 0 0 -0.0210681 0.0537731 -0.276008 -0.414657 0.23929 -0.435954 6.61953 24.1091 -1.46382 0.00837884 
26 1 1 -6.62862e-05 -0.0140715 0.050581 0 0 0 0 0 -0.686651 0 0 -0.0604295 0 0 0 0.00837884 
182 1 1 -0.0242841 -0.0109268 0.0498983 0 0 0 0.0436287 0.0666773 -0.350167 -0.00400329 -0.0774245 -0.0439305 2.32312 -85.8924 30.5784 0.00523677 
197 1 1 -0.0147532 -0.00432835 0.0457134 0 0 0 0.209758 0.376608 -0.373508 0 0 -0.0147533 -24.1106 -11.6452 29.4956 0.00523677 
240 1 1 0.0237608 -0.00251295 0.0449867 0 0 0 -0.0637002 -0.250945 -0.445307 -6.3781e-05 0.0194559 -0.00717989 -29.3429 15.3917 -11.6427 0.00523677 
32 1 1 -0.0357183 0.00649898 0.0473108 0 0 0 0.0098322 -0.00284488 -0.635273 0.0674356 -0.0849941 0.378692 7.82636 2.29681 -1.35701 0.00837884 
57 1 1 -0.0110442 0.0106684 0.0510836 0 0 0 -0.236554 -0.0914393 -0.403893 -0.00479167 0.00114884 -0.0587754 -6.58837 -24.7346 -8.16143 0.00837884 
291 1 1 0.0418752 0.00848537 0.0454248 0 0 0 0.00982105 -0.0547609 -0.539004 0.193437 -0.208525 0.484782 6.1865 42.0176 15.1542 0.00523677 
199 1 1 -0.0443543 0.0219624 0.0419651 0 0 0 -0.0719362 0.12181 -0.595874 -0.413784 0.630051 0.47564 -4.50804 -2.22899 -0.588144 0.00523677 
335 1 1 -0.0280015 0.0222237 0.0476247 0 0 0 -0.00946688 0.11899 -0.264482 0.0241696 0.0811733 0.195971 -9.44088 -65.7886 18.3685 0.00523677 
117 1 1 -0.0120232 0.0274522 0.0515316 0 0 0 -0.152932 -0.0499713 -0.442454 -0.100323 0.0163792 0.130258 6.72432 6.27034 5.77072 0.00837884 
127 1 1 0.0341841 0.0263594 0.0537355 0 0 0 -0.136028 -0.0684127 -0.0426269 0.147715 0.22011 -0.208489 38.2904 -9.52305 7.11067 0.00523677 
122 1 1 -0.0249228 0.0387886 0.0483174 0 0 0 -0.00056748 -0.000831121 -0.685799 -0.00129664 -0.000661539 -0.059493 0.0455806 0.209969 -0.042499 0.00837884 
76 1 1 0.0310204 0.0418591 0.0467791 0 0 0 0.0677139 -0.0177493 -0.0421731 -0.0640635 -0.201935 0.170711 5.84787 -43.4842 10.2815 0.00837884 
158 1 1 0.00693778 0.0448577 0.0477676 0 0 0 -0.0705568 0.0520796 -0.220788 0.0268003 -0.115074 0.0666325 48.3095 30.8545 -20.3383 0.00523677 
84 1 1 -0.0405113 -0.0356228 0.0557848 0 0 0 -0.137181 0.0114104 -0.594504 0 0 -0.0604295 -1.96835 -12.8867 -2.08211 0.00837884 
6 1 1 -0.0239033 -0.0406055 0.053848 0 0 0 -0.123898 -0.162627 -0.241383 0.243799 -0.0218339 -0.999589 -30.3415 -4.06293 -17.3575 0.00837884 
56 1 1 0.00625104 -0.0388468 0.052581 0 0 0 0 0 -0.686651 0 0 -0.0604295 0 0 0 0.00837884 
49 1 1 0.0375297 -0.0383468 0.0592536 0 0 0 0 0 -0.686651 0 0 -0.0604295 0 0 0 0.00837884 
75 1 1 -0.0272017 -0.023454 0.060999 0 0 0 -0.0237464 0.0876311 -0.497072 0.477635 -0.258876 0.444071 -10.5494 1.16468 -7.86844 0.00837884 
137 1 1 -0.00363123 -0.0300467 0.0596569 0 0 0 0 0 -0.686651 0 0 -0.0147533 0 0 0 0.00523677 
204 1 1 -0.0107942 -0.0174805 0.0584626 0 0 0 0 0 -0.686651 0 0 -0.0147533 0 0 0 0.00523677 
215 1 1 0.0295226 -0.0144583 0.0508663 0 0 0 0 0 -0.686651 0 0 -0.0147533 0 0 0 0.00523677 
217 1 1 0.0396926 -0.0140263 0.0550599 0 0 0 0.00250742 -0.00206984 -0.683267 0.00427118 0.000651583 -0.00627318 1.38258 0.46225 -0.746575 0.00523677 
145 1 1 -0.0312093 -0.00955888 0.0610153 0 0 0 0.0942888 0.22472 -0.399581 -0.00444089 -0.0148472 -0.0216495 -35.5128 -2.06782 22.2305 0.00523677 
276 1 1 0.014428 -0.00937105 0.0520129 0 0 0 0 0 -0.686651 0 0 -0.0147533 0 0 0 0.00523677 
53 1 1 -0.0212025 -0.000708995 0.0580296 0 0 0 -0.0676224 0.192599 -0.387879 -0.305515 -0.331154 0.0936222 -20.8357 26.6859 -22.4183 0.00837884 
87 1 1 0.0347104 -0.00144672 0.053631 0 0 0 0.0020125 0.00685259 -0.674265 0.0954617 0.0148248 0.0832049 -0.429578 -2.08458 1.0492 0.00837884 
233 1 1 0.0029995 0.0126384 0.0547086 0 0 0 -0.0111218 -0.0751602 -0.342424 -0.0148629 -0.150087 -0.284808 -13.6648 13.9488 2.61593 0.00523677 
45 1 1 0.0303986 0.0145403 0.0592016 0 0 0 -0.050279 -0.097964 -0.501984 -0.147715 -0.22011 0.133306 19.4007 -7.30283 1.66681 0.00837884 
250 1 1 -0.0231747 0.0281669 0.0592851 0 0 0 -0.230749 -0.0170926 -0.513674 0.00835471 -0.00106931 -0.0159971 -8.90572 -3.86685 -12.2634 0.00523677 
140 1 1 0.0108541 0.0242341 0.0555793 0 0 0 0 0 -0.686651 0 0 -0.0147533 0 0 0 0.00523677 
322 1 1 0.04467 0.0239861 0.0542999 0 0 0 -0.0202808 0.0670133 -0.58564 0 0 -0.0147533 15.4672 -0.709261 -8.69394 0.00523677 
39 1 1 -0.0393506 0.0352058 0.0562953 0 0 0 0 0 -0.686651 0 0 -0.0604295 0 0 0 0.00837884 
315 1 1 -0.000770363 0.0409358 0.0543393 0 0 0 -0.0877457 0.218012 -0.392429 -0.0322256 -0.0498567 -0.104724 2.27607 18.8026 -12.0883 0.00523677 
113 1 1 0.01641 0.0364154 0.0524397 0 0 0 -0.158332 -0.130867 -0.476415 -0.135104 -0.225694 0.157797 9.36303 -14.1768 -4.58768 0.00837884 
195 1 1 0.0391677 0.0327963 0.0604938 0 0 0 0.0737305 0.0922341 -0.164608 0 0 -0.0147533 -69.1622 61.3533 -4.95176 0.00523677 
124 1 1 0.0421982 0.0428771 0.0596853 0 0 0 0.0751573 0.182548 -0.657927 0 0 -0.0147533 -9.85209 2.46518 8.75198 0.00523677 
79 1 1 -0.0175647 -0.0414834 0.0692832 0 0 0 -0.0025302 -0.000784672 -0.673379 -0.229695 0.021933 0.872856 0.300046 2.56097 0.0157041 0.00837884 
190 1 1 0.000515076 -0.0431242 0.0678616 0 0 0 0 0 -0.686651 0 0 -0.0147533 0 0 0 0.00523677 
265 1 1 0.014652 -0.0432494 0.0624468 0 0 0 0 0 -0.686651 0 0 -0.0147533 0 0 0 0.00523677 
189 1 1 0.022765 -0.0351204 0.0642285 0 0 0 -0.00110178 -0.00141197 -0.68954 -0.000324004 -0.000415224 -0.015603 2.88583e-13 -2.45939e-13 1.01428e-14 0.00523677 
313 1 1 -0.0111159 -0.0253459 0.0674552 0 0 0 0 0 -0.686651 0 0 -0.0147533 0 0 0 0.00523677 
227 1 1 0.0105119 -0.0261492 0.0665474 0 0 0 0 0 -0.686651 0 0 -0.0147533 0 0 0 0.00523677 
147 1 1 -0.0397931 -0.0180506 0.063815 0 0 0 -0.00356871 -0.0615965 -0.20563 -0.00813153 0.0103939 -0.0738933 10.168 -35.4848 -4.4845 0.00523677 
209 1 1 0.0100426 -0.0144994 0.0640629 0 0 0 0 0 -0.686651 0 0 -0.0147533 0 0 0 0.00523677 
59 1 1 0.0243373 -0.0153747 0.0646147 0 0 0 -0.00101856 -4.67001e-05 -0.689739 -0.00218712 0.00212454 -0.0587011 0.199447 0.0188229 -0.0627779 0.00837884 
247 1 1 0.0363883 -0.0216333 0.0655248 0 0 0 7.41126e-05 -9.43544e-05 -0.686817 0.00214317 -0.00178293 -0.0166426 -0.0394808 -0.0725886 0.0236143 0.00523677 
295 1 1 -0.00309939 -0.0118922 0.0673214 0 0 0 0.00525173 -0.000769595 -0.689935 0.00129929 -2.41324e-05 -0.015932 0.195653 0.454669 0.206361 0.00523677 
148 1 1 0.0440706 -0.00493793 0.0632503 0 0 0 0 0 -0.686651 0 0 -0.0147533 0 0 0 0.00523677 
220 1 1 -0.0374843 0.00171989 0.0602382 0 0 0 0 0 -0.686651 0 0 -0.0147533 0 0 0 0.00523677 
22 1 1 0.00669763 0.00333941 0.0638617 0 0 0 0.000410715 -0.00390333 -0.682881 0.07657 -0.0680632 0.452265 2.53724 0.715462 -0.360635 0.00837884 
312 1 1 -0.0219792 0.00869 0.0675701 0 0 0 0.0677002 0.218064 -0.452669 -0.0701975 -0.181359 0.0232371 2.56293 -20.3737 -1.2146 0.00523677 
63 1 1 -0.0344071 0.0201469 0.0641221 0 0 0 0 0 -0.686651 0 0 -0.0604295 0 0 0 0.00837884 
62 1 1 -0.0133918 0.0188879 0.0657707 0 0 0 -0.0345536 -0.0269276 -0.509956 0.390218 0.759004 0.556502 -5.93423 10.091 -5.05537 0.00837884 
263 1 1 0.00682608 0.0193907 0.06687 0 0 0 0.000242593 -0.00136455 -0.686022 0.00376599 -0.00894981 -0.0107273 0.0974697 -0.243841 -0.566992 0.00523677 
338 1 1 0.0443593 0.0184035 0.0631721 0 0 0 -0.0336344 0.0521902 -0.613402 0 0 -0.0147533 -15.6983 -54.378 6.80018 0.00523677 
266 1 1 0.0147524 0.026056 0.0653652 0 0 0 0.0153303 -0.0126391 -0.680322 -0.00189551 0.00338281 -0.0212153 1.87292 2.06793 0.128907 0.00523677 
198 1 1 -0.0260165 0.0335687 0.068264 0 0 0 -0.0028195 0.00152544 -0.683846 -0.000304716 -0.000526914 -0.0138962 1.4948 0.79562 1.06773 0.00523677 
35 1 1 -0.0133717 0.0375343 0.0647287 0 0 0 -0.0683114 0.0330172 -0.551252 0.0372286 -0.0121651 0.363779 -16.335 9.25258 -10.1756 0.00837884 
46 1 1 0.00404691 0.0344493 0.0652167 0 0 0 0.0140549 -0.00471748 -0.61284 0.0373668 -0.00931102 0.125734 6.92975 3.02165 -1.17926 0.00837884 
154 1 1 0.027479 0.0388057 0.0618667 0 0 0 0 0 -0.686651 0 0 -0.0147533 0 0 0 0.00523677 
174 1 1 -0.0259592 0.0418929 0.0619205 0 0 0 -0.0428761 0.0292135 -0.658738 -0.00600159 0.00579366 0.010649 -4.82586 -13.8813 7.8645 0.00523677 
252 1 1 -0.0341074 -0.0434334 0.0721463 0 0 0 0 0 -0.686651 0 0 -0.0147533 0 0 0 0.00523677 
188 1 1 -0.0268846 -0.0322849 0.0729717 0 0 0 -0.00486196 0.00482711 -0.684156 -0.000599879 0.00159014 0.00491156 -0.180469 -0.186602 0.00934699 0.00523677 
165 1 1 0.0362744 -0.0355914 0.0731225 0 0 0 0 0 -0.686651 0 0 -0.0147533 0 0 0 0.00523677 
230 1 1 -0.0418354 -0.0281007 0.0694604 0 0 0 0 0 -0.686651 0 0 -0.0147533 0 0 0 0.00523677 
44 1 1 0.00013704 -0.0281151 0.0754328 0 0 0 -0.00152559 -0.000392206 -0.687381 -0.00150384 -0.000386617 -0.0611496 1.69454e-14 -6.84675e-14 1.37138e-15 0.00837884 