ITEM: TIMESTEP
60200
ITEM: NUMBER OF ATOMS
338
ITEM: BOX BOUNDS mm mm mm
-0.05 0.05
-0.05 0.05
0 0.15
ITEM: ATOMS id type type x y z ix iy iz vx vy vz fx fy fz omegax omegay omegaz radius 
131 1 1 -0.0257481 -0.0400546 0.00560326 0 0 0 -2.15412e-07 6.17206e-06 6.31634e-06 5.93959e-06 -1.40218e-06 6.94562e-06 -0.000673188 -0.00010848 -0.00026725 0.00694698 
319 1 1 -0.0146874 -0.0445409 0.006053 0 0 0 -1.13172e-06 2.51311e-06 3.82397e-06 4.8673e-06 -1.5875e-06 2.66794e-06 0.000124599 0.000244741 -0.000161967 0.00694698 
243 1 1 -0.00279117 -0.043873 0.00610439 0 0 0 -2.9932e-06 1.91172e-06 2.43981e-06 1.00449e-05 -7.30922e-06 -3.2613e-06 7.32753e-05 -0.000470455 0.000517595 0.00694698 
260 1 1 0.0252546 -0.0438307 0.0059405 0 0 0 -4.05688e-06 1.82375e-06 1.64463e-06 1.2437e-05 -1.05949e-05 -1.22251e-05 -3.51177e-06 -7.05126e-05 0.000166103 0.00694698 
78 1 1 0.0413085 -0.0407811 0.00927582 0 0 0 -2.49048e-06 1.19414e-06 -2.06207e-08 3.30519e-05 -2.84585e-05 -3.80004e-05 4.54753e-05 -6.93871e-06 0.000100263 0.0111152 
74 1 1 -0.040828 -0.0367696 0.00959709 0 0 0 1.97805e-06 5.75313e-06 4.18546e-06 2.9241e-05 2.066e-06 2.03584e-05 -0.000118674 -1.86752e-05 0.000308317 0.0111152 
296 1 1 -0.0274829 -0.0274567 0.00612188 0 0 0 -3.41511e-07 7.20003e-06 5.2988e-06 1.10741e-05 -2.92536e-06 1.12385e-05 -0.00041477 -0.0003473 7.21901e-05 0.00694698 
173 1 1 -0.0155729 -0.0319598 0.00557448 0 0 0 -1.62527e-06 6.27019e-06 7.09832e-06 9.45421e-06 -8.38812e-06 7.06413e-06 -0.000374409 -6.8654e-05 0.00017491 0.00694698 
275 1 1 -0.00359021 -0.0297747 0.00572447 0 0 0 -3.84577e-06 8.21019e-06 6.77056e-06 1.28352e-05 -2.16374e-05 -5.40344e-06 -0.000240918 -0.00017844 -0.000145608 0.00694698 
60 1 1 0.0105836 -0.0360376 0.00947774 0 0 0 -6.26325e-06 5.41158e-06 7.00951e-06 8.4111e-05 -9.44818e-05 -6.89947e-05 -0.000129829 -4.20665e-05 -0.000133378 0.0111152 
102 1 1 -0.0405428 -0.0169477 0.00905848 0 0 0 5.3217e-07 7.66049e-06 2.51897e-06 4.08088e-05 -3.13602e-06 2.15229e-05 -0.000588231 0.000355782 0.000161376 0.0111152 
328 1 1 -0.0254333 -0.01519 0.00543682 0 0 0 -2.05313e-06 7.73539e-06 -5.11763e-07 1.41478e-05 -9.88261e-06 9.8374e-06 -0.00110987 -0.000762911 5.42945e-05 0.00694698 
40 1 1 -0.0106765 -0.0158183 0.0106462 0 0 0 -7.68172e-06 1.02273e-05 1.37218e-05 0.000113695 -0.000115909 4.11633e-05 0.000390445 -0.00051788 0.000461488 0.0111152 
279 1 1 0.00440773 -0.0207351 0.0109054 0 0 0 -7.96829e-06 9.63808e-06 1.08892e-05 2.63384e-05 -3.68262e-05 -9.37423e-06 0.000352202 0.000591257 4.50831e-05 0.00694698 
267 1 1 0.0155005 -0.0199621 0.00561743 0 0 0 -7.10786e-06 6.31285e-06 5.7442e-06 1.63532e-05 -2.44616e-05 -1.41959e-05 -0.000378926 -0.000589091 -5.82568e-05 0.00694698 
144 1 1 0.0430495 -0.0248667 0.00596799 0 0 0 -4.4575e-06 1.27357e-06 8.04021e-07 9.84637e-06 -7.4475e-06 -1.42074e-05 -0.000199921 -0.000482559 -0.000109822 0.00694698 
202 1 1 0.0452017 -0.0129601 0.00612949 0 0 0 -3.14888e-06 2.16773e-07 9.59582e-07 7.18388e-06 -2.56763e-06 -7.52409e-06 0.000204872 -2.77372e-05 -2.90337e-05 0.00694698 
257 1 1 -0.0442073 -0.00104701 0.00624945 0 0 0 -3.74065e-06 9.50573e-07 3.12599e-06 1.59898e-06 -4.09778e-06 2.96335e-06 0.000647432 -0.000915021 0.00029759 0.00694698 
274 1 1 -0.0220225 -0.0037788 0.0077519 0 0 0 -1.06382e-05 7.84533e-06 3.23403e-05 1.79968e-05 -2.45072e-05 2.22222e-05 0.00590555 -0.00265256 0.000870917 0.00694698 
50 1 1 0.0305735 -0.00918801 0.00973542 0 0 0 -6.50309e-06 2.85561e-06 5.34544e-06 6.2069e-05 -8.16774e-05 -8.2034e-05 -9.80629e-06 0.000191438 -0.000206617 0.0111152 
232 1 1 -0.0434387 0.0118756 0.00626164 0 0 0 -8.9432e-07 -3.61523e-07 9.54628e-06 7.21833e-06 -1.05435e-05 1.18567e-05 0.000326899 -0.000474438 -0.00078178 0.00694698 
268 1 1 -0.0326769 0.00368232 0.00609408 0 0 0 -7.80799e-06 3.12658e-06 2.95304e-05 8.70639e-06 -1.70025e-05 1.72327e-05 0.000335184 -0.00186959 0.000615688 0.00694698 
171 1 1 -0.021197 0.0079867 0.00823464 0 0 0 -1.16098e-05 8.66979e-06 4.96328e-05 2.03293e-05 -3.11333e-05 2.36501e-05 -0.00241556 -8.24505e-05 -0.00049321 0.00694698 
164 1 1 0.0205999 0.00173768 0.00544625 0 0 0 -6.83463e-06 5.57817e-06 1.11887e-05 1.23095e-05 -2.44558e-05 -1.60636e-05 -2.9296e-05 0.000183094 -0.000261584 0.00694698 
297 1 1 -0.0253906 0.019586 0.00549863 0 0 0 -5.68178e-06 6.14369e-06 2.27645e-05 1.79183e-05 -2.24571e-05 3.22663e-05 -0.00141128 -0.000284337 -0.000146962 0.00694698 
222 1 1 -0.0108508 0.0145912 0.00545568 0 0 0 -9.8893e-06 6.06633e-06 2.42335e-05 1.79405e-05 -2.78482e-05 1.01078e-05 -0.00194533 0.000430161 0.000187798 0.00694698 
290 1 1 -0.000799311 0.0214674 0.00523784 0 0 0 -9.20931e-06 1.33744e-06 7.46353e-06 1.28269e-05 -2.16596e-05 1.1557e-05 -0.000444963 -0.000818026 -0.000880957 0.00694698 
98 1 1 0.0122233 0.0135227 0.00979351 0 0 0 -1.19372e-05 8.4745e-06 1.36563e-05 9.72495e-05 -0.000141283 -2.62349e-05 -0.00109776 4.64009e-05 0.000330065 0.0111152 
316 1 1 0.0321802 0.0195781 0.00502883 0 0 0 -5.34502e-06 1.74048e-06 -3.01907e-07 5.08516e-06 -6.82825e-06 -2.84654e-06 -0.000276076 -0.000541795 0.000164147 0.00694698 
162 1 1 0.0446349 0.0202023 0.00544624 0 0 0 -2.72821e-06 6.1602e-07 -3.69255e-07 1.42616e-06 -6.12221e-06 -1.70128e-06 0.000300159 -0.000118628 -0.00013077 0.00694698 
294 1 1 -0.0439424 0.0252727 0.00613939 0 0 0 1.69494e-06 -1.11115e-06 5.6455e-06 1.21117e-05 -1.44588e-05 1.19715e-05 -0.000296266 0.000191086 0.000271895 0.00694698 
175 1 1 -0.0327496 0.0313742 0.00614203 0 0 0 -1.86906e-06 -4.70311e-06 1.0857e-05 1.30071e-05 -2.08684e-05 2.03886e-05 0.000769783 -0.00105125 -0.000603016 0.00694698 
255 1 1 -0.0148477 0.0261367 0.00587595 0 0 0 -5.3481e-06 3.78216e-06 1.31486e-05 1.47568e-05 -1.99689e-05 2.03602e-05 -0.00123617 2.25996e-05 -0.000477909 0.00694698 
324 1 1 -0.00330543 0.0326855 0.0056693 0 0 0 -3.21116e-06 2.15438e-06 2.99783e-06 6.68793e-06 -8.82697e-06 7.12993e-06 -0.000168178 0.000111877 0.000248744 0.00694698 
161 1 1 0.00824506 0.0320299 0.00644881 0 0 0 -4.52965e-06 6.83177e-06 5.3778e-06 3.15894e-06 -1.61939e-05 -2.81949e-07 -0.00151337 -0.000278536 -4.3022e-05 0.00694698 
77 1 1 0.0226325 0.0295981 0.012343 0 0 0 -6.50281e-06 5.45042e-06 1.46424e-06 2.50395e-05 -7.09923e-05 -4.61778e-05 0.000131627 0.000327621 -0.000504969 0.0111152 
155 1 1 0.0376085 0.0311764 0.00564482 0 0 0 -2.9098e-06 3.52587e-07 1.1653e-06 1.96091e-06 -3.94528e-06 -5.75901e-06 9.27039e-05 -0.000445625 -0.000397141 0.00694698 
321 1 1 -0.04402 0.0437755 0.0062938 0 0 0 1.07887e-06 9.23097e-08 3.11282e-06 8.34266e-06 -3.72999e-06 9.71361e-06 -0.000428637 -7.37644e-05 0.000194619 0.00694698 
207 1 1 -0.0314325 0.0439672 0.00637409 0 0 0 -1.14213e-07 4.76837e-07 3.92082e-06 3.84838e-06 -6.53229e-06 1.37758e-05 -0.000822934 0.000154911 8.30889e-05 0.00694698 
38 1 1 -0.0153313 0.0415942 0.00979059 0 0 0 -3.0905e-06 1.33626e-06 3.26579e-06 2.73461e-05 -4.10276e-05 3.75102e-05 -0.000167487 -0.00012917 -0.000143308 0.0111152 
149 1 1 0.0120644 0.043872 0.00543326 0 0 0 -6.8823e-07 1.77059e-06 -2.08484e-06 3.148e-06 -3.52212e-06 -6.19248e-07 1.30892e-05 2.66372e-05 -0.0002906 0.00694698 
237 1 1 0.00118709 0.0437539 0.0121483 0 0 0 -8.97432e-07 1.16515e-06 5.54126e-07 4.13751e-06 -1.40274e-06 2.04097e-06 5.57938e-05 0.000563461 5.13753e-05 0.00694698 
249 1 1 0.0277053 0.0441438 0.00611631 0 0 0 -6.77488e-07 1.32098e-06 1.69563e-06 -3.49613e-06 -3.77633e-06 -2.3136e-06 -8.32107e-05 0.000423824 -0.000296279 0.00694698 
289 1 1 0.0443721 0.0422256 0.00592203 0 0 0 2.72259e-07 -1.13866e-06 2.1632e-06 -5.70207e-07 5.63093e-07 -4.57377e-06 0.000201132 0.000270501 7.61068e-05 0.00694698 
331 1 1 -0.0432693 -0.0455642 0.0218634 0 0 0 1.60369e-06 3.16965e-06 2.38334e-06 5.50141e-06 6.29079e-08 -3.70276e-07 0.000341204 -0.000447437 3.82618e-06 0.00694698 
299 1 1 -0.0246085 -0.0451872 0.0168094 0 0 0 -1.15617e-06 7.47719e-06 9.82563e-06 1.18119e-05 -3.69043e-06 9.97389e-06 0.00108437 0.000349163 0.000225927 0.00694698 
225 1 1 -0.0115498 -0.0442709 0.0185951 0 0 0 -2.42716e-06 6.61614e-06 8.46014e-06 1.49479e-05 -9.5827e-06 5.26071e-06 0.000332284 -7.23661e-05 -5.59668e-05 0.00694698 
242 1 1 0.00106185 -0.0446807 0.0196824 0 0 0 -3.88313e-06 4.54245e-06 6.86913e-06 2.08448e-05 -2.02397e-05 -6.4095e-06 0.000826321 0.000340497 0.000401118 0.00694698 
130 1 1 0.0208357 -0.0442058 0.0182027 0 0 0 -2.28776e-06 7.55043e-07 2.62229e-06 1.0811e-05 -5.57373e-06 -1.36464e-05 0.000544059 0.000971947 -1.14521e-05 0.00694698 
167 1 1 0.0319451 -0.0442251 0.0228862 0 0 0 -1.16408e-06 -7.44972e-07 -2.53252e-06 8.14916e-06 -2.48606e-06 -1.55994e-06 -0.000127906 -0.000233274 0.000149157 0.00694698 
136 1 1 0.0442903 -0.0447089 0.0241887 0 0 0 -5.00517e-07 9.02782e-09 -9.5156e-07 8.31918e-06 -5.06422e-06 -6.38194e-06 -6.87663e-05 4.64619e-05 2.31123e-05 0.00694698 
179 1 1 -0.0345746 -0.0262027 0.0213893 0 0 0 1.11753e-06 1.50355e-05 1.11432e-05 2.92993e-05 -1.2741e-06 2.01471e-05 -1.78524e-05 -0.00100403 0.00034506 0.00694698 
7 1 1 -0.0200353 -0.0304271 0.0211167 0 0 0 -1.94915e-06 1.36452e-05 1.67645e-05 0.000171262 -7.9719e-05 0.00012513 -0.00015787 0.000233207 -0.000227894 0.0111152 
104 1 1 -0.000112781 -0.0285696 0.0247238 0 0 0 -5.77541e-06 8.70168e-06 1.49813e-05 0.000234969 -0.000149792 -7.49848e-06 0.000196245 0.000303335 -0.000132036 0.0111152 
67 1 1 0.0278423 -0.0280453 0.0126282 0 0 0 -6.49303e-06 2.6719e-06 3.7173e-06 0.000110622 -8.90726e-05 -0.000109867 0.000215587 0.000357608 3.0615e-05 0.0111152 
128 1 1 -0.0450313 -0.0217266 0.0238335 0 0 0 2.14927e-06 7.20298e-06 5.25276e-06 1.15391e-05 -1.59976e-06 2.42152e-06 -0.000282278 -9.18809e-05 0.000687775 0.00694698 
278 1 1 0.0331688 -0.016193 0.0241361 0 0 0 -5.89327e-06 1.45839e-07 3.46454e-06 4.4498e-05 -2.67162e-05 -3.21551e-05 0.000316853 0.000158577 0.000156207 0.00694698 
146 1 1 -0.0448731 -0.00919978 0.022471 0 0 0 -2.26584e-06 1.99013e-06 2.48316e-05 2.81778e-05 -2.97753e-05 3.09648e-05 0.00508296 -0.00348743 -6.33708e-05 0.00694698 
96 1 1 0.0119172 -0.00721232 0.0161321 0 0 0 -1.08896e-05 6.71394e-06 1.64535e-05 0.000163338 -0.00019404 -7.25203e-05 0.000671813 0.000269702 -0.000176088 0.0111152 
183 1 1 0.0447601 -0.00703515 0.017542 0 0 0 -1.31147e-06 1.00136e-06 -1.18882e-07 7.82916e-06 -8.99064e-06 -8.70367e-06 -0.000599152 0.00033318 -0.000200728 0.00694698 
25 1 1 -0.0377542 0.00483185 0.022389 0 0 0 -3.41461e-06 1.34289e-05 5.6133e-05 0.000299358 -0.000178011 0.00025581 -0.00154166 0.000717047 0.000232905 0.0111152 
17 1 1 -0.0052601 0.00256309 0.0144081 0 0 0 -1.3577e-05 1.16077e-05 3.42352e-05 0.000155425 -0.000197129 3.12332e-05 0.000687659 0.000398792 -0.000342058 0.0111152 
94 1 1 0.0384742 0.00842694 0.0134968 0 0 0 -1.99973e-06 1.65472e-06 -1.24255e-06 2.89631e-05 -6.50363e-05 -2.33002e-05 -2.11644e-05 0.000962554 -0.000244682 0.0111152 
300 1 1 -0.0447062 0.0189524 0.0170509 0 0 0 -7.18139e-07 3.0223e-06 1.94006e-05 2.03539e-05 -2.47938e-05 3.01108e-05 -0.000986125 -0.00170208 -0.000339491 0.00694698 
273 1 1 -0.0327467 0.0189504 0.0155433 0 0 0 -3.5472e-06 6.80016e-06 3.8091e-05 3.527e-05 -4.02708e-05 5.11387e-05 0.000656777 -0.000261276 0.000206539 0.00694698 
28 1 1 -0.0168118 0.0183633 0.0204916 0 0 0 -5.88093e-06 1.49604e-05 4.1789e-05 0.000221404 -0.000226462 0.000157704 -0.000298433 0.000319078 0.000172038 0.0111152 
286 1 1 -0.00173317 0.0186074 0.0168811 0 0 0 -1.38882e-05 1.40229e-05 2.01777e-05 4.31067e-05 -5.64633e-05 1.6933e-05 -0.00257251 0.00130643 0.000394026 0.00694698 
305 1 1 -0.0436936 0.0348177 0.0156113 0 0 0 -3.53724e-06 -1.45798e-06 1.04677e-05 1.25888e-05 -2.37158e-05 2.90585e-05 0.000277891 -0.00190122 -0.000252891 0.00694698 
23 1 1 -0.0279413 0.0337349 0.0221095 0 0 0 -4.01419e-06 1.05357e-05 2.27015e-05 0.000172436 -0.000155904 0.000190138 -0.00234376 0.000621992 0.000647876 0.0111152 
320 1 1 0.00379661 0.0296091 0.018379 0 0 0 -2.13234e-05 1.22501e-05 8.15516e-06 1.18552e-05 -4.52772e-05 8.0138e-06 0.00109479 -0.00233538 -0.000125132 0.00694698 
284 1 1 0.0446347 0.0273726 0.015737 0 0 0 -2.18465e-06 -1.68378e-06 2.69501e-06 -4.1664e-08 -1.0654e-07 -3.8357e-06 0.000328652 0.000427826 0.000387997 0.00694698 
239 1 1 0.0187751 0.0448273 0.0154887 0 0 0 -7.80116e-06 -6.21848e-08 2.29714e-06 -9.43956e-06 -1.17559e-05 -3.66429e-06 0.000376212 -0.00200499 -7.47173e-05 0.00694698 
61 1 1 0.037083 0.0409697 0.0204872 0 0 0 -3.3508e-06 7.427e-07 2.53289e-06 6.03281e-09 -1.55614e-05 -3.81748e-05 -0.000268922 -0.000523961 -0.000381463 0.0111152 
224 1 1 -0.0437842 -0.0444768 0.0343522 0 0 0 4.56092e-07 1.63893e-06 1.10451e-06 5.06775e-06 -6.45544e-06 3.44799e-06 6.60574e-05 8.77544e-05 -4.49051e-05 0.00694698 
256 1 1 -0.0327608 -0.0400947 0.0257175 0 0 0 -1.90286e-06 8.59221e-06 1.27745e-05 1.64197e-05 -1.42984e-05 1.58841e-05 -0.000376544 -0.00114166 0.000533843 0.00694698 
42 1 1 -0.0120031 -0.0408869 0.0355063 0 0 0 -1.4497e-06 6.83892e-06 1.3188e-05 0.000230085 -6.32528e-05 8.40931e-05 0.000794071 0.000109813 -0.000179134 0.0111152 
271 1 1 0.0313717 -0.040779 0.0343154 0 0 0 -3.74198e-06 -2.383e-06 -5.84966e-06 3.98133e-05 -1.79943e-05 4.28987e-06 0.000188368 -4.62981e-05 -0.000159807 0.00694698 
125 1 1 0.0438559 -0.0440726 0.0371343 0 0 0 -1.88951e-06 -4.24093e-07 -1.82652e-06 1.30564e-05 -1.60928e-06 -7.26925e-06 -0.000180498 -0.00037513 0.00024397 0.00694698 
180 1 1 -0.0442349 -0.0338853 0.0265895 0 0 0 7.65272e-07 5.23298e-06 4.12069e-06 1.3815e-05 -3.09226e-06 7.46486e-06 0.000217198 -0.000262043 0.000111154 0.00694698 
120 1 1 0.0409684 -0.0296039 0.0290176 0 0 0 -1.87183e-06 -5.52347e-07 -2.37407e-06 0.00010186 -5.17454e-05 -6.4962e-05 0.000165642 -0.000128314 9.71859e-05 0.0111152 
178 1 1 -0.0126391 -0.0206731 0.032126 0 0 0 -1.6838e-06 9.63226e-06 3.03358e-05 8.66616e-05 -5.0286e-05 6.51757e-05 0.0013553 -1.23484e-06 0.000151617 0.00694698 
51 1 1 0.0185588 -0.0226609 0.0301882 0 0 0 -8.13824e-06 1.80903e-06 7.95124e-06 0.000309296 -0.000196055 -6.48613e-05 0.000256073 0.000310274 -0.000134997 0.0111152 
134 1 1 0.0440827 -0.0143844 0.0325108 0 0 0 -1.14244e-06 -2.21394e-07 -2.3898e-06 2.66792e-05 -1.11234e-05 -5.86116e-06 -0.000225027 -0.000118415 -2.51075e-05 0.00694698 
19 1 1 -0.0263969 -0.0120069 0.0273707 0 0 0 3.07639e-07 1.8753e-05 4.98259e-05 0.000372433 -0.00014368 0.000269357 0.00288212 -0.000492465 5.18606e-05 0.0111152 
310 1 1 -0.0104366 -0.0089878 0.0299636 0 0 0 -4.21733e-06 1.18362e-05 5.6647e-05 8.81429e-05 -7.4186e-05 7.1231e-05 0.00277681 0.00166873 -0.000185363 0.00694698 
258 1 1 0.000949908 -0.012339 0.0275496 0 0 0 -8.78173e-06 7.34767e-06 2.707e-05 7.66753e-05 -6.2466e-05 -6.39498e-06 0.00102511 0.00130522 -0.000242507 0.00694698 
18 1 1 0.0121869 -0.00447298 0.0369605 0 0 0 -2.27186e-06 6.24426e-06 1.34371e-05 0.000330423 -0.000323421 -4.96952e-05 -0.000942089 0.00142377 -0.000287183 0.0111152 
184 1 1 0.0277391 -0.00806876 0.0328956 0 0 0 -5.36885e-06 -9.0877e-08 -9.83412e-07 6.62121e-05 -4.45365e-05 -7.59921e-06 -0.000772539 0.00042689 3.84733e-05 0.00694698 
112 1 1 -0.0179402 0.00468422 0.0351753 0 0 0 -4.36608e-07 1.39082e-05 6.50129e-05 0.000470104 -0.000303785 0.000351505 -0.000850652 -4.69851e-05 -0.000302683 0.0111152 
160 1 1 -0.00258799 0.000661786 0.0310723 0 0 0 -4.93994e-06 9.10799e-06 4.07534e-05 8.63186e-05 -7.82816e-05 1.21897e-05 -0.00151711 0.00329995 -7.74283e-05 0.00694698 
55 1 1 0.0406908 0.00155577 0.0321766 0 0 0 -1.33862e-06 1.1348e-06 -4.00183e-06 0.000125532 -7.5538e-05 -1.75021e-06 0.00010254 -0.000430836 -6.2316e-05 0.0111152 
2 1 1 -0.0316935 0.0196551 0.0354847 0 0 0 5.86828e-06 1.98422e-05 5.50131e-05 0.000361411 -0.000200942 0.000272422 -0.000110739 0.000318 -5.77537e-05 0.0111152 
100 1 1 0.00652124 0.0141766 0.029828 0 0 0 -1.23707e-05 1.20435e-05 2.05999e-05 0.000283421 -0.000319457 5.48626e-05 0.00127224 0.000883764 0.000188212 0.0111152 
261 1 1 0.043399 0.0180072 0.0268078 0 0 0 2.83181e-06 2.23458e-06 -3.38998e-06 1.54842e-05 -1.77575e-05 -3.55202e-06 -0.000385613 -0.000833342 -0.000144695 0.00694698 
246 1 1 -0.0443139 0.0262016 0.0275324 0 0 0 5.16471e-06 6.02542e-06 2.60817e-05 4.19339e-05 -2.69465e-05 3.88181e-05 -0.000970805 -0.00198204 1.79126e-05 0.00694698 
69 1 1 -0.0068633 0.0298272 0.0340232 0 0 0 -8.83159e-06 7.78266e-06 5.57864e-05 0.000210971 -0.000356073 0.000287717 0.00163672 0.0016717 -8.68482e-05 0.0111152 
108 1 1 0.0262495 0.0288961 0.0325398 0 0 0 -8.50247e-06 1.82296e-06 8.52222e-07 6.93386e-05 -0.000122454 -8.92833e-05 0.000323421 -0.000267922 0.000601342 0.0111152 
9 1 1 -0.0407958 0.0418491 0.032558 0 0 0 5.38278e-07 7.5229e-06 1.29614e-05 8.56327e-05 -4.86909e-05 0.000116026 -0.00082741 3.73412e-05 0.000499283 0.0111152 
323 1 1 -0.00700759 0.0443556 0.0261316 0 0 0 -1.50936e-05 6.3864e-07 4.2061e-05 -1.91031e-05 -4.29193e-05 6.43237e-05 -0.00638615 0.00352943 -0.00195093 0.00694698 
16 1 1 0.0103834 0.0409506 0.0288255 0 0 0 -1.38458e-05 1.90442e-09 1.07024e-05 -1.71481e-05 -0.000121338 4.78075e-06 -0.000539771 0.0017729 -0.000892411 0.0111152 
329 1 1 -0.0243337 -0.0448883 0.0452014 0 0 0 -2.8803e-07 1.5938e-06 6.42336e-06 4.73176e-05 9.15785e-06 2.7423e-05 0.000499288 -0.000332141 0.00018079 0.00694698 
168 1 1 0.00170636 -0.0450129 0.040199 0 0 0 -2.58069e-06 6.77571e-07 9.80456e-06 4.89529e-05 -1.77264e-05 -3.0015e-05 0.00153579 -0.000400383 0.00022355 0.00694698 
3 1 1 0.0165061 -0.0408745 0.039313 0 0 0 -4.0039e-06 7.8909e-08 4.35627e-06 0.000229543 -9.66558e-05 -5.95718e-05 0.000233302 0.00111674 -0.000186563 0.0111152 
283 1 1 0.0310352 -0.0446314 0.0458371 0 0 0 8.31101e-07 -3.30018e-06 -4.90024e-06 3.40049e-05 -1.32509e-05 9.94154e-06 -0.000500432 0.00056019 -0.00035716 0.00694698 
211 1 1 -0.0439276 -0.0331951 0.0391794 0 0 0 -3.45202e-07 2.26724e-06 5.64115e-06 2.82337e-05 -6.88838e-06 1.72112e-06 0.00078077 -0.000455745 0.000320361 0.00694698 
93 1 1 -0.0271457 -0.0292817 0.0419053 0 0 0 -1.19516e-06 4.80302e-06 2.37031e-05 0.000333926 -4.96563e-06 0.000106748 0.00159094 -0.000542597 0.000305482 0.0111152 
191 1 1 0.00287892 -0.0323181 0.0407477 0 0 0 -5.00042e-06 3.29133e-06 1.96196e-05 8.98682e-05 -3.9167e-05 -4.08377e-06 0.000276146 0.000233628 0.00017624 0.00694698 
105 1 1 0.0303967 -0.0280612 0.0465898 0 0 0 -6.51708e-08 -5.28577e-06 -7.11097e-06 0.000280188 -6.2884e-05 3.30903e-05 0.000373752 0.000379347 0.000323168 0.0111152 
66 1 1 -0.041682 -0.0169767 0.0389235 0 0 0 -1.79575e-06 6.23978e-06 2.0945e-05 0.000179338 -7.51906e-05 3.31035e-05 0.000618389 -0.00144893 -0.000130266 0.0111152 
43 1 1 -0.00882975 -0.0242901 0.0478753 0 0 0 -9.28749e-07 1.87465e-06 3.52819e-05 0.000538258 -0.000191816 0.000308691 0.0011222 0.000149855 -6.72192e-05 0.0111152 
259 1 1 0.0241567 -0.0131299 0.0440615 0 0 0 -1.70901e-06 -1.39586e-06 1.83681e-06 7.11039e-05 -4.2345e-05 -1.61041e-06 3.96195e-05 0.000897262 -0.000508326 0.00694698 
336 1 1 -0.0246139 -0.0117326 0.0453171 0 0 0 -6.69852e-05 3.01286e-05 6.57409e-05 0.000163137 -0.000146197 0.000208347 -0.00470646 -0.00801605 2.15331e-05 0.00694698 
245 1 1 -0.000273941 -0.0118499 0.0427905 0 0 0 -3.09753e-06 1.00634e-05 4.27773e-05 0.000117354 -6.94601e-05 6.00691e-05 0.000356401 0.00101253 -2.85221e-05 0.00694698 
303 1 1 0.0269175 -0.00136568 0.0493328 0 0 0 -6.30578e-06 -3.98229e-06 -1.11624e-05 6.80713e-05 -2.21537e-05 3.95107e-05 -0.000273599 4.16608e-06 0.000710372 0.00694698 
5 1 1 0.0405047 -0.0106682 0.0488248 0 0 0 -1.5605e-06 -8.11886e-07 -4.56842e-06 0.000155623 -3.87439e-05 2.14243e-05 -8.38891e-05 -2.74279e-05 0.000267168 0.0111152 
107 1 1 -0.0382431 0.00195707 0.0431278 0 0 0 6.57273e-06 1.46286e-05 4.97926e-05 0.000431971 -0.000207724 0.00027865 0.00131981 -2.96098e-05 -0.000332072 0.0111152 
95 1 1 0.0239299 0.0111489 0.0391397 0 0 0 -7.4627e-06 2.57882e-06 -5.05078e-06 0.000215942 -0.000211286 3.99101e-05 0.00028269 -8.46047e-05 -0.000171619 0.0111152 
318 1 1 0.044365 0.0047285 0.0485669 0 0 0 -2.0995e-06 1.06219e-06 -6.13194e-06 1.19091e-05 -5.65709e-06 5.8911e-06 -0.000440119 -1.34016e-05 -0.000206185 0.00694698 
208 1 1 -0.0448666 0.0168567 0.0449705 0 0 0 1.35286e-06 1.14189e-05 3.88818e-05 5.10346e-05 -3.48755e-05 4.00231e-05 -0.000153243 -0.00484453 0.00145891 0.00694698 
282 1 1 -0.0182463 0.018533 0.0445891 0 0 0 2.02722e-06 1.2211e-05 5.93663e-05 0.000106533 -7.14403e-05 8.14719e-05 0.000703896 -0.000261273 -0.000715967 0.00694698 
4 1 1 -0.00366651 0.0146154 0.048221 0 0 0 -4.46148e-06 4.449e-06 4.76198e-05 0.000491688 -0.000360749 0.000302934 -0.000566096 0.000497363 -0.00026994 0.0111152 
58 1 1 0.0410775 0.0200219 0.043561 0 0 0 -5.18497e-06 1.81352e-06 -7.83335e-07 4.92487e-05 -3.95159e-05 -1.4765e-05 0.000379945 -0.000210973 0.000111311 0.0111152 
199 1 1 -0.0449273 0.0285898 0.0409786 0 0 0 5.98787e-07 1.30483e-05 3.23156e-05 3.77867e-05 -2.64454e-05 3.79002e-05 -0.00149333 -0.00370834 0.00162459 0.00694698 
192 1 1 -0.0256316 0.0271739 0.0481261 0 0 0 3.67731e-06 5.33656e-06 5.93123e-05 7.97071e-05 -5.29794e-05 6.98814e-05 0.000959926 -0.00112234 -0.000345618 0.00694698 
292 1 1 -0.0146968 0.032469 0.0485797 0 0 0 1.93849e-06 1.28526e-06 6.03921e-05 7.00187e-05 -6.91977e-05 7.67685e-05 -0.00245749 -0.00187689 -0.000164852 0.00694698 
73 1 1 0.0108552 0.0280466 0.0457834 0 0 0 -1.72532e-06 3.62412e-06 1.7602e-05 0.000293988 -0.00019148 3.65252e-05 -0.000908622 0.00183019 -0.000549558 0.0111152 
327 1 1 -0.0435039 0.0432739 0.049771 0 0 0 -3.69961e-06 -1.35459e-06 2.43308e-05 1.21138e-05 -1.28779e-05 5.54303e-06 -0.000112326 -0.00391594 -0.00100567 0.00694698 
126 1 1 -0.0115806 0.044294 0.0464579 0 0 0 8.22762e-06 -3.64556e-06 3.16291e-05 4.09377e-05 -4.44533e-05 2.38899e-05 -0.00507598 -0.00581118 0.000935471 0.00694698 
248 1 1 0.000186947 0.0432518 0.0425157 0 0 0 1.21691e-05 -2.62178e-06 3.92152e-05 4.25032e-05 -3.71142e-05 4.81818e-05 -0.000356083 0.00469149 0.00149352 0.00694698 
229 1 1 0.0125663 0.0445193 0.045416 0 0 0 7.91346e-06 3.45023e-06 5.51868e-07 2.82897e-05 -1.96743e-05 -1.69312e-05 -0.000139902 0.00102984 0.000194129 0.00694698 
114 1 1 0.0401335 0.0408 0.040734 0 0 0 -3.10236e-06 1.25582e-06 4.23635e-06 1.04747e-05 -2.7571e-05 -2.51881e-05 6.46669e-05 0.000672442 -0.00034209 0.0111152 
314 1 1 -0.0174739 -0.0445492 0.0555941 0 0 0 1.4864e-06 -1.25409e-07 9.21829e-06 5.26501e-05 -4.95876e-06 2.30777e-05 0.00105301 0.000146918 -0.000326928 0.00694698 
337 1 1 -0.00610001 -0.0408572 0.0515865 0 0 0 2.20606e-07 1.8973e-06 1.88715e-05 8.52367e-05 -2.01671e-05 4.083e-05 3.91078e-05 -0.000706854 0.000578686 0.00694698 
56 1 1 0.00688366 -0.0394003 0.0619726 0 0 0 2.00407e-06 -3.98818e-06 1.58373e-05 0.000329874 4.33255e-05 0.000215704 0.000434715 0.0010277 -0.000666865 0.0111152 
265 1 1 0.0220177 -0.043724 0.0552628 0 0 0 5.06839e-08 -3.30362e-06 1.3633e-06 2.97988e-05 2.98077e-06 9.84702e-06 0.00049241 -0.000307428 0.00029109 0.00694698 
49 1 1 0.0406724 -0.0407584 0.0580765 0 0 0 1.85569e-06 -7.59899e-07 -3.94565e-06 0.000129436 -6.13546e-06 1.70432e-05 -0.000753031 -0.000484071 -0.000161245 0.0111152 
84 1 1 -0.0411458 -0.032993 0.0553186 0 0 0 -2.38649e-06 -2.86116e-06 6.76336e-06 0.000220075 6.64857e-05 4.85176e-05 -4.93594e-05 -0.000179074 -0.000311148 0.0111152 
307 1 1 -0.0195838 -0.0324346 0.0571155 0 0 0 1.1819e-06 -1.31784e-06 2.42593e-05 0.000102657 -5.65371e-06 6.02717e-05 0.000247707 -0.00023887 0.000632485 0.00694698 
326 1 1 0.0447956 -0.0254458 0.0534947 0 0 0 8.07055e-07 -1.94373e-06 -5.67222e-06 3.93939e-05 -5.82107e-06 -1.11818e-06 0.000585539 -0.000795036 0.000479367 0.00694698 
81 1 1 -0.0216685 -0.0170401 0.0624318 0 0 0 -2.31929e-06 -4.11286e-06 3.86512e-05 0.000618133 -0.000105278 0.000439438 0.00116961 -0.00098359 -0.000502651 0.0111152 
52 1 1 0.0112852 -0.0221409 0.0507309 0 0 0 1.1966e-06 -6.34509e-06 1.80303e-05 0.000444024 -0.000146551 0.000137982 0.0012171 0.00161857 -0.00054647 0.0111152 
332 1 1 0.0267559 -0.0152036 0.0567084 0 0 0 4.34967e-06 -1.17299e-05 -3.28756e-06 8.44847e-05 2.83859e-06 9.23918e-06 0.00221944 0.000625076 -0.000378239 0.00694698 
220 1 1 -0.043805 -0.00977094 0.054218 0 0 0 7.16996e-07 3.06345e-06 2.30103e-05 5.72241e-05 -3.08821e-05 4.22757e-05 0.00070017 -0.000385781 -0.000383631 0.00694698 
133 1 1 -0.0272082 -0.0028324 0.0559953 0 0 0 8.06309e-06 2.30277e-06 5.58618e-05 0.000146513 -4.4122e-05 0.000112675 0.00136417 -0.00198551 0.000383127 0.00694698 
24 1 1 -0.0102674 -0.00372082 0.0528005 0 0 0 2.16004e-07 3.60173e-06 6.23461e-05 0.000757991 -0.000248104 0.000527875 0.00121096 0.000919621 -0.000282284 0.0111152 
240 1 1 0.0172584 -0.00749228 0.0553606 0 0 0 -1.15789e-06 -9.00683e-06 7.42599e-06 0.000108734 -1.44946e-05 7.82306e-05 -0.00259157 0.00179373 0.001668 0.00694698 
236 1 1 -0.0236944 0.00828097 0.0507772 0 0 0 2.07247e-06 1.10983e-05 6.29424e-05 9.79047e-05 -5.79681e-05 8.03179e-05 0.000191143 -0.000238564 0.00119943 0.00694698 
15 1 1 0.0136565 0.00817871 0.0563008 0 0 0 -7.16313e-06 -6.5132e-06 8.6427e-06 0.000461759 -0.000101195 0.000388131 0.00123857 0.0028934 -0.000583777 0.0111152 
291 1 1 0.0437832 0.0122418 0.0588945 0 0 0 -3.35864e-06 -7.46823e-06 -8.47034e-06 -5.09524e-06 6.1711e-06 2.06766e-05 0.00275741 -0.000281954 0.00158728 0.00694698 
335 1 1 -0.0343159 0.0161597 0.0526642 0 0 0 3.36424e-06 7.33702e-06 5.82166e-05 7.26776e-05 -4.94484e-05 6.31157e-05 0.000680719 0.000108754 0.000140573 0.00694698 
266 1 1 0.0217588 0.0233197 0.058673 0 0 0 -1.14409e-05 2.8397e-06 -1.49007e-06 4.87227e-05 7.29541e-06 2.42004e-05 -0.00132682 -0.0026781 0.000598728 0.00694698 
298 1 1 0.0302846 0.0135353 0.0553188 0 0 0 -7.79631e-06 -5.47526e-06 -1.01902e-05 6.77943e-05 3.17767e-06 3.574e-05 0.00208638 0.000245896 -0.000545096 0.00694698 
262 1 1 -0.0377382 0.0287333 0.0508386 0 0 0 3.62543e-06 8.2862e-06 6.23043e-05 5.90074e-05 -4.77379e-05 4.28124e-05 0.00241477 0.00184723 -0.00107673 0.00694698 
99 1 1 -0.00360818 0.0303682 0.0615072 0 0 0 -1.55757e-05 -6.8215e-06 5.74971e-05 0.000224449 -0.000232975 0.000278187 0.00323811 0.000112657 0.00107031 0.0111152 
122 1 1 -0.0274283 0.0409191 0.0558336 0 0 0 1.15411e-05 -9.97464e-07 4.4074e-05 0.000129603 -7.21658e-05 0.000117957 -0.00173003 0.00328495 0.00107634 0.0111152 
158 1 1 0.000206949 0.0448778 0.0561864 0 0 0 -5.0137e-06 -5.61347e-07 5.0317e-05 2.4135e-05 -2.14002e-05 5.11635e-05 -0.00721706 -0.00751617 -0.000712355 0.00694698 
47 1 1 0.0244974 0.0400921 0.0559318 0 0 0 -8.22499e-06 -9.88702e-08 4.37728e-06 2.25739e-05 1.39798e-05 -5.55548e-06 0.000479456 -0.0022599 -0.000245322 0.0111152 
203 1 1 0.0420083 0.0441913 0.0569424 0 0 0 -5.78487e-06 -1.64902e-06 6.59859e-06 1.83606e-06 3.04649e-06 -8.49514e-06 -0.000481605 -0.00103642 -0.00108854 0.00694698 
6 1 1 -0.0273257 -0.0408019 0.0684914 0 0 0 -3.15542e-06 -5.58209e-06 4.84041e-06 0.000245101 4.00967e-05 0.000123635 0.000661628 -0.00091617 9.32339e-05 0.0111152 
190 1 1 -0.00862794 -0.0442093 0.0646034 0 0 0 -2.46678e-06 -6.65501e-06 1.35872e-05 5.25515e-05 -1.06433e-06 3.82705e-05 0.0018275 -0.00112788 0.000912939 0.00694698 
189 1 1 0.0268464 -0.0442003 0.0673438 0 0 0 5.33689e-06 -4.2204e-06 -2.44583e-06 5.2827e-05 1.41796e-06 2.21033e-05 -0.00027543 0.0013008 -1.55372e-05 0.00694698 
186 1 1 0.0437407 -0.0441968 0.0738313 0 0 0 -2.72956e-06 1.36007e-05 1.65235e-05 7.90661e-06 -6.02929e-06 -8.91289e-06 2.1082e-05 0.000961206 7.04223e-05 0.00694698 
313 1 1 -0.0118608 -0.0316738 0.0682092 0 0 0 1.25804e-05 -1.86646e-05 3.92169e-05 0.00014909 7.66532e-06 7.71568e-05 0.00283737 0.000315069 -0.00345908 0.00694698 
227 1 1 0.00766376 -0.025394 0.0722237 0 0 0 2.829e-05 -9.90129e-06 3.91936e-05 0.000178289 1.99742e-06 0.000122639 0.00171178 0.00459428 -0.000346637 0.00694698 
91 1 1 0.0235312 -0.0277778 0.0665881 0 0 0 1.04498e-05 -1.63557e-05 -1.26623e-05 0.000455051 8.37727e-05 0.000320892 -0.000981723 0.00150238 -0.000322925 0.0111152 
247 1 1 0.0400879 -0.0264408 0.0680859 0 0 0 1.05067e-05 -2.21186e-06 -1.62161e-05 4.99439e-05 4.03523e-05 8.67854e-05 0.000572247 -0.00103762 0.00124616 0.00694698 
36 1 1 -0.0407301 -0.0173219 0.0691411 0 0 0 -3.68862e-06 -5.00672e-06 1.9122e-05 0.000294171 5.97569e-05 0.000226969 0.00109294 -0.00122977 -0.00032441 0.0111152 
137 1 1 -0.00226755 -0.0232153 0.0635621 0 0 0 1.68042e-05 -1.71037e-05 4.89648e-05 0.000198125 -1.7061e-05 0.000132405 0.000882016 0.00170201 0.0015814 0.00694698 
276 1 1 0.0201771 -0.0125509 0.0722588 0 0 0 3.34939e-05 -1.6289e-05 -1.19005e-05 9.54701e-05 6.60185e-05 0.000198751 -0.000756677 0.00957921 1.76012e-05 0.00694698 
215 1 1 0.0333366 -0.0151385 0.0705855 0 0 0 -1.24434e-06 -1.76697e-05 -3.36786e-05 8.21553e-05 5.64068e-05 0.000165433 0.00176613 -0.00480539 0.000901257 0.00694698 
217 1 1 0.0446141 -0.0151032 0.0644107 0 0 0 3.13619e-06 8.11849e-07 -4.47745e-06 2.95664e-05 2.91002e-05 4.54646e-05 0.000426547 -7.19515e-05 0.000596562 0.00694698 
182 1 1 -0.0291259 -0.00430657 0.0735736 0 0 0 1.87052e-05 1.48631e-05 6.08431e-05 0.000133056 -3.1735e-06 0.000121723 -0.00488112 0.00115161 0.00132118 0.00694698 
10 1 1 0.00493184 -0.00796365 0.0666214 0 0 0 9.43877e-06 -1.1398e-05 3.81321e-05 0.000766813 -2.70873e-05 0.000731692 0.000136906 0.00130324 0.000102655 0.0111152 
148 1 1 0.0445355 -0.00238307 0.0634358 0 0 0 -1.15793e-07 4.25921e-06 -1.7858e-06 3.6516e-05 1.24362e-05 4.89884e-05 0.000293028 -0.000947883 -0.000755295 0.00694698 
32 1 1 -0.0399491 0.00415225 0.0635931 0 0 0 6.71968e-06 -2.315e-06 3.90499e-05 0.000273683 -0.000126978 0.000277278 0.000631552 -0.000833761 -0.000435991 0.0111152 
197 1 1 -0.0192982 0.00213558 0.06601 0 0 0 1.03368e-05 -3.04597e-06 8.72671e-05 0.000178685 -5.96494e-05 0.000154007 0.000635649 0.0022256 0.000733625 0.00694698 
115 1 1 -0.00374332 0.010581 0.06873 0 0 0 -4.50091e-06 1.31443e-06 4.25875e-05 0.000538815 -0.000111369 0.000489186 -0.00172818 0.00116001 -0.000387422 0.0111152 
87 1 1 0.0291356 0.000600413 0.0669644 0 0 0 -6.94361e-06 -6.97988e-06 -3.08243e-05 0.00033255 0.000148656 0.000605707 0.000271799 -0.00196706 0.00241445 0.0111152 