ITEM: TIMESTEP
68600
ITEM: NUMBER OF ATOMS
338
ITEM: BOX BOUNDS mm mm mm
-0.05 0.05
-0.05 0.05
0 0.15
ITEM: ATOMS id type type x y z ix iy iz vx vy vz fx fy fz omegax omegay omegaz radius 
131 1 1 -0.0257481 -0.0400546 0.00560327 0 0 0 1.44645e-07 3.07712e-07 5.22745e-07 7.2696e-08 9.89527e-08 1.69333e-07 -4.38028e-05 -1.10382e-06 -8.38772e-07 0.00694698 
319 1 1 -0.0146874 -0.0445409 0.00605301 0 0 0 6.29838e-08 1.579e-07 3.42199e-07 3.47923e-08 4.66328e-08 1.17843e-07 3.33718e-06 2.44024e-05 -1.54363e-05 0.00694698 
243 1 1 -0.00279117 -0.043873 0.0061044 0 0 0 -5.10644e-08 8.33026e-08 2.76007e-07 -1.77163e-09 2.1107e-08 8.49029e-08 2.30519e-05 -3.47819e-05 2.01499e-05 0.00694698 
260 1 1 0.0252546 -0.0438307 0.0059405 0 0 0 -8.86288e-08 1.74679e-07 3.87055e-07 -4.01026e-08 7.69743e-08 1.65702e-07 2.59792e-05 1.7301e-06 8.11341e-06 0.00694698 
78 1 1 0.0413085 -0.0407811 0.00927582 0 0 0 -6.64053e-08 1.34572e-07 3.01569e-07 -1.91653e-07 3.18265e-07 5.9289e-07 1.19473e-05 1.87538e-05 -6.94527e-06 0.0111152 
74 1 1 -0.040828 -0.0367696 0.0095971 0 0 0 1.84456e-07 2.24761e-07 2.95645e-07 3.66296e-07 4.22439e-07 5.40423e-07 -8.22294e-07 -4.58239e-06 4.3323e-06 0.0111152 
296 1 1 -0.0274829 -0.0274567 0.0061219 0 0 0 1.97332e-07 2.85067e-07 5.35405e-07 1.16134e-07 1.14894e-07 1.96439e-07 -2.38998e-05 -2.04801e-05 8.20483e-06 0.00694698 
173 1 1 -0.0155729 -0.0319598 0.0055745 0 0 0 1.45271e-07 2.58021e-07 6.91133e-07 8.58668e-08 9.884e-08 2.34053e-07 7.90837e-06 2.11071e-05 -6.72957e-06 0.00694698 
275 1 1 -0.0035902 -0.0297747 0.00572448 0 0 0 7.62824e-08 3.11559e-07 6.75738e-07 4.11628e-08 1.38191e-07 2.42291e-07 1.02636e-05 -8.56342e-06 5.00449e-08 0.00694698 
60 1 1 0.0105837 -0.0360376 0.00947775 0 0 0 -8.5038e-08 2.403e-07 8.37654e-07 -1.87261e-07 2.587e-07 1.34723e-06 7.87209e-06 4.85451e-06 -1.02051e-05 0.0111152 
102 1 1 -0.0405428 -0.0169477 0.00905849 0 0 0 1.53922e-07 2.59445e-07 2.08917e-07 3.65793e-07 5.16952e-07 4.57881e-07 -2.3061e-05 1.41546e-05 1.20498e-05 0.0111152 
328 1 1 -0.0254333 -0.01519 0.00543683 0 0 0 1.66734e-07 2.66513e-07 2.42233e-07 1.01445e-07 1.08864e-07 7.71171e-08 -3.83092e-05 -3.86944e-05 -1.20609e-05 0.00694698 
40 1 1 -0.0106765 -0.0158183 0.0106462 0 0 0 1.01577e-07 3.06433e-07 1.20889e-06 1.35436e-07 3.03085e-07 2.70701e-06 1.0532e-05 -2.56851e-05 9.78909e-06 0.0111152 
279 1 1 0.00440774 -0.0207351 0.0109054 0 0 0 6.29729e-08 3.77836e-07 1.57441e-06 2.50609e-08 9.65697e-08 7.85143e-07 7.98848e-05 -5.71568e-06 -7.5898e-06 0.00694698 
267 1 1 0.0155005 -0.0199621 0.00561744 0 0 0 -8.00092e-08 3.37381e-07 1.04749e-06 -5.044e-08 1.41548e-07 4.82756e-07 7.15283e-06 7.12435e-06 -4.4881e-06 0.00694698 
144 1 1 0.0430495 -0.0248667 0.00596799 0 0 0 -1.66094e-08 1.44333e-07 4.07942e-07 -1.96874e-08 8.68365e-08 2.06362e-07 -1.01073e-05 4.48385e-05 -2.53944e-05 0.00694698 
202 1 1 0.0452017 -0.0129601 0.00612949 0 0 0 -4.49757e-08 1.20333e-07 2.81493e-07 -2.80369e-08 1.06165e-07 1.69617e-07 -1.51951e-05 3.23808e-05 1.61583e-05 0.00694698 
257 1 1 -0.0442073 -0.00104702 0.00624945 0 0 0 -3.40513e-09 -1.81755e-08 2.10755e-07 7.1063e-09 -3.65195e-09 1.02366e-07 3.00324e-05 -4.25968e-05 -4.66451e-06 0.00694698 
274 1 1 -0.0220225 -0.0037788 0.00775193 0 0 0 1.62749e-07 2.01884e-07 1.21299e-06 4.9938e-08 4.86333e-08 7.38925e-07 0.000149621 -0.000138508 2.92399e-06 0.00694698 
50 1 1 0.0305736 -0.00918801 0.00973542 0 0 0 -9.70419e-08 1.55738e-07 8.21282e-07 -2.59319e-07 1.76916e-07 1.72548e-06 -3.20394e-05 1.01942e-05 -1.22611e-05 0.0111152 
232 1 1 -0.0434387 0.0118756 0.00626166 0 0 0 1.28793e-07 -1.17965e-07 4.4901e-07 7.98289e-08 -7.21709e-08 2.46125e-07 1.46353e-05 -1.65447e-05 -2.62374e-05 0.00694698 
268 1 1 -0.0326769 0.00368232 0.00609412 0 0 0 1.80376e-07 2.27662e-08 1.12202e-06 8.70437e-08 1.55361e-08 6.13746e-07 3.89629e-05 -6.16858e-06 3.25168e-05 0.00694698 
171 1 1 -0.021197 0.00798668 0.0082347 0 0 0 4.31969e-07 1.49767e-07 2.07382e-06 2.82338e-07 8.47534e-09 1.26021e-06 -1.5662e-05 -5.85105e-05 -3.55315e-05 0.00694698 
164 1 1 0.0205999 0.00173767 0.00544625 0 0 0 -1.07071e-07 8.26036e-08 7.62906e-07 -1.24854e-07 -6.48489e-08 3.80358e-07 -5.0123e-06 4.43092e-05 -9.80783e-06 0.00694698 
297 1 1 -0.0253905 0.019586 0.00549867 0 0 0 3.61804e-07 -5.08639e-08 1.41168e-06 2.6708e-07 -7.77754e-08 8.48944e-07 -1.75451e-05 3.88032e-05 4.34267e-05 0.00694698 
222 1 1 -0.0108508 0.0145911 0.00545571 0 0 0 2.99263e-07 8.70343e-08 1.50397e-06 2.27821e-07 -3.38493e-08 9.25961e-07 -7.65445e-05 7.41245e-05 3.75103e-05 0.00694698 
290 1 1 -0.000799305 0.0214674 0.00523786 0 0 0 7.44234e-08 -3.0603e-08 1.03685e-06 7.71885e-08 -1.00529e-07 7.37556e-07 -2.9254e-05 -3.9016e-05 -1.88871e-05 0.00694698 
98 1 1 0.0122233 0.0135227 0.00979354 0 0 0 1.06033e-07 1.11178e-07 1.57802e-06 2.07442e-07 -5.87778e-07 4.41099e-06 -3.27749e-05 7.17564e-05 7.00389e-06 0.0111152 
316 1 1 0.0321802 0.019578 0.00502883 0 0 0 -7.69456e-10 -7.40671e-08 3.02843e-07 -2.1659e-08 -7.57215e-08 1.47778e-07 2.7113e-05 5.60307e-06 2.27603e-05 0.00694698 
162 1 1 0.0446349 0.0202023 0.00544624 0 0 0 2.49459e-08 2.73435e-08 3.1555e-07 2.04815e-09 -5.07668e-09 1.97941e-07 -6.26431e-05 3.1709e-05 2.39888e-06 0.00694698 
294 1 1 -0.0439424 0.0252727 0.0061394 0 0 0 2.04277e-07 -1.93298e-07 2.71394e-07 1.43636e-07 -1.47646e-07 1.7158e-07 1.96148e-06 1.64687e-05 -1.53991e-07 0.00694698 
175 1 1 -0.0327496 0.0313742 0.00614205 0 0 0 2.14862e-07 -4.48778e-07 4.75138e-07 1.71749e-07 -3.13903e-07 3.15659e-07 8.33605e-05 6.6695e-06 -1.61265e-05 0.00694698 
255 1 1 -0.0148477 0.0261367 0.00587597 0 0 0 1.90661e-07 8.85119e-09 9.12054e-07 1.57889e-07 -5.13808e-08 5.97138e-07 -6.04159e-05 4.86032e-05 4.91115e-06 0.00694698 
324 1 1 -0.00330542 0.0326855 0.0056693 0 0 0 3.55878e-08 1.35891e-07 2.69935e-07 1.99388e-08 7.53411e-08 1.67117e-07 -4.64108e-05 -1.1715e-05 2.35283e-05 0.00694698 
161 1 1 0.00824506 0.0320299 0.00644882 0 0 0 -9.98757e-08 1.69579e-07 7.94956e-07 -1.13475e-07 4.7226e-08 6.30529e-07 -9.64481e-05 -2.82671e-05 -5.34116e-05 0.00694698 
77 1 1 0.0226325 0.0295981 0.012343 0 0 0 -8.46623e-08 -2.46818e-07 1.01803e-06 -4.44715e-07 -1.41289e-06 3.18838e-06 2.45301e-05 5.65942e-06 -7.99588e-06 0.0111152 
155 1 1 0.0376085 0.0311764 0.00564482 0 0 0 -7.17277e-08 -9.99015e-08 4.79114e-07 -9.21943e-08 -8.32046e-08 3.28057e-07 2.68961e-05 1.76269e-05 -1.94079e-06 0.00694698 
321 1 1 -0.04402 0.0437755 0.00629381 0 0 0 1.15756e-07 -5.77594e-08 1.56678e-07 8.15181e-08 -5.03152e-08 1.11167e-07 -1.40754e-05 5.77591e-06 1.27995e-05 0.00694698 
207 1 1 -0.0314325 0.0439672 0.00637411 0 0 0 6.01902e-08 -9.18876e-08 2.91858e-07 3.08505e-08 -8.39006e-08 2.19018e-07 -4.38211e-05 -8.40443e-06 2.95564e-06 0.00694698 
38 1 1 -0.0153313 0.0415941 0.0097906 0 0 0 3.95103e-08 -1.43223e-08 2.1869e-07 7.28034e-08 -1.89062e-07 6.39875e-07 -1.13617e-05 1.99022e-05 1.51317e-05 0.0111152 
149 1 1 0.0120644 0.043872 0.00543326 0 0 0 9.47256e-08 -7.78996e-08 1.39961e-07 9.252e-08 -9.36307e-08 1.21514e-07 6.01429e-06 -1.70117e-06 -5.10972e-06 0.00694698 
237 1 1 0.0011871 0.0437539 0.0121483 0 0 0 -9.21823e-09 7.96756e-08 4.50062e-08 -1.58487e-08 3.77384e-08 1.1442e-08 -3.07554e-06 -1.35595e-05 -1.51174e-05 0.00694698 
249 1 1 0.0277053 0.0441438 0.00611632 0 0 0 -7.8172e-09 -2.0409e-07 5.07073e-07 -5.57123e-08 -2.06669e-07 4.22024e-07 -2.29298e-05 2.89729e-05 -1.13519e-05 0.00694698 
289 1 1 0.0443721 0.0422256 0.00592204 0 0 0 -3.64995e-08 -2.28237e-07 4.2985e-07 -6.11645e-08 -1.80981e-07 3.38985e-07 4.41344e-05 4.13025e-05 2.54693e-05 0.00694698 
331 1 1 -0.0432693 -0.0455642 0.0218634 0 0 0 1.27644e-07 1.53164e-07 1.72018e-07 3.44226e-08 4.71409e-08 5.42047e-08 1.65059e-05 -5.95499e-06 -6.57908e-06 0.00694698 
299 1 1 -0.0246085 -0.0451872 0.0168094 0 0 0 1.53231e-07 4.00396e-07 8.01311e-07 3.38422e-08 1.00956e-07 1.9354e-07 0.000101496 7.72625e-06 -1.37125e-05 0.00694698 
225 1 1 -0.0115498 -0.0442709 0.0185952 0 0 0 1.06981e-07 4.15755e-07 1.00827e-06 1.57652e-08 7.92305e-08 3.64532e-07 4.57941e-05 -1.87703e-05 -2.05413e-06 0.00694698 
242 1 1 0.00106186 -0.0446807 0.0196824 0 0 0 8.09664e-08 1.66699e-07 8.80043e-07 2.79352e-08 -5.80717e-09 3.21472e-07 0.00013186 6.60755e-05 -2.54325e-05 0.00694698 
130 1 1 0.0208357 -0.0442058 0.0182027 0 0 0 -6.57488e-08 -3.84446e-08 4.56679e-07 -4.98189e-08 -3.75143e-08 1.86707e-07 5.10394e-05 5.61831e-06 1.33623e-05 0.00694698 
167 1 1 0.0319451 -0.0442251 0.0228862 0 0 0 -1.19457e-07 1.17421e-07 5.69571e-07 -6.87866e-08 5.03664e-08 2.84169e-07 1.98938e-05 -1.13496e-05 1.39739e-05 0.00694698 
136 1 1 0.0442903 -0.0447089 0.0241887 0 0 0 -1.3208e-07 1.28474e-07 3.44146e-07 -5.48332e-08 7.4369e-08 1.43732e-07 2.6553e-05 4.07942e-06 1.21272e-05 0.00694698 
179 1 1 -0.0345746 -0.0262027 0.0213893 0 0 0 3.2858e-07 6.68107e-07 8.56481e-07 1.76226e-07 2.72257e-07 2.89931e-07 -2.23966e-05 -7.29533e-05 9.19757e-06 0.00694698 
7 1 1 -0.0200353 -0.030427 0.0211168 0 0 0 3.31398e-07 6.00499e-07 1.67925e-06 5.07686e-07 4.41342e-07 2.45093e-06 -1.24231e-05 1.11239e-06 -1.34566e-05 0.0111152 
104 1 1 -0.000112752 -0.0285696 0.0247238 0 0 0 2.49776e-07 5.26023e-07 1.93254e-06 4.67671e-07 6.64322e-08 3.40018e-06 -1.97836e-05 1.68365e-05 3.69528e-06 0.0111152 
67 1 1 0.0278423 -0.0280453 0.0126282 0 0 0 -1.45609e-07 2.85918e-07 1.2291e-06 -2.2228e-07 5.00938e-07 2.33846e-06 2.07899e-05 6.296e-06 6.83989e-06 0.0111152 
128 1 1 -0.0450313 -0.0217265 0.0238335 0 0 0 2.12222e-07 2.63404e-07 3.57754e-07 6.54354e-08 8.95337e-08 1.27622e-07 -3.31414e-05 -3.76278e-06 4.36237e-05 0.00694698 
278 1 1 0.0331688 -0.0161931 0.0241361 0 0 0 -2.85252e-07 5.1112e-07 1.63739e-06 -2.17018e-07 3.0132e-07 8.72868e-07 -8.63435e-06 2.22956e-05 1.32957e-05 0.00694698 
146 1 1 -0.044873 -0.00919979 0.0224711 0 0 0 2.27375e-07 -1.55632e-07 1.21459e-06 1.2269e-07 -1.29342e-07 6.38175e-07 0.000252004 -0.000157503 -8.42624e-05 0.00694698 
96 1 1 0.0119172 -0.00721234 0.0161322 0 0 0 2.85262e-07 4.21885e-07 2.05969e-06 7.89367e-07 1.71872e-07 4.55831e-06 -1.82518e-05 7.40467e-05 -2.47577e-06 0.0111152 
183 1 1 0.0447601 -0.00703515 0.017542 0 0 0 -2.61453e-07 1.19665e-07 6.73575e-07 -1.84866e-07 8.39894e-08 4.5248e-07 8.53435e-05 8.51711e-06 3.75153e-05 0.00694698 
25 1 1 -0.0377541 0.00483183 0.0223891 0 0 0 7.90307e-07 1.49589e-07 2.73093e-06 1.95691e-06 -2.34599e-07 6.0169e-06 -7.10014e-05 3.48609e-05 3.58514e-05 0.0111152 
17 1 1 -0.00526008 0.00256307 0.0144081 0 0 0 2.68993e-07 2.99556e-07 2.51634e-06 6.40456e-07 4.14675e-08 6.58407e-06 2.71655e-05 -4.48777e-05 -2.19717e-05 0.0111152 
94 1 1 0.0384742 0.00842693 0.0134968 0 0 0 -4.71105e-07 2.11861e-07 1.01525e-06 -1.65416e-06 6.31792e-07 2.89709e-06 -2.63973e-05 -0.000141611 2.21252e-05 0.0111152 
300 1 1 -0.0447061 0.0189524 0.017051 0 0 0 3.26538e-07 -1.62428e-07 8.93768e-07 2.30642e-07 -1.44046e-07 5.1591e-07 -4.02999e-05 -6.56689e-05 -2.71423e-05 0.00694698 
273 1 1 -0.0327467 0.0189504 0.0155433 0 0 0 5.9825e-07 -2.45492e-07 1.93217e-06 4.08471e-07 -2.67902e-07 1.11289e-06 4.75431e-06 -5.61021e-05 -4.27026e-06 0.00694698 
28 1 1 -0.0168118 0.0183632 0.0204916 0 0 0 6.38101e-07 1.48118e-07 2.62716e-06 1.70431e-06 -4.72901e-07 6.87351e-06 -1.8246e-06 -2.58198e-06 1.60687e-05 0.0111152 
286 1 1 -0.00173314 0.0186073 0.0168811 0 0 0 4.14497e-07 2.94867e-07 2.27898e-06 3.47187e-07 -1.42809e-08 1.5562e-06 -0.000133538 4.00703e-05 2.94645e-05 0.00694698 
305 1 1 -0.0436936 0.0348177 0.0156113 0 0 0 1.0497e-07 -3.57701e-07 4.5494e-07 9.0654e-08 -2.57398e-07 3.11698e-07 3.17678e-05 -6.54022e-05 -4.51478e-05 0.00694698 
23 1 1 -0.0279413 0.0337349 0.0221096 0 0 0 3.12695e-07 -7.38479e-09 1.19132e-06 1.06007e-06 -6.92228e-07 3.25436e-06 -0.000112261 3.80593e-06 4.84133e-05 0.0111152 
320 1 1 0.00379661 0.0296091 0.018379 0 0 0 -3.64984e-07 1.23798e-07 1.66505e-06 -3.759e-07 -1.5907e-08 1.17885e-06 0.000137139 -7.40431e-06 7.606e-05 0.00694698 
284 1 1 0.0446347 0.0273726 0.015737 0 0 0 8.07022e-08 -3.04852e-07 3.71897e-07 3.78216e-08 -2.77991e-07 2.57045e-07 0.000111158 3.63933e-05 6.27349e-05 0.00694698 
239 1 1 0.0187751 0.0448273 0.0154887 0 0 0 -2.76717e-07 -3.02869e-07 7.04235e-07 -2.91356e-07 -2.87485e-07 6.01316e-07 -2.2258e-05 -7.61744e-05 1.55833e-05 0.00694698 
61 1 1 0.037083 0.0409697 0.0204872 0 0 0 -2.1072e-07 -3.96017e-07 8.79132e-07 -8.6158e-07 -1.75759e-06 2.81805e-06 -3.42453e-05 -2.8025e-05 -9.90472e-06 0.0111152 
224 1 1 -0.0437842 -0.0444768 0.0343523 0 0 0 1.27057e-07 -1.05139e-08 2.28596e-07 1.81084e-08 -2.79116e-08 7.43649e-08 3.67073e-05 -5.05701e-06 -2.41024e-05 0.00694698 
256 1 1 -0.0327608 -0.0400947 0.0257176 0 0 0 4.2547e-08 2.17227e-07 9.71565e-07 9.38396e-09 1.78245e-08 2.49557e-07 4.19643e-05 -0.000104112 5.68153e-06 0.00694698 
42 1 1 -0.0120031 -0.0408869 0.0355063 0 0 0 2.70854e-07 7.39238e-07 1.83753e-06 3.36004e-07 4.58735e-07 3.00351e-06 5.98496e-05 1.65305e-05 -2.75099e-05 0.0111152 
271 1 1 0.0313717 -0.040779 0.0343154 0 0 0 -3.00036e-07 6.12509e-07 1.25985e-06 -8.5509e-08 1.72121e-07 5.63749e-07 -1.83445e-05 3.50429e-06 -4.59748e-05 0.00694698 
125 1 1 0.0438559 -0.0440726 0.0371344 0 0 0 3.37212e-08 -1.46712e-08 4.62593e-07 2.53335e-08 -1.58506e-08 1.69356e-07 5.49039e-05 7.24725e-05 -1.04139e-05 0.00694698 
180 1 1 -0.0442349 -0.0338853 0.0265895 0 0 0 2.04094e-07 2.01018e-07 4.27356e-07 7.86082e-08 5.41648e-08 1.66072e-07 1.83517e-05 -1.03693e-05 1.97034e-06 0.00694698 
120 1 1 0.0409684 -0.0296039 0.0290176 0 0 0 -2.31008e-07 2.77082e-07 1.08472e-06 -5.22819e-07 5.52528e-07 2.23612e-06 9.6204e-06 5.3864e-05 -1.55058e-05 0.0111152 
178 1 1 -0.012639 -0.0206732 0.0321261 0 0 0 5.3481e-07 7.05608e-07 2.80657e-06 2.34624e-07 -7.5897e-08 1.3524e-06 -7.18262e-05 5.88424e-06 1.38506e-06 0.00694698 
51 1 1 0.0185589 -0.0226609 0.0301883 0 0 0 -9.95827e-08 6.67215e-07 2.44303e-06 -4.76424e-08 5.79495e-07 4.61095e-06 -5.85646e-06 -1.71912e-05 -1.85192e-05 0.0111152 
134 1 1 0.0440827 -0.0143844 0.0325108 0 0 0 -3.32189e-07 1.98987e-07 1.09424e-06 -2.00309e-07 1.17357e-07 6.9689e-07 1.95078e-05 6.75849e-05 3.39049e-05 0.00694698 
19 1 1 -0.0263969 -0.0120069 0.0273708 0 0 0 9.06255e-07 7.39872e-07 3.09568e-06 1.95947e-06 5.844e-07 6.4019e-06 0.00014915 -8.72195e-05 -2.81381e-05 0.0111152 
310 1 1 -0.0104365 -0.00898782 0.0299637 0 0 0 6.77049e-07 4.71492e-07 3.79059e-06 3.2803e-07 -1.57888e-07 2.03951e-06 0.000261032 0.000170185 4.07556e-06 0.00694698 
258 1 1 0.00094995 -0.012339 0.0275496 0 0 0 4.69096e-07 6.74774e-07 2.20197e-06 2.65354e-07 6.04899e-08 9.9636e-07 3.38319e-05 -2.54056e-05 -2.88087e-05 0.00694698 
18 1 1 0.0121869 -0.00447301 0.0369605 0 0 0 -2.6789e-07 2.63299e-07 3.32341e-06 -1.38729e-06 -1.44502e-06 8.38096e-06 9.13603e-05 -9.51299e-05 1.26261e-05 0.0111152 
184 1 1 0.0277391 -0.00806877 0.0328957 0 0 0 -3.54441e-07 4.38871e-07 2.90417e-06 -3.34088e-07 8.3181e-08 1.80276e-06 6.09097e-05 0.000102867 -2.17178e-05 0.00694698 
112 1 1 -0.0179401 0.0046842 0.0351755 0 0 0 1.0878e-06 3.9084e-07 4.73587e-06 2.94904e-06 -9.6201e-07 1.19946e-05 -8.05937e-05 -4.46677e-05 -1.17913e-05 0.0111152 
160 1 1 -0.00258793 0.00066176 0.0310723 0 0 0 4.42967e-07 3.24008e-07 3.59865e-06 1.937e-07 -2.23909e-07 2.08292e-06 -5.68126e-06 0.000162461 3.28202e-05 0.00694698 
55 1 1 0.0406908 0.00155576 0.0321766 0 0 0 -7.24899e-07 1.88923e-07 1.65013e-06 -2.37766e-06 4.41586e-07 4.79269e-06 1.73026e-05 0.000109496 1.11632e-05 0.0111152 
2 1 1 -0.0316934 0.0196551 0.0354848 0 0 0 1.04883e-06 5.05135e-07 2.8654e-06 3.39022e-06 8.25733e-08 7.50125e-06 -3.83094e-05 3.17534e-06 1.69844e-05 0.0111152 
100 1 1 0.00652128 0.0141766 0.0298281 0 0 0 8.11652e-08 4.99181e-07 3.96978e-06 -1.41569e-07 -4.79195e-08 1.15705e-05 4.0889e-05 -5.14291e-05 -8.07929e-06 0.0111152 
261 1 1 0.043399 0.0180072 0.0268078 0 0 0 -1.08009e-06 3.2998e-07 1.3907e-06 -9.35591e-07 2.74481e-07 1.07541e-06 2.33169e-05 9.80353e-05 -3.46727e-05 0.00694698 
246 1 1 -0.0443139 0.0262016 0.0275324 0 0 0 5.71161e-07 -8.68752e-08 1.19405e-06 4.49233e-07 -1.69895e-07 7.82827e-07 -4.2615e-05 -9.54584e-05 -2.12221e-05 0.00694698 
69 1 1 -0.00686327 0.0298272 0.0340233 0 0 0 1.44769e-07 1.51146e-07 4.30489e-06 -1.44131e-07 -1.21508e-06 1.41747e-05 -3.26466e-06 1.99457e-05 1.74124e-05 0.0111152 
108 1 1 0.0262495 0.0288961 0.0325398 0 0 0 -5.51354e-07 -2.21178e-07 2.12974e-06 -2.41505e-06 -1.64257e-06 6.92239e-06 -8.14526e-05 -5.09663e-06 -4.39621e-06 0.0111152 
9 1 1 -0.0407958 0.0418491 0.032558 0 0 0 1.36751e-07 1.29316e-07 4.70284e-07 4.93965e-07 1.00846e-07 1.2963e-06 -5.11736e-05 -1.04449e-05 2.62324e-05 0.0111152 
323 1 1 -0.00700761 0.0443556 0.0261317 0 0 0 -2.65131e-07 -4.2302e-07 2.30821e-06 -3.79985e-07 -4.84332e-07 1.9652e-06 -0.000355018 7.78551e-05 -2.99979e-05 0.00694698 
16 1 1 0.0103834 0.0409506 0.0288255 0 0 0 -4.16915e-07 -2.73155e-07 1.74741e-06 -1.99352e-06 -1.49619e-06 5.60338e-06 -9.16187e-05 7.30973e-05 -2.70289e-05 0.0111152 
329 1 1 -0.0243337 -0.0448883 0.0452014 0 0 0 2.79116e-07 5.02417e-07 1.36521e-06 7.53778e-08 2.4664e-08 4.96032e-07 0.000147941 -2.62291e-05 -4.72514e-05 0.00694698 
168 1 1 0.00170639 -0.0450129 0.040199 0 0 0 -1.07234e-08 1.21096e-07 1.20079e-06 1.74415e-08 -7.23659e-08 3.31846e-07 0.000207316 -8.91552e-06 1.96058e-05 0.00694698 
3 1 1 0.0165061 -0.0408746 0.039313 0 0 0 -2.50731e-07 5.10101e-07 1.62329e-06 -2.43846e-07 3.52902e-07 2.59312e-06 0.000118716 2.23286e-05 2.29818e-05 0.0111152 
283 1 1 0.0310352 -0.0446314 0.0458371 0 0 0 -2.38789e-07 4.09243e-07 1.05477e-06 -9.77602e-08 8.27312e-08 5.16686e-07 0.000111594 -2.05097e-05 6.48774e-05 0.00694698 
211 1 1 -0.0439276 -0.0331951 0.0391794 0 0 0 3.52041e-07 4.29696e-08 7.81159e-07 4.63703e-08 -7.10454e-08 2.31429e-07 1.3717e-05 -3.23119e-05 1.26439e-05 0.00694698 
93 1 1 -0.0271457 -0.0292817 0.0419053 0 0 0 4.99969e-07 7.98113e-07 2.44444e-06 6.91377e-07 2.38297e-07 3.8287e-06 -3.14241e-08 -7.35465e-05 5.70448e-05 0.0111152 
191 1 1 0.00287896 -0.0323181 0.0407477 0 0 0 2.28224e-08 6.87285e-07 2.86889e-06 3.80593e-08 -2.31606e-09 1.13747e-06 4.13975e-05 -2.55467e-05 -6.03422e-05 0.00694698 
105 1 1 0.0303968 -0.0280612 0.0465898 0 0 0 -3.46358e-07 6.3933e-07 2.44183e-06 -6.03026e-07 3.27515e-07 5.01306e-06 2.12639e-05 2.90937e-05 -8.59699e-06 0.0111152 
66 1 1 -0.041682 -0.0169767 0.0389235 0 0 0 2.18271e-07 2.24588e-07 1.22689e-06 2.91701e-07 -3.38118e-07 1.83024e-06 3.85184e-05 -7.23205e-05 -1.49237e-05 0.0111152 
43 1 1 -0.00882968 -0.0242901 0.0478754 0 0 0 4.79291e-07 1.05691e-06 4.23561e-06 7.65762e-07 -3.41175e-07 8.14474e-06 0.000126259 1.27196e-05 -2.80884e-05 0.0111152 
259 1 1 0.0241568 -0.0131299 0.0440616 0 0 0 -3.92753e-07 5.77341e-07 3.176e-06 -3.24328e-07 -1.03559e-07 1.78408e-06 1.44959e-05 1.57301e-05 2.42282e-05 0.00694698 
336 1 1 -0.0246139 -0.0117327 0.0453173 0 0 0 5.61724e-07 2.96501e-07 4.85439e-06 4.21759e-07 -1.1298e-06 3.09345e-06 1.52817e-05 -6.02192e-06 -5.25164e-05 0.00694698 
245 1 1 -0.000273883 -0.0118499 0.0427906 0 0 0 -2.07817e-07 1.12253e-06 4.72905e-06 -2.49351e-07 -6.40921e-08 2.38188e-06 1.78858e-05 0.000436326 -0.000147899 0.00694698 
303 1 1 0.0269175 -0.00136569 0.0493329 0 0 0 -2.15229e-07 6.94487e-07 4.64904e-06 -1.9786e-07 -1.1024e-07 3.30453e-06 0.000121145 0.00014901 -6.47291e-05 0.00694698 
5 1 1 0.0405047 -0.0106682 0.0488248 0 0 0 -2.66912e-07 3.7782e-07 1.87437e-06 -1.0555e-06 1.53388e-07 4.92304e-06 -2.02159e-05 5.56952e-05 -1.76283e-05 0.0111152 
107 1 1 -0.0382431 0.00195705 0.0431279 0 0 0 1.0807e-06 3.92585e-07 2.92302e-06 3.08651e-06 -5.62493e-07 6.86977e-06 5.69991e-05 -3.2027e-05 -2.32223e-05 0.0111152 
95 1 1 0.02393 0.0111489 0.0391398 0 0 0 -5.05545e-07 2.44176e-07 4.4401e-06 -2.2124e-06 -8.25534e-07 1.4546e-05 -7.35094e-05 8.08512e-05 -1.57497e-05 0.0111152 
318 1 1 0.044365 0.0047285 0.0485669 0 0 0 1.4176e-07 1.46627e-07 1.20179e-06 3.19257e-08 -1.66287e-08 9.3581e-07 -1.52604e-06 9.18123e-05 -8.09267e-06 0.00694698 
208 1 1 -0.0448665 0.0168567 0.0449706 0 0 0 5.22584e-07 3.20477e-07 1.94037e-06 3.9662e-07 -3.64535e-08 1.17933e-06 -6.90535e-05 -0.000242168 7.42975e-05 0.00694698 
282 1 1 -0.0182462 0.018533 0.0445892 0 0 0 8.06042e-07 5.7934e-07 4.57627e-06 6.68422e-07 -3.37968e-07 3.26785e-06 1.62905e-05 -0.000209597 5.89476e-06 0.00694698 
4 1 1 -0.00366643 0.0146154 0.0482211 0 0 0 6.38607e-07 8.62933e-07 6.13433e-06 2.20231e-06 -1.58705e-06 1.83686e-05 -6.55723e-05 2.03999e-05 -1.99842e-05 0.0111152 
58 1 1 0.0410775 0.0200219 0.043561 0 0 0 -3.69619e-07 5.33541e-08 2.00456e-06 -1.63617e-06 -4.50527e-07 6.7224e-06 4.97037e-06 8.20529e-05 1.08419e-05 0.0111152 
199 1 1 -0.0449272 0.0285898 0.0409786 0 0 0 3.51211e-07 2.23772e-07 1.35408e-06 3.42553e-07 -4.31709e-08 8.76012e-07 -3.76304e-05 -0.000144232 5.41047e-05 0.00694698 
192 1 1 -0.0256316 0.0271739 0.0481262 0 0 0 9.75663e-07 -9.92776e-08 3.71541e-06 8.30527e-07 -5.60963e-07 2.74281e-06 0.000116618 -0.000139003 -6.53314e-05 0.00694698 
292 1 1 -0.0146967 0.032469 0.0485798 0 0 0 1.113e-06 4.27728e-08 4.90879e-06 9.79515e-07 -6.05908e-07 4.23561e-06 -8.53647e-05 9.08594e-06 0.000120339 0.00694698 
73 1 1 0.0108552 0.0280466 0.0457835 0 0 0 5.01643e-07 4.7973e-07 3.86008e-06 1.00011e-06 -7.47733e-07 1.26083e-05 -6.64857e-05 0.000153536 -1.64438e-05 0.0111152 
327 1 1 -0.0435039 0.0432739 0.0497711 0 0 0 1.86383e-07 -9.18312e-08 3.93037e-07 2.6126e-07 -1.0089e-07 -1.21758e-08 4.15365e-05 -3.97844e-05 -1.90192e-05 0.00694698 
126 1 1 -0.0115806 0.044294 0.046458 0 0 0 3.05274e-07 -7.11071e-08 2.39001e-06 2.95824e-07 -3.68794e-07 2.2445e-06 -0.00038669 -0.0001922 5.36784e-05 0.00694698 
248 1 1 0.00018698 0.0432518 0.0425158 0 0 0 4.95304e-07 -1.25084e-07 2.78775e-06 3.19175e-07 -3.62429e-07 2.31948e-06 -1.93431e-05 0.000159991 6.56125e-05 0.00694698 
229 1 1 0.0125664 0.0445193 0.045416 0 0 0 5.44994e-07 2.82272e-07 1.36673e-06 2.79386e-07 -4.90369e-08 1.23349e-06 -0.000129879 3.999e-05 -4.93265e-06 0.00694698 
114 1 1 0.0401335 0.0408 0.0407341 0 0 0 -1.45362e-07 -9.8495e-08 1.11654e-06 -7.56094e-07 -8.11496e-07 3.53684e-06 -3.5753e-05 8.32514e-05 -1.06382e-05 0.0111152 
314 1 1 -0.0174739 -0.0445492 0.0555942 0 0 0 1.6178e-08 6.36239e-07 1.63018e-06 -1.17443e-07 6.30809e-09 5.89986e-07 6.49295e-05 -2.04823e-05 2.92367e-05 0.00694698 
337 1 1 -0.00609996 -0.0408572 0.0515865 0 0 0 1.43052e-07 9.56047e-07 2.46443e-06 3.94064e-08 8.4452e-08 1.05948e-06 -6.13688e-05 -8.07215e-05 4.04191e-05 0.00694698 
56 1 1 0.0068837 -0.0394003 0.0619726 0 0 0 -1.04361e-07 9.97294e-07 2.61898e-06 -3.90798e-07 1.11937e-06 5.83683e-06 0.000126642 1.83809e-05 3.28033e-05 0.0111152 
265 1 1 0.0220177 -0.043724 0.0552628 0 0 0 -4.38201e-09 3.6358e-07 1.16739e-06 -6.61179e-08 9.49943e-08 6.4892e-07 -4.54361e-05 5.82567e-05 -7.24152e-05 0.00694698 
49 1 1 0.0406724 -0.0407584 0.0580765 0 0 0 -2.23024e-08 2.24163e-07 9.479e-07 3.97792e-08 2.40623e-07 2.03519e-06 5.1536e-05 6.91108e-05 -9.80697e-06 0.0111152 
84 1 1 -0.0411457 -0.032993 0.0553186 0 0 0 3.05263e-07 5.65587e-07 1.47789e-06 -2.05628e-07 -1.05335e-07 1.99293e-06 -4.5115e-05 -4.97737e-05 2.87501e-05 0.0111152 
307 1 1 -0.0195837 -0.0324346 0.0571156 0 0 0 4.52487e-07 9.81443e-07 3.4089e-06 -7.06413e-08 -1.04809e-07 1.31994e-06 0.000102025 5.71818e-05 -9.03576e-05 0.00694698 
326 1 1 0.0447956 -0.0254458 0.0534947 0 0 0 2.91626e-08 2.48712e-07 1.23181e-06 4.24152e-08 -3.93324e-09 6.05002e-07 5.07045e-05 0.000192825 -3.7604e-05 0.00694698 
81 1 1 -0.0216684 -0.0170401 0.062432 0 0 0 9.62085e-07 9.10613e-07 5.33989e-06 1.9822e-06 -2.05692e-06 1.13301e-05 6.38686e-05 -6.40443e-05 -2.64795e-05 0.0111152 
52 1 1 0.0112853 -0.0221409 0.0507309 0 0 0 -1.22216e-07 1.03095e-06 3.63041e-06 -3.28384e-07 -2.31446e-08 7.02944e-06 -2.30566e-05 2.70503e-06 1.3819e-05 0.0111152 
332 1 1 0.026756 -0.0152036 0.0567084 0 0 0 7.71861e-09 8.63827e-07 3.12928e-06 -5.69414e-08 -2.96818e-08 1.60419e-06 -6.39435e-05 7.39574e-05 -9.00961e-06 0.00694698 
220 1 1 -0.043805 -0.00977095 0.0542181 0 0 0 5.14345e-07 1.03483e-07 1.6862e-06 2.99071e-07 -2.79175e-07 8.62509e-07 9.21884e-06 -1.67436e-05 -9.82297e-06 0.00694698 
133 1 1 -0.0272081 -0.00283241 0.0559954 0 0 0 1.20975e-06 5.0612e-07 4.83064e-06 8.20432e-07 -4.90247e-07 2.81091e-06 -0.000139721 -0.000191031 0.000116324 0.00694698 
24 1 1 -0.0102673 -0.00372081 0.0528007 0 0 0 9.77154e-07 1.41502e-06 6.72057e-06 3.36264e-06 -9.90355e-07 1.6685e-05 -7.23975e-06 -5.4347e-05 5.25245e-05 0.0111152 
240 1 1 0.0172585 -0.00749228 0.0553607 0 0 0 -8.0759e-08 1.0234e-06 5.43685e-06 -1.0306e-08 -2.14592e-07 3.53302e-06 0.000261005 0.000187718 -7.64085e-05 0.00694698 
236 1 1 -0.0236943 0.00828095 0.0507773 0 0 0 9.34539e-07 3.10375e-07 4.44541e-06 6.0089e-07 -5.13359e-07 2.75502e-06 7.83382e-05 1.00374e-05 2.86118e-05 0.00694698 
15 1 1 0.0136565 0.00817871 0.0563009 0 0 0 6.22113e-07 1.1537e-06 6.81787e-06 2.05174e-06 -1.10953e-06 2.13206e-05 -5.00255e-05 6.49938e-05 -2.70466e-05 0.0111152 
291 1 1 0.0437832 0.0122418 0.0588945 0 0 0 -8.80857e-09 -4.50039e-07 1.68616e-06 6.46439e-08 -5.19765e-07 1.40648e-06 0.000133861 2.84522e-05 8.61524e-05 0.00694698 
335 1 1 -0.0343158 0.0161596 0.0526643 0 0 0 9.55707e-07 1.45927e-07 3.47784e-06 6.57752e-07 -4.28065e-07 2.19399e-06 1.81891e-05 -4.8796e-05 -3.21328e-05 0.00694698 
266 1 1 0.0217589 0.0233197 0.0586731 0 0 0 2.42331e-08 8.00647e-07 5.20512e-06 -5.24463e-09 -1.84122e-07 4.24165e-06 -0.000171929 -0.000302428 6.23363e-05 0.00694698 
298 1 1 0.0302846 0.0135353 0.0553188 0 0 0 7.2722e-07 3.71153e-07 4.97857e-06 5.26152e-07 -3.55945e-07 4.03201e-06 -1.6107e-05 0.000182651 -0.000106697 0.00694698 
262 1 1 -0.0377382 0.0287333 0.0508387 0 0 0 6.40937e-07 -6.79976e-09 2.60165e-06 4.93254e-07 -4.42755e-07 1.56908e-06 1.76223e-05 3.80253e-05 2.53986e-06 0.00694698 
99 1 1 -0.00360813 0.0303682 0.0615073 0 0 0 6.1992e-07 8.41357e-07 6.83778e-06 2.41482e-06 -2.80056e-06 2.26815e-05 5.35869e-05 -0.000147764 2.48283e-05 0.0111152 
122 1 1 -0.0274283 0.0409191 0.0558336 0 0 0 2.8412e-07 -8.87681e-08 2.27201e-06 3.93426e-08 -9.59864e-07 6.51616e-06 -0.000141105 -0.000108314 9.64764e-06 0.0111152 
158 1 1 0.000206975 0.0448778 0.0561865 0 0 0 5.96307e-07 2.67535e-07 3.82594e-06 5.0831e-07 -4.61648e-07 3.10491e-06 -0.000590811 -7.70189e-05 0.000102436 0.00694698 
47 1 1 0.0244974 0.0400921 0.0559319 0 0 0 -2.5309e-07 -2.57011e-08 2.57799e-06 -4.48675e-07 -1.12644e-06 8.87963e-06 -5.61107e-05 -0.000131108 -4.06334e-05 0.0111152 
203 1 1 0.0420083 0.0441913 0.0569424 0 0 0 -3.88689e-07 -2.24744e-07 1.25406e-06 -4.39124e-07 -3.04589e-07 1.03132e-06 -8.794e-05 -0.000104534 -8.83773e-05 0.00694698 
6 1 1 -0.0273257 -0.0408019 0.0684914 0 0 0 2.57203e-07 6.18516e-07 2.23366e-06 -5.90189e-07 -3.56563e-07 3.28345e-06 0.000116925 -7.70607e-06 -4.65588e-05 0.0111152 
190 1 1 -0.00862791 -0.0442093 0.0646035 0 0 0 7.37482e-08 2.43991e-08 2.11458e-06 -1.54665e-07 -1.41289e-07 9.06627e-07 0.000292589 4.06409e-05 4.10078e-06 0.00694698 
189 1 1 0.0268465 -0.0442003 0.0673438 0 0 0 3.98839e-08 2.26252e-07 1.32403e-06 -5.28675e-08 1.32995e-08 7.29155e-07 0.000118875 -5.44641e-06 -3.96473e-05 0.00694698 
186 1 1 0.0437407 -0.0441968 0.0738313 0 0 0 1.38283e-08 5.08622e-08 4.09406e-07 -7.67535e-10 1.53161e-08 3.00868e-07 1.88535e-05 -2.68243e-05 -1.67949e-06 0.00694698 
313 1 1 -0.0118607 -0.0316738 0.0682093 0 0 0 3.75195e-07 8.25722e-07 4.91159e-06 -5.54365e-07 -1.03053e-07 2.00611e-06 8.23132e-07 -0.000183755 -6.18052e-06 0.00694698 
227 1 1 0.00766388 -0.0253939 0.0722238 0 0 0 5.23452e-07 9.9411e-07 5.68933e-06 -1.31757e-07 -5.27857e-07 2.88475e-06 0.000147663 0.000178713 -0.000148078 0.00694698 
91 1 1 0.0235312 -0.0277778 0.0665881 0 0 0 3.63164e-08 7.71027e-07 3.36021e-06 1.67241e-07 6.22443e-07 7.72349e-06 9.87389e-05 5.14268e-05 -1.32107e-05 0.0111152 
247 1 1 0.0400879 -0.0264408 0.068086 0 0 0 -2.82216e-07 8.13334e-07 2.40376e-06 -1.48064e-07 3.10978e-07 1.58428e-06 4.03679e-05 -2.57648e-05 4.10128e-05 0.00694698 
36 1 1 -0.0407301 -0.0173219 0.0691412 0 0 0 2.28626e-07 4.53422e-07 2.33383e-06 9.20542e-08 -8.73533e-07 4.5498e-06 2.93581e-05 -0.000156345 2.04933e-05 0.0111152 
137 1 1 -0.00226744 -0.0232153 0.0635622 0 0 0 4.20152e-07 1.45486e-06 6.4157e-06 -9.15272e-08 -3.40543e-07 3.19313e-06 -0.00010342 -9.38559e-05 0.000145618 0.00694698 
276 1 1 0.0201771 -0.0125509 0.072259 0 0 0 -2.10415e-07 8.13505e-07 6.48595e-06 -1.44676e-07 -6.92192e-07 4.66467e-06 -1.30458e-05 -3.31422e-05 4.01831e-05 0.00694698 
215 1 1 0.0333366 -0.0151385 0.0705857 0 0 0 -1.43761e-07 6.68125e-07 4.7818e-06 1.39745e-08 -4.07384e-08 3.49541e-06 0.00023189 0.000126662 8.44219e-05 0.00694698 
217 1 1 0.0446141 -0.0151032 0.0644108 0 0 0 -4.22196e-08 5.79015e-07 1.78922e-06 -2.64276e-08 1.78686e-07 1.23888e-06 -8.7451e-05 0.000200374 -0.000148147 0.00694698 
182 1 1 -0.0291258 -0.0043065 0.0735738 0 0 0 9.6978e-07 1.70975e-06 5.42433e-06 3.77499e-07 -4.21212e-07 3.02923e-06 -0.000278523 -9.95643e-05 0.000158323 0.00694698 
10 1 1 0.00493197 -0.00796362 0.0666216 0 0 0 5.03931e-07 1.54226e-06 7.60148e-06 2.02107e-06 -3.07287e-06 2.02076e-05 4.0867e-05 5.56913e-05 -0.000101851 0.0111152 
148 1 1 0.0445355 -0.00238306 0.0634358 0 0 0 -6.92136e-08 2.3225e-08 2.8715e-06 -1.67122e-07 -3.28766e-07 2.18279e-06 0.000265802 0.000377611 9.6117e-05 0.00694698 
32 1 1 -0.039949 0.00415223 0.0635932 0 0 0 6.39387e-07 8.38835e-08 2.66117e-06 1.49236e-06 -1.77891e-06 6.79203e-06 3.40724e-07 -6.70209e-05 -9.04149e-06 0.0111152 
197 1 1 -0.019298 0.0021356 0.0660103 0 0 0 1.40544e-06 1.75428e-06 7.60652e-06 8.10655e-07 -5.2489e-07 4.45768e-06 5.94578e-05 0.000133039 -9.44995e-05 0.00694698 
115 1 1 -0.0037432 0.010581 0.0687302 0 0 0 1.12658e-06 1.94438e-06 7.82344e-06 3.08406e-06 -2.95663e-06 2.26837e-05 -0.0001351 1.78778e-05 1.34952e-05 0.0111152 
87 1 1 0.0291357 0.000600425 0.0669645 0 0 0 -1.86629e-07 3.51007e-07 6.7096e-06 -1.46831e-07 -2.05997e-06 2.23823e-05 -1.24121e-05 2.42382e-05 -6.94981e-05 0.0111152 