ITEM: TIMESTEP
13300
ITEM: NUMBER OF ATOMS
338
ITEM: BOX BOUNDS mm mm mm
-0.05 0.05
-0.05 0.05
0 0.15
ITEM: ATOMS id type type x y z ix iy iz vx vy vz fx fy fz omegax omegay omegaz radius 
131 1 1 -0.028651 -0.0410856 0.00525332 0 0 0 -0.000355759 0.00583374 -0.000244331 0.00817332 0.00769623 0.000189389 -1.62047 -0.165208 -4.5261 0.00545743 
319 1 1 -0.0144626 -0.0443561 0.00544084 0 0 0 -0.0214136 -0.0151833 0.00357134 -6.70219e-06 -4.76209e-06 -1.6715e-05 2.78634 -3.92968 -13.179 0.00545743 
243 1 1 -0.0036472 -0.0423855 0.00544083 0 0 0 9.04212e-05 -0.0483498 0.00393087 1.00801e-07 -1.64071e-05 -0.000409185 8.87292 0.0165498 6.08037 0.00545743 
260 1 1 0.0214832 -0.0445959 0.00539817 0 0 0 -0.0136615 0.00674345 -0.00390143 0.0136547 0.00440376 0.00146161 -1.18897 -2.17608 3.11444 0.00545743 
78 1 1 0.0394677 -0.0415924 0.00845981 0 0 0 -0.0126849 0.00229637 0.000564282 0.0228562 0.0313013 -0.0300777 -0.172529 -1.00946 1.64888 0.00873189 
74 1 1 -0.0413349 -0.0360777 0.00868546 0 0 0 0.00677499 0.0156079 0.00525935 0.000201884 -0.02371 0.00939237 -0.37923 1.02635 1.25867 0.00873189 
60 1 1 0.00849035 -0.0355219 0.00840734 0 0 0 -0.0455172 -0.0334502 0.00820886 0.0445 0.0320713 -0.0366436 4.29598 -6.04682 8.10689 0.00873189 
296 1 1 -0.0274878 -0.0286213 0.00544514 0 0 0 -0.0723683 -0.0296631 0.000835616 -0.00222507 0.00578054 -0.00430994 3.81388 -13.946 -6.48144 0.00545743 
173 1 1 -0.0154783 -0.0279681 0.00544373 0 0 0 -0.0696368 0.0055684 0.00485094 0.00504722 0.0139412 -0.00848551 -1.24537 -12.6864 2.62546 0.00545743 
275 1 1 -0.00212452 -0.0268068 0.00534509 0 0 0 -0.0276397 0.0283065 0.0190823 -0.00555854 0.0203989 0.00819162 4.96751 7.21104 -22.3088 0.00545743 
144 1 1 0.0408877 -0.0270958 0.00544107 0 0 0 -0.00429031 0.022405 0.00315845 -1.31372e-06 6.62266e-06 5.1153e-05 -4.11151 -0.787371 -10.8352 0.00545743 
102 1 1 -0.0417063 -0.0187748 0.00843808 0 0 0 -0.00351828 0.0255892 -0.00550127 0.0321419 -0.0244752 0.0105578 -3.68554 0.289209 2.58613 0.00873189 
328 1 1 -0.0280721 -0.0177211 0.00535083 0 0 0 0.0162663 -0.00686205 0.00634359 0.0125539 -0.00152848 -0.00464007 -0.643062 -4.42942 -9.19369 0.00545743 
40 1 1 -0.0102831 -0.0151674 0.00866464 0 0 0 -0.000804933 -0.00589192 0.00503185 0.0722787 -0.0597719 -0.057602 0.817682 -0.771588 -12.0113 0.00873189 
279 1 1 0.00452869 -0.0181734 0.00546496 0 0 0 0.00329794 0.00915748 0.00513238 -0.00280946 0.00480417 -0.00912608 -0.823351 -2.78623 3.39454 0.00545743 
267 1 1 0.0154152 -0.0178669 0.00543231 0 0 0 0.0212176 -0.0183567 0.00392894 -0.00437909 0.000674417 0.010826 3.13053 3.9665 -8.24478 0.00545743 
202 1 1 0.0445402 -0.0160787 0.00542997 0 0 0 -0.00858391 0.0264718 0.00602341 0.00286905 0.000904783 0.00207791 -4.8656 -1.50881 -4.65759 0.00545743 
274 1 1 -0.02228 -0.00862943 0.00542298 0 0 0 -0.0116128 0.0205112 0.0194714 0.0255779 -0.00798792 -0.0110548 3.51489 4.30927 16.7104 0.00545743 
50 1 1 0.026715 -0.00986076 0.00856029 0 0 0 -0.0187795 -0.00202888 -0.00351966 -0.137311 0.0999325 -0.0100359 1.03076 -1.02951 26.5924 0.00873189 
257 1 1 -0.0445381 -0.00251454 0.00543766 0 0 0 0.00356686 -0.0671231 0.00177414 0.00268017 0.0146934 -0.00110201 11.9792 1.1067 -12.5109 0.00545743 
171 1 1 -0.0243646 0.00194433 0.0053912 0 0 0 0.0739141 0.0431952 0.0121588 0.0113682 -0.0102277 -0.00962166 -8.12076 12.308 -33.4397 0.00545743 
17 1 1 -0.0107295 0.00258716 0.00888956 0 0 0 0.109006 -0.0474563 0.0406246 0.0551091 -0.00917969 -0.0666396 -10.851 -10.329 7.39352 0.00873189 
96 1 1 0.0104442 -0.00376622 0.00869588 0 0 0 -0.0413682 -0.0122947 0.0138031 -0.106898 0.0481536 -0.0372212 2.89074 0.98665 -25.5995 0.00873189 
164 1 1 0.0224882 0.00329652 0.00559406 0 0 0 -0.203971 0.00805976 0.0469333 0.00341086 0.032581 -0.0244268 18.5106 -26.4799 -5.042 0.00545743 
94 1 1 0.0370146 0.00402332 0.00871505 0 0 0 -0.110925 0.0888303 0.0117707 -0.104941 0.0234563 0.0340505 8.94388 10.1676 -10.3636 0.00873189 
268 1 1 -0.0320002 0.00950342 0.00530477 0 0 0 0.0123774 0.0177306 0.0168462 -0.00531722 -0.00925834 0.00464367 -2.5507 0.764575 42.4801 0.00545743 
290 1 1 0.000306922 0.0119277 0.00544085 0 0 0 -0.0319563 0.0263972 0.00818747 0.00839865 0.00351581 -0.00909582 -4.91513 -6.16217 -3.72853 0.00545743 
232 1 1 -0.0394448 0.0173454 0.00531667 0 0 0 -0.0132428 0.0151994 -0.00304367 -0.00111498 0.019129 -0.00716893 -3.56748 -1.85587 -36.1016 0.00545743 
297 1 1 -0.0257164 0.0181974 0.00519246 0 0 0 -0.0147974 0.0387766 -0.00578793 -0.0140266 0.00905466 0.0150653 -6.225 -3.82264 -36.9873 0.00545743 
222 1 1 -0.0124549 0.0162597 0.0054344 0 0 0 0.00978382 -0.0280739 0.00509468 -0.000401833 0.00470261 0.00385155 5.27401 2.57289 6.30842 0.00545743 
98 1 1 0.0137733 0.0149706 0.00868219 0 0 0 -0.00578431 -0.00357592 -0.00144301 -0.00683861 0.0365594 0.0537825 1.11705 -0.816658 -4.35442 0.00873189 
316 1 1 0.0275682 0.014683 0.00543523 0 0 0 0.00272887 -0.0647445 0.00347752 0.00254661 0.00295821 0.0108625 11.6776 -0.411769 -5.88959 0.00545743 
162 1 1 0.0446148 0.0154122 0.00536752 0 0 0 -0.0101122 0.0418114 0.00578048 -0.0102665 0.00603411 0.018261 -7.87855 -2.1098 -7.34846 0.00545743 
294 1 1 -0.044576 0.029147 0.00544556 0 0 0 0.010123 0.0198331 0.0105147 0.0314152 -0.018256 -0.0169581 -0.364165 -0.773061 2.28928 0.00545743 
255 1 1 -0.0220853 0.0284639 0.00543866 0 0 0 0.108481 0.0318376 0.000119216 -0.00416195 -0.0147147 -0.0028346 8.55019 15.9834 15.4984 0.00545743 
324 1 1 -0.00647038 0.0265341 0.00544098 0 0 0 0.0242548 0.0400152 0.00399801 7.69453e-06 1.39798e-05 -0.000758257 -7.34229 4.4528 8.33937 0.00545743 
161 1 1 0.00497126 0.0295837 0.00548621 0 0 0 0.0570374 0.0178871 0.00654299 0 0 -0.0166979 -3.41164 10.5197 -12.2703 0.00545743 
77 1 1 0.0218851 0.0314932 0.00832994 0 0 0 -0.0200979 -0.0163226 0.0116313 0.011513 0.0167805 0.035166 1.73209 -1.99424 -11.4326 0.00873189 
155 1 1 0.0346583 0.0258387 0.00544077 0 0 0 -0.0162303 -0.0724173 0.00346682 -6.06546e-06 -2.54128e-05 0.000247617 13.2897 -2.97923 4.30229 0.00545743 
175 1 1 -0.0340393 0.0322166 0.00543942 0 0 0 -0.0287043 0.00956933 0.00148888 -2.68647e-05 5.05883e-05 0.00514388 -1.75443 -5.26001 -32.8046 0.00545743 
289 1 1 0.0446332 0.0335775 0.00529488 0 0 0 -0.017223 0.118763 -0.0124169 -0.00432043 0.000444211 0.000697719 -22.2397 -4.08751 -21.6117 0.00545743 
321 1 1 -0.0445526 0.0445463 0.00543949 0 0 0 0.00373667 -0.00191216 0.00152533 0.00110451 0.0112931 -0.000763842 0.397995 0.581513 -0.80374 0.00545743 
207 1 1 -0.0336459 0.0442749 0.00544072 0 0 0 0.0142016 0.0256168 0.00484836 -0.00215168 0.000218201 -0.00264851 -4.70338 2.66916 6.74031 0.00545743 
38 1 1 -0.0169288 0.041597 0.00849941 0 0 0 -0.0121209 -0.0071735 0.00115367 0.0158968 -0.0449456 -0.0275527 0.318946 -1.57498 -1.60143 0.00873189 
149 1 1 0.00500741 0.0440664 0.0054395 0 0 0 0.0292711 0.0296011 0.00125707 -0.00061419 -0.000239738 5.13015e-05 -5.43317 5.21191 7.72942 0.00545743 
249 1 1 0.032294 0.043647 0.00542713 0 0 0 -0.0447965 0.0544458 0.0101844 -0.0208587 0.0104186 0.00713271 -10.2583 -8.08229 -8.7926 0.00545743 
299 1 1 -0.0284574 -0.0448243 0.0152422 0 0 0 0.0229423 0.01909 0.00685563 0.0189228 0.00938569 0.00722579 -0.101194 7.76985 -3.96896 0.00545743 
130 1 1 0.0163843 -0.0448346 0.0149419 0 0 0 -0.00787194 -0.00343195 0.00249225 0.0120922 0.00969413 0.00635747 0.147925 3.01722 1.82704 0.00545743 
7 1 1 -0.0212368 -0.0331266 0.0174052 0 0 0 -0.0510948 0.0805223 0.0987151 0.0644052 0.0116153 0.0984157 18.0577 5.40264 15.9521 0.00873189 
67 1 1 0.0251026 -0.0324291 0.011572 0 0 0 -0.0233115 0.0246138 -0.00155762 0.0378122 0.0522968 -0.0403 -10.364 7.12074 -2.38478 0.00873189 
179 1 1 -0.0329199 -0.025979 0.0161804 0 0 0 -0.0666633 0.0689732 0.114492 0.00861104 -0.00166744 0.00629584 -29.3668 -5.88754 -22.1572 0.00545743 
104 1 1 -0.00433266 -0.0306454 0.01874 0 0 0 -0.0274923 0.0179327 0.0310495 0.108743 0.0248822 0.0279182 3.12361 5.38408 -21.6344 0.00873189 
278 1 1 0.031176 -0.0207472 0.0160385 0 0 0 0.0282907 0.0250679 0.000484411 -0.00287881 0.0159822 -0.00359468 7.86605 -26.4139 -9.62955 0.00545743 
183 1 1 0.0401124 -0.0145693 0.0152663 0 0 0 0.00487822 0.0634117 0.0142427 0.0188469 0.00780084 0.00785702 0.689241 3.17873 -2.15197 0.00545743 
146 1 1 -0.0445288 -0.00652047 0.0155815 0 0 0 -0.0210244 -0.0445575 -0.00324805 -0.000419145 -0.0122945 -0.00731366 -14.3288 -1.39333 0.686017 0.00545743 
19 1 1 -0.0294027 -0.0124025 0.0184354 0 0 0 -0.00159421 -0.0435494 0.0211214 0.00917276 0.0584834 -0.0426937 12.7078 -0.807478 -5.58499 0.00873189 
310 1 1 -0.0162698 -0.00657603 0.0182015 0 0 0 0.0472879 -0.0286772 0.0347713 0.0309568 -0.0137871 -0.0122254 10.055 -3.9829 -1.78104 0.00545743 
160 1 1 -0.00165084 -0.00582973 0.0157315 0 0 0 0.0284712 -0.0822228 0.159334 -0.00991557 -0.00799926 0.00112431 24.6546 -3.63346 0.17656 0.00545743 
25 1 1 -0.0414198 0.00744512 0.0153262 0 0 0 0.0100251 -0.0214991 0.0265287 0.0378264 -0.0581057 0.0407671 -15.2992 -3.54859 -1.3143 0.00873189 
286 1 1 -0.00211121 0.0112001 0.0160479 0 0 0 -0.00730553 0.0923015 0.0281572 0.0122111 0.0114426 -0.0145014 -3.83524 -0.451848 9.9369 0.00545743 
261 1 1 0.0446592 0.0127269 0.0166126 0 0 0 0.00242277 -0.0135237 0.036775 0.00117347 -0.00161092 -0.00141708 10.1976 6.49016 3.02063 0.00545743 
300 1 1 -0.0446568 0.0208571 0.018067 0 0 0 0.00670998 -0.00411343 -0.0340181 -0.000591605 0.00317495 -0.0167983 14.377 6.46741 0.705969 0.00545743 
28 1 1 -0.0192007 0.0198905 0.0173529 0 0 0 -0.0214519 -0.0320954 0.008961 0.0509043 0.0152842 0.0176182 0.349732 -1.34714 -0.407107 0.00873189 
320 1 1 0.00128862 0.0210814 0.0114169 0 0 0 0.000745794 0.0327758 0.0744296 -0.00155212 0.000426703 -0.0155343 13.0696 10.1886 -1.16415 0.00545743 
284 1 1 0.0396356 0.0221426 0.0151276 0 0 0 0.0664283 0.0339984 0.0163433 -0.00976614 -0.00358082 -0.0114756 -39.0516 39.628 -24.6915 0.00545743 
273 1 1 -0.0351368 0.0228184 0.0135054 0 0 0 0.0624896 -0.0821001 0.030544 0.00221242 0.00326436 -0.00681862 -0.825708 -18.9254 -22.5027 0.00545743 
305 1 1 -0.0421026 0.0368341 0.0127447 0 0 0 0.0624958 0.0237341 0.00630003 0.0152315 0.0115055 -0.00390035 2.72804 18.5801 -6.1209 0.00545743 
23 1 1 -0.0289263 0.0342967 0.0186069 0 0 0 0.00791144 -0.0347397 0.0215894 -0.00850301 -0.0397888 -0.0719942 -9.68563 -2.02155 14.7857 0.00873189 
16 1 1 0.00888277 0.0375796 0.0177791 0 0 0 -0.0212039 -0.00743844 0.04424 -0.0107675 -0.100828 -0.00689294 8.12001 0.841457 4.44659 0.00873189 
61 1 1 0.0364772 0.0357784 0.0164252 0 0 0 -0.0157574 0.0315066 0.0119467 0.0137651 0.00530194 0.0242852 16.2013 7.81358 27.5479 0.00873189 
237 1 1 -0.003556 0.0445295 0.012173 0 0 0 -0.0131103 -0.00234846 -0.0422741 0.0167502 0.00419155 0.00585831 2.19524 -14.2781 2.25854 0.00545743 
239 1 1 0.0199146 0.0447537 0.0121451 0 0 0 0.0310036 -0.00118491 0.0111419 -0.0121193 0.000832583 0.001535 -2.05476 -4.8602 5.78522 0.00545743 
331 1 1 -0.0427265 -0.0447439 0.0196406 0 0 0 -0.0264819 0.00919441 0.00302942 0.00866781 0.00225267 -0.00879755 0.0620519 -16.8095 4.93842 0.00545743 
225 1 1 -0.0025475 -0.0446024 0.0198808 0 0 0 -0.110695 -0.000558021 0.000919082 0.0121661 0.00347442 0.00430514 0.491199 -10.629 20.0275 0.00545743 
242 1 1 0.00842945 -0.0446248 0.0223356 0 0 0 -0.038914 -0.0140417 -0.0315415 0.00763872 0.0244681 0.00162359 -5.89395 -10.2615 7.61208 0.00545743 
167 1 1 0.0270658 -0.0445929 0.0189214 0 0 0 -0.0293048 0.017119 -0.0353011 0.00557577 0.0200343 -0.00781246 -7.42155 -12.4369 6.29896 0.00545743 
136 1 1 0.0445546 -0.0434907 0.0215509 0 0 0 0.00816269 0.00642539 0.00945072 -0.0209208 0.00692957 -0.00484509 -1.8883 4.77783 -2.84826 0.00545743 
180 1 1 -0.0445649 -0.0345487 0.0225343 0 0 0 -0.0102452 0.0242411 -0.00423402 -0.00752398 -6.79022e-05 -0.00806179 1.87464 2.14175 -10.5098 0.00545743 
256 1 1 -0.0344125 -0.0378612 0.0208818 0 0 0 0.00108107 -0.00463619 0.0435978 0.010168 0.0243747 0.000122473 19.5307 -19.122 -0.353462 0.00545743 
271 1 1 0.032383 -0.0379982 0.0257163 0 0 0 0.0113977 -0.0482977 0.0403406 0.00571243 -0.0127723 0.0117826 -5.90249 5.01444 4.57725 0.00545743 
128 1 1 -0.0446564 -0.0238936 0.0211646 0 0 0 0.00133905 0.0375477 0.0139847 -0.000460345 0.000552393 -0.00298943 0.740216 -3.98587 8.23223 0.00545743 
120 1 1 0.0415015 -0.0291061 0.019854 0 0 0 -0.016089 -0.0181608 0.0367885 0.0165244 0.0508346 0.0112678 5.59981 2.29182 1.73256 0.00873189 
178 1 1 -0.016414 -0.0201524 0.0204695 0 0 0 -0.143314 0.128504 0.0178962 0.00504824 0.0122005 -0.00601215 -18.613 1.37371 -4.65644 0.00545743 
258 1 1 -0.0024258 -0.0168445 0.0201963 0 0 0 -0.0552399 0.0263119 0.0690228 0.0257607 0.00608182 -0.0501713 2.34722 -15.4094 38.1316 0.00545743 
51 1 1 0.0115556 -0.0225465 0.019159 0 0 0 -0.110777 -0.0220067 0.0362867 0.0256021 0.0103885 -0.0514827 -6.99752 -14.9804 -14.682 0.00873189 
134 1 1 0.0447918 -0.0166866 0.0252322 0 0 0 -0.0131868 0.00104836 0.0193371 0.00473042 0.00949629 -0.00204739 -11.1265 3.60055 0.789561 0.00545743 
245 1 1 0.0051458 -0.0110418 0.0250454 0 0 0 -0.0746549 0.0200347 0.105165 -0.00987498 0.0115084 -0.0559086 40.2577 36.4749 -11.5853 0.00545743 
18 1 1 0.0185504 -0.00770076 0.0240124 0 0 0 -0.0533762 -0.0181346 0.00143294 0.0344395 -0.0293738 0.00698306 -7.53747 -6.40262 1.01838 0.00873189 
184 1 1 0.0314276 -0.0124465 0.0225549 0 0 0 -0.0179912 0.0183457 0.0261049 0.00326263 0.000455833 0.0023572 -3.66085 10.3722 7.45081 0.00545743 
112 1 1 -0.0251661 0.00411348 0.0207293 0 0 0 0.0148572 -0.0392706 0.0597611 0.0931861 0.049631 -0.0821219 -5.51118 4.38809 3.77663 0.00873189 
55 1 1 0.0414903 -0.00319965 0.0247891 0 0 0 -0.00184872 0.0232446 0.00185417 0.0401585 0.0183652 0.0321635 4.17181 0.317764 -3.29222 0.00873189 
4 1 1 -0.0099342 0.00946545 0.0277134 0 0 0 0.0263026 0.036773 0.0460906 0.0029088 -0.0121466 -0.106118 -12.9377 -6.06875 4.01933 0.00873189 
100 1 1 0.00914972 0.00670485 0.0233143 0 0 0 -0.0258142 0.0120831 0.0126661 0.0314493 -0.0390804 -0.0446018 12.9583 0.5525 -5.12739 0.00873189 
95 1 1 0.0275347 0.00673919 0.0259563 0 0 0 -0.0390104 -0.0115821 0.0451114 0.0126728 -0.0525393 -0.00906623 6.32408 -4.23366 -3.08877 0.00873189 
2 1 1 -0.0335649 0.0180814 0.0267083 0 0 0 -0.00972413 -0.0368441 0.0477158 0.0438312 0.0789359 0.115829 -5.50318 5.18788 5.62864 0.00873189 
108 1 1 0.0215292 0.0222388 0.0226991 0 0 0 -0.0266532 0.00821822 0.0508678 0.0242292 -0.0436635 0.0141342 -6.35052 8.0813 -0.116564 0.00873189 
246 1 1 -0.0446151 0.0281019 0.0261057 0 0 0 0.00748281 -0.0492697 0.004084 -0.0122311 0.0115584 -0.0190248 -5.56407 -3.98474 0.5685 0.00545743 
73 1 1 0.00493778 0.023109 0.02643 0 0 0 -0.0263524 -0.00121301 0.0870147 0.0263513 -0.0657182 0.0706281 -2.40303 -3.60054 3.94677 0.00873189 
69 1 1 -0.00751154 0.032183 0.0191941 0 0 0 -0.0282784 -0.02751 0.0317898 0.0296416 -0.031846 0.0472794 -0.213942 -2.16505 -0.032456 0.00873189 
323 1 1 -0.0126433 0.0447496 0.0223914 0 0 0 -0.0266957 -0.00587799 -0.000681794 -0.00316098 -0.00637681 -0.00996996 -0.0341381 -12.2307 -5.07955 0.00545743 
248 1 1 0.00246806 0.0448002 0.0277283 0 0 0 -0.0462859 -0.0128154 0.0500241 -0.00726933 -0.0122931 0.00420625 -8.65817 -7.25214 -8.23356 0.00545743 
224 1 1 -0.0420517 -0.0432797 0.0352401 0 0 0 -0.00782942 0.0235747 -0.0793927 0 0 -0.0166979 34.7434 -26.4094 -6.40411 0.00545743 
329 1 1 -0.0244501 -0.0445888 0.0367856 0 0 0 -0.022392 -0.197893 0.0233929 -0.0952328 0.398032 0.104354 15.7488 18.3626 13.0715 0.00545743 
42 1 1 -0.0125154 -0.0414739 0.0296424 0 0 0 -0.00292641 -0.00106398 0.046351 0.0502796 0.0361308 0.0161678 5.44798 -11.5073 -0.415494 0.00873189 
3 1 1 0.0196107 -0.0413333 0.0305872 0 0 0 -0.0302863 0.0236392 0.00332394 0.0577113 -0.0194227 -0.00567109 16.5423 -6.13832 -17.5211 0.00873189 
125 1 1 0.0375277 -0.0446434 0.0324597 0 0 0 0.0426833 -0.0270188 -0.00547661 -0.017505 0.00364424 0.0412889 -1.97476 12.7152 -6.70231 0.00545743 
211 1 1 -0.0446224 -0.0322966 0.03308 0 0 0 0.0314258 -0.0382504 0.0185225 -0.00112614 0.00576661 0.0495188 10.7322 3.9424 -10.2044 0.00545743 
168 1 1 0.00132568 -0.0399886 0.0290469 0 0 0 0.0126879 -0.103238 0.0711289 0.00446812 0.0300436 0.00449996 33.8753 19.5658 -19.3921 0.00545743 
191 1 1 0.00888873 -0.0325126 0.0285666 0 0 0 -0.0831188 -0.00913882 0.0714068 0.0232073 0.0255798 0.00976386 -3.00398 10.6607 42.454 0.00545743 
93 1 1 -0.0295414 -0.0315589 0.0325069 0 0 0 -0.0522374 -0.0553997 0.126042 -0.0385421 -0.127811 0.185725 -8.48944 -0.846578 2.35622 0.00873189 
43 1 1 -0.00635965 -0.0242173 0.0347643 0 0 0 -0.0325553 0.0141343 0.0541017 -0.00777937 0.0682601 -0.0263649 5.9391 -8.94963 2.69191 0.00873189 
105 1 1 0.0335068 -0.0269273 0.0350503 0 0 0 -0.0388884 -0.0114935 0.0484464 -0.13342 -0.0886881 0.0406732 -8.74683 1.98071 -0.377354 0.00873189 
66 1 1 -0.0409399 -0.018631 0.0337088 0 0 0 -0.00419066 0.0108431 0.0374164 -0.186229 -0.0141189 0.0343816 -11.555 5.59356 -10.9931 0.00873189 
52 1 1 0.0112339 -0.0209969 0.0364234 0 0 0 -0.13177 -0.0457046 0.069806 -0.022133 0.123675 0.0460009 9.94678 10.847 -6.37294 0.00873189 
259 1 1 0.0290913 -0.0137747 0.0329585 0 0 0 -0.0193807 -0.0193376 0.0220087 -0.0266877 -0.0119596 0.0170969 11.4974 -12.0278 0.198716 0.00545743 
336 1 1 -0.0210203 -0.00759703 0.0283963 0 0 0 -0.0185977 0.0168006 -0.00377784 -0.0165649 -0.0289236 0.010342 -30.1019 1.17895 16.836 0.00545743 
24 1 1 -0.00721905 -0.00744885 0.0302681 0 0 0 -0.0542651 0.0530536 0.170581 -0.11012 -0.0197227 -0.164623 0.464669 -20.3917 -8.40719 0.00873189 
107 1 1 -0.0388997 -0.00198009 0.0295561 0 0 0 0.0733083 -0.00572769 0.0437721 -0.136756 0.00983636 0.230548 11.3854 13.1837 -4.13685 0.00873189 
133 1 1 -0.0268308 -0.00365703 0.0368 0 0 0 0.0284249 -0.00251368 0.139554 -0.0367127 0.302232 0.0460084 16.7515 -17.8864 13.5214 0.00545743 
303 1 1 0.0312656 -0.00341416 0.0348358 0 0 0 -0.0295242 -0.0192624 0.034973 0.00532725 -0.00788964 0.00705397 -10.2333 14.4078 1.14122 0.00545743 
236 1 1 -0.0215018 0.00797582 0.0358962 0 0 0 0.0559191 0.0173332 0.116788 -0.00311382 -0.0141881 -0.000575167 -45.1995 -4.31906 13.5483 0.00545743 
208 1 1 -0.0448447 0.0142347 0.0337619 0 0 0 0.00523369 -0.0560943 0.0463051 0.000194557 0.00731745 0.00728673 16.6278 -6.2873 -9.12131 0.00545743 
282 1 1 -0.0204037 0.017957 0.0316855 0 0 0 -0.00827267 -0.00261359 0.0196941 0.00465173 -0.00814984 0.00282898 25.116 -1.98805 2.29172 0.00545743 
58 1 1 0.0415873 0.0154558 0.030127 0 0 0 -0.0104602 -0.018548 0.0518318 -0.0137874 -0.0174088 0.0184862 -1.63162 6.81097 1.81104 0.00873189 
199 1 1 -0.0441556 0.0249307 0.036466 0 0 0 0.0268457 -0.0079853 0.0144069 -0.00477787 0.000320385 -0.00447995 -1.81332 5.10198 9.71878 0.00545743 
262 1 1 -0.0344633 0.0305765 0.0353285 0 0 0 -0.0823597 -0.00710496 0.0599389 0.00322062 -0.0132394 -0.00443275 -12.4432 -7.3903 7.37163 0.00545743 
192 1 1 -0.0247926 0.0283436 0.0307297 0 0 0 -0.0383129 -0.0329288 0.0389129 0.0419502 0.00249852 -0.0493638 12.1498 -1.76832 -3.52844 0.00545743 
292 1 1 -0.0154539 0.0337591 0.0307691 0 0 0 -0.0592834 -0.0479874 0.0572087 0.0150034 0.013809 0.00573805 -0.0749467 -1.71675 4.97178 0.00545743 
99 1 1 -0.00261475 0.0349174 0.0363713 0 0 0 -0.0765865 -0.00669795 0.0704981 -0.00628856 -0.00193772 -0.0305345 1.2315 1.39748 3.39096 0.00873189 
47 1 1 0.0249566 0.0363256 0.0320681 0 0 0 -0.00514936 0.0208232 0.0182678 0.028465 -0.0692234 0.0448032 1.3679 -3.88184 -1.01532 0.00873189 
9 1 1 -0.0409241 0.0413956 0.0289734 0 0 0 -0.0526091 -0.0206826 -0.0142413 -0.0178366 -0.0358904 -0.0505514 0.943019 -1.37527 -6.43409 0.00873189 
122 1 1 -0.0255072 0.0413472 0.0370294 0 0 0 -0.0579184 -0.00779407 0.0189213 -0.035268 0.0039027 0.0423964 -3.16528 -1.09501 -7.56813 0.00873189 
126 1 1 -0.0121782 0.044698 0.0333667 0 0 0 -0.0598469 0.00339931 0.0463706 0.00140327 -0.00232999 -0.0225654 -8.67546 -2.7439 -10.6534 0.00545743 
229 1 1 0.0140454 0.0446242 0.0288869 0 0 0 -0.00509379 0.0126991 0.0323292 -0.0136642 0.00592314 0.00510096 -6.40927 13.995 0.257185 0.00545743 
114 1 1 0.0414171 0.041518 0.0318501 0 0 0 -0.00733742 -0.00189941 0.0327897 0.0414446 -0.0530553 0.029484 -3.54225 1.56038 -1.44703 0.00873189 
314 1 1 -0.0143306 -0.0446839 0.0434028 0 0 0 0.0133886 0.00618392 0.0881434 0.0209641 0.00135958 -0.0345327 16.8182 -9.6727 -0.842883 0.00545743 
265 1 1 0.019155 -0.0446524 0.0452805 0 0 0 0.00832807 0.02143 0.108582 0.00108202 -0.0116529 0.0135247 19.817 -2.23727 -1.51199 0.00545743 
283 1 1 0.0296624 -0.0430707 0.0403 0 0 0 -0.0241983 -0.0593817 0.0350344 -0.00732012 -0.024699 0.0162921 -11.3637 5.05132 20.27 0.00545743 
84 1 1 -0.0412945 -0.0345577 0.0465927 0 0 0 -0.000479343 -0.00407727 0.0546847 0.0773908 -0.0141353 -0.018883 -14.2644 -6.58738 -1.5259 0.00873189 
307 1 1 -0.0184312 -0.034761 0.040458 0 0 0 -0.006875 -0.0245733 0.0685686 0.0114756 0.017155 0.00699075 2.49391 14.7804 -5.33893 0.00545743 
337 1 1 -0.00767328 -0.0363458 0.0417986 0 0 0 0.00490051 0.0179399 0.071126 0.0281519 -0.0236114 -0.0184366 -9.25554 23.8599 -1.13845 0.00545743 
56 1 1 0.00626438 -0.038021 0.0420757 0 0 0 0.013127 -0.0538431 0.071024 0.0791392 -0.0152883 -0.0357524 -24.0412 -17.9523 -5.65 0.00873189 
313 1 1 -0.0137868 -0.0262279 0.0466731 0 0 0 -0.0578709 0.12841 0.0377417 0.137879 -0.197808 -0.152175 -38.5708 -2.79224 17.7351 0.00545743 
91 1 1 0.0213321 -0.0308397 0.0467247 0 0 0 -0.0305143 0.0520682 0.132906 0.0124954 -0.160722 0.0415208 -9.59709 0.917745 6.10296 0.00873189 
326 1 1 0.0446884 -0.0285423 0.043275 0 0 0 0.00648238 0.0228506 0.0316813 -0.0158061 0.00931589 0.0143014 -0.688753 6.78205 -2.25744 0.00545743 
81 1 1 -0.0213009 -0.0164173 0.0392092 0 0 0 -0.0222238 0.0524477 0.0288959 0.0603174 -0.188177 0.0283048 11.1888 -4.49838 -8.70845 0.00873189 
332 1 1 0.0246967 -0.0180869 0.041821 0 0 0 -0.0598791 -0.00614065 0.00117586 0.0105865 -0.0180906 0.0426838 -12.6352 1.29878 -2.95967 0.00545743 
220 1 1 -0.0440536 -0.0048339 0.0423232 0 0 0 -0.0580655 -0.2961 -0.00293461 -0.0732128 -0.0331689 0.179424 62.0474 -39.7808 -34.4542 0.00545743 
240 1 1 0.0213945 -0.00676682 0.0378988 0 0 0 -0.0502049 -0.0169282 0.0233551 0.00495684 -0.0146698 -0.00883356 19.476 -14.035 -4.62171 0.00545743 
276 1 1 0.0166154 -0.0122319 0.045991 0 0 0 -0.0386485 -0.0323107 0.0308128 0.0327451 0.0311588 0.0145856 -16.5602 6.32867 6.14368 0.00545743 
5 1 1 0.041343 -0.0120715 0.0397784 0 0 0 -0.00335973 0.000439928 0.0269592 -0.0366864 -0.0585181 -0.0159158 -3.94526 4.36149 0.534766 0.00873189 
197 1 1 -0.0158816 -0.00111985 0.0393321 0 0 0 -0.148299 -0.0076655 0.164417 -0.00396037 -0.0175548 -0.0194952 20.3664 10.5251 11.6277 0.00545743 
10 1 1 0.00734994 -0.00421546 0.0391669 0 0 0 -0.100392 -0.0459691 0.109908 0.0874649 -0.0970809 0.210446 1.8699 17.0697 -4.83395 0.00873189 
318 1 1 0.0445068 0.00160055 0.0377787 0 0 0 -0.0113014 0.0160994 0.00102081 0.00633021 -0.00454019 0.00473911 0.482231 -0.998062 2.82287 0.00545743 
32 1 1 -0.0345273 0.00937235 0.0419692 0 0 0 0.034875 -0.0284563 0.0886624 0.0421933 -0.0568213 -0.0786162 -0.663847 -5.41568 18.5475 0.00873189 
115 1 1 0.00227456 0.0123227 0.0396958 0 0 0 -0.0400706 0.00612324 0.127979 -0.0496983 -0.166765 0.0579363 -3.41346 0.466622 -3.4051 0.00873189 
298 1 1 0.0328879 0.0105394 0.0401691 0 0 0 -0.0192723 -0.00244602 0.0702184 -0.0032065 -0.00420576 -0.00295865 -2.39613 -9.47982 -1.51497 0.00545743 
291 1 1 0.0442507 0.0114652 0.0435151 0 0 0 -0.0148798 0.0932621 0.131505 0 0 -0.0166979 -19.4525 -7.30778 -14.0212 0.00545743 
335 1 1 -0.0298951 0.0226603 0.0411084 0 0 0 -0.0748753 0.0234619 0.104175 0.0178525 -0.0201538 -0.00868051 2.06619 6.65813 -5.65392 0.00545743 
15 1 1 0.0195379 0.0158045 0.0387446 0 0 0 0.0203469 0.0614271 0.0879539 -0.0161552 -0.0738065 0.0244495 1.18659 1.52235 -8.88917 0.00873189 
117 1 1 -0.0160317 0.025876 0.042482 0 0 0 -0.0514079 -0.0514944 0.0937759 -0.0168517 0.015356 -0.0600596 -4.13439 -1.62351 4.1484 0.00873189 
140 1 1 0.0078022 0.0252334 0.0400703 0 0 0 -0.00738619 -0.011809 0.088592 0.0156952 -0.0334215 0.0026801 5.02916 11.9463 -0.836413 0.00545743 
106 1 1 0.0402801 0.0277277 0.0422414 0 0 0 -0.0110327 -0.00793723 0.0605278 -0.00269074 -0.0449212 0.0471425 1.27468 -2.9594 2.95038 0.00873189 
113 1 1 0.0146014 0.0359503 0.0459866 0 0 0 -0.0245783 0.00483724 0.0429228 0.026851 0.0143269 0.0112734 -2.73414 2.3714 7.1588 0.00873189 
327 1 1 -0.0443798 0.0444819 0.0424546 0 0 0 0.026639 -0.0195659 0.0385319 0 0 -0.0166979 -14.1118 24.8399 4.75882 0.00545743 
315 1 1 -0.00681158 0.0441293 0.0461789 0 0 0 -0.0622899 0.0307817 0.0701428 0.00880035 0.0298543 -0.00246887 -10.5431 8.64412 8.51585 0.00545743 
158 1 1 0.00386327 0.044746 0.0438787 0 0 0 -0.0449326 -0.00228541 0.0392539 0.00261155 0.00410156 -0.0142359 -6.76489 4.29641 -9.19392 0.00545743 
203 1 1 0.0446374 0.0442968 0.0452792 0 0 0 -0.00269488 -0.00653471 0.0380338 -0.00859002 0.0059556 0.0190936 7.11777 -0.52501 2.90244 0.00545743 
252 1 1 -0.0381137 -0.0448154 0.0555432 0 0 0 0.00419119 0.00760179 0.0902804 0.0216079 0.0185582 -0.00947255 16.6242 16.0752 -0.842563 0.00545743 
190 1 1 -0.00212803 -0.0446389 0.0512197 0 0 0 -0.0422937 0.0138047 0.0853075 0.00898405 0.00528592 -0.00403054 16.3077 15.0007 8.1718 0.00545743 
189 1 1 0.0280679 -0.044573 0.0518903 0 0 0 0.0330921 0.0575618 0.056161 -0.0106489 -0.032019 0.00295132 10.0177 14.3234 -6.36954 0.00545743 
49 1 1 0.0413268 -0.0413517 0.0480171 0 0 0 0.00864847 0.0207022 0.0257836 -0.034666 -0.0631716 0.0354211 3.63287 0.915511 -2.61844 0.00873189 
6 1 1 -0.0256002 -0.0408892 0.0508298 0 0 0 -0.000597542 -0.00435338 0.06808 0.0533791 0.151582 -0.130002 4.70615 -1.90085 -7.91987 0.00873189 
75 1 1 -0.0255091 -0.0239209 0.054207 0 0 0 0.0340417 0.0315015 0.0493765 -0.0973754 0.175039 0.251632 -6.61493 14.9851 6.70371 0.00873189 
137 1 1 -0.00290822 -0.0287005 0.0477876 0 0 0 0.00398563 0.0378468 0.0855427 0.0180074 -0.00377697 6.00006e-05 22.979 -1.58255 19.1989 0.00545743 
227 1 1 0.00846398 -0.0256945 0.0497998 0 0 0 -0.0658292 0.037811 0.124302 0 0 -0.0166979 7.65396 -0.179286 -2.28294 0.00545743 
247 1 1 0.0359797 -0.028686 0.051467 0 0 0 -0.0359108 0.0410126 -0.022656 0.0230073 -0.0291388 0.0016618 8.40361 -21.6429 -2.84241 0.00545743 
36 1 1 -0.0414757 -0.0178667 0.0510483 0 0 0 0.00810633 -0.00547724 0.0490777 -0.00179113 -0.0376345 -0.0558244 15.3624 -5.0144 -2.14673 0.00873189 
209 1 1 0.00678106 -0.0146608 0.0498733 0 0 0 -0.0292615 -0.0602368 0.157101 0.0432339 -0.0563789 -0.0362815 19.1152 11.7603 -5.19488 0.00545743 
215 1 1 0.0326681 -0.0185791 0.0491705 0 0 0 -0.00493875 0.0694487 -0.0167417 0.0502787 -0.0144917 0.00842533 -7.40341 10.1159 2.88124 0.00545743 
217 1 1 0.044593 -0.0206171 0.0506124 0 0 0 -0.00259504 0.0229232 0.0463729 0.0193535 0.0326086 -0.00890891 0.497767 1.14549 12.9398 0.00545743 
182 1 1 -0.0302624 -0.0101105 0.0480892 0 0 0 0.0198434 0.0250274 0.103206 0.0172105 -0.018222 -0.0326556 1.35424 12.8099 1.88712 0.00545743 
204 1 1 -0.0199451 -0.0108984 0.0521099 0 0 0 -0.0769255 0.00483539 0.0612865 0.00368189 0.0213398 -0.0116733 -11.1105 -11.5542 -0.703662 0.00545743 
26 1 1 -0.00669589 -0.0114848 0.04724 0 0 0 -0.0305027 -0.0294136 0.177315 -0.00345646 0.0268282 -0.168605 -0.518417 -8.84394 1.82095 0.00873189 
306 1 1 -0.0429048 -0.000695679 0.0522726 0 0 0 0.0814043 -0.183969 0.052648 -0.00780162 0.00118752 0.0262331 -82.3128 35.6163 -43.5345 0.00545743 
53 1 1 -0.0262709 0.00138014 0.0549565 0 0 0 -0.0423876 0.0119616 0.174114 0.0872094 -0.064881 -0.0456331 5.83919 -17.7828 2.29006 0.00873189 
22 1 1 0.00148844 0.00240022 0.0541635 0 0 0 0.00473748 -0.0282659 0.138758 0.110508 -0.0922649 -0.0528638 2.50394 -6.68276 2.69351 0.00873189 
87 1 1 0.0312667 -0.00108331 0.0487183 0 0 0 0.00133351 0.0199593 0.0351799 -0.0118455 0.0362357 -0.00614904 3.20878 -5.62983 -3.60746 0.00873189 
148 1 1 0.0446467 -0.00452902 0.051476 0 0 0 -0.00389809 0.00955122 0.0340885 -0.0116542 -0.037704 0.0142202 -8.12312 5.26226 -2.86159 0.00545743 
57 1 1 -0.0129209 0.0096879 0.0477934 0 0 0 -0.0254961 -0.0143306 0.170369 -0.00454376 -0.0770387 -0.0138635 -8.0492 17.3598 -6.06502 0.00873189 
233 1 1 -0.00204245 0.0179492 0.0522527 0 0 0 -0.00537372 0.107016 0.0933902 0.00417849 0.00323754 -0.0239083 2.2839 5.58089 10.0295 0.00545743 
263 1 1 0.008128 0.0212869 0.0542608 0 0 0 0.0659467 0.00264995 -0.0353872 0.00527774 0.0145642 -0.0322646 5.15753 22.0126 -31.3397 0.00545743 
45 1 1 0.0293705 0.015123 0.054719 0 0 0 0.0816343 0.00781666 0.0987491 -0.00310388 0.105505 -0.0491964 4.47941 -10.2576 -14.1284 0.00873189 
250 1 1 -0.027122 0.0266093 0.0510682 0 0 0 -0.0398279 -0.052922 0.124668 -0.0062397 -0.00526208 -0.000159738 5.96069 8.5649 -4.64594 0.00545743 
266 1 1 0.0184623 0.0233734 0.0511254 0 0 0 0.0718843 -0.0463528 -0.0874176 0.00242058 -0.0171711 -0.00909602 7.62714 -16.647 22.7263 0.00545743 
127 1 1 0.0331844 0.0287952 0.0544484 0 0 0 0.0668828 0.0280915 0.119815 -0.00784251 0.00269195 0.000657057 -22.0309 24.5175 17.2327 0.00545743 
322 1 1 0.0445843 0.0239026 0.0550624 0 0 0 -0.00750442 0.0012095 0.0800624 0.0118187 0.00381382 0.0102243 -7.13743 4.88646 -6.81216 0.00545743 
39 1 1 -0.041256 0.0318951 0.0484139 0 0 0 0.0247874 -0.0592918 0.0413912 0.0378843 0.0110979 0.000802651 8.54065 -3.82198 -5.85682 0.00873189 
46 1 1 -0.000742629 0.0328328 0.0535052 0 0 0 -0.0484672 0.00767899 0.0520579 -0.00987595 -0.0400206 -0.2362 -3.36906 2.57669 -11.9684 0.00873189 
195 1 1 0.0439737 0.0345552 0.0540282 0 0 0 -0.00550823 0.00226863 0.0606939 -0.0363813 0.00289669 -0.00844961 3.15721 11.3674 4.68469 0.00545743 
174 1 1 -0.0331385 0.0445524 0.0485369 0 0 0 -0.00407812 -0.00863138 0.0557909 -0.00364733 0.00774467 -0.00642286 -9.6723 21.7839 3.99193 0.00545743 
35 1 1 -0.0186405 0.0413235 0.0533192 0 0 0 -0.0577417 -0.0168973 0.093631 -0.0490865 0.0327884 -0.0259151 -10.5709 1.38502 -3.50206 0.00873189 
76 1 1 0.0309934 0.0413999 0.0475132 0 0 0 -0.0260085 0.0159285 0.024424 0.0103325 -0.025133 0.0461356 -3.37785 -1.55072 -4.72065 0.00873189 