ITEM: TIMESTEP
28700
ITEM: NUMBER OF ATOMS
338
ITEM: BOX BOUNDS mm mm mm
-0.05 0.05
-0.05 0.05
0 0.15
ITEM: ATOMS id type type x y z ix iy iz vx vy vz fx fy fz omegax omegay omegaz radius 
319 1 1 -0.0148193 -0.0440461 0.00600239 0 0 0 0.0108866 -0.016024 0.00290777 0.0133466 0.018132 -0.0190124 -0.38107 -1.25317 -2.54479 0.0060387 
243 1 1 -0.00290675 -0.0430623 0.00593863 0 0 0 -0.0023935 -0.00922276 0.00293271 0.00664757 0.0406831 0.0121963 0.680256 0.610012 4.19978 0.0060387 
260 1 1 0.0258261 -0.0437915 0.00598092 0 0 0 -0.0184827 -0.00333378 0.00543011 0.00829756 0.0247551 -0.00158385 0.4094 -4.51551 1.38527 0.0060387 
74 1 1 -0.0406226 -0.0363974 0.00938897 0 0 0 0.0107121 0.00474074 0.00970542 0.0530899 -0.0544781 -0.0475846 -0.375474 -1.0174 0.497407 0.00966192 
131 1 1 -0.0259958 -0.0397575 0.00571035 0 0 0 0.0174571 0.00611462 0.0135579 0.0113964 -0.00379695 -0.00676498 -2.15971 2.70472 0.304414 0.0060387 
173 1 1 -0.0151499 -0.0320023 0.00585051 0 0 0 -0.00236628 -0.0518526 -0.0132794 -0.0264849 0.00351428 -0.00100465 8.91804 -1.27718 9.63417 0.0060387 
78 1 1 0.0408316 -0.0406851 0.00921865 0 0 0 0.00256695 0.00551715 0.00505752 0.0458631 0.021124 -0.00629124 0.114865 0.722745 -0.545147 0.00966192 
296 1 1 -0.0279311 -0.0278588 0.00600635 0 0 0 0.00830174 -0.0104658 -0.00277487 0.0134722 0.0573835 0.00299567 -2.28063 2.09635 0.168534 0.0060387 
275 1 1 -0.00356294 -0.0297356 0.00585935 0 0 0 -0.00147052 0.00337772 -0.00331072 -0.0105271 -0.0362396 0.011681 -0.439604 1.00892 -0.19835 0.0060387 
144 1 1 0.0417741 -0.0245131 0.00601845 0 0 0 0.020365 -0.091559 0.00766611 0.0034452 -0.00351237 -0.0071493 11.4348 3.62912 -6.85994 0.0060387 
102 1 1 -0.0405812 -0.017831 0.00894879 0 0 0 0.00871336 0.00967926 0.00208669 -0.0475354 -0.0696994 -0.0204763 -0.443444 0.892266 -0.914944 0.00966192 
328 1 1 -0.0256598 -0.0160456 0.00581704 0 0 0 0.00517194 -0.0116461 -0.0106466 -0.0126382 0.0150274 0.0172068 1.77916 1.3837 -1.67891 0.0060387 
267 1 1 0.015048 -0.0207648 0.00602831 0 0 0 -0.00680323 -0.008766 0.00128454 -0.0345237 0.0358405 -0.00175397 -2.63193 -2.10642 -5.93572 0.0060387 
274 1 1 -0.0206867 -0.00532615 0.00601736 0 0 0 -0.0217922 -0.00496785 0.00948612 -0.00300834 0.00899672 0.0110738 1.74774 -2.2929 7.3919 0.0060387 
202 1 1 0.0442032 -0.0127125 0.00610257 0 0 0 0.00692367 -0.0632563 0.0332752 0.0131748 0.0016833 0.0111069 -5.44375 5.39182 9.82571 0.0060387 
257 1 1 -0.0425775 -0.00253526 0.00602506 0 0 0 0.010364 0.0405125 0.00612261 -0.000396475 -0.0185349 -0.0181165 0.624433 2.29655 0.892088 0.0060387 
164 1 1 0.0199563 0.00154615 0.00578745 0 0 0 0.0291566 -0.00833293 -0.0153288 0.0247913 -0.00810173 -0.00376516 1.98677 5.5249 9.68273 0.0060387 
268 1 1 -0.0308222 0.00874723 0.00622164 0 0 0 -0.0167856 -0.0888049 0.0285492 -0.015679 0.0021368 -0.00889195 -11.9481 -2.93877 17.171 0.0060387 
171 1 1 -0.0190853 0.00638566 0.00596523 0 0 0 -0.00691715 -0.0116714 0.000342705 -0.033513 0.0180346 -0.0104632 -2.4722 10.8403 -10.1956 0.0060387 
232 1 1 -0.038756 0.0176998 0.00571648 0 0 0 -0.0260022 -0.0944864 0.0222183 0.00563849 -0.0666642 0.0501899 16.8332 -5.36826 -16.3243 0.0060387 
297 1 1 -0.0228618 0.0177824 0.00622976 0 0 0 -0.06497 -0.0128582 -0.016603 -0.0439106 0.023106 -0.0220253 -4.83456 -5.59172 -0.206757 0.0060387 
222 1 1 -0.0105761 0.0146354 0.00584182 0 0 0 -0.0047622 -0.0216501 -0.0188434 -0.0285726 0.00142569 0.0074308 6.42344 -1.8805 8.40299 0.0060387 
290 1 1 -0.000408543 0.0207849 0.0056578 0 0 0 -9.08451e-05 0.00873448 0.00923548 0.00841392 0.00545729 0.00807748 -2.54213 -0.138651 -5.25338 0.0060387 
98 1 1 0.0128606 0.0143303 0.00945624 0 0 0 -0.0130449 -0.0320152 0.0199916 0.0448397 -0.0121424 -0.0280861 2.93264 -1.58258 -0.72749 0.00966192 
316 1 1 0.0323859 0.019365 0.00568687 0 0 0 -0.00147604 -0.0190075 0.0118804 0.0188991 0.0190659 0.00541441 1.61756 0.0789573 2.23104 0.0060387 
162 1 1 0.0441669 0.0193474 0.00590039 0 0 0 0.00158813 -0.00365002 0.00524875 0.0042544 0.0181315 -0.0069561 0.6751 0.76809 0.586463 0.0060387 
294 1 1 -0.0440605 0.0286858 0.00592838 0 0 0 0.0234503 -0.0265506 0.0306525 -0.00167 -0.0683179 0.0175813 4.46297 -0.107258 0.538972 0.0060387 
175 1 1 -0.0314815 0.0317572 0.00598844 0 0 0 -0.0364326 0.0286528 -0.00468969 -0.0570977 0.0601403 0.00786492 -5.18669 -5.77016 3.51225 0.0060387 
255 1 1 -0.014112 0.0259838 0.00593141 0 0 0 -0.022937 -0.0176072 0.00227263 0.00177143 -0.00253809 -0.0152928 0.0960223 -3.61524 -5.97786 0.0060387 
155 1 1 0.0375985 0.0301335 0.00588696 0 0 0 -0.00557663 -0.0178525 0.0101372 0.00877429 0.0101998 0.000857635 3.02876 -0.372251 -1.07872 0.0060387 
324 1 1 -0.00315588 0.0319985 0.00587581 0 0 0 0.0146517 0.0126963 -0.00911973 0.042541 0.0110588 -0.0147396 -1.81532 3.28357 3.22028 0.0060387 
161 1 1 0.00864452 0.0319786 0.00635428 0 0 0 0.00495648 0.0140863 0.0261818 0.0375335 0.00144412 0.00239617 15.8295 -10.6641 -2.69673 0.0060387 
321 1 1 -0.0440382 0.0440585 0.00613842 0 0 0 -0.011592 -0.00566543 0.00595034 -0.0169841 -0.027076 -0.0339545 -0.186959 -2.85144 -2.29525 0.0060387 
207 1 1 -0.0313731 0.0439695 0.00601761 0 0 0 0.025752 -0.00388144 0.00390602 1.27362e-05 8.95055e-05 0.00149291 0.624492 4.2719 4.2709 0.0060387 
149 1 1 0.0110963 0.0438508 0.00589476 0 0 0 0.0378634 0.00425984 -0.014351 0.000487238 -0.00964766 0.00977221 -0.811005 7.13297 -3.99948 0.0060387 
249 1 1 0.0279301 0.0440062 0.00599616 0 0 0 -0.00683192 -0.0171897 0.0174121 0.00256481 -0.00582666 0.0034011 -2.63593 -0.86227 -1.57409 0.0060387 
289 1 1 0.0440351 0.0420771 0.00596696 0 0 0 -0.00773511 0.000281147 -0.00696314 0.00397274 -0.00637116 0.00885232 0.115161 -1.59478 -0.079434 0.0060387 
299 1 1 -0.0243724 -0.0444609 0.0162554 0 0 0 0.00292147 -0.0185288 0.0311788 -0.0153424 0.00985687 0.00720083 6.69071 -5.76315 -1.2782 0.0060387 
225 1 1 -0.0115282 -0.0435536 0.0175632 0 0 0 -0.0077929 -0.0580836 0.0148069 -0.00788851 0.0446462 0.00236717 3.55231 0.937039 -1.10423 0.0060387 
242 1 1 0.000413106 -0.0442386 0.0176733 0 0 0 -0.018892 -0.00616322 0.00706693 0.00546368 0.0258629 0.0203511 1.00736 0.113149 4.43637 0.0060387 
130 1 1 0.0208611 -0.0440561 0.0169283 0 0 0 -0.0119246 -0.00964091 0.0047993 0.0131136 0.0167708 -0.00937882 -0.0657441 5.30846 1.83816 0.0060387 
60 1 1 0.0102031 -0.0355504 0.00958189 0 0 0 -0.0128516 -0.0120157 0.00584244 0.101954 0.0986612 -0.0693369 -1.76965 -1.24277 -2.8123 0.00966192 
67 1 1 0.0273484 -0.0281254 0.0121528 0 0 0 -0.02357 -0.0120454 0.0238638 0.0719506 0.0624941 -0.0721468 1.46892 -1.08995 4.06429 0.00966192 
40 1 1 -0.0107204 -0.01655 0.00997819 0 0 0 -0.0134808 -0.0125914 0.00655336 -0.151033 -0.138356 -0.0134684 3.08741 -3.66888 1.71205 0.00966192 
279 1 1 0.00393 -0.0214198 0.0104004 0 0 0 0.00334492 0.00428558 0.0197165 -0.0319231 0.00136608 -0.0255937 6.71442 0.582278 0.35386 0.0060387 
96 1 1 0.0109726 -0.00804741 0.0142332 0 0 0 0.00606238 0.0133192 0.0147379 -0.276512 0.156832 0.0598524 -1.29498 7.93422 4.13599 0.00966192 
50 1 1 0.0294908 -0.00959763 0.00947381 0 0 0 0.0108633 -0.0220606 0.00399188 0.101575 0.0476852 0.00163325 -3.86358 -4.84386 -8.15472 0.00966192 
183 1 1 0.0440033 -0.00734486 0.0168981 0 0 0 0.021007 0.0947962 -0.02367 -0.124854 -0.0459211 0.023284 -20.0782 0.988791 -10.6686 0.0060387 
17 1 1 -0.00562486 0.00167698 0.0126666 0 0 0 -0.00561725 -0.0134831 -0.0132644 -0.103566 -0.0765359 -0.0413075 -5.96777 -0.744782 -3.33725 0.00966192 
25 1 1 -0.0403439 0.00658346 0.0187515 0 0 0 0.0281888 -0.0942912 0.219399 0.151277 -0.0902607 0.0918222 -17.5879 -24.2201 2.96735 0.00966192 
94 1 1 0.0373372 0.00722065 0.0134485 0 0 0 0.0474608 -0.0258639 0.0101715 0.230036 0.092001 -0.111729 1.59686 -0.0506997 3.97613 0.00966192 
300 1 1 -0.04416 0.0214008 0.0155056 0 0 0 -0.0155329 -0.09186 0.0414872 0.0256752 -0.0580394 0.0532064 4.04671 -5.14778 -17.9879 0.0060387 
273 1 1 -0.0324723 0.0194387 0.0156497 0 0 0 -0.0272279 -0.0651405 0.0676552 0.0344451 -0.0427487 0.0705511 -22.0388 2.44403 19.4684 0.0060387 
286 1 1 -0.00080311 0.0161107 0.0162886 0 0 0 -0.0309423 -0.0295304 0.00592121 -0.000199236 0.0185747 0.000263504 10.3801 -4.50599 1.17494 0.0060387 
320 1 1 0.00642614 0.0265034 0.0167342 0 0 0 -0.018841 -0.0193058 0.0136975 0.00932454 -0.00490855 -0.016938 -10.1867 7.05972 4.70902 0.0060387 
77 1 1 0.0231379 0.030097 0.0113777 0 0 0 -0.00693588 -0.0264724 0.0444795 0.0680843 0.00795369 0.0142328 0.480323 3.02427 0.60454 0.00966192 
284 1 1 0.0442263 0.0275978 0.0153165 0 0 0 0.00442037 -0.00990354 0.0123284 0.00551174 -0.00213183 0.000172658 -5.71739 2.31944 0.788112 0.0060387 
305 1 1 -0.0406795 0.0362848 0.0145372 0 0 0 -0.0205159 0.0262686 0.0325949 0.0136238 -0.0280863 -0.0206619 -6.71631 -1.84774 9.21214 0.0060387 
38 1 1 -0.014781 0.0410099 0.00948585 0 0 0 0.00121256 -0.00645603 -0.000780164 0.0943036 -0.0453187 -0.0627485 0.52244 -0.528173 0.772091 0.00966192 
237 1 1 0.000768029 0.0439727 0.0121255 0 0 0 0.0204281 0.00129562 -0.0395362 -0.00537675 -0.0129662 -0.00504113 -2.09185 -7.34636 5.27043 0.0060387 
239 1 1 0.0192305 0.0443884 0.0145672 0 0 0 -0.0133618 -0.00831815 0.0158347 0.0175462 0.00339784 0.00817527 -2.40883 -18.3911 -2.71194 0.0060387 
331 1 1 -0.0427356 -0.0448149 0.0213478 0 0 0 -0.00516702 0.00404978 0.00314834 0.00543092 0.00171456 -0.00499223 -0.455582 -2.94164 0.736807 0.0060387 
167 1 1 0.0318607 -0.0441525 0.021467 0 0 0 -0.00694803 0.00688011 -0.00199208 0.00176443 -0.000795884 0.0110396 -0.955655 -3.67094 1.09313 0.0060387 
136 1 1 0.0437983 -0.0442963 0.0237735 0 0 0 -0.00674307 0.000277741 0.0111727 0.00753754 -0.00608286 -0.00474387 1.27536 -3.19265 1.18107 0.0060387 
180 1 1 -0.0439949 -0.0339677 0.025721 0 0 0 0.00567034 0.0117033 0.0209004 0.024709 -0.000790072 -0.0131836 7.77587 -8.81171 -7.72447 0.0060387 
256 1 1 -0.0322822 -0.0394217 0.0242538 0 0 0 0.000234732 0.030868 0.0195247 0 0 -0.0226219 -1.53796 4.69021 -3.12893 0.0060387 
179 1 1 -0.0342394 -0.0267679 0.0195642 0 0 0 0.0213847 0.0194403 0.0277526 -0.0260935 -0.00425277 0.00250432 -8.65411 5.22108 -6.11595 0.0060387 
7 1 1 -0.0198102 -0.0306635 0.0204702 0 0 0 0.03901 -0.0282174 -0.0117085 -0.173667 0.164919 0.0082813 -9.77298 6.22358 -2.38573 0.00966192 
104 1 1 -0.00117044 -0.0288359 0.0233517 0 0 0 0.0432067 0.00926153 0.0596933 -0.134103 0.0893003 -0.29805 -2.88983 -14.9923 5.26726 0.00966192 
51 1 1 0.0168488 -0.0248872 0.0277431 0 0 0 0.0473316 -0.00115355 0.102859 0.0218977 -0.0122871 -0.220651 0.286702 8.6629 -7.96688 0.00966192 
120 1 1 0.0407169 -0.0297411 0.0277057 0 0 0 -0.00972776 0.00508191 0.0266281 0.00638496 -0.128285 -0.0328045 3.69253 3.75263 -0.860601 0.00966192 
128 1 1 -0.0444618 -0.0224796 0.0229662 0 0 0 0.0154676 0.0400207 0.0102691 -0.00311034 -0.00608801 -0.00523692 -8.22348 -1.04605 7.56258 0.0060387 
178 1 1 -0.0126901 -0.0194182 0.0281012 0 0 0 -0.00134217 -0.17791 0.253537 0.0113024 -0.057631 0.109964 73.2322 -16.6562 7.45681 0.0060387 
258 1 1 0.00155902 -0.0134643 0.0254598 0 0 0 -0.0851717 0.017007 0.0802963 -0.0169738 -0.013521 -0.0192564 -14.2274 -24.7582 2.58319 0.0060387 
278 1 1 0.0332645 -0.0175644 0.0220457 0 0 0 -0.0543362 0.00941503 0.0548392 0.0020681 -0.0199476 0.00685715 -3.68403 -0.215921 6.13986 0.0060387 
146 1 1 -0.0444343 -0.00783803 0.0195333 0 0 0 -0.0125187 -0.0873482 0.107126 -0.0214676 -0.00703969 -0.0123823 32.3731 -18.7175 -12.1969 0.0060387 
19 1 1 -0.0267914 -0.0134992 0.024344 0 0 0 0.0762612 -0.0174618 0.046559 -0.167598 0.167726 0.0925071 25.4044 -29.4899 -7.04984 0.00966192 
310 1 1 -0.0118606 -0.00821198 0.0249124 0 0 0 -0.0692666 -0.154458 0.322234 -0.00488411 -0.018754 0.189883 -58.1363 53.3194 -4.57592 0.0060387 
160 1 1 -0.00214457 -0.00203946 0.0272674 0 0 0 -0.00814984 -0.0879172 -0.0326197 -0.0603243 0.0579013 0.0569377 24.674 -1.08319 9.32662 0.0060387 
100 1 1 0.00758888 0.00982118 0.0272904 0 0 0 -0.0354471 -0.0387857 0.0297426 0.0340077 0.0332234 -0.122372 -7.06347 0.270713 -0.593517 0.00966192 
28 1 1 -0.0151995 0.0181126 0.0202602 0 0 0 -0.0646792 -0.0559336 -0.0245731 -0.0504311 -0.0536691 0.0704899 -6.69169 -0.930068 2.91764 0.00966192 
261 1 1 0.0440216 0.0141619 0.0255158 0 0 0 -0.0139876 0.0145831 0.0476987 0.0244286 -0.00891014 0.00409104 -5.18797 -9.70844 3.39111 0.0060387 
246 1 1 -0.0441437 0.0266413 0.0260502 0 0 0 0.00475829 -0.027299 0.0445335 0.00504719 0.0131427 0.0129139 -12.3969 -4.6249 -5.6006 0.0060387 
69 1 1 -0.0030864 0.0304995 0.0283534 0 0 0 -0.0164273 -0.0794202 0.055669 0.111818 -0.135979 -0.0629201 7.53719 0.24313 6.1523 0.00966192 
23 1 1 -0.0269578 0.032739 0.0209336 0 0 0 -0.0203213 -0.00495637 -0.00660625 0.0216998 0.00594656 -0.0413279 5.54418 4.21224 -9.3247 0.00966192 
61 1 1 0.0368449 0.0405298 0.0196991 0 0 0 0.00905617 -0.00647097 0.00718469 0.02691 0.00165515 0.040854 -0.228323 3.69485 1.37511 0.00966192 
224 1 1 -0.0438042 -0.0440156 0.0333844 0 0 0 -0.0237035 0.00105114 0.0429518 0.0619024 -0.0219728 -0.00760547 7.08758 8.99886 3.21616 0.0060387 
125 1 1 0.0433224 -0.0434552 0.0357895 0 0 0 -0.00668045 -0.0357001 0.0173259 -0.0114943 0.000270114 -0.0015802 5.17271 2.04114 -13.5515 0.0060387 
211 1 1 -0.044032 -0.0327673 0.0375652 0 0 0 -0.0136157 0.0112007 0.0171085 0.0341307 -0.021902 -0.0137953 -10.7369 3.42477 0.544079 0.0060387 
42 1 1 -0.0117641 -0.0405975 0.0341458 0 0 0 0.002234 0.0020273 0.0642985 0.0940375 0.0862051 -0.153188 2.32419 -11.4105 -1.75099 0.00966192 
191 1 1 0.00390318 -0.0318024 0.0379582 0 0 0 0.00378168 0.0282731 0.175044 0.00632745 -0.0204122 -0.0125441 2.2245 3.96259 0.346428 0.0060387 
271 1 1 0.0307678 -0.0400545 0.0325399 0 0 0 -0.0250299 -0.011197 0.0115073 0.00162655 -0.00300149 0.00924648 5.19664 -0.171817 -2.04314 0.0060387 
66 1 1 -0.0406003 -0.0176457 0.0369435 0 0 0 -0.0227858 0.0248053 0.0241664 -0.0112361 -0.094101 0.0798112 9.47205 -3.54515 0.985888 0.00966192 
134 1 1 0.0441622 -0.0152119 0.0314489 0 0 0 0.00469794 0.000194551 0.0200037 -0.0102804 -0.00532371 -0.0264762 -3.72157 2.5542 0.415927 0.0060387 
18 1 1 0.0142903 -0.00685003 0.0333319 0 0 0 -0.0320342 -0.0110659 0.104873 0.00880903 0.0380622 -0.17179 2.28606 -8.54511 4.61086 0.00966192 
184 1 1 0.0290021 -0.00995516 0.0302543 0 0 0 -0.0257591 0.0109441 0.099591 8.69998e-05 -0.0120525 -0.0222227 6.04983 11.1674 -5.27967 0.0060387 
107 1 1 -0.0383309 0.00108467 0.0376441 0 0 0 0.0422304 0.0342529 0.173554 -0.0768329 0.0372136 0.128982 7.9119 15.7926 -8.03152 0.00966192 
112 1 1 -0.0205794 0.00323502 0.0305852 0 0 0 0.0365757 -0.00169305 0.18278 -0.0798089 0.103511 0.149824 -16.1575 9.42017 7.5127 0.00966192 
55 1 1 0.0407883 -0.000150707 0.03074 0 0 0 -0.0137191 -0.00315327 0.0533758 -0.0355578 -0.0179189 -0.0844469 3.63115 6.0053 1.5018 0.00966192 
95 1 1 0.0249421 0.00957941 0.0343814 0 0 0 -0.0325427 -0.0127688 0.0834911 0.00943883 -0.00953139 -0.0578791 -2.30149 -4.42687 -0.636177 0.00966192 
2 1 1 -0.0323969 0.0180993 0.0313626 0 0 0 0.0291627 0.0349386 0.0769288 -0.0431435 0.0533451 0.140709 -3.63205 24.6572 -3.61176 0.00966192 
108 1 1 0.0270968 0.0280335 0.0304787 0 0 0 -0.00526728 -0.0124809 0.0244188 0.0609975 0.0476633 0.0397415 -5.416 -10.6598 2.66344 0.00966192 
16 1 1 0.0131183 0.04064 0.0282651 0 0 0 -0.0239104 -0.0170885 0.0050143 0.00453883 0.0165499 -0.071571 0.235028 12.1626 -1.53123 0.00966192 
9 1 1 -0.0407511 0.0409137 0.0306219 0 0 0 0.00867822 0.00812057 0.0153603 0.0338773 0.0872065 -0.103441 -0.15929 -3.10231 1.6672 0.00966192 
323 1 1 -0.0101578 0.0442007 0.0286156 0 0 0 -0.038373 -0.0365904 0.0858565 -0.0141999 -0.0253363 -0.00261272 -14.4812 14.3507 -7.8655 0.0060387 
329 1 1 -0.022859 -0.0442931 0.0440645 0 0 0 -0.0264933 0.0160018 0.0837437 0.0721666 -0.0599469 -0.0397492 -1.84015 21.3645 -6.88297 0.0060387 
168 1 1 0.00212034 -0.0442894 0.0386727 0 0 0 -0.0195987 -0.0139839 0.123042 0.0285113 0.0021868 -0.0896711 20.202 1.67455 5.0108 0.0060387 
283 1 1 0.0310217 -0.0442169 0.0436249 0 0 0 0.0176477 -0.000857959 0.0303836 -0.0208792 0.00503489 0.00687487 -1.51603 -3.71404 5.4664 0.0060387 
3 1 1 0.0168467 -0.040585 0.0386899 0 0 0 -0.00791051 -0.00656406 0.0786404 -0.0100456 -0.00246415 -0.188303 2.63163 7.52168 -2.33437 0.00966192 
93 1 1 -0.0265754 -0.0298913 0.0401713 0 0 0 -0.039351 0.00701133 0.0162888 0.0633694 -0.244795 0.176858 -10.4956 4.58771 -0.982644 0.00966192 
43 1 1 -0.00866434 -0.0240922 0.0431729 0 0 0 -0.0789721 0.0396963 0.0528958 0.0416923 -0.0260447 0.0888184 -9.64622 -14.6281 2.59247 0.00966192 
105 1 1 0.0306536 -0.0286239 0.0439991 0 0 0 0.00882689 -0.00556414 0.0302931 -0.0646028 -0.0217591 0.0941895 -4.63429 -3.0413 1.05876 0.00966192 
52 1 1 0.0124312 -0.0215478 0.0462215 0 0 0 0.0403846 0.0841149 0.103637 0.10411 -0.33443 -0.199579 -1.16833 -10.7826 15.6044 0.00966192 
259 1 1 0.0255646 -0.0144563 0.0407432 0 0 0 -0.0218746 -0.00458178 0.0846188 0.015779 -0.00261004 -0.013651 17.357 2.7082 6.13289 0.0060387 
336 1 1 -0.0231646 -0.010489 0.0393912 0 0 0 0.0331422 -0.0585577 0.059749 0 0 -0.0226219 -8.60456 15.8081 9.65323 0.0060387 
245 1 1 0.00138557 -0.0130533 0.0390865 0 0 0 -0.0410711 -0.00789887 0.0762267 -0.00178447 -0.0115187 0.000794934 6.44986 11.2144 -10.1515 0.0060387 
5 1 1 0.0403383 -0.0115525 0.0462923 0 0 0 0.0135873 0.0125089 0.0881808 0.0465691 -0.147472 -0.236256 -0.289151 -7.71649 1.6653 0.00966192 
303 1 1 0.0277949 -0.00299757 0.0429034 0 0 0 -0.00205053 0.00477926 0.121951 -0.00283673 -0.0195126 -0.0395422 -6.97395 25.4162 -4.25753 0.0060387 
318 1 1 0.0440454 0.0040273 0.0453963 0 0 0 0.0132149 -0.0380799 0.0651628 -0.00458324 -0.0284606 -0.00205697 3.78741 0.486672 7.10775 0.0060387 
236 1 1 -0.0241463 0.00771515 0.0451547 0 0 0 -0.0739229 0.0730108 0.138396 -0.0256205 0.0445647 0.0349019 4.76121 -25.2383 18.5886 0.0060387 
4 1 1 -0.00569751 0.0112752 0.04077 0 0 0 0.113327 0.0424435 0.155144 0.153002 0.0155555 -0.0742003 -16.1839 21.0853 12.5336 0.00966192 
208 1 1 -0.0444774 0.0149389 0.0399041 0 0 0 0.0332306 0.0655864 0.164095 -0.00705635 0.00239881 -0.010436 -13.5945 -29.5031 11.4238 0.0060387 
335 1 1 -0.033411 0.0168303 0.0469572 0 0 0 -0.0324809 -0.090014 0.0772072 -0.0221037 0.08226 -0.0432836 7.64855 -1.58554 26.6818 0.0060387 
282 1 1 -0.0192143 0.017895 0.0393742 0 0 0 0.088612 -0.00347632 0.0344227 -0.022948 -0.00627679 0.063559 -23.7056 -30.527 -17.191 0.0060387 
58 1 1 0.0406952 0.0185229 0.039983 0 0 0 -0.00882179 -0.00943046 0.071239 -0.00134924 -0.0644429 0.0521402 5.30736 7.81146 1.06651 0.00966192 
199 1 1 -0.0441721 0.0265245 0.0378313 0 0 0 -0.000365521 0.0688158 0.06463 -0.00419941 0.0139459 0.0411912 -3.40575 -0.84046 -0.707228 0.0060387 
262 1 1 -0.0344862 0.0289487 0.044252 0 0 0 0.038572 -0.0680552 0.114593 0.0235291 -0.0141387 0.0404174 67.6354 12.9223 15.0174 0.0060387 
192 1 1 -0.0239343 0.0283552 0.0384616 0 0 0 0.079625 -0.00304233 0.134746 -0.00778769 0.0336006 0.0981066 53.6765 4.98308 22.3028 0.0060387 
292 1 1 -0.0129565 0.0320545 0.0401588 0 0 0 0.0711978 -0.0162878 0.0932961 0.0683571 0.0268334 0.0771436 -20.5011 13.9435 -18.7525 0.0060387 
73 1 1 0.0107993 0.0239307 0.0398684 0 0 0 0.0225892 -0.0614566 0.0344927 -0.0101578 -0.0523821 -0.159114 1.75732 9.20158 -3.52768 0.00966192 
114 1 1 0.0404035 0.040112 0.0385897 0 0 0 -0.00794031 -0.025302 0.0142149 0.000712476 0.0236098 0.00816908 1.68807 -1.14833 2.68928 0.00966192 
327 1 1 -0.0439796 0.0439889 0.0456389 0 0 0 0.0111734 0.00220921 0.0308508 -0.00304187 -0.0253057 -0.0212874 -1.1348 8.14155 1.85941 0.0060387 
122 1 1 -0.0249908 0.040881 0.0466447 0 0 0 -0.00625244 -0.0242813 0.226918 -0.0214184 0.118153 0.252561 -23.9841 -4.55268 -0.965561 0.00966192 
126 1 1 -0.0090886 0.0428609 0.0436547 0 0 0 -0.0818232 0.0726506 0.0476451 0.103536 0.0887122 0.0541406 21.5475 -2.09409 17.1941 0.0060387 
248 1 1 0.00202504 0.0438462 0.0390917 0 0 0 -0.112125 -0.00131132 -0.130082 0.0371474 0.0124064 -0.00136755 -25.5817 20.5477 -5.40792 0.0060387 
229 1 1 0.0128932 0.0441476 0.0443227 0 0 0 -0.0596386 -0.0226448 -0.0728155 -0.0179867 -0.00242926 -0.0213034 10.6277 -25.7843 -6.90627 0.0060387 
314 1 1 -0.0160656 -0.0441309 0.0539604 0 0 0 0.0662711 0.0292481 0.0656549 0.0303841 0.00978774 -0.00200399 8.19334 -2.99823 -13.61 0.0060387 
265 1 1 0.0230318 -0.0435549 0.0529802 0 0 0 -0.00561224 0.04411 -0.0391784 0 0 -0.0226219 10.176 21.6936 -3.76828 0.0060387 
84 1 1 -0.0405313 -0.033562 0.0526839 0 0 0 -0.0074989 0.0221271 0.0440969 -0.0292579 0.0213505 -0.0287775 6.48538 -2.65025 3.45921 0.00966192 
307 1 1 -0.0175688 -0.0323145 0.0529568 0 0 0 -0.11371 0.0863057 0.166939 0.00298285 -0.026203 0.0147589 -2.58905 24.2792 20.0818 0.0060387 
337 1 1 -0.00681704 -0.0382642 0.0492906 0 0 0 -0.00203643 0.0706147 0.0555691 0.0891039 0.0229528 -0.00890535 14.2672 23.0001 11.9018 0.0060387 
56 1 1 0.00767842 -0.0378703 0.0551921 0 0 0 -0.0375904 0.087499 0.0737331 -0.0103324 0.0114391 -0.134026 -4.14668 -12.8345 -13.9441 0.00966192 
49 1 1 0.0404401 -0.0404755 0.0554454 0 0 0 -0.000580691 0.00360821 0.0507068 -0.00125128 -0.0727325 0.0134567 4.59784 0.254379 0.00668264 0.00966192 
326 1 1 0.0441937 -0.0259285 0.0509301 0 0 0 0.00938827 -0.00549267 0.0352072 -0.00432363 -0.014488 0.00522668 12.1969 5.41692 0.319947 0.0060387 
81 1 1 -0.02349 -0.016805 0.0539241 0 0 0 0.0269816 -0.078145 0.0909211 -0.223223 0.0761863 -0.046462 22.8339 -1.56393 -12.8133 0.00966192 
332 1 1 0.0254982 -0.0156753 0.0526033 0 0 0 0.0804222 0.0635087 0.0775037 0.0190573 -0.0516164 -0.0131244 15.1193 11.9346 -35.3673 0.0060387 
220 1 1 -0.043878 -0.00822117 0.0490344 0 0 0 0.00826401 -0.0230152 0.0931456 -0.005627 0.00394776 -0.0167117 4.33614 -9.98772 -14.2538 0.0060387 
24 1 1 -0.00853721 -0.00579321 0.0484876 0 0 0 0.0269625 0.0452236 0.134524 0.150498 0.0449939 -0.0225257 19.083 -17.625 -25.4451 0.00966192 
240 1 1 0.0173783 -0.00691856 0.0486262 0 0 0 -0.0732977 -0.037782 0.0933722 -0.0704517 0.191358 -0.0831894 -10.4848 2.08667 -5.63794 0.0060387 
133 1 1 -0.0285201 -0.00292749 0.0489927 0 0 0 0.0879725 0.00295286 0.130872 -0.111775 0.034047 0.0534984 -15.9406 -13.3258 8.75524 0.0060387 
32 1 1 -0.0402153 0.00622547 0.056211 0 0 0 0.0684367 -0.148018 0.097242 -0.249733 -0.00881064 -0.600393 -2.96703 -3.49303 5.29676 0.00966192 
15 1 1 0.0146569 0.00830296 0.0504529 0 0 0 -0.0287218 -0.050828 0.118763 -0.00343657 0.0942628 -0.086014 8.89923 6.55082 -3.92178 0.00966192 
298 1 1 0.030043 0.0116524 0.0491671 0 0 0 -0.0349056 -0.0180966 0.0534654 -0.0222628 -0.0506442 0.028525 -16.341 -23.0048 5.36683 0.0060387 
291 1 1 0.0440289 0.0124448 0.053949 0 0 0 -0.0143251 -0.0277017 0.0798153 0.0117557 0.0071199 -0.0150341 -3.71453 -6.56604 -4.74888 0.0060387 
140 1 1 0.00866754 0.0215221 0.0556336 0 0 0 0.0398898 -0.0361671 0.136961 -0.0216532 0.00307211 -0.0369282 -28.494 40.3157 7.63864 0.0060387 
117 1 1 -0.0214284 0.0236552 0.0543623 0 0 0 -0.0290528 -0.097902 0.0949937 -0.0173368 0.045494 -0.232919 12.4274 11.533 -6.19985 0.00966192 
99 1 1 -0.00354419 0.0304462 0.0523843 0 0 0 -0.0179232 -0.0653418 0.156876 0.0468007 0.0260079 -0.085232 10.8669 -18.81 1.10028 0.00966192 
106 1 1 0.0405452 0.0285027 0.0564284 0 0 0 0.00372359 0.0433275 0.0612355 -0.222788 0.0317252 0.0366688 -8.91168 6.7172 -5.20877 0.00966192 
47 1 1 0.0240125 0.0344317 0.0489471 0 0 0 -0.0315422 -0.0197249 0.0373462 -0.277413 0.0201862 -0.00369355 3.81957 -6.52255 13.2442 0.00966192 
174 1 1 -0.037381 0.0439752 0.0558621 0 0 0 -0.190374 -0.00833439 0.0170071 0.00278062 -0.00566905 -0.023172 4.89158 -48.6558 7.53081 0.0060387 
315 1 1 -0.0105162 0.0440383 0.0555819 0 0 0 -0.0196203 -0.0245716 0.112376 -0.0322949 0.00264082 0.0289259 -20.697 22.4022 -4.30792 0.0060387 
158 1 1 0.00239857 0.0441593 0.056585 0 0 0 -0.0245073 -0.0272237 0.140389 -0.0111933 0.00549497 0.0178026 -23.7585 24.1193 -3.60721 0.0060387 
203 1 1 0.0422529 0.0438261 0.0537029 0 0 0 -0.000321544 0.0486755 -0.00591327 0.0292657 0.0177211 -0.0104988 -6.84114 -2.86532 -5.21416 0.0060387 
190 1 1 -0.00601534 -0.0438447 0.0605511 0 0 0 0.0829509 0.0113124 0.139449 0.029594 -0.0158928 -0.00449153 4.68571 -5.15039 16.7681 0.0060387 
189 1 1 0.0278399 -0.0439736 0.0640878 0 0 0 -0.0466378 -0.000890863 -0.00839212 -0.00787399 -0.00181552 -0.00190963 -0.621374 -7.50577 -2.6186 0.0060387 
6 1 1 -0.0270925 -0.0405093 0.0643515 0 0 0 0.00436684 0.00277564 0.0721575 0.0229857 0.0422225 -0.0760209 6.0687 -5.43157 4.03132 0.00966192 
313 1 1 -0.0135451 -0.0255386 0.0620775 0 0 0 -0.00748291 -0.0449483 0.199475 -0.00748904 0.0688845 -0.0452794 -36.9331 -24.1665 31.0333 0.0060387 
137 1 1 -0.00201401 -0.0268095 0.0598913 0 0 0 0.0282343 0.139185 0.168514 0.0212831 0.126102 -0.0581797 20.8163 29.4801 6.06876 0.0060387 
91 1 1 0.0231237 -0.0281446 0.0616022 0 0 0 -0.0734484 0.0460659 0.0055728 0.153292 -0.0850785 0.0228064 -3.68356 -4.88306 -0.134734 0.00966192 
247 1 1 0.0399777 -0.0265848 0.0624489 0 0 0 -0.0384081 -0.0062693 0.104841 -0.0125445 0.0052999 0.0124983 1.83612 -19.7781 -2.55465 0.0060387 
36 1 1 -0.0403596 -0.0175375 0.0632613 0 0 0 -0.0033482 -0.0305016 0.158307 -0.233452 -0.111963 -0.139314 3.57497 4.9528 -5.12018 0.00966192 
215 1 1 0.0324394 -0.0157763 0.0626212 0 0 0 -0.0231369 0.00932561 0.208003 -0.0257644 0.0178604 -0.0257201 56.949 18.4503 -7.73381 0.0060387 
217 1 1 0.0441635 -0.0154985 0.0609935 0 0 0 -0.0170169 -0.00130094 0.0543166 0.000495046 0.0907432 0.0750547 -13.3952 8.76292 0.196789 0.0060387 
182 1 1 -0.0311032 -0.00524664 0.0613967 0 0 0 0.0583683 -0.10203 0.1071 -0.0597131 0.0425281 -0.00481301 -5.56448 6.46523 -5.92245 0.0060387 
10 1 1 0.00627779 -0.00607117 0.0604089 0 0 0 -0.0306423 -0.0382403 0.195467 0.0916202 -0.0575909 -0.0375159 -19.391 11.0087 15.3677 0.00966192 
276 1 1 0.0196807 -0.0130509 0.0636697 0 0 0 0.000142479 0.0186699 0.176375 0.0331782 -0.0340132 -0.0317073 49.4272 -24.6518 -12.4079 0.0060387 
197 1 1 -0.0203786 -0.00182285 0.057636 0 0 0 0.00495675 -0.00818207 0.136836 0.0331506 0.0169724 0.0171129 35.6578 1.0643 10.0636 0.0060387 
87 1 1 0.0286827 -0.00106204 0.0595154 0 0 0 0.0155959 0.0411878 0.205744 -0.132117 0.116575 -0.129121 -39.2553 3.26631 1.5752 0.00966192 
148 1 1 0.0440989 -0.00308077 0.0588781 0 0 0 0.00533619 0.0222777 0.10698 -0.0245 -0.0130084 -0.0050515 2.32073 18.879 -3.9606 0.0060387 
115 1 1 -0.00212674 0.0112115 0.059581 0 0 0 0.00342776 0.0118844 0.188183 -0.169239 -0.0535072 -0.0813106 16.6037 -16.1902 -14.6769 0.00966192 
338 1 1 0.0421528 0.00783377 0.0648478 0 0 0 -0.0944882 0.0229169 0.0941757 0.00550787 0.0396926 0.000884125 2.5534 12.1202 -42.0808 0.0060387 
266 1 1 0.020494 0.0219554 0.0576064 0 0 0 0.00220537 -0.0271022 0.0361615 0.00362276 0.113981 0.119909 -19.3289 -39.1031 14.8485 0.0060387 
39 1 1 -0.0404717 0.0253855 0.0581036 0 0 0 -0.00067805 -0.10603 0.13452 0.00308916 -0.288408 -0.12281 -38.2858 -12.1121 -10.0582 0.00966192 
35 1 1 -0.0247518 0.0400694 0.0658075 0 0 0 -0.0469514 0.0930107 0.153526 0.638777 -0.298466 -0.709859 6.82096 0.280285 2.61264 0.00966192 
113 1 1 0.0113338 0.0340339 0.0642835 0 0 0 0.0512557 -0.0190587 0.0863816 -0.0616392 0.0364989 0.101183 16.7454 -6.51332 8.80253 0.00966192 
124 1 1 0.044116 0.0436052 0.0656335 0 0 0 0.00666429 -0.0133104 -0.0289723 -0.00805226 0.0500213 -0.0400598 2.09066 -4.02511 0.618955 0.0060387 
252 1 1 -0.0385495 -0.0439413 0.0745148 0 0 0 -0.0897728 0.0100081 -0.0218902 0.00189738 -0.000390371 -0.023633 0.33609 -6.33418 -3.99312 0.0060387 
186 1 1 0.0439486 -0.0439536 0.0703186 0 0 0 -0.000249377 0.000570715 0.04486 0.0290362 -0.0194442 0.0130369 -4.05696 7.90786 -2.12645 0.0060387 
230 1 1 -0.0402408 -0.0334098 0.0685976 0 0 0 0.00597584 -0.0092419 0.126727 -0.00744123 0.0280626 0.0526116 9.74535 7.83248 -9.50596 0.0060387 
109 1 1 0.0141787 -0.0405705 0.0729203 0 0 0 -0.011135 0.0196547 0.0766233 0.136299 0.0401287 0.00084754 5.3818 17.0943 0.748486 0.00966192 
165 1 1 0.0440068 -0.0320395 0.0723602 0 0 0 0.00785731 0.00146097 0.0967879 -0.0578383 -0.00442233 0.017786 -8.24824 30.0861 -1.13525 0.0060387 
75 1 1 -0.0246232 -0.0233106 0.0726931 0 0 0 -0.0206657 -0.0249184 0.192366 -0.132484 0.103394 0.229975 -0.0412054 18.034 -0.960337 0.00966192 
227 1 1 0.00873306 -0.0261934 0.06849 0 0 0 -0.174099 0.00325617 0.0218242 0 0 -0.0226219 19.6644 24.0638 -10.2472 0.0060387 
26 1 1 -0.00618769 -0.0163226 0.072274 0 0 0 0.0126926 -0.0148862 0.21194 -0.0212465 0.050376 -0.0863314 15.1681 -10.831 -3.9512 0.00966192 
209 1 1 0.0104842 -0.0146469 0.0725952 0 0 0 -0.0216723 -0.132963 0.16003 0.050936 -0.055359 -0.0303907 43.4284 -8.22071 -39.1592 0.0060387 
169 1 1 0.0440764 -0.0194119 0.0725547 0 0 0 0.00297446 0.0564552 0.113109 -0.0304686 -0.0364219 0.00370413 11.3129 20.5793 -8.45463 0.0060387 
204 1 1 -0.0187948 -0.0073362 0.0703351 0 0 0 0.0195698 0.0017943 0.027095 0.00243116 0.0359204 -0.0202544 -13.7257 -29.7696 7.83441 0.0060387 
325 1 1 0.0372768 -0.00959735 0.0716735 0 0 0 -0.0478216 0.00626277 0.211488 -0.0472143 0.0202619 0.0213551 -13.104 10.1342 15.823 0.0060387 
306 1 1 -0.0439993 -0.00313683 0.0682356 0 0 0 0.027627 -0.00357044 0.296721 0.0251594 -0.0273209 -0.037388 22.9944 -12.0998 7.19494 0.0060387 
63 1 1 -0.0404021 0.0122206 0.0743621 0 0 0 -0.02856 -0.0344104 0.120818 0.137858 -0.0922619 -0.132819 -9.40917 -3.95408 -3.82097 0.00966192 
57 1 1 -0.0196944 0.00834188 0.069373 0 0 0 -0.0293435 -0.032524 0.185111 0.101233 -0.182013 -0.0140076 -16.1384 0.0720808 -7.30338 0.00966192 
250 1 1 -0.0290081 0.0206425 0.0675951 0 0 0 -0.0227303 0.0164747 0.186456 0.0442101 0.0294051 -0.00481225 16.0992 23.654 5.03478 0.0060387 
233 1 1 -0.00703706 0.0164493 0.0734899 0 0 0 0.00702766 -0.0792406 0.207746 -0.012686 0.00405505 0.00270955 10.5754 -10.9496 -4.84752 0.0060387 
263 1 1 0.00680052 0.0197331 0.0692574 0 0 0 0.0693513 -0.0582668 0.0828962 0.040807 -0.0218121 0.0315224 -11.0361 28.0288 44.3006 0.0060387 
45 1 1 0.0292262 0.0157063 0.068922 0 0 0 -0.0680463 0.0760274 0.138313 0.00993833 0.0359145 -0.00494195 15.861 3.89208 14.7231 0.00966192 