ITEM: TIMESTEP
40250
ITEM: NUMBER OF ATOMS
338
ITEM: BOX BOUNDS mm mm mm
-0.05 0.05
-0.05 0.05
0 0.15
ITEM: ATOMS id type type x y z ix iy iz vx vy vz fx fy fz omegax omegay omegaz radius 
319 1 1 -0.0146368 -0.0442889 0.00616114 0 0 0 -0.000968411 -0.00384669 -0.00120728 -0.00345035 -0.00748741 -0.000326271 0.0953455 -0.179165 0.446547 0.00651536 
243 1 1 -0.00276866 -0.0436989 0.00610184 0 0 0 0.0011414 -0.0030067 -0.00240164 0.00123145 -0.00942775 -0.00159081 -0.0253514 0.565777 -0.491092 0.00651536 
260 1 1 0.0251614 -0.0436305 0.00617213 0 0 0 -0.00233973 0.000324057 -0.000181198 0.00675171 -0.00421893 -0.00311324 0.0791783 -0.0893001 0.437482 0.00651536 
131 1 1 -0.0256092 -0.0396401 0.00586084 0 0 0 -0.00213331 -0.00701301 -0.00362871 -0.00174914 -0.0138646 -0.00778519 0.930697 -0.301794 0.106168 0.00651536 
173 1 1 -0.0155647 -0.0318406 0.00580619 0 0 0 0.00100748 -0.00428078 -0.00268626 0.00115627 -0.00745774 -0.00192698 0.105408 0.193041 -0.921707 0.00651536 
296 1 1 -0.0274133 -0.0273437 0.00630792 0 0 0 -0.00143019 -0.00434407 -0.00157024 -0.000848495 -0.00830279 -0.00228164 -0.253468 -0.0893639 0.44729 0.00651536 
275 1 1 -0.0036127 -0.0295005 0.00593285 0 0 0 0.00138007 -0.0122979 -0.00577484 0.000104655 -0.033824 0.000334102 1.05531 0.234443 0.860006 0.00651536 
144 1 1 0.042497 -0.0249722 0.00619382 0 0 0 0.00698175 0.00148883 -0.00170538 0.00645307 -0.0011016 -0.0104698 -0.354309 0.78839 0.113237 0.00651536 
102 1 1 -0.0404355 -0.0170295 0.00913372 0 0 0 -0.00266733 -0.00434705 -0.00116015 0.0142436 -0.0149398 -0.00113076 0.486974 -0.234015 -0.0317992 0.0104246 
328 1 1 -0.0253703 -0.0152515 0.00566219 0 0 0 -0.0029477 -0.00776293 -0.00234258 0.000948147 -0.0128381 0.00224443 0.864384 0.389095 -0.558677 0.00651536 
267 1 1 0.0153001 -0.0200908 0.00604733 0 0 0 0.00467763 -0.00443934 -0.00294884 -0.00310817 -0.0117907 0.00095225 0.334091 0.109221 0.122217 0.00651536 
202 1 1 0.0448185 -0.0130276 0.00631413 0 0 0 0.00476447 0.000311866 -0.00417546 0.0063121 0.00195941 -0.00075984 0.082701 -0.326107 0.0276815 0.00651536 
257 1 1 -0.0439638 -0.00121813 0.00629698 0 0 0 -0.00541257 0.000601419 8.47629e-05 0.00632963 -0.0100472 -0.000800983 -0.617518 -0.419649 0.643513 0.00651536 
268 1 1 -0.0323448 0.00347182 0.00643591 0 0 0 -0.00781555 0.000817558 -0.0117562 0.0192275 -0.0298725 -0.0307171 -1.62854 1.43651 -0.993904 0.00651536 
274 1 1 -0.0218368 -0.00397843 0.0080956 0 0 0 -0.00581093 -0.00929905 -0.0252424 0.023017 -0.00934082 -0.0397544 -3.31107 3.77894 0.79982 0.00651536 
164 1 1 0.0203575 0.00150624 0.00574762 0 0 0 -0.000557729 -0.00131542 -0.00672964 -0.0048881 -0.00290399 0.0081974 0.218379 -0.200492 1.60711 0.00651536 
232 1 1 -0.0432574 0.0116169 0.00638417 0 0 0 -0.0178234 -0.00343876 -0.0110136 0.00980364 0.00180449 -2.55526e-06 -0.230665 -2.81194 0.707268 0.00651536 
171 1 1 -0.0207976 0.00783512 0.00861233 0 0 0 -0.00942474 -0.0106164 -0.0326528 -0.000349852 0.000932148 -0.014105 2.29536 0.172089 -0.406248 0.00651536 
297 1 1 -0.0249383 0.0191301 0.00596183 0 0 0 -0.00613458 0.000341538 -0.0150247 0.000283735 0.0251536 0.02315 0.386217 -0.985363 0.41634 0.00651536 
222 1 1 -0.0106378 0.014479 0.00587974 0 0 0 -0.00748703 -0.00591938 -0.0175762 -0.0105322 0.00109858 0.00763409 1.58078 -1.23192 1.34358 0.00651536 
290 1 1 -0.000699788 0.0212995 0.00560307 0 0 0 -0.00389201 0.00259832 -0.00895824 -0.0201533 -0.00497363 0.00361071 -0.172528 -0.509995 -1.22784 0.00651536 
316 1 1 0.0322057 0.0195635 0.0055263 0 0 0 0.000949976 -0.000581565 -0.0090354 -0.0091619 -0.00188087 0.0186394 -0.49042 -0.422782 0.592196 0.00651536 
162 1 1 0.044383 0.020072 0.00580975 0 0 0 0.00302802 0.00348428 -0.00356628 0.00627143 -0.00443137 -0.000185818 -0.140888 -0.22633 -0.212623 0.00651536 
294 1 1 -0.0437807 0.0250968 0.00624273 0 0 0 -0.00290845 -0.00528474 -0.00579922 0.000183037 0.00145115 0.00696434 1.04773 0.0089401 -1.37767 0.00651536 
175 1 1 -0.0327833 0.0312652 0.00616785 0 0 0 -0.00285509 -0.000606079 -0.00473192 -0.006087 -0.00921248 0.00104277 -0.466257 -0.419947 1.69694 0.00651536 
255 1 1 -0.0147906 0.0258716 0.00610264 0 0 0 0.0003261 -0.00587095 -0.00769059 0.00241396 0.00448524 -0.00883475 0.989013 -0.342411 -2.62487 0.00651536 
155 1 1 0.0374465 0.0308928 0.00591702 0 0 0 -3.34436e-05 0.00389751 -0.0081009 0.00876337 0.00296301 0.0113148 -0.0173427 -0.791382 0.732737 0.00651536 
324 1 1 -0.00341403 0.0325094 0.00580083 0 0 0 0.0121595 0.00676357 -0.0152421 -0.0236147 -0.0095454 0.0403692 -1.68384 4.24087 -0.150448 0.00651536 
161 1 1 0.00821835 0.0320725 0.00697627 0 0 0 0.00908997 0.000249882 -0.033672 -0.0188693 0.00397528 0.0735512 5.15942 -3.64746 -0.600506 0.00651536 
321 1 1 -0.0438617 0.043746 0.00630093 0 0 0 -0.00184976 -0.000141831 0.000299263 -0.0108436 0.00162987 0.00217055 0.084616 -0.103159 0.043758 0.00651536 
207 1 1 -0.0313623 0.0437645 0.00634142 0 0 0 -0.00186426 -0.00162523 -0.000737611 -0.0057064 0.00189432 -0.00194765 0.536759 -0.00742947 -0.949047 0.00651536 
149 1 1 0.0118103 0.0437678 0.00570001 0 0 0 0.00648567 0.00362159 -0.00344087 -0.0135861 -0.00185556 0.000561661 -0.375227 1.57948 1.40707 0.00651536 
249 1 1 0.0274802 0.0438982 0.00639537 0 0 0 0.000870073 -0.000629725 -0.0107531 0.0122867 0.011304 0.0254487 1.31518 0.458875 -0.927479 0.00651536 
289 1 1 0.0441197 0.041868 0.00613595 0 0 0 0.005483 0.00696828 -0.00389857 -0.0120074 0.00444935 -0.0181744 -0.578377 0.287135 -1.17167 0.00651536 
299 1 1 -0.0244109 -0.0446143 0.0168955 0 0 0 -0.00228691 -0.0104724 -0.00444232 -0.00428945 -0.013785 -0.00103576 -0.494295 0.364014 0.322207 0.00651536 
225 1 1 -0.0116257 -0.0439151 0.0186936 0 0 0 0.00016004 -0.00659962 -0.00223002 0.00274955 -0.00810477 -0.000965511 -0.303477 -0.409853 -0.00346685 0.00651536 
130 1 1 0.0208085 -0.0440464 0.0180532 0 0 0 -0.000690876 -0.00361999 0.00255566 0.00132355 -0.00990443 0.00162287 -0.0684742 -0.111327 0.395286 0.00651536 
74 1 1 -0.0405455 -0.0363687 0.00971763 0 0 0 -0.00391189 -0.00716058 -0.00208105 -0.0278866 -0.0599537 -0.0166566 0.183885 -0.0738841 -0.289081 0.0104246 
60 1 1 0.0103705 -0.0357683 0.00973661 0 0 0 0.0038055 -0.0076034 -0.00355848 0.0511457 -0.0913891 -0.0585655 0.220234 -0.452205 0.0213227 0.0104246 
78 1 1 0.0410321 -0.0406727 0.00940215 0 0 0 0.00331538 -0.00047488 0.000498598 0.0246095 -0.0279054 -0.054615 0.140168 0.16633 -0.32571 0.0104246 
67 1 1 0.0275721 -0.0279665 0.0129066 0 0 0 0.00710585 -0.00198587 0.00247705 0.0458265 -0.113356 -0.0874141 -0.235695 0.042838 0.314757 0.0104246 
40 1 1 -0.0106481 -0.0157874 0.0108874 0 0 0 0.000278725 -0.0124408 -0.017138 0.0278508 -0.119172 -0.0200997 -2.20356 1.03722 -0.514367 0.0104246 
279 1 1 0.0042622 -0.0207764 0.011168 0 0 0 0.00136954 -0.00896493 -0.0100467 -0.00313759 -0.0263499 -0.0002687 -0.684733 -1.20921 0.402825 0.00651536 
96 1 1 0.0118468 -0.00743707 0.0161221 0 0 0 -0.000112246 -0.000394359 -0.00928596 -0.0518009 -0.0517566 0.0225101 -0.857385 -1.08744 0.19768 0.0104246 
50 1 1 0.0303387 -0.00930071 0.0099274 0 0 0 0.0041995 0.00118338 -0.00534246 -0.0286458 -0.063494 0.0284527 -0.553094 0.473795 -0.0211211 0.0104246 
183 1 1 0.04434 -0.00704007 0.0174394 0 0 0 0.00413406 0.00350488 -0.00313342 0.00495431 -0.00949781 0.0176958 -1.09464 -0.866498 -0.59158 0.00651536 
17 1 1 -0.00499721 0.00258651 0.0146339 0 0 0 -0.00510249 -0.0119658 -0.0292833 0.0040735 -0.034382 0.0318385 1.02032 -0.850991 1.12531 0.0104246 
98 1 1 0.0121028 0.0133843 0.0100802 0 0 0 -0.00689782 -0.00526301 -0.00756355 -0.0387846 0.0748736 0.0577837 0.106477 -0.541831 -0.739918 0.0104246 
94 1 1 0.0381814 0.00811151 0.0139699 0 0 0 0.00391507 0.00199219 -0.0105277 -0.0559151 -0.0172463 0.0695678 0.69469 -0.058114 0.208634 0.0104246 
300 1 1 -0.0442024 0.0185671 0.0171283 0 0 0 -0.00732793 -0.0121575 -0.0166526 0.00883241 0.0135439 0.045877 1.19604 2.75706 -1.78958 0.00651536 
273 1 1 -0.0321022 0.0182699 0.0159066 0 0 0 -0.0132606 -0.0140694 -0.0277564 0.0111456 0.0569253 0.0616514 1.06056 -0.907083 2.08004 0.00651536 
286 1 1 -0.00137546 0.0182159 0.0171526 0 0 0 -0.0208856 -0.00672311 -0.0134752 -0.0204425 0.0294691 0.00959235 0.89045 -0.904346 2.15618 0.00651536 
77 1 1 0.0226266 0.0295276 0.0126959 0 0 0 -0.00122646 -0.00513115 -0.0161104 -0.0656905 0.0614844 0.132144 -0.391816 0.482242 0.442708 0.0104246 
284 1 1 0.0444029 0.0273844 0.0156832 0 0 0 0.00210291 0.00406094 -0.00258888 0.0105829 -0.00161574 -0.0057777 -0.538155 -0.308158 -0.83872 0.00651536 
305 1 1 -0.0433251 0.0344317 0.0151381 0 0 0 -0.0165244 -0.00502488 0.00516594 -0.00433556 0.00613384 0.00662346 -0.17384 -3.68186 1.19341 0.00651536 
38 1 1 -0.0154645 0.0412115 0.00966733 0 0 0 0.00636603 -0.00221308 -6.65809e-05 -0.0430655 0.0130437 -0.0440408 0.347695 -0.0569068 0.973481 0.0104246 
237 1 1 0.000724613 0.0437217 0.0118764 0 0 0 0.00693133 0.00182954 0.00770644 -0.0079297 -0.00221464 -0.00202171 -1.29861 -0.848784 -0.125055 0.00651536 
239 1 1 0.0186823 0.0445018 0.0156181 0 0 0 0.00184152 0.00268184 -0.009625 -0.004747 -0.00652599 0.0493151 1.14793 -1.16358 -0.906934 0.00651536 
331 1 1 -0.0428982 -0.0450444 0.0218899 0 0 0 -0.00559145 -0.00693079 -0.000808424 -0.00964738 -0.0179357 -0.00699163 -0.323064 -0.0978085 0.437742 0.00651536 
242 1 1 0.000887995 -0.0442617 0.0196347 0 0 0 0.000422786 -0.00794813 -0.00175872 0.00726188 -0.0196385 -0.00340977 -0.340009 0.402042 0.000868797 0.00651536 
167 1 1 0.0319016 -0.0441267 0.0227656 0 0 0 3.96063e-05 -0.00133404 0.00270118 -0.00114995 -0.00272837 0.00672699 0.323964 -0.075486 -0.0974815 0.00651536 
136 1 1 0.0440675 -0.0444749 0.0241282 0 0 0 0.00255611 -0.00308146 0.00168798 0.00434088 -0.00784576 -0.00175519 -0.00244835 0.0388475 0.0321076 0.00651536 
180 1 1 -0.0439294 -0.033713 0.0266468 0 0 0 -0.00354088 -0.00415755 -0.000844251 -0.00553862 -0.00196198 -0.0113324 0.25758 0.350685 -0.216083 0.00651536 
256 1 1 -0.0324157 -0.0395506 0.0254974 0 0 0 -0.00554237 -0.00884425 -0.00222688 -0.00797902 -0.0235084 0.00018209 -1.02672 0.0495399 -0.753508 0.00651536 
179 1 1 -0.0343373 -0.0259148 0.021085 0 0 0 -0.00514226 -0.0120672 0.00206144 -0.0012925 -0.013017 0.0186009 0.281554 -0.106909 -0.485734 0.00651536 
7 1 1 -0.0197869 -0.0300882 0.0211729 0 0 0 -0.00470178 -0.0117487 -0.000939183 -0.000404102 -0.0252823 0.0555519 0.905328 -0.293732 0.341796 0.0104246 
104 1 1 -0.000214406 -0.0284324 0.0247561 0 0 0 -0.0020039 -0.00862045 -0.0052174 0.0272271 -0.0570594 0.00719813 -0.271409 0.388688 0.292518 0.0104246 
128 1 1 -0.0446872 -0.0216383 0.0237925 0 0 0 -0.00527049 -0.00619252 0.000956137 -0.00649259 -0.00632054 0.00054447 -0.128969 -0.155811 -0.345182 0.00651536 
278 1 1 0.0326475 -0.0165292 0.0241464 0 0 0 0.0101886 0.00443748 -0.000750973 -0.0162443 -0.0214066 0.00808199 0.297321 0.619998 -0.669035 0.00651536 
146 1 1 -0.0444937 -0.00937593 0.0224023 0 0 0 -0.00590982 -0.00659373 -0.00896381 0.0130463 0.0223765 0.0214439 -2.21169 1.31454 -0.0486462 0.00651536 
19 1 1 -0.0258646 -0.0119169 0.0277447 0 0 0 -0.0162564 -0.0229966 0.000519628 -0.0145539 0.0865261 0.0249702 -1.05409 0.198835 0.560245 0.0104246 
258 1 1 0.00120281 -0.0123826 0.0273181 0 0 0 -0.00893299 -0.00671471 -0.0113847 -0.0126096 0.00839159 0.0305415 0.750416 0.395822 0.427355 0.00651536 
25 1 1 -0.03714 0.00456459 0.0229029 0 0 0 -0.0084965 -0.0194909 -0.0280621 0.125585 0.302308 0.210755 -0.802882 -2.24478 -0.452448 0.0104246 
28 1 1 -0.0164058 0.0180311 0.0205957 0 0 0 -0.0220811 -0.0198888 -0.0196415 0.0432045 0.15116 0.142791 0.165328 -0.458546 -0.504572 0.0104246 
261 1 1 0.0428701 0.0170869 0.0272095 0 0 0 0.0323279 0.00253939 -0.0208109 0.015608 -0.0539761 0.0335984 -2.70862 1.03212 -4.87633 0.00651536 
246 1 1 -0.0439727 0.025885 0.0275444 0 0 0 -0.00352288 -0.00118222 -0.0107012 0.0114028 0.0290567 0.0730948 -1.33734 -0.263822 -0.120537 0.00651536 
320 1 1 0.0043714 0.0292256 0.0187875 0 0 0 -0.026723 0.00129376 -0.0380849 0.0248063 -0.00490035 0.170333 -4.38863 -0.841486 -2.94091 0.00651536 
23 1 1 -0.0279797 0.0329215 0.0217685 0 0 0 -0.0026314 -0.00418468 -0.0075263 0.0165889 0.252317 0.0169615 0.723462 0.280934 -2.4067 0.0104246 
61 1 1 0.0368826 0.0405795 0.0205774 0 0 0 0.0011869 0.00651337 -0.011362 0.0316838 -0.0294479 0.00790267 0.583857 -1.10239 0.271228 0.0104246 
224 1 1 -0.0437482 -0.044187 0.0341976 0 0 0 0.000346391 -0.00426448 0.00197563 -0.00157892 0.000695522 -0.0157103 0.188739 0.628905 -0.221883 0.00651536 
125 1 1 0.0437335 -0.0438572 0.0367769 0 0 0 -0.0022829 -0.00290129 0.0048207 0.00333048 -0.00948375 0.011829 0.29555 -0.754234 0.183167 0.00651536 
42 1 1 -0.0119212 -0.0404028 0.0355901 0 0 0 -0.00261486 -0.0095636 0.00125421 0.0270863 -0.0863986 0.0120196 -0.335232 0.0467178 0.132605 0.0104246 
271 1 1 0.0312461 -0.0405463 0.0343554 0 0 0 0.00100808 -0.00122599 0.00356191 0.0124072 -0.0119022 0.00634217 -0.376609 0.308916 0.252396 0.00651536 
51 1 1 0.0183116 -0.0229921 0.0301846 0 0 0 0.00253279 0.000177037 -0.00239951 0.0935113 -0.116985 -0.0855812 -0.5535 -0.869362 0.109089 0.0104246 
120 1 1 0.0406536 -0.0296195 0.0290894 0 0 0 0.00168745 -0.000549099 -0.00249205 0.0259915 -0.0202228 0.0271671 -0.359684 -0.210209 -0.182719 0.0104246 
178 1 1 -0.0123801 -0.0205898 0.0320489 0 0 0 -0.00732109 -0.0116273 0.00477073 0.000776386 0.00799123 0.0165024 -0.588228 0.396234 0.716097 0.00651536 
134 1 1 0.0438567 -0.0144459 0.032786 0 0 0 0.00652434 -0.0044127 -0.00717559 0.00254553 -0.00524876 0.00812525 -0.260397 -1.13808 -0.572722 0.00651536 
310 1 1 -0.0101852 -0.00890608 0.0300112 0 0 0 -0.0164204 -0.0116148 -0.0077894 -0.0087318 0.0254694 0.0317135 -1.26934 0.328131 0.888203 0.00651536 
18 1 1 0.0122899 -0.0047559 0.0364162 0 0 0 -0.0183919 -0.00896458 0.00851086 0.115329 0.0394124 -0.0593109 2.61081 -0.840433 2.33882 0.0104246 
184 1 1 0.0275889 -0.00837547 0.03293 0 0 0 -0.0109158 -0.0126788 -0.00555969 0.00660369 0.0251983 -0.0658755 -1.73607 2.45314 -4.04998 0.00651536 
160 1 1 -0.00234956 0.000567361 0.0308995 0 0 0 -0.0199093 -0.0124061 -0.0101791 -0.0121454 0.02873 0.0265392 -0.64512 -1.92097 -0.975065 0.00651536 
55 1 1 0.0404265 0.001239 0.032402 0 0 0 -0.00293012 -0.0111912 -0.0116216 0.00913148 0.0341549 0.0394535 0.454798 -1.0069 1.85991 0.0104246 
112 1 1 -0.01752 0.00454193 0.0352124 0 0 0 -0.0232661 -0.00741111 -0.00159748 -0.000934469 0.212332 0.10073 -0.066818 1.28425 0.367012 0.0104246 
2 1 1 -0.0313255 0.0192118 0.0353977 0 0 0 -0.0159417 0.0123816 0.00107575 0.219156 0.418927 0.48275 -0.951916 -0.183266 0.326661 0.0104246 
100 1 1 0.00678534 0.0136427 0.0299375 0 0 0 -0.0181886 -0.00086531 -0.00492336 0.0691169 0.245571 0.129667 -0.530789 -0.611064 0.936735 0.0104246 
69 1 1 -0.00602037 0.0293353 0.0341255 0 0 0 -0.0260582 -0.00531363 -0.040778 0.110381 0.281507 0.268798 -3.71959 -1.90087 0.0288166 0.0104246 
108 1 1 0.0263146 0.0287161 0.0326594 0 0 0 0.00653126 -0.00794315 -0.0222442 0.0487181 0.101204 0.398328 -0.0740038 0.216846 1.64698 0.0104246 
16 1 1 0.0107436 0.040474 0.0290512 0 0 0 0.00574449 -0.0145063 -0.0172802 0.0996029 0.103141 0.731903 3.21521 1.40985 -0.809185 0.0104246 
9 1 1 -0.040725 0.0413223 0.0322245 0 0 0 0.0013904 0.00236377 -0.00398084 0.0129772 0.132638 -0.0356346 0.889351 -0.568414 0.00898023 0.0104246 
323 1 1 -0.0129771 0.0438583 0.0305564 0 0 0 0.0280566 0.00291946 -0.133272 -0.0477636 0.0273317 0.0170144 20.3076 -57.0064 4.47473 0.00651536 
329 1 1 -0.0238363 -0.0444311 0.0452844 0 0 0 -0.00710954 -0.00838691 0.00197703 -0.00346826 -0.0258596 -8.64845e-05 0.491485 -0.702815 0.271566 0.00651536 
168 1 1 0.00185328 -0.0445966 0.040015 0 0 0 -0.00182984 -0.00579103 -0.000715164 0.0019134 -0.0154465 0.0130757 -0.27339 0.644385 0.269139 0.00651536 
283 1 1 0.0308408 -0.044233 0.0459038 0 0 0 -0.000989276 -0.00207756 0.00488569 0.00832576 -0.0177289 0.0011892 0.258393 -0.286648 0.127048 0.00651536 
211 1 1 -0.0436234 -0.0329723 0.0392009 0 0 0 -0.00495784 -0.00449808 0.00147039 -0.00916796 -0.00724115 -0.00521913 -0.514162 -0.453854 0.910149 0.00651536 
191 1 1 0.00308988 -0.0321765 0.0406763 0 0 0 -0.0042873 -0.00426244 -0.00126491 -0.000506188 -0.0050974 0.0118286 0.415638 -0.277433 0.0495052 0.00651536 
3 1 1 0.0166632 -0.0406089 0.0394167 0 0 0 -0.00283934 -0.00275006 0.000833398 0.00550513 -0.0504615 0.0213045 0.134066 -0.627443 0.182089 0.0104246 
93 1 1 -0.0267631 -0.0291499 0.0422029 0 0 0 -0.00829235 -0.00751708 0.0019273 -0.0371766 -0.129651 -0.059882 -0.384347 -0.0183042 0.333128 0.0104246 
105 1 1 0.030182 -0.0279937 0.046462 0 0 0 -0.00172348 0.00172792 0.00729079 0.00902079 -0.0349145 0.0390028 0.125756 0.197875 -0.0776598 0.0104246 
66 1 1 -0.0411932 -0.0169164 0.0389343 0 0 0 -0.00910533 -0.00924066 0.00310978 0.0404271 -0.0153949 -0.0450404 0.16455 -0.104889 -0.685434 0.0104246 
336 1 1 -0.0224545 -0.0129177 0.0442739 0 0 0 -0.0649674 0.017077 0.0230888 0.0041233 -0.000999306 0.00466858 -3.28412 -9.10666 9.83202 0.00651536 
245 1 1 -0.000134939 -0.0119945 0.0426536 0 0 0 -0.00742164 -0.0221752 -0.00147383 0.0346719 0.00879762 0.00108014 -1.24529 2.08943 -2.31265 0.00651536 
259 1 1 0.0239668 -0.0133986 0.0437333 0 0 0 -0.00508651 0.00335841 0.00584314 0.0262107 -0.0108489 -0.0493641 -0.770645 -0.214567 0.850877 0.00651536 
107 1 1 -0.0378605 0.00197656 0.0432277 0 0 0 -0.0115341 -0.00464813 -0.007971 0.123004 0.0659371 0.119721 -0.457993 2.06905 1.42784 0.0104246 
95 1 1 0.0238853 0.0107762 0.0391163 0 0 0 -0.00314492 0.000132909 -0.00649943 -0.0389928 0.0468236 0.151525 -3.22092 2.66112 -2.76808 0.0104246 
208 1 1 -0.0442881 0.0166744 0.0447869 0 0 0 -0.0133282 -0.000999749 0.0149234 -0.00248763 0.0265399 0.119644 7.75436 -2.12999 -2.78664 0.00651536 
282 1 1 -0.0179016 0.0180695 0.0442014 0 0 0 -0.00731566 0.0265723 -0.0228063 0.0834566 0.0630616 -0.00223381 -8.29108 0.043008 -7.22082 0.00651536 
58 1 1 0.0407531 0.0198129 0.0435215 0 0 0 0.00670704 0.001795 -0.0168973 0.0521451 0.143366 0.00714605 1.76018 -2.37981 0.903809 0.0104246 
199 1 1 -0.0442848 0.0282688 0.040784 0 0 0 0.0129276 0.0242113 0.0170853 0.0155909 0.0659629 0.0842456 -8.55615 2.39086 2.65826 0.00651536 
73 1 1 0.0111057 0.0279429 0.0455902 0 0 0 -0.00344016 -0.00536798 0.0233325 0.0643055 0.136129 0.802636 4.39597 -2.11746 -3.73036 0.0104246 
114 1 1 0.0400115 0.0404891 0.0405787 0 0 0 -0.0123934 -0.00148695 -0.00486407 0.259535 -0.173066 0.00219549 0.850729 -1.31452 -0.615714 0.0104246 
126 1 1 -0.0110374 0.0439971 0.0465125 0 0 0 0.0182832 0.0197887 -0.015327 0.0075126 0.0134577 0.0639351 3.47256 25.9241 2.68691 0.00651536 
248 1 1 0.000443993 0.0427838 0.0417936 0 0 0 -0.00582856 0.00488097 -0.0722289 -0.0105143 0.0541368 0.181799 -4.67206 -12.716 -8.54999 0.00651536 
229 1 1 0.0125869 0.04414 0.0452731 0 0 0 0.0111588 -0.0109228 0.0442919 -0.0653252 -0.00859614 0.152366 -4.81246 -6.07827 1.72932 0.00651536 
314 1 1 -0.0172683 -0.0441871 0.0556374 0 0 0 -0.00427379 -0.00832738 -0.00503413 0.00639389 -0.0139118 -0.0190845 -0.568412 1.77844 0.44669 0.00651536 
265 1 1 0.0219106 -0.0435206 0.0550979 0 0 0 -0.00866481 -0.00555011 0.0115111 0.0358292 0.0146306 -0.0116337 0.709213 1.00597 1.43736 0.00651536 
84 1 1 -0.040777 -0.0327495 0.0552746 0 0 0 -0.00550048 -0.00823824 0.0029124 -0.0454165 -0.0503137 -0.0107657 1.12568 0.178362 -0.469326 0.0104246 
337 1 1 -0.00590846 -0.0403498 0.0515116 0 0 0 -0.00190095 -0.00876164 0.0102373 0.016925 0.00866367 -0.0228205 -1.13763 -5.38808 1.10612 0.00651536 
43 1 1 -0.00862089 -0.0242169 0.0477592 0 0 0 -0.00562275 -0.00748846 0.00725218 -0.0357326 0.00824751 -0.00639158 0.561173 0.346536 0.0496998 0.0104246 
326 1 1 0.0443747 -0.0254299 0.0532493 0 0 0 0.00339261 0.00108622 0.00569394 0.0116569 -0.00347824 0.0101517 0.49583 0.655106 -0.101682 0.00651536 
52 1 1 0.0114123 -0.0222837 0.0505047 0 0 0 -0.0072595 0.00216446 0.00658618 -0.0549313 0.0845259 0.0116609 -0.23389 -0.418067 0.49888 0.0104246 
332 1 1 0.026568 -0.0154432 0.0560502 0 0 0 -0.00177949 0.00960173 0.00849374 -0.0102229 0.0238508 -0.00584918 -0.197442 0.225197 -0.0932089 0.00651536 
220 1 1 -0.0434997 -0.00971982 0.0540405 0 0 0 0.000632744 -0.0128789 0.00913117 0.0158124 -0.00867559 -0.0272964 1.12735 0.666307 -2.13023 0.00651536 
240 1 1 0.0170905 -0.00770406 0.054899 0 0 0 -0.0038776 0.01449 0.00125671 -0.0112891 0.0240595 0.0059231 -1.5765 -0.0284472 -0.599992 0.00651536 
5 1 1 0.0402186 -0.0107968 0.0486264 0 0 0 0.000327468 0.00189035 -0.000215056 0.0210009 -0.025589 0.0179988 -1.01738 0.131154 0.00414591 0.0104246 
133 1 1 -0.0269921 -0.00264579 0.0558243 0 0 0 0.0324697 0.00625053 0.0220564 0.0865835 -0.0687096 0.0384503 8.4846 -8.72038 -3.36044 0.00651536 
24 1 1 -0.00997031 -0.00372822 0.0525279 0 0 0 -0.000590252 -0.00686221 0.00307761 0.023175 0.115053 -0.146436 0.343858 -0.540661 -0.195241 0.0104246 
303 1 1 0.0267326 -0.00180228 0.0488929 0 0 0 -0.00451036 0.00633897 0.00678497 -0.00179438 -0.0063645 -0.0134177 2.02411 0.462582 -0.140607 0.00651536 
236 1 1 -0.0232621 0.0081555 0.0503276 0 0 0 0.012584 0.0121234 0.0407204 0.130598 -0.0928439 0.1144 -2.05303 7.54483 8.38277 0.00651536 
15 1 1 0.0136581 0.00790211 0.0560504 0 0 0 -0.00308712 0.0275329 0.00723306 -0.0192032 -1.19628e-05 0.131911 1.93175 -1.98177 -0.429996 0.0104246 
318 1 1 0.0441013 0.00470713 0.0484005 0 0 0 -0.00328241 -0.000158963 -0.0146666 0.00546501 -0.0167878 0.0455775 -1.69124 -2.23192 -0.0756034 0.00651536 
335 1 1 -0.0339705 0.0155074 0.0524459 0 0 0 -0.031502 -2.63127e-05 0.00848645 -0.0769903 -0.0828033 0.0329195 5.94999 5.39956 12.0432 0.00651536 
4 1 1 -0.00320568 0.0144594 0.0480772 0 0 0 -0.0170759 0.0107075 -0.00692742 0.0938557 0.132094 -0.027368 -1.04307 1.00223 2.0777 0.0104246 
298 1 1 0.0296716 0.0136809 0.0547424 0 0 0 -0.0050877 0.00674007 -0.0094332 0.0315748 0.0121163 -0.00375105 2.06897 -3.49907 -0.724446 0.00651536 
262 1 1 -0.0368546 0.0278275 0.0507301 0 0 0 -0.00764751 0.000601729 0.110912 0.0328311 0.0474451 0.0318602 13.1594 -17.5883 -16.5099 0.00651536 
192 1 1 -0.0248496 0.0268902 0.0480513 0 0 0 -0.00343616 -0.00465187 0.112598 0.101971 0.0260423 0.0604195 28.8052 13.3528 11.8494 0.00651536 
122 1 1 -0.0275222 0.0404043 0.0559113 0 0 0 0.0208672 -0.0264776 0.208934 0.2623 0.568792 0.00542901 -17.7179 3.78034 1.257 0.0104246 
292 1 1 -0.0138296 0.0321517 0.0487951 0 0 0 0.00378566 0.0300776 0.0227836 0.0596702 -0.02559 0.0464288 -0.953546 13.9518 -8.78821 0.00651536 
47 1 1 0.0243764 0.0397376 0.0559003 0 0 0 0.0171653 0.0112259 0.130163 -1.02008 0.0247138 0.387166 -3.02384 -0.108296 0.306219 0.0104246 
327 1 1 -0.0435139 0.0435186 0.0487393 0 0 0 -0.00239223 -0.00421761 0.00122296 0.0131842 -0.00814445 0.00385809 0.0551413 0.394844 -0.655106 0.00651536 
190 1 1 -0.00820735 -0.0438557 0.0642699 0 0 0 -0.0232643 0.00225 0.0154531 0.00939845 -0.00553737 -0.00967679 2.30638 -5.53223 3.66518 0.00651536 
307 1 1 -0.0193933 -0.0321025 0.0568873 0 0 0 -0.0016921 -0.00902599 0.00488544 -0.00989469 -0.0129438 -0.0128775 1.69431 0.915971 -0.937177 0.00651536 
56 1 1 0.00717539 -0.0390357 0.0616519 0 0 0 -0.0181101 0.0097614 0.0310679 0.029957 0.0394565 0.00702339 -2.78475 0.743118 -1.33239 0.0104246 
49 1 1 0.0404419 -0.0405347 0.0579558 0 0 0 0.00181896 -0.000923508 0.00462992 0.0142603 -0.0269885 0.0233888 0.113881 0.392837 -0.072607 0.0104246 
137 1 1 -0.00216769 -0.022776 0.0630601 0 0 0 0.0090805 -0.0174363 0.014502 -0.0119559 0.0352548 0.00810441 0.199845 1.05636 -1.44961 0.00651536 
81 1 1 -0.0214904 -0.0169109 0.0618861 0 0 0 -0.00389885 -0.00452149 0.00879114 0.02698 -0.000200821 -0.00297607 -1.66611 -0.138131 0.811979 0.0104246 
217 1 1 0.0440844 -0.0148748 0.06415 0 0 0 0.00599872 -0.00092139 -0.00269957 0.0190222 -0.00666672 -0.00369867 2.15915 -0.3766 0.646908 0.00651536 
32 1 1 -0.0397992 0.00430869 0.063452 0 0 0 0.0054812 0.00178515 0.00389893 0.0387232 -0.0125357 0.0293888 -0.949723 -0.873183 -0.865848 0.0104246 
148 1 1 0.0440691 -0.0024111 0.0635243 0 0 0 0.00573145 0.00380796 -0.0256906 0.00643161 -0.0129748 0.0279035 -5.7054 -3.75697 -0.550617 0.00651536 
291 1 1 0.0435561 0.0125268 0.0584555 0 0 0 -0.0120382 -0.0119183 -0.0107882 0.0219704 0.0171261 -0.12789 -0.506736 0.115167 -0.887513 0.00651536 
117 1 1 -0.0209775 0.0193855 0.0624444 0 0 0 0.00491821 0.0317454 -0.0093537 -0.197775 -0.531088 0.101829 -5.85657 -1.46603 -1.48719 0.0104246 
140 1 1 0.00919831 0.0203661 0.0650919 0 0 0 0.0164596 0.0369199 0.0104566 0.00650696 0.0416633 -0.00501426 -6.01403 6.48175 -0.350582 0.00651536 
99 1 1 -0.00359131 0.0297412 0.0614054 0 0 0 0.0264328 0.0242106 -0.00987589 -0.141774 -0.00319536 0.0595834 -1.97582 -3.34623 0.111437 0.0104246 
266 1 1 0.0212411 0.0229266 0.0583649 0 0 0 -0.015557 0.0424018 -0.0859809 0.00286466 -0.0048572 -0.0276505 -4.25927 3.90348 4.63897 0.00651536 
106 1 1 0.0399452 0.0283438 0.0622612 0 0 0 0.0112908 -0.0195804 0.0260477 -0.036098 -0.0366148 -0.0512007 5.60546 2.08359 -1.3354 0.0104246 
174 1 1 -0.0434949 0.0419513 0.0616367 0 0 0 -0.0283642 -0.00320809 0.0119722 0.0710678 0.0711356 0.00894664 2.59568 -1.3919 7.93091 0.00651536 
315 1 1 -0.0120618 0.0438555 0.0625056 0 0 0 0.0119196 0.0107607 -0.0277049 -0.0719289 0.0024382 -0.0102531 4.5386 -2.6841 2.24915 0.00651536 
158 1 1 0.00245483 0.0443473 0.0633223 0 0 0 0.0243259 0.0174217 -0.0433437 -0.0638713 0.00432751 0.0590206 6.98251 27.824 3.29982 0.00651536 
203 1 1 0.041802 0.0438247 0.0567619 0 0 0 0.0117449 -0.00288697 0.0141749 -0.0209478 0.0422841 0.0831534 -3.32856 8.14238 0.528285 0.00651536 
189 1 1 0.0267486 -0.0437954 0.0670925 0 0 0 -0.00301501 -0.00139294 0.00133012 -0.0134407 -0.00366109 -0.000638978 -0.168527 -1.91887 0.257589 0.00651536 
186 1 1 0.0436628 -0.0439602 0.0736545 0 0 0 0.000249959 -0.00046875 0.00374377 -0.00230245 -0.00369038 0.00289401 -0.313283 -0.31292 0.00978609 0.00651536 
6 1 1 -0.0271428 -0.0404081 0.0682434 0 0 0 -0.0010681 -0.00703474 -0.00158166 -0.00784489 0.0042908 -0.0579595 -0.675754 -0.395682 0.472522 0.0104246 
313 1 1 -0.0123455 -0.0308045 0.0677346 0 0 0 0.0698093 -0.0539922 -0.044554 0.0136926 -0.0131252 0.020444 7.1863 10.8716 -1.51044 0.00651536 
227 1 1 0.00762019 -0.0252705 0.071298 0 0 0 0.00730772 0.0109911 0.0270786 -0.00610791 0.0152081 0.0477396 4.39478 0.701194 -0.972779 0.00651536 
91 1 1 0.0233585 -0.027595 0.0661432 0 0 0 0.00212267 0.00693988 0.00372113 -0.0335466 0.0366454 -0.00597126 0.361277 1.15938 -0.492576 0.0104246 
247 1 1 0.0396077 -0.0259527 0.0680665 0 0 0 0.00502558 -0.00442342 -0.00404724 0.0138698 0.00225364 -0.0178265 -2.29913 -1.12484 -0.814422 0.00651536 
36 1 1 -0.0403183 -0.0173902 0.0687572 0 0 0 -0.00389089 -0.000330938 0.00899985 0.00128941 0.108443 -0.0146402 -1.79637 -0.283159 -0.181732 0.0104246 
215 1 1 0.0328893 -0.0149395 0.07026 0 0 0 0.0176618 0.000193888 -0.00910778 0.0254492 -0.0364835 -0.000720313 -0.398554 1.79758 -1.83578 0.00651536 
182 1 1 -0.0295694 -0.00480256 0.0731048 0 0 0 0.0285521 0.0139935 -0.00148338 -0.00478941 0.0595211 0.0271178 8.95112 -2.59503 12.5091 0.00651536 
10 1 1 0.00495811 -0.00788426 0.0658971 0 0 0 -0.00027879 0.00731638 0.00620612 -0.0644997 0.189141 0.0905393 -0.560124 0.242894 2.42399 0.0104246 
276 1 1 0.0198094 -0.0125009 0.0715173 0 0 0 0.0122122 0.01585 0.0152311 -0.00115401 -0.00278514 0.022056 0.374843 -1.3091 -1.54977 0.00651536 
197 1 1 -0.0185568 0.00152431 0.0657678 0 0 0 -0.020142 0.0569546 -0.0293868 -0.0683419 0.0500105 -0.0509925 -0.145754 -10.8234 -20.4422 0.00651536 
87 1 1 0.0286905 0.000733817 0.0670196 0 0 0 0.00907049 0.0117167 -0.00986137 0.0298278 -0.257554 0.142776 -0.0765728 4.16329 0.279127 0.0104246 
115 1 1 -0.00358466 0.0103565 0.0681887 0 0 0 -0.0017132 0.024398 0.00404983 -0.109449 0.113877 0.0291109 0.111153 -0.0868849 -2.84571 0.0104246 
338 1 1 0.0422508 0.00893211 0.0709433 0 0 0 0.0103339 -0.0286026 0.115202 -0.0310783 0.00113055 0.145442 28.0634 -14.5932 -1.04107 0.00651536 
45 1 1 0.0261531 0.0196267 0.0746525 0 0 0 0.027581 -0.0101341 -0.0161675 -0.0374996 -0.461918 -0.351187 -4.98976 3.06017 -0.31526 0.0104246 
39 1 1 -0.0403341 0.0233933 0.0660106 0 0 0 -0.0315838 0.0124669 0.00571242 -0.334162 -0.207293 0.115709 -1.38485 3.58617 3.91709 0.0104246 
124 1 1 0.0435102 0.0433734 0.0695551 0 0 0 0.029009 0.0112126 -0.0404778 0.0621629 0.266068 0.0842121 -2.09402 -5.26649 -2.70601 0.00651536 
252 1 1 -0.0391407 -0.0439931 0.0794654 0 0 0 -0.0140736 -0.016048 -0.0211094 -0.0146716 0.00469437 0.0117567 -2.30325 -5.98891 2.32566 0.00651536 
213 1 1 0.0323799 -0.0439618 0.0810294 0 0 0 0.0117881 -0.00551008 -0.00856069 0.00601525 0.00164489 0.0113398 -1.51558 -3.85378 -1.01054 0.00651536 
230 1 1 -0.0397439 -0.0321947 0.0756597 0 0 0 -0.0109659 -0.0137876 -0.00147906 -0.0168812 0.0119995 -0.0238268 5.80174 -0.0914165 -0.588024 0.00651536 
109 1 1 0.016489 -0.0401512 0.0798907 0 0 0 0.0174568 0.0102635 0.0102043 -0.00433266 0.0132191 0.0457392 0.499334 3.81105 -1.98273 0.0104246 
165 1 1 0.0437425 -0.0321607 0.0781599 0 0 0 -0.0060891 -0.00177228 0.00853238 -0.00478554 0.00248552 -0.00114034 1.55767 -0.467085 0.616549 0.00651536 
75 1 1 -0.0256425 -0.0244012 0.0806612 0 0 0 -0.0019874 -0.0116176 0.0110132 -0.0783284 0.0571731 0.027361 2.42397 0.410434 -0.631212 0.0104246 
143 1 1 0.0306988 -0.0314306 0.08064 0 0 0 0.00893388 0.0017802 0.014348 0.0142874 0.0198706 0.00196723 6.37732 -3.42308 2.70521 0.00651536 
26 1 1 -0.00602946 -0.0194827 0.0790315 0 0 0 0.00262277 0.00246315 0.0190825 -0.0965599 0.189048 0.0603943 -2.08794 -1.05772 0.986183 0.0104246 
209 1 1 0.0095598 -0.014304 0.080307 0 0 0 0.00294355 -0.00743969 0.00668763 -0.0226449 0.0270422 0.0349725 2.52847 1.33025 -4.09048 0.00651536 
169 1 1 0.0436735 -0.018788 0.0779423 0 0 0 -0.00872199 -0.0397776 0.0241321 0.0140906 -0.0371729 0.0340622 11.4187 3.11297 7.07813 0.00651536 
204 1 1 -0.0170736 -0.00741701 0.0750877 0 0 0 0.0412119 0.0322123 -0.0226061 0.0129949 0.0655146 -0.0144147 -6.49048 3.46516 -10.1444 0.00651536 
325 1 1 0.0367187 -0.00840111 0.080504 0 0 0 -0.000527995 -0.0170926 0.00467902 0.0157063 -0.0297983 0.0493751 -4.7068 -17.787 -14.8912 0.00651536 