ITEM: TIMESTEP
43400
ITEM: NUMBER OF ATOMS
338
ITEM: BOX BOUNDS mm mm mm
-0.05 0.05
-0.05 0.05
0 0.15
ITEM: ATOMS id type type x y z ix iy iz vx vy vz fx fy fz omegax omegay omegaz radius 
319 1 1 -0.0146505 -0.0443598 0.00614376 0 0 0 0.000783571 -0.0028759 -0.0025103 -0.00446342 -0.0315781 -0.00773778 0.0855514 0.439918 -0.158617 0.00665209 
243 1 1 -0.0027709 -0.0437533 0.00610444 0 0 0 -0.00244011 0.00114477 -0.00278854 0.00297125 -0.0142307 -0.000827252 -0.447794 -0.285892 0.727516 0.00665209 
260 1 1 0.0251566 -0.0436429 0.00613928 0 0 0 -0.00230122 -0.000484798 -0.00122917 0.00574541 -0.0175184 -0.025314 -0.177435 -0.105199 0.0935441 0.00665209 
131 1 1 -0.0256504 -0.0397554 0.00579789 0 0 0 -0.00048376 -0.00432424 -0.00416128 0.00111747 -0.0546986 -0.0290547 0.670241 -0.440043 -0.0483377 0.00665209 
173 1 1 -0.0155646 -0.0318567 0.00574221 0 0 0 0.000739892 0.000959965 -0.00439655 0.0192601 -0.0223749 -0.00940394 -0.171 0.385747 0.555462 0.00665209 
296 1 1 -0.027431 -0.0273612 0.00626731 0 0 0 -0.000242222 -0.000869932 -0.00183553 -0.00125875 -0.0378498 -0.00600439 0.562958 -0.277144 0.00780898 0.00665209 
275 1 1 -0.00359366 -0.0295759 0.00586701 0 0 0 -0.00236194 0.00599998 -0.00782384 -0.0047128 -0.0868604 -0.0111649 -1.35271 -0.276477 0.152692 0.00665209 
144 1 1 0.0426785 -0.0249329 0.00613835 0 0 0 0.00195244 0.00205579 -0.00203871 0.025015 0.017843 -0.00530085 -0.153864 -0.00384036 0.0647661 0.00665209 
102 1 1 -0.0404613 -0.0169822 0.00911973 0 0 0 -0.00622581 -0.00558461 -0.0043554 -0.0174147 -0.151108 -0.0317907 0.546464 -0.476138 0.728571 0.0106433 
328 1 1 -0.0253854 -0.0152149 0.00557386 0 0 0 -0.00508537 0.00240504 -0.000445522 -0.0183101 -0.0703916 0.0340477 -1.05033 -0.886318 0.308388 0.00665209 
267 1 1 0.0153734 -0.0200546 0.0059372 0 0 0 0.00186195 0.00410113 -0.00412939 0.0126081 -0.00884838 -0.0324642 -0.449024 0.130633 -0.383906 0.00665209 
202 1 1 0.044939 -0.0129978 0.0062675 0 0 0 0.00285667 0.00261492 0.000990033 0.0285793 -0.00414314 -0.0161617 0.608783 -0.0354868 -0.306081 0.00665209 
257 1 1 -0.0440697 -0.00113258 0.00629466 0 0 0 -0.00175157 -0.0102921 -0.0153121 0.0148658 -0.0294468 0.00904516 -2.01067 2.12925 -2.2646 0.00665209 
268 1 1 -0.032491 0.00358489 0.00640514 0 0 0 -0.0124081 -0.0179455 -0.0273853 0.063843 -0.050633 -0.0898058 3.41655 -2.19668 2.41423 0.00665209 
274 1 1 -0.0219134 -0.00388832 0.00800506 0 0 0 -0.0206151 -0.00433704 0.00393612 0.0386721 -0.0805313 -0.0841774 0.818847 -5.94515 1.71732 0.00665209 
164 1 1 0.0204272 0.00156824 0.00564893 0 0 0 0.00338381 -0.000677415 -0.0113478 0.0252561 0.00982456 -0.0340938 -1.47982 -0.0962341 0.613204 0.00665209 
232 1 1 -0.0433464 0.0117465 0.00634314 0 0 0 -0.0346916 -0.0182151 -0.023856 -0.0191396 -0.0344911 -0.00873728 1.6755 -4.96517 7.33942 0.00665209 
171 1 1 -0.0209333 0.00790915 0.00856504 0 0 0 -0.0113599 -0.0199805 -0.0175493 0.0376513 -0.0874937 -0.140251 -3.72117 -0.162746 -3.83415 0.00665209 
297 1 1 -0.025058 0.0193025 0.00585337 0 0 0 -0.000270734 -0.0146488 -0.026227 -0.0253327 -0.0323801 -0.0299685 2.57727 -0.623336 2.09092 0.00665209 
222 1 1 -0.0106973 0.0145323 0.00577939 0 0 0 0.00165192 -0.0115378 -0.0199745 -0.0120749 -0.0485965 -0.0575817 2.04419 -1.02852 3.32024 0.00665209 
290 1 1 -0.000724529 0.0213542 0.00552396 0 0 0 0.0103457 0.00407787 -0.0100479 -0.0109444 -0.0134012 -0.0264529 -0.838323 0.924574 -2.77364 0.00665209 
316 1 1 0.0322042 0.0195623 0.00539349 0 0 0 0.00385155 0.00119242 -0.016775 -0.0049877 -0.0161952 -0.0139056 -1.58521 -1.05778 -0.168091 0.00665209 
162 1 1 0.0444661 0.0201119 0.00569761 0 0 0 0.00228437 0.0036525 -0.00450923 0.045827 0.00686845 -0.0218204 0.178602 -0.622818 -0.415828 0.00665209 
294 1 1 -0.0438344 0.0251415 0.00621366 0 0 0 -0.00955895 -0.0112495 -0.0132257 0.00557689 -0.0290948 0.0039308 4.18673 -0.459178 -2.42388 0.00665209 
175 1 1 -0.0327986 0.0313233 0.00615407 0 0 0 -0.0114053 0.00282057 0.00535084 0.0260747 0.00153373 -0.019381 -1.53739 -2.25226 3.04455 0.00665209 
255 1 1 -0.0147856 0.0259723 0.00604226 0 0 0 -0.000560368 -0.00981883 -0.00594374 0.0113657 -0.0342377 -0.0173788 2.11009 -1.09018 -2.27106 0.00665209 
155 1 1 0.0374884 0.0309756 0.00585221 0 0 0 0.00575695 0.00464473 -0.0108585 0.0301315 0.0275065 -0.0195886 0.26007 -2.10441 0.739951 0.00665209 
324 1 1 -0.00340071 0.0325719 0.00576519 0 0 0 0.0183432 0.00791993 -0.0198839 0.0946164 0.0118201 0.0182297 -1.9559 6.83596 2.74017 0.00665209 
161 1 1 0.00820448 0.0320354 0.00680042 0 0 0 0.0253179 0.00791971 -0.0392915 0.0399815 0.0229212 0.0100195 7.66803 -6.8728 -1.69643 0.00665209 
321 1 1 -0.0439127 0.0437565 0.00631886 0 0 0 -0.00134498 9.98264e-05 0.00122434 -0.0146294 -0.00125925 -0.0259158 0.0284073 0.0527596 0.505581 0.00665209 
207 1 1 -0.0313934 0.0438357 0.00634047 0 0 0 -0.00619891 -0.000465279 0.00174704 -0.00866034 -0.00134913 -0.00116137 0.0754953 -0.514388 -1.80089 0.00665209 
149 1 1 0.0118728 0.0437883 0.00561369 0 0 0 0.0205316 0.00451449 -0.00372137 0.0459406 0.00777123 0.00823683 -0.571307 5.14531 2.72669 0.00665209 
249 1 1 0.0275531 0.0439546 0.00633553 0 0 0 0.0112086 1.46943e-05 -0.0107898 0.0612729 0.0241132 -6.35862e-05 1.297 2.99379 -0.470913 0.00665209 
289 1 1 0.0441828 0.0419691 0.00607383 0 0 0 0.0141545 0.00706894 0.00251617 0.00823316 0.040295 -0.0533312 -0.132858 2.13834 -1.42193 0.00665209 
299 1 1 -0.0244728 -0.0447816 0.0168829 0 0 0 0.00052555 -0.0113807 -0.0064382 -0.00583652 -0.0794526 -0.0185334 -0.375976 1.11485 0.0342892 0.00665209 
225 1 1 -0.011612 -0.0440022 0.0187126 0 0 0 0.00298589 -0.00790872 -0.00431928 0.0248667 -0.0462241 -0.00137766 -0.326006 -1.10631 -0.271701 0.00665209 
130 1 1 0.0208082 -0.0440982 0.0181264 0 0 0 -0.00475386 -0.0004735 0.0025565 0.00602059 -0.0119219 0.0138929 0.281106 -0.0750891 0.450837 0.00665209 
74 1 1 -0.0406347 -0.0364814 0.00970044 0 0 0 -0.000585029 -0.00426467 -0.00234172 -0.0968951 -0.234044 -0.061236 -0.0850372 0.194519 0.0124788 0.0106433 
60 1 1 0.0104504 -0.0358512 0.00966492 0 0 0 -0.00343956 0.00267504 -0.0030148 0.0919982 -0.126706 -0.0693562 -0.0751903 -0.270045 -0.331453 0.0106433 
78 1 1 0.0411187 -0.0406999 0.00937874 0 0 0 0.000510589 -0.000304411 -0.00114039 0.0585835 -0.0219744 -0.029165 -0.0289189 -0.075699 -0.0384417 0.0106433 
67 1 1 0.0276753 -0.0279895 0.0128601 0 0 0 -0.000476852 0.00178973 -0.00163688 0.0543587 -0.0418784 -0.0337331 0.0423575 0.0745746 -0.10556 0.0106433 
40 1 1 -0.0106521 -0.0157878 0.0107694 0 0 0 -0.00479828 0.00455688 -0.0015912 -0.026917 -0.448852 0.136482 1.20065 1.38743 -0.0385222 0.0106433 
279 1 1 0.00431433 -0.0207541 0.0110932 0 0 0 -0.000837866 0.00660162 -0.0079235 0.00209174 -0.0460248 -0.0200438 0.0463634 -1.05292 -0.333206 0.00665209 
96 1 1 0.0118661 -0.00733393 0.0161283 0 0 0 0.00510191 0.00325001 -0.0013774 0.0426922 -0.137678 -0.0494444 0.356353 0.267503 0.192299 0.0106433 
50 1 1 0.0304104 -0.00926053 0.00988702 0 0 0 0.00175022 0.00507214 -0.000227688 0.0474871 -0.00410405 -0.0355233 -0.178529 -0.335797 -0.0418478 0.0106433 
183 1 1 0.044467 -0.00702817 0.0175154 0 0 0 0.00303591 0.0062537 0.00428636 0.0346995 -0.00477257 0.0408616 -1.03413 0.232811 -0.741564 0.00665209 
17 1 1 -0.005077 0.00259575 0.014573 0 0 0 0.00527657 -0.00784795 -0.0156247 -0.0255853 -0.34411 -0.141878 -1.66187 -0.486511 0.0809385 0.0106433 
98 1 1 0.0121414 0.0133839 0.010027 0 0 0 0.00840256 -0.0106999 -0.0171049 0.039413 -0.0288463 -0.108708 1.04956 0.211723 -0.504898 0.0106433 
94 1 1 0.0382857 0.00821323 0.0138397 0 0 0 0.00247092 0.0114258 -0.00400132 -0.0285984 0.0854289 0.0467503 -0.610558 0.791536 -0.0339848 0.0106433 
300 1 1 -0.0443584 0.018703 0.0171024 0 0 0 -0.018405 -0.0200583 -0.0458606 -0.00705135 -0.0158798 0.0401786 -2.77137 6.34527 -4.14766 0.00665209 
273 1 1 -0.0322922 0.0184947 0.0157958 0 0 0 -0.0187888 -0.0395785 -0.0590367 -0.0121545 -0.00541141 0.000632822 1.40474 -4.49689 1.64219 0.00665209 
286 1 1 -0.00145205 0.0183228 0.0171342 0 0 0 0.00147583 -0.0126081 -0.0174156 -0.0522163 -0.00842229 -0.0340828 3.13362 -1.21344 -0.370576 0.00665209 
77 1 1 0.0226088 0.0295252 0.0126275 0 0 0 0.0193615 -0.00921764 -0.0214139 0.0625118 0.012415 0.023986 0.918411 2.53057 0.46156 0.0106433 
284 1 1 0.0444663 0.0273677 0.0157055 0 0 0 0.0102482 0.00440061 0.00258424 0.0404582 0.0241595 -0.0164804 -0.318368 1.42389 -1.86029 0.00665209 
305 1 1 -0.0435571 0.0344963 0.0153343 0 0 0 -0.00907832 -0.00252043 0.0156678 0.0179585 0.0615776 -0.0104252 -1.97462 -2.83971 0.525361 0.00665209 
38 1 1 -0.0154432 0.041338 0.0096949 0 0 0 0.0032575 -0.00546674 0.00583025 0.183423 -0.0314761 0.0419713 0.0952729 0.0801196 0.741593 0.0106433 
237 1 1 0.00084731 0.0437081 0.0119412 0 0 0 0.0148158 -0.000334013 0.019909 0.0180939 0.011344 0.0672981 -2.58833 -2.67103 -0.297963 0.00665209 
239 1 1 0.018694 0.0445884 0.0155953 0 0 0 0.0114531 0.00482598 -0.0168081 0.0402714 0.0107731 0.0676894 0.554234 -6.0771 -0.320673 0.00665209 
331 1 1 -0.0430185 -0.0452036 0.0218776 0 0 0 -0.00153006 -0.00448292 0.000117681 -0.041759 -0.0680369 -0.0180449 -0.000272584 -0.856808 -0.140436 0.00665209 
242 1 1 0.000941531 -0.0443767 0.0196702 0 0 0 -0.000193183 -0.00267463 -0.00192469 0.0200416 -0.0595837 0.00507372 -0.351399 0.929759 0.658525 0.00665209 
167 1 1 0.0319115 -0.0441568 0.0228389 0 0 0 -0.00168955 -0.000455457 0.000821101 -0.0107407 0.00148291 0.0059474 0.178963 0.252613 -0.0729454 0.00665209 
136 1 1 0.0441322 -0.0445443 0.024158 0 0 0 0.000840509 -0.00176976 0.000157487 0.027135 -0.0319964 0.00859293 0.0212664 0.0586897 0.00950316 0.00665209 
180 1 1 -0.0439962 -0.0337454 0.0265965 0 0 0 -0.000593448 -0.00290281 0.00176439 -0.0146277 -0.00410011 -0.0170062 0.719602 -0.175791 -0.173431 0.00665209 
256 1 1 -0.0325404 -0.0396903 0.0255592 0 0 0 0.00162867 -0.0108358 -0.000374449 -0.0129905 -0.0944584 -0.0101611 -1.90843 0.701634 -0.995469 0.00665209 
179 1 1 -0.0344106 -0.0259646 0.0212181 0 0 0 -0.00383376 -0.013465 0.000176186 -0.00175826 -0.0911431 0.0504518 0.669139 -0.129621 -1.25426 0.00665209 
7 1 1 -0.0198799 -0.0301705 0.021158 0 0 0 -0.00137917 -0.0171135 -0.00328867 -0.0129847 -0.304902 0.136597 1.37897 -0.229374 0.867809 0.0106433 
104 1 1 -0.000201176 -0.0284407 0.0247446 0 0 0 -0.00112987 -0.00395371 -0.00211812 0.0298192 -0.178318 0.0103474 0.754917 0.390705 0.452183 0.0106433 
128 1 1 -0.0447868 -0.0216366 0.0238231 0 0 0 -0.00411603 -0.00485522 0.00114128 -0.0317192 -0.0471069 0.00407276 -1.27116 0.244576 0.201822 0.00665209 
278 1 1 0.0327542 -0.0164127 0.024192 0 0 0 -0.000255569 0.00401679 0.0024005 0.0318273 0.0255257 0.00827336 0.559326 -0.144917 0.859034 0.00665209 
146 1 1 -0.0446189 -0.00930041 0.0224415 0 0 0 -0.0139607 -0.0151842 -0.0276283 -0.00564732 0.00850974 0.0246243 -4.5126 3.71966 0.160589 0.00665209 
19 1 1 -0.0260425 -0.011927 0.0276227 0 0 0 -0.0088672 -0.0439079 -0.0211065 -0.232507 -0.129083 0.0892406 -4.64953 1.36527 0.136456 0.0106433 
258 1 1 0.00112568 -0.0123266 0.0274038 0 0 0 0.0067639 -0.0107298 0.00162452 -0.0526905 0.00266819 -0.0185944 0.450275 0.354924 0.601458 0.00665209 
25 1 1 -0.0373283 0.00466102 0.0227273 0 0 0 -0.0290589 -0.0505976 -0.0719575 0.11441 0.216546 0.242435 -0.0911653 -0.719788 -0.601632 0.0106433 
28 1 1 -0.0165216 0.0181574 0.0206129 0 0 0 -0.0130302 -0.0292342 -0.0292375 -0.10618 -0.00307263 -0.0644361 0.321903 -0.516735 1.15903 0.0106433 
261 1 1 0.0430541 0.0173856 0.027116 0 0 0 -0.000115922 0.0339874 -0.00640155 -0.00676977 -0.0112297 0.0257619 -1.59947 -0.303509 2.71496 0.00665209 
246 1 1 -0.0440638 0.0259768 0.0275526 0 0 0 -0.00104277 -0.00843068 -0.0362493 -0.0163174 0.0460438 0.0443285 8.93492 3.01194 0.919475 0.00665209 
320 1 1 0.00423521 0.0293124 0.0187194 0 0 0 -0.0158499 -0.000759084 -0.051348 0.0130642 -0.05196 0.143832 -7.6986 0.548841 3.39164 0.00665209 
23 1 1 -0.0279995 0.0331735 0.0218517 0 0 0 -0.00146647 -0.0311283 0.00788166 0.132139 0.315565 -0.098835 5.02743 2.41802 -2.80536 0.0106433 
61 1 1 0.0369131 0.040687 0.0205633 0 0 0 0.0158671 0.0047401 -0.00445007 0.162897 0.126613 -0.195573 0.208422 -2.77205 1.51632 0.0106433 
323 1 1 -0.0108499 0.0440092 0.0278586 0 0 0 0.0851186 0.000245691 -0.125538 -0.0119746 0.0506588 -0.145739 18.8858 -76.8165 13.4788 0.00665209 
224 1 1 -0.0437416 -0.0442669 0.0342325 0 0 0 -0.000446796 -0.00523631 0.00226499 0.00738463 -0.00714028 -0.0129071 0.145361 0.77132 0.0313886 0.00665209 
125 1 1 0.0437571 -0.0439203 0.0369036 0 0 0 0.000235397 -0.00226325 0.00290216 0.004293 -0.00828003 0.0176658 0.0972349 -0.264097 0.0152134 0.00665209 
42 1 1 -0.0119517 -0.0405332 0.0355687 0 0 0 -0.000798423 -0.00799771 -0.000708368 0.0912904 -0.23425 0.0280911 -0.491564 -0.0785029 -0.0426737 0.0106433 
271 1 1 0.0312973 -0.0406013 0.0344156 0 0 0 -0.000528545 -0.0024855 -0.000224591 0.00528602 -0.00212289 -0.00550134 0.119708 -0.117069 0.12022 0.00665209 
51 1 1 0.0183478 -0.022902 0.0302298 0 0 0 0.00154792 0.000800817 0.00216596 0.0278409 -0.0160252 -0.0397306 0.518808 0.0771324 -0.478403 0.0106433 
120 1 1 0.0407262 -0.0296032 0.0291016 0 0 0 0.00194827 -0.000246428 -0.00116367 0.0444963 0.0390926 -0.0232017 -0.0524725 -0.0175152 -0.135136 0.0106433 
178 1 1 -0.0124836 -0.0205937 0.0320751 0 0 0 -0.00336185 -0.0180696 0.00126899 0.0051512 -0.00112335 0.0254061 -1.9178 0.047591 0.401921 0.00665209 
134 1 1 0.0439133 -0.01442 0.0327294 0 0 0 0.0038417 -5.92435e-05 -0.00819747 0.00577524 0.00455113 -0.0110844 -0.919604 -0.923183 -0.265571 0.00665209 
310 1 1 -0.0102651 -0.00892706 0.0300247 0 0 0 0.00115295 -0.0238716 -0.0225486 -0.0705473 0.0571428 -0.0490154 -2.34537 -2.95452 0.449804 0.00665209 
18 1 1 0.0122631 -0.00459604 0.0366096 0 0 0 -0.000396238 0.00158567 0.00518986 -0.0282421 -0.00051364 -0.0148377 -0.323005 -0.818211 1.07396 0.0106433 
184 1 1 0.0276217 -0.00824976 0.0329184 0 0 0 0.00145132 0.00524727 0.000950874 0.0104453 0.0090012 -0.0121156 -1.04288 1.78088 -0.729335 0.00665209 
160 1 1 -0.00241202 0.00057045 0.0310015 0 0 0 0.00122615 -0.014844 -0.0133292 -0.0733788 0.0227427 -0.0125786 1.42109 -1.21608 -0.563548 0.00665209 
55 1 1 0.0405102 0.00135306 0.0323463 0 0 0 0.0066183 0.00460588 -0.00387505 0.0368722 0.0730965 0.0399234 1.46328 -0.0765667 -0.1103 0.0106433 
112 1 1 -0.017633 0.00457897 0.0352292 0 0 0 -0.0139751 -0.0288012 -0.0255977 -0.290501 0.559594 0.172987 0.977564 -0.665974 1.81723 0.0106433 
2 1 1 -0.0313889 0.0193394 0.0353914 0 0 0 -0.0344791 -0.0228209 -0.0468157 0.131942 1.24946 0.858483 -1.38351 -4.5836 -0.282726 0.0106433 
100 1 1 0.00672351 0.0137381 0.0299983 0 0 0 0.00523286 -0.0142608 -0.0188793 -0.00325297 0.133074 0.0198614 -1.69879 -0.00931856 1.20316 0.0106433 
69 1 1 -0.00626205 0.0294655 0.0341812 0 0 0 -0.017359 -0.00554801 -0.0496397 -0.301062 0.457053 -0.0542929 -3.47088 -0.221028 0.44835 0.0106433 
108 1 1 0.0262736 0.0287923 0.0327172 0 0 0 0.0145212 -0.00489174 -0.0258283 0.239792 -0.0703011 0.122725 -1.84599 -4.45508 3.00988 0.0106433 
16 1 1 0.0106251 0.0406103 0.0290398 0 0 0 0.00855262 -2.40869e-05 -0.0478471 0.216257 -0.0920871 0.974655 3.78085 3.29009 -1.44813 0.0106433 
9 1 1 -0.0407491 0.0414843 0.0323324 0 0 0 0.000396202 -0.0100823 0.0209691 -0.00370879 0.233728 -0.17156 -1.81973 -3.72996 -1.07015 0.0106433 
329 1 1 -0.0240115 -0.0445687 0.0452494 0 0 0 -0.00397018 -0.0042673 0.000723739 -0.00461402 -0.0457746 0.0203201 0.0699385 -0.473687 0.058494 0.00665209 
168 1 1 0.00180291 -0.0447067 0.0400728 0 0 0 -0.00193901 -0.00550241 0.00195399 0.0101101 -0.045716 0.0267603 0.23917 -0.0204854 0.242574 0.00665209 
283 1 1 0.0308819 -0.0443379 0.0459495 0 0 0 0.000454094 -0.00341584 0.000271627 0.0292257 -0.03952 -0.0082514 -0.0232423 0.0425148 -0.0162849 0.00665209 
211 1 1 -0.0436793 -0.0330345 0.0392056 0 0 0 -0.0033302 -0.0058558 -0.000349488 -0.0146087 -0.0269472 -0.00437661 -0.551452 -0.173508 0.273485 0.00665209 
191 1 1 0.00300869 -0.0321682 0.0407066 0 0 0 -0.0028039 -0.00475598 -5.81869e-05 -0.00141245 -0.0307715 0.00906556 -0.630337 -0.0514839 0.0416355 0.00665209 
3 1 1 0.0166126 -0.0406712 0.0394374 0 0 0 -0.0028257 -0.00377159 -0.000262494 -0.00426851 -0.0597396 -0.0175914 -0.00843602 0.121427 0.0685451 0.0106433 
93 1 1 -0.0269023 -0.0291731 0.0421232 0 0 0 -0.00425816 -0.00382306 0.000419273 -0.0331419 -0.185012 -0.118084 -0.0342165 -0.223394 0.547157 0.0106433 
105 1 1 0.0302127 -0.0279793 0.0466015 0 0 0 0.000731012 -0.000786517 0.000650457 0.0214758 0.0231564 0.00633304 -0.131717 -0.0570337 -0.0140827 0.0106433 
66 1 1 -0.0413447 -0.0169034 0.0389668 0 0 0 -0.00361339 -0.00831361 0.00895506 -0.0260374 -0.0695874 -0.0183021 1.42066 -0.156954 -0.69511 0.0106433 
336 1 1 -0.0240414 -0.012355 0.0447776 0 0 0 -0.0347742 0.0190441 0.00880025 -0.0117531 0.0157394 -0.0507962 -1.25424 -6.76952 4.6447 0.00665209 
245 1 1 -0.000146584 -0.0119591 0.0427419 0 0 0 0.00187737 -0.00821202 -0.00239725 0.0321333 -0.0181909 -0.0460375 0.509894 0.294896 0.00788515 0.00665209 
259 1 1 0.0240528 -0.0132525 0.0438716 0 0 0 0.00283297 0.007156 0.0035202 -0.000801863 0.00898924 -0.0232386 0.523423 0.211459 -0.253272 0.00665209 
107 1 1 -0.0379095 0.00201956 0.0432484 0 0 0 -0.020913 0.00292813 -0.025117 0.138703 0.200471 0.13215 -5.21103 3.92816 2.80742 0.0106433 
95 1 1 0.0238944 0.0109215 0.0392229 0 0 0 0.00611268 0.00735862 -0.00530206 0.116413 -0.0438299 -0.0228928 -1.90377 -0.774003 -0.929333 0.0106433 
208 1 1 -0.0444326 0.0167529 0.0448277 0 0 0 -0.0272229 0.00392639 -0.0367335 -0.0217105 0.0599488 0.281838 0.133675 5.24857 -1.84899 0.00665209 
282 1 1 -0.0179872 0.0181994 0.0443517 0 0 0 -0.0288508 0.0235006 -0.0438071 0.101619 0.301978 -0.0813986 -7.27904 2.59122 -4.11862 0.00665209 
58 1 1 0.0408521 0.0198805 0.0435782 0 0 0 -5.2079e-05 0.0105765 0.0067222 -0.00212644 0.331492 -0.0825813 2.61202 0.202477 0.841547 0.0106433 
199 1 1 -0.0445041 0.0283274 0.0408125 0 0 0 -0.0113723 0.019424 -0.0105451 0.0987759 0.252212 0.249283 0.121467 5.38571 1.10492 0.00665209 
73 1 1 0.0109777 0.0279619 0.0457612 0 0 0 0.0134167 -0.0160937 -0.0124273 0.259262 -0.384312 1.36237 4.41226 -1.10961 -4.28972 0.0106433 
114 1 1 0.040063 0.0405761 0.0406624 0 0 0 -0.015201 0.0128273 0.00490288 0.088938 -0.185968 -0.162228 -0.991846 -0.22828 -1.41796 0.0106433 
126 1 1 -0.0112218 0.0440836 0.046452 0 0 0 0.012147 0.0313931 0.0110096 -0.192363 0.0357587 0.493218 -2.86865 20.7751 -1.47501 0.00665209 
248 1 1 0.000359131 0.0429636 0.0420582 0 0 0 0.0162882 -0.000492982 -0.0738065 -0.142039 -0.0943166 0.221265 -1.51815 -6.52405 -7.79092 0.00665209 
229 1 1 0.0125081 0.0442714 0.0453974 0 0 0 0.0358322 -0.0221688 0.0419431 0.0554888 -0.0571769 0.363601 -2.5667 -12.7339 3.33294 0.00665209 
314 1 1 -0.0173456 -0.0442844 0.0556202 0 0 0 -0.00407566 -0.0029123 0.000482319 0.0190796 -0.0207218 -0.0212849 0.0920719 0.625952 0.281814 0.00665209 
265 1 1 0.0219311 -0.0436014 0.0551906 0 0 0 -0.00105985 -0.00227605 0.00237002 0.0160618 0.000577533 0.00095526 -0.0802888 -0.000276303 0.486452 0.00665209 
84 1 1 -0.0408956 -0.03281 0.0553095 0 0 0 -0.00535308 -0.00315563 0.000257124 -0.0429569 -0.0907146 -0.0329855 -0.169509 -0.0614413 -0.258827 0.0106433 
337 1 1 -0.00597921 -0.0404788 0.0515138 0 0 0 -0.00471214 -0.00469253 0.00402442 0.0127973 -0.0161114 0.0196193 0.29441 -0.90868 -0.16256 0.00665209 
43 1 1 -0.00871022 -0.0241816 0.0478227 0 0 0 -0.0014095 -0.000441835 0.00401512 0.0303067 0.0289241 -0.064297 -0.224756 0.334203 -0.326887 0.0106433 
326 1 1 0.0444935 -0.0254167 0.0533851 0 0 0 0.00287379 0.000173255 0.00143675 0.0341044 0.0105756 0.0128429 -0.119424 0.126633 -0.0370711 0.00665209 
52 1 1 0.0113449 -0.0221552 0.0505913 0 0 0 -0.000618407 -0.000180914 0.000250475 -0.0402178 -0.0103193 -0.0272998 0.270624 -0.0384401 -0.00455089 0.0106433 
220 1 1 -0.0435621 -0.00963849 0.0541674 0 0 0 0.00150712 0.00527771 0.017577 0.0105496 0.0157111 -0.0277976 0.0761008 -2.22843 -0.561138 0.00665209 
240 1 1 0.0171684 -0.00757945 0.0551494 0 0 0 -0.00331281 0.00647105 -0.00511644 -0.0265465 0.0149943 -0.0290185 -2.36301 0.201324 1.49956 0.00665209 
5 1 1 0.040296 -0.0107301 0.0487418 0 0 0 0.00367822 0.00135753 -0.0027535 0.0200033 0.0692269 0.0252446 -0.292008 0.189444 -0.255602 0.0106433 
133 1 1 -0.0269901 -0.00262144 0.0559467 0 0 0 0.0318784 0.0832463 0.0158092 0.223645 -0.0258435 0.0630915 12.6892 -13.5142 0.0347085 0.00665209 
24 1 1 -0.0100578 -0.00379125 0.0526762 0 0 0 0.0072821 -0.00972791 -0.00207936 -0.046021 0.202476 -0.400508 -0.522742 0.227381 -0.648572 0.0106433 
303 1 1 0.0267979 -0.00162654 0.0491099 0 0 0 -0.00172623 0.00894872 0.00578819 -0.0182443 0.0171412 0.00777833 1.89474 -0.500737 0.226569 0.00665209 
236 1 1 -0.0233634 0.00819308 0.0504806 0 0 0 -0.00965775 0.0821494 0.00380823 0.244443 0.0651351 0.186435 -16.9308 1.88676 5.56536 0.00665209 
15 1 1 0.0136645 0.00803988 0.0562415 0 0 0 0.00071595 0.0155151 -0.00821873 -0.0986796 0.0345138 -0.256207 1.57805 0.575252 -2.00323 0.0106433 
298 1 1 0.0299202 0.0134916 0.0551834 0 0 0 0.00846732 -0.0378426 -0.00808514 0.0276832 0.110922 -0.020997 1.64413 -0.623279 -2.864 0.00665209 
318 1 1 0.0441859 0.00472013 0.0484681 0 0 0 0.00171998 0.00328697 -0.0082265 -0.0103047 0.0228285 0.0647164 -1.76624 -1.84697 0.0259144 0.00665209 
335 1 1 -0.0339171 0.015839 0.052451 0 0 0 -0.0416341 0.0942871 -0.0268198 -0.223198 -0.217824 0.124305 3.05183 2.92937 14.1106 0.00665209 
4 1 1 -0.00334592 0.0144433 0.0481524 0 0 0 -0.00451661 0.0117511 -0.0234103 -0.243789 0.195833 -0.286097 -2.13969 -0.0760736 1.73447 0.0106433 
262 1 1 -0.0371431 0.0282739 0.0506045 0 0 0 -0.0561362 0.0560987 0.111018 -0.0410779 -0.183872 0.871377 6.54368 -23.0539 -11.4267 0.00665209 
192 1 1 -0.0252078 0.0269591 0.0479747 0 0 0 -0.0566619 0.0246308 0.117937 0.0765664 -0.146397 0.914194 24.9697 13.6817 13.4799 0.00665209 
292 1 1 -0.0142344 0.0322648 0.0486993 0 0 0 -0.0379441 0.0351308 0.0662871 -0.044099 -0.0820981 0.669635 8.93596 14.8945 -2.07635 0.00665209 
327 1 1 -0.0433345 0.0433857 0.049239 0 0 0 -0.0157996 0.00259101 0.0165973 -0.0560358 -0.0132083 0.0138653 1.3897 2.77334 -0.937106 0.00665209 
190 1 1 -0.00836399 -0.0439362 0.0643711 0 0 0 -0.00709538 -0.00216338 0.00497604 -0.00357579 -0.00247294 0.0392329 0.652002 -1.37432 0.71355 0.00665209 
307 1 1 -0.0194674 -0.0321903 0.056992 0 0 0 -0.00546606 0.00122768 0.00693859 0.00102909 0.00685698 -0.0224104 0.517094 -0.412838 0.00376346 0.00665209 
56 1 1 0.00705581 -0.0391225 0.061808 0 0 0 -0.00415231 -0.00295405 0.00639607 0.0243195 -0.036898 -0.00925814 -0.55734 0.401111 -0.228128 0.0106433 
49 1 1 0.0405005 -0.0405877 0.0580552 0 0 0 0.00156697 -0.00151196 0.00172126 0.0304048 -0.00234421 -0.00505809 0.0574828 0.0638551 -0.00252177 0.0106433 
137 1 1 -0.00220901 -0.0228497 0.0632899 0 0 0 -0.0010038 -0.0102625 0.0117378 0.00371286 0.0372711 -0.00703797 0.728502 -1.34229 -2.32169 0.00665209 
81 1 1 -0.021551 -0.0169515 0.0621178 0 0 0 -0.00680532 0.0133621 0.00607577 0.0386261 0.171375 -0.107322 -0.610613 -0.552635 -0.352091 0.0106433 
332 1 1 0.0266116 -0.0153199 0.0562977 0 0 0 0.00283025 0.00633232 0.00166124 -0.0326221 0.0439298 0.021708 0.374616 0.105493 -0.726622 0.00665209 
217 1 1 0.0442846 -0.0149784 0.064278 0 0 0 0.00639742 0.00316112 -0.000459542 0.0316402 -0.0240398 0.00723598 0.556268 0.0651617 0.715738 0.00665209 
32 1 1 -0.0398197 0.00443868 0.0635799 0 0 0 0.0059188 0.0379166 -0.0159004 0.0644452 0.0367437 -0.045026 3.39194 -0.145062 0.832402 0.0106433 
148 1 1 0.0442107 -0.00246254 0.0633366 0 0 0 0.0112478 0.0134819 -0.0229667 0.0104369 -0.0119837 -0.00170448 -4.01574 -3.28146 -2.10987 0.00665209 
291 1 1 0.0436422 0.0124277 0.0586422 0 0 0 -0.0102619 -0.00837651 0.00927675 0.163051 0.0884657 -0.10835 3.81752 3.84711 3.34733 0.00665209 
117 1 1 -0.0209725 0.0197265 0.0626096 0 0 0 0.00260864 0.0980072 -0.0358462 -0.539021 -1.32545 0.242221 4.77564 -0.905102 -7.14609 0.0106433 
140 1 1 0.0094072 0.0206589 0.0650801 0 0 0 -0.00191139 0.0062026 0.00819866 -0.08676 -0.0309283 -0.108478 0.668072 -6.5978 0.25704 0.00665209 
99 1 1 -0.00350562 0.0299795 0.0613017 0 0 0 0.0173035 0.0256397 -0.00600715 -0.0760554 -0.409161 -0.21129 1.51673 0.300392 -1.58679 0.0106433 
266 1 1 0.0214909 0.0231428 0.0585996 0 0 0 0.0649284 -0.0166865 0.011826 0.0563107 -0.0830626 0.692033 11.4721 -5.85707 -6.24098 0.00665209 
106 1 1 0.0400495 0.0284209 0.0623399 0 0 0 0.0263464 0.00870395 0.0418368 0.445401 -0.21901 0.649633 2.49481 2.97945 -4.17541 0.0106433 
122 1 1 -0.0273084 0.040564 0.0558311 0 0 0 -0.0574818 -0.0539769 0.388213 0.617205 -0.0757705 4.06253 -6.43589 3.78048 -2.62183 0.0106433 
47 1 1 0.0243817 0.0398382 0.0559506 0 0 0 0.0487974 0.00476162 0.229486 -0.401038 0.138601 1.54813 -0.857665 -3.2212 4.56664 0.0106433 
174 1 1 -0.0433177 0.0427252 0.0624787 0 0 0 0.018399 0.0402093 0.0217946 0.0103013 -0.000680235 0.0455082 -7.73871 2.62816 8.27874 0.00665209 
315 1 1 -0.011929 0.044023 0.0633567 0 0 0 0.0390019 0.015942 0.0607037 -0.0376363 -0.0620586 -0.0485401 -9.26984 28.8293 5.66261 0.00665209 
158 1 1 0.00275159 0.0445494 0.0622902 0 0 0 0.0202732 0.0162456 -0.0360004 -0.156493 0.0296027 -0.0316671 6.09973 30.6936 3.84445 0.00665209 
203 1 1 0.0418697 0.043954 0.0568159 0 0 0 0.0389974 0.0195882 0.00145131 0.0165568 0.00451187 0.143704 -2.45075 12.9978 3.73471 0.00665209 
189 1 1 0.0267611 -0.0439154 0.0671738 0 0 0 0.00133053 -0.000364987 0.00404396 0.0161339 -0.02002 -0.00257159 0.214784 0.122297 -0.460792 0.00665209 
186 1 1 0.0436779 -0.0440532 0.073752 0 0 0 0.00127205 -0.00169061 0.000737339 0.000211572 -0.0149103 -0.000874838 -0.13416 0.0993956 -0.106103 0.00665209 
6 1 1 -0.027192 -0.0405266 0.0683686 0 0 0 -0.00434599 -0.00541453 0.00406056 -0.00772425 0.00726013 -0.133176 0.00431009 -0.093899 0.396608 0.0106433 
313 1 1 -0.0113904 -0.0314167 0.0674312 0 0 0 -0.013048 -0.000747269 0.0118778 -0.0110438 0.0126767 0.0100242 -1.68181 -0.232813 0.0436377 0.00665209 
227 1 1 0.00762046 -0.0252431 0.0716494 0 0 0 -0.0022781 -0.00550754 0.0113296 0.0117631 -0.00760489 0.0105735 1.02841 0.976399 2.06412 0.00665209 
91 1 1 0.0234215 -0.0276223 0.0662767 0 0 0 0.00258276 0.00555062 -0.000179154 0.0247098 0.0249312 -0.0535 -0.583852 0.226371 0.143815 0.0106433 
247 1 1 0.0397803 -0.0261739 0.0680591 0 0 0 0.00722792 -0.000356045 -0.00679739 0.0123551 -0.0170127 -0.0296726 0.586205 0.0606607 -0.673975 0.00665209 
36 1 1 -0.040455 -0.0173435 0.068902 0 0 0 -0.00972686 -0.00192858 0.00609029 0.00671014 0.193989 -0.0946128 1.26053 -0.106243 0.35593 0.0106433 
215 1 1 0.0330943 -0.0149744 0.0704144 0 0 0 0.0145235 0.00923734 -0.00930848 0.00151712 -0.0383162 -0.0123431 -0.490039 -0.630732 -2.82498 0.00665209 
10 1 1 0.00499479 -0.00787236 0.0662457 0 0 0 0.00086202 0.00387071 0.00357861 -0.132251 0.2457 -0.0811229 -1.66551 -0.477588 1.71919 0.0106433 
276 1 1 0.0200337 -0.0124607 0.0718777 0 0 0 0.0199594 0.0130943 0.00717912 -0.0262473 -0.0106647 0.00658464 1.28415 1.38791 -2.47645 0.00665209 
182 1 1 -0.029088 -0.00406934 0.0733713 0 0 0 -0.00013042 -0.00975112 -0.0143463 0.0672557 0.0976391 -0.0697553 1.28209 -3.30214 -2.60677 0.00665209 
197 1 1 -0.0188453 0.00200033 0.0657209 0 0 0 0.00232927 -0.0196416 -0.0202687 -0.0377814 0.0232457 -0.117381 0.586244 -3.39672 -0.1025 0.00665209 
87 1 1 0.0288992 0.000763675 0.0669838 0 0 0 0.0153727 0.0149817 -0.0272521 -0.00497221 -0.399109 0.0615724 -1.67085 2.5487 1.87251 0.0106433 
115 1 1 -0.00353535 0.0104756 0.068378 0 0 0 -0.014999 0.0145093 -0.026565 -0.313856 -0.117461 -0.0961802 0.924542 -2.69777 -0.162335 0.0106433 
338 1 1 0.0425898 0.00881803 0.0713432 0 0 0 0.00318274 0.0162421 0.0234773 -0.136196 -0.0743968 0.0696926 1.12513 -16.3407 -4.71999 0.00665209 
45 1 1 0.0263697 0.0196927 0.074831 0 0 0 -0.0084729 0.00917058 -0.0524972 -0.220122 -0.718506 -0.953577 -4.66662 -0.589659 2.65167 0.0106433 
39 1 1 -0.0403943 0.0236413 0.0662454 0 0 0 -0.0204187 0.0781058 0.00569638 -1.3403 -1.0791 0.520621 11.9653 3.08666 8.60705 0.0106433 
308 1 1 -0.00227622 0.0435801 0.0744754 0 0 0 0.0429127 0.00382372 0.00543243 0.159292 0.0493527 0.177117 2.08493 -3.36399 3.52861 0.00665209 
124 1 1 0.0436495 0.0435168 0.0696909 0 0 0 0.00881534 0.0126933 -0.0578972 0.0218812 -0.0405958 -0.078298 3.31442 -20.6865 -0.700467 0.00665209 
252 1 1 -0.0393192 -0.0441404 0.0795616 0 0 0 -0.00651712 -0.00977539 0.00755417 -0.0284453 -0.00944745 -0.0266407 1.13247 1.18855 0.337142 0.00665209 
213 1 1 0.0324692 -0.0440455 0.0811208 0 0 0 0.000212763 -0.000532894 0.00129277 0.0214097 -0.0192653 -0.0240014 0.0381751 0.536791 0.0354092 0.00665209 
230 1 1 -0.0400387 -0.0322987 0.0757299 0 0 0 -0.0119342 -0.0100564 0.000961149 -0.0331684 0.0138119 -0.0533945 -1.51967 0.399158 -0.203076 0.00665209 
109 1 1 0.0165242 -0.04022 0.080056 0 0 0 -0.00292805 0.000976138 0.00522545 0.032 -0.0105384 -0.0556747 0.371439 -0.319235 0.0152894 0.0106433 
165 1 1 0.0437558 -0.0322811 0.0783136 0 0 0 0.00385871 -0.0027605 -0.00179296 0.0150732 -0.0212459 -0.0166429 -0.106005 -0.0799515 0.0150077 0.00665209 
75 1 1 -0.0258172 -0.0244409 0.0809388 0 0 0 -0.0180708 -0.0124309 0.0113232 -0.0301314 0.0298529 -0.0986278 1.16565 -1.50838 0.325888 0.0106433 
143 1 1 0.0308061 -0.0314448 0.0808747 0 0 0 0.00365235 0.00211543 0.00357638 0.0182525 0.00233078 -0.011121 0.463405 0.415575 -0.803132 0.00665209 
26 1 1 -0.00613017 -0.019487 0.0794187 0 0 0 -0.00591067 -0.0143099 0.0188503 0.00229283 0.0394644 0.024589 0.127934 0.562026 -0.267561 0.0106433 
209 1 1 0.00958814 -0.0142808 0.0807982 0 0 0 0.00492309 -0.0139988 0.00111415 0.0042378 0.0190418 -0.0222308 5.43437 2.42477 -0.013975 0.00665209 
169 1 1 0.0436591 -0.0191473 0.0781685 0 0 0 0.0077777 -0.00103029 -0.00826487 0.00942089 -0.0322827 0.0183956 -1.29292 -1.04148 -0.48767 0.00665209 
204 1 1 -0.0164277 -0.00650438 0.0754605 0 0 0 -0.00895316 -0.017716 0.0131271 0.056591 0.00333718 -0.143909 -3.49135 0.420383 0.429177 0.00665209 
325 1 1 0.0372038 -0.00833244 0.0808163 0 0 0 0.0148023 -0.00762537 -0.0186753 0.032761 -0.0430503 0.0400839 0.630332 -0.144636 0.222163 0.00665209 