ITEM: TIMESTEP
6650
ITEM: NUMBER OF ATOMS
338
ITEM: BOX BOUNDS mm mm mm
-0.05 0.05
-0.05 0.05
0 0.15
ITEM: ATOMS id type type x y z ix iy iz vx vy vz fx fy fz omegax omegay omegaz radius 
131 1 1 -0.0280476 -0.0415711 0.00519681 0 0 0 -0.00349955 0.00417363 0.00937591 -0.000139032 0.00106082 0.000244549 -0.884631 -0.681364 5.67587 0.0052244 
319 1 1 -0.0141397 -0.0445135 0.00520866 0 0 0 0.00826964 0.0131004 0.00342213 2.57401e-06 4.07763e-06 0.000558997 -2.5114 1.58532 -1.87532 0.0052244 
260 1 1 0.022354 -0.042218 0.00519778 0 0 0 0.018942 -0.0862933 0.0270426 0.00836632 0.0185819 -0.0284056 17.2721 3.59459 -6.82068 0.0052244 
74 1 1 -0.0395929 -0.0348324 0.00820209 0 0 0 -0.150822 -0.193828 0.0119087 -0.0310883 -0.0604999 0.173053 26.4469 -20.7004 8.2535 0.00835904 
296 1 1 -0.0236082 -0.0314243 0.00492606 0 0 0 -0.042413 0.0932069 0.0229766 0.0212547 -0.0355073 0.0273112 -17.9306 -8.5197 8.61047 0.0052244 
243 1 1 -0.00607072 -0.0376865 0.00519819 0 0 0 0.093235 -0.0642421 -0.0058747 0.0039042 0.00574077 0.0150234 11.1754 18.2598 -5.85271 0.0052244 
60 1 1 0.0090448 -0.0354252 0.0082665 0 0 0 0.0665983 -0.0154232 -0.0288758 0.0626302 0.048165 0.0799523 2.1232 11.3313 4.70277 0.00835904 
78 1 1 0.0382347 -0.0392824 0.00833652 0 0 0 0.0382098 -0.15077 -0.00390455 0.177031 -0.0544005 0.0154211 18.2675 4.5591 -0.32145 0.00835904 
173 1 1 -0.0135472 -0.0284341 0.00519341 0 0 0 -0.00719101 0.0299813 -0.0130904 -0.00275223 0.0447667 0.00541395 -6.40782 -1.78305 6.22174 0.0052244 
275 1 1 -0.00288724 -0.0284348 0.00880862 0 0 0 0.130203 -0.0415206 -0.111724 0.00369909 0.0168806 0.00340859 -8.93958 24.2527 16.7068 0.0052244 
144 1 1 0.0426104 -0.025604 0.00552784 0 0 0 0.0045252 -0.188484 -0.0408243 0 0 -0.0146489 36.5894 0.847679 -7.76297 0.0052244 
102 1 1 -0.0416721 -0.0174386 0.00831155 0 0 0 0.0306839 -0.091207 -0.0104718 0.00383354 0.00812051 0.0909749 10.4792 4.69405 -11.7913 0.00835904 
328 1 1 -0.0269007 -0.0202082 0.00611674 0 0 0 0 0 -0.0177793 0 0 -0.0146489 0 0 0 0.0052244 
40 1 1 -0.00892357 -0.0160027 0.00830464 0 0 0 0.0418037 0.0205901 0.0453646 -0.0360103 -0.0176973 -0.0406401 -2.67835 5.3047 -13.4336 0.00835904 
279 1 1 0.00421034 -0.014923 0.00518001 0 0 0 0.0437081 -0.0538496 -0.0118409 -0.0168081 -0.0059587 -0.0196634 8.47859 10.4086 13.1199 0.0052244 
267 1 1 0.0153142 -0.0186955 0.00599671 0 0 0 -0.0413905 -0.0399489 -0.0182534 0 0 -0.0146489 7.76308 -8.05495 -3.97583 0.0052244 
274 1 1 -0.0187733 -0.00691579 0.00519736 0 0 0 -0.124262 -0.145846 0.0192081 0.000499793 0.000822384 -0.00284141 -5.37466 8.46077 -1.87702 0.0052244 
50 1 1 0.0272703 -0.00950749 0.00844357 0 0 0 -0.0350231 -0.0304261 0.0208812 -0.0384772 -0.119899 -0.322796 -12.9725 0.0998482 -1.29253 0.00835904 
202 1 1 0.0438579 -0.0134878 0.00520998 0 0 0 0.0102414 -0.0958088 0.00260635 3.68921e-06 -2.59491e-05 -0.000842147 18.3632 1.96347 6.58028 0.0052244 
257 1 1 -0.044176 -0.000362943 0.00575717 0 0 0 -0.151988 0.033367 0.101754 0 0 -0.0146489 -1.37595 -32.1715 26.3301 0.0052244 
171 1 1 -0.0248002 0.00225623 0.00509257 0 0 0 0.0927162 -0.0460508 0.0323864 -0.0104405 0.0287546 -0.00379889 9.30459 17.4067 12.4087 0.0052244 
17 1 1 -0.00933398 0.00229767 0.00830898 0 0 0 0.0137898 -0.234723 -0.00322397 -0.0138284 0.0126557 0.0462875 19.522 7.12948 -13.6801 0.00835904 
96 1 1 0.0115335 -0.00398563 0.00830048 0 0 0 -0.0223895 -0.0231967 -0.0305382 -0.00153896 -0.167789 -0.16018 3.25759 -0.817931 0.899703 0.00835904 
94 1 1 0.0367677 0.00406714 0.00828085 0 0 0 0.0420522 -0.0507557 0.00415102 -0.101608 -0.1057 -0.00820907 9.23525 3.28257 -8.8002 0.00835904 
268 1 1 -0.0304051 0.0111929 0.00753898 0 0 0 -0.0370338 -0.0332623 -0.149351 0.00549331 0.00516838 -0.0131671 7.89703 -24.7585 -16.2485 0.0052244 
98 1 1 0.0121613 0.0128615 0.00817536 0 0 0 0.102834 0.098362 0.0334362 -0.139757 -0.0457373 0.62847 -6.47147 5.73871 -1.81972 0.00835904 
232 1 1 -0.0402484 0.014606 0.00519066 0 0 0 -0.0249926 -0.0416726 0.0453701 0.00132339 -0.00477109 -0.0308904 8.15963 -4.11498 -87.7143 0.0052244 
297 1 1 -0.0243072 0.0193112 0.00508371 0 0 0 0.0145102 0.000749232 0.0098858 0.0208978 0.0260872 0.0455499 -0.375622 3.789 20.3164 0.0052244 
222 1 1 -0.0126324 0.0197228 0.00510234 0 0 0 0.0324326 0.0122169 -0.0295202 -0.0149198 -0.0350928 0.120503 1.0844 4.57817 -6.27811 0.0052244 
290 1 1 -0.00109027 0.0139824 0.00516624 0 0 0 -0.000923528 -0.0952525 0.0158007 0.00347768 -0.0436821 -0.00953243 19.0197 -0.0988446 27.4846 0.0052244 
316 1 1 0.0299721 0.01687 0.00520867 0 0 0 0.00259857 -0.000137328 0.00343303 8.11028e-07 -4.28608e-08 0.000521478 0.0263262 0.498154 1.29547 0.0052244 
162 1 1 0.0449263 0.0142626 0.00502241 0 0 0 0.0217021 -0.0148799 0.0425341 -0.0425694 0.00493348 -0.00116518 0.929448 6.13785 7.87155 0.0052244 
294 1 1 -0.0445708 0.0276772 0.00732999 0 0 0 -0.175129 -0.0190997 -0.115644 -0.136845 -0.0601072 0.040629 62.4829 -10.0302 -1.83499 0.0052244 
324 1 1 -0.00911941 0.0306935 0.00521037 0 0 0 0.0450069 -0.108875 0.00289445 1.32954e-05 -3.21621e-05 -0.00179931 20.8666 8.62583 6.07184 0.0052244 
161 1 1 0.00374537 0.0281471 0.00517225 0 0 0 0.0151823 0.113538 -0.020388 1.5464e-05 0.000135392 0.129191 -21.7254 2.90586 0.872205 0.0052244 
77 1 1 0.0191854 0.0305688 0.00818736 0 0 0 0.122425 0.138408 -0.0658657 0.476529 0.118825 -0.071143 -17.6974 14.8223 3.17372 0.00835904 
155 1 1 0.0327159 0.028749 0.0052403 0 0 0 -0.0395388 -0.118167 0.0419722 0 0 -0.0146489 24.0545 -7.96014 -2.79229 0.0052244 
175 1 1 -0.0355749 0.032242 0.0050328 0 0 0 -0.0456163 -0.0427518 0.055697 0.00219109 -0.0648046 -0.0272076 6.65034 -4.06026 -25.6471 0.0052244 
255 1 1 -0.0230148 0.0331454 0.00516119 0 0 0 -0.0501329 -0.0719903 -0.00363786 0.0117952 -0.00387526 0.0173524 13.8068 -9.7424 -0.713524 0.0052244 
289 1 1 0.0440119 0.0367537 0.00504785 0 0 0 -0.0159311 -0.0798749 0.0259531 0.00171757 -0.00255135 0.0263118 15.4424 -1.50363 20.0669 0.0052244 
321 1 1 -0.0447862 0.0434911 0.00520584 0 0 0 0.00397056 0 0.00357899 0.00143535 0 0.00225857 0 0.795479 0 0.0052244 
207 1 1 -0.034013 0.042938 0.00523757 0 0 0 0 0 0.00264847 0 0 -0.0146489 0 0 0 0.0052244 
149 1 1 0.00392819 0.041858 0.00566401 0 0 0 -0.0258866 0.067577 -0.0560992 0 0 -0.0146489 -15.3192 -5.86829 2.70625e-14 0.0052244 
249 1 1 0.0262289 0.0419295 0.00524136 0 0 0 0.0243051 -0.00723875 -0.0254257 0 0 -0.0146489 1.41383 5.15591 1.4317 0.0052244 
299 1 1 -0.0276596 -0.0447505 0.0151166 0 0 0 0.00234195 -0.00429385 0.019189 0.000433601 -0.00350155 0.00269633 2.21032 -0.170533 0.419618 0.0052244 
130 1 1 0.0174559 -0.0447909 0.0140334 0 0 0 -0.0400084 -0.0395321 -0.00406262 -0.0883166 -0.23425 -0.442135 9.4191 21.854 -28.0888 0.0052244 
179 1 1 -0.0343496 -0.0255107 0.0163635 0 0 0 -0.0128656 -0.138487 0.0295014 0.0094587 -0.0489542 0.0467275 -61.2922 30.3244 -39.7821 0.0052244 
7 1 1 -0.0190015 -0.0309702 0.0173273 0 0 0 0.0581224 0.0485577 0.0268284 0.205866 -0.100492 0.256646 15.2068 16.5394 -9.07767 0.00835904 
67 1 1 0.0244338 -0.0308257 0.0122857 0 0 0 0.131693 0.00795833 -0.113528 0.0894497 -0.190899 0.172404 -37.3928 -13.2026 -15.3844 0.00835904 
278 1 1 0.0308246 -0.0197351 0.0164931 0 0 0 0.0635031 0.0106876 -0.00302591 -0.0141393 -0.0532707 -0.0108905 50.5147 -23.9547 25.2875 0.0052244 
146 1 1 -0.0447145 -0.00650293 0.0173797 0 0 0 0.0147399 0.119628 -0.0813698 0 0 -0.0146489 -75.442 -5.81307 16.8164 0.0052244 
19 1 1 -0.0291295 -0.011311 0.0174988 0 0 0 0.0779914 -0.0546098 -0.0115139 0.0353265 0.0995163 -0.191879 -13.6043 -2.69577 12.5949 0.00835904 
310 1 1 -0.0156351 -0.0106427 0.0187964 0 0 0 0.0774212 0.144444 0.0283277 -0.00708687 0.000478968 -0.00425376 -21.4123 0.441122 19.1978 0.0052244 
160 1 1 -0.0018973 -0.0080344 0.0167728 0 0 0 0.115829 0.172961 -0.222067 0 0 -0.0146489 -37.4 1.28777 3.27368 0.0052244 
183 1 1 0.0391307 -0.0137314 0.014563 0 0 0 -0.0478306 -0.0477808 -0.0407622 0.0732241 0.0761222 0.011444 -35.1416 -8.60541 -0.46269 0.0052244 
112 1 1 -0.0226493 0.00410641 0.0182153 0 0 0 0.0808955 0.01855 0.0808773 0.0640141 0.0706674 0.140929 -13.0395 -12.3801 -4.59049 0.00835904 
25 1 1 -0.0398776 0.00704328 0.0166214 0 0 0 -0.275699 0.0786487 -0.122741 -0.0739314 -0.048763 -0.0839018 -19.6311 19.1281 -21.1654 0.00835904 
164 1 1 0.0248419 0.00959103 0.0113513 0 0 0 0.111512 0.0664273 0.050819 0.0148087 -0.0562421 0.170822 -5.15663 -1.45822 -9.88753 0.0052244 
273 1 1 -0.0385634 0.0211272 0.0131246 0 0 0 0.104461 0.143697 -0.0672542 0.00676102 -0.0119887 -0.0393064 -65.6611 -35.5545 3.00188 0.0052244 
28 1 1 -0.0185564 0.0205942 0.0171584 0 0 0 0.0749911 0.0699785 -0.0161293 -0.135247 0.154732 0.38726 -5.02083 4.45157 -5.1594 0.00835904 
286 1 1 -0.00482927 0.013244 0.0148227 0 0 0 -0.0196168 -0.178045 0.0175077 0.210672 -0.0547219 0.0239358 -28.0239 -7.7929 30.1597 0.0052244 
284 1 1 0.0299245 0.0180397 0.0170568 0 0 0 0.160953 0.0742344 -0.339846 0 0 -0.0146489 -11.5017 23.5268 -18.2716 0.0052244 
261 1 1 0.0426316 0.0142117 0.0149353 0 0 0 0.0487553 -0.125547 0.11868 -0.0356078 -0.0241949 0.0238079 19.3668 0.855752 18.7409 0.0052244 
23 1 1 -0.0302908 0.0324451 0.0173252 0 0 0 -0.0224266 -0.0142419 0.0566504 0.106103 -0.1127 -0.386895 -15.185 3.29402 1.17524 0.00835904 
16 1 1 0.00666299 0.0351783 0.0179915 0 0 0 0.0685009 0.15341 -0.175579 -0.0727069 0.136862 -0.114178 13.3571 3.39594 26.0568 0.00835904 
61 1 1 0.0350951 0.0380268 0.0149461 0 0 0 -0.0877478 0.077203 -0.0128383 -0.191754 -0.515079 0.057354 -42.2361 -6.66773 -3.65119 0.00835904 
38 1 1 -0.0168562 0.0416709 0.0136499 0 0 0 0.0186201 -0.0397933 -0.0745656 -0.0235037 0.101211 0.0970513 8.53556 -3.52031 2.28365 0.00835904 
239 1 1 0.0191854 0.0436217 0.0133988 0 0 0 -0.169358 0.195442 -0.100057 0 0 -0.0146489 -46.8793 -44.9173 -2.99265 0.0052244 
331 1 1 -0.0420922 -0.0428226 0.0232506 0 0 0 0 0 -0.652316 0 0 -0.0146489 0 0 0 0.0052244 
180 1 1 -0.0444903 -0.0325864 0.0205209 0 0 0 -0.245839 -0.201686 0.0467846 -0.0250478 0.00644555 0.150868 -36.3956 21.6828 -29.7683 0.0052244 
104 1 1 -0.00038635 -0.0323267 0.0216105 0 0 0 0.0323071 0.0105427 -0.0283751 -0.0115715 -0.159196 -0.00231616 -5.12477 -16.1882 -6.74693 0.00835904 
167 1 1 0.0225985 -0.041205 0.0222425 0 0 0 0.0744023 -0.0140133 -0.37246 0.0491223 -0.127145 -0.538467 -33.4971 24.5119 16.8031 0.0052244 
271 1 1 0.030074 -0.0326663 0.0246629 0 0 0 -0.0384606 7.26011e-05 -0.136526 0.37402 0.224682 -0.569578 63.4368 -0.728595 -26.1709 0.0052244 
136 1 1 0.0396438 -0.0402547 0.0239545 0 0 0 -0.0368371 -0.19928 -0.330175 0 0 -0.0146489 57.9829 -5.78651 3.48867 0.0052244 
128 1 1 -0.0448648 -0.0232007 0.0249434 0 0 0 0.04935 -0.030033 -0.333583 -0.000167718 0.0324379 0.0501306 -34.9515 43.4867 4.54216 0.0052244 
120 1 1 0.0416365 -0.0272722 0.0195835 0 0 0 0.0258717 -0.121821 -0.104058 0.145664 -0.228529 -0.419872 -2.8561 -0.620132 9.01331 0.00835904 
178 1 1 -0.0113606 -0.0203785 0.0208903 0 0 0 0.00931291 0.103642 0.121825 -0.0265636 -0.0165001 -0.0606165 -10.2369 -25.1201 23.2694 0.0052244 
258 1 1 -0.00195188 -0.0193827 0.0252318 0 0 0 0.204145 0.0142941 -0.328978 -0.0749968 0.0104458 -0.119182 -64.6044 45.406 34.8699 0.0052244 
51 1 1 0.0131239 -0.0206523 0.0192972 0 0 0 -0.0447635 0.063419 -0.331356 0.255728 -0.223526 -0.0181808 39.0414 -11.6276 -6.16668 0.00835904 
134 1 1 0.0445277 -0.0144028 0.0235625 0 0 0 -0.0329621 -0.0127888 -0.0434851 0 0 -0.0146489 37.8519 12.2812 9.39373 0.0052244 
336 1 1 -0.0197833 -0.00554054 0.0271433 0 0 0 0.0332451 -0.0505841 0.223082 0.18303 -0.0998313 -0.0984078 7.15157 -11.5373 4.81723 0.0052244 
245 1 1 0.0049095 -0.0105708 0.024338 0 0 0 0.0391688 0.0267418 -0.153394 -0.0084327 -0.00867777 -0.0173746 70.5321 -24.0384 -6.34108 0.0052244 
18 1 1 0.0173274 -0.00512401 0.023811 0 0 0 0.112377 -0.138157 -0.14218 -0.0818099 -0.168759 -0.0750653 -22.6539 0.776726 10.9471 0.00835904 
184 1 1 0.0298821 -0.0097192 0.0217237 0 0 0 0.162882 0.10449 -0.139516 -0.0141147 -0.0918915 0.223061 -5.83878 28.2689 10.4747 0.0052244 
55 1 1 0.0405892 -0.00130815 0.0235865 0 0 0 0.0148555 0.00518737 0.0297439 -0.0211663 -0.0582982 0.0366799 -19.5296 -2.5663 -14.928 0.00835904 
300 1 1 -0.0424128 0.0206712 0.0227814 0 0 0 -0.142686 0.0727452 -0.142775 -0.00795543 0.0168365 0.02655 56.573 -7.76975 12.621 0.0052244 
320 1 1 -0.00566605 0.0215932 0.0208765 0 0 0 0.00384323 -0.00808866 -0.180453 0.13276 0.0125964 -0.115022 -24.8559 8.33631 -16.1696 0.0052244 
58 1 1 0.0404672 0.0182672 0.0274472 0 0 0 0.0183967 -0.0577343 0.146679 0.151432 0.139265 -0.0287129 -21.0511 -1.14736 -7.33308 0.00835904 
305 1 1 -0.0438599 0.0305031 0.0182714 0 0 0 -0.109113 0.233057 -0.135546 0 0 -0.0146489 -14.7867 -47.9634 -6.10969 0.0052244 
108 1 1 0.0180196 0.023071 0.0229029 0 0 0 0.122234 0.0357933 -0.141726 0.245986 -0.155756 -0.13427 32.9045 -17.6584 0.74852 0.00835904 
69 1 1 -0.010836 0.0327758 0.0264294 0 0 0 0.137298 0.0294742 -0.0703838 -0.0385605 -0.00993428 -0.0655026 -7.65247 20.1189 17.8253 0.00835904 
237 1 1 -0.00341473 0.043939 0.0210785 0 0 0 -0.136451 0.0935092 -0.387407 0 0 -0.0146489 -53.0623 -48.4544 -9.88001 0.0052244 
225 1 1 0.000345535 -0.0447637 0.0278618 0 0 0 -0.140802 0.00698023 -0.231738 0 0 -0.0146489 21.1395 38.2644 -20.5264 0.0052244 
242 1 1 0.0119111 -0.0447813 0.0306942 0 0 0 0.031973 0.00843713 -0.355785 0.0126508 0.00551577 0.000244174 -52.0986 15.5141 -15.2308 0.0052244 
256 1 1 -0.0290246 -0.0393498 0.0290374 0 0 0 -0.0139333 -0.00648974 -0.64017 0 0 -0.0146489 5.07962 -3.78794 3.94522 0.0052244 
42 1 1 -0.0129777 -0.0376458 0.03118 0 0 0 0.0941872 -0.207436 -0.0540679 0.294353 -0.114837 0.132067 20.287 -14.5443 10.5026 0.00835904 
93 1 1 -0.0288432 -0.0238167 0.0285268 0 0 0 0.105458 0.0725102 0.0581359 -0.0185173 0.0948547 -0.13119 -5.20961 -19.962 -14.0868 0.00835904 
191 1 1 0.00862395 -0.0273209 0.0304503 0 0 0 0.187741 0.0444498 -0.163683 -0.00582057 -0.0117015 -0.0249712 -15.6128 59.2818 -23.696 0.0052244 
105 1 1 0.0362367 -0.0262659 0.0352297 0 0 0 0.113714 0.091846 -0.0754573 -0.0916761 0.221002 0.319097 -31.8423 14.5062 18.7204 0.00835904 
24 1 1 -0.00712919 -0.00845044 0.0311502 0 0 0 0.121828 0.101381 -0.469285 0.00917253 0.21151 0.110349 1.36771 17.9158 -0.0502833 0.00835904 
259 1 1 0.0309705 -0.01012 0.0320654 0 0 0 0.159135 0.147661 -0.0267009 0.0172216 -0.0235537 -0.0368576 -1.01819 -25.6315 -3.78763 0.0052244 
107 1 1 -0.0397749 0.000761083 0.0321549 0 0 0 -0.0616411 0.091369 -0.0787092 -0.0113829 -0.0266195 -0.065625 41.8078 -13.5464 -4.43328 0.00835904 
133 1 1 -0.0263907 -0.000546406 0.0333395 0 0 0 0.0533989 0.152735 -0.000419111 -0.169357 0.00500132 0.216351 -30.2123 13.7925 16.5393 0.0052244 
4 1 1 -0.0113994 0.0100841 0.0291116 0 0 0 0 0 -0.652316 0 0 -0.0600021 0 0 0 0.00835904 
100 1 1 0.0106268 0.009223 0.0284494 0 0 0 -0.00741657 -0.0853299 -0.411398 -0.164463 0.143579 -0.130808 -15.4374 -10.3185 3.68217 0.00835904 
95 1 1 0.0271985 0.00792643 0.0281226 0 0 0 0.11052 0.154162 -0.228877 -0.0204014 -0.394222 -0.426427 -24.9106 -7.68223 34.1801 0.00835904 
318 1 1 0.0447753 0.00647084 0.0339067 0 0 0 -0.00444464 0.147285 -0.0503009 0 0 -0.0146489 -18.8558 -17.9554 -19.4203 0.0052244 
2 1 1 -0.0305896 0.0155399 0.0273619 0 0 0 -0.025546 0.168213 -0.104974 -0.310603 -0.0664207 0.286693 -3.0241 -17.7338 -9.08802 0.00835904 
246 1 1 -0.0417282 0.0241681 0.032665 0 0 0 -0.0426971 0.0711651 -0.160584 0 0 -0.0146489 -45.9901 23.9706 -7.60851 0.0052244 
192 1 1 -0.0233093 0.0268363 0.0287167 0 0 0 0.11322 0.203887 -0.279978 0.0217511 0.0402125 0.0139214 -39.1648 -22.4233 -5.92862 0.0052244 
73 1 1 0.00337531 0.0247378 0.0303417 0 0 0 0.0704236 -0.0683994 -0.253481 -0.271966 0.179061 0.0925532 7.33874 -0.201756 -15.1201 0.00835904 
9 1 1 -0.0343607 0.0387216 0.0321067 0 0 0 -0.0625521 0.116193 -0.181762 0.196034 0.135318 0.660221 -11.0376 -14.3185 0.559419 0.00835904 
47 1 1 0.0231847 0.0347228 0.0335255 0 0 0 0.075108 0.0905526 -0.132462 0.182502 -0.335155 -0.092022 -34.1848 18.0454 9.34834 0.00835904 
114 1 1 0.0383379 0.0417933 0.0307554 0 0 0 0.0128084 0.144751 -0.0982166 -0.20701 -0.792564 -0.265269 17.7693 20.0007 0.734695 0.00835904 
323 1 1 -0.0163799 0.0448276 0.0290358 0 0 0 -0.00475102 -0.0133952 -0.0764747 0.00126643 0.00309765 0.00155675 14.4742 -40.7576 -1.05252 0.0052244 
248 1 1 0.00409611 0.0433263 0.0314129 0 0 0 0 0 -0.652316 0 0 -0.0146489 0 0 0 0.0052244 
168 1 1 0.000959298 -0.0413176 0.038101 0 0 0 0.15436 -0.0635074 -0.431281 0 0 -0.0146489 4.79245 10.0241 -0.365198 0.0052244 
224 1 1 -0.03659 -0.0379759 0.0435129 0 0 0 0.00501987 -0.00163162 -0.651856 0 0 -0.0146489 0.804669 2.39802 -0.287052 0.0052244 
314 1 1 -0.0180172 -0.0424604 0.0426724 0 0 0 -0.0233004 -0.38123 -0.204234 0.0229561 -0.0879295 0.0468078 4.07026 -9.26307 -13.6123 0.0052244 
3 1 1 0.0218437 -0.0364087 0.034648 0 0 0 0.0765065 0.041424 -0.425324 -0.320238 0.170142 1.46577 -18.8615 -3.24753 2.20041 0.00835904 
125 1 1 0.0355589 -0.0398855 0.036653 0 0 0 0.0176611 -0.0782111 -0.558973 0 0 -0.0146489 33.9271 -2.60661 -8.61273 0.0052244 
211 1 1 -0.0421348 -0.0268596 0.0434407 0 0 0 0.00823023 -0.199122 -0.504383 0 0 -0.0146489 3.81382 -9.64559 -8.50968 0.0052244 
329 1 1 -0.0234712 -0.0322195 0.039385 0 0 0 -0.00736939 -0.117821 0.00581614 0 0 -0.0146489 52.6702 13.6265 -48.4774 0.0052244 
43 1 1 -0.00176458 -0.0261625 0.0392069 0 0 0 -0.080467 0.0247864 -0.409537 0 0 -0.0600021 -0.569126 -19.6058 3.36556 0.00835904 
66 1 1 -0.0415089 -0.0155574 0.0355255 0 0 0 0.111774 0.0216165 -0.323432 -0.0148557 0.0239626 0.497073 17.463 -2.77281 11.0577 0.00835904 
81 1 1 -0.0192683 -0.0162478 0.0397613 0 0 0 0.301622 0.181745 -0.0813018 0.0418191 0.117722 0.165419 -26.8562 31.4279 2.32081 0.00835904 
52 1 1 0.0154109 -0.018122 0.0385332 0 0 0 0.0139844 -0.0943424 -0.624209 0.0797923 -0.29368 -0.132184 11.5198 2.49528 2.66894 0.00835904 
332 1 1 0.0292889 -0.0157941 0.0406714 0 0 0 -0.0970841 -0.0224753 -0.123925 -0.025922 -1.59233e-06 -0.0587864 11.6588 -22.9509 14.4683 0.0052244 
5 1 1 0.0413449 -0.0102236 0.0433711 0 0 0 0.00557466 -0.000516877 -0.651595 0.0250826 0.011493 -0.0387538 -0.576516 0.970571 -0.0466531 0.00835904 
10 1 1 0.0114128 -0.00216562 0.040717 0 0 0 -0.0640599 -0.114935 -0.416832 -0.0797923 0.29368 0.0121799 18.974 10.4734 9.62005 0.00835904 
303 1 1 0.0310581 0.00317478 0.0411034 0 0 0 0.0237963 -0.103893 -0.567147 0 0 -0.0146489 6.85574 4.84003 3.51894 0.0052244 
208 1 1 -0.0396445 0.0129879 0.037795 0 0 0 -0.0275799 0.345658 -0.18676 -0.0203776 0.0389258 0.00112402 -127.957 7.06655 -12.9637 0.0052244 
236 1 1 -0.0184768 0.0106077 0.0416341 0 0 0 -0.00245174 0.00152997 -0.65498 0 0 -0.0146489 -0.612867 -0.120967 0.490702 0.0052244 
115 1 1 0.00241263 0.0133593 0.0422415 0 0 0 -0.018451 -0.0915962 -0.362324 -0.22056 -0.532376 0.639309 5.70751 -5.68675 -17.3708 0.00835904 
298 1 1 0.0354777 0.0123068 0.0385429 0 0 0 -0.0308091 0.0400783 -0.215151 -0.071878 -0.240099 0.297842 58.38 -22.51 12.6824 0.0052244 
282 1 1 -0.0247056 0.0187737 0.0391018 0 0 0 0.156834 0.122508 -0.0640155 -0.0426741 -0.0157404 -0.00656843 11.3998 45.6352 -8.19025 0.0052244 
15 1 1 0.0195316 0.0149886 0.0411358 0 0 0 0.0464289 0.0548431 -0.447942 0.243774 0.722141 0.70044 -7.6771 20.9585 -0.846675 0.00835904 
262 1 1 -0.0271329 0.0291795 0.0386091 0 0 0 -0.0795993 -0.00601316 -0.343364 0 0 -0.0146489 5.17168 55.0575 -26.378 0.0052244 
292 1 1 -0.0140544 0.0312752 0.0395366 0 0 0 0.0362641 -0.00742138 -0.0896987 0.000780207 -0.00148085 -0.0186221 18.6127 -55.2254 -2.33542 0.0052244 
106 1 1 0.0364399 0.0275338 0.0405465 0 0 0 0.0429554 0.156276 0.00572703 -0.0841026 -0.103924 -0.130368 -3.17465 -15.6975 -18.9288 0.00835904 
99 1 1 0.000167583 0.034257 0.0435146 0 0 0 0.0565996 -0.0549634 -0.29315 -0.241892 0.301257 0.262175 -5.76381 -32.8517 -22.0482 0.00835904 
327 1 1 -0.03804 0.044258 0.0437519 0 0 0 -0.189246 0.270419 -0.0781693 -0.10605 0.115455 0.189661 0.213685 3.9508 -1.80908 0.0052244 
126 1 1 -0.014749 0.0439773 0.0433172 0 0 0 0.00576286 0.00288269 -0.656844 0.000463081 0.000236343 -0.0149835 0.0827209 -0.135639 0.0189418 0.0052244 
229 1 1 0.0165203 0.0449201 0.0391378 0 0 0 0.0163377 0.0514818 -0.220272 -0.074762 -0.0698076 0.0264191 41.7611 -39.8955 0.467514 0.0052244 
203 1 1 0.0445842 0.0438848 0.0434852 0 0 0 -0.0419846 -0.0779842 -0.0999975 0 0 -0.0146489 4.44705 -9.04193 15.0476 0.0052244 
337 1 1 -0.00784267 -0.032602 0.0496893 0 0 0 -0.130439 -0.0737826 -0.454047 0 0 -0.0146489 11.9652 11.9285 12.2941 0.0052244 
283 1 1 0.0344894 -0.0364612 0.0472305 0 0 0 0 0 -0.652316 0 0 -0.0146489 0 0 0 0.0052244 
307 1 1 -0.0136842 -0.0238894 0.050106 0 0 0 -0.0507533 0.018457 -0.605355 0 0 -0.0146489 -14.1764 -9.0914 -11.773 0.0052244 
91 1 1 0.0238395 -0.0295294 0.0526112 0 0 0 0 0 -0.652316 0 0 -0.0600021 0 0 0 0.00835904 
326 1 1 0.0428617 -0.0238533 0.0500861 0 0 0 0 0 -0.652316 0 0 -0.0146489 0 0 0 0.0052244 
36 1 1 -0.0376623 -0.0156523 0.051714 0 0 0 0.0866715 -0.0217158 -0.351722 -0.180321 0.16473 -0.0988269 -12.5695 -4.37253 3.19085 0.00835904 
26 1 1 -6.62862e-05 -0.0140715 0.0529242 0 0 0 0 0 -0.652316 0 0 -0.0600021 0 0 0 0.00835904 
182 1 1 -0.0245293 -0.0112169 0.0512396 0 0 0 0.012979 0.229795 -0.179669 0.243301 -0.192961 -0.446794 12.0111 -81.5301 38.814 0.0052244 
197 1 1 -0.0154165 -0.00546226 0.0471247 0 0 0 0 0 -0.652316 0 0 -0.0146489 0 0 0 0.0052244 
240 1 1 0.023713 -0.00191796 0.0466561 0 0 0 0.0418702 -0.13052 -0.472731 0 0 -0.0146489 -12.5246 8.55145 3.84139 0.0052244 
32 1 1 -0.0357228 0.00649715 0.0496297 0 0 0 0 0 -0.652316 0 0 -0.0600021 0 0 0 0.00835904 
57 1 1 -0.01035 0.0109152 0.0525965 0 0 0 -0.150714 -0.0307082 -0.489035 -0.0988167 -0.140454 0.126033 1.81825 -11.5994 3.9819 0.00835904 
291 1 1 0.0418759 0.00849624 0.0477376 0 0 0 0 0 -0.652316 0 0 -0.0146489 0 0 0 0.0052244 
199 1 1 -0.0443433 0.0219429 0.044294 0 0 0 0 0 -0.652316 0 0 -0.0146489 0 0 0 0.0052244 
335 1 1 -0.0280227 0.0221394 0.0496184 0 0 0 0 0 -0.652316 0 0 -0.0146489 0 0 0 0.0052244 
117 1 1 -0.011469 0.0275227 0.0533438 0 0 0 -0.169372 -0.0152152 -0.535134 -0.112467 0.0818226 0.0874571 3.57637 0.747519 4.21567 0.00835904 
127 1 1 0.0346774 0.0265009 0.0538866 0 0 0 -0.0634913 0.0646822 -0.138958 -0.0489804 -0.0784464 -0.304506 4.73884 20.1 7.6955 0.0052244 
122 1 1 -0.0249207 0.0387915 0.0506575 0 0 0 -0.000620658 -0.000858101 -0.651426 -0.000463081 -0.000236343 -0.0596675 0.0455793 0.210015 -0.0424687 0.00835904 
76 1 1 0.030926 0.0417348 0.0472131 0 0 0 -0.0545151 0.243906 -0.297669 0.150022 -1.07488 0.765776 -1.50665 -14.3474 3.33462 0.00835904 
158 1 1 0.00701083 0.0447911 0.0486257 0 0 0 0.110614 -0.0626586 -0.166582 0.0170232 0.00287945 -0.00535338 30.0497 43.7233 23.5412 0.0052244 
84 1 1 -0.0400312 -0.0356627 0.0578055 0 0 0 -0.137181 0.0114104 -0.560169 0 0 -0.0600021 -1.96835 -12.8867 -2.08211 0.00835904 
6 1 1 -0.0235191 -0.0400436 0.054717 0 0 0 -0.0715841 -0.157618 -0.31253 -0.166739 -0.00815377 0.286045 -22.3455 -6.72135 -13.4631 0.00835904 
56 1 1 0.00625104 -0.0388468 0.0549242 0 0 0 0 0 -0.652316 0 0 -0.0600021 0 0 0 0.00835904 
49 1 1 0.0375297 -0.0383468 0.0615968 0 0 0 0 0 -0.652316 0 0 -0.0600021 0 0 0 0.00835904 
75 1 1 -0.0270131 -0.0238099 0.0627884 0 0 0 -0.0560522 0.102639 -0.496347 0 0 -0.0600021 -12.4701 0.964404 -6.11246 0.00835904 
137 1 1 -0.00363123 -0.0300467 0.0620001 0 0 0 0 0 -0.652316 0 0 -0.0146489 0 0 0 0.0052244 
204 1 1 -0.0107942 -0.0174805 0.0608058 0 0 0 0 0 -0.652316 0 0 -0.0146489 0 0 0 0.0052244 
215 1 1 0.0295226 -0.0144583 0.0532094 0 0 0 0 0 -0.652316 0 0 -0.0146489 0 0 0 0.0052244 
217 1 1 0.0396848 -0.0140144 0.0573943 0 0 0 0.00171881 -0.00451449 -0.650467 0.000929964 -0.000165052 -0.0140311 0.581325 0.233666 0.0293183 0.0052244 
145 1 1 -0.0314473 -0.0103127 0.062461 0 0 0 -0.0288782 0.167507 -0.557425 0.131834 -0.00128535 0.30262 -20.1706 2.28773 10.8837 0.0052244 
276 1 1 0.014428 -0.00937105 0.0543561 0 0 0 0 0 -0.652316 0 0 -0.0146489 0 0 0 0.0052244 
53 1 1 -0.0210984 -0.00118972 0.0597222 0 0 0 -0.000529182 0.00041646 -0.65138 -0.243301 0.192961 0.372143 -0.128904 0.169599 -0.148321 0.00835904 
87 1 1 0.0347141 -0.00146664 0.0559507 0 0 0 -0.00190794 0.00418924 -0.647937 0.00944265 0.00867673 -0.0503712 0.0269554 -0.20221 0.137502 0.00835904 
233 1 1 0.00306177 0.0126756 0.0560508 0 0 0 -0.0197195 0.00255187 -0.380533 0 0 -0.0146489 10.8896 14.0887 2.13033 0.0052244 
45 1 1 0.0305588 0.0148622 0.0609189 0 0 0 -0.0456203 -0.0917852 -0.47368 0 0 -0.0600021 18.5849 -7.36448 0.973657 0.00835904 
250 1 1 -0.0226139 0.0282147 0.0612203 0 0 0 0 0 -0.652316 0 0 -0.0146489 0 0 0 0.0052244 
140 1 1 0.0108541 0.0242341 0.0579225 0 0 0 0 0 -0.652316 0 0 -0.0146489 0 0 0 0.0052244 
322 1 1 0.044741 0.0237515 0.0562896 0 0 0 -0.0202808 0.0670133 -0.551305 0 0 -0.0146489 15.4672 -0.709261 -8.69394 0.0052244 
39 1 1 -0.0393506 0.0352058 0.0586384 0 0 0 0 0 -0.652316 0 0 -0.0600021 0 0 0 0.00835904 
315 1 1 -0.000534192 0.0402522 0.0557212 0 0 0 -0.0614167 0.186458 -0.569468 0 0 -0.0146489 27.9687 11.2468 -6.09358 0.0052244 
113 1 1 0.0165965 0.0366038 0.054422 0 0 0 0 0 -0.652316 0 0 -0.0600021 0 0 0 0.00835904 
195 1 1 0.0389143 0.0324128 0.061142 0 0 0 0.0132638 0.0536153 -0.441488 0.168595 0.294778 0.665149 -39.2064 36.3812 -6.78892 0.0052244 
124 1 1 0.0420088 0.042441 0.061957 0 0 0 0 0 -0.652316 0 0 -0.0146489 0 0 0 0.0052244 
79 1 1 -0.0175687 -0.0414792 0.0716273 0 0 0 0.00120108 -0.00118541 -0.652791 0.000510254 -0.000503595 -0.0602041 5.0794e-14 5.19156e-14 -1.12201e-15 0.00835904 
190 1 1 0.000515076 -0.0431242 0.0702048 0 0 0 0 0 -0.652316 0 0 -0.0146489 0 0 0 0.0052244 
265 1 1 0.014652 -0.0432494 0.06479 0 0 0 0 0 -0.652316 0 0 -0.0146489 0 0 0 0.0052244 
189 1 1 0.0227689 -0.0351154 0.0665819 0 0 0 -0.00111445 -0.00142822 -0.655238 -0.000139144 -0.000178318 -0.0150138 2.23628e-13 -1.95138e-13 1.00859e-14 0.0052244 
313 1 1 -0.0111159 -0.0253459 0.0697984 0 0 0 0 0 -0.652316 0 0 -0.0146489 0 0 0 0.0052244 
227 1 1 0.0105119 -0.0261492 0.0688906 0 0 0 0 0 -0.652316 0 0 -0.0146489 0 0 0 0.0052244 
147 1 1 -0.039794 -0.0179325 0.0650612 0 0 0 0 0 -0.652316 0 0 -0.0146489 0 0 0 0.0052244 
209 1 1 0.0100426 -0.0144994 0.0664061 0 0 0 0 0 -0.652316 0 0 -0.0146489 0 0 0 0.0052244 
59 1 1 0.0243407 -0.0153745 0.0669685 0 0 0 -0.000758491 2.58077e-05 -0.654646 -0.00132826 -0.00118167 -0.0646201 0.1316 0.0186511 -0.0426238 0.00835904 
247 1 1 0.0363883 -0.0216333 0.067868 0 0 0 0 0 -0.652316 0 0 -0.0146489 0 0 0 0.0052244 
295 1 1 -0.00311286 -0.0118906 0.0696737 0 0 0 0.00261512 -0.000106439 -0.654561 0.000521275 -0.000113558 -0.014893 0.00258881 0.00601601 0.0027305 0.0052244 
148 1 1 0.0440706 -0.00493793 0.0655935 0 0 0 0 0 -0.652316 0 0 -0.0146489 0 0 0 0.0052244 
220 1 1 -0.0374843 0.00171989 0.0625814 0 0 0 0 0 -0.652316 0 0 -0.0146489 0 0 0 0.0052244 
22 1 1 0.00670134 0.00334988 0.0662291 0 0 0 -0.00109068 -0.00297197 -0.659476 0 0 -0.0600021 0.494084 0.131336 -0.129777 0.00835904 
312 1 1 -0.0220558 0.00846736 0.0697327 0 0 0 0 0 -0.652316 0 0 -0.0146489 0 0 0 0.0052244 
63 1 1 -0.0344071 0.0201469 0.0664653 0 0 0 0 0 -0.652316 0 0 -0.0600021 0 0 0 0.00835904 
62 1 1 -0.0132036 0.0191304 0.0676558 0 0 0 -0.0546374 -0.0723104 -0.526956 -0.00783455 -0.00239711 -0.0424426 -0.65933 8.15668 4.42163 0.00835904 
263 1 1 0.00682569 0.0193914 0.0692129 0 0 0 0 0 -0.652316 0 0 -0.0146489 0 0 0 0.0052244 
338 1 1 0.0444771 0.0182208 0.0652589 0 0 0 -0.0336344 0.0521902 -0.579067 0 0 -0.0146489 -15.6983 -54.378 6.80018 0.0052244 
266 1 1 0.0146966 0.0261042 0.0676824 0 0 0 0.0182548 -0.0156634 -0.644701 -0.00324706 0.00255832 -0.0146972 1.95035 2.53142 0.53066 0.0052244 
198 1 1 -0.0260073 0.0335646 0.0705974 0 0 0 -0.00241477 0.00054522 -0.649375 -0.000120124 0.000400424 -0.0147745 1.25946 0.6761 0.908138 0.0052244 
35 1 1 -0.0131858 0.03745 0.0667429 0 0 0 -0.0476871 0.0218749 -0.566608 0 0 -0.0600021 -10.0713 5.61517 -6.77005 0.00835904 
46 1 1 0.00400705 0.0344712 0.067365 0 0 0 0.0107009 -0.00638069 -0.598813 0.00324706 -0.00255832 -0.0599539 3.62091 1.58803 -0.607989 0.00835904 
154 1 1 0.027479 0.0388057 0.0642099 0 0 0 0 0 -0.652316 0 0 -0.0146489 0 0 0 0.0052244 
174 1 1 -0.0258085 0.0417895 0.0641662 0 0 0 -0.0432599 0.0301762 -0.624627 0.000120124 -0.000400424 -0.0145234 -5.04613 -13.9603 7.70039 0.0052244 
252 1 1 -0.0341074 -0.0434334 0.0744895 0 0 0 0 0 -0.652316 0 0 -0.0146489 0 0 0 0.0052244 
188 1 1 -0.0268674 -0.0323019 0.075308 0 0 0 -0.00491964 0.00485544 -0.650369 -0.000510254 0.000503595 -0.014447 3.32775e-13 3.40123e-13 -7.35056e-15 0.0052244 
165 1 1 0.0362744 -0.0355914 0.0754657 0 0 0 0 0 -0.652316 0 0 -0.0146489 0 0 0 0.0052244 
230 1 1 -0.0418354 -0.0281007 0.0718036 0 0 0 0 0 -0.652316 0 0 -0.0146489 0 0 0 0.0052244 
44 1 1 0.00014243 -0.0281137 0.0777786 0 0 0 -0.00154398 -0.000396934 -0.653055 -0.000651329 -0.000167447 -0.060314 7.5795e-15 -3.13513e-14 1.00343e-15 0.00835904 
143 1 1 0.0261532 -0.0307783 0.0754569 0 0 0 0.00111445 0.00142822 -0.649393 0.000139144 0.000178318 -0.0142841 2.23628e-13 -1.95138e-13 1.00859e-14 0.0052244 
285 1 1 -0.0447802 -0.0171348 0.0760822 0 0 0 0.00343334 0 -0.647397 0.00025163 0 -0.0145231 0 2.38562 0 0.0052244 
170 1 1 0.0287837 -0.0180778 0.0795033 0 0 0 0.00190063 -0.00410529 -0.648244 0.000575718 -0.00265706 -0.0140341 0.00787065 0.00111548 -0.00254923 0.0052244 
169 1 1 0.0440342 -0.0175274 0.0783099 0 0 0 0 0 -0.652316 0 0 -0.0146489 0 0 0 0.0052244 
196 1 1 -0.0200099 -0.00674635 0.0743598 0 0 0 -0.000222609 5.14615e-05 -0.652218 -0.00202797 0.000625752 -0.0141049 -0.0267292 -0.0621147 -0.0281921 0.0052244 
223 1 1 -0.0110076 -0.0115921 0.0765011 0 0 0 -0.00239251 5.49774e-05 -0.650169 0.00150669 -0.000512194 -0.014949 -0.0241404 -0.0560987 -0.0254616 0.0052244 
185 1 1 0.0138686 -0.0105482 0.0766981 0 0 0 0 0 -0.652316 0 0 -0.0146489 0 0 0 0.0052244 
111 1 1 -0.0343607 -0.000968929 0.0761326 0 0 0 0 0 -0.652316 0 0 -0.0600021 0 0 0 0.00835904 
123 1 1 0.0241772 0.00333195 0.0732769 0 0 0 -0.104883 -0.0642105 -0.619767 0 0 -0.0600021 7.6598 -13.2423 -1.39869 0.00835904 