ITEM: TIMESTEP
61950
ITEM: NUMBER OF ATOMS
338
ITEM: BOX BOUNDS mm mm mm
-0.05 0.05
-0.05 0.05
0 0.15
ITEM: ATOMS id type type x y z ix iy iz vx vy vz fx fy fz omegax omegay omegaz radius 
131 1 1 -0.0257481 -0.0400546 0.00560326 0 0 0 1.19832e-06 2.05632e-06 -1.59788e-06 4.44308e-06 1.20303e-05 1.38209e-05 1.10162e-05 0.000114958 -0.000120191 0.00694698 
319 1 1 -0.0146874 -0.0445409 0.006053 0 0 0 7.4089e-07 8.61216e-07 -1.24349e-06 1.58721e-06 5.35538e-06 8.29695e-06 -4.49826e-05 -4.29321e-05 -0.000142967 0.00694698 
243 1 1 -0.00279117 -0.043873 0.00610439 0 0 0 1.20416e-06 1.3203e-06 -5.05256e-07 -8.36158e-07 4.18745e-06 6.07729e-06 -0.000159798 7.87821e-05 6.74597e-05 0.00694698 
260 1 1 0.0252546 -0.0438307 0.00594049 0 0 0 1.55107e-06 9.30953e-07 -1.0081e-06 -2.30707e-06 6.20968e-06 6.95658e-06 -0.000151473 4.29493e-05 -0.000142028 0.00694698 
78 1 1 0.0413085 -0.0407811 0.00927581 0 0 0 1.38606e-06 -4.22981e-10 -7.05664e-07 -3.93456e-06 1.33306e-05 1.61786e-05 -1.0151e-05 -8.59263e-06 -0.00011754 0.0111152 
74 1 1 -0.040828 -0.0367696 0.0095971 0 0 0 1.52493e-06 1.84482e-06 -1.33652e-08 3.18806e-05 4.23591e-05 4.07328e-05 -0.00011592 7.5032e-05 0.000135009 0.0111152 
296 1 1 -0.0274829 -0.0274567 0.00612189 0 0 0 1.72108e-06 3.44443e-06 -2.74593e-06 6.60437e-06 1.38407e-05 1.42903e-05 -0.000183317 0.000389509 6.85062e-05 0.00694698 
173 1 1 -0.0155729 -0.0319598 0.00557449 0 0 0 2.65544e-06 3.20422e-06 -3.54958e-06 4.82705e-06 1.21954e-05 1.68219e-05 -0.000414436 -1.51153e-05 2.25816e-06 0.00694698 
275 1 1 -0.00359021 -0.0297747 0.00572446 0 0 0 3.70169e-06 4.47619e-06 -2.77889e-06 3.18873e-06 1.61931e-05 1.65237e-05 -0.00082742 0.000270529 -0.000155026 0.00694698 
60 1 1 0.0105837 -0.0360376 0.00947774 0 0 0 3.59941e-06 3.24289e-06 -2.79797e-06 -5.79816e-06 4.79368e-05 7.28319e-05 -0.000167367 9.10269e-05 -0.000108235 0.0111152 
102 1 1 -0.0405428 -0.0169477 0.00905848 0 0 0 3.28153e-07 2.37167e-06 -1.8786e-06 2.22382e-05 5.23427e-05 2.66964e-05 -0.000141214 -3.71446e-06 6.02074e-05 0.0111152 
328 1 1 -0.0254333 -0.01519 0.00543683 0 0 0 2.19765e-06 4.72559e-06 -1.61462e-06 6.75454e-06 1.5888e-05 4.55294e-06 -0.000261817 0.0001942 0.000180427 0.00694698 
40 1 1 -0.0106765 -0.0158183 0.0106462 0 0 0 6.63439e-06 6.74215e-06 -5.7662e-06 2.26041e-05 7.66206e-05 0.000143223 2.07911e-05 0.000302473 -5.69887e-05 0.0111152 
279 1 1 0.00440773 -0.0207351 0.0109054 0 0 0 7.48137e-06 6.59391e-06 -4.02229e-06 4.08284e-06 2.02101e-05 3.9055e-05 0.000290352 -0.000691603 -0.000261355 0.00694698 
267 1 1 0.0155005 -0.0199622 0.00561742 0 0 0 5.77873e-06 3.63532e-06 -1.70308e-06 -2.64674e-07 1.65251e-05 2.39424e-05 -0.000117318 0.000685742 -0.000248616 0.00694698 
144 1 1 0.0430495 -0.0248667 0.00596798 0 0 0 2.89646e-06 5.50295e-07 -6.70173e-07 3.73466e-07 4.82265e-06 7.47017e-06 8.37026e-05 0.000254231 8.58849e-05 0.00694698 
202 1 1 0.0452017 -0.0129601 0.00612949 0 0 0 2.36301e-06 1.47046e-06 -1.10271e-06 1.94468e-07 5.25464e-06 4.89044e-06 -0.000361524 -1.86469e-05 -0.000213541 0.00694698 
257 1 1 -0.0442073 -0.00104702 0.00624945 0 0 0 1.27125e-06 1.39e-06 1.43726e-07 -1.4386e-06 3.72035e-07 6.02623e-06 0.000209164 -4.77943e-05 2.07097e-05 0.00694698 
274 1 1 -0.0220225 -0.00377882 0.00775189 0 0 0 5.52885e-06 8.07384e-06 6.91384e-07 1.2581e-06 1.44396e-05 5.93077e-05 0.000725415 0.000568711 -0.000190015 0.00694698 
50 1 1 0.0305736 -0.00918802 0.00973541 0 0 0 6.47179e-06 3.87582e-06 -1.27651e-06 9.95463e-06 3.9119e-05 8.23615e-05 -7.4875e-05 0.000283584 -0.00010064 0.0111152 
232 1 1 -0.0434387 0.0118756 0.00626165 0 0 0 2.18275e-06 1.64837e-06 6.58463e-07 4.36925e-06 -4.33979e-06 1.72894e-05 -7.56828e-05 0.000440791 -1.18424e-05 0.00694698 
268 1 1 -0.0326769 0.00368231 0.00609408 0 0 0 3.46136e-06 6.42542e-06 2.08258e-06 1.10843e-06 4.3251e-06 4.98555e-05 -0.000960496 -0.000196394 0.000488491 0.00694698 
171 1 1 -0.021197 0.00798667 0.00823463 0 0 0 7.83441e-06 9.71509e-06 9.92803e-06 1.12216e-05 1.15133e-05 0.000100784 0.000733758 -0.000163267 -7.42843e-05 0.00694698 
164 1 1 0.0205999 0.00173767 0.00544623 0 0 0 6.22503e-06 4.21072e-06 7.22932e-09 3.43362e-06 1.09634e-05 2.82072e-05 -0.000470329 0.000914748 -7.5313e-05 0.00694698 
297 1 1 -0.0253906 0.019586 0.00549863 0 0 0 8.65099e-06 7.61026e-06 9.23289e-06 1.34545e-05 3.84965e-06 5.95532e-05 -0.00107652 0.000840502 -0.000600349 0.00694698 
222 1 1 -0.0108508 0.0145911 0.00545566 0 0 0 7.68576e-06 6.13663e-06 8.0465e-06 9.81652e-06 7.4978e-06 6.22521e-05 -0.000780493 0.000874732 -0.000211418 0.00694698 
290 1 1 -0.000799308 0.0214674 0.00523783 0 0 0 5.86022e-06 3.07068e-06 4.31598e-06 9.36145e-07 -5.59743e-07 3.61201e-05 -0.000318503 0.000313902 0.000378427 0.00694698 
98 1 1 0.0122233 0.0135227 0.00979349 0 0 0 9.39205e-06 5.97401e-06 4.65205e-06 2.75181e-05 5.76821e-05 0.000222044 -0.000251183 0.000710846 -4.0945e-06 0.0111152 
316 1 1 0.0321802 0.019578 0.00502882 0 0 0 2.97432e-06 2.97713e-06 2.95312e-06 -3.9067e-06 3.33957e-06 1.13603e-05 -0.00020957 0.000338502 -7.04892e-05 0.00694698 
162 1 1 0.0446349 0.0202023 0.00544623 0 0 0 1.71279e-06 3.29561e-06 2.00994e-06 -8.07444e-07 5.17396e-06 9.6739e-06 -0.000943247 0.00027511 -0.000210614 0.00694698 
294 1 1 -0.0439424 0.0252727 0.00613939 0 0 0 7.33021e-07 1.03874e-06 1.27873e-07 8.51126e-06 -7.47182e-06 1.17027e-05 -0.000125881 -5.1136e-06 0.000111892 0.00694698 
175 1 1 -0.0327496 0.0313742 0.00614203 0 0 0 2.57927e-06 -2.54689e-06 1.76382e-06 7.53822e-06 -1.74866e-05 2.439e-05 0.000580369 0.000345475 -0.000519502 0.00694698 
255 1 1 -0.0148477 0.0261367 0.00587595 0 0 0 6.29696e-06 4.44187e-06 2.94109e-06 6.1346e-06 3.23568e-06 3.61371e-05 -0.000666844 0.000591916 0.000649292 0.00694698 
324 1 1 -0.00330543 0.0326855 0.00566929 0 0 0 2.22908e-06 3.17376e-06 1.29694e-06 7.39138e-07 6.27454e-06 1.08932e-05 -0.000265485 -0.000337514 4.85059e-05 0.00694698 
161 1 1 0.00824506 0.0320298 0.0064488 0 0 0 3.61903e-06 3.74903e-06 5.45183e-06 -4.68698e-06 1.6308e-05 2.95322e-05 -0.00105266 0.000384256 -0.000172643 0.00694698 
77 1 1 0.0226325 0.0295981 0.012343 0 0 0 5.93674e-06 2.50335e-06 6.01315e-06 -2.84626e-05 8.86237e-06 0.000143002 0.000328168 -0.000132418 -3.33002e-05 0.0111152 
155 1 1 0.0376085 0.0311764 0.00564481 0 0 0 2.84003e-06 2.63784e-06 2.88532e-06 -4.08374e-06 9.28827e-07 1.50284e-05 0.000123064 0.000438649 0.000133555 0.00694698 
321 1 1 -0.04402 0.0437755 0.0062938 0 0 0 1.06812e-06 -2.48935e-07 1.40844e-06 5.32251e-06 -2.32222e-06 8.4889e-06 -0.000178896 9.21519e-06 4.68091e-05 0.00694698 
207 1 1 -0.0314325 0.0439672 0.0063741 0 0 0 1.69807e-06 1.97139e-07 9.20057e-07 2.22323e-06 -2.52636e-06 1.29977e-05 -0.000236551 0.00024414 0.000328824 0.00694698 
38 1 1 -0.0153313 0.0415941 0.00979059 0 0 0 1.37297e-06 3.04672e-06 -1.16466e-06 -8.76474e-07 5.48334e-06 3.82774e-05 -0.000108218 2.30499e-05 1.88373e-05 0.0111152 
149 1 1 0.0120644 0.043872 0.00543326 0 0 0 1.74358e-06 -3.66401e-09 8.36703e-07 6.35856e-07 6.36268e-08 4.73301e-06 0.000183751 9.38137e-05 5.84731e-05 0.00694698 
237 1 1 0.0011871 0.0437539 0.0121483 0 0 0 6.0129e-07 1.34356e-06 2.94625e-07 -1.49782e-06 4.72701e-06 -2.54207e-07 -4.96917e-05 -0.000316221 -0.000193448 0.00694698 
249 1 1 0.0277053 0.0441438 0.0061163 0 0 0 2.44719e-06 6.67894e-07 3.58758e-06 -5.04033e-07 -2.78489e-06 1.97679e-05 -0.000349958 0.000335291 0.000236202 0.00694698 
289 1 1 0.0443721 0.0422256 0.00592202 0 0 0 1.42397e-06 5.92165e-07 2.97797e-06 -2.48205e-06 -5.49823e-06 1.30459e-05 0.000132817 0.000430738 -8.22145e-05 0.00694698 
331 1 1 -0.0432693 -0.0455642 0.0218634 0 0 0 1.92594e-06 1.46248e-06 2.23018e-07 5.67905e-06 5.79662e-06 5.78298e-06 -2.04758e-05 -0.000145251 -0.000113745 0.00694698 
299 1 1 -0.0246085 -0.0451872 0.0168094 0 0 0 9.02841e-07 3.69604e-06 -3.01071e-06 3.29185e-06 1.35492e-05 1.96614e-05 -0.000683907 4.05331e-05 -0.000119531 0.00694698 
225 1 1 -0.0115498 -0.0442709 0.0185951 0 0 0 1.0654e-06 2.02396e-06 -4.9784e-06 2.20383e-06 1.10409e-05 1.95516e-05 -0.000458335 0.000176325 -0.000146198 0.00694698 
242 1 1 0.00106185 -0.0446807 0.0196824 0 0 0 1.84958e-06 2.96226e-06 -3.19783e-06 1.01133e-06 6.36486e-06 1.65996e-05 -0.000481687 -0.000472359 -0.000108976 0.00694698 
130 1 1 0.0208357 -0.0442058 0.0182027 0 0 0 1.91381e-06 1.77584e-06 -1.47544e-06 -4.54043e-07 1.65991e-06 8.76572e-06 -0.000105987 -3.57189e-05 -0.000349968 0.00694698 
167 1 1 0.0319451 -0.0442251 0.0228862 0 0 0 1.29683e-06 2.93497e-07 -1.98606e-06 -7.50937e-07 1.45643e-06 6.27734e-06 -0.000169278 2.20387e-06 -5.73652e-05 0.00694698 
136 1 1 0.0442903 -0.0447089 0.0241887 0 0 0 7.85179e-07 1.02199e-07 -9.88392e-07 -1.17474e-06 2.01025e-06 3.47634e-06 -0.000125 -5.83241e-05 -8.68961e-05 0.00694698 
179 1 1 -0.0345746 -0.0262027 0.0213893 0 0 0 4.63326e-06 9.23292e-06 -4.68099e-06 1.21492e-05 2.5433e-05 2.50145e-05 -0.000734597 0.0010724 0.000473546 0.00694698 
7 1 1 -0.0200353 -0.0304271 0.0211167 0 0 0 4.31685e-06 7.81364e-06 -9.37687e-06 4.1468e-05 8.48032e-05 0.000163288 -9.12073e-05 -4.83925e-05 -0.000385793 0.0111152 
104 1 1 -0.000112757 -0.0285696 0.0247238 0 0 0 4.66138e-06 5.65045e-06 -8.40869e-06 3.1218e-05 4.86598e-05 0.000176551 6.38193e-05 -0.000184536 -4.78845e-05 0.0111152 
67 1 1 0.0278423 -0.0280453 0.0126282 0 0 0 4.77579e-06 3.01982e-06 -2.80608e-06 -5.92105e-07 4.63759e-05 9.46367e-05 -7.94379e-05 -0.000161553 -0.000202699 0.0111152 
128 1 1 -0.0450313 -0.0217266 0.0238335 0 0 0 1.28683e-06 5.01587e-06 -2.22248e-06 8.08588e-06 1.01714e-05 1.07376e-05 -0.000736116 4.63104e-05 0.000559788 0.00694698 
278 1 1 0.0331688 -0.0161931 0.0241361 0 0 0 6.97187e-06 3.38233e-06 -1.25224e-06 6.45575e-07 1.22883e-05 3.57288e-05 0.000139884 -0.000153546 -0.000366074 0.00694698 
146 1 1 -0.044873 -0.00919979 0.022471 0 0 0 2.78272e-06 5.43183e-06 8.91186e-08 4.88907e-06 -3.27015e-06 4.57491e-05 0.000756169 6.5828e-05 -0.000155956 0.00694698 
96 1 1 0.0119172 -0.00721235 0.0161321 0 0 0 1.10891e-05 7.35379e-06 1.78868e-06 6.25804e-05 6.50208e-05 0.000269229 -6.80639e-06 7.80292e-05 -0.00014808 0.0111152 
183 1 1 0.0447601 -0.00703516 0.0175419 0 0 0 1.62515e-06 3.2042e-06 5.50149e-07 -4.12279e-06 6.85038e-06 1.47522e-05 0.000552846 -0.000502993 -0.000255461 0.00694698 
25 1 1 -0.0377542 0.00483183 0.022389 0 0 0 1.13442e-05 1.28448e-05 3.48622e-06 9.81878e-05 2.61228e-05 0.000413911 0.000165599 0.000830789 -0.000150727 0.0111152 
17 1 1 -0.00526009 0.00256306 0.014408 0 0 0 1.20757e-05 8.08579e-06 6.03789e-06 6.18753e-05 7.19035e-05 0.000395928 0.00073266 9.62264e-05 -8.83143e-05 0.0111152 
94 1 1 0.0384742 0.00842692 0.0134968 0 0 0 2.0298e-06 5.53979e-06 5.79165e-06 -4.76704e-05 5.23247e-05 0.000126477 0.000195906 -0.0010438 0.000578787 0.0111152 
300 1 1 -0.0447062 0.0189524 0.0170509 0 0 0 5.44731e-06 6.33468e-06 2.83158e-06 1.23242e-05 -3.21423e-06 3.57165e-05 -0.000601055 -1.50007e-05 0.000903324 0.00694698 
273 1 1 -0.0327467 0.0189504 0.0155433 0 0 0 1.27088e-05 1.21155e-05 1.01797e-05 2.37414e-05 -2.83698e-06 8.22661e-05 0.00113201 -0.000706727 -0.000383696 0.00694698 
28 1 1 -0.0168118 0.0183632 0.0204916 0 0 0 1.65245e-05 1.10317e-05 1.37655e-05 0.000115259 6.62474e-05 0.000436948 -7.63295e-05 0.000274713 -0.000242535 0.0111152 
286 1 1 -0.00173316 0.0186073 0.0168811 0 0 0 1.41244e-05 7.53755e-06 1.12714e-05 1.94664e-05 1.79577e-05 8.1964e-05 -0.000922138 0.000268399 0.000177084 0.00694698 
305 1 1 -0.0436936 0.0348177 0.0156113 0 0 0 1.92332e-06 -3.23266e-06 2.07974e-06 2.53909e-06 -1.42914e-05 2.51452e-05 0.000674038 -0.000118611 -0.000438342 0.00694698 
23 1 1 -0.0279413 0.0337349 0.0221095 0 0 0 6.88793e-06 8.63641e-06 4.25119e-06 5.39203e-05 2.14006e-05 0.000229531 -0.00136009 0.000146159 0.00119565 0.0111152 
320 1 1 0.00379661 0.0296091 0.018379 0 0 0 9.54004e-06 3.05064e-06 1.33252e-05 -1.36651e-06 7.27676e-06 6.25407e-05 0.00187964 0.000248775 0.000412622 0.00694698 
284 1 1 0.0446347 0.0273726 0.015737 0 0 0 2.64218e-06 1.19128e-06 1.82002e-06 1.90666e-06 -7.49841e-06 9.48367e-06 0.00110611 4.11862e-05 -0.000105334 0.00694698 
239 1 1 0.0187751 0.0448273 0.0154887 0 0 0 2.05481e-06 -4.38041e-07 4.9462e-06 -9.36743e-06 -7.25191e-06 2.91531e-05 -0.000286197 -0.000107499 0.000619928 0.00694698 
61 1 1 0.037083 0.0409697 0.0204872 0 0 0 2.12017e-06 8.36089e-07 7.687e-06 -2.36528e-05 -5.26375e-05 0.000121185 -0.000251355 -0.000224436 0.000171968 0.0111152 
224 1 1 -0.0437842 -0.0444768 0.0343523 0 0 0 3.37514e-07 1.37647e-06 -3.7754e-08 1.9868e-06 4.02232e-07 5.87296e-06 -0.000109589 -6.17556e-05 2.52275e-05 0.00694698 
256 1 1 -0.0327608 -0.0400947 0.0257175 0 0 0 3.80124e-06 7.86674e-06 -3.90563e-06 3.48696e-06 1.15846e-05 2.61124e-05 -0.000611078 0.000801378 0.000755549 0.00694698 
42 1 1 -0.0120031 -0.0408869 0.0355063 0 0 0 1.00818e-06 4.91711e-06 -9.95429e-06 1.29678e-05 2.75294e-05 0.000138615 -0.000439846 -0.00013793 -6.30053e-05 0.0111152 
271 1 1 0.0313717 -0.040779 0.0343154 0 0 0 1.6884e-06 -1.34177e-08 -4.21241e-06 -8.88954e-07 3.52485e-06 1.47917e-05 0.000151536 -7.05994e-05 9.86582e-05 0.00694698 
125 1 1 0.0438559 -0.0440726 0.0371343 0 0 0 5.77578e-08 5.58983e-07 -1.43431e-06 1.09176e-06 -8.62859e-07 4.25667e-06 -0.000144865 -0.000235145 -3.99661e-05 0.00694698 
180 1 1 -0.0442349 -0.0338853 0.0265895 0 0 0 1.99598e-06 2.59239e-06 -7.96189e-07 6.63703e-06 7.61729e-06 1.16998e-05 0.00033442 -0.00028141 1.32579e-05 0.00694698 
120 1 1 0.0409684 -0.0296039 0.0290176 0 0 0 2.33555e-06 1.02496e-06 -1.95771e-06 -3.34134e-06 1.70146e-05 6.8463e-05 9.10207e-05 -0.000113971 -0.000105592 0.0111152 
178 1 1 -0.012639 -0.0206732 0.032126 0 0 0 6.70029e-06 1.08677e-05 -1.36485e-05 1.60314e-05 6.83429e-06 7.5707e-05 -0.000840709 9.66576e-05 -0.000431838 0.00694698 
51 1 1 0.0185589 -0.0226609 0.0301882 0 0 0 6.15544e-06 4.67353e-06 -4.73116e-06 1.99311e-05 2.64339e-05 0.00020299 0.000268451 -8.56278e-05 -0.000256099 0.0111152 
134 1 1 0.0440827 -0.0143844 0.0325108 0 0 0 1.64941e-06 1.49483e-06 1.39991e-06 -5.55167e-06 2.63465e-06 2.36867e-05 0.000202523 0.00016555 1.2315e-05 0.00694698 
19 1 1 -0.0263969 -0.0120069 0.0273708 0 0 0 9.93557e-06 1.50645e-05 -9.38463e-06 0.000131626 9.35433e-05 0.000393972 0.000571793 -0.000132708 -0.000254078 0.0111152 
310 1 1 -0.0104365 -0.00898783 0.0299636 0 0 0 1.19904e-05 1.22807e-05 -4.38338e-06 2.71514e-05 6.07315e-06 0.000129776 0.00247606 -0.000101118 -0.00041238 0.00694698 
258 1 1 0.000949935 -0.012339 0.0275496 0 0 0 1.01244e-05 9.3692e-06 -3.81263e-06 2.09496e-05 9.20048e-06 7.4961e-05 0.000164551 -0.000632484 -0.000609208 0.00694698 
18 1 1 0.0121869 -0.004473 0.0369604 0 0 0 9.68817e-06 3.27406e-06 7.09857e-06 1.42814e-05 -5.00121e-05 0.000387833 0.00111086 -0.000381002 -0.0001379 0.0111152 
184 1 1 0.0277392 -0.00806878 0.0328956 0 0 0 6.81369e-06 3.59356e-06 5.3855e-06 -2.9243e-06 2.27138e-07 7.38064e-05 0.000850398 -3.46553e-05 -2.08177e-05 0.00694698 
112 1 1 -0.0179402 0.00468419 0.0351754 0 0 0 1.75004e-05 1.24193e-05 1.04499e-05 0.000141329 4.12427e-06 0.000641759 0.00039615 -0.000241935 -0.000243475 0.0111152 
160 1 1 -0.00258795 0.000661756 0.0310722 0 0 0 1.4492e-05 8.53649e-06 9.83789e-06 2.16728e-05 -5.55053e-07 0.000119973 -3.02879e-05 -3.35263e-05 -8.36474e-05 0.00694698 
55 1 1 0.0406908 0.00155576 0.0321766 0 0 0 9.93981e-07 2.73098e-06 8.4215e-06 -7.23532e-05 1.06683e-05 0.000184904 0.000379798 0.000675357 -4.01934e-05 0.0111152 
2 1 1 -0.0316935 0.0196551 0.0354847 0 0 0 1.72762e-05 1.13589e-05 1.17092e-05 0.000147797 4.5365e-05 0.000444434 0.000411611 -0.000236634 0.000189227 0.0111152 
100 1 1 0.00652127 0.0141766 0.0298279 0 0 0 1.57856e-05 9.07571e-06 2.05701e-05 4.0967e-05 3.05416e-05 0.000515181 0.000473052 -5.05232e-05 -0.000281278 0.0111152 
261 1 1 0.043399 0.0180072 0.0268078 0 0 0 -2.77741e-06 4.35895e-06 1.20278e-05 -3.23128e-05 8.29287e-06 4.47026e-05 0.000315593 0.00118629 -0.000368074 0.00694698 
246 1 1 -0.0443139 0.0262016 0.0275324 0 0 0 6.8129e-06 4.96168e-06 4.22896e-06 2.26445e-05 -8.21814e-07 4.47914e-05 7.72064e-05 0.000116458 0.000813789 0.00694698 
69 1 1 -0.00686328 0.0298272 0.0340231 0 0 0 1.84832e-05 5.20373e-06 2.75207e-05 5.13928e-05 -3.05795e-05 0.000709474 0.000145813 -0.000121108 0.000281096 0.0111152 
108 1 1 0.0262495 0.0288961 0.0325397 0 0 0 5.16953e-06 1.51524e-06 1.50827e-05 -6.98852e-05 -4.71032e-05 0.000318688 -0.000138515 1.3048e-05 -5.47886e-05 0.0111152 
9 1 1 -0.0407958 0.0418491 0.032558 0 0 0 1.75169e-06 2.95464e-06 9.60362e-07 1.47944e-05 2.90686e-05 9.14152e-05 1.55465e-05 0.000176594 0.000260167 0.0111152 
323 1 1 -0.0070076 0.0443556 0.0261316 0 0 0 8.57238e-06 -2.04093e-06 1.56748e-05 -1.50105e-05 -1.93095e-05 0.000118847 -0.00249469 -0.000127971 0.00113711 0.00694698 
16 1 1 0.0103834 0.0409506 0.0288255 0 0 0 6.8777e-06 3.22052e-07 1.52568e-05 -3.6301e-05 -6.29975e-05 0.000300595 -0.000920346 0.000560603 0.00020249 0.0111152 
329 1 1 -0.0243337 -0.0448883 0.0452014 0 0 0 -1.01056e-06 4.48643e-06 -8.3499e-06 1.38865e-06 -2.09843e-06 2.1471e-05 -0.000560307 -7.13608e-05 2.01066e-05 0.00694698 
168 1 1 0.00170639 -0.0450129 0.040199 0 0 0 2.28174e-07 3.63778e-06 -4.0637e-06 1.54459e-06 -3.4838e-06 1.91485e-05 -0.000678843 -0.000334989 -0.00017948 0.00694698 
3 1 1 0.0165061 -0.0408746 0.039313 0 0 0 1.81379e-06 1.12002e-06 -5.15227e-06 1.81185e-06 2.53022e-06 9.29609e-05 -0.000307219 2.32855e-05 -0.000184674 0.0111152 
283 1 1 0.0310352 -0.0446314 0.0458371 0 0 0 1.54173e-06 -5.94255e-07 -3.90465e-06 1.32444e-06 -2.30279e-06 1.26398e-05 -0.000327762 0.000140786 -0.000282494 0.00694698 
211 1 1 -0.0439276 -0.0331951 0.0391794 0 0 0 4.48251e-07 6.63769e-06 -7.18128e-06 4.49472e-06 6.92899e-07 1.75631e-05 -0.00120539 0.000388319 0.000161076 0.00694698 
93 1 1 -0.0271457 -0.0292817 0.0419053 0 0 0 1.9832e-06 9.08434e-06 -1.72081e-05 2.20642e-05 4.1116e-06 0.000244419 -0.000204107 -7.51668e-05 -0.000212146 0.0111152 
191 1 1 0.00287896 -0.0323182 0.0407477 0 0 0 2.7234e-06 5.41989e-06 -1.11788e-05 2.24679e-06 -1.73706e-06 5.15418e-05 -0.000520718 -0.000217485 -0.000368881 0.00694698 
105 1 1 0.0303968 -0.0280612 0.0465898 0 0 0 3.04681e-06 -5.74141e-07 -4.17823e-06 7.92777e-06 -2.88825e-05 0.000155323 0.000260611 -0.000155629 -5.92261e-05 0.0111152 
66 1 1 -0.041682 -0.0169767 0.0389235 0 0 0 4.48896e-06 8.26634e-06 -7.93222e-06 2.97053e-05 1.05531e-05 0.000160466 0.00058801 0.000626011 0.000175999 0.0111152 
43 1 1 -0.00882968 -0.0242901 0.0478754 0 0 0 2.04743e-06 9.0914e-06 -1.40389e-05 1.64093e-05 -8.56351e-05 0.000398929 0.000436211 -0.000220013 -0.000222067 0.0111152 
259 1 1 0.0241568 -0.0131299 0.0440615 0 0 0 4.68836e-06 8.34062e-07 1.3043e-06 -3.70063e-06 -1.07361e-05 7.36573e-05 0.000403606 -0.000420155 0.00015211 0.00694698 
336 1 1 -0.0246139 -0.0117327 0.0453173 0 0 0 4.91671e-06 2.04765e-05 -3.50562e-05 1.92323e-05 1.78434e-05 0.000123868 -0.00116307 -0.00178327 8.48074e-05 0.00694698 
245 1 1 -0.000273874 -0.0118499 0.0427905 0 0 0 6.34081e-06 1.01143e-05 -1.59795e-06 -5.60429e-06 -8.93699e-06 0.00012217 0.00115462 0.000608464 -0.00141322 0.00694698 
303 1 1 0.0269175 -0.00136569 0.0493328 0 0 0 5.62089e-06 3.34928e-06 1.83832e-05 -1.15251e-05 -1.63984e-05 0.000117918 0.00144586 0.000714751 -0.000687251 0.00694698 
5 1 1 0.0405047 -0.0106682 0.0488248 0 0 0 1.31451e-06 -2.47781e-07 4.2505e-06 -2.08415e-05 -1.84835e-05 0.000177311 0.000281368 -0.000213434 3.61925e-05 0.0111152 
107 1 1 -0.0382431 0.00195705 0.0431278 0 0 0 1.26777e-05 8.4361e-06 1.61032e-06 0.000138309 -5.00869e-07 0.000395755 0.000435789 -0.000510835 -0.000343959 0.0111152 
95 1 1 0.02393 0.0111489 0.0391396 0 0 0 6.77803e-06 4.98646e-06 2.33637e-05 -6.44645e-05 -3.69239e-05 0.000540683 -0.000515462 1.1253e-05 -3.5171e-05 0.0111152 
318 1 1 0.044365 0.0047285 0.0485669 0 0 0 1.77775e-06 -4.34989e-09 8.18313e-06 2.8302e-06 -3.30471e-06 3.52152e-05 0.000331218 0.000299917 0.000168082 0.00694698 
208 1 1 -0.0448666 0.0168567 0.0449705 0 0 0 9.7027e-06 4.44723e-06 5.66541e-06 1.04808e-05 5.30369e-07 6.20541e-05 0.000760985 -0.000765993 0.000526442 0.00694698 
282 1 1 -0.0182462 0.018533 0.0445891 0 0 0 1.85089e-05 8.1334e-06 2.07618e-05 1.74022e-05 -9.93922e-06 0.000164282 0.000705182 -0.000891832 0.000618414 0.00694698 
4 1 1 -0.00366644 0.0146154 0.048221 0 0 0 1.85694e-05 1.10687e-05 3.39737e-05 1.47078e-05 -0.000117584 0.000768233 0.000349858 -0.000491796 -0.000338556 0.0111152 
58 1 1 0.0410775 0.0200219 0.043561 0 0 0 -2.45251e-07 1.25215e-06 1.77882e-05 -4.03777e-05 -2.24407e-05 0.000243717 0.000236577 -6.72825e-05 9.64392e-05 0.0111152 
199 1 1 -0.0449272 0.0285898 0.0409786 0 0 0 7.23537e-06 4.78849e-06 6.40072e-06 6.78231e-06 1.83575e-06 4.56325e-05 -0.000748524 -0.000440624 0.000754067 0.00694698 
192 1 1 -0.0256316 0.0271739 0.0481261 0 0 0 2.01102e-05 -2.7441e-07 2.07249e-05 1.76253e-05 -9.54664e-06 0.000124459 0.00108262 -0.000777485 -0.00080913 0.00694698 
292 1 1 -0.0146967 0.032469 0.0485797 0 0 0 2.52908e-05 2.62414e-06 3.06457e-05 1.75374e-05 -2.63458e-05 0.000175134 -0.00170512 -0.00023605 0.00144215 0.00694698 
73 1 1 0.0108552 0.0280466 0.0457833 0 0 0 1.93778e-05 4.26153e-06 3.05261e-05 2.54009e-06 -3.55226e-05 0.000558921 -5.93514e-05 0.00152288 -0.000194343 0.0111152 
327 1 1 -0.0435039 0.0432739 0.0497711 0 0 0 3.49185e-06 -4.31776e-06 5.31107e-06 4.11065e-06 3.75466e-06 1.60105e-06 0.000361859 -0.00074371 -0.000571326 0.00694698 
126 1 1 -0.0115806 0.044294 0.0464579 0 0 0 9.5183e-06 -2.34444e-07 1.1905e-05 2.32694e-05 -2.0337e-05 0.000101931 -0.00212796 -0.0018917 0.00116227 0.00694698 
248 1 1 0.000186959 0.0432518 0.0425157 0 0 0 1.22292e-05 -9.00266e-07 2.24855e-05 3.08442e-05 -9.9521e-06 0.000116503 0.000435883 0.000410419 0.000279271 0.00694698 
229 1 1 0.0125664 0.0445193 0.0454159 0 0 0 1.29224e-05 2.6911e-06 1.26176e-05 8.36568e-06 5.01619e-06 5.52058e-05 -0.000778649 0.000817732 0.00083272 0.00694698 
114 1 1 0.0401335 0.0408 0.040734 0 0 0 2.5251e-06 -1.48065e-06 1.41364e-05 -1.41314e-05 -2.78407e-05 0.000130004 1.57206e-05 0.00102363 0.000191969 0.0111152 
314 1 1 -0.0174739 -0.0445492 0.0555942 0 0 0 2.35328e-06 1.00811e-07 -1.18384e-05 -1.32749e-05 -4.73729e-06 3.31588e-05 -0.000559858 0.000646448 -0.000538125 0.00694698 
337 1 1 -0.00609996 -0.0408572 0.0515865 0 0 0 9.58612e-07 1.65586e-06 -1.95709e-05 -6.33665e-06 -1.28862e-05 4.48039e-05 0.00124717 0.000691548 0.000140273 0.00694698 
56 1 1 0.0068837 -0.0394003 0.0619726 0 0 0 2.83637e-08 -4.11578e-06 -1.83582e-05 -5.22601e-06 -6.74024e-05 0.000158275 -0.000146335 -0.000506552 -7.99807e-05 0.0111152 
265 1 1 0.0220177 -0.043724 0.0552628 0 0 0 6.6673e-07 -1.10548e-06 -4.77067e-06 6.61813e-07 -5.00111e-06 2.01591e-05 0.000219667 -0.00062516 0.000144048 0.00694698 
49 1 1 0.0406724 -0.0407584 0.0580765 0 0 0 1.98106e-07 -1.37991e-06 -3.29369e-06 1.22151e-05 -1.49002e-05 5.4305e-05 -1.13205e-05 -0.00025961 4.09538e-05 0.0111152 
84 1 1 -0.0411457 -0.032993 0.0553186 0 0 0 2.27929e-06 3.95299e-06 -1.34285e-05 -3.78912e-05 -5.48373e-05 0.000131232 0.00109601 0.000688137 0.000257597 0.0111152 
307 1 1 -0.0195837 -0.0324346 0.0571155 0 0 0 6.76088e-07 3.64717e-06 -1.89051e-05 -1.53196e-05 -2.63038e-05 7.05547e-05 0.000178544 -0.000117574 0.000753103 0.00694698 
326 1 1 0.0447956 -0.0254458 0.0534947 0 0 0 7.53737e-07 -1.38377e-06 -5.94339e-07 4.7999e-06 -5.02945e-06 1.94795e-05 0.000387571 -0.000228454 0.000163 0.00694698 
81 1 1 -0.0216684 -0.01704 0.0624319 0 0 0 -5.34275e-08 4.01739e-06 -1.1147e-05 3.08855e-06 -0.000228817 0.000557477 0.000934831 -0.000244896 -0.000435886 0.0111152 
52 1 1 0.0112853 -0.0221409 0.0507309 0 0 0 2.92139e-06 1.23538e-06 -9.63499e-06 1.0202e-05 -8.80599e-05 0.000303554 0.000518602 -0.000302167 -0.000102138 0.0111152 
332 1 1 0.026756 -0.0152036 0.0567084 0 0 0 1.31527e-06 -4.07537e-06 7.24141e-07 4.66895e-06 -2.56773e-05 6.28467e-05 0.000641862 3.06033e-05 5.87246e-05 0.00694698 
220 1 1 -0.043805 -0.00977095 0.054218 0 0 0 3.26903e-06 3.51243e-06 -3.22897e-06 9.31553e-06 -1.52373e-05 4.79456e-05 5.82161e-05 -0.000426367 0.000124885 0.00694698 
133 1 1 -0.0272081 -0.00283239 0.0559953 0 0 0 7.44605e-06 6.16452e-06 3.32673e-06 1.63611e-05 -3.72758e-05 0.000137973 0.000543869 -0.000545466 0.000492541 0.00694698 
24 1 1 -0.0102673 -0.00372081 0.0528005 0 0 0 8.34499e-06 1.13261e-05 8.59955e-06 3.76349e-05 -0.000143924 0.000742124 0.000926709 -0.000623417 -0.000150115 0.0111152 
240 1 1 0.0172585 -0.00749227 0.0553606 0 0 0 2.67004e-06 2.05653e-06 7.68474e-06 -6.95386e-06 -3.46515e-05 0.000136668 0.00172803 -0.000863657 -0.000617347 0.00694698 
236 1 1 -0.0236943 0.00828096 0.0507772 0 0 0 1.51449e-05 2.83255e-06 1.24115e-05 1.27092e-05 -1.25421e-05 0.000141164 0.00117026 -0.000246635 -0.000760233 0.00694698 
15 1 1 0.0136565 0.00817871 0.0563007 0 0 0 1.12119e-05 7.03858e-06 3.74211e-05 -3.2818e-05 -0.000147819 0.000751973 0.00152773 0.000354143 -0.000637862 0.0111152 
291 1 1 0.0437832 0.0122418 0.0588944 0 0 0 -5.31689e-06 -6.96057e-06 1.68371e-05 -2.44342e-06 -1.68464e-05 4.31362e-05 0.00160304 2.5422e-05 0.00117803 0.00694698 
335 1 1 -0.0343158 0.0161596 0.0526642 0 0 0 1.37905e-05 2.4235e-07 1.08903e-05 1.33652e-05 -9.71849e-06 0.000106631 0.000603301 -0.000453258 -0.000182669 0.00694698 
266 1 1 0.0217589 0.0233197 0.0586729 0 0 0 -2.72261e-06 2.6082e-06 5.61463e-05 -1.7979e-05 -1.5042e-05 0.000141831 -0.00150802 -0.00632941 0.001778 0.00694698 
298 1 1 0.0302846 0.0135353 0.0553187 0 0 0 1.08859e-05 -3.56186e-07 3.82728e-05 3.16893e-06 -2.08138e-05 0.000134288 0.00154388 0.00236702 -0.00130621 0.00694698 
262 1 1 -0.0377382 0.0287333 0.0508386 0 0 0 1.56539e-05 7.84995e-07 1.33465e-05 4.01178e-06 -1.16717e-05 7.14874e-05 0.00135445 -5.17521e-05 -0.000674598 0.00694698 
99 1 1 -0.00360812 0.0303682 0.0615072 0 0 0 1.42316e-05 -9.23899e-07 6.95588e-05 -7.56781e-05 -0.000136661 0.00076544 0.00219099 -0.00330394 -2.78552e-05 0.0111152 
122 1 1 -0.0274283 0.0409191 0.0558336 0 0 0 1.54707e-05 -2.36514e-06 1.25055e-05 -3.4279e-05 5.16411e-06 0.000208485 -0.000783275 0.000555898 0.00103767 0.0111152 
158 1 1 0.000206969 0.0448778 0.0561863 0 0 0 1.37728e-05 1.31153e-06 4.65059e-05 1.72435e-07 -1.94747e-05 0.000108155 -0.00708021 0.00137435 0.00230451 0.00694698 
47 1 1 0.0244974 0.0400921 0.0559318 0 0 0 -6.97639e-06 -5.97126e-06 3.68191e-05 -6.07099e-05 -1.15368e-05 0.000316507 -0.000329828 -0.0034622 -0.000627504 0.0111152 
203 1 1 0.0420083 0.0441913 0.0569424 0 0 0 -9.96916e-06 -6.62548e-06 2.2592e-05 -1.37502e-05 -8.13283e-06 3.15199e-05 -0.00176333 -0.00225334 -0.00194361 0.00694698 
6 1 1 -0.0273257 -0.0408019 0.0684914 0 0 0 -9.08603e-07 -1.52493e-06 -1.84653e-05 -8.85111e-05 -8.85272e-05 0.000186948 -0.000613368 -0.000814173 0.000377587 0.0111152 
190 1 1 -0.00862791 -0.0442093 0.0646034 0 0 0 1.59013e-06 2.46683e-06 -1.73978e-05 -4.13948e-06 -1.76115e-05 3.89184e-05 -0.00227097 -0.000122353 -0.000462179 0.00694698 
189 1 1 0.0268465 -0.0442003 0.0673438 0 0 0 -1.22351e-06 -1.99456e-06 -3.05289e-06 -1.82826e-07 -8.54986e-06 2.71743e-05 -0.000270934 0.000271281 0.000309087 0.00694698 
186 1 1 0.0437407 -0.0441968 0.0738313 0 0 0 -8.94774e-07 -4.04889e-06 -5.35951e-06 -1.44176e-06 2.08957e-06 1.3448e-05 -3.92151e-05 -0.00027246 -0.000104788 0.00694698 
313 1 1 -0.0118607 -0.0316738 0.0682093 0 0 0 5.66431e-07 1.43142e-06 -2.70128e-05 -5.6841e-05 -3.95396e-05 9.44839e-05 0.000762886 0.000770168 0.000267633 0.00694698 
227 1 1 0.0076639 -0.0253939 0.0722238 0 0 0 -6.29258e-06 -3.06757e-06 -1.98008e-05 -4.12057e-05 -5.84016e-05 9.58801e-05 0.000402567 -0.000776115 -0.000521498 0.00694698 
91 1 1 0.0235312 -0.0277778 0.0665881 0 0 0 -3.71172e-06 -6.10887e-06 -4.47301e-06 -1.02149e-05 -8.34206e-05 0.000222138 9.42763e-05 -0.000860278 -4.97431e-05 0.0111152 
247 1 1 0.0400879 -0.0264408 0.068086 0 0 0 -4.07336e-06 -5.87573e-06 2.14098e-06 -5.37129e-06 -1.4657e-06 4.06587e-05 0.000574869 -0.000106754 -1.3498e-05 0.00694698 
36 1 1 -0.0407301 -0.0173219 0.0691411 0 0 0 -2.24341e-07 3.12448e-07 -6.15492e-06 -7.21924e-05 -0.000130981 0.000241647 0.00046422 0.000265415 7.68195e-05 0.0111152 
137 1 1 -0.00226741 -0.0232153 0.0635621 0 0 0 -3.89232e-06 4.4106e-06 -2.10587e-05 -4.43905e-05 -5.5165e-05 0.000131478 0.000479252 -9.53752e-05 0.000632579 0.00694698 
276 1 1 0.0201772 -0.0125509 0.0722589 0 0 0 -1.51871e-05 -1.69148e-05 1.12651e-06 -2.62114e-05 -6.06709e-05 0.000128092 0.00107185 -0.00278732 0.000893959 0.00694698 
215 1 1 0.0333367 -0.0151385 0.0705856 0 0 0 -8.67295e-06 -1.01044e-05 1.41389e-05 -1.70961e-05 -2.11422e-05 9.0355e-05 0.0021729 -0.000351553 0.000608528 0.00694698 
217 1 1 0.0446141 -0.0151032 0.0644107 0 0 0 -1.36429e-06 -2.95445e-06 5.66225e-06 -1.65955e-06 -6.83479e-07 3.82791e-05 2.83862e-05 0.000558802 -0.000313119 0.00694698 
182 1 1 -0.0291258 -0.00430649 0.0735736 0 0 0 7.32675e-06 2.77863e-06 1.13182e-05 -4.12512e-05 -6.45464e-05 0.000136871 -0.000881755 -0.000312055 0.00110646 0.00694698 
10 1 1 0.00493199 -0.0079636 0.0666214 0 0 0 -1.22771e-06 -5.19387e-06 3.20793e-06 -9.31612e-05 -0.000280669 0.000718295 0.00253633 0.000287261 -0.00110596 0.0111152 
148 1 1 0.0445355 -0.00238305 0.0634357 0 0 0 -3.09764e-06 -5.32879e-06 2.06487e-05 -1.21683e-05 -1.69384e-05 7.5235e-05 0.00219293 0.00296409 0.00114579 0.00694698 
32 1 1 -0.039949 0.00415224 0.0635931 0 0 0 5.28786e-06 -1.5049e-06 2.98823e-06 4.86802e-06 -9.5435e-05 0.000331593 0.000539678 -0.0001703 -0.000263375 0.0111152 
197 1 1 -0.019298 0.00213562 0.0660101 0 0 0 1.17504e-05 4.6578e-06 2.62674e-05 -2.43321e-05 -7.81199e-05 0.000172747 0.00184126 0.00102647 -0.000727082 0.00694698 
115 1 1 -0.00374319 0.0105811 0.06873 0 0 0 1.03544e-05 -1.60675e-06 4.55238e-05 -0.00013347 -0.000259556 0.000794642 0.000197634 -0.000351769 -0.000261915 0.0111152 
87 1 1 0.0291357 0.000600443 0.0669643 0 0 0 -8.91287e-06 -1.13369e-05 3.78363e-05 -0.000108786 -0.000130672 0.000644795 0.00122866 -0.00176435 -0.00015459 0.0111152 