ITEM: TIMESTEP
14350
ITEM: NUMBER OF ATOMS
338
ITEM: BOX BOUNDS mm mm mm
-0.05 0.05
-0.05 0.05
0 0.15
ITEM: ATOMS id type type x y z ix iy iz vx vy vz fx fy fz omegax omegay omegaz radius 
319 1 1 -0.0146858 -0.0445144 0.00547867 0 0 0 -0.0170251 -0.0105333 0.00405933 0.0061277 0.0167768 -0.000484521 2.32949 -3.45163 -10.7039 0.00549486 
243 1 1 -0.00364869 -0.0430082 0.00547961 0 0 0 0.00285121 -0.0592304 0.0017794 0.000506157 0.000265796 -0.000647749 10.7161 0.537409 0.495629 0.00549486 
260 1 1 0.0214784 -0.0445627 0.00538171 0 0 0 -0.0135375 0.00959408 -0.00521138 0.0104974 0.00940862 0.00237861 -2.03093 -1.56621 3.67714 0.00549486 
78 1 1 0.0395068 -0.0415623 0.00848694 0 0 0 -0.00923473 -0.00430311 0.013051 -0.00668402 0.00987654 0.0188386 1.53621 -1.24644 1.12027 0.00879178 
74 1 1 -0.0412944 -0.0361719 0.00878632 0 0 0 0.0189895 -0.0126745 0.0201571 0.000421372 0.0759735 -0.0103629 -3.80068 -2.60835 -0.721741 0.00879178 
131 1 1 -0.0283468 -0.0408318 0.00538546 0 0 0 0.0800023 0.0544606 0.0250493 0.0257586 0.00416084 0.0434641 -10.7131 13.9693 24.3804 0.00549486 
60 1 1 0.00820307 -0.0356218 0.00853566 0 0 0 -0.0178872 0.00873686 0.0124018 0.0433553 0.0133399 -0.0145553 -1.47396 -2.43328 5.58096 0.00879178 
296 1 1 -0.0281849 -0.029005 0.00547948 0 0 0 -0.0617388 -0.0403444 0.00298504 -3.41772e-05 3.06473e-05 -0.00183429 7.33318 -11.251 -13.8699 0.00549486 
173 1 1 -0.0163401 -0.0279659 0.00547125 0 0 0 -0.0907334 -0.0064032 0.00895224 0.00373749 0.00492982 0.00544126 2.51965 -17.1489 9.90843 0.00549486 
275 1 1 -0.00238391 -0.026594 0.00545477 0 0 0 -0.00419122 0.0157033 -0.013091 0.0195664 0.0200218 -0.0105389 -3.1047 -0.826868 -4.87684 0.00549486 
144 1 1 0.0408426 -0.0268603 0.00547846 0 0 0 -0.00429885 0.022449 0.00360538 -1.23851e-06 6.46758e-06 -0.000718081 -4.09141 -0.783479 -10.8352 0.00549486 
102 1 1 -0.0415992 -0.018802 0.00844004 0 0 0 0.0123488 -0.000757337 9.12908e-06 -0.0478928 0.0120821 0.00821383 0.845982 0.543887 0.278804 0.00879178 
328 1 1 -0.0277354 -0.0179388 0.00543853 0 0 0 0.0319998 0.00411011 0.00234187 -0.0125246 0.00463891 0.0131547 -1.64685 0.963809 0.122088 0.00549486 
40 1 1 -0.0105246 -0.0153245 0.00864365 0 0 0 -0.0344529 -0.00765445 0.0122844 0.050262 0.029367 0.0048999 1.5435 -3.82744 -10.3412 0.00879178 
279 1 1 0.00443827 -0.0180087 0.00547242 0 0 0 -0.0143054 0.0289855 -0.00194708 0.00770874 0.00357652 0.00689033 -5.3505 -2.92743 6.68514 0.00549486 
267 1 1 0.0154143 -0.0184689 0.00547029 0 0 0 -0.00549671 -0.0693684 0.00704895 0.000573665 0.00154173 0.00522301 11.1901 0.881127 -24.5807 0.00549486 
202 1 1 0.0444839 -0.0158144 0.00547033 0 0 0 -0.00316604 0.0236439 0.00451122 0.000424586 -0.000368705 0.000681332 -4.30124 -0.554244 -4.55236 0.00549486 
274 1 1 -0.0225301 -0.00832455 0.00565061 0 0 0 -0.0255496 0.0526823 0.0230123 -0.0121704 -0.00548435 0.00908647 9.8994 1.74666 8.80929 0.00549486 
50 1 1 0.0262382 -0.00973317 0.00862799 0 0 0 -0.0268123 -0.0120218 -0.00135375 0.0562106 -0.0470998 0.00785561 1.98153 -3.24476 26.7645 0.00879178 
257 1 1 -0.0443167 -0.00305514 0.00548174 0 0 0 0.0256176 -0.039444 0.0033829 1.20711e-05 -0.000383968 -0.00611437 7.47806 4.67934 -9.99631 0.00549486 
171 1 1 -0.0234102 0.00256235 0.00540396 0 0 0 0.0758342 0.0728728 0.00801389 -0.0331984 -0.0135795 0.0226444 -13.7418 11.4552 -29.8357 0.00549486 
17 1 1 -0.00963036 0.00220099 0.00874384 0 0 0 0.0939321 0.0312376 -0.0293483 -0.0657094 0.110037 0.160188 -10.4852 -0.48942 9.81003 0.00879178 
96 1 1 0.00970309 -0.00380365 0.00875236 0 0 0 -0.0227961 -0.0137232 0.000263054 0.122955 -0.0193795 -0.00913962 1.54239 -3.21718 -15.952 0.00879178 
164 1 1 0.0216075 0.00358066 0.0056898 0 0 0 -0.0686915 0.0288515 -0.0381954 0 0 -0.0170439 13.8144 -2.6095 23.2352 0.00549486 
268 1 1 -0.0318082 0.00944499 0.0054079 0 0 0 0.00229958 -0.0124354 -0.00413795 -0.021392 -0.000480333 0.00743242 3.59008 -5.02003 51.4615 0.00549486 
290 1 1 0.000138729 0.0124247 0.00538016 0 0 0 -0.0064488 0.0548797 0.00390365 0.0111345 0.0234851 -0.0058953 -10.5444 -1.12031 -30.7779 0.00549486 
94 1 1 0.0359747 0.00475203 0.00882522 0 0 0 -0.101824 0.0620455 0.0320592 -0.0151142 0.0333947 0.0531029 -0.213173 -0.691291 -15.355 0.00879178 
232 1 1 -0.0393897 0.0173052 0.00534988 0 0 0 0.00837244 0.00447744 -0.00740699 0.00602248 0.0187835 0.00305319 -1.41982 1.91072 -54.4701 0.00549486 
297 1 1 -0.0261414 0.0187474 0.00525877 0 0 0 -0.0378757 0.032168 0.0120145 0.0015716 -0.0148746 0.00593736 -6.64468 -6.66993 -40.0991 0.00549486 
222 1 1 -0.0124078 0.0160493 0.00547881 0 0 0 0.00280522 -0.0183151 0.00354822 2.06912e-06 -6.75296e-06 -0.00129936 3.33809 0.511485 5.37492 0.00549486 
98 1 1 0.0136414 0.0154398 0.00872858 0 0 0 -0.00264936 0.0516111 0.00979143 -0.00348971 0.0343073 0.00912949 -5.69123 -0.588723 15.9586 0.00879178 
316 1 1 0.027461 0.0155554 0.00539874 0 0 0 -0.001791 0.146205 0.00435939 0.00556989 0.00411395 0.00164916 -19.6 1.38515 -0.593983 0.00549486 
162 1 1 0.0444831 0.0159331 0.0054781 0 0 0 -0.008097 0.0446734 0.00498437 -4.5496e-05 3.67007e-05 -0.00170475 -8.1433 -1.48775 -1.75426 0.00549486 
294 1 1 -0.0445618 0.0292226 0.00544749 0 0 0 -0.00433091 -0.00352086 -0.00156696 0.00755355 0.00249649 0.00061391 0.268491 -1.0403 2.31864 0.00549486 
255 1 1 -0.0210654 0.0283358 0.00539813 0 0 0 0.0938038 -0.0353996 1.29745e-05 -0.00794407 0.0064913 0.0199066 6.82662 16.5805 13.4634 0.00549486 
324 1 1 -0.00621542 0.0269546 0.00547844 0 0 0 0.0243054 0.0400926 0.00359357 6.97876e-06 1.15112e-05 -0.000677706 -7.30703 4.42974 8.33937 0.00549486 
161 1 1 0.00557133 0.0297732 0.00547739 0 0 0 0.0572303 0.0181238 0.00265819 1.15741e-05 3.40773e-06 0.00239454 -3.30353 10.4317 -12.2703 0.00549486 
77 1 1 0.021806 0.0314554 0.0083835 0 0 0 0.00354028 0.0122615 0.00687416 -0.000739284 -0.03707 0.0408105 -1.93478 0.590122 -4.49477 0.00879178 
155 1 1 0.0344877 0.0250776 0.00547846 0 0 0 -0.0162635 -0.0725605 0.00359528 -4.67404e-06 -2.08531e-05 -0.000708948 13.2244 -2.96408 4.30229 0.00549486 
175 1 1 -0.0339007 0.0321794 0.00542698 0 0 0 0.0217141 -0.00910192 -0.00701938 0.0109269 0.00848157 0.00927823 1.33316 4.53333 -11.2564 0.00549486 
289 1 1 0.0445472 0.0346162 0.00535388 0 0 0 0.00613547 0.0640425 0.013253 -0.00196519 -0.0155731 -0.000682948 -11.6207 2.43778 -11.7442 0.00549486 
321 1 1 -0.0445408 0.0445376 0.00545342 0 0 0 -0.00592501 -0.00131634 0.00692842 0.00883367 0.00635795 0.00411616 -0.778054 -1.49589 -1.09847 0.00549486 
207 1 1 -0.0335235 0.0445282 0.00548486 0 0 0 0.0147267 -0.00753229 0.00632628 -0.00333481 -0.0232959 -0.0135633 0.0160611 2.65411 1.4182 0.00549486 
38 1 1 -0.0167926 0.0415042 0.00850612 0 0 0 0.0247551 -0.00730602 0.00408309 0.0061225 0.0120122 0.0191144 0.384998 2.70253 3.29904 0.00879178 
149 1 1 0.0053372 0.0443508 0.00547086 0 0 0 0.0412885 0.0212143 0.00249623 -0.000725276 -0.00237623 0.0027256 -3.87349 7.44951 10.272 0.00549486 
249 1 1 0.0317188 0.0442396 0.00547921 0 0 0 -0.0559731 0.056705 0.00285723 -1.23431e-05 1.24635e-05 -0.00120102 -10.3333 -10.1999 -10.8734 0.00549486 
299 1 1 -0.028273 -0.044726 0.0155862 0 0 0 -0.00911421 0.0130197 0.0618546 0.00780417 0.0124948 0.0108773 14.2135 -43.348 1.5011 0.00549486 
130 1 1 0.0165354 -0.0447883 0.0150196 0 0 0 0.0183558 0.0106194 0.0135797 -0.00216833 0.0111478 0.00984614 2.56691 6.87361 -4.19467 0.00549486 
167 1 1 0.026998 -0.0443888 0.01829 0 0 0 0.0670838 0.022101 -0.0473185 -0.000900152 -0.00026697 -0.0169595 -1.41218 3.51328 4.51762 0.00549486 
7 1 1 -0.0218672 -0.0326531 0.018776 0 0 0 -0.0702689 0.0512756 0.0961966 0.0570474 0.0783896 -0.249013 -3.70161 31.1612 9.56303 0.00879178 
67 1 1 0.0250238 -0.0321259 0.0112297 0 0 0 -0.00467457 0.0324199 -0.0411636 -0.00384585 0.0479456 0.0707986 -5.53112 8.09803 -3.97184 0.00879178 
179 1 1 -0.0339723 -0.0259925 0.0175416 0 0 0 -0.115799 0.00807058 0.132369 0.0202661 0.00966936 -0.0466845 -15.8169 -31.0191 -8.34658 0.00549486 
278 1 1 0.031556 -0.020582 0.0158487 0 0 0 0.0453364 0.00609206 -0.0200411 0.00954632 -0.000828469 0.02092 1.09329 -34.1979 -11.1977 0.00549486 
183 1 1 0.0402139 -0.0138373 0.015379 0 0 0 -0.000619748 0.0738974 0.00468824 -0.0033131 0.00161903 -0.00301245 -4.25097 1.08492 1.55241 0.00549486 
146 1 1 -0.0445274 -0.00699445 0.0158302 0 0 0 -0.0248307 -0.0570502 0.0902939 0.00798984 0.0136923 -0.00292005 19.0994 -12.0315 1.1356 0.00549486 
310 1 1 -0.015884 -0.00669251 0.0184765 0 0 0 0.0481114 -0.0269592 0.0764565 -0.01138 -0.0113985 0.0153094 14.5949 8.06058 -5.2618 0.00549486 
160 1 1 -0.0017196 -0.00635468 0.0168401 0 0 0 0.0103814 0.0222298 0.047617 0.0201348 0.0182313 -0.00508787 12.1132 -17.8224 -21.5741 0.00549486 
25 1 1 -0.0413117 0.0068615 0.0155085 0 0 0 0.0189847 -0.0558257 0.00590482 -0.0405764 0.0540311 0.075288 -20.4933 -0.125978 -6.55566 0.00879178 
286 1 1 -0.00212328 0.011929 0.01597 0 0 0 0.020784 0.0655073 0.0110493 0.0174868 0.0273073 0.00982518 13.8611 6.51471 11.8869 0.00549486 
261 1 1 0.0446096 0.012414 0.0170118 0 0 0 -0.0100897 -0.0305201 0.0438469 0.006515 0.0125368 -0.0156278 11.8381 8.54253 5.51132 0.00549486 
300 1 1 -0.0445971 0.0205314 0.0176013 0 0 0 0.0046667 -0.0330595 -0.0598567 0.000625626 0.0135648 0.0017492 9.77139 10.7204 -5.91839 0.00549486 
273 1 1 -0.0345384 0.0220305 0.013791 0 0 0 0.0450318 -0.0625935 0.00154864 0.00309377 0.025232 0.000865837 -13.8852 -23.7162 -0.0112282 0.00549486 
28 1 1 -0.0193483 0.0197049 0.017466 0 0 0 0.00896542 -0.0287995 0.0123927 0.0338503 -0.0341134 0.0427806 0.106754 7.13106 1.62636 0.00879178 
320 1 1 0.00100924 0.0215842 0.0118326 0 0 0 -0.0325202 0.105046 0.00495011 0.00535815 0.0161554 -0.0157382 -5.77858 12.2596 -7.6635 0.00549486 
284 1 1 0.039928 0.02222 0.0155132 0 0 0 -0.00466367 -0.0116596 0.0461971 0.00122254 0.00404783 -0.018563 -32.7081 30.7716 -14.8394 0.00549486 
305 1 1 -0.0415982 0.036858 0.0126482 0 0 0 0.0106995 -0.011541 -0.00604323 0.0168152 0.0099612 0.00656914 2.68481 9.06069 -0.124414 0.00549486 
23 1 1 -0.0290121 0.0341402 0.0186286 0 0 0 -0.0024106 -0.0220556 0.000746288 0.068916 0.0173432 0.0410211 -1.99524 -7.42632 -1.23926 0.00879178 
16 1 1 0.00892232 0.0375096 0.0183335 0 0 0 0.0326325 0.00578435 0.081109 0.0235108 -0.043743 0.0652522 10.4369 5.50167 0.108018 0.00879178 
61 1 1 0.036333 0.0359684 0.0167661 0 0 0 -0.000312097 0.00767177 0.0396878 0.0182692 -0.0214222 -0.0184623 13.4945 -1.25904 9.86325 0.00879178 
237 1 1 -0.00335247 0.0445305 0.0121639 0 0 0 0.0382936 -0.00875536 0.0121039 0.00378451 -0.00586729 0.00226196 0.63788 -6.07004 -0.757132 0.00549486 
239 1 1 0.0201167 0.0447831 0.012174 0 0 0 0.0172277 0.0105697 -0.00591272 -0.0040722 -0.00885713 0.00666601 1.36778 -5.96611 3.29361 0.00549486 
331 1 1 -0.0428102 -0.0448015 0.0197841 0 0 0 0.00395639 -0.00202787 0.028619 0.00887235 0.0219425 0.0037213 4.56585 1.44867 -0.224035 0.00549486 
225 1 1 -0.00335543 -0.0445639 0.0196858 0 0 0 -0.0977864 -0.00246829 -0.0985862 -0.00940262 -0.00288761 -0.0510218 -17.4498 49.2492 18.1537 0.00549486 
242 1 1 0.00801485 -0.0445555 0.0217071 0 0 0 -0.0460272 0.00355225 -0.0556281 -0.0100098 -0.0172 0.0255631 -8.13646 -23.3838 10.4855 0.00549486 
136 1 1 0.0445211 -0.043447 0.0216975 0 0 0 -0.0121197 -0.00636741 0.037387 0.00379822 -0.000854469 -0.00352771 -2.26549 -1.03138 -0.377488 0.00549486 
180 1 1 -0.0446375 -0.0345978 0.022707 0 0 0 -0.00441571 -0.000954847 0.0272004 -0.00813794 0.0133296 0.00631844 -3.01274 -3.38104 -0.0890576 0.00549486 
256 1 1 -0.0344157 -0.0382816 0.0221147 0 0 0 -0.0141262 -0.0100282 0.197283 0.0114904 0.0488396 -0.00150168 0.878025 -33.2408 -1.74413 0.00549486 
271 1 1 0.0330987 -0.0385523 0.0268445 0 0 0 0.0243591 -0.0596524 0.0494109 -0.0825897 0.0485232 -0.115571 2.68015 -1.05832 -3.45534 0.00549486 
128 1 1 -0.0446078 -0.0239288 0.0212212 0 0 0 0.0107431 -0.00431131 0.0049288 -0.00963454 0.0165363 0.000668837 -0.840596 0.255391 -1.72216 0.00549486 
104 1 1 -0.00475327 -0.0304374 0.0189591 0 0 0 -0.0614796 0.00832338 -0.0381789 0.0514178 -0.0126342 -0.163257 15.47 -12.7427 -16.1962 0.00879178 
51 1 1 0.0108311 -0.0227872 0.0198854 0 0 0 -0.0279877 -0.0160002 0.0604663 0.0133678 0.0229467 -0.0522507 9.37655 7.21917 -1.76639 0.00879178 
120 1 1 0.0414829 -0.0293128 0.0202913 0 0 0 -0.0065178 -0.0263835 0.053099 0.0159461 0.013915 0.00892045 3.46917 6.37987 3.27313 0.00879178 
178 1 1 -0.0169171 -0.0194406 0.0208917 0 0 0 0.0520918 0.0254946 0.0515027 0.000556555 0.0102526 -0.0191519 -9.14884 37.3207 4.83956 0.00549486 
258 1 1 -0.00271813 -0.0166292 0.020331 0 0 0 -0.0255254 0.0165509 0.0382186 0.0146961 0.00837979 -0.0146916 -11.0754 6.23085 17.0831 0.00549486 
134 1 1 0.0447338 -0.0167031 0.0254573 0 0 0 -0.00343663 0.00194998 0.000223742 0.00309641 0.000547734 0.00299333 -14.646 0.123169 -0.89755 0.00549486 
19 1 1 -0.0294238 -0.0127449 0.0191107 0 0 0 -0.0166778 -0.0345931 0.0931755 -0.101085 0.0597089 -0.0353502 -5.85176 -15.6599 -12.2043 0.00879178 
245 1 1 0.00471951 -0.0110755 0.0257244 0 0 0 -0.0033146 -0.015699 0.0598879 0.00149513 -0.000222881 -0.00625302 39.4301 9.94082 -5.83812 0.00549486 
18 1 1 0.0182839 -0.00789345 0.0242697 0 0 0 -0.00571023 -0.00750304 0.0157064 0.0162668 0.0079957 -0.0222348 -10.638 2.59076 2.51452 0.00879178 
184 1 1 0.0312935 -0.0125317 0.0227506 0 0 0 -0.00281127 0.00254558 -0.0201612 0.00768686 0.00601029 0.0151232 0.028318 9.75924 1.43257 0.00549486 
112 1 1 -0.0249525 0.00382717 0.0211414 0 0 0 0.0380186 -0.0301381 0.0599502 -0.081009 -0.0293197 0.0436707 -6.3752 -10.1483 3.00722 0.00879178 
55 1 1 0.0414436 -0.00316575 0.0248825 0 0 0 -0.000865527 0.00522543 -0.0140354 -0.00629475 -0.0109893 0.0229155 7.52079 -1.16857 0.138439 0.00879178 
4 1 1 -0.00949578 0.00966388 0.0278241 0 0 0 0.0372932 -0.0339118 0.00164606 0.0258882 -0.0113791 0.0203276 -0.473435 -3.28664 0.632997 0.00879178 
100 1 1 0.00897446 0.00665762 0.0231382 0 0 0 0.00460241 0.00145667 -0.0046587 0.0532823 0.0265831 0.0156127 8.94256 -4.91859 -4.27608 0.00879178 
95 1 1 0.0273471 0.0066608 0.0260592 0 0 0 -0.00773829 0.0116132 0.00478336 -0.00187821 -0.0262355 0.103911 7.01252 -6.33452 -1.8393 0.00879178 
2 1 1 -0.0336596 0.0176403 0.0272296 0 0 0 -0.00671607 -0.0121489 0.0176709 0.0176238 0.0286913 -0.0591234 -2.30095 12.9142 4.90381 0.00879178 
108 1 1 0.0214006 0.0222984 0.0229033 0 0 0 0.0056435 0.0311792 0.0364906 0.0110828 -0.029194 0.0843129 -1.29179 1.60261 1.80603 0.00879178 
246 1 1 -0.0445079 0.0276977 0.0259226 0 0 0 0.0160296 -0.0485421 -0.0341159 -0.00581777 0.0172428 -0.00810174 -8.34889 -2.98197 12.1412 0.00549486 
73 1 1 0.00482038 0.0229739 0.0272174 0 0 0 0.00712033 -0.00752719 0.0718243 -0.0123023 -0.0113716 0.0352535 0.680278 2.48755 2.89282 0.00879178 
69 1 1 -0.00757033 0.0320542 0.0195887 0 0 0 0.0103699 -0.00913632 0.0343864 -0.0185776 0.00210489 0.0421459 1.21633 -9.16905 -0.0540753 0.00879178 
323 1 1 -0.012805 0.0447567 0.0222222 0 0 0 -0.0144104 -0.00158998 -0.0137158 -0.0165053 -0.00624097 0.012283 2.49794 -20.504 -2.65056 0.00549486 
224 1 1 -0.0420617 -0.0435771 0.0338283 0 0 0 0.0148301 -0.0901093 -0.185849 0 0 -0.0170439 26.9493 -27.7334 -5.04489 0.00549486 
42 1 1 -0.0124349 -0.0414369 0.0302855 0 0 0 0.0201685 0.0219476 0.0521336 -0.0230299 0.112248 -0.140347 7.72914 -20.7 -3.45904 0.00879178 
3 1 1 0.0199059 -0.0414094 0.0308393 0 0 0 0.0343414 -0.0187273 0.0801736 -0.143865 0.0193654 -8.03919e-05 11.7719 6.7045 -3.91378 0.00879178 
125 1 1 0.0389416 -0.0444585 0.0342874 0 0 0 0.16994 0.0258503 0.212685 0 0 -0.0170439 43.4855 38.9198 -31.155 0.00549486 
211 1 1 -0.0444874 -0.032793 0.0333956 0 0 0 0.0056623 -0.0234099 0.044166 -0.0240156 -0.00807401 -0.00898096 6.85716 5.78087 2.82908 0.00549486 
93 1 1 -0.0297019 -0.032022 0.0343045 0 0 0 0.0822925 0.00531354 0.139911 0.047729 0.0288349 -0.0984857 2.56627 -13.0901 9.70748 0.00879178 
168 1 1 0.00160017 -0.0409339 0.0296351 0 0 0 0.00140348 -0.0546607 0.0264368 -0.0400048 -0.00170141 0.00861776 21.7173 35.9049 -9.61813 0.00549486 
191 1 1 0.0087729 -0.0328568 0.0294475 0 0 0 -0.0190012 -0.0404562 0.037437 -0.0397858 -0.0147968 0.0134516 -11.8645 -26.9371 16.4409 0.00549486 
43 1 1 -0.00630095 -0.0242606 0.0353248 0 0 0 0.0437478 -0.0471066 0.0442345 0.0141588 -0.103023 -0.103668 5.61336 1.43101 3.05199 0.00879178 
105 1 1 0.0332026 -0.0273348 0.0355156 0 0 0 -0.0510243 -0.0299695 0.0393577 -0.0376465 -0.148525 0.0303225 -2.3335 -8.00995 2.54951 0.00879178 
66 1 1 -0.0412886 -0.0189392 0.034033 0 0 0 0.017434 -0.0153858 0.017471 0.0279867 0.00640015 0.00577951 -5.36821 -0.818168 -2.39573 0.00879178 
52 1 1 0.0108567 -0.0211504 0.0373276 0 0 0 0.0441648 -0.0331417 0.0845672 0.0214508 -0.0287501 -0.0959559 -6.76941 1.77106 -3.29353 0.00879178 
259 1 1 0.0287489 -0.0141534 0.0331148 0 0 0 -0.0211158 -0.0155008 -0.0109449 -0.0215288 -0.00401271 -0.00681533 1.92197 -11.1971 -6.83005 0.00549486 
336 1 1 -0.0213422 -0.00737434 0.0291939 0 0 0 -0.00465486 -0.0242665 0.0852009 -0.00824716 0.00720546 -0.0150336 -5.23116 18.8589 3.92738 0.00549486 
24 1 1 -0.0074876 -0.0072182 0.0315473 0 0 0 0.000326783 -0.031111 0.0760682 -0.0868738 -0.014749 -0.00753017 -6.13497 -9.89243 -3.00364 0.00879178 
107 1 1 -0.0386849 -0.00214127 0.0302323 0 0 0 0.0187304 0.0111051 0.0531213 -0.0511332 0.0492849 0.0186191 9.63159 2.03126 2.74962 0.00879178 
303 1 1 0.0310075 -0.00368472 0.0350267 0 0 0 -0.0159462 -0.0205003 -0.0172257 0.000885924 0.00462628 0.00935929 -1.23893 4.39994 5.40281 0.00549486 
208 1 1 -0.0448621 0.0135056 0.0343569 0 0 0 0.00589692 -0.0312823 0.0573021 0.0162455 0.0070379 -0.0109486 7.58083 -11.5527 -6.41133 0.00549486 
236 1 1 -0.0210746 0.00808532 0.0367469 0 0 0 0.0134182 -0.00440412 0.0466112 -0.00321332 -0.00569026 -0.0106232 -34.729 -5.13648 11.5573 0.00549486 
282 1 1 -0.020331 0.0178248 0.0317461 0 0 0 0.0219301 -0.0303882 -0.0218466 0.00554649 -0.00463911 0.00486844 16.5718 -12.0306 -7.30147 0.00549486 
58 1 1 0.0415016 0.0153684 0.0306089 0 0 0 -0.00705648 0.00510713 0.0275366 -0.0372181 -0.00882672 0.0237785 -8.35448 2.03686 0.0025247 0.00879178 
199 1 1 -0.0441884 0.0245578 0.0364438 0 0 0 -0.0288467 -0.0517151 -0.0267243 0.00519949 0.00214965 -0.0163491 7.42898 -0.239186 8.14366 0.00549486 
262 1 1 -0.035017 0.0305314 0.0354797 0 0 0 -0.0424528 -0.00436194 -0.0134436 0.00566112 -0.00275816 -0.000618563 -11.86 -4.57254 1.39743 0.00549486 
192 1 1 -0.0250532 0.0281626 0.0309354 0 0 0 0.0102509 -0.0201364 0.0137042 0.0192147 -0.000117354 -0.00180061 19.0296 -1.55001 -4.97441 0.00549486 
292 1 1 -0.0157344 0.033596 0.0310867 0 0 0 0.00524707 -0.0108062 0.0528366 0.0178917 0.0143025 0.021271 1.68791 4.72973 7.20783 0.00549486 
99 1 1 -0.00301888 0.0347048 0.0371608 0 0 0 -0.0145766 -0.0311815 0.0898616 0.0186478 -0.0266588 0.0650704 6.08782 -7.4624 -3.44176 0.00879178 
47 1 1 0.0248273 0.036152 0.0328504 0 0 0 0.00745656 -0.0135064 0.117537 0.0510243 0.0290422 -0.0378046 13.1737 3.12963 0.573989 0.00879178 
9 1 1 -0.0412738 0.0413315 0.02868 0 0 0 -0.0277505 -0.0131254 -0.0271988 0.0335597 0.0116849 0.0463262 5.10426 1.95131 -1.27842 0.00879178 
122 1 1 -0.0259037 0.0413173 0.0371478 0 0 0 -0.0377426 -0.00754258 0.00833894 0.00768618 0.0221319 -0.00803735 -0.873615 -11.7142 -4.27074 0.00879178 
126 1 1 -0.0123439 0.0446602 0.0335692 0 0 0 0.0158674 -0.00595532 0.0261994 0.0188163 -0.00181728 0.0158813 -4.9579 -9.41664 2.81238 0.00549486 
248 1 1 0.00235878 0.0446492 0.0285583 0 0 0 0.0195251 -0.0124408 0.113479 0.00570852 0.00226341 0.0201182 -13.8245 -4.4768 8.44936 0.00549486 
229 1 1 0.0139945 0.0446345 0.0294566 0 0 0 0.00656369 -0.000615689 0.0950256 0.0126213 -0.0100438 0.00656069 -16.3064 -14.9189 0.239724 0.00549486 
114 1 1 0.0413911 0.0414181 0.0324174 0 0 0 0.0048086 -0.00122878 0.0568071 0.018585 0.0278064 -0.0383092 -8.26248 5.96011 0.866495 0.00879178 
329 1 1 -0.0242086 -0.0446043 0.0377265 0 0 0 0.0686944 -0.011454 0.0611055 -0.00864277 0.00184983 0.017546 14.223 3.66092 -12.5075 0.00549486 
314 1 1 -0.0138615 -0.044568 0.0441918 0 0 0 0.0251564 -0.0159852 0.0737473 -0.0712926 -0.0377283 -0.0164431 13.2042 -17.1933 -5.20963 0.00549486 
265 1 1 0.0193894 -0.0446959 0.0462045 0 0 0 0.0181289 0.00954884 0.0904943 -0.0125882 0.0299437 -0.0135438 16.7456 1.73341 -0.791462 0.00549486 
283 1 1 0.0297426 -0.0439557 0.0405797 0 0 0 0.0365744 -0.0521939 0.0528827 0.00643942 0.00166874 -0.0177208 -2.16914 -9.16699 16.617 0.00549486 
307 1 1 -0.0175743 -0.0342206 0.041393 0 0 0 0.132034 0.044776 0.109874 -0.00253292 0.0203326 0.0132554 -4.94413 40.2642 -26.5628 0.00549486 
337 1 1 -0.00679824 -0.0365917 0.0423831 0 0 0 0.0460426 -0.0680549 0.0687557 -0.088776 0.00102414 0.0259891 2.19168 36.6814 -8.27093 0.00549486 
56 1 1 0.00712463 -0.0388513 0.0424557 0 0 0 0.0425455 -0.0432676 0.00232384 -0.34829 0.301046 0.149716 -12.7472 -12.2444 8.04581 0.00879178 
326 1 1 0.0447056 -0.0283388 0.0435259 0 0 0 -0.0213458 0.00699999 0.0488362 -0.0196729 -0.00181627 0.0364209 -0.182353 11.5282 0.303896 0.00549486 
81 1 1 -0.0212904 -0.0165012 0.0398728 0 0 0 0.0489883 -0.00938558 0.0842829 0.0168279 -0.00383057 -0.0181107 2.184 -1.6122 -8.28374 0.00879178 
332 1 1 0.0245102 -0.0183302 0.0422069 0 0 0 0.00761837 0.00852598 0.0485843 0.0335833 -0.023009 -0.00575298 -5.1509 22.0133 -11.9101 0.00549486 
220 1 1 -0.0444591 -0.00739089 0.0423327 0 0 0 0.0329454 0.0577239 -0.0739317 0.0299999 0.000159702 -0.000301545 -15.9303 3.95154 -13.8888 0.00549486 
240 1 1 0.0210851 -0.00679728 0.0382215 0 0 0 -0.00716143 6.77248e-05 0.0109896 -0.0237188 -0.0113411 -0.019184 4.97245 2.00819 -10.5615 0.00549486 
276 1 1 0.0168277 -0.012274 0.0467427 0 0 0 0.0399703 0.022433 0.0742164 0.00738148 0.00513639 -0.01965 7.88036 -17.0662 5.391 0.00549486 
5 1 1 0.0413133 -0.0120723 0.0399416 0 0 0 -0.00314499 0.00105708 -0.00166217 0.00784731 0.0128671 0.0432017 -7.58995 0.133944 -0.378439 0.00879178 
133 1 1 -0.0267683 -0.00350095 0.037809 0 0 0 0.00409607 -0.0135036 0.117745 -0.0143584 -0.0263513 -0.00764439 2.54524 -8.91408 -1.56158 0.00549486 
197 1 1 -0.0165859 -0.00109053 0.0408117 0 0 0 0.00660979 -0.000184969 0.109085 0.0120919 -0.0153866 -0.00483302 13.8444 10.9352 12.6019 0.00549486 
10 1 1 0.00728802 -0.00421248 0.0402927 0 0 0 0.00563098 0.0011161 0.0844934 -0.0871462 -0.0948706 -0.026586 3.05663 7.18028 5.67247 0.00879178 
318 1 1 0.0444997 0.00172819 0.0379391 0 0 0 -0.00153627 0.00958431 -0.0117145 -0.000316861 -0.000239211 -0.00919847 -9.47461 1.41791 3.69383 0.00549486 
32 1 1 -0.0344705 0.00917571 0.0428747 0 0 0 -0.00481023 0.0136195 0.0922002 0.0856215 -0.018221 0.00145937 -4.83929 1.78946 11.3941 0.00879178 
115 1 1 0.00188634 0.0123012 0.0407451 0 0 0 -0.0563201 -0.00645276 0.0875512 0.00427531 -0.026484 -0.0586776 -0.5889 -12.4569 1.85044 0.00879178 
298 1 1 0.0327437 0.0103946 0.040611 0 0 0 -0.00125438 -0.00672146 0.0288497 0.00187523 0.0145848 0.0138307 4.24583 -7.64156 15.1076 0.00549486 
291 1 1 0.0440945 0.0124444 0.0443551 0 0 0 -0.0148798 0.0932621 0.0285003 0 0 -0.0170439 -19.4525 -7.30778 -14.0212 0.00549486 
15 1 1 0.0196176 0.0155797 0.0389829 0 0 0 -0.0452427 -0.0387785 0.0335062 -0.0713087 0.0654707 0.068732 7.18613 -0.400373 -4.68895 0.00879178 
335 1 1 -0.0306014 0.0227842 0.041741 0 0 0 -0.063934 0.0211745 0.025035 0.0226861 -0.00285785 -6.81871e-05 -2.12639 9.46648 -9.08991 0.00549486 
117 1 1 -0.0166606 0.0255586 0.0429687 0 0 0 -0.0691084 -0.0220731 0.0155736 0.00160098 0.0436522 -0.00794611 -11.2724 -7.43347 3.49079 0.00879178 
140 1 1 0.0077342 0.0250747 0.0410379 0 0 0 -0.0140958 -0.0147955 0.101254 -0.0180663 -0.00208561 0.0272235 -9.84441 -10.1901 -11.4174 0.00549486 
106 1 1 0.0405115 0.0275796 0.0430131 0 0 0 0.0888177 -0.00575492 0.0711277 0.0657829 -0.00240843 -0.00908152 11.0346 11.9111 -4.32132 0.00879178 
113 1 1 0.0144978 0.0359032 0.0469052 0 0 0 0.00535328 -0.0148764 0.110344 -0.00100105 0.0348819 0.0503007 -3.50264 -9.29438 -3.6085 0.00879178 
327 1 1 -0.0440913 0.0442826 0.0423323 0 0 0 0.0412831 -0.00708147 -0.0317791 0.021409 0.0244122 0.0610494 -11.7524 15.5048 7.26833 0.00549486 
315 1 1 -0.00735346 0.0445358 0.046465 0 0 0 -0.0212782 -0.012016 0.0612123 0.00166562 0.00506276 0.0243377 -11.1178 -5.33534 -6.25743 0.00549486 
158 1 1 0.00376365 0.0447365 0.0443335 0 0 0 0.0123863 -0.0119932 0.0650724 0.0052892 -0.00982783 0.0135735 -12.6948 18.4048 2.79882 0.00549486 
203 1 1 0.0446624 0.0443926 0.0458405 0 0 0 0.0123241 0.00944202 0.0406011 -0.00508739 0.0111953 0.000117364 13.3396 7.90746 -1.83445 0.00549486 
252 1 1 -0.0379991 -0.0447526 0.0562349 0 0 0 0.00584291 -0.00740983 0.0706424 -0.042338 -0.0082203 -0.0148516 12.0626 5.20175 0.47196 0.00549486 
190 1 1 -0.00213652 -0.044483 0.0517127 0 0 0 0.015728 0.0170869 0.00250862 -0.0314645 -0.0102146 0.0120794 -0.647351 8.31751 -9.01911 0.00549486 
189 1 1 0.028228 -0.0445575 0.0526032 0 0 0 0.0303626 0.000575137 0.0849985 -0.0364588 -0.0102386 0.00802674 -1.5252 0.998587 3.12829 0.00549486 
49 1 1 0.0413176 -0.0412839 0.0481327 0 0 0 0.0102892 0.0081219 0.0423394 -0.0513253 -0.0513161 0.129155 3.33536 5.55432 -1.23543 0.00879178 
84 1 1 -0.0412834 -0.0346199 0.0470674 0 0 0 -0.00172401 -0.00978403 0.0589495 -0.0189453 -0.0444152 -0.0476097 -6.82621 -4.36172 -0.446789 0.00879178 
6 1 1 -0.0254504 -0.0406984 0.0512994 0 0 0 0.015609 -0.00339648 0.0407851 -0.0690603 -0.0379394 0.0420457 0.118628 3.63996 -3.16786 0.00879178 
75 1 1 -0.0252959 -0.023646 0.0552289 0 0 0 0.0055216 -0.0153092 0.0684062 0.0449022 -0.0744021 -0.0356238 0.0806786 -1.04985 5.23975 0.00879178 
313 1 1 -0.013507 -0.0259951 0.0475292 0 0 0 0.0534412 0.00601566 0.0903595 0.00812424 0.00230835 -0.0180669 -35.0044 0.137877 20.3856 0.00549486 
137 1 1 -0.00238917 -0.0285478 0.0483137 0 0 0 0.0681977 -0.0756504 0.0222828 -0.0133867 0.0339289 0.0325883 7.28506 -8.422 32.3611 0.00549486 
227 1 1 0.00806058 -0.0261635 0.0503516 0 0 0 0.0506921 -0.0108941 0.0960462 0.0894758 -0.00634732 0.0726495 11.7875 1.40709 -21.5585 0.00549486 
91 1 1 0.0216537 -0.0308982 0.0480992 0 0 0 0.0140277 0.0109783 0.146917 -0.0766714 0.012792 -0.021671 -1.43215 12.2106 -0.866248 0.00879178 
247 1 1 0.0357506 -0.0286022 0.0515288 0 0 0 -0.00507721 0.00586143 0.0544081 0.00860301 -0.00200917 0.0186349 14.6857 -25.6607 -1.4789 0.00549486 
36 1 1 -0.0414149 -0.0178694 0.0514707 0 0 0 0.00500222 0.0164306 0.027735 0.0454182 0.103624 -0.0612588 3.96382 -3.01221 -1.3666 0.00879178 
209 1 1 0.00711412 -0.0152358 0.0508111 0 0 0 0.0386031 -0.0427227 0.017216 0.000959506 0.0178677 -0.00083375 6.70843 10.6294 3.47343 0.00549486 
215 1 1 0.0327081 -0.0182798 0.0494465 0 0 0 0.0245441 0.0197413 0.0516747 0.00213462 -0.0157741 0.0108899 -2.2405 -21.7085 5.54263 0.00549486 
217 1 1 0.0445407 -0.0203968 0.0510463 0 0 0 -0.00846968 0.0178203 0.0452224 -0.00846979 0.0142955 0.02554 4.13071 -0.230113 -1.16878 0.00549486 
182 1 1 -0.0301135 -0.00988525 0.0487813 0 0 0 0.0142589 0.0347874 0.038172 0.000922344 0.0209207 -0.00360469 -4.07034 4.23478 5.01466 0.00549486 
204 1 1 -0.019997 -0.0104791 0.0527113 0 0 0 0.0217106 0.0726006 0.0580881 0.00488793 0.023467 -0.0186873 1.22371 -6.71499 1.05587 0.00549486 
26 1 1 -0.00644765 -0.0115484 0.0485021 0 0 0 0.0357503 0.00137399 0.112936 -0.00897761 0.0047637 -0.0949537 1.66919 3.00735 -6.3729 0.00879178 
306 1 1 -0.0420652 -0.0027257 0.0522393 0 0 0 0.0798713 -0.19395 -0.0552815 0 0 -0.0170439 -85.6003 35.9787 -43.2829 0.00549486 
22 1 1 0.00158987 0.0025091 0.0554386 0 0 0 0.0133705 -0.00767326 0.0822667 -0.00921662 -0.169712 -0.0764884 -1.62013 -10.353 3.54032 0.00879178 
87 1 1 0.0311375 -0.000924149 0.0489815 0 0 0 -0.0117138 -0.0460367 -0.00108788 0.0130519 -0.0634832 -0.0517773 2.07334 -1.35524 -8.45007 0.00879178 
148 1 1 0.0445706 -0.00443234 0.0519451 0 0 0 -0.00329826 -0.0422818 0.023798 0.00275217 -0.0228177 -0.0052015 -34.8723 5.17937 8.2034 0.00549486 
57 1 1 -0.013123 0.00968163 0.0493768 0 0 0 -0.0322834 0.0140369 0.112093 0.0237586 0.0716341 0.0175968 -2.19381 16.7789 -3.40625 0.00879178 
338 1 1 0.0445733 0.0124679 0.0556494 0 0 0 -0.0123316 -0.145807 -0.19189 0.00327405 0.0131261 0.000534726 39.8809 -34.0533 27.1202 0.00549486 
233 1 1 -0.00250642 0.0186959 0.0527371 0 0 0 -0.0885468 -0.0795382 0.0184448 -0.0187419 -0.0306296 0.0508979 24.9378 10.067 0.557195 0.00549486 
263 1 1 0.00811603 0.0213199 0.0539311 0 0 0 -0.0811201 0.00426228 -0.0142544 -0.0211254 -0.00239922 0.00162177 18.7329 -4.98242 -16.2782 0.00549486 
45 1 1 0.0299854 0.0154594 0.05546 0 0 0 0.0402385 0.0118618 0.0369709 -0.0577842 -0.0502532 -0.0869629 11.2189 -9.65119 -8.89156 0.00879178 
39 1 1 -0.0408123 0.0313905 0.0485538 0 0 0 0.0454851 -0.0462246 -0.0301183 0 0 -0.0698116 2.25437 3.03026 -2.00771 0.00879178 
250 1 1 -0.0274543 0.0262651 0.052082 0 0 0 -0.0530724 -0.0161633 0.0618357 -0.0109491 0.00682983 -0.00979272 -19.287 22.8936 24.1789 0.00549486 
266 1 1 0.018596 0.0229114 0.0511342 0 0 0 -0.0448693 -0.0533549 0.0632546 -0.0181274 -0.00397491 0.0147158 -6.31547 -3.68764 1.44562 0.00549486 
127 1 1 0.0336243 0.029244 0.0552869 0 0 0 0.0466176 -0.0122626 0.0802907 0.0318482 -0.0374984 0.00757817 -6.74999 -29.4321 -8.50439 0.00549486 
322 1 1 0.0445318 0.0233169 0.0559626 0 0 0 -0.00819261 -0.117856 0.0834056 0.000347574 0.0122494 0.000876764 11.4888 -21.6662 -29.8101 0.00549486 
46 1 1 -0.00105967 0.0327847 0.0543524 0 0 0 -0.00928457 -0.0654489 0.0980119 -0.0586541 -0.144601 -0.030412 -5.1238 8.9461 -7.37329 0.00879178 
195 1 1 0.044042 0.0341512 0.0551122 0 0 0 0.0658132 -0.0735347 0.111427 0.0318179 0.0174035 -0.0390026 -3.97825 -17.9784 18.7845 0.00549486 
174 1 1 -0.0332205 0.0445236 0.048952 0 0 0 -0.0272078 -6.35261e-05 0.0240991 -0.00690282 -0.00116743 0.00265665 2.491 21.3471 2.33848 0.00549486 
35 1 1 -0.019118 0.041251 0.0537592 0 0 0 -0.0427195 -0.0114296 -0.00428635 -0.078308 -0.00861514 0.0336034 -8.33638 3.41652 -2.54211 0.00879178 
76 1 1 0.0310488 0.0413352 0.0483358 0 0 0 0.0339636 -0.0113228 0.107834 0.0183 -0.00240214 -0.0712992 -12.2174 2.93406 4.35285 0.00879178 