ITEM: TIMESTEP
36050
ITEM: NUMBER OF ATOMS
338
ITEM: BOX BOUNDS mm mm mm
-0.05 0.05
-0.05 0.05
0 0.15
ITEM: ATOMS id type type x y z ix iy iz vx vy vz fx fy fz omegax omegay omegaz radius 
319 1 1 -0.0146525 -0.0442367 0.0060949 0 0 0 -0.000195409 -0.00146401 0.00181851 -0.000660013 -0.00376065 0.00230368 0.219137 -0.300021 0.080331 0.00633798 
243 1 1 -0.00280828 -0.0435696 0.00605467 0 0 0 0.00136883 -0.00422786 0.00112486 0.000267436 -0.00826303 0.00103842 0.50553 0.406596 -0.338849 0.00633798 
260 1 1 0.0254681 -0.0437094 0.00608754 0 0 0 -0.00212123 0.000736695 6.40756e-05 -0.00571841 -8.68018e-06 -0.00306911 -0.0660733 -0.000159601 0.302734 0.00633798 
131 1 1 -0.0256421 -0.0396165 0.00583919 0 0 0 0.00171913 -0.000798949 -0.000565497 0.00260133 -0.00342671 -0.00302249 -0.0205173 0.0957451 -0.221806 0.00633798 
173 1 1 -0.0154765 -0.0319878 0.00583443 0 0 0 -0.00738123 0.00405449 -0.00220612 -0.000571343 0.00250636 -0.00238929 -0.75402 -1.22699 0.614854 0.00633798 
78 1 1 0.040963 -0.04064 0.00931762 0 0 0 0.00236415 0.000294217 0.000716832 0.00725312 -0.00178235 -0.00924538 0.06969 0.152204 -0.249971 0.0101408 
296 1 1 -0.027518 -0.0274818 0.00622101 0 0 0 0.00456965 0.00304349 0.00249321 0.00452727 0.00430059 -0.000735686 0.32944 0.365818 -0.00809693 0.00633798 
275 1 1 -0.00361331 -0.0295671 0.00593127 0 0 0 -0.00112365 0.00159332 0.000201145 3.58357e-05 -0.00432662 0.000191812 -0.333356 0.264063 -0.835006 0.00633798 
144 1 1 0.0422966 -0.0250577 0.00611515 0 0 0 0.0023245 0.00254907 0.0019128 -0.00145858 0.00372332 0.000478934 0.0519651 0.331943 0.267127 0.00633798 
102 1 1 -0.040467 -0.0172321 0.00903036 0 0 0 0.00110007 0.00446922 0.0015175 -0.00292229 0.00514942 -0.0110709 -0.273507 0.0514767 0.0658974 0.0101408 
328 1 1 -0.0254252 -0.0155027 0.00574829 0 0 0 0.000955542 0.0060868 -0.00185459 9.51284e-05 -0.000322698 -0.00350223 -0.979143 0.207118 0.508489 0.00633798 
267 1 1 0.015211 -0.0202328 0.00602729 0 0 0 0.00247834 0.00420694 -0.000582214 -0.000469161 -0.00522801 0.00182296 -0.524746 0.334852 0.192608 0.00633798 
202 1 1 0.04461 -0.0131129 0.00625466 0 0 0 0.00349561 0.00329185 0.000602956 0.00684547 0.00343035 -0.00420529 -0.404264 0.336551 -0.337725 0.00633798 
257 1 1 -0.0438264 -0.00149938 0.00625122 0 0 0 -0.00401721 0.00786134 0.00114883 -0.0020412 0.00447848 -0.000733488 0.21528 -0.218019 1.05421 0.00633798 
268 1 1 -0.0321559 0.00292419 0.00629468 0 0 0 -0.00585913 0.014076 0.003663 -0.000221243 0.00033682 -0.00101279 -2.27127 -1.03945 -0.160202 0.00633798 
274 1 1 -0.0215864 -0.00435703 0.00812086 0 0 0 -0.0065645 0.00946584 -0.000749347 -0.00373483 0.00335919 -0.00258636 0.809338 -0.935053 0.863357 0.00633798 
164 1 1 0.0202745 0.00153067 0.00585014 0 0 0 0.00103803 0.00200314 -0.000620852 0.00157578 0.00450057 -0.00608127 -0.577359 0.271312 0.691725 0.00633798 
232 1 1 -0.0434259 0.011559 0.00631618 0 0 0 0.0152595 0.00392352 0.00418579 8.41223e-06 2.1657e-06 0.000893031 -0.620132 2.41185 -0.74037 0.00633798 
171 1 1 -0.0207472 0.00757123 0.00829037 0 0 0 -0.00277471 0.00718888 0.00688107 -0.000622499 -0.00309209 -0.003503 0.425137 -0.146517 -1.29918 0.00633798 
297 1 1 -0.0248189 0.0189008 0.00593375 0 0 0 -0.000887894 0.00767346 0.001948 -0.00161619 0.00392914 -0.00117844 -1.1568 0.039719 0.437628 0.00633798 
222 1 1 -0.0106875 0.0142303 0.00577197 0 0 0 0.0018196 0.00445887 0.00318139 0.00188633 -0.000339393 -0.00613311 -1.15118 0.478417 0.556329 0.00633798 
290 1 1 -0.000677831 0.0211584 0.00563683 0 0 0 -0.00192202 0.0026252 -0.00179517 -6.70979e-05 0.00198234 -0.00276011 -0.417813 -0.520372 0.0810796 0.00633798 
316 1 1 0.0323588 0.0194409 0.00568562 0 0 0 -0.000546359 0.00297323 -0.00247936 -0.0094916 -0.00100237 -0.00495904 -0.352155 -0.0888497 0.722581 0.00633798 
162 1 1 0.0443443 0.0198346 0.00585876 0 0 0 0.00224946 0.00646213 -0.00120426 0.00623033 0.00369634 -0.00313987 -1.39157 0.0774569 -0.485777 0.00633798 
294 1 1 -0.0437768 0.0251635 0.00618333 0 0 0 0.000309672 -0.00406125 -8.54288e-05 0.00177397 -0.0063341 -0.00110609 0.613861 0.236019 -0.327845 0.00633798 
175 1 1 -0.0328737 0.0312265 0.00614776 0 0 0 -0.00200169 0.000577574 0.00444377 0.00209 -0.00284789 -0.00199139 -0.241893 -0.958013 0.961515 0.00633798 
255 1 1 -0.0147768 0.0256502 0.00606946 0 0 0 0.000497038 0.00565031 0.00113678 0.0039109 0.00735749 -0.00455013 0.192237 -0.0200977 -0.301639 0.00633798 
155 1 1 0.0375497 0.0305669 0.00593327 0 0 0 0.00143324 0.00849461 7.82171e-05 -0.00497182 -0.0129018 -0.00536988 -0.535876 -0.467631 1.01784 0.00633798 
324 1 1 -0.00359528 0.0322679 0.00590462 0 0 0 -0.0018403 0.000641469 0.000191545 -0.00186804 0.00533061 -0.00172924 0.612814 0.464818 -0.566067 0.00633798 
161 1 1 0.00827231 0.0322543 0.00638204 0 0 0 -0.00459027 -0.0091739 0.0108666 -0.00247988 0.00143133 -0.00792684 -0.869316 -2.52067 -0.500442 0.00633798 
321 1 1 -0.0438035 0.0437495 0.00626313 0 0 0 -0.00094664 0.00244027 -0.00237465 -0.00874484 -0.0036707 0.00805221 0.144102 0.0888893 0.247966 0.00633798 
207 1 1 -0.0313393 0.0436998 0.00627731 0 0 0 -0.0021226 0.0037952 -6.04934e-05 -0.00358475 -0.0010088 0.0029745 -0.467219 -0.353355 -0.373403 0.00633798 
149 1 1 0.0112864 0.0439367 0.00574537 0 0 0 0.00292505 -0.00289996 0.00178051 -0.00149705 0.00449007 -0.00459936 -0.0971164 0.902899 0.00348174 0.00633798 
249 1 1 0.0278522 0.0440081 0.00619663 0 0 0 0.00227819 -0.000555559 0.00286253 -0.00610144 0.0200202 -0.0015023 -0.426387 0.743298 0.0831028 0.00633798 
289 1 1 0.0440906 0.0418925 0.00611336 0 0 0 0.00179204 -0.00141563 0.00189833 0.00144542 0.00187999 -0.00444281 0.216526 0.572662 0.272638 0.00633798 
299 1 1 -0.0244031 -0.0445684 0.0167284 0 0 0 -0.00467328 -0.000497556 0.00259261 -0.00287031 -0.0105011 -0.00179367 0.0988175 -1.42468 0.816348 0.00633798 
225 1 1 -0.0117183 -0.0439528 0.0185963 0 0 0 -0.00417069 -0.000661865 -0.00697952 0.00127445 -0.00219652 0.00418147 -1.17162 1.5727 0.45202 0.00633798 
130 1 1 0.0208853 -0.0440582 0.0175886 0 0 0 0.00110356 0.000399343 0.00452498 0.00769489 0.00039191 0.00585163 0.350696 -1.21399 -0.136132 0.00633798 
74 1 1 -0.0405208 -0.0363199 0.00961404 0 0 0 0.000397313 -0.00136066 0.00163987 -0.01163 -0.0181697 0.000651839 0.278397 -0.0271762 -0.0574087 0.0101408 
60 1 1 0.0102708 -0.0357462 0.00971436 0 0 0 0.00406061 -0.000304916 -0.00220619 0.0159474 -0.00595623 -0.00239526 -0.180847 0.211952 0.362698 0.0101408 
67 1 1 0.0274493 -0.0280435 0.0126353 0 0 0 0.00450635 0.00321824 0.00420824 -0.00119107 -0.00452503 -0.0166131 0.418829 -0.505588 -0.0480218 0.0101408 
40 1 1 -0.010725 -0.0161517 0.0109233 0 0 0 0.000521934 0.00824206 0.00060543 0.00300712 0.00253536 0.0147832 0.28833 -0.332995 -0.186536 0.0101408 
279 1 1 0.00421997 -0.0209569 0.0110374 0 0 0 0.00124902 0.00446095 0.000907671 0.000628327 -0.00110021 -0.00234856 0.928539 -0.175962 -0.277646 0.00633798 
96 1 1 0.0115766 -0.00763391 0.01568 0 0 0 0.00468398 0.00458038 0.00956136 0.00465732 0.00458176 -0.0102091 0.14551 0.512688 -0.0661209 0.0101408 
50 1 1 0.0301257 -0.00943596 0.00977655 0 0 0 0.00387748 0.00494419 0.00418478 0.00597539 0.013672 -0.0163283 -0.311434 0.0279493 0.0460668 0.0101408 
183 1 1 0.044129 -0.00710909 0.0171587 0 0 0 0.00519756 0.00166229 0.00696476 0.00594596 0.000571749 0.00532332 1.64389 0.44433 -0.130375 0.00633798 
17 1 1 -0.00523961 0.00217063 0.014156 0 0 0 0.003732 0.00846655 0.0126526 0.0029391 0.00227513 0.0113914 0.525535 -0.681415 -0.195496 0.0101408 
94 1 1 0.0382292 0.00766726 0.013684 0 0 0 -0.000211251 0.0110323 0.00882538 0.00365887 0.0170799 0.00367191 -0.480832 -1.33717 0.528477 0.0101408 
300 1 1 -0.0440935 0.0186842 0.0168815 0 0 0 -0.00108018 -0.00609728 0.00423815 -0.00154073 -0.00994311 0.00251081 -0.604122 -0.303789 -0.894941 0.00633798 
273 1 1 -0.0320462 0.0182142 0.0156546 0 0 0 0.000299977 -0.000110304 0.00658934 -0.000240655 -0.00493972 -0.00113477 1.12845 0.0790337 1.55791 0.00633798 
286 1 1 -0.00144859 0.0174013 0.0168896 0 0 0 0.00241369 0.0201607 0.00600871 0.002616 0.0221407 0.00203509 -3.16966 0.905728 0.911659 0.00633798 
98 1 1 0.0123047 0.013844 0.00986864 0 0 0 -0.00128928 -0.00341032 0.00370079 -0.00246732 -0.00490529 0.00523281 0.589751 -0.169851 -0.370667 0.0101408 
320 1 1 0.00523446 0.0278171 0.0174868 0 0 0 -0.0134734 0.0572238 0.0593021 -0.00499565 0.0147354 0.000222873 -15.29 0.265582 6.35978 0.00633798 
77 1 1 0.0227945 0.0298362 0.0119108 0 0 0 -0.000372878 -0.00443139 0.0112801 -0.00874277 -0.0269236 -0.0153994 0.757539 1.35277 0.33799 0.0101408 
284 1 1 0.0442943 0.0273988 0.0155777 0 0 0 0.00376474 0.000291016 0.00273372 0.00331324 -0.00178287 0.000991846 2.3186 0.184521 -0.242617 0.00633798 
305 1 1 -0.0435626 0.0345506 0.0149152 0 0 0 0.0240508 -0.0110208 -0.0286979 -0.00646538 -0.051765 0.0364754 4.31691 3.35836 3.06066 0.00633798 
38 1 1 -0.0156207 0.0410216 0.00952516 0 0 0 -0.000750536 0.00390163 0.00331636 0.00295033 0.00791966 0.00131129 -0.265342 -0.157611 -0.0228093 0.0101408 
237 1 1 0.000246001 0.0437957 0.011537 0 0 0 0.00285548 0.000560141 0.00743573 -0.00512991 0.000640215 -0.00342098 -0.862588 -0.350312 -0.283854 0.00633798 
239 1 1 0.018969 0.0444752 0.0149187 0 0 0 -0.00075182 0.000409246 0.00764036 0.00482334 -0.0127311 -0.00927209 -1.01325 -2.13319 -0.173557 0.00633798 
331 1 1 -0.0428405 -0.0449013 0.0217511 0 0 0 -0.00171544 -0.00380422 0.00104678 -0.00608229 -0.00874341 0.00148689 -0.102141 -0.305038 0.0310714 0.00633798 
242 1 1 0.000739948 -0.044129 0.0193746 0 0 0 -4.16855e-05 -0.00175887 -0.00142674 0.00327676 -0.00736667 0.00643175 -0.184126 -1.75655 -0.299437 0.00633798 
167 1 1 0.0319404 -0.0441373 0.0222148 0 0 0 0.00102453 -0.00089116 0.00643311 0.000390529 -0.00674409 -0.000793819 0.800496 0.85443 -0.0318501 0.00633798 
136 1 1 0.0439636 -0.0444416 0.0240332 0 0 0 0.00213865 -0.00116697 0.00224328 -0.00341655 -0.00437622 -0.00939214 -0.00473367 -0.107253 0.0757238 0.00633798 
180 1 1 -0.0439 -0.0336771 0.0263634 0 0 0 0.000234097 -0.00104808 0.00222887 0.00178837 -0.00154431 0.00175448 0.396293 -0.113966 -0.159969 0.00633798 
256 1 1 -0.0324157 -0.0394682 0.0249849 0 0 0 -0.00362396 5.77582e-05 0.0121621 -0.00390235 -0.000943247 0.0020931 0.967291 -0.734401 0.665856 0.00633798 
179 1 1 -0.0343169 -0.0260773 0.0205293 0 0 0 -0.00155864 0.00651008 0.0141119 0.000774799 -0.00115686 0.00180429 -0.477171 -1.24553 0.344278 0.00633798 
7 1 1 -0.0198853 -0.0303145 0.0209173 0 0 0 -0.0018636 0.00592604 0.0052191 -0.0133209 -0.00592773 -0.00696032 0.348536 1.57468 -0.448027 0.0101408 
104 1 1 -0.00060791 -0.0285269 0.0242494 0 0 0 0.00761371 0.00081455 0.00345452 -0.0141873 -0.00832218 0.0297299 -0.0317607 0.822552 0.0669277 0.0101408 
128 1 1 -0.0445578 -0.0217052 0.0235533 0 0 0 -0.00311979 0.00291715 0.00405368 0.013832 0.00194618 -0.00253299 -0.240654 -0.382638 0.49808 0.00633798 
278 1 1 0.0327931 -0.017126 0.023394 0 0 0 0.00341715 0.0125827 0.0142761 0.00283308 0.00422548 0.00112828 -1.03091 0.158962 -0.753204 0.00633798 
146 1 1 -0.0444798 -0.00941644 0.0216708 0 0 0 -0.0037256 0.000436296 0.0133183 -0.000708099 -0.00353745 0.00804482 2.28903 -1.79886 -0.117966 0.00633798 
19 1 1 -0.026021 -0.0123632 0.0267517 0 0 0 -0.00330227 0.0214467 0.0118863 -0.00971802 0.0159629 -0.0240075 3.09764 1.79524 -0.669624 0.0101408 
258 1 1 0.00104259 -0.0126141 0.0268756 0 0 0 0.00501158 0.00468897 0.00846647 -0.00920984 0.0106262 -0.00182567 0.0980921 -1.08287 0.232387 0.00633798 
25 1 1 -0.037365 0.00442673 0.0218994 0 0 0 0.0076961 -0.000857107 0.0187955 0.0560429 -0.0223674 -0.00770696 -0.842122 1.6762 -1.14235 0.0101408 
28 1 1 -0.0164405 0.0176678 0.0201035 0 0 0 0.000519303 0.0087057 0.0111774 0.000489585 0.0107337 0.0136458 -0.209672 -0.150267 0.399148 0.0101408 
261 1 1 0.0435103 0.015593 0.0266972 0 0 0 -0.0259092 0.0259211 0.0240808 0.0252763 0.019514 -0.0107217 2.51228 0.949676 6.50924 0.00633798 
246 1 1 -0.0439274 0.0260391 0.027027 0 0 0 0.0023031 -0.00288981 0.00991375 -0.00242779 -0.00124743 0.00229311 0.502391 -1.31433 -0.640138 0.00633798 
23 1 1 -0.0279259 0.0326644 0.021517 0 0 0 -0.000203565 0.00565114 0.013694 -0.00110643 0.0117414 0.00970492 -0.0914514 1.02601 -0.0832841 0.0101408 
61 1 1 0.0367716 0.0406397 0.0202711 0 0 0 0.00246705 -0.000684654 0.00770016 0.00250651 0.0166291 -0.00846794 -0.491426 -0.400685 0.310599 0.0101408 
224 1 1 -0.043871 -0.0441187 0.0338991 0 0 0 0.00208078 -0.00272874 0.00348224 0.00246269 -0.00289033 0.0133499 0.390843 0.655081 -0.351539 0.00633798 
125 1 1 0.043747 -0.043765 0.0365793 0 0 0 -0.000488518 -0.00215828 0.00445177 0.000351911 -0.00164694 -0.0082364 0.187738 -0.0843008 0.0691222 0.00633798 
42 1 1 -0.0118581 -0.0403351 0.0351787 0 0 0 0.00103732 -0.000407852 0.00282971 -0.028825 -0.0112274 0.0183962 0.0298952 -1.29839 -0.0958394 0.0101408 
271 1 1 0.0308889 -0.0404053 0.0336964 0 0 0 0.00569114 -0.00160173 0.00791895 -0.000264467 -0.00373453 -0.00294174 -0.737073 -0.0903846 1.12618 0.00633798 
51 1 1 0.0178234 -0.0238304 0.0293311 0 0 0 0.010427 0.0125601 0.0162225 0.0114424 0.00629719 -0.00229056 2.03505 -1.79673 1.22059 0.0101408 
120 1 1 0.0406543 -0.0298137 0.0286682 0 0 0 0.000705118 0.00440038 0.00700803 0.00734319 0.00613892 0.000301771 0.907102 0.771701 -0.326832 0.0101408 
178 1 1 -0.0126324 -0.0204539 0.0309818 0 0 0 0.00475706 0.00763455 0.000524347 7.77956e-05 0.00194009 0.00695564 -1.58241 -1.44967 0.206196 0.00633798 
134 1 1 0.0439978 -0.0149152 0.0321081 0 0 0 -0.000701939 0.00713768 0.0145346 -0.00266175 0.0047894 0.00344386 0.224439 1.5606 1.31895 0.00633798 
310 1 1 -0.0104872 -0.00903447 0.0289969 0 0 0 0.010081 0.00847318 0.00795181 0.00358915 -0.00245712 -0.00341679 3.11025 0.145133 -1.10367 0.00633798 
18 1 1 0.0129797 -0.00548882 0.035339 0 0 0 -0.00195878 0.0153356 0.0182038 0.000207021 -0.001104 -0.00502001 -1.1199 -0.926665 -0.901954 0.0101408 
184 1 1 0.0279127 -0.00901992 0.0314481 0 0 0 -0.000480645 0.0149218 0.0256759 -0.00413586 -0.00079665 0.000332239 1.69807 -0.478472 1.42117 0.00633798 
112 1 1 -0.0180744 0.00402754 0.0340247 0 0 0 0.0230028 0.0120137 0.0314147 0.00480352 -0.0102556 0.00988954 -1.19044 2.92609 0.517082 0.0101408 
160 1 1 -0.0020744 -0.000595736 0.0300731 0 0 0 -0.00669409 0.0302816 0.0347964 -0.00925698 0.0080855 0.00740928 0.788905 -2.30257 5.6293 0.00633798 
55 1 1 0.0405495 0.000468551 0.0318116 0 0 0 0.0034564 0.0144663 0.0204544 0.0230261 0.00871628 -0.0280258 -0.176948 2.09904 -1.58644 0.0101408 
100 1 1 0.00697678 0.0123246 0.0289715 0 0 0 0.00277572 0.032621 0.0189585 -0.0454627 0.0550285 0.0339499 -2.55837 0.919277 -3.87402 0.0101408 
95 1 1 0.0244089 0.010322 0.0369701 0 0 0 -0.00176173 0.011979 0.0452036 -0.00873133 0.0110258 0.0203595 0.980325 -3.31856 0.879777 0.0101408 
2 1 1 -0.0315191 0.0185494 0.0341406 0 0 0 0.00722125 0.00615479 0.032638 -0.004349 -0.00799532 0.0375108 -1.14738 -0.774746 1.18057 0.0101408 
69 1 1 -0.00459071 0.0296944 0.0303777 0 0 0 -0.0196095 -0.00674154 0.0783004 -0.0413895 0.0582877 0.0525293 11.0647 1.07491 5.07978 0.0101408 
108 1 1 0.0266227 0.0284841 0.0317222 0 0 0 -0.00215553 0.00509167 0.0270478 0.00306191 0.0237313 -0.0213759 -3.01656 -0.961944 0.444556 0.0101408 
16 1 1 0.0119604 0.0407019 0.0285352 0 0 0 -0.010657 -0.00119068 0.00363849 0.00106763 0.020092 -0.0645203 -0.00402013 0.684813 -0.671306 0.0101408 
9 1 1 -0.040678 0.0411498 0.0321017 0 0 0 0.000769818 0.0051799 0.0110703 0.005544 0.0123668 0.0110498 -0.966099 -0.897943 0.402167 0.0101408 
323 1 1 -0.0115975 0.0440693 0.0299578 0 0 0 -0.0329254 -0.00370107 0.0324363 -0.0150458 0.00664307 0.00326029 -5.35759 -44.8825 -5.32401 0.00633798 
329 1 1 -0.023326 -0.0444333 0.0449171 0 0 0 -0.00282876 -0.000210729 0.00292985 -0.0114724 -0.00541166 0.0151389 -0.0802229 1.83732 0.181873 0.00633798 
168 1 1 0.00187108 -0.0444866 0.0398562 0 0 0 -3.80654e-05 -0.00174263 0.00498596 -0.00285008 -0.00478311 0.000879426 0.861428 2.0142 0.204235 0.00633798 
283 1 1 0.0310027 -0.0442399 0.0450728 0 0 0 0.000634246 -0.00319111 0.00909232 -0.00808147 0.0183044 0.00362416 1.02141 -1.17809 0.356576 0.00633798 
211 1 1 -0.0438049 -0.0329322 0.038621 0 0 0 0.00260726 -0.00296752 0.00635496 0.000891336 -0.000561174 0.00690629 -0.0786122 0.484536 0.799336 0.00633798 
191 1 1 0.00327636 -0.0322117 0.0401196 0 0 0 -0.00372658 0.00490934 -0.00160938 -0.00247371 -0.0062691 0.00665534 -1.95272 3.24156 0.57892 0.00633798 
3 1 1 0.0166572 -0.0405673 0.0396895 0 0 0 0.000978649 -0.00162711 -0.000575302 -0.0198684 -0.00397134 -0.011991 -0.152335 -0.858635 -0.283334 0.0101408 
93 1 1 -0.0266441 -0.0294069 0.0418285 0 0 0 -0.00455754 0.00511041 0.00674941 -0.042743 0.0446174 0.0423584 -0.0517461 1.22214 -0.164659 0.0101408 
43 1 1 -0.0085664 -0.0239831 0.046111 0 0 0 -0.00203599 0.00995691 0.0132143 -0.0124424 0.00292272 0.0148696 0.270861 -0.536294 -0.000438756 0.0101408 
105 1 1 0.0304403 -0.0282343 0.0458944 0 0 0 -0.00474758 0.00194857 0.0168757 -0.0222489 0.0017735 -0.000962901 0.0439171 -1.29428 0.403048 0.0101408 
66 1 1 -0.0409443 -0.0171909 0.0384553 0 0 0 -0.00444633 0.00230918 0.0127816 -0.0386948 0.0124166 0.0141785 0.715276 -1.11133 0.226568 0.0101408 
259 1 1 0.0248013 -0.0140265 0.0421666 0 0 0 -0.0018079 0.00388373 0.0238841 -0.00110817 -0.00450612 0.0027164 1.06638 1.37635 -1.208 0.00633798 
336 1 1 -0.0205434 -0.0127774 0.0421694 0 0 0 0.017023 -0.0317326 0.0189678 -0.00512142 -0.004914 0.00713442 11.7736 -1.29452 22.3496 0.00633798 
245 1 1 0.000774673 -0.0123093 0.0419821 0 0 0 -0.01167 0.0200636 0.00455044 0.0014975 0.00341137 -0.0026941 -8.07947 -6.69177 5.55317 0.00633798 
107 1 1 -0.0380773 0.00163469 0.0415826 0 0 0 0.000791084 -0.000170999 0.036303 0.0119521 0.000729469 0.0619758 0.855104 -1.81308 -0.916589 0.0101408 
303 1 1 0.0268999 -0.00257538 0.0456442 0 0 0 -0.011839 0.00457446 0.0436376 0.00546126 0.0154357 0.00706777 1.11828 -3.16604 2.4224 0.00633798 
208 1 1 -0.0443978 0.016134 0.0428156 0 0 0 -0.00396428 0.00344145 0.0182545 -0.00893734 0.0020112 0.00763899 -1.75126 -2.74871 0.788441 0.00633798 
282 1 1 -0.0186386 0.017151 0.0434455 0 0 0 0.019618 0.0300302 0.0247814 0.00879434 0.0158262 0.00538209 0.722083 3.46315 3.71786 0.00633798 
4 1 1 -0.00362672 0.0138251 0.0457794 0 0 0 0.0145837 0.0190655 0.0438512 0.00613565 -0.0437898 0.0607671 1.27975 -4.80299 -2.95762 0.0101408 
58 1 1 0.0407398 0.0192349 0.0421428 0 0 0 0.00557706 0.0181945 0.0409002 0.00625105 -0.0102676 -0.0157837 -2.67922 3.85177 -1.76474 0.0101408 
199 1 1 -0.0441803 0.0278483 0.0399472 0 0 0 -0.00222003 0.00287761 0.0132089 -0.00217666 -0.00263672 0.00395743 0.792313 -2.1945 0.503445 0.00633798 
192 1 1 -0.024184 0.0274007 0.0448385 0 0 0 -0.0349312 -0.00366627 0.0921422 0.0128092 -0.00392057 -0.00233295 11.4462 -2.87957 6.11485 0.00633798 
73 1 1 0.0105703 0.0271992 0.043197 0 0 0 0.0174069 0.0225703 0.0485665 0.000898857 0.017438 -0.00266587 -4.19115 2.53291 3.12059 0.0101408 
292 1 1 -0.0129191 0.0319828 0.0443599 0 0 0 -0.0370837 -0.00790305 0.0761402 0.00343115 -0.000190156 0.00559651 -8.19815 6.56809 -7.02603 0.00633798 
114 1 1 0.0401934 0.0401999 0.0399632 0 0 0 -0.00255754 0.0123041 0.0148259 -0.00484702 0.00677804 0.000758531 -1.31473 0.212443 -0.868552 0.0101408 
126 1 1 -0.0104658 0.0439818 0.044519 0 0 0 -0.00179989 -0.0052088 0.0131656 0.00356216 0.00103632 0.0200957 -2.11091 -6.47252 0.525144 0.00633798 
248 1 1 0.000879721 0.0437478 0.0398864 0 0 0 0.00686747 -0.00537574 0.0336369 -0.0178358 -0.0059457 -0.0255676 4.01604 2.78 -1.54555 0.00633798 
229 1 1 0.0124574 0.0440737 0.0443655 0 0 0 0.0213941 -0.00460422 0.00914925 -0.0297567 0.000805385 0.000311179 -0.78535 2.87369 2.81322 0.00633798 
314 1 1 -0.0163835 -0.0442103 0.0548691 0 0 0 -0.00115504 0.00286659 0.00739643 -0.00632728 -0.00828878 0.00842484 0.977096 -2.26823 0.180857 0.00633798 
265 1 1 0.0229445 -0.0438184 0.0544792 0 0 0 0.00301429 0.00258497 0.0125719 -0.0103887 0.00613397 -0.00340582 -0.20941 2.00827 -2.69471 0.00633798 
84 1 1 -0.0407097 -0.0330751 0.0544056 0 0 0 -0.00594633 0.0104435 0.0163424 -0.0384636 0.0495765 0.0512232 -1.12157 -1.48646 0.901943 0.0101408 
307 1 1 -0.0184005 -0.0323579 0.0554576 0 0 0 -0.0079468 0.00777069 0.0112924 -0.00815407 -0.00154509 0.0159769 -0.374472 -1.75237 1.37312 0.00633798 
337 1 1 -0.00589503 -0.0395819 0.0503413 0 0 0 0.0138645 -0.012065 0.00362515 0.00190311 -0.00120228 0.00548438 0.758514 3.44512 -4.84783 0.00633798 
326 1 1 0.0443578 -0.0255919 0.052648 0 0 0 0.00164254 0.00322464 0.0142371 0.00635011 -0.00105077 0.00608262 -1.45438 2.36901 -1.09074 0.00633798 
52 1 1 0.0119883 -0.0219565 0.0485509 0 0 0 -0.0151547 0.00746581 0.0271454 -0.0475591 -0.013901 0.00987932 4.79903 0.945367 -0.986395 0.0101408 
332 1 1 0.026115 -0.0151467 0.0544548 0 0 0 0.00742246 0.00435599 0.0335583 0.00345933 0.010076 0.0111658 1.49976 -0.715794 -0.239099 0.00633798 
220 1 1 -0.0437133 -0.00920952 0.0525414 0 0 0 0.00463902 -0.0149704 0.0340905 -0.000940028 -0.00598644 0.0127446 1.94706 4.8163 0.808949 0.00633798 
240 1 1 0.0169601 -0.00725647 0.0519212 0 0 0 0.00439198 0.00165348 0.0595766 0.00282178 -0.0052364 -0.00695613 -0.349164 5.45089 -0.0671778 0.00633798 
5 1 1 0.0402747 -0.0110938 0.0479005 0 0 0 0.000495858 0.0085079 0.0266895 -0.00640837 0.0157657 0.00823896 1.46865 2.52146 -0.451721 0.0101408 
133 1 1 -0.0282913 -0.00311001 0.0536363 0 0 0 0.0175963 0.0242065 0.0584956 0.0287685 -7.06069e-05 0.0197175 -7.09997 -13.3005 11.1625 0.00633798 
24 1 1 -0.00970083 -0.00423654 0.0509758 0 0 0 -0.00149499 0.0131348 0.0276115 0.00535523 -0.029421 0.0111484 2.7953 9.12908 0.0703587 0.0101408 
318 1 1 0.0440351 0.00439122 0.0471805 0 0 0 0.00373707 0.0109934 0.0382349 -0.00139448 -3.95133e-05 0.00202477 2.29059 6.53559 -1.4074 0.00633798 
236 1 1 -0.024498 0.00755971 0.0486264 0 0 0 0.0144488 0.0255399 0.0332088 0.0100126 0.00270616 0.0122463 -2.49547 -4.90558 -2.26619 0.00633798 
15 1 1 0.0136879 0.00809158 0.0532609 0 0 0 0.0015412 0.00374298 0.0574455 0.0184578 -0.0213976 0.0548057 -1.65158 3.62272 1.29092 0.0101408 
298 1 1 0.0293161 0.0131525 0.0524102 0 0 0 0.00476821 0.0237124 0.0498601 0.00803763 0.00570281 0.002584 -2.71135 4.20191 -0.791788 0.00633798 
335 1 1 -0.0342674 0.0158904 0.0501555 0 0 0 -0.0256024 -0.00285495 0.0444633 -0.0032215 -0.00872629 0.0145158 -1.78453 -3.28648 -3.66474 0.00633798 
266 1 1 0.0209122 0.0222659 0.0566686 0 0 0 -0.00884135 0.0171377 0.0900994 -0.00116335 0.00301388 0.0342252 18.3393 13.6898 5.78533 0.00633798 
262 1 1 -0.035817 0.0282097 0.0491416 0 0 0 -0.0423016 -0.0021802 0.0598458 0.00117293 -0.00278227 -0.00552651 6.30978 -6.79811 6.49274 0.00633798 
122 1 1 -0.0259849 0.0406256 0.0526747 0 0 0 -0.0497912 0.00625204 0.0814221 -0.0171821 0.00344909 0.0236756 -8.55216 -4.29321 -5.33599 0.0101408 
47 1 1 0.0240612 0.0379229 0.0535578 0 0 0 -0.0161991 0.0375187 0.114331 -0.0298163 0.0304174 0.0491645 -8.96838 -9.90593 -2.22299 0.0101408 
327 1 1 -0.0436736 0.0436901 0.0480474 0 0 0 0.00847236 -0.0076723 0.0262012 -0.0069448 -0.00160782 0.006088 3.88574 3.7068 2.05807 0.00633798 
203 1 1 0.0417142 0.0439393 0.0557757 0 0 0 -0.00168503 -0.00684812 0.054266 9.28335e-05 -0.00186696 -0.00170117 -10.7377 1.84586 -1.20874 0.00633798 
190 1 1 -0.00671472 -0.0439891 0.062429 0 0 0 -0.00383334 -0.00311125 0.0100929 -0.00427393 -0.000371959 0.00641097 1.30326 1.90528 0.171593 0.00633798 
56 1 1 0.00796919 -0.0387896 0.0586779 0 0 0 0.00117318 0.000218889 0.0379241 0.00734898 0.010026 0.0596381 -5.09729 -5.85755 1.74866 0.0101408 
49 1 1 0.040558 -0.040526 0.057136 0 0 0 0.000722748 -0.00245081 0.0149907 0.0187807 -0.0302283 0.00639377 1.29998 1.34831 0.166797 0.0101408 
137 1 1 -0.00160194 -0.0233129 0.0609905 0 0 0 -0.00337772 0.0379724 0.0237682 0.00345179 -0.000342871 0.0065871 -0.546604 0.0863093 10.5061 0.00633798 
91 1 1 0.0230125 -0.0271764 0.064436 0 0 0 -0.00320119 0.0151171 0.0369345 -0.0147784 0.072711 0.0870447 -1.38408 1.42083 -2.59907 0.0101408 
247 1 1 0.0390532 -0.025783 0.0650119 0 0 0 0.00707638 0.0131372 0.12016 0.00179598 -0.00339657 0.00264322 12.8091 -13.9075 5.00244 0.00633798 
81 1 1 -0.0225935 -0.0172314 0.0585774 0 0 0 0.0274251 0.0169772 0.0715813 0.100675 0.0749155 0.200483 4.78164 5.19521 -4.74653 0.0101408 
217 1 1 0.0440373 -0.0145996 0.0634969 0 0 0 -0.00751689 0.0123275 0.0632395 0.000206273 -0.0112572 -0.00216239 -23.9562 11.5946 -1.7975 0.00633798 
10 1 1 0.00488333 -0.0062016 0.0644564 0 0 0 0.000278203 -0.0121438 0.0479642 -0.0410808 0.0186833 0.0436878 2.05216 -10.6835 1.69883 0.0101408 
197 1 1 -0.0201258 2.62473e-05 0.0627526 0 0 0 0.0336673 -0.0191689 0.094142 0.0197 7.2906e-05 0.0267453 -2.97923 -1.66362 5.28618 0.00633798 
87 1 1 0.0285598 0.000585335 0.0638365 0 0 0 0.00114725 0.0279775 0.0908798 0.0796707 0.0688409 0.103475 -4.06116 -4.47508 -1.52143 0.0101408 
148 1 1 0.0441038 -0.00235711 0.0616286 0 0 0 -0.000664012 0.0146246 0.0571239 0.0101126 0.00540825 0.0124405 23.275 9.48598 -2.25348 0.00633798 
32 1 1 -0.0397132 0.00524715 0.0612142 0 0 0 -0.0150999 -0.00739847 0.0586376 -0.0652448 -0.0747373 0.0145539 2.6739 8.13548 -1.39129 0.0101408 
115 1 1 -0.00437263 0.0114779 0.0656121 0 0 0 -0.000995371 -0.000328665 0.0487565 0.0149273 -0.0514384 -0.0134877 1.96944 2.11748 -2.7491 0.0101408 
291 1 1 0.0437924 0.0128209 0.0568246 0 0 0 -0.0166442 -0.0081928 0.0665315 -0.00370272 0.00159282 -0.00940825 4.95436 11.9798 2.05501 0.00633798 
117 1 1 -0.0214866 0.0212531 0.0596396 0 0 0 0.00303888 -0.0221965 0.0937029 0.0325964 -0.0610813 -0.0196075 -2.76639 3.62139 -0.614559 0.0101408 
140 1 1 0.00833625 0.0203922 0.0613205 0 0 0 0.0175374 0.0159231 0.0523635 0.00824079 -0.00141844 0.0314917 -2.87075 3.33024 -1.2018 0.00633798 
39 1 1 -0.0403119 0.0249889 0.0644519 0 0 0 -0.00360264 0.000558058 0.0685355 0.0175058 -0.0615698 -0.0344908 -1.47715 -6.2258 0.00960227 0.0101408 
99 1 1 -0.00376412 0.0299256 0.057555 0 0 0 -0.00491039 0.00438873 0.061564 0.0103755 -0.0128781 0.00999443 1.20133 0.117726 2.54065 0.0101408 
106 1 1 0.0401395 0.0284695 0.0604058 0 0 0 -0.0111719 0.0129576 0.130648 0.00248406 -0.0514496 0.0298988 0.482801 13.4943 -3.5339 0.0101408 
174 1 1 -0.043647 0.0427695 0.0606578 0 0 0 0.0133628 -0.0162208 0.0311649 -0.00170578 -0.000675033 0.0104254 -3.03606 -2.43536 -1.80186 0.00633798 
315 1 1 -0.0117174 0.04386 0.0599355 0 0 0 -0.0163865 0.00540064 0.0526268 0.00517154 0.00375198 0.000188306 -8.29596 8.12259 -2.29392 0.00633798 
158 1 1 0.00180124 0.0441267 0.0621504 0 0 0 0.00627266 0.00908221 0.0161561 0.00267227 0.00695309 -0.0142279 -2.45637 19.8213 0.563414 0.00633798 
189 1 1 0.0275115 -0.0438356 0.0660226 0 0 0 -0.0127753 0.00524097 0.0155261 -0.00408318 0.00341453 0.00789867 -2.55796 -4.08345 -1.9332 0.00633798 
186 1 1 0.0435605 -0.0437403 0.0730597 0 0 0 -0.0234102 -0.0053416 0.0805349 0.0148633 -7.09451e-05 0.0177173 13.0261 -2.23737 3.57912 0.00633798 
230 1 1 -0.0397445 -0.03262 0.0723992 0 0 0 0.00456101 0.00909442 0.0707884 -0.011882 0.00688295 0.017031 -8.87246 3.24926 -1.43139 0.00633798 
6 1 1 -0.0266541 -0.0403572 0.0665757 0 0 0 -0.00198539 0.00624238 0.0192558 -0.0588621 0.00159123 0.125941 0.170979 1.87171 -0.871017 0.0101408 
313 1 1 -0.0136747 -0.0286986 0.0663227 0 0 0 -0.0467798 -0.0734267 0.0706831 -0.0248125 -0.0260858 0.0342962 15.5809 -6.78235 -3.58617 0.00633798 
227 1 1 0.00740069 -0.0260187 0.0694896 0 0 0 -0.016454 0.0408032 0.0169293 -0.0185215 0.0116945 0.00426651 6.89898 -4.24221 -2.93187 0.00633798 
165 1 1 0.0438232 -0.0313377 0.0750819 0 0 0 -0.0147951 -0.0198207 0.126907 0.0053077 -0.0137344 0.00408854 -5.82964 6.14711 -4.07807 0.00633798 
36 1 1 -0.0404624 -0.0175432 0.0669929 0 0 0 0.00926534 0.0103841 0.0605022 0.0678495 0.0544825 0.10947 4.72076 -6.7845 1.66104 0.0101408 
215 1 1 0.0323755 -0.0146332 0.067553 0 0 0 -0.00801528 0.0180188 0.0958006 0.00580979 0.00131662 0.0284344 10.1939 -7.93941 5.20826 0.00633798 
169 1 1 0.043719 -0.0187435 0.0754148 0 0 0 0.0120313 -0.0112907 0.0542368 0.00654451 -0.00575179 -0.0305121 -5.46191 2.40835 -1.54948 0.00633798 
182 1 1 -0.0298608 -0.00536499 0.068469 0 0 0 0.0168536 0.0184176 0.123488 0.0174323 -0.00376788 0.0387626 -21.0855 -9.82488 3.41078 0.00633798 
204 1 1 -0.0184001 -0.0082145 0.0725647 0 0 0 0.0569382 0.0137076 0.0669278 0.0261288 0.0120653 0.064979 -7.70811 29.1091 -14.23 0.00633798 
276 1 1 0.0194799 -0.0120176 0.0684782 0 0 0 0.0101809 0.0150409 0.0881633 -0.0156314 0.00902932 0.00823699 7.88189 7.28752 4.24217 0.00633798 
306 1 1 -0.043843 -0.0035119 0.0742831 0 0 0 -0.0077338 -0.00859141 0.0713771 -0.0112257 -0.000399514 0.0142051 -1.30521 -5.1682 -6.65805 0.00633798 
338 1 1 0.0412209 0.00935659 0.0686228 0 0 0 0.0496448 -0.0251574 0.0937832 0.0293417 0.0303126 -0.000401543 -1.50241 2.23497 -12.0891 0.00633798 
263 1 1 0.01065 0.0161597 0.0732765 0 0 0 -0.0738948 -0.0397974 0.0363017 0.0029929 0.0198725 -0.000477601 0.414167 -10.0144 -2.20376 0.00633798 
45 1 1 0.0271712 0.0187553 0.0723488 0 0 0 -0.0830119 0.0317093 0.0978167 -0.049849 0.102827 0.027903 3.58874 -18.3082 -3.58305 0.0101408 
322 1 1 0.0438992 0.0201716 0.0739068 0 0 0 0.0039263 -0.0168175 0.106222 -3.42116e-05 0.00563774 0.00743017 1.16248 -13.7177 14.3439 0.00633798 
35 1 1 -0.0275328 0.0387046 0.0724399 0 0 0 -0.114943 -0.034584 0.087993 -0.046992 0.0498018 0.10987 14.7535 -0.878603 -2.46971 0.0101408 
113 1 1 0.0105289 0.0323062 0.071627 0 0 0 -0.0267701 -0.0182875 0.101193 0.0446886 0.0617962 -0.0110184 6.33492 -12.2774 -1.14048 0.0101408 
76 1 1 0.0287607 0.040113 0.0737177 0 0 0 -0.00616989 -0.0100314 0.118155 0.0520185 -0.0174256 -0.040553 -11.7226 8.46116 0.0801075 0.0101408 
195 1 1 0.0436312 0.0324337 0.0761482 0 0 0 0.0234628 -0.0272993 0.171139 0.0460638 0.0121946 -0.0405705 8.81377 11.7 -17.9845 0.00633798 
124 1 1 0.0437815 0.0431277 0.0680611 0 0 0 -0.0137643 -0.0122609 0.072165 0.0114296 0.0020667 -0.0158731 11.6495 -6.3292 1.62594 0.00633798 
252 1 1 -0.038909 -0.0441551 0.0763646 0 0 0 0.00918751 0.00365817 0.0603484 -0.034583 0.00471388 0.01111 9.94112 6.7173 -1.1143 0.00633798 