ITEM: TIMESTEP
19600
ITEM: NUMBER OF ATOMS
338
ITEM: BOX BOUNDS mm mm mm
-0.05 0.05
-0.05 0.05
0 0.15
ITEM: ATOMS id type type x y z ix iy iz vx vy vz fx fy fz omegax omegay omegaz radius 
319 1 1 -0.0149725 -0.0442112 0.00566702 0 0 0 -0.020056 -0.00230904 0.00329511 0.0359918 -0.0655487 -0.0326975 -0.358235 -4.94331 -3.653 0.00568888 
243 1 1 -0.00361284 -0.0442497 0.00566511 0 0 0 -0.0106827 -0.0311824 -0.000340937 0.035717 0.00926172 0.000523597 1.44454 3.67198 -1.06587 0.00568888 
260 1 1 0.0216533 -0.044443 0.00541454 0 0 0 -0.00675983 0.00532795 0.000439404 -0.00531232 -0.00678165 -0.00588083 -0.578307 -1.0543 1.83484 0.00568888 
78 1 1 0.0395142 -0.0415087 0.00853597 0 0 0 -0.00414279 0.00556909 -0.00165321 -0.00884516 -0.00777168 -0.0150792 -0.521835 -0.400898 0.192889 0.00910222 
74 1 1 -0.0393327 -0.0362677 0.0090322 0 0 0 0.0412652 -0.0116335 -0.0285693 -0.432965 0.0719188 0.355721 1.33575 -4.90264 5.01267 0.00910222 
131 1 1 -0.0256682 -0.0403745 0.0055277 0 0 0 0.0593506 -0.0122042 -0.00137595 -0.0741793 0.0519015 -0.0427486 2.91442 10.858 -10.8991 0.00568888 
60 1 1 0.00803362 -0.0356964 0.00864933 0 0 0 -0.0157684 -0.0105235 0.00623337 0.410772 -0.185453 -0.023039 0.889481 -2.24478 3.31543 0.00910222 
296 1 1 -0.02742 -0.0282037 0.00566214 0 0 0 0.0395672 0.0456042 0.00590556 -0.00648247 -0.00414009 0.014971 -8.57595 7.82445 3.55222 0.00568888 
173 1 1 -0.015766 -0.0298364 0.00567035 0 0 0 0.0643662 -0.0483551 0.00365929 2.90456e-05 -1.95944e-05 0.00151303 8.51542 11.3333 19.7628 0.00568888 
275 1 1 -0.00226567 -0.0262938 0.00530923 0 0 0 -0.00404 -0.000149395 0.00127335 -0.0119436 -0.0243501 0.00222188 0.971346 -0.335733 -7.86673 0.00568888 
144 1 1 0.0398831 -0.0268039 0.00567036 0 0 0 -0.025067 -0.0086449 0.00367296 -1.11458e-05 -3.84386e-06 0.00147756 1.5222 -4.41381 -5.13845 0.00568888 
102 1 1 -0.0413127 -0.0185792 0.00858259 0 0 0 0.00349029 0.00315588 0.0024882 0.0803725 -0.160229 -0.134137 -1.02759 0.760347 -0.450705 0.00910222 
328 1 1 -0.0270695 -0.0163381 0.00564605 0 0 0 0.0200966 -0.0133861 0.0130639 -0.097457 0.0059972 -0.0213641 -2.43971 -5.4103 -0.856204 0.00568888 
40 1 1 -0.0118816 -0.0158891 0.00892874 0 0 0 -0.00608578 0.00493907 0.0115804 0.151978 0.0747304 0.0742261 -0.59427 -0.706246 4.01162 0.00910222 
279 1 1 0.00393436 -0.0170937 0.00603037 0 0 0 0.0417045 -0.0220057 0.0291501 -0.00382914 -0.0118299 0.0136778 4.89724 0.304803 -0.740799 0.00568888 
267 1 1 0.0149134 -0.0210703 0.00567036 0 0 0 -0.0126535 -0.0457957 0.00367256 -5.6258e-06 -2.03609e-05 0.00147882 8.06372 -2.22804 -20.5271 0.00568888 
202 1 1 0.0444315 -0.0159774 0.00555475 0 0 0 -0.00357771 0.00509305 0.00387324 0.00991619 0.0109508 0.00459557 -1.1743 0.639936 -0.863986 0.00568888 
274 1 1 -0.0223466 -0.00607645 0.00563263 0 0 0 -0.0180824 0.000132607 0.0287276 -0.0533809 -0.0693071 -0.0490016 2.84782 -2.8354 7.30908 0.00568888 
50 1 1 0.0259879 -0.0100863 0.00887103 0 0 0 0.0127389 0.0232909 0.00304622 0.0449935 -0.0356553 -0.0194962 -3.20098 1.23637 -5.81466 0.00910222 
257 1 1 -0.0430328 -0.00405687 0.00567026 0 0 0 0.0218028 0.030732 0.00356217 9.49429e-06 1.32099e-05 0.00181855 -5.41128 3.8391 -7.15905 0.00568888 
164 1 1 0.0208146 0.00367931 0.00550209 0 0 0 -0.0126355 -0.00180805 0.0025334 -0.0374153 0.0257081 0.00911345 0.443011 -3.65837 -4.86371 0.00568888 
268 1 1 -0.0314867 0.00897708 0.00544886 0 0 0 -0.00391537 0.0035537 0.00169861 0.001287 -0.0133743 -0.00860732 0.100471 0.997659 12.511 0.00568888 
171 1 1 -0.0211617 0.00508704 0.00672115 0 0 0 -0.00359922 0.0219796 0.0260668 0.00428531 -0.00772497 -0.0230355 -7.60013 -4.28455 -9.25679 0.00568888 
232 1 1 -0.038585 0.0177853 0.00539682 0 0 0 -0.00172991 0.0159164 -0.00225503 0.0073644 0.00250881 0.00733803 -2.69207 -0.202133 -14.913 0.00568888 
297 1 1 -0.0264654 0.0188792 0.0054972 0 0 0 0.00439756 0.00441232 0.00434831 -0.0128066 0.00284904 -0.00604789 -0.177547 0.0274728 -14.1631 0.00568888 
222 1 1 -0.0122661 0.0158939 0.00517455 0 0 0 0.00784666 -0.0147735 0.00164749 -0.00028577 0.0156169 -0.0140357 2.70341 1.51315 -1.56471 0.00568888 
290 1 1 -0.00110789 0.0180561 0.00564933 0 0 0 0.00689979 0.035789 0.00881451 -0.0101258 -0.0149814 0.0114832 -5.82444 1.0885 24.6354 0.00568888 
98 1 1 0.0132221 0.0156481 0.00900725 0 0 0 0.00247687 -0.00627506 0.00943668 0.0178662 0.288023 0.115238 1.49893 -0.20465 -1.16522 0.00910222 
316 1 1 0.0273298 0.0176998 0.00559731 0 0 0 -0.00682808 0.0616573 -0.00444599 0.0142465 0.0108451 -0.00172572 -10.4052 -1.40929 -20.3587 0.00568888 
162 1 1 0.0440579 0.0169698 0.00567085 0 0 0 0.0108463 -0.0570752 0.0165615 0.00167748 -0.0054872 -0.00105122 10.841 2.32067 6.18773 0.00568888 
294 1 1 -0.0444315 0.0289304 0.00558594 0 0 0 0.00435912 -0.00792423 0.00362012 -0.0129605 0.0015402 -0.000502433 0.809302 -0.703898 -1.4254 0.00568888 
255 1 1 -0.0195965 0.0275906 0.00552026 0 0 0 0.0407357 -0.019589 -0.00210984 -0.00902441 -0.000169342 0.00336175 3.53911 7.10122 6.72369 0.00568888 
324 1 1 -0.00613356 0.0307923 0.00565841 0 0 0 0.0564767 0.0212055 0.00562633 0.00206053 -0.00033609 -0.0243792 -3.4537 10.203 10.7906 0.00568888 
77 1 1 0.0218875 0.0314351 0.00848458 0 0 0 0.0175914 0.000660804 0.00667391 0.0222514 -0.00274836 0.00876624 -0.310842 2.08887 1.42143 0.00910222 
155 1 1 0.0356679 0.0269703 0.00566061 0 0 0 0.0266351 0.0119689 -0.002517 0.00200266 -0.0093598 -0.0200311 -2.05054 4.31869 0.120815 0.00568888 
175 1 1 -0.0335043 0.032585 0.00560541 0 0 0 -0.00383828 0.00626431 0.00610746 0.00260179 -0.0024151 -0.00519252 -1.07584 -0.684607 -8.62133 0.00568888 
161 1 1 0.00741911 0.0320607 0.00562964 0 0 0 -0.00159823 -0.00583486 0.0066902 -0.00293452 0.0103207 0.000782606 1.11412 -1.32175 -0.948291 0.00568888 
289 1 1 0.0445066 0.0360954 0.00545425 0 0 0 -0.000325599 0.0942861 0.00156407 0.00539889 0.00740018 -0.00573173 -16.8715 0.176706 -16.8263 0.00568888 
321 1 1 -0.0444639 0.0444506 0.00556664 0 0 0 0.00238782 -0.00250053 0.00237327 -0.00523481 0.00104189 -0.00225868 -0.016331 -0.240327 -0.372483 0.00568888 
207 1 1 -0.0328262 0.0442438 0.00567036 0 0 0 0.0133301 -0.00511695 0.00367255 5.92663e-06 -2.27501e-06 0.00147878 0.900995 2.34718 2.35996 0.00568888 
38 1 1 -0.0160255 0.0413212 0.00868884 0 0 0 0.00904243 -0.00674876 0.00370298 0.0138622 0.0897271 -0.0164167 -0.0434392 0.864632 0.839524 0.00910222 
149 1 1 0.00794643 0.0443196 0.0056659 0 0 0 0.0494763 -0.00401894 0.00433962 -0.000712006 -0.00113333 -0.0114295 0.775665 8.77445 8.76154 0.00568888 
249 1 1 0.0289542 0.0440977 0.00566472 0 0 0 -0.0109354 0.0295849 0.00788068 0.0239495 -0.0154483 -0.0269528 -5.33606 -1.8608 -0.651192 0.00568888 
299 1 1 -0.02731 -0.0448592 0.0156729 0 0 0 0.0462776 -0.00265264 -0.00738074 -0.0092465 -0.0147371 0.0115295 -1.6986 -5.33572 -8.56071 0.00568888 
130 1 1 0.0167869 -0.0447382 0.0153383 0 0 0 0.000372356 0.00186592 0.00894092 0.00623258 -0.00486312 -0.00515462 -0.0656864 2.5904 -0.212094 0.00568888 
167 1 1 0.0277134 -0.044549 0.0176566 0 0 0 0.000505314 -0.00159421 -0.0011677 0.000206769 -0.00444333 0.000633042 0.0474459 -0.615468 0.128698 0.00568888 
67 1 1 0.0249821 -0.0316071 0.0113795 0 0 0 -0.0135422 0.0121252 0.0212168 -0.0408276 0.038866 0.0258864 2.78528 1.61187 0.210971 0.00910222 
278 1 1 0.0319917 -0.0204689 0.0167996 0 0 0 -0.00716115 0.0172019 0.024407 0.00470583 0.00362691 8.10605e-05 -1.26847 2.38497 0.436769 0.00568888 
183 1 1 0.0407143 -0.0137044 0.0159248 0 0 0 -0.0175823 0.0394875 0.00115554 0.00902449 0.00738144 0.00280176 -5.74668 -2.3074 3.80988 0.00568888 
146 1 1 -0.0445044 -0.00746177 0.0174349 0 0 0 0.00376639 -0.00252342 0.0273903 -0.0310473 -0.00393497 -0.0157581 5.67952 -5.14248 0.5956 0.00568888 
17 1 1 -0.00724542 0.00344703 0.010603 0 0 0 -0.00818025 -0.0141903 0.0394886 0.0514209 0.0172719 -0.0391602 -7.94445 3.38943 -3.13299 0.00910222 
96 1 1 0.00909407 -0.00396855 0.00959418 0 0 0 -4.18431e-05 0.00711319 0.0230912 0.0754799 0.0140066 -0.0234739 -2.72143 3.37309 6.97015 0.00910222 
25 1 1 -0.0411428 0.00669101 0.0159681 0 0 0 0.00163311 7.88469e-05 0.0123148 0.00483636 -0.0933922 -0.121653 -6.29384 -1.49759 0.0897681 0.00910222 
94 1 1 0.0346306 0.0056747 0.00963657 0 0 0 -0.00711588 0.0511735 -0.02494 0.0155895 -0.00119813 -0.0242383 4.90601 7.27948 10.3215 0.00910222 
261 1 1 0.0445804 0.0122857 0.0177398 0 0 0 0.00121913 0.00706089 0.0126705 -0.0574844 -0.0669944 -0.00126498 26.4479 2.38731 -1.39112 0.00568888 
300 1 1 -0.0443999 0.0210349 0.0153257 0 0 0 -0.000857335 0.0023641 -0.00461264 0.00838826 -0.00166161 0.021267 7.22528 1.75198 -0.155756 0.00568888 
273 1 1 -0.0331502 0.0207571 0.014505 0 0 0 -0.00234606 -0.0135214 0.0105538 0.0272918 -0.00705433 0.00820066 -1.40053 -5.91744 -2.85461 0.00568888 
28 1 1 -0.0184797 0.0189706 0.0176096 0 0 0 0.0146495 -0.0168909 0.0125908 0.00242215 0.0724672 -0.00735764 -1.46882 0.249851 1.30674 0.00910222 
286 1 1 -0.00173234 0.015657 0.0167174 0 0 0 0.0240146 -0.00750246 0.0186005 0.002377 0.00884353 0.0181434 9.96431 -2.74971 0.438597 0.00568888 
284 1 1 0.0408517 0.0226001 0.015013 0 0 0 0.0580497 0.0392453 0.00949832 0.0198337 -0.000471539 0.0106866 -27.9923 5.53515 -11.8613 0.00568888 
320 1 1 0.00336672 0.0253188 0.0137498 0 0 0 0.0119845 0.000276655 0.0259961 0.00583324 0.00766105 0.0205247 -3.48434 5.21983 1.39269 0.00568888 
305 1 1 -0.0411536 0.0367016 0.0130118 0 0 0 0.000916027 -0.00503831 0.0124623 -0.00288092 -0.00178051 -0.000134559 -0.508238 -1.37648 0.862376 0.00568888 
61 1 1 0.0364497 0.0364157 0.0175157 0 0 0 0.0172231 0.0382869 0.0221305 0.0169909 -0.00685941 -0.00955876 16.3343 2.7026 12.7773 0.00910222 
237 1 1 -0.00181815 0.0442715 0.0114746 0 0 0 0.0221166 0.00125803 -0.0267083 -0.00963146 -0.00646035 0.0720624 -10.7102 -14.2005 -3.92812 0.00568888 
239 1 1 0.0195837 0.044867 0.0122129 0 0 0 0.00845065 0.00192714 0.0087246 0.0185757 0.0132773 0.00214957 -1.47318 7.0022 1.71273 0.00568888 
331 1 1 -0.0422677 -0.0448591 0.0201025 0 0 0 0.00347848 0.0045475 -0.00667542 -0.00375426 -0.10794 -0.0366804 -0.27663 -4.91657 -1.09778 0.00568888 
225 1 1 -0.00436132 -0.0444132 0.0188663 0 0 0 -0.0269836 0.00465678 0.00193683 -0.00574099 -0.019815 1.78016e-05 0.307357 59.8992 4.71792 0.00568888 
242 1 1 0.00799643 -0.0444947 0.0221378 0 0 0 0.0292298 0.000823792 0.0591101 0.00846529 -0.00239965 0.0236296 9.95352 7.0835 -5.86486 0.00568888 
136 1 1 0.0443997 -0.0443732 0.0220628 0 0 0 -0.00151622 0.00165065 0.00315451 -0.00609175 -0.00399613 -0.0032933 0.75086 0.583827 -0.0812694 0.00568888 
180 1 1 -0.0446102 -0.0345032 0.0234039 0 0 0 0.0037961 0.00474535 0.00065263 -0.00680497 -0.00765791 0.0126413 1.97303 0.253545 0.862583 0.00568888 
256 1 1 -0.0343625 -0.0385755 0.0247494 0 0 0 0.0112061 -0.0128226 -0.00851881 -0.103718 -0.00494189 0.0589445 -3.75629 2.76248 -4.66669 0.00568888 
7 1 1 -0.0224122 -0.0322194 0.0197264 0 0 0 0.00877418 0.00907432 0.0108433 0.00271852 -0.0180794 -0.0332056 0.0643063 -5.81367 7.29541 0.00910222 
271 1 1 0.0331763 -0.0401719 0.02628 0 0 0 -0.015631 0.00887877 0.00464285 0.00735231 -0.00575292 0.0064019 -3.23863 -3.30668 -0.769345 0.00568888 
128 1 1 -0.0448807 -0.0234289 0.02191 0 0 0 0.00065853 0.00369067 0.0105606 0.0220965 9.71272e-05 0.012387 0.111452 -1.82803 0.0553897 0.00568888 
179 1 1 -0.0350833 -0.0264286 0.0189705 0 0 0 -0.0046305 -0.0219654 -0.00325821 0.0263388 -0.0201597 -0.00525521 4.3127 3.15231 -4.9953 0.00568888 
104 1 1 -0.00532652 -0.0297804 0.018907 0 0 0 0.0107507 0.0165881 0.0195817 -0.0564939 -0.110469 -0.0144163 -0.926813 5.0765 -7.03453 0.00910222 
51 1 1 0.0108946 -0.0236885 0.021552 0 0 0 0.0299236 -0.0233614 0.0358817 -0.368651 0.176877 0.00289227 -0.871001 -8.43199 2.05591 0.00910222 
120 1 1 0.0415673 -0.0299186 0.0213779 0 0 0 -0.00277716 0.00521972 0.00742948 0.00818585 0.0109119 0.0139835 1.58414 0.410726 -0.49659 0.00910222 
178 1 1 -0.0161565 -0.0192224 0.0226565 0 0 0 -0.00576173 -0.00135121 0.0269692 0.0302433 0.00592855 0.0365029 2.69116 3.07438 -11.7605 0.00568888 
258 1 1 -0.00432553 -0.0154759 0.0214646 0 0 0 -0.03298 0.023193 0.0495152 0.0660534 -0.0431212 0.0702248 10.1293 -5.88959 13.1077 0.00568888 
134 1 1 0.044603 -0.0168054 0.0264143 0 0 0 -0.00503567 0.0110772 -0.000500598 -0.0152813 -0.0254147 -0.00170526 -4.96729 0.0962308 0.626541 0.00568888 
19 1 1 -0.0298244 -0.013418 0.021487 0 0 0 0.00673634 -0.0273871 0.0347235 -0.0306805 0.0846254 0.0179977 -0.348166 -5.83165 1.44702 0.00910222 
310 1 1 -0.016157 -0.00811589 0.0205619 0 0 0 0.0103521 -0.0043842 0.0311935 0.0205955 0.0550687 -0.0124749 -1.69685 14.4817 6.50542 0.00568888 
160 1 1 -0.00137044 -0.00436478 0.0212911 0 0 0 -0.0288784 0.04504 0.107927 0.00384012 -0.137945 -0.00866855 -8.41282 -4.91923 -4.82775 0.00568888 
245 1 1 0.0042218 -0.0116802 0.0274127 0 0 0 -0.0168749 0.00731629 0.0640649 -0.0585324 0.0586161 -0.116435 15.1004 15.7625 -0.0427891 0.00568888 
18 1 1 0.0181106 -0.00836244 0.0257458 0 0 0 -0.00375156 -0.00108375 0.035529 -0.0385436 -0.0103815 -0.0048092 -6.41914 -5.99622 -1.91508 0.00910222 
184 1 1 0.0314475 -0.0123427 0.0239066 0 0 0 0.00576068 0.0166269 0.0415693 0.00459086 -0.00440029 0.00472903 3.10982 11.1581 8.84226 0.00568888 
112 1 1 -0.0247444 0.00346019 0.023027 0 0 0 0.00231458 -0.0137677 0.0373994 -0.0326105 0.0831715 0.0378269 -2.38228 -3.23361 -1.44028 0.00910222 
55 1 1 0.0415155 -0.00266772 0.0253072 0 0 0 0.000563111 0.0313203 0.0298789 -0.0528051 0.162478 0.0795007 6.42328 3.4469 -3.15208 0.00910222 
100 1 1 0.00893583 0.006824 0.024215 0 0 0 -0.000305805 0.00602204 0.0394498 0.0147101 -0.338208 -0.106238 9.54252 2.42532 0.983808 0.00910222 
95 1 1 0.0267353 0.0070197 0.0273059 0 0 0 -0.0223999 0.0252724 0.0686945 -0.0306249 0.0362873 0.0349724 4.2533 -5.69114 4.72741 0.00910222 
246 1 1 -0.0442424 0.0273819 0.0247018 0 0 0 -0.0120303 -0.0119291 0.0204446 -0.0105763 -0.0150071 0.0351863 -2.77951 -10.0961 -7.31859 0.00568888 
108 1 1 0.0220222 0.0235463 0.0242538 0 0 0 0.0230368 0.0521122 0.0424165 0.0162896 -0.657536 -0.0260203 -6.61132 2.9109 -11.042 0.00910222 
23 1 1 -0.0283147 0.0337062 0.0193079 0 0 0 0.00927343 -0.0120906 0.0152993 0.0284391 0.0607266 0.0181766 0.548701 0.88396 -0.956657 0.00910222 
69 1 1 -0.00723127 0.032017 0.0212027 0 0 0 0.0103071 -0.00284114 0.0303784 0.138796 -0.0437929 -0.00906067 1.41875 -2.31506 -0.137883 0.00910222 
16 1 1 0.00981441 0.037442 0.0202304 0 0 0 0.025488 -0.0123276 0.0388878 0.043254 -0.0146075 0.0124652 2.54554 0.946684 -1.23129 0.00910222 
323 1 1 -0.0133103 0.0448523 0.0224633 0 0 0 0.00140835 -0.000916715 0.0140373 0.00242963 0.0341919 0.00999864 -2.8196 -2.47032 0.603396 0.00568888 
224 1 1 -0.0430558 -0.0435943 0.031343 0 0 0 -0.0183151 -0.000262462 -0.00862617 -0.00676497 -0.00596452 0.0369106 2.78409 0.308273 -1.83488 0.00568888 
42 1 1 -0.0121504 -0.041157 0.0314104 0 0 0 0.0096886 0.000844462 0.0259328 0.0126747 -0.00516807 -0.000912767 3.49099 1.16578 -2.23014 0.00910222 
168 1 1 0.00220431 -0.0428377 0.0315064 0 0 0 0.0110002 -0.0133219 0.064963 -0.000789111 -0.00201547 0.0222563 -4.68953 -9.69729 2.66755 0.00568888 
3 1 1 0.020436 -0.0412785 0.0323937 0 0 0 -0.0124478 0.00434775 0.0236569 -0.00340711 0.00587452 0.000573649 2.58425 4.1193 0.711182 0.00910222 
125 1 1 0.04232 -0.0443259 0.033228 0 0 0 0.0625303 0.00958221 0.0200956 -0.0182919 -0.00406401 -0.0199383 0.572915 12.1077 -7.32208 0.00568888 
211 1 1 -0.0442499 -0.0326485 0.034464 0 0 0 0.0167726 0.00868554 0.0120216 0.00694731 -0.00579471 0.041304 -2.26062 2.28893 0.252755 0.00568888 
191 1 1 0.00828539 -0.033606 0.0317246 0 0 0 -0.0168819 0.000908122 0.0508532 0.000752467 -0.087319 -0.0328498 -5.73326 -1.13105 1.1408 0.00568888 
93 1 1 -0.0287962 -0.0314171 0.0363846 0 0 0 0.001522 0.00771993 0.00869827 0.142395 -0.0967903 0.188077 -0.931349 5.67074 -3.85924 0.00910222 
43 1 1 -0.00612994 -0.0251135 0.0366997 0 0 0 -0.0043212 -0.00257768 0.0600077 -0.0545118 0.0371405 0.00692972 0.256737 -1.319 3.42451 0.00910222 
105 1 1 0.0325335 -0.0285938 0.0368177 0 0 0 -0.00594675 0.000255778 0.0162452 -0.026842 0.0197198 0.0157802 -0.420777 0.355271 0.102521 0.00910222 
66 1 1 -0.0410994 -0.0183183 0.0352426 0 0 0 0.000184849 0.0182912 0.017511 -0.0555368 0.0137265 -0.0346561 -1.30407 -1.84587 2.73135 0.00910222 
259 1 1 0.0279297 -0.0148685 0.0343523 0 0 0 -0.0153507 0.00893591 0.0441442 -0.0439233 0.0140125 0.0414826 3.14699 9.6644 -1.04518 0.00568888 
336 1 1 -0.022354 -0.00715795 0.0324086 0 0 0 -0.0331968 -0.00837474 0.0675026 -0.0241538 0.0133761 0.00971029 -0.245668 -0.895529 0.713447 0.00568888 
24 1 1 -0.00804818 -0.00764105 0.0339945 0 0 0 -0.0303716 0.00210606 0.0817995 -0.0632085 0.0534663 0.210819 2.56114 -1.0531 0.343378 0.00910222 
107 1 1 -0.0395583 -0.000650335 0.0322596 0 0 0 -0.0128558 0.0197488 0.0278335 -0.0727189 -0.150766 0.0303816 2.50935 1.65644 -2.98848 0.00910222 
303 1 1 0.0308602 -0.00411198 0.0356167 0 0 0 -0.0151926 0.0108401 0.0512469 -0.000538165 0.0115154 -0.000777131 1.33661 -0.317224 1.65573 0.00568888 
208 1 1 -0.0446622 0.0125307 0.0363253 0 0 0 0.00359846 -0.00193465 0.0359724 -0.0118604 0.00691337 0.0235787 2.85405 -5.51706 -0.673079 0.00568888 
236 1 1 -0.0205026 0.00705648 0.036709 0 0 0 -0.00887383 0.00530602 0.0523377 -0.000709259 0.0104685 0.00786937 1.6205 2.43973 4.56519 0.00568888 
4 1 1 -0.00821676 0.00949633 0.0288673 0 0 0 0.00161805 0.00357395 0.0617275 -0.0140724 -0.0320071 0.0118963 -4.27268 -1.84828 -2.49674 0.00910222 
2 1 1 -0.0336669 0.0177581 0.0286792 0 0 0 -0.000252333 0.00338019 0.0204232 -0.031439 -0.0470821 0.0415887 -1.44882 4.37655 1.07876 0.00910222 
282 1 1 -0.0195197 0.0179429 0.0321096 0 0 0 -0.00155091 0.0187095 0.00936976 0.0681486 -0.130611 0.0345071 -0.65771 -5.25495 1.51227 0.00568888 
58 1 1 0.0413612 0.015819 0.0316175 0 0 0 -0.00978519 0.0645512 0.00647427 0.0641801 0.156602 -0.0391847 -26.0297 1.22788 -7.13338 0.00910222 
199 1 1 -0.0444373 0.0241528 0.0362552 0 0 0 -0.000939485 0.0158666 0.0168655 0.00317049 -0.0232715 0.0248233 -7.26468 -2.81754 2.65037 0.00568888 
262 1 1 -0.0347777 0.0301206 0.0361184 0 0 0 0.0123033 0.000913497 0.0236196 -0.022743 0.0135832 -0.0226177 1.99358 1.73649 0.209312 0.00568888 
192 1 1 -0.0243169 0.028176 0.0324234 0 0 0 0.0162312 0.00638425 0.0193124 -0.0148702 -0.0552823 0.0055925 4.35457 -4.02886 -2.79294 0.00568888 
73 1 1 0.0054201 0.0232818 0.0301343 0 0 0 0.0141274 -0.00189748 0.0730203 0.0251471 0.626184 0.0667762 -5.87289 0.51211 -1.31086 0.00910222 
292 1 1 -0.0145697 0.0335193 0.0337384 0 0 0 0.0274707 0.00748381 0.0579155 -0.0955313 0.000960505 -0.0843052 -4.50292 -3.1587 2.31097 0.00568888 
47 1 1 0.0241197 0.0360779 0.037324 0 0 0 -0.0170942 0.0202854 0.101149 0.0191406 -0.010177 -0.109243 -4.86291 4.50951 -0.718125 0.00910222 
9 1 1 -0.0412267 0.0411824 0.0289476 0 0 0 0.00307084 -0.000603002 0.0116319 -0.00930758 -0.0870808 -0.0525018 -1.49459 -1.40311 0.324625 0.00910222 
126 1 1 -0.00960309 0.0441279 0.0331625 0 0 0 0.0234553 -0.0159222 0.0164645 -0.000777808 0.00224906 0.0134044 10.4303 5.30114 14.4541 0.00568888 
248 1 1 0.00190098 0.0443367 0.0306002 0 0 0 -0.0507614 -0.00988253 0.00522282 0.02598 -0.00349482 -0.0351444 3.09874 -22.5099 -4.38542 0.00568888 
229 1 1 0.0136237 0.0447225 0.0319265 0 0 0 -0.0054892 0.000661305 0.0427873 0.00453338 0.00784838 -0.0029308 -7.57546 -9.83758 -0.933225 0.00568888 
114 1 1 0.0411221 0.04105 0.0340688 0 0 0 -0.0102832 -0.0088605 0.0594495 0.0233024 0.0940746 -0.460125 -6.54554 -3.48745 -0.732649 0.00910222 
329 1 1 -0.0238784 -0.0446722 0.0392538 0 0 0 -0.012088 -0.00385792 0.00466723 -0.000713451 -0.00491521 0.0156255 0.705721 -5.7738 1.8907 0.00568888 
314 1 1 -0.0135929 -0.0445355 0.0463729 0 0 0 -0.00190964 0.00640288 0.0530491 0.0488045 0.0767247 -0.00261951 9.69819 -1.52453 0.497922 0.00568888 
283 1 1 0.0299704 -0.0443621 0.0429804 0 0 0 -0.000577039 -0.00502126 0.0137242 0.0228758 0.0287525 0.0509116 1.33595 -5.40682 1.1071 0.00568888 
307 1 1 -0.016314 -0.0339281 0.0434876 0 0 0 0.00547437 0.011129 0.0201057 -0.0297117 0.0358414 0.00287061 -8.16881 -8.51724 1.78603 0.00568888 
337 1 1 -0.00564597 -0.0371547 0.0446938 0 0 0 0.00468951 0.00814187 0.0805273 0.00778641 -0.0053592 -0.00449173 -4.02768 0.661442 -2.33699 0.00568888 
56 1 1 0.00866539 -0.0382271 0.0455557 0 0 0 0.00911606 0.0118559 0.0620216 -0.033565 0.0842666 0.0481063 -4.31262 1.89667 1.3021 0.00910222 
326 1 1 0.0445042 -0.02702 0.0449544 0 0 0 -0.000225358 -0.00125596 0.00951955 0.00286446 0.0139335 0.0112046 2.61021 1.23432 0.0908029 0.00568888 
81 1 1 -0.0210397 -0.0167065 0.0431794 0 0 0 0.00253667 -0.00676306 0.0822745 -0.0756144 0.197795 -0.248996 -0.804335 -2.09555 7.80406 0.00910222 
52 1 1 0.011334 -0.0215624 0.0394364 0 0 0 -0.00599311 0.0166915 0.0418309 -0.0522351 -0.103122 0.062874 2.32885 3.41648 -0.933688 0.00910222 
332 1 1 0.0246976 -0.0184192 0.0444803 0 0 0 0.0100947 0.00272865 0.0404636 0.00686761 -0.0139788 0.00485809 -0.472913 -3.22011 -0.219586 0.00568888 
220 1 1 -0.0443989 -0.0071555 0.0443427 0 0 0 0.00439514 0.00599956 0.0379805 -0.0421205 0.0486219 -0.108102 -1.85013 2.08712 4.54428 0.00568888 
10 1 1 0.00706293 -0.00454791 0.0430801 0 0 0 -0.0253249 0.0116386 0.0977019 0.0140852 -0.0165317 0.0509658 3.28545 1.45655 3.75184 0.00910222 
240 1 1 0.021015 -0.00615604 0.0399875 0 0 0 -0.0257472 0.0212994 0.0585908 -0.000958093 -0.00762961 0.00645061 4.73908 2.68399 -6.59511 0.00568888 
5 1 1 0.0412421 -0.0130382 0.0401354 0 0 0 -0.000516674 0.00254685 0.017487 0.0766206 -0.0771914 -0.138442 2.49122 2.16097 -0.37303 0.00910222 
133 1 1 -0.0285244 -0.00383376 0.0415045 0 0 0 -0.0237657 0.0330947 0.0566671 -0.0193408 0.00369674 0.0159069 -13.2721 -6.95445 1.33471 0.00568888 
197 1 1 -0.0175321 -0.00256224 0.0439215 0 0 0 -0.0168317 -0.00208897 0.111357 -0.0241672 0.0344961 -0.021941 5.87572 3.83394 -8.4956 0.00568888 
318 1 1 0.0442827 0.00300023 0.038653 0 0 0 0.00832592 0.0229278 0.0404545 0.00848786 0.0118716 0.00909723 -8.6128 -4.49606 4.44139 0.00568888 
32 1 1 -0.0354021 0.00876012 0.0470934 0 0 0 -0.00611257 -0.0094625 0.064674 0.00150179 0.093472 -0.109905 -4.80026 0.00707116 -0.159422 0.00910222 
115 1 1 0.00117385 0.0123182 0.0439507 0 0 0 -0.0344967 0.0182801 0.109872 0.254429 -0.0661004 0.0682239 -0.159995 -4.71878 -2.03196 0.00910222 
298 1 1 0.0331909 0.0103951 0.0426657 0 0 0 0.00243135 0.0414746 0.029419 0.00139472 4.02669e-05 -0.0193646 18.8416 -5.06706 9.93833 0.00568888 
291 1 1 0.0442934 0.0129133 0.0455286 0 0 0 -0.00812514 0.137815 0.0239909 -0.00503561 0.0363939 0.00408992 22.6175 3.69936 -15.8609 0.00568888 
335 1 1 -0.0314289 0.022209 0.0433717 0 0 0 0.00827263 -0.0209577 0.0256823 -0.0543197 -0.0420556 0.0108157 0.454622 -0.476857 -2.7031 0.00568888 
15 1 1 0.0190406 0.0145595 0.0418 0 0 0 -0.0252877 0.00780346 0.0845242 0.0157798 -0.0393532 0.0395113 -4.255 9.29301 0.0203757 0.00910222 
117 1 1 -0.0172195 0.0242254 0.0451237 0 0 0 0.00971091 -0.022563 0.0404569 -0.171134 0.139737 -0.181978 -1.03116 -1.47352 1.85678 0.00910222 
140 1 1 0.00864674 0.0246892 0.0446039 0 0 0 0.00178254 0.0140077 0.103499 -0.0283156 0.0171894 -0.0306305 -9.35335 -4.54013 -1.48763 0.00568888 
106 1 1 0.0404057 0.0271972 0.0457467 0 0 0 -0.0381139 -0.00135251 0.0731807 0.0817154 0.099331 -0.0463631 3.88202 -5.61673 5.36551 0.00910222 
99 1 1 -0.00255683 0.0337011 0.0419716 0 0 0 0.0162287 0.00550646 0.0740183 -0.0143947 0.0650408 -0.0528214 5.5901 -0.749956 0.0926709 0.00910222 
327 1 1 -0.0434073 0.044513 0.0430078 0 0 0 0.00367423 -0.00129021 0.0142233 -0.0172688 0.0231166 0.0110655 -1.94307 3.01343 0.800212 0.00568888 
122 1 1 -0.0259175 0.0412781 0.0384767 0 0 0 0.00546499 0.00613299 0.0205826 -0.024243 0.0246899 0.0299732 -2.02676 -1.47018 0.758912 0.00910222 
6 1 1 -0.0255471 -0.0412049 0.0539793 0 0 0 0.00469175 0.00350386 0.0593209 0.0024303 -0.0325784 -0.00362468 6.12716 -2.79938 -0.804771 0.00910222 
190 1 1 -0.00236155 -0.0433742 0.0535754 0 0 0 0.0160567 -0.00272697 0.0784952 -0.0162417 0.01252 0.00823483 2.82014 -2.44903 3.54997 0.00568888 
265 1 1 0.0209687 -0.0446006 0.049677 0 0 0 0.014362 0.00526401 0.0398202 -0.0453939 -0.0467502 -0.0453734 6.88872 1.2183 -2.5105 0.00568888 
84 1 1 -0.0412679 -0.0347163 0.0486321 0 0 0 0.0061722 0.0126515 0.0279912 0.135787 0.0310097 0.0328292 1.36301 -3.28288 1.76709 0.00910222 
49 1 1 0.0410793 -0.039895 0.0512255 0 0 0 -0.000583471 0.00316319 0.0216267 -0.0575486 -0.0312226 0.0375756 -1.94179 2.44099 -0.487879 0.00910222 
313 1 1 -0.0121374 -0.0262743 0.0506548 0 0 0 -0.0171114 -0.0085145 0.0631961 0.00206051 -0.00499238 0.0198197 17.1446 5.02427 1.09251 0.00568888 
137 1 1 -0.000725556 -0.0278289 0.0501451 0 0 0 0.0182851 0.0303775 0.0741619 -0.0205094 0.019185 -0.0109577 -4.73091 5.00247 -0.654645 0.00568888 
227 1 1 0.0100177 -0.0262736 0.0538825 0 0 0 0.0232186 0.00860363 0.0847222 0.0770657 0.105364 0.133749 11.2143 10.1993 3.87332 0.00568888 
91 1 1 0.0240554 -0.0306521 0.0524688 0 0 0 0.0264348 0.0110215 0.0535958 0.0628976 -0.0489555 0.00935292 -1.54823 3.9479 0.529461 0.00910222 
36 1 1 -0.0411897 -0.0176218 0.0539846 0 0 0 0.0059277 0.00528515 0.0497968 -0.093147 -0.00132536 0.033188 1.40421 -5.13527 0.559876 0.00910222 
209 1 1 0.00874264 -0.0151766 0.0530985 0 0 0 0.00317596 0.0108481 0.110294 0.0157231 -0.127049 0.0215203 -7.32974 -1.25824 -0.188561 0.00568888 
215 1 1 0.0327376 -0.016704 0.0522833 0 0 0 0.00938444 -0.00834916 0.0588292 0.0129268 0.0119008 -0.0160119 -2.40585 -1.9019 -2.2524 0.00568888 
217 1 1 0.0443566 -0.0169465 0.0539973 0 0 0 0.00359812 0.0524249 0.0338393 0.00405307 -0.101477 -0.00672082 -16.993 1.94142 -14.9599 0.00568888 
182 1 1 -0.0299532 -0.0086247 0.0516569 0 0 0 0.00814173 0.0247765 0.0691251 -0.00733967 -0.133698 0.116442 13.4586 15.186 -1.61816 0.00568888 
204 1 1 -0.0194503 -0.00878194 0.0557153 0 0 0 0.00780105 0.00710079 0.0759857 0.00701555 4.68987e-05 0.02816 -9.0108 -16.0806 0.014781 0.00568888 
26 1 1 -0.00583729 -0.0130971 0.052376 0 0 0 0.00832758 -0.019254 0.126744 -0.124645 0.188627 0.11836 0.745026 5.32427 -2.17816 0.00910222 
276 1 1 0.0186323 -0.0106504 0.0501413 0 0 0 0.00311883 -0.013479 0.0727837 0.0142503 -5.73529e-05 0.0113212 5.76788 7.33268 -4.11941 0.00568888 
148 1 1 0.0444399 -0.00523928 0.0543095 0 0 0 0.00519492 0.0255973 0.0364814 0.00764137 -0.00961202 -0.0165879 -15.6622 6.51167 -4.68216 0.00568888 
306 1 1 -0.0396328 -0.00315008 0.0543223 0 0 0 0.015527 0.000501031 0.0970513 -0.00866882 -0.0137072 -0.0103301 6.34786 11.2337 -2.58655 0.00568888 
87 1 1 0.0306874 -0.00225359 0.0502883 0 0 0 -0.00751294 -0.00257521 0.0620896 0.00247848 -0.00578141 -0.105176 1.78613 0.449496 4.14149 0.00910222 
57 1 1 -0.0140866 0.00832149 0.0529482 0 0 0 0.0254298 0.00448182 0.0969271 -0.197282 0.145015 0.156302 -4.9612 1.3995 2.33593 0.00910222 
266 1 1 0.0183835 0.0212503 0.054865 0 0 0 -0.0183584 0.0129618 0.0771471 -0.0122639 0.0140945 -0.00278194 5.30324 -14.6733 -0.873814 0.00568888 
39 1 1 -0.0412141 0.031362 0.0490069 0 0 0 0.00158982 -0.00863313 0.0221605 0.102241 0.0180273 0.0296753 0.604839 -2.42019 -0.783479 0.00910222 
250 1 1 -0.0287594 0.0253861 0.0538704 0 0 0 -0.00837109 -0.00830686 0.0439235 0.0386615 0.0274413 -0.0245991 -8.19417 1.92539 -0.763776 0.00568888 
113 1 1 0.0146685 0.0351769 0.0526208 0 0 0 0.0071883 0.0297732 0.116243 -0.0633546 0.0533501 -0.120779 4.17615 -0.666529 -1.67163 0.00910222 
174 1 1 -0.0344872 0.0444015 0.0500299 0 0 0 0.00417441 0.000697124 0.0195091 0.0174587 0.0456216 -0.0238508 -2.71281 2.53253 1.33177 0.00568888 
35 1 1 -0.0207994 0.0408727 0.0558804 0 0 0 -0.0303409 -0.00900346 0.0469912 0.0242471 -0.00738811 0.0111626 5.08777 -2.11211 2.36772 0.00910222 
315 1 1 -0.00776976 0.044605 0.0498783 0 0 0 0.000474462 0.00554864 0.0598218 -0.0132706 0.00856005 -0.00756346 -10.4643 -2.63682 0.431112 0.00568888 
158 1 1 0.00443713 0.0446244 0.0482143 0 0 0 0.00679964 0.0144401 0.0736962 0.00824062 -0.0872544 -0.00652088 -13.2061 -3.16593 1.60467 0.00568888 
76 1 1 0.0315699 0.0409927 0.0538746 0 0 0 0.00984381 0.0110887 0.104333 -0.0528357 -0.00188981 -0.417975 -5.61094 1.04767 0.283778 0.00910222 
203 1 1 0.044497 0.044309 0.0478654 0 0 0 -0.00124821 0.0117878 0.0580801 0.00710716 -0.0158744 -0.0506625 6.33254 6.82361 -0.657216 0.00568888 
252 1 1 -0.0379709 -0.0444242 0.0610844 0 0 0 0.0170219 -0.00323736 0.0563433 0.00757052 -0.0336061 0.00165141 8.62443 8.25403 -4.64354 0.00568888 
79 1 1 -0.0111978 -0.0410236 0.0649167 0 0 0 0.00938572 0.0109739 0.0791771 -0.0668647 -0.107695 -0.042128 -6.06173 1.87527 0.635263 0.00910222 
109 1 1 0.0134874 -0.0412296 0.0624959 0 0 0 0.0241377 -0.00347656 0.0537191 -0.0645442 -0.0357245 0.0239474 5.86995 -0.0771218 -2.72287 0.00910222 
189 1 1 0.0287253 -0.0443396 0.0579267 0 0 0 0.0101751 -0.00232514 0.0389505 -0.0685781 0.00530386 -0.0275356 -2.54978 -2.02548 4.82676 0.00568888 
186 1 1 0.0442986 -0.0443982 0.0648727 0 0 0 -0.0157291 0.0114252 0.0224611 0.00190236 0.00680442 -0.0147167 3.07209 -8.15335 3.01329 0.00568888 
188 1 1 -0.0332432 -0.0348514 0.0648751 0 0 0 0.0159444 0.0102587 0.100098 0.0107732 -0.0350601 0.0183637 -2.93106 -11.6063 6.08546 0.00568888 
165 1 1 0.0443563 -0.0331492 0.0639531 0 0 0 -0.00117881 0.0318704 0.00587759 0.0226716 0.0239872 -0.0048599 -5.22762 -0.678553 -5.04323 0.00568888 
230 1 1 -0.0426661 -0.0287797 0.0633051 0 0 0 0.00344074 -0.0148175 0.0480476 -0.00240717 -0.0163682 0.00440162 -0.972122 2.48513 3.32499 0.00568888 
75 1 1 -0.0251253 -0.0240001 0.0590931 0 0 0 0.0100458 0.00511337 0.0960181 0.0329391 0.0333457 0.0357975 -2.77537 0.334166 -0.529193 0.00910222 
44 1 1 0.00150515 -0.0281042 0.0657788 0 0 0 0.0384415 -0.00200289 0.111158 -0.135644 -0.221217 0.205406 12.623 -10.3562 -3.12343 0.00910222 
247 1 1 0.0373309 -0.0259914 0.0568543 0 0 0 0.0593968 -0.01241 0.00068693 -0.0372019 0.151205 0.00376443 13.4195 5.81653 10.3087 0.00568888 
59 1 1 0.0223504 -0.0166643 0.0635728 0 0 0 0.0313621 -0.00850579 0.106535 0.12137 -0.0517801 0.106322 6.95862 -0.544677 1.80764 0.00910222 