ITEM: TIMESTEP
51800
ITEM: NUMBER OF ATOMS
338
ITEM: BOX BOUNDS mm mm mm
-0.05 0.05
-0.05 0.05
0 0.15
ITEM: ATOMS id type type x y z ix iy iz vx vy vz fx fy fz omegax omegay omegaz radius 
131 1 1 -0.0257481 -0.0400549 0.00560272 0 0 0 -0.000532173 -0.000688291 -0.000687751 0.000752772 0.00144828 0.00225624 0.0616648 -0.0110955 -0.0136131 0.00694698 
319 1 1 -0.0146874 -0.0445411 0.00605268 0 0 0 -0.000307102 -0.000410586 -0.000472472 0.000535963 0.000828446 0.00138899 0.00099112 -0.056046 0.0644985 0.00694698 
243 1 1 -0.00279112 -0.043873 0.00610412 0 0 0 1.94751e-05 -0.000495131 -0.000762039 2.29585e-05 0.000554703 0.00157389 -0.0436694 0.128718 -0.0972265 0.00694698 
260 1 1 0.0252546 -0.0438308 0.00594044 0 0 0 0.0001536 -0.000912105 -0.00127596 4.8773e-06 0.0014167 0.00149302 -0.0508104 -0.00587744 -0.0118437 0.00694698 
78 1 1 0.0413084 -0.0407811 0.0092759 0 0 0 0.000172242 -0.000618958 -0.00112854 0.000642266 0.0031186 0.00387029 -0.0479988 -0.0681062 0.0451431 0.0111152 
74 1 1 -0.0408281 -0.0367698 0.00959688 0 0 0 -0.000449409 -0.000397249 -0.000399532 0.00339867 0.00331701 0.00392938 0.00718105 0.00531576 -0.0152807 0.0111152 
296 1 1 -0.0274829 -0.027457 0.00612156 0 0 0 -0.000571279 -0.00077542 -0.000639312 0.000836395 0.00110583 0.00162542 0.0496256 -0.000623389 -0.0257896 0.00694698 
173 1 1 -0.0155728 -0.03196 0.00557398 0 0 0 -0.000642672 -0.00100714 -0.000941751 0.000776834 0.00127914 0.00231487 0.03578 -0.0279399 -0.0150014 0.00694698 
275 1 1 -0.00359013 -0.0297747 0.00572414 0 0 0 -0.000554332 -0.00159434 -0.00153621 0.000510573 0.00182969 0.00260422 0.0890815 0.0344945 0.00239397 0.00694698 
60 1 1 0.0105836 -0.0360379 0.00947743 0 0 0 -0.000122927 -0.00149672 -0.00233645 0.00204296 0.00987403 0.0139837 0.0118078 -0.0178813 0.0414539 0.0111152 
102 1 1 -0.0405428 -0.0169479 0.00905845 0 0 0 -0.000221458 -0.00041143 -7.64621e-05 0.00150681 0.00300063 0.00129776 0.0301469 -0.00434991 -0.0305704 0.0111152 
328 1 1 -0.0254333 -0.0151903 0.00543679 0 0 0 -0.000469501 -0.00100256 -0.000260374 0.000589483 0.00168831 0.000523875 0.104542 0.0439668 -0.0411656 0.00694698 
40 1 1 -0.0106767 -0.0158189 0.0106468 0 0 0 -0.000679124 -0.00188129 -0.00191812 0.00369072 0.0123378 0.00632148 0.00602497 0.0593027 -0.024184 0.0111152 
279 1 1 0.0044077 -0.0207354 0.010906 0 0 0 -0.000863487 -0.00246596 -0.00347077 0.00108036 0.00319736 0.00280819 -0.137895 0.061079 0.000615089 0.00694698 
267 1 1 0.0155004 -0.0199622 0.00561788 0 0 0 -0.000494132 -0.00194913 -0.00265591 0.000817745 0.00217697 0.00168851 0.0933818 -0.0510156 0.0710112 0.00694698 
144 1 1 0.0430494 -0.0248667 0.00596815 0 0 0 -0.000350364 -0.000591791 -0.00142754 0.000610911 0.00105405 0.00101723 0.0581295 -0.233162 0.122946 0.00694698 
202 1 1 0.0452016 -0.0129602 0.00612978 0 0 0 -0.000163866 -0.000314322 -0.000713145 0.000517649 0.000764476 -5.08699e-05 0.051888 -0.110468 -0.062189 0.00694698 
257 1 1 -0.0442074 -0.00104723 0.00624956 0 0 0 -0.000173637 -0.00018131 -0.000164111 0.000585171 0.000622872 -0.000153099 -0.0308983 0.0328694 0.00315751 0.00694698 
274 1 1 -0.022023 -0.0037796 0.00775383 0 0 0 -0.000569566 -0.00140383 -0.00155353 0.00159917 0.00299062 -0.00187463 -0.229813 0.19534 0.0134752 0.00694698 
50 1 1 0.0305732 -0.00918842 0.00973611 0 0 0 -0.000539298 -0.00137457 -0.0027233 0.00599921 0.0115261 0.00340932 0.16545 -0.108104 0.122582 0.0111152 
232 1 1 -0.0434388 0.0118751 0.00626221 0 0 0 -0.000157623 -0.000178597 -0.000192014 0.000299221 0.0011983 -0.00141205 0.0171814 -0.014612 -0.0106958 0.00694698 
268 1 1 -0.0326772 0.00368176 0.0060955 0 0 0 -0.000586009 -0.000933785 -0.000849152 0.00155484 0.00202557 -0.00287988 0.0900357 0.0264312 -0.0923747 0.00694698 
171 1 1 -0.021197 0.00798561 0.00823758 0 0 0 -0.00131972 -0.00133831 -0.00299099 0.00166291 0.0034027 -0.00399658 0.026511 0.181032 0.0813065 0.00694698 
164 1 1 0.0205996 0.00173737 0.00544727 0 0 0 -0.000817469 -0.00171011 -0.00230994 0.00145955 0.00200826 -0.000878959 0.21682 -0.295034 0.0668426 0.00694698 
297 1 1 -0.0253907 0.0195849 0.00550038 0 0 0 -0.000783674 -0.000488859 -0.00157908 0.00110555 0.00248572 -0.00378311 0.0974375 -0.0476507 -0.154863 0.00694698 
222 1 1 -0.010851 0.0145905 0.00545763 0 0 0 -0.000848113 -0.00118036 -0.00252274 0.00141346 0.00260932 -0.0029805 0.258898 -0.154665 -0.165554 0.00694698 
290 1 1 -0.0007997 0.0214668 0.00523944 0 0 0 -1.59489e-05 -0.000565545 -0.00141694 0.00162285 0.00248128 -0.00306839 0.0900813 0.096046 0.118009 0.00694698 
98 1 1 0.0122226 0.0135219 0.00979602 0 0 0 -0.000411604 -0.00224659 -0.00303471 0.00926388 0.0131735 -0.0168623 0.230978 -0.149055 -0.139163 0.0111152 
316 1 1 0.0321795 0.0195775 0.00502939 0 0 0 0.000388561 -0.000502151 -0.000744227 0.0010324 0.00212571 -0.000631171 0.0238681 0.0447943 -0.0714441 0.00694698 
162 1 1 0.0446346 0.020202 0.00544662 0 0 0 8.41353e-05 -0.00070396 -0.000774345 0.00057767 0.00160764 -0.000240282 0.245141 -0.0869752 0.0544167 0.00694698 
294 1 1 -0.0439421 0.0252721 0.00613998 0 0 0 8.86686e-05 -7.07569e-05 6.44401e-05 -0.000902044 0.00137972 -0.00161471 0.0340674 -9.33492e-05 -0.0305686 0.00694698 
175 1 1 -0.0327497 0.0313737 0.00614329 0 0 0 -2.06676e-05 0.000414512 4.56467e-05 -3.63078e-05 0.00113538 -0.00318411 -0.082618 -0.017997 0.0873505 0.00694698 
255 1 1 -0.0148481 0.0261361 0.0058774 0 0 0 -0.000214575 -0.000699184 -0.00091543 0.0007876 0.00210987 -0.00360656 0.152929 -0.0523608 0.0127758 0.00694698 
324 1 1 -0.00330581 0.0326856 0.00567013 0 0 0 1.02529e-05 -0.00070946 -0.000180246 0.000623935 0.00157672 -0.00195264 0.0878609 0.0350641 -0.106019 0.00694698 
161 1 1 0.00824394 0.0320303 0.00645126 0 0 0 0.000365211 -0.0018468 -0.00156227 0.00103665 0.00220113 -0.00245476 0.419148 0.0775618 0.0329646 0.00694698 
77 1 1 0.0226306 0.0295971 0.0123456 0 0 0 0.000666708 -0.000929484 -0.00205822 0.00844228 0.010424 -0.0120152 -0.12904 0.0312012 0.122451 0.0111152 
155 1 1 0.0376075 0.0311758 0.00564613 0 0 0 0.000277993 -0.000253866 -0.00109622 0.00123064 0.00175959 -0.0013881 -0.0548123 -0.0425613 0.0234932 0.00694698 
321 1 1 -0.0440198 0.0437755 0.00629411 0 0 0 2.37982e-05 4.40952e-05 -4.06814e-05 -0.000532149 6.61798e-05 -0.000746038 0.00107737 0.0120397 0.0179984 0.00694698 
207 1 1 -0.0314327 0.0439671 0.00637473 0 0 0 -5.84971e-05 4.79543e-05 -5.36645e-05 0.000335709 0.000339901 -0.0015955 0.0187977 -0.0224478 -0.0402308 0.00694698 
38 1 1 -0.0153316 0.0415937 0.00979139 0 0 0 0.000133924 -0.000312534 9.90211e-05 0.000807113 0.00559281 -0.00949789 0.00170421 0.0129555 -6.47481e-05 0.0111152 
149 1 1 0.0120644 0.0438719 0.00543346 0 0 0 -5.47699e-05 -0.000245353 -3.24202e-05 0.000440618 0.000698223 -0.000971939 -0.044037 0.056689 0.0707457 0.00694698 
237 1 1 0.00118685 0.0437539 0.0121484 0 0 0 0.000142363 -0.000294188 0.000226697 0.000163704 6.89659e-05 -0.00122285 -0.0595483 -0.0405804 0.0199464 0.00694698 
249 1 1 0.0277046 0.044143 0.00611782 0 0 0 -0.00014736 -5.52465e-05 -0.00128047 0.000889677 0.00129568 -0.000917121 0.105229 -0.0882204 0.0194273 0.00694698 
289 1 1 0.0443716 0.0422246 0.0059231 0 0 0 1.52185e-05 0.000464475 -0.00106897 0.000770403 0.00107478 -0.000692609 -0.11919 -0.106582 -0.0409543 0.00694698 
331 1 1 -0.0432695 -0.0455644 0.0218631 0 0 0 -0.000368434 -0.000289388 -0.000234233 0.00109156 0.000787713 0.00105511 -0.0145733 0.00280547 0.0261106 0.00694698 
299 1 1 -0.0246087 -0.0451878 0.0168083 0 0 0 -0.000582436 -0.000949728 -0.000815193 0.00158537 0.00196059 0.00392881 -0.0841729 0.00708717 0.0528081 0.00694698 
225 1 1 -0.01155 -0.0442716 0.0185944 0 0 0 -0.000532404 -0.00101776 -0.00135553 0.00158815 0.00241677 0.00345213 -0.0299882 0.0491687 0.0273601 0.00694698 
242 1 1 0.00106175 -0.0446812 0.0196818 0 0 0 -0.000398164 -0.000954154 -0.0019671 0.00106305 0.00202381 0.00374671 -0.288898 -0.0435556 0.0470492 0.00694698 
130 1 1 0.0208355 -0.044206 0.0182026 0 0 0 0.000137947 -0.000227364 -0.00152098 0.00059321 0.000875583 0.00203924 -0.19317 0.0196269 -0.00731857 0.00694698 
167 1 1 0.031945 -0.0442252 0.0228863 0 0 0 0.00035253 -0.000447482 -0.00197818 9.47424e-06 0.000771058 0.00167679 -0.0763039 0.0235325 -0.0464319 0.00694698 
136 1 1 0.0442903 -0.0447089 0.0241887 0 0 0 0.000446091 -0.000484854 -0.00118796 -0.00043654 0.00073706 0.00120291 -0.0860741 -0.00666469 -0.040227 0.00694698 
179 1 1 -0.0345746 -0.0262033 0.0213888 0 0 0 -0.000617313 -0.00137264 -0.000758672 0.000671543 0.00158804 0.00182904 0.0884759 0.0435904 -0.0512901 0.00694698 
7 1 1 -0.0200355 -0.0304282 0.0211157 0 0 0 -0.000797099 -0.00169 -0.00194273 0.00719399 0.0142017 0.0197429 -0.00408281 0.0407993 -0.0104683 0.0111152 
104 1 1 -0.0001129 -0.0285709 0.0247234 0 0 0 -0.000514309 -0.00229433 -0.00403084 0.00606709 0.0209351 0.0236183 0.00532154 0.0830046 -0.0435515 0.0111152 
67 1 1 0.0278421 -0.0280456 0.0126286 0 0 0 0.000207041 -0.00168736 -0.00404884 0.00210413 0.0118558 0.0136224 -0.0825199 0.0493629 -0.00408469 0.0111152 
128 1 1 -0.0450316 -0.021727 0.0238333 0 0 0 -0.000132116 -0.000635427 -5.44943e-05 0.000775767 0.000861607 0.000649791 0.0887487 0.0296265 -0.0836534 0.00694698 
278 1 1 0.0331681 -0.0161932 0.024137 0 0 0 0.000661293 -0.00225798 -0.00536878 0.00132433 0.00355929 0.00326885 0.0103904 0.0560183 0.0504243 0.00694698 
146 1 1 -0.0448732 -0.00920101 0.0224719 0 0 0 -0.000392908 -0.00041147 -0.000425889 0.000624438 0.00301657 -0.00229953 -0.146023 0.0482462 0.0669873 0.00694698 
96 1 1 0.0119172 -0.00721306 0.016134 0 0 0 -0.00134981 -0.00304116 -0.00545944 0.00642532 0.0188803 0.00321127 -0.00913761 -0.0432958 0.0202138 0.0111152 
183 1 1 0.0447597 -0.00703534 0.0175428 0 0 0 2.6414e-05 -0.000819812 -0.00147639 0.000823163 0.00183696 -0.000466299 -0.170389 0.0298531 0.00736048 0.00694698 
25 1 1 -0.0377545 0.00482993 0.0223918 0 0 0 -0.000826041 -0.00133053 -0.00139288 0.00334015 0.0186026 -0.0301191 0.0205647 -0.00124987 -0.082245 0.0111152 
17 1 1 -0.00526041 0.00256219 0.0144113 0 0 0 -0.00123031 -0.00242071 -0.00473645 0.00808239 0.019086 -0.0128752 -0.0740926 0.160422 0.0187351 0.0111152 
94 1 1 0.0384732 0.00842661 0.0134979 0 0 0 0.000532131 -0.00151944 -0.00240371 0.0075719 0.0123338 -0.00129168 0.0110633 0.334868 -0.168583 0.0111152 
300 1 1 -0.0447062 0.0189514 0.0170522 0 0 0 -0.000170262 -0.000384657 -0.000393158 0.000287209 0.00225541 -0.00348972 0.0252314 0.0311054 -0.0437231 0.00694698 
273 1 1 -0.032747 0.0189485 0.0155458 0 0 0 -0.000664274 -0.000728424 -0.00149458 0.00129916 0.0045593 -0.00598173 0.011891 0.137432 0.0289492 0.00694698 
28 1 1 -0.0168122 0.0183623 0.0204949 0 0 0 -0.000527932 -0.00216411 -0.00365643 0.00545671 0.0228244 -0.0276884 0.0403646 0.10414 -0.095909 0.0111152 
286 1 1 -0.00173361 0.0186065 0.016884 0 0 0 -0.000560239 -0.00272315 -0.00368807 0.0026841 0.00465145 -0.00560182 0.435288 -0.118989 -0.104098 0.00694698 
305 1 1 -0.0436937 0.0348174 0.0156127 0 0 0 0.000196807 0.000377141 0.000318049 -6.58412e-05 0.000726239 -0.00365415 -0.080588 -0.0390346 0.0530535 0.00694698 
23 1 1 -0.0279413 0.0337334 0.0221124 0 0 0 0.000668949 -0.000951484 -0.000226644 -0.00415498 0.0177473 -0.0289949 0.203147 0.0805399 -0.111642 0.0111152 
320 1 1 0.00379233 0.0296089 0.0183838 0 0 0 0.0012798 -0.0022754 -0.0029284 0.00389712 0.00422756 -0.0048279 -0.496949 0.059658 -0.106612 0.00694698 
284 1 1 0.0446342 0.0273711 0.0157381 0 0 0 -6.31945e-05 0.000524707 -0.000808042 0.000537672 0.00173256 -0.00109994 -0.377226 -0.0590565 -0.155114 0.00694698 
239 1 1 0.0187723 0.0448261 0.015491 0 0 0 0.000555037 9.92867e-06 -0.00170274 0.00211709 0.00199923 -0.001775 0.0855027 0.16276 -0.0949805 0.00694698 
61 1 1 0.0370814 0.0409683 0.020489 0 0 0 0.000550036 0.000565757 -0.00210319 0.0058641 0.00787107 -0.0048436 0.103024 0.0821474 0.061889 0.0111152 
224 1 1 -0.0437846 -0.0444771 0.0343519 0 0 0 -0.000237167 -0.000153447 -0.000404858 0.00121343 0.000810902 0.00118514 -0.0441471 0.0219566 0.0319717 0.00694698 
256 1 1 -0.032761 -0.0400954 0.0257162 0 0 0 -0.000516777 -0.00072344 -0.000865261 0.00129387 0.0020054 0.00493028 -0.0509628 0.0757727 -0.0577027 0.00694698 
42 1 1 -0.0120033 -0.0408881 0.0355052 0 0 0 -0.000242012 -0.00162774 -0.00244699 0.00393145 0.016063 0.023862 -0.0785876 0.0421659 0.0264237 0.0111152 
271 1 1 0.0313718 -0.0407795 0.0343156 0 0 0 0.0010737 -0.00216028 -0.0039027 -0.00110886 0.00380496 0.00354695 0.0788653 0.0433052 0.173444 0.00694698 
125 1 1 0.0438559 -0.0440728 0.0371343 0 0 0 -9.30288e-05 1.78237e-05 -0.00158631 -4.96587e-05 0.000593817 0.00171288 -0.184399 -0.25182 0.0372207 0.00694698 
180 1 1 -0.0442351 -0.0338857 0.0265892 0 0 0 -0.000383102 -0.00037189 -0.000418222 0.000933917 0.00120143 0.000969627 -0.032301 0.0325948 -0.0206724 0.00694698 
120 1 1 0.0409682 -0.029604 0.0290179 0 0 0 0.000819565 -0.00105152 -0.00366435 -0.00093239 0.00834289 0.0116205 -0.0441903 -0.192893 0.0505979 0.0111152 
178 1 1 -0.012639 -0.0206751 0.0321258 0 0 0 -0.000392765 -0.00220521 -0.0038428 0.00019286 0.00512661 0.0049265 0.00422262 -0.0384297 -0.0290477 0.00694698 
51 1 1 0.0185587 -0.0226617 0.0301889 0 0 0 0.000804106 -0.00319076 -0.00692218 0.000458001 0.0229026 0.023479 0.0376172 0.0508983 0.0619405 0.0111152 
134 1 1 0.0440823 -0.0143844 0.0325115 0 0 0 0.001152 -0.000847347 -0.00305037 -0.000274755 0.00140057 0.00140589 0.0305624 -0.168854 -0.103806 0.00694698 
19 1 1 -0.0263969 -0.0120088 0.027372 0 0 0 -0.000974376 -0.00247019 -0.00238746 0.00118882 0.0178784 -0.00794797 -0.058839 0.257114 0.0503509 0.0111152 
310 1 1 -0.0104368 -0.00899009 0.0299653 0 0 0 -0.000564602 -0.00246573 -0.00546768 0.000834919 0.0056798 -0.000283422 -0.208011 0.0284573 -0.0216926 0.00694698 
258 1 1 0.000949812 -0.0123404 0.0275505 0 0 0 -0.000651135 -0.00297267 -0.00527772 0.0013463 0.00566389 0.00378081 -0.0862391 0.0809861 0.02822 0.00694698 
18 1 1 0.0121856 -0.00447511 0.0369638 0 0 0 0.00119451 -0.00328445 -0.00756808 0.0060372 0.0344121 -0.00234548 -0.0664568 0.218028 -0.0385618 0.0111152 
184 1 1 0.0277381 -0.00806931 0.0328979 0 0 0 0.00130075 -0.00271345 -0.00719385 0.000905351 0.00469101 0.00217025 -0.00467922 -0.252826 0.0649733 0.00694698 
112 1 1 -0.0179408 0.00468078 0.0351793 0 0 0 -0.000280439 -0.00237659 -0.00488436 -0.00369328 0.0285999 -0.0408069 0.0350817 0.157318 -0.00730832 0.0111152 
160 1 1 -0.00258883 0.000659586 0.0310759 0 0 0 -5.2513e-05 -0.00291944 -0.00576362 0.00141836 0.00727567 -0.00543173 0.139727 -0.0696905 -0.0761871 0.00694698 
55 1 1 0.0406894 0.00155572 0.0321783 0 0 0 0.00174044 -0.00126171 -0.00355507 0.00418956 0.00884659 -0.00157849 -0.0187293 -0.196249 0.0332788 0.0111152 
2 1 1 -0.031694 0.0196527 0.0354881 0 0 0 -9.16872e-05 -0.0018329 -0.00223833 -0.00450055 0.0229028 -0.0347153 0.0226941 0.0353433 -0.0563352 0.0111152 
100 1 1 0.00651955 0.0141756 0.0298332 0 0 0 0.000439839 -0.00391642 -0.00711698 0.0128771 0.0229083 -0.0350976 -0.110978 0.228723 -0.0294708 0.0111152 
261 1 1 0.0433968 0.0180075 0.0268092 0 0 0 0.00239784 -0.00149194 -0.00316122 0.00208528 0.00174451 -0.000244849 -0.0608953 -0.235383 0.107893 0.00694698 
246 1 1 -0.0443134 0.0262007 0.0275343 0 0 0 0.000101561 -0.000406481 -0.000483084 -0.00168536 0.00236646 -0.00501182 0.0849788 0.0582206 -0.0754031 0.00694698 
69 1 1 -0.00686736 0.0298255 0.0340338 0 0 0 0.00113911 -0.00252603 -0.0075479 0.0124692 0.0248056 -0.063633 -0.0816188 -0.0391292 0.0179028 0.0111152 
108 1 1 0.0262461 0.0288954 0.0325445 0 0 0 0.00176265 -0.000829321 -0.00510701 0.0132327 0.0117176 -0.0157932 0.226816 -0.0431629 0.0203548 0.0111152 
9 1 1 -0.0407955 0.0418487 0.0325598 0 0 0 0.000518431 -0.000417815 0.000419506 -0.00439251 0.00434054 -0.0181322 -0.0294737 -0.0857857 0.00765429 0.0111152 
323 1 1 -0.00701167 0.044355 0.0261428 0 0 0 0.000849735 -0.000467174 -0.00462574 0.00604453 0.00378859 -0.0114611 0.747168 -0.0869468 0.105783 0.00694698 
16 1 1 0.0103784 0.0409496 0.0288325 0 0 0 0.00119625 -0.000389856 -0.00386666 0.0156577 0.0141067 -0.0216316 0.218707 -0.114203 0.0979915 0.0111152 
329 1 1 -0.0243336 -0.0448894 0.0452004 0 0 0 0.000169873 -0.00105311 -0.00141097 -0.000363429 0.0030238 0.00375214 -0.187595 -0.0355434 0.013149 0.00694698 
168 1 1 0.00170633 -0.0450136 0.0401982 0 0 0 0.000529239 -0.000551166 -0.00288845 3.28699e-05 0.00157986 0.00477998 -0.506452 0.202512 -0.0819601 0.00694698 
3 1 1 0.0165062 -0.0408752 0.0393129 0 0 0 0.00113771 -0.0019821 -0.00465663 -0.0038564 0.0152885 0.019266 -0.358127 -0.0751558 -0.084956 0.0111152 
283 1 1 0.0310352 -0.0446319 0.0458373 0 0 0 0.000996239 -0.00155676 -0.00302469 -0.000839704 0.00279732 0.00262686 -0.345333 0.0603771 -0.221639 0.00694698 
211 1 1 -0.0439284 -0.0331963 0.0391785 0 0 0 -0.000385394 -0.00100119 -0.000201111 0.00237081 0.00320429 0.00285599 0.170979 0.0121397 -0.0519955 0.00694698 
93 1 1 -0.0271463 -0.029284 0.0419037 0 0 0 -0.000381576 -0.00223857 -0.0015089 0.00788682 0.0276327 0.0283934 0.0921573 0.143779 0.00445482 0.0111152 
191 1 1 0.00287898 -0.0323197 0.0407471 0 0 0 0.000636318 -0.00204482 -0.00630609 -0.00026861 0.00469474 0.00801323 0.0307621 0.163895 0.121894 0.00694698 
105 1 1 0.0303967 -0.028062 0.0465903 0 0 0 0.00157598 -0.0024542 -0.00679685 -0.00628925 0.018693 0.0244847 -0.0411982 -0.016181 0.0328825 0.0111152 
66 1 1 -0.0416822 -0.0169788 0.0389235 0 0 0 0.000139617 -0.00133549 0.000139812 -0.000820558 0.0201328 -0.000575972 -0.0540361 -0.0207697 -0.0947033 0.0111152 
43 1 1 -0.00882998 -0.0242927 0.0478754 0 0 0 0.000556677 -0.00256115 -0.00507357 -0.000172564 0.024001 0.0220202 -0.0820808 0.174784 -0.001312 0.0111152 
259 1 1 0.0241561 -0.0131312 0.0440632 0 0 0 0.00137166 -0.00313731 -0.00814278 -5.81287e-06 0.00615727 0.00452808 -0.0588101 -0.0472602 0.0359746 0.00694698 
336 1 1 -0.0251616 -0.0116662 0.0453665 0 0 0 0.013449 -0.0009255 -0.0108372 0.00327944 0.00342843 0.00491624 -1.24743 1.86159 -1.61646 0.00694698 
245 1 1 -0.000274518 -0.0118526 0.0427929 0 0 0 0.000920321 -0.00297427 -0.00683532 -4.18211e-06 0.00588708 -0.000719859 0.09565 -0.105234 -0.0435806 0.00694698 
303 1 1 0.0269167 -0.00136682 0.0493373 0 0 0 0.000924946 -0.0029207 -0.00926057 -0.000676276 0.00457096 -0.00167029 -0.104444 -0.182287 0.0351968 0.00694698 
5 1 1 0.0405043 -0.0106686 0.0488259 0 0 0 0.000824716 -0.00160336 -0.00457337 -0.000568773 0.0116074 0.00934188 0.0739068 -0.206224 0.0972667 0.0111152 
107 1 1 -0.0382432 0.00195394 0.0431303 0 0 0 0.000119529 -0.00135773 -0.00149635 -0.0113535 0.0258851 -0.0296043 -0.0711392 0.081505 0.0405608 0.0111152 
95 1 1 0.0239278 0.0111479 0.039146 0 0 0 0.00151469 -0.0025351 -0.00900176 0.0103993 0.0198305 -0.0216797 0.0518395 -0.176058 0.0906322 0.0111152 
318 1 1 0.0443648 0.0047282 0.0485681 0 0 0 -0.000269941 -0.000828278 -0.00251576 0.000515422 0.00153649 -0.00037464 -0.00273201 -0.222442 0.0239203 0.00694698 
208 1 1 -0.0448676 0.0168548 0.0449719 0 0 0 0.000125713 -0.000911043 -0.00117593 0.000300431 0.00389696 -0.00476617 -0.00272208 0.155163 -0.0989361 0.00694698 
282 1 1 -0.0182492 0.0185272 0.0445939 0 0 0 0.000924571 -0.00191627 -0.0052152 -0.000606614 0.00725718 -0.0131096 -0.0957148 0.390036 0.0176245 0.00694698 
4 1 1 -0.00367108 0.0146111 0.0482248 0 0 0 0.00140002 -0.00264827 -0.00819485 -0.00541934 0.0273316 -0.0618772 -2.69769e-05 0.0464526 -0.044647 0.0111152 
58 1 1 0.0410763 0.0200215 0.0435634 0 0 0 0.000759705 -0.000840118 -0.00414072 0.0049085 0.00747218 -0.00417771 -0.022288 -0.199693 0.0187723 0.0111152 
199 1 1 -0.0449282 0.0285885 0.0409806 0 0 0 0.000309005 -0.000703126 -0.000582012 -3.89555e-05 0.00282889 -0.005193 0.107137 0.0789558 -0.058354 0.00694698 
192 1 1 -0.0256355 0.0271702 0.048131 0 0 0 0.00040273 -0.0011073 -0.00384933 0.000463314 0.0055463 -0.0104935 -0.158195 0.231742 0.117875 0.00694698 
292 1 1 -0.0147033 0.0324689 0.0485845 0 0 0 0.000134669 -0.00150435 -0.00782591 0.00157597 0.00687713 -0.0161886 0.133581 0.272292 -0.212502 0.00694698 
73 1 1 0.0108501 0.0280452 0.0457905 0 0 0 0.00160607 -0.0025789 -0.00783821 0.00658807 0.0113871 -0.0430506 0.0795275 -0.0835986 0.0602403 0.0111152 
327 1 1 -0.0435053 0.0432746 0.0497717 0 0 0 -0.000189943 -0.000296377 0.000266526 0.000899165 -0.000686055 -0.000524694 0.0171253 -0.0200578 -0.0593592 0.00694698 
126 1 1 -0.0115861 0.0442936 0.0464571 0 0 0 0.000182314 -0.000979677 -0.00412489 -0.000466318 0.00397407 -0.00886572 0.623851 0.195967 -0.0281602 0.00694698 
248 1 1 0.000188172 0.0432523 0.0425411 0 0 0 -5.34098e-05 -0.00191444 -0.00463998 -0.00145113 0.00210023 -0.0116245 0.294646 -0.202518 -0.153473 0.00694698 
229 1 1 0.0125658 0.0445199 0.0454217 0 0 0 0.000134634 -0.00164194 -0.00342232 0.000691214 0.000637195 -0.00378522 0.338615 0.0850604 0.209897 0.00694698 
114 1 1 0.0401323 0.0407996 0.0407353 0 0 0 0.000555853 -0.000332424 -0.00216437 0.0040439 0.00444306 -0.00181482 0.0699763 -0.139386 0.0478794 0.0111152 
314 1 1 -0.0174741 -0.0445504 0.0555932 0 0 0 -0.000293483 -0.000651342 -0.00110181 0.000337469 0.00269019 0.00396855 -0.0370905 0.00415922 0.0161235 0.00694698 
337 1 1 -0.00609971 -0.0408588 0.0515854 0 0 0 -0.000118511 -0.00221265 -0.00320672 -0.00050335 0.00451096 0.00710293 -0.0756075 0.14469 -0.275546 0.00694698 
56 1 1 0.00688402 -0.039401 0.0619732 0 0 0 0.000622001 -0.00181726 -0.00471431 -0.00583874 0.0112713 0.0189962 -0.309313 0.00415641 -0.081072 0.0111152 
265 1 1 0.0220178 -0.0437245 0.0552633 0 0 0 0.000121832 -0.000644115 -0.0027647 -0.000524018 0.00185085 0.00198763 0.0890096 -0.14098 0.160944 0.00694698 
49 1 1 0.0406726 -0.0407586 0.0580768 0 0 0 0.000406048 -0.000671667 -0.00272262 -0.00340721 0.00599814 0.0102577 -0.199956 -0.214422 -0.00143529 0.0111152 
84 1 1 -0.0411464 -0.0329945 0.0553176 0 0 0 -0.000310845 -0.0011948 -0.000444785 0.00631123 0.0148562 0.0158514 -0.151388 -0.0165561 -0.111359 0.0111152 
307 1 1 -0.0195851 -0.0324372 0.0571136 0 0 0 0.000156044 -0.00154848 -0.00271468 0.00279516 0.00562306 0.00818666 -0.200275 -0.10505 -0.0754928 0.00694698 
326 1 1 0.0447957 -0.0254462 0.0534948 0 0 0 0.00032483 -0.00109804 -0.00360963 -0.000546314 0.00227443 0.0033756 -0.048513 -0.591421 0.169514 0.00694698 
81 1 1 -0.0216689 -0.0170446 0.0624331 0 0 0 0.00062058 -0.00124392 -0.00460439 -0.0010535 0.0358072 0.00785989 -0.0745117 -0.0288478 -0.0331338 0.0111152 
52 1 1 0.0112852 -0.0221429 0.0507316 0 0 0 0.00134154 -0.00337919 -0.0081066 -0.00480656 0.0287113 0.0291925 -0.0196572 0.0467791 -0.018187 0.0111152 
332 1 1 0.0267559 -0.015205 0.0567094 0 0 0 0.000702752 -0.00305883 -0.00818351 -0.000950319 0.00654528 0.00667319 0.0498937 -0.107763 0.0805455 0.00694698 
220 1 1 -0.043805 -0.00977326 0.0542193 0 0 0 5.26144e-06 -0.000394419 -0.000629876 -0.000871061 0.00447103 -0.00303853 -0.0554492 -0.0377557 -0.1034 0.00694698 
133 1 1 -0.0272082 -0.00283628 0.0559988 0 0 0 0.00079772 -0.000942939 -0.00365863 -0.00341837 0.00611367 -0.00714116 0.139596 0.239697 -0.0559842 0.00694698 
24 1 1 -0.0102671 -0.00372536 0.0528054 0 0 0 0.00111253 -0.00240584 -0.00675262 -0.0174101 0.0294172 -0.0387917 -0.0836869 0.12452 -0.0521087 0.0111152 
240 1 1 0.0172581 -0.00749405 0.0553646 0 0 0 0.000875439 -0.00311327 -0.0100483 -0.00193669 0.00573182 -0.000308321 -0.190501 -0.0928572 0.041931 0.00694698 
236 1 1 -0.0236967 0.0082767 0.0507808 0 0 0 0.000903481 -0.0012505 -0.00363313 -0.000670041 0.00612569 -0.00910144 -0.0946831 -0.0126638 -0.0786657 0.00694698 
15 1 1 0.0136551 0.00817687 0.0563082 0 0 0 0.000946588 -0.00285224 -0.0108811 -0.0157157 0.0158748 -0.0479115 -0.00873659 0.0929359 -0.0149251 0.0111152 
291 1 1 0.0437838 0.0122411 0.0588961 0 0 0 -0.000350505 0.000280237 -0.00316274 -0.000457229 0.00112437 -0.000835002 -0.207325 -0.0763102 -0.112004 0.00694698 
335 1 1 -0.0343185 0.0161558 0.0526673 0 0 0 0.000555119 -0.000826728 -0.00236447 -0.00104364 0.00508708 -0.00793354 -0.0316675 0.111535 0.0433192 0.00694698 
266 1 1 0.0217569 0.0233185 0.0586794 0 0 0 0.00147278 -0.00207764 -0.0096287 -0.00252941 0.000982066 -0.00734901 0.134448 0.0828904 -0.0327052 0.00694698 
298 1 1 0.030284 0.0135346 0.0553243 0 0 0 0.000115613 -0.00202162 -0.00941822 -0.00287726 0.00181606 -0.00364757 0.122327 -0.149202 0.14971 0.00694698 
262 1 1 -0.0377415 0.0287307 0.0508413 0 0 0 0.000675606 -0.000887209 -0.0016032 0.00079078 0.00484179 -0.00712636 -0.0659328 0.0529657 -0.0686991 0.00694698 
99 1 1 -0.0036198 0.0303653 0.0615054 0 0 0 0.00274587 -0.000765384 -0.0116397 0.0102279 0.023127 -0.0695841 -0.446101 0.211943 0.0386733 0.0111152 
122 1 1 -0.0274318 0.0409184 0.0558347 0 0 0 0.000962442 -0.000666629 -0.00218732 0.013041 0.00779054 -0.019748 0.14427 0.250742 0.0868344 0.0111152 
158 1 1 0.00112207 0.0448738 0.05697 0 0 0 -0.0676002 0.000400274 -0.0806122 0.000412994 0.0034648 -0.00607315 12.6793 72.7212 -10.5674 0.00694698 
47 1 1 0.0244967 0.0400916 0.0559349 0 0 0 0.000864364 -0.000637697 -0.00495588 -0.00437138 -9.15177e-05 -0.0105467 0.149697 -0.0123995 0.146549 0.0111152 
203 1 1 0.0420081 0.044191 0.0569429 0 0 0 0.000626723 0.000107025 -0.00206739 -0.000957262 -0.000125864 0.000659184 0.124773 0.192312 0.124129 0.00694698 
6 1 1 -0.0273263 -0.0408036 0.0684903 0 0 0 -0.000220588 -0.000404839 -0.00097057 0.00682847 0.0133147 0.0191087 -0.0689646 0.0903155 0.0310666 0.0111152 
190 1 1 -0.00862822 -0.0442096 0.0646026 0 0 0 0.00038604 7.45605e-05 -0.00207167 0.000238349 2.25443e-05 0.00471899 -0.278629 0.149476 -0.0443741 0.00694698 
189 1 1 0.0268464 -0.0442007 0.0673441 0 0 0 0.000176116 -0.00033435 -0.00280921 -0.000379945 0.00134399 0.00254129 -0.247035 0.138312 0.0571345 0.00694698 
186 1 1 0.0437409 -0.0441968 0.0738317 0 0 0 -0.0002883 0.000160111 -0.000753324 -0.000405517 0.00017041 0.000398388 0.0323161 0.0703421 0.00178674 0.00694698 
313 1 1 -0.011863 -0.0316747 0.0682071 0 0 0 0.000262205 -0.000393267 -0.00458223 0.00372876 0.00145244 0.0104325 -0.127119 0.195346 0.0361266 0.00694698 
227 1 1 0.00766318 -0.0253977 0.0722243 0 0 0 0.00079318 -0.000725468 -0.0082331 4.17284e-05 0.00695747 0.00734922 -0.0282263 0.0851646 0.132311 0.00694698 
91 1 1 0.0235319 -0.0277785 0.0665892 0 0 0 0.00100083 -0.00173124 -0.00727303 -0.012905 0.0146933 0.0260566 -0.255964 -0.088769 -0.0185387 0.0111152 
247 1 1 0.0400884 -0.0264411 0.0680869 0 0 0 0.00109992 -0.00150162 -0.00476147 -0.00288512 0.00256845 0.00427209 0.0292227 -0.0877684 -0.0542986 0.00694698 
36 1 1 -0.0407306 -0.0173241 0.0691415 0 0 0 0.000257065 -0.000254344 -0.00184058 0.00408371 0.0149825 0.00590368 0.0266203 0.150698 -0.0146046 0.0111152 
137 1 1 -0.00226779 -0.0232187 0.0635628 0 0 0 0.000755672 -0.00185858 -0.00731744 1.64572e-05 0.00664028 0.00665143 -0.128801 -0.0606738 -0.0795081 0.00694698 
276 1 1 0.0201781 -0.0125535 0.0722639 0 0 0 0.00145658 -0.00217256 -0.0109368 -0.00403757 0.00948703 0.00277803 0.129306 0.0668653 0.0648141 0.00694698 
215 1 1 0.0333378 -0.0151392 0.0705885 0 0 0 0.00060986 -0.00147823 -0.00823498 -0.00351591 0.00288674 0.00340693 -0.158499 -0.316622 -0.0784907 0.00694698 
217 1 1 0.0446144 -0.0151035 0.0644115 0 0 0 0.000303413 -0.00113169 -0.00332065 -0.00125376 0.00188209 0.00215525 0.017667 -0.294558 0.260049 0.00694698 
182 1 1 -0.0291275 -0.00431233 0.0735762 0 0 0 0.000847619 0.000302362 -0.00232893 0.00175256 0.00910129 -0.00533277 -0.115748 0.0650482 -0.00700331 0.00694698 
10 1 1 0.00493328 -0.00796824 0.0666271 0 0 0 0.00144692 -0.00219663 -0.00978187 -0.0252726 0.0448837 -0.0193503 -0.0034007 0.105864 -0.0503376 0.0111152 
148 1 1 0.0445355 -0.00238387 0.0634376 0 0 0 0.000108792 -0.000713426 -0.00448451 -0.000844978 0.00238636 -0.00125596 -0.313094 -0.468277 -0.102074 0.00694698 
32 1 1 -0.0399501 0.0041493 0.0635952 0 0 0 0.000917319 -0.000415788 -0.00130793 -0.00436113 0.0202222 -0.0191942 -0.0235609 0.0545714 -0.0269824 0.0111152 
197 1 1 -0.0192998 0.00212891 0.0660139 0 0 0 0.00141366 -0.000395361 -0.00585047 -0.00211258 0.0114392 -0.00862787 -0.153858 -0.0745429 0.0125844 0.00694698 
115 1 1 -0.00374799 0.0105757 0.0687337 0 0 0 0.00208854 -0.000736004 -0.00863984 -0.0191044 0.0376312 -0.0596091 -0.0393786 0.131817 -0.0974672 0.0111152 
87 1 1 0.0291364 0.000599175 0.0669705 0 0 0 0.000627375 -0.00119934 -0.0108128 -0.0167729 0.00570016 -0.0170099 -0.0764192 -0.209866 0.106921 0.0111152 
338 1 1 0.0431296 0.00836623 0.0719551 0 0 0 0.000585268 -1.9456e-05 -0.00607266 -0.00335445 -0.000544124 -0.00144182 0.298167 -0.0291398 -0.0368052 0.00694698 
39 1 1 -0.0408672 0.0245388 0.0667559 0 0 0 0.0012997 -0.000221117 -0.00117687 -0.002989 0.0172645 -0.0246429 0.0424245 0.0984435 -0.0116639 0.0111152 
117 1 1 -0.0212996 0.0203412 0.063069 0 0 0 0.0019452 -0.000188146 -0.00515892 -0.00341844 0.0426009 -0.0502526 -0.066154 0.182442 -0.053752 0.0111152 
140 1 1 0.00953928 0.0208901 0.0652377 0 0 0 0.00250193 -0.00106219 -0.0124747 -0.00206422 0.00296725 -0.0155925 -0.287388 0.156523 -0.135416 0.00694698 
106 1 1 0.0402754 0.0284279 0.0625137 0 0 0 0.00108605 9.99888e-05 -0.00467922 -0.00794781 -0.00150196 -0.00176483 0.0689709 -0.165419 -0.0478633 0.0111152 
174 1 1 -0.0431559 0.0430567 0.0643894 0 0 0 0.00125371 -0.000715395 0.000169622 0.00316253 -0.000485167 -0.00467422 0.0916926 0.0122179 -0.10598 0.00694698 
315 1 1 -0.0119115 0.0443702 0.0643216 0 0 0 0.00109898 -0.00070443 -0.00716932 0.00437496 0.00254442 -0.0119763 1.14151 -0.10532 0.276012 0.00694698 
308 1 1 -0.00210126 0.043824 0.0740786 0 0 0 -0.000910566 0.000166652 -0.00516434 -0.0061358 -0.00231975 -0.00290563 0.663135 0.919572 0.0248605 0.00694698 
124 1 1 0.0438795 0.0437193 0.0698235 0 0 0 0.000608327 -0.000120476 -0.00179574 -0.00238435 -0.00126769 0.000581108 0.0989636 -0.198164 0.00713626 0.00694698 
252 1 1 -0.0397733 -0.044504 0.0795652 0 0 0 0.000216053 -4.0499e-05 0.000430339 0.000763279 0.00208695 0.0019348 0.089827 0.0896184 -0.0156719 0.00694698 
163 1 1 -0.0279223 -0.0437503 0.085661 0 0 0 0.000267389 0.000204022 -0.000705001 0.00320088 0.00197468 -0.00072756 -0.0714158 0.0343579 0.00530925 0.00694698 