ITEM: TIMESTEP
15750
ITEM: NUMBER OF ATOMS
338
ITEM: BOX BOUNDS mm mm mm
-0.05 0.05
-0.05 0.05
0 0.15
ITEM: ATOMS id type type x y z ix iy iz vx vy vz fx fy fz omegax omegay omegaz radius 
319 1 1 -0.0147601 -0.0444338 0.00552898 0 0 0 -0.00353665 0.00607014 0.00367363 -1.02513e-06 2.01859e-06 -0.000758021 -1.0962 -0.638709 -1.77023 0.00554565 
243 1 1 -0.00360824 -0.0438369 0.00552898 0 0 0 0.00288666 -0.0592623 0.00361644 8.51348e-07 -1.74691e-05 -0.00069127 10.7019 0.52129 0.495629 0.00554565 
260 1 1 0.0216323 -0.0445065 0.00539476 0 0 0 -0.00250811 0.00758513 -0.00497861 0.0158732 -0.000286739 0.0117969 -1.92103 0.0793586 4.52347 0.00554565 
78 1 1 0.039524 -0.0415447 0.00850921 0 0 0 -0.0064291 0.00839487 -0.00386068 -0.0274423 0.0507148 -0.0262302 -1.27305 -0.620481 1.29153 0.00887304 
74 1 1 -0.0409212 -0.0362784 0.0087587 0 0 0 0.0347813 -0.00461791 -0.0141331 -0.0472974 -0.0183329 -0.0631714 0.814228 3.03363 4.57404 0.00887304 
131 1 1 -0.0271568 -0.0403783 0.00547047 0 0 0 0.0622271 -0.0170374 -0.00333806 -0.0169049 0.0253701 0.0076927 2.94037 11.2842 24.6643 0.00554565 
60 1 1 0.00824584 -0.0356315 0.00855345 0 0 0 -0.00646263 0.00390581 0.00564573 -0.021358 0.0218527 -0.00157124 -0.737019 -0.22044 2.78775 0.00887304 
296 1 1 -0.0287835 -0.0292841 0.00550583 0 0 0 0.0438172 0.0452689 0.00302588 -0.0153734 -0.00814679 0.0401627 -2.99706 -1.07167 0.0173665 0.00554565 
173 1 1 -0.0174561 -0.0281903 0.00552918 0 0 0 -0.0710311 -0.0234807 0.00206761 -3.49925e-05 -0.000148211 0.000810335 4.26915 -12.8361 -2.91571 0.00554565 
275 1 1 -0.00203535 -0.0262855 0.0054061 0 0 0 -0.00694251 0.00140905 0.000443561 0.00449082 0.0102355 -0.00730497 0.70416 -0.773003 -4.85353 0.00554565 
144 1 1 0.0407824 -0.0265456 0.00552898 0 0 0 -0.00431018 0.0225082 0.00362881 -1.27466e-06 6.65639e-06 -0.000715933 -4.06467 -0.778357 -10.8352 0.00554565 
102 1 1 -0.0415525 -0.01886 0.00845192 0 0 0 -0.000871579 -0.00701886 0.00113556 -0.00197845 -0.00882314 0.00281852 1.17738 -0.238531 -0.849544 0.00887304 
328 1 1 -0.0275875 -0.0177979 0.00546827 0 0 0 0.00251205 0.0332464 0.00215735 -0.00492359 0.00836959 0.00633076 -6.35539 0.889315 11.8217 0.00554565 
40 1 1 -0.0110327 -0.0156481 0.00872748 0 0 0 -0.0370132 -0.0160434 -0.00272786 -0.0287124 -0.00644206 0.0205298 1.85287 -4.02268 6.29132 0.00887304 
279 1 1 0.00453063 -0.0171598 0.00552934 0 0 0 -0.0439161 0.0120301 0.0053729 -0.0709391 -0.088448 0.00364994 -2.76337 -6.90237 12.4879 0.00554565 
267 1 1 0.0154191 -0.0192821 0.00552537 0 0 0 -0.0242401 -0.0563133 0.00977699 0.00343328 0.000278186 -0.00490846 9.17762 0.21044 -22.6555 0.00554565 
202 1 1 0.0444926 -0.0159176 0.00547887 0 0 0 -0.00202863 -0.0132359 0.00100333 0.0025487 -0.00684746 0.00653794 2.51953 -0.221872 2.34357 0.00554565 
274 1 1 -0.0227585 -0.00790191 0.00579427 0 0 0 -0.0128113 0.0406283 0.0113621 -0.000922186 0.0162024 0.0206099 10.5526 0.428626 -12.8432 0.00554565 
50 1 1 0.02616 -0.010222 0.00866572 0 0 0 -0.0172787 -0.035581 0.00396942 0.0071378 0.0250645 0.0120751 3.97317 -2.07531 12.3919 0.00887304 
257 1 1 -0.0439574 -0.00361419 0.00552901 0 0 0 0.0257016 -0.0400037 0.00360382 7.55893e-06 -1.17649e-05 -0.000725743 7.22408 4.64133 -9.99631 0.00554565 
171 1 1 -0.0225937 0.00312232 0.00549442 0 0 0 0.0517159 0.0486422 0.00547943 -0.00623064 0.00776097 0.0150354 -10.3055 10.3438 0.85347 0.00554565 
17 1 1 -0.00862883 0.00287564 0.00895666 0 0 0 0.0508427 0.039574 0.00644552 -0.0411515 -0.0482939 0.0428364 0.291806 -6.3461 8.59262 0.00887304 
96 1 1 0.00957692 -0.00411502 0.00883342 0 0 0 -0.0224292 -0.0191676 0.0065979 -0.0270338 -0.00190649 0.0055221 0.647251 2.23501 -12.2757 0.00887304 
164 1 1 0.0211652 0.00362687 0.00553618 0 0 0 -0.0228469 -0.0280524 -0.00735817 -0.00384269 0.0307679 -0.0265491 1.8977 1.95916 17.7831 0.00554565 
268 1 1 -0.031743 0.00928887 0.00543192 0 0 0 0.00712756 -0.0105289 0.00123935 -0.00861832 0.00245376 -0.00614959 1.99823 0.907714 8.54965 0.00554565 
290 1 1 -0.000235274 0.0141404 0.00538362 0 0 0 -0.039971 0.156424 0.00092801 0.00643574 -0.0402418 0.00622385 -27.7054 -7.1224 -37.2659 0.00554565 
94 1 1 0.0349762 0.00507872 0.00903401 0 0 0 -0.0301897 -0.014629 0.00790211 0.0363791 0.0445117 -0.023639 -1.91098 -3.59547 -9.97693 0.00887304 
232 1 1 -0.0392031 0.0174821 0.00542212 0 0 0 0.0306666 0.00681233 0.00517269 0.0143732 0.0240107 -0.000296817 -1.00048 5.57381 -40.4643 0.00554565 
297 1 1 -0.0265081 0.0189549 0.00539847 0 0 0 -0.00681528 0.00572273 0.00633585 0.00084908 -0.00756671 0.0067365 -1.37399 -1.14241 -4.61054 0.00554565 
222 1 1 -0.0125557 0.0160949 0.00532248 0 0 0 0.00163502 0.0183592 -0.0110492 -0.000281077 -0.00397889 0.0145726 -2.54035 0.369212 -1.60162 0.00554565 
98 1 1 0.0135038 0.0158923 0.00880993 0 0 0 -0.0103287 0.00735415 0.0197106 0.048578 -0.0360233 -0.0382352 -1.93696 -0.964492 0.00478241 0.00887304 
316 1 1 0.0274635 0.0167835 0.00549263 0 0 0 0.00718481 0.0387437 0.00796347 0.00160362 -0.00360661 0.0039067 1.99703 4.61786 4.49697 0.00554565 
162 1 1 0.0443693 0.0165594 0.00552899 0 0 0 -0.00813731 0.0447934 0.00363455 -2.41045e-06 1.32687e-05 -0.000736494 -8.08905 -1.46948 -1.75426 0.00554565 
294 1 1 -0.0445409 0.0291606 0.00547156 0 0 0 -0.00130295 -0.00231443 0.000791018 -0.00170306 8.12871e-05 -0.00207669 0.267778 -0.393131 -0.0248878 0.00554565 
255 1 1 -0.020358 0.028045 0.00546941 0 0 0 0.0140182 -0.00764419 0.00407443 -0.0168384 0.0128168 0.00833477 2.13507 2.22113 0.312003 0.00554565 
324 1 1 -0.00635846 0.0280563 0.00552878 0 0 0 -0.0130217 0.0901289 0.00505231 -2.17059e-05 4.61987e-05 -0.00206267 -16.2772 -2.35216 14.2966 0.00554565 
161 1 1 0.00649664 0.0303794 0.00553319 0 0 0 0.0776726 0.0882734 0.00614818 0.000641254 0.000946123 -0.0107445 -15.9033 14.1096 -19.042 0.00554565 
77 1 1 0.0217569 0.0314084 0.0084688 0 0 0 0.00372131 0.00498855 -0.00346431 -0.010833 0.00402112 -0.0133998 -0.942934 0.715979 -1.59464 0.00887304 
155 1 1 0.0351586 0.0253953 0.00552826 0 0 0 0.0720055 0.0609763 0.00400261 -0.00509868 -0.00722922 0.000171854 -1.44473 6.25663 -5.34265 0.00554565 
175 1 1 -0.0335314 0.0322263 0.00546023 0 0 0 -0.00142212 -0.00836099 0.00707491 0.0011945 -0.00255842 0.00506594 1.50698 -0.146398 -10.2303 0.00554565 
289 1 1 0.0445404 0.035122 0.00546577 0 0 0 0.000563524 0.032893 -0.00508651 -0.00281671 0.00156061 -0.00288637 -6.02055 -0.612856 -5.98862 0.00554565 
321 1 1 -0.0445254 0.0445279 0.00547221 0 0 0 0.00267315 6.29049e-05 0.00229476 0.000187532 -0.00131483 0.00219235 -0.382889 0.108542 0.40736 0.00554565 
207 1 1 -0.0333376 0.0444401 0.00552908 0 0 0 0.0132341 -0.00508011 0.00360887 3.90648e-06 -1.40555e-06 -0.000874196 0.917367 2.38986 2.35996 0.00554565 
38 1 1 -0.0163704 0.0414645 0.00855578 0 0 0 0.00492321 -0.00195642 0.0096777 -0.0267804 -0.00979035 0.0149113 -0.578814 -0.0380372 1.07564 0.00887304 
149 1 1 0.00602011 0.0444621 0.00552496 0 0 0 0.0504769 -0.00604833 0.00459848 -0.000814819 0.00064974 -0.00126798 1.34708 8.96706 9.37641 0.00554565 
249 1 1 0.0309256 0.0443987 0.00553058 0 0 0 -0.057008 -0.013364 0.00278803 -1.43967e-05 -8.47702e-06 -0.00258906 2.42163 -10.2924 -10.3126 0.00554565 
299 1 1 -0.0279194 -0.0447277 0.0155484 0 0 0 0.0407168 -0.0198484 -0.0125843 -0.00812509 0.00712268 0.0162341 -2.52486 -22.6242 -8.121 0.00554565 
130 1 1 0.0166714 -0.0447628 0.0151375 0 0 0 0.00875373 0.00558481 0.00626811 -0.00160715 3.22507e-05 0.000425206 1.00825 2.02249 -2.03557 0.00554565 
167 1 1 0.0276977 -0.0445213 0.0175475 0 0 0 -0.00292611 -0.0206975 -0.00077975 0.0303575 0.00444695 0.0210724 0.226178 2.4848 -0.20098 0.00554565 
67 1 1 0.0251036 -0.0319368 0.0111925 0 0 0 -0.00415606 0.00485288 0.0132131 0.00752655 0.0078457 0.0235962 4.18242 0.390924 -2.285 0.00887304 
179 1 1 -0.0345355 -0.0261625 0.0181849 0 0 0 -0.0124874 -0.0317917 -0.00288665 -0.00943636 0.00272859 0.00750568 -4.61661 5.67939 -9.849 0.00554565 
104 1 1 -0.00496709 -0.0303914 0.0187255 0 0 0 -0.0199244 0.0165289 0.00735953 -0.049682 0.035223 -0.113162 -1.83298 0.327827 -2.00235 0.00887304 
278 1 1 0.0319834 -0.0207252 0.0161812 0 0 0 0.00615022 -0.0150247 0.0255791 0.000729346 0.0235058 -0.0152692 -13.0541 -16.3118 -4.54119 0.00554565 
183 1 1 0.0405127 -0.0138641 0.015545 0 0 0 0.012722 -0.0261416 0.0154885 -0.00287615 -0.00301691 0.0110678 -2.91209 5.2472 4.92683 0.00554565 
146 1 1 -0.0444924 -0.00735328 0.0165577 0 0 0 0.00718856 -0.0166294 0.0340128 0.0104684 0.0048634 -0.0047744 6.17506 -6.13032 -3.73443 0.00554565 
160 1 1 -0.00157629 -0.00601235 0.0176181 0 0 0 -0.00637856 0.0304315 0.0446428 -0.00806143 -0.0169238 0.0139466 7.61005 -13.1676 -7.67149 0.00554565 
25 1 1 -0.0412621 0.00664102 0.0156983 0 0 0 0.00345476 -0.00110734 0.00844515 -0.0341175 0.0543752 -0.0166981 -7.84859 -1.75116 -0.00658835 0.00887304 
286 1 1 -0.00170991 0.0136648 0.0162309 0 0 0 0.0132519 0.111912 0.0184922 0.00227096 -0.0611758 -0.000605342 40.5251 20.6328 -14.0372 0.00554565 
261 1 1 0.0445666 0.0119718 0.0170625 0 0 0 -0.00502944 -0.0287934 0.00916772 -0.00375656 0.0217554 0.0107623 -4.3056 1.76825 5.07298 0.00554565 
300 1 1 -0.0445179 0.0205419 0.0170211 0 0 0 0.00701364 0.00547733 -0.0486137 -2.29249e-05 0.0279011 -0.0103862 0.76494 8.44147 0.316261 0.00554565 
273 1 1 -0.0339665 0.0215843 0.0141096 0 0 0 0.0460062 -0.0432826 0.0322904 0.0157462 0.0139747 -0.00115687 -14.4633 -24.7938 -5.34709 0.00554565 
28 1 1 -0.0190167 0.0194755 0.0174965 0 0 0 0.0200056 -0.0151998 0.00728427 -0.0198483 -0.0242594 0.0525397 4.63788 3.1849 3.64467 0.00887304 
284 1 1 0.0398652 0.0219192 0.0156234 0 0 0 -0.00799533 -0.0320439 -0.0293302 0 0 -0.0175209 -14.0793 34.3605 -12.7913 0.00554565 
320 1 1 0.00151577 0.0236294 0.0128047 0 0 0 0.129688 0.0674483 0.0227537 0.0938819 -0.00943582 -0.0703108 7.22174 -8.66483 23.5611 0.00554565 
305 1 1 -0.0412653 0.0368342 0.0126262 0 0 0 -1.98856e-05 -0.00921212 0.00724949 -0.002958 -0.0109028 0.00222068 1.06754 -0.455205 -1.91255 0.00554565 
23 1 1 -0.0286897 0.0340364 0.0188172 0 0 0 0.00149318 -0.0127189 0.0215035 0.00161901 0.0204242 0.0114127 -2.09894 -1.13646 0.777975 0.00887304 
61 1 1 0.036267 0.0358499 0.0171373 0 0 0 0.000598043 0.0155399 -0.00621934 -0.0218309 0.0816286 -0.0525574 5.02986 0.461752 5.4001 0.00887304 
237 1 1 -0.00274787 0.0444268 0.0122969 0 0 0 0.0344679 -0.0135648 -0.00884825 -0.00331757 -4.5857e-06 -0.0106442 -1.18951 -9.29608 -7.81429 0.00554565 
239 1 1 0.0203181 0.0448141 0.0122183 0 0 0 0.00298616 0.00513534 -0.00691769 -0.0138987 -0.00441951 -0.00323953 1.46745 -8.24735 0.636403 0.00554565 
331 1 1 -0.0426447 -0.0448299 0.0197874 0 0 0 0.00501397 -0.00215857 -0.0133189 -0.0589874 0.0161698 0.0595231 -3.12087 -16.3749 -3.02844 0.00554565 
225 1 1 -0.00389375 -0.0445978 0.0190038 0 0 0 -0.0164351 0.00501539 0.00193958 -0.014629 0.00655174 -0.0254109 0.20452 53.3835 2.90836 0.00554565 
242 1 1 0.00785319 -0.0445236 0.0216801 0 0 0 0.00485172 -0.0103426 0.0246723 0.0112406 0.00195083 0.00878224 6.2692 0.352597 0.869829 0.00554565 
136 1 1 0.0444522 -0.0439123 0.0218342 0 0 0 -0.0127593 -0.0543781 -0.00281142 0.00147231 0.00197564 -0.0107324 -2.02154 -2.09314 -11.9166 0.00554565 
180 1 1 -0.0446056 -0.0345928 0.0228531 0 0 0 0.0100187 -0.00231231 0.0109788 -0.0422092 -0.00492647 -0.00243679 10.059 -2.68629 -0.964644 0.00554565 
256 1 1 -0.0343459 -0.038429 0.023185 0 0 0 0.00960481 -0.0345699 0.0129981 -0.0400375 -0.0171223 0.0123704 -2.11546 0.993324 -4.64668 0.00554565 
7 1 1 -0.0220951 -0.0323891 0.0191039 0 0 0 -0.0102062 -0.0177556 0.00572478 -0.0524536 0.0069956 0.0100017 -2.76383 -1.35131 6.97726 0.00887304 
271 1 1 0.0328876 -0.039583 0.0259145 0 0 0 0.0363317 -0.0409226 -0.00386228 -0.0220347 0.0128069 0.0228196 0.393602 4.59584 0.105828 0.00554565 
128 1 1 -0.0446508 -0.0238388 0.0213309 0 0 0 0.0018555 0.0122256 0.0136757 0.00719557 -0.00550159 -0.00951539 -6.99286 -0.236943 2.87662 0.00554565 
51 1 1 0.0108002 -0.0230895 0.0204147 0 0 0 -0.0130549 -0.0248443 0.0534371 -0.0606788 -0.0141066 -0.000110424 6.79469 -3.81227 -3.5179 0.00887304 
120 1 1 0.0415562 -0.02981 0.0209797 0 0 0 0.000485996 -0.0222026 0.043204 -0.0384131 0.130662 -0.128431 10.3525 5.04436 2.44565 0.00887304 
178 1 1 -0.0164315 -0.0193246 0.0215588 0 0 0 0.0223758 -0.0087417 0.0290883 -0.00426574 -0.00813144 -0.000934531 -5.11079 18.3703 -9.24011 0.00554565 
258 1 1 -0.00297969 -0.0165013 0.0204565 0 0 0 -0.0239863 0.0199044 -0.00640731 -0.00556946 -0.0115172 0.00941721 0.919986 8.20297 5.52799 0.00554565 
134 1 1 0.0446823 -0.0168265 0.0259324 0 0 0 -0.00363891 -0.0187302 0.0554845 -0.00366092 0.00188646 0.00654545 -10.9575 10.1361 3.84785 0.00554565 
19 1 1 -0.0298102 -0.0129028 0.0198669 0 0 0 0.00194923 -0.02771 0.0151764 0.02085 -0.0163312 0.0564635 8.2859 3.97847 6.6382 0.00887304 
310 1 1 -0.016044 -0.00728542 0.0191247 0 0 0 -0.046097 -0.0563719 0.0287218 0.00931373 -0.00503259 0.0251579 1.43181 13.7958 1.6185 0.00554565 
245 1 1 0.00467987 -0.0112791 0.026001 0 0 0 -0.0175078 -0.0163749 0.0253961 -0.0172588 -0.0054437 0.0195446 14.3614 -6.22791 -4.35363 0.00554565 
18 1 1 0.0183032 -0.00808026 0.0245764 0 0 0 -0.0100425 -0.0165003 0.0506981 -0.0375889 -0.0010919 0.0633567 -9.26758 0.75783 2.45151 0.00887304 
184 1 1 0.0314156 -0.0125312 0.0228527 0 0 0 -0.00529156 -0.006317 0.00771638 -0.00702912 0.000428823 0.0166273 9.25425 8.66224 -0.890872 0.00554565 
112 1 1 -0.0248094 0.00366692 0.021658 0 0 0 -0.00203668 -0.0170682 0.0257307 0.0384244 0.0245526 0.0948692 -6.15727 -2.31944 -6.00213 0.00887304 
55 1 1 0.0414717 -0.00310649 0.0249055 0 0 0 -0.00262612 -0.011678 0.00341923 0.00457696 -0.00600633 -0.014997 0.0668794 0.259752 1.77274 0.00887304 
4 1 1 -0.0088664 0.00938272 0.0278416 0 0 0 0.0446623 0.00868243 0.0132718 -0.0381302 0.0269273 0.0653232 -5.57845 -4.96219 0.528898 0.00887304 
100 1 1 0.00900713 0.00664639 0.0230783 0 0 0 0.022574 0.0226225 0.0568541 0.0690195 0.0450496 0.0320439 1.83823 12.1263 -8.71054 0.00887304 
95 1 1 0.027235 0.00669207 0.0263151 0 0 0 -0.0137462 -0.0079415 0.00131543 0.00707353 -0.00608401 0.00588517 1.80765 -1.87313 -2.27577 0.00887304 
2 1 1 -0.033593 0.017554 0.0278278 0 0 0 0.00541998 -0.000682532 0.0533381 -0.024678 0.0697573 -0.00890999 4.78153 8.79324 6.79916 0.00887304 
108 1 1 0.0213 0.0224976 0.0233238 0 0 0 0.0446498 0.0273411 0.0204913 0.0761041 0.0498627 0.028109 -2.1269 10.2384 -7.14598 0.00887304 
246 1 1 -0.0444574 0.0275711 0.0255523 0 0 0 0.00698282 -0.00817893 -0.0295013 0.00291794 0.0204935 0.00424545 3.09196 -7.27914 1.55365 0.00554565 
73 1 1 0.00476073 0.0228513 0.0282413 0 0 0 0.0460668 0.0368305 0.0811463 0.111414 0.0345893 -0.00645293 -1.17229 -3.15084 7.1169 0.00887304 
69 1 1 -0.00742131 0.0320692 0.0201449 0 0 0 0.00965991 0.00132959 0.0350688 0.0447642 -0.11827 -0.0611328 0.260606 -1.40503 0.322556 0.00887304 
16 1 1 0.00928431 0.0374654 0.019352 0 0 0 0.0286745 0.00356494 0.0361238 -0.0217578 0.032873 -0.109184 6.92304 2.10927 -2.75176 0.00887304 
323 1 1 -0.0130518 0.0447793 0.0221138 0 0 0 -0.00568177 0.00666031 0.0160896 0.00142152 -0.0221549 -0.00721188 -2.3221 -3.1623 -0.524252 0.00554565 
224 1 1 -0.0419099 -0.0444179 0.0307093 0 0 0 -0.0532549 0.0517394 0.0200163 -0.0133013 0.0290719 0.299108 -6.61105 12.2196 -5.30009 0.00554565 
42 1 1 -0.012363 -0.0413234 0.0306132 0 0 0 0.00815075 0.0172905 0.0301347 0.0544727 0.0233791 -0.0319026 2.89656 -2.9298 0.377141 0.00887304 
168 1 1 0.00181888 -0.0416541 0.0303963 0 0 0 0.0282545 -0.0624418 0.0570466 0.00333848 0.0054557 -0.00981615 13.7819 0.246559 -16.8003 0.00554565 
3 1 1 0.0200306 -0.041395 0.0311116 0 0 0 0.0593215 0.00509729 0.0498116 -0.152368 0.0823289 0.121974 4.38202 3.335 -8.63052 0.00887304 
125 1 1 0.0393207 -0.04367 0.0338498 0 0 0 0.0248634 -0.0115498 -0.0570261 0.0595535 -0.177588 0.183307 -5.355 -5.07734 4.20638 0.00554565 
211 1 1 -0.0444947 -0.0327984 0.0336736 0 0 0 0.00804576 0.0204653 0.0273272 0.00783642 -0.00919272 -0.0202063 -14.7382 3.08659 3.32093 0.00554565 
93 1 1 -0.0292438 -0.0318142 0.0350787 0 0 0 0.00708948 0.0278826 0.0322272 0.0348674 0.0403378 0.0827171 -7.74501 5.06429 0.949158 0.00887304 
191 1 1 0.00859379 -0.0331677 0.0301472 0 0 0 0.0210203 -0.0364793 0.0518318 -0.0254461 0.0029442 -0.00946834 -12.4604 -0.170357 22.5448 0.00554565 
43 1 1 -0.00619851 -0.0247758 0.0354693 0 0 0 -0.00847188 -0.0101885 0.00871365 0.0343475 0.0279863 0.0702387 2.55787 3.12883 3.06113 0.00887304 
105 1 1 0.0328883 -0.0283303 0.0362306 0 0 0 -0.00551335 -0.0639273 0.0580754 -0.0136797 0.0803159 -0.122499 -13.3192 -4.84465 11.4135 0.00887304 
66 1 1 -0.0412269 -0.0188737 0.0342606 0 0 0 -0.00658412 0.0191193 0.0191288 -0.0472104 0.0222517 -0.121884 3.69465 -1.71007 0.931587 0.00887304 
259 1 1 0.0286648 -0.0146343 0.0332433 0 0 0 0.0109261 -0.0412277 0.0130026 0.00343211 -0.0116824 0.0140915 -1.01858 -4.2669 -1.36799 0.00554565 
336 1 1 -0.0215568 -0.00750312 0.0299538 0 0 0 -0.03132 -0.0253462 0.0587393 -0.0227283 -0.00018828 0.0295532 7.42404 -3.41253 14.1484 0.00554565 
24 1 1 -0.00759297 -0.00762791 0.031978 0 0 0 -0.00687716 0.00149451 0.0455302 -0.0598773 0.0577502 0.0796878 1.98752 3.31865 -4.80219 0.00887304 
107 1 1 -0.0387488 -0.00177576 0.0308728 0 0 0 -0.0237914 0.0287901 0.0341396 0.0190389 0.000291818 -0.0501401 3.32851 0.680193 -4.9509 0.00887304 
303 1 1 0.030895 -0.00399155 0.0350132 0 0 0 0.011805 -0.023345 -0.00731464 0.00542539 -0.00959434 0.0115044 -2.03503 13.9632 1.81407 0.00554565 
208 1 1 -0.0447568 0.0128441 0.0350348 0 0 0 0.00628369 -0.045127 0.0542848 0.00215149 0.0171906 -0.00125805 3.63552 -10.5797 -8.70729 0.00554565 
236 1 1 -0.0208568 0.00782088 0.0368365 0 0 0 0.0181792 -0.0236975 -0.043743 0 0 -0.0175209 -20.0785 -7.80106 9.02451 0.00554565 
282 1 1 -0.0198616 0.0176424 0.0317678 0 0 0 0.031712 0.00896159 -0.013983 -0.0133342 0.0280817 0.0118351 11.3217 -1.10831 -2.70356 0.00554565 
58 1 1 0.0414334 0.0154651 0.0308273 0 0 0 -0.00370531 -0.0187076 0.0155224 -0.0138504 -0.0288857 0.00467293 2.2376 2.28386 2.03341 0.00887304 
199 1 1 -0.0444674 0.0238778 0.0359782 0 0 0 -0.0166714 -0.0262966 -0.023223 0.0239622 0.0164417 0.0117214 0.486664 -2.21471 9.75079 0.00554565 
262 1 1 -0.0350414 0.0303058 0.0351312 0 0 0 -0.0200107 -0.0202747 -0.000248358 0.0280604 -0.00466967 -0.00328662 3.92763 -3.26705 -1.52906 0.00554565 
192 1 1 -0.0249067 0.0282115 0.0313508 0 0 0 0.0241847 0.00853804 0.0398541 0.00069586 0.0132923 0.00353182 2.79195 4.82129 -8.2934 0.00554565 
292 1 1 -0.0154986 0.0336345 0.031853 0 0 0 0.0275022 0.0160101 0.0542481 0.00888546 -0.00208796 -0.000264552 0.634439 -6.18689 9.58337 0.00554565 
47 1 1 0.0247342 0.0359958 0.0342016 0 0 0 -0.0232822 -0.0230311 0.110872 0.0013337 -0.0384206 0.00704123 3.5571 11.842 1.33359 0.00887304 
9 1 1 -0.0413093 0.041307 0.028573 0 0 0 -0.00512951 -0.00145451 0.00385965 -0.00384744 -0.010333 0.0204912 -0.072551 -0.568908 -0.497023 0.00887304 
122 1 1 -0.0261025 0.0412495 0.0374619 0 0 0 -0.00951678 -0.00934807 0.0190067 -0.00410757 0.0270333 -0.069755 -1.85369 -0.683618 -1.21872 0.00887304 
126 1 1 -0.0119555 0.044506 0.0338212 0 0 0 0.0433746 -0.00341054 0.0244401 0.00633629 -0.00617705 0.00129349 -4.35628 -28.7915 7.71078 0.00554565 
248 1 1 0.00247536 0.0444339 0.0299965 0 0 0 0.010256 -0.0171825 0.0693495 0 0 -0.0175209 -14.0633 -0.942383 8.76537 0.00554565 
229 1 1 0.0140231 0.0446523 0.0306207 0 0 0 -0.0215133 -0.0070665 0.0725033 -0.0207224 -0.00702071 -0.00755211 -12.5576 -21.962 -4.81617 0.00554565 
114 1 1 0.0413906 0.0413637 0.0329088 0 0 0 -0.0115424 -0.00804104 0.0076723 -0.0119255 0.0227287 -0.047095 -0.468494 0.254945 -0.513451 0.00887304 
329 1 1 -0.0238529 -0.0446041 0.0384014 0 0 0 0.0166288 0.0103638 0.0381245 0.00545861 0.0109429 0.00289118 5.53501 9.72839 -4.72559 0.00554565 
314 1 1 -0.0138169 -0.0446095 0.045049 0 0 0 0.0133558 0.0080587 0.0650875 -0.0102873 0.00451757 -0.0124615 11.0058 0.931979 -3.86945 0.00554565 
283 1 1 0.0299878 -0.0440234 0.0409898 0 0 0 0.019243 -0.0492301 0.0834988 -0.0215856 -0.00847812 0.0307469 11.6127 -18.1387 19.4256 0.00554565 
307 1 1 -0.0171217 -0.033913 0.042471 0 0 0 0.027086 0.0277503 0.0312319 0.0129503 0.00337116 -0.00236195 5.77971 -5.84407 -5.12463 0.00554565 
337 1 1 -0.00650899 -0.0368806 0.0429266 0 0 0 0.0350211 -0.00744185 0.0438364 0.000740355 0.00406519 0.0064591 -9.68593 4.83045 -1.3596 0.00554565 
56 1 1 0.00757096 -0.0387656 0.0432826 0 0 0 0.0527513 0.0286632 0.0657985 -0.0499077 -0.0208644 0.064118 -1.67364 -4.38752 4.62329 0.00887304 
326 1 1 0.044584 -0.0279097 0.0443801 0 0 0 0.000711679 0.0211731 0.0539717 -0.00536859 -0.00290187 -0.0127961 15.2239 9.4749 -3.96652 0.00554565 
81 1 1 -0.0210678 -0.0167308 0.040733 0 0 0 -0.0179138 -0.0529782 0.0584787 0.00582286 -0.070216 -0.000257179 -1.90504 1.43414 -3.98714 0.00887304 
52 1 1 0.0114332 -0.0215797 0.0380246 0 0 0 -0.00644299 -0.0205035 0.0581457 -0.0523332 -0.0656356 -0.0552174 0.518615 2.48628 -2.46012 0.00887304 
332 1 1 0.0246629 -0.0185684 0.0426682 0 0 0 0.00446506 -0.011336 0.0308877 -0.00177843 -0.00871613 0.012389 1.33261 10.4151 -17.4282 0.00554565 
220 1 1 -0.0444926 -0.00760109 0.0424975 0 0 0 -0.00368936 0.00676805 0.0414638 0.0118683 0.0126752 0.00240544 1.24243 6.11318 2.46541 0.00554565 
10 1 1 0.00721712 -0.00474579 0.041033 0 0 0 0.00109375 -0.0234362 0.0574761 0.00590452 -0.0128368 -0.0262105 -0.0856016 -4.58719 2.60062 0.00887304 
240 1 1 0.0210345 -0.00697028 0.0385433 0 0 0 0.0193402 -0.0297189 0.0601246 -0.00325395 -0.00402958 0.00239801 17.5819 3.54449 -7.73559 0.00554565 
5 1 1 0.0412908 -0.0124693 0.0398788 0 0 0 -0.00330722 -0.0483634 -0.0158041 -0.00859623 -0.0073313 -0.00182805 3.14995 -2.24796 5.23612 0.00887304 
133 1 1 -0.0269917 -0.00374865 0.038894 0 0 0 -0.016197 -0.0485116 0.0139676 0.021246 -0.000517827 -0.0130744 -1.30448 2.78817 -4.58199 0.00554565 
197 1 1 -0.0164871 -0.00141278 0.0413629 0 0 0 -0.00870885 -0.0218088 0.0370147 0.00820126 0.0207267 0.00903901 -1.11948 -6.24001 7.18423 0.00554565 
318 1 1 0.0444605 0.00211317 0.0379917 0 0 0 -0.00920122 0.0400735 -0.000297437 0.00367057 0.000807692 -0.0165825 -11.7069 -3.86634 -3.29602 0.00554565 
32 1 1 -0.0344767 0.00895713 0.0441194 0 0 0 -0.00819995 -0.0234656 0.0865205 -0.0393239 0.0812744 -0.0503423 2.2629 0.275212 13.1422 0.00887304 
115 1 1 0.00171589 0.0119029 0.0416519 0 0 0 0.00408926 -0.00204976 0.0648711 -0.0120307 0.0079236 0.0195121 4.0594 -2.57708 -4.29281 0.00887304 
298 1 1 0.0325747 0.0105894 0.0410624 0 0 0 -0.0349398 -0.0196652 0.00625536 -0.0114913 -0.0219741 0.000919528 -8.46002 -12.3426 5.05952 0.00554565 
291 1 1 0.0444479 0.0135225 0.0446927 0 0 0 -0.00724232 -0.0629899 0.00727169 -0.0266776 -0.0288096 0.00849642 5.97629 -3.36193 -7.03748 0.00554565 
335 1 1 -0.0312112 0.0226541 0.041978 0 0 0 -0.0581295 -0.008872 0.0311484 0.0166192 -0.00244951 -0.0263114 -13.3146 8.00916 -11.6701 0.00554565 
15 1 1 0.0189584 0.015206 0.0393541 0 0 0 -0.0208175 -0.0299894 0.0369291 0.106395 -0.0224139 0.0981146 7.78434 -3.29805 -5.54833 0.00887304 
117 1 1 -0.0172234 0.0251856 0.0436954 0 0 0 -0.0392453 -0.0221218 0.0258042 0.00249116 0.00554565 -0.0617765 -3.40996 -6.70027 3.33217 0.00887304 
140 1 1 0.00778187 0.024754 0.0422389 0 0 0 0.0303148 -0.00467526 0.0773515 0.00925286 -0.00584225 0.00282701 -11.2331 -11.3373 2.0072 0.00554565 
106 1 1 0.0412743 0.0274677 0.0436334 0 0 0 0.00263692 -0.0247411 0.0285099 -0.0148542 0.00532116 -0.011585 -0.79415 2.67295 2.34434 0.00887304 
99 1 1 -0.0030677 0.0343126 0.0386477 0 0 0 0.00431684 -0.010392 0.110741 0.00154959 -0.00964461 0.00576434 9.24426 -2.30006 -4.55481 0.00887304 
327 1 1 -0.0435494 0.0444622 0.0424298 0 0 0 0.030498 -0.00416848 0.019956 -0.00375498 0.00608049 0.0131444 0.406016 9.18163 6.44085 0.00554565 
158 1 1 0.00398115 0.0446501 0.0453252 0 0 0 0.0141853 -0.00449727 0.111398 -0.000918905 -0.012554 0.00627181 -20.22 -2.50135 2.23638 0.00554565 
203 1 1 0.0445999 0.0445546 0.0464621 0 0 0 -0.00459052 -0.00439902 0.00234847 -0.00431769 -0.00234581 -0.00685403 0.150072 -0.124697 0.250615 0.00554565 
190 1 1 -0.00242831 -0.0441273 0.0521204 0 0 0 -0.0187159 0.0334845 0.017791 0.00277306 -0.00441906 0.006151 9.58816 -4.30661 -15.4378 0.00554565 
265 1 1 0.0198293 -0.0446385 0.0476912 0 0 0 0.0467785 -0.00154437 0.112063 -0.0141395 0.016506 -0.00388875 20.5317 -8.72773 -8.434 0.00554565 
189 1 1 0.0283522 -0.0444699 0.0547638 0 0 0 0.0147638 0.0199461 0.203336 -0.000315297 -0.00948721 -0.017616 37.9584 14.864 -3.15676 0.00554565 
49 1 1 0.0412 -0.0409809 0.0492837 0 0 0 -0.0047246 0.0273374 0.0913261 0.0225909 -0.0749298 0.04072 -9.77824 9.61713 -3.21028 0.00887304 
84 1 1 -0.0413072 -0.03471 0.0474633 0 0 0 -0.0124688 -0.00878148 0.0385668 -0.0313703 0.0127285 0.0171395 13.859 -5.08984 -1.57401 0.00887304 
6 1 1 -0.0255481 -0.0408503 0.0521765 0 0 0 -0.0225314 -0.0244134 0.0660475 -0.00241875 0.0197625 0.00310437 -3.39321 -2.92937 6.36094 0.00887304 
75 1 1 -0.0253449 -0.0237379 0.0562911 0 0 0 -0.00996706 -0.0106418 0.101617 0.0268679 -0.0203067 0.0068845 3.83786 4.79538 -8.6192 0.00887304 
313 1 1 -0.0124822 -0.0253123 0.0484549 0 0 0 0.0735937 0.0312598 0.0441652 0.0149855 -0.0244884 0.0272923 -18.3227 12.1334 13.8738 0.00554565 
137 1 1 -0.00180931 -0.0286688 0.0485979 0 0 0 0.0638402 0.0256983 -0.0179196 0.0167686 0.00346034 0.0200863 -2.32197 6.39401 3.85527 0.00554565 
227 1 1 0.00855541 -0.0264087 0.0516771 0 0 0 0.0513698 -0.00937161 0.0660868 0.016667 -0.00706934 -0.0182979 7.20898 -28.3878 -4.08578 0.00554565 
91 1 1 0.0220681 -0.0307502 0.0499085 0 0 0 0.0645983 0.00376391 0.124677 0.0295745 0.0410302 -0.0423639 -10.6971 12.951 5.30911 0.00887304 
247 1 1 0.035814 -0.0282201 0.0532961 0 0 0 0.030258 0.038403 0.151742 0.0773393 -0.0123072 0.0156826 28.9463 -22.6743 2.05964 0.00554565 
36 1 1 -0.0413115 -0.0176951 0.0519847 0 0 0 0.00745809 0.0280707 0.0746866 0.0554477 0.0251405 0.0122652 -3.567 -9.19442 4.88217 0.00887304 
209 1 1 0.0075586 -0.0154192 0.0513434 0 0 0 0.0436169 0.00758191 0.0566704 0.00299521 0.00286376 -0.0167275 -3.60141 -4.8284 6.85677 0.00554565 
215 1 1 0.0328282 -0.0179997 0.0501391 0 0 0 -0.0064538 0.0391759 0.0420769 -0.000155903 -0.000899021 -0.0124808 -37.045 -14.3747 16.0722 0.00554565 
217 1 1 0.0444551 -0.0197584 0.0518887 0 0 0 -0.00622122 0.0392913 0.0454091 0.00336115 -0.0106187 -0.00946562 -20.1542 -7.50555 8.43553 0.00554565 
182 1 1 -0.0300414 -0.00940229 0.049143 0 0 0 0.00920227 0.0372792 0.0386542 0.0214796 -0.0126024 0.043715 -17.2336 3.23747 -0.948962 0.00554565 
204 1 1 -0.019889 -0.00993474 0.0533105 0 0 0 0.0156151 -0.00627674 0.0423134 0.0187724 -0.0199261 -0.0121443 -3.30641 -0.40959 -16.4874 0.00554565 
26 1 1 -0.00634313 -0.0122494 0.0494006 0 0 0 0.00689351 -0.0750153 0.0466304 0.0424309 -0.0364122 -0.0795021 1.84514 2.05104 2.49979 0.00887304 
276 1 1 0.0174695 -0.0120524 0.0477821 0 0 0 0.0579274 0.0353892 0.0846715 -0.00191775 -0.00337332 -0.0254837 -5.15227 6.76918 10.9417 0.00554565 
148 1 1 0.044502 -0.00478789 0.0524726 0 0 0 0.000569684 -0.0344469 0.0748509 0.000605872 -0.00117662 0.02815 -37.1618 13.5599 6.49373 0.00554565 
306 1 1 -0.0400547 -0.00322367 0.0516416 0 0 0 0.188276 0.03822 -0.0620845 0.0190872 0.0128474 -0.00410276 -26.3039 26.2702 -35.4618 0.00554565 
22 1 1 0.00155299 0.00200043 0.0562528 0 0 0 -0.00930995 -0.0426347 0.0513533 -0.0366776 0.0760314 -0.0629406 0.88771 4.39467 -2.43085 0.00887304 
87 1 1 0.030951 -0.0015071 0.0490704 0 0 0 0.00646943 -0.0493354 0.0184244 0.0457868 -0.0106359 0.0665893 5.29364 -10.8686 -7.49576 0.00887304 
57 1 1 -0.0135883 0.00923963 0.050506 0 0 0 -0.0190591 -0.0276759 0.0494654 0.0314475 0.115137 0.0381224 3.43804 4.0151 0.195961 0.00887304 
338 1 1 0.0445227 0.0117284 0.0555264 0 0 0 0.00816639 -0.0404413 0.0178636 -0.00564366 0.0108571 0.0176197 -11.7859 5.5807 8.49266 0.00554565 
233 1 1 -0.00271718 0.0180042 0.0538489 0 0 0 -0.00137263 -0.0562207 0.0866586 0.0181772 -0.0124127 -0.00169015 8.38011 -2.13498 -2.48286 0.00554565 
263 1 1 0.00790375 0.0208886 0.0545795 0 0 0 0.00524178 -0.0536501 0.0798246 0.0180293 0.0034648 0.023807 -8.96764 3.05124 2.37985 0.00554565 
266 1 1 0.0185075 0.0221973 0.051859 0 0 0 0.0185765 -0.0606812 0.0719559 0.00751712 0.000451938 0.00232893 -3.78279 14.2202 6.10114 0.00554565 
45 1 1 0.0303909 0.0149851 0.0553624 0 0 0 0.0485262 -0.0401981 0.032417 0.0149799 -0.0165124 0.0500822 -4.53722 0.321679 -1.92284 0.00887304 
39 1 1 -0.0412107 0.0309237 0.048099 0 0 0 -0.0727109 0.024599 -0.0131347 0.441559 0.0727869 0.0239105 -3.15286 0.29592 3.12488 0.00887304 
250 1 1 -0.0283976 0.0258135 0.0525899 0 0 0 -0.0924954 -0.0399662 -0.00994696 0.006626 0.021284 -0.0109542 -16.5146 1.15252 17.0726 0.00554565 
127 1 1 0.0345505 0.0287194 0.0561812 0 0 0 0.0287548 -0.0429348 0.0584539 0.00293605 0.0221281 0.0110003 12.7425 1.14786 -15.5515 0.00554565 
46 1 1 -0.00108432 0.0320689 0.0559427 0 0 0 -0.032127 -0.0625851 0.109859 -0.0113679 -0.0385269 -0.0492513 -2.8953 -2.20093 4.31327 0.00887304 
113 1 1 0.0145582 0.0355415 0.0485677 0 0 0 0.002377 -0.0253241 0.15598 0.0127633 0.0120329 -0.0313552 11.3997 -4.20523 -3.2312 0.00887304 
195 1 1 0.0444835 0.033634 0.0562012 0 0 0 -0.00240053 -0.0320804 0.0455023 0.0218014 0.0326426 0.0100797 6.92668 0.736084 9.4348 0.00554565 
174 1 1 -0.0335976 0.0444653 0.0493302 0 0 0 -0.035944 -0.0105744 0.0271621 0.000959849 -0.00344336 -0.0170332 4.62395 -2.06831 2.70381 0.00554565 
35 1 1 -0.020023 0.0411724 0.0540313 0 0 0 -0.0179756 -0.00225378 0.0294427 0.059754 -0.0401104 -0.0499365 -1.08492 -0.623966 -3.31373 0.00887304 
315 1 1 -0.00773673 0.0446285 0.0472353 0 0 0 -0.0304079 0.00455652 0.0744255 -0.00295845 -0.00833871 0.0083846 -13.211 -21.4598 -5.27792 0.00554565 
76 1 1 0.0311796 0.0411622 0.0498663 0 0 0 0.0115236 -0.0218987 0.10823 0.033182 0.025146 -0.0277699 -8.34883 11.105 3.54004 0.00887304 
252 1 1 -0.038096 -0.0445894 0.0577234 0 0 0 -0.0190633 0.0148505 0.155511 0.017102 -0.0114654 -0.00518262 19.0752 25.9333 -27.9498 0.00554565 