ITEM: TIMESTEP
2800
ITEM: NUMBER OF ATOMS
338
ITEM: BOX BOUNDS mm mm mm
-0.05 0.05
-0.05 0.05
0 0.15
ITEM: ATOMS id type type x y z ix iy iz vx vy vz fx fy fz omegax omegay omegaz radius 
131 1 1 -0.0269854 -0.0409973 0.00490912 0 0 0 -0.00831818 0.00114802 -0.0326264 -0.0222418 -0.0145223 0.148191 0.538407 -2.46465 2.21941 0.0050942 
319 1 1 -0.0142646 -0.0448529 0.00592673 0 0 0 0 0 -0.274631 0 0 -0.0135808 0 0 0 0.0050942 
60 1 1 0.00524641 -0.0364842 0.00807756 0 0 0 -0.000213652 0.00494639 0.0208948 0.00799615 -0.00686307 0.108122 0.895136 1.69758 -0.926547 0.00815072 
260 1 1 0.0208522 -0.0367612 0.00522441 0 0 0 0 0 0.00669585 0 0 -0.0135808 0 0 0 0.0050942 
173 1 1 -0.0143414 -0.029438 0.00503358 0 0 0 -0.00501841 0.00729329 -0.0302034 0.0300384 -0.043655 0.0749655 -5.8044 -3.99393 -1.90553e-15 0.0050942 
102 1 1 -0.0415551 -0.016109 0.00811703 0 0 0 0 0 0.00544371 0 0 0.00282438 0 0 0 0.00815072 
40 1 1 -0.0095744 -0.0169003 0.0081374 0 0 0 0 0 0.0659952 0 0 -0.185226 0 0 0 0.00815072 
274 1 1 -0.017856 -0.00594656 0.00529704 0 0 0 0 0 -0.274631 0 0 -0.0135808 0 0 0 0.0050942 
279 1 1 0.00345611 -0.0132293 0.00519773 0 0 0 0 0 -0.00852586 0 0 -0.0135808 0 0 0 0.0050942 
202 1 1 0.0424697 -0.0112183 0.00506357 0 0 0 0 0 -0.00737696 0 0 0.0461156 0 0 0 0.0050942 
257 1 1 -0.0427917 -0.000788059 0.00520926 0 0 0 0 0 0.0353721 0 0 -0.0135808 0 0 0 0.0050942 
171 1 1 -0.025394 0.0029722 0.00507774 0 0 0 0 0 0.0038448 0 0 0.00237435 0 0 0 0.0050942 
232 1 1 -0.038838 0.0116664 0.00513587 0 0 0 0.00202139 -0.013349 -0.00680053 0 0 -0.0135808 2.84098 0.430198 -3.21327e-15 0.0050942 
297 1 1 -0.0229893 0.0196618 0.00503771 0 0 0 0 0 -0.22149 0 0 0.427507 0 0 0 0.0050942 
222 1 1 -0.0117937 0.0214407 0.00493466 0 0 0 -0.00567835 0.00567781 0.0458235 0.00702755 0.00158418 0.0410871 -1.27144 0.855172 -0.623954 0.0050942 
290 1 1 0.00201214 0.0152165 0.00498388 0 0 0 -0.0336345 -0.0227804 -0.00853944 -0.0337411 -0.00741624 0.0163226 4.50555 -5.6691 -7.18643 0.0050942 
316 1 1 0.0298993 0.0168772 0.00496893 0 0 0 0 0 0.0230327 0 0 0.367324 0 0 0 0.0050942 
162 1 1 0.0442265 0.0150863 0.00501495 0 0 0 0 0 0.103759 0 0 0.0379154 0 0 0 0.0050942 
77 1 1 0.0209794 0.0296187 0.00801102 0 0 0 -0.104598 -0.0231255 0.0459757 0.00279507 0.00146159 0.383769 2.70385 -11.5977 -1.15645 0.00815072 
255 1 1 -0.0221554 0.0335727 0.00535836 0 0 0 0 0 -0.274631 0 0 -0.0135808 0 0 0 0.0050942 
324 1 1 -0.0104341 0.033894 0.00645001 0 0 0 7.07291e-07 3.43757e-06 -0.274636 0.000195833 0.000951782 -0.0148693 -0.00256031 -0.000619526 -0.000846741 0.0050942 
149 1 1 0.00449458 0.0403794 0.00726247 0 0 0 0 0 -0.274631 0 0 -0.0135808 0 0 0 0.0050942 
155 1 1 0.0336461 0.0321454 0.00507443 0 0 0 -0.00265214 -0.027047 0.0629107 0.037102 0.00458907 -0.0436884 4.98183 2.83841 -4.26235 0.0050942 
289 1 1 0.0441148 0.0370355 0.00532994 0 0 0 0 0 -0.274631 0 0 -0.0135808 0 0 0 0.0050942 
321 1 1 -0.0447942 0.0434911 0.00520924 0 0 0 0 0 -0.00282704 0 0 -0.0135808 0 0 0 0.0050942 
249 1 1 0.0260036 0.0420097 0.00639699 0 0 0 0 0 -0.274631 0 0 -0.0135808 0 0 0 0.0050942 
299 1 1 -0.0272351 -0.0432598 0.0147168 0 0 0 -0.010837 -0.0384432 -0.0452396 -0.00816011 -0.0485903 0.26374 6.64316 2.38271 0.71365 0.0050942 
74 1 1 -0.0384622 -0.0338395 0.0110671 0 0 0 0 0 -0.274631 0 0 -0.055627 0 0 0 0.00815072 
296 1 1 -0.0219938 -0.0349968 0.0112274 0 0 0 0.0328255 0.0533557 -0.14627 0.0132601 0.0487441 0.040332 -18.4181 16.2589 -2.22482 0.0050942 
243 1 1 -0.00929171 -0.0367767 0.00990442 0 0 0 0.0390302 -0.0567229 -0.182578 0.0014045 -0.00204118 0.0824037 18.3861 12.6512 -1.90553e-15 0.0050942 
78 1 1 0.0383985 -0.037225 0.0106715 0 0 0 0 0 -0.274631 0 0 -0.055627 0 0 0 0.00815072 
275 1 1 -0.00374 -0.0286934 0.0138362 0 0 0 -0.109287 0.11219 -0.202413 0.00490517 -0.00675459 -0.00489527 -19.8292 -25.4127 0.926203 0.0050942 
328 1 1 -0.0269007 -0.0202082 0.0128719 0 0 0 0 0 -0.274631 0 0 -0.0135808 0 0 0 0.0050942 
267 1 1 0.0163076 -0.0176735 0.0129261 0 0 0 0 0 -0.274631 0 0 -0.0135808 0 0 0 0.0050942 
144 1 1 0.042374 -0.0206485 0.0117925 0 0 0 0 0 -0.274631 0 0 -0.0135808 0 0 0 0.0050942 
50 1 1 0.026536 -0.00915926 0.0116283 0 0 0 0 0 -0.274631 0 0 -0.055627 0 0 0 0.00815072 
183 1 1 0.039709 -0.0112415 0.0164369 0 0 0 0 0 -0.274631 0 0 -0.0135808 0 0 0 0.0050942 
17 1 1 -0.00938276 0.00387687 0.00902835 0 0 0 0 0 -0.274631 0 0 -0.055627 0 0 0 0.00815072 
96 1 1 0.0113165 -0.00336412 0.0100231 0 0 0 0 0 -0.274631 0 0 -0.055627 0 0 0 0.00815072 
268 1 1 -0.0295644 0.0111299 0.0103013 0 0 0 0 0 -0.274631 0 0 -0.0135808 0 0 0 0.0050942 
286 1 1 -0.00196266 0.013629 0.0146415 0 0 0 0 0 -0.274631 0 0 -0.0135808 0 0 0 0.0050942 
94 1 1 0.0348132 0.00478129 0.00988927 0 0 0 0 0 -0.274631 0 0 -0.055627 0 0 0 0.00815072 
273 1 1 -0.0392587 0.0144459 0.0150978 0 0 0 -0.00483833 0.0395647 -0.0352471 0.00981527 0.0058237 -0.350324 9.24932 -1.0261 0.666714 0.0050942 
28 1 1 -0.0156134 0.0209633 0.0174228 0 0 0 -0.0849368 -0.00563673 0.0819239 -0.124232 -0.00649366 0.336219 2.08764 -10.3369 0.26942 0.00815072 
98 1 1 0.0118037 0.0136772 0.0135745 0 0 0 0.0522151 -0.0421737 -0.124488 0.0579477 0.00991046 0.212652 0.507039 21.2694 3.90979 0.00815072 
294 1 1 -0.0446702 0.0281705 0.0146023 0 0 0 0 0 -0.274631 0 0 -0.0135808 0 0 0 0.0050942 
175 1 1 -0.0367447 0.0315142 0.0087398 0 0 0 0 0 -0.274631 0 0 -0.0135808 0 0 0 0.0050942 
161 1 1 0.00321997 0.0243938 0.00925189 0 0 0 0.0119136 0.0791405 -0.145832 0 0 -0.0135808 -38.3055 4.4814 0.872205 0.0050942 
61 1 1 0.0347094 0.0348382 0.0179746 0 0 0 0.0481434 0.034458 0.0914249 0.0435507 -0.0249727 -0.09887 -10.8726 -5.1434 1.74743 0.00815072 
207 1 1 -0.034013 0.042938 0.00839938 0 0 0 0 0 -0.274631 0 0 -0.0135808 0 0 0 0.0050942 
38 1 1 -0.0154435 0.041859 0.0157692 0 0 0 -1.72679e-07 -0.00485722 -0.270089 -0.000195833 -0.0024023 -0.0536132 1.39927 -9.45382e-05 -0.000129211 0.00815072 
130 1 1 0.0141819 -0.0447393 0.0219604 0 0 0 0 0 -0.274631 0 0 -0.0135808 0 0 0 0.0050942 
7 1 1 -0.0211862 -0.034764 0.0243278 0 0 0 0.0395962 0.0453604 -0.169814 0.102538 0.170155 -0.00681196 11.754 -7.59898 -0.0447777 0.00815072 
104 1 1 -0.00121658 -0.0337272 0.0257962 0 0 0 -0.00892609 -0.00113436 -0.221912 -0.00563884 0.00732165 -0.0631133 5.61973 5.37766 1.06731 0.00815072 
67 1 1 0.0220426 -0.029466 0.0178349 0 0 0 0 0 -0.274631 0 0 -0.055627 0 0 0 0.00815072 
120 1 1 0.0413987 -0.0277624 0.025987 0 0 0 0.000136745 0.00105855 -0.275748 0.000116428 0.000901268 -0.0565777 -5.29826e-16 -2.40833e-16 -2.93199e-16 0.00815072 
179 1 1 -0.0369204 -0.0203388 0.0209449 0 0 0 0 0 -0.274631 0 0 -0.0135808 0 0 0 0.0050942 
310 1 1 -0.0148815 -0.0136629 0.0233464 0 0 0 0 0 -0.274631 0 0 -0.0135808 0 0 0 0.0050942 
278 1 1 0.0313014 -0.0165843 0.0236198 0 0 0 0 0 -0.274631 0 0 -0.0135808 0 0 0 0.0050942 
19 1 1 -0.0282448 -0.0111162 0.0267096 0 0 0 0 0 -0.274631 0 0 -0.055627 0 0 0 0.00815072 
18 1 1 0.0146368 -0.00430493 0.0265362 0 0 0 0.000265374 0.0052557 -0.275482 0.000141358 0.00279958 -0.0560801 -2.97289e-14 1.30769e-15 -1.19504e-15 0.00815072 
55 1 1 0.0384601 -0.000870472 0.026109 0 0 0 0 0 -0.274631 0 0 -0.055627 0 0 0 0.00815072 
25 1 1 -0.0391739 0.00556755 0.0248519 0 0 0 -0.000509415 0.00150546 -0.259748 -0.00981527 -0.0058237 0.281116 3.40293 0.144616 0.101841 0.00815072 
112 1 1 -0.0205863 0.00564464 0.0253979 0 0 0 0 0 -0.274631 0 0 -0.055627 0 0 0 0.00815072 
164 1 1 0.0238656 0.0089406 0.018134 0 0 0 0 0 -0.274631 0 0 -0.0135808 0 0 0 0.0050942 
320 1 1 -0.00677519 0.0204883 0.0271676 0 0 0 0.0970701 -0.0126473 0.00858283 0.0494273 -0.00337023 0.0576006 0.322163 56.1834 2.38883 0.0050942 
108 1 1 0.0156213 0.0222631 0.0268635 0 0 0 0.0472599 0.0325619 -0.192251 0.123213 -0.0331803 0.00619651 -4.76962 -6.10538 5.14087 0.00815072 
261 1 1 0.0415966 0.014492 0.0208641 0 0 0 0 0 -0.274631 0 0 -0.0135808 0 0 0 0.0050942 
23 1 1 -0.029349 0.031015 0.0256473 0 0 0 0 0 -0.274631 0 0 -0.055627 0 0 0 0.00815072 
16 1 1 0.00608296 0.036233 0.0231292 0 0 0 0 0 -0.274631 0 0 -0.055627 0 0 0 0.00815072 
239 1 1 0.0231774 0.0397384 0.0220669 0 0 0 -0.084382 0.055207 -0.14949 -0.0508879 0.0231076 0.017608 -13.9167 -39.7099 8.12249 0.0050942 
225 1 1 0.00206793 -0.0443639 0.0338624 0 0 0 0 0 -0.274631 0 0 -0.0135808 0 0 0 0.0050942 
180 1 1 -0.0423831 -0.0321371 0.0291997 0 0 0 0 0 -0.274631 0 0 -0.0135808 0 0 0 0.0050942 
167 1 1 0.0223335 -0.040431 0.0358809 0 0 0 0 0 -0.274631 0 0 -0.0135808 0 0 0 0.0050942 
271 1 1 0.028986 -0.0321488 0.032709 0 0 0 0 0 -0.274631 0 0 -0.0135808 0 0 0 0.0050942 
136 1 1 0.0402271 -0.0368325 0.0355544 0 0 0 -0.000560109 -0.00433581 -0.270057 -0.000116428 -0.000901268 -0.0126301 -3.46673e-15 -1.57891e-15 -1.92139e-15 0.0050942 
178 1 1 -0.0116213 -0.019767 0.0346095 0 0 0 0 0 -0.274631 0 0 -0.0135808 0 0 0 0.0050942 
51 1 1 0.0138261 -0.0203608 0.0291346 0 0 0 -0.000265374 -0.0052557 -0.27378 -0.000141358 -0.00279958 -0.0551739 -2.97289e-14 1.30769e-15 -1.19504e-15 0.00815072 
134 1 1 0.0446472 -0.0137875 0.0315166 0 0 0 0 0 -0.274631 0 0 -0.0135808 0 0 0 0.0050942 
146 1 1 -0.0446365 -0.00615984 0.0285954 0 0 0 0 0 -0.274631 0 0 -0.0135808 0 0 0 0.0050942 
160 1 1 -0.00352292 -0.00979518 0.0298787 0 0 0 0 0 -0.274631 0 0 -0.0135808 0 0 0 0.0050942 
245 1 1 0.00494971 -0.0102947 0.0360962 0 0 0 0 0 -0.274631 0 0 -0.0135808 0 0 0 0.0050942 
184 1 1 0.0289516 -0.0107054 0.033533 0 0 0 0 0 -0.274631 0 0 -0.0135808 0 0 0 0.0050942 
100 1 1 0.00889555 0.0074955 0.0363996 0 0 0 0 0 -0.274631 0 0 -0.055627 0 0 0 0.00815072 
300 1 1 -0.040958 0.0191512 0.0325953 0 0 0 0 0 -0.274631 0 0 -0.0135808 0 0 0 0.0050942 
284 1 1 0.028257 0.0149266 0.027567 0 0 0 0 0 -0.274631 0 0 -0.0135808 0 0 0 0.0050942 
58 1 1 0.0404484 0.0169499 0.0363431 0 0 0 0 0 -0.274631 0 0 -0.055627 0 0 0 0.00815072 
305 1 1 -0.0432541 0.0290219 0.0284138 0 0 0 0 0 -0.274631 0 0 -0.0135808 0 0 0 0.0050942 
69 1 1 -0.0129094 0.0313545 0.0342892 0 0 0 0 0 -0.274631 0 0 -0.055627 0 0 0 0.00815072 
114 1 1 0.0363322 0.0356563 0.0341883 0 0 0 0 0 -0.274631 0 0 -0.055627 0 0 0 0.00815072 
237 1 1 -0.00192521 0.0429747 0.0355318 0 0 0 0 0 -0.274631 0 0 -0.0135808 0 0 0 0.0050942 
331 1 1 -0.0420922 -0.0428226 0.0410943 0 0 0 0 0 -0.274631 0 0 -0.0135808 0 0 0 0.0050942 
242 1 1 0.00882703 -0.0440483 0.0414826 0 0 0 0 0 -0.274631 0 0 -0.0135808 0 0 0 0.0050942 
42 1 1 -0.0121341 -0.0359035 0.0377878 0 0 0 -0.000293162 -0.00304936 -0.262126 0.013594 -0.0614055 0.216598 -0.506993 2.2068 0.526206 0.00815072 
128 1 1 -0.0446972 -0.0250028 0.0368594 0 0 0 0 0 -0.274631 0 0 -0.0135808 0 0 0 0.0050942 
93 1 1 -0.0301495 -0.0234678 0.0372356 0 0 0 0 0 -0.274631 0 0 -0.055627 0 0 0 0.00815072 
191 1 1 0.00787612 -0.0261212 0.0421348 0 0 0 0 0 -0.274631 0 0 -0.0135808 0 0 0 0.0050942 
258 1 1 -0.0033142 -0.0193546 0.041381 0 0 0 0.00342466 -0.00528543 -0.278753 0.00147328 -0.00105716 -0.0149686 -0.278778 0.12367 -0.390163 0.0050942 
336 1 1 -0.0183143 -0.00775994 0.0391991 0 0 0 0 0 -0.274631 0 0 -0.0135808 0 0 0 0.0050942 
259 1 1 0.0299512 -0.0104967 0.0447514 0 0 0 0 0 -0.274631 0 0 -0.0135808 0 0 0 0.0050942 
107 1 1 -0.0399833 1.677e-05 0.0439353 0 0 0 0 0 -0.274631 0 0 -0.055627 0 0 0 0.00815072 
318 1 1 0.0427324 0.00340808 0.0406187 0 0 0 0 0 -0.274631 0 0 -0.0135808 0 0 0 0.0050942 
95 1 1 0.0279053 0.00489548 0.0387167 0 0 0 0 0 -0.274631 0 0 -0.055627 0 0 0 0.00815072 
2 1 1 -0.0301948 0.0152128 0.0429551 0 0 0 0 0 -0.274631 0 0 -0.055627 0 0 0 0.00815072 
73 1 1 0.000965103 0.0204903 0.0430213 0 0 0 0 0 -0.274631 0 0 -0.055627 0 0 0 0.00815072 
192 1 1 -0.0230245 0.0268449 0.0433509 0 0 0 0 0 -0.274631 0 0 -0.0135808 0 0 0 0.0050942 
47 1 1 0.0213025 0.0313786 0.0409976 0 0 0 0 0 -0.274631 0 0 -0.055627 0 0 0 0.00815072 
323 1 1 -0.0165976 0.0442779 0.0392827 0 0 0 0 0 -0.274631 0 0 -0.0135808 0 0 0 0.0050942 
256 1 1 -0.0288237 -0.0392525 0.0467114 0 0 0 0 0 -0.274631 0 0 -0.0135808 0 0 0 0.0050942 
314 1 1 -0.0161265 -0.0377647 0.052946 0 0 0 0 0 -0.274631 0 0 -0.0135808 0 0 0 0.0050942 
168 1 1 -0.00297731 -0.0397283 0.0504029 0 0 0 0 0 -0.274631 0 0 -0.0135808 0 0 0 0.0050942 
3 1 1 0.0203703 -0.0371817 0.0513793 0 0 0 0 0 -0.274631 0 0 -0.055627 0 0 0 0.00815072 
125 1 1 0.0354829 -0.0395199 0.0540822 0 0 0 0 0 -0.274631 0 0 -0.0135808 0 0 0 0.0050942 
329 1 1 -0.0232421 -0.0304347 0.0466772 0 0 0 0 0 -0.274631 0 0 -0.0135808 0 0 0 0.0050942 
43 1 1 -0.000457256 -0.0262442 0.0538632 0 0 0 0.000717659 0.000671366 -0.276006 0.000676187 0.000632569 -0.0569229 -1.20864e-14 1.34622e-14 2.64751e-16 0.00815072 
105 1 1 0.0347458 -0.026835 0.0472465 0 0 0 0 0 -0.274631 0 0 -0.055627 0 0 0 0.00815072 
66 1 1 -0.0415789 -0.0157681 0.0504704 0 0 0 0 0 -0.274631 0 0 -0.055627 0 0 0 0.00815072 
81 1 1 -0.0205679 -0.0172335 0.0543813 0 0 0 -0.00375882 -0.00207797 -0.272604 -0.0128305 -0.00836097 -0.0491095 0.0685583 -0.0304134 0.0959507 0.00815072 
24 1 1 -0.00805407 -0.00896063 0.0480622 0 0 0 0.00292272 0.00336836 -0.275652 0.0113573 0.00941812 -0.0607567 0.026006 -0.0115366 0.0363967 0.00815072 
133 1 1 -0.0248112 -0.00222023 0.0480623 0 0 0 0 0 -0.274631 0 0 -0.0135808 0 0 0 0.0050942 
208 1 1 -0.0396315 0.0127143 0.0551723 0 0 0 0 0 -0.274631 0 0 -0.0135808 0 0 0 0.0050942 
4 1 1 -0.0113994 0.0100841 0.0469553 0 0 0 0 0 -0.274631 0 0 -0.055627 0 0 0 0.00815072 
298 1 1 0.0362654 0.0125535 0.0517544 0 0 0 0 0 -0.274631 0 0 -0.0135808 0 0 0 0.0050942 
246 1 1 -0.0415527 0.0238641 0.0481917 0 0 0 0 0 -0.274631 0 0 -0.0135808 0 0 0 0.0050942 
262 1 1 -0.0254579 0.0291419 0.053145 0 0 0 0 0 -0.274631 0 0 -0.0135808 0 0 0 0.0050942 
292 1 1 -0.0145814 0.031016 0.0491123 0 0 0 0 0 -0.274631 0 0 -0.0135808 0 0 0 0.0050942 
106 1 1 0.0363139 0.028523 0.0491355 0 0 0 0 0 -0.274631 0 0 -0.055627 0 0 0 0.00815072 
9 1 1 -0.0337218 0.0378404 0.0472651 0 0 0 0 0 -0.274631 0 0 -0.055627 0 0 0 0.00815072 
248 1 1 0.00409611 0.0433263 0.0492566 0 0 0 0 0 -0.274631 0 0 -0.0135808 0 0 0 0.0050942 
229 1 1 0.0170728 0.0425053 0.0513865 0 0 0 0 0 -0.274631 0 0 -0.0135808 0 0 0 0.0050942 
203 1 1 0.0430085 0.0441891 0.0512435 0 0 0 0 0 -0.274631 0 0 -0.0135808 0 0 0 0.0050942 
224 1 1 -0.0366537 -0.0379548 0.0613591 0 0 0 0 0 -0.274631 0 0 -0.0135808 0 0 0 0.0050942 
211 1 1 -0.0421804 -0.0254125 0.0602876 0 0 0 0 0 -0.274631 0 0 -0.0135808 0 0 0 0.0050942 
52 1 1 0.0154032 -0.0180526 0.0563446 0 0 0 0 0 -0.274631 0 0 -0.055627 0 0 0 0.00815072 
332 1 1 0.0295284 -0.0161129 0.0570912 0 0 0 0 0 -0.274631 0 0 -0.0135808 0 0 0 0.0050942 
5 1 1 0.0412659 -0.0101274 0.0613698 0 0 0 0.00246052 -0.00310864 -0.279558 -7.02307e-05 6.84238e-05 -0.0554494 -0.0715972 -0.0302799 -0.0166498 0.00815072 
10 1 1 0.011638 -0.000482538 0.0561353 0 0 0 0 0 -0.274631 0 0 -0.055627 0 0 0 0.00815072 
303 1 1 0.0311837 0.00396808 0.058362 0 0 0 0 0 -0.274631 0 0 -0.0135808 0 0 0 0.0050942 
240 1 1 0.0235615 -0.00132712 0.0637178 0 0 0 0 0 -0.274631 0 0 -0.0135808 0 0 0 0.0050942 
236 1 1 -0.0182789 0.0106612 0.0597325 0 0 0 -0.0053557 -0.000293402 -0.280814 -0.000981399 -4.56259e-05 -0.0148282 0.0226903 -0.165683 -0.0117913 0.0050942 
115 1 1 0.00309469 0.0135795 0.0582355 0 0 0 -0.00497559 -0.000427479 -0.274784 -0.00102415 -8.79898e-05 -0.0556585 -3.68942e-15 4.30398e-14 -2.71745e-16 0.00815072 
199 1 1 -0.0443433 0.0219429 0.0621378 0 0 0 0 0 -0.274631 0 0 -0.0135808 0 0 0 0.0050942 
282 1 1 -0.0248218 0.0191938 0.0555342 0 0 0 0 0 -0.274631 0 0 -0.0135808 0 0 0 0.0050942 
15 1 1 0.0193143 0.014973 0.0587343 0 0 0 0.00497559 0.000427479 -0.274478 0.00102415 8.79898e-05 -0.0555955 -3.68942e-15 4.30398e-14 -2.71745e-16 0.00815072 
127 1 1 0.0360342 0.02656 0.0632531 0 0 0 0 0 -0.274631 0 0 -0.0135808 0 0 0 0.0050942 
99 1 1 -0.000450282 0.0321111 0.0571386 0 0 0 0 0 -0.274631 0 0 -0.055627 0 0 0 0.00815072 
76 1 1 0.0313465 0.0404174 0.0638037 0 0 0 0 0 -0.274631 0 0 -0.055627 0 0 0 0.00815072 
327 1 1 -0.0379102 0.0440646 0.0611735 0 0 0 0 0 -0.274631 0 0 -0.0135808 0 0 0 0.0050942 
126 1 1 -0.0148126 0.0439456 0.0612115 0 0 0 0 0 -0.274631 0 0 -0.0135808 0 0 0 0.0050942 
158 1 1 0.00652377 0.0449106 0.0632004 0 0 0 0 -0.00340639 -0.271317 0 -0.000557175 -0.0133022 1.63565 0 0 0.0050942 
6 1 1 -0.0215944 -0.0377404 0.0660043 0 0 0 0 0 -0.274631 0 0 -0.055627 0 0 0 0.00815072 
56 1 1 0.00625104 -0.0388468 0.0727679 0 0 0 0 0 -0.274631 0 0 -0.055627 0 0 0 0.00815072 
283 1 1 0.0344894 -0.0364612 0.0650742 0 0 0 0 0 -0.274631 0 0 -0.0135808 0 0 0 0.0050942 
307 1 1 -0.0128294 -0.0242639 0.0672027 0 0 0 0 0 -0.274631 0 0 -0.0135808 0 0 0 0.0050942 
337 1 1 -0.00607599 -0.0315005 0.0646313 0 0 0 -0.00293953 -0.00274992 -0.268997 -0.000676187 -0.000632569 -0.0122849 -7.91856e-14 8.81989e-14 1.73444e-15 0.0050942 
91 1 1 0.0238395 -0.0295294 0.0704549 0 0 0 0 0 -0.274631 0 0 -0.055627 0 0 0 0.00815072 
326 1 1 0.0428617 -0.0238533 0.0679298 0 0 0 0 0 -0.274631 0 0 -0.0135808 0 0 0 0.0050942 
36 1 1 -0.0381517 -0.0154818 0.0680714 0 0 0 0 0 -0.274631 0 0 -0.055627 0 0 0 0.00815072 
26 1 1 -6.62862e-05 -0.0140715 0.0707679 0 0 0 0 0 -0.274631 0 0 -0.055627 0 0 0 0.00815072 
215 1 1 0.0295226 -0.0144583 0.0710532 0 0 0 0 0 -0.274631 0 0 -0.0135808 0 0 0 0.0050942 
182 1 1 -0.0245857 -0.011775 0.0679339 0 0 0 0 0 -0.274631 0 0 -0.0135808 0 0 0 0.0050942 
197 1 1 -0.0154165 -0.00546226 0.0649684 0 0 0 0 0 -0.274631 0 0 -0.0135808 0 0 0 0.0050942 
276 1 1 0.014428 -0.00937105 0.0721998 0 0 0 0 0 -0.274631 0 0 -0.0135808 0 0 0 0.0050942 
87 1 1 0.034806 -0.00160675 0.0736527 0 0 0 -0.00268884 0.00389076 -0.270144 -0.000697673 0.0018036 -0.055907 0.0255912 0.010823 0.00595118 0.00815072 
32 1 1 -0.0357228 0.00649715 0.0674734 0 0 0 0 0 -0.274631 0 0 -0.055627 0 0 0 0.00815072 
57 1 1 -0.0100466 0.0110517 0.0700876 0 0 0 -0.000632413 -0.000164534 -0.273536 -0.000569936 -0.000148696 -0.0546344 -2.73462e-06 1.99679e-05 1.42107e-06 0.00815072 
233 1 1 0.00290392 0.012669 0.0722831 0 0 0 0.00794606 0.000967333 -0.272932 0.00155133 0.000194322 -0.013326 -0.0227121 0.165842 0.0118026 0.0050942 
291 1 1 0.0418759 0.00849624 0.0655814 0 0 0 0 0 -0.274631 0 0 -0.0135808 0 0 0 0.0050942 
335 1 1 -0.0280227 0.0221394 0.0674621 0 0 0 0 0 -0.274631 0 0 -0.0135808 0 0 0 0.0050942 
117 1 1 -0.0105713 0.0275123 0.0702334 0 0 0 0 0 -0.274631 0 0 -0.055627 0 0 0 0.00815072 
322 1 1 0.0432571 0.0229131 0.0713104 0 0 0 0 0 -0.274631 0 0 -0.0135808 0 0 0 0.0050942 
122 1 1 -0.0249158 0.0388103 0.068537 0 0 0 6.02673e-05 -0.000431032 -0.276782 5.05193e-05 -0.000361314 -0.05743 -3.80346e-16 -3.90847e-16 6.76653e-17 0.00815072 
315 1 1 -0.000253583 0.0380258 0.0703142 0 0 0 0 0 -0.274631 0 0 -0.0135808 0 0 0 0.0050942 
113 1 1 0.0165965 0.0366038 0.0722657 0 0 0 0 0 -0.274631 0 0 -0.055627 0 0 0 0.00815072 
265 1 1 0.014652 -0.0432494 0.0826337 0 0 0 0 0 -0.274631 0 0 -0.0135808 0 0 0 0.0050942 
84 1 1 -0.0382975 -0.0356949 0.0745454 0 0 0 -0.00232676 -0.00199939 -0.275355 -0.012813 -0.0110103 -0.0596152 -2.67451e-14 3.11313e-14 -1.97535e-17 0.00815072 
49 1 1 0.0375297 -0.0383468 0.0794405 0 0 0 0 0 -0.274631 0 0 -0.055627 0 0 0 0.00815072 
75 1 1 -0.0262804 -0.0253686 0.0782858 0 0 0 0.00232676 0.00199939 -0.273907 0.012813 0.0110103 -0.0516388 -2.67451e-14 3.11313e-14 -1.97535e-17 0.00815072 
137 1 1 -0.00363123 -0.0300467 0.0798439 0 0 0 0 0 -0.274631 0 0 -0.0135808 0 0 0 0.0050942 
147 1 1 -0.039794 -0.0179325 0.0829049 0 0 0 0 0 -0.274631 0 0 -0.0135808 0 0 0 0.0050942 
204 1 1 -0.0107942 -0.0174805 0.0786495 0 0 0 0 0 -0.274631 0 0 -0.0135808 0 0 0 0.0050942 
217 1 1 0.0396259 -0.0138387 0.0751718 0 0 0 0.000935199 -0.00320356 -0.272826 0.000767904 -0.00187202 -0.0134784 0.636752 0.269296 0.148076 0.0050942 
145 1 1 -0.0307201 -0.0128574 0.0798304 0 0 0 0 0 -0.274631 0 0 -0.0135808 0 0 0 0.0050942 
220 1 1 -0.0374843 0.00171989 0.0804251 0 0 0 0 0 -0.274631 0 0 -0.0135808 0 0 0 0.0050942 
53 1 1 -0.0210984 -0.00118973 0.0775659 0 0 0 0 0 -0.274631 0 0 -0.055627 0 0 0 0.00815072 
45 1 1 0.0314343 0.0166123 0.0753203 0 0 0 0 0 -0.274631 0 0 -0.055627 0 0 0 0.00815072 
338 1 1 0.0445718 0.0180464 0.0802666 0 0 0 0 0 -0.274631 0 0 -0.0135808 0 0 0 0.0050942 
250 1 1 -0.0226139 0.0282147 0.079064 0 0 0 0 0 -0.274631 0 0 -0.0135808 0 0 0 0.0050942 
140 1 1 0.0108541 0.0242341 0.0757662 0 0 0 0 0 -0.274631 0 0 -0.0135808 0 0 0 0.0050942 
39 1 1 -0.0393506 0.0352058 0.0764822 0 0 0 0 0 -0.274631 0 0 -0.055627 0 0 0 0.00815072 
35 1 1 -0.0126116 0.0370565 0.0833164 0 0 0 0 0 -0.274631 0 0 -0.055627 0 0 0 0.00815072 
154 1 1 0.027479 0.0388057 0.0820537 0 0 0 0 0 -0.274631 0 0 -0.0135808 0 0 0 0.0050942 
195 1 1 0.0389143 0.0324035 0.0789375 0 0 0 0 0 -0.274631 0 0 -0.0135808 0 0 0 0.0050942 
174 1 1 -0.0252792 0.0414092 0.0815065 0 0 0 -0.000246855 0.00176551 -0.265821 -5.05193e-05 0.000361314 -0.0117778 -2.491e-15 -2.56021e-15 4.43248e-16 0.0050942 
124 1 1 0.0420088 0.042441 0.0798007 0 0 0 0 0 -0.274631 0 0 -0.0135808 0 0 0 0.0050942 
252 1 1 -0.0341074 -0.0434334 0.0923332 0 0 0 0 0 -0.274631 0 0 -0.0135808 0 0 0 0.0050942 
79 1 1 -0.0176141 -0.0414344 0.089489 0 0 0 0.00018174 -0.000179369 -0.274703 0.00379091 -0.00374144 -0.0571276 2.90363e-15 2.94412e-15 -5.23015e-18 0.00815072 
190 1 1 0.000515076 -0.0431242 0.0880485 0 0 0 0 0 -0.274631 0 0 -0.0135808 0 0 0 0.0050942 
189 1 1 0.0228112 -0.0350613 0.0845364 0 0 0 -0.0010708 -0.00137228 -0.277439 -0.00030439 -0.000390089 -0.014379 -5.05915e-14 2.93448e-14 4.95151e-15 0.0050942 
230 1 1 -0.0418354 -0.0281007 0.0896474 0 0 0 0 0 -0.274631 0 0 -0.0135808 0 0 0 0.0050942 
313 1 1 -0.0111159 -0.0253459 0.0876421 0 0 0 0 0 -0.274631 0 0 -0.0135808 0 0 0 0.0050942 
227 1 1 0.0105119 -0.0261492 0.0867344 0 0 0 0 0 -0.274631 0 0 -0.0135808 0 0 0 0.0050942 
209 1 1 0.0100426 -0.0144994 0.0842498 0 0 0 0 0 -0.274631 0 0 -0.0135808 0 0 0 0.0050942 
59 1 1 0.0243626 -0.0153874 0.0848741 0 0 0 -0.000551605 0.000335345 -0.276187 -0.000492918 0.000299666 -0.0570177 3.51623e-16 1.09875e-16 -1.0095e-16 0.00815072 
247 1 1 0.0363883 -0.0216333 0.0857118 0 0 0 0 0 -0.274631 0 0 -0.0135808 0 0 0 0.0050942 
196 1 1 -0.0200099 -0.00674635 0.0922035 0 0 0 0 0 -0.274631 0 0 -0.0135808 0 0 0 0.0050942 
295 1 1 -0.00320175 -0.0118873 0.0875943 0 0 0 0 0 -0.274631 0 0 -0.0135808 0 0 0 0.0050942 
148 1 1 0.0440706 -0.00493793 0.0834373 0 0 0 0 0 -0.274631 0 0 -0.0135808 0 0 0 0.0050942 
22 1 1 0.00672359 0.00340981 0.0842182 0 0 0 0 0 -0.274631 0 0 -0.055627 0 0 0 0.00815072 
123 1 1 0.0257463 0.00429094 0.0906655 0 0 0 -0.00460475 -0.00256627 -0.275415 -0.00246926 -0.00137614 -0.0560475 -7.55729e-16 2.25499e-15 -2.94228e-15 0.00815072 
312 1 1 -0.0220558 0.00846736 0.0875764 0 0 0 0 0 -0.274631 0 0 -0.0135808 0 0 0 0.0050942 
333 1 1 -0.00325388 0.0120493 0.0905846 0 0 0 0 0 -0.274631 0 0 -0.0135808 0 0 0 0.0050942 
63 1 1 -0.0344071 0.0201469 0.084309 0 0 0 0 0 -0.274631 0 0 -0.055627 0 0 0 0.00815072 
62 1 1 -0.0128982 0.0195936 0.0848792 0 0 0 0 0 -0.274631 0 0 -0.055627 0 0 0 0.00815072 
263 1 1 0.00682569 0.0193914 0.0870566 0 0 0 0 0 -0.274631 0 0 -0.0135808 0 0 0 0.0050942 
266 1 1 0.0144255 0.0263228 0.0854822 0 0 0 0.00544805 -0.00425332 -0.274352 0.00125939 -0.000983212 -0.0135163 9.03946e-14 1.16706e-13 1.4028e-14 0.0050942 
82 1 1 0.0286385 0.0274834 0.0903677 0 0 0 0 0 -0.274631 0 0 -0.055627 0 0 0 0.00815072 
198 1 1 -0.0259991 0.0335641 0.0884302 0 0 0 0 0 -0.274631 0 0 -0.0135808 0 0 0 0.0050942 
46 1 1 0.00400219 0.0344604 0.0849482 0 0 0 -0.00133009 0.00103841 -0.274699 -0.00125939 0.000983212 -0.0556915 1.37985e-14 1.78148e-14 2.14111e-15 0.00815072 
188 1 1 -0.0266815 -0.0324854 0.0930782 0 0 0 -0.000744409 0.000734695 -0.274336 -0.00379091 0.00374144 -0.0120803 1.9026e-14 1.92913e-14 -3.4269e-17 0.0050942 
109 1 1 0.0138074 -0.0384174 0.0990092 0 0 0 0 0 -0.274631 0 0 -0.055627 0 0 0 0.00815072 
165 1 1 0.0362744 -0.0355914 0.0933094 0 0 0 0 0 -0.274631 0 0 -0.0135808 0 0 0 0.0050942 
41 1 1 -0.0184639 -0.0235902 0.101284 0 0 0 0 0 -0.274631 0 0 -0.055627 0 0 0 0.00815072 
44 1 1 0.000170875 -0.0281064 0.0956359 0 0 0 0 0 -0.274631 0 0 -0.055627 0 0 0 0.00815072 
205 1 1 0.0119519 -0.0250776 0.101277 0 0 0 0 0 -0.274631 0 0 -0.0135808 0 0 0 0.0050942 
143 1 1 0.026111 -0.0308325 0.0931898 0 0 0 0.0010708 0.00137228 -0.271823 0.00030439 0.000390089 -0.0127826 -5.05915e-14 2.93448e-14 4.95151e-15 0.0050942 
285 1 1 -0.0448811 -0.0171348 0.0938231 0 0 0 0 0 -0.274631 0 0 -0.0135808 0 0 0 0.0050942 
170 1 1 0.0286954 -0.0180215 0.0970988 0 0 0 0.00225937 -0.00137357 -0.268256 0.000492918 -0.000299666 -0.0121901 2.30282e-15 7.18817e-16 -6.61301e-16 0.0050942 
169 1 1 0.0440342 -0.0175274 0.0961536 0 0 0 0 0 -0.274631 0 0 -0.0135808 0 0 0 0.0050942 
223 1 1 -0.0109188 -0.0115954 0.094268 0 0 0 0 0 -0.274631 0 0 -0.0135808 0 0 0 0.0050942 
185 1 1 0.0138686 -0.0105482 0.0945418 0 0 0 0 0 -0.274631 0 0 -0.0135808 0 0 0 0.0050942 
325 1 1 0.0422676 -0.00782889 0.100874 0 0 0 0 0 -0.274631 0 0 -0.0135808 0 0 0 0.0050942 
111 1 1 -0.0343607 -0.000968929 0.0939764 0 0 0 0 0 -0.274631 0 0 -0.055627 0 0 0 0.00815072 
306 1 1 -0.040173 0.012472 0.0956749 0 0 0 0 0 -0.274631 0 0 -0.0135808 0 0 0 0.0050942 
153 1 1 -0.0246441 0.00580828 0.100689 0 0 0 0 0 -0.274631 0 0 -0.0135808 0 0 0 0.0050942 
287 1 1 0.00950234 0.00576649 0.0971824 0 0 0 0 0 -0.274631 0 0 -0.0135808 0 0 0 0.0050942 
33 1 1 0.0398166 0.0121324 0.0930613 0 0 0 0.00460475 0.00256627 -0.273847 0.00246926 0.00137614 -0.0552065 -7.55729e-16 2.25499e-15 -2.94228e-15 0.00815072 
206 1 1 -0.0251312 0.0196475 0.0948713 0 0 0 0 0 -0.274631 0 0 -0.0135808 0 0 0 0.0050942 
280 1 1 -0.0444501 0.0275669 0.0974557 0 0 0 0 0 -0.274631 0 0 -0.0135808 0 0 0 0.0050942 
281 1 1 0.0381233 0.0376639 0.0974858 0 0 0 0 0 -0.274631 0 0 -0.0135808 0 0 0 0.0050942 
64 1 1 -0.0335074 0.0418593 0.100461 0 0 0 0 -0.00486827 -0.270051 0 -0.00188484 -0.0546846 1.41226 0 0 0.00815072 
194 1 1 -0.00746468 0.041091 0.0957117 0 0 0 0 0 -0.274631 0 0 -0.0135808 0 0 0 0.0050942 
302 1 1 0.0253015 0.0426858 0.101943 0 0 0 0 0 -0.274631 0 0 -0.0135808 0 0 0 0.0050942 
163 1 1 -0.0237247 -0.0414279 0.103158 0 0 0 0 0 -0.274631 0 0 -0.0135808 0 0 0 0.0050942 
156 1 1 -0.0433591 -0.0363526 0.103373 0 0 0 0 0 -0.274631 0 0 -0.0135808 0 0 0 0.0050942 
212 1 1 -0.0112176 -0.0345138 0.110001 0 0 0 0 0 -0.274631 0 0 -0.0135808 0 0 0 0.0050942 
272 1 1 0.0299951 -0.0329382 0.10297 0 0 0 -0.00251472 0.00190424 -0.275619 -0.00071241 0.000539465 -0.0138608 -5.23514e-14 -6.21272e-14 1.35004e-14 0.0050942 
186 1 1 0.0377403 -0.0388031 0.106015 0 0 0 0.00251472 -0.00190424 -0.273643 0.00071241 -0.000539465 -0.0133008 -5.23514e-14 -6.21272e-14 1.35004e-14 0.0050942 
48 1 1 -0.0341121 -0.0228758 0.111125 0 0 0 0 0 -0.274631 0 0 -0.055627 0 0 0 0.00815072 
235 1 1 -0.00167923 -0.0228936 0.111315 0 0 0 0 0 -0.274631 0 0 -0.0135808 0 0 0 0.0050942 
135 1 1 0.021287 -0.0286533 0.10675 0 0 0 0 0 -0.274631 0 0 -0.0135808 0 0 0 0.0050942 
264 1 1 -0.0419624 -0.00860605 0.107851 0 0 0 0.000329998 0.000942565 -0.27782 0.000109578 0.000312984 -0.0146398 -5.95141e-15 1.3914e-14 3.49656e-15 0.0050942 
21 1 1 -0.0201588 -0.00866756 0.107724 0 0 0 0 0 -0.274631 0 0 -0.055627 0 0 0 0.00815072 
90 1 1 0.000232939 -0.0116521 0.102093 0 0 0 0.00011815 -0.00158297 -0.275188 0.000106891 -0.00143212 -0.0561306 -2.79246e-15 -2.0435e-16 -1.15888e-17 0.00815072 
253 1 1 0.0297251 -0.00994694 0.103811 0 0 0 0 0 -0.274631 0 0 -0.0135808 0 0 0 0.0050942 
238 1 1 -0.000696637 0.000802355 0.106472 0 0 0 -0.000483944 0.00648386 -0.272351 -0.000106891 0.00143212 -0.0130773 -1.82818e-14 -1.33784e-15 -7.5903e-17 0.0050942 
29 1 1 0.0191169 -0.00148596 0.109343 0 0 0 0 0 -0.274631 0 0 -0.055627 0 0 0 0.00815072 
89 1 1 -0.0378706 0.00959867 0.108432 0 0 0 0 0 -0.274631 0 0 -0.055627 0 0 0 0.00815072 
70 1 1 -0.00755569 0.0114373 0.111172 0 0 0 0 0 -0.274631 0 0 -0.055627 0 0 0 0.00815072 
37 1 1 0.039228 0.00532663 0.10813 0 0 0 0 0 -0.274631 0 0 -0.055627 0 0 0 0.00815072 
138 1 1 -0.0214365 0.0175001 0.108119 0 0 0 0 0 -0.274631 0 0 -0.0135808 0 0 0 0.0050942 
27 1 1 0.00953859 0.0150368 0.106702 0 0 0 0 0 -0.274631 0 0 -0.055627 0 0 0 0.00815072 
270 1 1 -0.033568 0.0228847 0.106286 0 0 0 0 0 -0.274631 0 0 -0.0135808 0 0 0 0.0050942 
241 1 1 -0.0406478 0.0329759 0.109569 0 0 0 0 0 -0.274631 0 0 -0.0135808 0 0 0 0.0050942 
68 1 1 -0.0169434 0.0321367 0.103221 0 0 0 0 0 -0.274631 0 0 -0.055627 0 0 0 0.00815072 
151 1 1 0.00156082 0.0326604 0.1074 0 0 0 0 0 -0.274631 0 0 -0.0135808 0 0 0 0.0050942 
12 1 1 0.0162332 0.0319286 0.107037 0 0 0 0 0 -0.274631 0 0 -0.055627 0 0 0 0.00815072 
308 1 1 0.00373908 0.0427277 0.107749 0 0 0 0 0 -0.274631 0 0 -0.0135808 0 0 0 0.0050942 
216 1 1 0.0363801 0.0411094 0.11058 0 0 0 0 0 -0.274631 0 0 -0.0135808 0 0 0 0.0050942 
85 1 1 -0.033435 -0.0414988 0.115213 0 0 0 0 0 -0.274631 0 0 -0.055627 0 0 0 0.00815072 
172 1 1 -0.00256696 -0.0428257 0.113462 0 0 0 0 0 -0.274631 0 0 -0.0135808 0 0 0 0.0050942 
213 1 1 0.0188587 -0.0424271 0.113674 0 0 0 0 0 -0.274631 0 0 -0.0135808 0 0 0 0.0050942 
226 1 1 0.0447704 -0.0435931 0.117755 0 0 0 0 0 -0.274631 0 0 -0.0135808 0 0 0 0.0050942 
234 1 1 -0.0417821 -0.0323476 0.120808 0 0 0 0 0 -0.274631 0 0 -0.0135808 0 0 0 0.0050942 
88 1 1 0.00755449 -0.0317052 0.116025 0 0 0 0 0 -0.274631 0 0 -0.055627 0 0 0 0.00815072 
34 1 1 0.0407376 -0.0227746 0.111524 0 0 0 0 0 -0.274631 0 0 -0.055627 0 0 0 0.00815072 
218 1 1 -0.0429677 -0.0114775 0.117567 0 0 0 -0.000329998 -0.000942565 -0.271442 -0.000109578 -0.000312984 -0.0125218 -5.95141e-15 1.3914e-14 3.49656e-15 0.0050942 
14 1 1 -0.028143 0.000358946 0.12036 0 0 0 0 0 -0.274631 0 0 -0.055627 0 0 0 0.00815072 
159 1 1 0.0075506 0.00296492 0.118226 0 0 0 0 0 -0.274631 0 0 -0.0135808 0 0 0 0.0050942 
166 1 1 0.0220212 0.0100631 0.118012 0 0 0 0 0 -0.274631 0 0 -0.0135808 0 0 0 0.0050942 
304 1 1 -0.0447004 0.0196663 0.118077 0 0 0 0 0 -0.274631 0 0 -0.0135808 0 0 0 0.0050942 
20 1 1 -0.00594818 0.0289304 0.120027 0 0 0 0 0 -0.274631 0 0 -0.055627 0 0 0 0.00815072 
118 1 1 0.0329998 0.0279305 0.112778 0 0 0 0 0 -0.274631 0 0 -0.055627 0 0 0 0.00815072 