ITEM: TIMESTEP
56000
ITEM: NUMBER OF ATOMS
338
ITEM: BOX BOUNDS mm mm mm
-0.05 0.05
-0.05 0.05
0 0.15
ITEM: ATOMS id type type x y z ix iy iz vx vy vz fx fy fz omegax omegay omegaz radius 
131 1 1 -0.0257481 -0.0400546 0.00560328 0 0 0 -8.64352e-07 -8.8695e-06 -1.19441e-05 -5.65685e-06 -2.08274e-05 -1.42547e-05 0.00105052 8.94455e-05 0.000138789 0.00694698 
319 1 1 -0.0146874 -0.0445409 0.00605301 0 0 0 5.45312e-07 -4.45958e-06 -7.64567e-06 -4.74668e-07 -8.62242e-06 -7.55394e-06 -0.000172315 -0.000442787 0.000192827 0.00694698 
243 1 1 -0.00279116 -0.043873 0.0061044 0 0 0 2.72906e-06 -2.73649e-06 -3.32663e-06 3.10877e-06 -1.01676e-05 -7.94828e-06 -8.12848e-05 0.000376333 -0.000510917 0.00694698 
260 1 1 0.0252546 -0.0438307 0.00594049 0 0 0 4.03545e-06 -2.88916e-06 4.12334e-08 7.06435e-06 -1.01765e-05 -2.55628e-06 0.000278243 -0.000115633 -6.24305e-05 0.00694698 
78 1 1 0.0413085 -0.0407811 0.00927581 0 0 0 1.30833e-06 -5.55731e-07 3.24826e-06 1.13234e-05 -1.44669e-05 1.65111e-05 7.91331e-05 0.000170604 -6.62265e-05 0.0111152 
74 1 1 -0.0408279 -0.0367696 0.00959711 0 0 0 -2.84499e-06 -6.88545e-06 -7.48719e-06 -5.91376e-05 -8.10295e-05 -6.2487e-05 0.000162145 0.000147089 -0.000339935 0.0111152 
296 1 1 -0.0274829 -0.0274567 0.0061219 0 0 0 -1.00686e-06 -9.71771e-06 -1.08527e-05 -8.30678e-06 -3.07098e-05 -1.45742e-05 0.000765668 0.000598151 -0.000175699 0.00694698 
173 1 1 -0.0155729 -0.0319598 0.00557451 0 0 0 1.47305e-06 -8.84037e-06 -1.4789e-05 -4.09171e-06 -2.76035e-05 -1.63016e-05 0.000418563 -7.00683e-05 4.61978e-05 0.00694698 
275 1 1 -0.0035902 -0.0297747 0.00572448 0 0 0 4.14247e-06 -6.96493e-06 -9.01292e-06 -3.03621e-06 -2.92724e-05 -1.67948e-05 -0.000130404 -0.000300467 -0.000164888 0.00694698 
60 1 1 0.0105837 -0.0360376 0.00947775 0 0 0 6.44874e-06 -8.67304e-06 -6.77092e-06 1.17672e-05 -0.000116213 -7.25677e-05 0.000477345 3.92467e-05 6.23428e-05 0.0111152 
102 1 1 -0.0405428 -0.0169476 0.00905849 0 0 0 -1.40069e-06 -8.23556e-06 -4.60665e-06 -3.22389e-05 -9.28382e-05 -4.61719e-05 0.000687658 -0.000292889 -0.000232597 0.0111152 
328 1 1 -0.0254333 -0.01519 0.00543683 0 0 0 5.48736e-07 -1.03528e-05 -9.84888e-07 -8.93667e-06 -3.06695e-05 3.80985e-06 0.00135582 0.000333491 -0.000255011 0.00694698 
40 1 1 -0.0106765 -0.0158183 0.0106462 0 0 0 2.19758e-06 -1.53174e-05 -5.26918e-06 -6.13267e-05 -0.000181436 -4.02134e-05 0.00177022 -9.89189e-05 0.000374237 0.0111152 
279 1 1 0.00440775 -0.0207351 0.0109054 0 0 0 7.36731e-06 -1.27197e-05 -2.79449e-06 -4.25348e-06 -4.79345e-05 -2.48941e-05 0.00130502 -0.000858752 -0.00029696 0.00694698 
267 1 1 0.0155005 -0.0199621 0.00561743 0 0 0 5.08311e-06 -8.83795e-06 2.26479e-06 3.69303e-06 -3.68807e-05 -1.36978e-05 0.00122575 0.000389839 0.000128818 0.00694698 
144 1 1 0.0430495 -0.0248667 0.00596798 0 0 0 2.77926e-06 -8.83451e-07 3.89449e-06 4.78995e-06 -6.64038e-06 1.5658e-06 0.000221287 0.00073318 2.41528e-05 0.00694698 
202 1 1 0.0452017 -0.0129601 0.00612949 0 0 0 1.05495e-07 6.57718e-07 4.56697e-06 2.42721e-06 -4.94456e-06 4.99904e-06 -7.36153e-05 0.0004056 0.000342565 0.00694698 
257 1 1 -0.0442073 -0.00104702 0.00624946 0 0 0 1.93314e-06 -1.49285e-06 -5.76806e-06 2.25995e-07 -2.45426e-06 -1.75171e-05 -0.000837165 0.00126047 -0.000205795 0.00694698 
274 1 1 -0.0220225 -0.00377879 0.00775194 0 0 0 -7.02654e-07 -1.38154e-05 -7.79789e-06 -1.84007e-05 -3.32605e-05 -2.25485e-05 -0.00258393 -0.00153193 -0.000125171 0.00694698 
50 1 1 0.0305736 -0.00918801 0.00973542 0 0 0 -1.41585e-06 -6.52668e-06 4.03955e-06 -6.37786e-06 -8.89312e-05 -3.37688e-05 0.000277476 -0.000754373 0.000430961 0.0111152 
232 1 1 -0.0434387 0.0118756 0.00626167 0 0 0 -1.83127e-06 -7.06464e-07 -1.19688e-05 -5.94345e-06 1.32215e-06 -3.10244e-05 -0.000225626 0.000264118 0.00069125 0.00694698 
268 1 1 -0.0326769 0.00368232 0.00609414 0 0 0 9.34493e-07 -6.84079e-06 -2.65183e-05 -1.5556e-05 -9.04399e-06 -6.53914e-05 0.000484138 -7.60524e-05 -0.00085114 0.00694698 
171 1 1 -0.021197 0.00798669 0.00823473 0 0 0 1.06674e-06 -1.35212e-05 -3.04526e-05 -1.98536e-05 -2.94082e-05 -9.4724e-05 -0.00122035 -0.000278523 -0.000353742 0.00694698 
164 1 1 0.0206 0.00173769 0.00544626 0 0 0 -3.28121e-06 -1.21617e-05 -6.73401e-06 -1.0269e-05 -3.98304e-05 -3.98693e-05 0.000962247 -0.00160852 0.00097311 0.00694698 
297 1 1 -0.0253905 0.019586 0.0054987 0 0 0 3.98266e-06 -7.13891e-06 -2.5944e-05 -2.02802e-06 -1.47342e-05 -6.96865e-05 0.00136273 -0.000117968 -0.00044518 0.00694698 
222 1 1 -0.0108508 0.0145911 0.00545574 0 0 0 4.59402e-06 -1.18454e-05 -1.77118e-05 -2.67071e-06 -3.03688e-05 -7.95317e-05 0.00175283 -0.000990548 -0.00100641 0.00694698 
290 1 1 -0.000799308 0.0214674 0.00523787 0 0 0 6.69323e-06 -3.98934e-06 1.64387e-06 1.56966e-05 -1.06807e-05 -3.99763e-05 -2.61392e-05 0.000215271 0.00124969 0.00694698 
98 1 1 0.0122233 0.0135227 0.00979355 0 0 0 2.26941e-06 -2.06611e-05 1.82954e-06 -3.62654e-06 -0.000247638 -0.000255979 0.00251325 -0.000460608 -0.00105024 0.0111152 
316 1 1 0.0321802 0.0195781 0.00502883 0 0 0 3.31617e-06 -1.02634e-05 5.76964e-06 1.99562e-05 -1.79802e-05 -8.21206e-06 0.00198461 0.000957054 0.000511485 0.00694698 
162 1 1 0.0446349 0.0202023 0.00544624 0 0 0 1.92184e-06 -5.64089e-06 4.68499e-06 9.17088e-06 -1.10871e-05 6.2814e-07 -3.73064e-05 0.000471832 0.000754947 0.00694698 
294 1 1 -0.0439424 0.0252727 0.00613941 0 0 0 -3.56684e-06 7.09183e-07 -7.66231e-06 -1.09489e-05 6.55379e-06 -2.02638e-05 0.000355353 -0.000271854 -0.000250573 0.00694698 
175 1 1 -0.0327496 0.0313742 0.00614206 0 0 0 -3.45762e-07 5.15506e-06 -1.42615e-05 -6.26894e-06 1.67177e-05 -3.83875e-05 -0.00098155 0.000907532 0.000562573 0.00694698 
255 1 1 -0.0148477 0.0261367 0.00587599 0 0 0 3.78681e-06 -5.0739e-06 -1.30312e-05 2.09352e-06 -1.32706e-05 -4.77844e-05 0.000964489 -0.000290665 0.000746999 0.00694698 
324 1 1 -0.00330542 0.0326855 0.00566931 0 0 0 -1.84919e-07 -2.67322e-06 -2.33345e-06 2.78431e-06 -1.09596e-05 -5.53113e-06 -2.15653e-06 -0.000389756 -0.000305979 0.00694698 
161 1 1 0.00824505 0.0320299 0.00644883 0 0 0 -1.68632e-06 -1.384e-05 3.669e-06 1.34018e-05 -4.33474e-05 -1.73048e-05 0.00165582 -0.00110758 -0.00134096 0.00694698 
77 1 1 0.0226325 0.0295981 0.012343 0 0 0 -9.07174e-07 -1.9626e-05 2.02841e-05 6.59026e-05 -0.000177356 -8.50053e-05 -0.000757991 -0.000277385 0.000745059 0.0111152 
155 1 1 0.0376085 0.0311764 0.00564482 0 0 0 -1.46434e-06 -9.03492e-06 1.21678e-05 9.49368e-06 -1.17807e-05 1.6182e-06 0.000813632 0.000305356 5.87573e-05 0.00694698 
321 1 1 -0.04402 0.0437755 0.00629381 0 0 0 -2.28084e-06 -1.37349e-07 -4.43417e-06 -5.64414e-06 1.13259e-06 -1.02446e-05 0.000632432 -1.60245e-05 -0.000361649 0.00694698 
207 1 1 -0.0314325 0.0439672 0.00637411 0 0 0 -9.70859e-07 -4.10167e-07 -5.65413e-06 -2.79294e-07 1.88126e-06 -1.84224e-05 0.00102968 -7.527e-05 -4.25886e-05 0.00694698 
38 1 1 -0.0153313 0.0415941 0.0097906 0 0 0 4.78387e-07 -1.30954e-06 -4.66546e-06 8.81531e-06 -6.42964e-06 -6.93134e-05 0.000290243 -0.000117477 -6.29705e-06 0.0111152 
149 1 1 0.0120644 0.043872 0.00543326 0 0 0 6.38084e-07 -5.20811e-06 6.55136e-06 1.71615e-05 -1.03555e-05 -1.10666e-05 -0.000135047 -0.000293331 0.000398699 0.00694698 
237 1 1 0.00118709 0.0437539 0.0121483 0 0 0 -1.68376e-06 -2.47471e-06 9.31216e-07 8.0267e-06 -1.04225e-05 1.4327e-05 -0.000197143 -0.000747958 -0.000297312 0.00694698 
249 1 1 0.0277053 0.0441438 0.00611632 0 0 0 -1.52887e-06 -9.79664e-06 4.67122e-06 5.37923e-06 -1.47325e-05 -9.38364e-06 0.000164489 -0.000442905 -0.000192475 0.00694698 
289 1 1 0.0443721 0.0422256 0.00592203 0 0 0 -1.8383e-06 -8.07247e-06 9.84426e-06 7.9121e-06 -9.02019e-06 1.12464e-05 0.00111109 0.00088967 0.00102398 0.00694698 
331 1 1 -0.0432693 -0.0455642 0.0218634 0 0 0 -2.91822e-06 -5.20436e-06 -5.96194e-06 -1.09285e-05 -9.64156e-06 -9.67871e-06 -0.000520328 0.000242835 6.62822e-05 0.00694698 
299 1 1 -0.0246085 -0.0451872 0.0168094 0 0 0 -1.10922e-06 -1.19352e-05 -1.72414e-05 -2.25876e-06 -2.73827e-05 -1.29975e-05 -0.00197295 -0.00046428 -8.81223e-05 0.00694698 
225 1 1 -0.0115498 -0.0442709 0.0185952 0 0 0 1.86361e-06 -1.21709e-05 -1.81459e-05 4.91343e-08 -1.84834e-05 -3.51998e-06 -0.000660738 0.000252786 0.000267341 0.00694698 
242 1 1 0.00106186 -0.0446807 0.0196824 0 0 0 4.7418e-06 -8.69654e-06 -1.05595e-05 -3.87921e-08 -1.86112e-05 -1.22036e-05 -0.00116875 -0.000825442 -0.000687094 0.00694698 
130 1 1 0.0208357 -0.0442058 0.0182027 0 0 0 1.22515e-07 -2.91378e-06 -1.44496e-06 -2.08486e-06 -7.74474e-06 -5.1722e-06 -0.000643268 -0.00168221 0.000479816 0.00694698 
167 1 1 0.0319451 -0.0442251 0.0228862 0 0 0 -7.97262e-07 1.562e-06 1.0825e-05 -2.0397e-06 2.89579e-06 1.74959e-05 0.000634184 0.000253133 -0.000117417 0.00694698 
136 1 1 0.0442903 -0.0447089 0.0241887 0 0 0 -1.0782e-06 1.01408e-06 5.57051e-06 -3.05053e-06 1.07858e-06 1.11784e-05 0.000448246 8.78535e-05 0.000170318 0.00694698 
179 1 1 -0.0345746 -0.0262026 0.0213893 0 0 0 -7.92819e-07 -1.9239e-05 -2.05274e-05 -1.99023e-05 -4.85918e-05 -6.02229e-05 0.000284899 0.00169988 -0.000436713 0.00694698 
7 1 1 -0.0200353 -0.030427 0.0211168 0 0 0 1.44695e-06 -2.17143e-05 -3.36633e-05 -6.2597e-05 -0.000204516 -0.000152836 6.20959e-05 -0.000140275 -0.000147526 0.0111152 
104 1 1 -0.000112732 -0.0285696 0.0247238 0 0 0 6.21597e-06 -1.69027e-05 -2.04631e-05 -5.99497e-05 -0.000119075 -9.3724e-05 -5.11772e-05 -0.00117371 0.000610677 0.0111152 
67 1 1 0.0278423 -0.0280453 0.0126282 0 0 0 3.28616e-06 -5.76811e-06 5.75267e-06 4.94579e-06 -8.73124e-05 7.48451e-07 -2.31612e-05 -0.000584883 0.000270284 0.0111152 
128 1 1 -0.0450313 -0.0217265 0.0238335 0 0 0 -2.36045e-06 -1.03174e-05 -1.06593e-05 -1.7693e-05 -1.62639e-05 -1.34015e-05 0.000715061 0.000338452 -0.000938566 0.00694698 
278 1 1 0.0331688 -0.0161931 0.0241361 0 0 0 -2.60288e-06 -8.6415e-08 1.0782e-05 -2.01989e-05 -1.0489e-05 3.73919e-06 -0.000822027 8.63425e-05 0.000399316 0.00694698 
146 1 1 -0.044873 -0.0091998 0.0224711 0 0 0 4.64353e-07 -4.85831e-06 -2.66649e-05 -2.23397e-05 1.03865e-05 -7.31829e-05 -0.00513744 0.00363925 0.000347992 0.00694698 
96 1 1 0.0119173 -0.00721233 0.0161322 0 0 0 4.00366e-06 -1.2043e-05 -4.43276e-06 -8.37759e-05 -0.000199882 -0.000268719 -0.00175234 0.000507059 0.000768317 0.0111152 
183 1 1 0.0447601 -0.00703515 0.0175419 0 0 0 -6.27319e-06 -2.18085e-06 1.33723e-05 -5.43129e-06 -1.22606e-05 1.10427e-05 0.00152873 0.000508567 0.001368 0.00694698 
25 1 1 -0.0377541 0.00483183 0.0223891 0 0 0 -4.44491e-06 -1.9552e-05 -6.77735e-05 -0.00021563 -6.48283e-05 -0.000691732 0.00122733 -0.000146824 -0.000333716 0.0111152 
17 1 1 -0.00526006 0.00256308 0.0144081 0 0 0 2.01647e-06 -1.67547e-05 -1.41145e-05 -0.00011 -0.000189455 -0.00038806 -0.00201391 0.00112297 4.77281e-05 0.0111152 
94 1 1 0.0384742 0.00842694 0.0134968 0 0 0 -9.58384e-06 -5.60549e-06 1.59973e-05 -5.01869e-06 -7.83163e-05 9.47072e-06 -0.00116937 -0.00277206 -0.000165193 0.0111152 
300 1 1 -0.0447061 0.0189524 0.017051 0 0 0 -3.99144e-06 -5.7307e-06 -2.55562e-05 -1.08761e-05 9.15619e-06 -5.46264e-05 0.0011212 0.00192944 1.69248e-05 0.00694698 
273 1 1 -0.0327467 0.0189504 0.0155434 0 0 0 -3.40957e-06 -8.33577e-06 -4.74423e-05 -1.06929e-05 -2.83759e-06 -0.000105988 -0.000108566 -2.83663e-05 0.000166854 0.00694698 
28 1 1 -0.0168118 0.0183632 0.0204917 0 0 0 -4.76964e-06 -1.20094e-05 -4.0125e-05 1.02182e-05 -9.05612e-05 -0.000540768 9.32615e-05 -0.0012874 -0.000126251 0.0111152 
286 1 1 -0.00173313 0.0186074 0.0168812 0 0 0 7.18603e-06 -2.10495e-05 -5.23314e-06 3.55298e-06 -5.34318e-05 -0.000106116 0.0037134 -0.00202717 -0.00173237 0.00694698 
305 1 1 -0.0436936 0.0348177 0.0156113 0 0 0 9.51607e-07 2.1972e-06 -1.52217e-05 2.60592e-07 6.38607e-06 -3.7896e-05 -0.000479918 0.00243578 0.000350651 0.00694698 
23 1 1 -0.0279413 0.0337349 0.0221096 0 0 0 -4.09227e-06 -8.59979e-06 -3.09171e-05 -3.66021e-05 -4.06917e-05 -0.000344398 0.00229895 -0.00101461 -0.000769234 0.0111152 
320 1 1 0.00379663 0.0296091 0.0183791 0 0 0 1.28086e-05 -1.97678e-05 7.07015e-06 -5.87866e-05 -3.0198e-05 -5.68766e-05 -0.00150383 0.00373038 0.00190518 0.00694698 
284 1 1 0.0446347 0.0273726 0.015737 0 0 0 1.44474e-06 -1.19081e-05 1.00683e-05 1.89597e-06 -1.43276e-05 1.15147e-05 0.00164243 0.00114663 0.00192732 0.00694698 
239 1 1 0.0187751 0.0448273 0.0154887 0 0 0 4.36715e-06 -5.98255e-06 5.82641e-06 -2.08701e-05 -1.85469e-05 -3.19474e-05 -0.000933557 0.00196718 -0.000514605 0.00694698 
61 1 1 0.037083 0.0409697 0.0204872 0 0 0 -6.41816e-06 -1.21132e-05 1.7682e-05 -4.35194e-05 -2.00117e-05 6.68406e-06 -0.000797345 -0.000586921 -0.000364896 0.0111152 
224 1 1 -0.0437842 -0.0444768 0.0343523 0 0 0 -4.44417e-06 -1.02235e-06 -7.95775e-06 -1.48011e-06 -2.1222e-06 -9.67086e-06 -0.00119667 6.04974e-05 0.000778023 0.00694698 
256 1 1 -0.0327608 -0.0400947 0.0257176 0 0 0 2.31717e-07 -9.97002e-06 -2.24576e-05 -1.11297e-05 -2.94789e-05 -2.48792e-05 -0.000189704 0.00188461 -0.000427212 0.00694698 
42 1 1 -0.0120031 -0.0408869 0.0355063 0 0 0 1.65721e-06 -1.69747e-05 -3.47108e-05 -5.02262e-05 1.93692e-05 2.06792e-05 -0.00133534 -0.000640837 0.000285744 0.0111152 
271 1 1 0.0313717 -0.040779 0.0343154 0 0 0 3.57644e-06 7.94672e-06 2.60523e-05 -8.74752e-06 1.4965e-05 3.49636e-05 -0.000648147 0.000459077 -7.11923e-05 0.00694698 
125 1 1 0.0438559 -0.0440727 0.0371343 0 0 0 3.72788e-06 1.46055e-08 8.42186e-06 2.65314e-06 -2.55756e-07 1.78766e-05 0.00094228 0.00138894 -0.000489404 0.00694698 
180 1 1 -0.0442349 -0.0338853 0.0265895 0 0 0 -3.75713e-06 -7.36505e-06 -1.25884e-05 -1.02413e-05 -1.03193e-05 -1.43627e-05 -0.000280871 -4.17011e-07 -0.00037184 0.00694698 
120 1 1 0.0409684 -0.0296039 0.0290176 0 0 0 -1.88886e-06 2.67156e-06 1.58812e-05 -3.89349e-05 9.12154e-06 9.26115e-05 -0.000254649 0.000926688 -5.44392e-05 0.0111152 
178 1 1 -0.012639 -0.0206732 0.0321261 0 0 0 5.57109e-06 -1.60684e-05 -5.52374e-05 -9.50038e-05 2.94939e-06 -7.0289e-05 -0.00167849 0.000428515 -0.000637214 0.00694698 
51 1 1 0.0185589 -0.0226609 0.0301882 0 0 0 5.794e-06 -1.05019e-06 7.53707e-06 -0.000163162 -3.19939e-05 -1.63835e-05 -0.000539139 -0.000502977 3.61385e-05 0.0111152 
134 1 1 0.0440827 -0.0143844 0.0325108 0 0 0 -4.94488e-06 3.69054e-06 1.86145e-05 -1.1779e-05 3.89945e-07 1.56114e-05 0.000835847 0.00117985 0.000453447 0.00694698 
19 1 1 -0.0263968 -0.0120069 0.0273709 0 0 0 -2.35118e-06 -2.65235e-05 -6.75133e-05 -0.000509706 -0.000271126 -0.000920514 -0.00241615 0.0012307 0.000449989 0.0111152 
310 1 1 -0.0104365 -0.00898786 0.0299638 0 0 0 5.67969e-06 -1.279e-05 -7.56628e-05 -0.00011717 -2.69156e-05 -0.000142225 -0.00224377 -0.00376274 0.000634177 0.00694698 
258 1 1 0.000949984 -0.012339 0.0275497 0 0 0 1.02753e-05 -1.24671e-05 -1.97637e-05 -6.31289e-05 -1.03366e-05 -0.000100483 -3.92637e-05 -0.00286791 -0.000749758 0.00694698 
18 1 1 0.012187 -0.00447304 0.0369605 0 0 0 -8.42421e-06 -1.41152e-05 1.64787e-05 -0.000405055 5.32633e-05 -0.000198987 0.00348406 -0.00181672 0.00203931 0.0111152 
184 1 1 0.0277392 -0.00806879 0.0328957 0 0 0 -2.21756e-06 4.14274e-06 2.55521e-05 -5.66181e-05 -1.35519e-05 2.34831e-06 0.00160425 -0.000492005 -0.000790913 0.00694698 
112 1 1 -0.0179401 0.00468416 0.0351755 0 0 0 -7.79866e-06 -1.54723e-05 -7.86864e-05 -0.00053376 -8.82159e-05 -0.000561295 0.00133096 -5.41888e-05 0.000968161 0.0111152 
160 1 1 -0.0025879 0.000661735 0.0310724 0 0 0 -3.15662e-06 -1.15821e-05 -2.52492e-05 -7.13784e-05 -2.46141e-05 -6.17078e-05 0.00327446 -0.00727015 -0.000336279 0.00694698 
55 1 1 0.0406908 0.00155576 0.0321766 0 0 0 -1.52563e-05 2.83215e-06 2.90051e-05 -8.53753e-05 -1.54491e-05 4.64935e-05 0.000239451 0.00169371 0.000671937 0.0111152 
2 1 1 -0.0316934 0.0196551 0.0354849 0 0 0 -2.20449e-05 -2.23216e-05 -7.60395e-05 -0.000231605 -9.30543e-05 -0.000706453 0.000538486 -0.00153626 0.000336429 0.0111152 
100 1 1 0.0065213 0.0141766 0.0298281 0 0 0 -8.23609e-06 -1.61128e-05 1.28174e-05 -0.00010419 -0.000158097 -0.000481406 -0.00284133 -0.00201455 0.000182094 0.0111152 
261 1 1 0.043399 0.0180072 0.0268078 0 0 0 -2.37584e-05 4.45268e-06 2.51466e-05 -1.98016e-05 1.96719e-06 1.52046e-07 0.0004548 0.00115192 -0.000378789 0.00694698 
246 1 1 -0.0443138 0.0262016 0.0275325 0 0 0 -1.30617e-05 -6.02962e-06 -4.00753e-05 -3.05455e-05 4.51504e-06 -8.24027e-05 0.000889038 0.00291192 0.000326807 0.00694698 
69 1 1 -0.00686325 0.0298271 0.0340233 0 0 0 -1.5252e-05 -2.23389e-06 -4.98185e-05 -0.000144093 -8.75354e-05 -0.000564479 -0.00239633 -0.00199772 -0.000696224 0.0111152 
108 1 1 0.0262495 0.0288961 0.0325398 0 0 0 -1.70126e-05 -3.88538e-06 3.90007e-05 -0.00012338 -4.31093e-05 -0.000244162 -0.00148298 -0.000501157 -0.000782466 0.0111152 
9 1 1 -0.0407958 0.0418491 0.032558 0 0 0 -5.63176e-06 -7.24181e-06 -2.06028e-05 -2.01542e-06 -7.37847e-05 -0.000134964 0.00179373 0.000218391 -0.000892966 0.0111152 
323 1 1 -0.0070076 0.0443556 0.0261317 0 0 0 9.26967e-06 1.62365e-06 -4.29454e-05 -5.16328e-05 2.83685e-05 -1.19496e-05 0.00639094 -0.00474621 0.00128742 0.00694698 
16 1 1 0.0103834 0.0409506 0.0288256 0 0 0 2.03626e-06 -1.50405e-06 3.24267e-07 -0.00026451 3.66916e-05 -0.000329666 -5.06852e-05 -0.00266237 0.000225719 0.0111152 
329 1 1 -0.0243337 -0.0448883 0.0452014 0 0 0 1.74763e-06 -1.10927e-05 -3.15549e-05 -1.3506e-05 5.29284e-06 5.47509e-06 -0.0031855 0.00125926 4.06949e-05 0.00694698 
168 1 1 0.0017064 -0.0450129 0.040199 0 0 0 8.26784e-07 -6.22086e-06 -1.88885e-05 -1.55862e-05 1.92356e-05 1.1488e-05 -0.00290507 -0.000502386 -0.00022297 0.00694698 
3 1 1 0.0165061 -0.0408746 0.039313 0 0 0 2.72993e-06 -6.26243e-07 4.81558e-06 -9.61312e-05 5.81281e-05 6.19384e-05 0.000431711 -0.00264917 0.000888081 0.0111152 
283 1 1 0.0310352 -0.0446315 0.0458371 0 0 0 -5.04918e-06 1.08472e-05 2.3935e-05 -2.78925e-05 1.9842e-05 2.8653e-05 0.00197129 -0.00168511 0.00141093 0.00694698 
211 1 1 -0.0439276 -0.0331951 0.0391794 0 0 0 -9.95006e-06 -5.99228e-06 -2.60706e-05 -7.26309e-06 -1.10581e-05 -1.18952e-05 -0.000261714 0.000944326 -0.000919599 0.00694698 
93 1 1 -0.0271456 -0.0292816 0.0419053 0 0 0 -6.60334e-06 -2.14292e-05 -6.03744e-05 -0.000126295 -2.7553e-05 -0.000115057 -6.34376e-06 0.000868748 -0.00020444 0.0111152 
191 1 1 0.00287901 -0.0323182 0.0407477 0 0 0 5.79262e-06 -1.50486e-05 -2.47598e-05 -6.77583e-05 6.86586e-05 1.12171e-05 0.000927566 -0.00103009 -0.000758356 0.00694698 
105 1 1 0.0303968 -0.0280613 0.0465897 0 0 0 -9.49038e-06 1.75652e-05 3.62555e-05 -0.000287692 0.000150321 0.000173895 -0.000788113 -0.00088309 -0.000100919 0.0111152 
66 1 1 -0.041682 -0.0169767 0.0389235 0 0 0 1.33971e-07 -1.4013e-05 -3.48512e-05 -7.5401e-05 -6.00378e-05 -0.000223178 -0.00079898 0.00140708 -0.00049141 0.0111152 
43 1 1 -0.0088296 -0.0242902 0.0478754 0 0 0 -7.44656e-06 -1.81254e-05 -6.34572e-05 -0.000525804 0.000468257 6.62281e-05 -0.000906034 -0.0022471 0.00038649 0.0111152 
259 1 1 0.0241568 -0.01313 0.0440616 0 0 0 -1.17797e-05 7.87986e-06 2.20353e-05 -8.90491e-05 2.53749e-05 1.68843e-06 -0.000262601 -0.00227065 0.00135907 0.00694698 
336 1 1 -0.024669 -0.0116407 0.0453219 0 0 0 0.00321763 -0.00225225 -0.000414818 -0.00290329 -0.000546828 -0.00148606 0.398229 0.497041 0.892238 0.00694698 
245 1 1 -0.000273779 -0.01185 0.0427906 0 0 0 -3.18802e-06 -3.18053e-05 -4.15906e-05 -0.000245904 8.11159e-05 -5.96513e-05 0.00114886 -0.00303881 -0.00086328 0.00694698 
303 1 1 0.0269176 -0.00136574 0.0493329 0 0 0 -2.79665e-05 1.66411e-05 6.77731e-05 -7.69023e-05 3.53872e-05 -2.67281e-05 0.00305576 0.000126852 -0.000281754 0.00694698 
5 1 1 0.0405047 -0.0106682 0.0488248 0 0 0 -1.63983e-05 1.50846e-05 3.4139e-05 -0.00020441 0.000130998 0.000106522 -0.00104358 -0.000550397 -0.000280803 0.0111152 
107 1 1 -0.0382431 0.00195704 0.0431279 0 0 0 -2.04258e-05 -1.98919e-05 -8.34965e-05 -0.000259889 6.76764e-06 -0.00045407 -0.00215372 -0.00106456 0.00127301 0.0111152 
95 1 1 0.02393 0.0111489 0.0391398 0 0 0 -2.35088e-05 1.90613e-06 6.33382e-05 -0.000155102 -5.98809e-06 -0.000237058 -0.00106136 -0.000192644 -0.000111625 0.0111152 
318 1 1 0.044365 0.00472848 0.0485669 0 0 0 -5.22038e-06 2.24178e-06 2.61316e-05 -1.14644e-05 1.72948e-05 -1.21918e-05 0.000968651 0.00171952 0.000131654 0.00694698 
208 1 1 -0.0448665 0.0168567 0.0449706 0 0 0 -1.6041e-05 -1.6276e-05 -6.55369e-05 -3.16193e-05 -6.89552e-06 -0.000108569 0.00202949 0.00758436 -0.00265533 0.00694698 
282 1 1 -0.0182462 0.0185329 0.0445893 0 0 0 -3.05908e-05 -1.70609e-05 -7.36611e-05 -9.55725e-05 1.12839e-05 -0.000213581 -0.000239481 -0.00177052 -0.000531552 0.00694698 
4 1 1 -0.00366641 0.0146153 0.0482211 0 0 0 -3.46449e-05 -3.72716e-06 -3.68495e-05 -0.000401133 0.000257984 -0.000634828 0.000837105 -0.00282292 0.0028097 0.0111152 
58 1 1 0.0410775 0.0200219 0.043561 0 0 0 -2.04077e-05 -3.64076e-06 4.12188e-05 -0.000133088 5.80086e-05 -1.98104e-06 0.000300394 0.0011432 0.00028469 0.0111152 
199 1 1 -0.0449272 0.0285898 0.0409787 0 0 0 -1.05315e-05 -1.22769e-05 -5.27306e-05 -1.1822e-05 -1.30238e-05 -8.23966e-05 0.000642395 0.00545839 -0.00202655 0.00694698 
192 1 1 -0.0256315 0.0271739 0.0481263 0 0 0 -4.20096e-05 6.97332e-06 -9.53911e-05 -7.74715e-05 -1.02699e-05 -0.000167551 -0.00446094 0.00200905 0.00174482 0.00694698 
292 1 1 -0.0146967 0.032469 0.0485799 0 0 0 -5.12227e-05 7.22767e-06 -8.04826e-05 -9.50857e-05 5.47966e-06 -0.000270863 0.00457796 -0.00491626 -0.00289239 0.00694698 
73 1 1 0.0108552 0.0280465 0.0457835 0 0 0 -5.13892e-05 1.20448e-05 1.27684e-05 -0.000163101 8.91138e-05 -0.000518806 -0.000492906 -0.00471189 0.000153944 0.0111152 
327 1 1 -0.0435039 0.0432739 0.049771 0 0 0 -5.2951e-06 7.92298e-06 -2.61131e-05 -3.95734e-05 -1.38221e-05 4.71958e-05 -0.00151825 0.00346303 0.0016954 0.00694698 
126 1 1 -0.0115806 0.044294 0.0464581 0 0 0 -2.2212e-05 8.07737e-06 -2.78801e-05 -3.37727e-05 -2.13386e-05 -0.000266118 0.00545868 0.00946959 -0.00275656 0.00694698 
248 1 1 0.000186958 0.0432518 0.0425158 0 0 0 -3.45119e-05 8.14605e-06 -4.33151e-05 9.66899e-05 -2.10893e-05 7.7458e-05 0.000450239 -0.00678929 -0.00109554 0.00694698 
229 1 1 0.0125664 0.0445193 0.045416 0 0 0 -3.02291e-05 4.70695e-06 8.73764e-06 4.15384e-05 3.91813e-06 -9.53197e-05 -0.00187554 -0.00119381 -0.00270327 0.00694698 
114 1 1 0.0401335 0.0408 0.040734 0 0 0 -1.08059e-05 -6.01302e-06 2.20704e-05 -0.000121809 1.95061e-05 3.85195e-05 -0.00066977 0.000743838 -0.000245932 0.0111152 
314 1 1 -0.0174739 -0.0445492 0.0555942 0 0 0 7.54652e-06 -1.66521e-05 -3.96468e-05 -1.91092e-05 6.45363e-05 3.47833e-05 -0.00217738 -0.00111113 -0.000528582 0.00694698 
337 1 1 -0.00609993 -0.0408573 0.0515865 0 0 0 8.2085e-06 -1.30416e-05 -3.68497e-05 -3.63712e-05 7.4014e-05 2.61029e-05 0.000477974 0.000215226 0.00167882 0.00694698 
56 1 1 0.00688375 -0.0394004 0.0619726 0 0 0 -4.29122e-06 5.7694e-06 8.54088e-07 -0.000338925 0.000331394 0.000179129 -0.000561448 -0.00283347 0.00119274 0.0111152 
265 1 1 0.0220177 -0.043724 0.0552628 0 0 0 -2.0164e-06 5.92006e-06 1.33188e-05 -2.65259e-05 3.43756e-05 1.73877e-05 -0.00085275 0.00223596 -9.93379e-05 0.00694698 
49 1 1 0.0406724 -0.0407584 0.0580765 0 0 0 -4.89905e-06 1.47115e-05 2.51909e-05 -0.000110118 6.29578e-05 9.30388e-05 0.000680584 0.00151575 -0.000194582 0.0111152 
84 1 1 -0.0411457 -0.032993 0.0553186 0 0 0 -1.20136e-05 -2.4092e-05 -5.16319e-05 -8.82318e-06 0.000209086 -1.37808e-05 0.00140062 0.00147422 -0.00114321 0.0111152 
307 1 1 -0.0195837 -0.0324346 0.0571155 0 0 0 -1.11149e-05 -2.58344e-05 -8.72139e-05 -2.68368e-05 0.000118715 3.53336e-05 -0.00158635 -0.00205805 0.0023569 0.00694698 
326 1 1 0.0447956 -0.0254458 0.0534947 0 0 0 -5.95578e-06 1.21095e-05 2.70634e-05 -3.96365e-05 2.40598e-05 4.23641e-05 0.00162158 0.00424464 -0.000916577 0.00694698 
81 1 1 -0.0216684 -0.0170402 0.062432 0 0 0 -3.92647e-05 -2.14119e-05 -0.00013041 -0.000542466 0.000837877 0.000335609 -0.000748435 -0.00162389 0.00125904 0.0111152 
52 1 1 0.0112854 -0.022141 0.0507309 0 0 0 -1.60987e-05 3.073e-06 -2.19364e-06 -0.000524017 0.000443766 6.82102e-05 -0.00193358 -0.00314828 0.00250254 0.0111152 
332 1 1 0.026756 -0.0152037 0.0567084 0 0 0 -3.28982e-05 3.44065e-05 3.03436e-05 -0.000114297 7.08649e-05 1.60027e-05 -0.00410414 -0.00159981 0.0015742 0.00694698 
220 1 1 -0.043805 -0.00977099 0.0542181 0 0 0 -2.04076e-05 -6.64918e-06 -5.55724e-05 -9.85376e-06 6.27128e-05 -1.24309e-05 -0.000523728 -0.000325891 -0.000356785 0.00694698 
133 1 1 -0.027208 -0.00283254 0.0559954 0 0 0 -4.28268e-05 -5.55765e-06 -0.000115404 -9.40243e-05 0.000194061 8.98437e-05 0.00497922 0.00203024 -0.0020302 0.00694698 
24 1 1 -0.0102672 -0.00372098 0.0528006 0 0 0 -2.02342e-05 -1.63687e-05 -7.37416e-05 -0.000883976 0.000814304 -0.00030524 -7.5762e-06 -0.00312072 -0.00108798 0.0111152 
240 1 1 0.0172585 -0.00749236 0.0553607 0 0 0 -4.02183e-05 1.8097e-05 3.39775e-05 -0.000120052 8.56419e-05 -2.55209e-05 0.00566841 -0.000203702 -0.00111575 0.00694698 
236 1 1 -0.0236943 0.00828091 0.0507774 0 0 0 -3.94922e-05 -2.50967e-06 -9.63774e-05 -9.26204e-05 5.52475e-05 -9.47872e-05 -0.00395504 -0.00327399 0.000725934 0.00694698 
15 1 1 0.0136566 0.00817861 0.0563009 0 0 0 -5.3614e-05 1.51314e-05 5.01243e-05 -0.000356148 0.000405511 -0.000400717 -0.000759444 -0.00529329 0.00127355 0.0111152 
291 1 1 0.0437832 0.0122418 0.0588945 0 0 0 -1.66401e-05 -8.65769e-06 4.46834e-05 -2.17313e-05 -2.3435e-05 -3.01238e-05 0.000255722 -2.56015e-05 0.00172889 0.00694698 
335 1 1 -0.0343158 0.0161596 0.0526643 0 0 0 -4.70812e-05 -2.57177e-06 -0.000109085 -5.3312e-05 1.38242e-05 -0.000112374 -0.00178716 -0.000646616 0.00171735 0.00694698 
266 1 1 0.0217589 0.0233197 0.058673 0 0 0 -7.35404e-05 1.80187e-05 6.63966e-05 -9.27071e-05 5.41629e-05 -6.72986e-05 0.000998601 0.000586302 0.00168096 0.00694698 
298 1 1 0.0302846 0.0135353 0.0553188 0 0 0 -4.51368e-05 1.95445e-05 8.84578e-05 -6.84945e-05 2.82933e-05 -3.98073e-05 -0.00506775 -0.00209489 -0.00156112 0.00694698 
262 1 1 -0.0377382 0.0287333 0.0508387 0 0 0 -3.70802e-05 2.43011e-06 -0.000100759 -3.42914e-05 -8.29264e-06 -8.69548e-05 -0.00106479 -0.00488817 0.000690479 0.00694698 
99 1 1 -0.00360812 0.0303681 0.0615073 0 0 0 -9.45125e-05 4.4051e-06 -6.31243e-05 -0.000305798 0.000528139 -0.000564041 -0.00274327 0.000187531 0.00113212 0.0111152 
122 1 1 -0.0274283 0.0409191 0.0558336 0 0 0 -3.26622e-05 1.1602e-05 -6.93601e-05 5.68483e-05 9.5522e-06 -0.000382394 0.0033855 -0.000909694 -0.00201399 0.0111152 
158 1 1 0.000206946 0.0448777 0.0561864 0 0 0 -6.22523e-05 -4.00841e-06 -4.75674e-05 3.97662e-05 6.81515e-05 6.46632e-05 0.00719215 0.00571063 -0.010661 0.00694698 
47 1 1 0.0244974 0.0400921 0.0559318 0 0 0 -4.01349e-05 5.43425e-06 3.04918e-05 -0.000162528 4.81486e-05 -7.79072e-05 -0.00296364 0.000335473 -0.00351759 0.0111152 
203 1 1 0.0420083 0.0441913 0.0569424 0 0 0 -2.49528e-05 -9.51358e-06 2.44987e-05 -1.97838e-05 4.44578e-08 5.79812e-06 -0.00167533 -0.00295478 -0.00361216 0.00694698 
6 1 1 -0.0273257 -0.040802 0.0684914 0 0 0 -1.52419e-05 -1.91805e-05 -7.5896e-05 -8.65422e-06 0.000407488 0.000175474 -0.00413519 -0.00134721 0.00239221 0.0111152 
190 1 1 -0.0086279 -0.0442093 0.0646034 0 0 0 -5.19835e-06 3.21016e-06 -3.15811e-05 -2.32897e-05 3.58399e-05 3.93037e-05 -0.00443951 -0.00218755 0.000166862 0.00694698 
189 1 1 0.0268465 -0.0442003 0.0673438 0 0 0 -6.14376e-06 1.66024e-05 2.08664e-05 -4.1695e-05 3.18158e-05 1.05398e-05 0.00125913 -0.00240642 -0.000151545 0.00694698 
186 1 1 0.0437407 -0.0441968 0.0738313 0 0 0 -9.37321e-06 1.63383e-05 2.15119e-05 6.09652e-07 2.76884e-06 -1.99369e-06 0.00142797 -0.000627573 0.00124365 0.00694698 
313 1 1 -0.0118608 -0.0316739 0.0682093 0 0 0 -3.79899e-05 9.03084e-06 -9.65063e-05 4.93265e-05 0.000185277 7.72925e-05 -0.00349005 -0.00240049 0.00272649 0.00694698 
227 1 1 0.00766389 -0.0253941 0.0722238 0 0 0 -5.83269e-05 6.43138e-06 -1.54114e-05 -2.1919e-05 0.000281763 0.000107591 -0.000890601 -0.00739704 0.0012572 0.00694698 
91 1 1 0.0235313 -0.0277779 0.0665881 0 0 0 -2.60015e-05 3.91493e-05 4.5963e-05 -0.000448919 0.000244411 5.17527e-05 0.00223747 -0.00114318 0.00190741 0.0111152 
247 1 1 0.0400879 -0.0264408 0.068086 0 0 0 -3.66648e-05 6.65155e-05 7.19576e-05 -5.67655e-05 6.9281e-06 -4.28781e-05 0.000825293 -0.00316609 0.00254249 0.00694698 
36 1 1 -0.0407301 -0.017322 0.0691411 0 0 0 -2.23445e-05 -1.04336e-05 -8.7257e-05 -8.7131e-05 0.000450664 -1.51865e-05 -0.00144246 0.00504362 -0.000499764 0.0111152 
137 1 1 -0.00226739 -0.0232155 0.0635622 0 0 0 -3.30326e-05 6.60338e-06 -5.70771e-05 -6.13467e-05 0.000296599 9.73983e-05 0.000313198 -0.0031813 -0.00103077 0.00694698 
276 1 1 0.0201772 -0.012551 0.0722589 0 0 0 -9.45687e-05 3.6791e-05 0.000108215 -0.000118628 8.92439e-05 -1.34957e-05 0.00163656 -0.010381 0.00435983 0.00694698 
215 1 1 0.0333367 -0.0151385 0.0705857 0 0 0 -5.2315e-05 7.48118e-05 0.000129816 -9.41771e-05 -1.80592e-05 -4.55498e-05 0.00495676 0.00364834 0.00487804 0.00694698 
217 1 1 0.0446141 -0.0151032 0.0644108 0 0 0 -2.80503e-05 4.35943e-05 5.0021e-05 -5.11504e-05 1.5724e-05 -8.57001e-06 -0.00503471 0.00530224 -0.00655099 0.00694698 
182 1 1 -0.0291259 -0.0043068 0.0735736 0 0 0 -0.000107275 -6.68927e-05 -0.000202654 0.000120044 0.000507125 0.000197224 0.0169261 -0.000726389 -0.00744354 0.00694698 
10 1 1 0.00493203 -0.00796382 0.0666215 0 0 0 -6.1011e-05 1.47653e-06 3.61119e-06 -0.000549235 0.0011333 8.51064e-05 -0.000462027 -0.00404091 0.00212108 0.0111152 
148 1 1 0.0445356 -0.00238309 0.0634358 0 0 0 -3.91957e-05 2.46656e-05 7.71323e-05 -4.7245e-05 2.81123e-05 5.15994e-05 0.00716261 0.00965031 0.00225826 0.00694698 
32 1 1 -0.039949 0.00415217 0.0635931 0 0 0 -5.18808e-05 7.37908e-06 -8.83104e-05 2.50695e-06 0.000430965 1.66707e-05 -0.00102113 -0.000491335 0.00146294 0.0111152 
197 1 1 -0.0192981 0.00213534 0.0660101 0 0 0 -0.000100361 -4.40644e-05 -0.000192732 3.89764e-05 0.000405125 0.000331101 -0.00315811 -0.0121786 0.00413117 0.00694698 
115 1 1 -0.00374325 0.0105808 0.0687301 0 0 0 -0.000115915 -2.08037e-05 -5.2033e-05 5.70514e-05 0.00129904 -0.000116649 0.00250331 -0.00856534 0.00380831 0.0111152 