ITEM: TIMESTEP
700
ITEM: NUMBER OF ATOMS
338
ITEM: BOX BOUNDS mm mm mm
-0.05 0.05
-0.05 0.05
0 0.15
ITEM: ATOMS id type type x y z ix iy iz vx vy vz fx fy fz omegax omegay omegaz radius 
131 1 1 -0.0268662 -0.0408667 0.00551236 0 0 0 0 0 -0.068621 0 0 -0.0130249 0 0 0 0.00502372 
60 1 1 0.00523969 -0.0364874 0.00813475 0 0 0 0 0 -0.068621 0 0 -0.0533498 0 0 0 0.00803795 
260 1 1 0.0208522 -0.0367612 0.00690534 0 0 0 0 0 -0.068621 0 0 -0.0130249 0 0 0 0.00502372 
173 1 1 -0.0143053 -0.0294904 0.00639209 0 0 0 0 0 -0.068621 0 0 -0.0130249 0 0 0 0.00502372 
102 1 1 -0.0415551 -0.016109 0.00797031 0 0 0 0 0 -0.00266919 0 0 0.164323 0 0 0 0.00803795 
274 1 1 -0.017856 -0.00594656 0.00890118 0 0 0 0 0 -0.068621 0 0 -0.0130249 0 0 0 0.00502372 
279 1 1 0.00345611 -0.0132293 0.00667012 0 0 0 0 0 -0.068621 0 0 -0.0130249 0 0 0 0.00502372 
202 1 1 0.0424697 -0.0112183 0.00614063 0 0 0 0 0 -0.068621 0 0 -0.0130249 0 0 0 0.00502372 
257 1 1 -0.0427917 -0.000788059 0.00740639 0 0 0 0 0 -0.068621 0 0 -0.0130249 0 0 0 0.00502372 
171 1 1 -0.025394 0.0029722 0.00550383 0 0 0 0 0 -0.068621 0 0 -0.0130249 0 0 0 0.00502372 
232 1 1 -0.0388522 0.0117602 0.00502341 0 0 0 0 0 -0.0685246 0 0 0.0125706 0 0 0 0.00502372 
297 1 1 -0.0229893 0.0196618 0.00863675 0 0 0 0 0 -0.068621 0 0 -0.0130249 0 0 0 0.00502372 
222 1 1 -0.011839 0.0214288 0.00619831 0 0 0 0 0 -0.068621 0 0 -0.0130249 0 0 0 0.00502372 
290 1 1 0.00244631 0.0152052 0.00510594 0 0 0 0 0 -0.068621 0 0 -0.0130249 0 0 0 0.00502372 
316 1 1 0.0298993 0.0168772 0.00844066 0 0 0 0 0 -0.068621 0 0 -0.0130249 0 0 0 0.00502372 
162 1 1 0.0442265 0.0150863 0.00827841 0 0 0 0 0 -0.068621 0 0 -0.0130249 0 0 0 0.00502372 
255 1 1 -0.0221554 0.0335727 0.0089625 0 0 0 0 0 -0.068621 0 0 -0.0130249 0 0 0 0.00502372 
155 1 1 0.0336248 0.0322219 0.00520738 0 0 0 0 0 -0.068621 0 0 -0.0130249 0 0 0 0.00502372 
289 1 1 0.0441148 0.0370355 0.00893409 0 0 0 0 0 -0.068621 0 0 -0.0130249 0 0 0 0.00502372 
321 1 1 -0.0447942 0.0434911 0.006761 0 0 0 0 0 -0.068621 0 0 -0.0130249 0 0 0 0.00502372 
299 1 1 -0.0272293 -0.0432402 0.0181786 0 0 0 0 0 -0.068621 0 0 -0.0130249 0 0 0 0.00502372 
319 1 1 -0.0142646 -0.0448529 0.00953088 0 0 0 0 0 -0.068621 0 0 -0.0130249 0 0 0 0.00502372 
74 1 1 -0.0384622 -0.0338395 0.0146712 0 0 0 0 0 -0.068621 0 0 -0.0533498 0 0 0 0.00803795 
296 1 1 -0.0224689 -0.0355829 0.0132067 0 0 0 0 0 -0.068621 0 0 -0.0130249 0 0 0 0.00502372 
243 1 1 -0.00934353 -0.0367014 0.0133719 0 0 0 0 0 -0.068621 0 0 -0.0130249 0 0 0 0.00502372 
78 1 1 0.0383985 -0.037225 0.0142756 0 0 0 0 0 -0.068621 0 0 -0.0533498 0 0 0 0.00803795 
275 1 1 -0.00350026 -0.0289367 0.0172128 0 0 0 0 0 -0.068621 0 0 -0.0130249 0 0 0 0.00502372 
328 1 1 -0.0269007 -0.0202082 0.0164761 0 0 0 0 0 -0.068621 0 0 -0.0130249 0 0 0 0.00502372 
40 1 1 -0.0095744 -0.0169003 0.010738 0 0 0 0 0 -0.068621 0 0 -0.0533498 0 0 0 0.00803795 
267 1 1 0.0163076 -0.0176735 0.0165302 0 0 0 0 0 -0.068621 0 0 -0.0130249 0 0 0 0.00502372 
144 1 1 0.042374 -0.0206485 0.0153966 0 0 0 0 0 -0.068621 0 0 -0.0130249 0 0 0 0.00502372 
50 1 1 0.026536 -0.00915926 0.0152325 0 0 0 0 0 -0.068621 0 0 -0.0533498 0 0 0 0.00803795 
17 1 1 -0.00938276 0.00387687 0.0126325 0 0 0 0 0 -0.068621 0 0 -0.0533498 0 0 0 0.00803795 
96 1 1 0.0113165 -0.00336412 0.0136273 0 0 0 0 0 -0.068621 0 0 -0.0533498 0 0 0 0.00803795 
268 1 1 -0.0295644 0.0111299 0.0139054 0 0 0 0 0 -0.068621 0 0 -0.0130249 0 0 0 0.00502372 
286 1 1 -0.00196266 0.013629 0.0182457 0 0 0 0 0 -0.068621 0 0 -0.0130249 0 0 0 0.00502372 
94 1 1 0.0348132 0.00478129 0.0134934 0 0 0 0 0 -0.068621 0 0 -0.0533498 0 0 0 0.00803795 
273 1 1 -0.039209 0.0141168 0.016519 0 0 0 0 0 -0.068621 0 0 -0.0130249 0 0 0 0.00502372 
98 1 1 0.0109724 0.0139383 0.0150352 0 0 0 0 0 -0.068621 0 0 -0.0533498 0 0 0 0.00803795 
294 1 1 -0.0446702 0.0281705 0.0182065 0 0 0 0 0 -0.068621 0 0 -0.0130249 0 0 0 0.00502372 
175 1 1 -0.0367447 0.0315142 0.0123439 0 0 0 0 0 -0.068621 0 0 -0.0130249 0 0 0 0.00502372 
161 1 1 0.00320249 0.0241958 0.0125406 0 0 0 0 0 -0.068621 0 0 -0.0130249 0 0 0 0.00502372 
77 1 1 0.021231 0.0296756 0.0111584 0 0 0 0 0 -0.068621 0 0 -0.0533498 0 0 0 0.00803795 
324 1 1 -0.0104341 0.033894 0.0100542 0 0 0 0 0 -0.068621 0 0 -0.0130249 0 0 0 0.00502372 
149 1 1 0.00449458 0.0403794 0.0108666 0 0 0 0 0 -0.068621 0 0 -0.0130249 0 0 0 0.00502372 
207 1 1 -0.034013 0.042938 0.0120035 0 0 0 0 0 -0.068621 0 0 -0.0130249 0 0 0 0.00502372 
249 1 1 0.0260036 0.0420097 0.0100011 0 0 0 0 0 -0.068621 0 0 -0.0130249 0 0 0 0.00502372 
130 1 1 0.0141819 -0.0447393 0.0255645 0 0 0 0 0 -0.068621 0 0 -0.0130249 0 0 0 0.00502372 
7 1 1 -0.0212432 -0.0348266 0.027762 0 0 0 0 0 -0.068621 0 0 -0.0533498 0 0 0 0.00803795 
67 1 1 0.0220426 -0.029466 0.0214391 0 0 0 0 0 -0.068621 0 0 -0.0533498 0 0 0 0.00803795 
179 1 1 -0.0369204 -0.0203388 0.024549 0 0 0 0 0 -0.068621 0 0 -0.0130249 0 0 0 0.00502372 
310 1 1 -0.0148815 -0.0136629 0.0269506 0 0 0 0 0 -0.068621 0 0 -0.0130249 0 0 0 0.00502372 
278 1 1 0.0313014 -0.0165843 0.0272239 0 0 0 0 0 -0.068621 0 0 -0.0130249 0 0 0 0.00502372 
183 1 1 0.039709 -0.0112415 0.0200411 0 0 0 0 0 -0.068621 0 0 -0.0130249 0 0 0 0.00502372 
164 1 1 0.0238656 0.0089406 0.0217382 0 0 0 0 0 -0.068621 0 0 -0.0130249 0 0 0 0.00502372 
28 1 1 -0.0154685 0.0209772 0.0202398 0 0 0 0 0 -0.068621 0 0 -0.0533498 0 0 0 0.00803795 
261 1 1 0.0415966 0.014492 0.0244683 0 0 0 0 0 -0.068621 0 0 -0.0130249 0 0 0 0.00502372 
16 1 1 0.00608296 0.036233 0.0267333 0 0 0 0 0 -0.068621 0 0 -0.0533498 0 0 0 0.00803795 
239 1 1 0.0232367 0.0396958 0.025565 0 0 0 0 0 -0.068621 0 0 -0.0130249 0 0 0 0.00502372 
61 1 1 0.0346007 0.0346679 0.0199929 0 0 0 0 0 -0.068621 0 0 -0.0533498 0 0 0 0.00803795 
38 1 1 -0.0154435 0.0419208 0.0193347 0 0 0 0 0 -0.068621 0 0 -0.0533498 0 0 0 0.00803795 
180 1 1 -0.0423831 -0.0321371 0.0328038 0 0 0 0 0 -0.068621 0 0 -0.0130249 0 0 0 0.00502372 
104 1 1 -0.00119794 -0.0337258 0.0292938 0 0 0 0 0 -0.068621 0 0 -0.0533498 0 0 0 0.00803795 
271 1 1 0.028986 -0.0321488 0.0363132 0 0 0 0 0 -0.068621 0 0 -0.0130249 0 0 0 0.00502372 
120 1 1 0.0413978 -0.02777 0.0295991 0 0 0 0 0 -0.068621 0 0 -0.0533498 0 0 0 0.00803795 
51 1 1 0.0138318 -0.0202479 0.0327205 0 0 0 -0.000316886 -0.00627589 -0.0676053 -0.0002735 -0.00541664 -0.0524732 2.71919e-15 -8.81326e-17 3.03801e-16 0.00803795 
134 1 1 0.0446472 -0.0137875 0.0351208 0 0 0 0 0 -0.068621 0 0 -0.0130249 0 0 0 0.00502372 
146 1 1 -0.0446365 -0.00615984 0.0321996 0 0 0 0 0 -0.068621 0 0 -0.0130249 0 0 0 0.00502372 
19 1 1 -0.0282448 -0.0111162 0.0303137 0 0 0 0 0 -0.068621 0 0 -0.0533498 0 0 0 0.00803795 
160 1 1 -0.00352292 -0.00979518 0.0334828 0 0 0 0 0 -0.068621 0 0 -0.0130249 0 0 0 0.00502372 
184 1 1 0.0289516 -0.0107054 0.0371371 0 0 0 0 0 -0.068621 0 0 -0.0130249 0 0 0 0.00502372 
18 1 1 0.0146311 -0.0044179 0.0301586 0 0 0 0.000316886 0.00627589 -0.0696366 0.0002735 0.00541664 -0.0542264 2.71919e-15 -8.81326e-17 3.03801e-16 0.00803795 
55 1 1 0.0384601 -0.000870472 0.0297131 0 0 0 0 0 -0.068621 0 0 -0.0533498 0 0 0 0.00803795 
25 1 1 -0.0391738 0.00556727 0.028454 0 0 0 0 0 -0.068621 0 0 -0.0533498 0 0 0 0.00803795 
112 1 1 -0.0205863 0.00564464 0.029002 0 0 0 0 0 -0.068621 0 0 -0.0533498 0 0 0 0.00803795 
300 1 1 -0.040958 0.0191512 0.0361995 0 0 0 0 0 -0.068621 0 0 -0.0130249 0 0 0 0.00502372 
320 1 1 -0.00684117 0.0205016 0.0304679 0 0 0 0 0 -0.068621 0 0 -0.0130249 0 0 0 0.00502372 
108 1 1 0.0154354 0.0221438 0.0301526 0 0 0 0 0 -0.068621 0 0 -0.0533498 0 0 0 0.00803795 
284 1 1 0.028257 0.0149266 0.0311712 0 0 0 0 0 -0.068621 0 0 -0.0130249 0 0 0 0.00502372 
305 1 1 -0.0432541 0.0290219 0.0320179 0 0 0 0 0 -0.068621 0 0 -0.0130249 0 0 0 0.00502372 
23 1 1 -0.029349 0.031015 0.0292515 0 0 0 0 0 -0.068621 0 0 -0.0533498 0 0 0 0.00803795 
331 1 1 -0.0420922 -0.0428226 0.0446984 0 0 0 0 0 -0.068621 0 0 -0.0130249 0 0 0 0.00502372 
225 1 1 0.00206793 -0.0443639 0.0374665 0 0 0 0 0 -0.068621 0 0 -0.0130249 0 0 0 0.00502372 
242 1 1 0.00882703 -0.0440483 0.0450867 0 0 0 0 0 -0.068621 0 0 -0.0130249 0 0 0 0.00502372 
42 1 1 -0.012134 -0.035903 0.0413899 0 0 0 0 0 -0.068621 0 0 -0.0533498 0 0 0 0.00803795 
167 1 1 0.0223335 -0.040431 0.0394851 0 0 0 0 0 -0.068621 0 0 -0.0130249 0 0 0 0.00502372 
136 1 1 0.040231 -0.0368016 0.0391259 0 0 0 0 0 -0.068621 0 0 -0.0130249 0 0 0 0.00502372 
128 1 1 -0.0446972 -0.0250028 0.0404635 0 0 0 0 0 -0.068621 0 0 -0.0130249 0 0 0 0.00502372 
93 1 1 -0.0301495 -0.0234678 0.0408397 0 0 0 0 0 -0.068621 0 0 -0.0533498 0 0 0 0.00803795 
191 1 1 0.00787612 -0.0261212 0.045739 0 0 0 0 0 -0.068621 0 0 -0.0130249 0 0 0 0.00502372 
178 1 1 -0.0116213 -0.019767 0.0382137 0 0 0 0 0 -0.068621 0 0 -0.0130249 0 0 0 0.00502372 
258 1 1 -0.00336813 -0.0192387 0.0450604 0 0 0 0.00129254 -0.00283219 -0.0704422 0.00191805 -0.0042028 -0.0157275 -1.72588e-15 -8.03696e-16 2.49567e-17 0.00502372 
336 1 1 -0.0183143 -0.00775994 0.0428032 0 0 0 0 0 -0.068621 0 0 -0.0130249 0 0 0 0.00502372 
245 1 1 0.00494971 -0.0102947 0.0397003 0 0 0 0 0 -0.068621 0 0 -0.0130249 0 0 0 0.00502372 
318 1 1 0.0427324 0.00340808 0.0442229 0 0 0 0 0 -0.068621 0 0 -0.0130249 0 0 0 0.00502372 
100 1 1 0.00889555 0.0074955 0.0400037 0 0 0 0 0 -0.068621 0 0 -0.0533498 0 0 0 0.00803795 
95 1 1 0.0279053 0.00489548 0.0423208 0 0 0 0 0 -0.068621 0 0 -0.0533498 0 0 0 0.00803795 
2 1 1 -0.0301948 0.0152128 0.0465593 0 0 0 0 0 -0.068621 0 0 -0.0533498 0 0 0 0.00803795 
73 1 1 0.000965103 0.0204903 0.0466254 0 0 0 0 0 -0.068621 0 0 -0.0533498 0 0 0 0.00803795 
58 1 1 0.0404484 0.0169499 0.0399472 0 0 0 0 0 -0.068621 0 0 -0.0533498 0 0 0 0.00803795 
69 1 1 -0.0129094 0.0313545 0.0378934 0 0 0 0 0 -0.068621 0 0 -0.0533498 0 0 0 0.00803795 
47 1 1 0.0213025 0.0313786 0.0446018 0 0 0 0 0 -0.068621 0 0 -0.0533498 0 0 0 0.00803795 
114 1 1 0.0363322 0.0356563 0.0377924 0 0 0 0 0 -0.068621 0 0 -0.0533498 0 0 0 0.00803795 
323 1 1 -0.0165976 0.0442779 0.0428868 0 0 0 0 0 -0.068621 0 0 -0.0130249 0 0 0 0.00502372 
237 1 1 -0.00192521 0.0429747 0.039136 0 0 0 0 0 -0.068621 0 0 -0.0130249 0 0 0 0.00502372 
256 1 1 -0.0288237 -0.0392525 0.0503155 0 0 0 0 0 -0.068621 0 0 -0.0130249 0 0 0 0.00502372 
168 1 1 -0.00297731 -0.0397283 0.054007 0 0 0 0 0 -0.068621 0 0 -0.0130249 0 0 0 0.00502372 
3 1 1 0.0203703 -0.0371817 0.0549835 0 0 0 0 0 -0.068621 0 0 -0.0533498 0 0 0 0.00803795 
329 1 1 -0.0232421 -0.0304347 0.0502814 0 0 0 0 0 -0.068621 0 0 -0.0130249 0 0 0 0.00502372 
105 1 1 0.0347458 -0.026835 0.0508507 0 0 0 0 0 -0.068621 0 0 -0.0533498 0 0 0 0.00803795 
66 1 1 -0.0415789 -0.0157681 0.0540745 0 0 0 0 0 -0.068621 0 0 -0.0533498 0 0 0 0.00803795 
24 1 1 -0.00804496 -0.00899086 0.0516503 0 0 0 -0.000315561 0.000691452 -0.0681763 -0.00191805 0.0042028 -0.0506472 -2.63433e-16 -1.22675e-16 3.81014e-18 0.00803795 
259 1 1 0.0299512 -0.0104967 0.0483556 0 0 0 0 0 -0.068621 0 0 -0.0130249 0 0 0 0.00502372 
107 1 1 -0.0399833 1.677e-05 0.0475395 0 0 0 0 0 -0.068621 0 0 -0.0533498 0 0 0 0.00803795 
133 1 1 -0.0248112 -0.00222023 0.0516665 0 0 0 0 0 -0.068621 0 0 -0.0130249 0 0 0 0.00502372 
4 1 1 -0.0113994 0.0100841 0.0505595 0 0 0 0 0 -0.068621 0 0 -0.0533498 0 0 0 0.00803795 
298 1 1 0.0362654 0.0125535 0.0553586 0 0 0 0 0 -0.068621 0 0 -0.0130249 0 0 0 0.00502372 
246 1 1 -0.0415527 0.0238641 0.0517959 0 0 0 0 0 -0.068621 0 0 -0.0130249 0 0 0 0.00502372 
192 1 1 -0.0230245 0.0268449 0.046955 0 0 0 0 0 -0.068621 0 0 -0.0130249 0 0 0 0.00502372 
292 1 1 -0.0145814 0.031016 0.0527165 0 0 0 0 0 -0.068621 0 0 -0.0130249 0 0 0 0.00502372 
106 1 1 0.0363139 0.028523 0.0527396 0 0 0 0 0 -0.068621 0 0 -0.0533498 0 0 0 0.00803795 
9 1 1 -0.0337218 0.0378404 0.0508692 0 0 0 0 0 -0.068621 0 0 -0.0533498 0 0 0 0.00803795 
248 1 1 0.00409611 0.0433263 0.0528607 0 0 0 0 0 -0.068621 0 0 -0.0130249 0 0 0 0.00502372 
229 1 1 0.0170728 0.0425053 0.0549906 0 0 0 0 0 -0.068621 0 0 -0.0130249 0 0 0 0.00502372 
203 1 1 0.0430085 0.0441891 0.0548477 0 0 0 0 0 -0.068621 0 0 -0.0130249 0 0 0 0.00502372 
224 1 1 -0.0366537 -0.0379548 0.0649632 0 0 0 0 0 -0.068621 0 0 -0.0130249 0 0 0 0.00502372 
314 1 1 -0.0161265 -0.0377647 0.0565502 0 0 0 0 0 -0.068621 0 0 -0.0130249 0 0 0 0.00502372 
125 1 1 0.0354829 -0.0395199 0.0576863 0 0 0 0 0 -0.068621 0 0 -0.0130249 0 0 0 0.00502372 
211 1 1 -0.0421804 -0.0254125 0.0638917 0 0 0 0 0 -0.068621 0 0 -0.0130249 0 0 0 0.00502372 
43 1 1 -0.000471605 -0.0262576 0.0574948 0 0 0 0 0 -0.068621 0 0 -0.0533498 0 0 0 0.00803795 
81 1 1 -0.0205639 -0.0172316 0.0579832 0 0 0 0 0 -0.068621 0 0 -0.0533498 0 0 0 0.00803795 
52 1 1 0.0154032 -0.0180526 0.0599487 0 0 0 0 0 -0.068621 0 0 -0.0533498 0 0 0 0.00803795 
332 1 1 0.0295284 -0.0161129 0.0606954 0 0 0 0 0 -0.068621 0 0 -0.0130249 0 0 0 0.00502372 
5 1 1 0.041256 -0.0101152 0.0649943 0 0 0 0 0 -0.068621 0 0 -0.0533498 0 0 0 0.00803795 
10 1 1 0.011638 -0.000482538 0.0597394 0 0 0 0 0 -0.068621 0 0 -0.0533498 0 0 0 0.00803795 
303 1 1 0.0311837 0.00396808 0.0619662 0 0 0 0 0 -0.068621 0 0 -0.0130249 0 0 0 0.00502372 
208 1 1 -0.0396315 0.0127143 0.0587765 0 0 0 0 0 -0.068621 0 0 -0.0130249 0 0 0 0.00502372 
236 1 1 -0.0181655 0.0106674 0.0634682 0 0 0 -0.00527879 -0.000251633 -0.0752433 -0.00123099 -5.86797e-05 -0.0145692 1.48594e-16 9.35681e-15 -4.73981e-16 0.00502372 
115 1 1 0.00313641 0.0135831 0.0618409 0 0 0 0 0 -0.068621 0 0 -0.0533498 0 0 0 0.00803795 
282 1 1 -0.0248218 0.0191938 0.0591383 0 0 0 0 0 -0.068621 0 0 -0.0130249 0 0 0 0.00502372 
15 1 1 0.0192726 0.0149695 0.0623371 0 0 0 0 0 -0.068621 0 0 -0.0533498 0 0 0 0.00803795 
262 1 1 -0.0254579 0.0291419 0.0567492 0 0 0 0 0 -0.068621 0 0 -0.0130249 0 0 0 0.00502372 
99 1 1 -0.000450282 0.0321111 0.0607428 0 0 0 0 0 -0.068621 0 0 -0.0533498 0 0 0 0.00803795 
327 1 1 -0.0379102 0.0440646 0.0647776 0 0 0 0 0 -0.068621 0 0 -0.0130249 0 0 0 0.00502372 
126 1 1 -0.0148126 0.0439456 0.0648156 0 0 0 0 0 -0.068621 0 0 -0.0130249 0 0 0 0.00502372 
6 1 1 -0.0215944 -0.0377404 0.0696085 0 0 0 0 0 -0.068621 0 0 -0.0533498 0 0 0 0.00803795 
283 1 1 0.0344894 -0.0364612 0.0686784 0 0 0 0 0 -0.068621 0 0 -0.0130249 0 0 0 0.00502372 
307 1 1 -0.0128294 -0.0242639 0.0708068 0 0 0 0 0 -0.068621 0 0 -0.0130249 0 0 0 0.00502372 
337 1 1 -0.00601722 -0.0314455 0.0681228 0 0 0 0 0 -0.068621 0 0 -0.0130249 0 0 0 0.00502372 
91 1 1 0.0238395 -0.0295294 0.0740591 0 0 0 0 0 -0.068621 0 0 -0.0533498 0 0 0 0.00803795 
326 1 1 0.0428617 -0.0238533 0.0715339 0 0 0 0 0 -0.068621 0 0 -0.0130249 0 0 0 0.00502372 
36 1 1 -0.0381517 -0.0154818 0.0716755 0 0 0 0 0 -0.068621 0 0 -0.0533498 0 0 0 0.00803795 
26 1 1 -6.62862e-05 -0.0140715 0.0743721 0 0 0 0 0 -0.068621 0 0 -0.0533498 0 0 0 0.00803795 
215 1 1 0.0295226 -0.0144583 0.0746573 0 0 0 0 0 -0.068621 0 0 -0.0130249 0 0 0 0.00502372 
182 1 1 -0.0245857 -0.011775 0.071538 0 0 0 0 0 -0.068621 0 0 -0.0130249 0 0 0 0.00502372 
197 1 1 -0.0154165 -0.00546226 0.0685726 0 0 0 0 0 -0.068621 0 0 -0.0130249 0 0 0 0.00502372 
240 1 1 0.0235615 -0.00132712 0.067322 0 0 0 0 0 -0.068621 0 0 -0.0130249 0 0 0 0.00502372 
32 1 1 -0.0357228 0.00649715 0.0710776 0 0 0 0 0 -0.068621 0 0 -0.0533498 0 0 0 0.00803795 
57 1 1 -0.0100351 0.011055 0.073668 0 0 0 0.00128877 6.14339e-05 -0.0670042 0.00123099 5.86797e-05 -0.0518055 2.26941e-17 1.4282e-15 -7.23576e-17 0.00803795 
291 1 1 0.0418759 0.00849624 0.0691855 0 0 0 0 0 -0.068621 0 0 -0.0130249 0 0 0 0.00502372 
199 1 1 -0.0443433 0.0219429 0.0657419 0 0 0 0 0 -0.068621 0 0 -0.0130249 0 0 0 0.00502372 
335 1 1 -0.0280227 0.0221394 0.0710663 0 0 0 0 0 -0.068621 0 0 -0.0130249 0 0 0 0.00502372 
117 1 1 -0.0105713 0.0275123 0.0738376 0 0 0 0 0 -0.068621 0 0 -0.0533498 0 0 0 0.00803795 
127 1 1 0.0360342 0.02656 0.0668572 0 0 0 0 0 -0.068621 0 0 -0.0130249 0 0 0 0.00502372 
122 1 1 -0.0249159 0.0388111 0.0721454 0 0 0 0 0 -0.068621 0 0 -0.0533498 0 0 0 0.00803795 
315 1 1 -0.000253583 0.0380258 0.0739184 0 0 0 0 0 -0.068621 0 0 -0.0130249 0 0 0 0.00502372 
76 1 1 0.0313465 0.0404174 0.0674078 0 0 0 0 0 -0.068621 0 0 -0.0533498 0 0 0 0.00803795 
158 1 1 0.00652377 0.0449512 0.0667744 0 0 0 0 0 -0.068621 0 0 -0.0130249 0 0 0 0.00502372 
84 1 1 -0.0382957 -0.0356933 0.0781501 0 0 0 0 0 -0.068621 0 0 -0.0533498 0 0 0 0.00803795 
56 1 1 0.00625104 -0.0388468 0.0763721 0 0 0 0 0 -0.068621 0 0 -0.0533498 0 0 0 0.00803795 
49 1 1 0.0375297 -0.0383468 0.0830446 0 0 0 0 0 -0.068621 0 0 -0.0533498 0 0 0 0.00803795 
75 1 1 -0.0262822 -0.0253701 0.0818894 0 0 0 0 0 -0.068621 0 0 -0.0533498 0 0 0 0.00803795 
137 1 1 -0.00363123 -0.0300467 0.083448 0 0 0 0 0 -0.068621 0 0 -0.0130249 0 0 0 0.00502372 
204 1 1 -0.0107942 -0.0174805 0.0822537 0 0 0 0 0 -0.068621 0 0 -0.0130249 0 0 0 0.00502372 
217 1 1 0.0395898 -0.0137441 0.0787588 0 0 0 0 0 -0.068621 0 0 -0.0130249 0 0 0 0.00502372 
145 1 1 -0.0307201 -0.0128574 0.0834345 0 0 0 0 0 -0.068621 0 0 -0.0130249 0 0 0 0.00502372 
276 1 1 0.014428 -0.00937105 0.075804 0 0 0 0 0 -0.068621 0 0 -0.0130249 0 0 0 0.00502372 
220 1 1 -0.0374843 0.00171989 0.0840292 0 0 0 0 0 -0.068621 0 0 -0.0130249 0 0 0 0.00502372 
53 1 1 -0.0210984 -0.00118973 0.0811701 0 0 0 0 0 -0.068621 0 0 -0.0533498 0 0 0 0.00803795 
87 1 1 0.0348247 -0.00164207 0.0772407 0 0 0 0 0 -0.068621 0 0 -0.0533498 0 0 0 0.00803795 
233 1 1 0.00274366 0.0126495 0.0758527 0 0 0 0 0 -0.068621 0 0 -0.0130249 0 0 0 0.00502372 
45 1 1 0.0314343 0.0166123 0.0789245 0 0 0 0 0 -0.068621 0 0 -0.0533498 0 0 0 0.00803795 
338 1 1 0.0445718 0.0180464 0.0838707 0 0 0 0 0 -0.068621 0 0 -0.0130249 0 0 0 0.00502372 
250 1 1 -0.0226139 0.0282147 0.0826682 0 0 0 0 0 -0.068621 0 0 -0.0130249 0 0 0 0.00502372 
140 1 1 0.0108541 0.0242341 0.0793704 0 0 0 0 0 -0.068621 0 0 -0.0130249 0 0 0 0.00502372 
322 1 1 0.0432571 0.0229131 0.0749146 0 0 0 0 0 -0.068621 0 0 -0.0130249 0 0 0 0.00502372 
39 1 1 -0.0393506 0.0352058 0.0800863 0 0 0 0 0 -0.068621 0 0 -0.0533498 0 0 0 0.00803795 
113 1 1 0.0165965 0.0366038 0.0758699 0 0 0 0 0 -0.068621 0 0 -0.0533498 0 0 0 0.00803795 
195 1 1 0.0389143 0.0324035 0.0825416 0 0 0 0 0 -0.068621 0 0 -0.0130249 0 0 0 0.00502372 
124 1 1 0.0420088 0.042441 0.0834049 0 0 0 0 0 -0.068621 0 0 -0.0130249 0 0 0 0.00502372 
79 1 1 -0.0176142 -0.0414344 0.0930932 0 0 0 0 0 -0.068621 0 0 -0.0533498 0 0 0 0.00803795 
190 1 1 0.000515076 -0.0431242 0.0916527 0 0 0 0 0 -0.068621 0 0 -0.0130249 0 0 0 0.00502372 
265 1 1 0.014652 -0.0432494 0.0862378 0 0 0 0 0 -0.068621 0 0 -0.0130249 0 0 0 0.00502372 
189 1 1 0.0228336 -0.0350325 0.0881994 0 0 0 -0.000170734 -0.000218803 -0.0690687 -0.000584035 -0.000748466 -0.0145564 2.15605e-16 -1.5577e-16 -6.0935e-18 0.00502372 
230 1 1 -0.0418354 -0.0281007 0.0932515 0 0 0 0 0 -0.068621 0 0 -0.0130249 0 0 0 0.00502372 
313 1 1 -0.0111159 -0.0253459 0.0912462 0 0 0 0 0 -0.068621 0 0 -0.0130249 0 0 0 0.00502372 
227 1 1 0.0105119 -0.0261492 0.0903385 0 0 0 0 0 -0.068621 0 0 -0.0130249 0 0 0 0.00502372 
147 1 1 -0.039794 -0.0179325 0.086509 0 0 0 0 0 -0.068621 0 0 -0.0130249 0 0 0 0.00502372 
209 1 1 0.0100426 -0.0144994 0.087854 0 0 0 0 0 -0.068621 0 0 -0.0130249 0 0 0 0.00502372 
59 1 1 0.0243699 -0.0153919 0.0884988 0 0 0 0 0 -0.068621 0 0 -0.0533498 0 0 0 0.00803795 
247 1 1 0.0363883 -0.0216333 0.0893159 0 0 0 0 0 -0.068621 0 0 -0.0130249 0 0 0 0.00502372 
295 1 1 -0.00320175 -0.0118873 0.0911985 0 0 0 0 0 -0.068621 0 0 -0.0130249 0 0 0 0.00502372 
148 1 1 0.0440706 -0.00493793 0.0870414 0 0 0 0 0 -0.068621 0 0 -0.0130249 0 0 0 0.00502372 
22 1 1 0.00672359 0.00340981 0.0878224 0 0 0 0 0 -0.068621 0 0 -0.0533498 0 0 0 0.00803795 
312 1 1 -0.0220558 0.00846736 0.0911806 0 0 0 0 0 -0.068621 0 0 -0.0130249 0 0 0 0.00502372 
63 1 1 -0.0344071 0.0201469 0.0879132 0 0 0 0 0 -0.068621 0 0 -0.0533498 0 0 0 0.00803795 
62 1 1 -0.0128982 0.0195936 0.0884834 0 0 0 0 0 -0.068621 0 0 -0.0533498 0 0 0 0.00803795 
263 1 1 0.00682569 0.0193914 0.0906607 0 0 0 0 0 -0.068621 0 0 -0.0130249 0 0 0 0.00502372 
266 1 1 0.0143114 0.026412 0.0890805 0 0 0 0.00101937 -0.000795828 -0.0685687 0.00295123 -0.00230404 -0.0128737 1.16827e-15 1.49531e-15 -1.71802e-17 0.00502372 
198 1 1 -0.0259991 0.0335641 0.0920343 0 0 0 0 0 -0.068621 0 0 -0.0130249 0 0 0 0.00502372 
35 1 1 -0.0126116 0.0370565 0.0869205 0 0 0 0 0 -0.068621 0 0 -0.0533498 0 0 0 0.00803795 
46 1 1 0.00403006 0.0344386 0.0885538 0 0 0 -0.00024887 0.000194294 -0.0686337 -0.00295123 0.00230404 -0.053501 1.78293e-16 2.28203e-16 -2.62235e-18 0.00803795 
154 1 1 0.027479 0.0388057 0.0856578 0 0 0 0 0 -0.068621 0 0 -0.0130249 0 0 0 0.00502372 
174 1 1 -0.0252787 0.0414058 0.0850934 0 0 0 0 0 -0.068621 0 0 -0.0130249 0 0 0 0.00502372 
252 1 1 -0.0341074 -0.0434334 0.0959373 0 0 0 0 0 -0.068621 0 0 -0.0130249 0 0 0 0.00502372 
188 1 1 -0.0266813 -0.0324856 0.0966822 0 0 0 0 0 -0.068621 0 0 -0.0130249 0 0 0 0.00502372 
109 1 1 0.0138074 -0.0384174 0.102613 0 0 0 0 0 -0.068621 0 0 -0.0533498 0 0 0 0.00803795 
165 1 1 0.0362744 -0.0355914 0.0969136 0 0 0 0 0 -0.068621 0 0 -0.0130249 0 0 0 0.00502372 
44 1 1 0.000170875 -0.0281064 0.09924 0 0 0 0 0 -0.068621 0 0 -0.0533498 0 0 0 0.00803795 
143 1 1 0.0260885 -0.0308612 0.0967351 0 0 0 0.000170734 0.000218803 -0.0681732 0.000584035 0.000748466 -0.0114933 2.15605e-16 -1.5577e-16 -6.0935e-18 0.00502372 
285 1 1 -0.0448811 -0.0171348 0.0974273 0 0 0 0 0 -0.068621 0 0 -0.0130249 0 0 0 0.00502372 
170 1 1 0.0286656 -0.0180034 0.100619 0 0 0 0 0 -0.068621 0 0 -0.0130249 0 0 0 0.00502372 
169 1 1 0.0440342 -0.0175274 0.0997577 0 0 0 0 0 -0.068621 0 0 -0.0130249 0 0 0 0.00502372 
196 1 1 -0.0200099 -0.00674635 0.0958077 0 0 0 0 0 -0.068621 0 0 -0.0130249 0 0 0 0.00502372 
223 1 1 -0.0109188 -0.0115954 0.0978721 0 0 0 0 0 -0.068621 0 0 -0.0130249 0 0 0 0.00502372 
185 1 1 0.0138686 -0.0105482 0.098146 0 0 0 0 0 -0.068621 0 0 -0.0130249 0 0 0 0.00502372 
111 1 1 -0.0343607 -0.000968929 0.0975805 0 0 0 0 0 -0.068621 0 0 -0.0533498 0 0 0 0.00803795 
123 1 1 0.0258456 0.00434629 0.0942866 0 0 0 -0.00499623 -0.00278445 -0.0694717 -0.00718669 -0.00400521 -0.0545735 -2.0165e-15 3.63304e-15 -4.83099e-17 0.00803795 
306 1 1 -0.040173 0.012472 0.099279 0 0 0 0 0 -0.068621 0 0 -0.0130249 0 0 0 0.00502372 
333 1 1 -0.00325388 0.0120493 0.0941887 0 0 0 0 0 -0.068621 0 0 -0.0130249 0 0 0 0.00502372 
287 1 1 0.00950234 0.00576649 0.100787 0 0 0 0 0 -0.068621 0 0 -0.0130249 0 0 0 0.00502372 
33 1 1 0.0397173 0.0120771 0.0966486 0 0 0 0.00499623 0.00278445 -0.0677702 0.00718669 0.00400521 -0.0521261 -2.0165e-15 3.63304e-15 -4.83099e-17 0.00803795 
206 1 1 -0.0251312 0.0196475 0.0984755 0 0 0 0 0 -0.068621 0 0 -0.0130249 0 0 0 0.00502372 
280 1 1 -0.0444501 0.0275669 0.10106 0 0 0 0 0 -0.068621 0 0 -0.0130249 0 0 0 0.00502372 
82 1 1 0.0286385 0.0274834 0.0939719 0 0 0 0 0 -0.068621 0 0 -0.0533498 0 0 0 0.00803795 
281 1 1 0.0381233 0.0376639 0.10109 0 0 0 0 0 -0.068621 0 0 -0.0130249 0 0 0 0.00502372 
194 1 1 -0.00746468 0.041091 0.0993158 0 0 0 0 0 -0.068621 0 0 -0.0130249 0 0 0 0.00502372 
163 1 1 -0.0237247 -0.0414279 0.106763 0 0 0 0 0 -0.068621 0 0 -0.0130249 0 0 0 0.00502372 
156 1 1 -0.0433591 -0.0363526 0.106977 0 0 0 0 0 -0.068621 0 0 -0.0130249 0 0 0 0.00502372 
272 1 1 0.030048 -0.0329782 0.106595 0 0 0 -0.00299265 0.00226615 -0.0697972 0.000623276 -0.000471969 -0.0127799 -2.32231e-15 -2.45231e-15 1.18391e-15 0.00502372 
186 1 1 0.0376873 -0.038763 0.109598 0 0 0 0.00299265 -0.00226615 -0.0674447 -0.000623276 0.000471969 -0.0132698 -2.32231e-15 -2.45231e-15 1.18391e-15 0.00502372 
41 1 1 -0.0184639 -0.0235902 0.104888 0 0 0 0 0 -0.068621 0 0 -0.0533498 0 0 0 0.00803795 
205 1 1 0.0119519 -0.0250776 0.104881 0 0 0 0 0 -0.068621 0 0 -0.0130249 0 0 0 0.00502372 
135 1 1 0.021287 -0.0286533 0.110354 0 0 0 0 0 -0.068621 0 0 -0.0130249 0 0 0 0.00502372 
264 1 1 -0.0419652 -0.008614 0.111482 0 0 0 0 0 -0.068621 0 0 -0.0130249 0 0 0 0.00502372 
21 1 1 -0.0201588 -0.00866756 0.111328 0 0 0 0 0 -0.068621 0 0 -0.0533498 0 0 0 0.00803795 
90 1 1 0.000231354 -0.0116308 0.105705 0 0 0 0 0 -0.068621 0 0 -0.0533498 0 0 0 0.00803795 
253 1 1 0.0297251 -0.00994694 0.107415 0 0 0 0 0 -0.068621 0 0 -0.0130249 0 0 0 0.00502372 
325 1 1 0.0422676 -0.00782889 0.104478 0 0 0 0 0 -0.068621 0 0 -0.0130249 0 0 0 0.00502372 
238 1 1 -0.000690146 0.000715388 0.110046 0 0 0 0 0 -0.068621 0 0 -0.0130249 0 0 0 0.00502372 
89 1 1 -0.0378706 0.00959867 0.112036 0 0 0 0 0 -0.068621 0 0 -0.0533498 0 0 0 0.00803795 
153 1 1 -0.0246441 0.00580828 0.104293 0 0 0 0 0 -0.068621 0 0 -0.0130249 0 0 0 0.00502372 
37 1 1 0.039228 0.00532663 0.111734 0 0 0 0 0 -0.068621 0 0 -0.0533498 0 0 0 0.00803795 
138 1 1 -0.0214365 0.0175001 0.111723 0 0 0 0 0 -0.068621 0 0 -0.0130249 0 0 0 0.00502372 
27 1 1 0.00953859 0.0150368 0.110306 0 0 0 0 0 -0.068621 0 0 -0.0533498 0 0 0 0.00803795 
270 1 1 -0.033568 0.0228847 0.10989 0 0 0 0 0 -0.068621 0 0 -0.0130249 0 0 0 0.00502372 
68 1 1 -0.0169434 0.0321367 0.106826 0 0 0 0 0 -0.068621 0 0 -0.0533498 0 0 0 0.00803795 
151 1 1 0.00156082 0.0326604 0.111004 0 0 0 0 0 -0.068621 0 0 -0.0130249 0 0 0 0.00502372 
12 1 1 0.0162332 0.0319286 0.110641 0 0 0 0 0 -0.068621 0 0 -0.0533498 0 0 0 0.00803795 
64 1 1 -0.0335074 0.0419242 0.104024 0 0 0 0 0 -0.068621 0 0 -0.0533498 0 0 0 0.00803795 
308 1 1 0.00373908 0.0427277 0.111353 0 0 0 0 0 -0.068621 0 0 -0.0130249 0 0 0 0.00502372 
302 1 1 0.0253015 0.0426858 0.105547 0 0 0 0 0 -0.068621 0 0 -0.0130249 0 0 0 0.00502372 
85 1 1 -0.033435 -0.0414988 0.118817 0 0 0 0 0 -0.068621 0 0 -0.0533498 0 0 0 0.00803795 
172 1 1 -0.00256696 -0.0428257 0.117066 0 0 0 0 0 -0.068621 0 0 -0.0130249 0 0 0 0.00502372 
213 1 1 0.0188587 -0.0424271 0.117278 0 0 0 0 0 -0.068621 0 0 -0.0130249 0 0 0 0.00502372 
226 1 1 0.0447704 -0.0435931 0.121359 0 0 0 0 0 -0.068621 0 0 -0.0130249 0 0 0 0.00502372 
212 1 1 -0.0112176 -0.0345138 0.113605 0 0 0 0 0 -0.068621 0 0 -0.0130249 0 0 0 0.00502372 
48 1 1 -0.0341121 -0.0228758 0.114729 0 0 0 0 0 -0.068621 0 0 -0.0533498 0 0 0 0.00803795 
235 1 1 -0.00167923 -0.0228936 0.11492 0 0 0 0 0 -0.068621 0 0 -0.0130249 0 0 0 0.00502372 
88 1 1 0.00755449 -0.0317052 0.119629 0 0 0 0 0 -0.068621 0 0 -0.0533498 0 0 0 0.00803795 
34 1 1 0.0407376 -0.0227746 0.115128 0 0 0 0 0 -0.068621 0 0 -0.0533498 0 0 0 0.00803795 
218 1 1 -0.0429649 -0.0114696 0.121144 0 0 0 0 0 -0.068621 0 0 -0.0130249 0 0 0 0.00502372 
29 1 1 0.0191169 -0.00148596 0.112947 0 0 0 0 0 -0.068621 0 0 -0.0533498 0 0 0 0.00803795 
70 1 1 -0.00755569 0.0114373 0.114776 0 0 0 0 0 -0.068621 0 0 -0.0533498 0 0 0 0.00803795 
166 1 1 0.0220212 0.0100631 0.121616 0 0 0 0 0 -0.068621 0 0 -0.0130249 0 0 0 0.00502372 
118 1 1 0.0329998 0.0279305 0.116382 0 0 0 0 0 -0.068621 0 0 -0.0533498 0 0 0 0.00803795 
241 1 1 -0.0406478 0.0329759 0.113173 0 0 0 0 0 -0.068621 0 0 -0.0130249 0 0 0 0.00502372 
216 1 1 0.0363801 0.0411094 0.114185 0 0 0 0 0 -0.068621 0 0 -0.0130249 0 0 0 0.00502372 
277 1 1 -0.0032809 -0.0420578 0.127759 0 0 0 0 0 -0.068621 0 0 -0.0130249 0 0 0 0.00502372 
251 1 1 0.0113559 -0.0419209 0.128683 0 0 0 0 0 -0.068621 0 0 -0.0130249 0 0 0 0.00502372 
234 1 1 -0.0417821 -0.0323476 0.124412 0 0 0 0 0 -0.068621 0 0 -0.0130249 0 0 0 0.00502372 
72 1 1 -0.0182864 -0.0400467 0.1269 0 0 0 0 0 -0.068621 0 0 -0.0533498 0 0 0 0.00803795 
221 1 1 0.019597 -0.0333351 0.129957 0 0 0 0 0 -0.068621 0 0 -0.0130249 0 0 0 0.00502372 
13 1 1 0.0326924 -0.0381369 0.124514 0 0 0 0 0 -0.068621 0 0 -0.0533498 0 0 0 0.00803795 
317 1 1 -0.00269714 -0.0307945 0.130951 0 0 0 0 0 -0.068621 0 0 -0.0130249 0 0 0 0.00502372 
86 1 1 -0.0143941 -0.0213819 0.126594 0 0 0 0 0 -0.068621 0 0 -0.0533498 0 0 0 0.00803795 
119 1 1 0.024227 -0.0164257 0.125268 0 0 0 0 0 -0.068621 0 0 -0.0533498 0 0 0 0.00803795 
228 1 1 0.0421657 -0.0213937 0.129943 0 0 0 0 0 -0.068621 0 0 -0.0130249 0 0 0 0.00502372 
8 1 1 0.00333723 -0.0112255 0.124576 0 0 0 0 0 -0.068621 0 0 -0.0533498 0 0 0 0.00803795 
293 1 1 0.0438862 -0.00462704 0.124673 0 0 0 0 0 -0.068621 0 0 -0.0130249 0 0 0 0.00502372 
14 1 1 -0.028143 0.000358946 0.123964 0 0 0 0 0 -0.068621 0 0 -0.0533498 0 0 0 0.00803795 
254 1 1 -0.0102221 -0.00250883 0.126011 0 0 0 0 0 -0.068621 0 0 -0.0130249 0 0 0 0.00502372 
159 1 1 0.0075506 0.00296492 0.12183 0 0 0 0 0 -0.068621 0 0 -0.0130249 0 0 0 0.00502372 
11 1 1 -0.0175455 0.0119971 0.128382 0 0 0 0 0 -0.068621 0 0 -0.0533498 0 0 0 0.00803795 
304 1 1 -0.0447004 0.0196663 0.121682 0 0 0 0 0 -0.068621 0 0 -0.0130249 0 0 0 0.00502372 
101 1 1 -0.0322411 0.0244323 0.124744 0 0 0 0 0 -0.068621 0 0 -0.0533498 0 0 0 0.00803795 
20 1 1 -0.00594818 0.0289304 0.123631 0 0 0 0 0 -0.068621 0 0 -0.0533498 0 0 0 0.00803795 
193 1 1 0.00834952 0.0303168 0.126897 0 0 0 0 0 -0.068621 0 0 -0.0130249 0 0 0 0.00502372 
141 1 1 0.0442093 0.0260507 0.125198 0 0 0 0 0 -0.068621 0 0 -0.0130249 0 0 0 0.00502372 
311 1 1 -0.0422837 0.0378434 0.126156 0 0 0 0 0 -0.068621 0 0 -0.0130249 0 0 0 0.00502372 
80 1 1 -0.0190435 0.0365763 0.130322 0 0 0 0 0 -0.068621 0 0 -0.0533498 0 0 0 0.00803795 
152 1 1 -0.00641736 0.04349 0.129771 0 0 0 0 0 -0.068621 0 0 -0.0130249 0 0 0 0.00502372 
132 1 1 0.0296034 0.0447215 0.125046 0 0 0 0 0 -0.068621 0 0 -0.0130249 0 0 0 0.00502372 
334 1 1 0.0404499 0.0413478 0.123798 0 0 0 0 0 -0.068621 0 0 -0.0130249 0 0 0 0.00502372 
214 1 1 -0.000228697 -0.0437174 0.137629 0 0 0 0 0 -0.068621 0 0 -0.0130249 0 0 0 0.00502372 
71 1 1 -0.0378852 -0.0366369 0.140008 0 0 0 0 0 -0.068621 0 0 -0.0533498 0 0 0 0.00803795 
210 1 1 0.0278375 -0.035459 0.136767 0 0 0 0 0 -0.068621 0 0 -0.0130249 0 0 0 0.00502372 
150 1 1 -0.0155847 -0.0312464 0.136276 0 0 0 0 0 -0.068621 0 0 -0.0130249 0 0 0 0.00502372 
31 1 1 -0.0333266 -0.019549 0.134402 0 0 0 0 0 -0.068621 0 0 -0.0533498 0 0 0 0.00803795 
244 1 1 -0.00304163 -0.0206736 0.133748 0 0 0 0 0 -0.068621 0 0 -0.0130249 0 0 0 0.00502372 
110 1 1 -0.0168328 -0.00813092 0.14015 0 0 0 0 0 -0.068621 0 0 -0.0533498 0 0 0 0.00803795 
65 1 1 0.0361989 -0.00544176 0.135266 0 0 0 0 0 -0.068621 0 0 -0.0533498 0 0 0 0.00803795 
103 1 1 -0.00293917 0.00135307 0.136267 0 0 0 -1.93813e-06 -6.47996e-06 -0.068622 -4.93199e-05 -0.000164896 -0.0533755 6.275e-17 -1.87688e-17 3.3846e-21 0.00803795 