ITEM: TIMESTEP
67900
ITEM: NUMBER OF ATOMS
338
ITEM: BOX BOUNDS mm mm mm
-0.05 0.05
-0.05 0.05
0 0.15
ITEM: ATOMS id type type x y z ix iy iz vx vy vz fx fy fz omegax omegay omegaz radius 
131 1 1 -0.0257481 -0.0400546 0.00560327 0 0 0 -1.83893e-07 -4.30692e-07 -6.37903e-07 -3.22471e-07 -6.0697e-07 -1.07382e-06 5.78088e-05 6.46009e-07 3.06607e-06 0.00694698 
319 1 1 -0.0146874 -0.0445409 0.00605301 0 0 0 -7.82784e-08 -2.15097e-07 -4.05729e-07 -1.44505e-07 -3.09177e-07 -7.19762e-07 -4.5146e-06 -2.9913e-05 2.07021e-05 0.00694698 
243 1 1 -0.00279117 -0.043873 0.0061044 0 0 0 5.56347e-08 -1.2909e-07 -3.31238e-07 1.09474e-07 -1.62262e-07 -5.89315e-07 -2.50105e-05 4.1578e-05 -2.66576e-05 0.00694698 
260 1 1 0.0252546 -0.0438307 0.0059405 0 0 0 8.72226e-08 -2.1406e-07 -4.19339e-07 2.32818e-07 -3.89998e-07 -8.96033e-07 -2.61882e-05 -3.45299e-06 -6.61794e-06 0.00694698 
78 1 1 0.0413085 -0.0407811 0.00927582 0 0 0 5.08358e-08 -1.41755e-07 -3.08842e-07 8.33487e-07 -1.38942e-06 -3.00761e-06 -1.31575e-05 -2.00209e-05 8.91966e-06 0.0111152 
74 1 1 -0.040828 -0.0367696 0.0095971 0 0 0 -2.51147e-07 -3.16936e-07 -3.66124e-07 -1.64553e-06 -1.98382e-06 -2.66256e-06 3.47528e-06 3.88348e-06 -8.57463e-06 0.0111152 
296 1 1 -0.0274829 -0.0274567 0.0061219 0 0 0 -2.47792e-07 -4.21177e-07 -6.25289e-07 -4.50271e-07 -5.61398e-07 -1.10557e-06 3.21682e-05 2.26811e-05 -1.0799e-05 0.00694698 
173 1 1 -0.0155729 -0.0319598 0.0055745 0 0 0 -1.94549e-07 -3.80847e-07 -8.05018e-07 -3.23434e-07 -5.0891e-07 -1.41545e-06 -1.76186e-06 -2.26317e-05 8.0748e-06 0.00694698 
275 1 1 -0.0035902 -0.0297747 0.00572448 0 0 0 -1.31667e-07 -4.5833e-07 -7.81202e-07 -1.31247e-07 -6.60907e-07 -1.44278e-06 2.98144e-06 4.14762e-06 1.76799e-06 0.00694698 
60 1 1 0.0105837 -0.0360376 0.00947776 0 0 0 4.9353e-08 -3.60857e-07 -9.38735e-07 1.06112e-06 -1.95054e-06 -7.73012e-06 -3.79929e-06 -9.57218e-06 1.49536e-05 0.0111152 
102 1 1 -0.0405428 -0.0169477 0.00905849 0 0 0 -1.90277e-07 -3.71845e-07 -2.26631e-07 -1.39447e-06 -2.26018e-06 -1.94615e-06 3.21675e-05 -1.77716e-05 -1.66088e-05 0.0111152 
328 1 1 -0.0254333 -0.01519 0.00543683 0 0 0 -2.17e-07 -4.15877e-07 -2.67632e-07 -3.72228e-07 -5.03817e-07 -4.76181e-07 5.4411e-05 4.49502e-05 1.19992e-05 0.00694698 
40 1 1 -0.0106765 -0.0158183 0.0106462 0 0 0 -2.04503e-07 -5.18919e-07 -1.32516e-06 -5.13742e-07 -2.29867e-06 -1.13366e-05 -6.77292e-06 2.1817e-05 -1.10843e-05 0.0111152 
279 1 1 0.00440774 -0.0207351 0.0109054 0 0 0 -1.69815e-07 -5.96639e-07 -1.72889e-06 -4.57347e-08 -7.24598e-07 -3.54468e-06 -8.71149e-05 1.12157e-05 1.01497e-05 0.00694698 
267 1 1 0.0155005 -0.0199621 0.00561744 0 0 0 2.10664e-08 -4.62562e-07 -1.1522e-06 2.47466e-07 -7.09951e-07 -2.31486e-06 -1.87005e-06 -1.62826e-05 9.4462e-06 0.00694698 
144 1 1 0.0430495 -0.0248667 0.00596799 0 0 0 -1.42605e-08 -1.61725e-07 -4.19836e-07 7.98706e-08 -3.32154e-07 -9.67746e-07 1.24711e-05 -5.07915e-05 2.69862e-05 0.00694698 
202 1 1 0.0452017 -0.0129601 0.00612949 0 0 0 2.04014e-08 -1.30027e-07 -2.65704e-07 1.28988e-07 -2.58855e-07 -6.81568e-07 1.84524e-05 -3.22846e-05 -1.42988e-05 0.00694698 
257 1 1 -0.0442073 -0.00104702 0.00624945 0 0 0 4.37054e-09 -1.26469e-10 -2.51162e-07 1.66793e-08 1.93023e-08 -4.00561e-07 -3.97847e-05 5.21631e-05 4.22509e-06 0.00694698 
274 1 1 -0.0220225 -0.0037788 0.00775194 0 0 0 -2.3136e-07 -3.89294e-07 -1.49556e-06 -2.0048e-07 -2.84481e-07 -2.63852e-06 -0.000201 0.000155729 -6.55882e-06 0.00694698 
50 1 1 0.0305736 -0.00918801 0.00973543 0 0 0 1.97628e-08 -2.49815e-07 -8.59387e-07 1.24883e-06 -1.11467e-06 -7.74065e-06 3.70305e-05 -2.00363e-05 1.77403e-05 0.0111152 
232 1 1 -0.0434387 0.0118756 0.00626166 0 0 0 -1.70828e-07 1.14606e-07 -5.52256e-07 -2.32078e-07 2.41868e-07 -8.78589e-07 -1.60155e-05 1.49505e-05 3.34174e-05 0.00694698 
268 1 1 -0.0326769 0.00368232 0.00609412 0 0 0 -2.18652e-07 -1.1667e-07 -1.41219e-06 -2.90011e-07 1.08026e-08 -2.25425e-06 -3.22323e-05 1.66725e-05 -4.65576e-05 0.00694698 
171 1 1 -0.021197 0.00798668 0.00823471 0 0 0 -5.28506e-07 -3.54307e-07 -2.61881e-06 -7.90743e-07 -1.02022e-07 -4.23984e-06 2.13774e-05 6.24989e-05 3.91196e-05 0.00694698 
164 1 1 0.0205999 0.00173767 0.00544626 0 0 0 1.544e-08 -2.13196e-07 -8.58644e-07 3.54418e-07 -5.08738e-08 -1.59905e-06 1.86451e-05 -6.5413e-05 1.78934e-05 0.00694698 
297 1 1 -0.0253905 0.019586 0.00549868 0 0 0 -4.81049e-07 -8.87935e-08 -1.74677e-06 -6.63914e-07 2.70165e-07 -2.68976e-06 4.29131e-05 -5.35037e-05 -3.67268e-05 0.00694698 
222 1 1 -0.0108508 0.0145911 0.00545572 0 0 0 -3.85146e-07 -2.27626e-07 -1.81176e-06 -5.74326e-07 9.99585e-09 -3.00126e-06 0.000103708 -9.34787e-05 -4.01473e-05 0.00694698 
290 1 1 -0.000799305 0.0214674 0.00523786 0 0 0 -1.25417e-07 -4.86495e-08 -1.13135e-06 -1.18129e-07 1.77584e-07 -2.17666e-06 3.9566e-05 3.44326e-05 1.78542e-05 0.00694698 
98 1 1 0.0122233 0.0135227 0.00979354 0 0 0 -2.38663e-07 -3.27625e-07 -1.69714e-06 -4.95864e-07 -1.43163e-07 -1.3876e-05 5.07888e-05 -8.57172e-05 -1.1588e-05 0.0111152 
316 1 1 0.0321802 0.019578 0.00502883 0 0 0 -1.36292e-08 -8.82165e-09 -3.32445e-07 1.67929e-08 2.15127e-07 -5.2316e-07 -1.54288e-05 -6.29064e-06 -1.78899e-05 0.00694698 
162 1 1 0.0446349 0.0202023 0.00544624 0 0 0 -3.29557e-08 -8.68393e-08 -3.2128e-07 -4.32067e-08 4.82572e-09 -6.48245e-07 7.09864e-05 -3.3063e-05 2.60671e-06 0.00694698 
294 1 1 -0.0439424 0.0252727 0.0061394 0 0 0 -2.42152e-07 1.9975e-07 -3.24266e-07 -3.99275e-07 4.3226e-07 -5.10774e-07 3.88205e-07 -1.87312e-05 -3.67245e-06 0.00694698 
175 1 1 -0.0327496 0.0313742 0.00614205 0 0 0 -2.55683e-07 5.23984e-07 -5.81724e-07 -4.44826e-07 9.25778e-07 -8.40768e-07 -9.78959e-05 -6.62321e-06 2.66973e-05 0.00694698 
255 1 1 -0.0148477 0.0261367 0.00587598 0 0 0 -2.58852e-07 -1.04412e-07 -1.04562e-06 -3.25999e-07 1.0055e-07 -1.79361e-06 7.96777e-05 -5.89828e-05 -1.23537e-05 0.00694698 
324 1 1 -0.00330542 0.0326855 0.0056693 0 0 0 -5.59165e-08 -2.03604e-07 -3.06387e-07 -5.45952e-08 -2.15537e-07 -5.17764e-07 5.04387e-05 1.46397e-05 -2.66598e-05 0.00694698 
161 1 1 0.00824506 0.0320299 0.00644883 0 0 0 5.53305e-08 -3.03952e-07 -8.65435e-07 2.36728e-07 -2.62008e-07 -1.66424e-06 0.00012094 1.88882e-05 5.07931e-05 0.00694698 
77 1 1 0.0226325 0.0295981 0.012343 0 0 0 -6.23879e-09 8.76499e-08 -1.01525e-06 8.64328e-07 2.81089e-06 -8.65973e-06 -2.79535e-05 -7.77455e-06 1.20837e-05 0.0111152 
155 1 1 0.0376085 0.0311764 0.00564482 0 0 0 2.80329e-08 2.62097e-08 -4.47936e-07 1.88632e-07 2.28653e-07 -9.16529e-07 -2.17256e-05 -2.28339e-05 1.17618e-06 0.00694698 
321 1 1 -0.04402 0.0437755 0.00629381 0 0 0 -1.43895e-07 6.54067e-08 -2.00669e-07 -2.08768e-07 1.42735e-07 -2.88134e-07 1.92111e-05 -5.93311e-06 -1.53526e-05 0.00694698 
207 1 1 -0.0314325 0.0439672 0.00637411 0 0 0 -8.97856e-08 8.3381e-08 -3.30413e-07 -1.00862e-07 2.30141e-07 -5.71438e-07 5.33018e-05 2.7533e-06 -9.23279e-06 0.00694698 
38 1 1 -0.0153313 0.0415941 0.0097906 0 0 0 -4.54023e-08 -4.98946e-08 -2.17972e-07 -1.78599e-07 3.74076e-07 -1.693e-06 1.48381e-05 -1.88426e-05 -1.38807e-05 0.0111152 
149 1 1 0.0120644 0.043872 0.00543326 0 0 0 -1.06202e-07 4.50899e-08 -1.2148e-07 -2.14122e-07 2.00677e-07 -3.06936e-07 -8.28773e-06 4.95827e-07 5.74405e-06 0.00694698 
237 1 1 0.0011871 0.0437539 0.0121483 0 0 0 3.42494e-09 -1.13634e-07 -4.5247e-08 3.52378e-08 -1.25851e-07 -7.0558e-08 2.33628e-06 1.23959e-05 1.66194e-05 0.00694698 
249 1 1 0.0277053 0.0441438 0.00611632 0 0 0 -2.6556e-08 1.36662e-07 -5.12662e-07 5.87013e-08 4.75832e-07 -1.0792e-06 2.87051e-05 -3.25729e-05 7.05409e-06 0.00694698 
289 1 1 0.0443721 0.0422256 0.00592204 0 0 0 9.74432e-09 1.70482e-07 -3.81431e-07 1.24479e-07 4.59595e-07 -8.47681e-07 -3.5695e-05 -3.84818e-05 -1.85014e-05 0.00694698 
331 1 1 -0.0432693 -0.0455642 0.0218634 0 0 0 -1.99145e-07 -2.21634e-07 -2.18331e-07 -2.43387e-07 -3.03517e-07 -3.61504e-07 -2.09172e-05 1.09958e-05 9.59738e-06 0.00694698 
299 1 1 -0.0246085 -0.0451872 0.0168094 0 0 0 -2.09544e-07 -5.81485e-07 -9.94755e-07 -2.89771e-07 -7.54031e-07 -1.57621e-06 -0.000120017 -1.73083e-05 1.87999e-05 0.00694698 
225 1 1 -0.0115498 -0.0442709 0.0185952 0 0 0 -1.59866e-07 -5.71779e-07 -1.13467e-06 -1.85067e-07 -7.88791e-07 -2.1893e-06 -4.60317e-05 1.31097e-05 6.8897e-06 0.00694698 
242 1 1 0.00106186 -0.0446807 0.0196824 0 0 0 -1.28954e-07 -2.81896e-07 -9.94475e-07 -1.38376e-07 -2.82426e-07 -1.95062e-06 -0.000147257 -6.8016e-05 3.15813e-05 0.00694698 
130 1 1 0.0208357 -0.0442058 0.0182027 0 0 0 3.68672e-08 4.23898e-09 -5.01519e-07 2.1264e-07 1.30271e-07 -1.04707e-06 -5.81891e-05 -1.18797e-05 -6.80646e-06 0.00694698 
167 1 1 0.0319451 -0.0442251 0.0228862 0 0 0 1.00998e-07 -1.28064e-07 -5.65667e-07 3.35514e-07 -2.72781e-07 -1.3885e-06 -1.63072e-05 1.25627e-05 -1.36288e-05 0.00694698 
136 1 1 0.0442903 -0.0447089 0.0241887 0 0 0 1.27535e-07 -1.30222e-07 -3.50392e-07 3.31798e-07 -3.22504e-07 -8.22835e-07 -2.66317e-05 -3.7415e-06 -1.15376e-05 0.00694698 
179 1 1 -0.0345746 -0.0262027 0.0213893 0 0 0 -4.74757e-07 -9.93729e-07 -1.02859e-06 -6.61386e-07 -1.35093e-06 -1.71061e-06 3.57937e-05 8.24169e-05 -1.9929e-05 0.00694698 
7 1 1 -0.0200353 -0.030427 0.0211168 0 0 0 -4.9015e-07 -9.25685e-07 -1.93542e-06 -2.44725e-06 -4.49191e-06 -1.42091e-05 2.00309e-05 -1.02067e-05 2.0464e-05 0.0111152 
104 1 1 -0.000112751 -0.0285696 0.0247238 0 0 0 -3.9848e-07 -7.94398e-07 -2.12483e-06 -1.71844e-06 -3.97975e-06 -1.77317e-05 2.18267e-05 -1.91918e-05 -1.89457e-06 0.0111152 
67 1 1 0.0278423 -0.0280453 0.0126282 0 0 0 1.01485e-07 -3.73088e-07 -1.30136e-06 1.68635e-06 -2.50397e-06 -1.18005e-05 -2.24569e-05 -8.17129e-06 -3.85008e-06 0.0111152 
128 1 1 -0.0450313 -0.0217265 0.0238335 0 0 0 -2.99379e-07 -4.18552e-07 -4.16148e-07 -3.67667e-07 -5.07229e-07 -7.19756e-07 4.92775e-05 3.26108e-07 -6.07479e-05 0.00694698 
278 1 1 0.0331688 -0.0161931 0.0241362 0 0 0 1.27526e-07 -5.76948e-07 -1.68775e-06 8.82647e-07 -1.21709e-06 -3.84593e-06 6.72636e-06 -3.23753e-05 -3.56386e-06 0.00694698 
146 1 1 -0.044873 -0.00919979 0.0224711 0 0 0 -3.1766e-07 8.21559e-08 -1.51927e-06 -4.33011e-07 3.40784e-07 -2.49193e-06 -0.000323853 0.000194657 0.000101659 0.00694698 
96 1 1 0.0119172 -0.00721233 0.0161322 0 0 0 -4.57928e-07 -6.58607e-07 -2.31576e-06 -2.16148e-06 -3.14353e-06 -1.85311e-05 1.86307e-05 -8.24847e-05 7.91543e-06 0.0111152 
183 1 1 0.0447601 -0.00703515 0.017542 0 0 0 2.12732e-07 -1.67734e-07 -6.38626e-07 5.96246e-07 -2.26171e-07 -1.56261e-06 -8.38286e-05 -1.70275e-06 -2.81381e-05 0.00694698 
25 1 1 -0.0377541 0.00483183 0.0223891 0 0 0 -1.11002e-06 -4.5473e-07 -3.36886e-06 -6.13437e-06 -6.69312e-07 -2.23602e-05 9.15792e-05 -5.98125e-05 -4.29124e-05 0.0111152 
17 1 1 -0.00526008 0.00256307 0.0144081 0 0 0 -4.55147e-07 -5.55291e-07 -2.90699e-06 -1.66235e-06 -1.99219e-06 -2.25657e-05 -3.89688e-05 4.04374e-05 2.41281e-05 0.0111152 
94 1 1 0.0384742 0.00842693 0.0134968 0 0 0 3.8803e-07 -2.91873e-07 -1.01869e-06 4.66352e-06 -1.77959e-06 -9.1204e-06 1.94404e-05 0.000136719 -2.84578e-05 0.0111152 
300 1 1 -0.0447061 0.0189524 0.017051 0 0 0 -4.39433e-07 7.37306e-08 -1.10895e-06 -6.02378e-07 4.30158e-07 -1.69369e-06 6.00238e-05 7.97811e-05 1.65571e-05 0.00694698 
273 1 1 -0.0327467 0.0189504 0.0155433 0 0 0 -8.30858e-07 2.95863e-08 -2.41337e-06 -1.08203e-06 7.28243e-07 -3.63647e-06 -2.14261e-05 6.99884e-05 6.05502e-06 0.00694698 
28 1 1 -0.0168118 0.0183632 0.0204917 0 0 0 -9.59825e-07 -4.81405e-07 -3.13971e-06 -4.5179e-06 -5.65142e-07 -2.13906e-05 1.31314e-05 -1.23708e-05 -1.50806e-05 0.0111152 
286 1 1 -0.00173314 0.0186073 0.0168811 0 0 0 -6.18043e-07 -5.69031e-07 -2.55619e-06 -7.88476e-07 -5.11715e-07 -4.70737e-06 0.00016525 -5.62183e-05 -3.56993e-05 0.00694698 
305 1 1 -0.0436936 0.0348177 0.0156113 0 0 0 -1.2407e-07 4.27597e-07 -5.70223e-07 -1.89174e-07 7.33712e-07 -7.67369e-07 -4.22967e-05 8.09996e-05 5.43903e-05 0.00694698 
23 1 1 -0.0279413 0.0337349 0.0221096 0 0 0 -4.31988e-07 -2.34491e-07 -1.4134e-06 -2.00342e-06 6.38179e-07 -8.86761e-06 0.000151791 -1.24789e-05 -7.54711e-05 0.0111152 
320 1 1 0.0037966 0.0296091 0.0183791 0 0 0 2.00242e-07 -2.97196e-07 -1.87422e-06 8.58044e-07 -3.24741e-07 -3.25462e-06 -0.000171546 1.5708e-06 -7.01759e-05 0.00694698 
284 1 1 0.0446347 0.0273726 0.015737 0 0 0 -1.12957e-07 2.04151e-07 -3.32622e-07 -1.64907e-07 6.37484e-07 -6.92339e-07 -0.000105659 -3.07973e-05 -4.62913e-05 0.00694698 
239 1 1 0.0187751 0.0448273 0.0154887 0 0 0 2.43218e-07 2.46744e-07 -7.13266e-07 6.01822e-07 6.45757e-07 -1.50854e-06 2.38082e-05 7.84076e-05 -2.71058e-05 0.00694698 
61 1 1 0.037083 0.0409697 0.0204872 0 0 0 1.03278e-07 2.76632e-07 -8.26602e-07 1.75841e-06 3.95915e-06 -7.19472e-06 3.31096e-05 2.06795e-05 4.0879e-06 0.0111152 
224 1 1 -0.0437842 -0.0444768 0.0343523 0 0 0 -1.76118e-07 -2.5195e-08 -2.66992e-07 -2.44684e-07 2.7112e-08 -4.85904e-07 -4.01243e-05 5.14433e-06 3.07628e-05 0.00694698 
256 1 1 -0.0327608 -0.0400947 0.0257176 0 0 0 -1.21145e-07 -4.27961e-07 -1.21037e-06 -4.90766e-08 -3.52985e-07 -1.91907e-06 -3.9745e-05 0.000126675 -1.86442e-05 0.00694698 
42 1 1 -0.0120031 -0.0408869 0.0355063 0 0 0 -4.13088e-07 -1.00367e-06 -2.00768e-06 -1.79036e-06 -6.03036e-06 -1.66146e-05 -6.80588e-05 -1.80653e-05 3.66286e-05 0.0111152 
271 1 1 0.0313717 -0.040779 0.0343154 0 0 0 2.89467e-07 -6.8927e-07 -1.27439e-06 7.94147e-07 -1.38498e-06 -2.94125e-06 1.59404e-05 -1.94532e-06 5.33423e-05 0.00694698 
125 1 1 0.0438559 -0.0440726 0.0371344 0 0 0 -4.12212e-08 5.65702e-09 -4.77388e-07 -4.62537e-08 4.82876e-08 -1.07681e-06 -5.66342e-05 -7.38057e-05 1.23766e-05 0.00694698 
180 1 1 -0.0442349 -0.0338853 0.0265895 0 0 0 -2.87646e-07 -3.11758e-07 -5.05904e-07 -4.03727e-07 -3.91394e-07 -8.93044e-07 -2.46548e-05 1.58575e-05 -4.52097e-06 0.00694698 
120 1 1 0.0409684 -0.0296039 0.0290176 0 0 0 1.78464e-07 -3.01866e-07 -1.09294e-06 2.63881e-06 -2.66323e-06 -1.06691e-05 -7.40781e-06 -5.65419e-05 1.99205e-05 0.0111152 
178 1 1 -0.012639 -0.0206731 0.0321261 0 0 0 -8.22037e-07 -1.0966e-06 -3.11879e-06 -8.88048e-07 -1.23945e-06 -6.07066e-06 6.95509e-05 -1.70904e-05 2.29193e-06 0.00694698 
51 1 1 0.0185589 -0.0226609 0.0301883 0 0 0 -4.97131e-08 -8.77505e-07 -2.6312e-06 1.84585e-06 -5.97653e-06 -2.28529e-05 8.0396e-06 1.23468e-05 3.25002e-05 0.0111152 
134 1 1 0.0440827 -0.0143844 0.0325108 0 0 0 2.68358e-07 -2.19549e-07 -1.06835e-06 8.51991e-07 -4.67906e-07 -2.61113e-06 -1.93185e-05 -6.59411e-05 -3.16285e-05 0.00694698 
19 1 1 -0.0263969 -0.0120069 0.0273708 0 0 0 -1.27763e-06 -1.23008e-06 -3.6454e-06 -7.02972e-06 -5.91518e-06 -2.65982e-05 -0.000178309 9.98028e-05 3.66841e-05 0.0111152 
310 1 1 -0.0104365 -0.00898782 0.0299637 0 0 0 -1.05509e-06 -8.91049e-07 -4.48336e-06 -1.13137e-06 -8.45499e-07 -8.156e-06 -0.000311983 -0.000186577 4.35844e-06 0.00694698 
258 1 1 0.000949952 -0.012339 0.0275496 0 0 0 -7.38143e-07 -1.01012e-06 -2.58518e-06 -7.98999e-07 -1.32992e-06 -4.71922e-06 -4.97987e-05 1.1344e-05 4.12305e-05 0.00694698 
18 1 1 0.0121869 -0.00447301 0.0369605 0 0 0 -1.653e-07 -5.90793e-07 -3.57155e-06 4.14548e-06 -2.3922e-06 -3.00185e-05 -8.24191e-05 7.88458e-05 -3.82093e-06 0.0111152 
184 1 1 0.0277391 -0.00806877 0.0328957 0 0 0 8.72202e-08 -5.87171e-07 -2.97883e-06 1.12611e-06 -9.77493e-07 -6.61733e-06 -5.29778e-05 -0.000112496 1.92123e-05 0.00694698 
112 1 1 -0.0179401 0.0046842 0.0351755 0 0 0 -1.60518e-06 -8.89691e-07 -5.52535e-06 -8.38787e-06 -3.06446e-06 -4.13452e-05 9.69548e-05 4.54691e-05 1.16554e-05 0.0111152 
160 1 1 -0.00258793 0.000661761 0.0310724 0 0 0 -8.69954e-07 -6.94739e-07 -4.17308e-06 -6.03661e-07 -6.43395e-07 -7.56734e-06 3.54677e-05 -0.000201664 -2.82861e-05 0.00694698 
55 1 1 0.0406908 0.00155577 0.0321766 0 0 0 5.60392e-07 -2.44926e-07 -1.62047e-06 7.29099e-06 -1.82519e-06 -1.51473e-05 -1.53766e-05 -0.000112911 -2.71106e-06 0.0111152 
2 1 1 -0.0316934 0.0196551 0.0354848 0 0 0 -1.50277e-06 -9.60493e-07 -3.46239e-06 -8.37673e-06 -4.18636e-06 -2.35269e-05 4.2884e-05 -3.96673e-06 -2.62472e-05 0.0111152 
100 1 1 0.00652128 0.0141766 0.0298281 0 0 0 -4.79376e-07 -8.5714e-07 -4.27171e-06 5.135e-07 -4.24263e-06 -3.45346e-05 -4.75453e-05 3.35925e-05 1.02286e-05 0.0111152 
261 1 1 0.043399 0.0180072 0.0268078 0 0 0 9.12473e-07 -3.50369e-07 -1.35534e-06 2.58256e-06 -7.47249e-07 -3.03327e-06 -2.06143e-05 -0.000109455 3.9754e-05 0.00694698 
246 1 1 -0.0443139 0.0262016 0.0275325 0 0 0 -7.47487e-07 -3.91692e-08 -1.43961e-06 -1.07719e-06 3.02376e-07 -2.2941e-06 5.31691e-05 0.000104792 4.98632e-06 0.00694698 
69 1 1 -0.00686327 0.0298272 0.0340233 0 0 0 -5.972e-07 -4.56565e-07 -4.84238e-06 2.00158e-07 -9.89672e-07 -3.64926e-05 2.9207e-06 -2.67772e-05 -1.90342e-05 0.0111152 
108 1 1 0.0262495 0.0288961 0.0325398 0 0 0 2.38768e-07 4.95552e-08 -2.0888e-06 5.34025e-06 2.44581e-06 -1.86564e-05 7.71326e-05 -7.87071e-06 5.54275e-06 0.0111152 
9 1 1 -0.0407958 0.0418491 0.032558 0 0 0 -1.55038e-07 -2.46294e-07 -5.4133e-07 -7.91043e-07 -9.1971e-07 -3.19865e-06 5.83924e-05 1.41586e-05 -3.44073e-05 0.0111152 
323 1 1 -0.00700761 0.0443556 0.0261317 0 0 0 9.40532e-08 3.74457e-07 -2.6407e-06 6.43875e-07 9.04167e-07 -4.61449e-06 0.000408207 -9.69609e-05 7.1896e-06 0.00694698 
16 1 1 0.0103834 0.0409506 0.0288255 0 0 0 2.00123e-07 1.59709e-07 -1.91783e-06 3.9674e-06 2.39717e-06 -1.44869e-05 0.000108848 -9.32202e-05 1.7618e-05 0.0111152 
329 1 1 -0.0243337 -0.0448883 0.0452014 0 0 0 -4.02261e-07 -7.24174e-07 -1.48103e-06 -4.23534e-07 -9.57192e-07 -2.93816e-06 -0.000164831 2.26775e-05 6.45562e-05 0.00694698 
168 1 1 0.00170639 -0.0450129 0.040199 0 0 0 -4.45616e-08 -2.29738e-07 -1.38204e-06 1.49762e-07 -1.9146e-07 -2.68537e-06 -0.000236151 2.04913e-05 -1.6074e-05 0.00694698 
3 1 1 0.0165061 -0.0408745 0.039313 0 0 0 2.06767e-07 -6.26232e-07 -1.75018e-06 2.94721e-06 -4.694e-06 -1.54541e-05 -0.000131381 -3.79184e-05 -2.05949e-05 0.0111152 
283 1 1 0.0310352 -0.0446314 0.0458371 0 0 0 1.78629e-07 -4.44667e-07 -1.03132e-06 6.77904e-07 -9.51273e-07 -2.51823e-06 -0.000114662 1.53682e-05 -6.24691e-05 0.00694698 
211 1 1 -0.0439276 -0.0331951 0.0391794 0 0 0 -4.92521e-07 -1.86664e-07 -8.47523e-07 -6.23535e-07 -6.46196e-08 -1.59016e-06 -1.02338e-05 3.18608e-05 -1.92669e-05 0.00694698 
93 1 1 -0.0271457 -0.0292817 0.0419053 0 0 0 -7.36523e-07 -1.1756e-06 -2.67178e-06 -3.69918e-06 -6.55394e-06 -2.09262e-05 -4.51228e-06 7.94722e-05 -6.2671e-05 0.0111152 
191 1 1 0.00287896 -0.0323181 0.0407477 0 0 0 -1.91371e-07 -9.63194e-07 -3.12713e-06 1.9464e-07 -1.41132e-06 -6.42456e-06 -2.28819e-05 2.81922e-05 7.28191e-05 0.00694698 
105 1 1 0.0303968 -0.0280612 0.0465898 0 0 0 1.80083e-07 -7.26441e-07 -2.46373e-06 4.41593e-06 -5.92688e-06 -2.34271e-05 -2.13512e-05 -3.5307e-05 1.61059e-05 0.0111152 
66 1 1 -0.041682 -0.0169767 0.0389235 0 0 0 -3.77407e-07 -4.9673e-07 -1.4122e-06 -1.2025e-06 -1.73674e-06 -9.66989e-06 -4.79914e-05 8.43409e-05 8.96748e-06 0.0111152 
43 1 1 -0.00882967 -0.0242901 0.0478754 0 0 0 -8.24364e-07 -1.51415e-06 -4.55217e-06 -2.68175e-06 -8.98242e-06 -3.71794e-05 -0.00013253 -1.85175e-05 3.70463e-05 0.0111152 
259 1 1 0.0241568 -0.0131299 0.0440616 0 0 0 7.61291e-08 -7.83461e-07 -3.2999e-06 1.25041e-06 -1.27638e-06 -7.25255e-06 -1.28245e-05 -2.05558e-05 -9.7461e-06 0.00694698 
336 1 1 -0.0246139 -0.0117327 0.0453174 0 0 0 -1.17397e-06 -8.33935e-07 -5.45299e-06 -2.10194e-06 6.52217e-07 -1.18296e-05 -1.92853e-05 -3.40526e-05 6.7678e-05 0.00694698 
245 1 1 -0.000273883 -0.0118499 0.0427907 0 0 0 -2.24076e-07 -1.66066e-06 -5.20373e-06 9.00026e-07 -2.38423e-06 -1.00672e-05 -2.99665e-05 -0.000441261 0.000167458 0.00694698 
303 1 1 0.0269175 -0.00136569 0.0493329 0 0 0 -2.24255e-07 -9.39441e-07 -4.59751e-06 8.44359e-07 -1.40628e-06 -1.05108e-05 -0.000107684 -0.000159296 7.7174e-05 0.00694698 
5 1 1 0.0405047 -0.0106682 0.0488248 0 0 0 4.45945e-08 -4.20021e-07 -1.83144e-06 3.5479e-06 -3.57194e-06 -1.79186e-05 1.9521e-05 -6.59935e-05 2.36828e-05 0.0111152 
107 1 1 -0.0382431 0.00195705 0.0431279 0 0 0 -1.53415e-06 -8.20405e-07 -3.42901e-06 -8.86346e-06 -3.3195e-06 -2.46995e-05 -7.09955e-05 4.22005e-05 3.34155e-05 0.0111152 
95 1 1 0.0239299 0.0111489 0.0391398 0 0 0 9.48461e-08 -4.99626e-07 -4.37737e-06 5.94358e-06 -1.92961e-06 -4.1363e-05 7.88716e-05 -8.96921e-05 1.88442e-05 0.0111152 
318 1 1 0.044365 0.0047285 0.0485669 0 0 0 -2.64393e-07 -2.04605e-07 -1.14994e-06 -2.21266e-07 -3.46557e-07 -2.70785e-06 2.9331e-06 -7.97922e-05 4.83475e-06 0.00694698 
208 1 1 -0.0448665 0.0168567 0.0449706 0 0 0 -7.96393e-07 -5.83981e-07 -2.34486e-06 -9.74131e-07 -6.6606e-07 -3.8919e-06 7.46034e-05 0.000293711 -0.000112019 0.00694698 
282 1 1 -0.0182462 0.018533 0.0445893 0 0 0 -1.36482e-06 -1.14112e-06 -5.28494e-06 -1.44512e-06 -1.24987e-06 -9.62215e-06 -1.97738e-05 0.000207228 -1.84173e-05 0.00694698 
4 1 1 -0.00366643 0.0146154 0.0482212 0 0 0 -1.2957e-06 -1.44857e-06 -6.73101e-06 -4.10396e-06 -6.76e-06 -5.38512e-05 8.03539e-05 -3.6413e-05 2.96947e-05 0.0111152 
58 1 1 0.0410775 0.0200219 0.043561 0 0 0 9.56494e-08 -1.78139e-07 -1.88187e-06 3.39679e-06 -3.40359e-07 -1.77932e-05 -9.65737e-07 -7.70617e-05 -2.99185e-06 0.0111152 
199 1 1 -0.0449272 0.0285898 0.0409786 0 0 0 -4.69713e-07 -4.12349e-07 -1.64053e-06 -6.2723e-07 -3.72071e-07 -2.57103e-06 5.55471e-05 0.000174993 -8.34965e-05 0.00694698 
192 1 1 -0.0256316 0.0271739 0.0481262 0 0 0 -1.51195e-06 -2.24025e-07 -4.3596e-06 -1.68361e-06 1.20113e-08 -7.61724e-06 -0.000129484 0.00016261 7.40163e-05 0.00694698 
292 1 1 -0.0146967 0.032469 0.0485799 0 0 0 -1.74762e-06 -3.40986e-07 -5.61156e-06 -2.07464e-06 -2.52927e-08 -1.05602e-05 0.000101239 -4.40737e-05 -0.000150786 0.00694698 
73 1 1 0.0108552 0.0280466 0.0457835 0 0 0 -1.16835e-06 -7.5268e-07 -4.05891e-06 -2.88715e-06 -3.74439e-06 -3.34098e-05 6.93604e-05 -0.000182387 2.23199e-05 0.0111152 
327 1 1 -0.0435039 0.0432739 0.0497711 0 0 0 -3.1752e-07 8.29379e-08 -3.80867e-07 -4.92943e-07 -3.80619e-09 -3.42381e-07 -5.67467e-05 2.45692e-05 1.23581e-05 0.00694698 
126 1 1 -0.0115806 0.044294 0.046458 0 0 0 -5.8584e-07 -5.88062e-08 -2.68351e-06 -5.30658e-07 1.36263e-07 -5.18823e-06 0.000437958 0.000196167 -8.45299e-05 0.00694698 
248 1 1 0.000186983 0.0432518 0.0425158 0 0 0 -8.36478e-07 -3.84884e-08 -3.05878e-06 -8.08753e-07 2.26892e-07 -5.60161e-06 3.5003e-05 -0.000168994 -7.00912e-05 0.00694698 
229 1 1 0.0125664 0.0445193 0.045416 0 0 0 -8.92918e-07 -4.3933e-07 -1.44835e-06 -8.8354e-07 -5.20542e-07 -3.02268e-06 0.000119764 -5.09619e-05 -2.66378e-05 0.00694698 
114 1 1 0.0401335 0.0408 0.0407341 0 0 0 -3.5847e-08 -2.51655e-09 -1.05922e-06 1.24682e-06 9.52253e-07 -8.72553e-06 3.4022e-05 -8.3511e-05 4.02494e-06 0.0111152 
314 1 1 -0.0174739 -0.0445492 0.0555942 0 0 0 -1.93553e-07 -7.97437e-07 -1.70099e-06 1.88568e-07 -1.25222e-06 -3.43557e-06 -6.54463e-05 2.0656e-05 -1.41803e-05 0.00694698 
337 1 1 -0.00609996 -0.0408572 0.0515865 0 0 0 -3.26385e-07 -1.21037e-06 -2.58045e-06 -9.84189e-08 -2.10137e-06 -5.54487e-06 4.99419e-05 7.77728e-05 -4.95185e-05 0.00694698 
56 1 1 0.0068837 -0.0394003 0.0619726 0 0 0 -1.23123e-07 -1.0674e-06 -2.53891e-06 2.46239e-06 -9.83652e-06 -2.57939e-05 -0.000143588 -3.22684e-05 -2.46217e-05 0.0111152 
265 1 1 0.0220177 -0.043724 0.0552628 0 0 0 -1.25598e-07 -3.64838e-07 -1.10417e-06 2.14185e-07 -8.98826e-07 -2.8831e-06 4.75316e-05 -4.98128e-05 8.28865e-05 0.00694698 
49 1 1 0.0406724 -0.0407584 0.0580766 0 0 0 -5.19789e-08 -1.92485e-07 -8.99806e-07 7.52171e-07 -2.42997e-06 -9.492e-06 -5.93498e-05 -6.92861e-05 1.15664e-05 0.0111152 
84 1 1 -0.0411457 -0.032993 0.0553186 0 0 0 -4.87009e-07 -7.80862e-07 -1.53872e-06 -1.58625e-06 -4.52905e-06 -1.24586e-05 4.90272e-05 5.19858e-05 -4.44122e-05 0.0111152 
307 1 1 -0.0195837 -0.0324346 0.0571156 0 0 0 -7.89884e-07 -1.33177e-06 -3.59587e-06 -5.37707e-07 -1.93389e-06 -7.14335e-06 -0.000111229 -6.08554e-05 9.00264e-05 0.00694698 
326 1 1 0.0447956 -0.0254458 0.0534947 0 0 0 -1.31921e-07 -2.61872e-07 -1.22407e-06 6.72501e-08 -5.86641e-07 -2.8758e-06 -4.28697e-05 -0.000186426 4.1817e-05 0.00694698 
81 1 1 -0.0216684 -0.0170401 0.062432 0 0 0 -1.34771e-06 -1.36915e-06 -5.61863e-06 -6.94714e-06 -6.71667e-06 -4.65037e-05 -8.69064e-05 8.80188e-05 3.32114e-05 0.0111152 
52 1 1 0.0112853 -0.0221409 0.0507309 0 0 0 -1.88281e-07 -1.31532e-06 -3.8492e-06 2.92835e-06 -9.45922e-06 -3.32499e-05 7.21054e-06 -1.56644e-05 -1.96245e-06 0.0111152 
332 1 1 0.026756 -0.0152036 0.0567084 0 0 0 -3.85144e-07 -9.67255e-07 -3.23409e-06 4.09007e-07 -1.95891e-06 -7.06728e-06 4.18596e-05 -8.81415e-05 3.05846e-05 0.00694698 
220 1 1 -0.043805 -0.00977095 0.0542181 0 0 0 -6.47831e-07 -3.40997e-07 -1.8564e-06 -9.79434e-07 -1.76071e-07 -3.41748e-06 -1.18995e-05 2.53425e-05 1.00361e-05 0.00694698 
133 1 1 -0.0272081 -0.00283241 0.0559955 0 0 0 -1.73881e-06 -1.00995e-06 -5.37408e-06 -2.28643e-06 -1.04196e-06 -1.01529e-05 0.000133466 0.000211306 -0.000150046 0.00694698 
24 1 1 -0.0102673 -0.00372081 0.0528007 0 0 0 -1.54704e-06 -2.06145e-06 -7.34764e-06 -7.68938e-06 -1.14915e-05 -5.90605e-05 -1.99842e-06 4.78801e-05 -4.93958e-05 0.0111152 
240 1 1 0.0172585 -0.00749227 0.0553607 0 0 0 -4.23634e-07 -1.39505e-06 -5.60111e-06 5.73479e-07 -2.1077e-06 -1.23555e-05 -0.000231582 -0.00019366 8.29707e-05 0.00694698 
236 1 1 -0.0236943 0.00828096 0.0507774 0 0 0 -1.50543e-06 -8.37444e-07 -5.20395e-06 -1.6487e-06 -8.52155e-07 -9.39933e-06 -9.00177e-05 -9.76412e-06 -2.12131e-05 0.00694698 
15 1 1 0.0136566 0.00817871 0.0563009 0 0 0 -1.32411e-06 -1.65429e-06 -6.95766e-06 -4.08896e-06 -9.12485e-06 -6.19145e-05 4.77373e-05 -0.000101385 4.61667e-05 0.0111152 
291 1 1 0.0437832 0.0122418 0.0588945 0 0 0 -8.71243e-08 3.09342e-07 -1.55059e-06 -1.84911e-07 8.86803e-07 -3.64849e-06 -0.000125616 -2.35835e-05 -6.28433e-05 0.00694698 
335 1 1 -0.0343158 0.0161596 0.0526643 0 0 0 -1.45848e-06 -5.51075e-07 -4.1303e-06 -1.67036e-06 -5.38405e-07 -7.22056e-06 -2.49639e-05 4.85631e-05 2.71192e-05 0.00694698 
266 1 1 0.0217589 0.0233197 0.0586731 0 0 0 -7.95756e-07 -1.07143e-06 -5.17892e-06 -3.33639e-07 -1.46678e-06 -1.09228e-05 0.000177879 0.000319954 -6.64981e-05 0.00694698 
298 1 1 0.0302846 0.0135353 0.0553189 0 0 0 -1.36338e-06 -6.37381e-07 -4.7798e-06 -1.37998e-06 -6.9926e-07 -1.10301e-05 2.55862e-06 -0.000215761 0.000108044 0.00694698 
262 1 1 -0.0377382 0.0287333 0.0508387 0 0 0 -1.01266e-06 -2.92758e-07 -3.07296e-06 -8.57437e-07 -1.11431e-07 -4.93267e-06 -1.45454e-06 -6.61302e-05 7.2089e-06 0.00694698 
99 1 1 -0.00360813 0.0303682 0.0615074 0 0 0 -1.64922e-06 -1.50451e-06 -7.30497e-06 -6.69444e-06 -6.9904e-06 -5.65251e-05 -3.67505e-05 0.000141976 -6.22211e-06 0.0111152 
122 1 1 -0.0274283 0.0409191 0.0558336 0 0 0 -5.12626e-07 -2.32616e-08 -2.64482e-06 4.66322e-07 -4.73094e-07 -1.86574e-05 0.000156859 0.000153912 -2.10479e-05 0.0111152 
158 1 1 0.000206978 0.0448778 0.0561865 0 0 0 -1.19442e-06 -6.08886e-07 -3.97859e-06 -1.39798e-06 -3.02243e-07 -7.161e-06 0.000615419 3.80544e-05 -0.000197475 0.00694698 
47 1 1 0.0244974 0.0400921 0.0559319 0 0 0 -1.52602e-07 -1.16081e-07 -2.55387e-06 -3.53128e-07 -8.28489e-07 -2.10195e-05 4.76917e-05 0.000136274 1.82774e-05 0.0111152 
203 1 1 0.0420083 0.0441913 0.0569425 0 0 0 1.32998e-07 1.02401e-07 -1.18221e-06 7.07222e-07 4.0156e-07 -2.39591e-06 8.32348e-05 7.70632e-05 5.8422e-05 0.00694698 
6 1 1 -0.0273257 -0.0408019 0.0684914 0 0 0 -4.74736e-07 -7.51446e-07 -2.24921e-06 -1.1421e-06 -4.86532e-06 -1.92568e-05 -0.000131738 1.27785e-05 5.87989e-05 0.0111152 
190 1 1 -0.00862791 -0.0442093 0.0646035 0 0 0 -2.78491e-07 -1.22278e-07 -2.18057e-06 2.51476e-07 -1.70318e-08 -4.71898e-06 -0.000298284 -4.9296e-05 1.48454e-05 0.00694698 
189 1 1 0.0268465 -0.0442003 0.0673438 0 0 0 -2.11671e-07 -1.84576e-07 -1.22451e-06 1.84158e-07 -6.73943e-07 -3.25756e-06 -0.000117592 -3.43393e-06 5.74834e-05 0.00694698 
186 1 1 0.0437407 -0.0441968 0.0738313 0 0 0 -8.58352e-08 5.48623e-08 -2.72666e-07 8.36924e-08 -2.832e-07 -1.21515e-06 -1.55878e-05 2.7994e-05 6.09621e-06 0.00694698 
313 1 1 -0.0118607 -0.0316738 0.0682093 0 0 0 -9.42043e-07 -1.05187e-06 -5.06265e-06 2.66971e-07 -1.67555e-06 -1.04986e-05 -6.6486e-06 0.000173088 2.29555e-05 0.00694698 
227 1 1 0.00766388 -0.0253939 0.0722239 0 0 0 -1.07691e-06 -1.18678e-06 -5.75451e-06 -1.87524e-07 -1.97914e-06 -1.25958e-05 -0.00014679 -0.000191972 0.00019214 0.00694698 
91 1 1 0.0235312 -0.0277778 0.0665882 0 0 0 -3.61956e-07 -7.45955e-07 -3.28078e-06 1.56556e-06 -8.29333e-06 -3.20224e-05 -9.96975e-05 -5.18304e-05 1.37661e-05 0.0111152 
247 1 1 0.0400879 -0.0264408 0.068086 0 0 0 3.43739e-08 -6.7694e-07 -2.24831e-06 9.84137e-07 -2.05246e-06 -5.7723e-06 -2.87247e-05 1.46107e-05 -2.79713e-05 0.00694698 
36 1 1 -0.0407301 -0.0173219 0.0691412 0 0 0 -3.98022e-07 -6.25858e-07 -2.38645e-06 -8.99864e-07 -3.30353e-06 -1.93795e-05 -4.56634e-05 0.000153311 -3.06314e-05 0.0111152 
137 1 1 -0.00226743 -0.0232153 0.0635623 0 0 0 -9.96734e-07 -1.9104e-06 -6.56932e-06 -9.48967e-08 -2.90194e-06 -1.38902e-05 9.44851e-05 7.32449e-05 -0.000173691 0.00694698 
276 1 1 0.0201771 -0.0125509 0.072259 0 0 0 -3.657e-07 -9.71442e-07 -6.08053e-06 9.04827e-07 -1.54705e-06 -1.52373e-05 2.26395e-05 -2.99972e-05 -1.81106e-05 0.00694698 
215 1 1 0.0333366 -0.0151385 0.0705857 0 0 0 -1.92608e-07 -6.44586e-07 -4.39833e-06 5.75039e-07 -1.71491e-06 -1.10995e-05 -0.000197596 -0.000121807 -6.53379e-05 0.00694698 
217 1 1 0.0446141 -0.0151032 0.0644108 0 0 0 -1.70065e-07 -5.13823e-07 -1.66027e-06 3.07635e-07 -1.38312e-06 -4.18518e-06 6.69279e-05 -0.000182183 0.000135227 0.00694698 
182 1 1 -0.0291258 -0.0043065 0.0735738 0 0 0 -1.26062e-06 -2.13223e-06 -5.64426e-06 -1.00815e-06 -2.7233e-06 -1.03833e-05 0.000257038 0.000118975 -0.000223888 0.00694698 
10 1 1 0.00493197 -0.00796362 0.0666216 0 0 0 -1.09348e-06 -2.1098e-06 -7.78566e-06 -2.15088e-06 -1.26274e-05 -6.97743e-05 -6.22228e-05 -6.39875e-05 0.000116242 0.0111152 
148 1 1 0.0445355 -0.00238307 0.0634358 0 0 0 -2.5093e-07 -9.78517e-09 -2.72963e-06 4.06488e-07 -2.1601e-08 -6.49596e-06 -0.000246358 -0.000356233 -8.35563e-05 0.00694698 
32 1 1 -0.039949 0.00415223 0.0635932 0 0 0 -9.20558e-07 -2.80791e-07 -2.93111e-06 -3.69856e-06 -1.63542e-06 -2.29071e-05 -1.04319e-05 8.2808e-05 1.31112e-05 0.0111152 