/*--------------------------------*- C++ -*----------------------------------*\
| =========                 |                                                 |
| \\      /  F ield         | OpenFOAM: The Open Source CFD Toolbox           |
|  \\    /   O peration     | Version:  5.x                                   |
|   \\  /    A nd           | Web:      www.OpenFOAM.org                      |
|    \\/     M anipulation  |                                                 |
\*---------------------------------------------------------------------------*/
FoamFile
{
    version     2.0;
    format      ascii;
    class       volScalarField;
    location    "0.3";
    object      alpha.water;
}
// * * * * * * * * * * * * * * * * * * * * * * * * * * * * * * * * * * * * * //

dimensions      [0 0 0 0 0 0 0];

internalField   nonuniform List<scalar> 
2268
(
1
1
1
1
1
1
1
1
1
1
1
1
1
1
1
1
1
1
1
1
0.896871
0.73712
0.873348
0.999999
1
1
1
1
1
1
1
1
1
1
1
1
1
1
1
1
1
1
1
0.979387
0.918362
1
1
1
1
1
1
1
1
1
1
1
1
1
1
1
1
1
1
1
1
1
1
0.999971
0.995073
1
1
1
1
1
1
1
1
1
1
1
1
1
1
1
1
1
1
1
1
1
0.999998
0.993445
1
1
1
1
1
1
1
1
1
1
1
1
1
1
1
1
1
1
1
1
1
1
0.997309
1
1
1
1
1
1
1
1
1
1
1
1
1
1
1
1
1
1
1
1
1
1
1
1
1
1
1
1
1
1
1
1
1
1
1
1
1
1
1
1
1
1
1
1
1
1
1
1
1
1
1
1
1
1
1
1
1
1
1
1
1
1
1
1
1
1
1
1
1
0
1.76538e-11
4.52099e-12
1.43698e-13
1.93944e-15
5.73098e-17
1.958e-18
6.74377e-20
2.55562e-21
1.13427e-22
5.66645e-24
2.76288e-25
1.0899e-26
3.65362e-28
1.03583e-29
2.31988e-31
3.70655e-33
3.52514e-35
1.25019e-37
-1.87875e-12
1.04487e-11
3.01747e-11
2.31038e-12
4.39658e-14
1.54716e-15
5.49433e-17
1.92113e-18
7.24577e-20
2.94433e-21
1.68067e-22
1.21872e-23
5.65813e-25
1.98255e-26
5.85608e-28
1.34111e-29
2.03073e-31
1.34359e-33
-3.0331e-39
-1.39602e-11
1.47989e-10
3.37308e-10
1.61121e-11
5.69749e-13
4.24723e-14
1.82843e-15
7.46388e-17
2.59584e-18
6.9583e-20
1.31049e-21
2.90134e-22
1.88115e-23
5.56003e-25
1.40075e-26
2.68994e-28
2.72674e-30
1.2936e-32
-1.13766e-37
-9.81593e-11
6.27244e-09
1.66707e-10
5.56434e-12
1.83186e-12
4.93523e-13
4.48521e-14
3.28921e-15
9.63611e-17
2.06057e-18
7.25729e-21
3.92633e-21
5.23948e-22
1.74935e-23
3.5627e-25
4.93819e-27
5.75492e-29
3.0795e-31
-2.84705e-36
-8.9607e-10
2.00687e-07
5.15206e-09
1.24664e-10
1.30868e-11
2.92783e-12
4.24233e-13
7.53673e-14
5.18914e-15
1.54513e-16
2.54183e-19
1.73521e-20
1.84096e-20
1.0315e-21
1.29611e-23
1.54185e-25
2.47476e-27
1.30042e-29
-8.22676e-34
-2.64559e-09
0.000324771
5.35044e-05
5.13236e-09
1.73399e-10
1.40496e-11
1.15695e-12
1.70022e-13
1.01436e-13
1.51332e-14
1.39569e-17
4.48589e-19
9.44096e-19
6.93036e-20
5.43179e-22
6.90839e-24
1.19811e-25
6.71799e-28
-7.22934e-32
-2.61076e-08
0.00242965
0.000324209
6.12835e-08
4.03786e-09
5.87874e-10
2.67194e-11
4.92471e-12
5.95722e-13
3.77542e-13
8.26122e-16
2.56169e-17
4.81074e-17
3.48908e-18
2.45935e-20
3.79187e-22
6.95795e-24
3.73071e-26
-7.9088e-30
-6.49582e-08
0.00271341
4.81258e-07
1.28643e-07
1.18827e-07
4.47782e-09
5.43713e-10
1.75245e-10
1.89776e-11
1.65334e-12
4.16635e-14
1.30426e-15
2.16463e-15
1.39681e-16
1.15638e-18
2.06231e-20
3.7862e-22
1.82214e-24
-4.38577e-28
1
1
1
1
1
1
1
1
1
1
1
1
1
1
1
1
1
1
1
1
1
1
0.999931
1
1
1
1
1
1
1
1
1
1
1
1
1
1
1
1
1
1
1
1
1
1
0.999925
1
1
0.999999
0.999999
0.999999
0.999999
0.999999
0.999999
0.999998
0.999997
0.999996
0.999995
0.999993
0.99999
0.999989
0.999992
0.999998
0.999866
1
1
1
1
0.999999
1
0.999994
0.999976
0.999979
0.999982
0.999981
0.999975
0.999961
0.999933
0.999892
0.99984
0.999782
0.993091
0.971718
0.935202
0.887548
0.846982
0.806041
0.827548
0.894588
1
1
0.999998
1
0.999738
0.99954
0.99957
0.999574
0.999002
0.99186
0.970908
0.928834
0.860816
0.764649
0.623603
0.469608
0.332485
0.222286
0.139495
0.0904344
0.0602463
0.0731318
0.114473
0.204547
0.376222
0.587901
0.991157
0.802574
0.711773
0.702854
0.662863
0.579598
0.465184
0.345148
0.229046
0.127775
0.0383084
2.17103e-09
2.21692e-09
2.41486e-07
1.57378e-06
3.8517e-06
4.94336e-06
5.40816e-06
5.45585e-06
5.57831e-05
0.000173992
0.000365357
0.017769
0.439871
0.117593
0.0445417
0.0394404
0.0185451
1.38606e-13
1.79758e-12
6.49211e-12
1.38675e-11
1.9779e-11
1.08681e-09
2.17103e-09
2.15245e-09
2.21692e-09
2.41486e-07
1.57378e-06
4.27012e-06
1.14396e-05
1.0318e-05
1.82341e-05
3.51913e-05
5.13334e-05
8.50593e-05
-3.69606e-20
-2.22239e-21
7.49134e-35
4.53228e-19
3.43404e-17
3.56762e-15
1.38606e-13
1.79758e-12
8.33587e-12
1.72142e-11
1.9779e-11
1.63662e-09
2.21662e-09
2.4479e-09
1.33486e-06
5.86387e-05
0.000187672
0.00018453
3.60385e-05
3.01987e-05
3.5891e-05
3.65614e-05
3.97039e-05
-1.98649e-19
-2.18904e-22
1.1004e-17
7.34295e-16
5.24848e-14
2.33136e-12
4.39395e-11
1.17454e-10
5.02309e-11
2.61933e-11
6.98133e-09
7.152e-09
2.56271e-09
2.43604e-05
0.000433067
0.000962755
0.000622891
5.35136e-05
3.42792e-05
3.52107e-05
3.54831e-05
3.58909e-05
3.65614e-05
-2.42685e-19
1.11244e-19
1.13549e-16
1.05317e-14
1.19886e-12
3.98605e-11
2.30505e-10
2.77304e-10
7.11715e-11
2.83526e-11
3.97102e-07
4.25154e-08
6.74683e-09
0.000702042
0.0011615
0.00116157
0.000117869
3.55839e-05
3.52107e-05
3.52107e-05
5.55773e-05
0.000740262
0.00213929
-1.98856e-19
5.65808e-19
1.89802e-16
2.19557e-14
3.58803e-12
9.70506e-11
3.06114e-10
2.98563e-10
3.95192e-11
1.40579e-10
5.7976e-07
5.19274e-08
3.36031e-08
0.000865361
0.00116159
0.0011228
0.000684897
0.000396339
0.000665206
0.00152392
0.00159662
0.00158982
0.0012572
-1.23619e-19
8.01521e-19
2.0148e-16
2.51941e-14
5.00951e-12
1.17779e-10
3.06114e-10
2.41853e-10
3.07246e-11
3.6218e-11
5.81198e-07
2.48837e-08
6.77105e-06
3.65563e-05
0.000938403
0.00106661
0.00134276
0.00136779
0.0013964
0.00140824
0.000744665
3.95022e-05
-8.03393e-10
-6.69842e-20
7.79018e-19
1.54811e-16
2.44704e-14
5.36839e-12
9.44744e-11
2.88182e-10
1.51511e-10
2.84266e-11
2.99368e-11
2.71735e-07
2.38236e-08
4.02188e-26
-1.57105e-28
-4.3775e-12
0.000111398
0.000310045
0.000401604
5.98717e-05
1.27976e-12
2.66482e-12
3.52467e-12
1.12847e-11
-3.00862e-20
3.70664e-19
6.22248e-17
1.42206e-14
4.2814e-12
4.95965e-11
1.34896e-10
6.99331e-11
2.83262e-11
1.99833e-09
8.83002e-13
0
-1.45126e-12
-2.92008e-11
-4.68562e-11
-9.34576e-12
-9.09434e-13
-9.2747e-29
5.52551e-14
4.09886e-13
1.34357e-12
3.74952e-12
7.7883e-12
-1.34052e-20
8.71284e-20
1.70109e-17
4.4857e-15
1.70528e-12
1.71752e-11
3.5152e-11
2.02562e-11
2.03174e-11
1.78025e-11
7.75106e-12
7.78977e-12
-7.51097e-12
-4.72153e-11
-7.89478e-11
-1.87199e-11
-2.26333e-12
1.73701e-12
1.0365e-11
2.81054e-11
5.11e-11
7.3743e-11
1.2973e-10
-8.85134e-21
8.85017e-21
6.21016e-18
9.13356e-16
4.00176e-13
3.90991e-12
7.21331e-12
4.7575e-12
8.40064e-12
2.50784e-11
2.91794e-11
2.91794e-11
7.05976e-12
-1.82616e-11
-3.71438e-11
-1.11452e-11
-1.33191e-12
3.7569e-12
1.16782e-11
1.67555e-11
2.74543e-11
4.52267e-11
1.10386e-10
-8.62603e-21
-4.56882e-21
4.34618e-18
1.34201e-16
6.29723e-14
6.08995e-13
1.17593e-12
1.11827e-12
2.68175e-12
1.27545e-11
2.5856e-11
2.16541e-11
1.21446e-11
3.01948e-12
1.73461e-13
7.73174e-14
3.76502e-13
6.00531e-13
1.41087e-12
4.06444e-12
1.13949e-11
2.4289e-11
8.70569e-11
-8.38267e-21
-1.10811e-20
3.19422e-18
1.88054e-17
6.60164e-15
6.44227e-14
1.45492e-13
2.74142e-13
7.53905e-13
2.33404e-12
8.59558e-12
5.38947e-12
2.31421e-12
6.95676e-13
1.9951e-13
9.94725e-15
1.4617e-14
6.87067e-14
3.58378e-13
1.67318e-12
6.30535e-12
1.6732e-11
7.69517e-11
-6.82887e-21
-1.54636e-20
1.19223e-18
3.63736e-18
4.32061e-16
4.26079e-15
1.88749e-14
8.45922e-14
2.3962e-13
5.16541e-13
9.79591e-13
7.86066e-13
3.80709e-13
1.05928e-13
2.2487e-14
1.60711e-15
2.10242e-15
1.32411e-14
1.1244e-13
7.73209e-13
3.71778e-12
1.22784e-11
6.68989e-11
-4.40443e-21
-1.57557e-20
1.40547e-19
6.48217e-19
1.34165e-17
2.03524e-16
4.07415e-15
2.84188e-14
8.30862e-14
1.42641e-13
1.64888e-13
1.29093e-13
5.65884e-14
1.43651e-14
4.55426e-15
5.76834e-16
4.75348e-16
3.42588e-15
4.19476e-14
3.78818e-13
2.18353e-12
9.24026e-12
6.18683e-11
-2.12406e-21
-1.11757e-20
-8.46234e-22
4.82778e-20
3.05335e-20
2.1674e-17
8.87559e-16
7.16848e-15
2.49392e-14
4.09593e-14
4.2757e-14
3.09329e-14
1.14436e-14
2.18982e-15
6.50839e-16
9.43002e-17
1.10767e-16
1.08617e-15
1.59122e-14
1.72325e-13
1.18393e-12
7.21459e-12
5.73377e-11
-6.99397e-22
-4.82246e-21
-7.73663e-21
-7.271e-22
1.12176e-22
2.45261e-18
9.34561e-17
1.16747e-15
5.24875e-15
9.83732e-15
1.11951e-14
8.34937e-15
3.25035e-15
4.82819e-16
6.4719e-17
1.03874e-17
2.4023e-17
3.3534e-16
5.44394e-15
6.77092e-14
5.97442e-13
5.86818e-12
4.78689e-11
-1.3565e-22
-9.37033e-22
-1.69588e-21
-1.45411e-22
-8.30413e-24
8.12413e-22
3.93214e-18
1.27874e-16
6.97658e-16
1.45314e-15
1.7983e-15
1.52297e-15
6.91951e-16
9.99497e-17
4.14343e-18
2.07014e-18
6.36112e-18
9.60909e-17
1.63556e-15
2.26719e-14
2.89909e-13
4.65477e-12
3.56966e-11
-1.33543e-23
-9.2765e-23
-1.75327e-22
-1.36656e-23
-7.22343e-25
2.85786e-23
2.23364e-19
9.46996e-18
5.41583e-17
1.17379e-16
1.47991e-16
1.42533e-16
7.75817e-17
1.35255e-17
8.09298e-19
4.60137e-19
1.60745e-18
2.51794e-17
4.31941e-16
6.6068e-15
1.34568e-13
3.25555e-12
2.56979e-11
-2.31407e-43
-3.16762e-41
-4.4798e-40
8.81956e-33
6.73891e-28
3.32196e-26
1.07229e-21
2.54365e-19
2.08316e-18
5.28578e-18
7.34771e-18
7.70305e-18
4.28121e-18
7.51548e-19
6.48861e-20
6.72659e-20
3.60463e-19
6.17648e-18
1.05493e-16
1.76289e-15
5.72256e-14
1.99497e-12
1.84917e-11
-3.22707e-43
-4.4225e-41
-8.37029e-40
1.16028e-35
5.11917e-31
9.13601e-29
6.37476e-25
9.3289e-22
1.16401e-20
3.38927e-20
4.62112e-20
4.09997e-20
2.20015e-20
8.57159e-21
4.34168e-21
6.76255e-21
7.21442e-20
1.40014e-18
2.53141e-17
4.58381e-16
2.15774e-14
1.14844e-12
1.31745e-11
-3.47772e-43
-4.80571e-41
-1.1289e-39
2.00681e-38
3.21397e-35
1.83933e-32
1.0924e-27
3.89384e-24
8.19163e-23
3.50814e-22
6.86355e-22
8.41113e-22
8.11168e-22
5.44462e-22
2.62357e-22
6.18081e-22
1.21928e-20
2.88863e-19
6.25496e-18
1.24479e-16
7.32597e-15
6.32092e-13
8.87591e-12
-2.57166e-43
-3.618e-41
-9.18179e-40
-3.34904e-41
2.06951e-37
2.58989e-35
3.91779e-33
2.2736e-29
7.72658e-26
1.89875e-24
8.26238e-24
1.47255e-23
1.52324e-23
1.0678e-23
6.29709e-24
5.91941e-23
1.94928e-21
6.14396e-20
1.71252e-18
3.79122e-17
2.29445e-15
3.17411e-13
5.37587e-12
-9.74758e-44
-1.41616e-41
-3.91601e-40
-1.81125e-41
7.64631e-42
3.03307e-39
4.32713e-37
2.69942e-33
5.79987e-29
5.92651e-27
3.74695e-26
7.91938e-26
8.44751e-26
5.34134e-26
2.47944e-25
9.13356e-24
3.91062e-22
1.56806e-20
5.15232e-19
1.22522e-17
6.49084e-16
1.38633e-13
2.85884e-12
-3.28622e-55
-3.46533e-53
-1.56019e-52
1.87969e-47
2.91359e-44
2.91407e-42
1.82974e-40
9.91534e-39
2.47092e-34
1.27711e-30
3.89614e-29
1.48431e-28
1.65294e-28
6.78336e-28
3.21883e-26
1.79128e-24
9.07615e-23
3.90282e-21
1.36504e-19
3.53597e-18
1.64526e-16
5.20633e-14
1.34162e-12
-4.45386e-55
-4.94425e-53
-2.61022e-52
2.27377e-50
3.39852e-45
3.04838e-43
1.30709e-41
5.25875e-40
2.17435e-38
6.1795e-36
2.37473e-33
3.17257e-32
1.06421e-30
8.04558e-29
5.79201e-27
3.28163e-25
1.71083e-23
7.94265e-22
3.06319e-20
9.33599e-19
4.04016e-17
1.72697e-14
5.67367e-13
-4.66865e-55
-5.4918e-53
-3.25486e-52
1.5446e-52
1.75253e-47
2.25053e-45
2.2582e-43
2.0834e-41
2.3073e-39
1.65166e-37
1.5566e-35
1.42527e-33
1.36468e-31
1.08879e-29
7.55315e-28
4.85077e-26
2.80466e-24
1.5168e-22
6.58286e-21
2.35176e-19
9.98888e-18
5.3409e-15
2.13707e-13
-3.37532e-55
-4.22285e-53
-2.83154e-52
-6.28367e-54
2.17377e-49
3.81402e-47
4.8716e-45
7.0067e-43
8.94332e-41
1.10806e-38
1.32296e-36
1.26441e-34
1.24847e-32
1.03878e-30
8.12623e-29
5.94205e-27
3.81492e-25
2.26185e-23
1.10044e-21
4.62363e-20
2.20048e-18
1.55186e-15
6.78338e-14
-1.2705e-55
-1.68717e-53
-1.28479e-52
-2.9943e-54
2.98178e-51
7.07922e-49
1.2766e-46
2.39727e-44
3.85095e-42
5.39669e-40
7.1665e-38
7.77704e-36
8.69583e-34
7.85477e-32
7.37558e-30
5.74912e-28
4.38811e-26
2.83361e-24
1.62056e-22
8.16438e-21
4.40636e-19
3.88815e-16
1.76717e-14
-9.85136e-75
-4.30074e-72
7.74728e-65
1.84332e-56
3.37968e-53
1.13266e-50
2.90379e-48
6.03593e-46
1.16598e-43
1.76081e-41
2.75189e-39
3.36348e-37
4.36804e-35
4.63925e-33
4.71342e-31
4.53867e-29
3.65532e-27
2.90651e-25
2.04119e-23
1.21936e-21
6.86335e-20
7.69768e-17
3.8459e-15
-1.58827e-74
-7.59943e-72
2.72394e-65
6.55478e-59
3.25501e-55
1.18586e-52
3.86144e-50
9.47505e-48
2.00657e-45
3.86436e-43
6.48777e-41
9.58544e-39
1.45818e-36
1.79186e-34
2.05465e-32
2.41625e-30
2.44575e-28
2.14368e-26
1.81476e-24
1.32782e-22
7.31026e-21
1.19385e-17
6.81495e-16
-2.02572e-74
-1.07704e-71
2.19884e-68
1.56231e-61
1.01211e-57
5.90419e-55
1.92529e-52
6.39792e-50
1.63563e-47
4.09096e-45
7.74331e-43
1.67476e-40
2.79337e-38
3.99758e-36
6.10688e-34
8.71293e-32
1.07712e-29
1.14616e-27
1.1186e-25
1.18765e-23
4.10402e-22
9.33966e-19
8.90695e-17
-1.821e-74
-1.0946e-71
-1.06108e-68
1.13981e-64
5.9267e-61
4.00474e-58
2.29822e-55
8.58018e-53
3.87536e-50
1.1193e-47
4.05558e-45
9.40767e-43
2.10909e-40
5.30791e-38
9.57878e-36
1.58357e-33
2.41476e-31
3.40004e-29
5.70665e-27
5.50127e-25
3.10916e-23
6.86162e-20
6.85217e-18
-8.66753e-75
-6.02267e-72
-5.37179e-69
3.30949e-70
1.28068e-65
2.15517e-62
1.27855e-59
9.63941e-57
6.16732e-54
2.86805e-51
1.25115e-48
6.16469e-46
2.16642e-43
7.09639e-41
2.95634e-38
8.26583e-36
1.9962e-33
4.3184e-31
9.85922e-29
7.99159e-27
1.0827e-24
4.00161e-21
2.66207e-19
4.06235e-96
0
0
7.74064e-78
1.56908e-72
6.97314e-69
9.5071e-66
1.2009e-62
1.37177e-59
1.00716e-56
9.82366e-54
6.25697e-51
3.80372e-48
3.26213e-45
1.57228e-42
7.87624e-40
3.56928e-37
1.43109e-34
4.39453e-32
6.91215e-30
3.54224e-27
6.59514e-23
3.74538e-21
-9.77151e-102
-3.55341e-104
-7.62008e-107
3.47169e-91
2.43403e-86
-1.01886e-114
2.36745e-78
1.10215e-74
3.5224e-71
7.03259e-68
1.87931e-64
3.24234e-61
5.37398e-58
1.16484e-54
1.59068e-51
2.12838e-48
2.58958e-45
2.77874e-42
2.27705e-39
9.38623e-37
6.21427e-30
2.0626e-25
9.47696e-24
-3.86139e-102
-7.5276e-105
-6.05257e-108
-4.26197e-111
-2.88674e-114
-3.18378e-102
-7.14276e-105
3.23463e-92
0
2.95019e-83
0
-2.71357e-105
5.47236e-73
2.67846e-70
3.74328e-67
7.56631e-64
3.05247e-61
6.02057e-58
0
7.69028e-53
1.2092e-49
1.56396e-35
0
0.999935
0.999992
1
0.182596
0.999927
0.99997
1
0.95057
0.999989
0.999988
0.999996
0.999993
0.999992
0.999992
0.999993
0.999992
0.759963
0.923289
0.999992
0.999931
0.0504946
0.095825
0.159726
0.242534
0.000169181
0.000260414
0.000376995
0.000506867
0.000101764
0.000172859
0.000272843
0.00038577
0.000238768
0.00199246
0.00232507
0.00234196
0.00218688
0.00218688
0.00224753
0.00133649
0.000380702
2.67077e-05
5.63632e-06
7.27083e-09
-1.65902e-09
-3.22901e-10
1.24871e-10
1.76329e-10
2.54594e-11
8.03107e-11
1.11279e-10
1.49037e-10
3.03256e-11
8.44562e-11
3.82707e-10
6.06863e-10
2.05903e-10
3.01551e-10
5.46916e-10
6.06863e-10
2.0823e-10
3.14622e-10
4.43207e-10
4.59356e-10
1.83006e-10
2.8489e-10
3.66674e-10
3.20766e-10
1.66416e-10
2.50405e-10
2.69263e-10
2.06291e-10
1.45237e-10
2.03573e-10
1.86675e-10
1.28811e-10
1.3185e-10
1.61901e-10
1.16188e-10
1.27052e-10
1.14947e-10
1.26988e-10
1.0676e-10
1.14663e-10
9.19393e-11
1.01156e-10
1.00986e-10
1.05511e-10
6.77427e-11
8.46096e-11
1.37233e-10
2.63441e-10
5.00303e-11
7.7456e-11
2.48562e-10
2.50881e-10
3.83667e-11
7.99763e-11
3.43165e-10
2.91677e-10
2.98783e-11
8.07333e-11
3.7681e-10
3.4281e-10
2.22645e-11
7.86738e-11
3.79012e-10
4.51776e-10
1.54393e-11
6.49512e-11
2.72151e-10
8.48875e-10
9.46994e-12
5.34152e-11
2.40091e-10
4.89657e-10
5.14159e-12
3.79809e-11
1.76116e-10
3.46691e-10
2.44678e-12
2.32608e-11
1.13266e-10
2.45783e-10
9.52289e-13
1.20894e-11
6.44315e-11
1.38597e-10
2.80041e-13
5.13743e-12
3.13387e-11
6.6766e-11
6.26184e-14
1.73923e-12
1.27612e-11
3.06731e-11
1.14121e-14
4.38619e-13
4.17278e-12
1.32693e-11
1.80077e-15
7.73641e-14
1.01876e-12
4.84599e-12
3.09805e-16
1.52596e-14
1.81525e-13
5.44209e-13
2.15354e-17
1.37871e-15
2.19615e-14
1.04537e-13
6.41929e-19
2.27636e-17
6.41396e-16
6.49108e-15
3.22019e-21
1.28274e-19
4.64994e-18
9.68287e-17
3.41674e-26
3.99654e-24
4.11564e-22
2.36941e-20
-6.51395e-44
-1.66757e-41
-7.31794e-38
-1.3202e-34
0.13399
0.000578768
5.61063e-06
2.08825e-07
1.24406e-07
9.35314e-08
3.32179e-08
9.23034e-09
8.63742e-10
9.97931e-11
1.93982e-12
6.3341e-14
7.04262e-14
6.23436e-15
1.33805e-16
1.74798e-18
2.60699e-20
2.25477e-22
-2.30037e-26
0.934678
0.276845
0.0715084
0.000147714
1.95091e-05
4.11357e-06
1.22683e-06
3.75566e-07
3.21164e-08
3.28837e-09
1.13643e-10
2.94663e-12
3.48613e-13
5.70996e-14
5.02821e-15
7.76524e-17
6.94521e-19
1.05287e-20
-1.67594e-24
0.999873
0.965915
0.921799
0.417875
0.0612446
0.00421916
6.83216e-05
1.92675e-05
1.54362e-06
1.25191e-07
8.58587e-09
3.37915e-10
1.79422e-11
5.88856e-13
2.68388e-14
3.19628e-15
8.41779e-17
9.17131e-19
-4.11598e-22
0.999928
0.999813
0.999425
0.990288
0.959096
0.520118
0.0736309
0.000561799
4.82692e-05
3.33611e-06
2.94819e-07
1.55696e-08
6.55942e-10
1.07551e-11
2.42028e-13
8.57302e-15
8.06804e-16
1.66268e-17
-1.17595e-19
0.999813
0.999544
0.999335
0.999216
0.998717
0.997654
0.898712
0.324924
0.0102021
8.5829e-05
5.56572e-06
4.57615e-07
2.12771e-08
5.6247e-10
1.01929e-11
-3.95518e-13
-1.84354e-14
4.88358e-16
-1.30667e-17
0.375536
0.629202
0.953984
0.998717
0.997654
0.996317
0.995564
0.963026
0.480417
0.0260461
0.00013142
9.92907e-06
5.53376e-07
2.74102e-08
1.1316e-09
2.41293e-11
-1.1333e-12
-5.00091e-14
-1.16831e-15
0.000881529
0.0235508
0.0996659
0.190013
0.444046
0.901733
0.993701
0.986095
0.968559
0.522026
0.0295903
0.000196348
1.31917e-05
9.06967e-07
5.44736e-08
2.47717e-09
5.58995e-11
-1.06826e-12
-1.13469e-13
0.00082207
0.000882196
0.000293786
8.56861e-05
0.00241965
0.0279
0.266556
0.879183
0.955252
0.914219
0.442219
0.0138969
0.00026254
2.10486e-05
1.58938e-06
1.04075e-07
5.18069e-09
9.14141e-11
-3.31788e-12
0.00233384
0.00206065
0.000190296
5.33606e-06
5.98226e-06
1.02473e-05
3.93698e-05
0.127729
0.762448
0.901454
0.798511
0.250827
0.00259748
0.000286532
2.85226e-05
2.27694e-06
1.17561e-07
2.47397e-09
-4.4108e-11
0.000104079
7.73245e-05
2.30324e-05
1.09658e-07
1.72619e-07
5.29856e-07
1.39153e-06
1.91422e-05
0.188399
0.804081
0.81618
0.570629
0.0604946
0.00117437
0.000135095
1.23426e-05
7.64786e-07
2.07396e-08
-2.38666e-10
1.13212e-09
4.76557e-10
5.29279e-10
-1.34804e-08
8.71724e-09
4.01198e-08
1.19003e-07
6.361e-07
1.91451e-05
0.440645
0.806933
0.707629
0.202031
0.00300243
0.000381773
3.92664e-05
2.77292e-06
9.28255e-08
-6.81316e-10
2.91154e-10
3.9122e-10
5.83315e-10
8.20418e-10
4.32533e-09
1.11657e-08
4.00814e-08
1.19246e-07
6.37029e-07
0.110513
0.687911
0.69524
0.38196
0.0152511
0.000717137
7.94185e-05
5.95043e-06
2.0394e-07
-3.94454e-09
3.3431e-10
3.88839e-10
6.09048e-10
2.23764e-08
2.21137e-07
1.69945e-07
1.72099e-07
1.90127e-07
2.32056e-07
1.37584e-06
0.486859
0.680413
0.488914
0.0526191
0.00118892
0.000124759
9.99487e-06
3.72422e-07
-1.64208e-09
4.35615e-10
3.60889e-10
3.66903e-10
3.46667e-06
1.11716e-05
7.30734e-06
6.25968e-07
2.32056e-07
3.76116e-07
4.90578e-07
0.298452
0.652913
0.516064
0.096554
0.00154356
0.000166508
1.15633e-05
4.56102e-07
-1.99046e-10
4.02939e-10
3.54446e-10
3.60889e-10
7.40054e-06
1.4808e-05
1.4808e-05
1.46306e-05
2.09111e-06
4.90578e-07
8.69325e-07
0.191832
0.605676
0.496315
0.100868
0.00153537
0.000160147
1.09736e-05
3.60999e-07
-9.79673e-11
3.41845e-10
3.15102e-10
3.73684e-10
1.88622e-09
8.37376e-06
1.4808e-05
1.47103e-05
7.98734e-06
8.69325e-07
1.63882e-06
0.128329
0.559334
0.457946
0.0888131
0.00122577
0.000115944
7.51262e-06
2.44697e-07
-4.80124e-10
2.57443e-10
6.07826e-10
2.71823e-08
7.05485e-09
1.01684e-07
5.51272e-06
8.43018e-06
3.5383e-06
1.38257e-06
1.55099e-06
0.133627
0.521684
0.385865
0.0543206
0.000782893
6.89767e-05
7.01081e-06
5.42082e-07
1.36736e-08
2.09338e-10
3.3874e-10
1.40424e-07
8.23829e-07
9.66947e-07
1.18618e-06
1.35418e-06
1.37323e-06
1.43431e-06
1.49872e-06
0.153449
0.485968
0.274168
0.0141736
0.000447371
6.94836e-05
1.66285e-05
1.10261e-06
2.70696e-08
3.2066e-09
4.47608e-10
7.8236e-10
2.37226e-06
3.38918e-06
2.64517e-06
1.36349e-06
1.43431e-06
1.49794e-06
1.52609e-06
0.185365
0.433375
0.147848
0.00179101
0.000290524
0.000126092
2.08301e-05
1.20437e-06
3.81386e-08
1.58603e-08
2.38364e-09
2.42744e-09
1.16489e-06
3.41951e-06
3.41951e-06
1.94654e-06
1.49794e-06
1.52609e-06
0.0255785
0.277413
0.321528
0.0707685
0.000905031
0.000201945
0.000146691
1.89915e-05
1.11863e-06
3.89353e-08
1.58579e-08
3.81866e-09
5.19902e-08
5.78857e-08
8.39041e-07
2.03038e-06
1.97293e-06
1.60946e-06
1.57405e-06
0.214443
0.303849
0.251039
0.0299483
0.000519556
0.000170348
0.00010633
1.38548e-05
8.90135e-07
3.35297e-08
1.16837e-08
6.62411e-09
7.59257e-09
2.35978e-06
1.20392e-06
1.32137e-06
1.39656e-06
2.35295e-06
0.116941
0.303111
0.303064
0.160103
0.0056221
0.00039116
0.000262308
6.29946e-05
8.57279e-06
6.07348e-07
2.42627e-08
2.78083e-10
1.06995e-08
1.06377e-08
5.55902e-06
1.90396e-06
1.41527e-06
0.00138277
0.108421
0.267323
0.285943
0.218559
0.0419156
0.00140515
0.000457161
0.000240487
3.60211e-05
4.52593e-06
3.5234e-07
1.47961e-08
4.34482e-09
4.05593e-08
9.32744e-09
5.53506e-06
2.13697e-06
1.49711e-06
0.0341306
0.230299
0.256522
0.203837
0.0472232
0.00324986
0.00242436
0.000548669
0.000131151
1.77968e-05
2.17814e-06
1.83476e-07
8.09412e-09
1.09247e-08
4.08848e-08
1.0646e-08
2.61433e-06
2.98915e-06
1.95377e-06
0.0637358
0.222013
0.15308
0.0333455
0.00217212
0.0010889
0.00167915
0.00048974
5.03197e-05
8.1117e-06
1.02899e-06
9.17676e-08
4.27788e-09
7.80097e-09
3.38506e-08
1.13241e-08
1.515e-08
1.72291e-05
3.04461e-06
0.051775
0.180286
0.0330259
0.00206754
0.000717667
0.000345599
0.000239736
0.000257053
2.16723e-05
3.44357e-06
4.88805e-07
4.53107e-08
2.23741e-09
7.1669e-09
6.21406e-09
7.48232e-09
7.9636e-07
2.58537e-05
5.23874e-06
0.0687236
0.166323
0.0123444
0.000664601
0.000330644
0.00012431
5.10226e-05
2.07792e-05
1.55666e-05
1.59521e-06
2.35166e-07
2.2738e-08
1.1812e-09
2.6694e-09
5.4581e-09
6.16735e-08
6.76168e-08
2.34785e-05
5.17905e-06
0.0644329
0.145717
0.0859053
0.00339889
0.000104868
4.79778e-05
2.03592e-05
6.23598e-06
6.23908e-06
1.00455e-06
1.15911e-07
1.15418e-08
6.27178e-10
2.72528e-09
7.46351e-09
1.06665e-07
7.43145e-07
8.13294e-07
9.88078e-07
7.93494e-06
0.131166
0.130733
0.00436645
3.80169e-05
1.85581e-05
7.25901e-06
2.42237e-06
5.55007e-07
5.9246e-07
5.92319e-08
5.5211e-09
3.2428e-10
2.26916e-09
4.22414e-09
8.91083e-08
1.37647e-06
9.88318e-07
0.000127187
4.44255e-05
0.124221
0.13
0.0807665
0.00179265
9.48082e-06
2.60481e-06
6.8719e-07
1.78829e-07
8.53186e-08
3.17475e-08
2.71591e-09
1.66947e-10
1.42194e-09
3.30545e-09
2.57602e-08
1.36808e-06
2.78986e-06
0.000133586
5.8141e-05
0.0947797
0.1299
0.129746
0.00231602
1.87509e-05
1.5479e-06
2.83213e-07
6.16214e-08
1.3997e-08
1.1899e-08
1.53963e-09
9.03415e-11
8.7683e-10
2.97802e-09
1.11521e-08
3.30104e-07
5.75723e-06
2.94872e-05
3.38905e-05
0.0125794
0.129746
0.130096
0.0871677
0.00237826
1.62305e-05
7.07953e-07
3.71545e-08
5.43194e-09
2.20521e-09
8.72354e-10
5.12388e-11
4.79659e-10
1.83339e-09
1.53408e-08
1.08235e-07
7.45978e-07
3.77155e-05
0.000846066
0.000670932
0.128293
0.130096
0.130096
0.0220841
7.69596e-05
3.12957e-06
7.70116e-08
2.665e-09
5.73447e-10
4.89227e-10
2.79319e-11
2.56382e-10
7.74732e-10
8.66733e-09
1.64134e-07
1.50812e-06
4.44112e-06
0.000396274
0.000419883
0.0907421
0.130096
0.129489
0.0818546
0.00104668
4.33649e-06
8.13424e-08
1.84148e-09
6.71502e-10
2.83964e-10
1.40979e-11
1.44039e-10
3.80961e-10
2.64126e-09
5.93285e-08
1.28046e-06
5.07253e-06
9.58365e-05
0.00282148
0.0151994
0.129489
0.128583
0.0750147
0.000923745
5.0013e-05
2.24782e-06
3.11484e-08
6.83538e-10
1.53092e-10
6.74508e-12
5.80544e-11
1.67539e-10
2.09901e-09
3.23035e-08
3.97457e-07
3.16546e-06
1.74311e-05
0.00212426
0.00779408
0.0634834
0.0738335
0.0237282
0.00153342
2.64596e-06
1.59621e-06
1.89874e-08
3.36702e-10
7.44439e-11
3.17394e-12
9.55513e-12
8.0617e-11
1.22957e-09
1.93445e-08
2.54362e-07
2.63123e-06
2.44388e-05
0.00179244
0.00435753
0.00234095
0.00369965
0.000393775
0.000536497
2.62636e-07
-5.43053e-09
-1.67004e-10
3.21786e-11
3.54006e-11
1.44154e-12
1.72906e-12
2.22166e-11
3.24163e-10
4.98424e-09
8.58656e-08
1.08269e-06
1.26831e-05
0.000502195
0.000832784
0.000421731
0.00056975
0.000126714
3.83254e-06
9.31245e-08
-1.81933e-09
-3.40504e-11
1.60697e-11
1.70983e-11
6.26541e-13
1.52325e-13
2.84109e-12
5.9276e-11
8.58332e-10
1.54505e-08
2.05295e-07
5.61321e-06
8.62539e-05
0.000127952
0.00011751
0.000134389
3.81782e-05
1.23103e-06
1.96494e-08
-1.8535e-10
-2.06728e-12
8.84107e-12
8.16923e-12
2.6031e-13
3.43826e-15
1.546e-13
5.05897e-12
6.9067e-11
1.3096e-09
1.84605e-08
6.55665e-07
1.20759e-05
2.11766e-05
2.98101e-05
3.14897e-05
1.06421e-05
3.80713e-07
9.35432e-09
-1.94184e-10
2.52159e-12
4.0821e-12
3.7831e-12
1.03533e-13
2.35384e-18
2.94793e-16
2.20648e-14
1.21468e-12
2.70113e-11
7.52693e-10
3.29691e-08
7.26355e-07
2.79852e-06
6.57461e-06
8.8611e-06
2.77807e-06
1.0581e-07
3.40408e-09
3.20101e-11
1.68572e-12
2.45114e-12
1.75401e-12
4.16586e-14
-4.75686e-33
-2.11037e-29
-5.06888e-27
-9.52844e-25
-8.41957e-15
-2.8927e-12
1.29938e-09
1.42614e-08
1.66036e-07
1.71155e-06
4.08142e-06
6.97327e-07
2.8398e-08
9.54618e-10
1.56301e-11
1.5812e-12
1.20711e-12
4.95353e-13
9.99697e-15
)
;

boundaryField
{
    leftWall
    {
        type            zeroGradient;
    }
    rightWall
    {
        type            zeroGradient;
    }
    lowerWall
    {
        type            zeroGradient;
    }
    atmosphere
    {
        type            inletOutlet;
        inletValue      uniform 0;
        value           nonuniform List<scalar> 
46
(
0
0
0
0
0
0
0
0
0
0
0
0
0
0
0
0
0
0
0
0
0
0
0
0
0
0
0
0
0
0
0
0
0
1.29938e-09
1.42614e-08
1.66036e-07
1.71155e-06
4.08142e-06
6.97327e-07
2.8398e-08
9.54618e-10
1.56301e-11
1.5812e-12
1.20711e-12
4.95353e-13
9.99697e-15
)
;
    }
    defaultFaces
    {
        type            empty;
    }
}


// ************************************************************************* //
