/*--------------------------------*- C++ -*----------------------------------*\
| =========                 |                                                 |
| \\      /  F ield         | OpenFOAM: The Open Source CFD Toolbox           |
|  \\    /   O peration     | Version:  5.x                                   |
|   \\  /    A nd           | Web:      www.OpenFOAM.org                      |
|    \\/     M anipulation  |                                                 |
\*---------------------------------------------------------------------------*/
FoamFile
{
    version     2.0;
    format      ascii;
    class       surfaceScalarField;
    location    "0.3";
    object      alphaPhi10;
}
// * * * * * * * * * * * * * * * * * * * * * * * * * * * * * * * * * * * * * //

dimensions      [0 3 -1 0 0 0 0];

internalField   nonuniform List<scalar> 
4432
(
-8.96809e-07
8.96809e-07
2.77408e-06
-3.67089e-06
8.87573e-06
-6.10165e-06
1.53994e-05
-6.52366e-06
2.12592e-05
-5.85986e-06
2.61934e-05
-4.93416e-06
3.03497e-05
-4.15627e-06
3.39745e-05
-3.62486e-06
3.72647e-05
-3.29019e-06
4.03176e-05
-3.05292e-06
4.31324e-05
-2.81481e-06
4.56298e-05
-2.49738e-06
4.76683e-05
-2.03849e-06
4.90302e-05
-1.36191e-06
4.92511e-05
-2.20854e-07
4.74256e-05
1.82551e-06
4.23088e-05
5.11681e-06
3.24522e-05
9.85657e-06
1.74986e-05
1.49536e-05
-4.94479e-08
1.7548e-05
-1.01671e-05
1.18117e-05
-1.38432e-05
3.29254e-06
-1.62204e-05
-8.17106e-07
1.71391e-06
2.92317e-06
-7.41116e-06
9.0446e-06
-1.22231e-05
1.55458e-05
-1.30249e-05
2.13751e-05
-1.16891e-05
2.62916e-05
-9.85065e-06
3.04528e-05
-8.31746e-06
3.4107e-05
-7.27905e-06
3.74455e-05
-6.62869e-06
4.05583e-05
-6.16574e-06
4.3439e-05
-5.69557e-06
4.60075e-05
-5.06579e-06
4.81285e-05
-4.15952e-06
4.96322e-05
-2.86564e-06
5.05135e-05
-1.10216e-06
5.08823e-05
1.45669e-06
5.06297e-05
5.36947e-06
4.84564e-05
1.20298e-05
4.12662e-05
2.21439e-05
2.61314e-05
3.26828e-05
4.9411e-06
3.35118e-05
-4.34635e-06
1.32283e-05
-2.05667e-05
-6.5321e-07
2.36713e-06
3.16346e-06
-1.12278e-05
9.28019e-06
-1.83398e-05
1.56885e-05
-1.94332e-05
2.13992e-05
-1.73998e-05
2.62237e-05
-1.46752e-05
3.03437e-05
-1.24374e-05
3.40084e-05
-1.09438e-05
3.73965e-05
-1.00168e-05
4.05817e-05
-9.35096e-06
4.35462e-05
-8.66006e-06
4.62057e-05
-7.72523e-06
4.84327e-05
-6.38652e-06
5.00747e-05
-4.50762e-06
5.09195e-05
-1.94705e-06
5.08362e-05
1.53999e-06
4.99116e-05
6.29413e-06
4.88364e-05
1.31049e-05
4.75248e-05
2.34555e-05
4.27152e-05
3.74924e-05
2.99511e-05
4.62759e-05
1.28204e-05
3.03586e-05
-7.84116e-06
-4.08988e-07
2.77611e-06
3.51614e-06
-1.5153e-05
9.61382e-06
-2.44375e-05
1.5884e-05
-2.57034e-05
2.14264e-05
-2.29422e-05
2.61282e-05
-1.93769e-05
3.02031e-05
-1.65123e-05
3.38971e-05
-1.46377e-05
3.73667e-05
-1.34864e-05
4.06622e-05
-1.26465e-05
4.37501e-05
-1.1748e-05
4.65411e-05
-1.05162e-05
4.89113e-05
-8.7567e-06
5.07144e-05
-6.31067e-06
5.17827e-05
-3.01538e-06
5.19572e-05
1.36549e-06
5.11105e-05
7.14085e-06
4.95086e-05
1.47068e-05
4.83793e-05
2.45847e-05
4.77965e-05
3.80753e-05
4.20418e-05
5.20306e-05
2.48493e-05
4.75511e-05
1.69686e-05
-7.31245e-08
2.84924e-06
3.95843e-06
-1.91845e-05
1.00098e-05
-3.04889e-05
1.60954e-05
-3.1789e-05
2.14282e-05
-2.8275e-05
2.59881e-05
-2.39368e-05
3.00232e-05
-2.05474e-05
3.37676e-05
-1.83821e-05
3.73472e-05
-1.7066e-05
4.07829e-05
-1.60822e-05
4.4023e-05
-1.49881e-05
4.69734e-05
-1.34666e-05
4.95159e-05
-1.12993e-05
5.15184e-05
-8.31313e-06
5.28387e-05
-4.3357e-06
5.33518e-05
8.52387e-07
5.29658e-05
7.52688e-06
5.16381e-05
1.60345e-05
4.97545e-05
2.64682e-05
4.86788e-05
3.9151e-05
4.56192e-05
5.50902e-05
3.07592e-05
6.24111e-05
4.777e-05
2.43004e-07
2.60623e-06
4.46486e-06
-2.34064e-05
1.04436e-05
-3.64676e-05
1.63005e-05
-3.76458e-05
2.13944e-05
-3.3369e-05
2.58079e-05
-2.83503e-05
2.98183e-05
-2.45578e-05
3.36373e-05
-2.22011e-05
3.73514e-05
-2.07801e-05
4.09486e-05
-1.96794e-05
4.43595e-05
-1.8399e-05
4.74874e-05
-1.65945e-05
5.02228e-05
-1.40346e-05
5.24485e-05
-1.05389e-05
5.40434e-05
-5.93063e-06
5.49021e-05
-6.29398e-09
5.49498e-05
7.47917e-06
5.4155e-05
1.68293e-05
5.2312e-05
2.83113e-05
4.99582e-05
4.15047e-05
4.65554e-05
5.8493e-05
3.34418e-05
7.55247e-05
8.12118e-05
6.19908e-07
1.98633e-06
5.02686e-06
-2.78133e-05
1.0899e-05
-4.23397e-05
1.64887e-05
-4.32356e-05
2.13288e-05
-3.82091e-05
2.56063e-05
-3.26278e-05
2.96162e-05
-2.85677e-05
3.35354e-05
-2.61203e-05
3.7405e-05
-2.46497e-05
4.11797e-05
-2.34542e-05
4.4776e-05
-2.19952e-05
4.80987e-05
-1.99171e-05
5.10488e-05
-1.69847e-05
5.35216e-05
-1.30117e-05
5.54089e-05
-7.81794e-06
5.66148e-05
-1.21214e-06
5.7074e-05
7.01993e-06
5.67634e-05
1.714e-05
5.54528e-05
2.96219e-05
5.27863e-05
4.41712e-05
4.84502e-05
6.28292e-05
3.74726e-05
8.65023e-05
0.000118684
1.04035e-06
9.45981e-07
5.6269e-06
-3.23999e-05
1.13597e-05
-4.80725e-05
1.66638e-05
-4.85396e-05
2.12592e-05
-4.28045e-05
2.54287e-05
-3.67973e-05
2.94701e-05
-3.26092e-05
3.35162e-05
-3.01664e-05
3.7561e-05
-2.86945e-05
4.15301e-05
-2.74233e-05
4.53313e-05
-2.57965e-05
4.88754e-05
-2.34612e-05
5.20728e-05
-2.01821e-05
5.48233e-05
-1.57622e-05
5.70194e-05
-1.00141e-05
5.85707e-05
-2.76342e-06
5.94263e-05
6.16435e-06
5.95551e-05
1.70112e-05
5.88647e-05
3.03122e-05
5.68261e-05
4.62099e-05
5.23085e-05
6.73468e-05
4.14323e-05
9.73784e-05
0.000160117
4.28468e-16
-4.28468e-16
2.71875e-16
1.63254e-16
2.3022e-17
1.04518e-18
2.22641e-19
1.88572e-19
4.49254e-21
1.30996e-21
1.54071e-22
-1.24508e-22
5.76889e-24
-9.86984e-24
2.30045e-25
-4.03413e-25
9.90564e-27
-1.30163e-26
4.57024e-28
-3.35422e-28
2.15237e-29
-7.53253e-31
9.20859e-31
3.77852e-31
3.15614e-32
3.09929e-32
8.89808e-34
1.64746e-33
1.94644e-35
6.56496e-35
2.97463e-37
1.94832e-36
2.67223e-39
4.05795e-38
9.43614e-42
5.21964e-40
3.07849e-42
4.23632e-14
-4.28498e-14
7.20291e-16
4.17504e-14
3.71241e-16
1.21376e-16
4.41227e-18
7.58982e-18
9.47026e-20
5.49926e-20
3.95008e-21
-9.08582e-21
1.68679e-22
-6.33698e-22
7.50559e-24
-2.56568e-23
3.36594e-25
-8.94853e-25
1.55156e-26
-2.22106e-26
8.73326e-28
-2.35291e-28
5.08559e-29
4.39067e-29
1.95831e-30
5.21558e-30
6.08539e-32
3.34673e-31
1.49016e-33
1.54425e-32
2.52713e-35
5.20986e-34
2.4577e-37
1.20412e-35
1.11051e-39
1.65692e-37
1.0601e-39
1.95237e-12
-1.98891e-12
1.25081e-14
1.9813e-12
3.53712e-15
2.40207e-14
2.85367e-17
2.26274e-16
1.70863e-18
1.3709e-18
1.16724e-19
-2.18778e-19
5.42039e-21
-2.9049e-20
2.80862e-22
-1.48518e-21
1.19175e-23
-4.63786e-23
4.02748e-25
-1.06897e-24
1.81528e-26
-8.63782e-27
1.72862e-27
1.53054e-27
6.20788e-29
2.25732e-28
1.6083e-30
1.39368e-29
3.62159e-32
6.05485e-31
5.585e-34
1.90031e-32
4.97427e-36
3.9764e-34
3.45809e-38
5.30688e-36
3.46546e-38
5.24372e-11
-5.44071e-11
1.78667e-12
5.24203e-11
1.37752e-14
1.79935e-12
-1.69554e-16
1.62195e-14
1.42988e-17
9.17963e-17
2.71467e-18
-2.70601e-18
1.78746e-19
-9.43637e-19
1.31829e-20
-1.70322e-19
5.05511e-22
-3.05386e-21
3.14846e-23
-6.93656e-23
5.0379e-25
-1.27491e-24
4.48421e-26
6.30302e-26
2.15668e-27
8.56509e-27
4.84662e-29
5.62429e-28
9.62434e-31
2.30129e-29
1.40486e-32
6.64912e-31
1.32094e-34
1.42416e-32
1.24801e-36
1.93525e-34
1.2616e-36
8.90698e-10
-9.44975e-10
2.18673e-10
7.201e-10
1.11801e-12
2.19191e-10
3.68462e-15
1.13287e-12
6.83023e-17
6.87751e-15
2.30946e-17
-6.49225e-17
3.48786e-18
-5.37534e-18
6.52219e-19
-1.29014e-18
3.46165e-20
-2.12281e-19
3.03318e-21
-6.89965e-21
3.36525e-23
-2.14639e-22
1.18233e-24
3.98287e-24
2.07389e-25
4.36553e-25
2.47751e-27
3.38593e-26
4.09923e-29
1.25989e-27
6.2328e-31
3.61167e-29
6.22571e-33
8.13944e-31
7.44717e-35
1.13051e-32
7.56405e-35
4.60853e-09
-5.55311e-09
8.94069e-09
-2.02356e-08
1.92699e-11
3.19692e-09
9.56542e-14
2.01479e-11
-3.07852e-15
1.49431e-13
4.39911e-16
-1.05216e-15
1.04535e-16
5.00709e-16
2.19878e-17
8.73664e-17
2.81403e-18
2.03155e-19
2.08991e-19
-6.64269e-19
3.50313e-21
-1.60395e-20
6.58252e-23
2.66216e-22
1.60835e-23
2.89321e-23
1.62324e-25
2.50175e-24
2.34962e-27
8.49977e-26
3.79913e-29
2.53331e-27
4.51215e-31
5.85652e-29
5.77341e-33
8.42714e-31
5.87616e-33
3.45511e-08
-4.01014e-08
3.20611e-08
-5.64697e-08
4.94167e-11
1.17178e-08
3.84402e-13
6.60375e-11
-1.10483e-15
9.3958e-13
1.68526e-14
4.337e-15
6.42052e-15
1.40956e-14
1.90684e-15
5.14511e-15
8.11067e-17
1.9119e-15
9.88359e-18
-3.38574e-18
2.26927e-19
-9.11804e-19
3.59388e-21
1.45618e-20
8.53003e-22
1.73424e-21
8.64149e-24
1.50387e-22
1.31529e-25
5.19602e-24
2.25673e-27
1.63942e-25
3.74038e-29
3.95253e-27
4.19419e-31
5.86036e-29
4.29539e-31
5.08161e-08
-9.0911e-08
-7.08597e-09
1.56324e-10
-2.64003e-11
4.71356e-09
4.70525e-13
3.465e-11
1.13436e-12
9.70032e-12
1.65471e-12
4.40459e-13
3.96468e-13
1.33891e-12
1.19811e-13
2.82845e-13
5.67337e-15
1.27031e-13
4.07246e-16
5.12158e-15
1.00952e-17
7.80131e-17
1.8068e-19
6.811e-19
3.69363e-20
9.30172e-20
3.90272e-22
7.61039e-21
6.93327e-24
2.87604e-22
1.25096e-25
9.60757e-24
2.7266e-27
2.42107e-25
2.80623e-29
3.70914e-27
2.8686e-29
3.62065e-06
-2.67467e-06
1.39371e-05
-4.27164e-05
2.56925e-05
-5.98279e-05
3.60624e-05
-5.89095e-05
4.51309e-05
-5.1873e-05
5.38031e-05
-4.54696e-05
6.26409e-05
-4.14469e-05
7.17366e-05
-3.92621e-05
8.09311e-05
-3.7889e-05
8.99989e-05
-3.64911e-05
9.8742e-05
-3.45396e-05
0.000107
-3.17187e-05
0.000114608
-2.77902e-05
0.000121377
-2.25318e-05
0.000127123
-1.57599e-05
0.000131688
-7.32835e-06
0.000135021
2.83108e-06
0.000136974
1.50585e-05
0.000137661
2.96254e-05
0.00013705
4.68202e-05
0.000136247
6.81501e-05
0.000142137
9.14886e-05
0.000130564
0.000171678
5.6706e-06
-8.34528e-06
1.66691e-05
-5.37149e-05
2.75846e-05
-7.07434e-05
3.67415e-05
-6.80664e-05
4.50833e-05
-6.02148e-05
5.37084e-05
-5.40947e-05
6.29556e-05
-5.06941e-05
7.2637e-05
-4.89436e-05
8.24277e-05
-4.76798e-05
9.20589e-05
-4.61223e-05
0.000101363
-4.3844e-05
0.000110227
-4.05823e-05
0.000118567
-3.61301e-05
0.000126304
-3.02693e-05
0.00013342
-2.28756e-05
0.000140107
-1.4015e-05
0.000146
-3.06212e-06
0.000151358
9.70042e-06
0.00015601
2.49732e-05
0.000160981
4.18497e-05
0.000169438
5.9693e-05
0.000184553
7.63736e-05
9.94451e-05
0.000215662
7.99243e-06
-1.63377e-05
1.92766e-05
-6.4999e-05
2.88213e-05
-8.02885e-05
3.66569e-05
-7.59024e-05
4.44536e-05
-6.80118e-05
5.31256e-05
-6.2767e-05
6.25793e-05
-6.01482e-05
7.23645e-05
-5.87291e-05
8.21167e-05
-5.74317e-05
9.16462e-05
-5.56513e-05
0.000100904
-5.31009e-05
0.000109868
-4.95459e-05
0.000118691
-4.49531e-05
0.000127522
-3.90989e-05
0.000136297
-3.16495e-05
0.000144658
-2.2376e-05
0.000153229
-1.16333e-05
0.00016234
5.63471e-07
0.000169
1.83129e-05
0.000176128
3.47218e-05
0.000185899
4.99219e-05
0.000197927
6.43453e-05
7.76041e-05
0.000219768
1.10173e-05
-2.7355e-05
2.2071e-05
-7.60511e-05
2.9289e-05
-8.75111e-05
3.54606e-05
-8.208e-05
4.28028e-05
-7.53563e-05
5.15452e-05
-7.15074e-05
6.10452e-05
-6.96434e-05
7.07996e-05
-6.84748e-05
8.06347e-05
-6.72537e-05
9.06458e-05
-6.5645e-05
0.00010135
-6.37855e-05
0.000112323
-6.05e-05
0.000122679
-5.21676e-05
0.000131334
-4.11298e-05
0.000138383
-2.99384e-05
0.000144052
-1.949e-05
0.000149658
-1.07711e-05
0.000154857
-2.61712e-06
0.000167343
6.32911e-06
0.000183318
1.8105e-05
0.000197987
3.52537e-05
0.000207026
5.53062e-05
6.43458e-05
0.000220284
1.58966e-05
-4.32516e-05
2.70512e-05
-8.71573e-05
3.03305e-05
-9.07172e-05
3.43687e-05
-8.60502e-05
4.18597e-05
-8.27859e-05
5.15348e-05
-8.0307e-05
6.14824e-05
-7.37742e-05
7.03898e-05
-6.42647e-05
7.69614e-05
-5.25203e-05
7.99365e-05
-3.98924e-05
7.79139e-05
-2.66802e-05
6.72107e-05
-6.24769e-06
5.3914e-05
-7.731e-07
4.21863e-05
-9.19217e-08
3.19425e-05
-1.16415e-08
2.33107e-05
-2.15347e-09
1.77677e-05
-1.81887e-09
1.64469e-05
-2.01342e-09
2.35457e-05
3.39832e-07
4.11282e-05
5.79811e-07
7.36726e-05
4.98602e-07
0.000123037
1.41917e-06
8.79692e-06
0.000175118
2.32889e-05
-5.99289e-05
2.60869e-05
-4.65107e-05
2.4594e-05
-3.01432e-05
2.59137e-05
-2.87684e-05
2.86057e-05
-2.5312e-05
2.94899e-05
-5.06357e-06
2.66639e-05
-2.19387e-07
2.20679e-05
-1.05947e-08
1.60972e-05
-5.67256e-10
9.4432e-06
-3.40424e-11
7.12577e-06
-2.92845e-12
8.78084e-07
-2.37654e-13
1.04985e-07
-4.44362e-13
1.35968e-08
-5.70136e-10
2.25979e-09
-5.10881e-10
1.40164e-09
-7.13372e-10
1.70985e-09
-6.82822e-10
1.94689e-09
-1.90626e-10
3.41907e-07
3.3113e-09
8.96477e-07
2.8108e-08
1.33189e-06
6.44167e-08
2.62556e-06
1.26788e-07
2.39999e-07
1.08099e-05
1.20081e-05
3.69843e-24
1.8685e-06
2.49178e-25
1.96695e-06
-1.49306e-21
1.96297e-06
-1.11086e-19
1.80878e-06
-1.16862e-17
2.30585e-07
-4.38436e-16
1.11985e-08
-5.10378e-15
6.0377e-10
-1.08875e-14
3.65398e-11
-1.72902e-14
2.51445e-12
-7.79368e-15
3.72927e-13
-5.97189e-13
3.75698e-13
-3.8388e-13
4.66048e-13
-3.88775e-13
1.25569e-10
-6.94545e-10
7.37664e-10
-1.15926e-09
1.8114e-09
-1.99357e-09
2.96828e-09
-8.6519e-10
4.55312e-09
-1.48137e-09
8.94942e-09
1.75844e-10
3.28442e-08
4.8793e-09
9.24454e-08
5.7488e-09
2.07682e-07
1.21818e-08
2.47897e-10
4.76055e-07
-4.1015e-25
2.20821e-23
-4.39265e-26
2.64414e-26
3.19914e-23
-1.5251e-21
2.95407e-21
-1.14207e-19
3.28377e-19
-1.20235e-17
1.3344e-17
-4.52517e-16
1.49305e-16
-5.27125e-15
5.40226e-16
-1.11644e-14
1.35227e-15
-6.34398e-15
2.33911e-15
-3.75349e-15
2.10643e-13
-7.96193e-13
4.52117e-13
-6.8895e-13
1.25365e-12
-1.40515e-12
1.68381e-09
-2.37712e-09
8.7933e-09
-8.43847e-09
3.70595e-08
-3.09103e-08
4.81629e-08
-2.65173e-08
1.90152e-08
-1.79479e-09
9.53576e-09
2.07471e-09
1.1385e-08
3.49283e-09
1.25897e-08
4.17342e-09
1.84242e-08
6.27578e-09
7.60505e-09
4.2196e-08
1.34106e-27
2.54904e-23
-1.36809e-23
-1.58851e-23
3.4186e-22
-8.34309e-21
5.01826e-20
-6.06233e-19
5.84715e-18
-5.17466e-17
2.6246e-16
-2.08916e-15
3.66402e-15
-2.09924e-14
7.00275e-15
-3.23974e-14
3.31667e-15
-9.93751e-15
1.5358e-14
-5.80875e-15
2.19464e-12
-1.06883e-11
2.62805e-12
-5.60286e-12
1.5665e-11
-1.46527e-11
3.7185e-08
-5.74202e-08
1.74196e-07
-2.04724e-07
9.91485e-08
-6.78138e-08
1.52755e-08
-1.08429e-08
1.24302e-08
-3.8629e-10
7.39638e-09
2.50807e-09
7.44854e-09
3.17496e-09
8.0587e-09
3.27393e-09
9.82329e-09
4.29973e-09
2.34724e-09
1.51689e-08
-3.32769e-25
2.03621e-23
3.41156e-24
-5.51336e-23
3.43673e-21
-2.32238e-20
5.13523e-19
-2.39865e-18
8.01363e-17
-3.33555e-16
2.84845e-15
-1.01451e-14
1.2153e-14
-3.93104e-14
1.45066e-14
-3.97754e-14
6.91442e-15
-7.13657e-15
4.92766e-14
-3.95954e-14
2.2701e-11
-1.03028e-10
9.4421e-12
-9.11289e-12
1.29897e-10
-1.33202e-10
6.28485e-08
-1.55652e-07
1.13442e-07
-2.0785e-07
5.40859e-08
-1.22798e-07
3.29164e-09
-1.28194e-08
4.68833e-09
-2.15513e-09
4.59601e-09
2.33465e-09
5.8993e-09
1.60596e-09
8.25394e-08
5.00835e-09
5.51661e-07
1.02487e-08
-6.87837e-09
5.94854e-07
-1.0004e-24
1.328e-23
1.45185e-23
-1.13844e-22
6.1466e-21
-2.69077e-20
1.09845e-18
-3.28976e-18
2.22567e-16
-6.19934e-16
3.40601e-15
-1.54203e-14
1.25278e-14
-4.07982e-14
1.30237e-14
-3.84219e-14
8.66044e-15
-5.17223e-15
1.74356e-13
-1.59633e-13
3.70574e-11
-1.01811e-10
2.00489e-11
-5.8314e-12
1.13516e-09
-1.25203e-09
2.42381e-08
-6.70667e-08
2.48248e-08
-1.61098e-07
7.79432e-09
-2.97662e-07
1.26905e-08
-7.76386e-08
3.8633e-08
-5.02288e-08
1.6737e-07
-2.4543e-08
2.42685e-07
-2.57532e-08
2.90233e-07
-6.90074e-09
3.42919e-07
-1.55213e-09
-5.42448e-09
1.25684e-07
-9.14978e-25
7.69171e-24
1.97582e-23
-1.16825e-22
6.33635e-21
-2.56961e-20
1.25992e-18
-3.42779e-18
2.89463e-16
-7.31878e-16
4.64894e-15
-1.50804e-14
1.14797e-14
-3.99951e-14
8.49179e-15
-2.77219e-14
6.73765e-15
-4.58853e-15
1.51393e-12
-3.34307e-14
2.71427e-11
-8.57189e-11
2.65445e-11
-5.64503e-12
6.04231e-10
-6.13313e-13
1.54829e-09
-1.95567e-15
1.49545e-09
7.38848e-16
1.60784e-08
-1.23393e-07
5.86609e-08
-1.02093e-07
9.90483e-08
-7.55842e-08
1.15379e-07
-2.83729e-08
1.04712e-07
-4.06707e-09
2.81201e-08
-2.38031e-10
6.30248e-09
-1.62046e-11
-1.34172e-12
8.77286e-10
-5.215e-25
3.68899e-24
1.82156e-23
-8.11388e-23
4.86669e-21
-1.3404e-20
1.17003e-18
-2.73267e-18
2.88725e-16
-7.16546e-16
4.97542e-15
-9.86808e-15
1.02892e-14
-2.83882e-14
3.95615e-15
-1.48261e-14
3.92065e-15
-4.4771e-15
2.86418e-13
-3.1587e-13
6.80858e-12
-8.15471e-14
6.21151e-13
-3.0319e-15
7.59476e-15
2.42916e-16
1.66872e-17
4.85772e-15
-3.64408e-17
7.60706e-15
2.96179e-09
1.39788e-15
8.93251e-09
1.17026e-16
1.49187e-08
-1.89601e-16
4.32274e-09
-1.60571e-15
2.55673e-10
-3.42933e-15
1.7647e-11
-5.17595e-15
1.45403e-12
-6.58126e-15
-1.22164e-14
1.25032e-13
-2.27813e-25
1.74518e-24
8.54003e-24
-2.32548e-23
1.95061e-21
-3.86728e-21
6.49607e-19
-1.06001e-18
2.14007e-16
-3.83831e-16
2.46992e-15
-4.00607e-15
4.84475e-15
-8.703e-15
1.86744e-15
-4.9043e-15
1.19045e-15
-3.83262e-15
8.16207e-14
-2.77538e-15
1.8059e-15
-1.72761e-15
6.13302e-17
-1.28733e-15
-4.88957e-17
1.24934e-15
-9.19065e-16
7.74982e-15
-1.29163e-15
1.25086e-14
-2.52559e-16
2.78986e-15
-2.97706e-17
3.04173e-16
5.22142e-18
-2.24593e-16
3.80267e-17
-1.62944e-15
1.48493e-16
-3.49042e-15
4.10682e-16
-5.28151e-15
9.50332e-16
-6.40641e-15
-1.07176e-14
2.49962e-15
-9.34493e-26
1.21403e-24
2.01895e-24
-3.32629e-24
5.20226e-22
-1.19617e-21
1.90711e-19
-2.41382e-19
8.23376e-17
-1.04154e-16
7.74851e-16
-1.02665e-15
1.24834e-15
-1.91974e-15
8.069e-16
-1.21639e-15
8.72309e-16
-1.94238e-15
7.48643e-16
-4.11675e-15
3.52833e-16
-4.74942e-15
3.4837e-16
-4.78932e-15
-3.33964e-16
-1.16955e-15
-2.0918e-15
2.99473e-15
-3.56338e-15
5.91691e-15
-8.96658e-16
1.69185e-15
-1.24683e-16
1.88575e-16
3.12771e-16
-4.95692e-16
1.42234e-15
-1.39745e-15
4.07982e-15
-2.56342e-15
8.03656e-15
-3.9965e-15
1.36679e-14
-6.04009e-15
-1.26957e-14
2.93277e-14
-5.60665e-26
1.23776e-24
2.77815e-25
7.30439e-25
1.81778e-22
-7.91646e-22
3.65736e-20
-3.77444e-20
1.87679e-17
-1.79972e-17
1.65683e-16
-1.74719e-16
2.48568e-16
-3.34237e-16
1.87832e-16
-2.9326e-16
4.98606e-16
-6.77172e-16
1.14037e-15
-3.02368e-15
1.41445e-15
-4.14732e-15
1.43106e-15
-4.25104e-15
3.56375e-16
-2.01072e-15
-9.49021e-16
-5.0634e-16
-2.02412e-15
-4.91014e-17
-6.56719e-16
-1.36551e-17
-8.86135e-17
-5.69229e-17
5.39793e-16
-1.53612e-16
1.3793e-15
-3.28599e-16
2.27222e-15
-8.08587e-16
4.52832e-15
-1.96902e-15
9.15433e-15
-3.79628e-15
-1.19953e-14
2.73709e-14
-4.99363e-26
1.25137e-24
-4.40733e-26
1.81433e-24
1.20821e-22
-6.31006e-22
5.09405e-21
-5.31562e-21
2.86732e-18
-2.03468e-18
2.53938e-17
-1.99021e-17
3.90882e-17
-4.33568e-17
4.22865e-17
-7.16923e-17
1.71395e-16
-1.95537e-16
8.44035e-16
-6.65658e-16
1.2315e-15
-2.37139e-15
9.55278e-16
-1.55045e-15
3.90953e-16
-6.83942e-16
4.90895e-17
-2.03505e-16
5.14638e-18
-3.63701e-17
5.23184e-18
-3.56151e-18
3.74303e-17
-4.41591e-18
6.79019e-17
-1.89019e-17
2.06164e-16
-8.57933e-17
7.06009e-16
-3.48743e-16
2.17011e-15
-1.18119e-15
5.44644e-15
-2.86385e-15
-1.21268e-14
2.29293e-14
-4.47931e-26
1.05591e-24
-1.02544e-25
2.59236e-24
8.00239e-23
-3.15898e-22
6.39187e-22
-1.03791e-21
2.91886e-19
-1.42286e-19
2.72893e-18
-1.39615e-18
6.26372e-18
-5.52762e-18
1.35835e-17
-2.19066e-17
4.5602e-17
-6.1932e-17
1.618e-16
-1.44237e-16
4.15343e-16
-3.03259e-16
1.97683e-16
-2.41502e-16
7.01626e-17
-1.17087e-16
1.90072e-17
-3.3357e-17
4.01077e-18
-7.06744e-18
8.80735e-19
-5.38995e-19
1.39034e-18
-6.13598e-19
1.05584e-17
-3.67165e-18
6.263e-17
-2.79797e-17
3.22558e-16
-1.73102e-16
1.29192e-15
-7.68684e-16
3.97948e-15
-2.32294e-15
-1.17482e-14
2.05114e-14
-3.4024e-26
7.02976e-25
-1.37354e-25
2.70278e-24
2.6879e-23
-4.66726e-23
1.08573e-22
-2.00675e-22
1.85071e-20
-4.69342e-21
1.97059e-19
-6.69891e-20
9.56614e-19
-1.17975e-18
4.57797e-18
-7.71172e-18
1.32976e-17
-2.21172e-17
3.00723e-17
-3.95342e-17
4.68291e-17
-4.86942e-17
3.39685e-17
-3.87295e-17
1.2255e-17
-1.75009e-17
2.65137e-18
-4.67597e-18
4.21283e-19
-1.44215e-18
1.37922e-19
-1.81576e-19
1.98838e-19
-1.39701e-19
2.20285e-18
-9.60486e-19
2.1201e-17
-1.09662e-17
1.57767e-16
-9.24088e-17
7.99633e-16
-5.02684e-16
3.02532e-15
-1.9072e-15
-1.19037e-14
1.76427e-14
-2.06409e-26
3.48968e-25
-1.34335e-25
1.96002e-24
3.41822e-24
1.46258e-25
1.9733e-23
-1.69016e-23
5.57199e-22
-1.10771e-23
1.00465e-20
-7.08552e-21
2.2306e-19
-2.76561e-19
1.54405e-18
-2.15049e-18
4.26158e-18
-7.19014e-18
6.75625e-18
-1.17812e-17
7.73567e-18
-1.24338e-17
5.40385e-18
-9.06924e-18
1.70106e-18
-3.41552e-18
4.09171e-19
-7.13993e-19
1.21529e-19
-2.24803e-19
3.65265e-20
-3.4184e-20
4.02001e-20
-3.42875e-20
5.86969e-19
-3.15727e-19
8.15191e-18
-4.48665e-18
7.89962e-17
-4.67544e-17
4.83433e-16
-3.03788e-16
2.33278e-15
-1.59538e-15
-1.21994e-14
1.58747e-14
-9.42103e-27
1.18008e-25
-9.13904e-26
8.63823e-25
-1.02706e-26
1.36779e-24
8.14222e-25
1.2871e-25
6.45113e-25
-4.48397e-26
1.0775e-21
-8.6543e-22
4.82975e-20
-3.26167e-20
3.93571e-19
-3.84428e-19
1.24481e-18
-1.67438e-18
1.76891e-18
-3.08182e-18
1.96588e-18
-3.47504e-18
1.18955e-18
-2.57194e-18
2.91552e-19
-9.91987e-19
5.61931e-20
-1.60107e-19
1.72691e-20
-2.54641e-20
7.69328e-21
-3.9215e-21
1.00923e-20
-7.69566e-21
1.88317e-19
-1.03756e-19
3.09127e-18
-1.67556e-18
3.59781e-17
-2.04834e-17
2.67293e-16
-1.67707e-16
1.84197e-15
-1.39103e-15
-1.15899e-14
1.39501e-14
-2.94582e-27
2.34593e-26
-3.77648e-26
1.71237e-25
-9.01165e-26
3.06295e-25
-1.12784e-26
2.63023e-26
1.88366e-26
1.50747e-27
1.18274e-22
-3.06063e-25
5.05487e-21
-1.4404e-21
6.54559e-20
-4.50676e-20
2.69928e-19
-2.43355e-19
4.41799e-19
-5.04224e-19
5.04316e-19
-6.23614e-19
3.23194e-19
-5.23506e-19
8.03521e-20
-2.34069e-19
7.93221e-21
-3.53394e-20
1.26492e-21
-1.99364e-21
8.53973e-22
-7.25847e-22
2.98901e-21
-2.08844e-21
5.77555e-20
-3.1705e-20
1.03764e-18
-5.46375e-19
1.39797e-17
-7.54958e-18
1.35614e-16
-8.76232e-17
1.47206e-15
-1.20602e-15
-9.59682e-15
1.09641e-14
-5.43238e-28
2.36299e-27
-7.01104e-27
1.72749e-26
-1.89038e-26
3.23085e-26
-2.1603e-27
2.52255e-27
-1.54347e-28
1.33823e-28
3.83834e-26
-1.10033e-26
2.12545e-22
-8.53005e-23
7.20756e-21
-3.56065e-21
3.61766e-20
-2.0289e-20
6.68141e-20
-4.39623e-20
7.90703e-20
-5.56768e-20
6.39195e-20
-5.37306e-20
1.85734e-20
-2.91558e-20
1.16575e-21
-5.22291e-21
1.48946e-22
-3.62616e-22
1.5456e-22
-1.67413e-22
8.29249e-22
-5.56831e-22
1.60074e-20
-8.79706e-21
3.00791e-19
-1.54357e-19
4.56812e-18
-2.37362e-18
6.47508e-17
-4.36988e-17
1.11339e-15
-9.40718e-16
-7.36904e-15
7.66737e-15
-5.08167e-29
4.1827e-47
-6.61149e-28
6.00402e-45
-1.86369e-27
8.41209e-44
-1.9372e-28
-1.67339e-36
-1.28189e-29
-1.28593e-31
1.30148e-27
-1.32737e-29
1.16301e-23
-4.30911e-25
5.17261e-22
-1.01462e-22
2.73896e-21
-8.29091e-22
5.26414e-21
-2.10675e-21
6.28493e-21
-2.94547e-21
6.4772e-21
-3.11691e-21
2.34803e-21
-1.74674e-21
1.805e-22
-3.18006e-22
3.0844e-23
-2.98872e-23
3.24437e-23
-2.62654e-23
2.05282e-22
-1.32099e-22
3.99186e-21
-2.26852e-21
7.54472e-20
-3.95443e-20
1.2761e-18
-6.6827e-19
2.88511e-17
-2.00247e-17
7.32794e-16
-6.29267e-16
-5.56962e-15
5.16718e-15
-8.3494e-49
5.94939e-47
-2.1423e-46
8.52211e-45
-4.52205e-45
1.59964e-43
2.38535e-37
-4.67854e-39
2.26259e-32
-2.07613e-34
1.40962e-30
-3.7211e-32
5.37909e-26
-2.61409e-28
1.37651e-23
-3.84031e-25
1.05964e-22
-4.80792e-24
2.38873e-22
-1.40454e-23
3.11374e-22
-1.92693e-23
3.47345e-22
-1.72565e-23
1.26302e-22
-9.2914e-24
1.03694e-23
-3.63379e-24
3.90609e-24
-1.83078e-24
4.58321e-24
-2.78119e-24
4.59769e-23
-2.79213e-23
9.20598e-22
-5.39255e-22
1.72293e-20
-9.78305e-21
3.19624e-19
-1.79316e-19
1.15085e-17
-8.08745e-18
4.18374e-16
-3.83654e-16
-4.17714e-15
3.47295e-15
-1.10034e-48
6.53005e-47
-2.82512e-46
9.40369e-45
-7.9845e-45
2.193e-43
3.11422e-40
-8.24574e-42
1.71753e-35
-1.32142e-38
3.69246e-33
-7.62608e-36
3.02973e-29
-4.5591e-31
4.89425e-26
-1.63492e-27
5.8338e-25
-3.45694e-26
1.44583e-24
-1.48426e-25
1.77703e-24
-2.91053e-25
1.57274e-24
-3.58594e-25
6.63213e-25
-3.47483e-25
2.77873e-25
-2.33061e-25
2.46522e-25
-1.15103e-25
5.57377e-25
-2.61406e-25
9.01225e-24
-4.93192e-24
1.94107e-22
-1.14884e-22
3.81251e-21
-2.44509e-21
7.63921e-20
-4.90751e-20
3.98545e-18
-2.89828e-18
2.20363e-16
-2.2261e-16
-2.99526e-15
2.28063e-15
-1.11498e-48
4.91121e-47
-2.88383e-46
7.18071e-45
-1.01201e-44
1.81087e-43
5.19917e-43
6.62085e-45
1.01484e-39
-8.64539e-41
7.00091e-37
-1.09088e-38
4.87943e-32
-1.66257e-36
1.95224e-28
-9.72417e-33
4.13795e-27
-3.33064e-29
1.62386e-26
-8.22403e-28
2.85352e-26
-3.59199e-27
3.34479e-26
-6.44164e-27
3.43073e-26
-6.76259e-27
1.94703e-26
-4.81088e-27
1.38001e-26
-2.84216e-27
5.46499e-26
-2.47781e-26
1.43499e-24
-7.92367e-25
3.68345e-23
-2.43868e-23
8.57234e-22
-6.67806e-22
1.86855e-20
-1.49376e-20
1.21566e-18
-9.49639e-19
1.08483e-16
-1.1887e-16
-1.94526e-15
1.38587e-15
-7.70625e-49
1.89075e-47
-2.02712e-46
2.84758e-45
-7.68824e-45
7.8318e-44
-3.74079e-46
3.63139e-45
6.08769e-42
-3.26966e-45
9.14346e-40
-1.29643e-42
1.62724e-37
-1.86263e-40
1.08868e-33
-1.17149e-36
4.1038e-30
-2.53893e-32
1.00422e-28
-2.61505e-30
3.84094e-28
-1.66575e-29
5.60654e-28
-3.55101e-29
6.15852e-28
-3.84672e-29
3.72436e-28
-2.46096e-29
3.02577e-28
-1.07392e-28
5.71227e-27
-3.70507e-27
2.10092e-25
-1.56263e-25
7.08555e-24
-6.22886e-24
2.10017e-22
-2.04958e-22
5.02481e-21
-4.93713e-21
3.34177e-19
-2.8006e-19
4.75916e-17
-5.53184e-17
-1.10343e-15
7.41071e-16
-2.71178e-49
6.46573e-59
-7.36154e-47
7.05175e-57
-3.04283e-45
3.16042e-56
-1.87673e-46
-3.8401e-51
4.43088e-46
-1.16884e-47
9.94895e-44
-1.18576e-45
1.66363e-41
-7.64964e-44
1.19538e-37
-4.22578e-42
2.88981e-33
-1.09646e-37
3.03897e-31
-5.7247e-34
1.70918e-30
-1.76335e-32
2.83854e-30
-6.77068e-32
3.12079e-30
-7.63193e-32
2.14461e-30
-2.97691e-31
1.89018e-29
-1.32074e-29
8.21892e-28
-7.26643e-28
3.76616e-26
-3.69416e-26
1.60402e-24
-1.60574e-24
5.55178e-23
-5.68224e-23
1.40601e-21
-1.47795e-21
8.08522e-20
-7.29338e-20
1.76861e-17
-2.18868e-17
-5.4437e-16
3.37084e-16
-8.43394e-61
8.87742e-59
-1.6616e-58
1.01715e-56
-1.11789e-57
5.34931e-56
3.59856e-52
-9.82615e-54
7.24097e-49
-1.38401e-48
8.64676e-47
-1.25553e-46
6.33771e-45
-5.49346e-45
3.97188e-43
-2.22296e-43
1.13218e-38
-9.16253e-42
6.4156e-35
-2.75966e-39
1.88463e-33
-1.08519e-36
5.00605e-33
-1.43543e-35
6.06632e-33
-4.6365e-34
4.23994e-32
-3.37033e-32
2.41464e-30
-2.403e-30
1.43339e-28
-1.3754e-28
7.68928e-27
-7.25775e-27
3.47638e-25
-3.38591e-25
1.26693e-23
-1.31464e-23
3.43388e-22
-3.991e-22
1.70108e-20
-1.80524e-20
5.46144e-18
-7.49499e-18
-2.39201e-16
1.29489e-16
-1.0502e-60
9.41563e-59
-2.17679e-58
1.14102e-56
-1.71436e-57
6.74089e-56
4.2188e-55
-6.92439e-56
7.74826e-50
-7.64759e-51
8.24603e-48
-9.83615e-49
4.10141e-46
-9.8557e-47
1.88398e-44
-8.99292e-45
8.83293e-43
-9.66778e-43
2.83895e-40
-7.17718e-41
1.15856e-37
-6.83757e-39
1.66065e-36
-6.21083e-37
6.16943e-35
-5.77659e-35
5.02315e-33
-4.65486e-33
3.83845e-31
-3.27427e-31
2.29331e-29
-2.10959e-29
1.25296e-27
-1.22818e-27
6.03648e-26
-6.66928e-26
2.39127e-24
-2.91233e-24
7.4591e-23
-1.03828e-22
3.34091e-21
-4.51644e-21
1.42123e-18
-2.35502e-18
-9.36601e-17
4.20267e-17
-1.01086e-60
6.88034e-59
-2.21354e-58
8.85249e-57
-1.94958e-57
5.91964e-56
5.19773e-57
1.31701e-57
3.65071e-52
-9.5317e-53
5.58205e-50
-1.67251e-50
6.50485e-48
-2.13533e-48
6.83206e-46
-3.06067e-46
8.44644e-44
-3.91031e-44
6.69862e-42
-4.80553e-42
6.91952e-40
-5.72997e-40
6.85732e-38
-5.51174e-38
7.02331e-36
-5.48509e-36
5.95405e-34
-4.60953e-34
4.35236e-32
-3.61527e-32
2.91628e-30
-2.66413e-30
1.74272e-28
-1.7176e-28
9.62089e-27
-1.02926e-26
4.20037e-25
-5.0321e-25
1.49313e-23
-2.11181e-23
6.30795e-22
-1.01249e-21
3.22221e-19
-6.97208e-19
-3.09583e-17
1.09841e-17
-6.73253e-61
2.61516e-59
-1.55496e-58
3.56534e-57
-1.53903e-57
2.70852e-56
-4.5159e-59
6.32828e-58
4.08506e-54
-1.31934e-54
8.51772e-52
-3.13185e-52
1.26081e-49
-5.63787e-50
2.05819e-47
-1.06043e-47
2.93161e-45
-1.7048e-45
3.99586e-43
-2.40141e-43
5.18425e-41
-3.20333e-41
5.33081e-39
-3.49447e-39
5.60573e-37
-3.92659e-37
4.91428e-35
-3.56969e-35
4.00484e-33
-3.36934e-33
3.01527e-31
-2.64266e-31
1.96503e-29
-2.03152e-29
1.16399e-27
-1.31905e-27
5.53812e-26
-7.54133e-26
2.22607e-24
-3.79482e-24
9.92469e-23
-2.07392e-22
6.17117e-20
-1.79997e-19
-8.31628e-18
2.01014e-18
-2.34547e-61
2.04597e-78
-5.65774e-59
9.15319e-76
-6.30021e-58
-1.62889e-68
-1.93193e-59
-3.93688e-60
5.01992e-56
-1.50979e-56
1.41258e-53
-5.06991e-54
2.94189e-51
-1.3007e-51
6.24812e-49
-2.71547e-49
1.11488e-46
-5.26883e-47
1.71156e-44
-7.9978e-45
2.45649e-42
-1.25758e-42
2.8478e-40
-1.54605e-40
3.36047e-38
-2.01951e-38
3.16459e-36
-2.15734e-36
3.05628e-34
-2.21232e-34
2.41102e-32
-2.13594e-32
1.82842e-30
-1.73334e-30
1.14408e-28
-1.38508e-28
6.1373e-27
-9.72868e-27
2.77377e-25
-5.81124e-25
1.26814e-23
-3.32575e-23
8.23188e-21
-3.6721e-20
-1.85084e-18
1.77632e-19
-1.68605e-80
3.32575e-78
-1.30434e-77
1.62741e-75
6.70237e-70
-9.85605e-69
2.11801e-61
-2.96007e-62
5.04071e-58
-1.47021e-58
1.99931e-55
-5.37388e-56
5.89941e-53
-1.75727e-53
1.38154e-50
-4.33098e-51
2.9524e-48
-9.22772e-49
4.85767e-46
-1.78541e-46
8.15571e-44
-3.02132e-44
1.05645e-41
-4.48488e-42
1.43421e-39
-6.87642e-40
1.56815e-37
-8.516e-38
1.614e-35
-9.8291e-36
1.53991e-33
-1.16244e-33
1.19729e-31
-1.18096e-31
8.86471e-30
-1.04308e-29
5.4801e-28
-8.87594e-28
2.63208e-26
-6.45225e-26
9.94538e-25
-3.61291e-24
3.8593e-22
-6.1684e-21
-3.37181e-19
-2.71068e-20
-2.5087e-80
4.27375e-78
-2.05881e-77
2.31865e-75
2.19087e-70
-1.25193e-71
6.97567e-64
-7.10628e-65
4.24805e-60
-4.61943e-61
1.82663e-57
-2.70441e-58
6.83033e-55
-8.8652e-56
1.88171e-52
-2.96191e-53
4.39313e-50
-7.61737e-51
9.17192e-48
-1.91787e-48
1.64393e-45
-3.65496e-46
2.55365e-43
-7.95712e-44
4.0191e-41
-1.33859e-41
5.01578e-39
-1.92786e-39
5.71971e-37
-2.96479e-37
6.50386e-35
-4.26361e-35
6.12095e-33
-5.30636e-33
4.71489e-31
-5.67454e-31
3.17713e-29
-5.53008e-29
1.47856e-27
-5.88411e-27
2.09285e-26
-6.4968e-25
-7.25408e-22
-5.56268e-22
-4.61382e-20
-1.58227e-20
-2.92294e-80
3.86813e-78
-2.55847e-77
2.36666e-75
1.59968e-73
2.29041e-72
1.43297e-66
-5.21539e-68
1.13571e-62
-2.72192e-64
7.80198e-60
-1.84742e-61
2.91582e-57
-1.06557e-58
1.08602e-54
-4.00237e-56
3.05229e-52
-1.81928e-53
8.24654e-50
-5.29388e-51
1.65848e-47
-1.93168e-48
3.74629e-45
-4.52004e-46
6.3999e-43
-1.02194e-43
9.183e-41
-2.58984e-41
1.36907e-38
-4.71328e-39
1.83614e-36
-7.85926e-37
2.01962e-34
-1.20738e-34
1.74246e-32
-1.70884e-32
1.13504e-30
-2.86073e-30
3.74148e-29
-3.2056e-28
-4.6402e-26
-8.8704e-26
-1.55655e-22
-3.88402e-23
-3.77314e-21
-4.34187e-21
-2.36925e-80
1.85241e-78
-2.21703e-77
1.30653e-75
-2.99992e-74
1.16384e-72
8.77343e-70
-1.53845e-73