/*--------------------------------*- C++ -*----------------------------------*\
| =========                 |                                                 |
| \\      /  F ield         | OpenFOAM: The Open Source CFD Toolbox           |
|  \\    /   O peration     | Version:  5.x                                   |
|   \\  /    A nd           | Web:      www.OpenFOAM.org                      |
|    \\/     M anipulation  |                                                 |
\*---------------------------------------------------------------------------*/
FoamFile
{
    version     2.0;
    format      ascii;
    class       volScalarField;
    location    "0.3";
    object      p;
}
// * * * * * * * * * * * * * * * * * * * * * * * * * * * * * * * * * * * * * //

dimensions      [1 -1 -2 0 0 0 0];

internalField   nonuniform List<scalar> 
2268
(
1300.99
1305.89
1311.22
1311.6
1305.38
1294.7
1282.5
1270.42
1259.19
1249.26
1241.21
1235.78
1234
1237.21
1247.51
1266.37
1295.23
1333.25
1374.52
1404.35
1406.96
1370.61
1428.71
1241.18
1246.01
1251.34
1251.65
1245.4
1234.76
1222.63
1210.62
1199.39
1189.43
1181.29
1175.73
1173.76
1176.6
1185.38
1201.82
1227.81
1263.81
1306.47
1340.57
1347.37
1298.48
1360.97
1180.43
1185.16
1190.44
1190.63
1184.3
1173.76
1161.78
1149.87
1138.66
1128.61
1120.29
1114.48
1112.14
1114.46
1122.7
1138.3
1161.85
1193.03
1229.28
1262
1277.21
1259.81
1311.83
1118.83
1123.41
1128.57
1128.57
1122.14
1111.73
1099.97
1088.2
1076.99
1066.8
1058.22
1052.02
1049.17
1050.82
1058.17
1072.35
1093.74
1121.55
1152.78
1182.02
1205.33
1216.69
1282.2
1056.47
1060.85
1065.82
1065.54
1058.99
1048.75
1037.24
1025.62
1014.39
1004
995.045
988.325
984.81
985.607
991.844
1004.47
1023.71
1048.82
1077.14
1104.36
1132.1
1160.66
1236.53
993.337
997.655
1002.28
1001.63
994.95
984.886
973.635
962.148
950.842
940.158
930.72
923.344
919.005
918.777
923.717
934.697
951.765
974.34
1000.31
1025.9
1053.35
1085.57
1156.91
929.703
933.784
937.967
936.848
930.052
920.211
909.223
897.826
886.367
875.29
865.244
857.068
851.742
850.311
853.759
862.774
877.775
897.822
921.189
944.35
967.196
990.811
1029.1
865.649
869.402
872.9
871.19
864.311
854.757
844.055
832.716
821.03
809.459
798.682
789.561
783.082
780.259
782.036
789.115
801.771
819.211
839.519
859.074
873.462
881.512
843.582
47.3242
47.3072
47.3036
47.3257
47.3542
47.3804
47.4012
47.4133
47.4173
47.4158
47.4108
47.4034
47.394
47.3835
47.3727
47.3625
47.354
47.348
47.3448
47.2616
47.2409
47.2409
47.2663
47.2955
47.3225
47.3438
47.3557
47.3593
47.3574
47.3521
47.3445
47.335
47.3243
47.3132
47.3029
47.2942
47.288
47.2848
47.1948
47.1646
47.175
47.2066
47.2364
47.2656
47.2879
47.2992
47.3019
47.2995
47.294
47.2861
47.2762
47.2649
47.2532
47.2421
47.2328
47.2261
47.2227
47.1276
47.0701
47.1051
47.1471
47.1768
47.2099
47.2338
47.244
47.2453
47.2421
47.2362
47.228
47.2176
47.2054
47.1925
47.1802
47.1698
47.1623
47.1584
47.0538
46.9508
47.0324
47.0874
47.116
47.1564
47.1816
47.19
47.1893
47.1849
47.1787
47.1702
47.159
47.1456
47.1311
47.1172
47.1053
47.0966
47.0921
46.9348
46.7804
46.9701
47.0281
47.0535
47.1054
47.1314
47.1372
47.1337
47.1279
47.1214
47.1127
47.1006
47.0855
47.069
47.0529
47.039
47.0288
47.0234
46.7616
46.4332
46.8812
46.9696
46.9918
47.0568
47.0832
47.0856
47.0782
47.0707
47.0644
47.0555
47.0423
47.0252
47.006
46.9871
46.9707
46.9586
46.9523
46.6824
46.0476
46.9088
46.8536
46.926
47.0125
47.0393
47.0358
47.0221
47.013
47.0076
46.9988
46.9842
46.9645
46.9421
46.9198
46.9002
46.8858
46.8782
764.897
768.038
770.21
767.546
760.53
751.325
740.923
729.506
717.279
704.725
692.564
681.678
673.072
667.728
666.534
670.207
679.168
692.662
708.119
720.848
716.457
673.755
421.92
626.325
628.335
628.425
624.205
616.728
607.508
596.852
584.622
570.955
556.351
541.566
527.502
515.265
505.692
499.582
497.222
498.008
504.825
512.751
517.218
502.899
451.297
338.99
487.666
487.248
484.521
478.664
470.649
461.04
449.635
436.129
420.623
403.598
385.815
368.304
352.397
338.237
326.923
321.303
323.549
326.402
327.74
334.529
335.49
314.94
277.164
349.865
345.893
339.923
332.656
323.728
312.787
299.802
284.34
266.266
245.836
223.518
199.427
178.725
158.862
138.979
118.673
101.532
91.6832
98.0155
118.27
143.32
157.141
151.665
215.288
207.442
193.601
184.362
174.291
160.528
145.007
127.974
109.056
88.7731
67.3485
42.0749
29.0052
19.95
12.9931
7.80403
4.73608
2.99374
4.06777
6.73763
12.029
22.5865
36.6819
96.3633
79.8404
57.5796
52.1342
46.8176
36.2087
27.8289
20.252
13.0189
6.72296
1.48897
-0.695172
-1.12321
-1.23023
-1.27862
-1.3273
-1.35017
-1.32599
-1.33261
-1.45593
-1.59766
-1.53436
-0.947556
26.1619
5.63931
1.21296
0.828186
-0.461408
-1.36381
-1.52158
-1.52352
-1.48461
-1.42615
-1.34114
-1.31519
-1.37506
-1.4423
-1.53173
-1.64195
-1.72738
-1.77095
-1.82404
-1.89848
-1.95962
-2.00914
-2.14861
-1.87285
-1.91902
-1.82948
-1.79724
-1.7688
-1.71372
-1.70301
-1.68419
-1.65311
-1.61488
-1.58151
-1.57768
-1.62474
-1.70831
-1.87589
-2.09332
-2.2489
-2.30123
-2.27163
-2.20682
-2.17085
-2.19138
-2.27499
-2.01283
-2.00355
-1.97673
-1.95712
-1.93807
-1.9116
-1.89197
-1.87439
-1.85544
-1.83874
-1.83784
-1.87372
-1.92951
-2.01675
-2.32011
-2.68308
-2.8333
-2.81325
-2.6784
-2.48164
-2.35443
-2.32702
-2.37041
-2.17645
-2.15307
-2.14656
-2.1348
-2.12162
-2.10804
-2.09672
-2.08692
-2.07908
-2.07885
-2.09902
-2.15566
-2.21518
-2.32488
-2.70267
-3.02533
-3.09029
-3.02097
-2.84296
-2.60495
-2.46769
-2.4766
-2.59984
-2.34521
-2.33368
-2.3252
-2.31726
-2.30941
-2.30342
-2.3001
-2.29946
-2.30298
-2.31629
-2.34976
-2.41361
-2.47902
-2.61604
-2.87724
-3.10445
-3.13808
-3.03052
-2.88704
-2.73776
-2.68223
-2.82291
-3.03762
-2.51154
-2.50589
-2.50193
-2.49917
-2.49711
-2.4976
-2.50166
-2.5099
-2.52389
-2.54766
-2.58778
-2.64948
-2.7229
-2.84503
-2.98493
-3.12694
-3.15736
-3.13185
-3.08128
-3.05343
-3.07521
-3.15038
-3.24747
-2.68152
-2.6814
-2.68035
-2.68135
-2.68401
-2.68975
-2.69976
-2.71498
-2.73678
-2.7675
-2.81033
-2.86732
-2.93888
-3.03193
-3.13881
-3.21651
-3.26168
-3.27756
-3.28025
-3.28493
-3.29658
-3.33191
-3.40647
-2.85428
-2.85723
-2.8586
-2.86259
-2.86897
-2.87881
-2.89327
-2.91337
-2.94025
-2.97515
-3.01913
-3.07258
-3.13595
-3.21007
-3.28725
-3.34953
-3.3901
-3.41022
-3.41988
-3.4364
-3.46753
-3.51888
-3.59391
-3.02814
-3.03263
-3.03594
-3.04226
-3.05154
-3.06454
-3.08229
-3.10569
-3.1356
-3.17269
-3.21708
-3.26831
-3.32583
-3.38807
-3.45001
-3.50304
-3.54239
-3.57097
-3.5961
-3.62776
-3.67216
-3.73094
-3.80487
-3.20194
-3.20703
-3.21183
-3.21993
-3.23143
-3.2469
-3.26716
-3.29291
-3.32475
-3.36303
-3.40752
-3.45744
-3.51166
-3.5681
-3.62349
-3.67396
-3.71738
-3.75547
-3.79305
-3.83592
-3.88866
-3.95327
-4.03008
-3.37453
-3.37974
-3.38569
-3.39517
-3.4084
-3.42583
-3.44808
-3.47568
-3.509
-3.54818
-3.59286
-3.64219
-3.69494
-3.74934
-3.8034
-3.85507
-3.9037
-3.95065
-3.99913
-4.05303
-4.11551
-4.18827
-4.27143
-3.54506
-3.55025
-3.55706
-3.56763
-3.58223
-3.60123
-3.62511
-3.65427
-3.68891
-3.72903
-3.77422
-3.82371
-3.87644
-3.93113
-3.98659
-4.04194
-4.09715
-4.15339
-4.21277
-4.27787
-4.35087
-4.43341
-4.52584
-3.71292
-3.71806
-3.72553
-3.73699
-3.75269
-3.77298
-3.79825
-3.82877
-3.86469
-3.90589
-3.95201
-4.0024
-4.05627
-4.11283
-4.17145
-4.23192
-4.29451
-4.36015
-4.43033
-4.50693
-4.59171
-4.68635
-4.79135
-3.87763
-3.88277
-3.89076
-3.90295
-3.91959
-3.94098
-3.96744
-3.99923
-4.03641
-4.07889
-4.12632
-4.17824
-4.23413
-4.29359
-4.35644
-4.42281
-4.49318
-4.56835
-4.64951
-4.73821
-4.83605
-4.94487
-5.06536
-4.03885
-4.04403
-4.05244
-4.06526
-4.08269
-4.10505
-4.13261
-4.1656
-4.20408
-4.24797
-4.29702
-4.35093
-4.40943
-4.47244
-4.5401
-4.6128
-4.69113
-4.77588
-4.86816
-4.9694
-5.0813
-5.20606
-5.3446
-4.19625
-4.20151
-4.21027
-4.22363
-4.24178
-4.265
-4.29357
-4.32772
-4.36752
-4.41293
-4.46381
-4.52
-4.58146
-4.64837
-4.7211
-4.80025
-4.88652
-4.98075
-5.08407
-5.19803
-5.32457
-5.46633
-5.62464
-4.34957
-4.35494
-4.364
-4.37784
-4.39661
-4.42061
-4.45012
-4.48536
-4.52646
-4.57343
-4.62623
-4.68484
-4.74941
-4.82031
-4.89814
-4.98363
-5.07762
-5.18103
-5.2951
-5.42157
-5.56273
-5.72162
-5.90012
-4.49857
-4.50406
-4.51337
-4.52763
-4.54695
-4.57164
-4.60199
-4.63825
-4.68058
-4.72907
-4.78377
-4.84479
-4.91243
-4.98722
-5.06993
-5.16143
-5.2627
-5.37478
-5.49903
-5.63742
-5.79256
-5.96781
-6.16559
-4.64304
-4.64865
-4.65818
-4.67279
-4.69258
-4.71786
-4.74893
-4.78607
-4.8295
-4.87938
-4.93586
-4.99915
-5.06966
-5.14805
-5.23522
-5.33221
-5.4401
-5.56008
-5.69368
-5.84302
-6.01094
-6.20101
-6.41604
-4.78281
-4.78853
-4.79823
-4.81313
-4.83329
-4.85904
-4.89067
-4.92852
-4.97286
-5.02392
-5.08194
-5.14723
-5.22027
-5.30182
-5.39287
-5.4946
-5.60824
-5.73514
-5.87699
-6.03596
-6.21508
-6.41793
-6.6475
-4.91772
-4.92353
-4.93336
-4.94848
-4.9689
-4.99497
-5.02699
-5.06532
-5.11031
-5.16225
-5.22148
-5.28838
-5.36349
-5.44761
-5.54183
-5.6474
-5.76573
-5.89835
-6.04706
-6.21414
-6.40268
-6.6161
-6.85755
-5.04767
-5.05353
-5.06345
-5.07869
-5.09926
-5.12548
-5.15768
-5.19623
-5.24153
-5.29399
-5.35401
-5.42203
-5.49863
-5.58463
-5.68114
-5.78952
-5.91131
-6.04824
-6.20224
-6.37571
-6.57168
-6.79354
-7.04451
-5.17258
-5.17846
-5.1884
-5.20368
-5.22427
-5.25047
-5.2826
-5.32107
-5.36633
-5.41887
-5.47916
-5.5477
-5.62511
-5.71217
-5.81001
-5.92005
-6.04394
-6.18358
-6.34109
-6.51899
-6.72024
-6.9483
-7.20662
-5.29246
-5.29829
-5.30821
-5.32342
-5.34389
-5.36987
-5.40169
-5.43976
-5.48459
-5.53672
-5.59671
-5.6651
-5.7425
-5.82971
-5.92781
-6.03823
-6.16274
-6.30338
-6.46244
-6.64252
-6.8467
-7.07849
-7.34174
-5.40732
-5.41304
-5.42288
-5.43791
-5.45809
-5.48366
-5.51492
-5.55228
-5.59626
-5.64748
-5.70652
-5.77399
-5.85052
-5.93687
-6.03406
-6.1435
-6.26703
-6.40682
-6.56526
-6.74507
-6.94957
-7.18229
-7.44761
-5.51716
-5.52271
-5.53238
-5.54711
-5.56685
-5.59182
-5.62226
-5.65858
-5.70131
-5.75107
-5.80851
-5.87426
-5.94896
-6.03335
-6.12837
-6.23539
-6.35626
-6.49321
-6.64871
-6.8256
-7.02739
-7.25777
-7.52167
-5.62211
-5.62744
-5.63685
-5.65116
-5.67029
-5.69444
-5.72381
-5.75877
-5.79982
-5.84759
-5.90275
-5.96595
-6.03784
-6.11912
-6.21067
-6.31377
-6.43022
-6.56224
-6.71233
-6.88342
-7.07904
-7.30312
-7.56112
-5.72255
-5.72764
-5.73668
-5.75045
-5.7688
-5.79192
-5.81997
-5.85325
-5.89224
-5.93751
-5.98973
-6.04958
-6.1177
-6.19474
-6.28151
-6.3792
-6.48949
-6.61448
-6.75663
-6.91881
-7.10447
-7.3176
-7.56401
-5.81884
-5.8237
-5.83227
-5.84536
-5.86277
-5.88467
-5.91114
-5.94246
-5.97901
-6.02132
-6.07004
-6.12582
-6.1893
-6.26109
-6.34191
-6.43283
-6.53534
-6.65136
-6.78315
-6.93336
-7.10515
-7.30236
-7.53067
-5.91069
-5.91534
-5.92333
-5.93562
-5.9519
-5.97235
-5.997
-6.02605
-6.05981
-6.09874
-6.14343
-6.19451
-6.25259
-6.31822
-6.39206
-6.47499
-6.5683
-6.67363
-6.7929
-6.92835
-7.08271
-7.25914
-7.46326
-5.99751
-6.00194
-6.00923
-6.02056
-6.0355
-6.05425
-6.07678
-6.10322
-6.13381
-6.16892
-6.20907
-6.25485
-6.3068
-6.36543
-6.43127
-6.50504
-6.58777
-6.68073
-6.78542
-6.90358
-7.03726
-7.18915
-7.36365
-6.0804
-6.08467
-6.09114
-6.10135
-6.11477
-6.13155
-6.15167
-6.1752
-6.20227
-6.2332
-6.26841
-6.3084
-6.35365
-6.40458
-6.46158
-6.52518
-6.59608
-6.67515
-6.76343
-6.86201
-6.97226
-7.09604
-7.23644
-6.16307
-6.16733
-6.1729
-6.1819
-6.19367
-6.20837
-6.22596
-6.24644
-6.26993
-6.29661
-6.32682
-6.36098
-6.39946
-6.44256
-6.4905
-6.54358
-6.60216
-6.66672
-6.73774
-6.81564
-6.90101
-6.99464
-7.09805
-6.24691
-6.25123
-6.25592
-6.26368
-6.27379
-6.28639
-6.30143
-6.31893
-6.33892
-6.36156
-6.38707
-6.41574
-6.4478
-6.48338
-6.52256
-6.56538
-6.61194
-6.66233
-6.71654
-6.7744
-6.83574
-6.9002
-6.96757
-6.32606
-6.33034
-6.33428
-6.34068
-6.34899
-6.35928
-6.37158
-6.38592
-6.40232
-6.42084
-6.44157
-6.46461
-6.49001
-6.51776
-6.54779
-6.57999
-6.61419
-6.65016
-6.68751
-6.72565
-6.7638
-6.80065
-6.83471
-6.39344
-6.39816
-6.40124
-6.40601
-6.4121
-6.4196
-6.42859
-6.43911
-6.45116
-6.46469
-6.4796
-6.49579
-6.51311
-6.53141
-6.55051
-6.57014
-6.58991
-6.60924
-6.6274
-6.64351
-6.65621
-6.66377
-6.66387
-65.9591
0.852894
49.3053
16.228
181.298
111.513
24.0504
-39.5645
210.752
150.82
97.2288
67.1193
123.725
100.203
81.0864
68.9776
42.7334
43.2111
41.937
39.7425
0.490241
2.53619
6.34547
11.4846
-2.2889
-2.39661
-2.46574
-2.48851
-2.39679
-2.49272
-2.60905
-2.74503
-2.45717
-2.52673
-2.63589
-2.78154
-2.7974
-2.93766
-3.06179
-3.18995
-3.15439
-3.21236
-3.26716
-3.32708
-3.31315
-3.36051
-3.41427
-3.46702
-3.47289
-3.51663
-3.56202
-3.6082
-3.65865
-3.70089
-3.74435
-3.78845
-3.86697
-3.908
-3.95021
-3.99329
-4.09345
-4.13572
-4.17928
-4.22388
-4.33904
-4.38412
-4.4305
-4.478
-4.60041
-4.65029
-4.70158
-4.75403
-4.87599
-4.93281
-4.99135
-5.05146
-5.16286
-5.22865
-5.29682
-5.36741
-5.45764
-5.5344
-5.61472
-5.69871
-5.75525
-5.84466
-5.93934
-6.03958
-6.04884
-6.15133
-6.26085
-6.37825
-6.33151
-6.44628
-6.5695
-6.70264
-6.59702
-6.72233
-6.85711
-7.00301
-6.84064
-6.97412
-7.11753
-7.27212
-7.06017
-7.19974
-7.34915
-7.509
-7.25482
-7.39927
-7.55341
-7.71737
-7.42321
-7.57182
-7.73026
-7.89849
-7.56305
-7.71497
-7.87713
-8.0495
-7.6717
-7.82579
-7.99076
-8.16668
-7.746
-7.90075
-8.06723
-8.24572
-7.78201
-7.93509
-8.10091
-8.27998
-7.77623
-7.92388
-8.08468
-8.25909
-7.72788
-7.86534
-8.01536
-8.1784
-7.63896
-7.76123
-7.89457
-8.03922
-7.51252
-7.6156
-7.72742
-7.84791
-7.35443
-7.43539
-7.52235
-7.61495
-7.18221
-7.23908
-7.29916
-7.36191
-7.01853
-7.05159
-7.08508
-7.11831
-6.85596
-6.86782
-6.87764
-6.88475
-6.65624
-6.64824
-6.6368
-6.62135
38.4578
44.5536
46.7501
46.8674
46.8531
46.952
46.9854
46.9627
46.9311
46.9212
46.9193
46.9111
46.8939
46.8693
46.8407
46.8117
46.7862
46.7674
46.7574
-12.1972
26.6052
42.1078
46.4632
46.5979
46.8031
46.9375
46.8562
46.7867
46.7883
46.8016
46.7959
46.7733
46.7387
46.6973
46.6551
46.6178
46.5901
46.5755
24.5866
-20.8157
-12.1703
21.1667
41.6191
46.6399
46.9946
46.6147
46.5673
46.6516
46.694
46.6885
46.6563
46.6063
46.546
46.4843
46.4297
46.3894
46.3682
44.3808
10.584
-0.0477725
-14.1016
-7.77652
16.8959
42.986
45.863
46.1945
46.5349
46.6131
46.5948
46.5445
46.4706
46.3826
46.2926
46.2135
46.1554
46.125
36.2538
26.6378
15.8244
4.62204
4.67271
1.20704
11.7284
24.973
45.7408
46.7009
46.602
46.514
46.4382
46.3297
46.2005
46.0699
45.9562
45.8735
45.8306
19.7574
29.4146
31.5146
24.7063
18.6885
13.8711
17.9694
19.5488
24.7726
45.4967
46.6677
46.4566
46.3232
46.1783
45.9898
45.7993
45.638
45.5226
45.4632
-2.48365
-1.93438
2.26574
8.27452
22.4621
33.5645
18.6212
10.0998
22.2149
36.6413
45.1374
46.3641
46.2486
45.997
45.7275
45.4539
45.2281
45.0713
44.9914
-2.89736
-3.08539
-3.36511
-3.29762
-3.07664
-2.22822
8.59247
12.6869
10.1565
25.0791
37.7677
45.5383
46.2448
45.8315
45.3725
44.9847
44.6796
44.4748
44.3721
-3.04325
-3.29119
-3.55149
-3.62987
-3.61271
-3.68094
-3.72004
0.280252
2.12605
12.3611
28.4648
44.7345
45.8851
45.3707
44.8102
44.3086
43.9209
43.6708
43.5479
-3.35308
-3.51593
-3.67491
-3.73522
-3.73582
-3.78114
-3.835
-3.90842
0.0447828
-5.1937
16.6561
33.3057
43.7434
44.4404
43.9356
43.3128
42.8559
42.5806
42.4481
-3.43154
-3.57469
-3.6911
-3.77981
-3.82357
-3.89229
-3.96226
-4.06933
-4.25481
-4.93415
13.3912
29.2529
42.4124
42.9459
42.4599
41.8218
41.3635
41.115
40.9971
-3.55145
-3.66348
-3.75176
-3.82176
-3.89297
-3.98848
-4.07446
-4.14124
-4.11769
-2.92566
2.87519
15.9051
34.3056
40.1131
40.1959
39.7002
39.3496
39.206
39.1368
-3.68827
-3.79348
-3.88218
-3.96338
-4.04557
-4.13873
-4.22808
-4.27536
-4.31276
-3.53267
-4.97917
8.2908
26.7082
35.8666
36.8674
36.795
36.776
36.8426
36.858
-3.86357
-3.96322
-4.05482
-4.15363
-4.26253
-4.3685
-4.44739
-4.48312
-4.58726
-4.75161
-4.867
5.05498
19.3395
30.8361
32.7396
33.2344
33.7543
34.1048
34.229
-4.06729
-4.16881
-4.27026
-4.38653
-4.51024
-4.61814
-4.68801
-4.71414
-4.80569
-5.0434
-4.75288
9.50835
15.9465
26.0458
28.3521
29.4385
30.5667
31.1724
31.4024
-4.30023
-4.40871
-4.52147
-4.64963
-4.7723
-4.86139
-4.91513
-4.92542
-4.93621
-4.96933
-4.66349
12.2658
14.1921
21.9084
24.0182
26.0199
27.5293
28.2629
28.5749
-4.55908
-4.67786
-4.80344
-4.94251
-5.0616
-5.11995
-5.13466
-5.13582
-5.08518
-4.96958
-4.66685
10.5759
12.6603
21.1795
21.345
23.548
24.8713
25.5802
25.9199
-4.84323
-4.97506
-5.11389
-5.26197
-5.38478
-5.42253
-5.40085
-5.37231
-5.27003
-5.00157
-4.701
9.45009
11.2993
19.5045
20.2502
21.7553
22.6124
23.2131
23.5205
-5.15389
-5.30668
-5.46875
-5.63277
-5.76021
-5.77188
-5.70652
-5.64645
-5.54673
-5.14519
0.812033
14.0942
14.4906
17.3648
18.9432
19.969
20.5992
21.1096
21.3655
-5.48899
-5.67544
-5.87828
-6.09189
-6.24692
-6.21351
-6.04792
-5.96407
-5.80801
-5.94676
5.84303
14.9356
15.461
15.6561
17.2931
18.0961
18.7328
19.1902
19.4116
-5.84641
-6.07872
-6.33445
-6.6246
-6.84917
-6.78754
-6.38067
-6.30402
-6.19446
-2.69766
6.06629
11.5133
15.7333
14.499
15.7698
16.3987
17.0267
17.4284
17.6326
-6.22026
-6.51022
-6.85051
-7.26183
-7.6347
-7.60642
-7.00092
-7.62758
-9.50684
0.958326
9.43392
9.45261
12.0672
13.4126
14.3489
14.9175
15.4768
15.8189
16.0143
-6.59219
-6.94272
-7.39618
-7.99596
-8.68064
-8.9832
-9.44573
-19.7998
-7.64676
7.8918
11.0086
10.2908
10.5351
12.1948
12.9341
13.5691
14.0598
14.3551
14.535
-6.94419
-7.34746
-7.8792
-8.595
-9.52321
-10.5585
-16.2072
-38.4102
-9.27262
10.7344
11.054
9.43679
9.91689
11.1379
11.7596
12.3619
12.7712
13.024
13.173
-7.26609
-7.71227
-8.27562
-9.01962
-9.85166
-10.7765
-12.7412
-32.2558
-1.99914
9.55178
9.32078
9.15396
9.46848
10.2688
10.8107
11.2852
11.602
11.8057
11.9126
-7.54986
-8.02034
-8.59565
-9.39919
-10.1922
-10.9315
-10.8484
-17.62
4.75691
8.52253
8.70978
8.81709
9.12402
9.56963
9.98884
10.3067
10.5267
10.6739
10.7357
-7.79488
-8.26779
-8.83158
-9.60851
-10.3292
-11.5276
-14.0148
-12.3748
6.9752
8.30177
8.51193
8.66456
8.82964
9.04004
9.24358
9.39684
9.51417
9.60086
9.62106
-8.00928
-8.48097
-9.02895
-9.68433
-10.1228
-10.8492
-5.78318
-13.9672
4.78816
7.86644
8.65084
8.58829
8.57597
8.54084
8.51488
8.5136
8.52933
8.55571
8.54763
-8.19756
-8.67876
-9.23576
-9.85568
-10.433
-10.9423
-11.4456
-18.9394
-0.214904
8.61939
8.78659
8.55059
8.27626
7.96274
7.73759
7.60703
7.53654
7.51052
7.48971
-8.35623
-8.85274
-9.42887
-10.0808
-10.8748
-11.6531
-13.211
-13.3605
1.00479
7.76306
8.48278
8.35773
7.76948
7.22427
6.85383
6.63234
6.50425
6.44453
6.42077
-8.48059
-8.99152
-9.5839
-10.2701
-11.1494
-11.7707
-12.5141
-10.9967
-4.05486
4.4083
7.94798
7.76095
6.99559
6.25589
5.80931
5.55387
5.40768
5.34018
5.32685
-8.56597
-9.0906
-9.70085
-10.4107
-11.3743
-11.9109
-12.291
-9.94088
-14.9131
-7.59654
3.76182
6.57093
5.84095
4.9339
4.55314
4.3464
4.23373
4.18197
4.21223
-8.60379
-9.13986
-9.78538
-10.5965
-11.6
-12.4029
-12.859
-13.2753
-16.1065
-18.6863
-3.11436
3.74592
3.79505
3.08117
3.03844
2.98938
2.98452
2.96231
3.09866
-8.57578
-9.11774
-9.7966
-10.6915
-11.8702
-13.2334
-14.1416
-16.93
-19.6854
-31.9327
-14.4019
-2.81629
-0.110683
0.695211
1.27063
1.50836
1.69118
1.73952
1.96396
-8.47622
-8.99794
-9.67096
-10.5896
-11.8945
-13.6199
-15.5162
-20.3495
-27.7054
-36.2083
-22.4753
-10.8011
-4.70184
-1.49972
-0.587647
0.0446192
0.410081
0.562071
0.836591
-8.30403
-8.77278
-9.38353
-10.2272
-11.4636
-13.2574
-15.9389
-21.2667
-30.8319
-36.5606
-26.0348
-15.0035
-7.11999
-3.18665
-2.0317
-1.21042
-0.762984
-0.529552
-0.255041
-8.06776
-8.45539
-8.95506
-9.6323
-10.61
-12.1066
-14.6014
-18.9673
-25.3637
-28.3707
-23.6909
-14.6521
-7.85103
-4.24729
-3.09733
-2.23647
-1.77924
-1.50936
-1.28374
-7.78242
-8.07261
-8.43608
-8.90931
-9.5656
-10.5717
-12.1551
-14.3219
-16.8181
-18.2987
-16.4278
-11.5841
-7.45649
-4.93695
-3.81872
-3.05797
-2.64059
-2.38069
-2.23362
-7.47355
-7.66031
-7.88404
-8.16231
-8.53239
-9.08143
-9.89857
-10.8988
-11.8122
-11.9604
-10.6529
-8.46799
-6.46531
-5.07053
-4.2507
-3.7038
-3.37258
-3.1635
-3.1029
-7.17445
-7.25849
-7.34751
-7.45064
-7.5897
-7.80508
-8.12904
-8.52987
-8.8275
-8.63983
-7.81333
-6.74831
-5.78796
-5.0708
-4.59115
-4.25869
-4.03666
-3.89671
-3.90593
-6.89161
-6.88483
-6.85447
-6.80326
-6.7537
-6.75238
-6.82432
-6.91871
-6.97208
-6.83372
-6.45521
-5.96857
-5.52788
-5.19095
-4.95308
-4.78339
-4.66292
-4.58784
-4.64717
-6.58744
-6.51185
-6.39877
-6.24496
-6.0701
-5.93949
-5.89399
-5.88682
-5.87907
-5.85904
-5.8145
-5.7323
-5.64325
-5.5664
-5.5041
-5.45631
-5.42421
-5.39745
-5.40914
)
;

boundaryField
{
    leftWall
    {
        type            calculated;
        value           nonuniform List<scalar> 
50
(
1300.99
1241.18
1180.43
1118.83
1056.47
993.337
929.703
865.649
764.897
626.325
487.666
349.865
215.288
96.3633
26.1619
-1.87285
-2.01283
-2.17645
-2.34521
-2.51154
-2.68152
-2.85428
-3.02814
-3.20194
-3.37453
-3.54506
-3.71292
-3.87763
-4.03885
-4.19625
-4.34957
-4.49857
-4.64304
-4.78281
-4.91772
-5.04767
-5.17258
-5.29246
-5.40732
-5.51716
-5.62211
-5.72255
-5.81884
-5.91069
-5.99751
-6.0804
-6.16307
-6.24691
-6.32606
-6.39344
)
;
    }
    rightWall
    {
        type            calculated;
        value           nonuniform List<scalar> 
50
(
47.3448
47.2848
47.2227
47.1584
47.0921
47.0234
46.9523
46.8782
46.7574
46.5755
46.3682
46.125
45.8306
45.4632
44.9914
44.3721
43.5479
42.4481
40.9971
39.1368
36.858
34.229
31.4024
28.5749
25.9199
23.5205
21.3655
19.4116
17.6326
16.0143
14.535
13.173
11.9126
10.7357
9.62106
8.54763
7.48971
6.42077
5.32685
4.21223
3.09866
1.96396
0.836591
-0.255041
-1.28374
-2.23362
-3.1029
-3.90593
-4.64717
-5.40914
)
;
    }
    lowerWall
    {
        type            calculated;
        value           nonuniform List<scalar> 
62
(
1330.41
1335.32
1340.65
1341.03
1334.81
1324.13
1311.93
1299.85
1288.62
1278.69
1270.64
1265.21
1263.43
1266.64
1276.94
1295.8
1324.66
1362.68
1403.95
1433.77
1433.36
1392.31
1454.41
1428.71
1360.97
1311.83
1282.2
1236.53
1156.91
1029.1
843.582
-3.3659
63.4497
111.903
27.7092
47.3242
47.2616
47.1948
47.1276
47.0538
46.9348
46.7616
46.6824
47.3537
47.3366
47.333
47.3552
47.3836
47.4098
47.4306
47.4428
47.4468
47.4452
47.4402
47.4328
47.4234
47.4129
47.4021
47.392
47.3835
47.3774
47.3742
)
;
    }
    atmosphere
    {
        type            calculated;
        value           nonuniform List<scalar> 
46
(
-6.41522
-6.42154
-6.42356
-6.42723
-6.43186
-6.43755
-6.44438
-6.45238
-6.46153
-6.47171
-6.48274
-6.49436
-6.50633
-6.51843
-6.53041
-6.54194
-6.55248
-6.56129
-6.56749
-6.57007
-6.56757
-6.55814
-6.53929
-6.51668
-6.49868
-6.47716
-6.45184
-6.40009
-6.30213
-6.17344
-6.01935
-5.86284
-5.74955
-5.72905
-5.72912
-5.72999
-5.73884
-5.7524
-5.73303
-5.7292
-5.72905
-5.72904
-5.72904
-5.72904
-5.72904
-5.72904
)
;
    }
    defaultFaces
    {
        type            empty;
    }
}


// ************************************************************************* //
