/*--------------------------------*- C++ -*----------------------------------*\
| =========                 |                                                 |
| \\      /  F ield         | OpenFOAM: The Open Source CFD Toolbox           |
|  \\    /   O peration     | Version:  5.x                                   |
|   \\  /    A nd           | Web:      www.OpenFOAM.org                      |
|    \\/     M anipulation  |                                                 |
\*---------------------------------------------------------------------------*/
FoamFile
{
    version     2.0;
    format      ascii;
    class       volScalarField;
    location    "0.3";
    object      p_rgh;
}
// * * * * * * * * * * * * * * * * * * * * * * * * * * * * * * * * * * * * * //

dimensions      [1 -1 -2 0 0 0 0];

internalField   nonuniform List<scalar> 
2268
(
1330.41
1335.32
1340.65
1341.03
1334.81
1324.13
1311.93
1299.85
1288.62
1278.69
1270.64
1265.21
1263.43
1266.64
1276.94
1295.8
1324.66
1362.68
1403.95
1433.77
1433.36
1392.31
1454.41
1329.47
1334.29
1339.63
1339.94
1333.69
1323.05
1310.92
1298.91
1287.68
1277.71
1269.58
1264.02
1262.04
1264.89
1273.66
1290.11
1316.1
1352.09
1394.76
1428.85
1433.84
1379.57
1449.26
1327.58
1332.31
1337.58
1337.78
1331.45
1320.91
1308.93
1297.01
1285.8
1275.75
1267.44
1261.63
1259.29
1261.61
1269.85
1285.44
1309
1340.18
1376.43
1409.15
1424.36
1406.95
1458.25
1324.84
1329.41
1334.57
1334.57
1328.15
1317.74
1305.97
1294.2
1283
1272.81
1264.23
1258.03
1255.18
1256.82
1264.17
1278.35
1299.75
1327.56
1358.78
1388.03
1411.34
1422.69
1486.86
1321.33
1325.71
1330.68
1330.4
1323.86
1313.61
1302.1
1290.48
1279.25
1268.86
1259.91
1253.19
1249.67
1250.47
1256.71
1269.34
1288.58
1313.68
1342
1369.23
1396.96
1425.52
1500.69
1317.06
1321.38
1326
1325.35
1318.67
1308.61
1297.36
1285.87
1274.56
1263.88
1254.44
1247.07
1242.73
1242.5
1247.44
1258.42
1275.49
1298.06
1324.04
1349.62
1377.07
1409.29
1480.64
1312.29
1316.37
1320.55
1319.43
1312.63
1302.79
1291.81
1280.41
1268.95
1257.87
1247.83
1239.65
1234.32
1232.89
1236.34
1245.36
1260.36
1280.4
1303.77
1326.93
1349.78
1373.39
1411.69
1307.09
1310.84
1314.34
1312.63
1305.75
1296.2
1285.5
1274.16
1262.47
1250.9
1240.12
1231
1224.52
1221.7
1223.48
1230.56
1243.21
1260.65
1280.96
1300.51
1314.9
1322.95
1285.02
47.3537
47.3366
47.333
47.3552
47.3836
47.4098
47.4306
47.4428
47.4468
47.4452
47.4402
47.4328
47.4234
47.4129
47.4021
47.392
47.3835
47.3774
47.3742
47.3499
47.3292
47.3292
47.3546
47.3837
47.4108
47.4321
47.444
47.4475
47.4457
47.4404
47.4327
47.4232
47.4125
47.4015
47.3912
47.3825
47.3763
47.3731
47.342
47.3118
47.3221
47.3537
47.3836
47.4127
47.4351
47.4464
47.4491
47.4467
47.4411
47.4333
47.4234
47.4121
47.4003
47.3893
47.38
47.3733
47.3698
47.3336
47.2761
47.3111
47.3531
47.3828
47.4159
47.4398
47.45
47.4513
47.4481
47.4422
47.434
47.4236
47.4114
47.3985
47.3862
47.3759
47.3683
47.3644
47.3187
47.2157
47.2973
47.3523
47.3809
47.4212
47.4464
47.4548
47.4542
47.4498
47.4435
47.4351
47.4239
47.4105
47.396
47.3821
47.3702
47.3615
47.3569
47.2585
47.2091
47.3111
47.3519
47.3772
47.4292
47.4552
47.4609
47.4575
47.4516
47.4451
47.4364
47.4243
47.4092
47.3927
47.3766
47.3627
47.3525
47.3472
47.1441
47.7444
47.3877
47.3522
47.3744
47.4394
47.4658
47.4682
47.4608
47.4533
47.4469
47.4381
47.4248
47.4077
47.3886
47.3697
47.3533
47.3412
47.3348
47.1239
47.6856
47.3504
47.2951
47.3674
47.4539
47.4808
47.4773
47.4635
47.4545
47.449
47.4402
47.4256
47.406
47.3836
47.3612
47.3417
47.3272
47.3196
1298.36
1301.5
1303.68
1301.01
1294
1284.79
1274.39
1262.97
1250.75
1238.19
1226.03
1215.14
1206.54
1201.19
1200
1203.67
1212.64
1226.13
1241.59
1254.32
1249.92
1207.22
955.35
1284.99
1287
1287.09
1282.87
1275.39
1266.17
1255.51
1243.28
1229.62
1215.01
1200.23
1186.16
1173.93
1164.35
1158.24
1155.88
1156.67
1163.49
1171.41
1175.88
1161.56
1109.96
997.603
1271.52
1271.1
1268.38
1262.52
1254.5
1244.9
1233.49
1219.98
1204.48
1187.45
1169.67
1152.16
1136.25
1122.09
1110.77
1105.15
1107.4
1110.15
1111.6
1118.39
1119.35
1098.8
1061.02
1258.92
1254.94
1248.95
1241.69
1232.76
1221.82
1208.83
1193.35
1175.26
1154.79
1132.42
1108.28
1081.5
1042.23
989.184
925.601
871.621
824.591
850.455
931.591
1052.37
1066.19
1060.71
1249.53
1241.42
1227.37
1218.16
1208.1
1193.74
1170.84
1132.16
1069.77
979.212
858.426
687.423
515.244
364.511
243.696
152.966
99.2081
66.2751
80.6626
126.047
224.403
412.338
645.142
1245.56
1010.61
883.171
867.396
815.758
708.706
567.802
421.189
279.477
155.881
47.0203
0.46427
0.0362328
-0.0705095
-0.117355
-0.163399
-0.185007
-0.160291
-0.166849
-0.231876
-0.236691
0.0482707
20.7934
591.954
157.837
59.6601
52.7286
24.6231
-0.0791751
-0.236942
-0.238883
-0.199978
-0.141512
-0.056507
-0.030552
-0.0904237
-0.15766
-0.246786
-0.355291
-0.437267
-0.471639
-0.526168
-0.590445
-0.629819
-0.658625
-0.754818
-0.463019
-0.509189
-0.419651
-0.387408
-0.358971
-0.303895
-0.293181
-0.274359
-0.243283
-0.205047
-0.171678
-0.167854
-0.214904
-0.298477
-0.464184
-0.600906
-0.574751
-0.631507
-0.811047
-0.754461
-0.71047
-0.730056
-0.809244
-0.477811
-0.468527
-0.441708
-0.4221
-0.403049
-0.37658
-0.356947
-0.339369
-0.320412
-0.303714
-0.302803
-0.338682
-0.394487
-0.444374
-0.120986
0.328311
-0.343077
-1.19616
-1.09081
-0.892619
-0.76499
-0.736956
-0.779316
-0.516236
-0.492848
-0.486344
-0.474578
-0.461406
-0.447827
-0.436507
-0.426699
-0.418865
-0.418632
-0.438148
-0.49537
-0.554947
0.499718
0.883969
0.561413
-1.23458
-1.30173
-1.12434
-0.886332
-0.715295
0.411387
2.60852
-0.559796
-0.548264
-0.539791
-0.531853
-0.523997
-0.518005
-0.514685
-0.514052
-0.517569
-0.530875
-0.563314
-0.628103
-0.693549
0.712855
0.980007
0.683616
-0.131063
-0.538187
0.0848568
1.76575
1.95096
1.79815
0.990164
-0.600928
-0.595282
-0.591326
-0.588564
-0.586507
-0.586995
-0.591056
-0.599294
-0.613287
-0.637051
-0.676064
-0.738821
-0.799368
-0.864645
0.716801
0.819511
1.31617
1.38946
1.49463
1.54508
0.256734
-1.16438
-1.33686
-0.645718
-0.645597
-0.644549
-0.645552
-0.648204
-0.653945
-0.663956
-0.679175
-0.700977
-0.731703
-0.773977
-0.831468
-0.903074
-0.996124
-1.10301
-0.954152
-0.595326
-0.424987
-1.12268
-1.24913
-1.26078
-1.29611
-1.37067
-0.693288
-0.696232
-0.697604
-0.701595
-0.707978
-0.717812
-0.732272
-0.752374
-0.779252
-0.814148
-0.858132
-0.911588
-0.974958
-1.04908
-1.12626
-1.18853
-1.2291
-1.24922
-1.25889
-1.2754
-1.30653
-1.35788
-1.43292
-0.741953
-0.746438
-0.749752
-0.756069
-0.76535
-0.77835
-0.796104
-0.819499
-0.84941
-0.8865
-0.930893
-0.982123
-1.03964
-1.10188
-1.16382
-1.21685
-1.2562
-1.28478
-1.30991
-1.34157
-1.38597
-1.44475
-1.51868
-0.790559
-0.795643
-0.800449
-0.80854
-0.820046
-0.835519
-0.855779
-0.881524
-0.913364
-0.951641
-0.996136
-1.04606
-1.10027
-1.15671
-1.21211
-1.26257
-1.306
-1.34408
-1.38167
-1.42454
-1.47727
-1.54188
-1.61869
-0.837949
-0.843165
-0.849115
-0.858589
-0.871823
-0.889253
-0.911502
-0.9391
-0.972425
-1.0116
-1.05628
-1.10562
-1.15836
-1.21276
-1.26682
-1.31849
-1.36712
-1.41407
-1.46255
-1.51645
-1.57893
-1.65169
-1.73485
-0.883283
-0.888472
-0.895286
-0.905855
-0.920454
-0.939455
-0.963337
-0.992492
-1.02714
-1.06725
-1.11245
-1.16194
-1.21466
-1.26935
-1.32481
-1.38016
-1.43537
-1.49161
-1.551
-1.61609
-1.6891
-1.77164
-1.86406
-0.925947
-0.93109
-0.938562
-0.950017
-0.965725
-0.986015
-1.01128
-1.0418
-1.07772
-1.11892
-1.16505
-1.21544
-1.26931
-1.32586
-1.38449
-1.44495
-1.50754
-1.57318
-1.64337
-1.71996
-1.80474
-1.89938
-2.00438
-0.965471
-0.970609
-0.978597
-0.990789
-1.00743
-1.02881
-1.05528
-1.08707
-1.12425
-1.16672
-1.21416
-1.26608
-1.32197
-1.38143
-1.44428
-1.51065
-1.58102
-1.65619
-1.73735
-1.82605
-1.92388
-2.03271
-2.1532
-1.00149
-1.00667
-1.01508
-1.0279
-1.04534
-1.06769
-1.09525
-1.12824
-1.16672
-1.21061
-1.25966
-1.31357
-1.37207
-1.43508
-1.50274
-1.57544
-1.65377
-1.73852
-1.8308
-1.93204
-2.04394
-2.1687
-2.30724
-1.0337
-1.03896
-1.04772
-1.06108
-1.07923
-1.10245
-1.13102
-1.16516
-1.20496
-1.25037
-1.30125
-1.35745
-1.41891
-1.48581
-1.55855
-1.6377
-1.72397
-1.8182
-1.92152
-2.03548
-2.16202
-2.30377
-2.46209
-1.06182
-1.06719
-1.07625
-1.09009
-1.10886
-1.13286
-1.16237
-1.19762
-1.23871
-1.28569
-1.33848
-1.39709
-1.46166
-1.53257
-1.61039
-1.69588
-1.78987
-1.89329
-2.00735
-2.13382
-2.27498
-2.43387
-2.61237
-1.08563
-1.09112
-1.10043
-1.11469
-1.13401
-1.1587
-1.18905
-1.22531
-1.26763
-1.31613
-1.37082
-1.43185
-1.49949
-1.57428
-1.65698
-1.74849
-1.84976
-1.96184
-2.08609
-2.22448
-2.37962
-2.55487
-2.75265
-1.10491
-1.11051
-1.12004
-1.13466
-1.15445
-1.17972
-1.21079
-1.24793
-1.29136
-1.34125
-1.39772
-1.46101
-1.53152
-1.60992
-1.69709
-1.79407
-1.90197
-2.02194
-2.15554
-2.30488
-2.47281
-2.66288
-2.8779
-1.11948
-1.1252
-1.1349
-1.1498
-1.16996
-1.19571
-1.22734
-1.26519
-1.30953
-1.36059
-1.41861
-1.48389
-1.55694
-1.63849
-1.72954
-1.83127
-1.94491
-2.07181
-2.21366
-2.37263
-2.55175
-2.7546
-2.98417
-1.1292
-1.13501
-1.14484
-1.15995
-1.18038
-1.20644
-1.23847
-1.2768
-1.32178
-1.37373
-1.43296
-1.49985
-1.57497
-1.65909
-1.7533
-1.85888
-1.9772
-2.10982
-2.25854
-2.42562
-2.61415
-2.82758
-3.06902
-1.13395
-1.13981
-1.14973
-1.16497
-1.18554
-1.21176
-1.24396
-1.28251
-1.32781
-1.38027
-1.44029
-1.50831
-1.58491
-1.67091
-1.76742
-1.8758
-1.99759
-2.13452
-2.28852
-2.46199
-2.65797
-2.87982
-3.13079
-1.13367
-1.13955
-1.14949
-1.16476
-1.18536
-1.21155
-1.24368
-1.28215
-1.32742
-1.37996
-1.44025
-1.50879
-1.58619
-1.67326
-1.77109
-1.88113
-2.00502
-2.14467
-2.30218
-2.48008
-2.68133
-2.90938
-3.1677
-1.12835
-1.13419
-1.14411
-1.15931
-1.17978
-1.20576
-1.23758
-1.27565
-1.32048
-1.37262
-1.4326
-1.50099
-1.57839
-1.66561
-1.7637
-1.87413
-1.99863
-2.13927
-2.29833
-2.47841
-2.6826
-2.91438
-3.17764
-1.11802
-1.12374
-1.13358
-1.1486
-1.16879
-1.19436
-1.22561
-1.26297
-1.30696
-1.35817
-1.41722
-1.48469
-1.56122
-1.64757
-1.74476
-1.8542
-1.97773
-2.11752
-2.27596
-2.45576
-2.66027
-2.89299
-3.1583
-1.10267
-1.10822
-1.11789
-1.13262
-1.15236
-1.17732
-1.20776
-1.24408
-1.28681
-1.33657
-1.39401
-1.45976
-1.53446
-1.61885
-1.71387
-1.82089
-1.94176
-2.07871
-2.23421
-2.4111
-2.61289
-2.84328
-3.10717
-1.08242
-1.08775
-1.09716
-1.11147
-1.1306
-1.15475
-1.18412
-1.21908
-1.26013
-1.3079
-1.36305
-1.42626
-1.49815
-1.57943
-1.67097
-1.77407
-1.89052
-2.02254
-2.17264
-2.34373
-2.53935
-2.76343
-3.02143
-1.05767
-1.06276
-1.07179
-1.08556
-1.10391
-1.12704
-1.15508
-1.18837
-1.22735
-1.27262
-1.32484
-1.38469
-1.45282
-1.52986
-1.61663
-1.71432
-1.8246
-1.9496
-2.09175
-2.25392
-2.43958
-2.65271
-2.89913
-1.02876
-1.03362
-1.04219
-1.05528
-1.07269
-1.09459
-1.12106
-1.15238
-1.18893
-1.23124
-1.27996
-1.33574
-1.39922
-1.47101
-1.55183
-1.64274
-1.74526
-1.86128
-1.99307
-2.14328
-2.31507
-2.51228
-2.74059
-0.995418
-1.00007
-1.00806
-1.02034
-1.03662
-1.05707
-1.08172
-1.11077
-1.14453
-1.18346
-1.22815
-1.27924
-1.33731
-1.40295
-1.47678
-1.55971
-1.65302
-1.75835
-1.87762
-2.01308
-2.16743
-2.34387
-2.54799
-0.957036
-0.961473
-0.968764
-0.980088
-0.995034
-1.01378
-1.03631
-1.06275
-1.09334
-1.12845
-1.1686
-1.21438
-1.26633
-1.32496
-1.3908
-1.46457
-1.5473
-1.64026
-1.74495
-1.86311
-1.99679
-2.14868
-2.32318
-0.914732
-0.919005
-0.925474
-0.935689
-0.949102
-0.965889
-0.98601
-1.00953
-1.03661
-1.06754
-1.10275
-1.14273
-1.18798
-1.23891
-1.29591
-1.35952
-1.43041
-1.50949
-1.59776
-1.69634
-1.8066
-1.93037
-2.07077
-0.872215
-0.876473
-0.882036
-0.891041
-0.902812
-0.917511
-0.935096
-0.955586
-0.979068
-1.00575
-1.03596
-1.07012
-1.1086
-1.1517
-1.19965
-1.25272
-1.3113
-1.37586
-1.44689
-1.52478
-1.61015
-1.70378
-1.80719
-0.830853
-0.835177
-0.839864
-0.847625
-0.85774
-0.870332
-0.885378
-0.902874
-0.92287
-0.945506
-0.971016
-0.999682
-1.03174
-1.06733
-1.10651
-1.14933
-1.19588
-1.24627
-1.30048
-1.35835
-1.41969
-1.48415
-1.55152
-0.784808
-0.789088
-0.79303
-0.799433
-0.807739
-0.818033
-0.830337
-0.84467
-0.861068
-0.879591
-0.900325
-0.923361
-0.948758
-0.976509
-1.00655
-1.03874
-1.07294
-1.10892
-1.14626
-1.1844
-1.22255
-1.2594
-1.29346
-0.727
-0.731713
-0.734796
-0.739567
-0.745655
-0.753162
-0.762151
-0.772668
-0.784715
-0.798244
-0.813162
-0.829347
-0.846663
-0.864965
-0.884068
-0.903701
-0.923467
-0.942799
-0.960953
-0.977063
-0.989766
-0.997324
-0.997428
467.473
534.316
582.772
114.073
839.911
770.155
682.712
586.572
994.6
934.667
881.081
850.97
1032.77
1009.25
990.131
978.021
828.97
998.198
1076.17
1073.92
60.1366
114.688
192.513
293.567
-0.78715
-0.77777
-0.697289
-0.553387
-0.843638
-0.839434
-0.814948
-0.791879
-0.555994
2.06371
2.4646
2.34485
2.48989
2.34962
2.32609
0.686906
-0.68995
-1.37932
-1.4717
-1.54166
-1.40255
-1.4499
-1.50366
-1.55642
-1.43709
-1.48083
-1.52622
-1.5724
-1.49765
-1.5399
-1.58335
-1.62745
-1.58078
-1.62181
-1.66401
-1.7071
-1.68207
-1.72433
-1.76789
-1.81249
-1.80246
-1.84754
-1.89392
-1.94142
-1.93864
-1.98852
-2.03981
-2.09225
-2.08902
-2.14585
-2.20439
-2.26449
-2.25069
-2.31648
-2.38465
-2.45525
-2.42028
-2.49704
-2.57736
-2.66135
-2.5927
-2.6821
-2.77679
-2.87703
-2.7611
-2.86359
-2.97311
-3.0905
-2.91857
-3.03334
-3.15656
-3.2897
-3.05889
-3.18419
-3.31897
-3.46488
-3.17731
-3.31079
-3.4542
-3.60879
-3.27165
-3.41121
-3.56062
-3.72047
-3.3411
-3.48555
-3.63969
-3.80365
-3.3843
-3.53291
-3.69134
-3.85958
-3.39895
-3.55086
-3.71302
-3.88539
-3.38239
-3.53648
-3.70146
-3.87737
-3.3315
-3.48626
-3.65273
-3.83122
-3.24232
-3.3954
-3.56121
-3.74029
-3.11134
-3.259
-3.4198
-3.5942
-2.9378
-3.07526
-3.22528
-3.38832
-2.72369
-2.84596
-2.97929
-3.12395
-2.47205
-2.57513
-2.68695
-2.80744
-2.18876
-2.26973
-2.35669
-2.44929
-1.89135
-1.94822
-2.0083
-2.07105
-1.60248
-1.63554
-1.66902
-1.70226
-1.31472
-1.32657
-1.33639
-1.3435
-0.989796
-0.981802
-0.970358
-0.954907
110.399
45.3955
47.2865
47.401
47.3866
47.4855
47.5189
47.4962
47.4645
47.4546
47.4528
47.4445
47.4273
47.4028
47.3742
47.3452
47.3197
47.3008
47.2909
603.482
209.429
89.8192
47.2191
47.2694
47.4645
47.597
47.5151
47.4454
47.447
47.4602
47.4545
47.4319
47.3973
47.356
47.3138
47.2764
47.2488
47.2341
808.343
736.35
710.449
349.177
90.3619
50.7277
47.8319
47.4137
47.3524
47.4356
47.4778
47.4724
47.4402
47.3901
47.3299
47.2681
47.2136
47.1733
47.1521
953.366
919.465
908.48
886.129
864.127
490.146
110.762
47.2823
47.1474
47.447
47.5225
47.5039
47.4535
47.3797
47.2917
47.2017
47.1225
47.0644
47.034
1070.31
1060.41
1049.38
1038.06
1037.59
1033.03
941.322
361.722
57.316
47.8239
47.642
47.5488
47.4724
47.364
47.2347
47.1041
46.9904
46.9078
46.8648
455.893
759.367
1137.65
1182.66
1175.41
1169.04
1172.27
1136.16
582.39
76.8248
47.9794
47.6276
47.4833
47.3378
47.1492
46.9588
46.7974
46.682
46.6226
-0.0677038
29.5742
131.457
253.412
593.614
1192.09
1295.17
1276.89
1266.5
707.868
84.3968
47.9007
47.5501
47.2828
47.0122
46.7385
46.5127
46.3559
46.2761
-0.329714
-0.433061
-1.5415
-1.76711
1.74108
38.4765
385.425
1252.35
1356.96
1314.09
662.007
66.5208
48.0244
47.271
46.7845
46.3947
46.0894
45.8846
45.782
2.07068
1.40381
-1.72465
-2.08667
-2.06851
-2.1302
-2.12464
197.687
1172.87
1396.27
1254.51
430.91
51.4033
47.3451
46.389
45.8472
45.4561
45.2059
45.0829
-1.52024
-1.72746
-1.97649
-2.07482
-2.07532
-2.12005
-2.17248
-2.21645
314.175
1330.08
1372
981.387
145.737
48.0484
45.8199
44.9935
44.5174
44.2408
44.1083
-1.64612
-1.78927
-1.90569
-1.99442
-2.03814
-2.10681
-2.17664
-2.28279
-2.43525
782.798
1454.44
1293.18
404.545
50.0866
44.9262
43.6773
43.1539
42.9006
42.7825
-1.64084
-1.75288
-1.84115
-1.91115
-1.98235
-2.07785
-2.16377
-2.2304
-2.20587
209.922
1317.8
1344.82
765.263
71.1334
43.4753
41.7624
41.2716
41.117
41.0474
-1.65246
-1.75768
-1.84638
-1.92754
-2.00932
-2.10259
-2.19193
-2.23917
-2.27648
-1.49407
987.214
1394.13
1023.08
144.917
41.3212
39.0845
38.8321
38.8791
38.8938
-1.70257
-1.80222
-1.89382
-1.98515
-2.07742
-2.19173
-2.28505
-2.32162
-2.42546
-2.58955
641.603
1416.75
1135.6
241.441
38.2329
35.7548
35.9402
36.2668
36.39
-1.7811
-1.88262
-1.98407
-2.08344
-2.19023
-2.29813
-2.36841
-2.42317
-2.51838
-2.75522
435.658
1395.1
1151.77
258.704
34.1449
32.0905
32.8779
33.4594
33.6886
-1.88884
-1.99732
-2.11009
-2.23825
-2.34075
-2.41433
-2.46831
-2.4948
-2.52273
-2.554
306.89
1362.1
1119.78
238.268
29.3824
28.7106
29.9587
30.6749
30.9863
-2.0225
-2.14128
-2.26679
-2.40591
-2.52476
-2.5694
-2.57672
-2.59028
-2.5451
-2.42907
336.487
1335.08
992.996
161.367
25.8655
26.2594
27.4257
28.1182
28.4565
-2.18146
-2.31329
-2.45175
-2.59801
-2.72044
-2.7576
-2.73548
-2.70689
-2.60444
-2.33581
405.998
1304.36
743.006
59.8554
24.1016
24.6018
25.3184
25.8778
26.1823
-2.36691
-2.51971
-2.68178
-2.8392
-2.9638
-2.97755
-2.91576
-2.85549
-2.75559
-2.35397
519.689
1223.47
428.913
25.1382
22.539
23.107
23.4441
23.8999
24.1525
-2.57678
-2.76327
-2.96611
-3.17634
-3.32481
-3.2914
-3.1301
-3.04755
-2.89141
71.3798
815.818
953.255
224.256
21.2012
20.7928
21.435
21.7002
22.1057
22.3239
-2.809
-3.04136
-3.29693
-3.58707
-3.80927
-3.74402
-3.33733
-3.26178
-3.15232
651.028
931.08
776.284
109.643
19.1129
19.324
19.7587
20.1061
20.4685
20.67
-3.05767
-3.34765
-3.68794
-4.09182
-4.46834
-4.43969
-3.83396
-4.45759
363.117
961.767
970.094
518.441
32.9922
17.8109
18.3402
18.279
18.6664
18.9834
19.177
-3.30445
-3.65494
-4.1084
-4.68996
-5.38664
-5.6908
-1.61633
339.592
873.651
950.346
732.145
151.249
18.438
16.9841
17.0117
16.9751
17.3624
17.644
17.8228
-3.53124
-3.93438
-4.46622
-5.16318
-6.10298
-7.14045
103.575
750.212
868.758
709.136
175.476
23.9302
21.5957
16.4215
15.6197
15.8356
16.1916
16.4376
16.586
-3.72792
-4.17399
-4.73744
-5.47225
-6.30296
-7.23142
216.077
756.008
542.614
130.953
20.5365
16.5409
18.9417
15.5379
14.5267
14.852
15.1438
15.3441
15.4508
-3.8865
-4.35688
-4.93228
-5.7358
-6.46579
-7.25702
182.294
645.83
129.284
19.7524
14.9995
13.7452
13.6647
14.1737
13.7315
13.9827
14.1919
14.3374
14.399
-4.00633
-4.47924
-5.04302
-5.81698
-6.44284
-7.71924
249.875
620.903
57.4839
14.6056
13.5519
12.9236
12.8113
12.9072
13.091
13.1914
13.3036
13.3895
13.4096
-4.09555
-4.56723
-5.11499
-5.77035
-6.11727
-6.91519
250.051
559.671
344.575
25.0691
12.9746
12.6896
12.5693
12.4789
12.453
12.4312
12.4435
12.4695
12.4613
-4.15863
-4.63982
-5.19642
-5.81377
-6.39081
-6.89939
-7.37467
514.338
531.313
30.2764
12.9789
12.6644
12.3445
12.0114
11.7787
11.6483
11.5757
11.5495
11.5286
-4.19211
-4.68861
-5.26439
-5.91095
-6.70659
-6.95991
-8.86204
507.558
545.96
347.911
20.1042
12.5613
11.9444
11.3912
11.0187
10.7968
10.6685
10.6086
10.5849
-4.19129
-4.7022
-5.29449
-5.97493
-6.84816
-6.90903
-7.97571
399.425
556.858
564.66
22.1614
12.1306
11.2915
10.5464
10.0989
9.84323
9.69703
9.62949
9.61615
-4.15147
-4.67609
-5.28631
-5.99473
-6.93444
-7.36641
-7.72708
49.9497
561.691
570.553
392.593
21.4738
10.327
9.35152
8.9678
8.76092
8.64824
8.59647
8.62673
-4.0641
-4.60016
-5.24562
-6.05628
-7.05694
-7.69213
-4.48223
-5.69279
570.263
575.859
591.431
108.441
8.68376
7.63505
7.57848
7.52908
7.52422
7.502
7.63836
-3.91089
-4.45285
-5.13167
-6.02583
-7.19833
-8.54777
-7.62996
-10.3084
407.858
579.009
593.712
383.309
9.43197
5.38031
5.9359
6.17325
6.35607
6.40441
6.62885
-3.68614
-4.20786
-4.88086
-5.79925
-7.09828
-8.80557
-10.2675
-2.05782
49.8182
588.226
597.622
352.956
4.50862
3.52969
4.21319
4.83485
5.20017
5.35215
5.62667
-3.38875
-3.85751
-4.46825
-5.31175
-6.54633
-8.3266
-10.938
-5.9205
12.3552
280.081
341.43
106.426
5.32492
1.74162
2.89141
3.70495
4.15229
4.38572
4.66023
-3.02729
-3.41492
-3.91458
-4.59173
-5.56829
-7.05292
-9.43782
-4.90117
1.61875
-11.5426
-0.0210918
-7.62884
-0.109069
0.794503
1.94311
2.804
3.26124
3.53111
3.75673
-2.61675
-2.90694
-3.27042
-3.74362
-4.3995
-5.4004
-6.92397
-6.56468
-7.35488
-10.9567
-8.32189
-5.76453
-2.27105
0.229194
1.34694
2.1077
2.52508
2.78497
2.93205
-2.18269
-2.36945
-2.59318
-2.87144
-3.24145
-3.78948
-4.57804
-5.15209
-5.84503
-6.04847
-4.6517
-2.97534
-1.16795
0.220429
1.04016
1.58706
1.91828
2.12736
2.18796
-1.7584
-1.84244
-1.93145
-2.03459
-2.17364
-2.38893
-2.70944
-3.04848
-3.29687
-3.06248
-2.2269
-1.27468
-0.369848
0.3453
0.824902
1.15737
1.3794
1.51935
1.51012
-1.35036
-1.34358
-1.31323
-1.26201
-1.21245
-1.21112
-1.28289
-1.37344
-1.41534
-1.25607
-0.864912
-0.411948
0.0139535
0.350319
0.588166
0.75786
0.878324
0.95341
0.894074
-0.920995
-0.84541
-0.732327
-0.578519
-0.403658
-0.273048
-0.227536
-0.220296
-0.211686
-0.182907
-0.124957
-0.0619136
0.0233558
0.100048
0.162342
0.21013
0.242233
0.268991
0.257302
)
;

boundaryField
{
    leftWall
    {
        type            fixedFluxPressure;
        gradient        uniform 0;
        value           nonuniform List<scalar> 
50
(
1330.41
1329.47
1327.58
1324.84
1321.33
1317.06
1312.29
1307.09
1298.36
1284.99
1271.52
1258.92
1249.53
1245.56
591.954
-0.463019
-0.477811
-0.516236
-0.559796
-0.600928
-0.645718
-0.693288
-0.741953
-0.790559
-0.837949
-0.883283
-0.925947
-0.965471
-1.00149
-1.0337
-1.06182
-1.08563
-1.10491
-1.11948
-1.1292
-1.13395
-1.13367
-1.12835
-1.11802
-1.10267
-1.08242
-1.05767
-1.02876
-0.995418
-0.957036
-0.914732
-0.872215
-0.830853
-0.784808
-0.727
)
;
    }
    rightWall
    {
        type            fixedFluxPressure;
        gradient        uniform 0;
        value           nonuniform List<scalar> 
50
(
47.3742
47.3731
47.3698
47.3644
47.3569
47.3472
47.3348
47.3196
47.2909
47.2341
47.1521
47.034
46.8648
46.6226
46.2761
45.782
45.0829
44.1083
42.7825
41.0474
38.8938
36.39
33.6886
30.9863
28.4565
26.1823
24.1525
22.3239
20.67
19.177
17.8228
16.586
15.4508
14.399
13.4096
12.4613
11.5286
10.5849
9.61615
8.62673
7.63836
6.62885
5.62667
4.66023
3.75673
2.93205
2.18796
1.51012
0.894074
0.257302
)
;
    }
    lowerWall
    {
        type            fixedFluxPressure;
        gradient        uniform 0;
        value           nonuniform List<scalar> 
62
(
1330.41
1335.32
1340.65
1341.03
1334.81
1324.13
1311.93
1299.85
1288.62
1278.69
1270.64
1265.21
1263.43
1266.64
1276.94
1295.8
1324.66
1362.68
1403.95
1433.77
1433.36
1392.31
1454.41
1454.41
1449.26
1458.25
1486.86
1500.69
1480.64
1411.69
1285.02
467.473
534.316
582.772
114.073
47.3537
47.3499
47.342
47.3336
47.3187
47.2585
47.1441
47.1239
47.3537
47.3366
47.333
47.3552
47.3836
47.4098
47.4306
47.4428
47.4468
47.4452
47.4402
47.4328
47.4234
47.4129
47.4021
47.392
47.3835
47.3774
47.3742
)
;
    }
    atmosphere
    {
        type            totalPressure;
        rho             rho;
        psi             none;
        gamma           1;
        p0              uniform 0;
        value           nonuniform List<scalar> 
46
(
-0.686177
-0.6925
-0.694524
-0.698194
-0.702818
-0.708507
-0.715336
-0.72334
-0.73249
-0.742673
-0.753696
-0.765315
-0.777286
-0.789387
-0.801372
-0.812901
-0.823437
-0.832246
-0.838451
-0.841034
-0.838535
-0.829102
-0.810255
-0.787643
-0.769644
-0.748115
-0.722803
-0.671054
-0.573091
-0.444403
-0.290309
-0.1338
-0.0205084
0
0
0
0
0
0
0
0
0
0
0
0
0
)
;
    }
    defaultFaces
    {
        type            empty;
    }
}


// ************************************************************************* //
