/*--------------------------------*- C++ -*----------------------------------*\
| =========                 |                                                 |
| \\      /  F ield         | OpenFOAM: The Open Source CFD Toolbox           |
|  \\    /   O peration     | Version:  5.x                                   |
|   \\  /    A nd           | Web:      www.OpenFOAM.org                      |
|    \\/     M anipulation  |                                                 |
\*---------------------------------------------------------------------------*/
FoamFile
{
    version     2.0;
    format      ascii;
    class       surfaceScalarField;
    location    "0.3";
    object      phi;
}
// * * * * * * * * * * * * * * * * * * * * * * * * * * * * * * * * * * * * * //

dimensions      [0 3 -1 0 0 0 0];

internalField   nonuniform List<scalar> 
4432
(
-9.36884e-07
9.36884e-07
2.69976e-06
-3.63664e-06
8.79282e-06
-6.09306e-06
1.53285e-05
-6.53567e-06
2.12069e-05
-5.87839e-06
2.61547e-05
-4.94778e-06
3.03143e-05
-4.15965e-06
3.39318e-05
-3.61751e-06
3.72061e-05
-3.27427e-06
4.02376e-05
-3.03152e-06
4.30283e-05
-2.79072e-06
4.5501e-05
-2.4727e-06
4.75151e-05
-2.01404e-06
4.88535e-05
-1.33838e-06
4.90507e-05
-1.97269e-07
4.71953e-05
1.85546e-06
4.20578e-05
5.13748e-06
3.22017e-05
9.85613e-06
1.72927e-05
1.4909e-05
-1.41926e-07
1.74346e-05
-1.25982e-05
1.24562e-05
-1.62797e-05
3.68155e-06
-1.62797e-05
-8.5793e-07
1.79482e-06
2.85056e-06
-7.34513e-06
8.96396e-06
-1.22065e-05
1.5477e-05
-1.30487e-05
2.13241e-05
-1.17255e-05
2.62534e-05
-9.87705e-06
3.04172e-05
-8.32343e-06
3.40635e-05
-7.26384e-06
3.73859e-05
-6.59672e-06
4.04775e-05
-6.1231e-06
4.33345e-05
-5.64772e-06
4.58785e-05
-5.01667e-06
4.79761e-05
-4.11166e-06
4.94584e-05
-2.82062e-06
5.03238e-05
-1.06271e-06
5.06867e-05
1.49251e-06
5.04227e-05
5.40153e-06
4.8223e-05
1.20558e-05
4.09942e-05
2.21377e-05
2.5839e-05
3.25898e-05
4.8792e-06
3.3416e-05
-4.46831e-06
1.3029e-05
-2.0748e-05
-6.92731e-07
2.48755e-06
3.09352e-06
-1.11314e-05
9.20362e-06
-1.83166e-05
1.56237e-05
-1.94688e-05
2.1351e-05
-1.74528e-05
2.61865e-05
-1.47125e-05
3.03072e-05
-1.24441e-05
3.39629e-05
-1.09195e-05
3.73344e-05
-9.96825e-06
4.04985e-05
-9.28719e-06
4.34397e-05
-8.58889e-06
4.60752e-05
-7.65225e-06
4.8279e-05
-6.31542e-06
4.98993e-05
-4.44097e-06
5.07244e-05
-1.88781e-06
5.06276e-05
1.58934e-06
4.96991e-05
6.33e-06
4.86296e-05
1.31253e-05
4.73058e-05
2.34615e-05
4.2448e-05
3.74477e-05
2.97136e-05
4.61503e-05
1.26736e-05
3.0069e-05
-8.07438e-06
-4.47793e-07
2.93535e-06
3.4496e-06
-1.50288e-05
9.54243e-06
-2.44094e-05
1.58243e-05
-2.57507e-05
2.13815e-05
-2.301e-05
2.60915e-05
-1.94225e-05
3.01649e-05
-1.65175e-05
3.38482e-05
-1.46028e-05
3.73008e-05
-1.34208e-05
4.05755e-05
-1.25619e-05
4.36407e-05
-1.16541e-05
4.64085e-05
-1.042e-05
4.87558e-05
-8.66268e-06
5.0537e-05
-6.22219e-06
5.15851e-05
-2.93597e-06
5.17434e-05
1.43107e-06
5.08859e-05
7.18748e-06
4.92868e-05
1.47244e-05
4.8176e-05
2.45724e-05
4.75942e-05
3.80295e-05
4.18423e-05
5.19023e-05
2.47191e-05
4.71921e-05
1.66448e-05
-1.14239e-07
3.04959e-06
3.89607e-06
-1.90391e-05
9.94449e-06
-3.04578e-05
1.60414e-05
-3.18476e-05
2.13866e-05
-2.83552e-05
2.59516e-05
-2.39875e-05
2.99823e-05
-2.05483e-05
3.37146e-05
-1.8335e-05
3.72768e-05
-1.69831e-05
4.06922e-05
-1.59773e-05
4.39105e-05
-1.48724e-05
4.68383e-05
-1.33478e-05
4.93582e-05
-1.11826e-05
5.13385e-05
-8.20252e-06
5.26379e-05
-4.23536e-06
5.31336e-05
9.35369e-07
5.2734e-05
7.58702e-06
5.14011e-05
1.60574e-05
4.95341e-05
2.64393e-05
4.84936e-05
3.90701e-05
4.54616e-05
5.49343e-05
3.06304e-05
6.20233e-05
4.72752e-05
2.15598e-07
2.83399e-06
4.40909e-06
-2.32326e-05
1.03854e-05
-3.64341e-05
1.62527e-05
-3.77149e-05
2.13562e-05
-3.34588e-05
2.57712e-05
-2.84025e-05
2.97745e-05
-2.45515e-05
3.35799e-05
-2.21405e-05
3.72767e-05
-2.06798e-05
4.08544e-05
-1.9555e-05
4.42444e-05
-1.82624e-05
4.73504e-05
-1.64538e-05
5.00632e-05
-1.38953e-05
5.22662e-05
-1.04055e-05
5.38385e-05
-5.80769e-06
5.46782e-05
9.56744e-08
5.47095e-05
7.55573e-06
5.39062e-05
1.68608e-05
5.20692e-05
2.82763e-05
4.9751e-05
4.13883e-05
4.63973e-05
5.82879e-05
3.33197e-05
7.51009e-05
8.05948e-05
5.94791e-07
2.2392e-06
4.9779e-06
-2.76157e-05
1.0849e-05
-4.23051e-05
1.64479e-05
-4.33139e-05
2.12942e-05
-3.83051e-05
2.55697e-05
-3.2678e-05
2.957e-05
-2.85518e-05
3.34748e-05
-2.60453e-05
3.73276e-05
-2.45326e-05
4.10841e-05
-2.33115e-05
4.46608e-05
-2.18391e-05
4.79623e-05
-1.97553e-05
5.08896e-05
-1.68227e-05
5.33387e-05
-1.28546e-05
5.52025e-05
-7.67145e-06
5.63836e-05
-1.08545e-06
5.68235e-05
7.11584e-06
5.65007e-05
1.71835e-05
5.51891e-05
2.95879e-05
5.25448e-05
4.40325e-05
4.82603e-05
6.25725e-05
3.73237e-05
8.60375e-05
0.000117919
1.01776e-06
1.22143e-06
5.58516e-06
-3.21831e-05
1.13192e-05
-4.80391e-05
1.66312e-05
-4.86259e-05
2.12295e-05
-4.29033e-05
2.53935e-05
-3.6842e-05
2.94235e-05
-3.25818e-05
3.34552e-05
-3.00771e-05
3.74845e-05
-2.85618e-05
4.1437e-05
-2.72641e-05
4.522e-05
-2.56221e-05
4.87432e-05
-2.32785e-05
5.19171e-05
-1.99966e-05
5.46422e-05
-1.55797e-05
5.68116e-05
-9.84085e-06
5.8335e-05
-2.60885e-06
5.91658e-05
6.28501e-06
5.92771e-05
1.70722e-05
5.858e-05
3.02849e-05
5.65499e-05
4.60627e-05
5.2071e-05
6.70515e-05
4.12443e-05
9.68642e-05
0.000159163
1.26949e-05
-1.26949e-05
2.00028e-05
-7.30787e-06
1.9752e-05
2.50766e-07
1.86786e-05
1.07337e-06
1.83611e-05
3.17545e-07
1.88786e-05
-5.1756e-07
2.01611e-05
-1.28252e-06
2.17146e-05
-1.55333e-06
2.30429e-05
-1.32838e-06
2.38467e-05
-8.03809e-07
2.39139e-05
-6.72208e-08
2.31536e-05
7.60321e-07
2.16006e-05
1.55312e-06
1.93004e-05
2.30009e-06
1.63215e-05
2.97889e-06
1.27666e-05
3.55487e-06
8.76211e-06
4.00441e-06
4.44916e-06
4.31294e-06
4.44914e-06
1.36877e-05
-2.63826e-05
2.06125e-05
-1.42327e-05
1.98969e-05
9.66287e-07
1.91321e-05
1.83814e-06
1.89946e-05
4.55043e-07
1.97748e-05
-1.29773e-06
2.13422e-05
-2.84994e-06
2.31454e-05
-3.3564e-06
2.47119e-05
-2.89498e-06
2.57847e-05
-1.8766e-06
2.62141e-05
-4.9656e-07
2.5884e-05
1.09041e-06
2.46477e-05
2.78944e-06
2.24486e-05
4.4991e-06
1.93118e-05
6.11554e-06
1.53184e-05
7.54826e-06
1.06214e-05
8.70132e-06
5.42178e-06
9.51253e-06
9.87088e-06
1.72922e-05
-4.36749e-05
2.27546e-05
-1.9695e-05
2.02582e-05
3.46271e-06
1.92107e-05
2.88558e-06
1.87079e-05
9.57805e-07
1.95181e-05
-2.10786e-06
2.12479e-05
-4.57975e-06
2.31688e-05
-5.27734e-06
2.48259e-05
-4.55213e-06
2.59219e-05
-2.97255e-06
2.63034e-05
-8.77945e-07
2.5869e-05
1.52474e-06
2.45552e-05
4.10323e-06
2.23209e-05
6.73339e-06
1.91838e-05
9.25251e-06
1.52158e-05
1.15162e-05
1.05518e-05
1.33653e-05
5.38656e-06
1.46777e-05
1.52575e-05
2.26108e-05
-6.62857e-05
2.56047e-05
-2.26889e-05
2.05107e-05
8.55678e-06
1.91156e-05
4.28058e-06
1.80371e-05
2.03632e-06
1.90915e-05
-3.16228e-06
2.11205e-05
-6.60877e-06
2.32478e-05
-7.40459e-06
2.50607e-05
-6.36502e-06
2.62495e-05
-4.16133e-06
2.66705e-05
-1.29893e-06
2.62239e-05
1.97139e-06
2.48633e-05
5.46382e-06
2.25645e-05
9.03206e-06
1.93593e-05
1.24576e-05
1.53301e-05
1.55455e-05
1.0618e-05
1.80773e-05
5.4176e-06
1.98781e-05
2.06751e-05
2.61905e-05
-9.24762e-05
2.7506e-05
-2.40044e-05
2.06228e-05
1.544e-05
1.86047e-05
6.29859e-06
1.67919e-05
3.84911e-06
1.85087e-05
-4.87898e-06
2.09539e-05
-9.05411e-06
2.33711e-05
-9.8217e-06
2.54095e-05
-8.4034e-06
2.67329e-05
-5.48477e-06
2.72267e-05
-1.79269e-06
2.68203e-05
2.37786e-06
2.54648e-05
6.81926e-06
2.31323e-05
1.13646e-05
1.98546e-05
1.57353e-05
1.57232e-05
1.96769e-05
1.08905e-05
2.29101e-05
5.55681e-06
2.52117e-05
2.62319e-05
2.54278e-05
-0.000117904
2.59085e-05
-2.4485e-05
2.02474e-05
2.11011e-05
1.72933e-05
9.25267e-06
1.4837e-05
6.3054e-06
1.77516e-05
-7.79366e-06
2.07009e-05
-1.20034e-05
2.35331e-05
-1.26539e-05
2.58671e-05
-1.07373e-05
2.73544e-05
-6.97206e-06
2.79455e-05
-2.38381e-06
2.75971e-05
2.72631e-06
2.62555e-05
8.16085e-06
2.38964e-05
1.37237e-05
2.05396e-05
1.90921e-05
1.62841e-05
2.39324e-05
1.12865e-05
2.79077e-05
5.76153e-06
3.07366e-05
3.19933e-05
2.10418e-05
-0.000138946
1.94401e-05
-2.28833e-05
1.6412e-05
2.41291e-05
1.33764e-05
1.22883e-05
1.25031e-05
7.17861e-06
1.70684e-05
-1.23589e-05
2.03986e-05
-1.53336e-05
2.37749e-05
-1.60302e-05
2.64537e-05
-1.3416e-05
2.81179e-05
-8.63628e-06
2.88208e-05
-3.08666e-06
2.8544e-05
3.00318e-06
2.72272e-05
9.47771e-06
2.48347e-05
1.61162e-05
2.13879e-05
2.25389e-05
1.69786e-05
2.83417e-05
1.17793e-05
3.31069e-05
6.01684e-06
3.64989e-05
3.80101e-05
3.86745e-06
-0.000142813
-2.00144e-05
9.98571e-07
-8.8793e-06
1.2994e-05
4.32725e-06
-9.18349e-07
1.03568e-05
1.14908e-06
1.68976e-05
-1.88997e-05
2.03646e-05
-1.88005e-05
2.42882e-05
-1.99538e-05
2.72372e-05
-1.63651e-05
2.90569e-05
-1.0456e-05
2.98725e-05
-3.90212e-06
2.96702e-05
3.2055e-06
2.83814e-05
1.07666e-05
2.5954e-05
1.85436e-05
2.23959e-05
2.6097e-05
1.78062e-05
3.29311e-05
1.23652e-05
3.85478e-05
6.31953e-06
4.25444e-05
4.43295e-05
3.58723e-06
-2.3658e-06
1.38719e-05
-4.24677e-05
2.5637e-05
-5.98042e-05
3.60205e-05
-5.90094e-05
4.50845e-05
-5.19674e-05
5.37357e-05
-4.54932e-05
6.25448e-05
-4.13909e-05
7.161e-05
-3.91423e-05
8.0773e-05
-3.77248e-05
8.98059e-05
-3.62969e-05
9.85075e-05
-3.43236e-05
0.000106714
-3.14854e-05
0.000114266
-2.75477e-05
0.000120976
-2.22899e-05
0.00012666
-1.55252e-05
0.000131155
-7.10387e-06
0.000134416
3.02414e-06
0.000136313
1.51751e-05
0.000136967
2.96308e-05
0.000136355
4.66747e-05
0.000135613
6.77936e-05
0.000141568
9.09098e-05
0.000129775
0.000170955
5.65679e-06
-8.02259e-06
1.66408e-05
-5.34517e-05
2.75616e-05
-7.07251e-05
3.67186e-05
-6.81663e-05
4.50408e-05
-6.02896e-05
5.36332e-05
-5.40855e-05
6.28446e-05
-5.06023e-05
7.24903e-05
-4.8788e-05
8.22428e-05
-4.74773e-05
9.18293e-05
-4.58834e-05
0.000101079
-4.35735e-05
0.000109878
-4.0284e-05
0.000118153
-3.58231e-05
0.000125828
-2.99647e-05
0.000132884
-2.25809e-05
0.00013951
-1.37301e-05
0.00014528
-2.74578e-06
0.000150539
9.91606e-06
0.000155108
2.50613e-05
0.000160032
4.17511e-05
0.000168462
5.93634e-05
0.000183552
7.58196e-05
9.86691e-05
0.000214658
8.02516e-06
-1.60478e-05
1.93002e-05
-6.47267e-05
2.88147e-05
-8.02396e-05
3.66168e-05
-7.59685e-05
4.43761e-05
-6.80489e-05
5.30053e-05
-6.27147e-05
6.24201e-05
-6.00171e-05
7.21738e-05
-5.85417e-05
8.18997e-05
-5.72033e-05
9.14033e-05
-5.5387e-05
0.000100631
-5.28009e-05
0.000109565
-4.92178e-05
0.000118379
-4.46373e-05
0.000127206
-3.87925e-05
0.000135917
-3.1291e-05
0.000144111
-2.19241e-05
0.000152443
-1.10781e-05
0.00016138
9.79311e-07
0.000167885
1.85554e-05
0.000174926
3.47104e-05
0.000184634
4.9655e-05
0.000196632
6.38222e-05
7.68525e-05
0.000218449
1.11622e-05
-2.721e-05
2.22694e-05
-7.58339e-05
2.93853e-05
-8.73554e-05
3.54565e-05
-8.20397e-05
4.27629e-05
-7.53553e-05
5.15072e-05
-7.1459e-05
6.10567e-05
-6.95667e-05
7.09312e-05
-6.84161e-05
8.09758e-05
-6.72478e-05
9.1263e-05
-6.56742e-05
0.000102117
-6.36545e-05
0.000113417
-6.05179e-05
0.000125429
-5.66492e-05
0.000138703
-5.20666e-05
0.000153392
-4.59805e-05
0.000168571
-3.71027e-05
0.000182027
-2.45346e-05
0.00018957
-6.56321e-06
0.000193355
1.47703e-05
0.000195126
3.29392e-05
0.000198763
4.60186e-05
0.000205894
5.66906e-05
6.39034e-05
0.000218843
1.63052e-05
-4.35152e-05
2.80247e-05
-8.75534e-05
3.11272e-05
-9.0458e-05
3.49496e-05
-8.58621e-05
4.24516e-05
-8.28572e-05
5.24236e-05
-8.14311e-05
6.34525e-05
-8.05955e-05
7.52661e-05
-8.02297e-05
8.81271e-05
-8.01089e-05
0.000102753
-8.03001e-05
0.000120264
-8.11651e-05
0.000138482
-7.87367e-05
0.000158499
-7.66655e-05
0.000181581
-7.51489e-05
0.000207052
-7.14516e-05
0.000231594
-6.16443e-05
0.000251029
-4.39701e-05
0.000254186
-9.72022e-06
0.00024613
2.28265e-05
0.000233402
4.56668e-05
0.000222515
5.69059e-05
0.000218032
6.1174e-05
6.1655e-05
0.00022028
2.50627e-05
-6.85779e-05
3.81853e-05
-0.000100676
3.64944e-05
-8.87671e-05
3.88179e-05
-8.81855e-05
4.80575e-05
-9.20969e-05
6.06563e-05
-9.40299e-05
7.43746e-05
-9.43137e-05
8.96632e-05
-9.55183e-05
0.00010775
-9.81959e-05
0.000131029
-0.000103579
0.000158221
-0.000108357
0.000181232
-0.000101748
0.000209554
-0.000104987
0.000237995
-0.00010359
0.000263723
-9.71796e-05
0.000282142
-8.00639e-05
0.000290336
-5.21646e-05
0.000291868
-1.12515e-05
0.000287599
2.70952e-05
0.000278731
5.4535e-05
0.000264657
7.09799e-05
0.000243439
8.23911e-05
7.63363e-05
0.000228758
3.24462e-05
-0.000101024
4.46995e-05
-0.000112929
4.58115e-05
-8.98791e-05
4.98801e-05
-9.22541e-05
6.10756e-05
-0.000103292
7.17512e-05
-0.000104706
8.13747e-05
-0.000103937
9.15101e-05
-0.000105654
0.000103388
-0.000110073
0.000118393
-0.000118585
0.000139001
-0.000128964
0.000171095
-0.000133843
0.000200692
-0.000134584
0.000231993
-0.000134891
0.000260931
-0.000126117
0.000281616
-0.000100749
0.000291501
-6.20494e-05
0.000296276
-1.60267e-05
0.000294697
2.86736e-05
0.000285954
6.32778e-05
0.000274446
8.24887e-05
0.000266895
8.99415e-05
8.63047e-05
0.000256927
9.23975e-06
-0.000110264
1.70406e-05
-0.00012073
3.31411e-05
-0.00010598
4.17218e-05
-0.000100835
4.48995e-05
-0.00010647
5.08368e-05
-0.000110643
5.93079e-05
-0.000112408
6.95429e-05
-0.000115889
8.34699e-05
-0.000124
0.000102598
-0.000137713
0.000126042
-0.000152408
0.000152303
-0.000160104
0.000179037
-0.000161317
0.000210094
-0.000165948
0.000240148
-0.000156171
0.000262637
-0.000123238
0.000275121
-7.45338e-05
0.000277815
-1.87211e-05
0.000268278
3.82108e-05
0.000253456
7.80996e-05
0.000244049
9.18959e-05
0.000250193
8.37981e-05
6.45461e-05
0.000271951
-6.50701e-06
-0.000103757
-1.40142e-06
-0.000125836
1.28198e-05
-0.000120201
2.61725e-05
-0.000114188
3.44197e-05
-0.000114717
4.12414e-05
-0.000117465
4.91692e-05
-0.000120336
5.88976e-05
-0.000125617
7.16251e-05
-0.000136728
8.73963e-05
-0.000153484
0.000104682
-0.000169693
0.000121355
-0.000176777
0.000136057
-0.00017602
0.000157751
-0.000187642
0.000178752
-0.000177172
0.000196366
-0.000140852
0.000206355
-8.45232e-05
0.000207647
-2.00133e-05
0.000205371
4.04873e-05
0.000207024
7.64467e-05
0.000221202
7.77174e-05
0.000249922
5.50784e-05
3.04401e-05
0.000284028
-2.22009e-06
-0.000101537
7.26479e-06
-0.00013532
1.50781e-05
-0.000128014
2.33899e-05
-0.000122499
3.10872e-05
-0.000122415
3.80369e-05
-0.000124414
4.47837e-05
-0.000127083
5.18979e-05
-0.000132731
5.97433e-05
-0.000144573
6.75645e-05
-0.000161305
7.42753e-05
-0.000176404
7.96993e-05
-0.000182201
8.27209e-05
-0.000179041
8.96749e-05
-0.000194596
9.24511e-05
-0.000179949
9.19698e-05
-0.00014037
9.33462e-05
-8.58997e-05
0.000101216
-2.78835e-05
0.000122917
1.87861e-05
0.000161332
3.80321e-05
0.000205465
3.35843e-05
0.000245691
1.48524e-05
-8.22893e-08
0.000276214
5.14747e-06
-0.000106684
1.09016e-05
-0.000141075
1.59659e-05
-0.000133078
2.23638e-05
-0.000128897
2.90675e-05
-0.000129118
3.51765e-05
-0.000130523
4.05164e-05
-0.000132423
4.49477e-05
-0.000137163
4.78838e-05
-0.000147509
4.83895e-05
-0.000161811
4.63669e-05
-0.000174381
4.32413e-05
-0.000179076
3.81813e-05
-0.000173981
2.75017e-05
-0.000183917
1.98377e-05
-0.000172285
1.93908e-05
-0.000139923
3.08054e-05
-9.73142e-05
5.86589e-05
-5.57369e-05
0.00010285
-2.54055e-05
0.000153527
-1.26448e-05
0.000194619
-7.50712e-06
0.000219916
-1.04453e-05
-1.57998e-05
0.000235634
7.36721e-06
-0.000114051
1.13715e-05
-0.000145079
1.56641e-05
-0.000137371
2.14509e-05
-0.000134684
2.74281e-05
-0.000135096
3.29137e-05
-0.000136009
3.76259e-05
-0.000137135
4.07868e-05
-0.000140324
4.11422e-05
-0.000147865
3.79757e-05
-0.000158644
3.19511e-05
-0.000168357
2.5257e-05
-0.000172382
1.92558e-05
-0.00016798
5.83144e-06
-0.000170492
2.13137e-06
-0.000168584
1.1296e-05
-0.000149088
3.35755e-05
-0.000119594
6.41226e-05
-8.62841e-05
9.63546e-05
-5.76375e-05
0.000125405
-4.16946e-05
0.000148939
-3.1042e-05
0.000165863
-2.73684e-05
-3.04082e-05
0.000180471
7.74439e-06
-0.000121796
1.12575e-05
-0.000148592
1.56126e-05
-0.000141726
2.09977e-05
-0.000140069
2.64578e-05
-0.000140556
3.16845e-05
-0.000141236
3.64413e-05
-0.000141892
3.98072e-05
-0.00014369
4.03845e-05
-0.000148442
3.75892e-05
-0.000155849
3.22832e-05
-0.000163051
2.68023e-05
-0.000166901
2.44428e-05
-0.000165621
1.87883e-05
-0.000164838
1.1751e-05
-0.000161547
1.25738e-05
-0.000149911
2.29609e-05
-0.000129981
4.10931e-05
-0.000104416
6.34687e-05
-8.00131e-05
8.77145e-05
-6.59404e-05
0.000115332
-5.86592e-05
0.000143791
-5.58271e-05
-5.69207e-05
0.000170303
7.53978e-06
-0.000129335
1.09527e-05
-0.000152005
1.53932e-05
-0.000146167
2.05139e-05
-0.00014519
2.56902e-05
-0.000145732
3.08425e-05
-0.000146388
3.59167e-05
-0.000146966
4.02519e-05
-0.000148025
4.26331e-05
-0.000150823
4.23943e-05
-0.00015561
4.01036e-05
-0.00016076
3.73781e-05
-0.000164175
3.65832e-05
-0.000164826
3.47006e-05
-0.000162955
3.09044e-05
-0.000157751
2.98955e-05
-0.000148902
3.4771e-05
-0.000134856
4.83048e-05
-0.00011795
7.09589e-05
-0.000102667
9.66325e-05
-9.16139e-05
0.000123253
-8.52799e-05
0.000149256
-8.18304e-05
-8.10895e-05
0.000173425
6.96002e-06
-0.000136295
1.05588e-05
-0.000155604
1.5063e-05
-0.000150671
1.99924e-05
-0.000150119
2.49727e-05
-0.000150712
3.00096e-05
-0.000151425
3.5184e-05
-0.00015214
4.01995e-05
-0.00015304
4.4193e-05
-0.000154817
4.64369e-05
-0.000157854
4.70312e-05
-0.000161354
4.67948e-05
-0.000163939
4.66668e-05
-0.000164698
4.66451e-05
-0.000162933
4.74626e-05
-0.000158569
5.00047e-05
-0.000151444
5.67073e-05
-0.000141559
6.90983e-05
-0.000130341
8.6423e-05
-0.000119992
0.000106756
-0.000111947
0.000128316
-0.00010684
0.000150384
-0.000103898
-0.000103004
0.000172298
6.34734e-06
-0.000142643
1.01415e-05
-0.000159398
1.46571e-05
-0.000155186
1.94326e-05
-0.000154895
2.42304e-05
-0.00015551
2.90665e-05
-0.000156261
3.40321e-05
-0.000157106
3.90642e-05
-0.000158072
4.36822e-05
-0.000159435
4.72572e-05
-0.000161429
4.96024e-05
-0.000163699
5.10623e-05
-0.000165399
5.21635e-05
-0.000165799
5.36354e-05
-0.000164405
5.61284e-05
-0.000161062
6.04254e-05
-0.000155741
6.77743e-05
-0.000148908
7.88966e-05
-0.000141464
9.36456e-05
-0.000134741
0.000111287
-0.000129588
0.000130673
-0.000126226
0.000151016
-0.000124241
-0.000123785
0.000171797
5.82227e-06
-0.000148465
9.74578e-06
-0.000163321
1.42113e-05
-0.000159652
1.88424e-05
-0.000159526
2.34739e-05
-0.000160141
2.81e-05
-0.000160887
3.276e-05
-0.000161766
3.74651e-05
-0.000162777
4.2003e-05
-0.000163973
4.59742e-05
-0.0001654
4.91666e-05
-0.000166892
5.17527e-05
-0.000167985
5.41393e-05
-0.000168185
5.68899e-05
-0.000167156
6.06733e-05
-0.000164845
6.62799e-05
-0.000161348
7.43979e-05
-0.000157026
8.54551e-05
-0.000152521
9.92404e-05
-0.000148526
0.00011521
-0.000145558
0.000132759
-0.000143774
0.000151446
-0.000142929
-0.000143332
0.000170992
5.39219e-06
-0.000153857
9.37085e-06
-0.0001673
1.37524e-05
-0.000164034
1.82451e-05
-0.000164019
2.27321e-05
-0.000164628
2.71977e-05
-0.000165352
3.16387e-05
-0.000166207
3.60551e-05
-0.000167194
4.03761e-05
-0.000168294
4.44365e-05
-0.000169461
4.81299e-05
-0.000170585
5.15721e-05
-0.000171427
5.50897e-05
-0.000171703
5.91332e-05
-0.000171199
6.42052e-05
-0.000169917
7.08191e-05
-0.000167961
7.93706e-05
-0.000165578
9.00278e-05
-0.000163178
0.000102744
-0.000161242
0.000117314
-0.000160128
0.000133438
-0.000159899
0.000150854
-0.000160345
-0.00016187
0.000169392
5.04287e-06
-0.0001589
9.01365e-06
-0.000171271
1.32928e-05
-0.000168313
1.76517e-05
-0.000168378
2.20078e-05
-0.000168984
2.63543e-05
-0.000169699
3.06793e-05
-0.000170532
3.49679e-05
-0.000171483
3.92024e-05
-0.000172528
4.33536e-05
-0.000173612
4.74155e-05
-0.000174647
5.14908e-05
-0.000175502
5.58095e-05
-0.000176022
6.07093e-05
-0.000176099
6.65213e-05
-0.000175729
7.35604e-05
-0.000175001
8.21013e-05
-0.000174118
9.231e-05
-0.000173387
0.000104233
-0.000173165
0.000117792
-0.000173687
0.000132818
-0.000174925
0.00014917
-0.000176696
-0.000179495
0.000166794
4.75596e-06
-0.000163656
8.6689e-06
-0.000175184
1.28314e-05
-0.000172475
1.70575e-05
-0.000172604
2.12878e-05
-0.000173215
2.55259e-05
-0.000173937
2.97705e-05
-0.000174777
3.40131e-05
-0.000175725
3.82527e-05
-0.000176768
4.25046e-05
-0.000177864
4.68081e-05
-0.00017895
5.12619e-05
-0.000179956
5.60397e-05
-0.000180799
6.13719e-05
-0.000181431
6.7502e-05
-0.000181859
7.46693e-05
-0.000182168
8.30787e-05
-0.000182528
9.28743e-05
-0.000183182
0.000104118
-0.000184409
0.000116789
-0.000186358
0.000130819
-0.000188955
0.000146165
-0.000192042
-0.000196193
0.000162862
4.51192e-06
-0.000168168
8.32983e-06
-0.000179002
1.23641e-05
-0.000176509
1.64539e-05
-0.000176693
2.05547e-05
-0.000177315
2.46771e-05
-0.000178059
2.88288e-05
-0.000178928
3.30185e-05
-0.000179915
3.72545e-05
-0.000181004
4.1562e-05
-0.000182171
4.59935e-05
-0.000183382
5.06403e-05
-0.000184603
5.56366e-05
-0.000185796
6.11534e-05
-0.000186948
6.7377e-05
-0.000188083
7.44907e-05
-0.000189282
8.26533e-05
-0.00019069
9.19856e-05
-0.000192515
0.000102547
-0.00019497
0.000114365
-0.000198176
0.000127432
-0.000202023
0.000141778
-0.000206387
-0.000211911
0.000157496
4.29402e-06
-0.000172462
7.991e-06
-0.000182699
1.18866e-05
-0.000180405
1.58338e-05
-0.000180641
1.97989e-05
-0.00018128
2.37941e-05
-0.000182055
2.78336e-05
-0.000182968
3.19345e-05
-0.000184016
3.61173e-05
-0.000185187
4.04135e-05
-0.000186468
4.48754e-05
-0.000187844
4.95773e-05
-0.000189305
5.46281e-05
-0.000190846
6.01575e-05
-0.000192477
6.6312e-05
-0.000194237
7.32331e-05
-0.000196203
8.10409e-05
-0.000198498
8.98359e-05
-0.00020131
9.96804e-05
-0.000204815
0.000110621
-0.000209117
0.000122698
-0.0002141
0.000135981
-0.000219671
-0.00022654
0.00015061
4.09129e-06
-0.000176554
7.64838e-06
-0.000186256
1.13947e-05
-0.000184151
1.51905e-05
-0.000184436
1.90096e-05
-0.0001851
2.28661e-05
-0.000185911
2.6776e-05
-0.000186878
3.07592e-05
-0.000187999
3.48424e-05
-0.00018927
3.90604e-05
-0.000190686
4.3461e-05
-0.000192244
4.81078e-05
-0.000193952
5.30858e-05
-0.000195824
5.84969e-05
-0.000197889
6.44522e-05
-0.000200192
7.10582e-05
-0.000202809
7.84143e-05
-0.000205854
8.6596e-05
-0.000209491
9.56669e-05
-0.000213886
0.000105683
-0.000219133
0.0001167
-0.000225116
0.000128807
-0.000231779
-0.000239887
0.000142154
3.89551e-06
-0.000180449
7.29824e-06
-0.000189659
1.08848e-05
-0.000187738
1.45191e-05
-0.000188071
1.81801e-05
-0.000188761
2.18827e-05
-0.000189614
2.56437e-05
-0.000190639
2.94833e-05
-0.000191839
3.34283e-05
-0.000193215
3.75119e-05
-0.000194769
4.17777e-05
-0.00019651
4.62798e-05
-0.000198454
5.10843e-05
-0.000200629
5.62678e-05
-0.000203072
6.19148e-05
-0.00020584
6.81095e-05
-0.000209003
7.49274e-05
-0.000212672
8.24276e-05
-0.000216992
9.06656e-05
-0.000222124
9.96936e-05
-0.000228161
0.000109575
-0.000234998
0.000120401
-0.000242604
-0.000251776
0.00013229
3.70125e-06
-0.00018415
6.93769e-06
-0.000192895
1.03545e-05
-0.000191155
1.38164e-05
-0.000191533
1.73064e-05
-0.000192251
2.08389e-05
-0.000193146
2.44301e-05
-0.00019423
2.80992e-05
-0.000195508
3.18703e-05
-0.000196986
3.57736e-05
-0.000198673
3.98461e-05
-0.000200583
4.41316e-05
-0.000202739
4.8681e-05
-0.000205178
5.35535e-05
-0.000207945
5.88105e-05
-0.000211097
6.45154e-05
-0.000214708
7.07232e-05
-0.00021888
7.74783e-05
-0.000223747
8.48287e-05
-0.000229474
9.2812e-05
-0.000236145
0.000101491
-0.000243677
0.000110942
-0.000252054
-0.000262081
0.000121247
3.50484e-06
-0.000187655
6.56455e-06
-0.000195955
9.80247e-06
-0.000194393
1.30818e-05
-0.000194812
1.63885e-05
-0.000195557
1.97354e-05
-0.000196493
2.31375e-05
-0.000197632
2.66119e-05
-0.000198983
3.01792e-05
-0.000200554
3.38636e-05
-0.000202357
3.76955e-05
-0.000204414
4.17092e-05
-0.000206753
4.5943e-05
-0.000209412
5.04396e-05
-0.000212441
5.52434e-05
-0.0002159
6.03991e-05
-0.000219864
6.59421e-05
-0.000224423
7.19065e-05
-0.000229711
7.83165e-05
-0.000235884
8.52073e-05
-0.000243035
9.26239e-05
-0.000251094
0.000100612
-0.000260042
-0.000270674
0.000109205
3.3023e-06
-0.000190957
6.17789e-06
-0.000198831
9.22919e-06
-0.000197444
1.23169e-05
-0.0001979
1.54293e-05
-0.00019867
1.85775e-05
-0.000199642
2.17741e-05
-0.000200829
2.5033e-05
-0.000202242
2.83704e-05
-0.000203891
3.18067e-05
-0.000205793
3.53629e-05
-0.000207971
3.90642e-05
-0.000210454
4.29373e-05
-0.000213285
4.70114e-05
-0.000216515
5.13155e-05
-0.000220204
5.58781e-05
-0.000224426
6.07191e-05
-0.000229264
6.5858e-05
-0.00023485
7.13011e-05
-0.000241327
7.70625e-05
-0.000248797
8.31684e-05
-0.0002572
8.96427e-05
-0.000266516
-0.00027747
9.64385e-05
3.09302e-06
-0.00019405
5.7793e-06
-0.000201517
8.63742e-06
-0.000200302
1.15254e-05
-0.000200788
1.44343e-05
-0.000201579
1.73728e-05
-0.00020258
2.03508e-05
-0.000203807
2.33786e-05
-0.000205269
2.64681e-05
-0.000206981
2.9633e-05
-0.000208958
3.28879e-05
-0.000211226
3.62484e-05
-0.000213815
3.9731e-05
-0.000216767
4.33518e-05
-0.000220136
4.71262e-05
-0.000223979
5.10676e-05
-0.000228368
5.51856e-05
-0.000233382
5.94791e-05
-0.000239143
6.39306e-05
-0.000245779
6.85565e-05
-0.000253423
7.33622e-05
-0.000262005
7.83164e-05
-0.000271471
-0.000282495
8.33408e-05
2.87795e-06
-0.000196928
5.37324e-06
-0.000204012
8.03231e-06
-0.000202961
1.07144e-05
-0.00020347
1.34123e-05
-0.000204276
1.61323e-05
-0.0002053
1.88815e-05
-0.000206556
2.16667e-05
-0.000208055
2.44952e-05
-0.000209809
2.73745e-05
-0.000211838
3.0312e-05
-0.000214163
3.33151e-05
-0.000216818
3.63901e-05
-0.000219842
3.95409e-05
-0.000223287
4.27716e-05
-0.000227209
4.60803e-05
-0.000231676
4.94642e-05
-0.000236766
5.29014e-05
-0.00024258
5.63804e-05
-0.000249257
5.98765e-05
-0.000256919
6.33775e-05
-0.000265506
6.68679e-05
-0.000274961
-0.000285837
7.02103e-05
2.66166e-06
-0.00019959
4.96801e-06
-0.000206318
7.42379e-06
-0.000205417
9.89472e-06
-0.000205941
1.23757e-05
-0.000206757
1.48708e-05
-0.000207795
1.73842e-05
-0.00020907
1.9919e-05
-0.000210589
2.24781e-05
-0.000212368
2.50635e-05
-0.000214423
2.76762e-05
-0.000216776
3.03152e-05
-0.000219457
3.29775e-05
-0.000222505
3.56558e-05
-0.000225965
3.83421e-05
-0.000229896
4.10233e-05
-0.000234357
4.36807e-05
-0.000239423
4.62813e-05
-0.000245181
4.87923e-05
-0.000251768
5.11733e-05
-0.0002593
5.34195e-05
-0.000267752
5.54685e-05
-0.00027701
-0.000287564
5.71953e-05
2.45228e-06
-0.000202042
4.57334e-06
-0.000208439
6.8219e-06
-0.000207666
9.07914e-06
-0.000208198
1.13398e-05
-0.000209018
1.36063e-05
-0.000210062
1.58796e-05
-0.000211343
1.81599e-05
-0.00021287
2.0446e-05
-0.000214654
2.27349e-05
-0.000216712
2.50216e-05
-0.000219063
2.72983e-05
-0.000221734
2.95528e-05
-0.000224759
3.17695e-05
-0.000228182
3.39276e-05
-0.000232054
3.5997e-05
-0.000236427
3.79511e-05
-0.000241377
3.97476e-05
-0.000246977
4.13328e-05
-0.000253354
4.26385e-05
-0.000260605
4.36526e-05
-0.000268766
4.43074e-05
-0.000277665
-0.000287692
4.44354e-05
2.25838e-06
-0.000204301
4.19778e-06
-0.000210379
6.23712e-06
-0.000209705
8.28006e-06
-0.000210241
1.032e-05
-0.000211058
1.23573e-05
-0.000212099
1.43901e-05
-0.000213376
1.64155e-05
-0.000214895
1.8429e-05
-0.000216668
2.04237e-05
-0.000218706
2.23894e-05
-0.000221028
2.43122e-05
-0.000223656
2.61728e-05
-0.000226619
2.79455e-05
-0.000229954
2.95971e-05
-0.000233705
3.10936e-05
-0.000237923
3.23864e-05
-0.00024267
3.34207e-05
-0.000248012
3.41177e-05
-0.00025405
3.44173e-05
-0.000260905
3.42635e-05
-0.000268613
3.35793e-05
-0.000276981
-0.000286286
3.21735e-05
2.08582e-06
-0.000206387
3.84377e-06
-0.000212137
5.67316e-06
-0.000211534
7.50445e-06
-0.000212073
9.32684e-06
-0.000212881
1.11387e-05
-0.000213911
1.29351e-05
-0.000215172
1.47107e-05
-0.000216671
1.64576e-05
-0.000218415
1.81657e-05
-0.000220414
1.98209e-05
-0.000222683
2.14044e-05
-0.00022524
2.28908e-05
-0.000228106
2.42477e-05
-0.000231311
2.54334e-05
-0.000234891
2.63998e-05
-0.00023889
2.70872e-05
-0.000243357
2.74258e-05
-0.00024835
2.73268e-05
-0.000253951
2.67051e-05
-0.000260283
2.54507e-05
-0.000267358
2.35045e-05
-0.000275035
-0.000283434
2.06526e-05
1.9338e-06
-0.00020832
3.50624e-06
-0.00021371
5.12808e-06
-0.000213156
6.75167e-06
-0.000213696
8.36272e-06
-0.000214492
9.9571e-06
-0.000215505
1.1527e-05
-0.000216742
1.30643e-05
-0.000218208
1.45582e-05
-0.000219908
1.59953e-05
-0.000221851
1.73582e-05
-0.000224046
1.86244e-05
-0.000226506
1.97645e-05
-0.000229246
2.07406e-05
-0.000232287
2.15049e-05
-0.000235655
2.19986e-05
-0.000239383
2.21501e-05
-0.000243508
2.1876e-05
-0.000248076
2.10688e-05
-0.000253144
1.96028e-05
-0.000258817
1.73928e-05
-0.000265148
1.43134e-05
-0.000271955
-0.000279253
1.01316e-05
1.79397e-06
-0.000210114
3.17378e-06
-0.000215089
4.59214e-06
-0.000214575
6.01404e-06
-0.000215118
7.42192e-06
-0.0002159
8.81028e-06
-0.000216893
1.01686e-05
-0.0002181
1.14857e-05
-0.000219525
1.27482e-05
-0.000221171
1.39394e-05
-0.000223043
1.50392e-05
-0.000225146
1.60215e-05
-0.000227488
1.68539e-05
-0.000230078
1.74949e-05
-0.000232928
1.78923e-05
-0.000236053
1.79806e-05
-0.000239471
1.76791e-05
-0.000243207
1.68903e-05
-0.000247287
1.54937e-05
-0.000251748
1.33535e-05
-0.000256677
1.03033e-05
-0.000262098
6.24519e-06
-0.000267897
-0.00027391
9.02976e-07
1.65541e-06
-0.00021177
2.83551e-06
-0.00021627
4.05665e-06
-0.000215796
5.28378e-06
-0.000216346
6.49874e-06
-0.000217115
7.69354e-06
-0.000218088
8.85706e-06
-0.000219263
9.97585e-06
-0.000220643
1.10342e-05
-0.000222229
1.2013e-05
-0.000224022
1.2889e-05
-0.000226022
1.36338e-05
-0.000228233
1.42116e-05
-0.000230656
1.45783e-05
-0.000233295
1.46784e-05
-0.000236153
1.4442e-05
-0.000239235
1.37829e-05
-0.000242548
1.25965e-05
-0.000246101
1.07504e-05
-0.000249902
8.05747e-06
-0.000253984
4.37784e-06
-0.000258419
-4.52927e-07
-0.000263066
-0.000267672
-6.69179e-06
1.51157e-06
-0.000213281
2.48482e-06
-0.000217243
3.51582e-06
-0.000216827
4.55602e-06
-0.000217386
5.58751e-06
-0.000218146
6.60153e-06
-0.000219102
7.58664e-06
-0.000220248
8.52888e-06
-0.000221586
9.41153e-06
-0.000223112
1.02145e-05
-0.000224824
1.09128e-05
-0.00022672
1.14762e-05
-0.000228796
1.18666e-05
-0.000231047
1.20377e-05
-0.000233466
1.1931e-05
-0.000236046
1.1475e-05
-0.000238779
1.05812e-05
-0.000241654
9.13035e-06
-0.00024465
6.98624e-06
-0.000247758
3.97308e-06
-0.000250971
-1.14002e-07
-0.000254332
-5.44726e-06
-0.000257733
-0.000260841
-1.22774e-05
1.36209e-06
-0.000214644
2.1151e-06
-0.000217996
2.96152e-06
-0.000217674