/*--------------------------------*- C++ -*----------------------------------*\
| =========                 |                                                 |
| \\      /  F ield         | OpenFOAM: The Open Source CFD Toolbox           |
|  \\    /   O peration     | Version:  5.x                                   |
|   \\  /    A nd           | Web:      www.OpenFOAM.org                      |
|    \\/     M anipulation  |                                                 |
\*---------------------------------------------------------------------------*/
FoamFile
{
    version     2.0;
    format      ascii;
    class       volVectorField;
    location    "0.3";
    object      U;
}
// * * * * * * * * * * * * * * * * * * * * * * * * * * * * * * * * * * * * * //

dimensions      [0 1 -1 0 0 0 0];

internalField   nonuniform List<vector> 
2268
(
(-0.0202131 0.00259163 0)
(0.00122113 -0.00976278 0)
(0.0638195 -0.0163922 0)
(0.137201 -0.0175933 0)
(0.209043 -0.0158138 0)
(0.27175 -0.0132846 0)
(0.323782 -0.0111369 0)
(0.367657 -0.00965392 0)
(0.406511 -0.00871175 0)
(0.442285 -0.00804659 0)
(0.475531 -0.00739179 0)
(0.50576 -0.00652759 0)
(0.531703 -0.00528773 0)
(0.551221 -0.00350104 0)
(0.562296 -7.12482e-05 0)
(0.556133 0.00654752 0)
(0.521543 0.0179631 0)
(0.443547 0.0348515 0)
(0.305362 0.051938 0)
(0.107749 0.0545138 0)
(-0.109964 0.0130871 0)
(-0.231355 -0.0255557 0)
(-0.0752612 -0.0761425 0)
(-0.0200754 0.00743886 0)
(0.00270196 -0.0296926 0)
(0.0658421 -0.0494673 0)
(0.13934 -0.0529933 0)
(0.210819 -0.0476781 0)
(0.273064 -0.0401541 0)
(0.324904 -0.0337782 0)
(0.368953 -0.0293924 0)
(0.40827 -0.0266144 0)
(0.444685 -0.0246499 0)
(0.478673 -0.0227026 0)
(0.5097 -0.0201354 0)
(0.536537 -0.0164522 0)
(0.557579 -0.0111632 0)
(0.57016 -0.00290386 0)
(0.576945 0.00997076 0)
(0.579654 0.0305649 0)
(0.573795 0.0627239 0)
(0.53697 0.105608 0)
(0.41257 0.143873 0)
(0.193134 0.127859 0)
(-0.116221 0.0463755 0)
(0.0462202 -0.126953 0)
(-0.0191658 0.0116734 0)
(0.00525928 -0.0498585 0)
(0.0688209 -0.0824471 0)
(0.141854 -0.0879492 0)
(0.21204 -0.0789789 0)
(0.272856 -0.066538 0)
(0.323786 -0.0561193 0)
(0.367636 -0.0490416 0)
(0.407331 -0.044597 0)
(0.444488 -0.0414354 0)
(0.479402 -0.038246 0)
(0.511451 -0.0340053 0)
(0.539402 -0.0279442 0)
(0.561668 -0.0193564 0)
(0.576262 -0.00761646 0)
(0.580996 0.00820823 0)
(0.574993 0.0310811 0)
(0.561575 0.0669902 0)
(0.554144 0.123637 0)
(0.533753 0.194209 0)
(0.441746 0.224752 0)
(0.194139 0.121787 0)
(0.137512 -0.090103 0)
(-0.0179013 0.0148503 0)
(0.00910031 -0.0705595 0)
(0.073055 -0.115416 0)
(0.145229 -0.122318 0)
(0.213538 -0.109521 0)
(0.272435 -0.0923469 0)
(0.322252 -0.0782313 0)
(0.366 -0.0688094 0)
(0.406384 -0.0629566 0)
(0.444699 -0.0587486 0)
(0.480994 -0.0543912 0)
(0.514519 -0.0485215 0)
(0.544039 -0.0401575 0)
(0.568023 -0.028482 0)
(0.584732 -0.0127147 0)
(0.592393 0.00852727 0)
(0.589459 0.0370074 0)
(0.574448 0.075487 0)
(0.554308 0.129544 0)
(0.547609 0.20622 0)
(0.54101 0.273112 0)
(0.3885 0.215671 0)
(0.226239 0.0216702 0)
(-0.0161069 0.0164769 0)
(0.0140365 -0.0918858 0)
(0.0782182 -0.14817 0)
(0.149045 -0.155731 0)
(0.214915 -0.138958 0)
(0.271531 -0.117383 0)
(0.320169 -0.100086 0)
(0.363992 -0.0887858 0)
(0.405371 -0.0818417 0)
(0.445191 -0.0767555 0)
(0.483205 -0.0713007 0)
(0.518527 -0.0638415 0)
(0.549932 -0.0532329 0)
(0.576004 -0.0385672 0)
(0.595223 -0.0189259 0)
(0.606096 0.00690747 0)
(0.607496 0.0405552 0)
(0.598221 0.083986 0)
(0.578057 0.138026 0)
(0.552082 0.207505 0)
(0.554564 0.290383 0)
(0.466488 0.298008 0)
(0.280473 0.174291 0)
(-0.0136596 0.0161725 0)
(0.0198717 -0.113964 0)
(0.0840555 -0.180559 0)
(0.153026 -0.187946 0)
(0.215969 -0.16708 0)
(0.27011 -0.141559 0)
(0.317666 -0.121737 0)
(0.361821 -0.109125 0)
(0.404494 -0.101452 0)
(0.446086 -0.0956675 0)
(0.486045 -0.0891918 0)
(0.523366 -0.0801959 0)
(0.556866 -0.0674322 0)
(0.585271 -0.0499313 0)
(0.607261 -0.0267478 0)
(0.621562 0.00328813 0)
(0.62725 0.0415173 0)
(0.623139 0.0897051 0)
(0.609891 0.148532 0)
(0.578015 0.216366 0)
(0.556629 0.303949 0)
(0.490762 0.371059 0)
(0.307815 0.349855 0)
(-0.010724 0.0140443 0)
(0.0263608 -0.136993 0)
(0.0904051 -0.212584 0)
(0.157015 -0.218988 0)
(0.216668 -0.193965 0)
(0.268317 -0.164968 0)
(0.315031 -0.143263 0)
(0.359842 -0.129869 0)
(0.404091 -0.121786 0)
(0.447669 -0.115439 0)
(0.489738 -0.10798 0)
(0.529229 -0.0974745 0)
(0.565044 -0.0826365 0)
(0.596052 -0.0624738 0)
(0.621073 -0.0360376 0)
(0.63891 -0.00230467 0)
(0.648827 0.0399868 0)
(0.649635 0.0923124 0)
(0.642373 0.156821 0)
(0.618013 0.230822 0)
(0.581513 0.325154 0)
(0.516176 0.435187 0)
(0.352027 0.526362 0)
(-0.00740911 0.0101868 0)
(0.0332292 -0.161054 0)
(0.0970188 -0.244169 0)
(0.160925 -0.248772 0)
(0.217214 -0.219658 0)
(0.266614 -0.187742 0)
(0.312871 -0.164762 0)
(0.358698 -0.151016 0)
(0.404796 -0.142727 0)
(0.450562 -0.135865 0)
(0.494936 -0.127398 0)
(0.53685 -0.11537 0)
(0.575319 -0.098508 0)
(0.609308 -0.0757959 0)
(0.637639 -0.0462429 0)
(0.659132 -0.00886251 0)
(0.673111 0.0373357 0)
(0.678896 0.0935102 0)
(0.676484 0.162372 0)
(0.663236 0.243806 0)
(0.628738 0.349258 0)
(0.573563 0.499026 0)
(0.34421 0.758843 0)
(0.073951 -0.0312565 0)
(0.196389 -0.0185026 0)
(0.23957 0.000405757 0)
(0.222065 0.00327677 0)
(0.209465 0.0015059 0)
(0.211666 -0.00070509 0)
(0.222444 -0.00266865 0)
(0.238932 -0.00335707 0)
(0.255808 -0.00284192 0)
(0.268652 -0.00159882 0)
(0.273998 0.000338194 0)
(0.269929 0.00210773 0)
(0.256713 0.00387659 0)
(0.234605 0.00552594 0)
(0.20432 0.00703985 0)
(0.166809 0.00829847 0)
(0.123425 0.00926031 0)
(0.075708 0.00992757 0)
(0.0254235 0.0103969 0)
(0.0829196 -0.0916257 0)
(0.20819 -0.0502524 0)
(0.243398 0.00193127 0)
(0.224854 0.00678543 0)
(0.215145 0.00180646 0)
(0.220633 -0.00439789 0)
(0.234317 -0.00995305 0)
(0.253811 -0.0118364 0)
(0.273533 -0.0101699 0)
(0.289015 -0.00640566 0)
(0.297786 -0.00111065 0)
(0.298827 0.00463624 0)
(0.290234 0.0106383 0)
(0.270714 0.0165492 0)
(0.24023 0.0220829 0)
(0.199272 0.026918 0)
(0.149316 0.0307501 0)
(0.0923775 0.0334441 0)
(0.0310375 0.0345906 0)
(0.119013 -0.169426 0)
(0.247404 -0.0797122 0)
(0.257714 0.00844389 0)
(0.223727 0.0103934 0)
(0.212631 0.00281492 0)
(0.217678 -0.00842036 0)
(0.232138 -0.017928 0)
(0.253335 -0.0208404 0)
(0.274415 -0.0179963 0)
(0.290656 -0.0117227 0)
(0.299333 -0.00337969 0)
(0.299219 0.00633328 0)
(0.289508 0.0167214 0)
(0.269352 0.0272673 0)
(0.238702 0.0373015 0)
(0.197933 0.0462688 0)
(0.148343 0.0535415 0)
(0.0918087 0.0586839 0)
(0.0308219 0.0609318 0)
(0.157394 -0.254984 0)
(0.312229 -0.102564 0)
(0.274737 0.026638 0)
(0.216671 0.0173129 0)
(0.206589 0.00683639 0)
(0.211972 -0.0128082 0)
(0.228704 -0.0268776 0)
(0.252996 -0.0305633 0)
(0.276372 -0.0263425 0)
(0.29401 -0.0171939 0)
(0.303454 -0.00519779 0)
(0.30346 0.00853378 0)
(0.29337 0.0232442 0)
(0.27254 0.0382876 0)
(0.241089 0.0527147 0)
(0.199561 0.0657096 0)
(0.149337 0.0763542 0)
(0.0923273 0.0839198 0)
(0.0309848 0.087268 0)
(0.150647 -0.358018 0)
(0.373661 -0.103083 0)
(0.293508 0.0504059 0)
(0.201401 0.0237356 0)
(0.196051 0.0137822 0)
(0.202482 -0.0190937 0)
(0.223998 -0.0374531 0)
(0.252806 -0.0415119 0)
(0.279302 -0.0356401 0)
(0.298886 -0.023263 0)
(0.309496 -0.00740296 0)
(0.310165 0.0106262 0)
(0.30033 0.0298662 0)
(0.27932 0.0495444 0)
(0.247236 0.0684544 0)
(0.204698 0.0855038 0)
(0.153172 0.0994985 0)
(0.094684 0.109456 0)
(0.031785 0.113871 0)
(0.109493 -0.526681 0)
(0.378368 -0.0973845 0)
(0.293996 0.116391 0)
(0.17746 0.0390758 0)
(0.179773 0.0223166 0)
(0.186501 -0.0295355 0)
(0.217569 -0.0500327 0)
(0.252647 -0.0541319 0)
(0.283149 -0.0461778 0)
(0.305216 -0.0300365 0)
(0.317281 -0.0100102 0)
(0.31881 0.0124877 0)
(0.309386 0.0364361 0)
(0.288326 0.060942 0)
(0.255629 0.0845526 0)
(0.211917 0.105847 0)
(0.158707 0.123328 0)
(0.0981556 0.135771 0)
(0.0329712 0.1413 0)
(0.0727112 -0.696368 0)
(0.30818 -0.154132 0)
(0.235979 0.0377514 0)
(0.107547 0.0716917 0)
(0.154621 0.0391669 0)
(0.166298 -0.0497619 0)
(0.211366 -0.0670586 0)
(0.252984 -0.0694652 0)
(0.288181 -0.0582862 0)
(0.313134 -0.0376648 0)
(0.326808 -0.0131167 0)
(0.329364 0.0140269 0)
(0.320458 0.0428953 0)
(0.299367 0.0724896 0)
(0.265964 0.101084 0)
(0.220846 0.126893 0)
(0.165583 0.148099 0)
(0.102486 0.163198 0)
(0.0344532 0.169928 0)
(0.0206133 -0.731944 0)
(-0.00610546 0.00125189 0)
(-0.287992 0.278013 0)
(-0.0118288 -0.000713388 0)
(0.122187 0.0184019 0)
(0.147104 -0.0720466 0)
(0.21155 -0.0834598 0)
(0.25672 -0.0876685 0)
(0.295403 -0.0717776 0)
(0.323127 -0.0459891 0)
(0.33832 -0.0167733 0)
(0.341925 0.0152061 0)
(0.333618 0.0492288 0)
(0.312502 0.0841516 0)
(0.278258 0.118002 0)
(0.231462 0.148583 0)
(0.173755 0.173708 0)
(0.10763 0.19161 0)
(0.0362114 0.199633 0)
(-0.00206378 -0.00148154 0)
(0.0440196 -0.200984 0)
(0.107207 -0.291765 0)
(0.16669 -0.291669 0)
(0.218225 -0.256864 0)
(0.265107 -0.222323 0)
(0.311582 -0.199134 0)
(0.359546 -0.18594 0)
(0.408679 -0.177869 0)
(0.457758 -0.170462 0)
(0.50555 -0.160681 0)
(0.551097 -0.146676 0)
(0.5936 -0.127207 0)
(0.632167 -0.101109 0)
(0.665756 -0.0672663 0)
(0.693466 -0.0247121 0)
(0.714697 0.0280036 0)
(0.729556 0.0913381 0)
(0.73651 0.168216 0)
(0.741367 0.259331 0)
(0.732663 0.377659 0)
(0.782391 0.523821 0)
(0.791576 0.879658 0)
(0.00555424 -0.0257603 0)
(0.0590724 -0.257967 0)
(0.120637 -0.35357 0)
(0.173717 -0.345061 0)
(0.219396 -0.30401 0)
(0.264068 -0.268809 0)
(0.31175 -0.247809 0)
(0.36265 -0.236815 0)
(0.41506 -0.229711 0)
(0.467209 -0.221896 0)
(0.517893 -0.210629 0)
(0.566405 -0.194295 0)
(0.612321 -0.17165 0)
(0.655283 -0.141335 0)
(0.69491 -0.102303 0)
(0.731572 -0.0547211 0)
(0.765289 0.000220381 0)
(0.796154 0.063763 0)
(0.822423 0.14109 0)
(0.84995 0.229914 0)
(0.875696 0.335936 0)
(0.94198 0.446882 0)
(1.03975 0.626615 0)
(0.0145156 -0.0625326 0)
(0.0751391 -0.319224 0)
(0.131668 -0.410229 0)
(0.176242 -0.391428 0)
(0.216611 -0.347446 0)
(0.260207 -0.315552 0)
(0.308955 -0.298864 0)
(0.360878 -0.290262 0)
(0.413463 -0.283231 0)
(0.46519 -0.273785 0)
(0.515416 -0.259824 0)
(0.563999 -0.239726 0)
(0.611541 -0.212848 0)
(0.658732 -0.1785 0)
(0.705621 -0.135781 0)
(0.751644 -0.0834034 0)
(0.796663 -0.0198504 0)
(0.843363 0.06087 0)
(0.885213 0.150394 0)
(0.921687 0.2423 0)
(0.962603 0.329032 0)
(1.01782 0.403994 0)
(1.10387 0.46343 0)
(0.0251686 -0.112814 0)
(0.0960298 -0.381052 0)
(0.141767 -0.456323 0)
(0.172985 -0.428595 0)
(0.208116 -0.386873 0)
(0.251639 -0.36104 0)
(0.301367 -0.348345 0)
(0.353805 -0.340666 0)
(0.407308 -0.332799 0)
(0.46168 -0.322226 0)
(0.517909 -0.308115 0)
(0.577095 -0.289154 0)
(0.639614 -0.267319 0)
(0.707295 -0.241846 0)
(0.782186 -0.211802 0)
(0.863073 -0.174899 0)
(0.943425 -0.126136 0)
(1.00329 -0.0597093 0)
(1.03398 0.0175566 0)
(1.04494 0.102585 0)
(1.057 0.191111 0)
(1.08032 0.281257 0)
(1.13419 0.351367 0)
(0.0396587 -0.187265 0)
(0.134537 -0.437023 0)
(0.162614 -0.483826 0)
(0.172444 -0.455684 0)
(0.203902 -0.426416 0)
(0.252721 -0.410863 0)
(0.309779 -0.404062 0)
(0.370898 -0.400778 0)
(0.436586 -0.398283 0)
(0.50916 -0.3954 0)
(0.595011 -0.393147 0)
(0.69121 -0.390324 0)
(0.793089 -0.382371 0)
(0.90857 -0.36686 0)
(1.04057 -0.337983 0)
(1.17996 -0.283693 0)
(1.30582 -0.194004 0)
(1.37934 -0.0496525 0)
(1.35663 0.0932826 0)
(1.28598 0.193032 0)
(1.21795 0.251898 0)
(1.17451 0.293096 0)
(1.17175 0.32312 0)
(0.0679768 -0.290527 0)
(0.195297 -0.502482 0)
(0.205671 -0.498377 0)
(0.191923 -0.479981 0)
(0.226728 -0.477284 0)
(0.289406 -0.479042 0)
(0.360246 -0.480731 0)
(0.437175 -0.484893 0)
(0.524341 -0.491658 0)
(0.631304 -0.503256 0)
(0.7705 -0.525514 0)
(0.898717 -0.517039 0)
(1.0597 -0.495724 0)
(1.20914 -0.46573 0)
(1.35243 -0.42246 0)
(1.47804 -0.340191 0)
(1.5505 -0.220317 0)
(1.58124 -0.0104273 0)
(1.56423 0.183986 0)
(1.51265 0.296102 0)
(1.46626 0.356237 0)
(1.36764 0.372192 0)
(1.25905 0.349637 0)
(0.0832945 -0.428191 0)
(0.230225 -0.616289 0)
(0.259554 -0.489932 0)
(0.244375 -0.487292 0)
(0.288843 -0.533685 0)
(0.355101 -0.560082 0)
(0.412995 -0.555965 0)
(0.470231 -0.555256 0)
(0.525707 -0.562734 0)
(0.594399 -0.588395 0)
(0.688168 -0.613222 0)
(0.829186 -0.553596 0)
(0.993294 -0.578448 0)
(1.15916 -0.599102 0)
(1.32539 -0.573988 0)
(1.46633 -0.469527 0)
(1.55574 -0.29553 0)
(1.58984 -0.0817129 0)
(1.59063 0.146865 0)
(1.56219 0.332947 0)
(1.5089 0.434484 0)
(1.45672 0.503646 0)
(1.40361 0.480032 0)
(0.0026448 -0.658211 0)
(0.0621793 -0.657285 0)
(0.167355 -0.494134 0)
(0.208009 -0.49316 0)
(0.230758 -0.554326 0)
(0.256078 -0.556238 0)
(0.294435 -0.552744 0)
(0.34315 -0.566408 0)
(0.405956 -0.604069 0)
(0.494006 -0.674026 0)
(0.61026 -0.752274 0)
(0.745611 -0.801641 0)
(0.889458 -0.826925 0)
(1.0429 -0.840954 0)
(1.19949 -0.781745 0)
(1.35482 -0.623482 0)
(1.45857 -0.391368 0)
(1.50633 -0.10433 0)
(1.48814 0.172338 0)
(1.40673 0.379418 0)
(1.31993 0.479311 0)
(1.30632 0.493547 0)
(1.38762 0.436513 0)
(-0.0382858 -0.564654 0)
(-0.0403263 -0.556587 0)
(0.028587 -0.588168 0)
(0.10941 -0.582004 0)
(0.164615 -0.594809 0)
(0.203917 -0.610474 0)
(0.242262 -0.62653 0)
(0.287628 -0.656263 0)
(0.348082 -0.715238 0)
(0.426303 -0.804671 0)
(0.515646 -0.892835 0)
(0.601946 -0.932696 0)
(0.705645 -0.931248 0)
(0.789963 -0.973399 0)
(0.865027 -0.942036 0)
(1.01464 -0.766712 0)
(1.0942 -0.472655 0)
(1.12907 -0.135514 0)
(1.13401 0.198286 0)
(1.10205 0.439668 0)
(1.12206 0.503888 0)
(1.24772 0.417181 0)
(1.42711 0.275596 0)
(-0.0253207 -0.541407 0)
(0.00951219 -0.729962 0)
(0.0600825 -0.682291 0)
(0.103595 -0.646667 0)
(0.14675 -0.643854 0)
(0.186684 -0.655574 0)
(0.223115 -0.671767 0)
(0.25978 -0.703254 0)
(0.30172 -0.767839 0)
(0.345595 -0.861464 0)
(0.382625 -0.948396 0)
(0.404074 -0.983141 0)
(0.470218 -0.973029 0)
(0.440912 -1.0604 0)
(0.461698 -0.988675 0)
(0.503955 -0.763894 0)
(0.491429 -0.449434 0)
(0.528568 -0.0705628 0)
(0.607423 0.254496 0)
(0.749208 0.400104 0)
(0.974838 0.353242 0)
(1.21839 0.19183 0)
(1.40797 0.0499922 0)
(0.0154843 -0.557881 0)
(0.0451139 -0.748898 0)
(0.0687791 -0.706601 0)
(0.10235 -0.679444 0)
(0.138468 -0.680271 0)
(0.173622 -0.689535 0)
(0.204657 -0.701893 0)
(0.232307 -0.731267 0)
(0.254772 -0.794142 0)
(0.264685 -0.880808 0)
(0.25626 -0.956474 0)
(0.231122 -0.983084 0)
(0.259046 -0.957772 0)
(0.141922 -1.02724 0)
(0.11779 -0.929201 0)
(0.0883389 -0.713422 0)
(0.136363 -0.426477 0)
(0.224199 -0.188734 0)
(0.427244 -0.00940725 0)
(0.690669 0.0369554 0)
(0.943364 0.00869383 0)
(1.12487 -0.040441 0)
(1.22808 -0.0602592 0)
(0.0298757 -0.5933 0)
(0.0531513 -0.771909 0)
(0.0683196 -0.729473 0)
(0.0992118 -0.711953 0)
(0.131944 -0.71415 0)
(0.162885 -0.7202 0)
(0.191001 -0.728206 0)
(0.214777 -0.750071 0)
(0.226859 -0.799267 0)
(0.218717 -0.866995 0)
(0.189202 -0.925656 0)
(0.147888 -0.94644 0)
(0.140321 -0.91544 0)
(0.0565407 -0.940134 0)
(0.0023082 -0.898786 0)
(0.0158958 -0.757469 0)
(0.116455 -0.578268 0)
(0.260269 -0.408373 0)
(0.430197 -0.274135 0)
(0.59875 -0.188241 0)
(0.740742 -0.107071 0)
(0.852767 -0.068826 0)
(0.931558 -0.0888928 0)
(0.0296085 -0.636854 0)
(0.0535585 -0.793243 0)
(0.0689419 -0.753227 0)
(0.0981652 -0.741984 0)
(0.128015 -0.744476 0)
(0.156573 -0.748421 0)
(0.184168 -0.752602 0)
(0.208555 -0.765249 0)
(0.221364 -0.797462 0)
(0.214463 -0.845354 0)
(0.189025 -0.889647 0)
(0.155917 -0.910087 0)
(0.137285 -0.893705 0)
(0.120489 -0.897116 0)
(0.0727079 -0.892526 0)
(0.054762 -0.816619 0)
(0.0830874 -0.683852 0)
(0.17145 -0.510141 0)
(0.275245 -0.349879 0)
(0.403911 -0.251874 0)
(0.544831 -0.20941 0)
(0.694457 -0.211391 0)
(0.842389 -0.234752 0)
(0.0265908 -0.678713 0)
(0.0516266 -0.810866 0)
(0.0684785 -0.776712 0)
(0.096373 -0.770026 0)
(0.124446 -0.772748 0)
(0.151931 -0.776091 0)
(0.179781 -0.778865 0)
(0.206898 -0.785465 0)
(0.226732 -0.804227 0)
(0.232016 -0.835649 0)
(0.223001 -0.868205 0)
(0.207188 -0.888398 0)
(0.195387 -0.889247 0)
(0.191886 -0.881889 0)
(0.174703 -0.860783 0)
(0.155449 -0.806596 0)
(0.166122 -0.716106 0)
(0.215522 -0.599969 0)
(0.314658 -0.495554 0)
(0.446583 -0.437771 0)
(0.590112 -0.405688 0)
(0.732351 -0.386519 0)
(0.866276 -0.38152 0)
(0.0230437 -0.717957 0)
(0.0485276 -0.829731 0)
(0.0673498 -0.800882 0)
(0.0940724 -0.796987 0)
(0.120984 -0.800037 0)
(0.147644 -0.803653 0)
(0.175044 -0.806945 0)
(0.203397 -0.811508 0)
(0.228906 -0.822519 0)
(0.245811 -0.842344 0)
(0.252369 -0.865188 0)
(0.25204 -0.881824 0)
(0.249475 -0.886825 0)
(0.247728 -0.878269 0)
(0.249086 -0.853036 0)
(0.258718 -0.811838 0)
(0.281664 -0.750479 0)
(0.332579 -0.681173 0)
(0.413304 -0.613902 0)
(0.515724 -0.559215 0)
(0.629542 -0.522905 0)
(0.7473 -0.502492 0)
(0.865452 -0.496876 0)
(0.0199392 -0.75364 0)
(0.0453211 -0.849684 0)
(0.0657157 -0.825272 0)
(0.0914894 -0.823115 0)
(0.117423 -0.826362 0)
(0.14313 -0.830324 0)
(0.169283 -0.834583 0)
(0.196499 -0.83943 0)
(0.223258 -0.847248 0)
(0.245705 -0.859971 0)
(0.261172 -0.874987 0)
(0.270526 -0.886486 0)
(0.276127 -0.889883 0)
(0.281644 -0.88253 0)
(0.292258 -0.863043 0)
(0.309724 -0.82984 0)
(0.340883 -0.785201 0)
(0.389922 -0.734574 0)
(0.459461 -0.688108 0)
(0.547214 -0.653347 0)
(0.647663 -0.631423 0)
(0.7547 -0.618519 0)
(0.865515 -0.614528 0)
(0.0176022 -0.786176 0)
(0.0425122 -0.870567 0)
(0.0638036 -0.849512 0)
(0.088728 -0.848447 0)
(0.113753 -0.851742 0)
(0.138551 -0.855784 0)
(0.163376 -0.860508 0)
(0.188591 -0.865917 0)
(0.213811 -0.872615 0)
(0.236997 -0.881309 0)
(0.256048 -0.890851 0)
(0.27091 -0.897961 0)
(0.283407 -0.899459 0)
(0.296468 -0.893212 0)
(0.313318 -0.878213 0)
(0.338115 -0.854783 0)
(0.374532 -0.825167 0)
(0.42606 -0.794237 0)
(0.493088 -0.766768 0)
(0.573271 -0.745602 0)
(0.66382 -0.731567 0)
(0.761062 -0.723294 0)
(0.864279 -0.722415 0)
(0.015878 -0.816208 0)
(0.0401053 -0.891953 0)
(0.0617586 -0.873377 0)
(0.0859092 -0.873027 0)
(0.110109 -0.8763 0)
(0.134144 -0.880226 0)
(0.158031 -0.884899 0)
(0.181797 -0.890329 0)
(0.205353 -0.896452 0)
(0.227949 -0.903138 0)
(0.248632 -0.909745 0)
(0.267353 -0.914587 0)
(0.285439 -0.915709 0)
(0.305172 -0.911605 0)
(0.329212 -0.902263 0)
(0.360256 -0.888245 0)
(0.400827 -0.870991 0)
(0.452383 -0.853083 0)
(0.515195 -0.837476 0)
(0.588494 -0.826587 0)
(0.67128 -0.821169 0)
(0.761072 -0.820027 0)
(0.858257 -0.825006 0)
(0.0145969 -0.844203 0)
(0.0380397 -0.91345 0)
(0.0596648 -0.89674 0)
(0.0830854 -0.896886 0)
(0.106528 -0.900136 0)
(0.129898 -0.903964 0)
(0.153181 -0.908464 0)
(0.176286 -0.913636 0)
(0.199133 -0.919358 0)
(0.221571 -0.925283 0)
(0.24347 -0.93089 0)
(0.265 -0.935281 0)
(0.287129 -0.93738 0)
(0.311544 -0.936404 0)
(0.34005 -0.932249 0)
(0.374344 -0.925377 0)
(0.415974 -0.916986 0)
(0.466176 -0.90891 0)
(0.525574 -0.903464 0)
(0.593969 -0.902196 0)
(0.67101 -0.905111 0)
(0.754818 -0.911109 0)
(0.846721 -0.922635 0)
(0.0136254 -0.870531 0)
(0.0362358 -0.934756 0)
(0.0575451 -0.91951 0)
(0.0802477 -0.920035 0)
(0.102966 -0.923295 0)
(0.12569 -0.927133 0)
(0.148456 -0.931593 0)
(0.171219 -0.936645 0)
(0.193928 -0.942207 0)
(0.216601 -0.948015 0)
(0.239408 -0.953652 0)
(0.262698 -0.95862 0)
(0.287225 -0.962317 0)
(0.314144 -0.964355 0)
(0.344732 -0.964718 0)
(0.380225 -0.963854 0)
(0.421847 -0.962758 0)
(0.470595 -0.962885 0)
(0.527042 -0.965928 0)
(0.591205 -0.972868 0)
(0.66311 -0.983391 0)
(0.741388 -0.996586 0)
(0.828203 -1.01533 0)
(0.0128473 -0.895464 0)
(0.0346054 -0.955632 0)
(0.0553973 -0.941622 0)
(0.0773674 -0.942464 0)
(0.099357 -0.945771 0)
(0.121415 -0.949705 0)
(0.143606 -0.954284 0)
(0.165964 -0.959463 0)
(0.188515 -0.96516 0)
(0.211337 -0.971215 0)
(0.234653 -0.977377 0)
(0.258859 -0.983384 0)
(0.28457 -0.988928 0)
(0.312639 -0.993855 0)
(0.344013 -0.998234 0)
(0.379627 -1.00252 0)
(0.420481 -1.00755 0)
(0.467336 -1.01453 0)
(0.520692 -1.02476 0)
(0.580729 -1.03893 0)
(0.647674 -1.05653 0)
(0.720588 -1.07681 0)
(0.802231 -1.10302 0)
(0.0121806 -0.919175 0)
(0.0330762 -0.975915 0)
(0.0532098 -0.963014 0)
(0.0744144 -0.964145 0)
(0.0956454 -0.967536 0)
(0.116999 -0.971617 0)
(0.13854 -0.976412 0)
(0.16035 -0.981884 0)
(0.182516 -0.987956 0)
(0.205176 -0.994538 0)
(0.228562 -1.00151 0)
(0.253043 -1.00877 0)
(0.279109 -1.01621 0)
(0.307403 -1.02382 0)
(0.338646 -1.03179 0)
(0.373585 -1.04052 0)
(0.413004 -1.05074 0)
(0.457471 -1.06351 0)
(0.507467 -1.07987 0)
(0.563256 -1.10038 0)
(0.625115 -1.12444 0)
(0.692495 -1.15149 0)
(0.768473 -1.18517 0)
(0.0115768 -0.941763 0)
(0.0315969 -0.995489 0)
(0.0509672 -0.983629 0)
(0.0713615 -0.985035 0)
(0.0917872 -0.988543 0)
(0.112379 -0.992814 0)
(0.133201 -0.997881 0)
(0.154347 -1.00373 0)
(0.175931 -1.01032 0)
(0.198122 -1.0176 0)
(0.22116 -1.02553 0)
(0.245361 -1.03412 0)
(0.271123 -1.0434 0)
(0.298937 -1.05348 0)
(0.329354 -1.06458 0)
(0.362951 -1.07713 0)
(0.400324 -1.09175 0)
(0.441953 -1.1094 0)
(0.488255 -1.13094 0)
(0.539506 -1.15697 0)
(0.595978 -1.18682 0)
(0.657437 -1.22009 0)
(0.72689 -1.26083 0)
(0.0110054 -0.963288 0)
(0.0301284 -1.01426 0)
(0.0486547 -1.00341 0)
(0.0681868 -1.00508 0)
(0.0877495 -1.00873 0)
(0.107507 -1.01322 0)
(0.127522 -1.0186 0)
(0.14789 -1.02487 0)
(0.168723 -1.03202 0)
(0.190192 -1.04006 0)
(0.212529 -1.04899 0)
(0.236001 -1.0589 0)
(0.260938 -1.06989 0)
(0.287706 -1.08216 0)
(0.316715 -1.09598 0)
(0.348408 -1.11174 0)
(0.383239 -1.13006 0)
(0.42163 -1.15175 0)
(0.463885 -1.17768 0)
(0.510271 -1.20839 0)
(0.56101 -1.24324 0)
(0.616113 -1.28202 0)
(0.678233 -1.32898 0)
(0.0104485 -0.983767 0)
(0.0286423 -1.03217 0)
(0.046259 -1.0223 0)
(0.0648746 -1.02423 0)
(0.0835143 -1.02803 0)
(0.10236 -1.03275 0)
(0.12147 -1.03845 0)
(0.140932 -1.04515 0)
(0.160851 -1.05287 0)
(0.181383 -1.06165 0)
(0.202733 -1.07154 0)
(0.225125 -1.08267 0)
(0.248821 -1.0952 0)
(0.274095 -1.10936 0)
(0.301244 -1.12546 0)
(0.330595 -1.1439 0)
(0.362506 -1.16523 0)
(0.397301 -1.19021 0)
(0.435177 -1.21975 0)
(0.476397 -1.25429 0)
(0.521066 -1.29331 0)
(0.569407 -1.33673 0)
(0.623554 -1.38886 0)
(0.00989189 -1.0032 0)
(0.0271176 -1.04916 0)
(0.0437727 -1.04025 0)
(0.0614193 -1.04241 0)
(0.0790784 -1.04637 0)
(0.0969384 -1.05132 0)
(0.115051 -1.05733 0)
(0.133489 -1.06444 0)
(0.15235 -1.0727 0)
(0.171763 -1.08215 0)
(0.191895 -1.0929 0)
(0.212929 -1.1051 0)
(0.235064 -1.11893 0)
(0.2585 -1.13467 0)
(0.283446 -1.15264 0)
(0.310133 -1.17322 0)
(0.338833 -1.19694 0)
(0.369727 -1.22453 0)
(0.402973 -1.25687 0)
(0.438777 -1.29438 0)
(0.477075 -1.3367 0)
(0.518281 -1.38375 0)
(0.563849 -1.43983 0)
(0.00932078 -1.02156 0)
(0.0255394 -1.06516 0)
(0.0411974 -1.05721 0)
(0.057826 -1.05959 0)
(0.0744523 -1.06369 0)
(0.0912622 -1.06885 0)
(0.108298 -1.07514 0)
(0.125616 -1.08262 0)
(0.143298 -1.09133 0)
(0.161443 -1.10137 0)
(0.180179 -1.11285 0)
(0.199647 -1.12592 0)
(0.219987 -1.14082 0)
(0.241334 -1.15781 0)
(0.263826 -1.17721 0)
(0.287619 -1.19944 0)
(0.312879 -1.22494 0)
(0.339668 -1.25448 0)
(0.368139 -1.28881 0)
(0.398317 -1.32847 0)
(0.430069 -1.37316 0)
(0.4639 -1.42271 0)
(0.500505 -1.48129 0)
(0.00872762 -1.0388 0)
(0.0239061 -1.08016 0)
(0.038545 -1.07315 0)
(0.0541128 -1.0757 0)
(0.0696606 -1.07993 0)
(0.0853658 -1.08526 0)
(0.101259 -1.0918 0)
(0.117381 -1.09958 0)
(0.13379 -1.10867 0)
(0.150556 -1.11918 0)
(0.167769 -1.13121 0)
(0.185525 -1.14496 0)
(0.203909 -1.16064 0)
(0.223004 -1.17854 0)
(0.242877 -1.19898 0)
(0.263621 -1.22234 0)
(0.285287 -1.24907 0)
(0.307889 -1.27987 0)
(0.331485 -1.31542 0)
(0.355922 -1.35645 0)
(0.381137 -1.40252 0)
(0.407552 -1.45347 0)
(0.435242 -1.51309 0)
(0.00811588 -1.0549 0)
(0.022234 -1.09412 0)
(0.0358425 -1.08803 0)
(0.0503144 -1.09073 0)
(0.0647446 -1.09505 0)
(0.079302 -1.10052 0)
(0.0940001 -1.10724 0)
(0.108868 -1.11525 0)
(0.123938 -1.12463 0)
(0.139251 -1.13547 0)
(0.154858 -1.1479 0)
(0.170811 -1.1621 0)
(0.187147 -1.1783 0)
(0.203903 -1.19677 0)
(0.22107 -1.21782 0)
(0.238687 -1.24184 0)
(0.256715 -1.26924 0)
(0.275118 -1.30063 0)
(0.293785 -1.33673 0)
(0.312546 -1.37826 0)
(0.33132 -1.4248 0)
(0.350402 -1.47614 0)
(0.369501 -1.53555 0)
(0.00750381 -1.06985 0)
(0.0205607 -1.10707 0)
(0.0331338 -1.10183 0)
(0.0464854 -1.10463 0)
(0.059765 -1.10902 0)
(0.0731439 -1.11459 0)
(0.0866086 -1.12144 0)
(0.100181 -1.1296 0)
(0.113867 -1.13915 0)
(0.127683 -1.1502 0)
(0.141641 -1.16286 0)
(0.155752 -1.1773 0)
(0.170009 -1.19375 0)
(0.184401 -1.21245 0)
(0.198856 -1.23374 0)
(0.213353 -1.25793 0)
(0.227781 -1.28546 0)
(0.24202 -1.31683 0)
(0.255845 -1.3528 0)
(0.269079 -1.39399 0)
(0.28153 -1.44022 0)
(0.293433 -1.49098 0)
(0.304225 -1.54914 0)
(0.00692524 -1.08363 0)
(0.0189417 -1.11902 0)
(0.0304713 -1.11453 0)
(0.0426927 -1.11739 0)
(0.0547978 -1.12182 0)
(0.0669805 -1.12744 0)
(0.0791883 -1.13435 0)
(0.0914396 -1.14259 0)
(0.103719 -1.15222 0)
(0.116017 -1.16334 0)
(0.128317 -1.17607 0)
(0.140589 -1.19055 0)
(0.152785 -1.20698 0)
(0.164846 -1.22562 0)
(0.176659 -1.24675 0)
(0.188122 -1.27067 0)
(0.199053 -1.29781 0)
(0.209254 -1.32859 0)
(0.218456 -1.36374 0)
(0.22633 -1.40379 0)
(0.232646 -1.44889 0)
(0.237626 -1.49816 0)
(0.240319 -1.55403 0)
(0.00641781 -1.09628 0)
(0.0174316 -1.12993 0)
(0.0278972 -1.12607 0)
(0.0389951 -1.12895 0)
(0.0499172 -1.13338 0)
(0.0609022 -1.13901 0)
(0.0718487 -1.14592 0)
(0.0827746 -1.15416 0)
(0.0936444 -1.16378 0)
(0.10443 -1.17485 0)
(0.115088 -1.18749 0)
(0.125557 -1.20182 0)
(0.135753 -1.21802 0)
(0.14557 -1.23629 0)
(0.154865 -1.25692 0)
(0.163451 -1.28017 0)
(0.171076 -1.30643 0)
(0.177472 -1.33606 0)
(0.182342 -1.36969 0)
(0.185136 -1.40794 0)
(0.18561 -1.45097 0)
(0.183995 -1.49783 0)
(0.178912 -1.55034 0)
(0.00600536 -1.10791 0)
(0.0160579 -1.13984 0)
(0.0254251 -1.13643 0)
(0.0354208 -1.13933 0)
(0.0451708 -1.14371 0)
(0.0549759 -1.14931 0)
(0.0646815 -1.15616 0)
(0.0743045 -1.16432 0)
(0.0837918 -1.17382 0)
(0.0930999 -1.18473 0)
(0.102163 -1.19714 0)
(0.110895 -1.21115 0)
(0.119182 -1.2269 0)
(0.126886 -1.24458 0)
(0.133823 -1.26439 0)
(0.139748 -1.28661 0)
(0.144348 -1.31154 0)
(0.147278 -1.3395 0)
(0.148156 -1.37101 0)
(0.146309 -1.40674 0)
(0.141409 -1.44679 0)
(0.133585 -1.4903 0)
(0.121214 -1.53838 0)
(0.00567997 -1.11877 0)
(0.0148015 -1.14888 0)
(0.0230321 -1.14578 0)
(0.0319554 -1.14868 0)
(0.040562 -1.153 0)
(0.049223 -1.15851 0)
(0.0577356 -1.16526 0)
(0.0661121 -1.17326 0)
(0.0742834 -1.18256 0)
(0.08219 -1.19321 0)
(0.0897475 -1.20526 0)
(0.0968484 -1.2188 0)
(0.103359 -1.23393 0)
(0.109114 -1.25079 0)
(0.113901 -1.26955 0)
(0.117433 -1.29041 0)
(0.119345 -1.31361 0)
(0.119215 -1.33944 0)
(0.11656 -1.36827 0)
(0.110643 -1.40074 0)
(0.100957 -1.43702 0)
(0.0874647 -1.47623 0)
(0.0684375 -1.51876 0)
(0.00539876 -1.12903 0)
(0.0135994 -1.15707 0)
(0.0206715 -1.15419 0)
(0.0285509 -1.1571 0)
(0.036056 -1.16135 0)
(0.0436219 -1.16677 0)
(0.051012 -1.17337 0)
(0.0582283 -1.18117 0)
(0.0651902 -1.19021 0)
(0.0718202 -1.2005 0)
(0.0780159 -1.21211 0)
(0.0836521 -1.22507 0)
(0.088577 -1.23945 0)
(0.0926069 -1.25535 0)
(0.0955053 -1.27286 0)
(0.0969654 -1.29214 0)
(0.0965822 -1.31334 0)
(0.0938751 -1.33666 0)
(0.0882527 -1.36236 0)
(0.0789045 -1.39095 0)
(0.0651894 -1.42266 0)
(0.0468228 -1.45668 0)
(0.0220264 -1.4926 0)
(0.00511011 -1.13835 0)
(0.0123784 -1.16399 0)
(0.0182947 -1.16131 0)
(0.0251585 -1.16426 0)
(0.0316146 -1.16844 0)
(0.0381419 -1.17375 0)
(0.0444903 -1.18018 0)
(0.0506478 -1.18775 0)
(0.0565304 -1.19648 0)
(0.0620444 -1.20637 0)
(0.0670725 -1.21746 0)
(0.071474 -1.22976 0)
(0.0750792 -1.2433 0)
(0.077688 -1.25812 0)
(0.0790454 -1.27427 0)
(0.0788326 -1.29182 0)
(0.0766152 -1.31083 0)
(0.0718785 -1.33142 0)
(0.0639449 -1.3537 0)
(0.0520146 -1.37798 0)
(0.0352203 -1.40456 0)
(0.0129893 -1.43271 0)
(-0.0164194 -1.46122 0)
(0.00478794 -1.14623 0)
(0.011093 -1.16914 0)
(0.0158674 -1.16671 0)
(0.0217514 -1.16969 0)
(0.0272156 -1.1738 0)
(0.0327581 -1.17899 0)
(0.0381407 -1.18524 0)
(0.0433389 -1.19255 0)
(0.0482737 -1.20092 0)
(0.0528433 -1.21036 0)
(0.0569229 -1.22085 0)
(0.060363 -1.23239 0)
(0.0629788 -1.24498 0)
(0.0645591 -1.25859 0)
(0.0648306 -1.27323 0)
(0.0634599 -1.28889 0)
(0.0600003 -1.30555 0)
(0.0539124 -1.32319 0)
(0.0445169 -1.3418 0)
(0.0309435 -1.36148 0)
(0.0122195 -1.38254 0)
(-0.0125551 -1.40431 0)
(-0.0450804 -1.42507 0)
(0.00442929 -1.15328 0)
(0.00972242 -1.17312 0)
(0.0133508 -1.17106 0)
(0.0182838 -1.17408 0)
(0.0228014 -1.17814 0)
(0.0273953 -1.18321 0)
(0.0318655 -1.18928 0)
(0.0361799 -1.19634 0)
(0.0402709 -1.20437 0)
(0.0440432 -1.21334 0)
(0.0473766 -1.22322 0)
(0.050123 -1.23397 0)
(0.0520981 -1.24554 0)
(0.0530928 -1.25787 0)
(0.0528243 -1.2709 0)
(0.0509501 -1.28454 0)
(0.0470385 -1.29868 0)
(0.0405218 -1.31316 0)
(0.0307194 -1.32786 0)
(0.0167694 -1.34264 0)
(-0.00238198 -1.35762 0)
(-0.0279565 -1.37234 0)
(-0.0617157 -1.38488 0)
(0.00399265 -1.16148 0)
(0.00820781 -1.17784 0)
(0.0106778 -1.17639 0)
(0.014636 -1.17949 0)
(0.0182109 -1.18355 0)
(0.0218484 -1.18859 0)
(0.0254047 -1.19457 0)
(0.02885 -1.20149 0)
(0.0321332 -1.20929 0)
(0.0351771 -1.21794 0)
(0.0378769 -1.22737 0)
(0.0401003 -1.23752 0)
(0.0416899 -1.2483 0)
(0.0424648 -1.2596 0)
(0.0421612 -1.27128 0)
(0.0404654 -1.28317 0)
(0.0369791 -1.29505 0)
(0.0311584 -1.30666 0)
(0.0223762 -1.31767 0)
(0.00978331 -1.32766 0)
(-0.00768682 -1.33646 0)
(-0.0314432 -1.34354 0)
(-0.0635082 -1.34715 0)
(0.00334879 -1.17073 0)
(0.006412 -1.18315 0)
(0.00777918 -1.18269 0)
(0.0106557 -1.18592 0)
(0.0132256 -1.19007 0)
(0.0158381 -1.19517 0)
(0.018411 -1.20119 0)
(0.0209219 -1.20811 0)
(0.0233346 -1.21588 0)
(0.02559 -1.22444 0)
(0.0276065 -1.23373 0)
(0.029286 -1.24365 0)
(0.0305234 -1.25408 0)
(0.031185 -1.26487 0)
(0.0310705 -1.27582 0)
(0.0299424 -1.28668 0)
(0.0274888 -1.29714 0)
(0.0232785 -1.30682 0)
(0.016846 -1.3152 0)
(0.00742534 -1.32168 0)
(-0.00591854 -1.32559 0)
(-0.0244501 -1.32609 0)
(-0.050219 -1.3215 0)
(0.00235666 -1.17589 0)
(0.00419743 -1.18425 0)
(0.00464593 -1.18508 0)
(0.00631699 -1.18841 0)
(0.00781157 -1.19263 0)
(0.00932982 -1.19775 0)
(0.0108359 -1.20377 0)
(0.0123132 -1.21067 0)
(0.0137355 -1.21839 0)
(0.0150627 -1.22688 0)
(0.0162465 -1.23605 0)
(0.0172353 -1.24578 0)
(0.0179741 -1.25593 0)
(0.0183777 -1.26632 0)
(0.0183368 -1.27673 0)
(0.0177169 -1.28686 0)
(0.0163343 -1.29633 0)
(0.0139486 -1.30468 0)
(0.0102657 -1.31132 0)
(0.00481749 -1.31553 0)
(-0.00297914 -1.31625 0)