/*--------------------------------*- C++ -*----------------------------------*\
| =========                 |                                                 |
| \\      /  F ield         | OpenFOAM: The Open Source CFD Toolbox           |
|  \\    /   O peration     | Version:  5.x                                   |
|   \\  /    A nd           | Web:      www.OpenFOAM.org                      |
|    \\/     M anipulation  |                                                 |
\*---------------------------------------------------------------------------*/
FoamFile
{
    version     2.0;
    format      ascii;
    class       volScalarField;
    location    "0.6";
    object      alpha.water;
}
// * * * * * * * * * * * * * * * * * * * * * * * * * * * * * * * * * * * * * //

dimensions      [0 0 0 0 0 0 0];

internalField   nonuniform List<scalar> 
2268
(
1
1
1
1
1
1
1
1
1
1
1
1
1
1
1
1
1
1
0.964753
0.826933
0.988472
1
0.999701
1
1
1
1
1
1
1
1
1
1
1
1
1
1
1
1
1
1
0.995771
0.896998
0.920417
0.999996
0.997947
1
1
1
1
1
1
1
1
1
1
1
1
1
1
1
1
1
1
1
0.99731
0.90154
0.985763
0.999364
1
1
1
1
1
1
1
1
1
1
1
1
1
1
1
1
1
1
1
1
0.912873
0.973736
1
1
1
1
1
1
1
1
1
1
1
1
1
1
1
1
1
1
1
1
1
0.992409
0.998927
0.999994
1
1
1
1
1
1
1
1
1
1
1
1
1
1
1
1
1
1
1
1
1
0.999984
0.999999
1
1
1
0.999998
0.999994
0.999994
0.999998
1
1
1
1
1
1
1
1
1
1
1
1
1
1
1
1
1
0.999186
0.98489
0.970264
0.96722
0.979472
0.999419
0.99998
0.999996
1
1
1
1
1
1
1
1
1
1
1
1
1
1
0.180982
0.503495
0.9674
0.986811
1
0.498718
0.754465
0.946539
0.81363
0.801691
0.893117
0.928486
0.95438
0.975652
0.991612
0.999243
1
0.933381
0.872164
0.347606
0.85375
0.999999
0.999999
1
0.601108
0.742277
0.613677
0.153445
0.14517
0.251009
0.308194
0.370963
0.452031
0.578705
0.748432
0.91304
1
1
0.585249
0.999996
0.999999
0.999999
0.999999
0.786349
0.633004
0.0960322
0.000123992
8.58718e-05
0.00010676
0.000168007
0.000336249
0.000822001
0.00250638
0.0544692
0.359344
0.819151
1
0.807018
0.999991
0.99999
0.999999
0.999999
0.798659
0.383151
0.00069982
8.51622e-05
8.13721e-05
8.59171e-05
0.000106784
0.000168011
0.000331986
0.000808385
0.00247868
0.00917638
0.463101
1
0.998366
0.999208
0.999996
0.999999
0.999998
0.742606
0.166456
0.000213422
8.24128e-05
8.24423e-05
8.14999e-05
9.59442e-05
0.000272819
0.000300101
0.000481975
0.000912252
0.0035568
0.259562
1
1
0.999981
0.999997
0.999998
0.999995
0.802264
0.319306
0.00224539
9.17856e-05
8.15097e-05
0.000124062
0.000844604
0.00103121
0.000883347
0.0006034
0.00037097
0.000994701
0.177168
1
1
0.999999
0.999998
0.999998
0.999983
0.924053
0.666987
0.0107522
0.000120362
9.17885e-05
0.000387662
0.00104039
0.00104565
0.00103121
0.000655706
0.000237833
0.000224431
0.130647
1
1
0.999999
0.999998
0.999998
0.965774
0.878161
0.632619
0.0108153
0.000128029
0.000120363
0.000658655
0.00104447
0.00103273
0.000990207
0.000888348
0.000211638
0.000208054
0.112895
0.971155
0.695332
0.561266
0.451725
0.434586
0.458258
0.538348
0.670616
0.788902
0.875101
0.943044
0.990588
1
1
1
1
1
1
1
1
1
1
1
1
6.13272e-26
1.09741e-10
5.95837e-06
0.00540997
0.0521353
0.0970616
0.117708
0.135163
0.183358
0.270468
0.395511
0.539186
0.683749
0.856221
0.996344
1
1
1
1
1
1
1
1
2.21934e-10
7.70191e-08
2.00686e-11
1.03407e-11
1.14612e-11
5.02695e-11
3.96172e-10
1.0809e-09
1.72257e-09
2.8598e-09
2.24404e-08
0.00359056
0.0573709
0.157854
0.318983
0.511718
0.650569
0.81769
0.954923
0.983394
0.989477
0.995676
0.999802
3.85241e-10
9.44035e-10
1.03407e-11
1.03407e-11
1.03347e-11
1.14612e-11
1.87607e-11
1.15377e-10
1.65709e-09
1.72257e-09
2.43924e-09
1.48995e-08
2.88373e-07
1.99105e-06
3.62814e-06
0.0103672
0.042558
0.0885739
0.197807
0.310163
0.388341
0.47104
0.577974
2.16343e-10
8.68235e-12
3.43691e-10
3.92325e-10
2.0528e-11
1.49404e-11
1.56053e-11
9.54786e-11
2.19879e-09
4.20637e-09
3.15713e-09
3.37737e-09
1.62489e-06
2.73843e-06
3.4258e-06
3.15276e-06
3.07612e-06
2.98528e-06
3.07612e-06
3.19072e-06
3.70185e-06
8.54612e-06
2.17682e-05
5.342e-12
1.9964e-13
1.52295e-11
3.94472e-11
3.14964e-11
4.01139e-11
3.8616e-11
3.88464e-11
3.08367e-08
1.80805e-07
1.59788e-07
4.21152e-08
5.27569e-08
2.13208e-05
2.1413e-05
1.25452e-05
3.15635e-06
2.93152e-06
4.1139e-06
2.2469e-05
3.0521e-05
2.94272e-05
3.06301e-05
1.31415e-14
6.9748e-15
1.24876e-13
5.04804e-12
4.63686e-11
1.10239e-10
1.30691e-10
3.92945e-11
2.8634e-08
2.21475e-07
2.21475e-07
2.21475e-07
1.27791e-07
2.80483e-08
2.6887e-08
2.01936e-09
2.69929e-06
7.99086e-07
8.68637e-07
5.45247e-05
0.000178836
0.00022575
0.00020974
2.9802e-16
1.80888e-16
3.14386e-14
2.78536e-12
4.13252e-11
1.39382e-10
1.91255e-10
1.15061e-10
2.329e-09
5.7833e-08
1.48224e-07
2.6398e-08
4.13556e-07
1.13586e-06
2.27877e-07
2.01936e-09
2.01936e-09
2.20225e-09
1.18502e-06
1.71852e-05
6.28668e-05
0.000313373
0.000358598
5.8771e-18
1.37243e-18
4.1503e-15
9.34124e-13
2.32426e-11
1.15703e-10
1.91397e-10
1.88465e-10
1.6184e-10
7.11326e-11
7.10134e-11
1.05041e-10
6.62645e-07
1.18664e-06
4.73889e-07
2.01936e-09
2.26406e-08
3.85694e-07
4.25585e-06
6.36732e-08
6.32173e-08
0.000157453
0.000358622
1.15134e-19
2.50003e-20
4.66651e-16
2.21821e-13
8.101e-12
5.44625e-11
1.18405e-10
1.25743e-10
8.12614e-11
7.10134e-11
7.10134e-11
7.12224e-11
4.6739e-10
6.88545e-07
2.99965e-08
2.07111e-09
7.27033e-08
3.03145e-07
2.50657e-07
5.15364e-08
1.44617e-06
0.000223209
0.000358566
5.07902e-22
5.87466e-22
6.95794e-17
5.22365e-14
2.2353e-12
1.60324e-11
3.65793e-11
3.86604e-11
3.59477e-11
8.10707e-11
7.37313e-11
5.96097e-10
2.78089e-12
2.67032e-12
2.53224e-12
2.99737e-09
2.04142e-08
2.44415e-12
9.63242e-12
6.88597e-10
2.26185e-06
0.000203679
0.000357984
-1.48751e-20
2.97009e-23
1.01744e-17
1.1068e-14
5.25945e-13
3.7235e-12
8.11305e-12
8.21857e-12
1.5552e-11
8.25961e-11
6.52752e-11
3.68933e-11
4.61148e-12
4.06111e-12
2.51461e-12
1.21465e-13
1.18878e-13
1.21847e-13
2.60805e-13
6.19497e-12
2.09133e-10
2.08467e-05
0.000260411
-2.0765e-20
0
2.02862e-18
2.03177e-15
1.06055e-13
7.2828e-13
1.54354e-12
1.69375e-12
6.5992e-12
4.01899e-11
2.24547e-11
1.64213e-11
6.5723e-12
6.15079e-12
3.24153e-12
4.39618e-13
1.18787e-13
1.19738e-13
1.22322e-13
2.60805e-13
6.19089e-12
2.08841e-10
5.79672e-09
-1.64235e-20
3.3145e-23
9.14275e-19
3.30415e-16
1.8276e-14
1.20559e-13
2.52096e-13
3.25919e-13
1.05725e-12
3.85021e-12
4.78807e-12
5.57943e-12
5.82524e-12
2.96907e-12
5.96589e-13
1.38645e-13
1.18698e-13
1.52647e-13
2.73837e-13
5.29119e-13
1.05137e-12
1.60913e-11
1.36302e-09
-1.12574e-20
0
3.29606e-19
4.7002e-17
2.53931e-15
1.6243e-14
3.60146e-14
5.93754e-14
1.49173e-13
5.11967e-13
1.43115e-12
2.06666e-12
1.928e-12
3.57845e-13
7.61655e-14
2.56206e-14
2.42661e-14
1.16125e-13
5.53466e-13
4.25681e-12
4.11169e-11
1.98182e-10
6.64316e-10
-7.75312e-21
-2.67554e-23
8.41265e-20
5.43694e-18
2.73149e-16
1.76679e-15
4.59102e-15
1.10954e-14
3.88242e-14
1.43594e-13
2.78962e-13
2.93331e-13
1.55878e-13
2.76517e-14
9.76055e-15
3.08525e-15
1.9396e-15
2.34421e-14
4.0141e-13
3.17139e-12
1.38376e-11
4.71374e-11
1.35609e-10
-5.47263e-21
-3.04522e-21
1.4224e-20
4.71849e-19
2.15269e-17
1.57271e-16
5.93841e-16
2.37184e-15
9.34491e-15
2.46818e-14
3.2512e-14
2.48468e-14
1.14919e-14
4.06759e-15
1.28615e-15
4.22207e-16
2.67217e-16
1.91625e-15
7.07325e-14
1.81986e-12
2.02733e-11
7.99947e-11
1.58697e-10
-3.73176e-21
-2.48728e-21
5.61298e-22
3.03656e-20
1.1938e-18
1.22148e-17
8.99908e-17
5.4014e-16
2.0432e-15
4.13616e-15
4.87541e-15
4.00539e-15
1.96099e-15
6.14847e-16
1.47064e-16
5.19656e-17
4.33913e-17
6.92471e-16
2.00558e-14
5.35393e-13
1.08657e-11
8.25811e-11
2.48305e-10
-2.32277e-21
-1.34547e-21
-3.76681e-22
1.33369e-21
4.88163e-20
1.00722e-18
1.45826e-17
1.10378e-16
4.40366e-16
8.92748e-16
1.06499e-15
9.04374e-16
4.44365e-16
1.23401e-16
2.23868e-17
7.17787e-18
8.62095e-18
2.92122e-16
8.52503e-15
1.65338e-13
3.62018e-12
4.79936e-11
2.1419e-10
-1.28023e-21
-5.85333e-22
-5.88606e-22
1.18803e-23
1.59886e-21
9.59546e-20
2.03663e-18
1.85641e-17
8.46327e-17
1.86105e-16
2.29107e-16
1.998e-16
9.99353e-17
2.79668e-17
4.60296e-18
1.232e-18
2.16003e-18
1.24379e-16
4.52795e-15
7.60241e-14
1.0047e-12
1.43454e-11
1.05007e-10
-6.16432e-22
-1.99722e-22
-3.57298e-22
-4.92926e-23
5.4661e-23
7.86177e-21
2.08357e-19
2.45911e-18
1.29594e-17
3.04063e-17
3.83089e-17
3.44678e-17
1.79656e-17
5.30085e-18
8.519e-19
1.8696e-19
5.37843e-19
4.0113e-17
1.73613e-15
3.17805e-14
3.65098e-13
4.86375e-12
4.90927e-11
-2.57964e-22
-5.07648e-23
-1.33738e-22
-3.65385e-23
1.14081e-24
3.82691e-22
1.49108e-20
2.45669e-19
1.45427e-18
3.5394e-18
4.51256e-18
4.18634e-18
2.31343e-18
7.367e-19
1.24007e-19
2.64339e-20
1.20152e-19
9.21103e-18
4.30149e-16
9.80581e-15
1.53116e-13
3.14848e-12
4.68994e-11
-9.38129e-23
-9.17e-24
-3.33872e-23
-1.20443e-23
3.36489e-27
8.43037e-24
7.89095e-22
1.75095e-20
1.11639e-19
2.77077e-19
3.55657e-19
3.40577e-19
2.03714e-19
7.3032e-20
1.46633e-20
4.22695e-21
2.53858e-20
1.92618e-18
9.99685e-17
2.88424e-15
6.25956e-14
1.8807e-12
3.79538e-11
-2.97569e-23
-1.18595e-24
-6.02755e-24
-2.59434e-24
-9.63812e-26
1.74273e-25
3.10226e-23
8.13311e-22
5.46113e-21
1.37412e-20
1.7756e-20
1.75935e-20
1.15975e-20
4.81492e-21
1.27695e-21
5.89275e-22
5.62053e-21
4.52196e-19
2.91576e-17
1.01985e-15
2.28636e-14
6.92359e-13
1.85061e-11
-8.28415e-24
-1.11476e-25
-8.33776e-25
-4.15731e-25
-3.22514e-26
3.24283e-27
6.63111e-25
2.0634e-23
1.52596e-22
4.02325e-22
5.39192e-22
5.52735e-22
4.04767e-22
1.90025e-22
6.95665e-23
5.17942e-23
1.25953e-21
1.07646e-19
8.94369e-18
3.95461e-16
7.93576e-15
1.43253e-13
3.89654e-12
-2.03994e-24
-8.27945e-27
-9.31614e-26
-5.32966e-26
-5.7118e-27
4.91448e-29
7.96453e-27
2.61839e-25
2.06591e-24
5.72392e-24
8.15283e-24
8.70509e-24
6.99471e-24
3.68072e-24
2.05985e-24
3.79991e-24
2.51565e-22
2.21921e-20
2.20133e-18
1.32792e-16
2.80066e-15
2.81379e-14
3.57919e-13
-4.48042e-25
-5.20545e-28
-8.77518e-27
-5.73555e-27
-7.36892e-28
7.3872e-31
9.13962e-29
2.6627e-27
2.02474e-26
5.70669e-26
8.80371e-26
1.00508e-25
8.74293e-26
5.69808e-26
4.80398e-26
4.22448e-25
4.11598e-23
3.72398e-21
3.9575e-19
3.19052e-17
8.75894e-16
8.00182e-15
4.34716e-14
-8.84861e-26
-2.90405e-29
-7.19712e-28
-5.35916e-28
-7.72941e-29
1.15608e-32
1.23647e-30
3.29335e-29
2.4128e-28
6.89184e-28
1.14765e-27
1.4283e-27
1.34649e-27
1.12595e-27
1.44583e-27
5.80484e-26
5.61198e-24
5.24321e-22
5.72788e-20
5.62378e-18
2.13621e-16
2.43361e-15
1.204e-14
-1.58283e-26
-1.92817e-30
-5.26455e-29
-4.455e-29
-6.96158e-30
1.8221e-34
1.79516e-32
4.64299e-31
3.39323e-30
9.79349e-30
1.6671e-29
2.1505e-29
2.14251e-29
1.97787e-29
7.99538e-29
7.37896e-27
6.78067e-25
6.61546e-23
7.51419e-21
8.50197e-19
4.26463e-17
6.48263e-16
3.87378e-15
-2.57803e-27
-1.66622e-30
-3.49661e-30
-3.35448e-30
-5.55968e-31
2.86198e-36
2.65785e-34
6.80814e-33
5.03299e-32
1.47097e-31
2.50093e-31
3.21284e-31
3.28864e-31
3.53038e-31
7.35566e-30
7.92716e-28
7.27016e-26
7.46924e-24
8.90797e-22
1.15051e-19
7.41966e-18
1.45722e-16
1.10082e-15
-3.83721e-28
-6.05655e-31
-2.13854e-31
-2.31868e-31
-4.02044e-32
4.49088e-38
3.98039e-36
1.01491e-34
7.61015e-34
2.2634e-33
3.88229e-33
5.01659e-33
5.31615e-33
1.11445e-32
7.56828e-31
7.02737e-29
6.51503e-27
6.99794e-25
8.74247e-23
1.28177e-20
1.09202e-18
2.73382e-17
2.50005e-16
-5.22927e-29
-1.37984e-31
-1.21843e-32
-1.48649e-32
-2.67115e-33
7.06526e-40
6.03187e-38
1.53474e-36
1.16678e-35
3.53327e-35
6.15182e-35
8.13272e-35
9.24034e-35
6.83714e-34
6.53162e-32
5.15942e-30
4.67624e-28
5.071e-26
6.5437e-24
1.06613e-21
1.26084e-19
4.16737e-18
4.25597e-17
-6.53061e-30
-2.42016e-32
-6.5317e-34
-8.91288e-34
-1.64849e-34
1.11828e-41
9.26543e-40
2.35468e-38
1.81112e-37
5.56969e-37
9.82361e-37
1.33447e-36
1.85512e-36
5.04669e-35
4.46362e-33
3.31731e-31
2.80575e-29
2.8763e-27
3.68625e-25
6.41817e-23
1.0773e-20
5.03088e-19
5.50428e-18
-7.47467e-31
-3.54327e-33
-3.36955e-35
-5.03395e-35
-9.53486e-36
1.78509e-43
1.44509e-41
3.66623e-40
2.84365e-39
8.84738e-39
1.57654e-38
2.20165e-38
4.89297e-38
3.2132e-36
2.62566e-34
2.00797e-32
1.58698e-30
1.45324e-28
1.73336e-26
3.06351e-24
7.02931e-22
4.8857e-20
5.93665e-19
-7.8363e-32
-4.48816e-34
-1.78255e-36
-2.69538e-36
-5.20911e-37
2.88029e-45
2.28808e-43
5.78603e-42
4.51076e-41
1.41495e-40
2.54273e-40
3.6672e-40
1.68142e-39
1.63845e-37
1.40825e-35
1.15516e-33
9.15577e-32
7.72661e-30
8.32825e-28
1.4329e-25
4.15512e-23
4.14002e-21
5.81359e-20
-7.51822e-33
-4.99117e-35
-1.07396e-37
-1.37651e-37
-2.70718e-38
4.69875e-47
3.67002e-45
9.23453e-44
7.21842e-43
2.27669e-42
4.1218e-42
6.20595e-42
6.05088e-41
6.84637e-39
6.61552e-37
5.94962e-35
5.13991e-33
4.48203e-31
4.70089e-29
8.07812e-27
2.72665e-24
3.35191e-22
5.24161e-21
-6.59707e-34
-4.92886e-36
-7.79826e-39
-6.7426e-39
-1.34697e-39
7.73985e-49
5.94251e-47
1.48645e-45
1.16326e-44
3.68453e-44
6.71512e-44
1.06617e-43
1.88e-42
2.3138e-40
2.5149e-38
2.54648e-36
2.53043e-34
2.54655e-32
2.97312e-30
5.52429e-28
1.97628e-25
2.53638e-23
4.11265e-22
-5.29538e-35
-4.35166e-37
-6.2972e-40
-3.18286e-40
-6.45159e-41
1.2833e-50
9.68046e-49
2.40509e-47
1.88506e-46
5.99436e-46
1.09973e-45
1.84092e-45
4.69909e-44
6.13938e-42
7.41244e-40
8.63133e-38
1.00703e-35
1.23814e-33
1.78274e-31
3.75137e-29
1.28509e-26
1.56095e-24
2.53953e-23
-3.89438e-36
-3.42135e-38
-4.9393e-41
-1.45358e-41
-2.987e-42
2.136e-52
1.57923e-50
3.90213e-49
3.06586e-48
9.79827e-48
1.80996e-47
3.16373e-47
9.79945e-46
1.3286e-43
1.73324e-41
2.26933e-39
3.07635e-37
4.68032e-35
8.52286e-33
1.99139e-30
6.14288e-28
6.85997e-26
1.10201e-24
-2.63636e-37
-2.40121e-39
-3.51167e-42
-6.43876e-43
-1.34079e-43
3.55025e-54
2.5701e-52
6.32526e-51
4.99512e-50
1.60726e-49
2.99135e-49
5.36669e-49
1.81844e-47
2.52857e-45
3.41671e-43
4.73139e-41
7.18548e-39
1.33002e-36
2.90935e-34
7.14215e-32
2.0039e-29
2.06884e-27
3.09399e-26
-1.65595e-38
-1.52284e-40
-2.22998e-43
-2.76985e-44
-5.84426e-45
5.87665e-56
4.16612e-54
1.02305e-52
7.96967e-52
2.46208e-51
4.27572e-51
7.50305e-51
3.06976e-49
4.34529e-47
5.89658e-45
8.20631e-43
1.3328e-40
2.88891e-38
7.17784e-36
1.77576e-33
4.57618e-31
4.33652e-29
5.76835e-28
-9.74299e-40
-8.64956e-42
-1.24028e-44
-1.15736e-45
-2.47463e-46
4.80353e-58
3.38282e-56
9.42047e-55
2.26391e-53
1.85817e-52
6.54497e-52
1.36675e-51
2.47526e-51
3.264e-49
4.43836e-47
6.12886e-45
1.03226e-42
2.58334e-40
7.72013e-38
1.95089e-35
4.49942e-33
3.90595e-31
4.84894e-30
1
1
1
1
1
1
1
1
0.999979
0.999971
0.999957
0.999929
0.655108
0.686155
0.671865
0.614016
0.0501486
0.0585998
0.0293085
0.0160317
3.06301e-05
3.98771e-05
5.26281e-05
3.23541e-05
7.96157e-05
5.04003e-05
3.71881e-05
2.12542e-05
0.000358599
0.000313761
3.36333e-05
1.95012e-05
0.000357536
0.000113339
1.95012e-05
1.91605e-05
0.000207475
3.10179e-05
3.55024e-05
2.25e-05
0.000160981
2.54091e-05
2.35372e-05
1.97602e-05
0.000322434
0.000323028
0.000321784
0.000313395
8.8521e-07
3.34232e-05
0.000109678
0.000161058
1.01943e-07
1.6851e-07
2.66126e-07
6.83452e-07
7.49934e-10
6.33616e-10
1.86996e-09
5.30659e-09
1.94106e-10
2.53431e-10
3.49959e-10
6.3387e-10
2.19639e-10
2.52924e-10
2.8404e-10
3.77155e-10
3.38437e-10
3.47055e-10
3.5521e-10
3.662e-10
3.75861e-10
4.51126e-10
4.94556e-10
5.09482e-10
2.61372e-10
3.75824e-10
4.95169e-10
6.54135e-10
1.68806e-10
3.00062e-10
4.41771e-10
6.01918e-10
1.92702e-10
3.58478e-10
4.97059e-10
6.20354e-10
1.82739e-10
3.9017e-10
5.67453e-10
6.7136e-10
1.17374e-10
3.18374e-10
5.14421e-10
6.35022e-10
3.38268e-11
1.45883e-10
3.19068e-10
4.70107e-10
3.33118e-12
2.74745e-11
1.07292e-10
2.35672e-10
2.01829e-13
2.73423e-12
2.44369e-11
9.42402e-11
3.53587e-14
4.18522e-13
6.67072e-12
3.93768e-11
1.11271e-14
8.4777e-14
1.60859e-12
1.36874e-11
3.61998e-15
1.58471e-14
1.8647e-13
2.38658e-12
9.8397e-16
3.12539e-15
1.09493e-14
9.76532e-14
1.83809e-16
5.96233e-16
1.12203e-15
9.38219e-16
2.18996e-17
8.5464e-17
1.81279e-16
4.96988e-17
1.94443e-18
8.53224e-18
2.45841e-17
8.52103e-18
1.62914e-19
7.25699e-19
2.70926e-18
9.18594e-19
1.39293e-20
7.22587e-20
3.23149e-19
6.66807e-20
1.14735e-21
9.001e-21
4.23437e-20
5.22357e-21
8.11766e-23
1.03036e-21
4.49988e-21
3.45356e-22
4.03424e-24
6.99133e-23
2.7439e-22
1.28174e-23
1.15045e-25
2.07918e-24
7.75638e-24
2.27037e-25
1.97293e-27
3.06093e-26
1.15195e-25
4.79721e-27
2.28122e-29
2.1142e-28
1.1601e-27
4.45143e-27
0.999999
0.999998
0.999998
0.999994
0.563615
0.486133
0.178678
0.00640129
0.000115986
0.000180386
0.000963753
0.00101664
0.000348005
0.000304742
0.000379052
0.000204868
0.000164269
0.13165
0.959439
0.999995
0.999988
0.999994
0.999942
0.234152
0.341647
0.00158702
0.00143994
0.000109989
0.000158841
0.000917481
3.20447e-05
3.89669e-05
5.224e-05
6.87616e-05
9.62829e-05
0.000104057
0.319723
0.980327
0.997873
0.999783
0.999941
0.748016
0.120096
0.238149
0.000501856
0.000101768
9.22465e-05
0.000424708
0.0004707
3.27428e-05
4.34445e-05
6.02289e-05
7.22522e-05
9.61019e-05
0.00011008
0.474033
0.996071
0.551834
0.798481
0.992808
0.276462
0.0305896
0.0605054
0.000224397
7.03261e-05
8.75814e-05
0.000434155
0.000162648
3.16167e-05
3.45649e-05
0.000165897
0.000105837
0.00011008
0.000130682
0.604456
0.999986
0.0485801
0.381935
0.826981
0.150358
0.000843425
0.000413785
9.2023e-05
4.68314e-05
3.76246e-05
0.000381272
8.94801e-05
3.14517e-05
3.44128e-05
6.5731e-05
0.000142163
0.000130682
0.000173477
0.721602
1
0.000223828
0.0597782
0.434585
0.363589
0.000620091
0.000139155
5.14438e-05
3.76644e-05
3.47605e-05
3.92404e-05
2.99242e-05
2.96393e-05
3.14517e-05
6.05575e-05
0.000171675
0.000173436
0.0593325
0.768399
1
2.74564e-05
0.000534892
0.245234
0.526776
0.241315
0.000132392
4.90881e-05
3.47125e-05
3.07266e-05
2.76082e-05
2.76216e-05
2.75042e-05
3.60714e-05
0.000223861
0.000459316
0.000310229
0.0949541
0.770406
0.93465
1.91922e-05
2.74642e-05
0.0500239
0.531715
0.562054
0.127224
0.000132308
4.85776e-05
3.41427e-05
3.03269e-05
2.75986e-05
2.76124e-05
9.84832e-05
0.00136066
0.00457675
0.000998602
0.226908
0.798257
0.842497
1.88198e-05
1.91922e-05
8.40683e-05
0.100332
0.551348
0.549629
0.21076
0.000360552
8.43634e-05
4.07241e-05
3.02139e-05
6.67082e-05
0.000722238
0.194817
0.456883
0.284239
0.47244
0.796732
0.80551
1.88198e-05
1.88198e-05
2.21259e-05
0.000147899
0.136191
0.5167
0.51561
0.303479
0.0170522
9.11369e-05
6.61653e-05
0.000627737
0.303716
0.803334
0.843648
0.673268
0.184489
0.317808
0.658545
1.88198e-05
0.000157422
0.000297474
2.28447e-05
9.44756e-05
0.127792
0.45839
0.46266
0.149958
0.00126442
0.0153506
0.303234
0.837318
0.843648
0.846022
0.144216
0.117212
0.12302
0.71255
0.000308122
0.000303885
0.00015278
7.40786e-06
1.46547e-05
9.44756e-05
0.0521405
0.356436
0.526671
0.23661
0.564195
0.702999
0.643846
0.821215
0.891863
0.519119
0.117212
0.194016
0.828516
0.000179496
9.2275e-05
5.49592e-06
6.66835e-06
7.40786e-06
1.36857e-05
0.000120242
0.216599
0.537851
0.552168
0.562454
0.249318
0.0100933
0.347733
0.945082
0.939588
0.40391
0.542359
0.958024
9.20124e-07
5.6151e-07
4.35435e-06
5.49591e-06
1.17143e-05
0.000120241
0.0392144
0.435704
0.535538
0.537851
0.225658
0.000838117
0.00272751
0.131823
0.953398
0.987125
0.980386
0.92288
1
1.55055e-08
1.48304e-07
5.98836e-07
5.09268e-06
6.95457e-05
0.000787685
0.102086
0.438062
0.504405
0.175317
0.00049553
0.000228184
0.000734772
0.0229931
0.543101
0.987434
0.987434
0.987439
0.98006
1.66196e-09
1.7468e-08
1.27577e-07
1.99919e-06
3.52817e-05
0.00557472
0.0399436
0.0603254
0.0515494
0.000496249
4.97024e-05
1.85596e-05
0.000107494
0.000875093
0.138144
0.792799
0.987434
0.909703
0.716467
5.43929e-10
1.65478e-09
1.54275e-08
8.69384e-07
7.89884e-05
0.000462579
0.000190243
7.10174e-05
0.000142238
4.95811e-05
4.57177e-06
6.37e-07
2.81062e-06
2.32287e-05
0.000241033
0.0652421
0.596208
0.889833
0.661206
4.15006e-10
5.28203e-10
2.24021e-09
4.3063e-08
3.36203e-06
1.00797e-06
1.60599e-06
5.64191e-06
1.29973e-05
4.72718e-06
4.33423e-07
4.64611e-08
1.32374e-07
2.79433e-06
2.8177e-05
0.00024436
0.00212389
0.449588
0.838929
5.96543e-10
7.67221e-10
8.69497e-10
2.04695e-09
1.54575e-08
6.63346e-08
1.38258e-07
6.31424e-07
1.4083e-06
4.52987e-07
5.9578e-08
2.65079e-08
4.16144e-08
2.48102e-07
3.06354e-06
2.8009e-05
0.000264508
0.067939
0.626559
9.32199e-10
1.22977e-09
1.32329e-09
1.42169e-09
2.36896e-09
6.39429e-09
1.46474e-08
5.12798e-08
1.46854e-07
6.36351e-08
2.23561e-08
2.23084e-08
1.09537e-08
6.3545e-06
2.77412e-05
3.95473e-05
0.00011657
0.0429166
0.559907
9.07079e-10
1.42098e-09
2.54324e-09
3.36516e-09
3.3567e-09
3.67229e-09
5.96852e-09
1.07521e-08
2.16805e-08
1.85206e-08
1.30863e-08
2.11138e-08
1.11633e-08
1.89614e-05
0.000201117
0.000231134
0.000749447
0.00887019
0.0575831
8.087e-10
1.11177e-09
1.6499e-09
3.80199e-09
1.22413e-08
5.9691e-09
8.03107e-09
8.03076e-09
9.93945e-09
9.85273e-09
9.39321e-09
2.98698e-08
1.02329e-08
4.46274e-06
9.03454e-05
0.000327808
0.00439128
0.000331839
-4.86139e-22
7.38496e-10
7.68536e-10
6.47247e-10
1.41033e-09
3.35205e-07
6.66437e-07
3.20427e-07
9.93989e-09
9.85282e-09
9.16334e-09
9.04308e-09
2.47381e-08
9.6081e-09
1.10537e-06
2.22024e-07
3.24398e-05
0.00446546
0.00183962
3.43691e-19
6.87786e-10
6.83749e-10
5.70966e-10
4.65829e-10
2.95832e-07
6.83197e-07
6.83197e-07
2.88128e-07
9.38704e-09
9.04308e-09
9.04308e-09
9.04308e-09
9.55008e-09
1.66199e-07
1.92377e-07
2.22024e-07
0.00451386
0.00487566
3.46671e-07
5.84295e-10
6.34887e-10
5.73763e-10
4.64903e-10
3.08288e-08
3.31503e-07
6.79538e-07
6.76859e-07
1.16465e-07
9.20515e-09
9.04308e-09
9.0764e-09
1.01569e-08
3.66574e-07
2.03646e-07
2.19889e-07
0.00223628
0.00250022
0.170656
4.08833e-10
5.44187e-10
5.46063e-10
4.64743e-10
2.55851e-10
5.77053e-10
2.34864e-07
6.73141e-07
6.16428e-07
2.88685e-08
9.13257e-09
9.10971e-09
9.14562e-09
1.61985e-07
1.68966e-07
0.0019306
0.00198323
0.0022228
0.386986
2.41017e-10
3.90212e-10
4.15262e-10
2.52686e-10
2.53158e-10
2.14632e-08
3.32817e-08
4.12823e-07
6.09224e-07
5.1895e-07
3.13945e-07
1.11675e-07
1.95707e-07
1.97809e-07
1.8723e-07
0.00412374
0.00516126
0.00717049
0.205272
1.29725e-10
2.29626e-10
2.37965e-10
2.0049e-10
1.26143e-09
2.67493e-08
4.48199e-08
1.58166e-08
3.54569e-07
5.22313e-07
5.19888e-07
4.79364e-07
1.19202e-07
4.77895e-06
2.15017e-07
0.00451236
0.00649891
0.00672192
0
5.97688e-11
1.19298e-10
1.49854e-10
3.02108e-10
1.62086e-09
2.32472e-09
1.12154e-09
3.9032e-10
8.8002e-10
2.18924e-07
4.43648e-07
2.0252e-07
2.59102e-08
4.00111e-06
2.42293e-05
0.0036766
0.00389039
0.00153916
4.29614e-20
2.22681e-11
6.09241e-11
1.20474e-10
3.45698e-10
7.78141e-10
5.77039e-10
4.86314e-10
3.89974e-10
2.74107e-10
3.2728e-10
2.00629e-08
1.62215e-08
2.02663e-08
2.59102e-08
0.000511053
0.00108972
0.00142725
0.000531728
-4.86139e-22
7.06965e-12
3.18657e-11
9.54512e-11
2.87192e-10
3.2123e-10
3.5383e-10
2.8382e-10
2.7834e-10
2.74107e-10
1.28888e-08
2.37282e-08
1.63241e-08
2.29528e-05
2.82296e-07
0.000287326
3.69223e-07
4.57972e-06
0.000224544
0
1.93716e-12
1.57931e-11
5.82798e-11
7.26934e-11
3.83379e-09
6.93698e-08
1.02513e-07
2.8382e-10
4.69374e-10
5.45269e-09
5.45881e-09
2.92476e-07
2.89088e-05
7.26694e-06
1.23422e-07
3.05508e-07
3.69223e-07
1.32902e-05
0.0738491
3.75239e-13
5.49847e-12
2.43419e-11
1.27853e-11
8.12787e-13
1.62085e-07
3.65193e-07
8.97286e-08
4.70649e-10
5.32422e-10
1.24535e-06
9.36471e-06
2.42082e-05
6.08186e-06
3.50527e-09
1.23422e-07
6.67482e-07
0.000101646
0.376024
4.31412e-14
9.15735e-13
5.9284e-12
5.12528e-12
2.51818e-13
6.42966e-08
3.65006e-07
3.65193e-07
1.1696e-07
1.08328e-08
1.40983e-06
8.15295e-06
2.88556e-06
3.36609e-08
1.92106e-09
3.50527e-09
0.00130288
0.0198768
0.537276
3.29804e-15
5.7763e-14
6.50421e-13
1.27969e-12
2.38585e-13
2.51818e-13
6.87912e-08
3.15093e-07
3.15011e-07
3.0373e-07
4.43676e-07
4.50947e-07
5.41018e-08
1.94782e-09
1.94736e-09
-4.90752e-08
0.00421552
0.0811977
0.307704
2.3315e-16
2.38858e-15
3.82641e-14
1.48353e-13
2.38132e-13
2.38585e-13
2.56499e-12
1.32504e-08
8.35945e-08
2.08659e-07
1.93912e-07
1.20853e-07
1.22615e-08
1.94782e-09
1.94778e-09
4.38019e-06
0.0111908
0.0206591
0
1.73923e-17
2.10723e-16
3.97707e-15
1.33696e-14
1.38104e-13
3.14031e-12
3.15998e-12
2.45697e-13
5.99227e-15
2.74162e-09
7.46814e-09
6.20618e-09
1.28628e-08
2.84238e-08
1.94782e-09
0.000258534
0.0024477
2.31428e-08
0.000820123
1.36868e-18
2.70165e-17
6.13892e-16
1.41387e-15
5.13045e-14
3.28522e-12
4.67131e-12
1.23949e-12
-5.27161e-37
4.96039e-10
2.67939e-09
5.57021e-09
9.99812e-08
5.97365e-08
2.7886e-09
3.49063e-09
4.19435e-09
1.36705e-08
0.0300719
1.08157e-19
2.74633e-18
5.53456e-17
1.1919e-16
1.71606e-14
1.24865e-12
1.1653e-12
2.45669e-13
-3.94021e-13
6.14604e-09
1.10071e-07
1.16351e-07
1.13783e-07
2.04371e-08
1.81927e-13
1.20156e-08
1.75891e-06
2.31446e-08
0.0357668
6.69015e-21
1.59634e-19
1.90059e-18
8.12325e-18
3.1549e-15
6.31364e-14
2.9442e-14
1.28383e-15
-2.78222e-13
2.99654e-08
1.06168e-07
8.37421e-08
0
0
3.24307e-17
2.83408e-07
6.89574e-06
1.22215e-07
0
2.23727e-22
4.34382e-21
2.94445e-20
3.42753e-19
1.36584e-16
2.43576e-16
4.02935e-17
3.56667e-19
-8.87562e-14
-2.30576e-16
-7.39828e-19
-4.74615e-21
-1.39243e-22
-1.72721e-23
6.48614e-17
3.77237e-07
3.8137e-08
3.62055e-26
-1.27765e-27
2.2899e-24
3.69017e-23
1.96977e-22
3.88763e-21
6.67225e-19
3.18456e-19
2.19339e-20
-3.05326e-19
-9.13956e-19
-4.33574e-19
-1.25977e-19
-2.59251e-20
-3.8953e-21
-4.88914e-22
-4.8974e-23
-8.64343e-24
-1.84543e-24
-2.0978e-25
-1.30193e-26
)
;

boundaryField
{
    leftWall
    {
        type            zeroGradient;
    }
    rightWall
    {
        type            zeroGradient;
    }
    lowerWall
    {
        type            zeroGradient;
    }
    atmosphere
    {
        type            inletOutlet;
        inletValue      uniform 0;
        value           nonuniform List<scalar> 
46
(
-9.74299e-40
-8.64956e-42
-1.24028e-44
-1.15736e-45
-2.47463e-46
4.80353e-58
3.38282e-56
9.42047e-55
2.26391e-53
1.85817e-52
6.54497e-52
1.36675e-51
2.47526e-51
3.264e-49
4.43836e-47
6.12886e-45
1.03226e-42
2.58334e-40
7.72013e-38
1.95089e-35
4.49942e-33
3.90595e-31
4.84894e-30
2.28122e-29
2.1142e-28
1.1601e-27
4.45143e-27
2.2899e-24
3.69017e-23
1.96977e-22
3.88763e-21
6.67225e-19
3.18456e-19
2.19339e-20
0
0
0
0
0
0
0
0
0
0
0
0
)
;
    }
    defaultFaces
    {
        type            empty;
    }
}


// ************************************************************************* //
