/*--------------------------------*- C++ -*----------------------------------*\
| =========                 |                                                 |
| \\      /  F ield         | OpenFOAM: The Open Source CFD Toolbox           |
|  \\    /   O peration     | Version:  5.x                                   |
|   \\  /    A nd           | Web:      www.OpenFOAM.org                      |
|    \\/     M anipulation  |                                                 |
\*---------------------------------------------------------------------------*/
FoamFile
{
    version     2.0;
    format      ascii;
    class       surfaceScalarField;
    location    "0.6";
    object      alphaPhi10;
}
// * * * * * * * * * * * * * * * * * * * * * * * * * * * * * * * * * * * * * //

dimensions      [0 3 -1 0 0 0 0];

internalField   nonuniform List<scalar> 
4432
(
-3.16443e-06
3.16443e-06
-5.70281e-06
2.53837e-06
-6.05886e-06
3.56053e-07
-5.0009e-06
-1.05795e-06
-2.63089e-06
-2.37001e-06
1.01983e-06
-3.65073e-06
5.20908e-06
-4.18924e-06
8.88074e-06
-3.67166e-06
1.13716e-05
-2.49087e-06
1.26003e-05
-1.22873e-06
1.27487e-05
-1.48332e-07
1.2014e-05
7.34708e-07
1.06015e-05
1.41249e-06
8.63598e-06
1.96549e-06
6.05683e-06
2.57915e-06
2.61215e-06
3.44468e-06
-1.84537e-06
4.45752e-06
-6.43058e-06
4.58522e-06
-7.65461e-06
2.19045e-06
-1.18382e-05
4.33689e-06
-2.00501e-05
6.47924e-06
-1.57991e-05
-4.25093e-06
-1.57911e-05
-3.67478e-06
6.83921e-06
-5.43833e-06
4.30193e-06
-5.40736e-06
3.25088e-07
-4.51456e-06
-1.95076e-06
-2.43508e-06
-4.44949e-06
1.04598e-06
-7.13178e-06
5.2583e-06
-8.40157e-06
8.99114e-06
-7.4045e-06
1.14965e-05
-4.99618e-06
1.27235e-05
-2.45581e-06
1.30321e-05
-4.56938e-07
1.27997e-05
9.6718e-07
1.22548e-05
1.95738e-06
1.151e-05
2.71031e-06
1.05754e-05
3.51373e-06
9.21056e-06
4.8095e-06
6.84787e-06
6.82021e-06
2.57438e-06
8.8587e-06
-3.23634e-06
8.35214e-06
-9.24199e-06
1.12812e-05
-1.48288e-05
1.04579e-05
-1.07805e-05
-8.29916e-06
-2.65816e-05
-2.75084e-06
9.59005e-06
-4.00026e-06
5.55136e-06
-4.15543e-06
4.80258e-07
-3.78718e-06
-2.31901e-06
-2.28526e-06
-5.9514e-06
8.63867e-07
-1.02809e-05
4.976e-06
-1.25137e-05
8.70896e-06
-1.11375e-05
1.11827e-05
-7.46994e-06
1.23293e-05
-3.60239e-06
1.24868e-05
-6.14404e-07
1.20443e-05
1.40963e-06
1.13006e-05
2.70112e-06
1.04943e-05
3.51659e-06
9.83336e-06
4.17466e-06
9.51073e-06
5.13214e-06
9.51602e-06
6.81491e-06
8.69833e-06
9.67639e-06
5.27709e-06
1.17734e-05
-2.08077e-07
1.69018e-05
-4.53266e-06
1.41802e-05
-3.23158e-06
-9.508e-06
-2.98703e-05
-1.36994e-06
1.096e-05
-1.86027e-06
6.04169e-06
-2.0732e-06
6.93184e-07
-1.91975e-06
-2.47246e-06
-6.26099e-07
-7.24505e-06
2.03469e-06
-1.29417e-05
5.50886e-06
-1.59879e-05
8.63883e-06
-1.42674e-05
1.07163e-05
-9.5474e-06
1.16714e-05
-4.55749e-06
1.17549e-05
-6.97942e-07
1.12876e-05
1.87694e-06
1.05453e-05
3.44346e-06
9.7527e-06
4.30918e-06
9.08488e-06
4.84248e-06
8.71191e-06
5.50511e-06
8.98216e-06
6.54466e-06
9.95522e-06
8.70332e-06
1.03526e-05
1.1376e-05
1.0075e-05
1.71794e-05
7.89835e-06
1.67993e-05
5.17512e-06
-6.32917e-06
-2.46951e-05
5.16992e-07
1.0443e-05
1.32121e-06
5.23748e-06
1.7229e-06
2.91494e-07
2.57911e-06
-3.32867e-06
4.27905e-06
-8.94499e-06
6.44107e-06
-1.51037e-05
8.38239e-06
-1.79292e-05
9.7826e-06
-1.56676e-05
1.0591e-05
-1.03558e-05
1.09149e-05
-4.88142e-06
1.0822e-05
-6.0501e-07
1.03782e-05
2.32073e-06
9.74345e-06
4.0782e-06
9.12205e-06
4.93059e-06
8.66132e-06
5.3032e-06
8.41068e-06
5.75575e-06
8.52905e-06
6.42629e-06
9.54512e-06
7.68725e-06
1.15469e-05
9.37419e-06
1.47224e-05
1.40039e-05
1.59917e-05
1.59385e-05
1.05723e-05
-8.522e-07
-1.41231e-05
3.01668e-06
7.42632e-06
5.77428e-06
2.47988e-06
7.88278e-06
-1.81701e-06
1.04826e-05
-5.92847e-06
1.29709e-05
-1.14333e-05
1.40634e-05
-1.61962e-05
1.36424e-05
-1.75082e-05
1.25214e-05
-1.45466e-05
1.13643e-05
-9.19864e-06
1.04921e-05
-4.00921e-06
9.91094e-06
-2.38803e-08
9.38998e-06
2.84169e-06
8.86307e-06
4.6051e-06
8.44679e-06
5.34687e-06
8.26035e-06
5.48963e-06
8.27163e-06
5.74448e-06
8.52951e-06
6.16841e-06
9.37633e-06
6.84043e-06
1.11484e-05
7.60215e-06
1.4986e-05
1.01663e-05
1.78127e-05
1.31117e-05
1.28057e-05
4.15586e-06
-1.3173e-06
5.49542e-06
1.93091e-06
1.10591e-05
-3.08376e-06
1.65532e-05
-7.31116e-06
2.12465e-05
-1.06217e-05
2.3202e-05
-1.33888e-05
2.19363e-05
-1.49304e-05
1.88839e-05
-1.44558e-05
1.56376e-05
-1.13004e-05
1.29154e-05
-6.47637e-06
1.08963e-05
-1.99012e-06
9.50347e-06
1.36893e-06
8.59576e-06
3.7494e-06
7.99358e-06
5.20728e-06
7.74594e-06
5.59452e-06
7.86507e-06
5.3705e-06
8.14962e-06
5.45993e-06
8.62461e-06
5.69341e-06
9.57362e-06
5.89142e-06
1.09539e-05
6.22184e-06
1.38834e-05
7.23686e-06
1.69573e-05
1.00379e-05
1.43549e-05
6.75826e-06
1.30376e-05
8.39681e-06
-6.4659e-06
1.83878e-05
-1.28225e-05
2.62979e-05
-1.40118e-05
2.93115e-05
-1.21281e-05
2.78436e-05
-1.03515e-05
2.41955e-05
-9.86702e-06
2.00799e-05
-1.01541e-05
1.65414e-05
-7.76216e-06
1.38178e-05
-3.7528e-06
1.19117e-05
-8.39681e-08
1.02685e-05
3.01205e-06
8.81252e-06
5.20542e-06
7.69916e-06
6.32064e-06
7.17245e-06
6.12123e-06
7.36683e-06
5.17612e-06
7.82674e-06
5.00002e-06
8.51503e-06
5.00512e-06
9.7456e-06
4.66086e-06
1.12907e-05
4.67672e-06
1.34158e-05
5.11183e-06
1.56827e-05
7.77089e-06
1.3908e-05
8.53301e-06
2.69455e-05
-5.71959e-06
1.24673e-05
-3.81682e-05
9.82019e-06
-1.42708e-05
-3.39145e-05
3.29698e-05
-4.83879e-05
8.00661e-05
-4.70963e-05
5.33e-05
1.68469e-06
-5.67325e-06
5.15323e-05
-9.45987e-05
8.22003e-05
-0.000126414
2.34428e-05
-0.000134829
2.1902e-07
-0.000138728
-2.97853e-06
-0.000140706
-2.42916e-06
-0.000141601
-2.36039e-06
-0.000139923
-4.17775e-06
-0.000133236
-8.32564e-06
-0.000120824
-1.30731e-05
-8.79391e-05
-3.28852e-05
-2.51513e-05
-6.27138e-05
-2.76932e-05
-1.39808e-05
3.88317e-05
-1.82882e-05
9.67701e-06
5.40286e-06
-5.76055e-05
3.06983e-05
-7.36834e-05
6.80066e-05
-8.44046e-05
2.48972e-05
1.23578e-05
-5.82827e-05
0.00012036
-5.05864e-05
4.17275e-05
-4.0679e-05
4.82155e-06
-4.8867e-05
-4.94681e-08
-6.06443e-05
-1.86068e-07
-7.04233e-05
-4.61699e-07
-8.00402e-05
-1.04598e-06
-9.29337e-05
-2.50059e-06
-0.000108975
-6.30612e-06
-0.000120534
-1.39946e-05
-0.000101224
-5.85452e-05
-3.70194e-05
-0.000126919
-6.47126e-05
-8.82312e-06
5.97646e-05
2.01204e-06
-1.15851e-06
2.02716e-05
-7.5865e-05
4.34959e-05
-9.69077e-05
6.9429e-05
-0.000110338
3.05592e-05
1.77592e-05
-1.74871e-05
0.000124091
-4.15981e-06
9.75613e-07
-5.70269e-08
7.1142e-07
-1.24987e-07
1.10115e-08
-3.19256e-07
2.35485e-09
-7.63802e-07
-2.04641e-08
-1.71614e-06
-9.29551e-08
-3.91075e-06
-3.03204e-07
-9.21498e-06
-1.01944e-06
-2.86966e-05
-3.76132e-06
-7.17353e-05
-2.71369e-05
-4.6994e-05
-0.000162527
-0.000111707
-1.34673e-06
6.72948e-05
1.61133e-05
-1.86186e-05
3.356e-05
-9.3311e-05
5.12133e-05
-0.000114561
7.07473e-05
-0.000129872
3.34316e-05
1.3167e-05
4.84909e-06
6.58421e-05
-5.76088e-07
6.36346e-06
-3.70369e-08
1.64873e-07
-4.77533e-08
1.34982e-08
-5.8847e-08
5.96047e-09
-8.01589e-08
-5.00502e-09
-1.36877e-07
-3.95467e-08
-3.35283e-07
-1.04843e-07
-1.07896e-06
-2.73239e-07
-3.67321e-06
-1.18128e-06
-2.21105e-05
-8.84249e-06
-5.17595e-05
-0.000144536
-0.000163466
7.11405e-06
6.04814e-05
2.78573e-05
-3.93027e-05
4.39664e-05
-0.000109422
5.56607e-05
-0.000126255
6.95756e-05
-0.000143787
1.96151e-05
1.79629e-05
-2.52981e-07
0.000136676
-8.23773e-08
6.34523e-06
-1.45118e-08
8.88125e-08
-2.9686e-08
2.04744e-08
-4.8725e-08
1.67865e-08
-6.13599e-08
-5.50673e-09
-4.96739e-08
-1.28054e-07
-1.02082e-07
-1.01586e-07
-1.67401e-07
-2.12355e-07
-9.67075e-07
-3.82556e-07
-5.86222e-06
-4.05748e-06
-4.90664e-05
-0.000108274
-0.000212533
1.66872e-05
4.37942e-05
3.90334e-05
-6.16489e-05
5.05693e-05
-0.000120958
5.74679e-05
-0.000133154
6.54389e-05
-0.000151757
2.24376e-05
3.96127e-05
1.34637e-06
0.000267691
-1.02231e-08
8.78924e-06
-1.72423e-08
8.49515e-08
-4.6162e-08
4.10642e-08
-1.2727e-07
6.12795e-08
-2.58779e-07
-4.01385e-08
-2.03245e-07
-1.68655e-07
-7.51471e-08
-1.95235e-07
-4.30244e-08
-2.03624e-07
-2.38324e-07
-1.42343e-07
-2.77183e-06
-1.49856e-06
-4.16799e-05
-7.58207e-05
-0.000254212
2.88182e-05
1.49761e-05
4.83994e-05
-8.123e-05
5.29275e-05
-0.000125486
5.68854e-05
-0.000137112
5.83428e-05
-0.000153214
2.64746e-05
5.72562e-05
4.51608e-06
0.000256296
3.02843e-08
1.00718e-05
-2.05998e-08
1.12715e-07
-5.96641e-08
6.93318e-08
-2.3634e-07
1.6703e-07
-2.14908e-07
-4.97687e-08
-1.85357e-07
-1.87494e-07
-1.20885e-07
-2.44774e-07
-3.24017e-08
-2.34083e-07
-3.24598e-08
-9.69721e-08
-1.41103e-06
-7.72508e-08
-2.76192e-05
-5.50612e-05
-0.000281832
4.28141e-05
-2.7838e-05
5.35279e-05
-9.19438e-05
5.15744e-05
-0.000123532
5.43388e-05
-0.000139876
4.7267e-05
-0.000141092
2.32994e-05
5.61304e-05
4.83375e-06
0.000151946
-1.2642e-09
9.81198e-06
-2.11061e-08
1.08341e-07
-7.14407e-08
9.65956e-08
-1.92993e-07
1.62404e-07
-1.77192e-07
-5.55281e-08
-1.63901e-07
-1.87062e-07
-1.40232e-07
-2.46328e-07
-5.12196e-08
-2.83749e-07
-6.88639e-10
-1.07046e-07
3.12886e-08
-6.84322e-08
-1.57759e-05
-4.35264e-05
-0.000300622
1.61207e-05
-4.89828e-13
1.93939e-05
-3.27297e-08
1.84482e-05
-6.78067e-07
1.58038e-05
-1.10085e-06
1.51041e-05
-1.72443e-06
1.55709e-05
-2.15298e-06
1.6299e-05
-3.03905e-06
1.677e-05
-3.04171e-06
1.81928e-05
-2.29774e-06
2.02513e-05
-8.49374e-07
2.13421e-05
1.73423e-06
2.03802e-05
6.16728e-06
1.8474e-05
8.22684e-06
1.74209e-05
7.17429e-06
1.78132e-05
4.78389e-06
1.79055e-05
4.9077e-06
1.83664e-05
4.54423e-06
2.05813e-05
2.44595e-06
2.44892e-05
7.68836e-07
2.97209e-05
-1.19873e-07
3.77185e-05
-2.26724e-07
4.89959e-05
-2.74437e-06
3.48942e-06
7.2452e-05
1.39942e-15
-4.91227e-13
-3.23728e-08
-3.56937e-10
-7.10863e-07
3.5586e-10
-2.2884e-06
-3.09277e-14
-3.96127e-06
-6.0119e-13
-4.63866e-06
-8.63277e-12
-5.31643e-06
-1.01012e-10
-5.76992e-06
-1.02996e-09
-5.66639e-06
-9.76506e-09
-4.48602e-06
-8.75087e-08
-2.22392e-06
-5.51795e-07
2.40519e-06
-5.58385e-07
1.1056e-05
-5.68385e-07
1.84064e-05
6.55168e-07
2.2084e-05
1.48331e-06
2.11682e-05
5.82352e-06
1.98735e-05
5.83884e-06
2.14527e-05
8.6678e-07
2.50244e-05
-2.80288e-06
2.9224e-05
-4.31948e-06
3.48389e-05
-5.84154e-06
4.08172e-05
-8.72273e-06
-1.0044e-05
5.43506e-05
-4.77743e-13
-2.21736e-14
-3.5332e-10
-2.13018e-12
-1.61224e-15
2.53937e-12
-3.25735e-14
-8.06598e-17
-6.32414e-13
-1.63166e-15
-9.25367e-12
-1.70077e-14
-1.10211e-10
-9.42643e-14
-1.14016e-09
-6.89785e-15
-1.09053e-08
-2.62827e-14
-9.84104e-08
-3.59824e-12
-6.50145e-07
-6.02677e-11
-2.10985e-06
-8.4195e-10
-4.27437e-06
-1.0983e-08
-5.23067e-06
-1.18661e-07
-4.23166e-06
-9.72758e-07
1.18409e-06
-1.66471e-06
9.68465e-06
-1.42362e-06
2.1508e-05
-4.19035e-06
2.94572e-05
-5.59199e-06
3.35254e-05
-6.18732e-06
3.88098e-05
-9.27809e-06
4.57728e-05
-1.4203e-05
-1.79509e-05
5.38965e-05
5.11032e-14
2.07828e-15
-2.43397e-12
-6.17097e-15
-5.4327e-17
1.05345e-13
-3.82935e-16
1.33702e-16
-2.26178e-15
1.33626e-16
-2.08336e-14
1.28286e-15
-1.17679e-13
1.4657e-15
-1.15136e-13
-3.75475e-15
-2.18675e-13
-6.13944e-16
-3.82569e-12
-6.90038e-14
-6.41078e-11
-3.41149e-14
-8.96536e-10
-8.18793e-12
-1.15397e-08
-3.27416e-10
-1.28467e-07
-1.42906e-09
-1.09998e-06
-1.08654e-09
-2.17552e-06
-7.43552e-10
-3.24048e-06
-3.67699e-10
-4.66995e-06
-4.00519e-10
-2.89772e-06
-5.179e-10
1.17137e-06
-1.58594e-09
6.67975e-06
-1.45482e-08
1.27451e-05
-2.21765e-07
-3.57417e-06
1.82095e-05
-1.40459e-15
2.35135e-15
-1.01151e-14
1.05281e-16
7.60306e-14
4.05009e-15
1.71451e-15
6.32225e-15
1.2752e-16
3.39699e-16
1.06721e-16
4.33459e-16
2.53301e-16
3.53525e-16
4.11293e-15
5.36063e-16
5.39351e-14
-6.0854e-14
5.90119e-14
-3.18573e-13
3.04342e-15
2.88292e-15
-8.37048e-12
-1.56699e-13
-1.0454e-10
-4.75216e-12
-1.6842e-10
-8.25066e-10
-1.55271e-10
-9.30325e-10
-1.85162e-10
-5.29938e-10
-2.27138e-10
-1.42535e-10
-2.78497e-10
-1.64539e-10
-3.88794e-10
-2.24415e-10
-1.23094e-09
-5.5855e-10
-1.4607e-08
-9.3272e-10
-2.33935e-07
-1.02228e-09
-9.52842e-10
-3.80668e-06
-1.78233e-17
6.40671e-18
4.75205e-17
3.09466e-18
2.67734e-15
4.72675e-17
4.07568e-16
1.37195e-16
2.28016e-16
6.54734e-16
4.86878e-16
1.2144e-15
6.96962e-16
9.51053e-16
1.63021e-15
4.10893e-16
3.61542e-13
5.64489e-14
5.26565e-13
-9.36164e-13
9.2488e-13
-1.39249e-12
1.0289e-12
-1.02795e-12
-1.34922e-11
-5.41893e-13
-9.36103e-11
-2.4529e-11
-2.93318e-10
-4.71867e-12
-1.33718e-10
-3.73946e-11
-8.53267e-11
-8.32577e-11
8.73621e-12
-7.11927e-11
-1.6018e-10
-2.91063e-11
-4.48924e-10
-1.30949e-09
-3.05248e-10
-3.11032e-09
-4.75332e-10
-2.51029e-09
-9.7633e-10
-2.03094e-09
-1.25894e-19
9.28564e-20
4.91339e-19
3.93359e-20
3.19576e-17
2.93712e-18
5.69805e-17
5.54854e-17
4.73309e-16
8.45877e-16
1.1168e-15
2.40927e-15
1.69158e-15
2.71195e-15
2.48444e-15
4.746e-16
5.21278e-13
1.46001e-13
-2.4257e-13
1.02271e-13
-8.11168e-13
-5.49302e-13
-9.15272e-13
-6.49257e-13
-1.65859e-13
-6.22788e-13
-2.25338e-13
-2.53109e-11
-3.24193e-13
-5.49384e-12
-3.7677e-11
-4.62638e-14
-1.29139e-11
-6.10368e-13
7.56822e-13
-8.71836e-12
6.16168e-11
-2.85674e-11
4.72924e-10
-1.38592e-09
4.30346e-09
-5.95217e-09
5.73067e-09
-6.72064e-09
-3.90047e-09
5.13389e-09
-1.31719e-21
2.2196e-21
1.69369e-21
2.78987e-22
7.76415e-19
1.80379e-19
2.81683e-17
3.21145e-17
4.00718e-16
6.60547e-16
1.22101e-15
2.37724e-15
1.46345e-15
3.01567e-15
4.84945e-15
2.02784e-15
7.20829e-14
-3.05886e-16
1.30738e-13
-1.01939e-16
9.52207e-15
-4.88675e-16
6.2145e-14
-2.19106e-14
1.81809e-13
-4.9462e-12
-5.53953e-13
-1.68321e-11
-7.52573e-15
-8.35342e-12
-1.54405e-14
-4.28038e-14
-8.60624e-14
-5.442e-13
1.28082e-12
-1.00903e-11
2.72077e-12
-1.38799e-10
1.60809e-10
-3.2986e-12
1.52675e-09
-3.52705e-10
4.90497e-09
-1.08545e-08
-1.31962e-08
1.50614e-08
-1.12389e-23
5.00109e-23
5.8444e-24
1.71652e-24
3.18484e-20
1.36161e-20
7.5592e-18
7.42476e-18
2.01619e-16
2.52836e-16
6.9442e-16
1.56181e-15
1.34983e-15
2.82916e-15
1.36807e-15
2.40635e-15
1.09823e-15
7.55986e-16
6.11622e-16
3.80871e-16
3.59959e-17
8.4325e-17
-5.86015e-14
-3.15589e-16
-1.02243e-12
-1.30889e-12
-9.86591e-13
-8.9169e-12
-1.54687e-13
-2.34481e-12
-1.5672e-13
-4.52252e-14
1.11934e-12
-1.40993e-12
-3.1183e-11
-9.80404e-12
-3.65968e-13
-8.57458e-12
-1.97547e-12
-5.18051e-12
-2.0945e-10
-1.48716e-10
7.951e-10
-1.36727e-08
-1.86457e-08
7.11121e-09
-6.69207e-26
1.28157e-24
2.98721e-26
1.65422e-26
2.09001e-21
1.65074e-21
1.325e-18
1.43669e-18
5.62021e-17
6.26355e-17
3.81291e-16
4.61325e-16
7.01551e-16
1.09435e-15
7.71965e-16
1.08758e-15
4.59552e-16
5.07847e-16
3.79535e-16
4.58262e-16
2.93786e-16
1.67447e-16
8.15851e-16
-1.1131e-15
-7.42805e-14
-5.33764e-16
-5.99753e-13
-2.11875e-16
-7.84671e-14
-2.21229e-14
-8.9448e-14
-4.62604e-14
-1.96773e-12
-8.38954e-13
-4.00911e-12
-2.56018e-14
-1.34411e-13
-1.22911e-12
-4.00954e-12
-1.94195e-12
-4.34118e-10
-1.83248e-10
-5.18641e-09
-1.58367e-08
-1.96032e-08
-3.37416e-09
-4.71885e-28
1.05301e-24
2.46219e-28
4.01957e-28
1.92762e-22
2.56327e-22
2.12528e-19
3.09913e-19
1.09784e-17
1.42417e-17
7.93331e-17
9.70896e-17
1.5021e-16
2.03939e-16
1.72764e-16
1.88448e-16
1.68021e-16
2.11766e-16
3.37363e-16
5.6625e-16
2.06024e-16
2.70252e-16
4.59804e-16
9.28108e-17
-5.23483e-18
-1.44884e-17
-1.07131e-16
-4.20391e-17
-2.20804e-14
-7.02017e-17
-2.3197e-13
-5.42954e-18
-3.54335e-16
-8.98493e-17
-2.56798e-14
-3.45437e-16
-1.23062e-12
-2.54745e-14
-2.38485e-12
-8.68948e-13
-5.72572e-10
-2.88639e-11
-1.05152e-08
-5.61093e-09
-1.55246e-08
-1.36354e-08
-5.14017e-30
-5.05213e-25
2.50169e-27
1.15834e-28
1.66032e-23
4.13403e-23
2.74877e-20
5.77876e-20
1.57121e-18
2.88684e-18
1.06874e-17
1.87293e-17
1.78423e-17
3.62705e-17
1.94557e-17
3.31878e-17
3.4172e-17
9.16157e-17
1.27592e-16
6.30203e-16
9.66562e-18
2.92509e-16
-1.00875e-17
3.80774e-17
-2.1278e-17
-2.79325e-18
-2.82858e-17
-1.88118e-17
-1.45677e-18
-1.83819e-17
-2.68476e-18
-3.8481e-18
-9.10162e-17
-1.47866e-18
-4.3524e-16
-2.03093e-18
-2.58513e-14
-9.41825e-17
-8.84892e-13
-1.13635e-14
-2.93123e-11
-4.84546e-13
-4.86154e-09
-1.68538e-11
-3.57273e-10
-1.9614e-08
-1.28437e-27
-7.03967e-25
1.34126e-27
4.11339e-30
1.43106e-24
1.40105e-23
2.22128e-21
9.39497e-21
1.32908e-19
5.0864e-19
7.5563e-19
3.186e-18
9.88471e-19
6.13948e-18
6.14077e-19
6.71892e-18
-7.39211e-18
3.28587e-17
-3.02903e-17
1.75824e-16
-5.38045e-17
6.52629e-17
-3.37394e-17
4.1392e-17
-4.90796e-17
1.49435e-17
-5.00842e-17
8.09972e-19
-1.04357e-17
-2.16243e-18
-2.16425e-18
-9.76044e-19
-2.81005e-18
-8.30997e-19
-3.59386e-18
-1.567e-18
-9.43598e-17
-4.42826e-18
-1.14264e-14
-6.72628e-17
-4.92355e-13
-5.07271e-15
-1.72529e-11
-1.41252e-13
-2.65521e-12
-3.73663e-10
-2.46584e-27
-5.54316e-25
-2.60181e-29
3.27591e-28
-2.2949e-25
7.09756e-24
-1.67167e-22
1.38213e-21
-8.92783e-21
7.58151e-20
-7.06685e-20
4.59125e-19
-1.81892e-19
9.13868e-19
-5.9826e-19
1.28768e-18
-6.58224e-18
3.13474e-18
-1.41927e-17
7.85944e-18
-2.63081e-17
1.62187e-17
-4.0859e-17
1.92805e-17
-4.11602e-17
2.54451e-17
-1.25525e-17
4.99117e-18
-2.59655e-18
2.55901e-19
-2.46465e-18
-5.37457e-21
-3.25213e-18
-8.21015e-20
-5.78954e-18
-5.50186e-19
-1.42416e-17
-3.57947e-18
-8.40439e-17
-3.96213e-17
-4.94402e-15
-4.6851e-16
-1.48855e-13
-3.66548e-15
-1.40909e-15
-4.05519e-12
-1.62249e-27
-3.78331e-25
-1.54064e-27
2.45745e-28
-4.36182e-25
2.17261e-24
-2.49642e-22
1.75144e-22
-6.82725e-21
8.81977e-21
-3.08973e-20
5.3248e-20
-7.15221e-20
1.22336e-19
-1.92514e-19
2.45757e-19
-8.87838e-19
6.25477e-19
-5.03457e-18
2.01441e-18
-1.32922e-17
5.6926e-18
-1.75327e-17
7.72922e-18
-6.64421e-18
5.30106e-18
-1.6907e-18
4.12303e-19
-4.66969e-19
9.0608e-20
-5.51296e-19
2.89312e-20
-1.1141e-18
2.20073e-20
-5.76803e-18
2.42652e-19
-4.22205e-17
1.35302e-18
-6.4613e-16
1.35652e-17
-5.19116e-15
2.08367e-16
-3.09617e-14
1.25151e-15
3.12674e-15
-1.37272e-13
-6.70389e-28
-2.59891e-25
-2.50475e-26
-2.40359e-28
-1.30206e-25
4.21942e-25
-4.81424e-23
1.69825e-23
-1.14326e-21
7.69046e-22
-5.14247e-21
5.02899e-21
-1.52018e-20
1.56696e-20
-5.8077e-20
5.2405e-20
-3.79415e-19
2.06525e-19
-1.55639e-18
6.66674e-19
-2.21459e-18
8.90412e-19
-2.14881e-18
6.57598e-19
-5.31572e-19
2.29647e-19
-2.20377e-19
5.30503e-20
-7.17292e-20
1.96764e-20
-4.91708e-20
5.90741e-21
-1.00172e-19
3.65926e-21
-2.52842e-18
6.69476e-20
-4.03596e-17
2.81713e-18
-2.84863e-16
2.85952e-17
-1.3331e-15
2.12328e-16
-6.02713e-15
1.03451e-15
4.31868e-15
-1.64996e-14
-6.38301e-29
-1.83383e-25
-6.68334e-27
-2.87546e-26
-2.33689e-26
4.18376e-26
-4.83032e-24
1.18947e-24
-1.06259e-22
4.75754e-23
-6.24534e-22
4.03815e-22
-3.12495e-21
2.30549e-21
-1.88464e-20
1.28881e-20
-1.02241e-19
5.04166e-20
-2.18028e-19
1.00132e-19
-2.50239e-19
1.0373e-19
-1.71664e-19
7.1919e-20
-7.7555e-20
3.21413e-20
-3.01136e-20
1.2783e-20
-9.8899e-21
3.40764e-21
-6.73202e-21
1.18711e-21
-1.02658e-20
1.03756e-21
-2.27896e-19
1.58531e-20
-1.01548e-17
5.83603e-19
-2.82144e-16
2.3836e-17
-2.35454e-15
4.55327e-16
-6.82437e-15
2.40878e-15
6.67032e-15
-1.32614e-14
1.54585e-28
-1.2528e-25
-4.17229e-28
-2.48133e-26
-1.67807e-27
1.04461e-26
-2.64312e-25
6.01952e-26
-6.25073e-24
2.10089e-24
-7.17784e-23
3.18908e-23
-7.26414e-22
4.03063e-22
-5.44137e-21
3.06793e-21
-2.08846e-20
1.13777e-20
-3.51406e-20
2.04627e-20
-4.06467e-20
2.29155e-20
-2.96049e-20
1.9197e-20
-1.23819e-20
9.48313e-21
-3.51122e-21
2.71213e-21
-1.02821e-21
5.23812e-22
-1.04535e-21
1.8875e-22
-2.18759e-21
2.97444e-22
-6.24244e-20
9.49285e-21
-2.14342e-18
2.82962e-19
-7.99399e-17
7.30186e-18
-1.43809e-15
1.98717e-16
-8.44275e-15
2.78201e-15
1.03752e-14
-1.70059e-14
1.78634e-28
-7.82866e-26
2.71401e-28
-1.42132e-26
-2.32849e-27
-5.8485e-27
-8.23925e-27
1.61651e-27
-3.15823e-25
7.45186e-26
-9.01849e-24
3.02515e-24
-1.47858e-22
6.6663e-23
-1.25142e-21
5.91258e-22
-4.7074e-21
2.50022e-21
-7.90367e-21
5.17216e-21
-9.12405e-21
6.22971e-21
-6.73894e-21
5.41253e-21
-2.53402e-21
2.70484e-21
-5.35006e-22
7.34328e-22
-1.27426e-22
1.19678e-22
-1.49629e-22
3.61014e-23
-6.0386e-22
9.8323e-23
-2.43193e-20
4.81426e-21
-6.2535e-19
1.54003e-19
-1.73201e-17
2.99206e-18
-4.98074e-16
5.99898e-17
-4.69141e-15
1.14548e-15
8.12261e-15
-1.35355e-14
1.10204e-28
-4.33898e-26
4.84055e-28
-6.55443e-27
-4.95782e-29
-9.51483e-27
-1.27665e-28
6.12487e-28
-1.83422e-26
2.57283e-27
-1.07114e-24
3.01297e-25
-2.30992e-23
8.17428e-24
-2.32659e-22
8.82501e-23
-9.76608e-22
4.47701e-22
-1.71198e-21
1.04428e-21
-1.9696e-21
1.31971e-21
-1.47707e-21
1.189e-21
-5.56374e-22
6.19411e-22
-1.07176e-22
1.82149e-22
-2.06446e-23
2.95928e-23
-2.42879e-23
7.34826e-24
-1.83134e-22
3.40562e-23
-1.10425e-20
2.15937e-21
-2.9326e-19
8.33353e-20
-4.71049e-18
1.46586e-18
-9.34526e-17
1.83771e-17
-1.35504e-15
2.81424e-16
2.9926e-15
-6.79075e-15
4.52628e-29
-2.10319e-26
3.19676e-28
-2.36987e-27
7.62248e-29
-6.00856e-27
-2.06494e-28
-9.19028e-28
-1.1259e-27
9.04462e-29
-9.13282e-26
2.02912e-26
-2.70329e-24
6.68217e-25
-3.39045e-23
9.93421e-24
-1.56737e-22
5.8405e-23
-2.83562e-22
1.44047e-22
-3.25649e-22
1.86308e-22
-2.52917e-22
1.74782e-22
-9.98139e-23
9.71486e-23
-1.90215e-23
3.11924e-23
-2.95268e-24
5.25602e-24
-3.52482e-24
1.15315e-24
-4.56913e-23
8.98592e-24
-3.36231e-21
6.16104e-22
-1.0629e-19
2.70291e-20
-1.52196e-18
5.73941e-19
-2.27981e-17
7.96945e-18
-3.90729e-16
1.42408e-16
2.07037e-15
-3.16838e-15
1.25503e-29
-8.86519e-27
1.25359e-28
-6.37398e-28
5.80697e-29
-2.33621e-27
-6.81794e-30
-7.02805e-28
-4.04099e-29
1.89338e-30
-4.96956e-27
6.66358e-28
-2.35488e-25
3.82858e-26
-3.64847e-24
8.06142e-25
-1.78721e-23
5.19568e-24
-3.27515e-23
1.31003e-23
-3.7512e-23
1.71063e-23
-3.05431e-23
1.66239e-23
-1.2924e-23
9.99086e-24
-2.57378e-24
3.56486e-24
-3.88169e-25
6.82236e-25
-4.72903e-25
1.8111e-25
-8.65865e-24
1.85499e-24
-6.28967e-22
1.25311e-22
-2.22463e-20
5.90356e-21
-3.94666e-19
1.67999e-19
-8.43408e-18
3.70359e-18
-2.38437e-16
1.01622e-16
1.94665e-15
-2.69863e-15
2.30382e-30
-3.24754e-27
3.17448e-29
-1.21552e-28
1.91737e-29
-6.04629e-28
-1.5315e-31
-2.386e-28
-5.92956e-31
1.40319e-30
-1.87203e-28
1.31099e-29
-1.51369e-26
1.68493e-27
-2.71997e-25
4.41997e-26
-1.3719e-24
2.98582e-25
-2.52508e-24
7.62019e-25
-2.88177e-24
1.00269e-24
-2.49272e-24
1.00962e-24
-1.17102e-24
6.67955e-25
-2.67872e-25
2.76387e-25
-5.59669e-26
6.93006e-26
-6.87875e-26
3.0422e-26
-1.45898e-24
3.89613e-25
-1.06821e-22
2.77978e-23
-4.31895e-21
1.53937e-21
-9.9452e-20
5.38513e-20
-3.02727e-18
1.47917e-18
-1.26389e-16
5.33748e-17
1.34422e-15
-1.82709e-15
2.85868e-31
-1.03727e-27
5.64126e-30
-1.65442e-29
4.03421e-30
-1.12888e-28
2.03217e-31
-5.28301e-29
-1.24717e-30
-1.96967e-30
-6.11425e-30
3.19636e-31
-6.68179e-28
5.16622e-29
-1.31564e-26
1.47496e-27
-6.74924e-26
1.0466e-26
-1.24887e-25
2.72959e-26
-1.41825e-25
3.6568e-26
-1.31803e-25
3.81506e-26
-7.00521e-26
2.79768e-26
-1.93633e-26
1.33895e-26
-7.10126e-27
4.66371e-27
-9.03649e-27
3.69912e-27
-2.56433e-25
8.92094e-26
-2.19112e-23
7.1224e-24
-1.12994e-21
4.93647e-22
-2.78836e-20
2.00607e-20
-7.62697e-19
4.76231e-19
-3.6646e-17
1.33288e-17
4.18872e-16
-7.90072e-16
2.44246e-32
-2.90586e-28
7.44884e-31
-1.63026e-30
6.15591e-31
-1.61052e-29
6.46948e-32
-8.6841e-30
-2.96381e-32
-6.76596e-31
-1.32002e-31
6.77904e-33
-1.6986e-29
8.93693e-31
-3.75198e-28
2.74124e-29
-2.01524e-27
2.11172e-28
-3.84258e-27
5.81059e-28
-4.50094e-27
8.18826e-28
-4.42063e-27
8.82815e-28
-2.58948e-27
7.07032e-28
-8.03455e-28
3.70763e-28
-6.12095e-28
1.78885e-28
-9.01419e-28
2.96029e-28
-4.49681e-26
1.90958e-26
-4.56462e-24
1.67207e-24
-3.48702e-22
1.43656e-22
-9.48621e-21
7.30555e-21
-1.52895e-19
1.48903e-19
-4.76148e-18
1.95699e-18
4.38478e-17
-1.46336e-16
1.54085e-33
-7.1935e-29
7.68666e-32
-1.26371e-31
7.31359e-32
-1.85046e-30
1.06464e-32
-1.1395e-30
-5.90534e-34
-1.22701e-31
-2.16706e-33
1.25787e-34
-2.73001e-31
1.29381e-32
-6.28682e-30
3.7047e-31
-3.47087e-29
2.85041e-30
-6.89887e-29
8.03677e-30
-8.53481e-29
1.18966e-29
-8.62522e-29
1.33006e-29
-5.35127e-29
1.11795e-29
-2.08639e-29
6.39386e-30
-2.25027e-29
4.33367e-30
-8.86713e-29
2.90451e-29
-6.96643e-27
3.27154e-27
-7.51171e-25
3.02957e-25
-8.48962e-23
2.97183e-23
-3.48992e-21
2.05735e-21
-3.93211e-20
4.85134e-20
-4.16737e-19
4.11424e-19
2.98107e-18
-9.79705e-18
7.27166e-35
-1.5862e-29
6.45221e-33
-8.25518e-33
7.08857e-33
-1.78693e-31
1.2446e-33
-1.25227e-31
-1.05096e-35
-1.61681e-32
-3.44675e-35
2.30517e-36
-3.93645e-33
2.10494e-34
-8.77596e-32
5.61318e-33
-4.8118e-31
4.21236e-32
-9.92922e-31
1.19726e-31
-1.3095e-30
1.84514e-31
-1.3435e-30
2.15565e-31
-8.86576e-31
1.88894e-31
-5.06641e-31
1.24607e-31
-5.75039e-31
1.19621e-31
-9.76376e-30
3.90981e-30
-8.8924e-28
4.37839e-28
-9.3636e-26
4.21408e-26
-1.28912e-23
4.36446e-24
-8.59665e-22
3.845e-22
-1.26049e-20
1.30783e-20
-6.70768e-20
1.28277e-19
5.70802e-19
-4.49458e-19
2.16689e-36
-3.13927e-30
4.54609e-34
-4.7672e-34
5.78985e-34
-1.49788e-32
1.15172e-34
-1.19204e-32
-1.73497e-37
-1.72755e-33
-5.33316e-37
4.16381e-38
-5.67773e-35
3.58373e-36
-1.2332e-33
9.31056e-35
-6.73182e-33
6.97264e-34
-1.43409e-32
2.00991e-33
-2.0303e-32
3.20362e-33
-2.11094e-32
3.90014e-33
-1.42127e-32
3.58244e-33
-1.3134e-32
2.69601e-33
-1.95293e-32
5.32435e-33
-1.02069e-30
5.05011e-31
-9.39966e-29
4.99789e-29
-9.64188e-27
5.00647e-27
-1.38769e-24
5.45143e-25
-1.2912e-22
5.56255e-23
-2.85342e-21
2.62941e-21
-1.58163e-20
3.70648e-20
1.95632e-19
-4.46191e-20
-3.45213e-34
-5.61203e-31
2.74093e-35
-3.2698e-35
4.08157e-35
-1.1165e-33
8.90142e-36
-1.00707e-33
-2.69626e-39
-1.58066e-34
-7.91435e-39
7.36149e-40
-8.03093e-37
6.08107e-38
-1.72543e-35
1.5636e-36
-9.43537e-35
1.17856e-35
-2.05421e-34
3.44416e-35
-3.05801e-34
5.59745e-35
-3.20965e-34
6.96327e-35
-2.27655e-34
6.61654e-35
-2.42139e-34
5.38124e-35
-1.10921e-33
4.18582e-34
-9.39051e-32
5.44626e-32
-8.53139e-30
5.16953e-30
-8.69892e-28
5.43261e-28
-1.27478e-25
6.33399e-26
-1.45516e-23
7.41014e-24
-4.38732e-22
4.48785e-22
-3.03871e-21
8.57913e-21
6.15067e-20
-5.47105e-21
-4.22756e-34
-9.09829e-32
1.40067e-36
-2.91967e-35
2.5316e-36
-7.5394e-35
5.92845e-37
-7.68745e-35
-3.97908e-41
-1.27908e-35
-1.1271e-40
1.27801e-41
-1.10355e-38
1.02403e-39
-2.35772e-37
2.6171e-38
-1.29786e-36
1.98868e-37
-2.87103e-36
5.89234e-37
-4.39169e-36
9.7334e-37
-4.62402e-36
1.22875e-36
-3.67754e-36
1.1993e-36
-4.15092e-36
1.22055e-36
-7.82559e-35
4.33998e-35
-7.21176e-33
4.83048e-33
-6.50928e-31
4.63565e-31
-6.57944e-29
5.0975e-29
-9.7612e-27
6.34648e-27
-1.31859e-24
8.62257e-25
-4.77782e-23
6.74632e-23
-3.41474e-22
1.63786e-21
1.4945e-20
3.75218e-22
-1.28256e-34
-1.34139e-32
5.84952e-38
-1.09809e-35
1.39951e-37
-4.6817e-36
3.48326e-38
-5.37464e-36
-5.61962e-43
-9.34954e-37
-1.5508e-42
2.18863e-43
-1.48068e-40
1.71545e-41
-3.14772e-39
4.36868e-40
-1.73881e-38
3.34737e-39
-3.89126e-38
1.00563e-38
-6.06593e-38
1.69037e-38
-6.20036e-38
2.17281e-38
-6.33912e-38
2.19227e-38
-9.86323e-38
4.42198e-38
-5.07556e-36
4.07113e-36
-4.31156e-34
3.51178e-34
-3.7826e-32
3.34323e-32
-3.628e-30
3.7442e-30
-5.03775e-28
4.86456e-28
-7.57915e-26
7.60952e-26
-2.45647e-24
8.22213e-24
1.09038e-23
2.56941e-22
2.71195e-21
5.43476e-22
-2.63865e-35
-1.80163e-33
1.76899e-39
-2.59141e-36
6.97226e-39
-2.70685e-37
1.85198e-39
-3.47899e-37
-7.76803e-45
-6.26752e-38
-2.10742e-44
3.7163e-45
-1.97048e-42
2.86427e-43
-4.17225e-41
7.28038e-42
-2.30705e-40
5.62215e-41
-5.1802e-40
1.71048e-40
-8.17068e-40
2.92139e-40
-8.37319e-40
3.82733e-40
-8.66457e-40
4.08058e-40
-3.86466e-39
2.74748e-39
-2.65188e-37
2.90418e-37
-1.91137e-35
2.17226e-35
-1.4794e-33
1.94101e-33
-1.16422e-31
2.08864e-31
-1.04059e-29
2.73412e-29
-1.3251e-29
4.74715e-27
1.78357e-25
7.48212e-25
1.21062e-23
3.20675e-23
3.57828e-22
1.89302e-22
-4.36265e-36
-2.20636e-34
1.27903e-41
-4.71162e-37
3.22619e-40
-1.47344e-38
9.25337e-41
-2.10374e-38
-1.09078e-46
-3.8986e-39
-2.9398e-46
6.29173e-47
-2.70108e-44
4.77807e-45
-5.70024e-43
1.21258e-43
-3.15081e-42
9.426e-43
-7.065e-42
2.89871e-42
-1.08464e-41
5.01708e-42
-1.13653e-41
6.68982e-42
-1.25764e-41
8.1083e-42
-1.75914e-40
1.92463e-40
-1.13723e-38
1.6826e-38
-6.55388e-37
1.25124e-36
-3.42463e-35
1.01721e-34
-7.30938e-34
9.86784e-33
3.76591e-31
1.25197e-30
1.62161e-28
2.30061e-28
4.35591e-26
4.98925e-26
2.77339e-24
3.1359e-24
3.70941e-23
3.82197e-23
-6.10945e-37
-2.46422e-35
-2.68138e-40
-7.16094e-38
1.45835e-41
-7.72427e-40
4.55532e-42
-1.19765e-39
-1.62611e-48
-2.27222e-40
-4.37094e-48
1.06728e-48
-4.00218e-46
7.98882e-47
-8.44093e-45
2.02154e-45
-4.67935e-44
1.57925e-44
-1.0494e-43
4.89835e-44
-1.52363e-43
8.57371e-44
-1.67807e-43
1.16233e-43
-2.46985e-43
1.88493e-43
-8.10757e-42
1.08643e-41
-4.89205e-40
8.95222e-40
-2.2034e-38
7.10199e-38
-3.49049e-37
5.50585e-36
1.41371e-34
4.80617e-34
4.39391e-32
5.5168e-32
1.33154e-29
9.85082e-30
4.23083e-27
2.73907e-27
3.69328e-25
2.54602e-25
3.42359e-24
5.263e-24
-7.42359e-38
-2.50922e-36
-6.78811e-41
-9.42788e-39
6.48484e-43
-4.15615e-41
2.26785e-43
-6.46524e-41
-2.62738e-50
-1.25144e-41
-7.09119e-50
1.82113e-50
-6.47547e-48
1.34186e-48
-1.37539e-46
3.37928e-47
-7.70501e-46
2.64819e-46
-1.75601e-45
8.2706e-46
-2.42781e-45
1.46087e-45
-2.90482e-45
2.0153e-45
-7.40209e-45
5.39291e-45
-4.18908e-43
4.87145e-43
-2.72157e-41
4.42749e-41
-1.26438e-39
3.82453e-39
-1.46535e-38
3.11644e-37
8.26939e-36
2.61407e-35
2.24843e-33
2.75095e-33
6.7044e-31
4.74722e-31
2.71453e-28
1.56617e-28
3.40767e-26
1.92161e-26
2.96667e-25
5.4515e-25
-7.80278e-39
-2.32934e-37
-1.0422e-41
-1.08983e-39
2.82681e-44
-2.5485e-42
1.12925e-44
-3.33092e-42
-4.49105e-52
-6.56198e-43
-1.21751e-51
3.12981e-52
-1.10821e-49
2.26664e-50
-2.38069e-48
5.67245e-49
-1.35758e-47
4.45214e-48
-3.15316e-47
1.39808e-47
-4.2857e-47
2.48763e-47
-5.63586e-47
3.50295e-47
-2.78543e-46
1.68491e-46
-2.23601e-44
1.83405e-44
-1.72804e-42
1.88282e-42
-1.07181e-40
1.79618e-40
-4.27121e-39
1.6573e-38
9.49308e-38
1.51728e-36
7.70906e-35
1.64083e-34
2.76456e-32
2.92096e-32
1.44813e-29
1.05705e-29
2.40693e-27
1.4199e-27
2.32636e-26
4.37268e-26
-7.13113e-40
-1.97263e-38
-1.21244e-42
-1.11738e-40
1.20693e-45
-1.88366e-43
5.44677e-46
-1.64679e-43
-7.76696e-54
-3.29661e-44
-2.11062e-53
5.41151e-54
-1.91228e-51
3.85006e-52
-4.155e-50
9.56853e-51
-2.40475e-49
7.51158e-50
-5.69315e-49
2.37009e-49
-7.77931e-49
4.24144e-49
-1.11552e-48
6.12212e-49
-1.01424e-47
4.85252e-48
-1.0069e-45
5.72863e-46
-9.21025e-44
6.4597e-44
-7.34493e-42
6.92265e-42
-4.86736e-40
7.42959e-40
-2.20118e-38
8.22935e-38
3.18091e-37