/*--------------------------------*- C++ -*----------------------------------*\
| =========                 |                                                 |
| \\      /  F ield         | OpenFOAM: The Open Source CFD Toolbox           |
|  \\    /   O peration     | Version:  5.x                                   |
|   \\  /    A nd           | Web:      www.OpenFOAM.org                      |
|    \\/     M anipulation  |                                                 |
\*---------------------------------------------------------------------------*/
FoamFile
{
    version     2.0;
    format      ascii;
    class       volScalarField;
    location    "0.6";
    object      p;
}
// * * * * * * * * * * * * * * * * * * * * * * * * * * * * * * * * * * * * * //

dimensions      [1 -1 -2 0 0 0 0];

internalField   nonuniform List<scalar> 
2268
(
524.967
522.749
523.554
527.994
537.371
551.681
568.717
585.133
600.719
617.004
635.068
654.935
676.139
698.159
720.427
742.282
762.842
779.792
793.885
802.229
794.872
807.077
841.681
465.956
463.104
463.687
467.956
477.135
491.486
508.933
525.607
541.309
557.656
575.679
595.519
616.784
638.885
661.208
683.151
703.884
721.628
737.086
750.036
733.627
735.905
777.27
406.318
402.898
403.185
406.903
415.575
429.96
448.18
465.434
481.392
497.87
516.053
536.054
557.436
579.621
601.936
623.685
644.161
662.598
678.092
693.041
678.692
670.279
715.512
346.704
342.51
342.122
344.978
352.746
367.192
386.431
404.706
421.092
437.755
456.095
476.286
497.884
520.314
542.826
564.636
585.063
603.715
619.272
632.666
627.234
618.447
661.137
287.67
282.316
280.813
282.346
288.978
303.688
324.151
343.589
360.48
377.391
395.905
416.291
438.176
460.997
483.895
505.967
526.605
545.513
561.512
574.912
578.087
576.745
613.141
229.374
222.937
219.465
220.004
225.967
241.024
262.191
282.185
299.44
316.689
335.505
356.093
378.308
401.654
425.124
447.595
468.568
487.9
504.718
519.156
528.25
534.248
567.024
171.576
165.016
160.358
159.844
165.251
180.041
200.646
220.208
237.698
255.433
274.677
295.626
318.325
342.404
366.635
389.57
410.903
430.706
448.377
463.812
476.205
485.988
513.362
113.668
103.921
96.2963
97.7854
104.371
118.679
137.981
156.82
175.014
194.307
213.464
234.718
257.959
282.941
308.248
331.832
353.606
373.988
392.449
408.665
422.85
437.191
460.165
739.013
725.462
904.907
1230.4
1274.87
1189
1195.52
781.475
364.648
224.332
194.113
194.573
208.196
227.581
239.529
356.505
818.424
1384.71
1409.08
710.512
638.307
771.004
1093.4
1122.59
1078.69
1045.88
426.944
180.926
150.699
149.493
149.119
153.046
160.926
170.566
247.835
635.048
1255.08
1338.95
655.164
562.4
675.12
942.775
932.121
916.79
741.098
212.103
159.073
146.773
142.109
139.674
140.697
143.704
145.751
161.16
315.691
959.779
1243.17
590.1
479.375
586.419
790.52
722.454
621.758
324.084
175.56
153.196
145.775
141.537
139.442
140.432
143.006
144.59
148.937
208.837
571.168
1124.5
530.207
412.777
503.368
648.502
521.27
367.681
170.833
158.47
149.973
144.692
140.606
138.764
139.852
142.395
143.975
145.809
169.114
304.743
991.427
479.266
365.903
430.776
522.555
340.692
213.768
140.634
153.838
147.393
143.4
139.464
137.762
138.928
141.554
143.293
144.364
151.943
189.443
834.442
440.928
343.365
374.285
414.619
189.647
126.899
168.683
150.893
144.547
141.737
137.929
136.397
137.638
140.321
142.456
143.368
144.81
149.814
648.186
377.262
331.067
333.085
325.345
70.7043
36.4802
156.885
141.617
141.381
139.704
136.095
134.875
136.16
138.842
141.353
142.469
143.215
143.003
470.885
44.6742
35.4537
27.5301
28.753
36.8983
46.7538
57.2979
67.4659
79.9606
96.3444
116.452
138.474
163.364
190.732
217.982
242.278
264.4
285.533
305.217
322.348
337.058
348.497
352.302
0.434678
0.418877
0.304421
0.370814
3.17382
6.02055
7.41799
8.50278
11.444
16.8846
24.7201
34.6761
50.8669
71.9988
97.2767
122.341
145.166
166.752
187.495
205.792
222.413
239.372
261.484
0.183836
0.141899
0.0627504
0.0116596
0.0487402
0.0143537
-0.0379418
-0.0659809
-0.0717665
-0.087766
-0.106139
0.353149
3.31829
9.68558
19.9925
33.2689
47.518
62.3416
77.7916
92.7503
105.918
118.354
133.044
0.0385341
-0.000538174
-0.13511
-0.203173
-0.146302
-0.177819
-0.2383
-0.26254
-0.250035
-0.227056
-0.195069
-0.128832
-0.0934848
-0.061542
0.0194607
0.623175
2.60529
5.58135
12.3232
19.5642
24.6152
29.6467
36.6212
-0.136962
-0.148502
-0.22973
-0.248375
-0.238231
-0.285688
-0.330973
-0.35386
-0.359968
-0.353523
-0.333215
-0.302916
-0.269019
-0.217742
-0.170976
-0.127835
-0.0895171
-0.048055
-0.00783726
0.0795085
0.198302
0.265542
0.494073
-0.323938
-0.334856
-0.365858
-0.400065
-0.413475
-0.427211
-0.445248
-0.45556
-0.457274
-0.449381
-0.424274
-0.398733
-0.371815
-0.343173
-0.316053
-0.291489
-0.260166
-0.216104
-0.159767
-0.0694744
0.0452945
0.186114
0.386481
-0.493447
-0.502283
-0.518628
-0.538838
-0.549373
-0.563412
-0.576218
-0.584656
-0.586642
-0.579797
-0.565781
-0.546342
-0.520999
-0.490602
-0.458557
-0.424257
-0.387572
-0.347271
-0.299421
-0.235044
-0.14727
-0.0423924
0.059557
-0.654129
-0.660736
-0.670234
-0.682491
-0.69122
-0.700635
-0.708044
-0.71094
-0.708143
-0.700063
-0.686173
-0.669236
-0.648949
-0.63137
-0.604192
-0.575951
-0.544817
-0.509049
-0.467388
-0.420175
-0.366398
-0.296184
-0.217237
-0.811537
-0.815415
-0.821036
-0.82896
-0.835223
-0.840849
-0.844853
-0.846227
-0.844312
-0.838382
-0.827921
-0.813114
-0.793779
-0.773413
-0.749745
-0.724231
-0.696767
-0.666821
-0.634755
-0.602876
-0.572433
-0.548713
-0.551774
-0.965197
-0.967543
-0.970885
-0.97577
-0.979692
-0.982979
-0.984758
-0.984347
-0.980974
-0.974298
-0.964595
-0.951775
-0.936297
-0.918586
-0.898631
-0.877082
-0.85401
-0.829827
-0.806292
-0.785823
-0.769728
-0.772787
-0.820191
-1.11668
-1.1181
-1.12001
-1.12283
-1.125
-1.12658
-1.12685
-1.12531
-1.12153
-1.11532
-1.10655
-1.09517
-1.08163
-1.06642
-1.04964
-1.03169
-1.01287
-0.993989
-0.977391
-0.965291
-0.961215
-0.980848
-1.0157
-1.26678
-1.26763
-1.26866
-1.27016
-1.27115
-1.2716
-1.27094
-1.26884
-1.26495
-1.2591
-1.25125
-1.24151
-1.22985
-1.21698
-1.20299
-1.18815
-1.17286
-1.15814
-1.14623
-1.13954
-1.14473
-1.17636
-1.21556
-1.41608
-1.41658
-1.41707
-1.41776
-1.41802
-1.41777
-1.41662
-1.41429
-1.41057
-1.4053
-1.3985
-1.39024
-1.38067
-1.36966
-1.35822
-1.3461
-1.33377
-1.32213
-1.31274
-1.30819
-1.31662
-1.34878
-1.39525
-1.56497
-1.56524
-1.56539
-1.56567
-1.56548
-1.5649
-1.56355
-1.56129
-1.55794
-1.55342
-1.54772
-1.54091
-1.53314
-1.52464
-1.51514
-1.50543
-1.49576
-1.48665
-1.47892
-1.47441
-1.47889
-1.49883
-1.53084
-1.71368
-1.71377
-1.71384
-1.71383
-1.71348
-1.71277
-1.71147
-1.70947
-1.70665
-1.70295
-1.69839
-1.69301
-1.68695
-1.68032
-1.67322
-1.66601
-1.65899
-1.65261
-1.64737
-1.64438
-1.64664
-1.65689
-1.67232
-1.86233
-1.86236
-1.86239
-1.86227
-1.86191
-1.86124
-1.86015
-1.85854
-1.85634
-1.85353
-1.85012
-1.84617
-1.84178
-1.83709
-1.83226
-1.82755
-1.82326
-1.81981
-1.8177
-1.81764
-1.82103
-1.82947
-1.84352
-2.011
-2.01103
-2.01105
-2.01094
-2.01067
-2.01017
-2.00939
-2.00826
-2.00675
-2.00485
-2.0026
-2.00005
-1.99731
-1.99453
-1.99188
-1.98962
-1.98805
-1.98756
-1.98865
-1.99206
-1.99859
-2.00933
-2.02616
-2.1597
-2.15976
-2.15981
-2.15979
-2.15967
-2.15943
-2.15902
-2.15843
-2.15763
-2.15665
-2.15553
-2.15434
-2.1532
-2.15226
-2.15171
-2.15182
-2.15291
-2.15538
-2.15976
-2.16678
-2.17731
-2.19236
-2.21362
-2.30842
-2.30852
-2.30863
-2.30873
-2.30882
-2.30888
-2.30889
-2.30885
-2.30877
-2.30868
-2.30865
-2.30876
-2.30913
-2.30993
-2.31136
-2.31371
-2.3173
-2.32257
-2.33005
-2.34048
-2.35474
-2.37387
-2.3994
-2.45713
-2.45726
-2.45745
-2.45771
-2.45803
-2.4584
-2.45884
-2.45935
-2.45997
-2.46073
-2.46173
-2.46304
-2.46482
-2.46722
-2.47047
-2.47485
-2.48071
-2.48848
-2.49872
-2.51212
-2.52953
-2.55194
-2.58071
-2.60578
-2.60594
-2.60622
-2.60665
-2.6072
-2.60789
-2.60875
-2.60979
-2.61106
-2.61262
-2.61456
-2.61697
-2.62001
-2.62386
-2.62873
-2.6349
-2.64274
-2.65267
-2.66523
-2.68107
-2.701
-2.7259
-2.75693
-2.75431
-2.7545
-2.75488
-2.75546
-2.75624
-2.75725
-2.7585
-2.76003
-2.76191
-2.76418
-2.76696
-2.77035
-2.77451
-2.77961
-2.78587
-2.79358
-2.80308
-2.81478
-2.8292
-2.84693
-2.8687
-2.89531
-2.92773
-2.90267
-2.90289
-2.90335
-2.90409
-2.90509
-2.90638
-2.90799
-2.90996
-2.91237
-2.91528
-2.91878
-2.92302
-2.92812
-2.93428
-2.94171
-2.95068
-2.96151
-2.9746
-2.9904
-3.00948
-3.03247
-3.06005
-3.09306
-3.0508
-3.05105
-3.0516
-3.05247
-3.05366
-3.0552
-3.05712
-3.05948
-3.06235
-3.06579
-3.06991
-3.07484
-3.08073
-3.08774
-3.0961
-3.10605
-3.11789
-3.13198
-3.14875
-3.16867
-3.1923
-3.22024
-3.25315
-3.19867
-3.19894
-3.19956
-3.20055
-3.2019
-3.20365
-3.20584
-3.20852
-3.21176
-3.21564
-3.22026
-3.22574
-3.23223
-3.2399
-3.24895
-3.2596
-3.27214
-3.28689
-3.30421
-3.32453
-3.34832
-3.37607
-3.40833
-3.34623
-3.34652
-3.34719
-3.34829
-3.34976
-3.35168
-3.35408
-3.35702
-3.36055
-3.36476
-3.36976
-3.37565
-3.38258
-3.3907
-3.40021
-3.41132
-3.42426
-3.43934
-3.45686
-3.47719
-3.50072
-3.52784
-3.55901
-3.49345
-3.49376
-3.49446
-3.49563
-3.4972
-3.49925
-3.5018
-3.50492
-3.50866
-3.51311
-3.51836
-3.52452
-3.53173
-3.54013
-3.54989
-3.56121
-3.5743
-3.58941
-3.60682
-3.62682
-3.64974
-3.67589
-3.70561
-3.64029
-3.64063
-3.64133
-3.64255
-3.64418
-3.64631
-3.64897
-3.6522
-3.65607
-3.66066
-3.66605
-3.67235
-3.67969
-3.68819
-3.69801
-3.70933
-3.72233
-3.73723
-3.75425
-3.77364
-3.79566
-3.82056
-3.84858
-3.78671
-3.78712
-3.78777
-3.78904
-3.79069
-3.79286
-3.79557
-3.79885
-3.80278
-3.80741
-3.81284
-3.81916
-3.82649
-3.83494
-3.84465
-3.85577
-3.86847
-3.88293
-3.89933
-3.91789
-3.93878
-3.96222
-3.98836
-3.93271
-3.93321
-3.93377
-3.93507
-3.93671
-3.93889
-3.94159
-3.94487
-3.94877
-3.95337
-3.95874
-3.96497
-3.97217
-3.98043
-3.98988
-4.00064
-4.01286
-4.02669
-4.04229
-4.05981
-4.07941
-4.10124
-4.12537
-4.07827
-4.07884
-4.0793
-4.08064
-4.08224
-4.08439
-4.08704
-4.09025
-4.09407
-4.09856
-4.10379
-4.10983
-4.11678
-4.12473
-4.13379
-4.14405
-4.15565
-4.1687
-4.18334
-4.19968
-4.21783
-4.23795
-4.25999
-4.22342
-4.22403
-4.22439
-4.22576
-4.22727
-4.22937
-4.23193
-4.23503
-4.2387
-4.24301
-4.24802
-4.25379
-4.2604
-4.26794
-4.27648
-4.28613
-4.29698
-4.30913
-4.3227
-4.33778
-4.3543
-4.37263
-4.39262
-4.36816
-4.36878
-4.36903
-4.37043
-4.37184
-4.37385
-4.37628
-4.37922
-4.3827
-4.38677
-4.39149
-4.39691
-4.4031
-4.41013
-4.41807
-4.42701
-4.43701
-4.44817
-4.46054
-4.47422
-4.48922
-4.50567
-4.52353
-4.51248
-4.51299
-4.51341
-4.51469
-4.51598
-4.51787
-4.52013
-4.52287
-4.5261
-4.52988
-4.53425
-4.53925
-4.54495
-4.55141
-4.55867
-4.56681
-4.5759
-4.58598
-4.59711
-4.60935
-4.62273
-4.6373
-4.65303
-4.65645
-4.6569
-4.65736
-4.65853
-4.65971
-4.66146
-4.66351
-4.66602
-4.66897
-4.67241
-4.67637
-4.6809
-4.68605
-4.69186
-4.69839
-4.70568
-4.71378
-4.72273
-4.73258
-4.74336
-4.75508
-4.76778
-4.78142
-4.80012
-4.80048
-4.80096
-4.80201
-4.80306
-4.80464
-4.80648
-4.80871
-4.81134
-4.81439
-4.81791
-4.82192
-4.82647
-4.8316
-4.83734
-4.84373
-4.8508
-4.85859
-4.86713
-4.87643
-4.8865
-4.89736
-4.90894
-4.9435
-4.94377
-4.94423
-4.94516
-4.94607
-4.94746
-4.94905
-4.95099
-4.95326
-4.9559
-4.95894
-4.96239
-4.9663
-4.9707
-4.97561
-4.98106
-4.98708
-4.99369
-5.0009
-5.00874
-5.01718
-5.02623
-5.03583
-5.08665
-5.08684
-5.08726
-5.08804
-5.0888
-5.08998
-5.0913
-5.09292
-5.09481
-5.09701
-5.09953
-5.10239
-5.10564
-5.10927
-5.11332
-5.11781
-5.12276
-5.12817
-5.13406
-5.14044
-5.14728
-5.15459
-5.1623
-5.22964
-5.22974
-5.23011
-5.23072
-5.23134
-5.23228
-5.23331
-5.23459
-5.23609
-5.23781
-5.2398
-5.24205
-5.2446
-5.24745
-5.25062
-5.25413
-5.25798
-5.2622
-5.26677
-5.2717
-5.27697
-5.2826
-5.2885
-5.3725
-5.37251
-5.37281
-5.37325
-5.3737
-5.37439
-5.37513
-5.37606
-5.37714
-5.37838
-5.37981
-5.38143
-5.38326
-5.38531
-5.38759
-5.3901
-5.39286
-5.39587
-5.39913
-5.40264
-5.40639
-5.41036
-5.41452
-5.5152
-5.51517
-5.51538
-5.51564
-5.51591
-5.51633
-5.51678
-5.51734
-5.51799
-5.51874
-5.51961
-5.52059
-5.52169
-5.52292
-5.52429
-5.52581
-5.52747
-5.52927
-5.53123
-5.53333
-5.53556
-5.53793
-5.54039
-5.6578
-5.65775
-5.65784
-5.65793
-5.65801
-5.65816
-5.6583
-5.6585
-5.65871
-5.65897
-5.65925
-5.65958
-5.65995
-5.66036
-5.66082
-5.66133
-5.66188
-5.66248
-5.66313
-5.66383
-5.66458
-5.66536
-5.66618
328.538
340.992
360.395
365.637
272.81
278.351
284.496
290.56
143.301
151.129
161.829
175.795
42.6064
43.4436
45.0195
51.7986
2.92402
3.48804
2.38373
2.75451
0.447738
0.440074
0.424206
0.48815
0.160973
0.217502
0.167508
0.14279
-0.171824
-0.147898
-0.119634
-0.0706226
-0.56687
-0.546868
-0.497383
-0.426395
-0.851274
-0.839299
-0.806874
-0.746866
-1.02128
-1.01307
-0.990844
-0.943032
-1.21047
-1.20015
-1.1804
-1.14616
-1.4216
-1.42786
-1.42364
-1.40233
-1.55297
-1.57111
-1.58202
-1.58003
-1.68867
-1.70029
-1.71171
-1.72086
-1.85809
-1.86844
-1.88027
-1.89434
-2.04403
-2.05719
-2.07251
-2.09089
-2.23537
-2.25138
-2.26976
-2.29105
-2.42444
-2.4427
-2.46328
-2.4864
-2.60799
-2.6277
-2.64967
-2.67396
-2.78554
-2.80595
-2.8285
-2.85324
-2.95691
-2.9775
-3.00004
-3.02458
-3.12218
-3.14253
-3.16462
-3.18851
-3.2817
-3.30149
-3.32279
-3.34568
-3.43592
-3.45489
-3.47518
-3.49684
-3.58531
-3.60329
-3.62238
-3.64264
-3.73041
-3.74726
-3.76506
-3.78383
-3.87174
-3.88739
-3.90383
-3.92109
-4.00978
-4.02419
-4.03927
-4.05502
-4.14501
-4.15817
-4.17188
-4.18615
-4.27783
-4.28975
-4.30212
-4.31495
-4.40864
-4.41931
-4.43037
-4.4418
-4.53775
-4.5472
-4.55697
-4.56704
-4.66548
-4.67373
-4.68223
-4.69096
-4.79213
-4.79921
-4.80647
-4.8139
-4.91798
-4.92393
-4.93
-4.9362
-5.04328
-5.04815
-5.05311
-5.05815
-5.16824
-5.17211
-5.17603
-5.18001
-5.29301
-5.29594
-5.29891
-5.30191
-5.41768
-5.41973
-5.4218
-5.42389
-5.54226
-5.54348
-5.5447
-5.54593
-5.6668
-5.6672
-5.6676
-5.668
359.301
317.182
281.279
207.541
-50.838
-92.9589
84.1015
129.234
136.609
135.863
132.948
132.207
133.822
136.617
139.384
141.127
142.178
140.513
296.199
295.027
276.08
232.903
107.691
-131.197
-46.4628
88.3512
125.782
132.089
130.897
129.305
129.595
131.488
134.505
137.425
139.468
140.678
140.538
212.262
200.99
223.555
207.435
76.7952
-91.9258
75.0525
122.114
129.127
130.334
128.184
127.304
128.001
130.044
133.137
136.152
138.218
139.585
140.92
195.554
81.7399
127.879
168.715
91.9228
80.4515
133.502
135.338
133.047
131.327
128.023
126.743
127.372
129.485
132.56
135.411
137.346
138.888
144.657
216.363
5.57253
20.0089
97.4374
150.462
149.579
144.916
139.324
135.961
133.645
129.922
128.005
128.15
129.976
132.752
135.404
137.27
139.57
163.667
263.442
0.736819
1.56492
18.4226
157.924
163.581
150.827
141.263
137.914
135.858
133.051
131.117
130.634
131.319
133.03
135.561
138.328
142.591
203.188
333.723
0.183093
0.234203
1.31727
71.7489
152.738
154.467
142.996
139.033
137.919
136.527
135.116
134.159
133.167
132.65
133.903
138.975
149.798
234.083
406.995
0.0538357
0.188087
0.842898
14.2643
128.647
164.302
143.933
138.839
139.474
140.212
140.109
138.404
135.5
131.917
128.344
131.867
137.036
242.88
431.105
-0.285314
-0.168267
-0.301047
1.93234
44.8446
136.937
132.646
137.88
141.113
143.385
144.059
141.867
137.168
118.545
90.371
92.3934
80.9771
159.147
331.617
-0.60068
-0.475908
-0.516147
-0.580248
3.77372
39.3212
90.784
114.042
141.679
146.696
147.209
144.512
131.262
104.421
6.01851
-16.883
-9.26171
14.1975
136.293
-0.838282
-0.764724
-0.765484
-0.807966
-0.675178
4.24434
26.7162
44.0108
137.629
153.224
152.306
139.416
195.52
137.249
-13.4047
-40.7544
-29.5139
-9.57049
43.4417
-1.08106
-1.05403
-1.0433
-1.0105
-0.9887
-1.06098
0.627128
6.47445
104.198
153.476
162.789
154.204
144.686
102.992
-18.6956
-37.395
-16.4749
5.25976
49.0824
-1.35547
-1.32902
-1.2871
-1.2396
-1.34537
-1.5575
-1.47464
-2.82613
56.0848
135.915
114.863
40.4415
39.2322
38.4353
-31.6952
-44.7164
-7.73546
34.2224
71.9645
-1.56621
-1.57223
-1.56364
-1.5637
-1.75413
-2.22346
-3.45681
-7.38115
21.3399
51.0124
13.3933
8.13754
10.6349
7.02397
-51.7762
-64.7632
8.89963
69.5975
92.4978
-1.73557
-1.77669
-1.80245
-1.81273
-1.97881
-2.2109
-2.19636
-1.03849
9.7123
4.54901
-1.0021
0.752386
1.3115
-1.56343
-35.6839
-41.86
60.8104
125.349
119.629
-1.92005
-1.97047
-2.01712
-2.03806
-2.09151
-2.05156
-0.866221
-0.916466
-2.46219
-4.00573
-3.28233
-2.56868
-2.82056
-3.81365
-5.8754
20.2173
113.709
177.412
125.373
-2.12453
-2.18271
-2.25421
-2.33785
-2.49212
-2.81744
-3.16714
-3.51211
-4.11199
-4.29435
-4.38487
-4.4394
-4.70646
-4.98562
-5.24632
2.20452
81.0274
177.489
115.615
-2.33073
-2.39919
-2.48555
-2.60067
-2.78015
-3.03711
-3.24213
-3.45154
-3.87298
-4.40692
-4.90478
-5.29992
-5.52077
-5.54733
-5.33716
-4.00511
9.12112
72.3081
97.8847
-2.52934
-2.60385
-2.6952
-2.80998
-2.96319
-3.15976
-3.3648
-3.60706
-3.99676
-4.53841
-5.15543
-5.67446
-5.90081
-5.79754
-5.3833
-4.67356
-1.86001
8.36723
68.6147
-2.71866
-2.7953
-2.88714
-2.99703
-3.13202
-3.29846
-3.49797
-3.75445
-4.12946
-4.63772
-5.2214
-5.78375
-6.04322
-5.95018
-5.46412
-4.8611
-3.94375
-1.13955
48.2638
-2.89845
-2.97497
-3.06522
-3.1702
-3.29212
-3.44163
-3.62683
-3.87003
-4.21274
-4.6693
-5.19386
-5.692
-5.97515
-5.94333
-5.52297
-5.07545
-4.22961
-2.17211
6.93808
-3.06916
-3.14373
-3.23085
-3.3315
-3.439
-3.57544
-3.74192
-3.95708
-4.24969
-4.6302
-5.06681
-5.48988
-5.7584
-5.76451
-5.43087
-5.09857
-4.32864
-2.77268
-0.0348492
-3.23159
-3.30265
-3.38467
-3.47711
-3.57967
-3.70049
-3.84616
-4.02844
-4.26361
-4.55971
-4.89374
-5.21515
-5.42781
-5.44788
-5.22124
-4.99684
-4.52583
-2.90971
-1.42653
-3.38669
-3.45333
-3.52964
-3.61496
-3.70954
-3.81716
-3.94341
-4.09536
-4.27907
-4.49692
-4.72921
-4.93797
-5.06913
-5.06794
-4.92219
-4.7767
-4.41695
-2.69246
-0.60962
-3.53546
-3.59709
-3.66736
-3.7454
-3.83131
-3.92699
-4.03612
-4.16226
-4.30598
-4.4624
-4.61233
-4.72195
-4.76174
-4.70721
-4.58858
-4.47799
-4.38402
-4.11477
-6.1139
-3.67851
-3.73534
-3.79923
-3.86978
-3.94698
-4.03188
-4.12649
-4.23185
-4.34555
-4.45938
-4.55364
-4.59609
-4.56851
-4.46717
-4.35646
-4.18289
-3.87374
-5.14386
-6.10084
-3.81691
-3.86879
-3.92638
-3.98949
-4.05824
-4.13345
-4.2161
-4.30557
-4.39755
-4.48371
-4.54584
-4.55487
-4.49905
-4.39016
-4.31493
-4.15724
-3.71814
-4.89288
9.90692
-3.95136
-3.99833
-4.04985
-4.10572
-4.16631
-4.23291
-4.30572
-4.38329
-4.45997
-4.52881
-4.57525
-4.57445
-4.51981
-4.43961
-4.43243
-4.46992
-4.04306
-4.22297
-3.71593
-4.08252
-4.12476
-4.17052
-4.21952
-4.27211
-4.33001
-4.3955
-4.46383
-4.5285
-4.58594
-4.62522
-4.62526
-4.58084
-4.54142
-4.53206
-4.72038
-4.33318
-4.2099
-3.6554
-4.21097
-4.24874
-4.28921
-4.33198
-4.37735
-4.4277
-4.48572
-4.54474
-4.59789
-4.64581
-4.67909
-4.68126
-4.64195
-4.64039
-4.61172
-4.76862
-4.33804
-4.1013
-3.73357
-4.33719
-4.37078
-4.40646
-4.44381
-4.48268
-4.52533
-4.57561
-4.62483
-4.66542
-4.70356
-4.72727
-4.72671
-4.68769
-4.70254
-4.73008
-4.75167
-4.50609
-4.10118
-3.3534
-4.46156
-4.49122
-4.52254
-4.55516
-4.58841
-4.62318
-4.66459
-4.70402
-4.73754
-4.75947
-4.76916
-4.75893
-4.71354
-4.69977
-4.73597
-4.76553
-4.68278
-4.60686
-5.66851
-4.58439
-4.61029
-4.63752
-4.66584
-4.6946
-4.72323
-4.75247
-4.77927
-4.79976
-4.81161
-4.80963
-4.78687
-4.73721
-4.68114
-4.67801
-4.72442
-4.68009
-5.21136
-7.95919
-4.70598
-4.72824
-4.75151
-4.7756
-4.80026
-4.82343
-4.84335
-4.8585
-4.86491
-4.86837
-4.86166
-4.83888
-4.79284
-4.72637
-4.67199
-4.6726
-4.7206
-6.75894
-15.7302
-4.82665
-4.84539
-4.8648
-4.88459
-4.90452
-4.9234
-4.93894
-4.9471
-4.94661
-4.94349
-4.93593
-4.9207
-4.88451
-4.82475
-4.74668
-4.6794
-4.72593
-6.35172
16.4389
-4.94678
-4.96219
-4.97793
-4.99365
-5.00892
-5.02317
-5.03479
-5.04181
-5.04342
-5.03651
-5.0287
-5.01704
-4.99357
-4.95996
-4.92117
-4.90519
-5.00715
-4.96579
-4.21278
-5.06672
-5.07908
-5.0915
-5.10367
-5.11508
-5.12539
-5.13349
-5.13826
-5.13936
-5.13711
-5.13173
-5.1237
-5.11446
-5.11069
-5.12184
-5.20851
-5.3113
-6.03651
-4.15406
-5.18674
-5.19636
-5.20587
-5.21505
-5.22344
-5.23074
-5.23634
-5.23933
-5.24032
-5.24044
-5.23803
-5.23216
-5.22744
-5.23224
-5.24823
-5.31667
-5.34948
-5.72202
-4.82652
-5.30696
-5.31413
-5.32111
-5.32779
-5.33374
-5.33878
-5.34282
-5.34442
-5.34543
-5.34712
-5.34601
-5.3392
-5.33651
-5.34342
-5.35474
-5.39415
-5.35291
-5.57704
-3.66399
-5.4274
-5.43234
-5.43709
-5.4416
-5.44555
-5.44877
-5.4515
-5.45239
-5.4536
-5.45602
-5.45581
-5.45051
-5.45175
-5.46399
-5.48088
-5.54102
-5.55523
-5.74832
-5.81273
-5.54799
-5.55087
-5.55361
-5.5562
-5.55842
-5.56022
-5.56173
-5.56264
-5.56417
-5.56665
-5.56745
-5.56595
-5.57137
-5.58706
-5.61054
-5.67064
-5.68688
-5.85324
-5.84958
-5.66867
-5.66961
-5.67049
-5.67131
-5.67203
-5.67269
-5.67339
-5.6739
-5.67562
-5.67792
-5.6797
-5.68225
-5.69194
-5.70906
-5.73884
-5.78006
-5.79865
-5.94784
-5.87312
)
;

boundaryField
{
    leftWall
    {
        type            calculated;
        value           nonuniform List<scalar> 
50
(
524.967
465.956
406.318
346.704
287.67
229.374
171.576
113.668
44.6742
0.434678
0.183836
0.0385341
-0.136962
-0.323938
-0.493447
-0.654129
-0.811537
-0.965197
-1.11668
-1.26678
-1.41608
-1.56497
-1.71368
-1.86233
-2.011
-2.1597
-2.30842
-2.45713
-2.60578
-2.75431
-2.90267
-3.0508
-3.19867
-3.34623
-3.49345
-3.64029
-3.78671
-3.93271
-4.07827
-4.22342
-4.36816
-4.51248
-4.65645
-4.80012
-4.9435
-5.08665
-5.22964
-5.3725
-5.5152
-5.6578
)
;
    }
    rightWall
    {
        type            calculated;
        value           nonuniform List<scalar> 
50
(
1409.08
1338.95
1243.17
1124.5
991.427
834.442
648.186
470.885
296.199
212.262
195.554
216.363
263.442
333.723
406.995
431.105
331.617
136.293
43.4417
49.0824
71.9645
92.4978
119.629
125.373
115.615
97.8847
68.6147
48.2638
6.93808
-0.0348492
-1.42653
-0.60962
-6.1139
-6.10084
9.90692
-3.71593
-3.6554
-3.73357
-3.3534
-5.66851
-7.95919
-15.7302
16.4389
-4.21278
-4.15406
-4.82652
-3.66399
-5.81273
-5.84958
-5.87312
)
;
    }
    lowerWall
    {
        type            calculated;
        value           nonuniform List<scalar> 
62
(
554.396
552.179
552.983
557.424
566.8
581.111
598.146
614.563
630.148
646.433
664.498
684.364
705.569
727.588
749.856
771.712
792.271
809.221
822.278
826.57
823.962
836.506
871.102
841.681
777.27
715.512
661.137
613.141
567.024
513.362
460.165
391.135
403.589
422.993
428.235
739.013
710.512
655.164
590.1
530.207
479.266
440.928
377.262
744.363
740.295
933.378
1259.44
1304.3
1203.7
1217.73
809.333
388.598
247.931
220.4
221.9
236.284
256.294
268.711
385.912
847.853
1412.18
1434.75
)
;
    }
    atmosphere
    {
        type            calculated;
        value           nonuniform List<scalar> 
46
(
-5.72904
-5.72904
-5.72904
-5.72904
-5.72904
-5.72904
-5.72904
-5.72904
-5.72904
-5.72904
-5.72904
-5.72904
-5.72904
-5.72904
-5.72904
-5.72904
-5.72904
-5.72904
-5.72904
-5.72904
-5.72904
-5.72904
-5.72904
-5.72904
-5.72904
-5.72904
-5.72904
-5.72904
-5.72904
-5.72904
-5.72904
-5.72904
-5.72904
-5.72904
-5.72955
-5.73168
-5.73387
-5.73547
-5.73966
-5.75308
-5.77001
-5.80599
-5.83304
-5.84705
-6.08783
-5.77282
)
;
    }
    defaultFaces
    {
        type            empty;
    }
}


// ************************************************************************* //
