/*--------------------------------*- C++ -*----------------------------------*\
| =========                 |                                                 |
| \\      /  F ield         | OpenFOAM: The Open Source CFD Toolbox           |
|  \\    /   O peration     | Version:  5.x                                   |
|   \\  /    A nd           | Web:      www.OpenFOAM.org                      |
|    \\/     M anipulation  |                                                 |
\*---------------------------------------------------------------------------*/
FoamFile
{
    version     2.0;
    format      ascii;
    class       volScalarField;
    location    "0.6";
    object      p_rgh;
}
// * * * * * * * * * * * * * * * * * * * * * * * * * * * * * * * * * * * * * //

dimensions      [1 -1 -2 0 0 0 0];

internalField   nonuniform List<scalar> 
2268
(
554.396
552.179
552.983
557.424
566.8
581.111
598.146
614.563
630.148
646.433
664.498
684.364
705.569
727.588
749.856
771.712
792.271
809.221
822.278
826.57
823.962
836.506
871.102
554.244
551.392
551.975
556.244
565.423
579.774
597.221
613.895
629.597
645.944
663.967
683.807
705.072
727.174
749.496
771.44
792.172
809.916
825.001
829.239
814.896
824.193
865.377
553.465
550.045
550.332
554.05
562.722
577.107
595.326
612.581
628.539
645.017
663.2
683.201
704.582
726.768
749.083
770.832
791.308
809.745
825.239
839.793
811.365
815.333
862.566
552.71
548.516
548.128
550.984
558.751
573.197
592.436
610.712
627.098
643.761
662.101
682.292
703.89
726.32
748.832
770.642
791.068
809.721
825.278
838.671
815.309
819.047
867.143
552.534
547.18
545.678
547.21
553.842
568.552
589.015
608.454
625.344
642.256
660.77
681.155
703.041
725.862
748.759
770.831
791.47
810.378
826.376
839.776
840.942
841.326
878.004
553.097
546.66
543.188
543.727
549.69
564.747
585.914
605.908
623.163
640.412
659.228
679.816
702.031
725.377
748.847
771.318
792.291
811.623
828.441
842.879
851.973
857.966
890.747
554.157
547.597
542.939
542.425
547.83
562.621
583.227
602.79
620.28
638.015
657.259
678.207
700.907
724.986
749.217
772.152
793.485
813.288
830.958
846.394
858.786
868.57
895.944
555.109
545.002
531.073
526.112
531.356
551.066
579.165
598.252
616.453
635.747
654.904
676.158
699.4
724.382
749.688
773.272
795.046
815.428
833.889
850.106
864.29
878.631
901.605
744.363
740.295
933.378
1259.44
1304.3
1203.7
1217.73
809.333
388.598
247.931
220.4
221.9
236.284
256.294
268.711
385.912
847.853
1412.18
1434.75
741.259
713.696
859.292
1181.69
1210.88
1131.8
1111.44
481.159
194.548
163.591
171.72
176.39
185.853
200.883
221.696
313.935
715.666
1343.37
1427.23
741.342
709.546
822.266
1089.92
1079.27
1032.53
834.296
226.367
159.238
146.933
142.272
139.846
140.893
143.972
146.266
169.314
368.661
1080.34
1390.32
756.39
685.379
792.422
996.525
928.459
786.328
403.142
175.91
153.42
145.998
141.76
139.67
140.672
143.281
144.962
149.654
210.931
666.68
1330.51
794.639
677.431
768.231
913.365
786.134
564.439
215.142
158.792
150.26
144.978
140.892
139.055
140.189
142.739
144.367
146.315
170.32
373.688
1256.29
802.989
689.62
754.498
846.277
664.413
473.543
244.221
154.888
147.747
143.75
139.827
138.359
139.585
142.163
143.811
144.808
152.589
247.062
1158.16
823.51
725.947
756.866
797.2
572.222
480.454
423.987
155.385
144.976
142.155
138.46
137.177
138.42
141.098
143.089
143.842
145.279
200.13
1030.77
818.703
772.507
774.524
766.784
497.051
424.19
436.311
146.828
141.879
140.198
136.827
135.777
137.057
139.72
142.186
143.004
143.749
193.231
899.605
415.774
335.105
268.803
260.892
281.653
334.191
415.225
488.432
546.865
599.458
644.903
671.941
696.831
724.199
751.449
775.745
797.867
819
838.684
855.815
870.525
881.964
885.769
1.09334
1.07754
0.967003
4.58925
38.1377
70.546
85.5289
98.0993
132.753
195.512
285.626
390.121
501.434
636.053
753.533
781.003
803.828
825.414
846.157
864.454
881.075
898.033
920.145
0.967692
0.925815
0.846606
0.795516
0.832596
0.79821
0.745915
0.717876
0.712091
0.696092
0.677734
3.94867
49.0277
134.081
270.563
434.765
557.745
703.436
826.349
863.602
881.533
898.824
916.745
0.947585
0.908513
0.773941
0.705878
0.762748
0.731232
0.670751
0.646511
0.659017
0.681997
0.713984
0.780233
0.815828
0.849317
0.931806
10.9471
42.163
86.928
192.869
302.145
378.193
458.327
562.413
0.897283
0.885743
0.804516
0.78587
0.796014
0.748557
0.703272
0.680385
0.67428
0.680727
0.701033
0.731333
0.766905
0.819333
0.866809
0.909667
0.947906
0.989275
1.02959
1.11705
1.23637
1.30862
1.55081
0.835502
0.824584
0.793582
0.759375
0.745965
0.732228
0.714192
0.70388
0.702202
0.710268
0.735351
0.760755
0.787686
0.840962
0.868189
0.882481
0.90293
0.946731
1.00444
1.11599
1.24009
1.37964
1.5814
0.791187
0.782352
0.766006
0.745797
0.735261
0.721223
0.708416
0.699978
0.698029
0.705121
0.719137
0.738577
0.7638
0.794068
0.826112
0.86038
0.900527
0.938389
0.986328
1.11956
1.36687
1.53196
1.61336
0.755699
0.749093
0.739595
0.727338
0.718608
0.709194
0.701785
0.698889
0.701689
0.709847
0.723865
0.74063
0.761462
0.780059
0.805958
0.833881
0.865014
0.900783
0.94411
1.01386
1.13197
1.555
1.69765
0.723486
0.719609
0.713988
0.706064
0.699801
0.694174
0.69017
0.688797
0.690712
0.696641
0.707102
0.721909
0.74226
0.76343
0.786005
0.810795
0.838291
0.868794
0.906795
0.932245
0.962687
1.22776
1.53319
0.695021
0.692675
0.689333
0.684448
0.680525
0.677239
0.67546
0.675871
0.679244
0.68592
0.695623
0.708443
0.723922
0.742774
0.761637
0.783139
0.806329
0.830894
0.854342
0.874481
0.892889
1.25764
1.43473
0.668734
0.667315
0.6654
0.662583
0.660417
0.658831
0.658567
0.660106
0.663885
0.670097
0.678858
0.69024
0.703778
0.718993
0.73577
0.753729
0.772582
0.791424
0.808022
0.820123
0.828231
1.16785
1.40822
0.643823
0.642974
0.641947
0.640447
0.639453
0.639008
0.639663
0.641771
0.645658
0.651506
0.659362
0.669101
0.680761
0.693628
0.707615
0.722452
0.737744
0.752464
0.764375
0.771069
0.76588
0.774033
1.19209
0.619723
0.61922
0.618729
0.618037
0.617786
0.618027
0.619184
0.621508
0.625236
0.630501
0.637304
0.645558
0.655134
0.666143
0.677582
0.689701
0.702027
0.713674
0.723062
0.727615
0.719177
0.687021
0.640561
0.596028
0.595753
0.59561
0.595324
0.595512
0.596098
0.597443
0.599704
0.603052
0.607577
0.613278
0.620082
0.627851
0.636354
0.645854
0.655566
0.665238
0.674346
0.682076
0.686587
0.682107
0.662163
0.630162
0.572515
0.572417
0.572347
0.572358
0.572707
0.573423
0.574719
0.576723
0.579543
0.583238
0.587803
0.593176
0.599245
0.605871
0.612966
0.620177
0.627201
0.633576
0.638819
0.64181
0.63955
0.6293
0.613875
0.549051
0.549028
0.548995
0.549114
0.549479
0.550144
0.551236
0.552846
0.555042
0.557853
0.561263
0.565213
0.569601
0.574291
0.579122
0.583836
0.588124
0.591578
0.593688
0.59374
0.590356
0.581911
0.567865
0.525576
0.525554
0.525528
0.525636
0.525914
0.526406
0.527187
0.528317
0.529828
0.531726
0.533982
0.536531
0.539267
0.54205
0.544696
0.546959
0.54853
0.549024
0.547926
0.544521
0.53799
0.527246
0.510416
0.502076
0.502015
0.501962
0.501986
0.502105
0.502345
0.502749
0.503346
0.504143
0.505125
0.506248
0.507436
0.508576
0.509516
0.510059
0.509949
0.508863
0.506397
0.502019
0.494995
0.484462
0.469419
0.448152
0.478546
0.478453
0.478338
0.478234
0.478149
0.478091
0.478081
0.478122
0.478203
0.478289
0.478322
0.478212
0.477838
0.477038
0.475604
0.473263
0.46967
0.464402
0.456914
0.446486
0.432231
0.413098
0.387566
0.455029
0.454904
0.454709
0.454451
0.454137
0.45376
0.453324
0.452813
0.452197
0.451429
0.450437
0.44912
0.447345
0.444941
0.441692
0.437316
0.431457
0.42368
0.41344
0.400038
0.38263
0.360222
0.331458
0.431575
0.431419
0.431134
0.430712
0.430162
0.429464
0.428609
0.427568
0.426296
0.424735
0.422801
0.420385
0.417343
0.413499
0.408631
0.402457
0.39462
0.384689
0.372131
0.356284
0.336359
0.311457
0.280426
0.408241
0.408051
0.407676
0.40709
0.406309
0.405304
0.404054
0.402519
0.400647
0.398369
0.395592
0.3922
0.388044
0.382945
0.37668
0.368969
0.359471
0.347768
0.333355
0.315621
0.293852
0.267243
0.234821
0.385079
0.384857
0.384394
0.383654
0.382658
0.381369
0.379761
0.377783
0.375379
0.372471
0.368962
0.36473
0.359625
0.353467
0.346037
0.337068
0.326236
0.31315
0.297343
0.278264
0.255279
0.227693
0.194686
0.362138
0.361889
0.361346
0.360466
0.359279
0.357741
0.355818
0.353457
0.350595
0.347152
0.343027
0.338097
0.332214
0.325199
0.316843
0.306895
0.295054
0.280961
0.264196
0.244271
0.220638
0.192704
0.159793
0.339463
0.339194
0.33858
0.337581
0.336232
0.334482
0.332294
0.329614
0.326376
0.322497
0.317876
0.312393
0.305903
0.298234
0.289189
0.278534
0.265996
0.251251
0.233926
0.213603
0.189813
0.162063
0.129804
0.317096
0.31681
0.316143
0.315044
0.313567
0.311647
0.309248
0.306315
0.302783
0.298569
0.293575
0.287683
0.280755
0.272629
0.26312
0.252015
0.239069
0.223995
0.206471
0.18614
0.162613
0.135486
0.104325
0.295073
0.294769
0.29407
0.292898
0.291327
0.289279
0.286724
0.283607
0.279865
0.275416
0.270166
0.264004
0.256799
0.248399
0.238637
0.227319
0.214228
0.199115
0.181707
0.161704
0.138789
0.112638
0.0829185
0.273429
0.273093
0.272392
0.271169
0.26954
0.267408
0.264752
0.261519
0.257647
0.253059
0.247667
0.241365
0.234031
0.225529
0.215705
0.204389
0.191389
0.176494
0.159472
0.14008
0.11806
0.0931619
0.0651393
0.252201
0.251794
0.251139
0.249878
0.248226
0.246052
0.243348
0.240063
0.236138
0.231503
0.226074
0.219752
0.212427
0.203976
0.194263
0.183139
0.17044
0.155983
0.139579
0.121028
0.100129
0.0766927
0.0505496
0.231403
0.230902
0.230338
0.229039
0.227398
0.22522
0.222519
0.219243
0.215338
0.210738
0.205367
0.199134
0.191941
0.18368
0.174232
0.163467
0.151245
0.137414
0.121818
0.104297
0.0846973
0.0628708
0.0387337
0.21103
0.21046
0.209998
0.208659
0.207066
0.204915
0.202263
0.199052
0.195232
0.190744
0.185516
0.17947
0.172519
0.164568
0.155517
0.145254
0.133657
0.120602
0.105964
0.089619
0.0714707
0.0513537
0.029311
0.191078
0.190472
0.190112
0.188738
0.187223
0.185129
0.18257
0.179472
0.175796
0.171486
0.166479
0.160706
0.154093
0.146558
0.138016
0.12837
0.11752
0.105364
0.0918022
0.07672
0.0601955
0.0418657
0.0218804
0.171535
0.170912
0.170663
0.169265
0.16785
0.165839
0.163413
0.160473
0.156994
0.152923
0.148205
0.142783
0.136591
0.12956
0.121618
0.112685
0.102681
0.0915267
0.0791491
0.065474
0.0504692
0.0340261
0.0161664
0.152411
0.151892
0.151476
0.1502
0.148911
0.147017
0.144758
0.142019
0.138782
0.135004
0.130638
0.125633
0.119933
0.113481
0.106215
0.0980723
0.0889907
0.0789112
0.0677762
0.0555373
0.0421567
0.0275902
0.0118567
0.133631
0.133184
0.13272
0.131547
0.130376
0.128625
0.126567
0.124062
0.121112
0.117675
0.113713
0.109179
0.10403
0.098217
0.0916896
0.0843994
0.0763
0.0673469
0.057498
0.0467234
0.0349979
0.0223006
0.00866538
0.11516
0.114796
0.114321
0.113264
0.112215
0.110631
0.1088
0.106563
0.103936
0.100881
0.0973649
0.0933509
0.088801
0.0836754
0.0779364
0.0715476
0.0644735
0.0566837
0.0481452
0.0388436
0.0287712
0.0179198
0.00633581
0.0969727
0.0966971
0.0962353
0.0953118
0.0943977
0.0930056
0.0914221
0.0894804
0.087207
0.0845677
0.0815351
0.078079
0.0741683
0.0697719
0.0648604
0.0594078
0.0533887
0.0467821
0.0395701
0.0317309
0.023291
0.0142414
0.00463732
0.0790181
0.0788278
0.0784049
0.077629
0.07686
0.0756831
0.0743658
0.0727442
0.0708503
0.0686558
0.0661367
0.0632696
0.0600284
0.056393
0.0523401
0.0478499
0.0429071
0.0374937
0.0316035
0.0252271
0.0183813
0.011077
0.00336632
0.0612204
0.0611196
0.0607539
0.0601393
0.059524
0.0585812
0.0575493
0.0562643
0.0547734
0.0530456
0.0510636
0.0488091
0.0462638
0.0434119
0.0402409
0.0367325
0.0328769
0.0286628
0.0240907
0.0191603
0.0138859
0.00825893
0.0023632
0.0435522
0.0435402
0.0432434
0.0428012
0.0423565
0.0416664
0.0409244
0.0399934
0.0389182
0.0376727
0.0362445
0.0346217
0.0327913
0.0307422
0.0284653
0.025951
0.0231894
0.0201806
0.0169196
0.0134118
0.00966793
0.0056926
0.00153844
0.0260433
0.0260777
0.0258681
0.0256043
0.0253402
0.0249183
0.0244724
0.0239067
0.0232569
0.0225035
0.0216413
0.0206629
0.0195605
0.0183268
0.0169547
0.0154417
0.0137815
0.0119772
0.010022
0.00792104
0.00568545
0.0033209
0.000856954
0.00864001
0.00869016
0.00860315
0.00851537
0.00843001
0.00828536
0.00813871
0.007947
0.00772985
0.00747687
0.00718861
0.00686116
0.0064923
0.00607961
0.00562085
0.00511546
0.00456142
0.00395985
0.0033083
0.00260869
0.00186516
0.00108023
0.000262867
862.005
874.459
893.862
899.105
931.471
937.013
943.158
949.222
927.141
934.963
945.651
959.596
638.446
667.478
656.077
610.321
55.7723
65.0682
33.6998
20.3528
1.64266
1.6457
1.6446
1.68506
1.54778
1.56682
1.49987
1.4547
1.74306
1.70384
1.33756
1.36667
1.51643
1.16196
1.06754
1.13801
1.15305
0.872364
0.912226
0.95067
1.05127
0.817663
0.83655
0.877625
1.31557
1.32702
1.34439
1.36262
0.615998
0.675917
0.83522
0.961028
0.608243
0.590254
0.579552
0.582446
0.597519
0.585897
0.574489
0.565339
0.553291
0.542943
0.531111
0.517046
0.492551
0.479387
0.464066
0.445687
0.426401
0.410392
0.392017
0.370726
0.362527
0.344265
0.323691
0.300571
0.30417
0.28446
0.262499
0.238201
0.251823
0.231406
0.208862
0.184122
0.205645
0.185052
0.162517
0.137969
0.165565
0.145213
0.123129
0.0992422
0.131239
0.111453
0.090151
0.0672659
0.102218
0.0832426
0.0629544
0.041294
0.078017
0.0600404
0.0409467
0.0206952
0.0581123
0.0412599
0.0234632
0.00469137
0.0419832
0.0263314
0.00988816
-0.00737315
0.0291338
0.0147219
-0.000354326
-0.0161065
0.0191032
0.0059401
-0.00777487
-0.0220443
0.0114716
-0.000445106
-0.0128196
-0.0256472
0.00585974
-0.00481692
-0.0158763
-0.0273064
0.00194235
-0.0075123
-0.017279
-0.0273469
-0.00059598
-0.00884756
-0.0173423
-0.0260758
-0.00205205
-0.00912843
-0.0163843
-0.0238202
-0.00270522
-0.00865207
-0.0147235
-0.0209195
-0.00280802
-0.00768453
-0.0126425
-0.0176793
-0.00257096
-0.00644417
-0.0103696
-0.0143419
-0.00214936
-0.00508516
-0.00805279
-0.0110468
-0.00162321
-0.00367692
-0.00574959
-0.00783636
-0.00101358
-0.00222949
-0.00345398
-0.00468185
-0.000356494
-0.000757305
-0.00115715
-0.00155737
892.767
850.648
814.745
741.005
250.065
166.651
179.859
133.179
137.204
136.493
133.995
133.283
134.54
137.313
140.12
141.769
142.799
211.207
808.05
953.685
934.734
891.561
766.314
23.5346
179.001
90.0541
127.388
132.82
131.66
130.568
130.275
132.173
135.198
138.129
140.19
141.405
351.575
857.979
983.18
1007.24
991.245
663.329
2.90203
262.325
123.29
129.991
131.19
129.3
128.456
128.811
130.862
133.968
136.993
139.078
140.455
512.907
976.334
583.792
853.922
1071.23
343.898
109.14
189.358
136.451
134.02
132.316
129.326
127.799
128.31
130.426
133.62
136.416
138.355
139.915
694.498
1125.4
56.8003
415.663
952.918
306.849
151.485
146.378
140.454
137.044
134.719
131.35
129.132
129.216
131.045
133.854
136.585
138.439
140.784
910.268
1297.69
2.15551
71.9642
522.953
580.222
165.458
152.148
142.482
139.117
137.058
134.256
132.311
131.828
132.515
134.259
136.92
139.688
212.475
1094.37
1493.16
1.50296
2.20529
317.323
749.072
463.714
155.921
144.344
140.362
139.243
137.847
136.436
135.478
134.498
134.222
135.777
140.658
272.942
1224.07
1607.76
1.4907
1.6366
72.7073
764.551
921.664
344.896
145.529
140.318
140.932
141.664
141.558
139.853
137.048
135.243
136.2
134.684
458.027
1368.57
1619.1
1.27857
1.39619
1.36289
157.326
891.865
981.323
457.379
139.968
142.777
144.983
145.64
143.505
139.81
418.829
792.531
529.805
806.993
1382.46
1568.39
1.09075
1.21552
1.18077
1.32527
231.315
897.958
947.613
619.04
171.621
148.508
148.979
147.213
636.652
1438.46
1406.92
1101.43
298.384
542.961
1230.19
0.980698
1.30147
1.55051
1.01819
1.27874
233.963
846.098
871.008
406.883
157.265
181.471
682.057
1690.77
1643.79
1497.37
218.258
181.333
211.636
1316.15
1.41766
1.43661
1.15892
0.914246
0.949878
1.02996
102.058
688.714
1111.36
607.003
1241.58
1497.93
1375.5
1672.35
1685.51
955.356
209.157
377.487
1632.38
1.04539
0.894448
0.759877
0.809767
0.7055
0.506136
0.805709
439.722
1151.98
1260.93
1260.8
549.531
61.7955
747.679
1892.42
1868.22
815.758
1139.29
2022.4
0.596775
0.589978
0.606756
0.609158
0.432157
0.197119
83.3616
935.392
1179.64
1214.31
502.713
12.1079
18.6841
293.77
2008.61
2068.44
2127.55
2064.1
2253.49
0.550656
0.509842
0.485107
0.485088
0.466221
1.87429
233.243
1001.74
1164.01
407.244
2.41584
3.55973
5.27584
53.2369
1206.99
2215.63
2318.3
2382.85
2360.28
0.491335
0.440958
0.394571
0.378143
0.404866
13.7892
97.7684
146.817
124.13
-0.398893
-0.751216
-0.112584
-0.150229
0.705816
329.32
1932.46
2494.82
2371.27
1853.73
0.412055
0.35387
0.282406
0.20093
0.244615
0.891339
-0.148478
-0.795569
-1.21497
-1.63213
-1.83671
-1.90121
-2.16276
-2.39018
-2.09895
170.067
1594.38
2434.9
1793.67
0.331048
0.262586
0.176234
0.0612179
-0.109433
-0.372659
-0.576085
-0.77476
-1.17665
-1.73258
-2.24185
-2.63803
-2.85864
-2.87813
-2.60046
-0.693559
17.4306
1270.47
2331.35
0.25763
0.183124
0.0917682
-0.0230043
-0.176179
-0.372602
-0.57745
-0.818329
-1.20587
-1.75018
-2.3683
-2.88741
-3.11373
-3.00989
-2.5878
-1.80861
1.66339
200.309
1815.86
0.193507
0.116867
0.0250269
-0.0848606
-0.219846
-0.386282
-0.585769
-0.842136
-1.21687
-1.72538
-2.30918
-2.87152
-3.13103
-3.01953
-2.47125
-1.83388
-0.692456
126.628
1680.08
0.138912
0.062389
-0.0278552
-0.132837
-0.254753
-0.40426
-0.589458
-0.832636
-1.17532
-1.63188
-2.15646
-2.65458
-2.93776
-2.84844
-1.87536
-1.33676
1.08181
27.7803
184.701
0.0933903
0.0188222
-0.0682906
-0.168933
-0.276411
-0.412872
-0.579344
-0.794506
-1.0871
-1.46761
-1.90423
-2.32724
-2.59582
-2.58785
-1.98288
-0.900349
12.7077
1.43828
3.1277
0.0561583
-0.0149018
-0.0969174
-0.189356
-0.290825
-0.410557
-0.557362
-0.74066
-0.975828
-1.27193
-1.60596
-1.92732
-2.14004
-2.1565
-1.93276
-1.60255
13.4285
6.42019
1.86122
0.0262545
-0.040388
-0.116693
-0.202013
-0.295593
-0.401889
-0.528142
-0.681441
-0.866099
-1.08395
-1.31624
-1.525
-1.65616
-1.65443
-1.50859
-1.36301
14.3861
17.3442
2.8045
0.00267998
-0.0589544
-0.129222
-0.207267
-0.293063
-0.387686
-0.49558
-0.621736
-0.767438
-0.924235
-1.07416
-1.18378
-1.22357
-1.16777
-1.04972
-0.939072
7.05846
8.26062
600.623
-0.0151733
-0.0720094
-0.135893
-0.206448
-0.283653
-0.368544
-0.462298
-0.566056
-0.679968
-0.795941
-0.890278
-0.932727
-0.905142
-0.803251
-0.692516
6.54581
7.04755
6.65419
1413.8
-0.0283836
-0.0802612
-0.137854
-0.200963
-0.269715
-0.344842
-0.427449
-0.515485
-0.606721
-0.693223
-0.756127
-0.765919
-0.709789
-0.600884
-0.525697
15.2385
19.6044
26.0341
790.595
-0.0376432
-0.0846133
-0.136126
-0.192002
-0.252584
-0.319082
-0.391828
-0.469509
-0.544861
-0.613045
-0.659501
-0.658856
-0.60562
-0.507204
-0.517873
17.0862
25.2801
25.9722
0.19779
-0.0436103
-0.0858507
-0.131609
-0.180602
-0.233193
-0.291089
-0.356584
-0.424913
-0.489582
-0.546145
-0.584513
-0.585529
-0.541817
-0.486364
-0.395382
14.1532
15.403
6.03932
0.383511
-0.0468636
-0.0846354
-0.1251
-0.16787
-0.213233
-0.263587
-0.321605
-0.380627
-0.433778
-0.481696
-0.514902
-0.517087
-0.477756
-0.47617
1.67834
3.92865
5.76336
2.27476
0.430539
-0.0478839
-0.0814753
-0.117162
-0.15451
-0.193379
-0.236021
-0.286303
-0.335529
-0.376111
-0.414204
-0.437864
-0.437339
-0.30003
-0.412031
0.790425
-0.460789
-0.197165
1.1503
0.935899
-0.0470603
-0.076718
-0.108044
-0.140663
-0.173898
-0.208378
-0.249642
-0.289517
-0.323044
-0.344948
-0.354637
-0.343138
-0.171552
-0.253221
-0.320932
-0.349688
-0.266654
-0.133748
324.426
-0.0446983
-0.0705977
-0.0978268
-0.126151
-0.154907
-0.182802
-0.211123
-0.239173
-0.260061
-0.271914
-0.264295
-0.204708
-0.0877291
-0.11387
-0.138299
-0.184166
-0.137369
-0.210686
1701.91
-0.0410891
-0.0633493
-0.0866205
-0.110714
-0.13537
-0.158242
-0.176762
-0.19191
-0.199478
-0.203435
-0.190198
-0.135996
-0.114505
-0.0613222
-0.00709159
-0.00769966
6.016
90.5364
2492.76
-0.0365681
-0.0553101
-0.07472
-0.094511
-0.11444
-0.133321
-0.148528
-0.155515
-0.155024
-0.151954
-0.143729
-0.128462
-0.0941718
-0.0346639
0.043407
0.110444
20.2367
386.993
1493.68
-0.031505
-0.0469174
-0.062655
-0.0783746
-0.0936461
-0.107899
-0.119519
-0.126468
-0.127738
-0.120214
-0.112471
-0.101167
-0.0782389
-0.0446783
-0.00588949
0.0315895
54.8591
101.393
0.702496
-0.0262512
-0.0386102
-0.0510288
-0.0631968
-0.0746126
-0.0849238
-0.0930233
-0.0977948
-0.0988873
-0.0966257
-0.0912215
-0.0831944
-0.0739269
-0.0700794
-0.08136
1.13378
12.0544
-0.995919
5.01608
-0.0210744
-0.0306923
-0.0402077
-0.0493896
-0.0577704
-0.0650765
-0.0706762
-0.0736656
-0.0746602
-0.0747738
-0.0723521
-0.0664679
-0.0612558
-0.0662665
-0.0825478
-0.150987
-0.183797
-0.556288
155.525
-0.0161044
-0.0232671
-0.0302522
-0.0369259
-0.0428795
-0.0479182
-0.0519624
-0.053558
-0.0545678
-0.0562309
-0.0545672
-0.0477274
-0.0450503
-0.0524496
-0.063879
-0.103227
-0.0527558
-0.286058
190.675
-0.0113496
-0.0162853
-0.0210372
-0.0255509
-0.0294935
-0.0327127
-0.0354417
-0.0363319
-0.037547
-0.0398053
-0.0391774
-0.0339989
-0.0356915
-0.0479344
-0.0648287
-0.123434
-0.101865
-0.331606
-0.396677
-0.0067417
-0.00961905
-0.0123613
-0.0149506
-0.0171761
-0.0189695
-0.0204814
-0.0213931
-0.0229246
-0.0254023
-0.0262056
-0.0246985
-0.0301182
-0.0458075
-0.0692946
-0.127307
-0.145423
-0.311997
-0.308327
-0.00222944
-0.00316369
-0.00404417
-0.00487039
-0.00558811
-0.00624789
-0.00694522
-0.00746226
-0.0091813
-0.0114804
-0.0132619
-0.0158112
-0.0254984
-0.0426164
-0.0724016
-0.113617
-0.132209
-0.2814
-0.206678
)
;

boundaryField
{
    leftWall
    {
        type            fixedFluxPressure;
        gradient        uniform 0;
        value           nonuniform List<scalar> 
50
(
554.396
554.244
553.465
552.71
552.534
553.097
554.157
555.109
415.774
1.09334
0.967692
0.947585
0.897283
0.835502
0.791187
0.755699
0.723486
0.695021
0.668734
0.643823
0.619723
0.596028
0.572515
0.549051
0.525576
0.502076
0.478546
0.455029
0.431575
0.408241
0.385079
0.362138
0.339463
0.317096
0.295073
0.273429
0.252201
0.231403
0.21103
0.191078
0.171535
0.152411
0.133631
0.11516
0.0969727
0.0790181
0.0612204
0.0435522
0.0260433
0.00864001
)
;
    }
    rightWall
    {
        type            fixedFluxPressure;
        gradient        uniform 0;
        value           nonuniform List<scalar> 
50
(
1434.75
1427.23
1390.32
1330.51
1256.29
1158.16
1030.77
899.605
808.05
857.979
976.334
1125.4
1297.69
1493.16
1607.76
1619.1
1568.39
1230.19
1316.15
1632.38
2022.4
2253.49
2360.28
1853.73
1793.67
2331.35
1815.86
1680.08
184.701
3.1277
1.86122
2.8045
600.623
1413.8
790.595
0.19779
0.383511
0.430539
0.935899
324.426
1701.91
2492.76
1493.68
0.702496
5.01608
155.525
190.675
-0.396677
-0.308327
-0.206678
)
;
    }
    lowerWall
    {
        type            fixedFluxPressure;
        gradient        uniform 0;
        value           nonuniform List<scalar> 
62
(
554.396
552.179
552.983
557.424
566.8
581.111
598.146
614.563
630.148
646.433
664.498
684.364
705.569
727.588
749.856
771.712
792.271
809.221
822.278
826.57
823.962
836.506
871.102
871.102
865.377
862.566
867.143
878.004
890.747
895.944
901.605
862.005
874.459
893.862
899.105
744.363
741.259
741.342
756.39
794.639
802.989
823.51
818.703
744.363
740.295
933.378
1259.44
1304.3
1203.7
1217.73
809.333
388.598
247.931
220.4
221.9
236.284
256.294
268.711
385.912
847.853
1412.18
1434.75
)
;
    }
    atmosphere
    {
        type            totalPressure;
        rho             rho;
        psi             none;
        gamma           1;
        p0              uniform 0;
        value           nonuniform List<scalar> 
46
(
0
0
0
0
0
0
0
0
0
0
0
0
0
0
0
0
0
0
0
0
0
0
0
0
0
0
0
0
0
0
0
0
0
0
-0.000511061
-0.00263555
-0.00482899
-0.00642693
-0.0106248
-0.0240391
-0.0409717
-0.076948
-0.103995
-0.118006
-0.35879
-0.0437763
)
;
    }
    defaultFaces
    {
        type            empty;
    }
}


// ************************************************************************* //
