/*--------------------------------*- C++ -*----------------------------------*\
| =========                 |                                                 |
| \\      /  F ield         | OpenFOAM: The Open Source CFD Toolbox           |
|  \\    /   O peration     | Version:  5.x                                   |
|   \\  /    A nd           | Web:      www.OpenFOAM.org                      |
|    \\/     M anipulation  |                                                 |
\*---------------------------------------------------------------------------*/
FoamFile
{
    version     2.0;
    format      ascii;
    class       surfaceScalarField;
    location    "0.6";
    object      phi;
}
// * * * * * * * * * * * * * * * * * * * * * * * * * * * * * * * * * * * * * //

dimensions      [0 3 -1 0 0 0 0];

internalField   nonuniform List<scalar> 
4432
(
-3.16083e-06
3.16083e-06
-5.71432e-06
2.55349e-06
-6.10318e-06
3.88861e-07
-5.0884e-06
-1.01478e-06
-2.76963e-06
-2.31878e-06
8.35591e-07
-3.60522e-06
5.00508e-06
-4.16949e-06
8.67341e-06
-3.66833e-06
1.11663e-05
-2.49287e-06
1.2395e-05
-1.22868e-06
1.25391e-05
-1.44179e-07
1.17972e-05
7.41991e-07
1.03782e-05
1.41893e-06
8.40935e-06
1.96887e-06
5.83143e-06
2.57792e-06
2.3949e-06
3.43653e-06
-2.04692e-06
4.44183e-06
-6.57778e-06
4.53085e-06
-8.79027e-06
2.21249e-06
-1.34131e-05
4.62282e-06
-2.01299e-05
6.71678e-06
-1.58092e-05
-4.32063e-06
-1.58092e-05
-3.67552e-06
6.83635e-06
-5.45482e-06
4.33279e-06
-5.45226e-06
3.86303e-07
-4.6035e-06
-1.86354e-06
-2.57904e-06
-4.34324e-06
8.54807e-07
-7.03906e-06
5.04671e-06
-8.36139e-06
8.77941e-06
-7.40103e-06
1.12899e-05
-5.00341e-06
1.25186e-05
-2.45733e-06
1.28251e-05
-4.50743e-07
1.25895e-05
9.77656e-07
1.20402e-05
1.96819e-06
1.12908e-05
2.71834e-06
1.03507e-05
3.51802e-06
8.97805e-06
4.80912e-06
6.60795e-06
6.81194e-06
2.33126e-06
8.80753e-06
-3.76282e-06
8.30658e-06
-1.05558e-05
1.14158e-05
-1.50378e-05
1.11989e-05
-1.08326e-05
-8.52588e-06
-2.66418e-05
-2.75e-06
9.58635e-06
-4.01309e-06
5.59589e-06
-4.19786e-06
5.71071e-07
-3.87228e-06
-2.18911e-06
-2.4261e-06
-5.78942e-06
6.76072e-07
-1.01412e-05
4.76055e-06
-1.24459e-05
8.49242e-06
-1.11329e-05
1.09736e-05
-7.48457e-06
1.21237e-05
-3.60748e-06
1.22787e-05
-6.05721e-07
1.18313e-05
1.4251e-06
1.1084e-05
2.71547e-06
1.02781e-05
3.52419e-06
9.6228e-06
4.17336e-06
9.30825e-06
5.12367e-06
9.31797e-06
6.80223e-06
8.48661e-06
9.63889e-06
5.09134e-06
1.17019e-05
-3.55543e-07
1.68626e-05
-4.67629e-06
1.55196e-05
-3.28257e-06
-9.9196e-06
-2.99244e-05
-1.36548e-06
1.09518e-05
-1.86657e-06
6.09697e-06
-2.10595e-06
8.1046e-07
-1.98386e-06
-2.31121e-06
-7.35278e-07
-7.038e-06
1.88454e-06
-1.27611e-05
5.32308e-06
-1.58844e-05
8.43648e-06
-1.42463e-05
1.05106e-05
-9.55872e-06
1.14653e-05
-4.56218e-06
1.15452e-05
-6.85565e-07
1.10715e-05
1.89881e-06
1.03231e-05
3.46387e-06
9.52873e-06
4.31854e-06
8.8661e-06
4.83599e-06
8.50528e-06
5.48448e-06
8.79407e-06
6.51345e-06
9.77577e-06
8.65719e-06
1.01839e-05
1.12937e-05
9.9768e-06
1.70697e-05
8.38888e-06
1.71075e-05
5.12637e-06
-6.6571e-06
-2.4798e-05
5.27025e-07
1.04248e-05
1.32298e-06
5.30102e-06
1.708e-06
4.25441e-07
2.55339e-06
-3.15659e-06
4.23638e-06
-8.721e-06
6.36591e-06
-1.48906e-05
8.26632e-06
-1.77848e-05
9.6261e-06
-1.56061e-05
1.0406e-05
-1.03386e-05
1.07138e-05
-4.87004e-06
1.06105e-05
-5.82219e-07
1.0158e-05
2.35132e-06
9.51567e-06
4.10618e-06
8.89138e-06
4.94282e-06
8.4349e-06
5.29248e-06
8.19434e-06
5.72504e-06
8.32895e-06
6.37883e-06
9.36426e-06
7.62187e-06
1.13844e-05
9.27358e-06
1.45832e-05
1.38709e-05
1.59883e-05
1.57025e-05
1.04926e-05
-1.16139e-06
-1.43054e-05
3.02645e-06
7.39836e-06
5.78162e-06
2.54585e-06
7.88168e-06
-1.67461e-06
1.04895e-05
-5.76446e-06
1.29812e-05
-1.12127e-05
1.40586e-05
-1.59679e-05
1.3598e-05
-1.73243e-05
1.24213e-05
-1.44293e-05
1.12126e-05
-9.12992e-06
1.0304e-05
-3.96149e-06
9.7006e-06
2.12184e-08
9.16502e-06
2.8869e-06
8.6279e-06
4.6433e-06
8.20794e-06
5.36277e-06
8.02664e-06
5.47379e-06
8.0485e-06
5.70317e-06
8.31892e-06
6.10841e-06
9.18163e-06
6.75916e-06
1.0972e-05
7.48319e-06
1.48333e-05
1.00097e-05
1.76683e-05
1.28674e-05
1.2697e-05
3.80989e-06
-1.60841e-06
5.48985e-06
1.90851e-06
1.10636e-05
-3.0279e-06
1.65797e-05
-7.19076e-06
2.1298e-05
-1.04827e-05
2.32534e-05
-1.31681e-05
2.1957e-05
-1.46715e-05
1.88598e-05
-1.42271e-05
1.55595e-05
-1.1129e-05
1.27837e-05
-6.35408e-06
1.07204e-05
-1.89821e-06
9.2964e-06
1.44522e-06
8.36599e-06
3.81731e-06
7.74888e-06
5.26041e-06
7.49649e-06
5.61516e-06
7.62281e-06
5.34748e-06
7.92002e-06
5.40596e-06
8.4069e-06
5.62153e-06
9.36785e-06
5.79822e-06
1.07616e-05
6.08942e-06
1.37092e-05
7.06208e-06
1.67933e-05
9.7834e-06
1.42083e-05
6.39481e-06
1.25999e-05
8.42105e-06
-6.51254e-06
1.85774e-05
-1.31842e-05
2.70802e-05
-1.56936e-05
3.03756e-05
-1.3778e-05
2.88083e-05
-1.16009e-05
2.44898e-05
-1.0353e-05
2.0051e-05
-9.78823e-06
1.6446e-05
-7.52399e-06
1.36633e-05
-3.5714e-06
1.17349e-05
3.0202e-08
1.00595e-05
3.12056e-06
8.57787e-06
5.29899e-06
7.44458e-06
6.39371e-06
6.91088e-06
6.14885e-06
7.11452e-06
5.14385e-06
7.59004e-06
4.93043e-06
8.28965e-06
4.92192e-06
9.52959e-06
4.55828e-06
1.10868e-05
4.53224e-06
1.32221e-05
4.92673e-06
1.54916e-05
7.51396e-06
1.37378e-05
8.14854e-06
2.63377e-05
-3.4686e-05
3.4686e-05
-4.90641e-05
1.4378e-05
-1.63648e-05
-3.26992e-05
2.99891e-05
-4.63539e-05
7.64402e-05
-4.64511e-05
7.66493e-05
-2.09046e-07
-2.92511e-06
7.95744e-05
-0.000111157
0.000108232
-0.000155083
4.39259e-05
-0.000156456
1.37322e-06
-0.000152417
-4.03918e-06
-0.000149386
-3.03155e-06
-0.000146675
-2.71102e-06
-0.000142187
-4.4873e-06
-0.000133926
-8.26129e-06
-0.000121289
-1.2637e-05
-8.87521e-05
-3.25368e-05
-2.72547e-05
-6.14974e-05
-2.72547e-05
-2.29258e-05
5.76118e-05
-1.91993e-05
1.06515e-05
4.75304e-06
-5.66515e-05
2.93106e-05
-7.09114e-05
6.51341e-05
-8.22747e-05
5.32124e-05
1.17127e-05
-7.97037e-05
0.000212491
-0.000215939
0.000244467
-0.000245533
7.35202e-05
-0.000236475
-7.68518e-06
-0.000226273
-1.42405e-05
-0.000215655
-1.36501e-05
-0.000205506
-1.28596e-05
-0.000192293
-1.77008e-05
-0.000172315
-2.82394e-05
-0.000147967
-3.69849e-05
-0.000104716
-7.57875e-05
-3.6627e-05
-0.000129586
-6.38818e-05
-9.28683e-06
6.68986e-05
1.56437e-06
-1.99696e-07
1.97088e-05
-7.4796e-05
4.28114e-05
-9.40141e-05
6.82996e-05
-0.000107763
6.0468e-05
1.95443e-05
-6.22343e-05
0.000335193
-0.000213545
0.000395778
-0.000278187
0.000138162
-0.000365295
7.94222e-05
-0.000395775
1.624e-05
-0.000377043
-3.23831e-05
-0.000336712
-5.31907e-05
-0.000292975
-6.14372e-05
-0.000251519
-6.96959e-05
-0.000203053
-8.54503e-05
-0.000129997
-0.000148843
-4.67125e-05
-0.000212871
-0.000110594
-1.20636e-06
6.8105e-05
1.58488e-05
-1.72549e-05
3.31794e-05
-9.21266e-05
5.1015e-05
-0.00011185
7.08977e-05
-0.000127645
7.74015e-05
1.30404e-05
5.86849e-05
0.000353909
-0.000106493
0.000560956
-0.000246082
0.000277751
-0.000315746
0.000149086
-0.000359682
6.01766e-05
-0.000360705
-3.13607e-05
-0.000323698
-9.01974e-05
-0.000276719
-0.000108416
-0.000244599
-0.000101816
-0.000210818
-0.000119231
-0.000145809
-0.000213852
-5.1959e-05
-0.000306722
-0.000162553
7.26053e-06
6.08445e-05
2.76769e-05
-3.76713e-05
4.38082e-05
-0.000108258
5.58769e-05
-0.000123918
7.06075e-05
-0.000142376
7.18969e-05
1.1751e-05
5.05132e-05
0.000375293
-1.60658e-05
0.000627535
-0.000177112
0.000438797
-0.00027079
0.000242765
-0.000316593
0.00010598
-0.000309461
-3.84919e-05
-0.000265537
-0.000134122
-0.000211601
-0.000162353
-0.000173177
-0.000140239
-0.000163893
-0.000128515
-0.000124319
-0.000253426
-4.97316e-05
-0.000381309
-0.000212285
1.65816e-05
4.42629e-05
3.89062e-05
-5.99958e-05
5.06195e-05
-0.000119971
5.79495e-05
-0.000131248
6.77929e-05
-0.00015222
5.21412e-05
2.74028e-05
2.957e-05
0.000397864
8.94682e-06
0.000648158
-0.000136598
0.000584342
-0.000230096
0.000336263
-0.000262265
0.000138149
-0.000248565
-5.21923e-05
-0.000213543
-0.000169144
-0.000168994
-0.000206902
-0.000120098
-0.000189135
-9.77261e-05
-0.000150887
-7.55619e-05
-0.00027559
-4.34887e-05
-0.000413383
-0.000255773
2.84656e-05
1.57973e-05
4.83526e-05
-7.98828e-05
5.31789e-05
-0.000124797
5.76103e-05
-0.00013568
6.20249e-05
-0.000156634
3.91178e-05
5.03099e-05
1.84557e-05
0.000418526
1.29043e-05
0.000653709
-0.000109555
0.000706801
-0.000198685
0.000425394
-0.000223588
0.000163051
-0.00021466
-6.11207e-05
-0.000188234
-0.00019557
-0.000147961
-0.000247175
-9.89878e-05
-0.000238108
-5.0634e-05
-0.000199241
-3.05059e-05
-0.000295718
-3.43708e-05
-0.000409518
-0.000290144
4.25682e-05
-2.6771e-05
5.35947e-05
-9.09093e-05
5.19678e-05
-0.000123171
5.5395e-05
-0.000139107
5.47818e-05
-0.000156021
3.2381e-05
7.27107e-05
1.88521e-05
0.000432055
3.5616e-06
0.000669
-9.25076e-05
0.000802871
-0.000177058
0.000509945
-0.000202608
0.000188601
-0.000203959
-5.97689e-05
-0.000181819
-0.00021771
-0.000140573
-0.000288421
-9.06501e-05
-0.000288031
-2.1096e-05
-0.000268795
7.92613e-06
-0.00032474
-2.1904e-05
-0.000379687
-0.000312048
2.44233e-05
-3.09358e-05
4.13227e-05
-3.00837e-05
4.22425e-05
-1.66134e-05
3.43041e-05
-5.83958e-06
2.85388e-05
-5.83564e-06
2.3554e-05
-5.36816e-06
2.03797e-05
-6.61395e-06
1.88999e-05
-6.04416e-06
1.91907e-05
-3.86228e-06
2.03037e-05
-1.08274e-06
2.10416e-05
2.38262e-06
1.98491e-05
6.49147e-06
1.78805e-05
8.36236e-06
1.681e-05
7.21938e-06
1.72449e-05
4.70896e-06
1.73915e-05
4.78383e-06
1.78766e-05
4.43676e-06
2.00965e-05
2.33837e-06
2.40272e-05
6.01594e-07
2.92571e-05
-3.03124e-07
3.721e-05
-4.38973e-07
4.83487e-05
-2.99022e-06
3.20066e-06
7.14858e-05
2.9787e-06
-3.39145e-05
-6.43024e-05
3.71973e-05
-0.000115666
3.47497e-05
-9.1643e-05
-2.98621e-05
-5.58096e-05
-4.1669e-05
-4.71628e-05
-1.4015e-05
-4.70385e-05
-6.73825e-06
-4.28363e-05
-1.02463e-05
-3.09843e-05
-1.57143e-05
-1.68827e-05
-1.51843e-05
-6.06471e-06
-8.43541e-06
2.96229e-06
-2.53553e-06
1.27836e-05
-1.45899e-06
1.86853e-05
1.31777e-06
2.16193e-05
1.77491e-06
2.06902e-05
5.71298e-06
1.94018e-05
5.72511e-06
2.09591e-05
7.81112e-07
2.45717e-05
-3.01106e-06
2.87969e-05
-4.52835e-06
3.435e-05
-5.99205e-06
4.01899e-05
-8.83006e-06
-1.01514e-05
5.3542e-05
-1.63062e-05
-1.76083e-05
-4.01947e-05
6.10857e-05
-6.2039e-05
5.65939e-05
-8.46505e-05
-7.25059e-06
-0.000114839
-1.1481e-05
-0.000142926
1.40728e-05
-0.000166
1.6335e-05
-0.000180286
4.04037e-06
-0.000185305
-1.06954e-05
-0.000175325
-2.51644e-05
-0.00014791
-3.58505e-05
-0.000116063
-3.43822e-05
-6.06237e-05
-5.68986e-05
-3.09695e-05
-2.83364e-05
-1.28199e-05
-1.63747e-05
1.17761e-06
-8.28455e-06
1.16469e-05
-4.7442e-06
2.27481e-05
-1.03201e-05
2.95281e-05
-9.79105e-06
3.35652e-05
-8.56543e-06
3.87671e-05
-1.11939e-05
4.54812e-05
-1.55442e-05
-1.81974e-05
5.35272e-05
-2.67206e-05
9.11222e-06
-1.03259e-05
4.4691e-05
-5.12318e-06
5.13912e-05
-2.4703e-05
1.23292e-05
-4.84556e-05
1.22717e-05
-6.00593e-05
2.56765e-05
-6.41179e-05
2.03937e-05
-6.89023e-05
8.82466e-06
-7.87434e-05
-8.54326e-07
-9.48639e-05
-9.04394e-06
-0.000119535
-1.11799e-05
-0.000128071
-2.58459e-05
-0.000142298
-4.26716e-05
-0.000139832
-3.08026e-05
-0.000130075
-2.61317e-05
-0.000101549
-3.68103e-05
-6.9042e-05
-3.7251e-05
-4.08454e-05
-3.85167e-05
-1.3864e-05
-3.67724e-05
2.1396e-06
-2.45691e-05
1.31408e-05
-2.21951e-05
2.10407e-05
-2.34442e-05
-2.26422e-05
2.54855e-05
-1.60907e-05
2.52029e-05
-5.40053e-07
2.91404e-05
1.09112e-05
3.994e-05
8.58454e-06
1.46559e-05
7.10562e-06
1.37506e-05
6.98799e-06
2.57942e-05
9.82155e-06
1.75601e-05
1.41108e-05
4.5354e-06
1.59745e-05
-2.71801e-06
1.20418e-05
-5.1113e-06
6.17988e-07
2.43883e-07
-2.0489e-05
-4.73895e-06
-4.40922e-05
-1.90685e-05
-4.75491e-05
-2.73457e-05
-4.67529e-05
-2.69279e-05
-5.83891e-05
-2.51741e-05
-7.36599e-05
-2.19801e-05
-8.59305e-05
-2.6246e-05
-9.51391e-05
-2.75637e-05
-9.68586e-05
-2.28495e-05
-9.4803e-05
-2.42506e-05
-9.21659e-05
-2.60813e-05
-2.92031e-05
-8.56049e-05
-4.51889e-06
2.97217e-05
4.22347e-06
2.03981e-05
1.47463e-05
2.94173e-05
1.16787e-05
1.77235e-05
7.75097e-06
1.76784e-05
1.26036e-05
2.09416e-05
1.27072e-05
1.74564e-05
6.93689e-06
1.03057e-05
2.52954e-06
1.68933e-06
2.49036e-06
-5.07212e-06
9.02751e-06
-6.29329e-06
1.04745e-05
-6.18597e-06
-1.73387e-06
-6.86018e-06
-1.12855e-05
-1.77941e-05
-1.12602e-05
-2.6953e-05
-1.25482e-05
-2.3886e-05
-1.52454e-05
-1.92827e-05
-2.0223e-05
-2.12682e-05
-2.34969e-05
-2.42895e-05
-1.84381e-05
-2.79083e-05
-1.23987e-05
-3.029e-05
-1.88156e-05
-1.96644e-05
-3.22697e-06
-4.47918e-05
-1.47037e-06
3.11921e-05
3.62675e-06
1.5301e-05
9.42215e-06
2.36219e-05
7.90198e-06
1.92437e-05
6.94066e-06
1.86397e-05
9.19604e-06
1.86862e-05
1.03313e-05
1.63212e-05
8.80978e-06
1.18273e-05
4.35513e-06
6.14398e-06
-1.40214e-06
6.85155e-07
-4.12433e-06
-3.5711e-06
-4.46008e-06
-5.85021e-06
-5.22818e-06
-6.09206e-06
-8.35847e-06
-1.46637e-05
-1.35914e-05
-2.172e-05
-1.5096e-05
-2.23813e-05
-1.28293e-05
-2.15492e-05
-1.05533e-05
-2.35441e-05
-7.05251e-06
-2.77902e-05
7.06892e-07
-3.56676e-05
1.13219e-05
-4.0905e-05
3.12312e-05
-3.95737e-05
-9.60137e-06
3.76054e-05
-9.7609e-07
3.21682e-05
1.64248e-06
1.26824e-05
5.10118e-06
2.01632e-05
5.42144e-06
1.89235e-05
5.96692e-06
1.80942e-05
7.20286e-06
1.74502e-05
7.43964e-06
1.60844e-05
5.89131e-06
1.33756e-05
3.1901e-06
8.84521e-06
8.15172e-07
3.06009e-06
-1.22365e-06
-1.53228e-06
-1.75874e-06
-5.31509e-06
-4.05477e-07
-7.4453e-06
-1.25874e-06
-1.38104e-05
-4.34742e-06
-1.86313e-05
-7.14765e-06
-1.9581e-05
-7.81468e-06
-2.08821e-05
-6.12413e-06
-2.52345e-05
-2.16805e-06
-3.17463e-05
1.23889e-06
-3.90746e-05
4.03449e-06
-4.37006e-05
1.42111e-05
-4.97504e-05
-3.54387e-05
4.00484e-05
-1.05797e-06
3.32262e-05
7.18362e-07
1.09061e-05
3.3334e-06
1.75481e-05
4.18348e-06
1.80734e-05
4.96687e-06
1.73108e-05
6.10741e-06
1.63097e-05
7.06895e-06
1.51228e-05
7.32667e-06
1.31179e-05
6.15337e-06
1.00185e-05
3.18814e-06
6.02531e-06
1.73346e-07
1.48252e-06
-1.5108e-06
-3.63094e-06
-1.31949e-06
-7.6366e-06
-2.63254e-06
-1.24974e-05
-5.35341e-06
-1.59104e-05
-7.37107e-06
-1.75633e-05
-8.33974e-06
-1.99133e-05
-8.13477e-06
-2.54394e-05
-6.70767e-06
-3.31734e-05
-5.59172e-06
-4.01905e-05
-3.49198e-06
-4.58004e-05
4.19779e-06
-5.74403e-05
-5.05181e-05
1.92772e-05
-7.38929e-07
3.39651e-05
4.20247e-07
9.74684e-06
2.18292e-06
1.57854e-05
3.05586e-06
1.72004e-05
3.8251e-06
1.65415e-05
4.71776e-06
1.5417e-05
5.61726e-06
1.42233e-05
6.09506e-06
1.26401e-05
5.86903e-06
1.02445e-05
5.09541e-06
6.7989e-06
3.84352e-06
2.73439e-06
1.66521e-06
-1.45265e-06
-5.37429e-07
-5.43397e-06
-3.66223e-06
-9.37258e-06
-7.19766e-06
-1.23749e-05
-1.02611e-05
-1.44997e-05
-1.24968e-05
-1.76776e-05
-1.42802e-05
-2.3656e-05
-1.60035e-05
-3.14501e-05
-1.74405e-05
-3.87535e-05
-1.7255e-05
-4.59861e-05
-1.58621e-05
-5.88333e-05
-5.16636e-05
-1.47167e-05
-4.06233e-07
3.43713e-05
2.76688e-07
9.06383e-06
1.39767e-06
1.46644e-05
2.08375e-06
1.65142e-05
2.68125e-06
1.59439e-05
3.26483e-06
1.48334e-05
3.87384e-06
1.36143e-05
4.38428e-06
1.21296e-05
4.52167e-06
1.01071e-05
3.91728e-06
7.40324e-06
2.54138e-06
4.11025e-06
4.65941e-07
6.22745e-07
-2.24115e-06
-2.72693e-06
-5.72968e-06
-5.88408e-06
-9.48155e-06
-8.62305e-06
-1.28274e-05
-1.11539e-05
-1.59123e-05
-1.45927e-05
-1.9451e-05
-2.01172e-05
-2.34171e-05
-2.74839e-05
-2.67001e-05
-3.54706e-05
-2.91958e-05
-4.34904e-05
-3.73271e-05
-5.0702e-05
-3.81843e-05
-5.08064e-05
-1.20851e-07
3.44921e-05
1.92862e-07
8.75002e-06
8.29456e-07
1.40277e-05
1.26803e-06
1.60756e-05
1.62134e-06
1.55906e-05
1.89567e-06
1.4559e-05
2.11862e-06
1.33913e-05
2.23974e-06
1.20084e-05
2.07305e-06
1.02737e-05
1.3786e-06
8.09762e-06
-3.71462e-08
5.52594e-06
-2.20871e-06
2.79426e-06
-5.0651e-06
1.29409e-07
-8.49633e-06
-2.4529e-06
-1.21241e-05
-4.99528e-06
-1.5683e-05
-7.59499e-06
-1.95343e-05
-1.07414e-05
-2.44017e-05
-1.52497e-05
-3.01829e-05
-2.17027e-05
-3.57995e-05
-2.98538e-05
-4.14179e-05
-3.7872e-05
-5.17637e-05
-4.03563e-05
-2.75288e-05
-6.24192e-05
6.83961e-08
3.44237e-05
1.09658e-07
8.70865e-06
3.64601e-07
1.37726e-05
5.55957e-07
1.58841e-05
6.7384e-07
1.54726e-05
6.73678e-07
1.45591e-05
5.44242e-07
1.35207e-05
2.58803e-07
1.22938e-05
-2.90134e-07
1.08226e-05
-1.26785e-06
9.0753e-06
-2.84743e-06
7.10549e-06
-5.04806e-06
4.99487e-06
-7.79009e-06
2.87144e-06
-1.10038e-05
7.60827e-07
-1.46045e-05
-1.39461e-06
-1.8539e-05
-3.66054e-06
-2.31122e-05
-6.16814e-06
-2.90182e-05
-9.34376e-06
-3.68156e-05
-1.39051e-05
-4.6545e-05
-2.01243e-05
-5.81729e-05
-2.62441e-05
-7.16892e-05
-2.68398e-05
-1.55567e-05
-8.36613e-05
1.54133e-07
3.42695e-05
-3.1403e-09
8.86581e-06
-2.75581e-08
1.3797e-05
-5.32358e-08
1.59098e-05
-1.47556e-07
1.55669e-05
-3.61658e-07
1.47732e-05
-7.34738e-07
1.38938e-05
-1.30766e-06
1.28667e-05
-2.14654e-06
1.16614e-05
-3.35648e-06
1.02852e-05
-5.02084e-06
8.76986e-06
-7.19915e-06
7.1732e-06
-9.8545e-06
5.52681e-06
-1.30053e-05
3.91165e-06
-1.66929e-05
2.29299e-06
-2.10035e-05
6.50068e-07
-2.61088e-05
-1.06288e-06
-3.25501e-05
-2.90247e-06
-4.15108e-05
-4.94434e-06
-5.43457e-05
-7.2893e-06
-7.13021e-05
-9.28763e-06
-9.03317e-05
-7.81025e-06
1.02599e-06
-0.000106914
1.46284e-07
3.41231e-05
-1.29865e-07
9.14185e-06
-3.53839e-07
1.40209e-05
-5.69116e-07
1.6125e-05
-8.28483e-07
1.58263e-05
-1.2156e-06
1.51603e-05
-1.7615e-06
1.44397e-05
-2.51096e-06
1.36162e-05
-3.51737e-06
1.26679e-05
-4.84285e-06
1.16108e-05
-6.54654e-06
1.04736e-05
-8.66685e-06
9.2936e-06
-1.12519e-05
8.11194e-06
-1.4321e-05
6.98075e-06
-1.79705e-05
5.94257e-06
-2.23378e-05
5.01737e-06
-2.75558e-05
4.1551e-06
-3.38872e-05
3.42907e-06
-4.20563e-05
3.22484e-06
-5.3265e-05
3.91934e-06
-6.84686e-05
5.91603e-06
-8.63312e-05
1.00524e-05
1.79978e-05
-0.000103303
8.76276e-08
3.40354e-05
-2.84542e-07
9.51389e-06
-6.61451e-07
1.43977e-05
-1.00933e-06
1.64728e-05
-1.40532e-06
1.62222e-05
-1.92065e-06
1.56757e-05
-2.58454e-06
1.51036e-05
-3.43656e-06
1.44683e-05
-4.52305e-06
1.37545e-05
-5.88907e-06
1.2977e-05
-7.58114e-06
1.21659e-05
-9.64187e-06
1.13545e-05
-1.21124e-05
1.05826e-05
-1.50342e-05
9.90263e-06
-1.84728e-05
9.38117e-06
-2.2519e-05
9.06361e-06
-2.73434e-05
8.97947e-06
-3.31238e-05
9.20945e-06
-3.99568e-05
1.00579e-05
-4.81509e-05
1.21136e-05
-5.84549e-05
1.622e-05
-7.14704e-05
2.30679e-05
3.2265e-05
-8.57376e-05
1.29007e-08
3.40225e-05
-4.46163e-07
9.9728e-06
-9.30302e-07
1.48817e-05
-1.37623e-06
1.69186e-05
-1.87469e-06
1.67207e-05
-2.47901e-06
1.628e-05
-3.22442e-06
1.58491e-05
-4.13836e-06
1.53824e-05
-5.25819e-06
1.48746e-05
-6.62394e-06
1.43429e-05
-8.27426e-06
1.38164e-05
-1.02473e-05
1.33278e-05
-1.25846e-05
1.292e-05
-1.53258e-05
1.26439e-05
-1.85129e-05
1.25682e-05
-2.22074e-05
1.27582e-05
-2.65156e-05
1.32877e-05
-3.15767e-05
1.42705e-05
-3.74587e-05
1.59399e-05
-4.40714e-05
1.87263e-05
-5.11997e-05
2.33483e-05
-5.87088e-05
3.0577e-05
4.00802e-05
-6.6524e-05
-6.04522e-08
3.40828e-05
-5.93924e-07
1.05061e-05
-1.15429e-06
1.54419e-05
-1.66598e-06
1.74303e-05
-2.2352e-06
1.72899e-05
-2.90305e-06
1.69479e-05
-3.69616e-06
1.66423e-05
-4.64013e-06
1.63265e-05
-5.76334e-06
1.5998e-05
-7.0984e-06
1.56782e-05
-8.67665e-06
1.53949e-05
-1.05302e-05
1.51816e-05
-1.26889e-05
1.50788e-05
-1.51838e-05
1.51388e-05
-1.80448e-05
1.54292e-05
-2.13095e-05
1.60228e-05
-2.5011e-05
1.69891e-05
-2.91905e-05
1.84498e-05
-3.3842e-05
2.05913e-05
-3.88453e-05
2.37295e-05
-4.38526e-05
2.83556e-05
-4.82848e-05
3.50093e-05
4.36177e-05
-5.18222e-05
-1.30328e-07
3.42131e-05
-7.17367e-07
1.10929e-05
-1.32745e-06
1.60519e-05
-1.88837e-06
1.79911e-05
-2.49539e-06
1.78969e-05
-3.19782e-06
1.76504e-05
-4.01224e-06
1.74568e-05
-4.9578e-06
1.72723e-05
-6.05771e-06
1.70981e-05
-7.33646e-06
1.69571e-05
-8.81626e-06
1.68748e-05
-1.05214e-05
1.68869e-05
-1.24724e-05
1.70299e-05
-1.46866e-05
1.7353e-05
-1.71778e-05
1.79203e-05
-1.99567e-05
1.88017e-05
-2.30332e-05
2.00654e-05
-2.63988e-05
2.18153e-05
-2.99945e-05
2.41869e-05
-3.36664e-05
2.74014e-05
-3.70752e-05
3.17645e-05
-3.97058e-05
3.76399e-05
4.50611e-05
-4.11492e-05
-1.85282e-07
3.43982e-05
-8.17551e-07
1.1725e-05
-1.45473e-06
1.6689e-05
-2.03913e-06
1.85755e-05
-2.66765e-06
1.85254e-05
-3.38039e-06
1.83632e-05
-4.19043e-06
1.8267e-05
-5.11347e-06
1.81954e-05
-6.16639e-06
1.81511e-05
-7.36538e-06
1.81561e-05
-8.72842e-06
1.8238e-05
-1.02688e-05
1.84274e-05
-1.1999e-05
1.87602e-05
-1.39265e-05
1.92805e-05
-1.6051e-05
2.00449e-05
-1.83643e-05
2.11151e-05
-2.08568e-05
2.25579e-05
-2.34859e-05
2.44443e-05
-2.61796e-05
2.68806e-05
-2.87856e-05
3.00073e-05
-3.10272e-05
3.40062e-05
-3.25005e-05
3.91133e-05
4.53959e-05
-3.28352e-05
-2.23047e-07
3.46212e-05
-8.88071e-07
1.23899e-05
-1.53686e-06
1.73377e-05
-2.12856e-06
1.91672e-05
-2.75989e-06
1.91568e-05
-3.46525e-06
1.90685e-05
-4.25241e-06
1.90542e-05
-5.1335e-06
1.90766e-05
-6.12101e-06
1.91387e-05
-7.22609e-06
1.92613e-05
-8.45973e-06
1.94718e-05
-9.82837e-06
1.97962e-05
-1.13354e-05
2.02673e-05
-1.29807e-05
2.09259e-05
-1.47533e-05
2.18176e-05
-1.6636e-05
2.29977e-05
-1.85972e-05
2.45191e-05
-2.05869e-05
2.64339e-05
-2.25214e-05
2.88151e-05
-2.42683e-05
3.17542e-05
-2.56164e-05
3.53543e-05
-2.62678e-05
3.97648e-05
4.50491e-05
-2.5921e-05
-2.43057e-07
3.48641e-05
-9.28862e-07
1.30756e-05
-1.57657e-06
1.79854e-05
-2.16261e-06
1.97533e-05
-2.78328e-06
1.97775e-05
-3.46546e-06
1.97507e-05
-4.21637e-06
1.98051e-05
-5.04297e-06
1.99032e-05
-5.95348e-06
2.00492e-05
-6.95568e-06
2.02634e-05
-8.05327e-06
2.05694e-05
-9.24773e-06
2.09908e-05
-1.05385e-05
2.15581e-05
-1.19164e-05
2.23038e-05
-1.33646e-05
2.32658e-05
-1.48561e-05
2.44891e-05
-1.63522e-05
2.60152e-05
-1.77992e-05
2.78809e-05
-1.91145e-05
3.01304e-05
-2.0182e-05
3.28218e-05
-2.08384e-05
3.60109e-05
-2.08627e-05
3.97891e-05
4.42159e-05
-2.00296e-05
-2.4645e-07
3.51105e-05
-9.40559e-07
1.37696e-05
-1.57624e-06
1.86211e-05
-2.14629e-06
2.03233e-05
-2.74531e-06
2.03764e-05
-3.39573e-06
2.0401e-05
-4.10044e-06
2.05098e-05
-4.86391e-06
2.06666e-05
-5.69104e-06
2.08762e-05
-6.58492e-06
2.11573e-05
-7.54582e-06
2.15303e-05
-8.57247e-06
2.20175e-05
-9.65829e-06
2.2644e-05
-1.079e-05
2.34355e-05
-1.19463e-05
2.44222e-05
-1.30957e-05
2.56386e-05
-1.41966e-05
2.71161e-05
-1.51941e-05
2.88784e-05
-1.6013e-05
3.09495e-05
-1.6553e-05
3.33618e-05
-1.66852e-05
3.61431e-05
-1.62427e-05
3.93466e-05
4.30284e-05
-1.50553e-05
-2.35656e-07
3.53461e-05
-9.24065e-07
1.4458e-05
-1.53667e-06
1.92337e-05
-2.08338e-06
2.08701e-05
-2.65283e-06
2.09458e-05
-3.26343e-06
2.10115e-05
-3.91527e-06
2.11616e-05
-4.61065e-06
2.1362e-05
-5.35201e-06
2.16175e-05
-6.13938e-06
2.19446e-05
-6.97039e-06
2.23614e-05
-7.83983e-06
2.28871e-05
-8.73717e-06
2.35414e-05
-9.64626e-06
2.43447e-05
-1.05452e-05
2.53212e-05
-1.1401e-05
2.64944e-05
-1.21726e-05
2.78877e-05
-1.28086e-05
2.95143e-05
-1.32392e-05
3.13801e-05
-1.33782e-05
3.35009e-05
-1.31252e-05
3.58901e-05
-1.2354e-05
3.85754e-05
4.16094e-05
-1.09349e-05
-2.13158e-07
3.55592e-05
-8.80195e-07
1.5125e-05
-1.46018e-06
1.98136e-05
-1.97768e-06
2.13876e-05
-2.51208e-06
2.14801e-05
-3.07787e-06
2.15773e-05
-3.67388e-06
2.17577e-05
-4.30031e-06
2.19885e-05
-4.95741e-06
2.22746e-05
-5.64284e-06
2.26301e-05
-6.35183e-06
2.30705e-05
-7.07632e-06
2.36116e-05
-7.80399e-06
2.42691e-05
-8.51831e-06
2.5059e-05
-9.19723e-06
2.60001e-05
-9.80836e-06
2.71055e-05
-1.03124e-05
2.83918e-05
-1.06606e-05
2.98625e-05
-1.07952e-05
3.15148e-05
-1.06402e-05
3.3346e-05
-1.0116e-05
3.53659e-05
-9.1319e-06
3.75913e-05
4.00652e-05
-7.58769e-06
-1.79699e-07
3.57389e-05
-8.10893e-07
1.57562e-05
-1.3499e-06
2.03526e-05
-1.83317e-06
2.18709e-05
-2.32741e-06
2.19743e-05
-2.84531e-06
2.20952e-05
-3.38354e-06
2.22959e-05
-3.94215e-06
2.2547e-05
-4.51858e-06
2.2851e-05
-5.10928e-06
2.32207e-05
-5.7076e-06
2.36687e-05
-6.30311e-06
2.42071e-05
-6.88367e-06
2.48496e-05
-7.4332e-06
2.56086e-05
-7.92729e-06
2.64942e-05
-8.33734e-06
2.75156e-05
-8.62756e-06
2.8682e-05
-8.75778e-06
2.99928e-05
-8.67475e-06
3.14318e-05
-8.31663e-06
3.29879e-05
-7.61486e-06
3.46642e-05
-6.50775e-06
3.64843e-05
3.84815e-05
-4.92407e-06
-1.32974e-07
3.58719e-05
-7.20439e-07
1.63436e-05
-1.21226e-06
2.08445e-05
-1.6564e-06
2.23149e-05
-2.10577e-06
2.24236e-05
-2.57246e-06
2.25619e-05
-3.05141e-06
2.27748e-05
-3.54322e-06
2.30388e-05
-4.04339e-06
2.33511e-05
-4.54724e-06
2.37245e-05
-5.04623e-06
2.41677e-05
-5.5306e-06
2.46914e-05
-5.98679e-06
2.53059e-05
-6.39733e-06
2.60192e-05
-6.74171e-06
2.68387e-05
-6.9939e-06
2.77679e-05
-7.12159e-06
2.88098e-05
-7.08952e-06
2.99608e-05
-6.85633e-06
3.11987e-05
-6.37039e-06
3.2502e-05
-5.57241e-06
3.38662e-05
-4.4164e-06
3.53283e-05
3.69251e-05
-2.85999e-06
-6.77244e-08
3.59396e-05
-6.1653e-07
1.68923e-05
-1.05593e-06
2.12841e-05
-1.45627e-06
2.27152e-05
-1.85564e-06
2.2823e-05
-2.26711e-06
2.29734e-05
-2.68784e-06
2.31955e-05
-3.11201e-06
2.34629e-05
-3.53886e-06
2.37779e-05
-3.96029e-06
2.41459e-05
-4.36946e-06
2.45768e-05
-4.75727e-06
2.50793e-05
-5.10659e-06
2.56553e-05
-5.40471e-06
2.63174e-05
-5.63047e-06
2.70645e-05
-5.76135e-06
2.78988e-05
-5.76981e-06
2.88183e-05
-5.62664e-06
2.98177e-05
-5.30214e-06
3.08742e-05
-4.75059e-06
3.19505e-05
-3.92641e-06
3.30421e-05
-2.78672e-06
3.41886e-05
3.54484e-05
-1.31001e-06
2.89108e-08
3.59106e-05
-5.05484e-07
1.74267e-05
-8.9135e-07
2.16699e-05
-1.24423e-06
2.30681e-05
-1.58911e-06
2.3168e-05
-1.94402e-06
2.33284e-05
-2.30137e-06
2.35529e-05
-2.65908e-06
2.38206e-05
-3.0106e-06
2.41295e-05
-3.35298e-06
2.44884e-05
-3.6794e-06
2.49033e-05
-3.97617e-06
2.53761e-05
-4.23366e-06
2.59129e-05
-4.43551e-06
2.65193e-05
-4.56553e-06
2.71945e-05
-4.60245e-06
2.79357e-05
-4.52604e-06
2.87419e-05
-4.31155e-06
2.96032e-05
-3.93668e-06
3.04994e-05
-3.37303e-06
3.13869e-05
-2.57736e-06
3.22465e-05
-1.50982e-06
3.31211e-05
3.40959e-05
-1.5734e-07
1.70849e-07
3.57396e-05
-3.85579e-07
1.79832e-05
-7.29806e-07
2.2014e-05
-1.03173e-06
2.337e-05
-1.3222e-06
2.34585e-05
-1.61888e-06
2.36251e-05
-1.91162e-06
2.38455e-05
-2.20081e-06
2.41098e-05
-2.48138e-06
2.44101e-05
-2.7454e-06
2.47524e-05
-2.98632e-06
2.51443e-05
-3.19748e-06
2.55874e-05
-3.36683e-06
2.60822e-05
-3.48026e-06
2.66327e-05
-3.52423e-06
2.72385e-05
-3.48363e-06
2.78951e-05
-3.33934e-06
2.85976e-05
-3.07341e-06
2.93373e-05
-2.66963e-06
3.00957e-05
-2.11427e-06
3.08316e-05
-1.37755e-06
3.15098e-05
-4.18762e-07
3.21623e-05
3.28913e-05
7.85818e-07
3.40968e-07
3.53986e-05
-2.58806e-07
1.8583e-05
-5.78869e-07
2.23339e-05
-8.31962e-07
2.3623e-05
-1.07045e-06
2.3697e-05
-1.31321e-06
2.38677e-05
-1.54889e-06
2.40811e-05
-1.77178e-06
2.43327e-05
-1.97951e-06
2.46178e-05
-2.1677e-06
2.49406e-05
-2.32774e-06
2.53043e-05
-2.45246e-06
2.57121e-05
-2.53412e-06
2.61639e-05
-2.56126e-06
2.66598e-05
-2.5214e-06
2.71986e-05
-2.40306e-06
2.77768e-05
-2.19201e-06
2.83866e-05
-1.87253e-06
2.90179e-05
-1.43514e-06
2.96583e-05
-8.75048e-07
3.02715e-05
-1.77627e-07
3.08124e-05
6.88434e-07
3.12962e-05
3.182e-05
1.75956e-06
5.11439e-07
3.48873e-05
-1.30766e-07
1.92252e-05
-4.4458e-07
2.26476e-05
-6.59358e-07
2.38378e-05
-8.58065e-07
2.38956e-05
-1.05775e-06
2.40673e-05
-1.243e-06
2.42664e-05
-1.41123e-06
2.45009e-05
-1.5573e-06
2.47639e-05
-1.67631e-06
2.50596e-05
-1.76325e-06
2.53913e-05
-1.81049e-06
2.57594e-05
-1.81024e-06
2.61637e-05
-1.75192e-06
2.66015e-05
-1.62744e-06
2.70742e-05
-1.4269e-06
2.75763e-05
-1.13774e-06
2.80976e-05
-7.504e-07
2.86306e-05
-2.52958e-07
2.91608e-05
3.54894e-07
2.96636e-05
1.06818e-06
3.0099e-05
1.91236e-06
3.04519e-05
3.08108e-05
2.92151e-06
6.751e-07
3.42123e-05
-1.82003e-09
1.99019e-05
-3.37648e-07
2.29834e-05
-5.28115e-07
2.40283e-05
-7.04355e-07
2.40719e-05
-8.78084e-07
2.4241e-05
-1.0272e-06
2.44156e-05
-1.15732e-06
2.46311e-05
-1.25998e-06
2.48666e-05
-1.3297e-06
2.51294e-05
-1.36035e-06
2.5422e-05
-1.34743e-06
2.57465e-05
-1.28191e-06
2.60982e-05
-1.15769e-06
2.64774e-05
-9.62804e-07
2.68794e-05
-6.86709e-07
2.73003e-05
-3.20791e-07
2.77317e-05
1.46312e-07
2.81635e-05
7.24689e-07
2.85825e-05
1.41612e-06
2.89722e-05
2.21895e-06
2.92962e-05
3.13155e-06
2.95394e-05
2.97517e-05
4.19071e-06
8.22957e-07
3.33893e-05
8.77532e-08
2.0637e-05
-2.67242e-07
2.33384e-05
-4.46139e-07
2.42071e-05
-6.18055e-07
2.42438e-05
-7.80134e-07
2.44032e-05
-9.20189e-07
2.45557e-05
-1.03241e-06
2.47433e-05
-1.11458e-06
2.49488e-05
-1.15892e-06
2.51738e-05
-1.16556e-06
2.54287e-05
-1.12331e-06
2.57043e-05
-1.02215e-06
2.59971e-05
-8.59908e-07
2.63152e-05
-6.22967e-07
2.66425e-05
-3.00002e-07
2.69773e-05
1.1988e-07
2.73118e-05
6.48512e-07
2.76349e-05
1.29959e-06
2.79314e-05
2.07526e-06
2.81966e-05
2.97794e-06
2.83936e-05
4.00936e-06
2.8508e-05
2.85639e-05
5.19718e-06
9.52633e-07
3.24365e-05
1.64014e-07
2.14255e-05
-2.19405e-07
2.37218e-05
-4.05836e-07
2.43935e-05
-5.90705e-07
2.44286e-05
-7.58769e-07
2.45713e-05
-9.03679e-07
2.47006e-05
-1.01955e-06
2.48592e-05
-1.10335e-06
2.50326e-05
-1.15452e-06
2.5225e-05
-1.16178e-06
2.5436e-05
-1.121e-06
2.56636e-05
-1.02599e-06
2.59022e-05
-8.62763e-07
2.61521e-05
-6.24165e-07
2.64039e-05
-2.97259e-07
2.66505e-05
1.29567e-07
2.6885e-05
6.71904e-07
2.70926e-05
1.33718e-06
2.72662e-05
2.14513e-06
2.73887e-05
3.09875e-06
2.744e-05
4.20827e-06
2.73985e-05
2.72833e-05
5.48875e-06
1.04301e-06
3.13934e-05
2.21337e-07
2.22471e-05
-1.85856e-07
2.41289e-05
-3.90335e-07
2.4598e-05
-5.9763e-07
2.46359e-05
-7.80442e-07
2.47542e-05
-9.39237e-07
2.48594e-05
-1.07246e-06
2.49924e-05
-1.17488e-06
2.5135e-05
-1.24645e-06
2.52966e-05
-1.27706e-06
2.54667e-05
-1.26469e-06
2.56514e-05
-1.19836e-06
2.5836e-05
-1.0701e-06
2.60239e-05
-8.69644e-07
2.62035e-05
-5.82922e-07
2.63638e-05
-2.02288e-07
2.65043e-05
2.92496e-07
2.65978e-05
9.0612e-07
2.66526e-05
1.66105e-06
2.66338e-05
2.56902e-06
2.65321e-05
3.64208e-06
2.63254e-05
2.60316e-05
4.89381e-06
1.08585e-06
3.03075e-05
2.57733e-07
2.30752e-05
-1.61637e-07
2.45481e-05
-3.80955e-07
2.48172e-05
-6.09512e-07
2.48645e-05
-8.06729e-07
2.49514e-05
-9.80579e-07
2.50333e-05
-1.13483e-06
2.51467e-05
-1.25634e-06
2.52565e-05
-1.35678e-06
2.5397e-05
-1.416e-06
2.5526e-05
-1.44344e-06
2.56789e-05
-1.41681e-06
2.58094e-05
-1.33957e-06
2.59467e-05
-1.20054e-06
2.60645e-05
-9.78918e-07
2.61421e-05
-6.79e-07
2.62044e-05
-2.74243e-07
2.6193e-05
2.35736e-07
2.61426e-05
8.71875e-07
2.59977e-05
1.64814e-06
2.57558e-05
2.5754e-06
2.53981e-05
2.49411e-05