/*--------------------------------*- C++ -*----------------------------------*\
| =========                 |                                                 |
| \\      /  F ield         | OpenFOAM: The Open Source CFD Toolbox           |
|  \\    /   O peration     | Version:  5.x                                   |
|   \\  /    A nd           | Web:      www.OpenFOAM.org                      |
|    \\/     M anipulation  |                                                 |
\*---------------------------------------------------------------------------*/
FoamFile
{
    version     2.0;
    format      ascii;
    class       volScalarField;
    location    "0.5";
    object      alpha.water;
}
// * * * * * * * * * * * * * * * * * * * * * * * * * * * * * * * * * * * * * //

dimensions      [0 0 0 0 0 0 0];

internalField   nonuniform List<scalar> 
2268
(
1
1
1
1
1
1
1
1
1
1
1
1
1
1
1
1
1
1
0.999925
0.894655
0.789558
1
1
1
1
1
1
1
1
1
1
1
1
1
1
1
1
1
1
1
1
1
0.971483
0.792618
0.993813
1
1
1
1
1
1
1
1
1
1
1
1
1
1
1
1
1
1
1
1
1
0.930677
0.986748
0.997508
1
1
1
1
1
1
1
1
1
1
1
1
1
1
1
1
1
1
1
1
0.999995
0.999585
0.996319
1
1
1
1
1
1
1
1
1
1
1
1
1
1
1
1
1
1
1
1
1
1
1
1
1
1
1
1
1
1
1
1
1
1
1
1
1
1
1
1
1
1
1
1
1
0.999999
1
1
1
0.999999
0.999999
0.999999
1
1
1
1
1
1
1
1
1
1
1
1
1
1
1
1
1
1
1
0.999994
0.999973
0.999967
0.999981
0.999993
0.999998
1
1
1
1
1
1
1
1
1
1
1
1
1
1
1
0
0.000685303
0.000481873
0.00193623
0.00450123
0.00252943
0.000185234
0
-7.06543e-12
-3.16891e-12
-1.14323e-09
-3.67463e-10
-3.33732e-09
0.00306827
0.130117
0.312964
0.536464
0.686096
0.637057
0.00852838
0.0295718
0.0181841
0.0164103
0.0160628
0.011681
0.00117117
4.08968e-06
2.45178e-07
5.1706e-08
2.15922e-06
0.0003932
0.0107091
0.0147503
0.00644658
0.00481008
0.187971
0.554329
1
0.368652
0.0451651
0.00834208
0.00290014
0.00143383
0.00513682
0.00517248
0.000386183
4.32024e-06
2.21094e-06
0.00148378
0.00361346
0.00307353
0.000180781
6.9602e-05
0.000206034
0.000828305
0.0442461
0.981874
0.653753
3.15532e-05
1.85638e-05
1.66325e-05
1.66325e-05
0.000384123
0.00401675
0.000640068
1.87535e-05
0.00101261
0.00418814
0.00388595
0.00107511
1.62159e-05
1.57761e-05
6.96019e-05
0.000360318
0.0265032
0.357094
0.653092
0.000165783
1.89224e-05
1.68798e-05
1.66325e-05
0.000526743
0.00160514
0.000760388
0.000628112
0.00431229
0.00426344
0.00418815
0.000184842
1.04083e-05
2.90379e-06
1.3568e-05
0.000688298
0.0104733
0
0.720837
0.00987137
2.08588e-05
1.57733e-05
2.59274e-05
0.000330426
0.000252893
0.000300018
0.00221659
0.00433739
0.00431229
0.00376722
1.39351e-05
1.25525e-05
1.22228e-06
2.20115e-07
-4.72721e-07
0.0095692
0.0990725
0.960171
0.560298
3.99741e-05
1.01217e-06
1.05969e-06
4.32276e-06
7.76105e-06
7.76366e-05
0.00210536
0.00433492
0.00435015
0.00260859
1.28843e-05
1.02165e-05
4.94825e-07
1.58689e-07
9.53437e-08
0.00981302
0.663663
1
0.98076
0.0640801
6.0804e-07
8.7541e-07
6.03387e-07
1.31846e-06
2.08883e-05
0.000628903
0.00369634
0.00430742
0.00067071
0.000162023
1.12949e-05
1.39692e-07
9.53687e-08
9.53257e-08
0.00175582
0.824884
1
0.999973
0.976832
0.932903
0.941882
0.968212
0.986794
0.995385
0.99954
0.999991
0.999997
0.999999
1
1
1
1
1
1
1
1
1
1
1
0.86256
0.62283
0.366018
0.239713
0.291384
0.382185
0.437737
0.488408
0.563737
0.650188
0.736282
0.821318
0.900128
0.964147
1
1
1
1
1
1
1
1
1
0.0777309
2.00669e-17
1.52646e-15
7.84032e-14
1.67506e-13
2.72675e-13
4.96742e-13
1.27387e-12
1.96655e-11
0.0156039
0.0474064
0.092735
0.156848
0.253878
0.406315
0.64151
0.937748
1
1
1
1
1
1
2.81315e-35
1.76078e-19
2.00169e-17
1.52646e-15
1.41142e-13
1.68661e-13
3.50595e-13
4.96742e-13
1.27387e-12
1.96655e-11
2.02791e-10
3.98204e-09
7.61415e-08
1.25962e-06
4.78199e-06
0.0205595
0.0905871
0.262442
0.547015
0.913208
1
1
1
3.49485e-68
3.70651e-19
1.0082e-15
1.2044e-13
4.19427e-12
1.10687e-11
1.41699e-11
3.42365e-10
3.7497e-09
4.64706e-09
5.04011e-09
5.18707e-09
2.03682e-07
3.27742e-06
3.73154e-06
5.50758e-06
1.0906e-05
0.00310137
0.0328137
0.0840757
0.207433
0.427415
0.759064
1.18966e-20
9.18512e-18
1.45852e-15
3.60685e-13
2.36846e-11
7.37125e-11
8.71447e-11
8.76631e-11
2.83076e-08
1.5665e-07
1.44146e-07
6.51172e-09
6.73486e-09
6.2611e-05
0.000147069
0.000147258
1.8033e-05
1.90731e-05
2.06835e-05
2.27987e-05
2.74416e-05
0.00803159
0.0272411
8.54942e-21
1.08041e-17
2.17121e-14
2.08941e-12
3.4802e-11
1.27426e-10
1.77299e-10
1.46409e-10
2.37745e-08
2.38817e-07
2.39383e-07
2.29441e-07
1.10641e-07
5.98597e-06
2.76923e-05
4.27331e-05
1.72022e-05
3.01216e-05
8.4218e-05
0.000205672
0.000176218
6.80492e-05
6.78931e-05
1.29204e-22
1.82948e-19
4.93235e-15
1.14743e-12
2.87453e-11
1.35616e-10
2.06779e-10
1.90564e-10
1.80688e-10
7.06368e-08
2.04909e-07
1.0523e-07
4.24547e-07
1.65401e-06
8.22316e-10
6.89549e-10
8.22291e-10
8.43351e-10
3.16633e-05
0.000235411
0.000245346
0.000211675
6.80283e-05
1.07652e-22
1.28558e-20
6.41423e-16
3.76002e-13
1.48461e-11
1.00155e-10
1.96422e-10
1.9081e-10
1.80552e-10
1.19649e-09
7.09144e-11
7.09143e-11
9.63436e-07
2.01503e-06
6.14461e-07
2.95461e-10
1.6193e-09
1.01241e-09
3.78743e-05
0.000202386
0.000245408
0.000230911
6.78815e-05
5.83457e-24
1.04899e-21
9.96976e-17
1.11098e-13
5.39729e-12
4.19614e-11
9.58965e-11
1.07131e-10
7.38623e-11
7.09144e-11
7.09143e-11
7.09145e-11
3.77462e-07
1.719e-06
1.95898e-07
3.29046e-11
2.09308e-08
4.54262e-07
1.87262e-05
5.42205e-05
0.000242186
0.000213653
6.89594e-05
-1.96544e-20
4.43025e-38
1.55231e-17
2.99921e-14
1.61934e-12
1.28014e-11
2.91428e-11
3.07408e-11
3.5408e-11
9.02093e-11
7.09601e-11
1.03191e-09
3.47731e-12
3.44402e-12
3.38175e-12
3.27156e-12
5.69687e-08
5.82061e-07
2.23566e-11
1.18765e-09
2.68909e-05
4.82261e-05
0.000265761
-3.10691e-20
5.53781e-39
2.23564e-18
6.42066e-15
3.85352e-13
3.05413e-12
7.1071e-12
7.49408e-12
1.63318e-11
9.47902e-11
7.01466e-11
3.82646e-11
4.29779e-12
4.25959e-12
4.21278e-12
3.26313e-12
1.45093e-13
7.69768e-11
1.89242e-13
3.44312e-12
1.73767e-10
4.92367e-06
0.000340711
-1.80449e-20
-1.09021e-37
8.90955e-19
1.13088e-15
7.64635e-14
5.90993e-13
1.37635e-12
1.60464e-12
6.28752e-12
4.41559e-11
2.84833e-11
2.42147e-11
6.45213e-12
7.36587e-12
6.63391e-12
1.99879e-12
1.44324e-13
1.43263e-13
1.43831e-13
1.543e-13
1.72064e-13
1.36805e-13
-3.28142e-12
-1.04413e-20
5.17983e-24
7.67465e-19
1.65587e-16
1.25134e-14
9.53337e-14
2.21051e-13
2.98503e-13
7.95324e-13
3.21817e-12
5.5375e-12
6.88664e-12
7.31478e-12
5.96046e-12
2.67115e-12
5.43152e-13
2.18828e-13
1.43745e-13
1.58768e-13
1.58824e-13
1.62675e-13
1.73323e-13
1.92574e-13
-7.22946e-21
3.46113e-40
2.84703e-19
2.03549e-17
1.60506e-15
1.21986e-14
3.01227e-14
5.18466e-14
1.26978e-13
4.1659e-13
1.42103e-12
2.55669e-12
3.28978e-12
1.13148e-12
3.21805e-13
8.49546e-14
4.5871e-14
8.26502e-14
1.69696e-13
4.44838e-13
1.04541e-12
1.78733e-12
2.98198e-12
-5.4231e-21
-1.77175e-21
7.40531e-20
2.07391e-18
1.60246e-16
1.2483e-15
3.53998e-15
8.7529e-15
2.8505e-14
1.0973e-13
2.86896e-13
3.54641e-13
3.02843e-13
6.55241e-14
3.01849e-14
1.24148e-14
3.55108e-15
2.20044e-15
2.17685e-14
2.70129e-13
1.17e-12
2.75415e-12
6.667e-12
-3.79186e-21
-3.96659e-21
1.17918e-20
1.74262e-19
1.17173e-17
1.01201e-16
4.06628e-16
1.62615e-15
6.05746e-15
1.78735e-14
3.13265e-14
2.98037e-14
1.88096e-14
8.72164e-15
3.49487e-15
1.35945e-15
4.38235e-16
2.67688e-16
1.48823e-15
2.58954e-14
2.67325e-13
1.53161e-12
6.62282e-12
-2.28323e-21
-2.78799e-21
3.56756e-22
1.27189e-20
6.02672e-19
6.77644e-18
5.25665e-17
3.18139e-16
1.27569e-15
3.15852e-15
4.62171e-15
4.57553e-15
3.09478e-15
1.26678e-15
3.68022e-16
1.08312e-16
4.14204e-17
3.39677e-17
4.20045e-16
9.62347e-15
1.24056e-13
7.44032e-13
2.95911e-12
-1.14702e-21
-1.41503e-21
-6.60422e-22
6.412e-22
2.15588e-20
4.6541e-19
7.28277e-18
5.53819e-17
2.46634e-16
6.46525e-16
9.50401e-16
9.3815e-16
6.38173e-16
2.51184e-16
5.66538e-17
1.08865e-17
4.51486e-18
5.29392e-18
1.05715e-16
3.4319e-15
6.27848e-14
4.609e-13
1.71943e-12
-4.68254e-22
-5.66833e-22
-6.80381e-22
-1.99184e-24
4.43851e-22
3.86669e-20
8.4383e-19
7.80872e-18
4.03414e-17
1.15645e-16
1.7931e-16
1.80032e-16
1.24704e-16
5.03237e-17
1.09214e-17
1.58858e-18
5.74449e-19
1.12827e-18
3.06038e-17
1.29147e-15
3.15087e-14
2.8942e-13
1.16077e-12
-1.50414e-22
-1.69992e-22
-3.2361e-22
-8.47723e-23
7.52796e-24
2.69615e-21
6.65124e-20
8.46106e-19
5.17405e-18
1.59064e-17
2.52604e-17
2.55807e-17
1.81929e-17
7.66556e-18
1.67132e-18
1.86286e-19
4.98465e-20
2.69624e-19
9.31673e-18
4.84217e-16
1.44677e-14
1.56733e-13
7.55497e-13
-3.65717e-23
-3.48746e-23
-8.59911e-23
-3.15651e-23
4.08717e-27
8.62349e-23
3.4188e-21
6.86519e-20
4.82658e-19
1.55586e-18
2.48364e-18
2.52451e-18
1.84765e-18
8.26414e-19
1.91088e-19
2.01782e-20
5.96369e-21
6.90177e-20
2.75419e-18
1.67628e-16
5.99715e-15
7.5849e-14
4.4721e-13
-6.46457e-24
-4.24939e-24
-1.12908e-23
-4.15968e-24
-8.68731e-25
2.56456e-25
1.29497e-22
3.97396e-21
3.05687e-20
1.01135e-19
1.60828e-19
1.6399e-19
1.25095e-19
6.16968e-20
1.67359e-20
2.49718e-21
1.14898e-21
1.7741e-20
7.4576e-19
5.29039e-17
2.40403e-15
3.57529e-14
2.15009e-13
-8.04593e-25
-2.5405e-25
-6.87175e-25
-2.46753e-25
-5.20244e-26
6.44761e-27
3.95593e-24
1.40949e-22
1.18954e-21
4.03415e-21
6.35747e-21
6.51149e-21
5.23636e-21
2.8647e-21
8.93762e-22
2.07916e-22
1.63425e-22
4.08311e-21
1.85254e-19
1.50668e-17
8.74996e-16
1.52492e-14
9.20045e-14
-6.88741e-26
0
1.26951e-34
1.18925e-31
2.59829e-30
9.97545e-30
2.09021e-26
1.94798e-24
2.20315e-23
8.40097e-23
1.4253e-22
1.50285e-22
1.29823e-22
7.65015e-23
2.58093e-23
8.65599e-24
2.69776e-23
8.68611e-22
4.15081e-20
3.6568e-18
2.66122e-16
5.61103e-15
3.72958e-14
-4.41427e-27
2.32698e-59
4.78774e-43
5.44679e-39
6.37775e-36
2.65657e-32
6.19503e-29
6.50617e-27
7.70361e-26
3.1231e-25
6.13298e-25
7.11819e-25
6.70378e-25
4.56306e-25
2.80883e-25
2.81281e-25
4.47793e-24
1.73191e-22
8.66203e-21
8.06051e-19
7.2578e-17
1.8456e-15
1.35152e-14
-2.27584e-28
-7.85432e-43
2.63634e-46
1.27217e-41
1.41411e-38
3.46392e-35
1.2448e-31
2.25268e-29
3.89023e-28
2.10627e-27
6.00503e-27
1.02912e-26
1.16407e-26
1.111e-26
9.45709e-27
2.42347e-26
7.60913e-25
3.21714e-23
1.70186e-21
1.64406e-19
1.82429e-17
5.63613e-16
4.52476e-15
-9.90738e-30
-3.13272e-41
2.22609e-48
1.22844e-44
1.03919e-41
7.44022e-39
4.48918e-36
2.21243e-33
3.56337e-31
6.95166e-30
3.98481e-29
1.03955e-28
1.40931e-28
1.44298e-28
1.57803e-28
2.60294e-27
1.19676e-25
5.52132e-24
3.10737e-22
3.06801e-20
4.17319e-18
1.59664e-16
1.41395e-15
-3.75842e-31
-1.12012e-39
6.71268e-51
1.88682e-47
1.79266e-44
9.66993e-42
3.38874e-39
1.00858e-36
3.94038e-34
1.70401e-32
1.28582e-31
3.94343e-31
6.10596e-31
6.941e-31
6.61306e-30
3.48962e-28
1.69345e-26
8.47314e-25
5.04528e-23
5.0229e-21
8.31885e-19
4.0584e-17
4.01639e-16
-1.26669e-32
-2.94661e-38
-3.34347e-67
6.01744e-51
1.30085e-47
1.72484e-44
5.46288e-42
9.01304e-40
1.0201e-37
5.74058e-36
1.00147e-34
4.57095e-34
1.01426e-33
1.25093e-32
7.49713e-31
4.05495e-29
2.10733e-27
1.12215e-25
6.90712e-24
6.83547e-22
1.36665e-19
8.86195e-18
9.96291e-17
-3.83297e-34
-1.13563e-37
0
1.43076e-53
1.6542e-50
1.67813e-47
1.07652e-44
1.74089e-42
1.6378e-40
4.7908e-39
4.00524e-38
3.77766e-37
1.58551e-35
1.17849e-33
7.24032e-32
4.15574e-30
2.28653e-28
1.26374e-26
7.76e-25
7.43944e-23
1.75303e-20
1.5918e-18
2.08602e-17
-1.04589e-35
-5.88767e-39
0
3.47911e-56
4.22849e-53
1.96783e-50
2.32485e-47
4.19494e-45
3.70826e-43
1.08021e-41
2.71391e-40
1.7491e-38
1.29458e-36
9.06933e-35
5.95479e-33
3.70521e-31
2.16974e-29
1.23327e-27
7.37097e-26
6.57775e-24
1.72665e-21
2.30324e-19
3.63728e-18
-2.57377e-37
-2.06671e-40
-1.03339e-74
8.89704e-59
1.14217e-55
6.0468e-53
9.82614e-50
1.84566e-47
1.65404e-45
1.23307e-43
9.81234e-42
8.75769e-40
7.1299e-38
5.8761e-36
4.21121e-34
2.887e-32
1.82554e-30
1.08202e-28
6.40355e-27
5.16292e-25
1.37952e-22
2.73852e-20
5.32642e-19
-5.69056e-39
-5.61863e-42
1.98659e-81
2.47714e-61
3.36778e-58
4.54443e-54
1.41623e-51
2.38341e-49
2.81643e-47
3.30933e-45
3.40818e-43
3.71683e-41
3.38391e-39
3.22147e-37
2.54367e-35
1.9101e-33
1.34618e-31
8.63158e-30
5.34273e-28
4.01729e-26
1.01816e-23
2.84018e-21
6.67866e-20
-1.12374e-40
-1.29495e-43
1.31895e-62
5.44471e-63
2.84793e-58
9.63677e-56
2.06093e-53
3.81842e-51
5.57569e-49
7.98102e-47
1.00483e-44
1.24349e-42
1.30963e-40
1.40568e-38
1.27099e-36
1.03315e-34
8.2971e-33
6.07087e-31
4.15222e-29
3.1764e-27
7.6394e-25
2.67733e-22
7.20307e-21
-1.96646e-42
-2.56586e-45
1.86183e-64
2.56942e-65
2.1969e-60
7.76218e-58
2.0426e-55
4.22671e-53
8.09285e-51
1.3366e-48
2.12609e-46
2.91274e-44
3.67863e-42
4.5601e-40
4.67949e-38
4.35102e-36
3.96715e-34
3.47928e-32
2.74489e-30
2.33559e-28
5.63734e-26
2.23532e-23
6.47857e-22
-3.02619e-44
-4.35363e-47
2.12597e-68
1.13298e-67
5.06362e-63
2.48758e-60
9.34704e-58
2.4868e-55
6.24437e-53
1.2876e-50
2.57885e-48
4.20659e-46
6.9243e-44
9.64308e-42
1.14676e-39
1.31401e-37
1.4239e-35
1.46488e-33
1.37324e-31
1.3824e-29
3.44402e-27
1.48295e-24
4.53765e-23
-4.06904e-46
-6.30685e-49
0
4.72399e-70
1.13298e-67
2.51481e-63
1.38937e-60
5.81115e-58
1.8317e-55
5.50811e-53
1.31191e-50
3.34782e-48
6.33413e-46
1.03423e-43
1.6213e-41
2.55649e-39
3.40179e-37
3.97386e-35
4.53081e-33
5.67367e-31
1.49636e-28
7.06809e-26
2.25284e-24
-4.76543e-48
-7.58232e-51
-1.17483e-87
1.86023e-72
4.74259e-70
3.60822e-67
1.44809e-63
7.57978e-61
2.8289e-58
9.98402e-56
2.94395e-53
8.47919e-51
2.08491e-48
4.48864e-46
9.51519e-44
1.88378e-41
3.25536e-39
5.0472e-37
7.86594e-35
1.3791e-32
4.41389e-30
2.34946e-27
7.02922e-26
-4.89634e-50
-7.73186e-53
-1.47171e-73
-1.41156e-95
1.86023e-72
1.43039e-69
6.08144e-67
2.0141e-64
1.26539e-61
1.35011e-58
6.20946e-56
2.02449e-53
5.3509e-51
1.24516e-48
2.74629e-46
5.54771e-44
1.10195e-41
2.4207e-39
6.05913e-37
1.58578e-34
8.99957e-32
5.21945e-29
1.13758e-27
-4.48443e-52
-6.72762e-55
-3.40316e-60
0
6.86426e-75
5.42549e-72
2.4038e-69
8.36668e-67
2.58538e-64
7.73566e-62
2.20457e-59
7.86733e-57
6.76299e-54
2.59801e-51
6.37381e-49
1.22867e-46
2.38173e-44
8.27092e-42
3.81725e-39
1.42917e-36
8.23583e-34
3.6725e-31
6.21444e-30
-3.74953e-54
-4.95037e-57
-1.93657e-61
4.48856e-93
2.42112e-77
1.98452e-74
9.06206e-72
3.27365e-69
1.05494e-66
3.31838e-64
9.96822e-62
2.7667e-59
7.11986e-57
1.65171e-54
3.56422e-52
7.31846e-50
1.44272e-47
2.79874e-45
8.48257e-42
5.74059e-39
2.63914e-36
7.08526e-34
1.39809e-32
1
1
1
1
1
1
1
1
1
1
1
1
1
1
1
1
0.939683
0.966494
0.980945
0.99248
0.062361
0.107853
0.190045
0.374813
6.78823e-05
6.78277e-05
6.79535e-05
8.23322e-05
6.78275e-05
6.78056e-05
6.78134e-05
6.82419e-05
6.78056e-05
6.77917e-05
6.77786e-05
6.7776e-05
6.77988e-05
6.77802e-05
6.7776e-05
6.77629e-05
0.000213653
0.000173308
0.000136832
0.000111144
0.000479484
0.000481037
0.000481037
0.000481037
1.4707e-06
0.000231153
0.00045936
0.000217167
2.2719e-13
3.34709e-13
7.54362e-13
1.87001e-12
6.90316e-12
4.11438e-11
1.55688e-10
2.99394e-10
1.56462e-11
2.44759e-11
2.97424e-11
3.19245e-11
2.01886e-11
5.38576e-11
1.07422e-10
1.68156e-10
9.17406e-12
3.71055e-11
1.09975e-10
2.2011e-10
3.99995e-12
1.39225e-11
5.19821e-11
1.30553e-10
2.36003e-12
5.27577e-12
2.07121e-11
7.23403e-11
1.87344e-12
7.06287e-12
4.13257e-11
1.5384e-10
1.41894e-12
9.72467e-12
6.90921e-11
2.41593e-10
6.1628e-13
3.16286e-12
2.78634e-11
1.43443e-10
2.33828e-13
6.0881e-13
3.82996e-12
3.77956e-11
9.77641e-14
1.97312e-13
4.31498e-13
2.39509e-12
3.72441e-14
8.12868e-14
1.61703e-13
2.7976e-13
1.29933e-14
3.22664e-14
7.13667e-14
1.08828e-13
4.18984e-15
1.17202e-14
2.82362e-14
2.54347e-14
1.21619e-15
3.76433e-15
9.6559e-15
8.14939e-15
3.01491e-16
1.01374e-15
2.83244e-15
2.25398e-15
6.16681e-17
2.167e-16
6.73274e-16
5.02372e-16
1.03637e-17
3.60744e-17
1.26113e-16
8.80921e-17
1.45998e-18
4.87922e-18
1.98878e-17
1.2366e-17
1.7728e-19
5.99922e-19
2.95272e-18
9.66199e-19
1.86379e-20
7.10458e-20
4.55489e-19
7.38361e-20
1.64781e-21
8.5047e-21
6.76923e-20
6.01664e-21
1.14038e-22
9.13758e-22
7.93215e-21
4.74158e-22
5.44274e-24
6.26248e-23
5.51012e-22
2.99571e-23
1.42211e-25
1.5082e-24
1.39264e-23
1.04436e-24
1.45555e-27
1.22303e-26
1.66899e-25
1.55542e-26
5.99457e-30
4.47514e-29
6.98623e-28
1.72577e-28
1.74072e-31
4.15678e-31
2.81904e-30
2.81271e-29
1
1
0.541997
0.00195156
4.84199e-07
3.20211e-07
4.0099e-07
3.38388e-06
1.20626e-05
0.000228017
0.00106273
0.000281647
3.82153e-05
1.25649e-05
1.74906e-07
9.35026e-08
9.53687e-08
1.02646e-07
0.789271
1
1
0.939919
0.0943349
3.13884e-07
3.20211e-07
3.20207e-07
4.88604e-07
2.13124e-06
8.85908e-06
7.92101e-06
2.25699e-05
4.77409e-06
1.77557e-07
9.35026e-08
9.35026e-08
9.35026e-08
1.75257e-07
0.782908
1
1
0.992388
0.184271
1.22561e-05
3.15164e-07
5.57579e-07
5.94175e-07
6.67788e-07
9.85108e-07
6.79566e-07
1.4115e-06
3.9621e-07
3.05344e-07
1.12769e-07
9.35026e-08
1.12776e-07
1.46158e-06
0.840643
1
1
1
0.350472
1.30802e-05
8.27356e-07
5.37564e-07
4.78134e-07
4.15582e-07
1.70912e-07
6.99311e-08
3.73751e-08
1.65605e-08
1.74182e-05
9.39192e-06
1.12689e-07
4.83339e-07
3.41357e-05
0.914091
0.999989
0.999999
1
0.735637
2.1087e-05
1.13596e-06
4.78134e-07
4.48639e-07
3.65012e-07
8.15997e-08
2.46188e-08
1.65605e-08
1.42646e-08
0.000181621
0.000205381
4.32742e-05
1.9846e-06
0.204228
0.972531
0.821766
0.995735
0.999997
0.999988
0.239465
2.10958e-05
1.13595e-06
0.00041164
8.88996e-06
7.06041e-08
1.77325e-08
1.42644e-08
1.42646e-08
1.42646e-08
1.48863e-06
4.93625e-06
3.13356e-06
0.63758
1
0.0297292
0.354543
0.935324
0.999981
0.960743
0.650723
0.131193
1.40043e-06
8.61073e-08
1.98283e-08
1.46191e-08
1.46489e-08
0.253265
0.55295
0.620096
0.30271
0.362343
0.872525
1
6.77828e-05
6.85491e-05
0.0882528
0.538603
0.95439
0.948417
0.914478
0.59482
0.178429
0.103111
0.222794
0.488166
0.843038
0.904086
0.906915
0.895175
0.92354
0.950708
0.94494
6.77629e-05
6.77715e-05
6.85496e-05
0.0128721
0.191549
0.538043
0.871445
0.863637
0.835102
0.830513
0.874327
0.90022
0.902895
0.90367
0.90806
0.950527
0.950713
0.950689
0.878169
6.77622e-05
6.77629e-05
6.79625e-05
6.89811e-05
7.13179e-05
0.0169752
0.136475
0.349236
0.520222
0.655674
0.69135
0.675857
0.600093
0.415777
0.254797
0.290804
0.637777
0.949155
0.794981
6.77625e-05
0.000124666
0.000470834
0.000397607
8.19535e-05
4.08217e-08
2.88877e-07
0.000124163
0.0180776
0.0603722
0.0718094
0.060485
0.0240169
0.0214067
0.0214067
0.0214067
0.174563
0.813175
0.893658
0.000442632
0.000471161
0.000471161
0.000385433
5.12053e-05
3.02899e-09
4.08217e-08
7.24608e-07
8.11256e-06
5.03138e-05
0.000207319
0.00100579
0.00283807
0.0334153
0.099795
0.115022
0.344147
0.830462
0.997638
7.88654e-05
6.15808e-05
8.60493e-06
3.02982e-09
1.68437e-06
1.06823e-09
3.02899e-09
4.09638e-08
7.05221e-07
1.05701e-05
6.59614e-05
0.000207354
0.00100576
0.160792
0.643474
0.782761
0.766126
0.865221
1
3.53586e-12
4.94712e-12
8.39126e-12
2.75957e-09
5.42694e-10
9.2065e-10
1.07597e-09
4.05838e-09
5.43123e-08
7.13022e-07
8.3402e-06
7.66311e-05
0.000753495
0.148758
0.614842
0.941754
0.942859
0.922527
1
4.00577e-10
4.17822e-10
3.24775e-10
5.0967e-10
5.24312e-10
8.96132e-10
9.19489e-10
1.34728e-09
9.81558e-09
1.64143e-07
2.72533e-06
0.00149911
0.00324404
0.000468586
0.000756648
0.506397
0.944262
0.945083
0.570619
5.4429e-11
1.48144e-10
3.42799e-10
6.24205e-10
1.13229e-09
1.75423e-09
1.83892e-09
1.92884e-09
3.68922e-09
4.23641e-08
4.41258e-05
0.000767781
0.000451341
0.000331097
0.000468586
0.276461
0.888615
0.953929
0.542752
2.5785e-10
3.61388e-10
4.44805e-10
4.99514e-10
7.66663e-10
6.10373e-09
1.37262e-08
1.27814e-08
1.07679e-08
3.57123e-07
1.40758e-05
3.27456e-06
1.22821e-05
1.72249e-05
0.0289883
0.331211
0.648062
0.955315
0.936558
4.05028e-10
6.03413e-10
6.87492e-10
7.25301e-10
8.21027e-10
1.07711e-09
1.82394e-09
9.19518e-09
2.07899e-08
8.72929e-08
3.06801e-07
1.15054e-06
3.93832e-06
1.06717e-05
0.0510913
0.261616
0.276319
0.584728
1
3.10136e-10
5.92538e-10
1.04728e-09
1.70487e-09
2.02559e-09
1.68047e-09
1.46047e-09
5.79413e-09
9.59348e-08
1.44414e-07
1.37349e-07
1.96633e-07
7.87028e-07
1.93784e-05
0.0241571
0.158443
0.175326
0.186928
0.656749
2.38844e-10
5.26436e-10
1.03883e-09
1.9849e-09
2.51035e-09
1.44905e-09
1.4466e-09
1.46047e-09
4.8806e-08
1.1845e-07
1.20115e-07
1.68882e-07
1.44338e-06
3.25511e-05
0.0137266
0.238183
0.311711
0.0490136
0.00999305
4.21304e-10
7.25097e-10
8.55987e-10
8.48951e-10
1.30312e-09
1.43691e-07
3.4021e-07
1.42839e-07
4.86689e-08
1.08561e-07
1.11241e-07
1.37142e-07
6.6214e-07
1.17421e-05
7.64268e-05
0.0450917
0.311643
0.394859
0.0605065
5.57151e-10
8.10974e-10
8.2307e-10
7.65038e-10
9.62034e-10
3.73862e-07
7.80672e-07
5.54138e-07
4.91287e-08
3.13362e-07
7.61088e-07
7.15594e-07
2.64605e-05
6.97365e-05
4.45315e-05
0.000101554
0.00827575
0.513614
0.648785
4.50556e-10
7.40106e-10
7.50141e-10
5.63564e-10
5.07303e-09
4.77849e-07
7.80672e-07
7.78394e-07
1.06599e-07
3.09076e-07
1.89958e-06
3.2525e-06
1.2336e-05
1.23468e-05
2.69931e-05
4.37185e-05
0.000264204
0.117778
0.733885
2.53034e-10
5.59715e-10
6.3817e-10
5.50063e-10
5.63564e-10
6.58373e-08
5.98326e-07
7.76795e-07
6.42057e-07
2.71262e-07
9.25906e-07
1.44806e-06
1.44732e-06
5.82039e-05
0.000247061
8.5477e-05
0.00238813
0.00858824
0.112832
1.04245e-10
3.71627e-10
5.41529e-10
5.4957e-10
5.50063e-10
5.67322e-10
5.31314e-08
5.54922e-07
6.77064e-07
2.70949e-07
2.78053e-08
2.72896e-08
1.08456e-05
0.00034366
5.25985e-05
4.28215e-05
0.00195884
0.00520493
0.0287347
5.91462e-11
2.50835e-10
3.74263e-10
3.18321e-10
1.2152e-09
2.4789e-08
5.87142e-08
2.71009e-07
6.76406e-07
4.98652e-07
1.87714e-08
1.67011e-08
1.92703e-05
0.000420649
7.0903e-05
2.36656e-05
2.34996e-05
0.00628063
0.566938
3.39756e-11
1.46962e-10
2.07813e-10
1.32577e-10
4.12689e-10
4.90164e-08
1.14469e-07
1.50603e-07
3.06643e-07
3.4067e-07
1.66348e-08
1.59712e-08
0.000238272
0.00042024
0.00018553
2.36656e-05
2.52403e-05
0.00761279
0.779945
1.59152e-11
7.66403e-11
1.20382e-10
1.20676e-10
1.1195e-09
1.11702e-08
2.80384e-08
4.53487e-08
1.46307e-08
1.90555e-08
1.59714e-08
1.59727e-08
0.000225387
0.00030312
4.83932e-05
2.06895e-05
2.75033e-05
0.00189021
0.436289
5.70619e-12
3.50929e-11
8.2436e-11
1.74116e-10
5.4431e-10
5.4474e-10
5.75139e-10
6.26031e-10
5.93505e-10
8.26578e-10
5.75899e-08
1.44302e-06
2.81721e-05
6.71526e-06
1.11239e-06
1.42196e-06
0.00064971
0.000794356
0.141613
1.98908e-12
1.78617e-11
5.80899e-11
1.31436e-10
4.85823e-10
7.11755e-10
6.80713e-10
6.45653e-10
5.68528e-10
5.93505e-10
1.60343e-07
1.361e-06
3.58786e-07
7.13674e-07
8.02823e-07
0.000957836
0.0154936
0.00273135
0.13428
5.85034e-13
7.82542e-12
3.62541e-11
7.48385e-11
2.17789e-10
2.13041e-10
2.13436e-10
2.13436e-10
5.08045e-10
2.38827e-09
5.97371e-08
3.29317e-07
3.58111e-07
3.58786e-07
8.53571e-07
0.0155147
0.0202467
0.00239187
0.263939
1.34815e-13
2.14728e-12
1.55883e-11
2.40484e-11
1.54115e-11
3.78621e-08
1.62843e-07
3.96244e-08
5.36593e-10
5.68225e-10
1.07252e-09
4.78366e-06
0.000100526
8.73473e-07
5.57113e-05
0.0200729
0.0202382
0.00198964
0.244466
2.53073e-14
2.89985e-13
3.44956e-12
7.17276e-12
4.10689e-12
1.86454e-08
4.44842e-07
4.6696e-07
3.57796e-08
7.25387e-10
1.55248e-08
9.26306e-07
9.48719e-10
0.000803529
0.00382811
0.0135522
0.0034929
0.00194775
0.199442
3.56873e-15
2.99361e-14
3.9022e-13
1.08493e-12
3.48644e-12
3.09048e-12
1.79721e-07
4.85395e-07
4.85395e-07
1.78922e-07
9.34164e-09
8.03874e-10
6.09481e-10
0.00368559
0.0120475
0.00330116
0.00194736
0.00195504
0.250932
3.74363e-16
3.6969e-15
4.70999e-14
1.51592e-13
1.50613e-12
1.51753e-12
4.06638e-12
1.2815e-07
3.76539e-07
3.75776e-07
1.17944e-07
6.09481e-10
5.65713e-10
0.00707924
0.0121495
0.0121445
0.0027152
0.00194736
0.440449
3.38059e-17
4.9363e-16
8.72079e-15
2.94087e-14
1.61306e-13
5.75352e-12
5.8181e-12
7.04146e-12
1.5386e-08
6.43389e-08
3.0538e-08
1.2525e-09
5.44777e-10
0.00514271
0.0121445
0.0121486
0.00323991
0.00925894
0.410125
2.95347e-18
6.24069e-17
1.63534e-15
3.8466e-15
1.186e-13
9.648e-12
1.46835e-11
6.91743e-13
2.28146e-13
6.69848e-11
5.21008e-10
6.18231e-10
5.24946e-10
4.95275e-10
0.00971363
0.0121445
0.00343079
0.00849598
0.104083
2.55895e-19
6.37326e-18
1.24303e-16
3.35638e-16
4.14756e-14
2.63155e-12
2.49288e-12
6.99488e-13
5.8996e-29
6.48424e-09
1.60342e-08
2.38966e-08
8.33262e-09
2.55076e-10
0.00117669
0.0114764
0.00502476
0.00391761
2.15498e-21
1.82836e-20
4.29331e-19
4.7746e-18
3.02344e-17
1.22869e-14
5.02511e-14
2.15003e-14
3.17639e-15
-1.04888e-12
1.12528e-07
1.54153e-07
1.54155e-07
1.97283e-08
1.23239e-11
1.48324e-12
0.00925824
0.00588597
0.000255864
0
6.51778e-22
1.47884e-20
1.35085e-19
2.50302e-18
3.11684e-16
3.05751e-17
3.71057e-18
-1.2635e-17
-6.42723e-13
1.21755e-07
1.54157e-07
8.7403e-08
2.74163e-09
3.10278e-14
3.69625e-16
0.00150977
0.00459129
3.92436e-05
0.0792778
4.20255e-24
1.12062e-22
1.78622e-21
2.13323e-20
-1.05423e-17
-7.28166e-18
-5.70186e-18
-3.3983e-18
-1.90987e-13
2.16546e-08
2.07863e-08
-5.32319e-16
2.29367e-32
-1.32632e-32
-5.76133e-32
-9.00207e-34
0.00116074
1.56902e-06
0.402599
6.68225e-27
1.87221e-25
3.24838e-24
-1.89959e-21
-5.62991e-18
-1.16963e-18
-5.48249e-19
-3.70832e-19
-1.65723e-18
-8.4553e-19
-2.39927e-19
-4.44991e-20
-6.70596e-21
-1.07716e-21
-3.3371e-22
-1.85121e-22
-6.30536e-24
2.47447e-22
0.150177
)
;

boundaryField
{
    leftWall
    {
        type            zeroGradient;
    }
    rightWall
    {
        type            zeroGradient;
    }
    lowerWall
    {
        type            zeroGradient;
    }
    atmosphere
    {
        type            inletOutlet;
        inletValue      uniform 0;
        value           nonuniform List<scalar> 
46
(
-3.74953e-54
-4.95037e-57
-1.93657e-61
4.48856e-93
2.42112e-77
1.98452e-74
9.06206e-72
3.27365e-69
1.05494e-66
3.31838e-64
9.96822e-62
2.7667e-59
7.11986e-57
1.65171e-54
3.56422e-52
7.31846e-50
1.44272e-47
2.79874e-45
8.48257e-42
5.74059e-39
2.63914e-36
7.08526e-34
1.39809e-32
1.74072e-31
4.15678e-31
2.81904e-30
2.81271e-29
6.68225e-27
1.87221e-25
3.24838e-24
-1.89959e-21
-5.62991e-18
-1.16963e-18
0
0
0
0
0
0
0
0
0
0
0
0
0.150177
)
;
    }
    defaultFaces
    {
        type            empty;
    }
}


// ************************************************************************* //
