/*--------------------------------*- C++ -*----------------------------------*\
| =========                 |                                                 |
| \\      /  F ield         | OpenFOAM: The Open Source CFD Toolbox           |
|  \\    /   O peration     | Version:  5.x                                   |
|   \\  /    A nd           | Web:      www.OpenFOAM.org                      |
|    \\/     M anipulation  |                                                 |
\*---------------------------------------------------------------------------*/
FoamFile
{
    version     2.0;
    format      ascii;
    class       volScalarField;
    location    "0.5";
    object      p;
}
// * * * * * * * * * * * * * * * * * * * * * * * * * * * * * * * * * * * * * //

dimensions      [1 -1 -2 0 0 0 0];

internalField   nonuniform List<scalar> 
2268
(
643.888
640.273
643.138
650.234
660.859
669.442
675.454
680.276
686.285
694.887
706.403
720.699
737.479
756.404
777.21
799.405
821.799
842.607
856.181
869.6
852.222
844.069
884.518
584.692
580.315
582.908
589.814
600.426
609.247
615.447
620.393
626.539
635.277
646.872
661.067
677.676
696.415
716.964
738.922
761.432
783.131
799.396
815.128
802.178
773.593
819.491
524.824
519.652
521.547
527.897
538.5
547.772
554.337
559.528
565.94
574.948
586.759
601.177
617.901
636.682
657.112
678.62
700.297
721.193
738.393
753.207
746.206
708.224
758.59
464.891
458.565
459.164
464.621
475.181
485.137
492.244
497.792
504.591
513.982
526.09
540.706
557.588
576.443
596.889
618.307
639.69
659.896
676.624
689.48
686.608
664.467
707.548
405.562
397.514
396.056
400.063
410.52
421.469
429.306
435.294
442.59
452.469
464.932
479.788
496.867
515.867
536.46
557.997
579.479
599.559
616.155
628.437
631.212
623.568
662.039
347.563
337.275
332.675
334.535
344.935
357.115
365.756
372.153
379.973
390.42
403.301
418.465
435.785
454.967
475.832
497.676
519.519
539.881
556.891
569.685
577.065
579.202
614.816
291.593
278.199
269.82
269.177
279.455
292.526
301.718
308.521
316.899
327.873
341.102
356.589
374.47
393.787
415.017
437.325
459.756
480.667
498.335
511.756
520.802
526.181
549.557
237.839
222.629
209.266
204.178
213.735
227.059
236.372
243.979
253.499
265.246
278.724
294.073
310.927
332.011
353.918
377.083
400.489
422.154
440.494
454.396
462.84
467.192
469.36
279.579
271.356
262.701
260.337
260.411
260.041
260.195
260.141
258.981
256.444
255.806
257.021
258.545
263.348
264.749
275.526
493.066
1131.67
1706.66
279.026
268.871
260.319
259.279
258.759
259.005
259.942
260.372
259.033
255.61
254.902
255.23
252.663
245.915
245.952
251.452
286.379
558.082
1403.54
266.632
258.073
257.723
257.772
257.489
257.515
258.661
260.927
259.425
255.008
252.467
247.737
243.085
243.367
245.448
248.336
260.521
355.674
920.382
263.864
256.742
257.456
257.553
257.32
257.098
257.861
261.836
260.572
255.203
246.808
238.46
239.29
242.097
244.988
247.626
253.661
288.527
533.64
239.769
256.593
257.383
257.374
257.131
256.801
257.673
262.284
261.993
255.291
238.253
230.536
235.491
240.748
244.261
246.688
248.787
274.217
462.333
188.587
255.449
257.174
257.209
256.922
256.621
257.566
261.545
262.598
252.895
229.819
225.615
232.712
239.398
243.539
245.675
246.022
258.234
431.336
103.062
242.008
256.792
257.16
256.787
256.544
257.348
260.287
260.602
249.198
222.988
222.426
231.315
238.625
242.994
244.825
245.264
246.637
372.424
7.72506
185.284
256.78
257.207
256.717
256.537
257.114
259.001
258.295
247.577
222.526
222.003
231.033
238.438
242.605
244.252
244.921
243.011
282.938
156.467
139.647
117.891
104.632
111.807
123.93
131.949
140.468
152.465
166.677
181.71
198.465
216.951
236.055
257.943
282.002
307.293
330.794
350.708
365.863
371.28
359.26
283.256
64.7376
40.2597
22.3743
14.6568
18.1473
24.0304
27.4512
30.6049
35.6515
44.1865
52.9125
64.3436
79.4099
99.9501
124.821
154.012
184.581
210.849
233.244
251.873
262.455
262.363
256.095
4.60418
0.0105479
-0.251879
-0.0867509
-0.0869597
-0.0606762
-0.0315119
-0.0146025
0.0771231
0.585711
2.42981
5.30196
9.32709
15.493
25.536
42.7183
66.0319
92.6873
121.81
147.136
162.594
173.875
185.135
-0.322258
-0.366069
-0.363433
-0.294347
-0.264039
-0.237075
-0.236416
-0.220971
-0.203664
-0.236761
-0.304939
-0.350463
-0.377382
-0.362899
-0.143796
0.74665
4.85839
16.3522
35.9638
60.749
72.274
83.2946
95.2506
-0.413243
-0.388889
-0.396992
-0.409115
-0.408866
-0.400472
-0.402966
-0.416983
-0.448523
-0.502446
-0.522981
-0.537886
-0.557482
-0.524759
-0.405021
-0.35113
-0.385166
-0.201192
1.33212
4.64624
12.4148
28.5336
49.2999
-0.548151
-0.550481
-0.553379
-0.552438
-0.546961
-0.540465
-0.538545
-0.542909
-0.556694
-0.582134
-0.607526
-0.63474
-0.67203
-0.680537
-0.636914
-0.616464
-0.609927
-0.588153
-0.561285
-0.543466
-0.527294
-0.145973
1.23443
-0.693496
-0.692593
-0.689452
-0.693524
-0.694266
-0.693829
-0.697473
-0.705803
-0.718697
-0.734078
-0.748137
-0.761033
-0.771852
-0.77987
-0.764186
-0.740785
-0.744206
-0.759
-0.756146
-0.72071
-0.713072
-0.703532
-0.593991
-0.836134
-0.835666
-0.834839
-0.837329
-0.838839
-0.840638
-0.844636
-0.851747
-0.861705
-0.872523
-0.882581
-0.891557
-0.898098
-0.904347
-0.899857
-0.889384
-0.884449
-0.883871
-0.874308
-0.861693
-0.875201
-0.936551
-0.969279
-0.98066
-0.980137
-0.979786
-0.981591
-0.983398
-0.985862
-0.989726
-0.995459
-1.003
-1.01093
-1.01798
-1.0234
-1.02641
-1.02993
-1.02961
-1.02664
-1.02578
-1.0297
-1.03231
-1.04997
-1.08619
-1.16079
-1.21858
-1.12489
-1.12419
-1.12417
-1.12563
-1.12742
-1.12988
-1.13327
-1.13776
-1.14344
-1.14919
-1.15442
-1.15863
-1.16139
-1.16354
-1.16401
-1.16359
-1.16459
-1.16855
-1.17639
-1.20313
-1.24643
-1.32089
-1.38456
-1.26838
-1.26781
-1.26798
-1.26921
-1.27085
-1.27305
-1.27589
-1.27936
-1.28347
-1.28763
-1.29136
-1.29438
-1.29656
-1.29816
-1.29928
-1.30033
-1.3027
-1.30721
-1.31792
-1.3427
-1.38482
-1.43752
-1.47728
-1.41136
-1.41098
-1.41127
-1.41232
-1.41375
-1.41562
-1.41793
-1.42061
-1.42352
-1.42667
-1.42928
-1.43148
-1.43321
-1.43457
-1.43592
-1.43765
-1.44035
-1.44485
-1.45446
-1.47432
-1.50733
-1.54782
-1.58125
-1.55395
-1.55375
-1.5541
-1.55499
-1.55621
-1.55776
-1.55962
-1.5617
-1.5639
-1.56611
-1.56806
-1.56971
-1.57109
-1.57229
-1.57362
-1.5754
-1.57799
-1.58212
-1.58981
-1.60415
-1.62731
-1.6574
-1.68772
-1.69625
-1.69619
-1.69656
-1.69732
-1.69834
-1.69961
-1.70108
-1.7027
-1.70438
-1.70601
-1.70748
-1.70875
-1.70985
-1.71087
-1.71204
-1.71358
-1.71582
-1.71932
-1.72521
-1.73489
-1.74928
-1.76747
-1.78428
-1.83835
-1.83838
-1.83875
-1.83938
-1.84022
-1.84125
-1.84242
-1.84369
-1.84497
-1.84621
-1.84734
-1.84833
-1.84921
-1.85007
-1.85105
-1.85232
-1.85413
-1.8569
-1.86125
-1.86776
-1.87648
-1.88611
-1.89394
-1.98029
-1.98038
-1.98072
-1.98124
-1.98193
-1.98276
-1.98369
-1.98468
-1.98568
-1.98664
-1.98752
-1.9883
-1.98902
-1.98974
-1.99056
-1.99161
-1.99307
-1.99518
-1.99826
-2.00256
-2.00794
-2.01345
-2.01746
-2.12213
-2.12224
-2.12253
-2.12296
-2.12352
-2.12419
-2.12493
-2.12571
-2.1265
-2.12726
-2.12795
-2.12859
-2.12919
-2.1298
-2.13049
-2.13136
-2.13252
-2.13413
-2.13634
-2.1392
-2.14254
-2.14573
-2.14774
-2.26387
-2.26398
-2.26423
-2.26458
-2.26503
-2.26557
-2.26617
-2.2668
-2.26743
-2.26804
-2.26861
-2.26915
-2.26967
-2.27021
-2.27082
-2.27157
-2.27254
-2.2738
-2.27544
-2.27745
-2.27972
-2.28187
-2.28329
-2.40554
-2.40564
-2.40584
-2.40614
-2.4065
-2.40694
-2.40742
-2.40794
-2.40845
-2.40896
-2.40945
-2.40992
-2.4104
-2.4109
-2.41148
-2.41217
-2.41304
-2.41414
-2.41549
-2.4171
-2.41888
-2.42067
-2.42209
-2.54716
-2.54724
-2.5474
-2.54764
-2.54795
-2.54831
-2.54871
-2.54914
-2.54957
-2.55001
-2.55045
-2.55089
-2.55134
-2.55184
-2.55242
-2.55312
-2.55396
-2.55501
-2.55627
-2.55774
-2.55939
-2.56129
-2.56314
-2.68875
-2.6888
-2.68893
-2.68913
-2.68938
-2.68968
-2.69002
-2.69039
-2.69078
-2.69117
-2.69158
-2.692
-2.69246
-2.69299
-2.6936
-2.69433
-2.69523
-2.69632
-2.69762
-2.69916
-2.70071
-2.70317
-2.70554
-2.8303
-2.83034
-2.83043
-2.8306
-2.83082
-2.83108
-2.83137
-2.8317
-2.83205
-2.83242
-2.83282
-2.83325
-2.83373
-2.83429
-2.83495
-2.83576
-2.83674
-2.83794
-2.83939
-2.84129
-2.84375
-2.84591
-2.84873
-2.97184
-2.97185
-2.97192
-2.97207
-2.97226
-2.97249
-2.97275
-2.97305
-2.97338
-2.97374
-2.97414
-2.97459
-2.9751
-2.97571
-2.97644
-2.97732
-2.97841
-2.97977
-2.98146
-2.98346
-2.98592
-2.98873
-2.99215
-3.11336
-3.11336
-3.11341
-3.11354
-3.1137
-3.11391
-3.11416
-3.11444
-3.11476
-3.11512
-3.11553
-3.11599
-3.11654
-3.1172
-3.118
-3.11897
-3.12016
-3.12163
-3.12344
-3.12564
-3.12833
-3.13155
-3.13548
-3.25489
-3.25486
-3.25489
-3.25501
-3.25516
-3.25535
-3.25558
-3.25585
-3.25617
-3.25653
-3.25695
-3.25744
-3.25803
-3.25873
-3.25959
-3.26063
-3.26191
-3.26348
-3.26541
-3.26777
-3.27066
-3.27418
-3.27848
-3.39641
-3.39637
-3.39638
-3.39648
-3.39661
-3.3968
-3.39702
-3.39728
-3.3976
-3.39797
-3.3984
-3.39892
-3.39953
-3.40027
-3.40117
-3.40227
-3.40361
-3.40526
-3.40727
-3.40974
-3.41277
-3.41646
-3.42097
-3.53793
-3.53787
-3.53786
-3.53796
-3.53808
-3.53825
-3.53846
-3.53873
-3.53904
-3.53942
-3.53986
-3.54039
-3.54102
-3.54179
-3.54271
-3.54384
-3.54522
-3.54691
-3.54897
-3.55149
-3.55456
-3.5583
-3.56285
-3.67944
-3.67938
-3.67933
-3.67943
-3.67954
-3.6797
-3.67991
-3.68017
-3.68048
-3.68086
-3.68131
-3.68185
-3.68249
-3.68327
-3.68421
-3.68535
-3.68673
-3.68842
-3.69046
-3.69296
-3.69599
-3.69966
-3.70411
-3.82092
-3.82088
-3.82082
-3.8209
-3.82099
-3.82115
-3.82135
-3.82161
-3.82192
-3.8223
-3.82274
-3.82328
-3.82393
-3.8247
-3.82563
-3.82676
-3.82812
-3.82976
-3.83175
-3.83415
-3.83706
-3.84055
-3.84475
-3.96236
-3.96236
-3.96225
-3.96234
-3.96243
-3.96259
-3.96278
-3.96303
-3.96334
-3.96371
-3.96416
-3.96469
-3.96532
-3.96609
-3.967
-3.96809
-3.9694
-3.97097
-3.97285
-3.9751
-3.97782
-3.98104
-3.98488
-4.10374
-4.10382
-4.10367
-4.10377
-4.10386
-4.104
-4.1042
-4.10444
-4.10474
-4.1051
-4.10554
-4.10606
-4.10668
-4.10742
-4.1083
-4.10934
-4.11058
-4.11205
-4.11379
-4.11586
-4.11833
-4.12122
-4.12461
-4.24511
-4.24522
-4.24506
-4.24518
-4.24525
-4.2454
-4.24559
-4.24582
-4.24612
-4.24647
-4.24689
-4.24739
-4.24799
-4.24869
-4.24953
-4.2505
-4.25166
-4.25302
-4.25461
-4.25648
-4.25866
-4.2612
-4.26411
-4.38646
-4.38656
-4.38642
-4.38656
-4.38662
-4.38678
-4.38695
-4.38718
-4.38746
-4.3878
-4.3882
-4.38868
-4.38924
-4.3899
-4.39068
-4.39159
-4.39265
-4.39389
-4.39532
-4.39698
-4.39888
-4.40104
-4.40347
-4.52779
-4.52794
-4.52778
-4.52792
-4.52798
-4.52813
-4.5283
-4.52851
-4.52878
-4.52909
-4.52947
-4.52991
-4.53044
-4.53105
-4.53176
-4.53259
-4.53355
-4.53466
-4.53593
-4.53737
-4.539
-4.54081
-4.5428
-4.66909
-4.66921
-4.6691
-4.66926
-4.66931
-4.66946
-4.66961
-4.66982
-4.67006
-4.67035
-4.67069
-4.6711
-4.67157
-4.67213
-4.67277
-4.67351
-4.67437
-4.67534
-4.67644
-4.67767
-4.67903
-4.68052
-4.68209
-4.81038
-4.81047
-4.8104
-4.81058
-4.81061
-4.81076
-4.8109
-4.81108
-4.8113
-4.81156
-4.81186
-4.81222
-4.81264
-4.81313
-4.81369
-4.81434
-4.81508
-4.81591
-4.81684
-4.81787
-4.81898
-4.82017
-4.82138
-4.95166
-4.95173
-4.9517
-4.95188
-4.9519
-4.95205
-4.95216
-4.95232
-4.95251
-4.95272
-4.95298
-4.95329
-4.95365
-4.95406
-4.95454
-4.95509
-4.95571
-4.9564
-4.95717
-4.958
-4.95889
-4.95981
-4.9607
-5.09296
-5.09305
-5.09301
-5.09321
-5.0932
-5.09334
-5.09343
-5.09357
-5.09371
-5.09389
-5.0941
-5.09435
-5.09464
-5.09498
-5.09537
-5.09582
-5.09632
-5.09688
-5.09748
-5.09814
-5.09883
-5.09952
-5.10016
-5.23433
-5.23441
-5.23437
-5.23455
-5.23453
-5.23465
-5.23472
-5.23482
-5.23494
-5.23508
-5.23524
-5.23543
-5.23565
-5.23592
-5.23622
-5.23656
-5.23695
-5.23738
-5.23785
-5.23835
-5.23885
-5.23935
-5.23979
-5.3757
-5.37576
-5.37572
-5.37587
-5.37585
-5.37594
-5.37598
-5.37606
-5.37614
-5.37624
-5.37635
-5.37648
-5.37665
-5.37683
-5.37705
-5.37729
-5.37758
-5.37788
-5.37821
-5.37857
-5.37892
-5.37926
-5.37953
-5.51702
-5.51705
-5.51705
-5.51714
-5.51711
-5.51717
-5.5172
-5.51724
-5.51729
-5.51735
-5.51741
-5.5175
-5.51759
-5.5177
-5.51783
-5.51798
-5.51814
-5.51832
-5.51852
-5.51873
-5.51894
-5.51913
-5.5193
-5.65836
-5.65836
-5.65836
-5.65839
-5.65838
-5.65841
-5.65841
-5.65843
-5.65844
-5.65846
-5.65848
-5.65851
-5.65854
-5.65858
-5.65862
-5.65866
-5.65872
-5.65878
-5.65884
-5.65891
-5.65897
-5.65904
-5.6591
118.176
114.702
126.04
102.079
231.994
219.009
203.159
184.406
174.49
166.184
164.378
165.885
101.096
104.049
109.454
118.265
56.2812
56.9273
61.1063
70.6474
3.33925
5.90201
10.8866
21.8388
-0.454745
-0.391562
-0.363196
-0.424063
-0.952865
-0.964642
-1.05713
-1.18143
-1.23856
-1.24641
-1.26525
-1.28238
-1.41362
-1.40349
-1.36968
-1.32961
-1.4847
-1.47412
-1.45324
-1.42726
-1.58294
-1.57743
-1.56642
-1.54901
-1.70003
-1.70451
-1.6968
-1.68688
-1.79283
-1.79796
-1.79935
-1.79359
-1.89691
-1.89738
-1.89568
-1.89206
-2.01844
-2.01826
-2.01727
-2.01564
-2.14784
-2.14744
-2.14659
-2.14536
-2.28358
-2.28356
-2.28343
-2.28327
-2.42272
-2.42309
-2.42344
-2.42388
-2.56442
-2.5652
-2.56611
-2.56722
-2.70743
-2.70874
-2.71024
-2.71201
-2.85123
-2.85301
-2.85505
-2.85741
-2.99523
-2.99743
-2.99992
-3.00279
-3.13903
-3.14157
-3.14442
-3.14768
-3.28237
-3.28514
-3.28825
-3.29177
-3.42505
-3.42795
-3.43119
-3.43484
-3.56698
-3.5699
-3.57316
-3.57679
-3.70812
-3.71097
-3.71412
-3.71761
-3.84853
-3.85121
-3.85416
-3.8574
-3.98831
-3.99074
-3.9934
-3.9963
-4.12762
-4.12973
-4.13205
-4.13454
-4.26664
-4.26842
-4.27034
-4.2724
-4.40555
-4.40698
-4.40851
-4.41013
-4.54443
-4.54555
-4.54671
-4.54793
-4.68334
-4.68417
-4.68501
-4.68587
-4.82229
-4.82288
-4.82345
-4.82401
-4.96134
-4.96173
-4.96209
-4.96242
-5.10058
-5.10082
-5.10103
-5.10119
-5.24005
-5.2402
-5.24031
-5.24038
-5.37969
-5.37978
-5.37984
-5.37985
-5.51939
-5.51944
-5.51946
-5.51946
-5.65912
-5.65913
-5.65913
-5.65913
29.5412
159.296
243.625
257.435
256.643
256.485
256.68
257.034
255.349
248.083
232.592
226.838
232.673
238.87
242.328
243.798
244.45
243.045
251.068
150.977
203.837
250.49
255.577
255.958
255.86
255.7
255.158
252.907
248.162
241.254
237.435
238.249
240.836
242.794
243.93
244.517
243.966
248.9
170.765
205.188
247.801
254.893
255.31
254.956
254.62
253.74
251.866
248.943
245.217
242.472
241.863
242.513
243.401
244.311
244.724
244.326
248.167
136.772
175.915
228.503
253.525
254.216
253.911
253.549
252.518
250.931
248.953
246.627
244.805
244.093
243.788
243.928
244.595
244.946
245.838
247.468
91.636
129.768
193.014
251.31
253.635
253.284
252.999
251.583
250.115
248.709
247.168
246.028
245.588
244.471
244.178
244.599
244.873
243.779
274.972
49.7178
69.3973
129.36
219.87
246.965
253.238
252.173
250.017
249.345
248.452
247.127
246.317
247.129
244.988
244.227
244.432
244.866
239.98
360.4
-0.0026518
16.9878
54.2368
121.118
187.109
214.644
245.971
248.476
248.654
248.091
246.584
244.8
237.085
211.149
206.47
224.345
222.132
277.447
517.008
-1.38729
-1.25983
3.30309
31.4521
75.5614
134.522
179.878
213.44
238.293
241.464
231.76
213.496
143.804
120.528
153.209
207.341
279.354
461.657
716.518
-1.40231
-1.14349
-1.09592
-0.478296
10.37
33.5473
71.857
134.211
186.154
191.211
161.685
121.474
94.4457
104.91
154.11
241.893
380.202
590.401
801.713
-1.29745
-1.26136
-1.23499
-1.12027
-1.12345
-0.422252
7.29231
21.0411
36.2579
49.3971
46.3303
42.445
48.548
61.7728
97.9559
154.879
267.655
514.818
707.394
-1.36267
-1.31323
-1.31151
-1.32601
-1.33553
-1.32635
-1.27186
-1.01806
0.0465548
2.85483
0.279896
-1.60799
19.556
60.7191
94.1864
130.027
174.495
321.696
503.894
-1.50592
-1.48889
-1.45757
-1.4283
-1.38572
-1.39533
-1.32052
-1.09029
-0.732269
-0.409069
-1.30283
-3.30182
-0.372371
17.4855
71.044
114.973
148.02
226.539
339.678
-1.6549
-1.61498
-1.58898
-1.57548
-1.53682
-1.49386
-1.42774
-1.31779
-1.18381
-1.0719
-1.36081
-2.36427
-4.79193
-9.23991
35.5145
103.029
180.454
202.861
246.793
-1.77967
-1.76159
-1.73349
-1.69706
-1.65861
-1.61453
-1.54829
-1.46708
-1.40206
-1.42206
-1.70145
-2.35759
-3.06021
0.591897
31.6573
108.474
187.377
188.4
197.678
-1.88311
-1.86751
-1.8511
-1.82995
-1.79897
-1.75641
-1.69805
-1.63097
-1.58117
-1.62698
-1.95679
-2.75571
-3.76943
-4.96275
-0.872532
26.9824
142.778
145.88
154.17
-2.01167
-2.00178
-1.98855
-1.97109
-1.94596
-1.91048
-1.86517
-1.81741
-1.78792
-1.83772
-2.11179
-2.80221
-3.21962
-3.57896
-1.70988
0.296465
70.7859
78.0314
113.066
-2.1431
-2.13767
-2.13004
-2.11829
-2.09995
-2.07357
-2.04183
-2.0132
-2.00351
-2.04392
-2.18168
-2.52102
-2.60501
-2.7447
-2.42321
-1.24352
14.5266
-5.6866
66.2227
-2.2821
-2.27941
-2.27587
-2.26975
-2.25856
-2.24158
-2.22238
-2.20907
-2.21338
-2.24567
-2.29691
-2.33562
-2.25323
-2.31168
-2.22854
-4.5355
-9.2775
-11.8178
51.9401
-2.42445
-2.42471
-2.42495
-2.42396
-2.41949
-2.41123
-2.40303
-2.40158
-2.41418
-2.44327
-2.46032
-2.39552
-2.26669
-2.25139
-2.38031
-4.61971
2.86527
38.6459
81.3628
-2.56918
-2.5721
-2.57579
-2.57939
-2.58095
-2.58035
-2.5814
-2.58943
-2.60796
-2.63947
-2.66916
-2.63168
-2.54244
-2.53995
-2.20319
3.29292
17.7902
43.5957
52.7303
-2.71524
-2.72053
-2.72722
-2.73481
-2.74171
-2.74776
-2.75641
-2.77229
-2.7977
-2.83752
-2.89944
-2.96174
-3.03715
-3.21807
-3.45766
-2.47253
9.60632
34.2218
55.3228
-2.86178
-2.8691
-2.87833
-2.88933
-2.90087
-2.9127
-2.92781
-2.95096
-2.98573
-3.04078
-3.1465
-3.33203
-3.58496
-3.84861
-4.08782
-4.18501
-1.1419
29.1003
28.6979
-3.00809
-3.01709
-3.02839
-3.04217
-3.05758
-3.07443
-3.09536
-3.12564
-3.17112
-3.24343
-3.3806
-3.6293
-3.95306
-4.22471
-4.40932
-4.21457
-2.66682
1.11976
48.1919
-3.1537
-3.16395
-3.17678
-3.19263
-3.21101
-3.23188
-3.25791
-3.29468
-3.34953
-3.4346
-3.58338
-3.84645
-4.20298
-4.59511
-4.78722
-4.59421
-3.89297
-2.31451
12.3375
-3.29827
-3.3093
-3.32304
-3.34015
-3.36041
-3.38385
-3.41311
-3.45397
-3.5141
-3.60381
-3.74785
-3.99822
-4.33505
-4.85345
-5.03929
-4.82912
-4.31948
-2.88232
13.3296
-3.44155
-3.45289
-3.4669
-3.48443
-3.50541
-3.52959
-3.55928
-3.60005
-3.65887
-3.74264
-3.86571
-4.07968
-4.3774
-4.83809
-5.03105
-4.8094
-4.41576
-4.40523
-0.344967
-3.58345
-3.59462
-3.60828
-3.62543
-3.64597
-3.66911
-3.69668
-3.73334
-3.78406
-3.85181
-3.94138
-4.0938
-4.31989
-4.63979
-4.76781
-4.5672
-4.25203
-4.03446
9.22758
-3.72399
-3.73459
-3.74737
-3.76341
-3.78254
-3.80337
-3.82729
-3.85779
-3.89715
-3.94493
-3.99903
-4.07497
-4.19082
-4.33624
-4.41176
-4.30929
-4.09283
-3.82472
0.264645
-3.86328
-3.87298
-3.88447
-3.89886
-3.916
-3.93375
-3.95332
-3.97693
-4.00497
-4.03539
-4.06146
-4.07113
-4.08283
-4.11625
-4.15728
-4.14311
-3.83521
-3.22879
-1.52702
-4.00152
-4.01008
-4.02003
-4.03247
-4.04751
-4.06188
-4.07677
-4.09327
-4.11103
-4.12798
-4.13711
-4.11765
-4.06532
-4.0369
-4.07079
-4.03792
-3.89753
-1.29143
4.87042
-4.13899
-4.14623
-4.15448
-4.16473
-4.17765
-4.18885
-4.19917
-4.20913
-4.218
-4.22556
-4.22888
-4.20844
-4.16403
-4.14721
-4.16736
-4.13754
-2.03171
0.818372
9.0084
-4.27604
-4.28184
-4.2883
-4.29606
-4.30637
-4.31482
-4.3195
-4.32239
-4.32384
-4.32727
-4.33481
-4.33628
-4.31534
-4.27288
-4.18853
-3.93431
-1.97536
-0.888596
7.56209
-4.41295
-4.41731
-4.42203
-4.42725
-4.43448
-4.44053
-4.43993
-4.43287
-4.42618
-4.43107
-4.4506
-4.46838
-4.4566
-4.31633
-4.11426
-3.87555
-2.94339
-3.54863
-0.40024
-4.55
-4.553
-4.55617
-4.55896
-4.56274
-4.5663
-4.565
-4.55392
-4.5405
-4.54226
-4.57392
-4.59384
-4.5903
-4.4332
-4.0526
-3.98524
-3.3675
-3.64105
-1.31937
-4.68729
-4.68911
-4.69078
-4.69187
-4.69265
-4.69312
-4.69122
-4.68401
-4.67204
-4.67073
-4.69221
-4.71185
-4.72379
-4.71293
-4.40597
-4.24132
-3.57676
-4.41365
1.28514
-4.8249
-4.8258
-4.82628
-4.826
-4.82481
-4.82284
-4.81932
-4.81416
-4.80735
-4.80624
-4.81377
-4.82182
-4.83064
-4.87416
-4.6863
-4.42472
-3.30939
-6.0523
6.89691
-4.96289
-4.96312
-4.96278
-4.96166
-4.95932
-4.95604
-4.95156
-4.94609
-4.94178
-4.94331
-4.94843
-4.96206
-4.97135
-5.07532
-4.85891
-4.24875
-2.86962
-3.80977
4.5143
-5.10138
-5.10119
-5.10035
-5.09888
-5.09589
-5.09232
-5.08794
-5.081
-5.07869
-5.08117
-5.0842
-5.09431
-5.10281
-5.14263
-5.13739
-4.56474
-2.54246
-2.55675
-1.55186
-5.2404
-5.23999
-5.23895
-5.23741
-5.23421
-5.23087
-5.22665
-5.21861
-5.21667
-5.21677
-5.21108
-5.20469
-5.21577
-5.23608
-5.32506
-4.82503
-2.05729
-3.12676
-2.66432
-5.3798
-5.37936
-5.37842
-5.37702
-5.37416
-5.37127
-5.36735
-5.35942
-5.35702
-5.35283
-5.33647
-5.32198
-5.33975
-5.38063
-5.49171
-5.40377
-4.89718
-4.49178
-6.52926
-5.5194
-5.51908
-5.51844
-5.51742
-5.51541
-5.51337
-5.51045
-5.50526
-5.50438
-5.50295
-5.49143
-5.4872
-5.52094
-5.58284
-5.69555
-5.64001
-5.27548
-4.62862
-4.33304
-5.65911
-5.65899
-5.65874
-5.65834
-5.6576
-5.65685
-5.65558
-5.65465
-5.65663
-5.65924
-5.66136
-5.68273
-5.74579
-5.8352
-5.99661
-5.86715
-6.9865
-6.3181
-19.591
)
;

boundaryField
{
    leftWall
    {
        type            calculated;
        value           nonuniform List<scalar> 
50
(
643.888
584.692
524.824
464.891
405.562
347.563
291.593
237.839
156.467
64.7376
4.60418
-0.322258
-0.413243
-0.548151
-0.693496
-0.836134
-0.98066
-1.12489
-1.26838
-1.41136
-1.55395
-1.69625
-1.83835
-1.98029
-2.12213
-2.26387
-2.40554
-2.54716
-2.68875
-2.8303
-2.97184
-3.11336
-3.25489
-3.39641
-3.53793
-3.67944
-3.82092
-3.96236
-4.10374
-4.24511
-4.38646
-4.52779
-4.66909
-4.81038
-4.95166
-5.09296
-5.23433
-5.3757
-5.51702
-5.65836
)
;
    }
    rightWall
    {
        type            calculated;
        value           nonuniform List<scalar> 
50
(
1706.66
1403.54
920.382
533.64
462.333
431.336
372.424
282.938
251.068
248.9
248.167
247.468
274.972
360.4
517.008
716.518
801.713
707.394
503.894
339.678
246.793
197.678
154.17
113.066
66.2227
51.9401
81.3628
52.7303
55.3228
28.6979
48.1919
12.3375
13.3296
-0.344967
9.22758
0.264645
-1.52702
4.87042
9.0084
7.56209
-0.40024
-1.31937
1.28514
6.89691
4.5143
-1.55186
-2.66432
-6.52926
-4.33304
-19.591
)
;
    }
    lowerWall
    {
        type            calculated;
        value           nonuniform List<scalar> 
62
(
673.317
669.703
672.568
679.663
690.288
698.871
704.883
709.705
715.714
724.317
735.832
750.128
766.908
785.834
806.64
828.834
851.228
872.036
885.608
895.932
875.465
873.498
913.947
884.518
819.491
758.59
707.548
662.039
614.816
549.557
469.36
180.773
177.299
188.637
164.676
279.579
279.026
266.632
263.864
239.769
188.587
103.062
7.72506
279.609
271.406
262.744
260.423
260.573
260.144
260.23
260.17
259.01
256.473
255.835
257.05
258.575
263.467
268.604
284.757
508.868
1151.87
1725.42
)
;
    }
    atmosphere
    {
        type            calculated;
        value           nonuniform List<scalar> 
46
(
-5.72904
-5.72904
-5.72904
-5.72904
-5.72904
-5.72904
-5.72904
-5.72904
-5.72904
-5.72904
-5.72904
-5.72904
-5.72904
-5.72904
-5.72904
-5.72904
-5.72904
-5.72904
-5.72904
-5.72904
-5.72904
-5.72904
-5.72904
-5.72904
-5.72904
-5.72904
-5.72904
-5.72904
-5.72904
-5.72904
-5.72904
-5.72904
-5.72904
-5.72904
-5.73006
-5.73428
-5.73823
-5.74742
-5.78817
-5.87744
-5.97889
-6.06114
-6.01261
-6.01469
-5.88344
-865.236
)
;
    }
    defaultFaces
    {
        type            empty;
    }
}


// ************************************************************************* //
