/*--------------------------------*- C++ -*----------------------------------*\
| =========                 |                                                 |
| \\      /  F ield         | OpenFOAM: The Open Source CFD Toolbox           |
|  \\    /   O peration     | Version:  5.x                                   |
|   \\  /    A nd           | Web:      www.OpenFOAM.org                      |
|    \\/     M anipulation  |                                                 |
\*---------------------------------------------------------------------------*/
FoamFile
{
    version     2.0;
    format      ascii;
    class       volScalarField;
    location    "0.5";
    object      p_rgh;
}
// * * * * * * * * * * * * * * * * * * * * * * * * * * * * * * * * * * * * * //

dimensions      [1 -1 -2 0 0 0 0];

internalField   nonuniform List<scalar> 
2268
(
673.317
669.703
672.568
679.663
690.288
698.871
704.883
709.705
715.714
724.317
735.832
750.128
766.908
785.834
806.64
828.834
851.228
872.036
885.608
895.932
875.465
873.498
913.947
672.98
668.603
671.196
678.102
688.714
697.535
703.735
708.682
714.827
723.565
735.16
749.355
765.964
784.703
805.252
827.21
849.72
871.419
887.684
900.901
872.175
861.336
907.779
671.971
666.799
668.694
675.043
685.647
694.919
701.484
706.675
713.087
722.095
733.906
748.324
765.047
783.829
804.258
825.766
847.444
868.34
885.54
900.354
883.162
853.423
905.37
670.897
664.57
665.169
670.626
681.187
691.143
698.25
703.798
710.597
719.987
732.096
746.712
763.593
782.449
802.894
824.313
845.696
865.902
882.63
895.485
892.613
870.387
912.796
670.426
662.378
660.92
664.927
675.385
686.333
694.17
700.158
707.454
717.333
729.796
744.653
761.732
780.731
801.325
822.862
844.344
864.424
881.02
893.302
896.076
888.432
926.903
671.286
660.998
656.398
658.258
668.658
680.838
689.479
695.876
703.696
714.143
727.024
742.188
759.508
778.69
799.555
821.399
843.242
863.604
880.614
893.408
900.788
902.925
938.539
674.175
660.781
652.402
651.758
662.036
675.107
684.3
691.103
699.481
710.454
723.684
739.17
757.052
776.369
797.599
819.906
842.338
863.249
880.917
894.337
903.384
908.763
932.139
679.28
664.069
650.704
645.607
655.161
668.491
677.81
685.418
694.939
706.687
720.164
735.514
752.367
773.451
795.358
818.524
841.93
863.595
881.935
895.837
904.28
908.632
910.8
279.609
271.406
262.744
260.423
260.573
260.144
260.23
260.17
259.01
256.473
255.835
257.05
258.575
263.467
268.604
284.757
508.868
1151.87
1725.42
279.866
271.567
262.011
260.815
260.265
260.123
260.134
260.461
259.121
255.699
254.99
255.353
253.696
247.304
246.609
251.964
303.046
607.062
1491.83
320.97
264.86
259.096
258.346
257.847
258.417
259.568
261.131
259.573
255.155
252.832
248.416
243.684
243.541
245.605
248.513
260.79
362.325
1064.86
398.612
256.955
257.666
257.762
257.529
257.383
258.894
262.174
260.782
255.617
247.876
239.466
239.717
242.306
245.197
247.846
253.941
294.188
607.336
412.842
256.902
257.653
257.643
257.401
257.205
258.362
262.751
262.424
256.697
239.646
231.91
235.804
241.016
244.527
246.956
249.234
277.254
462.598
422.028
258.966
257.505
257.538
257.254
257.052
257.971
261.966
263.638
254.621
231.538
227.157
233.041
239.726
243.863
245.999
246.345
261.653
463.7
470.422
456.536
257.19
257.543
257.17
256.929
257.733
260.7
261.789
251.238
225.033
223.805
231.703
239.012
243.377
245.207
245.647
250.77
626.458
449.165
618.24
285.481
257.648
257.158
256.979
257.556
259.452
259.014
249.648
224.867
222.74
231.546
238.885
243.046
244.693
245.363
244.227
647.153
689.934
673.1
639.011
602.341
614.301
640.456
658.378
671.476
685.687
700.139
715.175
731.931
750.418
769.523
791.41
815.469
840.76
864.261
884.175
899.33
904.747
892.727
816.723
632.963
450.742
263.874
173.047
210.537
276.168
316.142
352.638
407.251
472.671
538.047
605.432
672.355
735.02
783.482
812.674
843.243
869.511
891.906
910.534
921.116
921.024
914.756
66.2569
0.794404
0.531977
0.697105
0.696896
0.72318
0.752344
0.769254
0.860979
13.5885
40.3363
78.704
132.935
215.081
344.494
545.851
801.14
876.543
905.666
930.992
946.45
957.731
968.991
0.586793
0.542982
0.545618
0.614704
0.645012
0.671976
0.672635
0.688079
0.705386
0.67229
0.604112
0.558591
0.531738
0.547296
0.769597
20.3266
88.0333
255.596
533.639
890.981
981.325
992.345
1004.3
0.621002
0.645356
0.637253
0.62513
0.62538
0.633774
0.631279
0.617262
0.585726
0.531804
0.511269
0.496364
0.476974
0.512873
0.633079
0.688805
0.660348
4.03742
36.2699
92.5484
227.771
471.177
834.607
0.611289
0.608959
0.606061
0.607002
0.612479
0.618974
0.620895
0.616531
0.602779
0.577488
0.552081
0.524708
0.487418
0.551423
0.692873
0.713542
0.5704
0.593378
0.622112
0.642381
0.663931
10.3163
33.9467
0.591138
0.592041
0.595182
0.591111
0.590369
0.590806
0.587161
0.578832
0.565968
0.550863
0.536805
0.523896
0.512924
0.512446
0.555987
0.598691
0.562505
0.564291
0.63657
0.827873
0.797712
0.668433
0.777774
0.573694
0.574163
0.57499
0.572499
0.570989
0.569191
0.565193
0.558082
0.548124
0.537405
0.527536
0.51842
0.512329
0.507812
0.509973
0.520445
0.525381
0.525959
0.580116
0.879693
0.880178
0.771406
0.536362
0.554364
0.554886
0.555238
0.553433
0.551626
0.549162
0.545297
0.539564
0.532027
0.524094
0.517042
0.511627
0.510093
0.508182
0.506351
0.508387
0.50925
0.505322
0.560796
0.795412
0.825161
0.728337
0.420541
0.535329
0.536026
0.536049
0.534592
0.532797
0.530339
0.526944
0.522462
0.516773
0.511027
0.505793
0.501588
0.499455
0.499526
0.496531
0.496627
0.495661
0.492418
0.514889
0.54702
0.815462
0.693684
0.390035
0.517033
0.517602
0.517431
0.516201
0.514562
0.512362
0.509527
0.506048
0.501943
0.497787
0.494055
0.491032
0.488855
0.487255
0.486128
0.485079
0.482813
0.479243
0.467493
0.442714
0.448557
0.433912
0.78215
0.499252
0.499625
0.499338
0.498292
0.49686
0.494986
0.492681
0.49
0.48709
0.483936
0.481323
0.479126
0.477394
0.476034
0.474683
0.472953
0.470261
0.465757
0.456145
0.436289
0.403273
0.372189
0.979668
0.481853
0.482056
0.481701
0.48081
0.479592
0.478038
0.476186
0.474104
0.471902
0.469692
0.467741
0.466088
0.464715
0.463514
0.462183
0.460401
0.457807
0.453685
0.445995
0.431647
0.408496
0.378405
0.348078
0.464744
0.464808
0.464431
0.463676
0.462659
0.461389
0.459911
0.458292
0.456618
0.454988
0.453519
0.452249
0.45115
0.450123
0.448958
0.447412
0.445177
0.441674
0.435787
0.426109
0.411712
0.393529
0.376717
0.447843
0.44781
0.447443
0.446809
0.44597
0.444942
0.443768
0.442504
0.441218
0.439981
0.438855
0.437864
0.436979
0.436119
0.435144
0.433874
0.432059
0.429286
0.424943
0.41843
0.409708
0.400084
0.392251
0.431091
0.431002
0.430667
0.430141
0.429455
0.428628
0.427695
0.426703
0.425704
0.424747
0.423869
0.423082
0.422361
0.421643
0.420826
0.419777
0.418319
0.416205
0.413122
0.408824
0.403446
0.39793
0.393927
0.414454
0.414342
0.41405
0.413616
0.413059
0.412394
0.41165
0.410865
0.410078
0.409324
0.408625
0.407986
0.407386
0.406776
0.406085
0.405218
0.404055
0.402447
0.400243
0.397378
0.394036
0.390846
0.388841
0.397906
0.397793
0.397547
0.397191
0.396739
0.396203
0.395606
0.394977
0.394346
0.393737
0.393164
0.392627
0.392107
0.391568
0.390956
0.390207
0.389239
0.387971
0.386334
0.384321
0.382058
0.379909
0.378487
0.381425
0.381327
0.381126
0.380833
0.380466
0.38003
0.379544
0.379032
0.378514
0.378006
0.377518
0.377045
0.376572
0.376067
0.375492
0.374797
0.373927
0.372832
0.371477
0.369869
0.368084
0.366295
0.364883
0.364998
0.364919
0.364759
0.364518
0.364217
0.363857
0.363455
0.363027
0.362588
0.362149
0.361714
0.361278
0.360822
0.36032
0.359742
0.359048
0.358198
0.357156
0.355896
0.354422
0.352777
0.350873
0.349021
0.348611
0.348553
0.348429
0.348228
0.347977
0.347674
0.347333
0.346965
0.34658
0.346185
0.345779
0.345355
0.344893
0.344371
0.34376
0.343025
0.342131
0.341042
0.339733
0.338201
0.33665
0.33419
0.331822
0.332251
0.332214
0.332122
0.331951
0.331737
0.331476
0.331178
0.330851
0.330501
0.33013
0.329735
0.329306
0.328823
0.328263
0.327598
0.326794
0.325812
0.324612
0.323161
0.321262
0.318804
0.31664
0.313825
0.31591
0.315894
0.315825
0.315678
0.315491
0.315261
0.314994
0.314694
0.314364
0.314004
0.313607
0.31316
0.312647
0.31204
0.311309
0.310422
0.309333
0.307979
0.306284
0.30429
0.301822
0.299014
0.295593
0.299579
0.299582
0.299535
0.299404
0.299239
0.299031
0.298784
0.298502
0.298183
0.297823
0.297416
0.296948
0.296398
0.295741
0.294944
0.293972
0.292778
0.29131
0.289498
0.287297
0.284613
0.28139
0.277459
0.28325
0.283273
0.283245
0.283128
0.28298
0.282788
0.282556
0.282284
0.28197
0.281606
0.281185
0.280692
0.280106
0.279402
0.278549
0.277505
0.276227
0.274656
0.272725
0.270363
0.267473
0.26396
0.25966
0.266922
0.266962
0.266955
0.266852
0.266715
0.266535
0.266313
0.266046
0.26573
0.265361
0.264928
0.264415
0.263801
0.263061
0.262162
0.261064
0.259721
0.258075
0.256056
0.253586
0.25056
0.246875
0.242365
0.250596
0.25065
0.250667
0.250566
0.250444
0.250275
0.250062
0.249799
0.249484
0.24911
0.248666
0.248137
0.247503
0.246739
0.245811
0.24468
0.2433
0.241614
0.239554
0.237038
0.233963
0.230229
0.225672
0.234281
0.234342
0.234391
0.234292
0.234179
0.234018
0.233811
0.23355
0.233235
0.232859
0.23241
0.231873
0.231229
0.230454
0.229513
0.228373
0.226988
0.225304
0.223255
0.220761
0.217728
0.214064
0.209614
0.217992
0.218036
0.218096
0.218018
0.217919
0.217765
0.217563
0.217307
0.216994
0.216618
0.216169
0.215632
0.214988
0.214214
0.21328
0.212153
0.210792
0.20915
0.207165
0.204762
0.201853
0.198365
0.194165
0.201752
0.201747
0.201854
0.201765
0.201674
0.201523
0.201326
0.201075
0.200767
0.200396
0.199951
0.19942
0.198785
0.198023
0.197111
0.196018
0.194709
0.193139
0.19126
0.189004
0.186293
0.18307
0.179233
0.18556
0.185484
0.185632
0.18553
0.185448
0.185299
0.185107
0.184862
0.184561
0.184198
0.183762
0.183242
0.182622
0.181884
0.181007
0.179965
0.178726
0.177255
0.17551
0.173438
0.170977
0.168082
0.16469
0.169387
0.16928
0.169439
0.16932
0.169245
0.169096
0.168911
0.168673
0.168381
0.16803
0.167608
0.167105
0.166509
0.165803
0.164972
0.163993
0.162838
0.161481
0.159886
0.158018
0.155833
0.153302
0.15039
0.153236
0.153128
0.153271
0.153133
0.153068
0.152917
0.152738
0.15251
0.152231
0.151894
0.151492
0.151015
0.150453
0.149791
0.149014
0.148104
0.147043
0.145806
0.144371
0.142715
0.140811
0.138647
0.136217
0.137095
0.136951
0.137107
0.136964
0.136909
0.136758
0.13659
0.136372
0.136109
0.135793
0.135418
0.134973
0.134451
0.13384
0.133126
0.132295
0.131333
0.130224
0.128956
0.127517
0.125891
0.124073
0.122091
0.120989
0.120869
0.120983
0.12082
0.120774
0.120622
0.120467
0.120265
0.120023
0.119733
0.11939
0.118985
0.11851
0.117955
0.117311
0.116567
0.115713
0.114741
0.113641
0.112415
0.111054
0.109563
0.107989
0.104894
0.104805
0.104875
0.104695
0.104664
0.104512
0.104374
0.104192
0.103977
0.10372
0.103416
0.103058
0.102638
0.102149
0.101584
0.100934
0.100195
0.099362
0.0984315
0.0974063
0.0962915
0.0951025
0.0938967
0.0888081
0.0887373
0.0887719
0.0885871
0.0885696
0.0884239
0.0883056
0.0881493
0.087964
0.0877473
0.0874867
0.0871833
0.0868245
0.0864106
0.0859315
0.085381
0.0847619
0.0840664
0.0833032
0.0824699
0.0815829
0.0806618
0.0797688
0.072701
0.0726138
0.0726588
0.0724569
0.0724612
0.0723234
0.0722303
0.0720985
0.0719514
0.0717735
0.0715636
0.0713146
0.0710235
0.0706817
0.0702937
0.0698466
0.0693461
0.0687868
0.0681797
0.0675268
0.0668389
0.0661446
0.0655056
0.0565322
0.0564521
0.0564941
0.0563094
0.0563292
0.0562085
0.0561371
0.056036
0.0559208
0.0557834
0.0556227
0.0554302
0.0552046
0.0549416
0.0546373
0.0542954
0.0539048
0.0534774
0.0530076
0.0525122
0.0520043
0.0515042
0.0510678
0.0403573
0.0402976
0.0403308
0.0401812
0.0402082
0.0401157
0.040069
0.0399937
0.0399129
0.0398181
0.0397007
0.039569
0.0394077
0.039222
0.0390009
0.0387594
0.0384769
0.0381779
0.037844
0.0374874
0.0371326
0.0367975
0.0365189
0.0242309
0.0241953
0.024202
0.0241099
0.0241354
0.0240781
0.0240504
0.0240061
0.0239591
0.0238996
0.0238343
0.0237523
0.0236595
0.0235465
0.0234192
0.0232715
0.0231068
0.0229254
0.0227272
0.0225176
0.0223095
0.0221136
0.0219501
0.00808519
0.00808325
0.00807854
0.0080506
0.00805832
0.00803629
0.00802925
0.00801433
0.00800047
0.00798062
0.00795964
0.00793258
0.00790223
0.00786685
0.00782605
0.00777815
0.00772495
0.00766345
0.00759869
0.00753591
0.00747257
0.00740659
0.00734685
651.643
648.169
659.507
635.546
890.655
877.67
861.82
843.068
958.346
950.04
948.234
949.741
1010.15
1013.1
1018.5
1027.32
1028.21
1056.55
1075.66
1097.12
76.7302
131.985
232.171
457.136
0.917006
0.980119
1.00865
0.966232
0.552493
0.540685
0.448206
0.324512
0.400439
0.392569
0.373711
0.356576
0.35905
0.369144
0.402947
0.442993
0.681793
0.620411
0.576234
0.556392
1.24286
1.25133
1.26234
1.27975
0.33876
0.801401
1.27323
0.790589
0.368162
0.363038
0.361648
0.36741
0.389279
0.388811
0.390512
0.394131
0.392947
0.393129
0.394119
0.395745
0.388739
0.389143
0.389985
0.391222
0.378191
0.378215
0.378348
0.378503
0.364247
0.363876
0.363526
0.363087
0.347745
0.346964
0.346053
0.344942
0.32993
0.328617
0.327116
0.325345
0.311323
0.309542
0.307507
0.30514
0.292516
0.29032
0.287826
0.28496
0.273907
0.271374
0.268517
0.265261
0.255767
0.252995
0.249884
0.246364
0.23828
0.235378
0.232136
0.228489
0.221548
0.218622
0.215369
0.211737
0.205595
0.202748
0.199598
0.196109
0.190383
0.187704
0.184753
0.181517
0.175799
0.17337
0.170705
0.167813
0.161687
0.159569
0.157251
0.154762
0.147853
0.146079
0.144154
0.142097
0.134142
0.132708
0.131179
0.129558
0.120452
0.119338
0.118175
0.11696
0.106739
0.105911
0.10507
0.104213
0.0929834
0.0923948
0.0918233
0.0912637
0.079133
0.0787393
0.0783789
0.0780499
0.0650866
0.0648409
0.0646357
0.064471
0.0508052
0.0506596
0.0505521
0.0504838
0.0363588
0.0362728
0.0362173
0.0361987
0.021858
0.0218096
0.021786
0.0217898
0.00731927
0.00730863
0.00730786
0.00731351
563.008
692.763
533.007
259.009
257.176
257.018
257.214
257.57
255.889
248.738
233.692
227.521
233.227
239.41
242.862
244.332
244.983
243.578
672.23
809.638
862.499
869.618
318.308
256.617
256.519
256.359
255.817
253.567
248.826
241.918
238.109
238.911
241.495
243.452
244.589
245.176
244.625
764.714
954.621
989.044
1025.7
399.974
256.103
255.74
255.404
254.524
252.65
249.728
246.002
243.257
242.647
243.297
244.185
245.095
245.508
245.111
907.235
1045.82
1084.97
1137.55
572.713
255.137
254.821
254.459
253.428
251.841
249.862
247.537
245.714
245.002
244.713
244.845
245.504
245.855
246.778
1078.5
1125.87
1164.01
1227.26
1012.41
254.692
254.319
254.033
252.618
251.15
249.743
248.202
247.062
246.622
245.693
245.424
245.678
245.909
455.824
1280.84
1002.71
1223.9
1288.8
1379.3
525.492
254.422
253.334
251.653
250.515
249.611
248.287
247.476
248.288
246.147
245.388
245.597
246.029
979.636
1519.84
39.4349
473.274
1255.87
1405.73
1421.36
1051.03
415.622
249.762
249.938
249.376
247.868
246.085
563.397
922.062
1003.55
614.112
688.429
1398.49
1801.64
0.118004
0.246542
129.01
791.441
1421.15
1471.7
1469.26
1052.61
491.005
388.098
546.957
902.449
1332.56
1395.27
1431.93
1469.53
1581.49
1802.06
2048.8
0.236626
0.495462
0.544227
20.7959
305.643
860.165
1409.74
1460.12
1468.31
1466.33
1503.99
1503.49
1480.56
1492.21
1548.14
1701.05
1839.64
2049.81
2149.91
0.47516
0.511251
0.537943
0.654361
0.655054
29.3923
235.305
601.93
900.736
1138.53
1194.63
1165.05
1045.5
753.022
522.211
638.855
1327.11
2090.71
2027.58
0.543609
0.694536
1.3137
1.16858
0.596057
0.459137
0.514071
0.988813
34.0757
112.322
130.146
108.06
64.1786
100.686
134.153
169.994
487.636
1773.88
2099.63
1.24954
1.32102
1.35234
1.21798
0.622623
0.51528
0.590169
0.821702
1.19382
1.59757
1.00349
0.528529
6.95524
83.1758
263.433
336.426
806.803
1813.55
2245.78
0.541296
0.546067
0.464317
0.460329
0.502411
0.541946
0.608064
0.718098
0.853421
0.985396
0.809141
0.0932453
-0.710648
319.809
1346.23
1697.02
1740.61
1964.55
2282.59
0.381324
0.399402
0.427502
0.46394
0.502386
0.546468
0.612707
0.693928
0.759057
0.740476
0.477549
-0.0311648
0.72746
323.897
1361.16
2143.73
2225.01
2182.15
2358.67
0.403077
0.418681
0.435091
0.456246
0.487217
0.52978
0.58814
0.655228
0.705041
0.659587
0.335624
2.95431
5.92584
-1.60635
3.14177
1185.83
2301.67
2306.65
1459.69
0.399715
0.409605
0.422841
0.440298
0.465427
0.500913
0.546216
0.593975
0.623476
0.573763
0.405895
1.45873
0.279038
-0.369974
1.83032
668.696
2213.85
2378.43
1422.95
0.393478
0.39891
0.406545
0.418287
0.436634
0.463025
0.494789
0.523412
0.533093
0.493562
0.390567
0.0238574
-0.0373107
-0.164471
73.571
840.596
1659.28
2417.66
2442.04
0.379672
0.382367
0.385909
0.392029
0.40322
0.420193
0.439401
0.452725
0.448452
0.416339
0.365678
0.329214
0.419018
0.378468
136.291
693.794
728.148
1545.7
2713.71
0.362523
0.362257
0.362022
0.363017
0.367487
0.375747
0.38394
0.385403
0.373059
0.344103
0.327033
0.391995
0.522471
0.589534
67.6644
439.3
493.791
561.875
1912.66
0.342989
0.340062
0.336376
0.332782
0.331221
0.331821
0.330768
0.32274
0.304348
0.273033
0.243353
0.280971
0.373925
0.466909
40.6432
699.138
927.547
189.101
84.7148
0.322116
0.316833
0.310144
0.302546
0.295649
0.290035
0.281984
0.265499
0.23981
0.200172
0.138254
0.0760325
0.00221309
-0.145088
-0.188396
137.387
958.269
1235.39
241.956
0.300777
0.293455
0.284225
0.273225
0.261687
0.251033
0.237208
0.213345
0.176976
0.122766
0.018461
-0.167221
-0.338812
-0.465733
-0.784574
-0.70161
28.167
1654.97
2081.63
0.279656
0.270655
0.259356
0.245582
0.230181
0.21489
0.194951
0.164667
0.116973
0.0453273
-0.0866174
-0.330866
-0.624796
-0.896415
-1.03292
-0.783229
1.48869
391.245
2461.9
0.259238
0.248989
0.23616
0.220311
0.201937
0.181283
0.157071
0.120906
0.0656038
-0.0207365
-0.167283
-0.428571
-0.785101
-0.983723
-0.531915
-0.889837
7.66236
30.3803
400.453
0.239867
0.228838
0.2151
0.197989
0.177727
0.154286
0.125213
0.0861262
0.0264251
-0.064714
-0.20962
-0.459991
-0.758578
-0.100614
-1.31524
-1.13963
6.14237
19.0531
118.433
0.221777
0.210445
0.196435
0.178899
0.157928
0.133833
0.104265
0.0642739
0.00693625
-0.0774883
-0.202311
-0.416285
-0.643552
0.364674
-1.10824
-1.05946
-0.666428
22.2431
2078.12
0.205075
0.193907
0.180242
0.163091
0.142556
0.119597
0.0922777
0.0557527
0.00562472
-0.0619957
-0.15279
-0.305212
0.37043
0.739237
-0.277103
-0.689106
-0.367981
28.5665
2964.9
0.189733
0.179132
0.166352
0.150312
0.131185
0.110396
0.0865363
0.0561038
0.0166263
-0.0311341
-0.0852486
-0.161192
0.604115
0.762616
-0.308831
-0.314674
-0.0715733
7.47937
1709.98
0.175636
0.165931
0.154442
0.140052
0.122912
0.105164
0.0856006
0.0619886
0.033948
0.00353197
-0.0223138
-0.0263986
0.0697586
-0.0502456
-0.11388
-0.0984602
2.8252
4.01525
573.904
0.16259
0.154024
0.144084
0.131641
0.116603
0.102231
0.0873423
0.0708374
0.0530778
0.0361307
0.0276653
0.0521205
0.100277
0.130179
0.0966596
4.11073
64.7192
14.2349
567.63
0.150312
0.143071
0.134821
0.124574
0.111651
0.100453
0.0901319
0.0801763
0.0713033
0.0637519
0.0606825
0.0822773
0.126803
0.143631
0.125601
66.6323
89.015
15.3569
1144.28
0.138461
0.132661
0.126193
0.118441
0.10813
0.0998464
0.0957158
0.0922796
0.0906569
0.0872342
0.0796956
0.0993163
0.542488
0.145469
0.471655
89.0032
91.6911
12.3004
1090.09
0.126738
0.122383
0.117657
0.112439
0.105215
0.0992485
0.10178
0.108937
0.113672
0.108621
0.0891598
0.0755137
0.0830995
3.86748
17.7865
62.1255
17.4371
9.82442
908.64
0.114888
0.111889
0.108714
0.105928
0.102148
0.0985882
0.100721
0.113229
0.126649
0.123461
0.0910123
0.0710519
0.0745941
17.4074
56.7564
16.0638
10.3725
10.1348
1172.74
0.10279
0.100966
0.0993038
0.0982103
0.0974289
0.0969586
0.0988648
0.106679
0.119844
0.121145
0.0984401
0.0782319
0.0662936
33.9534
58.5231
58.6638
14.2064
9.69512
2113.75
0.0903793
0.0894739
0.0889991
0.0892709
0.0904633
0.092436
0.0959523
0.101118
0.108001
0.109354
0.101652
0.0934658
0.0846404
25.2937
59.8629
60.1443
17.515
44.3277
2025.67
0.077581
0.0773457
0.0776914
0.078815
0.081154
0.0844312
0.0889074
0.0943804
0.0986867
0.0971579
0.0920405
0.0784124
0.0691181
-0.034845
49.0938
61.9446
19.4463
44.0116
533.657
0.0642877
0.0644783
0.0653107
0.0667893
0.0697736
0.0733433
0.0777289
0.0846667
0.0869796
0.0845301
0.0815425
0.071476
0.0628943
0.0230366
6.10057
59.8248
28.5535
22.8257
3.61381
0.050462
0.050865
0.0519047
0.0534444
0.0566495
0.0599919
0.0642074
0.0722479
0.0741906
0.0746791
0.0805971
0.0869849
0.0751935
0.0547806
-0.034204
49.4009
34.3443
3.51649
2.62654
0.0362547
0.0366924
0.0376289
0.0390295
0.041889
0.0447798
0.0487034
0.0566326
0.0590337
0.0638837
0.080422
0.0945446
0.076323
0.035423
-0.0756518
8.1811
25.3607
1.1366
427.83
0.0218449
0.0221645
0.0228128
0.023831
0.0258352
0.0278798
0.0307981
0.0359899
0.0368699
0.0384166
0.0499373
0.0540445
0.0203048
-0.0415927
-0.154306
-0.0987617
6.69127
0.921316
2229.88
0.00733405
0.00745632
0.00770446
0.00809846
0.00884421
0.00959318
0.0108582
0.0117939
0.00981149
0.00720596
0.00507805
-0.0162898
-0.0793466
-0.168761
-0.330165
-0.200707
-1.32006
-0.65166
836.191
)
;

boundaryField
{
    leftWall
    {
        type            fixedFluxPressure;
        gradient        uniform 0;
        value           nonuniform List<scalar> 
50
(
673.317
672.98
671.971
670.897
670.426
671.286
674.175
679.28
689.934
632.963
66.2569
0.586793
0.621002
0.611289
0.591138
0.573694
0.554364
0.535329
0.517033
0.499252
0.481853
0.464744
0.447843
0.431091
0.414454
0.397906
0.381425
0.364998
0.348611
0.332251
0.31591
0.299579
0.28325
0.266922
0.250596
0.234281
0.217992
0.201752
0.18556
0.169387
0.153236
0.137095
0.120989
0.104894
0.0888081
0.072701
0.0565322
0.0403573
0.0242309
0.00808519
)
;
    }
    rightWall
    {
        type            fixedFluxPressure;
        gradient        uniform 0;
        value           nonuniform List<scalar> 
50
(
1725.42
1491.83
1064.86
607.336
462.598
463.7
626.458
647.153
672.23
764.714
907.235
1078.5
1280.84
1519.84
1801.64
2048.8
2149.91
2027.58
2099.63
2245.78
2282.59
2358.67
1459.69
1422.95
2442.04
2713.71
1912.66
84.7148
241.956
2081.63
2461.9
400.453
118.433
2078.12
2964.9
1709.98
573.904
567.63
1144.28
1090.09
908.64
1172.74
2113.75
2025.67
533.657
3.61381
2.62654
427.83
2229.88
836.191
)
;
    }
    lowerWall
    {
        type            fixedFluxPressure;
        gradient        uniform 0;
        value           nonuniform List<scalar> 
62
(
673.317
669.703
672.568
679.663
690.288
698.871
704.883
709.705
715.714
724.317
735.832
750.128
766.908
785.834
806.64
828.834
851.228
872.036
885.608
895.932
875.465
873.498
913.947
913.947
907.779
905.37
912.796
926.903
938.539
932.139
910.8
651.643
648.169
659.507
635.546
279.609
279.866
320.97
398.612
412.842
422.028
470.422
449.165
279.609
271.406
262.744
260.423
260.573
260.144
260.23
260.17
259.01
256.473
255.835
257.05
258.575
263.467
268.604
284.757
508.868
1151.87
1725.42
)
;
    }
    atmosphere
    {
        type            totalPressure;
        rho             rho;
        psi             none;
        gamma           1;
        p0              uniform 0;
        value           nonuniform List<scalar> 
46
(
0
0
0
0
0
0
0
0
0
0
0
0
0
0
0
0
0
0
0
0
0
0
0
0
0
0
0
0
0
0
0
0
0
0
-0.00102069
-0.00523746
-0.00918801
-0.0183835
-0.0591269
-0.148403
-0.249848
-0.332103
-0.283575
-0.285647
-0.1544
0
)
;
    }
    defaultFaces
    {
        type            empty;
    }
}


// ************************************************************************* //
