/*--------------------------------*- C++ -*----------------------------------*\
| =========                 |                                                 |
| \\      /  F ield         | OpenFOAM: The Open Source CFD Toolbox           |
|  \\    /   O peration     | Version:  5.x                                   |
|   \\  /    A nd           | Web:      www.OpenFOAM.org                      |
|    \\/     M anipulation  |                                                 |
\*---------------------------------------------------------------------------*/
FoamFile
{
    version     2.0;
    format      ascii;
    class       surfaceScalarField;
    location    "0.5";
    object      phi;
}
// * * * * * * * * * * * * * * * * * * * * * * * * * * * * * * * * * * * * * //

dimensions      [0 3 -1 0 0 0 0];

internalField   nonuniform List<scalar> 
4432
(
-3.77815e-06
3.77815e-06
-5.26674e-06
1.48859e-06
-3.28606e-06
-1.98068e-06
9.37822e-07
-4.22388e-06
6.41316e-06
-5.47534e-06
1.20082e-05
-5.59503e-06
1.68162e-05
-4.808e-06
2.04125e-05
-3.59628e-06
2.27998e-05
-2.38736e-06
2.41775e-05
-1.37772e-06
2.47652e-05
-5.87696e-07
2.46965e-05
6.87531e-08
2.39868e-05
7.09668e-07
2.25919e-05
1.3949e-06
2.02797e-05
2.31223e-06
1.66253e-05
3.65438e-06
1.11687e-05
5.4566e-06
4.08279e-06
7.0859e-06
-1.82207e-06
5.90486e-06
-6.905e-06
5.08293e-06
-1.60521e-05
9.14713e-06
-1.52646e-05
-7.87508e-07
-1.52646e-05
-4.05845e-06
7.83661e-06
-4.93747e-06
2.3676e-06
-2.79183e-06
-4.12632e-06
1.40937e-06
-8.42508e-06
6.81136e-06
-1.08773e-05
1.23358e-05
-1.11195e-05
1.70627e-05
-9.53489e-06
2.05747e-05
-7.10829e-06
2.29014e-05
-4.71403e-06
2.42657e-05
-2.74208e-06
2.49079e-05
-1.22982e-06
2.50666e-05
-8.99756e-08
2.49518e-05
8.24509e-07
2.46586e-05
1.68805e-06
2.42182e-05
2.7526e-06
2.34447e-05
4.42792e-06
2.16416e-05
7.25972e-06
1.73343e-05
1.13932e-05
9.19642e-06
1.40427e-05
-1.89467e-06
1.6174e-05
-1.00004e-05
1.72529e-05
-8.87846e-06
-1.90947e-06
-2.41431e-05
-3.43241e-06
1.1269e-05
-4.00656e-06
2.94175e-06
-1.90005e-06
-6.23283e-06
2.04077e-06
-1.23659e-05
7.20371e-06
-1.60403e-05
1.25707e-05
-1.64864e-05
1.71329e-05
-1.40971e-05
2.04516e-05
-1.0427e-05
2.26078e-05
-6.87023e-06
2.38728e-05
-4.0071e-06
2.44949e-05
-1.8519e-06
2.46416e-05
-2.36682e-07
2.44299e-05
1.03627e-06
2.39451e-05
2.17278e-06
2.32972e-05
3.40057e-06
2.26865e-05
5.03859e-06
2.23852e-05
7.56096e-06
2.18068e-05
1.19716e-05
1.83325e-05
1.7517e-05
1.05512e-05
2.39553e-05
1.96743e-06
2.58367e-05
-2.1368e-07
2.71637e-07
-2.43568e-05
-2.52018e-06
1.37892e-05
-2.66453e-06
3.0861e-06
-6.967e-07
-8.20066e-06
2.73507e-06
-1.57977e-05
7.51142e-06
-2.08166e-05
1.26677e-05
-2.16428e-05
1.7046e-05
-1.84754e-05
2.01564e-05
-1.35374e-05
2.21327e-05
-8.84656e-06
2.33008e-05
-5.17524e-06
2.39244e-05
-2.47542e-06
2.41595e-05
-4.71788e-07
2.40934e-05
1.10238e-06
2.37679e-05
2.49829e-06
2.32125e-05
3.9559e-06
2.25113e-05
5.73983e-06
2.19593e-05
8.11295e-06
2.21404e-05
1.17905e-05
2.23522e-05
1.73053e-05
2.08314e-05
2.54761e-05
1.7161e-05
2.9507e-05
9.19242e-06
8.24026e-06
-1.51643e-05
-1.31106e-06
1.51003e-05
-7.50517e-07
2.52555e-06
1.03148e-06
-9.98265e-06
4.02153e-06
-1.87877e-05
8.28897e-06
-2.50841e-05
1.29838e-05
-2.63376e-05
1.69416e-05
-2.24331e-05
1.97105e-05
-1.63063e-05
2.14806e-05
-1.06166e-05
2.25861e-05
-6.28081e-06
2.32626e-05
-3.15183e-06
2.36316e-05
-8.40801e-07
2.3754e-05
9.79907e-07
2.36563e-05
2.59601e-06
2.33574e-05
4.25484e-06
2.29036e-05
6.19362e-06
2.23986e-05
8.61796e-06
2.22995e-05
1.18896e-05
2.32839e-05
1.63209e-05
2.52123e-05
2.35478e-05
2.49343e-05
2.9785e-05
1.58649e-05
1.73097e-05
7.00507e-07
2.70194e-07
1.48301e-05
2.06105e-06
7.34693e-07
4.19379e-06
-1.21154e-05
7.18539e-06
-2.17793e-05
1.08012e-05
-2.86999e-05
1.44348e-05
-2.99712e-05
1.73763e-05
-2.53747e-05
1.9417e-05
-1.8347e-05
2.07995e-05
-1.19991e-05
2.18022e-05
-7.28353e-06
2.25647e-05
-3.91439e-06
2.31249e-05
-1.40102e-06
2.34883e-05
6.16503e-07
2.36323e-05
2.45202e-06
2.3572e-05
4.31514e-06
2.33692e-05
6.39649e-06
2.31488e-05
8.8383e-06
2.30651e-05
1.19732e-05
2.36076e-05
1.57785e-05
2.58514e-05
2.1304e-05
2.71789e-05
2.84574e-05
1.90957e-05
2.53929e-05
1.97962e-05
2.58999e-06
1.22401e-05
6.04024e-06
-2.71556e-06
9.7658e-06
-1.5841e-05
1.32799e-05
-2.52934e-05
1.582e-05
-3.124e-05
1.75331e-05
-3.16843e-05
1.87995e-05
-2.6641e-05
1.97601e-05
-1.93076e-05
2.05548e-05
-1.27937e-05
2.13037e-05
-8.03245e-06
2.20346e-05
-4.64533e-06
2.27002e-05
-2.06656e-06
2.32917e-05
2.49686e-08
2.36958e-05
2.04791e-06
2.389e-05
4.12097e-06
2.39103e-05
6.37616e-06
2.39206e-05
8.82799e-06
2.40481e-05
1.18458e-05
2.43303e-05
1.54962e-05
2.57418e-05
1.98926e-05
2.72063e-05
2.69929e-05
2.17066e-05
3.08925e-05
4.15029e-05
4.93582e-06
7.30425e-06
1.12729e-05
-9.05264e-06
1.76891e-05
-2.22571e-05
2.14939e-05
-2.90982e-05
2.20733e-05
-3.18194e-05
2.12199e-05
-3.0831e-05
2.06722e-05
-2.60933e-05
2.07249e-05
-1.93603e-05
2.11333e-05
-1.32022e-05
2.17033e-05
-8.60241e-06
2.2335e-05
-5.27706e-06
2.29545e-05
-2.68604e-06
2.33827e-05
-4.03187e-07
2.38553e-05
1.57528e-06
2.41709e-05
3.80541e-06
2.44043e-05
6.14269e-06
2.46826e-05
8.54973e-06
2.50682e-05
1.14601e-05
2.54921e-05
1.50723e-05
2.63508e-05
1.90338e-05
2.73417e-05
2.6002e-05
2.30885e-05
3.51457e-05
6.45914e-05
0.00011857
-0.00011857
0.000202856
-8.42858e-05
0.000189057
1.37988e-05
0.000171131
1.79255e-05
0.000158847
1.22845e-05
0.000108898
4.99492e-05
3.77155e-05
7.11822e-05
1.74871e-05
2.02285e-05
7.42112e-05
-5.67242e-05
8.23577e-05
-8.14633e-06
-3.4718e-05
0.000117076
-0.000205459
0.000170741
-0.000357469
0.00015201
-0.00042022
6.27514e-05
-0.00036603
-5.41897e-05
-0.000280371
-8.56598e-05
-0.000193993
-8.63772e-05
-8.23272e-05
-0.000111666
-8.23272e-05
3.95829e-05
-0.000158153
7.88983e-05
-0.000123601
9.67576e-05
-4.06066e-06
0.000103115
1.15681e-05
0.000133834
-1.84343e-05
0.000157006
2.67773e-05
0.000106616
0.000121572
5.05695e-05
7.62751e-05
7.04686e-05
-7.66233e-05
-1.07366e-05
7.3059e-05
-0.000209375
0.000315715
-0.000380014
0.00034138
-0.000402535
0.000174531
-0.000304967
-3.48172e-05
-0.000221149
-0.000138008
-0.000192916
-0.000113893
-0.000134757
-0.000144536
-4.92972e-05
-0.000197126
-0.000131624
1.2269e-05
-0.000170422
5.20359e-05
-0.000163368
8.44526e-05
-3.64772e-05
9.14882e-05
4.53244e-06
0.000102811
-2.97573e-05
0.000126651
2.93707e-06
0.00010565
0.000142574
5.20943e-05
0.00012983
-1.85943e-05
-5.93419e-06
-0.00019065
0.000245114
-0.000352799
0.000477864
-0.000413616
0.000402197
-0.000350973
0.000111888
-0.000297573
-8.82167e-05
-0.000276063
-0.000159518
-0.000218567
-0.000171388
-0.00014209
-0.000221013
-4.08162e-05
-0.0002984
-0.000172441
-2.71465e-05
-0.000143276
-3.28426e-05
-0.000157672
3.98124e-05
-0.000109132
9.29684e-05
-4.86235e-05
0.000103457
-4.02457e-05
9.91161e-05
7.27758e-06
7.31452e-05
0.000168545
-1.5617e-05
0.000218593
-0.000180462
0.000158911
-0.000352689
0.000417341
-0.000430487
0.000555661
-0.00040309
0.000374801
-0.000323021
3.18184e-05
-0.00027509
-0.000136148
-0.000246519
-0.000188089
-0.000226065
-0.000191842
-0.000178912
-0.000268166
-5.09764e-05
-0.000426336
-0.000223417
-3.98067e-05
-0.000103469
-3.61858e-05
-0.000161293
1.16322e-05
-0.000156951
5.37161e-05
-9.07076e-05
6.8789e-05
-5.53184e-05
5.9744e-05
1.63226e-05
2.18486e-05
0.00020644
-0.000108207
0.000348648
-0.000304313
0.000355016
-0.000413653
0.000526681
-0.000420214
0.000562222
-0.000339058
0.000293645
-0.000256746
-5.0493e-05
-0.000201806
-0.000191089
-0.000162031
-0.000227863
-0.000158781
-0.000195093
-0.000175185
-0.000251762
-0.000107146
-0.000494375
-0.000330563
-3.09661e-05
-7.25032e-05
-3.21859e-05
-0.000160073
-1.14432e-05
-0.000177694
2.21803e-05
-0.000124331
3.36319e-05
-6.67698e-05
1.86504e-05
3.13041e-05
-2.62398e-05
0.000251331
-0.000153418
0.000475826
-0.000322598
0.000524196
-0.000388686
0.000592769
-0.000366444
0.00053998
-0.000290532
0.000217734
-0.000203083
-0.000137942
-0.000121507
-0.000272665
-7.50121e-05
-0.000274358
-5.1079e-05
-0.000219026
-6.69723e-05
-0.000235868
-4.55333e-05
-0.000515814
-0.000376096
-6.65617e-06
-6.5847e-05
-3.01387e-05
-0.00013659
-1.39982e-05
-0.000193834
-1.65482e-06
-0.000136675
-2.08528e-06
-6.63396e-05
-1.79341e-05
4.7153e-05
-5.4853e-05
0.000288249
-0.000138132
0.000559105
-0.000258355
0.000644419
-0.000302335
0.00063675
-0.000257145
0.00049479
-0.000157602
0.000118191
-7.58293e-05
-0.000219715
-1.94119e-05
-0.000329082
-1.05399e-06
-0.000292716
2.92071e-05
-0.000249287
2.42095e-05
-0.000230871
-1.03098e-05
-0.000481295
-0.000386406
1.07206e-05
-7.65676e-05
-4.8214e-06
-0.000121049
-9.66103e-06
-0.000188994
-9.77006e-06
-0.000136566
-2.0416e-05
-5.56938e-05
-4.37605e-05
7.04974e-05
-6.0368e-05
0.000304857
-8.11625e-05
0.000579899
-0.000136775
0.000700032
-0.000172957
0.000672931
-0.000110074
0.000431907
-4.26152e-06
1.23779e-05
4.69305e-05
-0.000270907
6.25419e-05
-0.000344693
6.24784e-05
-0.000292653
6.28351e-05
-0.000249644
6.69975e-05
-0.000235034
-2.58276e-06
-0.000411715
-0.000388989
1.8775e-05
-1.14708e-05
4.26543e-05
-3.29319e-05
6.03317e-05
-3.99346e-05
6.28244e-05
-3.15908e-05
5.57527e-05
-2.47476e-05
4.7846e-05
-2.29244e-05
4.35828e-05
-2.18301e-05
4.32265e-05
-1.9004e-05
4.52041e-05
-1.51798e-05
4.80388e-05
-1.14371e-05
5.07802e-05
-8.01848e-06
5.28831e-05
-4.78893e-06
5.42065e-05
-1.72662e-06
5.44542e-05
1.32765e-06
5.41632e-05
4.09639e-06
5.3829e-05
6.47689e-06
5.43447e-05
8.03401e-06
5.55764e-05
1.02285e-05
5.74875e-05
1.31611e-05
6.06247e-05
1.58967e-05
6.70648e-05
1.95619e-05
7.99155e-05
2.2295e-05
3.38576e-05
0.000110649
2.87734e-05
-4.02442e-05
5.76057e-05
-6.17641e-05
6.59123e-05
-4.82412e-05
4.97996e-05
-1.54781e-05
3.46026e-05
-9.55072e-06
2.59109e-05
-1.42327e-05
2.13797e-05
-1.72988e-05
2.17743e-05
-1.93986e-05
2.77739e-05
-2.11794e-05
3.68901e-05
-2.05533e-05
4.59104e-05
-1.70388e-05
5.32259e-05
-1.21044e-05
5.78071e-05
-6.30785e-06
5.98881e-05
-7.5339e-07
5.93445e-05
4.64001e-06
5.82764e-05
7.54498e-06
5.87115e-05
7.59886e-06
5.94345e-05
9.50553e-06
6.1235e-05
1.13607e-05
6.54957e-05
1.16359e-05
7.30089e-05
1.20487e-05
8.3816e-05
1.14879e-05
1.18009e-05
0.000105873
4.05405e-05
-8.07847e-05
2.76544e-05
-4.8878e-05
-1.89795e-05
-1.60729e-06
-5.35951e-05
1.91375e-05
-5.50153e-05
-8.13047e-06
-6.25966e-05
-6.65133e-06
-7.9829e-05
-6.63975e-08
-8.78415e-05
-1.13862e-05
-7.65166e-05
-3.25044e-05
-4.62306e-05
-5.08393e-05
-2.20792e-05
-4.11902e-05
-3.04463e-07
-3.38792e-05
1.97952e-05
-2.64075e-05
3.50078e-05
-1.5966e-05
4.67161e-05
-7.06822e-06
5.7678e-05
-3.41695e-06
6.43415e-05
9.35359e-07
6.39729e-05
9.87415e-06
6.27004e-05
1.26332e-05
6.4851e-05
9.48538e-06
6.89743e-05
7.92533e-06
7.45958e-05
5.86645e-06
3.12774e-08
8.63654e-05
-1.82292e-05
-6.25555e-05
-2.86107e-05
-3.84965e-05
-4.18674e-05
1.16494e-05
-2.8664e-05
5.93415e-06
-2.24001e-05
-1.43943e-05
-2.45829e-05
-4.46858e-06
-2.84304e-05
3.78113e-06
-3.65208e-05
-3.29585e-06
-5.49205e-05
-1.41048e-05
-8.49602e-05
-2.07996e-05
-0.000112302
-1.38489e-05
-0.000132163
-1.40178e-05
-0.000135934
-2.26367e-05
-0.000115419
-3.64815e-05
-7.53553e-05
-4.71316e-05
-1.68328e-05
-6.19394e-05
1.82773e-05
-3.41748e-05
3.95378e-05
-1.13863e-05
5.40836e-05
-1.91271e-06
6.6426e-05
-2.85699e-06
7.27576e-05
1.59379e-06
7.73953e-05
1.22865e-06
-4.61653e-06
8.20431e-05
-3.34462e-05
-2.91092e-05
-3.90357e-05
-3.2907e-05
-1.69923e-05
-1.0394e-05
-5.74792e-06
-5.31016e-06
-1.06119e-05
-9.53033e-06
-1.09095e-05
-4.17093e-06
-6.23148e-06
-8.96889e-07
-5.84459e-06
-3.6828e-06
-1.05106e-05
-9.43884e-06
-1.96644e-05
-1.1646e-05
-3.10914e-05
-2.42214e-06
-4.97796e-05
4.67024e-06
-6.93839e-05
-3.03244e-06
-7.90156e-05
-2.68498e-05
-7.45323e-05
-5.16148e-05
-8.11497e-05
-5.5322e-05
-8.19009e-05
-3.34236e-05
-4.53797e-05
-4.79075e-05
2.71351e-06
-5.00059e-05
2.61886e-05
-2.63321e-05
4.02022e-05
-1.24198e-05
5.69644e-05
-1.55335e-05
-2.34952e-05
7.58431e-05
-1.45225e-05
-1.45867e-05
-1.67505e-05
-3.0679e-05
-1.32992e-05
-1.38452e-05
-1.02385e-05
-8.37087e-06
-1.19558e-05
-7.81295e-06
-1.17186e-05
-4.40812e-06
-1.03514e-05
-2.26412e-06
-1.02955e-05
-3.73872e-06
-1.12323e-05
-8.50207e-06
-1.05246e-05
-1.23538e-05
-3.93586e-06
-9.01093e-06
-1.44377e-06
2.17811e-06
-1.01517e-05
5.67547e-06
-1.61386e-05
-2.08628e-05
-1.45614e-05
-5.3192e-05
-1.73765e-05
-5.25068e-05
-1.53405e-05
-3.54597e-05
-1.97243e-05
-4.35237e-05
-2.6098e-05
-4.36323e-05
-3.03114e-05
-2.21187e-05
-2.61245e-05
-1.66067e-05
7.09015e-06
-4.87482e-05
-4.78511e-05
3.1446e-05
-7.89987e-06
-6.68681e-06
-1.15342e-05
-2.70446e-05
-1.09936e-05
-1.43857e-05
-9.79338e-06
-9.57108e-06
-1.00157e-05
-7.59055e-06
-9.07551e-06
-5.3483e-06
-7.84817e-06
-3.49144e-06
-7.75969e-06
-3.82721e-06
-9.40725e-06
-6.85454e-06
-1.12389e-05
-1.05222e-05
-9.27119e-06
-1.09787e-05
-2.73018e-07
-6.82002e-06
8.45699e-06
-3.05445e-06
7.19535e-06
-1.96011e-05
-1.52075e-06
-4.44758e-05
-6.00525e-06
-4.80223e-05
8.74259e-08
-4.15524e-05
6.52126e-06
-4.99577e-05
2.04891e-05
-5.76003e-05
5.347e-05
-5.50996e-05
8.37024e-05
-4.68391e-05
8.4439e-05
-4.94848e-05
-1.84826e-05
5.50705e-05
-5.79094e-06
-8.95858e-07
-8.30454e-06
-2.4531e-05
-8.13709e-06
-1.45532e-05
-7.67183e-06
-1.00363e-05
-7.13675e-06
-8.12559e-06
-6.0463e-06
-6.43871e-06
-4.79061e-06
-4.74711e-06
-4.35757e-06
-4.26024e-06
-5.30826e-06
-5.90384e-06
-6.78869e-06
-9.0417e-06
-6.0379e-06
-1.17294e-05
-1.25681e-07
-1.27321e-05
9.71322e-06
-1.28932e-05
1.34436e-05
-2.33313e-05
7.19898e-06
-3.82312e-05
2.23288e-06
-4.30562e-05
4.42704e-06
-4.37466e-05
7.90052e-06
-5.34313e-05
1.5811e-05
-6.55108e-05
3.54903e-05
-7.4779e-05
6.31145e-05
-7.44633e-05
7.99938e-05
-6.6364e-05
-2.40236e-05
8.55351e-05
-4.13537e-06
3.23951e-06
-5.92473e-06
-2.27417e-05
-5.9999e-06
-1.4478e-05
-5.85904e-06
-1.01772e-05
-5.3611e-06
-8.62352e-06
-4.37154e-06
-7.42826e-06
-2.9652e-06
-6.15343e-06
-1.73765e-06
-5.48778e-06
-1.32457e-06
-6.31689e-06
-1.64745e-06
-8.71875e-06
-1.47474e-06
-1.1902e-05
1.17753e-06
-1.53843e-05
7.64592e-06
-1.93615e-05
1.11341e-05
-2.68194e-05
8.69933e-06
-3.57965e-05
6.81389e-06
-4.11709e-05
8.28156e-06
-4.52144e-05
8.81393e-06
-5.39638e-05
1.10498e-05
-6.77468e-05
1.7165e-05
-8.08942e-05
2.63359e-05
-8.36341e-05
3.50182e-05
-7.50463e-05
-4.35489e-05
5.45436e-05
-2.63174e-06
5.87123e-06
-4.08124e-06
-2.12922e-05
-4.48716e-06
-1.40721e-05
-4.50584e-06
-1.01585e-05
-4.14213e-06
-8.98724e-06
-3.31142e-06
-8.259e-06
-1.93212e-06
-7.53276e-06
-2.70058e-07
-7.14985e-06
1.16667e-06
-7.7536e-06
2.15011e-06
-9.70215e-06
3.02258e-06
-1.27744e-05
4.31828e-06
-1.66799e-05
6.42673e-06
-2.147e-05
7.00391e-06
-2.73966e-05
5.17179e-06
-3.39644e-05
3.07093e-06
-3.90701e-05
2.03114e-06
-4.41748e-05
6.60429e-07
-5.25931e-05
-2.20212e-06
-6.48842e-05
-5.4015e-06
-7.76948e-05
-6.38335e-06
-8.26522e-05
-5.55902e-06
-7.58705e-05
-5.51996e-05
6.09169e-06
-1.63172e-06
7.50292e-06
-2.85887e-06
-2.00651e-05
-3.38496e-06
-1.3546e-05
-3.53298e-06
-1.00105e-05
-3.33434e-06
-9.18592e-06
-2.75012e-06
-8.84326e-06
-1.68837e-06
-8.59456e-06
-2.13883e-07
-8.62438e-06
1.34824e-06
-9.31574e-06
2.63659e-06
-1.09905e-05
3.56559e-06
-1.37034e-05
4.14149e-06
-1.72558e-05
4.17646e-06
-2.15049e-05
3.13642e-06
-2.63566e-05
6.68438e-07
-3.14965e-05
-2.25882e-06
-3.6143e-05
-5.30356e-06
-4.11301e-05
-9.3007e-06
-4.8596e-05
-1.47097e-05
-5.94752e-05
-2.23289e-05
-7.00754e-05
-3.04478e-05
-7.45332e-05
-3.72557e-05
-6.90626e-05
-5.4892e-05
-3.75632e-05
-1.00108e-06
8.50398e-06
-2.07195e-06
-1.89942e-05
-2.6568e-06
-1.29612e-05
-2.91984e-06
-9.74748e-06
-2.90667e-06
-9.19914e-06
-2.61361e-06
-9.1364e-06
-1.99599e-06
-9.21228e-06
-1.05881e-06
-9.56164e-06
1.66245e-08
-1.03912e-05
9.41816e-07
-1.19157e-05
1.4339e-06
-1.41955e-05
1.33991e-06
-1.71618e-05
5.01935e-07
-2.0667e-05
-1.30756e-06
-2.45472e-05
-4.0638e-06
-2.87404e-05
-7.27318e-06
-3.29337e-05
-1.11021e-05
-3.73012e-05
-1.64531e-05
-4.3245e-05
-2.42757e-05
-5.16526e-05
-3.42248e-05
-6.01262e-05
-4.41743e-05
-6.45836e-05
-5.07569e-05
-6.248e-05
-5.49669e-05
-5.06821e-05
-6.31228e-07
9.1352e-06
-1.58776e-06
-1.80377e-05
-2.22614e-06
-1.23228e-05
-2.59436e-06
-9.37927e-06
-2.75232e-06
-9.04124e-06
-2.72714e-06
-9.16166e-06
-2.51959e-06
-9.41993e-06
-2.14943e-06
-9.9319e-06
-1.71424e-06
-1.08265e-05
-1.42408e-06
-1.22059e-05
-1.50089e-06
-1.41187e-05
-2.12389e-06
-1.65389e-05
-3.4105e-06
-1.93804e-05
-5.39488e-06
-2.25629e-05
-8.09622e-06
-2.60391e-05
-1.13696e-05
-2.96603e-05
-1.52271e-05
-3.34437e-05
-2.06622e-05
-3.781e-05
-2.92518e-05
-4.30629e-05
-4.08596e-05
-4.85184e-05
-5.31247e-05
-5.23185e-05
-6.26078e-05
-5.29968e-05
-4.95102e-05
-6.80645e-05
-4.50896e-07
9.58611e-06
-1.32404e-06
-1.71644e-05
-2.00264e-06
-1.16441e-05
-2.4691e-06
-8.91281e-06
-2.78199e-06
-8.7284e-06
-2.98211e-06
-8.96161e-06
-3.09731e-06
-9.30483e-06
-3.16455e-06
-9.86475e-06
-3.25996e-06
-1.07312e-05
-3.51148e-06
-1.19545e-05
-4.06879e-06
-1.35614e-05
-5.06948e-06
-1.55382e-05
-6.59766e-06
-1.78523e-05
-8.71483e-06
-2.04457e-05
-1.15047e-05
-2.32492e-05
-1.49589e-05
-2.62061e-05
-1.90889e-05
-2.93138e-05
-2.43247e-05
-3.25741e-05
-3.15901e-05
-3.57975e-05
-4.15425e-05
-3.85659e-05
-5.36476e-05
-4.02134e-05
-6.66315e-05
-4.00128e-05
-3.7317e-05
-7.88247e-05
-3.88255e-07
9.97443e-06
-1.21215e-06
-1.63404e-05
-1.92859e-06
-1.09276e-05
-2.48135e-06
-8.36002e-06
-2.93004e-06
-8.27973e-06
-3.31584e-06
-8.57585e-06
-3.67233e-06
-8.9484e-06
-4.04486e-06
-9.49228e-06
-4.49943e-06
-1.02766e-05
-5.1213e-06
-1.13326e-05
-6.01307e-06
-1.26697e-05
-7.27027e-06
-1.4281e-05
-8.98482e-06
-1.61377e-05
-1.12368e-05
-1.81937e-05
-1.41108e-05
-2.03752e-05
-1.7706e-05
-2.26108e-05
-2.21497e-05
-2.48701e-05
-2.75853e-05
-2.71385e-05
-3.41438e-05
-2.9239e-05
-4.20075e-05
-3.07022e-05
-5.13133e-05
-3.09075e-05
-6.19203e-05
-2.94058e-05
-2.60016e-05
-7.32358e-05
-3.88503e-07
1.0363e-05
-1.19498e-06
-1.55338e-05
-1.94992e-06
-1.01726e-05
-2.57779e-06
-7.73212e-06
-3.14135e-06
-7.71615e-06
-3.68133e-06
-8.03587e-06
-4.2265e-06
-8.40324e-06
-4.81839e-06
-8.90038e-06
-5.51393e-06
-9.58109e-06
-6.38144e-06
-1.04651e-05
-7.49663e-06
-1.15544e-05
-8.9384e-06
-1.28391e-05
-1.07833e-05
-1.42927e-05
-1.31037e-05
-1.58732e-05
-1.59622e-05
-1.75167e-05
-1.94265e-05
-1.91465e-05
-2.35987e-05
-2.0698e-05
-2.86309e-05
-2.21064e-05
-3.46297e-05
-2.32402e-05
-4.15393e-05
-2.37926e-05
-4.91361e-05
-2.33106e-05
-5.71007e-05
-2.14412e-05
-1.80233e-05
-6.5079e-05
-4.16326e-07
1.07794e-05
-1.23017e-06
-1.47199e-05
-2.02577e-06
-9.37698e-06
-2.71801e-06
-7.03985e-06
-3.37687e-06
-7.05726e-06
-4.04159e-06
-7.37111e-06
-4.73699e-06
-7.7078e-06
-5.49695e-06
-8.14036e-06
-6.36867e-06
-8.70931e-06
-7.40922e-06
-9.42444e-06
-8.68038e-06
-1.02831e-05
-1.02445e-05
-1.12749e-05
-1.2168e-05
-1.23691e-05
-1.45109e-05
-1.35303e-05
-1.73273e-05
-1.47001e-05
-2.06663e-05
-1.58076e-05
-2.4585e-05
-1.67793e-05
-2.9154e-05
-1.75374e-05
-3.44342e-05
-1.79601e-05
-4.03981e-05
-1.78286e-05
-4.68529e-05
-1.68558e-05
-5.34573e-05
-1.48367e-05
-1.16563e-05
-5.98242e-05
-4.53719e-07
1.12332e-05
-1.29152e-06
-1.38821e-05
-2.12554e-06
-8.54297e-06
-2.87187e-06
-6.29351e-06
-3.60651e-06
-6.32256e-06
-4.36865e-06
-6.6089e-06
-5.17944e-06
-6.89692e-06
-6.06678e-06
-7.25294e-06
-7.06867e-06
-7.70734e-06
-8.2307e-06
-8.26232e-06
-9.60285e-06
-8.91087e-06
-1.12387e-05
-9.63891e-06
-1.31871e-05
-1.04205e-05
-1.54964e-05
-1.12209e-05
-1.82104e-05
-1.19861e-05
-2.13652e-05
-1.26528e-05
-2.49972e-05
-1.31475e-05
-2.91355e-05
-1.33991e-05
-3.37791e-05
-1.33165e-05
-3.88665e-05
-1.27413e-05
-4.42553e-05
-1.14669e-05
-4.97224e-05
-9.36962e-06
-6.39666e-06
-5.4982e-05
-4.88774e-07
1.1722e-05
-1.3591e-06
-1.30119e-05
-2.22831e-06
-7.67379e-06
-3.01812e-06
-5.50368e-06
-3.81115e-06
-5.52946e-06
-4.64522e-06
-5.77473e-06
-5.53884e-06
-6.00321e-06
-6.51538e-06
-6.27631e-06
-7.60602e-06
-6.61664e-06
-8.84682e-06
-7.02145e-06
-1.02751e-05
-7.48247e-06
-1.19345e-05
-7.97944e-06
-1.38641e-05
-8.49074e-06
-1.60996e-05
-8.98536e-06
-1.86726e-05
-9.4131e-06
-2.16083e-05
-9.71712e-06
-2.49183e-05
-9.83751e-06
-2.86165e-05
-9.70113e-06
-3.26876e-05
-9.24547e-06
-3.70685e-05
-8.36047e-06
-4.1637e-05
-6.89837e-06
-4.6225e-05
-4.78167e-06
-2.00565e-06
-5.0616e-05
-5.13698e-07
1.22356e-05
-1.42156e-06
-1.21041e-05
-2.31969e-06
-6.7757e-06
-3.14211e-06
-4.68123e-06
-3.97694e-06
-4.69456e-06
-4.86146e-06
-4.89012e-06
-5.81021e-06
-5.05439e-06
-6.84287e-06
-5.2436e-06
-7.98473e-06
-5.47474e-06
-9.26391e-06
-5.74224e-06
-1.07124e-05
-6.0339e-06
-1.23607e-05
-6.33104e-06
-1.42393e-05
-6.61207e-06
-1.63771e-05
-6.84749e-06
-1.87944e-05
-6.99582e-06
-2.14993e-05
-7.01233e-06
-2.45056e-05
-6.83126e-06
-2.78055e-05
-6.4014e-06
-3.13749e-05
-5.67613e-06
-3.51534e-05
-4.582e-06
-3.90405e-05
-3.01131e-06
-4.29192e-05
-9.0292e-07
1.68488e-06
-4.66098e-05
-5.25624e-07
1.27612e-05
-1.47149e-06
-1.11584e-05
-2.39163e-06
-5.85559e-06
-3.23526e-06
-3.83756e-06
-4.0976e-06
-3.83214e-06
-5.0132e-06
-3.97445e-06
-5.99385e-06
-4.07371e-06
-7.05568e-06
-4.18178e-06
-8.21935e-06
-4.31111e-06
-9.50779e-06
-4.45381e-06
-1.09458e-05
-4.59589e-06
-1.25577e-05
-4.71905e-06
-1.43621e-05
-4.80762e-06
-1.63826e-05
-4.82688e-06
-1.86308e-05
-4.74762e-06
-2.11167e-05
-4.52654e-06
-2.38349e-05
-4.11314e-06
-2.67708e-05
-3.46568e-06
-2.98983e-05
-2.5487e-06
-3.317e-05
-1.31027e-06
-3.64841e-05
3.02743e-07
-3.97775e-05
2.39044e-06
4.85176e-06
-4.29444e-05
-5.24161e-07
1.32852e-05
-1.50322e-06
-1.01794e-05
-2.43686e-06
-4.92194e-06
-3.29164e-06
-2.98273e-06
-4.16847e-06
-2.95525e-06
-5.099e-06
-3.04389e-06
-6.0924e-06
-3.08033e-06
-7.16187e-06
-3.11237e-06
-8.3245e-06
-3.14855e-06
-9.59921e-06
-3.17914e-06
-1.10044e-05
-3.19064e-06
-1.25541e-05
-3.1693e-06
-1.42703e-05
-3.09141e-06
-1.61638e-05
-2.93332e-06
-1.82436e-05
-2.66785e-06
-2.05105e-05
-2.25973e-06
-2.29552e-05
-1.66849e-06
-2.55663e-05
-8.54719e-07
-2.83134e-05
1.98386e-07
-3.11472e-05
1.52347e-06
-3.4017e-05
3.17253e-06
-3.68408e-05
5.21425e-06
7.56407e-06
-3.95532e-05
-5.11443e-07
1.37966e-05
-1.51293e-06
-9.17793e-06
-2.45031e-06
-3.98453e-06
-3.30647e-06
-2.12651e-06
-4.18651e-06
-2.07516e-06
-5.11883e-06
-2.11158e-06
-6.11016e-06
-2.08906e-06
-7.17115e-06
-2.05147e-06
-8.31502e-06
-2.00476e-06
-9.55584e-06
-1.93838e-06
-1.09072e-05
-1.83929e-06
-1.23847e-05
-1.69173e-06
-1.40006e-05
-1.47545e-06
-1.57632e-05
-1.17073e-06
-1.76765e-05
-7.54652e-07
-1.97381e-05
-1.98138e-07
-2.19354e-05
5.28653e-07
-2.42504e-05
1.4603e-06
-2.66656e-05
2.61354e-06
-2.91424e-05
4.00023e-06
-3.1627e-05
5.65708e-06
-3.40631e-05
7.65032e-06
9.90582e-06
-3.64049e-05
-4.88657e-07
1.42853e-05
-1.49643e-06
-8.17014e-06
-2.42463e-06
-3.05629e-06
-3.27466e-06
-1.27644e-06
-4.1473e-06
-1.2025e-06
-5.06881e-06
-1.19008e-06
-6.04391e-06
-1.11402e-06
-7.08144e-06
-1.01402e-06
-8.19251e-06
-8.9377e-07
-9.38827e-06
-7.42653e-07
-1.06797e-05
-5.47898e-07
-1.20778e-05
-2.93581e-07
-1.35883e-05
3.5135e-08
-1.52149e-05
4.55785e-07
-1.6963e-05
9.93416e-07
-1.88267e-05
1.66547e-06
-2.07972e-05
2.49907e-06
-2.28591e-05
3.52214e-06
-2.49891e-05
4.7436e-06
-2.71579e-05
6.16891e-06
-2.93241e-05
7.82325e-06
-3.14286e-05
9.75488e-06
1.19438e-05
-3.34667e-05
-4.56358e-07
1.47416e-05
-1.45118e-06
-7.17528e-06
-2.35884e-06
-2.1486e-06
-3.19419e-06
-4.41057e-07
-4.05064e-06
-3.46064e-07
-4.9516e-06
-2.89146e-07
-5.90059e-06
-1.65073e-07
-6.905e-06
-9.64708e-09
-7.97343e-06
1.74616e-07
-9.11475e-06
3.98664e-07
-1.03371e-05
6.74464e-07
-1.16468e-05
1.01613e-06
-1.30479e-05
1.43625e-06
-1.45431e-05
1.95096e-06
-1.61369e-05
2.58719e-06
-1.78219e-05
3.35039e-06
-1.95893e-05
4.26645e-06
-2.14163e-05
5.34915e-06
-2.32944e-05
6.62167e-06
-2.51966e-05
8.07105e-06
-2.70894e-05
9.71604e-06
-2.89311e-05
1.15966e-05
1.37276e-05
-3.07149e-05
-4.11231e-07
1.51529e-05
-1.3757e-06
-6.21078e-06
-2.25267e-06
-1.2716e-06
-3.06527e-06
3.71561e-07
-3.89632e-06
4.85001e-07
-4.7673e-06
5.81814e-07
-5.68059e-06
7.48218e-07
-6.64305e-06
9.52805e-07
-7.66113e-06
1.19268e-06
-8.74159e-06
1.47914e-06
-9.89034e-06
1.82324e-06
-1.11091e-05
2.23496e-06
-1.2403e-05
2.73011e-06
-1.37763e-05
3.32429e-06
-1.52227e-05
4.03351e-06
-1.67389e-05
4.86653e-06
-1.83157e-05
5.84323e-06
-1.99464e-05
6.97983e-06
-2.16039e-05
8.27914e-06
-2.32818e-05
9.74889e-06
-2.49378e-05
1.13721e-05
-2.65483e-05
1.3207e-05
1.52962e-05
-2.81169e-05
-3.46864e-07
1.54998e-05
-1.2719e-06
-5.28575e-06
-2.11168e-06
-4.31807e-07
-2.89275e-06
1.15265e-06
-3.68885e-06
1.28113e-06
-4.52125e-06
1.41422e-06
-5.38815e-06
1.61514e-06
-6.3004e-06
1.86507e-06
-7.26031e-06
2.1526e-06
-8.27401e-06
2.49286e-06
-9.3433e-06
2.89255e-06
-1.04725e-05
3.36418e-06
-1.16633e-05
3.92093e-06
-1.29128e-05
4.57376e-06
-1.42207e-05
5.34139e-06
-1.55834e-05
6.22915e-06
-1.69923e-05
7.25208e-06
-1.8436e-05
8.42357e-06
-1.98999e-05
9.74297e-06
-2.13795e-05
1.12285e-05
-2.28472e-05
1.28398e-05
-2.42688e-05
1.46286e-05
1.66807e-05
-2.56532e-05
-2.6347e-07
1.57632e-05
-1.14786e-06
-4.40138e-06
-1.94389e-06
3.64231e-07
-2.6857e-06
1.89447e-06
-3.43683e-06
2.03228e-06
-4.21902e-06
2.19644e-06
-5.03706e-06
2.43321e-06
-5.88696e-06
2.71499e-06
-6.78046e-06
3.04611e-06
-7.71597e-06
3.42838e-06
-8.69979e-06
3.87638e-06
-9.73697e-06
4.40137e-06
-1.08171e-05
5.00106e-06
-1.19502e-05
5.70686e-06
-1.31262e-05
6.51735e-06
-1.43425e-05
7.4455e-06
-1.5591e-05
8.50061e-06
-1.68659e-05
9.69846e-06
-1.81667e-05
1.10437e-05
-1.94617e-05
1.25237e-05
-2.0766e-05
1.4144e-05
-2.20345e-05
1.58971e-05
1.79085e-05
-2.32623e-05
-1.50141e-07
1.59133e-05
-1.00931e-06
-3.54225e-06
-1.76236e-06
1.11728e-06
-2.45788e-06
2.59001e-06
-3.15498e-06
2.72939e-06
-3.88121e-06
2.9227e-06
-4.63349e-06
3.1855e-06
-5.41709e-06
3.49859e-06
-6.22939e-06
3.85842e-06
-7.07995e-06
4.27896e-06
-7.97392e-06
4.77038e-06
-8.90289e-06
5.33036e-06
-9.87305e-06
5.97124e-06
-1.08799e-05
6.7137e-06
-1.19204e-05
7.55785e-06
-1.2988e-05
8.51306e-06
-1.40838e-05
9.59645e-06
-1.51969e-05
1.08116e-05
-1.63239e-05
1.21707e-05
-1.74622e-05
1.36621e-05
-1.85996e-05
1.52815e-05
-1.9717e-05
1.70145e-05
1.89967e-05
-2.08051e-05
-1.06981e-08
1.5924e-05
-8.63156e-07
-2.68982e-06
-1.57899e-06
1.83312e-06
-2.22084e-06
3.23187e-06
-2.86319e-06
3.37172e-06
-3.52655e-06
3.58606e-06
-4.20603e-06
3.86496e-06
-4.91306e-06
4.20561e-06
-5.64809e-06
4.59344e-06
-6.40734e-06
5.03823e-06
-7.19246e-06
5.55555e-06
-8.01065e-06
6.14858e-06
-8.85825e-06
6.81886e-06
-9.7299e-06
7.58535e-06
-1.0624e-05
8.45198e-06
-1.15393e-05
9.42834e-06
-1.24678e-05
1.0525e-05
-1.34065e-05
1.17504e-05
-1.43473e-05
1.31115e-05
-1.52952e-05
1.46101e-05
-1.62458e-05
1.62322e-05
-1.71897e-05
1.79584e-05
1.9905e-05
-1.8098e-05
1.52754e-07
1.57712e-05
-7.19435e-07
-1.81764e-06
-1.40445e-06
2.51814e-06
-1.99426e-06
3.82168e-06
-2.57742e-06
3.95486e-06
-3.1787e-06
4.18731e-06
-3.79625e-06
4.48246e-06
-4.42487e-06
4.8342e-06
-5.07049e-06
5.23906e-06
-5.73729e-06
5.70506e-06
-6.42049e-06
6.23879e-06
-7.1203e-06
6.84844e-06
-7.8396e-06
7.53817e-06
-8.57148e-06
8.31726e-06
-9.31396e-06
9.19448e-06
-1.00648e-05
1.01792e-05
-1.08178e-05
1.12781e-05
-1.15597e-05
1.24923e-05
-1.22914e-05
1.38432e-05
-1.30089e-05
1.53277e-05
-1.3712e-05
1.69352e-05
-1.44058e-05
1.86524e-05
2.05424e-05
-1.50431e-05
3.2221e-07
1.5449e-05
-5.83906e-07
-9.11523e-07
-1.25094e-06
3.18519e-06
-1.79292e-06
4.36364e-06
-2.32829e-06
4.4902e-06
-2.87549e-06
4.73447e-06
-3.43077e-06
5.03769e-06
-3.99382e-06
5.39723e-06
-4.56522e-06
5.81047e-06
-5.14397e-06
6.28386e-06
-5.73155e-06
6.82642e-06
-6.32661e-06
7.44354e-06
-6.92806e-06
8.13964e-06
-7.52434e-06
8.91356e-06
-8.11805e-06
9.78821e-06
-8.70496e-06
1.07661e-05
-9.27265e-06
1.18458e-05
-9.81885e-06
1.30386e-05
-1.03243e-05
1.43487e-05
-1.07822e-05
1.57857e-05
-1.11911e-05
1.73442e-05
-1.15465e-05
1.90078e-05
2.08333e-05
-1.18374e-05
4.98467e-07
1.49505e-05
-4.62172e-07
4.91332e-08
-1.12374e-06
3.84677e-06
-1.62737e-06
4.86723e-06
-2.12567e-06
4.98847e-06
-2.63874e-06
5.24749e-06
-3.1406e-06
5.53952e-06
-3.65282e-06
5.90944e-06
-4.16572e-06
6.3234e-06
-4.67871e-06
6.79692e-06
-5.18782e-06
7.33559e-06
-5.69704e-06
7.9528e-06
-6.19932e-06
8.64193e-06
-6.6974e-06
9.41164e-06
-7.17693e-06
1.02677e-05
-7.62636e-06
1.12155e-05
-8.03837e-06
1.22578e-05
-8.39886e-06
1.33991e-05
-8.6928e-06
1.46427e-05
-8.90242e-06
1.59953e-05
-9.00944e-06
1.74513e-05
-9.01796e-06
1.90164e-05
2.07179e-05
-8.90253e-06
6.60223e-07
1.42903e-05
-3.61145e-07
1.07052e-06
-1.02336e-06
4.50896e-06
-1.49618e-06
5.34001e-06
-1.97294e-06
5.46518e-06
-2.45253e-06
5.72705e-06
-2.93338e-06
6.02037e-06
-3.40729e-06
6.38339e-06
-3.87922e-06
6.79541e-06
-4.34181e-06
7.25961e-06
-4.80994e-06
7.8038e-06
-5.26735e-06
8.41026e-06
-5.70059e-06
9.07517e-06
-6.12497e-06
9.83601e-06
-6.52002e-06
1.06628e-05
-6.87412e-06
1.15696e-05
-7.17489e-06
1.25586e-05
-7.40563e-06
1.36299e-05
-7.53614e-06
1.47733e-05
-7.56852e-06
1.60278e-05
-7.47057e-06
1.73533e-05
-7.2126e-06
1.87584e-05
2.02518e-05
-6.74656e-06
8.0201e-07
1.34883e-05
-2.7857e-07
2.1511e-06
-9.33748e-07
5.16409e-06
-1.385e-06
5.79123e-06
-1.84877e-06
5.92893e-06
-2.3079e-06
6.18619e-06
-2.76599e-06
6.4785e-06
-3.21391e-06
6.83139e-06
-3.65702e-06
7.23862e-06
-4.10167e-06
7.70436e-06
-4.53269e-06
8.23488e-06
-4.9522e-06
8.82979e-06
-5.36222e-06
9.48518e-06
-5.74118e-06
1.02149e-05
-6.08795e-06
1.10095e-05
-6.38737e-06
1.1869e-05
-6.62666e-06
1.27979e-05
-6.78367e-06
1.3787e-05
-6.85392e-06
1.48436e-05
-6.78837e-06
1.59622e-05
-6.56984e-06
1.71348e-05
-6.16629e-06
1.83548e-05
1.96296e-05
-5.54417e-06
8.97534e-07
1.25908e-05
-2.10842e-07
3.25944e-06
-8.41883e-07
5.79508e-06
-1.2727e-06
6.22201e-06
-1.72243e-06
6.37865e-06
-2.16126e-06
6.62504e-06
-2.59276e-06
6.91006e-06
-3.02079e-06
7.2595e-06
-3.44071e-06
7.65864e-06
-3.8606e-06
8.12434e-06
-4.26743e-06
8.64176e-06
-4.66643e-06
9.22881e-06
-5.04598e-06
9.86471e-06
-5.40161e-06
1.05705e-05
-5.72432e-06
1.13322e-05
-5.99606e-06
1.21408e-05
-6.21436e-06
1.30162e-05
-6.3429e-06
1.39155e-05
-6.39005e-06
1.48907e-05
-6.3081e-06
1.58803e-05
-6.07545e-06
1.69021e-05
-5.65655e-06
1.79359e-05
1.89836e-05
-5.01062e-06
9.42997e-07
1.16478e-05
-1.50936e-07
4.35334e-06
-7.44525e-07
6.38862e-06
-1.14097e-06
6.61842e-06
-1.56848e-06
6.80616e-06
-1.97862e-06
7.0352e-06
-2.37175e-06