/*--------------------------------*- C++ -*----------------------------------*\
| =========                 |                                                 |
| \\      /  F ield         | OpenFOAM: The Open Source CFD Toolbox           |
|  \\    /   O peration     | Version:  5.x                                   |
|   \\  /    A nd           | Web:      www.OpenFOAM.org                      |
|    \\/     M anipulation  |                                                 |
\*---------------------------------------------------------------------------*/
FoamFile
{
    version     2.0;
    format      ascii;
    class       volVectorField;
    location    "0.5";
    object      U;
}
// * * * * * * * * * * * * * * * * * * * * * * * * * * * * * * * * * * * * * //

dimensions      [0 1 -1 0 0 0 0];

internalField   nonuniform List<vector> 
2268
(
(-0.0316124 0.0103542 0)
(-0.0610102 0.00471984 0)
(-0.0557158 -0.00525593 0)
(-0.0166971 -0.011354 0)
(0.0406334 -0.0147818 0)
(0.104802 -0.0151141 0)
(0.165462 -0.0129783 0)
(0.214767 -0.00968387 0)
(0.24948 -0.00638677 0)
(0.270723 -0.00362087 0)
(0.281366 -0.00145748 0)
(0.284322 0.000530175 0)
(0.279734 0.00250416 0)
(0.268139 0.00490452 0)
(0.24815 0.00836704 0)
(0.216455 0.0134771 0)
(0.166399 0.0201157 0)
(0.0958815 0.0252131 0)
(-0.00720013 0.0130664 0)
(-0.0266462 0.00555464 0)
(-0.150504 0.0290326 0)
(-0.233579 -0.000820821 0)
(-0.0798365 -0.0532247 0)
(-0.041107 0.0312632 0)
(-0.0584014 0.0106296 0)
(-0.0506989 -0.0167016 0)
(-0.0108598 -0.0345646 0)
(0.045872 -0.044567 0)
(0.109295 -0.0454889 0)
(0.169023 -0.0390826 0)
(0.2172 -0.0292576 0)
(0.250921 -0.019475 0)
(0.271668 -0.0113303 0)
(0.282595 -0.00501568 0)
(0.286281 5.41084e-05 0)
(0.286238 0.00441483 0)
(0.283696 0.00889157 0)
(0.279653 0.0147227 0)
(0.274245 0.0235743 0)
(0.262833 0.0367274 0)
(0.236457 0.0540237 0)
(0.156927 0.0567487 0)
(0.0689489 0.0552278 0)
(-0.116884 0.0652074 0)
(-0.140607 -0.0112141 0)
(-0.0302826 -0.123309 0)
(-0.036614 0.0514979 0)
(-0.0482697 0.0142611 0)
(-0.0399784 -0.0285375 0)
(-0.00193348 -0.0569367 0)
(0.0517019 -0.0733024 0)
(0.113068 -0.0749423 0)
(0.171051 -0.0641777 0)
(0.217032 -0.0477579 0)
(0.248444 -0.0316477 0)
(0.26752 -0.0184466 0)
(0.277731 -0.00836536 0)
(0.281728 -0.000837681 0)
(0.281133 0.00503723 0)
(0.277028 0.0102623 0)
(0.270335 0.0161881 0)
(0.262711 0.0250073 0)
(0.256642 0.0396108 0)
(0.257589 0.0642681 0)
(0.240691 0.0889219 0)
(0.191268 0.112347 0)
(0.0572774 0.115126 0)
(-0.0282159 -0.015107 0)
(0.0295406 -0.146466 0)
(-0.0291693 0.067944 0)
(-0.0342178 0.0164798 0)
(-0.0242215 -0.03989 0)
(0.00881101 -0.0768168 0)
(0.0571209 -0.100143 0)
(0.115357 -0.103408 0)
(0.171294 -0.0883227 0)
(0.214967 -0.0650504 0)
(0.243936 -0.0427407 0)
(0.261269 -0.0250012 0)
(0.270916 -0.011751 0)
(0.275498 -0.00183588 0)
(0.276359 0.00597178 0)
(0.274159 0.0128775 0)
(0.269233 0.0201342 0)
(0.262025 0.0292982 0)
(0.253582 0.0423077 0)
(0.250336 0.0641252 0)
(0.256375 0.0963078 0)
(0.262364 0.139904 0)
(0.214986 0.157404 0)
(0.142794 0.0206177 0)
(0.097537 -0.10902 0)
(-0.0205103 0.0785066 0)
(-0.0139308 0.0155328 0)
(-0.00210171 -0.0496013 0)
(0.0264954 -0.0941634 0)
(0.0693276 -0.125015 0)
(0.121699 -0.130691 0)
(0.172343 -0.111456 0)
(0.211584 -0.0812418 0)
(0.237334 -0.0527884 0)
(0.253095 -0.0308593 0)
(0.26275 -0.0149863 0)
(0.268499 -0.00332363 0)
(0.271279 0.0058309 0)
(0.271499 0.0140149 0)
(0.269375 0.0225118 0)
(0.265175 0.0326296 0)
(0.259507 0.0455618 0)
(0.254225 0.0638991 0)
(0.256114 0.0909057 0)
(0.27921 0.135922 0)
(0.2961 0.167486 0)
(0.245162 0.0751891 0)
(0.150964 -0.0444125 0)
(-0.0103631 0.0824576 0)
(0.0147286 0.0109892 0)
(0.0321838 -0.0598563 0)
(0.064646 -0.110691 0)
(0.104424 -0.147127 0)
(0.144908 -0.15416 0)
(0.182295 -0.130994 0)
(0.211463 -0.0951707 0)
(0.230964 -0.0621231 0)
(0.24407 -0.0369753 0)
(0.253851 -0.0188373 0)
(0.261398 -0.00550261 0)
(0.266793 0.00478721 0)
(0.269843 0.0139862 0)
(0.270476 0.0233739 0)
(0.268963 0.0342429 0)
(0.266364 0.0475567 0)
(0.264206 0.0648565 0)
(0.263486 0.0863065 0)
(0.27617 0.120581 0)
(0.313098 0.158227 0)
(0.286801 0.117787 0)
(0.180579 0.0556399 0)
(0.00288437 0.0752575 0)
(0.0496394 -0.00423279 0)
(0.0869869 -0.0748978 0)
(0.136384 -0.126188 0)
(0.17298 -0.162999 0)
(0.191668 -0.168658 0)
(0.206248 -0.142021 0)
(0.219992 -0.102763 0)
(0.230487 -0.0681086 0)
(0.239051 -0.0426233 0)
(0.247419 -0.0242201 0)
(0.255591 -0.00989214 0)
(0.26303 0.00260437 0)
(0.269007 0.0128584 0)
(0.272704 0.0232989 0)
(0.273961 0.0344463 0)
(0.273763 0.0472915 0)
(0.274189 0.0640119 0)
(0.276044 0.0841396 0)
(0.279348 0.109832 0)
(0.307247 0.148182 0)
(0.301197 0.152204 0)
(0.21596 0.156241 0)
(0.0170444 0.0574042 0)
(0.0869272 -0.0249572 0)
(0.165137 -0.0953299 0)
(0.237349 -0.144248 0)
(0.260784 -0.172215 0)
(0.246966 -0.172014 0)
(0.234943 -0.144035 0)
(0.234488 -0.103699 0)
(0.238492 -0.0682028 0)
(0.244237 -0.0431475 0)
(0.251221 -0.0262858 0)
(0.2586 -0.0138695 0)
(0.264802 -0.0028611 0)
(0.270167 0.00866969 0)
(0.274958 0.0218651 0)
(0.278219 0.0358204 0)
(0.280947 0.0494364 0)
(0.28421 0.0647656 0)
(0.289438 0.0833432 0)
(0.293409 0.104263 0)
(0.307018 0.141091 0)
(0.316167 0.184674 0)
(0.210985 0.311899 0)
(0.508841 -0.382823 0)
(1.70672 -0.345941 0)
(2.53091 0.124237 0)
(1.9961 0.153545 0)
(1.97012 0.171587 0)
(1.62893 0.231456 0)
(0.945232 0.285453 0)
(0.00550334 -0.00917828 0)
(0.437443 -0.203589 0)
(0.935392 -0.084295 0)
(0.733071 0.0380588 0)
(-1.37049 0.552746 0)
(-3.35366 0.606655 0)
(-4.74373 0.273251 0)
(-4.84111 -0.18826 0)
(-3.94133 -0.357192 0)
(-2.78239 -0.403405 0)
(-1.31822 -0.490414 0)
(-0.249283 -0.340039 0)
(0.079395 -0.744219 0)
(0.616626 -0.566906 0)
(1.09521 -0.104902 0)
(1.12256 -0.0178527 0)
(1.19727 -0.0936072 0)
(1.90276 0.175723 0)
(1.78194 0.478011 0)
(0.729744 0.249909 0)
(0.549794 -0.400512 0)
(0.67429 -0.117153 0)
(-0.879995 1.05438 0)
(-3.74574 1.21155 0)
(-4.9803 0.543692 0)
(-4.23714 -0.0986033 0)
(-2.77542 -0.512522 0)
(-2.35835 -0.572536 0)
(-2.04547 -0.666478 0)
(-0.909342 -0.904218 0)
(0.0179062 -0.589408 0)
(0.0189536 -0.842116 0)
(0.214697 -0.806102 0)
(0.939881 0.044368 0)
(1.03969 0.102327 0)
(1.0101 -0.112557 0)
(1.3024 0.0338631 0)
(1.68378 0.562688 0)
(0.982779 0.512758 0)
(0.316906 -0.335831 0)
(-1.06292 0.755669 0)
(-3.21092 2.00396 0)
(-4.88437 1.8372 0)
(-4.65349 0.831177 0)
(-3.31698 -0.229674 0)
(-3.46031 -0.678459 0)
(-3.12433 -0.61504 0)
(-2.20598 -0.911384 0)
(-0.755847 -1.18201 0)
(0.176993 -0.789887 0)
(-0.0144925 -0.767191 0)
(-0.702676 -0.712964 0)
(0.0764094 -0.342664 0)
(0.85826 -0.0435399 0)
(1.18047 -0.123203 0)
(1.04773 0.0152212 0)
(1.29793 0.759486 0)
(0.703247 0.828737 0)
(-0.972898 0.323173 0)
(-3.31649 1.77877 0)
(-4.81355 2.58542 0)
(-5.15046 1.96728 0)
(-4.01249 0.402775 0)
(-3.24743 -0.515302 0)
(-3.00849 -0.843324 0)
(-2.89879 -0.866441 0)
(-2.7434 -1.12473 0)
(-1.05306 -1.72463 0)
(0.213269 -1.02792 0)
(-0.0533811 -0.57706 0)
(-0.707882 -0.821621 0)
(-0.221561 -0.646293 0)
(0.44322 -0.400484 0)
(0.732071 -0.279484 0)
(0.677672 0.0318132 0)
(0.657304 0.908509 0)
(0.106344 1.33328 0)
(-2.52338 1.30566 0)
(-4.45538 2.33892 0)
(-5.17527 2.73715 0)
(-4.55721 1.598 0)
(-3.03331 -0.147211 0)
(-2.66228 -0.785785 0)
(-1.97242 -1.01859 0)
(-1.86306 -0.957905 0)
(-2.40359 -1.41704 0)
(-1.62091 -2.21443 0)
(-0.101227 -1.28121 0)
(-0.0361909 -0.396896 0)
(-0.43867 -0.794147 0)
(-0.437705 -0.859876 0)
(0.114424 -0.5492 0)
(0.348611 -0.305692 0)
(0.267434 0.117763 0)
(0.0562551 1.1107 0)
(-0.442695 1.98428 0)
(-2.95433 2.12787 0)
(-4.43086 2.7052 0)
(-4.71473 2.67674 0)
(-3.77067 1.28075 0)
(-2.66594 -0.455013 0)
(-1.71713 -1.163 0)
(-1.05637 -1.23934 0)
(-0.751832 -1.00757 0)
(-1.03821 -1.07448 0)
(-0.651181 -2.54889 0)
(0.248162 -1.70985 0)
(0.0548596 -0.337547 0)
(-0.156136 -0.691305 0)
(-0.343331 -0.965451 0)
(-0.110482 -0.653522 0)
(0.0343665 -0.332779 0)
(-0.124786 0.190656 0)
(-0.328797 1.3333 0)
(-0.663268 2.55584 0)
(-2.3419 2.82859 0)
(-3.57074 2.95915 0)
(-3.72511 2.48033 0)
(-2.26801 0.826342 0)
(-1.11353 -0.942285 0)
(-0.411717 -1.50171 0)
(-0.0611982 -1.40264 0)
(-0.00355888 -1.1808 0)
(0.530954 -1.03027 0)
(-0.288219 -2.56151 0)
(0.342387 -1.87765 0)
(0.212348 -0.363084 0)
(0.0736209 -0.612811 0)
(-0.107438 -0.879682 0)
(-0.171315 -0.671411 0)
(-0.116739 -0.280901 0)
(-0.43041 0.320828 0)
(-0.560004 1.49229 0)
(-0.599659 2.87025 0)
(-1.04918 3.38174 0)
(-2.10596 3.2239 0)
(-2.32539 2.35171 0)
(-0.449107 0.192411 0)
(0.604152 -1.12777 0)
(0.726806 -1.63049 0)
(0.722434 -1.43633 0)
(0.548935 -1.22077 0)
(1.04288 -1.14795 0)
(-0.118695 -2.1907 0)
(0.346762 -1.89462 0)
(0.0345751 -0.00104411 0)
(0.158405 -0.0888693 0)
(0.286418 -0.161218 0)
(0.355645 -0.181288 0)
(0.331197 -0.171375 0)
(0.272193 -0.157787 0)
(0.236594 -0.138318 0)
(0.229178 -0.107269 0)
(0.235953 -0.0743035 0)
(0.249721 -0.0473722 0)
(0.265645 -0.0263496 0)
(0.279193 -0.00968 0)
(0.288473 0.00263477 0)
(0.292412 0.0106346 0)
(0.292426 0.0164065 0)
(0.290425 0.0236962 0)
(0.290324 0.0347831 0)
(0.294902 0.0525942 0)
(0.303493 0.0751019 0)
(0.318295 0.0974147 0)
(0.338651 0.128242 0)
(0.407644 0.163701 0)
(0.486166 0.317122 0)
(0.063872 -0.110429 0)
(0.231653 -0.259758 0)
(0.369388 -0.287597 0)
(0.329005 -0.18599 0)
(0.224944 -0.117535 0)
(0.15363 -0.107306 0)
(0.118293 -0.113825 0)
(0.108491 -0.11431 0)
(0.126932 -0.104834 0)
(0.171885 -0.0893662 0)
(0.222749 -0.0716109 0)
(0.268466 -0.0508175 0)
(0.302694 -0.0263493 0)
(0.320194 0.00138568 0)
(0.322312 0.0299404 0)
(0.31639 0.0505923 0)
(0.313571 0.0553615 0)
(0.316637 0.0605102 0)
(0.322859 0.0652238 0)
(0.338861 0.0708663 0)
(0.366972 0.0842935 0)
(0.414835 0.0921745 0)
(0.497063 0.104765 0)
(0.0963513 -0.314561 0)
(0.205571 -0.432172 0)
(0.187676 -0.258281 0)
(-0.321382 0.0537613 0)
(-0.296975 0.0240502 0)
(-0.292909 -0.0271763 0)
(-0.380166 -0.0377404 0)
(-0.483003 -0.08098 0)
(-0.489801 -0.143725 0)
(-0.308278 -0.148255 0)
(-0.177611 -0.117564 0)
(-0.0590467 -0.0848117 0)
(0.0551302 -0.0479333 0)
(0.15491 -0.0128077 0)
(0.220019 0.0125532 0)
(0.285115 0.0235318 0)
(0.339096 0.0245088 0)
(0.353238 0.0457121 0)
(0.340569 0.0624271 0)
(0.336447 0.0536875 0)
(0.354584 0.0476545 0)
(0.382599 0.03906 0)
(0.42986 0.0193635 0)
(-0.0298856 -0.51061 0)
(-0.155405 -0.118249 0)
(-0.183532 0.240626 0)
(-0.21921 0.11186 0)
(-0.105301 -0.114401 0)
(-0.125856 -0.0501875 0)
(-0.140137 0.0296066 0)
(-0.163493 -0.0535269 0)
(-0.235328 -0.17978 0)
(-0.369941 -0.301638 0)
(-0.532772 -0.247189 0)
(-0.671338 -0.217723 0)
(-0.761135 -0.187126 0)
(-0.754907 -0.14746 0)
(-0.542475 -0.112468 0)
(-0.200582 -0.0659606 0)
(0.0359031 -0.00996912 0)
(0.180455 0.0577248 0)
(0.259585 0.0793689 0)
(0.329307 0.060838 0)
(0.378689 0.0475085 0)
(0.404892 0.0228991 0)
(0.426442 -0.0225273 0)
(-0.130509 -0.212407 0)
(-0.226351 -0.201003 0)
(-0.171813 -0.0813758 0)
(-0.0280093 -0.0296426 0)
(-0.0341698 -0.0402773 0)
(-0.0690172 -0.0062881 0)
(-0.0426711 0.0133365 0)
(-0.0266229 0.00699019 0)
(-0.0439929 -0.00326282 0)
(-0.0802059 0.00177301 0)
(-0.117001 0.0398836 0)
(-0.205006 0.0188108 0)
(-0.355963 -0.106994 0)
(-0.416968 -0.245553 0)
(-0.373259 -0.355986 0)
(-0.427081 -0.497292 0)
(-0.510541 -0.286907 0)
(-0.372276 -0.174704 0)
(-0.0662101 -0.0960543 0)
(0.100448 -0.0850704 0)
(0.188418 -0.0227214 0)
(0.26303 -0.0017528 0)
(0.358474 -0.0144995 0)
(-0.0814935 -0.117491 0)
(-0.0796309 -0.190794 0)
(-0.0936024 -0.0578306 0)
(-0.0540942 -0.0371876 0)
(-0.058176 -0.0520628 0)
(-0.0640668 -0.0286925 0)
(-0.0585456 -0.0167972 0)
(-0.0553897 -0.0315169 0)
(-0.0599391 -0.0681296 0)
(-0.0632003 -0.0904198 0)
(-0.042804 -0.0507745 0)
(0.00583728 0.0477479 0)
(-0.0273532 0.0812815 0)
(-0.0933688 -0.0665444 0)
(-0.0584594 -0.234103 0)
(-0.0970115 -0.20927 0)
(-0.096756 -0.156265 0)
(-0.0725319 -0.325617 0)
(-0.123059 -0.367525 0)
(-0.144145 -0.160353 0)
(-0.230611 -0.122623 0)
(-0.0210375 -0.198678 0)
(0.107744 -0.235142 0)
(-0.0425266 -0.0513407 0)
(-0.0459874 -0.147523 0)
(-0.0700582 -0.076582 0)
(-0.0541167 -0.0492607 0)
(-0.0531806 -0.0389472 0)
(-0.0506036 -0.0245981 0)
(-0.045216 -0.0139113 0)
(-0.0412532 -0.0186456 0)
(-0.0454947 -0.0396124 0)
(-0.0568278 -0.0620247 0)
(-0.0614348 -0.0593434 0)
(-0.0354757 -0.0272455 0)
(0.0334967 -0.00857185 0)
(0.0480064 -0.130554 0)
(0.0340548 -0.29039 0)
(-0.0454579 -0.30162 0)
(-0.019439 -0.201645 0)
(0.0191185 -0.185202 0)
(0.0556132 -0.19006 0)
(0.184144 -0.126315 0)
(0.359517 -0.0641377 0)
(0.498176 -0.261256 0)
(0.439365 -0.231622 0)
(-0.0265544 -0.0176171 0)
(-0.0368827 -0.138862 0)
(-0.0483636 -0.0782408 0)
(-0.0425977 -0.0537097 0)
(-0.0402208 -0.0427518 0)
(-0.035245 -0.0316259 0)
(-0.0288576 -0.0212839 0)
(-0.0237917 -0.0200322 0)
(-0.0250239 -0.0323337 0)
(-0.0329954 -0.0514537 0)
(-0.0384581 -0.0611929 0)
(-0.0244466 -0.050906 0)
(0.0238034 -0.0301843 0)
(0.0736294 -0.0963724 0)
(0.0680082 -0.204797 0)
(0.0153203 -0.237 0)
(0.00932519 -0.23682 0)
(0.0332073 -0.313696 0)
(0.0579534 -0.37923 0)
(0.123582 -0.42101 0)
(0.264269 -0.417456 0)
(0.375983 -0.330121 0)
(0.466126 -0.020583 0)
(-0.016407 0.00782052 0)
(-0.0269266 -0.12796 0)
(-0.0345342 -0.0792248 0)
(-0.0320928 -0.0548373 0)
(-0.0307735 -0.0455708 0)
(-0.0265294 -0.0375729 0)
(-0.0200218 -0.0291095 0)
(-0.0123574 -0.025206 0)
(-0.00748271 -0.0311385 0)
(-0.00771977 -0.0461458 0)
(-0.00988916 -0.064307 0)
(-0.00527013 -0.0825276 0)
(0.0189715 -0.102371 0)
(0.0591485 -0.148135 0)
(0.058029 -0.202029 0)
(0.0395195 -0.225969 0)
(0.0368474 -0.240188 0)
(0.0483158 -0.282925 0)
(0.0539785 -0.356182 0)
(0.0671517 -0.420448 0)
(0.117509 -0.425088 0)
(0.144114 -0.395873 0)
(0.220193 -0.219377 0)
(-0.00910778 0.0265545 0)
(-0.0177613 -0.11845 0)
(-0.0249886 -0.0772385 0)
(-0.0246471 -0.0551008 0)
(-0.0238332 -0.0477354 0)
(-0.0206446 -0.0425451 0)
(-0.0147716 -0.0370801 0)
(-0.00618889 -0.0338382 0)
(0.00277547 -0.0369624 0)
(0.00932723 -0.0481566 0)
(0.0135532 -0.0652985 0)
(0.0190396 -0.0868205 0)
(0.0284749 -0.113131 0)
(0.0387886 -0.149029 0)
(0.0356546 -0.189943 0)
(0.022164 -0.217832 0)
(0.0125306 -0.243829 0)
(0.0107392 -0.292741 0)
(-0.0013784 -0.363592 0)
(-0.0237507 -0.435012 0)
(-0.0316593 -0.455687 0)
(-0.0453485 -0.40723 0)
(-0.0201629 -0.268023 0)
(-0.00457089 0.0374171 0)
(-0.0118955 -0.111229 0)
(-0.0182603 -0.0744646 0)
(-0.0190863 -0.0545389 0)
(-0.0189716 -0.0492552 0)
(-0.0169195 -0.0464955 0)
(-0.0126102 -0.0440324 0)
(-0.00561414 -0.0431085 0)
(0.0030414 -0.0462988 0)
(0.0110886 -0.0556726 0)
(0.0171467 -0.0712521 0)
(0.0214839 -0.0916929 0)
(0.0234356 -0.116868 0)
(0.021515 -0.146714 0)
(0.0123641 -0.177865 0)
(-0.00442738 -0.203173 0)
(-0.0188996 -0.230465 0)
(-0.0349101 -0.274598 0)
(-0.0606469 -0.337584 0)
(-0.0985505 -0.401039 0)
(-0.145849 -0.425537 0)
(-0.193225 -0.387829 0)
(-0.218845 -0.288783 0)
(-0.00183624 0.0438463 0)
(-0.00818167 -0.105114 0)
(-0.0138064 -0.0714953 0)
(-0.0154012 -0.0533547 0)
(-0.0160647 -0.0497596 0)
(-0.015249 -0.0488142 0)
(-0.0128825 -0.048572 0)
(-0.00863827 -0.0498282 0)
(-0.00285625 -0.0540128 0)
(0.00294853 -0.0625454 0)
(0.00711739 -0.0758979 0)
(0.00848295 -0.0934514 0)
(0.00615811 -0.114287 0)
(-0.000434792 -0.137823 0)
(-0.0131541 -0.162612 0)
(-0.0295975 -0.186279 0)
(-0.0467549 -0.211226 0)
(-0.0687819 -0.247602 0)
(-0.104005 -0.300974 0)
(-0.156359 -0.353778 0)
(-0.217594 -0.378426 0)
(-0.266874 -0.357286 0)
(-0.286069 -0.292528 0)
(-0.000366246 0.0480195 0)
(-0.00590974 -0.0996545 0)
(-0.0110624 -0.0681356 0)
(-0.0133021 -0.0516328 0)
(-0.0146514 -0.0493287 0)
(-0.0149892 -0.0495972 0)
(-0.0143745 -0.0506694 0)
(-0.0127709 -0.053209 0)
(-0.0103802 -0.0580429 0)
(-0.00805358 -0.065923 0)
(-0.00710686 -0.0771379 0)
(-0.00877218 -0.0915066 0)
(-0.0136729 -0.10844 0)
(-0.0223252 -0.127237 0)
(-0.0349075 -0.147861 0)
(-0.0511465 -0.168809 0)
(-0.0693299 -0.190645 0)
(-0.0915421 -0.217688 0)
(-0.127669 -0.253711 0)
(-0.185628 -0.291652 0)
(-0.256814 -0.315645 0)
(-0.319881 -0.317301 0)
(-0.360089 -0.298651 0)
(0.000190881 0.0506516 0)
(-0.00468215 -0.0947831 0)
(-0.00952984 -0.0646005 0)
(-0.0122864 -0.0493626 0)
(-0.0142956 -0.0480288 0)
(-0.0156462 -0.0490606 0)
(-0.016447 -0.0507787 0)
(-0.0168626 -0.0537967 0)
(-0.0171501 -0.0586674 0)
(-0.0178341 -0.0657367 0)
(-0.0197318 -0.0751773 0)
(-0.0236986 -0.086905 0)
(-0.0303274 -0.100676 0)
(-0.0399392 -0.116179 0)
(-0.0530201 -0.132976 0)
(-0.0697354 -0.15074 0)
(-0.0897408 -0.169464 0)
(-0.113847 -0.189464 0)
(-0.146271 -0.210623 0)
(-0.19318 -0.231623 0)
(-0.255247 -0.247472 0)
(-0.325247 -0.250109 0)
(-0.392782 -0.235684 0)
(0.000241444 0.052789 0)
(-0.00415625 -0.0902659 0)
(-0.00886589 -0.0608487 0)
(-0.0120533 -0.0466045 0)
(-0.0146458 -0.0459477 0)
(-0.0168615 -0.0474343 0)
(-0.018801 -0.0494192 0)
(-0.0206725 -0.0524529 0)
(-0.0227747 -0.0569544 0)
(-0.0255089 -0.0631203 0)
(-0.0293795 -0.0710237 0)
(-0.0349739 -0.0806251 0)
(-0.0427869 -0.0917806 0)
(-0.0532962 -0.104208 0)
(-0.0669258 -0.117538 0)
(-0.0840747 -0.131418 0)
(-0.105379 -0.145818 0)
(-0.131811 -0.160651 0)
(-0.164145 -0.174593 0)
(-0.203235 -0.18477 0)
(-0.249962 -0.188311 0)
(-0.303769 -0.183445 0)
(-0.362544 -0.168005 0)
(7.76717e-05 0.054834 0)
(-0.00406236 -0.0859125 0)
(-0.0087713 -0.0568909 0)
(-0.0123123 -0.0434122 0)
(-0.0154167 -0.0431959 0)
(-0.0183545 -0.0449012 0)
(-0.0212236 -0.0469344 0)
(-0.0242003 -0.0497687 0)
(-0.0275613 -0.0537337 0)
(-0.0316432 -0.058961 0)
(-0.0368246 -0.0654743 0)
(-0.0435503 -0.0732311 0)
(-0.0522443 -0.0820814 0)
(-0.0633164 -0.0917908 0)
(-0.0771273 -0.101994 0)
(-0.0939915 -0.112264 0)
(-0.114333 -0.122284 0)
(-0.138912 -0.131959 0)
(-0.168678 -0.140753 0)
(-0.203925 -0.146641 0)
(-0.243617 -0.146183 0)
(-0.285802 -0.136616 0)
(-0.328405 -0.117052 0)
(-0.000146668 0.056978 0)
(-0.00419315 -0.0815728 0)
(-0.00901299 -0.0527145 0)
(-0.0128429 -0.0398454 0)
(-0.016386 -0.039879 0)
(-0.0199127 -0.0416191 0)
(-0.0235329 -0.0435449 0)
(-0.0273811 -0.0460691 0)
(-0.0316855 -0.049442 0)
(-0.0367236 -0.0537398 0)
(-0.0428182 -0.0589583 0)
(-0.0503269 -0.065048 0)
(-0.0595891 -0.0718471 0)
(-0.0709589 -0.0791539 0)
(-0.0847401 -0.086653 0)
(-0.101205 -0.0939413 0)
(-0.120642 -0.100626 0)
(-0.143402 -0.106247 0)
(-0.169946 -0.110032 0)
(-0.200498 -0.110706 0)
(-0.234408 -0.106645 0)
(-0.269952 -0.096532 0)
(-0.304792 -0.0793419 0)
(-0.000362003 0.0593371 0)
(-0.00442222 -0.0771382 0)
(-0.00942822 -0.0483219 0)
(-0.0134833 -0.0359595 0)
(-0.0173914 -0.0361036 0)
(-0.0213819 -0.0377423 0)
(-0.0255809 -0.0394429 0)
(-0.0300942 -0.0415784 0)
(-0.0351065 -0.0443355 0)
(-0.0408386 -0.0477416 0)
(-0.0475661 -0.0517728 0)
(-0.0555612 -0.0563601 0)
(-0.0650973 -0.0613517 0)
(-0.0764746 -0.0665658 0)
(-0.089914 -0.0716909 0)
(-0.105634 -0.0763611 0)
(-0.123859 -0.080206 0)
(-0.144752 -0.0828396 0)
(-0.168445 -0.0837371 0)
(-0.194824 -0.0818671 0)
(-0.223297 -0.0758273 0)
(-0.252779 -0.0647163 0)
(-0.28162 -0.0481388 0)
(-0.000517935 0.0618948 0)
(-0.0046614 -0.0725482 0)
(-0.00990173 -0.043729 0)
(-0.0141196 -0.0318103 0)
(-0.0183174 -0.0319697 0)
(-0.0226585 -0.0334144 0)
(-0.0272789 -0.0348138 0)
(-0.0322638 -0.0365112 0)
(-0.0377657 -0.0386463 0)
(-0.0439643 -0.0412155 0)
(-0.0510755 -0.0441782 0)
(-0.0593033 -0.0474339 0)
(-0.0688814 -0.0508588 0)
(-0.0800308 -0.054286 0)
(-0.0929036 -0.0574238 0)
(-0.107678 -0.0599672 0)
(-0.124468 -0.0615437 0)
(-0.143326 -0.0617545 0)
(-0.164283 -0.0602023 0)
(-0.187167 -0.0561923 0)
(-0.21144 -0.0488107 0)
(-0.236253 -0.0375225 0)
(-0.260403 -0.0221201 0)
(-0.000594757 0.0646156 0)
(-0.00485841 -0.0677628 0)
(-0.0103519 -0.0389636 0)
(-0.0146759 -0.0274564 0)
(-0.0190897 -0.0275692 0)
(-0.0236794 -0.0287625 0)
(-0.0285868 -0.0298221 0)
(-0.0338767 -0.0310641 0)
(-0.0396777 -0.0325939 0)
(-0.0461414 -0.0343886 0)
(-0.0534228 -0.036388 0)
(-0.0616799 -0.0384844 0)
(-0.0711185 -0.0405744 0)
(-0.0818797 -0.0424842 0)
(-0.0940742 -0.0439764 0)
(-0.107837 -0.0447816 0)
(-0.1232 -0.0445476 0)
(-0.140171 -0.0429632 0)
(-0.158701 -0.0397389 0)
(-0.17857 -0.0343834 0)
(-0.199322 -0.026211 0)
(-0.22032 -0.0148384 0)
(-0.240673 -0.000333172 0)
(-0.000589614 0.0674335 0)
(-0.00499102 -0.062766 0)
(-0.0107245 -0.0340594 0)
(-0.0150996 -0.0229583 0)
(-0.0196625 -0.0229842 0)
(-0.0244098 -0.0238962 0)
(-0.0294917 -0.0246037 0)
(-0.0349519 -0.0253977 0)
(-0.0409 -0.0263562 0)
(-0.0474578 -0.0274415 0)
(-0.0547393 -0.0285801 0)
(-0.0628805 -0.0296797 0)
(-0.0720362 -0.0306387 0)
(-0.0822994 -0.0312758 0)
(-0.093755 -0.0314137 0)
(-0.106471 -0.0308067 0)
(-0.120449 -0.0291542 0)
(-0.135664 -0.026209 0)
(-0.152021 -0.0217491 0)
(-0.169324 -0.0154407 0)
(-0.187133 -0.00675861 0)
(-0.20495 0.00450254 0)
(-0.222306 0.0181579 0)
(-0.000512606 0.070277 0)
(-0.00505 -0.0575693 0)
(-0.0109801 -0.0290549 0)
(-0.0153534 -0.0183758 0)
(-0.0200066 -0.0182881 0)
(-0.0248326 -0.0189088 0)
(-0.0299932 -0.0192689 0)
(-0.0355134 -0.0196373 0)
(-0.0414859 -0.0200695 0)
(-0.048007 -0.0205163 0)
(-0.0551661 -0.0209057 0)
(-0.063077 -0.0211553 0)
(-0.0718412 -0.0211451 0)
(-0.081528 -0.0207301 0)
(-0.0922006 -0.0197597 0)
(-0.103882 -0.0180226 0)
(-0.116552 -0.0152791 0)
(-0.130166 -0.0113101 0)
(-0.144601 -0.00595879 0)
(-0.159666 0.00098381 0)
(-0.175075 0.00991166 0)
(-0.190391 0.0209524 0)
(-0.205238 0.0338467 0)
(-0.000386737 0.073074 0)
(-0.00502896 -0.052216 0)
(-0.0110852 -0.0240018 0)
(-0.0154086 -0.0137615 0)
(-0.0200973 -0.0135476 0)
(-0.0249357 -0.0138803 0)
(-0.0300953 -0.0139103 0)
(-0.0355873 -0.0138853 0)
(-0.0414881 -0.0138436 0)
(-0.0478762 -0.01373 0)
(-0.0548243 -0.0134745 0)
(-0.0624063 -0.0129911 0)
(-0.0707043 -0.0121637 0)
(-0.0797781 -0.0108851 0)
(-0.0896552 -0.00901535 0)
(-0.100332 -0.00638421 0)
(-0.111774 -0.00279336 0)
(-0.123932 0.00193753 0)
(-0.136686 0.00792043 0)
(-0.149876 0.015254 0)
(-0.163269 0.0242248 0)
(-0.176483 0.0350425 0)
(-0.189258 0.0473936 0)
(-0.00024453 0.0757716 0)
(-0.00491632 -0.046781 0)
(-0.0110079 -0.0189663 0)
(-0.0152411 -0.009161 0)
(-0.0199148 -0.00882181 0)
(-0.0247071 -0.00888076 0)
(-0.0298004 -0.00860732 0)
(-0.0351941 -0.0082264 0)
(-0.0409524 -0.00776338 0)
(-0.0471368 -0.00716183 0)
(-0.0537995 -0.00634967 0)
(-0.0609948 -0.00523934 0)
(-0.0687924 -0.00374733 0)
(-0.0772285 -0.00176739 0)
(-0.0863107 0.000832327 0)
(-0.0960264 0.00417251 0)
(-0.106335 0.00841153 0)
(-0.11719 0.0137042 0)
(-0.128479 0.0201282 0)
(-0.14006 0.0277253 0)
(-0.151734 0.036695 0)
(-0.163182 0.0472319 0)
(-0.17423 0.0591554 0)
(-0.000109136 0.0783164 0)
(-0.00469331 -0.0413647 0)
(-0.0107295 -0.0140132 0)
(-0.0148338 -0.00461743 0)
(-0.0194481 -0.00415969 0)
(-0.0241396 -0.00396646 0)
(-0.0291113 -0.00341953 0)
(-0.0343491 -0.00272164 0)
(-0.0399093 -0.00188905 0)
(-0.0458377 -0.000863932 0)
(-0.0521681 0.000423696 0)
(-0.0589517 0.00205005 0)
(-0.0662382 0.00408699 0)
(-0.0740268 0.00664883 0)
(-0.0823321 0.00982306 0)
(-0.0911464 0.0137211 0)
(-0.100407 0.0184562 0)
(-0.110084 0.0241557 0)
(-0.120074 0.0308967 0)
(-0.130247 0.0386589 0)
(-0.140507 0.047574 0)
(-0.150494 0.0578397 0)
(-0.160071 0.0694573 0)
(2.16579e-05 0.0806577 0)
(-0.00433648 -0.0360711 0)
(-0.010255 -0.00919973 0)
(-0.0141863 -0.000172909 0)
(-0.0186984 0.000394094 0)
(-0.023236 0.000815303 0)
(-0.0280352 0.00160455 0)
(-0.0330672 0.00258323 0)
(-0.0383826 0.00373629 0)
(-0.0440132 0.00512619 0)
(-0.0499854 0.00681113 0)
(-0.0563418 0.0088564 0)
(-0.0630999 0.0113433 0)
(-0.0702665 0.0143696 0)
(-0.0778439 0.0180013 0)
(-0.0858098 0.0223322 0)
(-0.0941266 0.0274481 0)
(-0.102737 0.0334413 0)
(-0.111582 0.0403875 0)
(-0.120544 0.0482572 0)
(-0.129566 0.0570621 0)
(-0.13833 0.0670887 0)
(-0.146671 0.0784806 0)
(0.000189347 0.0827495 0)
(-0.00383308 -0.030979 0)
(-0.00961795 -0.00457426 0)
(-0.0133234 0.00412877 0)
(-0.0176903 0.00478817 0)
(-0.0220223 0.00541491 0)
(-0.0265983 0.00642718 0)
(-0.0313728 0.00764219 0)
(-0.0363961 0.00907283 0)
(-0.0416909 0.0107727 0)
(-0.0472838 0.0127874 0)
(-0.0531941 0.015184 0)
(-0.0594262 0.0180364 0)
(-0.0659786 0.0214358 0)
(-0.0728569 0.025417 0)
(-0.0800408 0.0300718 0)
(-0.0874903 0.0354739 0)
(-0.0951683 0.0417103 0)
(-0.10298 0.0488057 0)
(-0.110885 0.0567437 0)
(-0.118864 0.0654554 0)
(-0.126602 0.0752379 0)
(-0.133909 0.0864269 0)
(0.000438558 0.084456 0)
(-0.00320442 -0.0261243 0)
(-0.00887759 -0.000170679 0)
(-0.0122907 0.00823784 0)
(-0.0164735 0.00896303 0)
(-0.0205366 0.00977026 0)
(-0.0248529 0.0109745 0)
(-0.0293274 0.0124095 0)
(-0.0339983 0.0140782 0)
(-0.0389109 0.0160377 0)
(-0.0440774 0.0183371 0)
(-0.0495071 0.0210282 0)
(-0.0551814 0.0241854 0)
(-0.0611336 0.0278533 0)
(-0.0673555 0.0321079 0)
(-0.0737843 0.0370103 0)
(-0.0804012 0.0426368 0)
(-0.0871964 0.0490243 0)
(-0.0941147 0.0562567 0)
(-0.101085 0.0642686 0)
(-0.108126 0.0729263 0)
(-0.115003 0.0824812 0)
(-0.121476 0.0934576 0)
(0.00083304 0.0855831 0)
(-0.00244931 -0.0214676 0)
(-0.00809774 0.00400524 0)
(-0.01115 0.0121112 0)
(-0.0151259 0.0128787 0)
(-0.0188727 0.0138342 0)
(-0.0228695 0.0151901 0)
(-0.0269908 0.0168241 0)
(-0.031276 0.01871 0)
(-0.0357437 0.0208863 0)
(-0.0404299 0.0234053 0)
(-0.0453254 0.0263313 0)
(-0.0504366 0.0297301 0)
(-0.0557513 0.0335987 0)
(-0.0612584 0.038074 0)
(-0.0669255 0.0431703 0)
(-0.072747 0.0489569 0)
(-0.0786868 0.0554559 0)
(-0.084673 0.0627635 0)
(-0.0907581 0.070835 0)
(-0.0969301 0.0795296 0)
(-0.102986 0.088937 0)
(-0.108662 0.0997092 0)
(0.00143659 0.0860214 0)
(-0.00157278 -0.0169014 0)
(-0.00734345 0.00795556 0)
(-0.00996331 0.0157163 0)
(-0.0137347 0.0164902 0)
(-0.0171364 0.0175814 0)
(-0.0207819 0.019072 0)
(-0.0244992 0.0208335 0)
(-0.0283642 0.0228814 0)
(-0.0323808 0.0252353 0)
(-0.0365407 0.0279367 0)
(-0.0408368 0.0310427 0)
(-0.0453201 0.0346017 0)
(-0.0499492 0.0386655 0)
(-0.0546991 0.04329 0)
(-0.0595666 0.0485287 0)
(-0.0645258 0.0544041 0)
(-0.0695535 0.0609995 0)
(-0.0746019 0.0683643 0)
(-0.0796618 0.0764451 0)
(-0.0847823 0.0852074 0)
(-0.0898854 0.0945526 0)
(-0.0946003 0.105162 0)
(0.0021681 0.0856285 0)
(-0.000681232 -0.0122345 0)
(-0.0066566 0.0117201 0)
(-0.00880833 0.0190457 0)
(-0.0124035 0.0197872 0)
(-0.0154283 0.0209932 0)
(-0.0187586 0.0225709 0)
(-0.0220987 0.0244263 0)
(-0.0255215 0.0265729 0)
(-0.0290475 0.0290509 0)
(-0.0326783 0.031893 0)
(-0.0363982 0.0351319 0)
(-0.0402178 0.0388036 0)
(-0.0441194 0.0429809 0)
(-0.0480844 0.0476976 0)
(-0.0521111 0.0530144 0)
(-0.0561556 0.0589518 0)
(-0.0601586 0.0655753 0)
(-0.0641377 0.0729074 0)
(-0.0680421 0.0809786 0)
(-0.0718724 0.0897354 0)
(-0.0756416 0.0990849 0)
(-0.0789137 0.109534 0)
(0.00301405 0.0843679 0)
(0.000197883 -0.00747827 0)
(-0.00608658 0.0153516 0)
(-0.00775096 0.022097 0)
(-0.0112538 0.0227884 0)
(-0.0139261 0.0240923 0)
(-0.0169746 0.0256951 0)
(-0.0199681 0.0276199 0)
(-0.023009 0.0298332 0)
(-0.0261024 0.0323729 0)
(-0.0292464 0.0352804 0)
(-0.0324273 0.0385998 0)
(-0.035653 0.0423589 0)
(-0.0388799 0.0466034 0)
(-0.0420862 0.0513415 0)
(-0.0452727 0.05663 0)
(-0.0483911 0.0625209 0)
(-0.0513985 0.0690485 0)
(-0.0542454 0.0762248 0)
(-0.0568355 0.0841399 0)
(-0.0591412 0.0927448 0)
(-0.0612255 0.101967 0)
(-0.0626589 0.112149 0)
(0.00399719 0.0821892 0)
(0.00103625 -0.00250124 0)
(-0.00564961 0.0189032 0)
(-0.00683661 0.0248667 0)
(-0.0103456 0.0255211 0)
(-0.0127099 0.0269025 0)
(-0.0155677 0.0285378 0)
(-0.0182762 0.0304637 0)
(-0.0210313 0.0326926 0)
(-0.0237907 0.0352484 0)
(-0.0265455 0.0381948 0)
(-0.0292862 0.0415126 0)
(-0.0320135 0.0452514 0)
(-0.0347165 0.0494735 0)
(-0.0373528 0.0541555 0)
(-0.039861 0.05934 0)
(-0.0421941 0.0650734 0)
(-0.0442966 0.0713766 0)
(-0.0460923 0.0782945 0)
(-0.0474653 0.0858953 0)
(-0.0483341 0.0941291 0)
(-0.0487036 0.102921 0)
(-0.0480495 0.112496 0)
(0.00498439 0.0789982 0)
(0.00174237 0.00282273 0)
(-0.00532156 0.022434 0)
(-0.00607112 0.0274351 0)
(-0.00967558 0.0280927 0)
(-0.0117534 0.0295026 0)
(-0.0145191 0.0311403 0)
(-0.0170613 0.0330553 0)
(-0.0196075 0.0352791 0)
(-0.0221173 0.0378398 0)
(-0.0246263 0.0407482 0)
(-0.0271252 0.0440315 0)
(-0.029527 0.0477176 0)
(-0.031847 0.0517998 0)
(-0.0340674 0.05634 0)
(-0.0361006 0.0613467 0)
(-0.0378879 0.0668403 0)
(-0.039347 0.0728314 0)
(-0.0403482 0.0793459 0)
(-0.0408135 0.0863767 0)
(-0.0406557 0.0939595 0)
(-0.0398091 0.102038 0)
(-0.0375006 0.110735 0)
(0.00590843 0.0750533 0)
(0.00231303 0.00865341 0)
(-0.00504805 0.0260964 0)
(-0.0053804 0.0300455 0)
(-0.00914208 0.0307437 0)
(-0.0109884 0.0321475 0)
(-0.013686 0.0337412 0)
(-0.016086 0.0356525 0)
(-0.0184891 0.0378603 0)
(-0.0208774 0.0403999 0)
(-0.0232355 0.043255 0)
(-0.025526 0.0464942 0)
(-0.0277693 0.0501051 0)
(-0.0299082 0.0540715 0)
(-0.0318756 0.0584336 0)
(-0.0336354 0.0631931 0)
(-0.0351104 0.0683622 0)
(-0.0362071 0.0739252 0)
(-0.0368552 0.0799105 0)
(-0.0369018 0.0862386 0)
(-0.036184 0.0929726 0)
(-0.0346537 0.100065 0)
(-0.0315497 0.107626 0)
(0.00658945 0.0706232 0)
(0.00267753 0.0147217 0)
(-0.00474024 0.0297581 0)
(-0.00469851 0.0325927 0)
(-0.00858708 0.0333845 0)
(-0.0102155 0.0347406 0)
(-0.0128347 0.0362964 0)
(-0.0150997 0.0381926 0)
(-0.0173843 0.0403592 0)
(-0.0196434 0.042873 0)
(-0.0218708 0.0456926 0)
(-0.0240447 0.0488782 0)
(-0.0261493 0.0523556 0)
(-0.0281394 0.0562244 0)
(-0.0299777 0.0604095 0)
(-0.0315977 0.0649001 0)
(-0.032943 0.0697511 0)
(-0.0339001 0.0748635 0)
(-0.0344094 0.0802889 0)
(-0.0343562 0.0859574 0)
(-0.033561 0.0918526 0)
(-0.0319445 0.09792 0)
(-0.0287863 0.104142 0)
(0.0069337 0.0654286 0)
(0.00286644 0.0206186 0)
(-0.00434529 0.03293 0)
(-0.00401247 0.0347357 0)
(-0.00786491 0.0355823 0)
(-0.00929169 0.0368554 0)
(-0.0117528 0.0384474 0)
(-0.0138502 0.0402685 0)
(-0.0159735 0.042455 0)
(-0.0180724 0.0449129 0)
(-0.0201379 0.0477184 0)
(-0.0221613 0.0508067 0)
(-0.0241111 0.0542352 0)
(-0.0259298 0.057909 0)
(-0.0276638 0.0619363 0)
(-0.0291435 0.066213 0)
(-0.0303847 0.0707278 0)
(-0.0312924 0.0754677 0)
(-0.031782 0.0803606 0)
(-0.0317745 0.0854147 0)
(-0.0310614 0.0904851 0)
(-0.0296623 0.0955266 0)
(-0.0268841 0.10057 0)
(0.00677409 0.0597722 0)
(0.0027687 0.0261492 0)
(-0.00377196 0.0355817 0)
(-0.00330943 0.036433 0)
(-0.00695847 0.037444 0)
(-0.00802751 0.0386164 0)