/*--------------------------------*- C++ -*----------------------------------*\
| =========                 |                                                 |
| \\      /  F ield         | OpenFOAM: The Open Source CFD Toolbox           |
|  \\    /   O peration     | Version:  5.x                                   |
|   \\  /    A nd           | Web:      www.OpenFOAM.org                      |
|    \\/     M anipulation  |                                                 |
\*---------------------------------------------------------------------------*/
FoamFile
{
    version     2.0;
    format      ascii;
    class       volScalarField;
    location    "0.65";
    object      alpha.water;
}
// * * * * * * * * * * * * * * * * * * * * * * * * * * * * * * * * * * * * * //

dimensions      [0 0 0 0 0 0 0];

internalField   nonuniform List<scalar> 
2268
(
1
1
1
1
1
1
1
1
1
1
1
1
1
1
1
1
1
0.997945
0.919341
0.884104
1
0.999837
0.999212
1
1
1
1
1
1
1
1
1
1
1
1
1
1
1
1
1
0.999908
0.955378
0.885216
0.998572
0.999705
0.998693
1
1
1
1
1
1
1
1
1
1
1
1
1
1
1
1
1
1
0.999626
0.970386
0.936405
0.978813
1
1
1
1
1
1
1
1
1
1
1
1
1
1
1
1
1
1
1
1
0.999847
0.936405
0.962421
0.99995
1
1
1
1
1
1
1
1
1
1
1
1
1
1
1
1
1
1
1
1
0.972427
0.996962
1
1
1
1
1
1
1
1
1
1
1
1
1
1
1
1
1
1
1
1
1
1
1
1
1
1
1
1
0.999992
0.999985
0.99999
0.999999
1
1
1
1
1
1
1
1
1
1
1
1
1
1
1
0.980699
0.951958
0.917637
0.890012
0.89023
0.905777
0.956264
0.99786
0.999999
1
1
1
1
1
1
1
1
1
1
1
1
1
0.999991
0.70423
1
0.998837
0.997159
1
0.976914
0.711987
0.888006
1
1
1
1
0.999894
1
1
0.99526
0.949394
0.935323
0.942251
0.756562
0.999997
0.999999
1
1
1
0.930486
0.969345
0.999385
0.868679
0.764899
0.800851
0.827194
0.866752
0.921936
0.966541
0.993003
0.999984
1
0.617857
0.999995
0.999894
0.999999
1
1
0.900698
0.962041
0.750941
0.0833943
0.0525159
0.0862301
0.110422
0.153821
0.253986
0.452037
0.72375
0.999795
1
0.133479
0.918659
0.999814
0.999993
0.999998
0.999999
0.89895
0.831331
0.32951
0.00420088
0.00351168
0.00351174
0.00350785
0.0036513
0.00488024
0.0105919
0.10611
0.697239
1
0.193722
0.839428
0.999636
0.999877
0.999977
0.999993
0.980412
0.810061
0.028283
0.00396707
0.00353197
0.00350685
0.00730343
0.00718866
0.00976149
0.00561761
0.0121296
0.277398
1
0.772876
0.971284
0.999411
0.999573
0.999812
0.999937
0.99933
0.862759
0.0678719
0.00738921
0.011974
0.0117967
0.00705432
0.00562495
0.00609316
0.00423659
0.00413301
0.157766
0.981543
1
0.999711
0.999574
0.999412
0.998529
0.99882
0.997709
0.928078
0.140786
0.0078958
0.0116992
0.00278188
0.000584086
0.000508427
0.00116415
0.000515988
0.000764062
0.114957
0.859451
1
0.999844
0.999737
0.998994
0.859756
0.762137
0.974979
0.971347
0.17085
0.0022215
0.00069263
0.000439641
0.000440871
0.000394885
0.000363938
0.000350716
0.000344285
0.0778717
0.832867
0.367135
0.328264
0.299837
0.309592
0.35243
0.441915
0.57509
0.720053
0.845308
0.940306
1
1
1
1
1
1
1
1
1
1
1
1
0.999983
0
1.68685e-05
0.00499482
0.0335614
0.0649422
0.0840731
0.0890424
0.109407
0.179129
0.299027
0.465045
0.636244
0.754728
0.867057
0.9859
0.999996
1
1
0.999998
0.999998
0.999998
0.999998
0.999988
-2.55145e-22
6.34863e-10
2.63687e-10
2.83681e-10
9.87262e-10
5.30939e-09
9.71331e-09
1.07089e-10
8.18853e-10
7.82277e-09
0.000863805
0.0464133
0.112364
0.208606
0.340822
0.511361
0.628827
0.69534
0.785879
0.867987
0.907882
0.930557
0.958133
7.53414e-26
1.31517e-10
2.64818e-10
2.25787e-10
1.5667e-10
1.6587e-10
1.03493e-10
5.38436e-11
1.09845e-10
8.16579e-10
7.82207e-09
6.77752e-08
5.29626e-07
2.63773e-07
2.24536e-07
1.72941e-07
0.0154877
0.0358938
0.0632239
0.114687
0.172905
0.239077
0.380522
-1.17721e-26
1.02939e-08
1.07239e-08
1.39898e-09
1.31803e-10
4.42738e-11
3.9061e-11
5.26612e-11
2.79726e-09
2.81972e-09
3.53257e-09
1.33935e-06
2.99044e-06
2.22489e-07
2.09835e-07
5.05441e-08
1.7294e-07
1.20113e-06
8.2722e-06
5.11466e-05
0.000287432
0.00153563
0.0704591
5.1161e-12
1.9507e-09
3.78407e-09
8.96591e-10
1.23386e-10
3.9061e-11
3.9061e-11
3.9061e-11
2.09362e-08
1.12207e-07
7.54248e-08
1.04316e-07
7.99708e-06
1.38644e-05
9.60278e-06
2.40788e-08
3.559e-07
1.09051e-06
1.83462e-06
8.80403e-06
6.38848e-05
0.00230918
0.0123576
5.0776e-12
5.84664e-11
1.53421e-10
1.11188e-10
5.20813e-11
5.6467e-11
7.33378e-11
5.66501e-11
2.55288e-08
1.62514e-07
1.62931e-07
1.05828e-07
1.48724e-07
2.26633e-08
7.78864e-09
3.83354e-09
2.87604e-07
4.16362e-06
8.00633e-06
1.03946e-05
0.000223799
0.00047151
0.000416966
2.0316e-12
2.85193e-12
3.83879e-12
5.38986e-12
3.11448e-11
9.72981e-11
1.49931e-10
8.23163e-11
6.80245e-09
1.04016e-07
1.58885e-07
5.86625e-08
1.38923e-07
1.76394e-07
1.18659e-08
2.27911e-10
9.92461e-08
7.81288e-07
8.95032e-07
1.66543e-06
0.000157766
0.000344169
0.000352257
1.79476e-13
3.97292e-13
1.99625e-13
1.29171e-12
2.50391e-11
1.0493e-10
1.61057e-10
1.25973e-10
3.74788e-10
8.59688e-09
2.14759e-08
1.28716e-08
2.46888e-07
2.91856e-07
9.00363e-08
6.5159e-11
2.77724e-10
2.46182e-09
2.14782e-08
1.79735e-07
5.50665e-05
0.000304636
0.000357479
6.15647e-15
2.04633e-14
8.5199e-15
4.12771e-13
1.41508e-11
7.93497e-11
1.41923e-10
1.25709e-10
6.64572e-11
4.34024e-11
4.72092e-11
5.49876e-10
9.4048e-08
2.12309e-07
2.548e-11
5.10916e-11
6.5159e-11
3.56706e-10
5.0876e-09
8.05765e-08
3.43032e-05
0.000288828
0.000239064
3.72077e-16
6.351e-16
3.80206e-16
1.01103e-13
4.752e-12
3.51773e-11
7.72834e-11
7.52249e-11
3.73175e-11
3.93682e-11
3.83979e-11
7.56992e-11
4.56395e-10
5.61562e-09
1.90074e-12
3.23808e-11
5.10916e-11
4.55548e-10
8.49511e-09
1.504e-07
6.13465e-05
0.000256107
5.06934e-05
2.27601e-17
2.11265e-17
2.41242e-17
2.07941e-14
1.13625e-12
9.36564e-12
2.21664e-11
2.17869e-11
1.79987e-11
5.05119e-11
3.81337e-11
1.72945e-11
3.71202e-12
1.75486e-12
3.48986e-13
3.09893e-12
2.95346e-11
4.86461e-10
9.67453e-09
1.70581e-07
6.1678e-05
0.000244244
8.97424e-05
1.38147e-18
7.37355e-19
3.03949e-18
4.25844e-15
2.46573e-13
1.89802e-12
4.07553e-12
3.9158e-12
9.92312e-12
4.28825e-11
2.56799e-11
8.86857e-12
2.01216e-12
2.03067e-13
0
4.02882e-13
1.52444e-11
2.41615e-10
4.75754e-09
8.06994e-08
1.84265e-05
0.000211005
0.000237876
7.59697e-20
2.65291e-20
1.162e-18
8.45607e-16
4.98642e-14
3.46005e-13
6.59438e-13
6.72165e-13
3.68093e-12
1.66434e-11
8.87188e-12
4.81984e-12
1.7391e-12
0
-9.4158e-14
2.95774e-13
6.44903e-12
1.1154e-10
1.98876e-09
3.50104e-08
6.21708e-07
0.000119507
0.000272238
1.29524e-21
1.02431e-21
5.52532e-19
1.49557e-16
8.48071e-15
5.46631e-14
1.02214e-13
1.21325e-13
5.86934e-13
2.0583e-12
1.82743e-12
2.00106e-12
1.18959e-12
-4.41594e-14
-1.37209e-13
2.14091e-13
2.28414e-12
4.41313e-11
7.18267e-10
1.27471e-08
1.88572e-07
1.9889e-05
0.000284894
-2.08269e-21
1.42038e-23
1.96151e-19
2.18927e-17
1.1065e-15
6.90378e-15
1.46079e-14
2.36241e-14
6.93314e-14
2.10519e-13
3.96789e-13
5.36461e-13
4.08754e-13
-2.87756e-14
-6.70604e-14
1.02687e-13
2.44314e-12
1.2734e-11
2.05618e-10
3.97545e-09
6.52965e-08
6.25583e-06
0.000218178
-5.98092e-21
-1.30908e-21
4.47843e-20
2.48831e-18
1.06728e-16
6.84996e-16
1.97769e-15
5.66261e-15
1.71332e-14
4.51799e-14
7.90267e-14
8.7829e-14
5.83337e-14
-3.61311e-15
-2.3565e-14
2.03876e-14
9.80729e-13
4.81832e-12
4.3672e-11
8.65117e-10
1.58275e-08
3.98727e-06
3.83741e-05
-5.00967e-21
-2.07462e-21
5.11359e-21
2.11791e-19
7.64908e-18
5.67805e-17
2.9653e-16
1.61678e-15
5.42741e-15
1.06484e-14
1.32999e-14
1.08554e-14
6.09769e-15
1.73035e-15
-6.21943e-15
1.08278e-15
1.13125e-13
2.47801e-12
9.38186e-12
1.4057e-10
1.12655e-08
7.97686e-07
7.46776e-07
-3.55505e-21
-1.62392e-21
1.23683e-22
1.35866e-20
4.29532e-19
4.48183e-18
5.33672e-17
4.46095e-16
1.52907e-15
2.3965e-15
2.47365e-15
1.81045e-15
9.55381e-16
9.26976e-16
-1.21412e-15
4.41947e-18
2.1376e-15
1.7146e-13
3.76428e-12
3.98653e-11
7.59672e-10
5.44789e-09
8.93127e-08
-2.29993e-21
-9.3851e-22
-1.62797e-22
5.9832e-22
2.0903e-20
3.9576e-19
9.7044e-18
9.80682e-17
3.4399e-16
5.288e-16
5.51643e-16
4.27399e-16
2.12273e-16
1.21324e-16
-1.7282e-16
7.43738e-33
5.35905e-17
3.53324e-15
4.46416e-13
1.17486e-11
3.8502e-11
5.44183e-10
9.89185e-09
-1.35665e-21
-4.40589e-22
-2.99493e-22
4.90018e-24
9.95403e-22
3.83348e-20
1.42469e-18
1.56142e-17
5.96833e-17
1.03488e-16
1.16869e-16
9.95521e-17
5.05129e-17
1.42763e-17
-1.70436e-17
1.48076e-19
6.78884e-18
3.94324e-16
3.7704e-14
1.72159e-12
1.20387e-11
7.13713e-11
9.82599e-10
-7.24995e-22
-1.72025e-22
-2.12145e-22
-6.87937e-25
4.88605e-23
3.29061e-21
1.48597e-19
1.79402e-18
7.79578e-18
1.56235e-17
1.90864e-17
1.80135e-17
1.00898e-17
2.88521e-18
-8.60276e-19
2.93615e-19
1.97042e-18
1.1784e-16
4.84359e-15
1.47356e-13
2.93128e-12
1.61869e-11
1.3472e-10
-3.49853e-22
-5.62954e-23
-1.02841e-22
-1.41177e-23
2.47117e-24
2.12559e-22
1.10687e-20
1.54941e-19
7.54308e-19
1.67888e-18
2.18369e-18
2.25306e-18
1.44596e-18
5.00742e-19
5.57106e-20
5.63853e-20
3.06712e-19
1.66041e-17
6.44192e-16
1.57673e-14
3.25114e-13
5.04895e-12
2.92535e-11
-1.52437e-22
-1.5607e-23
-3.84947e-23
-8.48836e-24
1.0524e-25
1.07971e-23
6.46237e-22
1.03685e-20
5.40608e-20
1.27566e-19
1.74756e-19
1.90966e-19
1.3963e-19
5.79161e-20
1.65595e-20
4.7301e-21
3.22757e-20
2.05812e-18
1.07787e-16
2.84084e-15
4.1942e-14
7.40516e-13
1.05728e-11
-6.00925e-23
-3.73011e-24
-1.17654e-23
-3.32567e-24
6.85248e-28
5.0184e-25
3.19943e-23
5.49143e-22
2.96399e-21
7.23622e-21
1.03657e-20
1.1684e-20
9.33419e-21
4.34113e-21
1.27683e-21
4.78744e-22
3.72035e-21
2.92157e-19
2.12469e-17
7.30536e-16
1.06203e-14
1.18054e-13
2.1816e-12
-2.15023e-23
-7.88041e-25
-3.03943e-24
-1.01557e-24
-4.50799e-27
2.33229e-26
1.44803e-24
2.49181e-23
1.36729e-22
3.41565e-22
5.05025e-22
5.8121e-22
4.8302e-22
2.37615e-22
7.15258e-23
3.90984e-23
4.99875e-22
4.38832e-20
4.05411e-18
1.93035e-16
3.31249e-15
3.07672e-14
3.79323e-13
-7.01086e-24
-1.52542e-25
-6.80244e-25
-2.58199e-25
-4.82202e-27
1.06135e-27
6.55185e-26
1.10942e-24
6.12597e-24
1.55127e-23
2.33298e-23
2.73083e-23
2.30327e-23
1.17118e-23
3.75026e-24
2.57272e-24
7.11835e-23
6.43182e-21
6.77592e-19
4.46922e-17
1.0132e-15
9.42741e-15
7.10683e-14
-2.09145e-24
-2.85265e-26
-1.34366e-25
-5.66403e-26
-1.8535e-27
3.00478e-29
3.0531e-27
5.13205e-26
2.84871e-25
7.2871e-25
1.10825e-24
1.31461e-24
1.12252e-24
5.88138e-25
1.90079e-25
1.85113e-25
1.00418e-23
9.06865e-22
1.00941e-19
8.88068e-18
2.79805e-16
2.9608e-15
1.60642e-14
-5.73091e-25
-5.51503e-27
-2.37685e-26
-1.09707e-26
-5.06727e-28
3.72264e-47
1.44182e-28
2.41228e-27
1.34756e-26
3.47995e-26
5.34423e-26
6.4006e-26
5.52943e-26
2.97272e-26
9.57735e-27
1.74505e-26
1.35888e-24
1.2388e-22
1.41144e-20
1.53469e-18
6.55995e-17
8.45884e-16
4.5085e-15
-1.44751e-25
-1.16153e-27
-3.81006e-27
-1.9071e-27
-1.122e-28
0
6.74364e-30
1.12654e-28
6.32701e-28
1.64648e-27
2.54756e-27
3.06953e-27
2.67318e-27
1.46474e-27
4.80307e-28
1.95918e-27
1.68698e-25
1.5769e-23
1.8254e-21
2.26283e-19
1.24418e-17
2.0427e-16
1.34741e-15
-3.37958e-26
-2.64968e-28
-5.59026e-28
-3.01239e-28
-2.12482e-29
-8.2335e-32
3.05511e-31
5.19758e-30
2.928e-29
7.65738e-29
1.19013e-28
1.43767e-28
1.25708e-28
6.97593e-29
2.39936e-29
2.12091e-28
1.78496e-26
1.71976e-24
2.02221e-22
2.74278e-20
1.9031e-18
4.08556e-17
3.62901e-16
-7.30841e-27
-6.1695e-29
-7.57536e-29
-4.36582e-29
-3.54628e-30
-3.16739e-32
1.34769e-32
2.3709e-31
1.33556e-30
3.49983e-30
5.44718e-30
6.57534e-30
5.7521e-30
3.21313e-30
1.21168e-30
1.87192e-29
1.51049e-27
1.48402e-25
1.77055e-23
2.61554e-21
2.3684e-19
6.66843e-18
7.55655e-17
-1.46585e-27
-1.38215e-29
-9.56228e-30
-5.85247e-30
-5.31758e-31
-6.70037e-33
5.37747e-34
1.07169e-32
6.01066e-32
1.57335e-31
2.44447e-31
2.93884e-31
2.56309e-31
1.43185e-31
6.2025e-32
1.31252e-30
1.01948e-28
9.86154e-27
1.17695e-24
1.87534e-22
2.31988e-20
8.61574e-19
1.09587e-17
-2.72952e-28
-2.89121e-30
-1.1341e-30
-7.30755e-31
-7.26334e-32
-1.10767e-33
1.51834e-35
4.81148e-34
2.67257e-33
6.96515e-33
1.07657e-32
1.28468e-32
1.11279e-32
6.17261e-33
3.1216e-33
7.99727e-32
5.92356e-30
5.35862e-28
6.16972e-26
1.01544e-23
1.7266e-21
8.75473e-20
1.13121e-18
-4.7217e-29
-5.58308e-31
-1.27525e-31
-8.55316e-32
-9.13602e-33
-1.55499e-34
1.61847e-37
2.14648e-35
1.17595e-34
3.04121e-34
4.66011e-34
5.50083e-34
4.71277e-34
2.57656e-34
1.50219e-34
4.63453e-33
3.29567e-31
2.72029e-29
2.90447e-27
4.67289e-25
1.04043e-22
7.45047e-21
9.78874e-20
-7.59171e-30
-9.90451e-32
-1.37231e-32
-9.44105e-33
-1.06815e-33
-1.9207e-35
-5.15093e-55
9.48378e-37
5.12844e-36
1.31216e-35
1.98679e-35
2.31261e-35
1.95123e-35
1.04413e-35
6.87718e-36
2.58143e-34
1.84333e-32
1.44172e-30
1.4385e-28
2.24573e-26
6.15779e-24
5.94072e-22
8.26241e-21
-1.13528e-30
-1.61316e-32
-1.42592e-33
-9.8847e-34
-1.17067e-34
-2.13126e-36
7.42923e-57
4.13971e-38
2.21987e-37
5.60569e-37
8.36387e-37
9.57536e-37
7.9248e-37
4.12771e-37
2.9753e-37
1.31771e-35
9.97081e-34
8.01568e-32
8.09645e-30
1.31122e-27
4.24721e-25
4.71681e-23
6.7214e-22
-1.58084e-31
-2.41437e-33
-1.44104e-34
-9.86998e-35
-1.21204e-35
-2.15559e-37
0
1.78932e-39
9.54983e-39
2.37611e-38
3.48618e-38
3.91816e-38
3.1705e-38
1.6015e-38
1.20603e-38
5.90004e-37
4.8397e-35
4.32342e-33
4.94394e-31
9.10476e-29
3.29518e-26
3.52589e-24
4.66752e-23
-2.05375e-32
-3.32162e-34
-1.42172e-35
-9.44577e-36
-1.19368e-36
-2.01003e-38
-4.22384e-42
7.67781e-41
4.08859e-40
1.00126e-39
1.44264e-39
1.58989e-39
1.25485e-39
6.13573e-40
4.6328e-40
2.33499e-38
2.02854e-36
2.07535e-34
2.87697e-32
6.3004e-30
2.35563e-27
2.16997e-25
2.42458e-24
-2.49749e-33
-4.20054e-35
-1.36839e-36
-8.70213e-37
-1.12505e-37
-1.74484e-39
-1.78465e-42
3.30989e-42
1.74414e-41
4.20325e-41
5.94594e-41
6.39135e-41
4.92736e-41
2.30171e-41
1.70797e-41
8.65454e-40
7.57072e-38
8.52549e-36
1.39888e-33
3.51526e-31
1.25137e-28
9.61939e-27
8.67275e-26
-2.8571e-34
-4.90739e-36
-1.27979e-37
-7.74585e-38
-1.01984e-38
-1.41918e-40
-1.74698e-43
1.43009e-43
7.0622e-43
1.51286e-42
1.74065e-42
1.89083e-42
1.4242e-42
7.23379e-43
4.61073e-43
3.19031e-41
2.70204e-39
3.09267e-37
5.4387e-35
1.41816e-32
4.50528e-30
2.97319e-28
2.22106e-27
-3.09375e-35
-5.23628e-37
-1.14817e-38
-6.68085e-39
-8.92636e-40
-1.08719e-41
-1.16898e-44
3.09415e-45
4.76159e-44
2.50947e-43
6.60514e-43
9.22331e-43
5.54973e-43
4.47502e-43
4.47502e-43
6.02037e-43
4.91037e-41
5.50604e-39
9.74524e-37
2.4735e-34
6.93465e-32
4.06194e-30
2.63263e-29
0.999899
0.999944
1
1
0.999942
0.999976
0.999997
0.999998
0.977793
0.99279
0.999937
0.993022
0.661952
0.851057
0.818054
0.558902
0.369091
0.468035
0.453135
0.336194
0.0136326
0.0125841
0.0663639
0.164078
0.000501706
0.00107883
0.00362642
0.044405
0.000233049
0.000286778
0.00090913
0.00356691
0.000152556
0.000114622
0.000315232
0.0009069
5.06934e-05
6.74122e-05
0.000114522
0.000297881
4.77332e-05
5.06934e-05
6.79692e-05
0.000132237
4.77332e-05
4.77332e-05
5.34411e-05
7.85128e-05
4.77332e-05
4.92946e-05
6.02669e-05
0.000107521
8.35033e-05
6.02669e-05
0.000100861
0.000263537
0.000333714
0.000307832
0.00025543
0.000805069
0.000292944
9.46178e-05
0.000214314
0.00209824
4.96344e-05
1.24286e-05
0.000194075
0.00136794
1.63652e-06
1.76424e-06
4.90764e-05
5.32881e-05
2.15511e-07
2.1601e-07
9.04057e-07
3.19206e-06
2.39511e-08
2.50352e-08
9.67289e-08
3.29273e-07
2.26839e-09
2.68903e-09
8.718e-09
2.85446e-08
2.6839e-10
3.46953e-10
9.32305e-10
2.47993e-09
7.31751e-11
1.70946e-10
3.19506e-10
5.39e-10
3.97045e-11
1.14685e-10
2.52101e-10
3.84469e-10
1.14534e-11
4.41942e-11
1.35336e-10
2.86624e-10
2.00728e-12
1.02431e-11
4.32561e-11
1.18896e-10
2.75937e-13
1.44534e-12
7.76425e-12
2.65548e-11
4.15825e-14
1.74726e-13
1.36213e-12
6.97429e-12
1.017e-14
3.62848e-14
4.09818e-13
3.06147e-12
3.38198e-15
1.01152e-14
1.04517e-13
9.79121e-13
1.12601e-15
2.83825e-15
1.35996e-14
1.12989e-13
2.87297e-16
7.22818e-16
1.43133e-15
3.44186e-15
4.56705e-17
1.33251e-16
2.6599e-16
1.99252e-16
4.32644e-18
1.53547e-17
4.60159e-17
3.06908e-17
3.0108e-19
1.19221e-18
5.73494e-18
4.26092e-18
2.10137e-20
8.50301e-20
5.56158e-19
4.46222e-19
1.57173e-21
7.19392e-21
5.11891e-20
3.71157e-20
1.06465e-22
6.02559e-22
4.0519e-21
2.32913e-21
5.27414e-24
3.47626e-23
2.07752e-22
9.19604e-23
1.68164e-25
1.14735e-24
6.26892e-24
2.15868e-24
3.60582e-27
2.55612e-26
1.35939e-25
2.75153e-26
1.33346e-28
2.97878e-28
1.51898e-27
6.13243e-27
0.999998
0.999943
0.999444
0.845008
0.365215
0.339104
0.827639
0.946442
0.548502
0.0482411
0.000688951
0.000429284
0.000440996
0.000548865
0.000363644
0.000345378
0.000345247
0.0516332
0.837248
0.999944
0.999444
0.917372
0.133727
0.137919
0.273172
0.879268
0.925814
0.839819
0.127594
0.000463583
0.00036672
0.000636602
0.000886696
0.000531233
0.000345163
0.000345247
0.0354677
0.818276
0.92017
0.794085
0.155808
0.0354777
0.167995
0.528965
0.526987
0.681155
0.606252
0.0797733
0.00142661
0.000339723
0.000361477
0.000750519
0.000350241
0.00034536
0.000345167
0.0322787
0.802515
0.355057
0.107954
0.000582373
0.0479855
0.206355
0.204287
0.0067954
0.0823378
0.0684215
0.0106998
0.000445874
0.000339748
0.00033973
0.000482584
0.000390236
0.000350241
0.00034536
0.0209333
0.781443
0.149351
0.00102473
0.000453771
0.000244252
0.000496167
0.000651568
0.00438621
0.00225359
0.00259221
0.000621517
0.000481452
0.000339748
0.000482319
0.00135638
0.000805324
0.00042774
0.000352457
0.00580306
0.757157
0.188878
0.162091
0.000244252
0.000194943
0.000190852
0.00139878
0.00204605
0.000641251
0.000831374
0.000861885
0.000623146
0.000510133
0.00270383
0.0327981
0.00901244
0.00117803
0.000455524
0.0012036
0.748466
0.180063
0.269753
0.101139
0.000190852
0.000168307
0.00023896
0.000264379
0.000217429
0.000377372
0.000840253
0.00086178
0.00670808
0.182068
0.558931
0.402549
0.116575
0.0012036
0.0228357
0.784385
0.0743558
0.28135
0.284832
0.0202248
0.000159561
0.000142378
0.000134876
0.00013737
0.000194048
0.000376861
0.0118608
0.328248
0.76407
0.868775
0.86856
0.675794
0.0899256
0.171549
0.8255
0.00720606
0.179373
0.299497
0.267318
0.00213324
0.000134876
0.000128351
0.000128383
0.000170445
0.000223523
0.210666
0.763879
0.868775
0.868775
0.868775
0.859891
0.550257
0.429341
0.839613
0.000912567
0.0320345
0.258631
0.301534
0.270744
0.0282977
0.000128383
0.000128345
0.000128352
0.0144359
0.424809
0.642642
0.827257
0.868775
0.789331
0.425836
0.513458
0.462362
0.758518
0.00034082
0.000931196
0.0371429
0.250388
0.297928
0.243611
0.0448636
0.000128382
0.000359503
0.243235
0.343435
0.0193811
0.289985
0.864261
0.687783
0.330519
0.330519
0.330519
0.629289
0.000151763
0.000343525
0.00124326
0.00907512
0.139287
0.435764
0.556295
0.50315
0.519011
0.516242
0.121663
0.00269861
0.0945975
0.794131
0.839994
0.648749
0.423215
0.72893
0.916467
0.000284458
0.000914585
0.0203418
0.305167
0.584419
0.615921
0.615921
0.615921
0.614112
0.194188
9.95257e-05
0.000290497
0.00192903
0.208021
0.822851
0.953674
0.985785
0.998556
1
0.000871834
0.00293009
0.088179
0.445171
0.58996
0.615542
0.615921
0.526438
0.0724614
9.67088e-05
7.64136e-06
7.39198e-06
3.6642e-05
0.000233213
0.131567
0.57124
0.824996
0.953826
0.985733
0.00668607
0.0107033
0.000254628
2.05124e-06
6.24712e-06
0.0572476
0.134633
0.0737752
0.000204626
7.74371e-06
1.25217e-06
1.48255e-06
4.24587e-06
1.16202e-05
0.000102962
0.00053956
0.123621
0.421114
0.771412
0.00564898
0.00204222
1.6502e-06
1.1199e-06
2.05124e-06
6.24712e-06
2.93977e-05
6.58156e-05
2.14235e-05
1.36635e-06
1.11833e-06
1.18561e-06
1.34418e-06
4.18003e-06
1.94453e-05
0.000104083
0.000537747
0.0268048
0.620296
0.00114555
1.6502e-06
1.52195e-06
3.26807e-07
8.22617e-06
0.000285361
0.000329572
3.24498e-05
3.7427e-06
1.12162e-06
1.12162e-06
1.11665e-06
1.19194e-06
1.45649e-06
6.413e-06
4.12574e-05
0.000304637
0.0250679
0.224016
2.47841e-05
2.65378e-05
3.99876e-06
5.06026e-08
3.0585e-08
9.0045e-06
6.41922e-05
2.85672e-05
2.3824e-05
1.30596e-06
1.11305e-06
1.14693e-06
1.37216e-06
1.13526e-06
1.18708e-06
8.26302e-06
0.000686083
0.00470596
4.7404e-20
3.1671e-06
9.59317e-06
3.2091e-06
4.54335e-08
7.16624e-09
8.98639e-09
4.298e-08
4.33465e-07
6.69151e-06
1.89615e-05
1.90989e-05
9.53134e-06
2.92512e-06
1.02043e-06
1.13325e-06
7.78321e-05
0.00624903
0.00385512
0.00504438
3.27215e-07
4.84109e-07
1.99299e-07
1.38454e-08
4.71249e-09
7.6267e-09
8.98648e-09
3.90939e-08
7.76459e-08
1.82937e-05
2.62859e-05
2.61201e-05
9.92458e-06
4.94938e-07
2.0603e-06
2.34678e-06
0.0074005
0.00612791
0.276762
2.86272e-08
1.59638e-08
2.61458e-09
1.08157e-09
9.5191e-10
3.23914e-08
6.10694e-08
6.18854e-08
6.62053e-08
6.92856e-07
1.08477e-05
1.57118e-05
5.82764e-06
9.04053e-08
9.4087e-08
4.54666e-06
0.00774053
0.00643995
0.389852
2.68526e-09
1.41039e-09
9.95569e-10
9.4153e-10
9.38967e-10
7.97568e-08
1.17732e-07
1.17608e-07
1.0282e-07
7.52296e-08
7.74741e-08
8.12245e-08
8.27463e-08
8.78673e-08
9.04053e-08
9.40855e-08
0.00854329
0.00865558
0.0402555
7.61169e-10
8.69039e-10
9.0936e-10
9.26404e-10
9.39839e-10
6.24285e-09
2.99705e-08
4.47064e-08
4.68951e-08
7.02716e-08
7.2147e-08
7.80915e-08
8.56155e-08
8.84722e-08
8.97945e-08
0.000380134
0.00373135
0.00165736
8.67993e-24
5.84974e-10
8.35968e-10
9.03864e-10
9.75664e-10
1.19884e-09
1.22021e-09
1.2472e-09
1.32686e-09
1.38675e-09
8.76877e-08
3.49623e-07
3.27e-07
1.53918e-07
8.97945e-08
1.04373e-07
0.000796715
8.93475e-05
1.73154e-05
-6.53639e-20
5.28677e-10
7.45519e-10
8.23856e-10
9.71276e-10
1.53983e-09
3.28793e-09
5.27747e-09
2.35833e-09
1.39239e-09
1.59099e-07
5.79623e-07
5.81873e-07
4.69211e-07
1.06991e-07
9.89596e-08
0.000465901
7.7502e-06
8.58798e-06
0
2.91582e-10
4.76042e-10
6.06325e-10
7.422e-10
2.65472e-10
9.55002e-09
1.70176e-08
1.36366e-08
1.80522e-09
2.39735e-09
5.12795e-07
5.84759e-07
5.83457e-07
3.02079e-07
1.2117e-07
1.33396e-07
8.22433e-08
9.61272e-07
5.22171e-19
9.92073e-11
2.1052e-10
3.49688e-10
2.54421e-10
2.57015e-10
1.13831e-08
1.7141e-08
1.7141e-08
9.58711e-09
3.31221e-09
1.73627e-07
5.80835e-07
5.80645e-07
2.46139e-07
2.35623e-07
1.46568e-07
1.62828e-07
6.22183e-07
-3.76883e-14
4.28388e-11
1.1827e-10
1.56173e-10
1.56086e-10
1.92182e-09
2.38351e-09
3.80781e-09
9.53855e-09
8.64537e-09
2.92055e-09
5.68922e-08
2.94442e-07
2.4963e-09
9.65785e-07
1.87055e-06
1.64414e-07
3.08548e-07
3.00248e-05
0.0917892
2.63015e-11
7.26803e-11
1.05564e-10
3.31973e-10
1.35851e-09
8.17061e-10
5.95202e-10
5.95202e-10
2.32431e-09
2.80794e-09
1.69506e-08
5.37347e-08
1.42632e-09
1.38841e-06
1.89796e-06
5.42787e-07
1.52774e-06
0.000148174
0.491099
1.27626e-11
3.88885e-11
1.12147e-10
5.97931e-10
9.2523e-10
7.6895e-10
6.05937e-10
5.95202e-10
9.55494e-10
3.07447e-09
1.41704e-09
1.41672e-09
1.41672e-09
1.20663e-06
1.42587e-06
1.17935e-05
0.00109869
0.00221555
0.635982
3.45384e-12
1.86032e-11
1.36519e-10
6.17818e-10
5.77811e-10
3.67261e-09
7.76028e-10
6.65572e-10
7.71089e-10
8.5224e-10
1.15993e-09
1.41672e-09
1.42632e-09
9.99337e-07
6.3184e-06
9.055e-06
0.00932713
0.0290365
0.220404
5.74122e-13
8.23804e-12
1.11638e-10
3.82211e-10
1.84558e-11
4.55616e-08
1.0107e-07
1.56501e-08
8.06237e-10
7.10924e-09
4.0486e-07
3.22095e-06
4.97411e-06
1.62883e-06
6.14733e-07
0.000107366
0.0140366
0.018082
0
9.18344e-14
2.6549e-12
5.33914e-11
1.50372e-10
1.68435e-11
5.23447e-08
5.98522e-07
7.4076e-07
1.23918e-09
6.07893e-08
4.18494e-06
6.19281e-06
6.19281e-06
9.68047e-07
3.04156e-08
0.000361646
0.00278596
2.38222e-07
-2.61274e-19
1.41385e-14
4.39702e-13
9.29372e-12
3.30372e-11
1.6823e-11
2.15903e-12
4.97943e-07
1.13632e-06
4.69222e-07
1.29829e-07
1.01437e-06
3.12963e-06
2.42106e-06
1.31368e-07
3.04156e-08
0.000137317
1.22547e-07
1.08132e-08
0.00798122
1.56063e-15
3.36939e-14
5.28079e-13
2.72941e-12
8.7731e-12
2.15929e-12
3.85428e-14
9.01725e-07
1.1822e-06
8.08993e-07
9.12747e-07
5.11951e-07
5.48292e-07
2.45908e-07
3.42356e-08
8.42995e-09
4.42048e-09
3.55513e-09
0.0339771
1.22586e-16
2.09845e-15
2.22893e-14
1.95228e-13
1.74237e-12
7.06558e-13
3.20762e-14
3.76711e-17
3.95517e-07
1.14497e-06
1.2128e-06
1.21059e-06
1.21189e-06
1.07512e-06
6.05661e-08
4.42047e-09
3.55762e-09
3.56141e-09
0.0143678
1.09921e-17
2.27783e-16
3.11955e-15
1.72933e-14
6.28696e-14
2.9119e-14
2.53729e-15
7.05256e-19
-2.32058e-34
-7.3012e-18
1.18974e-07
7.23093e-07
5.95304e-07
4.32332e-08
2.14043e-26
1.07269e-08
1.47542e-08
4.85008e-09
0
1.38021e-18
3.20127e-17
7.81201e-16
1.34853e-15
1.21842e-15
7.11508e-16
1.05401e-16
1.00486e-18
-1.5677e-17
-5.21227e-17
-6.68478e-17
-6.22214e-17
-5.20545e-17
-4.37405e-17
-3.05228e-17
9.51352e-08
9.64073e-08
2.69937e-09
-2.0412e-21
1.62056e-19
3.4923e-18
1.12086e-16
6.63085e-17
2.17187e-17
1.38983e-17
7.59553e-19
-1.10869e-18
-6.91954e-17
-1.50319e-16
-1.6338e-16
-1.3867e-16
-1.00016e-16
-6.37983e-17
-3.16008e-17
9.73573e-08
9.73595e-08
2.8385e-10
0.000118861
1.21283e-20
2.13591e-19
4.99462e-18
1.9431e-18
3.92858e-19
-6.85334e-18
-7.63199e-18
-8.22532e-18
-1.5423e-16
-2.07067e-16
-1.75075e-16
-1.27581e-16
-7.32067e-17
-3.59831e-17
-1.32316e-17
8.68353e-08
1.94193e-08
-1.4724e-38
0.000657288
4.60789e-22
6.1556e-21
6.44232e-20
4.68831e-20
1.24319e-20
-6.27778e-18
-1.0348e-17
-2.05512e-17
-7.9148e-17
-6.81534e-17
-3.67897e-17
-1.7554e-17
-6.75092e-18
-2.39533e-18
-6.4658e-19
-8.53601e-21
-1.11639e-22
-3.22153e-23
0.000465536
5.6371e-24
5.60831e-23
2.73194e-22
7.114e-22
1.42607e-22
-2.14472e-18
-1.45951e-18
-3.85185e-18
-1.90614e-17
-9.81425e-18
-2.82317e-18
-6.63216e-19
-1.22509e-19
-1.99858e-20
-2.59722e-21
-3.06435e-22
-5.66577e-23
-6.24289e-24
-1.24422e-25
)
;

boundaryField
{
    leftWall
    {
        type            zeroGradient;
    }
    rightWall
    {
        type            zeroGradient;
    }
    lowerWall
    {
        type            zeroGradient;
    }
    atmosphere
    {
        type            inletOutlet;
        inletValue      uniform 0;
        value           nonuniform List<scalar> 
46
(
-3.09375e-35
-5.23628e-37
-1.14817e-38
-6.68085e-39
-8.92636e-40
-1.08719e-41
-1.16898e-44
3.09415e-45
4.76159e-44
2.50947e-43
6.60514e-43
9.22331e-43
5.54973e-43
4.47502e-43
4.47502e-43
6.02037e-43
4.91037e-41
5.50604e-39
9.74524e-37
2.4735e-34
6.93465e-32
4.06194e-30
2.63263e-29
1.33346e-28
2.97878e-28
1.51898e-27
6.13243e-27
5.6371e-24
5.60831e-23
2.73194e-22
0
0
0
0
0
0
0
0
0
0
0
0
0
0
0
0
)
;
    }
    defaultFaces
    {
        type            empty;
    }
}


// ************************************************************************* //
