/*--------------------------------*- C++ -*----------------------------------*\
| =========                 |                                                 |
| \\      /  F ield         | OpenFOAM: The Open Source CFD Toolbox           |
|  \\    /   O peration     | Version:  5.x                                   |
|   \\  /    A nd           | Web:      www.OpenFOAM.org                      |
|    \\/     M anipulation  |                                                 |
\*---------------------------------------------------------------------------*/
FoamFile
{
    version     2.0;
    format      ascii;
    class       surfaceScalarField;
    location    "0.65";
    object      alphaPhi10;
}
// * * * * * * * * * * * * * * * * * * * * * * * * * * * * * * * * * * * * * //

dimensions      [0 3 -1 0 0 0 0];

internalField   nonuniform List<scalar> 
4432
(
-3.20116e-06
3.20116e-06
-6.21879e-06
3.01763e-06
-7.56272e-06
1.34393e-06
-7.79605e-06
2.3333e-07
-6.99262e-06
-8.03422e-07
-4.81838e-06
-2.17424e-06
-1.45012e-06
-3.36826e-06
1.9839e-06
-3.43402e-06
4.4662e-06
-2.4823e-06
5.68209e-06
-1.21588e-06
5.75005e-06
-6.79627e-08
4.88088e-06
8.69166e-07
3.36873e-06
1.51215e-06
1.38637e-06
1.98236e-06
-1.07973e-06
2.4661e-06
-4.33287e-06
3.25315e-06
-8.14793e-06
3.81505e-06
-1.0739e-05
2.79969e-06
-1.2158e-05
2.2043e-06
-1.92981e-05
5.87101e-06
-2.30118e-05
3.71373e-06
-1.58492e-05
-7.16041e-06
-1.58305e-05
-3.89005e-06
7.09121e-06
-6.20781e-06
5.33539e-06
-7.01997e-06
2.15609e-06
-7.38536e-06
5.98724e-07
-6.9602e-06
-1.22858e-06
-5.04016e-06
-4.09427e-06
-1.67372e-06
-6.73471e-06
1.91284e-06
-7.02058e-06
4.51774e-06
-5.0872e-06
5.79496e-06
-2.4931e-06
6.0846e-06
-3.57604e-07
5.81643e-06
1.13735e-06
5.19838e-06
2.13019e-06
4.34618e-06
2.83457e-06
3.2196e-06
3.59267e-06
1.57758e-06
4.89517e-06
-1.25125e-06
6.64382e-06
-5.85158e-06
7.42359e-06
-1.06137e-05
8.20172e-06
-1.59123e-05
1.02105e-05
-1.76342e-05
4.6476e-06
-1.1283e-05
-1.3483e-05
-2.71538e-05
-2.96256e-06
1.00538e-05
-4.70544e-06
7.07828e-06
-5.70229e-06
3.15294e-06
-6.56634e-06
1.46278e-06
-6.68226e-06
-1.11267e-06
-5.1172e-06
-5.65933e-06
-1.97838e-06
-9.87352e-06
1.51208e-06
-1.0511e-05
4.10202e-06
-7.67714e-06
5.35261e-06
-3.74369e-06
5.51194e-06
-5.1694e-07
5.0336e-06
1.61569e-06
4.29905e-06
2.86474e-06
3.60047e-06
3.53315e-06
3.15966e-06
4.03348e-06
3.07072e-06
4.98411e-06
2.96001e-06
6.75455e-06
1.36532e-06
9.01833e-06
-1.54193e-06
1.11674e-05
-4.9753e-06
1.45667e-05
-6.74769e-06
6.04258e-06
-4.0831e-06
-1.59401e-05
-3.12369e-05
-1.52297e-06
1.15767e-05
-2.46567e-06
8.02098e-06
-3.39068e-06
4.07794e-06
-4.1878e-06
2.25991e-06
-4.13432e-06
-1.16616e-06
-2.67396e-06
-7.11968e-06
-3.56313e-07
-1.21912e-05
1.99529e-06
-1.28626e-05
3.78577e-06
-9.46762e-06
4.67513e-06
-4.63305e-06
4.72478e-06
-5.66588e-07
4.19779e-06
2.14268e-06
3.40754e-06
3.65499e-06
2.67915e-06
4.26154e-06
2.27188e-06
4.44075e-06
2.34639e-06
4.9096e-06
3.16773e-06
5.93322e-06
4.25383e-06
7.93223e-06
5.19697e-06
1.02243e-05
5.98268e-06
1.37797e-05
4.55395e-06
7.09391e-06
3.24111e-06
-1.44791e-05
-2.79884e-05
3.83301e-07
1.11934e-05
8.35484e-07
7.5688e-06
7.49237e-07
4.16419e-06
1.04259e-06
1.96655e-06
2.1765e-06
-2.30006e-06
3.56943e-06
-8.51261e-06
4.35753e-06
-1.29793e-05
4.50728e-06
-1.30124e-05
4.31203e-06
-9.27238e-06
4.07517e-06
-4.39618e-06
3.75266e-06
-2.44081e-07
3.20327e-06
2.69207e-06
2.48953e-06
4.36872e-06
1.89764e-06
4.85344e-06
1.6715e-06
4.66689e-06
1.79806e-06
4.78304e-06
2.49487e-06
5.23642e-06
4.15197e-06
6.27512e-06
7.04333e-06
7.33293e-06
1.08792e-05
9.94379e-06
1.15024e-05
6.65421e-06
7.49642e-06
-1.04905e-05
-2.0492e-05
2.79686e-06
8.39657e-06
5.30263e-06
5.06303e-06
7.13011e-06
2.33672e-06
9.42819e-06
-3.31528e-07
1.18452e-05
-4.71712e-06
1.26208e-05
-9.28819e-06
1.12727e-05
-1.16311e-05
8.66831e-06
-1.0408e-05
5.96217e-06
-6.56624e-06
3.96227e-06
-2.39628e-06
2.87207e-06
8.4611e-07
2.12019e-06
3.44396e-06
1.46647e-06
5.02245e-06
1.0586e-06
5.26131e-06
1.13824e-06
4.58725e-06
1.51747e-06
4.40381e-06
2.21187e-06
4.54203e-06
3.59446e-06
4.89252e-06
6.12197e-06
4.80543e-06
1.04599e-05
5.60586e-06
1.274e-05
4.3741e-06
8.92009e-06
-6.67061e-06
-1.15719e-05
4.74877e-06
3.6478e-06
1.04039e-05
-5.92126e-07
1.58961e-05
-3.15545e-06
2.05031e-05
-4.93874e-06
2.24152e-05
-6.62954e-06
2.07467e-05
-7.61996e-06
1.67472e-05
-7.63163e-06
1.21176e-05
-5.77839e-06
7.88277e-06
-2.33139e-06
4.51377e-06
9.72718e-07
2.46668e-06
2.8932e-06
1.1913e-06
4.71933e-06
4.01114e-07
5.81264e-06
1.51677e-07
5.51074e-06
5.94368e-07
4.14457e-06
1.2881e-06
3.71007e-06
2.15844e-06
3.67169e-06
3.4658e-06
3.58517e-06
5.24003e-06
3.03119e-06
8.44436e-06
2.40153e-06
1.10082e-05
1.81027e-06
9.11221e-06
-4.77463e-06
-2.45972e-06
8.71142e-06
-4.1808e-06
1.71968e-05
-7.70477e-06
2.21563e-05
-6.76392e-06
2.41541e-05
-5.3803e-06
2.29786e-05
-3.89714e-06
1.96526e-05
-2.70085e-06
1.58514e-05
-2.41456e-06
1.16448e-05
-1.3365e-06
8.12457e-06
1.18885e-06
5.26298e-06
3.8343e-06
3.09983e-06
5.05636e-06
1.20908e-06
6.61009e-06
-1.6499e-07
7.1867e-06
-6.5395e-07
5.9997e-06
-9.4945e-08
3.58556e-06
8.5104e-07
2.76408e-06
1.92578e-06
2.59696e-06
3.3998e-06
2.11115e-06
5.12902e-06
1.30196e-06
7.21899e-06
3.1157e-07
8.78122e-06
2.48046e-07
7.53683e-06
-3.53025e-06
5.077e-06
-4.08675e-05
2.68375e-05
-5.17397e-05
1.08722e-05
-3.73909e-05
-1.43127e-05
-1.60399e-05
-2.14665e-05
5.15861e-06
-2.11985e-05
2.30696e-05
-2.10367e-05
3.43286e-05
-1.47604e-05
6.26302e-06
3.53577e-05
-7.28433e-05
7.91063e-05
-0.000127267
5.44236e-05
-0.000145593
1.83264e-05
-0.000150096
4.50234e-06
-0.000148611
-1.49505e-06
-0.00014122
-7.39169e-06
-0.000127375
-1.38447e-05
-0.000104744
-2.18705e-05
-6.4488e-05
-3.93261e-05
-1.34359e-05
-5.16695e-05
-1.42361e-05
-3.87198e-05
4.30986e-05
-3.61276e-05
8.28006e-06
-1.7512e-05
-3.29284e-05
-5.75113e-07
-3.84034e-05
1.73107e-05
-3.90843e-05
3.49812e-05
-3.87071e-05
2.60676e-05
-9.80333e-06
-5.34052e-05
0.000112863
-0.000130763
0.000156675
-0.000142524
4.4296e-05
-0.000143113
5.51545e-06
-0.000142573
-2.45891e-07
-0.000142177
-3.70035e-06
-0.000140175
-1.00802e-05
-0.000132634
-2.13034e-05
-0.000114883
-3.91179e-05
-8.26412e-05
-7.14593e-05
-2.97968e-05
-0.000104513
-4.40329e-05
-1.84037e-05
2.81727e-05
-1.39943e-05
3.87088e-06
1.41768e-06
-4.83333e-05
1.78237e-05
-5.48094e-05
3.13527e-05
-5.26134e-05
3.73647e-05
-4.47191e-05
7.84056e-06
1.52383e-05
-7.16575e-05
0.00018786
-3.76343e-05
9.18915e-05
-1.38915e-05
7.18582e-06
-1.37671e-05
4.44569e-07
-1.71067e-05
-3.54701e-08
-2.20573e-05
-2.5746e-07
-3.19157e-05
-1.05732e-06
-4.90841e-05
-3.64525e-06
-7.22076e-05
-1.18418e-05
-8.87252e-05
-4.96282e-05
-4.29487e-05
-0.000150279
-8.69816e-05
2.14668e-06
1.95564e-05
8.94276e-06
1.07559e-06
1.87673e-05
-5.81192e-05
3.38261e-05
-6.9868e-05
4.23143e-05
-6.11016e-05
4.14125e-05
-4.38174e-05
1.14904e-05
3.96983e-05
-2.73103e-05
0.000217453
-7.15683e-06
1.1968e-05
-8.14916e-07
7.03097e-07
-2.03279e-07
-1.84207e-07
-1.8202e-07
-7.38889e-08
-4.24351e-07
-3.23645e-08
-1.46933e-06
-3.69062e-08
-5.06509e-06
-1.03627e-07
-1.4356e-05
-2.56422e-06
-4.23814e-05
-1.54658e-05
-4.84198e-05
-0.00013325
-0.000135401
7.55085e-06
3.6963e-05
2.38364e-05
-2.80085e-06
3.49244e-05
-6.9184e-05
4.76442e-05
-8.25799e-05
5.29133e-05
-6.63709e-05
4.9188e-05
-4.00922e-05
2.36689e-05
6.29593e-05
1.60433e-05
0.000221377
1.09766e-07
2.34805e-05
1.77366e-07
6.52192e-07
1.74543e-07
-1.95108e-07
2.05824e-08
6.35708e-08
2.48994e-08
1.47584e-07
-4.72993e-08
3.52146e-08
-3.91149e-07
6.86288e-08
-2.73736e-06
-1.80501e-09
-1.11589e-05
-6.82921e-06
-4.38307e-05
-9.5598e-05
-0.000179232
1.66427e-05
5.09187e-05
3.54191e-05
-1.7359e-05
4.79297e-05
-8.16325e-05
5.79269e-05
-9.25466e-05
6.2471e-05
-7.09158e-05
5.84286e-05
-3.60502e-05
3.61869e-05
8.52082e-05
2.28253e-05
0.000233302
7.48377e-07
4.82125e-05
-7.75172e-08
1.81444e-06
-2.54549e-07
4.66577e-07
-4.35678e-07
1.83966e-07
-1.70046e-07
3.82596e-08
3.32882e-08
2.45708e-08
-4.64923e-09
1.48728e-08
2.19427e-07
-2.06255e-10
-4.21214e-06
-2.25711e-06
-3.16465e-05
-6.46586e-05
-0.000207532
2.24114e-05
2.85073e-05
4.57708e-05
-4.06882e-05
5.62505e-05
-9.20681e-05
6.34245e-05
-9.96581e-05
6.8723e-05
-7.62111e-05
6.64721e-05
-3.36456e-05
5.01481e-05
0.000101344
3.42108e-05
0.000231521
1.9539e-06
7.07577e-05
-9.04742e-08
3.59947e-06
-2.6637e-07
5.85347e-07
-4.02185e-08
9.18292e-09
-1.10302e-08
-1.51669e-09
1.31628e-09
-2.97725e-09
4.92448e-08
1.79219e-08
7.1733e-09
5.90506e-08
-1.97982e-06
-2.29312e-07
-2.09654e-05
-4.22915e-05
-0.000226828
3.04649e-05
-1.9576e-06
5.22895e-05
-6.2497e-05
5.79692e-05
-9.77214e-05
6.25572e-05
-0.000104131
5.70886e-05
-6.23859e-05
5.75255e-05
-2.25786e-05
6.29738e-05
9.75141e-05
5.39784e-05
0.000231149
1.79597e-06
0.000105518
-1.53304e-07
5.48449e-06
-9.91287e-09
4.31988e-07
-7.04574e-09
6.23496e-09
-2.91784e-09
-5.13984e-09
5.38735e-09
-1.09297e-08
2.34251e-08
-2.60167e-10
4.78407e-08
3.47768e-08
-1.65109e-07
-1.64414e-08
-1.36207e-05
-2.65567e-05
-0.00024088
5.95568e-06
-6.61775e-08
5.76837e-06
-6.30318e-07
3.19633e-06
-1.38149e-07
2.03982e-06
-6.14561e-07
1.77993e-06
-9.22669e-07
1.86154e-06
-7.93423e-07
2.35871e-06
-9.64265e-07
3.13736e-06
-7.62913e-07
4.06379e-06
2.56102e-07
5.11159e-06
1.8359e-06
5.60119e-06
4.56675e-06
3.78818e-06
8.42309e-06
7.32778e-07
1.02421e-05
-4.52358e-07
7.18484e-06
1.17316e-06
1.96005e-06
2.85377e-06
1.08347e-06
4.25831e-06
1.19242e-06
6.60134e-06
-2.31882e-07
1.0395e-05
-2.4917e-06
1.47559e-05
-4.04937e-06
1.95556e-05
-4.55156e-06
2.32376e-05
-7.21227e-06
-4.0096e-06
3.23214e-05
-6.51595e-08
-1.01797e-09
-6.98818e-07
1.02374e-09
-2.03688e-06
-1.03191e-12
-4.23572e-06
-1.13687e-11
-5.59867e-06
-9.26061e-11
-5.85726e-06
-6.23984e-10
-6.01586e-06
-3.75877e-09
-6.97781e-06
-2.18343e-08
-8.54254e-06
-1.23718e-07
-1.02448e-05
-5.42451e-07
-1.0254e-05
-1.36061e-06
-7.10279e-06
-4.33107e-07
-3.16802e-06
1.08826e-06
1.73021e-06
6.30123e-07
6.06559e-06
-1.76994e-06
7.16006e-06
-6.91434e-09
6.91442e-06
1.43805e-06
8.32768e-06
-1.64512e-06
1.23642e-05
-6.52812e-06
1.6314e-05
-7.99897e-06
1.87506e-05
-6.98811e-06
1.81877e-05
-6.64926e-06
-6.55243e-06
2.07291e-05
-1.01956e-09
1.5915e-12
-9.44509e-14
4.19037e-12
-1.18055e-12
2.8431e-14
-1.25752e-11
-4.3936e-15
-1.04922e-10
-3.79515e-13
-7.28145e-10
-1.13994e-12
-4.48828e-09
1.59308e-12
-2.63225e-08
-1.16522e-13
-1.50039e-07
-1.36048e-12
-6.92478e-07
-1.33443e-11
-2.48865e-06
-1.19644e-10
-5.79124e-06
-9.5109e-10
-7.98604e-06
-5.97722e-09
-1.00243e-05
-4.01758e-08
-1.17433e-05
-2.66347e-07
-8.36157e-06
-1.58297e-06
-2.84912e-06
-2.45056e-06
3.35485e-06
-3.23066e-06
1.17948e-05
-5.89176e-06
1.90976e-05
-7.10396e-06
2.34471e-05
-6.26626e-06
2.33787e-05
-3.95127e-06
-1.05176e-06
1.90095e-05
1.40169e-12
1.89809e-13
-1.72182e-15
5.61845e-12
-1.43602e-14
1.49152e-14
-4.72013e-14
6.6317e-15
-4.47739e-13
1.04034e-14
-1.59769e-12
2.32891e-15
-1.46377e-14
3.51516e-15
-1.42217e-13
-5.08386e-16
-1.45421e-12
-5.9821e-14
-1.46803e-11
-1.47084e-13
-1.32442e-10
-2.01962e-12
-1.01476e-09
-6.89519e-11
-6.82441e-09
-1.6223e-10
-4.68575e-08
-1.56053e-10
-3.13237e-07
-9.73701e-12
-1.89602e-06
-2.34604e-10
-2.53801e-06
-2.07223e-09
-3.70092e-06
-1.35411e-08
-5.08096e-06
-7.97582e-08
-5.3633e-06
-3.88756e-07
-4.79036e-06
-1.12206e-06
-5.34223e-06
-8.60775e-07
9.08048e-07
-1.94385e-05
2.03136e-13
-5.90831e-15
2.97578e-12
8.14865e-13
2.88613e-14
8.23281e-13
1.67261e-15
4.97584e-14
2.87084e-17
4.08572e-15
-4.81165e-16
2.0771e-15
-1.49113e-16
1.67352e-15
-1.09172e-14
-8.15322e-16
-1.87102e-14
-1.78498e-13
9.46445e-15
-3.08528e-13
-2.2579e-12
7.54504e-14
-1.03245e-10
-6.78153e-13
-3.15267e-11
-4.86608e-11
-2.12e-11
-2.07871e-10
-1.83729e-11
-7.68669e-11
-2.5476e-10
-4.82868e-13
-2.35671e-09
-2.0172e-11
-1.62617e-08
-7.59733e-11
-9.81267e-08
-8.70998e-10
-4.94731e-07
-9.29517e-09
-1.61684e-06
-9.01335e-08
-2.54104e-06
-3.97651e-07
-8.98543e-08
-2.75537e-05
3.26594e-15
-3.0441e-15
2.85383e-13
2.77647e-14
6.26044e-14
4.35274e-14
5.81715e-15
2.11743e-14
1.75166e-15
3.66047e-15
9.96323e-16
1.32285e-15
4.14055e-16
7.46202e-16
-2.7088e-15
7.97949e-16
-1.37096e-12
2.42831e-14
-1.06798e-12
-2.10457e-13
1.33555e-12
6.0473e-14
-1.6279e-11
4.75659e-13
-5.99436e-10
3.48639e-11
-4.99389e-10
-1.68319e-14
-3.80142e-11
-3.75855e-13
-4.06798e-11
2.00771e-13
2.14723e-11
2.98985e-12
2.25841e-10
1.46447e-11
-7.14877e-10
3.09357e-11
-1.31805e-08
1.13027e-10
-1.29299e-07
-5.90391e-11
-1.57767e-06
2.53325e-09
-1.45067e-07
-4.7854e-06
4.08311e-17
4.20058e-16
1.27638e-14
1.28245e-15
3.90653e-15
8.26447e-16
1.68434e-15
8.2555e-16
9.63999e-16
1.29427e-15
9.78123e-16
2.22557e-15
1.04011e-15
2.5432e-15
-1.16131e-14
1.68836e-15
-2.10391e-12
3.25952e-13
-3.27878e-12
1.42192e-12
-4.00598e-12
1.17537e-12
-6.21871e-12
2.23147e-13
-1.72651e-12
-9.84062e-14
-4.70208e-13
-6.46818e-13
-2.4924e-12
-1.82812e-14
-3.51468e-12
2.29288e-13
8.9621e-12
4.39489e-12
3.65067e-11
5.28869e-11
3.60579e-10
9.54889e-11
1.93078e-10
2.19502e-10
-2.83474e-08
2.44685e-09
-6.66721e-08
-2.1191e-09
-1.22398e-08
-2.13733e-07
7.18432e-18
1.04248e-16
3.7214e-16
1.34766e-16
1.1775e-16
5.64378e-17
1.03859e-16
7.57449e-17
5.19302e-16
1.02764e-15
1.02652e-15
3.67764e-15
4.37965e-16
4.68697e-15
-3.08207e-14
2.69165e-15
-4.19472e-13
3.41216e-14
-2.71599e-12
4.57075e-13
-2.52706e-12
1.13589e-12
-1.43323e-12
2.76185e-13
-6.44834e-12
2.59211e-12
-3.27509e-12
2.47671e-12
-3.91674e-13
3.55258e-13
-3.46059e-13
1.07616e-13
-2.67316e-11
1.68176e-13
-1.85137e-11
-8.03242e-14
2.1722e-10
6.25174e-12
-3.57061e-13
2.02973e-10
-8.12727e-09
1.86881e-09
-1.66016e-08
5.94334e-09
5.82725e-09
-2.14821e-08
2.57918e-19
2.40775e-18
9.23633e-18
7.65593e-18
4.76879e-18
2.75077e-18
1.61036e-17
2.50002e-17
2.44581e-16
8.47309e-16
3.73047e-16
3.92132e-15
1.60103e-17
5.62042e-15
-4.0394e-16
4.08337e-15
-3.28994e-14
1.61272e-15
-3.87775e-13
-3.2814e-15
-8.45364e-14
2.85904e-15
-2.77267e-12
6.44943e-14
-1.04621e-11
3.28598e-12
-3.66717e-12
5.63439e-12
-2.98973e-13
1.71906e-12
-2.18993e-13
6.0251e-15
-1.89315e-13
1.17165e-14
-1.05192e-12
7.0184e-14
-2.15744e-12
2.59394e-12
8.94035e-11
7.54888e-11
-5.40194e-09
7.80716e-10
-1.0712e-08
5.94748e-09
8.82964e-09
-1.17694e-08
-6.24572e-21
1.49611e-19
1.70172e-19
2.5936e-19
1.13148e-19
1.18488e-19
3.00197e-18
7.95217e-18
6.57416e-17
3.75075e-16
1.10942e-16
2.44634e-15
-1.79666e-16
4.69131e-15
-3.73495e-16
4.39673e-15
-9.54749e-16
1.34095e-15
-4.92637e-15
6.43364e-16
-4.42165e-15
7.34332e-16
-2.33511e-13
5.83497e-15
-5.63058e-12
-2.25412e-15
-1.71916e-12
1.3388e-12
-8.51354e-15
4.05339e-15
-2.07465e-14
1.7735e-15
-4.24828e-14
1.17664e-14
-2.47199e-13
1.59693e-13
-1.7613e-12
2.67521e-12
-7.79948e-12
6.15202e-11
-7.26251e-09
9.20179e-10
-1.96798e-08
4.05318e-09
1.62783e-08
-7.30971e-09
-1.28446e-21
9.64771e-21
1.85901e-21
9.15103e-21
2.06262e-21
5.51677e-21
2.61106e-19
1.7e-18
3.25475e-18
9.2248e-17
-8.07639e-17
7.66315e-16
-2.25443e-16
1.84288e-15
-2.04003e-16
1.84133e-15
-3.51961e-16
9.15632e-16
-5.37808e-16
1.51139e-15
-1.06525e-15
1.27501e-15
-1.00475e-14
8.21789e-16
-2.08647e-13
-4.68399e-15
-4.98886e-15
6.82761e-15
-1.97413e-15
2.34301e-16
-1.32866e-14
1.52273e-15
-3.54451e-14
1.739e-14
-3.2966e-13
3.47127e-13
-5.65078e-12
6.3561e-12
-1.12259e-10
1.44063e-10
-7.52284e-09
2.16799e-09
-1.04071e-08
5.76042e-10
6.3951e-09
-6.49559e-09
-5.04631e-23
6.17593e-22
-1.40214e-23
3.38135e-22
1.3629e-24
4.27533e-22
-5.85727e-20
3.39152e-19
-5.62151e-18
1.9219e-17
-5.82867e-17
1.55435e-16
-9.71252e-17
3.59097e-16
-1.16611e-16
3.44712e-16
-4.59461e-16
4.82855e-16
-4.79797e-16
1.94126e-15
-4.08587e-16
1.29458e-15
-5.26213e-16
3.75206e-16
-5.91656e-15
1.29263e-16
-1.25587e-16
3.67689e-16
-2.72748e-16
4.22999e-17
-6.89919e-16
7.24123e-16
-1.38972e-14
2.07684e-14
-2.33988e-13
4.12125e-13
-4.6441e-12
7.91511e-12
-9.43505e-11
1.87595e-10
-1.33731e-08
2.91829e-09
-2.87777e-08
1.06468e-08
2.89188e-08
-7.04245e-09
-1.47843e-24
3.8956e-23
-2.81046e-24
1.28121e-23
-7.52475e-23
1.0191e-22
-5.25068e-20
7.17834e-20
-2.34617e-18
4.02417e-18
-1.57726e-17
2.83869e-17
-2.22537e-17
5.54748e-17
-3.71327e-17
5.38173e-17
-4.21854e-16
2.66655e-16
-4.40257e-16
1.51344e-15
-2.20554e-16
7.55874e-16
-9.39509e-17
2.50921e-16
-1.41899e-16
8.08552e-17
-1.16816e-17
3.33458e-17
-1.34422e-16
3.20612e-17
4.98442e-17
3.30022e-16
6.99144e-15
8.26769e-15
1.69298e-13
1.68179e-13
3.45685e-12
3.04084e-12
1.15619e-10
5.01725e-11
-7.03014e-09
5.52884e-10
-3.35686e-08
1.01712e-08
4.06205e-08
-8.71177e-09
-3.91053e-26
2.71922e-24
-1.45264e-25
5.1295e-25
-2.49923e-23
4.24542e-23
-1.68978e-20
1.39576e-20
-6.15264e-19
7.63244e-19
-3.00871e-18
4.89304e-18
-4.26773e-18
8.83666e-18
-1.02378e-17
9.84645e-18
-1.70246e-16
7.1996e-17
-1.51829e-16
3.21531e-16
-1.08837e-16
1.7785e-16
-5.87385e-17
1.43479e-16
-1.06894e-17
6.65619e-17
2.80093e-18
1.98363e-17
-2.92254e-16
-4.82585e-18
-1.82842e-16
1.36775e-16
2.20596e-15
3.291e-15
5.59868e-14
7.609e-14
9.66937e-13
1.4351e-12
1.52134e-11
2.41851e-11
-1.66759e-10
4.60107e-10
-2.5035e-08
4.99564e-09
4.16452e-08
-2.40359e-08
-1.47118e-27
2.08811e-24
-8.99692e-27
3.23931e-26
-6.18786e-24
1.65091e-23
-3.65454e-21
2.27784e-21
-1.13427e-19
1.14465e-19
-4.49947e-19
7.03362e-19
-6.96278e-19
1.36132e-18
-1.97254e-18
1.9295e-18
-2.2427e-17
7.43595e-18
-2.41477e-17
2.28139e-17
-3.14143e-17
3.24499e-17
-3.20107e-17
5.12577e-17
1.00532e-18
4.29849e-17
3.70569e-18
-2.34414e-18
-8.78648e-17
-7.69128e-18
-9.15878e-17
4.58441e-17
1.36853e-15
1.08805e-15
3.64118e-14
2.64574e-14
6.7087e-13
5.59471e-13
1.04356e-11
1.03924e-11
2.21988e-10
1.93114e-10
-5.3043e-09
1.49871e-09
3.32456e-08
-2.03834e-08
-1.12352e-28
-1.3172e-25
-2.28911e-27
2.84202e-26
-1.27013e-24
4.35044e-24
-5.43969e-22
2.94065e-22
-1.4192e-20
1.27606e-20
-5.48319e-20
7.89514e-20
-1.06075e-19
1.92956e-19
-2.94166e-19
4.31925e-19
-1.57824e-18
1.19302e-18
-4.04693e-18
3.35429e-18
-7.78092e-18
7.36107e-18
-8.76111e-18
1.05113e-17
5.78057e-19
9.19935e-18
1.58321e-18
-1.62881e-18
-2.06513e-17
-4.0268e-18
-3.38091e-17
1.11826e-17
-1.18286e-16
3.67607e-16
1.56322e-14
5.99191e-15
3.46121e-13
1.63154e-13
5.93792e-12
3.61319e-12
1.08338e-10
7.23826e-11
-3.48717e-09
9.25083e-10
1.24673e-08
-2.42771e-08
2.03442e-28
-3.79195e-25
-4.88534e-26
-5.306e-26
-2.03301e-25
6.81307e-25
-5.55681e-23
2.89955e-23
-1.20373e-21
1.07337e-21
-5.34552e-21
7.20872e-21
-1.74175e-20
2.76865e-20
-6.63752e-20
1.21248e-19
-2.82828e-19
3.91331e-19
-7.94637e-19
8.91818e-19
-1.17203e-18
1.40053e-18
-1.23803e-18
1.36797e-18
6.15888e-20
8.59003e-19
4.65848e-19
-2.14354e-19
-3.27011e-18
-1.48585e-18
-7.32504e-18
1.83336e-18
-1.07802e-16
6.0654e-17
4.15832e-15
1.14003e-15
1.31234e-13
2.0847e-14
3.05827e-12
4.22504e-13
6.32183e-11
7.4363e-12
-9.31825e-10
2.79545e-10
3.92453e-10
-2.64813e-09
2.89527e-28
-3.18316e-25
-5.91057e-27
-8.54967e-26
-2.16237e-26
4.54753e-26
-3.90911e-24
2.21025e-24
-7.16394e-23
7.2156e-23
-4.66647e-22
5.9672e-22
-3.37521e-21
4.71239e-21
-2.00644e-20
3.68036e-20
-6.8215e-20
1.3053e-19
-1.28671e-19
2.19465e-19
-1.45472e-19
2.40278e-19
-1.21725e-19
1.83365e-19
-6.94106e-20
1.03214e-19
9.76804e-20
1.07037e-19
-3.18965e-19
-4.04494e-19
-5.45675e-19
2.3694e-19
-2.23014e-17
6.602e-18
-1.51194e-16
1.9613e-16
1.35147e-14
2.68059e-15
3.75194e-13
3.10473e-14
1.10873e-12
6.20056e-13
-2.96943e-11
5.57889e-12
8.1469e-11
2.22234e-11
1.76144e-28
-2.26275e-25
-3.28756e-28
-6.79369e-26
-1.31034e-27
2.0934e-26
-1.96106e-25
1.3425e-25
-3.39885e-24
4.24193e-24
-4.28679e-23
5.12392e-23
-7.02598e-22
9.09951e-22
-5.42945e-21
9.47741e-21
-1.46235e-20
3.35881e-20
-1.94255e-20
4.96517e-20
-2.02547e-20
5.05094e-20
-1.21102e-20
3.86623e-20
-1.15714e-20
2.06366e-20
1.408e-20
3.19974e-20
-1.93766e-20
-8.01752e-20
-4.37542e-20
1.80813e-20
-1.06983e-18
5.41878e-19
-2.19208e-17
1.33805e-17
-1.49942e-17
3.55611e-16
1.38598e-14
4.9326e-15
1.10971e-13
6.65147e-14
2.52995e-12
1.17387e-12
1.17237e-11
4.00472e-11
6.28069e-29
-1.46542e-25
1.00811e-28
-3.97809e-26
-2.2468e-27
-7.68646e-27
-7.38614e-27
6.10509e-27
-1.54266e-25
2.38083e-25
-4.40347e-24
4.91094e-24
-1.19644e-22
1.56298e-22
-1.00572e-21
1.75484e-21
-2.54044e-21
6.50308e-21
-3.22625e-21
1.05918e-20
-3.34201e-21
1.17335e-20
-2.07114e-21
9.90475e-21
-1.50928e-21
5.09676e-21
1.31698e-21
1.97198e-21
-8.29112e-22
-1.14322e-20
-2.37958e-21
7.78113e-22
-4.8807e-20
2.68333e-20
-7.56805e-19
6.69359e-19
-7.27923e-18
2.18876e-17
5.82741e-16
7.53029e-16
5.637e-14
5.83584e-15
9.08215e-13
1.34766e-13
1.33487e-12
7.60426e-12
5.87925e-30
-8.64582e-26
1.45479e-28
-1.88835e-26
-9.10299e-29
-1.4275e-26
-2.18784e-28
4.83697e-27
-7.14778e-27
1.3362e-26
-4.19848e-25
4.705e-25
-1.37953e-23
1.94696e-23
-1.22042e-22
2.27649e-22
-3.3967e-22
9.50445e-22
-4.69038e-22
1.8422e-21
-4.85e-22
2.25657e-21
-3.19522e-22
2.1227e-21
-1.47288e-22
1.16573e-21
6.70253e-23
3.04188e-22
-2.29275e-23
-1.11693e-21
-2.54344e-23
4.76416e-23
-1.13675e-22
1.2242e-21
1.94109e-20
4.75462e-20
1.8087e-18
1.8762e-18
1.18832e-16
6.62126e-17
6.27141e-15
1.11969e-15
1.20399e-13
7.43733e-15
1.11578e-13
9.74869e-13
-4.0014e-29
-4.61633e-26
7.1683e-29
-7.4405e-27
4.65974e-31
-1.01836e-26
-2.07636e-28
-3.43495e-29
-3.12205e-28
7.46039e-28
-2.84202e-26
3.71147e-26
-1.01996e-24
1.69698e-24
-9.69101e-24
2.20279e-23
-3.04226e-23
1.044e-22
-4.46139e-23
2.30908e-22
-4.32163e-23
3.03518e-22
-2.78438e-23
3.14726e-22
-8.38947e-24
1.97149e-22
5.4668e-25
6.27038e-23
-4.83957e-25
-5.53462e-23
3.7906e-24
1.55368e-23
8.98174e-23
1.09979e-22
5.89288e-21
4.87478e-21
3.26663e-19
1.80677e-19
1.4602e-17
5.43118e-18
4.70524e-16
1.44667e-16
1.01488e-14
1.67857e-15
1.74849e-15
8.82118e-14
-4.6411e-29
-2.22301e-26
1.8808e-29
-2.45266e-27
5.83049e-30
-4.96037e-27
-6.94825e-30
-7.06875e-28
-1.04803e-29
3.98388e-29
-1.14898e-27
2.28401e-27
-4.46048e-26
1.14933e-25
-4.2897e-25
1.69976e-24
-1.30184e-24
8.7226e-24
-1.55088e-24
2.05867e-23
-7.03426e-25
2.83473e-23
7.15789e-25
3.13611e-23
1.22204e-24
2.2428e-23
4.86695e-25
8.96727e-24
2.02122e-25
3.52321e-24
4.72209e-25
9.12293e-25
1.37459e-23
8.82503e-24
8.64955e-22
4.50499e-22
4.47323e-20
1.97586e-20
1.68712e-18
5.57358e-19
4.5252e-17
1.06292e-17
1.04461e-15
2.62836e-16
1.77078e-15
9.19865e-15
-3.29105e-29
-9.65308e-27
9.29293e-31
-6.83705e-28
1.25429e-30
-1.86148e-27
-1.20505e-31
-4.25281e-28
-1.47241e-31
2.46519e-30
-1.34159e-29
1.23985e-28
-2.14621e-28
6.78483e-27
2.93811e-27
1.08799e-25
4.39113e-26
5.77542e-25
1.64144e-25
1.40065e-24
3.33375e-25
1.99782e-24
5.37954e-25
2.27466e-24
4.24625e-25
1.77998e-24
1.58864e-25
8.12662e-25
5.43278e-26
3.39629e-25
6.02057e-26
7.9966e-26
1.57216e-24
7.50793e-25
1.11298e-22
4.80089e-23
6.6397e-21
2.88529e-21
2.34221e-19
9.02622e-20
5.0856e-18
1.41153e-18
1.10467e-16
2.07117e-17
4.15511e-16
1.53304e-15
-1.80607e-29
-3.7873e-27
-5.19954e-31
-1.64008e-28
-1.24377e-30
-5.69334e-28
-5.97676e-31
-1.66375e-28
2.477e-31
1.61778e-30
1.07608e-30
6.60262e-30
8.25011e-29
3.70823e-28
1.72046e-27
6.07466e-27
1.08421e-26
3.27069e-26
2.96157e-26
8.0629e-26
4.9677e-26
1.18041e-25
6.93187e-26
1.36307e-25
5.56996e-26
1.10844e-25
2.13338e-26
5.3154e-26
7.11871e-27
1.47306e-26
7.73256e-27
7.38984e-27
1.75466e-25
7.62349e-26
1.50954e-23
6.06766e-24
1.18455e-21
5.02656e-22
4.78403e-20
2.08895e-20
8.89596e-19
3.30515e-19
1.39228e-17
3.31831e-18
4.79508e-17
2.43086e-16
-8.22154e-30
-1.34695e-27
-2.3017e-31
-3.47204e-29
-1.09262e-30
-1.46874e-28
-5.21855e-31
-5.065e-29
-3.2227e-33
-2.25924e-31
1.33238e-31
3.4675e-31
9.08522e-30
1.95026e-29
1.76457e-28
3.19472e-28
1.04723e-27
1.73525e-27
2.72364e-27
4.32968e-27
4.42064e-27
6.43617e-27
5.89302e-27
7.52073e-27
4.84633e-27
6.19297e-27
1.9072e-27
3.02964e-27
7.03613e-28
8.97928e-28
7.75604e-28
5.382e-28
2.18179e-26
9.19204e-27
2.17641e-24
8.18638e-25
2.20179e-22
8.33977e-23
1.1727e-20
4.86815e-21
2.31777e-19
9.55851e-20
2.69867e-18
8.35054e-19
7.54071e-18
3.8401e-17
-3.24921e-30
-4.35925e-28
-6.73014e-32
-6.72425e-30
-4.04621e-31
-3.27669e-29
-2.12464e-31
-1.28183e-29
-5.31942e-33
-2.40309e-31
1.65849e-32
1.69915e-32
7.0215e-31
1.01333e-30
1.32804e-29
1.66407e-29
7.73807e-29
9.09957e-29
1.98297e-28
2.29054e-28
3.1782e-28
3.43687e-28
4.13927e-28
4.05489e-28
3.45175e-28
3.37091e-28
1.38983e-28
1.68109e-28
5.63612e-29
5.15669e-29
6.27676e-29
3.55743e-29
2.9693e-27
1.19525e-27
3.13178e-25
1.08673e-25
3.69559e-23
1.20138e-23
2.67006e-21
9.55006e-22
6.63347e-20
2.5991e-20
7.01599e-19
2.436e-19
1.35461e-18
6.17433e-18
-1.14484e-30
-1.28899e-28
-1.65942e-32
-1.25651e-30
-1.0886e-31
-6.44159e-30
-6.24431e-32
-2.79535e-30
-2.68775e-33
-9.17262e-32
3.22168e-33
1.6705e-33
4.68088e-32
5.19507e-32
8.74546e-31
8.57196e-31
5.04413e-30
4.71555e-30
1.28383e-29
1.19549e-29
2.04346e-29
1.80689e-29
2.62142e-29
2.14561e-29
2.21359e-29
1.80049e-29
9.08108e-30
9.14816e-30
4.22508e-30
2.84188e-30
4.84246e-30
2.65467e-30
4.101e-28
1.54703e-28
4.34726e-26
1.39935e-26
5.49791e-24
1.57693e-24
5.23367e-22
1.59431e-22
1.76008e-20
6.05771e-21
1.97881e-19
6.84821e-20
3.14921e-19
1.1539e-18
-3.67085e-31
-3.49533e-29
-3.91303e-33
-2.4254e-31
-2.38067e-32
-1.13253e-30
-1.4804e-32
-5.37615e-31
-8.87902e-34
-2.48728e-32
5.04853e-34
2.77743e-34
2.85462e-33
2.61182e-33
5.28199e-32
4.32215e-32
3.0285e-31
2.38823e-31
7.67133e-31
6.08603e-31
1.21567e-30
9.24404e-31
1.54121e-30
1.10124e-30
1.31391e-30
9.29841e-31
5.46887e-31
4.7916e-31
3.05945e-31
1.50831e-31
4.61817e-31
2.4175e-31
5.46473e-29
1.89524e-29
5.79113e-27
1.73058e-27
7.51907e-25
1.96147e-25
8.81738e-23
2.31116e-23
3.96734e-21
1.15224e-21
5.25326e-20
1.64517e-20
8.76192e-20
2.77839e-19
-1.08655e-31
-8.71981e-30
-9.56686e-34
-5.0997e-32
-4.42077e-33
-1.80261e-31
-2.96353e-33
-9.27064e-32
-2.24446e-34
-5.45729e-33
3.41205e-35
1.91763e-35
1.62646e-34
1.2823e-34
2.98699e-33
2.12956e-33
1.70546e-32
1.17933e-32
4.30502e-32
3.01366e-32
6.7868e-32
4.58741e-32
8.51521e-32
5.46592e-32
7.28916e-32
4.62583e-32
3.06864e-32
2.40504e-32
1.87588e-32
7.72481e-33
5.77014e-32
2.46105e-32
6.70491e-30
2.0653e-30
7.17215e-28
1.92826e-28
9.40264e-26
2.19872e-26
1.25894e-23
2.82006e-24
7.22815e-22
1.7461e-22
1.20666e-20
3.23955e-21
2.37674e-20
7.67461e-20
-2.97591e-32
-2.00611e-30
-2.44833e-34
-1.16219e-32
-7.16689e-34
-2.62485e-32
-5.15896e-34
-1.45139e-32
-4.65348e-35
-1.02334e-33
-2.23366e-37
-3.96948e-36
8.9679e-36
6.14124e-36
1.59739e-34
1.02708e-34
9.08561e-34
5.68809e-34
2.28603e-33
1.45404e-33
3.58434e-33
2.21248e-33
4.45661e-33
2.62923e-33
3.81454e-33
2.22262e-33
1.62029e-33
1.16065e-33
9.94917e-34
3.84189e-34
6.78044e-33
2.31069e-33
7.10931e-31
1.86124e-31
7.7178e-29
1.77151e-29
1.01682e-26
2.03339e-27
1.4849e-24
2.78182e-25
1.06388e-22
2.15227e-23
2.30848e-21
5.24024e-22
5.26204e-21
1.97323e-20
-7.42847e-33
-4.26395e-31
-6.24232e-35
-2.70632e-33
-1.0342e-34
-3.53014e-33
-7.92356e-35
-2.08384e-33
-8.18615e-36
-1.69044e-34
-9.00793e-38
-1.51008e-36
5.32685e-37
2.86192e-37
8.10369e-36
4.85819e-36
4.59127e-35
2.68453e-35
1.15107e-34
6.84889e-35
1.79541e-34
1.03915e-34
2.21586e-34
1.2284e-34
1.88927e-34
1.03408e-34
8.09593e-35
5.40063e-35
5.06165e-35
1.87246e-35
6.36307e-34
1.74921e-34
6.17748e-32
1.34493e-32
6.75805e-30
1.27595e-30
8.92718e-28
1.46443e-28
1.40327e-25
2.13529e-26
1.28139e-23
2.16006e-24
3.60772e-22
6.84382e-23
8.21402e-22
3.9482e-21
-1.67285e-33
-8.38495e-32
-1.49426e-35
-6.07125e-34
-1.34216e-35
-4.42521e-34
-1.08384e-35
-2.76718e-34
-1.24411e-36
-2.50885e-35
-1.92297e-38
-3.15892e-37
3.73834e-38
1.26733e-38
3.89182e-37
2.25832e-37
2.19488e-36
1.24195e-36
5.48033e-36
3.15511e-36
8.49817e-36
4.7615e-36
1.04253e-35
5.58468e-36
8.82557e-36
4.66776e-36
3.82031e-36
2.42736e-36
2.47571e-36
8.95618e-37
4.75502e-35
1.1047e-35
4.36669e-33
8.15068e-34
4.69917e-31
7.40595e-32
6.16231e-29
8.30405e-30
1.0284e-26
1.25651e-27
1.23261e-24
1.68935e-25
4.49361e-23
7.01875e-24
8.60845e-23
5.53643e-22
-3.41507e-34
-1.52719e-32
-3.25215e-36
-1.27364e-34
-1.57715e-36
-5.21823e-35
-1.32625e-36
-3.42418e-35
-1.65055e-37
-3.39362e-36
-3.07022e-39
-5.16686e-38
2.81359e-39
6.98646e-40
1.76283e-38
1.03396e-38
9.86492e-38
5.64475e-38
2.4503e-37
1.4247e-37
3.77341e-37
2.13329e-37
4.60484e-37
2.47619e-37
3.85924e-37
2.04854e-37
1.68946e-37
1.0559e-37
1.14983e-37
4.16824e-38
3.00552e-36
6.43019e-37
2.6189e-34
4.53051e-35
2.68461e-32
3.81199e-33
3.41761e-30
4.04053e-31
5.857e-28
6.03885e-29
9.16475e-26
1.03326e-26
4.42104e-24
5.80386e-25
6.88628e-24
5.51643e-23
-6.3299e-35
-2.57852e-33
-6.36155e-37
-2.4707e-35
-1.69257e-37
-5.84372e-36
-1.45598e-37
-3.97577e-36
-1.92266e-38
-4.23183e-37
-3.96646e-40
-7.18405e-39
1.89459e-40
5.70965e-41
7.48624e-40
4.67199e-40
4.14426e-39
2.5273e-39
1.02205e-38
6.32364e-39
1.56046e-38
9.37267e-39
1.89496e-38
1.07403e-38
1.56562e-38
8.76749e-39
6.92869e-39
4.45888e-39
4.97844e-39
1.87741e-39
1.69308e-37
3.60799e-38
1.40914e-35
2.46663e-36
1.35151e-33
1.92395e-34
1.63206e-31
1.89642e-32
2.77173e-29
2.72717e-30
5.4483e-27
5.62557e-28
3.57276e-25
4.2834e-26
5.18456e-25
4.42595e-24
-1.05832e-35
-4.04e-34
-1.11114e-37
-4.41004e-36
-1.67502e-38
-6.27489e-37
-1.44006e-38
-4.35972e-37
-1.9774e-39
-4.91289e-38
-4.26957e-41
-8.80223e-40
9.80044e-42
4.60037e-42
2.96349e-41
2.08693e-41
1.61995e-40
1.11795e-40
3.95723e-40
2.76799e-40
5.97718e-40
4.05227e-40
7.2204e-40
4.57446e-40
5.85454e-40
3.67386e-40
2.61557e-40
1.83576e-40
1.98348e-40
8.18581e-41
8.56453e-39
1.92048e-39
6.99074e-37
1.32366e-37
6.35243e-35
9.97578e-36
7.25731e-33
9.38726e-34
1.21187e-30
1.33368e-31
2.91602e-28
3.2953e-29
2.55296e-26
3.12855e-27
3.96394e-26
3.22482e-25
-1.59047e-36
-5.88245e-35
-1.72617e-38
-7.23605e-37
-1.5401e-39
-6.51862e-38
-1.28921e-39
-4.54242e-38
-1.8044e-40
-5.35666e-39
-3.89748e-42
-9.70592e-41
3.73772e-43
3.29113e-43
1.08976e-42
9.238e-43
5.86955e-42
4.90056e-42
1.41673e-41
1.19892e-41
2.11222e-41
1.73053e-41
2.53811e-41
1.92109e-41
2.01047e-41
1.51412e-41
9.04165e-42
7.40756e-42
7.19637e-42
3.45097e-42
3.79587e-40
9.38214e-41
3.14871e-38
6.72568e-39
2.83158e-36
5.21909e-37
3.17877e-34
5.06319e-35
5.41152e-32
7.67705e-33
1.59388e-29
2.26674e-30
1.68127e-27
2.27312e-28
2.80234e-27
2.14104e-26
-2.13666e-37
-7.97744e-36
-2.37559e-39
-1.09187e-37
-1.32265e-40
-6.59725e-39
-1.04658e-40
-4.52158e-39
-1.46246e-41
-5.52823e-40
-3.03727e-43
-9.77313e-42
9.72369e-45
1.56628e-44