/*--------------------------------*- C++ -*----------------------------------*\
| =========                 |                                                 |
| \\      /  F ield         | OpenFOAM: The Open Source CFD Toolbox           |
|  \\    /   O peration     | Version:  5.x                                   |
|   \\  /    A nd           | Web:      www.OpenFOAM.org                      |
|    \\/     M anipulation  |                                                 |
\*---------------------------------------------------------------------------*/
FoamFile
{
    version     2.0;
    format      ascii;
    class       volScalarField;
    location    "0.65";
    object      p;
}
// * * * * * * * * * * * * * * * * * * * * * * * * * * * * * * * * * * * * * //

dimensions      [1 -1 -2 0 0 0 0];

internalField   nonuniform List<scalar> 
2268
(
500.069
499.184
500.618
505.101
514.406
529.332
549.031
569.998
590.232
610.458
631.376
652.994
674.912
696.707
718.033
738.298
756.472
772.724
784.776
786.626
788.37
811.339
844.718
440.856
439.51
440.77
445.133
454.259
469.149
489.177
510.558
531.019
551.344
572.272
593.91
615.893
637.751
659.1
679.441
697.988
714.75
730.471
733.295
723.54
740.74
780.685
380.739
379.083
380.341
384.294
392.853
407.548
428.242
450.532
471.497
492.027
513.125
534.882
556.914
578.784
600.055
620.198
638.877
655.957
671.937
677.359
664.745
675.208
718.459
320.284
318.305
319.379
322.61
330.213
344.598
366.373
390.072
411.82
432.632
453.914
475.833
497.987
519.964
541.324
561.358
579.968
597.141
612.159
620.168
614.613
622.235
662.391
260.035
257.578
258.211
260.464
266.796
281.252
304.427
329.486
352.029
373.222
394.733
416.826
439.126
461.291
482.923
502.935
521.548
538.81
553.882
564.546
568.535
577.558
612.256
199.945
197.296
196.874
197.939
204.401
219.332
243.191
268.827
291.779
313.619
335.627
357.895
380.346
402.737
424.84
444.809
463.48
480.925
496.644
510.017
520.585
532.316
563.506
140.059
138.83
136.672
137.84
143.854
159.119
182.587
207.646
230.476
253.27
276.249
299.001
321.68
344.327
367.138
386.949
405.669
423.24
439.582
454.828
469.239
484.305
512.793
78.3007
76.1198
75.893
77.8899
84.9686
100.23
122.038
145.537
168.458
192.47
216.749
240.047
263.105
286.34
309.268
329.287
348.102
365.74
382.551
399.11
416.297
435.051
466.22
862.148
793.53
900.632
1062.06
1197.48
1275.88
1403.42
1456.99
1158.17
664.407
375.009
277.695
261.671
265.925
300.276
468.826
837.736
1160.05
1154.56
784.237
681.822
807.333
986.201
1116.19
1193.74
1347.6
1409.8
970.033
379.229
194.854
180.342
185.347
196.732
226.188
351.254
679.301
1061.8
1095.85
683.653
582.499
715.855
904.688
1026.84
1106.12
1316.4
1302.06
464.477
176.503
145.863
146.131
147.209
148.749
152.751
186.079
406.238
891.469
1028.57
648.879
520.443
634.239
812.855
927.603
1006.34
1255.73
1076.56
198.276
142.585
141.628
143.354
144.121
144.181
143.016
145.698
221.94
618.518
941.964
638.744
518.392
566.252
714.057
816.217
888.902
1147.94
791.229
153.475
140.258
141.286
143.084
143.551
143.396
142.717
139.905
168.702
365.438
827.243
622.422
508.869
508.1
608.506
686.334
751.473
1014.86
725.642
146.574
143.497
142.98
142.495
142.579
142.279
141.899
140.191
149.432
221.608
680.578
592.851
493.373
455.263
498.386
531.432
585.289
845.174
712.012
157.44
146.63
144.52
142.159
142.101
141.824
141.412
140.414
140.487
157.021
517.971
550.418
465.246
403.241
382.486
362.489
403.974
628.97
597.249
160.526
147.049
143.957
142.022
142.071
141.718
141.144
140.296
139.216
141.222
370.696
24.4221
21.0761
21.6134
26.2613
31.3392
38.707
48.347
60.2489
77.8936
99.4078
123.086
147.604
171.71
195.98
219.7
239.672
258.341
275.781
293.05
310.92
330.573
355.373
392.284
1.7369
1.34028
1.36055
3.01583
4.83975
6.09962
6.54576
7.87524
12.2453
19.7837
30.3959
44.8514
61.9851
80.947
100.838
119.782
137.44
153.549
169.938
188.259
209.499
237.497
278.952
1.23715
1.06026
0.937031
0.930916
0.865795
0.799727
0.787878
0.833208
0.878452
0.883928
1.18421
3.61292
7.97485
14.2895
22.6522
33.4398
43.4144
51.6378
60.2229
70.5656
83.4467
106.135
155.21
0.891563
0.761862
0.66077
0.686543
0.675511
0.615514
0.600729
0.653682
0.725376
0.788711
0.860798
0.897415
0.984737
1.08176
1.15036
1.23595
2.0674
3.59634
5.36508
8.27055
10.9386
12.0777
33.4462
0.674083
0.607348
0.561483
0.576543
0.554346
0.502921
0.494976
0.53114
0.586045
0.640334
0.692966
0.755397
0.838095
0.919252
0.998639
1.0768
1.15177
1.23601
1.29479
1.29018
1.03119
-0.0557279
0.180294
0.486387
0.47092
0.443071
0.425674
0.412612
0.399095
0.406714
0.43583
0.474412
0.519266
0.569827
0.625626
0.688943
0.753863
0.813732
0.880149
0.95963
1.05255
1.14043
1.25081
1.39895
1.56644
1.79918
0.308272
0.305917
0.288811
0.275492
0.270137
0.269993
0.280124
0.302128
0.332732
0.368148
0.411324
0.462929
0.521412
0.583529
0.65149
0.716731
0.790362
0.868398
0.937608
0.996442
1.12613
1.39078
1.57016
0.135149
0.132557
0.125423
0.121828
0.121349
0.124886
0.137095
0.1588
0.187979
0.221435
0.259652
0.302574
0.350728
0.404897
0.46391
0.525214
0.593095
0.668219
0.747344
0.832339
0.968449
1.15817
1.30921
-0.0370522
-0.0378846
-0.0405352
-0.040453
-0.0376562
-0.0311089
-0.0182516
0.00107571
0.0258432
0.0553669
0.0900202
0.129714
0.174235
0.223887
0.278257
0.335362
0.396424
0.463269
0.537212
0.619487
0.728808
0.885418
1.05518
-0.209275
-0.208968
-0.209297
-0.207506
-0.202689
-0.194609
-0.18197
-0.16438
-0.141969
-0.114909
-0.0837281
-0.0486674
-0.00940522
0.034258
0.0817227
0.132483
0.187373
0.247259
0.314534
0.391776
0.476951
0.573186
0.718462
-0.381809
-0.381311
-0.380002
-0.377016
-0.371132
-0.362909
-0.350727
-0.334594
-0.314468
-0.290627
-0.263351
-0.232599
-0.198416
-0.160853
-0.120222
-0.0765454
-0.0288901
0.0236522
0.0838457
0.153653
0.222913
0.284081
0.402142
-0.555102
-0.554391
-0.552174
-0.54902
-0.542919
-0.534787
-0.523694
-0.509519
-0.49223
-0.471907
-0.448598
-0.422387
-0.393416
-0.361879
-0.327907
-0.291282
-0.2513
-0.206806
-0.154447
-0.0938137
-0.0330701
0.0418918
0.172419
-0.729426
-0.728582
-0.726311
-0.722789
-0.717254
-0.70986
-0.700195
-0.68817
-0.673703
-0.656824
-0.637653
-0.616366
-0.593092
-0.568013
-0.541226
-0.512537
-0.481492
-0.447285
-0.407085
-0.360101
-0.316062
-0.255971
-0.142565
-0.90474
-0.903871
-0.901748
-0.898475
-0.893668
-0.887366
-0.879346
-0.869571
-0.858009
-0.844737
-0.829892
-0.813654
-0.796211
-0.7778
-0.75862
-0.738745
-0.718138
-0.696696
-0.673892
-0.649704
-0.632446
-0.62551
-0.594932
-1.08097
-1.08017
-1.07838
-1.07563
-1.07173
-1.06672
-1.06049
-1.05307
-1.04449
-1.03487
-1.02438
-1.01322
-1.00169
-0.990097
-0.97883
-0.968323
-0.959122
-0.951939
-0.94842
-0.95167
-0.968262
-1.01777
-1.11235
-1.25801
-1.25735
-1.25599
-1.25391
-1.25104
-1.24742
-1.24305
-1.23801
-1.23239
-1.22636
-1.22014
-1.21401
-1.20834
-1.20359
-1.20035
-1.19942
-1.20192
-1.20943
-1.2249
-1.25438
-1.3061
-1.40163
-1.60276
-1.43568
-1.43522
-1.43433
-1.43298
-1.43118
-1.429
-1.42649
-1.42378
-1.42103
-1.41845
-1.41634
-1.41504
-1.41502
-1.41688
-1.42142
-1.42977
-1.44351
-1.46497
-1.49791
-1.54949
-1.63111
-1.76203
-2.00157
-1.61375
-1.61351
-1.6131
-1.6125
-1.61177
-1.611
-1.61029
-1.60981
-1.60977
-1.61044
-1.61217
-1.61536
-1.62059
-1.62855
-1.64024
-1.65701
-1.68074
-1.71417
-1.76155
-1.82977
-1.93062
-2.08249
-2.32138
-1.79196
-1.79195
-1.79201
-1.79215
-1.79246
-1.79303
-1.79401
-1.7956
-1.79805
-1.80168
-1.80688
-1.81412
-1.82402
-1.83737
-1.85526
-1.87915
-1.91103
-1.95368
-2.01128
-2.08984
-2.19892
-2.35263
-2.57102
-1.97006
-1.97027
-1.97078
-1.97163
-1.9729
-1.97471
-1.97723
-1.98069
-1.98537
-1.99161
-1.99985
-2.01059
-2.02448
-2.04235
-2.0653
-2.09479
-2.13276
-2.18162
-2.24536
-2.32818
-2.43784
-2.58386
-2.7762
-2.14781
-2.14824
-2.14916
-2.15067
-2.15281
-2.15573
-2.15962
-2.16471
-2.1713
-2.17978
-2.19057
-2.20421
-2.22134
-2.24278
-2.26958
-2.30316
-2.34534
-2.39723
-2.46375
-2.54744
-2.65329
-2.78735
-2.95517
-2.32499
-2.32565
-2.32692
-2.329
-2.33191
-2.33581
-2.34087
-2.34734
-2.35554
-2.36585
-2.3787
-2.3946
-2.41419
-2.43828
-2.46769
-2.50375
-2.54805
-2.60208
-2.66854
-2.74995
-2.84946
-2.97064
-3.11631
-2.50143
-2.50229
-2.50384
-2.50642
-2.50999
-2.51471
-2.52074
-2.52834
-2.53782
-2.54957
-2.56399
-2.58153
-2.60281
-2.62864
-2.65974
-2.69718
-2.74224
-2.79624
-2.86099
-2.93834
-3.03024
-3.13865
-3.2646
-2.67696
-2.678
-2.67972
-2.68276
-2.68685
-2.69225
-2.69907
-2.70751
-2.71796
-2.73077
-2.74628
-2.76495
-2.78735
-2.81411
-2.84595
-2.88371
-2.92838
-2.98102
-3.04287
-3.11516
-3.19905
-3.2955
-3.40458
-2.85141
-2.85254
-2.85455
-2.85787
-2.86237
-2.86826
-2.87567
-2.88479
-2.89594
-2.90943
-2.92562
-2.94491
-2.96781
-2.99486
-3.02667
-3.0639
-3.10731
-3.15771
-3.21591
-3.28271
-3.3587
-3.44427
-3.53902
-3.02471
-3.02591
-3.0281
-3.03165
-3.03645
-3.0427
-3.05051
-3.06008
-3.07166
-3.08553
-3.10202
-3.12151
-3.14441
-3.1712
-3.20236
-3.23843
-3.27996
-3.32754
-3.3817
-3.44288
-3.51137
-3.58716
-3.6697
-3.19678
-3.19805
-3.20034
-3.20403
-3.20902
-3.21549
-3.22354
-3.23334
-3.24511
-3.25909
-3.27558
-3.2949
-3.31741
-3.34349
-3.37355
-3.40798
-3.44722
-3.49164
-3.54158
-3.59727
-3.65875
-3.72586
-3.79798
-3.36758
-3.3689
-3.37123
-3.375
-3.38007
-3.38663
-3.39475
-3.40459
-3.41633
-3.43018
-3.4464
-3.46526
-3.48706
-3.5121
-3.54072
-3.57321
-3.60987
-3.65097
-3.69669
-3.74711
-3.80217
-3.86159
-3.92479
-3.53709
-3.53845
-3.54077
-3.54453
-3.54959
-3.55612
-3.56417
-3.57387
-3.58539
-3.59891
-3.61464
-3.6328
-3.65363
-3.6774
-3.70433
-3.73467
-3.76861
-3.80633
-3.84793
-3.89339
-3.94258
-3.9952
-4.05071
-3.70533
-3.7067
-3.70896
-3.71266
-3.71762
-3.724
-3.73185
-3.74127
-3.75241
-3.76542
-3.78046
-3.79772
-3.81741
-3.8397
-3.86479
-3.89285
-3.92401
-3.95839
-3.99601
-4.03682
-4.08066
-4.12724
-4.17608
-3.87231
-3.87369
-3.87585
-3.87943
-3.8842
-3.89035
-3.89787
-3.90689
-3.9175
-3.92985
-3.94405
-3.96026
-3.97864
-3.99933
-4.02247
-4.04818
-4.07657
-4.10767
-4.1415
-4.17796
-4.21691
-4.25807
-4.30107
-4.03809
-4.03943
-4.04148
-4.0449
-4.04942
-4.05525
-4.06235
-4.07085
-4.08082
-4.09237
-4.10561
-4.12064
-4.1376
-4.15659
-4.17771
-4.20105
-4.22668
-4.2546
-4.28481
-4.3172
-4.35165
-4.38793
-4.42573
-4.20273
-4.204
-4.20593
-4.20914
-4.21336
-4.2188
-4.2254
-4.23329
-4.24252
-4.25317
-4.26533
-4.27909
-4.29454
-4.31176
-4.33083
-4.3518
-4.3747
-4.39954
-4.42629
-4.45486
-4.48514
-4.51694
-4.55003
-4.36633
-4.36749
-4.36929
-4.37225
-4.37612
-4.38112
-4.38715
-4.39436
-4.40276
-4.41243
-4.42344
-4.43584
-4.44972
-4.46513
-4.48212
-4.50073
-4.52096
-4.54281
-4.56625
-4.59122
-4.61759
-4.64524
-4.67397
-4.52897
-4.53001
-4.53166
-4.53433
-4.53782
-4.54233
-4.54775
-4.55421
-4.56172
-4.57035
-4.58013
-4.59113
-4.6034
-4.61697
-4.63188
-4.64815
-4.66577
-4.68473
-4.70501
-4.72653
-4.74921
-4.77295
-4.7976
-4.69076
-4.69164
-4.69313
-4.6955
-4.69858
-4.70256
-4.70732
-4.71299
-4.71956
-4.72709
-4.73562
-4.74518
-4.7558
-4.76753
-4.78037
-4.79433
-4.8094
-4.82557
-4.84281
-4.86106
-4.88024
-4.90027
-4.92107
-4.8518
-4.85249
-4.85381
-4.85586
-4.85851
-4.86192
-4.86599
-4.87084
-4.87643
-4.88284
-4.89007
-4.89817
-4.90715
-4.91703
-4.92782
-4.93951
-4.95211
-4.96558
-4.9799
-4.99502
-5.01088
-5.02743
-5.04459
-5.01219
-5.01269
-5.01382
-5.01554
-5.01773
-5.02056
-5.02391
-5.0279
-5.0325
-5.03776
-5.04369
-5.05031
-5.05764
-5.06568
-5.07445
-5.08393
-5.09411
-5.10498
-5.1165
-5.12864
-5.14135
-5.15459
-5.16831
-5.17207
-5.17238
-5.17331
-5.17467
-5.1764
-5.17862
-5.18123
-5.18436
-5.18794
-5.19204
-5.19665
-5.20179
-5.20748
-5.21371
-5.22048
-5.22779
-5.23562
-5.24397
-5.2528
-5.26208
-5.27179
-5.28188
-5.29234
-5.33157
-5.33168
-5.33241
-5.3334
-5.33464
-5.33624
-5.33811
-5.34035
-5.34291
-5.34584
-5.34913
-5.3528
-5.35684
-5.36128
-5.36609
-5.37126
-5.3768
-5.38269
-5.38892
-5.39546
-5.40228
-5.40937
-5.41671
-5.49074
-5.49071
-5.49121
-5.4918
-5.49255
-5.49352
-5.49464
-5.49599
-5.49752
-5.49928
-5.50125
-5.50344
-5.50586
-5.50851
-5.51138
-5.51446
-5.51776
-5.52126
-5.52496
-5.52883
-5.53286
-5.53705
-5.54139
-5.64972
-5.64959
-5.64979
-5.64999
-5.65024
-5.65057
-5.65094
-5.6514
-5.6519
-5.65249
-5.65314
-5.65388
-5.65468
-5.65556
-5.65651
-5.65753
-5.65862
-5.65978
-5.66099
-5.66226
-5.66359
-5.66497
-5.66639
426.834
448.863
469.637
482.785
318.485
343.917
367.269
385.131
208.728
241.77
272.256
298.465
106.235
164.546
203.471
214.698
16.8435
39.9942
68.5947
97.2825
2.50304
3.99791
7.82594
19.7625
1.71429
1.74645
1.99115
3.5633
1.38272
1.40688
1.47123
1.73151
1.21488
1.33042
1.45413
1.56143
0.945445
1.13344
1.32352
1.4492
0.622238
0.819367
1.04048
1.2295
0.333604
0.480174
0.665261
0.852735
-0.0645225
-0.00742976
0.0688807
0.155924
-0.593
-0.611748
-0.619069
-0.616161
-1.25948
-1.40135
-1.58451
-1.91816
-1.89301
-2.14705
-2.5151
-3.16472
-2.33815
-2.63677
-3.06385
-3.75685
-2.62317
-2.89882
-3.27236
-3.77511
-2.81425
-3.00818
-3.24417
-3.52542
-2.9652
-3.10333
-3.25831
-3.43139
-3.11034
-3.21961
-3.3369
-3.46169
-3.24507
-3.33369
-3.42642
-3.52247
-3.37137
-3.44353
-3.51799
-3.59424
-3.49414
-3.55391
-3.61509
-3.67734
-3.61503
-3.6653
-3.71647
-3.76831
-3.73476
-3.77751
-3.82085
-3.86462
-3.85408
-3.89076
-3.92784
-3.96518
-3.97347
-4.00518
-4.03716
-4.0693
-4.09316
-4.12075
-4.14852
-4.17639
-4.21325
-4.23737
-4.26164
-4.28599
-4.3337
-4.35486
-4.37617
-4.39758
-4.45438
-4.47297
-4.49173
-4.51061
-4.57511
-4.5914
-4.60788
-4.62451
-4.69576
-4.70993
-4.72429
-4.73882
-4.8163
-4.82846
-4.84081
-4.85332
-4.93684
-4.94711
-4.95752
-4.96809
-5.05758
-5.06604
-5.07462
-5.08333
-5.17869
-5.18545
-5.1923
-5.19927
-5.30025
-5.3054
-5.31063
-5.31595
-5.42227
-5.42589
-5.42956
-5.4333
-5.54467
-5.54681
-5.54898
-5.5512
-5.66746
-5.66817
-5.66888
-5.66961
490.083
425.736
318.884
191.466
153.944
181.444
285.414
312.462
145.357
141.59
143.133
142.19
141.841
141.379
140.771
140.147
139.725
139.579
218.102
399.808
341.853
181.552
52.2827
0.260381
-35.3168
-10.6436
17.6237
90.8446
136.816
142.47
141.952
141.26
140.741
140.298
139.95
139.713
139.308
156.224
316.142
225.489
110.605
58.6276
-9.62534
-38.7936
89.4685
7.92828
78.0883
131.764
139.144
140.378
139.908
139.818
139.805
139.663
139.447
139.172
145.088
203.298
138.483
112.716
107.331
119.897
96.3215
67.3594
49.6287
78.5945
126.407
135.09
137.789
138.423
139.034
139.419
139.367
139.091
138.175
145.94
118.795
112.499
109.719
107.934
106.823
99.0912
80.4598
72.0122
90.3291
121.099
131.222
134.63
136.748
138.244
138.904
139.041
138.808
137.974
148.84
58.6848
103.456
108.132
107.264
105.938
103.13
97.5092
94.5084
103.001
117.119
126.233
130.956
134.308
135.454
137.226
138.458
138.382
139.337
146.942
16.8881
67.4842
107.235
107.264
106.329
104.336
101.955
101.746
105.844
112.838
120.337
126.322
121.729
97.91
108.602
132.039
136.582
139.56
147.436
3.59241
30.3641
89.6215
106.11
105.723
104.432
102.714
102.438
104.849
108.804
114.133
106.661
77.1031
25.3286
18.1242
84.9879
126.444
136.609
169.59
1.70378
5.16847
46.8531
97.4783
105.253
104.356
102.999
102.657
103.903
106.226
105.559
113.889
77.3593
-37.856
-75.8784
-38.3117
34.5176
95.3465
154.39
1.58857
2.34141
7.66535
58.0302
96.107
103.246
103.485
103.12
103.437
104.699
107.471
129.096
55.067
-70.2064
-88.4948
-73.9463
-24.0173
46.7038
111.837
1.41059
1.52584
4.16531
25.7627
58.534
96.8589
102.434
103.441
103.606
104.293
102.016
61.9823
18.4101
-69.5358
-70.9068
-42.0464
2.00286
64.4003
111.267
1.09468
1.37101
2.04292
5.49055
18.887
67.4303
94.3657
75.0103
74.9988
79.3507
19.9583
17.4306
6.24593
-41.2877
-57.8247
-31.2177
27.9561
96.6667
135.84
0.324692
0.383947
-1.07731
-13.9459
-2.06312
24.0441
43.0273
46.5581
37.6384
5.29554
1.34607
1.32953
-2.04748
-11.3351
-11.9921
5.99837
55.9964
115.082
136.894
-0.821265
-1.83565
0.483839
22.7784
22.3676
18.0158
16.704
7.89074
-2.33646
-4.04967
-2.98043
-2.96726
-3.83607
-5.6779
1.48018
37.2305
90.7389
107.274
94.3731
-3.11612
-5.62869
-5.40486
-4.92811
-4.5935
-0.844893
3.96063
-2.0368
-4.95298
-4.56514
-4.17399
-4.44818
-4.74003
-5.17599
-5.31498
-1.55784
18.5784
34.6937
20.0441
-4.92946
-5.8878
-5.59706
-4.95807
-4.51074
-4.30186
-4.33792
-4.82634
-5.01844
-5.12482
-5.16045
-5.34859
-5.395
-5.38931
-5.11173
-3.79785
-0.69504
1.37892
17.0418
-5.25759
-5.74174
-5.49843
-4.8469
-4.41196
-4.24519
-4.289
-4.53007
-4.95811
-5.50186
-5.85899
-5.96857
-5.88926
-5.64366
-5.21772
-4.64278
-3.26081
3.1892
41.1787
-4.64342
-5.1983
-5.10768
-4.69159
-4.35806
-4.2361
-4.2916
-4.51104
-4.93053
-5.58756
-6.00721
-6.14056
-6.06173
-5.80144
-5.40158
-5.00596
-3.67094
0.973217
15.101
-4.03444
-4.51719
-4.60108
-4.48508
-4.33857
-4.29174
-4.36852
-4.56874
-4.92918
-5.43628
-5.82202
-5.99253
-5.9393
-5.72164
-5.343
-5.0918
-4.57613
-1.41157
7.8724
-3.74806
-4.11571
-4.29598
-4.33334
-4.32299
-4.34256
-4.42621
-4.59423
-4.86351
-5.21072
-5.50805
-5.65415
-5.61667
-5.43624
-5.12461
-4.93766
-4.53716
-2.85623
-0.490342
-3.68046
-3.95786
-4.14316
-4.24171
-4.2982
-4.35663
-4.44031
-4.56808
-4.75231
-4.9771
-5.17188
-5.26734
-5.21552
-5.04184
-4.76971
-4.64881
-4.18372
-3.38881
-2.84957
-3.68699
-3.90359
-4.07252
-4.19059
-4.27594
-4.34908
-4.43053
-4.53286
-4.65986
-4.80143
-4.92155
-4.96484
-4.88927
-4.70457
-4.45683
-4.34202
-3.945
-4.11774
-1.11992
-3.72413
-3.89951
-4.04957
-4.16893
-4.26432
-4.3469
-4.4281
-4.51561
-4.61093
-4.70581
-4.77685
-4.78693
-4.70115
-4.51814
-4.29492
-4.14078
-3.98511
-4.05444
-3.61865
-3.78296
-3.92774
-4.05834
-4.17007
-4.26519
-4.34951
-4.42932
-4.50898
-4.58815
-4.65893
-4.70473
-4.7009
-4.62102
-4.45977
-4.26861
-4.12636
-4.0554
-4.07663
-3.6537
-3.85597
-3.9769
-4.08939
-4.19012
-4.27978
-4.36165
-4.4394
-4.51494
-4.58568
-4.64384
-4.67751
-4.6699
-4.60094
-4.46786
-4.31149
-4.22762
-4.13489
-4.23952
-3.67533
-3.93842
-4.0405
-4.13715
-4.22618
-4.308
-4.38515
-4.46054
-4.53423
-4.60098
-4.65285
-4.68089
-4.67256
-4.61106
-4.49447
-4.35293
-4.27005
-4.22679
-4.30781
-4.11645
-4.02801
-4.11489
-4.1979
-4.27558
-4.3486
-4.41983
-4.49298
-4.5665
-4.63187
-4.68131
-4.70747
-4.69859
-4.63918
-4.52699
-4.38332
-4.27366
-4.25204
-4.16429
-3.73377
-4.12324
-4.19772
-4.26909
-4.3363
-4.40035
-4.4653
-4.53678
-4.6112
-4.67649
-4.72606
-4.7533
-4.74445
-4.68463
-4.57164
-4.41576
-4.28793
-4.23234
-4.27111
-5.77393
-4.22309
-4.28745
-4.34909
-4.40711
-4.46275
-4.5217
-4.59182
-4.66681
-4.73185
-4.78351
-4.81457
-4.80731
-4.74996
-4.64203
-4.47708
-4.32837
-4.14576
-4.50333
-6.00652
-4.32676
-4.38293
-4.43673
-4.48725
-4.53571
-4.58882
-4.65631
-4.72961
-4.79329
-4.84812
-4.88499
-4.88125
-4.83516
-4.75054
-4.59534
-4.51387
-4.18303
-5.89168
-14.9164
-4.43344
-4.48302
-4.53076
-4.57581
-4.61895
-4.66623
-4.72764
-4.79509
-4.85525
-4.91135
-4.95457
-4.96569
-4.94113
-4.90618
-4.82884
-4.75846
-4.76354
-7.08381
8.90934
-4.54231
-4.58643
-4.62945
-4.67078
-4.71072
-4.75284
-4.80425
-4.86105
-4.91414
-4.96617
-5.01026
-5.03202
-5.04397
-5.08538
-5.13363
-5.18237
-5.31283
-5.33376
-5.15303
-4.65251
-4.69178
-4.73065
-4.76889
-4.80659
-4.84464
-4.88595
-4.92962
-4.97195
-5.01427
-5.05453
-5.08866
-5.12909
-5.22032
-5.36361
-5.61203
-5.86089
-6.10132
-5.34569
-4.76334
-4.79797
-4.83262
-4.86723
-4.90201
-4.93661
-4.9712
-5.00447
-5.03596
-5.06834
-5.10451
-5.14783
-5.20176
-5.29125
-5.4138
-5.60999
-5.68884
-5.92345
-5.17519
-4.87449
-4.90451
-4.93471
-4.96502
-4.9955
-5.02643
-5.05668
-5.08478
-5.11052
-5.13626
-5.16793
-5.20978
-5.26019
-5.32267
-5.38341
-5.45074
-5.42796
-5.61691
-4.83335
-4.98599
-5.01146
-5.03716
-5.06297
-5.089
-5.1154
-5.14168
-5.16688
-5.18988
-5.21139
-5.23747
-5.27136
-5.30896
-5.3463
-5.3725
-5.39835
-5.34436
-5.4613
-4.52972
-5.09811
-5.1192
-5.14052
-5.162
-5.18374
-5.20574
-5.22789
-5.24935
-5.26958
-5.28918
-5.31059
-5.33532
-5.36026
-5.38238
-5.39592
-5.42001
-5.41004
-5.42969
-5.36706
-5.21109
-5.22802
-5.24518
-5.2625
-5.28026
-5.29823
-5.31651
-5.33435
-5.3514
-5.3685
-5.38665
-5.40504
-5.42095
-5.43499
-5.44226
-5.46681
-5.46475
-5.46631
-5.4341
-5.32497
-5.33796
-5.3512
-5.36478
-5.37858
-5.39278
-5.40743
-5.42191
-5.43622
-5.45102
-5.46666
-5.48104
-5.4923
-5.50341
-5.50842
-5.53395
-5.52596
-5.5382
-5.50473
-5.43965
-5.44884
-5.45829
-5.46806
-5.4782
-5.48889
-5.5002
-5.51177
-5.52386
-5.53669
-5.55027
-5.56253
-5.57275
-5.58324
-5.59013
-5.61549
-5.61001
-5.63478
-5.59398
-5.55497
-5.56045
-5.56612
-5.57213
-5.5787
-5.58602
-5.59423
-5.6032
-5.61323
-5.62425
-5.63603
-5.64728
-5.65835
-5.67006
-5.68225
-5.70581
-5.70832
-5.73313
-5.7177
-5.67085
-5.67267
-5.67459
-5.67674
-5.67953
-5.68332
-5.6883
-5.69463
-5.70252
-5.7116
-5.72165
-5.73184
-5.74441
-5.75931
-5.77953
-5.80658
-5.81458
-5.84227
-5.81827
)
;

boundaryField
{
    leftWall
    {
        type            calculated;
        value           nonuniform List<scalar> 
50
(
500.069
440.856
380.739
320.284
260.035
199.945
140.059
78.3007
24.4221
1.7369
1.23715
0.891563
0.674083
0.486387
0.308272
0.135149
-0.0370522
-0.209275
-0.381809
-0.555102
-0.729426
-0.90474
-1.08097
-1.25801
-1.43568
-1.61375
-1.79196
-1.97006
-2.14781
-2.32499
-2.50143
-2.67696
-2.85141
-3.02471
-3.19678
-3.36758
-3.53709
-3.70533
-3.87231
-4.03809
-4.20273
-4.36633
-4.52897
-4.69076
-4.8518
-5.01219
-5.17207
-5.33157
-5.49074
-5.64972
)
;
    }
    rightWall
    {
        type            calculated;
        value           nonuniform List<scalar> 
50
(
1154.56
1095.85
1028.57
941.964
827.243
680.578
517.971
370.696
218.102
156.224
145.088
145.94
148.84
146.942
147.436
169.59
154.39
111.837
111.267
135.84
136.894
94.3731
20.0441
17.0418
41.1787
15.101
7.8724
-0.490342
-2.84957
-1.11992
-3.61865
-3.6537
-3.67533
-4.11645
-3.73377
-5.77393
-6.00652
-14.9164
8.90934
-5.15303
-5.34569
-5.17519
-4.83335
-4.52972
-5.36706
-5.4341
-5.50473
-5.59398
-5.7177
-5.81827
)
;
    }
    lowerWall
    {
        type            calculated;
        value           nonuniform List<scalar> 
62
(
529.499
528.614
530.048
534.531
543.836
558.761
578.461
599.428
619.661
639.887
660.806
682.423
704.342
726.136
747.463
767.728
785.901
802.093
811.834
812.648
817.8
840.764
874.124
844.718
780.685
718.459
662.391
612.256
563.506
512.793
466.22
489.425
511.457
532.234
545.382
862.148
784.237
683.653
648.879
638.744
622.422
592.851
550.418
882.882
822.959
930.027
1091.41
1226.91
1304.63
1424.38
1483.13
1187.6
693.836
404.438
307.124
291.097
295.354
329.705
498.116
865.678
1187.57
1182.29
)
;
    }
    atmosphere
    {
        type            calculated;
        value           nonuniform List<scalar> 
46
(
-5.72904
-5.72904
-5.72904
-5.72904
-5.72904
-5.72904
-5.72904
-5.72904
-5.72904
-5.72904
-5.72904
-5.72904
-5.72904
-5.72904
-5.72904
-5.72904
-5.72904
-5.72904
-5.72904
-5.72904
-5.72904
-5.72904
-5.72904
-5.72904
-5.72904
-5.72904
-5.72904
-5.72904
-5.72904
-5.72904
-5.7291
-5.72984
-5.73178
-5.73496
-5.73996
-5.74681
-5.75464
-5.76365
-5.77236
-5.78595
-5.80252
-5.82871
-5.8649
-5.86927
-5.93275
-5.85079
)
;
    }
    defaultFaces
    {
        type            empty;
    }
}


// ************************************************************************* //
