/*--------------------------------*- C++ -*----------------------------------*\
| =========                 |                                                 |
| \\      /  F ield         | OpenFOAM: The Open Source CFD Toolbox           |
|  \\    /   O peration     | Version:  5.x                                   |
|   \\  /    A nd           | Web:      www.OpenFOAM.org                      |
|    \\/     M anipulation  |                                                 |
\*---------------------------------------------------------------------------*/
FoamFile
{
    version     2.0;
    format      ascii;
    class       volScalarField;
    location    "0.65";
    object      p_rgh;
}
// * * * * * * * * * * * * * * * * * * * * * * * * * * * * * * * * * * * * * //

dimensions      [1 -1 -2 0 0 0 0];

internalField   nonuniform List<scalar> 
2268
(
529.499
528.614
530.048
534.531
543.836
558.761
578.461
599.428
619.661
639.887
660.806
682.423
704.342
726.136
747.463
767.728
785.901
802.093
811.834
812.648
817.8
840.764
874.124
529.144
527.798
529.059
533.421
542.547
557.437
577.465
598.846
619.307
639.632
660.56
682.198
704.181
726.039
747.388
767.729
786.276
803.03
814.823
811.459
811.702
829.002
868.858
527.886
526.23
527.488
531.441
540
554.694
575.389
597.679
618.644
639.174
660.272
682.029
704.061
725.93
747.202
767.345
786.024
803.104
819.029
820.152
802.543
819.241
865.606
526.289
524.31
525.384
528.616
536.218
550.603
572.379
596.077
617.826
638.637
659.919
681.839
703.993
725.97
747.33
767.364
785.974
803.146
818.164
826.142
807.53
820.507
868.386
524.899
522.442
523.075
525.329
531.661
546.116
569.292
594.35
616.893
638.086
659.597
681.69
703.991
726.156
747.787
767.8
786.413
803.674
818.747
829.41
826.104
841.618
877.121
523.668
521.019
520.597
521.662
528.124
543.055
566.914
592.55
615.502
637.342
659.35
681.618
704.069
726.46
748.563
768.532
787.203
804.648
820.367
833.74
844.308
856.039
887.229
522.64
521.412
519.254
520.422
526.432
541.695
565.165
590.227
613.058
635.852
658.831
681.582
704.262
726.908
749.72
769.531
788.251
805.822
822.164
837.41
851.82
866.887
895.374
511.229
496.374
481.011
470.826
478.001
500.118
544.191
586.034
609.898
633.911
658.189
681.487
704.546
727.78
750.708
770.728
789.542
807.181
823.991
840.55
857.737
876.491
907.656
882.882
822.959
930.027
1091.41
1226.91
1304.63
1424.38
1483.13
1187.6
693.836
404.438
307.124
291.097
295.354
329.705
498.116
865.678
1187.57
1182.29
851.054
770.11
895.621
1074.49
1204.48
1282.03
1429.76
1495.38
1058.27
455.934
262.406
251.065
258.394
273.268
307.591
436.591
766.972
1150.09
1184.13
774.625
729.645
862.986
1051.83
1173.99
1253.26
1448.95
1443.63
575.012
188.909
153.73
158.954
163.588
171.508
190.234
252.675
512.776
1038.59
1175.71
676.555
709.708
840.206
1018.86
1133.61
1212.34
1440.94
1247.85
266.295
143.656
142.557
144.283
145.049
145.139
144.227
148.084
243.983
762.216
1147.97
690.267
740.769
831.02
978.889
1081.07
1153.76
1407.62
1005.84
161.223
141.573
142.486
144.277
145.748
145.563
145.565
141.656
172.176
439.102
1092.11
872.693
823.305
831.632
932.091
1010
1075.18
1338.36
1004.98
168.848
146.21
147.176
146.634
145.185
144.422
144.193
141.885
151.093
272.953
998.331
975.433
875.844
837.682
880.743
913.451
967.42
1226.88
1067.1
211.631
150.03
149.374
143.605
142.707
142.401
142.24
140.994
141.161
201.34
846.835
991.859
906.618
844.566
823.482
742.082
740.517
1059.38
1026.05
236.312
148.47
144.704
142.657
142.707
142.333
141.746
140.892
139.81
176.005
738.431
220.614
196.552
181.94
191.787
219.694
274.752
355.365
444.523
528.92
601.062
656.553
681.071
705.177
729.447
753.167
773.139
791.808
809.249
826.518
844.387
864.04
888.84
925.742
2.39557
2.01005
5.30583
25.758
48.2306
62.0786
65.7946
80.5242
130.771
217.203
337.055
464.161
559.257
652.132
750.222
778.441
796.102
812.211
828.598
846.919
868.159
896.157
937.605
2.02101
1.84411
1.72089
1.71477
1.64965
1.58359
1.57174
1.61706
1.66231
1.66779
2.64449
40.7417
96.7476
178.427
290.325
434.656
536.616
596.923
676.407
751.046
795.168
835.612
906.281
1.80061
1.67091
1.56982
1.59559
1.58456
1.52457
1.50978
1.56273
1.63443
1.69776
1.76986
1.80653
1.89427
1.99106
2.05961
2.14516
17.0415
37.1021
63.6904
113.331
168.87
230.102
379.923
1.70833
1.6416
1.59574
1.61079
1.58859
1.53717
1.52922
1.56538
1.62029
1.67458
1.72721
1.79103
1.87543
1.95373
2.0331
2.1111
2.1862
2.2715
2.33758
2.37727
2.36242
2.56515
74.0136
1.64583
1.63036
1.60252
1.58512
1.57205
1.55854
1.56615
1.59527
1.63388
1.67884
1.72935
1.78519
1.85765
1.92936
1.98429
2.03962
2.11948
2.21325
2.30199
2.42045
2.63239
5.40056
17.2722
1.59291
1.59055
1.57345
1.56013
1.55477
1.55463
1.56476
1.58676
1.6174
1.65299
1.69617
1.7477
1.80624
1.86819
1.93613
2.00137
2.07537
2.15838
2.23252
2.29442
2.69797
3.28053
3.38991
1.54498
1.54239
1.53525
1.53166
1.53118
1.53471
1.54692
1.56863
1.59782
1.63141
1.6697
1.71248
1.76075
1.81497
1.87376
1.93504
2.00306
2.07915
2.15843
2.24451
2.60048
3.05274
3.21516
1.49797
1.49714
1.49449
1.49457
1.49737
1.50391
1.51677
1.5361
1.56087
1.5904
1.62508
1.66476
1.70964
1.75936
1.81342
1.87039
1.93145
1.9983
2.07227
2.15479
2.34828
2.8876
3.13839
1.45094
1.45125
1.45092
1.45271
1.45753
1.46561
1.47825
1.49584
1.51825
1.54531
1.57649
1.61155
1.65097
1.69483
1.74194
1.7927
1.84759
1.90748
1.97476
2.05213
2.19406
2.71244
2.77518
1.4036
1.4041
1.40541
1.4084
1.41428
1.4225
1.43469
1.45082
1.47094
1.49479
1.52206
1.55281
1.587
1.62457
1.66519
1.70887
1.75652
1.80907
1.86927
1.93933
2.11774
2.52629
2.27797
1.35551
1.35622
1.35843
1.36159
1.36769
1.37582
1.38691
1.40109
1.41838
1.4387
1.46201
1.48822
1.51719
1.54873
1.5827
1.61932
1.65931
1.7038
1.75618
1.81712
1.99526
2.41869
2.25432
1.30638
1.30722
1.30949
1.31301
1.31855
1.32594
1.33561
1.34763
1.3621
1.37898
1.39815
1.41944
1.44271
1.46779
1.49458
1.52326
1.55431
1.58852
1.62873
1.67586
1.75721
2.20897
2.37702
1.25626
1.25713
1.25925
1.26252
1.26733
1.27363
1.28165
1.29142
1.30299
1.31626
1.3311
1.34734
1.36478
1.3832
1.40238
1.42225
1.44286
1.4643
1.48711
1.51137
1.52989
1.79348
2.15378
1.20522
1.20602
1.20781
1.21056
1.21446
1.21947
1.2257
1.23312
1.2417
1.25132
1.26181
1.27297
1.2845
1.29609
1.30736
1.31787
1.32707
1.33425
1.33777
1.33455
1.31836
1.31384
1.82451
1.15338
1.15403
1.15539
1.15747
1.16035
1.16396
1.16833
1.17338
1.17899
1.18502
1.19124
1.19737
1.20304
1.20779
1.21103
1.21197
1.20947
1.20196
1.18649
1.15701
1.10544
1.02482
1.33421
1.1009
1.10136
1.10225
1.1036
1.1054
1.10758
1.11009
1.1128
1.11555
1.11812
1.12024
1.12154
1.12156
1.1197
1.11516
1.10681
1.09307
1.07161
1.03867
0.987091
0.905509
0.784652
0.63225
1.04802
1.04826
1.04867
1.04927
1.05
1.05078
1.05149
1.05196
1.052
1.05133
1.04961
1.04641
1.04119
1.03322
1.02153
1.00477
0.981038
0.947599
0.900223
0.832005
0.731183
0.581405
0.342379
0.995006
0.995021
0.994962
0.994814
0.994512
0.993942
0.992963
0.991371
0.988917
0.985286
0.98009
0.972848
0.96295
0.949595
0.931707
0.907822
0.875943
0.833291
0.775691
0.697129
0.588047
0.434349
0.216195
0.942101
0.941893
0.941384
0.940529
0.939262
0.937451
0.934931
0.931473
0.926797
0.920552
0.912316
0.901576
0.887687
0.869816
0.846866
0.817369
0.779406
0.730546
0.666805
0.583984
0.474324
0.328309
0.135997
0.889547
0.889114
0.888196
0.886693
0.884551
0.881627
0.877741
0.87265
0.866053
0.857578
0.846786
0.833151
0.816022
0.794577
0.767778
0.734199
0.692017
0.64013
0.573609
0.489919
0.384068
0.25001
0.0821865
0.837562
0.836899
0.835629
0.833551
0.83064
0.826745
0.821686
0.815214
0.807013
0.796707
0.783857
0.767956
0.748357
0.724269
0.694861
0.658802
0.614499
0.560471
0.494011
0.412598
0.313095
0.191912
0.0462422
0.786314
0.785458
0.783905
0.781322
0.777758
0.773039
0.767003
0.75941
0.749925
0.738179
0.723753
0.706219
0.684935
0.659102
0.628003
0.590564
0.545512
0.491502
0.426754
0.349406
0.25751
0.149098
0.0231431
0.735978
0.734939
0.733222
0.730183
0.726088
0.720692
0.713867
0.705433
0.694982
0.682169
0.666665
0.647993
0.625596
0.598826
0.566987
0.52923
0.484564
0.431918
0.370072
0.297777
0.213888
0.117437
0.00835983
0.686724
0.6856
0.683584
0.680266
0.675766
0.669872
0.662467
0.653341
0.642196
0.628705
0.612521
0.593225
0.570327
0.543274
0.511466
0.474233
0.430824
0.380426
0.322222
0.255428
0.179433
0.0938693
-0.000882466
0.638622
0.637416
0.635226
0.631683
0.626882
0.620632
0.612819
0.60325
0.591674
0.577804
0.561306
0.541818
0.518917
0.492132
0.460968
0.424901
0.383367
0.335787
0.281631
0.220446
0.151964
0.0761713
-0.00636884
0.591745
0.590475
0.588185
0.584492
0.5795
0.57303
0.564981
0.555182
0.543418
0.529438
0.512946
0.493625
0.471118
0.445035
0.414978
0.380542
0.34131
0.296884
0.246942
0.191259
0.129774
0.0626658
-0.00945321
0.546139
0.544821
0.542487
0.538723
0.533648
0.527088
0.518966
0.509128
0.497393
0.48354
0.467319
0.44846
0.426664
0.401615
0.373
0.340512
0.303851
0.26275
0.217029
0.166609
0.111553
0.0521284
-0.0110691
0.50182
0.500466
0.498144
0.494382
0.489322
0.482792
0.474746
0.465039
0.453521
0.440004
0.424277
0.406118
0.385282
0.361517
0.334582
0.304248
0.270305
0.23258
0.190985
0.145526
0.0963383
0.0437178
-0.0117954
0.458782
0.457406
0.455144
0.451446
0.446491
0.440103
0.432263
0.422836
0.411699
0.398693
0.383649
0.366385
0.346703
0.324408
0.299315
0.27126
0.240095
0.205717
0.168095
0.127284
0.0834465
0.0368723
-0.0119716
0.416996
0.415617
0.413453
0.409872
0.405101
0.398952
0.391431
0.382414
0.371799
0.359457
0.345253
0.329039
0.310662
0.289972
0.266831
0.241118
0.212736
0.181631
0.147807
0.111341
0.0723941
0.0312292
-0.0117663
0.376411
0.375068
0.373016
0.369601
0.365079
0.35925
0.352147
0.343648
0.333676
0.322127
0.308892
0.293854
0.276897
0.257909
0.236786
0.213443
0.18782
0.159895
0.129692
0.097295
0.0628461
0.0265677
-0.0112279
0.336958
0.335693
0.33376
0.330556
0.326335
0.320895
0.314291
0.3064
0.297173
0.286522
0.274361
0.2606
0.245151
0.227929
0.208862
0.187894
0.164991
0.14015
0.113406
0.0848319
0.054552
0.0227471
-0.0103379
0.298554
0.297393
0.295595
0.29264
0.288765
0.283771
0.277733
0.270526
0.262124
0.252455
0.241451
0.229042
0.215162
0.199752
0.182762
0.164158
0.143925
0.122072
0.0986321
0.0736702
0.0472957
0.0196508
-0.00908154
0.261107
0.260071
0.258425
0.255746
0.252256
0.247755
0.242336
0.235872
0.22836
0.219736
0.209949
0.198946
0.18668
0.173108
0.158199
0.141935
0.124314
0.105349
0.0850733
0.063548
0.0408669
0.017134
-0.00751791
0.224513
0.223634
0.222148
0.219771
0.216692
0.21272
0.20796
0.202286
0.195714
0.188183
0.179658
0.170099
0.159472
0.147747
0.134908
0.120949
0.105874
0.0897012
0.0724645
0.0542192
0.0350402
0.0150012
-0.00579866
0.188674
0.187976
0.186663
0.184607
0.181959
0.178548
0.17448
0.169632
0.164036
0.157632
0.150397
0.142302
0.133323
0.123443
0.112653
0.100956
0.0883607
0.0748883
0.060569
0.0454496
0.0295886
0.0130408
-0.00411772
0.153479
0.152973
0.151845
0.150129
0.147932
0.145107
0.141757
0.137762
0.133165
0.127908
0.121979
0.115358
0.108028
0.099982
0.0912144
0.0817324
0.0715511
0.0606862
0.0491644
0.0370248
0.0243141
0.0110734
-0.00264309
0.118792
0.11848
0.117548
0.116185
0.114462
0.11224
0.109626
0.106502
0.102916
0.0988189
0.0942067
0.0890662
0.0833828
0.0771518
0.0703771
0.0630664
0.0552344
0.0468926
0.0380631
0.0287765
0.0190725
0.00897717
-0.00147883
0.0844863
0.0843703
0.0836449
0.0826532
0.081417
0.0798136
0.077945
0.075703
0.0731391
0.0702106
0.0669202
0.0632565
0.0592097
0.0547773
0.0499687
0.0447918
0.039252
0.033359
0.0271314
0.0205934
0.0137741
0.00668657
-0.000655231
0.050509
0.0505395
0.0500409
0.0494432
0.0486989
0.0477311
0.0466132
0.0452595
0.0437249
0.0419694
0.0399993
0.0378056
0.0353844
0.0327372
0.0298698
0.0267883
0.0234907
0.0199861
0.0162906
0.0124222
0.00839132
0.00420031
-0.000140386
0.016724
0.0168515
0.0166497
0.0164508
0.0162021
0.0158734
0.0155049
0.0150468
0.014539
0.0139541
0.0132982
0.0125674
0.0117613
0.0108821
0.00993156
0.00891158
0.00782096
0.00666429
0.0054481
0.00417799
0.00285355
0.00147697
5.3492e-05
960.247
982.3
1003.1
1016.25
977.109
1002.56
1025.93
1043.79
975.195
1019.98
1056.06
1076.86
708.29
938.335
947.289
723.169
399.226
524.607
537.813
445.676
19.4529
19.7333
85.8534
210.97
3.64279
4.4156
7.92975
61.835
3.12078
3.22061
4.16149
8.16504
2.98385
3.04122
3.47256
4.48718
2.68974
2.90546
3.17368
3.60347
2.49279
2.6952
2.94713
3.25077
2.33532
2.48189
2.67787
2.9132
2.06836
2.12863
2.22725
2.4104
1.74827
1.67935
1.75967
2.11377
1.78888
1.5879
1.28505
2.20673
1.22407
0.492269
0.412563
4.30127
0.32421
-0.0686931
-0.0354778
2.24615
0.0429548
-0.232359
-0.480081
-0.971636
-0.0266827
-0.220608
-0.45468
-0.72956
-0.0529703
-0.191097
-0.34587
-0.518274
-0.0729712
-0.182248
-0.299518
-0.42425
-0.0825178
-0.171134
-0.263863
-0.359907
-0.0836261
-0.155783
-0.230243
-0.306496
-0.0812032
-0.140972
-0.202146
-0.264395
-0.0768893
-0.127162
-0.178333
-0.230174
-0.0714284
-0.114178
-0.15752
-0.201287
-0.0655549
-0.102238
-0.139316
-0.17666
-0.0597488
-0.0914609
-0.12344
-0.155579
-0.0542504
-0.0818337
-0.109608
-0.137481
-0.0491445
-0.0732587
-0.0975301
-0.121879
-0.0443966
-0.0655564
-0.0868716
-0.108273
-0.0398796
-0.0584708
-0.0772326
-0.0961094
-0.0354181
-0.0517112
-0.0681906
-0.0848163
-0.0308704
-0.0450429
-0.0594046
-0.0739306
-0.026214
-0.0383838
-0.0507303
-0.0632399
-0.0215667
-0.0318302
-0.0422459
-0.0528105
-0.0171142
-0.0255696
-0.0341515
-0.0428625
-0.0130263
-0.0197807
-0.0266384
-0.0336022
-0.00939515
-0.0145446
-0.0197738
-0.0250862
-0.00621587
-0.00983187
-0.013507
-0.017244
-0.00342443
-0.00556031
-0.0077356
-0.00995029
-0.00102219
-0.00172299
-0.00243744
-0.00316648
1023.55
959.173
852.054
642.333
349.113
362.698
727.025
817.386
438.206
167.833
144.034
142.952
142.61
142.205
141.498
140.864
140.442
167.629
664.833
1058.43
1000.15
785.844
140.934
91.6704
145.09
568.576
627.471
644.107
221.432
143.433
142.852
142.338
141.983
141.306
140.836
140.599
163.305
695.311
1037.49
848.099
233.398
87.193
122.71
376.208
502.921
542.106
553.611
195.016
141.045
141.428
140.974
141.19
140.863
140.718
140.501
165.232
774.299
526.649
237.43
114.154
151.817
308.206
282.752
74.4396
125.312
141.64
137.033
136.404
139.007
139.641
140.382
140.682
140.594
140.313
158.094
856.51
274.14
114.592
111.222
109.221
108.37
100.799
86.0259
75.3749
94.0416
122.775
132.754
136.016
138.28
140.679
140.77
140.518
140.206
145.004
932.177
278.618
292.362
109.574
108.649
107.318
105.91
101.039
96.4106
105.124
119.276
128.114
132.706
138.599
174.603
148.825
140.982
140.069
141.89
1015.03
249.256
414.956
238.316
108.794
107.83
105.927
103.579
103.31
107.613
115.201
122.727
136.215
356.67
816.498
626.497
282.93
139.411
170.151
1155.36
109.726
428.033
492.195
136.005
107.357
106.042
104.314
104.041
106.532
110.745
132.248
570.381
1154.64
1250.34
1242.83
1038.2
254.506
379.631
1333.65
14.2892
281.769
507.663
508.942
110.059
106.098
104.731
104.389
105.699
108.103
430.149
1286.82
1411.15
1295.94
1257.91
1281.86
879.865
755.27
1443.46
4.76234
57.1327
438.279
559.802
546.811
151.84
105.358
104.994
105.31
130.302
813.702
1196.61
1428.78
1372.37
1222.32
633.987
829.242
815.218
1371.54
3.8039
4.97216
72.1998
474.148
591.712
533.156
184.24
105.455
106.033
539.919
716.362
98.3363
537.42
1473.77
1157.63
549.262
593.311
655.708
1235.47
3.29495
3.9373
6.32654
24.7228
286.654
901.081
1158.07
1037.28
1067.54
1066.61
254.088
24.4921
188.714
1476.38
1547.38
1208.96
837.656
1489.88
1887.01
2.93901
4.2798
42.3289
608.727
1188.54
1278.72
1297.7
1301.23
1288.63
402.265
3.58428
3.95613
3.91152
413.767
1663.53
1947.58
2062.89
2147.95
2172.7
3.22188
6.65092
193.009
985.989
1298.15
1349.03
1348.54
1146.54
156.257
-1.67989
-0.802939
-0.79031
-1.59597
-3.01344
287.672
1272.61
1873.93
2168.59
2224.57
14.4404
21.1027
-2.53712
-2.63723
-2.29304
132.189
313.735
168.745
-2.19945
-2.26126
-1.88494
-2.1586
-2.44415
-2.86326
-2.79363
1.96066
303.204
998.765
1784.16
11.0902
1.44324
-3.1817
-2.54398
-2.09441
-1.87542
-1.85572
-2.25641
-2.55544
-2.71014
-2.74638
-2.93435
-2.98037
-2.96786
-2.6535
-1.13574
3.01176
68.3623
1513.73
0.181869
-3.20098
-2.958
-2.30949
-1.85453
-0.98549
-0.917275
-1.91126
-2.41205
-2.96244
-3.31956
-3.42916
-3.34966
-3.10339
-2.66489
-2.00165
0.047731
69.2489
611.381
-1.91575
-2.46596
-2.43527
-2.02968
-1.69621
-1.55038
-1.45913
-1.7733
-2.20541
-2.92231
-3.34247
-3.47573
-3.39631
-3.13665
-2.73665
-2.32221
0.815204
16.1487
17.7628
-1.23865
-1.70351
-1.80518
-1.69798
-1.55158
-1.50475
-1.58143
-1.78057
-2.12359
-2.59652
-2.98188
-3.17903
-3.14419
-2.93183
-2.55287
-2.08813
15.6093
12.1087
24.7038
-0.834942
-1.20214
-1.38324
-1.42114
-1.41082
-1.43037
-1.51402
-1.68196
-1.95112
-2.24533
-2.51941
-2.666
-2.67563
-2.52264
-2.20645
-2.01867
19.9049
17.8836
807.591
-0.643015
-0.920457
-1.10579
-1.20435
-1.26084
-1.31918
-1.40276
-1.53054
-1.71475
-1.93764
-2.10161
-2.18231
-2.16048
-2.00421
-1.73207
-1.59765
22.3409
19.1894
1183.12
-0.524428
-0.741034
-0.909967
-1.02804
-1.11338
-1.18627
-1.2676
-1.36994
-1.49698
-1.63864
-1.75876
-1.80203
-1.72646
-1.54174
-1.29399
-1.17917
26.2091
26.3912
129.225
-0.43638
-0.611761
-0.761819
-0.881177
-0.976572
-1.05914
-1.14026
-1.22771
-1.32303
-1.41783
-1.48887
-1.49892
-1.41312
-1.23011
-1.00688
0.395498
11.5581
4.67685
-0.330904
-0.370014
-0.514797
-0.645396
-0.757124
-0.852242
-0.936568
-1.01637
-1.09603
-1.17521
-1.24569
-1.29059
-1.28685
-1.20755
-1.04652
-0.855315
2.00301
-0.337829
-0.604654
-0.240755
-0.317828
-0.438765
-0.551255
-0.651984
-0.741641
-0.8235
-0.901248
-0.976801
-1.04754
-1.10514
-1.13732
-1.12971
-1.06114
-0.929349
-0.773008
0.957289
-0.569363
-0.671029
-0.137199
-0.275092
-0.377163
-0.473819
-0.562844
-0.64467
-0.721781
-0.797144
-0.870851
-0.93764
-0.989513
-1.01568
-1.00709
-0.945592
-0.83003
-0.689157
-0.606235
-0.563158
-0.640962
-0.453118
-0.239482
-0.32636
-0.409374
-0.487054
-0.560071
-0.631266
-0.704394
-0.777907
-0.843312
-0.892769
-0.918283
-0.907866
-0.848458
-0.737537
-0.5939
-0.484577
-0.462899
-0.373409
0.0547505
-0.209522
-0.284
-0.35537
-0.422576
-0.486619
-0.551576
-0.62305
-0.697446
-0.762732
-0.812331
-0.839359
-0.829583
-0.770902
-0.654148
-0.494726
-0.373567
-0.317413
-0.240002
357.018
-0.18418
-0.248537
-0.310177
-0.368191
-0.423833
-0.482783
-0.5529
-0.627897
-0.692926
-0.744583
-0.775587
-0.768181
-0.711036
-0.597517
-0.430509
-0.287269
-0.100685
0.133442
1979.56
-0.162647
-0.218821
-0.27262
-0.323142
-0.371595
-0.424704
-0.492204
-0.565499
-0.629174
-0.683995
-0.720878
-0.717138
-0.671049
-0.581413
-0.425297
-0.300702
4.55155
7.489
2634.9
-0.144138
-0.193718
-0.241453
-0.286501
-0.329649
-0.376916
-0.438334
-0.505779
-0.565948
-0.62204
-0.665262
-0.676378
-0.651816
-0.612596
-0.512462
-0.430359
39.4926
121.627
957.635
-0.127813
-0.171932
-0.214949
-0.256285
-0.296221
-0.338146
-0.389307
-0.44648
-0.499635
-0.551643
-0.593976
-0.603316
-0.607534
-0.663701
-0.716421
-0.294382
61.0042
78.8239
-0.738534
-0.112815
-0.152084
-0.190953
-0.229198
-0.266903
-0.30471
-0.34354
-0.386572
-0.432255
-0.474299
-0.495857
-0.520887
-0.56131
-0.676235
-0.823784
0.567781
11.3135
-1.56055
-0.805995
-0.0984565
-0.133082
-0.167731
-0.202346
-0.237122
-0.271722
-0.30399
-0.334287
-0.36889
-0.402847
-0.4349
-0.468359
-0.525592
-0.625756
-0.74877
-0.305173
-1.02338
-1.25852
36.684
-0.0844073
-0.114427
-0.144631
-0.174943
-0.205417
-0.236347
-0.2666
-0.290383
-0.314783
-0.342307
-0.373483
-0.417249
-0.467485
-0.531412
-0.593167
-0.660623
-0.637858
-0.826814
162.547
-0.0707143
-0.0961852
-0.12188
-0.147698
-0.173727
-0.200127
-0.226405
-0.251605
-0.27266
-0.290494
-0.316235
-0.350139
-0.387731
-0.425748
-0.45693
-0.483053
-0.429062
-0.546008
70.9367
-0.0576419
-0.0787257
-0.100048
-0.12153
-0.143269
-0.165266
-0.187419
-0.208877
-0.22911
-0.24871
-0.269524
-0.291205
-0.316787
-0.341688
-0.355455
-0.379482
-0.369492
-0.389195
-0.326589
-0.0454258
-0.062351
-0.0795118
-0.0968347
-0.114598
-0.132562
-0.150842
-0.168684
-0.185733
-0.202831
-0.220983
-0.239373
-0.25529
-0.269323
-0.276593
-0.300656
-0.298586
-0.30063
-0.268434
-0.0341123
-0.0470988
-0.0603423
-0.0739221
-0.0877203
-0.101918
-0.11657
-0.131054
-0.145365
-0.160158
-0.175803
-0.190184
-0.20144
-0.212551
-0.217565
-0.242579
-0.234583
-0.247337
0.414373
-0.0235984
-0.0327913
-0.0422316
-0.0520015
-0.0621491
-0.0728365
-0.0841481
-0.0957122
-0.107809
-0.120637
-0.134218
-0.146471
-0.156698
-0.167184
-0.174075
-0.198966
-0.193849
-0.218726
3.37842
-0.0137201
-0.0191982
-0.024874
-0.0308812
-0.0374505
-0.0447732
-0.0529802
-0.0619562
-0.071981
-0.0829985
-0.0947843
-0.106032
-0.117107
-0.128811
-0.141003
-0.164564
-0.167075
-0.19188
2.40062
-0.00440757
-0.0062282
-0.00814441
-0.0102978
-0.0130868
-0.0168821
-0.0218552
-0.0281912
-0.036079
-0.0451589
-0.0552106
-0.0653924
-0.077967
-0.0928676
-0.113086
-0.140133
-0.148141
-0.175829
-0.151832
)
;

boundaryField
{
    leftWall
    {
        type            fixedFluxPressure;
        gradient        uniform 0;
        value           nonuniform List<scalar> 
50
(
529.499
529.144
527.886
526.289
524.899
523.668
522.64
511.229
220.614
2.39557
2.02101
1.80061
1.70833
1.64583
1.59291
1.54498
1.49797
1.45094
1.4036
1.35551
1.30638
1.25626
1.20522
1.15338
1.1009
1.04802
0.995006
0.942101
0.889547
0.837562
0.786314
0.735978
0.686724
0.638622
0.591745
0.546139
0.50182
0.458782
0.416996
0.376411
0.336958
0.298554
0.261107
0.224513
0.188674
0.153479
0.118792
0.0844863
0.050509
0.016724
)
;
    }
    rightWall
    {
        type            fixedFluxPressure;
        gradient        uniform 0;
        value           nonuniform List<scalar> 
50
(
1182.29
1184.13
1175.71
1147.97
1092.11
998.331
846.835
738.431
664.833
695.311
774.299
856.51
932.177
1015.03
1155.36
1333.65
1443.46
1371.54
1235.47
1887.01
2172.7
2224.57
1784.16
1513.73
611.381
17.7628
24.7038
807.591
1183.12
129.225
-0.330904
-0.240755
-0.137199
-0.453118
0.0547505
357.018
1979.56
2634.9
957.635
-0.738534
-0.805995
36.684
162.547
70.9367
-0.326589
-0.268434
0.414373
3.37842
2.40062
-0.151832
)
;
    }
    lowerWall
    {
        type            fixedFluxPressure;
        gradient        uniform 0;
        value           nonuniform List<scalar> 
62
(
529.499
528.614
530.048
534.531
543.836
558.761
578.461
599.428
619.661
639.887
660.806
682.423
704.342
726.136
747.463
767.728
785.901
802.093
811.834
812.648
817.8
840.764
874.124
874.124
868.858
865.606
868.386
877.121
887.229
895.374
907.656
960.247
982.3
1003.1
1016.25
882.882
851.054
774.625
676.555
690.267
872.693
975.433
991.859
882.882
822.959
930.027
1091.41
1226.91
1304.63
1424.38
1483.13
1187.6
693.836
404.438
307.124
291.097
295.354
329.705
498.116
865.678
1187.57
1182.29
)
;
    }
    atmosphere
    {
        type            totalPressure;
        rho             rho;
        psi             none;
        gamma           1;
        p0              uniform 0;
        value           nonuniform List<scalar> 
46
(
0
0
0
0
0
0
0
0
0
0
0
0
0
0
0
0
0
0
0
0
0
0
0
0
0
0
0
0
0
0
-6.03273e-05
-0.000802124
-0.00273964
-0.00591613
-0.0109224
-0.0177724
-0.0255964
-0.0346062
-0.04332
-0.0569143
-0.0734781
-0.0996658
-0.135863
-0.140229
-0.203708
-0.121751
)
;
    }
    defaultFaces
    {
        type            empty;
    }
}


// ************************************************************************* //
