/*--------------------------------*- C++ -*----------------------------------*\
| =========                 |                                                 |
| \\      /  F ield         | OpenFOAM: The Open Source CFD Toolbox           |
|  \\    /   O peration     | Version:  5.x                                   |
|   \\  /    A nd           | Web:      www.OpenFOAM.org                      |
|    \\/     M anipulation  |                                                 |
\*---------------------------------------------------------------------------*/
FoamFile
{
    version     2.0;
    format      ascii;
    class       volVectorField;
    location    "0.65";
    object      U;
}
// * * * * * * * * * * * * * * * * * * * * * * * * * * * * * * * * * * * * * //

dimensions      [0 1 -1 0 0 0 0];

internalField   nonuniform List<vector> 
2268
(
(-0.019581 0.00843861 0)
(-0.0581293 0.00912469 0)
(-0.0856424 0.00441258 0)
(-0.0919122 0.000870434 0)
(-0.0895543 -0.00228334 0)
(-0.0725117 -0.00587005 0)
(-0.0400697 -0.00888059 0)
(0.000131848 -0.00903396 0)
(0.0349623 -0.00652527 0)
(0.0568463 -0.00315664 0)
(0.0649651 0.000237809 0)
(0.059554 0.00312957 0)
(0.0451702 0.00528735 0)
(0.0250882 0.00697135 0)
(-7.76065e-05 0.00883752 0)
(-0.0314649 0.0118501 0)
(-0.0746018 0.0122828 0)
(-0.116429 0.00263611 0)
(-0.128955 0.000681782 0)
(-0.18629 0.0195527 0)
(-0.281525 0.0117234 0)
(-0.242674 -0.024756 0)
(-0.0871244 -0.0520321 0)
(-0.0308674 0.0277659 0)
(-0.0634995 0.0230288 0)
(-0.0798401 0.00973197 0)
(-0.0854738 0.00210944 0)
(-0.0874071 -0.00587893 0)
(-0.0744768 -0.0167821 0)
(-0.0433194 -0.0269244 0)
(-0.00165615 -0.0280309 0)
(0.0350235 -0.0204691 0)
(0.0580082 -0.0101888 0)
(0.0661312 -0.00113528 0)
(0.065855 0.00557759 0)
(0.0603548 0.0102371 0)
(0.0517094 0.0136781 0)
(0.040762 0.0173427 0)
(0.0267617 0.023553 0)
(0.00277259 0.0307423 0)
(-0.0408203 0.0294677 0)
(-0.0941236 0.0280607 0)
(-0.176088 0.045329 0)
(-0.240676 0.0185874 0)
(-0.169286 -0.0676398 0)
(-0.0562581 -0.130998 0)
(-0.0272635 0.0468525 0)
(-0.0456237 0.0337067 0)
(-0.0623244 0.0142631 0)
(-0.0731515 0.00561336 0)
(-0.0822222 -0.00616487 0)
(-0.0736777 -0.0261719 0)
(-0.0453007 -0.0453032 0)
(-0.00593224 -0.048059 0)
(0.0301314 -0.035027 0)
(0.0530929 -0.0172074 0)
(0.0609314 -0.00258058 0)
(0.0580671 0.00711327 0)
(0.0502796 0.0131219 0)
(0.0415607 0.0168572 0)
(0.0345847 0.0203835 0)
(0.0319488 0.0270367 0)
(0.0325881 0.0377051 0)
(0.0287767 0.0474222 0)
(-0.00177413 0.0555263 0)
(-0.0385578 0.0689541 0)
(-0.106739 0.0237564 0)
(-0.0656838 -0.0920183 0)
(-0.00531252 -0.171181 0)
(-0.0176872 0.0599633 0)
(-0.0212482 0.0420084 0)
(-0.0351818 0.0201684 0)
(-0.0470589 0.0115235 0)
(-0.0549415 -0.00474663 0)
(-0.0431924 -0.0351641 0)
(-0.0196828 -0.0618708 0)
(0.00606502 -0.0656477 0)
(0.0296349 -0.0481344 0)
(0.0462494 -0.0236339 0)
(0.0521991 -0.00333187 0)
(0.0487873 0.0099719 0)
(0.0403795 0.0174976 0)
(0.0310723 0.0209559 0)
(0.0240641 0.0227852 0)
(0.0219719 0.0267474 0)
(0.0259198 0.0346062 0)
(0.0422923 0.0474955 0)
(0.0516084 0.0621384 0)
(0.0705241 0.0815505 0)
(0.0442111 0.0419581 0)
(0.0493373 -0.0835308 0)
(0.0435903 -0.164802 0)
(-0.00479001 0.0649848 0)
(0.0108173 0.0438492 0)
(0.00816443 0.0256173 0)
(0.00509314 0.0153912 0)
(0.0127461 -0.00731286 0)
(0.0348948 -0.0430455 0)
(0.049068 -0.0703519 0)
(0.0490436 -0.0727657 0)
(0.0450551 -0.0531089 0)
(0.0431841 -0.0258701 0)
(0.0416008 -0.00302943 0)
(0.0370122 0.0128982 0)
(0.0293086 0.0217971 0)
(0.0211886 0.0248903 0)
(0.016168 0.024817 0)
(0.0157892 0.0263283 0)
(0.0192349 0.0299771 0)
(0.0334875 0.0381986 0)
(0.0574997 0.0487199 0)
(0.104083 0.0683196 0)
(0.129001 0.0433278 0)
(0.116346 -0.0664478 0)
(0.0783901 -0.129375 0)
(0.00948486 0.05695 0)
(0.0487141 0.0363142 0)
(0.0689626 0.0184928 0)
(0.0873312 0.00645716 0)
(0.120711 -0.016608 0)
(0.148815 -0.047372 0)
(0.144325 -0.0673589 0)
(0.112862 -0.0649777 0)
(0.0770226 -0.0448501 0)
(0.0495733 -0.0199744 0)
(0.0333831 0.000772054 0)
(0.0244611 0.0162059 0)
(0.0168536 0.0248669 0)
(0.0102365 0.0267101 0)
(0.00814849 0.0244342 0)
(0.0112424 0.0245769 0)
(0.017047 0.0263051 0)
(0.028536 0.0298496 0)
(0.0482713 0.031794 0)
(0.0888522 0.0408883 0)
(0.13908 0.0285205 0)
(0.127978 -0.0453859 0)
(0.098424 -0.0855785 0)
(0.0211645 0.0400022 0)
(0.0823055 0.0280685 0)
(0.147247 0.0128364 0)
(0.209094 -0.0048474 0)
(0.253388 -0.0260438 0)
(0.258652 -0.0442903 0)
(0.219984 -0.0516213 0)
(0.161431 -0.0432935 0)
(0.107212 -0.0244686 0)
(0.0634789 -0.00641013 0)
(0.0328756 0.00807836 0)
(0.0151251 0.0214098 0)
(0.0043245 0.0299371 0)
(-0.00188738 0.0306451 0)
(-0.000549406 0.0249787 0)
(0.00693246 0.0224745 0)
(0.0158197 0.0218468 0)
(0.0279973 0.0219225 0)
(0.045127 0.0193167 0)
(0.0689675 0.0176976 0)
(0.114701 0.0119874 0)
(0.115128 -0.0357965 0)
(0.112463 -0.055929 0)
(0.0357485 -0.00398952 0)
(0.16058 -0.0351484 0)
(0.254551 -0.0474804 0)
(0.303946 -0.0477275 0)
(0.309946 -0.0423385 0)
(0.27452 -0.032723 0)
(0.211871 -0.0242646 0)
(0.152213 -0.012794 0)
(0.106282 0.00467152 0)
(0.0706628 0.0190316 0)
(0.0419825 0.024629 0)
(0.0189854 0.0298301 0)
(0.000220871 0.0315689 0)
(-0.011621 0.0263312 0)
(-0.0105118 0.0175752 0)
(0.000273769 0.0161718 0)
(0.0120511 0.0174997 0)
(0.0261742 0.0169509 0)
(0.0450755 0.0131827 0)
(0.0644802 0.00678185 0)
(0.0886238 0.00425951 0)
(0.0946679 -0.0186765 0)
(0.0952331 0.0245451 0)
(-0.430514 0.092066 0)
(-0.604522 0.0206968 0)
(-0.508391 -0.0562091 0)
(-0.308623 -0.0871385 0)
(-0.0657516 -0.0766272 0)
(0.108471 -0.0718651 0)
(0.514239 -0.10844 0)
(0.582198 0.0360575 0)
(-0.382143 0.262436 0)
(-1.23068 0.227647 0)
(-1.58404 0.107532 0)
(-1.69471 0.0593465 0)
(-1.71377 0.0345332 0)
(-1.67283 0.0134432 0)
(-1.56633 -0.00328448 0)
(-1.34402 -0.0282657 0)
(-0.960687 -0.0812311 0)
(-0.449688 -0.126608 0)
(0.0383852 -0.0142189 0)
(-0.529132 0.266809 0)
(-0.487275 0.0577139 0)
(-0.264033 -0.104249 0)
(-0.109371 -0.134006 0)
(0.0733331 -0.143707 0)
(0.234601 -0.150658 0)
(0.616124 -0.112438 0)
(0.118536 0.3352 0)
(-1.3501 0.525051 0)
(-2.01783 0.208879 0)
(-2.07334 0.0237459 0)
(-2.03549 -0.0306355 0)
(-1.97082 -0.060029 0)
(-1.87836 -0.0933925 0)
(-1.7304 -0.12781 0)
(-1.50157 -0.175926 0)
(-1.14904 -0.28114 0)
(-0.651593 -0.369609 0)
(-0.12282 -0.115381 0)
(-0.335884 0.414581 0)
(-0.20927 0.0163996 0)
(-0.062344 -0.208073 0)
(0.0976743 -0.227415 0)
(0.266833 -0.221757 0)
(0.358265 -0.201993 0)
(0.601913 -0.00696997 0)
(-0.3538 0.734578 0)
(-1.78333 0.887923 0)
(-2.01147 0.456061 0)
(-2.08755 0.107864 0)
(-2.05451 0.0168226 0)
(-1.96939 -0.0508743 0)
(-1.96663 -0.134305 0)
(-1.95409 -0.230345 0)
(-1.76991 -0.3424 0)
(-1.35411 -0.515993 0)
(-0.786899 -0.642804 0)
(-0.254563 -0.303592 0)
(-0.0592239 0.513331 0)
(0.0708062 0.0180493 0)
(0.169184 -0.250394 0)
(0.295298 -0.301227 0)
(0.437579 -0.269541 0)
(0.442841 -0.203716 0)
(0.661712 0.131146 0)
(-0.347954 1.14126 0)
(-1.21912 1.3318 0)
(-1.32224 0.611822 0)
(-0.660055 0.000719401 0)
(-0.617528 -0.110177 0)
(-0.598483 -0.0162023 0)
(-1.2996 -0.0107875 0)
(-2.00227 -0.179805 0)
(-2.1976 -0.405524 0)
(-1.61814 -0.728593 0)
(-0.82573 -0.977388 0)
(-0.266981 -0.542316 0)
(0.128986 0.434389 0)
(0.226544 0.000750358 0)
(0.368143 -0.300217 0)
(0.471671 -0.367314 0)
(0.586421 -0.298047 0)
(0.539477 -0.194985 0)
(0.778594 0.23897 0)
(-0.223424 1.35019 0)
(0.2091 1.74606 0)
(0.220826 0.71666 0)
(0.797496 -0.240752 0)
(0.147402 -0.0561109 0)
(-0.05731 0.228598 0)
(0.109583 0.332506 0)
(-0.390288 0.155213 0)
(-1.93902 -0.296865 0)
(-1.63237 -0.896773 0)
(-0.772087 -1.33546 0)
(-0.195732 -0.79144 0)
(0.110064 0.30162 0)
(0.310452 -0.0228266 0)
(0.525314 -0.354475 0)
(0.604288 -0.421625 0)
(0.696763 -0.316518 0)
(0.646551 -0.174621 0)
(0.861299 0.328602 0)
(-0.0895951 1.29981 0)
(0.721473 1.74898 0)
(1.04976 0.35642 0)
(0.0714708 0.065263 0)
(-0.359858 0.106891 0)
(-0.37306 -0.0189171 0)
(-0.113888 0.0997409 0)
(0.323199 0.344478 0)
(-0.613491 0.363692 0)
(-1.13694 -0.929605 0)
(-0.66236 -1.62782 0)
(-0.102763 -1.02299 0)
(0.049437 0.21489 0)
(0.409193 -0.129086 0)
(0.637072 -0.418535 0)
(0.672964 -0.460201 0)
(0.757929 -0.344311 0)
(0.743473 -0.166972 0)
(0.910938 0.409553 0)
(0.148794 1.19383 0)
(0.796185 1.57954 0)
(1.20815 0.5914 0)
(-0.416535 0.284337 0)
(-0.338988 0.153688 0)
(-0.239137 0.115453 0)
(-0.0427957 0.106313 0)
(0.213228 0.322846 0)
(0.272908 0.327785 0)
(-0.512121 -0.849595 0)
(-0.525172 -1.77994 0)
(-0.0182451 -1.21536 0)
(0.117182 0.0406436 0)
(0.516689 -0.265438 0)
(0.670429 -0.457329 0)
(0.676739 -0.487414 0)
(0.77902 -0.387036 0)
(0.791396 -0.171362 0)
(0.940359 0.477769 0)
(0.49797 1.16576 0)
(0.826238 1.45519 0)
(1.25749 0.811002 0)
(-0.376324 0.448619 0)
(0.162699 0.115144 0)
(-0.107067 -0.077846 0)
(0.0771354 -0.0471143 0)
(0.328474 0.173484 0)
(0.817454 0.408592 0)
(0.277852 -0.157975 0)
(-0.37004 -1.76692 0)
(0.0427395 -1.35598 0)
(0.0542943 -0.0700014 0)
(0.103025 -0.107889 0)
(0.0738984 -0.0731928 0)
(0.0347024 -0.0323097 0)
(0.0203 -0.00373378 0)
(0.0173182 0.00888308 0)
(0.0106517 0.00309098 0)
(0.0122548 0.00191946 0)
(0.0186209 0.00961043 0)
(0.0243481 0.0192911 0)
(0.027689 0.0286162 0)
(0.0236026 0.0459161 0)
(0.00815616 0.0566877 0)
(-0.00756216 0.0476321 0)
(-0.00487142 0.0226241 0)
(0.00722611 0.0108897 0)
(0.0153342 0.00350519 0)
(0.0244909 -0.0029496 0)
(0.0405492 -0.00820695 0)
(0.0641768 -0.0128147 0)
(0.0850822 -0.0120715 0)
(0.111624 -0.0312412 0)
(0.133129 0.00517765 0)
(-0.175328 -0.0368599 0)
(-0.815334 0.0622011 0)
(-0.67854 0.053414 0)
(-0.537861 -0.00660108 0)
(-0.428293 -0.0251073 0)
(-0.393599 -0.0247046 0)
(-0.402052 -0.0202822 0)
(-0.367538 -0.0121722 0)
(-0.287916 5.32053e-05 0)
(-0.2107 0.0118278 0)
(-0.149947 0.0217612 0)
(-0.0830688 0.0397162 0)
(-0.0419545 0.0477704 0)
(-0.00836363 0.0277427 0)
(0.0235389 -0.00196272 0)
(0.0366881 -0.00235104 0)
(0.0347259 0.00717552 0)
(0.0322933 -0.000866376 0)
(0.0516502 -0.0213058 0)
(0.0738477 -0.0330515 0)
(0.090879 -0.0349805 0)
(0.0919133 -0.0410088 0)
(0.0938894 -0.0492701 0)
(0.0140019 0.486469 0)
(-0.42547 0.295836 0)
(-0.435083 -0.120988 0)
(-0.653786 -0.276891 0)
(-0.880433 -0.123081 0)
(-1.01205 -0.0184642 0)
(-1.09369 -0.0303919 0)
(-1.09499 -0.101791 0)
(-1.07192 -0.147517 0)
(-1.01549 -0.140728 0)
(-0.833775 -0.0958437 0)
(-0.580855 -0.0495149 0)
(-0.397978 -0.0134342 0)
(-0.288135 -0.0141896 0)
(-0.21477 -0.0192972 0)
(-0.123345 0.00133741 0)
(-0.0533542 0.0111728 0)
(-0.00601242 -0.0142773 0)
(0.0460896 -0.0436958 0)
(0.0943875 -0.0514789 0)
(0.12072 -0.045184 0)
(0.127937 -0.035513 0)
(0.109118 -0.0173716 0)
(0.0645541 0.538872 0)
(-0.0125038 0.590554 0)
(-0.0952856 0.27565 0)
(-0.258149 0.242663 0)
(-0.454211 0.192022 0)
(-0.519793 0.13683 0)
(-0.517443 0.0659576 0)
(-0.499852 -0.041083 0)
(-0.536925 -0.135704 0)
(-0.631531 -0.204226 0)
(-0.736926 -0.260763 0)
(-0.837393 -0.388818 0)
(-0.918078 -0.224471 0)
(-0.920549 -0.158836 0)
(-0.912295 -0.18885 0)
(-0.833546 -0.179454 0)
(-0.64425 -0.139079 0)
(-0.53331 -0.122152 0)
(-0.420845 -0.135614 0)
(-0.289949 -0.109827 0)
(-0.197541 -0.0799197 0)
(-0.154035 -0.0426226 0)
(-0.239151 0.00059749 0)
(-0.00992925 0.405947 0)
(0.137093 0.583247 0)
(0.0936793 0.365581 0)
(0.0304695 0.159388 0)
(0.00984427 0.145358 0)
(-0.0251185 0.149698 0)
(-0.0263617 0.0390876 0)
(-0.0142684 -0.0558843 0)
(-0.0395779 -0.0433029 0)
(-0.0644025 0.0257226 0)
(-0.124759 0.104124 0)
(-0.267404 0.0249145 0)
(-0.381329 -0.0407612 0)
(-0.432815 -0.0599942 0)
(-0.510603 -0.0964873 0)
(-0.659529 -0.167373 0)
(-0.826212 -0.24188 0)
(-0.983863 -0.179698 0)
(-1.1227 -0.243926 0)
(-1.20356 -0.249425 0)
(-1.17893 -0.169083 0)
(-1.0916 0.0280714 0)
(-0.967449 0.282986 0)
(-0.0555969 0.362585 0)
(0.10037 0.433138 0)
(0.153764 0.347506 0)
(0.158641 0.206108 0)
(0.133538 0.17124 0)
(0.120683 0.155132 0)
(0.0966504 0.0644415 0)
(0.0149623 -0.0191133 0)
(-0.0857318 -0.0653957 0)
(-0.138604 -0.0814983 0)
(-0.140485 -0.0579987 0)
(-0.135747 -0.0285748 0)
(-0.206395 -0.00979593 0)
(-0.281129 -0.020917 0)
(-0.304791 0.020606 0)
(-0.354229 0.0874977 0)
(-0.432765 0.101406 0)
(-0.534615 0.0979598 0)
(-0.684852 0.0621556 0)
(-0.882191 -0.0641651 0)
(-1.09568 -0.260135 0)
(-1.34408 -0.212127 0)
(-1.47677 0.0358369 0)
(-0.0397611 0.360712 0)
(0.0515619 0.325378 0)
(0.124733 0.307669 0)
(0.145442 0.230519 0)
(0.103799 0.195801 0)
(0.0934334 0.174892 0)
(0.0761874 0.124712 0)
(0.0187199 0.0872589 0)
(-0.0483506 0.0743806 0)
(-0.121326 0.0645398 0)
(-0.173983 0.0688421 0)
(-0.208421 0.0857316 0)
(-0.241238 0.0818711 0)
(-0.294313 0.0246427 0)
(-0.342969 -0.00859124 0)
(-0.375691 -0.00372504 0)
(-0.39583 0.0233332 0)
(-0.420531 0.0631732 0)
(-0.460381 0.103715 0)
(-0.528454 0.141226 0)
(-0.592196 0.191012 0)
(-0.717917 0.282872 0)
(-0.991359 0.253739 0)
(-0.0148909 0.349777 0)
(0.0309919 0.269671 0)
(0.0720184 0.276337 0)
(0.0867998 0.233487 0)
(0.060157 0.205842 0)
(0.0503517 0.1881 0)
(0.0319944 0.159584 0)
(-0.0101453 0.128969 0)
(-0.0614678 0.0934692 0)
(-0.11112 0.0584187 0)
(-0.152718 0.0479474 0)
(-0.183856 0.0631871 0)
(-0.194682 0.0887438 0)
(-0.214812 0.0805497 0)
(-0.257961 0.0859823 0)
(-0.308794 0.109418 0)
(-0.354065 0.122736 0)
(-0.388654 0.136173 0)
(-0.416869 0.153152 0)
(-0.46108 0.144039 0)
(-0.489555 0.112961 0)
(-0.447544 0.246882 0)
(-0.452923 0.562811 0)
(-0.00609362 0.341414 0)
(0.0156398 0.237478 0)
(0.0354139 0.257355 0)
(0.0450703 0.238222 0)
(0.0326029 0.218957 0)
(0.0242758 0.20188 0)
(0.00919183 0.184374 0)
(-0.014948 0.167028 0)
(-0.0459629 0.149082 0)
(-0.0855028 0.133861 0)
(-0.131541 0.12031 0)
(-0.17065 0.109792 0)
(-0.19196 0.103773 0)
(-0.212074 0.0941969 0)
(-0.249151 0.0983909 0)
(-0.285349 0.116106 0)
(-0.318203 0.132167 0)
(-0.346184 0.145266 0)
(-0.360781 0.162561 0)
(-0.366821 0.174438 0)
(-0.374827 0.161807 0)
(-0.340983 0.195137 0)
(-0.285424 0.49533 0)
(-0.00570723 0.340502 0)
(0.00533488 0.22164 0)
(0.0159959 0.246382 0)
(0.022732 0.240983 0)
(0.0155432 0.22785 0)
(0.00855743 0.213656 0)
(-0.00259117 0.201887 0)
(-0.0179181 0.191203 0)
(-0.0396366 0.178434 0)
(-0.0682952 0.16279 0)
(-0.099805 0.147258 0)
(-0.132011 0.136541 0)
(-0.162613 0.133663 0)
(-0.194414 0.134342 0)
(-0.233395 0.144537 0)
(-0.270696 0.159705 0)
(-0.302194 0.167123 0)
(-0.329574 0.166104 0)
(-0.345217 0.16491 0)
(-0.340165 0.158735 0)
(-0.333491 0.130673 0)
(-0.350075 0.145579 0)
(-0.37543 0.456184 0)
(-0.00532454 0.342139 0)
(0.000638964 0.214372 0)
(0.00518525 0.240012 0)
(0.00900775 0.24191 0)
(0.00348192 0.232946 0)
(-0.00277672 0.222299 0)
(-0.0124551 0.213574 0)
(-0.024577 0.205864 0)
(-0.0404305 0.197064 0)
(-0.0604746 0.186532 0)
(-0.0845855 0.176065 0)
(-0.113296 0.168018 0)
(-0.144992 0.165791 0)
(-0.17965 0.169058 0)
(-0.217429 0.180165 0)
(-0.253249 0.193732 0)
(-0.285803 0.199125 0)
(-0.319098 0.193907 0)
(-0.348383 0.184882 0)
(-0.370783 0.171423 0)
(-0.420233 0.15473 0)
(-0.524347 0.235842 0)
(-0.621346 0.598085 0)
(-0.00366716 0.34442 0)
(-0.00149552 0.211385 0)
(-0.00100823 0.237385 0)
(1.21299e-05 0.243702 0)
(-0.00514548 0.238015 0)
(-0.0112362 0.230183 0)
(-0.0204068 0.223715 0)
(-0.0311748 0.218435 0)
(-0.0442449 0.213351 0)
(-0.0607205 0.207556 0)
(-0.0818443 0.201729 0)
(-0.107811 0.198105 0)
(-0.137568 0.199146 0)
(-0.170485 0.204869 0)
(-0.205173 0.215315 0)
(-0.238515 0.226994 0)
(-0.272522 0.232905 0)
(-0.312212 0.230049 0)
(-0.354247 0.226844 0)
(-0.403912 0.234478 0)
(-0.504753 0.256895 0)
(-0.65465 0.356443 0)
(-0.784589 0.680345 0)
(-0.00169289 0.346534 0)
(-0.0024401 0.211866 0)
(-0.00452511 0.237706 0)
(-0.0056625 0.24666 0)
(-0.010802 0.243459 0)
(-0.0170001 0.23801 0)
(-0.0258538 0.233662 0)
(-0.036259 0.230315 0)
(-0.0486252 0.227644 0)
(-0.0637458 0.225253 0)
(-0.0827038 0.223739 0)
(-0.105814 0.224655 0)
(-0.132388 0.22916 0)
(-0.161648 0.237115 0)
(-0.192676 0.24817 0)
(-0.224392 0.261033 0)
(-0.259296 0.271403 0)
(-0.302116 0.27521 0)
(-0.351241 0.279507 0)
(-0.407974 0.306976 0)
(-0.508712 0.378172 0)
(-0.664308 0.504776 0)
(-0.794048 0.759389 0)
(-0.000172038 0.348055 0)
(-0.00277947 0.214575 0)
(-0.00636054 0.239956 0)
(-0.00903024 0.250467 0)
(-0.014192 0.249002 0)
(-0.0204177 0.245646 0)
(-0.0288433 0.243278 0)
(-0.0389053 0.241774 0)
(-0.0508001 0.241232 0)
(-0.0649262 0.241768 0)
(-0.0819386 0.24382 0)
(-0.102127 0.248173 0)
(-0.125133 0.255387 0)
(-0.150554 0.265484 0)
(-0.178362 0.278464 0)
(-0.208672 0.294275 0)
(-0.243154 0.310864 0)
(-0.286084 0.32386 0)
(-0.341141 0.337639 0)
(-0.406042 0.380989 0)
(-0.486589 0.489742 0)
(-0.610472 0.659333 0)
(-0.738584 0.876629 0)
(0.000637904 0.349134 0)
(-0.00288395 0.218288 0)
(-0.0071391 0.243395 0)
(-0.0107698 0.254805 0)
(-0.0158488 0.254572 0)
(-0.0219204 0.25295 0)
(-0.029699 0.252332 0)
(-0.0390078 0.252615 0)
(-0.0499757 0.254026 0)
(-0.0627815 0.256867 0)
(-0.0777251 0.261511 0)
(-0.0949653 0.268392 0)
(-0.114441 0.277977 0)
(-0.136173 0.290584 0)
(-0.160573 0.306468 0)
(-0.188284 0.325958 0)
(-0.220299 0.349128 0)
(-0.259679 0.374499 0)
(-0.313498 0.402365 0)
(-0.382965 0.452576 0)
(-0.450352 0.571204 0)
(-0.52271 0.77484 0)
(-0.632783 1.0112 0)
(0.000906247 0.35007 0)
(-0.00288024 0.222295 0)
(-0.0072942 0.247488 0)
(-0.0113524 0.259357 0)
(-0.0162052 0.25999 0)
(-0.0219049 0.259723 0)
(-0.0288774 0.260539 0)
(-0.037116 0.26236 0)
(-0.0467289 0.2654 0)
(-0.0578045 0.269991 0)
(-0.0704571 0.276503 0)
(-0.0847554 0.285319 0)
(-0.10076 0.296931 0)
(-0.118627 0.311899 0)
(-0.138676 0.330757 0)
(-0.161531 0.353964 0)
(-0.188011 0.382528 0)
(-0.219506 0.418277 0)
(-0.260841 0.461863 0)
(-0.318627 0.520058 0)
(-0.37738 0.630014 0)
(-0.407501 0.8402 0)
(-0.451235 1.13235 0)
(0.000926612 0.350992 0)
(-0.00274112 0.226278 0)
(-0.00707678 0.25178 0)
(-0.0111119 0.263801 0)
(-0.0155728 0.265055 0)
(-0.0207187 0.265805 0)
(-0.026792 0.267715 0)
(-0.0338173 0.270736 0)
(-0.0418701 0.275039 0)
(-0.0510051 0.280944 0)
(-0.0612568 0.288815 0)
(-0.0726393 0.299058 0)
(-0.085195 0.312175 0)
(-0.0989816 0.328814 0)
(-0.114061 0.349738 0)
(-0.130687 0.37565 0)
(-0.149346 0.407747 0)
(-0.170362 0.448934 0)
(-0.194424 0.502573 0)
(-0.226038 0.570814 0)
(-0.263137 0.670259 0)
(-0.268316 0.847793 0)
(-0.222038 1.1371 0)
(0.000899898 0.351851 0)
(-0.0024525 0.230125 0)
(-0.00658512 0.255925 0)
(-0.0102727 0.267908 0)
(-0.0142093 0.269597 0)
(-0.0186635 0.27109 0)
(-0.0237682 0.273798 0)
(-0.0295358 0.277673 0)
(-0.0359984 0.282867 0)
(-0.0431661 0.289684 0)
(-0.0510289 0.298468 0)
(-0.0595391 0.309617 0)
(-0.0686566 0.323626 0)
(-0.0782824 0.341132 0)
(-0.0882512 0.362934 0)
(-0.0984142 0.389893 0)
(-0.108647 0.423176 0)
(-0.118506 0.465186 0)
(-0.126484 0.520057 0)
(-0.131467 0.591306 0)
(-0.134249 0.683251 0)
(-0.116698 0.815509 0)
(-0.0280418 1.02058 0)
(0.000895657 0.352545 0)
(-0.00203941 0.233683 0)
(-0.00585448 0.259688 0)
(-0.00900284 0.271498 0)
(-0.0123189 0.273484 0)
(-0.0159812 0.275502 0)
(-0.0200777 0.278757 0)
(-0.0245852 0.283178 0)
(-0.02949 0.288919 0)
(-0.0347526 0.296258 0)
(-0.0403119 0.305508 0)
(-0.0460488 0.317039 0)
(-0.0518274 0.331296 0)
(-0.057412 0.348856 0)
(-0.0624507 0.370427 0)
(-0.0664916 0.396804 0)
(-0.0689048 0.428974 0)
(-0.0686298 0.468539 0)
(-0.0635646 0.518392 0)
(-0.0499625 0.582282 0)
(-0.024085 0.662187 0)
(0.0187819 0.759419 0)
(0.112044 0.878741 0)
(0.000919335 0.353009 0)
(-0.00152966 0.236836 0)
(-0.00492811 0.262932 0)
(-0.00743549 0.274464 0)
(-0.0100687 0.276631 0)
(-0.0128885 0.278985 0)
(-0.0159651 0.282569 0)
(-0.0192293 0.28728 0)
(-0.0226325 0.293263 0)
(-0.0260921 0.300764 0)
(-0.0294874 0.310061 0)
(-0.0326395 0.321474 0)
(-0.0353284 0.33537 0)
(-0.0372112 0.352228 0)
(-0.0378119 0.372609 0)
(-0.0364927 0.397116 0)
(-0.0323534 0.426419 0)
(-0.0240196 0.461395 0)
(-0.00938116 0.503517 0)
(0.0150771 0.554777 0)
(0.0551173 0.616592 0)
(0.115221 0.686594 0)
(0.207579 0.756732 0)
(0.000987366 0.35319 0)
(-0.000942344 0.239539 0)
(-0.00387782 0.265586 0)
(-0.00568638 0.276757 0)
(-0.00761205 0.278995 0)
(-0.00957924 0.281524 0)
(-0.0116492 0.285242 0)
(-0.0137184 0.290024 0)
(-0.0157057 0.295989 0)
(-0.0174944 0.303344 0)
(-0.0189196 0.312327 0)
(-0.0197576 0.323191 0)
(-0.0197286 0.336223 0)
(-0.0184258 0.351776 0)
(-0.0153097 0.370235 0)
(-0.00967264 0.391998 0)
(-0.000585386 0.417283 0)
(0.0134013 0.446671 0)
(0.0342511 0.480407 0)
(0.0645688 0.518938 0)
(0.108967 0.562208 0)
(0.172166 0.608162 0)
(0.260904 0.649148 0)
(0.00112177 0.353007 0)
(-0.000298859 0.241784 0)
(-0.0027616 0.267616 0)
(-0.00385167 0.278359 0)
(-0.00507765 0.280575 0)
(-0.00621607 0.283146 0)
(-0.00732785 0.286832 0)
(-0.00827893 0.291494 0)
(-0.00896951 0.297224 0)
(-0.00925527 0.304181 0)
(-0.00894482 0.312562 0)
(-0.0077922 0.322549 0)
(-0.00548178 0.334339 0)
(-0.00159222 0.348162 0)
(0.00443429 0.364236 0)
(0.0131853 0.38276 0)
(0.0257868 0.403725 0)
(0.0434016 0.427234 0)
(0.0674931 0.452973 0)
(0.100121 0.48047 0)
(0.144151 0.508588 0)
(0.20247 0.534954 0)
(0.28028 0.554738 0)
(0.00132482 0.352389 0)
(0.000369408 0.243587 0)
(-0.00161875 0.269013 0)
(-0.00200432 0.27928 0)
(-0.00256666 0.281394 0)
(-0.00292614 0.283899 0)
(-0.00315689 0.287418 0)
(-0.00309534 0.291806 0)
(-0.00263829 0.297132 0)
(-0.00161694 0.303486 0)
(0.000170291 0.311051 0)
(0.00296325 0.319937 0)
(0.00709231 0.330259 0)
(0.0129681 0.34212 0)
(0.0211168 0.355609 0)
(0.0321058 0.370748 0)
(0.0468394 0.387507 0)
(0.0663055 0.405349 0)
(0.0915931 0.423944 0)
(0.124105 0.442333 0)
(0.165486 0.459138 0)
(0.216933 0.471806 0)
(0.281345 0.477158 0)
(0.0015752 0.351302 0)
(0.00103 0.244942 0)
(-0.000474717 0.269808 0)
(-0.000193408 0.27956 0)
(-0.000154235 0.281504 0)
(0.000196404 0.283854 0)
(0.000749094 0.287089 0)
(0.00170179 0.291093 0)
(0.00312908 0.295866 0)
(0.00523853 0.301527 0)
(0.00824938 0.308114 0)
(0.0123559 0.315762 0)
(0.0178742 0.324497 0)
(0.0251823 0.334327 0)
(0.0347593 0.345231 0)
(0.0471385 0.357107 0)
(0.0629668 0.369781 0)
(0.0830259 0.382634 0)
(0.108085 0.395121 0)
(0.139042 0.406262 0)
(0.176783 0.414744 0)
(0.22157 0.41845 0)
(0.274588 0.415119 0)
(0.00183551 0.349734 0)
(0.00167763 0.245864 0)
(0.000669147 0.270045 0)
(0.00154109 0.27924 0)
(0.00210516 0.280978 0)
(0.00308046 0.283094 0)
(0.00431503 0.285977 0)
(0.00601637 0.289505 0)
(0.00827713 0.29364 0)
(0.0112572 0.298516 0)
(0.0151845 0.304074 0)
(0.0203 0.310419 0)
(0.0268173 0.317525 0)
(0.0350934 0.32534 0)
(0.0455293 0.333768 0)
(0.0585735 0.342621 0)
(0.0747003 0.351609 0)
(0.0945007 0.360166 0)
(0.118473 0.367626 0)
(0.147118 0.373131 0)
(0.180901 0.37552 0)
(0.219659 0.373255 0)
(0.263718 0.364763 0)
(0.00207498 0.347699 0)
(0.00232351 0.246373 0)
(0.00177517 0.269739 0)
(0.0031679 0.278397 0)
(0.00419332 0.279899 0)
(0.00570643 0.281727 0)
(0.00751088 0.284218 0)
(0.00981673 0.287204 0)
(0.0127263 0.29068 0)
(0.0163862 0.294675 0)
(0.0209949 0.299203 0)
(0.0267939 0.304245 0)
(0.0339589 0.309761 0)
(0.0427952 0.315657 0)
(0.0536263 0.321782 0)
(0.0668001 0.327911 0)
(0.0826582 0.333718 0)
(0.10163 0.33867 0)
(0.124018 0.342098 0)
(0.150037 0.343253 0)
(0.179903 0.341225 0)
(0.213287 0.334903 0)
(0.250106 0.323252 0)
(0.00228437 0.345219 0)
(0.0029584 0.246484 0)
(0.00282338 0.26892 0)
(0.00468434 0.277128 0)
(0.00608401 0.278345 0)
(0.00805627 0.279863 0)
(0.0103149 0.281925 0)
(0.0131018 0.284352 0)
(0.0164915 0.28714 0)
(0.0206303 0.290269 0)
(0.0257022 0.293754 0)
(0.0319133 0.297539 0)
(0.0394175 0.301554 0)
(0.0484682 0.305676 0)
(0.0593203 0.30973 0)
(0.0722371 0.313471 0)
(0.0874375 0.316577 0)
(0.105224 0.318569 0)
(0.125763 0.318817 0)
(0.149087 0.316659 0)
(0.175248 0.311437 0)
(0.20389 0.302379 0)
(0.234719 0.288839 0)
(0.00248825 0.3423 0)
(0.00358854 0.246231 0)
(0.00376953 0.267655 0)
(0.00607245 0.275482 0)
(0.0077501 0.27639 0)
(0.0101243 0.277594 0)
(0.012736 0.279214 0)
(0.0158767 0.281088 0)
(0.0196059 0.283187 0)
(0.0240555 0.285483 0)
(0.0293942 0.287972 0)
(0.0357931 0.290574 0)
(0.0433806 0.293202 0)
(0.0523692 0.295724 0)
(0.0629536 0.297948 0)
(0.0753239 0.299643 0)
(0.0896134 0.300487 0)
(0.10601 0.300089 0)
(0.124582 0.297864 0)
(0.145262 0.29323 0)
(0.167994 0.285707 0)
(0.192458 0.274844 0)
(0.218262 0.260266 0)
(0.0027454 0.338913 0)
(0.00424217 0.245713 0)
(0.00456522 0.266009 0)
(0.00730413 0.273511 0)
(0.00917419 0.274106 0)
(0.011894 0.275009 0)
(0.0147648 0.276187 0)
(0.0181672 0.277528 0)
(0.0221167 0.278973 0)
(0.0267503 0.280484 0)
(0.0322049 0.282046 0)
(0.0386145 0.28356 0)
(0.0460957 0.284938 0)
(0.0548117 0.286046 0)
(0.0649231 0.286692 0)
(0.0765524 0.286657 0)
(0.0897726 0.285643 0)
(0.104681 0.28333 0)
(0.121269 0.279212 0)
(0.139426 0.272784 0)
(0.159014 0.263637 0)
(0.179762 0.251607 0)
(0.201281 0.236567 0)
(0.00313327 0.334998 0)
(0.00493232 0.245061 0)
(0.00516468 0.264065 0)
(0.00835117 0.271267 0)
(0.0103281 0.271557 0)
(0.0133461 0.272174 0)
(0.0163887 0.272938 0)
(0.0199776 0.273771 0)
(0.0240613 0.274605 0)
(0.0287826 0.275401 0)
(0.0342465 0.276112 0)
(0.0405547 0.27665 0)
(0.047813 0.276923 0)
(0.0561401 0.276806 0)
(0.0656544 0.27612 0)
(0.0764343 0.274648 0)
(0.0885153 0.272136 0)
(0.101927 0.26831 0)
(0.116617 0.262772 0)
(0.132426 0.255088 0)
(0.149169 0.244871 0)
(0.166626 0.232125 0)
(0.184459 0.216996 0)
(0.00370177 0.330427 0)
(0.0056537 0.244548 0)
(0.00556563 0.261941 0)
(0.00918118 0.268812 0)
(0.0111736 0.268813 0)
(0.0144435 0.269161 0)
(0.0175678 0.269527 0)
(0.0212692 0.269886 0)
(0.0254266 0.270157 0)
(0.0301628 0.270304 0)
(0.0355617 0.270256 0)
(0.0417111 0.269939 0)
(0.0486933 0.269262 0)
(0.0565912 0.268101 0)
(0.0654789 0.266294 0)
(0.0754014 0.263649 0)
(0.086371 0.259948 0)
(0.0983749 0.254961 0)
(0.111341 0.248392 0)
(0.125086 0.239867 0)
(0.139368 0.229037 0)
(0.153997 0.215929 0)
(0.168731 0.200928 0)
(0.0043971 0.325115 0)
(0.00634702 0.244263 0)
(0.0058187 0.259774 0)
(0.00975088 0.266208 0)
(0.0116601 0.265945 0)
(0.0151065 0.266044 0)
(0.018217 0.266019 0)
(0.021962 0.26594 0)
(0.0261158 0.265694 0)
(0.0308011 0.265244 0)
(0.0360835 0.264527 0)
(0.0420372 0.26347 0)
(0.0487182 0.261975 0)
(0.0561768 0.259933 0)
(0.0644646 0.257194 0)
(0.0736044 0.2536 0)
(0.0835846 0.248967 0)
(0.0943723 0.243107 0)
(0.10588 0.235801 0)
(0.117936 0.226741 0)
(0.130271 0.215625 0)
(0.142679 0.202451 0)
(0.155031 0.1877 0)
(0.00511143 0.319107 0)
(0.00694718 0.244215 0)
(0.00592096 0.257708 0)
(0.0099998 0.263543 0)
(0.0117334 0.263055 0)
(0.0152493 0.26291 0)
(0.0182239 0.262518 0)
(0.0219222 0.262026 0)
(0.0259717 0.2613 0)
(0.0305179 0.2603 0)
(0.0356097 0.258978 0)
(0.0412996 0.257259 0)
(0.0476357 0.25505 0)
(0.0546496 0.252254 0)
(0.0623708 0.248744 0)
(0.0708126 0.244379 0)
(0.07995 0.239008 0)
(0.0897373 0.232477 0)
(0.100084 0.224615 0)
(0.110863 0.215208 0)
(0.121834 0.204 0)
(0.13275 0.190943 0)
(0.143567 0.17648 0)
(0.00580345 0.312473 0)
(0.00743458 0.244502 0)
(0.00582926 0.255883 0)
(0.00989936 0.260945 0)
(0.0113391 0.26026 0)
(0.0147888 0.259872 0)
(0.0175004 0.259132 0)
(0.0210297 0.258253 0)
(0.0248373 0.257074 0)
(0.0291128 0.255564 0)
(0.0338921 0.253687 0)
(0.0392106 0.251367 0)
(0.0451121 0.248529 0)
(0.0516199 0.245073 0)
(0.0587494 0.240898 0)
(0.0665085 0.235877 0)
(0.074874 0.229884 0)
(0.0837982 0.222791 0)
(0.0932123 0.214468 0)
(0.103045 0.204776 0)
(0.113101 0.193505 0)
(0.123121 0.180577 0)
(0.133164 0.166333 0)
(0.00646344 0.305299 0)
(0.00776847 0.245222 0)
(0.00554508 0.254463 0)
(0.0094481 0.258578 0)
(0.0104668 0.257713 0)
(0.0137108 0.257094 0)
(0.016026 0.256021 0)
(0.0192556 0.254777 0)
(0.0226683 0.25317 0)
(0.0265252 0.251199 0)
(0.03084 0.248819 0)
(0.0356402 0.245963 0)
(0.0409634 0.242559 0)
(0.0468306 0.238511 0)
(0.0532552 0.233735 0)
(0.0602445 0.228121 0)
(0.0677839 0.221565 0)
(0.0758411 0.213956 0)
(0.0843736 0.205191 0)
(0.0933414 0.195163 0)
(0.102618 0.183711 0)
(0.111979 0.17078 0)
(0.121593 0.156585 0)
(0.00701887 0.297753 0)
(0.00787732 0.246377 0)
(0.00510168 0.253562 0)
(0.00869035 0.256594 0)
(0.00918869 0.25558 0)
(0.012106 0.254727 0)
(0.0139143 0.25335 0)
(0.0167276 0.251771 0)
(0.0196179 0.249777 0)
(0.0229272 0.247396 0)
(0.0266341 0.244568 0)
(0.030766 0.241235 0)
(0.0353536 0.237315 0)
(0.040423 0.232744 0)
(0.045987 0.227424 0)
(0.0520533 0.221266 0)
(0.0586188 0.214191 0)
(0.0656672 0.206084 0)
(0.0731763 0.196857 0)
(0.0811197 0.186424 0)
(0.0894537 0.174662 0)
(0.0979795 0.161528 0)
(0.106939 0.14717 0)
(0.00739049 0.290052 0)
(0.00772718 0.24787 0)
(0.00451905 0.253143 0)
(0.00770118 0.255024 0)
(0.00764023 0.253917 0)
(0.0101509 0.252796 0)
(0.0113948 0.251167 0)
(0.0137194 0.249286 0)
(0.0160041 0.246955 0)
(0.0186813 0.244222 0)
(0.0216879 0.241003 0)
(0.0250458 0.237261 0)
(0.028801 0.232905 0)
(0.0329654 0.227871 0)
(0.0375351 0.222084 0)
(0.0425514 0.215447 0)
(0.0479987 0.207901 0)
(0.0538639 0.199331 0)
(0.0601587 0.189659 0)
(0.0668468 0.1788 0)
(0.0739212 0.166683 0)
(0.0812346 0.153222 0)
(0.0890406 0.13856 0)
(0.00750837 0.282377 0)
(0.00728659 0.249563 0)
(0.00383397 0.253109 0)
(0.00656949 0.253816 0)
(0.00597039 0.252669 0)
(0.00802877 0.251249 0)
(0.00873574 0.249416 0)
(0.0105281 0.247265 0)
(0.0121988 0.24466 0)
(0.0142265 0.241631 0)
(0.0165101 0.238095 0)
(0.0190859 0.234006 0)
(0.0219687 0.2293 0)
(0.0251965 0.223877 0)
(0.0287509 0.2177 0)
(0.0326655 0.210674 0)
(0.0369349 0.202714 0)
(0.0415475 0.193748 0)
(0.0465164 0.183695 0)
(0.0518231 0.172464 0)
(0.0574609 0.159996 0)
(0.0632759 0.146215 0)
(0.06953 0.131251 0)
(0.0072233 0.275122 0)
(0.00647957 0.25148 0)
(0.00308912 0.253548 0)
(0.00532872 0.253135 0)
(0.00432689 0.251962 0)
(0.00591826 0.25026 0)
(0.0061608 0.24826 0)
(0.00744639 0.245875 0)
(0.00854189 0.243064 0)
(0.00995793 0.239789 0)
(0.0115599 0.236006 0)
(0.0133954 0.231635 0)
(0.0154611 0.226637 0)
(0.0177949 0.220926 0)
(0.0203919 0.214425 0)
(0.0232508 0.207093 0)
(0.026383 0.198799 0)
(0.0298004 0.189519 0)
(0.0334867 0.179151 0)
(0.0374154 0.167638 0)
(0.0416173 0.154877 0)
(0.0459359 0.140829 0)
(0.0505768 0.125662 0)
(0.00636256 0.268793 0)
(0.00530392 0.25337 0)
(0.00234739 0.254288 0)
(0.0040284 0.252923 0)
(0.00284115 0.251741 0)
(0.0039943 0.249769 0)
(0.00388185 0.247659 0)
(0.00472303 0.245072 0)