/*--------------------------------*- C++ -*----------------------------------*\
| =========                 |                                                 |
| \\      /  F ield         | OpenFOAM: The Open Source CFD Toolbox           |
|  \\    /   O peration     | Version:  5.x                                   |
|   \\  /    A nd           | Web:      www.OpenFOAM.org                      |
|    \\/     M anipulation  |                                                 |
\*---------------------------------------------------------------------------*/
FoamFile
{
    version     2.0;
    format      ascii;
    class       surfaceScalarField;
    location    "0.35";
    object      alphaPhi10;
}
// * * * * * * * * * * * * * * * * * * * * * * * * * * * * * * * * * * * * * //

dimensions      [0 3 -1 0 0 0 0];

internalField   nonuniform List<scalar> 
4432
(
-2.21926e-06
2.21926e-06
1.69424e-07
-2.38868e-06
5.67298e-06
-5.50355e-06
1.23354e-05
-6.66239e-06
1.86669e-05
-6.33157e-06
2.40175e-05
-5.35058e-06
2.83047e-05
-4.28722e-06
3.17045e-05
-3.39978e-06
3.44454e-05
-2.74091e-06
3.67066e-05
-2.26115e-06
3.8578e-05
-1.87143e-06
4.0059e-05
-1.48098e-06
4.10471e-05
-9.88151e-07
4.13268e-05
-2.79647e-07
4.04128e-05
9.14028e-07
3.74339e-05
2.97884e-06
3.14011e-05
6.03281e-06
2.13542e-05
1.00469e-05
7.80286e-06
1.35514e-05
-5.68145e-06
1.38621e-05
-1.20629e-05
8.44858e-06
-1.4996e-05
1.51677e-06
-1.70694e-05
-2.19163e-06
4.41089e-06
3.44422e-07
-4.92474e-06
5.91694e-06
-1.10761e-05
1.25642e-05
-1.33097e-05
1.88491e-05
-1.26164e-05
2.41518e-05
-1.06533e-05
2.84119e-05
-8.54732e-06
3.1816e-05
-6.80392e-06
3.4593e-05
-5.51787e-06
3.69141e-05
-4.58226e-06
3.88608e-05
-3.81811e-06
4.04227e-05
-3.04289e-06
4.15347e-05
-2.10015e-06
4.21263e-05
-8.7124e-07
4.22125e-05
8.27849e-07
4.19415e-05
3.24977e-06
4.09035e-05
7.07081e-06
3.75794e-05
1.3371e-05
2.91457e-05
2.19851e-05
1.41686e-05
2.88392e-05
-3.60858e-06
2.75098e-05
-8.7477e-06
6.47503e-06
-2.58171e-05
-1.97139e-06
6.38229e-06
6.57824e-07
-7.55395e-06
6.28872e-06
-1.6707e-05
1.28603e-05
-1.98813e-05
1.89971e-05
-1.87532e-05
2.41473e-05
-1.58035e-05
2.82984e-05
-1.26984e-05
3.16582e-05
-1.01638e-05
3.44535e-05
-8.31311e-06
3.68397e-05
-6.96847e-06
3.88796e-05
-5.85802e-06
4.05535e-05
-4.71675e-06
4.17802e-05
-3.32692e-06
4.24204e-05
-1.5114e-06
4.2362e-05
8.86268e-07
4.15318e-05
4.07997e-06
4.02058e-05
8.39674e-06
3.89878e-05
1.45891e-05
3.69704e-05
2.40025e-05
3.07155e-05
3.50941e-05
1.84514e-05
3.97739e-05
6.31924e-06
1.8607e-05
-1.953e-05
-1.67734e-06
8.05962e-06
1.12525e-06
-1.03565e-05
6.7992e-06
-2.23809e-05
1.32469e-05
-2.6329e-05
1.91692e-05
-2.46755e-05
2.4111e-05
-2.07452e-05
2.8126e-05
-1.67135e-05
3.14457e-05
-1.34835e-05
3.42872e-05
-1.11545e-05
3.67802e-05
-9.46156e-06
3.89611e-05
-8.03885e-06
4.07909e-05
-6.54655e-06
4.21793e-05
-4.71531e-06
4.30079e-05
-2.34008e-06
4.31369e-05
7.57316e-07
4.24575e-05
4.75936e-06
4.0955e-05
9.89926e-06
3.91477e-05
1.63963e-05
3.82299e-05
2.49203e-05
3.72906e-05
3.60334e-05
3.16884e-05
4.53761e-05
1.79633e-05
3.23321e-05
-1.58227e-06
-1.2876e-06
9.34722e-06
1.72561e-06
-1.33697e-05
7.41312e-06
-2.80684e-05
1.36812e-05
-3.25971e-05
1.93283e-05
-3.03225e-05
2.40202e-05
-2.54371e-05
2.78882e-05
-2.05815e-05
3.11834e-05
-1.67787e-05
3.41027e-05
-1.40738e-05
3.67404e-05
-1.20993e-05
3.90996e-05
-1.0398e-05
4.11195e-05
-8.56642e-06
4.27019e-05
-6.29779e-06
4.37316e-05
-3.36972e-06
4.40962e-05
3.92651e-07
4.37092e-05
5.14638e-06
4.25334e-05
1.10751e-05
4.06383e-05
1.82914e-05
3.88683e-05
2.66902e-05
3.83605e-05
3.65413e-05
3.59687e-05
4.77679e-05
2.34327e-05
4.48681e-05
2.18365e-05
-8.02769e-07
1.015e-05
2.44221e-06
-1.66147e-05
8.11484e-06
-3.3741e-05
1.41525e-05
-3.86348e-05
1.9477e-05
-3.56471e-05
2.38964e-05
-2.98565e-05
2.76243e-05
-2.43093e-05
3.09225e-05
-2.00769e-05
3.39548e-05
-1.71061e-05
3.6771e-05
-1.49156e-05
3.93369e-05
-1.29639e-05
4.15693e-05
-1.07988e-05
4.33628e-05
-8.09122e-06
4.46073e-05
-4.61424e-06
4.52041e-05
-2.04138e-07
4.50874e-05
5.263e-06
4.42357e-05
1.19269e-05
4.26562e-05
1.98708e-05
4.04248e-05
2.89217e-05
3.85461e-05
3.842e-05
3.62202e-05
5.00938e-05
2.53599e-05
5.57284e-05
4.71997e-05
-2.59721e-07
1.04097e-05
3.24678e-06
-2.01212e-05
8.87946e-06
-3.93737e-05
1.46486e-05
-4.44039e-05
1.96288e-05
-4.06273e-05
2.3782e-05
-3.40097e-05
2.74003e-05
-2.79276e-05
3.07429e-05
-2.34194e-05
3.39287e-05
-2.02919e-05
3.69566e-05
-1.79434e-05
3.97544e-05
-1.57617e-05
4.22188e-05
-1.32633e-05
4.42381e-05
-1.01105e-05
4.57046e-05
-6.08072e-06
4.65269e-05
-1.02641e-06
4.66532e-05
5.13662e-06
4.60519e-05
1.25282e-05
4.47542e-05
2.11685e-05
4.26127e-05
3.10632e-05
3.97348e-05
4.12979e-05
3.62032e-05
5.36254e-05
2.69999e-05
6.49317e-05
7.41997e-05
3.57081e-07
1.00526e-05
4.09454e-06
-2.38587e-05
9.64167e-06
-4.49209e-05
1.5111e-05
-4.98732e-05
1.97591e-05
-4.52755e-05
2.36898e-05
-3.79404e-05
2.72539e-05
-3.14917e-05
3.06905e-05
-2.68561e-05
3.40643e-05
-2.36657e-05
3.73231e-05
-2.12022e-05
4.03633e-05
-1.88019e-05
4.3071e-05
-1.59709e-05
4.5335e-05
-1.23746e-05
4.70459e-05
-7.79156e-06
4.81198e-05
-2.10032e-06
4.8503e-05
4.7534e-06
4.81315e-05
1.28997e-05
4.70259e-05
2.22742e-05
4.51164e-05
3.29726e-05
4.20246e-05
4.43898e-05
3.72596e-05
5.83904e-05
2.76621e-05
7.45291e-05
0.000101862
-9.17049e-20
7.8162e-21
-4.2333e-17
4.93272e-19
-5.69464e-17
2.958e-17
-1.11064e-17
1.16994e-17
-2.45691e-19
1.6918e-18
-2.82075e-21
2.08365e-20
-9.69647e-23
1.37067e-22
-4.74622e-24
2.7631e-24
-2.54553e-25
4.52485e-26
-1.36155e-26
-2.01059e-27
-6.63809e-28
-3.75517e-28
-3.36517e-29
-3.26922e-29
-3.01272e-29
-4.5692e-30
-1.1194e-29
-1.69783e-29
-5.41217e-31
-1.06282e-29
-2.06354e-32
-5.19909e-31
-1.34416e-33
-1.92847e-32
-2.29274e-36
-1.34371e-33
-6.33223e-36
-5.64751e-19
1.61043e-19
-3.8104e-16
8.44774e-18
-2.99105e-16
6.49903e-16
-4.90372e-17
1.82898e-16
-1.19594e-18
1.4937e-17
-5.27925e-20
3.51386e-19
-3.14368e-21
9.55442e-21
-1.90849e-22
3.19402e-22
-1.4565e-23
6.15696e-24
-1.051e-24
-7.62036e-25
-5.36239e-26
-1.42763e-25
-3.68465e-27
-1.15239e-26
-8.58536e-27
-1.82991e-27
-2.69139e-27
-6.32317e-27
-1.07428e-28
-2.75026e-27
-3.54371e-30
-1.13917e-28
-2.05441e-31
-3.86486e-30
-3.31669e-34
-2.94212e-31
-1.82978e-33
-5.63939e-20
2.17437e-19
-3.87122e-18
1.22303e-17
-7.61202e-18
6.52599e-16
-4.91944e-17
2.66384e-16
-5.03976e-18
4.42679e-17
-1.58662e-18
4.44861e-18
-1.64741e-19
4.48781e-19
-1.46115e-20
2.53388e-20
-3.34006e-21
7.3998e-22
-2.63283e-22
-1.3155e-21
-1.19887e-23
-1.33529e-22
-5.56496e-25
-4.51682e-24
-1.2863e-24
-3.79531e-25
-3.62741e-25
-1.26571e-24
-1.31781e-26
-3.93075e-25
-4.06483e-28
-1.5051e-26
-2.23062e-29
-5.12061e-28
-3.52319e-32
-4.28713e-29
-2.61209e-31
-1.9227e-16
1.92488e-16
-2.81212e-14
2.79402e-14
-4.7896e-14
2.69703e-13
-8.13164e-17
3.52605e-14
-3.44959e-17
3.17037e-17
-1.78682e-17
2.22372e-17
-3.50994e-18
6.19888e-18
-7.98228e-19
7.07242e-19
-3.50651e-19
5.57382e-20
-3.90895e-20
-8.5368e-20
-1.76513e-21
-1.52814e-20
-5.40705e-23
-6.90995e-22
-1.25657e-22
-4.86217e-23
-3.20106e-23
-1.56372e-22
-1.07804e-24
-3.64181e-23
-3.19942e-26
-1.31186e-24
-1.69823e-27
-4.97768e-26
-2.67073e-30
-3.98564e-27
-2.4089e-29
-2.8766e-09
1.32368e-09
-4.27766e-14
4.82466e-10
-7.04172e-13
1.18485e-12
-4.8952e-15
6.58199e-13
-6.837e-17
7.27657e-15
-4.0595e-17
2.86813e-17
-1.69325e-17
1.5558e-17
-5.34335e-18
2.42258e-18
-2.88541e-18
2.94079e-19
-8.84721e-19
-1.82772e-19
-1.24216e-19
-1.76787e-19
-3.97081e-21
-5.38909e-20
-9.10589e-21
-4.80553e-21
-2.09765e-21
-1.37452e-20
-6.55451e-23
-2.48532e-21
-1.87093e-24
-8.72806e-23
-9.62102e-26
-3.46907e-24
-1.50981e-28
-2.73617e-25
-1.64069e-27
-1.81405e-08
6.61829e-09
-2.26282e-10
-4.48383e-09
-6.52194e-13
4.05352e-08
-9.21498e-15
1.63512e-14
-1.06505e-16
1.43346e-15
-3.57013e-17
6.30566e-17
-6.14058e-18
9.41441e-18
-4.9829e-18
1.2714e-18
-3.45829e-18
4.12654e-19
-3.87095e-18
-1.05136e-18
-5.13752e-18
-4.30467e-18
-2.09238e-19
-4.98061e-18
-5.24262e-19
-7.72235e-19
-1.09796e-19
-9.18677e-19
-3.19634e-21
-1.45297e-19
-8.72809e-23
-5.35818e-21
-4.39438e-24
-2.07851e-22
-6.85907e-27
-2.25677e-23
-2.04285e-25
-2.52438e-08
1.52005e-08
-1.88547e-08
9.78373e-09
-2.44773e-14
5.01077e-08
-1.02581e-14
1.09544e-15
-1.16489e-14
1.12205e-14
-2.4298e-17
1.66015e-14
-7.53063e-18
1.40327e-17
-1.72931e-17
2.06588e-18
-2.22544e-17
3.7984e-18
-4.48626e-17
5.75744e-18
-3.6283e-16
2.30253e-17
-8.16892e-18
-4.05699e-16
-2.41828e-17
-1.01542e-17
-4.87857e-18
-3.76959e-17
-1.32566e-19
-8.22896e-18
-3.4485e-21
-2.85253e-19
-1.63148e-22
-1.02336e-20
-2.54225e-25
-7.20136e-22
-4.18925e-24
-3.10966e-08
4.02337e-08
-1.49818e-08
-1.93504e-08
-1.94074e-15
2.56382e-08
-2.02638e-15
8.91093e-17
-2.30574e-16
1.69074e-15
-9.22288e-18
1.63692e-14
-9.6929e-18
3.37593e-18
-5.78336e-17
4.10517e-17
-1.22245e-15
1.20001e-15
-2.03214e-15
8.29311e-16
-2.66861e-14
2.42347e-14
-2.63781e-16
-2.38735e-14
-1.05934e-15
9.9479e-16
-1.56751e-16
-1.01185e-15
-3.85809e-18
-1.9251e-16
-9.54752e-20
-5.29756e-18
-4.33983e-21
-1.48149e-19
-1.01665e-23
-6.14552e-21
-1.43558e-23
3.00268e-06
7.04996e-06
1.17213e-05
-3.25773e-05
2.29388e-05
-5.61384e-05
3.33806e-05
-6.0315e-05
4.21795e-05
-5.40744e-05
4.99842e-05
-4.57451e-05
5.75834e-05
-3.90909e-05
6.53e-05
-3.45726e-05
7.30631e-05
-3.14289e-05
8.06262e-05
-2.87653e-05
8.77197e-05
-2.58954e-05
9.41229e-05
-2.23741e-05
9.96641e-05
-1.79157e-05
0.000104143
-1.22706e-05
0.000107342
-5.29898e-06
0.000109339
2.75623e-06
0.000109669
1.25694e-05
0.000108311
2.36328e-05
0.00010528
3.60035e-05
0.000100225
4.94441e-05
9.34252e-05
6.51907e-05
8.64334e-05
8.1521e-05
0.000112076
7.62186e-05
6.86295e-06
1.87001e-07
1.71251e-05
-4.28394e-05
2.67634e-05
-6.57765e-05
3.48364e-05
-6.83878e-05
4.202e-05
-6.12578e-05
4.92956e-05
-5.30206e-05
5.71311e-05
-4.69263e-05
6.54379e-05
-4.28794e-05
7.38683e-05
-3.98592e-05
8.20515e-05
-3.69485e-05
8.96967e-05
-3.35405e-05
9.6622e-05
-2.92993e-05
0.000102783
-2.40765e-05
0.000108315
-1.78027e-05
0.000113257
-1.02413e-05
0.000116153
-1.38704e-07
0.000118382
1.03403e-05
0.00011914
2.28743e-05
0.000118552
3.65911e-05
0.000117074
5.09224e-05
0.000116028
6.62366e-05
0.000116033
8.15162e-05
0.000105784
0.000122325
1.30383e-05
-1.28513e-05
2.7118e-05
-5.69179e-05
3.39997e-05
-7.26511e-05
3.76165e-05
-7.19965e-05
4.24584e-05
-6.60929e-05
4.95309e-05
-6.00875e-05
5.81229e-05
-5.55137e-05
6.73854e-05
-5.21379e-05
7.67124e-05
-4.91828e-05
8.57229e-05
-4.59562e-05
9.41845e-05
-4.1999e-05
0.000101907
-3.70166e-05
0.000108652
-3.08219e-05
0.000114021
-2.31713e-05
0.000118033
-1.42082e-05
0.000122504
-4.59394e-06
0.00012556
7.28416e-06
0.000126976
2.14587e-05
0.000127825
3.57414e-05
0.000128735
5.00128e-05
0.00013044
6.45317e-05
0.000132461
7.9495e-05
9.56833e-05
0.000142562
2.30785e-05
-3.59298e-05
4.20741e-05
-6.80512e-05
4.12666e-05
-4.56089e-05
3.84796e-05
-4.15506e-05
3.99122e-05
-3.98618e-05
4.51619e-05
-3.63069e-05
5.19743e-05
-3.19745e-05
5.85335e-05
-2.77672e-05
6.39289e-05
-2.35684e-05
6.79885e-05
-1.936e-05
7.10525e-05
-1.53593e-05
7.36702e-05
-1.17784e-05
7.63405e-05
-1.02312e-06
8.05901e-05
-3.20341e-08
8.76935e-05
-1.02406e-09
9.92393e-05
-9.59534e-10
0.000112357
9.71141e-07
0.000125726
7.08466e-06
0.000137546
1.7769e-05
0.000142922
3.56678e-05
0.000146121
6.13324e-05
0.00014641
7.92053e-05
9.07303e-05
0.000151363
2.42708e-05
-2.81606e-05
1.16724e-05
-3.36858e-06
9.52721e-06
-3.79889e-08
8.64636e-06
-3.89396e-10
7.49024e-06
-3.18608e-12
6.69649e-06
-2.02694e-14
6.2375e-06
-9.87506e-16
5.5319e-06
-3.52375e-15
4.40658e-06
-2.88165e-15
3.01259e-06
-3.34917e-16
1.57139e-06
-3.77797e-12
1.05626e-06
-2.64537e-12
3.31466e-08
-1.87041e-13
1.11252e-09
-2.30036e-14
6.38758e-11
-2.99283e-11
1.20893e-10
-2.65363e-10
1.3106e-06
-2.61563e-08
8.28321e-06
1.22287e-08
2.26199e-05
2.29187e-07
4.84877e-05
4.78728e-07
8.84276e-05
6.91005e-07
0.000127565
9.30986e-06
3.38842e-05
0.000153741
3.40696e-06
9.55652e-24
3.83815e-08
-1.98466e-22
3.92602e-10
-1.23767e-20
3.20615e-12
-5.25793e-19
2.01045e-14
-4.06398e-17
9.9013e-17
-2.9379e-16
1.11139e-17
-9.12092e-16
1.64314e-17
-3.49597e-15
1.22927e-17
-2.86415e-15
1.11262e-17
-1.63447e-16
1.32586e-14
-3.79087e-12
2.95249e-14
-2.67803e-12
2.14324e-14
-1.98926e-13
2.3999e-14
-4.54948e-14
3.93923e-11
-6.93163e-11
5.05639e-10
-7.86123e-10
2.081e-09
-2.82827e-08
3.30662e-08
-1.98723e-08
2.67766e-07
5.34849e-09
6.77151e-07
5.2837e-08
1.24535e-06
6.91493e-08
6.3307e-06
1.51578e-07
4.18867e-07
2.53055e-05
-1.09212e-24
9.86562e-24
-8.51307e-23
-1.14428e-22
-3.14412e-21
-9.32469e-21
-4.19455e-20
-4.87463e-19
2.02207e-20
-4.07271e-17
8.5224e-19
-4.57211e-16
-2.43834e-17
-4.37669e-15
-9.63751e-17
-1.13931e-14
1.71185e-17
-8.2275e-15
4.06826e-16
-2.0609e-16
5.63566e-13
-2.1099e-11
4.61731e-13
-1.16689e-11
9.29706e-14
-5.81396e-13
9.22576e-13
-8.95055e-13
4.07571e-09
-1.10675e-08
3.98631e-08
-8.02602e-08
7.06907e-08
-7.92382e-08
8.27536e-08
-6.85973e-08
6.78903e-08
-3.33235e-08
5.87082e-08
4.47869e-09
8.55804e-08
1.23075e-09
2.26089e-07
6.44391e-09
2.1321e-08
6.12628e-07
-1.85955e-23
1.18951e-23
-3.75252e-23
-7.36542e-23
-1.87977e-21
-1.32585e-20
-1.37029e-19
-1.10523e-18
-4.42438e-18
-1.13141e-16
-2.08406e-17
-2.59279e-15
-1.20746e-17
-1.34362e-14
8.43971e-17
-1.84206e-14
3.19567e-16
-1.21179e-14
9.97144e-16
-2.62338e-16
2.63832e-12
-2.16158e-11
2.1356e-12
-2.1451e-11
4.16704e-13
-2.26785e-13
4.09887e-11
-4.14383e-11
2.60183e-08
-5.44882e-08
6.52169e-08
-1.1742e-07
8.07235e-08
-9.27214e-08
1.09116e-07
-9.49664e-08
1.12775e-07
-3.49587e-08
6.91928e-08
-9.18835e-12
1.09919e-08
6.14906e-09
1.18597e-08
5.12507e-09
7.34552e-09
2.53e-08
-7.50803e-24
1.11564e-23
-1.64481e-23
-7.25255e-23
-1.36021e-21
-1.33509e-20
-2.86939e-19
-1.24273e-18
-4.99296e-19
-1.86886e-16
1.41867e-16
-3.51468e-15
6.84643e-16
-1.59345e-14
1.19566e-15
-1.85314e-14
1.08067e-15
-1.22185e-14
2.01954e-15
-3.47353e-16
2.02744e-12
-2.15663e-11
2.71541e-12
-1.98387e-11
4.25541e-12
-3.42532e-12
1.80203e-09
-1.8375e-09
3.07223e-08
-5.38662e-10
1.98487e-08
-9.67481e-08
1.99826e-08
-9.08164e-08
1.86337e-08
-9.15941e-08
2.9026e-09
-2.34884e-08
1.36368e-09
-2.46804e-09
3.85194e-09
2.21244e-09
4.98564e-09
3.72493e-09
5.74004e-09
6.30393e-09
-1.16549e-24
7.15452e-24
-5.53071e-24
-5.38276e-23
-5.28326e-22
-9.98529e-21
-6.00833e-20
-1.21681e-18
9.45643e-18
-1.92639e-16
3.44303e-16
-3.4953e-15
1.57186e-15
-1.52037e-14
2.1008e-15
-1.74967e-14
1.65737e-15
-1.02444e-14
4.34978e-15
-2.15716e-15
2.51787e-12
-2.11013e-15
2.66514e-12
-2.49762e-12
3.3796e-12
-9.97446e-11
5.48431e-10
-1.20815e-11
1.22359e-11
-2.55721e-12
-4.37533e-10
-2.30691e-14
-7.40809e-09
-1.8039e-09
-1.06602e-08
-5.2151e-08
-8.4533e-09
-3.61136e-08
-1.54476e-09
-2.02449e-08
3.07781e-10
1.79727e-10
1.42707e-09
2.31841e-09
4.44162e-09
2.45792e-09
-9.18789e-26
3.8089e-24
-5.42103e-26
-2.44159e-23
5.22276e-23
-4.3389e-21
4.94694e-20
-7.97155e-19
1.91514e-17
-1.7136e-16
4.43305e-16
-2.13561e-15
1.71737e-15
-8.91418e-15
2.28839e-15
-8.61199e-15
1.03588e-15
-6.10905e-15
4.48445e-16
-1.25166e-14
4.23416e-16
-1.20849e-14
1.01781e-13
-8.59545e-15
2.34081e-11
-7.32275e-11
2.27873e-12
-4.7687e-11
1.94753e-14
-2.98132e-13
3.19874e-17
-3.51442e-15
-1.8039e-09
-2.64804e-16
-6.71462e-09
-7.22997e-09
-6.32114e-09
-3.25018e-08
-7.46961e-10
-2.22328e-08
9.03332e-09
-6.01567e-09
1.53288e-08
4.61493e-09
1.80779e-08
9.66922e-08
-1.18636e-25
1.80498e-24
6.69586e-25
-5.75029e-24
1.44954e-22
-1.40501e-21
5.27694e-20
-2.98107e-19
1.87836e-17
-8.02323e-17
2.67707e-16
-7.66153e-16
8.85077e-16
-2.94766e-15
1.06095e-15
-2.77046e-15
1.09005e-15
-3.01984e-15
3.60772e-15
-1.45445e-14
4.46807e-15
-8.63389e-15
1.29748e-14
-1.25912e-14
1.58034e-11
-5.54832e-15
3.0092e-13
-1.54914e-15
3.44176e-15
-9.51794e-16
2.90205e-16
-4.98472e-16
2.88365e-17
-1.83516e-16
-3.12249e-10
-1.39999e-16
-6.61375e-10
-1.18132e-16
4.98406e-09
-1.35458e-16
1.35174e-08
-1.20554e-16
2.62919e-08
-5.0582e-19
5.18914e-09
1.74823e-08
-7.02006e-26
9.01142e-25
2.62119e-25
7.58966e-26
7.6081e-23
-5.15898e-22
2.36538e-20
-7.33318e-20
8.83504e-18
-2.17329e-17
9.8786e-17
-2.12582e-16
2.87652e-16
-6.59571e-16
3.54763e-16
-6.78885e-16
5.26369e-16
-1.00003e-15
4.29919e-15
-7.67578e-15
2.74073e-15
-8.12957e-15
4.08338e-15
-2.21895e-15
1.89692e-16
-2.14962e-15
1.45692e-16
-2.01662e-15
1.25329e-16
-1.45219e-15
9.28501e-17
-9.82087e-16
1.88014e-17
-2.8881e-16
-4.65747e-19
-9.12749e-17
-7.10958e-18
-7.88883e-17
-9.35561e-18
-1.00643e-16
-7.98298e-18
-8.87616e-17
6.53329e-18
-5.36274e-17
2.77165e-13
2.11734e-10
-3.69277e-26
5.9231e-25
-2.68155e-27
7.33381e-25
3.82237e-23
-2.6935e-22
6.44792e-21
-1.32419e-20
2.48996e-18
-4.12465e-18
2.72172e-17
-4.14696e-17
6.76328e-17
-1.13895e-16
8.85189e-17
-1.39416e-16
2.15426e-16
-2.60157e-16
2.20644e-15
-8.0679e-16
1.7003e-15
-2.07841e-15
5.08126e-16
-2.2228e-15
4.45791e-16
-1.9996e-15
4.27368e-16
-1.65133e-15
3.90542e-16
-1.323e-15
1.77118e-16
-7.8779e-16
2.75826e-17
-2.26425e-16
7.82694e-18
-4.55413e-17
6.01906e-18
-4.56758e-17
1.41793e-17
-7.04321e-17
3.88333e-17
-1.21777e-16
3.80264e-16
-1.63465e-16
-1.23566e-14
3.01907e-13
-2.35832e-26
4.8104e-25
-2.88717e-26
1.07867e-24
2.34184e-23
-1.48365e-22
1.23431e-21
-1.92749e-21
4.86597e-19
-5.74901e-19
5.18979e-18
-5.79964e-18
1.29585e-17
-1.53244e-17
1.94463e-17
-2.43848e-17
5.24587e-17
-5.75355e-17
1.83745e-16
-2.04576e-16
5.11107e-16
-8.09592e-16
6.32456e-16
-1.43083e-15
6.35041e-16
-1.04413e-15
4.60682e-16
-5.77652e-16
2.76903e-16
-3.32543e-16
1.02125e-16
-1.77766e-16
2.16082e-17
-5.68653e-17
1.28884e-17
-1.43263e-17
1.68907e-17
-1.36922e-17
4.29393e-17
-1.95509e-17
1.27289e-16
-3.54423e-17
2.72026e-16
-6.00035e-17
-8.96974e-17
2.62793e-16
-1.82789e-26
3.82049e-25
-4.51372e-26
1.13907e-24
1.27718e-23
-5.78166e-23
1.82352e-22
-2.68539e-22
6.86093e-20
-5.79322e-20
7.17012e-19
-5.83553e-19
1.91538e-18
-1.68861e-18
3.72409e-18
-3.9657e-18
1.18895e-17
-1.19076e-17
5.15083e-17
-3.61278e-17
2.08131e-16
-1.53542e-16
2.91882e-16
-1.72173e-16
1.56492e-16
-1.27022e-16
7.84034e-17
-6.35737e-17
4.59267e-17
-3.45471e-17
2.24818e-17
-1.98035e-17
5.64445e-18
-7.53249e-18
3.27127e-18
-1.30299e-18
3.80217e-18
-8.62968e-19
8.96686e-18
-1.63091e-18
2.62301e-17
-5.93425e-18
7.55335e-17
-1.69442e-17
-4.80937e-17
2.28786e-16
-1.38673e-26
2.61642e-25
-4.93427e-26
9.61205e-25
4.29281e-24
-1.19607e-23
2.45694e-23
-4.00289e-23
6.90477e-21
-4.0491e-21
7.29116e-20
-4.12078e-20
2.3253e-19
-1.79343e-19
6.7822e-19
-7.07414e-19
2.47438e-18
-2.57963e-18
8.44192e-18
-6.61782e-18
2.66136e-17
-1.53228e-17
2.90266e-17
-1.62794e-17
1.84462e-17
-1.27905e-17
8.44754e-18
-6.47519e-18
5.05357e-18
-2.81902e-18
2.88621e-18
-1.35528e-18
8.40963e-19
-4.68552e-19
2.5973e-19
-1.02698e-19
2.76933e-19
-1.0687e-19
1.03957e-18
-3.64921e-19
5.85806e-18
-1.93033e-18
2.45479e-17
-6.98372e-18
-3.04871e-17
1.08201e-16
-9.13302e-27
1.4697e-25
-4.24201e-26
6.49341e-25
8.06589e-25
-9.42981e-25
3.60001e-24
-5.21493e-24
4.77614e-22
-1.79403e-22
5.42475e-21
-2.27746e-21
2.79555e-20
-2.32601e-20
1.33387e-19
-1.39541e-19
5.32228e-19
-5.46571e-19
1.42319e-18
-1.37923e-18
2.60823e-18
-2.46383e-18
2.85902e-18
-2.48084e-18
2.03224e-18
-1.95972e-18
8.58466e-19
-9.43543e-19
3.83575e-19
-2.82286e-19
1.87478e-19
-8.69769e-20
5.54331e-20
-2.1843e-20
3.08697e-20
-9.54912e-21
4.53545e-20
-1.59641e-20
3.02097e-19
-9.87428e-20
2.16235e-18
-6.91924e-19
1.07436e-17
-3.26099e-18
-2.31954e-17
6.82997e-17
-4.97275e-27
6.52435e-26
-2.88927e-26
3.39161e-25
7.81981e-26
1.62303e-25
4.91091e-25
-3.61096e-25
2.08886e-23
-3.96203e-24
3.22758e-22
-1.61181e-22
4.00805e-21
-3.34226e-21
2.7116e-20
-2.45565e-20
1.11933e-19
-1.08481e-19
2.84905e-19
-2.88613e-19
4.2235e-19
-5.34302e-19
4.63252e-19
-5.36117e-19
3.32552e-19
-4.17905e-19
1.21284e-19
-1.9562e-19
3.08848e-20
-4.98977e-20
9.59515e-21
-1.09529e-20
3.36532e-21
-2.04732e-21
3.15591e-21
-1.37103e-21
9.36132e-21
-3.42478e-21
9.29708e-20
-3.24309e-20
8.19962e-19
-2.79679e-19
5.31035e-18
-1.87851e-18
-2.10726e-17
5.22353e-17
-2.1536e-27
2.17904e-26
-1.51038e-26
1.28856e-25
-1.11453e-26
1.5963e-25
4.32709e-26
2.12743e-26
4.50952e-25
-8.23535e-27
2.43185e-23
-1.56348e-23
5.83647e-22
-3.39014e-22
4.72413e-21
-3.23274e-21
2.20591e-20
-1.77714e-20
5.96576e-20
-5.18814e-20
9.20798e-20
-1.0257e-19
1.0155e-19
-1.03073e-19
7.16016e-20
-7.97695e-20
2.49423e-20
-3.74333e-20
4.7689e-21
-8.99591e-21
9.73097e-22
-1.28222e-21
4.39154e-22
-1.48963e-22
4.71626e-22
-1.58516e-22
2.4097e-21
-9.02393e-22
3.25133e-20
-1.19204e-20
3.43719e-19
-1.23963e-19
3.23527e-18
-1.3247e-18
-2.08022e-17
4.59533e-17
-7.04743e-28
5.08223e-27
-5.7103e-27
3.22943e-26
-1.09239e-26
6.08264e-26
-1.99123e-27
1.87079e-26
3.08659e-27
3.36172e-27
2.34415e-24
-8.08316e-25
5.73003e-23
-1.80913e-23
6.15556e-22
-3.07563e-22
3.56673e-21
-2.10742e-21
1.05331e-20
-6.79503e-21
1.69512e-20
-1.35891e-20
1.87767e-20
-1.35299e-20
1.31487e-20
-1.03689e-20
4.62231e-21
-4.94478e-21
7.24195e-22
-1.16334e-21
7.63665e-23
-9.12134e-23
4.32705e-23
-1.00636e-23
6.26645e-23
-2.35205e-23
7.3798e-22
-2.97984e-22
1.21281e-20
-4.57643e-21
1.53344e-19
-5.75649e-20
2.31862e-18
-1.04994e-18
-2.01372e-17
4.20866e-17
-1.61368e-28
7.35081e-28
-1.41686e-27
4.57882e-27
-4.12165e-27
9.39925e-27
-1.73145e-27
2.80506e-27
-3.92548e-28
5.85209e-28
1.15038e-25
1.01414e-29
2.99153e-24
-5.31672e-25
5.82632e-23
-2.11716e-23
4.13382e-22
-1.6578e-22
1.32152e-21
-5.70725e-22
2.10233e-21
-1.11161e-21
2.33243e-21
-1.09345e-21
1.61374e-21
-8.38606e-22
5.86744e-22
-4.25388e-22
7.92498e-23
-1.14115e-22
4.27519e-24
-1.0232e-23
3.08251e-24
-1.92628e-24
1.38872e-23
-6.76538e-24
2.5523e-22
-1.0478e-22
4.54159e-21
-1.69954e-21
6.93318e-20
-2.62245e-20
1.76712e-18
-8.28307e-19
-1.73319e-17
3.6295e-17
-2.29046e-29
5.26278e-29
-1.97876e-28
3.18502e-28
-6.26974e-28
6.5427e-28
-2.55252e-28
1.87917e-28
-6.71627e-29
3.7703e-29
-1.40985e-30
2.11083e-30
8.89567e-26
-1.95576e-26
3.93526e-24
-9.1504e-25
3.14302e-23
-7.78165e-24
1.05087e-22
-2.83478e-23
1.63123e-22
-5.15457e-23
1.76795e-22
-5.00353e-23
1.24831e-22
-3.923e-23
5.09861e-23
-2.18189e-23
8.42077e-24
-6.82124e-24
6.99339e-25
-7.37562e-25
5.9985e-25
-3.33547e-25
4.36719e-24
-1.90466e-24
8.68248e-23
-3.45261e-23
1.59867e-21
-5.77407e-22
2.9833e-20
-1.10651e-20
1.27305e-18
-5.80386e-19
-1.29478e-17
2.71532e-17
-1.60496e-30
2.44614e-50
-1.34891e-29
-2.45907e-48
-4.2727e-29
-7.60176e-45
-1.67209e-29
-2.47044e-37
-4.2301e-30
-2.22742e-33
-2.86845e-31
-3.60567e-33
3.16194e-27
-1.43106e-29
1.63204e-25
-1.31236e-26
1.42093e-24
-1.68418e-25
4.89342e-24
-6.94515e-25
7.21452e-24
-1.34012e-24
7.62929e-24
-1.33358e-24
5.69467e-24
-1.11035e-24
2.68854e-24
-6.6034e-25
5.44894e-25
-2.12147e-25
9.32911e-26
-2.85109e-26
9.71269e-26
-3.68658e-26
1.23644e-24
-5.0471e-25
2.69736e-23
-1.0367e-23
5.06768e-22
-1.76452e-22
1.16424e-20
-4.18337e-21
7.8814e-19
-3.42362e-19
-8.5369e-18
1.78803e-17
-7.26884e-52
1.61263e-50
2.04408e-49
-1.17377e-48
9.65825e-46
-8.98389e-45
4.26947e-38
-3.31392e-42
3.35541e-34
-1.27142e-37
6.57996e-34
-1.26498e-35
2.23393e-30
-3.78582e-32
2.29868e-27
-4.64323e-29
3.0167e-26
-6.55093e-28
1.16736e-25
-2.69033e-27
1.78689e-25
-5.74837e-27
1.97826e-25
-6.28537e-27
1.5966e-25
-5.53908e-27
8.04882e-26
-3.66218e-27
1.68396e-26
-1.45876e-27
6.59211e-27
-1.16869e-27
1.31828e-26
-5.63901e-27
3.24737e-25
-1.28161e-25
7.5648e-24
-2.85919e-24
1.43787e-22
-4.98641e-23
4.02598e-21
-1.40801e-21
4.09955e-19
-1.72898e-19
-4.9365e-18
1.03513e-17
-4.64562e-52
7.95217e-51
8.40237e-50
2.64143e-51
1.10566e-45
-9.06557e-50
2.77054e-43
-1.765e-45
1.33556e-38
-1.44805e-41
1.60982e-36
-2.50095e-39
5.71741e-33
-5.65258e-35
7.84811e-30
-1.62064e-31
1.12662e-28
-3.53315e-30
4.44103e-28
-1.94474e-29
7.92246e-28
-5.28952e-29
8.97993e-28
-9.20037e-29
7.95722e-28
-9.80093e-29
4.69183e-28
-9.09219e-29
2.41714e-28
-5.87608e-29
2.61478e-28
-7.48227e-29
2.76976e-27
-1.11026e-27
7.83169e-26
-3.05008e-26
1.94232e-24
-7.45832e-25
3.78368e-23
-1.38701e-23
1.23413e-21
-4.29728e-22
1.84058e-19
-7.71753e-20
-2.58077e-18
5.27834e-18
-2.21155e-52
2.61057e-51
-1.02772e-52
1.11339e-51
5.55324e-51
5.72541e-53
1.42707e-46
-1.7754e-48
1.46971e-42
-3.44832e-44
3.06938e-40
-3.11472e-42
8.20271e-36
-2.02125e-40
2.66267e-32
-7.53152e-37
6.07107e-31
-2.33747e-33
3.2915e-30
-6.13764e-32
8.68536e-30
-3.52192e-31
1.33122e-29
-9.74556e-31
1.49533e-29
-1.30841e-30
1.4388e-29
-1.19163e-30
1.10632e-29
-9.5633e-31
2.01594e-29
-6.58236e-30
5.5884e-28
-2.22857e-28
1.74045e-26
-6.86961e-27
4.71429e-25
-1.88535e-25
9.83332e-24
-3.98447e-24
3.42953e-22
-1.23843e-22
7.34319e-20
-3.14628e-20
-1.24921e-18
2.44638e-18
-6.99528e-53
4.28438e-52
-4.19291e-53
1.78604e-52
-3.29084e-54
2.48622e-53
1.37837e-49
-5.33954e-53
3.34691e-45
-1.13474e-48
3.62375e-43
-3.05594e-46
2.7831e-41
-2.73566e-44
1.20836e-37
-4.71168e-41
4.1992e-34
-1.33197e-36
1.14407e-32
-1.55227e-34
6.3947e-32
-1.21733e-33
1.54183e-31
-3.89596e-33
1.88176e-31
-5.84022e-33
1.76072e-31
-5.40485e-33
1.68953e-31
-2.57002e-32
2.59833e-30
-1.09246e-30
1.06409e-28
-4.21133e-29
3.63454e-27
-1.46278e-27
1.10394e-25
-4.59337e-26
2.6206e-24
-1.15116e-24
9.00163e-23
-3.50881e-23
2.679e-20
-1.19961e-20
-5.58632e-19
1.04578e-18
-1.1069e-53
2.40009e-64
-6.50086e-54
2.4564e-62
-1.37237e-54
-2.7025e-57
5.80269e-54
-3.12984e-55
1.05502e-49
-2.53408e-51
3.40757e-47
-2.7629e-49
3.59398e-45
-2.11623e-47
7.18628e-42
-1.69243e-45
2.30541e-37
-3.51047e-42
2.83938e-35
-1.84498e-38
2.16711e-34
-7.61088e-37
6.10304e-34
-5.04864e-36
7.87015e-34
-9.01911e-36
8.05885e-34
-6.83221e-35
8.0917e-33
-3.54972e-33
4.35626e-31
-1.6331e-31
1.85378e-29
-7.26315e-30
7.11622e-28
-2.89792e-28
2.46445e-26
-1.03886e-26
6.88886e-25
-3.07124e-25
2.31166e-23
-9.73084e-24
9.09632e-21
-4.27952e-21
-2.25689e-19
4.0817e-19
-5.99187e-66
1.59992e-64
-8.61561e-64
2.08302e-62
2.82403e-58
-7.42981e-62
2.19937e-56
-5.89813e-58
2.24768e-52
-3.91632e-53
2.9406e-50
-5.85187e-51
2.65298e-48
-6.27999e-49
2.47234e-46
-6.4879e-47
5.76039e-43
-4.67511e-45
3.3642e-39
-3.93287e-43
1.43533e-37
-4.13056e-41
8.1116e-37
-1.79346e-39
1.61373e-36
-1.08021e-37
1.87119e-35
-7.7955e-36
1.18324e-33
-4.26448e-34
5.97249e-32
-2.26823e-32
2.92361e-30
-1.12303e-30
1.28348e-28
-5.1616e-29
5.03666e-27
-2.07804e-27
1.64053e-25
-7.08405e-26
5.73732e-24
-2.49084e-24
2.8603e-21
-1.39484e-21
-8.01338e-20
1.41967e-19
-3.8673e-66
8.02069e-65
-6.99941e-64
1.01779e-62
4.77339e-63
-2.29944e-63
4.02023e-59
-2.40331e-59
3.32588e-54
-1.20277e-54
5.97807e-52
-2.0009e-52
7.56847e-50
-2.52363e-50
9.0471e-48
-2.97787e-48
7.33132e-46
-2.88957e-46
6.94413e-44
-2.45232e-44
8.00094e-42
-1.76219e-42
3.91186e-40
-1.49168e-40
2.644e-38
-1.12276e-38
2.16783e-36
-7.19292e-37
1.29645e-34
-4.52661e-35
7.57762e-33
-2.69893e-33
4.10119e-31
-1.5056e-31
2.06071e-29
-7.91797e-30
9.01145e-28
-3.56792e-28
3.35035e-26
-1.40109e-26
1.29519e-24
-5.5212e-25
8.11817e-22
-3.98277e-22
-2.43819e-20
4.2942e-20
-1.87791e-66
2.69526e-65
-3.2468e-64
3.34845e-63
5.62319e-64
1.62446e-64
1.54547e-60
-4.14078e-61
9.60254e-56
-3.22044e-56
1.91764e-53
-5.91751e-54
2.84319e-51
-8.20182e-52
3.87251e-49
-1.06615e-49
4.29478e-47
-1.08365e-47
4.10408e-45
-1.17256e-45
3.2684e-43
-1.03769e-43
3.11939e-41
-9.26636e-42
2.59695e-39
-7.02391e-40
1.8144e-37
-5.67909e-38
1.25287e-35
-3.9955e-36
8.16256e-34
-2.73624e-34
4.95769e-32
-1.71691e-32
2.82963e-30
-1.01517e-30
1.37839e-28
-5.23087e-29
5.86451e-27
-2.39773e-27
2.51198e-25
-1.03271e-25
1.99829e-22
-9.44786e-23
-6.20936e-21
1.1074e-20
-6.10409e-67
4.55832e-66
-1.00147e-64
5.57145e-64
-7.10353e-66
-8.42547e-69
2.48041e-62
-2.17985e-62
2.36118e-57
-5.6004e-58
5.20152e-55
-1.15965e-55
8.45686e-53
-1.83946e-53
1.26663e-50
-2.77231e-51
1.46298e-48
-3.30184e-49
1.78632e-46
-4.07389e-47
1.76824e-44
-4.02267e-45
1.74907e-42
-4.40718e-43
1.45681e-40
-3.79735e-41
1.29945e-38
-3.68428e-39
9.97546e-37
-2.88489e-37
7.43919e-35
-2.23359e-35
5.06451e-33
-1.62162e-33
3.23152e-31
-1.07368e-31
1.79553e-29
-6.47856e-30
8.86342e-28
-3.47573e-28
4.1083e-26
-1.63762e-26
4.06318e-23
-1.76361e-23
-1.29503e-21
2.39379e-21
-9.95609e-68
7.77382e-78
-1.5369e-65
-1.40007e-74
1.87261e-67
-1.55647e-65
1.19805e-63
-7.63032e-64
3.70691e-59
-6.21997e-60
9.19678e-57
-1.56841e-57
1.70977e-54
-2.84352e-55
2.96816e-52
-5.128e-53
4.01982e-50
-7.32773e-51
5.57611e-48
-1.06076e-48
6.14102e-46
-1.27681e-46
7.45809e-44
-1.60554e-44
7.07702e-42
-1.6391e-42
7.52646e-40
-1.79419e-40
6.4238e-38
-1.68831e-38
5.38927e-36
-1.4024e-36
4.23671e-34
-1.2041e-34
3.02054e-32
-9.26604e-33
1.96015e-30
-6.58909e-31
1.12622e-28
-4.14101e-29
5.68919e-27
-2.21525e-27
6.48329e-24
-2.48031e-24
-2.16034e-22
4.26128e-22
-1.62872e-79
4.87801e-78
6.97285e-76
6.01727e-75
1.08705e-66
-1.57494e-69
3.59093e-65
-9.29335e-66
3.64447e-61
-3.84631e-62
1.10016e-58
-1.19859e-59
2.33626e-56
-2.92435e-57
4.84649e-54
-5.88315e-55
7.86987e-52
-1.12689e-52
1.27912e-49
-1.8226e-50
1.71762e-47
-2.87438e-48
2.3856e-45
-3.97535e-46
2.6787e-43
-4.87883e-44
3.20536e-41
-6.34833e-42
3.28169e-39
-6.82427e-40
2.94831e-37
-6.60517e-38
2.73197e-35
-6.33571e-36
2.26493e-33
-6.1327e-34
1.7272e-31
-5.18634e-32
1.1589e-29
-3.88683e-30
6.64608e-28
-2.48288e-28
7.74861e-25
-2.5528e-25
-2.78965e-23
6.07544e-23
-9.70336e-80
2.31305e-78
-1.31775e-76
3.63805e-75
4.89165e-71
-8.92536e-72
3.81093e-67
-5.06205e-68
1.94189e-63
-1.02744e-64
7.23485e-61
-3.72973e-62
2.06506e-58
-1.29146e-59
4.77277e-56
-3.37523e-57
1.03747e-53
-8.54976e-55
1.88148e-51
-1.7297e-52
3.30406e-49
-3.55001e-50
5.0375e-47
-5.666e-48
6.7954e-45
-9.6638e-46
9.6466e-43
-1.41346e-43
1.1245e-40
-1.73898e-41
1.17791e-38
-2.09774e-39
1.21707e-36
-2.44052e-37
1.2671e-34
-2.82917e-35
1.14607e-32
-2.87388e-33
9.15788e-31
-2.64736e-31
6.25661e-29
-2.00607e-29
6.66545e-26
-1.84392e-26
-2.63479e-24
6.61329e-24
-4.28581e-80
7.3769e-79
-6.78e-77
1.19588e-75
2.33025e-73
-1.00115e-75
1.72745e-69
-1.56939e-71
4.32207e-66
-4.00342e-68
1.87374e-63
-3.15041e-65
7.57611e-61
-1.22346e-62
2.2726e-58
-5.78319e-60
6.51779e-56
-1.86175e-57
1.47741e-53
-6.20351e-55
3.36583e-51
-1.43119e-52
5.92408e-49
-4.18299e-50
1.10774e-46
-8.03701e-48
1.76221e-44
-1.37902e-45
2.34976e-42
-2.30576e-43
3.06753e-40
-4.18446e-41
3.84327e-38
-6.27861e-39
4.76836e-36
-8.11645e-37
5.16669e-34
-9.8368e-35
5.06677e-32