/*--------------------------------*- C++ -*----------------------------------*\
| =========                 |                                                 |
| \\      /  F ield         | OpenFOAM: The Open Source CFD Toolbox           |
|  \\    /   O peration     | Version:  5.x                                   |
|   \\  /    A nd           | Web:      www.OpenFOAM.org                      |
|    \\/     M anipulation  |                                                 |
\*---------------------------------------------------------------------------*/
FoamFile
{
    version     2.0;
    format      ascii;
    class       volScalarField;
    location    "0.35";
    object      alpha.water;
}
// * * * * * * * * * * * * * * * * * * * * * * * * * * * * * * * * * * * * * //

dimensions      [0 0 0 0 0 0 0];

internalField   nonuniform List<scalar> 
2268
(
1
1
1
1
1
1
1
1
1
1
1
1
1
1
1
1
1
1
1
0.996697
0.812866
0.753764
0.958788
1
1
1
1
1
1
1
1
1
1
1
1
1
1
1
1
1
1
1
1
0.943859
0.897163
1
1
1
1
1
1
1
1
1
1
1
1
1
1
1
1
1
1
1
1
1
1
0.999996
0.997314
1
1
1
1
1
1
1
1
1
1
1
1
1
1
1
1
1
1
1
1
1
1
0.995172
1
1
1
1
1
1
1
1
1
1
1
1
1
1
1
1
1
1
1
1
1
1
0.997308
1
1
1
1
1
1
1
1
1
1
1
1
1
1
1
1
1
1
1
1
1
1
0.999951
1
1
1
1
1
1
1
1
1
1
1
1
1
1
1
1
1
1
1
1
1
1
1
1
1
1
1
1
1
1
1
1
1
1
1
1
1
1
1
1
1
1
1
1
1
1
2.64821e-16
1.71983e-13
3.37036e-12
1.87328e-12
2.13067e-13
3.46527e-15
3.43172e-17
1.09617e-18
5.1355e-20
2.67731e-21
1.35552e-22
6.25051e-24
3.75329e-25
1.36329e-27
2.25477e-29
8.44416e-31
2.4959e-32
2.08222e-33
3.41005e-33
7.5737e-16
1.43549e-12
3.29035e-11
1.41357e-11
9.1931e-13
1.69861e-14
6.5678e-16
3.64002e-17
2.13952e-18
1.40942e-19
6.21898e-21
6.85642e-23
1.86257e-23
1.23816e-24
2.68331e-25
1.31072e-26
6.32686e-28
8.68591e-29
1.26804e-30
-2.16119e-32
7.6697e-17
4.36357e-15
1.88375e-13
1.80676e-12
1.40877e-13
2.1107e-14
1.95838e-15
1.77151e-16
3.64316e-17
1.93507e-18
2.64446e-20
2.69439e-21
6.32951e-22
7.17951e-23
3.06668e-24
1.49024e-25
2.05357e-26
1.92632e-28
0
4.28598e-15
3.0002e-09
1.41298e-09
8.84844e-13
8.88803e-13
2.5539e-13
4.55168e-14
1.1023e-14
4.57549e-15
4.02143e-16
7.43441e-18
3.02075e-19
1.23681e-19
9.41373e-21
3.69267e-22
2.34409e-23
2.32778e-24
1.84191e-26
8.87092e-06
0.000221172
3.04242e-09
2.26089e-08
1.72559e-10
8.84899e-13
8.94767e-13
2.2998e-13
7.79978e-14
4.08208e-14
1.04495e-14
2.88186e-16
2.91376e-17
1.36902e-17
8.07701e-19
3.31823e-20
2.12148e-21
1.83626e-22
1.29427e-24
6.46667e-05
0.00170465
0.000154106
2.54462e-11
2.51108e-11
1.56822e-12
4.75987e-13
1.06943e-13
8.83029e-14
6.64502e-14
7.74875e-14
2.95603e-15
2.63235e-15
1.09994e-15
6.54311e-17
3.26984e-18
1.61606e-19
2.14136e-20
1.75997e-22
0.000159591
0.00147127
0.000727762
2.01683e-11
2.08795e-10
2.91893e-10
4.85564e-13
1.44975e-13
4.03579e-13
4.42935e-13
7.27721e-13
1.82894e-13
8.06542e-14
5.2398e-14
6.52426e-15
2.42408e-16
9.6892e-18
6.07839e-19
3.41641e-21
7.1574e-06
2.56828e-05
0.000200633
2.02671e-11
3.13506e-11
1.70555e-13
1.71395e-13
1.4557e-13
1.63922e-13
3.98633e-13
1.34488e-12
3.55289e-12
1.68295e-13
5.97832e-13
7.50392e-14
2.42232e-15
8.20492e-17
1.04465e-18
0
1
1
1
1
1
1
1
1
1
1
1
1
1
1
1
1
1
1
1
1
1
1
0.999999
1
1
0.999999
0.999999
0.999999
1
1
1
1
1
1
1
1
1
1
1
1
1
1
1
1
1
1
1
0.999996
0.999969
0.999966
0.999971
0.999974
0.999975
0.999975
0.999974
0.999974
0.999974
0.99998
0.999983
0.999989
0.999967
0.999987
1
1
1
1
1
1
1
1
0.986927
0.907696
0.90195
0.89658
0.878931
0.856181
0.83047
0.799464
0.762611
0.721832
0.681112
0.642084
0.610427
0.598355
0.617951
0.666138
0.743129
0.840914
0.96112
1
1
1
0.847651
0.446353
0.198771
0.195027
0.183529
0.154059
0.125555
0.100272
0.0751719
0.0504419
0.0280111
0.00933482
5.41346e-10
5.12017e-10
1.75103e-07
4.42956e-07
0.00303093
0.021893
0.06747
0.154153
0.315619
0.550608
0.778735
0.0848463
-1.72078e-35
1.99011e-18
9.72575e-17
7.3891e-15
2.16193e-13
7.46791e-13
1.07579e-12
1.68438e-12
2.35929e-12
2.42449e-12
2.86552e-10
5.12013e-10
5.12017e-10
5.10871e-10
1.75083e-07
3.22113e-06
9.50676e-06
7.27687e-05
0.000262355
0.000281646
0.0107656
0.0707882
-8.98978e-20
-1.03625e-35
2.8955e-20
2.01872e-18
9.72574e-17
7.36621e-14
1.18601e-11
5.12003e-11
4.41647e-11
2.42448e-12
6.0334e-08
4.02026e-08
3.25888e-09
5.12014e-10
7.79402e-06
0.000235514
0.000437274
0.000556322
0.00039333
0.000351974
0.00015464
5.60361e-05
8.79811e-05
-1.1282e-19
4.14029e-20
8.17159e-17
6.18766e-15
5.9788e-13
1.69169e-11
1.1622e-10
2.20209e-10
1.53207e-10
2.77997e-12
3.07277e-07
3.0424e-07
1.13996e-08
6.75295e-10
0.000382677
0.000931629
0.000931753
0.000931753
0.000931753
0.000917421
0.000162293
3.60714e-05
3.65376e-05
-1.80281e-19
5.83894e-19
1.45872e-16
1.46577e-14
2.01725e-12
4.28443e-11
2.14389e-10
2.7952e-10
1.84746e-10
3.12021e-12
3.07445e-07
3.06853e-07
1.2362e-08
1.02717e-08
0.00056853
0.000922093
0.000931629
0.000931753
0.000455581
5.62365e-05
3.69866e-05
3.53182e-05
3.53477e-05
-1.9085e-19
6.18677e-19
1.42184e-16
1.60965e-14
2.56799e-12
4.9486e-11
2.31553e-10
2.77921e-10
1.73588e-10
3.46133e-12
2.58066e-07
1.21804e-07
2.47022e-07
2.4749e-05
6.15308e-10
0.000157776
0.000517283
0.000408308
0.000193226
0.000190581
4.50668e-05
3.53477e-05
3.532e-05
-1.25669e-19
4.41054e-19
8.83649e-17
1.37942e-14
2.56428e-12
4.2284e-11
1.79634e-10
2.07735e-10
1.22643e-10
3.04073e-11
3.00841e-11
6.19857e-09
1.3041e-06
1.59196e-07
1.12798e-11
9.66465e-12
1.98871e-12
0.000160511
0.000659344
0.000660407
0.000660399
0.000217063
0.000339727
-6.60552e-20
1.68494e-19
3.41059e-17
7.19837e-15
1.75913e-12
1.97509e-11
8.32658e-11
7.9621e-11
6.3961e-11
1.8668e-10
1.06511e-10
1.07632e-10
9.20652e-07
3.28695e-07
3.84905e-12
1.98871e-12
1.97301e-12
1.41171e-05
0.000239709
0.000437979
0.000555161
0.000572317
0.000487879
-3.03571e-20
3.33283e-20
1.10121e-17
2.33886e-15
6.64628e-13
6.29978e-12
2.38013e-11
2.30589e-11
2.8008e-11
1.97215e-10
1.14787e-10
1.60085e-10
5.73849e-12
5.62423e-12
5.55431e-12
5.55465e-12
1.97184e-12
6.31962e-13
6.45186e-13
6.5203e-13
6.65129e-13
9.63115e-13
7.9613e-06
-1.45884e-20
-8.06973e-22
4.34721e-18
5.28143e-16
1.60962e-13
1.60452e-12
4.88929e-12
5.22526e-12
8.16342e-12
9.99952e-11
8.25099e-11
2.79312e-11
1.78145e-11
1.64315e-11
1.64644e-11
1.16606e-11
3.5318e-12
6.17082e-13
6.40705e-13
1.16513e-12
1.97294e-12
3.02078e-12
-2.86703e-12
-9.21134e-21
-7.73261e-21
2.321e-18
8.99516e-17
2.83642e-14
2.88239e-13
7.91638e-13
1.01e-12
1.97367e-12
5.63976e-12
1.65889e-11
2.47863e-11
2.44455e-11
2.00348e-11
1.40298e-11
7.12927e-12
2.1251e-12
6.13048e-13
7.21582e-13
1.36772e-12
3.21053e-12
6.83298e-12
2.95584e-12
-7.19446e-21
-1.12343e-20
1.18727e-18
1.26213e-17
3.71598e-15
3.77429e-14
1.0085e-13
1.68519e-13
4.1478e-13
1.48852e-12
6.23658e-12
1.13964e-11
7.66148e-12
3.99329e-12
2.27698e-12
1.26092e-12
4.30052e-13
1.13182e-13
1.19775e-13
2.00592e-13
4.67611e-13
1.10374e-12
2.84661e-12
-5.50477e-21
-1.16836e-20
3.99058e-19
1.72391e-18
3.54269e-16
3.5885e-15
1.06887e-14
2.67191e-14
8.33685e-14
2.46798e-13
1.01344e-12
1.10155e-12
8.23813e-13
4.15262e-13
2.26551e-13
1.33308e-13
5.33188e-14
9.61569e-15
7.16218e-15
1.62401e-14
7.40751e-14
2.71044e-13
1.08504e-12
-3.63784e-21
-9.6898e-21
7.15616e-20
2.49622e-19
2.35376e-17
2.41933e-16
1.11613e-15
4.70042e-15
1.75863e-14
4.47731e-14
9.87686e-14
1.04921e-13
8.33935e-14
4.25756e-14
1.82359e-14
8.79606e-15
3.12387e-15
7.39017e-16
8.80986e-16
3.61045e-15
2.2756e-14
9.98798e-14
5.88548e-13
-1.97453e-21
-6.42499e-21
4.28828e-21
3.05628e-20
9.94562e-19
1.30489e-17
1.43073e-16
8.98336e-16
3.59132e-15
9.15703e-15
1.62807e-14
1.64376e-14
1.30983e-14
6.34962e-15
1.86272e-15
5.63158e-16
1.42232e-16
6.84517e-17
1.29093e-16
9.34852e-16
7.49136e-15
4.28436e-14
3.99773e-13
-8.47852e-22
-3.29145e-21
-1.67858e-21
1.84156e-21
2.09865e-20
9.17786e-19
1.97219e-17
1.49355e-16
6.78546e-16
1.83577e-15
3.45539e-15
3.4882e-15
2.74092e-15
1.29556e-15
3.28247e-16
6.94432e-17
1.27759e-17
9.46509e-18
2.71997e-17
2.924e-16
2.80896e-15
2.33479e-14
3.23282e-13
-2.74122e-22
-1.22613e-21
-1.61664e-21
-2.2073e-22
2.43957e-23
8.58788e-20
1.86944e-18
1.84749e-17
1.04422e-16
3.09931e-16
6.19967e-16
6.25971e-16
4.88188e-16
2.31668e-16
5.57319e-17
7.50678e-18
8.53427e-19
1.04458e-18
7.00216e-18
1.00742e-16
1.14893e-15
1.53869e-14
2.79019e-13
-6.19312e-23
-3.01314e-22
-6.03184e-22
-1.89647e-22
-3.4142e-23
4.13217e-21
9.40439e-20
1.66408e-18
1.16028e-17
3.78384e-17
7.60338e-17
7.59133e-17
5.85657e-17
2.82317e-17
6.69052e-18
4.94794e-19
5.79644e-20
1.58323e-19
2.22201e-18
3.57031e-17
4.87148e-16
1.10587e-14
2.31376e-13
-8.68191e-24
-4.19018e-23
-9.12788e-23
-2.77888e-23
-5.8039e-24
-1.00585e-25
2.67355e-21
1.08896e-19
8.59642e-19
2.97827e-18
5.81002e-18
5.72376e-18
4.41418e-18
2.26043e-18
6.12965e-19
5.36899e-20
1.12961e-20
4.48185e-20
7.28357e-19
1.20936e-17
2.00376e-16
7.66714e-15
1.68259e-13
-6.02795e-25
-2.86013e-24
-6.22406e-24
-1.81986e-24
-3.65279e-25
-2.04402e-26
9.4552e-23
4.46727e-21
3.82278e-20
1.39863e-19
2.5478e-19
2.47452e-19
1.9477e-19
1.08933e-19
3.41953e-20
3.61234e-21
1.83431e-21
1.17607e-20
2.20932e-19
3.73891e-18
7.59758e-17
4.63426e-15
1.08196e-13
-2.71888e-46
2.16938e-44
7.06885e-41
2.33211e-33
2.10577e-29
3.40753e-29
6.63541e-26
6.12338e-23
7.8861e-22
3.25804e-21
6.30065e-21
6.26415e-21
5.22272e-21
3.11036e-21
9.97169e-22
1.32714e-22
1.93628e-22
2.9223e-21
6.12963e-20
1.04827e-18
2.58988e-17
2.38186e-15
6.22576e-14
-1.74071e-46
8.94188e-45
8.20191e-41
1.50574e-38
5.76839e-34
5.73286e-32
1.71433e-28
2.10171e-25
2.96451e-24
1.21737e-23
2.60283e-23
2.84718e-23
2.50774e-23
1.66093e-23
6.62712e-24
5.46191e-24
2.92898e-23
6.97577e-22
1.57563e-20
2.76075e-19
7.93646e-18
1.06993e-15
3.18694e-14
-8.34337e-47
-2.25015e-47
3.98036e-46
7.85403e-42
6.43497e-38
1.10791e-35
2.49735e-31
7.14635e-28
1.55567e-26
8.55991e-26
2.32803e-25
4.0567e-25
4.31255e-25
3.9948e-25
2.58875e-25
3.43738e-25
5.60654e-24
1.56411e-22
3.86645e-21
7.26893e-20
2.23661e-18
4.32583e-16
1.50208e-14
-2.66488e-47
-9.33219e-48
-5.03957e-49
7.73741e-45
1.50028e-40
1.35024e-38
8.72684e-37
3.23845e-33
1.00119e-29
2.6232e-28
1.50218e-27
4.14846e-27
5.54723e-27
5.01271e-27
4.04238e-27
3.04433e-26
1.07357e-24
3.33401e-23
9.2412e-22
1.98531e-20
6.03945e-19
1.62149e-16
6.6213e-15
-4.25937e-48
-1.47394e-48
-2.14985e-49
2.28459e-49
4.83827e-45
1.29738e-42
1.15657e-40
1.98137e-37
5.57126e-33
6.46129e-31
5.04183e-30
1.60518e-29
2.39031e-29
2.20299e-29
1.11665e-28
4.98372e-27
1.92785e-25
6.73286e-24
2.12786e-22
5.40746e-21
1.61641e-19
5.73846e-17
2.70764e-15
-2.32599e-60
-1.9973e-58
2.29261e-53
1.31739e-51
1.06876e-47
1.16329e-45
8.90839e-44
7.11519e-42
1.43688e-38
7.49103e-35
3.06712e-33
2.02135e-32
3.59926e-32
2.85757e-31
1.55074e-29
7.10546e-28
3.16177e-26
1.26506e-24
4.53583e-23
1.34804e-21
4.22625e-20
1.90703e-17
1.00285e-15
-1.51276e-60
-1.67011e-58
3.08863e-58
2.48563e-54
1.64619e-49
2.45987e-47
2.64485e-45
2.73461e-43
1.93843e-41
1.6166e-39
1.66384e-37
7.31143e-36
4.42405e-34
3.27854e-32
1.77912e-30
9.44475e-29
4.65462e-27
2.13554e-25
8.55079e-24
2.90961e-22
1.0145e-20
5.78967e-18
3.27785e-16
-7.40474e-61
-8.0548e-59
8.6956e-60
1.00333e-55
4.99776e-51
8.29783e-49
1.04488e-46
1.22966e-44
1.19435e-42
1.00968e-40
7.15174e-39
6.11044e-37
4.58528e-35
2.89655e-33
1.81335e-31
1.0747e-29
5.95269e-28
3.10844e-26
1.38969e-24
5.42964e-23
2.11008e-21
1.53845e-18
9.23669e-17
-2.43135e-61
-2.61898e-59
-1.32085e-60
1.71414e-57
1.30825e-52
2.39666e-50
3.30971e-48
4.28394e-46
4.32866e-44
4.66993e-42
4.11732e-40
3.64985e-38
2.73658e-36
2.20739e-34
1.53838e-32
1.04454e-30
6.49494e-29
3.79677e-27
1.93939e-25
8.82126e-24
3.73021e-22
3.39949e-19
2.19439e-17
-4.02092e-62
-4.3134e-60
0
8.96834e-59
2.22477e-54
4.59027e-52
7.24762e-50
1.08694e-47
1.28757e-45
1.57781e-43
1.54653e-41
1.6826e-39
1.43756e-37
1.38248e-35
1.07184e-33
8.18674e-32
5.88229e-30
3.84506e-28
2.29559e-26
1.218e-24
5.63717e-23
5.93835e-20
4.30128e-18
-6.71076e-74
1.07362e-70
1.23386e-61
3.03613e-60
2.42497e-56
6.08829e-54
1.09814e-51
1.96723e-49
2.79357e-47
4.00911e-45
4.79055e-43
5.95848e-41
6.02257e-39
6.51425e-37
6.058e-35
4.95516e-33
4.1933e-31
3.18777e-29
2.23641e-27
1.38633e-25
7.30196e-24
7.87735e-21
6.78744e-19
-4.12453e-74
-4.59086e-71
6.07342e-66
3.6021e-62
1.47592e-58
4.57317e-56
1.10922e-53
2.21378e-51
4.20782e-49
6.73685e-47
1.05258e-44
1.43714e-42
1.74419e-40
2.23785e-38
2.36828e-36
2.25826e-34
2.12926e-32
2.03067e-30
1.68903e-28
1.24593e-26
7.82488e-25
7.71208e-22
8.33169e-20
-1.91763e-74
-2.76472e-71
3.41265e-68
1.93123e-64
3.89197e-61
1.40369e-58
4.82376e-56
1.2499e-53
3.13489e-51
6.27394e-49
1.27188e-46
2.00422e-44
3.37157e-42
4.84974e-40
5.86673e-38
6.96865e-36
7.96705e-34
9.04908e-32
9.00844e-30
8.14975e-28
6.03432e-26
5.33551e-23
7.51041e-21
-6.00452e-75
-9.07305e-72
3.747e-72
5.92272e-68
1.50209e-64
1.17383e-61
4.51988e-59
2.1161e-56
6.73641e-54
2.21756e-51
5.04445e-49
1.45358e-46
2.74664e-44
4.62884e-42
7.59886e-40
1.35368e-37
1.99043e-35
2.51505e-33
2.9788e-31
3.50045e-29
2.85277e-27
2.37819e-24
4.51044e-22
-9.51615e-76
-1.51995e-72
-7.69272e-74
7.26006e-73
3.5726e-69
5.00239e-66
3.87592e-63
2.5869e-60
1.15718e-57
6.55725e-55
2.37451e-52
7.90608e-50
3.40952e-47
9.52698e-45
2.50807e-42
5.83343e-40
1.25147e-37
2.39392e-35
3.96192e-33
7.71343e-31
6.68377e-29
8.2635e-26
1.52205e-23
6.295e-96
0
1.06944e-90
1.02287e-79
8.67983e-76
2.23303e-72
3.35628e-69
3.84316e-66
2.78794e-63
2.65487e-60
1.6325e-57
1.4147e-54
6.87291e-52
3.41893e-49
1.59216e-46
6.93787e-44
2.78321e-41
9.57474e-39
2.94127e-36
9.695e-34
8.295e-32
2.05737e-27
2.05328e-25
1.10939e-106
1.93621e-104
-7.36115e-98
3.71001e-93
6.69197e-89
4.1957e-106
1.39549e-81
4.71906e-78
8.54706e-75
2.19303e-71
3.65348e-68
8.07308e-65
1.1414e-61
1.56331e-58
1.99053e-55
2.35854e-52
3.83418e-49
3.39472e-46
2.86442e-43
1.16806e-40
1.06358e-34
1.0036e-29
4.93769e-28
0
-4.18756e-123
-3.00486e-125
-1.49274e-127
8.48583e-107
4.03146e-106
1.01881e-95
5.15564e-97
0
1.75699e-85
6.11596e-105
-2.98631e-108
0
1.28261e-72
1.64848e-69
1.25899e-66
9.70991e-64
2.76126e-60
0
4.38946e-55
2.60885e-47
3.18201e-42
1.84363e-40
1
1
0.840115
0.123135
0.999999
0.999996
0.99573
0.850125
0.999999
0.999999
0.999996
0.999866
0.999999
0.999999
0.999999
0.999992
0.913499
0.976051
0.999992
0.999863
0.147964
0.212923
0.301472
0.401031
0.00012341
0.000166634
0.000212494
0.000470278
3.80561e-05
4.05582e-05
4.254e-05
4.41771e-05
3.5459e-05
3.56467e-05
3.58963e-05
3.61912e-05
3.53476e-05
3.5459e-05
3.56467e-05
3.58963e-05
0.00115643
0.00117349
0.00117682
0.00118872
0.000262373
0.00022239
0.000233985
0.000230852
6.62593e-09
8.468e-09
1.14513e-08
1.33334e-08
-5.10768e-12
-4.93624e-11
1.6102e-11
5.05253e-11
5.26595e-12
6.70678e-12
1.12068e-11
1.628e-11
5.05631e-12
7.28255e-12
1.0799e-11
1.50167e-11
2.30987e-12
3.66226e-12
6.26347e-12
9.42077e-12
1.43161e-12
2.44071e-12
4.70524e-12
7.4871e-12
1.07987e-12
1.97885e-12
3.94375e-12
6.67469e-12
9.26643e-13
1.78654e-12
3.42701e-12
6.41483e-12
8.22132e-13
1.58957e-12
3.25694e-12
5.54066e-12
6.78366e-13
1.29389e-12
3.38189e-12
4.32551e-12
4.93862e-13
9.34896e-13
3.1996e-12
3.24725e-12
3.28814e-13
5.79989e-13
1.52018e-12
2.49135e-12
1.86903e-13
3.4385e-13
7.59251e-13
1.4775e-12
9.53209e-14
1.7873e-13
4.13443e-13
9.23675e-13
4.46653e-14
8.64239e-14
2.38471e-13
6.6983e-13
1.95631e-14
4.01279e-14
1.5081e-13
5.31652e-13
7.89793e-15
1.8029e-14
9.71901e-14
3.95478e-13
2.86637e-15
7.70622e-15
5.75544e-14
2.596e-13
9.13125e-16
3.06341e-15
2.98757e-14
1.53886e-13
2.50486e-16
1.10932e-15
1.35975e-14
8.07373e-14
5.84199e-17
3.58155e-16
5.2346e-15
3.64118e-14
1.14776e-17
1.00266e-16
1.65754e-15
1.31126e-14
1.86621e-18
2.36783e-17
4.20659e-16
3.44548e-15
2.4039e-19
4.53624e-18
8.08386e-17
5.9347e-16
2.24405e-20
6.39481e-19
1.08807e-17
5.87239e-17
1.28627e-21
5.13635e-20
8.45294e-19
2.90463e-18
3.01333e-23
8.99407e-22
1.63221e-20
1.6686e-19
1.6509e-25
4.36689e-24
1.88306e-22
9.02443e-21
1.04299e-28
9.13809e-29
1.40031e-26
9.05163e-25
1.19606e-41
2.18225e-60
4.2622e-63
0
2.56828e-05
0.0259155
0.000129734
2.02671e-11
2.60761e-11
1.09148e-08
3.71148e-08
1.93495e-10
1.35808e-09
6.17803e-11
4.89948e-11
1.12596e-10
2.52976e-11
3.04012e-11
3.18032e-12
1.06757e-13
3.72783e-15
3.51301e-16
1.89635e-18
0.708036
0.495055
0.000159737
0.025814
1.15415e-10
1.98834e-10
4.70423e-10
2.11853e-08
3.14426e-08
2.72454e-09
9.66064e-08
1.16558e-08
1.12978e-09
7.5749e-10
8.27616e-11
2.32963e-12
8.66826e-14
1.29886e-14
2.27847e-16
0.999542
0.997804
0.570423
0.746687
0.651882
0.157649
0.0444816
2.3434e-08
6.59622e-08
7.53504e-07
6.37282e-06
4.55543e-07
5.40436e-08
4.02494e-08
4.0673e-09
1.0869e-10
3.29614e-12
5.02276e-14
3.93741e-15
0.999838
0.999721
0.999383
0.99904
0.998896
0.907898
0.882587
0.816444
0.35998
0.0372163
9.91658e-06
3.95189e-06
1.64618e-06
1.70755e-06
1.36518e-07
3.46624e-09
4.41505e-11
1.40962e-12
-2.40873e-15
0.999725
0.999712
0.999707
0.999359
0.999017
0.998896
0.998317
0.997993
0.974553
0.91194
0.742519
0.201287
5.36815e-06
5.30072e-05
3.69355e-06
1.02621e-07
3.91732e-09
1.52022e-11
-2.18094e-12
0.559558
0.717413
0.802522
0.869461
0.966626
0.998317
0.997993
0.997993
0.997993
0.997448
0.995725
0.96606
0.634291
0.0626994
7.6511e-05
2.6876e-06
1.04367e-07
3.44195e-10
-1.1509e-12
0.0103489
0.0432712
0.0860366
0.136286
0.203114
0.292539
0.377289
0.463793
0.654623
0.980431
0.991961
0.989589
0.989228
0.733326
0.09949
5.20483e-05
2.56052e-06
1.8792e-08
-4.16441e-10
4.96289e-05
7.91547e-05
0.000134719
0.000221379
0.00080363
0.00167741
0.00186085
0.00257978
0.0281426
0.12556
0.302605
0.760468
0.984543
0.973413
0.671949
0.0763093
4.83144e-05
2.55297e-07
-6.16201e-11
3.68937e-05
4.96317e-05
9.26816e-05
0.000141849
0.00114324
0.00195506
0.00176575
0.000371861
2.60209e-05
8.34467e-05
0.000323032
0.0642714
0.48724
0.961985
0.946897
0.548741
0.0375634
5.12942e-06
-6.66144e-08
3.63125e-05
0.000705602
0.0013596
0.00135741
0.00116895
0.000224834
5.8892e-05
7.40182e-06
1.00385e-06
4.14799e-06
1.80363e-05
0.000104344
0.00294393
0.458982
0.931356
0.862787
0.310714
0.000730829
6.13128e-06
0.00120494
0.00119949
0.000452029
9.58891e-05
1.74086e-05
4.89521e-08
1.76186e-08
3.97615e-08
7.32193e-08
2.48755e-07
1.31192e-06
7.47999e-06
2.7266e-05
0.021375
0.640605
0.85243
0.614097
0.0661864
4.22502e-06
0.000197803
9.31479e-05
3.9843e-07
2.12037e-08
4.85706e-09
1.00502e-09
3.91329e-10
2.80853e-08
4.22615e-08
7.30404e-08
2.57095e-07
9.40689e-07
1.78769e-06
3.36465e-07
0.239356
0.808158
0.731995
0.169957
-3.38499e-08
1.29623e-08
7.93262e-09
1.6266e-09
6.9333e-10
3.13868e-10
1.59393e-10
1.26967e-10
3.0204e-08
1.39036e-06
1.66082e-06
8.38233e-07
6.77507e-07
3.36465e-07
2.22949e-07
0.0137223
0.656189
0.724194
0.286622
-1.80831e-07
8.7165e-11
1.36311e-10
2.07193e-10
3.95467e-10
2.74892e-10
1.58519e-10
1.26967e-10
1.26967e-10
3.31597e-06
5.45952e-06
5.55006e-06
2.7659e-06
2.24608e-07
2.24843e-07
2.23098e-07
0.444745
0.713219
0.350794
0.00133576
3.89779e-11
8.84921e-11
1.94752e-10
4.11591e-10
5.52807e-10
5.19192e-10
2.95623e-10
1.50123e-10
1.613e-10
4.22595e-06
5.61998e-06
5.65008e-06
1.54982e-06
2.24843e-07
2.59442e-07
0.244341
0.697662
0.392219
0.00533489
3.76073e-11
8.6825e-11
2.17874e-10
4.65836e-10
5.62405e-10
5.89935e-10
3.04078e-09
3.16231e-09
1.49563e-09
1.89767e-09
4.84643e-06
5.65008e-06
5.64417e-06
4.18457e-07
2.55374e-07
0.103636
0.669321
0.439975
0.0146388
3.19842e-11
1.94474e-10
4.98423e-10
6.44173e-10
6.06205e-10
5.93864e-10
5.99189e-10
8.53616e-08
8.61242e-08
3.04648e-08
3.15446e-07
5.65008e-06
5.54259e-06
7.96488e-07
2.12442e-07
0.028623
0.618441
0.479213
0.030357
3.43066e-11
3.18136e-10
7.63587e-10
8.86582e-10
1.15833e-09
7.59125e-10
6.06777e-10
6.21659e-10
5.27986e-07
1.8985e-06
2.41005e-06
3.25074e-06
2.42403e-06
3.69124e-07
1.97178e-07
2.1244e-07
0.545582
0.496836
0.0452
2.58449e-11
3.01438e-10
7.36542e-10
8.17339e-10
2.07203e-09
4.31972e-09
1.19812e-09
6.22589e-10
9.71169e-07
2.552e-06
2.552e-06
2.35704e-06
4.30569e-07
1.97178e-07
1.92725e-07
1.97177e-07
0.464762
0.493912
0.0822262
1.24975e-11
2.46155e-10
7.53416e-10
7.56492e-10
2.03398e-09
7.11624e-09
1.05349e-09
6.52589e-10
1.14586e-09
1.29551e-06
2.552e-06
2.48078e-06
4.35642e-07
1.89219e-07
1.91404e-07
1.92725e-07
0.414278
0.49099
0.118117
1.65993e-11
5.08123e-10
1.17661e-09
9.92104e-10
6.32389e-10
6.62521e-10
7.83999e-08
1.09205e-07
7.65382e-08
1.27739e-07
1.53851e-06
1.53252e-06
3.50132e-07
1.82276e-07
1.89219e-07
0.0158301
0.34762
0.486783
0.109755
7.47748e-11
9.65221e-10
1.27306e-09
7.72863e-10
2.5531e-10
4.93889e-08
5.80717e-07
7.51038e-07
2.90961e-07
1.72484e-07
2.15847e-07
2.23177e-07
1.79665e-07
1.7862e-07
1.82276e-07
0.118376
0.2662
0.267207
0.113572
1.2151e-10
9.74039e-10
1.12369e-09
6.84869e-10
2.34982e-10
6.06621e-07
9.40695e-07
9.40695e-07
6.26524e-07
1.81681e-07
1.50529e-07
1.67213e-07
1.62919e-07
1.71841e-07
0.056597
0.202996
0.138946
0.0422239
0.0572631
2.73143e-11
8.1046e-10
8.36051e-10
6.44541e-10
2.24229e-10
5.73965e-07
9.3258e-07
9.40695e-07
5.3255e-07
1.49356e-07
1.3981e-07
1.48341e-07
1.5089e-07
1.59931e-07
0.198294
0.202996
0.0539547
0.0054087
-1.65232e-07
1.05676e-11
4.55816e-10
8.1917e-10
6.56976e-10
2.14573e-10
4.71053e-08
3.06785e-07
1.81011e-07
1.33056e-07
1.35278e-07
1.38291e-07
1.3981e-07
1.4428e-07
0.114945
0.232613
0.201335
0.0233413
0.00325697
-5.50708e-09
9.72917e-12
3.14789e-10
7.97263e-10
6.33085e-10
2.0843e-10
9.537e-08
4.36784e-08
4.22941e-08
4.22942e-08
4.72063e-08
9.64294e-08
1.4428e-07
0.116459
0.232739
0.233336
0.19205
0.0186832
0.00369338
-1.34614e-11
1.01683e-11
2.52307e-10
6.62429e-10
3.30308e-10
2.17523e-10
3.02275e-07
1.36722e-07
4.22428e-08
4.72057e-08
3.99476e-07
0.015029
0.181501
0.233117
0.233336
0.233053
0.14218
0.0116449
0.00510714
-8.59029e-15
1.20428e-11
1.93243e-10
3.34572e-10
1.04013e-10
8.36545e-11
2.96636e-07
2.86638e-08
3.97156e-08
2.98231e-07
0.00295562
0.199712
0.233104
0.233309
0.233121
0.160702
0.0469068
0.00770685
0.00326224
1.00381e-30
1.28096e-11
1.13803e-10
1.8087e-10
5.06225e-11
8.58698e-11
7.73625e-08
2.24463e-08
2.56903e-08
4.77884e-06
0.0726128
0.203289
0.206552
0.163684
0.0856252
0.00789305
0.00627031
0.00907181
0.000234314
-1.85645e-22
1.04121e-11
5.61006e-11
1.49109e-10
4.63413e-11
1.1535e-08
1.83382e-08
1.97395e-08
1.78538e-08
0.0260865
0.0930916
0.0545851
0.0162927
0.00444709
0.000123341
8.0616e-05
0.000474416
0.00917823
0.000123734
-5.80139e-24
6.61883e-12
3.42262e-11
1.45509e-10
4.52934e-11
1.08154e-08
6.7617e-08
2.2451e-08
0.000626642
0.0525912
0.0563052
0.00167905
4.10162e-05
8.04755e-06
9.65364e-06
1.47684e-05
0.000180623
0.00901603
0.000102449
3.63354e-25
3.54353e-12
1.94142e-11
1.41913e-10
4.58611e-11
2.9151e-11
2.0418e-08
2.74036e-08
0.00193532
0.0522857
0.0224208
4.10182e-05
1.08551e-05
2.25612e-06
1.79952e-06
3.63009e-06
0.000176377
0.00752665
4.8514e-05
4.2299e-23
1.61747e-12
6.67608e-12
8.40819e-11
2.55865e-11
1.72733e-11
2.99011e-11
3.64266e-06
2.69623e-06
0.0407833
0.0228086
0.00198137
2.25678e-06
1.4817e-06
1.2923e-06
2.00391e-06
0.000134138
0.00144932
5.95953e-05
3.6622e-08
5.42075e-13
2.20641e-12
1.7651e-11
6.163e-12
6.49854e-12
4.27947e-08
1.3631e-07
7.93236e-07
0.0189648
0.0684825
0.0165088
1.4816e-06
1.23793e-06
1.24991e-06
1.50583e-06
5.21505e-05
5.31575e-05
8.73963e-05
9.05522e-07
1.23866e-13
6.49997e-13
5.52921e-12
5.58462e-12
1.60702e-09
8.46787e-10
1.50891e-08
0.000863952
0.0424365
0.0684825
0.0220415
1.23793e-06
1.23657e-06
1.23793e-06
1.56417e-06
2.96071e-05
3.07277e-05
9.16271e-05
1.6363e-06
1.97955e-14
1.68898e-13
2.48178e-12
6.85637e-12
3.19941e-13
-8.9059e-12
1.60587e-05
0.000158331
6.40453e-07
0.0683522
0.0281655
0.000660136
1.23793e-06
1.23793e-06
1.54162e-06
1.74132e-05
2.02049e-05
6.17163e-05
1.51974e-06
2.27026e-15
3.9743e-14
8.07432e-13
2.39056e-13
2.37873e-13
6.68217e-09
7.51043e-06
7.83224e-06
3.588e-07
0.0447374
0.0909222
0.0132891
1.23793e-06
1.20094e-06
1.32938e-06
5.94377e-06
7.79624e-06
5.94047e-06
3.97108e-07
2.25096e-16
6.76811e-15
1.76231e-13
1.63317e-13
1.17872e-12
3.69022e-09
3.3912e-11
1.6971e-10
1.42466e-08
0.0247884
0.09379
0.0162283
1.20094e-06
1.14502e-06
1.38298e-06
1.95578e-06
2.61491e-06
2.85851e-07
2.06999e-07
2.08609e-17
6.85791e-16
1.81666e-14
9.77403e-14
2.01022e-11
2.20907e-29
2.09957e-11
2.08448e-07
1.48351e-07
0.0340349
0.0956411
0.0528824
0.0012254
1.02558e-06
9.41619e-07
1.22722e-06
9.9977e-07
1.7261e-07
1.70834e-07
7.88274e-19
3.06742e-17
7.00325e-16
1.63037e-14
-4.16931e-16
-1.21683e-16
-3.91952e-17
7.9919e-11
4.6796e-07
0.018289
0.0969272
0.0967353
0.0104929
8.65412e-07
8.02555e-07
1.5551e-06
3.14717e-07
1.07092e-07
7.43112e-08
4.76112e-22
8.92685e-20
7.67657e-18
1.25795e-16
-2.47099e-15
-1.94019e-16
-4.32341e-16
0
-2.99893e-25
5.46805e-06
0.0967325
0.0969272
0.0172775
0.000527024
7.78339e-07
1.50917e-06
1.60742e-07
2.01655e-08
2.27418e-09
0
0
-6.76104e-23
-5.36053e-19
-1.05663e-15
-4.60555e-17
-5.14884e-16
-1.15085e-15
-2.69635e-14
-2.20093e-14
0.00120988
0.0834268
0.03752
7.78339e-07
7.53018e-07
5.96858e-07
2.22955e-07
1.87593e-08
6.57858e-26
)
;

boundaryField
{
    leftWall
    {
        type            zeroGradient;
    }
    rightWall
    {
        type            zeroGradient;
    }
    lowerWall
    {
        type            zeroGradient;
    }
    atmosphere
    {
        type            inletOutlet;
        inletValue      uniform 0;
        value           nonuniform List<scalar> 
46
(
0
0
0
0
0
0
0
0
0
0
0
0
0
0
0
0
0
0
0
0
0
0
0
0
0
0
0
0
0
0
0
0
0
0
0
0
0
0
0.0834268
0.03752
7.78339e-07
7.53018e-07
5.96858e-07
2.22955e-07
1.87593e-08
6.57858e-26
)
;
    }
    defaultFaces
    {
        type            empty;
    }
}


// ************************************************************************* //
