/*--------------------------------*- C++ -*----------------------------------*\
| =========                 |                                                 |
| \\      /  F ield         | OpenFOAM: The Open Source CFD Toolbox           |
|  \\    /   O peration     | Version:  5.x                                   |
|   \\  /    A nd           | Web:      www.OpenFOAM.org                      |
|    \\/     M anipulation  |                                                 |
\*---------------------------------------------------------------------------*/
FoamFile
{
    version     2.0;
    format      ascii;
    class       volScalarField;
    location    "0.35";
    object      p;
}
// * * * * * * * * * * * * * * * * * * * * * * * * * * * * * * * * * * * * * //

dimensions      [1 -1 -2 0 0 0 0];

internalField   nonuniform List<scalar> 
2268
(
1077.67
1081.43
1092.47
1097.93
1097.98
1093.21
1086.94
1081.78
1079.09
1079.56
1083.79
1092.47
1106.46
1126.96
1154.96
1191.46
1236.6
1288.32
1340.32
1379.68
1394.08
1386.02
1445.19
1017.7
1021.41
1032.27
1037.74
1037.72
1032.98
1026.79
1021.72
1019.08
1019.55
1023.72
1032.29
1046.06
1065.84
1092.64
1127.49
1171.09
1222.43
1276.65
1319.32
1337.95
1317.08
1380.52
956.573
960.266
970.81
976.233
976.102
971.4
965.378
960.479
957.928
958.38
962.429
970.773
984.222
1003.65
1030
1063.96
1105.48
1153.21
1203.97
1248.17
1273.9
1266.87
1331.15
894.446
898.021
908.186
913.48
913.177
908.541
902.757
898.097
895.666
896.08
899.935
907.948
920.943
939.809
965.405
998.248
1038.23
1083.72
1131.72
1176.13
1211.68
1230.83
1299.29
831.499
834.769
844.506
849.578
849.056
844.5
839.006
834.624
832.315
832.648
836.225
843.791
856.196
874.332
899.024
930.748
969.405
1013.67
1060.91
1106.86
1152.17
1192.76
1272.6
767.955
770.644
779.897
784.658
783.877
779.411
774.226
770.121
767.898
768.079
771.279
778.273
789.943
807.196
830.844
861.379
898.808
942.185
989.654
1038.03
1090.18
1144.07
1231.47
704.057
705.849
714.456
718.754
717.676
713.337
708.496
704.653
702.454
702.387
705.092
711.378
722.162
738.369
760.817
790.042
826.221
868.798
916.645
967.427
1023.65
1084.01
1171.87
640.003
640.673
648.133
651.707
650.32
646.198
641.768
638.189
635.948
635.525
637.594
643.014
652.749
667.767
688.984
716.672
751.429
793.086
841.01
893.721
952.199
1016.14
1090.93
986.718
986.811
986.853
986.922
986.988
987.078
987.183
987.308
987.46
987.64
987.846
988.07
988.306
988.542
988.767
988.967
989.131
989.246
989.303
986.644
986.754
986.79
986.861
986.924
987.013
987.119
987.243
987.395
987.577
987.783
988.009
988.246
988.484
988.711
988.913
989.078
989.195
989.252
986.552
986.701
986.72
986.796
986.853
986.944
987.051
987.175
987.326
987.509
987.717
987.945
988.185
988.427
988.657
988.863
989.032
989.151
989.209
986.44
986.651
986.641
986.727
986.774
986.87
986.98
987.101
987.251
987.436
987.647
987.878
988.123
988.37
988.607
988.819
988.993
989.116
989.176
986.295
986.617
986.553
986.657
986.686
986.791
986.906
987.02
987.171
987.358
987.572
987.809
988.059
988.314
988.559
988.779
988.96
989.089
989.152
986.108
986.62
986.448
986.584
986.586
986.705
986.831
986.933
987.082
987.274
987.493
987.736
987.994
988.258
988.513
988.745
988.935
989.071
989.138
985.813
986.552
986.268
986.502
986.472
986.611
986.758
986.838
986.987
987.185
987.407
987.659
987.926
988.201
988.47
988.715
988.918
989.063
989.134
985.56
986.677
985.979
986.484
986.351
986.509
986.691
986.724
986.879
987.09
987.318
987.58
987.855
988.144
988.43
988.691
988.908
989.064
989.141
539.615
538.417
543.126
545.506
543.742
539.916
536.004
532.67
530.177
528.984
529.822
533.602
541.342
554.045
572.968
598.534
631.228
671.456
719.166
773.789
833.171
896.051
937.182
404.524
398.957
398.53
399.624
397.418
393.417
389.423
385.642
382.128
379.332
378.016
379.107
383.648
391.762
402.66
418.571
448.906
485.97
531.861
586.286
645.771
710.958
781.46
274.873
263.542
254.398
251.363
247.519
242.456
237.512
232.388
226.915
221.569
217.19
214.827
217.227
226.556
242.201
262.637
273.926
301.393
343.154
395.29
452.527
513.458
582.111
158.146
135.67
110.615
102.288
97.8212
92.7307
87.6185
81.9735
75.499
68.4792
61.3388
53.9793
48.6908
46.6207
46.1718
47.6992
53.0256
72.3785
109.704
161.593
222.18
284.78
350.665
70.3407
37.038
19.1299
19.258
18.6977
16.8955
15.2081
13.7557
12.3452
11.0136
9.90791
8.68521
8.24543
8.31384
8.58619
8.85798
9.27217
10.6757
13.8333
19.4812
30.0231
52.0572
97.6226
12.0109
7.07666
6.75506
6.96557
7.02422
7.08595
7.17684
7.29088
7.42625
7.58153
7.74409
7.8667
8.02166
8.20927
8.47224
8.74919
8.96683
9.12059
9.24406
9.3741
9.61978
10.3708
13.9936
6.5773
6.5793
6.64392
6.75623
6.83508
6.90527
6.99689
7.10483
7.22897
7.36722
7.51871
7.66823
7.8193
7.99389
8.22672
8.45414
8.62454
8.77056
8.90531
9.0064
9.16476
9.35885
9.65278
6.42661
6.48931
6.5148
6.56966
6.63665
6.70836
6.79591
6.89683
7.0116
7.137
7.27383
7.41077
7.55061
7.70037
7.89286
8.06656
8.15872
8.1692
8.18976
8.40243
8.73686
9.12128
9.56504
6.24753
6.27355
6.31171
6.36509
6.42921
6.49625
6.58118
6.67691
6.78366
6.89997
7.02636
7.15371
7.28304
7.41253
7.52563
7.65869
7.76705
7.80892
7.8715
8.03796
8.38456
8.85615
9.35061
6.04531
6.06749
6.10426
6.15014
6.20858
6.27587
6.35573
6.4465
6.54725
6.65703
6.77541
6.8972
7.02245
7.14847
7.24169
7.35397
7.48195
7.6273
7.81566
8.06751
8.38331
8.77634
9.23407
5.82792
5.84686
5.88182
5.92258
5.97727
6.04251
6.11884
6.20567
6.30213
6.4075
6.52104
6.64068
6.76607
6.89143
7.01389
7.14326
7.26331
7.42098
7.64904
7.95082
8.37818
8.71752
9.03416
5.59663
5.61303
5.64311
5.68292
5.73461
5.79733
5.87082
5.95463
6.04813
6.15076
6.26193
6.38089
6.50689
6.63814
6.77334
6.91775
7.073
7.23043
7.42466
7.68207
7.98945
8.36167
8.74933
5.35132
5.36553
5.39282
5.43087
5.48027
5.54068
5.61174
5.69315
5.78451
5.88542
5.99554
6.11458
6.24227
6.37837
6.52342
6.68046
6.85296
7.04373
7.25053
7.50958
7.81018
8.14509
8.48692
5.09238
5.10516
5.1305
5.16686
5.21433
5.27268
5.34164
5.42104
5.51067
5.61034
5.71989
5.83932
5.96878
6.10874
6.26038
6.42613
6.60899
6.81188
7.03922
7.30195
7.59739
7.92097
8.26044
4.82054
4.83242
4.85631
4.89118
4.93694
4.99345
5.06055
5.13818
5.22628
5.32481
5.43379
5.55341
5.6841
5.82666
5.98246
6.15356
6.34249
6.55202
6.78528
7.04601
7.33356
7.64458
7.97371
4.53645
4.54774
4.57048
4.60403
4.64827
4.70312
4.76851
4.84447
4.93107
5.02837
5.13654
5.25589
5.38701
5.53084
5.68872
5.86241
6.05395
6.26551
6.49918
6.75658
7.03744
7.33999
7.66208
4.24065
4.25151
4.27329
4.30566
4.3485
4.40179
4.46554
4.53984
4.62484
4.72068
4.82762
4.9461
5.07675
5.22053
5.37865
5.55257
5.74392
5.95436
6.18531
6.4377
6.7115
7.00588
7.31982
3.9336
3.94408
3.96504
3.99631
4.03782
4.08959
4.15168
4.22425
4.30744
4.40149
4.50674
4.62365
4.75291
4.89538
5.05214
5.22437
5.41339
5.62048
5.84675
6.09287
6.359
6.64484
6.94996
3.61569
3.62583
3.64603
3.67624
3.71644
3.76667
3.82704
3.8977
3.97884
4.07072
4.17375
4.28841
4.41537
4.55541
4.70941
4.87837
5.06337
5.26546
5.48554
5.72421
5.98178
6.25826
6.55361
3.28729
3.29708
3.31655
3.34571
3.38459
3.43323
3.49175
3.5603
3.63909
3.72842
3.82871
3.94046
4.06428
4.20084
4.35088
4.51524
4.69483
4.89053
5.10314
5.33322
5.58119
5.8473
6.13177
2.94876
2.95817
2.97692
3.00502
3.04252
3.08947
3.14599
3.21222
3.28837
3.37478
3.47184
3.58006
3.69996
3.8321
3.97713
4.13575
4.30873
4.49685
4.70079
4.92114
5.15838
5.41293
5.68519
2.60044
2.60945
2.62745
2.65444
2.69049
2.73565
2.79001
2.85371
2.92696
3.01008
3.10347
3.20757
3.32283
3.44974
3.58883
3.74071
3.90604
4.08548
4.27966
4.48913
4.71444
4.9561
5.21462
2.24271
2.25128
2.2685
2.29432
2.32884
2.37208
2.42413
2.48509
2.55518
2.6347
2.72399
2.82345
2.93346
3.0544
3.18675
3.33101
3.48776
3.65753
3.84089
4.03836
4.2505
4.47783
4.72094
1.87598
1.88406
1.90047
1.92506
1.95796
1.99916
2.04873
2.10678
2.17347
2.24909
2.33392
2.42827
2.53246
2.64682
2.77173
2.90763
3.05496
3.21416
3.38571
3.57009
3.7678
3.97932
4.20522
1.50068
1.50826
1.52381
1.54711
1.57829
1.61733
1.66429
1.71924
1.78233
1.85377
1.9338
2.02265
2.12056
2.22782
2.34472
2.47161
2.60881
2.75664
2.91549
3.08576
3.26784
3.46206
3.66892
1.11729
1.12435
1.13901
1.16096
1.19033
1.2271
1.27131
1.323
1.38229
1.44932
1.52426
1.60728
1.69855
1.7983
1.90674
2.0241
2.15057
2.28638
2.43178
2.58704
2.75238
2.92793
3.11403
0.726317
0.732869
0.746601
0.76713
0.794606
0.828999
0.870329
0.918621
0.973937
1.03636
1.106
1.18293
1.26729
1.35922
1.45886
1.5663
1.68162
1.80491
1.9363
2.07586
2.22358
2.37933
2.54317
0.328284
0.334333
0.347098
0.36615
0.391654
0.42357
0.461913
0.506682
0.557895
0.61557
0.679727
0.750402
0.82766
0.911578
1.00219
1.09948
1.20339
1.31389
1.43092
1.55434
1.68387
1.81907
1.95961
-0.0763019
-0.0707618
-0.0590001
-0.0414752
-0.0180017
0.0113702
0.046651
0.0878151
0.13483
0.187646
0.246217
0.310522
0.380573
0.456381
0.537885
0.624945
0.717381
0.815007
0.917585
1.02472
1.13585
1.25019
1.36697
-0.486945
-0.481934
-0.4712
-0.455233
-0.433816
-0.407022
-0.37484
-0.337328
-0.29457
-0.246677
-0.193754
-0.135866
-0.0730413
-0.00533519
0.0671025
0.144015
0.225092
0.309989
0.398263
0.489279
0.582181
0.675837
0.769006
-0.903152
-0.898698
-0.88899
-0.874587
-0.855221
-0.831007
-0.801934
-0.768096
-0.729623
-0.686676
-0.639404
-0.5879
-0.53223
-0.472507
-0.408972
-0.341993
-0.272007
-0.199512
-0.125143
-0.0497566
0.0255176
0.09921
0.169613
-1.32444
-1.32057
-1.31185
-1.299
-1.28166
-1.26002
-1.23405
-1.20389
-1.1697
-1.13168
-1.08999
-1.04476
-0.996079
-0.944133
-0.889245
-0.831879
-0.772582
-0.711981
-0.650867
-0.590287
-0.531616
-0.476621
-0.42739
-1.75034
-1.74708
-1.7393
-1.72797
-1.71264
-1.69355
-1.67068
-1.64418
-1.61424
-1.58106
-1.54483
-1.5057
-1.4638
-1.41937
-1.3728
-1.32463
-1.27548
-1.22608
-1.17735
-1.13048
-1.08704
-1.04901
-1.01871
-2.18034
-2.17769
-2.17079
-2.16099
-2.14765
-2.13111
-2.11131
-2.08842
-2.06264
-2.03419
-2.00327
-1.97004
-1.93468
-1.89746
-1.85881
-1.81932
-1.77965
-1.74062
-1.70323
-1.66878
-1.63895
-1.61581
-1.60179
-2.61377
-2.61177
-2.60571
-2.59746
-2.58609
-2.57205
-2.55528
-2.53593
-2.5142
-2.49034
-2.46455
-2.437
-2.40789
-2.37753
-2.34634
-2.31493
-2.28401
-2.25445
-2.22727
-2.20379
-2.18576
-2.17522
-2.17459
-3.05004
-3.04874
-3.04348
-3.03679
-3.02737
-3.01579
-3.00196
-2.98605
-2.96828
-2.94885
-2.92798
-2.90586
-2.88268
-2.85877
-2.83454
-2.81061
-2.78772
-2.76669
-2.74853
-2.73453
-2.7264
-2.72612
-2.73596
-3.48901
-3.48851
-3.48399
-3.47887
-3.47136
-3.46219
-3.45126
-3.43873
-3.42479
-3.40966
-3.39351
-3.37655
-3.359
-3.34117
-3.32347
-3.3065
-3.29093
-3.27755
-3.26728
-3.26137
-3.26142
-3.26924
-3.28688
-3.93086
-3.9313
-3.9275
-3.92391
-3.91831
-3.91151
-3.90343
-3.89421
-3.88404
-3.87307
-3.86148
-3.84949
-3.83733
-3.82529
-3.81377
-3.80327
-3.79443
-3.78793
-3.78462
-3.78564
-3.79243
-3.80654
-3.82977
-4.37382
-4.37522
-4.37216
-4.37002
-4.3663
-4.36181
-4.3565
-4.35051
-4.34396
-4.33699
-4.32976
-4.3225
-4.31545
-4.30887
-4.30308
-4.29853
-4.29576
-4.29536
-4.29808
-4.30493
-4.31711
-4.33593
-4.36288
-4.81373
-4.81582
-4.81365
-4.8128
-4.81089
-4.80859
-4.80591
-4.80295
-4.79979
-4.79654
-4.79337
-4.7905
-4.78814
-4.7865
-4.78585
-4.78656
-4.78907
-4.79389
-4.80163
-4.81315
-4.82939
-4.85135
-4.88019
-5.25418
-5.25668
-5.25567
-5.25601
-5.25589
-5.25575
-5.25564
-5.25562
-5.25577
-5.25618
-5.25698
-5.25837
-5.2605
-5.26356
-5.26778
-5.27345
-5.28093
-5.2906
-5.30295
-5.31859
-5.33816
-5.36238
-5.39209
-5.71187
-5.71552
-5.71579
-5.71744
-5.71927
-5.72153
-5.72425
-5.7275
-5.73134
-5.73588
-5.74118
-5.74735
-5.75453
-5.76291
-5.77268
-5.78405
-5.79726
-5.81259
-5.83037
-5.85088
-5.87449
-5.90165
-5.93281
899.258
1002.61
994.995
977.564
830.134
849.088
833.717
842.408
621.247
632.913
638.044
650.05
393.929
416.247
438.606
460.985
140.996
168.2
195.379
221.089
19.4085
23.8023
29.397
36.0203
10.0209
10.2586
10.4763
10.727
9.92318
10.1525
10.3706
10.5741
9.72119
9.95977
10.1884
10.4106
9.61148
9.8448
10.063
10.2684
9.32835
9.55009
9.76567
9.96589
9.00712
9.18023
9.36701
9.56341
8.75798
8.93678
9.12125
9.31051
8.52457
8.69765
8.87335
9.05432
8.23002
8.39896
8.57413
8.75285
7.91323
8.07877
8.24885
8.42321
7.56495
7.72667
7.89282
8.06335
7.18861
7.3462
7.50822
7.67465
6.78499
6.93794
7.09534
7.2572
6.35496
6.50264
6.65476
6.81136
5.89907
6.04069
6.18671
6.33722
5.41787
5.55253
5.69151
5.83491
4.91207
5.03874
5.16957
5.3047
4.38263
4.50017
4.62164
4.74714
3.83092
3.93815
4.04893
4.16339
3.25897
3.35468
3.45343
3.55529
2.6696
2.75271
2.83813
2.92585
2.06646
2.13613
2.20719
2.27946
1.45371
1.50949
1.56559
1.62168
0.835723
0.877657
0.918785
0.958629
0.217096
0.245767
0.272544
0.296825
-0.397604
-0.381065
-0.36736
-0.357138
-1.00447
-0.998472
-0.996004
-0.997674
-1.60057
-1.60329
-1.60994
-1.62109
-2.18378
-2.19332
-2.20694
-2.22509
-2.75292
-2.76742
-2.78587
-2.80866
-3.30909
-3.32674
-3.34808
-3.37345
-3.85528
-3.87468
-3.89737
-3.92363
-4.39013
-4.41016
-4.4329
-4.45865
-4.90756
-4.92718
-4.949
-4.9732
-5.41864
-5.43731
-5.45767
-5.47986
-5.95899
-5.9769
-5.99597
-6.01621
982.708
985.564
985.521
985.902
986.171
986.322
986.632
986.541
986.709
986.951
987.173
987.452
987.739
988.052
988.369
988.661
988.906
989.083
989.171
922.973
971.963
982.86
984.051
985.999
985.748
985.74
985.953
986.43
986.743
986.898
987.261
987.551
987.916
988.298
988.648
988.947
989.165
989.274
686.343
752.309
938.944
862.597
947.303
976.495
984.168
985.562
986.012
986.104
986.384
986.946
987.305
987.75
988.238
988.665
989.039
989.316
989.456
493.996
529.171
605.472
571.038
668.723
818.587
870.59
935.067
964.697
984.52
984.793
986.607
986.995
987.358
988.158
988.716
989.2
989.556
989.74
262.424
309.345
352.94
386.189
440.19
523.67
563.652
620.012
735.584
866.899
934.983
980.553
985.363
986.532
988.059
988.83
989.455
989.918
990.159
50.7906
77.9975
110.113
140.839
176.551
223.217
264.641
312.121
403.234
522.063
628.815
798.608
943.327
984.359
988.531
989.119
989.794
990.418
990.754
11.5336
14.4275
17.9308
21.3866
26.1288
32.9052
39.6657
47.6249
81.4017
182.524
304.606
474.081
685.048
916.023
984.799
989.679
990.248
991.001
991.578
10.8971
11.4824
12.148
12.7157
13.2825
13.9505
14.7073
15.6738
17.198
23.524
40.3604
127.739
353.89
646.258
911.235
987.894
990.389
991.607
992.806
10.7749
11.3266
11.9072
12.3644
12.7609
13.3293
13.8879
14.5037
14.9208
15.3755
16.7864
21.1868
55.7532
300.14
655.375
940.463
989.255
992.403
994.974
10.5795
11.0019
11.5371
12.0802
12.5024
12.9632
13.4263
13.943
14.5467
15.1394
15.7579
16.5728
18.4842
56.7722
333.847
761.674
989.666
995.056
998.728
10.2949
10.7618
11.2329
11.7156
12.1819
12.6835
13.2175
13.7846
14.4006
15.0662
15.8166
16.6982
17.6562
18.4141
46.9552
517.787
933.739
998.228
1004.18
9.90053
10.3948
10.8992
11.4031
11.9143
12.4505
13.0136
13.6118
14.2486
14.9316
15.6631
16.4136
17.1735
17.1907
18.3611
291.025
833.273
1008.4
1012.16
9.63261
10.1091
10.611
11.118
11.6384
12.1833
12.7585
13.3702
14.0194
14.6982
15.382
16.0495
16.8204
17.1144
17.8588
63.1937
723.354
1018.33
1022.06
9.36541
9.82694
10.3114
10.8125
11.3347
11.8851
12.4676
13.0834
13.7307
14.4021
15.0822
15.7505
16.4989
17.0991
17.1553
19.2807
631.722
1026.32
1033.55
9.05871
9.5102
9.9852
10.4828
11.0055
11.5579
12.1424
12.7582
13.4012
14.0664
14.7486
15.4335
16.1528
16.9089
17.0936
18.6285
486.544
1034.51
1052.85
8.72238
9.16555
9.63321
10.1261
10.6465
11.1979
11.782
12.3965
13.0379
13.7033
14.3919
15.0996
15.8202
16.6489
17.0179
17.8469
305.368
1050.63
1091.78
8.35633
8.79131
9.25181
9.73923
10.2558
10.8048
11.3872
12.0006
12.6429
13.3147
14.0177
14.7553
15.5116
16.3768
16.9331
15.3867
152.28
1095.15
1170.93
7.96088
8.38707
8.83974
9.3205
9.83183
10.3772
10.9576
11.5707
12.2159
12.8965
13.6178
14.3881
15.2064
16.1668
17.2404
16.1956
47.4827
1140.11
1268.98
7.53587
7.95203
8.39559
8.86835
9.37308
9.91394
10.4926
11.1069
11.7559
12.4455
13.1814
13.9748
14.8456
15.8784
17.208
17.6778
20.959
1076.75
1297.2
7.0813
7.48568
7.91824
8.38116
8.87773
9.41331
9.9912
10.6098
11.2659
11.9645
12.7089
13.5101
14.404
15.4327
16.6269
17.7584
20.8352
880.004
1099.69
6.597
6.98738
7.40646
7.85694
8.3432
8.87211
9.4496
10.0758
10.7455
11.4536
12.2048
13.0033
13.8905
14.8636
15.885
16.2174
29.1029
331.921
490.702
6.08279
6.45637
6.85877
7.29331
7.76587
8.2851
8.85967
9.49242
10.1749
10.8991
11.6606
12.4485
13.2968
14.25
15.1945
10.0862
-74.7986
-298.254
-28.6889
5.53852
5.89169
6.27325
6.68708
7.14075
7.64456
8.2099
8.84374
9.53778
10.2874
11.0598
11.8073
12.6276
13.6735
13.21
4.61885
-45.1486
-159.589
-7.55054
4.96441
5.29273
5.64813
6.0346
6.46136
6.94041
7.48661
8.11505
8.82219
9.61963
10.4007
11.0862
11.8294
12.7946
16.5184
13.5232
14.2502
-34.4591
-6.19669
4.36135
4.65987
4.98272
5.33321
5.72148
6.16144
6.66779
7.27514
8.01288
8.9153
9.75838
10.5168
11.3201
9.06251
0.104447
-1.65357
16.2718
-14.431
-13.4024
3.731
3.99447
4.2775
4.582
4.91902
5.30112
5.72616
6.25393
6.96789
8.1572
8.97213
9.18417
6.18571
2.40007
-6.23309
-16.1822
-13.9692
-31.405
-25.9191
3.07631
3.29903
3.53366
3.78039
4.05372
4.35394
4.64627
5.0087
5.52904
6.99368
7.34164
-4.11869
-18.4643
-15.8458
-20.9935
-36.3222
-39.226
-38.4541
-33.9282
2.40218
2.57861
2.75618
2.93235
3.12511
3.30452
3.42064
3.63003
3.52176
3.84356
-5.10729
-33.4488
-29.5009
-20.711
-22.973
-43.1538
-43.2771
-37.01
-36.3145
1.71524
1.84157
1.95724
2.05426
2.14509
2.15757
2.11961
2.55118
1.34603
-7.16267
-23.9471
-21.2337
-19.197
-18.4373
-24.7843
-32.565
-34.3241
-35.491
-36.5612
1.02277
1.09773
1.15132
1.16518
1.13829
0.961007
0.780474
1.42371
-0.985169
-17.5206
-25.035
-22.4701
-23.552
-24.923
-25.7541
-27.4963
-30.0301
-35.5935
-36.2625
0.332577
0.358199
0.352134
0.280085
0.131161
-0.245244
-0.75677
-1.19831
-4.97693
-22.6314
-23.1448
-22.9606
-23.9041
-25.1698
-26.0163
-26.1707
-29.3343
-35.692
-35.3068
-0.34697
-0.364237
-0.422888
-0.571002
-0.821208
-1.36571
-2.11767
-3.86145
-7.25557
-21.8209
-22.0013
-22.7908
-24.1234
-25.1866
-25.9326
-25.5061
-27.9572
-34.2124
-33.2289
-1.00871
-1.05895
-1.15644
-1.34927
-1.65404
-2.33721
-3.26014
-4.24493
-3.5779
-20.3063
-21.7464
-22.6413
-23.9015
-24.8468
-25.6677
-25.2613
-26.5619
-31.1721
-30.3536
-1.64843
-1.72163
-1.84252
-2.04426
-2.34345
-2.98018
-3.75868
-5.28042
-8.20491
-19.6524
-22.1947
-22.287
-22.9771
-24.0227
-24.9842
-24.9658
-25.0637
-27.2396
-26.906
-2.26406
-2.35234
-2.48498
-2.67971
-2.94959
-3.3993
-3.77341
-4.78505
-2.85014
-18.7048
-21.0951
-21.385
-21.4442
-22.6452
-23.4126
-23.4893
-22.8694
-23.7095
-23.523
-2.85492
-2.95151
-3.08805
-3.27484
-3.51898
-3.83514
-4.20253
-4.53169
-4.74077
-5.03229
-18.2383
-20.4084
-19.8143
-20.5828
-21.0198
-21.0192
-20.1609
-20.5222
-20.4338
-3.42337
-3.52191
-3.65542
-3.83135
-4.05307
-4.3056
-4.6572
-4.7883
-5.01813
-3.89623
-16.7558
-19.76
-17.9287
-17.9945
-18.1814
-18.1139
-17.3626
-17.58
-17.5705
-3.9741
-4.06926
-4.19374
-4.35323
-4.55277
-4.78015
-5.10562
-5.30547
-5.52871
-5.81825
-13.2319
-15.1163
-15.9155
-15.334
-15.4372
-15.2873
-14.7307
-14.9014
-14.9004
-4.50711
-4.59515
-4.70647
-4.84408
-5.01182
-5.19711
-5.49794
-5.67452
-6.3302
-7.95399
-13.764
-14.363
-14.6791
-13.1488
-13.1685
-12.8437
-12.4032
-12.4873
-12.4515
-5.01797
-5.09656
-5.19289
-5.308
-5.44267
-5.57976
-5.78564
-5.80114
-6.34051
-6.92177
-18.4921
-20.4964
-12.8757
-11.5927
-11.3302
-10.8074
-10.3656
-10.3586
-10.267
-5.52033
-5.58855
-5.66955
-5.7639
-5.8712
-5.97902
-6.12022
-6.05164
-6.02432
-5.25208
2.1388
-58.5879
-21.7815
-10.013
-9.78542
-8.92395
-8.44916
-8.39662
-8.34556
-6.05224
-6.10994
-6.17535
-6.2492
-6.33222
-6.42254
-6.55129
-6.57205
-6.9597
-6.12933
-6.192
-103.699
-25.9647
-8.15888
-8.32769
-7.08314
-6.80842
-6.70378
-6.50768
)
;

boundaryField
{
    leftWall
    {
        type            calculated;
        value           nonuniform List<scalar> 
50
(
1077.67
1017.7
956.573
894.446
831.499
767.955
704.057
640.003
539.615
404.524
274.873
158.146
70.3407
12.0109
6.5773
6.42661
6.24753
6.04531
5.82792
5.59663
5.35132
5.09238
4.82054
4.53645
4.24065
3.9336
3.61569
3.28729
2.94876
2.60044
2.24271
1.87598
1.50068
1.11729
0.726317
0.328284
-0.0763019
-0.486945
-0.903152
-1.32444
-1.75034
-2.18034
-2.61377
-3.05004
-3.48901
-3.93086
-4.37382
-4.81373
-5.25418
-5.71187
)
;
    }
    rightWall
    {
        type            calculated;
        value           nonuniform List<scalar> 
50
(
989.303
989.252
989.209
989.176
989.152
989.138
989.134
989.141
989.171
989.274
989.456
989.74
990.159
990.754
991.578
992.806
994.974
998.728
1004.18
1012.16
1022.06
1033.55
1052.85
1091.78
1170.93
1268.98
1297.2
1099.69
490.702
-28.6889
-7.55054
-6.19669
-13.4024
-25.9191
-33.9282
-36.3145
-36.5612
-36.2625
-35.3068
-33.2289
-30.3536
-26.906
-23.523
-20.4338
-17.5705
-14.9004
-12.4515
-10.267
-8.34556
-6.50768
)
;
    }
    lowerWall
    {
        type            calculated;
        value           nonuniform List<scalar> 
62
(
1107.1
1110.86
1121.9
1127.36
1127.4
1122.64
1116.37
1111.21
1108.52
1108.99
1113.22
1121.9
1135.89
1156.39
1184.39
1220.89
1266.03
1317.75
1369.75
1409.01
1418.01
1408.21
1473.41
1445.19
1380.52
1331.15
1299.29
1272.6
1231.47
1171.87
1090.93
961.856
1065.2
1047.59
985.327
986.718
986.644
986.552
986.44
986.295
986.108
985.813
985.56
986.747
986.84
986.883
986.952
987.018
987.107
987.212
987.337
987.489
987.67
987.875
988.1
988.335
988.572
988.796
988.996
989.16
989.276
989.332
)
;
    }
    atmosphere
    {
        type            calculated;
        value           nonuniform List<scalar> 
46
(
-5.95919
-5.96503
-5.96554
-5.96799
-5.97098
-5.97468
-5.97913
-5.98439
-5.99053
-5.99762
-6.00572
-6.01491
-6.0253
-6.03708
-6.05044
-6.06553
-6.08252
-6.10166
-6.12317
-6.14717
-6.17384
-6.20352
-6.23642
-6.26307
-6.28101
-6.29978
-6.3193
-6.35353
-6.40613
-6.46338
-6.52585
-6.59427
-6.66786
-6.77366
-6.74694
-7.00032
-6.79104
-5.75502
-483.206
-220.468
-5.73349
-5.73335
-5.73246
-5.73032
-5.72915
-5.72904
)
;
    }
    defaultFaces
    {
        type            empty;
    }
}


// ************************************************************************* //
