/*--------------------------------*- C++ -*----------------------------------*\
| =========                 |                                                 |
| \\      /  F ield         | OpenFOAM: The Open Source CFD Toolbox           |
|  \\    /   O peration     | Version:  5.x                                   |
|   \\  /    A nd           | Web:      www.OpenFOAM.org                      |
|    \\/     M anipulation  |                                                 |
\*---------------------------------------------------------------------------*/
FoamFile
{
    version     2.0;
    format      ascii;
    class       volScalarField;
    location    "0.35";
    object      p_rgh;
}
// * * * * * * * * * * * * * * * * * * * * * * * * * * * * * * * * * * * * * //

dimensions      [1 -1 -2 0 0 0 0];

internalField   nonuniform List<scalar> 
2268
(
1107.1
1110.86
1121.9
1127.36
1127.4
1122.64
1116.37
1111.21
1108.52
1108.99
1113.22
1121.9
1135.89
1156.39
1184.39
1220.89
1266.03
1317.75
1369.75
1409.01
1418.01
1408.21
1473.41
1105.99
1109.7
1120.56
1126.03
1126.01
1121.27
1115.08
1110.01
1107.37
1107.84
1112.01
1120.57
1134.35
1154.13
1180.93
1215.78
1259.38
1310.72
1364.94
1407.61
1421.28
1396.3
1468.8
1103.72
1107.41
1117.96
1123.38
1123.25
1118.55
1112.52
1107.63
1105.08
1105.53
1109.58
1117.92
1131.37
1150.79
1177.15
1211.1
1252.63
1300.36
1351.11
1395.32
1421.05
1414.02
1477.91
1100.45
1104.03
1114.19
1119.49
1119.18
1114.55
1108.76
1104.1
1101.67
1102.09
1105.94
1113.95
1126.95
1145.81
1171.41
1204.25
1244.24
1289.73
1337.72
1382.13
1417.68
1436.83
1504.3
1096.36
1099.63
1109.37
1114.44
1113.92
1109.36
1103.87
1099.49
1097.18
1097.51
1101.09
1108.66
1121.06
1139.2
1163.89
1195.61
1234.27
1278.53
1325.78
1371.73
1417.04
1457.62
1536.75
1091.68
1094.37
1103.62
1108.38
1107.6
1103.13
1097.95
1093.84
1091.62
1091.8
1095
1102
1113.67
1130.92
1154.57
1185.1
1222.53
1265.91
1313.38
1361.75
1413.9
1467.8
1555.18
1086.64
1088.43
1097.04
1101.34
1100.26
1095.92
1091.08
1087.23
1085.04
1084.97
1087.67
1093.96
1104.74
1120.95
1143.4
1172.62
1208.8
1251.38
1299.23
1350.01
1406.24
1466.59
1554.45
1081.44
1082.11
1089.57
1093.15
1091.76
1087.64
1083.21
1079.63
1077.39
1076.96
1079.03
1084.45
1094.19
1109.21
1130.42
1158.11
1192.87
1234.53
1282.45
1335.16
1393.64
1457.58
1532.37
986.747
986.84
986.883
986.952
987.018
987.107
987.212
987.337
987.489
987.67
987.875
988.1
988.335
988.572
988.796
988.996
989.16
989.276
989.332
986.732
986.842
986.878
986.949
987.012
987.102
987.207
987.332
987.484
987.665
987.871
988.097
988.335
988.572
988.799
989.001
989.166
989.283
989.34
986.699
986.848
986.867
986.943
987
987.092
987.199
987.322
987.473
987.656
987.864
988.092
988.333
988.574
988.804
989.01
989.179
989.298
989.357
986.646
986.857
986.847
986.933
986.98
987.076
987.186
987.307
987.457
987.642
987.853
988.084
988.329
988.576
988.813
989.025
989.199
989.322
989.382
986.563
986.941
986.818
986.921
986.951
987.055
987.171
987.285
987.435
987.623
987.837
988.074
988.324
988.579
988.824
989.044
989.225
989.354
989.417
986.453
987.495
986.821
986.908
986.909
987.028
987.155
987.257
987.406
987.598
987.816
988.059
988.317
988.581
988.837
989.068
989.259
989.395
989.462
986.256
987.497
986.929
986.884
986.855
986.994
987.141
987.221
987.37
987.567
987.79
988.042
988.308
988.584
988.853
989.098
989.3
989.445
989.517
986.005
987.13
986.509
986.925
986.793
986.95
987.133
987.166
987.32
987.531
987.759
988.021
988.296
988.585
988.871
989.132
989.35
989.506
989.583
1073.08
1071.88
1076.59
1078.97
1077.21
1073.38
1069.47
1066.14
1063.64
1062.45
1063.29
1067.07
1074.81
1087.51
1106.43
1132
1164.69
1204.92
1252.63
1307.26
1366.64
1429.52
1470.65
1063.19
1057.62
1057.19
1058.29
1056.08
1052.08
1048.08
1044.3
1040.79
1037.99
1036.68
1037.77
1042.31
1050.42
1061.32
1077.23
1107.57
1144.63
1190.52
1244.95
1304.43
1369.62
1440.12
1058.73
1047.4
1038.23
1035.19
1031.35
1026.29
1021.35
1016.22
1010.75
1005.4
1001.03
998.668
1001.07
1010.4
1026.03
1046.48
1057.78
1085.25
1127.01
1179.15
1236.38
1297.31
1365.97
1067.2
1032.85
935.84
922.296
912.952
891.834
866.062
837.067
802.435
761.947
717.773
673.434
632.703
601.884
590.472
609.796
658.883
748.154
874.282
1035.33
1131.23
1193.83
1259.72
947.177
499.249
225.537
221.797
209.356
177.105
145.968
118.392
91.0479
64.1649
39.8836
19.3643
9.27967
9.34809
9.62061
9.89269
13.438
34.33
84.5782
179.788
357.158
621.985
903.254
111.446
8.2361
7.9145
8.125
8.18366
8.24539
8.33628
8.45032
8.58569
8.74097
8.90353
9.02614
9.1811
9.36871
9.63168
9.90883
10.13
10.291
10.4878
10.8374
11.1054
23.9999
97.1457
7.86193
7.86393
7.92856
8.04086
8.11971
8.18991
8.28152
8.38946
8.51361
8.65186
8.80342
8.95292
9.10393
9.27852
9.52136
10.041
10.4703
10.7691
10.6947
10.7427
10.6479
10.7154
11.0503
7.83644
7.89914
7.92463
7.97948
8.04648
8.11819
8.20574
8.30666
8.42143
8.54683
8.68409
8.82103
8.96046
9.1102
9.84166
10.7885
10.8808
10.8913
10.9119
11.1044
10.3753
10.5819
11.0263
7.78255
7.80857
7.84674
7.90011
7.96424
8.03127
8.1162
8.21194
8.31869
8.43499
8.56186
8.6892
8.81809
8.94757
9.93249
10.6077
10.7307
10.7728
10.1052
9.65922
9.97631
10.4453
10.9398
7.70553
7.7277
7.76448
7.81036
7.8688
7.93609
8.01595
8.10672
8.20747
8.31725
8.43605
8.55762
8.68307
8.84973
8.90191
9.27587
10.0001
9.96472
9.79635
10.0438
10.1183
10.4952
10.9529
7.61333
7.63227
7.66723
7.70799
7.76269
7.82792
7.90426
7.99108
8.08754
8.19291
8.30645
8.4261
8.55381
8.67712
8.7993
8.92867
9.04872
9.49268
10.6105
10.9142
11.3415
10.8901
11.4255
7.50724
7.52363
7.55372
7.59353
7.64522
7.70794
7.78142
7.86523
7.95874
8.06136
8.17254
8.29149
8.41925
8.54937
8.68395
8.82836
8.98361
9.16799
9.79279
10.4286
10.9597
11.3647
11.5911
7.38712
7.40134
7.42862
7.46667
7.51607
7.57648
7.64754
7.72895
7.82031
7.92122
8.03134
8.15038
8.27807
8.41418
8.55922
8.71626
8.88876
9.07953
9.28633
9.54538
9.84598
10.1809
10.5389
7.25338
7.26615
7.2915
7.32786
7.37533
7.43367
7.50263
7.58203
7.67167
7.77133
7.88088
8.00032
8.12977
8.26974
8.42137
8.58712
8.76999
8.97287
9.20022
9.46294
9.75838
10.082
10.4214
7.10673
7.11861
7.1425
7.17737
7.22313
7.27965
7.34674
7.42437
7.51247
7.611
7.71998
7.8396
7.97029
8.11285
8.26865
8.43975
8.62868
8.83821
9.07147
9.3322
9.61975
9.93077
10.2599
6.94784
6.95913
6.98186
7.01542
7.05966
7.1145
7.1799
7.25586
7.34245
7.43975
7.54792
7.66727
7.7984
7.94223
8.10011
8.27379
8.46533
8.6769
8.91057
9.16796
9.44882
9.75138
10.0735
6.77723
6.78809
6.80987
6.84224
6.88508
6.93837
7.00212
7.07642
7.16141
7.25726
7.3642
7.48268
7.61333
7.75711
7.91523
8.08915
8.2805
8.49094
8.72189
8.97428
9.24808
9.54246
9.8564
6.59537
6.60586
6.62682
6.65808
6.69959
6.75136
6.81346
6.88602
6.96922
7.06327
7.16851
7.28542
7.41468
7.55716
7.71391
7.88615
8.07516
8.28226
8.50852
8.75464
9.02077
9.30662
9.61173
6.40266
6.4128
6.433
6.46321
6.50341
6.55364
6.61401
6.68467
6.7658
6.85769
6.96071
7.07538
7.20234
7.34238
7.49638
7.66534
7.85034
8.05243
8.27251
8.51118
8.76875
9.04523
9.34058
6.19946
6.20924
6.22872
6.25788
6.29675
6.34539
6.40391
6.47246
6.55125
6.64059
6.74087
6.85263
6.97645
7.113
7.26304
7.42741
7.60699
7.8027
8.0153
8.24538
8.49335
8.75946
9.04393
5.98611
5.99553
6.01428
6.04237
6.07987
6.12683
6.18335
6.24957
6.32573
6.41214
6.5092
6.61742
6.73731
6.86946
7.01449
7.1731
7.34609
7.5342
7.73815
7.9585
8.19574
8.45029
8.72255
5.76299
5.772
5.79
5.81699
5.85305
5.8982
5.95256
6.01626
6.08951
6.17263
6.26602
6.37012
6.48538
6.61229
6.75138
6.90326
7.06859
7.24803
7.44221
7.65168
7.877
8.11865
8.37718
5.53046
5.53902
5.55625
5.58207
5.61659
5.65983
5.71187
5.77284
5.84293
5.92244
6.01174
6.1112
6.2212
6.34215
6.47449
6.61876
6.7755
6.94528
7.12864
7.32611
7.53825
7.76557
8.00868
5.28892
5.29701
5.31341
5.33801
5.3709
5.4121
5.46167
5.51972
5.58642
5.66203
5.74686
5.84121
5.9454
6.05976
6.18467
6.32057
6.4679
6.6271
6.79865
6.98303
7.18075
7.39226
7.61816
5.03881
5.04639
5.06194
5.08524
5.11642
5.15547
5.20243
5.25738
5.32047
5.39191
5.47193
5.56078
5.6587
5.76595
5.88286
6.00975
6.14694
6.29478
6.45363
6.62389
6.80597
7.00019
7.20706
4.78062
4.78768
4.80234
4.82429
4.85366
4.89043
4.93464
4.98633
5.04562
5.11265
5.18759
5.27061
5.36188
5.46163
5.57007
5.68743
5.8139
5.94971
6.09511
6.25037
6.41571
6.59126
6.77736
4.51484
4.52139
4.53513
4.55566
4.58313
4.61752
4.65885
4.70715
4.76246
4.82489
4.89452
4.97145
5.05581
5.14774
5.24738
5.35482
5.47014
5.59344
5.72483
5.86438
6.01211
6.16786
6.33169
4.242
4.24805
4.26082
4.27987
4.30537
4.33729
4.37563
4.4204
4.47161
4.52929
4.59345
4.66412
4.74138
4.8253
4.91591
5.0132
5.11711
5.22761
5.34464
5.46806
5.59759
5.73278
5.87333
3.96261
3.96815
3.97991
3.99744
4.02091
4.05028
4.08556
4.12673
4.17374
4.22656
4.28513
4.34944
4.41949
4.49529
4.5768
4.66386
4.75629
4.85392
4.9565
5.06364
5.17477
5.2891
5.40588
3.67716
3.68217
3.69291
3.70887
3.73029
3.75709
3.78927
3.82678
3.86954
3.91743
3.97035
4.02824
4.09107
4.15877
4.23121
4.30812
4.3892
4.4741
4.56237
4.65339
4.74629
4.83995
4.93311
3.38615
3.3906
3.40031
3.41472
3.43408
3.4583
3.48737
3.52121
3.55968
3.60263
3.6499
3.7014
3.75707
3.8168
3.88033
3.94731
4.0173
4.08979
4.16416
4.23955
4.31482
4.38851
4.45892
3.09006
3.09393
3.10264
3.1155
3.13284
3.15448
3.18045
3.21061
3.2448
3.28282
3.32451
3.36974
3.41842
3.47036
3.52525
3.58262
3.64192
3.70252
3.76363
3.82421
3.88288
3.93788
3.98711
2.78935
2.79262
2.80039
2.81172
2.82705
2.84614
2.86901
2.89551
2.92545
2.95863
2.99486
3.03399
3.07589
3.12032
3.16689
3.21506
3.26421
3.31361
3.36234
3.40921
3.45265
3.49068
3.52098
2.48455
2.4872
2.49409
2.50389
2.51723
2.53378
2.55358
2.57646
2.60225
2.6307
2.66162
2.69485
2.73021
2.76743
2.80607
2.84557
2.88524
2.92427
2.96165
2.99611
3.02594
3.04908
3.06309
2.17631
2.17831
2.18437
2.19262
2.20399
2.21803
2.2348
2.25416
2.27588
2.29974
2.32554
2.35308
2.38219
2.41255
2.44374
2.47516
2.50607
2.53564
2.56282
2.58629
2.60433
2.61486
2.61549
1.86524
1.86654
1.8718
1.87849
1.88791
1.89949
1.91332
1.92922
1.947
1.96642
1.98729
2.00942
2.03259
2.05651
2.08073
2.10466
2.12756
2.14859
2.16675
2.18075
2.18887
2.18915
2.17932
1.55146
1.55196
1.55648
1.5616
1.56911
1.57828
1.58921
1.60175
1.61568
1.63081
1.64696
1.66392
1.68147
1.6993
1.717
1.73397
1.74954
1.76292
1.77319
1.7791
1.77905
1.77123
1.75359
1.23481
1.23436
1.23817
1.24175
1.24735
1.25416
1.26224
1.27145
1.28163
1.2926
1.30418
1.31617
1.32834
1.34037
1.3519
1.36239
1.37123
1.37774
1.38105
1.38002
1.37324
1.35913
1.33589
0.917042
0.915636
0.918697
0.920837
0.924557
0.929053
0.934356
0.94035
0.9469
0.953873
0.961098
0.968356
0.975407
0.981991
0.987783
0.992333
0.995101
0.995496
0.992775
0.98593
0.973747
0.954928
0.927975
0.602325
0.600232
0.602405
0.60325
0.605162
0.607465
0.610143
0.613107
0.616267
0.619514
0.622683
0.625556
0.627915
0.629554
0.630207
0.629498
0.626981
0.622164
0.614422
0.602907
0.586662
0.564708
0.535866
0.287068
0.284568
0.285579
0.285234
0.285354
0.285494
0.285606
0.285625
0.285479
0.285073
0.284264
0.282878
0.280744
0.277685
0.27347
0.267798
0.26032
0.250648
0.238297
0.222661
0.203087
0.178869
0.149157
-0.0454258
-0.0490742
-0.0493463
-0.0509943
-0.0528293
-0.0550855
-0.0578075
-0.0610537
-0.0649001
-0.0694326
-0.074736
-0.0809084
-0.0880907
-0.0964679
-0.10624
-0.117609
-0.130816
-0.146152
-0.163928
-0.184439
-0.208044
-0.235207
-0.266364
1432.73
1536.07
1443.25
1043.72
1488.79
1507.75
1489.57
1402.45
1405.1
1416.77
1421.9
1433.8
1302.98
1325.3
1347.66
1370.03
1085.87
1177.7
1229.62
1255.19
191.951
271.586
379.745
501.686
11.4639
11.7571
12.0336
12.6151
11.3866
11.6195
11.8404
12.0461
11.3106
11.5495
11.7784
12.0011
11.3303
11.5638
11.7824
11.9882
13.1764
13.4286
13.6501
13.8715
11.4185
11.5153
11.7242
11.9146
10.7938
10.9726
11.1571
11.3463
10.6856
10.8586
11.0343
11.2153
10.5162
10.6851
10.8603
11.039
10.3246
10.4902
10.6602
10.8346
10.1015
10.2633
10.4294
10.5999
9.85038
10.008
10.17
10.3364
9.57196
9.72491
9.88231
10.0442
9.26712
9.4148
9.56693
9.72352
8.93643
9.07805
9.22407
9.37457
8.58042
8.71508
8.85406
8.99747
8.19982
8.32648
8.45731
8.59244
7.79557
7.91311
8.03458
8.16009
7.36906
7.47628
7.58707
7.70152
6.9223
7.01801
7.11676
7.21862
6.45812
6.54124
6.62665
6.71437
5.98018
6.04985
6.12091
6.19318
5.49262
5.5484
5.60451
5.6606
4.99983
5.04177
5.08289
5.12274
4.5064
4.53507
4.56185
4.58613
4.01689
4.03343
4.04714
4.05736
3.53522
3.54122
3.54369
3.54202
3.06431
3.0616
3.05494
3.0438
2.6063
2.59676
2.58314
2.56499
2.16236
2.14786
2.1294
2.10661
1.73138
1.71373
1.69239
1.66702
1.31039
1.29098
1.2683
1.24203
0.900727
0.880702
0.857955
0.832214
0.508494
0.488871
0.46705
0.442855
0.122604
0.103942
0.0835818
0.0613879
-0.292546
-0.310462
-0.329526
-0.349771
983.255
999.909
986.124
986.435
986.705
986.855
987.166
987.075
987.242
987.484
987.706
987.986
988.272
988.585
988.903
989.195
989.44
989.617
989.704
1389.52
1298.37
983.624
1001.7
986.657
986.406
986.398
986.611
987.088
987.402
987.557
987.92
988.21
988.575
988.956
989.307
989.606
989.823
989.933
1469.84
1534.45
1386.41
1448.09
1458.56
1100.73
1019.78
986.346
986.796
986.888
987.173
987.73
988.089
988.534
989.022
989.449
989.823
990.099
990.24
1402.9
1437.97
1513.96
1479.22
1576.77
1644
1673.01
1677.42
1292.52
1019.23
985.711
987.519
987.905
988.269
989.067
989.625
990.109
990.465
990.649
1296.38
1343.29
1386.88
1419.77
1473.42
1556.78
1596.16
1652.18
1743.54
1810.16
1703.2
1189.56
986.403
987.621
989.097
989.864
990.489
990.952
991.193
700.075
910.123
1040.82
1149.08
1297.33
1380.71
1421.76
1469.24
1560.35
1678.55
1783.3
1918.74
1679.17
1058.14
989.779
990.282
990.953
991.578
991.913
26.0995
71.2443
129.63
197.574
288.08
409.62
525.143
644.118
922.797
1442.04
1578.92
1745.35
1955.86
1858.42
1113.76
991.03
991.536
992.285
992.863
12.3768
13.0037
13.7476
14.4374
15.8241
17.7228
18.738
20.7171
58.2444
201.774
467.965
1200.21
1741.95
2018.64
1859.03
1096.78
991.867
993.017
994.216
12.3665
12.9377
13.5843
14.117
16.049
17.8623
18.1307
16.609
16.4957
17.0384
18.8168
121.281
804.465
1776.87
2108.97
1783.49
1048.39
993.946
996.509
12.3
13.8324
15.4523
15.9917
16.1014
14.9963
15.1842
15.6155
16.2086
16.8064
17.448
18.4061
25.0271
819.681
1880.21
2194.32
1506.66
997.928
1000.4
14.2295
14.6867
13.8246
13.672
13.9983
14.469
15.0029
15.5701
16.1861
16.8521
17.6043
18.4969
19.4902
58.3245
1191.34
2039.99
2030.84
1118.07
1005.97
12.1887
12.4832
12.8106
13.3137
13.8249
14.3611
14.9242
15.5225
16.1593
16.8424
17.5742
18.326
19.0875
19.102
477.129
1835.46
2232.34
1334.71
1014.07
11.6684
12.1449
12.6469
13.1538
13.6742
14.2191
14.7943
15.4061
16.058
16.7374
17.4195
18.0866
18.8569
19.1506
47.8026
1399.76
2198.23
1603.29
1024.1
11.5264
11.9879
12.4724
12.9735
13.4957
14.0461
14.6286
15.2444
15.8989
16.5749
17.2552
17.9175
18.6604
19.2606
19.3168
981.574
2173.61
1785.79
1038.6
11.3449
11.7964
12.2714
12.769
13.2917
13.8441
14.4286
15.0444
15.6874
16.3622
17.0477
17.7326
18.4425
19.1956
19.3804
578.965
2082.22
1932.59
1067.32
11.1338
11.5769
12.0446
12.5375
13.0579
13.6093
14.1934
14.8079
15.4493
16.1147
16.815
17.5246
18.2451
19.0613
19.4299
269.915
1920.16
2112.93
1129.46
10.8929
11.3279
11.7884
12.2758
12.7924
13.3414
13.9238
14.5374
15.1797
15.8514
16.555
17.3062
18.0622
18.9154
19.4702
90.4552
1721.97
2312.03
1250.39
10.6227
11.0488
11.5015
11.9823
12.4936
13.0389
13.6193
14.2325
14.879
15.5633
16.2859
17.0585
17.8746
18.8295
19.9027
18.8579
1500.91
2463.91
1391.84
10.3228
10.739
11.1826
11.6553
12.1601
12.7009
13.2796
13.8938
14.5456
15.2396
15.9755
16.7683
17.6338
18.6659
19.9955
20.4653
1317.73
2454.68
1528.92
9.99346
10.3978
10.8304
11.2933
11.7899
12.3255
12.9034
13.522
14.1781
14.8805
15.6285
16.4295
17.3174
18.3454
19.5396
20.6711
1228.99
2311.33
1446.23
9.63436
10.0247
10.4438
10.8943
11.3806
11.9095
12.4872
13.1135
13.7831
14.4913
15.2468
16.0454
16.929
17.9015
18.9229
67.2882
1086.93
1812.01
826.772
9.24534
9.61892
10.0213
10.4559
10.9284
11.4478
12.0241
12.6573
13.3384
14.0622
14.8238
15.6118
16.4599
17.4132
18.3576
387.244
769.395
549.119
333.292
8.82627
9.17944
9.561
9.97483
10.4285
10.9343
11.5007
12.1346
12.8276
13.5757
14.348
15.0956
15.9158
16.9618
202.388
674.638
414.503
-17.6187
183.816
8.37735
8.70568
9.06107
9.44754
9.8743
10.3553
10.9027
11.5312
12.2369
13.0331
13.8141
14.4997
15.2429
16.2081
696.021
709.056
201.623
-12.605
-2.78431
7.89948
8.198
8.52086
8.87135
9.25962
9.69974
10.207
10.8139
11.5515
12.4539
13.297
14.0554
14.8587
418.886
825.835
713.522
102.312
0.619172
-9.86425
7.39433
7.65781
7.94083
8.24533
8.58235
8.9648
9.38965
9.91741
10.6314
11.8207
12.6358
12.848
436.05
857.812
851.361
690.321
58.0683
-14.2252
-22.2558
6.86484
7.08756
7.32218
7.56892
7.84225
8.1436
8.43531
8.79739
9.31774
10.7837
68.0111
686.604
867.612
871.056
864.84
505.582
8.63549
-15.3363
-30.1396
6.3159
6.49233
6.6699
6.84607
7.03883
7.2194
7.33448
7.54391
7.43665
19.3132
779.64
881.855
886.604
894.661
609.254
144.156
-9.23114
-20.3415
-32.4008
5.75416
5.88049
5.99616
6.09318
6.18401
6.19679
6.15861
6.59019
5.40423
289.86
800.338
816.218
645.288
331.089
11.1021
-3.22619
6.31842
-30.5067
-32.5223
5.18688
5.26184
5.31543
5.32929
5.30245
5.12519
4.94466
5.58789
111.697
373.899
206.2
49.4706
-0.888188
-20.2458
-21.2546
-21.3586
12.315
-30.9147
-32.0984
4.62188
4.6475
4.64144
4.56939
4.42051
4.04435
3.53263
5.77617
224.667
222.926
-11.6608
-18.4955
-19.5803
-20.8392
-21.6638
-21.1074
13.5888
-30.9637
-31.0175
4.06753
4.05026
3.99161
3.8435
3.59329
3.04888
2.29695
9.08795
227.743
81.4713
-17.4059
-18.3284
-19.699
-20.7642
-21.5021
-20.3138
9.65048
-29.584
-28.8144
3.53098
3.48074
3.38325
3.19042
2.88565
2.20249
1.29608
0.306985
185.92
87.6741
-8.2209
-18.0914
-19.355
-20.3013
-21.1189
-20.1132
-15.4493
-26.3622
-25.8137
3.01646
2.94326
2.82237
2.62063
2.32144
1.6849
0.906841
-0.611833
84.84
304.156
59.405
-17.6152
-18.3064
-19.352
-20.3122
-20.0579
-20.1511
-22.1674
-22.2369
2.52602
2.43774
2.3051
2.11037
1.8405
1.39079
1.01674
4.13929
205.011
313.794
89.1698
-16.589
-16.6482
-17.8492
-18.615
-18.5575
-17.9323
-18.4809
-18.7251
2.06036
1.96377
1.82722
1.64044
1.3963
1.08013
0.7916
1.16105
0.177653
335.517
124.98
-12.2516
-14.8929
-15.6615
-16.097
-16.0185
-15.1464
-15.3039
-15.5111
1.6171
1.51856
1.38505
1.20912
0.987403
0.734899
0.421089
0.291611
0.0241447
226.416
446.117
52.197
-12.882
-12.9479
-13.1342
-13.0435
-12.2829
-12.5096
-12.5281
1.19156
1.09641
0.971925
0.812436
0.612893
0.385534
0.0600432
-0.139804
-0.362971
127.268
475.937
73.7952
-10.7437
-10.1624
-10.2644
-10.1115
-9.55153
-9.73426
-9.73368
0.783744
0.695711
0.584393
0.446782
0.279036
0.0937525
-0.207078
-0.382554
-1.03855
177.231
497.045
270.442
-2.9113
-7.85254
-7.87266
-7.5464
-7.10705
-7.19553
-7.15978
0.398083
0.31949
0.223162
0.108051
-0.0266168
-0.163709
-0.369591
-0.385088
-0.921923
97.4495
511.362
508.319
49.3138
-6.172
-5.90982
-5.38295
-4.94783
-4.94202
-4.85052
0.020914
-0.0473052
-0.128301
-0.222651
-0.329953
-0.437769
-0.578975
-0.510396
-0.483067
0.319439
543.163
483.514
79.4028
-1.55433
-4.23986
-3.37434
-2.90702
-2.85526
-2.8043
-0.385801
-0.443492
-0.50891
-0.582762
-0.66578
-0.756099
-0.884843
-0.905604
-1.29326
-0.462892
6.32329
374.228
192.094
-2.48804
-2.65699
-1.41331
-1.14071
-1.03723
-0.841239
)
;

boundaryField
{
    leftWall
    {
        type            fixedFluxPressure;
        gradient        uniform 0;
        value           nonuniform List<scalar> 
50
(
1107.1
1105.99
1103.72
1100.45
1096.36
1091.68
1086.64
1081.44
1073.08
1063.19
1058.73
1067.2
947.177
111.446
7.86193
7.83644
7.78255
7.70553
7.61333
7.50724
7.38712
7.25338
7.10673
6.94784
6.77723
6.59537
6.40266
6.19946
5.98611
5.76299
5.53046
5.28892
5.03881
4.78062
4.51484
4.242
3.96261
3.67716
3.38615
3.09006
2.78935
2.48455
2.17631
1.86524
1.55146
1.23481
0.917042
0.602325
0.287068
-0.0454258
)
;
    }
    rightWall
    {
        type            fixedFluxPressure;
        gradient        uniform 0;
        value           nonuniform List<scalar> 
50
(
989.332
989.34
989.357
989.382
989.417
989.462
989.517
989.583
989.704
989.933
990.24
990.649
991.193
991.913
992.863
994.216
996.509
1000.4
1005.97
1014.07
1024.1
1038.6
1067.32
1129.46
1250.39
1391.84
1528.92
1446.23
826.772
333.292
183.816
-2.78431
-9.86425
-22.2558
-30.1396
-32.4008
-32.5223
-32.0984
-31.0175
-28.8144
-25.8137
-22.2369
-18.7251
-15.5111
-12.5281
-9.73368
-7.15978
-4.85052
-2.8043
-0.841239
)
;
    }
    lowerWall
    {
        type            fixedFluxPressure;
        gradient        uniform 0;
        value           nonuniform List<scalar> 
62
(
1107.1
1110.86
1121.9
1127.36
1127.4
1122.64
1116.37
1111.21
1108.52
1108.99
1113.22
1121.9
1135.89
1156.39
1184.39
1220.89
1266.03
1317.75
1369.75
1409.01
1418.01
1408.21
1473.41
1473.41
1468.8
1477.91
1504.3
1536.75
1555.18
1554.45
1532.37
1432.73
1536.07
1443.25
1043.72
986.747
986.732
986.699
986.646
986.563
986.453
986.256
986.005
986.747
986.84
986.883
986.952
987.018
987.107
987.212
987.337
987.489
987.67
987.875
988.1
988.335
988.572
988.796
988.996
989.16
989.276
989.332
)
;
    }
    atmosphere
    {
        type            totalPressure;
        rho             rho;
        psi             none;
        gamma           1;
        p0              uniform 0;
        value           nonuniform List<scalar> 
46
(
-0.230148
-0.235988
-0.236497
-0.238949
-0.241937
-0.24564
-0.250095
-0.255353
-0.261488
-0.268579
-0.276684
-0.285868
-0.296258
-0.308043
-0.321405
-0.336491
-0.353479
-0.372617
-0.394128
-0.418131
-0.444796
-0.474475
-0.507377
-0.53403
-0.551971
-0.570741
-0.590263
-0.624488
-0.677092
-0.734337
-0.796806
-0.865228
-0.938816
-1.04462
-1.0179
-1.27128
-1.062
-0.0259762
0
0
0
0
0
0
0
0
)
;
    }
    defaultFaces
    {
        type            empty;
    }
}


// ************************************************************************* //
