/*--------------------------------*- C++ -*----------------------------------*\
| =========                 |                                                 |
| \\      /  F ield         | OpenFOAM: The Open Source CFD Toolbox           |
|  \\    /   O peration     | Version:  5.x                                   |
|   \\  /    A nd           | Web:      www.OpenFOAM.org                      |
|    \\/     M anipulation  |                                                 |
\*---------------------------------------------------------------------------*/
FoamFile
{
    version     2.0;
    format      ascii;
    class       surfaceScalarField;
    location    "0.35";
    object      phi;
}
// * * * * * * * * * * * * * * * * * * * * * * * * * * * * * * * * * * * * * //

dimensions      [0 3 -1 0 0 0 0];

internalField   nonuniform List<scalar> 
4432
(
-2.24031e-06
2.24031e-06
1.25391e-07
-2.3657e-06
5.61199e-06
-5.4866e-06
1.22709e-05
-6.6589e-06
1.86063e-05
-6.33546e-06
2.39617e-05
-5.35535e-06
2.82501e-05
-4.28839e-06
3.16454e-05
-3.39534e-06
3.43761e-05
-2.7307e-06
3.66222e-05
-2.24608e-06
3.84751e-05
-1.85286e-06
3.99353e-05
-1.46023e-06
4.09013e-05
-9.66024e-07
4.11565e-05
-2.55163e-07
4.02154e-05
9.4111e-07
3.72135e-05
3.00186e-06
3.11626e-05
6.05096e-06
2.11108e-05
1.00518e-05
7.58513e-06
1.35256e-05
-6.26603e-06
1.38512e-05
-1.55321e-05
9.26604e-06
-1.71759e-05
1.64384e-06
-1.71759e-05
-2.21428e-06
4.45459e-06
2.98901e-07
-4.87888e-06
5.85686e-06
-1.10446e-05
1.25012e-05
-1.33033e-05
1.87899e-05
-1.26241e-05
2.40969e-05
-1.06624e-05
2.83576e-05
-8.54906e-06
3.17568e-05
-6.79451e-06
3.45232e-05
-5.49711e-06
3.68291e-05
-4.55201e-06
3.87573e-05
-3.78107e-06
4.02988e-05
-3.0017e-06
4.13898e-05
-2.05697e-06
4.19631e-05
-8.2847e-07
4.20348e-05
8.69337e-07
4.17455e-05
3.29115e-06
4.06843e-05
7.11223e-06
3.73292e-05
1.34069e-05
2.88652e-05
2.19897e-05
1.39437e-05
2.87727e-05
-4.17997e-06
2.73897e-05
-8.86299e-06
6.32685e-06
-2.60389e-05
-1.993e-06
6.4476e-06
6.12644e-07
-7.48453e-06
6.23068e-06
-1.66626e-05
1.28001e-05
-1.98727e-05
1.89405e-05
-1.87645e-05
2.40941e-05
-1.5816e-05
2.82446e-05
-1.26996e-05
3.15984e-05
-1.01483e-05
3.43823e-05
-8.28103e-06
3.6753e-05
-6.92269e-06
3.87744e-05
-5.80251e-06
4.04281e-05
-4.6554e-06
4.16341e-05
-3.26295e-06
4.22534e-05
-1.44774e-06
4.21747e-05
9.48038e-07
4.13288e-05
4.13701e-06
3.99943e-05
8.44675e-06
3.87717e-05
1.46295e-05
3.67378e-05
2.40235e-05
3.04605e-05
3.505e-05
1.82343e-05
3.96159e-05
6.19209e-06
1.8369e-05
-1.98468e-05
-1.69777e-06
8.14537e-06
1.08186e-06
-1.02642e-05
6.74407e-06
-2.23248e-05
1.31902e-05
-2.63188e-05
1.91156e-05
-2.46899e-05
2.40595e-05
-2.07599e-05
2.80723e-05
-1.67124e-05
3.13845e-05
-1.34605e-05
3.42137e-05
-1.11102e-05
3.66909e-05
-9.39988e-06
3.88534e-05
-7.96499e-06
4.06634e-05
-6.46537e-06
4.20312e-05
-4.63082e-06
4.28391e-05
-2.25558e-06
4.29479e-05
8.39216e-07
4.22497e-05
4.83522e-06
4.07333e-05
9.96319e-06
3.89236e-05
1.64392e-05
3.80115e-05
2.49355e-05
3.70688e-05
3.59927e-05
3.1473e-05
4.52117e-05
1.7821e-05
3.2021e-05
-2.0258e-06
-1.30649e-06
9.45185e-06
1.68524e-06
-1.32559e-05
7.36195e-06
-2.80015e-05
1.36288e-05
-3.25857e-05
1.92783e-05
-3.03394e-05
2.39705e-05
-2.54521e-05
2.78343e-05
-2.05762e-05
3.11204e-05
-1.67466e-05
3.40265e-05
-1.40163e-05
3.66481e-05
-1.20215e-05
3.89892e-05
-1.0306e-05
4.09897e-05
-8.46591e-06
4.25521e-05
-6.19322e-06
4.35612e-05
-3.26468e-06
4.39054e-05
4.95003e-07
4.34987e-05
5.24193e-06
4.23053e-05
1.11566e-05
4.03987e-05
1.83458e-05
3.86333e-05
2.6701e-05
3.81384e-05
3.64876e-05
3.57578e-05
4.75924e-05
2.32835e-05
4.44953e-05
2.12577e-05
-8.19822e-07
1.02717e-05
2.40586e-06
-1.64816e-05
8.06859e-06
-3.36642e-05
1.41056e-05
-3.86227e-05
1.94316e-05
-3.56654e-05
2.38493e-05
-2.98698e-05
2.75707e-05
-2.42976e-05
3.0858e-05
-2.00339e-05
3.38763e-05
-1.70346e-05
3.66763e-05
-1.48215e-05
3.92245e-05
-1.28542e-05
4.14382e-05
-1.06796e-05
4.32119e-05
-7.96698e-06
4.44359e-05
-4.4887e-06
4.50117e-05
-8.07396e-08
4.48738e-05
5.3798e-06
4.40019e-05
1.20285e-05
4.24048e-05
1.99429e-05
4.01654e-05
2.89404e-05
3.82972e-05
3.83558e-05
3.5991e-05
4.98985e-05
2.51821e-05
5.53043e-05
4.64398e-05
-2.73637e-07
1.05453e-05
3.21464e-06
-1.99699e-05
8.83774e-06
-3.92873e-05
1.46068e-05
-4.43917e-05
1.95879e-05
-4.06465e-05
2.37376e-05
-3.40195e-05
2.73473e-05
-2.79073e-05
3.06776e-05
-2.33643e-05
3.38488e-05
-2.02058e-05
3.68606e-05
-1.78334e-05
3.96413e-05
-1.56349e-05
4.20876e-05
-1.31258e-05
4.40875e-05
-9.96692e-06
4.55334e-05
-5.93456e-06
4.63338e-05
-8.81115e-07
4.64368e-05
5.27678e-06
4.58117e-05
1.26536e-05
4.44912e-05
2.12634e-05
4.233e-05
3.11016e-05
3.94471e-05
4.12387e-05
3.59329e-05
5.34127e-05
2.6766e-05
6.44711e-05
7.32058e-05
3.46279e-07
1.0199e-05
4.06629e-06
-2.36899e-05
9.60258e-06
-4.48236e-05
1.50714e-05
-4.98606e-05
1.97198e-05
-4.52949e-05
2.36456e-05
-3.79452e-05
2.71995e-05
-3.14612e-05
3.06228e-05
-2.67876e-05
3.39817e-05
-2.35647e-05
3.72247e-05
-2.10764e-05
4.02484e-05
-1.86586e-05
4.29384e-05
-1.58158e-05
4.51834e-05
-1.2212e-05
4.68734e-05
-7.62459e-06
4.79263e-05
-1.93401e-06
4.82841e-05
4.91899e-06
4.78851e-05
1.30526e-05
4.67507e-05
2.23978e-05
4.48113e-05
3.3041e-05
4.16941e-05
4.43559e-05
3.69291e-05
5.81777e-05
2.73877e-05
7.40125e-05
0.000100594
-1.00428e-05
1.00428e-05
-1.28971e-05
2.85432e-06
-2.17432e-05
8.84623e-06
-2.80393e-05
6.29605e-06
-3.60043e-05
7.96511e-06
-4.20233e-05
6.01892e-06
-4.60552e-05
4.03217e-06
-4.8655e-05
2.59986e-06
-4.96408e-05
9.85922e-07
-4.91424e-05
-4.98318e-07
-4.73076e-05
-1.83491e-06
-4.43029e-05
-3.00467e-06
-4.0414e-05
-3.88886e-06
-3.56049e-05
-4.809e-06
-2.99181e-05
-5.68697e-06
-2.3375e-05
-6.54309e-06
-1.60835e-05
-7.29175e-06
-8.13534e-06
-7.94811e-06
-8.13521e-06
-8.98686e-06
1.90299e-05
-1.19494e-05
5.81681e-06
-2.16488e-05
1.85457e-05
-2.80403e-05
1.26875e-05
-3.62657e-05
1.61908e-05
-4.2245e-05
1.19982e-05
-4.58142e-05
7.60174e-06
-4.78375e-05
4.62322e-06
-4.84987e-05
1.64708e-06
-4.76827e-05
-1.31433e-06
-4.53971e-05
-4.12051e-06
-4.17744e-05
-6.62727e-06
-3.70358e-05
-8.62755e-06
-3.15221e-05
-1.03226e-05
-2.55322e-05
-1.16773e-05
-1.92972e-05
-1.27781e-05
-1.29189e-05
-1.36701e-05
-6.42408e-06
-1.4443e-05
-1.45592e-05
-8.01939e-06
2.70494e-05
-9.92249e-06
7.71982e-06
-2.13521e-05
2.99755e-05
-2.77296e-05
1.90649e-05
-3.62322e-05
2.46936e-05
-4.23655e-05
1.81315e-05
-4.60394e-05
1.12758e-05
-4.82922e-05
6.87606e-06
-4.90554e-05
2.41022e-06
-4.82545e-05
-2.11526e-06
-4.5966e-05
-6.40892e-06
-4.2423e-05
-1.01702e-05
-3.77881e-05
-1.32625e-05
-3.2298e-05
-1.58127e-05
-2.62062e-05
-1.77694e-05
-1.97636e-05
-1.92205e-05
-1.31863e-05
-2.02471e-05
-6.53412e-06
-2.10953e-05
-2.10933e-05
-1.05803e-05
3.76298e-05
-9.43154e-06
6.57098e-06
-2.20553e-05
4.25992e-05
-2.81175e-05
2.51271e-05
-3.70161e-05
3.35924e-05
-4.35974e-05
2.47128e-05
-4.69314e-05
1.46099e-05
-4.91459e-05
9.09046e-06
-4.99014e-05
3.16575e-06
-4.90583e-05
-2.95833e-06
-4.66875e-05
-8.77962e-06
-4.30701e-05
-1.37875e-05
-3.84388e-05
-1.78941e-05
-3.29868e-05
-2.12646e-05
-2.69245e-05
-2.38318e-05
-2.04289e-05
-2.57159e-05
-1.37139e-05
-2.6962e-05
-6.82117e-06
-2.79881e-05
-2.79145e-05
-1.39769e-05
5.16067e-05
-8.72592e-06
1.32001e-06
-2.44636e-05
5.83368e-05
-2.88098e-05
2.94733e-05
-3.81652e-05
4.29478e-05
-4.52845e-05
3.1832e-05
-4.82809e-05
1.76062e-05
-5.02418e-05
1.10514e-05
-5.10379e-05
3.96183e-06
-5.01375e-05
-3.85865e-06
-4.76281e-05
-1.12889e-05
-4.38475e-05
-1.75682e-05
-3.90982e-05
-2.26436e-05
-3.35431e-05
-2.68195e-05
-2.74067e-05
-2.99682e-05
-2.08545e-05
-3.22679e-05
-1.40405e-05
-3.37759e-05
-7.00241e-06
-3.50263e-05
-3.49169e-05
-1.11066e-05
6.27132e-05
-1.4428e-06
-8.34367e-06
-2.41695e-05
8.10634e-05
-3.05798e-05
3.58836e-05
-3.98275e-05
5.21956e-05
-4.77691e-05
3.97735e-05
-4.98196e-05
1.96566e-05
-5.14619e-05
1.26938e-05
-5.24478e-05
4.94784e-06
-5.14809e-05
-4.82549e-06
-4.88315e-05
-1.39383e-05
-4.48186e-05
-2.15812e-05
-3.98979e-05
-2.75644e-05
-3.41663e-05
-3.25509e-05
-2.78322e-05
-3.63022e-05
-2.12051e-05
-3.88949e-05
-1.42813e-05
-4.06997e-05
-7.12613e-06
-4.21817e-05
-4.20431e-05
-2.51013e-05
8.78144e-05
-1.31034e-05
-2.03414e-05
-3.99639e-05
0.000107924
-3.73511e-05
3.32709e-05
-4.06508e-05
5.54954e-05
-5.05444e-05
4.96671e-05
-5.1449e-05
2.05612e-05
-5.23714e-05
1.36163e-05
-5.38829e-05
6.45939e-06
-5.30561e-05
-5.65225e-06
-5.02475e-05
-1.67469e-05
-4.59509e-05
-2.58779e-05
-4.08673e-05
-3.26481e-05
-3.49188e-05
-3.84992e-05
-2.84338e-05
-4.27872e-05
-2.15936e-05
-4.57352e-05
-1.45297e-05
-4.77637e-05
-7.23464e-06
-4.94768e-05
-4.92777e-05
-6.04707e-05
0.000148285
-3.99545e-05
-4.08572e-05
-6.75512e-05
0.000135521
-4.20585e-05
7.77826e-06
-4.21908e-05
5.56278e-05
-5.54539e-05
6.29302e-05
-5.39411e-05
1.90484e-05
-5.30129e-05
1.26882e-05
-5.5889e-05
9.33563e-06
-5.45357e-05
-7.00567e-06
-5.14504e-05
-1.98323e-05
-4.71129e-05
-3.02153e-05
-4.19888e-05
-3.77723e-05
-3.57939e-05
-4.4694e-05
-2.90669e-05
-4.95143e-05
-2.20344e-05
-5.27678e-05
-1.47677e-05
-5.50305e-05
-7.38165e-06
-5.68628e-05
-5.66593e-05
3.00956e-06
7.18947e-06
1.16927e-05
-3.2373e-05
2.28767e-05
-5.60077e-05
3.33053e-05
-6.02891e-05
4.20956e-05
-5.40852e-05
4.98829e-05
-4.57326e-05
5.74563e-05
-3.90346e-05
6.51429e-05
-3.44742e-05
7.28747e-05
-3.12964e-05
8.04054e-05
-2.86072e-05
8.7465e-05
-2.57181e-05
9.38312e-05
-2.2182e-05
9.93325e-05
-1.77133e-05
0.000103766
-1.20577e-05
0.000106919
-5.08699e-06
0.000108856
2.98206e-06
0.000109121
1.27874e-05
0.000107683
2.38355e-05
0.000104557
3.61668e-05
9.93826e-05
4.95304e-05
9.24006e-05
6.51598e-05
8.5085e-05
8.1328e-05
0.000111513
7.41656e-05
6.93016e-06
2.5931e-07
1.72067e-05
-4.26495e-05
2.68018e-05
-6.56028e-05
3.48183e-05
-6.83056e-05
4.19611e-05
-6.12279e-05
4.92059e-05
-5.29774e-05
5.70147e-05
-4.68434e-05
6.52968e-05
-4.27563e-05
7.37034e-05
-3.97031e-05
8.1862e-05
-3.67657e-05
8.94782e-05
-3.33343e-05
9.63658e-05
-2.90696e-05
0.000102487
-2.38341e-05
0.000107986
-1.75568e-05
0.000112876
-9.97678e-06
0.00011565
2.07838e-07
0.000117807
1.06302e-05
0.000118456
2.31861e-05
0.000117738
3.68855e-05
0.00011608
5.11881e-05
0.000114749
6.64904e-05
0.0001143
8.17769e-05
0.000106102
0.000119711
1.32225e-05
-1.29632e-05
2.74871e-05
-5.69142e-05
3.43953e-05
-7.2511e-05
3.78692e-05
-7.17795e-05
4.26078e-05
-6.59665e-05
4.96591e-05
-6.00287e-05
5.82737e-05
-5.5458e-05
6.75787e-05
-5.20614e-05
7.69594e-05
-4.90837e-05
8.60221e-05
-4.58284e-05
9.45082e-05
-4.18204e-05
0.000102202
-3.67637e-05
0.0001088
-3.04323e-05
0.000114001
-2.27577e-05
0.000117866
-1.38412e-05
0.000122283
-4.2095e-06
0.000125033
7.88084e-06
0.000126279
2.19394e-05
0.000126974
3.61903e-05
0.000127728
5.04344e-05
0.000129225
6.49938e-05
0.000130974
8.0028e-05
9.63835e-05
0.000140692
2.34348e-05
-3.6398e-05
4.43709e-05
-7.78503e-05
4.67077e-05
-7.48478e-05
4.33498e-05
-6.84216e-05
4.51683e-05
-6.7785e-05
5.24892e-05
-6.73497e-05
6.22589e-05
-6.52276e-05
7.26658e-05
-6.24683e-05
8.30648e-05
-5.94828e-05
9.3313e-05
-5.60766e-05
0.000103509
-5.20164e-05
0.000113725
-4.69795e-05
0.000123905
-4.0612e-05
0.000134027
-3.28797e-05
0.000143566
-2.33802e-05
0.000151139
-1.1783e-05
0.00015403
4.98948e-06
0.000153037
2.29332e-05
0.00015012
3.91068e-05
0.000147156
5.33982e-05
0.000145244
6.69059e-05
0.000145057
8.02149e-05
9.1579e-05
0.000149862
3.33558e-05
-6.97538e-05
5.73184e-05
-0.000101813
5.41807e-05
-7.17101e-05
4.51303e-05
-5.93712e-05
4.32003e-05
-6.5855e-05
4.85434e-05
-7.26928e-05
5.57906e-05
-7.24748e-05
6.27921e-05
-6.94698e-05
6.90782e-05
-6.57688e-05
7.44212e-05
-6.14197e-05
7.78991e-05
-5.54943e-05
7.75567e-05
-4.66371e-05
8.00609e-05
-4.31162e-05
9.18836e-05
-4.47025e-05
0.000113906
-4.54027e-05
0.0001449
-4.27768e-05
0.00017521
-2.53211e-05
0.000185963
1.21804e-05
0.000183871
4.1199e-05
0.00017875
5.85197e-05
0.000173594
7.20619e-05
0.000168311
8.5498e-05
9.32716e-05
0.000166618
3.62949e-05
-0.000106049
3.09652e-05
-9.64832e-05
2.78709e-05
-6.86158e-05
2.19748e-05
-5.3475e-05
1.64992e-05
-6.03794e-05
1.20012e-05
-6.81948e-05
8.38551e-06
-6.88591e-05
4.93595e-06
-6.60202e-05
2.19057e-06
-6.30234e-05
2.20559e-06
-6.14347e-05
8.18498e-06
-6.14736e-05
2.17627e-05
-6.02148e-05
3.46457e-05
-5.59992e-05
4.29502e-05
-5.30071e-05
5.89396e-05
-6.13921e-05
8.68566e-05
-7.06939e-05
0.00012713
-6.55939e-05
0.000169672
-3.03621e-05
0.00019388
1.69915e-05
0.000196929
5.54706e-05
0.000185704
8.32866e-05
0.000175629
9.55732e-05
9.189e-05
0.00017701
-1.92371e-05
-8.68115e-05
-2.28968e-05
-9.28234e-05
-1.7984e-05
-7.35285e-05
-4.09243e-06
-6.73665e-05
1.494e-06
-6.59658e-05
4.55014e-07
-6.71558e-05
-1.90195e-06
-6.65021e-05
-3.4797e-06
-6.44425e-05
-3.15437e-06
-6.33487e-05
4.03602e-07
-6.49926e-05
7.60378e-06
-6.86738e-05
1.76661e-05
-7.02772e-05
2.41703e-05
-6.25033e-05
2.75686e-05
-5.64053e-05
4.76662e-05
-8.14897e-05
8.12383e-05
-0.000104266
0.000117089
-0.000101445
0.000161003
-7.4276e-05
0.000205054
-2.70591e-05
0.000228652
3.18724e-05
0.000228652
8.32866e-05
0.000211482
0.000112743
0.000115664
0.000187708
-2.17421e-05
-6.50693e-05
-2.03816e-05
-9.41838e-05
-1.16249e-05
-8.22851e-05
-5.69226e-06
-7.32991e-05
-2.4556e-06
-6.92024e-05
-1.3918e-06
-6.82195e-05
-1.25845e-06
-6.66354e-05
-9.48705e-07
-6.47522e-05
3.3189e-07
-6.46293e-05
3.0183e-06
-6.7679e-05
6.67086e-06
-7.23263e-05
1.11116e-05
-7.47178e-05
1.37647e-05
-6.51564e-05
1.94406e-05
-6.20812e-05
4.01809e-05
-0.00010223
6.12976e-05
-0.000125383
8.34973e-05
-0.000123645
0.000113461
-0.00010424
0.00014834
-6.19374e-05
0.000181682
-1.47003e-06
0.000198738
6.62308e-05
0.000200999
0.000110482
0.000125592
0.000191071
-7.5975e-06
-5.74718e-05
-7.03464e-06
-9.47466e-05
-5.4673e-06
-8.38524e-05
-3.40737e-06
-7.5359e-05
-9.70062e-07
-7.16397e-05
8.22568e-07
-7.00121e-05
2.06515e-06
-6.7878e-05
3.023e-06
-6.571e-05
3.87999e-06
-6.54863e-05
4.53152e-06
-6.83305e-05
4.83884e-06
-7.26336e-05
6.0078e-06
-7.58867e-05
1.04861e-05
-6.96346e-05
2.09705e-05
-7.25655e-05
2.16368e-05
-0.000102896
1.88166e-05
-0.000122562
2.1426e-05
-0.000126254
2.68531e-05
-0.000109667
3.84505e-05
-7.35348e-05
6.01137e-05
-2.31333e-05
9.75381e-05
2.88066e-05
0.000130129
7.78912e-05
0.000106838
0.000148884
-1.69664e-06
-5.57751e-05
-3.07359e-06
-9.33696e-05
-2.63054e-06
-8.42954e-05
-1.07226e-06
-7.69173e-05
1.031e-06
-7.37429e-05
2.94699e-06
-7.19281e-05
4.76719e-06
-6.96982e-05
6.44873e-06
-6.73916e-05
7.62207e-06
-6.66596e-05
7.82277e-06
-6.85312e-05
7.2802e-06
-7.2091e-05
7.26141e-06
-7.58678e-05
1.25847e-05
-7.49577e-05
1.81331e-05
-7.81138e-05
9.01456e-06
-9.37775e-05
-2.60941e-06
-0.000110939
-1.64058e-05
-0.000112458
-2.95041e-05
-9.6569e-05
-3.26342e-05
-7.04047e-05
-2.17776e-05
-3.39898e-05
3.62852e-06
3.40057e-06
3.69125e-05
4.46073e-05
7.8349e-05
6.54014e-05
5.75083e-07
-5.63502e-05
-3.4491e-07
-9.24497e-05
-1.866e-07
-8.44537e-05
1.08414e-06
-7.8188e-05
3.0017e-06
-7.56604e-05
5.07613e-06
-7.40025e-05
7.40328e-06
-7.20253e-05
9.92514e-06
-6.99134e-05
1.20827e-05
-6.88172e-05
1.32351e-05
-6.96836e-05
1.34819e-05
-7.23376e-05
1.33876e-05
-7.57735e-05
1.64956e-05
-7.80655e-05
1.96329e-05
-8.1251e-05
1.46445e-05
-8.8789e-05
5.19353e-07
-9.68134e-05
-1.26558e-05
-9.92827e-05
-1.64009e-05
-9.28239e-05
-1.285e-05
-7.39556e-05
-3.73411e-06
-4.31057e-05
1.03358e-05
-1.06692e-05
3.30694e-05
2.18738e-05
3.74551e-05
7.39632e-05
1.62733e-06
-5.79775e-05
1.33342e-06
-9.21558e-05
1.66545e-06
-8.47857e-05
2.94496e-06
-7.94675e-05
4.79358e-06
-7.7509e-05
6.96406e-06
-7.61729e-05
9.56478e-06
-7.4626e-05
1.26083e-05
-7.2957e-05
1.56438e-05
-7.18527e-05
1.80388e-05
-7.20786e-05
1.95098e-05
-7.38086e-05
2.01548e-05
-7.64184e-05
2.13343e-05
-7.92449e-05
2.23542e-05
-8.22708e-05
1.94742e-05
-8.5909e-05
1.10618e-05
-8.84012e-05
-3.61906e-07
-8.7859e-05
-7.64728e-06
-8.55386e-05
-5.85479e-06
-7.5748e-05
4.59005e-06
-5.35504e-05
2.11685e-05
-2.72475e-05
4.2406e-05
6.36411e-07
2.07962e-05
5.9065e-05
2.14573e-06
-6.01233e-05
2.37684e-06
-9.2387e-05
3.00191e-06
-8.54108e-05
4.39321e-06
-8.08587e-05
6.2415e-06
-7.93572e-05
8.4125e-06
-7.83438e-05
1.10006e-05
-7.7214e-05
1.40769e-05
-7.60333e-05
1.73866e-05
-7.51625e-05
2.04026e-05
-7.50945e-05
2.2641e-05
-7.6047e-05
2.39409e-05
-7.77182e-05
2.43555e-05
-7.96594e-05
2.35569e-05
-8.14722e-05
2.04808e-05
-8.2833e-05
1.49121e-05
-8.28325e-05
7.35145e-06
-8.02984e-05
-3.22858e-06
-7.49585e-05
-1.34953e-05
-6.54813e-05
-1.70267e-05
-5.00189e-05
-1.23658e-05
-3.19082e-05
1.09859e-06
-1.28279e-05
3.92896e-06
1.79659e-05
2.37178e-06
-6.24951e-05
3.0262e-06
-9.30414e-05
3.96533e-06
-8.63499e-05
5.49209e-06
-8.23854e-05
7.36905e-06
-8.12341e-05
9.50193e-06
-8.04767e-05
1.1935e-05
-7.96471e-05
1.47291e-05
-7.88274e-05
1.77652e-05
-7.81986e-05
2.06763e-05
-7.80056e-05
2.30123e-05
-7.83829e-05
2.44767e-05
-7.91826e-05
2.4896e-05
-8.00787e-05
2.41002e-05
-8.06764e-05
2.18976e-05
-8.06304e-05
1.84557e-05
-7.93907e-05
1.43209e-05
-7.61637e-05
9.79446e-06
-7.0432e-05
6.10467e-06
-6.17914e-05
6.07149e-06
-4.99855e-05
1.05447e-05
-3.63813e-05
2.00312e-05
-2.23143e-05
-9.55191e-06
3.35121e-05
2.40839e-06
-6.49035e-05
3.44755e-06
-9.40806e-05
4.66806e-06
-8.75704e-05
6.32648e-06
-8.40438e-05
8.24334e-06
-8.31509e-05
1.03474e-05
-8.25807e-05
1.26379e-05
-8.19375e-05
1.51274e-05
-8.1317e-05
1.77496e-05
-8.08208e-05
2.02865e-05
-8.05425e-05
2.24268e-05
-8.05232e-05
2.39181e-05
-8.06738e-05
2.46166e-05
-8.07772e-05
2.44725e-05
-8.05323e-05
2.34726e-05
-7.96305e-05
2.17549e-05
-7.76731e-05
1.97815e-05
-7.41903e-05
1.81682e-05
-6.88187e-05
1.77731e-05
-6.13962e-05
1.98084e-05
-5.20207e-05
2.48882e-05
-4.14609e-05
3.31944e-05
-3.06204e-05
-2.04481e-05
4.40906e-05
2.39561e-06
-6.72991e-05
3.7408e-06
-9.54258e-05
5.18702e-06
-8.90166e-05
6.96121e-06
-8.58179e-05
8.92681e-06
-8.51165e-05
1.10291e-05
-8.46831e-05
1.32504e-05
-8.41589e-05
1.55683e-05
-8.3635e-05
1.79267e-05
-8.31793e-05
2.02033e-05
-8.28192e-05
2.22236e-05
-8.25435e-05
2.38298e-05
-8.228e-05
2.49298e-05
-8.18773e-05
2.55106e-05
-8.11132e-05
2.56146e-05
-7.97345e-05
2.54074e-05
-7.74659e-05
2.52388e-05
-7.40217e-05
2.56058e-05
-6.91857e-05
2.71196e-05
-6.29099e-05
3.0458e-05
-5.5359e-05
3.60074e-05
-4.70103e-05
4.38056e-05
-3.84186e-05
-3.00843e-05
5.34417e-05
2.37994e-06
-6.96791e-05
3.95453e-06
-9.70003e-05
5.57585e-06
-9.06379e-05
7.4508e-06
-8.76928e-05
9.46964e-06
-8.71353e-05
1.15903e-05
-8.68038e-05
1.37989e-05
-8.63675e-05
1.60664e-05
-8.59026e-05
1.83433e-05
-8.54563e-05
2.05568e-05
-8.50327e-05
2.26165e-05
-8.46033e-05
2.44372e-05
-8.41007e-05
2.59693e-05
-8.34094e-05
2.72255e-05
-8.23695e-05
2.82859e-05
-8.07948e-05
2.93096e-05
-7.84896e-05
3.05568e-05
-7.5269e-05
3.23844e-05
-7.10133e-05
3.52026e-05
-6.5728e-05
3.94123e-05
-5.95686e-05
4.52586e-05
-5.28566e-05
5.27624e-05
-4.59223e-05
-3.90125e-05
6.16905e-05
2.3766e-06
-7.20557e-05
4.11699e-06
-9.87407e-05
5.87161e-06
-9.23925e-05
7.83307e-06
-8.96543e-05
9.90605e-06
-8.92084e-05
1.20569e-05
-8.89548e-05
1.428e-05
-8.85907e-05
1.6556e-05
-8.81787e-05
1.88497e-05
-8.775e-05
2.11149e-05
-8.7298e-05
2.33024e-05
-8.67909e-05
2.53714e-05
-8.61697e-05
2.73072e-05
-8.53452e-05
2.91397e-05
-8.42019e-05
3.09506e-05
-8.26058e-05
3.288e-05
-8.0419e-05
3.51345e-05
-7.75235e-05
3.79772e-05
-7.3856e-05
4.16924e-05
-6.94432e-05
4.65376e-05
-6.44138e-05
5.26722e-05
-5.89912e-05
6.01105e-05
-5.33606e-05
-4.76049e-05
6.87029e-05
2.38933e-06
-7.4445e-05
4.24394e-06
-0.000100595
6.09863e-06
-9.42472e-05
8.13326e-06
-9.1689e-05
1.0259e-05
-9.13343e-05
1.24477e-05
-9.11435e-05
1.46999e-05
-9.08429e-05
1.70077e-05
-9.04866e-05
1.93519e-05
-9.00942e-05
2.1707e-05
-8.96531e-05
2.40484e-05
-8.91323e-05
2.63622e-05
-8.84835e-05
2.86562e-05
-8.76392e-05
3.09699e-05
-8.65156e-05
3.33825e-05
-8.50184e-05
3.60176e-05
-8.30542e-05
3.90419e-05
-8.05479e-05
4.26528e-05
-7.74669e-05
4.70513e-05
-7.38417e-05
5.24086e-05
-6.97711e-05
5.88283e-05
-6.54109e-05
6.63212e-05
-6.08535e-05
-5.60851e-05
7.48015e-05
2.41563e-06
-7.68606e-05
4.3438e-06
-0.000102523
6.27247e-06
-9.61759e-05
8.36792e-06
-9.37846e-05
1.05427e-05
-9.35092e-05
1.2773e-05
-9.33739e-05
1.50642e-05
-9.31341e-05
1.74167e-05
-9.28391e-05
1.98245e-05
-9.25021e-05
2.2279e-05
-9.21076e-05
2.47744e-05
-9.16277e-05
2.73144e-05
-9.10235e-05
2.992e-05
-9.02448e-05
3.26365e-05
-8.92322e-05
3.55389e-05
-8.79208e-05
3.87331e-05
-8.62484e-05
4.23522e-05
-8.41671e-05
4.65452e-05
-8.16599e-05
5.14578e-05
-7.87543e-05
5.72123e-05
-7.55255e-05
6.38856e-05
-7.20842e-05
7.14933e-05
-6.84611e-05
-6.45853e-05
7.99935e-05
2.45117e-06
-7.93118e-05
4.4205e-06
-0.000104493
6.40177e-06
-9.81572e-05
8.54607e-06
-9.59289e-05
1.07635e-05
-9.57266e-05
1.30345e-05
-9.56449e-05
1.53686e-05
-9.54683e-05
1.77727e-05
-9.52432e-05
2.02498e-05
-9.49792e-05
2.28036e-05
-9.46614e-05
2.54413e-05
-9.42655e-05
2.81789e-05
-9.37611e-05
3.10455e-05
-9.31114e-05
3.40885e-05
-9.22752e-05
3.73766e-05
-9.12089e-05
4.10005e-05
-8.98722e-05
4.50682e-05
-8.82349e-05
4.9697e-05
-8.62886e-05
5.49993e-05
-8.40567e-05
6.10707e-05
-8.1597e-05
6.79759e-05
-7.89894e-05
7.57371e-05
-7.62223e-05
-7.31945e-05
8.43464e-05
2.49066e-06
-8.18024e-05
4.47426e-06
-0.000106476
6.49029e-06
-0.000100173
8.67146e-06
-9.81101e-05
1.09229e-05
-9.79781e-05
1.32287e-05
-9.79508e-05
1.56027e-05
-9.78423e-05
1.80565e-05
-9.7697e-05
2.05998e-05
-9.75226e-05
2.32439e-05
-9.73054e-05
2.60047e-05
-9.70263e-05
2.89058e-05
-9.66621e-05
3.19811e-05
-9.61867e-05
3.52782e-05
-9.55722e-05
3.88601e-05
-9.47908e-05
4.28056e-05
-9.38177e-05
4.72056e-05
-9.2635e-05
5.21567e-05
-9.12398e-05
5.77516e-05
-8.96516e-05
6.40714e-05
-8.79169e-05
7.11767e-05
-8.60947e-05
7.91e-05
-8.41456e-05
-8.19569e-05
8.78624e-05
2.52818e-06
-8.43306e-05
4.50349e-06
-0.000108452
6.53923e-06
-0.000102209
8.74485e-06
-0.000100316
1.10196e-05
-0.000100253
1.33509e-05
-0.000100282
1.5756e-05
-0.000100247
1.82505e-05
-0.000100191
2.08484e-05
-0.00010012
2.35663e-05
-0.000100023
2.64254e-05
-9.98854e-05
2.94534e-05
-9.96901e-05
3.26867e-05
-9.942e-05
3.61717e-05
-9.90572e-05
3.99669e-05
-9.85861e-05
4.41424e-05
-9.79932e-05
4.87774e-05
-9.727e-05
5.39554e-05
-9.64179e-05
5.97575e-05
-9.54538e-05
6.62585e-05
-9.44179e-05
7.35209e-05
-9.33571e-05
8.15914e-05
-9.22161e-05
-9.08809e-05
9.05154e-05
2.5576e-06
-8.68881e-05
4.50705e-06
-0.000110401
6.54949e-06
-0.000104251
8.76642e-06
-0.000102533
1.10519e-05
-0.000102538
1.33965e-05
-0.000102627
1.58203e-05
-0.000102671
1.83415e-05
-0.000102713
2.09772e-05
-0.000102756
2.37474e-05
-0.000102793
2.66761e-05
-0.000102814
2.97932e-05
-0.000102807
3.31356e-05
-0.000102762
3.67482e-05
-0.00010267
4.06854e-05
-0.000102523
4.50105e-05
-0.000102318
4.9795e-05
-0.000102055
5.51141e-05
-0.000101737
6.1043e-05
-0.000101383
6.76547e-05
-0.00010103
7.50174e-05
-0.00010072
8.31944e-05
-0.000100393
-9.9939e-05
9.22525e-05
2.57382e-06
-8.9462e-05
4.48618e-06
-0.000112313
6.52372e-06
-0.000106289
8.73775e-06
-0.000104747
1.10193e-05
-0.00010482
1.33627e-05
-0.00010497
1.579e-05
-0.000105099
1.83206e-05
-0.000105243
2.09738e-05
-0.000105409
2.37713e-05
-0.000105591
2.67388e-05
-0.000105782
2.99068e-05
-0.000105975
3.33115e-05
-0.000106167
3.69959e-05
-0.000106354
4.10103e-05
-0.000106538
4.54128e-05
-0.000106721
5.02687e-05
-0.000106911
5.56483e-05
-0.000107117
6.16239e-05
-0.000107358
6.82691e-05
-0.000107675
7.56598e-05
-0.00010811
8.38772e-05
-0.000108611
-0.000109069
9.30071e-05
2.57468e-06
-9.20367e-05
4.44536e-06
-0.000114184
6.46697e-06
-0.000108311
8.66264e-06
-0.000106942
1.09245e-05
-0.000107082
1.32504e-05
-0.000107296
1.56634e-05
-0.000107511
1.81837e-05
-0.000107764
2.08314e-05
-0.000108057
2.36293e-05
-0.000108389
2.66033e-05
-0.000108756
2.97837e-05
-0.000109156
3.32055e-05
-0.000109589
3.6909e-05
-0.000110058
4.09407e-05
-0.000110569
4.53538e-05
-0.000111134
5.02084e-05
-0.000111765
5.55706e-05
-0.000112479
6.15111e-05
-0.000113299
6.81046e-05
-0.000114268
7.54346e-05
-0.00011544
8.35998e-05
-0.000116776
-0.000118172
9.2703e-05
2.56236e-06
-9.45991e-05
4.39116e-06
-0.000116013
6.38502e-06
-0.000110305
8.54607e-06
-0.000109103
1.07718e-05
-0.000109307
1.30632e-05
-0.000109587
1.54431e-05
-0.000109891
1.79319e-05
-0.000110252
2.055e-05
-0.000110675
2.33201e-05
-0.000111159
2.62679e-05
-0.000111704
2.94226e-05
-0.00011231
3.28173e-05
-0.000112983
3.64897e-05
-0.00011373
4.04822e-05
-0.000114562
4.48431e-05
-0.000115495
4.96271e-05
-0.000116549
5.48958e-05
-0.000117748
6.07173e-05
-0.00011912
6.7166e-05
-0.000120717
7.433e-05
-0.000122604
8.23222e-05
-0.000124768
-0.00012711
9.12598e-05
2.54285e-06
-9.7142e-05
4.32888e-06
-0.000117799
6.28093e-06
-0.000112257
8.39132e-06
-0.000111214
1.0565e-05
-0.000111481
1.28052e-05
-0.000111827
1.51337e-05
-0.00011222
1.75702e-05
-0.000112689
2.01347e-05
-0.00011324
2.28495e-05
-0.000113874
2.57392e-05
-0.000114593
2.88314e-05
-0.000115403
3.21572e-05
-0.000116309
3.57509e-05
-0.000117324
3.96511e-05
-0.000118462
4.39007e-05
-0.000119745
4.85484e-05
-0.000121197
5.365e-05
-0.000122849
5.92686e-05
-0.000124739
6.54744e-05
-0.000126923
7.23543e-05
-0.000129484
8.00284e-05
-0.000132442
-0.000135704
8.86231e-05
2.52306e-06
-9.96651e-05
4.25863e-06
-0.000119535
6.15231e-06
-0.00011415
8.19726e-06
-0.000113259
1.03044e-05
-0.000113588
1.24782e-05
-0.000114001
1.47385e-05
-0.00011448
1.7104e-05
-0.000115054
1.95937e-05
-0.000115729
2.22285e-05
-0.000116509
2.50316e-05
-0.000117396
2.80286e-05
-0.0001184
3.12479e-05
-0.000119528
3.47205e-05
-0.000120797
3.84807e-05
-0.000122222
4.25658e-05
-0.00012383
4.70178e-05
-0.000125649
5.18844e-05
-0.000127716
5.72206e-05
-0.000130075
6.30877e-05
-0.00013279
6.95635e-05
-0.00013596
7.67648e-05
-0.000139643
-0.000143757
8.4818e-05
2.50698e-06
-0.000102172
4.17366e-06
-0.000121202
5.99152e-06
-0.000115968
7.95793e-06
-0.000115225
9.98563e-06
-0.000115616
1.20795e-05
-0.000116095
1.42575e-05
-0.000116658
1.65366e-05
-0.000117334
1.89342e-05
-0.000118127
2.14696e-05
-0.000119044
2.41638e-05
-0.00012009
2.70399e-05
-0.000121276
3.01234e-05
-0.000122612
3.34416e-05
-0.000124115
3.70239e-05
-0.000125805
4.09018e-05
-0.000127708
4.51096e-05
-0.000129857
4.96854e-05
-0.000132292
5.46728e-05
-0.000135062
6.01196e-05
-0.000138237
6.6087e-05
-0.000141927
7.26748e-05
-0.000146231
-0.000151083
8.00001e-05
2.49397e-06
-0.000104666
4.06258e-06
-0.00012277
5.7884e-06
-0.000117694
7.66449e-06
-0.000117101
9.60088e-06
-0.000117552
1.16025e-05
-0.000118097
1.36858e-05
-0.000118742
1.5866e-05
-0.000119514
1.81585e-05
-0.00012042
2.05804e-05
-0.000121466
2.31505e-05
-0.00012266
2.58891e-05
-0.000124014
2.8818e-05
-0.000125541
3.19606e-05
-0.000127257
3.5341e-05
-0.000129185
3.89843e-05
-0.000131351
4.29167e-05
-0.000133789
4.71661e-05
-0.000136541
5.17627e-05
-0.000139659
5.67379e-05
-0.000143212
6.21293e-05
-0.000147319
6.80053e-05
-0.000152107
-0.000157538
7.4461e-05
2.48014e-06
-0.000107146
3.91361e-06
-0.000124204
5.53275e-06
-0.000119313
7.30689e-06
-0.000118875
9.13949e-06
-0.000119385
1.1036e-05
-0.000119993
1.3012e-05
-0.000120718
1.50809e-05
-0.000121583
1.72564e-05
-0.000122595
1.95537e-05
-0.000123763
2.19889e-05
-0.000125096
2.45793e-05
-0.000126605
2.73431e-05
-0.000128305
3.0299e-05
-0.000130213
3.34663e-05
-0.000132352
3.68637e-05
-0.000134748
4.051e-05
-0.000137435
4.44231e-05
-0.000140454
4.86202e-05
-0.000143856
5.31156e-05
-0.000147707
5.79194e-05
-0.000152123
6.30559e-05
-0.000157244
-0.000163063
6.85808e-05
2.46115e-06
-0.000109607
3.71738e-06
-0.00012546
5.21475e-06
-0.000120811
6.87359e-06
-0.000120534
8.58699e-06
-0.000121098
1.03626e-05
-0.000121769
1.22154e-05
-0.00012257
1.41572e-05
-0.000123524
1.62007e-05
-0.000124639
1.83589e-05
-0.000125921
2.06458e-05
-0.000127383
2.30755e-05
-0.000129034
2.56631e-05
-0.000130892
2.84235e-05
-0.000132974
3.13714e-05
-0.0001353
3.45207e-05
-0.000137898
3.78839e-05
-0.000140798
4.14711e-05
-0.000144041
4.52888e-05
-0.000147674
4.93369e-05
-0.000151755
5.36004e-05
-0.000156386
5.8056e-05
-0.000161699
-0.000167714
6.27072e-05
2.43312e-06
-0.000112041
3.46696e-06
-0.000126494
4.82509e-06
-0.000122169
6.35167e-06
-0.000122061
7.92619e-06
-0.000122673
9.56055e-06
-0.000123403
1.12686e-05
-0.000124278
1.30612e-05
-0.000125317
1.49499e-05
-0.000126527
1.69459e-05
-0.000127917
1.90613e-05
-0.000129498
2.13081e-05
-0.000131281
2.3699e-05
-0.000133283
2.62461e-05
-0.000135521
2.89613e-05
-0.000138015
3.18553e-05
-0.000140792
3.49364e-05
-0.00014388
3.82099e-05
-0.000147315
4.16757e-05
-0.00015114
4.53246e-05
-0.000155404
4.91264e-05
-0.000160188
5.30219e-05
-0.000165595
-0.000171659
5.69665e-05
2.39028e-06
-0.000114431
3.15853e-06
-0.000127262
4.3591e-06
-0.00012337
5.73245e-06
-0.000123435
7.14527e-06
-0.000124086
8.61395e-06
-0.000124872
1.01511e-05
-0.000125816
1.17663e-05
-0.000126933
1.347e-05
-0.000128231
1.5272e-05
-0.00012972
1.71829e-05
-0.000131409
1.92133e-05
-0.000133312
2.13742e-05
-0.000135444
2.36765e-05
-0.000137823
2.61303e-05
-0.000140469
2.87448e-05
-0.000143406
3.15264e-05
-0.000146661
3.44785e-05
-0.000150267
3.75987e-05
-0.00015426
4.08753e-05
-0.000158681
4.42742e-05
-0.000163587
4.77245e-05
-0.000169045
-0.000175091
5.11563e-05
2.32139e-06
-0.000116752
2.79482e-06
-0.000127736
3.82364e-06
-0.000124398
5.0214e-06
-0.000124632
6.25034e-06
-0.000125315
7.52916e-06
-0.000126151
8.86923e-06
-0.000127156
1.0279e-05
-0.000128342
1.17671e-05
-0.000129719
1.33423e-05
-0.000131295
1.50134e-05
-0.00013308
1.67901e-05
-0.000135088
1.86824e-05
-0.000137336
2.06999e-05
-0.000139841
2.28521e-05
-0.000142621
2.5147e-05
-0.000145701
2.75913e-05
-0.000149106
3.01879e-05
-0.000152864
3.29346e-05
-0.000157007
3.58209e-05
-0.000161567
3.8818e-05
-0.000166584
4.18655e-05
-0.000172093
-0.000178123
4.48982e-05
2.20856e-06
-0.000118961
2.38771e-06
-0.000127915
3.23893e-06
-0.00012525
4.24266e-06
-0.000125636
5.27163e-06
-0.000126344
6.34343e-06
-0.000127223
7.46804e-06
-0.00012828
8.65215e-06
-0.000129527
9.9025e-06
-0.00013097
1.12262e-05
-0.000132619
1.26309e-05
-0.000134485
1.41251e-05
-0.000136583
1.57173e-05
-0.000138928
1.74162e-05
-0.000141539
1.923e-05
-0.000144435
2.11663e-05
-0.000147637
2.32312e-05
-0.00015117
2.54272e-05
-0.00015506
2.77522e-05
-0.000159332
3.01984e-05
-0.000164014