/*--------------------------------*- C++ -*----------------------------------*\
| =========                 |                                                 |
| \\      /  F ield         | OpenFOAM: The Open Source CFD Toolbox           |
|  \\    /   O peration     | Version:  5.x                                   |
|   \\  /    A nd           | Web:      www.OpenFOAM.org                      |
|    \\/     M anipulation  |                                                 |
\*---------------------------------------------------------------------------*/
FoamFile
{
    version     2.0;
    format      ascii;
    class       volVectorField;
    location    "0.35";
    object      U;
}
// * * * * * * * * * * * * * * * * * * * * * * * * * * * * * * * * * * * * * //

dimensions      [0 1 -1 0 0 0 0];

internalField   nonuniform List<vector> 
2268
(
(-0.0280974 0.00609364 0)
(-0.0237344 -0.00628007 0)
(0.0279483 -0.0147211 0)
(0.101226 -0.0179212 0)
(0.176347 -0.0170641 0)
(0.244307 -0.0144064 0)
(0.300024 -0.0115017 0)
(0.343692 -0.0090639 0)
(0.378104 -0.0072455 0)
(0.406063 -0.00591972 0)
(0.429267 -0.00484775 0)
(0.448189 -0.00378745 0)
(0.462333 -0.00244818 0)
(0.469938 -0.000508245 0)
(0.468495 0.00354572 0)
(0.448966 0.0110352 0)
(0.401933 0.0223204 0)
(0.315046 0.036494 0)
(0.178346 0.0468694 0)
(0.00392241 0.0363602 0)
(-0.142331 0.00747304 0)
(-0.247887 0.00245887 0)
(-0.100775 -0.0620789 0)
(-0.0295172 0.0180781 0)
(-0.0218251 -0.0195863 0)
(0.0305593 -0.0446576 0)
(0.104161 -0.0540118 0)
(0.179039 -0.0513849 0)
(0.246311 -0.0434531 0)
(0.301421 -0.0348238 0)
(0.344879 -0.0276046 0)
(0.37952 -0.0222324 0)
(0.408052 -0.0183127 0)
(0.432049 -0.0151333 0)
(0.451933 -0.0119546 0)
(0.467142 -0.00807209 0)
(0.476885 -0.00271913 0)
(0.479725 0.00533406 0)
(0.478898 0.0182921 0)
(0.474434 0.0383126 0)
(0.457629 0.0674988 0)
(0.404436 0.102674 0)
(0.263614 0.121697 0)
(0.0681083 0.0966895 0)
(-0.182617 0.00729357 0)
(0.0110068 -0.139496 0)
(-0.0278536 0.0294826 0)
(-0.0184064 -0.033351 0)
(0.0349124 -0.0748194 0)
(0.108293 -0.0897311 0)
(0.18194 -0.0850175 0)
(0.247294 -0.0717584 0)
(0.300689 -0.0575506 0)
(0.343172 -0.0458025 0)
(0.377669 -0.0371423 0)
(0.406722 -0.0308378 0)
(0.431676 -0.0256829 0)
(0.452743 -0.0204587 0)
(0.469324 -0.0141431 0)
(0.48014 -0.00584928 0)
(0.483729 0.00483468 0)
(0.478691 0.0192496 0)
(0.465654 0.0406547 0)
(0.44962 0.0745496 0)
(0.441638 0.126167 0)
(0.404152 0.178725 0)
(0.301291 0.189371 0)
(0.0826881 0.0681479 0)
(0.0834035 -0.13995 0)
(-0.0263022 0.039506 0)
(-0.0132546 -0.0478491 0)
(0.0410626 -0.105304 0)
(0.113784 -0.124958 0)
(0.185467 -0.117701 0)
(0.24816 -0.0991031 0)
(0.299347 -0.0796191 0)
(0.34073 -0.0637746 0)
(0.375287 -0.0522364 0)
(0.405284 -0.0438506 0)
(0.431722 -0.0369005 0)
(0.454537 -0.0297379 0)
(0.472949 -0.0210216 0)
(0.48575 -0.00973578 0)
(0.491517 0.00521357 0)
(0.488826 0.0246771 0)
(0.476778 0.0501123 0)
(0.455334 0.0838632 0)
(0.437182 0.132228 0)
(0.433507 0.195602 0)
(0.418127 0.23881 0)
(0.275372 0.143498 0)
(0.167271 -0.0646246 0)
(-0.0242296 0.0477137 0)
(-0.00656497 -0.0633996 0)
(0.048666 -0.135898 0)
(0.120183 -0.159283 0)
(0.189142 -0.148966 0)
(0.248548 -0.125133 0)
(0.297232 -0.100877 0)
(0.337564 -0.0815514 0)
(0.372479 -0.0676612 0)
(0.403841 -0.0575487 0)
(0.432207 -0.0489926 0)
(0.45718 -0.0399626 0)
(0.477807 -0.0288754 0)
(0.492849 -0.0145505 0)
(0.501036 0.00394621 0)
(0.501213 0.0276237 0)
(0.492712 0.0575844 0)
(0.474925 0.0945408 0)
(0.450117 0.139158 0)
(0.431391 0.19553 0)
(0.441875 0.253982 0)
(0.356805 0.210909 0)
(0.214804 0.0469636 0)
(-0.0213527 0.0535868 0)
(0.00147457 -0.0802052 0)
(0.0575289 -0.166446 0)
(0.127336 -0.192401 0)
(0.192915 -0.178493 0)
(0.248593 -0.149637 0)
(0.294702 -0.121293 0)
(0.33422 -0.0992665 0)
(0.369884 -0.0836496 0)
(0.403025 -0.0721988 0)
(0.433683 -0.0622196 0)
(0.461104 -0.0513794 0)
(0.484163 -0.0379328 0)
(0.501615 -0.0206441 0)
(0.512289 0.00142078 0)
(0.515219 0.0290584 0)
(0.509875 0.0630813 0)
(0.495914 0.103993 0)
(0.474175 0.150476 0)
(0.441304 0.200632 0)
(0.433929 0.261728 0)
(0.375991 0.270152 0)
(0.237338 0.186384 0)
(-0.017635 0.0566897 0)
(0.0105194 -0.0983437 0)
(0.0673086 -0.196849 0)
(0.134971 -0.224244 0)
(0.196774 -0.206269 0)
(0.248623 -0.172642 0)
(0.292395 -0.140902 0)
(0.331554 -0.116939 0)
(0.368469 -0.100185 0)
(0.403825 -0.0877354 0)
(0.437106 -0.076462 0)
(0.467223 -0.0638147 0)
(0.492908 -0.0479741 0)
(0.512904 -0.0277305 0)
(0.526079 -0.00230789 0)
(0.531574 0.028976 0)
(0.528992 0.0668731 0)
(0.517646 0.111575 0)
(0.499497 0.162648 0)
(0.465829 0.214605 0)
(0.435071 0.27734 0)
(0.378955 0.323004 0)
(0.266854 0.317616 0)
(-0.0133046 0.0568952 0)
(0.0200165 -0.117299 0)
(0.0773383 -0.227212 0)
(0.142279 -0.255091 0)
(0.200184 -0.232691 0)
(0.248567 -0.194641 0)
(0.290623 -0.160218 0)
(0.330065 -0.135013 0)
(0.368731 -0.117614 0)
(0.406603 -0.104435 0)
(0.442655 -0.0919703 0)
(0.475559 -0.0775188 0)
(0.504022 -0.0592166 0)
(0.526813 -0.0358277 0)
(0.542832 -0.0066556 0)
(0.551175 0.0282374 0)
(0.551302 0.0697544 0)
(0.542424 0.117699 0)
(0.525811 0.172625 0)
(0.497195 0.23027 0)
(0.454106 0.299138 0)
(0.393145 0.376865 0)
(0.256026 0.47499 0)
(-0.0736249 0.026043 0)
(-0.127437 0.00522783 0)
(-0.186151 0.0209166 0)
(-0.288504 0.0157465 0)
(-0.364432 0.0195099 0)
(-0.450376 0.0147538 0)
(-0.506246 0.0102127 0)
(-0.543026 0.00677776 0)
(-0.563138 0.0028212 0)
(-0.564855 -0.000665418 0)
(-0.550386 -0.00369732 0)
(-0.521993 -0.00617764 0)
(-0.482273 -0.008079 0)
(-0.43247 -0.0107028 0)
(-0.372637 -0.0135633 0)
(-0.303017 -0.0163046 0)
(-0.22432 -0.0190504 0)
(-0.137651 -0.0213319 0)
(-0.0463905 -0.0218239 0)
(-0.0650595 0.0725435 0)
(-0.110949 0.0219519 0)
(-0.18333 0.0659581 0)
(-0.28766 0.0463705 0)
(-0.365782 0.0584835 0)
(-0.455354 0.043702 0)
(-0.505988 0.0283632 0)
(-0.537187 0.0176475 0)
(-0.551613 0.00646946 0)
(-0.549886 -0.00424548 0)
(-0.532036 -0.0142243 0)
(-0.497559 -0.023018 0)
(-0.448537 -0.0298369 0)
(-0.388993 -0.036184 0)
(-0.322787 -0.0419349 0)
(-0.252991 -0.0469999 0)
(-0.181355 -0.0515078 0)
(-0.108625 -0.0554154 0)
(-0.0363258 -0.0564943 0)
(-0.0647168 0.111353 0)
(-0.0845518 0.036609 0)
(-0.169004 0.116421 0)
(-0.289821 0.0765469 0)
(-0.360989 0.0985773 0)
(-0.457108 0.0732449 0)
(-0.508707 0.0460751 0)
(-0.540944 0.0280028 0)
(-0.557726 0.00999027 0)
(-0.556512 -0.00816131 0)
(-0.538509 -0.0254669 0)
(-0.504345 -0.0408841 0)
(-0.456599 -0.0534329 0)
(-0.398146 -0.0636105 0)
(-0.331418 -0.0715066 0)
(-0.259607 -0.0776202 0)
(-0.185436 -0.0821654 0)
(-0.110562 -0.0861394 0)
(-0.0368969 -0.0864458 0)
(-0.102326 0.159545 0)
(-0.089614 0.0287206 0)
(-0.163329 0.172596 0)
(-0.302137 0.106484 0)
(-0.364466 0.140851 0)
(-0.470996 0.104068 0)
(-0.520493 0.0633019 0)
(-0.550599 0.038967 0)
(-0.567521 0.0136882 0)
(-0.566084 -0.0120478 0)
(-0.547254 -0.0365583 0)
(-0.512013 -0.0578602 0)
(-0.463779 -0.0754097 0)
(-0.405684 -0.0898952 0)
(-0.339534 -0.100939 0)
(-0.267784 -0.109054 0)
(-0.192557 -0.114532 0)
(-0.115387 -0.119039 0)
(-0.038599 -0.118804 0)
(-0.179592 0.207171 0)
(-0.068329 0.040725 0)
(-0.178564 0.258372 0)
(-0.325221 0.137976 0)
(-0.36836 0.186481 0)
(-0.491944 0.137764 0)
(-0.53741 0.0791728 0)
(-0.563204 0.0492713 0)
(-0.580675 0.0175578 0)
(-0.579016 -0.0160624 0)
(-0.558918 -0.0482175 0)
(-0.521767 -0.0757031 0)
(-0.471852 -0.0981183 0)
(-0.412442 -0.116508 0)
(-0.345338 -0.13048 0)
(-0.272895 -0.140743 0)
(-0.196859 -0.147456 0)
(-0.118395 -0.152993 0)
(-0.0396805 -0.152506 0)
(-0.242145 0.32515 0)
(0.0541309 -0.0201642 0)
(-0.107333 0.333635 0)
(-0.379135 0.147531 0)
(-0.37559 0.227584 0)
(-0.521156 0.173044 0)
(-0.559904 0.0922701 0)
(-0.57808 0.0582425 0)
(-0.596682 0.0213709 0)
(-0.595553 -0.020484 0)
(-0.573937 -0.0607027 0)
(-0.534136 -0.0945968 0)
(-0.481829 -0.121526 0)
(-0.420405 -0.143845 0)
(-0.351454 -0.160705 0)
(-0.277436 -0.172725 0)
(-0.200109 -0.180816 0)
(-0.120461 -0.187543 0)
(-0.0403874 -0.186916 0)
(-0.316842 0.235414 0)
(-0.146423 -0.0788347 0)
(-0.221602 0.438532 0)
(-0.5802 0.184446 0)
(-0.364897 0.273442 0)
(-0.550941 0.217653 0)
(-0.584911 0.0974545 0)
(-0.590452 0.06629 0)
(-0.612039 0.0300337 0)
(-0.613357 -0.0272061 0)
(-0.590979 -0.0756357 0)
(-0.548819 -0.115382 0)
(-0.493914 -0.145769 0)
(-0.430098 -0.172148 0)
(-0.358637 -0.19175 0)
(-0.282548 -0.205319 0)
(-0.203612 -0.214663 0)
(-0.122505 -0.222452 0)
(-0.0410398 -0.221641 0)
(-0.507671 0.877649 0)
(-0.602916 -0.130187 0)
(-0.548847 0.605267 0)
(-0.756911 0.227587 0)
(-0.348566 0.255624 0)
(-0.599493 0.272149 0)
(-0.632189 0.10201 0)
(-0.600276 0.0549252 0)
(-0.629231 0.0268605 0)
(-0.633409 -0.0321885 0)
(-0.605806 -0.0873436 0)
(-0.562152 -0.135365 0)
(-0.507113 -0.170774 0)
(-0.441498 -0.201447 0)
(-0.366954 -0.223829 0)
(-0.288409 -0.239235 0)
(-0.207609 -0.249896 0)
(-0.124789 -0.258757 0)
(-0.0417563 -0.257852 0)
(-0.00601732 0.0496567 0)
(0.0363802 -0.150486 0)
(0.0938035 -0.273809 0)
(0.152141 -0.299764 0)
(0.203256 -0.270273 0)
(0.247159 -0.227001 0)
(0.287871 -0.190608 0)
(0.328636 -0.165192 0)
(0.370162 -0.147754 0)
(0.411428 -0.133839 0)
(0.450888 -0.119678 0)
(0.487158 -0.102641 0)
(0.519193 -0.0810081 0)
(0.546121 -0.0534212 0)
(0.566878 -0.0183287 0)
(0.580912 0.0257646 0)
(0.587178 0.0760157 0)
(0.584553 0.132604 0)
(0.57195 0.195449 0)
(0.553143 0.26295 0)
(0.515419 0.344017 0)
(0.496449 0.433006 0)
(0.436578 0.638842 0)
(0.00579454 0.0261971 0)
(0.0650508 -0.201497 0)
(0.122708 -0.332121 0)
(0.166614 -0.351321 0)
(0.205584 -0.313315 0)
(0.243916 -0.266251 0)
(0.284257 -0.230302 0)
(0.327648 -0.206457 0)
(0.372832 -0.189519 0)
(0.417681 -0.174305 0)
(0.460317 -0.157193 0)
(0.499437 -0.136069 0)
(0.534436 -0.109941 0)
(0.565502 -0.0785175 0)
(0.593165 -0.0417175 0)
(0.614425 0.000918544 0)
(0.628504 0.0540185 0)
(0.636533 0.115991 0)
(0.635484 0.18563 0)
(0.630767 0.261208 0)
(0.615805 0.348645 0)
(0.615351 0.438271 0)
(0.614068 0.601299 0)
(0.0204492 -0.0240199 0)
(0.11612 -0.262426 0)
(0.178349 -0.374171 0)
(0.193812 -0.383207 0)
(0.211878 -0.345181 0)
(0.24503 -0.303362 0)
(0.288347 -0.273101 0)
(0.337168 -0.252846 0)
(0.387824 -0.236798 0)
(0.437658 -0.220123 0)
(0.484989 -0.19971 0)
(0.52854 -0.173723 0)
(0.567323 -0.14106 0)
(0.59952 -0.100848 0)
(0.624108 -0.0524232 0)
(0.645195 0.00476384 0)
(0.663492 0.0741036 0)
(0.675274 0.150116 0)
(0.681065 0.228904 0)
(0.684154 0.30635 0)
(0.687906 0.382405 0)
(0.695375 0.455969 0)
(0.719311 0.542322 0)
(0.0440313 -0.121425 0)
(0.200165 -0.348003 0)
(0.26767 -0.404989 0)
(0.23913 -0.396534 0)
(0.227623 -0.375268 0)
(0.257286 -0.354147 0)
(0.306579 -0.336192 0)
(0.361773 -0.321437 0)
(0.417901 -0.307566 0)
(0.473301 -0.291875 0)
(0.527988 -0.272333 0)
(0.582712 -0.247531 0)
(0.637206 -0.215756 0)
(0.692365 -0.175856 0)
(0.745853 -0.127136 0)
(0.793792 -0.0700858 0)
(0.82381 -0.0117557 0)
(0.827725 0.0530324 0)
(0.815688 0.126343 0)
(0.798713 0.207653 0)
(0.783963 0.29845 0)
(0.774435 0.396674 0)
(0.785736 0.48694 0)
(0.0831923 -0.259094 0)
(0.259228 -0.493072 0)
(0.336985 -0.433818 0)
(0.265345 -0.363411 0)
(0.221155 -0.37289 0)
(0.240722 -0.390451 0)
(0.280002 -0.387483 0)
(0.319016 -0.373393 0)
(0.354762 -0.355385 0)
(0.386071 -0.334563 0)
(0.412001 -0.310181 0)
(0.423752 -0.277433 0)
(0.38777 -0.236249 0)
(0.463204 -0.204575 0)
(0.556121 -0.154526 0)
(0.643625 -0.0840038 0)
(0.914331 0.0451182 0)
(0.998422 0.146362 0)
(1.00057 0.233304 0)
(0.974371 0.301119 0)
(0.944022 0.3563 0)
(0.915468 0.405393 0)
(0.897245 0.447077 0)
(0.0796619 -0.478517 0)
(0.184386 -0.663251 0)
(0.245555 -0.395093 0)
(0.137451 -0.260833 0)
(0.0899413 -0.312966 0)
(0.0744082 -0.369649 0)
(0.0570621 -0.371451 0)
(0.0369905 -0.3511 0)
(0.0189499 -0.326825 0)
(0.00873654 -0.301161 0)
(0.0222979 -0.270335 0)
(0.0761612 -0.224606 0)
(0.151558 -0.21299 0)
(0.207166 -0.225104 0)
(0.264117 -0.262906 0)
(0.383414 -0.293377 0)
(0.5593 -0.249733 0)
(0.809725 0.0366524 0)
(1.00549 0.270048 0)
(1.06134 0.373521 0)
(1.02961 0.438207 0)
(0.965675 0.475959 0)
(0.954259 0.503306 0)
(-0.0508346 -0.616937 0)
(-0.140132 -0.363074 0)
(-0.124265 -0.26981 0)
(-0.049317 -0.314029 0)
(0.00199496 -0.339932 0)
(0.00823442 -0.357089 0)
(-0.00406288 -0.354522 0)
(-0.0161682 -0.34181 0)
(-0.0208888 -0.332333 0)
(-0.0119622 -0.337068 0)
(0.0202083 -0.356085 0)
(0.0659086 -0.368442 0)
(0.116421 -0.344635 0)
(0.133918 -0.317634 0)
(0.18179 -0.387192 0)
(0.338215 -0.490897 0)
(0.525613 -0.482241 0)
(0.738735 -0.33701 0)
(0.981155 -0.047909 0)
(1.19441 0.271473 0)
(1.26588 0.497246 0)
(1.18921 0.613667 0)
(1.06427 0.567079 0)
(-0.087106 -0.378599 0)
(-0.127258 -0.511797 0)
(-0.0918021 -0.474999 0)
(-0.0383691 -0.391213 0)
(-0.0202876 -0.367422 0)
(-0.00787016 -0.36401 0)
(-0.00682047 -0.359006 0)
(-0.00676583 -0.350744 0)
(-0.00261434 -0.350768 0)
(0.00739368 -0.367331 0)
(0.0294907 -0.392472 0)
(0.042928 -0.403169 0)
(0.0711206 -0.350332 0)
(0.0712291 -0.319367 0)
(0.156759 -0.524463 0)
(0.276232 -0.664074 0)
(0.375337 -0.651869 0)
(0.502809 -0.528438 0)
(0.691684 -0.299514 0)
(0.918956 0.0286937 0)
(1.03633 0.384688 0)
(1.09646 0.634062 0)
(1.06339 0.674854 0)
(-0.0415902 -0.325977 0)
(-0.0369724 -0.525204 0)
(-0.035653 -0.449129 0)
(-0.0241964 -0.404893 0)
(-0.0117094 -0.381577 0)
(0.000804173 -0.373298 0)
(0.00843581 -0.362916 0)
(0.0140747 -0.352201 0)
(0.0194753 -0.35221 0)
(0.0234827 -0.369332 0)
(0.0296915 -0.394182 0)
(0.0215051 -0.409598 0)
(0.0434723 -0.361501 0)
(0.0766462 -0.368552 0)
(0.138503 -0.597722 0)
(0.103077 -0.697576 0)
(0.0951961 -0.688085 0)
(0.118746 -0.585345 0)
(0.151432 -0.366384 0)
(0.237655 -0.0516504 0)
(0.438133 0.2705 0)
(0.635715 0.518177 0)
(0.762409 0.637313 0)
(-0.0046689 -0.301252 0)
(-0.0121006 -0.502588 0)
(-0.0189109 -0.453307 0)
(-0.0102849 -0.410695 0)
(-0.000572408 -0.392685 0)
(0.0108318 -0.383092 0)
(0.0209734 -0.370836 0)
(0.0308374 -0.358434 0)
(0.0394622 -0.356099 0)
(0.0438604 -0.369491 0)
(0.0437993 -0.391273 0)
(0.0336635 -0.410568 0)
(0.0485667 -0.391161 0)
(0.0978741 -0.411758 0)
(0.0784293 -0.510641 0)
(0.018345 -0.627338 0)
(-0.0463772 -0.648203 0)
(-0.133512 -0.545552 0)
(-0.191601 -0.362441 0)
(-0.157655 -0.142587 0)
(-0.0731675 0.0940055 0)
(0.118024 0.366198 0)
(0.283979 0.563076 0)
(0.00652065 -0.299974 0)
(0.00104151 -0.501717 0)
(-0.00441167 -0.455371 0)
(0.00145535 -0.418811 0)
(0.0107272 -0.40345 0)
(0.0214675 -0.393815 0)
(0.0332977 -0.3821 0)
(0.04691 -0.369738 0)
(0.0605768 -0.364275 0)
(0.0704574 -0.371075 0)
(0.0737097 -0.387474 0)
(0.0712321 -0.40695 0)
(0.0775688 -0.414595 0)
(0.10024 -0.42513 0)
(0.103353 -0.483284 0)
(0.0493145 -0.545005 0)
(-0.0498464 -0.557569 0)
(-0.0906226 -0.514282 0)
(-0.0799306 -0.405904 0)
(-0.0632525 -0.221694 0)
(0.0300376 -0.0389301 0)
(0.0699071 0.163808 0)
(0.261319 0.256816 0)
(0.00953046 -0.307833 0)
(0.00945044 -0.497556 0)
(0.0058696 -0.456247 0)
(0.0115028 -0.425332 0)
(0.0205381 -0.413427 0)
(0.0312145 -0.405286 0)
(0.0439142 -0.395624 0)
(0.0594356 -0.385084 0)
(0.0766743 -0.378436 0)
(0.0921354 -0.380511 0)
(0.1024 -0.391794 0)
(0.10787 -0.408185 0)
(0.110713 -0.424326 0)
(0.118148 -0.443546 0)
(0.116975 -0.471255 0)
(0.0882537 -0.496058 0)
(0.0294603 -0.501917 0)
(-0.0381757 -0.482268 0)
(-0.046853 -0.41692 0)
(-0.0129434 -0.281324 0)
(0.0644674 -0.111855 0)
(0.178957 0.0297154 0)
(0.278096 0.137714 0)
(0.0101179 -0.318587 0)
(0.0136167 -0.497387 0)
(0.012898 -0.458818 0)
(0.0191618 -0.43245 0)
(0.0283447 -0.423263 0)
(0.0390333 -0.416999 0)
(0.0516553 -0.409867 0)
(0.0669778 -0.402179 0)
(0.0847008 -0.396536 0)
(0.102415 -0.396379 0)
(0.116934 -0.403069 0)
(0.126489 -0.414441 0)
(0.130967 -0.427632 0)
(0.129713 -0.441262 0)
(0.120017 -0.454027 0)
(0.0968988 -0.458669 0)
(0.0616121 -0.447777 0)
(0.0130349 -0.424677 0)
(-0.0506761 -0.370411 0)
(-0.0921421 -0.264326 0)
(-0.0884585 -0.144147 0)
(-0.0396046 -0.0183071 0)
(0.0495923 0.0821361 0)
(0.00960823 -0.33112 0)
(0.0155891 -0.499873 0)
(0.0177426 -0.463096 0)
(0.0248587 -0.440325 0)
(0.0343663 -0.433289 0)
(0.0450887 -0.428598 0)
(0.0572413 -0.423461 0)
(0.0712751 -0.418244 0)
(0.0872122 -0.414223 0)
(0.103707 -0.413271 0)
(0.118261 -0.416438 0)
(0.128689 -0.422709 0)
(0.133747 -0.430026 0)
(0.132435 -0.436137 0)
(0.124103 -0.439223 0)
(0.108646 -0.435531 0)
(0.0876069 -0.419878 0)
(0.0634506 -0.389407 0)
(0.0401356 -0.341924 0)
(0.0284707 -0.273209 0)
(0.0401866 -0.192571 0)
(0.0780417 -0.107926 0)
(0.141059 -0.0336106 0)
(0.00881555 -0.344082 0)
(0.0165537 -0.504508 0)
(0.0211102 -0.468986 0)
(0.0291236 -0.448927 0)
(0.0389903 -0.443493 0)
(0.0497814 -0.439971 0)
(0.061547 -0.436093 0)
(0.0743783 -0.432357 0)
(0.0882198 -0.429432 0)
(0.102362 -0.428086 0)
(0.115247 -0.428754 0)
(0.125176 -0.430894 0)
(0.130978 -0.433109 0)
(0.132226 -0.433662 0)
(0.128929 -0.430792 0)
(0.121322 -0.421867 0)
(0.110771 -0.403733 0)
(0.100411 -0.37419 0)
(0.0943521 -0.331286 0)
(0.0980649 -0.274441 0)
(0.116935 -0.209456 0)
(0.15298 -0.142535 0)
(0.205246 -0.0808582 0)
(0.00815149 -0.356964 0)
(0.0170974 -0.511035 0)
(0.0235095 -0.476247 0)
(0.0323238 -0.458202 0)
(0.0425517 -0.45395 0)
(0.0534798 -0.451273 0)
(0.06509 -0.448154 0)
(0.0772994 -0.445117 0)
(0.0899061 -0.442592 0)
(0.10247 -0.440817 0)
(0.114164 -0.439815 0)
(0.123979 -0.439189 0)
(0.131177 -0.438038 0)
(0.135538 -0.435006 0)
(0.137172 -0.428534 0)
(0.136593 -0.416837 0)
(0.135165 -0.398026 0)
(0.135181 -0.370634 0)
(0.139752 -0.334139 0)
(0.152371 -0.289369 0)
(0.176101 -0.239485 0)
(0.211969 -0.188149 0)
(0.25923 -0.138983 0)
(0.00770118 -0.369775 0)
(0.0174736 -0.518988 0)
(0.0252477 -0.484573 0)
(0.0347545 -0.468059 0)
(0.0453369 -0.464693 0)
(0.0564535 -0.462644 0)
(0.0680782 -0.460055 0)
(0.0801194 -0.457378 0)
(0.0923476 -0.45492 0)
(0.104441 -0.452741 0)
(0.11596 -0.450705 0)
(0.126394 -0.448442 0)
(0.135341 -0.445266 0)
(0.142695 -0.44019 0)
(0.148724 -0.432052 0)
(0.154089 -0.419618 0)
(0.1599 -0.401669 0)
(0.167812 -0.377348 0)
(0.179963 -0.34652 0)
(0.198541 -0.309981 0)
(0.225453 -0.269779 0)
(0.261275 -0.228229 0)
(0.30565 -0.187319 0)
(0.00744778 -0.38254 0)
(0.0177994 -0.527994 0)
(0.0265322 -0.493722 0)
(0.0366218 -0.478423 0)
(0.0475431 -0.475733 0)
(0.0588792 -0.474161 0)
(0.0706116 -0.471999 0)
(0.0826965 -0.469612 0)
(0.0949757 -0.46721 0)
(0.107222 -0.464782 0)
(0.119175 -0.462161 0)
(0.130582 -0.459003 0)
(0.141273 -0.45477 0)
(0.15128 -0.448748 0)
(0.160914 -0.440093 0)
(0.170765 -0.427912 0)
(0.181772 -0.411403 0)
(0.195201 -0.390095 0)
(0.21258 -0.364087 0)
(0.235347 -0.334155 0)
(0.264778 -0.301746 0)
(0.301168 -0.268192 0)
(0.344352 -0.234285 0)
(0.00735013 -0.395349 0)
(0.0181187 -0.537744 0)
(0.0274964 -0.503493 0)
(0.038065 -0.48922 0)
(0.0493002 -0.487067 0)
(0.0608739 -0.485869 0)
(0.0727765 -0.48407 0)
(0.0850068 -0.48198 0)
(0.0974899 -0.47973 0)
(0.110095 -0.477265 0)
(0.122681 -0.474417 0)
(0.135139 -0.470899 0)
(0.147446 -0.466296 0)
(0.159723 -0.460086 0)
(0.172284 -0.451661 0)
(0.185674 -0.440416 0)
(0.200683 -0.425845 0)
(0.218298 -0.407709 0)
(0.239638 -0.386168 0)
(0.265662 -0.361817 0)
(0.297264 -0.33564 0)
(0.334534 -0.308339 0)
(0.37749 -0.280052 0)
(0.00736204 -0.40828 0)
(0.0184342 -0.547991 0)
(0.0282215 -0.513729 0)
(0.0391773 -0.50038 0)
(0.0506916 -0.498682 0)
(0.0625029 -0.497798 0)
(0.0746167 -0.496331 0)
(0.0870617 -0.494558 0)
(0.0998216 -0.492564 0)
(0.112849 -0.490268 0)
(0.126102 -0.487513 0)
(0.139572 -0.484066 0)
(0.153321 -0.479616 0)
(0.167523 -0.473787 0)
(0.182498 -0.466159 0)
(0.198729 -0.456324 0)
(0.21687 -0.44396 0)
(0.237684 -0.428938 0)
(0.262004 -0.41141 0)
(0.290497 -0.391832 0)
(0.323858 -0.370907 0)
(0.362079 -0.348941 0)
(0.405362 -0.325669 0)
(0.00744942 -0.421393 0)
(0.018733 -0.558541 0)
(0.0287499 -0.524304 0)
(0.0400119 -0.511837 0)
(0.0517602 -0.510548 0)
(0.0637892 -0.509957 0)
(0.0761239 -0.508824 0)
(0.0888179 -0.507405 0)
(0.101894 -0.505762 0)
(0.115364 -0.503811 0)
(0.129256 -0.50141 0)
(0.143633 -0.498374 0)
(0.158615 -0.494475 0)
(0.174402 -0.489445 0)
(0.191303 -0.483001 0)
(0.209741 -0.474872 0)
(0.230262 -0.464853 0)
(0.253474 -0.452878 0)
(0.28003 -0.439079 0)
(0.31043 -0.423808 0)
(0.345266 -0.407561 0)
(0.384481 -0.390371 0)
(0.428458 -0.371744 0)
(0.0075838 -0.434719 0)
(0.0189925 -0.569237 0)
(0.0290976 -0.53511 0)
(0.0405925 -0.523526 0)
(0.0525221 -0.522623 0)
(0.0647302 -0.522323 0)
(0.0772636 -0.521546 0)
(0.0901955 -0.520534 0)
(0.103578 -0.519335 0)
(0.117462 -0.51787 0)
(0.131922 -0.516024 0)
(0.147068 -0.513654 0)
(0.163051 -0.510591 0)
(0.180086 -0.506654 0)
(0.198466 -0.501656 0)
(0.21857 -0.495425 0)
(0.240862 -0.487833 0)
(0.265846 -0.47885 0)
(0.294063 -0.468588 0)
(0.325918 -0.45732 0)
(0.361955 -0.445408 0)
(0.402097 -0.432697 0)
(0.446925 -0.418593 0)
(0.00773607 -0.448261 0)
(0.0191858 -0.579943 0)
(0.0292681 -0.546059 0)
(0.0409264 -0.535379 0)
(0.0529768 -0.534853 0)
(0.0653106 -0.534854 0)
(0.0779962 -0.534461 0)
(0.0911193 -0.53391 0)
(0.104754 -0.533237 0)
(0.118981 -0.532376 0)
(0.133902 -0.531235 0)
(0.149653 -0.529711 0)
(0.166403 -0.527687 0)
(0.184372 -0.525042 0)
(0.203836 -0.521663 0)
(0.225139 -0.517448 0)
(0.248689 -0.512327 0)
(0.274924 -0.506295 0)
(0.30431 -0.499446 0)
(0.337208 -0.492007 0)
(0.374144 -0.484254 0)
(0.415057 -0.475917 0)
(0.460736 -0.466371 0)
(0.00787508 -0.461993 0)
(0.0192884 -0.590551 0)
(0.0292669 -0.557078 0)
(0.0410179 -0.54733 0)
(0.05312 -0.547176 0)
(0.0655144 -0.547491 0)
(0.0782873 -0.547513 0)
(0.0915321 -0.547469 0)
(0.105339 -0.547389 0)
(0.119806 -0.547221 0)
(0.135056 -0.546898 0)
(0.151235 -0.546348 0)
(0.168521 -0.545497 0)
(0.18713 -0.544272 0)
(0.207323 -0.542616 0)
(0.229417 -0.540483 0)
(0.253777 -0.537847 0)
(0.280799 -0.534726 0)
(0.310907 -0.531208 0)
(0.344442 -0.527496 0)
(0.38193 -0.523822 0)
(0.423356 -0.519863 0)
(0.469716 -0.515004 0)
(0.00797088 -0.475855 0)
(0.0192873 -0.600979 0)
(0.0291118 -0.5681 0)
(0.0408791 -0.559305 0)
(0.0529545 -0.55952 0)
(0.0653344 -0.560162 0)
(0.0781145 -0.560626 0)
(0.0913941 -0.561127 0)
(0.105273 -0.561691 0)
(0.119862 -0.562281 0)
(0.135291 -0.562853 0)
(0.151714 -0.56336 0)
(0.169308 -0.563765 0)
(0.188281 -0.564034 0)
(0.208881 -0.564153 0)
(0.231398 -0.564122 0)
(0.256164 -0.563957 0)
(0.283547 -0.563698 0)
(0.313943 -0.563439 0)
(0.347696 -0.563385 0)
(0.385332 -0.563761 0)
(0.42691 -0.564246 0)
(0.47361 -0.564249 0)
(0.00800455 -0.489761 0)
(0.0191905 -0.611184 0)
(0.0288342 -0.579063 0)
(0.0405334 -0.57122 0)
(0.0524972 -0.571797 0)
(0.0647796 -0.57278 0)
(0.077475 -0.573708 0)
(0.0906894 -0.574781 0)
(0.104527 -0.576024 0)
(0.119105 -0.577414 0)
(0.134556 -0.578926 0)
(0.151034 -0.580538 0)
(0.168711 -0.58224 0)
(0.187786 -0.584031 0)
(0.208491 -0.585934 0)
(0.231092 -0.587987 0)
(0.255891 -0.590245 0)
(0.283232 -0.592779 0)
(0.313488 -0.595702 0)
(0.347014 -0.599234 0)
(0.384332 -0.603633 0)
(0.425592 -0.608635 0)
(0.472113 -0.613676 0)
(0.00798123 -0.503627 0)
(0.0190265 -0.621157 0)
(0.0284679 -0.589906 0)
(0.0400094 -0.582989 0)
(0.0517734 -0.583919 0)
(0.0638715 -0.585253 0)
(0.0763853 -0.586659 0)
(0.0894279 -0.588319 0)
(0.103103 -0.590259 0)
(0.11753 -0.592469 0)
(0.132841 -0.594941 0)
(0.149183 -0.597673 0)
(0.166723 -0.600678 0)
(0.185649 -0.603984 0)
(0.206173 -0.607641 0)
(0.228538 -0.611724 0)
(0.253018 -0.616325 0)
(0.279928 -0.62155 0)
(0.309619 -0.62754 0)
(0.34245 -0.63455 0)
(0.378923 -0.642898 0)
(0.419279 -0.652433 0)
(0.464916 -0.662618 0)
(0.00793435 -0.517401 0)
(0.0188314 -0.630908 0)
(0.0280282 -0.600568 0)
(0.0393252 -0.594529 0)
(0.0508016 -0.595804 0)
(0.0626307 -0.597496 0)
(0.0748682 -0.599382 0)
(0.0876348 -0.601631 0)
(0.101029 -0.604269 0)
(0.115168 -0.607298 0)
(0.130179 -0.610724 0)
(0.146202 -0.614565 0)
(0.163394 -0.618851 0)
(0.181929 -0.623634 0)
(0.202003 -0.628987 0)
(0.223832 -0.635014 0)
(0.24766 -0.641839 0)
(0.27377 -0.649608 0)
(0.302478 -0.658501 0)
(0.334133 -0.66881 0)
(0.369192 -0.680939 0)
(0.407959 -0.694897 0)
(0.451833 -0.710176 0)
(0.0079119 -0.531071 0)
(0.0186274 -0.640429 0)
(0.0274947 -0.610972 0)
(0.0384743 -0.605763 0)
(0.0495776 -0.607377 0)
(0.0610608 -0.60943 0)
(0.0729367 -0.611789 0)
(0.0853335 -0.614614 0)
(0.0983408 -0.617933 0)
(0.112069 -0.62176 0)
(0.126637 -0.626115 0)
(0.142177 -0.631028 0)
(0.158832 -0.636548 0)
(0.176764 -0.642744 0)
(0.196145 -0.649707 0)
(0.217168 -0.65756 0)
(0.240045 -0.666456 0)
(0.265015 -0.676577 0)
(0.29235 -0.688143 0)
(0.322367 -0.701488 0)
(0.355445 -0.717107 0)
(0.391905 -0.735207 0)
(0.433053 -0.755318 0)
(0.00795084 -0.544637 0)
(0.0184072 -0.649643 0)
(0.0268138 -0.621013 0)
(0.0374224 -0.616605 0)
(0.0480739 -0.618551 0)
(0.0591425 -0.620962 0)
(0.0705839 -0.62378 0)
(0.0825316 -0.62716 0)
(0.0950649 -0.631133 0)
(0.108284 -0.635723 0)
(0.122297 -0.640962 0)
(0.137225 -0.646893 0)
(0.153197 -0.653577 0)
(0.170356 -0.661095 0)
(0.188855 -0.669552 0)
(0.208858 -0.679082 0)
(0.230539 -0.68986 0)
(0.254092 -0.702098 0)
(0.279731 -0.716048 0)
(0.307715 -0.732078 0)
(0.338326 -0.750767 0)
(0.371842 -0.772537 0)
(0.409368 -0.796985 0)
(0.00806055 -0.558101 0)
(0.0181357 -0.658396 0)
(0.0259177 -0.630571 0)
(0.0361192 -0.626964 0)
(0.0462466 -0.629237 0)
(0.0568366 -0.632001 0)
(0.0677782 -0.635264 0)
(0.0792091 -0.639176 0)
(0.0911991 -0.643771 0)
(0.103836 -0.649082 0)
(0.117217 -0.655149 0)
(0.131447 -0.662027 0)
(0.146641 -0.669784 0)
(0.162922 -0.67851 0)
(0.180416 -0.688319 0)
(0.199261 -0.699353 0)
(0.219589 -0.711798 0)
(0.241546 -0.725881 0)
(0.265282 -0.741878 0)
(0.290987 -0.760169 0)
(0.318822 -0.78139 0)
(0.348968 -0.806164 0)
(0.382218 -0.834206 0)
(0.00823034 -0.571492 0)
(0.0177678 -0.666523 0)
(0.0247428 -0.639584 0)
(0.0345115 -0.636796 0)
(0.0440411 -0.639389 0)
(0.0540845 -0.6425 0)
(0.0644574 -0.646197 0)
(0.0753033 -0.65062 0)
(0.0866844 -0.655806 0)
(0.0986768 -0.661794 0)
(0.111366 -0.66863 0)
(0.124842 -0.676375 0)
(0.139201 -0.685106 0)
(0.154545 -0.694917 0)
(0.170977 -0.705928 0)
(0.1886 -0.718284 0)
(0.207513 -0.732172 0)
(0.227815 -0.747819 0)
(0.249598 -0.765504 0)
(0.272977 -0.785601 0)
(0.297987 -0.808752 0)
(0.324673 -0.835715 0)
(0.353416 -0.866369 0)
(0.008449 -0.584858 0)
(0.017265 -0.673865 0)
(0.0232336 -0.648037 0)
(0.0325449 -0.646098 0)
(0.0413876 -0.649 0)
(0.050801 -0.652452 0)
(0.0605186 -0.656573 0)
(0.0706935 -0.661487 0)
(0.0813822 -0.667233 0)
(0.0926507 -0.673855 0)
(0.104573 -0.681404 0)
(0.117225 -0.689946 0)
(0.130686 -0.699561 0)
(0.145038 -0.710348 0)
(0.160363 -0.722426 0)
(0.176739 -0.735936 0)
(0.194235 -0.751058 0)
(0.212914 -0.768007 0)
(0.232823 -0.787052 0)
(0.254008 -0.808536 0)
(0.276401 -0.833053 0)
(0.299908 -0.861371 0)
(0.324476 -0.893537 0)
(0.00870789 -0.59815 0)
(0.0165979 -0.680171 0)
(0.0213423 -0.655835 0)
(0.0301635 -0.654787 0)
(0.0382053 -0.657969 0)
(0.0468816 -0.661752 0)
(0.0558311 -0.66628 0)
(0.0652178 -0.671663 0)
(0.0750933 -0.677941 0)
(0.0855142 -0.68516 0)
(0.0965451 -0.693376 0)
(0.108249 -0.702657 0)
(0.120694 -0.713085 0)
(0.133949 -0.724758 0)
(0.148082 -0.737789 0)
(0.163153 -0.752315 0)
(0.17921 -0.768501 0)
(0.196296 -0.78655 0)
(0.21443 -0.806706 0)
(0.233611 -0.829268 0)
(0.253705 -0.854722 0)
(0.27454 -0.883727 0)
(0.295725 -0.91644 0)
(0.00897503 -0.611153 0)
(0.0157388 -0.685052 0)
(0.0190507 -0.662729 0)
(0.0273298 -0.662611 0)
(0.0344417 -0.666027 0)
(0.0422515 -0.670123 0)
(0.0502996 -0.675035 0)
(0.0587518 -0.680859 0)
(0.0676573 -0.687636 0)
(0.0770641 -0.695413 0)
(0.0870273 -0.704246 0)
(0.0976025 -0.714207 0)
(0.108849 -0.725377 0)
(0.120832 -0.73785 0)
(0.133611 -0.751736 0)
(0.14723 -0.767164 0)
(0.161731 -0.784291 0)
(0.177151 -0.803301 0)
(0.1935 -0.824406 0)
(0.210751 -0.847851 0)
(0.228754 -0.873998 0)
(0.247338 -0.90331 0)
(0.265968 -0.935984 0)
(0.00916043 -0.62369 0)
(0.0146567 -0.688215 0)
(0.0164136 -0.668538 0)
(0.0240644 -0.669359 0)
(0.0301322 -0.672961 0)
(0.0369428 -0.677345 0)
(0.0439587 -0.682609 0)
(0.0513314 -0.688832 0)
(0.0591088 -0.696058 0)
(0.0673301 -0.704332 0)
(0.0760415 -0.713716 0)
(0.0852919 -0.724279 0)
(0.0951369 -0.736105 0)
(0.105638 -0.749285 0)
(0.116844 -0.76393 0)
(0.128793 -0.780163 0)
(0.141526 -0.79813 0)
(0.155083 -0.817993 0)
(0.169476 -0.839932 0)
(0.184663 -0.864145 0)
(0.200517 -0.890878 0)
(0.216929 -0.920396 0)
(0.233387 -0.95288 0)
(0.00910803 -0.635924 0)
(0.0133145 -0.689901 0)
(0.0135747 -0.673549 0)
(0.0204626 -0.675262 0)
(0.0254252 -0.679016 0)
(0.0311367 -0.683652 0)
(0.0370285 -0.689224 0)
(0.0432193 -0.695792 0)
(0.0497533 -0.703404 0)
(0.0566624 -0.71211 0)
(0.0639845 -0.72197 0)
(0.0717616 -0.733055 0)
(0.0800438 -0.745452 0)
(0.0888859 -0.759255 0)
(0.0983283 -0.774571 0)
(0.108403 -0.79152 0)
(0.119149 -0.810235 0)
(0.130612 -0.830859 0)
(0.142795 -0.853549 0)
(0.155649 -0.878462 0)
(0.169092 -0.905757 0)
(0.183081 -0.935554 0)
(0.197215 -0.968005 0)
(0.00862418 -0.648161 0)
(0.0116595 -0.690834 0)
(0.0107224 -0.678388 0)
(0.0166625 -0.680868 0)
(0.0205384 -0.684753 0)
(0.0251107 -0.689602 0)
(0.0298401 -0.695437 0)
(0.0348044 -0.702304 0)
(0.0400425 -0.710254 0)
(0.0455835 -0.719334 0)
(0.0514571 -0.729605 0)
(0.0576957 -0.741145 0)
(0.0643428 -0.754043 0)
(0.0714454 -0.768393 0)
(0.0790332 -0.784299 0)
(0.0871283 -0.801876 0)
(0.0957654 -0.821251 0)
(0.104982 -0.842549 0)
(0.114771 -0.865903 0)
(0.125086 -0.891444 0)
(0.135888 -0.919275 0)
(0.147157 -0.949463 0)
(0.158628 -0.982112 0)
(0.00753881 -0.658989 0)
(0.00962813 -0.690381 0)
(0.00801777 -0.682102 0)
(0.0127956 -0.685139 0)
(0.0156644 -0.689138 0)
(0.0191011 -0.694156 0)
(0.0226647 -0.700201 0)
(0.0264033 -0.707311 0)
(0.0303555 -0.715524 0)
(0.0345446 -0.724889 0)
(0.0389845 -0.735473 0)
(0.0436971 -0.747363 0)
(0.0487245 -0.760647 0)
(0.0541069 -0.775414 0)
(0.0598578 -0.791767 0)
(0.0659852 -0.809819 0)
(0.0725211 -0.829686 0)
(0.079496 -0.851476 0)
(0.0868886 -0.875306 0)
(0.0946601 -0.901296 0)
(0.102791 -0.929529 0)
(0.111268 -0.960063 0)
(0.11994 -0.992958 0)
(0.00583366 -0.664129 0)
(0.00722713 -0.685279 0)
(0.00554637 -0.680931 0)
(0.00896354 -0.684282 0)
(0.0109176 -0.688378 0)
(0.0132566 -0.693499 0)
(0.015691 -0.699661 0)
(0.0182538 -0.706891 0)
(0.0209793 -0.715231 0)