/*--------------------------------*- C++ -*----------------------------------*\
| =========                 |                                                 |
| \\      /  F ield         | OpenFOAM: The Open Source CFD Toolbox           |
|  \\    /   O peration     | Version:  5.x                                   |
|   \\  /    A nd           | Web:      www.OpenFOAM.org                      |
|    \\/     M anipulation  |                                                 |
\*---------------------------------------------------------------------------*/
FoamFile
{
    version     2.0;
    format      ascii;
    class       surfaceScalarField;
    location    "0.75";
    object      alphaPhi10;
}
// * * * * * * * * * * * * * * * * * * * * * * * * * * * * * * * * * * * * * //

dimensions      [0 3 -1 0 0 0 0];

internalField   nonuniform List<scalar> 
4432
(
-3.90753e-06
3.90753e-06
-8.17575e-06
4.26822e-06
-1.16289e-05
3.45313e-06
-1.46269e-05
2.99803e-06
-1.68831e-05
2.25618e-06
-1.71597e-05
2.76596e-07
-1.51675e-05
-1.99219e-06
-1.21795e-05
-2.98796e-06
-9.84219e-06
-2.33735e-06
-8.71166e-06
-1.13053e-06
-8.62403e-06
-8.76245e-08
-9.34705e-06
7.23021e-07
-1.06398e-05
1.29273e-06
-1.23716e-05
1.73181e-06
-1.44506e-05
2.079e-06
-1.61808e-05
1.73025e-06
-1.64296e-05
5.28591e-07
-1.73957e-05
1.65063e-06
-2.40458e-05
5.42656e-06
-2.75588e-05
3.51299e-06
-2.39852e-05
-3.57369e-06
-1.27531e-05
-1.12321e-05
-1.27603e-05
-5.40185e-06
9.30938e-06
-9.69293e-06
8.55929e-06
-1.27862e-05
6.54642e-06
-1.56131e-05
5.82492e-06
-1.77174e-05
4.36046e-06
-1.79274e-05
4.86614e-07
-1.58788e-05
-4.04079e-06
-1.26283e-05
-6.23842e-06
-9.99631e-06
-4.96938e-06
-8.66416e-06
-2.46268e-06
-8.29984e-06
-4.51946e-07
-8.52504e-06
9.48222e-07
-9.14191e-06
1.9096e-06
-1.0115e-05
2.70487e-06
-1.1514e-05
3.47802e-06
-1.36477e-05
3.8643e-06
-1.64918e-05
3.88683e-06
-1.94827e-05
5.7316e-06
-2.35373e-05
8.01135e-06
-2.22891e-05
2.25916e-06
-1.70728e-05
-8.38669e-06
-9.2378e-06
-1.88543e-05
-2.19981e-05
-4.68083e-06
1.39902e-05
-8.33507e-06
1.22135e-05
-1.14309e-05
9.64229e-06
-1.47133e-05
9.10723e-06
-1.74033e-05
7.05052e-06
-1.79454e-05
1.02873e-06
-1.616e-05
-5.82621e-06
-1.31855e-05
-9.21287e-06
-1.06278e-05
-7.52713e-06
-9.22048e-06
-3.86997e-06
-8.8317e-06
-8.4073e-07
-8.94595e-06
1.06247e-06
-9.17222e-06
2.13588e-06
-9.27119e-06
2.80385e-06
-9.16524e-06
3.37207e-06
-9.38435e-06
4.08342e-06
-1.06733e-05
5.21087e-06
-1.19986e-05
7.50625e-06
-1.16021e-05
8.12518e-06
-1.03022e-05
8.5403e-07
-7.53557e-06
-1.12509e-05
-3.66634e-06
-2.27956e-05
-2.56644e-05
-3.31441e-06
1.73046e-05
-6.29188e-06
1.5191e-05
-9.19735e-06
1.25478e-05
-1.21344e-05
1.20443e-05
-1.43124e-05
9.22846e-06
-1.4796e-05
1.51236e-06
-1.38156e-05
-6.80659e-06
-1.22948e-05
-1.07337e-05
-1.09321e-05
-8.88983e-06
-9.98073e-06
-4.82133e-06
-9.65753e-06
-1.16393e-06
-9.8266e-06
1.23154e-06
-1.01172e-05
2.42647e-06
-1.01385e-05
2.82512e-06
-9.62263e-06
2.85624e-06
-8.5832e-06
3.04399e-06
-7.16589e-06
3.79356e-06
-5.00692e-06
5.34732e-06
-1.76213e-06
4.88024e-06
3.83339e-07
-1.25902e-06
9.11443e-07
-1.18848e-05
1.18218e-06
-2.36847e-05
-2.44879e-05
-1.52687e-06
1.88315e-05
-3.30668e-06
1.69708e-05
-5.34666e-06
1.45877e-05
-7.04766e-06
1.37453e-05
-7.84872e-06
1.00295e-05
-7.87323e-06
1.53687e-06
-8.23921e-06
-6.44061e-06
-9.23779e-06
-9.73512e-06
-1.02915e-05
-7.8361e-06
-1.06443e-05
-4.46858e-06
-1.06661e-05
-1.14206e-06
-1.08127e-05
1.37815e-06
-1.10529e-05
2.66658e-06
-1.10687e-05
2.84093e-06
-1.05767e-05
2.36425e-06
-9.41477e-06
1.8821e-06
-7.24091e-06
1.6197e-06
-3.62495e-06
1.73136e-06
1.12227e-06
1.33019e-07
4.749e-06
-4.88575e-06
4.83209e-06
-1.24688e-05
3.20427e-06
-2.20569e-05
-2.12837e-05
6.94903e-07
1.81366e-05
6.81033e-07
1.69847e-05
8.91306e-08
1.51796e-05
-1.64325e-07
1.39988e-05
7.68133e-07
9.09706e-06
9.44407e-07
1.36059e-06
-1.02785e-06
-4.46835e-06
-5.10313e-06
-5.65985e-06
-8.86524e-06
-4.07399e-06
-1.09657e-05
-2.36809e-06
-1.1643e-05
-4.64798e-07
-1.18706e-05
1.60581e-06
-1.19981e-05
2.79401e-06
-1.18868e-05
2.72961e-06
-1.12959e-05
1.77339e-06
-1.01653e-05
7.51465e-07
-8.26424e-06
-2.81325e-07
-5.18943e-06
-1.34344e-06
-1.08063e-06
-3.97578e-06
2.70954e-06
-8.6759e-06
3.87368e-06
-1.3633e-05
2.97832e-06
-2.11616e-05
-1.83053e-05
2.61062e-06
1.5526e-05
4.64378e-06
1.49515e-05
6.53677e-06
1.32866e-05
8.78223e-06
1.17533e-05
1.02361e-05
7.64316e-06
8.89384e-06
2.70289e-06
3.79409e-06
6.31401e-07
-2.39678e-06
5.31026e-07
-7.68487e-06
1.2141e-06
-1.10065e-05
9.53502e-07
-1.24637e-05
9.92399e-07
-1.29307e-05
2.07286e-06
-1.29928e-05
2.85616e-06
-1.27282e-05
2.46499e-06
-1.19212e-05
9.6634e-07
-1.06463e-05
-5.23393e-07
-8.82141e-06
-2.10621e-06
-6.26625e-06
-3.8986e-06
-3.19846e-06
-7.04357e-06
-1.12848e-07
-1.17615e-05
1.70751e-06
-1.54534e-05
2.07579e-06
-2.15298e-05
-1.62295e-05
4.70149e-06
1.08245e-05
9.83581e-06
8.11901e-06
1.35359e-05
7.09787e-06
1.5513e-05
6.90853e-06
1.40741e-05
6.16453e-06
9.12095e-06
5.7113e-06
2.41769e-06
6.33409e-06
-3.76245e-06
6.50083e-06
-8.06582e-06
5.51748e-06
-1.07887e-05
3.67637e-06
-1.24898e-05
2.69348e-06
-1.34722e-05
3.05528e-06
-1.38519e-05
3.23582e-06
-1.37214e-05
2.33449e-06
-1.28104e-05
5.54057e-08
-1.13603e-05
-1.97355e-06
-9.37409e-06
-4.09239e-06
-6.85045e-06
-6.42223e-06
-4.01298e-06
-9.88103e-06
-1.24345e-06
-1.4531e-05
1.09963e-06
-1.77964e-05
2.15336e-06
-2.25835e-05
-1.40762e-05
-2.12101e-05
2.04061e-05
-4.80529e-05
2.68428e-05
-5.20108e-05
3.95593e-06
-3.94627e-05
-1.25481e-05
-1.86982e-05
-2.07645e-05
9.06521e-06
-2.83254e-05
1.72455e-05
-1.11024e-05
8.61829e-06
8.00199e-06
-1.63887e-05
2.49622e-05
-6.63131e-05
4.99244e-05
-0.000106064
3.97514e-05
-0.000116761
1.06962e-05
-0.000104188
-1.06589e-05
-8.01384e-05
-2.18311e-05
-6.44862e-05
-1.5692e-05
-5.35314e-05
-1.09548e-05
-3.72587e-05
-1.62727e-05
-1.3886e-05
-2.4047e-05
-1.44505e-05
-2.98192e-05
5.00827e-05
-4.57185e-05
4.2742e-05
-4.12894e-05
-4.72323e-07
-2.89689e-05
-2.48684e-05
-1.04547e-05
-3.92786e-05
1.19289e-05
-5.07087e-05
1.44864e-05
-1.36604e-05
-1.81025e-05
4.22529e-05
-7.67286e-05
8.42315e-05
-0.000112961
8.6165e-05
-9.75255e-05
3.20244e-05
-7.14979e-05
2.99439e-06
-5.0752e-05
-1.32508e-05
-3.23058e-05
-2.65962e-05
-2.93921e-05
-9.88571e-06
-3.36387e-05
-3.04197e-06
-3.67631e-05
-2.21748e-06
-2.70837e-05
-2.40757e-05
-4.15342e-05
-2.44203e-05
7.543e-05
-3.38937e-05
5.22155e-05
-2.84641e-05
-5.90149e-06
-1.831e-05
-3.50221e-05
-6.29844e-06
-5.12899e-05
2.60594e-06
-5.9631e-05
-1.54057e-05
4.12204e-06
-6.27321e-05
8.9377e-05
-9.80074e-05
0.000120012
-3.83353e-05
3.46756e-05
-2.44084e-05
1.22038e-05
-2.50098e-05
-6.15672e-06
-7.66725e-06
-4.18681e-05
9.12526e-06
-7.48943e-05
2.05487e-05
-4.13986e-05
1.69094e-05
-2.87925e-06
5.54228e-06
3.22265e-06
-3.31414e-06
2.5831e-06
-2.86342e-05
-1.45991e-05
9.00291e-05
-1.83362e-05
5.61566e-05
-1.37911e-05
-1.01183e-05
-7.2338e-06
-4.12412e-05
-6.5928e-06
-5.19306e-05
-1.55981e-05
-5.06373e-05
-5.17294e-05
4.01436e-05
-9.08501e-05
0.000128408
-3.76044e-05
6.79023e-05
-1.95679e-05
1.58419e-05
-1.84026e-05
3.24156e-06
-2.19446e-05
-1.04411e-05
-7.95006e-07
-0.000157237
1.96568e-05
-0.000146267
3.55422e-05
-0.000124481
2.59642e-05
-3.35504e-05
1.38213e-05
4.95579e-06
6.72428e-06
2.33989e-06
-2.25304e-06
-3.16631e-06
9.31954e-05
2.99049e-07
5.26993e-05
1.93734e-06
-9.01968e-06
4.4152e-06
-4.04242e-05
-8.54489e-06
-3.89336e-05
-3.49997e-05
-2.41949e-05
-7.42836e-05
7.94419e-05
-4.82937e-05
0.000102676
-1.50634e-05
3.23012e-05
-1.26772e-05
1.04122e-05
-1.37461e-05
-1.28505e-06
-1.88894e-05
-4.04246e-05
8.24406e-06
-0.000184349
1.89936e-05
-0.000157001
2.76864e-05
-0.000132685
3.88994e-05
-0.000101189
5.94286e-06
-1.64081e-06
2.9773e-06
4.14504e-06
8.62774e-07
6.82202e-06
8.63733e-05
1.16055e-05
3.45375e-05
1.27873e-05
-1.27689e-05
1.56984e-05
-3.88678e-05
-9.7563e-06
-1.34573e-05
-4.93922e-05
1.55228e-05
-8.09778e-05
0.000111501
-2.49174e-05
4.73747e-05
-1.01688e-05
1.50357e-05
-7.70721e-06
5.21812e-06
-1.46752e-05
-6.26986e-06
6.60048e-07
-0.000149341
9.76571e-06
-0.000192644
1.57354e-05
-0.000162329
1.77175e-05
-0.000134341
2.86286e-05
-0.000111475
1.95552e-06
-1.12762e-05
4.11076e-07
3.19029e-06
1.27385e-06
1.2947e-05
7.34263e-05
1.8663e-05
2.38231e-05
3.01466e-05
-1.97215e-05
2.46049e-05
-3.14082e-05
-8.28021e-06
1.94794e-05
-5.39628e-05
6.13254e-05
-3.49631e-05
0.000104222
-8.75637e-06
3.54056e-05
-4.74224e-06
9.50006e-06
-4.17886e-06
1.97819e-06
-9.17755e-06
-6.29716e-06
6.20898e-06
-0.00018498
7.08955e-06
-0.000192417
1.06249e-05
-0.000164629
1.29078e-05
-0.000135986
1.31483e-05
-0.000111482
-1.10413e-07
-7.52413e-06
-4.06773e-07
3.01863e-06
8.67077e-07
1.86123e-05
3.37412e-05
2.70098e-05
1.19159e-05
4.3124e-05
-2.91193e-05
3.05504e-05
-1.86201e-05
-3.76869e-06
5.39185e-05
-4.93678e-05
0.000107275
-1.74296e-05
9.20544e-05
-5.0669e-06
2.15361e-05
-3.03549e-06
6.16702e-06
-3.36905e-06
3.5029e-07
-5.94203e-07
-1.18606e-05
5.04552e-06
-0.00018926
3.15443e-06
-0.000188901
5.71348e-06
-0.00016505
8.49508e-06
-0.000137554
2.59039e-06
-0.000105035
-2.45036e-06
6.01517e-06
-4.5843e-07
1.78035e-06
3.40514e-07
-2.77214e-07
-1.76484e-07
-2.55844e-06
-4.54965e-07
-4.48981e-06
-4.11848e-07
-6.48026e-06
-2.62254e-07
-1.03461e-05
3.17297e-07
-1.65818e-05
1.75023e-06
-2.27129e-05
3.26401e-06
-2.5999e-05
3.46617e-06
-2.64726e-05
3.08573e-06
-2.59232e-05
2.47002e-06
-2.63189e-05
3.08919e-06
-2.73486e-05
4.08497e-06
-2.82286e-05
4.11587e-06
-2.79427e-05
2.04858e-06
-2.59556e-05
-1.93166e-06
-2.33257e-05
-4.60344e-06
-1.95945e-05
-7.82329e-06
-1.44011e-05
-1.16149e-05
-8.05751e-06
-1.62236e-05
-1.12036e-06
-2.14677e-05
6.23584e-06
-2.51512e-05
1.00963e-05
-2.64416e-05
-1.9956e-05
1.59771e-05
-3.75907e-06
-1.23539e-07
-4.66886e-06
3.73525e-08
-5.82417e-06
-4.97532e-08
-6.9991e-06
-1.07003e-07
-9.02583e-06
-3.52875e-08
-1.35102e-05
8.711e-08
-1.9838e-05
-8.1104e-09
-2.64066e-05
-2.11935e-07
-3.0734e-05
-1.17065e-06
-3.17034e-05
-2.59531e-06
-2.91271e-05
-3.82484e-06
-2.48457e-05
-2.61023e-06
-2.05826e-05
-1.35679e-06
-1.90824e-05
-5.8373e-07
-2.05208e-05
-1.1463e-06
-2.10775e-05
-3.35649e-06
-1.99493e-05
-6.4818e-06
-1.70332e-05
-1.14707e-05
-1.24489e-05
-2.05618e-05
-5.3186e-06
-2.96796e-05
3.83918e-06
-3.42792e-05
1.21303e-05
-3.24099e-05
-2.35104e-05
1.91222e-05
-1.12842e-07
-1.06197e-08
-8.79572e-08
7.87659e-09
-1.43311e-07
1.57094e-09
-2.53982e-07
7.72607e-10
-2.92533e-07
9.27422e-10
-2.09075e-07
1.56902e-09
-2.18521e-07
4.58829e-10
-4.28809e-07
-2.62784e-09
-1.69209e-06
-3.40115e-08
-6.77541e-06
-1.9176e-07
-1.32064e-05
-5.97827e-07
-1.77996e-05
-1.22999e-06
-2.11378e-05
-1.00033e-06
-2.87494e-05
-3.08141e-09
-4.23542e-05
3.20508e-08
-4.85269e-05
-5.05352e-06
-4.86888e-05
-1.22459e-05
-5.65329e-05
-1.91073e-05
-5.9534e-05
-2.64936e-05
-4.88706e-05
-1.84297e-05
-2.76687e-05
-1.37011e-05
-1.05987e-05
-4.94974e-06
-3.51686e-06
7.0805e-07
-1.04196e-08
-1.45538e-10
-5.003e-09
1.68471e-09
-4.29373e-09
3.80723e-10
-3.8972e-09
1.46968e-10
-3.1057e-09
4.0959e-11
-1.68004e-09
3.02336e-11
-1.28703e-09
5.98079e-12
-3.94646e-09
-3.20508e-11
-3.79387e-08
-7.83864e-11
-2.29241e-07
-1.08463e-10
-8.24456e-07
-2.65135e-09
-2.03642e-06
-1.86205e-08
-2.9542e-06
-8.57618e-08
-3.21093e-06
-2.70712e-07
-3.11086e-05
-9.75357e-07
-9.58064e-05
-6.79627e-06
-0.00012478
-1.11943e-05
-0.000132494
-1.15127e-05
-6.79126e-05
-9.6306e-06
-1.693e-05
-1.14576e-05
-1.81339e-06
-1.98123e-05
-5.86576e-07
-5.96428e-06
-4.00505e-06
-1.21659e-08
-7.21661e-10
5.77292e-10
-4.04814e-10
4.35575e-10
-1.92686e-10
9.98127e-11
-8.37236e-11
1.39384e-11
-4.83963e-11
6.83673e-13
-2.1816e-11
2.25636e-13
-1.81198e-11
4.28406e-14
-5.11801e-11
-1.38258e-12
-1.40706e-10
-1.07135e-12
-2.65542e-10
1.31377e-11
-2.90685e-09
-1.06836e-12
-2.15048e-08
-1.13684e-10
-1.03975e-07
-2.7238e-09
-4.09511e-07
-5.27947e-09
-2.04922e-06
-2.47833e-08
-3.18997e-06
-1.3578e-07
-4.49032e-06
-1.86904e-07
-5.80201e-06
-3.75507e-07
-1.14484e-05
-2.19155e-06
-2.35883e-05
-1.38607e-05
-2.75404e-05
-1.76958e-05
-8.72037e-06
-1.88671e-05
-7.75897e-06
-9.40466e-07
2.02024e-10
3.75418e-10
-5.52466e-11
8.01955e-10
-8.45815e-12
3.92831e-11
-8.24001e-13
1.23967e-12
-2.0234e-13
9.51989e-14
-1.37e-13
3.96506e-14
-1.84566e-13
1.32413e-14
-5.69488e-13
-1.08011e-13
-1.29428e-12
-1.36239e-13
-1.6127e-12
-1.43498e-13
-2.17029e-12
4.08451e-12
-5.04546e-10
1.94946e-11
-9.30632e-10
-1.9169e-11
-1.49875e-09
-5.38856e-11
-2.61839e-08
-2.82633e-10
-1.66297e-07
-3.12101e-10
-3.79991e-07
-4.45437e-10
-8.53881e-07
-4.54585e-08
-7.70832e-06
-4.76895e-07
-3.41832e-05
-8.10267e-06
-3.40895e-05
-1.79918e-05
-3.60463e-05
-1.89011e-05
-1.84635e-05
-1.0489e-05
2.8942e-10
8.60202e-11
9.85245e-11
5.4669e-10
6.05326e-13
1.3348e-10
9.15732e-14
1.53778e-12
1.45739e-14
5.15531e-14
4.66444e-15
8.2441e-15
-2.24161e-16
9.49749e-15
-9.53398e-14
1.39113e-14
-3.91816e-13
2.51372e-12
5.49404e-14
4.8656e-12
3.16762e-13
9.20481e-12
-9.61317e-11
6.08629e-11
-1.76068e-10
-2.03727e-11
-9.07232e-11
1.28452e-11
1.11948e-10
5.62709e-12
-8.67707e-10
2.26173e-11
-7.08296e-09
2.71911e-10
-8.12069e-08
1.43318e-09
-6.06634e-07
-9.51419e-08
-1.30709e-05
-1.37374e-06
-3.18911e-05
-1.3176e-05
-3.37206e-05
-2.29135e-05
-1.73687e-05
-4.6412e-05
7.751e-11
8.51085e-12
1.69781e-10
2.80718e-11
2.06106e-12
1.14419e-10
2.0864e-13
3.61968e-12
1.68269e-14
2.19472e-13
4.75335e-15
1.16852e-14
1.80518e-15
6.59297e-15
-9.54463e-15
1.53034e-14
7.15662e-14
2.17723e-12
9.58277e-13
5.81386e-12
-1.59293e-11
1.70486e-11
-1.74328e-11
9.81597e-12
-5.59124e-12
-2.93871e-12
-5.50373e-12
4.56765e-12
-1.63261e-11
3.7762e-12
-8.56118e-11
2.03662e-11
-6.43324e-10
1.72831e-10
-5.83593e-09
1.35639e-09
-1.34492e-07
1.74284e-09
-1.37826e-06
-3.17873e-07
-1.70207e-05
-2.6321e-06
-2.99873e-05
-1.89072e-05
-2.80431e-05
-3.87108e-05
8.19942e-12
3.11575e-13
2.40066e-11
3.83268e-12
2.14177e-11
-2.69882e-13
1.46496e-14
5.58779e-12
1.51376e-14
1.81449e-13
8.02187e-15
1.37521e-14
1.27759e-15
7.48473e-15
-5.21452e-16
2.77459e-14
-3.2199e-14
2.98739e-13
-2.61605e-13
6.48886e-13
-6.6896e-12
4.38188e-12
-1.57379e-11
2.69652e-12
-5.83525e-12
2.82944e-11
-2.89933e-12
4.01679e-12
-4.02733e-12
2.43612e-12
-5.10413e-12
8.76976e-12
-1.37503e-11
6.74936e-11
-3.413e-10
6.6242e-10
-1.03823e-08
3.87116e-09
-3.62288e-07
-1.5511e-08
-2.65188e-06
-5.85829e-07
-1.60617e-05
-3.69191e-06
-1.62055e-05
-3.35954e-05
3.05195e-13
6.37971e-15
2.50297e-12
3.59857e-13
1.06617e-12
8.63468e-14
4.25403e-13
-3.58851e-14
-1.45548e-15
8.12259e-14
2.4227e-15
8.33689e-15
1.69389e-15
1.00304e-14
1.66107e-15
2.06077e-14
-5.68689e-15
6.55309e-15
1.22611e-13
1.16308e-14
-1.49736e-12
2.16569e-13
-1.39623e-11
1.30067e-11
-6.49704e-12
3.77205e-11
-3.12906e-12
1.40763e-11
-2.86179e-12
1.49447e-12
1.08268e-12
2.35721e-12
3.78225e-11
1.46492e-11
3.12155e-10
1.57501e-10
8.4064e-10
1.1754e-09
-2.93261e-08
4.63451e-09
-6.18824e-07
-5.14321e-08
-3.55937e-06
-9.62714e-07
-4.45917e-06
-1.82858e-05
2.79005e-15
3.58966e-15
1.48015e-13
4.50226e-14
8.523e-14
2.24837e-14
1.25333e-14
7.62253e-18
4.12076e-15
6.22185e-15
1.50405e-15
5.96935e-15
1.72974e-15
1.09491e-14
1.11547e-15
1.22716e-14
-1.82398e-16
5.20109e-15
4.79092e-15
8.46193e-15
-6.966e-14
1.0367e-13
-8.27614e-12
5.42563e-12
-1.12186e-11
2.4681e-11
-1.85636e-12
9.44875e-12
-1.77383e-12
1.09809e-12
3.90535e-12
2.86591e-12
2.98827e-11
9.0769e-12
9.26685e-11
4.9035e-11
3.17321e-10
4.71825e-10
-1.79851e-09
3.77678e-09
-8.73436e-08
1.27408e-08
-1.0127e-06
-2.42589e-07
-2.46667e-06
-4.11969e-06
1.85922e-17
4.83771e-15
8.40136e-15
6.05084e-15
4.79264e-15
5.24552e-15
1.08249e-15
2.27622e-15
6.30278e-16
9.53004e-16
1.00199e-15
4.01024e-15
1.26311e-15
9.92625e-15
7.95992e-16
8.40843e-15
1.38495e-16
4.2907e-15
4.62001e-16
7.4049e-15
-4.82772e-14
4.18859e-14
-1.05946e-12
-2.27398e-14
-1.59694e-12
7.75364e-14
-6.92051e-13
1.55542e-16
-5.97804e-13
7.97128e-13
-1.17381e-13
2.72278e-12
5.75449e-12
1.37302e-12
2.54002e-11
1.35628e-11
1.67538e-10
2.13198e-10
4.22209e-10
2.30568e-09
-1.8122e-08
1.81863e-08
-3.8747e-07
8.42334e-09
-1.0972e-06
-2.53521e-06
6.17114e-17
3.21823e-15
6.46461e-16
1.72158e-15
4.15815e-16
1.10954e-15
1.21186e-16
4.01711e-16
9.18853e-17
2.57961e-16
5.90163e-16
2.24014e-15
7.6671e-16
5.88629e-15
4.72436e-16
4.97598e-15
1.66575e-16
3.34685e-15
-2.42739e-17
6.71952e-15
-3.23171e-15
1.09776e-14
-6.02459e-14
4.85198e-15
-7.29171e-14
1.12477e-14
-1.15036e-13
-8.29754e-15
-3.91664e-13
4.01778e-13
-1.74726e-13
9.99659e-14
3.84903e-13
1.64373e-13
6.75495e-12
4.79814e-12
7.90318e-11
1.16668e-10
8.81066e-10
1.37581e-09
9.8162e-09
1.21897e-08
-4.70767e-08
2.52979e-08
-1.71176e-07
-1.00119e-06
3.08194e-17
9.18249e-16
5.60342e-17
2.58611e-16
3.46045e-17
1.32254e-16
1.57775e-17
3.79319e-17
2.25961e-17
7.83653e-17
2.19723e-16
7.70531e-16
3.06531e-16
1.96202e-15
2.15966e-16
1.86631e-15
1.34025e-16
2.38415e-15
1.07193e-16
5.69544e-15
-2.44099e-16
4.18548e-15
-2.44052e-15
3.50386e-15
-3.69682e-15
4.4185e-15
-3.45117e-14
8.29648e-15
-2.17845e-14
4.5983e-14
-1.35183e-14
7.52473e-15
9.84685e-14
5.81751e-14
2.7517e-12
1.84394e-12
5.25505e-11
6.39518e-11
4.23566e-10
2.29354e-09
1.68427e-09
1.78906e-08
-4.57603e-08
2.25527e-08
-4.36294e-08
-2.78307e-07
6.9909e-18
1.30958e-16
3.94541e-18
2.45089e-17
2.74104e-18
1.25486e-17
1.61271e-18
3.99319e-18
6.51665e-18
1.9711e-17
5.26091e-17
1.60039e-16
7.65594e-17
3.80983e-16
6.50195e-17
4.20123e-16
1.20903e-16
1.42241e-15
1.10299e-16
3.91871e-15
-2.48028e-17
1.83695e-15
-1.85123e-16
1.59948e-15
-4.36231e-16
1.75029e-15
-3.14071e-15
3.86794e-15
-2.0179e-15
6.91338e-15
-1.89569e-15
5.39474e-15
5.0929e-14
1.62093e-14
1.0464e-12
8.41929e-13
3.99548e-11
2.55809e-11
6.65433e-10
2.28904e-09
4.98608e-09
9.96667e-09
-9.5648e-08
4.74424e-08
2.14113e-08
-2.12073e-07
1.06883e-18
1.63897e-17
3.17262e-19
2.39023e-18
2.30476e-19
1.2369e-18
1.47294e-19
4.39494e-19
1.41524e-18
3.95301e-18
9.29527e-18
2.61568e-17
1.4877e-17
5.69702e-17
1.53103e-17
7.46265e-17
7.44839e-17
5.94904e-16
8.84417e-17
1.72691e-15
1.29172e-17
7.38891e-16
-1.52243e-17
6.08858e-16
-5.40092e-17
5.83547e-16
-2.66839e-16
7.5358e-16
-3.23841e-16
1.41299e-15
-3.36091e-16
2.31285e-15
1.85294e-14
3.67083e-15
5.7768e-13
2.94767e-13
-1.41922e-11
2.93359e-11
4.00527e-12
7.56164e-10
1.11522e-09
3.19547e-09
-1.00027e-08
1.31913e-08
6.29836e-08
-2.97296e-07
1.47993e-19
2.16211e-18
2.73821e-20
2.37705e-19
2.06427e-20
1.21608e-19
1.46569e-20
5.022e-20
2.6083e-19
6.90452e-19
1.49581e-18
4.11412e-18
2.60271e-18
8.55058e-18
3.47194e-18
1.37763e-17
3.03859e-17
1.4663e-16
4.42063e-17
4.202e-16
1.43356e-17
2.48668e-16
7.52026e-18
2.31451e-16
1.63988e-18
1.79556e-16
-5.91447e-18
1.15644e-16
-2.19881e-17
2.99589e-16
-3.95674e-17
6.66923e-16
2.37069e-15
1.00148e-15
2.66415e-13
3.08581e-14
-3.76311e-12
5.38875e-12
7.40538e-12
9.76731e-11
-7.79825e-11
2.8374e-09
3.96669e-09
8.36627e-09
6.94237e-08
-3.16284e-07
2.00536e-20
2.87599e-19
2.47575e-21
2.35599e-20
1.96223e-21
1.17658e-20
1.60307e-21
5.95171e-21
4.4499e-20
1.08977e-19
2.40955e-19
6.2614e-19
4.62693e-19
1.34068e-18
8.3245e-19
2.74378e-18
8.01626e-18
2.31108e-17
1.33215e-17
6.56771e-17
9.03526e-18
6.75094e-17
8.27763e-18
8.02086e-17
4.2259e-18
5.25888e-17
2.55265e-18
1.9944e-17
9.2485e-18
8.41896e-17
1.43544e-17
4.92208e-16
7.72487e-18
7.57214e-16
1.22581e-14
6.05501e-15
1.52034e-12
1.26188e-12
9.35087e-12
1.90845e-10
3.68309e-10
1.22113e-08
-6.78767e-10
1.41793e-08
1.63788e-07
-2.96006e-07
2.64767e-21
3.7056e-20
2.29838e-22
2.32228e-21
1.97099e-22
1.1201e-21
1.88577e-22
7.11657e-22
7.05042e-21
1.53727e-20
3.84263e-20
8.86469e-20
8.42891e-20
2.10808e-19
2.0751e-19
5.73796e-19
1.60329e-18
3.36317e-18
3.20206e-18
9.53296e-18
3.58737e-18
1.45614e-17
4.17838e-18
2.02421e-17
1.92028e-18
1.23392e-17
1.03503e-18
3.6917e-18
8.85471e-18
2.84453e-17
5.56692e-17
4.5109e-16
8.98269e-17
9.68903e-16
7.9584e-15
3.62475e-15
1.03575e-12
2.4773e-13
3.42651e-10
7.32034e-11
7.73934e-09
1.85739e-08
2.381e-08
5.31388e-08
1.09795e-07
-8.84629e-08
3.41063e-22
4.61638e-21
2.15924e-23
2.28448e-22
2.07498e-23
1.04889e-22
2.28487e-23
8.2911e-23
1.02999e-21
1.9614e-21
5.90258e-21
1.16192e-20
1.54868e-20
3.28215e-20
5.30157e-20
1.25423e-19
3.09892e-19
5.76728e-19
7.40354e-19
1.53468e-18
1.05798e-18
2.5782e-18
1.29772e-18
3.53806e-18
5.7924e-19
2.20219e-18
2.98313e-19
6.80147e-19
4.95957e-18
8.1313e-18
9.77614e-17
3.15883e-16
3.60639e-16
1.41413e-15
4.69581e-15
9.22231e-15
2.22706e-13
3.83796e-14
6.29172e-11
1.0587e-11
1.42875e-08
7.97433e-09
4.4181e-08
2.30179e-08
1.49905e-08
1.03646e-07
4.30369e-23
5.58506e-22
2.03587e-24
2.24752e-23
2.2106e-24
9.64047e-24
2.81439e-24
9.27806e-24
1.40032e-22
2.33598e-22
8.62084e-22
1.43351e-21
2.84106e-21
5.08734e-21
1.36305e-20
2.76064e-20
6.45053e-20
1.13727e-19
1.5265e-19
2.69114e-19
2.31937e-19
4.20404e-19
2.84153e-19
5.18186e-19
1.36482e-19
3.43231e-19
7.32688e-20
1.20219e-19
1.69223e-18
1.47749e-18
7.44713e-17
9.89173e-17
3.15848e-16
1.20402e-15
3.24829e-15
9.47689e-15
4.87038e-14
5.00558e-15
1.40046e-11
1.66609e-12
3.00538e-09
4.27129e-10
7.96012e-09
1.01796e-09
2.28686e-09
1.84819e-08
5.31784e-24
6.56658e-23
1.9093e-25
2.20316e-24
2.31909e-25
8.5947e-25
3.45684e-25
9.98944e-25
1.79625e-23
2.65176e-23
1.19274e-22
1.68745e-22
5.11663e-22
7.73311e-22
3.33707e-21
5.61326e-21
1.41238e-20
2.28824e-20
3.08326e-20
4.92713e-20
4.50904e-20
7.09174e-20
5.37678e-20
7.92306e-20
2.84494e-20
5.50049e-20
1.60901e-20
2.07766e-20
3.45958e-19
1.77911e-19
2.25051e-17
1.18907e-17
3.96385e-16
3.69457e-16
2.16889e-15
3.62374e-15
6.56756e-15
5.70285e-16
1.51172e-12
1.34584e-13
3.93192e-10
3.87108e-11
1.23399e-09
9.97952e-11
1.60723e-10
3.3386e-09
6.41087e-25
7.46632e-24
1.7364e-26
2.09315e-25
2.39906e-26
7.02597e-26
4.13108e-26
1.02431e-25
2.18925e-24
2.88798e-24
1.55754e-23
1.90316e-23
8.71265e-23
1.10423e-22
7.21984e-22
9.69892e-22
3.01213e-21
4.19208e-21
6.24834e-21
8.9597e-21
8.69138e-21
1.25926e-20
1.01423e-20
1.33295e-20
5.78111e-21
9.55514e-21
3.34457e-21
3.68611e-21
5.02227e-20
1.88063e-20
3.29172e-18
9.69063e-19
1.04472e-16
3.89338e-17
6.319e-16
4.25001e-16
1.01863e-15
7.2012e-17
1.19577e-13
1.20051e-14
3.59609e-11
3.32472e-12
1.2006e-10
7.98043e-12
9.54224e-12
2.62432e-10
7.46436e-26
7.99114e-25
1.40435e-27
1.74545e-26
1.94973e-27
9.66527e-27
5.15344e-27
9.24924e-27
2.54064e-25
3.0236e-25
1.91427e-24
2.05541e-24
1.34351e-23
1.4238e-23
1.30939e-22
1.38499e-22
5.78585e-22
6.52771e-22
1.22488e-21
1.49303e-21
1.67717e-21
2.16609e-21
1.94204e-21
2.27928e-21
1.19166e-21
1.70687e-21
6.8925e-22
6.75317e-22
6.22576e-21
2.01062e-21
3.76983e-19
8.67108e-20
1.28414e-17
2.67801e-18
9.12101e-17
3.55972e-17
1.47112e-16
1.04874e-17
1.09748e-14
9.33715e-16
3.14629e-12
2.30996e-13
9.93933e-12
5.41917e-13
4.66807e-13
1.82863e-11
8.01094e-27
7.28409e-26
1.81389e-28
1.40329e-26
1.23086e-28
4.24895e-27
5.11835e-28
1.0292e-27
2.81571e-26
3.05022e-26
2.21423e-25
2.1256e-25
1.83762e-24
1.65158e-24
1.9792e-23
1.69066e-23
9.49165e-23
8.55385e-23
2.14681e-22
2.12042e-22
3.0227e-22
3.24094e-22
3.50557e-22
3.51249e-22
2.37218e-22
2.79187e-22
1.38133e-22
1.18234e-22
6.99683e-22
2.16141e-22
4.01083e-20
7.85694e-21
1.27212e-18
2.14316e-19
1.05792e-17
3.14065e-18
7.73464e-18
3.91394e-18
9.00489e-16
4.39138e-17
2.29088e-13
1.56016e-14
6.9265e-13
3.38557e-14
1.91805e-14
1.09596e-12
1.16648e-27
3.27364e-26
-1.20448e-29
-2.87704e-28
-2.16054e-28
-3.59351e-27
2.65275e-28
5.35523e-28
2.98278e-27
2.92424e-27
2.41702e-26
2.10977e-26
2.25264e-25
1.76767e-25
2.57571e-24
1.86291e-24
1.3186e-23
9.78238e-24
3.18409e-23
2.54553e-23
4.69358e-23
4.04772e-23
5.48499e-23
4.54869e-23
4.13075e-23
3.81622e-23
2.48267e-23
1.78117e-23
7.21018e-23
2.28264e-23
3.89493e-21
6.61146e-22
1.19239e-19
1.75022e-20
1.31786e-18
2.37279e-19
2.38136e-18
1.24902e-18
7.73541e-17
5.47556e-18
1.55347e-14
9.89651e-16
4.36874e-14
1.88608e-15
7.97442e-16
5.84575e-14
5.20074e-29
2.5516e-27
-7.03231e-29
-1.63939e-27
-1.84253e-28
-2.97062e-27
-9.88315e-30
-1.20957e-28
3.02566e-28
2.41699e-28
2.50765e-27
2.01958e-27
2.53264e-26
1.78871e-26
3.00305e-25
1.92168e-25
1.59751e-24
1.02378e-24
4.02503e-24
2.71526e-24
6.1588e-24
4.40263e-24
7.25935e-24
5.05714e-24
5.95246e-24
4.37482e-24
3.7162e-24
2.22396e-24
6.94313e-24
2.3043e-24
3.42887e-22
5.1485e-23
1.02138e-20
1.32141e-21
1.37913e-19
1.6555e-20
8.14329e-19
1.56559e-19
1.03841e-17
4.33896e-18
1.01093e-15
5.96857e-17
2.48989e-15
1.57864e-16
1.63592e-16
2.86638e-15
-1.53509e-28
-7.33365e-27
-4.29474e-29
-9.81933e-28
-1.00192e-28
-1.5757e-27
-1.66957e-29
-1.99069e-28
3.70391e-29
2.61003e-29
2.50926e-28
1.87538e-28
2.65781e-27
1.72975e-27
3.22385e-26
1.88287e-26
1.75087e-25
1.00967e-25
4.51795e-25
2.70055e-25
7.07136e-25
4.41636e-25
8.37802e-25
5.11372e-25
7.2293e-25
4.47117e-25
4.55582e-25
2.39424e-25
6.47759e-25
2.18392e-25
2.75986e-23
3.75816e-24
7.94843e-22
9.21937e-23
1.06708e-20
1.1215e-21
7.21463e-20
6.64415e-21
1.83244e-18
1.95051e-19
6.0391e-17
3.63787e-18
1.64173e-16
1.08385e-17
1.78527e-17
2.12321e-16
-1.24418e-28
-5.7943e-27
-1.95557e-29
-4.41136e-28
-4.47303e-29
-6.90879e-28
-1.12582e-29
-1.31847e-28
6.45223e-30
8.38988e-30
2.4224e-29
1.66298e-29
2.62792e-28
1.60397e-28
3.2341e-27
1.76096e-27
1.77724e-26
9.48024e-27
4.6513e-26
2.55002e-26
7.36879e-26
4.18663e-26
8.74241e-26
4.8522e-26
7.73798e-26
4.24816e-26
4.9838e-26
2.34481e-26
5.65287e-26
1.92885e-26
2.05037e-24
2.59237e-25
5.67063e-23
6.03123e-24
7.38076e-22
7.09266e-23
4.38786e-21
3.46518e-22
9.67459e-20
5.2152e-21
3.24332e-18
1.55943e-19
9.53719e-18
4.76521e-19
7.46672e-19
1.51713e-17
-6.90307e-29
-3.12709e-27
-7.80586e-30
-1.74976e-28
-1.74249e-29
-2.6637e-28
-5.63449e-30
-6.53586e-29
4.60427e-31
3.82101e-31
2.1647e-30
1.25851e-30
2.46683e-29
1.43227e-29
3.05636e-28
1.57738e-28
1.69017e-27
8.50188e-28
4.45856e-27
2.29278e-27
7.09763e-27
3.7649e-27
8.40748e-27
4.3473e-27
7.51677e-27
3.79318e-27
4.56916e-27
2.15228e-27
4.91534e-27
1.56634e-27
1.41858e-25
1.70021e-26
3.74434e-24
3.73072e-25
4.70122e-23
4.20906e-24
2.71726e-22
2.06555e-23
4.93191e-21
2.62908e-22
1.52598e-19
6.73244e-21
4.48966e-19
2.03838e-20
3.47531e-20
7.47823e-19
-3.2475e-29
-1.42051e-27
-2.88811e-30
-6.48389e-29
-6.06685e-30
-9.26306e-29
-2.34385e-30
-2.71696e-29
-1.14266e-31
-1.04164e-30
2.53896e-31
1.49695e-31
2.22875e-30
1.24234e-30
2.73588e-29
1.35833e-29
1.5156e-28
7.30573e-29
4.00854e-28
1.96778e-28
6.37303e-28
3.21909e-28
7.51867e-28
3.68648e-28
6.71671e-28
3.19246e-28
3.92124e-28
1.8404e-28
3.99035e-28
1.20377e-28
9.20116e-27
1.06544e-27
2.30714e-25
2.19539e-26
2.7853e-24
2.36915e-25
1.60967e-23
1.17287e-24
2.64665e-22
1.42192e-23
6.87156e-21
2.98201e-22
2.24402e-20
1.11323e-21
3.55543e-21
4.98717e-20
-1.38225e-29
-5.77764e-28
-1.01837e-30
-2.30553e-29
-1.9125e-30
-2.94707e-29
-8.47014e-31
-9.90722e-30
-7.03557e-32
-6.47228e-31
4.43962e-32
3.49436e-32
1.94325e-31
1.04318e-31
2.32908e-30
1.12866e-30
1.28767e-29
6.03964e-30
3.39861e-29
1.61887e-29
5.36731e-29
2.62868e-29
6.29368e-29
2.97246e-29
5.56852e-29
2.54495e-29
3.16645e-29
1.47298e-29
3.03201e-29
8.81828e-30
5.6301e-28
6.41158e-29
1.33669e-26
1.23606e-27
1.5473e-25
1.27424e-26
8.93089e-25
6.29137e-26
1.37887e-23
7.40634e-25
3.1758e-22
1.41685e-23
1.56934e-21
9.99326e-23
7.00883e-22
7.08393e-21
-5.44262e-30
-2.15815e-28
-3.47073e-31
-7.95815e-30
-5.51099e-31
-8.66478e-30
-2.72039e-31
-3.24593e-30
-2.90464e-32
-2.72717e-31
3.67831e-33
2.21889e-33
1.59634e-32
8.15711e-33
1.8921e-31
9.08615e-32
1.04015e-30
4.82354e-31
2.7285e-30
1.28238e-30
4.25982e-30
2.05986e-30
4.9572e-30
2.2906e-30
4.31268e-30
1.93224e-30
2.39982e-30
1.11256e-30
2.16783e-30
6.16528e-31
3.26856e-29
3.72371e-30
7.33164e-28
6.6964e-29
8.12594e-27
6.58995e-28
4.68235e-26
3.24531e-27
6.97836e-25
3.77482e-26
1.62087e-23
7.88641e-25
1.61364e-22
1.20832e-23
1.33752e-22
1.34006e-21
-1.99019e-30
-7.49054e-29
-1.14528e-31
-2.66903e-30
-1.46242e-31
-2.37392e-30
-7.86696e-32
-9.70328e-31
-9.75506e-33
-9.48095e-32
-2.68379e-34
-2.13093e-33
1.44322e-33
5.35303e-34
1.47176e-32
7.13221e-33
7.99981e-32
3.73738e-32
2.07812e-31
9.82327e-32
3.19298e-31
1.55574e-31
3.68407e-31
1.69474e-31
3.13232e-31
1.40395e-31
1.70523e-31
7.98073e-32
1.46086e-31
4.12306e-32
1.80746e-30
2.09835e-31
3.82618e-29
3.51291e-30
4.05958e-28
3.3e-29
2.33946e-27
1.62362e-28
3.45202e-26
1.89569e-27
9.21669e-25
4.91112e-26
1.74732e-23
1.25317e-24
1.53146e-23
1.95599e-22
-6.7504e-31
-2.42957e-29
-3.63022e-32
-8.65256e-31
-3.59025e-32
-6.10631e-31
-2.06322e-32
-2.67637e-31
-2.81784e-33
-2.88775e-32
-1.41384e-34
-1.18585e-33
1.73735e-34
8.16004e-35
1.10336e-33
5.49764e-34
5.85401e-33
2.82203e-33
1.5006e-32
7.30863e-33
2.25854e-32
1.13739e-32
2.58223e-32
1.20917e-32
2.13343e-32
9.80452e-33
1.13289e-32
5.46271e-33
9.26068e-33
2.64467e-33
9.53144e-32
1.15437e-32
1.90414e-30
1.79847e-31
1.93566e-29
1.6143e-30
1.118e-28
7.94935e-30
1.65699e-27
9.35493e-29
5.3766e-26
2.94199e-27
1.54939e-24
9.80388e-26
1.10239e-24
1.84628e-23
-2.12027e-31
-7.3867e-30
-1.09295e-32
-2.69261e-31
-8.17571e-33
-1.48516e-31
-4.92601e-33
-6.87267e-32
-7.16176e-34
-7.92932e-33
-4.64292e-35
-4.21896e-34
2.11437e-35
1.40274e-35
7.91308e-35
4.16098e-35
4.06581e-34
2.08617e-34
1.02462e-33
5.30658e-34
1.50261e-33
8.08668e-34
1.70189e-33
8.35903e-34
1.35817e-33
6.6104e-34
7.00041e-34
3.5843e-34
5.4931e-34
1.63215e-34
4.78639e-33
6.24329e-34
9.0334e-32
9.07097e-33
8.81509e-31
7.79951e-32
5.11828e-30
3.86085e-31
7.65867e-29
4.60911e-30
2.93489e-27
1.6644e-28
1.12647e-25
6.86814e-27
7.56704e-26
1.32634e-24
-6.14142e-32
-2.10938e-30
-3.09066e-33
-7.98958e-32
-1.7304e-33
-3.43824e-32
-1.07301e-33
-1.65588e-32
-1.61879e-34
-1.99711e-33
-1.20168e-35
-1.22185e-34
1.28073e-36
7.29845e-37
5.35851e-36
3.05241e-36
2.67264e-35
1.51714e-35
6.59163e-35
3.77893e-35
9.3596e-35
5.61953e-35
1.05043e-34
5.62881e-35
8.04287e-35
4.32469e-35
3.99885e-35
2.26633e-35
3.02831e-35
9.73179e-36
2.28274e-34
3.34384e-35
4.07886e-33
4.55298e-34
3.83243e-32
3.76576e-33
2.24921e-31
1.88905e-32
3.44499e-30
2.35611e-31
1.54008e-28
1.01605e-29
7.6919e-27
5.29657e-28
6.22166e-27
9.40954e-26
-1.62946e-32
-5.66872e-31
-8.11864e-34
-2.24761e-32
-3.40662e-34
-7.62156e-33
-2.13425e-34
-3.76959e-33
-3.27084e-35
-4.67113e-34
-2.60742e-36
-3.08741e-35
-3.15702e-38
-3.1508e-37
3.58855e-37
2.16691e-37