/*--------------------------------*- C++ -*----------------------------------*\
| =========                 |                                                 |
| \\      /  F ield         | OpenFOAM: The Open Source CFD Toolbox           |
|  \\    /   O peration     | Version:  5.x                                   |
|   \\  /    A nd           | Web:      www.OpenFOAM.org                      |
|    \\/     M anipulation  |                                                 |
\*---------------------------------------------------------------------------*/
FoamFile
{
    version     2.0;
    format      ascii;
    class       volScalarField;
    location    "0.75";
    object      alpha.water;
}
// * * * * * * * * * * * * * * * * * * * * * * * * * * * * * * * * * * * * * //

dimensions      [0 0 0 0 0 0 0];

internalField   nonuniform List<scalar> 
2268
(
1
1
1
1
1
1
1
1
1
1
1
1
1
1
1
1
0.997332
0.927022
0.899424
1
1
1
0.999424
1
1
1
1
1
1
1
1
1
1
1
1
1
1
1
0.999997
0.994641
0.928716
0.913846
0.999985
0.989698
0.987845
1
1
1
1
1
1
1
1
1
1
1
1
1
1
1
1
1
0.999644
0.990995
0.962932
0.94738
0.947395
0.955412
1
1
1
1
1
1
1
1
1
1
1
1
1
1
1
1
1
1
0.999999
0.999995
0.985093
0.947379
0.99298
0.99984
1
1
1
1
1
1
1
1
1
1
1
1
1
1
1
1
1
1
1
1
0.985914
1
1
1
1
1
1
1
1
1
1
1
1
1
1
1
1
1
1
1
1
1
1
1
1
1
1
1
1
1
1
1
1
1
1
1
1
1
1
1
1
1
1
1
1
1
1
1
1
1
0.998346
0.976562
0.958291
0.933557
0.917818
0.936229
0.994379
1
1
1
1
1
1
1
1
1
1
1
1
1
0.999999
1
0.905321
1
0.999981
1
1
0.98555
0.937353
0.698259
0.862198
1
1
1
0.987684
0.986477
0.998483
1
1
0.992933
0.961459
0.918226
0.999999
0.999992
0.99999
0.99999
0.999989
0.999982
0.925073
0.97737
0.999941
0.882494
0.547485
0.467947
0.473429
0.581709
0.658822
0.745509
0.904489
1
0.965731
0.999998
0.999993
0.999982
0.999989
0.999957
0.991293
0.991624
0.98188
0.57602
0.119376
0.103399
0.115413
0.16232
0.104845
0.0629924
0.0603288
0.215286
0.904729
1
0.996822
0.97212
0.987427
0.999982
0.999801
0.999482
0.996054
0.727251
0.0895522
0.0753926
0.0829175
0.476501
0.641539
0.574494
0.181898
0.0522561
0.0443151
0.223168
1
0.999592
0.786605
0.933198
0.999793
0.999233
0.997691
0.807922
0.152211
0.037616
0.0595558
0.143338
0.655105
0.655795
0.655751
0.606555
0.159785
0.0170253
0.00103747
1
0.825038
0.707847
0.904099
0.999343
0.997203
0.976927
0.581854
0.0344728
0.0278414
0.0585433
0.492698
0.653787
0.655437
0.65611
0.655453
0.291928
0.00985878
1.24581e-18
1
0.700616
0.752542
0.978509
0.997078
0.99578
0.820549
0.0474799
0.0200953
0.0248096
0.0526331
0.644801
0.650943
0.652856
0.655437
0.656052
0.249339
0.00281529
2.53399e-19
0.794323
0.703256
0.915051
0.995111
0.99578
0.994812
0.632078
0.0200758
0.0146205
0.0200989
0.0251771
0.635733
0.64477
0.645664
0.652708
0.655265
0.163989
0.000865643
0.00014943
0.409403
0.383136
0.361521
0.369845
0.44253
0.590665
0.760818
0.894845
0.969127
0.99825
1
1
1
1
1
1
0.999999
0.999997
0.999992
0.999993
0.999991
0.999983
0.999991
0.0574875
0.032846
0.0529403
0.0728571
0.0970597
0.145856
0.233278
0.344655
0.46905
0.594604
0.720464
0.820559
0.873547
0.907195
0.953354
0.982553
0.985882
0.972965
0.970631
0.992409
0.99979
0.995537
0.989026
-7.06148e-07
4.25744e-05
2.58533e-05
2.41258e-05
1.95537e-05
1.29787e-05
5.65313e-06
1.94803e-06
0.000158744
0.0179781
0.0742021
0.144256
0.203756
0.258666
0.363623
0.476925
0.537636
0.595469
0.711392
0.738202
0.627972
0.486966
0.413629
-1.07794e-07
6.01426e-06
2.67625e-06
1.60086e-06
2.41525e-07
4.72759e-07
2.73635e-07
2.31492e-07
3.97522e-07
6.33971e-07
2.08809e-06
1.6816e-05
0.000106257
0.00258855
0.0583473
0.326539
0.541103
0.575693
0.421382
0.126273
0.0298832
0.00343379
0.00132841
-8.67684e-09
2.99708e-06
4.05532e-07
1.25814e-07
2.32152e-08
1.05006e-08
7.39842e-09
1.35588e-08
8.21253e-08
2.24118e-07
2.63385e-07
1.02431e-06
7.79175e-06
6.18878e-05
0.00466722
0.0094365
0.0108609
0.0151665
0.023305
0.10551
0.172252
0.0416954
0.00976734
-8.17525e-10
7.16004e-06
1.25814e-07
2.61261e-08
1.77315e-09
5.40406e-10
3.27912e-10
2.40513e-09
2.41828e-08
1.21021e-07
1.70523e-07
1.24733e-06
1.08586e-05
8.58806e-06
2.44701e-06
1.54309e-05
0.00011015
0.000698787
0.0106376
0.131936
0.184938
0.191012
0.144568
-9.30367e-11
7.42616e-06
7.46918e-07
1.71622e-09
5.40406e-10
2.95545e-10
1.28555e-10
6.01784e-10
7.05468e-08
1.36537e-07
1.55035e-07
1.97894e-06
4.81651e-06
2.17263e-06
5.70463e-07
2.02021e-06
1.64077e-05
0.000110144
0.00069849
0.0178863
0.154275
0.199831
0.212342
-1.37902e-12
2.88876e-06
1.32086e-06
2.83719e-09
2.39313e-10
1.28555e-10
1.2158e-10
1.30073e-10
6.5368e-08
1.51746e-07
3.60683e-07
1.51575e-06
1.96678e-07
6.21035e-08
5.09662e-08
2.71789e-07
2.03376e-06
1.74031e-05
0.000127485
0.000861566
0.0227431
0.175587
0.230618
-2.80888e-13
4.56036e-08
4.85372e-07
7.41867e-08
2.32016e-10
1.16189e-10
1.2158e-10
4.41983e-10
2.98881e-08
7.02569e-08
2.25976e-07
4.66716e-07
4.82301e-07
3.93268e-08
2.12341e-08
5.09662e-08
3.72553e-07
3.73512e-06
3.42808e-05
0.000264749
0.00168581
0.0342541
0.194381
1.98817e-26
6.00627e-09
4.0313e-09
1.8302e-08
1.49126e-09
1.03768e-10
1.3595e-10
3.55563e-10
1.0818e-09
1.25421e-09
3.45379e-08
4.02197e-07
5.97703e-07
2.16527e-07
1.60797e-08
2.12341e-08
8.73456e-08
9.42865e-07
9.31306e-06
6.69474e-05
0.000396624
0.00217119
0.0207409
0
8.03335e-10
4.45183e-10
1.28866e-10
2.54128e-10
8.9933e-11
1.42044e-10
2.11798e-10
6.99713e-11
1.10146e-10
2.07642e-09
2.66001e-07
5.97703e-07
2.00398e-07
1.42659e-08
2.60085e-08
1.60355e-07
3.78568e-07
2.2204e-06
1.63073e-05
0.000105518
0.000684293
0.00369784
1.44856e-12
1.26896e-10
7.41473e-11
2.32925e-11
2.46216e-11
6.15599e-11
1.32271e-10
1.36188e-10
6.25044e-11
1.03191e-10
1.06079e-09
2.44523e-08
7.95292e-08
5.82472e-08
1.38814e-08
4.79279e-08
6.12294e-08
1.09072e-07
4.63629e-07
4.07807e-06
4.02137e-05
0.000358434
0.0024473
2.62374e-11
2.46092e-11
1.84021e-11
7.26735e-12
5.7417e-12
3.77002e-11
9.41759e-11
8.50911e-11
4.90255e-11
9.17945e-11
3.04092e-10
1.67872e-10
3.83018e-10
3.57453e-10
8.99203e-09
1.75952e-08
2.84372e-09
1.24791e-08
9.68796e-08
1.12601e-06
1.69139e-05
0.000190276
0.00089641
1.63451e-11
5.81184e-12
3.28724e-12
1.0152e-12
1.82335e-12
1.65011e-11
4.26965e-11
3.94405e-11
3.53683e-11
7.76807e-11
9.14859e-11
3.95919e-11
5.69426e-11
1.14189e-10
2.17452e-09
2.6429e-10
6.30925e-10
2.29954e-09
2.38657e-08
8.5464e-06
0.000110286
0.000223873
0.00105045
3.46202e-12
7.55475e-13
3.42649e-13
9.90555e-14
5.11472e-13
4.51061e-12
1.12933e-11
1.15581e-11
2.27849e-11
5.77777e-11
3.6337e-11
2.62774e-11
2.79856e-11
6.5114e-11
2.16582e-10
4.99501e-11
1.5725e-10
4.67924e-10
7.05107e-09
1.30732e-05
9.08146e-05
0.000330307
0.00149397
4.37262e-13
7.08101e-14
3.18855e-14
1.08474e-14
1.1472e-13
8.4297e-13
1.93437e-12
2.3123e-12
1.14577e-11
3.16601e-11
1.47274e-11
1.17551e-11
1.12873e-11
1.95529e-11
3.29184e-11
3.30324e-11
2.50299e-11
9.92797e-11
1.96221e-07
1.12788e-05
1.38044e-05
8.92206e-05
0.00142713
5.32975e-14
6.89958e-15
3.0819e-15
1.28489e-15
2.15818e-14
1.35269e-13
2.84551e-13
4.16761e-13
3.76739e-12
1.06413e-11
5.33379e-12
4.4896e-12
3.75474e-12
3.19164e-12
6.24322e-12
1.05263e-11
7.97448e-12
2.12704e-11
8.51904e-08
2.49187e-06
2.85908e-06
6.13001e-06
0.00060302
6.89986e-15
6.87429e-16
2.96825e-16
1.62101e-16
3.59801e-15
2.08293e-14
4.32326e-14
7.98313e-14
7.50596e-13
2.10936e-12
1.61821e-12
1.65979e-12
1.15425e-12
5.08984e-13
1.56072e-12
4.71934e-12
5.44353e-12
2.18669e-11
3.19375e-09
1.04219e-06
1.35091e-05
1.5123e-05
0.000981874
8.93415e-16
6.87627e-17
2.82069e-17
2.08317e-17
5.31803e-16
3.02183e-15
6.77529e-15
1.62894e-14
1.10323e-13
3.10963e-13
3.96051e-13
4.96351e-13
3.05653e-13
9.10819e-14
5.21764e-13
4.504e-12
7.58568e-12
1.56391e-11
2.97549e-11
1.35435e-09
9.21554e-05
0.000205276
0.000765701
1.12225e-16
6.90563e-18
2.64391e-18
2.57814e-18
6.9641e-17
4.04248e-16
1.0634e-15
3.51891e-15
1.73091e-14
4.70464e-14
7.74265e-14
1.04579e-13
6.22042e-14
1.70088e-14
1.69141e-13
3.62286e-12
1.27298e-11
7.16907e-11
3.96553e-11
2.27625e-10
7.79443e-05
0.000207395
0.000325422
1.36872e-17
6.98187e-19
2.44068e-19
2.99726e-19
8.32659e-18
5.03796e-17
1.67255e-16
7.89983e-16
3.29741e-15
8.03317e-15
1.30194e-14
1.64127e-14
1.01825e-14
3.10579e-15
3.90075e-14
1.7421e-12
1.19176e-11
8.19473e-11
6.79398e-12
2.50849e-11
1.48974e-05
3.41693e-05
2.35128e-05
1.62533e-18
7.0886e-20
2.20243e-20
3.29889e-20
9.41304e-19
5.9672e-18
2.6243e-17
1.71625e-16
6.84851e-16
1.48558e-15
2.17059e-15
2.43069e-15
1.60471e-15
5.5252e-16
5.61764e-15
3.64616e-13
6.2452e-12
5.19568e-11
1.34805e-12
5.33064e-13
-8.65857e-09
5.19252e-07
6.43488e-07
1.87371e-19
7.08479e-21
1.81973e-21
3.46752e-21
1.02354e-19
6.78949e-19
3.95095e-18
3.28748e-17
1.35862e-16
2.82505e-16
3.89988e-16
4.0428e-16
2.78307e-16
1.00611e-16
5.89513e-16
3.37827e-14
1.27512e-12
1.26411e-11
6.89279e-13
3.74374e-13
-2.04533e-10
5.59666e-08
1.02607e-07
2.05932e-20
6.26935e-22
9.08189e-23
3.31744e-22
1.07455e-20
7.42412e-20
5.41163e-19
5.21915e-18
2.34719e-17
5.11845e-17
7.17225e-17
7.30286e-17
5.24977e-17
1.94218e-17
6.01838e-17
2.48605e-15
1.00557e-13
1.31758e-12
1.48756e-13
2.17205e-13
7.66093e-12
5.0486e-09
8.26758e-09
1.93552e-21
2.41875e-23
4.0709e-39
2.00027e-23
1.09163e-21
7.78555e-21
6.57241e-20
6.85397e-19
3.38369e-18
8.08344e-18
1.19645e-17
1.25176e-17
9.57838e-18
3.76285e-18
6.66848e-18
2.10617e-16
6.16212e-15
1.15562e-13
6.16073e-14
1.07558e-13
2.99116e-12
3.7735e-10
5.48957e-10
7.16873e-23
-4.09531e-24
-4.94379e-23
1.41478e-26
1.07462e-22
7.83587e-22
7.1978e-21
7.8053e-20
4.11306e-19
1.06191e-18
1.66391e-18
1.82436e-18
1.49557e-18
6.51609e-19
7.74599e-19
1.81691e-17
4.68574e-16
8.47762e-15
3.15275e-14
7.77351e-14
1.21389e-12
3.90274e-11
5.19863e-11
0
-2.37506e-23
-4.17046e-23
-1.65428e-24
9.48247e-24
7.60361e-23
7.36014e-22
8.1483e-21
4.42422e-20
1.18996e-19
1.93734e-19
2.21229e-19
1.91249e-19
9.34036e-20
8.8084e-20
1.46892e-18
3.68303e-17
5.40799e-16
7.25714e-15
8.74162e-14
1.8724e-13
2.73894e-12
3.74968e-12
-8.79956e-23
-1.4482e-23
-2.25876e-23
-2.78214e-24
4.57544e-25
7.18557e-24
7.1926e-23
8.0608e-22
4.42456e-21
1.21058e-20
2.01154e-20
2.35174e-20
2.09091e-20
1.11621e-20
9.30958e-21
1.11884e-19
2.70198e-18
3.64709e-17
4.97363e-16
1.60774e-14
4.85305e-14
4.629e-13
1.11215e-12
-7.10181e-23
-6.62335e-24
-1.01167e-23
-1.88361e-24
0
6.64883e-25
6.7657e-24
7.64366e-23
4.21981e-22
1.16611e-21
1.9599e-21
2.31653e-21
2.08239e-21
1.17019e-21
9.15885e-22
8.14706e-21
1.86803e-19
2.47591e-18
1.98125e-17
4.27927e-16
4.50903e-15
3.70484e-14
1.10085e-13
-3.91734e-23
-2.67361e-24
-3.98531e-24
-9.54607e-25
0
5.47943e-26
6.13683e-25
6.96817e-24
3.86195e-23
1.07498e-22
1.81872e-22
2.158e-22
1.94642e-22
1.14272e-22
8.0771e-23
5.72109e-22
1.23827e-20
1.60268e-19
1.1126e-18
1.36551e-17
2.04615e-16
1.75966e-15
5.22139e-15
-1.82017e-23
-1.0074e-24
-1.41593e-24
-4.05678e-25
-1.55864e-26
2.16216e-27
5.42121e-26
6.12125e-25
3.39591e-24
9.48599e-24
1.60837e-23
1.90508e-23
1.71653e-23
1.04164e-23
6.59635e-24
3.88557e-23
7.92204e-22
9.9554e-21
7.01356e-20
8.46898e-19
1.25071e-17
1.06689e-16
4.28932e-16
-7.58032e-24
-3.63727e-25
-4.60032e-25
-1.51191e-25
-9.90705e-27
-6.09412e-44
4.72975e-27
5.19692e-26
2.87605e-25
8.02817e-25
1.35811e-24
1.59701e-24
1.43176e-24
8.83457e-25
5.12307e-25
2.55583e-24
4.90376e-23
5.97808e-22
4.25158e-21
5.56129e-20
9.15598e-19
1.12804e-17
7.83908e-17
-2.90293e-24
-1.27262e-25
-1.37985e-25
-5.06026e-26
-4.26788e-27
0
3.85829e-28
4.27618e-27
2.35457e-26
6.54139e-26
1.09951e-25
1.27684e-25
1.13476e-25
7.0231e-26
3.7946e-26
1.63112e-25
2.94271e-24
3.47751e-23
2.48033e-22
3.49563e-21
7.7984e-20
1.59532e-18
1.67974e-17
-1.03433e-24
-4.31845e-26
-3.85069e-26
-1.54394e-26
-1.51553e-27
-3.43327e-29
2.67537e-29
3.43372e-28
1.871e-27
5.15287e-27
8.57098e-27
9.78118e-27
8.58652e-27
5.27448e-27
2.68087e-27
1.01323e-26
1.71901e-25
1.96652e-24
1.40518e-23
2.11477e-22
6.80713e-21
2.01055e-19
2.67248e-18
-3.44807e-25
-1.41393e-26
-1.0068e-26
-4.34051e-27
-4.70874e-28
-1.95034e-29
6.41916e-31
2.71925e-29
1.44951e-28
3.94051e-28
6.4591e-28
7.20888e-28
6.22772e-28
3.7622e-28
1.80914e-28
6.15941e-28
9.85303e-27
1.09e-25
7.77583e-25
1.22204e-23
5.16287e-22
1.95185e-20
2.72168e-19
-1.07842e-25
-4.4361e-27
-2.48267e-27
-1.13393e-27
-1.31647e-28
-7.06989e-30
-2.39211e-50
2.1364e-30
1.09953e-29
2.93784e-29
4.72451e-29
5.13253e-29
4.3448e-29
2.55828e-29
1.16828e-29
3.68762e-29
5.5982e-28
5.99024e-27
4.25548e-26
6.82472e-25
3.33316e-23
1.55986e-21
2.16169e-20
-3.16925e-26
-1.32491e-27
-5.81021e-28
-2.77285e-28
-3.36809e-29
-2.08126e-30
2.39211e-50
1.62177e-31
8.19747e-31
2.14466e-30
3.36809e-30
3.54568e-30
2.92656e-30
1.66465e-30
7.23757e-31
2.18527e-30
3.1785e-29
3.29491e-28
2.33712e-27
3.85888e-26
2.10839e-24
1.24058e-22
1.82546e-21
-8.7618e-27
-3.7463e-28
-1.29798e-28
-6.38894e-29
-7.97984e-30
-5.33095e-31
-5.51576e-33
1.15395e-32
6.03444e-32
1.53938e-31
2.35024e-31
2.38835e-31
1.9116e-31
1.04152e-31
4.31877e-32
1.28484e-31
1.80817e-30
1.81934e-29
1.2971e-28
2.3018e-27
1.54079e-25
1.09767e-23
1.67664e-22
-2.28204e-27
-1.00008e-28
-2.78179e-29
-1.39559e-29
-1.76747e-30
-1.22649e-31
-2.33927e-33
7.96041e-34
4.40918e-33
1.09053e-32
1.61121e-32
1.57865e-32
1.21617e-32
6.30407e-33
2.49745e-33
7.50084e-33
1.0289e-31
1.00594e-30
7.25934e-30
1.46031e-28
1.28701e-26
9.90386e-25
1.40627e-23
-5.6103e-28
-2.51389e-29
-5.74082e-30
-2.90651e-30
-3.68906e-31
-2.58266e-32
-6.01406e-34
5.16728e-35
3.20409e-34
7.66022e-34
1.09089e-33
1.03467e-33
7.58192e-34
3.7288e-34
1.37062e-34
4.35753e-34
5.84088e-33
5.5477e-32
4.07058e-31
9.59947e-30
1.05615e-27
7.71656e-26
9.26038e-25
-1.3057e-28
-5.97336e-30
-1.14432e-30
-5.80134e-31
-7.31073e-32
-5.04781e-33
-1.2472e-34
3.13738e-36
2.31871e-35
4.97091e-35
5.98971e-35
5.40317e-35
3.91592e-35
1.48577e-35
5.56692e-36
1.93268e-35
3.31514e-34
3.05849e-33
2.2846e-32
6.27104e-31
7.5393e-29
4.77215e-27
4.63573e-26
-2.88588e-29
-1.3179e-30
-2.19688e-31
-1.11411e-31
-1.37668e-32
-9.13748e-34
-2.15905e-35
7.67592e-38
8.95643e-37
4.5396e-36
1.14982e-35
1.11536e-35
6.61619e-36
5.3268e-36
5.3268e-36
5.3268e-36
9.44642e-36
8.43602e-35
6.43013e-34
2.01839e-32
2.48966e-30
1.34318e-28
1.04697e-27
1
1
1
1
0.990093
0.991921
0.988887
0.981081
0.419863
0.434647
0.400549
0.337104
0.00107156
0.000975806
0.000948806
0.000943384
0.00132841
0.00107156
0.000975806
0.000948806
0.00278195
0.00159241
0.00107989
0.00098002
0.150763
0.0220215
0.00178292
0.00110896
0.255573
0.222926
0.0576407
0.00561248
0.280081
0.317513
0.302479
0.0698818
0.223865
0.365312
0.387942
0.389931
0.0847649
0.332614
0.390675
0.394615
0.081576
0.326503
0.394615
0.394876
0.00256652
0.130257
0.358087
0.396933
0.000661307
0.000255653
0.000260312
0.0422331
0.000614104
9.86955e-05
3.21537e-06
-3.3082e-06
0.00198577
3.21542e-06
1.58601e-06
1.35788e-06
0.00481536
0.00275759
1.33615e-06
1.15363e-06
0.00490443
0.00488701
0.00203132
1.3586e-06
0.00489031
0.00490443
0.00488701
0.00398221
0.00140596
0.0035495
0.00482499
0.00478039
1.44654e-05
0.000123874
0.000466584
0.00167349
1.49199e-06
2.6076e-06
2.97913e-06
2.69811e-06
1.1516e-07
1.91459e-07
1.98319e-07
1.45468e-07
9.81322e-09
1.03918e-08
1.01694e-08
6.57653e-09
5.80011e-10
5.89474e-10
5.83788e-10
3.77396e-10
4.93988e-11
4.53349e-11
3.79346e-11
2.43395e-11
3.65681e-12
3.3872e-12
3.60123e-12
5.30084e-12
1.47281e-12
1.60166e-12
1.84776e-12
2.55777e-12
1.76205e-13
2.09001e-13
2.72065e-13
4.22899e-13
8.81456e-15
1.092e-14
1.41683e-14
2.44834e-14
8.38415e-16
1.19947e-15
1.68757e-15
3.35428e-15
1.85361e-16
3.12435e-16
5.18387e-16
9.728e-16
4.40123e-17
8.19764e-17
1.60476e-16
2.58365e-16
7.23329e-18
1.37743e-17
3.24767e-17
5.07413e-17
7.16713e-19
1.27121e-18
3.50449e-18
6.33135e-18
5.39375e-20
8.48296e-20
2.53984e-19
5.61391e-19
4.34074e-21
6.62962e-21
2.43316e-20
5.72816e-20
3.78488e-22
6.74091e-22
4.34627e-21
8.83523e-21
3.06734e-23
8.34745e-23
8.63922e-22
1.25886e-21
2.0003e-24
1.00074e-23
9.93172e-23
9.63666e-23
9.59891e-26
7.70352e-25
4.87106e-24
3.12429e-24
2.62845e-27
2.08353e-26
7.72228e-26
1.39469e-25
0.839461
0.932237
0.937354
0.8445
0.871255
0.965157
0.450393
0.0137972
0.01369
0.0146206
0.235103
0.631318
0.631166
0.595908
0.644333
0.651791
0.161204
0.012432
0.294999
0.955074
0.906934
0.702892
0.567763
0.906183
0.92831
0.308284
0.0116221
0.0128897
0.0176618
0.580267
0.626472
0.328787
0.151219
0.372188
0.577267
0.123544
0.053775
0.739468
0.204997
0.0634551
0.134964
0.417162
0.895939
0.904111
0.248966
0.0111163
0.0116221
0.139391
0.584996
0.478664
0.0638197
0.064099
0.0640127
0.153467
0.0801122
0.117992
0.71932
0.000946
0.000945956
0.00398961
0.225024
0.821537
0.883607
0.256274
0.0110778
0.0115657
0.351064
0.58403
0.221988
0.0640217
0.0636593
0.0644545
0.0652696
0.0652694
0.119265
0.334556
0.000942505
0.00103362
0.00217974
0.0663739
0.613548
0.859143
0.307691
0.0110785
0.0245468
0.476541
0.570913
0.166768
0.0637514
0.0651062
0.0661887
0.0652636
0.0662208
0.0669761
0.244734
0.00103369
0.00114726
0.00165032
0.00806732
0.336292
0.816434
0.407204
0.0118976
0.0395065
0.514937
0.534057
0.227659
0.172742
0.279556
0.311765
0.189476
0.0795479
0.0786293
0.694854
0.00114726
0.00119932
0.00146731
0.00287086
0.0434102
0.45893
0.716844
0.376183
0.124628
0.498356
0.142659
0.230082
0.556394
0.577874
0.591839
0.594165
0.604944
0.618055
0.928712
0.00119932
0.00143604
0.00164278
0.00208346
0.0046632
0.255715
0.723711
0.718538
0.632956
0.308449
0.000492142
0.0900976
0.333227
0.369189
0.396623
0.525897
0.740068
0.960434
0.995106
0.00328982
0.00164308
0.00169299
0.00222985
0.0612755
0.632073
0.723187
0.724033
0.718538
0.0514911
0.000159972
5.22745e-05
2.02941e-05
1.13107e-05
5.71498e-05
0.000314482
0.008125
0.320689
0.99536
0.125817
0.00169307
0.00223132
0.274803
0.650907
0.721358
0.723529
0.667487
0.323036
0.0179033
0.000379876
2.0294e-05
1.73859e-05
2.89164e-06
7.37238e-06
5.6993e-05
0.000314467
0.00368774
0.561039
0.390013
0.177804
0.223023
0.543869
0.567632
0.323199
0.263016
0.105627
0.0338308
0.103589
0.0515247
0.000462276
2.89122e-06
1.45274e-06
5.1086e-07
7.3702e-06
5.55601e-05
0.00187641
0
0.397194
0.399513
0.228672
0.0819689
0.064789
0.0246225
0.013267
0.00839883
0.00826932
0.100162
0.0994915
0.0139934
5.33875e-06
1.15809e-08
1.12429e-08
3.85714e-07
5.31181e-05
0.00122751
0
0.399513
0.399513
0.400202
0.280696
0.170938
0.0508766
0.00939235
0.00826932
0.00834017
0.0567483
0.077988
0.0104627
3.89327e-05
1.11468e-08
1.12883e-08
-2.53729e-08
3.51241e-05
0.00245967
0.00768347
0.252681
0.398761
0.400922
0.400953
0.400949
0.372095
0.196506
0.0574321
0.0922969
0.123078
0.0579578
0.00455917
-5.49807e-09
1.16117e-08
1.12151e-08
-6.82342e-09
9.89301e-05
0.00131259
0.017421
1.46882e-06
0.000633953
0.212609
0.31291
0.326878
0.336125
0.323308
0.218004
0.0584272
0.0275944
0.00654279
0.000137771
1.22519e-08
1.19614e-08
1.18823e-08
8.66992e-09
2.11055e-06
0.00079356
0
1.07612e-06
5.46545e-07
3.32666e-07
3.28651e-07
5.04407e-07
0.004459
4.09391e-06
9.1568e-06
0.00900261
4.93588e-05
7.15933e-05
-3.04663e-08
1.43889e-08
1.21748e-08
1.19585e-08
9.2264e-06
8.25069e-06
0.000463119
0.0131207
5.46647e-07
3.32667e-07
3.23075e-07
2.8283e-07
2.16825e-07
5.04407e-07
2.76123e-06
4.09391e-06
3.74083e-06
8.58055e-06
1.27964e-05
-1.62949e-07
5.4625e-08
7.89321e-08
1.21804e-08
5.66392e-05
2.47782e-05
8.14857e-05
0.335343
1.02439e-06
4.94868e-07
2.86812e-07
1.71005e-07
6.06543e-08
2.22912e-05
3.90216e-05
3.79346e-05
4.29061e-07
1.23312e-06
1.79921e-06
1.93111e-07
2.95044e-07
1.22819e-07
1.32417e-08
7.95814e-05
5.84758e-05
0.00010085
0.623918
6.22857e-05
6.32827e-06
1.28377e-06
1.77666e-07
4.68007e-09
6.48152e-07
1.11175e-05
1.26097e-05
4.46934e-08
1.28296e-07
1.27312e-07
4.66304e-07
4.58455e-07
5.67933e-08
1.64161e-08
0.000105429
0.00202842
0.000127191
0.37746
0.00329662
0.000133754
4.53289e-06
4.68418e-07
1.39927e-09
8.71039e-10
1.41554e-09
6.7857e-09
1.17484e-08
1.7462e-08
3.00767e-08
1.74098e-07
1.05553e-07
2.26221e-08
2.01237e-08
0.000265551
0.00466809
0.000245743
0.0244509
0.00128482
0.000235613
2.29731e-07
2.08872e-08
5.47238e-10
4.86083e-10
4.54323e-09
5.00208e-09
9.25983e-09
1.17484e-08
3.05248e-08
3.30996e-08
9.49013e-08
5.4101e-08
2.26221e-08
0.00049195
0.00466809
0.000426868
-6.82328e-21
1.54915e-06
2.2958e-07
2.1721e-08
1.71873e-09
4.86083e-10
4.30388e-10
8.99184e-10
4.66134e-09
1.03327e-08
1.06396e-08
2.69378e-08
1.94329e-07
4.98631e-07
2.43861e-07
2.6424e-08
0.000715234
0.00466809
0.000430939
-1.71376e-20
2.19703e-06
3.63256e-07
1.88413e-09
5.76887e-10
4.26717e-10
4.0715e-10
4.06508e-10
4.06964e-10
4.42362e-08
1.06745e-07
4.96083e-07
4.98953e-07
4.98352e-07
3.22085e-07
3.62766e-08
0.000864091
0.00463671
0.000158345
0
8.11645e-08
1.42012e-08
4.55013e-10
4.3496e-10
4.25489e-10
4.1142e-10
4.0715e-10
4.0654e-10
6.27783e-09
1.70306e-07
4.02693e-07
4.96555e-07
4.98508e-07
2.9753e-07
4.95456e-08
0.000845454
0.00451834
3.08396e-05
0
9.74219e-10
5.79721e-10
4.08273e-10
5.41415e-10
5.64492e-10
4.7834e-10
4.9642e-10
8.07105e-10
8.38811e-10
8.42212e-10
8.65088e-10
1.4212e-07
4.96555e-07
2.54429e-07
5.69952e-08
0.00075584
0.00130897
2.45712e-05
0.0104198
6.21139e-11
2.02153e-10
4.16139e-10
5.55775e-10
5.60099e-10
4.71689e-10
1.00562e-09
2.70386e-09
2.85454e-09
1.86908e-09
8.47697e-10
9.54661e-10
2.68333e-07
1.81388e-07
6.68754e-08
0.000802542
1.3707e-05
8.0077e-06
0.0225379
3.10832e-11
1.32936e-10
3.36806e-10
4.99376e-10
4.33084e-10
4.23277e-10
1.37676e-09
3.04274e-09
3.31443e-09
2.79307e-09
1.25284e-09
1.07298e-09
2.49377e-08
6.46264e-08
3.61737e-08
0.000695589
6.74205e-05
2.87827e-06
0.00432067
1.48344e-11
8.05058e-11
2.38903e-10
3.43459e-10
3.1653e-10
4.04743e-10
8.17388e-10
8.58172e-10
2.0016e-09
2.50797e-09
1.37958e-09
1.25429e-09
5.77185e-09
2.58608e-08
3.05514e-08
0.000124955
6.45048e-05
9.40327e-08
0
4.87034e-12
3.67628e-11
1.3161e-10
1.84903e-10
2.30401e-10
1.4294e-10
1.47266e-10
1.41479e-08
9.97148e-09
4.32481e-09
1.72824e-09
2.76621e-09
1.07818e-08
2.83004e-08
3.61737e-08
1.51568e-05
3.21648e-06
2.09856e-09
0
1.49379e-12
1.73208e-11
5.61176e-11
9.44701e-11
1.44598e-10
4.76941e-12
1.0821e-08
1.92812e-07
1.09873e-07
5.63783e-09
6.58963e-08
1.97718e-08
8.14017e-07
1.06622e-07
4.26027e-08
5.84738e-09
2.91253e-09
8.24195e-10
1.43461e-25
6.29779e-13
7.25287e-12
2.31928e-11
8.08963e-11
5.28178e-11
3.36842e-12
1.30585e-07
2.30008e-07
1.92781e-07
8.22055e-09
2.52893e-07
4.19496e-06
1.32126e-05
6.78515e-06
3.62053e-07
5.6373e-08
2.52004e-08
1.9891e-09
-1.15591e-41
2.3151e-13
2.59669e-12
1.2389e-11
4.34256e-11
2.69975e-11
2.73226e-12
1.37643e-07
2.30008e-07
2.28905e-07
1.42447e-08
2.84833e-07
1.20038e-05
1.46551e-05
1.46551e-05
1.49813e-06
3.22935e-08
2.45755e-08
7.129e-08
0
6.00149e-14
8.90953e-13
9.29589e-12
2.08682e-11
1.39337e-11
2.40893e-12
5.47031e-13
1.77167e-07
1.61809e-07
3.56745e-08
3.33948e-07
3.93062e-06
1.05187e-05
7.59444e-06
1.22818e-06
1.87437e-09
6.84804e-09
3.69604e-07
2.57466e-07
1.10679e-14
2.64415e-13
3.77241e-12
8.09614e-12
6.94451e-12
2.45811e-12
4.90182e-13
4.91732e-13
4.83394e-13
6.57586e-08
1.80032e-07
1.9669e-09
2.60445e-09
2.12541e-09
1.87412e-09
1.87437e-09
1.52681e-08
4.85042e-07
7.37015e-07
1.31413e-15
4.42249e-14
4.74933e-13
1.46392e-12
1.40921e-12
8.29322e-13
5.09758e-13
4.81054e-13
4.83394e-13
1.80563e-08
7.65636e-10
1.36962e-09
3.29741e-09
1.1188e-08
7.06135e-09
1.84314e-09
2.7058e-07
4.70486e-07
9.77491e-08
9.31396e-17
2.71281e-15
2.03463e-14
1.05704e-13
1.32928e-13
3.05922e-13
1.07178e-12
1.20703e-12
5.98098e-13
3.86334e-13
3.66792e-10
1.19946e-08
3.42654e-08
4.6794e-08
2.55191e-08
1.5312e-09
3.38035e-07
3.23136e-07
0
6.3862e-18
8.80124e-17
9.02517e-16
3.62511e-15
1.22923e-14
5.01616e-13
1.73244e-12
1.76894e-12
6.66094e-13
2.51467e-13
1.22588e-08
4.67915e-08
4.73058e-08
4.73058e-08
1.35271e-08
1.24856e-09
5.29911e-08
6.69114e-09
1.24983e-09
6.60294e-19
9.48859e-18
1.71433e-16
4.62637e-16
4.52708e-15
5.23595e-13
1.383e-12
1.22075e-12
9.60172e-14
1.05691e-13
2.35036e-08
4.51056e-08
4.30221e-08
1.22594e-08
2.18503e-13
1.24544e-09
1.52432e-13
3.99095e-16
-1.36815e-31
8.63951e-20
1.71492e-18
3.27661e-17
6.27658e-17
2.08135e-15
1.34871e-13
2.45393e-13
1.03463e-13
0
2.96143e-11
4.46651e-09
1.6675e-08
1.11179e-09
1.6344e-18
3.8424e-14
1.78408e-09
1.54879e-10
1.66751e-14
0
1.05968e-20
2.24918e-19
2.41088e-18
4.5442e-18
5.41125e-16
9.58831e-15
6.81552e-15
1.25499e-15
-2.67088e-14
3.9756e-10
5.84514e-16
-1.70429e-26
4.43346e-39
4.87908e-39
0
1.6411e-09
1.96019e-10
5.02164e-14
0
8.94449e-22
1.39703e-20
5.87493e-20
1.94702e-19
4.72287e-17
6.22208e-17
2.01654e-17
7.20571e-19
-6.50745e-15
-2.31721e-15
-3.92554e-16
-4.44583e-17
-4.16731e-18
-3.54498e-19
-2.71801e-20
4.49587e-10
4.13224e-11
9.22624e-15
4.27548e-33
2.70773e-23
2.42866e-22
4.35422e-22
2.53698e-21
2.56414e-19
4.72802e-20
1.13375e-21
-4.79252e-20
-9.60868e-20
-4.17511e-20
-1.09157e-20
-2.11494e-21
-3.16811e-22
-3.79984e-23
-3.72506e-24
-3.00467e-25
-2.30602e-26
-1.77332e-27
-5.77706e-29
)
;

boundaryField
{
    leftWall
    {
        type            zeroGradient;
    }
    rightWall
    {
        type            zeroGradient;
    }
    lowerWall
    {
        type            zeroGradient;
    }
    atmosphere
    {
        type            inletOutlet;
        inletValue      uniform 0;
        value           nonuniform List<scalar> 
46
(
-2.88588e-29
-1.3179e-30
-2.19688e-31
-1.11411e-31
-1.37668e-32
-9.13748e-34
-2.15905e-35
7.67592e-38
8.95643e-37
4.5396e-36
1.14982e-35
1.11536e-35
6.61619e-36
5.3268e-36
5.3268e-36
5.3268e-36
9.44642e-36
8.43602e-35
6.43013e-34
2.01839e-32
2.48966e-30
1.34318e-28
1.04697e-27
2.62845e-27
2.08353e-26
7.72228e-26
1.39469e-25
2.70773e-23
0
0
0
0
0
0
0
0
0
0
0
0
0
0
0
0
0
0
)
;
    }
    defaultFaces
    {
        type            empty;
    }
}


// ************************************************************************* //
