/*--------------------------------*- C++ -*----------------------------------*\
| =========                 |                                                 |
| \\      /  F ield         | OpenFOAM: The Open Source CFD Toolbox           |
|  \\    /   O peration     | Version:  5.x                                   |
|   \\  /    A nd           | Web:      www.OpenFOAM.org                      |
|    \\/     M anipulation  |                                                 |
\*---------------------------------------------------------------------------*/
FoamFile
{
    version     2.0;
    format      ascii;
    class       volScalarField;
    location    "0.75";
    object      p;
}
// * * * * * * * * * * * * * * * * * * * * * * * * * * * * * * * * * * * * * //

dimensions      [1 -1 -2 0 0 0 0];

internalField   nonuniform List<scalar> 
2268
(
529.498
529.174
530.412
533.799
541.385
555.776
576.914
600.565
622.995
644.299
665.229
686.118
707.004
727.638
747.279
765.268
780.646
789.847
792.575
793.532
805.359
830.9
845.387
470.108
469.242
470.323
473.502
480.574
495.113
517.017
541.323
564.07
585.441
606.403
627.321
648.233
668.986
688.846
707.017
723.811
736.782
737.721
731.735
740.236
763.532
781.763
408.844
407.624
408.928
412.035
418.424
432.915
455.89
481.631
505.11
526.615
547.531
568.396
589.297
610.128
630.331
649.074
666.351
680.378
681.949
675.404
681.22
700.227
717.902
346.311
344.825
346.418
349.288
354.675
369.033
393.853
421.882
446.392
467.972
488.739
509.52
530.453
551.487
572.164
591.585
609.135
623.027
627.044
623.02
628.682
640.609
655.359
283.386
281.39
283.069
285.681
290.537
305.623
332.769
363.008
388.211
409.609
430.081
450.704
471.653
492.985
514.329
534.619
552.762
567.036
573.442
573.323
577.386
583.649
593.677
220.543
217.682
219.16
221.71
226.967
243.402
273.594
305.179
330.407
351.451
371.527
391.89
412.782
434.453
456.666
478.091
497.153
512.129
520.962
521.822
524.3
526.378
532.43
157.753
154.528
154.929
157.869
165.465
184.814
215.331
247.376
272.181
293.028
312.932
333.114
353.863
375.86
399.149
421.957
442.094
457.565
466.711
468.751
469.548
468.594
472.764
94.6314
91.3138
90.6998
94.3516
105.328
127.918
159.412
189.592
213.55
234.326
254.123
274.116
294.58
316.885
341.617
366.26
387.778
403.723
412.781
414.856
413.708
409.867
413.625
862.458
761.507
739.851
804.588
896.207
921.637
824.319
830.002
922.877
934.377
905.203
1042.58
1383.42
1595.64
1405.7
1032.33
800.394
733.934
754.772
805.924
670.014
651.095
730.876
824.425
839.88
730.64
763.995
862.338
812.245
732.987
926.66
1348.04
1586.89
1378.22
925.731
679.286
636.631
688.311
725.753
563.53
557.401
657.186
759.22
755.86
629.363
674.382
730.791
606.19
618.894
847.641
1255.08
1500.7
1248.9
873.893
686.2
597.194
606.023
629.901
458.128
466.885
591.217
714.35
704.721
581.008
580.841
543.634
480.238
545.535
767.766
1121.38
1345.94
1122.65
822.471
629.124
547.296
556.737
544.074
372.846
404.749
541.588
691.068
698.969
579.091
495.345
421.395
413.441
489.05
675.247
949.112
1109.4
941.81
692.577
541.17
525.052
552.973
481.391
322.103
368.527
505.204
674.797
725.312
598.448
421.594
366.724
371.644
432.827
582.531
789.981
888.806
775.026
555.965
464.995
513.619
552.318
436.591
299.716
334.671
464.346
648.396
734.961
584.309
383.024
340.772
348.89
387.276
477.509
649.65
705.982
631.99
458.388
442.123
509.559
550.497
396.15
288.016
293.38
393.292
567.776
694.562
529.131
358.578
324.901
334.202
365.709
398.848
523.527
550.797
504.732
391.457
447.781
510.079
549.958
33.5804
32.0841
33.65
37.4515
45.0694
58.6423
78.8597
101.12
122.111
141.999
161.771
181.704
201.471
223.861
251.503
279.849
303.962
320.766
329.811
330.918
325.766
316.014
311.932
5.89967
3.48423
3.86195
4.83214
6.41031
9.5604
15.1325
22.3098
30.736
41.1472
52.5655
66.3639
80.3636
100.155
133.955
169.38
199.928
220.645
229.811
226.022
212.101
188.265
174.174
1.2641
0.975445
0.617874
0.293401
0.14168
0.198243
0.258549
0.224616
0.136042
0.387079
2.39471
6.2369
10.5678
17.9985
55.2085
104.127
133.872
140.21
137.462
135.791
121.618
90.6944
69.4527
0.600792
0.376437
0.166197
-0.0142344
-0.082147
-0.0610928
-0.0262938
-0.0259043
-0.144545
-0.493165
-0.953295
-1.07533
-0.846301
0.326218
5.78353
22.4358
35.9495
42.1412
52.9955
71.5778
62.7307
47.8481
31.0934
0.142398
-0.107663
-0.237898
-0.331164
-0.32388
-0.296979
-0.303704
-0.370728
-0.52698
-0.730922
-0.814438
-0.74955
-0.53767
-0.182942
0.196183
0.810348
1.74296
3.12881
9.85237
24.6048
35.6059
35.8522
26.9942
-0.18354
-0.494702
-0.540447
-0.577258
-0.526882
-0.486939
-0.484784
-0.526992
-0.610685
-0.713863
-0.773274
-0.720012
-0.528196
-0.30989
-0.162965
0.0175657
0.106354
0.257366
1.7305
8.41592
19.7551
22.8839
21.3573
-0.416023
-0.681878
-0.726375
-0.733723
-0.680748
-0.643973
-0.641965
-0.668048
-0.711451
-0.753889
-0.769486
-0.716779
-0.592442
-0.445854
-0.320782
-0.196382
-0.151972
-0.206701
-0.118132
0.677955
6.59599
15.0637
18.0038
-0.587798
-0.71594
-0.785137
-0.808518
-0.789256
-0.775504
-0.783185
-0.805622
-0.834377
-0.854681
-0.851416
-0.811448
-0.738078
-0.651753
-0.574506
-0.505499
-0.460188
-0.45769
-0.470934
-0.457502
-0.13703
3.12549
8.96101
-0.771507
-0.781534
-0.828595
-0.873178
-0.891758
-0.904325
-0.922025
-0.942712
-0.964811
-0.978001
-0.975006
-0.950422
-0.906996
-0.855515
-0.807219
-0.766041
-0.740966
-0.737047
-0.759336
-0.808957
-0.973883
-1.34724
0.562352
-0.96119
-0.932178
-0.953665
-0.994252
-1.0247
-1.04871
-1.0708
-1.09093
-1.10836
-1.11891
-1.11906
-1.10665
-1.0831
-1.05516
-1.03049
-1.01363
-1.01346
-1.04123
-1.10226
-1.21021
-1.37986
-1.77256
-1.96844
-1.13601
-1.11489
-1.13053
-1.15837
-1.18404
-1.2075
-1.22888
-1.24767
-1.26325
-1.27375
-1.27777
-1.27475
-1.26607
-1.25661
-1.25226
-1.25727
-1.27797
-1.32678
-1.40815
-1.51753
-1.6762
-1.86622
-1.62298
-1.307
-1.30042
-1.3137
-1.33237
-1.35218
-1.37235
-1.39155
-1.40893
-1.42407
-1.43617
-1.44481
-1.45002
-1.45342
-1.45874
-1.47036
-1.49197
-1.52796
-1.58564
-1.66513
-1.75328
-1.89063
-2.11089
-2.08797
-1.48128
-1.48194
-1.49159
-1.50534
-1.52147
-1.53895
-1.55644
-1.57319
-1.58893
-1.60334
-1.61647
-1.62876
-1.64198
-1.65903
-1.68317
-1.71739
-1.76492
-1.8294
-1.91077
-2.00556
-2.15902
-2.43714
-2.70034
-1.65505
-1.6573
-1.66521
-1.6765
-1.69032
-1.70597
-1.72241
-1.73917
-1.75599
-1.77283
-1.78999
-1.80832
-1.82947
-1.85579
-1.88996
-1.9344
-1.99159
-2.06383
-2.15175
-2.25992
-2.43645
-2.75342
-3.12787
-1.82556
-1.8283
-1.83545
-1.84537
-1.85778
-1.87228
-1.88818
-1.90517
-1.92314
-1.94223
-1.96298
-1.98628
-2.01371
-2.04728
-2.08938
-2.14227
-2.20804
-2.28912
-2.38754
-2.51053
-2.71077
-3.04959
-3.40509
-1.99306
-1.99598
-2.00249
-2.01158
-2.02317
-2.03701
-2.05267
-2.07002
-2.08905
-2.11007
-2.13368
-2.16085
-2.19296
-2.23188
-2.27987
-2.33924
-2.41203
-2.50113
-2.61105
-2.74819
-2.95813
-3.28853
-3.46625
-2.15768
-2.16053
-2.16656
-2.17514
-2.18623
-2.1997
-2.21529
-2.23299
-2.25291
-2.27538
-2.30105
-2.3309
-2.36626
-2.40857
-2.46024
-2.52358
-2.60063
-2.69376
-2.80966
-2.95296
-3.13608
-3.42191
-3.62565
-2.31941
-2.32214
-2.32784
-2.33607
-2.34682
-2.36004
-2.37559
-2.39354
-2.41404
-2.43745
-2.46441
-2.4958
-2.53283
-2.577
-2.63021
-2.69473
-2.77313
-2.86432
-2.97931
-3.12345
-3.29107
-3.56637
-3.95556
-2.47836
-2.48098
-2.48643
-2.49438
-2.50485
-2.51782
-2.53326
-2.55127
-2.57202
-2.59588
-2.62341
-2.65539
-2.69291
-2.73729
-2.7901
-2.85314
-2.92836
-3.01728
-3.12517
-3.26148
-3.45129
-3.77984
-4.38903
-2.63467
-2.6372
-2.6424
-2.65008
-2.66026
-2.67295
-2.68816
-2.70601
-2.72669
-2.75053
-2.77799
-2.80977
-2.84677
-2.89011
-2.9411
-3.00123
-3.07226
-3.15638
-3.25832
-3.3887
-3.58426
-3.94299
-4.57971
-2.78843
-2.79088
-2.79584
-2.80323
-2.81308
-2.8254
-2.84025
-2.85773
-2.87802
-2.9014
-2.92828
-2.9592
-2.9949
-3.03628
-3.08441
-3.14055
-3.20628
-3.28386
-3.37753
-3.49568
-3.66425
-3.94425
-4.40127
-2.93977
-2.94213
-2.94684
-2.95393
-2.96339
-2.97525
-2.98958
-3.00648
-3.02611
-3.04869
-3.07454
-3.10409
-3.1379
-3.17666
-3.22119
-3.27246
-3.33169
-3.40054
-3.48173
-3.5795
-3.70423
-3.87734
-4.13139
-3.08881
-3.09108
-3.09553
-3.10228
-3.11129
-3.12261
-3.13629
-3.15243
-3.17116
-3.19264
-3.21713
-3.24494
-3.27646
-3.31218
-3.35266
-3.39856
-3.4506
-3.50968
-3.57698
-3.65404
-3.74379
-3.85163
-3.98528
-3.23569
-3.23786
-3.24203
-3.24841
-3.25692
-3.26762
-3.28055
-3.29579
-3.31343
-3.33361
-3.3565
-3.38231
-3.41131
-3.44379
-3.4801
-3.52061
-3.56568
-3.61568
-3.67096
-3.73207
-3.79957
-3.87421
-3.9559
-3.38055
-3.38259
-3.38648
-3.39246
-3.40044
-3.41045
-3.42255
-3.43678
-3.45322
-3.47195
-3.4931
-3.51678
-3.54315
-3.57238
-3.60465
-3.64011
-3.67891
-3.72113
-3.7668
-3.81598
-3.8685
-3.92371
-3.98011
-3.52352
-3.52543
-3.52904
-3.5346
-3.54201
-3.5513
-3.56251
-3.57567
-3.59083
-3.60804
-3.62737
-3.64888
-3.67264
-3.69872
-3.72718
-3.75806
-3.79135
-3.82699
-3.8648
-3.90454
-3.94571
-3.98726
-4.02774
-3.66475
-3.66652
-3.66985
-3.67498
-3.6818
-3.69036
-3.70065
-3.71271
-3.72656
-3.74223
-3.75973
-3.77909
-3.80032
-3.82343
-3.84839
-3.87516
-3.90365
-3.93369
-3.96503
-3.99731
-4.02995
-4.06204
-4.09259
-3.80439
-3.80601
-3.80906
-3.81377
-3.81999
-3.8278
-3.83718
-3.84814
-3.86068
-3.87482
-3.89054
-3.90783
-3.92667
-3.94701
-3.96879
-3.99192
-4.01625
-4.0416
-4.06769
-4.09417
-4.12057
-4.14618
-4.17036
-3.94258
-3.94407
-3.94683
-3.95111
-3.95675
-3.96382
-3.9723
-3.98217
-3.99345
-4.0061
-4.02011
-4.03544
-4.05205
-4.06985
-4.08877
-4.1087
-4.12946
-4.15089
-4.17272
-4.19466
-4.21633
-4.23721
-4.25687
-4.07945
-4.08082
-4.0833
-4.08716
-4.09223
-4.09859
-4.10619
-4.11502
-4.12507
-4.13631
-4.14871
-4.16221
-4.17675
-4.19225
-4.20861
-4.22572
-4.24343
-4.26156
-4.2799
-4.29819
-4.31616
-4.33343
-4.34973
-4.21515
-4.21642
-4.21861
-4.22207
-4.22659
-4.23225
-4.23901
-4.24685
-4.25574
-4.26565
-4.27653
-4.28833
-4.30099
-4.31441
-4.3285
-4.34314
-4.35821
-4.37355
-4.38898
-4.4043
-4.41931
-4.43375
-4.44745
-4.34981
-4.35099
-4.3529
-4.35599
-4.35997
-4.36498
-4.37093
-4.37782
-4.38562
-4.39428
-4.40376
-4.414
-4.42493
-4.43647
-4.44854
-4.46102
-4.4738
-4.48675
-4.49973
-4.51258
-4.52517
-4.5373
-4.54888
-4.48355
-4.48465
-4.4863
-4.48903
-4.4925
-4.49689
-4.50208
-4.50808
-4.51484
-4.52234
-4.53052
-4.53933
-4.5487
-4.55855
-4.56881
-4.57938
-4.59016
-4.60104
-4.61192
-4.62268
-4.63322
-4.64341
-4.65318
-4.61652
-4.61749
-4.61893
-4.62132
-4.62431
-4.62811
-4.63258
-4.63774
-4.64355
-4.64997
-4.65695
-4.66444
-4.67239
-4.68071
-4.68935
-4.69822
-4.70723
-4.71631
-4.72536
-4.7343
-4.74306
-4.75155
-4.75973
-4.74882
-4.74965
-4.7509
-4.75297
-4.75551
-4.75875
-4.76255
-4.76693
-4.77184
-4.77726
-4.78314
-4.78943
-4.79607
-4.80301
-4.81019
-4.81753
-4.82497
-4.83245
-4.83988
-4.84722
-4.8544
-4.86138
-4.86811
-4.88056
-4.88123
-4.88231
-4.88407
-4.8862
-4.88892
-4.89209
-4.89574
-4.89982
-4.90432
-4.90918
-4.91436
-4.91982
-4.92551
-4.93136
-4.93734
-4.94337
-4.94941
-4.95541
-4.96131
-4.96708
-4.97269
-4.9781
-5.01183
-5.01233
-5.01326
-5.01473
-5.01647
-5.0187
-5.02128
-5.02426
-5.02758
-5.03122
-5.03514
-5.03932
-5.0437
-5.04825
-5.05292
-5.05766
-5.06244
-5.0672
-5.07191
-5.07654
-5.08105
-5.08543
-5.08965
-5.14273
-5.14305
-5.14384
-5.14503
-5.14641
-5.14819
-5.15022
-5.15257
-5.15518
-5.15803
-5.1611
-5.16435
-5.16776
-5.17128
-5.17488
-5.17852
-5.18218
-5.18581
-5.18939
-5.19289
-5.1963
-5.1996
-5.20278
-5.27335
-5.27346
-5.27413
-5.27505
-5.27609
-5.27744
-5.27896
-5.28073
-5.28269
-5.28482
-5.2871
-5.28951
-5.29203
-5.29463
-5.29727
-5.29994
-5.3026
-5.30524
-5.30782
-5.31035
-5.31279
-5.31515
-5.31745
-5.40375
-5.40367
-5.40423
-5.40488
-5.40559
-5.40654
-5.40759
-5.40882
-5.41016
-5.41163
-5.41319
-5.41484
-5.41655
-5.41832
-5.42011
-5.4219
-5.42369
-5.42545
-5.42716
-5.42884
-5.43045
-5.43201
-5.43353
-5.53395
-5.53375
-5.5342
-5.53457
-5.53498
-5.53554
-5.53615
-5.53687
-5.53764
-5.53849
-5.53939
-5.54033
-5.54132
-5.54232
-5.54334
-5.54435
-5.54536
-5.54634
-5.5473
-5.54823
-5.54912
-5.54998
-5.55083
-5.66425
-5.66389
-5.66409
-5.6642
-5.66434
-5.66454
-5.66473
-5.66497
-5.66521
-5.66548
-5.66577
-5.66607
-5.66637
-5.66668
-5.667
-5.6673
-5.66761
-5.6679
-5.66818
-5.66846
-5.66872
-5.66897
-5.66923
308.412
305.053
304.933
309.004
164.713
159.407
152.603
144.836
55.9671
54.5417
50.4657
45.1287
26.5477
25.0897
24.1147
23.6101
24.938
23.8775
23.1414
22.5871
23.3541
23.1578
22.8423
22.5583
20.4082
23.0936
23.7596
23.572
16.7559
21.8253
24.8491
24.7029
5.78752
13.2676
20.6953
24.6011
0.168866
3.48966
9.93347
12.8423
1.78228
10.8556
23.9686
34.2779
0.691813
9.85963
28.8355
47.0669
-2.13163
0.314219
6.5717
16.1266
-3.16548
-3.25913
-3.45806
-2.28336
-3.5081
-3.4573
-3.4674
-3.70646
-3.53592
-3.57317
-3.65555
-3.77881
-3.70554
-3.88294
-4.02046
-4.16256
-4.14512
-4.34688
-4.49898
-4.59939
-4.91438
-5.29959
-5.45354
-5.49865
-5.22242
-5.66603
-5.96943
-6.1973
-4.80181
-5.02431
-5.24048
-5.43721
-4.35874
-4.49826
-4.615
-4.68891
-4.09369
-4.15883
-4.20855
-4.23683
-4.01408
-4.04644
-4.07213
-4.08943
-4.01733
-4.03746
-4.05366
-4.06509
-4.05333
-4.06745
-4.07943
-4.08881
-4.11194
-4.12291
-4.13262
-4.14082
-4.18584
-4.19476
-4.2029
-4.2101
-4.26961
-4.27711
-4.28413
-4.29059
-4.36047
-4.36692
-4.37305
-4.37881
-4.45662
-4.4622
-4.46757
-4.47268
-4.55674
-4.56157
-4.56626
-4.57076
-4.65988
-4.66404
-4.66809
-4.67201
-4.76539
-4.76891
-4.77236
-4.7757
-4.87279
-4.87571
-4.87857
-4.88135
-4.98187
-4.98422
-4.98652
-4.98876
-5.09259
-5.09443
-5.09623
-5.09798
-5.205
-5.20639
-5.20775
-5.20908
-5.31905
-5.32006
-5.32105
-5.32203
-5.43461
-5.43528
-5.43595
-5.43663
-5.55142
-5.5518
-5.55219
-5.55259
-5.66941
-5.66952
-5.66964
-5.66977
316.899
252.991
219.754
241.863
378.876
539.63
418.452
323.86
307.402
316.062
330.069
325.858
359.791
349.3
323.593
281.231
359.327
478.12
538.234
136.036
109.369
121.756
122.848
171.847
329.717
314.281
288.623
290.192
294.344
293.782
263.049
245.696
224.276
152.387
142.064
224.091
300.054
404.108
36.3262
28.9771
48.1841
80.83
119.366
236.233
273.156
267.983
273.214
269.586
265.714
231.491
221.234
198.82
144.9
129.065
185.23
186.169
289.468
23.5332
24.3858
27.181
33.2705
71.1484
178.194
252.017
255.359
257.345
253.605
245.021
211.4
211.793
194.496
174.544
195.113
230.445
197.494
224.214
22.0893
23.0769
23.1082
22.9026
27.3454
110.664
230.513
245.262
236.439
233.17
217.151
190.535
192.289
184.561
199.868
256.037
292.527
268.97
245.807
22.428
23.2755
23.8887
23.3952
22.9009
65.1107
193.013
231.921
187.945
196.096
165.29
150.267
152.377
151.499
182.859
257.466
298.804
282.552
251.363
23.3879
24.2932
25.3996
25.4993
25.206
32.2051
128.439
181.566
107.36
135.42
69.4747
65.3687
72.8398
86.9734
117.564
179.323
233.379
225.548
189.077
24.5348
25.3098
26.3922
26.7061
27.1409
27.979
82.8514
112.967
31.1581
23.6558
5.37903
5.56075
22.8289
24.1822
29.3707
58.0802
125.636
143.202
98.4524
25.6223
25.5706
26.4233
27.049
25.6302
26.5454
65.3141
89.8223
24.1948
2.40969
1.24406
0.783148
1.09121
0.759493
1.2288
3.58804
9.44972
24.8198
39.8361
18.9752
25.6304
26.8951
18.1385
13.6924
22.744
48.8315
60.8955
34.9043
6.09593
1.71388
0.976692
0.892702
0.30614
0.199488
0.496733
1.89532
7.73506
55.8947
46.7565
32.1953
27.2124
38.0178
48.0319
44.7243
42.3996
27.9215
19.8415
7.93975
-1.15157
0.326417
-0.0151481
-0.28444
-0.398281
-0.402044
0.057573
2.66487
7.5222
83.06
145.858
135.309
76.4462
42.6248
35.8113
29.3643
21.3131
15.5851
12.8365
6.00713
-0.665186
-0.82283
-0.802001
-0.918099
-1.06517
-1.09934
0.222039
2.74336
42.8752
87.1944
107.556
80.1156
46.7074
34.7317
27.3543
21.5125
18.9289
15.8258
1.68637
-1.99462
-1.25574
-1.15087
-1.20486
-1.42977
-1.56747
-0.835755
1.13729
5.33366
19.902
52.6771
57.6117
43.2865
21.6769
14.005
12.2264
9.07988
5.0086
-5.69396
-2.70753
-1.55091
-1.60348
-1.53372
-1.74087
-1.69562
-1.08959
0.79076
-4.57581
-3.26373
10.1007
17.0103
18.1878
21.9583
19.939
10.4433
-1.10157
-3.39028
-5.24805
-3.25612
-2.12318
-2.20337
-2.04019
-2.12543
-1.94334
-1.41331
-0.174818
-3.95644
-3.71526
-3.55364
-3.34176
-3.10591
-2.88353
-3.59748
-3.96674
-3.81162
-4.63409
-4.79368
-3.85195
-3.00726
-2.7951
-2.59534
-2.56836
-2.435
-2.95338
0.836918
-4.28349
-4.07248
-3.76368
-3.53593
-3.46922
-3.55117
-3.72411
-3.85284
-4.0652
-4.29541
-4.41143
-4.2348
-3.77348
-3.28706
-3.03056
-2.93568
-2.76172
-3.58019
-1.1862
-4.7283
-4.5044
-4.02437
-3.65897
-3.5033
-3.47789
-3.54348
-3.69415
-3.84514
-4.03032
-4.25963
-4.3698
-4.18207
-3.61645
-3.29534
-3.16786
-2.89613
-3.22965
3.51584
-5.4458
-4.95317
-4.26914
-3.76197
-3.51661
-3.40109
-3.36732
-3.4185
-3.59909
-3.8818
-4.2209
-4.39248
-4.23175
-3.77966
-3.46387
-3.35563
-3.12162
-3.38014
-0.866795
-6.10861
-5.11088
-4.32226
-3.7886
-3.54606
-3.41823
-3.35178
-3.36669
-3.53032
-3.83975
-4.17014
-4.30678
-4.14367
-3.82461
-3.60247
-3.56151
-3.56301
-3.92303
-2.74127
-5.43913
-4.86408
-4.21472
-3.79367
-3.60301
-3.5123
-3.46629
-3.47263
-3.59069
-3.8238
-4.0519
-4.13638
-4.03418
-3.85462
-3.74624
-3.79291
-3.9473
-4.29929
-4.21789
-4.70129
-4.44801
-4.07954
-3.81666
-3.68788
-3.62771
-3.60091
-3.61441
-3.68602
-3.81608
-3.95826
-4.03102
-4.00758
-3.93461
-3.91014
-4.00483
-4.15658
-4.37479
-4.33313
-4.25921
-4.1888
-4.01629
-3.86842
-3.78714
-3.74907
-3.73578
-3.74745
-3.79205
-3.8743
-3.97301
-4.04298
-4.06284
-4.05253
-4.09177
-4.27594
-4.43659
-4.56484
-4.46114
-4.1105
-4.08491
-4.01211
-3.93523
-3.8862
-3.86317
-3.858
-3.87046
-3.90515
-3.96464
-4.03814
-4.10124
-4.14224
-4.17289
-4.26025
-4.54062
-4.86824
-4.81978
-4.54025
-4.07853
-4.07345
-4.04428
-4.00652
-3.97924
-3.96685
-3.967
-3.9798
-4.00838
-4.05466
-4.11329
-4.17123
-4.22269
-4.27591
-4.37701
-4.67005
-5.09694
-4.95834
-4.70004
-4.10109
-4.10556
-4.09633
-4.08004
-4.0669
-4.06175
-4.06516
-4.07821
-4.10388
-4.14347
-4.19327
-4.24562
-4.29633
-4.35022
-4.41834
-4.61744
-4.82544
-4.7849
-4.12911
-4.15236
-4.16077
-4.1612
-4.15644
-4.15182
-4.15108
-4.15595
-4.1688
-4.19319
-4.22932
-4.27311
-4.31938
-4.36185
-4.40176
-4.42023
-4.48271
-4.51666
-4.4869
-3.89498
-4.22073
-4.23028
-4.2356
-4.23678
-4.23681
-4.23824
-4.2431
-4.25527
-4.27891
-4.31244
-4.35111
-4.39108
-4.42152
-4.44161
-4.41836
-4.37124
-4.30721
-4.2206
-4.05687
-4.30053
-4.31143
-4.31784
-4.32173
-4.32416
-4.32648
-4.3306
-4.3416
-4.36363
-4.39343
-4.42637
-4.45934
-4.47717
-4.4773
-4.4131
-4.30097
-4.20773
-4.1267
-4.06666
-4.38786
-4.3983
-4.40584
-4.41129
-4.41525
-4.41833
-4.42206
-4.43147
-4.44998
-4.47394
-4.49927
-4.52334
-4.53055
-4.51877
-4.44237
-4.30845
-4.21145
-4.15106
-4.11547
-4.48082
-4.49061
-4.49853
-4.50495
-4.51018
-4.51455
-4.51904
-4.52696
-4.54047
-4.55675
-4.57233
-4.58555
-4.58295
-4.56293
-4.48703
-4.37482
-4.29701
-4.24559
-4.2097
-4.578
-4.58702
-4.59481
-4.60164
-4.60776
-4.61351
-4.61945
-4.62661
-4.63565
-4.64466
-4.65133
-4.65462
-4.64456
-4.62033
-4.55586
-4.47922
-4.41903
-4.37164
-4.33611
-4.67835
-4.68646
-4.69372
-4.70033
-4.70646
-4.71258
-4.7191
-4.72589
-4.73241
-4.73725
-4.73895
-4.73689
-4.72475
-4.69895
-4.65161
-4.59786
-4.54877
-4.50821
-4.47754
-4.78112
-4.78816
-4.79459
-4.8005
-4.8059
-4.81114
-4.81669
-4.82243
-4.82764
-4.83115
-4.83145
-4.82768
-4.81592
-4.79343
-4.7578
-4.71684
-4.67905
-4.64799
-4.62465
-4.88586
-4.89178
-4.89719
-4.9022
-4.90668
-4.91076
-4.91488
-4.91915
-4.92317
-4.92635
-4.92722
-4.9237
-4.91295
-4.8943
-4.86712
-4.83744
-4.81073
-4.78862
-4.77306
-4.99238
-4.99711
-5.00166
-5.00586
-5.00965
-5.01308
-5.01654
-5.01999
-5.02314
-5.02622
-5.02821
-5.02608
-5.01714
-5.00267
-4.98264
-4.96215
-4.94389
-4.92903
-4.92029
-5.10082
-5.10465
-5.10839
-5.11202
-5.11545
-5.11876
-5.12231
-5.12577
-5.12881
-5.13211
-5.13503
-5.13431
-5.12778
-5.1176
-5.10359
-5.09007
-5.07808
-5.0687
-5.06468
-5.21128
-5.21437
-5.21755
-5.22083
-5.22418
-5.22765
-5.23159
-5.23541
-5.23888
-5.2428
-5.2465
-5.24706
-5.24326
-5.23709
-5.22834
-5.22032
-5.21302
-5.20761
-5.20595
-5.32368
-5.32619
-5.32894
-5.332
-5.33541
-5.33915
-5.34351
-5.3479
-5.35223
-5.35706
-5.36158
-5.36359
-5.36266
-5.36006
-5.35579
-5.35203
-5.34826
-5.34579
-5.34503
-5.43782
-5.43977
-5.44214
-5.44505
-5.44857
-5.45269
-5.45753
-5.46267
-5.46809
-5.47398
-5.47948
-5.48316
-5.48495
-5.48544
-5.48487
-5.48441
-5.48342
-5.48316
-5.48289
-5.55331
-5.55469
-5.55668
-5.55947
-5.56313
-5.56767
-5.57309
-5.57914
-5.58576
-5.59279
-5.59942
-5.60486
-5.60913
-5.61251
-5.61525
-5.61773
-5.61931
-5.62087
-5.62115
-5.67002
-5.6707
-5.6722
-5.67481
-5.67856
-5.68357
-5.68972
-5.69689
-5.70497
-5.71333
-5.72118
-5.7282
-5.73491
-5.74139
-5.74772
-5.75377
-5.75817
-5.76206
-5.76234
)
;

boundaryField
{
    leftWall
    {
        type            calculated;
        value           nonuniform List<scalar> 
50
(
529.498
470.108
408.844
346.311
283.386
220.543
157.753
94.6314
33.5804
5.89967
1.2641
0.600792
0.142398
-0.18354
-0.416023
-0.587798
-0.771507
-0.96119
-1.13601
-1.307
-1.48128
-1.65505
-1.82556
-1.99306
-2.15768
-2.31941
-2.47836
-2.63467
-2.78843
-2.93977
-3.08881
-3.23569
-3.38055
-3.52352
-3.66475
-3.80439
-3.94258
-4.07945
-4.21515
-4.34981
-4.48355
-4.61652
-4.74882
-4.88056
-5.01183
-5.14273
-5.27335
-5.40375
-5.53395
-5.66425
)
;
    }
    rightWall
    {
        type            calculated;
        value           nonuniform List<scalar> 
50
(
754.772
688.311
606.023
556.737
552.973
552.318
550.497
549.958
538.234
404.108
289.468
224.214
245.807
251.363
189.077
98.4524
39.8361
55.8947
7.5222
2.74336
1.13729
0.79076
-0.174818
0.836918
-1.1862
3.51584
-0.866795
-2.74127
-4.21789
-4.33313
-4.46114
-4.54025
-4.70004
-4.12911
-3.89498
-4.05687
-4.06666
-4.11547
-4.2097
-4.33611
-4.47754
-4.62465
-4.77306
-4.92029
-5.06468
-5.20595
-5.34503
-5.48289
-5.62115
-5.76234
)
;
    }
    lowerWall
    {
        type            calculated;
        value           nonuniform List<scalar> 
62
(
558.928
558.604
559.841
563.228
570.814
585.205
606.343
629.994
652.424
673.729
694.658
715.547
736.433
757.067
776.708
794.698
809.997
817.131
819.048
822.961
834.789
860.329
874.8
845.387
781.763
717.902
655.359
593.677
532.43
472.764
413.625
371.009
367.651
367.531
371.601
862.458
805.924
725.753
629.901
544.074
481.391
436.591
396.15
889.104
790.936
769.28
834.018
925.636
950.641
851.907
850.56
948.255
963.807
934.632
1072.01
1412.48
1624.67
1435.08
1061.76
829.823
763.156
783.068
)
;
    }
    atmosphere
    {
        type            calculated;
        value           nonuniform List<scalar> 
46
(
-5.72904
-5.72904
-5.72904
-5.72904
-5.72904
-5.72904
-5.72904
-5.72904
-5.72904
-5.72904
-5.72904
-5.72904
-5.72904
-5.72904
-5.72904
-5.72904
-5.72904
-5.72904
-5.72904
-5.72904
-5.72904
-5.72904
-5.72904
-5.72904
-5.72904
-5.72904
-5.72904
-5.72904
-5.7292
-5.73038
-5.73288
-5.73661
-5.74194
-5.74846
-5.75624
-5.76521
-5.77434
-5.78268
-5.79025
-5.79834
-5.80665
-5.81529
-5.82401
-5.82993
-5.83613
-5.83531
)
;
    }
    defaultFaces
    {
        type            empty;
    }
}


// ************************************************************************* //
