/*--------------------------------*- C++ -*----------------------------------*\
| =========                 |                                                 |
| \\      /  F ield         | OpenFOAM: The Open Source CFD Toolbox           |
|  \\    /   O peration     | Version:  5.x                                   |
|   \\  /    A nd           | Web:      www.OpenFOAM.org                      |
|    \\/     M anipulation  |                                                 |
\*---------------------------------------------------------------------------*/
FoamFile
{
    version     2.0;
    format      ascii;
    class       volScalarField;
    location    "0.75";
    object      p_rgh;
}
// * * * * * * * * * * * * * * * * * * * * * * * * * * * * * * * * * * * * * //

dimensions      [1 -1 -2 0 0 0 0];

internalField   nonuniform List<scalar> 
2268
(
558.928
558.604
559.841
563.228
570.814
585.205
606.343
629.994
652.424
673.729
694.658
715.547
736.433
757.067
776.708
794.698
809.997
817.131
819.048
822.961
834.789
860.329
874.8
558.396
557.53
558.611
561.79
568.862
583.401
605.305
629.611
652.358
673.729
694.691
715.609
736.521
757.274
777.134
795.305
811.627
818.783
818.411
820.022
827.616
850.748
870.051
555.99
554.771
556.075
559.182
565.571
580.062
603.037
628.778
652.256
673.762
694.678
715.543
736.444
757.274
777.478
796.221
813.445
826.201
823.647
814.816
820.634
840.82
865.049
552.316
550.83
552.424
555.293
560.681
575.038
599.858
627.888
652.397
673.978
694.744
715.525
736.458
757.493
778.169
797.59
815.141
829.033
833.049
825.958
823.858
845.17
861.331
548.25
546.254
547.933
550.546
555.401
570.487
597.633
627.872
653.076
674.473
694.945
715.569
736.517
757.849
779.193
799.484
817.627
831.9
838.306
838.188
838.523
848.513
858.541
544.266
541.405
542.883
545.433
550.69
567.125
597.317
628.902
654.13
675.174
695.25
715.613
736.505
758.176
780.389
801.814
820.876
835.851
844.685
845.545
848.023
850.101
856.153
540.335
537.11
537.511
540.45
548.046
567.396
597.913
629.958
654.763
675.61
695.513
715.695
736.445
758.442
781.731
804.538
824.676
840.146
849.293
851.333
852.129
851.176
855.345
536.072
532.025
521.804
517.398
517.467
533.116
572.73
628.553
654.99
675.767
695.564
715.556
736.021
758.326
783.058
807.701
829.219
845.163
854.222
856.296
855.148
851.307
855.066
889.104
790.936
769.28
834.018
925.636
950.641
851.907
850.56
948.255
963.807
934.632
1072.01
1412.48
1624.67
1435.08
1061.76
829.823
763.156
783.068
887
758.302
739.382
819.163
912.712
928.167
818.926
845.675
948.63
900.528
810.911
975.036
1389.41
1628.74
1429.62
983.927
745.128
716.495
776.599
867.862
710.677
704.547
804.33
906.365
903.001
775.229
820.298
875.274
691.012
636.59
862.988
1272.2
1524.71
1264.46
883.3
695.215
628.988
739.165
835.906
663.48
667.153
794.635
920.352
910.686
786.907
786.034
693.508
498.874
561.257
785.036
1219.65
1478.17
1241.09
860.111
640.085
556.622
602.871
808.938
637.603
613.149
788.777
955.877
963.63
843.344
709.386
461.935
423.659
505.074
713.439
1122.72
1283.19
1115.59
853.336
583.714
529.822
553.512
805.114
589.243
597.768
797.912
998.307
1048.13
914.709
610.088
378.196
380.971
452.083
742.193
1001.74
1101.1
987.536
768.262
559.728
517.131
552.642
819.173
567.874
622.675
838.714
1029.86
1115.93
898.304
401.554
348.835
358.755
407.775
724.334
898.822
955.886
882.88
709.514
537.803
511.017
550.88
746.887
598.592
697.358
832.576
1007.36
1133.71
808.318
367.873
331.79
343.507
377.253
679.647
808.312
835.976
793.017
680.87
520.541
510.903
550.465
252.299
236.803
226.85
235.088
281.442
373.961
484.859
578.546
639.125
674.533
695.238
715.171
734.938
757.328
784.97
813.316
837.429
854.232
863.274
864.381
859.228
849.472
845.394
44.3853
25.7556
39.3555
53.431
70.9346
106.193
169.289
249.753
340.031
433.057
527.292
606.953
655.818
697.751
761.923
816.562
849.3
861.518
869.148
879.689
870.625
843.99
825.615
2.04741
1.79264
1.42198
1.09615
0.940848
0.992263
1.04683
1.01
1.04421
15.2491
61.2841
119.983
170.907
221.337
340.735
478.378
555.663
607.289
695.317
714.64
614.149
472.808
394.138
1.50974
1.29095
1.07768
0.89627
0.827123
0.848387
0.883005
0.883357
0.764867
0.416461
-0.0423478
-0.151005
0.159246
3.58604
59.6802
319.888
528.257
565.861
436.579
187.161
90.7779
51.8755
33.2089
1.17663
0.929679
0.796767
0.703211
0.710389
0.737277
0.730549
0.663531
0.50735
0.303554
0.22008
0.285754
0.504626
0.915246
6.05265
11.5945
13.9988
19.8333
34.9656
134.653
214.612
79.9666
38.1202
0.975899
0.673031
0.619138
0.582212
0.63256
0.672501
0.674656
0.63245
0.548782
0.445717
0.386363
0.440873
0.643821
0.859497
0.999309
1.19488
1.39338
2.2262
15.2112
162.394
235.125
245.289
189.967
0.868612
0.612287
0.559218
0.550913
0.603887
0.640662
0.642669
0.616587
0.573273
0.53092
0.515347
0.570395
0.698373
0.841569
0.964585
1.09085
1.15372
1.21929
2.06291
24.917
205.87
272.801
291.797
0.82203
0.697958
0.626552
0.601314
0.620573
0.634325
0.626644
0.604207
0.575544
0.555361
0.55892
0.600515
0.672028
0.758163
0.835395
0.904713
0.952505
0.976649
1.11845
2.16577
33.3046
251.836
335.178
0.763516
0.753559
0.707173
0.661959
0.643265
0.630698
0.612998
0.592312
0.570258
0.55713
0.560364
0.585317
0.628767
0.679568
0.727837
0.769061
0.794629
0.803704
0.828256
1.13206
3.14631
52.716
300.178
0.699028
0.72805
0.706559
0.665996
0.635521
0.611507
0.589417
0.569289
0.551861
0.541311
0.541211
0.554235
0.578114
0.605414
0.629758
0.646623
0.646903
0.620554
0.573405
0.561048
0.938185
3.48871
34.0917
0.649401
0.670521
0.654887
0.627043
0.601373
0.577908
0.556534
0.537744
0.522162
0.511659
0.507646
0.511139
0.520408
0.529161
0.533175
0.528185
0.507729
0.459308
0.381223
0.296966
0.297416
1.13972
6.75799
0.603607
0.61019
0.596903
0.578237
0.55843
0.538258
0.519056
0.501673
0.486541
0.474435
0.465795
0.460637
0.45734
0.451982
0.440274
0.418724
0.382762
0.325179
0.246361
0.165111
0.0967376
0.483861
4.49378
0.554522
0.553866
0.544211
0.53046
0.514334
0.496848
0.479365
0.462608
0.44687
0.432463
0.419335
0.407042
0.393823
0.376776
0.352646
0.318444
0.270888
0.206428
0.125227
0.0325306
-0.0888228
-0.0143603
1.15855
0.505949
0.503695
0.495781
0.4845
0.470678
0.455029
0.438582
0.421826
0.405002
0.388167
0.371002
0.352672
0.331524
0.305204
0.271045
0.226598
0.169408
0.0971686
0.00929704
-0.0804697
-0.037362
-0.109119
1.30087
0.460629
0.457893
0.45074
0.440824
0.428408
0.413905
0.398012
0.381016
0.363051
0.343956
0.323215
0.299914
0.272482
0.238911
0.196807
0.143918
0.0781464
-0.00292626
-0.101338
-0.194486
-0.21717
-0.00901332
2.29318
0.418322
0.415406
0.408896
0.399803
0.388217
0.37437
0.358711
0.341366
0.32233
0.301311
0.277705
0.250532
0.218421
0.179509
0.131517
0.0721483
-0.00064314
-0.0897427
-0.199189
-0.309636
-0.51349
-0.662216
2.38305
0.378902
0.376047
0.370023
0.361441
0.350354
0.336883
0.321291
0.303588
0.283673
0.261197
0.235527
0.205675
0.170318
0.128008
0.0763434
0.0129971
-0.0640553
-0.157184
-0.272861
-0.410062
-0.592253
-0.869795
0.439007
0.342367
0.339635
0.333935
0.325703
0.314952
0.301736
0.286184
0.268238
0.247739
0.22432
0.197368
0.165975
0.128941
0.0847743
0.0315609
-0.0329511
-0.111358
-0.202546
-0.317527
-0.458902
-0.593371
-0.86438
1.31713
0.308604
0.305984
0.300539
0.292592
0.282122
0.269146
0.253704
0.235698
0.214944
0.191084
0.163559
0.131575
0.0940573
0.0496756
-0.00313193
-0.0661711
-0.141388
-0.230312
-0.3382
-0.474509
-0.407747
-0.421344
0.529788
0.277496
0.274965
0.269763
0.262087
0.251906
0.239217
0.224003
0.20615
0.185469
0.161636
0.134169
0.102392
0.0653959
0.0220523
-0.0289394
-0.089069
-0.160092
-0.244213
-0.346158
-0.476535
-0.445334
-0.427461
-0.72081
0.24893
0.246479
0.241521
0.234127
0.224277
0.211956
0.197113
0.179632
0.159339
0.135954
0.109079
0.0781591
0.0424609
0.00107808
-0.0470539
-0.103193
-0.168921
-0.246505
-0.340173
-0.458324
-0.581685
-0.803208
-1.29257
0.222785
0.220418
0.215712
0.208624
0.199162
0.187299
0.172971
0.156071
0.136444
0.113865
0.0880166
0.0584669
0.0246527
-0.0141108
-0.0586371
-0.109906
-0.169135
-0.237991
-0.319178
-0.416948
-0.541707
-0.713151
-0.966802
0.198934
0.196663
0.192219
0.185469
0.176455
0.165137
0.151454
0.135314
0.11659
0.0951036
0.070614
0.0428078
0.0112857
-0.0244355
-0.0649171
-0.110811
-0.162855
-0.221935
-0.289236
-0.366294
-0.45604
-0.563699
-0.697195
0.177246
0.175086
0.170914
0.164534
0.15602
0.145324
0.132394
0.117154
0.0995092
0.0793297
0.0564402
0.0306277
0.00163286
-0.0308506
-0.0671613
-0.107672
-0.152742
-0.202736
-0.258022
-0.319127
-0.386628
-0.461252
-0.542933
0.157585
0.155547
0.151654
0.145671
0.137698
0.127682
0.115586
0.101354
0.0849152
0.066181
0.0450382
0.0213572
-0.00501525
-0.0342485
-0.0665098
-0.101974
-0.140771
-0.182998
-0.228667
-0.277843
-0.330363
-0.385572
-0.441969
0.139808
0.137903
0.134293
0.128727
0.121325
0.112028
0.100819
0.0876568
0.0724985
0.0552873
0.0359608
0.0144536
-0.00930703
-0.0353911
-0.0638534
-0.0947319
-0.12802
-0.163657
-0.201469
-0.241212
-0.282378
-0.323934
-0.364407
0.12377
0.122007
0.118679
0.11354
0.106725
0.0981692
0.0878726
0.0758115
0.0619632
0.0462986
0.0287958
0.0094352
-0.0117979
-0.034904
-0.0598672
-0.0866375
-0.115122
-0.145165
-0.176509
-0.208785
-0.241425
-0.273513
-0.304063
0.109326
0.107705
0.104661
0.0999528
0.0937296
0.085919
0.0765388
0.0655803
0.053035
0.0388987
0.0231789
0.00588855
-0.0129484
-0.0332887
-0.0550728
-0.0782011
-0.102534
-0.127881
-0.153974
-0.180455
-0.206848
-0.23246
-0.256641
0.0963342
0.0948468
0.092086
0.0878078
0.0821682
0.0750942
0.0666169
0.0567391
0.0454644
0.0328094
0.0187996
0.00346937
-0.013132
-0.0309358
-0.0498589
-0.0697824
-0.090551
-0.111975
-0.133808
-0.155745
-0.177413
-0.198297
-0.217958
0.0846545
0.0832858
0.0808086
0.0769493
0.0718803
0.0655231
0.0579232
0.0490887
0.0390358
0.0277944
0.0154007
0.00190265
-0.0126371
-0.0281371
-0.0445041
-0.0616166
-0.0793234
-0.0974507
-0.115788
-0.134083
-0.15205
-0.169325
-0.185625
0.0741512
0.0728808
0.0706899
0.0672302
0.0627152
0.0570479
0.0502904
0.0424531
0.0335619
0.0236537
0.0127706
0.000968788
-0.0116834
-0.0251023
-0.0391932
-0.0538404
-0.0689077
-0.0842433
-0.099673
-0.114998
-0.130006
-0.144449
-0.158146
0.0646903
0.063505
0.0615948
0.0585111
0.0545291
0.0495204
0.0435656
0.0366752
0.0288799
0.0202197
0.0107397
0.000499281
-0.0104329
-0.0219766
-0.0340412
-0.046522
-0.0593012
-0.072251
-0.0852305
-0.0980872
-0.110668
-0.122805
-0.134381
0.0561375
0.0550463
0.0533922
0.0506628
0.0471893
0.0428049
0.0376113
0.0316147
0.024847
0.0173491
0.00916732
0.000360406
-0.00900692
-0.0188607
-0.0291176
-0.0396855
-0.0504654
-0.0613516
-0.0722319
-0.0829921
-0.0935235
-0.103714
-0.113484
0.0483655
0.0473933
0.0459584
0.0435671
0.040574
0.0367783
0.032304
0.0271455
0.0213368
0.0149181
0.00793517
0.000443149
-0.00749943
-0.0158261
-0.0244628
-0.0333299
-0.0423448
-0.0514214
-0.0604726
-0.0694148
-0.0781708
-0.0866649
-0.0948408
0.0412597
0.0404293
0.0391817
0.037115
0.0345721
0.0313297
0.0275315
0.0231544
0.0182378
0.0128196
0.00694242
0.000655988
-0.0059881
-0.0129309
-0.0201078
-0.0274514
-0.0348931
-0.0423644
-0.0497991
-0.0571365
-0.0643206
-0.0712986
-0.0780299
0.034716
0.0340431
0.0329618
0.0312044
0.0290796
0.0263565
0.0231904
0.0195392
0.0154511
0.0109588
0.00609943
0.000916968
-0.00454353
-0.0102306
-0.0160889
-0.0220625
-0.028096
-0.0341351
-0.0401295
-0.0460342
-0.051808
-0.0574145
-0.0628265
0.0286365
0.0281363
0.027206
0.0257405
0.0240023
0.0217659
0.0191883
0.0162107
0.0128912
0.00925325
0.00532837
0.00115502
-0.0032277
-0.0077764
-0.0124456
-0.0171901
-0.0219658
-0.0267292
-0.0314408
-0.0360679
-0.0405813
-0.0449578
-0.0491826
0.0229302
0.0226161
0.0218247
0.0206361
0.0192574
0.0174772
0.0154469
0.013095
0.0104866
0.00763404
0.004565
0.00131267
-0.0020909
-0.00561107
-0.00921235
-0.0128592
-0.0165162
-0.0201486
-0.0237266
-0.0272283
-0.0306342
-0.0339304
-0.0371149
0.0175117
0.0173993
0.016726
0.0158077
0.0147676
0.0134159
0.0118954
0.0101243
0.00817297
0.00604214
0.00375733
0.00134495
-0.00117199
-0.00376694
-0.00641258
-0.00908152
-0.0117457
-0.0143807
-0.0169658
-0.0194874
-0.0219325
-0.0242948
-0.0265869
0.0123007
0.0123868
0.0118239
0.0111779
0.0104587
0.00951116
0.00846552
0.00723389
0.00589116
0.00442579
0.00286093
0.00121361
-0.000501186
-0.00226337
-0.00405174
-0.00584792
-0.00763279
-0.00939175
-0.0111107
-0.0127819
-0.0143977
-0.0159585
-0.0174804
0.00729493
0.00750126
0.00704444
0.00668122
0.00626377
0.00570403
0.00510249
0.00438009
0.0036064
0.00275963
0.00185964
0.000914142
-6.7432e-05
-0.00107247
-0.0020882
-0.00310437
-0.00410993
-0.00509462
-0.00605163
-0.00697872
-0.00787179
-0.00873468
-0.0095802
0.00219693
0.0025557
0.00234939
0.00224213
0.00210315
0.00190639
0.0017168
0.00147502
0.00123057
0.000958406
0.000673713
0.000375853
6.92991e-05
-0.000241702
-0.00055309
-0.000861479
-0.00116427
-0.00145752
-0.00174087
-0.0020143
-0.0022763
-0.00252918
-0.00278339
841.879
838.521
838.401
842.471
816.856
812.752
803.952
791.049
385.534
395.686
364.909
309.889
28.4299
26.8849
25.8854
25.3758
27.3447
26.0189
25.1839
24.6017
27.7358
26.1617
25.2526
24.8529
215.175
52.6396
27.3323
26.2798
378.12
337.208
107.441
34.0175
436.824
501.706
486.079
133.299
373.122
611.041
655.017
661.226
154.757
605.901
722.573
739.909
158.306
634.964
783.945
802.676
5.12387
267.261
736.872
825.431
0.423171
-0.546219
-0.735093
91.0519
0.180646
-0.945703
-1.17386
-1.42782
3.65912
-1.15404
-1.24034
-1.36416
11.0334
5.64149
-1.48049
-1.62306
11.5581
11.31
3.56429
-1.93401
11.4881
11.1422
10.9397
8.37552
1.78004
7.57251
10.9798
10.6222
-1.72056
-1.61108
-0.787354
2.67804
-1.19147
-1.32747
-1.44303
-1.51783
-0.805569
-0.870458
-0.920155
-0.948603
-0.601102
-0.633467
-0.659154
-0.676468
-0.479195
-0.499327
-0.515523
-0.526956
-0.39
-0.404124
-0.416095
-0.425478
-0.323418
-0.334383
-0.344099
-0.352295
-0.272119
-0.28104
-0.289176
-0.296379
-0.230697
-0.238197
-0.245221
-0.251675
-0.196366
-0.202809
-0.208947
-0.214704
-0.167318
-0.172896
-0.178269
-0.183377
-0.14224
-0.147068
-0.151758
-0.156259
-0.120191
-0.124345
-0.128401
-0.13232
-0.1005
-0.104025
-0.107473
-0.110815
-0.0827096
-0.0856313
-0.0884896
-0.0912655
-0.0665924
-0.0689459
-0.0712475
-0.0734827
-0.0521231
-0.0539613
-0.0557594
-0.0575059
-0.0393355
-0.0407228
-0.0420858
-0.0434149
-0.0281929
-0.0291978
-0.0301919
-0.0311728
-0.0185542
-0.0192262
-0.0198995
-0.0205808
-0.0101766
-0.010553
-0.0109392
-0.0113384
-0.0029644
-0.0030789
-0.0031998
-0.00332923
764.809
750.345
719.835
692.459
843.73
1054.53
659.015
331.746
315.231
324.387
455.896
662.842
696.694
667.413
667.513
629.125
445.772
485.279
695.983
765.136
706.793
584.92
497.096
768.777
941.206
517.791
296.929
299.333
306.624
676.258
675.929
462.697
324.438
397.946
522.566
306.042
336.097
891.338
197.637
79.4509
154.655
408.282
821.735
945.001
468.898
277.472
283.099
379.523
724.593
607.103
271.994
249.798
195.811
250.025
248.748
279.349
853.532
25.3014
26.154
31.7131
238.534
818.129
981.544
485.659
266.328
268.757
573.33
776.313
413.906
270.843
253.216
233.987
255.296
290.628
306.712
528.948
24.0974
25.1791
26.3945
92.515
662.304
999.374
549.457
257.743
262.835
726.573
808.059
363.876
259.192
252.863
269.289
324.502
361.981
339.205
499.703
24.7848
25.7638
26.9597
33.8988
413.581
1011.93
665.829
246.861
234.864
793.696
785.037
415.119
353.62
476.462
545.129
478.091
392.103
374.786
1057.36
26.1448
27.117
28.5673
30.4682
82.201
622.458
1049.69
665.626
268.587
776.269
253.841
361.928
788.172
829.873
878.384
943.129
1011.02
1020.01
1382.22
27.6338
28.7421
30.1157
31.0503
35.1184
389.543
1103.55
1126.38
924.035
459.49
7.482
133.866
493.561
545.564
589.391
800.174
1169.37
1497.31
1501.39
32.2022
29.6253
30.5545
32.0035
121.13
997.357
1175.85
1201.65
1127.6
82.9057
3.0244
2.39833
2.65735
2.31186
2.85146
5.60532
23.4443
518.128
1567.74
229.311
30.0987
32.2561
475.575
1094.92
1220.82
1250.51
1169.62
572.338
37.4499
4.00415
2.67057
2.58176
1.97115
1.87193
2.25148
4.0771
15.5116
988.071
744.18
351.117
426.788
1009.86
1062.26
622.977
513.308
218.106
81.9685
194.489
92.5347
2.93636
1.77542
1.50356
1.38804
1.39651
1.94208
7.79709
9.30761
843.094
910.317
573.684
234.81
168.198
84.7188
56.5975
39.2545
33.2793
205.926
197.817
27.9546
1.09797
1.10863
0.99253
0.84617
0.912653
4.4756
4.65397
857.426
901.745
923.51
653.02
396.39
140.239
48.4919
40.3661
37.9267
133.274
162.332
21.3199
0.859242
0.884956
0.830962
0.60598
0.539765
6.20244
18.7995
552.991
882.923
920.363
925.363
911.031
827.129
440.391
138.374
210.495
272.874
121.588
9.29596
0.610074
0.557543
0.627297
0.420114
0.678945
3.90506
40.5608
-2.28627
0.47035
497.966
733.954
767.032
791.923
760.63
510.63
134.627
61.9189
11.9812
-0.655269
0.163038
0.0828464
0.246024
0.160779
0.347671
2.6853
2.11137
-1.54247
-1.30256
-1.14145
-0.929584
-0.693308
10.2695
-1.17623
-1.5333
20.2868
-2.1038
-2.20983
-1.44063
-0.595836
-0.383688
-0.183924
-0.134745
-0.00374374
0.573649
34.8557
-1.74552
-1.53505
-1.22628
-0.998637
-0.93209
-1.01331
-1.18054
-1.30589
-1.51914
-1.73709
-1.84242
-1.69863
-1.23676
-0.750283
-0.493946
-0.255579
-0.162354
-0.837126
851.124
-2.0638
-1.84131
-1.36183
-0.996744
-0.841364
-0.756839
-0.777942
-0.931507
-1.18223
-1.36526
-1.59307
-1.70751
-1.51951
-0.954349
-0.633535
-0.294472
-0.078861
-0.299703
1665.24
-2.48541
-2.14858
-1.4786
-0.974512
-0.729633
-0.612316
-0.549394
-0.596425
-0.812001
-1.09447
-1.43357
-1.60421
-1.44351
-0.992533
-0.676855
-0.275124
5.31285
-0.239047
1052.84
6.39425
-1.80959
-1.39691
-0.87507
-0.633893
-0.506069
-0.439608
-0.454504
-0.618126
-0.927533
-1.25789
-1.39411
-1.2312
-0.912385
-0.690244
0.123202
12.9298
-0.295937
71.3048
1.49677
-1.1118
-1.17667
-0.756253
-0.565656
-0.474941
-0.428918
-0.435254
-0.553308
-0.786408
-1.01445
-1.09892
-0.99653
-0.817097
-0.708813
0.737179
13.2545
0.0333235
-1.18053
-1.53385
-1.28474
-0.916916
-0.654099
-0.525322
-0.465157
-0.438351
-0.451838
-0.523434
-0.653495
-0.795619
-0.867849
-0.843452
-0.771287
-0.747501
1.41743
13.7543
0.149268
-1.17058
-0.964245
-0.89986
-0.728533
-0.580671
-0.499395
-0.461326
-0.448036
-0.459699
-0.504162
-0.586203
-0.683632
-0.753594
-0.77346
-0.763721
-0.803901
1.84988
14.0802
-0.757011
-1.17339
-0.697285
-0.671925
-0.59917
-0.522288
-0.473253
-0.450232
-0.445057
-0.457519
-0.492191
-0.551116
-0.62383
-0.686609
-0.727602
-0.758935
-0.847141
1.75492
13.9501
-1.30169
-1.12731
-0.540389
-0.535317
-0.506142
-0.468385
-0.441099
-0.428715
-0.428866
-0.441661
-0.470244
-0.516525
-0.575152
-0.63259
-0.682798
-0.736874
-0.838675
1.53968
3.06786
-1.33335
35.6679
-0.437757
-0.44223
-0.432999
-0.416711
-0.403567
-0.398422
-0.401828
-0.414873
-0.440536
-0.480136
-0.529937
-0.582282
-0.632016
-0.686228
-0.75476
1.98293
-1.11194
-1.09226
82.0154
-0.363836
-0.372242
-0.372672
-0.367912
-0.363291
-0.36255
-0.367416
-0.380265
-0.404653
-0.440783
-0.484579
-0.530856
-0.573235
-0.612987
-0.631571
1.93844
-0.472966
-0.687485
16.2462
-0.307013
-0.316562
-0.32188
-0.323055
-0.323089
-0.324521
-0.329381
-0.341545
-0.365182
-0.398712
-0.437381
-0.477359
-0.507774
-0.527789
-0.504517
0.0310279
-0.141294
-0.306508
-0.143148
-0.261617
-0.27252
-0.278928
-0.282815
-0.285242
-0.287566
-0.291685
-0.302632
-0.32468
-0.354503
-0.38745
-0.420418
-0.438216
-0.438267
-0.374037
-0.200898
-0.155834
-0.0877732
-0.0277507
-0.223756
-0.234187
-0.241733
-0.247184
-0.251141
-0.25422
-0.257903
-0.266558
-0.285412
-0.309812
-0.334885
-0.359148
-0.363054
-0.354222
-0.278086
-0.144314
-0.0473274
0.013055
0.0486371
-0.19152
-0.20131
-0.209231
-0.215644
-0.220881
-0.225245
-0.229178
-0.236672
-0.250341
-0.26741
-0.281943
-0.278267
-0.237033
-0.244553
-0.196173
-0.0852746
-0.00759927
0.0437206
0.0796039
-0.163503
-0.172521
-0.180315
-0.187147
-0.193259
-0.199017
-0.204341
-0.211101
-0.220145
-0.230102
-0.235572
-0.187187
-0.165428
-0.141204
-0.134754
-0.0645766
-0.00442733
0.043171
0.07839
-0.138662
-0.146764
-0.154025
-0.160636
-0.166765
-0.172886
-0.179404
-0.185391
-0.19198
-0.197394
-0.197742
-0.179374
-0.137356
-0.124815
-0.106343
-0.0581587
-0.00904511
0.0331578
0.0633201
-0.116236
-0.123272
-0.129702
-0.135613
-0.141011
-0.146254
-0.151805
-0.157545
-0.162753
-0.165953
-0.165725
-0.162787
-0.151023
-0.128534
-0.092906
-0.0519404
-0.0140912
0.0191532
0.0436748
-0.0957746
-0.101694
-0.107112
-0.112123
-0.116598
-0.120682
-0.124801
-0.129064
-0.133085
-0.136187
-0.137136
-0.133613
-0.122856
-0.104164
-0.0770097
-0.047351
-0.0193492
0.00370906
0.0174914
-0.0771087
-0.0818392
-0.0863807
-0.0905888
-0.0943697
-0.0978049
-0.101268
-0.104716
-0.107868
-0.11094
-0.112932
-0.110745
-0.101692
-0.0871617
-0.0672403
-0.0468622
-0.0269547
-0.0121714
-0.00501534
-0.0603548
-0.0641762
-0.0679194
-0.0715473
-0.0749809
-0.0782869
-0.0818419
-0.0852976
-0.088335
-0.0916425
-0.0945019
-0.0936041
-0.0870689
-0.0768915
-0.063053
-0.0495927
-0.0373431
-0.028199
-0.0242055
-0.045613
-0.0487102
-0.0518828
-0.055161
-0.0585196
-0.0619822
-0.0659217
-0.0697441
-0.0732158
-0.0771354
-0.0807178
-0.0811616
-0.0773696
-0.0713651
-0.0626773
-0.0546484
-0.0473573
-0.0419442
-0.0402804
-0.0328256
-0.0353326
-0.0380784
-0.041141
-0.0445532
-0.0482947
-0.0526534
-0.0570453
-0.061375
-0.0662045
-0.0706978
-0.0726383
-0.0717936
-0.0692019
-0.0649338
-0.0611619
-0.0573953
-0.0549302
-0.0541747
-0.0217631
-0.0237204
-0.0260851
-0.0289967
-0.032519
-0.0366363
-0.041475
-0.0466134
-0.0520361
-0.0579235
-0.0634234
-0.0671097
-0.0688933
-0.0693856
-0.0688183
-0.0683449
-0.0673658
-0.0671066
-0.0668367
-0.0120589
-0.013445
-0.0154328
-0.0182249
-0.0218847
-0.0264178
-0.0318386
-0.0378893
-0.0445141
-0.0515382
-0.0581746
-0.0636113
-0.0678814
-0.0712632
-0.0739975
-0.0764771
-0.0780659
-0.0796203
-0.0799024
-0.00357449
-0.00425492
-0.00575889
-0.00836558
-0.0121202
-0.0171235
-0.0232798
-0.030448
-0.0385229
-0.0468836
-0.054737
-0.0617602
-0.0684706
-0.0749505
-0.0812764
-0.0873294
-0.0917281
-0.0956187
-0.0958987
)
;

boundaryField
{
    leftWall
    {
        type            fixedFluxPressure;
        gradient        uniform 0;
        value           nonuniform List<scalar> 
50
(
558.928
558.396
555.99
552.316
548.25
544.266
540.335
536.072
252.299
44.3853
2.04741
1.50974
1.17663
0.975899
0.868612
0.82203
0.763516
0.699028
0.649401
0.603607
0.554522
0.505949
0.460629
0.418322
0.378902
0.342367
0.308604
0.277496
0.24893
0.222785
0.198934
0.177246
0.157585
0.139808
0.12377
0.109326
0.0963342
0.0846545
0.0741512
0.0646903
0.0561375
0.0483655
0.0412597
0.034716
0.0286365
0.0229302
0.0175117
0.0123007
0.00729493
0.00219693
)
;
    }
    rightWall
    {
        type            fixedFluxPressure;
        gradient        uniform 0;
        value           nonuniform List<scalar> 
50
(
783.068
776.599
739.165
602.871
553.512
552.642
550.88
550.465
695.983
891.338
853.532
528.948
499.703
1057.36
1382.22
1501.39
1567.74
988.071
9.30761
4.65397
18.7995
40.5608
2.11137
34.8557
851.124
1665.24
1052.84
71.3048
-1.18053
-1.17058
-1.17339
-1.12731
35.6679
82.0154
16.2462
-0.143148
-0.0277507
0.0486371
0.0796039
0.07839
0.0633201
0.0436748
0.0174914
-0.00501534
-0.0242055
-0.0402804
-0.0541747
-0.0668367
-0.0799024
-0.0958987
)
;
    }
    lowerWall
    {
        type            fixedFluxPressure;
        gradient        uniform 0;
        value           nonuniform List<scalar> 
62
(
558.928
558.604
559.841
563.228
570.814
585.205
606.343
629.994
652.424
673.729
694.658
715.547
736.433
757.067
776.708
794.698
809.997
817.131
819.048
822.961
834.789
860.329
874.8
874.8
870.051
865.049
861.331
858.541
856.153
855.345
855.066
841.879
838.521
838.401
842.471
889.104
887
867.862
835.906
808.938
805.114
819.173
746.887
889.104
790.936
769.28
834.018
925.636
950.641
851.907
850.56
948.255
963.807
934.632
1072.01
1412.48
1624.67
1435.08
1061.76
829.823
763.156
783.068
)
;
    }
    atmosphere
    {
        type            totalPressure;
        rho             rho;
        psi             none;
        gamma           1;
        p0              uniform 0;
        value           nonuniform List<scalar> 
46
(
0
0
0
0
0
0
0
0
0
0
0
0
0
0
0
0
0
0
0
0
0
0
0
0
0
0
0
0
-0.000160686
-0.00134029
-0.00383759
-0.00757341
-0.0128962
-0.0194181
-0.0272
-0.0361693
-0.0453015
-0.0536362
-0.0612088
-0.0693006
-0.07761
-0.0862541
-0.0949731
-0.100892
-0.107091
-0.106275
)
;
    }
    defaultFaces
    {
        type            empty;
    }
}


// ************************************************************************* //
