/*--------------------------------*- C++ -*----------------------------------*\
| =========                 |                                                 |
| \\      /  F ield         | OpenFOAM: The Open Source CFD Toolbox           |
|  \\    /   O peration     | Version:  5.x                                   |
|   \\  /    A nd           | Web:      www.OpenFOAM.org                      |
|    \\/     M anipulation  |                                                 |
\*---------------------------------------------------------------------------*/
FoamFile
{
    version     2.0;
    format      ascii;
    class       surfaceScalarField;
    location    "0.75";
    object      phi;
}
// * * * * * * * * * * * * * * * * * * * * * * * * * * * * * * * * * * * * * //

dimensions      [0 3 -1 0 0 0 0];

internalField   nonuniform List<scalar> 
4432
(
-3.92947e-06
3.92947e-06
-8.23361e-06
4.30412e-06
-1.17482e-05
3.51459e-06
-1.4827e-05
3.07878e-06
-1.71625e-05
2.3355e-06
-1.74829e-05
3.20396e-07
-1.54998e-05
-1.98304e-06
-1.25185e-05
-2.9813e-06
-1.01983e-05
-2.32017e-06
-9.08889e-06
-1.10946e-06
-9.01761e-06
-7.1281e-08
-9.74876e-06
7.3115e-07
-1.10442e-05
1.29547e-06
-1.2773e-05
1.72879e-06
-1.48176e-05
2.04458e-06
-1.64437e-05
1.62609e-06
-1.68815e-05
4.3784e-07
-1.86822e-05
1.80065e-06
-2.4353e-05
5.67081e-06
-2.76429e-05
3.28995e-06
-2.38489e-05
-3.79406e-06
-1.26008e-05
-1.1248e-05
-1.26008e-05
-5.45808e-06
9.38757e-06
-9.82116e-06
8.66718e-06
-1.29966e-05
6.69003e-06
-1.58969e-05
5.9791e-06
-1.80461e-05
4.48471e-06
-1.82715e-05
5.45724e-07
-1.62205e-05
-4.03396e-06
-1.29718e-05
-6.23005e-06
-1.03547e-05
-4.93727e-06
-9.04061e-06
-2.42353e-06
-8.69473e-06
-4.17165e-07
-8.93888e-06
9.75304e-07
-9.57223e-06
1.92881e-06
-1.05562e-05
2.71272e-06
-1.1957e-05
3.44544e-06
-1.40863e-05
3.75533e-06
-1.74564e-05
3.808e-06
-2.16147e-05
5.95897e-06
-2.39529e-05
8.00896e-06
-2.24692e-05
1.80629e-06
-1.71298e-05
-9.13347e-06
-9.10827e-06
-1.92696e-05
-2.17091e-05
-4.74793e-06
1.41355e-05
-8.4739e-06
1.23931e-05
-1.16435e-05
9.85961e-06
-1.49951e-05
9.33072e-06
-1.77354e-05
7.22503e-06
-1.83013e-05
1.11165e-06
-1.65103e-05
-5.82496e-06
-1.35356e-05
-9.20481e-06
-1.09887e-05
-7.48413e-06
-9.59681e-06
-3.81543e-06
-9.21979e-06
-7.94184e-07
-9.33836e-06
1.09387e-06
-9.56096e-06
2.15141e-06
-9.64621e-06
2.79798e-06
-9.52975e-06
3.32897e-06
-9.75979e-06
3.98536e-06
-1.10631e-05
5.11133e-06
-1.25433e-05
7.43912e-06
-1.23502e-05
7.81593e-06
-1.08162e-05
2.7229e-07
-7.80015e-06
-1.21496e-05
-3.5822e-06
-2.34875e-05
-2.52913e-05
-3.38549e-06
1.7521e-05
-6.43809e-06
1.54457e-05
-9.41495e-06
1.28365e-05
-1.24225e-05
1.23383e-05
-1.46573e-05
9.45979e-06
-1.5174e-05
1.62836e-06
-1.41879e-05
-6.81107e-06
-1.26647e-05
-1.07279e-05
-1.1304e-05
-8.84489e-06
-1.03589e-05
-4.76055e-06
-1.00459e-05
-1.1071e-06
-1.02211e-05
1.26898e-06
-1.05071e-05
2.43745e-06
-1.05074e-05
2.7983e-06
-9.95534e-06
2.7769e-06
-8.87734e-06
2.90736e-06
-7.40665e-06
3.64064e-06
-5.13634e-06
5.16881e-06
-1.81803e-06
4.49762e-06
4.00828e-07
-1.94657e-06
9.72104e-07
-1.27208e-05
1.18378e-06
-2.36992e-05
-2.41075e-05
-1.60174e-06
1.91228e-05
-3.47151e-06
1.73155e-05
-5.58154e-06
1.49465e-05
-7.35665e-06
1.41134e-05
-8.22967e-06
1.03328e-05
-8.3011e-06
1.69979e-06
-8.65775e-06
-6.45442e-06
-9.64883e-06
-9.73688e-06
-1.06893e-05
-7.80438e-06
-1.10305e-05
-4.41942e-06
-1.10532e-05
-1.08439e-06
-1.12069e-05
1.42269e-06
-1.14497e-05
2.68022e-06
-1.14539e-05
2.80253e-06
-1.09279e-05
2.25093e-06
-9.70426e-06
1.68371e-06
-7.4373e-06
1.37367e-06
-3.70042e-06
1.43193e-06
1.06228e-06
-2.65083e-07
4.63872e-06
-5.52302e-06
4.78612e-06
-1.28682e-05
3.13743e-06
-2.20505e-05
-2.09701e-05
6.13674e-07
1.85091e-05
5.09058e-07
1.74201e-05
-2.00446e-07
1.5656e-05
-5.551e-07
1.4468e-05
3.13791e-07
9.46392e-06
5.09456e-07
1.50413e-06
-1.52204e-06
-4.42293e-06
-5.56624e-06
-5.69268e-06
-9.30022e-06
-4.0704e-06
-1.13682e-05
-2.35148e-06
-1.20319e-05
-4.20675e-07
-1.22623e-05
1.65311e-06
-1.23982e-05
2.81615e-06
-1.22851e-05
2.68938e-06
-1.16684e-05
1.63421e-06
-1.04798e-05
4.9517e-07
-8.48606e-06
-6.20093e-07
-5.31023e-06
-1.7439e-06
-1.14002e-06
-4.43529e-06
2.57841e-06
-9.24145e-06
3.71837e-06
-1.40082e-05
2.87991e-06
-2.12121e-05
-1.80902e-05
2.55441e-06
1.59547e-05
4.4655e-06
1.5509e-05
6.22172e-06
1.38998e-05
8.34266e-06
1.23471e-05
9.73525e-06
8.07133e-06
8.38562e-06
2.85376e-06
3.31743e-06
6.45264e-07
-2.88388e-06
5.08634e-07
-8.14721e-06
1.19293e-06
-1.14306e-05
9.31875e-07
-1.28625e-05
1.01129e-06
-1.33224e-05
2.11303e-06
-1.33959e-05
2.88957e-06
-1.31395e-05
2.43302e-06
-1.2313e-05
8.07764e-07
-1.09802e-05
-8.37636e-07
-9.0611e-06
-2.53923e-06
-6.40143e-06
-4.40357e-06
-3.2496e-06
-7.58712e-06
-1.75867e-07
-1.23152e-05
1.63782e-06
-1.58219e-05
2.02479e-06
-2.1599e-05
-1.60654e-05
4.64732e-06
1.13074e-05
9.70681e-06
1.04495e-05
1.37638e-05
9.84279e-06
1.61137e-05
9.99726e-06
1.49389e-05
9.24608e-06
9.4985e-06
8.29418e-06
2.09456e-06
8.04921e-06
-4.21518e-06
6.81838e-06
-8.50541e-06
5.48315e-06
-1.12121e-05
3.6386e-06
-1.29036e-05
2.70281e-06
-1.38786e-05
3.08794e-06
-1.42718e-05
3.28284e-06
-1.41577e-05
2.31891e-06
-1.32282e-05
-1.21743e-07
-1.17088e-05
-2.35703e-06
-9.61246e-06
-4.63559e-06
-6.96377e-06
-7.05227e-06
-4.00368e-06
-1.05472e-05
-1.1695e-06
-1.51494e-05
1.21449e-06
-1.82059e-05
2.22498e-06
-2.26095e-05
-1.38404e-05
-2.09588e-05
2.09588e-05
-4.77835e-05
2.68248e-05
-5.19342e-05
4.15068e-06
-3.91241e-05
-1.28101e-05
-1.76258e-05
-2.14984e-05
1.06113e-05
-2.82371e-05
2.04569e-05
-9.84561e-06
1.03835e-05
1.00735e-05
-1.7716e-05
2.80995e-05
-6.85109e-05
5.07949e-05
-0.000109594
4.10831e-05
-0.000121099
1.15046e-05
-0.000104791
-1.6308e-05
-7.5376e-05
-2.94146e-05
-5.82296e-05
-1.71464e-05
-4.99393e-05
-8.29022e-06
-3.61472e-05
-1.37921e-05
-1.43371e-05
-2.18102e-05
-1.43371e-05
-2.96771e-05
5.06358e-05
-4.57765e-05
4.29242e-05
-4.14702e-05
-1.55603e-07
-2.88261e-05
-2.54542e-05
-9.52941e-06
-4.0795e-05
1.25669e-05
-5.03334e-05
1.39981e-05
-1.12768e-05
-1.97943e-05
4.38659e-05
-7.93045e-05
8.76096e-05
-0.000129999
0.00010149
-0.000151891
6.29743e-05
-0.000142975
2.5887e-06
-9.76133e-05
-6.16693e-05
-4.60547e-05
-8.09732e-05
-3.22716e-05
-3.09296e-05
-4.0088e-05
-4.7382e-07
-4.11356e-05
-1.27446e-05
-2.6582e-05
-3.63638e-05
-4.0919e-05
-2.44419e-05
7.50777e-05
-3.40768e-05
5.2559e-05
-2.88188e-05
-5.41361e-06
-1.84914e-05
-3.57816e-05
-5.83514e-06
-5.34513e-05
3.00864e-06
-5.91771e-05
-1.54384e-05
7.17029e-06
-6.51645e-05
9.3592e-05
-0.000126149
0.000148594
-0.000182266
0.000157607
-0.000200737
8.14446e-05
-0.000143805
-5.43427e-05
-2.92843e-05
-0.00017619
7.03665e-05
-0.000180624
0.000181123
-0.000141686
0.00022642
-4.57705e-05
0.0001241
8.95752e-05
8.86162e-06
7.88745e-05
-3.20574e-05
-1.48972e-05
8.9975e-05
-1.94634e-05
5.71251e-05
-1.48048e-05
-1.00722e-05
-7.79271e-06
-4.27937e-05
-6.72954e-06
-5.45145e-05
-1.58416e-05
-5.00651e-05
-5.21688e-05
4.34975e-05
-0.000104618
0.000146041
-0.000166408
0.000210384
-0.000205975
0.000197175
-0.000158738
3.42076e-05
-6.66699e-05
-0.000146411
4.48654e-06
-0.000247347
3.41296e-05
-0.000210267
7.25052e-05
-0.000180062
0.000141253
-0.000114518
0.000198931
3.18974e-05
0.000111702
0.000166103
7.96451e-05
-3.4976e-06
9.34726e-05
-6.35737e-07
5.42633e-05
1.36181e-06
-1.20697e-05
3.4449e-06
-4.48768e-05
-9.38789e-06
-4.16817e-05
-3.55791e-05
-2.38738e-05
-7.83944e-05
8.63127e-05
-0.000133246
0.000200893
-0.000186067
0.000263205
-0.000177308
0.000188416
-9.75137e-05
-4.55864e-05
-2.02425e-05
-0.000223682
1.22676e-05
-0.000279857
2.93875e-05
-0.000227387
3.98827e-05
-0.000190557
7.9762e-05
-0.000154398
0.000140849
-2.91893e-05
0.000145494
0.000161458
0.000225139
6.70624e-06
8.67663e-05
1.33424e-05
4.76271e-05
1.65516e-05
-1.52789e-05
1.38676e-05
-4.21928e-05
-1.15888e-05
-1.62252e-05
-5.13216e-05
1.5859e-05
-9.86546e-05
0.000133646
-0.000154642
0.00025688
-0.000183935
0.000292498
-0.000127413
0.000131894
-4.92918e-05
-0.000123708
2.64444e-06
-0.000275619
1.16183e-05
-0.000288831
2.27738e-05
-0.000238543
2.76323e-05
-0.000195415
4.06906e-05
-0.000167456
6.59683e-05
-5.44669e-05
6.45837e-05
0.000162842
0.000289723
1.26329e-05
7.41334e-05
2.52294e-05
3.50306e-05
3.30459e-05
-2.30954e-05
2.27653e-05
-3.19121e-05
-1.08801e-05
1.74202e-05
-5.73308e-05
6.23097e-05
-0.000104128
0.000180443
-0.000158929
0.000311681
-0.000158276
0.000291845
-8.10107e-05
5.4628e-05
-1.37783e-05
-0.00019094
6.02727e-06
-0.000295424
6.82369e-06
-0.000289627
1.4406e-05
-0.000246125
2.0431e-05
-0.00020144
1.87584e-05
-0.000165783
7.05651e-07
-3.64142e-05
-4.32848e-05
0.000206833
0.000246437
2.02006e-05
5.39328e-05
3.66205e-05
1.86106e-05
4.26699e-05
-2.91448e-05
2.92457e-05
-1.8488e-05
-6.88274e-06
5.35486e-05
-5.48101e-05
0.000110237
-9.73203e-05
0.000222953
-0.000144899
0.000359259
-0.000124194
0.00027114
-5.6201e-05
-1.33646e-05
-3.75452e-06
-0.000243386
1.82444e-06
-0.000301003
6.77353e-07
-0.00028848
6.53871e-06
-0.000251986
1.28999e-05
-0.000207802
-4.04387e-07
-0.000152479
-0.00010823
7.14114e-05
-0.000237312
0.000335915
9.12527e-06
-4.53646e-07
1.1761e-05
-6.7121e-06
1.67079e-05
-1.24442e-05
1.55749e-05
-1.81237e-05
1.56768e-05
-2.38752e-05
1.49976e-05
-2.80471e-05
1.2466e-05
-2.92027e-05
9.20486e-06
-2.85953e-05
6.21098e-06
-2.73283e-05
4.21611e-06
-2.66702e-05
2.98048e-06
-2.71299e-05
3.16254e-06
-2.82008e-05
4.15883e-06
-2.91553e-05
4.23733e-06
-2.89553e-05
2.11896e-06
-2.68993e-05
-2.17779e-06
-2.40346e-05
-5.22175e-06
-1.99576e-05
-8.71257e-06
-1.44252e-05
-1.25847e-05
-7.77719e-06
-1.71952e-05
-6.12451e-07
-2.23141e-05
6.83167e-06
-2.565e-05
1.05541e-05
-2.6332e-05
-1.94817e-05
1.61954e-05
-9.77945e-05
0.000109555
-0.000106025
2.49383e-05
-0.000101102
1.0652e-05
-9.6831e-05
1.14057e-05
-9.38791e-05
1.20457e-05
-9.02716e-05
8.8586e-06
-8.42807e-05
3.21392e-06
-7.64207e-05
-1.64899e-06
-6.58103e-05
-6.39434e-06
-5.23664e-05
-1.04634e-05
-3.9284e-05
-9.91983e-06
-3.02431e-05
-4.88211e-06
-2.43119e-05
-1.69389e-06
-2.20532e-05
-1.39741e-07
-2.25952e-05
-1.63578e-06
-2.28981e-05
-4.91881e-06
-2.17678e-05
-9.84287e-06
-1.87545e-05
-1.5598e-05
-1.35372e-05
-2.24125e-05
-5.80239e-06
-3.00489e-05
3.83484e-06
-3.52872e-05
1.23943e-05
-3.48915e-05
-2.67294e-05
1.9642e-05
-7.64927e-05
0.000186048
-0.000130533
7.89791e-05
-0.000180682
6.0801e-05
-0.000212098
4.28214e-05
-0.000227107
2.70547e-05
-0.000241303
2.30547e-05
-0.000253829
1.57405e-05
-0.000249063
-6.41511e-06
-0.000222121
-3.33365e-05
-0.0001804
-5.21844e-05
-0.000140617
-4.97029e-05
-0.000118077
-2.7422e-05
-0.000110481
-9.29013e-06
-0.000114133
3.5128e-06
-0.000117772
2.0027e-06
-0.000112945
-9.74573e-06
-0.000105322
-1.74658e-05
-9.65232e-05
-2.43966e-05
-8.54332e-05
-3.35025e-05
-6.95086e-05
-4.59735e-05
-4.70685e-05
-5.77273e-05
-2.3894e-05
-5.8066e-05
-5.30341e-05
2.41069e-06
-5.5402e-05
0.00024145
-0.000106474
0.000130051
-0.000143194
9.75209e-05
-0.000162695
6.23229e-05
-0.000172662
3.7022e-05
-0.000182207
3.25996e-05
-0.000201824
3.53579e-05
-0.000244805
3.65655e-05
-0.00030807
2.99295e-05
-0.000365771
5.51592e-06
-0.000392767
-2.27065e-05
-0.000382003
-3.81865e-05
-0.000356296
-3.49974e-05
-0.000333237
-1.9546e-05
-0.000305768
-2.54658e-05
-0.000269065
-4.64489e-05
-0.000238494
-4.80367e-05
-0.00021871
-4.41808e-05
-0.000208895
-4.33182e-05
-0.0001948
-6.00676e-05
-0.000160079
-9.24485e-05
-0.000100971
-0.000117174
-0.000154654
6.48204e-07
-2.92111e-05
0.000270661
-6.9764e-05
0.000170604
-8.22116e-05
0.000109969
-8.2399e-05
6.25105e-05
-7.51167e-05
2.974e-05
-6.47493e-05
2.22325e-05
-5.57749e-05
2.63837e-05
-5.72364e-05
3.80272e-05
-7.78571e-05
5.05502e-05
-0.000117034
4.46929e-05
-0.000153767
1.40266e-05
-0.000175339
-1.6615e-05
-0.000184185
-2.61516e-05
-0.000188721
-1.50103e-05
-0.000196468
-1.77191e-05
-0.000218374
-2.4543e-05
-0.000254633
-1.17777e-05
-0.000276171
-2.26429e-05
-0.000263614
-5.58748e-05
-0.000228727
-9.49543e-05
-0.000207298
-0.000113878
-0.000194536
-0.000129936
-0.000160495
-0.000188694
5.67254e-06
0.000264989
-2.15508e-05
0.000197828
-2.87369e-05
0.000117155
-2.18388e-05
5.56127e-05
-1.75363e-05
2.54378e-05
-1.65285e-05
2.1225e-05
-1.63392e-05
2.61946e-05
-1.12696e-05
3.29578e-05
-5.17821e-06
4.44588e-05
-1.20272e-05
5.15418e-05
-3.73276e-05
3.93268e-05
-7.36629e-05
1.972e-05
-0.000111123
1.1308e-05
-0.000142319
1.61859e-05
-0.000178806
1.87676e-05
-0.000217204
1.38553e-05
-0.000238286
9.30456e-06
-0.000242008
-1.89205e-05
-0.000230112
-6.77711e-05
-0.000206491
-0.000118575
-0.000197501
-0.000122868
-0.00020476
-0.000122677
-0.000137852
-0.000227403
4.45598e-05
0.000220429
3.42298e-05
0.000208158
2.58355e-05
0.000125549
2.10096e-05
6.04388e-05
1.61259e-05
3.03219e-05
9.1078e-06
2.82434e-05
6.36423e-08
3.5239e-05
-7.11456e-06
4.01362e-05
-6.70224e-06
4.40465e-05
-3.93123e-06
4.87707e-05
-1.28774e-05
4.82727e-05
-3.39771e-05
4.08195e-05
-5.92523e-05
3.6583e-05
-8.3464e-05
4.03976e-05
-0.000107839
4.31427e-05
-0.000133453
3.9469e-05
-0.00015927
3.51226e-05
-0.000190985
1.27939e-05
-0.00020926
-4.94956e-05
-0.000210449
-0.000117386
-0.000194057
-0.000139261
-0.000188875
-0.000127858
-0.000120907
-0.00020582
5.52804e-05
0.000165149
7.25773e-05
0.000190861
6.70141e-05
0.000131113
5.2961e-05
7.44922e-05
3.68436e-05
4.64395e-05
2.20123e-05
4.3075e-05
8.90558e-06
4.83459e-05
-2.90689e-06
5.19488e-05
-1.08788e-05
5.20185e-05
-1.42122e-05
5.21041e-05
-1.90513e-05
5.31117e-05
-2.93909e-05
5.11591e-05
-4.20326e-05
4.92247e-05
-5.41201e-05
5.24852e-05
-6.79068e-05
5.69295e-05
-8.5925e-05
5.74874e-05
-0.0001083
5.74981e-05
-0.000143443
4.7937e-05
-0.000191341
-1.5978e-06
-0.000222684
-8.60418e-05
-0.00022117
-0.000140776
-0.000200923
-0.000148106
-0.000127075
-0.000194756
3.80149e-05
0.000127134
6.82826e-05
0.000160594
7.30964e-05
0.000126299
6.05262e-05
8.70626e-05
4.17172e-05
6.52487e-05
2.47092e-05
6.00832e-05
1.14858e-05
6.15696e-05
4.43163e-07
6.29915e-05
-8.86678e-06
6.13286e-05
-1.60072e-05
5.92445e-05
-2.17623e-05
5.88668e-05
-2.86497e-05
5.80466e-05
-3.69091e-05
5.74842e-05
-4.51153e-05
6.06914e-05
-5.44263e-05
6.62407e-05
-6.72801e-05
7.03414e-05
-8.50038e-05
7.52219e-05
-0.000114589
7.75228e-05
-0.000167743
5.15557e-05
-0.000229165
-2.46192e-05
-0.000259131
-0.00011081
-0.000250056
-0.000157181
-0.000152758
-0.000224372
1.39946e-05
0.00011314
4.27741e-05
0.000131814
5.4289e-05
0.000114785
4.83771e-05
9.29746e-05
3.47754e-05
7.88506e-05
2.17548e-05
7.31039e-05
1.159e-05
7.17346e-05
3.19587e-06
7.13857e-05
-4.80857e-06
6.93331e-05
-1.23075e-05
6.67435e-05
-1.85711e-05
6.51305e-05
-2.47653e-05
6.4241e-05
-3.21788e-05
6.48977e-05
-4.01895e-05
6.87022e-05
-4.84874e-05
7.45388e-05
-5.86686e-05
8.05226e-05
-7.19093e-05
8.84626e-05
-9.07489e-05
9.63626e-05
-0.000127503
8.831e-05
-0.000193328
4.1206e-05
-0.000256599
-4.7539e-05
-0.000286201
-0.00012758
-0.000163478
-0.000275481
1.68723e-06
0.000111452
2.2009e-05
0.000111493
3.30185e-05
0.000103775
3.19498e-05
9.40434e-05
2.49544e-05
8.58462e-05
1.74432e-05
8.06153e-05
1.10239e-05
7.81539e-05
5.30724e-06
7.71025e-05
-7.67906e-07
7.54083e-05
-7.18772e-06
7.31634e-05
-1.32783e-05
7.12211e-05
-1.94671e-05
7.04299e-05
-2.65788e-05
7.20094e-05
-3.43147e-05
7.64381e-05
-4.21654e-05
8.23895e-05
-5.07109e-05
8.90682e-05
-6.01371e-05
9.78889e-05
-7.04492e-05
0.000106675
-8.91493e-05
0.00010701
-0.000132461
8.45172e-05
-0.000199456
1.94561e-05
-0.000252777
-7.42583e-05
-0.000145874
-0.000270381
-9.90389e-08
0.000111552
1.19033e-05
9.94905e-05
1.92322e-05
9.64464e-05
2.00996e-05
9.3176e-05
1.74808e-05
8.84651e-05
1.38244e-05
8.42717e-05
1.01046e-05
8.18737e-05
6.42338e-06
8.07839e-05
2.21244e-06
7.96194e-05
-2.68724e-06
7.80632e-05
-8.10539e-06
7.66393e-05
-1.41284e-05
7.64528e-05
-2.07946e-05
7.86755e-05
-2.77073e-05
8.33508e-05
-3.45808e-05
8.92629e-05
-4.14126e-05
9.59e-05
-4.77391e-05
0.000104215
-5.35986e-05
0.000112534
-6.42769e-05
0.000117688
-9.50713e-05
0.000115312
-0.000154603
7.89879e-05
-0.00021566
-1.32013e-05
-0.000120395
-0.000241138
9.91716e-07
0.00011056
7.72379e-06
9.27585e-05
1.20507e-05
9.21195e-05
1.34089e-05
9.18179e-05
1.28507e-05
8.90233e-05
1.11788e-05
8.59436e-05
9.02798e-06
8.40246e-05
6.68436e-06
8.31275e-05
3.84965e-06
8.24542e-05
2.41117e-07
8.16718e-05
-4.26174e-06
8.1142e-05
-9.59856e-06
8.17895e-05
-1.53553e-05
8.44321e-05
-2.10141e-05
8.90094e-05
-2.64042e-05
9.46529e-05
-3.12936e-05
0.000100789
-3.49589e-05
0.000107881
-3.81686e-05
0.000115744
-4.57872e-05
0.000125307
-6.93612e-05
0.000138886
-0.000120743
0.00013037
-0.000185607
5.16628e-05
-8.16921e-05
-0.00022431
1.71962e-06
0.00010884
5.75729e-06
8.87209e-05
8.4284e-06
8.94484e-05
9.77349e-06
9.04729e-05
9.98884e-06
8.8808e-05
9.25391e-06
8.66786e-05
7.97944e-06
8.5299e-05
6.42994e-06
8.4677e-05
4.45696e-06
8.44273e-05
1.7854e-06
8.43433e-05
-1.75685e-06
8.4684e-05
-6.02064e-06
8.60531e-05
-1.0502e-05
8.89132e-05
-1.47035e-05
9.32109e-05
-1.84744e-05
9.84239e-05
-2.15246e-05
0.00010384
-2.31112e-05
0.000109468
-2.43804e-05
0.000117013
-3.06362e-05
0.000131563
-5.11634e-05
0.000159413
-9.52955e-05
0.000174502
-0.00014929
0.000105657
-3.64908e-05
-0.000194491
1.87112e-06
0.000106969
4.58329e-06
8.6009e-05
6.44313e-06
8.75888e-05
7.65424e-06
8.92618e-05
8.13695e-06
8.83252e-05
7.88673e-06
8.69287e-05
7.13702e-06
8.60487e-05
6.0837e-06
8.57303e-05
4.67171e-06
8.58392e-05
2.7091e-06
8.63057e-05
8.81667e-08
8.73047e-05
-3.00718e-06
8.91483e-05
-6.17449e-06
9.20804e-05
-9.02985e-06
9.60662e-05
-1.14396e-05
0.000100834
-1.31896e-05
0.00010559
-1.36854e-05
0.000109963
-1.37333e-05
0.000117061
-1.76663e-05
0.000135496
-3.25523e-05
0.000174299
-6.7692e-05
0.000209642
-0.000113489
0.000151455
8.75177e-07
-0.000150855
1.86186e-06
0.000105107
3.82886e-06
8.40422e-05
5.27503e-06
8.61427e-05
6.37029e-06
8.81666e-05
6.97795e-06
8.77175e-05
7.03502e-06
8.68716e-05
6.6642e-06
8.64194e-05
5.9961e-06
8.63984e-05
5.0306e-06
8.68046e-05
3.67922e-06
8.76569e-05
1.9202e-06
8.90636e-05
-1.29013e-07
9.11975e-05
-2.17177e-06
9.41232e-05
-3.96827e-06
9.78628e-05
-5.43943e-06
0.000102305
-6.57386e-06
0.000106724
-7.05928e-06
0.000110449
-6.89307e-06
0.000116895
-7.78217e-06
0.000136385
-1.28115e-05
0.000179329
-2.98581e-05
0.000226689
-6.94661e-05
0.000191063
3.74251e-05
-0.000106016
1.82594e-06
0.000103282
3.37825e-06
8.24901e-05
4.6046e-06
8.49165e-05
5.63339e-06
8.71379e-05
6.33899e-06
8.70118e-05
6.64396e-06
8.65665e-05
6.60657e-06
8.64567e-05
6.30544e-06
8.66995e-05
5.7679e-06
8.73421e-05
4.98278e-06
8.84419e-05
3.97226e-06
9.00741e-05
2.843e-06
9.23267e-05
1.72996e-06
9.52364e-05
7.43818e-07
9.8849e-05
-8.85719e-08
0.000103137
-9.95546e-07
0.000107631
-2.08699e-06
0.000111541
-2.70345e-06
0.000117511
-1.9959e-06
0.000135678
2.65656e-07
0.000177068
-3.25946e-06
0.000230214
-3.7972e-05
0.000225775
9.18387e-05
-9.23856e-05
1.78726e-06
0.000101495
3.13276e-06
8.11449e-05
4.25685e-06
8.37925e-05
5.27298e-06
8.61217e-05
6.08369e-06
8.6201e-05
6.61223e-06
8.60379e-05
6.89029e-06
8.61786e-05
6.96203e-06
8.66278e-05
6.86609e-06
8.74381e-05
6.63191e-06
8.86761e-05
6.29994e-06
9.04061e-05
5.94272e-06
9.26841e-05
5.61435e-06
9.5565e-05
5.36382e-06
9.90997e-05
5.16802e-06
0.000103333
4.71386e-06
0.000108086
3.34968e-06
0.000112905
1.63136e-06
0.00011923
2.25704e-06
0.000135052
7.62401e-06
0.0001717
1.26498e-05
0.000225188
-1.34272e-05
0.000251852
0.000153324
-7.49123e-05
1.75169e-06
9.9743e-05
3.00765e-06
7.98891e-05
4.1095e-06
8.26906e-05
5.16047e-06
8.50707e-05
6.08681e-06
8.52746e-05
6.8266e-06
8.52981e-05
7.40276e-06
8.56026e-05
7.84354e-06
8.61872e-05
8.18784e-06
8.70939e-05
8.47979e-06
8.83843e-05
8.76753e-06
9.01186e-05
9.1008e-06
9.2351e-05
9.51968e-06
9.51463e-05
1.00256e-05
9.85938e-05
1.05861e-05
0.000102773
1.09374e-05
0.000107734
1.04166e-05
0.000113425
9.18828e-06
0.000120458
1.02421e-05
0.000133998
1.77274e-05
0.000164215
3.20728e-05
0.000210842
3.20948e-05
0.00025183
0.000208288
-2.28692e-05
1.72828e-06
9.80148e-05
2.95093e-06
7.86666e-05
4.08303e-06
8.15586e-05
5.20497e-06
8.39488e-05
6.25633e-06
8.42232e-05
7.19613e-06
8.43583e-05
8.04474e-06
8.47541e-05
8.82972e-06
8.54024e-05
9.58867e-06
8.63351e-05
1.03672e-05
8.7606e-05
1.12154e-05
8.92705e-05
1.21831e-05
9.13836e-05
1.33155e-05
9.40141e-05
1.46522e-05
9.72572e-05
1.62034e-05
0.000101222
1.78859e-05
0.000106052
1.93376e-05
0.000111974
2.04495e-05
0.000119346
2.39445e-05
0.000130503
3.60083e-05
0.000152151
6.04549e-05
0.000186396
8.9636e-05
0.000222649
0.000219536
7.83883e-05
1.72091e-06
9.6294e-05
2.93954e-06
7.7448e-05
4.13109e-06
8.03671e-05
5.34314e-06
8.27367e-05
6.52237e-06
8.30441e-05
7.64732e-06
8.32335e-05
8.74032e-06
8.36612e-05
9.83131e-06
8.43116e-05
1.09581e-05
8.52086e-05
1.21687e-05
8.63956e-05
1.35189e-05
8.79204e-05
1.50693e-05
8.98335e-05
1.68876e-05
9.21959e-05
1.90537e-05
9.50912e-05
2.16587e-05
9.86167e-05
2.48057e-05
0.000102905
2.85921e-05
0.000108187
3.31938e-05
0.000114745
4.04803e-05
0.000123216
5.63311e-05
0.0001363
8.67527e-05
0.000155974
0.000131341
0.00017806
0.000182498
0.000168379
1.72628e-06
9.45678e-05
2.9577e-06
7.62166e-05
4.22137e-06
7.91035e-05
5.52912e-06
8.1429e-05
6.83253e-06
8.17408e-05
8.12541e-06
8.19407e-05
9.43243e-06
8.23544e-05
1.07852e-05
8.2959e-05
1.22264e-05
8.37675e-05
1.38058e-05
8.48163e-05
1.55852e-05
8.61412e-05
1.76364e-05
8.77825e-05
2.0051e-05
8.97814e-05
2.29476e-05
9.21946e-05
2.64774e-05
9.50868e-05
3.0855e-05
9.85275e-05
3.64246e-05
0.000102618
4.36849e-05
0.000107484
5.37509e-05
0.00011315
7.0069e-05
0.000119982
9.78683e-05
0.000128175
0.000139594
0.000136335
0.000134505
0.000187587
1.73936e-06
9.28285e-05
2.99082e-06
7.49653e-05
4.32819e-06
7.77662e-05
5.72755e-06
8.00298e-05
7.14526e-06
8.03233e-05
8.58423e-06
8.05018e-05
1.00725e-05
8.08662e-05
1.16444e-05
8.13873e-05
1.33443e-05
8.20678e-05
1.52252e-05
8.29356e-05
1.73516e-05
8.4015e-05
1.98042e-05
8.53301e-05
2.26844e-05
8.69013e-05
2.61243e-05
8.87549e-05
3.03018e-05
9.09094e-05
3.54552e-05
9.33741e-05
4.19472e-05
9.61261e-05
5.03051e-05
9.91264e-05
6.12486e-05
0.000102207
7.62262e-05
0.000105004
9.77477e-05
0.000106653
0.000128173
0.00010591
9.78968e-05
0.000164781
1.75627e-06
9.10723e-05
3.02741e-06
7.36943e-05
4.43127e-06
7.63625e-05
5.91265e-06
7.85486e-05
7.42826e-06
7.88078e-05
8.98877e-06
7.89413e-05
1.06253e-05
7.92298e-05
1.23723e-05
7.96403e-05
1.42738e-05
8.01664e-05
1.63846e-05
8.08248e-05
1.87707e-05
8.16291e-05
2.15119e-05
8.25891e-05
2.4707e-05
8.37063e-05
2.84855e-05
8.49764e-05
3.30131e-05
8.6382e-05
3.85022e-05
8.78852e-05
4.52349e-05
8.93935e-05
5.36015e-05
9.07597e-05
6.4081e-05
9.17274e-05
7.72601e-05
9.18252e-05
9.37352e-05
9.01784e-05
0.000114186
8.54589e-05
7.50725e-05
0.00013701
1.77355e-06
8.92988e-05
3.0597e-06
7.24082e-05
4.51765e-06
7.49047e-05
6.06507e-06
7.70013e-05
7.65846e-06
7.72144e-05
9.31421e-06
7.72856e-05
1.10625e-05
7.74814e-05
1.29395e-05
7.77634e-05
1.4988e-05
7.81181e-05
1.72604e-05
7.85526e-05
1.98178e-05
7.90719e-05
2.27362e-05
7.96709e-05
2.6106e-05
8.03366e-05
3.00382e-05
8.10442e-05
3.4671e-05
8.17493e-05
4.01715e-05
8.23848e-05
4.67372e-05
8.2828e-05
5.46086e-05
8.28883e-05
6.40526e-05
8.22834e-05
7.53115e-05
8.05664e-05
8.83647e-05
7.71253e-05
0.000102834
7.09892e-05
6.06529e-05
0.000117254
1.78815e-06
8.75107e-05
3.08225e-06
7.11142e-05
4.57899e-06
7.3408e-05
6.17339e-06
7.54069e-05
7.82165e-06
7.5566e-05
9.54335e-06
7.55639e-05
1.13681e-05
7.56567e-05
1.33315e-05
7.58001e-05
1.54733e-05
7.59764e-05
1.78412e-05
7.61849e-05
2.04913e-05
7.6422e-05
2.34897e-05
7.66726e-05
2.69127e-05
7.69135e-05
3.08514e-05
7.71057e-05
3.541e-05
7.71908e-05
4.071e-05
7.70849e-05
4.68774e-05
7.66607e-05
5.40378e-05
7.57279e-05
6.22933e-05
7.4028e-05
7.1669e-05
7.11908e-05
8.19939e-05
6.68004e-05
9.26801e-05
6.03032e-05
5.08341e-05
0.000102499
1.79805e-06
8.57127e-05
3.092e-06
6.98204e-05
4.61202e-06
7.18881e-05
6.23244e-06
7.37865e-05
7.91147e-06
7.38869e-05
9.66999e-06
7.38053e-05
1.15365e-05
7.37901e-05
1.35445e-05
7.37922e-05
1.57291e-05
7.37918e-05
1.81338e-05
7.37803e-05
2.08069e-05
7.3749e-05
2.3803e-05
7.36765e-05
2.71839e-05
7.35325e-05
3.10188e-05
7.32709e-05
3.53817e-05
7.28281e-05
4.0351e-05
7.21157e-05
4.59963e-05
7.10156e-05
5.23646e-05
6.93597e-05
5.94574e-05
6.69354e-05
6.71817e-05
6.34666e-05
7.53155e-05
5.86668e-05
8.33764e-05
5.22425e-05
4.37156e-05
9.0495e-05
1.80301e-06
8.39097e-05
3.08671e-06
6.85368e-05
4.61486e-06
7.036e-05
6.23991e-06
7.21614e-05
7.92711e-06
7.21997e-05
9.69479e-06
7.20375e-05
1.15706e-05
7.19143e-05
1.35842e-05
7.17787e-05
1.57682e-05
7.1608e-05
1.81578e-05
7.13908e-05
2.07951e-05
7.11118e-05
2.37232e-05
7.07483e-05
2.69901e-05
7.02656e-05
3.06444e-05
6.96167e-05
3.47345e-05
6.8738e-05
3.93042e-05
6.75462e-05
4.43829e-05
6.5937e-05
4.99694e-05
6.37734e-05
5.60153e-05
6.08897e-05
6.23928e-05
5.70892e-05
6.88786e-05
5.21811e-05
7.51057e-05
4.60153e-05
3.83527e-05
8.04686e-05
1.80509e-06
8.21047e-05
3.06399e-06
6.7278e-05
4.58602e-06
6.88381e-05
6.19677e-06
7.05506e-05
7.87131e-06
7.05252e-05
9.62326e-06
7.02854e-05
1.14797e-05
7.00579e-05
1.34659e-05
6.97925e-05
1.561e-05
6.94638e-05
1.79426e-05
6.90583e-05
2.04966e-05
6.85579e-05
2.33062e-05
6.79386e-05
2.64064e-05
6.71654e-05
2.98297e-05
6.61934e-05
3.36045e-05
6.49633e-05
3.77493e-05
6.34015e-05
4.22673e-05
6.14192e-05
4.71306e-05
5.89102e-05
5.22709e-05
5.57496e-05
5.75595e-05
5.18007e-05
6.27995e-05
4.69411e-05
6.77112e-05
4.11036e-05
3.41888e-05
7.18753e-05
1.80976e-06
8.0295e-05
3.02174e-06
6.60662e-05
4.52294e-06
6.7337e-05
6.10373e-06
6.897e-05
7.74766e-06
6.88813e-05
9.46334e-06
6.85696e-05
1.12764e-05
6.82449e-05
1.32078e-05
6.78611e-05
1.52816e-05
6.739e-05
1.7523e-05
6.68171e-05
1.99581e-05
6.61228e-05
2.26127e-05
6.52839e-05
2.5511e-05
6.42671e-05
2.86736e-05
6.30309e-05
3.21141e-05
6.15229e-05
3.58346e-05
5.96811e-05
3.98216e-05
5.74323e-05
4.40355e-05
5.46964e-05
4.84022e-05
5.1383e-05
5.28042e-05
4.73987e-05
5.70797e-05
4.26656e-05
6.10221e-05
3.71612e-05
3.08647e-05
6.43462e-05
1.82581e-06
7.84692e-05
2.95996e-06
6.49323e-05
4.42221e-06
6.58748e-05
5.96112e-06
6.74313e-05
7.56017e-06
6.72822e-05
9.22236e-06
6.69074e-05
1.09725e-05
6.64948e-05
1.28282e-05
6.60054e-05
1.48092e-05
6.54091e-05
1.6936e-05
6.46904e-05
1.92281e-05
6.38307e-05
2.17048e-05
6.28072e-05
2.43818e-05
6.15901e-05
2.72705e-05
6.01421e-05
3.03745e-05
5.8419e-05
3.36863e-05
5.63693e-05
3.71833e-05
5.39354e-05
4.08226e-05
5.10572e-05
4.45329e-05
4.76728e-05
4.82124e-05
4.37191e-05
5.17317e-05
3.91461e-05
5.49406e-05
3.39521e-05
2.81576e-05
5.76476e-05
1.85922e-06
7.66101e-05
2.88384e-06
6.39079e-05
4.28243e-06
6.44764e-05
5.76895e-06
6.59449e-05
7.30954e-06
6.57416e-05
8.90409e-06
6.53129e-05
1.0576e-05
6.48229e-05
1.23406e-05
6.42408e-05
1.42137e-05
6.35361e-05
1.62115e-05
6.26927e-05
1.83481e-05
6.16941e-05
2.06368e-05
6.05184e-05
2.30871e-05
5.91397e-05
2.57038e-05
5.75255e-05
2.84837e-05
5.5639e-05
3.14143e-05
5.34387e-05
3.44697e-05
5.08801e-05
3.76078e-05
4.79193e-05
4.07662e-05
4.45145e-05
4.38591e-05
4.06262e-05
4.67836e-05
3.62215e-05
4.94306e-05
3.13051e-05
2.59124e-05
5.16756e-05
1.90547e-06
7.47049e-05
2.80242e-06
6.30111e-05
4.10716e-06
6.31719e-05
5.52695e-06
6.45252e-05
6.99425e-06
6.42744e-05
8.50617e-06
6.38011e-05
1.00867e-05
6.32424e-05
1.17481e-05
6.25795e-05
1.3503e-05
6.17814e-05
1.53639e-05
6.08319e-05
1.73404e-05
5.97176e-05
1.94407e-05
5.84181e-05
2.16698e-05
5.69105e-05
2.40275e-05
5.51677e-05
2.6507e-05
5.31594e-05
2.90934e-05
5.08523e-05
3.17607e-05
4.82128e-05
3.4471e-05
4.52089e-05
3.71723e-05
4.18132e-05
3.97959e-05
3.80025e-05
4.22616e-05
3.37558e-05
4.44893e-05
2.90775e-05
2.39987e-05
4.6403e-05
1.95072e-06
7.27543e-05
2.71922e-06
6.22427e-05
3.90007e-06
6.19913e-05
5.2321e-06
6.31933e-05
6.60765e-06
6.2899e-05
8.02108e-06
6.23878e-05
9.49513e-06
6.17684e-05
1.10403e-05
6.10345e-05
1.26671e-05
6.01548e-05
1.43842e-05
5.91149e-05
1.61977e-05
5.79041e-05
1.81122e-05
5.65035e-05
2.0129e-05
5.48937e-05
2.22445e-05
5.30521e-05
2.44503e-05
5.09534e-05
2.67311e-05
4.85714e-05
2.90629e-05
4.58809e-05
3.14136e-05
4.28582e-05
3.3742e-05
3.94847e-05
3.59963e-05
3.57481e-05
3.81169e-05
3.16352e-05
4.00457e-05
2.71487e-05
2.2305e-05
4.17395e-05
1.98114e-06
7.07732e-05
2.62784e-06
6.15962e-05
3.65856e-06
6.09606e-05
4.87752e-06
6.19745e-05
6.13986e-06
6.16368e-05
7.43498e-06
6.10928e-05
8.78485e-06
6.04186e-05
1.01976e-05
5.9622e-05
1.16823e-05
5.86702e-05
1.32442e-05
5.75531e-05
1.48874e-05
5.62609e-05
1.66132e-05
5.47777e-05
1.84204e-05
5.30864e-05
2.03041e-05
5.11682e-05
2.2255e-05
4.90022e-05
2.42585e-05
4.65677e-05
2.62941e-05
4.38451e-05
2.83359e-05
4.08164e-05
3.03524e-05
3.74682e-05
3.23075e-05
3.3793e-05
3.41591e-05
2.97835e-05
3.58668e-05
2.5441e-05
2.07659e-05
3.74058e-05
1.98683e-06
6.87864e-05
2.51844e-06
6.10649e-05
3.37722e-06
6.0102e-05
4.45715e-06
6.08948e-05
5.58214e-06
6.05119e-05
6.73695e-06
5.99381e-05
7.94162e-06
5.92141e-05
9.20166e-06
5.83622e-05
1.05253e-05
5.73467e-05
1.19146e-05
5.61639e-05
1.33723e-05
5.48034e-05
1.48972e-05
5.32528e-05
1.6487e-05
5.14965e-05
1.81358e-05
4.95191e-05
1.98347e-05
4.73032e-05
2.15707e-05
4.48315e-05
2.33264e-05
4.20894e-05
2.50817e-05
3.90611e-05
2.68129e-05
3.57371e-05
2.84953e-05
3.21107e-05
3.01006e-05
2.81783e-05
3.16009e-05
2.39408e-05
1.93879e-05
3.29789e-05
1.95646e-06
6.68301e-05
2.38261e-06
6.0639e-05
3.05462e-06
5.94303e-05
3.97223e-06
5.99775e-05
4.93554e-06
5.95488e-05
5.92852e-06
5.89452e-05
6.96626e-06
5.81765e-05
8.05304e-06
5.72755e-05
9.19506e-06
5.62048e-05
1.03915e-05
5.49675e-05
1.16441e-05
5.35508e-05
1.295e-05
5.19468e-05
1.43067e-05
5.01398e-05
1.57076e-05
4.8118e-05
1.71442e-05
4.58664e-05
1.86061e-05
4.33695e-05
2.0078e-05
4.06175e-05
2.15445e-05
3.75945e-05
2.29867e-05
3.42948e-05
2.43865e-05
3.07109e-05
2.57239e-05
2.6841e-05
2.69794e-05
2.26853e-05
1.82315e-05
2.81359e-05
1.87688e-06
6.49534e-05
2.21288e-06
6.03033e-05
2.69353e-06
5.895e-05
3.43268e-06
5.92385e-05
4.21515e-06
5.87664e-05
5.03022e-06
5.81302e-05
5.88473e-06
5.73221e-05
6.78259e-06
5.63776e-05
7.72576e-06
5.52616e-05
8.71362e-06
5.39796e-05
9.74454e-06
5.25199e-05
1.0817e-05
5.08744e-05
1.19259e-05
4.90308e-05
1.3067e-05
4.69769e-05
1.42313e-05