/*--------------------------------*- C++ -*----------------------------------*\
| =========                 |                                                 |
| \\      /  F ield         | OpenFOAM: The Open Source CFD Toolbox           |
|  \\    /   O peration     | Version:  5.x                                   |
|   \\  /    A nd           | Web:      www.OpenFOAM.org                      |
|    \\/     M anipulation  |                                                 |
\*---------------------------------------------------------------------------*/
FoamFile
{
    version     2.0;
    format      ascii;
    class       surfaceScalarField;
    location    "0.4";
    object      alphaPhi10;
}
// * * * * * * * * * * * * * * * * * * * * * * * * * * * * * * * * * * * * * //

dimensions      [0 3 -1 0 0 0 0];

internalField   nonuniform List<scalar> 
15580
(
2.0643e-17
-1.12288e-10
1.87629e-18
-3.25657e-10
-1.47191e-17
-5.15356e-10
-2.87686e-17
-6.76337e-10
-4.06184e-17
-8.07529e-10
-5.12708e-17
-9.10425e-10
-6.16151e-17
-9.87778e-10
-7.22486e-17
-1.04259e-09
-8.32476e-17
-1.07752e-09
-9.4145e-17
-1.09448e-09
-1.041e-16
-1.09448e-09
-1.11878e-16
-1.07752e-09
-1.15937e-16
-1.04259e-09
-1.14364e-16
-9.87778e-10
-1.04782e-16
-9.10425e-10
-8.38512e-17
-8.07529e-10
-4.91868e-17
-6.76337e-10
-4.16685e-18
-5.15356e-10
4.02463e-17
-3.25657e-10
-1.12288e-10
-1.53465e-18
-1.12288e-10
-1.22837e-17
-3.25657e-10
-2.60513e-17
-5.15356e-10
-3.70773e-17
-6.76337e-10
-4.63526e-17
-8.07529e-10
-5.50245e-17
-9.10425e-10
-6.39552e-17
-9.87778e-10
-7.36531e-17
-1.04259e-09
-8.41851e-17
-1.07752e-09
-9.51942e-17
-1.09448e-09
-1.0604e-16
-1.09448e-09
-1.15719e-16
-1.07752e-09
-1.22918e-16
-1.04259e-09
-1.26028e-16
-9.87778e-10
-1.22874e-16
-9.10425e-10
-1.09341e-16
-8.07529e-10
-7.92386e-17
-6.76337e-10
-3.5124e-17
-5.15356e-10
7.12705e-18
-3.25657e-10
-1.12288e-10
-1.99043e-17
-1.12288e-10
-3.16498e-17
-3.25657e-10
-4.13669e-17
-5.15356e-10
-4.84244e-17
-6.76337e-10
-5.4306e-17
-8.07529e-10
-6.01404e-17
-9.10425e-10
-6.67522e-17
-9.87778e-10
-7.45993e-17
-1.04259e-09
-8.38048e-17
-1.07752e-09
-9.42735e-17
-1.09448e-09
-1.0564e-16
-1.09448e-09
-1.17193e-16
-1.07752e-09
-1.28001e-16
-1.04259e-09
-1.36734e-16
-9.87778e-10
-1.42274e-16
-9.10425e-10
-1.4243e-16
-8.07529e-10
-1.28303e-16
-6.76337e-10
-1.00731e-16
-5.15356e-10
-5.88976e-17
-3.25657e-10
-1.12288e-10
-3.19162e-17
-1.12288e-10
-4.62708e-17
-3.25657e-10
-5.37733e-17
-5.15356e-10
-5.76742e-17
-6.76337e-10
-6.03663e-17
-8.07529e-10
-6.32145e-17
-9.10425e-10
-6.71173e-17
-9.87778e-10
-7.2577e-17
-1.04259e-09
-7.99497e-17
-1.07752e-09
-8.93975e-17
-1.09448e-09
-1.0077e-16
-1.09448e-09
-1.1379e-16
-1.07752e-09
-1.27883e-16
-1.04259e-09
-1.41864e-16
-9.87778e-10
-1.54936e-16
-9.10425e-10
-1.67157e-16
-8.07529e-10
-1.7574e-16
-6.76337e-10
-1.728e-16
-5.15356e-10
-1.31656e-16
-3.25657e-10
-1.12288e-10
-3.56632e-17
-1.12288e-10
-5.32148e-17
-3.25657e-10
-6.03205e-17
-5.15356e-10
-6.19145e-17
-6.76337e-10
-6.17576e-17
-8.07529e-10
-6.17252e-17
-9.10425e-10
-6.28976e-17
-9.87778e-10
-6.59358e-17
-1.04259e-09
-7.13141e-17
-1.07752e-09
-7.93361e-17
-1.09448e-09
-9.0126e-17
-1.09448e-09
-1.03762e-16
-1.07752e-09
-1.20049e-16
-1.04259e-09
-1.38072e-16
-9.87778e-10
-1.56576e-16
-9.10425e-10
-1.75511e-16
-8.07529e-10
-1.97969e-16
-6.76337e-10
-2.00064e-16
-5.15356e-10
-1.42974e-16
-3.25657e-10
-1.12288e-10
-3.38544e-17
-1.12288e-10
-5.44953e-17
-3.25657e-10
-6.10199e-17
-5.15356e-10
-6.00332e-17
-6.76337e-10
-5.69687e-17
-8.07529e-10
-5.43889e-17
-9.10425e-10
-5.32758e-17
-9.87778e-10
-5.41401e-17
-1.04259e-09
-5.75178e-17
-1.07752e-09
-6.37616e-17
-1.09448e-09
-7.30986e-17
-1.09448e-09
-8.56876e-17
-1.07752e-09
-1.01466e-16
-1.04259e-09
-1.1995e-16
-9.87778e-10
-1.40187e-16
-9.10425e-10
-1.62172e-16
-8.07529e-10
-1.88397e-16
-6.76337e-10
-1.93713e-16
-5.15356e-10
-1.3807e-16
-3.25657e-10
-1.12288e-10
-3.34999e-17
-1.12288e-10
-5.45142e-17
-3.25657e-10
-5.75268e-17
-5.15356e-10
-5.20367e-17
-6.76337e-10
-4.56411e-17
-8.07529e-10
-4.10989e-17
-9.10425e-10
-3.83774e-17
-9.87778e-10
-3.75553e-17
-1.04259e-09
-3.90614e-17
-1.07752e-09
-4.32295e-17
-1.09448e-09
-5.01733e-17
-1.09448e-09
-5.98312e-17
-1.07752e-09
-7.18354e-17
-1.04259e-09
-8.62466e-17
-9.87778e-10
-1.03211e-16
-9.10425e-10
-1.20772e-16
-8.07529e-10
-1.4636e-16
-6.76337e-10
-1.71178e-16
-5.15356e-10
-1.55103e-16
-3.25657e-10
-1.12288e-10
-4.10972e-17
-1.12288e-10
-5.39409e-17
-3.25657e-10
-4.92564e-17
-5.15356e-10
-3.76157e-17
-6.76337e-10
-2.81455e-17
-8.07529e-10
-2.27094e-17
-9.10425e-10
-1.93134e-17
-9.87778e-10
-1.73179e-17
-1.04259e-09
-1.72183e-17
-1.07752e-09
-1.92598e-17
-1.09448e-09
-2.33674e-17
-1.09448e-09
-2.91678e-17
-1.07752e-09
-3.62146e-17
-1.04259e-09
-4.42202e-17
-9.87778e-10
-5.27674e-17
-9.10425e-10
-6.11539e-17
-8.07529e-10
-7.45317e-17
-6.76337e-10
-8.26294e-17
-5.15356e-10
-6.10653e-17
-3.25657e-10
-1.12288e-10
-4.1561e-17
-1.12288e-10
-3.97351e-17
-3.25657e-10
-3.00461e-17
-5.15356e-10
-1.56351e-17
-6.76337e-10
-6.04276e-18
-8.07529e-10
-7.2651e-19
-9.10425e-10
2.69421e-18
-9.87778e-10
5.20633e-18
-1.04259e-09
6.33627e-18
-1.07752e-09
5.95319e-18
-1.09448e-09
4.22373e-18
-1.09448e-09
1.45633e-18
-1.07752e-09
-2.1724e-18
-1.04259e-09
-6.44203e-18
-9.87778e-10
-1.06608e-17
-9.10425e-10
-1.63366e-17
-8.07529e-10
-1.71082e-17
-6.76337e-10
-1.45148e-18
-5.15356e-10
2.57345e-17
-3.25657e-10
-1.12288e-10
5.39408e-18
-1.12288e-10
3.0738e-18
-3.25657e-10
4.77659e-18
-5.15356e-10
1.27721e-17
-6.76337e-10
1.81387e-17
-8.07529e-10
2.27763e-17
-9.10425e-10
2.62415e-17
-9.87778e-10
2.83544e-17
-1.04259e-09
2.96682e-17
-1.07752e-09
3.01735e-17
-1.09448e-09
2.9749e-17
-1.09448e-09
2.84401e-17
-1.07752e-09
2.62979e-17
-1.04259e-09
2.30074e-17
-9.87778e-10
1.85657e-17
-9.10425e-10
1.23514e-17
-8.07529e-10
1.31374e-17
-6.76337e-10
2.22605e-17
-5.15356e-10
2.30197e-17
-3.25657e-10
-1.12288e-10
5.39314e-17
-1.12288e-10
4.85426e-17
-3.25657e-10
4.32883e-17
-5.15356e-10
4.12352e-17
-6.76337e-10
4.20565e-17
-8.07529e-10
4.51257e-17
-9.10425e-10
4.81668e-17
-9.87778e-10
5.01599e-17
-1.04259e-09
5.13959e-17
-1.07752e-09
5.20505e-17
-1.09448e-09
5.20793e-17
-1.09448e-09
5.13489e-17
-1.07752e-09
4.95909e-17
-1.04259e-09
4.6502e-17
-9.87778e-10
4.11437e-17
-9.10425e-10
3.16403e-17
-8.07529e-10
2.83538e-17
-6.76337e-10
2.45273e-17
-5.15356e-10
1.24239e-17
-3.25657e-10
-1.12288e-10
5.21177e-17
-1.12288e-10
7.13359e-17
-3.25657e-10
6.97718e-17
-5.15356e-10
6.40962e-17
-6.76337e-10
6.29009e-17
-8.07529e-10
6.47746e-17
-9.10425e-10
6.74343e-17
-9.87778e-10
6.94076e-17
-1.04259e-09
7.04478e-17
-1.07752e-09
7.08227e-17
-1.09448e-09
7.07058e-17
-1.09448e-09
7.00148e-17
-1.07752e-09
6.84214e-17
-1.04259e-09
6.54691e-17
-9.87778e-10
6.03226e-17
-9.10425e-10
5.07928e-17
-8.07529e-10
4.15469e-17
-6.76337e-10
2.76485e-17
-5.15356e-10
2.71792e-18
-3.25657e-10
-1.12288e-10
5.08596e-17
-1.12288e-10
7.42497e-17
-3.25657e-10
8.01826e-17
-5.15356e-10
7.83099e-17
-6.76337e-10
7.86276e-17
-8.07529e-10
8.09416e-17
-9.10425e-10
8.3666e-17
-9.87778e-10
8.54065e-17
-1.04259e-09
8.59502e-17
-1.07752e-09
8.57082e-17
-1.09448e-09
8.50791e-17
-1.09448e-09
8.4025e-17
-1.07752e-09
8.22616e-17
-1.04259e-09
7.90226e-17
-9.87778e-10
7.41843e-17
-9.10425e-10
6.71633e-17
-8.07529e-10
5.78754e-17
-6.76337e-10
4.21877e-17
-5.15356e-10
1.55194e-17
-3.25657e-10
-1.12288e-10
3.51118e-17
-1.12288e-10
5.57765e-17
-3.25657e-10
7.28324e-17
-5.15356e-10
8.24987e-17
-6.76337e-10
8.9387e-17
-8.07529e-10
9.42939e-17
-9.10425e-10
9.72562e-17
-9.87778e-10
9.8129e-17
-1.04259e-09
9.75544e-17
-1.07752e-09
9.63084e-17
-1.09448e-09
9.4881e-17
-1.09448e-09
9.32742e-17
-1.07752e-09
9.10506e-17
-1.04259e-09
8.73101e-17
-9.87778e-10
8.27884e-17
-9.10425e-10
7.94832e-17
-8.07529e-10
7.52649e-17
-6.76337e-10
6.40321e-17
-5.15356e-10
3.89371e-17
-3.25657e-10
-1.12288e-10
-3.78035e-18
-1.12288e-10
2.51278e-17
-3.25657e-10
5.63795e-17
-5.15356e-10
8.05509e-17
-6.76337e-10
9.68827e-17
-8.07529e-10
1.05242e-16
-9.10425e-10
1.07978e-16
-9.87778e-10
1.07328e-16
-1.04259e-09
1.05089e-16
-1.07752e-09
1.02503e-16
-1.09448e-09
1.00184e-16
-1.09448e-09
9.81067e-17
-1.07752e-09
9.55447e-17
-1.04259e-09
9.17266e-17
-9.87778e-10
8.80672e-17
-9.10425e-10
8.91598e-17
-8.07529e-10
9.07901e-17
-6.76337e-10
8.5159e-17
-5.15356e-10
6.19146e-17
-3.25657e-10
-1.12288e-10
-2.37195e-17
-1.12288e-10
8.55907e-18
-3.25657e-10
4.89203e-17
-5.15356e-10
8.21375e-17
-6.76337e-10
1.03813e-16
-8.07529e-10
1.13677e-16
-9.10425e-10
1.15302e-16
-9.87778e-10
1.12621e-16
-1.04259e-09
1.0838e-16
-1.07752e-09
1.04275e-16
-1.09448e-09
1.012e-16
-1.09448e-09
9.91365e-17
-1.07752e-09
9.68317e-17
-1.04259e-09
9.40737e-17
-9.87778e-10
9.26398e-17
-9.10425e-10
9.71531e-17
-8.07529e-10
1.01932e-16
-6.76337e-10
9.94222e-17
-5.15356e-10
7.61165e-17
-3.25657e-10
-1.12288e-10
-2.23279e-17
-1.12288e-10
2.08936e-17
-3.25657e-10
6.3554e-17
-5.15356e-10
9.60081e-17
-6.76337e-10
1.1441e-16
-8.07529e-10
1.20881e-16
-9.10425e-10
1.1938e-16
-9.87778e-10
1.1383e-16
-1.04259e-09
1.07243e-16
-1.07752e-09
1.01572e-16
-1.09448e-09
9.80529e-17
-1.09448e-09
9.68828e-17
-1.07752e-09
9.62771e-17
-1.04259e-09
9.67229e-17
-9.87778e-10
9.88354e-17
-9.10425e-10
1.03418e-16
-8.07529e-10
1.06818e-16
-6.76337e-10
1.03196e-16
-5.15356e-10
7.81668e-17
-3.25657e-10
-1.12288e-10
1.25636e-17
-1.12288e-10
7.00858e-17
-3.25657e-10
1.0642e-16
-5.15356e-10
1.22928e-16
-6.76337e-10
1.28888e-16
-8.07529e-10
1.27011e-16
-9.10425e-10
1.19968e-16
-9.87778e-10
1.10655e-16
-1.04259e-09
1.01516e-16
-1.07752e-09
9.4337e-17
-1.09448e-09
9.05926e-17
-1.09448e-09
9.09006e-17
-1.07752e-09
9.33593e-17
-1.04259e-09
9.88317e-17
-9.87778e-10
1.04064e-16
-9.10425e-10
1.06905e-16
-8.07529e-10
1.06152e-16
-6.76337e-10
9.84187e-17
-5.15356e-10
7.01782e-17
-3.25657e-10
-1.12288e-10
9.83301e-17
-1.12288e-10
1.51728e-16
-3.25657e-10
1.6482e-16
-5.15356e-10
1.54706e-16
-6.76337e-10
1.42053e-16
-8.07529e-10
1.29152e-16
-9.10425e-10
1.15688e-16
-9.87778e-10
1.02653e-16
-1.04259e-09
9.13485e-17
-1.07752e-09
8.31518e-17
-1.09448e-09
7.96825e-17
-1.09448e-09
8.13793e-17
-1.07752e-09
8.65533e-17
-1.04259e-09
9.38114e-17
-9.87778e-10
1.02688e-16
-9.10425e-10
1.05975e-16
-8.07529e-10
1.02029e-16
-6.76337e-10
8.96988e-17
-5.15356e-10
5.84197e-17
-3.25657e-10
-1.12288e-10
1.70231e-16
-1.12288e-10
2.20332e-16
-3.25657e-10
2.05355e-16
-5.15356e-10
1.71024e-16
-6.76337e-10
1.4319e-16
-8.07529e-10
1.22046e-16
-9.10425e-10
1.04411e-16
-9.87778e-10
8.9376e-17
-1.04259e-09
7.7308e-17
-1.07752e-09
6.95364e-17
-1.09448e-09
6.78907e-17
-1.09448e-09
7.17954e-17
-1.07752e-09
7.86242e-17
-1.04259e-09
8.52483e-17
-9.87778e-10
9.56592e-17
-9.10425e-10
1.0016e-16
-8.07529e-10
9.54738e-17
-6.76337e-10
8.05397e-17
-5.15356e-10
4.88313e-17
-3.25657e-10
-1.12288e-10
1.93539e-16
-1.12288e-10
2.2468e-16
-3.25657e-10
1.97933e-16
-5.15356e-10
1.5647e-16
-6.76337e-10
1.24604e-16
-8.07529e-10
1.02438e-16
-9.10425e-10
8.50583e-17
-9.87778e-10
7.08801e-17
-1.04259e-09
6.02349e-17
-1.07752e-09
5.49917e-17
-1.09448e-09
5.69139e-17
-1.09448e-09
6.31405e-17
-1.07752e-09
6.99309e-17
-1.04259e-09
7.79324e-17
-9.87778e-10
8.49855e-17
-9.10425e-10
8.88605e-17
-8.07529e-10
8.64218e-17
-6.76337e-10
7.25367e-17
-5.15356e-10
4.44599e-17
-3.25657e-10
-1.12288e-10
1.15348e-16
-1.12289e-10
1.34874e-16
-3.25657e-10
1.31478e-16
-5.15356e-10
1.11359e-16
-6.76337e-10
8.918e-17
-8.07529e-10
7.19094e-17
-9.10425e-10
5.84345e-17
-9.87778e-10
4.77776e-17
-1.04259e-09
4.07598e-17
-1.07752e-09
3.94335e-17
-1.09448e-09
4.37741e-17
-1.09448e-09
4.87432e-17
-1.07752e-09
5.39077e-17
-1.04259e-09
6.19423e-17
-9.87778e-10
6.76526e-17
-9.10425e-10
7.24622e-17
-8.07529e-10
7.36877e-17
-6.76337e-10
6.43239e-17
-5.15356e-10
4.28766e-17
-3.25657e-10
-1.12288e-10
3.5739e-17
-1.12289e-10
3.10139e-17
-3.25657e-10
4.58012e-17
-5.15356e-10
5.29868e-17
-6.76337e-10
4.58686e-17
-8.07529e-10
3.5599e-17
-9.10425e-10
2.73438e-17
-9.87778e-10
2.18154e-17
-1.04259e-09
1.94683e-17
-1.07752e-09
2.07215e-17
-1.09448e-09
2.29749e-17
-1.09448e-09
2.40655e-17
-1.07752e-09
2.74852e-17
-1.04259e-09
3.3877e-17
-9.87778e-10
4.07845e-17
-9.10425e-10
4.8129e-17
-8.07529e-10
5.36111e-17
-6.76337e-10
5.09794e-17
-5.15356e-10
3.75261e-17
-3.25657e-10
-1.12288e-10
-7.21143e-17
-1.12289e-10
-5.14194e-17
-3.25657e-10
-2.54347e-17
-5.15356e-10
-3.36003e-18
-6.76337e-10
2.18723e-18
-8.07529e-10
2.78541e-19
-9.10425e-10
-2.79665e-18
-9.87778e-10
-4.42211e-18
-1.04259e-09
-4.11924e-18
-1.07752e-09
-3.66845e-18
-1.09448e-09
-5.96938e-18
-1.09448e-09
-8.14615e-18
-1.07752e-09
-6.47714e-18
-1.04259e-09
-1.91974e-18
-9.87778e-10
4.82252e-18
-9.10425e-10
1.34746e-17
-8.07529e-10
2.32162e-17
-6.76337e-10
2.85067e-17
-5.15356e-10
2.42779e-17
-3.25657e-10
-1.12288e-10
-5.8122e-17
-1.12289e-10
-7.02426e-17
-3.25657e-10
-5.63644e-17
-5.15356e-10
-3.9301e-17
-6.76337e-10
-3.114e-17
-8.07529e-10
-2.93296e-17
-9.10425e-10
-2.94316e-17
-9.87778e-10
-2.95036e-17
-1.04259e-09
-2.96171e-17
-1.07752e-09
-3.17118e-17
-1.09448e-09
-3.70902e-17
-1.09448e-09
-4.25182e-17
-1.07752e-09
-4.47259e-17
-1.04259e-09
-4.37615e-17
-9.87778e-10
-3.9609e-17
-9.10425e-10
-3.12364e-17
-8.07529e-10
-1.74791e-17
-6.76337e-10
-2.72257e-18
-5.15356e-10
5.29883e-18
-3.25657e-10
-1.12288e-10
-4.59757e-17
-1.12288e-10
-6.4211e-17
-3.25657e-10
-6.56838e-17
-5.15356e-10
-5.86312e-17
-6.76337e-10
-5.36615e-17
-8.07529e-10
-5.18024e-17
-9.10425e-10
-5.13494e-17
-9.87778e-10
-5.17756e-17
-1.04259e-09
-5.38206e-17
-1.07752e-09
-5.89674e-17
-1.09448e-09
-6.73823e-17
-1.09448e-09
-7.6497e-17
-1.07752e-09
-8.40731e-17
-1.04259e-09
-8.9096e-17
-9.87778e-10
-9.01527e-17
-9.10425e-10
-8.38915e-17
-8.07529e-10
-6.70148e-17
-6.76337e-10
-4.03031e-17
-5.15356e-10
-1.29036e-17
-3.25657e-10
-1.12288e-10
-2.97879e-17
-1.12288e-10
-5.2656e-17
-3.25657e-10
-6.53065e-17
-5.15356e-10
-6.81525e-17
-6.76337e-10
-6.77492e-17
-8.07529e-10
-6.75424e-17
-9.10425e-10
-6.80728e-17
-9.87778e-10
-6.99523e-17
-1.04259e-09
-7.42751e-17
-1.07752e-09
-8.2223e-17
-1.09448e-09
-9.35202e-17
-1.09448e-09
-1.06813e-16
-1.07752e-09
-1.20439e-16
-1.04259e-09
-1.33189e-16
-9.87778e-10
-1.4226e-16
-9.10425e-10
-1.41721e-16
-8.07529e-10
-1.25717e-16
-6.76337e-10
-9.10755e-17
-5.15356e-10
-3.24296e-17
-3.25657e-10
-1.12288e-10
-1.71891e-17
-1.12288e-10
-4.28059e-17
-3.25657e-10
-6.31121e-17
-5.15356e-10
-7.30447e-17
-6.76337e-10
-7.64851e-17
-8.07529e-10
-7.82086e-17
-9.10425e-10
-8.02152e-17
-9.87778e-10
-8.36832e-17
-1.04259e-09
-8.97927e-17
-1.07752e-09
-9.95381e-17
-1.09448e-09
-1.12961e-16
-1.09448e-09
-1.29535e-16
-1.07752e-09
-1.48537e-16
-1.04259e-09
-1.68998e-16
-9.87778e-10
-1.87971e-16
-9.10425e-10
-1.99596e-16
-8.07529e-10
-1.95463e-16
-6.76337e-10
-1.66512e-16
-5.15356e-10
-1.07231e-16
-3.25657e-10
-1.12288e-10
-1.32872e-17
-1.12288e-10
-4.01169e-17
-3.25657e-10
-6.35206e-17
-5.15356e-10
-7.67788e-17
-6.76337e-10
-8.24354e-17
-8.07529e-10
-8.55418e-17
-9.10425e-10
-8.85956e-17
-9.87778e-10
-9.28953e-17
-1.04259e-09
-9.95946e-17
-1.07752e-09
-1.09648e-16
-1.09448e-09
-1.23488e-16
-1.09448e-09
-1.41263e-16
-1.07752e-09
-1.62958e-16
-1.04259e-09
-1.87992e-16
-9.87778e-10
-2.14143e-16
-9.10425e-10
-2.3672e-16
-8.07529e-10
-2.48073e-16
-6.76337e-10
-2.32441e-16
-5.15356e-10
-1.70637e-16
-3.25657e-10
-1.12288e-10
-1.86559e-17
-1.12288e-10
-4.51019e-17
-3.25657e-10
-6.75074e-17
-5.15356e-10
-8.07888e-17
-6.76337e-10
-8.69868e-17
-8.07529e-10
-9.04958e-17
-9.10425e-10
-9.35564e-17
-9.87778e-10
-9.73831e-17
-1.04259e-09
-1.03134e-16
-1.07752e-09
-1.11801e-16
-1.09448e-09
-1.24044e-16
-1.09448e-09
-1.40306e-16
-1.07752e-09
-1.60727e-16
-1.04259e-09
-1.84908e-16
-9.87778e-10
-2.11482e-16
-9.10425e-10
-2.37679e-16
-8.07529e-10
-2.56782e-16
-6.76337e-10
-2.53007e-16
-5.15356e-10
-1.97467e-16
-3.25657e-10
-1.12288e-10
-2.92146e-17
-1.12288e-10
-5.43614e-17
-3.25657e-10
-7.34697e-17
-5.15356e-10
-8.48635e-17
-6.76337e-10
-9.03438e-17
-8.07529e-10
-9.3133e-17
-9.10425e-10
-9.49431e-17
-9.87778e-10
-9.69458e-17
-1.04259e-09
-1.00371e-16
-1.07752e-09
-1.0623e-16
-1.09448e-09
-1.15147e-16
-1.09448e-09
-1.27383e-16
-1.07752e-09
-1.42767e-16
-1.04259e-09
-1.60717e-16
-9.87778e-10
-1.80176e-16
-9.10425e-10
-1.99107e-16
-8.07529e-10
-2.12088e-16
-6.76337e-10
-2.07397e-16
-5.15356e-10
-1.59603e-16
-3.25657e-10
-1.12289e-10
-3.88902e-17
-1.12288e-10
-6.33165e-17
-3.25657e-10
-7.9285e-17
-5.15356e-10
-8.82003e-17
-6.76337e-10
-9.20544e-17
-8.07529e-10
-9.30227e-17
-9.10425e-10
-9.2468e-17
-9.87778e-10
-9.1652e-17
-1.04259e-09
-9.18708e-17
-1.07752e-09
-9.40527e-17
-1.09448e-09
-9.85704e-17
-1.09448e-09
-1.05259e-16
-1.07752e-09
-1.1351e-16
-1.04259e-09
-1.22478e-16
-9.87778e-10
-1.31014e-16
-9.10425e-10
-1.36835e-16
-8.07529e-10
-1.36362e-16
-6.76337e-10
-1.21923e-16
-5.15356e-10
-7.65635e-17
-3.25657e-10
-1.12289e-10
-4.53705e-17
-1.12288e-10
-7.04498e-17
-3.25657e-10
-8.4006e-17
-5.15356e-10
-9.02647e-17
-6.76337e-10
-9.16284e-17
-8.07529e-10
-8.97811e-17
-9.10425e-10
-8.60933e-17
-9.87778e-10
-8.19726e-17
-1.04259e-09
-7.86758e-17
-1.07752e-09
-7.69183e-17
-1.09448e-09
-7.67384e-17
-1.09448e-09
-7.76182e-17
-1.07752e-09
-7.87556e-17
-1.04259e-09
-7.9361e-17
-9.87778e-10
-7.85209e-17
-9.10425e-10
-7.45845e-17
-8.07529e-10
-6.56378e-17
-6.76337e-10
-4.80399e-17
-5.15356e-10
-1.12906e-17
-3.25657e-10
-1.12289e-10
-4.96583e-17
-1.12288e-10
-7.57015e-17
-3.25657e-10
-8.75905e-17
-5.15356e-10
-9.07422e-17
-6.76337e-10
-8.86944e-17
-8.07529e-10
-8.3287e-17
-9.10425e-10
-7.61431e-17
-9.87778e-10
-6.87342e-17
-1.04259e-09
-6.21085e-17
-1.07752e-09
-5.66579e-17
-1.09448e-09
-5.21251e-17
-1.09448e-09
-4.78557e-17
-1.07752e-09
-4.31853e-17
-1.04259e-09
-3.77439e-17
-9.87778e-10
-3.14094e-17
-9.10425e-10
-2.41054e-17
-8.07529e-10
-1.69132e-17
-6.76337e-10
-1.10726e-17
-5.15356e-10
-3.93381e-18
-3.25657e-10
-1.12289e-10
-5.4365e-17
-1.12288e-10
-8.12689e-17
-3.25657e-10
-9.00852e-17
-5.15356e-10
-8.91048e-17
-6.76337e-10
-8.2828e-17
-8.07529e-10
-7.35669e-17
-9.10425e-10
-6.31581e-17
-9.87778e-10
-5.29335e-17
-1.04259e-09
-4.35613e-17
-1.07752e-09
-3.50537e-17
-1.09448e-09
-2.6938e-17
-1.09448e-09
-1.85923e-17
-1.07752e-09
-9.64396e-18
-1.04259e-09
-2.38024e-19
-9.87778e-10
8.87947e-18
-9.10425e-10
1.60576e-17
-8.07529e-10
1.77496e-17
-6.76337e-10
9.45653e-18
-5.15356e-10
-7.63971e-18
-3.25657e-10
-1.12289e-10
-5.97687e-17
-1.12288e-10
-8.53784e-17
-3.25657e-10
-8.97893e-17
-5.15356e-10
-8.39426e-17
-6.76337e-10
-7.32984e-17
-8.07529e-10
-6.06145e-17
-9.10425e-10
-4.77096e-17
-9.87778e-10
-3.55566e-17
-1.04259e-09
-2.43421e-17
-1.07752e-09
-1.37143e-17
-1.09448e-09
-3.05942e-18
-1.09448e-09
8.17886e-18
-1.07752e-09
2.01539e-17
-1.04259e-09
3.23779e-17
-9.87778e-10
4.35511e-17
-9.10425e-10
5.1015e-17
-8.07529e-10
5.05417e-17
-6.76337e-10
3.7282e-17
-5.15356e-10
1.11824e-17
-3.25657e-10
-1.12289e-10
-6.30234e-17
-1.12288e-10
-8.4778e-17
-3.25657e-10
-8.39788e-17
-5.15356e-10
-7.34799e-17
-6.76337e-10
-5.93402e-17
-8.07529e-10
-4.44504e-17
-9.10425e-10
-3.03344e-17
-9.87778e-10
-1.74679e-17
-1.04259e-09
-5.56272e-18
-1.07752e-09
6.02023e-18
-1.09448e-09
1.80072e-17
-1.09448e-09
3.0917e-17
-1.07752e-09
4.48136e-17
-1.04259e-09
5.91097e-17
-9.87778e-10
7.23172e-17
-9.10425e-10
8.15764e-17
-8.07529e-10
8.3119e-17
-6.76337e-10
7.28339e-17
-5.15356e-10
4.41734e-17
-3.25657e-10
-1.12289e-10
-5.97746e-17
-1.12288e-10
-7.58093e-17
-3.25657e-10
-7.00454e-17
-5.15356e-10
-5.63436e-17
-6.76337e-10
-4.05592e-17
-8.07529e-10
-2.53015e-17
-9.10425e-10
-1.15997e-17
-9.87778e-10
5.75978e-19
-1.04259e-09
1.1878e-17
-1.07752e-09
2.31639e-17
-1.09448e-09
3.52145e-17
-1.09448e-09
4.85118e-17
-1.07752e-09
6.3097e-17
-1.04259e-09
7.84499e-17
-9.87778e-10
9.32498e-17
-9.10425e-10
1.05041e-16
-8.07529e-10
1.10875e-16
-6.76337e-10
1.0728e-16
-5.15356e-10
7.92639e-17
-3.25657e-10
-1.12288e-10
-4.69707e-17
-1.12288e-10
-5.60316e-17
-3.25657e-10
-4.67506e-17
-5.15356e-10
-3.23048e-17
-6.76337e-10
-1.735e-17
-8.07529e-10
-3.86127e-18
-9.10425e-10
7.67823e-18
-9.87778e-10
1.77527e-17
-1.04259e-09
2.72416e-17
-1.07752e-09
3.70843e-17
-1.09448e-09
4.80114e-17
-1.09448e-09
6.04201e-17
-1.07752e-09
7.43162e-17
-1.04259e-09
8.93009e-17
-9.87778e-10
1.04422e-16
-9.10425e-10
1.17917e-16
-8.07529e-10
1.27548e-16
-6.76337e-10
1.30277e-16
-5.15356e-10
1.0463e-16
-3.25657e-10
-1.12288e-10
-2.60709e-17
-1.12288e-10
-2.68304e-17
-3.25657e-10
-1.5711e-17
-5.15356e-10
-2.98963e-18
-6.76337e-10
8.66214e-18
-8.07529e-10
1.83527e-17
-9.10425e-10
2.62212e-17
-9.87778e-10
3.30656e-17
-1.04259e-09
3.98511e-17
-1.07752e-09
4.74301e-17
-1.09448e-09
5.63723e-17
-1.09448e-09
6.68847e-17
-1.07752e-09
7.88424e-17
-1.04259e-09
9.19023e-17
-9.87778e-10
1.05476e-16
-9.10425e-10
1.18421e-16
-8.07529e-10
1.28773e-16
-6.76337e-10
1.33449e-16
-5.15356e-10
1.09676e-16
-3.25657e-10
-1.12288e-10
-2.24158e-18
-1.12288e-10
6.27639e-18
-3.25657e-10
1.8591e-17
-5.15356e-10
2.79423e-17
-6.76337e-10
3.45583e-17
-8.07529e-10
3.90609e-17
-9.10425e-10
4.23235e-17
-9.87778e-10
4.53478e-17
-1.04259e-09
4.90527e-17
-1.07752e-09
5.40917e-17
-1.09448e-09
6.075e-17
-1.09448e-09
6.89223e-17
-1.07752e-09
7.82208e-17
-1.04259e-09
8.81959e-17
-9.87778e-10
9.84363e-17
-9.10425e-10
1.08125e-16
-8.07529e-10
1.15106e-16
-6.76337e-10
1.15521e-16
-5.15356e-10
9.15751e-17
-3.25657e-10
-1.12288e-10
1.97096e-17
-1.12288e-10
3.80741e-17
-3.25657e-10
5.09048e-17
-5.15356e-10
5.59491e-17
-6.76337e-10
5.67694e-17
-8.07529e-10
5.56276e-17
-9.10425e-10
5.41388e-17
-9.87778e-10
5.34713e-17
-1.04259e-09
5.43847e-17
-1.07752e-09
5.72403e-17
-1.09448e-09
6.19669e-17
-1.09448e-09
6.80736e-17
-1.07752e-09
7.47997e-17
-1.04259e-09
8.14077e-17
-9.87778e-10
8.73932e-17
-9.10425e-10
9.1936e-17
-8.07529e-10
9.24759e-17
-6.76337e-10
8.39089e-17
-5.15356e-10
5.76554e-17
-3.25657e-10
-1.12288e-10
3.77345e-17
-1.12288e-10
6.45249e-17
-3.25657e-10
7.65179e-17
-5.15356e-10
7.67535e-17
-6.76337e-10
7.19216e-17
-8.07529e-10
6.56833e-17
-9.10425e-10
6.02381e-17
-9.87778e-10
5.67697e-17
-1.04259e-09
5.57828e-17
-1.07752e-09
5.73242e-17
-1.09448e-09
6.09758e-17
-1.09448e-09
6.58821e-17
-1.07752e-09
7.09039e-17
-1.04259e-09
7.49298e-17
-9.87778e-10
7.71492e-17
-9.10425e-10
7.65138e-17
-8.07529e-10
7.01942e-17
-6.76337e-10
5.16626e-17
-5.15356e-10
2.24518e-17
-3.25657e-10
-1.12288e-10
5.35649e-17
-1.12288e-10
8.38495e-17
-3.25657e-10
9.2184e-17
-5.15356e-10
8.73349e-17
-6.76337e-10
7.78157e-17
-8.07529e-10
6.79439e-17
-9.10425e-10
6.00659e-17
-9.87778e-10
5.51704e-17
-1.04259e-09
5.34865e-17
-1.07752e-09
5.47835e-17
-1.09448e-09
5.83748e-17
-1.09448e-09
6.31646e-17
-1.07752e-09
6.77841e-17
-1.04259e-09
7.08484e-17
-9.87778e-10
7.11947e-17
-9.10425e-10
6.74813e-17
-8.07529e-10
5.69725e-17
-6.76337e-10
3.32533e-17
-5.15356e-10
3.43957e-18
-3.25657e-10
-1.12288e-10
6.80597e-17
-1.12288e-10
9.50673e-17
-3.25657e-10
9.64699e-17
-5.15356e-10
8.66649e-17
-6.76337e-10
7.39538e-17
-8.07529e-10
6.23353e-17
-9.10425e-10
5.37501e-17
-9.87778e-10
4.88558e-17
-1.04259e-09
4.76263e-17
-1.07752e-09
4.96062e-17
-1.09448e-09
5.39573e-17
-1.09448e-09
5.95366e-17
-1.07752e-09
6.49937e-17
-1.04259e-09
6.89016e-17
-9.87778e-10
6.98572e-17
-9.10425e-10
6.62858e-17
-8.07529e-10
5.58743e-17
-6.76337e-10
3.38795e-17
-5.15356e-10
6.36365e-18
-3.25657e-10
-1.12288e-10
7.79203e-17
-1.12288e-10
9.62571e-17
-3.25657e-10
8.91208e-17
-5.15356e-10
7.51429e-17
-6.76337e-10
6.09453e-17
-8.07529e-10
4.93724e-17
-9.10425e-10
4.16022e-17
-9.87778e-10
3.7905e-17
-1.04259e-09
3.80124e-17
-1.07752e-09
4.12909e-17
-1.09448e-09
4.68736e-17
-1.09448e-09
5.3756e-17
-1.07752e-09
6.08162e-17
-1.04259e-09
6.67844e-17
-9.87778e-10
7.02008e-17
-9.10425e-10
6.94151e-17
-8.07529e-10
6.26627e-17
-6.76337e-10
4.77985e-17
-5.15356e-10
2.57774e-17
-3.25657e-10
-1.12288e-10
7.62636e-17
-1.12288e-10
8.4111e-17
-3.25657e-10
6.98486e-17
-5.15356e-10
5.34615e-17
-6.76337e-10
3.9661e-17
-8.07529e-10
2.97414e-17
-9.10425e-10
2.40557e-17
-9.87778e-10
2.24895e-17
-1.04259e-09
2.45383e-17
-1.07752e-09
2.94427e-17
-1.09448e-09
3.64075e-17
-1.09448e-09
4.4664e-17
-1.07752e-09
5.3389e-17
-1.04259e-09
6.15448e-17
-9.87778e-10
6.77587e-17
-9.10425e-10
7.04934e-17
-8.07529e-10
6.8534e-17
-6.76337e-10
6.19245e-17
-5.15356e-10
4.57774e-17
-3.25657e-10
-1.12288e-10
5.82615e-17
-1.12288e-10
5.58318e-17
-3.25657e-10
3.83573e-17
-5.15356e-10
2.25231e-17
-6.76337e-10
1.13441e-17
-8.07529e-10
4.67648e-18
-9.10425e-10
2.20967e-18
-9.87778e-10
3.49836e-18
-1.04259e-09
7.84021e-18
-1.07752e-09
1.44316e-17
-1.09448e-09
2.26142e-17
-1.09448e-09
3.18638e-17
-1.07752e-09
4.16178e-17
-1.04259e-09
5.105e-17
-9.87778e-10
5.89367e-17
-9.10425e-10
6.39314e-17
-8.07529e-10
6.52282e-17
-6.76337e-10
6.36046e-17
-5.15356e-10
5.13412e-17
-3.25657e-10
-1.12288e-10
2.47544e-17
-1.12288e-10
1.27615e-17
-3.25657e-10
-3.47738e-18
-5.15356e-10
-1.51827e-17
-6.76337e-10
-2.14027e-17
-8.07529e-10
-2.33221e-17
-9.10425e-10
-2.16829e-17
-9.87778e-10
-1.71603e-17
-1.04259e-09
-1.05541e-17
-1.07752e-09
-2.58903e-18
-1.09448e-09
6.26989e-18
-1.09448e-09
1.57387e-17
-1.07752e-09
2.5467e-17
-1.04259e-09
3.48121e-17
-9.87778e-10
4.2702e-17
-9.10425e-10
4.78828e-17
-8.07529e-10
4.96085e-17
-6.76337e-10
4.82046e-17
-5.15356e-10
3.79554e-17
-3.25657e-10
-1.12288e-10
-2.02756e-17
-1.12288e-10
-3.8578e-17
-3.25657e-10
-4.98358e-17
-5.15356e-10
-5.43263e-17
-6.76337e-10
-5.39556e-17
-8.07529e-10
-5.0379e-17
-9.10425e-10
-4.44925e-17
-9.87778e-10
-3.7057e-17
-1.04259e-09
-2.88063e-17
-1.07752e-09
-2.02383e-17
-1.09448e-09
-1.15618e-17
-1.09448e-09
-2.82579e-18
-1.07752e-09
5.84046e-18
-1.04259e-09
1.40028e-17
-9.87778e-10
2.07122e-17
-9.10425e-10
2.46799e-17
-8.07529e-10
2.49775e-17
-6.76337e-10
2.12482e-17
-5.15356e-10
1.23779e-17
-3.25657e-10
-1.12288e-10
-6.49697e-17
-1.12288e-10
-8.62808e-17
-3.25657e-10
-9.09165e-17
-5.15356e-10
-8.74026e-17
-6.76337e-10
-8.06777e-17
-8.07529e-10
-7.23488e-17
-9.10425e-10
-6.32501e-17
-9.87778e-10
-5.41038e-17
-1.04259e-09
-4.54157e-17
-1.07752e-09
-3.73408e-17
-1.09448e-09
-2.97882e-17
-1.09448e-09
-2.25821e-17
-1.07752e-09
-1.56331e-17
-1.04259e-09
-9.17066e-18
-9.87778e-10
-4.01216e-18
-9.10425e-10
-1.41294e-18
-8.07529e-10
-2.29233e-18
-6.76337e-10
-6.75266e-18
-5.15356e-10
-1.17983e-17
-3.25657e-10
-1.12288e-10
-9.29694e-17
-1.12288e-10
-1.16631e-16
-3.25657e-10
-1.16204e-16
-5.15356e-10
-1.07534e-16
-6.76337e-10
-9.70772e-17
-8.07529e-10
-8.63122e-17
-9.10425e-10
-7.60879e-17
-9.87778e-10
-6.70392e-17
-1.04259e-09
-5.93572e-17
-1.07752e-09
-5.28445e-17
-1.09448e-09
-4.71502e-17
-1.09448e-09
-4.19296e-17
-1.07752e-09
-3.69591e-17
-1.04259e-09
-3.23322e-17
-9.87778e-10
-2.8659e-17
-9.10425e-10
-2.68498e-17
-8.07529e-10
-2.7164e-17
-6.76337e-10
-2.83714e-17
-5.15356e-10
-2.53615e-17
-3.25657e-10
-1.12288e-10
-9.44748e-17
-1.12288e-10
-1.19446e-16
-3.25657e-10
-1.1978e-16
-5.15356e-10
-1.11463e-16
-6.76337e-10
-1.01393e-16
-8.07529e-10
-9.1356e-17
-9.10425e-10
-8.25008e-17
-9.87778e-10
-7.53705e-17
-1.04259e-09
-6.98724e-17
-1.07752e-09
-6.55949e-17
-1.09448e-09
-6.20874e-17
-1.09448e-09
-5.89867e-17
-1.07752e-09
-5.60744e-17
-1.04259e-09
-5.33826e-17
-9.87778e-10
-5.12172e-17
-9.10425e-10
-4.97636e-17
-8.07529e-10
-4.80428e-17
-6.76337e-10
-4.33412e-17
-5.15356e-10
-3.05944e-17
-3.25657e-10
-1.12288e-10
-7.2985e-17
-1.12288e-10
-9.8486e-17
-3.25657e-10
-1.04091e-16
-5.15356e-10
-1.01048e-16
-6.76337e-10
-9.5051e-17
-8.07529e-10
-8.85676e-17
-9.10425e-10
-8.311e-17
-9.87778e-10
-7.90986e-17
-1.04259e-09
-7.63159e-17
-1.07752e-09
-7.4387e-17
-1.09448e-09
-7.2981e-17
-1.09448e-09
-7.18885e-17
-1.07752e-09
-7.10294e-17
-1.04259e-09
-7.04245e-17
-9.87778e-10
-7.00164e-17
-9.10425e-10
-6.91342e-17
-8.07529e-10
-6.56377e-17
-6.76337e-10
-5.58978e-17
-5.15356e-10
-3.52221e-17
-3.25657e-10
-1.12288e-10
-4.16387e-17
-1.12288e-10
-6.54673e-17
-3.25657e-10
-7.74811e-17
-5.15356e-10
-8.17254e-17
-6.76337e-10
-8.17198e-17
-8.07529e-10
-8.03649e-17
-9.10425e-10
-7.91906e-17
-9.87778e-10
-7.85064e-17
-1.04259e-09
-7.82254e-17
-1.07752e-09
-7.82606e-17
-1.09448e-09
-7.85734e-17
-1.09448e-09
-7.92034e-17
-1.07752e-09
-8.02373e-17
-1.04259e-09
-8.16623e-17
-9.87778e-10
-8.3093e-17
-9.10425e-10
-8.32741e-17
-8.07529e-10
-7.96151e-17
-6.76337e-10
-6.83385e-17
-5.15356e-10
-4.47316e-17
-3.25657e-10
-1.12288e-10
-1.49241e-17
-1.12288e-10
-3.49662e-17
-3.25657e-10
-5.01819e-17
-5.15356e-10
-6.02712e-17
-6.76337e-10
-6.59866e-17
-8.07529e-10
-6.96067e-17
-9.10425e-10
-7.21799e-17
-9.87778e-10
-7.40376e-17
-1.04259e-09
-7.54588e-17
-1.07752e-09
-7.67752e-17
-1.09448e-09
-7.82755e-17
-1.09448e-09
-8.02019e-17
-1.07752e-09
-8.26851e-17
-1.04259e-09
-8.55723e-17
-9.87778e-10
-8.82446e-17
-9.10425e-10
-8.93467e-17
-8.07529e-10
-8.66944e-17
-6.76337e-10
-7.70991e-17
-5.15356e-10
-5.54157e-17
-3.25657e-10
-1.12288e-10
-1.78044e-18
-1.12288e-10
-1.59604e-17
-3.25657e-10
-2.99502e-17
-5.15356e-10
-4.24696e-17
-6.76337e-10
-5.18429e-17
-8.07529e-10
-5.86137e-17
-9.10425e-10
-6.32064e-17
-9.87778e-10
-6.61763e-17
-1.04259e-09
-6.82492e-17
-1.07752e-09
-7.01103e-17
-1.09448e-09
-7.22474e-17
-1.09448e-09
-7.4924e-17
-1.07752e-09
-7.81028e-17
-1.04259e-09
-8.13628e-17
-9.87778e-10
-8.39114e-17
-9.10425e-10
-8.45745e-17
-8.07529e-10
-8.19525e-17
-6.76337e-10
-7.4106e-17
-5.15356e-10
-5.66105e-17
-3.25657e-10
-1.12288e-10
-9.53442e-19
-1.12288e-10
-9.51523e-18
-3.25657e-10
-1.987e-17
-5.15356e-10
-3.14111e-17
-6.76337e-10
-4.13209e-17
-8.07529e-10
-4.83987e-17
-9.10425e-10
-5.2791e-17
-9.87778e-10
-5.53835e-17
-1.04259e-09
-5.71916e-17
-1.07752e-09
-5.90069e-17
-1.09448e-09
-6.12833e-17
-1.09448e-09
-6.40955e-17
-1.07752e-09
-6.70851e-17
-1.04259e-09
-6.95103e-17
-9.87778e-10
-7.03719e-17
-9.10425e-10
-6.85252e-17
-8.07529e-10
-6.30128e-17
-6.76337e-10
-5.3166e-17
-5.15356e-10
-3.92962e-17
-3.25657e-10
-1.12288e-10
-6.6732e-18
-1.12288e-10
-1.18413e-17
-3.25657e-10
-1.84917e-17
-5.15356e-10
-2.66657e-17
-6.76337e-10
-3.38988e-17
-8.07529e-10
-3.8531e-17
-9.10425e-10
-4.09281e-17
-9.87778e-10
-4.21683e-17
-1.04259e-09
-4.31999e-17
-1.07752e-09
-4.46133e-17
-1.09448e-09
-4.66248e-17
-1.09448e-09
-4.90243e-17
-1.07752e-09
-5.11558e-17
-1.04259e-09
-5.20345e-17
-9.87778e-10