/*--------------------------------*- C++ -*----------------------------------*\
| =========                 |                                                 |
| \\      /  F ield         | OpenFOAM: The Open Source CFD Toolbox           |
|  \\    /   O peration     | Version:  5.x                                   |
|   \\  /    A nd           | Web:      www.OpenFOAM.org                      |
|    \\/     M anipulation  |                                                 |
\*---------------------------------------------------------------------------*/
FoamFile
{
    version     2.0;
    format      ascii;
    class       volScalarField;
    location    "0.4";
    object      alpha.water;
}
// * * * * * * * * * * * * * * * * * * * * * * * * * * * * * * * * * * * * * //

dimensions      [0 0 0 0 0 0 0];

internalField   nonuniform List<scalar> 
8000
(
1
1
1
1
1
1
1
1
1
1
1
1
1
1
1
1
1
1
1
1
1
1
1
1
1
1
1
1
1
1
1
1
1
1
1
1
1
1
1
1
1
1
1
1
1
1
1
1
1
1
1
1
1
1
1
1
1
1
1
1
1
1
1
1
1
1
1
1
1
1
1
1
1
1
1
1
1
1
1
1
1
1
1
1
1
1
1
1
1
1
1
1
1
1
1
1
1
1
1
1
1
1
1
1
1
1
1
1
1
1
1
1
1
1
1
1
1
1
1
1
1
1
1
1
1
1
1
1
1
1
1
1
1
1
1
1
1
1
1
1
1
1
1
1
1
1
1
1
1
1
1
1
1
1
1
1
1
1
1
1
1
1
1
1
1
1
1
1
1
1
1
1
1
1
1
1
1
1
1
1
1
1
1
1
1
1
1
1
1
1
1
1
1
1
1
1
1
1
1
1
1
1
1
1
1
1
1
1
1
1
1
1
1
1
1
1
1
1
1
1
1
1
1
1
1
1
1
1
1
1
1
1
1
1
1
1
1
1
1
1
1
1
1
1
1
1
1
1
1
1
1
1
1
1
1
1
1
1
1
1
1
1
1
1
1
1
1
1
1
1
1
1
1
1
1
1
1
1
1
1
1
1
1
1
1
1
1
1
1
1
1
1
1
1
1
1
1
1
1
1
1
1
1
1
1
1
1
1
1
1
1
1
1
1
1
1
1
1
1
1
1
1
1
1
1
1
1
1
1
1
1
1
1
1
1
1
1
1
1
1
1
1
1
1
1
1
1
1
1
1
1
1
1
1
1
1
1
1
1
1
1
1
1
1
1
1
1
1
1
1
1
1
1
1
1
1
1
1
1
1
1
1
1
1
1
1
1
1
1
1
1
1
1
1
1
1
1
1
1
1
1
1
1
1
1
1
1
1
1
1
1
1
1
1
1
1
1
1
1
1
1
1
1
1
1
1
1
1
1
1
1
1
1
1
1
1
1
1
1
1
1
1
1
1
1
1
1
1
1
1
1
1
1
1
1
1
1
1
1
1
1
1
1
1
1
1
1
1
1
1
1
1
1
1
1
1
1
1
1
1
1
1
1
1
1
1
1
1
1
1
1
1
1
1
1
1
1
1
1
1
1
1
1
1
1
1
1
1
1
1
1
1
1
1
1
1
1
1
1
1
1
1
1
1
1
1
1
1
1
1
1
1
1
1
1
1
1
1
1
1
1
1
1
1
1
1
1
1
1
1
1
1
1
1
1
1
1
1
1
1
1
1
1
1
1
1
1
1
1
1
1
1
1
1
1
1
1
1
1
1
1
1
1
1
1
1
1
1
1
1
1
1
1
1
1
1
1
1
1
1
1
1
1
1
1
1
1
1
1
1
1
1
1
1
1
1
1
1
1
1
1
1
1
1
1
1
1
1
1
1
1
1
1
1
1
1
1
1
1
1
1
1
1
1
1
1
1
1
1
1
1
1
1
1
1
1
1
1
1
1
1
1
1
1
1
1
1
1
1
1
1
1
1
1
1
1
1
1
1
1
1
1
1
1
1
1
1
1
1
1
1
1
1
1
1
1
1
1
1
1
1
1
1
1
1
1
1
1
1
1
1
1
1
1
1
1
1
1
1
1
1
1
1
1
1
1
1
1
1
1
1
1
1
1
1
1
1
1
1
1
1
1
1
1
1
1
1
1
1
1
1
1
1
1
1
1
1
1
1
1
1
1
1
1
1
1
1
1
1
1
1
1
1
1
1
1
1
1
1
1
1
1
1
1
1
1
1
1
1
1
1
1
1
1
1
1
1
1
1
1
1
1
1
1
1
1
1
1
1
1
1
1
1
1
1
1
1
1
1
1
1
1
1
1
1
1
1
1
1
1
1
1
1
1
1
1
1
1
1
1
1
1
1
1
1
1
1
1
1
1
1
1
1
1
1
1
1
1
1
1
1
1
1
1
1
1
1
1
1
1
1
1
1
1
1
1
1
1
1
1
1
1
1
1
1
1
1
1
1
1
1
1
1
1
1
1
1
1
1
1
1
1
1
1
1
1
1
1
1
1
1
1
1
1
1
1
1
1
1
1
1
1
1
1
1
1
1
1
1
1
1
1
1
1
1
1
1
1
1
1
1
1
1
1
1
1
1
1
1
1
1
1
1
1
1
1
1
1
1
1
1
1
1
1
1
1
1
1
1
1
1
1
1
1
1
1
1
1
1
1
1
1
1
1
1
1
1
1
1
1
1
1
1
1
1
1
1
1
1
1
1
1
1
1
1
1
1
1
1
1
1
1
1
1
1
1
1
1
1
1
1
1
1
1
1
1
1
1
1
1
1
1
1
1
1
1
1
1
1
1
1
1
1
1
1
1
1
1
1
1
1
1
1
1
1
1
1
1
1
1
1
1
1
1
1
1
1
1
1
1
1
1
1
1
1
1
1
1
1
1
1
1
1
1
1
1
1
1
1
1
1
1
1
1
1
1
1
1
1
1
1
1
1
1
1
1
1
1
1
1
1
1
1
1
1
1
1
1
1
1
1
1
1
1
1
1
1
1
1
1
1
1
1
1
1
1
1
1
1
1
1
1
1
1
1
1
1
1
1
1
1
1
1
1
1
1
1
1
1
1
1
1
1
1
1
1
1
1
1
1
1
1
1
1
1
1
1
1
1
1
1
1
1
1
1
1
1
1
1
1
1
1
1
1
1
1
1
1
1
1
1
1
1
1
1
1
1
1
1
1
1
1
1
1
1
1
1
1
1
1
1
1
1
1
1
1
1
1
1
1
1
1
1
1
1
1
1
1
1
1
1
1
1
1
1
1
1
1
1
1
1
1
1
1
1
1
1
1
1
1
1
1
1
1
1
1
1
1
1
1
1
1
1
1
1
1
1
1
1
1
1
1
1
1
1
1
1
1
1
1
1
1
1
1
1
1
1
1
1
1
1
1
1
1
1
1
1
1
1
1
1
1
1
1
1
1
1
1
1
1
1
1
1
1
1
1
1
1
1
1
1
1
1
1
1
1
1
1
1
1
1
1
1
1
1
1
1
1
1
1
1
1
1
1
1
1
1
1
1
1
1
1
1
1
1
1
1
1
1
1
1
1
1
1
1
1
1
1
1
1
1
1
1
1
1
1
1
1
1
1
1
1
1
1
1
1
1
1
1
1
1
1
1
1
1
1
1
1
1
1
1
1
1
1
1
1
1
1
1
1
1
1
1
1
1
1
1
1
1
1
1
1
1
1
1
1
1
1
1
1
1
1
1
1
1
1
1
1
1
1
1
1
1
1
1
1
1
1
1
1
1
1
1
1
1
1
1
1
1
1
1
1
1
1
1
1
1
1
1
1
1
1
1
1
1
1
1
1
1
1
1
1
1
1
1
1
1
1
1
1
1
1
1
1
1
1
1
1
1
1
1
1
1
1
1
1
1
1
1
1
1
1
1
1
1
1
1
1
1
1
1
1
1
1
1
1
1
1
1
1
1
1
1
1
1
1
1
1
1
1
1
1
1
1
1
1
1
1
1
1
1
1
1
1
1
1
1
1
1
1
1
1
1
1
1
1
1
1
1
1
1
1
1
1
1
1
1
1
1
1
1
1
1
1
1
1
1
1
1
1
1
1
1
1
1
1
1
1
1
1
1
1
1
1
1
1
1
1
1
1
1
1
1
1
1
1
1
1
1
1
1
1
1
1
1
1
1
1
1
1
1
1
1
1
1
1
1
1
1
1
1
1
1
1
1
1
1
1
1
1
1
1
1
1
1
1
1
1
1
1
1
1
1
1
1
1
1
1
1
1
1
1
1
1
1
1
1
1
1
1
1
1
1
1
1
1
1
1
1
1
1
1
1
1
1
1
1
1
1
1
1
1
1
1
1
1
1
1
1
1
1
1
1
1
1
1
1
1
1
1
1
1
1
1
1
1
1
1
1
1
1
1
1
1
1
1
1
1
1
1
1
1
1
1
1
1
1
1
1
1
1
1
1
1
1
1
1
1
1
1
1
1
1
1
1
1
1
1
1
1
1
1
1
1
1
1
1
1
1
1
1
1
1
1
1
1
1
1
1
1
1
1
1
1
1
1
1
1
1
1
1
1
1
1
1
1
1
1
1
1
1
1
1
1
1
1
1
1
1
1
1
1
1
1
1
1
1
1
1
1
1
1
1
1
1
1
1
1
1
1
1
1
1
1
1
1
1
1
1
1
1
1
1
1
1
1
1
1
1
1
1
1
1
1
1
1
1
1
1
1
1
1
1
1
1
1
1
1
1
1
1
1
1
1
1
1
1
1
1
1
1
1
1
1
1
1
1
1
1
1
1
1
1
1
1
1
1
1
1
1
1
1
1
1
1
1
1
1
1
1
1
1
1
1
1
1
1
1
1
1
1
1
1
1
1
1
1
1
1
1
1
1
1
1
1
1
1
1
1
1
1
1
1
1
1
1
1
1
1
1
1
1
1
1
1
1
1
1
1
1
1
1
1
1
1
1
1
1
1
1
1
1
1
1
1
1
1
1
1
1
1
1
1
1
1
1
1
1
1
1
1
1
1
1
1
1
1
1
1
1
1
1
1
1
1
1
1
1
1
1
1
1
1
1
1
1
1
1
1
1
1
1
1
1
1
1
1
1
1
1
1
1
1
1
1
1
1
1
1
1
1
1
1
1
1
1
1
1
1
1
1
1
1
1
1
1
1
1
1
1
1
1
1
1
1
1
1
1
1
1
1
1
1
1
1
1
1
1
1
1
1
1
1
1
1
1
1
1
1
1
1
1
1
1
1
1
1
1
1
1
1
1
1
1
1
1
1
1
1
1
1
1
1
1
1
1
1
1
1
1
1
1
1
1
1
1
1
1
1
1
1
1
1
1
1
1
1
1
1
1
1
1
1
1
1
1
1
1
1
1
1
1
1
1
1
1
1
1
1
1
1
1
1
1
1
1
1
1
1
1
1
1
1
1
1
1
1
1
1
1
1
1
1
1
1
1
1
1
1
1
1
1
1
1
1
1
1
1
1
1
1
1
1
1
1
1
1
1
1
1
1
1
1
1
1
1
1
1
1
1
1
1
1
1
1
1
1
1
1
1
1
1
1
1
1
1
1
1
1
1
1
1
1
1
1
1
1
1
1
1
1
1
1
1
1
1
1
1
1
1
1
1
1
1
1
1
1
1
1
1
1
1
1
1
1
1
1
1
1
1
1
1
1
1
1
1
1
1
1
1
1
1
1
1
1
1
1
1
1
1
1
1
1
1
1
1
1
1
1
1
1
1
1
1
1
1
1
1
1
1
1
1
1
1
1
1
1
1
1
1
1
1
1
1
1
1
1
1
1
1
1
1
1
1
1
1
1
1
1
1
1
1
1
1
1
1
1
1
1
1
1
1
1
1
1
1
1
1
1
1
1
1
1
1
1
1
1
1
1
1
1
1
1
1
1
1
1
1
1
1
1
1
1
1
1
1
1
1
1
1
1
1
1
1
1
1
1
1
1
1
1
1
1
1
1
1
1
1
1
1
1
1
1
1
1
1
1
1
1
1
1
1
1
1
1
1
1
1
1
1
1
1
1
1
1
1
1
1
1
1
1
1
1
1
1
1
1
1
1
1
1
1
1
1
1
1
1
1
1
1
1
1
1
1
1
1
1
1
1
1
1
1
1
1
1
1
1
1
1
1
1
1
1
1
1
1
1
1
1
1
1
1
1
1
1
1
1
1
1
1
1
1
1
1
1
1
1
1
1
1
1
1
1
1
1
1
1
1
1
1
1
1
1
1
1
1
1
1
1
1
1
1
1
1
1
1
1
1
1
1
1
1
1
1
1
1
1
1
1
1
1
1
1
1
1
1
1
1
1
1
1
1
1
1
1
1
1
1
1
1
1
1
1
1
1
1
1
1
1
1
1
1
1
1
1
1
1
1
1
1
1
1
1
1
1
1
1
1
1
1
1
1
1
1
1
1
1
1
1
1
1
1
1
1
1
1
1
1
1
1
1
1
1
1
1
1
1
1
1
1
1
1
1
1
1
1
1
1
1
1
1
1
1
1
1
1
1
1
1
1
1
1
1
1
1
1
1
1
1
1
1
1
1
1
1
1
1
1
1
1
1
1
1
1
1
1
1
1
1
1
1
1
1
1
1
1
1
1
1
1
1
1
1
1
1
1
1
1
1
1
1
1
1
1
1
1
1
1
1
1
1
1
1
1
1
1
1
1
1
1
1
1
1
1
1
1
1
1
1
1
1
1
1
1
1
1
1
1
1
1
1
1
1
1
1
1
1
1
1
1
1
1
1
1
1
1
1
1
1
1
1
1
1
1
1
1
1
1
1
1
1
1
1
1
1
1
1
1
1
1
1
1
1
1
1
1
1
1
1
1
1
1
1
1
1
1
1
1
1
1
1
1
1
1
1
1
1
1
1
1
1
1
1
1
1
1
1
1
1
1
1
1
1
1
1
1
1
1
1
1
1
1
1
1
1
1
1
1
1
1
1
1
1
1
1
1
1
1
1
1
1
1
1
1
1
1
1
1
1
1
1
1
1
1
1
1
1
1
1
1
1
1
1
1
1
1
1
1
1
1
1
1
1
1
1
1
1
1
1
1
1
1
1
1
1
1
1
1
1
1
1
1
1
1
1
1
1
1
1
1
1
1
1
1
1
1
1
1
1
1
1
1
1
1
1
1
1
1
1
1
1
1
1
1
1
1
1
1
1
1
1
1
1
1
1
1
1
1
1
1
1
1
1
1
1
1
1
1
1
1
1
1
1
1
1
1
1
1
1
1
1
1
1
1
1
1
1
1
1
1
1
1
1
1
1
1
1
1
1
1
1
1
1
1
1
1
1
1
1
1
1
1
1
1
1
1
1
1
1
1
1
1
1
1
1
1
1
1
1
1
1
1
1
1
1
1
1
1
1
1
1
1
1
1
1
1
1
1
1
1
1
1
1
1
1
1
1
1
1
1
1
1
1
1
1
1
1
1
1
1
1
1
1
1
1
1
1
1
1
1
1
1
1
1
1
1
1
1
1
1
1
1
1
1
1
1
1
1
1
1
1
1
1
1
1
1
1
1
1
1
1
1
1
1
1
1
1
1
1
1
1
1
1
1
1
1
1
1
1
1
1
1
1
1
1
1
1
1
1
1
1
1
1
1
1
1
1
1
1
1
1
1
1
1
1
1
1
1
0.999989
1
0.999997
0.999989
1
1
1
1
1
1
1
1
1
1
1
1
1
1
1
0.999992
0.999967
0.999993
0.999971
0.999967
0.999986
0.999997
1
1
1
1
1
1
1
1
1
1
1
1
0.999999
0.99997
0.999967
0.999967
0.999973
0.999967
0.999967
0.999997
1
1
1
1
1
1
1
1
1
1
0.999999
1
0.999982
0.999968
0.99998
0.999983
1
0.999967
0.999967
0.999997
1
1
1
1
1
1
1
1
1
1
0.999998
0.999988
0.999968
0.999968
1
1
0.999999
0.999981
0.999982
0.999999
0.999999
1
1
1
1
1
1
1
1
1
0.999999
0.99997
0.999968
0.999983
1
1
1
1
1
1
0.999998
1
1
1
1
1
1
1
1
1
1
0.999986
0.999984
1
0.999992
1
0.999989
1
1
1
0.999999
1
1
1
1
1
1
1
1
1
1
1
1
1
0.999981
0.999981
0.999901
0.999988
0.999997
1
1
0.999995
0.999981
1
1
1
1
1
1
0.999999
0.999958
0.999985
1
1
0.999994
0.999965
0.999913
0.999947
0.999951
0.999997
0.999988
0.999861
0.999816
0.999915
1
1
1
1
0.999991
0.999915
0.999832
0.999851
0.999991
1
1
1
1
0.999928
0.999928
0.999927
0.999853
0.999805
0.999805
0.999805
0.999982
1
1
1
0.999968
0.999832
0.999832
0.999832
0.99988
0.999998
1
0.999998
0.999998
0.999935
0.999975
0.999912
0.999805
0.999805
0.999805
0.999805
0.999882
0.999999
1
0.999998
0.99996
0.999905
0.999852
0.999832
0.999832
0.999966
1
0.999992
0.999998
0.999994
1
0.999998
0.999973
0.999962
0.99994
0.999828
0.999822
0.999988
1
0.999993
0.999984
1
1
0.99996
0.999898
0.999931
1
1
0.999997
1
1
1
1
1
1
0.999999
0.999854
0.999972
0.999999
0.999993
1
1
1
1
1
0.999949
0.999994
1
0.999997
1
0.999997
0.999998
0.999996
0.999994
0.999993
0.999997
0.999979
0.999969
0.999997
0.999995
0.999996
0.999979
0.999981
0.999997
1
1
0.999987
1
1
1
0.999996
0.999996
0.999994
0.999966
0.999966
0.999989
0.999993
0.999969
0.999996
0.999996
0.999977
0.999959
0.999959
0.999994
1
1
0.999987
1
1
0.999998
0.999998
1
1
0.999981
0.999966
0.999966
0.999988
0.999986
0.999998
0.999989
0.999959
0.999959
0.999986
0.999999
1
0.999999
0.999998
1
1
0.999997
1
1
1
1
0.999984
0.999966
0.999974
0.999998
0.999998
0.999974
0.999959
0.99999
1
1
0.999999
0.999999
1
1
1
0.999998
0.999999
1
1
1
1
0.999975
0.999968
0.999995
0.999997
0.999972
0.999975
1
1
1
1
1
0.999998
1
0.999997
1
1
1
1
1
1
0.999996
0.999968
0.999993
0.999995
0.999978
0.999999
1
1
1
1
1
0.999998
0.999996
0.999997
1
1
1
1
1
1
1
0.999977
0.99999
0.999995
0.999991
1
1
1
1
1
1
1
0.999995
1
1
1
1
1
1
1
1
0.999991
0.99999
0.999992
0.999999
1
1
1
1
1
1
1
1
1
1
1
1
1
1
1
1
0.999997
0.999992
0.999997
1
1
1
1
1
1
1
1
1
1
1
1
1
1
1
1
1
1
0.999815
1
1
1
1
1
1
1
1
1
1
1
1
1
1
1
0.989965
0.912587
0.78169
0.621315
0.482831
0.407208
0.406636
0.465279
0.590675
0.789058
0.936978
0.986964
0.999958
1
1
1
1
0.998123
0.94101
0.789057
0.505489
0.22299
0.0682232
0.000260488
9.53371e-23
-4.40549e-30
-2.40491e-30
6.95411e-31
0.0113816
0.0441769
0.226596
0.590928
0.826053
0.984975
1
1
1
0.82702
0.528551
0.170289
0.0123299
-4.32526e-21
1.04843e-22
1.5125e-22
-6.55755e-23
1.09771e-11
1.09822e-11
3.12176e-12
-4.47321e-30
9.28187e-31
5.36889e-20
0.00133619
0.265664
0.640899
1
1
0.726562
0.285471
0.0168105
6.60178e-19
8.1519e-19
1.86215e-11
3.61479e-11
4.3754e-11
4.98811e-11
5.7654e-11
4.61875e-11
2.51408e-11
1.65185e-11
5.7881e-12
9.6736e-13
7.88193e-14
7.81734e-14
0.0448283
0.505701
0.666501
0.097321
5.58853e-15
5.58076e-15
4.95609e-12
2.90858e-11
4.39057e-11
4.31747e-11
4.55413e-11
4.57508e-11
4.22126e-11
4.47863e-11
2.73314e-11
1.2891e-11
4.62111e-12
3.64413e-12
1.47245e-12
8.51317e-14
3.14402e-15
0.0115156
0.0554914
1.33217e-13
1.64144e-12
6.19635e-12
1.12842e-11
1.13876e-11
1.50694e-11
1.88502e-11
1.62078e-11
1.49126e-11
3.95691e-11
1.19522e-10
1.92838e-11
3.90056e-12
1.75281e-12
2.53999e-12
1.38638e-12
1.46631e-13
3.1987e-15
1.45033e-21
-1.24907e-19
1.34265e-13
9.27798e-13
1.14353e-12
6.29627e-13
1.5197e-12
6.65144e-12
4.7186e-11
1.06201e-10
1.49076e-11
5.79295e-11
2.05479e-10
1.20121e-11
1.29662e-12
1.03269e-12
1.27276e-12
4.61487e-13
2.91155e-14
1.24441e-14
1.62826e-15
3.18291e-15
2.85308e-14
3.13886e-13
2.94564e-13
1.92534e-13
3.66147e-13
9.18251e-13
1.21515e-10
1.86652e-09
3.78782e-09
1.1392e-09
1.14406e-10
1.0078e-12
8.91072e-13
6.38471e-13
7.46283e-13
3.53738e-13
2.99234e-14
2.31043e-14
1.24698e-14
5.50247e-15
5.4182e-15
2.18668e-13
3.04432e-13
1.2808e-13
2.55531e-13
4.18401e-13
3.98145e-13
4.37515e-09
2.08593e-08
8.21805e-09
8.90055e-13
8.89373e-13
8.30214e-13
3.65117e-13
3.86295e-13
3.57643e-13
6.39771e-14
2.92215e-14
4.5011e-14
1.9187e-14
-1.25009e-32
1.32106e-13
1.32769e-13
6.91248e-14
1.85899e-13
4.1324e-13
3.98128e-13
4.38059e-09
2.19252e-08
1.55688e-08
8.90738e-13
9.14744e-13
8.25467e-13
2.37947e-13
1.76324e-13
2.36396e-13
1.16158e-13
2.14977e-14
5.229e-14
2.21817e-14
1.12843e-33
3.67397e-14
2.33589e-14
4.21335e-14
1.68003e-13
4.22898e-13
3.98145e-13
4.00717e-09
2.19252e-08
1.53204e-08
8.91422e-13
9.67742e-13
9.07134e-13
2.22029e-13
7.07417e-14
6.54156e-14
8.29319e-14
3.88791e-15
2.33978e-14
6.90465e-14
5.18438e-33
2.28902e-15
9.00732e-15
8.05651e-14
1.75648e-13
1.52786e-12
3.98128e-13
4.08812e-09
2.19252e-08
9.12198e-09
8.92107e-13
1.0373e-12
1.02155e-12
3.37835e-13
8.96341e-14
1.73026e-14
1.10139e-14
1.06393e-33
1.16982e-14
4.08905e-13
6.02268e-33
3.211e-15
3.33753e-14
1.39028e-13
1.46672e-13
1.0414e-11
3.98145e-13
2.63505e-09
2.19252e-08
6.54472e-09
8.92793e-13
1.07689e-12
1.10285e-12
5.10698e-13
1.61625e-13
3.81565e-14
4.13929e-15
-6.50897e-34
6.94772e-14
5.24263e-13
1.14817e-32
1.2048e-14
7.80553e-14
1.31291e-13
4.64765e-14
4.42495e-11
3.90547e-12
6.00283e-10
9.8507e-09
3.58089e-09
3.61593e-11
1.07717e-12
1.145e-12
7.63416e-13
2.34483e-13
8.08342e-14
1.36545e-14
-9.46126e-33
7.76356e-13
2.24271e-13
2.21371e-33
2.24233e-14
6.20172e-14
4.10368e-14
6.8472e-16
1.2971e-10
3.84298e-10
3.85941e-10
3.86631e-10
7.69654e-10
1.13609e-09
1.07746e-12
1.15552e-12
1.13837e-12
3.57788e-13
1.1336e-13
2.65436e-14
-1.90851e-33
1.30944e-11
2.76446e-13
-1.36996e-33
9.46806e-15
8.51973e-15
5.13097e-15
6.86706e-16
5.48708e-10
1.78647e-09
2.20235e-09
5.60677e-10
1.968e-10
2.77943e-09
1.35313e-09
1.15558e-12
1.51626e-12
1.16796e-12
2.29524e-13
3.57403e-14
2.25347e-31
2.83598e-11
1.70334e-12
1.4775e-33
9.89517e-16
3.1655e-15
2.73288e-15
6.8472e-16
3.85717e-09
3.43346e-09
1.19056e-08
4.71728e-09
1.78536e-10
3.25428e-09
1.08472e-08
1.15563e-12
1.67887e-12
3.04003e-12
2.48681e-12
6.15518e-13
6.89875e-32
1.27151e-11
1.79315e-12
5.35867e-33
1.66851e-15
1.66977e-15
1.67103e-15
8.97097e-09
8.94798e-09
5.72689e-09
1.69144e-08
7.4239e-09
1.75865e-10
1.51415e-09
1.34645e-08
9.75281e-09
1.67867e-12
3.83601e-12
8.53449e-12
1.25462e-11
1.08811e-13
1.47214e-12
2.58203e-13
1.77353e-34
-5.39453e-30
1.17933e-09
4.00118e-08
5.12696e-08
8.87259e-09
1.05647e-08
1.69115e-08
5.8531e-09
1.69519e-10
2.24382e-10
1.08541e-08
4.2398e-08
3.6202e-09
3.83619e-12
1.01244e-11
3.98435e-11
3.18532e-11
1.07386e-12
1.4956e-14
4.20277e-35
-2.05541e-27
8.69171e-08
1.48915e-07
5.32443e-08
8.17707e-10
1.38526e-08
1.39533e-08
1.61367e-09
1.54956e-10
1.83739e-10
6.9143e-10
4.18611e-08
9.40155e-08
5.32522e-09
1.0126e-11
3.95703e-11
5.41189e-10
9.14782e-12
3.04235e-25
-6.61677e-30
3.28394e-08
1.51711e-07
1.42099e-07
8.25234e-09
8.17519e-10
6.65375e-09
6.8976e-10
1.80812e-10
1.52854e-10
2.66955e-10
2.66217e-10
3.89913e-09
1.45436e-07
1.81971e-07
4.71889e-08
6.96874e-10
1.517e-09
3.47825e-11
6.66142e-06
2.71921e-28
1.16946e-07
1.47669e-07
5.67398e-09
3.50767e-11
8.03868e-10
2.12886e-10
1.4149e-11
9.13152e-11
9.40654e-11
2.56642e-10
2.66184e-10
1.0084e-10
1.83657e-08
3.16739e-07
3.23053e-07
1.79662e-07
1.78138e-09
1.34471e-11
6.92488e-05
-9.96235e-26
7.81685e-08
1.10863e-08
1.12578e-11
3.52339e-11
2.24993e-10
1.40173e-11
1.43056e-11
1.11126e-10
4.29799e-11
1.18609e-10
2.22293e-10
1.00805e-10
1.71564e-11
4.97964e-08
3.64438e-07
3.64433e-07
4.72626e-09
2.40685e-27
0.000114707
4.48789e-06
6.21608e-09
2.34087e-12
1.13789e-11
6.15233e-11
6.38417e-11
1.45577e-11
1.92189e-11
9.58407e-11
2.42773e-11
1.90629e-11
7.01096e-11
6.7602e-11
1.7161e-11
4.16664e-12
1.04915e-07
3.60722e-07
6.98137e-13
1.68021e-05
7.29938e-05
1.51236e-09
1.51016e-09
2.34085e-12
1.73777e-11
5.334e-11
6.20504e-11
1.53118e-11
1.72161e-11
3.82805e-11
1.33635e-11
7.37318e-12
1.29287e-11
1.89391e-11
2.60256e-11
4.1884e-12
1.67112e-12
6.66072e-08
6.95761e-13
5.63436e-05
0.00011403
4.00909e-06
2.96646e-12
2.96644e-12
1.56194e-11
3.93989e-11
5.14524e-11
1.4508e-11
9.14465e-12
1.40829e-11
7.56365e-12
5.48994e-12
5.91382e-12
7.65818e-12
2.12493e-11
6.19696e-12
1.67054e-12
1.62308e-12
1.12242e-06
0.000102625
1.77546e-05
1.06717e-10
1.06667e-10
2.41308e-12
8.69845e-12
2.83115e-11
3.48183e-11
1.08736e-11
5.97653e-12
7.84492e-12
4.87707e-12
4.43841e-12
5.05223e-12
4.85368e-12
8.30333e-12
4.15562e-12
2.1966e-12
1.62218e-12
1.07139e-07
9.41972e-06
1.29222e-05
5.82604e-08
4.84885e-11
7.67947e-13
3.96861e-12
1.62703e-11
2.05217e-11
6.98914e-12
4.86413e-12
4.85196e-12
3.2194e-12
3.27667e-12
4.02455e-12
3.26975e-12
2.7934e-12
1.45852e-12
1.6204e-12
1.62129e-12
4.40627e-08
4.4566e-06
5.80154e-31
1.82393e-09
1.9296e-10
5.63776e-13
1.66171e-12
7.14269e-12
9.05891e-12
4.43083e-12
4.13728e-12
3.26562e-12
2.0204e-12
2.1027e-12
2.80633e-12
2.22917e-12
1.28947e-12
5.17182e-13
6.1189e-13
1.88378e-12
-5.06281e-32
3.81213e-30
1.91261e-10
2.34785e-13
2.34564e-13
2.34344e-13
6.26222e-13
2.63266e-12
3.47541e-12
2.97356e-12
3.26287e-12
2.11408e-12
1.14881e-12
1.20501e-12
1.68733e-12
1.43023e-12
6.34187e-13
1.84677e-13
1.7727e-13
1.24351e-12
4.365e-30
9.19979e-10
4.31603e-10
5.05561e-13
3.76816e-13
5.93449e-14
2.07429e-13
9.04724e-13
1.47161e-12
2.03536e-12
2.2378e-12
1.21835e-12
5.87733e-13
6.29903e-13
8.90419e-13
7.94241e-13
3.47277e-13
6.88085e-14
4.66564e-14
2.56515e-13
2.14709e-21
2.86209e-10
3.07383e-12
2.33876e-13
4.40513e-14
1.48782e-14
6.05219e-14
2.97221e-13
7.20829e-13
1.29364e-12
1.31898e-12
6.33558e-13
2.79789e-13
3.07369e-13
4.21042e-13
3.73219e-13
1.68378e-13
2.56118e-14
1.05599e-14
4.34576e-14
4.48483e-13
-2.03089e-36
9.16374e-38
4.08297e-15
8.58195e-15
3.26081e-15
1.53312e-14
9.63335e-14
3.69848e-13
7.07695e-13
6.73213e-13
2.94562e-13
1.29474e-13
1.44079e-13
1.79616e-13
1.52992e-13
6.82859e-14
9.12863e-15
2.49321e-15
6.90844e-15
9.20644e-15
1.03994e-17
4.07903e-17
5.39261e-16
1.31031e-15
5.75545e-16
3.40123e-15
3.17031e-14
1.74223e-13
3.30432e-13
3.03712e-13
1.23178e-13
6.07301e-14
6.72614e-14
6.94861e-14
5.51632e-14
2.34029e-14
2.88342e-15
4.63986e-16
1.08675e-15
6.6068e-16
8.51808e-17
5.43898e-19
1.68802e-16
1.40213e-16
8.59972e-17
6.73613e-16
1.04518e-14
7.00285e-14
1.34649e-13
1.23291e-13
4.81351e-14
2.96328e-14
3.22653e-14
2.48968e-14
1.74658e-14
6.7948e-15
7.73257e-16
7.56481e-17
1.14388e-16
1.70353e-16
7.89015e-19
7.3257e-19
9.35445e-17
1.30234e-17
1.10406e-17
1.22981e-16
3.27879e-15
2.38724e-14
4.86457e-14
4.55767e-14
1.82832e-14
1.48695e-14
1.59722e-14
8.61338e-15
4.8442e-15
1.69543e-15
1.74895e-16
1.14133e-17
1.1647e-17
9.53894e-17
9.95537e-19
1.11438e-18
4.70887e-17
2.17322e-18
1.43613e-18
2.22414e-17
9.25743e-16
6.99617e-15
1.57086e-14
1.56555e-14
6.98084e-15
7.33811e-15
7.91702e-15
3.0481e-15
1.17995e-15
3.65177e-16
3.41947e-17
1.99941e-18
2.42944e-18
4.91428e-17
1.53139e-18
1.16573e-18
1.63444e-17
9.2625e-19
2.92277e-19
4.33721e-18
2.2609e-16
1.78249e-15
4.60121e-15
5.23381e-15
2.76744e-15
3.37717e-15
3.74059e-15
1.15739e-15
2.55517e-16
6.79354e-17
6.12743e-18
5.44792e-19
1.14309e-18
1.70942e-17
1.56931e-18
6.33769e-19
3.88532e-18
4.12362e-19
9.50233e-20
9.34252e-19
4.69305e-17
3.97023e-16
1.26569e-15
1.81839e-15
1.13412e-15
1.39496e-15
1.61137e-15
4.67972e-16
5.11648e-17
1.11062e-17
1.11074e-18
1.92292e-19
5.21305e-19
4.18401e-18
8.45588e-19
1.49701e-19
6.75089e-19
1.3285e-19
2.93957e-20
2.07563e-19
8.27074e-18
7.75433e-17
3.50534e-16
6.87732e-16
4.56822e-16
5.08169e-16
6.16547e-16
1.88482e-16
1.03763e-17
1.69808e-18
2.24556e-19
5.96581e-20
1.72596e-19
7.51282e-19
2.09581e-19
2.7552e-20
8.0091e-20
3.41877e-20
6.6535e-21
4.37594e-20
1.2606e-18
1.35366e-17
1.06796e-16
2.76773e-16
1.70248e-16
1.6247e-16
2.07558e-16
6.99781e-17
2.41702e-18
2.78903e-19
4.91502e-20
1.40425e-20
4.58358e-20
9.21287e-20
4.07063e-20
2.31778e-21
5.89591e-21
7.15843e-21
1.16612e-21
8.4635e-21
1.76931e-19
2.26025e-18
3.67404e-17
1.09147e-16
5.63376e-17
4.56145e-17
6.141e-17
2.28204e-17
6.64004e-19
5.56897e-20
9.98552e-21
2.59523e-21
9.90077e-21
7.11905e-21
3.67902e-21
2.71918e-23
2.74419e-22
1.14841e-21
1.67682e-22
1.47782e-21
2.63141e-20
4.17787e-19
1.31217e-17
3.88846e-17
1.6281e-17
1.1253e-17
1.59752e-17
6.4371e-18
1.87489e-19
1.23345e-20
1.65449e-21
3.86156e-22
1.64667e-21
3.49218e-22
5.38873e-23
1.78456e-26
1.46303e-23
1.37308e-22
1.91327e-23
2.22917e-22
4.76148e-21
9.65171e-20
4.31865e-18
1.20054e-17
4.1001e-18
2.43965e-18
3.64891e-18
1.572e-18
4.67017e-20
2.43993e-21
2.14016e-22
4.5148e-23
2.04712e-22
1.86893e-23
3.57309e-26
2.95974e-28
1.27856e-24
1.16356e-23
1.6226e-24
2.75772e-23
9.66143e-22
2.51818e-20
1.22059e-18
3.18954e-18
9.01892e-19
4.64492e-19
7.29384e-19
3.33319e-19
9.66445e-21
3.82761e-22
2.15858e-23
3.94457e-24
1.81847e-23
1.68522e-24
4.28993e-28
1.28038e-29
6.56761e-26
6.39552e-25
9.71494e-26
2.71994e-24
1.75119e-22
5.99372e-21
2.92214e-19
7.33494e-19
1.73591e-19
7.79005e-20
1.26937e-19
6.13103e-20
1.67393e-21
4.74076e-23
1.68473e-24
2.4021e-25
1.06166e-24
9.41661e-26
2.07088e-29
1.75346e-31
1.44139e-27
1.95106e-26
3.8603e-27
2.1074e-25
2.48667e-23
1.16597e-21
5.98343e-20
1.46743e-19
2.92876e-20
1.17237e-20
1.91172e-20
9.72851e-21
2.47546e-22
4.73351e-24
9.82808e-26
9.20165e-27
3.52439e-26
2.29492e-27
3.19867e-31
5.31209e-34
8.56681e-30
2.38941e-28
1.10581e-28
1.2626e-26
2.74533e-24
1.85939e-22
1.05648e-20
2.55396e-20
4.37037e-21
1.6847e-21
2.48192e-21
1.3194e-21
3.15829e-23
3.78757e-25
4.03714e-27
1.95396e-28
4.93951e-28
1.76531e-29
1.28986e-33
2.6529e-37
6.24534e-33
6.99664e-31
8.03651e-30
5.79801e-28
2.40767e-25
2.50056e-23
1.60675e-21
3.85201e-21
5.97883e-22
2.65387e-22
2.80069e-22
1.51404e-22
3.52045e-24
2.34201e-26
1.16265e-28
4.66742e-30
1.69721e-30
2.19555e-32
9.94598e-37
1.36239e-41
3.67413e-37
1.0008e-32
1.47416e-30
2.0652e-29
1.65801e-26
2.85706e-24
2.08455e-22
5.02081e-22
8.30506e-23
5.19623e-23
2.89531e-23
1.46715e-23
3.63934e-25
1.11535e-27
3.98502e-30
7.77454e-31
1.59422e-33
1.81257e-36
8.23542e-41
4.4449e-44
4.49743e-38
2.64994e-33
1.7007e-31
5.69904e-31
8.45177e-28
2.73526e-25
2.27542e-23
5.72774e-23
1.37529e-23
1.15746e-23
3.21979e-24
1.25111e-24
4.13728e-26
6.1277e-29
3.50826e-31
1.16896e-31
1.71106e-34
1.11212e-39
-1.54634e-43
1.30513e-44
1.11827e-38
3.16907e-34
1.27336e-32
1.09294e-32
2.91492e-29
2.17562e-26
2.0734e-24
6.12493e-24
2.78789e-24
2.36979e-24
4.70365e-25
1.12759e-25
6.06431e-27
8.85374e-30
3.38928e-32
9.90664e-33
2.16005e-35
2.16844e-40
-1.03321e-42
6.2644e-63
8.68849e-40
2.16344e-35
7.46767e-34
2.26141e-34
6.56913e-31
1.53476e-27
1.62783e-25
7.36934e-25
5.69447e-25
3.97857e-25
8.23473e-26
1.44609e-26
9.83232e-28
1.61883e-30
1.89923e-33
6.99507e-34
1.33393e-36
6.12781e-42
-1.17815e-42
-6.53852e-44
8.73669e-42
7.06309e-37
2.67276e-35
1.40806e-35
2.08341e-32
1.24718e-28
1.31057e-26
1.1744e-25
9.7876e-26
5.48281e-26
1.29104e-26
2.39509e-27
1.33721e-28
1.7867e-31
6.56064e-35
3.27271e-35
8.3033e-38
-2.30793e-41
-6.01393e-43
-1.25345e-43
-2.95874e-41
3.98521e-39
4.67563e-37
6.16385e-37
2.60732e-33
1.47985e-29
1.5038e-27
2.11372e-26
1.36011e-26
6.37705e-27
1.58051e-27
3.44567e-28
1.38218e-29
1.28922e-32
1.46099e-36
8.37853e-37
2.3338e-39
-7.5535e-41
-2.61245e-43
-6.02056e-44
-3.74484e-41
-1.67722e-42
2.41947e-39
1.43423e-38
2.97065e-34
1.89882e-30
2.30065e-28
3.25652e-27
1.57179e-27
6.28692e-28
1.54619e-28
3.69733e-29
1.11513e-30
6.99878e-34
1.79723e-38
8.82931e-39
1.24412e-41
-8.35993e-41
-1.26032e-43
-3.02455e-44
-2.64651e-41
-6.47174e-42
-2.53981e-41
1.11324e-39
2.01615e-35
1.82835e-31
3.05224e-29
3.90581e-28
1.53551e-28
5.12522e-29
1.25469e-29
3.14863e-30
7.13023e-32
2.77703e-35
1.5934e-39
-3.17491e-41
-1.53568e-41
-6.02228e-41
-6.74382e-44
-1.37165e-44
-1.60613e-41
-5.90027e-42
-3.50891e-41
4.38357e-40
1.05852e-36
1.26243e-32
2.95502e-30
3.78431e-29
1.2455e-29
3.31151e-30
8.29195e-31
2.2174e-31
3.45774e-33
8.83785e-37
5.55537e-40
-7.08879e-41
-1.4659e-41
-3.56255e-41
-3.00811e-44
-6.22042e-45
-9.20443e-42
-4.96639e-42
-3.5646e-41
1.1658e-40
5.6298e-38
6.67736e-34
2.24076e-31
3.05309e-30
8.03155e-31
1.61749e-31
4.18107e-32
1.22099e-32
1.15787e-34
3.78094e-38
8.10963e-41
-7.14836e-41
-1.22494e-41
-2.0019e-41
-1.33739e-44
-2.79808e-45
-5.01881e-42
-3.99581e-42
-3.40556e-41
-2.69012e-42
6.77759e-39
2.61743e-35
1.39073e-32
1.99552e-31
3.90172e-32
5.72118e-33
1.48146e-33
4.75778e-34
2.38837e-36
5.41746e-39
-4.73898e-41
-6.77175e-41
-9.7442e-42
-1.074e-41
-5.88507e-45
-1.23495e-45
-2.61411e-42
-3.08636e-42
-3.11221e-41
-3.09155e-41
1.34857e-39
6.64215e-37
6.55957e-34
9.86312e-33
1.34449e-33
1.55101e-34
3.32829e-35
1.1832e-35
2.80767e-38
9.58308e-40
-1.0197e-40
-6.15128e-41
-7.44103e-42
-5.51558e-42
-2.53875e-45
-5.29971e-46
-1.30427e-42
-2.2943e-42
-2.74062e-41
-4.85457e-41
1.84731e-40
9.39115e-39
2.08432e-35
3.39619e-34
3.10355e-35
6.67157e-36
3.90925e-37
1.57168e-37
2.25673e-40
7.92119e-41
-1.28722e-40
-5.38683e-41
-5.47077e-42
-2.7174e-42
-1.06614e-45
-2.19871e-46
-6.24762e-43
-1.6447e-42
-2.33301e-41
-5.68084e-41
4.28915e-42
6.67276e-41
3.91503e-37
7.32411e-36
6.38222e-37
7.15337e-37
2.27545e-39
7.00955e-40
-6.99222e-42
-1.78493e-41
-1.35064e-40
-4.56228e-41
-3.88078e-42
-1.28694e-42
-4.34077e-46
-8.79931e-47
-2.87897e-43
-1.13894e-42
-1.9246e-41
-5.82697e-41
-1.4762e-41
-3.73224e-42
3.27905e-39
7.92902e-38
4.37016e-38
6.24422e-38
9.1067e-41
-1.1799e-42
-1.11522e-41
-3.99313e-41
-1.2918e-40
-3.74637e-41
-2.66076e-42
-5.86967e-43
-1.71014e-46
-3.39804e-47
-1.27862e-43
-7.63058e-43
-1.54172e-41
-5.53777e-41
-2.23956e-41
-6.04205e-42
5.16546e-42
3.01718e-40
4.30478e-39
3.42257e-39
5.74131e-42
-2.60558e-42
-1.21636e-41
-4.90598e-41
-1.17182e-40
-2.9886e-41
-1.76596e-42
-2.58275e-43
-6.51528e-47
-1.26717e-47
-5.48274e-44
-4.95304e-43
-1.20109e-41
-5.00632e-41
-2.50071e-41
-6.48709e-42
-1.44559e-42
5.60594e-42
2.39446e-40
1.56287e-40
-3.12717e-43
-3.0226e-42
-1.28505e-41
-5.14822e-41
-1.02685e-40
-2.31937e-41
-1.13619e-42
-1.09824e-43
-2.40103e-47
-4.56663e-48
-2.27369e-44
-3.11898e-43
-9.11107e-42
-4.36148e-41
-2.51406e-41
-6.71063e-42
-1.67121e-42
1.4383e-43
1.01825e-41
4.92357e-42
-7.69442e-43
-3.2892e-42
-1.32463e-41
-5.06365e-41
-8.7592e-41
-1.75308e-41
-7.09551e-43
-4.52023e-44
-8.56563e-48
-1.59196e-48
-9.13376e-45
-1.90772e-43
-6.73621e-42
-3.68559e-41
-2.40651e-41
-6.779e-42
-1.79296e-42
-3.59277e-43
1.97965e-43
-1.28375e-43
-9.082e-43
-3.46674e-42
-1.33401e-41
-4.8018e-41
-7.29461e-41
-1.29177e-41
-4.30633e-43
-1.80371e-44
-2.96139e-48
-5.37854e-49
-3.55994e-45
-1.13473e-43
-4.85863e-42
-3.0316e-41
-2.2321e-41
-6.69497e-42
-1.85772e-42
-4.90455e-43
-1.38606e-43
-3.20085e-43
-9.70483e-43
-3.57011e-42
-1.31355e-41
-4.42798e-41
-5.93834e-41
-9.28783e-42
-2.54288e-43
-6.9886e-45
-9.9357e-49
-1.76439e-49
-1.34831e-45
-6.57095e-44
-3.42174e-42
-2.43277e-41
-2.01691e-41
-6.46833e-42
-1.87883e-42
-5.31471e-43
-1.79483e-43
-3.48348e-43
-1.00767e-42
-3.59932e-42
-1.26534e-41
-3.98191e-41
-4.72915e-41
-6.52194e-42
-1.46259e-43
-2.63336e-45
-3.24051e-49
-5.62288e-50
-4.97021e-46
-3.7085e-44
-2.355e-42
-1.90765e-41
-1.77899e-41
-6.11674e-42
-1.86027e-42
-5.44804e-43
-1.85429e-43
-3.53135e-43
-1.0249e-42
-3.55462e-42
-1.19308e-41
-3.49683e-41
-3.68679e-41
-4.47659e-42
-8.20279e-44
-9.66519e-46
-1.0287e-49
-1.73823e-50
-1.78602e-46
-2.042e-44
-1.58531e-42
-1.46358e-41
-1.53357e-41
-5.6642e-42
-1.80472e-42
-5.44766e-43
-1.84676e-43
-3.50382e-43
-1.02192e-42
-3.44011e-42
-1.10166e-41
-3.00203e-41
-2.81545e-41
-3.00601e-42
-4.49042e-44
-3.46093e-46
-3.18141e-50
-5.21659e-51
-6.2667e-47
-1.0981e-44
-1.04467e-42
-1.09977e-41
-1.29332e-41
-5.13867e-42
-1.71626e-42
-5.33943e-43
-1.80328e-43
-3.41092e-43
-9.99248e-43
-3.26377e-42
-9.96666e-42
-2.52181e-41
-2.1075e-41
-1.97635e-42
-2.40178e-44
-1.21111e-46
-9.59358e-51
-1.52702e-51
-2.15069e-47
-5.77281e-45
-6.74428e-43
-8.10116e-42
-1.06794e-41
-4.56938e-42
-1.60054e-42
-5.13351e-43
-1.72814e-43
-3.25905e-43
-9.58512e-43
-3.03669e-42
-8.83843e-42
-2.07455e-41
-1.54735e-41
-1.27325e-42
-1.25636e-44
-4.14909e-47
-2.82323e-51
-4.39075e-52
-7.23275e-48
-2.96966e-45
-4.26907e-43
-5.85467e-42
-8.64113e-42
-3.98437e-42
-1.4643e-42
-4.84316e-43
-1.62598e-43
-3.0574e-43
-9.02281e-43
-2.77194e-42
-7.6865e-42
-1.67256e-41
-1.11506e-41
-8.04421e-43
-6.43341e-45
-1.39416e-47
-8.11644e-52
-1.24442e-52
-2.38825e-48
-1.49626e-45
-2.65161e-43
-4.15424e-42
-6.85622e-42
-3.40847e-42
-1.31476e-42
-4.4853e-43
-1.50253e-43
-2.81714e-43
-8.33794e-43
-2.48337e-42
-6.55864e-42
-1.32249e-41
-7.8918e-42
-4.98774e-43
-3.22777e-45
-4.60416e-48
-2.28142e-52
-3.46931e-53
-7.75996e-49
-7.39071e-46
-1.6173e-43
-2.89614e-42
-5.33811e-42
-2.86194e-42
-1.15901e-42
-4.07905e-43
-1.36412e-43
-2.55043e-43
-7.56667e-43
-2.18446e-42
-5.49331e-42
-1.02625e-41
-5.48908e-42
-3.03736e-43
-1.58811e-45
-1.49775e-48
-6.28366e-53
-9.46851e-54
-2.48715e-49
-3.58199e-46
-9.69394e-44
-1.98509e-42
-4.08095e-42
-2.35976e-42
-1.00352e-42
-3.6441e-43
-1.21721e-43
-2.26949e-43
-6.74589e-43
-1.88742e-42
-4.51853e-42
-7.82074e-42
-3.75443e-42
-1.81792e-43
-7.66917e-46
-4.8114e-49
-1.70222e-53
-2.53581e-54
-7.88517e-50
-1.70487e-46
-5.71404e-44
-1.33861e-42
-3.06537e-42
-1.91157e-42
-8.53769e-43
-3.19925e-43
-1.06787e-43
-1.98569e-43
-5.9105e-43
-1.60249e-42
-3.65182e-42
-5.8567e-42
-2.52685e-42
-1.07014e-43
-3.63797e-46
-1.53061e-49
-4.55913e-54
-6.7147e-55
-2.48046e-50
-7.97517e-47
-3.31448e-44
-8.88625e-43
-2.26371e-42
-1.52207e-42
-7.14029e-43
-2.76118e-43
-9.21459e-44
-1.70893e-43
-5.09125e-43
-1.33754e-42
-2.90123e-42
-4.31259e-42
-1.67444e-42
-6.19987e-44
-1.69652e-46
-4.8369e-50
-1.21272e-54
-1.77547e-55
-7.76818e-51
-3.66959e-47
-1.89322e-44
-5.81081e-43
-1.64453e-42
-1.19183e-42
-5.87266e-43
-2.34369e-43
-7.82345e-44
-1.44723e-43
-4.31328e-43
-1.09796e-42
-2.26687e-42
-3.12441e-42
-1.09314e-42
-3.53736e-44
-7.78355e-47
-1.52322e-50
-3.22112e-55
-4.71192e-56
-2.43027e-51
-1.66211e-47
-1.06554e-44
-3.7451e-43
-1.17598e-42
-9.18215e-43
-4.75208e-43
-1.95719e-43
-6.53815e-44
-1.20646e-43
-3.59539e-43
-8.86797e-43
-1.74284e-42
-2.22845e-42
-7.03469e-43
-1.98881e-44
-3.51583e-47
-4.79519e-51
-8.56395e-56
-1.25911e-56
-7.62009e-52
-7.41637e-48
-5.91254e-45
-2.38039e-43
-8.28229e-43
-6.96362e-43
-3.78488e-43
-1.60866e-43
-5.38041e-44
-9.90447e-44
-2.94992e-43
-7.05029e-43
-1.31914e-42
-1.56565e-42
-4.46499e-43
-1.10249e-44
-1.56464e-47
-1.51319e-51
-2.27982e-56
-3.36349e-57
-2.40198e-52
-3.26233e-48
-3.23635e-45
-1.49288e-43
-5.74837e-43
-5.2012e-43
-2.96845e-43
-1.30189e-43
-4.36168e-44
-8.0105e-44
-2.38331e-43
-5.51986e-43
-9.83416e-43
-1.08416e-42
-2.79663e-43
-6.02916e-45
-6.86485e-48
-4.79689e-52
-6.07236e-57
-8.94314e-58
-7.63271e-53
-1.41571e-48
-1.74839e-45
-9.24309e-44
-3.93391e-43
-3.82794e-43
-2.29358e-43
-1.03787e-43
-3.48452e-44