/*--------------------------------*- C++ -*----------------------------------*\
| =========                 |                                                 |
| \\      /  F ield         | OpenFOAM: The Open Source CFD Toolbox           |
|  \\    /   O peration     | Version:  5.x                                   |
|   \\  /    A nd           | Web:      www.OpenFOAM.org                      |
|    \\/     M anipulation  |                                                 |
\*---------------------------------------------------------------------------*/
FoamFile
{
    version     2.0;
    format      ascii;
    class       volScalarField;
    location    "0.4";
    object      p;
}
// * * * * * * * * * * * * * * * * * * * * * * * * * * * * * * * * * * * * * //

dimensions      [1 -1 -2 0 0 0 0];

internalField   nonuniform List<scalar> 
8000
(
-0.250638
-0.250638
-0.250638
-0.250638
-0.250638
-0.250638
-0.250638
-0.250638
-0.250638
-0.250638
-0.250638
-0.250638
-0.250638
-0.250638
-0.250638
-0.250638
-0.250638
-0.250638
-0.250638
-0.250638
-0.751914
-0.751913
-0.751913
-0.751913
-0.751913
-0.751913
-0.751913
-0.751913
-0.751913
-0.751913
-0.751914
-0.751914
-0.751914
-0.751914
-0.751914
-0.751914
-0.751914
-0.751914
-0.751914
-0.751914
-1.25319
-1.25319
-1.25319
-1.25319
-1.25319
-1.25319
-1.25319
-1.25319
-1.25319
-1.25319
-1.25319
-1.25319
-1.25319
-1.25319
-1.25319
-1.25319
-1.25319
-1.25319
-1.25319
-1.25319
-1.75446
-1.75446
-1.75446
-1.75446
-1.75446
-1.75446
-1.75446
-1.75446
-1.75446
-1.75446
-1.75446
-1.75446
-1.75446
-1.75447
-1.75447
-1.75447
-1.75447
-1.75447
-1.75446
-1.75447
-2.25574
-2.25574
-2.25574
-2.25574
-2.25574
-2.25574
-2.25574
-2.25574
-2.25574
-2.25574
-2.25574
-2.25574
-2.25574
-2.25574
-2.25574
-2.25574
-2.25574
-2.25574
-2.25574
-2.25574
-2.75702
-2.75702
-2.75702
-2.75702
-2.75702
-2.75702
-2.75702
-2.75702
-2.75702
-2.75702
-2.75702
-2.75702
-2.75702
-2.75702
-2.75702
-2.75702
-2.75702
-2.75702
-2.75702
-2.75702
-3.25829
-3.25829
-3.25829
-3.25829
-3.25829
-3.25829
-3.25829
-3.25829
-3.25829
-3.25829
-3.25829
-3.25829
-3.25829
-3.25829
-3.25829
-3.25829
-3.25829
-3.25829
-3.25829
-3.25829
-3.75957
-3.75957
-3.75957
-3.75957
-3.75957
-3.75957
-3.75957
-3.75957
-3.75957
-3.75957
-3.75957
-3.75957
-3.75957
-3.75957
-3.75957
-3.75957
-3.75957
-3.75957
-3.75957
-3.75957
-4.26084
-4.26084
-4.26084
-4.26084
-4.26084
-4.26084
-4.26084
-4.26084
-4.26084
-4.26084
-4.26084
-4.26084
-4.26084
-4.26084
-4.26084
-4.26084
-4.26084
-4.26084
-4.26084
-4.26084
-4.76212
-4.76212
-4.76212
-4.76212
-4.76212
-4.76212
-4.76212
-4.76212
-4.76212
-4.76212
-4.76212
-4.76212
-4.76212
-4.76212
-4.76212
-4.76212
-4.76212
-4.76212
-4.76212
-4.76212
-5.26339
-5.26339
-5.26339
-5.26339
-5.26339
-5.26339
-5.26339
-5.26339
-5.26339
-5.26339
-5.26339
-5.26339
-5.26339
-5.26339
-5.26339
-5.26339
-5.26339
-5.26339
-5.26339
-5.26339
-5.76467
-5.76467
-5.76467
-5.76467
-5.76467
-5.76467
-5.76467
-5.76467
-5.76467
-5.76467
-5.76467
-5.76467
-5.76467
-5.76467
-5.76467
-5.76467
-5.76467
-5.76467
-5.76467
-5.76467
-6.26594
-6.26594
-6.26594
-6.26594
-6.26594
-6.26594
-6.26594
-6.26594
-6.26594
-6.26594
-6.26594
-6.26594
-6.26594
-6.26594
-6.26595
-6.26595
-6.26595
-6.26595
-6.26595
-6.26595
-6.76722
-6.76722
-6.76722
-6.76722
-6.76722
-6.76722
-6.76722
-6.76722
-6.76722
-6.76722
-6.76722
-6.76722
-6.76722
-6.76722
-6.76722
-6.76722
-6.76722
-6.76722
-6.76722
-6.76722
-7.26849
-7.26849
-7.26849
-7.26849
-7.26849
-7.26849
-7.26849
-7.26849
-7.26849
-7.26849
-7.26849
-7.2685
-7.2685
-7.2685
-7.2685
-7.2685
-7.2685
-7.2685
-7.2685
-7.2685
-7.76977
-7.76977
-7.76977
-7.76977
-7.76977
-7.76977
-7.76977
-7.76977
-7.76977
-7.76977
-7.76977
-7.76977
-7.76977
-7.76977
-7.76977
-7.76977
-7.76977
-7.76977
-7.76977
-7.76977
-8.27104
-8.27104
-8.27104
-8.27104
-8.27104
-8.27104
-8.27104
-8.27104
-8.27104
-8.27105
-8.27105
-8.27105
-8.27105
-8.27105
-8.27105
-8.27105
-8.27105
-8.27105
-8.27105
-8.27105
-8.77232
-8.77232
-8.77232
-8.77232
-8.77232
-8.77232
-8.77232
-8.77232
-8.77232
-8.77232
-8.77232
-8.77232
-8.77232
-8.77232
-8.77232
-8.77233
-8.77233
-8.77233
-8.77233
-8.77233
-9.27359
-9.27359
-9.27359
-9.27359
-9.27359
-9.27359
-9.27359
-9.2736
-9.2736
-9.2736
-9.2736
-9.2736
-9.2736
-9.2736
-9.2736
-9.2736
-9.2736
-9.2736
-9.2736
-9.2736
-9.77487
-9.77487
-9.77487
-9.77487
-9.77487
-9.77487
-9.77487
-9.77487
-9.77487
-9.77487
-9.77487
-9.77487
-9.77488
-9.77488
-9.77488
-9.77488
-9.77488
-9.77488
-9.77488
-9.77488
-10.2761
-10.2761
-10.2761
-10.2761
-10.2761
-10.2761
-10.2761
-10.2761
-10.2761
-10.2761
-10.2761
-10.2762
-10.2762
-10.2762
-10.2762
-10.2762
-10.2762
-10.2762
-10.2762
-10.2762
-10.7774
-10.7774
-10.7774
-10.7774
-10.7774
-10.7774
-10.7774
-10.7774
-10.7774
-10.7774
-10.7774
-10.7774
-10.7774
-10.7774
-10.7774
-10.7774
-10.7774
-10.7774
-10.7774
-10.7774
-11.2787
-11.2787
-11.2787
-11.2787
-11.2787
-11.2787
-11.2787
-11.2787
-11.2787
-11.2787
-11.2787
-11.2787
-11.2787
-11.2787
-11.2787
-11.2787
-11.2787
-11.2787
-11.2787
-11.2787
-11.78
-11.78
-11.78
-11.78
-11.78
-11.78
-11.78
-11.78
-11.78
-11.78
-11.78
-11.78
-11.78
-11.78
-11.78
-11.78
-11.78
-11.78
-11.78
-11.78
-12.2812
-12.2812
-12.2812
-12.2812
-12.2812
-12.2812
-12.2813
-12.2813
-12.2813
-12.2813
-12.2813
-12.2813
-12.2813
-12.2813
-12.2813
-12.2813
-12.2813
-12.2813
-12.2813
-12.2813
-12.7825
-12.7825
-12.7825
-12.7825
-12.7825
-12.7825
-12.7825
-12.7825
-12.7825
-12.7825
-12.7825
-12.7825
-12.7825
-12.7825
-12.7825
-12.7825
-12.7825
-12.7825
-12.7825
-12.7825
-13.2838
-13.2838
-13.2838
-13.2838
-13.2838
-13.2838
-13.2838
-13.2838
-13.2838
-13.2838
-13.2838
-13.2838
-13.2838
-13.2838
-13.2838
-13.2838
-13.2838
-13.2838
-13.2838
-13.2838
-13.7851
-13.7851
-13.7851
-13.7851
-13.7851
-13.7851
-13.7851
-13.7851
-13.7851
-13.7851
-13.7851
-13.7851
-13.7851
-13.7851
-13.7851
-13.7851
-13.7851
-13.7851
-13.7851
-13.7851
-14.2864
-14.2864
-14.2864
-14.2864
-14.2864
-14.2864
-14.2864
-14.2864
-14.2864
-14.2864
-14.2864
-14.2864
-14.2864
-14.2864
-14.2864
-14.2864
-14.2864
-14.2864
-14.2864
-14.2864
-14.7876
-14.7876
-14.7876
-14.7876
-14.7876
-14.7876
-14.7876
-14.7876
-14.7876
-14.7876
-14.7876
-14.7876
-14.7876
-14.7876
-14.7876
-14.7876
-14.7876
-14.7876
-14.7876
-14.7876
-15.2889
-15.2889
-15.2889
-15.2889
-15.2889
-15.2889
-15.2889
-15.2889
-15.2889
-15.2889
-15.2889
-15.2889
-15.2889
-15.2889
-15.2889
-15.2889
-15.2889
-15.2889
-15.2889
-15.2889
-15.7902
-15.7902
-15.7902
-15.7902
-15.7902
-15.7902
-15.7902
-15.7902
-15.7902
-15.7902
-15.7902
-15.7902
-15.7902
-15.7902
-15.7902
-15.7902
-15.7902
-15.7902
-15.7902
-15.7902
-16.2915
-16.2915
-16.2915
-16.2915
-16.2915
-16.2915
-16.2915
-16.2915
-16.2915
-16.2915
-16.2915
-16.2915
-16.2915
-16.2915
-16.2915
-16.2915
-16.2915
-16.2915
-16.2915
-16.2915
-16.7927
-16.7927
-16.7927
-16.7927
-16.7927
-16.7927
-16.7927
-16.7927
-16.7927
-16.7927
-16.7927
-16.7927
-16.7927
-16.7927
-16.7927
-16.7927
-16.7927
-16.7927
-16.7927
-16.7927
-17.294
-17.294
-17.294
-17.294
-17.294
-17.294
-17.294
-17.294
-17.294
-17.294
-17.294
-17.294
-17.294
-17.294
-17.294
-17.294
-17.294
-17.294
-17.294
-17.294
-17.7953
-17.7953
-17.7953
-17.7953
-17.7953
-17.7953
-17.7953
-17.7953
-17.7953
-17.7953
-17.7953
-17.7953
-17.7953
-17.7953
-17.7953
-17.7953
-17.7953
-17.7953
-17.7953
-17.7953
-18.2966
-18.2966
-18.2966
-18.2966
-18.2966
-18.2966
-18.2966
-18.2966
-18.2966
-18.2966
-18.2966
-18.2966
-18.2966
-18.2966
-18.2966
-18.2966
-18.2966
-18.2966
-18.2966
-18.2966
-18.7978
-18.7978
-18.7978
-18.7978
-18.7978
-18.7978
-18.7978
-18.7978
-18.7978
-18.7978
-18.7978
-18.7978
-18.7978
-18.7978
-18.7978
-18.7978
-18.7978
-18.7978
-18.7978
-18.7978
-19.2991
-19.2991
-19.2991
-19.2991
-19.2991
-19.2991
-19.2991
-19.2991
-19.2991
-19.2991
-19.2991
-19.2991
-19.2991
-19.2991
-19.2991
-19.2991
-19.2991
-19.2991
-19.2991
-19.2991
-19.8004
-19.8004
-19.8004
-19.8004
-19.8004
-19.8004
-19.8004
-19.8004
-19.8004
-19.8004
-19.8004
-19.8004
-19.8004
-19.8004
-19.8004
-19.8004
-19.8004
-19.8004
-19.8004
-19.8004
-20.3017
-20.3017
-20.3017
-20.3017
-20.3017
-20.3017
-20.3017
-20.3017
-20.3017
-20.3017
-20.3017
-20.3017
-20.3017
-20.3017
-20.3017
-20.3017
-20.3017
-20.3017
-20.3017
-20.3017
-20.8029
-20.8029
-20.8029
-20.8029
-20.8029
-20.8029
-20.8029
-20.8029
-20.8029
-20.8029
-20.8029
-20.8029
-20.8029
-20.8029
-20.8029
-20.8029
-20.8029
-20.8029
-20.8029
-20.8029
-21.3042
-21.3042
-21.3042
-21.3042
-21.3042
-21.3042
-21.3042
-21.3042
-21.3042
-21.3042
-21.3042
-21.3042
-21.3042
-21.3042
-21.3042
-21.3042
-21.3042
-21.3042
-21.3042
-21.3042
-21.8055
-21.8055
-21.8055
-21.8055
-21.8055
-21.8055
-21.8055
-21.8055
-21.8055
-21.8055
-21.8055
-21.8055
-21.8055
-21.8055
-21.8055
-21.8055
-21.8055
-21.8055
-21.8055
-21.8055
-22.3068
-22.3068
-22.3068
-22.3068
-22.3068
-22.3068
-22.3068
-22.3068
-22.3068
-22.3068
-22.3068
-22.3068
-22.3068
-22.3068
-22.3068
-22.3068
-22.3068
-22.3068
-22.3068
-22.3068
-22.808
-22.808
-22.808
-22.808
-22.808
-22.808
-22.808
-22.808
-22.808
-22.808
-22.808
-22.808
-22.808
-22.808
-22.808
-22.808
-22.808
-22.808
-22.808
-22.808
-23.3093
-23.3093
-23.3093
-23.3093
-23.3093
-23.3093
-23.3093
-23.3093
-23.3093
-23.3093
-23.3093
-23.3093
-23.3093
-23.3093
-23.3093
-23.3093
-23.3093
-23.3093
-23.3093
-23.3093
-23.8106
-23.8106
-23.8106
-23.8106
-23.8106
-23.8106
-23.8106
-23.8106
-23.8106
-23.8106
-23.8106
-23.8106
-23.8106
-23.8106
-23.8106
-23.8106
-23.8106
-23.8106
-23.8106
-23.8106
-24.3119
-24.3119
-24.3119
-24.3119
-24.3119
-24.3119
-24.3119
-24.3119
-24.3119
-24.3119
-24.3119
-24.3119
-24.3119
-24.3119
-24.3119
-24.3119
-24.3119
-24.3119
-24.3119
-24.3119
-24.8131
-24.8131
-24.8131
-24.8131
-24.8131
-24.8131
-24.8131
-24.8131
-24.8131
-24.8131
-24.8131
-24.8131
-24.8131
-24.8131
-24.8131
-24.8131
-24.8131
-24.8131
-24.8131
-24.8131
-25.3144
-25.3144
-25.3144
-25.3144
-25.3144
-25.3144
-25.3144
-25.3144
-25.3144
-25.3144
-25.3144
-25.3144
-25.3144
-25.3144
-25.3144
-25.3144
-25.3144
-25.3144
-25.3144
-25.3144
-25.8157
-25.8157
-25.8157
-25.8157
-25.8157
-25.8157
-25.8157
-25.8157
-25.8157
-25.8157
-25.8157
-25.8157
-25.8157
-25.8157
-25.8157
-25.8157
-25.8157
-25.8157
-25.8157
-25.8157
-26.317
-26.317
-26.317
-26.317
-26.317
-26.317
-26.317
-26.317
-26.317
-26.317
-26.317
-26.317
-26.317
-26.317
-26.317
-26.317
-26.317
-26.317
-26.317
-26.317
-26.8183
-26.8183
-26.8183
-26.8183
-26.8183
-26.8183
-26.8183
-26.8183
-26.8183
-26.8183
-26.8183
-26.8183
-26.8183
-26.8183
-26.8183
-26.8183
-26.8183
-26.8183
-26.8183
-26.8182
-27.3195
-27.3195
-27.3195
-27.3195
-27.3195
-27.3195
-27.3195
-27.3195
-27.3195
-27.3195
-27.3195
-27.3195
-27.3195
-27.3195
-27.3195
-27.3195
-27.3195
-27.3195
-27.3195
-27.3195
-27.8208
-27.8208
-27.8208
-27.8208
-27.8208
-27.8208
-27.8208
-27.8208
-27.8208
-27.8208
-27.8208
-27.8208
-27.8208
-27.8208
-27.8208
-27.8208
-27.8208
-27.8208
-27.8208
-27.8208
-28.3221
-28.3221
-28.3221
-28.3221
-28.3221
-28.3221
-28.3221
-28.3221
-28.3221
-28.3221
-28.3221
-28.3221
-28.3221
-28.3221
-28.3221
-28.3221
-28.3221
-28.3221
-28.3221
-28.3221
-28.8234
-28.8234
-28.8234
-28.8234
-28.8234
-28.8234
-28.8234
-28.8234
-28.8234
-28.8234
-28.8234
-28.8234
-28.8234
-28.8234
-28.8234
-28.8234
-28.8234
-28.8234
-28.8234
-28.8234
-29.3246
-29.3246
-29.3246
-29.3246
-29.3246
-29.3246
-29.3246
-29.3246
-29.3246
-29.3246
-29.3246
-29.3246
-29.3246
-29.3246
-29.3246
-29.3246
-29.3246
-29.3246
-29.3246
-29.3246
-29.8259
-29.8259
-29.8259
-29.8259
-29.8259
-29.8259
-29.8259
-29.8259
-29.8259
-29.8259
-29.8259
-29.8259
-29.8259
-29.8259
-29.8259
-29.8259
-29.8259
-29.8259
-29.8259
-29.8259
-30.3272
-30.3272
-30.3272
-30.3272
-30.3272
-30.3272
-30.3272
-30.3272
-30.3272
-30.3272
-30.3272
-30.3272
-30.3272
-30.3272
-30.3272
-30.3272
-30.3272
-30.3272
-30.3272
-30.3272
-30.8285
-30.8285
-30.8285
-30.8285
-30.8285
-30.8285
-30.8285
-30.8285
-30.8285
-30.8285
-30.8285
-30.8285
-30.8285
-30.8285
-30.8285
-30.8285
-30.8285
-30.8285
-30.8285
-30.8285
-31.3297
-31.3297
-31.3297
-31.3297
-31.3297
-31.3297
-31.3297
-31.3297
-31.3297
-31.3297
-31.3297
-31.3297
-31.3297
-31.3297
-31.3297
-31.3297
-31.3297
-31.3297
-31.3297
-31.3297
-31.831
-31.831
-31.831
-31.831
-31.831
-31.831
-31.831
-31.831
-31.831
-31.831
-31.831
-31.831
-31.831
-31.831
-31.831
-31.831
-31.831
-31.831
-31.831
-31.831
-32.3323
-32.3323
-32.3323
-32.3323
-32.3323
-32.3323
-32.3323
-32.3323
-32.3323
-32.3323
-32.3323
-32.3323
-32.3323
-32.3323
-32.3323
-32.3323
-32.3323
-32.3323
-32.3323
-32.3323
-32.8336
-32.8336
-32.8336
-32.8336
-32.8336
-32.8336
-32.8336
-32.8336
-32.8336
-32.8336
-32.8336
-32.8336
-32.8336
-32.8336
-32.8336
-32.8336
-32.8336
-32.8336
-32.8336
-32.8336
-33.3348
-33.3348
-33.3348
-33.3348
-33.3348
-33.3348
-33.3348
-33.3348
-33.3348
-33.3348
-33.3348
-33.3348
-33.3348
-33.3348
-33.3348
-33.3348
-33.3348
-33.3348
-33.3348
-33.3348
-33.8361
-33.8361
-33.8361
-33.8361
-33.8361
-33.8361
-33.8361
-33.8361
-33.8361
-33.8361
-33.8361
-33.8361
-33.8361
-33.8361
-33.8361
-33.8361
-33.8361
-33.8361
-33.8361
-33.8361
-34.3374
-34.3374
-34.3374
-34.3374
-34.3374
-34.3374
-34.3374
-34.3374
-34.3374
-34.3374
-34.3374
-34.3374
-34.3374
-34.3374
-34.3374
-34.3374
-34.3374
-34.3374
-34.3374
-34.3374
-34.8387
-34.8387
-34.8387
-34.8387
-34.8387
-34.8387
-34.8387
-34.8387
-34.8387
-34.8387
-34.8387
-34.8387
-34.8387
-34.8387
-34.8387
-34.8387
-34.8387
-34.8387
-34.8387
-34.8387
-35.3399
-35.3399
-35.3399
-35.3399
-35.3399
-35.3399
-35.3399
-35.3399
-35.3399
-35.3399
-35.3399
-35.3399
-35.3399
-35.3399
-35.3399
-35.3399
-35.3399
-35.3399
-35.3399
-35.3399
-35.8412
-35.8412
-35.8412
-35.8412
-35.8412
-35.8412
-35.8412
-35.8412
-35.8412
-35.8412
-35.8412
-35.8412
-35.8412
-35.8412
-35.8412
-35.8412
-35.8412
-35.8412
-35.8412
-35.8412
-36.3425
-36.3425
-36.3425
-36.3425
-36.3425
-36.3425
-36.3425
-36.3425
-36.3425
-36.3425
-36.3425
-36.3425
-36.3425
-36.3425
-36.3425
-36.3425
-36.3425
-36.3425
-36.3425
-36.3425
-36.8438
-36.8438
-36.8438
-36.8438
-36.8438
-36.8438
-36.8438
-36.8438
-36.8438
-36.8438
-36.8438
-36.8438
-36.8438
-36.8438
-36.8438
-36.8438
-36.8438
-36.8438
-36.8438
-36.8438
-37.345
-37.345
-37.345
-37.345
-37.345
-37.345
-37.345
-37.345
-37.345
-37.345
-37.345
-37.345
-37.345
-37.345
-37.345
-37.345
-37.345
-37.345
-37.345
-37.345
-37.8463
-37.8463
-37.8463
-37.8463
-37.8463
-37.8463
-37.8463
-37.8463
-37.8463
-37.8463
-37.8463
-37.8463
-37.8463
-37.8463
-37.8463
-37.8463
-37.8463
-37.8463
-37.8463
-37.8463
-38.3476
-38.3476
-38.3476
-38.3476
-38.3476
-38.3476
-38.3476
-38.3476
-38.3476
-38.3476
-38.3476
-38.3476
-38.3476
-38.3476
-38.3476
-38.3476
-38.3476
-38.3476
-38.3476
-38.3476
-38.8489
-38.8489
-38.8489
-38.8489
-38.8489
-38.8489
-38.8489
-38.8489
-38.8489
-38.8489
-38.8489
-38.8489
-38.8489
-38.8489
-38.8489
-38.8489
-38.8489
-38.8489
-38.8489
-38.8489
-39.3501
-39.3501
-39.3501
-39.3501
-39.3501
-39.3501
-39.3501
-39.3501
-39.3501
-39.3501
-39.3501
-39.3501
-39.3501
-39.3501
-39.3501
-39.3501
-39.3501
-39.3501
-39.3501
-39.3501
-39.8514
-39.8514
-39.8514
-39.8514
-39.8514
-39.8514
-39.8514
-39.8514
-39.8514
-39.8514
-39.8514
-39.8514
-39.8514
-39.8514
-39.8514
-39.8514
-39.8514
-39.8514
-39.8514
-39.8514
-40.3527
-40.3527
-40.3527
-40.3527
-40.3527
-40.3527
-40.3527
-40.3527
-40.3527
-40.3527
-40.3527
-40.3527
-40.3527
-40.3527
-40.3527
-40.3527
-40.3527
-40.3527
-40.3527
-40.3527
-40.854
-40.854
-40.854
-40.854
-40.854
-40.854
-40.854
-40.854
-40.854
-40.854
-40.854
-40.854
-40.854
-40.854
-40.854
-40.854
-40.854
-40.854
-40.854
-40.854
-41.3553
-41.3553
-41.3553
-41.3553
-41.3553
-41.3553
-41.3553
-41.3553
-41.3553
-41.3553
-41.3553
-41.3553
-41.3553
-41.3553
-41.3553
-41.3553
-41.3553
-41.3553
-41.3553
-41.3553
-41.8565
-41.8565
-41.8565
-41.8565
-41.8565
-41.8565
-41.8565
-41.8565
-41.8565
-41.8565
-41.8565
-41.8565
-41.8565
-41.8565
-41.8565
-41.8565
-41.8565
-41.8565
-41.8565
-41.8565
-42.3578
-42.3578
-42.3578
-42.3578
-42.3578
-42.3578
-42.3578
-42.3578
-42.3578
-42.3578
-42.3578
-42.3578
-42.3578
-42.3578
-42.3578
-42.3578
-42.3578
-42.3578
-42.3578
-42.3578
-42.8591
-42.8591
-42.8591
-42.8591
-42.8591
-42.8591
-42.8591
-42.8591
-42.8591
-42.8591
-42.8591
-42.8591
-42.8591
-42.8591
-42.8591
-42.8591
-42.8591
-42.8591
-42.8591
-42.8591
-43.3604
-43.3604
-43.3604
-43.3604
-43.3604
-43.3604
-43.3604
-43.3604
-43.3604
-43.3604
-43.3604
-43.3604
-43.3604
-43.3604
-43.3604
-43.3604
-43.3604
-43.3604
-43.3604
-43.3604
-43.8616
-43.8616
-43.8616
-43.8616
-43.8616
-43.8616
-43.8616
-43.8616
-43.8616
-43.8616
-43.8616
-43.8616
-43.8616
-43.8616
-43.8616
-43.8616
-43.8616
-43.8616
-43.8616
-43.8616
-44.3629
-44.3629
-44.3629
-44.3629
-44.3629
-44.3629
-44.3629
-44.3629
-44.3629
-44.3629
-44.3629
-44.3629
-44.3629
-44.3629
-44.3629
-44.3629
-44.3629
-44.3629
-44.3629
-44.3629
-44.8642
-44.8642
-44.8642
-44.8642
-44.8642
-44.8642
-44.8642
-44.8642
-44.8642
-44.8642
-44.8642
-44.8642
-44.8642
-44.8642
-44.8642
-44.8642
-44.8642
-44.8642
-44.8642
-44.8642
-45.3655
-45.3655
-45.3655
-45.3655
-45.3655
-45.3655
-45.3655
-45.3655
-45.3655
-45.3655
-45.3655
-45.3655
-45.3655
-45.3655
-45.3655
-45.3655
-45.3655
-45.3655
-45.3655
-45.3655
-45.8667
-45.8667
-45.8667
-45.8667
-45.8667
-45.8667
-45.8667
-45.8667
-45.8667
-45.8667
-45.8667
-45.8667
-45.8667
-45.8667
-45.8667
-45.8667
-45.8667
-45.8667
-45.8667
-45.8667
-46.368
-46.368
-46.368
-46.368
-46.368
-46.368
-46.368
-46.368
-46.368
-46.368
-46.368
-46.368
-46.368
-46.368
-46.368
-46.368
-46.368
-46.368
-46.368
-46.368
-46.8693
-46.8693
-46.8693
-46.8693
-46.8693
-46.8693
-46.8693
-46.8693
-46.8693
-46.8693
-46.8693
-46.8693
-46.8693
-46.8693
-46.8693
-46.8693
-46.8693
-46.8693
-46.8693
-46.8693
-47.3706
-47.3706
-47.3706
-47.3706
-47.3706
-47.3706
-47.3706
-47.3706
-47.3706
-47.3706
-47.3706
-47.3706
-47.3706
-47.3706
-47.3706
-47.3706
-47.3706
-47.3706
-47.3706
-47.3706
-47.8718
-47.8718
-47.8718
-47.8718
-47.8718
-47.8718
-47.8718
-47.8718
-47.8718
-47.8718
-47.8718
-47.8718
-47.8718
-47.8718
-47.8718
-47.8718
-47.8718
-47.8718
-47.8718
-47.8718
-48.3731
-48.3731
-48.3731
-48.3731
-48.3731
-48.3731
-48.3731
-48.3731
-48.3731
-48.3731
-48.3731
-48.3731
-48.3731
-48.3731
-48.3731
-48.3731
-48.3731
-48.3731
-48.3731
-48.3731
-48.8744
-48.8744
-48.8744
-48.8744
-48.8744
-48.8744
-48.8744
-48.8744
-48.8744
-48.8744
-48.8744
-48.8744
-48.8744
-48.8744
-48.8744
-48.8744
-48.8744
-48.8744
-48.8744
-48.8744
-49.3757
-49.3757
-49.3757
-49.3757
-49.3757
-49.3757
-49.3757
-49.3757
-49.3757
-49.3757
-49.3757
-49.3757
-49.3757
-49.3757
-49.3757
-49.3757
-49.3757
-49.3757
-49.3757
-49.3757
-49.8769
-49.8769
-49.8769
-49.8769
-49.8769
-49.8769
-49.8769
-49.8769
-49.8769
-49.8769
-49.8769
-49.8769
-49.8769
-49.8769
-49.8769
-49.8769
-49.8769
-49.8769
-49.8769
-49.8769
-50.3782
-50.3782
-50.3782
-50.3782
-50.3782
-50.3782
-50.3782
-50.3782
-50.3782
-50.3782
-50.3782
-50.3782
-50.3782
-50.3782
-50.3782
-50.3782
-50.3782
-50.3782
-50.3782
-50.3782
-50.8795
-50.8795
-50.8795
-50.8795
-50.8795
-50.8795
-50.8795
-50.8795
-50.8795
-50.8795
-50.8795
-50.8795
-50.8795
-50.8795
-50.8795
-50.8795
-50.8795
-50.8795
-50.8795
-50.8795
-51.3808
-51.3808
-51.3808
-51.3808
-51.3808
-51.3808
-51.3808
-51.3808
-51.3808
-51.3808
-51.3808
-51.3808
-51.3808
-51.3808
-51.3808
-51.3808
-51.3808
-51.3808
-51.3808
-51.3808
-51.882
-51.882
-51.882
-51.882
-51.882
-51.882
-51.882
-51.882
-51.882
-51.882
-51.882
-51.882
-51.882
-51.882
-51.882
-51.882
-51.882
-51.882
-51.882
-51.882
-52.3833
-52.3833
-52.3833
-52.3833
-52.3833
-52.3833
-52.3833
-52.3833
-52.3833
-52.3833
-52.3833
-52.3833
-52.3833
-52.3833
-52.3833
-52.3833
-52.3833
-52.3833
-52.3833
-52.3833
-52.8846
-52.8846
-52.8846
-52.8846
-52.8846
-52.8846
-52.8846
-52.8846
-52.8846
-52.8846
-52.8846
-52.8846
-52.8846
-52.8846
-52.8846
-52.8846
-52.8846
-52.8846
-52.8846
-52.8846
-53.3859
-53.3859
-53.3859
-53.3859
-53.3859
-53.3859
-53.3859
-53.3859
-53.3859
-53.3859
-53.3859
-53.3859
-53.3859
-53.3859
-53.3859
-53.3859
-53.3859
-53.3859
-53.3859
-53.3859
-53.8871
-53.8871
-53.8871
-53.8871
-53.8871
-53.8871
-53.8871
-53.8871
-53.8871
-53.8871
-53.8871
-53.8871
-53.8872
-53.8872
-53.8872
-53.8872
-53.8872
-53.8872
-53.8872
-53.8872
-54.3884
-54.3884
-54.3884
-54.3884
-54.3884
-54.3884
-54.3884
-54.3884
-54.3884
-54.3884
-54.3884
-54.3884
-54.3884
-54.3884
-54.3884
-54.3884
-54.3884
-54.3884
-54.3884
-54.3884
-54.8897
-54.8897
-54.8897
-54.8897
-54.8897
-54.8897
-54.8897
-54.8897
-54.8897
-54.8897
-54.8897
-54.8897
-54.8897
-54.8897
-54.8897
-54.8897
-54.8897
-54.8897
-54.8897
-54.8897
-55.3909
-55.3909
-55.3909
-55.3909
-55.3909
-55.391
-55.391
-55.391
-55.391
-55.391
-55.391
-55.391
-55.391
-55.391
-55.391
-55.391
-55.391
-55.391
-55.391
-55.391
-55.8922
-55.8922
-55.8922
-55.8922
-55.8922
-55.8922
-55.8922
-55.8922
-55.8922
-55.8922
-55.8923
-55.8923
-55.8923
-55.8923
-55.8923
-55.8923
-55.8923
-55.8923
-55.8923
-55.8923
-56.3935
-56.3935
-56.3935
-56.3935
-56.3935
-56.3935
-56.3935
-56.3935
-56.3935
-56.3935
-56.3935
-56.3935
-56.3935
-56.3935
-56.3936
-56.3936
-56.3936
-56.3936
-56.3936
-56.3936
-56.8947
-56.8947
-56.8947
-56.8947
-56.8948
-56.8948
-56.8948
-56.8948
-56.8948
-56.8948
-56.8948
-56.8948
-56.8948
-56.8948
-56.8948
-56.8948
-56.8948
-56.8948
-56.8948
-56.8948
-57.396
-57.396
-57.396
-57.396
-57.396
-57.396
-57.396
-57.396
-57.3961
-57.3961
-57.3961
-57.3961
-57.3961
-57.3961
-57.3961
-57.3961
-57.3961
-57.3961
-57.3961
-57.3961
-57.8973
-57.8973
-57.8973
-57.8973
-57.8973
-57.8973
-57.8973
-57.8973
-57.8973
-57.8973
-57.8974
-57.8974
-57.8974
-57.8974
-57.8974
-57.8974
-57.8974
-57.8974
-57.8974
-57.8974
-58.3985
-58.3985
-58.3985
-58.3985
-58.3985
-58.3986
-58.3986
-58.3986
-58.3986
-58.3986
-58.3986
-58.3987
-58.3987
-58.3987
-58.3987
-58.3987
-58.3987
-58.3987
-58.3987
-58.3987
-58.8998
-58.8998
-58.8998
-58.8998
-58.8998
-58.8998
-58.8998
-58.8998
-58.8999
-58.8999
-58.8999
-58.8999
-58.9
-58.9
-58.9
-58.9
-58.9
-58.9
-58.9
-58.9
-59.401
-59.401
-59.401
-59.401
-59.4011
-59.4011
-59.4011
-59.4011
-59.4011
-59.4012
-59.4012
-59.4012
-59.4012
-59.4013
-59.4013
-59.4013
-59.4013
-59.4013
-59.4013
-59.4013
-59.9023
-59.9023
-59.9023
-59.9023
-59.9023
-59.9023
-59.9023
-59.9024
-59.9024
-59.9024
-59.9025
-59.9025
-59.9025
-59.9026
-59.9026
-59.9026
-59.9026
-59.9026
-59.9026
-59.9026
-60.4035
-60.4035
-60.4035
-60.4035
-60.4035
-60.4036
-60.4036
-60.4036
-60.4037
-60.4037
-60.4037
-60.4038
-60.4038
-60.4039
-60.4039
-60.4039
-60.4039
-60.4039
-60.4039
-60.4039
-60.9047
-60.9047
-60.9047
-60.9048
-60.9048
-60.9048
-60.9048
-60.9049
-60.9049
-60.905
-60.905
-60.9051
-60.9051
-60.9052
-60.9052
-60.9052
-60.9052
-60.9053
-60.9053
-60.9053
-61.406
-61.406
-61.406
-61.406
-61.406
-61.406
-61.4061
-61.4061
-61.4062
-61.4062
-61.4063
-61.4064
-61.4064
-61.4065
-61.4065
-61.4065
-61.4066
-61.4066
-61.4066
-61.4066
-61.9072
-61.9072
-61.9072
-61.9072
-61.9072
-61.9073
-61.9073
-61.9074
-61.9075
-61.9075
-61.9076
-61.9077
-61.9077
-61.9078
-61.9078
-61.9079
-61.9079
-61.9079
-61.9079
-61.9079
-62.4084
-62.4084
-62.4084
-62.4084
-62.4084
-62.4085
-62.4086
-62.4086
-62.4087
-62.4088
-62.4089
-62.409
-62.409
-62.4091
-62.4092
-62.4092
-62.4093
-62.4093
-62.4093
-62.4093
-62.9095
-62.9095
-62.9095
-62.9096
-62.9096
-62.9097
-62.9098
-62.9099
-62.91
-62.9101
-62.9102
-62.9103
-62.9103
-62.9104
-62.9105
-62.9106
-62.9106
-62.9107
-62.9107
-62.9107
-63.4107
-63.4107
-63.4107
-63.4107
-63.4108
-63.4109
-63.411
-63.4111
-63.4112
-63.4113
-63.4114
-63.4116
-63.4117
-63.4118
-63.4119
-63.4119
-63.412
-63.412
-63.4121
-63.4121
-63.9118
-63.9118
-63.9118
-63.9119
-63.912
-63.9121
-63.9122
-63.9123
-63.9124
-63.9126
-63.9127
-63.9129
-63.913
-63.9131
-63.9132
-63.9133
-63.9134
-63.9135
-63.9135
-63.9135
-64.4129
-64.4129
-64.4129
-64.413
-64.4131
-64.4132
-64.4133
-64.4135
-64.4137
-64.4138
-64.414
-64.4142
-64.4144
-64.4145
-64.4146
-64.4148
-64.4148
-64.4149
-64.4149
-64.4149
-64.914
-64.914
-64.914
-64.9141
-64.9142
-64.9143
-64.9145
-64.9147
-64.9149
-64.9151
-64.9153
-64.9155
-64.9157
-64.9159
-64.9161
-64.9162
-64.9163
-64.9164
-64.9164
-64.9164
-65.415
-65.415
-65.415
-65.4151
-65.4153
-65.4154
-65.4156
-65.4159
-65.4161
-65.4164
-65.4166
-65.4169
-65.4171
-65.4173
-65.4175
-65.4177
-65.4178
-65.4179
-65.4179
-65.4179
-65.916
-65.916
-65.916
-65.9161
-65.9163
-65.9165
-65.9167
-65.917
-65.9173
-65.9176
-65.9179
-65.9182
-65.9185
-65.9188
-65.919
-65.9192
-65.9194
-65.9195
-65.9195
-65.9195
-66.4169
-66.4169
-66.417
-66.4171
-66.4173
-66.4175
-66.4178
-66.4181
-66.4185
-66.4188
-66.4192
-66.4196
-66.4199
-66.4203
-66.4205
-66.4208
-66.421
-66.4211
-66.4212
-66.4212
-66.9177
-66.9177
-66.9178
-66.918
-66.9182
-66.9185
-66.9188
-66.9192
-66.9196
-66.9201
-66.9205
-66.921
-66.9214
-66.9218
-66.9221
-66.9224
-66.9226
-66.9228
-66.9229
-66.9229
-67.4185
-67.4185
-67.4186
-67.4188
-67.4191
-67.4194
-67.4198
-67.4203
-67.4208
-67.4213
-67.4219
-67.4224
-67.4229
-67.4233
-67.4238
-67.4241
-67.4244
-67.4246
-67.4247
-67.4247
-67.9191
-67.9191
-67.9193
-67.9195
-67.9198
-67.9202
-67.9207
-67.9213
-67.9219
-67.9225
-67.9232
-67.9238
-67.9244
-67.925
-67.9255
-67.9259
-67.9262
-67.9264
-67.9266
-67.9266
-68.4197
-68.4197
-68.4198
-68.4201
-68.4205
-68.421
-68.4216
-68.4223
-68.423
-68.4237
-68.4245
-68.4253
-68.426
-68.4267
-68.4273
-68.4278
-68.4282
-68.4284
-68.4286
-68.4286
-68.92
-68.9201
-68.9202
-68.9206
-68.921
-68.9217
-68.9224
-68.9232
-68.924
-68.9249
-68.9259
-68.9268
-68.9276
-68.9284
-68.9292
-68.9298
-68.9302
-68.9306
-68.9307
-68.9307
-69.4203
-69.4203
-69.4205
-69.4209
-69.4215
-69.4222
-69.423
-69.424
-69.425
-69.4261
-69.4272
-69.4283
-69.4294
-69.4303
-69.4312
-69.4319
-69.4325
-69.4328
-69.4331
-69.4331
-69.9203
-69.9203
-69.9205
-69.921
-69.9217
-69.9226
-69.9236
-69.9248
-69.926
-69.9273
-69.9286
-69.9299
-69.9312
-69.9323
-69.9333
-69.9342
-69.9349
-69.9353
-69.9356
-69.9356
-70.42
-70.4201
-70.4204
-70.421
-70.4218
-70.4228
-70.424
-70.4254
-70.4269
-70.4284
-70.43
-70.4316
-70.433
-70.4344
-70.4356
-70.4367
-70.4375
-70.438
-70.4383
-70.4384
-70.9195
-70.9196
-70.9199
-70.9206
-70.9216
-70.9228
-70.9243
-70.9259
-70.9277
-70.9296
-70.9314
-70.9333
-70.9351
-70.9367
-70.9381
-70.9394
-70.9403
-70.941
-70.9414
-70.9415
-71.4186
-71.4187
-71.4191
-71.42
-71.4212
-71.4226
-71.4244
-71.4263
-71.4285
-71.4307
-71.4329
-71.4351
-71.4372
-71.4392
-71.4409
-71.4424
-71.4435
-71.4443
-71.4448
-71.4449
-71.9173
-71.9174
-71.918
-71.919
-71.9204
-71.9222
-71.9242
-71.9266
-71.9291
-71.9317
-71.9344
-71.937
-71.9395
-71.9418
-71.9439
-71.9457
-71.947
-71.948
-71.9486
-71.9487
-72.4156
-72.4157
-72.4164
-72.4176
-72.4192
-72.4214
-72.4238
-72.4266
-72.4296
-72.4328
-72.4359
-72.4391
-72.442
-72.4448
-72.4473
-72.4493
-72.451
-72.4522
-72.4528
-72.453
-72.9132
-72.9134
-72.9142
-72.9156
-72.9176
-72.9202
-72.9231
-72.9264
-72.93
-72.9337
-72.9375
-72.9412
-72.9448
-72.9481
-72.951
-72.9535
-72.9554
-72.9568
-72.9576
-72.9578
-73.4102
-73.4104
-73.4114
-73.4131
-73.4155
-73.4185
-73.422
-73.426
-73.4302
-73.4347
-73.4392
-73.4436
-73.4478
-73.4517
-73.4552
-73.4581
-73.4605
-73.4621
-73.4631
-73.4633
-73.9064
-73.9067
-73.9078
-73.9099
-73.9127
-73.9163
-73.9205
-73.9252
-73.9303
-73.9355
-73.9409
-73.9461
-73.9511
-73.9558
-73.9599
-73.9634
-73.9662
-73.9682
-73.9693
-73.9696
-74.4016
-74.402
-74.4034
-74.4058
-74.4092
-74.4135
-74.4185
-74.4241
-74.4301
-74.4363
-74.4427
-74.4489
-74.4549
-74.4604
-74.4653
-74.4694
-74.4728
-74.4751
-74.4765
-74.4768
-74.8957
-74.8962
-74.8978
-74.9007
-74.9048
-74.9099
-74.9158
-74.9225
-74.9296
-74.9371
-74.9446
-74.952
-74.9591
-74.9656
-74.9714
-74.9764
-74.9803
-74.9831
-74.9847
-74.9852
-75.3884
-75.389
-75.391
-75.3945
-75.3994
-75.4054
-75.4125
-75.4204
-75.4289
-75.4377
-75.4466
-75.4554
-75.4638
-75.4715
-75.4784
-75.4843
-75.489
-75.4923
-75.4942
-75.4948
-75.8796
-75.8803
-75.8827
-75.8869
-75.8927
-75.8999
-75.9083
-75.9177
-75.9277
-75.9382
-75.9488
-75.9592
-75.9692
-75.9783
-75.9865
-75.9935
-75.999
-76.003
-76.0053
-76.006
-76.3689
-76.3698
-76.3727
-76.3777
-76.3846
-76.3931
-76.4031
-76.4143
-76.4262
-76.4386
-76.4512
-76.4635
-76.4753
-76.4862
-76.4959
-76.5041
-76.5107
-76.5155
-76.5182
-76.519
-76.8559
-76.8571
-76.8606
-76.8665
-76.8747
-76.8849
-76.8968
-76.91
-76.9242
-76.9389
-76.9538
-76.9684
-76.9824
-76.9952
-77.0067
-77.0165
-77.0244
-77.03
-77.0332
-77.0341
-77.3404
-77.3418
-77.346
-77.3531
-77.3628
-77.375
-77.3891
-77.4047
-77.4216
-77.439
-77.4567
-77.474
-77.4905
-77.5058
-77.5194
-77.531
-77.5403
-77.5469
-77.5507
-77.5519
-77.8219
-77.8234
-77.8284
-77.8369
-77.8485
-77.8629
-77.8797
-77.8983
-77.9183
-77.939
-77.9599
-77.9804
-77.9999
-78.018
-78.0342
-78.0479
-78.0589
-78.0668
-78.0713
-78.0727
-78.2997
-78.3015
-78.3074
-78.3176
-78.3314
-78.3485
-78.3684
-78.3905
-78.4142
-78.4387
-78.4635
-78.4877
-78.5109
-78.5323
-78.5514
-78.5677
-78.5807
-78.5902
-78.5956
-78.5971
-78.7739
-78.7753
-78.7823
-78.7944
-78.8109
-78.8312
-78.8549
-78.8811
-78.9091
-78.9382
-78.9675
-78.9963
-79.0237
-79.0491
-79.0717
-79.0909
-79.1064
-79.1178
-79.124
-79.1262
-79.2443
-79.2439
-79.2522
-79.2667
-79.2863
-79.3105
-79.3386
-79.3697
-79.403
-79.4374
-79.4722
-79.5063
-79.5387
-79.5687
-79.5953
-79.618
-79.6363
-79.6507
-79.6537
-79.6604
-79.709
-79.7013
-79.7155
-79.7332
-79.7568
-79.7857
-79.8191
-79.8561
-79.8955
-79.9364
-79.9776
-80.018
-80.0564
-80.0918
-80.1231
-80.1493
-80.1698
-80.1841
-80.1698
-80.1979
-80.1342
-80.1363
-80.1639
-80.1922
-80.2215
-80.2562
-80.296
-80.3398
-80.3865
-80.435
-80.4838
-80.5317
-80.5774
-80.6193
-80.6562
-80.6867
-80.7091
-80.7221
-80.7166
-80.7187
-80.5885
-80.5813
-80.5965
-80.646
-80.6804
-80.7215
-80.7686
-80.8204
-80.8757
-80.9331
-80.9911
-81.048
-81.1023
-81.1525
-81.1968
-81.234
-81.263
-81.2694
-81.2956
-81.2943
-81.0305
-81.0169
-81.0309
-81.0949
-81.1326
-81.1807
-81.2362
-81.2973
-81.3627
-81.4307
-81.4995
-81.5671
-81.6317
-81.6915
-81.7448
-81.7886
-81.7953
-81.8334
-81.8447
-81.8556
-81.4634
-81.4638
-81.4847
-81.5301
-81.5744
-81.6315
-81.6973
-81.7696
-81.8468
-81.9275
-82.0092
-82.0895
-82.166
-82.2366
-82.2993