/*--------------------------------*- C++ -*----------------------------------*\
| =========                 |                                                 |
| \\      /  F ield         | OpenFOAM: The Open Source CFD Toolbox           |
|  \\    /   O peration     | Version:  5.x                                   |
|   \\  /    A nd           | Web:      www.OpenFOAM.org                      |
|    \\/     M anipulation  |                                                 |
\*---------------------------------------------------------------------------*/
FoamFile
{
    version     2.0;
    format      ascii;
    class       volScalarField;
    location    "0.4";
    object      p_rgh;
}
// * * * * * * * * * * * * * * * * * * * * * * * * * * * * * * * * * * * * * //

dimensions      [1 -1 -2 0 0 0 0];

internalField   nonuniform List<scalar> 
8000
(
-0.000637844
-0.000637802
-0.000637807
-0.000637802
-0.000637795
-0.000637789
-0.000637787
-0.000637791
-0.0006378
-0.000637815
-0.000637834
-0.000637855
-0.000637876
-0.000637895
-0.000637912
-0.000637927
-0.00063794
-0.000637951
-0.000637972
-0.000637963
-0.00191353
-0.00191344
-0.00191343
-0.00191341
-0.00191339
-0.00191337
-0.00191337
-0.00191338
-0.00191341
-0.00191345
-0.00191351
-0.00191356
-0.00191361
-0.00191366
-0.00191369
-0.00191371
-0.00191373
-0.00191374
-0.00191377
-0.00191356
-0.00318911
-0.00318897
-0.00318895
-0.00318891
-0.00318888
-0.00318887
-0.00318888
-0.00318891
-0.00318897
-0.00318904
-0.00318912
-0.00318921
-0.00318928
-0.00318934
-0.00318939
-0.00318942
-0.00318943
-0.00318944
-0.00318944
-0.00318937
-0.00446457
-0.00446441
-0.00446438
-0.00446435
-0.00446434
-0.00446434
-0.00446438
-0.00446444
-0.00446453
-0.00446464
-0.00446474
-0.00446485
-0.00446494
-0.00446501
-0.00446507
-0.0044651
-0.00446512
-0.00446511
-0.004465
-0.00446526
-0.00573992
-0.00573975
-0.00573974
-0.00573973
-0.00573975
-0.0057398
-0.00573988
-0.00573998
-0.0057401
-0.00574023
-0.00574036
-0.00574047
-0.00574057
-0.00574065
-0.00574072
-0.00574075
-0.00574073
-0.00574068
-0.00574059
-0.00574103
-0.00701517
-0.00701501
-0.00701502
-0.00701506
-0.00701513
-0.00701523
-0.00701536
-0.00701551
-0.00701567
-0.00701582
-0.00701596
-0.00701609
-0.00701619
-0.00701628
-0.00701635
-0.00701637
-0.00701633
-0.00701626
-0.00701621
-0.0070167
-0.00829034
-0.00829021
-0.00829025
-0.00829034
-0.00829047
-0.00829064
-0.00829083
-0.00829102
-0.00829121
-0.00829138
-0.00829154
-0.00829168
-0.00829179
-0.00829189
-0.00829195
-0.00829196
-0.00829194
-0.00829195
-0.00829181
-0.00829221
-0.00956551
-0.00956538
-0.00956545
-0.0095656
-0.0095658
-0.00956603
-0.00956626
-0.00956649
-0.00956671
-0.00956691
-0.00956708
-0.00956723
-0.00956736
-0.00956745
-0.00956751
-0.00956752
-0.00956756
-0.00956754
-0.00956755
-0.00956754
-0.0108407
-0.0108405
-0.0108406
-0.0108408
-0.0108411
-0.0108414
-0.0108417
-0.0108419
-0.0108422
-0.0108424
-0.0108426
-0.0108427
-0.0108429
-0.010843
-0.010843
-0.0108431
-0.0108431
-0.0108431
-0.0108431
-0.010843
-0.0121161
-0.0121156
-0.0121158
-0.0121161
-0.0121164
-0.0121167
-0.012117
-0.0121173
-0.0121176
-0.0121178
-0.012118
-0.0121182
-0.0121183
-0.0121184
-0.0121185
-0.0121186
-0.0121186
-0.0121187
-0.0121187
-0.0121186
-0.0133914
-0.0133907
-0.013391
-0.0133913
-0.0133916
-0.0133919
-0.0133922
-0.0133926
-0.0133929
-0.0133931
-0.0133934
-0.0133936
-0.0133937
-0.0133939
-0.013394
-0.0133941
-0.0133942
-0.0133943
-0.0133944
-0.0133942
-0.0146666
-0.0146659
-0.0146662
-0.0146665
-0.0146668
-0.0146671
-0.0146675
-0.0146678
-0.0146681
-0.0146684
-0.0146687
-0.0146689
-0.0146691
-0.0146693
-0.0146695
-0.0146697
-0.0146699
-0.01467
-0.0146701
-0.0146699
-0.0159416
-0.0159411
-0.0159414
-0.0159416
-0.0159419
-0.0159423
-0.0159426
-0.015943
-0.0159433
-0.0159437
-0.015944
-0.0159443
-0.0159446
-0.0159448
-0.0159451
-0.0159454
-0.0159456
-0.0159458
-0.015946
-0.0159457
-0.0172167
-0.0172164
-0.0172165
-0.0172168
-0.0172171
-0.0172174
-0.0172178
-0.0172182
-0.0172186
-0.017219
-0.0172194
-0.0172197
-0.0172201
-0.0172205
-0.0172209
-0.0172212
-0.0172215
-0.0172217
-0.0172219
-0.0172216
-0.0184918
-0.0184916
-0.0184917
-0.018492
-0.0184923
-0.0184926
-0.018493
-0.0184934
-0.0184939
-0.0184944
-0.0184948
-0.0184953
-0.0184958
-0.0184963
-0.0184967
-0.0184972
-0.0184975
-0.0184977
-0.0184979
-0.0184975
-0.019767
-0.0197669
-0.019767
-0.0197672
-0.0197675
-0.0197679
-0.0197683
-0.0197688
-0.0197693
-0.0197699
-0.0197705
-0.019771
-0.0197716
-0.0197722
-0.0197727
-0.0197732
-0.0197736
-0.0197738
-0.0197739
-0.0197735
-0.0210423
-0.0210422
-0.0210423
-0.0210426
-0.0210429
-0.0210433
-0.0210438
-0.0210443
-0.0210449
-0.0210455
-0.0210462
-0.0210469
-0.0210476
-0.0210482
-0.0210488
-0.0210492
-0.0210496
-0.0210498
-0.0210499
-0.0210494
-0.0223175
-0.0223177
-0.0223179
-0.0223181
-0.0223184
-0.0223188
-0.0223193
-0.0223199
-0.0223206
-0.0223213
-0.022322
-0.0223228
-0.0223235
-0.0223242
-0.0223248
-0.0223253
-0.0223256
-0.0223258
-0.0223259
-0.0223253
-0.0235927
-0.0235933
-0.0235935
-0.0235937
-0.023594
-0.0235945
-0.023595
-0.0235956
-0.0235963
-0.0235971
-0.0235979
-0.0235987
-0.0235995
-0.0236002
-0.0236008
-0.0236013
-0.0236016
-0.0236018
-0.0236019
-0.0236013
-0.0248681
-0.0248689
-0.0248692
-0.0248694
-0.0248697
-0.0248702
-0.0248707
-0.0248713
-0.0248721
-0.0248729
-0.0248737
-0.0248746
-0.0248754
-0.0248761
-0.0248768
-0.0248773
-0.0248776
-0.0248778
-0.0248779
-0.0248774
-0.026144
-0.0261447
-0.026145
-0.0261452
-0.0261455
-0.0261459
-0.0261465
-0.0261471
-0.0261479
-0.0261487
-0.0261496
-0.0261505
-0.0261513
-0.0261521
-0.0261527
-0.0261532
-0.0261535
-0.0261538
-0.0261539
-0.0261534
-0.0274207
-0.0274206
-0.0274209
-0.0274211
-0.0274214
-0.0274218
-0.0274223
-0.027423
-0.0274237
-0.0274246
-0.0274255
-0.0274263
-0.0274271
-0.0274279
-0.0274285
-0.027429
-0.0274294
-0.0274296
-0.0274297
-0.0274294
-0.0286971
-0.0286967
-0.0286969
-0.0286971
-0.0286974
-0.0286978
-0.0286983
-0.0286989
-0.0286997
-0.0287005
-0.0287013
-0.0287021
-0.0287029
-0.0287036
-0.0287042
-0.0287046
-0.028705
-0.0287052
-0.0287054
-0.0287053
-0.0299731
-0.0299729
-0.029973
-0.0299731
-0.0299734
-0.0299738
-0.0299743
-0.029975
-0.0299756
-0.0299764
-0.0299771
-0.0299779
-0.0299785
-0.0299792
-0.0299797
-0.0299801
-0.0299805
-0.0299807
-0.0299808
-0.0299809
-0.0312489
-0.031249
-0.0312491
-0.0312493
-0.0312496
-0.03125
-0.0312505
-0.031251
-0.0312516
-0.0312522
-0.0312529
-0.0312535
-0.0312541
-0.0312546
-0.031255
-0.0312555
-0.0312558
-0.031256
-0.0312562
-0.0312563
-0.032525
-0.0325251
-0.0325253
-0.0325255
-0.0325258
-0.0325261
-0.0325266
-0.032527
-0.0325275
-0.032528
-0.0325285
-0.032529
-0.0325294
-0.0325299
-0.0325303
-0.0325307
-0.032531
-0.0325313
-0.0325314
-0.0325316
-0.033801
-0.0338013
-0.0338014
-0.0338016
-0.0338019
-0.0338022
-0.0338026
-0.033803
-0.0338033
-0.0338037
-0.0338041
-0.0338044
-0.0338048
-0.0338051
-0.0338055
-0.0338059
-0.0338062
-0.0338065
-0.0338066
-0.0338069
-0.035077
-0.0350773
-0.0350775
-0.0350777
-0.0350779
-0.0350782
-0.0350785
-0.0350788
-0.0350791
-0.0350793
-0.0350796
-0.0350799
-0.0350801
-0.0350804
-0.0350808
-0.0350811
-0.0350815
-0.0350817
-0.0350818
-0.0350823
-0.0363529
-0.0363533
-0.0363535
-0.0363537
-0.0363539
-0.0363542
-0.0363544
-0.0363546
-0.0363548
-0.036355
-0.0363552
-0.0363553
-0.0363556
-0.0363558
-0.0363561
-0.0363564
-0.0363568
-0.036357
-0.036357
-0.0363572
-0.0376288
-0.0376293
-0.0376294
-0.0376296
-0.0376298
-0.03763
-0.0376302
-0.0376304
-0.0376306
-0.0376307
-0.0376308
-0.037631
-0.0376311
-0.0376313
-0.0376316
-0.0376318
-0.0376321
-0.0376323
-0.0376322
-0.0376321
-0.0389046
-0.0389052
-0.0389053
-0.0389055
-0.0389057
-0.0389059
-0.0389061
-0.0389063
-0.0389064
-0.0389065
-0.0389066
-0.0389067
-0.0389068
-0.038907
-0.0389071
-0.0389073
-0.0389074
-0.0389076
-0.0389075
-0.0389071
-0.0401804
-0.0401811
-0.0401813
-0.0401815
-0.0401817
-0.0401819
-0.0401821
-0.0401822
-0.0401823
-0.0401824
-0.0401824
-0.0401825
-0.0401826
-0.0401826
-0.0401827
-0.0401828
-0.0401828
-0.0401829
-0.0401829
-0.0401822
-0.0414563
-0.0414571
-0.0414574
-0.0414576
-0.0414578
-0.0414579
-0.0414581
-0.0414582
-0.0414583
-0.0414583
-0.0414583
-0.0414584
-0.0414584
-0.0414584
-0.0414583
-0.0414583
-0.0414582
-0.0414582
-0.0414582
-0.0414577
-0.0427323
-0.0427332
-0.0427335
-0.0427337
-0.0427338
-0.042734
-0.0427341
-0.0427342
-0.0427342
-0.0427342
-0.0427342
-0.0427342
-0.0427342
-0.0427341
-0.042734
-0.0427339
-0.0427337
-0.0427336
-0.0427335
-0.042733
-0.0440085
-0.0440094
-0.0440096
-0.0440097
-0.0440098
-0.0440099
-0.04401
-0.0440101
-0.0440101
-0.0440101
-0.0440101
-0.0440101
-0.04401
-0.0440099
-0.0440097
-0.0440095
-0.0440093
-0.0440091
-0.044009
-0.0440084
-0.0452846
-0.0452855
-0.0452857
-0.0452857
-0.0452858
-0.0452858
-0.0452858
-0.0452859
-0.0452859
-0.0452859
-0.0452859
-0.0452859
-0.0452858
-0.0452856
-0.0452854
-0.0452851
-0.0452848
-0.0452846
-0.0452845
-0.0452839
-0.0465608
-0.0465616
-0.0465617
-0.0465617
-0.0465617
-0.0465617
-0.0465617
-0.0465617
-0.0465617
-0.0465617
-0.0465617
-0.0465616
-0.0465614
-0.0465612
-0.046561
-0.0465607
-0.0465605
-0.0465603
-0.0465602
-0.0465596
-0.0478371
-0.0478377
-0.0478377
-0.0478377
-0.0478376
-0.0478375
-0.0478375
-0.0478374
-0.0478374
-0.0478373
-0.0478373
-0.0478372
-0.047837
-0.0478368
-0.0478365
-0.0478363
-0.0478361
-0.047836
-0.0478359
-0.0478354
-0.0491134
-0.0491138
-0.0491138
-0.0491137
-0.0491136
-0.0491134
-0.0491133
-0.0491132
-0.049113
-0.0491129
-0.0491128
-0.0491126
-0.0491125
-0.0491123
-0.0491121
-0.0491119
-0.0491118
-0.0491117
-0.0491116
-0.0491112
-0.0503897
-0.0503901
-0.05039
-0.0503898
-0.0503896
-0.0503894
-0.0503891
-0.0503889
-0.0503887
-0.0503884
-0.0503883
-0.0503881
-0.0503879
-0.0503878
-0.0503876
-0.0503876
-0.0503876
-0.0503875
-0.0503875
-0.050387
-0.051666
-0.0516664
-0.0516662
-0.051666
-0.0516657
-0.0516654
-0.051665
-0.0516646
-0.0516643
-0.051664
-0.0516638
-0.0516636
-0.0516634
-0.0516634
-0.0516633
-0.0516634
-0.0516634
-0.0516634
-0.0516633
-0.0516628
-0.0529423
-0.0529427
-0.0529425
-0.0529422
-0.0529418
-0.0529413
-0.0529409
-0.0529404
-0.05294
-0.0529397
-0.0529395
-0.0529393
-0.0529392
-0.0529392
-0.0529392
-0.0529392
-0.0529393
-0.0529393
-0.0529392
-0.0529386
-0.0542183
-0.0542188
-0.0542186
-0.0542182
-0.0542178
-0.0542173
-0.0542168
-0.0542163
-0.0542159
-0.0542156
-0.0542154
-0.0542152
-0.0542151
-0.0542151
-0.0542151
-0.0542152
-0.0542152
-0.0542152
-0.0542151
-0.0542143
-0.0554942
-0.0554948
-0.0554945
-0.0554942
-0.0554937
-0.0554933
-0.0554928
-0.0554924
-0.055492
-0.0554917
-0.0554915
-0.0554913
-0.0554912
-0.0554912
-0.0554912
-0.0554911
-0.0554911
-0.0554911
-0.0554909
-0.0554901
-0.05677
-0.0567706
-0.0567704
-0.0567701
-0.0567697
-0.0567693
-0.056769
-0.0567686
-0.0567683
-0.056768
-0.0567677
-0.0567675
-0.0567674
-0.0567672
-0.0567671
-0.0567671
-0.056767
-0.0567669
-0.0567668
-0.056766
-0.0580457
-0.0580464
-0.0580462
-0.058046
-0.0580458
-0.0580455
-0.0580452
-0.0580449
-0.0580446
-0.0580442
-0.0580439
-0.0580437
-0.0580434
-0.0580432
-0.0580431
-0.058043
-0.0580429
-0.0580428
-0.0580427
-0.0580419
-0.0593216
-0.0593222
-0.0593221
-0.059322
-0.0593218
-0.0593216
-0.0593214
-0.0593211
-0.0593208
-0.0593204
-0.0593201
-0.0593198
-0.0593195
-0.0593192
-0.059319
-0.0593188
-0.0593188
-0.0593187
-0.0593186
-0.0593179
-0.0605975
-0.0605981
-0.0605981
-0.060598
-0.0605979
-0.0605977
-0.0605975
-0.0605972
-0.0605968
-0.0605965
-0.0605961
-0.0605958
-0.0605954
-0.0605952
-0.0605949
-0.0605948
-0.0605946
-0.0605946
-0.0605945
-0.0605939
-0.0618736
-0.061874
-0.061874
-0.061874
-0.0618738
-0.0618737
-0.0618734
-0.0618732
-0.0618728
-0.0618725
-0.0618721
-0.0618718
-0.0618714
-0.0618711
-0.0618709
-0.0618707
-0.0618705
-0.0618705
-0.0618704
-0.0618698
-0.0631496
-0.0631498
-0.0631498
-0.0631498
-0.0631496
-0.0631495
-0.0631493
-0.0631491
-0.0631488
-0.0631485
-0.0631482
-0.0631478
-0.0631474
-0.0631471
-0.0631468
-0.0631466
-0.0631464
-0.0631463
-0.0631463
-0.0631456
-0.0644254
-0.0644255
-0.0644255
-0.0644254
-0.0644253
-0.0644253
-0.0644251
-0.064425
-0.0644248
-0.0644245
-0.0644242
-0.0644238
-0.0644234
-0.0644231
-0.0644228
-0.0644225
-0.0644223
-0.0644222
-0.0644222
-0.0644215
-0.0657011
-0.065701
-0.065701
-0.065701
-0.065701
-0.065701
-0.065701
-0.0657009
-0.0657007
-0.0657005
-0.0657001
-0.0656998
-0.0656994
-0.065699
-0.0656988
-0.0656985
-0.0656983
-0.0656982
-0.0656981
-0.0656975
-0.0669766
-0.0669765
-0.0669765
-0.0669766
-0.0669767
-0.0669768
-0.0669768
-0.0669767
-0.0669766
-0.0669764
-0.0669761
-0.0669757
-0.0669754
-0.0669751
-0.0669748
-0.0669746
-0.0669744
-0.0669743
-0.0669742
-0.0669736
-0.068252
-0.068252
-0.0682521
-0.0682522
-0.0682524
-0.0682525
-0.0682525
-0.0682525
-0.0682524
-0.0682522
-0.0682519
-0.0682517
-0.0682514
-0.0682512
-0.068251
-0.0682508
-0.0682505
-0.0682504
-0.0682503
-0.0682497
-0.0695275
-0.0695276
-0.0695278
-0.069528
-0.0695281
-0.0695282
-0.0695282
-0.0695282
-0.0695281
-0.069528
-0.0695278
-0.0695277
-0.0695276
-0.0695274
-0.0695272
-0.069527
-0.0695267
-0.0695266
-0.0695265
-0.0695258
-0.0708031
-0.0708034
-0.0708036
-0.0708037
-0.0708038
-0.0708038
-0.0708039
-0.0708038
-0.0708038
-0.0708038
-0.0708038
-0.0708038
-0.0708037
-0.0708036
-0.0708034
-0.0708031
-0.0708029
-0.0708027
-0.0708026
-0.0708019
-0.0720789
-0.0720793
-0.0720794
-0.0720794
-0.0720795
-0.0720795
-0.0720795
-0.0720796
-0.0720797
-0.0720798
-0.0720799
-0.0720799
-0.0720798
-0.0720797
-0.0720795
-0.0720792
-0.072079
-0.0720789
-0.0720788
-0.072078
-0.0733547
-0.0733551
-0.0733551
-0.0733551
-0.0733552
-0.0733552
-0.0733553
-0.0733555
-0.0733556
-0.0733558
-0.0733559
-0.0733559
-0.0733558
-0.0733557
-0.0733555
-0.0733553
-0.0733552
-0.0733551
-0.0733551
-0.0733543
-0.0746307
-0.0746309
-0.0746309
-0.0746309
-0.074631
-0.0746311
-0.0746312
-0.0746314
-0.0746316
-0.0746317
-0.0746317
-0.0746317
-0.0746316
-0.0746315
-0.0746314
-0.0746314
-0.0746313
-0.0746314
-0.0746315
-0.0746306
-0.0759066
-0.0759067
-0.0759068
-0.0759068
-0.0759069
-0.075907
-0.0759072
-0.0759073
-0.0759074
-0.0759074
-0.0759074
-0.0759074
-0.0759074
-0.0759074
-0.0759074
-0.0759075
-0.0759076
-0.0759077
-0.0759078
-0.075907
-0.0771826
-0.0771827
-0.0771827
-0.0771828
-0.0771829
-0.0771829
-0.077183
-0.077183
-0.077183
-0.077183
-0.077183
-0.077183
-0.0771831
-0.0771832
-0.0771834
-0.0771835
-0.0771837
-0.0771839
-0.077184
-0.0771831
-0.0784586
-0.0784587
-0.0784588
-0.0784588
-0.0784588
-0.0784588
-0.0784587
-0.0784586
-0.0784585
-0.0784585
-0.0784586
-0.0784587
-0.0784589
-0.0784591
-0.0784593
-0.0784595
-0.0784597
-0.0784599
-0.07846
-0.0784591
-0.0797347
-0.0797348
-0.0797348
-0.0797348
-0.0797347
-0.0797345
-0.0797343
-0.0797342
-0.0797341
-0.0797341
-0.0797342
-0.0797344
-0.0797346
-0.0797348
-0.0797351
-0.0797353
-0.0797355
-0.0797357
-0.0797358
-0.0797348
-0.0810109
-0.0810109
-0.0810109
-0.0810107
-0.0810104
-0.0810102
-0.0810099
-0.0810098
-0.0810097
-0.0810098
-0.0810099
-0.0810101
-0.0810103
-0.0810105
-0.0810108
-0.081011
-0.0810113
-0.0810114
-0.0810115
-0.0810105
-0.082287
-0.082287
-0.0822868
-0.0822865
-0.0822862
-0.0822859
-0.0822856
-0.0822855
-0.0822855
-0.0822855
-0.0822856
-0.0822858
-0.082286
-0.0822862
-0.0822864
-0.0822867
-0.082287
-0.0822871
-0.0822872
-0.0822863
-0.0835631
-0.0835628
-0.0835626
-0.0835623
-0.083562
-0.0835617
-0.0835615
-0.0835614
-0.0835614
-0.0835614
-0.0835614
-0.0835615
-0.0835617
-0.0835619
-0.0835622
-0.0835625
-0.0835627
-0.0835628
-0.0835628
-0.0835621
-0.084839
-0.0848385
-0.0848384
-0.0848382
-0.0848379
-0.0848377
-0.0848375
-0.0848374
-0.0848374
-0.0848373
-0.0848373
-0.0848374
-0.0848376
-0.0848378
-0.0848381
-0.0848383
-0.0848384
-0.0848384
-0.0848384
-0.0848379
-0.0861147
-0.0861142
-0.0861142
-0.086114
-0.0861139
-0.0861137
-0.0861136
-0.0861135
-0.0861134
-0.0861134
-0.0861133
-0.0861134
-0.0861136
-0.0861139
-0.086114
-0.0861141
-0.0861141
-0.0861141
-0.086114
-0.0861137
-0.0873903
-0.0873899
-0.0873899
-0.0873899
-0.0873898
-0.0873898
-0.0873897
-0.0873897
-0.0873896
-0.0873895
-0.0873896
-0.0873897
-0.0873898
-0.0873899
-0.08739
-0.0873899
-0.0873898
-0.0873897
-0.0873896
-0.0873895
-0.0886659
-0.0886656
-0.0886657
-0.0886657
-0.0886658
-0.0886658
-0.0886658
-0.0886658
-0.0886658
-0.0886658
-0.0886659
-0.088666
-0.088666
-0.0886659
-0.0886658
-0.0886656
-0.0886654
-0.0886654
-0.0886654
-0.0886653
-0.0899415
-0.0899413
-0.0899413
-0.0899415
-0.0899416
-0.0899418
-0.0899419
-0.089942
-0.0899421
-0.0899422
-0.0899422
-0.0899422
-0.0899421
-0.0899419
-0.0899416
-0.0899414
-0.0899412
-0.0899412
-0.0899413
-0.0899411
-0.0912171
-0.0912169
-0.091217
-0.0912172
-0.0912175
-0.0912177
-0.0912179
-0.0912181
-0.0912183
-0.0912184
-0.0912184
-0.0912183
-0.0912181
-0.0912178
-0.0912175
-0.0912173
-0.0912172
-0.0912172
-0.0912172
-0.0912169
-0.0924928
-0.0924925
-0.0924927
-0.092493
-0.0924933
-0.0924936
-0.0924939
-0.0924941
-0.0924944
-0.0924945
-0.0924945
-0.0924943
-0.092494
-0.0924937
-0.0924935
-0.0924933
-0.0924933
-0.0924932
-0.0924931
-0.0924926
-0.0937687
-0.0937683
-0.0937685
-0.0937688
-0.0937691
-0.0937694
-0.0937697
-0.09377
-0.0937703
-0.0937704
-0.0937703
-0.0937702
-0.0937699
-0.0937697
-0.0937695
-0.0937694
-0.0937692
-0.093769
-0.0937689
-0.0937684
-0.0950447
-0.0950441
-0.0950444
-0.0950446
-0.0950449
-0.0950452
-0.0950455
-0.0950458
-0.095046
-0.0950461
-0.095046
-0.0950459
-0.0950458
-0.0950456
-0.0950455
-0.0950453
-0.0950451
-0.0950448
-0.0950446
-0.095044
-0.0963206
-0.09632
-0.0963202
-0.0963204
-0.0963206
-0.0963209
-0.0963211
-0.0963214
-0.0963215
-0.0963216
-0.0963215
-0.0963215
-0.0963214
-0.0963213
-0.0963212
-0.096321
-0.0963207
-0.0963205
-0.0963203
-0.09632
-0.0975954
-0.097596
-0.0975961
-0.0975962
-0.0975964
-0.0975966
-0.0975968
-0.0975969
-0.0975969
-0.0975969
-0.0975969
-0.0975969
-0.0975969
-0.0975969
-0.0975968
-0.0975966
-0.0975964
-0.0975962
-0.0975961
-0.097596
-0.0988707
-0.098872
-0.0988721
-0.0988721
-0.0988722
-0.0988723
-0.0988724
-0.0988724
-0.0988724
-0.0988723
-0.0988723
-0.0988723
-0.0988723
-0.0988723
-0.0988723
-0.0988721
-0.098872
-0.098872
-0.098872
-0.098872
-0.100147
-0.100148
-0.100148
-0.100148
-0.100148
-0.100148
-0.100148
-0.100148
-0.100148
-0.100148
-0.100148
-0.100148
-0.100148
-0.100148
-0.100148
-0.100148
-0.100148
-0.100148
-0.100148
-0.100148
-0.101425
-0.101424
-0.101424
-0.101424
-0.101424
-0.101424
-0.101424
-0.101424
-0.101424
-0.101423
-0.101423
-0.101423
-0.101424
-0.101424
-0.101424
-0.101424
-0.101424
-0.101424
-0.101424
-0.101424
-0.102701
-0.102701
-0.102701
-0.102701
-0.102701
-0.1027
-0.1027
-0.1027
-0.1027
-0.102699
-0.102699
-0.102699
-0.102699
-0.102699
-0.102699
-0.102699
-0.102699
-0.1027
-0.1027
-0.1027
-0.103977
-0.103977
-0.103977
-0.103977
-0.103977
-0.103976
-0.103976
-0.103976
-0.103976
-0.103976
-0.103976
-0.103975
-0.103975
-0.103975
-0.103975
-0.103975
-0.103975
-0.103975
-0.103976
-0.103976
-0.105253
-0.105253
-0.105253
-0.105253
-0.105253
-0.105253
-0.105252
-0.105252
-0.105252
-0.105252
-0.105252
-0.105251
-0.105251
-0.105251
-0.105251
-0.105251
-0.105251
-0.105251
-0.105251
-0.105252
-0.106529
-0.106529
-0.106529
-0.106529
-0.106529
-0.106528
-0.106528
-0.106528
-0.106528
-0.106528
-0.106528
-0.106528
-0.106527
-0.106527
-0.106527
-0.106527
-0.106527
-0.106527
-0.106527
-0.106528
-0.107805
-0.107805
-0.107805
-0.107805
-0.107805
-0.107804
-0.107804
-0.107804
-0.107804
-0.107804
-0.107804
-0.107804
-0.107803
-0.107803
-0.107803
-0.107803
-0.107803
-0.107803
-0.107803
-0.107804
-0.109081
-0.109081
-0.109081
-0.109081
-0.10908
-0.10908
-0.10908
-0.10908
-0.10908
-0.10908
-0.10908
-0.10908
-0.109079
-0.109079
-0.109079
-0.109079
-0.109079
-0.109079
-0.109079
-0.109079
-0.110357
-0.110357
-0.110357
-0.110356
-0.110356
-0.110356
-0.110356
-0.110356
-0.110356
-0.110356
-0.110356
-0.110355
-0.110355
-0.110355
-0.110355
-0.110355
-0.110355
-0.110354
-0.110355
-0.110355
-0.111633
-0.111632
-0.111632
-0.111632
-0.111632
-0.111632
-0.111632
-0.111632
-0.111632
-0.111632
-0.111631
-0.111631
-0.111631
-0.111631
-0.111631
-0.111631
-0.111631
-0.11163
-0.11163
-0.111631
-0.112908
-0.112908
-0.112908
-0.112908
-0.112908
-0.112908
-0.112908
-0.112908
-0.112908
-0.112907
-0.112907
-0.112907
-0.112907
-0.112907
-0.112906
-0.112906
-0.112906
-0.112905
-0.112906
-0.112907
-0.114184
-0.114184
-0.114184
-0.114184
-0.114184
-0.114184
-0.114184
-0.114184
-0.114183
-0.114183
-0.114183
-0.114183
-0.114183
-0.114182
-0.114182
-0.114182
-0.114182
-0.114181
-0.114181
-0.114182
-0.11546
-0.11546
-0.11546
-0.11546
-0.11546
-0.11546
-0.11546
-0.115459
-0.115459
-0.115459
-0.115459
-0.115458
-0.115458
-0.115458
-0.115458
-0.115457
-0.115456
-0.115457
-0.115457
-0.115458
-0.116736
-0.116736
-0.116736
-0.116736
-0.116736
-0.116736
-0.116735
-0.116735
-0.116735
-0.116735
-0.116734
-0.116734
-0.116734
-0.116733
-0.116733
-0.116733
-0.116732
-0.116733
-0.116733
-0.116733
-0.118012
-0.118012
-0.118012
-0.118012
-0.118012
-0.118012
-0.118011
-0.118011
-0.11801
-0.11801
-0.11801
-0.118009
-0.118009
-0.118009
-0.118009
-0.118009
-0.118008
-0.118008
-0.118008
-0.118008
-0.119289
-0.119289
-0.119289
-0.119288
-0.119288
-0.119287
-0.119287
-0.119286
-0.119286
-0.119285
-0.119285
-0.119285
-0.119285
-0.119285
-0.119284
-0.119284
-0.119284
-0.119284
-0.119284
-0.119284
-0.120565
-0.120565
-0.120565
-0.120564
-0.120564
-0.120563
-0.120563
-0.120562
-0.120561
-0.120561
-0.120561
-0.12056
-0.12056
-0.12056
-0.12056
-0.12056
-0.12056
-0.12056
-0.12056
-0.120559
-0.121842
-0.121841
-0.121841
-0.12184
-0.12184
-0.121839
-0.121838
-0.121838
-0.121837
-0.121836
-0.121836
-0.121836
-0.121836
-0.121836
-0.121836
-0.121835
-0.121836
-0.121836
-0.121836
-0.121835
-0.123117
-0.123117
-0.123117
-0.123116
-0.123115
-0.123115
-0.123114
-0.123113
-0.123113
-0.123112
-0.123112
-0.123112
-0.123112
-0.123111
-0.123111
-0.123111
-0.123111
-0.123111
-0.123111
-0.123111
-0.124393
-0.124393
-0.124392
-0.124392
-0.124391
-0.124391
-0.12439
-0.124389
-0.124389
-0.124388
-0.124388
-0.124388
-0.124387
-0.124387
-0.124387
-0.124387
-0.124387
-0.124387
-0.124387
-0.124387
-0.125668
-0.125668
-0.125668
-0.125667
-0.125667
-0.125666
-0.125665
-0.125665
-0.125664
-0.125664
-0.125664
-0.125664
-0.125663
-0.125663
-0.125663
-0.125663
-0.125663
-0.125663
-0.125663
-0.125663
-0.126943
-0.126943
-0.126943
-0.126943
-0.126942
-0.126942
-0.126941
-0.126941
-0.12694
-0.12694
-0.12694
-0.126939
-0.126939
-0.126939
-0.126939
-0.126939
-0.126939
-0.126939
-0.126939
-0.12694
-0.128218
-0.128218
-0.128218
-0.128217
-0.128217
-0.128217
-0.128216
-0.128216
-0.128216
-0.128216
-0.128215
-0.128215
-0.128215
-0.128215
-0.128215
-0.128215
-0.128216
-0.128216
-0.128215
-0.128216
-0.129492
-0.129493
-0.129492
-0.129492
-0.129492
-0.129491
-0.129491
-0.129491
-0.129491
-0.129491
-0.129491
-0.129491
-0.129491
-0.129492
-0.129492
-0.129492
-0.129492
-0.129492
-0.129492
-0.129492
-0.130766
-0.130767
-0.130766
-0.130766
-0.130766
-0.130766
-0.130766
-0.130766
-0.130766
-0.130767
-0.130767
-0.130767
-0.130768
-0.130768
-0.130768
-0.130768
-0.130768
-0.130768
-0.130768
-0.130768
-0.13204
-0.13204
-0.13204
-0.13204
-0.13204
-0.13204
-0.132041
-0.132041
-0.132042
-0.132042
-0.132043
-0.132043
-0.132044
-0.132044
-0.132045
-0.132045
-0.132045
-0.132045
-0.132045
-0.132044
-0.133313
-0.133314
-0.133313
-0.133314
-0.133314
-0.133315
-0.133315
-0.133316
-0.133317
-0.133318
-0.133319
-0.133319
-0.13332
-0.133321
-0.133321
-0.133322
-0.133322
-0.133322
-0.133322
-0.133321
-0.134586
-0.134587
-0.134587
-0.134587
-0.134588
-0.134588
-0.134589
-0.134591
-0.134592
-0.134593
-0.134594
-0.134596
-0.134597
-0.134597
-0.134598
-0.134599
-0.134599
-0.134599
-0.134599
-0.134598
-0.135859
-0.135859
-0.135859
-0.13586
-0.135861
-0.135862
-0.135863
-0.135865
-0.135867
-0.135868
-0.13587
-0.135872
-0.135873
-0.135874
-0.135875
-0.135876
-0.135877
-0.135877
-0.135877
-0.135877
-0.137131
-0.137131
-0.137131
-0.137132
-0.137133
-0.137135
-0.137137
-0.137139
-0.137141
-0.137144
-0.137146
-0.137148
-0.13715
-0.137152
-0.137153
-0.137155
-0.137155
-0.137156
-0.137156
-0.137155
-0.138403
-0.138403
-0.138403
-0.138404
-0.138405
-0.138407
-0.13841
-0.138413
-0.138416
-0.138419
-0.138422
-0.138425
-0.138428
-0.13843
-0.138432
-0.138433
-0.138434
-0.138435
-0.138435
-0.138435
-0.139673
-0.139673
-0.139674
-0.139675
-0.139677
-0.139679
-0.139682
-0.139686
-0.13969
-0.139694
-0.139698
-0.139702
-0.139705
-0.139708
-0.139711
-0.139713
-0.139714
-0.139715
-0.139715
-0.139714
-0.140943
-0.140943
-0.140943
-0.140945
-0.140947
-0.140951
-0.140955
-0.140959
-0.140964
-0.140969
-0.140974
-0.140979
-0.140983
-0.140987
-0.140991
-0.140993
-0.140995
-0.140996
-0.140996
-0.140995
-0.142212
-0.142211
-0.142212
-0.142214
-0.142217
-0.142221
-0.142226
-0.142232
-0.142238
-0.142244
-0.14225
-0.142256
-0.142262
-0.142267
-0.142271
-0.142275
-0.142277
-0.142278
-0.142278
-0.142278
-0.143479
-0.143478
-0.143479
-0.143482
-0.143485
-0.14349
-0.143497
-0.143504
-0.143511
-0.143519
-0.143527
-0.143534
-0.143541
-0.143547
-0.143553
-0.143557
-0.14356
-0.143562
-0.143562
-0.143561
-0.144744
-0.144744
-0.144745
-0.144748
-0.144752
-0.144759
-0.144766
-0.144775
-0.144784
-0.144793
-0.144803
-0.144812
-0.144821
-0.144829
-0.144836
-0.144841
-0.144845
-0.144848
-0.144848
-0.144847
-0.146007
-0.146007
-0.146008
-0.146012
-0.146017
-0.146025
-0.146034
-0.146045
-0.146056
-0.146068
-0.146079
-0.146091
-0.146102
-0.146112
-0.14612
-0.146127
-0.146132
-0.146135
-0.146136
-0.146134
-0.147268
-0.147267
-0.147269
-0.147273
-0.14728
-0.14729
-0.147301
-0.147314
-0.147327
-0.147342
-0.147356
-0.14737
-0.147384
-0.147396
-0.147407
-0.147415
-0.147421
-0.147425
-0.147426
-0.147424
-0.148526
-0.148525
-0.148527
-0.148532
-0.148541
-0.148552
-0.148566
-0.148581
-0.148598
-0.148615
-0.148633
-0.148651
-0.148667
-0.148682
-0.148695
-0.148706
-0.148713
-0.148718
-0.14872
-0.148718
-0.149779
-0.149778
-0.149781
-0.149787
-0.149798
-0.149812
-0.149828
-0.149847
-0.149867
-0.149889
-0.14991
-0.149931
-0.149952
-0.14997
-0.149986
-0.149999
-0.150009
-0.150015
-0.150017
-0.150015
-0.151028
-0.151027
-0.15103
-0.151038
-0.151051
-0.151068
-0.151088
-0.151111
-0.151136
-0.151162
-0.151188
-0.151214
-0.151238
-0.151261
-0.15128
-0.151296
-0.151308
-0.151316
-0.151319
-0.151317
-0.152272
-0.15227
-0.152274
-0.152284
-0.1523
-0.152321
-0.152345
-0.152373
-0.152403
-0.152434
-0.152466
-0.152497
-0.152527
-0.152554
-0.152578
-0.152598
-0.152613
-0.152623
-0.152626
-0.152624
-0.153508
-0.153506
-0.153512
-0.153524
-0.153543
-0.153568
-0.153598
-0.153632
-0.153668
-0.153706
-0.153745
-0.153783
-0.153819
-0.153852
-0.153881
-0.153905
-0.153924
-0.153936
-0.15394
-0.153938
-0.154737
-0.154735
-0.154741
-0.154757
-0.15478
-0.15481
-0.154846
-0.154887
-0.154931
-0.154977
-0.155024
-0.15507
-0.155114
-0.155154
-0.15519
-0.155219
-0.155242
-0.155257
-0.155263
-0.15526
-0.155955
-0.155954
-0.155962
-0.155981
-0.156009
-0.156046
-0.156089
-0.156139
-0.156192
-0.156248
-0.156305
-0.156361
-0.156414
-0.156462
-0.156505
-0.156541
-0.156569
-0.156587
-0.156595
-0.156592
-0.157162
-0.157161
-0.15717
-0.157193
-0.157228
-0.157272
-0.157325
-0.157385
-0.15745
-0.157518
-0.157587
-0.157654
-0.157718
-0.157777
-0.157829
-0.157873
-0.157907
-0.157929
-0.157938
-0.157936
-0.158355
-0.158353
-0.158365
-0.158393
-0.158435
-0.158489
-0.158553
-0.158626
-0.158704
-0.158786
-0.158869
-0.158951
-0.159029
-0.1591
-0.159163
-0.159216
-0.159257
-0.159285
-0.159297
-0.159294
-0.159531
-0.159529
-0.159544
-0.159578
-0.159629
-0.159694
-0.159772
-0.159859
-0.159954
-0.160053
-0.160154
-0.160252
-0.160346
-0.160433
-0.16051
-0.160574
-0.160624
-0.160657
-0.160672
-0.160668
-0.160686
-0.160684
-0.160702
-0.160744
-0.160805
-0.160884
-0.160978
-0.161084
-0.161199
-0.161318
-0.16144
-0.161559
-0.161673
-0.161778
-0.16187
-0.161948
-0.162008
-0.162049
-0.162067
-0.162064
-0.161816
-0.161814
-0.161837
-0.161887
-0.161962
-0.162057
-0.162171
-0.162299
-0.162437
-0.162581
-0.162728
-0.162872
-0.163009
-0.163136
-0.163248
-0.163342
-0.163415
-0.163465
-0.163487
-0.163483
-0.162917
-0.162915
-0.162943
-0.163004
-0.163095
-0.16321
-0.163347
-0.163501
-0.163667
-0.163842
-0.164019
-0.164192
-0.164358
-0.164511
-0.164647
-0.16476
-0.164849
-0.164909
-0.164936
-0.164933
-0.163981
-0.16398
-0.164015
-0.16409
-0.164198
-0.164338
-0.164503
-0.164688
-0.164889
-0.165099
-0.165312
-0.165522
-0.165722
-0.165906
-0.16607
-0.166207
-0.166314
-0.166387
-0.16642
-0.166418
-0.165004
-0.165004
-0.165047
-0.165137
-0.165268
-0.165436
-0.165634
-0.165858
-0.1661
-0.166353
-0.166609
-0.166862
-0.167103
-0.167326
-0.167523
-0.167688
-0.167818
-0.167905
-0.167947
-0.167945
-0.165976
-0.165976
-0.166029
-0.166138
-0.166297
-0.166498
-0.166738
-0.167007
-0.167298
-0.167602
-0.167911
-0.168215
-0.168505
-0.168773
-0.169011
-0.16921
-0.169366
-0.169472
-0.169523
-0.169523
-0.166887
-0.166889
-0.166954
-0.167085
-0.167276
-0.167519
-0.167807
-0.16813
-0.16848
-0.168846
-0.169218
-0.169583
-0.169932
-0.170255
-0.17054
-0.170781
-0.170969
-0.171097
-0.17116
-0.171161
-0.167726
-0.16773
-0.167809
-0.167968
-0.168198
-0.16849
-0.168835
-0.169224
-0.169644
-0.170084
-0.17053
-0.17097
-0.171389
-0.171776
-0.17212
-0.172409
-0.172635
-0.172791
-0.172868
-0.172871
-0.168479
-0.168486
-0.168582
-0.168774
-0.16905
-0.169401
-0.169816
-0.170283
-0.170787
-0.171315
-0.17185
-0.172378
-0.172881
-0.173346
-0.173758
-0.174106
-0.174379
-0.174567
-0.17466
-0.174667
-0.16913
-0.16914
-0.169257
-0.169488
-0.16982
-0.170241
-0.170739
-0.171299
-0.171904
-0.172537
-0.173179
-0.173811
-0.174415
-0.174973
-0.175468
-0.175885
-0.176213
-0.17644
-0.176554
-0.176564
-0.169658
-0.169673
-0.169815
-0.170093
-0.170492
-0.170997
-0.171594
-0.172265
-0.17299
-0.173749
-0.174518
-0.175276
-0.175999
-0.176667
-0.177261
-0.177762
-0.178156
-0.178429
-0.178568
-0.178583
-0.170041
-0.170062
-0.170235
-0.170569
-0.171047
-0.171653
-0.172368
-0.173171
-0.17404
-0.174948
-0.175869
-0.176776
-0.177643
-0.178443
-0.179154
-0.179754
-0.180227
-0.180555
-0.180724
-0.180746
-0.17025
-0.17028
-0.17049
-0.170891
-0.171464
-0.17219
-0.173045
-0.174007