/*--------------------------------*- C++ -*----------------------------------*\
| =========                 |                                                 |
| \\      /  F ield         | OpenFOAM: The Open Source CFD Toolbox           |
|  \\    /   O peration     | Version:  5.x                                   |
|   \\  /    A nd           | Web:      www.OpenFOAM.org                      |
|    \\/     M anipulation  |                                                 |
\*---------------------------------------------------------------------------*/
FoamFile
{
    version     2.0;
    format      ascii;
    class       surfaceScalarField;
    location    "0.4";
    object      phi;
}
// * * * * * * * * * * * * * * * * * * * * * * * * * * * * * * * * * * * * * //

dimensions      [0 3 -1 0 0 0 0];

internalField   nonuniform List<scalar> 
15580
(
2.06982e-17
-1.12252e-10
1.85025e-18
-3.25589e-10
-1.47822e-17
-5.15275e-10
-2.88445e-17
-6.76253e-10
-4.06809e-17
-8.07449e-10
-5.13017e-17
-9.10352e-10
-6.16025e-17
-9.87712e-10
-7.21928e-17
-1.04254e-09
-8.31548e-17
-1.07747e-09
-9.40286e-17
-1.09443e-09
-1.03974e-16
-1.09443e-09
-1.11757e-16
-1.07747e-09
-1.15835e-16
-1.04254e-09
-1.14286e-16
-9.87712e-10
-1.04737e-16
-9.10352e-10
-8.3838e-17
-8.07449e-10
-4.91966e-17
-6.76254e-10
-4.18559e-18
-5.15275e-10
4.02309e-17
-3.25589e-10
-1.12251e-10
-1.40273e-18
-1.12252e-10
-1.23548e-17
-3.25589e-10
-2.62109e-17
-5.15275e-10
-3.72571e-17
-6.76253e-10
-4.64846e-17
-8.07449e-10
-5.50641e-17
-9.10352e-10
-6.38773e-17
-9.87712e-10
-7.346e-17
-1.04254e-09
-8.39008e-17
-1.07747e-09
-9.48544e-17
-1.09443e-09
-1.05685e-16
-1.09443e-09
-1.15385e-16
-1.07747e-09
-1.22638e-16
-1.04254e-09
-1.2582e-16
-9.87712e-10
-1.22748e-16
-9.10352e-10
-1.09295e-16
-8.07449e-10
-7.92576e-17
-6.76254e-10
-3.51773e-17
-5.15275e-10
7.0824e-18
-3.25589e-10
-1.12251e-10
-1.97824e-17
-1.12252e-10
-3.17774e-17
-3.25589e-10
-4.15813e-17
-5.15275e-10
-4.86298e-17
-6.76253e-10
-5.44118e-17
-8.07449e-10
-6.00924e-17
-9.10352e-10
-6.65325e-17
-9.87712e-10
-7.42257e-17
-1.04254e-09
-8.3317e-17
-1.07747e-09
-9.37273e-17
-1.09443e-09
-1.05095e-16
-1.09443e-09
-1.16692e-16
-1.07747e-09
-1.27589e-16
-1.04254e-09
-1.36431e-16
-9.87712e-10
-1.42085e-16
-9.10352e-10
-1.42354e-16
-8.07449e-10
-1.28324e-16
-6.76254e-10
-1.00815e-16
-5.15275e-10
-5.89992e-17
-3.25589e-10
-1.12251e-10
-3.18389e-17
-1.12252e-10
-4.64104e-17
-3.25589e-10
-5.39455e-17
-5.15275e-10
-5.77755e-17
-6.76253e-10
-6.03145e-17
-8.07449e-10
-6.29699e-17
-9.10352e-10
-6.6685e-17
-9.87712e-10
-7.19919e-17
-1.04254e-09
-7.92696e-17
-1.07747e-09
-8.86831e-17
-1.09443e-09
-1.00081e-16
-1.09443e-09
-1.13176e-16
-1.07747e-09
-1.27384e-16
-1.04254e-09
-1.41498e-16
-9.87712e-10
-1.54704e-16
-9.10352e-10
-1.67047e-16
-8.07449e-10
-1.75739e-16
-6.76254e-10
-1.72871e-16
-5.15275e-10
-1.3173e-16
-3.25589e-10
-1.12251e-10
-3.56359e-17
-1.12252e-10
-5.32849e-17
-3.25589e-10
-6.03282e-17
-5.15275e-10
-6.17731e-17
-6.76253e-10
-6.14216e-17
-8.07449e-10
-6.11915e-17
-9.10352e-10
-6.22017e-17
-9.87712e-10
-6.51299e-17
-1.04254e-09
-7.04591e-17
-1.07747e-09
-7.84902e-17
-1.09443e-09
-8.93363e-17
-1.09443e-09
-1.03071e-16
-1.07747e-09
-1.19489e-16
-1.04254e-09
-1.3766e-16
-9.87712e-10
-1.56312e-16
-9.10352e-10
-1.75377e-16
-8.07449e-10
-1.97939e-16
-6.76254e-10
-2.00091e-16
-5.15275e-10
-1.43019e-16
-3.25589e-10
-1.12252e-10
-3.38548e-17
-1.12251e-10
-5.44093e-17
-3.25589e-10
-6.07509e-17
-5.15275e-10
-5.954e-17
-6.76253e-10
-5.62595e-17
-8.07449e-10
-5.35076e-17
-9.10352e-10
-5.22901e-17
-9.87712e-10
-5.31135e-17
-1.04254e-09
-5.65019e-17
-1.07747e-09
-6.28042e-17
-1.09443e-09
-7.2231e-17
-1.09443e-09
-8.49381e-17
-1.07747e-09
-1.00858e-16
-1.04254e-09
-1.195e-16
-9.87712e-10
-1.39895e-16
-9.10352e-10
-1.62016e-16
-8.07449e-10
-1.88351e-16
-6.76254e-10
-1.93746e-16
-5.15275e-10
-1.38154e-16
-3.25589e-10
-1.12252e-10
-3.34935e-17
-1.12251e-10
-5.42044e-17
-3.25589e-10
-5.69082e-17
-5.15275e-10
-5.11327e-17
-6.76253e-10
-4.45231e-17
-8.07449e-10
-3.98584e-17
-9.10352e-10
-3.71013e-17
-9.87712e-10
-3.63136e-17
-1.04254e-09
-3.78935e-17
-1.07747e-09
-4.21661e-17
-1.09443e-09
-4.92337e-17
-1.09443e-09
-5.9033e-17
-1.07747e-09
-7.1197e-17
-1.04254e-09
-8.57761e-17
-9.87712e-10
-1.029e-16
-9.10352e-10
-1.20595e-16
-8.07449e-10
-1.4629e-16
-6.76253e-10
-1.71195e-16
-5.15275e-10
-1.55162e-16
-3.25589e-10
-1.12252e-10
-4.10383e-17
-1.12251e-10
-5.33659e-17
-3.25589e-10
-4.82673e-17
-5.15275e-10
-3.63067e-17
-6.76253e-10
-2.66408e-17
-8.07449e-10
-2.11362e-17
-9.10352e-10
-1.77705e-17
-9.87712e-10
-1.58718e-17
-1.04254e-09
-1.59018e-17
-1.07747e-09
-1.80927e-17
-1.09443e-09
-2.23603e-17
-1.09443e-09
-2.83337e-17
-1.07747e-09
-3.55641e-17
-1.04254e-09
-4.37502e-17
-9.87712e-10
-5.24585e-17
-9.10352e-10
-6.09787e-17
-8.07449e-10
-7.4435e-17
-6.76253e-10
-8.25479e-17
-5.15275e-10
-6.09903e-17
-3.25589e-10
-1.12252e-10
-4.13721e-17
-1.12251e-10
-3.88821e-17
-3.25589e-10
-2.87186e-17
-5.15275e-10
-1.39852e-17
-6.76253e-10
-4.22522e-18
-8.07449e-10
1.11939e-18
-9.10352e-10
4.46165e-18
-9.87712e-10
6.83349e-18
-1.04254e-09
7.79261e-18
-1.07747e-09
7.22071e-18
-1.09443e-09
5.29383e-18
-1.09443e-09
2.32253e-18
-1.07747e-09
-1.50696e-18
-1.04254e-09
-5.95941e-18
-9.87712e-10
-1.03295e-17
-9.10352e-10
-1.61147e-17
-8.07449e-10
-1.69379e-17
-6.76253e-10
-1.31202e-18
-5.15275e-10
2.58104e-17
-3.25589e-10
-1.12252e-10
5.7283e-18
-1.12251e-10
4.14916e-18
-3.25589e-10
6.34829e-18
-5.15275e-10
1.46546e-17
-6.76253e-10
2.01672e-17
-8.07449e-10
2.48137e-17
-9.10352e-10
2.81818e-17
-9.87712e-10
3.01349e-17
-1.04254e-09
3.12522e-17
-1.07747e-09
3.1541e-17
-1.09443e-09
3.08933e-17
-1.09443e-09
2.93678e-17
-1.07747e-09
2.70312e-17
-1.04254e-09
2.35832e-17
-9.87712e-10
1.90271e-17
-9.10352e-10
1.27404e-17
-8.07449e-10
1.34884e-17
-6.76253e-10
2.25557e-17
-5.15275e-10
2.32233e-17
-3.25589e-10
-1.12252e-10
5.4305e-17
-1.12251e-10
4.97153e-17
-3.25589e-10
4.49658e-17
-5.15275e-10
4.32238e-17
-6.76253e-10
4.4194e-17
-8.07449e-10
4.72779e-17
-9.10352e-10
5.02327e-17
-9.87712e-10
5.20721e-17
-1.04254e-09
5.311e-17
-1.07747e-09
5.35439e-17
-1.09443e-09
5.3351e-17
-1.09443e-09
5.24219e-17
-1.07747e-09
5.05058e-17
-1.04254e-09
4.73095e-17
-9.87712e-10
4.189e-17
-9.10352e-10
3.2348e-17
-8.07449e-10
2.90032e-17
-6.76253e-10
2.50703e-17
-5.15275e-10
1.2798e-17
-3.25589e-10
-1.12252e-10
5.24863e-17
-1.12251e-10
7.24852e-17
-3.25589e-10
7.14301e-17
-5.15275e-10
6.60847e-17
-6.76253e-10
6.50682e-17
-8.07449e-10
6.69949e-17
-9.10352e-10
6.96081e-17
-9.87712e-10
7.14601e-17
-1.04254e-09
7.2329e-17
-1.07747e-09
7.25103e-17
-1.09443e-09
7.22074e-17
-1.09443e-09
7.1367e-17
-1.07747e-09
6.96741e-17
-1.04254e-09
6.66686e-17
-9.87712e-10
6.14919e-17
-9.10352e-10
5.19152e-17
-8.07449e-10
4.25556e-17
-6.76253e-10
2.8456e-17
-5.15275e-10
3.24226e-18
-3.25589e-10
-1.12252e-10
5.11849e-17
-1.12252e-10
7.5306e-17
-3.25589e-10
8.17489e-17
-5.15275e-10
8.02419e-17
-6.76253e-10
8.07945e-17
-8.07449e-10
8.32278e-17
-9.10352e-10
8.59698e-17
-9.87712e-10
8.76479e-17
-1.04254e-09
8.80773e-17
-1.07747e-09
8.77018e-17
-1.09443e-09
8.69542e-17
-1.09443e-09
8.58185e-17
-1.07747e-09
8.40126e-17
-1.04254e-09
8.07488e-17
-9.87712e-10
7.58605e-17
-9.10352e-10
6.87224e-17
-8.07449e-10
5.92149e-17
-6.76253e-10
4.31959e-17
-5.15275e-10
1.61125e-17
-3.25589e-10
-1.12252e-10
3.53089e-17
-1.12252e-10
5.67119e-17
-3.25589e-10
7.42947e-17
-5.15275e-10
8.43798e-17
-6.76253e-10
9.15785e-17
-8.07449e-10
9.66868e-17
-9.10352e-10
9.97483e-17
-9.87712e-10
1.00641e-16
-1.04254e-09
1.00036e-16
-1.07747e-09
9.87425e-17
-1.09443e-09
9.72779e-17
-1.09443e-09
9.56516e-17
-1.07747e-09
9.34114e-17
-1.04254e-09
8.96189e-17
-9.87712e-10
8.4963e-17
-9.10352e-10
8.14145e-17
-8.07449e-10
7.68302e-17
-6.76253e-10
6.51261e-17
-5.15275e-10
3.95052e-17
-3.25589e-10
-1.12252e-10
-3.69853e-18
-1.12252e-10
2.59803e-17
-3.25589e-10
5.779e-17
-5.15275e-10
8.24332e-17
-6.76253e-10
9.91503e-17
-8.07449e-10
1.07797e-16
-9.10352e-10
1.10727e-16
-9.87712e-10
1.10197e-16
-1.04254e-09
1.0803e-16
-1.07747e-09
1.05492e-16
-1.09443e-09
1.03208e-16
-1.09443e-09
1.01141e-16
-1.07747e-09
9.85341e-17
-1.04254e-09
9.45719e-17
-9.87712e-10
9.06403e-17
-9.10352e-10
9.13302e-17
-8.07449e-10
9.24423e-17
-6.76253e-10
8.62259e-17
-5.15275e-10
6.23901e-17
-3.25589e-10
-1.12252e-10
-2.36903e-17
-1.12252e-10
9.40336e-18
-3.25589e-10
5.03524e-17
-5.15275e-10
8.40855e-17
-6.76254e-10
1.06207e-16
-8.07449e-10
1.16438e-16
-9.10352e-10
1.18357e-16
-9.87712e-10
1.15904e-16
-1.04254e-09
1.11843e-16
-1.07747e-09
1.07874e-16
-1.09443e-09
1.0488e-16
-1.09443e-09
1.0281e-16
-1.07747e-09
1.00374e-16
-1.04254e-09
9.73346e-17
-9.87712e-10
9.5467e-17
-9.10352e-10
9.94171e-17
-8.07449e-10
1.03556e-16
-6.76253e-10
1.004e-16
-5.15275e-10
7.64937e-17
-3.25589e-10
-1.12252e-10
-2.22868e-17
-1.12252e-10
2.17871e-17
-3.25589e-10
6.50551e-17
-5.15275e-10
9.80506e-17
-6.76254e-10
1.16942e-16
-8.07449e-10
1.23852e-16
-9.10352e-10
1.22741e-16
-9.87712e-10
1.17532e-16
-1.04254e-09
1.11228e-16
-1.07747e-09
1.05762e-16
-1.09443e-09
1.02333e-16
-1.09443e-09
1.01099e-16
-1.07747e-09
1.00244e-16
-1.04254e-09
1.00258e-16
-9.87712e-10
1.01783e-16
-9.10352e-10
1.05676e-16
-8.07449e-10
1.08368e-16
-6.76253e-10
1.0409e-16
-5.15275e-10
7.84846e-17
-3.25589e-10
-1.12252e-10
1.27031e-17
-1.12252e-10
7.10595e-17
-3.25589e-10
1.07986e-16
-5.15275e-10
1.25031e-16
-6.76254e-10
1.31511e-16
-8.07449e-10
1.30143e-16
-9.10352e-10
1.23589e-16
-9.87712e-10
1.14727e-16
-1.04254e-09
1.05966e-16
-1.07747e-09
9.90389e-17
-1.09443e-09
9.53671e-17
-1.09443e-09
9.55278e-17
-1.07747e-09
9.76141e-17
-1.04254e-09
1.02519e-16
-9.87712e-10
1.07047e-16
-9.10352e-10
1.0913e-16
-8.07449e-10
1.07654e-16
-6.76253e-10
9.92802e-17
-5.15275e-10
7.04803e-17
-3.25589e-10
-1.12252e-10
9.8598e-17
-1.12252e-10
1.5275e-16
-3.25589e-10
1.66376e-16
-5.15275e-10
1.56787e-16
-6.76254e-10
1.44686e-16
-8.07449e-10
1.32366e-16
-9.10352e-10
1.19496e-16
-9.87712e-10
1.0702e-16
-1.04254e-09
9.61725e-17
-1.07747e-09
8.82568e-17
-1.09443e-09
8.48295e-17
-1.09443e-09
8.62996e-17
-1.07747e-09
9.09977e-17
-1.04254e-09
9.75797e-17
-9.87712e-10
1.05692e-16
-9.10352e-10
1.08204e-16
-8.07449e-10
1.0354e-16
-6.76253e-10
9.05719e-17
-5.15275e-10
5.87136e-17
-3.25589e-10
-1.12252e-10
1.70554e-16
-1.12252e-10
2.21297e-16
-3.25589e-10
2.06805e-16
-5.15275e-10
1.72993e-16
-6.76254e-10
1.45754e-16
-8.07449e-10
1.25279e-16
-9.10352e-10
1.0834e-16
-9.87712e-10
9.39569e-17
-1.04254e-09
8.2404e-17
-1.07747e-09
7.4925e-17
-1.09443e-09
7.32904e-17
-1.09443e-09
7.69134e-17
-1.07747e-09
8.31988e-17
-1.04254e-09
8.91015e-17
-9.87712e-10
9.87131e-17
-9.10352e-10
1.02431e-16
-8.07449e-10
9.70243e-17
-6.76253e-10
8.14255e-17
-5.15275e-10
4.90782e-17
-3.25589e-10
-1.12251e-10
1.93812e-16
-1.12252e-10
2.25494e-16
-3.25589e-10
1.99211e-16
-5.15275e-10
1.58292e-16
-6.76253e-10
1.27081e-16
-8.07449e-10
1.05663e-16
-9.10352e-10
8.9061e-17
-9.87712e-10
7.55927e-17
-1.04254e-09
6.54857e-17
-1.07747e-09
6.05229e-17
-1.09443e-09
6.24224e-17
-1.09443e-09
6.83223e-17
-1.07747e-09
7.45384e-17
-1.04254e-09
8.18206e-17
-9.87712e-10
8.80797e-17
-9.10352e-10
9.11737e-17
-8.07449e-10
8.79948e-17
-6.76253e-10
7.33948e-17
-5.15275e-10
4.46033e-17
-3.25589e-10
-1.12251e-10
1.15555e-16
-1.12252e-10
1.35518e-16
-3.25589e-10
1.32592e-16
-5.15275e-10
1.13075e-16
-6.76253e-10
9.1607e-17
-8.07449e-10
7.51311e-17
-9.10352e-10
6.24645e-17
-9.87712e-10
5.25201e-17
-1.04254e-09
4.60136e-17
-1.07747e-09
4.49232e-17
-1.09443e-09
4.91906e-17
-1.09443e-09
5.38012e-17
-1.07747e-09
5.83996e-17
-1.04254e-09
6.57429e-17
-9.87712e-10
7.07092e-17
-9.10352e-10
7.47615e-17
-8.07449e-10
7.52307e-17
-6.76253e-10
6.51101e-17
-5.15275e-10
4.28915e-17
-3.25589e-10
-1.12251e-10
3.58013e-17
-1.12252e-10
3.15554e-17
-3.25589e-10
4.68416e-17
-5.15275e-10
5.46582e-17
-6.76253e-10
4.82878e-17
-8.07449e-10
3.88179e-17
-9.10352e-10
3.13309e-17
-9.87712e-10
2.64419e-17
-1.04254e-09
2.45179e-17
-1.07747e-09
2.59243e-17
-1.09443e-09
2.80518e-17
-1.09443e-09
2.8791e-17
-1.07747e-09
3.16984e-17
-1.04254e-09
3.74699e-17
-9.87712e-10
4.37033e-17
-9.10352e-10
5.03383e-17
-8.07449e-10
5.50847e-17
-6.76253e-10
5.16932e-17
-5.15275e-10
3.74542e-17
-3.25589e-10
-1.12251e-10
-7.1989e-17
-1.12252e-10
-5.08309e-17
-3.25589e-10
-2.43323e-17
-5.15275e-10
-1.63062e-18
-6.76253e-10
4.62912e-18
-8.07449e-10
3.44389e-18
-9.10352e-10
1.01691e-18
-9.87712e-10
-1.14906e-19
-1.04254e-09
4.73656e-19
-1.07747e-09
9.83171e-19
-1.09443e-09
-1.46547e-18
-1.09443e-09
-3.95119e-18
-1.07747e-09
-2.7058e-18
-1.04254e-09
1.34864e-18
-9.87712e-10
7.52788e-18
-9.10352e-10
1.55642e-17
-8.07449e-10
2.46387e-17
-6.76253e-10
2.92111e-17
-5.15275e-10
2.42197e-17
-3.25589e-10
-1.12251e-10
-5.78642e-17
-1.12252e-10
-6.95082e-17
-3.25589e-10
-5.51271e-17
-5.15275e-10
-3.74842e-17
-6.76254e-10
-2.87122e-17
-8.07449e-10
-2.63306e-17
-9.10352e-10
-2.59694e-17
-9.87712e-10
-2.57328e-17
-1.04254e-09
-2.5708e-17
-1.07747e-09
-2.78201e-17
-1.09443e-09
-3.33365e-17
-1.09443e-09
-3.89892e-17
-1.07747e-09
-4.14867e-17
-1.04254e-09
-4.08678e-17
-9.87712e-10
-3.71221e-17
-9.10352e-10
-2.92284e-17
-8.07449e-10
-1.60351e-17
-6.76253e-10
-1.93225e-18
-5.15275e-10
5.35521e-18
-3.25589e-10
-1.12251e-10
-4.55979e-17
-1.12252e-10
-6.33502e-17
-3.25589e-10
-6.43391e-17
-5.15275e-10
-5.67879e-17
-6.76254e-10
-5.13513e-17
-8.07449e-10
-4.91127e-17
-9.10352e-10
-4.84032e-17
-9.87712e-10
-4.87026e-17
-1.04254e-09
-5.07306e-17
-1.07747e-09
-5.59332e-17
-1.09443e-09
-6.44372e-17
-1.09443e-09
-7.36548e-17
-1.07747e-09
-8.13516e-17
-1.04254e-09
-8.65339e-17
-9.87712e-10
-8.78186e-17
-9.10352e-10
-8.18881e-17
-8.07449e-10
-6.54737e-17
-6.76253e-10
-3.93655e-17
-5.15275e-10
-1.26852e-17
-3.25589e-10
-1.12251e-10
-2.93358e-17
-1.12252e-10
-5.17382e-17
-3.25589e-10
-6.39403e-17
-5.15275e-10
-6.63852e-17
-6.76254e-10
-6.56684e-17
-8.07449e-10
-6.52681e-17
-9.10352e-10
-6.57248e-17
-9.87712e-10
-6.76206e-17
-1.04254e-09
-7.20018e-17
-1.07747e-09
-7.99994e-17
-1.09443e-09
-9.13043e-17
-1.09443e-09
-1.04561e-16
-1.07747e-09
-1.18134e-16
-1.04254e-09
-1.30863e-16
-9.87712e-10
-1.4e-16
-9.10352e-10
-1.39674e-16
-8.07449e-10
-1.24069e-16
-6.76254e-10
-9.00215e-17
-5.15275e-10
-3.21419e-17
-3.25589e-10
-1.12251e-10
-1.67662e-17
-1.12252e-10
-4.19209e-17
-3.25589e-10
-6.18139e-17
-5.15275e-10
-7.14314e-17
-6.76254e-10
-7.46874e-17
-8.07449e-10
-7.63627e-17
-9.10352e-10
-7.84263e-17
-9.87712e-10
-8.20003e-17
-1.04254e-09
-8.81991e-17
-1.07747e-09
-9.79622e-17
-1.09443e-09
-1.11308e-16
-1.09443e-09
-1.27724e-16
-1.07747e-09
-1.46534e-16
-1.04254e-09
-1.66838e-16
-9.87712e-10
-1.85769e-16
-9.10352e-10
-1.97542e-16
-8.07449e-10
-1.93791e-16
-6.76254e-10
-1.65448e-16
-5.15275e-10
-1.06938e-16
-3.25589e-10
-1.12251e-10
-1.29882e-17
-1.12252e-10
-3.93191e-17
-3.25589e-10
-6.23259e-17
-5.15275e-10
-7.53262e-17
-6.76253e-10
-8.08846e-17
-8.07449e-10
-8.40359e-17
-9.10352e-10
-8.72251e-17
-9.87712e-10
-9.16785e-17
-1.04254e-09
-9.84757e-17
-1.07747e-09
-1.0852e-16
-1.09443e-09
-1.22228e-16
-1.09443e-09
-1.39774e-16
-1.07747e-09
-1.61203e-16
-1.04254e-09
-1.86017e-16
-9.87712e-10
-2.12086e-16
-9.10352e-10
-2.34795e-16
-8.07449e-10
-2.46527e-16
-6.76253e-10
-2.31495e-16
-5.15275e-10
-1.7042e-16
-3.25589e-10
-1.12252e-10
-1.85002e-17
-1.12252e-10
-4.43737e-17
-3.25589e-10
-6.63803e-17
-5.15275e-10
-7.94346e-17
-6.76253e-10
-8.55846e-17
-8.07449e-10
-8.91929e-17
-9.10352e-10
-9.24348e-17
-9.87712e-10
-9.64452e-17
-1.04254e-09
-1.02308e-16
-1.07747e-09
-1.10967e-16
-1.09443e-09
-1.23076e-16
-1.09443e-09
-1.39105e-16
-1.07747e-09
-1.59261e-16
-1.04254e-09
-1.83236e-16
-9.87712e-10
-2.09747e-16
-9.10352e-10
-2.36086e-16
-8.07449e-10
-2.55551e-16
-6.76253e-10
-2.52315e-16
-5.15275e-10
-1.97393e-16
-3.25589e-10
-1.12252e-10
-2.91268e-17
-1.12252e-10
-5.36307e-17
-3.25589e-10
-7.2341e-17
-5.15275e-10
-8.35328e-17
-6.76253e-10
-8.90014e-17
-8.07449e-10
-9.19277e-17
-9.10352e-10
-9.39529e-17
-9.87712e-10
-9.61685e-17
-1.04254e-09
-9.97351e-17
-1.07747e-09
-1.05621e-16
-1.09443e-09
-1.14447e-16
-1.09443e-09
-1.26506e-16
-1.07747e-09
-1.41694e-16
-1.04254e-09
-1.59508e-16
-9.87712e-10
-1.78958e-16
-9.10352e-10
-1.98037e-16
-8.07449e-10
-2.11312e-16
-6.76253e-10
-2.07001e-16
-5.15275e-10
-1.59555e-16
-3.25589e-10
-1.12252e-10
-3.87468e-17
-1.12252e-10
-6.2521e-17
-3.25589e-10
-7.81229e-17
-5.15275e-10
-8.68768e-17
-6.76253e-10
-9.07577e-17
-8.07449e-10
-9.18944e-17
-9.10352e-10
-9.15792e-17
-9.87712e-10
-9.10003e-17
-1.04254e-09
-9.13928e-17
-1.07747e-09
-9.3651e-17
-1.09443e-09
-9.81487e-17
-1.09443e-09
-1.04756e-16
-1.07747e-09
-1.12922e-16
-1.04254e-09
-1.21859e-16
-9.87712e-10
-1.30452e-16
-9.10352e-10
-1.36422e-16
-8.07449e-10
-1.36148e-16
-6.76253e-10
-1.21889e-16
-5.15275e-10
-7.66352e-17
-3.25589e-10
-1.12252e-10
-4.50881e-17
-1.12252e-10
-6.96036e-17
-3.25589e-10
-8.28669e-17
-5.15275e-10
-8.9023e-17
-6.76253e-10
-9.045e-17
-8.07449e-10
-8.8785e-17
-9.10352e-10
-8.53362e-17
-9.87712e-10
-8.1451e-17
-1.04254e-09
-7.83406e-17
-1.07747e-09
-7.67007e-17
-1.09443e-09
-7.65801e-17
-1.09443e-09
-7.74938e-17
-1.07747e-09
-7.86785e-17
-1.04254e-09
-7.93701e-17
-9.87712e-10
-7.8653e-17
-9.10352e-10
-7.48421e-17
-8.07449e-10
-6.59639e-17
-6.76253e-10
-4.8314e-17
-5.15275e-10
-1.13631e-17
-3.25589e-10
-1.12252e-10
-4.92615e-17
-1.12252e-10
-7.49121e-17
-3.25589e-10
-8.66092e-17
-5.15275e-10
-8.97161e-17
-6.76253e-10
-8.77453e-17
-8.07449e-10
-8.24968e-17
-9.10352e-10
-7.55473e-17
-9.87712e-10
-6.83299e-17
-1.04254e-09
-6.1871e-17
-1.07747e-09
-5.65632e-17
-1.09443e-09
-5.21683e-17
-1.09443e-09
-4.80556e-17
-1.07747e-09
-4.3572e-17
-1.04254e-09
-3.83339e-17
-9.87712e-10
-3.21762e-17
-9.10352e-10
-2.49575e-17
-8.07449e-10
-1.76919e-17
-6.76253e-10
-1.15786e-17
-5.15275e-10
-3.99169e-18
-3.25589e-10
-1.12252e-10
-5.39829e-17
-1.12252e-10
-8.0687e-17
-3.25589e-10
-8.94068e-17
-5.15275e-10
-8.8414e-17
-6.76253e-10
-8.21894e-17
-8.07449e-10
-7.30189e-17
-9.10352e-10
-6.2716e-17
-9.87712e-10
-5.26037e-17
-1.04254e-09
-4.33574e-17
-1.07747e-09
-3.501e-17
-1.09443e-09
-2.71102e-17
-1.09443e-09
-1.90423e-17
-1.07747e-09
-1.0411e-17
-1.04254e-09
-1.30596e-18
-9.87712e-10
7.60661e-18
-9.10352e-10
1.47589e-17
-8.07449e-10
1.6662e-17
-6.76253e-10
8.8206e-18
-5.15275e-10
-7.65679e-18
-3.25589e-10
-1.12252e-10
-5.95547e-17
-1.12252e-10
-8.51119e-17
-3.25589e-10
-8.94926e-17
-5.15275e-10
-8.36358e-17
-6.76253e-10
-7.29901e-17
-8.07449e-10
-6.03047e-17
-9.10352e-10
-4.74028e-17
-9.87712e-10
-3.52788e-17
-1.04254e-09
-2.41528e-17
-1.07747e-09
-1.37055e-17
-1.09443e-09
-3.33798e-18
-1.09443e-09
7.52443e-18
-1.07747e-09
1.90928e-17
-1.04254e-09
3.09695e-17
-9.87712e-10
4.1957e-17
-9.10352e-10
4.94776e-17
-8.07449e-10
4.93328e-17
-6.76253e-10
3.6632e-17
-5.15275e-10
1.12031e-17
-3.25589e-10
-1.12252e-10
-6.30497e-17
-1.12252e-10
-8.48333e-17
-3.25589e-10
-8.405e-17
-5.15275e-10
-7.35403e-17
-6.76253e-10
-5.93548e-17
-8.07449e-10
-4.43925e-17
-9.10352e-10
-3.02054e-17
-9.87712e-10
-1.73136e-17
-1.04254e-09
-5.47732e-18
-1.07747e-09
5.90868e-18
-1.09443e-09
1.75699e-17
-1.09443e-09
3.00681e-17
-1.07747e-09
4.35513e-17
-1.04254e-09
5.75394e-17
-9.87712e-10
7.06438e-17
-9.10352e-10
8.00606e-17
-8.07449e-10
8.20099e-17
-6.76253e-10
7.22994e-17
-5.15275e-10
4.42487e-17
-3.25589e-10
-1.12252e-10
-5.9977e-17
-1.12251e-10
-7.61063e-17
-3.25589e-10
-7.04252e-17
-5.15275e-10
-5.67538e-17
-6.76253e-10
-4.09349e-17
-8.07449e-10
-2.55945e-17
-9.10352e-10
-1.18024e-17
-9.87712e-10
4.17453e-19
-1.04254e-09
1.16661e-17
-1.07747e-09
2.27736e-17
-1.09443e-09
3.45343e-17
-1.09443e-09
4.74876e-17
-1.07747e-09
6.17657e-17
-1.04254e-09
7.69461e-17
-9.87712e-10
9.17783e-17
-9.10352e-10
1.03821e-16
-8.07449e-10
1.10077e-16
-6.76253e-10
1.06974e-16
-5.15275e-10
7.94034e-17
-3.25589e-10
-1.12252e-10
-4.71908e-17
-1.12251e-10
-5.64837e-17
-3.25589e-10
-4.74178e-17
-5.15275e-10
-3.31161e-17
-6.76253e-10
-1.82122e-17
-8.07449e-10
-4.69461e-18
-9.10352e-10
6.91393e-18
-9.87712e-10
1.70441e-17
-1.04254e-09
2.65274e-17
-1.07747e-09
3.62822e-17
-1.09443e-09
4.70572e-17
-1.09443e-09
5.93037e-17
-1.07747e-09
7.31003e-17
-1.04254e-09
8.81102e-17
-9.87712e-10
1.03406e-16
-9.10352e-10
1.17198e-16
-8.07449e-10
1.27183e-16
-6.76253e-10
1.30235e-16
-5.15275e-10
1.04812e-16
-3.25589e-10
-1.12252e-10
-2.61724e-17
-1.12251e-10
-2.74298e-17
-3.25589e-10
-1.67306e-17
-5.15275e-10
-4.32535e-18
-6.76254e-10
7.14655e-18
-8.07449e-10
1.67911e-17
-9.10352e-10
2.47129e-17
-9.87712e-10
3.16585e-17
-1.04254e-09
3.85471e-17
-1.07747e-09
4.62089e-17
-1.09443e-09
5.52224e-17
-1.09443e-09
6.58262e-17
-1.07747e-09
7.79297e-17
-1.04254e-09
9.12033e-17
-9.87712e-10
1.0504e-16
-9.10352e-10
1.18249e-16
-8.07449e-10
1.28812e-16
-6.76254e-10
1.33599e-16
-5.15275e-10
1.09839e-16
-3.25589e-10
-1.12252e-10
-2.22108e-18
-1.12251e-10
5.44126e-18
-3.25589e-10
1.71072e-17
-5.15275e-10
2.59747e-17
-6.76254e-10
3.23067e-17
-8.07449e-10
3.67277e-17
-9.10352e-10
4.00751e-17
-9.87712e-10
4.32964e-17
-1.04254e-09
4.72611e-17
-1.07747e-09
5.25914e-17
-1.09443e-09
5.95619e-17
-1.09443e-09
6.80655e-17
-1.07747e-09
7.77043e-17
-1.04254e-09
8.80007e-17
-9.87712e-10
9.85011e-17
-9.10352e-10
1.0835e-16
-8.07449e-10
1.15371e-16
-6.76254e-10
1.15716e-16
-5.15275e-10
9.16525e-17
-3.25589e-10
-1.12252e-10
1.97097e-17
-1.12251e-10
3.68926e-17
-3.25589e-10
4.89126e-17
-5.15275e-10
5.33894e-17
-6.76254e-10
5.39073e-17
-8.07449e-10
5.27181e-17
-9.10352e-10
5.13906e-17
-9.87712e-10
5.10328e-17
-1.04254e-09
5.23502e-17
-1.07747e-09
5.56634e-17
-1.09443e-09
6.08709e-17
-1.09443e-09
6.74495e-17
-1.07747e-09
7.45964e-17
-1.04254e-09
8.15255e-17
-9.87712e-10
8.76943e-17
-9.10352e-10
9.22732e-17
-8.07449e-10
9.27289e-17
-6.76254e-10
8.40111e-17
-5.15275e-10
5.7629e-17
-3.25589e-10
-1.12252e-10
3.75199e-17
-1.12251e-10
6.29878e-17
-3.25589e-10
7.4153e-17
-5.15275e-10
7.38642e-17
-6.76254e-10
6.88015e-17
-8.07449e-10
6.2591e-17
-9.10352e-10
5.73743e-17
-9.87712e-10
5.42753e-17
-1.04254e-09
5.37482e-17
-1.07747e-09
5.5799e-17
-1.09443e-09
5.99695e-17
-1.09443e-09
6.53555e-17
-1.07747e-09
7.0764e-17
-1.04254e-09
7.50391e-17
-9.87712e-10
7.73544e-17
-9.10352e-10
7.66853e-17
-8.07449e-10
7.02603e-17
-6.76254e-10
5.16213e-17
-5.15275e-10
2.23685e-17
-3.25589e-10
-1.12252e-10
5.30395e-17
-1.12252e-10
8.21289e-17
-3.25589e-10
8.97753e-17
-5.15275e-10
8.45405e-17
-6.76254e-10
7.48904e-17
-8.07449e-10
6.50881e-17
-9.10352e-10
5.7425e-17
-9.87712e-10
5.28467e-17
-1.04254e-09
5.15515e-17
-1.07747e-09
5.32797e-17
-1.09443e-09
5.73064e-17
-1.09443e-09
6.24868e-17
-1.07747e-09
6.74045e-17
-1.04254e-09
7.06476e-17
-9.87712e-10
7.10606e-17
-9.10352e-10
6.73428e-17
-8.07449e-10
5.68162e-17
-6.76253e-10
3.31177e-17
-5.15275e-10
3.38151e-18
-3.25589e-10
-1.12252e-10
6.73216e-17
-1.12252e-10
9.34791e-17
-3.25589e-10
9.44177e-17
-5.15275e-10
8.43679e-17
-6.76254e-10
7.15657e-17
-8.07449e-10
5.99593e-17
-9.10352e-10
5.14618e-17
-9.87712e-10
4.67227e-17
-1.04254e-09
4.57149e-17
-1.07747e-09
4.79705e-17
-1.09443e-09
5.26209e-17
-1.09443e-09
5.84816e-17
-1.07747e-09
6.41684e-17
-1.04254e-09
6.82442e-17
-9.87712e-10
6.93232e-17
-9.10352e-10
6.58629e-17
-8.07449e-10
5.55778e-17
-6.76253e-10
3.37374e-17
-5.15275e-10
6.37445e-18
-3.25589e-10
-1.12252e-10
7.72273e-17
-1.12252e-10
9.51094e-17
-3.25589e-10
8.76987e-17
-5.15275e-10
7.35273e-17
-6.76253e-10
5.91682e-17
-8.07449e-10
4.74504e-17
-9.10352e-10
3.9569e-17
-9.87712e-10
3.5826e-17
-1.04254e-09
3.59751e-17
-1.07747e-09
3.93801e-17
-1.09443e-09
4.51486e-17
-1.09443e-09
5.22432e-17
-1.07747e-09
5.95211e-17
-1.04254e-09
6.57106e-17
-9.87712e-10
6.93618e-17
-9.10352e-10
6.88283e-17
-8.07449e-10
6.23289e-17
-6.76253e-10
4.76921e-17
-5.15275e-10
2.58261e-17
-3.25589e-10
-1.12252e-10
7.58791e-17
-1.12252e-10
8.35293e-17
-3.25589e-10
6.90606e-17
-5.15275e-10
5.24186e-17
-6.76253e-10
3.83107e-17
-8.07449e-10
2.80656e-17
-9.10352e-10
2.20943e-17
-9.87712e-10
2.03347e-17
-1.04254e-09
2.23074e-17
-1.07747e-09
2.72466e-17
-1.09443e-09
3.4333e-17
-1.09443e-09
4.27755e-17
-1.07747e-09
5.17414e-17
-1.04254e-09
6.01923e-17
-9.87712e-10
6.67472e-17
-9.10352e-10
6.98373e-17
-8.07449e-10
6.81949e-17
-6.76253e-10
6.18143e-17
-5.15275e-10
4.57772e-17
-3.25589e-10
-1.12251e-10
5.82784e-17
-1.12252e-10
5.56877e-17
-3.25589e-10
3.796e-17
-5.15275e-10
2.17643e-17
-6.76253e-10
1.01571e-17
-8.07449e-10
3.06448e-18
-9.10352e-10
2.43575e-19
-9.87712e-10
1.29022e-18
-1.04254e-09
5.50942e-18
-1.07747e-09
1.20834e-17
-1.09443e-09
2.03387e-17
-1.09443e-09
2.97476e-17
-1.07747e-09
3.97531e-17
-1.04254e-09
4.9526e-17
-9.87712e-10
5.78126e-17
-9.10352e-10
6.3206e-17
-8.07449e-10
6.48289e-17
-6.76253e-10
6.34097e-17
-5.15275e-10
5.12367e-17
-3.25589e-10
-1.12251e-10
2.50271e-17
-1.12252e-10
1.27666e-17
-3.25589e-10
-3.79058e-18
-5.15275e-10
-1.58977e-17
-6.76253e-10
-2.2546e-17
-8.07449e-10
-2.48557e-17
-9.10352e-10
-2.35306e-17
-9.87712e-10
-1.92391e-17
-1.04254e-09
-1.27918e-17
-1.07747e-09
-4.91962e-18
-1.09443e-09
3.92616e-18
-1.09443e-09
1.34899e-17
-1.07747e-09
2.34432e-17
-1.04254e-09
3.31341e-17
-9.87712e-10
4.1439e-17
-9.10352e-10
4.70243e-17
-8.07449e-10
4.90726e-17
-6.76253e-10
4.78789e-17
-5.15275e-10
3.77726e-17
-3.25589e-10
-1.12251e-10
-2.00355e-17
-1.12252e-10
-3.86699e-17
-3.25589e-10
-5.02145e-17
-5.15275e-10
-5.50094e-17
-6.76253e-10
-5.4932e-17
-8.07449e-10
-5.16209e-17
-9.10352e-10
-4.5983e-17
-9.87712e-10
-3.87997e-17
-1.04254e-09
-3.08071e-17
-1.07747e-09
-2.24703e-17
-1.09443e-09
-1.39371e-17
-1.09443e-09
-5.19479e-18
-1.07747e-09
3.65562e-18
-1.04254e-09
1.21541e-17
-9.87712e-10
1.92776e-17
-9.10352e-10
2.36491e-17
-8.07449e-10
2.42821e-17
-6.76253e-10
2.08171e-17
-5.15275e-10
1.22026e-17
-3.25589e-10
-1.12251e-10
-6.49761e-17
-1.12252e-10
-8.65077e-17
-3.25589e-10
-9.12572e-17
-5.15275e-10
-8.78393e-17
-6.76253e-10
-8.1223e-17
-8.07449e-10
-7.3058e-17
-9.10352e-10
-6.42208e-17
-9.87712e-10
-5.54419e-17
-1.04254e-09
-4.71814e-17
-1.07747e-09
-3.95024e-17
-1.09443e-09
-3.22093e-17
-1.09443e-09
-2.5053e-17
-1.07747e-09
-1.79341e-17
-1.04254e-09
-1.11375e-17
-9.87712e-10
-5.57309e-18
-9.10352e-10
-2.5786e-18
-8.07449e-10
-3.10604e-18
-6.76253e-10
-7.23116e-18
-5.15275e-10
-1.18991e-17
-3.25589e-10
-1.12251e-10
-9.32375e-17
-1.12252e-10
-1.16811e-16
-3.25589e-10
-1.16247e-16
-5.15275e-10
-1.07469e-16
-6.76253e-10
-9.7013e-17
-8.07449e-10
-8.643e-17
-9.10352e-10
-7.65917e-17
-9.87712e-10
-6.80844e-17
-1.04254e-09
-6.09865e-17
-1.07747e-09
-5.49625e-17
-1.09443e-09
-4.95505e-17
-1.09443e-09
-4.4361e-17
-1.07747e-09
-3.92037e-17
-1.04254e-09
-3.4258e-17
-9.87712e-10
-3.02262e-17
-9.10352e-10
-2.80725e-17
-8.07449e-10
-2.80513e-17
-6.76253e-10
-2.88824e-17
-5.15275e-10
-2.54111e-17
-3.25589e-10
-1.12251e-10
-9.48087e-17
-1.12252e-10
-1.19329e-16
-3.25589e-10
-1.19331e-16
-5.15275e-10
-1.10828e-16
-6.76253e-10
-1.00801e-16
-8.07449e-10
-9.10795e-17
-9.10352e-10
-8.27684e-17
-9.87712e-10
-7.62912e-17
-1.04254e-09
-7.14009e-17
-1.07747e-09
-6.7554e-17
-1.09443e-09
-6.42359e-17
-1.09443e-09
-6.11014e-17
-1.07747e-09
-5.80099e-17
-1.04254e-09
-5.5085e-17
-9.87712e-10
-5.26903e-17
-9.10352e-10
-5.10108e-17
-8.07449e-10
-4.90183e-17
-6.76253e-10
-4.39388e-17
-5.15275e-10
-3.06855e-17
-3.25589e-10
-1.12251e-10
-7.31314e-17
-1.12251e-10
-9.7962e-17
-3.25589e-10
-1.03204e-16
-5.15275e-10
-1.00058e-16
-6.76253e-10
-9.42527e-17
-8.07449e-10
-8.82203e-17
-9.10352e-10
-8.33577e-17
-9.87712e-10
-7.99319e-17
-1.04254e-09
-7.75945e-17
-1.07747e-09
-7.59071e-17
-1.09443e-09
-7.45575e-17
-1.09443e-09
-7.34128e-17
-1.07747e-09
-7.24814e-17
-1.04254e-09
-7.18354e-17
-9.87712e-10
-7.14058e-17
-9.10352e-10
-7.04554e-17
-8.07449e-10
-6.67618e-17
-6.76253e-10
-5.6645e-17
-5.15275e-10
-3.54225e-17
-3.25589e-10
-1.12252e-10
-4.14779e-17
-1.12251e-10
-6.46753e-17
-3.25589e-10
-7.64585e-17
-5.15275e-10
-8.07652e-17
-6.76253e-10
-8.10678e-17
-8.07449e-10
-8.01595e-17
-9.10352e-10
-7.94307e-17
-9.87712e-10
-7.90774e-17
-1.04254e-09
-7.89684e-17
-1.07747e-09
-7.90514e-17
-1.09443e-09
-7.93731e-17
-1.09443e-09
-8.00613e-17
-1.07747e-09
-8.12448e-17
-1.04254e-09
-8.28827e-17
-9.87712e-10
-8.45003e-17
-9.10352e-10
-8.473e-17
-8.07449e-10
-8.08969e-17
-6.76253e-10
-6.92057e-17
-5.15275e-10
-4.4997e-17
-3.25589e-10
-1.12252e-10
-1.45568e-17
-1.12251e-10
-3.42143e-17
-3.25589e-10
-4.93873e-17
-5.15275e-10
-5.96421e-17
-6.76253e-10
-6.5624e-17
-8.07449e-10
-6.94903e-17
-9.10352e-10
-7.22023e-17
-9.87712e-10
-7.40775e-17
-1.04254e-09
-7.5454e-17
-1.07747e-09
-7.67635e-17
-1.09443e-09
-7.8384e-17
-1.09443e-09
-8.05912e-17
-1.07747e-09
-8.3473e-17
-1.04254e-09
-8.6769e-17
-9.87712e-10
-8.97269e-17
-9.10352e-10
-9.08803e-17
-8.07449e-10
-8.7997e-17
-6.76253e-10
-7.79207e-17
-5.15275e-10
-5.56026e-17
-3.25589e-10
-1.12252e-10
-1.45048e-18
-1.12251e-10
-1.55217e-17
-3.25589e-10
-2.95713e-17
-5.15275e-10
-4.21968e-17
-6.76253e-10
-5.1621e-17
-8.07449e-10
-5.83296e-17
-9.10352e-10
-6.27637e-17
-9.87712e-10
-6.5564e-17
-1.04254e-09
-6.75685e-17
-1.07747e-09
-6.95497e-17
-1.09443e-09
-7.20177e-17
-1.09443e-09
-7.51808e-17
-1.07747e-09
-7.88864e-17
-1.04254e-09
-8.25763e-17
-9.87712e-10
-8.53418e-17
-9.10352e-10
-8.59479e-17
-8.07449e-10
-8.30055e-17
-6.76253e-10
-7.46533e-17
-5.15275e-10
-5.65898e-17
-3.25589e-10
-1.12252e-10
-8.66605e-19
-1.12251e-10
-9.44921e-18
-3.25589e-10
-1.98074e-17
-5.15275e-10
-3.12554e-17
-6.76253e-10
-4.09475e-17
-8.07449e-10
-4.77283e-17
-9.10352e-10
-5.18493e-17
-9.87712e-10
-5.43141e-17
-1.04254e-09
-5.62153e-17
-1.07747e-09
-5.83492e-17
-1.09443e-09
-6.11016e-17
-1.09443e-09
-6.44323e-17
-1.07747e-09
-6.78599e-17
-1.04254e-09
-7.05461e-17
-9.87712e-10
-7.14423e-17
-9.10352e-10
-6.94102e-17
-8.07449e-10
-6.35516e-17
-6.76253e-10
-5.32952e-17
-5.15275e-10
-3.90707e-17
-3.25589e-10
-1.12252e-10
-6.85097e-18
-1.12251e-10
-1.19705e-17
-3.25589e-10
-1.84605e-17
-5.15275e-10
-2.63402e-17
-6.76253e-10
-3.32105e-17
-8.07449e-10
-3.75295e-17
-9.10352e-10
-3.97778e-17
-9.87712e-10
-4.10927e-17
-1.04254e-09
-4.24032e-17
-1.07747e-09
-4.42151e-17
-1.09443e-09
-4.66346e-17
-1.09443e-09
-4.9355e-17
-1.07747e-09
-5.16626e-17
-1.04254e-09
-5.2556e-17
-9.87712e-10
-5.08017e-17