/*--------------------------------*- C++ -*----------------------------------*\
| =========                 |                                                 |
| \\      /  F ield         | OpenFOAM: The Open Source CFD Toolbox           |
|  \\    /   O peration     | Version:  5.x                                   |
|   \\  /    A nd           | Web:      www.OpenFOAM.org                      |
|    \\/     M anipulation  |                                                 |
\*---------------------------------------------------------------------------*/
FoamFile
{
    version     2.0;
    format      ascii;
    class       volVectorField;
    location    "0.4";
    object      U;
}
// * * * * * * * * * * * * * * * * * * * * * * * * * * * * * * * * * * * * * //

dimensions      [0 1 -1 0 0 0 0];

internalField   nonuniform List<vector> 
8000
(
(2.20955e-10 -0.00224503 0)
(3.26713e-10 -0.00651177 0)
(-1.15873e-10 -0.0103055 0)
(-4.50281e-10 -0.0135251 0)
(-7.04254e-10 -0.016149 0)
(-9.21783e-10 -0.018207 0)
(-1.12727e-09 -0.0197542 0)
(-1.33501e-09 -0.0208507 0)
(-1.55153e-09 -0.0215493 0)
(-1.77288e-09 -0.0218886 0)
(-1.98603e-09 -0.0218886 0)
(-2.17008e-09 -0.0215493 0)
(-2.29733e-09 -0.0208507 0)
(-2.33386e-09 -0.0197542 0)
(-2.23934e-09 -0.018207 0)
(-1.95689e-09 -0.016149 0)
(-1.40236e-09 -0.0135251 0)
(-5.30806e-10 -0.0103055 0)
(6.17876e-10 -0.00651177 0)
(5.36938e-10 -0.00224503 0)
(4.78077e-12 -0.00224503 0)
(-1.06552e-10 -0.00651177 0)
(-3.94518e-10 -0.0103055 0)
(-6.45996e-10 -0.0135251 0)
(-8.43376e-10 -0.016149 0)
(-1.01566e-09 -0.018207 0)
(-1.18609e-09 -0.0197542 0)
(-1.36862e-09 -0.0208507 0)
(-1.56926e-09 -0.0215493 0)
(-1.7854e-09 -0.0218886 0)
(-2.00723e-09 -0.0218886 0)
(-2.21817e-09 -0.0215493 0)
(-2.39523e-09 -0.0208507 0)
(-2.50965e-09 -0.0197542 0)
(-2.52681e-09 -0.018207 0)
(-2.38655e-09 -0.016149 0)
(-1.95934e-09 -0.0135251 0)
(-1.17281e-09 -0.0103055 0)
(-1.58188e-10 -0.00651177 0)
(1.77647e-10 -0.00224503 0)
(-1.38338e-10 -0.00224503 0)
(-5.65661e-10 -0.00651177 0)
(-7.57025e-10 -0.0103055 0)
(-9.12025e-10 -0.0135251 0)
(-1.03378e-09 -0.016149 0)
(-1.14331e-09 -0.018207 0)
(-1.26111e-09 -0.0197542 0)
(-1.40056e-09 -0.0208507 0)
(-1.56789e-09 -0.0215493 0)
(-1.76392e-09 -0.0218886 0)
(-1.98412e-09 -0.0218886 0)
(-2.21761e-09 -0.0215493 0)
(-2.44828e-09 -0.0208507 0)
(-2.65362e-09 -0.0197542 0)
(-2.8109e-09 -0.018207 0)
(-2.88725e-09 -0.016149 0)
(-2.76729e-09 -0.0135251 0)
(-2.37531e-09 -0.0103055 0)
(-1.75787e-09 -0.00651177 0)
(-4.37335e-10 -0.00224503 0)
(-2.50875e-10 -0.00224503 0)
(-8.84743e-10 -0.00651177 0)
(-1.04123e-09 -0.0103055 0)
(-1.12929e-09 -0.0135251 0)
(-1.18363e-09 -0.016149 0)
(-1.23007e-09 -0.018207 0)
(-1.28996e-09 -0.0197542 0)
(-1.37764e-09 -0.0208507 0)
(-1.50209e-09 -0.0215493 0)
(-1.66877e-09 -0.0218886 0)
(-1.87767e-09 -0.0218886 0)
(-2.12462e-09 -0.0215493 0)
(-2.40171e-09 -0.0208507 0)
(-2.69057e-09 -0.0197542 0)
(-2.96905e-09 -0.018207 0)
(-3.22906e-09 -0.016149 0)
(-3.47063e-09 -0.0135251 0)
(-3.63465e-09 -0.0103055 0)
(-3.53917e-09 -0.00651177 0)
(-1.16249e-09 -0.00224503 0)
(-2.80203e-10 -0.00224503 0)
(-1.01365e-09 -0.00651177 0)
(-1.1868e-09 -0.0103055 0)
(-1.23775e-09 -0.0135251 0)
(-1.23504e-09 -0.016149 0)
(-1.22236e-09 -0.018207 0)
(-1.2262e-09 -0.0197542 0)
(-1.26269e-09 -0.0208507 0)
(-1.34319e-09 -0.0215493 0)
(-1.47569e-09 -0.0218886 0)
(-1.66405e-09 -0.0218886 0)
(-1.91052e-09 -0.0215493 0)
(-2.21484e-09 -0.0208507 0)
(-2.56465e-09 -0.0197542 0)
(-2.93359e-09 -0.018207 0)
(-3.31075e-09 -0.016149 0)
(-3.76928e-09 -0.0135251 0)
(-4.1653e-09 -0.0103055 0)
(-4.03022e-09 -0.00651177 0)
(-1.2158e-09 -0.00224503 0)
(-2.56797e-10 -0.00224503 0)
(-1.01462e-09 -0.00651177 0)
(-1.21247e-09 -0.0103055 0)
(-1.2234e-09 -0.0135251 0)
(-1.15932e-09 -0.016149 0)
(-1.0916e-09 -0.018207 0)
(-1.04926e-09 -0.0197542 0)
(-1.04289e-09 -0.0208507 0)
(-1.08281e-09 -0.0215493 0)
(-1.17834e-09 -0.0218886 0)
(-1.33496e-09 -0.0218886 0)
(-1.55662e-09 -0.0215493 0)
(-1.84437e-09 -0.0208507 0)
(-2.19216e-09 -0.0197542 0)
(-2.58369e-09 -0.018207 0)
(-3.00233e-09 -0.016149 0)
(-3.51692e-09 -0.0135251 0)
(-3.98903e-09 -0.0103055 0)
(-3.94558e-09 -0.00651178 0)
(-1.1696e-09 -0.00224503 0)
(-2.55919e-10 -0.00224503 0)
(-1.02779e-09 -0.00651177 0)
(-1.17747e-09 -0.0103055 0)
(-1.09846e-09 -0.0135251 0)
(-9.51079e-10 -0.016149 0)
(-8.33354e-10 -0.018207 0)
(-7.60255e-10 -0.0197542 0)
(-7.23888e-10 -0.0208507 0)
(-7.29792e-10 -0.0215493 0)
(-7.87295e-10 -0.0218886 0)
(-9.00714e-10 -0.0218886 0)
(-1.07006e-09 -0.0215493 0)
(-1.29095e-09 -0.0208507 0)
(-1.56054e-09 -0.0197542 0)
(-1.87469e-09 -0.018207 0)
(-2.20682e-09 -0.016149 0)
(-2.65762e-09 -0.0135251 0)
(-3.30312e-09 -0.0103055 0)
(-3.92368e-09 -0.00651178 0)
(-1.51405e-09 -0.00224504 0)
(-3.52305e-10 -0.00224503 0)
(-1.1243e-09 -0.00651177 0)
(-1.08013e-09 -0.0103055 0)
(-8.53241e-10 -0.0135251 0)
(-6.14373e-10 -0.016149 0)
(-4.63292e-10 -0.018207 0)
(-3.79524e-10 -0.0197542 0)
(-3.27968e-10 -0.0208507 0)
(-3.07955e-10 -0.0215493 0)
(-3.29563e-10 -0.0218886 0)
(-3.94844e-10 -0.0218886 0)
(-4.98603e-10 -0.0215493 0)
(-6.31969e-10 -0.0208507 0)
(-7.87155e-10 -0.0197542 0)
(-9.52555e-10 -0.018207 0)
(-1.12142e-09 -0.016149 0)
(-1.36473e-09 -0.0135251 0)
(-1.65213e-09 -0.0103055 0)
(-1.69964e-09 -0.00651178 0)
(-5.19477e-10 -0.00224504 0)
(-4.01413e-10 -0.00224503 0)
(-9.5895e-10 -0.00651177 0)
(-7.29061e-10 -0.0103055 0)
(-4.26448e-10 -0.0135251 0)
(-1.64734e-10 -0.016149 0)
(-1.75248e-11 -0.018207 0)
(6.47141e-11 -0.0197542 0)
(1.19889e-10 -0.0208507 0)
(1.53072e-10 -0.0215493 0)
(1.57328e-10 -0.0218886 0)
(1.31901e-10 -0.0218886 0)
(8.18302e-11 -0.0215493 0)
(1.31373e-11 -0.0208507 0)
(-6.92671e-11 -0.0197542 0)
(-1.58049e-10 -0.018207 0)
(-2.72804e-10 -0.016149 0)
(-3.64101e-10 -0.0135251 0)
(-2.06505e-10 -0.0103055 0)
(3.04779e-10 -0.00651178 0)
(3.34201e-10 -0.00224504 0)
(3.97531e-11 -0.00224503 0)
(1.05284e-10 -0.00651177 0)
(8.55014e-11 -0.0103055 0)
(2.04362e-10 -0.0135251 0)
(3.52616e-10 -0.016149 0)
(4.55887e-10 -0.018207 0)
(5.35717e-10 -0.0197542 0)
(5.88824e-10 -0.0208507 0)
(6.19078e-10 -0.0215493 0)
(6.32795e-10 -0.0218886 0)
(6.29071e-10 -0.0218886 0)
(6.07437e-10 -0.0215493 0)
(5.69405e-10 -0.0208507 0)
(5.1362e-10 -0.0197542 0)
(4.35046e-10 -0.018207 0)
(3.08427e-10 -0.016149 0)
(2.32931e-10 -0.0135251 0)
(3.60107e-10 -0.0103055 0)
(5.57515e-10 -0.00651178 0)
(2.33588e-10 -0.00224504 0)
(5.19261e-10 -0.00224503 0)
(1.23428e-09 -0.00651177 0)
(9.68968e-10 -0.0103055 0)
(8.69213e-10 -0.0135251 0)
(8.62964e-10 -0.016149 0)
(9.10836e-10 -0.018207 0)
(9.77502e-10 -0.0197542 0)
(1.02796e-09 -0.0208507 0)
(1.05629e-09 -0.0215493 0)
(1.07025e-09 -0.0218886 0)
(1.07259e-09 -0.0218886 0)
(1.06204e-09 -0.0215493 0)
(1.03549e-09 -0.0208507 0)
(9.8806e-10 -0.0197542 0)
(9.04569e-10 -0.018207 0)
(7.43458e-10 -0.016149 0)
(6.05426e-10 -0.0135251 0)
(5.59741e-10 -0.0103055 0)
(4.27789e-10 -0.00651178 0)
(9.35786e-11 -0.00224504 0)
(4.3861e-10 -0.00224503 0)
(1.45679e-09 -0.00651177 0)
(1.48752e-09 -0.0103055 0)
(1.37458e-09 -0.0135251 0)
(1.29755e-09 -0.016149 0)
(1.31252e-09 -0.018207 0)
(1.3669e-09 -0.0197542 0)
(1.41565e-09 -0.0208507 0)
(1.44253e-09 -0.0215493 0)
(1.45167e-09 -0.0218886 0)
(1.44998e-09 -0.0218886 0)
(1.43938e-09 -0.0215493 0)
(1.41661e-09 -0.0208507 0)
(1.3738e-09 -0.0197542 0)
(1.29555e-09 -0.018207 0)
(1.14411e-09 -0.016149 0)
(9.5766e-10 -0.0135251 0)
(7.38311e-10 -0.0103055 0)
(3.24823e-10 -0.00651178 0)
(-2.17103e-11 -0.00224504 0)
(4.11684e-10 -0.00224503 0)
(1.43325e-09 -0.00651177 0)
(1.62522e-09 -0.0103055 0)
(1.63023e-09 -0.0135251 0)
(1.60539e-09 -0.016149 0)
(1.63807e-09 -0.018207 0)
(1.69585e-09 -0.0197542 0)
(1.74255e-09 -0.0208507 0)
(1.7623e-09 -0.0215493 0)
(1.76066e-09 -0.0218886 0)
(1.74847e-09 -0.0218886 0)
(1.73072e-09 -0.0215493 0)
(1.7043e-09 -0.0208507 0)
(1.65621e-09 -0.0197542 0)
(1.57495e-09 -0.018207 0)
(1.45504e-09 -0.016149 0)
(1.30091e-09 -0.0135251 0)
(1.06924e-09 -0.0103055 0)
(6.38367e-10 -0.00651178 0)
(8.88599e-11 -0.00224504 0)
(2.66024e-10 -0.00224503 0)
(9.83595e-10 -0.00651177 0)
(1.34673e-09 -0.0103055 0)
(1.60795e-09 -0.0135251 0)
(1.77418e-09 -0.016149 0)
(1.89683e-09 -0.018207 0)
(1.97668e-09 -0.0197542 0)
(2.01308e-09 -0.0208507 0)
(2.01195e-09 -0.0215493 0)
(1.98958e-09 -0.0218886 0)
(1.96073e-09 -0.0218886 0)
(1.9316e-09 -0.0215493 0)
(1.89637e-09 -0.0208507 0)
(1.83597e-09 -0.0197542 0)
(1.74524e-09 -0.018207 0)
(1.66416e-09 -0.016149 0)
(1.60246e-09 -0.0135251 0)
(1.48225e-09 -0.0103055 0)
(1.17669e-09 -0.00651178 0)
(2.9691e-10 -0.00224504 0)
(-1.03438e-10 -0.00224503 0)
(1.35597e-10 -0.00651177 0)
(8.40071e-10 -0.0103055 0)
(1.43923e-09 -0.0135251 0)
(1.85513e-09 -0.016149 0)
(2.10299e-09 -0.018207 0)
(2.20826e-09 -0.0197542 0)
(2.22179e-09 -0.0208507 0)
(2.18688e-09 -0.0215493 0)
(2.13485e-09 -0.0218886 0)
(2.08512e-09 -0.0218886 0)
(2.04454e-09 -0.0215493 0)
(2.00146e-09 -0.0208507 0)
(1.93266e-09 -0.0197542 0)
(1.84287e-09 -0.018207 0)
(1.81081e-09 -0.016149 0)
(1.85196e-09 -0.0135251 0)
(1.8617e-09 -0.0103055 0)
(1.7176e-09 -0.00651178 0)
(5.14939e-10 -0.00224504 0)
(-3.15358e-10 -0.00224503 0)
(-3.42054e-10 -0.00651177 0)
(5.97046e-10 -0.0103055 0)
(1.39897e-09 -0.0135251 0)
(1.96017e-09 -0.016149 0)
(2.27247e-09 -0.018207 0)
(2.37727e-09 -0.0197542 0)
(2.35646e-09 -0.0208507 0)
(2.2803e-09 -0.0215493 0)
(2.19341e-09 -0.0218886 0)
(2.12174e-09 -0.0218886 0)
(2.07493e-09 -0.0215493 0)
(2.03324e-09 -0.0208507 0)
(1.97449e-09 -0.0197542 0)
(1.91675e-09 -0.018207 0)
(1.93834e-09 -0.016149 0)
(2.0404e-09 -0.0135251 0)
(2.11928e-09 -0.0103055 0)
(2.06834e-09 -0.00651178 0)
(6.54541e-10 -0.00224504 0)
(-3.43743e-10 -0.00224503 0)
(-1.97039e-10 -0.00651177 0)
(9.01725e-10 -0.0103055 0)
(1.70409e-09 -0.0135251 0)
(2.20896e-09 -0.016149 0)
(2.45245e-09 -0.018207 0)
(2.49301e-09 -0.0197542 0)
(2.41362e-09 -0.0208507 0)
(2.2868e-09 -0.0215493 0)
(2.16149e-09 -0.0218886 0)
(2.06954e-09 -0.0218886 0)
(2.02654e-09 -0.0215493 0)
(2.009e-09 -0.0208507 0)
(2.00048e-09 -0.0197542 0)
(2.01563e-09 -0.018207 0)
(2.07276e-09 -0.016149 0)
(2.15371e-09 -0.0135251 0)
(2.20394e-09 -0.0103055 0)
(2.13332e-09 -0.00651177 0)
(6.69995e-10 -0.00224503 0)
(-4.81601e-11 -0.00224503 0)
(8.391e-10 -0.00651178 0)
(1.88008e-09 -0.0103055 0)
(2.40753e-09 -0.0135251 0)
(2.60773e-09 -0.016149 0)
(2.64326e-09 -0.018207 0)
(2.55274e-09 -0.0197542 0)
(2.38682e-09 -0.0208507 0)
(2.20073e-09 -0.0215493 0)
(2.03587e-09 -0.0218886 0)
(1.92603e-09 -0.0218886 0)
(1.89424e-09 -0.0215493 0)
(1.92251e-09 -0.0208507 0)
(1.99517e-09 -0.0197542 0)
(2.09815e-09 -0.018207 0)
(2.17531e-09 -0.016149 0)
(2.19123e-09 -0.0135251 0)
(2.14685e-09 -0.0103055 0)
(1.96314e-09 -0.00651177 0)
(5.81393e-10 -0.00224503 0)
(7.65158e-10 -0.00224503 0)
(2.87302e-09 -0.00651178 0)
(3.3598e-09 -0.0103055 0)
(3.29016e-09 -0.0135251 0)
(3.02108e-09 -0.016149 0)
(2.76977e-09 -0.018207 0)
(2.51773e-09 -0.0197542 0)
(2.2598e-09 -0.0208507 0)
(2.01954e-09 -0.0215493 0)
(1.82383e-09 -0.0218886 0)
(1.70695e-09 -0.0218886 0)
(1.69291e-09 -0.0215493 0)
(1.7623e-09 -0.0208507 0)
(1.87856e-09 -0.0197542 0)
(2.03956e-09 -0.018207 0)
(2.1647e-09 -0.016149 0)
(2.15343e-09 -0.0135251 0)
(2.01685e-09 -0.0103055 0)
(1.69976e-09 -0.00651177 0)
(4.58591e-10 -0.00224503 0)
(1.54156e-09 -0.00224503 0)
(4.64925e-09 -0.00651178 0)
(4.47726e-09 -0.0103055 0)
(3.82697e-09 -0.0135251 0)
(3.1586e-09 -0.016149 0)
(2.68491e-09 -0.018207 0)
(2.32224e-09 -0.0197542 0)
(2.01068e-09 -0.0208507 0)
(1.74556e-09 -0.0215493 0)
(1.54703e-09 -0.0218886 0)
(1.45568e-09 -0.0218886 0)
(1.48552e-09 -0.0215493 0)
(1.59087e-09 -0.0208507 0)
(1.71793e-09 -0.0197542 0)
(1.8874e-09 -0.018207 0)
(2.03823e-09 -0.016149 0)
(2.03719e-09 -0.0135251 0)
(1.85836e-09 -0.0103055 0)
(1.46791e-09 -0.00651177 0)
(3.65302e-10 -0.00224503 0)
(1.88574e-09 -0.00224504 0)
(5.0397e-09 -0.00651178 0)
(4.40084e-09 -0.0103055 0)
(3.5862e-09 -0.0135251 0)
(2.81979e-09 -0.016149 0)
(2.29504e-09 -0.018207 0)
(1.9278e-09 -0.0197542 0)
(1.63093e-09 -0.0208507 0)
(1.38911e-09 -0.0215493 0)
(1.23209e-09 -0.0218886 0)
(1.20726e-09 -0.0218886 0)
(1.29604e-09 -0.0215493 0)
(1.42085e-09 -0.0208507 0)
(1.56054e-09 -0.0197542 0)
(1.70681e-09 -0.018207 0)
(1.81474e-09 -0.016149 0)
(1.8321e-09 -0.0135251 0)
(1.68389e-09 -0.0103055 0)
(1.32423e-09 -0.00651177 0)
(3.30915e-10 -0.00224503 0)
(1.08435e-09 -0.00224504 0)
(3.01574e-09 -0.00651178 0)
(2.74518e-09 -0.0103055 0)
(2.47439e-09 -0.0135251 0)
(2.04537e-09 -0.016149 0)
(1.65053e-09 -0.018207 0)
(1.35881e-09 -0.0197542 0)
(1.13341e-09 -0.0208507 0)
(9.64785e-10 -0.0215493 0)
(8.88667e-10 -0.0218886 0)
(9.28791e-10 -0.0218886 0)
(1.0225e-09 -0.0215493 0)
(1.11399e-09 -0.0208507 0)
(1.23668e-09 -0.0197542 0)
(1.36741e-09 -0.018207 0)
(1.46828e-09 -0.016149 0)
(1.53207e-09 -0.0135251 0)
(1.46794e-09 -0.0103055 0)
(1.22104e-09 -0.00651177 0)
(3.3182e-10 -0.00224503 0)
(3.306e-10 -0.00224504 0)
(7.73534e-10 -0.00651178 0)
(7.83248e-10 -0.0103055 0)
(1.04538e-09 -0.0135251 0)
(1.05969e-09 -0.016149 0)
(8.76058e-10 -0.018207 0)
(6.9263e-10 -0.0197542 0)
(5.6418e-10 -0.0208507 0)
(4.96125e-10 -0.0215493 0)
(4.96965e-10 -0.0218886 0)
(5.37285e-10 -0.0218886 0)
(5.6188e-10 -0.0215493 0)
(5.93072e-10 -0.0208507 0)
(6.82725e-10 -0.0197542 0)
(8.07739e-10 -0.018207 0)
(9.41956e-10 -0.016149 0)
(1.07401e-09 -0.0135251 0)
(1.12334e-09 -0.0103055 0)
(1.02315e-09 -0.00651177 0)
(3.03636e-10 -0.00224503 0)
(-7.70189e-10 -0.00224504 0)
(-1.50673e-09 -0.00651178 0)
(-8.03233e-10 -0.0103055 0)
(-2.15819e-10 -0.0135251 0)
(7.83167e-11 -0.016149 0)
(9.89835e-11 -0.018207 0)
(4.33216e-11 -0.0197542 0)
(2.31606e-12 -0.0208507 0)
(1.98283e-13 -0.0215493 0)
(1.85303e-11 -0.0218886 0)
(-2.89637e-13 -0.0218886 0)
(-6.04966e-11 -0.0215493 0)
(-8.19038e-11 -0.0208507 0)
(-2.76103e-11 -0.0197542 0)
(7.63544e-11 -0.018207 0)
(2.19187e-10 -0.016149 0)
(4.04743e-10 -0.0135251 0)
(5.76553e-10 -0.0103055 0)
(6.37393e-10 -0.00651177 0)
(2.0568e-10 -0.00224503 0)
(-5.23329e-10 -0.00224504 0)
(-1.53068e-09 -0.00651178 0)
(-1.30514e-09 -0.0103055 0)
(-9.09429e-10 -0.0135251 0)
(-6.27509e-10 -0.016149 0)
(-5.32756e-10 -0.018207 0)
(-5.19597e-10 -0.0197542 0)
(-5.16841e-10 -0.0208507 0)
(-5.09044e-10 -0.0215493 0)
(-5.23452e-10 -0.0218886 0)
(-6.03508e-10 -0.0218886 0)
(-7.28597e-10 -0.0215493 0)
(-8.18936e-10 -0.0208507 0)
(-8.39942e-10 -0.0197542 0)
(-8.0158e-10 -0.018207 0)
(-6.9228e-10 -0.016149 0)
(-4.75382e-10 -0.0135251 0)
(-1.72214e-10 -0.0103055 0)
(9.99975e-11 -0.00651177 0)
(6.63261e-11 -0.00224503 0)
(-3.68665e-10 -0.00224504 0)
(-1.26149e-09 -0.00651178 0)
(-1.33853e-09 -0.0103055 0)
(-1.21972e-09 -0.0135251 0)
(-1.06888e-09 -0.016149 0)
(-9.94145e-10 -0.018207 0)
(-9.70204e-10 -0.0197542 0)
(-9.65607e-10 -0.0208507 0)
(-9.83132e-10 -0.0215493 0)
(-1.05114e-09 -0.0218886 0)
(-1.19296e-09 -0.0218886 0)
(-1.38152e-09 -0.0215493 0)
(-1.55886e-09 -0.0208507 0)
(-1.69422e-09 -0.0197542 0)
(-1.77302e-09 -0.018207 0)
(-1.74565e-09 -0.016149 0)
(-1.53e-09 -0.0135251 0)
(-1.08628e-09 -0.0103055 0)
(-4.99257e-10 -0.00651177 0)
(-4.06663e-11 -0.00224503 0)
(-2.08766e-10 -0.00224504 0)
(-8.91431e-10 -0.00651178 0)
(-1.20425e-09 -0.0103055 0)
(-1.33005e-09 -0.0135251 0)
(-1.32696e-09 -0.016149 0)
(-1.30697e-09 -0.018207 0)
(-1.30513e-09 -0.0197542 0)
(-1.32501e-09 -0.0208507 0)
(-1.38219e-09 -0.0215493 0)
(-1.50288e-09 -0.0218886 0)
(-1.69925e-09 -0.0218886 0)
(-1.952e-09 -0.0215493 0)
(-2.22678e-09 -0.0208507 0)
(-2.49948e-09 -0.0197542 0)
(-2.73858e-09 -0.018207 0)
(-2.85761e-09 -0.016149 0)
(-2.72538e-09 -0.0135251 0)
(-2.22188e-09 -0.0103055 0)
(-1.31279e-09 -0.00651177 0)
(-1.49342e-10 -0.00224503 0)
(-9.38763e-11 -0.00224504 0)
(-6.08883e-10 -0.00651178 0)
(-1.07219e-09 -0.0103055 0)
(-1.36928e-09 -0.0135251 0)
(-1.47998e-09 -0.016149 0)
(-1.51404e-09 -0.018207 0)
(-1.54404e-09 -0.0197542 0)
(-1.59507e-09 -0.0208507 0)
(-1.68744e-09 -0.0215493 0)
(-1.84404e-09 -0.0218886 0)
(-2.07588e-09 -0.0218886 0)
(-2.37625e-09 -0.0215493 0)
(-2.73233e-09 -0.0208507 0)
(-3.13264e-09 -0.0197542 0)
(-3.54625e-09 -0.018207 0)
(-3.88656e-09 -0.016149 0)
(-4.00672e-09 -0.0135251 0)
(-3.73867e-09 -0.0103055 0)
(-3.08379e-09 -0.00651177 0)
(-8.33819e-10 -0.00224503 0)
(-5.84653e-11 -0.00224504 0)
(-5.254e-10 -0.00651178 0)
(-1.04578e-09 -0.0103055 0)
(-1.41627e-09 -0.0135251 0)
(-1.58615e-09 -0.016149 0)
(-1.65603e-09 -0.018207 0)
(-1.71025e-09 -0.0197542 0)
(-1.78086e-09 -0.0208507 0)
(-1.88815e-09 -0.0215493 0)
(-2.05294e-09 -0.0218886 0)
(-2.28891e-09 -0.0218886 0)
(-2.60121e-09 -0.0215493 0)
(-2.99236e-09 -0.0208507 0)
(-3.46114e-09 -0.0197542 0)
(-3.98632e-09 -0.018207 0)
(-4.50382e-09 -0.016149 0)
(-4.89146e-09 -0.0135251 0)
(-4.94674e-09 -0.0103055 0)
(-4.68818e-09 -0.00651177 0)
(-1.49448e-09 -0.00224503 0)
(-1.07676e-10 -0.00224504 0)
(-6.50605e-10 -0.00651178 0)
(-1.13934e-09 -0.0103055 0)
(-1.49521e-09 -0.0135251 0)
(-1.67404e-09 -0.016149 0)
(-1.75628e-09 -0.018207 0)
(-1.81599e-09 -0.0197542 0)
(-1.88268e-09 -0.0208507 0)
(-1.97615e-09 -0.0215493 0)
(-2.1173e-09 -0.0218886 0)
(-2.32249e-09 -0.0218886 0)
(-2.60269e-09 -0.0215493 0)
(-2.96504e-09 -0.0208507 0)
(-3.41021e-09 -0.0197542 0)
(-3.92598e-09 -0.018207 0)
(-4.47605e-09 -0.016149 0)
(-4.97196e-09 -0.0135251 0)
(-5.23799e-09 -0.0103055 0)
(-5.30609e-09 -0.00651178 0)
(-1.81741e-09 -0.00224503 0)
(-2.02499e-10 -0.00224504 0)
(-8.89207e-10 -0.00651178 0)
(-1.29838e-09 -0.0103055 0)
(-1.59127e-09 -0.0135251 0)
(-1.74691e-09 -0.016149 0)
(-1.81907e-09 -0.018207 0)
(-1.8609e-09 -0.0197542 0)
(-1.89736e-09 -0.0208507 0)
(-1.94982e-09 -0.0215493 0)
(-2.04046e-09 -0.0218886 0)
(-2.18565e-09 -0.0218886 0)
(-2.39432e-09 -0.0215493 0)
(-2.66809e-09 -0.0208507 0)
(-3.00148e-09 -0.0197542 0)
(-3.38194e-09 -0.018207 0)
(-3.7814e-09 -0.016149 0)
(-4.13444e-09 -0.0135251 0)
(-4.32258e-09 -0.0103055 0)
(-4.31621e-09 -0.00651178 0)
(-1.45017e-09 -0.00224504 0)
(-2.90269e-10 -0.00224504 0)
(-1.11846e-09 -0.00651178 0)
(-1.45359e-09 -0.0103055 0)
(-1.67958e-09 -0.0135251 0)
(-1.79645e-09 -0.016149 0)
(-1.8377e-09 -0.018207 0)
(-1.83881e-09 -0.0197542 0)
(-1.82361e-09 -0.0208507 0)
(-1.81653e-09 -0.0215493 0)
(-1.84003e-09 -0.0218886 0)
(-1.90713e-09 -0.0218886 0)
(-2.0197e-09 -0.0215493 0)
(-2.17008e-09 -0.0208507 0)
(-2.34489e-09 -0.0197542 0)
(-2.5268e-09 -0.018207 0)
(-2.68428e-09 -0.016149 0)
(-2.76552e-09 -0.0135251 0)
(-2.68166e-09 -0.0103055 0)
(-2.28159e-09 -0.00651178 0)
(-5.97503e-10 -0.00224504 0)
(-3.45659e-10 -0.00224504 0)
(-1.287e-09 -0.00651178 0)
(-1.58107e-09 -0.0103055 0)
(-1.74919e-09 -0.0135251 0)
(-1.81496e-09 -0.016149 0)
(-1.80448e-09 -0.018207 0)
(-1.74599e-09 -0.0197542 0)
(-1.66624e-09 -0.0208507 0)
(-1.59174e-09 -0.0215493 0)
(-1.54254e-09 -0.0218886 0)
(-1.52598e-09 -0.0218886 0)
(-1.53657e-09 -0.0215493 0)
(-1.56054e-09 -0.0208507 0)
(-1.58245e-09 -0.0197542 0)
(-1.58675e-09 -0.018207 0)
(-1.54787e-09 -0.016149 0)
(-1.4316e-09 -0.0135251 0)
(-1.18191e-09 -0.0103055 0)
(-6.72497e-10 -0.00651178 0)
(-1.27639e-11 -0.00224504 0)
(-3.78459e-10 -0.00224504 0)
(-1.41066e-09 -0.00651178 0)
(-1.68233e-09 -0.0103055 0)
(-1.79584e-09 -0.0135251 0)
(-1.79516e-09 -0.016149 0)
(-1.71401e-09 -0.018207 0)
(-1.58412e-09 -0.0197542 0)
(-1.43645e-09 -0.0208507 0)
(-1.29644e-09 -0.0215493 0)
(-1.17856e-09 -0.0218886 0)
(-1.08362e-09 -0.0218886 0)
(-1.00138e-09 -0.0215493 0)
(-9.17496e-10 -0.0208507 0)
(-8.21119e-10 -0.0197542 0)
(-7.06518e-10 -0.018207 0)
(-5.68613e-10 -0.016149 0)
(-4.18657e-10 -0.0135251 0)
(-2.9432e-10 -0.0103055 0)
(-1.87369e-10 -0.00651178 0)
(-1.17847e-11 -0.00224504 0)
(-4.19111e-10 -0.00224503 0)
(-1.54926e-09 -0.00651177 0)
(-1.77935e-09 -0.0103055 0)
(-1.81239e-09 -0.0135251 0)
(-1.72482e-09 -0.016149 0)
(-1.56077e-09 -0.018207 0)
(-1.35817e-09 -0.0197542 0)
(-1.1493e-09 -0.0208507 0)
(-9.54272e-10 -0.0215493 0)
(-7.79568e-10 -0.0218886 0)
(-6.19771e-10 -0.0218886 0)
(-4.62539e-10 -0.0215493 0)
(-2.96264e-10 -0.0208507 0)
(-1.16955e-10 -0.0197542 0)
(6.94803e-11 -0.018207 0)
(2.43828e-10 -0.016149 0)
(3.5105e-10 -0.0135251 0)
(2.82141e-10 -0.0103055 0)
(-2.33269e-11 -0.00651178 0)
(-1.04018e-10 -0.00224504 0)
(-4.75206e-10 -0.00224503 0)
(-1.68883e-09 -0.00651177 0)
(-1.8329e-09 -0.0103055 0)
(-1.7631e-09 -0.0135251 0)
(-1.58022e-09 -0.016149 0)
(-1.33667e-09 -0.018207 0)
(-1.07406e-09 -0.0197542 0)
(-8.2112e-10 -0.0208507 0)
(-5.89195e-10 -0.0215493 0)
(-3.75979e-10 -0.0218886 0)
(-1.70868e-10 -0.0218886 0)
(3.93915e-11 -0.0215493 0)
(2.63981e-10 -0.0208507 0)
(5.0231e-10 -0.0197542 0)
(7.40498e-10 -0.018207 0)
(9.42694e-10 -0.016149 0)
(1.03682e-09 -0.0135251 0)
(9.13902e-10 -0.0103055 0)
(5.0405e-10 -0.00651178 0)
(4.12464e-11 -0.00224504 0)
(-5.21088e-10 -0.00224503 0)
(-1.75135e-09 -0.00651177 0)
(-1.77747e-09 -0.0103055 0)
(-1.60121e-09 -0.0135251 0)
(-1.33576e-09 -0.016149 0)
(-1.03538e-09 -0.018207 0)
(-7.39342e-10 -0.0197542 0)
(-4.68242e-10 -0.0208507 0)
(-2.23397e-10 -0.0215493 0)
(5.29787e-12 -0.0218886 0)
(2.32514e-10 -0.0218886 0)
(4.72295e-10 -0.0215493 0)
(7.3279e-10 -0.0208507 0)
(1.01202e-09 -0.0197542 0)
(1.29301e-09 -0.018207 0)
(1.53362e-09 -0.016149 0)
(1.66625e-09 -0.0135251 0)
(1.6211e-09 -0.0103055 0)
(1.31461e-09 -0.00651178 0)
(3.25967e-10 -0.00224504 0)
(-5.10623e-10 -0.00224503 0)
(-1.63073e-09 -0.00651177 0)
(-1.54719e-09 -0.0103055 0)
(-1.28824e-09 -0.0135251 0)
(-9.76126e-10 -0.016149 0)
(-6.58191e-10 -0.018207 0)
(-3.65061e-10 -0.0197542 0)
(-1.0685e-10 -0.0208507 0)
(1.2403e-10 -0.0215493 0)
(3.43517e-10 -0.0218886 0)
(5.68973e-10 -0.0218886 0)
(8.1451e-10 -0.0215493 0)
(1.08752e-09 -0.0208507 0)
(1.38619e-09 -0.0197542 0)
(1.69492e-09 -0.018207 0)
(1.97469e-09 -0.016149 0)
(2.17189e-09 -0.0135251 0)
(2.26201e-09 -0.0103055 0)
(2.17776e-09 -0.00651178 0)
(6.63927e-10 -0.00224504 0)
(-4.09231e-10 -0.00224503 0)
(-1.25584e-09 -0.00651177 0)
(-1.10388e-09 -0.0103055 0)
(-8.12221e-10 -0.0135251 0)
(-5.06372e-10 -0.016149 0)
(-2.19159e-10 -0.018207 0)
(3.11932e-11 -0.0197542 0)
(2.45045e-10 -0.0208507 0)
(4.36735e-10 -0.0215493 0)
(6.25119e-10 -0.0218886 0)
(8.27666e-10 -0.0218886 0)
(1.05678e-09 -0.0215493 0)
(1.31796e-09 -0.0208507 0)
(1.60922e-09 -0.0197542 0)
(1.91856e-09 -0.018207 0)
(2.21587e-09 -0.016149 0)
(2.46236e-09 -0.0135251 0)
(2.6646e-09 -0.0103055 0)
(2.79572e-09 -0.00651178 0)
(9.30509e-10 -0.00224504 0)
(-2.33269e-10 -0.00224503 0)
(-6.66015e-10 -0.00651177 0)
(-4.77713e-10 -0.0103055 0)
(-2.06796e-10 -0.0135251 0)
(3.92784e-11 -0.016149 0)
(2.49431e-10 -0.018207 0)
(4.21775e-10 -0.0197542 0)
(5.66029e-10 -0.0208507 0)
(7.00059e-10 -0.0215493 0)
(8.42305e-10 -0.0218886 0)
(1.00736e-09 -0.0218886 0)
(1.20346e-09 -0.0215493 0)
(1.43179e-09 -0.0208507 0)
(1.68811e-09 -0.0197542 0)
(1.96344e-09 -0.018207 0)
(2.23754e-09 -0.016149 0)
(2.48166e-09 -0.0135251 0)
(2.70824e-09 -0.0103055 0)
(2.90857e-09 -0.00651178 0)
(9.91405e-10 -0.00224504 0)
(-3.96139e-11 -0.00224503 0)
(4.9425e-13 -0.00651177 0)
(2.27298e-10 -0.0103055 0)
(4.4686e-10 -0.0135251 0)
(5.96596e-10 -0.016149 0)
(6.98358e-10 -0.018207 0)
(7.70574e-10 -0.0197542 0)
(8.31569e-10 -0.0208507 0)
(8.99889e-10 -0.0215493 0)
(9.90878e-10 -0.0218886 0)
(1.11376e-09 -0.0218886 0)
(1.27002e-09 -0.0215493 0)
(1.45386e-09 -0.0208507 0)
(1.65586e-09 -0.0197542 0)
(1.8671e-09 -0.018207 0)
(2.07432e-09 -0.016149 0)
(2.25193e-09 -0.0135251 0)
(2.38913e-09 -0.0103055 0)
(2.45553e-09 -0.00651178 0)
(8.05299e-10 -0.00224503 0)
(1.30758e-10 -0.00224503 0)
(6.18914e-10 -0.00651177 0)
(8.97428e-10 -0.0103055 0)
(1.05181e-09 -0.0135251 0)
(1.08825e-09 -0.016149 0)
(1.07063e-09 -0.018207 0)
(1.03822e-09 -0.0197542 0)
(1.01692e-09 -0.0208507 0)
(1.02416e-09 -0.0215493 0)
(1.0701e-09 -0.0218886 0)
(1.15701e-09 -0.0218886 0)
(1.27827e-09 -0.0215493 0)
(1.4196e-09 -0.0208507 0)
(1.56395e-09 -0.0197542 0)
(1.69866e-09 -0.018207 0)
(1.81261e-09 -0.016149 0)
(1.87703e-09 -0.0135251 0)
(1.83442e-09 -0.0103055 0)
(1.62983e-09 -0.00651178 0)
(4.60457e-10 -0.00224503 0)
(2.72127e-10 -0.00224503 0)
(1.13209e-09 -0.00651177 0)
(1.44235e-09 -0.0103055 0)
(1.51818e-09 -0.0135251 0)
(1.44118e-09 -0.016149 0)
(1.31348e-09 -0.018207 0)
(1.19102e-09 -0.0197542 0)
(1.10412e-09 -0.0208507 0)
(1.06685e-09 -0.0215493 0)
(1.08329e-09 -0.0218886 0)
(1.14885e-09 -0.0218886 0)
(1.2495e-09 -0.0215493 0)
(1.36315e-09 -0.0208507 0)
(1.46501e-09 -0.0197542 0)
(1.53612e-09 -0.018207 0)
(1.56268e-09 -0.016149 0)
(1.50902e-09 -0.0135251 0)
(1.26752e-09 -0.0103055 0)
(8.03512e-10 -0.00651178 0)
(1.29417e-10 -0.00224503 0)
(4.05862e-10 -0.00224503 0)
(1.54836e-09 -0.00651177 0)
(1.81071e-09 -0.0103055 0)
(1.78208e-09 -0.0135251 0)
(1.60436e-09 -0.016149 0)
(1.39374e-09 -0.018207 0)
(1.21128e-09 -0.0197542 0)
(1.08618e-09 -0.0208507 0)
(1.02773e-09 -0.0215493 0)
(1.03451e-09 -0.0218886 0)
(1.09649e-09 -0.0218886 0)
(1.19459e-09 -0.0215493 0)
(1.30227e-09 -0.0208507 0)
(1.39016e-09 -0.0197542 0)
(1.4335e-09 -0.018207 0)
(1.41278e-09 -0.016149 0)
(1.28845e-09 -0.0135251 0)
(9.36012e-10 -0.0103055 0)
(3.43446e-10 -0.00651177 0)
(-4.57142e-11 -0.00224503 0)
(5.49209e-10 -0.00224503 0)
(1.87629e-09 -0.00651177 0)
(1.97715e-09 -0.0103055 0)
(1.81716e-09 -0.0135251 0)
(1.56084e-09 -0.016149 0)
(1.30341e-09 -0.018207 0)
(1.09632e-09 -0.0197542 0)
(9.62571e-10 -0.0208507 0)
(9.06487e-10 -0.0215493 0)
(9.22216e-10 -0.0218886 0)
(9.96045e-10 -0.0218886 0)
(1.10714e-09 -0.0215493 0)
(1.22932e-09 -0.0208507 0)
(1.33383e-09 -0.0197542 0)
(1.39309e-09 -0.018207 0)
(1.38113e-09 -0.016149 0)
(1.25882e-09 -0.0135251 0)
(9.2967e-10 -0.0103055 0)
(3.90799e-10 -0.00651177 0)
(-1.16907e-11 -0.00224503 0)
(6.72946e-10 -0.00224503 0)
(2.05184e-09 -0.00651178 0)
(1.91758e-09 -0.0103055 0)
(1.62393e-09 -0.0135251 0)
(1.3175e-09 -0.016149 0)
(1.04905e-09 -0.018207 0)
(8.49738e-10 -0.0197542 0)
(7.33549e-10 -0.0208507 0)
(6.99921e-10 -0.0215493 0)
(7.39091e-10 -0.0218886 0)
(8.35261e-10 -0.0218886 0)
(9.6901e-10 -0.0215493 0)
(1.1186e-09 -0.0208507 0)
(1.26001e-09 -0.0197542 0)
(1.36618e-09 -0.018207 0)
(1.40643e-09 -0.016149 0)
(1.34614e-09 -0.0135251 0)
(1.14548e-09 -0.0103055 0)
(8.01531e-10 -0.00651177 0)
(1.74576e-10 -0.00224503 0)
(6.96955e-10 -0.00224503 0)
(1.93493e-09 -0.00651178 0)
(1.5944e-09 -0.0103055 0)
(1.20733e-09 -0.0135251 0)
(8.87659e-10 -0.016149 0)
(6.42776e-10 -0.018207 0)
(4.8032e-10 -0.0197542 0)
(4.04534e-10 -0.0208507 0)
(4.09729e-10 -0.0215493 0)
(4.82502e-10 -0.0218886 0)
(6.06428e-10 -0.0218886 0)
(7.65558e-10 -0.0215493 0)
(9.44268e-10 -0.0208507 0)
(1.1245e-09 -0.0197542 0)
(1.28176e-09 -0.018207 0)
(1.38398e-09 -0.016149 0)
(1.40328e-09 -0.0135251 0)
(1.35165e-09 -0.0103055 0)
(1.23177e-09 -0.00651177 0)
(3.76516e-10 -0.00224503 0)
(5.59373e-10 -0.00224504 0)
(1.41536e-09 -0.00651178 0)
(9.7586e-10 -0.0103055 0)
(5.74838e-10 -0.0135251 0)
(2.93226e-10 -0.016149 0)
(1.09964e-10 -0.018207 0)
(1.32253e-11 -0.0197542 0)
(-1.6963e-12 -0.0208507 0)
(5.44708e-11 -0.0215493 0)
(1.65708e-10 -0.0218886 0)
(3.16656e-10 -0.0218886 0)
(4.95795e-10 -0.0215493 0)
(6.93307e-10 -0.0208507 0)
(8.96304e-10 -0.0197542 0)
(1.08344e-09 -0.018207 0)
(1.22415e-09 -0.016149 0)
(1.29591e-09 -0.0135251 0)
(1.33246e-09 -0.0103055 0)
(1.33822e-09 -0.00651177 0)
(4.45018e-10 -0.00224503 0)
(2.67205e-10 -0.00224504 0)
(5.12324e-10 -0.00651178 0)
(9.32249e-11 -0.0103055 0)
(-2.27597e-10 -0.0135251 0)
(-4.11099e-10 -0.016149 0)
(-4.93934e-10 -0.018207 0)
(-4.99575e-10 -0.0197542 0)
(-4.39803e-10 -0.0208507 0)
(-3.2904e-10 -0.0215493 0)
(-1.83373e-10 -0.0218886 0)
(-1.47336e-11 -0.0218886 0)
(1.70579e-10 -0.0215493 0)
(3.67971e-10 -0.0208507 0)
(5.68798e-10 -0.0197542 0)
(7.54933e-10 -0.018207 0)
(8.98132e-10 -0.016149 0)
(9.76388e-10 -0.0135251 0)
(1.01136e-09 -0.0103055 0)
(9.98295e-10 -0.00651177 0)
(3.23658e-10 -0.00224503 0)
(-1.28174e-10 -0.00224504 0)
(-6.32145e-10 -0.00651178 0)
(-9.27794e-10 -0.0103055 0)
(-1.08453e-09 -0.0135251 0)
(-1.12076e-09 -0.016149 0)
(-1.0794e-09 -0.018207 0)
(-9.85176e-10 -0.0197542 0)
(-8.53425e-10 -0.0208507 0)
(-6.99192e-10 -0.0215493 0)
(-5.34759e-10 -0.0218886 0)
(-3.65923e-10 -0.0218886 0)
(-1.93119e-10 -0.0215493 0)
(-1.5976e-11 -0.0208507 0)
(1.61116e-10 -0.0197542 0)
(3.23296e-10 -0.018207 0)
(4.44001e-10 -0.016149 0)
(4.97071e-10 -0.0135251 0)
(4.76029e-10 -0.0103055 0)
(3.78149e-10 -0.00651177 0)
(9.4095e-11 -0.00224503 0)
(-5.41362e-10 -0.00224504 0)
(-1.74874e-09 -0.00651177 0)
(-1.85183e-09 -0.0103055 0)
(-1.81847e-09 -0.0135251 0)
(-1.70303e-09 -0.016149 0)
(-1.54872e-09 -0.018207 0)
(-1.37449e-09 -0.0197542 0)
(-1.19569e-09 -0.0208507 0)
(-1.02434e-09 -0.0215493 0)
(-8.65385e-10 -0.0218886 0)
(-7.16755e-10 -0.0218886 0)
(-5.73108e-10 -0.0215493 0)
(-4.29912e-10 -0.0208507 0)
(-2.87971e-10 -0.0197542 0)
(-1.5914e-10 -0.018207 0)
(-6.77365e-11 -0.016149 0)
(-4.09834e-11 -0.0135251 0)
(-9.949e-11 -0.0103055 0)
(-2.2785e-10 -0.00651177 0)
(-1.11763e-10 -0.00224503 0)
(-8.21547e-10 -0.00224503 0)
(-2.46971e-09 -0.00651177 0)
(-2.4194e-09 -0.0103055 0)
(-2.25812e-09 -0.0135251 0)
(-2.04943e-09 -0.016149 0)
(-1.83363e-09 -0.018207 0)
(-1.62599e-09 -0.0197542 0)
(-1.44118e-09 -0.0208507 0)
(-1.28576e-09 -0.0215493 0)
(-1.15625e-09 -0.0218886 0)
(-1.0437e-09 -0.0218886 0)
(-9.38905e-10 -0.0215493 0)
(-8.35422e-10 -0.0208507 0)
(-7.3255e-10 -0.0197542 0)
(-6.39449e-10 -0.018207 0)
(-5.74661e-10 -0.016149 0)
(-5.54394e-10 -0.0135251 0)
(-5.83794e-10 -0.0103055 0)
(-6.28363e-10 -0.00651177 0)
(-2.18132e-10 -0.00224503 0)
(-8.3624e-10 -0.00224503 0)
(-2.52283e-09 -0.00651177 0)
(-2.47392e-09 -0.0103055 0)
(-2.31948e-09 -0.0135251 0)
(-2.1184e-09 -0.016149 0)
(-1.91523e-09 -0.018207 0)
(-1.7318e-09 -0.0197542 0)
(-1.58361e-09 -0.0208507 0)
(-1.4715e-09 -0.0215493 0)
(-1.3862e-09 -0.0218886 0)
(-1.31623e-09 -0.0218886 0)
(-1.25264e-09 -0.0215493 0)
(-1.19042e-09 -0.0208507 0)
(-1.12951e-09 -0.0197542 0)
(-1.0759e-09 -0.018207 0)
(-1.03727e-09 -0.016149 0)
(-1.00756e-09 -0.0135251 0)
(-9.60008e-10 -0.0103055 0)
(-8.45102e-10 -0.00651177 0)
(-2.42462e-10 -0.00224503 0)
(-6.1794e-10 -0.00224503 0)
(-1.99353e-09 -0.00651177 0)
(-2.08551e-09 -0.0103055 0)
(-2.05223e-09 -0.0135251 0)