# vtk DataFile Version 4.0
Generated by LIGGGHTS
ASCII
DATASET POLYDATA
POINTS 500 float
0.428499 -0.0450367 -1.17831 0.429579 -0.0370823 -1.1723 0.00499347 -0.0250121 -1.19502 
0.0362558 -0.021483 -1.17478 0.00955724 -0.0229591 -1.168 0.0292538 -0.00563826 -1.16885 
0.0401583 -0.0369469 -1.18338 0.0243757 -0.0384938 -1.16691 0.0753588 -0.0169252 -1.17845 
0.475082 -0.0147134 -1.17872 0.391974 -0.0361197 -1.1661 0.465545 -0.0120454 -1.19501 
0.0224764 -0.0137156 -1.16829 0.389798 -0.0049668 -1.18624 0.034895 -0.0145873 -1.16766 
0.409443 -0.0308721 -1.18777 0.0275264 -0.0448367 -1.17972 0.494995 -0.0449438 -1.1823 
0.0374452 -0.0353499 -1.19501 0.482712 -0.014375 -1.1863 0.0057678 -0.013669 -1.16851 
0.218739 -0.0293595 -1.195 0.494509 -0.045014 -1.19499 0.0517936 -0.00499568 -1.18642 
0.280785 -0.0357357 -1.1766 0.404367 -0.0450611 -1.18005 0.485046 -0.0281974 -1.19245 
0.459392 -0.0448421 -1.19493 0.389304 -0.0241577 -1.16912 0.0905713 -0.0134632 -1.18475 
0.0328574 -0.0206878 -1.18752 0.445494 -0.0449925 -1.18556 0.424261 -0.0117093 -1.17854 
0.463795 -0.0201216 -1.18935 0.278363 -0.0320413 -1.19247 0.0304587 -0.0344242 -1.18789 
0.41749 -0.00499235 -1.19501 0.0150169 -0.0449807 -1.195 0.0327545 -0.0397728 -1.17284 
0.492885 -0.00995337 -1.1865 0.216656 -0.0302116 -0.245002 0.119176 -0.025265 -1.19306 
0.0625683 -0.00849921 -1.1703 0.42695 -0.0365745 -1.18333 0.117924 -0.0354496 -1.1949 
0.46859 -0.0354656 -1.19501 0.00499902 -0.0368885 -1.17911 0.00499849 -0.0200322 -1.18637 
0.48697 -0.0449877 -1.18828 0.436537 -0.0223196 -1.18723 0.405255 -0.00515771 -1.19501 
0.479583 -0.0449385 -1.19502 0.0206317 -0.00498892 -1.18678 0.0573043 -0.0438625 -1.17066 
0.00681485 -0.0242643 -1.17751 0.015152 -0.035744 -1.17753 0.081741 -0.0270639 -1.195 
0.0669412 -0.0184685 -1.1732 0.0134557 -0.00745227 -1.18028 0.0342221 -0.0303352 -1.16939 
0.0238644 -0.0370753 -1.19498 0.452286 -0.0354078 -1.195 0.0139098 -0.0162726 -1.17406 
0.0417996 -0.0201319 -1.18298 0.0750197 -0.0449155 -1.17316 0.434943 -0.0116454 -1.19501 
0.440848 -0.030914 -1.17411 0.452226 -0.0313427 -1.1691 0.442465 -0.00503368 -1.195 
0.00500732 -0.0132764 -1.17902 0.487235 -0.0376077 -1.19501 0.491453 -0.0199068 -1.18701 
0.0404375 -0.0126258 -1.18978 0.0138058 -0.0203064 -1.195 0.0500229 -0.0446321 -1.17755 
0.0546042 -0.0211234 -1.18278 0.0182392 -0.005059 -1.17183 0.427877 -0.0118928 -1.16922 
0.419431 -0.0311045 -1.18694 0.494738 -0.0363594 -1.17722 0.0424075 -0.0356748 -1.17366 
0.025607 -0.0262773 -1.18346 0.448759 -0.0191409 -1.18773 0.00554624 -0.00499205 -1.17347 
0.36076 -0.0426609 -0.700189 0.0549786 -0.0358651 -1.17791 0.0206638 -0.0346428 -1.18583 
0.380621 -0.0371197 -1.19489 0.441201 -0.0404875 -1.1773 0.00499771 -0.00500001 -1.18501 
0.0469172 -0.0321472 -1.19501 0.404981 -0.00639226 -1.16834 0.0428415 -0.00758383 -1.16413 
0.00505474 -0.030024 -1.18637 0.00501993 -0.0449945 -1.195 0.012446 -0.012455 -1.18887 
0.123699 -0.0105862 -1.18641 0.0799319 -0.0133971 -1.18661 0.254147 -0.0428437 -1.19326 
0.0593733 -0.0449983 -1.195 0.0724549 -0.0233364 -1.195 0.206889 -0.0449724 -0.245002 
0.0143305 -0.0261403 -1.18677 0.465755 -0.013306 -1.18228 0.372619 -0.02604 -1.19479 
0.402764 -0.0204206 -1.16781 0.10657 -0.0390091 -1.18608 0.149297 -0.0323829 -1.19494 
0.104323 -0.045022 -1.195 0.0466452 -0.0292355 -1.18127 0.205653 -0.0136441 -1.19021 
0.0579277 -0.0296913 -1.18675 0.494936 -0.00501012 -1.195 0.41139 -0.0130081 -1.195 
0.0815896 -0.0163437 -1.17061 0.0398357 -0.0210504 -1.19505 0.353343 -0.0338253 -1.1775 
0.450762 -0.00500028 -1.18821 0.461542 -0.0450003 -1.18462 0.0505296 -0.0365787 -1.18683 
0.373876 -0.0102138 -1.17825 0.487246 -0.0296969 -1.17727 0.458337 -0.00508001 -1.195 
0.46558 -0.00501649 -1.18791 0.472647 -0.00499931 -1.195 0.0319597 -0.00498839 -1.18621 
0.205026 -0.0253071 -0.245002 0.469325 -0.0381766 -1.18498 0.494972 -0.0150161 -1.195 
0.0148605 -0.0450078 -1.18184 0.0357935 -0.0124566 -1.18078 0.494823 -0.0289355 -1.195 
0.0569608 -0.00518472 -1.19501 0.0224942 -0.0449966 -1.18836 0.0486903 -0.0150525 -1.195 
0.421643 -0.0214431 -1.18876 0.0184381 -0.0305037 -1.16838 0.329741 -0.00507458 -1.18657 
0.458086 -0.00538304 -1.18144 0.219402 -0.040372 -1.195 0.441902 -0.0188181 -1.195 
0.468922 -0.0285555 -1.18781 0.485468 -0.00851992 -1.195 0.417695 -0.0120907 -1.17098 
0.477239 -0.0442822 -1.18534 0.422793 -0.0362586 -1.19498 0.0183437 -0.017834 -1.18288 
0.0563871 -0.0214245 -1.19501 0.449423 -0.0122212 -1.195 0.132043 -0.016477 -1.18808 
0.0744832 -0.00500149 -1.18651 0.438563 -0.0450002 -1.19501 0.00502031 -0.044994 -1.18499 
0.476651 -0.0141583 -1.195 0.351261 -0.0194754 -1.18733 0.455531 -0.0201467 -1.19501 
0.0316003 -0.0272267 -1.195 0.483724 -0.00595242 -1.1787 0.014984 -0.00498977 -1.19501 
0.475514 -0.0261753 -1.195 0.00498115 -0.0349989 -1.19502 0.228781 -0.0195958 -1.195 
0.0253141 -0.0345648 -1.17699 0.0263104 -0.0132016 -1.18671 0.0350031 -0.0449822 -1.18636 
0.457211 -0.0126252 -1.18855 0.117812 -0.0201245 -1.18433 0.414198 -0.0450123 -1.1744 
0.0366728 -0.00499267 -1.19501 0.0542815 -0.0141006 -1.17325 0.389992 -0.0148296 -1.19497 
0.0207683 -0.0131327 -1.19501 0.453763 -0.0426722 -1.17852 0.485748 -0.0355515 -1.18523 
0.183031 -0.0337435 -1.19494 0.0588968 -0.0263297 -1.17529 0.0838964 -0.0171568 -1.19501 
0.481677 -0.0243347 -1.18369 0.0173651 -0.0259948 -1.17723 0.0565595 -0.0351822 -1.195 
0.3198 -0.0272756 -1.19354 0.494991 -0.0372687 -1.18871 0.479536 -0.00500267 -1.18776 
0.00499282 -0.0150011 -1.19501 0.0696501 -0.0137501 -1.18626 0.15791 -0.0340856 -1.18541 
0.0268467 -0.0249773 -1.17363 0.318009 -0.00648771 -1.18413 0.463488 -0.0226626 -1.17964 
0.287347 -0.0103269 -1.18808 0.0299887 -0.0450006 -1.195 0.40275 -0.045009 -1.195 
0.40532 -0.0133517 -1.18663 0.00499389 -0.00500032 -1.195 0.115717 -0.0419372 -1.1822 
0.0254908 -0.0445232 -1.15564 0.381404 -0.0204553 -1.18002 0.469934 -0.0449933 -1.19232 
0.206596 -0.0154026 -0.245002 0.494971 -0.0286609 -1.18361 0.0809637 -0.0361243 -1.16981 
0.0487473 -0.0131248 -1.18149 0.448758 -0.0448319 -1.19501 0.460405 -0.0361925 -1.18922 
0.43291 -0.0372225 -1.19156 0.0797206 -0.00502024 -1.19501 0.485625 -0.0185561 -1.19501 
0.478018 -0.0355449 -1.19169 0.00825007 -0.0450053 -1.17428 0.0644367 -0.0332707 -1.1799 
0.178593 -0.00742225 -1.19499 0.364663 -0.0353702 -1.19512 0.049696 -0.0424549 -1.195 
0.0825 -0.0344512 -1.18727 0.429826 -0.0203205 -1.195 0.299172 -0.00856721 -1.18493 
0.417545 -0.0449084 -1.19501 0.394582 -0.00510889 -1.19501 0.0270356 -0.0155093 -1.17701 
0.088401 -0.0427947 -1.18639 0.416647 -0.00503707 -1.17854 0.272338 -0.0443795 -0.313334 
0.442912 -0.0366358 -1.19169 0.0888248 -0.0342718 -1.195 0.0683294 -0.00706109 -1.17885 
0.0976351 -0.0253589 -1.17873 0.410884 -0.00502309 -1.18675 0.128957 -0.00562397 -1.19442 
0.410598 -0.0377063 -1.19501 0.0398667 -0.0450137 -1.1775 0.0400231 -0.0450044 -1.195 
0.0413118 -0.00730382 -1.17399 0.0153313 -0.0316722 -1.19502 0.026643 -0.00502853 -1.195 
0.0691393 -0.00504524 -1.195 0.48836 -0.0192809 -1.17752 0.450685 -0.0358594 -1.18511 
0.0393216 -0.0282717 -1.18821 0.0232112 -0.0224651 -1.1924 0.0717605 -0.0272027 -1.16077 
0.0258855 -0.00509332 -1.17828 0.241883 -0.0445411 -1.19328 0.422479 -0.0450082 -1.18632 
0.0565661 -0.0133748 -1.18907 0.435986 -0.0322845 -1.18332 0.073403 -0.0081618 -1.17016 
0.461816 -0.0281217 -1.19501 0.0116954 -0.0382094 -1.1884 0.0614834 -0.0141983 -1.18041 
0.422384 -0.013717 -1.19503 0.364439 -0.00675594 -0.946551 0.0735364 -0.0450182 -1.19502 
0.0897212 -0.0050027 -1.19501 0.427477 -0.00500152 -1.19502 0.418675 -0.0199968 -1.17923 
0.402327 -0.0308488 -1.18072 0.48486 -0.0428941 -1.17854 0.0997031 -0.0055315 -1.195 
0.406468 -0.0217245 -1.19493 0.359253 -0.0225561 -0.649405 0.0937182 -0.0141665 -1.195 
0.124223 -0.036588 -1.18677 0.0558418 -0.0449729 -1.18561 0.0762261 -0.0354047 -1.19499 
0.0318877 -0.0141236 -1.195 0.428789 -0.0283923 -1.18921 0.350042 -0.00595525 -1.18025 
0.402457 -0.0383818 -1.1875 0.419487 -0.0366306 -1.17317 0.173406 -0.0183783 -1.19496 
0.434362 -0.005015 -1.18735 0.10089 -0.0267438 -1.19503 0.0878023 -0.0230573 -1.18553 
0.340563 -0.0183687 -1.1846 0.427662 -0.0449872 -1.19501 0.302067 -0.0428971 -1.19464 
0.240774 -0.00523683 -1.19412 0.00499297 -0.031421 -1.17075 0.436909 -0.0286676 -1.195 
0.271952 -0.0244984 -1.195 0.395009 -0.0450053 -1.18737 0.445735 -0.0150205 -1.17904 
0.109294 -0.00794746 -1.19362 0.0635867 -0.0448854 -1.17837 0.213602 -0.00860521 -1.19501 
0.347328 -0.00507925 -1.19414 0.402492 -0.0317719 -1.19503 0.428762 -0.0133359 -1.18734 
0.0480737 -0.0236308 -1.18992 0.415635 -0.0264875 -1.19498 0.0339605 -0.0300437 -1.17942 
0.0929839 -0.0449979 -1.19499 0.446611 -0.0274133 -1.19305 0.0451678 -0.0450157 -1.18643 
0.172664 -0.031812 -1.19468 0.38827 -0.0301599 -1.195 0.0664281 -0.0379044 -1.195 
0.188883 -0.00518461 -1.195 0.473564 -0.0196895 -1.18727 0.0199158 -0.0450073 -1.17318 
0.0744796 -0.0135464 -1.19501 0.105873 -0.0154754 -1.1851 0.396168 -0.0231802 -1.19478 
0.413384 -0.0288216 -1.17881 0.0983142 -0.0448735 -1.18635 0.268987 -0.00717134 -1.19191 
0.10339 -0.016623 -1.19502 0.395372 -0.0307505 -1.18789 0.411739 -0.0212165 -1.18636 
0.387353 -0.0449664 -1.19498 0.447149 -0.00509193 -1.17889 0.315103 -0.025624 -1.18284 
0.355882 -0.0110669 -1.19476 0.436052 -0.0109579 -1.17947 0.07182 -0.0398897 -1.1812 
0.0912671 -0.0239805 -1.19494 0.159858 -0.0435978 -1.19438 0.381775 -0.0220038 -1.195 
0.435476 -0.0448479 -1.18551 0.0834014 -0.0418659 -1.1777 0.399754 -0.00505129 -1.18645 
0.050346 -0.0299597 -1.17131 0.0421631 -0.0049729 -1.18366 0.0630255 -0.00503971 -1.18707 
0.388551 -0.0217547 -1.18751 0.181779 -0.0238842 -1.194 0.428851 -0.0209558 -1.18088 
0.0777601 -0.023762 -1.18645 0.399917 -0.0136894 -1.19501 0.228546 -0.00629098 -1.18594 
0.244272 -0.0348567 -1.19471 0.210155 -0.0445689 -1.19478 0.384413 -0.00509805 -1.1949 
0.0466695 -0.00508196 -1.19501 0.0467461 -0.020869 -1.17431 0.19728 -0.0167786 -1.19494 
0.408902 -0.0360005 -1.17341 0.168872 -0.0376117 -1.18722 0.118854 -0.00535874 -1.195 
0.140641 -0.0442581 -1.19181 0.06329 -0.0213143 -1.18778 0.0645282 -0.0145375 -1.19501 
0.41007 -0.0450056 -1.18821 0.395152 -0.038577 -1.19504 0.095757 -0.0368783 -1.16954 
0.230534 -0.00518907 -0.24503 0.186863 -0.0150843 -1.19501 0.380018 -0.0371036 -1.18209 
0.411187 -0.0134042 -1.17845 0.0891463 -0.0324596 -1.18011 0.215055 -0.0296401 -1.18327 
0.114317 -0.00588402 -1.18512 0.0578046 -0.00499989 -1.17843 0.250024 -0.012304 -1.19449 
0.365907 -0.0141192 -1.19336 0.168704 -0.0056989 -1.19496 0.366635 -0.0412465 -1.10634 
0.401355 -0.022534 -1.18619 0.0700905 -0.0317275 -1.18804 0.34444 -0.0449566 -1.19493 
0.0907085 -0.00569532 -1.17716 0.228576 -0.0257005 -1.18706 0.441764 -0.0119897 -1.1877 
0.400132 -0.0135105 -1.17789 0.0937413 -0.0419533 -1.17791 0.236361 -0.0262502 -1.19371 
0.329132 -0.0131993 -1.17836 0.26538 -0.0448112 -1.19396 0.278987 -0.01689 -1.19455 
0.394652 -0.00509288 -1.17739 0.287688 -0.0392279 -1.19458 0.205092 -0.0255254 -1.19492 
0.15958 -0.0284522 -1.19475 0.0955674 -0.0304417 -1.18748 0.368957 -0.0449685 -1.19478 
0.0664947 -0.0450062 -1.18794 0.423396 -0.00499985 -1.18591 0.25877 -0.0202701 -1.19265 
0.313055 -0.00901842 -1.19499 0.138685 -0.00844027 -1.19454 0.108484 -0.0296389 -1.18247 
0.185259 -0.0436406 -1.18672 0.137223 -0.0289651 -1.19461 0.312856 -0.0414747 -1.19492 
0.0637279 -0.0282137 -1.195 0.095762 -0.00503264 -1.18584 0.224111 -0.00644351 -1.19495 
0.214023 -0.00531231 -1.18559 0.334393 -0.0121457 -1.15882 0.332509 -0.0175637 -1.19496 
0.383911 -0.0128986 -1.18713 0.169701 -0.0449898 -1.195 0.133366 -0.0325287 -1.18279 
0.124629 -0.0448353 -1.195 0.417163 -0.0128091 -1.18644 0.369997 -0.00504413 -1.19503 
0.109498 -0.0234649 -1.19106 0.444766 -0.0273992 -1.18318 0.168342 -0.0250698 -1.18522 
0.207702 -0.0349696 -0.245002 0.379274 -0.0448285 -1.18818 0.377798 -0.0127959 -1.19502 
0.406159 -0.0219731 -1.17726 0.379538 -0.0292373 -1.18831 0.0769803 -0.0313696 -1.17952 
0.390595 -0.0354716 -1.17891 0.00503646 -0.0402776 -1.16608 0.0832498 -0.0425749 -1.195 
0.399165 -0.0387106 -1.1744 0.0614905 -0.0351708 -1.16616 0.161687 -0.0161268 -1.195 
0.154351 -0.0086497 -1.195 0.199307 -0.00527874 -1.195 0.319393 -0.0170282 -1.1938 
0.323862 -0.00509701 -1.19501 0.406703 -0.0442712 -1.16778 0.108088 -0.0337372 -1.19501 
0.372548 -0.0373517 -1.18901 0.325484 -0.0411119 -1.18823 0.369335 -0.0370911 -1.15633 
0.0786482 -0.0449997 -1.18642 0.362769 -0.00528171 -1.18741 0.371434 -0.0435806 -1.18105 
0.127187 -0.0308779 -1.195 0.34422 -0.0337334 -1.18751 0.47187 -0.0282382 -1.17828 
0.120889 -0.0146262 -1.1761 0.309539 -0.0218651 -1.19387 0.271974 -0.0349562 -1.18168 
0.190869 -0.0448716 -1.195 0.277213 -0.0427439 -1.19439 0.336469 -0.00523028 -1.19501 
0.394707 -0.0137647 -1.18623 0.423353 -0.0288062 -1.17805 0.292616 -0.0398172 -1.18543 
0.179743 -0.0443585 -1.19502 0.382324 -0.0311143 -1.17364 0.343307 -0.0362843 -1.03112 
0.405526 -0.00508058 -1.17829 0.337904 -0.0412792 -1.18331 0.14173 -0.0192632 -1.19304 
0.358058 -0.0449718 -1.19307 0.374483 -0.0189188 -1.18783 0.2805 -0.00576374 -1.1949 
0.24593 -0.0233752 -1.19394 0.293653 -0.0287733 -1.17898 0.0985317 -0.0366935 -1.195 
0.259366 -0.00570174 -1.19449 0.179445 -0.0145347 -1.18797 0.132819 -0.0391053 -1.19502 
0.438394 -0.0216941 -1.17712 0.332644 -0.0430868 -1.195 0.322139 -0.022289 -1.17503 
0.149984 -0.0431964 -1.19503 0.386687 -0.0449778 -1.18149 0.360076 -0.0143844 -1.18216 
0.19013 -0.0345109 -1.18785 0.389549 -0.0139087 -1.17535 0.349576 -0.0440924 -1.18591 
0.398154 -0.0293879 -1.17086 0.214722 -0.0345627 -1.14909 0.198358 -0.0441415 -1.18839 
0.079382 -0.00513955 -1.17772 0.264731 -0.0346913 -1.1947 0.308461 -0.0373005 -0.3759 
0.245704 -0.0334667 -1.18158 0.288706 -0.021693 -1.18464 0.415474 -0.0390266 -1.1823 
0.210745 -0.0348841 -1.19138 0.394266 -0.0221911 -1.17881 0.358412 -0.0181494 -0.576581 
0.253171 -0.0302153 -1.1949 0.41992 -0.0348737 -1.13579 0.199807 -0.0349007 -1.19186 
0.281534 -0.0440448 -1.18364 0.292772 -0.0257736 -1.19455 0.0853763 -0.00500683 -1.186 
0.383187 -0.00500686 -1.17856 0.360371 -0.0371599 -0.990957 0.358843 -0.0362734 -1.1855 
0.455054 -0.0271113 -1.18774 0.0695804 -0.0247363 -1.1808 0.334164 -0.0201181 -1.16806 
0.301793 -0.00641562 -1.19431 0.376487 -0.00592934 -1.18748 0.182311 -0.0258316 -1.16108 
0.0973123 -0.0204591 -1.18777 0.125099 -0.0153787 -1.19507 0.479906 -0.0237387 -1.17354 
0.29991 -0.0167279 -1.19353 0.46137 -0.0342289 -1.17944 0.114582 -0.0449721 -1.19496 
0.453412 -0.0267833 -1.1779 0.191951 -0.0264669 -1.19489 0.301211 -0.0239648 -1.18623 
0.115138 -0.0161093 -1.19496 0.365372 -0.0285491 -1.18784 0.376052 -0.0399917 -1.1722 
0.238639 -0.015596 -1.19309 0.387966 -0.0375781 -1.18821 
VERTICES 500 1000
1 0 
1 1 
1 2 
1 3 
1 4 
1 5 
1 6 
1 7 
1 8 
1 9 
1 10 
1 11 
1 12 
1 13 
1 14 
1 15 
1 16 
1 17 
1 18 
1 19 
1 20 
1 21 
1 22 
1 23 
1 24 
1 25 
1 26 
1 27 
1 28 
1 29 
1 30 
1 31 
1 32 
1 33 
1 34 
1 35 
1 36 
1 37 
1 38 
1 39 
1 40 
1 41 
1 42 
1 43 
1 44 
1 45 
1 46 
1 47 
1 48 
1 49 
1 50 
1 51 
1 52 
1 53 
1 54 
1 55 
1 56 
1 57 
1 58 
1 59 
1 60 
1 61 
1 62 
1 63 
1 64 
1 65 
1 66 
1 67 
1 68 
1 69 
1 70 
1 71 
1 72 
1 73 
1 74 
1 75 
1 76 
1 77 
1 78 
1 79 
1 80 
1 81 
1 82 
1 83 
1 84 
1 85 
1 86 
1 87 
1 88 
1 89 
1 90 
1 91 
1 92 
1 93 
1 94 
1 95 
1 96 
1 97 
1 98 
1 99 
1 100 
1 101 
1 102 
1 103 
1 104 
1 105 
1 106 
1 107 
1 108 
1 109 
1 110 
1 111 
1 112 
1 113 
1 114 
1 115 
1 116 
1 117 
1 118 
1 119 
1 120 
1 121 
1 122 
1 123 
1 124 
1 125 
1 126 
1 127 
1 128 
1 129 
1 130 
1 131 
1 132 
1 133 
1 134 
1 135 
1 136 
1 137 
1 138 
1 139 
1 140 
1 141 
1 142 
1 143 
1 144 
1 145 
1 146 
1 147 
1 148 
1 149 
1 150 
1 151 
1 152 
1 153 
1 154 
1 155 
1 156 
1 157 
1 158 
1 159 
1 160 
1 161 
1 162 
1 163 
1 164 
1 165 
1 166 
1 167 
1 168 
1 169 
1 170 
1 171 
1 172 
1 173 
1 174 
1 175 
1 176 
1 177 
1 178 
1 179 
1 180 
1 181 
1 182 
1 183 
1 184 
1 185 
1 186 
1 187 
1 188 
1 189 
1 190 
1 191 
1 192 
1 193 
1 194 
1 195 
1 196 
1 197 
1 198 
1 199 
1 200 
1 201 
1 202 
1 203 
1 204 
1 205 
1 206 
1 207 
1 208 
1 209 
1 210 
1 211 
1 212 
1 213 
1 214 
1 215 
1 216 
1 217 
1 218 
1 219 
1 220 
1 221 
1 222 
1 223 
1 224 
1 225 
1 226 
1 227 
1 228 
1 229 
1 230 
1 231 
1 232 
1 233 
1 234 
1 235 
1 236 
1 237 
1 238 
1 239 
1 240 
1 241 
1 242 
1 243 
1 244 
1 245 
1 246 
1 247 
1 248 
1 249 
1 250 
1 251 
1 252 
1 253 
1 254 
1 255 
1 256 
1 257 
1 258 
1 259 
1 260 
1 261 
1 262 
1 263 
1 264 
1 265 
1 266 
1 267 
1 268 
1 269 
1 270 
1 271 
1 272 
1 273 
1 274 
1 275 
1 276 
1 277 
1 278 
1 279 
1 280 
1 281 
1 282 
1 283 
1 284 
1 285 
1 286 
1 287 
1 288 
1 289 
1 290 
1 291 
1 292 
1 293 
1 294 
1 295 
1 296 
1 297 
1 298 
1 299 
1 300 
1 301 
1 302 
1 303 
1 304 
1 305 
1 306 
1 307 
1 308 
1 309 
1 310 
1 311 
1 312 
1 313 
1 314 
1 315 
1 316 
1 317 
1 318 
1 319 
1 320 
1 321 
1 322 
1 323 
1 324 
1 325 
1 326 
1 327 
1 328 
1 329 
1 330 
1 331 
1 332 
1 333 
1 334 
1 335 
1 336 
1 337 
1 338 
1 339 
1 340 
1 341 
1 342 
1 343 
1 344 
1 345 
1 346 
1 347 
1 348 
1 349 
1 350 
1 351 
1 352 
1 353 
1 354 
1 355 
1 356 
1 357 
1 358 
1 359 
1 360 
1 361 
1 362 
1 363 
1 364 
1 365 
1 366 
1 367 
1 368 
1 369 
1 370 
1 371 
1 372 
1 373 
1 374 
1 375 
1 376 
1 377 
1 378 
1 379 
1 380 
1 381 
1 382 
1 383 
1 384 
1 385 
1 386 
1 387 
1 388 
1 389 
1 390 
1 391 
1 392 
1 393 
1 394 
1 395 
1 396 
1 397 
1 398 
1 399 
1 400 
1 401 
1 402 
1 403 
1 404 
1 405 
1 406 
1 407 
1 408 
1 409 
1 410 
1 411 
1 412 
1 413 
1 414 
1 415 
1 416 
1 417 
1 418 
1 419 
1 420 
1 421 
1 422 
1 423 
1 424 
1 425 
1 426 
1 427 
1 428 
1 429 
1 430 
1 431 
1 432 
1 433 
1 434 
1 435 
1 436 
1 437 
1 438 
1 439 
1 440 
1 441 
1 442 
1 443 
1 444 
1 445 
1 446 
1 447 
1 448 
1 449 
1 450 
1 451 
1 452 
1 453 
1 454 
1 455 
1 456 
1 457 
1 458 
1 459 
1 460 
1 461 
1 462 
1 463 
1 464 
1 465 
1 466 
1 467 
1 468 
1 469 
1 470 
1 471 
1 472 
1 473 
1 474 
1 475 
1 476 
1 477 
1 478 
1 479 
1 480 
1 481 
1 482 
1 483 
1 484 
1 485 
1 486 
1 487 
1 488 
1 489 
1 490 
1 491 
1 492 
1 493 
1 494 
1 495 
1 496 
1 497 
1 498 
1 499 

POINT_DATA 500
FIELD FieldData 7
id 1 500 int
1 2 3 4 5 6 7 8 9 
10 11 12 13 14 15 16 17 18 
19 20 21 22 23 24 25 26 27 
28 29 30 31 32 33 34 35 36 
37 38 39 40 41 42 43 44 45 
46 47 48 49 50 51 52 53 54 
55 56 57 58 59 60 61 62 63 
64 65 66 67 68 69 70 71 72 
73 74 75 76 77 78 79 80 81 
82 83 84 85 86 87 88 89 90 
91 92 93 94 95 96 97 98 99 
100 101 102 103 104 105 106 107 108 
109 110 111 112 113 114 115 116 117 
118 119 120 121 122 123 124 125 126 
127 128 129 130 131 132 133 134 135 
136 137 138 139 140 141 142 143 144 
145 146 147 148 149 150 151 152 153 
154 155 156 157 158 159 160 161 162 
163 164 165 166 167 168 169 170 171 
172 173 174 175 176 177 178 179 180 
181 182 183 184 185 186 187 188 189 
190 191 192 193 194 195 196 197 198 
199 200 201 202 203 204 205 206 207 
208 209 210 211 212 213 214 215 216 
217 218 219 220 221 222 223 224 225 
226 227 228 229 230 231 232 233 234 
235 236 237 238 239 240 241 242 243 
244 245 246 247 248 249 250 251 252 
253 254 255 256 257 258 259 260 261 
262 263 264 265 266 267 268 269 270 
271 272 273 274 275 276 277 278 279 
280 281 282 283 284 285 286 287 288 
289 290 291 292 293 294 295 296 297 
298 299 300 301 302 303 304 305 306 
307 308 309 310 311 312 313 314 315 
316 317 318 319 320 321 322 323 324 
325 326 327 328 329 330 331 332 333 
334 335 336 337 338 339 340 341 342 
343 344 345 346 347 348 349 350 351 
352 353 354 355 356 357 358 359 360 
361 362 363 364 365 366 367 368 369 
370 371 372 373 374 375 376 377 378 
379 380 381 382 383 384 385 386 387 
388 389 390 391 392 393 394 395 396 
397 398 399 400 401 402 403 404 405 
406 407 408 409 410 411 412 413 414 
415 416 417 418 419 420 421 422 423 
424 425 426 427 428 429 430 431 432 
433 434 435 436 437 438 439 440 441 
442 443 444 445 446 447 448 449 450 
451 452 453 454 455 456 457 458 459 
460 461 462 463 464 465 466 467 468 
469 470 471 472 473 474 475 476 477 
478 479 480 481 482 483 484 485 486 
487 488 489 490 491 492 493 494 495 
496 497 498 499 500 
type 1 500 int
1 1 1 1 1 1 1 1 1 
1 1 1 1 1 1 1 1 1 
1 1 1 1 1 1 1 1 1 
1 1 1 1 1 1 1 1 1 
1 1 1 1 1 1 1 1 1 
1 1 1 1 1 1 1 1 1 
1 1 1 1 1 1 1 1 1 
1 1 1 1 1 1 1 1 1 
1 1 1 1 1 1 1 1 1 
1 1 1 1 1 1 1 1 1 
1 1 1 1 1 1 1 1 1 
1 1 1 1 1 1 1 1 1 
1 1 1 1 1 1 1 1 1 
1 1 1 1 1 1 1 1 1 
1 1 1 1 1 1 1 1 1 
1 1 1 1 1 1 1 1 1 
1 1 1 1 1 1 1 1 1 
1 1 1 1 1 1 1 1 1 
1 1 1 1 1 1 1 1 1 
1 1 1 1 1 1 1 1 1 
1 1 1 1 1 1 1 1 1 
1 1 1 1 1 1 1 1 1 
1 1 1 1 1 1 1 1 1 
1 1 1 1 1 1 1 1 1 
1 1 1 1 1 1 1 1 1 
1 1 1 1 1 1 1 1 1 
1 1 1 1 1 1 1 1 1 
1 1 1 1 1 1 1 1 1 
1 1 1 1 1 1 1 1 1 
1 1 1 1 1 1 1 1 1 
1 1 1 1 1 1 1 1 1 
1 1 1 1 1 1 1 1 1 
1 1 1 1 1 1 1 1 1 
1 1 1 1 1 1 1 1 1 
1 1 1 1 1 1 1 1 1 
1 1 1 1 1 1 1 1 1 
1 1 1 1 1 1 1 1 1 
1 1 1 1 1 1 1 1 1 
1 1 1 1 1 1 1 1 1 
1 1 1 1 1 1 1 1 1 
1 1 1 1 1 1 1 1 1 
1 1 1 1 1 1 1 1 1 
1 1 1 1 1 1 1 1 1 
1 1 1 1 1 1 1 1 1 
1 1 1 1 1 1 1 1 1 
1 1 1 1 1 1 1 1 1 
1 1 1 1 1 1 1 1 1 
1 1 1 1 1 1 1 1 1 
1 1 1 1 1 1 1 1 1 
1 1 1 1 1 1 1 1 1 
1 1 1 1 1 1 1 1 1 
1 1 1 1 1 1 1 1 1 
1 1 1 1 1 1 1 1 1 
1 1 1 1 1 1 1 1 1 
1 1 1 1 1 1 1 1 1 
1 1 1 1 1 
i 3 500 int
0 0 0 0 0 0 0 0 0 
0 0 0 0 0 0 0 0 0 
0 0 0 0 0 0 0 0 0 
0 0 0 0 0 0 0 0 0 
0 0 0 0 0 0 0 0 0 
0 0 0 0 0 0 0 0 0 
0 0 0 0 0 0 0 0 0 
0 0 0 0 0 0 0 0 0 
0 0 0 0 0 0 0 0 0 
0 0 0 0 0 0 0 0 0 
0 0 0 0 0 0 0 0 0 
0 0 0 0 0 0 0 0 0 
0 0 0 0 0 0 0 0 0 
0 0 0 0 0 0 0 0 0 
0 0 0 0 0 0 0 0 0 
0 0 0 0 0 0 0 0 0 
0 0 0 0 0 0 0 0 0 
0 0 0 0 0 0 0 0 0 
0 0 0 0 0 0 0 0 0 
0 0 0 0 0 0 0 0 0 
0 0 0 0 0 0 0 0 0 
0 0 0 0 0 0 0 0 0 
0 0 0 0 0 0 0 0 0 
0 0 0 0 0 0 0 0 0 
0 0 0 0 0 0 0 0 0 
0 0 0 0 0 0 0 0 0 
0 0 0 0 0 0 0 0 0 
0 0 0 0 0 0 0 0 0 
0 0 0 0 0 0 0 0 0 
0 0 0 0 0 0 0 0 0 
0 0 0 0 0 0 0 0 0 
0 0 0 0 0 0 0 0 0 
0 0 0 0 0 0 0 0 0 
0 0 0 0 0 0 0 0 0 
0 0 0 0 0 0 0 0 0 
0 0 0 0 0 0 0 0 0 
0 0 0 0 0 0 0 0 0 
0 0 0 0 0 0 0 0 0 
0 0 0 0 0 0 0 0 0 
0 0 0 0 0 0 0 0 0 
0 0 0 0 0 0 0 0 0 
0 0 0 0 0 0 0 0 0 
0 0 0 0 0 0 0 0 0 
0 0 0 0 0 0 0 0 0 
0 0 0 0 0 0 0 0 0 
0 0 0 0 0 0 0 0 0 
0 0 0 0 0 0 0 0 0 
0 0 0 0 0 0 0 0 0 
0 0 0 0 0 0 0 0 0 
0 0 0 0 0 0 0 0 0 
0 0 0 0 0 0 0 0 0 
0 0 0 0 0 0 0 0 0 
0 0 0 0 0 0 0 0 0 
0 0 0 0 0 0 0 0 0 
0 0 0 0 0 0 0 0 0 
0 0 0 0 0 0 0 0 0 
0 0 0 0 0 0 0 0 0 
0 0 0 0 0 0 0 0 0 
0 0 0 0 0 0 0 0 0 
0 0 0 0 0 0 0 0 0 
0 0 0 0 0 0 0 0 0 
0 0 0 0 0 0 0 0 0 
0 0 0 0 0 0 0 0 0 
0 0 0 0 0 0 0 0 0 
0 0 0 0 0 0 0 0 0 
0 0 0 0 0 0 0 0 0 
0 0 0 0 0 0 0 0 0 
0 0 0 0 0 0 0 0 0 
0 0 0 0 0 0 0 0 0 
0 0 0 0 0 0 0 0 0 
0 0 0 0 0 0 0 0 0 
0 0 0 0 0 0 0 0 0 
0 0 0 0 0 0 0 0 0 
0 0 0 0 0 0 0 0 0 
0 0 0 0 0 0 0 0 0 
0 0 0 0 0 0 0 0 0 
0 0 0 0 0 0 0 0 0 
0 0 0 0 0 0 0 0 0 
0 0 0 0 0 0 0 0 0 
0 0 0 0 0 0 0 0 0 
0 0 0 0 0 0 0 0 0 
0 0 0 0 0 0 0 0 0 
0 0 0 0 0 0 0 0 0 
0 0 0 0 0 0 0 0 0 
0 0 0 0 0 0 0 0 0 
0 0 0 0 0 0 0 0 0 
0 0 0 0 0 0 0 0 0 
0 0 0 0 0 0 0 0 0 
0 0 0 0 0 0 0 0 0 
0 0 0 0 0 0 0 0 0 
0 0 0 0 0 0 0 0 0 
0 0 0 0 0 0 0 0 0 
0 0 0 0 0 0 0 0 0 
0 0 0 0 0 0 0 0 0 
0 0 0 0 0 0 0 0 0 
0 0 0 0 0 0 0 0 0 
0 0 0 0 0 0 0 0 0 
0 0 0 0 0 0 0 0 0 
0 0 0 0 0 0 0 0 0 
0 0 0 0 0 0 0 0 0 
0 0 0 0 0 0 0 0 0 
0 0 0 0 0 0 0 0 0 
0 0 0 0 0 0 0 0 0 
0 0 0 0 0 0 0 0 0 
0 0 0 0 0 0 0 0 0 
0 0 0 0 0 0 0 0 0 
0 0 0 0 0 0 0 0 0 
0 0 0 0 0 0 0 0 0 
0 0 0 0 0 0 0 0 0 
0 0 0 0 0 0 0 0 0 
0 0 0 0 0 0 0 0 0 
0 0 0 0 0 0 0 0 0 
0 0 0 0 0 0 0 0 0 
0 0 0 0 0 0 0 0 0 
0 0 0 0 0 0 0 0 0 
0 0 0 0 0 0 0 0 0 
0 0 0 0 0 0 0 0 0 
0 0 0 0 0 0 0 0 0 
0 0 0 0 0 0 0 0 0 
0 0 0 0 0 0 0 0 0 
0 0 0 0 0 0 0 0 0 
0 0 0 0 0 0 0 0 0 
0 0 0 0 0 0 0 0 0 
0 0 0 0 0 0 0 0 0 
0 0 0 0 0 0 0 0 0 
0 0 0 0 0 0 0 0 0 
0 0 0 0 0 0 0 0 0 
0 0 0 0 0 0 0 0 0 
0 0 0 0 0 0 0 0 0 
0 0 0 0 0 0 0 0 0 
0 0 0 0 0 0 0 0 0 
0 0 0 0 0 0 0 0 0 
0 0 0 0 0 0 0 0 0 
0 0 0 0 0 0 0 0 0 
0 0 0 0 0 0 0 0 0 
0 0 0 0 0 0 0 0 0 
0 0 0 0 0 0 0 0 0 
0 0 0 0 0 0 0 0 0 
0 0 0 0 0 0 0 0 0 
0 0 0 0 0 0 0 0 0 
0 0 0 0 0 0 0 0 0 
0 0 0 0 0 0 0 0 0 
0 0 0 0 0 0 0 0 0 
0 0 0 0 0 0 0 0 0 
0 0 0 0 0 0 0 0 0 
0 0 0 0 0 0 0 0 0 
0 0 0 0 0 0 0 0 0 
0 0 0 0 0 0 0 0 0 
0 0 0 0 0 0 0 0 0 
0 0 0 0 0 0 0 0 0 
0 0 0 0 0 0 0 0 0 
0 0 0 0 0 0 0 0 0 
0 0 0 0 0 0 0 0 0 
0 0 0 0 0 0 0 0 0 
0 0 0 0 0 0 0 0 0 
0 0 0 0 0 0 0 0 0 
0 0 0 0 0 0 0 0 0 
0 0 0 0 0 0 0 0 0 
0 0 0 0 0 0 0 0 0 
0 0 0 0 0 0 0 0 0 
0 0 0 0 0 0 0 0 0 
0 0 0 0 0 0 0 0 0 
0 0 0 0 0 0 0 0 0 
0 0 0 0 0 0 0 0 0 
0 0 0 0 0 0 0 0 0 
0 0 0 0 0 0 0 0 0 
0 0 0 0 0 0 
v 3 500 double
-0.123773 -0.0622736 0.0859655 -0.053122 0.0965875 -0.110824 -0.00552885 0.0178945 0.00273289 
0.0777013 -0.0469788 0.0180957 0.0319015 0.0165012 -0.0375121 0.0172961 -0.0426769 -0.0464687 
0.0621742 -0.018511 0.001421 0.0518948 -0.0581263 -0.0353614 0.0722962 -0.00847919 0.00987278 
0.0686786 0.145419 -0.0563276 0.200366 0.471596 0.0579877 -0.0352899 -0.0243884 -0.00719392 
-0.0697981 0.019486 -0.0886636 -0.0355279 -0.0867696 0.083749 0.0943322 0.0128133 -0.0279772 
-0.00442817 -0.0543814 0.119804 0.00888661 0.0117035 -0.0462207 -0.00633619 0.0110238 -0.0468594 
0.0197174 -0.0110835 -0.00357796 -0.0404563 0.00494732 0.0242056 0.0131624 0.0186575 0.0729483 
-0.398609 -0.0233324 -6.67869e-05 -0.0400161 0.0312917 -0.00450617 0.0417698 0.00992425 -0.0119306 
-1.03265 -0.247062 0.132263 -0.0654357 -0.00377572 -0.0626828 -0.0579805 0.011162 -0.0942504 
-0.0890457 0.0717049 -0.0211821 -0.242417 -0.0727406 -0.0918065 0.0712216 0.017345 0.0215221 
0.0347457 0.0203261 -0.024586 -0.182871 -7.917e-05 -0.0116341 -0.0160867 -0.0351083 0.00468226 
-0.0155048 -0.00895111 0.00996405 -0.536543 0.0683889 -0.00741814 0.0304158 -0.0428635 0.0217211 
-0.018688 0.000905135 0.00374345 -0.00430232 -0.00924642 0.00354323 0.0845726 0.0453828 -0.105133 
-0.044975 0.0827472 -0.025991 0.0183497 -0.0234269 -4.1691e-11 0.0490043 0.00120617 -0.175279 
-0.0274235 -0.0771726 -0.0808186 0.0532756 -0.0374157 -0.0334555 0.0276057 0.047141 0.01903 
-0.0343075 0.0353964 -0.0182976 -0.00154738 -0.00444837 -0.0128455 -0.00167535 0.0159434 0.000731243 
-0.0147663 -0.0395463 -0.038099 -0.135435 0.09291 -0.0492983 -0.0592131 -0.0548208 -0.00204445 
-0.0251836 -0.00753934 -0.0289753 -0.00034609 0.000142403 -0.0325863 0.135042 -0.151103 0.0544472 
0.0457166 -0.0402667 -0.0714211 -0.0607503 0.0435959 -0.0257373 0.0261388 0.0244066 -0.00375011 
0.0547409 -0.0185739 -0.00040527 0.00977952 0.0248039 -0.00938353 0.0976645 0.0975272 -0.0120463 
0.0471137 -0.0512169 0.00722177 0.0276986 -0.0186687 0.0117533 -0.0330663 0.0656765 -0.0976768 
0.033506 0.017816 -0.0180592 0.0252618 0.0162257 -0.0499986 -0.0415961 -0.037409 -0.00313435 
0.0059276 0.0998385 -0.128239 -0.247818 0.0919952 -0.0376306 -0.0889521 -0.0214744 -0.0210851 
-0.00308271 -0.00462514 0.0271451 -0.021666 -0.0264134 0.00730715 -0.0588864 0.0472272 0.0213678 
0.0708402 0.0383761 0.0243012 -0.00891732 0.0253648 0.00263111 0.158261 -0.147127 -0.0425228 
0.0368631 0.0328757 -0.0586747 0.0250926 -0.00701 -0.00968376 -0.0164859 -0.0365386 0.0331759 
0.00457696 0.0357359 0.145213 -0.0420496 0.0259881 -0.0797389 0.054884 -0.0235099 -0.0213218 
-0.00143468 0.050142 -0.0405185 -0.048693 -0.0232221 -0.0328237 0.00508566 -0.0032462 0.0254076 
0.0524946 -0.0185243 -2.93271 0.0481731 0.00332778 0.0168454 0.02102 0.0379093 -0.0287208 
0.0151065 0.020797 0.0161779 -0.151188 -0.0273148 -0.162513 0.00329815 -0.00108254 0.00161894 
0.0188453 -0.0195107 0.000339873 -0.147341 -0.0319268 -0.0464095 0.329151 0.164171 -0.396255 
0.00341786 0.0043566 -0.00624822 -0.00521465 0.00734953 0.00161137 -0.0208233 0.0168236 -0.00727538 
0.050922 0.00412807 0.0689342 0.0574736 -0.0165744 0.00271668 -0.465256 -0.101876 -0.145233 
0.0796111 0.00404597 -0.0101051 -0.00178931 -0.00147076 -0.00493637 0.00177682 -7.62427e-05 -4.35958e-11 
0.0214509 0.0126122 -0.0237599 0.0686855 0.0387084 -0.0176466 -0.119568 0.235023 0.10174 
-0.165186 0.0647588 0.168786 0.00499112 -0.091784 -0.0472147 -0.694887 0.0207169 -0.0128345 
0.0795836 0.00751091 -0.0124103 0.0434189 -0.0214395 -0.0500805 -0.534577 0.0800835 -0.124447 
0.0256622 0.0234215 -0.0511437 -0.00240416 -0.00675606 0.00144603 -0.0610734 -0.0617976 -0.0003897 
0.250932 -0.0202457 -0.120018 0.0328718 0.0619625 0.0108476 -0.112344 0.703943 -0.107656 
-0.0219579 0.00806961 0.0206003 0.0106682 0.00314718 0.00435225 0.026112 -0.037378 0.00353347 
-0.149092 0.00445151 -0.185451 -0.0777295 0.039991 -0.0611575 -0.0361979 -0.011437 -0.00601425 
0.0701039 0.014244 -0.112745 -0.0791917 -0.0041795 0.00173545 0.0604451 0.00277886 0.00705896 
0.000464821 0.00097634 -3.09963e-08 -0.0342495 0.0184029 -0.0332622 0.000713716 -0.00720823 0.00580367 
0.0680568 -0.000155858 0.00354164 0.0369378 0.00409052 0.0203921 0.0163119 -0.0196389 0.00520614 
0.0092454 0.00373725 -0.00918784 0.0686858 0.000865477 -0.0817559 0.0420395 0.011062 -0.00465404 
-0.0220696 -0.0409532 0.114254 -0.0773354 -0.0438132 -0.0437777 -0.367473 -0.362715 -0.327154 
-0.226696 0.00983556 -0.432045 -0.441085 0.0592362 0.00161281 -0.00768714 -0.00469924 -0.00256267 
-0.0371836 0.00631169 -0.0196953 -0.0129639 0.041962 0.00210747 -0.0512417 0.0559528 -0.00383376 
-0.0304454 0.000852118 -0.0246852 -0.0739088 0.0247815 0.00691318 0.0209483 0.00899344 -0.0772619 
0.0428076 -0.00719775 -0.00256626 -0.0331095 0.0245139 0.000197688 -0.244551 0.0734885 0.233347 
0.0412242 -0.00515529 -0.0185213 -0.0946643 -0.0746361 0.00500136 0.00818788 0.0100137 -0.043867 
-0.0472383 0.00144581 -0.00106246 -0.346088 0.176695 -0.395808 -0.0113589 0.0182873 0.0103544 
0.0304238 -0.00982851 -0.00982903 0.044503 0.0883543 -0.0454809 -0.00545796 0.00221558 -0.00734222 
-0.051856 -0.00645781 -0.00718353 0.014383 0.00569249 0.00312355 -0.432116 -0.0232298 -6.15719e-06 
-0.012158 0.0446123 0.00753858 0.0320192 0.0257939 -0.0173098 0.075941 0.00644638 0.0240789 
-0.00770967 0.00972389 -0.00415076 -0.0230987 -0.0239901 -0.0880776 -0.170842 0.0145659 0.0487385 
0.0219537 -0.00187115 -0.001813 0.0348534 0.0561481 -0.0191059 -0.153291 -0.0293443 0.0534764 