# vtk DataFile Version 4.0
Generated by LIGGGHTS
ASCII
DATASET POLYDATA
POINTS 500 float
0.429103 -0.0337524 -0.898318 0.467304 -0.0417548 -0.961191 0.296017 -0.0152493 -1.05898 
0.335144 -0.0276711 -1.12566 0.195628 -0.0180654 -1.02785 0.357102 -0.0424202 -1.04374 
0.348364 -0.0426695 -1.14967 0.210124 -0.0329437 -0.919822 0.274736 -0.0403665 -0.867887 
0.365107 -0.0208714 -0.885205 0.490592 -0.0347242 -0.935177 0.467923 -0.0111337 -1.18716 
0.323385 -0.00727668 -1.18184 0.43671 -0.0169452 -1.00721 0.160287 -0.0330744 -0.927642 
0.278577 -0.00851446 -0.322767 0.468958 -0.0212821 -1.05584 0.475405 -0.0275056 -1.17099 
0.354223 -0.00812797 -0.676814 0.417071 -0.00867151 -1.17755 0.290622 -0.0336208 -1.11804 
0.487398 -0.0249599 -1.19612 0.455411 -0.0154726 -1.17632 0.305448 -0.0333544 -1.19357 
0.216498 -0.0206202 -0.24515 0.40091 -0.0343266 -1.1796 0.407772 -0.0117833 -1.16533 
0.463861 -0.00728462 -1.15651 0.463184 -0.0042063 -1.10964 0.254643 -0.0431302 -0.273916 
0.325202 -0.0407099 -1.06174 0.478993 -0.0357036 -1.0528 0.255675 -0.00531289 -0.28379 
0.328066 -0.0296696 -1.08394 0.214219 -0.0306969 -0.244865 0.335962 -0.00556567 -0.420758 
0.37343 -0.0412605 -1.15651 0.277465 -0.0434911 -1.00909 0.381609 -0.00697751 -1.1823 
0.374389 -0.0285439 -1.16378 0.205315 -0.0152685 -0.244985 0.229662 -0.0183905 -1.08253 
0.30465 -0.0416722 -1.12453 0.426287 -0.0403233 -1.18605 0.276879 -0.0264903 -1.11082 
0.38025 -0.0159056 -0.940854 0.306068 -0.00653432 -1.01655 0.351955 -0.00806785 -1.12404 
0.441661 -0.0360676 -1.09356 0.387232 -0.0372767 -1.17211 0.488891 -0.0145021 -1.17234 
0.364348 -0.0369516 -1.19132 0.410587 -0.0403563 -1.18392 0.36863 -0.0422992 -1.0122 
0.33444 -0.0120996 -1.12213 0.319689 -0.0200837 -1.19192 0.224757 -0.0146271 -0.243973 
0.238701 -0.0296496 -1.04639 0.330968 -0.0432139 -1.19008 0.350205 -0.0200258 -0.845161 
0.387762 -0.0427648 -1.14634 0.400673 -0.00999758 -1.02204 0.408852 -0.0101427 -1.12121 
0.324721 -0.0244088 -0.469448 0.326682 -0.0307686 -0.905478 0.42883 -0.0290308 -1.0956 
0.361383 -0.0251857 -1.13262 0.407392 -0.0293599 -1.15823 0.423005 -0.0200046 -1.14782 
0.323518 -0.0301486 -1.07387 0.421294 -0.00920349 -0.938875 0.390085 -0.0226085 -1.16955 
0.363144 -0.0122338 -0.860371 0.390742 -0.0125116 -1.0721 0.471864 -0.0313138 -1.01939 
0.400331 -0.0187833 -1.14875 0.354563 -0.0434852 -0.669433 0.477206 -0.0216231 -1.16023 
0.380536 -0.0195079 -1.19051 0.412663 -0.00814926 -1.08841 0.353569 -0.0395903 -1.12569 
0.2549 -0.0438634 -1.00027 0.376424 -0.0405768 -0.610768 0.323629 -0.0230281 -0.975794 
0.20507 -0.0347089 -0.245008 0.381139 -0.0449169 -0.873715 0.331682 -0.0422763 -1.03324 
0.329843 -0.0439175 -0.401986 0.421397 -0.0439816 -0.996831 0.360107 -0.00758082 -0.973526 
0.37568 -0.00553061 -0.941941 0.450804 -0.0249406 -0.847333 0.385612 -0.029024 -1.18002 
0.319157 -0.0286733 -1.02675 0.214794 -0.0259645 -0.994425 0.368243 -0.00902779 -0.913631 
0.349842 -0.0211823 -0.550326 0.434499 -0.026313 -1.14361 0.208685 -0.00516067 -0.24496 
0.436064 -0.0317946 -1.00151 0.398745 -0.00978202 -0.891156 0.205282 -0.0446718 -0.244525 
0.341538 -0.0273979 -0.978536 0.410043 -0.00883622 -0.850755 0.36186 -0.0125071 -0.79746 
0.287634 -0.00925557 -1.01318 0.392858 -0.0211881 -0.976319 0.309224 -0.0443403 -1.08075 
0.372939 -0.0139167 -0.877706 0.357563 -0.0104987 -0.645649 0.367311 -0.0254676 -0.735523 
0.357402 -0.0101808 -0.982994 0.414262 -0.00955294 -1.05368 0.392551 -0.00543295 -0.820103 
0.254573 -0.0212583 -0.926002 0.355456 -0.0359104 -1.06983 0.213054 -0.0151926 -0.237727 
0.413173 -0.0174311 -0.961852 0.420042 -0.0422693 -0.893072 0.340139 -0.0430342 -0.490095 
0.389766 -0.0136755 -0.756642 0.361221 -0.0197991 -0.566693 0.403996 -0.0151702 -0.965809 
0.374901 -0.0270791 -0.577486 0.386689 -0.017179 -0.76775 0.350613 -0.0339091 -0.466109 
0.206222 -0.0250995 -0.242556 0.412094 -0.0123392 -0.872814 0.391892 -0.0421603 -0.850961 
0.363322 -0.0433542 -0.843382 0.397247 -0.0389164 -0.945159 0.417409 -0.0318185 -0.8815 
0.385675 -0.0437668 -0.786969 0.340983 -0.00669614 -0.758537 0.373655 -0.0187998 -0.69675 
0.36942 -0.0386555 -0.637349 0.382496 -0.026622 -0.911957 0.387308 -0.0125488 -0.868197 
0.437368 -0.0427402 -0.937129 0.318849 -0.020773 -0.382345 0.398396 -0.00778456 -0.831381 
0.403016 -0.039212 -0.679819 0.405168 -0.0440054 -0.872121 0.398979 -0.0324468 -0.831453 
0.421495 -0.0303918 -0.768774 0.363702 -0.0440867 -0.794395 0.358268 -0.0165791 -0.77414 
0.344606 -0.0336942 -0.436701 0.382991 -0.0055086 -0.808918 0.364622 -0.0435961 -0.652492 
0.367902 -0.00807084 -0.724079 0.367381 -0.0427114 -0.628141 0.376067 -0.033695 -0.789933 
0.383988 -0.0426912 -0.761186 0.215996 -0.044668 -0.244773 0.362816 -0.0286988 -0.859531 
0.339008 -0.0124185 -0.619339 0.395388 -0.00810994 -0.785982 0.409816 -0.0109559 -0.943119 
0.392382 -0.0318669 -0.797724 0.336453 -0.0218254 -0.736192 0.349283 -0.0183056 -0.828246 
0.361144 -0.00960742 -0.70604 0.329886 -0.0416741 -0.492997 0.378083 -0.0166403 -0.755495 
0.374258 -0.028339 -0.605273 0.396826 -0.038815 -0.77549 0.358446 -0.0181462 -0.616774 
0.341723 -0.0280794 -0.744845 0.342522 -0.0214708 -0.726739 0.377783 -0.0432186 -0.701082 
0.340846 -0.0212163 -0.689839 0.269587 -0.0250212 -0.308253 0.399135 -0.0241013 -0.783052 
0.365408 -0.00597609 -0.753305 0.366462 -0.0253367 -0.657441 0.334898 -0.00813654 -0.508278 
0.379365 -0.0348123 -0.831595 0.32972 -0.0161877 -0.55146 0.388636 -0.0110389 -0.835758 
0.319906 -0.0444818 -0.386587 0.378849 -0.0129904 -0.635943 0.399245 -0.0160834 -0.745179 
0.361438 -0.0345841 -0.768083 0.363705 -0.0114501 -0.687699 0.365222 -0.0193225 -0.789012 
0.326511 -0.0441453 -0.671149 0.294358 -0.010578 -0.315003 0.382071 -0.0367028 -0.689599 
0.346973 -0.0227852 -0.630323 0.333098 -0.0237914 -0.593183 0.305325 -0.0196159 -0.369232 
0.371411 -0.0440219 -0.549577 0.308203 -0.0161345 -0.77645 0.244943 -0.0141066 -0.265819 
0.365543 -0.0159666 -0.575565 0.401576 -0.0173203 -0.762973 0.370304 -0.0437426 -0.600368 
0.20667 -0.014901 -0.226165 0.373986 -0.00788672 -0.650919 0.346887 -0.0402535 -0.596158 
0.340007 -0.043756 -0.552575 0.366276 -0.0209638 -0.540434 0.333439 -0.0364726 -0.453174 
0.389842 -0.0298048 -0.622865 0.3559 -0.0418572 -0.513993 0.384695 -0.0226045 -0.66432 
0.377538 -0.0444074 -0.632484 0.35173 -0.00688116 -0.479145 0.294638 -0.0444172 -0.351849 
0.314286 -0.00943226 -0.386139 0.350314 -0.0261372 -0.603509 0.336205 -0.0364296 -0.499961 
0.363362 -0.0302385 -0.579463 0.370263 -0.0418281 -0.565554 0.218315 -0.00550789 -0.242218 
0.361951 -0.0324432 -0.54245 0.368982 -0.007645 -0.608828 0.335249 -0.0404163 -0.618018 
0.337857 -0.0325335 -0.478013 0.372979 -0.00741272 -0.597144 0.20532 -0.0428366 -0.233396 
0.35872 -0.0130387 -0.552378 0.356551 -0.026873 -0.496249 0.335619 -0.0435262 -0.472854 
0.352932 -0.0189705 -0.526292 0.266894 -0.00986143 -0.303488 0.346231 -0.0057045 -0.460963 
0.328378 -0.0322652 -0.424681 0.339535 -0.0150654 -0.548618 0.349698 -0.0445814 -0.581644 
0.341713 -0.043093 -0.526128 0.326535 -0.0304185 -0.40663 0.345405 -0.0138733 -0.566217 
0.327019 -0.0172382 -0.388722 0.34301 -0.0433702 -0.439389 0.372756 -0.0194893 -0.610156 
0.353519 -0.044475 -0.531821 0.35506 -0.0442839 -0.502462 0.346543 -0.0156322 -0.585972 
0.357097 -0.00917039 -0.518468 0.323405 -0.0383551 -0.377919 0.350786 -0.0326309 -0.507546 
0.295389 -0.0348375 -0.346261 0.354258 -0.00502839 -0.505777 0.346918 -0.0308771 -0.531481 
0.356365 -0.0158146 -0.4995 0.330453 -0.0221597 -0.565076 0.323439 -0.0245536 -0.398942 
0.353685 -0.0136114 -0.464528 0.204992 -0.00689394 -0.235279 0.345031 -0.0155208 -0.413301 
0.353792 -0.0410215 -0.472323 0.342857 -0.041558 -0.410757 0.342604 -0.0160692 -0.441683 
0.360751 -0.0380525 -0.529309 0.237646 -0.00503392 -0.249333 0.346243 -0.0401952 -0.454524 
0.345352 -0.0125611 -0.428573 0.205294 -0.0230359 -0.232033 0.319962 -0.0320841 -0.391593 
0.327152 -0.0151137 -0.448308 0.349938 -0.0227597 -0.460847 0.334594 -0.00974373 -0.368258 
0.347846 -0.0216776 -0.483328 0.301392 -0.0297675 -0.363002 0.215994 -0.0369204 -0.237367 
0.340806 -0.0411925 -0.391362 0.348917 -0.0332471 -0.480994 0.248058 -0.024006 -0.263043 
0.328939 -0.0259653 -0.369321 0.229684 -0.00492517 -0.241279 0.358204 -0.0186956 -0.515473 
0.33119 -0.041683 -0.385972 0.335283 -0.0138821 -0.430249 0.315476 -0.0208944 -0.369672 
0.335893 -0.0430828 -0.426904 0.341198 -0.00603485 -0.437869 0.309383 -0.0304945 -0.374806 
0.289896 -0.00583052 -0.340431 0.33484 -0.0417271 -0.364033 0.340873 -0.0322159 -0.424883 
0.27337 -0.0156531 -0.314869 0.3049 -0.00614483 -0.363627 0.218833 -0.0194065 -0.230557 
0.308174 -0.0263789 -0.323015 0.302916 -0.043747 -0.358283 0.337213 -0.0256358 -0.378796 
0.316199 -0.00795914 -0.366142 0.341558 -0.0088627 -0.404798 0.337122 -0.0243025 -0.401377 
0.327263 -0.0429136 -0.41208 0.334711 -0.0401511 -0.376535 0.303506 -0.0209463 -0.357997 
0.317 -0.0100802 -0.3766 0.309647 -0.0448895 -0.371371 0.33433 -0.016082 -0.412526 
0.334867 -0.0251769 -0.418827 0.35066 -0.00675164 -0.450717 0.326081 -0.00655072 -0.391515 
0.270127 -0.0441716 -0.30676 0.325952 -0.0174661 -0.36117 0.240974 -0.0278808 -0.252523 
0.321848 -0.0375167 -0.333574 0.313107 -0.0406589 -0.326816 0.298697 -0.0127464 -0.354652 
0.275068 -0.00599788 -0.311664 0.287548 -0.00560311 -0.326746 0.328009 -0.0335736 -0.36223 
0.289576 -0.0154809 -0.322312 0.332944 -0.0394041 -0.351123 0.206402 -0.0327107 -0.234898 
0.222621 -0.0364049 -0.244822 0.319393 -0.0441636 -0.369884 0.320375 -0.0156566 -0.349143 
0.297627 -0.0241025 -0.349708 0.277781 -0.0422525 -0.322849 0.308201 -0.0117129 -0.350468 
0.335721 -0.0218207 -0.391517 0.261286 -0.0167551 -0.29367 0.329277 -0.0306093 -0.323656 
0.26545 -0.0438498 -0.296521 0.313659 -0.0405266 -0.346512 0.283945 -0.0321972 -0.330204 
0.279432 -0.0193571 -0.304003 0.228574 -0.0264464 -0.245394 0.214586 -0.00710075 -0.231896 
0.290063 -0.0178998 -0.304685 0.317998 -0.0283998 -0.324335 0.270747 -0.0296476 -0.297663 
0.215195 -0.032007 -0.228604 0.277164 -0.0356488 -0.309559 0.324226 -0.0253941 -0.344988 
0.287749 -0.0204742 -0.331138 0.281593 -0.0191124 -0.288602 0.224736 -0.0447673 -0.239366 
0.306266 -0.00574482 -0.316796 0.305612 -0.0127804 -0.32642 0.300675 -0.0417151 -0.333941 
0.264877 -0.035239 -0.274382 0.28105 -0.0309557 -0.301081 0.266039 -0.0123547 -0.284553 
0.302088 -0.0363009 -0.279048 0.286116 -0.0319791 -0.277175 0.309046 -0.0302357 -0.336024 
0.205478 -0.00495315 -0.225335 0.241368 -0.0447164 -0.254943 0.2197 -0.0263971 -0.237614 
0.28134 -0.0427173 -0.298872 0.224476 -0.00501987 -0.231544 0.275206 -0.0326866 -0.288681 
0.242928 -0.0371209 -0.26194 0.266951 -0.00818495 -0.293664 0.300345 -0.035158 -0.316987 
0.275288 -0.0141677 -0.27503 0.256867 -0.011548 -0.271956 0.209761 -0.0451009 -0.223066 
0.311142 -0.0133185 -0.280703 0.26326 -0.0196617 -0.261371 0.286295 -0.0437658 -0.316801 
0.261032 -0.0266382 -0.291861 0.237488 -0.0143975 -0.245816 0.274019 -0.0150974 -0.256589 
0.225751 -0.0357209 -0.235347 0.265139 -0.0447557 -0.271335 0.246596 -0.0150002 -0.252611 
0.273238 -0.042521 -0.287419 0.23332 -0.0365974 -0.243614 0.283292 -0.0225271 -0.277982 
0.258958 -0.03595 -0.261592 0.217448 -0.0434062 -0.229223 0.227591 -0.0151491 -0.232159 
0.250717 -0.0447579 -0.248836 0.262871 -0.0280322 -0.247313 0.25471 -0.0281306 -0.253736 
0.241301 -0.0276744 -0.242451 0.26361 -0.00560824 -0.254199 0.260825 -0.0256496 -0.281547 
0.283377 -0.0360105 -0.259704 0.269531 -0.0074266 -0.26749 0.230398 -0.0267909 -0.235643 
0.22537 -0.0252097 -0.22568 0.236495 -0.00932889 -0.235357 0.239935 -0.0336897 -0.234216 
0.262321 -0.0137566 -0.24819 0.215119 -0.00771094 -0.221265 0.269917 -0.0449307 -0.259734 
0.255825 -0.0338845 -0.242617 0.211888 -0.0306552 -0.219281 0.249153 -0.0139226 -0.232724 
0.279373 -0.0101417 -0.241614 0.262021 -0.0423551 -0.250445 0.243028 -0.0417914 -0.239468 
0.22733 -0.0445807 -0.225771 0.245257 -0.00663773 -0.24225 0.235342 -0.0054537 -0.225206 
0.249094 -0.0362501 -0.254046 0.248302 -0.0198135 -0.242678 0.23634 -0.0432009 -0.231564 
0.205145 -0.0356222 -0.224707 0.246867 -0.00515302 -0.226922 0.219393 -0.0235227 -0.20863 
0.252152 -0.0232446 -0.230763 0.21878 -0.0121648 -0.212989 0.239835 -0.0355729 -0.210809 
0.243835 -0.026201 -0.222047 0.232569 -0.0112477 -0.212892 0.25021 -0.0377345 -0.233763 
0.211945 -0.0299311 -0.202919 0.248477 -0.0431073 -0.203033 0.214502 -0.020282 -0.221705 
0.214021 -0.0401021 -0.206888 0.249062 -0.00566822 -0.201322 0.226318 -0.0360124 -0.220742 
0.248878 -0.0179202 -0.202037 0.233195 -0.0442137 -0.200975 0.230274 -0.0268622 -0.210263 
0.23828 -0.0200947 -0.230145 0.208722 -0.03983 -0.214944 0.218346 -0.0445759 -0.217813 
0.234444 -0.0382428 -0.179416 0.220893 -0.0395294 -0.168097 0.238571 -0.0192514 -0.179746 
0.228711 -0.0118739 -0.187974 0.213602 -0.0205095 -0.177282 0.248131 -0.0166671 -0.159812 
0.223109 -0.0181207 -0.166646 0.246147 -0.0379518 -0.181879 0.213334 -0.00714674 -0.162635 
0.237354 -0.0310019 -0.192319 0.226477 -0.0278401 -0.160873 0.226227 -0.0324903 -0.186307 
0.239523 -0.00864715 -0.17658 0.220429 -0.0101749 -0.199521 0.236707 -0.0278034 -0.163589 
0.223423 -0.00527069 -0.17589 0.210716 -0.0363875 -0.171386 0.210077 -0.0114541 -0.191495 
0.249318 -0.0286102 -0.190947 0.210352 -0.0273632 -0.160657 0.225589 -0.00807897 -0.138817 
0.232435 -0.0418219 -0.148293 0.243503 -0.0351157 -0.14078 0.230396 -0.0176543 -0.124438 
0.238971 -0.0055175 -0.155271 0.215233 -0.00806608 -0.123604 0.23046 -0.0167272 -0.153205 
0.249582 -0.0350093 -0.124286 0.233368 -0.0247631 -0.14242 0.218724 -0.0231419 -0.134652 
0.247613 -0.00921427 -0.144243 0.246377 -0.0167903 -0.129989 0.21287 -0.0393291 -0.131433 
0.247777 -0.0447024 -0.155642 0.213608 -0.0068407 -0.1429 0.248204 -0.0271035 -0.157786 
0.239176 -0.0418961 -0.122968 0.223697 -0.0431208 -0.139293 0.227848 -0.0332376 -0.124564 
0.212346 -0.044974 -0.155974 0.241305 -0.0177234 -0.112469 0.244548 -0.0379417 -0.0993095 
0.234661 -0.00816826 -0.0989886 0.229919 -0.0193797 -0.0925251 0.211536 -0.0338126 -0.0913462 
0.214349 -0.0200955 -0.115408 0.221157 -0.0143995 -0.0907349 0.231213 -0.005288 -0.120898 
0.243328 -0.0197809 -0.09366 0.233298 -0.0298872 -0.107413 0.212884 -0.00707634 -0.106563 
0.226422 -0.0333351 -0.0949438 0.213564 -0.0209664 -0.0907047 0.241571 -0.0288258 -0.120496 
0.227267 -0.0434518 -0.108955 0.240382 -0.00722492 -0.113238 0.248431 -0.00814176 -0.101052 
0.234241 -0.0426811 -0.090629 0.210085 -0.0426107 -0.113047 0.223465 -0.0166149 -0.107313 
0.212966 -0.0382415 -0.0717486 0.24559 -0.0433386 -0.0741581 0.217606 -0.00828278 -0.0685676 
0.229662 -0.0245021 -0.0657522 0.229672 -0.0146289 -0.0778603 0.22835 -0.0399226 -0.07899 
0.246693 -0.0258093 -0.0820752 0.237046 -0.0110775 -0.0675529 0.218363 -0.0200291 -0.067306 
0.249723 -0.0158387 -0.0683102 0.212163 -0.0246003 -0.0768262 0.236173 -0.0417103 -0.0656235 
0.213241 -0.00718381 -0.087941 0.220645 -0.0296722 -0.0728766 0.21038 -0.0441861 -0.0891952 
0.24883 -0.0313142 -0.0666682 0.226361 -0.0407292 -0.0638763 0.236713 -0.0314384 -0.0733272 
0.242008 -0.0103202 -0.0802195 0.240793 -0.02137 -0.0711332 
VERTICES 500 1000
1 0 
1 1 
1 2 
1 3 
1 4 
1 5 
1 6 
1 7 
1 8 
1 9 
1 10 
1 11 
1 12 
1 13 
1 14 
1 15 
1 16 
1 17 
1 18 
1 19 
1 20 
1 21 
1 22 
1 23 
1 24 
1 25 
1 26 
1 27 
1 28 
1 29 
1 30 
1 31 
1 32 
1 33 
1 34 
1 35 
1 36 
1 37 
1 38 
1 39 
1 40 
1 41 
1 42 
1 43 
1 44 
1 45 
1 46 
1 47 
1 48 
1 49 
1 50 
1 51 
1 52 
1 53 
1 54 
1 55 
1 56 
1 57 
1 58 
1 59 
1 60 
1 61 
1 62 
1 63 
1 64 
1 65 
1 66 
1 67 
1 68 
1 69 
1 70 
1 71 
1 72 
1 73 
1 74 
1 75 
1 76 
1 77 
1 78 
1 79 
1 80 
1 81 
1 82 
1 83 
1 84 
1 85 
1 86 
1 87 
1 88 
1 89 
1 90 
1 91 
1 92 
1 93 
1 94 
1 95 
1 96 
1 97 
1 98 
1 99 
1 100 
1 101 
1 102 
1 103 
1 104 
1 105 
1 106 
1 107 
1 108 
1 109 
1 110 
1 111 
1 112 
1 113 
1 114 
1 115 
1 116 
1 117 
1 118 
1 119 
1 120 
1 121 
1 122 
1 123 
1 124 
1 125 
1 126 
1 127 
1 128 
1 129 
1 130 
1 131 
1 132 
1 133 
1 134 
1 135 
1 136 
1 137 
1 138 
1 139 
1 140 
1 141 
1 142 
1 143 
1 144 
1 145 
1 146 
1 147 
1 148 
1 149 
1 150 
1 151 
1 152 
1 153 
1 154 
1 155 
1 156 
1 157 
1 158 
1 159 
1 160 
1 161 
1 162 
1 163 
1 164 
1 165 
1 166 
1 167 
1 168 
1 169 
1 170 
1 171 
1 172 
1 173 
1 174 
1 175 
1 176 
1 177 
1 178 
1 179 
1 180 
1 181 
1 182 
1 183 
1 184 
1 185 
1 186 
1 187 
1 188 
1 189 
1 190 
1 191 
1 192 
1 193 
1 194 
1 195 
1 196 
1 197 
1 198 
1 199 
1 200 
1 201 
1 202 
1 203 
1 204 
1 205 
1 206 
1 207 
1 208 
1 209 
1 210 
1 211 
1 212 
1 213 
1 214 
1 215 
1 216 
1 217 
1 218 
1 219 
1 220 
1 221 
1 222 
1 223 
1 224 
1 225 
1 226 
1 227 
1 228 
1 229 
1 230 
1 231 
1 232 
1 233 
1 234 
1 235 
1 236 
1 237 
1 238 
1 239 
1 240 
1 241 
1 242 
1 243 
1 244 
1 245 
1 246 
1 247 
1 248 
1 249 
1 250 
1 251 
1 252 
1 253 
1 254 
1 255 
1 256 
1 257 
1 258 
1 259 
1 260 
1 261 
1 262 
1 263 
1 264 
1 265 
1 266 
1 267 
1 268 
1 269 
1 270 
1 271 
1 272 
1 273 
1 274 
1 275 
1 276 
1 277 
1 278 
1 279 
1 280 
1 281 
1 282 
1 283 
1 284 
1 285 
1 286 
1 287 
1 288 
1 289 
1 290 
1 291 
1 292 
1 293 
1 294 
1 295 
1 296 
1 297 
1 298 
1 299 
1 300 
1 301 
1 302 
1 303 
1 304 
1 305 
1 306 
1 307 
1 308 
1 309 
1 310 
1 311 
1 312 
1 313 
1 314 
1 315 
1 316 
1 317 
1 318 
1 319 
1 320 
1 321 
1 322 
1 323 
1 324 
1 325 
1 326 
1 327 
1 328 
1 329 
1 330 
1 331 
1 332 
1 333 
1 334 
1 335 
1 336 
1 337 
1 338 
1 339 
1 340 
1 341 
1 342 
1 343 
1 344 
1 345 
1 346 
1 347 
1 348 
1 349 
1 350 
1 351 
1 352 
1 353 
1 354 
1 355 
1 356 
1 357 
1 358 
1 359 
1 360 
1 361 
1 362 
1 363 
1 364 
1 365 
1 366 
1 367 
1 368 
1 369 
1 370 
1 371 
1 372 
1 373 
1 374 
1 375 
1 376 
1 377 
1 378 
1 379 
1 380 
1 381 
1 382 
1 383 
1 384 
1 385 
1 386 
1 387 
1 388 
1 389 
1 390 
1 391 
1 392 
1 393 
1 394 
1 395 
1 396 
1 397 
1 398 
1 399 
1 400 
1 401 
1 402 
1 403 
1 404 
1 405 
1 406 
1 407 
1 408 
1 409 
1 410 
1 411 
1 412 
1 413 
1 414 
1 415 
1 416 
1 417 
1 418 
1 419 
1 420 
1 421 
1 422 
1 423 
1 424 
1 425 
1 426 
1 427 
1 428 
1 429 
1 430 
1 431 
1 432 
1 433 
1 434 
1 435 
1 436 
1 437 
1 438 
1 439 
1 440 
1 441 
1 442 
1 443 
1 444 
1 445 
1 446 
1 447 
1 448 
1 449 
1 450 
1 451 
1 452 
1 453 
1 454 
1 455 
1 456 
1 457 
1 458 
1 459 
1 460 
1 461 
1 462 
1 463 
1 464 
1 465 
1 466 
1 467 
1 468 
1 469 
1 470 
1 471 
1 472 
1 473 
1 474 
1 475 
1 476 
1 477 
1 478 
1 479 
1 480 
1 481 
1 482 
1 483 
1 484 
1 485 
1 486 
1 487 
1 488 
1 489 
1 490 
1 491 
1 492 
1 493 
1 494 
1 495 
1 496 
1 497 
1 498 
1 499 

POINT_DATA 500
FIELD FieldData 7
id 1 500 int
1 2 3 4 5 6 7 8 9 
10 11 12 13 14 15 16 17 18 
19 20 21 22 23 24 25 26 27 
28 29 30 31 32 33 34 35 36 
37 38 39 40 41 42 43 44 45 
46 47 48 49 50 51 52 53 54 
55 56 57 58 59 60 61 62 63 
64 65 66 67 68 69 70 71 72 
73 74 75 76 77 78 79 80 81 
82 83 84 85 86 87 88 89 90 
91 92 93 94 95 96 97 98 99 
100 101 102 103 104 105 106 107 108 
109 110 111 112 113 114 115 116 117 
118 119 120 121 122 123 124 125 126 
127 128 129 130 131 132 133 134 135 
136 137 138 139 140 141 142 143 144 
145 146 147 148 149 150 151 152 153 
154 155 156 157 158 159 160 161 162 
163 164 165 166 167 168 169 170 171 
172 173 174 175 176 177 178 179 180 
181 182 183 184 185 186 187 188 189 
190 191 192 193 194 195 196 197 198 
199 200 201 202 203 204 205 206 207 
208 209 210 211 212 213 214 215 216 
217 218 219 220 221 222 223 224 225 
226 227 228 229 230 231 232 233 234 
235 236 237 238 239 240 241 242 243 
244 245 246 247 248 249 250 251 252 
253 254 255 256 257 258 259 260 261 
262 263 264 265 266 267 268 269 270 
271 272 273 274 275 276 277 278 279 
280 281 282 283 284 285 286 287 288 
289 290 291 292 293 294 295 296 297 
298 299 300 301 302 303 304 305 306 
307 308 309 310 311 312 313 314 315 
316 317 318 319 320 321 322 323 324 
325 326 327 328 329 330 331 332 333 
334 335 336 337 338 339 340 341 342 
343 344 345 346 347 348 349 350 351 
352 353 354 355 356 357 358 359 360 
361 362 363 364 365 366 367 368 369 
370 371 372 373 374 375 376 377 378 
379 380 381 382 383 384 385 386 387 
388 389 390 391 392 393 394 395 396 
397 398 399 400 401 402 403 404 405 
406 407 408 409 410 411 412 413 414 
415 416 417 418 419 420 421 422 423 
424 425 426 427 428 429 430 431 432 
433 434 435 436 437 438 439 440 441 
442 443 444 445 446 447 448 449 450 
451 452 453 454 455 456 457 458 459 
460 461 462 463 464 465 466 467 468 
469 470 471 472 473 474 475 476 477 
478 479 480 481 482 483 484 485 486 
487 488 489 490 491 492 493 494 495 
496 497 498 499 500 
type 1 500 int
1 1 1 1 1 1 1 1 1 
1 1 1 1 1 1 1 1 1 
1 1 1 1 1 1 1 1 1 
1 1 1 1 1 1 1 1 1 
1 1 1 1 1 1 1 1 1 
1 1 1 1 1 1 1 1 1 
1 1 1 1 1 1 1 1 1 
1 1 1 1 1 1 1 1 1 
1 1 1 1 1 1 1 1 1 
1 1 1 1 1 1 1 1 1 
1 1 1 1 1 1 1 1 1 
1 1 1 1 1 1 1 1 1 
1 1 1 1 1 1 1 1 1 
1 1 1 1 1 1 1 1 1 
1 1 1 1 1 1 1 1 1 
1 1 1 1 1 1 1 1 1 
1 1 1 1 1 1 1 1 1 
1 1 1 1 1 1 1 1 1 
1 1 1 1 1 1 1 1 1 
1 1 1 1 1 1 1 1 1 
1 1 1 1 1 1 1 1 1 
1 1 1 1 1 1 1 1 1 
1 1 1 1 1 1 1 1 1 
1 1 1 1 1 1 1 1 1 
1 1 1 1 1 1 1 1 1 
1 1 1 1 1 1 1 1 1 
1 1 1 1 1 1 1 1 1 
1 1 1 1 1 1 1 1 1 
1 1 1 1 1 1 1 1 1 
1 1 1 1 1 1 1 1 1 
1 1 1 1 1 1 1 1 1 
1 1 1 1 1 1 1 1 1 
1 1 1 1 1 1 1 1 1 
1 1 1 1 1 1 1 1 1 
1 1 1 1 1 1 1 1 1 
1 1 1 1 1 1 1 1 1 
1 1 1 1 1 1 1 1 1 
1 1 1 1 1 1 1 1 1 
1 1 1 1 1 1 1 1 1 
1 1 1 1 1 1 1 1 1 
1 1 1 1 1 1 1 1 1 
1 1 1 1 1 1 1 1 1 
1 1 1 1 1 1 1 1 1 
1 1 1 1 1 1 1 1 1 
1 1 1 1 1 1 1 1 1 
1 1 1 1 1 1 1 1 1 
1 1 1 1 1 1 1 1 1 
1 1 1 1 1 1 1 1 1 
1 1 1 1 1 1 1 1 1 
1 1 1 1 1 1 1 1 1 
1 1 1 1 1 1 1 1 1 
1 1 1 1 1 1 1 1 1 
1 1 1 1 1 1 1 1 1 
1 1 1 1 1 1 1 1 1 
1 1 1 1 1 1 1 1 1 
1 1 1 1 1 
i 3 500 int
0 0 0 0 0 0 0 0 0 
0 0 0 0 0 0 0 0 0 
0 0 0 0 0 0 0 0 0 
0 0 0 0 0 0 0 0 0 
0 0 0 0 0 0 0 0 0 
0 0 0 0 0 0 0 0 0 
0 0 0 0 0 0 0 0 0 
0 0 0 0 0 0 0 0 0 
0 0 0 0 0 0 0 0 0 
0 0 0 0 0 0 0 0 0 
0 0 0 0 0 0 0 0 0 
0 0 0 0 0 0 0 0 0 
0 0 0 0 0 0 0 0 0 
0 0 0 0 0 0 0 0 0 
0 0 0 0 0 0 0 0 0 
0 0 0 0 0 0 0 0 0 
0 0 0 0 0 0 0 0 0 
0 0 0 0 0 0 0 0 0 
0 0 0 0 0 0 0 0 0 
0 0 0 0 0 0 0 0 0 
0 0 0 0 0 0 0 0 0 
0 0 0 0 0 0 0 0 0 
0 0 0 0 0 0 0 0 0 
0 0 0 0 0 0 0 0 0 
0 0 0 0 0 0 0 0 0 
0 0 0 0 0 0 0 0 0 
0 0 0 0 0 0 0 0 0 
0 0 0 0 0 0 0 0 0 
0 0 0 0 0 0 0 0 0 
0 0 0 0 0 0 0 0 0 
0 0 0 0 0 0 0 0 0 
0 0 0 0 0 0 0 0 0 
0 0 0 0 0 0 0 0 0 
0 0 0 0 0 0 0 0 0 
0 0 0 0 0 0 0 0 0 
0 0 0 0 0 0 0 0 0 
0 0 0 0 0 0 0 0 0 
0 0 0 0 0 0 0 0 0 
0 0 0 0 0 0 0 0 0 
0 0 0 0 0 0 0 0 0 
0 0 0 0 0 0 0 0 0 
0 0 0 0 0 0 0 0 0 
0 0 0 0 0 0 0 0 0 
0 0 0 0 0 0 0 0 0 
0 0 0 0 0 0 0 0 0 
0 0 0 0 0 0 0 0 0 
0 0 0 0 0 0 0 0 0 
0 0 0 0 0 0 0 0 0 
0 0 0 0 0 0 0 0 0 
0 0 0 0 0 0 0 0 0 
0 0 0 0 0 0 0 0 0 
0 0 0 0 0 0 0 0 0 
0 0 0 0 0 0 0 0 0 
0 0 0 0 0 0 0 0 0 
0 0 0 0 0 0 0 0 0 
0 0 0 0 0 0 0 0 0 
0 0 0 0 0 0 0 0 0 
0 0 0 0 0 0 0 0 0 
0 0 0 0 0 0 0 0 0 
0 0 0 0 0 0 0 0 0 
0 0 0 0 0 0 0 0 0 
0 0 0 0 0 0 0 0 0 
0 0 0 0 0 0 0 0 0 
0 0 0 0 0 0 0 0 0 
0 0 0 0 0 0 0 0 0 
0 0 0 0 0 0 0 0 0 
0 0 0 0 0 0 0 0 0 
0 0 0 0 0 0 0 0 0 
0 0 0 0 0 0 0 0 0 
0 0 0 0 0 0 0 0 0 
0 0 0 0 0 0 0 0 0 
0 0 0 0 0 0 0 0 0 
0 0 0 0 0 0 0 0 0 
0 0 0 0 0 0 0 0 0 
0 0 0 0 0 0 0 0 0 
0 0 0 0 0 0 0 0 0 
0 0 0 0 0 0 0 0 0 
0 0 0 0 0 0 0 0 0 
0 0 0 0 0 0 0 0 0 
0 0 0 0 0 0 0 0 0 
0 0 0 0 0 0 0 0 0 
0 0 0 0 0 0 0 0 0 
0 0 0 0 0 0 0 0 0 
0 0 0 0 0 0 0 0 0 
0 0 0 0 0 0 0 0 0 
0 0 0 0 0 0 0 0 0 
0 0 0 0 0 0 0 0 0 
0 0 0 0 0 0 0 0 0 
0 0 0 0 0 0 0 0 0 
0 0 0 0 0 0 0 0 0 
0 0 0 0 0 0 0 0 0 
0 0 0 0 0 0 0 0 0 
0 0 0 0 0 0 0 0 0 
0 0 0 0 0 0 0 0 0 
0 0 0 0 0 0 0 0 0 
0 0 0 0 0 0 0 0 0 
0 0 0 0 0 0 0 0 0 
0 0 0 0 0 0 0 0 0 
0 0 0 0 0 0 0 0 0 
0 0 0 0 0 0 0 0 0 
0 0 0 0 0 0 0 0 0 
0 0 0 0 0 0 0 0 0 
0 0 0 0 0 0 0 0 0 
0 0 0 0 0 0 0 0 0 
0 0 0 0 0 0 0 0 0 
0 0 0 0 0 0 0 0 0 
0 0 0 0 0 0 0 0 0 
0 0 0 0 0 0 0 0 0 
0 0 0 0 0 0 0 0 0 
0 0 0 0 0 0 0 0 0 
0 0 0 0 0 0 0 0 0 
0 0 0 0 0 0 0 0 0 
0 0 0 0 0 0 0 0 0 
0 0 0 0 0 0 0 0 0 
0 0 0 0 0 0 0 0 0 
0 0 0 0 0 0 0 0 0 
0 0 0 0 0 0 0 0 0 
0 0 0 0 0 0 0 0 0 
0 0 0 0 0 0 0 0 0 
0 0 0 0 0 0 0 0 0 
0 0 0 0 0 0 0 0 0 
0 0 0 0 0 0 0 0 0 
0 0 0 0 0 0 0 0 0 
0 0 0 0 0 0 0 0 0 
0 0 0 0 0 0 0 0 0 
0 0 0 0 0 0 0 0 0 
0 0 0 0 0 0 0 0 0 
0 0 0 0 0 0 0 0 0 
0 0 0 0 0 0 0 0 0 
0 0 0 0 0 0 0 0 0 
0 0 0 0 0 0 0 0 0 
0 0 0 0 0 0 0 0 0 
0 0 0 0 0 0 0 0 0 
0 0 0 0 0 0 0 0 0 
0 0 0 0 0 0 0 0 0 
0 0 0 0 0 0 0 0 0 
0 0 0 0 0 0 0 0 0 
0 0 0 0 0 0 0 0 0 
0 0 0 0 0 0 0 0 0 
0 0 0 0 0 0 0 0 0 
0 0 0 0 0 0 0 0 0 
0 0 0 0 0 0 0 0 0 
0 0 0 0 0 0 0 0 0 
0 0 0 0 0 0 0 0 0 
0 0 0 0 0 0 0 0 0 
0 0 0 0 0 0 0 0 0 
0 0 0 0 0 0 0 0 0 
0 0 0 0 0 0 0 0 0 
0 0 0 0 0 0 0 0 0 
0 0 0 0 0 0 0 0 0 
0 0 0 0 0 0 0 0 0 
0 0 0 0 0 0 0 0 0 
0 0 0 0 0 0 0 0 0 
0 0 0 0 0 0 0 0 0 
0 0 0 0 0 0 0 0 0 
0 0 0 0 0 0 0 0 0 
0 0 0 0 0 0 0 0 0 
0 0 0 0 0 0 0 0 0 
0 0 0 0 0 0 0 0 0 
0 0 0 0 0 0 0 0 0 
0 0 0 0 0 0 0 0 0 
0 0 0 0 0 0 0 0 0 
0 0 0 0 0 0 0 0 0 
0 0 0 0 0 0 0 0 0 
0 0 0 0 0 0 0 0 0 
0 0 0 0 0 0 0 0 0 
0 0 0 0 0 0 
v 3 500 double
0.611477 -0.26032 -3.9139 1.25479 0.710976 1.50291 -0.686061 -1.2753 0.156558 
-1.56641 -1.06407 1.0527 -0.258342 -0.0600496 2.60455 0.0377151 -0.137888 -4.26723 
-0.0176441 -0.0953633 -4.47004 -0.355462 0.031393 2.41781 -0.187731 0.0172905 2.2667 
1.58517 -0.213717 1.3356 0.29695 0.080429 2.36586 2.46263 -1.07641 -0.229433 
-0.960342 -0.84277 -2.08564 0.786182 -1.58752 -0.92317 -0.341783 0.060187 2.36017 
0.705888 0.0385066 -1.61787 0.204552 0.0287234 2.76688 2.11934 -1.66102 -2.61609 
-0.00615436 0.0626503 -3.10642 0.756048 -0.974369 -0.690119 -1.40166 -0.0938269 -3.48142 
0.324349 -0.178585 2.56773 0.184102 -1.36785 0.475382 0.133652 -0.652532 -1.78202 
0.0640239 0.0510804 0.0635459 0.411202 1.5684 -0.546754 1.17231 -0.47239 1.50722 
-0.41862 -1.80003 0.46852 1.19323 0.791263 -1.09519 0.706353 0.0846667 -1.25792 
0.890455 0.107324 1.70225 0.213266 -0.00461749 2.5654 0.667674 0.0166333 -1.23811 
0.434214 0.41494 0.546607 0.0528111 0.164274 -0.254012 0.9862 -0.0893466 -1.96986 
0.207079 -0.0412376 -4.4826 1.61738 1.10184 -2.26577 0.0157462 -0.465857 -0.190085 
0.0185495 0.02428 2.3856 0.0288596 0.0733939 0.00703144 -2.3342 -0.0806298 2.34478 
-0.632165 -0.462222 -4.101 0.384643 0.381269 1.48753 -0.213947 0.115414 2.86508 
0.284249 0.192088 -3.93887 -0.103155 -0.0765947 -4.0844 0.32759 0.663702 2.27352 
-0.403804 1.58059 -0.194137 0.185262 0.0140632 -4.45568 -0.403782 0.051658 3.07643 
0.0534611 0.0622661 3.23418 -0.476345 1.254 1.97395 0.0993645 0.0956903 -4.04543 
-1.20665 -1.49424 0.624855 -2.76366 -0.839267 0.421829 0.419946 -0.205533 -0.0676714 
-0.299543 -0.100675 2.78107 -0.26734 -0.689238 2.66341 0.0847484 0.0053118 -3.73843 
0.213127 -0.0748996 -4.35586 0.41006 -0.00759949 -4.04962 0.302324 0.0289082 -4.4418 
0.153816 -0.296832 -2.24918 -0.106281 -0.151717 -3.85499 0.405538 0.0912874 -4.18599 
2.33089 -1.49237 -1.23016 0.308298 0.147808 -4.52899 0.496842 -1.60394 1.42791 
-0.0992584 -0.126742 -4.18005 0.435769 -0.0943403 -3.73789 1.26812 -1.04139 -2.80223 
0.189571 -0.0267251 -3.83915 0.20887 -0.208123 -4.20995 0.992973 0.229606 -4.25033 
1.28588 -1.47019 1.70956 0.256658 -0.0121267 -3.05786 2.14881 -1.63358 -1.3185 
0.176207 -0.0477469 -4.47878 0.309094 0.195729 -4.28185 0.0647756 0.103249 -4.37682 
-1.63516 -0.337542 -1.96469 0.458156 0.0981209 -2.7309 -0.0628408 0.0643416 -3.79725 
-0.0298551 0.0547978 0.110483 0.290539 -0.00972513 -3.59858 -0.0367516 -0.0491474 -4.01378 
1.00246 -0.0438874 -2.10766 -0.207097 1.67934 -0.435402 0.221191 -0.251737 -3.9835 
0.1496 -0.080873 -3.90389 0.789598 -0.139956 -3.57706 0.173859 -0.293785 -4.74911 
-0.123772 0.107474 -4.1212 -2.34714 -1.1573 -0.33935 0.291772 -0.0242495 -3.98565 
0.307 0.200377 -2.92558 0.436219 0.0441015 -4.53947 0.154876 -0.0370172 -0.0379591 
-1.29224 0.72318 -3.13622 0.349827 0.187445 -3.72315 0.0751848 0.05515 0.0283452 
-0.0274054 -0.0511138 -3.93103 0.484739 0.00351487 -3.74025 0.201213 -0.00849927 -3.46116 
-0.218712 -0.116436 -4.12014 0.281929 0.123658 -3.98268 -1.20346 0.277607 -3.93545 
0.304914 0.101055 -3.97084 0.170349 -0.0607713 -3.01332 0.218366 -0.180511 -3.33408 
0.138646 0.0976188 -3.94574 0.409284 -0.0661793 -4.26991 0.384898 0.0969875 -3.59968 
-0.320059 0.290887 -3.85489 0.044912 0.0474999 -4.42564 -0.0646247 0.0724976 0.122594 
0.463996 0.082422 -4.15405 0.48001 0.0381606 -3.71574 0.1923 0.108998 -2.5034 
0.478881 -0.0636456 -3.37013 0.399293 0.0894973 -2.4886 0.350219 0.0419535 -4.00709 
0.516979 0.0579169 -2.62383 0.470903 0.000378274 -3.53217 0.672583 -0.335505 -2.12274 
0.0129833 -0.0258114 -0.0977817 0.450577 -0.191848 -3.78515 0.355244 -0.0952644 -3.7071 
0.207833 -0.0841428 -3.87344 0.289175 0.154834 -3.90243 0.612234 0.0479536 -3.82922 
0.267494 -0.0143162 -3.49249 -0.084694 -0.0180083 -3.25949 0.35627 0.219133 -3.19215 
0.329201 -0.14917 -2.94198 0.276271 0.0258928 -4.04993 0.346822 -0.0917385 -3.81227 
0.611306 0.0745122 -4.0232 1.1067 -0.115266 -1.84504 0.433038 -0.0635897 -3.66345 
0.717836 -0.205406 -2.8659 0.488098 0.00721483 -3.83824 0.452928 0.140538 -3.58578 
0.708392 -0.0267968 -3.44395 0.0952093 0.0906207 -3.66278 0.178812 -0.0696372 -3.2959 
0.776082 0.144105 -1.92252 0.242753 -0.0888934 -3.55335 0.402873 0.0159656 -3.29856 
0.187915 -0.0658437 -3.25054 0.324821 -0.0675016 -2.98077 0.298202 0.0137151 -3.45523 
0.422161 0.0529961 -3.46175 0.268664 0.0295659 0.0303343 0.171711 -0.0334195 -3.80683 
-0.0188235 -0.0473201 -2.90615 0.475504 -0.0218533 -3.40248 0.434135 0.0875323 -4.08427 
0.390754 0.00235296 -3.42289 0.124821 0.196518 -3.40821 0.162414 -0.222999 -3.72702 
0.326103 0.222573 -3.22396 0.205159 0.186769 -2.13929 0.196413 0.116101 -3.4271 
0.465806 -0.0549838 -2.87349 0.44498 0.00687711 -3.4296 0.423731 -0.0021919 -3.06159 
0.0989703 -0.187145 -3.26592 0.011099 0.0875899 -3.23952 0.280996 0.0584577 -3.37643 
0.00534141 0.0785755 -3.37092 0.926261 -0.141446 -1.29779 0.430853 -0.101015 -3.50558 
0.207038 -0.0442145 -3.38257 0.329141 -0.0662873 -3.25646 0.393649 -0.023606 -2.38812 
0.190033 0.0792874 -3.73144 0.151361 -0.270889 -2.75336 0.313215 0.0700824 -3.63314 
0.902573 -0.120063 -2.10944 0.403026 0.0141986 -2.96747 0.546315 0.247027 -3.33286 