# vtk DataFile Version 4.0
Generated by LIGGGHTS
ASCII
DATASET POLYDATA
POINTS 80 float
0.211997 -0.0418897 -0.101204 0.233797 -0.00537323 -0.100672 0.225405 -0.0207625 -0.0936081 
0.212484 -0.0412472 -0.0851623 0.244178 -0.0141328 -0.0854543 0.220219 -0.0259835 -0.107331 
0.217071 -0.0141746 -0.11292 0.237935 -0.0260741 -0.084089 0.233197 -0.036791 -0.10683 
0.235137 -0.0439829 -0.0891941 0.247444 -0.0109642 -0.106571 0.22456 -0.0317286 -0.0878243 
0.235339 -0.0159352 -0.0951521 0.234243 -0.0266562 -0.105443 0.245072 -0.0224928 -0.10865 
0.215353 -0.0105762 -0.0946089 0.246062 -0.0372628 -0.0951507 0.222987 -0.0414691 -0.100428 
0.213628 -0.0267565 -0.0845228 0.22784 -0.00989582 -0.0890465 0.242012 -0.0159092 -0.0657995 
0.2171 -0.021602 -0.06773 0.236562 -0.040894 -0.0557284 0.226449 -0.0195938 -0.0732279 
0.217338 -0.0317972 -0.0564679 0.237236 -0.00614079 -0.0778587 0.231238 -0.0222358 -0.0558343 
0.239156 -0.0274041 -0.0652427 0.231358 -0.035601 -0.0772028 0.214768 -0.0423944 -0.0669936 
0.230515 -0.0111698 -0.0613713 0.246952 -0.0319309 -0.0784703 0.211462 -0.0100905 -0.0640285 
0.249304 -0.0262166 -0.0558035 0.211039 -0.0149358 -0.0767074 0.219253 -0.00856383 -0.055857 
0.221744 -0.0415619 -0.0558832 0.242615 -0.00640512 -0.0605788 0.226023 -0.0309172 -0.0652787 
0.245441 -0.0428293 -0.0806129 0.210527 -0.017951 -0.0509754 0.24622 -0.013573 -0.0306427 
0.23478 -0.00909723 -0.0429998 0.220542 -0.0291391 -0.0344337 0.247597 -0.0438266 -0.0518003 
0.218042 -0.017723 -0.0330513 0.233749 -0.0371195 -0.0325686 0.248275 -0.0330271 -0.0371828 
0.214816 -0.0359974 -0.0428112 0.222542 -0.0216738 -0.0445078 0.241095 -0.0443403 -0.0306818 
0.237837 -0.0210371 -0.0321522 0.222302 -0.00598525 -0.0421963 0.224889 -0.0433207 -0.0365816 
0.24994 -0.021703 -0.0390974 0.227559 -0.0146361 -0.035711 0.210609 -0.0263875 -0.041829 
0.248222 -0.0111885 -0.051006 0.239584 -0.0272199 -0.0477666 0.215826 -0.00778715 -0.0315096 
0.233391 -0.0328834 -0.0227601 0.223454 -0.008334 -0.0172405 0.240746 -0.0107292 -0.0167877 
0.214272 -0.0260521 -0.0134169 0.220364 -0.035122 -0.0177079 0.229666 -0.0383543 -0.0129264 
0.248472 -0.0423436 -0.0156739 0.23188 -0.0209052 -0.0199158 0.249716 -0.0175616 -0.0140521 
0.243523 -0.0277584 -0.022846 0.213609 -0.0438746 -0.0143882 0.230255 -0.0110226 -0.0252065 
0.210442 -0.0110114 -0.0192714 0.210508 -0.0302166 -0.029916 0.218834 -0.0175588 -0.0101168 
0.230669 -0.028283 -0.0119096 0.218899 -0.0434846 -0.0264325 0.241486 -0.0226329 -0.0112414 
0.23214 -0.0143296 -0.0123279 0.237373 -0.0448779 -0.0194208 
VERTICES 80 160
1 0 
1 1 
1 2 
1 3 
1 4 
1 5 
1 6 
1 7 
1 8 
1 9 
1 10 
1 11 
1 12 
1 13 
1 14 
1 15 
1 16 
1 17 
1 18 
1 19 
1 20 
1 21 
1 22 
1 23 
1 24 
1 25 
1 26 
1 27 
1 28 
1 29 
1 30 
1 31 
1 32 
1 33 
1 34 
1 35 
1 36 
1 37 
1 38 
1 39 
1 40 
1 41 
1 42 
1 43 
1 44 
1 45 
1 46 
1 47 
1 48 
1 49 
1 50 
1 51 
1 52 
1 53 
1 54 
1 55 
1 56 
1 57 
1 58 
1 59 
1 60 
1 61 
1 62 
1 63 
1 64 
1 65 
1 66 
1 67 
1 68 
1 69 
1 70 
1 71 
1 72 
1 73 
1 74 
1 75 
1 76 
1 77 
1 78 
1 79 

POINT_DATA 80
FIELD FieldData 7
id 1 80 int
1 2 3 4 5 6 7 8 9 
10 11 12 13 14 15 16 17 18 
19 20 21 22 23 24 25 26 27 
28 29 30 31 32 33 34 35 36 
37 38 39 40 41 42 43 44 45 
46 47 48 49 50 51 52 53 54 
55 56 57 58 59 60 61 62 63 
64 65 66 67 68 69 70 71 72 
73 74 75 76 77 78 79 80 
type 1 80 int
1 1 1 1 1 1 1 1 1 
1 1 1 1 1 1 1 1 1 
1 1 1 1 1 1 1 1 1 
1 1 1 1 1 1 1 1 1 
1 1 1 1 1 1 1 1 1 
1 1 1 1 1 1 1 1 1 
1 1 1 1 1 1 1 1 1 
1 1 1 1 1 1 1 1 1 
1 1 1 1 1 1 1 1 
i 3 80 int
0 0 0 0 0 0 0 0 0 
0 0 0 0 0 0 0 0 0 
0 0 0 0 0 0 0 0 0 
0 0 0 0 0 0 0 0 0 
0 0 0 0 0 0 0 0 0 
0 0 0 0 0 0 0 0 0 
0 0 0 0 0 0 0 0 0 
0 0 0 0 0 0 0 0 0 
0 0 0 0 0 0 0 0 0 
0 0 0 0 0 0 0 0 0 
0 0 0 0 0 0 0 0 0 
0 0 0 0 0 0 0 0 0 
0 0 0 0 0 0 0 0 0 
0 0 0 0 0 0 0 0 0 
0 0 0 0 0 0 0 0 0 
0 0 0 0 0 0 0 0 0 
0 0 0 0 0 0 0 0 0 
0 0 0 0 0 0 0 0 0 
0 0 0 0 0 0 0 0 0 
0 0 0 0 0 0 0 0 0 
0 0 0 0 0 0 0 0 0 
0 0 0 0 0 0 0 0 0 
0 0 0 0 0 0 0 0 0 
0 0 0 0 0 0 0 0 0 
0 0 0 0 0 0 0 0 0 
0 0 0 0 0 0 0 0 0 
0 0 0 0 0 0 
v 3 80 double
0 0 -1.61043 0 0 -1.60699 0 0 -1.56334 
0 0 -1.50938 0 0 -1.51135 0 0 -1.64721 
0 0 -1.68008 0 0 -1.50252 0 0 -1.64427 
0 0 -1.53538 0 0 -1.6428 0 0 -1.52655 
0 0 -1.57315 0 0 -1.63593 0 0 -1.65506 
0 0 -1.56972 0 0 -1.57315 0 0 -1.60552 
0 0 -1.50546 0 0 -1.5344 0 0 -1.37793 
0 0 -1.39166 0 0 -1.30436 0 0 -1.42992 
0 0 -1.30975 0 0 -1.46132 0 0 -1.30485 
0 0 -1.37401 0 0 -1.4569 0 0 -1.38627 
0 0 -1.34605 0 0 -1.46524 0 0 -1.36518 
0 0 -1.30485 0 0 -1.45347 0 0 -1.30534 
0 0 -1.30534 0 0 -1.34016 0 0 -1.37401 
0 0 -1.47946 0 0 -1.26806 0 0 -1.09933 
0 0 -1.20478 0 0 -1.13268 0 0 -1.27443 
0 0 -1.12091 0 0 -1.11649 0 0 -1.15622 
0 0 -1.20331 0 0 -1.21705 0 0 -1.09982 
0 0 -1.11306 0 0 -1.19792 0 0 -1.15132 
0 0 -1.17241 0 0 -1.14396 0 0 -1.19497 
0 0 -1.26806 0 0 -1.24304 0 0 -1.10717 
0 0 -1.02673 -0 -0 -1 -0 -0 -1 
-0 -0 -1 -0 -0 -1 -0 -0 -1 
-0 -0 -1 -0 -0 -1 -0 -0 -1 
0 0 -1.02771 -0 -0 -1 0 0 -1.04979 
-0 -0 -1 0 0 -1.09295 -0 -0 -1 
-0 -0 -1 0 0 -1.06107 -0 -0 -1 
-0 -0 -1 -0 -0 -1 
f 3 80 double
0 0 -0.0128413 0 0 -0.0128413 0 0 -0.0128413 
0 0 -0.0128413 0 0 -0.0128413 0 0 -0.0128413 
0 0 -0.0128413 0 0 -0.0128413 0 0 -0.0128413 
0 0 -0.0128413 0 0 -0.0128413 0 0 -0.0128413 
0 0 -0.0128413 0 0 -0.0128413 0 0 -0.0128413 
0 0 -0.0128413 0 0 -0.0128413 0 0 -0.0128413 
0 0 -0.0128413 0 0 -0.0128413 0 0 -0.0128413 
0 0 -0.0128413 0 0 -0.0128413 0 0 -0.0128413 
0 0 -0.0128413 0 0 -0.0128413 0 0 -0.0128413 
0 0 -0.0128413 0 0 -0.0128413 0 0 -0.0128413 
0 0 -0.0128413 0 0 -0.0128413 0 0 -0.0128413 
0 0 -0.0128413 0 0 -0.0128413 0 0 -0.0128413 
0 0 -0.0128413 0 0 -0.0128413 0 0 -0.0128413 
0 0 -0.0128413 0 0 -0.0128413 0 0 -0.0128413 
0 0 -0.0128413 0 0 -0.0128413 0 0 -0.0128413 
0 0 -0.0128413 0 0 -0.0128413 0 0 -0.0128413 
0 0 -0.0128413 0 0 -0.0128413 0 0 -0.0128413 
0 0 -0.0128413 0 0 -0.0128413 0 0 -0.0128413 
0 0 -0.0128413 0 0 -0.0128413 0 0 -0.0128413 
0 0 -0.0128413 0 0 -0.0128413 0 0 -0.0128413 
0 0 -0.0128413 0 0 0 0 0 0 
0 0 0 0 0 0 0 0 0 
0 0 0 0 0 0 0 0 0 
0 0 -0.0128413 0 0 0 0 0 -0.0128413 
0 0 0 0 0 -0.0128413 0 0 0 
0 0 0 0 0 -0.0128413 0 0 0 
0 0 0 0 0 0 
radius 1 80 double
0.005 0.005 0.005 0.005 0.005 0.005 0.005 0.005 0.005 
0.005 0.005 0.005 0.005 0.005 0.005 0.005 0.005 0.005 
0.005 0.005 0.005 0.005 0.005 0.005 0.005 0.005 0.005 
0.005 0.005 0.005 0.005 0.005 0.005 0.005 0.005 0.005 
0.005 0.005 0.005 0.005 0.005 0.005 0.005 0.005 0.005 
0.005 0.005 0.005 0.005 0.005 0.005 0.005 0.005 0.005 
0.005 0.005 0.005 0.005 0.005 0.005 0.005 0.005 0.005 
0.005 0.005 0.005 0.005 0.005 0.005 0.005 0.005 0.005 
0.005 0.005 0.005 0.005 0.005 0.005 0.005 0.005 
omega 3 80 double
0 0 0 0 0 0 0 0 0 
0 0 0 0 0 0 0 0 0 
0 0 0 0 0 0 0 0 0 
0 0 0 0 0 0 0 0 0 
0 0 0 0 0 0 0 0 0 
0 0 0 0 0 0 0 0 0 
0 0 0 0 0 0 0 0 0 
0 0 0 0 0 0 0 0 0 
0 0 0 0 0 0 0 0 0 
0 0 0 0 0 0 0 0 0 
0 0 0 0 0 0 0 0 0 
0 0 0 0 0 0 0 0 0 
0 0 0 0 0 0 0 0 0 
0 0 0 0 0 0 0 0 0 
0 0 0 0 0 0 0 0 0 
0 0 0 0 0 0 0 0 0 
0 0 0 0 0 0 0 0 0 
0 0 0 0 0 0 0 0 0 
0 0 0 0 0 0 0 0 0 
0 0 0 0 0 0 0 0 0 
0 0 0 0 0 0 0 0 0 
0 0 0 0 0 0 0 0 0 
0 0 0 0 0 0 0 0 0 
0 0 0 0 0 0 0 0 0 
0 0 0 0 0 0 0 0 0 
0 0 0 0 0 0 0 0 0 
0 0 0 0 0 0 
