# vtk DataFile Version 4.0
Generated by LIGGGHTS
ASCII
DATASET POLYDATA
POINTS 500 float
0.46504 -0.0411592 -1.16542 0.475042 -0.0285519 -1.15576 0.0812019 -0.0268336 -1.19476 
0.205595 -0.0390513 -1.19372 0.1065 -0.0387825 -0.713095 0.164562 -0.014263 -1.19427 
0.0113727 -0.0394403 -0.965368 0.0874897 -0.0221131 -0.669495 0.209969 -0.0344013 -0.669691 
0.484082 -0.00503302 -1.16505 0.428176 -0.00673076 -0.711259 0.478636 -0.015797 -1.18526 
0.0755167 -0.0389756 -1.13113 0.425606 -0.00714621 -1.16967 0.0423717 -0.0123099 -0.6972 
0.450616 -0.0234836 -1.1833 0.203376 -0.0372572 -1.18027 0.494982 -0.0440333 -1.17687 
0.121165 -0.0450071 -1.18068 0.485628 -0.015323 -1.17794 0.074573 -0.0353931 -1.14541 
0.453247 -0.00664706 -1.14558 0.495001 -0.0447735 -1.195 0.129276 -0.0389702 -1.07146 
0.33915 -0.0236986 -0.531197 0.445327 -0.0439155 -1.1692 0.49504 -0.0283485 -1.18631 
0.474981 -0.0450053 -1.195 0.490594 -0.00953948 -1.14999 0.360475 -0.037234 -1.1886 
0.21 -0.0157434 -1.18567 0.475886 -0.0447035 -1.16788 0.468671 -0.0211109 -1.15356 
0.489058 -0.0239908 -1.16833 0.312333 -0.0324032 -0.382675 0.216689 -0.039575 -1.18084 
0.454887 -0.00506007 -1.19485 0.110544 -0.0194534 -1.19433 0.250893 -0.0201581 -1.17436 
0.49496 -0.00499162 -1.184 0.215299 -0.0155557 -0.245003 0.344892 -0.0420051 -0.79832 
0.133685 -0.0336285 -0.759812 0.462366 -0.0318066 -1.17243 0.203399 -0.0177806 -0.707751 
0.48449 -0.0348783 -1.19501 0.111512 -0.0139681 -1.00019 0.0380075 -0.0218893 -1.18092 
0.487324 -0.0449555 -1.18325 0.47396 -0.0301501 -1.17328 0.444795 -0.00562875 -1.19269 
0.484998 -0.0449394 -1.195 0.119706 -0.00636196 -1.17884 0.0142613 -0.0192005 -1.18281 
0.0750348 -0.0121146 -1.17148 0.0943486 -0.0192547 -1.16933 0.32227 -0.0376705 -1.08905 
0.135947 -0.031482 -0.672301 0.107202 -0.0210426 -0.955855 0.0301582 -0.0256581 -1.17085 
0.113948 -0.0347016 -1.19458 0.471689 -0.0356611 -1.19292 0.0315236 -0.0279827 -1.18926 
0.222936 -0.0413166 -1.14304 0.19062 -0.0246722 -0.757548 0.468393 -0.0134434 -1.18848 
0.492317 -0.0136823 -1.13669 0.494814 -0.036613 -1.15862 0.465145 -0.00497194 -1.1945 
0.0196553 -0.0423174 -1.16293 0.494526 -0.0337264 -1.195 0.495002 -0.0146204 -1.18132 
0.240744 -0.0358506 -1.16998 0.122928 -0.00562989 -1.19396 0.216055 -0.0252147 -1.19218 
0.311434 -0.00920647 -1.17856 0.201605 -0.0152736 -1.11171 0.494518 -0.00667512 -1.16466 
0.455482 -0.0322428 -1.18345 0.491637 -0.0449795 -1.16331 0.0138175 -0.0416415 -1.04745 
0.118031 -0.0256647 -1.10067 0.47578 -0.0157254 -1.16567 0.0120072 -0.0293095 -1.13575 
0.22239 -0.0345748 -0.245002 0.0223403 -0.0208773 -1.06993 0.14243 -0.0234174 -1.1629 
0.430023 -0.0193702 -1.16421 0.472598 -0.045165 -1.15789 0.0762238 -0.025404 -1.17893 
0.130038 -0.0114771 -1.12585 0.446091 -0.0293553 -1.14421 0.0316535 -0.0171751 -1.19072 
0.0836546 -0.0376063 -1.18277 0.0662614 -0.0392373 -1.17692 0.00863151 -0.0059379 -1.17642 
0.380587 -0.00634644 -1.19415 0.32645 -0.00674901 -1.17808 0.347422 -0.0220312 -0.539633 
0.258481 -0.0449415 -1.1882 0.275575 -0.014051 -1.15273 0.205143 -0.0436618 -0.245002 
0.145777 -0.0210239 -1.12616 0.48566 -0.0146071 -1.16751 0.418518 -0.0238692 -1.19502 
0.34987 -0.0251997 -1.01908 0.0326637 -0.041872 -1.15296 0.0281737 -0.0223485 -0.754187 
0.355469 -0.0445132 -1.18315 0.233121 -0.0422191 -1.19132 0.406225 -0.0145911 -1.18559 
0.308124 -0.0353491 -1.19227 0.494996 -0.00499312 -1.19501 0.450344 -0.0139451 -1.19471 
0.13722 -0.00622157 -0.811942 0.159659 -0.037816 -1.133 0.243484 -0.0250023 -0.262911 
0.465373 -0.00545131 -1.18327 0.478353 -0.044944 -1.17811 0.325027 -0.0315946 -1.16219 
0.456787 -0.0422243 -1.15715 0.494618 -0.024067 -1.15993 0.475067 -0.00590296 -1.19503 
0.477672 -0.00501048 -1.18542 0.484999 -0.00498872 -1.195 0.219499 -0.0179598 -1.18216 
0.205003 -0.0220124 -0.245003 0.485699 -0.035063 -1.16624 0.495021 -0.0142479 -1.19127 
0.0251404 -0.0322575 -1.1559 0.283955 -0.0116629 -1.176 0.495055 -0.0234989 -1.19502 
0.251309 -0.0191841 -1.19483 0.0890902 -0.0429098 -1.10413 0.267514 -0.0103074 -1.18031 
0.461058 -0.0199835 -1.18568 0.108064 -0.0207994 -1.0339 0.419307 -0.00668767 -1.17936 
0.480626 -0.00608281 -1.17562 0.405428 -0.0429435 -1.19225 0.471168 -0.0227246 -1.18593 
0.48502 -0.026383 -1.17738 0.485802 -0.0149417 -1.19501 0.4785 -0.0268609 -1.165 
0.485988 -0.0436824 -1.17139 0.453091 -0.0320652 -1.19401 0.104487 -0.0184796 -1.18333 
0.285448 -0.0381845 -1.18319 0.475947 -0.0165847 -1.19487 0.402623 -0.00554355 -1.19181 
0.304909 -0.00552911 -1.19324 0.465047 -0.0450134 -1.19458 0.0774458 -0.0402904 -1.17541 
0.47713 -0.0203724 -1.17617 0.332215 -0.0127741 -0.421081 0.475437 -0.026663 -1.19501 
0.167949 -0.0323002 -1.18645 0.490852 -0.00638244 -1.17484 0.0870384 -0.0102678 -1.19194 
0.48523 -0.0249055 -1.19504 0.0559552 -0.0317296 -1.18958 0.400998 -0.0222995 -1.19387 
0.202245 -0.0343163 -1.1449 0.156764 -0.00726158 -1.19438 0.193796 -0.0322711 -1.19346 
0.472061 -0.0120798 -1.17861 0.175625 -0.0373773 -1.19276 0.462244 -0.0307303 -1.1569 
0.134104 -0.00659185 -1.10222 0.0211327 -0.0378576 -1.12115 0.425838 -0.0152692 -1.19466 
0.132682 -0.00843272 -1.18349 0.481581 -0.0409194 -1.15926 0.494626 -0.0341341 -1.17806 
0.106996 -0.0346166 -1.01448 0.118835 -0.0337591 -1.16387 0.332773 -0.0204035 -1.19427 
0.49463 -0.023787 -1.17725 0.172374 -0.030559 -1.12692 0.244055 -0.0381443 -1.1939 
0.424511 -0.0208731 -1.18661 0.49495 -0.0392219 -1.18668 0.486579 -0.00985608 -1.18641 
0.0385888 -0.0335124 -1.19476 0.189395 -0.0420828 -1.12874 0.348496 -0.0311188 -1.19492 
0.0854515 -0.00504206 -1.15807 0.416422 -0.0450145 -1.18368 0.492412 -0.0406622 -1.1497 
0.307812 -0.0225642 -0.993268 0.12425 -0.0373592 -1.19509 0.445799 -0.044928 -1.19489 
0.443052 -0.0150468 -1.18672 0.0478875 -0.0219408 -1.19237 0.39118 -0.0185125 -1.18553 
0.378717 -0.0334589 -1.1943 0.460963 -0.0437794 -1.14468 0.479861 -0.0400851 -1.1878 
0.205013 -0.0122113 -0.243023 0.49501 -0.0320003 -1.16811 0.331106 -0.0119101 -1.15089 
0.186468 -0.0278701 -1.13921 0.471536 -0.0450343 -1.1854 0.481824 -0.0357671 -1.17612 
0.464255 -0.0383348 -1.18673 0.355355 -0.00631828 -1.18506 0.488794 -0.0205456 -1.18658 
0.486846 -0.0337543 -1.18452 0.139188 -0.0233548 -1.17981 0.257217 -0.0280434 -1.17194 
0.405129 -0.00591821 -1.18075 0.425721 -0.0393295 -1.18687 0.245881 -0.0444636 -1.18407 
0.347141 -0.00877574 -1.19378 0.467063 -0.0211627 -1.19499 0.357905 -0.0151911 -0.947206 
0.45545 -0.0417289 -1.1949 0.435163 -0.00530536 -1.19516 0.191037 -0.00575137 -1.18354 
0.346394 -0.0399404 -1.18995 0.482657 -0.0422617 -1.12609 0.217064 -0.0447572 -0.244281 
0.469512 -0.0387442 -1.17582 0.364339 -0.00483084 -1.17788 0.323535 -0.0248846 -1.18944 
0.37083 -0.00754211 -1.18464 0.435045 -0.00629677 -1.17551 0.392918 -0.00796833 -1.19224 
0.447903 -0.037986 -1.18775 0.208178 -0.0176619 -1.15554 0.285189 -0.0174701 -1.18568 
0.21147 -0.0215216 -1.09195 0.120447 -0.0158712 -1.19371 0.179545 -0.0254098 -1.18808 
0.258346 -0.0362402 -1.19441 0.494798 -0.0155041 -1.17138 0.473401 -0.0356963 -1.16396 
0.236286 -0.00862058 -1.18699 0.127421 -0.0362671 -1.18586 0.377557 -0.0425982 -1.18375 
0.227541 -0.00559881 -1.19481 0.387369 -0.0158302 -1.195 0.468551 -0.0372625 -1.15456 
0.275092 -0.042932 -1.18525 0.477157 -0.0220905 -1.1442 0.344355 -0.0100213 -1.18227 
0.480532 -0.026202 -1.18634 0.111791 -0.0298947 -1.18403 0.317549 -0.0426109 -1.18431 
0.460356 -0.0136882 -1.19498 0.227469 -0.0050139 -0.245002 0.32897 -0.0444332 -1.19483 
0.370292 -0.0115737 -1.19377 0.45319 -0.0136972 -1.18492 0.467234 -0.0218748 -1.17519 
0.45488 -0.0450644 -1.16631 0.470607 -0.0371303 -1.14497 0.3716 -0.0228455 -1.19455 
0.445337 -0.022571 -1.19497 0.217197 -0.0258286 -0.245003 0.358317 -0.0291034 -1.19462 
0.379599 -0.0434356 -1.19494 0.239894 -0.0063091 -1.09335 0.32272 -0.0137435 -1.19484 
0.211118 -0.0290855 -1.16917 0.465126 -0.029608 -1.18191 0.252449 -0.0410606 -0.278907 
0.440224 -0.032541 -1.1853 0.485417 -0.0198685 -1.15854 0.394795 -0.00997346 -1.17965 
0.454665 -0.00549205 -1.17928 0.372661 -0.0378351 -1.11809 0.336408 -0.00506853 -1.19451 
0.420989 -0.0338043 -1.19483 0.456638 -0.044629 -1.18513 0.415335 -0.0449998 -1.19502 
0.408411 -0.0153386 -1.19524 0.166401 -0.038691 -1.10065 0.463072 -0.0304895 -1.19456 
0.417199 -0.0141426 -1.18893 0.439393 -0.0437208 -1.18482 0.473228 -0.00605299 -1.16105 
0.366504 -0.029092 -1.1884 0.270047 -0.0375312 -1.1556 0.340474 -0.0189156 -0.831052 
0.437789 -0.0374392 -1.14284 0.441546 -0.0327075 -1.19509 0.460777 -0.0138583 -1.17767 
0.286796 -0.0351298 -1.15729 0.455707 -0.0224626 -1.19448 0.25038 -0.0299065 -1.18477 
0.356605 -0.0445226 -1.19495 0.47434 -0.0334349 -1.18275 0.2588 -0.0150206 -1.18877 
0.395151 -0.0350558 -1.19486 0.429116 -0.0257266 -1.19486 0.268493 -0.0442405 -1.19334 
0.414595 -0.00609419 -1.19482 0.447783 -0.011965 -1.1605 0.195267 -0.0372245 -1.00616 
0.318309 -0.0332981 -1.19433 0.238681 -0.0168219 -1.17901 0.437423 -0.0236936 -1.18827 
0.448255 -0.0329331 -1.15856 0.36144 -0.0246764 -1.17902 0.411172 -0.0336948 -1.19474 
0.374485 -0.0206428 -1.18032 0.43 -0.0300343 -1.18345 0.452668 -0.0342925 -1.16752 
0.435623 -0.0449552 -1.19413 0.470764 -0.00502073 -1.17139 0.25762 -0.0137457 -0.287893 
0.405112 -0.0237074 -0.998676 0.458847 -0.00782682 -1.1699 0.331669 -0.0110338 -1.18812 
0.35911 -0.0105762 -1.19379 0.356741 -0.025582 -1.15813 0.429599 -0.0154577 -1.17933 
0.455451 -0.0396631 -1.17611 0.349081 -0.0283114 -1.17715 0.433582 -0.00734669 -1.1856 
0.303475 -0.0260731 -1.19349 0.293364 -0.00905994 -1.19278 0.301363 -0.0324792 -1.18252 
0.434954 -0.0330377 -1.17463 0.424812 -0.0193823 -1.05409 0.355443 -0.00813284 -0.484063 
0.336719 -0.0177217 -1.18212 0.435783 -0.0167618 -1.19507 0.411187 -0.0246465 -1.1883 
0.374646 -0.00905475 -0.678051 0.39689 -0.0271862 -1.18592 0.425187 -0.00508802 -1.19494 
0.288587 -0.0210406 -1.1653 0.312058 -0.0296134 -1.17924 0.33944 -0.04296 -1.0387 
0.494619 -0.0305492 -1.14264 0.395161 -0.04498 -1.19376 0.389592 -0.0260499 -1.19274 
0.363363 -0.0316097 -1.16707 0.314422 -0.0138836 -1.1883 0.299658 -0.0161548 -1.18938 
0.448141 -0.0449532 -1.18011 0.432075 -0.0353715 -1.19373 0.337682 -0.0217382 -1.13819 
0.211677 -0.00500408 -0.245002 0.342223 -0.0407246 -1.17956 0.368051 -0.00925293 -0.748095 
0.456642 -0.0233843 -1.16234 0.356383 -0.0167719 -1.02137 0.374578 -0.0308883 -1.18151 
0.367506 -0.0363468 -1.17552 0.297073 -0.0408988 -1.17991 0.40969 -0.00498291 -1.17202 
0.419649 -0.0179025 -1.17445 0.384069 -0.00533226 -1.16943 0.235403 -0.0443142 -0.248502 
0.445236 -0.0229582 -1.16536 0.335442 -0.0362997 -1.18655 0.425549 -0.0448026 -1.195 
0.379658 -0.0101082 -1.1778 0.405733 -0.0308848 -1.18236 0.466419 -0.014211 -1.16886 
0.434768 -0.0142546 -1.06265 0.338064 -0.0246629 -1.17476 0.407916 -0.0219416 -1.17599 
0.415857 -0.0345573 -1.18605 0.384938 -0.0438822 -1.01801 0.419106 -0.0275043 -1.16736 
0.439304 -0.0103729 -1.16541 0.392374 -0.043642 -0.935986 0.396255 -0.0345021 -1.17951 
0.385534 -0.0359741 -1.17414 0.363122 -0.0151579 -1.18335 0.43159 -0.0432355 -1.1774 
0.318809 -0.0107844 -1.17139 0.444634 -0.00967641 -1.17811 0.405477 -0.0442115 -1.18258 
0.420046 -0.0357202 -1.17399 0.367591 -0.0178244 -1.17013 0.37711 -0.0148464 -1.1016 
0.379506 -0.0130474 -1.08107 0.403576 -0.0163816 -1.15748 0.422037 -0.0424085 -1.16565 
0.340416 -0.0270112 -1.1907 0.326749 -0.0136002 -0.896363 0.414129 -0.0446577 -1.17226 
0.394672 -0.0237454 -1.17412 0.244266 -0.00579774 -0.250526 0.404363 -0.0372864 -1.17462 
0.419396 -0.0128564 -1.16156 0.389597 -0.0367151 -1.1868 0.411235 -0.041028 -1.16355 
0.355275 -0.020528 -1.04499 0.444263 -0.0189576 -1.1748 0.42185 -0.00568179 -1.13206 
0.379918 -0.0181392 -1.18849 0.485951 -0.0245367 -1.14941 0.373611 -0.0137181 -1.11102 
0.20531 -0.0328094 -0.24485 0.461267 -0.0155818 -1.11346 0.41567 -0.0366517 -1.00988 
0.46486 -0.00878331 -1.15515 0.423288 -0.0265786 -0.991927 0.356149 -0.0381411 -1.17102 
0.443375 -0.0435061 -1.15925 0.315734 -0.0330289 -1.09944 0.357048 -0.011288 -1.17782 
0.36019 -0.0417804 -0.554213 0.310779 -0.0295858 -1.0414 0.331278 -0.00992137 -0.560808 
0.380122 -0.0135209 -0.997311 0.407216 -0.0052037 -1.11862 0.409884 -0.0323992 -1.11887 
0.430902 -0.0440086 -1.14951 0.486209 -0.00735866 -1.04254 0.375463 -0.0449157 -1.12977 
0.432909 -0.0349187 -1.15727 0.281204 -0.0421933 -0.327347 0.37178 -0.0354454 -0.751344 
0.276332 -0.0371772 -1.00413 0.390889 -0.0292708 -0.898938 0.49202 -0.0191947 -1.07174 
0.377685 -0.0269996 -1.17175 0.409547 -0.0426552 -0.910752 0.465865 -0.0303441 -1.09711 
0.327612 -0.0421659 -1.04236 0.392952 -0.0307422 -0.977323 0.329861 -0.0264408 -0.401383 
0.365381 -0.0421237 -1.00529 0.395478 -0.0429449 -0.852107 0.408762 -0.0230142 -1.04662 
0.400892 -0.0253727 -0.898874 0.451064 -0.0095566 -0.904855 0.37921 -0.0284193 -0.947243 
0.35162 -0.0379764 -0.996889 0.243049 -0.0331646 -0.256997 0.235767 -0.0124724 -0.242903 
0.403776 -0.0292444 -1.13906 0.364003 -0.0168518 -0.74075 0.35446 -0.0186664 -0.87564 
0.414556 -0.0408862 -0.901988 0.404862 -0.0345346 -0.966301 0.40967 -0.00634664 -1.02938 
0.395758 -0.0119535 -1.10556 0.262897 -0.00802316 -0.296985 0.364077 -0.0416274 -0.991027 
0.384809 -0.00690878 -0.933179 0.359466 -0.0403414 -0.92857 0.351871 -0.0189411 -0.905212 
0.446919 -0.0247065 -1.09057 0.407122 -0.0267112 -0.981229 0.352182 -0.0131746 -0.567181 
0.348974 -0.0334296 -0.941735 0.363047 -0.0185565 -0.521431 0.437475 -0.0169922 -1.10793 
0.376843 -0.0215845 -1.01888 0.379312 -0.00597883 -0.689112 0.387437 -0.0418233 -0.840169 
0.358424 -0.034282 -0.500801 0.414344 -0.036395 -0.952465 0.379469 -0.0447341 -0.913775 
0.303356 -0.0285661 -0.872282 0.339557 -0.0229553 -0.814801 0.210503 -0.0258261 -0.237574 
0.352343 -0.0198895 -0.469254 0.349084 -0.0104786 -0.545511 0.350955 -0.0385226 -0.78929 
0.267965 -0.0252506 -0.836346 0.398935 -0.0292439 -0.805289 0.219571 -0.00819178 -0.239757 
0.346918 -0.010896 -0.789669 0.306243 -0.00822451 -0.372154 0.384145 -0.0403046 -0.901441 
0.381171 -0.0404373 -0.881789 0.413321 -0.00813825 -0.990721 0.344933 -0.0403784 -0.902611 
0.384297 -0.0146042 -0.808557 0.231729 -0.026469 -0.241805 0.34468 -0.0321148 -0.531069 
0.331199 -0.0383343 -0.424114 0.301286 -0.033954 -0.797394 0.350019 -0.031327 -0.517528 
0.349761 -0.0309493 -0.476245 0.378934 -0.0202681 -0.79982 0.309246 -0.037402 -0.675608 
0.331764 -0.0227756 -0.965532 0.306691 -0.0124036 -0.656048 0.342851 -0.0130733 -0.458296 
0.385248 -0.0395869 -0.708022 0.285513 -0.0150364 -0.329361 0.33012 -0.0366514 -0.794764 
0.316448 -0.0172859 -0.38942 0.31793 -0.0393758 -0.628553 0.25124 -0.0442271 -0.267784 
0.31209 -0.0150026 -0.901787 0.390173 -0.0267436 -0.724508 0.386777 -0.00528155 -0.890924 
0.369954 -0.0258244 -0.865975 0.402802 -0.0333573 -0.859804 
VERTICES 500 1000
1 0 
1 1 
1 2 
1 3 
1 4 
1 5 
1 6 
1 7 
1 8 
1 9 
1 10 
1 11 
1 12 
1 13 
1 14 
1 15 
1 16 
1 17 
1 18 
1 19 
1 20 
1 21 
1 22 
1 23 
1 24 
1 25 
1 26 
1 27 
1 28 
1 29 
1 30 
1 31 
1 32 
1 33 
1 34 
1 35 
1 36 
1 37 
1 38 
1 39 
1 40 
1 41 
1 42 
1 43 
1 44 
1 45 
1 46 
1 47 
1 48 
1 49 
1 50 
1 51 
1 52 
1 53 
1 54 
1 55 
1 56 
1 57 
1 58 
1 59 
1 60 
1 61 
1 62 
1 63 
1 64 
1 65 
1 66 
1 67 
1 68 
1 69 
1 70 
1 71 
1 72 
1 73 
1 74 
1 75 
1 76 
1 77 
1 78 
1 79 
1 80 
1 81 
1 82 
1 83 
1 84 
1 85 
1 86 
1 87 
1 88 
1 89 
1 90 
1 91 
1 92 
1 93 
1 94 
1 95 
1 96 
1 97 
1 98 
1 99 
1 100 
1 101 
1 102 
1 103 
1 104 
1 105 
1 106 
1 107 
1 108 
1 109 
1 110 
1 111 
1 112 
1 113 
1 114 
1 115 
1 116 
1 117 
1 118 
1 119 
1 120 
1 121 
1 122 
1 123 
1 124 
1 125 
1 126 
1 127 
1 128 
1 129 
1 130 
1 131 
1 132 
1 133 
1 134 
1 135 
1 136 
1 137 
1 138 
1 139 
1 140 
1 141 
1 142 
1 143 
1 144 
1 145 
1 146 
1 147 
1 148 
1 149 
1 150 
1 151 
1 152 
1 153 
1 154 
1 155 
1 156 
1 157 
1 158 
1 159 
1 160 
1 161 
1 162 
1 163 
1 164 
1 165 
1 166 
1 167 
1 168 
1 169 
1 170 
1 171 
1 172 
1 173 
1 174 
1 175 
1 176 
1 177 
1 178 
1 179 
1 180 
1 181 
1 182 
1 183 
1 184 
1 185 
1 186 
1 187 
1 188 
1 189 
1 190 
1 191 
1 192 
1 193 
1 194 
1 195 
1 196 
1 197 
1 198 
1 199 
1 200 
1 201 
1 202 
1 203 
1 204 
1 205 
1 206 
1 207 
1 208 
1 209 
1 210 
1 211 
1 212 
1 213 
1 214 
1 215 
1 216 
1 217 
1 218 
1 219 
1 220 
1 221 
1 222 
1 223 
1 224 
1 225 
1 226 
1 227 
1 228 
1 229 
1 230 
1 231 
1 232 
1 233 
1 234 
1 235 
1 236 
1 237 
1 238 
1 239 
1 240 
1 241 
1 242 
1 243 
1 244 
1 245 
1 246 
1 247 
1 248 
1 249 
1 250 
1 251 
1 252 
1 253 
1 254 
1 255 
1 256 
1 257 
1 258 
1 259 
1 260 
1 261 
1 262 
1 263 
1 264 
1 265 
1 266 
1 267 
1 268 
1 269 
1 270 
1 271 
1 272 
1 273 
1 274 
1 275 
1 276 
1 277 
1 278 
1 279 
1 280 
1 281 
1 282 
1 283 
1 284 
1 285 
1 286 
1 287 
1 288 
1 289 
1 290 
1 291 
1 292 
1 293 
1 294 
1 295 
1 296 
1 297 
1 298 
1 299 
1 300 
1 301 
1 302 
1 303 
1 304 
1 305 
1 306 
1 307 
1 308 
1 309 
1 310 
1 311 
1 312 
1 313 
1 314 
1 315 
1 316 
1 317 
1 318 
1 319 
1 320 
1 321 
1 322 
1 323 
1 324 
1 325 
1 326 
1 327 
1 328 
1 329 
1 330 
1 331 
1 332 
1 333 
1 334 
1 335 
1 336 
1 337 
1 338 
1 339 
1 340 
1 341 
1 342 
1 343 
1 344 
1 345 
1 346 
1 347 
1 348 
1 349 
1 350 
1 351 
1 352 
1 353 
1 354 
1 355 
1 356 
1 357 
1 358 
1 359 
1 360 
1 361 
1 362 
1 363 
1 364 
1 365 
1 366 
1 367 
1 368 
1 369 
1 370 
1 371 
1 372 
1 373 
1 374 
1 375 
1 376 
1 377 
1 378 
1 379 
1 380 
1 381 
1 382 
1 383 
1 384 
1 385 
1 386 
1 387 
1 388 
1 389 
1 390 
1 391 
1 392 
1 393 
1 394 
1 395 
1 396 
1 397 
1 398 
1 399 
1 400 
1 401 
1 402 
1 403 
1 404 
1 405 
1 406 
1 407 
1 408 
1 409 
1 410 
1 411 
1 412 
1 413 
1 414 
1 415 
1 416 
1 417 
1 418 
1 419 
1 420 
1 421 
1 422 
1 423 
1 424 
1 425 
1 426 
1 427 
1 428 
1 429 
1 430 
1 431 
1 432 
1 433 
1 434 
1 435 
1 436 
1 437 
1 438 
1 439 
1 440 
1 441 
1 442 
1 443 
1 444 
1 445 
1 446 
1 447 
1 448 
1 449 
1 450 
1 451 
1 452 
1 453 
1 454 
1 455 
1 456 
1 457 
1 458 
1 459 
1 460 
1 461 
1 462 
1 463 
1 464 
1 465 
1 466 
1 467 
1 468 
1 469 
1 470 
1 471 
1 472 
1 473 
1 474 
1 475 
1 476 
1 477 
1 478 
1 479 
1 480 
1 481 
1 482 
1 483 
1 484 
1 485 
1 486 
1 487 
1 488 
1 489 
1 490 
1 491 
1 492 
1 493 
1 494 
1 495 
1 496 
1 497 
1 498 
1 499 

POINT_DATA 500
FIELD FieldData 7
id 1 500 int
1 2 3 4 5 6 7 8 9 
10 11 12 13 14 15 16 17 18 
19 20 21 22 23 24 25 26 27 
28 29 30 31 32 33 34 35 36 
37 38 39 40 41 42 43 44 45 
46 47 48 49 50 51 52 53 54 
55 56 57 58 59 60 61 62 63 
64 65 66 67 68 69 70 71 72 
73 74 75 76 77 78 79 80 81 
82 83 84 85 86 87 88 89 90 
91 92 93 94 95 96 97 98 99 
100 101 102 103 104 105 106 107 108 
109 110 111 112 113 114 115 116 117 
118 119 120 121 122 123 124 125 126 
127 128 129 130 131 132 133 134 135 
136 137 138 139 140 141 142 143 144 
145 146 147 148 149 150 151 152 153 
154 155 156 157 158 159 160 161 162 
163 164 165 166 167 168 169 170 171 
172 173 174 175 176 177 178 179 180 
181 182 183 184 185 186 187 188 189 
190 191 192 193 194 195 196 197 198 
199 200 201 202 203 204 205 206 207 
208 209 210 211 212 213 214 215 216 
217 218 219 220 221 222 223 224 225 
226 227 228 229 230 231 232 233 234 
235 236 237 238 239 240 241 242 243 
244 245 246 247 248 249 250 251 252 
253 254 255 256 257 258 259 260 261 
262 263 264 265 266 267 268 269 270 
271 272 273 274 275 276 277 278 279 
280 281 282 283 284 285 286 287 288 
289 290 291 292 293 294 295 296 297 
298 299 300 301 302 303 304 305 306 
307 308 309 310 311 312 313 314 315 
316 317 318 319 320 321 322 323 324 
325 326 327 328 329 330 331 332 333 
334 335 336 337 338 339 340 341 342 
343 344 345 346 347 348 349 350 351 
352 353 354 355 356 357 358 359 360 
361 362 363 364 365 366 367 368 369 
370 371 372 373 374 375 376 377 378 
379 380 381 382 383 384 385 386 387 
388 389 390 391 392 393 394 395 396 
397 398 399 400 401 402 403 404 405 
406 407 408 409 410 411 412 413 414 
415 416 417 418 419 420 421 422 423 
424 425 426 427 428 429 430 431 432 
433 434 435 436 437 438 439 440 441 
442 443 444 445 446 447 448 449 450 
451 452 453 454 455 456 457 458 459 
460 461 462 463 464 465 466 467 468 
469 470 471 472 473 474 475 476 477 
478 479 480 481 482 483 484 485 486 
487 488 489 490 491 492 493 494 495 
496 497 498 499 500 
type 1 500 int
1 1 1 1 1 1 1 1 1 
1 1 1 1 1 1 1 1 1 
1 1 1 1 1 1 1 1 1 
1 1 1 1 1 1 1 1 1 
1 1 1 1 1 1 1 1 1 
1 1 1 1 1 1 1 1 1 
1 1 1 1 1 1 1 1 1 
1 1 1 1 1 1 1 1 1 
1 1 1 1 1 1 1 1 1 
1 1 1 1 1 1 1 1 1 
1 1 1 1 1 1 1 1 1 
1 1 1 1 1 1 1 1 1 
1 1 1 1 1 1 1 1 1 
1 1 1 1 1 1 1 1 1 
1 1 1 1 1 1 1 1 1 
1 1 1 1 1 1 1 1 1 
1 1 1 1 1 1 1 1 1 
1 1 1 1 1 1 1 1 1 
1 1 1 1 1 1 1 1 1 
1 1 1 1 1 1 1 1 1 
1 1 1 1 1 1 1 1 1 
1 1 1 1 1 1 1 1 1 
1 1 1 1 1 1 1 1 1 
1 1 1 1 1 1 1 1 1 
1 1 1 1 1 1 1 1 1 
1 1 1 1 1 1 1 1 1 
1 1 1 1 1 1 1 1 1 
1 1 1 1 1 1 1 1 1 
1 1 1 1 1 1 1 1 1 
1 1 1 1 1 1 1 1 1 
1 1 1 1 1 1 1 1 1 
1 1 1 1 1 1 1 1 1 
1 1 1 1 1 1 1 1 1 
1 1 1 1 1 1 1 1 1 
1 1 1 1 1 1 1 1 1 
1 1 1 1 1 1 1 1 1 
1 1 1 1 1 1 1 1 1 
1 1 1 1 1 1 1 1 1 
1 1 1 1 1 1 1 1 1 
1 1 1 1 1 1 1 1 1 
1 1 1 1 1 1 1 1 1 
1 1 1 1 1 1 1 1 1 
1 1 1 1 1 1 1 1 1 
1 1 1 1 1 1 1 1 1 
1 1 1 1 1 1 1 1 1 
1 1 1 1 1 1 1 1 1 
1 1 1 1 1 1 1 1 1 
1 1 1 1 1 1 1 1 1 
1 1 1 1 1 1 1 1 1 
1 1 1 1 1 1 1 1 1 
1 1 1 1 1 1 1 1 1 
1 1 1 1 1 1 1 1 1 
1 1 1 1 1 1 1 1 1 
1 1 1 1 1 1 1 1 1 
1 1 1 1 1 1 1 1 1 
1 1 1 1 1 
i 3 500 int
0 0 0 0 0 0 0 0 0 
0 0 0 0 0 0 0 0 0 
0 0 0 0 0 0 0 0 0 
0 0 0 0 0 0 0 0 0 
0 0 0 0 0 0 0 0 0 
0 0 0 0 0 0 0 0 0 
0 0 0 0 0 0 0 0 0 
0 0 0 0 0 0 0 0 0 
0 0 0 0 0 0 0 0 0 
0 0 0 0 0 0 0 0 0 
0 0 0 0 0 0 0 0 0 
0 0 0 0 0 0 0 0 0 
0 0 0 0 0 0 0 0 0 
0 0 0 0 0 0 0 0 0 
0 0 0 0 0 0 0 0 0 
0 0 0 0 0 0 0 0 0 
0 0 0 0 0 0 0 0 0 
0 0 0 0 0 0 0 0 0 
0 0 0 0 0 0 0 0 0 
0 0 0 0 0 0 0 0 0 
0 0 0 0 0 0 0 0 0 
0 0 0 0 0 0 0 0 0 
0 0 0 0 0 0 0 0 0 
0 0 0 0 0 0 0 0 0 
0 0 0 0 0 0 0 0 0 
0 0 0 0 0 0 0 0 0 
0 0 0 0 0 0 0 0 0 
0 0 0 0 0 0 0 0 0 
0 0 0 0 0 0 0 0 0 
0 0 0 0 0 0 0 0 0 
0 0 0 0 0 0 0 0 0 
0 0 0 0 0 0 0 0 0 
0 0 0 0 0 0 0 0 0 
0 0 0 0 0 0 0 0 0 
0 0 0 0 0 0 0 0 0 
0 0 0 0 0 0 0 0 0 
0 0 0 0 0 0 0 0 0 
0 0 0 0 0 0 0 0 0 
0 0 0 0 0 0 0 0 0 
0 0 0 0 0 0 0 0 0 
0 0 0 0 0 0 0 0 0 
0 0 0 0 0 0 0 0 0 
0 0 0 0 0 0 0 0 0 
0 0 0 0 0 0 0 0 0 
0 0 0 0 0 0 0 0 0 
0 0 0 0 0 0 0 0 0 
0 0 0 0 0 0 0 0 0 
0 0 0 0 0 0 0 0 0 
0 0 0 0 0 0 0 0 0 
0 0 0 0 0 0 0 0 0 
0 0 0 0 0 0 0 0 0 
0 0 0 0 0 0 0 0 0 
0 0 0 0 0 0 0 0 0 
0 0 0 0 0 0 0 0 0 
0 0 0 0 0 0 0 0 0 
0 0 0 0 0 0 0 0 0 
0 0 0 0 0 0 0 0 0 
0 0 0 0 0 0 0 0 0 
0 0 0 0 0 0 0 0 0 
0 0 0 0 0 0 0 0 0 
0 0 0 0 0 0 0 0 0 
0 0 0 0 0 0 0 0 0 
0 0 0 0 0 0 0 0 0 
0 0 0 0 0 0 0 0 0 
0 0 0 0 0 0 0 0 0 
0 0 0 0 0 0 0 0 0 
0 0 0 0 0 0 0 0 0 
0 0 0 0 0 0 0 0 0 
0 0 0 0 0 0 0 0 0 
0 0 0 0 0 0 0 0 0 
0 0 0 0 0 0 0 0 0 
0 0 0 0 0 0 0 0 0 
0 0 0 0 0 0 0 0 0 
0 0 0 0 0 0 0 0 0 
0 0 0 0 0 0 0 0 0 
0 0 0 0 0 0 0 0 0 
0 0 0 0 0 0 0 0 0 
0 0 0 0 0 0 0 0 0 
0 0 0 0 0 0 0 0 0 
0 0 0 0 0 0 0 0 0 
0 0 0 0 0 0 0 0 0 
0 0 0 0 0 0 0 0 0 
0 0 0 0 0 0 0 0 0 
0 0 0 0 0 0 0 0 0 
0 0 0 0 0 0 0 0 0 
0 0 0 0 0 0 0 0 0 
0 0 0 0 0 0 0 0 0 
0 0 0 0 0 0 0 0 0 
0 0 0 0 0 0 0 0 0 
0 0 0 0 0 0 0 0 0 
0 0 0 0 0 0 0 0 0 
0 0 0 0 0 0 0 0 0 
0 0 0 0 0 0 0 0 0 
0 0 0 0 0 0 0 0 0 
0 0 0 0 0 0 0 0 0 
0 0 0 0 0 0 0 0 0 
0 0 0 0 0 0 0 0 0 
0 0 0 0 0 0 0 0 0 
0 0 0 0 0 0 0 0 0 
0 0 0 0 0 0 0 0 0 
0 0 0 0 0 0 0 0 0 
0 0 0 0 0 0 0 0 0 
0 0 0 0 0 0 0 0 0 
0 0 0 0 0 0 0 0 0 
0 0 0 0 0 0 0 0 0 
0 0 0 0 0 0 0 0 0 
0 0 0 0 0 0 0 0 0 
0 0 0 0 0 0 0 0 0 
0 0 0 0 0 0 0 0 0 
0 0 0 0 0 0 0 0 0 
0 0 0 0 0 0 0 0 0 
0 0 0 0 0 0 0 0 0 
0 0 0 0 0 0 0 0 0 
0 0 0 0 0 0 0 0 0 
0 0 0 0 0 0 0 0 0 
0 0 0 0 0 0 0 0 0 
0 0 0 0 0 0 0 0 0 
0 0 0 0 0 0 0 0 0 
0 0 0 0 0 0 0 0 0 
0 0 0 0 0 0 0 0 0 
0 0 0 0 0 0 0 0 0 
0 0 0 0 0 0 0 0 0 
0 0 0 0 0 0 0 0 0 
0 0 0 0 0 0 0 0 0 
0 0 0 0 0 0 0 0 0 
0 0 0 0 0 0 0 0 0 
0 0 0 0 0 0 0 0 0 
0 0 0 0 0 0 0 0 0 
0 0 0 0 0 0 0 0 0 
0 0 0 0 0 0 0 0 0 
0 0 0 0 0 0 0 0 0 
0 0 0 0 0 0 0 0 0 
0 0 0 0 0 0 0 0 0 
0 0 0 0 0 0 0 0 0 
0 0 0 0 0 0 0 0 0 
0 0 0 0 0 0 0 0 0 
0 0 0 0 0 0 0 0 0 
0 0 0 0 0 0 0 0 0 
0 0 0 0 0 0 0 0 0 
0 0 0 0 0 0 0 0 0 
0 0 0 0 0 0 0 0 0 
0 0 0 0 0 0 0 0 0 
0 0 0 0 0 0 0 0 0 
0 0 0 0 0 0 0 0 0 
0 0 0 0 0 0 0 0 0 
0 0 0 0 0 0 0 0 0 
0 0 0 0 0 0 0 0 0 
0 0 0 0 0 0 0 0 0 
0 0 0 0 0 0 0 0 0 
0 0 0 0 0 0 0 0 0 
0 0 0 0 0 0 0 0 0 
0 0 0 0 0 0 0 0 0 
0 0 0 0 0 0 0 0 0 
0 0 0 0 0 0 0 0 0 
0 0 0 0 0 0 0 0 0 
0 0 0 0 0 0 0 0 0 
0 0 0 0 0 0 0 0 0 
0 0 0 0 0 0 0 0 0 
0 0 0 0 0 0 0 0 0 
0 0 0 0 0 0 0 0 0 
0 0 0 0 0 0 0 0 0 
0 0 0 0 0 0 0 0 0 
0 0 0 0 0 0 0 0 0 
0 0 0 0 0 0 0 0 0 
0 0 0 0 0 0 0 0 0 
0 0 0 0 0 0 0 0 0 
0 0 0 0 0 0 
v 3 500 double
0.0145419 0.110013 0.0846548 -0.295519 -0.0253676 0.00598025 -1.89434 -0.0493943 0.0116593 
-1.32272 -0.398331 0.0109089 -0.258342 -0.0600496 -0.779901 -1.62858 0.0619656 0.291854 
-0.976314 -0.29078 -0.98372 -0.355462 0.031393 -0.966639 -0.187731 0.0172905 -1.11775 
-0.0770994 -0.0282777 0.0591883 -0.203239 0.0811737 -1.04434 0.0135359 -0.00747633 0.0218454 
-0.642547 -0.448867 0.0208774 1.13283 1.03037 -0.33729 -0.341783 0.060187 -1.02428 
-0.279545 0.0252699 0.168657 -1.91004 -0.440707 0.776212 0.00360233 0.0930643 0.0606969 
-0.974003 -0.223536 -0.0289718 -0.0390548 0.065449 0.0441794 -0.454747 0.404092 -0.729833 
-0.343967 -0.013033 0.424514 -0.0200046 0.0280563 -0.000159924 0.113989 0.36284 -0.960263 
0.0828213 0.0260083 -2.35271 0.094478 -0.21266 -0.339682 0.0603099 -0.0101725 -0.0783901 
0.0367787 -0.00596351 0.0156753 0.344115 0.0127849 0.169392 -0.588994 0.106297 -0.0569875 
-1.32742 -0.00207902 -0.388857 -0.0690738 0.0413134 0.107908 -0.0809877 -0.740088 0.14826 
0.130675 0.0629808 -0.221289 0.836959 -0.121309 -1.48639 -1.59963 -0.192855 0.495882 
-0.0884071 0.00495959 0.0810277 -1.19547 -0.0839173 -0.272801 -0.98856 -0.326898 -0.15848 
-0.00554806 -0.00657196 -0.0937215 -0.000357663 -0.0353649 0.00160034 0.691121 0.16501 -0.39224 
-0.482997 -0.16549 -0.279993 0.0580943 -0.412869 0.0588612 -0.211853 -0.0811797 -0.529242 
-0.00115173 -0.0341 0.00185449 -0.837951 -0.168482 -0.870193 -0.550046 -0.480916 -0.00871843 
0.0296006 0.0109357 0.0571768 -0.0406089 0.0201697 0.123693 -0.14774 0.0548477 0.092436 
-0.0423097 0.0102189 -0.00248641 -0.864075 0.0469894 -0.180696 -0.211511 -0.453682 -0.34091 
-0.222509 -0.581438 0.584799 0.0459564 0.203524 0.111561 -0.0283925 -0.170824 -4.29859 
-0.296479 0.0707144 -0.611537 -0.678784 0.0994551 -1.03514 -0.251854 -0.00730869 0.339617 
-1.06318 0.204843 -0.174654 0.10956 0.0434716 0.00699937 -1.11519 -0.623081 0.275792 
-1.08238 0.067479 0.102578 -0.43644 0.238882 0.221158 -0.0704213 0.0617445 0.102697 
-0.094774 -0.293032 0.682069 0.178113 -0.0960842 0.157535 0.0442812 -0.0196767 0.021961 
-0.759127 0.345565 0.153407 -0.0256489 -0.0144287 -0.0104312 -0.0413811 0.00518885 -0.0161922 
-0.0836236 0.281052 -0.507662 -1.18681 -0.225121 -0.0342763 -2.56085 -0.523075 0.0134689 
-1.10149 -0.0775367 0.271893 -1.51976 0.124488 -0.113457 -0.038852 -0.0744009 0.171127 
-0.0791309 0.113479 0.171463 -0.119133 0.100378 0.0275608 0.794476 0.210691 -0.901315 
0.0301699 -0.498986 -1.42995 -0.0537572 -0.000899326 0.17684 -0.370384 0.0788722 0.173772 
0.11165 -0.029479 -0.000220545 -0.397687 0.727667 0.273032 -1.19477 -0.415435 -0.427222 
0.421997 -0.498136 0.12114 0.108724 -0.474795 -0.637465 -0.692558 0.349813 0.0663323 
1.14491 0.27161 -0.966163 -0.280117 0.107862 0.465691 0.117613 0.547273 0.955707 
-1.44841 0.304729 -0.242614 -0.834136 -0.227178 -0.121076 0.303126 -0.18672 0.00285531 
-0.369538 -0.161399 -0.0302885 -0.933982 0.146836 0.11677 -0.0850268 -0.127215 -2.36114 
-1.24042 -0.00618928 -0.149991 -0.563643 0.305758 -0.571273 0.0031386 0.00853859 -1.2114e-08 
-1.19465 0.0461753 -0.770718 0.00812843 -0.0366396 0.103386 -0.186949 -0.291727 0.0158581 
1.76973 0.0993917 -0.912759 -2.42584 -0.361796 -0.011663 0.670346 -0.114808 -0.0846215 
-0.032499 -0.014949 0.570573 -1.22559 -0.263254 -0.142391 -0.996599 0.752829 -0.414646 
-1.86005 0.169984 0.216755 0.00305475 0.0112746 -0.00616812 -0.0608297 0.0631858 0.0424579 
-0.39421 -0.147296 -0.433581 1.21424 -0.261916 -0.323524 0.331876 -0.0690371 -0.56933 
0.179044 0.0753809 0.190002 0.0223111 0.0712887 0.107564 -0.914504 0.842935 -0.134705 
-0.231314 0.198982 0.157315 -0.0973144 -0.018339 -0.0556049 0.0151411 -0.0831492 0.077895 
-0.0695196 0.00457652 -0.04865 -0.00135591 -0.0115566 -0.000366286 -0.887127 0.186355 0.332071 
-0.005327 -0.058298 0.00181796 -0.0621431 0.0176034 0.068267 -0.0070949 0.00552809 -0.0668687 
1.15873 -0.336297 -0.45611 -1.50821 -0.126112 -0.0560154 -0.00953179 0.0204551 -0.0310442 
-1.10173 0.319997 0.338636 -0.916793 0.149882 0.300981 -0.994311 -0.279829 -0.127393 
-0.038806 -0.00322602 0.209334 -1.32703 -0.0351903 -0.34583 -0.195001 -0.156651 0.0224139 
0.0420759 -0.0533677 -0.062665 -0.0223329 -0.177954 -1.36947 -0.0618428 0.101873 -0.0295653 
0.0681326 -0.0247955 -0.196352 -0.040998 -0.012114 -0.00642009 0.0172194 0.0113403 0.081076 
0.0571149 -0.075595 0.00675013 -0.0617611 0.0148874 0.0881969 -1.25559 0.268936 -0.311423 
-1.3398 0.23365 -0.229546 -0.0443638 -0.000237648 0.00607145 -0.236166 -0.12537 -0.236648 
-1.48143 -0.122571 0.163813 0.102879 0.0259906 -0.00468586 -1.81503 0.163209 -0.489454 
0.0892826 -0.15241 0.0842874 0.800818 0.13691 -1.66851 -0.0924749 0.151975 -0.0137281 
-1.40045 0.184029 0.175332 0.106499 0.0577168 0.020007 -1.90797 -0.167202 -0.106594 
-0.0317578 -0.0113096 -0.0212323 -0.184993 -0.160824 -0.23632 0.411836 0.487606 -1.23097 
-1.15053 0.0990385 -0.223887 -1.62819 -0.14142 0.103784 -1.52047 -0.24674 0.352728 
-0.0344571 -0.0568173 0.117192 -1.14344 -0.113377 0.341993 0.0299383 -0.114052 0.42476 
-0.932566 -0.25312 -0.617904 1.29595 0.3243 -0.36413 0.112627 0.0209016 0.112731 
-0.759871 -0.10529 -0.194582 -0.0195317 -0.114839 -0.218878 0.0869958 -0.0150299 -0.0168052 
1.55286 0.00825568 -0.389789 -1.22676 0.326618 0.0749433 -0.933257 -0.0142236 0.0843012 
0.0270018 0.00999422 -0.0737989 -1.04878 0.775078 0.111251 -1.20878 -0.0280415 -0.4824 
0.0367163 0.201483 0.185039 0.0408548 0.0168943 -0.0538769 -0.0116282 0.0453848 -0.0334422 