# vtk DataFile Version 4.0
Generated by LIGGGHTS
ASCII
DATASET POLYDATA
POINTS 500 float
0.452266 -0.0446791 -1.17658 0.457984 -0.0365013 -1.16827 0.00495577 -0.0251138 -1.195 
0.0317919 -0.0241363 -1.1755 0.00729361 -0.0266527 -1.1617 0.0357658 -0.0054386 -1.17548 
0.0333071 -0.0365337 -1.18175 0.00793622 -0.0303095 -1.13159 0.0713127 -0.0169559 -1.17687 
0.484651 -0.00998985 -1.16998 0.397116 -0.0342388 -1.17268 0.472213 -0.014255 -1.19506 
0.0198106 -0.00994687 -1.15713 0.410348 -0.00499144 -1.1864 0.0295689 -0.006723 -1.1675 
0.429339 -0.0301194 -1.18851 0.0224733 -0.0432556 -1.17099 0.495014 -0.0447094 -1.17892 
0.0319049 -0.0357036 -1.19501 0.484098 -0.0142713 -1.18135 0.00496109 -0.0183752 -1.17058 
0.28302 -0.0249834 -1.19469 0.49433 -0.0443553 -1.19503 0.0492118 -0.00709857 -1.18545 
0.321193 -0.0117801 -1.15424 0.425553 -0.0416609 -1.17978 0.491628 -0.0288069 -1.18575 
0.472228 -0.0449343 -1.19501 0.41969 -0.0158525 -1.16842 0.0888845 -0.0152311 -1.19435 
0.0307316 -0.01994 -1.18711 0.462365 -0.0447313 -1.17273 0.446422 -0.0108026 -1.17431 
0.471129 -0.02642 -1.17993 0.358753 -0.00586952 -1.18169 0.0254554 -0.0320153 -1.18642 
0.438177 -0.00515106 -1.19501 0.0155544 -0.0450066 -1.19501 0.0326644 -0.0367323 -1.16989 
0.49491 -0.00529513 -1.18495 0.21517 -0.0261704 -0.245002 0.176234 -0.0253723 -1.19464 
0.0643325 -0.00567384 -1.154 0.443818 -0.0384166 -1.17752 0.152231 -0.0421517 -1.19401 
0.477571 -0.0363314 -1.19496 0.00540702 -0.038523 -1.17748 0.00506008 -0.0198175 -1.18625 
0.487231 -0.0449695 -1.18535 0.459467 -0.024718 -1.18049 0.425378 -0.00498249 -1.195 
0.482653 -0.0449663 -1.19502 0.0172428 -0.0050239 -1.18438 0.0419871 -0.0445216 -1.16236 
0.00505868 -0.0252582 -1.17786 0.014096 -0.0378886 -1.17206 0.0833068 -0.0253226 -1.19501 
0.0627635 -0.0117056 -1.16398 0.0123966 -0.00906323 -1.1733 0.0314249 -0.0250046 -1.1654 
0.0219033 -0.0357155 -1.195 0.467582 -0.0358895 -1.195 0.0136792 -0.0189714 -1.16572 
0.0397422 -0.0232391 -1.18152 0.0682498 -0.0388234 -1.08921 0.450597 -0.014377 -1.1928 
0.468906 -0.0171659 -1.16491 0.486092 -0.00886421 -1.15057 0.453308 -0.00501322 -1.195 
0.00501715 -0.0129196 -1.17894 0.491189 -0.0342285 -1.19498 0.494357 -0.0157115 -1.18467 
0.0403068 -0.0131238 -1.19141 0.0135453 -0.0201444 -1.195 0.0409488 -0.0421257 -1.17658 
0.0501104 -0.0262118 -1.17773 0.0194729 -0.00642359 -1.16667 0.464132 -0.00638891 -1.15656 
0.441443 -0.0332354 -1.18583 0.494955 -0.0432884 -1.16906 0.0422506 -0.0355004 -1.16723 
0.0223697 -0.0231078 -1.17908 0.46536 -0.0150233 -1.17708 0.00744795 -0.00616065 -1.16501 
0.320525 -0.0401373 -0.397769 0.0532707 -0.0313193 -1.16568 0.0174021 -0.0345187 -1.18092 
0.401617 -0.0379172 -1.19503 0.465949 -0.0448677 -1.16318 0.00500112 -0.00499555 -1.18502 
0.0416933 -0.0309565 -1.19501 0.428986 -0.00831084 -1.16952 0.0146842 -0.00546923 -1.13652 
0.00499752 -0.0321084 -1.18518 0.00556116 -0.045025 -1.19503 0.0121807 -0.0126636 -1.1884 
0.203055 -0.0212985 -1.17863 0.0779246 -0.0121864 -1.18237 0.294646 -0.0145535 -1.15112 
0.0532357 -0.0450714 -1.195 0.071855 -0.0245333 -1.19504 0.20645 -0.0448929 -0.245002 
0.013075 -0.02624 -1.1846 0.47545 -0.0132378 -1.17316 0.396528 -0.0236567 -1.19503 
0.433324 -0.0214004 -1.16759 0.105172 -0.0229458 -1.17461 0.21896 -0.0382103 -1.17589 
0.11425 -0.0443217 -1.19496 0.0401039 -0.0315977 -1.17615 0.264544 -0.0227704 -1.16298 
0.0520739 -0.0343292 -1.18402 0.495004 -0.00496539 -1.19497 0.431558 -0.0128331 -1.19501 
0.0641583 -0.0259944 -1.16924 0.0371263 -0.0220286 -1.19496 0.360279 -0.044228 -0.764521 
0.459441 -0.00638392 -1.18722 0.46927 -0.0447064 -1.17999 0.0422782 -0.035147 -1.18589 
0.395157 -0.0126082 -1.17852 0.493854 -0.0244436 -1.16843 0.46579 -0.00503625 -1.195 
0.470979 -0.00545994 -1.18646 0.476498 -0.00521735 -1.19499 0.0294832 -0.00692471 -1.18589 
0.205011 -0.0250914 -0.245002 0.475431 -0.0359927 -1.17497 0.494944 -0.0149571 -1.19497 
0.01322 -0.0449851 -1.17933 0.036041 -0.0135662 -1.18137 0.495003 -0.0249804 -1.19464 
0.0555438 -0.00542893 -1.195 0.0204587 -0.0429302 -1.18602 0.0495428 -0.0139817 -1.19502 
0.440868 -0.0231619 -1.18796 0.0240444 -0.0279817 -1.15864 0.363789 -0.0235012 -1.1843 
0.477559 -0.00509163 -1.17863 0.287755 -0.0447707 -1.19491 0.456985 -0.0215546 -1.19004 
0.479819 -0.0270246 -1.18501 0.485869 -0.0106134 -1.19503 0.449013 -0.0151892 -1.16566 
0.480166 -0.0449905 -1.1775 0.44338 -0.0366291 -1.19501 0.0138503 -0.0175368 -1.17972 
0.0536848 -0.0229999 -1.19503 0.460287 -0.0134192 -1.195 0.22105 -0.0406816 -1.19481 
0.0725538 -0.00564254 -1.18798 0.458142 -0.0402982 -1.195 0.00499289 -0.0450083 -1.18507 
0.476037 -0.017727 -1.1865 0.379177 -0.0325615 -1.17488 0.465659 -0.0218409 -1.19501 
0.0279822 -0.0265372 -1.19501 0.487608 -0.00506686 -1.17814 0.0152092 -0.005258 -1.195 
0.484025 -0.0272553 -1.19501 0.00498019 -0.03508 -1.195 0.291483 -0.0161621 -1.195 
0.0211296 -0.0325318 -1.16701 0.0220975 -0.0137773 -1.18387 0.0302506 -0.0449437 -1.18616 
0.46632 -0.0147105 -1.18706 0.0864461 -0.0352985 -1.15287 0.446647 -0.0444662 -1.16738 
0.0356792 -0.00502745 -1.19501 0.0392703 -0.0325166 -1.15228 0.410063 -0.0135296 -1.19502 
0.0211652 -0.0138067 -1.19498 0.472753 -0.0445572 -1.17056 0.487314 -0.0379747 -1.17823 
0.26892 -0.0220107 -1.19452 0.0547516 -0.0217093 -1.16784 0.0791037 -0.0158405 -1.19501 
0.490839 -0.0227976 -1.17787 0.0144543 -0.0268437 -1.17418 0.0515222 -0.0327666 -1.19501 
0.364993 -0.0176306 -1.19473 0.494986 -0.038163 -1.18656 0.483297 -0.00500022 -1.18721 
0.00499443 -0.0149831 -1.195 0.0642442 -0.0159941 -1.18385 0.148718 -0.00529255 -1.18545 
0.0228713 -0.020987 -1.16926 0.350393 -0.0260487 -1.19385 0.482193 -0.0421067 -1.1683 
0.32562 -0.00515949 -1.11463 0.0255382 -0.0450133 -1.19497 0.421045 -0.0449688 -1.19499 
0.426303 -0.0133271 -1.18654 0.00510025 -0.00499433 -1.19501 0.159504 -0.0358945 -1.18763 
0.117226 -0.0418071 -1.1806 0.404823 -0.0286276 -1.17537 0.477502 -0.0429989 -1.18676 
0.20607 -0.0151344 -0.245002 0.495 -0.0320633 -1.17582 0.0786608 -0.0448724 -1.17747 
0.0458939 -0.0153691 -1.18077 0.464422 -0.0449095 -1.18873 0.471323 -0.0354799 -1.1844 
0.451297 -0.0359163 -1.18897 0.0812903 -0.0053416 -1.19501 0.486394 -0.019065 -1.1898 
0.48435 -0.0355992 -1.18763 0.00528848 -0.0449906 -1.16985 0.0578252 -0.0367948 -1.1747 
0.254861 -0.00558207 -1.19494 0.392939 -0.0329878 -1.19499 0.044406 -0.0405463 -1.19501 
0.0791996 -0.0351056 -1.19315 0.448327 -0.0253576 -1.19503 0.33937 -0.0450727 -1.17599 
0.437936 -0.0450013 -1.195 0.415386 -0.00508782 -1.19502 0.0278579 -0.0149935 -1.17553 
0.0956076 -0.0432265 -1.18919 0.452753 -0.00796948 -1.15988 0.231785 -0.0448491 -0.245331 
0.460041 -0.0368663 -1.18405 0.0889876 -0.0331191 -1.19292 0.059649 -0.00538776 -1.17484 
0.0943222 -0.0140118 -1.18381 0.431789 -0.0050096 -1.18733 0.218383 -0.00663369 -1.195 
0.431319 -0.0374637 -1.19501 0.0309305 -0.0444457 -1.17616 0.0355186 -0.0450184 -1.19499 
0.0471674 -0.0136477 -1.15935 0.0136363 -0.0301205 -1.19498 0.0257578 -0.00498679 -1.19501 
0.0655064 -0.00530777 -1.19501 0.494341 -0.0110694 -1.17359 0.463765 -0.0324867 -1.17578 
0.0347702 -0.0289846 -1.18812 0.0212329 -0.022413 -1.18894 0.0920285 -0.0413909 -1.17943 
0.0249618 -0.00520621 -1.1771 0.284022 -0.045082 -1.1836 0.443759 -0.043923 -1.18674 
0.0545097 -0.0155907 -1.18637 0.452301 -0.0328067 -1.1772 0.0836819 -0.00708904 -1.17427 
0.474067 -0.0270494 -1.19352 0.0122851 -0.0379051 -1.18879 0.0593427 -0.0207455 -1.17653 
0.441011 -0.0160853 -1.19502 0.357508 -0.00622165 -0.540785 0.0672795 -0.0449153 -1.19428 
0.0932939 -0.00506792 -1.1947 0.445735 -0.00507581 -1.18847 0.440004 -0.0216635 -1.17807 
0.422178 -0.0302921 -1.18144 0.493389 -0.0444792 -1.15909 0.108633 -0.015624 -1.19501 
0.428951 -0.0224752 -1.195 0.306247 -0.0238992 -0.372066 0.0988294 -0.0153046 -1.19497 
0.116167 -0.0273501 -1.16644 0.0501073 -0.0443382 -1.18472 0.069457 -0.0350122 -1.19491 
0.0311062 -0.0139141 -1.19504 0.449857 -0.0267463 -1.18528 0.362097 -0.020547 -0.847854 
0.422362 -0.0373952 -1.18852 0.460793 -0.0328975 -1.15562 0.247439 -0.0172194 -1.19469 
0.451764 -0.00501554 -1.18049 0.108079 -0.0311306 -1.1942 0.0848061 -0.0233961 -1.18416 
0.378986 -0.0320279 -1.19443 0.449322 -0.0449968 -1.195 0.34827 -0.043008 -1.19438 
0.29413 -0.00555682 -1.19502 0.0059017 -0.0317467 -1.17016 0.457155 -0.0303137 -1.19489 
0.328238 -0.0121096 -1.1927 0.414721 -0.0447853 -1.18681 0.468989 -0.00631095 -1.16977 
0.128487 -0.0142986 -1.19384 0.0515352 -0.044884 -1.17433 0.278825 -0.0167463 -1.18818 
0.383177 -0.0136523 -1.18743 0.421764 -0.0295242 -1.19501 0.446312 -0.0141625 -1.18375 
0.0455111 -0.0214106 -1.18948 0.436873 -0.0290557 -1.19499 0.0258991 -0.0322542 -1.17591 
0.103826 -0.0441713 -1.19501 0.464604 -0.0289825 -1.18815 0.0402404 -0.0449349 -1.18615 
0.257051 -0.031099 -1.19492 0.407606 -0.0295554 -1.19495 0.0600082 -0.0378906 -1.19499 
0.265247 -0.00543375 -1.19462 0.479299 -0.021976 -1.17623 0.0404087 -0.0437283 -1.09169 
0.0693536 -0.0147278 -1.19503 0.0795739 -0.00786599 -1.16269 0.414755 -0.0223932 -1.19501 
0.433922 -0.0309659 -1.17965 0.106167 -0.0390338 -1.18643 0.317992 -0.0158522 -1.18369 
0.118541 -0.0160027 -1.19383 0.414461 -0.0296515 -1.18771 0.431128 -0.0216011 -1.1836 
0.408828 -0.0449963 -1.19494 0.464592 -0.00515565 -1.17873 0.362338 -0.0179533 -0.873496 
0.384442 -0.00622275 -1.19455 0.457154 -0.00515401 -1.17207 0.0704066 -0.044978 -1.18375 
0.0935828 -0.0243755 -1.19445 0.24114 -0.0437639 -1.18569 0.405041 -0.020694 -1.19018 
0.454675 -0.0449626 -1.18638 0.0839784 -0.0342907 -1.18362 0.420365 -0.00499698 -1.18635 
0.0693922 -0.0372224 -1.16842 0.039379 -0.00507765 -1.1856 0.0606058 -0.00617219 -1.18623 
0.411276 -0.0218021 -1.18242 0.253164 -0.0271569 -1.18575 0.449925 -0.022137 -1.17643 
0.0721328 -0.0239333 -1.18428 0.421062 -0.0142974 -1.19501 0.295192 -0.0314112 -1.18588 
0.309002 -0.0309455 -1.18414 0.282578 -0.0351871 -1.19501 0.404526 -0.00504431 -1.195 
0.0456038 -0.00492536 -1.19466 0.0399156 -0.01867 -1.16455 0.265179 -0.0164674 -1.185 
0.437746 -0.0318034 -1.17043 0.249587 -0.0372941 -1.18537 0.173386 -0.00560822 -1.19481 
0.202401 -0.0442592 -1.19231 0.0565008 -0.0252891 -1.18575 0.0594562 -0.01462 -1.19501 
0.429005 -0.0450051 -1.18887 0.414619 -0.0367361 -1.195 0.0882992 -0.0210154 -1.17031 
0.224472 -0.00512873 -0.245002 0.248151 -0.00882973 -1.18027 0.403087 -0.0283658 -1.15603 
0.43208 -0.0135673 -1.17742 0.0755957 -0.0249715 -1.17254 0.278089 -0.033828 -1.15277 
0.154173 -0.00506289 -1.19415 0.0524873 -0.0123319 -1.17332 0.30602 -0.0129092 -1.19494 
0.38968 -0.0147166 -1.19503 0.242828 -0.00745157 -1.1892 0.35966 -0.0422261 -0.645953 
0.421905 -0.0224277 -1.18791 0.0651866 -0.0366613 -1.18593 0.376419 -0.0432342 -1.19465 
0.104123 -0.00587624 -1.19199 0.317022 -0.0396132 -1.18849 0.456255 -0.0146633 -1.18239 
0.420854 -0.014782 -1.1783 0.0983149 -0.034019 -1.18356 0.293633 -0.0259138 -1.195 
0.343745 -0.0176851 -1.19103 0.314541 -0.0218763 -1.19213 0.337504 -0.00904908 -1.19505 
0.415879 -0.00508949 -1.17741 0.339551 -0.0438475 -1.18739 0.269784 -0.0332718 -1.19331 
0.246577 -0.0333675 -1.19501 0.102919 -0.0250712 -1.18789 0.394212 -0.0448654 -1.19472 
0.0597984 -0.0449761 -1.18706 0.439257 -0.0053902 -1.18066 0.295967 -0.0427291 -1.1792 
0.350576 -0.00685377 -1.19467 0.221353 -0.012341 -1.18308 0.124723 -0.0280543 -1.19409 
0.267066 -0.0369323 -1.18328 0.224374 -0.0169414 -1.19388 0.365103 -0.0448696 -1.195 
0.0622412 -0.0280864 -1.19467 0.117789 -0.00825004 -1.18765 0.284796 -0.00831303 -1.1891 
0.273249 -0.00806089 -1.18116 0.344382 -0.0101516 -0.683378 0.37573 -0.021567 -1.19461 
0.404904 -0.0159031 -1.17745 0.251744 -0.0444126 -1.19498 0.165096 -0.0446361 -1.18972 
0.176707 -0.0425475 -1.19498 0.436648 -0.013747 -1.18635 0.394516 -0.00504607 -1.195 
0.14284 -0.017578 -1.19495 0.468443 -0.0259298 -1.17008 0.237118 -0.0353781 -1.18225 
0.207123 -0.0348875 -0.245002 0.405282 -0.0411972 -1.17759 0.399676 -0.0137525 -1.19502 
0.427504 -0.0249122 -1.17491 0.402101 -0.029487 -1.18644 0.0738351 -0.0343636 -1.18126 
0.413144 -0.0334471 -1.17845 0.0153136 -0.0387873 -1.16192 0.0870629 -0.0426985 -1.19472 
0.415962 -0.0320183 -1.16879 0.135637 -0.0149961 -1.08445 0.222691 -0.0353158 -1.18455 
0.234553 -0.0144568 -1.19454 0.275837 -0.00759585 -1.19479 0.359761 -0.0369162 -1.17487 
0.37074 -0.00606096 -1.18046 0.431717 -0.0449802 -1.16039 0.117535 -0.0348969 -1.19493 
0.395535 -0.0379674 -1.18652 0.354448 -0.0390783 -1.0311 0.383898 -0.00544683 -1.18177 
0.0772532 -0.0449292 -1.19357 0.394457 -0.00503576 -1.185 0.394551 -0.0446015 -1.17863 
0.19841 -0.0298025 -1.195 0.386122 -0.0246561 -1.19461 0.484331 -0.0299873 -1.17271 
0.170448 -0.0341758 -1.19438 0.357754 -0.0372074 -1.19283 0.327573 -0.0440931 -1.18248 
0.27453 -0.0431732 -1.19473 0.336177 -0.0294774 -1.19488 0.367787 -0.00611223 -1.19032 
0.41545 -0.0137024 -1.18663 0.442933 -0.025695 -1.1641 0.35295 -0.0431213 -1.1847 
0.262521 -0.0416821 -1.19462 0.365396 -0.0345542 -0.710999 0.349393 -0.0247609 -0.596922 
0.426772 -0.00500036 -1.17869 0.376026 -0.0374632 -1.18348 0.221879 -0.0260795 -1.15723 
0.38795 -0.0449699 -1.18677 0.395043 -0.0180749 -1.18688 0.319246 -0.00725487 -1.19456 
0.302471 -0.0221272 -1.192 0.362649 -0.0150951 -0.912111 0.0988816 -0.035323 -1.19449 
0.310995 -0.00613237 -1.18909 0.238546 -0.0207343 -1.18713 0.187785 -0.0437139 -1.1945 
0.459773 -0.0152177 -1.1687 0.366075 -0.0317474 -1.19053 0.347207 -0.026859 -1.18185 
0.237167 -0.0444963 -1.19494 0.416383 -0.0425129 -1.17393 0.397967 -0.0210663 -1.17231 
0.269512 -0.0269762 -1.18276 0.409254 -0.0111125 -1.1697 0.386084 -0.0348789 -1.18792 
0.44825 -0.0162653 -1.13994 0.320188 -0.035582 -1.149 0.275993 -0.0340225 -1.17091 
0.0714705 -0.0077183 -1.17292 0.305 -0.0235935 -1.15291 0.239276 -0.0350009 -0.256056 
0.327537 -0.023738 -1.19435 0.317244 -0.00535968 -1.1348 0.435271 -0.0405223 -1.18248 
0.239327 -0.0311883 -1.11161 0.417449 -0.0234444 -1.17463 0.286358 -0.0151214 -0.337617 
0.307852 -0.0172283 -1.17717 0.342801 -0.0172731 -1.18199 0.287808 -0.0269436 -1.17492 
0.325071 -0.033585 -1.18567 0.331535 -0.025292 -1.18269 0.0867969 -0.00541164 -1.18615 
0.402641 -0.00504703 -1.17777 0.356349 -0.0338449 -0.569196 0.375528 -0.0442054 -1.1763 
0.476264 -0.0302725 -1.16606 0.0647697 -0.0303896 -1.17824 0.38217 -0.0259615 -1.18506 
0.337971 -0.00867998 -1.16529 0.402428 -0.0110409 -1.18582 0.229337 -0.0262297 -1.18609 
0.118106 -0.0195049 -1.18238 0.18396 -0.0176893 -1.19469 0.482721 -0.00796462 -1.16042 
0.342663 -0.0344448 -1.18631 0.483364 -0.00990171 -1.05952 0.134457 -0.0298182 -1.19141 
0.479892 -0.0323011 -1.15721 0.263522 -0.0118675 -1.17476 0.346137 -0.039826 -0.794275 
0.149172 -0.0299913 -1.19496 0.392478 -0.0274719 -1.18448 0.363736 -0.0422656 -1.18427 
0.29634 -0.0119732 -1.187 0.407726 -0.0377288 -1.1871 
VERTICES 500 1000
1 0 
1 1 
1 2 
1 3 
1 4 
1 5 
1 6 
1 7 
1 8 
1 9 
1 10 
1 11 
1 12 
1 13 
1 14 
1 15 
1 16 
1 17 
1 18 
1 19 
1 20 
1 21 
1 22 
1 23 
1 24 
1 25 
1 26 
1 27 
1 28 
1 29 
1 30 
1 31 
1 32 
1 33 
1 34 
1 35 
1 36 
1 37 
1 38 
1 39 
1 40 
1 41 
1 42 
1 43 
1 44 
1 45 
1 46 
1 47 
1 48 
1 49 
1 50 
1 51 
1 52 
1 53 
1 54 
1 55 
1 56 
1 57 
1 58 
1 59 
1 60 
1 61 
1 62 
1 63 
1 64 
1 65 
1 66 
1 67 
1 68 
1 69 
1 70 
1 71 
1 72 
1 73 
1 74 
1 75 
1 76 
1 77 
1 78 
1 79 
1 80 
1 81 
1 82 
1 83 
1 84 
1 85 
1 86 
1 87 
1 88 
1 89 
1 90 
1 91 
1 92 
1 93 
1 94 
1 95 
1 96 
1 97 
1 98 
1 99 
1 100 
1 101 
1 102 
1 103 
1 104 
1 105 
1 106 
1 107 
1 108 
1 109 
1 110 
1 111 
1 112 
1 113 
1 114 
1 115 
1 116 
1 117 
1 118 
1 119 
1 120 
1 121 
1 122 
1 123 
1 124 
1 125 
1 126 
1 127 
1 128 
1 129 
1 130 
1 131 
1 132 
1 133 
1 134 
1 135 
1 136 
1 137 
1 138 
1 139 
1 140 
1 141 
1 142 
1 143 
1 144 
1 145 
1 146 
1 147 
1 148 
1 149 
1 150 
1 151 
1 152 
1 153 
1 154 
1 155 
1 156 
1 157 
1 158 
1 159 
1 160 
1 161 
1 162 
1 163 
1 164 
1 165 
1 166 
1 167 
1 168 
1 169 
1 170 
1 171 
1 172 
1 173 
1 174 
1 175 
1 176 
1 177 
1 178 
1 179 
1 180 
1 181 
1 182 
1 183 
1 184 
1 185 
1 186 
1 187 
1 188 
1 189 
1 190 
1 191 
1 192 
1 193 
1 194 
1 195 
1 196 
1 197 
1 198 
1 199 
1 200 
1 201 
1 202 
1 203 
1 204 
1 205 
1 206 
1 207 
1 208 
1 209 
1 210 
1 211 
1 212 
1 213 
1 214 
1 215 
1 216 
1 217 
1 218 
1 219 
1 220 
1 221 
1 222 
1 223 
1 224 
1 225 
1 226 
1 227 
1 228 
1 229 
1 230 
1 231 
1 232 
1 233 
1 234 
1 235 
1 236 
1 237 
1 238 
1 239 
1 240 
1 241 
1 242 
1 243 
1 244 
1 245 
1 246 
1 247 
1 248 
1 249 
1 250 
1 251 
1 252 
1 253 
1 254 
1 255 
1 256 
1 257 
1 258 
1 259 
1 260 
1 261 
1 262 
1 263 
1 264 
1 265 
1 266 
1 267 
1 268 
1 269 
1 270 
1 271 
1 272 
1 273 
1 274 
1 275 
1 276 
1 277 
1 278 
1 279 
1 280 
1 281 
1 282 
1 283 
1 284 
1 285 
1 286 
1 287 
1 288 
1 289 
1 290 
1 291 
1 292 
1 293 
1 294 
1 295 
1 296 
1 297 
1 298 
1 299 
1 300 
1 301 
1 302 
1 303 
1 304 
1 305 
1 306 
1 307 
1 308 
1 309 
1 310 
1 311 
1 312 
1 313 
1 314 
1 315 
1 316 
1 317 
1 318 
1 319 
1 320 
1 321 
1 322 
1 323 
1 324 
1 325 
1 326 
1 327 
1 328 
1 329 
1 330 
1 331 
1 332 
1 333 
1 334 
1 335 
1 336 
1 337 
1 338 
1 339 
1 340 
1 341 
1 342 
1 343 
1 344 
1 345 
1 346 
1 347 
1 348 
1 349 
1 350 
1 351 
1 352 
1 353 
1 354 
1 355 
1 356 
1 357 
1 358 
1 359 
1 360 
1 361 
1 362 
1 363 
1 364 
1 365 
1 366 
1 367 
1 368 
1 369 
1 370 
1 371 
1 372 
1 373 
1 374 
1 375 
1 376 
1 377 
1 378 
1 379 
1 380 
1 381 
1 382 
1 383 
1 384 
1 385 
1 386 
1 387 
1 388 
1 389 
1 390 
1 391 
1 392 
1 393 
1 394 
1 395 
1 396 
1 397 
1 398 
1 399 
1 400 
1 401 
1 402 
1 403 
1 404 
1 405 
1 406 
1 407 
1 408 
1 409 
1 410 
1 411 
1 412 
1 413 
1 414 
1 415 
1 416 
1 417 
1 418 
1 419 
1 420 
1 421 
1 422 
1 423 
1 424 
1 425 
1 426 
1 427 
1 428 
1 429 
1 430 
1 431 
1 432 
1 433 
1 434 
1 435 
1 436 
1 437 
1 438 
1 439 
1 440 
1 441 
1 442 
1 443 
1 444 
1 445 
1 446 
1 447 
1 448 
1 449 
1 450 
1 451 
1 452 
1 453 
1 454 
1 455 
1 456 
1 457 
1 458 
1 459 
1 460 
1 461 
1 462 
1 463 
1 464 
1 465 
1 466 
1 467 
1 468 
1 469 
1 470 
1 471 
1 472 
1 473 
1 474 
1 475 
1 476 
1 477 
1 478 
1 479 
1 480 
1 481 
1 482 
1 483 
1 484 
1 485 
1 486 
1 487 
1 488 
1 489 
1 490 
1 491 
1 492 
1 493 
1 494 
1 495 
1 496 
1 497 
1 498 
1 499 

POINT_DATA 500
FIELD FieldData 7
id 1 500 int
1 2 3 4 5 6 7 8 9 
10 11 12 13 14 15 16 17 18 
19 20 21 22 23 24 25 26 27 
28 29 30 31 32 33 34 35 36 
37 38 39 40 41 42 43 44 45 
46 47 48 49 50 51 52 53 54 
55 56 57 58 59 60 61 62 63 
64 65 66 67 68 69 70 71 72 
73 74 75 76 77 78 79 80 81 
82 83 84 85 86 87 88 89 90 
91 92 93 94 95 96 97 98 99 
100 101 102 103 104 105 106 107 108 
109 110 111 112 113 114 115 116 117 
118 119 120 121 122 123 124 125 126 
127 128 129 130 131 132 133 134 135 
136 137 138 139 140 141 142 143 144 
145 146 147 148 149 150 151 152 153 
154 155 156 157 158 159 160 161 162 
163 164 165 166 167 168 169 170 171 
172 173 174 175 176 177 178 179 180 
181 182 183 184 185 186 187 188 189 
190 191 192 193 194 195 196 197 198 
199 200 201 202 203 204 205 206 207 
208 209 210 211 212 213 214 215 216 
217 218 219 220 221 222 223 224 225 
226 227 228 229 230 231 232 233 234 
235 236 237 238 239 240 241 242 243 
244 245 246 247 248 249 250 251 252 
253 254 255 256 257 258 259 260 261 
262 263 264 265 266 267 268 269 270 
271 272 273 274 275 276 277 278 279 
280 281 282 283 284 285 286 287 288 
289 290 291 292 293 294 295 296 297 
298 299 300 301 302 303 304 305 306 
307 308 309 310 311 312 313 314 315 
316 317 318 319 320 321 322 323 324 
325 326 327 328 329 330 331 332 333 
334 335 336 337 338 339 340 341 342 
343 344 345 346 347 348 349 350 351 
352 353 354 355 356 357 358 359 360 
361 362 363 364 365 366 367 368 369 
370 371 372 373 374 375 376 377 378 
379 380 381 382 383 384 385 386 387 
388 389 390 391 392 393 394 395 396 
397 398 399 400 401 402 403 404 405 
406 407 408 409 410 411 412 413 414 
415 416 417 418 419 420 421 422 423 
424 425 426 427 428 429 430 431 432 
433 434 435 436 437 438 439 440 441 
442 443 444 445 446 447 448 449 450 
451 452 453 454 455 456 457 458 459 
460 461 462 463 464 465 466 467 468 
469 470 471 472 473 474 475 476 477 
478 479 480 481 482 483 484 485 486 
487 488 489 490 491 492 493 494 495 
496 497 498 499 500 
type 1 500 int
1 1 1 1 1 1 1 1 1 
1 1 1 1 1 1 1 1 1 
1 1 1 1 1 1 1 1 1 
1 1 1 1 1 1 1 1 1 
1 1 1 1 1 1 1 1 1 
1 1 1 1 1 1 1 1 1 
1 1 1 1 1 1 1 1 1 
1 1 1 1 1 1 1 1 1 
1 1 1 1 1 1 1 1 1 
1 1 1 1 1 1 1 1 1 
1 1 1 1 1 1 1 1 1 
1 1 1 1 1 1 1 1 1 
1 1 1 1 1 1 1 1 1 
1 1 1 1 1 1 1 1 1 
1 1 1 1 1 1 1 1 1 
1 1 1 1 1 1 1 1 1 
1 1 1 1 1 1 1 1 1 
1 1 1 1 1 1 1 1 1 
1 1 1 1 1 1 1 1 1 
1 1 1 1 1 1 1 1 1 
1 1 1 1 1 1 1 1 1 
1 1 1 1 1 1 1 1 1 
1 1 1 1 1 1 1 1 1 
1 1 1 1 1 1 1 1 1 
1 1 1 1 1 1 1 1 1 
1 1 1 1 1 1 1 1 1 
1 1 1 1 1 1 1 1 1 
1 1 1 1 1 1 1 1 1 
1 1 1 1 1 1 1 1 1 
1 1 1 1 1 1 1 1 1 
1 1 1 1 1 1 1 1 1 
1 1 1 1 1 1 1 1 1 
1 1 1 1 1 1 1 1 1 
1 1 1 1 1 1 1 1 1 
1 1 1 1 1 1 1 1 1 
1 1 1 1 1 1 1 1 1 
1 1 1 1 1 1 1 1 1 
1 1 1 1 1 1 1 1 1 
1 1 1 1 1 1 1 1 1 
1 1 1 1 1 1 1 1 1 
1 1 1 1 1 1 1 1 1 
1 1 1 1 1 1 1 1 1 
1 1 1 1 1 1 1 1 1 
1 1 1 1 1 1 1 1 1 
1 1 1 1 1 1 1 1 1 
1 1 1 1 1 1 1 1 1 
1 1 1 1 1 1 1 1 1 
1 1 1 1 1 1 1 1 1 
1 1 1 1 1 1 1 1 1 
1 1 1 1 1 1 1 1 1 
1 1 1 1 1 1 1 1 1 
1 1 1 1 1 1 1 1 1 
1 1 1 1 1 1 1 1 1 
1 1 1 1 1 1 1 1 1 
1 1 1 1 1 1 1 1 1 
1 1 1 1 1 
i 3 500 int
0 0 0 0 0 0 0 0 0 
0 0 0 0 0 0 0 0 0 
0 0 0 0 0 0 0 0 0 
0 0 0 0 0 0 0 0 0 
0 0 0 0 0 0 0 0 0 
0 0 0 0 0 0 0 0 0 
0 0 0 0 0 0 0 0 0 
0 0 0 0 0 0 0 0 0 
0 0 0 0 0 0 0 0 0 
0 0 0 0 0 0 0 0 0 
0 0 0 0 0 0 0 0 0 
0 0 0 0 0 0 0 0 0 
0 0 0 0 0 0 0 0 0 
0 0 0 0 0 0 0 0 0 
0 0 0 0 0 0 0 0 0 
0 0 0 0 0 0 0 0 0 
0 0 0 0 0 0 0 0 0 
0 0 0 0 0 0 0 0 0 
0 0 0 0 0 0 0 0 0 
0 0 0 0 0 0 0 0 0 
0 0 0 0 0 0 0 0 0 
0 0 0 0 0 0 0 0 0 
0 0 0 0 0 0 0 0 0 
0 0 0 0 0 0 0 0 0 
0 0 0 0 0 0 0 0 0 
0 0 0 0 0 0 0 0 0 
0 0 0 0 0 0 0 0 0 
0 0 0 0 0 0 0 0 0 
0 0 0 0 0 0 0 0 0 
0 0 0 0 0 0 0 0 0 
0 0 0 0 0 0 0 0 0 
0 0 0 0 0 0 0 0 0 
0 0 0 0 0 0 0 0 0 
0 0 0 0 0 0 0 0 0 
0 0 0 0 0 0 0 0 0 
0 0 0 0 0 0 0 0 0 
0 0 0 0 0 0 0 0 0 
0 0 0 0 0 0 0 0 0 
0 0 0 0 0 0 0 0 0 
0 0 0 0 0 0 0 0 0 
0 0 0 0 0 0 0 0 0 
0 0 0 0 0 0 0 0 0 
0 0 0 0 0 0 0 0 0 
0 0 0 0 0 0 0 0 0 
0 0 0 0 0 0 0 0 0 
0 0 0 0 0 0 0 0 0 
0 0 0 0 0 0 0 0 0 
0 0 0 0 0 0 0 0 0 
0 0 0 0 0 0 0 0 0 
0 0 0 0 0 0 0 0 0 
0 0 0 0 0 0 0 0 0 
0 0 0 0 0 0 0 0 0 
0 0 0 0 0 0 0 0 0 
0 0 0 0 0 0 0 0 0 
0 0 0 0 0 0 0 0 0 
0 0 0 0 0 0 0 0 0 
0 0 0 0 0 0 0 0 0 
0 0 0 0 0 0 0 0 0 
0 0 0 0 0 0 0 0 0 
0 0 0 0 0 0 0 0 0 
0 0 0 0 0 0 0 0 0 
0 0 0 0 0 0 0 0 0 
0 0 0 0 0 0 0 0 0 
0 0 0 0 0 0 0 0 0 
0 0 0 0 0 0 0 0 0 
0 0 0 0 0 0 0 0 0 
0 0 0 0 0 0 0 0 0 
0 0 0 0 0 0 0 0 0 
0 0 0 0 0 0 0 0 0 
0 0 0 0 0 0 0 0 0 
0 0 0 0 0 0 0 0 0 
0 0 0 0 0 0 0 0 0 
0 0 0 0 0 0 0 0 0 
0 0 0 0 0 0 0 0 0 
0 0 0 0 0 0 0 0 0 
0 0 0 0 0 0 0 0 0 
0 0 0 0 0 0 0 0 0 
0 0 0 0 0 0 0 0 0 
0 0 0 0 0 0 0 0 0 
0 0 0 0 0 0 0 0 0 
0 0 0 0 0 0 0 0 0 
0 0 0 0 0 0 0 0 0 
0 0 0 0 0 0 0 0 0 
0 0 0 0 0 0 0 0 0 
0 0 0 0 0 0 0 0 0 
0 0 0 0 0 0 0 0 0 
0 0 0 0 0 0 0 0 0 
0 0 0 0 0 0 0 0 0 
0 0 0 0 0 0 0 0 0 
0 0 0 0 0 0 0 0 0 
0 0 0 0 0 0 0 0 0 
0 0 0 0 0 0 0 0 0 
0 0 0 0 0 0 0 0 0 
0 0 0 0 0 0 0 0 0 
0 0 0 0 0 0 0 0 0 
0 0 0 0 0 0 0 0 0 
0 0 0 0 0 0 0 0 0 
0 0 0 0 0 0 0 0 0 
0 0 0 0 0 0 0 0 0 
0 0 0 0 0 0 0 0 0 
0 0 0 0 0 0 0 0 0 
0 0 0 0 0 0 0 0 0 
0 0 0 0 0 0 0 0 0 
0 0 0 0 0 0 0 0 0 
0 0 0 0 0 0 0 0 0 
0 0 0 0 0 0 0 0 0 
0 0 0 0 0 0 0 0 0 
0 0 0 0 0 0 0 0 0 
0 0 0 0 0 0 0 0 0 
0 0 0 0 0 0 0 0 0 
0 0 0 0 0 0 0 0 0 
0 0 0 0 0 0 0 0 0 
0 0 0 0 0 0 0 0 0 
0 0 0 0 0 0 0 0 0 
0 0 0 0 0 0 0 0 0 
0 0 0 0 0 0 0 0 0 
0 0 0 0 0 0 0 0 0 
0 0 0 0 0 0 0 0 0 
0 0 0 0 0 0 0 0 0 
0 0 0 0 0 0 0 0 0 
0 0 0 0 0 0 0 0 0 
0 0 0 0 0 0 0 0 0 
0 0 0 0 0 0 0 0 0 
0 0 0 0 0 0 0 0 0 
0 0 0 0 0 0 0 0 0 
0 0 0 0 0 0 0 0 0 
0 0 0 0 0 0 0 0 0 
0 0 0 0 0 0 0 0 0 
0 0 0 0 0 0 0 0 0 
0 0 0 0 0 0 0 0 0 
0 0 0 0 0 0 0 0 0 
0 0 0 0 0 0 0 0 0 
0 0 0 0 0 0 0 0 0 
0 0 0 0 0 0 0 0 0 
0 0 0 0 0 0 0 0 0 
0 0 0 0 0 0 0 0 0 
0 0 0 0 0 0 0 0 0 
0 0 0 0 0 0 0 0 0 
0 0 0 0 0 0 0 0 0 
0 0 0 0 0 0 0 0 0 
0 0 0 0 0 0 0 0 0 
0 0 0 0 0 0 0 0 0 
0 0 0 0 0 0 0 0 0 
0 0 0 0 0 0 0 0 0 
0 0 0 0 0 0 0 0 0 
0 0 0 0 0 0 0 0 0 
0 0 0 0 0 0 0 0 0 
0 0 0 0 0 0 0 0 0 
0 0 0 0 0 0 0 0 0 
0 0 0 0 0 0 0 0 0 
0 0 0 0 0 0 0 0 0 
0 0 0 0 0 0 0 0 0 
0 0 0 0 0 0 0 0 0 
0 0 0 0 0 0 0 0 0 
0 0 0 0 0 0 0 0 0 
0 0 0 0 0 0 0 0 0 
0 0 0 0 0 0 0 0 0 
0 0 0 0 0 0 0 0 0 
0 0 0 0 0 0 0 0 0 
0 0 0 0 0 0 0 0 0 
0 0 0 0 0 0 0 0 0 
0 0 0 0 0 0 0 0 0 
0 0 0 0 0 0 0 0 0 
0 0 0 0 0 0 0 0 0 
0 0 0 0 0 0 0 0 0 
0 0 0 0 0 0 0 0 0 
0 0 0 0 0 0 
v 3 500 double
-0.322651 0.0172253 -0.0753336 -0.386036 -0.0401352 -0.215987 -0.0123967 -0.0180043 0.00292527 
-0.185928 0.020852 0.0569947 0.142382 0.25919 -0.211863 -0.148477 0.0565217 -0.0319598 
-0.0741552 -0.0335716 0.00302675 0.1131 -0.241927 0.329634 -0.106255 0.000753335 0.0913262 
-0.221901 -0.120705 -0.121352 0.370811 -0.122572 0.269626 -0.0262353 0.0869555 -0.0438827 
0.195231 0.446131 -0.193847 -0.171011 0.000747722 0.00316496 -0.0757439 0.00508017 0.0337264 
-0.203686 -0.0117394 0.00886198 0.00263727 -0.0604098 -0.0425465 0.0122164 0.0674107 0.119543 
0.00793441 0.0167426 0.0264815 0.0310079 -0.0107255 -0.0700082 0.00216348 0.0718979 0.0244357 
-0.533315 -0.0969237 0.0462219 -0.0350013 0.131918 0.0432428 0.0429279 0.0393102 -0.0822903 
-0.227124 -0.179399 0.236813 -0.139658 0.0602711 -0.0426848 -0.146918 0.0274481 -0.158104 
-0.0818612 0.00911841 -0.0558007 -0.23871 0.0149725 -0.0369986 -0.267179 0.111468 0.0498742 
-0.0157732 0.0925961 0.0399223 -0.150231 0.0502562 -0.184449 -0.259515 0.0297936 -0.103195 
-0.19307 -0.0436901 -0.238583 -0.227596 1.76368 -1.17298 -0.0708958 0.0522583 -0.0547541 
-0.159865 -0.0182418 -0.00423001 -0.0192779 0.0129157 0.00964123 -0.0103673 -0.155598 -0.0792257 
-0.0707246 -0.0512772 0.0825909 0.0034099 -0.0366717 -6.7136e-11 -0.609188 -0.041339 0.00134261 
-0.0728413 -0.0716561 -0.063125 -0.117454 0.0932426 -0.0445549 -0.344788 -0.011194 0.42807 
-0.193254 -0.0698819 0.00780781 -0.0720244 0.0107656 -0.0781617 -0.00172766 0.0202183 0.0166807 
0.0071741 -0.00745531 0.00826862 -0.402668 -0.198875 0.015963 -0.152161 -0.0312908 0.00552139 
0.0888545 -0.000997239 -0.0791105 0.0482649 0.0174208 -0.0279111 0.125692 0.0335875 0.0311691 
-0.004089 0.0347687 0.0381521 -0.00321845 -0.0503932 -0.0889139 -0.201187 -0.0690583 -0.0016916 
0.0349917 0.0870347 -0.293869 0.00454508 0.101062 -0.0231053 0.0168945 -0.323632 -0.189629 
0.00192547 0.00624129 -0.00299006 -0.189887 -0.0129779 -3.74736e-05 -0.0186008 0.0187176 0.0678657 
-0.0865717 0.0682852 0.132087 -0.426467 -0.168035 -2.55632 -0.186598 0.00249094 -0.133573 
-0.43484 -0.272818 -0.0961235 -0.218542 0.479213 0.195861 -0.123042 -0.000332657 -0.00201349 
0.00771874 0.0222159 0.0228389 0.0306299 0.0227397 0.0142222 0.00919211 -0.0734754 0.121102 
-0.0911384 0.0273926 0.127663 -0.0224074 -0.0124653 -0.000103328 0.0647464 0.0505102 -0.0304311 
-0.262569 0.159015 0.0571047 -0.0881446 0.0841957 0.096619 -0.289655 -0.0920185 0.186765 
-0.0957083 -0.0173471 0.0348325 0.0119416 0.116675 0.0967869 -0.404845 0.0751261 0.0706616 
-0.0843875 -0.0498385 -0.132236 -0.146206 -0.0481589 -0.095957 0.0538297 -0.0243643 -0.0311571 
0.79571 -0.0190356 -1.51638 -0.0489102 -0.0212798 0.0753102 0.00248581 0.0117105 -0.0755019 
-0.281983 -0.0312276 -0.0196679 -0.270393 0.0108752 -0.0901734 -0.000738897 0.00252803 0.00197326 
-0.135113 -0.0330837 0.0453058 -0.139869 -0.00574928 -0.0177842 0.183993 -0.0524007 0.362266 
0.000820704 0.0731737 -0.0176496 0.000104288 0.000514822 0.0030965 0.0663583 0.0207013 -0.0729303 
-0.972682 0.391814 -0.213206 -0.0267647 0.0566093 -0.0258581 -0.302534 -0.376753 -0.189268 
-0.0778623 -0.0175501 0.00311781 0.0955169 -0.00395423 0.224063 0.00464461 -0.00169836 -7.54093e-11 
0.0590425 0.0332437 -0.0540853 -0.243234 0.0446659 -0.0768652 -0.233364 -0.0221415 -0.0443255 
-0.130673 0.00205103 0.00130122 -0.0630565 -0.301048 0.0566666 0.654021 0.0703649 -2.84162 
-0.45946 -0.0691581 -0.0187235 -0.0422846 -0.00450517 0.0285111 -0.446199 0.049858 -0.24209 
-0.00415907 0.124667 0.0601623 -0.0194516 0.0434117 0.0382132 -0.192227 -0.0522342 -0.00510664 
0.0827613 0.110872 0.106146 0.00770242 -0.00607824 0.0601481 0.0395284 -0.066105 -3.15268 
-0.0784534 0.0222808 -0.0294635 0.0240197 -0.0177445 -0.105694 -0.0233416 -0.0142687 -0.0443583 
-0.210101 0.00492926 -0.0271555 -0.0447019 -0.104072 0.170711 -0.00139856 -0.0189431 0.00254983 
-0.0195743 -0.00614506 0.014941 -0.0118376 0.0646871 0.00187377 0.00400563 -0.0266207 0.0267634 
0.000380099 -0.00357507 -7.17314e-10 -0.0314253 -0.0623149 -0.205455 -0.0138895 0.0432125 -0.0170104 
-0.0795769 0.0180974 0.0723022 -0.171712 0.00705845 -0.0254569 0.0271184 0.0427943 -0.0161346 
-0.049064 -0.0395933 0.00535278 -0.0844985 -0.0346539 -0.0103815 -0.105988 0.0231463 -0.000295526 
-0.267342 -0.0380882 0.0101953 -0.268851 -0.101606 0.140132 -0.0741342 0.00332561 -0.0711848 
-0.0349575 -0.0714441 0.0372448 -0.521586 0.0178606 -0.0686547 -0.163767 0.0467272 -0.028747 
-0.0584132 0.0211544 -0.299089 -0.036609 0.02443 -0.00472022 -0.592427 -0.160096 -0.139533 
-0.11934 -0.127835 -0.318711 -0.164072 0.0080418 -0.0036016 0.0233229 0.0347368 0.0193314 
-0.148744 -0.0715844 -0.0432835 -0.121279 0.0754398 -0.0198076 -0.588855 0.0208539 -0.0760537 
-0.161796 -0.0272404 0.233021 -0.179366 -0.000726258 -0.000649534 0.012939 -0.0206559 0.0143081 
0.0954536 0.12849 0.0271742 0.0815585 0.106855 0.0847663 -0.147206 0.107629 -0.0470708 
-0.0247616 -0.0621128 -0.0067408 -0.117337 -0.0849552 -0.0606489 0.0208358 -0.0102505 0.00446978 
-0.119662 -0.0798892 0.0436282 -0.00146806 -0.00728369 0.00269735 -0.584207 0.0700222 0.000515784 
-0.0792594 0.0752542 -0.191377 0.0269885 0.00681655 0.048522 -0.086473 -0.022694 0.0127689 
-0.200053 -0.0229469 -0.0686623 0.681201 -0.0180451 -0.130388 -0.504152 -0.153556 -0.375559 
-0.0432446 -0.000933856 -0.00273232 0.121761 0.253875 -0.131048 -0.258944 0.0467724 0.00187796 
-0.137738 0.105849 -0.0259056 -0.135743 0.0385878 0.0151851 -0.103013 0.0633912 0.0060042 