# vtk DataFile Version 4.0
Generated by LIGGGHTS
ASCII
DATASET POLYDATA
POINTS 500 float
0.436823 -0.0450119 -1.17847 0.438011 -0.0370551 -1.17067 0.00500533 -0.0250338 -1.19502 
0.0321593 -0.0203054 -1.17383 0.0078145 -0.0244509 -1.16395 0.0298317 -0.00528099 -1.16899 
0.0371848 -0.0372236 -1.18278 0.0164691 -0.0428049 -1.13417 0.0710727 -0.0159744 -1.17792 
0.473482 -0.0172892 -1.17476 0.39263 -0.0432888 -1.17065 0.466618 -0.0122717 -1.19498 
0.0232777 -0.013794 -1.15806 0.396294 -0.00503964 -1.18636 0.0302193 -0.0160956 -1.16495 
0.416121 -0.0306469 -1.18842 0.0255813 -0.0449241 -1.17805 0.494965 -0.0442735 -1.17922 
0.0337044 -0.0354398 -1.19501 0.484486 -0.0151687 -1.18653 0.00511911 -0.0168992 -1.16993 
0.247566 -0.0249208 -1.1939 0.49406 -0.0446717 -1.195 0.0487126 -0.00499878 -1.18518 
0.304159 -0.025235 -1.16407 0.413295 -0.0407349 -1.17929 0.487413 -0.028199 -1.18847 
0.466487 -0.0446926 -1.195 0.400169 -0.0181831 -1.17075 0.0863518 -0.0182635 -1.1865 
0.0316448 -0.0198404 -1.18712 0.454073 -0.0447479 -1.18508 0.431992 -0.00999971 -1.17795 
0.465507 -0.0204087 -1.18933 0.312279 -0.0210654 -1.19498 0.0264061 -0.0309955 -1.18655 
0.42405 -0.005059 -1.195 0.0150142 -0.0449788 -1.195 0.0286388 -0.041955 -1.16901 
0.49462 -0.0100771 -1.18593 0.215547 -0.0288132 -0.245002 0.131917 -0.0273501 -1.19474 
0.059694 -0.00529027 -1.16843 0.433818 -0.0355484 -1.17961 0.122305 -0.0408747 -1.19479 
0.472727 -0.0367419 -1.195 0.00507977 -0.0371138 -1.1789 0.00500994 -0.0200618 -1.18639 
0.487751 -0.0449956 -1.18609 0.444541 -0.0225179 -1.18445 0.411986 -0.00501326 -1.19501 
0.483261 -0.044854 -1.19501 0.0204043 -0.00499028 -1.18664 0.0530498 -0.0429425 -1.17002 
0.00544054 -0.0238175 -1.17714 0.0142187 -0.036719 -1.17318 0.0802524 -0.0271994 -1.195 
0.0630762 -0.0157953 -1.17191 0.0132987 -0.00756236 -1.18007 0.0318799 -0.0287118 -1.1683 
0.0232675 -0.0353496 -1.19497 0.455777 -0.0338418 -1.19498 0.0149935 -0.0158041 -1.16855 
0.0395382 -0.020328 -1.18102 0.0642816 -0.0449498 -1.16938 0.439409 -0.0135378 -1.19501 
0.445906 -0.0275858 -1.16589 0.469256 -0.0339767 -1.15403 0.444602 -0.00499791 -1.195 
0.00500747 -0.0131646 -1.1792 0.489199 -0.0355601 -1.19499 0.494128 -0.0208212 -1.18684 
0.0394396 -0.0114525 -1.18782 0.0136805 -0.020049 -1.19501 0.0457411 -0.0428205 -1.17751 
0.0515858 -0.0228727 -1.18083 0.0181644 -0.00513993 -1.17167 0.440877 -0.0114192 -1.16556 
0.42738 -0.03212 -1.18642 0.494297 -0.0389626 -1.17058 0.0380651 -0.0362811 -1.1717 
0.0247891 -0.0230945 -1.18042 0.452673 -0.0170158 -1.18106 0.00512439 -0.00498207 -1.17345 
0.35761 -0.0415495 -0.541885 0.0517555 -0.0348259 -1.17775 0.0192656 -0.0362027 -1.18178 
0.387364 -0.0355549 -1.19497 0.448514 -0.0445044 -1.17621 0.00499765 -0.00501213 -1.18501 
0.0429634 -0.0308951 -1.19501 0.414788 -0.00565431 -1.16857 0.0284837 -0.00939928 -1.13694 
0.00499497 -0.0302888 -1.1862 0.00501744 -0.0450065 -1.19501 0.0123469 -0.0123508 -1.18878 
0.137389 -0.0112024 -1.18859 0.0764774 -0.0158509 -1.18634 0.2745 -0.0436128 -1.18787 
0.0546685 -0.0449982 -1.19499 0.0705956 -0.0242724 -1.195 0.206781 -0.0449871 -0.245002 
0.0135941 -0.0252125 -1.18643 0.466736 -0.0137202 -1.18151 0.382488 -0.0267408 -1.19497 
0.413657 -0.0158418 -1.16902 0.107607 -0.0345662 -1.18757 0.181994 -0.0285468 -1.19255 
0.101961 -0.0447693 -1.19485 0.0429379 -0.0295309 -1.17903 0.238314 -0.0192716 -1.1856 
0.0560323 -0.0306641 -1.18592 0.494878 -0.00510132 -1.19487 0.417915 -0.0130783 -1.195 
0.0722959 -0.0190661 -1.16847 0.0379439 -0.0216017 -1.195 0.363244 -0.0421236 -1.0282 
0.451869 -0.00520305 -1.18813 0.464166 -0.0449935 -1.18501 0.0465044 -0.0350917 -1.1866 
0.379722 -0.0132535 -1.18051 0.491044 -0.0293081 -1.16961 0.459259 -0.00503011 -1.19493 
0.464859 -0.00527277 -1.18664 0.474669 -0.00601874 -1.19471 0.0317864 -0.00500922 -1.18634 
0.205039 -0.0253596 -0.245002 0.471486 -0.0386545 -1.18252 0.494469 -0.0151313 -1.19503 
0.0135174 -0.0450077 -1.17972 0.0334059 -0.0124996 -1.17992 0.494988 -0.027227 -1.19499 
0.0567495 -0.00510461 -1.19501 0.0206471 -0.0449208 -1.18674 0.04542 -0.0149738 -1.19501 
0.427194 -0.0222313 -1.18863 0.0192953 -0.0248696 -1.16139 0.35486 -0.00853859 -1.18627 
0.465225 -0.00615506 -1.16648 0.251537 -0.0421769 -1.19503 0.445347 -0.0215725 -1.19458 
0.473091 -0.0299544 -1.18727 0.485607 -0.0097032 -1.19493 0.426797 -0.0151931 -1.17115 
0.479386 -0.0450041 -1.18063 0.4304 -0.0363178 -1.195 0.0156074 -0.0173061 -1.18065 
0.0528039 -0.021899 -1.19501 0.451003 -0.0131668 -1.195 0.15595 -0.0239917 -1.19067 
0.0711629 -0.00503578 -1.18594 0.445964 -0.0421849 -1.19499 0.00502288 -0.0450076 -1.18502 
0.476226 -0.0167946 -1.19513 0.368671 -0.0280785 -1.17835 0.457288 -0.0209439 -1.19501 
0.0292402 -0.0265066 -1.19501 0.483919 -0.00781627 -1.17145 0.0149811 -0.00499771 -1.19502 
0.479273 -0.028489 -1.19499 0.00503011 -0.0350187 -1.19501 0.254808 -0.0179421 -1.19496 
0.0249175 -0.0330483 -1.17416 0.0243193 -0.0137931 -1.18405 0.0314421 -0.0448276 -1.18626 
0.458656 -0.0130919 -1.18856 0.117443 -0.0272236 -1.17928 0.420657 -0.0446946 -1.17366 
0.0367523 -0.00500529 -1.19501 0.0493438 -0.0225281 -1.165 0.39621 -0.0136978 -1.195 
0.0208624 -0.0130799 -1.19501 0.460341 -0.0450127 -1.17509 0.487195 -0.0357854 -1.18151 
0.218752 -0.0323085 -1.19467 0.0564431 -0.0240178 -1.17214 0.0813785 -0.0162879 -1.19502 
0.485695 -0.022706 -1.17964 0.0153534 -0.0271927 -1.17681 0.0526437 -0.0333979 -1.19495 
0.355393 -0.0277234 -1.19207 0.494999 -0.038218 -1.18728 0.481561 -0.00517307 -1.18702 
0.00499389 -0.0150094 -1.19501 0.0662317 -0.0137473 -1.18644 0.167205 -0.0210894 -1.18392 
0.022783 -0.0231344 -1.17063 0.335729 -0.00641754 -1.18716 0.467216 -0.0255936 -1.17364 
0.315971 -0.0159117 -1.18474 0.0261924 -0.0449119 -1.19504 0.409229 -0.0450393 -1.19501 
0.412217 -0.013341 -1.1867 0.00499189 -0.00500302 -1.19501 0.12224 -0.0407406 -1.18458 
0.0622828 -0.04361 -1.1468 0.392003 -0.0262432 -1.17677 0.474876 -0.0449688 -1.18955 
0.206346 -0.0153706 -0.245002 0.495018 -0.0295258 -1.18203 0.0788684 -0.0428382 -1.16511 
0.0471888 -0.0138932 -1.1809 0.455899 -0.0446959 -1.19483 0.463596 -0.0357644 -1.18902 
0.438515 -0.037431 -1.18898 0.0774167 -0.00624882 -1.19501 0.486089 -0.0206661 -1.19488 
0.480963 -0.0367577 -1.18931 0.00662364 -0.0445164 -1.17237 0.0620059 -0.0352779 -1.17705 
0.209152 -0.00951487 -1.19477 0.375833 -0.0345213 -1.19501 0.0456372 -0.0405599 -1.19501 
0.0802622 -0.0361575 -1.19044 0.434896 -0.0224589 -1.195 0.32239 -0.0248537 -1.1674 
0.425187 -0.0449469 -1.19499 0.401229 -0.00504492 -1.19501 0.0230561 -0.0137284 -1.17414 
0.0865001 -0.0449866 -1.18609 0.422565 -0.00502488 -1.17817 0.24551 -0.0445731 -0.266865 
0.44931 -0.0363047 -1.18762 0.089208 -0.0345745 -1.19495 0.0656345 -0.0069219 -1.17706 
0.0862169 -0.0230431 -1.17753 0.417713 -0.00499174 -1.18684 0.159575 -0.0127171 -1.195 
0.418021 -0.0379594 -1.195 0.0354364 -0.044922 -1.17642 0.0366104 -0.0449998 -1.19501 
0.0405922 -0.00751313 -1.17014 0.0144404 -0.0302524 -1.195 0.0267477 -0.00499872 -1.195 
0.0669144 -0.00500203 -1.195 0.494752 -0.0203445 -1.17321 0.456485 -0.0360378 -1.18063 
0.0361519 -0.0287173 -1.18803 0.0222018 -0.0215809 -1.18995 0.0734615 -0.0262603 -1.16168 
0.0259189 -0.00505171 -1.17825 0.263948 -0.0443228 -1.18756 0.430509 -0.0449561 -1.18649 
0.0533146 -0.0132043 -1.18913 0.443204 -0.0323378 -1.18072 0.0729737 -0.0079177 -1.16703 
0.466922 -0.0284917 -1.19502 0.0120206 -0.0379783 -1.18848 0.0576395 -0.0146437 -1.18022 
0.428692 -0.0144965 -1.19501 0.361359 -0.00651848 -0.744138 0.0685041 -0.0449848 -1.195 
0.0874381 -0.0051118 -1.19488 0.434173 -0.00500015 -1.19495 0.425711 -0.0215763 -1.17877 
0.409833 -0.0310968 -1.18066 0.484191 -0.0434579 -1.17194 0.0977231 -0.00511087 -1.19495 
0.415445 -0.0228159 -1.195 0.356578 -0.0231232 -0.501483 0.0911492 -0.0144117 -1.195 
0.133063 -0.0354874 -1.18898 0.0519607 -0.0434283 -1.18548 0.0715292 -0.0347061 -1.19504 
0.031772 -0.0136763 -1.19499 0.436438 -0.0279048 -1.18676 0.365543 -0.0151942 -1.13081 
0.409266 -0.0379021 -1.18797 0.428652 -0.0354907 -1.16454 0.20458 -0.0190251 -1.19483 
0.439204 -0.00501649 -1.18623 0.100825 -0.0249048 -1.19462 0.0819336 -0.0278785 -1.18516 
0.363879 -0.0355021 -1.19397 0.43579 -0.0449677 -1.195 0.322443 -0.0382659 -1.19491 
0.260739 -0.00520446 -1.19501 0.00500318 -0.0314301 -1.17067 0.444182 -0.031697 -1.195 
0.294612 -0.0188674 -1.19489 0.401993 -0.0450312 -1.18805 0.451373 -0.0132491 -1.17186 
0.109459 -0.00762164 -1.19502 0.0589374 -0.0449564 -1.17811 0.240709 -0.01071 -1.19475 
0.366598 -0.0136097 -1.18597 0.408605 -0.0302122 -1.195 0.434101 -0.0145458 -1.1866 
0.045334 -0.0236142 -1.18859 0.423431 -0.0289438 -1.19502 0.0329445 -0.0290694 -1.17857 
0.091751 -0.0447061 -1.19492 0.452749 -0.0269492 -1.1884 0.0421353 -0.0450178 -1.18669 
0.208006 -0.0333387 -1.19497 0.395898 -0.0302909 -1.19503 0.0616772 -0.0376652 -1.19501 
0.218539 -0.00541505 -1.19498 0.47445 -0.0192104 -1.18502 0.0156213 -0.0444073 -1.16672 
0.0713959 -0.0142567 -1.19499 0.10287 -0.0172182 -1.17568 0.401613 -0.0221121 -1.19498 
0.420493 -0.0301082 -1.17945 0.0968086 -0.0441824 -1.18538 0.287646 -0.00853176 -1.18953 
0.10188 -0.0148761 -1.19501 0.402265 -0.0307858 -1.1873 0.417897 -0.02141 -1.18503 
0.394442 -0.045035 -1.19504 0.452425 -0.00545122 -1.1781 0.365625 -0.0229967 -1.16095 
0.370397 -0.00543763 -1.19417 0.442163 -0.00782473 -1.17555 0.0683255 -0.042347 -1.18049 
0.0899264 -0.0243233 -1.195 0.196481 -0.0435761 -1.19254 0.390915 -0.022017 -1.19257 
0.444067 -0.0450027 -1.18555 0.0803143 -0.041015 -1.17918 0.406684 -0.00501499 -1.18656 
0.0532894 -0.0318526 -1.16579 0.0401997 -0.00518664 -1.17989 0.0595436 -0.0054117 -1.18512 
0.397112 -0.0226341 -1.18465 0.210163 -0.0261713 -1.18764 0.435789 -0.0211893 -1.17932 
0.071847 -0.0246543 -1.18509 0.406666 -0.0134712 -1.19502 0.25401 -0.0126981 -1.17981 
0.265765 -0.03676 -1.19451 0.240565 -0.0402831 -1.19223 0.391252 -0.00498299 -1.195 
0.0467475 -0.005011 -1.19501 0.0416862 -0.022032 -1.17141 0.226099 -0.0139553 -1.19494 
0.417672 -0.0346365 -1.17094 0.206856 -0.0390974 -1.18667 0.127313 -0.00781227 -1.19484 
0.16088 -0.0420227 -1.19188 0.0594655 -0.0213357 -1.18739 0.0611963 -0.0150711 -1.195 
0.416374 -0.0449694 -1.18806 0.402224 -0.03796 -1.19504 0.088216 -0.0364985 -1.15886 
0.227831 -0.00516384 -0.245002 0.216512 -0.0191917 -1.1946 0.387542 -0.0367872 -1.17978 
0.417661 -0.013852 -1.17831 0.0843274 -0.0325808 -1.17534 0.250471 -0.0217572 -1.18424 
0.116606 -0.013764 -1.18369 0.053688 -0.00585582 -1.17653 0.270298 -0.0167329 -1.195 
0.375566 -0.0149098 -1.19471 0.198742 -0.00641382 -1.1942 0.363535 -0.0416819 -0.879653 
0.408274 -0.022623 -1.18753 0.0657599 -0.0326652 -1.18717 0.363434 -0.0450473 -1.19167 
0.086002 -0.00847743 -1.17641 0.259275 -0.0293944 -1.18262 0.445495 -0.0128067 -1.18667 
0.406295 -0.0140411 -1.17771 0.0917944 -0.0432194 -1.17627 0.256517 -0.0296361 -1.19398 
0.334805 -0.01229 -1.17528 0.289512 -0.0426786 -1.19483 0.306533 -0.0128412 -1.19496 
0.40203 -0.00499583 -1.1777 0.311596 -0.0429097 -1.1943 0.237996 -0.0298806 -1.19483 
0.194586 -0.0311198 -1.19442 0.0888687 -0.0350453 -1.1846 0.384126 -0.0450222 -1.19502 
0.0616538 -0.0444986 -1.18771 0.429079 -0.004996 -1.18632 0.271262 -0.00555532 -1.18202 
0.327387 -0.0062287 -1.195 0.170352 -0.00881348 -1.19233 0.109258 -0.0245523 -1.18474 
0.219669 -0.0428487 -1.18515 0.167675 -0.0217529 -1.19495 0.342437 -0.0424868 -1.19497 
0.0611302 -0.0275934 -1.195 0.0931672 -0.00514459 -1.18564 0.249885 -0.00562214 -1.19328 
0.243805 -0.00612136 -1.18526 0.338832 -0.0112594 -0.925441 0.363516 -0.0180304 -1.19484 
0.389129 -0.0161535 -1.18469 0.207066 -0.0446623 -1.19499 0.140049 -0.0386056 -1.18145 
0.13344 -0.0444677 -1.1945 0.423404 -0.0132112 -1.18662 0.380991 -0.00501383 -1.19496 
0.114751 -0.0185426 -1.19498 0.451306 -0.0269046 -1.17843 0.199196 -0.0298442 -1.1766 
0.20769 -0.035006 -0.245002 0.388545 -0.0450387 -1.18584 0.385665 -0.0138558 -1.195 
0.412109 -0.0221231 -1.17688 0.387766 -0.0294777 -1.18665 0.0732091 -0.0326372 -1.17801 
0.397474 -0.0348094 -1.17923 0.00576972 -0.0372319 -1.16256 0.0816885 -0.0449421 -1.195 
0.405021 -0.0353207 -1.17263 0.086406 -0.024964 -1.16759 0.193573 -0.0153461 -1.19472 
0.183574 -0.00526166 -1.19476 0.231164 -0.00512575 -1.195 0.347276 -0.0154709 -1.19409 
0.349953 -0.00503388 -1.19443 0.410872 -0.0443986 -1.17027 0.111521 -0.0291742 -1.19502 
0.380359 -0.0395414 -1.18752 0.343261 -0.0444183 -1.18488 0.369496 -0.00754325 -1.17785 
0.0751668 -0.0449757 -1.18733 0.376564 -0.00515218 -1.18547 0.382651 -0.0444094 -1.17271 
0.14588 -0.029341 -1.19453 0.372482 -0.0246911 -1.19493 0.476898 -0.0284403 -1.178 
0.134507 -0.0137569 -1.17511 0.335699 -0.0194623 -1.19082 0.293632 -0.0389671 -1.18585 
0.22754 -0.0447863 -1.19469 0.30503 -0.0298469 -1.195 0.360822 -0.0079977 -1.19454 
0.401487 -0.0138123 -1.18651 0.431387 -0.0280139 -1.17325 0.322522 -0.0431581 -1.18598 
0.217574 -0.0426722 -1.19493 0.371824 -0.0296478 -0.961169 0.346012 -0.0311628 -0.81607 
0.412431 -0.00504872 -1.17832 0.362343 -0.03635 -1.17971 0.178623 -0.0181513 -1.19205 
0.37323 -0.0442382 -1.19497 0.380449 -0.0201672 -1.18772 0.298396 -0.00600726 -1.19291 
0.266471 -0.0265044 -1.19375 0.356921 -0.0188048 -1.18218 0.100254 -0.0348937 -1.19498 
0.275209 -0.00584238 -1.19423 0.209782 -0.0154004 -1.18661 0.144485 -0.0396372 -1.195 
0.442273 -0.0195764 -1.17188 0.350158 -0.0342234 -1.18443 0.353789 -0.0382086 -1.17224 
0.181786 -0.0442076 -1.19488 0.396457 -0.0448455 -1.17975 0.381871 -0.0229996 -1.17794 
0.222264 -0.0328137 -1.18536 0.396015 -0.0129857 -1.17819 0.370788 -0.037979 -1.18499 
0.41078 -0.0263854 -1.16727 0.264734 -0.0350008 -1.14081 0.231946 -0.0448643 -1.18456 
0.0763363 -0.00621572 -1.17743 0.288205 -0.0264128 -1.19443 0.268428 -0.0362597 -0.306561 
0.278903 -0.0401784 -1.17785 0.291318 -0.019224 -1.15811 0.422863 -0.0400237 -1.18228 
0.247144 -0.0335766 -1.18903 0.40196 -0.0261259 -1.17656 0.343914 -0.0168099 -0.446608 
0.275534 -0.0312204 -1.19368 0.389083 -0.0192349 -1.13947 0.23276 -0.0345832 -1.18197 
0.304936 -0.040892 -1.18385 0.322795 -0.0312138 -1.1791 0.0817597 -0.006774 -1.18601 
0.388579 -0.00531666 -1.17633 0.358583 -0.0356866 -0.781435 0.377044 -0.0319223 -1.17258 
0.461432 -0.0268839 -1.18283 0.0634862 -0.0256342 -1.17927 0.364851 -0.0265649 -1.18813 
0.324005 -0.0110055 -1.17248 0.386429 -0.00665702 -1.18636 0.201103 -0.0342129 -1.15206 
0.0961907 -0.020781 -1.18656 0.139987 -0.0202642 -1.19491 0.476709 -0.0166144 -1.16537 
0.319651 -0.0276595 -1.19293 0.472227 -0.028877 -1.16318 0.11192 -0.0430398 -1.19246 
0.457201 -0.0244395 -1.17 0.226414 -0.0246523 -1.19223 0.342653 -0.0382515 -1.06423 
0.125468 -0.0186049 -1.195 0.377391 -0.0296382 -1.18639 0.36703 -0.0392197 -1.15969 
0.262231 -0.0136571 -1.18983 0.394622 -0.0376187 -1.1884 
VERTICES 500 1000
1 0 
1 1 
1 2 
1 3 
1 4 
1 5 
1 6 
1 7 
1 8 
1 9 
1 10 
1 11 
1 12 
1 13 
1 14 
1 15 
1 16 
1 17 
1 18 
1 19 
1 20 
1 21 
1 22 
1 23 
1 24 
1 25 
1 26 
1 27 
1 28 
1 29 
1 30 
1 31 
1 32 
1 33 
1 34 
1 35 
1 36 
1 37 
1 38 
1 39 
1 40 
1 41 
1 42 
1 43 
1 44 
1 45 
1 46 
1 47 
1 48 
1 49 
1 50 
1 51 
1 52 
1 53 
1 54 
1 55 
1 56 
1 57 
1 58 
1 59 
1 60 
1 61 
1 62 
1 63 
1 64 
1 65 
1 66 
1 67 
1 68 
1 69 
1 70 
1 71 
1 72 
1 73 
1 74 
1 75 
1 76 
1 77 
1 78 
1 79 
1 80 
1 81 
1 82 
1 83 
1 84 
1 85 
1 86 
1 87 
1 88 
1 89 
1 90 
1 91 
1 92 
1 93 
1 94 
1 95 
1 96 
1 97 
1 98 
1 99 
1 100 
1 101 
1 102 
1 103 
1 104 
1 105 
1 106 
1 107 
1 108 
1 109 
1 110 
1 111 
1 112 
1 113 
1 114 
1 115 
1 116 
1 117 
1 118 
1 119 
1 120 
1 121 
1 122 
1 123 
1 124 
1 125 
1 126 
1 127 
1 128 
1 129 
1 130 
1 131 
1 132 
1 133 
1 134 
1 135 
1 136 
1 137 
1 138 
1 139 
1 140 
1 141 
1 142 
1 143 
1 144 
1 145 
1 146 
1 147 
1 148 
1 149 
1 150 
1 151 
1 152 
1 153 
1 154 
1 155 
1 156 
1 157 
1 158 
1 159 
1 160 
1 161 
1 162 
1 163 
1 164 
1 165 
1 166 
1 167 
1 168 
1 169 
1 170 
1 171 
1 172 
1 173 
1 174 
1 175 
1 176 
1 177 
1 178 
1 179 
1 180 
1 181 
1 182 
1 183 
1 184 
1 185 
1 186 
1 187 
1 188 
1 189 
1 190 
1 191 
1 192 
1 193 
1 194 
1 195 
1 196 
1 197 
1 198 
1 199 
1 200 
1 201 
1 202 
1 203 
1 204 
1 205 
1 206 
1 207 
1 208 
1 209 
1 210 
1 211 
1 212 
1 213 
1 214 
1 215 
1 216 
1 217 
1 218 
1 219 
1 220 
1 221 
1 222 
1 223 
1 224 
1 225 
1 226 
1 227 
1 228 
1 229 
1 230 
1 231 
1 232 
1 233 
1 234 
1 235 
1 236 
1 237 
1 238 
1 239 
1 240 
1 241 
1 242 
1 243 
1 244 
1 245 
1 246 
1 247 
1 248 
1 249 
1 250 
1 251 
1 252 
1 253 
1 254 
1 255 
1 256 
1 257 
1 258 
1 259 
1 260 
1 261 
1 262 
1 263 
1 264 
1 265 
1 266 
1 267 
1 268 
1 269 
1 270 
1 271 
1 272 
1 273 
1 274 
1 275 
1 276 
1 277 
1 278 
1 279 
1 280 
1 281 
1 282 
1 283 
1 284 
1 285 
1 286 
1 287 
1 288 
1 289 
1 290 
1 291 
1 292 
1 293 
1 294 
1 295 
1 296 
1 297 
1 298 
1 299 
1 300 
1 301 
1 302 
1 303 
1 304 
1 305 
1 306 
1 307 
1 308 
1 309 
1 310 
1 311 
1 312 
1 313 
1 314 
1 315 
1 316 
1 317 
1 318 
1 319 
1 320 
1 321 
1 322 
1 323 
1 324 
1 325 
1 326 
1 327 
1 328 
1 329 
1 330 
1 331 
1 332 
1 333 
1 334 
1 335 
1 336 
1 337 
1 338 
1 339 
1 340 
1 341 
1 342 
1 343 
1 344 
1 345 
1 346 
1 347 
1 348 
1 349 
1 350 
1 351 
1 352 
1 353 
1 354 
1 355 
1 356 
1 357 
1 358 
1 359 
1 360 
1 361 
1 362 
1 363 
1 364 
1 365 
1 366 
1 367 
1 368 
1 369 
1 370 
1 371 
1 372 
1 373 
1 374 
1 375 
1 376 
1 377 
1 378 
1 379 
1 380 
1 381 
1 382 
1 383 
1 384 
1 385 
1 386 
1 387 
1 388 
1 389 
1 390 
1 391 
1 392 
1 393 
1 394 
1 395 
1 396 
1 397 
1 398 
1 399 
1 400 
1 401 
1 402 
1 403 
1 404 
1 405 
1 406 
1 407 
1 408 
1 409 
1 410 
1 411 
1 412 
1 413 
1 414 
1 415 
1 416 
1 417 
1 418 
1 419 
1 420 
1 421 
1 422 
1 423 
1 424 
1 425 
1 426 
1 427 
1 428 
1 429 
1 430 
1 431 
1 432 
1 433 
1 434 
1 435 
1 436 
1 437 
1 438 
1 439 
1 440 
1 441 
1 442 
1 443 
1 444 
1 445 
1 446 
1 447 
1 448 
1 449 
1 450 
1 451 
1 452 
1 453 
1 454 
1 455 
1 456 
1 457 
1 458 
1 459 
1 460 
1 461 
1 462 
1 463 
1 464 
1 465 
1 466 
1 467 
1 468 
1 469 
1 470 
1 471 
1 472 
1 473 
1 474 
1 475 
1 476 
1 477 
1 478 
1 479 
1 480 
1 481 
1 482 
1 483 
1 484 
1 485 
1 486 
1 487 
1 488 
1 489 
1 490 
1 491 
1 492 
1 493 
1 494 
1 495 
1 496 
1 497 
1 498 
1 499 

POINT_DATA 500
FIELD FieldData 7
id 1 500 int
1 2 3 4 5 6 7 8 9 
10 11 12 13 14 15 16 17 18 
19 20 21 22 23 24 25 26 27 
28 29 30 31 32 33 34 35 36 
37 38 39 40 41 42 43 44 45 
46 47 48 49 50 51 52 53 54 
55 56 57 58 59 60 61 62 63 
64 65 66 67 68 69 70 71 72 
73 74 75 76 77 78 79 80 81 
82 83 84 85 86 87 88 89 90 
91 92 93 94 95 96 97 98 99 
100 101 102 103 104 105 106 107 108 
109 110 111 112 113 114 115 116 117 
118 119 120 121 122 123 124 125 126 
127 128 129 130 131 132 133 134 135 
136 137 138 139 140 141 142 143 144 
145 146 147 148 149 150 151 152 153 
154 155 156 157 158 159 160 161 162 
163 164 165 166 167 168 169 170 171 
172 173 174 175 176 177 178 179 180 
181 182 183 184 185 186 187 188 189 
190 191 192 193 194 195 196 197 198 
199 200 201 202 203 204 205 206 207 
208 209 210 211 212 213 214 215 216 
217 218 219 220 221 222 223 224 225 
226 227 228 229 230 231 232 233 234 
235 236 237 238 239 240 241 242 243 
244 245 246 247 248 249 250 251 252 
253 254 255 256 257 258 259 260 261 
262 263 264 265 266 267 268 269 270 
271 272 273 274 275 276 277 278 279 
280 281 282 283 284 285 286 287 288 
289 290 291 292 293 294 295 296 297 
298 299 300 301 302 303 304 305 306 
307 308 309 310 311 312 313 314 315 
316 317 318 319 320 321 322 323 324 
325 326 327 328 329 330 331 332 333 
334 335 336 337 338 339 340 341 342 
343 344 345 346 347 348 349 350 351 
352 353 354 355 356 357 358 359 360 
361 362 363 364 365 366 367 368 369 
370 371 372 373 374 375 376 377 378 
379 380 381 382 383 384 385 386 387 
388 389 390 391 392 393 394 395 396 
397 398 399 400 401 402 403 404 405 
406 407 408 409 410 411 412 413 414 
415 416 417 418 419 420 421 422 423 
424 425 426 427 428 429 430 431 432 
433 434 435 436 437 438 439 440 441 
442 443 444 445 446 447 448 449 450 
451 452 453 454 455 456 457 458 459 
460 461 462 463 464 465 466 467 468 
469 470 471 472 473 474 475 476 477 
478 479 480 481 482 483 484 485 486 
487 488 489 490 491 492 493 494 495 
496 497 498 499 500 
type 1 500 int
1 1 1 1 1 1 1 1 1 
1 1 1 1 1 1 1 1 1 
1 1 1 1 1 1 1 1 1 
1 1 1 1 1 1 1 1 1 
1 1 1 1 1 1 1 1 1 
1 1 1 1 1 1 1 1 1 
1 1 1 1 1 1 1 1 1 
1 1 1 1 1 1 1 1 1 
1 1 1 1 1 1 1 1 1 
1 1 1 1 1 1 1 1 1 
1 1 1 1 1 1 1 1 1 
1 1 1 1 1 1 1 1 1 
1 1 1 1 1 1 1 1 1 
1 1 1 1 1 1 1 1 1 
1 1 1 1 1 1 1 1 1 
1 1 1 1 1 1 1 1 1 
1 1 1 1 1 1 1 1 1 
1 1 1 1 1 1 1 1 1 
1 1 1 1 1 1 1 1 1 
1 1 1 1 1 1 1 1 1 
1 1 1 1 1 1 1 1 1 
1 1 1 1 1 1 1 1 1 
1 1 1 1 1 1 1 1 1 
1 1 1 1 1 1 1 1 1 
1 1 1 1 1 1 1 1 1 
1 1 1 1 1 1 1 1 1 
1 1 1 1 1 1 1 1 1 
1 1 1 1 1 1 1 1 1 
1 1 1 1 1 1 1 1 1 
1 1 1 1 1 1 1 1 1 
1 1 1 1 1 1 1 1 1 
1 1 1 1 1 1 1 1 1 
1 1 1 1 1 1 1 1 1 
1 1 1 1 1 1 1 1 1 
1 1 1 1 1 1 1 1 1 
1 1 1 1 1 1 1 1 1 
1 1 1 1 1 1 1 1 1 
1 1 1 1 1 1 1 1 1 
1 1 1 1 1 1 1 1 1 
1 1 1 1 1 1 1 1 1 
1 1 1 1 1 1 1 1 1 
1 1 1 1 1 1 1 1 1 
1 1 1 1 1 1 1 1 1 
1 1 1 1 1 1 1 1 1 
1 1 1 1 1 1 1 1 1 
1 1 1 1 1 1 1 1 1 
1 1 1 1 1 1 1 1 1 
1 1 1 1 1 1 1 1 1 
1 1 1 1 1 1 1 1 1 
1 1 1 1 1 1 1 1 1 
1 1 1 1 1 1 1 1 1 
1 1 1 1 1 1 1 1 1 
1 1 1 1 1 1 1 1 1 
1 1 1 1 1 1 1 1 1 
1 1 1 1 1 1 1 1 1 
1 1 1 1 1 
i 3 500 int
0 0 0 0 0 0 0 0 0 
0 0 0 0 0 0 0 0 0 
0 0 0 0 0 0 0 0 0 
0 0 0 0 0 0 0 0 0 
0 0 0 0 0 0 0 0 0 
0 0 0 0 0 0 0 0 0 
0 0 0 0 0 0 0 0 0 
0 0 0 0 0 0 0 0 0 
0 0 0 0 0 0 0 0 0 
0 0 0 0 0 0 0 0 0 
0 0 0 0 0 0 0 0 0 
0 0 0 0 0 0 0 0 0 
0 0 0 0 0 0 0 0 0 
0 0 0 0 0 0 0 0 0 
0 0 0 0 0 0 0 0 0 
0 0 0 0 0 0 0 0 0 
0 0 0 0 0 0 0 0 0 
0 0 0 0 0 0 0 0 0 
0 0 0 0 0 0 0 0 0 
0 0 0 0 0 0 0 0 0 
0 0 0 0 0 0 0 0 0 
0 0 0 0 0 0 0 0 0 
0 0 0 0 0 0 0 0 0 
0 0 0 0 0 0 0 0 0 
0 0 0 0 0 0 0 0 0 
0 0 0 0 0 0 0 0 0 
0 0 0 0 0 0 0 0 0 
0 0 0 0 0 0 0 0 0 
0 0 0 0 0 0 0 0 0 
0 0 0 0 0 0 0 0 0 
0 0 0 0 0 0 0 0 0 
0 0 0 0 0 0 0 0 0 
0 0 0 0 0 0 0 0 0 
0 0 0 0 0 0 0 0 0 
0 0 0 0 0 0 0 0 0 
0 0 0 0 0 0 0 0 0 
0 0 0 0 0 0 0 0 0 
0 0 0 0 0 0 0 0 0 
0 0 0 0 0 0 0 0 0 
0 0 0 0 0 0 0 0 0 
0 0 0 0 0 0 0 0 0 
0 0 0 0 0 0 0 0 0 
0 0 0 0 0 0 0 0 0 
0 0 0 0 0 0 0 0 0 
0 0 0 0 0 0 0 0 0 
0 0 0 0 0 0 0 0 0 
0 0 0 0 0 0 0 0 0 
0 0 0 0 0 0 0 0 0 
0 0 0 0 0 0 0 0 0 
0 0 0 0 0 0 0 0 0 
0 0 0 0 0 0 0 0 0 
0 0 0 0 0 0 0 0 0 
0 0 0 0 0 0 0 0 0 
0 0 0 0 0 0 0 0 0 
0 0 0 0 0 0 0 0 0 
0 0 0 0 0 0 0 0 0 
0 0 0 0 0 0 0 0 0 
0 0 0 0 0 0 0 0 0 
0 0 0 0 0 0 0 0 0 
0 0 0 0 0 0 0 0 0 
0 0 0 0 0 0 0 0 0 
0 0 0 0 0 0 0 0 0 
0 0 0 0 0 0 0 0 0 
0 0 0 0 0 0 0 0 0 
0 0 0 0 0 0 0 0 0 
0 0 0 0 0 0 0 0 0 
0 0 0 0 0 0 0 0 0 
0 0 0 0 0 0 0 0 0 
0 0 0 0 0 0 0 0 0 
0 0 0 0 0 0 0 0 0 
0 0 0 0 0 0 0 0 0 
0 0 0 0 0 0 0 0 0 
0 0 0 0 0 0 0 0 0 
0 0 0 0 0 0 0 0 0 
0 0 0 0 0 0 0 0 0 
0 0 0 0 0 0 0 0 0 
0 0 0 0 0 0 0 0 0 
0 0 0 0 0 0 0 0 0 
0 0 0 0 0 0 0 0 0 
0 0 0 0 0 0 0 0 0 
0 0 0 0 0 0 0 0 0 
0 0 0 0 0 0 0 0 0 
0 0 0 0 0 0 0 0 0 
0 0 0 0 0 0 0 0 0 
0 0 0 0 0 0 0 0 0 
0 0 0 0 0 0 0 0 0 
0 0 0 0 0 0 0 0 0 
0 0 0 0 0 0 0 0 0 
0 0 0 0 0 0 0 0 0 
0 0 0 0 0 0 0 0 0 
0 0 0 0 0 0 0 0 0 
0 0 0 0 0 0 0 0 0 
0 0 0 0 0 0 0 0 0 
0 0 0 0 0 0 0 0 0 
0 0 0 0 0 0 0 0 0 
0 0 0 0 0 0 0 0 0 
0 0 0 0 0 0 0 0 0 
0 0 0 0 0 0 0 0 0 
0 0 0 0 0 0 0 0 0 
0 0 0 0 0 0 0 0 0 
0 0 0 0 0 0 0 0 0 
0 0 0 0 0 0 0 0 0 
0 0 0 0 0 0 0 0 0 
0 0 0 0 0 0 0 0 0 
0 0 0 0 0 0 0 0 0 
0 0 0 0 0 0 0 0 0 
0 0 0 0 0 0 0 0 0 
0 0 0 0 0 0 0 0 0 
0 0 0 0 0 0 0 0 0 
0 0 0 0 0 0 0 0 0 
0 0 0 0 0 0 0 0 0 
0 0 0 0 0 0 0 0 0 
0 0 0 0 0 0 0 0 0 
0 0 0 0 0 0 0 0 0 
0 0 0 0 0 0 0 0 0 
0 0 0 0 0 0 0 0 0 
0 0 0 0 0 0 0 0 0 
0 0 0 0 0 0 0 0 0 
0 0 0 0 0 0 0 0 0 
0 0 0 0 0 0 0 0 0 
0 0 0 0 0 0 0 0 0 
0 0 0 0 0 0 0 0 0 
0 0 0 0 0 0 0 0 0 
0 0 0 0 0 0 0 0 0 
0 0 0 0 0 0 0 0 0 
0 0 0 0 0 0 0 0 0 
0 0 0 0 0 0 0 0 0 
0 0 0 0 0 0 0 0 0 
0 0 0 0 0 0 0 0 0 
0 0 0 0 0 0 0 0 0 
0 0 0 0 0 0 0 0 0 
0 0 0 0 0 0 0 0 0 
0 0 0 0 0 0 0 0 0 
0 0 0 0 0 0 0 0 0 
0 0 0 0 0 0 0 0 0 
0 0 0 0 0 0 0 0 0 
0 0 0 0 0 0 0 0 0 
0 0 0 0 0 0 0 0 0 
0 0 0 0 0 0 0 0 0 
0 0 0 0 0 0 0 0 0 
0 0 0 0 0 0 0 0 0 
0 0 0 0 0 0 0 0 0 
0 0 0 0 0 0 0 0 0 
0 0 0 0 0 0 0 0 0 
0 0 0 0 0 0 0 0 0 
0 0 0 0 0 0 0 0 0 
0 0 0 0 0 0 0 0 0 
0 0 0 0 0 0 0 0 0 
0 0 0 0 0 0 0 0 0 
0 0 0 0 0 0 0 0 0 
0 0 0 0 0 0 0 0 0 
0 0 0 0 0 0 0 0 0 
0 0 0 0 0 0 0 0 0 
0 0 0 0 0 0 0 0 0 
0 0 0 0 0 0 0 0 0 
0 0 0 0 0 0 0 0 0 
0 0 0 0 0 0 0 0 0 
0 0 0 0 0 0 0 0 0 
0 0 0 0 0 0 0 0 0 
0 0 0 0 0 0 0 0 0 
0 0 0 0 0 0 0 0 0 
0 0 0 0 0 0 0 0 0 
0 0 0 0 0 0 0 0 0 
0 0 0 0 0 0 0 0 0 
0 0 0 0 0 0 0 0 0 
0 0 0 0 0 0 0 0 0 
0 0 0 0 0 0 
v 3 500 double
-0.144337 0.00682698 -0.0383171 -0.143841 0.0354613 -0.0401888 0.00224828 -0.0356642 -0.0292008 
0.03674 -0.0318903 -0.0466614 0.0205686 -0.0130808 -0.0471016 -0.0874323 -0.0370017 0.0256375 
0.114958 0.0486339 -0.0773426 0.116776 0.169952 -0.385484 0.110561 0.00380974 0.0593237 
-0.0673405 0.00301243 -0.182473 -0.098022 -0.0111516 0.0413187 -0.0116008 0.0218274 -0.0401579 
-0.0304809 -0.128598 -0.223091 -0.046672 0.0739002 0.0242715 0.0512452 -0.0246552 -0.0150097 
-0.207669 -0.0035477 -0.0122395 -0.000436817 0.00262328 0.00518752 0.0359101 0.00191864 -0.0574046 
0.0274556 -0.0114825 -0.000103749 -0.0193145 -0.112206 -0.0190567 -0.0358244 0.0175628 0.00842734 
-0.43196 -0.0517939 -0.122732 0.00181091 -0.0231196 2.91632e-05 0.0807117 -0.0133072 0.0309823 
-0.227124 -0.179399 -0.498937 -0.158572 0.00841374 0.0653938 -0.0809064 -0.0348733 0.00166981 
-0.0932527 0.0102185 -0.0072585 -0.179616 -0.0579426 0.0383429 0.0548688 0.0502093 0.0185334 
0.023345 -0.000980273 -0.00388518 -0.135768 -0.0384319 0.0630861 -0.277133 0.109726 -0.0636504 
-0.0518892 0.107721 -0.00479653 -0.278563 -0.166431 -0.128345 0.0245847 -0.038941 -0.0211622 
-0.115908 -0.00994595 -0.000112226 -0.00445433 0.00926384 0.0172365 0.00328803 0.0247844 -0.009999 
-0.0161988 -0.033682 0.0395903 0.0207866 -0.0212487 -2.66984e-05 -0.343381 -0.0283054 0.0665264 
0.0409814 -0.041244 -0.00791864 -0.128852 -0.0187063 -0.0874196 -0.101455 -0.0480568 -0.184011 
-0.136984 0.0208768 0.00284446 -0.0215986 0.0117219 0.018289 0.0060015 -0.0770233 -0.0235014 
-0.00637404 -0.00913161 -0.0494609 -0.184193 0.0447495 -0.00122563 -0.186709 -0.0144463 -0.0288981 
-0.034639 0.0108169 -0.0171784 0.0444654 0.00163227 -0.00324024 0.0539766 0.0483018 -0.0212191 
-0.00493096 0.0170072 0.0240284 -0.0211502 0.0700292 -0.00669831 0.0389739 0.00541216 0.00572541 
0.0873422 -0.133275 -0.0783382 0.0171766 0.0237968 -0.00983652 0.0335697 0.007593 0.0272324 
-0.00596014 -0.0532126 0.0259945 -0.169408 -0.0303047 0.00844442 -0.0305477 -0.0169371 -0.0722099 
0.0573149 0.0566392 -0.0388513 0.248869 -0.0489031 -0.0876828 -0.124947 0.0143951 0.0114019 
-0.332296 -0.224448 -0.168001 -0.313265 -0.603114 -0.0911265 -0.0772415 -7.07031e-05 0.00699949 
0.00351308 -0.029294 0.0060192 -0.0840944 -0.0383053 -0.0306906 -0.0295369 0.0151838 -0.0245888 
-0.0182813 -0.042573 -0.043291 0.00928389 -0.0558678 0.00322248 -2.98872e-05 -0.0657629 -0.0191102 
0.139102 -0.0552419 -0.0766805 0.0133916 0.0049587 -0.0141153 -0.379187 0.0704691 -0.198386 
-0.194433 0.0163313 -0.0107233 -0.025865 0.0524819 -0.113037 0.147061 0.0669465 -0.177905 
0.0822206 -0.0151057 -0.0442036 -0.0519547 -0.082594 -0.0957854 -0.0482289 0.0445683 -0.076123 
0.0524946 -0.0185243 -2.34411 0.048635 0.0140721 -0.153355 0.0436441 0.00398678 -0.0317639 
-0.166668 0.00922723 -0.0510987 -0.00559481 0.0323265 -0.0687436 -0.00704831 -0.0118118 0.0156297 
0.0847433 0.00486362 -0.0102294 -0.220142 0.00404523 -0.0130412 0.183993 -0.0524007 -0.373484 
0.00368038 0.0037341 0.0153513 0.0031586 -0.00277801 0.00425351 0.0445454 -0.0273594 -0.00676073 
-0.778812 -0.136326 0.0462023 0.072376 0.0525255 0.0122675 -0.186917 -0.413271 -0.696058 
0.0442486 -0.000251755 0.0185891 -0.00591959 0.000443973 0.00204482 0.00192597 0.0025862 9.41743e-06 
0.0206733 0.0242009 -0.0112874 0.0136384 -0.0124093 -0.0391501 -0.155983 0.00596742 -0.0326709 
-0.345709 -0.11004 -0.0615516 0.081676 -0.0757359 -0.226414 -0.62965 -0.280119 -0.144476 
0.0245524 -0.101873 0.0546548 0.10952 0.0323235 -0.0601304 -0.544884 0.137805 0.00504891 
0.0650404 -0.00634834 -0.0494601 -0.00225877 0.0182647 -0.0226699 -0.168903 0.0109467 0.00504923 
0.1655 -0.0243073 -0.07873 0.0330001 0.0438088 -0.000691123 0.0395309 0.0464237 -3.88272 
-0.0845422 -0.0124666 0.0150326 -0.0937718 0.00418088 0.0737812 0.124512 0.0319741 -0.0083418 
-0.087382 -0.0932431 0.188971 -0.103286 -0.222997 -0.139147 -0.0684315 -0.00380212 0.0103379 
0.00513504 0.0731067 -0.0674988 0.0336485 0.11346 -0.0106352 -0.00995321 0.0279102 -0.00803125 
0.000380099 -0.00357507 -6.38885e-12 -0.0516512 0.0599856 -0.0490331 -0.0123744 0.00720833 0.0132122 
0.0376466 0.0379918 -0.0843767 -0.0258118 0.000269175 -0.0469997 -0.0130966 -0.0460609 -0.0138472 
-0.0066505 -0.0120555 -0.0120117 0.0245541 0.0356891 -0.00823421 0.0703527 -0.0011528 0.00400198 
-0.142345 0.0201359 0.00490291 0.0322995 0.0545705 -0.103719 -0.372663 0.188579 0.126777 
-0.118533 0.0128783 0.0444275 -0.553997 0.031363 -0.000497136 -0.0834786 0.029545 -0.0917411 
-0.0800466 0.0432914 -0.00753782 0.0391093 0.00438721 0.00234881 -0.221413 0.0760122 -0.0620755 
-0.0637227 0.0217722 -0.0482125 -0.159715 0.0324437 -0.000115053 0.0453779 0.0205007 0.0181296 
0.0729375 -0.00537907 0.0095578 -0.0637879 0.036678 -0.00194539 -0.602693 0.359333 -0.0716399 
0.213101 -0.0173881 -0.0762584 -0.176319 -0.0516068 0.00218813 0.000720689 0.00945914 0.0104752 
0.0497262 -0.0607637 0.0329152 -0.101065 -0.0255895 0.145398 -0.0794835 0.0164563 -0.000265529 
0.0409258 -0.00286695 -0.00764101 -0.0168287 -0.0581269 -0.0896059 0.0121687 -0.00241511 0.00797813 
-0.0993399 0.0278699 -0.00176646 0.0116497 -0.0124475 0.00825267 -0.439797 -0.0501041 -0.0116052 
0.0790009 0.0108145 -0.0506216 0.034087 0.00101308 -0.0161714 0.0269581 0.0184134 0.0105219 
-0.0123644 0.0234774 -0.0508389 -0.172207 0.382547 -0.400525 -0.122251 -0.0484575 -0.011489 
0.0172863 -0.00606669 0.00372223 0.0685321 0.16544 0.00358154 -0.198179 -0.0123099 -0.028435 