# vtk DataFile Version 4.0
Generated by LIGGGHTS
ASCII
DATASET POLYDATA
POINTS 500 float
0.421629 -0.0450038 -1.18147 0.425374 -0.0293816 -1.18687 0.00505508 -0.0250045 -1.19501 
0.0387923 -0.0203263 -1.1746 0.0168547 -0.0223897 -1.17252 0.0359138 -0.00499965 -1.17547 
0.0449636 -0.0364227 -1.18621 0.0321172 -0.0450004 -1.17648 0.0893623 -0.0143273 -1.17772 
0.469202 -0.00502426 -1.18501 0.355801 -0.0387692 -1.19219 0.463534 -0.0132658 -1.195 
0.0214362 -0.0142054 -1.16905 0.319286 -0.0050251 -1.195 0.0434336 -0.0114621 -1.17417 
0.388553 -0.0282251 -1.195 0.0277002 -0.0450054 -1.18545 0.495001 -0.0450009 -1.18514 
0.0402384 -0.0360202 -1.19501 0.482066 -0.0137198 -1.18713 0.00544735 -0.0199195 -1.17186 
0.178475 -0.0284845 -1.18619 0.493409 -0.0450004 -1.195 0.0533102 -0.00499374 -1.18647 
0.167493 -0.0276492 -1.18605 0.386857 -0.0448435 -1.18474 0.48571 -0.0286863 -1.19501 
0.457287 -0.0450018 -1.19501 0.315144 -0.0151669 -1.195 0.0943672 -0.0136548 -1.18635 
0.0342376 -0.0205224 -1.18781 0.441107 -0.0450007 -1.18636 0.412322 -0.0144356 -1.18513 
0.460466 -0.020413 -1.18872 0.20679 -0.0335167 -1.195 0.0333368 -0.037122 -1.18787 
0.401609 -0.00503275 -1.19501 0.0148716 -0.0434736 -1.19501 0.038042 -0.0373705 -1.17906 
0.495003 -0.0100021 -1.18635 0.224088 -0.0396995 -0.245002 0.112794 -0.0276846 -1.195 
0.0691152 -0.00893342 -1.17153 0.41982 -0.0377352 -1.1881 0.117788 -0.036344 -1.195 
0.466998 -0.0350051 -1.195 0.00540881 -0.0369212 -1.17915 0.00499835 -0.020001 -1.18636 
0.485177 -0.0450014 -1.18727 0.430374 -0.0206586 -1.18793 0.386087 -0.00514409 -1.19494 
0.477907 -0.0450008 -1.195 0.0215615 -0.00499965 -1.18747 0.0601224 -0.0450009 -1.16923 
0.00991558 -0.0249925 -1.17923 0.0148672 -0.0336778 -1.17926 0.0843468 -0.0223887 -1.195 
0.0684126 -0.0189172 -1.17154 0.0140789 -0.00499912 -1.18084 0.0430003 -0.0293111 -1.17584 
0.0266178 -0.0351826 -1.19501 0.450144 -0.0358451 -1.19501 0.01485 -0.0147138 -1.17861 
0.0439458 -0.0208237 -1.1853 0.076248 -0.0450013 -1.17828 0.429605 -0.0136237 -1.19501 
0.434541 -0.0306924 -1.17884 0.445416 -0.0273091 -1.1812 0.436262 -0.00501277 -1.195 
0.00499912 -0.0130858 -1.17914 0.485657 -0.038684 -1.195 0.492096 -0.0199943 -1.18685 
0.042732 -0.0117332 -1.18927 0.0136808 -0.0199467 -1.19501 0.0550813 -0.045003 -1.17786 
0.0537044 -0.0202985 -1.18741 0.01943 -0.00499903 -1.1724 0.418611 -0.00499921 -1.18444 
0.404801 -0.0314298 -1.19501 0.492372 -0.0370233 -1.17971 0.0497021 -0.0366038 -1.17721 
0.0277263 -0.0281019 -1.18805 0.445203 -0.0199927 -1.18834 0.00711909 -0.00499803 -1.17366 
0.179357 -0.0394137 -1.17527 0.0602391 -0.0364385 -1.1777 0.0214711 -0.0357887 -1.18647 
0.302292 -0.0373639 -1.18743 0.43292 -0.0447567 -1.18063 0.00499673 -0.00499748 -1.18502 
0.050227 -0.0364267 -1.19501 0.406677 -0.0219301 -1.1758 0.0599726 -0.0049997 -1.17056 
0.0049934 -0.0299991 -1.18635 0.00499553 -0.0450017 -1.19501 0.011793 -0.0117941 -1.18841 
0.126231 -0.00500175 -1.18634 0.0843588 -0.0136533 -1.18635 0.191049 -0.0449959 -1.19501 
0.065355 -0.0449961 -1.19501 0.0738734 -0.0221305 -1.195 0.207609 -0.0449984 -0.245002 
0.0143859 -0.0269887 -1.18795 0.461927 -0.0120159 -1.18349 0.292698 -0.0146448 -1.195 
0.3683 -0.00657938 -1.18782 0.107791 -0.0421194 -1.18684 0.136212 -0.0309598 -1.195 
0.102785 -0.045001 -1.195 0.0499947 -0.0284289 -1.18294 0.176233 -0.0138139 -1.195 
0.0602306 -0.027783 -1.18627 0.495001 -0.00499781 -1.195 0.393163 -0.0123099 -1.19501 
0.101435 -0.0149904 -1.1794 0.0411247 -0.0197513 -1.19501 0.255406 -0.00948347 -1.18746 
0.443834 -0.00500053 -1.18847 0.462614 -0.0450055 -1.18616 0.0552155 -0.0364302 -1.18634 
0.27458 -0.0162146 -1.19488 0.489093 -0.0259825 -1.17943 0.451402 -0.00499531 -1.19501 
0.460282 -0.00499695 -1.19042 0.469162 -0.0050015 -1.19501 0.0336762 -0.00499389 -1.18606 
0.205214 -0.0249117 -0.245002 0.467628 -0.0364159 -1.18513 0.495003 -0.0149958 -1.19501 
0.0177064 -0.045005 -1.18555 0.0367633 -0.0132792 -1.1814 0.495002 -0.0249944 -1.19501 
0.0583304 -0.00630526 -1.19501 0.0247495 -0.0450029 -1.195 0.0503426 -0.0147452 -1.19501 
0.412313 -0.0232914 -1.195 0.0220126 -0.0316341 -1.17249 0.248478 -0.0183169 -1.18662 
0.453128 -0.0049968 -1.18343 0.188186 -0.0268863 -1.195 0.437728 -0.020311 -1.195 
0.468436 -0.0261693 -1.19055 0.48571 -0.0086895 -1.195 0.425054 -0.0207567 -1.17946 
0.472603 -0.0450011 -1.18653 0.412526 -0.0378707 -1.195 0.0192165 -0.0183086 -1.18685 
0.060018 -0.018815 -1.19501 0.444858 -0.0125519 -1.195 0.131232 -0.0165347 -1.18684 
0.0793682 -0.00499538 -1.18635 0.436077 -0.0449145 -1.195 0.00499802 -0.0450039 -1.18501 
0.475913 -0.013469 -1.19501 0.231626 -0.0305254 -1.18704 0.452565 -0.0211507 -1.19501 
0.0348915 -0.0275702 -1.195 0.486458 -0.00499804 -1.18498 0.0149961 -0.00499906 -1.19501 
0.477012 -0.0236097 -1.195 0.00499805 -0.0350029 -1.19501 0.186226 -0.00800099 -1.18688 
0.0285563 -0.0342407 -1.17958 0.0276292 -0.0129202 -1.18674 0.0397626 -0.0449981 -1.18636 
0.45387 -0.012937 -1.18946 0.11956 -0.0123471 -1.18768 0.396105 -0.0449606 -1.1914 
0.038118 -0.00499096 -1.19501 0.0573518 -0.0134341 -1.17587 0.22678 -0.0150103 -1.18199 
0.021556 -0.0125468 -1.195 0.451714 -0.0448757 -1.18671 0.485682 -0.0336789 -1.18635 
0.154639 -0.0363536 -1.195 0.0615926 -0.0222638 -1.17805 0.0893618 -0.0136653 -1.195 
0.482804 -0.0236885 -1.18685 0.0212357 -0.026035 -1.18073 0.0602238 -0.036201 -1.195 
0.236495 -0.0346695 -1.195 0.495001 -0.0351284 -1.195 0.477845 -0.00499841 -1.19006 
0.00499726 -0.0149937 -1.19501 0.0737302 -0.0132424 -1.18677 0.141142 -0.0280386 -1.18681 
0.0310117 -0.0245542 -1.17925 0.234742 -0.00829776 -1.18661 0.465203 -0.0207606 -1.17992 
0.196089 -0.0437386 -1.18646 0.0347471 -0.0449893 -1.195 0.376788 -0.0448811 -1.195 
0.382996 -0.0152315 -1.19266 0.00499837 -0.0049976 -1.19501 0.117787 -0.0430406 -1.18657 
0.0152125 -0.0387282 -1.17064 0.284898 -0.00562394 -1.18603 0.467287 -0.0450003 -1.195 
0.208351 -0.0152914 -0.245002 0.495002 -0.0300584 -1.18639 0.0964655 -0.0240384 -1.17952 
0.049457 -0.0130521 -1.18199 0.446135 -0.0450021 -1.195 0.458625 -0.0365892 -1.18977 
0.427026 -0.0368732 -1.19501 0.0843717 -0.00499974 -1.19501 0.485714 -0.0186875 -1.195 
0.476931 -0.0337999 -1.195 0.0116751 -0.0450013 -1.17757 0.0653764 -0.0363539 -1.18627 
0.16123 -0.00500005 -1.195 0.284709 -0.0313484 -1.195 0.0553574 -0.0450034 -1.19501 
0.0841384 -0.0308264 -1.18643 0.423239 -0.0213249 -1.195 0.235418 -0.013706 -1.195 
0.405439 -0.0449261 -1.195 0.36128 -0.00512205 -1.19489 0.0245793 -0.0169794 -1.17813 
0.0908466 -0.0380702 -1.18802 0.404003 -0.00620466 -1.18172 0.295132 -0.00507571 -1.08942 
0.437989 -0.0347946 -1.195 0.0892612 -0.031097 -1.19501 0.0712951 -0.0049983 -1.18046 
0.106453 -0.0236311 -1.17978 0.39422 -0.00499775 -1.18827 0.131231 -0.00499487 -1.195 
0.395226 -0.0356574 -1.195 0.0442931 -0.0450044 -1.17745 0.0447869 -0.0449658 -1.195 
0.0519745 -0.00500096 -1.17656 0.0167385 -0.0336526 -1.19501 0.0281223 -0.00500441 -1.19501 
0.0743737 -0.00505288 -1.19501 0.4887 -0.0139373 -1.17966 0.444054 -0.0354745 -1.18709 
0.045565 -0.0281492 -1.19191 0.0233804 -0.0223789 -1.195 0.0725854 -0.0344302 -1.17962 
0.0267188 -0.0065894 -1.17905 0.174516 -0.040934 -1.18718 0.412558 -0.0450038 -1.18798 
0.0599074 -0.0124614 -1.18729 0.432612 -0.036514 -1.18673 0.0786223 -0.0161222 -1.17854 
0.459708 -0.0281466 -1.19501 0.0112552 -0.0376771 -1.18768 0.0665004 -0.0137528 -1.17989 
0.411197 -0.0133422 -1.195 0.271527 -0.0241005 -1.18638 0.0754472 -0.0450005 -1.195 
0.0943716 -0.00500025 -1.195 0.418444 -0.00499549 -1.19501 0.406292 -0.0224583 -1.18593 
0.34305 -0.011885 -1.19402 0.479064 -0.0393305 -1.18143 0.104371 -0.00499912 -1.195 
0.377856 -0.0241527 -1.195 0.268413 -0.0364132 -1.18351 0.0993591 -0.0136682 -1.19501 
0.12443 -0.0356137 -1.18562 0.060361 -0.0450025 -1.18635 0.0790013 -0.0308716 -1.195 
0.0331801 -0.0136801 -1.19501 0.419325 -0.0305111 -1.19501 0.230723 -0.0404324 -1.18616 
0.375879 -0.0344682 -1.19499 0.41307 -0.0380761 -1.18072 0.151236 -0.0223273 -1.195 
0.427348 -0.00501184 -1.19046 0.102799 -0.0276797 -1.19501 0.0893592 -0.0223062 -1.18634 
0.146021 -0.0430266 -1.17871 0.419689 -0.044971 -1.195 0.221661 -0.0449889 -1.195 
0.201222 -0.00498988 -1.195 0.00499975 -0.0299058 -1.17204 0.430946 -0.0276861 -1.19501 
0.207678 -0.0235501 -1.195 0.346617 -0.035587 -1.19489 0.446398 -0.0122701 -1.1821 
0.112804 -0.0103682 -1.195 0.0654024 -0.0450008 -1.17772 0.181225 -0.00500189 -1.195 
0.265254 -0.0050599 -1.18625 0.368032 -0.0262562 -1.195 0.421095 -0.0130879 -1.18977 
0.0550601 -0.0276061 -1.195 0.401763 -0.021902 -1.195 0.0383482 -0.0290838 -1.18469 
0.0927812 -0.0449922 -1.195 0.444757 -0.0274249 -1.195 0.0500759 -0.0450045 -1.18652 
0.146213 -0.0309719 -1.195 0.257824 -0.0316728 -1.1861 0.0702215 -0.0360137 -1.19501 
0.156234 -0.00789317 -1.18684 0.469674 -0.016616 -1.18786 0.0226255 -0.0419846 -1.17738 
0.079364 -0.0137191 -1.19501 0.106142 -0.0122765 -1.1878 0.349668 -0.0218375 -1.19293 
0.398234 -0.0292458 -1.18779 0.0978455 -0.0450017 -1.18631 0.230416 -0.00500002 -1.195 
0.107801 -0.0190234 -1.195 0.334224 -0.0177524 -1.195 0.393123 -0.0209226 -1.18993 
0.308501 -0.0281009 -1.17461 0.435921 -0.0050003 -1.18229 0.231684 -0.0449851 -1.195 
0.266114 -0.0338706 -1.19421 0.428701 -0.0119399 -1.18335 0.0770652 -0.0377259 -1.18793 
0.0943455 -0.0223389 -1.19501 0.141199 -0.0396211 -1.195 0.310576 -0.0344029 -1.195 
0.427887 -0.0450037 -1.18927 0.0832578 -0.0379787 -1.1795 0.375844 -0.00538515 -1.19467 
0.0550029 -0.0286953 -1.17415 0.0435395 -0.00499506 -1.18193 0.0663005 -0.00499699 -1.18912 
0.30867 -0.0268989 -1.18525 0.159666 -0.0277167 -1.195 0.417953 -0.0226343 -1.18662 
0.0791126 -0.0221649 -1.18649 0.371736 -0.0152238 -1.195 0.17105 -0.0176134 -1.18718 
0.190993 -0.0280008 -1.1839 0.185667 -0.0365561 -1.19466 0.31749 -0.0271527 -1.19501 
0.048114 -0.00499894 -1.19501 0.0487645 -0.0211514 -1.17618 0.166233 -0.0136591 -1.195 
0.384881 -0.0363071 -1.1904 0.134195 -0.037064 -1.18735 0.121231 -0.00499488 -1.195 
0.127788 -0.0450019 -1.18634 0.0669401 -0.020481 -1.18799 0.0680685 -0.0128853 -1.195 
0.386786 -0.0449914 -1.195 0.35825 -0.028455 -1.19454 0.107793 -0.0305772 -1.18684 
0.362299 -0.00530846 -0.843716 0.156231 -0.0136641 -1.195 0.291337 -0.0450133 -1.19501 
0.392548 -0.013491 -1.18327 0.0919546 -0.0330455 -1.17944 0.161236 -0.0198909 -1.18899 
0.112879 -0.00499496 -1.18657 0.0612993 -0.00523205 -1.18047 0.211214 -0.00499465 -1.19501 
0.276217 -0.0260732 -1.195 0.151232 -0.00499838 -1.195 0.281344 -0.0447142 -1.195 
0.358508 -0.0147486 -1.19475 0.0720531 -0.0290748 -1.18804 0.271378 -0.0450019 -1.19406 
0.0943672 -0.00547661 -1.1777 0.186222 -0.0144728 -1.195 0.437196 -0.012664 -1.18858 
0.350735 -0.00523278 -1.19489 0.100952 -0.0363488 -1.18238 0.197649 -0.0236513 -1.195 
0.206487 -0.0403724 -1.18772 0.201268 -0.0448933 -1.195 0.225808 -0.0164422 -1.195 
0.331911 -0.00570542 -1.19494 0.216535 -0.0363583 -1.195 0.178678 -0.0235135 -1.19498 
0.141224 -0.0223091 -1.195 0.0960759 -0.029553 -1.18786 0.301367 -0.0450261 -1.19462 
0.0703915 -0.0450032 -1.18638 0.410027 -0.00500186 -1.18961 0.215812 -0.0164548 -1.19499 
0.245406 -0.013664 -1.195 0.136233 -0.0078764 -1.18684 0.117534 -0.028404 -1.18623 
0.140233 -0.0450014 -1.18663 0.13122 -0.0223036 -1.19501 0.241544 -0.0433166 -1.195 
0.0650682 -0.0274446 -1.19501 0.0993734 -0.00499936 -1.18635 0.191224 -0.00499989 -1.195 
0.176043 -0.00808345 -1.18681 0.255089 -0.016147 -1.19494 0.256448 -0.036292 -1.195 
0.309475 -0.00589407 -1.19326 0.149621 -0.0450022 -1.195 0.130613 -0.0277176 -1.18663 
0.122784 -0.0450026 -1.195 0.401535 -0.0134663 -1.18964 0.289608 -0.00499999 -1.195 
0.112801 -0.0195973 -1.18636 0.437856 -0.0276432 -1.18777 0.141231 -0.0165376 -1.18684 
0.207955 -0.0349976 -0.245002 0.29405 -0.0431447 -1.18558 0.299602 -0.00499385 -1.195 
0.383243 -0.0261099 -1.1868 0.278284 -0.0156381 -1.1856 0.0810371 -0.026775 -1.17783 
0.338601 -0.0281863 -1.195 0.00499928 -0.0422097 -1.17067 0.0838669 -0.0396072 -1.19501 
0.373688 -0.0432342 -1.18564 0.0544042 -0.0368421 -1.16839 0.146232 -0.0136564 -1.195 
0.141233 -0.00499673 -1.195 0.171226 -0.00499683 -1.19501 0.246899 -0.0238839 -1.195 
0.260417 -0.00499728 -1.195 0.405409 -0.0311839 -1.18075 0.107789 -0.0363447 -1.195 
0.292482 -0.0250633 -1.19492 0.246579 -0.0346318 -1.195 0.32626 -0.0231475 -1.19221 
0.0837874 -0.0450044 -1.18659 0.280022 -0.00782792 -1.195 0.241733 -0.0291791 -1.18817 
0.122793 -0.0276857 -1.195 0.26142 -0.0450002 -1.195 0.475876 -0.0307763 -1.18553 
0.122897 -0.0205774 -1.18308 0.236895 -0.0236141 -1.19498 0.159505 -0.0337057 -1.18665 
0.169871 -0.0450029 -1.19501 0.211519 -0.0450067 -1.19501 0.27042 -0.00501626 -1.195 
0.325289 -0.0134226 -1.19499 0.412059 -0.0305822 -1.18818 0.216563 -0.0424647 -1.18678 
0.159651 -0.0450019 -1.195 0.327159 -0.0329644 -1.19501 0.302961 -0.0144106 -1.195 
0.382796 -0.00625751 -1.18495 0.221483 -0.033699 -1.18668 0.13623 -0.0136507 -1.195 
0.293379 -0.0355939 -1.19239 0.283988 -0.0196353 -1.195 0.240414 -0.00500051 -1.195 
0.206224 -0.0136552 -1.195 0.201984 -0.0187011 -1.18748 0.0977887 -0.036334 -1.195 
0.220813 -0.00777685 -1.195 0.15123 -0.0165546 -1.18684 0.127788 -0.0363444 -1.195 
0.437965 -0.0197109 -1.18145 0.251416 -0.0449773 -1.195 0.196243 -0.00778764 -1.18679 
0.13278 -0.0450047 -1.195 0.405329 -0.00910208 -1.15998 0.25671 -0.0260202 -1.19456 
0.147842 -0.0377374 -1.18776 0.375971 -0.0136618 -1.1854 0.266471 -0.0238273 -1.195 
0.393967 -0.0377517 -1.1847 0.151148 -0.0280573 -1.18681 0.179874 -0.0448298 -1.195 
0.0843646 -0.00530107 -1.1777 0.197042 -0.033662 -1.19269 0.396664 -0.0302049 -1.17596 
0.164729 -0.0429341 -1.18664 0.217265 -0.0263994 -1.195 0.403487 -0.0382352 -1.1878 
0.174923 -0.034707 -1.195 0.328712 -0.00730408 -1.18412 0.221684 -0.0237193 -1.18634 
0.191924 -0.0187541 -1.18757 0.452545 -0.0361815 -1.18184 0.164801 -0.0363719 -1.195 
0.185471 -0.0444603 -1.18673 0.226584 -0.0362948 -1.195 0.0893674 -0.00499814 -1.18635 
0.299273 -0.0212116 -1.18862 0.301253 -0.0299849 -1.19501 0.275841 -0.0360883 -1.195 
0.452224 -0.0286414 -1.1884 0.0718106 -0.0234513 -1.17978 0.211135 -0.0285007 -1.18611 
0.250419 -0.0050065 -1.195 0.308289 -0.0228851 -1.1949 0.146234 -0.00787899 -1.18684 
0.101134 -0.0209291 -1.1878 0.12623 -0.0136496 -1.19501 0.475138 -0.0212847 -1.18091 
0.227269 -0.0263282 -1.195 0.461038 -0.029033 -1.18369 0.112787 -0.0450028 -1.195 
0.453009 -0.0197821 -1.18209 0.168668 -0.0233577 -1.195 0.214605 -0.00736511 -1.18591 
0.1178 -0.0190265 -1.195 0.264842 -0.0139588 -1.195 0.311679 -0.0449908 -1.195 
0.196238 -0.01365 -1.19499 0.321639 -0.0438674 -1.195 
VERTICES 500 1000
1 0 
1 1 
1 2 
1 3 
1 4 
1 5 
1 6 
1 7 
1 8 
1 9 
1 10 
1 11 
1 12 
1 13 
1 14 
1 15 
1 16 
1 17 
1 18 
1 19 
1 20 
1 21 
1 22 
1 23 
1 24 
1 25 
1 26 
1 27 
1 28 
1 29 
1 30 
1 31 
1 32 
1 33 
1 34 
1 35 
1 36 
1 37 
1 38 
1 39 
1 40 
1 41 
1 42 
1 43 
1 44 
1 45 
1 46 
1 47 
1 48 
1 49 
1 50 
1 51 
1 52 
1 53 
1 54 
1 55 
1 56 
1 57 
1 58 
1 59 
1 60 
1 61 
1 62 
1 63 
1 64 
1 65 
1 66 
1 67 
1 68 
1 69 
1 70 
1 71 
1 72 
1 73 
1 74 
1 75 
1 76 
1 77 
1 78 
1 79 
1 80 
1 81 
1 82 
1 83 
1 84 
1 85 
1 86 
1 87 
1 88 
1 89 
1 90 
1 91 
1 92 
1 93 
1 94 
1 95 
1 96 
1 97 
1 98 
1 99 
1 100 
1 101 
1 102 
1 103 
1 104 
1 105 
1 106 
1 107 
1 108 
1 109 
1 110 
1 111 
1 112 
1 113 
1 114 
1 115 
1 116 
1 117 
1 118 
1 119 
1 120 
1 121 
1 122 
1 123 
1 124 
1 125 
1 126 
1 127 
1 128 
1 129 
1 130 
1 131 
1 132 
1 133 
1 134 
1 135 
1 136 
1 137 
1 138 
1 139 
1 140 
1 141 
1 142 
1 143 
1 144 
1 145 
1 146 
1 147 
1 148 
1 149 
1 150 
1 151 
1 152 
1 153 
1 154 
1 155 
1 156 
1 157 
1 158 
1 159 
1 160 
1 161 
1 162 
1 163 
1 164 
1 165 
1 166 
1 167 
1 168 
1 169 
1 170 
1 171 
1 172 
1 173 
1 174 
1 175 
1 176 
1 177 
1 178 
1 179 
1 180 
1 181 
1 182 
1 183 
1 184 
1 185 
1 186 
1 187 
1 188 
1 189 
1 190 
1 191 
1 192 
1 193 
1 194 
1 195 
1 196 
1 197 
1 198 
1 199 
1 200 
1 201 
1 202 
1 203 
1 204 
1 205 
1 206 
1 207 
1 208 
1 209 
1 210 
1 211 
1 212 
1 213 
1 214 
1 215 
1 216 
1 217 
1 218 
1 219 
1 220 
1 221 
1 222 
1 223 
1 224 
1 225 
1 226 
1 227 
1 228 
1 229 
1 230 
1 231 
1 232 
1 233 
1 234 
1 235 
1 236 
1 237 
1 238 
1 239 
1 240 
1 241 
1 242 
1 243 
1 244 
1 245 
1 246 
1 247 
1 248 
1 249 
1 250 
1 251 
1 252 
1 253 
1 254 
1 255 
1 256 
1 257 
1 258 
1 259 
1 260 
1 261 
1 262 
1 263 
1 264 
1 265 
1 266 
1 267 
1 268 
1 269 
1 270 
1 271 
1 272 
1 273 
1 274 
1 275 
1 276 
1 277 
1 278 
1 279 
1 280 
1 281 
1 282 
1 283 
1 284 
1 285 
1 286 
1 287 
1 288 
1 289 
1 290 
1 291 
1 292 
1 293 
1 294 
1 295 
1 296 
1 297 
1 298 
1 299 
1 300 
1 301 
1 302 
1 303 
1 304 
1 305 
1 306 
1 307 
1 308 
1 309 
1 310 
1 311 
1 312 
1 313 
1 314 
1 315 
1 316 
1 317 
1 318 
1 319 
1 320 
1 321 
1 322 
1 323 
1 324 
1 325 
1 326 
1 327 
1 328 
1 329 
1 330 
1 331 
1 332 
1 333 
1 334 
1 335 
1 336 
1 337 
1 338 
1 339 
1 340 
1 341 
1 342 
1 343 
1 344 
1 345 
1 346 
1 347 
1 348 
1 349 
1 350 
1 351 
1 352 
1 353 
1 354 
1 355 
1 356 
1 357 
1 358 
1 359 
1 360 
1 361 
1 362 
1 363 
1 364 
1 365 
1 366 
1 367 
1 368 
1 369 
1 370 
1 371 
1 372 
1 373 
1 374 
1 375 
1 376 
1 377 
1 378 
1 379 
1 380 
1 381 
1 382 
1 383 
1 384 
1 385 
1 386 
1 387 
1 388 
1 389 
1 390 
1 391 
1 392 
1 393 
1 394 
1 395 
1 396 
1 397 
1 398 
1 399 
1 400 
1 401 
1 402 
1 403 
1 404 
1 405 
1 406 
1 407 
1 408 
1 409 
1 410 
1 411 
1 412 
1 413 
1 414 
1 415 
1 416 
1 417 
1 418 
1 419 
1 420 
1 421 
1 422 
1 423 
1 424 
1 425 
1 426 
1 427 
1 428 
1 429 
1 430 
1 431 
1 432 
1 433 
1 434 
1 435 
1 436 
1 437 
1 438 
1 439 
1 440 
1 441 
1 442 
1 443 
1 444 
1 445 
1 446 
1 447 
1 448 
1 449 
1 450 
1 451 
1 452 
1 453 
1 454 
1 455 
1 456 
1 457 
1 458 
1 459 
1 460 
1 461 
1 462 
1 463 
1 464 
1 465 
1 466 
1 467 
1 468 
1 469 
1 470 
1 471 
1 472 
1 473 
1 474 
1 475 
1 476 
1 477 
1 478 
1 479 
1 480 
1 481 
1 482 
1 483 
1 484 
1 485 
1 486 
1 487 
1 488 
1 489 
1 490 
1 491 
1 492 
1 493 
1 494 
1 495 
1 496 
1 497 
1 498 
1 499 

POINT_DATA 500
FIELD FieldData 7
id 1 500 int
1 2 3 4 5 6 7 8 9 
10 11 12 13 14 15 16 17 18 
19 20 21 22 23 24 25 26 27 
28 29 30 31 32 33 34 35 36 
37 38 39 40 41 42 43 44 45 
46 47 48 49 50 51 52 53 54 
55 56 57 58 59 60 61 62 63 
64 65 66 67 68 69 70 71 72 
73 74 75 76 77 78 79 80 81 
82 83 84 85 86 87 88 89 90 
91 92 93 94 95 96 97 98 99 
100 101 102 103 104 105 106 107 108 
109 110 111 112 113 114 115 116 117 
118 119 120 121 122 123 124 125 126 
127 128 129 130 131 132 133 134 135 
136 137 138 139 140 141 142 143 144 
145 146 147 148 149 150 151 152 153 
154 155 156 157 158 159 160 161 162 
163 164 165 166 167 168 169 170 171 
172 173 174 175 176 177 178 179 180 
181 182 183 184 185 186 187 188 189 
190 191 192 193 194 195 196 197 198 
199 200 201 202 203 204 205 206 207 
208 209 210 211 212 213 214 215 216 
217 218 219 220 221 222 223 224 225 
226 227 228 229 230 231 232 233 234 
235 236 237 238 239 240 241 242 243 
244 245 246 247 248 249 250 251 252 
253 254 255 256 257 258 259 260 261 
262 263 264 265 266 267 268 269 270 
271 272 273 274 275 276 277 278 279 
280 281 282 283 284 285 286 287 288 
289 290 291 292 293 294 295 296 297 
298 299 300 301 302 303 304 305 306 
307 308 309 310 311 312 313 314 315 
316 317 318 319 320 321 322 323 324 
325 326 327 328 329 330 331 332 333 
334 335 336 337 338 339 340 341 342 
343 344 345 346 347 348 349 350 351 
352 353 354 355 356 357 358 359 360 
361 362 363 364 365 366 367 368 369 
370 371 372 373 374 375 376 377 378 
379 380 381 382 383 384 385 386 387 
388 389 390 391 392 393 394 395 396 
397 398 399 400 401 402 403 404 405 
406 407 408 409 410 411 412 413 414 
415 416 417 418 419 420 421 422 423 
424 425 426 427 428 429 430 431 432 
433 434 435 436 437 438 439 440 441 
442 443 444 445 446 447 448 449 450 
451 452 453 454 455 456 457 458 459 
460 461 462 463 464 465 466 467 468 
469 470 471 472 473 474 475 476 477 
478 479 480 481 482 483 484 485 486 
487 488 489 490 491 492 493 494 495 
496 497 498 499 500 
type 1 500 int
1 1 1 1 1 1 1 1 1 
1 1 1 1 1 1 1 1 1 
1 1 1 1 1 1 1 1 1 
1 1 1 1 1 1 1 1 1 
1 1 1 1 1 1 1 1 1 
1 1 1 1 1 1 1 1 1 
1 1 1 1 1 1 1 1 1 
1 1 1 1 1 1 1 1 1 
1 1 1 1 1 1 1 1 1 
1 1 1 1 1 1 1 1 1 
1 1 1 1 1 1 1 1 1 
1 1 1 1 1 1 1 1 1 
1 1 1 1 1 1 1 1 1 
1 1 1 1 1 1 1 1 1 
1 1 1 1 1 1 1 1 1 
1 1 1 1 1 1 1 1 1 
1 1 1 1 1 1 1 1 1 
1 1 1 1 1 1 1 1 1 
1 1 1 1 1 1 1 1 1 
1 1 1 1 1 1 1 1 1 
1 1 1 1 1 1 1 1 1 
1 1 1 1 1 1 1 1 1 
1 1 1 1 1 1 1 1 1 
1 1 1 1 1 1 1 1 1 
1 1 1 1 1 1 1 1 1 
1 1 1 1 1 1 1 1 1 
1 1 1 1 1 1 1 1 1 
1 1 1 1 1 1 1 1 1 
1 1 1 1 1 1 1 1 1 
1 1 1 1 1 1 1 1 1 
1 1 1 1 1 1 1 1 1 
1 1 1 1 1 1 1 1 1 
1 1 1 1 1 1 1 1 1 
1 1 1 1 1 1 1 1 1 
1 1 1 1 1 1 1 1 1 
1 1 1 1 1 1 1 1 1 
1 1 1 1 1 1 1 1 1 
1 1 1 1 1 1 1 1 1 
1 1 1 1 1 1 1 1 1 
1 1 1 1 1 1 1 1 1 
1 1 1 1 1 1 1 1 1 
1 1 1 1 1 1 1 1 1 
1 1 1 1 1 1 1 1 1 
1 1 1 1 1 1 1 1 1 
1 1 1 1 1 1 1 1 1 
1 1 1 1 1 1 1 1 1 
1 1 1 1 1 1 1 1 1 
1 1 1 1 1 1 1 1 1 
1 1 1 1 1 1 1 1 1 
1 1 1 1 1 1 1 1 1 
1 1 1 1 1 1 1 1 1 
1 1 1 1 1 1 1 1 1 
1 1 1 1 1 1 1 1 1 
1 1 1 1 1 1 1 1 1 
1 1 1 1 1 1 1 1 1 
1 1 1 1 1 
i 3 500 int
0 0 0 0 0 0 0 0 0 
0 0 0 0 0 0 0 0 0 
0 0 0 0 0 0 0 0 0 
0 0 0 0 0 0 0 0 0 
0 0 0 0 0 0 0 0 0 
0 0 0 0 0 0 0 0 0 
0 0 0 0 0 0 0 0 0 
0 0 0 0 0 0 0 0 0 
0 0 0 0 0 0 0 0 0 
0 0 0 0 0 0 0 0 0 
0 0 0 0 0 0 0 0 0 
0 0 0 0 0 0 0 0 0 
0 0 0 0 0 0 0 0 0 
0 0 0 0 0 0 0 0 0 
0 0 0 0 0 0 0 0 0 
0 0 0 0 0 0 0 0 0 
0 0 0 0 0 0 0 0 0 
0 0 0 0 0 0 0 0 0 
0 0 0 0 0 0 0 0 0 
0 0 0 0 0 0 0 0 0 
0 0 0 0 0 0 0 0 0 
0 0 0 0 0 0 0 0 0 
0 0 0 0 0 0 0 0 0 
0 0 0 0 0 0 0 0 0 
0 0 0 0 0 0 0 0 0 
0 0 0 0 0 0 0 0 0 
0 0 0 0 0 0 0 0 0 
0 0 0 0 0 0 0 0 0 
0 0 0 0 0 0 0 0 0 
0 0 0 0 0 0 0 0 0 
0 0 0 0 0 0 0 0 0 
0 0 0 0 0 0 0 0 0 
0 0 0 0 0 0 0 0 0 
0 0 0 0 0 0 0 0 0 
0 0 0 0 0 0 0 0 0 
0 0 0 0 0 0 0 0 0 
0 0 0 0 0 0 0 0 0 
0 0 0 0 0 0 0 0 0 
0 0 0 0 0 0 0 0 0 
0 0 0 0 0 0 0 0 0 
0 0 0 0 0 0 0 0 0 
0 0 0 0 0 0 0 0 0 
0 0 0 0 0 0 0 0 0 
0 0 0 0 0 0 0 0 0 
0 0 0 0 0 0 0 0 0 
0 0 0 0 0 0 0 0 0 
0 0 0 0 0 0 0 0 0 
0 0 0 0 0 0 0 0 0 
0 0 0 0 0 0 0 0 0 
0 0 0 0 0 0 0 0 0 
0 0 0 0 0 0 0 0 0 
0 0 0 0 0 0 0 0 0 
0 0 0 0 0 0 0 0 0 
0 0 0 0 0 0 0 0 0 
0 0 0 0 0 0 0 0 0 
0 0 0 0 0 0 0 0 0 
0 0 0 0 0 0 0 0 0 
0 0 0 0 0 0 0 0 0 
0 0 0 0 0 0 0 0 0 
0 0 0 0 0 0 0 0 0 
0 0 0 0 0 0 0 0 0 
0 0 0 0 0 0 0 0 0 
0 0 0 0 0 0 0 0 0 
0 0 0 0 0 0 0 0 0 
0 0 0 0 0 0 0 0 0 
0 0 0 0 0 0 0 0 0 
0 0 0 0 0 0 0 0 0 
0 0 0 0 0 0 0 0 0 
0 0 0 0 0 0 0 0 0 
0 0 0 0 0 0 0 0 0 
0 0 0 0 0 0 0 0 0 
0 0 0 0 0 0 0 0 0 
0 0 0 0 0 0 0 0 0 
0 0 0 0 0 0 0 0 0 
0 0 0 0 0 0 0 0 0 
0 0 0 0 0 0 0 0 0 
0 0 0 0 0 0 0 0 0 
0 0 0 0 0 0 0 0 0 
0 0 0 0 0 0 0 0 0 
0 0 0 0 0 0 0 0 0 
0 0 0 0 0 0 0 0 0 
0 0 0 0 0 0 0 0 0 
0 0 0 0 0 0 0 0 0 
0 0 0 0 0 0 0 0 0 
0 0 0 0 0 0 0 0 0 
0 0 0 0 0 0 0 0 0 
0 0 0 0 0 0 0 0 0 
0 0 0 0 0 0 0 0 0 
0 0 0 0 0 0 0 0 0 
0 0 0 0 0 0 0 0 0 
0 0 0 0 0 0 0 0 0 
0 0 0 0 0 0 0 0 0 
0 0 0 0 0 0 0 0 0 
0 0 0 0 0 0 0 0 0 
0 0 0 0 0 0 0 0 0 
0 0 0 0 0 0 0 0 0 
0 0 0 0 0 0 0 0 0 
0 0 0 0 0 0 0 0 0 
0 0 0 0 0 0 0 0 0 
0 0 0 0 0 0 0 0 0 
0 0 0 0 0 0 0 0 0 
0 0 0 0 0 0 0 0 0 
0 0 0 0 0 0 0 0 0 
0 0 0 0 0 0 0 0 0 
0 0 0 0 0 0 0 0 0 
0 0 0 0 0 0 0 0 0 
0 0 0 0 0 0 0 0 0 
0 0 0 0 0 0 0 0 0 
0 0 0 0 0 0 0 0 0 
0 0 0 0 0 0 0 0 0 
0 0 0 0 0 0 0 0 0 
0 0 0 0 0 0 0 0 0 
0 0 0 0 0 0 0 0 0 
0 0 0 0 0 0 0 0 0 
0 0 0 0 0 0 0 0 0 
0 0 0 0 0 0 0 0 0 
0 0 0 0 0 0 0 0 0 
0 0 0 0 0 0 0 0 0 
0 0 0 0 0 0 0 0 0 
0 0 0 0 0 0 0 0 0 
0 0 0 0 0 0 0 0 0 
0 0 0 0 0 0 0 0 0 
0 0 0 0 0 0 0 0 0 
0 0 0 0 0 0 0 0 0 
0 0 0 0 0 0 0 0 0 
0 0 0 0 0 0 0 0 0 
0 0 0 0 0 0 0 0 0 
0 0 0 0 0 0 0 0 0 
0 0 0 0 0 0 0 0 0 
0 0 0 0 0 0 0 0 0 
0 0 0 0 0 0 0 0 0 
0 0 0 0 0 0 0 0 0 
0 0 0 0 0 0 0 0 0 
0 0 0 0 0 0 0 0 0 
0 0 0 0 0 0 0 0 0 
0 0 0 0 0 0 0 0 0 
0 0 0 0 0 0 0 0 0 
0 0 0 0 0 0 0 0 0 
0 0 0 0 0 0 0 0 0 
0 0 0 0 0 0 0 0 0 
0 0 0 0 0 0 0 0 0 
0 0 0 0 0 0 0 0 0 
0 0 0 0 0 0 0 0 0 
0 0 0 0 0 0 0 0 0 
0 0 0 0 0 0 0 0 0 
0 0 0 0 0 0 0 0 0 
0 0 0 0 0 0 0 0 0 
0 0 0 0 0 0 0 0 0 
0 0 0 0 0 0 0 0 0 
0 0 0 0 0 0 0 0 0 
0 0 0 0 0 0 0 0 0 
0 0 0 0 0 0 0 0 0 
0 0 0 0 0 0 0 0 0 
0 0 0 0 0 0 0 0 0 
0 0 0 0 0 0 0 0 0 
0 0 0 0 0 0 0 0 0 
0 0 0 0 0 0 0 0 0 
0 0 0 0 0 0 0 0 0 
0 0 0 0 0 0 0 0 0 
0 0 0 0 0 0 0 0 0 
0 0 0 0 0 0 0 0 0 
0 0 0 0 0 0 0 0 0 
0 0 0 0 0 0 0 0 0 
0 0 0 0 0 0 0 0 0 
0 0 0 0 0 0 0 0 0 
0 0 0 0 0 0 0 0 0 
0 0 0 0 0 0 
v 3 500 double
-0.0292918 0.00854372 0.00884336 -0.0772574 0.030913 -0.0280495 -3.79949e-05 -0.000280032 -3.41309e-05 
0.00191389 -0.000579974 -0.00209832 0.00111976 0.000203926 -0.00106114 0.00114501 9.99346e-05 -0.0021994 
0.00331413 -0.000474324 0.000513911 0.00373113 -0.000702432 -0.00344068 0.00749948 -0.0184547 -0.00134719 
-0.00111613 0.000846697 0.00010161 -0.124551 0.0985639 -0.226295 0.00258214 -0.00113562 7.02868e-05 
0.00036305 0.000254336 -0.000491458 0.0363236 -0.0332586 0.000614569 0.00261231 0.00212538 -0.000526602 
-0.0937106 0.00236262 0.00404694 0.00202909 0.000415926 -0.000997624 -1.5667e-05 -1.22613e-05 0.000115178 
0.00399108 0.00106019 7.35154e-05 -0.00293983 0.000373544 -0.0016465 0.00041663 -0.000327152 -0.000206913 
-0.0532699 0.000686871 5.28068e-05 -0.000462818 2.22062e-05 0.0001129 0.00151009 -0.000528983 -0.000277066 
-0.0351747 -0.012557 -0.00586794 -0.11179 0.0232205 -0.0143576 -0.000106732 0.000219781 0.000201231 
-0.00290979 7.81933e-05 -0.000174829 -0.0245959 0.0387411 -0.000505254 0.0079556 0.000387047 0.00037913 
0.00359332 -0.001121 2.29865e-06 -0.0380693 0.00331152 0.000989122 -0.00615763 0.07599 0.0138958 
0.000315015 -0.00140509 -0.000695961 -0.0324037 0.00516833 -0.000311436 0.0023632 0.000478015 -0.00103923 
-0.0638936 0.0133915 0.0038767 0.000768649 -0.000551779 0.000568455 0.00167941 0.00134567 -0.000639285 
-1.61889e-05 -0.000116835 0.000124815 0.0183497 -0.0234269 -4.18924e-11 0.00696228 0.00140262 -0.000416143 
0.00481308 0.00165882 -0.00411612 -0.056245 0.00168913 -0.00733243 0.00587334 0.00278464 -0.000256566 
-0.00260129 -0.000635239 -0.000392752 0.000893784 -7.48854e-05 -0.000214418 2.81498e-05 -0.000356428 0.000106838 
-0.000336647 -6.62164e-05 -0.000139308 0.0317605 -0.0115791 0.00599817 -0.0391655 -0.0140043 -0.0559825 
-2.332e-05 9.94453e-06 -0.000250869 0.000302994 -0.00015547 -0.000282025 0.00552611 0.000123479 -0.000850186 
0.000383198 -0.000567948 -7.75931e-05 0.000922107 -0.000131289 -0.000396014 0.00906578 0.000855683 0.000348637 
0.00359596 0.00102128 -0.00178433 0.000123214 -7.42221e-05 -0.000192023 0.00392076 0.000118315 -0.00118887 
0.0015912 -0.000133449 -1.31848e-05 -0.00353624 -0.0158083 0.00267135 -1.88069e-05 -0.000579759 -0.00174306 
0.00352773 -0.000356927 -0.00168076 0.00582599 -7.92251e-05 0.00028849 0.00616092 -0.00217688 -0.00504365 
-0.0574655 0.0370276 0.000508882 0.0136678 0.00465776 0.00763266 -0.0307116 -0.000988194 -0.00160745 
-5.98413e-05 -0.000203859 -2.57878e-05 -0.000101075 0.000217701 5.23667e-05 0.000835576 0.00037556 0.000529708 
0.00398681 -4.57435e-05 -0.00191975 -5.26844e-05 -0.000139228 9.31505e-05 0.00415568 0.000111658 -0.000510232 
0.00421154 -0.00019674 -0.00114317 0.000845327 8.96394e-05 -0.000788938 -0.0832742 0.0046925 -0.0731523 
-0.0292564 -0.0125688 -0.0011966 -0.000159361 -7.19778e-05 0.000220163 0.00193875 -0.00114602 -0.00292436 
0.00170614 0.000377661 -0.000549569 -0.0115856 -0.0122916 -0.00274896 0.000171249 -8.81146e-05 -0.000135541 
-0.363455 -0.117335 -0.0998861 0.0055518 -0.000636152 -0.000249798 0.00188711 0.00133005 0.000150648 
0.0405129 0.00717281 -0.0248069 -0.0325847 0.0105388 0.00604987 -4.81715e-05 -7.21117e-05 8.89587e-06 
0.00409944 -0.00184809 -7.18912e-05 0.151912 0.0608429 -0.0540191 0.00469579 -0.00103873 -0.00404674 
0.000306792 -0.000456715 -0.000165416 7.58782e-06 -8.79902e-05 3.44262e-05 0.0014096 -0.00136199 -0.000856629 
0.00718829 -0.00111203 -0.000626258 0.00827562 -8.47994e-06 -0.000390023 0.0124793 -0.000747686 -0.0028625 
0.00594672 0.000156665 0.000107502 0.00704538 0.00145813 -4.62655e-05 0.00178269 4.01595e-05 -4.39031e-11 
0.000327315 -0.000462136 -0.000180134 -0.00704595 0.000528475 -0.0032415 0.0165999 0.00245276 -5.5291e-05 
-0.106157 0.0672529 -0.0908187 0.0071658 -0.00117666 -0.000310636 0.00604383 0.00156183 0.00131751 
0.00743779 -0.000171798 -0.000416584 0.0036099 0.000148034 -0.000329062 0.00884862 0.0141052 -0.000806489 
0.00400245 -0.000483314 -0.00140919 2.42073e-05 -5.07258e-06 6.43109e-05 -0.0271104 -0.00316264 0.00107851 
0.00826048 -0.000905652 0.000194415 0.00355417 -0.00120606 -5.95684e-05 0.00876307 0.0559338 0.0675544 
-0.0225618 -0.000830012 -0.0133881 -0.00066164 -0.000114889 0.00363173 0.00486188 -0.000551886 -0.000237778 
0.0210386 0.0308248 -0.0446567 0.000847364 -9.48962e-05 0.000536699 -0.0114902 -0.000662721 0.000134656 
-0.00545111 -0.000653721 -0.00744379 -0.00256749 0.00269343 -4.7892e-05 0.00117494 -0.000217612 -0.000289423 
0.000464821 0.000976335 1.94783e-12 -0.00176301 0.000897824 -0.00045696 3.5543e-05 0.000118087 -2.03577e-05 
0.00246832 0.000617576 0.000551077 0.00419602 0.000355606 -0.00161089 1.69515e-05 5.503e-05 0.000110649 
0.00188587 0.000816643 -0.000161202 0.000902768 0.00010351 0.000116987 0.00591154 0.00140599 -0.000212315 
-0.0675883 0.00469227 -0.00848606 0.00139934 0.000284053 -0.000546069 -0.0120664 0.0357421 0.0117825 
-0.00944882 5.72734e-05 -0.0134895 -0.00338652 0.0033632 -0.000182254 -0.00502681 -0.0201446 0.00104963 
0.00139776 -0.000770523 -0.00113103 -0.000285453 0.00032928 -1.19178e-05 -0.00967951 -0.095482 -0.000898368 
-0.0010716 -4.29217e-05 -0.00141816 -0.0196303 -0.0120819 -0.00765159 0.00151924 -0.000930092 -0.000802942 
0.00631262 0.000912234 9.97821e-05 -0.00548741 -0.00767208 0.000880188 0.00748393 0.00297145 -0.000745835 
0.00856465 -1.39025e-05 -0.000214447 -0.0364701 0.00261671 -0.000122981 0.000358203 -2.68977e-05 -0.000143574 
-0.00483493 0.000682668 -0.000157294 -0.0138123 0.0143417 -0.00490723 -0.00723732 -0.00830811 -9.13635e-05 
0.00225073 7.89995e-05 9.3095e-05 -0.000681155 -0.000249922 -0.00259292 2.06724e-05 -4.01649e-05 -5.77466e-05 