# vtk DataFile Version 4.0
Generated by LIGGGHTS
ASCII
DATASET POLYDATA
POINTS 500 float
0.423432 -0.0450017 -1.18121 0.428305 -0.0303382 -1.18407 0.00510867 -0.0250035 -1.19501 
0.0390719 -0.020255 -1.17457 0.0168685 -0.0224307 -1.17244 0.0356672 -0.00499889 -1.17488 
0.0444328 -0.036463 -1.18575 0.0315612 -0.0450007 -1.17503 0.0885744 -0.0136988 -1.17769 
0.469498 -0.00499862 -1.18462 0.378019 -0.0369631 -1.19489 0.464068 -0.0131307 -1.19501 
0.0211461 -0.0141592 -1.16879 0.336574 -0.00498736 -1.195 0.0433564 -0.0112683 -1.17364 
0.395777 -0.0291491 -1.19501 0.0276187 -0.0450063 -1.18422 0.495001 -0.045001 -1.18513 
0.0396052 -0.036314 -1.19501 0.482598 -0.0136757 -1.18692 0.00534933 -0.0198973 -1.17184 
0.180125 -0.0316057 -1.18879 0.493433 -0.044995 -1.195 0.0530891 -0.00499654 -1.18631 
0.171911 -0.0263381 -1.18637 0.394184 -0.044923 -1.18134 0.485707 -0.0286668 -1.19501 
0.45779 -0.0448221 -1.195 0.329973 -0.0132512 -1.19406 0.0936079 -0.0136444 -1.18633 
0.0340773 -0.0204904 -1.18781 0.442799 -0.0449932 -1.18635 0.414628 -0.0146854 -1.18349 
0.461039 -0.0203083 -1.18874 0.207075 -0.0340281 -1.195 0.0329314 -0.0372724 -1.18764 
0.406206 -0.00499495 -1.19501 0.0148574 -0.043406 -1.19501 0.0374361 -0.0378073 -1.17873 
0.495002 -0.00999874 -1.18635 0.222436 -0.0375911 -0.245002 0.11199 -0.0276875 -1.19501 
0.0684843 -0.00898129 -1.17117 0.422964 -0.0377983 -1.18812 0.116985 -0.0363472 -1.195 
0.467142 -0.0350373 -1.19501 0.00512836 -0.03692 -1.17914 0.00499803 -0.0199974 -1.18636 
0.484555 -0.0450035 -1.18736 0.431273 -0.0202512 -1.18795 0.39102 -0.00537161 -1.195 
0.477961 -0.0450009 -1.195 0.0215793 -0.00499884 -1.18749 0.0596052 -0.0450005 -1.16905 
0.0099187 -0.0249152 -1.17918 0.0147727 -0.0336549 -1.17921 0.0835186 -0.0223917 -1.195 
0.0676376 -0.0191403 -1.17139 0.01409 -0.00499948 -1.18087 0.0422858 -0.0296739 -1.17552 
0.0264914 -0.0352468 -1.19501 0.45047 -0.0353731 -1.195 0.0148435 -0.0146778 -1.17847 
0.0434716 -0.0207495 -1.1844 0.0754088 -0.0450009 -1.17822 0.430768 -0.0131805 -1.195 
0.438599 -0.0324357 -1.17818 0.446119 -0.0264381 -1.18091 0.437812 -0.0049998 -1.195 
0.00499714 -0.013083 -1.17914 0.485694 -0.0386634 -1.19501 0.492003 -0.019992 -1.18688 
0.0423609 -0.011825 -1.18905 0.0137067 -0.0198984 -1.19501 0.0545946 -0.0450029 -1.1777 
0.0530493 -0.0202033 -1.18721 0.0194261 -0.0049992 -1.17242 0.422027 -0.00501724 -1.18279 
0.409096 -0.0293946 -1.19497 0.492163 -0.0370183 -1.17982 0.0495613 -0.0364253 -1.17671 
0.0276637 -0.0281545 -1.18806 0.445668 -0.0195145 -1.18811 0.00714872 -0.00499774 -1.17367 
0.231352 -0.0377674 -1.13402 0.0595973 -0.0363442 -1.1777 0.0213401 -0.0357291 -1.18645 
0.320008 -0.0369944 -1.18758 0.434893 -0.0449702 -1.18023 0.00499643 -0.00499722 -1.18502 
0.0495953 -0.0363603 -1.19501 0.394033 -0.021577 -1.18005 0.0593583 -0.00501248 -1.17014 
0.00499385 -0.0299942 -1.18635 0.00499426 -0.0450017 -1.19501 0.0116954 -0.0116975 -1.18836 
0.125435 -0.00505599 -1.18634 0.0835727 -0.013648 -1.18635 0.192075 -0.0449207 -1.19501 
0.064599 -0.0449904 -1.19501 0.0731691 -0.022133 -1.19501 0.207448 -0.0449998 -0.245002 
0.0143714 -0.0269086 -1.18791 0.462667 -0.0121561 -1.18319 0.29085 -0.0152281 -1.19501 
0.369923 -0.00581509 -1.18314 0.106987 -0.0421194 -1.18684 0.13542 -0.0309821 -1.195 
0.101981 -0.045001 -1.195 0.0496229 -0.0284618 -1.18275 0.175885 -0.0139866 -1.19499 
0.0595555 -0.0277197 -1.1862 0.495002 -0.00499641 -1.195 0.39865 -0.0126382 -1.195 
0.100673 -0.0149307 -1.17937 0.0410836 -0.0197348 -1.19501 0.25533 -0.00941941 -1.18751 
0.445118 -0.00499848 -1.18818 0.462797 -0.0450038 -1.18635 0.0545739 -0.0363719 -1.18634 
0.273447 -0.01548 -1.19037 0.488989 -0.025967 -1.17946 0.452421 -0.00499557 -1.19501 
0.461085 -0.00499762 -1.19002 0.469909 -0.0050007 -1.195 0.0336719 -0.00499438 -1.18608 
0.205172 -0.0249996 -0.245002 0.467839 -0.0364592 -1.18514 0.495004 -0.0149931 -1.19501 
0.0177174 -0.0450042 -1.18557 0.0363208 -0.0133135 -1.18122 0.495003 -0.0249918 -1.19501 
0.0581358 -0.00573472 -1.195 0.0246474 -0.045001 -1.1938 0.0498111 -0.0148555 -1.19501 
0.414908 -0.0218876 -1.19155 0.0217074 -0.0313422 -1.17239 0.247666 -0.0222128 -1.18481 
0.453621 -0.00499785 -1.18259 0.187099 -0.0276004 -1.19499 0.438428 -0.0196088 -1.19501 
0.468767 -0.0265106 -1.19006 0.485706 -0.00867175 -1.195 0.411335 -0.0150623 -1.17276 
0.472912 -0.0450006 -1.18637 0.415322 -0.0374602 -1.195 0.0191345 -0.0181926 -1.18679 
0.0591331 -0.0187949 -1.19501 0.445581 -0.0122846 -1.19501 0.13042 -0.0165477 -1.18684 
0.0785937 -0.00498794 -1.18635 0.437788 -0.0450008 -1.195 0.00499678 -0.0450049 -1.18501 
0.476748 -0.013183 -1.19501 0.233139 -0.0297152 -1.18669 0.45325 -0.0205132 -1.19501 
0.0348274 -0.0275322 -1.195 0.486652 -0.0049969 -1.18406 0.0149936 -0.00499929 -1.19501 
0.47679 -0.0231829 -1.195 0.00500751 -0.0350024 -1.195 0.185574 -0.0102186 -1.18809 
0.0282779 -0.0337239 -1.17954 0.0276255 -0.0129264 -1.18673 0.0392543 -0.0450023 -1.18618 
0.454506 -0.0126666 -1.18894 0.118707 -0.0123875 -1.18772 0.401809 -0.0449925 -1.1878 
0.0381675 -0.00499152 -1.19501 0.0568676 -0.0132418 -1.17548 0.244849 -0.00969359 -1.17658 
0.0215804 -0.0125234 -1.195 0.452798 -0.0449963 -1.18634 0.485376 -0.0336637 -1.18635 
0.153864 -0.0363559 -1.19498 0.0607635 -0.0220896 -1.17803 0.0885697 -0.0136773 -1.195 
0.482706 -0.0236718 -1.18689 0.0212588 -0.025862 -1.18074 0.05959 -0.0362679 -1.195 
0.23682 -0.0341818 -1.19491 0.495001 -0.0350125 -1.195 0.47824 -0.0049969 -1.18947 
0.00499681 -0.0149931 -1.19501 0.0728129 -0.0131176 -1.18686 0.136902 -0.0260536 -1.18643 
0.0309948 -0.0241165 -1.17902 0.233916 -0.00593713 -1.18596 0.466331 -0.0209175 -1.18004 
0.196391 -0.0406983 -1.18684 0.0345662 -0.0449924 -1.19501 0.384589 -0.0448259 -1.19501 
0.390051 -0.0132993 -1.18892 0.0049974 -0.00499723 -1.19501 0.116984 -0.0427688 -1.18664 
0.0146109 -0.038576 -1.17051 0.283645 -0.0141688 -1.18607 0.467866 -0.0450043 -1.195 
0.207961 -0.0153161 -0.245002 0.495001 -0.0299991 -1.18635 0.0945154 -0.023318 -1.17832 
0.0490501 -0.0128914 -1.1817 0.447796 -0.0450035 -1.195 0.458832 -0.0364327 -1.18963 
0.430181 -0.0371133 -1.19501 0.0835917 -0.00499995 -1.19501 0.485709 -0.0186688 -1.195 
0.477042 -0.0336533 -1.195 0.0116957 -0.0450011 -1.17759 0.064605 -0.036346 -1.18635 
0.160434 -0.00499291 -1.19501 0.286308 -0.0306945 -1.195 0.0546012 -0.0450057 -1.195 
0.0833762 -0.0308074 -1.18641 0.424205 -0.0207086 -1.19501 0.234944 -0.0136274 -1.195 
0.408745 -0.0449967 -1.195 0.372382 -0.00567392 -1.19501 0.0246624 -0.0164646 -1.17787 
0.0900486 -0.0380751 -1.18802 0.406773 -0.00551011 -1.18125 0.365146 -0.0434009 -1.08874 
0.440304 -0.0353243 -1.19501 0.0884694 -0.0310932 -1.195 0.0708566 -0.00499681 -1.18002 
0.105599 -0.0236331 -1.17978 0.398612 -0.00499909 -1.18851 0.130434 -0.00499885 -1.195 
0.402028 -0.0373159 -1.19501 0.0445237 -0.0450026 -1.17769 0.044563 -0.0450006 -1.195 
0.0512326 -0.00499706 -1.17597 0.0166369 -0.0335675 -1.19501 0.0281623 -0.00499373 -1.19501 
0.0735939 -0.00500913 -1.19501 0.489126 -0.0140744 -1.17936 0.445386 -0.0353142 -1.1864 
0.0448111 -0.0283134 -1.19152 0.0234 -0.0223561 -1.195 0.0716735 -0.0343401 -1.17957 
0.0267256 -0.00657449 -1.17906 0.176579 -0.0406476 -1.18631 0.415361 -0.0450008 -1.18751 
0.0595296 -0.0125914 -1.18719 0.435384 -0.0370111 -1.18647 0.0776814 -0.0159946 -1.17862 
0.460005 -0.028035 -1.195 0.0112527 -0.0376726 -1.18766 0.0659588 -0.0136997 -1.17961 
0.413992 -0.0125453 -1.195 0.275238 -0.0240094 -1.18541 0.0746402 -0.0450003 -1.195 
0.0935889 -0.00499827 -1.195 0.421246 -0.00499918 -1.19501 0.406537 -0.0215959 -1.18434 
0.359656 -0.0194692 -1.1906 0.479238 -0.0394517 -1.18097 0.103586 -0.00499803 -1.195 
0.389223 -0.0213018 -1.19501 0.299704 -0.0391735 -1.16496 0.0985652 -0.0136689 -1.19501 
0.123834 -0.0355584 -1.18555 0.0596087 -0.0450052 -1.18635 0.0782067 -0.0308628 -1.195 
0.0331636 -0.0136412 -1.19502 0.422588 -0.03057 -1.19501 0.235917 -0.0405157 -1.1871 
0.387881 -0.0353146 -1.19502 0.416392 -0.0378713 -1.18057 0.150415 -0.022312 -1.19501 
0.429528 -0.00499692 -1.1894 0.101993 -0.027677 -1.19501 0.0885909 -0.0222879 -1.18631 
0.152153 -0.043577 -1.17775 0.421972 -0.0449913 -1.195 0.221776 -0.04497 -1.19501 
0.200558 -0.00501873 -1.195 0.00500177 -0.029887 -1.17203 0.432036 -0.0272931 -1.195 
0.20638 -0.0238844 -1.195 0.371055 -0.0438667 -1.19267 0.44676 -0.0121742 -1.18141 
0.112012 -0.0103725 -1.19501 0.0646203 -0.0449966 -1.1777 0.180549 -0.00500452 -1.195 
0.265444 -0.00516803 -1.18596 0.380208 -0.0260951 -1.195 0.422769 -0.0128452 -1.189 
0.0541491 -0.0274608 -1.195 0.405727 -0.0199731 -1.195 0.0377634 -0.0291374 -1.18442 
0.0918448 -0.0450012 -1.195 0.445431 -0.026742 -1.19501 0.0495629 -0.0450126 -1.18635 
0.145434 -0.0309794 -1.195 0.274015 -0.0404361 -1.1816 0.0695821 -0.0360208 -1.19501 
0.155509 -0.00790047 -1.18681 0.470395 -0.0168219 -1.1882 0.021562 -0.0408014 -1.17735 
0.0785722 -0.0137021 -1.19501 0.105352 -0.0122844 -1.1878 0.36366 -0.0265913 -1.18424 
0.402007 -0.0300211 -1.18726 0.0970508 -0.0450017 -1.18631 0.229884 -0.00500037 -1.19502 
0.107003 -0.0190242 -1.19501 0.351184 -0.0228036 -1.19492 0.397505 -0.0210165 -1.18941 
0.339963 -0.0402147 -1.17877 0.437291 -0.00499682 -1.18144 0.231771 -0.0450107 -1.19499 
0.267467 -0.0353274 -1.195 0.43017 -0.0120587 -1.18233 0.0762761 -0.0376981 -1.18779 
0.0935166 -0.0223727 -1.19501 0.140432 -0.0396361 -1.195 0.323805 -0.0291005 -1.19497 
0.429875 -0.0450028 -1.18888 0.0824058 -0.0379758 -1.17951 0.381671 -0.00536001 -1.19066 
0.0548935 -0.0286762 -1.17333 0.0429146 -0.00499677 -1.18177 0.0658527 -0.00499687 -1.18869 
0.329643 -0.0405778 -1.1813 0.15883 -0.0276924 -1.195 0.422805 -0.0207946 -1.18266 
0.078342 -0.0221684 -1.18645 0.381194 -0.0147083 -1.19487 0.169551 -0.0166165 -1.18613 
0.189798 -0.0327033 -1.18646 0.185395 -0.0374492 -1.195 0.333061 -0.0244796 -1.19499 
0.0481632 -0.00499687 -1.19501 0.0489293 -0.0211119 -1.17601 0.165437 -0.0136464 -1.19496 
0.39477 -0.0375481 -1.18814 0.133764 -0.0377515 -1.18779 0.120436 -0.0049957 -1.195 
0.126994 -0.0450047 -1.18635 0.0661491 -0.020457 -1.18809 0.0670267 -0.0126571 -1.195 
0.394763 -0.0448735 -1.19498 0.370853 -0.031093 -1.19081 0.106989 -0.0305742 -1.18684 
0.358168 -0.00519504 -0.579387 0.155428 -0.0136564 -1.195 0.292643 -0.0447455 -1.19498 
0.398911 -0.011796 -1.18103 0.0910927 -0.0330243 -1.17946 0.160083 -0.0199273 -1.18876 
0.112079 -0.00499429 -1.18658 0.0608589 -0.00508842 -1.18003 0.210552 -0.00499804 -1.195 
0.274656 -0.0267625 -1.195 0.15043 -0.00499728 -1.195 0.282586 -0.0449937 -1.19474 
0.368307 -0.0135506 -1.19038 0.0712616 -0.0290504 -1.18804 0.272051 -0.0447892 -1.19298 
0.09359 -0.00501948 -1.17769 0.185501 -0.0174998 -1.19499 0.438266 -0.0123046 -1.18819 
0.361523 -0.00628678 -1.19325 0.100155 -0.0363504 -1.18237 0.196395 -0.0239262 -1.19498 
0.207568 -0.0404477 -1.18699 0.201989 -0.0426833 -1.195 0.225088 -0.0163053 -1.195 
0.350572 -0.00588977 -1.195 0.216809 -0.0362603 -1.195 0.177786 -0.0239842 -1.195 
0.14042 -0.0223246 -1.19501 0.0952781 -0.0295568 -1.18785 0.306226 -0.0440783 -1.19501 
0.0696074 -0.0450038 -1.18636 0.413719 -0.00502099 -1.18842 0.214927 -0.0162825 -1.19483 
0.244956 -0.0136628 -1.19329 0.135432 -0.0078921 -1.18684 0.116975 -0.0283344 -1.18637 
0.140977 -0.0450017 -1.18658 0.130423 -0.0223192 -1.195 0.241779 -0.0448088 -1.19498 
0.0642706 -0.0274309 -1.19501 0.0986261 -0.00499815 -1.18633 0.190554 -0.00499556 -1.195 
0.175495 -0.0057941 -1.18641 0.254929 -0.0161374 -1.19501 0.257103 -0.0361876 -1.195 
0.311305 -0.0166088 -1.18934 0.148867 -0.0450059 -1.1949 0.126903 -0.0260863 -1.18644 
0.121984 -0.0450045 -1.195 0.406198 -0.0124751 -1.1884 0.289307 -0.00530017 -1.195 
0.111991 -0.0196688 -1.18637 0.438762 -0.0276632 -1.18762 0.140428 -0.0165547 -1.18684 
0.207899 -0.0350071 -0.245002 0.298924 -0.044702 -1.18713 0.299291 -0.00657454 -1.19489 
0.387594 -0.0281798 -1.18794 0.291043 -0.0287577 -1.18468 0.0801025 -0.0268833 -1.17781 
0.358189 -0.0305754 -1.19395 0.00499745 -0.0424215 -1.17063 0.0830588 -0.0396047 -1.195 
0.384863 -0.0448868 -1.18501 0.0539043 -0.0368946 -1.16772 0.145426 -0.0136542 -1.195 
0.140431 -0.00499665 -1.195 0.170451 -0.00499831 -1.195 0.245502 -0.0254431 -1.19462 
0.260276 -0.00500202 -1.19499 0.409806 -0.0303298 -1.18071 0.106985 -0.0363444 -1.195 
0.294627 -0.024969 -1.195 0.246912 -0.0355892 -1.195 0.341343 -0.0283656 -1.19074 
0.0829887 -0.0450062 -1.18659 0.279915 -0.00903463 -1.19501 0.242629 -0.0345825 -1.18178 
0.12199 -0.0276923 -1.195 0.261979 -0.0449422 -1.195 0.475993 -0.0307051 -1.18457 
0.120729 -0.0199595 -1.18152 0.235679 -0.023603 -1.19486 0.163059 -0.0310086 -1.18657 
0.168877 -0.0449935 -1.195 0.211756 -0.0450057 -1.195 0.270436 -0.00506933 -1.195 
0.340007 -0.0155714 -1.19498 0.418393 -0.0292345 -1.18572 0.21709 -0.0439503 -1.18624 
0.158885 -0.0449954 -1.195 0.332582 -0.0352576 -1.19316 0.302193 -0.0175249 -1.19471 
0.389714 -0.00570132 -1.18239 0.221081 -0.0308815 -1.18765 0.135428 -0.0136626 -1.195 
0.29822 -0.0348972 -1.19478 0.281515 -0.0191476 -1.19499 0.239983 -0.0049927 -1.195 
0.205092 -0.0139371 -1.19499 0.200023 -0.0182701 -1.18753 0.0969867 -0.0363328 -1.195 
0.220221 -0.00754726 -1.195 0.150426 -0.0165485 -1.18684 0.126986 -0.0363499 -1.195 
0.438548 -0.0198887 -1.1811 0.251785 -0.0446308 -1.19497 0.195546 -0.00811602 -1.18687 
0.131997 -0.0450019 -1.195 0.383252 -0.0251395 -1.17392 0.255417 -0.0263928 -1.19381 
0.149275 -0.0393804 -1.18652 0.380367 -0.03455 -1.18527 0.265043 -0.0239924 -1.195 
0.399993 -0.0364207 -1.17967 0.152198 -0.0296025 -1.18773 0.178867 -0.0450093 -1.195 
0.08359 -0.00501426 -1.17769 0.196559 -0.0340063 -1.19499 0.368915 -0.0389259 -1.17763 
0.161178 -0.0428905 -1.1855 0.216065 -0.0262695 -1.195 0.408668 -0.0375531 -1.18754 
0.173876 -0.0363401 -1.19501 0.349679 -0.0125448 -1.18713 0.23392 -0.0253203 -1.17326 
0.19033 -0.0217236 -1.18731 0.453811 -0.0356677 -1.18102 0.163884 -0.0363252 -1.195 
0.186249 -0.0436932 -1.18698 0.226906 -0.0362442 -1.195 0.0885907 -0.0049979 -1.18635 
0.298687 -0.0120928 -1.18535 0.309383 -0.031675 -1.19458 0.277638 -0.0362593 -1.19419 
0.452635 -0.0283196 -1.18826 0.0709561 -0.0233712 -1.17982 0.210292 -0.0287006 -1.18716 
0.250259 -0.00505871 -1.19498 0.320076 -0.018091 -1.19471 0.14543 -0.0078875 -1.18684 
0.100313 -0.0209187 -1.18782 0.125431 -0.0136557 -1.19501 0.476342 -0.0192769 -1.18055 
0.226045 -0.0262699 -1.195 0.461482 -0.0288893 -1.18363 0.111983 -0.0450036 -1.195 
0.453618 -0.0198838 -1.18206 0.16782 -0.02335 -1.195 0.213754 -0.0102474 -1.18681 
0.117002 -0.0190323 -1.195 0.264701 -0.0139944 -1.195 0.316543 -0.0436749 -1.195 
0.194942 -0.0139773 -1.19499 0.326534 -0.0449275 -1.19484 
VERTICES 500 1000
1 0 
1 1 
1 2 
1 3 
1 4 
1 5 
1 6 
1 7 
1 8 
1 9 
1 10 
1 11 
1 12 
1 13 
1 14 
1 15 
1 16 
1 17 
1 18 
1 19 
1 20 
1 21 
1 22 
1 23 
1 24 
1 25 
1 26 
1 27 
1 28 
1 29 
1 30 
1 31 
1 32 
1 33 
1 34 
1 35 
1 36 
1 37 
1 38 
1 39 
1 40 
1 41 
1 42 
1 43 
1 44 
1 45 
1 46 
1 47 
1 48 
1 49 
1 50 
1 51 
1 52 
1 53 
1 54 
1 55 
1 56 
1 57 
1 58 
1 59 
1 60 
1 61 
1 62 
1 63 
1 64 
1 65 
1 66 
1 67 
1 68 
1 69 
1 70 
1 71 
1 72 
1 73 
1 74 
1 75 
1 76 
1 77 
1 78 
1 79 
1 80 
1 81 
1 82 
1 83 
1 84 
1 85 
1 86 
1 87 
1 88 
1 89 
1 90 
1 91 
1 92 
1 93 
1 94 
1 95 
1 96 
1 97 
1 98 
1 99 
1 100 
1 101 
1 102 
1 103 
1 104 
1 105 
1 106 
1 107 
1 108 
1 109 
1 110 
1 111 
1 112 
1 113 
1 114 
1 115 
1 116 
1 117 
1 118 
1 119 
1 120 
1 121 
1 122 
1 123 
1 124 
1 125 
1 126 
1 127 
1 128 
1 129 
1 130 
1 131 
1 132 
1 133 
1 134 
1 135 
1 136 
1 137 
1 138 
1 139 
1 140 
1 141 
1 142 
1 143 
1 144 
1 145 
1 146 
1 147 
1 148 
1 149 
1 150 
1 151 
1 152 
1 153 
1 154 
1 155 
1 156 
1 157 
1 158 
1 159 
1 160 
1 161 
1 162 
1 163 
1 164 
1 165 
1 166 
1 167 
1 168 
1 169 
1 170 
1 171 
1 172 
1 173 
1 174 
1 175 
1 176 
1 177 
1 178 
1 179 
1 180 
1 181 
1 182 
1 183 
1 184 
1 185 
1 186 
1 187 
1 188 
1 189 
1 190 
1 191 
1 192 
1 193 
1 194 
1 195 
1 196 
1 197 
1 198 
1 199 
1 200 
1 201 
1 202 
1 203 
1 204 
1 205 
1 206 
1 207 
1 208 
1 209 
1 210 
1 211 
1 212 
1 213 
1 214 
1 215 
1 216 
1 217 
1 218 
1 219 
1 220 
1 221 
1 222 
1 223 
1 224 
1 225 
1 226 
1 227 
1 228 
1 229 
1 230 
1 231 
1 232 
1 233 
1 234 
1 235 
1 236 
1 237 
1 238 
1 239 
1 240 
1 241 
1 242 
1 243 
1 244 
1 245 
1 246 
1 247 
1 248 
1 249 
1 250 
1 251 
1 252 
1 253 
1 254 
1 255 
1 256 
1 257 
1 258 
1 259 
1 260 
1 261 
1 262 
1 263 
1 264 
1 265 
1 266 
1 267 
1 268 
1 269 
1 270 
1 271 
1 272 
1 273 
1 274 
1 275 
1 276 
1 277 
1 278 
1 279 
1 280 
1 281 
1 282 
1 283 
1 284 
1 285 
1 286 
1 287 
1 288 
1 289 
1 290 
1 291 
1 292 
1 293 
1 294 
1 295 
1 296 
1 297 
1 298 
1 299 
1 300 
1 301 
1 302 
1 303 
1 304 
1 305 
1 306 
1 307 
1 308 
1 309 
1 310 
1 311 
1 312 
1 313 
1 314 
1 315 
1 316 
1 317 
1 318 
1 319 
1 320 
1 321 
1 322 
1 323 
1 324 
1 325 
1 326 
1 327 
1 328 
1 329 
1 330 
1 331 
1 332 
1 333 
1 334 
1 335 
1 336 
1 337 
1 338 
1 339 
1 340 
1 341 
1 342 
1 343 
1 344 
1 345 
1 346 
1 347 
1 348 
1 349 
1 350 
1 351 
1 352 
1 353 
1 354 
1 355 
1 356 
1 357 
1 358 
1 359 
1 360 
1 361 
1 362 
1 363 
1 364 
1 365 
1 366 
1 367 
1 368 
1 369 
1 370 
1 371 
1 372 
1 373 
1 374 
1 375 
1 376 
1 377 
1 378 
1 379 
1 380 
1 381 
1 382 
1 383 
1 384 
1 385 
1 386 
1 387 
1 388 
1 389 
1 390 
1 391 
1 392 
1 393 
1 394 
1 395 
1 396 
1 397 
1 398 
1 399 
1 400 
1 401 
1 402 
1 403 
1 404 
1 405 
1 406 
1 407 
1 408 
1 409 
1 410 
1 411 
1 412 
1 413 
1 414 
1 415 
1 416 
1 417 
1 418 
1 419 
1 420 
1 421 
1 422 
1 423 
1 424 
1 425 
1 426 
1 427 
1 428 
1 429 
1 430 
1 431 
1 432 
1 433 
1 434 
1 435 
1 436 
1 437 
1 438 
1 439 
1 440 
1 441 
1 442 
1 443 
1 444 
1 445 
1 446 
1 447 
1 448 
1 449 
1 450 
1 451 
1 452 
1 453 
1 454 
1 455 
1 456 
1 457 
1 458 
1 459 
1 460 
1 461 
1 462 
1 463 
1 464 
1 465 
1 466 
1 467 
1 468 
1 469 
1 470 
1 471 
1 472 
1 473 
1 474 
1 475 
1 476 
1 477 
1 478 
1 479 
1 480 
1 481 
1 482 
1 483 
1 484 
1 485 
1 486 
1 487 
1 488 
1 489 
1 490 
1 491 
1 492 
1 493 
1 494 
1 495 
1 496 
1 497 
1 498 
1 499 

POINT_DATA 500
FIELD FieldData 7
id 1 500 int
1 2 3 4 5 6 7 8 9 
10 11 12 13 14 15 16 17 18 
19 20 21 22 23 24 25 26 27 
28 29 30 31 32 33 34 35 36 
37 38 39 40 41 42 43 44 45 
46 47 48 49 50 51 52 53 54 
55 56 57 58 59 60 61 62 63 
64 65 66 67 68 69 70 71 72 
73 74 75 76 77 78 79 80 81 
82 83 84 85 86 87 88 89 90 
91 92 93 94 95 96 97 98 99 
100 101 102 103 104 105 106 107 108 
109 110 111 112 113 114 115 116 117 
118 119 120 121 122 123 124 125 126 
127 128 129 130 131 132 133 134 135 
136 137 138 139 140 141 142 143 144 
145 146 147 148 149 150 151 152 153 
154 155 156 157 158 159 160 161 162 
163 164 165 166 167 168 169 170 171 
172 173 174 175 176 177 178 179 180 
181 182 183 184 185 186 187 188 189 
190 191 192 193 194 195 196 197 198 
199 200 201 202 203 204 205 206 207 
208 209 210 211 212 213 214 215 216 
217 218 219 220 221 222 223 224 225 
226 227 228 229 230 231 232 233 234 
235 236 237 238 239 240 241 242 243 
244 245 246 247 248 249 250 251 252 
253 254 255 256 257 258 259 260 261 
262 263 264 265 266 267 268 269 270 
271 272 273 274 275 276 277 278 279 
280 281 282 283 284 285 286 287 288 
289 290 291 292 293 294 295 296 297 
298 299 300 301 302 303 304 305 306 
307 308 309 310 311 312 313 314 315 
316 317 318 319 320 321 322 323 324 
325 326 327 328 329 330 331 332 333 
334 335 336 337 338 339 340 341 342 
343 344 345 346 347 348 349 350 351 
352 353 354 355 356 357 358 359 360 
361 362 363 364 365 366 367 368 369 
370 371 372 373 374 375 376 377 378 
379 380 381 382 383 384 385 386 387 
388 389 390 391 392 393 394 395 396 
397 398 399 400 401 402 403 404 405 
406 407 408 409 410 411 412 413 414 
415 416 417 418 419 420 421 422 423 
424 425 426 427 428 429 430 431 432 
433 434 435 436 437 438 439 440 441 
442 443 444 445 446 447 448 449 450 
451 452 453 454 455 456 457 458 459 
460 461 462 463 464 465 466 467 468 
469 470 471 472 473 474 475 476 477 
478 479 480 481 482 483 484 485 486 
487 488 489 490 491 492 493 494 495 
496 497 498 499 500 
type 1 500 int
1 1 1 1 1 1 1 1 1 
1 1 1 1 1 1 1 1 1 
1 1 1 1 1 1 1 1 1 
1 1 1 1 1 1 1 1 1 
1 1 1 1 1 1 1 1 1 
1 1 1 1 1 1 1 1 1 
1 1 1 1 1 1 1 1 1 
1 1 1 1 1 1 1 1 1 
1 1 1 1 1 1 1 1 1 
1 1 1 1 1 1 1 1 1 
1 1 1 1 1 1 1 1 1 
1 1 1 1 1 1 1 1 1 
1 1 1 1 1 1 1 1 1 
1 1 1 1 1 1 1 1 1 
1 1 1 1 1 1 1 1 1 
1 1 1 1 1 1 1 1 1 
1 1 1 1 1 1 1 1 1 
1 1 1 1 1 1 1 1 1 
1 1 1 1 1 1 1 1 1 
1 1 1 1 1 1 1 1 1 
1 1 1 1 1 1 1 1 1 
1 1 1 1 1 1 1 1 1 
1 1 1 1 1 1 1 1 1 
1 1 1 1 1 1 1 1 1 
1 1 1 1 1 1 1 1 1 
1 1 1 1 1 1 1 1 1 
1 1 1 1 1 1 1 1 1 
1 1 1 1 1 1 1 1 1 
1 1 1 1 1 1 1 1 1 
1 1 1 1 1 1 1 1 1 
1 1 1 1 1 1 1 1 1 
1 1 1 1 1 1 1 1 1 
1 1 1 1 1 1 1 1 1 
1 1 1 1 1 1 1 1 1 
1 1 1 1 1 1 1 1 1 
1 1 1 1 1 1 1 1 1 
1 1 1 1 1 1 1 1 1 
1 1 1 1 1 1 1 1 1 
1 1 1 1 1 1 1 1 1 
1 1 1 1 1 1 1 1 1 
1 1 1 1 1 1 1 1 1 
1 1 1 1 1 1 1 1 1 
1 1 1 1 1 1 1 1 1 
1 1 1 1 1 1 1 1 1 
1 1 1 1 1 1 1 1 1 
1 1 1 1 1 1 1 1 1 
1 1 1 1 1 1 1 1 1 
1 1 1 1 1 1 1 1 1 
1 1 1 1 1 1 1 1 1 
1 1 1 1 1 1 1 1 1 
1 1 1 1 1 1 1 1 1 
1 1 1 1 1 1 1 1 1 
1 1 1 1 1 1 1 1 1 
1 1 1 1 1 1 1 1 1 
1 1 1 1 1 1 1 1 1 
1 1 1 1 1 
i 3 500 int
0 0 0 0 0 0 0 0 0 
0 0 0 0 0 0 0 0 0 
0 0 0 0 0 0 0 0 0 
0 0 0 0 0 0 0 0 0 
0 0 0 0 0 0 0 0 0 
0 0 0 0 0 0 0 0 0 
0 0 0 0 0 0 0 0 0 
0 0 0 0 0 0 0 0 0 
0 0 0 0 0 0 0 0 0 
0 0 0 0 0 0 0 0 0 
0 0 0 0 0 0 0 0 0 
0 0 0 0 0 0 0 0 0 
0 0 0 0 0 0 0 0 0 
0 0 0 0 0 0 0 0 0 
0 0 0 0 0 0 0 0 0 
0 0 0 0 0 0 0 0 0 
0 0 0 0 0 0 0 0 0 
0 0 0 0 0 0 0 0 0 
0 0 0 0 0 0 0 0 0 
0 0 0 0 0 0 0 0 0 
0 0 0 0 0 0 0 0 0 
0 0 0 0 0 0 0 0 0 
0 0 0 0 0 0 0 0 0 
0 0 0 0 0 0 0 0 0 
0 0 0 0 0 0 0 0 0 
0 0 0 0 0 0 0 0 0 
0 0 0 0 0 0 0 0 0 
0 0 0 0 0 0 0 0 0 
0 0 0 0 0 0 0 0 0 
0 0 0 0 0 0 0 0 0 
0 0 0 0 0 0 0 0 0 
0 0 0 0 0 0 0 0 0 
0 0 0 0 0 0 0 0 0 
0 0 0 0 0 0 0 0 0 
0 0 0 0 0 0 0 0 0 
0 0 0 0 0 0 0 0 0 
0 0 0 0 0 0 0 0 0 
0 0 0 0 0 0 0 0 0 
0 0 0 0 0 0 0 0 0 
0 0 0 0 0 0 0 0 0 
0 0 0 0 0 0 0 0 0 
0 0 0 0 0 0 0 0 0 
0 0 0 0 0 0 0 0 0 
0 0 0 0 0 0 0 0 0 
0 0 0 0 0 0 0 0 0 
0 0 0 0 0 0 0 0 0 
0 0 0 0 0 0 0 0 0 
0 0 0 0 0 0 0 0 0 
0 0 0 0 0 0 0 0 0 
0 0 0 0 0 0 0 0 0 
0 0 0 0 0 0 0 0 0 
0 0 0 0 0 0 0 0 0 
0 0 0 0 0 0 0 0 0 
0 0 0 0 0 0 0 0 0 
0 0 0 0 0 0 0 0 0 
0 0 0 0 0 0 0 0 0 
0 0 0 0 0 0 0 0 0 
0 0 0 0 0 0 0 0 0 
0 0 0 0 0 0 0 0 0 
0 0 0 0 0 0 0 0 0 
0 0 0 0 0 0 0 0 0 
0 0 0 0 0 0 0 0 0 
0 0 0 0 0 0 0 0 0 
0 0 0 0 0 0 0 0 0 
0 0 0 0 0 0 0 0 0 
0 0 0 0 0 0 0 0 0 
0 0 0 0 0 0 0 0 0 
0 0 0 0 0 0 0 0 0 
0 0 0 0 0 0 0 0 0 
0 0 0 0 0 0 0 0 0 
0 0 0 0 0 0 0 0 0 
0 0 0 0 0 0 0 0 0 
0 0 0 0 0 0 0 0 0 
0 0 0 0 0 0 0 0 0 
0 0 0 0 0 0 0 0 0 
0 0 0 0 0 0 0 0 0 
0 0 0 0 0 0 0 0 0 
0 0 0 0 0 0 0 0 0 
0 0 0 0 0 0 0 0 0 
0 0 0 0 0 0 0 0 0 
0 0 0 0 0 0 0 0 0 
0 0 0 0 0 0 0 0 0 
0 0 0 0 0 0 0 0 0 
0 0 0 0 0 0 0 0 0 
0 0 0 0 0 0 0 0 0 
0 0 0 0 0 0 0 0 0 
0 0 0 0 0 0 0 0 0 
0 0 0 0 0 0 0 0 0 
0 0 0 0 0 0 0 0 0 
0 0 0 0 0 0 0 0 0 
0 0 0 0 0 0 0 0 0 
0 0 0 0 0 0 0 0 0 
0 0 0 0 0 0 0 0 0 
0 0 0 0 0 0 0 0 0 
0 0 0 0 0 0 0 0 0 
0 0 0 0 0 0 0 0 0 
0 0 0 0 0 0 0 0 0 
0 0 0 0 0 0 0 0 0 
0 0 0 0 0 0 0 0 0 
0 0 0 0 0 0 0 0 0 
0 0 0 0 0 0 0 0 0 
0 0 0 0 0 0 0 0 0 
0 0 0 0 0 0 0 0 0 
0 0 0 0 0 0 0 0 0 
0 0 0 0 0 0 0 0 0 
0 0 0 0 0 0 0 0 0 
0 0 0 0 0 0 0 0 0 
0 0 0 0 0 0 0 0 0 
0 0 0 0 0 0 0 0 0 
0 0 0 0 0 0 0 0 0 
0 0 0 0 0 0 0 0 0 
0 0 0 0 0 0 0 0 0 
0 0 0 0 0 0 0 0 0 
0 0 0 0 0 0 0 0 0 
0 0 0 0 0 0 0 0 0 
0 0 0 0 0 0 0 0 0 
0 0 0 0 0 0 0 0 0 
0 0 0 0 0 0 0 0 0 
0 0 0 0 0 0 0 0 0 
0 0 0 0 0 0 0 0 0 
0 0 0 0 0 0 0 0 0 
0 0 0 0 0 0 0 0 0 
0 0 0 0 0 0 0 0 0 
0 0 0 0 0 0 0 0 0 
0 0 0 0 0 0 0 0 0 
0 0 0 0 0 0 0 0 0 
0 0 0 0 0 0 0 0 0 
0 0 0 0 0 0 0 0 0 
0 0 0 0 0 0 0 0 0 
0 0 0 0 0 0 0 0 0 
0 0 0 0 0 0 0 0 0 
0 0 0 0 0 0 0 0 0 
0 0 0 0 0 0 0 0 0 
0 0 0 0 0 0 0 0 0 
0 0 0 0 0 0 0 0 0 
0 0 0 0 0 0 0 0 0 
0 0 0 0 0 0 0 0 0 
0 0 0 0 0 0 0 0 0 
0 0 0 0 0 0 0 0 0 
0 0 0 0 0 0 0 0 0 
0 0 0 0 0 0 0 0 0 
0 0 0 0 0 0 0 0 0 
0 0 0 0 0 0 0 0 0 
0 0 0 0 0 0 0 0 0 
0 0 0 0 0 0 0 0 0 
0 0 0 0 0 0 0 0 0 
0 0 0 0 0 0 0 0 0 
0 0 0 0 0 0 0 0 0 
0 0 0 0 0 0 0 0 0 
0 0 0 0 0 0 0 0 0 
0 0 0 0 0 0 0 0 0 
0 0 0 0 0 0 0 0 0 
0 0 0 0 0 0 0 0 0 
0 0 0 0 0 0 0 0 0 
0 0 0 0 0 0 0 0 0 
0 0 0 0 0 0 0 0 0 
0 0 0 0 0 0 0 0 0 
0 0 0 0 0 0 0 0 0 
0 0 0 0 0 0 0 0 0 
0 0 0 0 0 0 0 0 0 
0 0 0 0 0 0 0 0 0 
0 0 0 0 0 0 0 0 0 
0 0 0 0 0 0 0 0 0 
0 0 0 0 0 0 0 0 0 
0 0 0 0 0 0 0 0 0 
0 0 0 0 0 0 0 0 0 
0 0 0 0 0 0 
v 3 500 double
-0.0390031 0.00375265 0.00102583 -8.41716e-05 0.116451 -0.183616 -0.000611568 -0.000394631 8.35234e-05 
0.00541043 -0.00130208 -0.000706831 0.00131955 0.00261243 -0.00587564 0.00476358 -0.000217521 -0.00770854 
0.00951159 -0.00171846 -0.0167491 0.00956359 -0.00120043 -0.0217357 0.0159129 -0.00140842 -6.86507e-05 
-0.00946829 -0.00017254 -0.0185383 -0.069009 0.0165015 -0.0869676 -0.0121084 0.00338812 0.00108161 
0.00957198 -0.00142581 -0.00848504 -0.356143 0.0950592 0.00122968 0.00188205 -0.0031085 -0.00599082 
-0.105355 -0.00443432 -0.0173468 -0.00457414 -0.000450139 -0.016041 -7.88329e-05 -1.57941e-05 0.000191613 
0.0122434 0.000641383 0.000963908 -0.00303474 -0.00278073 -0.00038689 -0.00436487 0.00114014 0.00161451 
-0.012612 0.0284374 0.0151696 0.000509508 -0.00359003 7.70498e-05 0.00235246 -0.000126287 -0.00100048 
-0.0614251 0.0369551 0.0202033 -0.0835582 -0.0887999 -0.0992042 0.00161475 -0.00183839 -0.000347093 
-0.00901708 -0.00388456 -0.00223223 -0.325665 -0.133069 0.028875 0.014494 -0.000516712 -0.000840582 
-0.00401227 -0.00439622 0.0011917 -0.0079006 0.000709974 -0.00298586 -0.0447216 -0.0505394 -0.0566102 
-0.00922754 0.00216594 0.00228432 -0.0518856 -0.0185308 -0.00195578 0.00409963 -0.00245918 -0.0037615 
-0.0320712 0.00622217 -0.00985305 0.00376593 -0.00280053 0.00113349 0.0167872 -0.000595813 -0.00899213 
-0.000149828 -0.00014028 0.000331094 0.0183497 -0.0234269 -4.19166e-11 0.0176728 0.00106041 -0.000813149 
0.00945877 0.0036626 -0.00648307 -0.0189009 0.00761006 -0.00530148 0.0184916 0.00187464 -0.000106211 
0.000915939 0.000169653 0.000143017 0.0045025 0.00138478 0.00032278 -0.000357735 0.000719298 -0.00128766 
0.00706625 6.26118e-05 0.00275052 0.0108327 0.00509658 0.00161375 -0.0831284 -0.0322206 0.000163894 
-0.00175228 0.000337684 0.000282078 0.00010889 -0.000236336 0.000321187 0.00965276 0.000247541 0.000930131 
-0.00373039 0.00212562 0.000944736 -0.00129598 0.00328872 -0.00262517 0.0157129 -0.000563635 -8.47301e-05 
0.0108923 0.00217104 -0.00189406 0.000155223 0.000342806 0.000968614 0.0119216 0.00137569 -0.00869238 
-0.00250958 -0.0105764 -0.00074949 -0.0145923 0.00273632 -0.00212404 0.000329207 0.000353133 0.00151793 
0.0029367 -0.00306197 -0.0159652 0.0130532 -0.000261512 0.000545468 -0.0016358 0.00721877 -0.000871856 
-0.0326392 0.0268823 -0.00159644 -0.00995867 -0.00489116 -0.0095044 -0.0143133 -4.34602e-06 -0.000263232 
4.56703e-05 -0.000396065 -0.000220178 0.000834381 -0.00223122 0.000234474 0.000965568 9.81289e-05 0.000677168 
0.00757785 0.00177206 -0.00377828 -0.000153784 -0.00169674 0.000954125 0.0136552 6.95547e-05 -0.000424597 
0.00723995 -0.00128469 -0.00270822 0.000479415 4.05363e-05 0.00118219 -0.0309361 -0.00170822 -0.0200456 
-0.0379538 -0.0303124 -0.015303 0.00327448 -0.000224582 0.00230398 0.00928372 -0.00152171 -0.00840995 
-0.000552071 -0.00569696 -0.00623988 -0.00957846 0.00187043 -0.00330291 -0.00256109 0.000231655 -0.000856905 
-0.725183 0.0495746 -0.566576 0.0128631 0.000805401 -0.000725775 -0.0019897 -0.00258136 -0.000777238 
-0.416239 0.214347 0.0330826 -0.00281777 0.000950684 0.00232247 5.8751e-05 1.4828e-05 0.000433262 
0.0130413 -0.00109463 -1.36179e-06 0.0994884 -0.0659665 0.0242082 0.00548403 -0.000878429 -0.00714483 
-0.000596202 0.000696237 0.000490414 0.00138222 -0.000222376 0.000397968 0.000889085 -0.00127678 -0.00226698 
0.0132297 7.42021e-05 -0.000964976 0.0153372 -0.000278572 0.000380748 -0.049721 0.00841355 -0.000782272 
0.0142775 0.000352962 0.000237321 0.012099 0.000208159 -9.88683e-05 0.00177698 -0.000170582 1.14074e-11 
-0.000556239 -0.000910989 0.00219262 -0.0198216 0.0116102 -0.00934449 -0.02664 -0.0357745 -0.000411421 
-0.0936391 -0.163439 0.00695311 0.0173692 0.000986847 -0.000848201 0.0204076 -0.00504229 -0.0004458 
0.0167322 0.000114171 -7.34482e-05 0.00286159 -0.0013966 -0.00764513 0.0216109 0.00322387 0.00215161 
0.0112582 0.0017748 -0.000966112 3.95469e-05 -3.44881e-05 9.95951e-05 -0.0542828 -0.0215728 -0.00178222 
0.017991 -0.0349942 -0.0103328 0.00149065 0.000891299 -0.000321914 -0.0346427 -0.0201257 -0.0240479 
-0.0191131 0.000818593 0.00395306 -0.00451824 0.000358007 -0.00967283 0.0130673 0.00083177 -0.000562412 
-0.00916055 -0.0309545 -0.00865591 0.000473489 0.000161454 0.000592045 -0.023317 -1.77052e-06 -0.000341625 
-0.0230604 -0.000205097 0.00142488 -0.00819668 -9.30933e-05 0.000376672 -7.13273e-05 -0.000279143 0.000192957 
0.000464821 0.000976336 1.95742e-12 -0.00349427 -0.00185809 -0.000215036 0.000162969 -0.000151791 -2.24499e-05 
-0.0077116 -0.000368966 0.00645937 0.00648823 -0.00177764 -0.00483281 0.000550934 -0.000216018 0.000480235 
-0.00141801 -0.00825102 -4.30016e-05 0.00864301 0.00015144 -0.0285588 0.00178608 8.24713e-05 0.000174373 
-0.0102175 -0.0524347 -0.103917 0.00166073 -0.00121049 -0.0023701 -0.0638909 -0.121214 0.0311077 
-0.0153275 0.000968022 -0.0202698 -0.00194015 0.0204567 -0.0186525 -0.0145765 0.00434331 0.000196249 
-0.00807126 0.00572125 -0.00629953 0.000928115 -0.00155145 -2.17684e-05 0.158889 -0.0470101 0.0603826 
-0.00554514 4.48937e-05 -0.00143803 -0.00196036 -0.00534759 -0.000172021 -0.000247138 -0.00119185 0.00185201 
0.0100204 0.00160439 0.000161779 -0.0304829 0.0048348 0.00034434 0.0158435 0.00452335 -0.00167756 
0.0146099 -0.000446035 0.000131766 -0.011364 0.00143619 -0.00105728 -0.000296727 0.000284442 0.00104108 
-0.00451415 -0.00479725 -2.64345e-07 -0.275474 0.0960026 -0.119275 -0.00685953 -0.016485 -0.000380483 
0.00600434 -0.00262185 0.000491169 -0.0025916 -0.000562259 -0.00664009 0.000137332 -5.01849e-06 -0.00020209 