# vtk DataFile Version 4.0
Generated by LIGGGHTS
ASCII
DATASET POLYDATA
POINTS 500 float
0.42429 -0.0449167 -1.1809 0.428914 -0.0340607 -1.18054 0.00512843 -0.0249893 -1.19501 
0.0385893 -0.0205979 -1.1749 0.0159029 -0.0226503 -1.17156 0.0356038 -0.00499897 -1.17474 
0.0437379 -0.0365803 -1.18527 0.0304736 -0.0411601 -1.17115 0.08822 -0.0137466 -1.17749 
0.470314 -0.00511557 -1.18335 0.382483 -0.0370699 -1.18385 0.463713 -0.0127798 -1.195 
0.0206138 -0.0142615 -1.16883 0.359724 -0.00506328 -1.195 0.0429271 -0.0116962 -1.17352 
0.401167 -0.0269515 -1.19498 0.028743 -0.0450038 -1.18278 0.495001 -0.0450009 -1.18514 
0.0387388 -0.0362712 -1.19501 0.482609 -0.0136488 -1.18691 0.00533152 -0.0199643 -1.17189 
0.181151 -0.031932 -1.19104 0.493405 -0.0450004 -1.195 0.0528538 -0.00499842 -1.18617 
0.174952 -0.0263853 -1.18419 0.399572 -0.0432517 -1.17841 0.485692 -0.0286399 -1.19501 
0.458037 -0.0440435 -1.195 0.348706 -0.00656057 -1.19269 0.0933124 -0.0136479 -1.18609 
0.0338123 -0.0207159 -1.18799 0.443072 -0.0450016 -1.18634 0.417395 -0.0125913 -1.18158 
0.461815 -0.0205261 -1.18898 0.209601 -0.0336682 -1.19492 0.0325636 -0.0368851 -1.18718 
0.409483 -0.00499896 -1.19501 0.0148733 -0.0434542 -1.195 0.0368039 -0.0379714 -1.1782 
0.495002 -0.0100005 -1.18635 0.22106 -0.035834 -0.245002 0.111243 -0.0276836 -1.19501 
0.0681188 -0.00928685 -1.17089 0.423256 -0.0377065 -1.18795 0.116231 -0.0363447 -1.195 
0.467133 -0.0350445 -1.19501 0.005 -0.0369129 -1.17914 0.00499869 -0.0199883 -1.18635 
0.484484 -0.0450023 -1.18739 0.432237 -0.0200759 -1.18811 0.395094 -0.00499969 -1.195 
0.477989 -0.0450022 -1.195 0.0215927 -0.00499772 -1.1875 0.0590157 -0.0450011 -1.16929 
0.00992214 -0.02498 -1.17923 0.0147229 -0.0337515 -1.17918 0.0827779 -0.0223571 -1.195 
0.0668457 -0.0192336 -1.17131 0.0140998 -0.00499975 -1.18089 0.0415498 -0.0301219 -1.17422 
0.0264386 -0.0358495 -1.19501 0.451369 -0.0355693 -1.19501 0.0148357 -0.0146552 -1.1784 
0.0430789 -0.0206598 -1.18424 0.0753073 -0.0450009 -1.17842 0.432326 -0.0126964 -1.195 
0.439934 -0.0330442 -1.17867 0.446847 -0.0259735 -1.18014 0.439247 -0.00499411 -1.19501 
0.00499476 -0.0130776 -1.17913 0.485693 -0.0386353 -1.195 0.491909 -0.0199949 -1.18692 
0.0421786 -0.0119449 -1.18905 0.013718 -0.0198704 -1.19501 0.0539021 -0.0450041 -1.17788 
0.052639 -0.0202039 -1.18711 0.0193765 -0.00500026 -1.1724 0.424312 -0.00508902 -1.18157 
0.412712 -0.0280629 -1.19165 0.492096 -0.0370222 -1.17986 0.0489009 -0.0364325 -1.17669 
0.026841 -0.0278533 -1.1874 0.446664 -0.0197026 -1.18807 0.00718287 -0.00499762 -1.17367 
0.28574 -0.0414855 -1.11912 0.0591908 -0.0365244 -1.17763 0.0212517 -0.0360832 -1.18646 
0.327803 -0.0338547 -1.195 0.43493 -0.0449941 -1.18041 0.00499565 -0.00499649 -1.18501 
0.0489166 -0.0365484 -1.195 0.394686 -0.0181832 -1.17882 0.0589312 -0.00515721 -1.16972 
0.00499473 -0.0299856 -1.18635 0.00499732 -0.0449997 -1.195 0.0116608 -0.0116634 -1.18834 
0.124685 -0.00513028 -1.18635 0.0832199 -0.013592 -1.18614 0.194785 -0.045003 -1.195 
0.0642324 -0.0449997 -1.19501 0.0726234 -0.0222704 -1.19501 0.207315 -0.0449907 -0.245002 
0.0143726 -0.0269316 -1.18797 0.463779 -0.0127944 -1.18295 0.302126 -0.0187934 -1.19498 
0.374914 -0.00591326 -1.17622 0.106225 -0.0428262 -1.18662 0.134659 -0.0309763 -1.19501 
0.101224 -0.0450008 -1.195 0.0491654 -0.0284942 -1.18275 0.174711 -0.0139861 -1.19499 
0.0590608 -0.0278097 -1.18636 0.495003 -0.00499718 -1.195 0.402335 -0.012133 -1.19501 
0.0987166 -0.0168519 -1.17832 0.0409889 -0.019877 -1.19501 0.261279 -0.0129206 -1.18682 
0.446685 -0.00499967 -1.18828 0.463095 -0.0450041 -1.18629 0.0540462 -0.0364483 -1.18635 
0.278108 -0.0185217 -1.18946 0.488719 -0.026336 -1.17948 0.454084 -0.00499811 -1.19501 
0.462041 -0.00499631 -1.18896 0.469996 -0.00500003 -1.19501 0.033564 -0.00499483 -1.18616 
0.205137 -0.0250728 -0.245002 0.468537 -0.0361741 -1.18517 0.495002 -0.0149955 -1.19501 
0.0172213 -0.04501 -1.18449 0.0359671 -0.0134283 -1.18136 0.495002 -0.024994 -1.195 
0.0582487 -0.00535363 -1.195 0.0241708 -0.0450007 -1.19168 0.049643 -0.0148767 -1.19501 
0.417366 -0.0197729 -1.18854 0.0213876 -0.0310084 -1.17177 0.252002 -0.0198375 -1.18632 
0.454665 -0.0050045 -1.18221 0.190143 -0.0302401 -1.19501 0.439464 -0.0197058 -1.19501 
0.469389 -0.0270353 -1.18947 0.485699 -0.00864666 -1.195 0.41001 -0.0126891 -1.17458 
0.473092 -0.0450024 -1.18629 0.416127 -0.0368331 -1.195 0.0190606 -0.0181901 -1.18674 
0.0586778 -0.0191471 -1.19501 0.447343 -0.0124973 -1.195 0.129377 -0.0160746 -1.18652 
0.0781297 -0.00499165 -1.18619 0.438076 -0.0449999 -1.195 0.00499647 -0.0450053 -1.18501 
0.476764 -0.0131309 -1.19501 0.234104 -0.0282581 -1.18597 0.453846 -0.0202093 -1.195 
0.0333389 -0.0278558 -1.195 0.486676 -0.00499705 -1.18399 0.0149924 -0.00499838 -1.19501 
0.476741 -0.0231299 -1.195 0.00499552 -0.0349867 -1.19501 0.184803 -0.0122879 -1.19013 
0.0275763 -0.0341706 -1.17896 0.0275771 -0.0129724 -1.18677 0.0384391 -0.0450005 -1.18627 
0.455583 -0.0126272 -1.18872 0.118144 -0.0126982 -1.1875 0.405432 -0.0449097 -1.18634 
0.0381926 -0.00499162 -1.19501 0.0563969 -0.0134055 -1.17515 0.299758 -0.018903 -1.16828 
0.0215947 -0.0125075 -1.195 0.453097 -0.0450009 -1.18636 0.485295 -0.033633 -1.18636 
0.153095 -0.0363309 -1.19495 0.0602331 -0.022109 -1.17823 0.0878383 -0.013663 -1.19501 
0.4826 -0.0236446 -1.18692 0.0203218 -0.0255175 -1.18006 0.0590508 -0.0362413 -1.195 
0.239216 -0.0335299 -1.195 0.495003 -0.0349958 -1.195 0.47827 -0.00499438 -1.1894 
0.00499537 -0.0149912 -1.19501 0.0719141 -0.0127695 -1.18701 0.135937 -0.0263118 -1.18626 
0.0301519 -0.0245184 -1.17856 0.2408 -0.0140962 -1.18808 0.467694 -0.0212598 -1.17935 
0.199178 -0.0366125 -1.18295 0.0335932 -0.044999 -1.19501 0.388306 -0.0447147 -1.1944 
0.3944 -0.0122191 -1.18812 0.00499716 -0.00499646 -1.19501 0.11621 -0.0421173 -1.18684 
0.0146906 -0.0382839 -1.17027 0.294941 -0.0060061 -1.18535 0.467991 -0.0450032 -1.195 
0.207636 -0.0153367 -0.245002 0.495001 -0.0299929 -1.18635 0.0891665 -0.023624 -1.17625 
0.0487466 -0.012867 -1.18157 0.448075 -0.0450042 -1.195 0.459273 -0.0361563 -1.18893 
0.430335 -0.036954 -1.19501 0.082845 -0.00499963 -1.19501 0.485694 -0.0186441 -1.195 
0.477032 -0.0336378 -1.195 0.0107716 -0.0450003 -1.17685 0.0642331 -0.0363527 -1.18626 
0.159679 -0.00500025 -1.195 0.296698 -0.0291458 -1.195 0.0542375 -0.0450051 -1.19501 
0.0827035 -0.030568 -1.1864 0.424995 -0.0199834 -1.195 0.233504 -0.014352 -1.195 
0.410402 -0.0450151 -1.19501 0.379631 -0.0053485 -1.195 0.024693 -0.0161854 -1.17776 
0.0894122 -0.0378333 -1.18786 0.409543 -0.00500159 -1.18097 0.361764 -0.0436368 -0.814257 
0.441371 -0.0355291 -1.19501 0.0877697 -0.0310196 -1.195 0.0706438 -0.00499961 -1.17957 
0.105399 -0.024244 -1.17914 0.402341 -0.00500344 -1.18799 0.12968 -0.00499489 -1.19501 
0.405709 -0.0360637 -1.195 0.0439033 -0.0450039 -1.1779 0.0435911 -0.0450067 -1.19501 
0.051031 -0.00499694 -1.17584 0.0166939 -0.0336223 -1.19501 0.0281914 -0.00499277 -1.19501 
0.0728483 -0.00499977 -1.195 0.489135 -0.0140767 -1.17935 0.44637 -0.0355635 -1.18635 
0.0440382 -0.0286408 -1.19133 0.0234078 -0.0223404 -1.195 0.0714062 -0.0344964 -1.17951 
0.0267011 -0.00647642 -1.17904 0.180831 -0.0449425 -1.18522 0.416188 -0.0449895 -1.18683 
0.0591701 -0.012645 -1.18743 0.435996 -0.0373581 -1.18678 0.0767929 -0.015555 -1.17874 
0.459807 -0.0282406 -1.19501 0.0112399 -0.037676 -1.18769 0.0654097 -0.0136472 -1.17947 
0.416833 -0.0121438 -1.195 0.290088 -0.0246905 -1.18641 0.0742311 -0.0450005 -1.195 
0.0928404 -0.00499716 -1.195 0.423833 -0.00499547 -1.195 0.409621 -0.0202982 -1.18224 
0.377068 -0.0269195 -1.18777 0.479371 -0.0394765 -1.18081 0.102837 -0.00499726 -1.195 
0.394255 -0.019463 -1.195 0.328699 -0.0262937 -1.13882 0.0978342 -0.0136546 -1.19501 
0.124473 -0.0352201 -1.18522 0.0592242 -0.0450027 -1.18634 0.0776348 -0.0309317 -1.19501 
0.0331859 -0.0136421 -1.19501 0.423286 -0.0298512 -1.195 0.246922 -0.0412021 -1.18589 
0.392255 -0.0354124 -1.19496 0.418125 -0.037186 -1.17923 0.149652 -0.0223248 -1.19501 
0.431538 -0.00500936 -1.18863 0.101244 -0.0276753 -1.195 0.0882233 -0.0222466 -1.1861 
0.17957 -0.0232667 -1.17319 0.421928 -0.044997 -1.19501 0.224105 -0.0445423 -1.195 
0.199745 -0.00499721 -1.195 0.00519555 -0.0299611 -1.17196 0.43296 -0.0273027 -1.195 
0.207826 -0.0237842 -1.195 0.377225 -0.0440844 -1.19423 0.447685 -0.0122584 -1.18147 
0.111263 -0.0103732 -1.19501 0.0649841 -0.0446677 -1.1773 0.1797 -0.0051919 -1.195 
0.277465 -0.00524182 -1.1884 0.386084 -0.0275119 -1.19501 0.424735 -0.012439 -1.1884 
0.0532729 -0.0275535 -1.195 0.409453 -0.0192361 -1.19501 0.0375088 -0.0289385 -1.18367 
0.0911326 -0.0449978 -1.195 0.446412 -0.0268927 -1.19501 0.048918 -0.0450167 -1.18655 
0.144654 -0.0309802 -1.19499 0.315198 -0.0354455 -1.16329 0.0690488 -0.0362355 -1.19501 
0.155252 -0.00844106 -1.18651 0.471222 -0.0173421 -1.18784 0.0218797 -0.0419117 -1.1762 
0.0778406 -0.0136639 -1.19501 0.105035 -0.0122726 -1.18742 0.365305 -0.0313771 -1.17579 
0.404669 -0.0285737 -1.18568 0.0962102 -0.0450049 -1.18636 0.229937 -0.00501747 -1.195 
0.106258 -0.0190249 -1.19501 0.368609 -0.0275104 -1.19501 0.401623 -0.0193827 -1.18817 
0.365267 -0.0435962 -1.19492 0.439096 -0.00499929 -1.18151 0.234114 -0.0449787 -1.195 
0.268967 -0.0350439 -1.195 0.432222 -0.0123154 -1.18177 0.0758816 -0.037715 -1.18788 
0.0927772 -0.022357 -1.195 0.139657 -0.0396359 -1.195 0.332602 -0.0230957 -1.19282 
0.429999 -0.0450088 -1.18911 0.0822155 -0.0378697 -1.17959 0.387359 -0.00499616 -1.18867 
0.0544694 -0.0287534 -1.17348 0.0426009 -0.0049933 -1.18188 0.0655554 -0.00499385 -1.18817 
0.348346 -0.037486 -1.16736 0.158109 -0.0276553 -1.195 0.425096 -0.0193063 -1.18114 
0.0777001 -0.0219137 -1.1864 0.386572 -0.0127048 -1.195 0.173663 -0.0162673 -1.18082 
0.183903 -0.0303783 -1.18139 0.18644 -0.0394985 -1.195 0.345639 -0.0183416 -1.19504 
0.0481889 -0.00499353 -1.19501 0.0485292 -0.0210757 -1.17586 0.164696 -0.013649 -1.195 
0.399097 -0.0367896 -1.18742 0.133758 -0.0384683 -1.18702 0.119684 -0.00499508 -1.195 
0.126216 -0.0450011 -1.18634 0.0656878 -0.020517 -1.18802 0.0659365 -0.0122757 -1.19501 
0.399802 -0.0447632 -1.195 0.377321 -0.0339906 -1.195 0.106251 -0.030559 -1.18684 
0.332868 -0.00510638 -0.422525 0.154687 -0.0136889 -1.19501 0.292885 -0.044961 -1.19455 
0.402451 -0.0122201 -1.18108 0.0909641 -0.0330663 -1.17901 0.159598 -0.0196877 -1.1887 
0.111839 -0.00499474 -1.1866 0.0603957 -0.00499878 -1.17961 0.209903 -0.00500343 -1.195 
0.285983 -0.027785 -1.19499 0.14968 -0.00500183 -1.195 0.28345 -0.0444992 -1.19124 
0.379263 -0.0201886 -1.195 0.0708773 -0.0290631 -1.18788 0.274189 -0.0445946 -1.195 
0.0933042 -0.00513656 -1.17744 0.186708 -0.0208161 -1.195 0.439834 -0.0123407 -1.18826 
0.375432 -0.0139995 -1.18814 0.0997335 -0.0365955 -1.18226 0.197358 -0.023368 -1.19501 
0.208843 -0.041137 -1.18571 0.204463 -0.0424164 -1.19499 0.223767 -0.0166941 -1.195 
0.368785 -0.00703617 -1.19114 0.219476 -0.0353681 -1.19484 0.177126 -0.023682 -1.195 
0.139661 -0.0223189 -1.195 0.0949435 -0.0295227 -1.18747 0.311793 -0.0438163 -1.19498 
0.0692234 -0.0450081 -1.18635 0.416678 -0.00498893 -1.18802 0.214017 -0.0145212 -1.19477 
0.246289 -0.0187692 -1.195 0.134662 -0.00759238 -1.18675 0.11623 -0.0297294 -1.18659 
0.141391 -0.0450034 -1.18675 0.129667 -0.0223147 -1.195 0.244103 -0.0447235 -1.19488 
0.0640426 -0.0275793 -1.19501 0.098313 -0.00499486 -1.18609 0.189695 -0.00498204 -1.19496 
0.174405 -0.00821425 -1.18681 0.255574 -0.0149405 -1.19499 0.258961 -0.0355967 -1.19501 
0.322851 -0.0234453 -1.195 0.148095 -0.0450004 -1.195 0.125677 -0.0253586 -1.18635 
0.121222 -0.045003 -1.195 0.409668 -0.0121224 -1.188 0.293169 -0.00856218 -1.19491 
0.111255 -0.0210537 -1.18659 0.439726 -0.028124 -1.18768 0.139352 -0.0167356 -1.18673 
0.207852 -0.0350008 -0.245002 0.320101 -0.0433648 -1.1669 0.305402 -0.00850951 -1.195 
0.392872 -0.0263027 -1.18782 0.310985 -0.032622 -1.18571 0.0797148 -0.026524 -1.17776 
0.371031 -0.0411903 -1.18652 0.00499948 -0.0407187 -1.1699 0.0826519 -0.0396109 -1.195 
0.391272 -0.0423824 -1.18461 0.0533808 -0.0368843 -1.16776 0.144672 -0.0136501 -1.195 
0.139676 -0.0049959 -1.19501 0.169689 -0.00499168 -1.19501 0.252881 -0.0264562 -1.19501 
0.259946 -0.00579793 -1.195 0.415162 -0.0276764 -1.17835 0.106233 -0.03634 -1.195 
0.308008 -0.0304477 -1.195 0.248973 -0.035707 -1.19499 0.35991 -0.0394131 -1.18616 
0.0825825 -0.0450101 -1.18658 0.283076 -0.0110839 -1.19496 0.257894 -0.0427919 -1.18351 
0.12124 -0.0276916 -1.195 0.264196 -0.04422 -1.195 0.476232 -0.0302136 -1.18289 
0.119384 -0.0199694 -1.18075 0.237384 -0.0236222 -1.195 0.166398 -0.03028 -1.18772 
0.168119 -0.0449624 -1.195 0.214129 -0.0449811 -1.19494 0.269935 -0.00531989 -1.195 
0.358639 -0.0155343 -1.1948 0.422422 -0.0280378 -1.18521 0.219042 -0.0445042 -1.18611 
0.158095 -0.0450003 -1.195 0.340118 -0.0298931 -1.19489 0.316729 -0.0146666 -1.1924 
0.39466 -0.00539619 -1.18082 0.224218 -0.0351976 -1.18578 0.134676 -0.0136539 -1.19501 
0.302065 -0.0409838 -1.195 0.291019 -0.0190069 -1.19491 0.239944 -0.00519908 -1.195 
0.204006 -0.0140921 -1.195 0.202166 -0.0225729 -1.18631 0.0962364 -0.036335 -1.195 
0.219915 -0.00536635 -1.195 0.14934 -0.0171587 -1.18645 0.12623 -0.0363485 -1.195 
0.439407 -0.0193883 -1.18118 0.254217 -0.0447897 -1.195 0.194418 -0.00837177 -1.18653 
0.131224 -0.0450045 -1.195 0.379261 -0.0343836 -1.1715 0.261979 -0.0273747 -1.19013 
0.150711 -0.0405082 -1.18616 0.389891 -0.0311033 -1.17955 0.274488 -0.0261665 -1.19504 
0.401646 -0.033463 -1.17742 0.150663 -0.0292857 -1.18715 0.178114 -0.0450025 -1.19499 
0.083134 -0.00512967 -1.17754 0.19959 -0.0335974 -1.19498 0.364175 -0.0412944 -1.00333 
0.160113 -0.0437203 -1.18464 0.217683 -0.0255213 -1.19497 0.410935 -0.0364327 -1.18639 
0.173092 -0.0362912 -1.195 0.364636 -0.0193054 -1.1873 0.269546 -0.0340833 -1.18487 
0.193439 -0.0274653 -1.18592 0.454643 -0.0373262 -1.18014 0.163086 -0.0363248 -1.19497 
0.190645 -0.0411168 -1.18574 0.229535 -0.0360631 -1.195 0.0883082 -0.00499356 -1.1861 
0.324989 -0.0131134 -1.18139 0.323356 -0.0266056 -1.16771 0.279007 -0.03543 -1.19505 
0.453044 -0.0282347 -1.18765 0.0704316 -0.0233463 -1.17969 0.211734 -0.0279158 -1.18669 
0.249938 -0.00559823 -1.195 0.329261 -0.0133052 -1.195 0.144663 -0.00785547 -1.18684 
0.100039 -0.0209276 -1.18741 0.12468 -0.0136521 -1.19501 0.476529 -0.0162977 -1.17943 
0.22768 -0.0261464 -1.19424 0.461907 -0.0285448 -1.18301 0.111223 -0.0450027 -1.19501 
0.454636 -0.0200017 -1.18204 0.167127 -0.0233462 -1.195 0.216252 -0.00959647 -1.18619 
0.116255 -0.0190314 -1.195 0.266772 -0.0150998 -1.19487 0.321417 -0.0430356 -1.19238 
0.194004 -0.0139771 -1.195 0.352924 -0.0389209 -1.19455 
VERTICES 500 1000
1 0 
1 1 
1 2 
1 3 
1 4 
1 5 
1 6 
1 7 
1 8 
1 9 
1 10 
1 11 
1 12 
1 13 
1 14 
1 15 
1 16 
1 17 
1 18 
1 19 
1 20 
1 21 
1 22 
1 23 
1 24 
1 25 
1 26 
1 27 
1 28 
1 29 
1 30 
1 31 
1 32 
1 33 
1 34 
1 35 
1 36 
1 37 
1 38 
1 39 
1 40 
1 41 
1 42 
1 43 
1 44 
1 45 
1 46 
1 47 
1 48 
1 49 
1 50 
1 51 
1 52 
1 53 
1 54 
1 55 
1 56 
1 57 
1 58 
1 59 
1 60 
1 61 
1 62 
1 63 
1 64 
1 65 
1 66 
1 67 
1 68 
1 69 
1 70 
1 71 
1 72 
1 73 
1 74 
1 75 
1 76 
1 77 
1 78 
1 79 
1 80 
1 81 
1 82 
1 83 
1 84 
1 85 
1 86 
1 87 
1 88 
1 89 
1 90 
1 91 
1 92 
1 93 
1 94 
1 95 
1 96 
1 97 
1 98 
1 99 
1 100 
1 101 
1 102 
1 103 
1 104 
1 105 
1 106 
1 107 
1 108 
1 109 
1 110 
1 111 
1 112 
1 113 
1 114 
1 115 
1 116 
1 117 
1 118 
1 119 
1 120 
1 121 
1 122 
1 123 
1 124 
1 125 
1 126 
1 127 
1 128 
1 129 
1 130 
1 131 
1 132 
1 133 
1 134 
1 135 
1 136 
1 137 
1 138 
1 139 
1 140 
1 141 
1 142 
1 143 
1 144 
1 145 
1 146 
1 147 
1 148 
1 149 
1 150 
1 151 
1 152 
1 153 
1 154 
1 155 
1 156 
1 157 
1 158 
1 159 
1 160 
1 161 
1 162 
1 163 
1 164 
1 165 
1 166 
1 167 
1 168 
1 169 
1 170 
1 171 
1 172 
1 173 
1 174 
1 175 
1 176 
1 177 
1 178 
1 179 
1 180 
1 181 
1 182 
1 183 
1 184 
1 185 
1 186 
1 187 
1 188 
1 189 
1 190 
1 191 
1 192 
1 193 
1 194 
1 195 
1 196 
1 197 
1 198 
1 199 
1 200 
1 201 
1 202 
1 203 
1 204 
1 205 
1 206 
1 207 
1 208 
1 209 
1 210 
1 211 
1 212 
1 213 
1 214 
1 215 
1 216 
1 217 
1 218 
1 219 
1 220 
1 221 
1 222 
1 223 
1 224 
1 225 
1 226 
1 227 
1 228 
1 229 
1 230 
1 231 
1 232 
1 233 
1 234 
1 235 
1 236 
1 237 
1 238 
1 239 
1 240 
1 241 
1 242 
1 243 
1 244 
1 245 
1 246 
1 247 
1 248 
1 249 
1 250 
1 251 
1 252 
1 253 
1 254 
1 255 
1 256 
1 257 
1 258 
1 259 
1 260 
1 261 
1 262 
1 263 
1 264 
1 265 
1 266 
1 267 
1 268 
1 269 
1 270 
1 271 
1 272 
1 273 
1 274 
1 275 
1 276 
1 277 
1 278 
1 279 
1 280 
1 281 
1 282 
1 283 
1 284 
1 285 
1 286 
1 287 
1 288 
1 289 
1 290 
1 291 
1 292 
1 293 
1 294 
1 295 
1 296 
1 297 
1 298 
1 299 
1 300 
1 301 
1 302 
1 303 
1 304 
1 305 
1 306 
1 307 
1 308 
1 309 
1 310 
1 311 
1 312 
1 313 
1 314 
1 315 
1 316 
1 317 
1 318 
1 319 
1 320 
1 321 
1 322 
1 323 
1 324 
1 325 
1 326 
1 327 
1 328 
1 329 
1 330 
1 331 
1 332 
1 333 
1 334 
1 335 
1 336 
1 337 
1 338 
1 339 
1 340 
1 341 
1 342 
1 343 
1 344 
1 345 
1 346 
1 347 
1 348 
1 349 
1 350 
1 351 
1 352 
1 353 
1 354 
1 355 
1 356 
1 357 
1 358 
1 359 
1 360 
1 361 
1 362 
1 363 
1 364 
1 365 
1 366 
1 367 
1 368 
1 369 
1 370 
1 371 
1 372 
1 373 
1 374 
1 375 
1 376 
1 377 
1 378 
1 379 
1 380 
1 381 
1 382 
1 383 
1 384 
1 385 
1 386 
1 387 
1 388 
1 389 
1 390 
1 391 
1 392 
1 393 
1 394 
1 395 
1 396 
1 397 
1 398 
1 399 
1 400 
1 401 
1 402 
1 403 
1 404 
1 405 
1 406 
1 407 
1 408 
1 409 
1 410 
1 411 
1 412 
1 413 
1 414 
1 415 
1 416 
1 417 
1 418 
1 419 
1 420 
1 421 
1 422 
1 423 
1 424 
1 425 
1 426 
1 427 
1 428 
1 429 
1 430 
1 431 
1 432 
1 433 
1 434 
1 435 
1 436 
1 437 
1 438 
1 439 
1 440 
1 441 
1 442 
1 443 
1 444 
1 445 
1 446 
1 447 
1 448 
1 449 
1 450 
1 451 
1 452 
1 453 
1 454 
1 455 
1 456 
1 457 
1 458 
1 459 
1 460 
1 461 
1 462 
1 463 
1 464 
1 465 
1 466 
1 467 
1 468 
1 469 
1 470 
1 471 
1 472 
1 473 
1 474 
1 475 
1 476 
1 477 
1 478 
1 479 
1 480 
1 481 
1 482 
1 483 
1 484 
1 485 
1 486 
1 487 
1 488 
1 489 
1 490 
1 491 
1 492 
1 493 
1 494 
1 495 
1 496 
1 497 
1 498 
1 499 

POINT_DATA 500
FIELD FieldData 7
id 1 500 int
1 2 3 4 5 6 7 8 9 
10 11 12 13 14 15 16 17 18 
19 20 21 22 23 24 25 26 27 
28 29 30 31 32 33 34 35 36 
37 38 39 40 41 42 43 44 45 
46 47 48 49 50 51 52 53 54 
55 56 57 58 59 60 61 62 63 
64 65 66 67 68 69 70 71 72 
73 74 75 76 77 78 79 80 81 
82 83 84 85 86 87 88 89 90 
91 92 93 94 95 96 97 98 99 
100 101 102 103 104 105 106 107 108 
109 110 111 112 113 114 115 116 117 
118 119 120 121 122 123 124 125 126 
127 128 129 130 131 132 133 134 135 
136 137 138 139 140 141 142 143 144 
145 146 147 148 149 150 151 152 153 
154 155 156 157 158 159 160 161 162 
163 164 165 166 167 168 169 170 171 
172 173 174 175 176 177 178 179 180 
181 182 183 184 185 186 187 188 189 
190 191 192 193 194 195 196 197 198 
199 200 201 202 203 204 205 206 207 
208 209 210 211 212 213 214 215 216 
217 218 219 220 221 222 223 224 225 
226 227 228 229 230 231 232 233 234 
235 236 237 238 239 240 241 242 243 
244 245 246 247 248 249 250 251 252 
253 254 255 256 257 258 259 260 261 
262 263 264 265 266 267 268 269 270 
271 272 273 274 275 276 277 278 279 
280 281 282 283 284 285 286 287 288 
289 290 291 292 293 294 295 296 297 
298 299 300 301 302 303 304 305 306 
307 308 309 310 311 312 313 314 315 
316 317 318 319 320 321 322 323 324 
325 326 327 328 329 330 331 332 333 
334 335 336 337 338 339 340 341 342 
343 344 345 346 347 348 349 350 351 
352 353 354 355 356 357 358 359 360 
361 362 363 364 365 366 367 368 369 
370 371 372 373 374 375 376 377 378 
379 380 381 382 383 384 385 386 387 
388 389 390 391 392 393 394 395 396 
397 398 399 400 401 402 403 404 405 
406 407 408 409 410 411 412 413 414 
415 416 417 418 419 420 421 422 423 
424 425 426 427 428 429 430 431 432 
433 434 435 436 437 438 439 440 441 
442 443 444 445 446 447 448 449 450 
451 452 453 454 455 456 457 458 459 
460 461 462 463 464 465 466 467 468 
469 470 471 472 473 474 475 476 477 
478 479 480 481 482 483 484 485 486 
487 488 489 490 491 492 493 494 495 
496 497 498 499 500 
type 1 500 int
1 1 1 1 1 1 1 1 1 
1 1 1 1 1 1 1 1 1 
1 1 1 1 1 1 1 1 1 
1 1 1 1 1 1 1 1 1 
1 1 1 1 1 1 1 1 1 
1 1 1 1 1 1 1 1 1 
1 1 1 1 1 1 1 1 1 
1 1 1 1 1 1 1 1 1 
1 1 1 1 1 1 1 1 1 
1 1 1 1 1 1 1 1 1 
1 1 1 1 1 1 1 1 1 
1 1 1 1 1 1 1 1 1 
1 1 1 1 1 1 1 1 1 
1 1 1 1 1 1 1 1 1 
1 1 1 1 1 1 1 1 1 
1 1 1 1 1 1 1 1 1 
1 1 1 1 1 1 1 1 1 
1 1 1 1 1 1 1 1 1 
1 1 1 1 1 1 1 1 1 
1 1 1 1 1 1 1 1 1 
1 1 1 1 1 1 1 1 1 
1 1 1 1 1 1 1 1 1 
1 1 1 1 1 1 1 1 1 
1 1 1 1 1 1 1 1 1 
1 1 1 1 1 1 1 1 1 
1 1 1 1 1 1 1 1 1 
1 1 1 1 1 1 1 1 1 
1 1 1 1 1 1 1 1 1 
1 1 1 1 1 1 1 1 1 
1 1 1 1 1 1 1 1 1 
1 1 1 1 1 1 1 1 1 
1 1 1 1 1 1 1 1 1 
1 1 1 1 1 1 1 1 1 
1 1 1 1 1 1 1 1 1 
1 1 1 1 1 1 1 1 1 
1 1 1 1 1 1 1 1 1 
1 1 1 1 1 1 1 1 1 
1 1 1 1 1 1 1 1 1 
1 1 1 1 1 1 1 1 1 
1 1 1 1 1 1 1 1 1 
1 1 1 1 1 1 1 1 1 
1 1 1 1 1 1 1 1 1 
1 1 1 1 1 1 1 1 1 
1 1 1 1 1 1 1 1 1 
1 1 1 1 1 1 1 1 1 
1 1 1 1 1 1 1 1 1 
1 1 1 1 1 1 1 1 1 
1 1 1 1 1 1 1 1 1 
1 1 1 1 1 1 1 1 1 
1 1 1 1 1 1 1 1 1 
1 1 1 1 1 1 1 1 1 
1 1 1 1 1 1 1 1 1 
1 1 1 1 1 1 1 1 1 
1 1 1 1 1 1 1 1 1 
1 1 1 1 1 1 1 1 1 
1 1 1 1 1 
i 3 500 int
0 0 0 0 0 0 0 0 0 
0 0 0 0 0 0 0 0 0 
0 0 0 0 0 0 0 0 0 
0 0 0 0 0 0 0 0 0 
0 0 0 0 0 0 0 0 0 
0 0 0 0 0 0 0 0 0 
0 0 0 0 0 0 0 0 0 
0 0 0 0 0 0 0 0 0 
0 0 0 0 0 0 0 0 0 
0 0 0 0 0 0 0 0 0 
0 0 0 0 0 0 0 0 0 
0 0 0 0 0 0 0 0 0 
0 0 0 0 0 0 0 0 0 
0 0 0 0 0 0 0 0 0 
0 0 0 0 0 0 0 0 0 
0 0 0 0 0 0 0 0 0 
0 0 0 0 0 0 0 0 0 
0 0 0 0 0 0 0 0 0 
0 0 0 0 0 0 0 0 0 
0 0 0 0 0 0 0 0 0 
0 0 0 0 0 0 0 0 0 
0 0 0 0 0 0 0 0 0 
0 0 0 0 0 0 0 0 0 
0 0 0 0 0 0 0 0 0 
0 0 0 0 0 0 0 0 0 
0 0 0 0 0 0 0 0 0 
0 0 0 0 0 0 0 0 0 
0 0 0 0 0 0 0 0 0 
0 0 0 0 0 0 0 0 0 
0 0 0 0 0 0 0 0 0 
0 0 0 0 0 0 0 0 0 
0 0 0 0 0 0 0 0 0 
0 0 0 0 0 0 0 0 0 
0 0 0 0 0 0 0 0 0 
0 0 0 0 0 0 0 0 0 
0 0 0 0 0 0 0 0 0 
0 0 0 0 0 0 0 0 0 
0 0 0 0 0 0 0 0 0 
0 0 0 0 0 0 0 0 0 
0 0 0 0 0 0 0 0 0 
0 0 0 0 0 0 0 0 0 
0 0 0 0 0 0 0 0 0 
0 0 0 0 0 0 0 0 0 
0 0 0 0 0 0 0 0 0 
0 0 0 0 0 0 0 0 0 
0 0 0 0 0 0 0 0 0 
0 0 0 0 0 0 0 0 0 
0 0 0 0 0 0 0 0 0 
0 0 0 0 0 0 0 0 0 
0 0 0 0 0 0 0 0 0 
0 0 0 0 0 0 0 0 0 
0 0 0 0 0 0 0 0 0 
0 0 0 0 0 0 0 0 0 
0 0 0 0 0 0 0 0 0 
0 0 0 0 0 0 0 0 0 
0 0 0 0 0 0 0 0 0 
0 0 0 0 0 0 0 0 0 
0 0 0 0 0 0 0 0 0 
0 0 0 0 0 0 0 0 0 
0 0 0 0 0 0 0 0 0 
0 0 0 0 0 0 0 0 0 
0 0 0 0 0 0 0 0 0 
0 0 0 0 0 0 0 0 0 
0 0 0 0 0 0 0 0 0 
0 0 0 0 0 0 0 0 0 
0 0 0 0 0 0 0 0 0 
0 0 0 0 0 0 0 0 0 
0 0 0 0 0 0 0 0 0 
0 0 0 0 0 0 0 0 0 
0 0 0 0 0 0 0 0 0 
0 0 0 0 0 0 0 0 0 
0 0 0 0 0 0 0 0 0 
0 0 0 0 0 0 0 0 0 
0 0 0 0 0 0 0 0 0 
0 0 0 0 0 0 0 0 0 
0 0 0 0 0 0 0 0 0 
0 0 0 0 0 0 0 0 0 
0 0 0 0 0 0 0 0 0 
0 0 0 0 0 0 0 0 0 
0 0 0 0 0 0 0 0 0 
0 0 0 0 0 0 0 0 0 
0 0 0 0 0 0 0 0 0 
0 0 0 0 0 0 0 0 0 
0 0 0 0 0 0 0 0 0 
0 0 0 0 0 0 0 0 0 
0 0 0 0 0 0 0 0 0 
0 0 0 0 0 0 0 0 0 
0 0 0 0 0 0 0 0 0 
0 0 0 0 0 0 0 0 0 
0 0 0 0 0 0 0 0 0 
0 0 0 0 0 0 0 0 0 
0 0 0 0 0 0 0 0 0 
0 0 0 0 0 0 0 0 0 
0 0 0 0 0 0 0 0 0 
0 0 0 0 0 0 0 0 0 
0 0 0 0 0 0 0 0 0 
0 0 0 0 0 0 0 0 0 
0 0 0 0 0 0 0 0 0 
0 0 0 0 0 0 0 0 0 
0 0 0 0 0 0 0 0 0 
0 0 0 0 0 0 0 0 0 
0 0 0 0 0 0 0 0 0 
0 0 0 0 0 0 0 0 0 
0 0 0 0 0 0 0 0 0 
0 0 0 0 0 0 0 0 0 
0 0 0 0 0 0 0 0 0 
0 0 0 0 0 0 0 0 0 
0 0 0 0 0 0 0 0 0 
0 0 0 0 0 0 0 0 0 
0 0 0 0 0 0 0 0 0 
0 0 0 0 0 0 0 0 0 
0 0 0 0 0 0 0 0 0 
0 0 0 0 0 0 0 0 0 
0 0 0 0 0 0 0 0 0 
0 0 0 0 0 0 0 0 0 
0 0 0 0 0 0 0 0 0 
0 0 0 0 0 0 0 0 0 
0 0 0 0 0 0 0 0 0 
0 0 0 0 0 0 0 0 0 
0 0 0 0 0 0 0 0 0 
0 0 0 0 0 0 0 0 0 
0 0 0 0 0 0 0 0 0 
0 0 0 0 0 0 0 0 0 
0 0 0 0 0 0 0 0 0 
0 0 0 0 0 0 0 0 0 
0 0 0 0 0 0 0 0 0 
0 0 0 0 0 0 0 0 0 
0 0 0 0 0 0 0 0 0 
0 0 0 0 0 0 0 0 0 
0 0 0 0 0 0 0 0 0 
0 0 0 0 0 0 0 0 0 
0 0 0 0 0 0 0 0 0 
0 0 0 0 0 0 0 0 0 
0 0 0 0 0 0 0 0 0 
0 0 0 0 0 0 0 0 0 
0 0 0 0 0 0 0 0 0 
0 0 0 0 0 0 0 0 0 
0 0 0 0 0 0 0 0 0 
0 0 0 0 0 0 0 0 0 
0 0 0 0 0 0 0 0 0 
0 0 0 0 0 0 0 0 0 
0 0 0 0 0 0 0 0 0 
0 0 0 0 0 0 0 0 0 
0 0 0 0 0 0 0 0 0 
0 0 0 0 0 0 0 0 0 
0 0 0 0 0 0 0 0 0 
0 0 0 0 0 0 0 0 0 
0 0 0 0 0 0 0 0 0 
0 0 0 0 0 0 0 0 0 
0 0 0 0 0 0 0 0 0 
0 0 0 0 0 0 0 0 0 
0 0 0 0 0 0 0 0 0 
0 0 0 0 0 0 0 0 0 
0 0 0 0 0 0 0 0 0 
0 0 0 0 0 0 0 0 0 
0 0 0 0 0 0 0 0 0 
0 0 0 0 0 0 0 0 0 
0 0 0 0 0 0 0 0 0 
0 0 0 0 0 0 0 0 0 
0 0 0 0 0 0 0 0 0 
0 0 0 0 0 0 0 0 0 
0 0 0 0 0 0 0 0 0 
0 0 0 0 0 0 0 0 0 
0 0 0 0 0 0 0 0 0 
0 0 0 0 0 0 0 0 0 
0 0 0 0 0 0 0 0 0 
0 0 0 0 0 0 
v 3 500 double
-0.0255115 -0.0381153 0.00295464 -0.00591637 0.00721319 -0.0080847 -0.000892208 0.0004459 -2.87276e-05 
0.00101425 0.00988279 0.0140534 0.0130066 0.016717 -0.0129695 -0.00150313 0.000576087 -0.000359858 
0.00797737 0.00211765 -0.000805188 0.00707475 -0.0521309 -0.0248563 0.00594406 0.0423411 0.000908782 
-0.00377108 0.0126578 -0.00569417 -0.0818386 0.0355988 -0.331814 0.00824768 -0.00568881 -2.97828e-05 
0.0202412 0.0026267 0.0057339 -0.218814 -0.00415264 -3.86914e-05 0.00720698 0.0104061 8.92853e-05 
-0.0942425 0.0369532 -0.0264621 -0.012394 0.000515538 -0.00255583 -3.99659e-06 1.36663e-05 -0.000153216 
0.0110695 0.00182378 0.00150922 0.000657917 -7.25488e-05 0.000337342 -0.00640424 0.00260534 -0.00045183 
-0.058958 0.0176849 0.0683492 0.000118215 -2.06882e-05 -7.71125e-05 0.00357194 5.77204e-05 -0.00190192 
-0.0200856 0.0283075 -0.0792299 -0.104642 0.0801898 -0.0599839 -0.000173358 -6.82759e-05 -2.42791e-05 
-0.000792497 -0.00132234 0.00075093 -0.208323 -0.170243 -0.256619 0.000254909 0.00200433 -0.00259641 
0.00151645 0.00289025 0.00267918 0.00733917 -0.00065368 0.0021958 -0.0323331 -0.00355296 -0.00345484 
-0.00430376 0.00085752 0.00393301 -0.0422339 0.00340554 -0.0149651 0.00364629 -0.00565164 -0.00356095 
-0.0338214 0.00711661 0.0245052 8.7238e-05 0.0028882 -3.05747e-05 0.00469642 -0.00139175 -0.00388253 
0.000108844 7.03505e-05 -6.34189e-06 0.0183497 -0.0234269 -4.19829e-11 0.00851631 0.001574 0.00162493 
-0.0030308 -0.00963506 -0.00761077 -0.0119886 -0.00964254 -0.0305277 0.0101869 0.00159114 0.00243296 
-0.000552386 0.000538289 6.16073e-05 -7.50119e-05 -0.00166167 0.000337045 -0.00010183 0.000531942 -0.000668334 
1.67404e-05 -7.11298e-05 -7.77102e-05 -0.0125042 -0.00458804 0.00583033 -0.0137728 0.000889034 0.00183831 
0.000248701 -6.18619e-05 -8.08961e-05 -0.00110613 0.000288369 0.00114873 -8.19769e-05 0.000457715 0.00692752 
-0.000355566 0.00246267 0.00097596 0.00179565 0.00386181 -0.00273905 0.00653907 0.00192196 -0.000652604 
0.0064637 0.00582253 -0.00620494 -0.000287451 8.6259e-06 0.00169542 0.00367612 0.00781084 -0.0220966 
0.000625553 0.00542237 0.000429598 -0.00357557 0.00315066 0.00074808 0.00180287 0.000303163 0.00132761 
0.0026781 -2.76849e-05 0.000214684 -0.0222365 -0.000508662 0.0193881 -0.00656824 -0.00944842 -0.00097543 
-0.0071916 0.00496294 0.0221097 0.00162112 -0.0110101 -0.00607394 -0.0274756 -0.00917231 0.00409054 
0.000874882 0.000631451 -0.00112228 2.55533e-05 -1.7702e-05 -4.39153e-05 -8.97589e-05 -0.000134617 9.85852e-05 
0.00134335 0.000818969 0.00085026 -0.000398225 -0.00010774 0.000641826 0.00750862 0.000672042 0.00190505 
0.00291842 0.000573179 -0.00052826 -0.000594257 -0.00142148 0.00237223 -0.0359587 0.0200465 0.0317127 
-0.0244302 -0.000766251 -0.0264181 0.000126487 1.25317e-05 -0.000119546 0.00523785 -0.000223716 0.0020163 
0.00476514 -0.00116798 -0.00255809 -0.0073236 0.00523373 -0.00373765 -0.000397356 -6.96879e-05 0.00113401 
-0.725183 0.0495746 0.169174 0.00607542 0.00245623 0.00248824 3.68477e-05 0.00224676 -0.000157103 
-0.174828 -0.0513498 -5.74215e-06 0.0215576 0.00202473 0.000609296 3.31497e-05 0.000636683 0.0003692 
0.00396525 0.00285658 0.000205912 0.0310056 -0.226991 -0.189785 -0.00232458 0.00589251 0.000314763 
0.000160453 0.000225306 0.000921838 0.000433358 4.2416e-05 0.000307283 -0.000764361 9.03909e-05 -0.000425978 
0.0083485 -0.0121337 -0.00111705 0.00341129 -0.000615142 0.000311273 -0.00855095 -0.00629017 7.73343e-05 
0.00146645 0.00139183 0.000620236 -0.000122143 0.00892343 0.000728925 0.00177682 -7.62457e-05 -2.18669e-13 
-0.000209283 0.00140517 0.00137941 -0.00327441 0.0048855 -0.000963252 -0.340995 -0.0995933 0.0146438 
-0.0598332 0.162885 -0.190577 0.00179223 -0.0173208 0.00351206 0.00985182 -0.00409558 0.00542838 
0.00371008 -0.000302647 0.000229736 0.00508822 0.00119176 0.00375373 0.00736558 0.0112213 0.0130551 
0.00584182 0.00194145 0.00296612 2.35688e-05 -2.58162e-06 2.66174e-06 -0.0430351 -0.00955455 0.00635599 
0.0439791 0.0387081 -0.0172323 9.82344e-05 0.00137469 0.000211446 -0.0694791 0.0921556 0.0310358 
0.00478317 -0.0133834 0.0262136 0.00100745 0.000582719 0.00113795 0.00299412 0.00368915 0.00285589 
-0.30537 0.109895 0.0333482 0.00258534 0.00541577 -0.000598672 -0.0152751 -0.000271228 0.00306435 
-0.00413404 -0.000425153 -0.00755004 0.00314308 -0.000597592 -0.00102378 0.000100673 -3.18544e-05 0.00182795 
0.000464821 0.000976337 1.95304e-12 -0.00306206 -0.00165384 0.000333181 -1.97965e-05 -3.43602e-05 3.3266e-05 
0.00484736 -0.000283971 -0.00796488 0.000950947 -0.00235414 -0.000173422 -2.67675e-05 -5.81746e-05 2.65638e-05 
0.00153946 -0.0030943 7.86121e-05 0.00327109 0.000242158 -0.0105455 -0.000121268 0.000833988 -6.53619e-05 
-0.0225458 -0.0181933 0.0224407 0.00300375 0.00530534 -0.00712707 -0.0236563 -0.0652266 0.0258977 
0.0438789 0.000551813 0.0516244 -0.0443559 0.00559854 -0.019837 -0.0146281 -0.0089944 0.00182208 
-0.00373076 0.00242273 -0.00154152 0.000154955 -0.000124886 7.25009e-05 -0.100064 -0.0749346 -0.0736607 
0.000577032 0.0002795 -0.000266751 -0.0401022 -0.00545195 0.00182002 0.000184671 0.00165993 0.000520747 
0.000801027 0.00732892 -0.000923563 -0.00855428 -0.00465514 -2.10364e-08 0.0134109 -0.0120096 -0.0053001 
0.0062008 0.00119809 -0.000775404 -0.0051183 -0.000590362 0.00548138 0.000107188 -0.000349402 0.000513884 
0.000360909 -0.000144931 0.000194411 0.134766 -0.0229475 0.125891 -0.00243571 0.00133918 0.000297574 
0.00653483 -0.00181496 -0.000291968 0.000493857 6.39998e-05 0.000485923 0.000336171 -0.000119068 -0.000212048 
-0.00151593 -0.000102107 0.000156693 -7.0722e-05 0.00151162 -4.60631e-06 0.01272 0.0360787 0.0359503 