# vtk DataFile Version 4.0
Generated by LIGGGHTS
ASCII
DATASET POLYDATA
POINTS 500 float
0.416379 -0.0449972 -1.18653 0.415959 -0.029314 -1.18771 0.00505509 -0.0250065 -1.19501 
0.0392789 -0.0204786 -1.17535 0.0168674 -0.0222668 -1.17257 0.0362796 -0.0049975 -1.17634 
0.0455548 -0.0365331 -1.18625 0.0323238 -0.0450009 -1.17658 0.0904487 -0.016544 -1.17818 
0.469195 -0.00499835 -1.18502 0.340571 -0.0444089 -1.195 0.463493 -0.0136253 -1.19501 
0.0215963 -0.0141359 -1.16918 0.321427 -0.00501452 -1.19499 0.043821 -0.0112608 -1.17437 
0.372804 -0.0293301 -1.195 0.0277281 -0.0450036 -1.18546 0.495001 -0.0450013 -1.18514 
0.0407803 -0.0360587 -1.19501 0.481662 -0.0136766 -1.18734 0.00550587 -0.0199097 -1.17186 
0.182781 -0.0297084 -1.18786 0.493379 -0.044999 -1.195 0.0535718 -0.00499661 -1.18636 
0.16884 -0.0300073 -1.18762 0.366701 -0.0444945 -1.1872 0.485696 -0.0286559 -1.195 
0.457056 -0.0450041 -1.19501 0.315269 -0.0142496 -1.195 0.0954494 -0.0136589 -1.18635 
0.0342332 -0.0205444 -1.1878 0.43694 -0.0448741 -1.18648 0.410034 -0.0126294 -1.18592 
0.459593 -0.0203894 -1.18877 0.205081 -0.0334185 -1.19501 0.0336079 -0.0373956 -1.18819 
0.390705 -0.00501866 -1.195 0.014872 -0.0434837 -1.19501 0.0383509 -0.0375331 -1.17939 
0.495001 -0.00999637 -1.18635 0.22684 -0.0432135 -0.245002 0.113885 -0.0276806 -1.195 
0.0694892 -0.00866858 -1.17209 0.409975 -0.0375408 -1.18838 0.118886 -0.0363363 -1.195 
0.466967 -0.0349844 -1.195 0.00541539 -0.0369234 -1.17915 0.00499844 -0.0200044 -1.18636 
0.484439 -0.0450018 -1.18738 0.427977 -0.0211426 -1.18839 0.380654 -0.00501949 -1.19502 
0.477927 -0.0450013 -1.195 0.0217815 -0.00499844 -1.18767 0.0609094 -0.0450009 -1.16944 
0.00993348 -0.0249953 -1.17924 0.0148754 -0.033686 -1.17927 0.0854445 -0.0223945 -1.19501 
0.0689547 -0.0186514 -1.17192 0.0142104 -0.00499921 -1.18114 0.0434487 -0.0295174 -1.17628 
0.0266465 -0.0351861 -1.19501 0.45003 -0.0374987 -1.195 0.0148589 -0.0146951 -1.17879 
0.0444479 -0.0209606 -1.18561 0.0773332 -0.0450011 -1.1783 0.426671 -0.0137658 -1.19501 
0.425492 -0.029909 -1.18427 0.443749 -0.0286394 -1.18158 0.431904 -0.00506048 -1.19501 
0.00499796 -0.0130865 -1.17914 0.48565 -0.0386535 -1.195 0.492104 -0.0199948 -1.18685 
0.0435563 -0.011961 -1.18987 0.0136956 -0.0199223 -1.19501 0.0558325 -0.0450026 -1.17805 
0.0545165 -0.0203143 -1.18738 0.0194861 -0.00499892 -1.17265 0.416582 -0.00499847 -1.18642 
0.394516 -0.0315228 -1.195 0.492359 -0.0370254 -1.17972 0.0503189 -0.0366853 -1.17746 
0.0277936 -0.0281836 -1.18797 0.443602 -0.0217107 -1.18885 0.00742639 -0.00499805 -1.1738 
0.153995 -0.037832 -1.17918 0.0610669 -0.0364856 -1.17783 0.0214926 -0.0357935 -1.18646 
0.287475 -0.0346639 -1.17943 0.426081 -0.0449874 -1.18407 0.00499683 -0.00499724 -1.18502 
0.0508314 -0.036708 -1.19501 0.406939 -0.0239076 -1.18239 0.0602396 -0.0049987 -1.17111 
0.00499592 -0.0300033 -1.18635 0.00499531 -0.045002 -1.19501 0.0119049 -0.0119056 -1.18847 
0.127325 -0.00506367 -1.18635 0.0854457 -0.013659 -1.18635 0.190669 -0.0450022 -1.195 
0.0664005 -0.0450003 -1.19501 0.0750142 -0.0221237 -1.195 0.207876 -0.0449923 -0.245002 
0.0143854 -0.0269879 -1.18797 0.46117 -0.0109409 -1.18567 0.294586 -0.014269 -1.195 
0.380537 -0.0389984 -1.15751 0.108886 -0.0421163 -1.18684 0.137326 -0.0309302 -1.195 
0.103886 -0.0450015 -1.195 0.0506181 -0.0284869 -1.18317 0.17755 -0.0136128 -1.195 
0.061045 -0.027826 -1.18642 0.495002 -0.0049969 -1.195 0.385465 -0.0137976 -1.195 
0.102517 -0.0150045 -1.17941 0.0411456 -0.0201799 -1.19501 0.255918 -0.0103661 -1.18821 
0.440303 -0.0050064 -1.18958 0.462521 -0.0450039 -1.18593 0.0560549 -0.0364874 -1.18648 
0.274485 -0.0156472 -1.195 0.489083 -0.0259862 -1.17943 0.448704 -0.004997 -1.195 
0.458619 -0.00500024 -1.19365 0.468543 -0.00499782 -1.195 0.0337523 -0.00499548 -1.18625 
0.205284 -0.0247652 -0.245002 0.467584 -0.0364183 -1.18513 0.495003 -0.0149946 -1.195 
0.0177316 -0.0450066 -1.18555 0.0375834 -0.013168 -1.18195 0.495001 -0.024994 -1.19501 
0.0585353 -0.00566651 -1.19501 0.0247519 -0.0450022 -1.195 0.0517651 -0.0144641 -1.19501 
0.401819 -0.0227246 -1.195 0.022522 -0.0317638 -1.17266 0.247233 -0.0202593 -1.18761 
0.451933 -0.00504527 -1.18554 0.189242 -0.0269357 -1.195 0.435549 -0.0217322 -1.19498 
0.468323 -0.0260492 -1.1907 0.4857 -0.00866198 -1.195 0.416471 -0.0209031 -1.18233 
0.472495 -0.0450006 -1.18661 0.402493 -0.037538 -1.19501 0.019362 -0.0183824 -1.18692 
0.0608332 -0.0189855 -1.19501 0.443875 -0.0137743 -1.195 0.132342 -0.0165026 -1.18684 
0.0804565 -0.00499697 -1.18635 0.431722 -0.0449946 -1.19501 0.00499778 -0.0450039 -1.18501 
0.475245 -0.0137037 -1.195 0.230682 -0.0329634 -1.18681 0.451491 -0.0222675 -1.195 
0.0348914 -0.027979 -1.195 0.486362 -0.00499876 -1.18573 0.0149963 -0.00499885 -1.19501 
0.477014 -0.0236081 -1.195 0.00499834 -0.0350044 -1.19501 0.187637 -0.00966938 -1.18771 
0.0289068 -0.0342944 -1.17993 0.0277648 -0.0129719 -1.18691 0.0399977 -0.0448996 -1.1865 
0.453247 -0.0131216 -1.19137 0.120586 -0.0123828 -1.18772 0.382923 -0.0449965 -1.195 
0.0385623 -0.00499374 -1.19501 0.0579452 -0.0131666 -1.1764 0.225282 -0.00497841 -1.18668 
0.0215867 -0.0125746 -1.195 0.449584 -0.0449997 -1.18836 0.485671 -0.0336537 -1.18635 
0.155857 -0.0362419 -1.195 0.0620658 -0.0220735 -1.17831 0.0904459 -0.0136648 -1.195 
0.482798 -0.0236531 -1.18685 0.0212288 -0.0260273 -1.18075 0.0612827 -0.0361913 -1.195 
0.235493 -0.0361991 -1.195 0.495003 -0.0351246 -1.195 0.477513 -0.0049995 -1.19059 
0.00499736 -0.0149944 -1.19501 0.074747 -0.0131923 -1.18682 0.14261 -0.0279124 -1.18674 
0.0310097 -0.0245455 -1.17923 0.235829 -0.00788494 -1.18684 0.463987 -0.0201255 -1.17979 
0.195661 -0.0420513 -1.18686 0.0347492 -0.0448809 -1.195 0.360461 -0.0450077 -1.195 
0.375455 -0.013736 -1.19506 0.00499848 -0.00499773 -1.19501 0.118884 -0.0421094 -1.18684 
0.0157832 -0.0389118 -1.1708 0.285587 -0.00513438 -1.18634 0.467056 -0.045 -1.195 
0.209001 -0.0152502 -0.245002 0.495001 -0.0300565 -1.18639 0.0975425 -0.0240495 -1.17952 
0.0497748 -0.0132336 -1.18216 0.442119 -0.0444759 -1.19501 0.458612 -0.036645 -1.18976 
0.417327 -0.036016 -1.195 0.0854549 -0.00499969 -1.19501 0.485702 -0.018659 -1.195 
0.476898 -0.0338175 -1.195 0.0116925 -0.0450013 -1.17759 0.0663402 -0.0363067 -1.18632 
0.162474 -0.00499932 -1.195 0.285273 -0.0356955 -1.195 0.0564031 -0.0450038 -1.19501 
0.0852406 -0.0308469 -1.18642 0.420207 -0.0227812 -1.195 0.235836 -0.0136586 -1.19501 
0.395779 -0.0449954 -1.19501 0.336707 -0.00891834 -1.14473 0.0245915 -0.0169352 -1.1783 
0.091951 -0.0380924 -1.18801 0.411175 -0.00574559 -1.17776 0.154476 -0.0294028 -0.988098 
0.435873 -0.0358851 -1.195 0.0903543 -0.0311264 -1.19501 0.0719839 -0.0049977 -1.18105 
0.107531 -0.0236485 -1.17976 0.39205 -0.00519438 -1.17871 0.132338 -0.00499051 -1.195 
0.381162 -0.0351459 -1.195 0.0447814 -0.0450035 -1.17772 0.0452489 -0.0450023 -1.195 
0.0518259 -0.0050427 -1.17651 0.0167645 -0.0336668 -1.19501 0.0285654 -0.00499916 -1.195 
0.0754555 -0.00505802 -1.19501 0.488367 -0.0138272 -1.17992 0.442953 -0.0366097 -1.18793 
0.0463375 -0.0282379 -1.1922 0.0236054 -0.0224461 -1.195 0.073572 -0.0344848 -1.17966 
0.0268469 -0.00666053 -1.17921 0.175673 -0.0395485 -1.18828 0.403302 -0.0450058 -1.18842 
0.0603654 -0.0122136 -1.18768 0.426732 -0.0375018 -1.19066 0.0796285 -0.0160831 -1.17858 
0.459558 -0.0281932 -1.19501 0.0112644 -0.0376887 -1.18769 0.0670834 -0.0136888 -1.18042 
0.405983 -0.0136293 -1.19501 0.261736 -0.0207029 -1.18753 0.0765593 -0.0450006 -1.195 
0.0954541 -0.00499967 -1.195 0.411139 -0.005029 -1.195 0.396488 -0.0203505 -1.18678 
0.335239 -0.0171352 -1.195 0.478816 -0.0391326 -1.18156 0.105453 -0.00499904 -1.195 
0.362946 -0.0257539 -1.195 0.260287 -0.0391786 -1.18669 0.100444 -0.0136653 -1.19501 
0.126181 -0.0354202 -1.18542 0.0614035 -0.045001 -1.18635 0.0801091 -0.030852 -1.195 
0.033572 -0.013654 -1.19501 0.409172 -0.0300969 -1.19501 0.225665 -0.0419528 -1.18688 
0.35655 -0.0339262 -1.195 0.403274 -0.0382936 -1.181 0.152393 -0.0222988 -1.195 
0.421845 -0.00500861 -1.19501 0.103887 -0.0276851 -1.19501 0.090446 -0.0223148 -1.18635 
0.155696 -0.0450083 -1.18634 0.410835 -0.0449962 -1.195 0.22064 -0.045001 -1.195 
0.20268 -0.00499877 -1.195 0.00499965 -0.029893 -1.17205 0.428329 -0.0286354 -1.195 
0.209059 -0.0242413 -1.195 0.33058 -0.0443495 -1.195 0.444806 -0.0125771 -1.18484 
0.113884 -0.0103719 -1.195 0.0664801 -0.0449729 -1.17774 0.182632 -0.00499967 -1.195 
0.265873 -0.00868312 -1.187 0.351713 -0.0245488 -1.195 0.416508 -0.0134642 -1.195 
0.0559192 -0.0276946 -1.195 0.390887 -0.0222133 -1.19501 0.0387792 -0.0292009 -1.18572 
0.0938055 -0.0450004 -1.195 0.443724 -0.0295833 -1.195 0.0508299 -0.0450067 -1.18671 
0.147347 -0.030947 -1.19501 0.238582 -0.0401662 -1.1863 0.0712812 -0.0360334 -1.19501 
0.157436 -0.00785843 -1.18685 0.469346 -0.0166362 -1.18748 0.0226547 -0.0417106 -1.1775 
0.0804484 -0.0137292 -1.19501 0.107229 -0.0122902 -1.1878 0.340224 -0.0259058 -1.19426 
0.386691 -0.02917 -1.18918 0.0989684 -0.0450027 -1.1863 0.230823 -0.00500072 -1.195 
0.108883 -0.0190259 -1.195 0.32979 -0.0267223 -1.195 0.380928 -0.0231942 -1.195 
0.283218 -0.0295838 -1.1873 0.427195 -0.00499932 -1.18619 0.230626 -0.0450005 -1.195 
0.265352 -0.0345349 -1.195 0.421883 -0.013473 -1.18624 0.0781476 -0.0377241 -1.18794 
0.0954437 -0.0223284 -1.19501 0.142269 -0.03961 -1.195 0.305283 -0.0360938 -1.195 
0.421716 -0.0449981 -1.195 0.0843662 -0.0379961 -1.17949 0.370099 -0.00526829 -1.19493 
0.0556549 -0.028751 -1.17454 0.043983 -0.00499794 -1.18272 0.066981 -0.00499711 -1.1897 
0.30901 -0.0301104 -1.18792 0.160869 -0.0275941 -1.195 0.411194 -0.0211595 -1.19101 
0.0802331 -0.0221919 -1.18648 0.355368 -0.0144381 -1.195 0.17253 -0.0175451 -1.1873 
0.195825 -0.030306 -1.18697 0.185437 -0.0361768 -1.195 0.315404 -0.0356287 -1.195 
0.0485598 -0.00499518 -1.19501 0.0491934 -0.021334 -1.17633 0.167479 -0.0136554 -1.195 
0.366192 -0.0368174 -1.195 0.13565 -0.0376019 -1.18775 0.122306 -0.00499273 -1.195 
0.128879 -0.0450022 -1.18633 0.0679499 -0.0204173 -1.18814 0.0690083 -0.0132277 -1.195 
0.372929 -0.0449964 -1.195 0.346487 -0.0338484 -1.195 0.108883 -0.0305702 -1.18684 
0.400175 -0.0148734 -1.16229 0.157426 -0.0136463 -1.195 0.290631 -0.0449354 -1.195 
0.388634 -0.0198638 -1.18 0.093071 -0.0330769 -1.17944 0.162447 -0.0198065 -1.18894 
0.113952 -0.00499502 -1.18658 0.0619857 -0.00499721 -1.18095 0.212681 -0.00500406 -1.195 
0.278387 -0.0250159 -1.19478 0.152403 -0.00499773 -1.195 0.280631 -0.0447285 -1.19498 
0.345213 -0.0165048 -1.195 0.0731448 -0.0290686 -1.18806 0.27063 -0.0449465 -1.195 
0.0954527 -0.00788619 -1.17818 0.187209 -0.0164964 -1.195 0.43492 -0.0134586 -1.18938 
0.341843 -0.00526152 -1.19499 0.102055 -0.0363438 -1.18237 0.199116 -0.0253507 -1.195 
0.205675 -0.0402501 -1.18773 0.200662 -0.0449994 -1.195 0.22679 -0.017921 -1.195 
0.331558 -0.00537276 -1.195 0.214954 -0.0358823 -1.195 0.17991 -0.0233289 -1.195 
0.142344 -0.0222882 -1.195 0.0971634 -0.0295644 -1.18786 0.300624 -0.0449292 -1.195 
0.0714716 -0.0450017 -1.1864 0.400948 -0.00499306 -1.19486 0.21679 -0.0178962 -1.195 
0.245849 -0.0136606 -1.195 0.137365 -0.00785507 -1.18684 0.118715 -0.0288414 -1.18633 
0.142262 -0.0450065 -1.18659 0.132328 -0.0222798 -1.195 0.240613 -0.0450002 -1.195 
0.0661454 -0.0274543 -1.19501 0.100454 -0.00499975 -1.18635 0.192642 -0.00500008 -1.195 
0.177557 -0.00781333 -1.18686 0.255014 -0.0176268 -1.19501 0.255519 -0.0363214 -1.195 
0.31087 -0.00523709 -1.195 0.150684 -0.0450018 -1.195 0.132614 -0.0278788 -1.18673 
0.123868 -0.0450032 -1.195 0.395866 -0.0135779 -1.19423 0.290701 -0.00499567 -1.19501 
0.113892 -0.0196878 -1.18638 0.435384 -0.0288488 -1.18792 0.142368 -0.016513 -1.18684 
0.208048 -0.0349769 -0.245002 0.278991 -0.0424602 -1.18396 0.300702 -0.00512492 -1.195 
0.370419 -0.0210683 -1.18992 0.277076 -0.0107634 -1.18653 0.0818794 -0.0269649 -1.17785 
0.336033 -0.035218 -1.195 0.00499881 -0.0422465 -1.17069 0.0849684 -0.0395911 -1.19501 
0.350543 -0.0437952 -1.19458 0.0551497 -0.0368606 -1.16871 0.147387 -0.0136475 -1.195 
0.142383 -0.00499448 -1.195 0.172477 -0.0049971 -1.195 0.248753 -0.0268244 -1.195 
0.260955 -0.00500519 -1.195 0.394335 -0.0343185 -1.18309 0.108887 -0.0363425 -1.195 
0.289044 -0.0254677 -1.195 0.245513 -0.0362836 -1.195 0.319627 -0.0250183 -1.195 
0.0848667 -0.0450044 -1.1866 0.280888 -0.00694998 -1.19501 0.240702 -0.0304347 -1.18847 
0.123895 -0.0276793 -1.195 0.26063 -0.0450126 -1.195 0.475671 -0.0305598 -1.18563 
0.123953 -0.0208058 -1.18352 0.239506 -0.0229591 -1.195 0.160955 -0.0361789 -1.1864 
0.170678 -0.0450035 -1.195 0.210652 -0.0449997 -1.195 0.270974 -0.00501764 -1.195 
0.325194 -0.0163727 -1.195 0.401782 -0.0301257 -1.18828 0.21566 -0.0417957 -1.18695 
0.16068 -0.045001 -1.195 0.325488 -0.0357458 -1.195 0.304716 -0.0142856 -1.195 
0.377573 -0.0132517 -1.18536 0.220683 -0.0330391 -1.18677 0.137348 -0.0136327 -1.195 
0.295272 -0.0360388 -1.195 0.284465 -0.0164754 -1.195 0.240848 -0.00500236 -1.195 
0.207671 -0.0136679 -1.195 0.203397 -0.0195253 -1.1881 0.0988853 -0.0363438 -1.195 
0.221746 -0.00921218 -1.195 0.152409 -0.0165164 -1.18684 0.128883 -0.0363405 -1.195 
0.436028 -0.0205139 -1.18231 0.2506 -0.0450093 -1.195 0.19766 -0.00847298 -1.18708 
0.133859 -0.0450079 -1.195 0.434172 -0.0365648 -1.18163 0.258789 -0.0268764 -1.19489 
0.149016 -0.0377388 -1.18786 0.365398 -0.0140872 -1.19501 0.268408 -0.0241596 -1.195 
0.373789 -0.0370079 -1.1885 0.154053 -0.0290791 -1.18784 0.180675 -0.0450003 -1.195 
0.085452 -0.0078828 -1.17818 0.195493 -0.0362453 -1.195 0.377265 -0.0274576 -1.18626 
0.165689 -0.044993 -1.18634 0.220257 -0.0273897 -1.195 0.389341 -0.0387935 -1.1905 
0.175231 -0.032163 -1.195 0.320278 -0.0109784 -1.18699 0.222094 -0.0216693 -1.18701 
0.193308 -0.0207244 -1.18831 0.452154 -0.0375702 -1.18219 0.166054 -0.0361419 -1.195 
0.185658 -0.041856 -1.18678 0.225456 -0.036095 -1.195 0.0904545 -0.00499834 -1.18635 
0.2982 -0.0185316 -1.1866 0.299704 -0.0239656 -1.19489 0.275263 -0.0358645 -1.195 
0.451354 -0.0298765 -1.18852 0.0727968 -0.0233161 -1.17989 0.211028 -0.0305516 -1.1875 
0.250899 -0.00500889 -1.195 0.309686 -0.0230897 -1.195 0.147393 -0.0078669 -1.18684 
0.102229 -0.0209461 -1.18779 0.127319 -0.0136366 -1.195 0.474944 -0.0217477 -1.18096 
0.230456 -0.0272438 -1.195 0.461037 -0.0289684 -1.18384 0.113879 -0.0450025 -1.195 
0.451471 -0.0198231 -1.18296 0.169916 -0.0233524 -1.195 0.214082 -0.011626 -1.1876 
0.118895 -0.0190237 -1.195 0.264539 -0.0145275 -1.19501 0.310607 -0.0449757 -1.195 
0.197541 -0.0145999 -1.195 0.320591 -0.044856 -1.195 
VERTICES 500 1000
1 0 
1 1 
1 2 
1 3 
1 4 
1 5 
1 6 
1 7 
1 8 
1 9 
1 10 
1 11 
1 12 
1 13 
1 14 
1 15 
1 16 
1 17 
1 18 
1 19 
1 20 
1 21 
1 22 
1 23 
1 24 
1 25 
1 26 
1 27 
1 28 
1 29 
1 30 
1 31 
1 32 
1 33 
1 34 
1 35 
1 36 
1 37 
1 38 
1 39 
1 40 
1 41 
1 42 
1 43 
1 44 
1 45 
1 46 
1 47 
1 48 
1 49 
1 50 
1 51 
1 52 
1 53 
1 54 
1 55 
1 56 
1 57 
1 58 
1 59 
1 60 
1 61 
1 62 
1 63 
1 64 
1 65 
1 66 
1 67 
1 68 
1 69 
1 70 
1 71 
1 72 
1 73 
1 74 
1 75 
1 76 
1 77 
1 78 
1 79 
1 80 
1 81 
1 82 
1 83 
1 84 
1 85 
1 86 
1 87 
1 88 
1 89 
1 90 
1 91 
1 92 
1 93 
1 94 
1 95 
1 96 
1 97 
1 98 
1 99 
1 100 
1 101 
1 102 
1 103 
1 104 
1 105 
1 106 
1 107 
1 108 
1 109 
1 110 
1 111 
1 112 
1 113 
1 114 
1 115 
1 116 
1 117 
1 118 
1 119 
1 120 
1 121 
1 122 
1 123 
1 124 
1 125 
1 126 
1 127 
1 128 
1 129 
1 130 
1 131 
1 132 
1 133 
1 134 
1 135 
1 136 
1 137 
1 138 
1 139 
1 140 
1 141 
1 142 
1 143 
1 144 
1 145 
1 146 
1 147 
1 148 
1 149 
1 150 
1 151 
1 152 
1 153 
1 154 
1 155 
1 156 
1 157 
1 158 
1 159 
1 160 
1 161 
1 162 
1 163 
1 164 
1 165 
1 166 
1 167 
1 168 
1 169 
1 170 
1 171 
1 172 
1 173 
1 174 
1 175 
1 176 
1 177 
1 178 
1 179 
1 180 
1 181 
1 182 
1 183 
1 184 
1 185 
1 186 
1 187 
1 188 
1 189 
1 190 
1 191 
1 192 
1 193 
1 194 
1 195 
1 196 
1 197 
1 198 
1 199 
1 200 
1 201 
1 202 
1 203 
1 204 
1 205 
1 206 
1 207 
1 208 
1 209 
1 210 
1 211 
1 212 
1 213 
1 214 
1 215 
1 216 
1 217 
1 218 
1 219 
1 220 
1 221 
1 222 
1 223 
1 224 
1 225 
1 226 
1 227 
1 228 
1 229 
1 230 
1 231 
1 232 
1 233 
1 234 
1 235 
1 236 
1 237 
1 238 
1 239 
1 240 
1 241 
1 242 
1 243 
1 244 
1 245 
1 246 
1 247 
1 248 
1 249 
1 250 
1 251 
1 252 
1 253 
1 254 
1 255 
1 256 
1 257 
1 258 
1 259 
1 260 
1 261 
1 262 
1 263 
1 264 
1 265 
1 266 
1 267 
1 268 
1 269 
1 270 
1 271 
1 272 
1 273 
1 274 
1 275 
1 276 
1 277 
1 278 
1 279 
1 280 
1 281 
1 282 
1 283 
1 284 
1 285 
1 286 
1 287 
1 288 
1 289 
1 290 
1 291 
1 292 
1 293 
1 294 
1 295 
1 296 
1 297 
1 298 
1 299 
1 300 
1 301 
1 302 
1 303 
1 304 
1 305 
1 306 
1 307 
1 308 
1 309 
1 310 
1 311 
1 312 
1 313 
1 314 
1 315 
1 316 
1 317 
1 318 
1 319 
1 320 
1 321 
1 322 
1 323 
1 324 
1 325 
1 326 
1 327 
1 328 
1 329 
1 330 
1 331 
1 332 
1 333 
1 334 
1 335 
1 336 
1 337 
1 338 
1 339 
1 340 
1 341 
1 342 
1 343 
1 344 
1 345 
1 346 
1 347 
1 348 
1 349 
1 350 
1 351 
1 352 
1 353 
1 354 
1 355 
1 356 
1 357 
1 358 
1 359 
1 360 
1 361 
1 362 
1 363 
1 364 
1 365 
1 366 
1 367 
1 368 
1 369 
1 370 
1 371 
1 372 
1 373 
1 374 
1 375 
1 376 
1 377 
1 378 
1 379 
1 380 
1 381 
1 382 
1 383 
1 384 
1 385 
1 386 
1 387 
1 388 
1 389 
1 390 
1 391 
1 392 
1 393 
1 394 
1 395 
1 396 
1 397 
1 398 
1 399 
1 400 
1 401 
1 402 
1 403 
1 404 
1 405 
1 406 
1 407 
1 408 
1 409 
1 410 
1 411 
1 412 
1 413 
1 414 
1 415 
1 416 
1 417 
1 418 
1 419 
1 420 
1 421 
1 422 
1 423 
1 424 
1 425 
1 426 
1 427 
1 428 
1 429 
1 430 
1 431 
1 432 
1 433 
1 434 
1 435 
1 436 
1 437 
1 438 
1 439 
1 440 
1 441 
1 442 
1 443 
1 444 
1 445 
1 446 
1 447 
1 448 
1 449 
1 450 
1 451 
1 452 
1 453 
1 454 
1 455 
1 456 
1 457 
1 458 
1 459 
1 460 
1 461 
1 462 
1 463 
1 464 
1 465 
1 466 
1 467 
1 468 
1 469 
1 470 
1 471 
1 472 
1 473 
1 474 
1 475 
1 476 
1 477 
1 478 
1 479 
1 480 
1 481 
1 482 
1 483 
1 484 
1 485 
1 486 
1 487 
1 488 
1 489 
1 490 
1 491 
1 492 
1 493 
1 494 
1 495 
1 496 
1 497 
1 498 
1 499 

POINT_DATA 500
FIELD FieldData 7
id 1 500 int
1 2 3 4 5 6 7 8 9 
10 11 12 13 14 15 16 17 18 
19 20 21 22 23 24 25 26 27 
28 29 30 31 32 33 34 35 36 
37 38 39 40 41 42 43 44 45 
46 47 48 49 50 51 52 53 54 
55 56 57 58 59 60 61 62 63 
64 65 66 67 68 69 70 71 72 
73 74 75 76 77 78 79 80 81 
82 83 84 85 86 87 88 89 90 
91 92 93 94 95 96 97 98 99 
100 101 102 103 104 105 106 107 108 
109 110 111 112 113 114 115 116 117 
118 119 120 121 122 123 124 125 126 
127 128 129 130 131 132 133 134 135 
136 137 138 139 140 141 142 143 144 
145 146 147 148 149 150 151 152 153 
154 155 156 157 158 159 160 161 162 
163 164 165 166 167 168 169 170 171 
172 173 174 175 176 177 178 179 180 
181 182 183 184 185 186 187 188 189 
190 191 192 193 194 195 196 197 198 
199 200 201 202 203 204 205 206 207 
208 209 210 211 212 213 214 215 216 
217 218 219 220 221 222 223 224 225 
226 227 228 229 230 231 232 233 234 
235 236 237 238 239 240 241 242 243 
244 245 246 247 248 249 250 251 252 
253 254 255 256 257 258 259 260 261 
262 263 264 265 266 267 268 269 270 
271 272 273 274 275 276 277 278 279 
280 281 282 283 284 285 286 287 288 
289 290 291 292 293 294 295 296 297 
298 299 300 301 302 303 304 305 306 
307 308 309 310 311 312 313 314 315 
316 317 318 319 320 321 322 323 324 
325 326 327 328 329 330 331 332 333 
334 335 336 337 338 339 340 341 342 
343 344 345 346 347 348 349 350 351 
352 353 354 355 356 357 358 359 360 
361 362 363 364 365 366 367 368 369 
370 371 372 373 374 375 376 377 378 
379 380 381 382 383 384 385 386 387 
388 389 390 391 392 393 394 395 396 
397 398 399 400 401 402 403 404 405 
406 407 408 409 410 411 412 413 414 
415 416 417 418 419 420 421 422 423 
424 425 426 427 428 429 430 431 432 
433 434 435 436 437 438 439 440 441 
442 443 444 445 446 447 448 449 450 
451 452 453 454 455 456 457 458 459 
460 461 462 463 464 465 466 467 468 
469 470 471 472 473 474 475 476 477 
478 479 480 481 482 483 484 485 486 
487 488 489 490 491 492 493 494 495 
496 497 498 499 500 
type 1 500 int
1 1 1 1 1 1 1 1 1 
1 1 1 1 1 1 1 1 1 
1 1 1 1 1 1 1 1 1 
1 1 1 1 1 1 1 1 1 
1 1 1 1 1 1 1 1 1 
1 1 1 1 1 1 1 1 1 
1 1 1 1 1 1 1 1 1 
1 1 1 1 1 1 1 1 1 
1 1 1 1 1 1 1 1 1 
1 1 1 1 1 1 1 1 1 
1 1 1 1 1 1 1 1 1 
1 1 1 1 1 1 1 1 1 
1 1 1 1 1 1 1 1 1 
1 1 1 1 1 1 1 1 1 
1 1 1 1 1 1 1 1 1 
1 1 1 1 1 1 1 1 1 
1 1 1 1 1 1 1 1 1 
1 1 1 1 1 1 1 1 1 
1 1 1 1 1 1 1 1 1 
1 1 1 1 1 1 1 1 1 
1 1 1 1 1 1 1 1 1 
1 1 1 1 1 1 1 1 1 
1 1 1 1 1 1 1 1 1 
1 1 1 1 1 1 1 1 1 
1 1 1 1 1 1 1 1 1 
1 1 1 1 1 1 1 1 1 
1 1 1 1 1 1 1 1 1 
1 1 1 1 1 1 1 1 1 
1 1 1 1 1 1 1 1 1 
1 1 1 1 1 1 1 1 1 
1 1 1 1 1 1 1 1 1 
1 1 1 1 1 1 1 1 1 
1 1 1 1 1 1 1 1 1 
1 1 1 1 1 1 1 1 1 
1 1 1 1 1 1 1 1 1 
1 1 1 1 1 1 1 1 1 
1 1 1 1 1 1 1 1 1 
1 1 1 1 1 1 1 1 1 
1 1 1 1 1 1 1 1 1 
1 1 1 1 1 1 1 1 1 
1 1 1 1 1 1 1 1 1 
1 1 1 1 1 1 1 1 1 
1 1 1 1 1 1 1 1 1 
1 1 1 1 1 1 1 1 1 
1 1 1 1 1 1 1 1 1 
1 1 1 1 1 1 1 1 1 
1 1 1 1 1 1 1 1 1 
1 1 1 1 1 1 1 1 1 
1 1 1 1 1 1 1 1 1 
1 1 1 1 1 1 1 1 1 
1 1 1 1 1 1 1 1 1 
1 1 1 1 1 1 1 1 1 
1 1 1 1 1 1 1 1 1 
1 1 1 1 1 1 1 1 1 
1 1 1 1 1 1 1 1 1 
1 1 1 1 1 
i 3 500 int
0 0 0 0 0 0 0 0 0 
0 0 0 0 0 0 0 0 0 
0 0 0 0 0 0 0 0 0 
0 0 0 0 0 0 0 0 0 
0 0 0 0 0 0 0 0 0 
0 0 0 0 0 0 0 0 0 
0 0 0 0 0 0 0 0 0 
0 0 0 0 0 0 0 0 0 
0 0 0 0 0 0 0 0 0 
0 0 0 0 0 0 0 0 0 
0 0 0 0 0 0 0 0 0 
0 0 0 0 0 0 0 0 0 
0 0 0 0 0 0 0 0 0 
0 0 0 0 0 0 0 0 0 
0 0 0 0 0 0 0 0 0 
0 0 0 0 0 0 0 0 0 
0 0 0 0 0 0 0 0 0 
0 0 0 0 0 0 0 0 0 
0 0 0 0 0 0 0 0 0 
0 0 0 0 0 0 0 0 0 
0 0 0 0 0 0 0 0 0 
0 0 0 0 0 0 0 0 0 
0 0 0 0 0 0 0 0 0 
0 0 0 0 0 0 0 0 0 
0 0 0 0 0 0 0 0 0 
0 0 0 0 0 0 0 0 0 
0 0 0 0 0 0 0 0 0 
0 0 0 0 0 0 0 0 0 
0 0 0 0 0 0 0 0 0 
0 0 0 0 0 0 0 0 0 
0 0 0 0 0 0 0 0 0 
0 0 0 0 0 0 0 0 0 
0 0 0 0 0 0 0 0 0 
0 0 0 0 0 0 0 0 0 
0 0 0 0 0 0 0 0 0 
0 0 0 0 0 0 0 0 0 
0 0 0 0 0 0 0 0 0 
0 0 0 0 0 0 0 0 0 
0 0 0 0 0 0 0 0 0 
0 0 0 0 0 0 0 0 0 
0 0 0 0 0 0 0 0 0 
0 0 0 0 0 0 0 0 0 
0 0 0 0 0 0 0 0 0 
0 0 0 0 0 0 0 0 0 
0 0 0 0 0 0 0 0 0 
0 0 0 0 0 0 0 0 0 
0 0 0 0 0 0 0 0 0 
0 0 0 0 0 0 0 0 0 
0 0 0 0 0 0 0 0 0 
0 0 0 0 0 0 0 0 0 
0 0 0 0 0 0 0 0 0 
0 0 0 0 0 0 0 0 0 
0 0 0 0 0 0 0 0 0 
0 0 0 0 0 0 0 0 0 
0 0 0 0 0 0 0 0 0 
0 0 0 0 0 0 0 0 0 
0 0 0 0 0 0 0 0 0 
0 0 0 0 0 0 0 0 0 
0 0 0 0 0 0 0 0 0 
0 0 0 0 0 0 0 0 0 
0 0 0 0 0 0 0 0 0 
0 0 0 0 0 0 0 0 0 
0 0 0 0 0 0 0 0 0 
0 0 0 0 0 0 0 0 0 
0 0 0 0 0 0 0 0 0 
0 0 0 0 0 0 0 0 0 
0 0 0 0 0 0 0 0 0 
0 0 0 0 0 0 0 0 0 
0 0 0 0 0 0 0 0 0 
0 0 0 0 0 0 0 0 0 
0 0 0 0 0 0 0 0 0 
0 0 0 0 0 0 0 0 0 
0 0 0 0 0 0 0 0 0 
0 0 0 0 0 0 0 0 0 
0 0 0 0 0 0 0 0 0 
0 0 0 0 0 0 0 0 0 
0 0 0 0 0 0 0 0 0 
0 0 0 0 0 0 0 0 0 
0 0 0 0 0 0 0 0 0 
0 0 0 0 0 0 0 0 0 
0 0 0 0 0 0 0 0 0 
0 0 0 0 0 0 0 0 0 
0 0 0 0 0 0 0 0 0 
0 0 0 0 0 0 0 0 0 
0 0 0 0 0 0 0 0 0 
0 0 0 0 0 0 0 0 0 
0 0 0 0 0 0 0 0 0 
0 0 0 0 0 0 0 0 0 
0 0 0 0 0 0 0 0 0 
0 0 0 0 0 0 0 0 0 
0 0 0 0 0 0 0 0 0 
0 0 0 0 0 0 0 0 0 
0 0 0 0 0 0 0 0 0 
0 0 0 0 0 0 0 0 0 
0 0 0 0 0 0 0 0 0 
0 0 0 0 0 0 0 0 0 
0 0 0 0 0 0 0 0 0 
0 0 0 0 0 0 0 0 0 
0 0 0 0 0 0 0 0 0 
0 0 0 0 0 0 0 0 0 
0 0 0 0 0 0 0 0 0 
0 0 0 0 0 0 0 0 0 
0 0 0 0 0 0 0 0 0 
0 0 0 0 0 0 0 0 0 
0 0 0 0 0 0 0 0 0 
0 0 0 0 0 0 0 0 0 
0 0 0 0 0 0 0 0 0 
0 0 0 0 0 0 0 0 0 
0 0 0 0 0 0 0 0 0 
0 0 0 0 0 0 0 0 0 
0 0 0 0 0 0 0 0 0 
0 0 0 0 0 0 0 0 0 
0 0 0 0 0 0 0 0 0 
0 0 0 0 0 0 0 0 0 
0 0 0 0 0 0 0 0 0 
0 0 0 0 0 0 0 0 0 
0 0 0 0 0 0 0 0 0 
0 0 0 0 0 0 0 0 0 
0 0 0 0 0 0 0 0 0 
0 0 0 0 0 0 0 0 0 
0 0 0 0 0 0 0 0 0 
0 0 0 0 0 0 0 0 0 
0 0 0 0 0 0 0 0 0 
0 0 0 0 0 0 0 0 0 
0 0 0 0 0 0 0 0 0 
0 0 0 0 0 0 0 0 0 
0 0 0 0 0 0 0 0 0 
0 0 0 0 0 0 0 0 0 
0 0 0 0 0 0 0 0 0 
0 0 0 0 0 0 0 0 0 
0 0 0 0 0 0 0 0 0 
0 0 0 0 0 0 0 0 0 
0 0 0 0 0 0 0 0 0 
0 0 0 0 0 0 0 0 0 
0 0 0 0 0 0 0 0 0 
0 0 0 0 0 0 0 0 0 
0 0 0 0 0 0 0 0 0 
0 0 0 0 0 0 0 0 0 
0 0 0 0 0 0 0 0 0 
0 0 0 0 0 0 0 0 0 
0 0 0 0 0 0 0 0 0 
0 0 0 0 0 0 0 0 0 
0 0 0 0 0 0 0 0 0 
0 0 0 0 0 0 0 0 0 
0 0 0 0 0 0 0 0 0 
0 0 0 0 0 0 0 0 0 
0 0 0 0 0 0 0 0 0 
0 0 0 0 0 0 0 0 0 
0 0 0 0 0 0 0 0 0 
0 0 0 0 0 0 0 0 0 
0 0 0 0 0 0 0 0 0 
0 0 0 0 0 0 0 0 0 
0 0 0 0 0 0 0 0 0 
0 0 0 0 0 0 0 0 0 
0 0 0 0 0 0 0 0 0 
0 0 0 0 0 0 0 0 0 
0 0 0 0 0 0 0 0 0 
0 0 0 0 0 0 0 0 0 
0 0 0 0 0 0 0 0 0 
0 0 0 0 0 0 0 0 0 
0 0 0 0 0 0 0 0 0 
0 0 0 0 0 0 0 0 0 
0 0 0 0 0 0 0 0 0 
0 0 0 0 0 0 0 0 0 
0 0 0 0 0 0 0 0 0 
0 0 0 0 0 0 0 0 0 
0 0 0 0 0 0 
v 3 500 double
-0.0562785 0.00883581 -0.00575076 -0.0687822 -0.0164373 0.00318469 -9.01794e-06 -2.48905e-06 -1.17993e-05 
0.00207515 -0.000724347 -0.00314901 5.99348e-05 0.000156426 -0.000177543 0.000858171 4.58552e-05 -0.0018753 
0.00149774 -0.000726202 -0.000123207 1.71697e-05 -6.52147e-05 -5.93698e-05 0.00556376 2.02772e-05 6.58803e-05 
0.00326183 -0.0011346 -0.00385718 -0.0178996 -0.0353415 0.000380787 0.00466161 -0.00180182 -0.00304346 
0.000936004 1.78979e-05 -0.000997731 0.00683074 -0.0021072 -0.0163471 0.00164922 0.00100557 -0.00197953 
-0.0658425 0.00208884 -0.0040852 6.93926e-05 -3.89081e-05 -5.1502e-05 -0.00025317 0.000157143 -0.000487218 
0.00120629 -0.000125475 3.11225e-05 -0.00371043 0.00297228 -0.00606134 1.27828e-05 -2.03385e-05 -4.36585e-05 
-0.0136726 -0.0251017 0.00205143 -0.00137565 -0.00149133 -0.000130459 0.00304241 -2.16984e-05 -0.000126448 
0.00363742 -0.000900694 9.25895e-05 -0.0886836 -0.000284371 0.0389171 0.000106523 -0.000565666 -3.73546e-05 
-0.00517631 -0.00579362 -0.00204021 -0.0266116 -0.00292994 -0.00144045 0.00539074 -0.000329768 -1.31317e-06 
0.000364928 -0.000319696 -0.000315341 -0.0202321 -0.0289591 -0.00125135 -0.0180246 -0.025664 -0.00165829 
-0.0140546 0.0054701 -0.00188864 -0.000984987 -0.00751761 -0.000457486 0.00049884 -0.00072283 -0.00084051 
-0.055754 0.0293475 -0.00122798 -2.4871e-06 1.09231e-07 1.1352e-05 0.000825457 -0.00122378 -0.000956459 
-0.000248551 0.000189004 -6.54059e-05 0.0183497 -0.0234269 -4.18999e-11 0.00310623 0.00264004 -0.000304226 
0.00184451 0.00159811 -0.00223052 -0.0811997 -0.00282556 0.00853734 0.000374349 0.00316276 0.000935046 
-0.00440489 0.00274053 0.000338465 3.64524e-05 -1.2322e-05 -1.45049e-05 2.46889e-06 -6.92252e-06 -1.93947e-05 
-0.00819183 0.000554306 -0.000933137 -0.0158822 -0.00859646 0.00395971 -0.0574856 0.0298015 0.0632692 
-0.000800934 -1.16316e-05 -0.000751188 0.00100278 5.48201e-05 -0.00106018 0.00274448 1.02027e-05 -0.00105048 
3.53597e-05 -1.74719e-05 -4.51156e-05 4.98276e-05 -2.95239e-05 3.54558e-05 0.00487748 0.000200656 0.000138386 
0.00393288 0.00146292 -0.000893291 0.000731284 2.28476e-05 -0.00132519 0.00174692 -0.000779365 -0.00347578 
-6.99465e-07 -5.41109e-05 -1.51201e-05 -0.015568 0.017722 0.00112783 5.88603e-05 0.00022522 -0.00014594 
0.00358265 -0.000904234 -0.00116688 0.00436427 -3.64385e-05 -0.000450633 -0.0279346 0.00332302 0.0077872 
-0.0721469 0.00902783 -0.0468599 -0.0176848 0.0029745 -0.00749382 -0.0190121 -0.00169207 -0.00450816 
8.03662e-06 -8.84361e-06 6.61845e-06 -0.000327918 3.27948e-05 -0.000191888 0.00101364 -0.000701122 0.00134508 
0.00246226 -0.000934661 -0.00131155 9.29763e-05 9.40887e-05 -8.54346e-06 0.00275653 -4.54434e-07 -0.000983705 
0.00370149 1.00131e-05 -4.98304e-05 0.000574074 -4.44414e-05 -0.00114626 -0.0592797 0.000118097 -0.0231122 
-0.0737919 0.014929 0.00445204 -0.00101622 -0.00040534 0.000343636 0.00286248 -1.45773e-05 -0.000777591 
0.00016511 -0.000148506 -9.86273e-06 -0.037072 0.0150155 -0.015636 0.00145743 -5.38905e-06 -0.000645178 
-0.0271824 0.0688513 0.0701481 0.00378859 -0.000643884 -0.000804848 9.81731e-05 -5.36968e-05 5.02397e-05 
-0.106856 -0.0693725 0.0468683 -0.0615685 0.0127007 -0.050942 2.72801e-05 -5.93206e-06 3.72302e-05 
0.00253798 -0.000996008 -7.27883e-06 -0.109818 0.0417224 -0.0357988 0.00116111 -7.07281e-05 -0.00197977 
1.54241e-05 -3.02732e-06 -2.32696e-05 -3.38513e-06 1.77305e-06 1.14974e-06 8.53676e-05 -8.11334e-05 -6.56654e-05 
0.0037217 -0.00128247 0.0020083 0.00522988 -0.000186812 0.000213276 0.00743193 0.000235843 0.000774054 
0.00386043 6.9662e-05 -4.70067e-05 0.00489317 0.000389417 7.11702e-05 0.00178269 4.01576e-05 2.85304e-13 
1.2749e-05 4.71563e-05 -6.1284e-05 -0.0161869 0.0204941 -0.0165581 0.000873279 -0.0146063 -0.00586329 
0.259891 0.557903 0.197554 -0.000986827 0.000614571 0.000472007 0.00912842 0.00401973 -0.000165149 
-0.0033019 0.000581526 0.000150179 0.00309007 -0.000947859 -0.00220949 0.00924131 0.00136704 0.00162484 
0.00339649 -0.000298072 -0.000349428 -0.000831807 -0.000206996 -0.00014434 -0.0667305 0.0176194 -0.000676248 
0.00565895 0.00160938 0.000185964 0.000709723 -0.00120157 -6.189e-05 0.00972934 0.0176484 0.00733527 
-0.0259949 -0.00451968 0.00460544 -0.00245393 -0.00107065 -0.00343086 0.0033934 -0.000437565 -0.000565154 
0.00858942 0.0532006 0.00288925 -0.000420005 0.000651768 0.000413795 -0.0366896 -0.00125906 -0.00390899 
-0.0190338 0.000184352 -0.0726683 0.00108282 0.000197286 -0.00215995 0.000109153 -5.1398e-05 -0.00128438 
0.000464821 0.000976333 1.93339e-12 -0.00343438 0.000663123 -5.84326e-05 -0.000478169 -0.000121243 0.000208341 
2.3468e-05 -1.39624e-05 1.70441e-05 0.00161403 0.00029524 -0.00184257 -7.4193e-05 -4.79706e-05 0.000443418 
0.00259321 0.00105719 -0.000246856 -6.72207e-06 -2.06548e-05 -1.06991e-05 0.00393736 0.000456819 9.73748e-05 
-0.0644655 0.00392266 -0.000126074 0.000677469 -0.000914545 -0.000794816 -0.0222194 0.00523385 -0.00079238 
0.0463942 0.00673101 -0.0320904 0.00511791 0.00718706 -0.00421016 -0.060003 0.0347002 -0.0151575 
-0.00522538 0.00281203 -0.0046644 -0.0022813 0.000579006 0.00027926 -0.0618079 0.00105453 -0.0152167 
-0.00148237 -0.000401876 -0.0010866 -0.0687461 -0.0013851 -0.00537678 0.000157353 -6.80189e-06 -2.8575e-05 
0.00387823 -0.000983654 4.44977e-05 -0.0225329 0.0143388 3.83515e-05 0.00672848 0.00219402 0.00187834 
0.00584133 4.6725e-05 6.43701e-05 -0.0403344 0.0039409 -0.00238245 6.59277e-06 -1.00138e-05 -3.99325e-06 
-0.0107704 0.00100566 5.20482e-05 -0.0143299 -0.0177123 -0.00775982 -0.0196601 -0.00751642 -0.000475705 
0.000242535 -0.000815877 1.71208e-05 -0.000722587 -3.18081e-05 0.000579215 -5.72487e-06 -1.07228e-05 -3.0867e-05 
-0.0026182 -0.000432474 0.000747865 -6.80015e-07 -3.83639e-06 -3.14631e-06 0.0129438 -0.00301602 -0.00375673 