# vtk DataFile Version 4.0
Generated by LIGGGHTS
ASCII
DATASET POLYDATA
POINTS 500 float
0.462449 -0.044028 -1.16998 0.479291 -0.0341481 -1.1591 0.00498762 -0.0250609 -1.19501 
0.0316303 -0.0251224 -1.17772 0.0110043 -0.0397546 -1.07205 0.0390498 -0.00550855 -1.17825 
0.0351567 -0.0344454 -1.18061 0.0128426 -0.0155206 -1.0888 0.139022 -0.0393573 -1.09679 
0.4949 -0.00517311 -1.16455 0.38557 -0.0156824 -1.14556 0.477814 -0.0183371 -1.18855 
0.0269057 -0.0139529 -1.15426 0.416175 -0.00497156 -1.18783 0.0281696 -0.00852244 -1.12519 
0.442845 -0.0293521 -1.18871 0.0222977 -0.0445666 -1.17452 0.495 -0.0449919 -1.17862 
0.0334975 -0.0384186 -1.19466 0.486005 -0.0152087 -1.17857 0.00500815 -0.0190752 -1.16974 
0.32573 -0.0239532 -1.18738 0.494985 -0.0450229 -1.19503 0.0552201 -0.00642162 -1.18328 
0.344619 -0.0143907 -1.17267 0.434142 -0.0413646 -1.17989 0.494226 -0.0294075 -1.18624 
0.473415 -0.0450151 -1.19501 0.439801 -0.0148905 -1.15853 0.148095 -0.0174826 -1.19499 
0.0304712 -0.0211326 -1.18728 0.47279 -0.0445805 -1.16961 0.453987 -0.00744094 -1.17169 
0.48779 -0.021915 -1.17141 0.360113 -0.0363139 -0.925948 0.0264434 -0.0332632 -1.18653 
0.450491 -0.00498679 -1.19499 0.0156618 -0.0450056 -1.19501 0.0424202 -0.0260172 -1.17019 
0.495003 -0.0049835 -1.1849 0.214959 -0.023414 -0.245002 0.216643 -0.0286993 -1.19334 
0.0749832 -0.0275533 -1.0539 0.452928 -0.0354655 -1.17067 0.158909 -0.0348284 -1.0352 
0.481998 -0.0352025 -1.19501 0.00529687 -0.0382427 -1.17686 0.00503051 -0.0221757 -1.18544 
0.486686 -0.0450157 -1.18555 0.467997 -0.0244764 -1.178 0.435469 -0.0050992 -1.195 
0.483443 -0.0450366 -1.195 0.0150916 -0.00519523 -1.18504 0.0257624 -0.0384137 -1.1666 
0.0090326 -0.0289511 -1.17506 0.0137738 -0.0376622 -1.16937 0.117709 -0.0183464 -1.19498 
0.0736863 -0.0166319 -1.01703 0.018287 -0.00516187 -1.17512 0.0340733 -0.0194214 -1.16877 
0.021866 -0.0360969 -1.19499 0.472019 -0.0350188 -1.19496 0.0147845 -0.0214805 -1.16315 
0.0432683 -0.026385 -1.18029 0.100235 -0.0262208 -0.925081 0.462579 -0.0131424 -1.18911 
0.489699 -0.018435 -1.1559 0.489578 -0.0344994 -1.1638 0.462682 -0.00500671 -1.195 
0.00579433 -0.0147231 -1.17874 0.491966 -0.0344076 -1.19501 0.49499 -0.0148803 -1.18362 
0.0465876 -0.017785 -1.19351 0.0137131 -0.0202138 -1.195 0.0360155 -0.0445696 -1.17406 
0.0701408 -0.0282492 -1.17996 0.0296672 -0.00556583 -1.17377 0.485131 -0.00495797 -1.16137 
0.451028 -0.034396 -1.1845 0.494918 -0.0404901 -1.16966 0.0444564 -0.0448946 -1.16723 
0.022617 -0.02456 -1.18219 0.477299 -0.01306 -1.17422 0.00787296 -0.00551919 -1.17541 
0.2685 -0.0387086 -0.306686 0.0422208 -0.0150835 -1.16329 0.0159811 -0.035047 -1.17896 
0.416325 -0.0364655 -1.19222 0.478457 -0.0443389 -1.1577 0.0050168 -0.00613474 -1.18511 
0.0462726 -0.027677 -1.19496 0.443927 -0.00680207 -1.17169 0.00619819 -0.0117663 -1.16118 
0.00500669 -0.0322703 -1.18477 0.00524491 -0.0450189 -1.19502 0.0111827 -0.0145189 -1.18717 
0.2509 -0.0371867 -1.17052 0.0968772 -0.00648129 -1.18655 0.319587 -0.0309072 -1.16474 
0.0686986 -0.0413149 -1.19263 0.0973717 -0.0167956 -1.19503 0.206102 -0.0448425 -0.245002 
0.0135955 -0.0273027 -1.18549 0.487095 -0.00952091 -1.17005 0.405314 -0.0258455 -1.19484 
0.45866 -0.0145972 -1.16486 0.151057 -0.0315176 -1.18425 0.16891 -0.0441082 -0.988153 
0.182906 -0.0446698 -1.19475 0.0504819 -0.0387052 -1.17636 0.297666 -0.0263827 -1.17212 
0.0751859 -0.0324615 -1.18975 0.494973 -0.00497992 -1.19496 0.443042 -0.0118216 -1.19502 
0.0544357 -0.0371538 -1.1193 0.0376032 -0.0217519 -1.19503 0.357314 -0.0392701 -0.555661 
0.467609 -0.00498537 -1.18629 0.476207 -0.0450009 -1.17916 0.0544189 -0.0340441 -1.18452 
0.41084 -0.0182416 -1.17252 0.494888 -0.0199168 -1.16437 0.472693 -0.00516376 -1.19501 
0.477912 -0.00505263 -1.18618 0.482706 -0.00505821 -1.19499 0.0336205 -0.00506539 -1.18766 
0.205046 -0.0248106 -0.245002 0.486209 -0.0350329 -1.17319 0.49496 -0.0149344 -1.1946 
0.0131094 -0.0448485 -1.17912 0.0398636 -0.0179455 -1.18537 0.494991 -0.0248827 -1.19505 
0.0616459 -0.00521486 -1.19482 0.0208512 -0.043349 -1.18664 0.0548682 -0.0124755 -1.195 
0.455568 -0.0218509 -1.18627 0.0220748 -0.0203968 -1.14194 0.376179 -0.0195729 -1.18508 
0.4845 -0.00496631 -1.17856 0.329783 -0.0437958 -1.1931 0.467773 -0.0215496 -1.18754 
0.485829 -0.0273454 -1.17952 0.484933 -0.015588 -1.19501 0.473136 -0.0211439 -1.17004 
0.48552 -0.044845 -1.17544 0.454062 -0.0356052 -1.195 0.0157402 -0.0153402 -1.17613 
0.0634747 -0.0174826 -1.19496 0.470886 -0.014982 -1.19494 0.271827 -0.0403343 -1.18655 
0.0821095 -0.00520952 -1.19498 0.463573 -0.0421082 -1.19469 0.00505355 -0.0440354 -1.1851 
0.477566 -0.0217289 -1.17917 0.36364 -0.0193339 -1.00296 0.473733 -0.025029 -1.195 
0.0307759 -0.0288552 -1.19493 0.494652 -0.00501264 -1.17485 0.0152957 -0.00498398 -1.19503 
0.484865 -0.0256606 -1.19502 0.00502952 -0.0350433 -1.195 0.325894 -0.0148904 -1.19416 
0.0277103 -0.0285961 -1.16731 0.0212833 -0.0146001 -1.18496 0.0389586 -0.0448417 -1.18858 
0.471295 -0.0135453 -1.1827 0.038575 -0.0385422 -1.12743 0.470248 -0.0367637 -1.16267 
0.0395218 -0.00996182 -1.19407 0.0398521 -0.0350395 -1.16134 0.422266 -0.0152808 -1.19502 
0.0208542 -0.0132353 -1.19491 0.481732 -0.0411368 -1.16664 0.495 -0.0349008 -1.17794 
0.315111 -0.0188303 -1.18924 0.0327465 -0.00974182 -1.16452 0.109852 -0.0109862 -1.195 
0.494999 -0.0233424 -1.17837 0.0198554 -0.0242202 -1.17261 0.0621496 -0.0317894 -1.19456 
0.382182 -0.010831 -1.18817 0.495002 -0.0393371 -1.18686 0.486563 -0.0098981 -1.18699 
0.00499809 -0.0150073 -1.19501 0.0704509 -0.024528 -1.19455 0.187087 -0.00558377 -1.16265 
0.0227221 -0.0121042 -1.16888 0.367136 -0.0307206 -1.19451 0.490143 -0.0448304 -1.16202 
0.336087 -0.019804 -1.09872 0.0262085 -0.0450664 -1.19501 0.431255 -0.0446369 -1.19495 
0.437432 -0.0133762 -1.18647 0.00496359 -0.00499581 -1.19503 0.219087 -0.0224298 -1.17251 
0.193429 -0.0417748 -1.19493 0.413879 -0.0339536 -1.17317 0.476974 -0.0395199 -1.18752 
0.205812 -0.0147779 -0.245002 0.494991 -0.0288349 -1.16999 0.133727 -0.0235389 -1.15356 
0.0536245 -0.0167592 -1.18588 0.468112 -0.0442228 -1.18604 0.47813 -0.0343706 -1.17907 
0.460957 -0.0364836 -1.18674 0.144592 -0.00591251 -1.19477 0.487493 -0.0206859 -1.18679 
0.486005 -0.035068 -1.18585 0.00519415 -0.0450825 -1.16932 0.0797654 -0.0390235 -1.18129 
0.298825 -0.00794005 -1.19327 0.406694 -0.0361706 -1.1944 0.0533948 -0.0366759 -1.19463 
0.131184 -0.0293612 -1.19084 0.461175 -0.0210599 -1.19502 0.357902 -0.0354492 -1.17938 
0.447814 -0.04496 -1.1951 0.42461 -0.00540608 -1.195 0.032326 -0.01255 -1.18108 
0.162232 -0.0428919 -1.19488 0.46343 -0.00929927 -1.15689 0.227771 -0.0441689 -0.245002 
0.468164 -0.0378879 -1.1783 0.142638 -0.0301285 -1.19502 0.0710776 -0.00782536 -1.17975 
0.155952 -0.016251 -1.18524 0.442691 -0.00497496 -1.18782 0.27224 -0.00696944 -1.195 
0.4418 -0.0370283 -1.19501 0.029591 -0.043309 -1.1818 0.0434277 -0.0375945 -1.19494 
0.0485121 -0.00646764 -1.14323 0.0138096 -0.030209 -1.19502 0.0264925 -0.00499591 -1.19484 
0.0720145 -0.00506561 -1.19493 0.495001 -0.0148547 -1.17311 0.477374 -0.0319205 -1.16942 
0.0388673 -0.0298574 -1.18868 0.0219671 -0.0250158 -1.19222 0.147544 -0.0448767 -1.19107 
0.0249098 -0.00551277 -1.18258 0.333396 -0.0349876 -1.18582 0.447919 -0.0445205 -1.18125 
0.0697176 -0.013139 -1.1883 0.462703 -0.0303187 -1.17036 0.150311 -0.00785856 -1.18498 
0.478875 -0.0281353 -1.18687 0.0125541 -0.0379777 -1.18863 0.0837697 -0.025171 -1.19158 
0.453675 -0.0144506 -1.19502 0.320007 -0.00594844 -0.396774 0.09679 -0.0420423 -1.195 
0.163307 -0.00975894 -1.195 0.4567 -0.00516029 -1.18701 0.454835 -0.0217361 -1.17563 
0.436466 -0.0313888 -1.18126 0.494835 -0.0433543 -1.15314 0.181261 -0.0143018 -1.19455 
0.441595 -0.0216669 -1.19498 0.2593 -0.0246652 -0.29075 0.170322 -0.0174237 -1.19499 
0.0272793 -0.0252366 -1.11824 0.0592363 -0.0446429 -1.19164 0.103635 -0.0299434 -1.1945 
0.03072 -0.0146589 -1.19497 0.459116 -0.0298446 -1.17965 0.35865 -0.0258997 -0.620082 
0.433664 -0.037042 -1.18901 0.483054 -0.0261095 -1.1637 0.291125 -0.0178376 -1.19236 
0.461659 -0.00524679 -1.17822 0.165062 -0.0195988 -1.18255 0.127113 -0.0156101 -1.19039 
0.396667 -0.0362251 -1.19486 0.455525 -0.0448834 -1.18881 0.361665 -0.0446135 -1.19486 
0.33315 -0.00584991 -1.19488 0.00568063 -0.0272526 -1.16283 0.462903 -0.0309123 -1.19496 
0.353041 -0.00648551 -1.19158 0.426785 -0.0449202 -1.18564 0.477415 -0.00498752 -1.16835 
0.201049 -0.0159468 -1.18675 0.0643719 -0.0376543 -1.17629 0.322215 -0.0179107 -1.17146 
0.396624 -0.017424 -1.18237 0.435104 -0.0292607 -1.19504 0.456607 -0.0133855 -1.18107 
0.0551704 -0.0233234 -1.19388 0.451274 -0.0255333 -1.19466 0.0262702 -0.0344309 -1.17578 
0.17317 -0.0437143 -1.19138 0.469441 -0.0312505 -1.18583 0.0489239 -0.0451463 -1.19174 
0.300759 -0.0329586 -1.1948 0.415388 -0.026906 -1.19499 0.0788971 -0.0433535 -1.19496 
0.311444 -0.00589145 -1.19092 0.493966 -0.0286428 -1.15697 0.0805623 -0.0299918 -0.992555 
0.0873164 -0.0145727 -1.19496 0.0370052 -0.0059829 -1.15052 0.426335 -0.0243998 -1.19502 
0.444511 -0.0248683 -1.17385 0.173399 -0.0359104 -1.1846 0.345217 -0.0179351 -1.18789 
0.191408 -0.00553217 -1.19177 0.425789 -0.030673 -1.18616 0.442707 -0.0211454 -1.18298 
0.42133 -0.0447647 -1.19491 0.472599 -0.00495704 -1.17759 0.359051 -0.0129098 -0.641218 
0.388109 -0.00609093 -1.19464 0.466467 -0.00546417 -1.16946 0.101458 -0.0392319 -1.18547 
0.152965 -0.031851 -1.19467 0.282542 -0.0440744 -1.1858 0.419495 -0.0214681 -1.18769 
0.459374 -0.0449972 -1.17956 0.138931 -0.0197095 -1.18719 0.430057 -0.00504794 -1.18656 
0.109687 -0.0428389 -1.16698 0.0458016 -0.00936541 -1.18529 0.0793865 -0.00907988 -1.18614 
0.426542 -0.0218444 -1.18058 0.302886 -0.0231294 -1.18852 0.468596 -0.0240379 -1.15264 
0.101173 -0.022688 -1.188 0.432405 -0.0146863 -1.195 0.338621 -0.0390277 -1.19448 
0.329046 -0.0305016 -1.15196 0.327937 -0.0337647 -1.19464 0.409031 -0.00646615 -1.19476 
0.048203 -0.00501397 -1.19466 0.0469157 -0.00954352 -1.17348 0.291741 -0.0435148 -1.16904 
0.457043 -0.030654 -1.15426 0.299995 -0.0354732 -1.18504 0.251757 -0.00720466 -1.19173 
0.264405 -0.0445119 -1.18062 0.0762367 -0.0204415 -1.18627 0.0769495 -0.0152666 -1.1949 
0.44048 -0.0450261 -1.18837 0.425768 -0.0354081 -1.19497 0.120364 -0.0279249 -1.1207 
0.221113 -0.00509363 -0.245002 0.26332 -0.0211285 -1.14441 0.416644 -0.0116232 -1.1492 
0.447587 -0.0148125 -1.17679 0.159272 -0.043758 -1.16126 0.295659 -0.0388972 -1.11367 
0.214779 -0.0175736 -1.19457 0.0633304 -0.0195696 -1.18213 0.337438 -0.0152027 -1.19489 
0.398555 -0.0150152 -1.19494 0.272169 -0.00630123 -1.18016 0.353026 -0.0427687 -0.467774 
0.433892 -0.0232155 -1.1872 0.0910152 -0.0341235 -1.18649 0.401425 -0.0449677 -1.19491 
0.178756 -0.00602813 -1.18279 0.347007 -0.0446283 -1.19498 0.465602 -0.0145684 -1.17456 
0.4359 -0.0145343 -1.17611 0.162559 -0.0367542 -1.1827 0.332978 -0.0242501 -1.19481 
0.349867 -0.0279379 -1.18274 0.347554 -0.0265952 -1.19418 0.367274 -0.0106966 -1.18915 
0.425043 -0.00562586 -1.17743 0.346101 -0.0446751 -1.16377 0.317867 -0.0320249 -1.19337 
0.282044 -0.0248202 -1.19402 0.162131 -0.0227305 -1.19304 0.411415 -0.0449611 -1.1947 
0.0874951 -0.0443008 -1.18843 0.449182 -0.00515664 -1.18027 0.337138 -0.0446325 -1.18364 
0.358579 -0.0150101 -1.1953 0.267418 -0.0266861 -1.17064 0.195127 -0.0393742 -1.18293 
0.317618 -0.0423982 -1.19069 0.268158 -0.0216004 -1.18248 0.384803 -0.044735 -1.19407 
0.0938632 -0.0262649 -1.19502 0.196031 -0.00673831 -1.17626 0.331221 -0.0137618 -1.18572 
0.305566 -0.0304758 -1.17797 0.349931 -0.00904371 -0.496497 0.385588 -0.0183463 -1.19516 
0.425394 -0.0148831 -1.17347 0.282221 -0.0347334 -1.195 0.229294 -0.0389124 -1.18634 
0.24155 -0.0349037 -1.19492 0.448234 -0.0136437 -1.18668 0.39872 -0.00515854 -1.19471 
0.204591 -0.0211912 -1.195 0.481026 -0.0157581 -1.16488 0.290216 -0.0339575 -1.17535 
0.206476 -0.0347642 -0.245002 0.423792 -0.0442794 -1.17554 0.411858 -0.0161638 -1.19492 
0.443535 -0.0169678 -1.16789 0.414976 -0.0298555 -1.18428 0.114707 -0.027857 -1.18801 
0.423768 -0.0303463 -1.17614 0.00930927 -0.0447687 -1.15952 0.131543 -0.0402281 -1.19484 
0.435867 -0.0391918 -1.17012 0.184869 -0.00502826 -1.0565 0.280016 -0.0337204 -1.16851 
0.279636 -0.0137466 -1.18721 0.321741 -0.00544531 -1.19009 0.375121 -0.0336179 -1.18402 
0.382538 -0.0152817 -1.16968 0.467638 -0.0445064 -1.1541 0.176862 -0.0330554 -1.19436 
0.407551 -0.0427562 -1.18268 0.354396 -0.0399373 -0.766959 0.40427 -0.0118841 -1.17705 
0.113047 -0.0359594 -1.19441 0.403409 -0.00964747 -1.18678 0.404517 -0.0389672 -1.16633 
0.249799 -0.029131 -1.195 0.395976 -0.0239947 -1.1909 0.486225 -0.0382068 -1.15317 
0.217196 -0.0360508 -1.14775 0.373311 -0.0442938 -1.19075 0.328102 -0.0416104 -0.958408 
0.313688 -0.0323076 -1.18419 0.353053 -0.0363266 -1.19309 0.374865 -0.00645586 -1.19407 
0.422787 -0.0123759 -1.18539 0.472873 -0.0259541 -1.16123 0.352248 -0.0449458 -1.1783 
0.305133 -0.0439145 -1.18904 0.358968 -0.0394607 -0.51601 0.342688 -0.0183196 -0.434212 
0.43724 -0.00499776 -1.17944 0.390614 -0.0354574 -1.18607 0.258345 -0.0406443 -1.15766 
0.397246 -0.0433553 -1.18473 0.406793 -0.0224216 -1.18497 0.343384 -0.00657711 -1.19503 
0.346072 -0.0379254 -1.18619 0.35943 -0.0132283 -0.671565 0.166977 -0.0325149 -1.195 
0.346772 -0.00816902 -1.18071 0.29236 -0.0297022 -1.18996 0.260071 -0.0342405 -1.19491 
0.471794 -0.0119912 -1.16384 0.382235 -0.0348783 -1.19283 0.371486 -0.011714 -1.1764 
0.277994 -0.0447836 -1.19496 0.44541 -0.0450755 -1.17168 0.404796 -0.0220052 -1.16502 
0.326421 -0.00647452 -1.17822 0.424981 -0.00632238 -1.15735 0.40525 -0.0327038 -1.18501 
0.475946 -0.0178026 -1.1563 0.363647 -0.038159 -1.17153 0.319269 -0.00940819 -1.16789 
0.0922177 -0.0158456 -1.18463 0.319178 -0.0363255 -1.12831 0.229127 -0.0339275 -0.245002 
0.342657 -0.032954 -1.10696 0.344916 -0.0263626 -1.16641 0.444887 -0.0348585 -1.17669 
0.19552 -0.0125671 -1.0595 0.432486 -0.0264628 -1.17341 0.24834 -0.0134088 -0.271171 
0.334858 -0.0103 -1.16377 0.343614 -0.0148388 -0.893559 0.333439 -0.0234371 -1.18089 
0.36261 -0.0108603 -1.16851 0.374359 -0.00541455 -1.18334 0.161195 -0.00495117 -1.18553 
0.411291 -0.00494957 -1.17871 0.33 -0.0320498 -0.415123 0.383529 -0.0432351 -1.18254 
0.486011 -0.0425828 -1.01861 0.119115 -0.0420277 -1.1595 0.386969 -0.0233745 -1.18637 
0.346224 -0.00905713 -1.12571 0.412602 -0.0135539 -1.18421 0.269675 -0.0317398 -1.18145 
0.169875 -0.0302965 -1.17242 0.231352 -0.0246345 -1.19272 0.486388 -0.0122858 -1.09035 
0.364063 -0.0381217 -1.18754 0.43136 -0.00674114 -0.79034 0.19746 -0.0325857 -1.19406 
0.467809 -0.0313563 -0.931637 0.310032 -0.00782692 -1.17391 0.34962 -0.0414006 -0.579506 
0.208291 -0.0409185 -1.19192 0.398019 -0.0341455 -1.17817 0.364651 -0.0219846 -1.18832 
0.337221 -0.00524572 -1.18506 0.419396 -0.0387809 -1.183 
VERTICES 500 1000
1 0 
1 1 
1 2 
1 3 
1 4 
1 5 
1 6 
1 7 
1 8 
1 9 
1 10 
1 11 
1 12 
1 13 
1 14 
1 15 
1 16 
1 17 
1 18 
1 19 
1 20 
1 21 
1 22 
1 23 
1 24 
1 25 
1 26 
1 27 
1 28 
1 29 
1 30 
1 31 
1 32 
1 33 
1 34 
1 35 
1 36 
1 37 
1 38 
1 39 
1 40 
1 41 
1 42 
1 43 
1 44 
1 45 
1 46 
1 47 
1 48 
1 49 
1 50 
1 51 
1 52 
1 53 
1 54 
1 55 
1 56 
1 57 
1 58 
1 59 
1 60 
1 61 
1 62 
1 63 
1 64 
1 65 
1 66 
1 67 
1 68 
1 69 
1 70 
1 71 
1 72 
1 73 
1 74 
1 75 
1 76 
1 77 
1 78 
1 79 
1 80 
1 81 
1 82 
1 83 
1 84 
1 85 
1 86 
1 87 
1 88 
1 89 
1 90 
1 91 
1 92 
1 93 
1 94 
1 95 
1 96 
1 97 
1 98 
1 99 
1 100 
1 101 
1 102 
1 103 
1 104 
1 105 
1 106 
1 107 
1 108 
1 109 
1 110 
1 111 
1 112 
1 113 
1 114 
1 115 
1 116 
1 117 
1 118 
1 119 
1 120 
1 121 
1 122 
1 123 
1 124 
1 125 
1 126 
1 127 
1 128 
1 129 
1 130 
1 131 
1 132 
1 133 
1 134 
1 135 
1 136 
1 137 
1 138 
1 139 
1 140 
1 141 
1 142 
1 143 
1 144 
1 145 
1 146 
1 147 
1 148 
1 149 
1 150 
1 151 
1 152 
1 153 
1 154 
1 155 
1 156 
1 157 
1 158 
1 159 
1 160 
1 161 
1 162 
1 163 
1 164 
1 165 
1 166 
1 167 
1 168 
1 169 
1 170 
1 171 
1 172 
1 173 
1 174 
1 175 
1 176 
1 177 
1 178 
1 179 
1 180 
1 181 
1 182 
1 183 
1 184 
1 185 
1 186 
1 187 
1 188 
1 189 
1 190 
1 191 
1 192 
1 193 
1 194 
1 195 
1 196 
1 197 
1 198 
1 199 
1 200 
1 201 
1 202 
1 203 
1 204 
1 205 
1 206 
1 207 
1 208 
1 209 
1 210 
1 211 
1 212 
1 213 
1 214 
1 215 
1 216 
1 217 
1 218 
1 219 
1 220 
1 221 
1 222 
1 223 
1 224 
1 225 
1 226 
1 227 
1 228 
1 229 
1 230 
1 231 
1 232 
1 233 
1 234 
1 235 
1 236 
1 237 
1 238 
1 239 
1 240 
1 241 
1 242 
1 243 
1 244 
1 245 
1 246 
1 247 
1 248 
1 249 
1 250 
1 251 
1 252 
1 253 
1 254 
1 255 
1 256 
1 257 
1 258 
1 259 
1 260 
1 261 
1 262 
1 263 
1 264 
1 265 
1 266 
1 267 
1 268 
1 269 
1 270 
1 271 
1 272 
1 273 
1 274 
1 275 
1 276 
1 277 
1 278 
1 279 
1 280 
1 281 
1 282 
1 283 
1 284 
1 285 
1 286 
1 287 
1 288 
1 289 
1 290 
1 291 
1 292 
1 293 
1 294 
1 295 
1 296 
1 297 
1 298 
1 299 
1 300 
1 301 
1 302 
1 303 
1 304 
1 305 
1 306 
1 307 
1 308 
1 309 
1 310 
1 311 
1 312 
1 313 
1 314 
1 315 
1 316 
1 317 
1 318 
1 319 
1 320 
1 321 
1 322 
1 323 
1 324 
1 325 
1 326 
1 327 
1 328 
1 329 
1 330 
1 331 
1 332 
1 333 
1 334 
1 335 
1 336 
1 337 
1 338 
1 339 
1 340 
1 341 
1 342 
1 343 
1 344 
1 345 
1 346 
1 347 
1 348 
1 349 
1 350 
1 351 
1 352 
1 353 
1 354 
1 355 
1 356 
1 357 
1 358 
1 359 
1 360 
1 361 
1 362 
1 363 
1 364 
1 365 
1 366 
1 367 
1 368 
1 369 
1 370 
1 371 
1 372 
1 373 
1 374 
1 375 
1 376 
1 377 
1 378 
1 379 
1 380 
1 381 
1 382 
1 383 
1 384 
1 385 
1 386 
1 387 
1 388 
1 389 
1 390 
1 391 
1 392 
1 393 
1 394 
1 395 
1 396 
1 397 
1 398 
1 399 
1 400 
1 401 
1 402 
1 403 
1 404 
1 405 
1 406 
1 407 
1 408 
1 409 
1 410 
1 411 
1 412 
1 413 
1 414 
1 415 
1 416 
1 417 
1 418 
1 419 
1 420 
1 421 
1 422 
1 423 
1 424 
1 425 
1 426 
1 427 
1 428 
1 429 
1 430 
1 431 
1 432 
1 433 
1 434 
1 435 
1 436 
1 437 
1 438 
1 439 
1 440 
1 441 
1 442 
1 443 
1 444 
1 445 
1 446 
1 447 
1 448 
1 449 
1 450 
1 451 
1 452 
1 453 
1 454 
1 455 
1 456 
1 457 
1 458 
1 459 
1 460 
1 461 
1 462 
1 463 
1 464 
1 465 
1 466 
1 467 
1 468 
1 469 
1 470 
1 471 
1 472 
1 473 
1 474 
1 475 
1 476 
1 477 
1 478 
1 479 
1 480 
1 481 
1 482 
1 483 
1 484 
1 485 
1 486 
1 487 
1 488 
1 489 
1 490 
1 491 
1 492 
1 493 
1 494 
1 495 
1 496 
1 497 
1 498 
1 499 

POINT_DATA 500
FIELD FieldData 7
id 1 500 int
1 2 3 4 5 6 7 8 9 
10 11 12 13 14 15 16 17 18 
19 20 21 22 23 24 25 26 27 
28 29 30 31 32 33 34 35 36 
37 38 39 40 41 42 43 44 45 
46 47 48 49 50 51 52 53 54 
55 56 57 58 59 60 61 62 63 
64 65 66 67 68 69 70 71 72 
73 74 75 76 77 78 79 80 81 
82 83 84 85 86 87 88 89 90 
91 92 93 94 95 96 97 98 99 
100 101 102 103 104 105 106 107 108 
109 110 111 112 113 114 115 116 117 
118 119 120 121 122 123 124 125 126 
127 128 129 130 131 132 133 134 135 
136 137 138 139 140 141 142 143 144 
145 146 147 148 149 150 151 152 153 
154 155 156 157 158 159 160 161 162 
163 164 165 166 167 168 169 170 171 
172 173 174 175 176 177 178 179 180 
181 182 183 184 185 186 187 188 189 
190 191 192 193 194 195 196 197 198 
199 200 201 202 203 204 205 206 207 
208 209 210 211 212 213 214 215 216 
217 218 219 220 221 222 223 224 225 
226 227 228 229 230 231 232 233 234 
235 236 237 238 239 240 241 242 243 
244 245 246 247 248 249 250 251 252 
253 254 255 256 257 258 259 260 261 
262 263 264 265 266 267 268 269 270 
271 272 273 274 275 276 277 278 279 
280 281 282 283 284 285 286 287 288 
289 290 291 292 293 294 295 296 297 
298 299 300 301 302 303 304 305 306 
307 308 309 310 311 312 313 314 315 
316 317 318 319 320 321 322 323 324 
325 326 327 328 329 330 331 332 333 
334 335 336 337 338 339 340 341 342 
343 344 345 346 347 348 349 350 351 
352 353 354 355 356 357 358 359 360 
361 362 363 364 365 366 367 368 369 
370 371 372 373 374 375 376 377 378 
379 380 381 382 383 384 385 386 387 
388 389 390 391 392 393 394 395 396 
397 398 399 400 401 402 403 404 405 
406 407 408 409 410 411 412 413 414 
415 416 417 418 419 420 421 422 423 
424 425 426 427 428 429 430 431 432 
433 434 435 436 437 438 439 440 441 
442 443 444 445 446 447 448 449 450 
451 452 453 454 455 456 457 458 459 
460 461 462 463 464 465 466 467 468 
469 470 471 472 473 474 475 476 477 
478 479 480 481 482 483 484 485 486 
487 488 489 490 491 492 493 494 495 
496 497 498 499 500 
type 1 500 int
1 1 1 1 1 1 1 1 1 
1 1 1 1 1 1 1 1 1 
1 1 1 1 1 1 1 1 1 
1 1 1 1 1 1 1 1 1 
1 1 1 1 1 1 1 1 1 
1 1 1 1 1 1 1 1 1 
1 1 1 1 1 1 1 1 1 
1 1 1 1 1 1 1 1 1 
1 1 1 1 1 1 1 1 1 
1 1 1 1 1 1 1 1 1 
1 1 1 1 1 1 1 1 1 
1 1 1 1 1 1 1 1 1 
1 1 1 1 1 1 1 1 1 
1 1 1 1 1 1 1 1 1 
1 1 1 1 1 1 1 1 1 
1 1 1 1 1 1 1 1 1 
1 1 1 1 1 1 1 1 1 
1 1 1 1 1 1 1 1 1 
1 1 1 1 1 1 1 1 1 
1 1 1 1 1 1 1 1 1 
1 1 1 1 1 1 1 1 1 
1 1 1 1 1 1 1 1 1 
1 1 1 1 1 1 1 1 1 
1 1 1 1 1 1 1 1 1 
1 1 1 1 1 1 1 1 1 
1 1 1 1 1 1 1 1 1 
1 1 1 1 1 1 1 1 1 
1 1 1 1 1 1 1 1 1 
1 1 1 1 1 1 1 1 1 
1 1 1 1 1 1 1 1 1 
1 1 1 1 1 1 1 1 1 
1 1 1 1 1 1 1 1 1 
1 1 1 1 1 1 1 1 1 
1 1 1 1 1 1 1 1 1 
1 1 1 1 1 1 1 1 1 
1 1 1 1 1 1 1 1 1 
1 1 1 1 1 1 1 1 1 
1 1 1 1 1 1 1 1 1 
1 1 1 1 1 1 1 1 1 
1 1 1 1 1 1 1 1 1 
1 1 1 1 1 1 1 1 1 
1 1 1 1 1 1 1 1 1 
1 1 1 1 1 1 1 1 1 
1 1 1 1 1 1 1 1 1 
1 1 1 1 1 1 1 1 1 
1 1 1 1 1 1 1 1 1 
1 1 1 1 1 1 1 1 1 
1 1 1 1 1 1 1 1 1 
1 1 1 1 1 1 1 1 1 
1 1 1 1 1 1 1 1 1 
1 1 1 1 1 1 1 1 1 
1 1 1 1 1 1 1 1 1 
1 1 1 1 1 1 1 1 1 
1 1 1 1 1 1 1 1 1 
1 1 1 1 1 1 1 1 1 
1 1 1 1 1 
i 3 500 int
0 0 0 0 0 0 0 0 0 
0 0 0 0 0 0 0 0 0 
0 0 0 0 0 0 0 0 0 
0 0 0 0 0 0 0 0 0 
0 0 0 0 0 0 0 0 0 
0 0 0 0 0 0 0 0 0 
0 0 0 0 0 0 0 0 0 
0 0 0 0 0 0 0 0 0 
0 0 0 0 0 0 0 0 0 
0 0 0 0 0 0 0 0 0 
0 0 0 0 0 0 0 0 0 
0 0 0 0 0 0 0 0 0 
0 0 0 0 0 0 0 0 0 
0 0 0 0 0 0 0 0 0 
0 0 0 0 0 0 0 0 0 
0 0 0 0 0 0 0 0 0 
0 0 0 0 0 0 0 0 0 
0 0 0 0 0 0 0 0 0 
0 0 0 0 0 0 0 0 0 
0 0 0 0 0 0 0 0 0 
0 0 0 0 0 0 0 0 0 
0 0 0 0 0 0 0 0 0 
0 0 0 0 0 0 0 0 0 
0 0 0 0 0 0 0 0 0 
0 0 0 0 0 0 0 0 0 
0 0 0 0 0 0 0 0 0 
0 0 0 0 0 0 0 0 0 
0 0 0 0 0 0 0 0 0 
0 0 0 0 0 0 0 0 0 
0 0 0 0 0 0 0 0 0 
0 0 0 0 0 0 0 0 0 
0 0 0 0 0 0 0 0 0 
0 0 0 0 0 0 0 0 0 
0 0 0 0 0 0 0 0 0 
0 0 0 0 0 0 0 0 0 
0 0 0 0 0 0 0 0 0 
0 0 0 0 0 0 0 0 0 
0 0 0 0 0 0 0 0 0 
0 0 0 0 0 0 0 0 0 
0 0 0 0 0 0 0 0 0 
0 0 0 0 0 0 0 0 0 
0 0 0 0 0 0 0 0 0 
0 0 0 0 0 0 0 0 0 
0 0 0 0 0 0 0 0 0 
0 0 0 0 0 0 0 0 0 
0 0 0 0 0 0 0 0 0 
0 0 0 0 0 0 0 0 0 
0 0 0 0 0 0 0 0 0 
0 0 0 0 0 0 0 0 0 
0 0 0 0 0 0 0 0 0 
0 0 0 0 0 0 0 0 0 
0 0 0 0 0 0 0 0 0 
0 0 0 0 0 0 0 0 0 
0 0 0 0 0 0 0 0 0 
0 0 0 0 0 0 0 0 0 
0 0 0 0 0 0 0 0 0 
0 0 0 0 0 0 0 0 0 
0 0 0 0 0 0 0 0 0 
0 0 0 0 0 0 0 0 0 
0 0 0 0 0 0 0 0 0 
0 0 0 0 0 0 0 0 0 
0 0 0 0 0 0 0 0 0 
0 0 0 0 0 0 0 0 0 
0 0 0 0 0 0 0 0 0 
0 0 0 0 0 0 0 0 0 
0 0 0 0 0 0 0 0 0 
0 0 0 0 0 0 0 0 0 
0 0 0 0 0 0 0 0 0 
0 0 0 0 0 0 0 0 0 
0 0 0 0 0 0 0 0 0 
0 0 0 0 0 0 0 0 0 
0 0 0 0 0 0 0 0 0 
0 0 0 0 0 0 0 0 0 
0 0 0 0 0 0 0 0 0 
0 0 0 0 0 0 0 0 0 
0 0 0 0 0 0 0 0 0 
0 0 0 0 0 0 0 0 0 
0 0 0 0 0 0 0 0 0 
0 0 0 0 0 0 0 0 0 
0 0 0 0 0 0 0 0 0 
0 0 0 0 0 0 0 0 0 
0 0 0 0 0 0 0 0 0 
0 0 0 0 0 0 0 0 0 
0 0 0 0 0 0 0 0 0 
0 0 0 0 0 0 0 0 0 
0 0 0 0 0 0 0 0 0 
0 0 0 0 0 0 0 0 0 
0 0 0 0 0 0 0 0 0 
0 0 0 0 0 0 0 0 0 
0 0 0 0 0 0 0 0 0 
0 0 0 0 0 0 0 0 0 
0 0 0 0 0 0 0 0 0 
0 0 0 0 0 0 0 0 0 
0 0 0 0 0 0 0 0 0 
0 0 0 0 0 0 0 0 0 
0 0 0 0 0 0 0 0 0 
0 0 0 0 0 0 0 0 0 
0 0 0 0 0 0 0 0 0 
0 0 0 0 0 0 0 0 0 
0 0 0 0 0 0 0 0 0 
0 0 0 0 0 0 0 0 0 
0 0 0 0 0 0 0 0 0 
0 0 0 0 0 0 0 0 0 
0 0 0 0 0 0 0 0 0 
0 0 0 0 0 0 0 0 0 
0 0 0 0 0 0 0 0 0 
0 0 0 0 0 0 0 0 0 
0 0 0 0 0 0 0 0 0 
0 0 0 0 0 0 0 0 0 
0 0 0 0 0 0 0 0 0 
0 0 0 0 0 0 0 0 0 
0 0 0 0 0 0 0 0 0 
0 0 0 0 0 0 0 0 0 
0 0 0 0 0 0 0 0 0 
0 0 0 0 0 0 0 0 0 
0 0 0 0 0 0 0 0 0 
0 0 0 0 0 0 0 0 0 
0 0 0 0 0 0 0 0 0 
0 0 0 0 0 0 0 0 0 
0 0 0 0 0 0 0 0 0 
0 0 0 0 0 0 0 0 0 
0 0 0 0 0 0 0 0 0 
0 0 0 0 0 0 0 0 0 
0 0 0 0 0 0 0 0 0 
0 0 0 0 0 0 0 0 0 
0 0 0 0 0 0 0 0 0 
0 0 0 0 0 0 0 0 0 
0 0 0 0 0 0 0 0 0 
0 0 0 0 0 0 0 0 0 
0 0 0 0 0 0 0 0 0 
0 0 0 0 0 0 0 0 0 
0 0 0 0 0 0 0 0 0 
0 0 0 0 0 0 0 0 0 
0 0 0 0 0 0 0 0 0 
0 0 0 0 0 0 0 0 0 
0 0 0 0 0 0 0 0 0 
0 0 0 0 0 0 0 0 0 
0 0 0 0 0 0 0 0 0 
0 0 0 0 0 0 0 0 0 
0 0 0 0 0 0 0 0 0 
0 0 0 0 0 0 0 0 0 
0 0 0 0 0 0 0 0 0 
0 0 0 0 0 0 0 0 0 
0 0 0 0 0 0 0 0 0 
0 0 0 0 0 0 0 0 0 
0 0 0 0 0 0 0 0 0 
0 0 0 0 0 0 0 0 0 
0 0 0 0 0 0 0 0 0 
0 0 0 0 0 0 0 0 0 
0 0 0 0 0 0 0 0 0 
0 0 0 0 0 0 0 0 0 
0 0 0 0 0 0 0 0 0 
0 0 0 0 0 0 0 0 0 
0 0 0 0 0 0 0 0 0 
0 0 0 0 0 0 0 0 0 
0 0 0 0 0 0 0 0 0 
0 0 0 0 0 0 0 0 0 
0 0 0 0 0 0 0 0 0 
0 0 0 0 0 0 0 0 0 
0 0 0 0 0 0 0 0 0 
0 0 0 0 0 0 0 0 0 
0 0 0 0 0 0 0 0 0 
0 0 0 0 0 0 0 0 0 
0 0 0 0 0 0 0 0 0 
0 0 0 0 0 0 0 0 0 
0 0 0 0 0 0 0 0 0 
0 0 0 0 0 0 
v 3 500 double
-0.0846671 -0.0320643 -0.174251 0.172864 0.0257531 -0.0528717 0.00306126 0.0447947 0.0150121 
-0.164104 0.00689627 0.393457 -0.584448 0.048677 -2.67197 -0.282426 -0.16566 -0.163405 
-0.0682263 0.0538429 0.0853235 -0.355462 0.031393 -3.02674 -1.53276 0.713354 -2.08982 
-0.223874 0.0959135 0.0903124 -0.202847 -0.0570282 -3.09741 -0.101125 0.0348726 -0.00349748 
-0.0680571 0.0871411 0.00963179 0.251287 -0.144498 0.038395 0.233273 -0.0404879 -3.04962 
-0.157819 -0.00239643 0.104254 -0.0501742 -0.0207592 -0.251824 0.00658483 0.0140784 0.0924499 
-0.346823 0.172568 -0.137964 0.0482856 0.058962 0.0421143 -0.189985 -0.0851692 -0.028831 
-0.416011 0.25489 -0.160574 -0.00417035 0.0147042 0.0112026 -0.23529 -0.190531 -0.103742 
-0.028767 0.103908 -0.486629 0.0098807 0.0848898 0.0703192 -0.0244988 -0.0327651 0.00155353 
0.207414 -0.0118965 0.0013396 -0.244187 -0.0461315 -0.165068 -1.19333 -0.0441992 0.0270837 
-0.114967 -0.114449 0.0709225 -0.0679192 -0.042483 0.203116 -0.185361 0.313655 0.272404 
-0.111995 -0.135707 -0.0364236 0.0285689 0.0836382 -3.63662 0.0635228 -0.12948 0.0595038 
-0.108202 -0.0410482 0.000740057 0.0171699 -0.00140035 0.0118103 -0.350205 -0.319809 0.217087 
-0.0124785 -0.0355483 0.0715317 -0.00164804 -0.0374652 -6.7427e-11 -0.539549 0.0562427 0.116848 
-0.146041 0.125584 -2.49148 -0.358054 -0.042146 0.144443 -0.211853 -0.0811797 -2.58934 
0.0317437 0.0460445 -0.00537197 -0.137379 0.096721 -0.505308 -0.0303615 0.11435 0.00699489 
-0.0662308 -0.00464958 0.0284668 -0.168232 0.0698587 -0.000271338 -0.238989 -0.0496124 0.0038635 
0.00578833 0.0528742 -0.0096615 -0.01282 0.0758399 -0.0628107 -0.0586699 -0.0362549 0.0946327 
-0.00967666 0.209427 -0.0391174 -0.043843 0.00604045 -0.046469 -1.00064 -0.105366 -0.0158682 
-0.296479 0.0707144 -2.67164 -0.0447405 -0.105643 -0.0609624 0.193749 -0.0348126 -0.00252014 
-0.0511481 -0.0279731 0.0739193 0.0459631 -0.00164376 0.0979026 -0.0461328 0.285141 -0.061162 
0.0177995 -0.106927 0.0185486 -0.426467 -0.168035 -1.82057 -0.193773 -0.0148552 0.0876246 
0.248269 0.421439 0.198955 0.166546 -0.161055 0.0747862 -0.0879144 -0.0128415 -0.0131654 
-0.0363106 0.0958257 0.0185705 0.0137222 -0.00534849 0.014199 -0.0234946 -0.051403 0.0800767 
-0.188628 -0.189845 0.0477642 -0.000883308 0.0240267 -0.0178296 0.188191 0.153265 -0.0850479 
-1.02109 -0.0367133 -0.0706142 -0.237486 -0.0280052 0.304857 0.0186282 0.10239 0.0837596 
0.313607 0.554472 0.384295 -0.016794 0.0274296 0.0693808 0.229338 0.400361 -0.431304 
-0.041742 0.0225913 0.104223 0.0061473 0.017209 0.0347883 -0.0849197 0.110064 -0.00177622 
0.544423 -0.0190731 -0.942967 -0.307743 -0.499558 -1.14712 0.017822 0.0122616 0.100436 
0.124392 0.102423 0.0758998 -0.0728711 -0.0418074 0.055653 -0.00281871 -0.0939719 -0.00128299 
-0.110196 -0.121997 -0.0490275 -0.148304 0.0875401 -0.00461846 -0.0516255 0.0187721 -0.227439 
-0.180828 0.0089021 -0.197038 0.0174548 -0.00243664 -0.0284299 0.00794688 0.00882699 0.011487 
-0.399856 -0.545043 0.0829386 -0.731082 0.194309 -0.0149402 -0.348604 0.536588 0.551035 
-0.422479 -0.315711 -0.271158 -0.732383 -0.0140462 -0.0851804 0.00463458 0.00167853 3.02802e-12 
-0.0343547 0.0721726 -0.0724916 -0.0737048 -0.00251207 0.166776 0.216159 -0.0144647 0.00669671 
-0.443506 0.165366 -0.107111 -0.564345 0.705733 -0.0648651 0.667333 0.0786392 -2.13524 
-0.996953 0.00302409 -0.0616104 -0.42331 0.0353158 0.18794 -0.322089 0.00376701 0.387382 
-0.110153 -0.249742 0.119326 -0.0160266 0.00346445 0.00974976 -0.103101 -0.0492776 0.0114279 
-0.39421 -0.147296 -2.49368 -0.128049 0.0542975 0.0179421 0.0395284 -0.066105 -2.41693 
-0.0925691 -0.0442902 0.0169395 -0.0138512 0.0224039 0.0701243 -0.684838 -0.15431 0.30166 
-0.317103 0.136179 -0.239797 -0.00109417 0.0243922 0.125716 -0.0126505 0.0480457 -0.0216193 
-0.0704373 0.0231308 0.0785303 -0.116942 -0.017071 0.00766336 -0.0293953 -0.0281968 0.143234 
-0.000677 -0.00861921 6.14692e-07 -0.00792464 -0.0196333 0.0744675 -0.0194056 0.00278962 0.00191416 
-0.0422018 -0.0121473 -0.082802 -0.0788366 -0.102378 0.196674 -0.000602516 -0.00441073 -0.0105206 
-0.38563 0.0332756 0.0321302 0.0512955 -0.0178482 -0.0129316 -0.0692353 -0.138977 0.124732 
-0.311446 0.0903568 -0.0420908 0.136723 -0.118198 -0.288838 -0.592348 0.726848 -0.0259083 
-0.0473791 -0.0604668 0.102587 -0.611502 -0.191533 0.0658735 -0.0436609 0.0614885 0.0271561 
-0.0873909 -0.035894 0.0838475 -0.0724812 0.017252 0.0308416 -0.0237715 0.0490156 0.0421112 
-0.00687946 -0.0100394 0.073554 0.083826 -0.0442066 -0.0236344 -0.132425 0.135494 -0.121446 
0.0807869 -0.0465308 0.0645784 -0.0658782 0.00760534 0.00336207 -1.00925 -0.11185 -0.454209 
-1.01068 0.127413 0.0109165 0.231906 0.0353708 -0.0108473 0.00623638 -0.0386504 -0.000888913 
-0.0762847 0.0383197 0.0378287 0.0424551 -0.0946641 -3.81098 -0.0127242 0.0801519 0.00542665 
-0.344233 0.0201137 -0.19233 -0.30958 0.0569292 0.137858 -0.0420651 0.190257 -0.0222744 
0.0297388 0.0339472 -0.0180388 0.0150031 0.0205561 0.00117429 -0.543895 0.570137 -0.119139 
-0.243141 -0.116419 0.238958 0.0282929 -0.0511514 0.0130609 -0.378933 0.119368 0.475788 
-0.0697186 -0.026492 0.122941 0.611544 0.0815427 -0.331923 -0.0553698 -0.0688991 0.0377851 
-0.123016 -0.180966 -0.0367428 -0.425309 -0.433543 0.0800656 -0.0985773 0.060961 -0.0102104 
-0.190645 0.220134 0.02205 -0.0899746 0.0480977 0.0813299 0.000276663 0.0290706 0.0505807 
-0.210958 0.572642 -0.7324 -0.0960768 -0.0260506 -0.00429187 -0.962056 0.0851687 -0.0132368 