# vtk DataFile Version 4.0
Generated by LIGGGHTS
ASCII
DATASET POLYDATA
POINTS 500 float
0.466777 -0.0441108 -1.16841 0.480544 -0.0344946 -1.15886 0.0110956 -0.0238123 -1.19489 
0.109367 -0.0293071 -1.19501 0.0871246 -0.0432862 -0.799179 0.0651971 -0.0118523 -1.19355 
0.0504279 -0.0356482 -1.06061 0.06083 -0.0197586 -0.769583 0.195889 -0.0331045 -0.781113 
0.491374 -0.00564318 -1.16342 0.412954 -0.00798355 -0.816801 0.479075 -0.0168981 -1.18643 
0.0271527 -0.029989 -1.15414 0.427798 -0.0111919 -1.18466 0.016738 -0.00779583 -0.801611 
0.453146 -0.0288326 -1.18734 0.0621592 -0.0275542 -1.15052 0.495 -0.0450001 -1.17745 
0.0565123 -0.0429728 -1.18904 0.486902 -0.0147972 -1.1748 0.0360726 -0.03525 -1.17548 
0.393861 -0.0198378 -1.17612 0.494948 -0.0450209 -1.19505 0.134534 -0.00765236 -1.13323 
0.34428 -0.0215181 -0.733234 0.437831 -0.0441586 -1.17631 0.494885 -0.0288009 -1.18592 
0.474763 -0.0450105 -1.19503 0.468054 -0.00775688 -1.14751 0.290777 -0.0157672 -1.19248 
0.104783 -0.0203472 -1.19317 0.47674 -0.0445754 -1.16943 0.453435 -0.0191973 -1.16065 
0.486127 -0.0247861 -1.16881 0.356253 -0.041451 -0.524087 0.0974827 -0.0388371 -1.17132 
0.452699 -0.0050069 -1.19499 0.0149133 -0.0405256 -1.19384 0.161809 -0.0192236 -1.17599 
0.494967 -0.00496731 -1.18439 0.215181 -0.0183562 -0.245002 0.305497 -0.0161206 -0.966729 
0.0975144 -0.0444272 -0.808341 0.464099 -0.0327135 -1.16864 0.18751 -0.0238691 -0.775035 
0.484574 -0.0350025 -1.19496 0.0486658 -0.0266042 -1.09305 0.00823729 -0.0194931 -1.18229 
0.48619 -0.0449572 -1.18508 0.471748 -0.0278942 -1.17609 0.442501 -0.00497371 -1.19485 
0.484935 -0.0449974 -1.195 0.0475011 -0.00725279 -1.18542 0.0091026 -0.0404692 -1.1701 
0.0440231 -0.0185339 -1.18503 0.0594527 -0.0168459 -1.15642 0.263062 -0.041956 -1.19122 
0.113711 -0.0261784 -0.745757 0.0562935 -0.0135835 -1.06108 0.0366502 -0.0124145 -1.17728 
0.0308202 -0.0328678 -1.19503 0.470752 -0.0358199 -1.19495 0.021799 -0.040035 -1.16667 
0.16024 -0.031555 -1.14528 0.157887 -0.00675604 -0.768552 0.465977 -0.0141148 -1.18737 
0.481411 -0.0408885 -1.14428 0.490901 -0.0344479 -1.16096 0.464612 -0.00497218 -1.19413 
0.00705762 -0.027219 -1.16885 0.494985 -0.0346636 -1.195 0.494984 -0.0142228 -1.18069 
0.182435 -0.0191581 -1.1921 0.0405848 -0.0134459 -1.19511 0.0881345 -0.0450204 -1.19146 
0.223916 -0.0150882 -1.17375 0.100023 -0.00929383 -1.15689 0.493153 -0.015139 -1.15635 
0.454289 -0.0354469 -1.17975 0.494451 -0.0432241 -1.16761 0.0470842 -0.00733098 -1.10459 
0.0856118 -0.0316239 -1.19293 0.478296 -0.0144902 -1.16947 0.0192408 -0.024477 -1.15173 
0.230359 -0.0361223 -0.245014 0.00691924 -0.0329378 -1.07775 0.0647688 -0.0385369 -1.18408 
0.432365 -0.0322693 -1.17418 0.476425 -0.044596 -1.15925 0.0170016 -0.0143805 -1.18097 
0.172449 -0.015342 -1.18955 0.444547 -0.00589287 -1.16634 0.0412788 -0.0202793 -1.15006 
0.0188701 -0.0273887 -1.18209 0.0058263 -0.0450212 -1.19336 0.0187821 -0.0161609 -1.19241 
0.331085 -0.00540361 -1.19455 0.240635 -0.0100434 -1.17835 0.342126 -0.0318021 -0.746316 
0.168606 -0.044894 -1.18883 0.220672 -0.00595979 -1.19499 0.205465 -0.0446154 -0.245002 
0.0600432 -0.0226218 -1.18564 0.484723 -0.0155332 -1.16204 0.413759 -0.0223098 -1.1942 
0.471965 -0.0199554 -1.13609 0.0756723 -0.0378733 -1.14428 0.0784496 -0.0309591 -0.788124 
0.313749 -0.0352217 -1.19458 0.149003 -0.0353776 -1.19152 0.375079 -0.0197744 -1.19505 
0.207715 -0.0308263 -1.19388 0.494813 -0.0050209 -1.195 0.449366 -0.0146014 -1.19447 
0.107654 -0.0172688 -0.872051 0.107189 -0.0185681 -1.17364 0.279612 -0.0301493 -0.325933 
0.469116 -0.00495655 -1.18493 0.477406 -0.044829 -1.18021 0.236236 -0.00877431 -1.15783 
0.450243 -0.0335423 -1.15503 0.494465 -0.0232547 -1.16195 0.474565 -0.00503124 -1.19501 
0.479071 -0.00502702 -1.18607 0.484792 -0.0050308 -1.19501 0.134083 -0.00584624 -1.19388 
0.205048 -0.0242302 -0.245002 0.486354 -0.0354283 -1.1714 0.494878 -0.0147705 -1.19276 
0.047228 -0.0426101 -1.181 0.172504 -0.00651716 -1.17676 0.494934 -0.0245238 -1.19498 
0.180018 -0.00866403 -1.19476 0.0466953 -0.0417429 -1.14677 0.180552 -0.0155313 -1.18081 
0.461102 -0.0227854 -1.18657 0.0145185 -0.0211146 -1.08947 0.374956 -0.00689834 -1.16996 
0.485489 -0.00505679 -1.17837 0.393037 -0.0448436 -1.19305 0.471035 -0.0226988 -1.18456 
0.486059 -0.0272295 -1.17866 0.484272 -0.0150167 -1.19501 0.475701 -0.0242186 -1.16759 
0.485504 -0.0450027 -1.17434 0.453705 -0.0351049 -1.19506 0.0354636 -0.011642 -1.1869 
0.195336 -0.0271152 -1.19307 0.47426 -0.0149915 -1.19498 0.356984 -0.0174213 -1.19311 
0.209858 -0.00494294 -1.19251 0.464684 -0.0438429 -1.19501 0.00848514 -0.0402488 -1.18333 
0.478647 -0.0207283 -1.17724 0.357908 -0.00655423 -0.577874 0.474701 -0.0265316 -1.195 
0.0694594 -0.0312925 -1.19238 0.494818 -0.00542754 -1.17384 0.0184689 -0.00549988 -1.19366 
0.484825 -0.0250039 -1.195 0.00682039 -0.0347042 -1.19442 0.382483 -0.0127299 -1.19466 
0.13483 -0.0295981 -1.19162 0.0527239 -0.0063553 -1.19425 0.130298 -0.0411199 -1.18619 
0.473753 -0.0120338 -1.17881 0.0732862 -0.0416839 -1.1706 0.466546 -0.0431438 -1.15759 
0.0877884 -0.0123309 -1.14969 0.0894679 -0.0151765 -1.1944 0.426711 -0.0134992 -1.19452 
0.0545914 -0.0195796 -1.19483 0.485189 -0.0432343 -1.16385 0.494995 -0.0348337 -1.17794 
0.223461 -0.0339974 -1.0713 0.0652224 -0.0231999 -1.1717 0.273843 -0.0128365 -1.19457 
0.494848 -0.0231578 -1.17621 0.0832697 -0.0267578 -1.15362 0.160478 -0.0431592 -1.19485 
0.419244 -0.00517326 -1.18459 0.494971 -0.0403496 -1.18628 0.487166 -0.0108472 -1.18639 
0.00490971 -0.0161823 -1.19336 0.176917 -0.038772 -1.1927 0.295995 -0.0277541 -1.19214 
0.056343 -0.0264906 -1.16018 0.416903 -0.0450446 -1.18888 0.494488 -0.0442721 -1.15761 
0.347615 -0.0428346 -1.14008 0.04183 -0.0376528 -1.19421 0.444426 -0.0447811 -1.19492 
0.444751 -0.0149203 -1.18562 0.00792031 -0.00612083 -1.19499 0.354042 -0.00525584 -1.17042 
0.303267 -0.0399256 -1.19492 0.455304 -0.040687 -1.16021 0.478109 -0.0386275 -1.18812 
0.205474 -0.0132015 -0.244821 0.494953 -0.0302582 -1.16905 0.262228 -0.00539369 -1.11436 
0.15301 -0.034852 -1.17724 0.469364 -0.0447645 -1.18622 0.478655 -0.0347701 -1.17859 
0.461618 -0.0365266 -1.1867 0.29221 -0.00511653 -1.1924 0.488517 -0.0208726 -1.18598 
0.486807 -0.0347034 -1.18522 0.0409389 -0.0286753 -1.18593 0.212087 -0.0150821 -1.17508 
0.37558 -0.0065275 -1.19021 0.425584 -0.0355359 -1.18701 0.179362 -0.0336648 -1.18259 
0.283209 -0.0106943 -1.18853 0.466279 -0.0209888 -1.19495 0.364768 -0.0313081 -1.17369 
0.454763 -0.0450199 -1.19501 0.432428 -0.00521899 -1.19477 0.127386 -0.0133473 -1.19455 
0.287344 -0.0338758 -1.1922 0.481403 -0.00503886 -1.15368 0.220902 -0.0443636 -0.244949 
0.469465 -0.0376272 -1.17558 0.274246 -0.00803546 -1.17679 0.2371 -0.00494862 -1.16907 
0.293622 -0.00617743 -1.16691 0.447407 -0.00510097 -1.18407 0.359548 -0.005716 -1.19483 
0.448093 -0.0379897 -1.18725 0.0866844 -0.0367767 -1.18457 0.169362 -0.0247267 -1.19375 
0.153278 -0.0400203 -1.07354 0.0289838 -0.0217679 -1.19302 0.0795147 -0.00656738 -1.19461 
0.200236 -0.0187944 -1.18716 0.494964 -0.0156778 -1.16896 0.476433 -0.0343741 -1.16832 
0.153143 -0.0214278 -1.19473 0.0533695 -0.0335577 -1.19059 0.298121 -0.0322631 -1.18076 
0.116317 -0.00917369 -1.195 0.36209 -0.0179084 -1.18403 0.456909 -0.0441735 -1.17046 
0.190484 -0.0179697 -1.1804 0.469626 -0.0299711 -1.15946 0.295833 -0.00661363 -1.17722 
0.479698 -0.027367 -1.18638 0.0192503 -0.0308002 -1.19362 0.212028 -0.0425646 -1.18616 
0.459481 -0.0135208 -1.19498 0.242869 -0.00542595 -0.261729 0.230659 -0.0311504 -1.19157 
0.30226 -0.00822825 -1.19499 0.457041 -0.00832001 -1.18628 0.462919 -0.0231924 -1.17133 
0.447019 -0.0429044 -1.17016 0.491921 -0.0432977 -1.14474 0.313292 -0.0128042 -1.19504 
0.445622 -0.0239994 -1.19506 0.227196 -0.025735 -0.245002 0.318198 -0.0225672 -1.19492 
0.276781 -0.0376116 -1.15684 0.171912 -0.0290738 -1.09506 0.236345 -0.00591848 -1.19487 
0.150477 -0.015918 -1.18375 0.462407 -0.0295586 -1.17937 0.296828 -0.0355713 -0.355752 
0.443145 -0.0336803 -1.17956 0.479388 -0.0239036 -1.15812 0.366083 -0.00839023 -1.18725 
0.461889 -0.00527535 -1.17765 0.322967 -0.0215365 -1.183 0.254255 -0.00802468 -1.19298 
0.418611 -0.0318114 -1.19485 0.455682 -0.0446155 -1.18506 0.404015 -0.0449285 -1.1922 
0.394055 -0.0166366 -1.19474 0.0544335 -0.037737 -1.14063 0.462425 -0.0302096 -1.19483 
0.404875 -0.0140892 -1.19492 0.438769 -0.0448736 -1.18676 0.476034 -0.00725994 -1.16244 
0.313958 -0.0351505 -1.16724 0.192208 -0.033617 -1.17509 0.348489 -0.0075567 -1.10897 
0.453078 -0.0188793 -1.1373 0.442986 -0.0339579 -1.19495 0.463988 -0.0154812 -1.17742 
0.196916 -0.0390038 -1.18621 0.455646 -0.0227516 -1.19493 0.153437 -0.027848 -1.18635 
0.287513 -0.044179 -1.1951 0.470756 -0.0326887 -1.18487 0.168301 -0.0239809 -1.18205 
0.377231 -0.030539 -1.19464 0.426449 -0.0265074 -1.19222 0.19696 -0.043862 -1.19478 
0.38704 -0.00525479 -1.18905 0.487011 -0.0149215 -1.13204 0.153494 -0.0128633 -0.95241 
0.220319 -0.0144983 -1.18903 0.113416 -0.018657 -1.13843 0.435776 -0.0237604 -1.19492 
0.445969 -0.0261482 -1.16922 0.306722 -0.0268603 -1.18777 0.402462 -0.0298557 -1.19494 
0.325835 -0.0118155 -1.18559 0.433664 -0.0297583 -1.18649 0.451277 -0.0260443 -1.17783 
0.433334 -0.0450148 -1.19512 0.476961 -0.00500264 -1.17247 0.303948 -0.00653984 -0.368084 
0.416443 -0.0319454 -1.18495 0.460595 -0.00506375 -1.16743 0.26787 -0.00890224 -1.18395 
0.306479 -0.0200952 -1.19508 0.360729 -0.0436984 -1.1885 0.435149 -0.0178264 -1.18665 
0.46317 -0.0449865 -1.17826 0.290175 -0.0188032 -1.16806 0.437561 -0.00737821 -1.18619 
0.221581 -0.0280392 -1.19479 0.196813 -0.004939 -1.18702 0.207124 -0.0104387 -1.18366 
0.436696 -0.0230782 -1.17838 0.379616 -0.0208742 -1.17261 0.396467 -0.0138142 -0.673088 
0.251817 -0.0072503 -1.16669 0.439384 -0.0144095 -1.19498 0.388794 -0.0342314 -1.19365 
0.390399 -0.0136413 -0.920962 0.385233 -0.0234615 -1.19502 0.420867 -0.00537363 -1.1947 
0.185102 -0.00800539 -1.16318 0.203053 -0.0156039 -1.14481 0.336015 -0.0445137 -1.18791 
0.485484 -0.0233826 -1.1275 0.383288 -0.0432811 -1.19179 0.347667 -0.00798062 -1.19291 
0.325601 -0.0255258 -1.16773 0.230456 -0.00969713 -1.18666 0.21142 -0.0209033 -1.19478 
0.447117 -0.0449635 -1.18006 0.432941 -0.0351181 -1.19497 0.263793 -0.0205842 -1.15434 
0.215067 -0.00503043 -0.245002 0.278847 -0.0172246 -1.17679 0.368065 -0.0100059 -1.00999 
0.453969 -0.0151489 -1.17077 0.314818 -0.0421008 -1.18653 0.321763 -0.0128474 -1.16889 
0.338163 -0.021653 -1.18615 0.194953 -0.0268225 -1.18301 0.398991 -0.00551466 -1.19305 
0.414205 -0.0131741 -1.19018 0.353799 -0.0170337 -1.16674 0.258522 -0.0437107 -0.289365 
0.443616 -0.0256823 -1.18554 0.241883 -0.0255273 -1.19207 0.423959 -0.0414183 -1.19495 
0.309776 -0.00609529 -1.18844 0.395074 -0.0432111 -1.18108 0.468498 -0.0114857 -1.16877 
0.444141 -0.0159811 -1.16527 0.277552 -0.0244112 -1.16227 0.393479 -0.0267417 -1.18513 
0.410405 -0.0367019 -1.19185 0.397824 -0.0354152 -1.18816 0.383488 -0.0350285 -1.18188 
0.431518 -0.00643012 -1.17602 0.3878 -0.00436886 -1.15745 0.368383 -0.0357852 -1.19383 
0.34386 -0.0185228 -1.19446 0.307868 -0.0141047 -1.18122 0.428083 -0.0448647 -1.18385 
0.229009 -0.0343995 -1.14824 0.45121 -0.00591789 -1.1744 0.378434 -0.0445917 -1.18345 
0.403005 -0.0211054 -1.18649 0.361132 -0.0116112 -1.13667 0.320059 -0.0344228 -1.18143 
0.373413 -0.0349963 -1.18353 0.343496 -0.0051259 -1.17934 0.418426 -0.0413755 -1.17985 
0.25392 -0.0199277 -1.18612 0.315371 -0.00770584 -1.17605 0.407283 -0.0432194 -1.18265 
0.307944 -0.0396205 -1.1519 0.267998 -0.00698181 -0.301972 0.374826 -0.0411361 -1.17449 
0.434808 -0.0188227 -1.16914 0.354051 -0.0335956 -1.19369 0.363878 -0.030934 -1.16049 
0.346156 -0.0434287 -1.18704 0.454432 -0.0169223 -1.18146 0.409666 -0.00533304 -1.19421 
0.325147 -0.0152451 -1.19515 0.482696 -0.02957 -1.15053 0.344071 -0.0149106 -1.18102 
0.205409 -0.0345375 -0.245002 0.457023 -0.0262083 -1.1531 0.422088 -0.0188957 -1.1875 
0.458418 -0.0108488 -1.14918 0.439617 -0.0209313 -1.15644 0.273692 -0.0416031 -1.17324 
0.45371 -0.0341174 -1.1685 0.228212 -0.00778979 -1.13939 0.282473 -0.0246834 -1.18853 
0.398024 -0.0376672 -0.782769 0.275579 -0.0302479 -1.14589 0.328663 -0.0163526 -0.778483 
0.354017 -0.0109982 -1.18598 0.382322 -0.00909847 -1.18061 0.445058 -0.0257618 -1.14988 
0.406118 -0.0291925 -1.18131 0.470576 -0.0330696 -1.14627 0.340273 -0.0302097 -1.19276 
0.428659 -0.0437102 -1.17206 0.339105 -0.0414504 -0.432442 0.389561 -0.0348421 -1.02743 
0.281227 -0.0345588 -1.18148 0.413793 -0.0228037 -1.17999 0.440734 -0.00937133 -1.15624 
0.337879 -0.0113723 -1.1902 0.420487 -0.0407157 -1.15925 0.487664 -0.0388507 -1.1526 
0.307943 -0.0300589 -1.17327 0.423167 -0.0357551 -1.17314 0.34301 -0.0319058 -0.548946 
0.368388 -0.0436388 -1.18161 0.427562 -0.0421634 -1.15176 0.402888 -0.0129221 -1.17863 
0.426577 -0.0187792 -1.17488 0.48866 -0.00507291 -1.13123 0.367556 -0.027201 -1.18212 
0.354557 -0.0402859 -1.1786 0.270812 -0.0403466 -0.310748 0.254008 -0.00631009 -0.274987 
0.439984 -0.012633 -1.17598 0.383458 -0.0340199 -1.0072 0.352854 -0.0270298 -1.17214 
0.437813 -0.0436271 -1.16587 0.42452 -0.0267256 -1.18138 0.408918 -0.00500908 -1.18437 
0.383111 -0.0219654 -1.18214 0.312375 -0.00989206 -0.38275 0.326382 -0.0284279 -1.19378 
0.394941 -0.00615063 -1.18342 0.366626 -0.0244348 -1.19135 0.350321 -0.0278462 -1.18452 
0.467829 -0.0123261 -1.15865 0.417679 -0.0135919 -1.17955 0.362193 -0.00926821 -0.790668 
0.347159 -0.0371823 -1.16735 0.396042 -0.0278013 -0.713049 0.421067 -0.00494643 -1.1733 
0.363569 -0.0129366 -1.17515 0.410106 -0.0176507 -0.93203 0.413634 -0.0388746 -1.13703 
0.401223 -0.0309991 -0.702115 0.422663 -0.0072817 -1.16345 0.386435 -0.0397426 -1.15755 
0.243062 -0.0444875 -1.03611 0.344279 -0.0292452 -1.11799 0.216496 -0.0301125 -0.242464 
0.348883 -0.0245554 -0.647342 0.354372 -0.0199369 -0.764873 0.459542 -0.0157393 -0.977202 
0.246138 -0.0288854 -1.13654 0.431138 -0.0170562 -1.08801 0.226935 -0.0101166 -0.24498 
0.348021 -0.0199226 -1.07726 0.351109 -0.00699101 -0.504973 0.402963 -0.0441918 -1.17342 
0.396249 -0.0343117 -1.17737 0.409577 -0.0113073 -1.17058 0.332397 -0.0342486 -1.18665 
0.406025 -0.00568709 -1.08856 0.246497 -0.0287378 -0.267155 0.363714 -0.0364604 -0.735409 
0.386489 -0.0398516 -0.586771 0.289604 -0.0300992 -1.08769 0.364191 -0.0291687 -0.714404 
0.348498 -0.0231307 -0.658534 0.397483 -0.0125754 -1.07644 0.29863 -0.0350442 -0.933213 
0.313808 -0.0199328 -1.17443 0.294528 -0.0183585 -0.90596 0.394114 -0.012792 -0.634365 
0.407251 -0.0365946 -0.948974 0.337622 -0.0105377 -0.444408 0.330843 -0.0360958 -1.08431 
0.370506 -0.022311 -0.533406 0.318029 -0.0216699 -0.851461 0.289203 -0.0440967 -0.337461 
0.303453 -0.0439183 -1.17666 0.424649 -0.0202318 -0.992796 0.416092 -0.0299151 -1.16831 
0.396343 -0.014803 -1.16107 0.435161 -0.0325891 -1.16204 
VERTICES 500 1000
1 0 
1 1 
1 2 
1 3 
1 4 
1 5 
1 6 
1 7 
1 8 
1 9 
1 10 
1 11 
1 12 
1 13 
1 14 
1 15 
1 16 
1 17 
1 18 
1 19 
1 20 
1 21 
1 22 
1 23 
1 24 
1 25 
1 26 
1 27 
1 28 
1 29 
1 30 
1 31 
1 32 
1 33 
1 34 
1 35 
1 36 
1 37 
1 38 
1 39 
1 40 
1 41 
1 42 
1 43 
1 44 
1 45 
1 46 
1 47 
1 48 
1 49 
1 50 
1 51 
1 52 
1 53 
1 54 
1 55 
1 56 
1 57 
1 58 
1 59 
1 60 
1 61 
1 62 
1 63 
1 64 
1 65 
1 66 
1 67 
1 68 
1 69 
1 70 
1 71 
1 72 
1 73 
1 74 
1 75 
1 76 
1 77 
1 78 
1 79 
1 80 
1 81 
1 82 
1 83 
1 84 
1 85 
1 86 
1 87 
1 88 
1 89 
1 90 
1 91 
1 92 
1 93 
1 94 
1 95 
1 96 
1 97 
1 98 
1 99 
1 100 
1 101 
1 102 
1 103 
1 104 
1 105 
1 106 
1 107 
1 108 
1 109 
1 110 
1 111 
1 112 
1 113 
1 114 
1 115 
1 116 
1 117 
1 118 
1 119 
1 120 
1 121 
1 122 
1 123 
1 124 
1 125 
1 126 
1 127 
1 128 
1 129 
1 130 
1 131 
1 132 
1 133 
1 134 
1 135 
1 136 
1 137 
1 138 
1 139 
1 140 
1 141 
1 142 
1 143 
1 144 
1 145 
1 146 
1 147 
1 148 
1 149 
1 150 
1 151 
1 152 
1 153 
1 154 
1 155 
1 156 
1 157 
1 158 
1 159 
1 160 
1 161 
1 162 
1 163 
1 164 
1 165 
1 166 
1 167 
1 168 
1 169 
1 170 
1 171 
1 172 
1 173 
1 174 
1 175 
1 176 
1 177 
1 178 
1 179 
1 180 
1 181 
1 182 
1 183 
1 184 
1 185 
1 186 
1 187 
1 188 
1 189 
1 190 
1 191 
1 192 
1 193 
1 194 
1 195 
1 196 
1 197 
1 198 
1 199 
1 200 
1 201 
1 202 
1 203 
1 204 
1 205 
1 206 
1 207 
1 208 
1 209 
1 210 
1 211 
1 212 
1 213 
1 214 
1 215 
1 216 
1 217 
1 218 
1 219 
1 220 
1 221 
1 222 
1 223 
1 224 
1 225 
1 226 
1 227 
1 228 
1 229 
1 230 
1 231 
1 232 
1 233 
1 234 
1 235 
1 236 
1 237 
1 238 
1 239 
1 240 
1 241 
1 242 
1 243 
1 244 
1 245 
1 246 
1 247 
1 248 
1 249 
1 250 
1 251 
1 252 
1 253 
1 254 
1 255 
1 256 
1 257 
1 258 
1 259 
1 260 
1 261 
1 262 
1 263 
1 264 
1 265 
1 266 
1 267 
1 268 
1 269 
1 270 
1 271 
1 272 
1 273 
1 274 
1 275 
1 276 
1 277 
1 278 
1 279 
1 280 
1 281 
1 282 
1 283 
1 284 
1 285 
1 286 
1 287 
1 288 
1 289 
1 290 
1 291 
1 292 
1 293 
1 294 
1 295 
1 296 
1 297 
1 298 
1 299 
1 300 
1 301 
1 302 
1 303 
1 304 
1 305 
1 306 
1 307 
1 308 
1 309 
1 310 
1 311 
1 312 
1 313 
1 314 
1 315 
1 316 
1 317 
1 318 
1 319 
1 320 
1 321 
1 322 
1 323 
1 324 
1 325 
1 326 
1 327 
1 328 
1 329 
1 330 
1 331 
1 332 
1 333 
1 334 
1 335 
1 336 
1 337 
1 338 
1 339 
1 340 
1 341 
1 342 
1 343 
1 344 
1 345 
1 346 
1 347 
1 348 
1 349 
1 350 
1 351 
1 352 
1 353 
1 354 
1 355 
1 356 
1 357 
1 358 
1 359 
1 360 
1 361 
1 362 
1 363 
1 364 
1 365 
1 366 
1 367 
1 368 
1 369 
1 370 
1 371 
1 372 
1 373 
1 374 
1 375 
1 376 
1 377 
1 378 
1 379 
1 380 
1 381 
1 382 
1 383 
1 384 
1 385 
1 386 
1 387 
1 388 
1 389 
1 390 
1 391 
1 392 
1 393 
1 394 
1 395 
1 396 
1 397 
1 398 
1 399 
1 400 
1 401 
1 402 
1 403 
1 404 
1 405 
1 406 
1 407 
1 408 
1 409 
1 410 
1 411 
1 412 
1 413 
1 414 
1 415 
1 416 
1 417 
1 418 
1 419 
1 420 
1 421 
1 422 
1 423 
1 424 
1 425 
1 426 
1 427 
1 428 
1 429 
1 430 
1 431 
1 432 
1 433 
1 434 
1 435 
1 436 
1 437 
1 438 
1 439 
1 440 
1 441 
1 442 
1 443 
1 444 
1 445 
1 446 
1 447 
1 448 
1 449 
1 450 
1 451 
1 452 
1 453 
1 454 
1 455 
1 456 
1 457 
1 458 
1 459 
1 460 
1 461 
1 462 
1 463 
1 464 
1 465 
1 466 
1 467 
1 468 
1 469 
1 470 
1 471 
1 472 
1 473 
1 474 
1 475 
1 476 
1 477 
1 478 
1 479 
1 480 
1 481 
1 482 
1 483 
1 484 
1 485 
1 486 
1 487 
1 488 
1 489 
1 490 
1 491 
1 492 
1 493 
1 494 
1 495 
1 496 
1 497 
1 498 
1 499 

POINT_DATA 500
FIELD FieldData 7
id 1 500 int
1 2 3 4 5 6 7 8 9 
10 11 12 13 14 15 16 17 18 
19 20 21 22 23 24 25 26 27 
28 29 30 31 32 33 34 35 36 
37 38 39 40 41 42 43 44 45 
46 47 48 49 50 51 52 53 54 
55 56 57 58 59 60 61 62 63 
64 65 66 67 68 69 70 71 72 
73 74 75 76 77 78 79 80 81 
82 83 84 85 86 87 88 89 90 
91 92 93 94 95 96 97 98 99 
100 101 102 103 104 105 106 107 108 
109 110 111 112 113 114 115 116 117 
118 119 120 121 122 123 124 125 126 
127 128 129 130 131 132 133 134 135 
136 137 138 139 140 141 142 143 144 
145 146 147 148 149 150 151 152 153 
154 155 156 157 158 159 160 161 162 
163 164 165 166 167 168 169 170 171 
172 173 174 175 176 177 178 179 180 
181 182 183 184 185 186 187 188 189 
190 191 192 193 194 195 196 197 198 
199 200 201 202 203 204 205 206 207 
208 209 210 211 212 213 214 215 216 
217 218 219 220 221 222 223 224 225 
226 227 228 229 230 231 232 233 234 
235 236 237 238 239 240 241 242 243 
244 245 246 247 248 249 250 251 252 
253 254 255 256 257 258 259 260 261 
262 263 264 265 266 267 268 269 270 
271 272 273 274 275 276 277 278 279 
280 281 282 283 284 285 286 287 288 
289 290 291 292 293 294 295 296 297 
298 299 300 301 302 303 304 305 306 
307 308 309 310 311 312 313 314 315 
316 317 318 319 320 321 322 323 324 
325 326 327 328 329 330 331 332 333 
334 335 336 337 338 339 340 341 342 
343 344 345 346 347 348 349 350 351 
352 353 354 355 356 357 358 359 360 
361 362 363 364 365 366 367 368 369 
370 371 372 373 374 375 376 377 378 
379 380 381 382 383 384 385 386 387 
388 389 390 391 392 393 394 395 396 
397 398 399 400 401 402 403 404 405 
406 407 408 409 410 411 412 413 414 
415 416 417 418 419 420 421 422 423 
424 425 426 427 428 429 430 431 432 
433 434 435 436 437 438 439 440 441 
442 443 444 445 446 447 448 449 450 
451 452 453 454 455 456 457 458 459 
460 461 462 463 464 465 466 467 468 
469 470 471 472 473 474 475 476 477 
478 479 480 481 482 483 484 485 486 
487 488 489 490 491 492 493 494 495 
496 497 498 499 500 
type 1 500 int
1 1 1 1 1 1 1 1 1 
1 1 1 1 1 1 1 1 1 
1 1 1 1 1 1 1 1 1 
1 1 1 1 1 1 1 1 1 
1 1 1 1 1 1 1 1 1 
1 1 1 1 1 1 1 1 1 
1 1 1 1 1 1 1 1 1 
1 1 1 1 1 1 1 1 1 
1 1 1 1 1 1 1 1 1 
1 1 1 1 1 1 1 1 1 
1 1 1 1 1 1 1 1 1 
1 1 1 1 1 1 1 1 1 
1 1 1 1 1 1 1 1 1 
1 1 1 1 1 1 1 1 1 
1 1 1 1 1 1 1 1 1 
1 1 1 1 1 1 1 1 1 
1 1 1 1 1 1 1 1 1 
1 1 1 1 1 1 1 1 1 
1 1 1 1 1 1 1 1 1 
1 1 1 1 1 1 1 1 1 
1 1 1 1 1 1 1 1 1 
1 1 1 1 1 1 1 1 1 
1 1 1 1 1 1 1 1 1 
1 1 1 1 1 1 1 1 1 
1 1 1 1 1 1 1 1 1 
1 1 1 1 1 1 1 1 1 
1 1 1 1 1 1 1 1 1 
1 1 1 1 1 1 1 1 1 
1 1 1 1 1 1 1 1 1 
1 1 1 1 1 1 1 1 1 
1 1 1 1 1 1 1 1 1 
1 1 1 1 1 1 1 1 1 
1 1 1 1 1 1 1 1 1 
1 1 1 1 1 1 1 1 1 
1 1 1 1 1 1 1 1 1 
1 1 1 1 1 1 1 1 1 
1 1 1 1 1 1 1 1 1 
1 1 1 1 1 1 1 1 1 
1 1 1 1 1 1 1 1 1 
1 1 1 1 1 1 1 1 1 
1 1 1 1 1 1 1 1 1 
1 1 1 1 1 1 1 1 1 
1 1 1 1 1 1 1 1 1 
1 1 1 1 1 1 1 1 1 
1 1 1 1 1 1 1 1 1 
1 1 1 1 1 1 1 1 1 
1 1 1 1 1 1 1 1 1 
1 1 1 1 1 1 1 1 1 
1 1 1 1 1 1 1 1 1 
1 1 1 1 1 1 1 1 1 
1 1 1 1 1 1 1 1 1 
1 1 1 1 1 1 1 1 1 
1 1 1 1 1 1 1 1 1 
1 1 1 1 1 1 1 1 1 
1 1 1 1 1 1 1 1 1 
1 1 1 1 1 
i 3 500 int
0 0 0 0 0 0 0 0 0 
0 0 0 0 0 0 0 0 0 
0 0 0 0 0 0 0 0 0 
0 0 0 0 0 0 0 0 0 
0 0 0 0 0 0 0 0 0 
0 0 0 0 0 0 0 0 0 
0 0 0 0 0 0 0 0 0 
0 0 0 0 0 0 0 0 0 
0 0 0 0 0 0 0 0 0 
0 0 0 0 0 0 0 0 0 
0 0 0 0 0 0 0 0 0 
0 0 0 0 0 0 0 0 0 
0 0 0 0 0 0 0 0 0 
0 0 0 0 0 0 0 0 0 
0 0 0 0 0 0 0 0 0 
0 0 0 0 0 0 0 0 0 
0 0 0 0 0 0 0 0 0 
0 0 0 0 0 0 0 0 0 
0 0 0 0 0 0 0 0 0 
0 0 0 0 0 0 0 0 0 
0 0 0 0 0 0 0 0 0 
0 0 0 0 0 0 0 0 0 
0 0 0 0 0 0 0 0 0 
0 0 0 0 0 0 0 0 0 
0 0 0 0 0 0 0 0 0 
0 0 0 0 0 0 0 0 0 
0 0 0 0 0 0 0 0 0 
0 0 0 0 0 0 0 0 0 
0 0 0 0 0 0 0 0 0 
0 0 0 0 0 0 0 0 0 
0 0 0 0 0 0 0 0 0 
0 0 0 0 0 0 0 0 0 
0 0 0 0 0 0 0 0 0 
0 0 0 0 0 0 0 0 0 
0 0 0 0 0 0 0 0 0 
0 0 0 0 0 0 0 0 0 
0 0 0 0 0 0 0 0 0 
0 0 0 0 0 0 0 0 0 
0 0 0 0 0 0 0 0 0 
0 0 0 0 0 0 0 0 0 
0 0 0 0 0 0 0 0 0 
0 0 0 0 0 0 0 0 0 
0 0 0 0 0 0 0 0 0 
0 0 0 0 0 0 0 0 0 
0 0 0 0 0 0 0 0 0 
0 0 0 0 0 0 0 0 0 
0 0 0 0 0 0 0 0 0 
0 0 0 0 0 0 0 0 0 
0 0 0 0 0 0 0 0 0 
0 0 0 0 0 0 0 0 0 
0 0 0 0 0 0 0 0 0 
0 0 0 0 0 0 0 0 0 
0 0 0 0 0 0 0 0 0 
0 0 0 0 0 0 0 0 0 
0 0 0 0 0 0 0 0 0 
0 0 0 0 0 0 0 0 0 
0 0 0 0 0 0 0 0 0 
0 0 0 0 0 0 0 0 0 
0 0 0 0 0 0 0 0 0 
0 0 0 0 0 0 0 0 0 
0 0 0 0 0 0 0 0 0 
0 0 0 0 0 0 0 0 0 
0 0 0 0 0 0 0 0 0 
0 0 0 0 0 0 0 0 0 
0 0 0 0 0 0 0 0 0 
0 0 0 0 0 0 0 0 0 
0 0 0 0 0 0 0 0 0 
0 0 0 0 0 0 0 0 0 
0 0 0 0 0 0 0 0 0 
0 0 0 0 0 0 0 0 0 
0 0 0 0 0 0 0 0 0 
0 0 0 0 0 0 0 0 0 
0 0 0 0 0 0 0 0 0 
0 0 0 0 0 0 0 0 0 
0 0 0 0 0 0 0 0 0 
0 0 0 0 0 0 0 0 0 
0 0 0 0 0 0 0 0 0 
0 0 0 0 0 0 0 0 0 
0 0 0 0 0 0 0 0 0 
0 0 0 0 0 0 0 0 0 
0 0 0 0 0 0 0 0 0 
0 0 0 0 0 0 0 0 0 
0 0 0 0 0 0 0 0 0 
0 0 0 0 0 0 0 0 0 
0 0 0 0 0 0 0 0 0 
0 0 0 0 0 0 0 0 0 
0 0 0 0 0 0 0 0 0 
0 0 0 0 0 0 0 0 0 
0 0 0 0 0 0 0 0 0 
0 0 0 0 0 0 0 0 0 
0 0 0 0 0 0 0 0 0 
0 0 0 0 0 0 0 0 0 
0 0 0 0 0 0 0 0 0 
0 0 0 0 0 0 0 0 0 
0 0 0 0 0 0 0 0 0 
0 0 0 0 0 0 0 0 0 
0 0 0 0 0 0 0 0 0 
0 0 0 0 0 0 0 0 0 
0 0 0 0 0 0 0 0 0 
0 0 0 0 0 0 0 0 0 
0 0 0 0 0 0 0 0 0 
0 0 0 0 0 0 0 0 0 
0 0 0 0 0 0 0 0 0 
0 0 0 0 0 0 0 0 0 
0 0 0 0 0 0 0 0 0 
0 0 0 0 0 0 0 0 0 
0 0 0 0 0 0 0 0 0 
0 0 0 0 0 0 0 0 0 
0 0 0 0 0 0 0 0 0 
0 0 0 0 0 0 0 0 0 
0 0 0 0 0 0 0 0 0 
0 0 0 0 0 0 0 0 0 
0 0 0 0 0 0 0 0 0 
0 0 0 0 0 0 0 0 0 
0 0 0 0 0 0 0 0 0 
0 0 0 0 0 0 0 0 0 
0 0 0 0 0 0 0 0 0 
0 0 0 0 0 0 0 0 0 
0 0 0 0 0 0 0 0 0 
0 0 0 0 0 0 0 0 0 
0 0 0 0 0 0 0 0 0 
0 0 0 0 0 0 0 0 0 
0 0 0 0 0 0 0 0 0 
0 0 0 0 0 0 0 0 0 
0 0 0 0 0 0 0 0 0 
0 0 0 0 0 0 0 0 0 
0 0 0 0 0 0 0 0 0 
0 0 0 0 0 0 0 0 0 
0 0 0 0 0 0 0 0 0 
0 0 0 0 0 0 0 0 0 
0 0 0 0 0 0 0 0 0 
0 0 0 0 0 0 0 0 0 
0 0 0 0 0 0 0 0 0 
0 0 0 0 0 0 0 0 0 
0 0 0 0 0 0 0 0 0 
0 0 0 0 0 0 0 0 0 
0 0 0 0 0 0 0 0 0 
0 0 0 0 0 0 0 0 0 
0 0 0 0 0 0 0 0 0 
0 0 0 0 0 0 0 0 0 
0 0 0 0 0 0 0 0 0 
0 0 0 0 0 0 0 0 0 
0 0 0 0 0 0 0 0 0 
0 0 0 0 0 0 0 0 0 
0 0 0 0 0 0 0 0 0 
0 0 0 0 0 0 0 0 0 
0 0 0 0 0 0 0 0 0 
0 0 0 0 0 0 0 0 0 
0 0 0 0 0 0 0 0 0 
0 0 0 0 0 0 0 0 0 
0 0 0 0 0 0 0 0 0 
0 0 0 0 0 0 0 0 0 
0 0 0 0 0 0 0 0 0 
0 0 0 0 0 0 0 0 0 
0 0 0 0 0 0 0 0 0 
0 0 0 0 0 0 0 0 0 
0 0 0 0 0 0 0 0 0 
0 0 0 0 0 0 0 0 0 
0 0 0 0 0 0 0 0 0 
0 0 0 0 0 0 0 0 0 
0 0 0 0 0 0 0 0 0 
0 0 0 0 0 0 0 0 0 
0 0 0 0 0 0 0 0 0 
0 0 0 0 0 0 0 0 0 
0 0 0 0 0 0 0 0 0 
0 0 0 0 0 0 0 0 0 
0 0 0 0 0 0 
v 3 500 double
-0.0400726 0.0912711 -0.181531 -0.0757214 0.149248 0.0634219 0.0732263 0.36353 0.00732032 
-1.25965 0.258366 0.0167897 -0.258342 -0.0600496 -1.51565 -0.970202 -0.0764758 0.303609 
0.674663 0.177496 -1.6252 -0.355462 0.031393 -1.70239 -0.187731 0.0172905 -1.8535 
0.115313 0.014633 0.0352877 -0.202847 -0.0570282 -1.77306 -0.0830737 0.0931029 -0.000975824 
-0.751964 -0.0968815 -0.58368 0.0743389 0.358569 -0.0406666 -0.341783 0.060187 -1.76003 
-0.0602695 -0.224005 0.0181129 -1.87048 0.324243 0.0167267 -0.0151711 0.0218689 0.00795224 
-0.578257 0.037951 -0.220073 -0.0180889 0.149044 0.0502183 -0.882044 0.32697 0.785781 
-1.07031 0.266178 -0.0143745 -0.0160291 0.037204 0.0824654 0.0421901 -0.301516 -0.667927 
0.0629484 0.0302345 -3.05156 0.0819886 0.146943 0.170747 -0.0179461 0.0413739 0.0249509 
0.0886896 -0.0478997 0.00615644 -0.521379 0.0723087 -0.0323708 -1.14448 -0.131245 -0.389655 
-1.51265 -0.145856 0.0749779 0.0195537 0.0269878 0.000539616 -0.0911164 0.499638 0.417035 
0.0319671 -0.143262 -0.0797207 0.0286781 -0.119151 -2.32252 -1.58308 0.135423 -0.241622 
-0.0258653 -0.0323543 0.00812624 0.0807334 0.0591922 0.0317949 -1.27583 0.045484 0.0827675 
0.0367959 -0.0100385 -0.038648 -0.00164804 -0.0374652 -7.61725e-11 -0.540277 0.42814 -2.62918 
-0.473486 0.116318 -1.00494 -0.0151928 0.258274 0.100074 -0.211853 -0.0811797 -1.26499 
-0.0139555 0.0106875 -0.00602476 -0.837951 -0.168482 -1.60594 0.355719 0.394988 0.000534845 
-0.0219857 -0.00223112 0.00600893 -0.0615689 0.0297478 0.092761 0.0730521 -0.0512517 0.0027332 
-0.00879825 0.00655125 0.00234351 -1.16701 -0.0731988 0.216074 0.153107 -0.0218781 0.534763 
-0.618595 -0.155356 -0.523246 -0.632271 -0.264627 0.0163776 -1.09696 0.11159 -0.0820113 
-0.296479 0.0707144 -1.34729 -0.678784 0.0994551 -1.77089 0.425194 0.248696 0.270764 
-1.03095 -0.733162 0.00619115 0.0562476 -0.0389688 -0.0356086 0.434031 -0.101294 0.169262 
-0.716536 0.160534 -0.283484 -0.43644 0.238882 -0.514592 -0.0811735 0.0424491 -0.0149914 
0.0886906 0.330434 0.139067 -0.0145554 0.0517982 0.0074963 -0.0697503 0.00547757 -0.142416 
-0.200237 0.197739 -0.250817 0.0408308 0.0202525 6.67994e-05 0.00584896 -0.00646345 0.0472529 
-1.51601 0.617586 -0.33119 -0.594604 -0.0402853 -0.0143124 -0.670135 -0.221157 -0.533824 
-0.642887 -0.0425934 0.172181 -1.11686 -0.276889 -1.19747 -0.154856 0.134728 0.152711 
-0.0382728 0.139681 0.0662768 -0.0827633 0.0872681 0.0375686 0.0128642 0.76067 -0.506778 
-1.00149 0.607167 0.154333 -0.151059 -0.0697976 -0.078204 0.238796 0.0727558 -0.580726 
0.105752 -0.018978 -0.00721248 -0.490113 -0.777878 -0.247816 -0.850118 0.126353 -0.164286 
-0.149354 -0.00172459 -0.259729 -0.0422899 0.056899 0.0662167 -0.913103 -0.111089 -0.0460555 
-1.0173 -0.161444 0.00346319 0.262836 0.204915 0.207869 0.256833 0.0241091 0.0685851 
-0.383429 -0.0671027 0.0822665 -0.517251 0.222995 -0.0104246 -0.673301 0.0472635 0.0403562 
-0.864122 -0.611269 0.266975 -1.2898 -0.238912 0.0713633 -0.065154 -0.131441 -3.13379 
-1.00077 -0.0208412 0.331583 -0.637141 -0.00661347 -0.224243 0.00513094 -0.0152302 -0.000346288 
-0.916621 -0.298907 -0.0684152 -0.229686 0.0807725 -0.0063964 -0.0927317 0.126196 0.0649943 
-0.522123 -0.529868 -1.82069 0.813569 -0.0115286 0.218039 0.670346 -0.114808 -0.820371 
-0.691029 0.323362 -0.542389 -1.28062 -0.295439 -0.097052 -0.72592 0.444842 -0.151817 
-1.28378 0.270823 0.262162 -0.0163986 -0.00379023 0.00100924 -0.0498876 -0.0172305 -0.0756685 
-0.39421 -0.147296 -1.16933 -1.04363 0.309014 -0.863325 0.638893 -0.0682923 -1.10657 
-0.0403138 0.206789 0.0174542 -0.0072047 0.00956812 0.0391463 -1.68682 -0.0515876 0.170137 
-0.364436 0.176756 -0.25591 -0.0852842 0.0583199 0.0811952 -0.00923317 0.0307796 -0.0232221 
-0.104421 0.00476594 0.0492836 0.0200863 0.017442 -0.0261216 -1.30208 0.276727 0.0799904 
0.00081673 -0.0270963 -1.45426e-11 -0.0507173 0.095878 -0.0549426 -0.0205842 0.014055 0.0984871 
-0.692337 0.271179 0.203977 -1.47041 0.127085 -0.278311 -0.00726608 0.032934 0.000503248 
-0.878187 0.0992507 0.124924 -0.131499 0.281292 -1.53038 -0.97 -0.0677841 0.344765 
-0.137894 0.0580068 -0.00597817 -0.567041 0.260703 -1.34204 -1.84252 -0.391397 0.343691 
-0.123336 0.0363216 0.0206143 -0.534097 -0.0491986 -0.494706 -0.0865933 -0.0076959 0.0990709 
0.122509 0.0994464 -0.051643 -0.0920465 0.0197831 -0.0145488 -0.0254374 0.142656 0.0654232 
0.00283961 -0.00474399 0.0512172 0.0404685 -0.00520001 -0.0596335 -0.47828 -0.236227 -0.0803742 
-1.5286 0.292905 -0.0493136 0.0957924 0.0827729 0.0050496 -0.587775 -0.0887275 -0.115671 
-0.619259 0.182675 0.361215 -0.0140133 0.0585497 0.00251407 -0.792945 -0.249636 0.126951 
-0.0529573 0.0198728 -0.0281664 0.0424551 -0.0946641 -2.48663 0.0065239 -0.0609481 0.0048223 
-1.20032 -0.152842 0.204232 -0.0405757 -0.00999233 -0.0260567 -0.407298 0.257007 -0.0127009 
-0.00950311 0.0189051 -0.00260825 0.555616 -0.58275 0.0311711 -0.488455 -0.10987 0.102028 
-1.25453 0.233039 0.468199 -1.37923 -0.137386 0.0878205 0.0664499 0.0976953 -0.411584 
0.0237493 -0.0962014 -0.107221 -0.819238 0.0352872 0.947306 -0.00283452 0.306059 0.124946 
-0.04794 0.242952 -0.362186 -0.144589 1.06355 -1.22825 0.148161 -0.0119523 0.249734 
-1.19172 -0.0829689 -0.276925 -0.0321874 0.0972116 0.135718 -0.0109935 0.100063 0.0519314 
1.55286 0.00825568 -1.12554 -0.538355 0.551993 0.284561 -0.838364 -0.109639 -0.0453349 
-0.00607087 0.0414813 0.153972 -1.39689 -0.532485 -0.870277 -0.829997 -0.235548 -0.353655 