# vtk DataFile Version 4.0
Generated by LIGGGHTS
ASCII
DATASET POLYDATA
POINTS 500 float
0.441487 -0.0449715 -1.17829 0.443887 -0.0387729 -1.17086 0.00498962 -0.0249865 -1.195 
0.0302127 -0.0207956 -1.17334 0.00822672 -0.0244164 -1.16389 0.0321702 -0.00509562 -1.17009 
0.034365 -0.0370285 -1.18217 0.0130257 -0.0411962 -1.12669 0.0694768 -0.0169856 -1.177 
0.474981 -0.0165371 -1.17298 0.401266 -0.0411645 -1.16759 0.468408 -0.0134286 -1.195 
0.0241921 -0.0099361 -1.15578 0.401928 -0.00524962 -1.18647 0.0276381 -0.0130054 -1.16494 
0.421601 -0.030457 -1.18831 0.0230427 -0.0449314 -1.17659 0.494631 -0.0449769 -1.1777 
0.0321277 -0.0355528 -1.195 0.485176 -0.0151665 -1.18427 0.00501268 -0.0173428 -1.17016 
0.258864 -0.0231566 -1.1929 0.494452 -0.0449154 -1.195 0.0474413 -0.0052041 -1.18505 
0.310972 -0.019853 -1.15351 0.418123 -0.0422778 -1.17985 0.488918 -0.0287593 -1.18697 
0.468602 -0.0449783 -1.19499 0.407787 -0.0164266 -1.16925 0.0849455 -0.0187047 -1.18702 
0.0319939 -0.0191256 -1.18662 0.457621 -0.0446352 -1.18118 0.439182 -0.0111681 -1.1773 
0.466266 -0.0224378 -1.18692 0.330642 -0.0170466 -1.19416 0.0254983 -0.030624 -1.1864 
0.428925 -0.00499422 -1.19501 0.015174 -0.0450042 -1.195 0.0297233 -0.0409723 -1.16785 
0.494936 -0.00908555 -1.18433 0.215323 -0.0278206 -0.245002 0.149306 -0.0272097 -1.195 
0.0613691 -0.00622774 -1.16195 0.437574 -0.0357596 -1.17831 0.127484 -0.0405612 -1.19413 
0.475231 -0.0373112 -1.19501 0.00543944 -0.0370372 -1.17886 0.00502233 -0.0200025 -1.18634 
0.488136 -0.0450013 -1.18552 0.450068 -0.0234958 -1.18233 0.417483 -0.00501376 -1.195 
0.484464 -0.0448934 -1.195 0.0197315 -0.00501214 -1.18619 0.0484261 -0.0433337 -1.1675 
0.00613585 -0.0243673 -1.17741 0.0125988 -0.0378806 -1.17078 0.0807699 -0.0268395 -1.19491 
0.0611703 -0.013377 -1.16982 0.0128674 -0.00545476 -1.17892 0.0293839 -0.0285844 -1.16535 
0.0218155 -0.0356786 -1.19429 0.460232 -0.0351341 -1.195 0.0148662 -0.0157244 -1.16876 
0.0393434 -0.0212978 -1.18022 0.0587688 -0.0433183 -1.16779 0.443878 -0.0142314 -1.19501 
0.456045 -0.0209119 -1.16513 0.477535 -0.0169828 -1.15248 0.447782 -0.0050476 -1.195 
0.00500808 -0.013052 -1.17917 0.491361 -0.03476 -1.19495 0.494926 -0.0196938 -1.18549 
0.0392778 -0.0118379 -1.18704 0.0136325 -0.0199694 -1.195 0.044923 -0.0425041 -1.17728 
0.0495962 -0.0223998 -1.17902 0.0184557 -0.00526044 -1.17027 0.451097 -0.0105297 -1.15808 
0.432909 -0.032347 -1.18647 0.495013 -0.0392392 -1.16933 0.0376512 -0.0348763 -1.16603 
0.0218765 -0.0227761 -1.17937 0.456145 -0.015955 -1.17924 0.00714012 -0.00716346 -1.17089 
0.356031 -0.0409937 -0.475976 0.0505596 -0.034151 -1.17172 0.0181723 -0.0353328 -1.18129 
0.392465 -0.0363251 -1.195 0.452441 -0.0445784 -1.17254 0.00501748 -0.00499793 -1.18506 
0.0413641 -0.0308992 -1.19497 0.422844 -0.00735974 -1.16964 0.0229639 -0.00782725 -1.13015 
0.00500111 -0.030241 -1.1862 0.00511494 -0.0449737 -1.19501 0.012256 -0.0122384 -1.18867 
0.160881 -0.00654054 -1.19435 0.0745927 -0.0170592 -1.18579 0.281032 -0.0315074 -1.16957 
0.0534926 -0.0450058 -1.19501 0.0711629 -0.0243309 -1.19501 0.206659 -0.0449693 -0.245002 
0.0135066 -0.0250723 -1.18463 0.467329 -0.0150986 -1.17981 0.38917 -0.0258115 -1.195 
0.422998 -0.0172812 -1.16851 0.103301 -0.0349354 -1.18054 0.202526 -0.0318072 -1.18834 
0.105162 -0.0432074 -1.195 0.0407418 -0.0315211 -1.17647 0.247488 -0.02107 -1.18126 
0.0526357 -0.0319317 -1.18387 0.494991 -0.00501699 -1.19498 0.423226 -0.0131917 -1.195 
0.0679758 -0.0231781 -1.16706 0.0375863 -0.0216378 -1.19498 0.362058 -0.0435163 -0.916138 
0.454528 -0.00501252 -1.18764 0.467342 -0.0449902 -1.18481 0.0433552 -0.0351538 -1.18614 
0.385911 -0.0116426 -1.17954 0.492209 -0.028774 -1.16761 0.461613 -0.00612654 -1.19487 
0.467664 -0.00536752 -1.18475 0.476475 -0.00596289 -1.19485 0.0312865 -0.00569202 -1.18626 
0.205028 -0.0252523 -0.245002 0.472969 -0.0379291 -1.17975 0.495016 -0.0151563 -1.19497 
0.0127109 -0.044732 -1.1785 0.032503 -0.0127162 -1.17878 0.494444 -0.0252617 -1.19456 
0.0565516 -0.00503188 -1.19501 0.0193918 -0.0446657 -1.18594 0.0448796 -0.014814 -1.19499 
0.432158 -0.0225242 -1.18815 0.0170328 -0.0273554 -1.15924 0.364767 -0.0145574 -1.18505 
0.468781 -0.0065414 -1.17223 0.266583 -0.044231 -1.19477 0.449811 -0.021997 -1.19271 
0.475416 -0.0307786 -1.18745 0.486077 -0.00980129 -1.195 0.43342 -0.0157626 -1.17015 
0.480237 -0.0448499 -1.17946 0.435718 -0.036667 -1.19502 0.0145943 -0.015941 -1.17966 
0.0515632 -0.0222578 -1.19499 0.454022 -0.0131084 -1.19501 0.180948 -0.0342512 -1.18895 
0.0682547 -0.00665896 -1.18514 0.450764 -0.0415776 -1.195 0.00500841 -0.0449833 -1.18501 
0.475956 -0.0153645 -1.18851 0.377873 -0.0287658 -1.1734 0.4604 -0.020761 -1.19493 
0.0286821 -0.0261774 -1.195 0.484423 -0.00607247 -1.17318 0.0150049 -0.00499717 -1.195 
0.482866 -0.0291576 -1.195 0.00499764 -0.0349683 -1.19501 0.267431 -0.015875 -1.19466 
0.0220223 -0.0342512 -1.16979 0.0240125 -0.0137437 -1.18391 0.0297076 -0.0449987 -1.18602 
0.461315 -0.0136915 -1.18792 0.1171 -0.0361105 -1.16867 0.427937 -0.0446508 -1.17328 
0.0365337 -0.00502223 -1.195 0.0463583 -0.0229779 -1.16275 0.401875 -0.0135468 -1.19502 
0.0211574 -0.0134202 -1.19488 0.465576 -0.0427414 -1.17516 0.486613 -0.0370185 -1.17893 
0.237392 -0.0289982 -1.19493 0.056571 -0.0236604 -1.16862 0.0790761 -0.0169041 -1.19499 
0.488414 -0.0224249 -1.17822 0.0149281 -0.0285319 -1.17472 0.0512452 -0.03322 -1.19497 
0.360883 -0.0270403 -1.19436 0.494943 -0.0377024 -1.18609 0.481942 -0.00566809 -1.18517 
0.00498781 -0.0149882 -1.195 0.0641032 -0.0163119 -1.18656 0.153839 -0.00956075 -1.17885 
0.0211296 -0.0234876 -1.16814 0.34168 -0.0235529 -1.19315 0.472533 -0.0307222 -1.17017 
0.31983 -0.0116108 -1.15008 0.0253475 -0.045001 -1.19501 0.414692 -0.0450107 -1.19501 
0.417771 -0.0133105 -1.18625 0.00500048 -0.00499665 -1.19503 0.132922 -0.0389476 -1.17727 
0.0806788 -0.0431533 -1.15562 0.398148 -0.0253782 -1.17525 0.476565 -0.044985 -1.18873 
0.206235 -0.0152761 -0.245002 0.495003 -0.0311369 -1.17793 0.0752976 -0.0446141 -1.16946 
0.0452632 -0.0133987 -1.17917 0.45935 -0.0449981 -1.19119 0.466135 -0.0351631 -1.18691 
0.443215 -0.0364711 -1.1884 0.0763687 -0.00723916 -1.195 0.486163 -0.0197138 -1.19374 
0.483183 -0.0369425 -1.18874 0.00523631 -0.0446721 -1.17009 0.0592401 -0.0354303 -1.17697 
0.225957 -0.00760977 -1.195 0.382179 -0.0334084 -1.195 0.0443838 -0.0405387 -1.19501 
0.0796797 -0.0362342 -1.19174 0.439371 -0.0237972 -1.195 0.328053 -0.0324112 -1.16605 
0.430191 -0.0450005 -1.195 0.40728 -0.0050141 -1.195 0.0231624 -0.0137602 -1.17394 
0.0856257 -0.0447654 -1.185 0.432557 -0.00546535 -1.17205 0.237663 -0.0446763 -0.253277 
0.453925 -0.0370778 -1.18657 0.0892446 -0.0337144 -1.19443 0.063326 -0.00520141 -1.17644 
0.085198 -0.0199089 -1.17693 0.423243 -0.00498677 -1.18676 0.184387 -0.0085268 -1.19502 
0.42346 -0.0376047 -1.19503 0.0343379 -0.0448541 -1.17589 0.0353685 -0.045007 -1.19494 
0.0442308 -0.0118559 -1.16452 0.0136637 -0.0299493 -1.195 0.0265153 -0.00499264 -1.19501 
0.0665926 -0.0049865 -1.19497 0.494183 -0.0103113 -1.17296 0.460077 -0.0345265 -1.17809 
0.0354667 -0.0284634 -1.18723 0.0216748 -0.0218181 -1.18936 0.0740166 -0.0341935 -1.16452 
0.0257683 -0.00498942 -1.17791 0.266714 -0.0434062 -1.18481 0.435739 -0.0450075 -1.18662 
0.0515288 -0.0143679 -1.18744 0.447724 -0.033869 -1.17935 0.0768119 -0.0107199 -1.16554 
0.469575 -0.0274406 -1.19501 0.0118616 -0.0381496 -1.18851 0.0562963 -0.0149849 -1.17859 
0.433868 -0.015373 -1.195 0.359819 -0.00639975 -0.656175 0.0673724 -0.0449546 -1.19436 
0.0863874 -0.0056145 -1.19436 0.438343 -0.00503374 -1.19172 0.43093 -0.0222448 -1.17797 
0.414534 -0.0302056 -1.18126 0.486669 -0.0439058 -1.16639 0.100881 -0.00679668 -1.19483 
0.421014 -0.0229382 -1.195 0.342058 -0.0234256 -0.442403 0.0932795 -0.0134212 -1.19495 
0.13554 -0.0318253 -1.18787 0.0498307 -0.0428088 -1.18595 0.0702466 -0.0344812 -1.19486 
0.031399 -0.0136925 -1.19498 0.441323 -0.0269892 -1.18573 0.364165 -0.0173353 -1.011 
0.414627 -0.0377025 -1.18815 0.43508 -0.0346303 -1.16352 0.2229 -0.0219292 -1.19444 
0.444875 -0.0053555 -1.18411 0.0997761 -0.021541 -1.19497 0.0797799 -0.0285516 -1.18505 
0.371251 -0.0317422 -1.19503 0.441253 -0.0449837 -1.19496 0.339238 -0.0442618 -1.19502 
0.276951 -0.00639295 -1.19494 0.00499437 -0.031408 -1.17041 0.44905 -0.0317173 -1.195 
0.308245 -0.0156195 -1.19455 0.406887 -0.0449996 -1.18869 0.458934 -0.0117383 -1.17042 
0.111235 -0.00554699 -1.1947 0.0561152 -0.0449553 -1.17824 0.256998 -0.0129214 -1.19507 
0.374331 -0.0113844 -1.18729 0.414137 -0.0301784 -1.19501 0.438939 -0.0153881 -1.18636 
0.0450179 -0.0250675 -1.1876 0.428947 -0.0290366 -1.19502 0.0284939 -0.0308717 -1.17677 
0.093823 -0.0448854 -1.19473 0.457076 -0.0278318 -1.18868 0.0400176 -0.0448486 -1.18609 
0.226365 -0.0316173 -1.19477 0.400052 -0.0298075 -1.19503 0.0605042 -0.0371421 -1.19501 
0.236733 -0.00535389 -1.1947 0.476109 -0.0229439 -1.18129 0.0178979 -0.042331 -1.16146 
0.0693293 -0.0145546 -1.19491 0.0928947 -0.0118701 -1.16465 0.406631 -0.0222946 -1.195 
0.425145 -0.0309846 -1.17892 0.0987711 -0.0414066 -1.18673 0.295952 -0.00668466 -1.18695 
0.107662 -0.0153888 -1.19487 0.407083 -0.0301966 -1.18792 0.423075 -0.0215093 -1.18411 
0.398571 -0.0449473 -1.195 0.458317 -0.00526262 -1.17834 0.36431 -0.0209793 -1.03935 
0.376354 -0.00499023 -1.19496 0.448413 -0.00772008 -1.17432 0.0678574 -0.0431723 -1.18124 
0.0899288 -0.0229455 -1.195 0.215469 -0.0441543 -1.19025 0.39705 -0.0212541 -1.19091 
0.447849 -0.045 -1.18598 0.0780128 -0.0384729 -1.1798 0.412223 -0.00499521 -1.18631 
0.0631554 -0.033843 -1.16753 0.0386557 -0.00494333 -1.17945 0.0577778 -0.00665104 -1.18526 
0.403433 -0.0221801 -1.18313 0.224224 -0.0264066 -1.1856 0.440933 -0.0212216 -1.17749 
0.0696264 -0.0257967 -1.18498 0.413284 -0.0149627 -1.19501 0.269627 -0.00760105 -1.17609 
0.274436 -0.0361258 -1.19379 0.255798 -0.0404663 -1.19506 0.396718 -0.00498348 -1.195 
0.0465497 -0.00498025 -1.195 0.0393951 -0.0231423 -1.17014 0.239333 -0.0153418 -1.19467 
0.425635 -0.0354253 -1.16982 0.225541 -0.0384981 -1.1874 0.142102 -0.00850491 -1.19456 
0.175017 -0.0436272 -1.18816 0.0566654 -0.0230075 -1.1864 0.0589016 -0.0150543 -1.195 
0.422232 -0.0450182 -1.18848 0.407105 -0.0372652 -1.19501 0.0871076 -0.0342992 -1.15987 
0.226488 -0.0051498 -0.245002 0.23488 -0.0207956 -1.18696 0.38847 -0.0304454 -1.17158 
0.423618 -0.0134209 -1.17814 0.0816806 -0.0276666 -1.17122 0.263989 -0.0270596 -1.18024 
0.126484 -0.013066 -1.1915 0.0497119 -0.00545477 -1.1751 0.283142 -0.01446 -1.1949 
0.381091 -0.0139508 -1.19501 0.216583 -0.00504386 -1.19281 0.361985 -0.0418996 -0.779551 
0.413631 -0.0222541 -1.18784 0.0622763 -0.0329731 -1.18614 0.368823 -0.0412676 -1.19331 
0.0856503 -0.00625636 -1.17852 0.279618 -0.0350749 -1.18389 0.448932 -0.0141939 -1.1864 
0.412221 -0.0145474 -1.17801 0.088692 -0.0380495 -1.17785 0.268609 -0.0274133 -1.195 
0.339059 -0.0155068 -1.17513 0.302883 -0.0277288 -1.19447 0.322897 -0.00597382 -1.19499 
0.406808 -0.00508845 -1.17775 0.324833 -0.0443205 -1.19378 0.250759 -0.0317432 -1.19462 
0.211668 -0.0349183 -1.19397 0.089993 -0.0302342 -1.18435 0.387559 -0.0450262 -1.195 
0.0600655 -0.0443994 -1.18748 0.43303 -0.00501046 -1.18269 0.268486 -0.0317367 -1.16645 
0.33705 -0.00558507 -1.195 0.191498 -0.00769319 -1.18803 0.112469 -0.0227789 -1.18898 
0.235013 -0.0396571 -1.18454 0.190597 -0.0164555 -1.19442 0.353254 -0.0450456 -1.19434 
0.060942 -0.0257601 -1.19502 0.0930173 -0.00520316 -1.18666 0.263076 -0.00501828 -1.1946 
0.256878 -0.00823179 -1.18482 0.341052 -0.0108163 -0.821994 0.369527 -0.0204398 -1.19385 
0.394667 -0.0167185 -1.18234 0.224588 -0.0449685 -1.19493 0.144643 -0.0423581 -1.17844 
0.150984 -0.0446977 -1.19097 0.428924 -0.0132043 -1.1866 0.386369 -0.00545095 -1.19502 
0.117645 -0.0159868 -1.195 0.456249 -0.025691 -1.17453 0.216742 -0.0322409 -1.1796 
0.207521 -0.0349866 -0.245002 0.393303 -0.0433065 -1.18207 0.391629 -0.0139491 -1.19501 
0.418681 -0.0232819 -1.17531 0.394333 -0.0295327 -1.186 0.0694465 -0.0344112 -1.17642 
0.403502 -0.0342568 -1.17953 0.00775392 -0.035764 -1.1618 0.0837434 -0.0449396 -1.19494 
0.415088 -0.0342366 -1.17215 0.106099 -0.0209769 -1.12771 0.211472 -0.0195895 -1.19274 
0.201061 -0.00841714 -1.19472 0.248413 -0.00553542 -1.19478 0.355691 -0.0174345 -1.19331 
0.358789 -0.0079403 -1.19005 0.414462 -0.0447436 -1.17087 0.108061 -0.0301434 -1.19435 
0.386839 -0.0370923 -1.18665 0.350073 -0.0408684 -1.18211 0.376095 -0.00759854 -1.1776 
0.0759468 -0.0448862 -1.18819 0.382035 -0.00502179 -1.18603 0.383455 -0.044915 -1.18057 
0.167049 -0.0284771 -1.195 0.378983 -0.0238048 -1.19501 0.481574 -0.0293708 -1.17498 
0.143932 -0.0228461 -1.17703 0.34883 -0.0340416 -1.19466 0.309093 -0.0431788 -1.17829 
0.244927 -0.0441014 -1.19217 0.314521 -0.0233639 -1.19481 0.367478 -0.0101416 -1.19464 
0.407586 -0.0138688 -1.18683 0.435845 -0.0278909 -1.17121 0.340453 -0.0446969 -1.18506 
0.235662 -0.0408605 -1.19448 0.369253 -0.0316104 -0.854479 0.347365 -0.0286021 -0.721789 
0.417987 -0.00514113 -1.17811 0.370167 -0.0356192 -1.17929 0.2 -0.0173407 -1.18345 
0.378216 -0.044846 -1.19143 0.386355 -0.0183749 -1.18774 0.304809 -0.00629832 -1.19426 
0.278877 -0.0255378 -1.19379 0.364581 -0.0162151 -1.08293 0.0991623 -0.034754 -1.19487 
0.288061 -0.00539305 -1.19376 0.221034 -0.0143942 -1.18455 0.160055 -0.042253 -1.19495 
0.448507 -0.01854 -1.17146 0.358 -0.0374026 -1.19013 0.350467 -0.0319632 -1.17093 
0.203683 -0.0440744 -1.19451 0.405502 -0.0443821 -1.17879 0.38693 -0.0232785 -1.17857 
0.239252 -0.0301369 -1.18424 0.399734 -0.0127919 -1.17441 0.376376 -0.0356208 -1.18711 
0.425814 -0.0207071 -1.15216 0.28974 -0.0352198 -1.14992 0.253873 -0.0439385 -1.18608 
0.0741552 -0.0066653 -1.17611 0.296799 -0.0207169 -1.18645 0.25398 -0.0357486 -0.281537 
0.294436 -0.039849 -1.16628 0.301671 -0.0133264 -1.14216 0.428237 -0.0400624 -1.18221 
0.260856 -0.0448612 -1.16624 0.408714 -0.0248485 -1.17507 0.320076 -0.0161353 -0.396917 
0.289584 -0.0233197 -1.19448 0.373664 -0.0114156 -1.15455 0.253857 -0.0323425 -1.18202 
0.31633 -0.0386705 -1.18444 0.323549 -0.0336033 -1.1763 0.0783029 -0.00558542 -1.18533 
0.39376 -0.00520517 -1.17746 0.357689 -0.0349499 -0.689918 0.376576 -0.0392794 -1.17096 
0.467031 -0.0252262 -1.17733 0.0606487 -0.0253941 -1.17758 0.373845 -0.0238409 -1.18503 
0.33024 -0.0102496 -1.16334 0.391933 -0.0082051 -1.18682 0.211473 -0.0147388 -1.1615 
0.0944694 -0.0188311 -1.18299 0.158386 -0.0168886 -1.19459 0.479591 -0.0111709 -1.1616 
0.329599 -0.0300507 -1.19309 0.482866 -0.0229228 -1.16735 0.11708 -0.0392836 -1.19213 
0.465827 -0.0190745 -1.16685 0.246492 -0.0228089 -1.19293 0.344047 -0.0388813 -0.949623 
0.133662 -0.0206484 -1.195 0.382784 -0.0279731 -1.1866 0.365011 -0.0393861 -1.16583 
0.275492 -0.013515 -1.18808 0.399793 -0.0377027 -1.18821 
VERTICES 500 1000
1 0 
1 1 
1 2 
1 3 
1 4 
1 5 
1 6 
1 7 
1 8 
1 9 
1 10 
1 11 
1 12 
1 13 
1 14 
1 15 
1 16 
1 17 
1 18 
1 19 
1 20 
1 21 
1 22 
1 23 
1 24 
1 25 
1 26 
1 27 
1 28 
1 29 
1 30 
1 31 
1 32 
1 33 
1 34 
1 35 
1 36 
1 37 
1 38 
1 39 
1 40 
1 41 
1 42 
1 43 
1 44 
1 45 
1 46 
1 47 
1 48 
1 49 
1 50 
1 51 
1 52 
1 53 
1 54 
1 55 
1 56 
1 57 
1 58 
1 59 
1 60 
1 61 
1 62 
1 63 
1 64 
1 65 
1 66 
1 67 
1 68 
1 69 
1 70 
1 71 
1 72 
1 73 
1 74 
1 75 
1 76 
1 77 
1 78 
1 79 
1 80 
1 81 
1 82 
1 83 
1 84 
1 85 
1 86 
1 87 
1 88 
1 89 
1 90 
1 91 
1 92 
1 93 
1 94 
1 95 
1 96 
1 97 
1 98 
1 99 
1 100 
1 101 
1 102 
1 103 
1 104 
1 105 
1 106 
1 107 
1 108 
1 109 
1 110 
1 111 
1 112 
1 113 
1 114 
1 115 
1 116 
1 117 
1 118 
1 119 
1 120 
1 121 
1 122 
1 123 
1 124 
1 125 
1 126 
1 127 
1 128 
1 129 
1 130 
1 131 
1 132 
1 133 
1 134 
1 135 
1 136 
1 137 
1 138 
1 139 
1 140 
1 141 
1 142 
1 143 
1 144 
1 145 
1 146 
1 147 
1 148 
1 149 
1 150 
1 151 
1 152 
1 153 
1 154 
1 155 
1 156 
1 157 
1 158 
1 159 
1 160 
1 161 
1 162 
1 163 
1 164 
1 165 
1 166 
1 167 
1 168 
1 169 
1 170 
1 171 
1 172 
1 173 
1 174 
1 175 
1 176 
1 177 
1 178 
1 179 
1 180 
1 181 
1 182 
1 183 
1 184 
1 185 
1 186 
1 187 
1 188 
1 189 
1 190 
1 191 
1 192 
1 193 
1 194 
1 195 
1 196 
1 197 
1 198 
1 199 
1 200 
1 201 
1 202 
1 203 
1 204 
1 205 
1 206 
1 207 
1 208 
1 209 
1 210 
1 211 
1 212 
1 213 
1 214 
1 215 
1 216 
1 217 
1 218 
1 219 
1 220 
1 221 
1 222 
1 223 
1 224 
1 225 
1 226 
1 227 
1 228 
1 229 
1 230 
1 231 
1 232 
1 233 
1 234 
1 235 
1 236 
1 237 
1 238 
1 239 
1 240 
1 241 
1 242 
1 243 
1 244 
1 245 
1 246 
1 247 
1 248 
1 249 
1 250 
1 251 
1 252 
1 253 
1 254 
1 255 
1 256 
1 257 
1 258 
1 259 
1 260 
1 261 
1 262 
1 263 
1 264 
1 265 
1 266 
1 267 
1 268 
1 269 
1 270 
1 271 
1 272 
1 273 
1 274 
1 275 
1 276 
1 277 
1 278 
1 279 
1 280 
1 281 
1 282 
1 283 
1 284 
1 285 
1 286 
1 287 
1 288 
1 289 
1 290 
1 291 
1 292 
1 293 
1 294 
1 295 
1 296 
1 297 
1 298 
1 299 
1 300 
1 301 
1 302 
1 303 
1 304 
1 305 
1 306 
1 307 
1 308 
1 309 
1 310 
1 311 
1 312 
1 313 
1 314 
1 315 
1 316 
1 317 
1 318 
1 319 
1 320 
1 321 
1 322 
1 323 
1 324 
1 325 
1 326 
1 327 
1 328 
1 329 
1 330 
1 331 
1 332 
1 333 
1 334 
1 335 
1 336 
1 337 
1 338 
1 339 
1 340 
1 341 
1 342 
1 343 
1 344 
1 345 
1 346 
1 347 
1 348 
1 349 
1 350 
1 351 
1 352 
1 353 
1 354 
1 355 
1 356 
1 357 
1 358 
1 359 
1 360 
1 361 
1 362 
1 363 
1 364 
1 365 
1 366 
1 367 
1 368 
1 369 
1 370 
1 371 
1 372 
1 373 
1 374 
1 375 
1 376 
1 377 
1 378 
1 379 
1 380 
1 381 
1 382 
1 383 
1 384 
1 385 
1 386 
1 387 
1 388 
1 389 
1 390 
1 391 
1 392 
1 393 
1 394 
1 395 
1 396 
1 397 
1 398 
1 399 
1 400 
1 401 
1 402 
1 403 
1 404 
1 405 
1 406 
1 407 
1 408 
1 409 
1 410 
1 411 
1 412 
1 413 
1 414 
1 415 
1 416 
1 417 
1 418 
1 419 
1 420 
1 421 
1 422 
1 423 
1 424 
1 425 
1 426 
1 427 
1 428 
1 429 
1 430 
1 431 
1 432 
1 433 
1 434 
1 435 
1 436 
1 437 
1 438 
1 439 
1 440 
1 441 
1 442 
1 443 
1 444 
1 445 
1 446 
1 447 
1 448 
1 449 
1 450 
1 451 
1 452 
1 453 
1 454 
1 455 
1 456 
1 457 
1 458 
1 459 
1 460 
1 461 
1 462 
1 463 
1 464 
1 465 
1 466 
1 467 
1 468 
1 469 
1 470 
1 471 
1 472 
1 473 
1 474 
1 475 
1 476 
1 477 
1 478 
1 479 
1 480 
1 481 
1 482 
1 483 
1 484 
1 485 
1 486 
1 487 
1 488 
1 489 
1 490 
1 491 
1 492 
1 493 
1 494 
1 495 
1 496 
1 497 
1 498 
1 499 

POINT_DATA 500
FIELD FieldData 7
id 1 500 int
1 2 3 4 5 6 7 8 9 
10 11 12 13 14 15 16 17 18 
19 20 21 22 23 24 25 26 27 
28 29 30 31 32 33 34 35 36 
37 38 39 40 41 42 43 44 45 
46 47 48 49 50 51 52 53 54 
55 56 57 58 59 60 61 62 63 
64 65 66 67 68 69 70 71 72 
73 74 75 76 77 78 79 80 81 
82 83 84 85 86 87 88 89 90 
91 92 93 94 95 96 97 98 99 
100 101 102 103 104 105 106 107 108 
109 110 111 112 113 114 115 116 117 
118 119 120 121 122 123 124 125 126 
127 128 129 130 131 132 133 134 135 
136 137 138 139 140 141 142 143 144 
145 146 147 148 149 150 151 152 153 
154 155 156 157 158 159 160 161 162 
163 164 165 166 167 168 169 170 171 
172 173 174 175 176 177 178 179 180 
181 182 183 184 185 186 187 188 189 
190 191 192 193 194 195 196 197 198 
199 200 201 202 203 204 205 206 207 
208 209 210 211 212 213 214 215 216 
217 218 219 220 221 222 223 224 225 
226 227 228 229 230 231 232 233 234 
235 236 237 238 239 240 241 242 243 
244 245 246 247 248 249 250 251 252 
253 254 255 256 257 258 259 260 261 
262 263 264 265 266 267 268 269 270 
271 272 273 274 275 276 277 278 279 
280 281 282 283 284 285 286 287 288 
289 290 291 292 293 294 295 296 297 
298 299 300 301 302 303 304 305 306 
307 308 309 310 311 312 313 314 315 
316 317 318 319 320 321 322 323 324 
325 326 327 328 329 330 331 332 333 
334 335 336 337 338 339 340 341 342 
343 344 345 346 347 348 349 350 351 
352 353 354 355 356 357 358 359 360 
361 362 363 364 365 366 367 368 369 
370 371 372 373 374 375 376 377 378 
379 380 381 382 383 384 385 386 387 
388 389 390 391 392 393 394 395 396 
397 398 399 400 401 402 403 404 405 
406 407 408 409 410 411 412 413 414 
415 416 417 418 419 420 421 422 423 
424 425 426 427 428 429 430 431 432 
433 434 435 436 437 438 439 440 441 
442 443 444 445 446 447 448 449 450 
451 452 453 454 455 456 457 458 459 
460 461 462 463 464 465 466 467 468 
469 470 471 472 473 474 475 476 477 
478 479 480 481 482 483 484 485 486 
487 488 489 490 491 492 493 494 495 
496 497 498 499 500 
type 1 500 int
1 1 1 1 1 1 1 1 1 
1 1 1 1 1 1 1 1 1 
1 1 1 1 1 1 1 1 1 
1 1 1 1 1 1 1 1 1 
1 1 1 1 1 1 1 1 1 
1 1 1 1 1 1 1 1 1 
1 1 1 1 1 1 1 1 1 
1 1 1 1 1 1 1 1 1 
1 1 1 1 1 1 1 1 1 
1 1 1 1 1 1 1 1 1 
1 1 1 1 1 1 1 1 1 
1 1 1 1 1 1 1 1 1 
1 1 1 1 1 1 1 1 1 
1 1 1 1 1 1 1 1 1 
1 1 1 1 1 1 1 1 1 
1 1 1 1 1 1 1 1 1 
1 1 1 1 1 1 1 1 1 
1 1 1 1 1 1 1 1 1 
1 1 1 1 1 1 1 1 1 
1 1 1 1 1 1 1 1 1 
1 1 1 1 1 1 1 1 1 
1 1 1 1 1 1 1 1 1 
1 1 1 1 1 1 1 1 1 
1 1 1 1 1 1 1 1 1 
1 1 1 1 1 1 1 1 1 
1 1 1 1 1 1 1 1 1 
1 1 1 1 1 1 1 1 1 
1 1 1 1 1 1 1 1 1 
1 1 1 1 1 1 1 1 1 
1 1 1 1 1 1 1 1 1 
1 1 1 1 1 1 1 1 1 
1 1 1 1 1 1 1 1 1 
1 1 1 1 1 1 1 1 1 
1 1 1 1 1 1 1 1 1 
1 1 1 1 1 1 1 1 1 
1 1 1 1 1 1 1 1 1 
1 1 1 1 1 1 1 1 1 
1 1 1 1 1 1 1 1 1 
1 1 1 1 1 1 1 1 1 
1 1 1 1 1 1 1 1 1 
1 1 1 1 1 1 1 1 1 
1 1 1 1 1 1 1 1 1 
1 1 1 1 1 1 1 1 1 
1 1 1 1 1 1 1 1 1 
1 1 1 1 1 1 1 1 1 
1 1 1 1 1 1 1 1 1 
1 1 1 1 1 1 1 1 1 
1 1 1 1 1 1 1 1 1 
1 1 1 1 1 1 1 1 1 
1 1 1 1 1 1 1 1 1 
1 1 1 1 1 1 1 1 1 
1 1 1 1 1 1 1 1 1 
1 1 1 1 1 1 1 1 1 
1 1 1 1 1 1 1 1 1 
1 1 1 1 1 1 1 1 1 
1 1 1 1 1 
i 3 500 int
0 0 0 0 0 0 0 0 0 
0 0 0 0 0 0 0 0 0 
0 0 0 0 0 0 0 0 0 
0 0 0 0 0 0 0 0 0 
0 0 0 0 0 0 0 0 0 
0 0 0 0 0 0 0 0 0 
0 0 0 0 0 0 0 0 0 
0 0 0 0 0 0 0 0 0 
0 0 0 0 0 0 0 0 0 
0 0 0 0 0 0 0 0 0 
0 0 0 0 0 0 0 0 0 
0 0 0 0 0 0 0 0 0 
0 0 0 0 0 0 0 0 0 
0 0 0 0 0 0 0 0 0 
0 0 0 0 0 0 0 0 0 
0 0 0 0 0 0 0 0 0 
0 0 0 0 0 0 0 0 0 
0 0 0 0 0 0 0 0 0 
0 0 0 0 0 0 0 0 0 
0 0 0 0 0 0 0 0 0 
0 0 0 0 0 0 0 0 0 
0 0 0 0 0 0 0 0 0 
0 0 0 0 0 0 0 0 0 
0 0 0 0 0 0 0 0 0 
0 0 0 0 0 0 0 0 0 
0 0 0 0 0 0 0 0 0 
0 0 0 0 0 0 0 0 0 
0 0 0 0 0 0 0 0 0 
0 0 0 0 0 0 0 0 0 
0 0 0 0 0 0 0 0 0 
0 0 0 0 0 0 0 0 0 
0 0 0 0 0 0 0 0 0 
0 0 0 0 0 0 0 0 0 
0 0 0 0 0 0 0 0 0 
0 0 0 0 0 0 0 0 0 
0 0 0 0 0 0 0 0 0 
0 0 0 0 0 0 0 0 0 
0 0 0 0 0 0 0 0 0 
0 0 0 0 0 0 0 0 0 
0 0 0 0 0 0 0 0 0 
0 0 0 0 0 0 0 0 0 
0 0 0 0 0 0 0 0 0 
0 0 0 0 0 0 0 0 0 
0 0 0 0 0 0 0 0 0 
0 0 0 0 0 0 0 0 0 
0 0 0 0 0 0 0 0 0 
0 0 0 0 0 0 0 0 0 
0 0 0 0 0 0 0 0 0 
0 0 0 0 0 0 0 0 0 
0 0 0 0 0 0 0 0 0 
0 0 0 0 0 0 0 0 0 
0 0 0 0 0 0 0 0 0 
0 0 0 0 0 0 0 0 0 
0 0 0 0 0 0 0 0 0 
0 0 0 0 0 0 0 0 0 
0 0 0 0 0 0 0 0 0 
0 0 0 0 0 0 0 0 0 
0 0 0 0 0 0 0 0 0 
0 0 0 0 0 0 0 0 0 
0 0 0 0 0 0 0 0 0 
0 0 0 0 0 0 0 0 0 
0 0 0 0 0 0 0 0 0 
0 0 0 0 0 0 0 0 0 
0 0 0 0 0 0 0 0 0 
0 0 0 0 0 0 0 0 0 
0 0 0 0 0 0 0 0 0 
0 0 0 0 0 0 0 0 0 
0 0 0 0 0 0 0 0 0 
0 0 0 0 0 0 0 0 0 
0 0 0 0 0 0 0 0 0 
0 0 0 0 0 0 0 0 0 
0 0 0 0 0 0 0 0 0 
0 0 0 0 0 0 0 0 0 
0 0 0 0 0 0 0 0 0 
0 0 0 0 0 0 0 0 0 
0 0 0 0 0 0 0 0 0 
0 0 0 0 0 0 0 0 0 
0 0 0 0 0 0 0 0 0 
0 0 0 0 0 0 0 0 0 
0 0 0 0 0 0 0 0 0 
0 0 0 0 0 0 0 0 0 
0 0 0 0 0 0 0 0 0 
0 0 0 0 0 0 0 0 0 
0 0 0 0 0 0 0 0 0 
0 0 0 0 0 0 0 0 0 
0 0 0 0 0 0 0 0 0 
0 0 0 0 0 0 0 0 0 
0 0 0 0 0 0 0 0 0 
0 0 0 0 0 0 0 0 0 
0 0 0 0 0 0 0 0 0 
0 0 0 0 0 0 0 0 0 
0 0 0 0 0 0 0 0 0 
0 0 0 0 0 0 0 0 0 
0 0 0 0 0 0 0 0 0 
0 0 0 0 0 0 0 0 0 
0 0 0 0 0 0 0 0 0 
0 0 0 0 0 0 0 0 0 
0 0 0 0 0 0 0 0 0 
0 0 0 0 0 0 0 0 0 
0 0 0 0 0 0 0 0 0 
0 0 0 0 0 0 0 0 0 
0 0 0 0 0 0 0 0 0 
0 0 0 0 0 0 0 0 0 
0 0 0 0 0 0 0 0 0 
0 0 0 0 0 0 0 0 0 
0 0 0 0 0 0 0 0 0 
0 0 0 0 0 0 0 0 0 
0 0 0 0 0 0 0 0 0 
0 0 0 0 0 0 0 0 0 
0 0 0 0 0 0 0 0 0 
0 0 0 0 0 0 0 0 0 
0 0 0 0 0 0 0 0 0 
0 0 0 0 0 0 0 0 0 
0 0 0 0 0 0 0 0 0 
0 0 0 0 0 0 0 0 0 
0 0 0 0 0 0 0 0 0 
0 0 0 0 0 0 0 0 0 
0 0 0 0 0 0 0 0 0 
0 0 0 0 0 0 0 0 0 
0 0 0 0 0 0 0 0 0 
0 0 0 0 0 0 0 0 0 
0 0 0 0 0 0 0 0 0 
0 0 0 0 0 0 0 0 0 
0 0 0 0 0 0 0 0 0 
0 0 0 0 0 0 0 0 0 
0 0 0 0 0 0 0 0 0 
0 0 0 0 0 0 0 0 0 
0 0 0 0 0 0 0 0 0 
0 0 0 0 0 0 0 0 0 
0 0 0 0 0 0 0 0 0 
0 0 0 0 0 0 0 0 0 
0 0 0 0 0 0 0 0 0 
0 0 0 0 0 0 0 0 0 
0 0 0 0 0 0 0 0 0 
0 0 0 0 0 0 0 0 0 
0 0 0 0 0 0 0 0 0 
0 0 0 0 0 0 0 0 0 
0 0 0 0 0 0 0 0 0 
0 0 0 0 0 0 0 0 0 
0 0 0 0 0 0 0 0 0 
0 0 0 0 0 0 0 0 0 
0 0 0 0 0 0 0 0 0 
0 0 0 0 0 0 0 0 0 
0 0 0 0 0 0 0 0 0 
0 0 0 0 0 0 0 0 0 
0 0 0 0 0 0 0 0 0 
0 0 0 0 0 0 0 0 0 
0 0 0 0 0 0 0 0 0 
0 0 0 0 0 0 0 0 0 
0 0 0 0 0 0 0 0 0 
0 0 0 0 0 0 0 0 0 
0 0 0 0 0 0 0 0 0 
0 0 0 0 0 0 0 0 0 
0 0 0 0 0 0 0 0 0 
0 0 0 0 0 0 0 0 0 
0 0 0 0 0 0 0 0 0 
0 0 0 0 0 0 0 0 0 
0 0 0 0 0 0 0 0 0 
0 0 0 0 0 0 0 0 0 
0 0 0 0 0 0 0 0 0 
0 0 0 0 0 0 0 0 0 
0 0 0 0 0 0 0 0 0 
0 0 0 0 0 0 0 0 0 
0 0 0 0 0 0 0 0 0 
0 0 0 0 0 0 0 0 0 
0 0 0 0 0 0 0 0 0 
0 0 0 0 0 0 
v 3 500 double
-0.128703 0.0323714 0.00396879 -0.325171 0.0675339 -0.0448859 0.0122231 -0.031665 0.00201039 
0.0184609 0.138446 0.0718614 -0.0380552 -0.0355412 0.075254 -0.108484 -0.00508257 0.046122 
0.12155 -0.0457605 0.0271776 0.1131 -0.241927 -0.111816 0.030417 0.0183542 0.0528493 
-0.0358495 -0.0999551 -0.0471588 -0.277154 -0.0858679 -0.0333686 -0.0943344 -0.0293997 0.00531393 
-0.0304809 -0.128598 0.0712085 -0.196872 -0.00578234 0.0310105 0.108004 -0.162475 0.0666793 
-0.184431 0.00126845 -0.0156608 0.0687775 -0.0214331 -0.221269 -0.0367366 -0.159139 -0.0264123 
0.0110164 -0.0148663 -0.00208801 -0.0521675 -0.0483901 -0.132616 -0.00751272 0.0449801 0.125847 
-0.310231 -0.0119974 -0.00645637 -0.0306921 -0.0494123 -0.00222522 -0.0266874 0.047723 -0.0131672 
-0.227124 -0.179399 -0.204637 -0.209265 0.10725 -0.0993716 -0.0974566 0.0137713 -0.0160184 
-0.0805068 0.0124456 -0.00644693 -0.243935 -0.0419796 -0.0244027 -9.64561e-05 -0.0800907 0.0588 
0.0160274 -0.00482343 -0.0413528 -0.0935403 0.0135807 -0.0563683 -0.275972 -0.0238193 0.0508314 
-0.0590791 0.0498217 -0.0214616 -1.08259 0.669178 0.0172771 0.137194 0.0732475 0.065833 
-0.245526 0.0266075 -0.0126775 0.00760563 -0.0397091 0.00270355 -0.0365865 -0.0812837 -0.0200244 
-0.00676663 -0.124592 0.00909729 0.0034099 -0.0366717 -6.57699e-11 -0.587184 -0.0403059 -0.00809056 
-0.0554904 0.104939 -0.192193 -0.173319 0.0641364 -0.0158684 -0.562541 0.160709 -0.243591 
-0.0312505 0.0366564 -0.0206507 0.00566256 -0.0201402 0.0331055 0.0130326 -0.00264003 -0.00892224 
0.0263457 0.00419524 0.00166875 -0.317262 0.130047 -0.042094 -0.192325 -7.29704e-05 -4.52267e-05 
-0.0356275 0.0120283 0.00198929 0.0292999 0.017024 -0.0141566 0.206397 0.000224141 -0.0611012 
0.00459937 0.0171569 0.0482937 0.0972569 0.0427529 0.0237835 -0.0715553 -0.0419491 -0.0217642 
0.0178623 -0.0511248 -0.0425938 0.0112537 -0.0468766 -0.0319885 0.0961577 0.0792351 -0.0829223 
0.154024 0.0558553 0.0794952 -0.227251 0.100388 0.0017526 -0.0304904 0.004269 0.0490221 
-0.0344096 -0.0817177 0.046641 0.140688 -0.0518863 0.0821269 -0.20171 0.0391997 -0.0136095 
-0.432913 -0.189186 0.0453898 -0.183417 -0.336832 -0.267411 -0.131719 0.0379999 0.022509 
0.00984349 -0.0537045 0.0505421 -0.0355637 -0.000146401 0.00782137 -0.00300046 -0.221791 -0.0669485 
0.0333244 0.046592 0.0255667 0.0011546 -0.0329138 -0.00617661 0.108031 0.0336574 -0.0527568 
0.0976298 0.0450374 -0.108188 0.0116467 0.102506 -0.061646 -0.289655 -0.0920185 -0.254685 
-0.227161 0.0163799 0.00124728 0.00690388 -0.0830483 -0.0359029 0.0072802 -0.0599716 -0.155547 
0.0465753 0.0211532 0.0109817 -0.137178 0.0371153 -0.0841556 -0.117384 -0.0534409 -0.120399 
0.124219 -0.0185865 -2.04192 -0.130342 -0.0504543 -0.293414 0.0673439 -0.074595 -0.0180223 
-0.191135 0.217455 0.00200493 -0.284637 -0.0337389 -0.162556 -0.0110754 -0.00331655 0.0501926 
-0.0170965 -0.0329014 0.0168847 -0.112276 0.111924 -0.0224256 0.183993 -0.0524007 -0.0791842 
0.0211554 -0.0358078 0.00640128 0.0087777 -0.0051737 0.0208975 0.004383 -0.00541652 0.0203651 
-0.821195 -0.327359 0.324623 0.0678427 -0.0380936 -0.185354 -0.302534 -0.376753 -0.630718 
-0.0564821 0.00965006 0.00875546 -0.131854 0.00667042 -0.0047975 0.00464461 -0.00169836 -3.01431e-12 
0.000894244 -0.0458973 0.0306619 -0.0340814 0.119989 -0.0838633 -0.146244 -0.137336 -0.0126779 
-0.294275 0.0864156 0.0696857 0.0449475 -0.126942 -0.221672 -0.721943 0.39315 -0.100494 
0.0358473 0.00965986 -0.000108296 0.06727 0.0632039 0.00598466 -0.0327659 -0.0243738 -0.334903 
0.176748 -0.0175871 0.0432114 -0.0040193 -0.00782122 0.0149195 -0.214371 -0.00206531 0.000816627 
0.120876 0.252385 -0.0261538 0.00379424 -0.0416809 -0.0263161 0.0395309 0.0464237 -3.58842 
-0.0708351 0.000344582 -0.00999645 -0.0674997 0.019396 -0.10106 0.132454 0.0341053 0.0523483 
-0.265973 0.00724167 -0.05502 -0.0334015 -0.000414506 0.0743706 -0.159396 -0.0514715 -0.0570629 
-0.125093 0.018074 0.116393 -0.0652652 -0.0326291 0.0851303 0.0299998 0.0550934 0.00705771 
0.000380099 -0.00357507 -6.4235e-12 -0.142347 -0.104378 -0.000189653 0.000777465 -0.0112848 0.0149312 
0.0191279 0.0371686 0.0337846 0.00307711 0.023571 -0.0766602 -0.00411468 -0.0535431 -0.065868 
-0.00942706 0.00539828 -0.0375956 0.0143292 0.0253832 0.00636664 -0.0292858 -0.0307682 -0.00196293 
-0.191201 0.0168692 -0.0739615 0.116077 0.109587 -0.0335998 -0.250721 0.205213 0.0413561 
-0.118533 0.0128783 0.338727 -0.665967 0.210723 0.0368731 -0.248587 -0.0185367 -0.0594838 
-0.0562562 -0.0367603 0.0589093 -0.0436414 0.0242403 -0.00176601 -0.193933 -0.0245774 -0.0538627 
-0.0441181 0.0169493 -0.0190941 -0.158738 0.00373866 0.00930773 0.0270935 -0.0167453 -0.00763651 
0.0515112 0.00736537 0.0126903 -0.234156 0.0338997 0.0313837 -0.919656 0.335537 0.0399993 
0.0584469 0.0542679 0.0532296 -0.188809 -0.055458 -7.3658e-05 0.00138488 -0.00922029 -0.0137095 
-0.0299103 -0.043415 -0.0836338 -0.407673 0.0124049 -0.177212 -0.148667 -0.00884235 0.0201078 
-0.0238362 0.0155577 0.00170406 -0.0168287 -0.0581269 0.204694 0.0141453 -0.0124461 0.00293804 
-0.101776 -0.0076138 -0.00812653 -0.0226383 0.00186065 -0.020423 -0.42196 -0.0760646 -0.0476951 
0.0804861 0.0798021 -0.062343 0.0261169 -0.00710839 -0.00377298 0.0224755 0.00413385 0.0212138 
-0.157068 0.0760921 -0.012008 0.681201 -0.0180451 -0.571838 -0.310521 0.0057991 -0.00600641 
0.0414882 -0.0137447 -0.0027878 0.24793 -0.00363557 -0.134274 -0.192139 0.0548074 -0.00658533 
0.0146219 -0.0361523 0.00829 -0.0953778 0.0637795 -0.072401 -0.0257577 0.0864694 0.00751732 