# vtk DataFile Version 4.0
Generated by LIGGGHTS
ASCII
DATASET POLYDATA
POINTS 500 float
0.45555 -0.0346616 -1.15837 0.469933 -0.0193753 -1.02655 0.182344 -0.0176755 -1.17682 
0.111238 -0.0367267 -1.07265 0.133626 -0.0324773 -0.685283 0.255861 -0.0325447 -1.11712 
0.113886 -0.00890839 -0.916155 0.124813 -0.0254094 -0.622075 0.22968 -0.0362168 -0.606406 
0.488438 -0.0094353 -1.11628 0.449516 -0.015254 -0.655681 0.476551 -0.0109288 -1.18606 
0.154176 -0.0358444 -1.11819 0.393575 -0.0240558 -1.15466 0.0782588 -0.0186295 -0.643728 
0.418688 -0.0141088 -0.939481 0.305042 -0.0274354 -1.16486 0.494934 -0.0446308 -1.1828 
0.245856 -0.0398864 -1.19463 0.483546 -0.0154664 -1.17566 0.155084 -0.0258816 -1.16167 
0.482968 -0.00644965 -1.16599 0.49303 -0.0446999 -1.19498 0.158313 -0.0358083 -1.00943 
0.292788 -0.0163793 -0.34317 0.483457 -0.0421803 -1.12617 0.494986 -0.0255503 -1.1851 
0.469157 -0.0450046 -1.19462 0.493309 -0.0104123 -1.14404 0.377347 -0.0372657 -0.895879 
0.323034 -0.0240893 -1.19368 0.477136 -0.0447057 -1.17508 0.42537 -0.00550713 -0.868379 
0.492471 -0.0254536 -1.1675 0.246822 -0.0215938 -0.268941 0.333868 -0.0237337 -1.18262 
0.45128 -0.00515908 -1.18605 0.233001 -0.0285461 -1.17608 0.364814 -0.0116257 -1.17769 
0.494992 -0.00511384 -1.18776 0.212617 -0.0147345 -0.245016 0.235566 -0.0445141 -0.810082 
0.1844 -0.0162521 -0.784491 0.470267 -0.00789956 -1.1616 0.225643 -0.00925678 -0.706258 
0.484343 -0.0360825 -1.19491 0.20056 -0.0170802 -0.962967 0.121972 -0.00493692 -1.17824 
0.484983 -0.0439604 -1.18663 0.464893 -0.0244235 -1.1782 0.453017 -0.0132454 -1.12846 
0.47946 -0.0450442 -1.19501 0.215457 -0.0144349 -1.17951 0.122313 -0.00938946 -1.16926 
0.00922615 -0.0426038 -1.15806 0.0643951 -0.00921993 -1.14017 0.325251 -0.0197339 -0.691776 
0.167077 -0.038907 -0.662167 0.178475 -0.0314854 -0.901243 0.0825276 -0.0251753 -1.195 
0.189372 -0.034748 -1.18485 0.456053 -0.0327878 -1.19427 0.135529 -0.0248974 -1.17692 
0.340996 -0.0275276 -1.19359 0.236557 -0.0385257 -0.835416 0.463914 -0.0126981 -1.18789 
0.49069 -0.00837752 -1.15477 0.494504 -0.0408707 -1.15644 0.457192 -0.00581458 -1.19402 
0.121955 -0.0348585 -1.18275 0.494956 -0.0345734 -1.19503 0.494692 -0.0109514 -1.17858 
0.234329 -0.04212 -1.15243 0.25741 -0.0151374 -1.19004 0.382574 -0.00761843 -1.19461 
0.402395 -0.00617436 -1.15185 0.330939 -0.0438466 -1.18697 0.49433 -0.00511066 -1.17044 
0.450925 -0.0143751 -1.19422 0.491771 -0.0446705 -1.17284 0.116341 -0.00938278 -1.00014 
0.0739321 -0.012404 -1.02162 0.461122 -0.0269918 -1.16884 0.0405628 -0.0432337 -1.19052 
0.213872 -0.0361079 -0.244902 0.133646 -0.0153309 -1.12505 0.246726 -0.0297659 -1.13842 
0.483524 -0.0413843 -1.05226 0.477557 -0.0402235 -1.1652 0.171919 -0.0273071 -1.15711 
0.00982304 -0.0399962 -1.07848 0.46811 -0.0329918 -1.15062 0.0200269 -0.0102451 -1.08759 
0.211865 -0.00569994 -1.16647 0.145284 -0.0364913 -1.18207 0.0238266 -0.0183247 -1.17145 
0.393406 -0.0281844 -1.18491 0.398253 -0.0196867 -1.11901 0.295454 -0.00875316 -0.352699 
0.38129 -0.0446351 -1.16781 0.33485 -0.0439477 -1.14689 0.205 -0.0444768 -0.245004 
0.238714 -0.0145943 -1.0958 0.481719 -0.0168683 -1.16578 0.411444 -0.0296822 -1.17207 
0.164048 -0.0356358 -0.977314 0.285822 -0.00669783 -1.18921 0.0708929 -0.00951662 -0.793666 
0.384849 -0.0446431 -1.18635 0.332787 -0.0110183 -1.19415 0.387593 -0.0443301 -1.15931 
0.375682 -0.0364515 -1.19491 0.487842 -0.00500578 -1.19474 0.444471 -0.0206223 -1.17369 
0.180106 -0.0255172 -0.819508 0.0321639 -0.0103148 -1.15311 0.223778 -0.0139858 -0.245002 
0.457267 -0.00564701 -1.17733 0.473179 -0.0440568 -1.18461 0.322477 -0.0320629 -1.15376 
0.466227 -0.0218569 -1.14814 0.486649 -0.0282929 -1.15273 0.467102 -0.00521502 -1.19357 
0.468554 -0.00494546 -1.18201 0.477099 -0.00502691 -1.19416 0.367539 -0.0263322 -1.1556 
0.205643 -0.0219128 -0.245018 0.488803 -0.0355209 -1.16532 0.493782 -0.0133541 -1.1932 
0.148123 -0.0304408 -1.15241 0.366016 -0.0429645 -1.19319 0.494761 -0.0232398 -1.19493 
0.336992 -0.0316628 -1.16734 0.186306 -0.0244684 -1.19099 0.365819 -0.00707208 -1.18997 
0.456758 -0.0225281 -1.19059 0.247402 -0.0171044 -1.05166 0.429994 -0.0135988 -1.19485 
0.475979 -0.00900006 -1.17463 0.454313 -0.0361504 -1.13127 0.47097 -0.0197177 -1.18667 
0.486775 -0.0294607 -1.17959 0.482779 -0.013866 -1.19489 0.480547 -0.0273857 -1.16991 
0.48371 -0.0374479 -1.1736 0.427101 -0.0300964 -1.19424 0.243544 -0.0173762 -1.16613 
0.374037 -0.0419192 -1.18174 0.472894 -0.0141911 -1.19494 0.399942 -0.00659683 -1.17754 
0.369579 -0.0162191 -1.19479 0.459287 -0.0438255 -1.1949 0.263786 -0.0242767 -1.17155 
0.474056 -0.0186041 -1.17724 0.260275 -0.0272458 -0.292112 0.474982 -0.0264285 -1.19485 
0.296963 -0.0399485 -1.17726 0.485148 -0.00531402 -1.17669 0.280245 -0.0204258 -1.1949 
0.484967 -0.026075 -1.19488 0.165539 -0.0414822 -1.14972 0.397937 -0.0369036 -1.18257 
0.32305 -0.0447153 -1.17547 0.319561 -0.0331097 -1.19408 0.347501 -0.00601441 -1.18196 
0.465584 -0.00803124 -1.17273 0.349151 -0.0405597 -1.18921 0.446728 -0.0260671 -1.18648 
0.235003 -0.0409661 -1.09046 0.180984 -0.00515433 -1.12044 0.416467 -0.0201107 -1.17539 
0.226405 -0.0127329 -1.19214 0.458398 -0.0413132 -0.980427 0.494105 -0.0340511 -1.17416 
0.088816 -0.0363232 -1.02998 0.269902 -0.0188044 -1.18257 0.381145 -0.0168009 -1.18836 
0.493466 -0.0205168 -1.1762 0.312168 -0.0391943 -1.19072 0.350985 -0.00921116 -1.19171 
0.399903 -0.0450802 -1.17849 0.493004 -0.0352574 -1.1853 0.48639 -0.00992853 -1.18579 
0.166827 -0.012255 -1.19394 0.284858 -0.0126536 -1.09325 0.388518 -0.0374781 -1.19488 
0.159345 -0.0101738 -1.16588 0.395481 -0.0349435 -0.969603 0.489518 -0.041637 -1.14555 
0.325557 -0.0377374 -1.08696 0.257931 -0.0364045 -1.19246 0.421627 -0.0149585 -1.11947 
0.471753 -0.0126434 -1.15083 0.183213 -0.0429771 -1.19491 0.372356 -0.0107181 -0.876805 
0.414876 -0.0342909 -1.1938 0.480114 -0.0411329 -1.15501 0.474358 -0.0364859 -1.19506 
0.205029 -0.0144029 -0.23808 0.487331 -0.0178801 -1.15749 0.391761 -0.00545439 -1.17084 
0.237817 -0.0082859 -1.16593 0.447585 -0.0358368 -1.18791 0.465249 -0.0351653 -1.19215 
0.46153 -0.0452331 -1.15998 0.390114 -0.00669688 -1.18403 0.486709 -0.0199709 -1.18664 
0.47945 -0.0353966 -1.18614 0.331854 -0.0122373 -1.1788 0.356256 -0.0166643 -1.04328 
0.416209 -0.0140221 -1.16785 0.400905 -0.0125051 -1.16644 0.319587 -0.0287361 -1.18267 
0.382668 -0.0283494 -1.19303 0.465901 -0.0215733 -1.19499 0.355939 -0.00853646 -0.60173 
0.448476 -0.0446973 -1.19492 0.437048 -0.00563783 -1.19552 0.333468 -0.0207612 -1.19235 
0.395818 -0.0436285 -1.1943 0.455822 -0.00773368 -1.16045 0.209133 -0.0443444 -0.235901 
0.466629 -0.0400217 -1.17092 0.392352 -0.0210783 -1.19257 0.384566 -0.0343095 -1.18433 
0.384405 -0.015478 -1.17604 0.406486 -0.0138778 -0.9275 0.42126 -0.00793111 -1.1939 
0.43537 -0.0266271 -1.18337 0.372006 -0.0136437 -1.18436 0.359735 -0.0314278 -1.19121 
0.302288 -0.0396882 -1.13655 0.309319 -0.036267 -1.15503 0.329235 -0.0327105 -1.18971 
0.347151 -0.0450893 -1.14227 0.493822 -0.0137719 -1.16537 0.473905 -0.0335008 -1.17498 
0.319976 -0.0347864 -1.17385 0.292683 -0.00864342 -1.17353 0.425297 -0.0406914 -1.1947 
0.3621 -0.0162602 -1.18847 0.410461 -0.0323814 -1.15092 0.480963 -0.0327102 -1.13923 
0.352825 -0.0081339 -1.03883 0.468397 -0.0334609 -1.16425 0.379523 -0.00667529 -1.15021 
0.477878 -0.0262199 -1.18228 0.26805 -0.0404907 -1.19179 0.379304 -0.0129276 -1.14386 
0.43957 -0.0320297 -1.19363 0.216368 -0.00516316 -0.244983 0.376255 -0.0343957 -1.17716 
0.403715 -0.0195195 -1.19342 0.450879 -0.0106352 -1.16884 0.452195 -0.0262553 -1.174 
0.450741 -0.0393116 -1.17491 0.40146 -0.0322555 -0.732267 0.405449 -0.0339765 -1.19089 
0.430207 -0.021144 -1.18951 0.216421 -0.02434 -0.245015 0.388445 -0.0318991 -1.15736 
0.405273 -0.0446256 -1.18722 0.341155 -0.0415397 -1.18276 0.390911 -0.0126036 -1.07312 
0.303464 -0.0167456 -1.18773 0.435927 -0.0365748 -1.06813 0.227175 -0.0398393 -0.245041 
0.427286 -0.0221792 -1.17693 0.471781 -0.0191006 -1.16466 0.378704 -0.00878063 -0.813851 
0.456172 -0.00548831 -1.0919 0.365152 -0.0343525 -0.709848 0.392326 -0.00526906 -1.19437 
0.448101 -0.0161598 -1.15003 0.424035 -0.0325635 -1.18433 0.405467 -0.0372468 -1.10688 
0.419517 -0.0198015 -1.19503 0.329589 -0.0412413 -1.16371 0.452601 -0.0218956 -1.11399 
0.410421 -0.00961943 -1.01292 0.41581 -0.0358619 -1.06378 0.492538 -0.0256322 -1.14287 
0.373446 -0.0101048 -0.939116 0.336614 -0.00980252 -1.01139 0.329231 -0.0440908 -0.534199 
0.402624 -0.0201037 -0.97824 0.406336 -0.032253 -1.06616 0.44145 -0.0264008 -1.12326 
0.353598 -0.0137223 -1.12296 0.439515 -0.0422296 -1.18743 0.352887 -0.0274102 -1.18429 
0.39129 -0.03772 -1.17313 0.433529 -0.0360265 -1.14149 0.352151 -0.0213255 -1.13105 
0.413268 -0.0412142 -1.13356 0.418968 -0.0423186 -1.11828 0.359597 -0.0295947 -1.13739 
0.441673 -0.0070335 -1.18517 0.410772 -0.00822811 -1.18053 0.286983 -0.0194768 -1.1808 
0.369884 -0.0366216 -0.987736 0.37391 -0.0290448 -1.09268 0.397525 -0.0181723 -0.833969 
0.442215 -0.0130849 -1.03779 0.387854 -0.0436312 -1.09155 0.403183 -0.0230737 -1.07652 
0.383457 -0.0328026 -0.974745 0.416011 -0.0244277 -1.04551 0.421543 -0.0218839 -1.05465 
0.427571 -0.0230251 -0.97728 0.458945 -0.0192407 -1.04459 0.228386 -0.0238439 -0.245001 
0.367611 -0.00916937 -0.62899 0.474163 -0.0312284 -1.1056 0.367133 -0.011331 -1.12692 
0.376625 -0.0149993 -0.993142 0.362747 -0.0108981 -1.0358 0.408211 -0.0114484 -1.08008 
0.420002 -0.0170722 -1.14945 0.371917 -0.0195093 -0.948623 0.449052 -0.00950637 -0.995562 
0.340261 -0.0336472 -0.925445 0.368362 -0.0273856 -1.10738 0.348761 -0.0249455 -0.965846 
0.419299 -0.0113694 -0.910874 0.374791 -0.0192674 -0.672337 0.285624 -0.0103561 -0.313287 
0.371745 -0.0230212 -0.95936 0.426736 -0.0351365 -1.06083 0.382092 -0.0445965 -0.931729 
0.339204 -0.0324131 -0.430817 0.392265 -0.0254563 -0.952276 0.43297 -0.0141754 -1.10059 
0.353474 -0.032805 -0.994618 0.377919 -0.0119625 -0.919659 0.340838 -0.0410043 -0.677206 
0.444064 -0.0242904 -0.955725 0.401651 -0.0361677 -1.00687 0.397781 -0.0423372 -0.99595 
0.371625 -0.0326324 -0.914478 0.364527 -0.0390919 -1.01526 0.348518 -0.0254514 -0.933362 
0.412485 -0.0257911 -0.923648 0.404849 -0.0356775 -0.913436 0.360715 -0.0169511 -1.0661 
0.205577 -0.00509716 -0.244398 0.343148 -0.0448661 -0.805358 0.35184 -0.0277625 -0.462551 
0.422217 -0.0294508 -0.946875 0.346337 -0.00920959 -0.645305 0.381475 -0.0369277 -0.905865 
0.364297 -0.0449743 -0.847028 0.341734 -0.0252925 -0.880104 0.407202 -0.00864009 -1.00294 
0.385716 -0.0131924 -0.908992 0.375863 -0.0133412 -0.901585 0.218439 -0.0449851 -0.244901 
0.417291 -0.00862352 -0.897266 0.359027 -0.0385062 -0.865487 0.405327 -0.0376701 -0.980052 
0.363564 -0.0310383 -0.924795 0.375515 -0.0323278 -0.810742 0.41328 -0.0267738 -0.825442 
0.38282 -0.0268009 -0.683485 0.3511 -0.0361547 -0.927467 0.385791 -0.0176152 -0.785558 
0.395637 -0.0407299 -0.925287 0.357356 -0.0423797 -0.659455 0.382432 -0.023225 -0.91582 
0.402329 -0.0175792 -0.904479 0.356215 -0.0380042 -0.589015 0.368342 -0.0351479 -0.787694 
0.372257 -0.0409318 -0.772898 0.370329 -0.0107872 -0.847083 0.401319 -0.0306367 -0.874215 
0.339304 -0.0108543 -0.836805 0.409408 -0.0152056 -0.868876 0.382473 -0.0438409 -0.824025 
0.392872 -0.0393313 -0.869175 0.371459 -0.00594116 -0.925534 0.359713 -0.0157257 -0.717869 
0.358516 -0.0136125 -0.670598 0.374511 -0.00868634 -0.765016 0.385275 -0.0315768 -0.777403 
0.359361 -0.0288487 -0.884858 0.342046 -0.0176142 -0.546726 0.412609 -0.0447587 -0.90274 
0.377332 -0.0310796 -0.796879 0.221451 -0.00871773 -0.236719 0.393187 -0.0311324 -0.80282 
0.383397 -0.0113483 -0.77034 0.39592 -0.0449523 -0.892701 0.379852 -0.0421173 -0.762785 
0.312255 -0.0323401 -0.682983 0.399491 -0.0171129 -0.819062 0.379142 -0.00508882 -0.712967 
0.373411 -0.0295772 -0.834424 0.445304 -0.00974937 -0.872349 0.356625 -0.0243205 -0.721953 
0.204994 -0.031981 -0.242816 0.404658 -0.00745756 -0.730278 0.374494 -0.0382957 -0.634933 
0.412939 -0.0185626 -0.846953 0.379865 -0.0153182 -0.630255 0.350284 -0.0322997 -0.802901 
0.39745 -0.0139132 -0.781486 0.329684 -0.0395249 -0.711506 0.349635 -0.0275592 -0.757894 
0.294442 -0.0413604 -0.345552 0.327835 -0.0374953 -0.671881 0.331839 -0.0107923 -0.348643 
0.362228 -0.0201369 -0.624639 0.37393 -0.0238162 -0.724633 0.370721 -0.0417248 -0.704974 
0.393199 -0.0286591 -0.75683 0.404082 -0.0236243 -0.66092 0.360169 -0.0344674 -0.736977 
0.401222 -0.00638379 -0.812676 0.238371 -0.0434689 -0.248168 0.341296 -0.0427532 -0.455674 
0.296567 -0.0423997 -0.633545 0.356092 -0.0356351 -0.549826 0.411931 -0.0356376 -0.695001 
0.364576 -0.0158429 -0.755536 0.368899 -0.0340242 -0.572617 0.404363 -0.028508 -0.695831 
0.335527 -0.0380057 -0.663886 0.364161 -0.0450093 -0.620342 0.265037 -0.0184891 -0.276602 
0.351729 -0.0352563 -0.64731 0.353863 -0.0441216 -0.527886 0.376623 -0.0385121 -0.667196 
0.363233 -0.017086 -0.575136 0.369758 -0.0107246 -0.563037 0.362736 -0.0445192 -0.599038 
0.339833 -0.0240909 -0.612273 0.223203 -0.0313845 -0.240813 0.216681 -0.0176513 -0.236376 
0.338384 -0.02109 -0.867227 0.326743 -0.00986791 -0.44372 0.352346 -0.00723406 -0.548708 
0.366868 -0.0407638 -0.556402 0.36976 -0.0404594 -0.61165 0.373945 -0.00640159 -0.65056 
0.366252 -0.00557043 -0.699481 0.231401 -0.0051812 -0.2452 0.349435 -0.0341081 -0.628764 
0.350202 -0.0127547 -0.582768 0.345161 -0.0429037 -0.574482 0.344412 -0.00971913 -0.559028 
0.388231 -0.0378534 -0.687301 0.371011 -0.0267185 -0.626765 0.324753 -0.0335196 -0.347915 
0.348162 -0.0417098 -0.605668 0.322622 -0.0108196 -0.33202 0.390998 -0.0197949 -0.714226 
0.348938 -0.0228099 -0.642195 0.335877 -0.0271163 -0.439831 0.348565 -0.0435018 -0.512252 
0.301554 -0.0389977 -0.314316 0.366527 -0.030192 -0.589012 0.361716 -0.044808 -0.568392 
0.314952 -0.0109246 -0.53147 0.336677 -0.0143858 -0.488002 0.206649 -0.0244543 -0.23545 
0.275878 -0.0148305 -0.317181 0.303921 -0.00699609 -0.345299 0.353295 -0.0337957 -0.482371 
0.298524 -0.0201619 -0.508776 0.355495 -0.0436687 -0.502912 0.209087 -0.00532414 -0.234745 
0.345315 -0.0143507 -0.478916 0.245924 -0.0147355 -0.257239 0.356093 -0.0433194 -0.559412 
0.355266 -0.0441387 -0.542137 0.37389 -0.0102977 -0.619111 0.346091 -0.0353797 -0.566431 
0.358001 -0.0387335 -0.514516 0.213488 -0.0338581 -0.235085 0.323886 -0.0318687 -0.332708 
0.259841 -0.0361832 -0.285185 0.317641 -0.0393508 -0.48368 0.316618 -0.0250993 -0.323313 
0.27606 -0.0419839 -0.320052 0.347054 -0.0376553 -0.498011 0.324109 -0.0407028 -0.407665 
0.334677 -0.0234896 -0.587473 0.323725 -0.00620626 -0.398766 0.271083 -0.013467 -0.304503 
0.352276 -0.0450079 -0.46419 0.239776 -0.0215936 -0.24338 0.325385 -0.00642742 -0.475586 
0.254402 -0.0101199 -0.271717 0.317831 -0.0181902 -0.406839 0.227033 -0.0418189 -0.235244 
0.325486 -0.011313 -0.546305 0.341907 -0.0358602 -0.44161 0.355662 -0.0237485 -0.545069 
0.348473 -0.0307158 -0.523554 0.357499 -0.0344328 -0.529385 
VERTICES 500 1000
1 0 
1 1 
1 2 
1 3 
1 4 
1 5 
1 6 
1 7 
1 8 
1 9 
1 10 
1 11 
1 12 
1 13 
1 14 
1 15 
1 16 
1 17 
1 18 
1 19 
1 20 
1 21 
1 22 
1 23 
1 24 
1 25 
1 26 
1 27 
1 28 
1 29 
1 30 
1 31 
1 32 
1 33 
1 34 
1 35 
1 36 
1 37 
1 38 
1 39 
1 40 
1 41 
1 42 
1 43 
1 44 
1 45 
1 46 
1 47 
1 48 
1 49 
1 50 
1 51 
1 52 
1 53 
1 54 
1 55 
1 56 
1 57 
1 58 
1 59 
1 60 
1 61 
1 62 
1 63 
1 64 
1 65 
1 66 
1 67 
1 68 
1 69 
1 70 
1 71 
1 72 
1 73 
1 74 
1 75 
1 76 
1 77 
1 78 
1 79 
1 80 
1 81 
1 82 
1 83 
1 84 
1 85 
1 86 
1 87 
1 88 
1 89 
1 90 
1 91 
1 92 
1 93 
1 94 
1 95 
1 96 
1 97 
1 98 
1 99 
1 100 
1 101 
1 102 
1 103 
1 104 
1 105 
1 106 
1 107 
1 108 
1 109 
1 110 
1 111 
1 112 
1 113 
1 114 
1 115 
1 116 
1 117 
1 118 
1 119 
1 120 
1 121 
1 122 
1 123 
1 124 
1 125 
1 126 
1 127 
1 128 
1 129 
1 130 
1 131 
1 132 
1 133 
1 134 
1 135 
1 136 
1 137 
1 138 
1 139 
1 140 
1 141 
1 142 
1 143 
1 144 
1 145 
1 146 
1 147 
1 148 
1 149 
1 150 
1 151 
1 152 
1 153 
1 154 
1 155 
1 156 
1 157 
1 158 
1 159 
1 160 
1 161 
1 162 
1 163 
1 164 
1 165 
1 166 
1 167 
1 168 
1 169 
1 170 
1 171 
1 172 
1 173 
1 174 
1 175 
1 176 
1 177 
1 178 
1 179 
1 180 
1 181 
1 182 
1 183 
1 184 
1 185 
1 186 
1 187 
1 188 
1 189 
1 190 
1 191 
1 192 
1 193 
1 194 
1 195 
1 196 
1 197 
1 198 
1 199 
1 200 
1 201 
1 202 
1 203 
1 204 
1 205 
1 206 
1 207 
1 208 
1 209 
1 210 
1 211 
1 212 
1 213 
1 214 
1 215 
1 216 
1 217 
1 218 
1 219 
1 220 
1 221 
1 222 
1 223 
1 224 
1 225 
1 226 
1 227 
1 228 
1 229 
1 230 
1 231 
1 232 
1 233 
1 234 
1 235 
1 236 
1 237 
1 238 
1 239 
1 240 
1 241 
1 242 
1 243 
1 244 
1 245 
1 246 
1 247 
1 248 
1 249 
1 250 
1 251 
1 252 
1 253 
1 254 
1 255 
1 256 
1 257 
1 258 
1 259 
1 260 
1 261 
1 262 
1 263 
1 264 
1 265 
1 266 
1 267 
1 268 
1 269 
1 270 
1 271 
1 272 
1 273 
1 274 
1 275 
1 276 
1 277 
1 278 
1 279 
1 280 
1 281 
1 282 
1 283 
1 284 
1 285 
1 286 
1 287 
1 288 
1 289 
1 290 
1 291 
1 292 
1 293 
1 294 
1 295 
1 296 
1 297 
1 298 
1 299 
1 300 
1 301 
1 302 
1 303 
1 304 
1 305 
1 306 
1 307 
1 308 
1 309 
1 310 
1 311 
1 312 
1 313 
1 314 
1 315 
1 316 
1 317 
1 318 
1 319 
1 320 
1 321 
1 322 
1 323 
1 324 
1 325 
1 326 
1 327 
1 328 
1 329 
1 330 
1 331 
1 332 
1 333 
1 334 
1 335 
1 336 
1 337 
1 338 
1 339 
1 340 
1 341 
1 342 
1 343 
1 344 
1 345 
1 346 
1 347 
1 348 
1 349 
1 350 
1 351 
1 352 
1 353 
1 354 
1 355 
1 356 
1 357 
1 358 
1 359 
1 360 
1 361 
1 362 
1 363 
1 364 
1 365 
1 366 
1 367 
1 368 
1 369 
1 370 
1 371 
1 372 
1 373 
1 374 
1 375 
1 376 
1 377 
1 378 
1 379 
1 380 
1 381 
1 382 
1 383 
1 384 
1 385 
1 386 
1 387 
1 388 
1 389 
1 390 
1 391 
1 392 
1 393 
1 394 
1 395 
1 396 
1 397 
1 398 
1 399 
1 400 
1 401 
1 402 
1 403 
1 404 
1 405 
1 406 
1 407 
1 408 
1 409 
1 410 
1 411 
1 412 
1 413 
1 414 
1 415 
1 416 
1 417 
1 418 
1 419 
1 420 
1 421 
1 422 
1 423 
1 424 
1 425 
1 426 
1 427 
1 428 
1 429 
1 430 
1 431 
1 432 
1 433 
1 434 
1 435 
1 436 
1 437 
1 438 
1 439 
1 440 
1 441 
1 442 
1 443 
1 444 
1 445 
1 446 
1 447 
1 448 
1 449 
1 450 
1 451 
1 452 
1 453 
1 454 
1 455 
1 456 
1 457 
1 458 
1 459 
1 460 
1 461 
1 462 
1 463 
1 464 
1 465 
1 466 
1 467 
1 468 
1 469 
1 470 
1 471 
1 472 
1 473 
1 474 
1 475 
1 476 
1 477 
1 478 
1 479 
1 480 
1 481 
1 482 
1 483 
1 484 
1 485 
1 486 
1 487 
1 488 
1 489 
1 490 
1 491 
1 492 
1 493 
1 494 
1 495 
1 496 
1 497 
1 498 
1 499 

POINT_DATA 500
FIELD FieldData 7
id 1 500 int
1 2 3 4 5 6 7 8 9 
10 11 12 13 14 15 16 17 18 
19 20 21 22 23 24 25 26 27 
28 29 30 31 32 33 34 35 36 
37 38 39 40 41 42 43 44 45 
46 47 48 49 50 51 52 53 54 
55 56 57 58 59 60 61 62 63 
64 65 66 67 68 69 70 71 72 
73 74 75 76 77 78 79 80 81 
82 83 84 85 86 87 88 89 90 
91 92 93 94 95 96 97 98 99 
100 101 102 103 104 105 106 107 108 
109 110 111 112 113 114 115 116 117 
118 119 120 121 122 123 124 125 126 
127 128 129 130 131 132 133 134 135 
136 137 138 139 140 141 142 143 144 
145 146 147 148 149 150 151 152 153 
154 155 156 157 158 159 160 161 162 
163 164 165 166 167 168 169 170 171 
172 173 174 175 176 177 178 179 180 
181 182 183 184 185 186 187 188 189 
190 191 192 193 194 195 196 197 198 
199 200 201 202 203 204 205 206 207 
208 209 210 211 212 213 214 215 216 
217 218 219 220 221 222 223 224 225 
226 227 228 229 230 231 232 233 234 
235 236 237 238 239 240 241 242 243 
244 245 246 247 248 249 250 251 252 
253 254 255 256 257 258 259 260 261 
262 263 264 265 266 267 268 269 270 
271 272 273 274 275 276 277 278 279 
280 281 282 283 284 285 286 287 288 
289 290 291 292 293 294 295 296 297 
298 299 300 301 302 303 304 305 306 
307 308 309 310 311 312 313 314 315 
316 317 318 319 320 321 322 323 324 
325 326 327 328 329 330 331 332 333 
334 335 336 337 338 339 340 341 342 
343 344 345 346 347 348 349 350 351 
352 353 354 355 356 357 358 359 360 
361 362 363 364 365 366 367 368 369 
370 371 372 373 374 375 376 377 378 
379 380 381 382 383 384 385 386 387 
388 389 390 391 392 393 394 395 396 
397 398 399 400 401 402 403 404 405 
406 407 408 409 410 411 412 413 414 
415 416 417 418 419 420 421 422 423 
424 425 426 427 428 429 430 431 432 
433 434 435 436 437 438 439 440 441 
442 443 444 445 446 447 448 449 450 
451 452 453 454 455 456 457 458 459 
460 461 462 463 464 465 466 467 468 
469 470 471 472 473 474 475 476 477 
478 479 480 481 482 483 484 485 486 
487 488 489 490 491 492 493 494 495 
496 497 498 499 500 
type 1 500 int
1 1 1 1 1 1 1 1 1 
1 1 1 1 1 1 1 1 1 
1 1 1 1 1 1 1 1 1 
1 1 1 1 1 1 1 1 1 
1 1 1 1 1 1 1 1 1 
1 1 1 1 1 1 1 1 1 
1 1 1 1 1 1 1 1 1 
1 1 1 1 1 1 1 1 1 
1 1 1 1 1 1 1 1 1 
1 1 1 1 1 1 1 1 1 
1 1 1 1 1 1 1 1 1 
1 1 1 1 1 1 1 1 1 
1 1 1 1 1 1 1 1 1 
1 1 1 1 1 1 1 1 1 
1 1 1 1 1 1 1 1 1 
1 1 1 1 1 1 1 1 1 
1 1 1 1 1 1 1 1 1 
1 1 1 1 1 1 1 1 1 
1 1 1 1 1 1 1 1 1 
1 1 1 1 1 1 1 1 1 
1 1 1 1 1 1 1 1 1 
1 1 1 1 1 1 1 1 1 
1 1 1 1 1 1 1 1 1 
1 1 1 1 1 1 1 1 1 
1 1 1 1 1 1 1 1 1 
1 1 1 1 1 1 1 1 1 
1 1 1 1 1 1 1 1 1 
1 1 1 1 1 1 1 1 1 
1 1 1 1 1 1 1 1 1 
1 1 1 1 1 1 1 1 1 
1 1 1 1 1 1 1 1 1 
1 1 1 1 1 1 1 1 1 
1 1 1 1 1 1 1 1 1 
1 1 1 1 1 1 1 1 1 
1 1 1 1 1 1 1 1 1 
1 1 1 1 1 1 1 1 1 
1 1 1 1 1 1 1 1 1 
1 1 1 1 1 1 1 1 1 
1 1 1 1 1 1 1 1 1 
1 1 1 1 1 1 1 1 1 
1 1 1 1 1 1 1 1 1 
1 1 1 1 1 1 1 1 1 
1 1 1 1 1 1 1 1 1 
1 1 1 1 1 1 1 1 1 
1 1 1 1 1 1 1 1 1 
1 1 1 1 1 1 1 1 1 
1 1 1 1 1 1 1 1 1 
1 1 1 1 1 1 1 1 1 
1 1 1 1 1 1 1 1 1 
1 1 1 1 1 1 1 1 1 
1 1 1 1 1 1 1 1 1 
1 1 1 1 1 1 1 1 1 
1 1 1 1 1 1 1 1 1 
1 1 1 1 1 1 1 1 1 
1 1 1 1 1 1 1 1 1 
1 1 1 1 1 
i 3 500 int
0 0 0 0 0 0 0 0 0 
0 0 0 0 0 0 0 0 0 
0 0 0 0 0 0 0 0 0 
0 0 0 0 0 0 0 0 0 
0 0 0 0 0 0 0 0 0 
0 0 0 0 0 0 0 0 0 
0 0 0 0 0 0 0 0 0 
0 0 0 0 0 0 0 0 0 
0 0 0 0 0 0 0 0 0 
0 0 0 0 0 0 0 0 0 
0 0 0 0 0 0 0 0 0 
0 0 0 0 0 0 0 0 0 
0 0 0 0 0 0 0 0 0 
0 0 0 0 0 0 0 0 0 
0 0 0 0 0 0 0 0 0 
0 0 0 0 0 0 0 0 0 
0 0 0 0 0 0 0 0 0 
0 0 0 0 0 0 0 0 0 
0 0 0 0 0 0 0 0 0 
0 0 0 0 0 0 0 0 0 
0 0 0 0 0 0 0 0 0 
0 0 0 0 0 0 0 0 0 
0 0 0 0 0 0 0 0 0 
0 0 0 0 0 0 0 0 0 
0 0 0 0 0 0 0 0 0 
0 0 0 0 0 0 0 0 0 
0 0 0 0 0 0 0 0 0 
0 0 0 0 0 0 0 0 0 
0 0 0 0 0 0 0 0 0 
0 0 0 0 0 0 0 0 0 
0 0 0 0 0 0 0 0 0 
0 0 0 0 0 0 0 0 0 
0 0 0 0 0 0 0 0 0 
0 0 0 0 0 0 0 0 0 
0 0 0 0 0 0 0 0 0 
0 0 0 0 0 0 0 0 0 
0 0 0 0 0 0 0 0 0 
0 0 0 0 0 0 0 0 0 
0 0 0 0 0 0 0 0 0 
0 0 0 0 0 0 0 0 0 
0 0 0 0 0 0 0 0 0 
0 0 0 0 0 0 0 0 0 
0 0 0 0 0 0 0 0 0 
0 0 0 0 0 0 0 0 0 
0 0 0 0 0 0 0 0 0 
0 0 0 0 0 0 0 0 0 
0 0 0 0 0 0 0 0 0 
0 0 0 0 0 0 0 0 0 
0 0 0 0 0 0 0 0 0 
0 0 0 0 0 0 0 0 0 
0 0 0 0 0 0 0 0 0 
0 0 0 0 0 0 0 0 0 
0 0 0 0 0 0 0 0 0 
0 0 0 0 0 0 0 0 0 
0 0 0 0 0 0 0 0 0 
0 0 0 0 0 0 0 0 0 
0 0 0 0 0 0 0 0 0 
0 0 0 0 0 0 0 0 0 
0 0 0 0 0 0 0 0 0 
0 0 0 0 0 0 0 0 0 
0 0 0 0 0 0 0 0 0 
0 0 0 0 0 0 0 0 0 
0 0 0 0 0 0 0 0 0 
0 0 0 0 0 0 0 0 0 
0 0 0 0 0 0 0 0 0 
0 0 0 0 0 0 0 0 0 
0 0 0 0 0 0 0 0 0 
0 0 0 0 0 0 0 0 0 
0 0 0 0 0 0 0 0 0 
0 0 0 0 0 0 0 0 0 
0 0 0 0 0 0 0 0 0 
0 0 0 0 0 0 0 0 0 
0 0 0 0 0 0 0 0 0 
0 0 0 0 0 0 0 0 0 
0 0 0 0 0 0 0 0 0 
0 0 0 0 0 0 0 0 0 
0 0 0 0 0 0 0 0 0 
0 0 0 0 0 0 0 0 0 
0 0 0 0 0 0 0 0 0 
0 0 0 0 0 0 0 0 0 
0 0 0 0 0 0 0 0 0 
0 0 0 0 0 0 0 0 0 
0 0 0 0 0 0 0 0 0 
0 0 0 0 0 0 0 0 0 
0 0 0 0 0 0 0 0 0 
0 0 0 0 0 0 0 0 0 
0 0 0 0 0 0 0 0 0 
0 0 0 0 0 0 0 0 0 
0 0 0 0 0 0 0 0 0 
0 0 0 0 0 0 0 0 0 
0 0 0 0 0 0 0 0 0 
0 0 0 0 0 0 0 0 0 
0 0 0 0 0 0 0 0 0 
0 0 0 0 0 0 0 0 0 
0 0 0 0 0 0 0 0 0 
0 0 0 0 0 0 0 0 0 
0 0 0 0 0 0 0 0 0 
0 0 0 0 0 0 0 0 0 
0 0 0 0 0 0 0 0 0 
0 0 0 0 0 0 0 0 0 
0 0 0 0 0 0 0 0 0 
0 0 0 0 0 0 0 0 0 
0 0 0 0 0 0 0 0 0 
0 0 0 0 0 0 0 0 0 
0 0 0 0 0 0 0 0 0 
0 0 0 0 0 0 0 0 0 
0 0 0 0 0 0 0 0 0 
0 0 0 0 0 0 0 0 0 
0 0 0 0 0 0 0 0 0 
0 0 0 0 0 0 0 0 0 
0 0 0 0 0 0 0 0 0 
0 0 0 0 0 0 0 0 0 
0 0 0 0 0 0 0 0 0 
0 0 0 0 0 0 0 0 0 
0 0 0 0 0 0 0 0 0 
0 0 0 0 0 0 0 0 0 
0 0 0 0 0 0 0 0 0 
0 0 0 0 0 0 0 0 0 
0 0 0 0 0 0 0 0 0 
0 0 0 0 0 0 0 0 0 
0 0 0 0 0 0 0 0 0 
0 0 0 0 0 0 0 0 0 
0 0 0 0 0 0 0 0 0 
0 0 0 0 0 0 0 0 0 
0 0 0 0 0 0 0 0 0 
0 0 0 0 0 0 0 0 0 
0 0 0 0 0 0 0 0 0 
0 0 0 0 0 0 0 0 0 
0 0 0 0 0 0 0 0 0 
0 0 0 0 0 0 0 0 0 
0 0 0 0 0 0 0 0 0 
0 0 0 0 0 0 0 0 0 
0 0 0 0 0 0 0 0 0 
0 0 0 0 0 0 0 0 0 
0 0 0 0 0 0 0 0 0 
0 0 0 0 0 0 0 0 0 
0 0 0 0 0 0 0 0 0 
0 0 0 0 0 0 0 0 0 
0 0 0 0 0 0 0 0 0 
0 0 0 0 0 0 0 0 0 
0 0 0 0 0 0 0 0 0 
0 0 0 0 0 0 0 0 0 
0 0 0 0 0 0 0 0 0 
0 0 0 0 0 0 0 0 0 
0 0 0 0 0 0 0 0 0 
0 0 0 0 0 0 0 0 0 
0 0 0 0 0 0 0 0 0 
0 0 0 0 0 0 0 0 0 
0 0 0 0 0 0 0 0 0 
0 0 0 0 0 0 0 0 0 
0 0 0 0 0 0 0 0 0 
0 0 0 0 0 0 0 0 0 
0 0 0 0 0 0 0 0 0 
0 0 0 0 0 0 0 0 0 
0 0 0 0 0 0 0 0 0 
0 0 0 0 0 0 0 0 0 
0 0 0 0 0 0 0 0 0 
0 0 0 0 0 0 0 0 0 
0 0 0 0 0 0 0 0 0 
0 0 0 0 0 0 0 0 0 
0 0 0 0 0 0 0 0 0 
0 0 0 0 0 0 0 0 0 
0 0 0 0 0 0 0 0 0 
0 0 0 0 0 0 0 0 0 
0 0 0 0 0 0 0 0 0 
0 0 0 0 0 0 0 0 0 
0 0 0 0 0 0 
v 3 500 double
-0.137289 0.468762 -1.22306 -0.511773 0.403728 -1.73477 -0.44702 0.00946351 0.0911071 
1.44228 -0.00166702 -0.928158 -0.258342 -0.0600496 0.250149 -0.662674 0.200666 -0.446391 
-0.976314 -0.29078 0.0463298 -0.355462 0.031393 0.0634111 -0.187731 0.0172905 -0.0876959 
-0.718667 0.119194 -3.29462 -0.203239 0.0811737 -0.0142859 -0.0540825 -0.0106124 0.0797112 
-0.664628 0.296123 -0.801448 -0.195049 0.689359 -0.431736 -0.341783 0.060187 0.00577358 
0.451909 -0.0643114 -3.70168 -0.643541 -0.313272 0.204137 0.11396 0.036566 -0.0419514 
-1.61882 0.144172 -0.154109 0.171602 0.125855 0.308362 -1.76119 0.577412 0.443036 
0.0316156 -0.213585 0.175023 0.144522 -0.120672 -0.0636796 -0.785803 0.273385 -0.226517 
0.719355 0.00885414 -1.22697 -0.580141 -0.317503 0.177482 0.110072 -0.177342 0.0564578 
0.65796 0.00410216 0.197807 -0.321296 -0.265307 0.293253 0.272597 0.102428 -3.94289 
-2.6302 -0.446989 -0.576681 -0.0447407 0.0912267 0.350657 0.551919 0.014396 -3.68584 
0.27362 -0.0463804 0.481235 0.345607 0.00623568 -0.602533 0.433231 0.0675492 -1.15737 
-0.697274 -0.112107 -0.852123 -0.853939 -0.199814 -0.748933 -1.33738 -0.226317 0.37283 
0.0948542 -0.0688774 0.0600911 0.086487 0.0116507 -0.0164937 1.6826 0.317832 0.611137 
-0.482997 -0.16549 0.750057 -0.240205 -0.14227 -0.0377555 -0.211853 -0.0811797 0.500808 
0.136708 -0.0738037 0.0292987 -0.858797 0.23964 0.161187 -1.54444 0.0632528 -0.215016 
-0.130958 -0.0403132 -0.128178 -0.0627598 0.0215449 0.0314361 -0.306751 0.242903 -3.90328 
0.0739644 0.248193 0.0108821 -1.04399 0.358569 -0.61822 -1.4276 0.340083 -0.699355 
1.26024 -0.289649 -0.00628598 1.16617 -0.114048 -0.481254 -0.0283925 -0.170824 -3.26854 
-0.296479 0.0707144 0.418513 -0.678784 0.0994551 -0.00508879 -1.86667 -0.389008 0.0130431 
-0.517732 -0.0757663 -0.0442683 1.06987 1.11265 -0.771529 -1.0777 0.551049 0.377289 
-0.360594 -1.18954 0.0385305 -0.442233 -0.349146 1.28095 -0.0376441 -0.149463 -0.105305 
-0.325828 -0.136146 -0.360305 0.208367 -0.220888 -0.66014 0.127701 -0.193578 -0.563372 
-1.21182 0.293757 -0.352803 0.0110565 0.0562749 -0.172116 -0.143226 -0.0721226 0.0549571 
0.346909 0.317235 0.0427299 -1.42095 -0.289683 0.00795452 -0.774843 0.715651 0.214856 
0.400091 -0.338824 1.10783 -1.03986 -0.105272 0.306756 0.330074 -0.0185323 -0.0378096 
-0.224219 -0.0591369 0.019247 -0.122248 -0.241875 0.127284 -1.23225 -0.358384 -0.333518 
0.955894 -0.134058 0.281993 0.256663 0.281281 0.513771 0.198012 -0.837435 0.195942 
0.073326 -0.0189048 0.0897837 -1.95805 0.657256 0.701088 -0.704552 0.510637 -0.296449 
-0.824125 0.137728 -2.54075 0.160762 -0.229067 -0.306503 -0.988662 -0.452957 -0.350568 
1.14491 0.27161 0.0638867 0.354831 -0.884154 0.361703 -1.57975 -0.0439189 -0.337494 
0.867809 -0.473993 -0.273378 -0.857603 -0.339339 -0.754888 -2.03846 0.440766 -0.462154 
0.860093 0.364163 0.457547 -1.11323 0.826613 -3.6416 0.444285 -0.0417016 -1.47624 
-1.0526 0.0746354 -0.126421 -0.594486 -0.435126 0.480584 -0.000153575 0.00748868 -0.000452462 
-0.399914 -0.229566 0.173131 -0.0964584 -0.437086 -0.114409 1.46993 -0.454277 -1.35408 
1.76973 0.0993917 0.117291 -1.83155 0.722858 0.53544 -0.954015 -0.125965 0.863393 
0.135452 0.47962 0.640785 -0.971899 1.18031 -0.288005 0.249224 0.705771 -0.370587 
-0.0267263 0.167486 -0.121811 0.0719112 -0.0926503 0.0254099 0.228115 0.257356 -0.193643 
-0.409788 0.215188 0.586197 1.21424 -0.261916 0.706526 0.0891011 0.0257664 -0.000470794 
0.361651 -0.648359 -0.439933 -0.0351863 -0.059296 0.265431 1.49189 0.0350583 -0.293333 
0.174608 -0.670206 -0.166946 0.590202 0.170494 -0.0713697 0.315232 0.283515 -0.124909 
0.191037 -0.259087 -0.0955202 0.0420225 0.0534871 -0.0897257 -0.488544 0.830553 -0.589107 
-0.019757 0.08943 0.104966 -0.483242 0.131634 0.168265 -0.0845164 0.142814 0.199588 
-1.62723 0.68508 0.365579 -0.0631228 0.151994 0.483931 -0.0691576 0.161054 0.0481146 
-0.481249 0.0669837 0.614465 -0.821275 -0.45726 1.37934 -0.116508 0.156491 0.0613478 
0.351401 -0.255631 0.474138 -1.32703 -0.0351903 0.68422 0.664196 0.431769 -0.267551 
0.65596 -0.707276 0.235828 -0.160226 -0.596082 -4.40031 0.310671 0.270374 -0.114047 
-0.189318 -0.303885 0.00148571 0.0544389 0.00399982 -0.0602978 0.121415 -0.0188211 -0.127579 
0.386061 0.0297194 -0.0122984 -0.213389 -0.151691 1.94698 -1.73813 0.24698 0.0263515 
-1.08658 -1.13825 -1.23165 -0.0480237 -0.212047 0.0756397 0.0981518 0.825387 -0.297616 
0.557368 -0.1241 -0.334075 0.32721 -0.0577766 0.211032 -1.78005 -0.264785 0.478685 
0.2085 0.178331 0.0943011 0.517265 0.1393 -0.821801 -0.078775 0.1311 -0.110292 
-1.78201 0.449439 0.608799 0.0543728 -0.100846 0.209538 -0.530734 0.217872 0.126821 
-0.0777715 0.0595968 0.0482621 -1.49217 0.439383 0.970752 -0.439702 1.73989 0.134096 
-1.15053 0.0990385 0.806163 -1.55411 0.0140965 0.161068 -1.03589 0.399843 0.0829778 
0.659783 -0.732209 0.461451 -0.918385 -0.289693 0.558628 0.175896 -0.585396 0.711382 
-0.962999 0.369453 0.402287 -1.93342 -0.485592 0.483625 0.183866 0.719384 -1.32093 
-1.09647 0.0570825 0.0634389 0.696875 0.0883033 -4.05886 -0.149361 0.0138207 0.139757 
-2.20824 0.0304094 0.702444 -1.52736 -0.322682 0.370124 -0.378298 0.410461 0.479495 
0.309994 -0.194198 -0.057221 -1.39861 -0.256235 0.17652 -0.604896 -0.023743 -0.485104 
0.673683 -1.18464 -3.53852 -0.118948 0.0962894 0.0159155 0.247068 -0.0272602 0.114639 