# vtk DataFile Version 4.0
Generated by LIGGGHTS
ASCII
DATASET POLYDATA
POINTS 500 float
0.46579 -0.0348376 -1.16534 0.492635 -0.0238175 -1.13964 0.162228 -0.0172497 -1.18265 
0.176141 -0.0368017 -1.12435 0.122001 -0.0351795 -0.683959 0.22604 -0.0235147 -1.14714 
0.0699515 -0.0219935 -0.924003 0.108817 -0.0239967 -0.629154 0.221232 -0.0354387 -0.620285 
0.484289 -0.00748718 -1.16172 0.440371 -0.0116012 -0.666256 0.477384 -0.0142849 -1.18479 
0.119721 -0.00492802 -1.12106 0.404138 -0.0179526 -1.16826 0.0628786 -0.0159211 -0.653401 
0.439024 -0.0170028 -1.11599 0.27433 -0.0316602 -1.16779 0.49502 -0.0450205 -1.17961 
0.182833 -0.0412764 -1.18701 0.485736 -0.0149048 -1.17717 0.0985826 -0.0141321 -1.1469 
0.470792 -0.00629716 -1.16528 0.494441 -0.044469 -1.19497 0.122967 -0.0235183 -1.02955 
0.325159 -0.0159809 -0.408316 0.471131 -0.0449551 -1.14229 0.494846 -0.026953 -1.18604 
0.47333 -0.0448937 -1.19509 0.493146 -0.00808203 -1.1504 0.388117 -0.0323268 -1.07975 
0.254606 -0.00690451 -1.18912 0.47935 -0.0446364 -1.17119 0.450205 -0.00508504 -1.04416 
0.492118 -0.0251023 -1.16738 0.268721 -0.0250836 -0.306877 0.288822 -0.0392568 -1.19077 
0.451258 -0.00671472 -1.19433 0.185259 -0.0199848 -1.19249 0.31267 -0.00947642 -1.17932 
0.494988 -0.00503591 -1.18542 0.2147 -0.0142461 -0.245001 0.302572 -0.0352264 -0.792317 
0.162665 -0.0236991 -0.760671 0.466982 -0.0179906 -1.1663 0.21611 -0.0129099 -0.693654 
0.485331 -0.0352259 -1.19498 0.161914 -0.00629636 -0.965646 0.0599428 -0.0120489 -1.19302 
0.487584 -0.0450161 -1.18613 0.468771 -0.0270728 -1.17464 0.443285 -0.00603375 -1.18466 
0.483283 -0.0449661 -1.19506 0.170186 -0.00857375 -1.18472 0.0610685 -0.00519108 -1.178 
0.0650311 -0.0378038 -1.16823 0.0971853 -0.0228943 -1.18068 0.323974 -0.027421 -0.848793 
0.153736 -0.0357248 -0.653267 0.147929 -0.0270099 -0.911405 0.0154568 -0.0295136 -1.18463 
0.170883 -0.0431942 -1.19516 0.467867 -0.0305648 -1.19498 0.0874322 -0.0079177 -1.16988 
0.287916 -0.0446112 -1.16687 0.216806 -0.0390051 -0.788475 0.46794 -0.0109865 -1.18784 
0.494705 -0.00525779 -1.16269 0.494694 -0.0446513 -1.15929 0.461472 -0.00537052 -1.19524 
0.0683226 -0.0220767 -1.18894 0.494964 -0.032576 -1.19499 0.495027 -0.0138902 -1.18069 
0.245866 -0.0345567 -1.15626 0.195819 -0.0225843 -1.19322 0.353857 -0.0184523 -1.19032 
0.37287 -0.0247782 -1.16357 0.286697 -0.0272269 -1.1498 0.494828 -0.00513215 -1.17356 
0.448423 -0.0242103 -1.18246 0.493801 -0.0439216 -1.16978 0.061798 -0.0269159 -1.01245 
0.116024 -0.0170185 -1.03151 0.473996 -0.0251818 -1.16617 0.0342302 -0.0340419 -1.16384 
0.216851 -0.0359637 -0.244938 0.0485137 -0.0185741 -1.10373 0.214883 -0.0134512 -1.1549 
0.430476 -0.0255791 -1.16065 0.480525 -0.0449491 -1.16124 0.127583 -0.0435423 -1.18267 
0.0613439 -0.0277737 -1.08554 0.466212 -0.0407667 -1.15084 0.0411801 -0.0135972 -1.11016 
0.172462 -0.0310433 -1.1909 0.108947 -0.0415367 -1.18123 0.0461106 -0.00678227 -1.19468 
0.396204 -0.00632461 -1.18934 0.373211 -0.0111134 -1.16498 0.335532 -0.0143059 -0.417738 
0.332958 -0.0446546 -1.17958 0.309394 -0.0323965 -1.13612 0.205099 -0.0441658 -0.245002 
0.217457 -0.0237944 -1.09758 0.481608 -0.0178992 -1.16857 0.424002 -0.0129949 -1.19463 
0.243686 -0.0311632 -0.981968 0.178214 -0.0201642 -1.16992 0.0279622 -0.0151851 -0.764746 
0.377178 -0.0444635 -1.18101 0.29605 -0.0288633 -1.19456 0.392261 -0.0288349 -1.16098 
0.361822 -0.0447628 -1.19198 0.492118 -0.00499566 -1.195 0.441327 -0.0157705 -1.19543 
0.161666 -0.0158337 -0.803062 0.0868046 -0.0221011 -1.13125 0.230662 -0.0158788 -0.244982 
0.456795 -0.00621302 -1.18557 0.478575 -0.0447854 -1.18193 0.36736 -0.0112096 -1.15728 
0.468711 -0.0447738 -1.16099 0.493817 -0.0149255 -1.16072 0.471913 -0.00499267 -1.19494 
0.473988 -0.00528681 -1.1821 0.4821 -0.00563608 -1.19491 0.32484 -0.0160894 -1.19145 
0.205123 -0.0198799 -0.245003 0.487146 -0.0376003 -1.16501 0.495006 -0.0135339 -1.19067 
0.0729873 -0.00727808 -1.14256 0.349033 -0.0369473 -1.18151 0.494967 -0.022559 -1.19501 
0.327018 -0.0268481 -1.19061 0.144782 -0.0352094 -1.14037 0.328118 -0.00709827 -1.18909 
0.460426 -0.0197075 -1.18658 0.187686 -0.018688 -1.0308 0.427929 -0.00598712 -1.17668 
0.477012 -0.00958386 -1.17284 0.399508 -0.0444853 -1.1751 0.470233 -0.0215503 -1.18587 
0.48606 -0.0276082 -1.17891 0.486175 -0.0153197 -1.19499 0.482463 -0.029254 -1.16975 
0.486084 -0.0381307 -1.17498 0.447843 -0.0332797 -1.19508 0.181216 -0.0311523 -1.17771 
0.337656 -0.035076 -1.18039 0.476285 -0.0139488 -1.19499 0.395739 -0.00707529 -1.1705 
0.36398 -0.017327 -1.19509 0.463391 -0.0447258 -1.19479 0.183684 -0.0361921 -1.15994 
0.47606 -0.0206615 -1.17706 0.28622 -0.0210032 -0.337301 0.475285 -0.023847 -1.19502 
0.223014 -0.0252071 -1.16565 0.485108 -0.00497629 -1.17745 0.208465 -0.00776663 -1.19251 
0.485187 -0.0252564 -1.195 0.102938 -0.0393024 -1.1591 0.399655 -0.024251 -1.18706 
0.271276 -0.0402586 -1.14912 0.255697 -0.0173289 -1.19476 0.28745 -0.0162338 -1.17911 
0.468131 -0.0120304 -1.1769 0.278603 -0.044367 -1.19497 0.459515 -0.0289912 -1.16094 
0.191668 -0.0243408 -1.08229 0.0939795 -0.027006 -1.10861 0.429341 -0.0197887 -1.19003 
0.180994 -0.00553214 -1.18807 0.483209 -0.0442233 -1.14185 0.494962 -0.0333759 -1.17733 
0.0138243 -0.0351119 -1.00875 0.200857 -0.0335549 -1.17573 0.376537 -0.0212039 -1.19551 
0.494702 -0.0231042 -1.17676 0.238883 -0.00869405 -1.15359 0.307605 -0.0340996 -1.19434 
0.405658 -0.0275036 -1.17275 0.49445 -0.0377812 -1.18648 0.486139 -0.00952459 -1.18669 
0.0909428 -0.0151275 -1.19501 0.249304 -0.0180624 -1.09705 0.388086 -0.0311694 -1.19493 
0.120887 -0.0109041 -1.18791 0.409033 -0.0386639 -1.1585 0.492441 -0.0434494 -1.1467 
0.3177 -0.0126697 -1.03265 0.196185 -0.0369079 -1.1939 0.437008 -0.0413655 -1.19531 
0.43947 -0.00529033 -1.17509 0.113174 -0.0386735 -1.195 0.379466 -0.0120892 -1.06047 
0.40253 -0.0367504 -1.18757 0.477477 -0.0437545 -1.15069 0.475843 -0.0356936 -1.19199 
0.205354 -0.012292 -0.238462 0.494508 -0.0246027 -1.15733 0.385876 -0.00794787 -1.17012 
0.214581 -0.00864018 -1.14312 0.469149 -0.0447244 -1.18617 0.477198 -0.0327648 -1.17767 
0.461733 -0.0380605 -1.18678 0.378009 -0.00586333 -1.18217 0.488273 -0.0192746 -1.18575 
0.483632 -0.0355782 -1.18495 0.234182 -0.0433857 -1.18817 0.343344 -0.0265634 -1.18701 
0.406883 -0.0156164 -1.18549 0.415194 -0.0259365 -1.15978 0.282514 -0.036475 -1.17504 
0.388516 -0.0246691 -1.18293 0.466878 -0.017913 -1.195 0.356782 -0.0113884 -0.736548 
0.453958 -0.0420007 -1.1949 0.440921 -0.00571324 -1.19443 0.277062 -0.0337398 -1.19398 
0.376852 -0.0445061 -1.19404 0.458708 -0.0171545 -1.15511 0.214101 -0.0449046 -0.240705 
0.470588 -0.0425111 -1.17637 0.386289 -0.00558096 -1.18925 0.378124 -0.032323 -1.19309 
0.38762 -0.0122747 -1.18085 0.427467 -0.0150267 -1.1086 0.401126 -0.00548458 -1.1794 
0.43981 -0.0352419 -1.18784 0.312597 -0.00731693 -1.15986 0.347798 -0.0452604 -1.19126 
0.257142 -0.00471636 -1.10849 0.225699 -0.0374177 -1.18637 0.2694 -0.0408725 -1.18856 
0.316079 -0.0393006 -1.19056 0.494017 -0.014721 -1.1708 0.475554 -0.0360428 -1.16515 
0.304685 -0.0121374 -1.19145 0.208356 -0.0276375 -1.17926 0.394859 -0.0440238 -1.18479 
0.316385 -0.0103542 -1.19432 0.39764 -0.0146354 -1.1812 0.490796 -0.0368531 -1.15356 
0.349521 -0.00850439 -1.17006 0.480155 -0.0329791 -1.15681 0.376949 -0.0142034 -1.17369 
0.479958 -0.0248268 -1.18627 0.20541 -0.0348148 -1.18887 0.368482 -0.0411657 -1.16971 
0.456879 -0.0150695 -1.19512 0.219905 -0.00500603 -0.244819 0.366692 -0.0366872 -1.19519 
0.386053 -0.0190552 -1.1941 0.451285 -0.0147383 -1.18477 0.460702 -0.0197891 -1.17645 
0.44171 -0.0308262 -1.17688 0.431021 -0.0343533 -0.897003 0.398316 -0.0304269 -1.19488 
0.434572 -0.0268223 -1.19504 0.214955 -0.0256811 -0.244939 0.394387 -0.033582 -1.18322 
0.393319 -0.0448929 -1.19429 0.295952 -0.0284769 -1.1329 0.38346 -0.0232159 -1.17333 
0.262436 -0.027269 -1.17413 0.461355 -0.0286169 -1.18133 0.235649 -0.0445224 -0.24825 
0.43185 -0.0282968 -1.17856 0.485778 -0.0211296 -1.16022 0.393089 -0.0116842 -0.982895 
0.444304 -0.00860935 -1.16381 0.368389 -0.0434053 -0.87195 0.376217 -0.00560313 -1.19418 
0.41886 -0.0249324 -1.1869 0.445217 -0.0445742 -1.1913 0.414376 -0.044845 -1.19142 
0.406937 -0.00789664 -1.19295 0.259651 -0.0401483 -1.12344 0.458305 -0.0300063 -1.19195 
0.421747 -0.0167939 -1.18062 0.429796 -0.044974 -1.17301 0.48271 -0.0209306 -1.1505 
0.381696 -0.0133113 -1.12013 0.334472 -0.006611 -1.17417 0.334049 -0.0333014 -0.648178 
0.416847 -0.0133276 -1.1639 0.419525 -0.0405646 -1.18367 0.446877 -0.0242082 -1.17109 
0.333987 -0.0270881 -1.17466 0.450709 -0.0231837 -1.19448 0.325939 -0.0371866 -1.18808 
0.385242 -0.042557 -1.18636 0.470285 -0.0315634 -1.18478 0.342341 -0.0323466 -1.19516 
0.413764 -0.0345072 -1.19253 0.429133 -0.0352441 -1.19347 0.338531 -0.0432677 -1.19485 
0.416211 -0.00500009 -1.19479 0.408881 -0.00910253 -1.16666 0.229007 -0.0289773 -1.09029 
0.379573 -0.0349011 -1.18102 0.354726 -0.022052 -1.17121 0.419819 -0.0183052 -1.00863 
0.437019 -0.0323175 -1.16674 0.390086 -0.0429417 -1.17075 0.411813 -0.0240573 -1.19511 
0.392406 -0.0436642 -1.16038 0.425081 -0.0278197 -1.17132 0.456792 -0.0365875 -1.17408 
0.447941 -0.0255503 -1.16223 0.45379 -0.00796822 -1.1753 0.238434 -0.0195525 -0.25189 
0.383683 -0.0153999 -0.774183 0.463328 -0.0265739 -1.13943 0.365694 -0.00814552 -1.18959 
0.388005 -0.0201272 -1.16509 0.362223 -0.0125383 -1.17217 0.431686 -0.015438 -1.17391 
0.451664 -0.0338954 -1.18252 0.382971 -0.0232367 -1.13888 0.430394 -0.0132631 -1.1575 
0.341031 -0.0326238 -1.10936 0.354032 -0.0367135 -1.19313 0.355258 -0.0231102 -1.14877 
0.439769 -0.0143531 -1.08483 0.396229 -0.0193167 -0.822703 0.314564 -0.00687766 -0.373625 
0.378843 -0.0228064 -1.151 0.441894 -0.0171766 -1.18554 0.394606 -0.0431944 -1.11257 
0.361969 -0.0223755 -0.522589 0.408258 -0.0249253 -1.1347 0.431125 -0.00750215 -1.18923 
0.355694 -0.0359443 -1.15119 0.386769 -0.0108627 -1.09942 0.340237 -0.044 -0.818999 
0.470743 -0.0306513 -1.12757 0.40865 -0.0442925 -1.18311 0.403557 -0.0368576 -1.16879 
0.381846 -0.029159 -1.09616 0.370488 -0.0313414 -1.18511 0.351279 -0.0282947 -1.12134 
0.431426 -0.0240085 -1.10432 0.42047 -0.0346414 -1.09414 0.343686 -0.00904325 -1.19303 
0.208344 -0.00522922 -0.244947 0.346509 -0.0441212 -0.974987 0.358712 -0.0188759 -0.570314 
0.443499 -0.0261321 -1.1286 0.351687 -0.0148718 -0.792832 0.396174 -0.0433028 -1.08905 
0.37265 -0.0447284 -1.0197 0.339262 -0.0342401 -1.05307 0.419448 -0.00987922 -1.17236 
0.395298 -0.013554 -1.09246 0.388813 -0.00585317 -1.0853 0.224343 -0.0448525 -0.244914 
0.439363 -0.0103725 -1.07219 0.363081 -0.0417276 -1.03675 0.419116 -0.035931 -1.16885 
0.367693 -0.0303519 -1.10902 0.390667 -0.0361221 -0.986812 0.438113 -0.0226366 -0.999096 
0.405684 -0.0224856 -0.833302 0.353736 -0.0343286 -1.11328 0.403222 -0.0163915 -0.950707 
0.409704 -0.0392493 -1.10776 0.369177 -0.0430236 -0.799877 0.393228 -0.0253726 -1.10142 
0.419415 -0.0154265 -1.08648 0.371718 -0.0418806 -0.724548 0.381242 -0.0370099 -0.963407 
0.379855 -0.0393324 -0.93657 0.378188 -0.0139651 -1.02321 0.417152 -0.0317928 -1.054 
0.339761 -0.0181825 -1.00861 0.429488 -0.0115117 -1.04252 0.395419 -0.0436724 -0.993766 
0.409699 -0.0377211 -1.05067 0.381281 -0.00521695 -1.11093 0.369612 -0.01221 -0.86676 
0.367512 -0.0133703 -0.83327 0.386739 -0.00831398 -0.932609 0.402811 -0.0359914 -0.93722 
0.362857 -0.033772 -1.07003 0.33549 -0.0158939 -0.683327 0.432414 -0.0442819 -1.08641 
0.389145 -0.0268175 -0.965296 0.229817 -0.00520101 -0.243405 0.409823 -0.0351266 -0.969537 
0.397972 -0.0119066 -0.933335 0.409959 -0.043926 -1.07604 0.392233 -0.0410017 -0.925482 
0.310883 -0.022285 -0.825218 0.417343 -0.0199536 -0.991966 0.397446 -0.0052509 -0.879341 
0.386191 -0.022313 -1.00812 0.482161 -0.00746679 -1.05599 0.363914 -0.0197524 -0.875441 
0.205293 -0.0325285 -0.243996 0.428919 -0.0109394 -0.881256 0.392178 -0.0442143 -0.782717 
0.43844 -0.0163899 -1.02644 0.398475 -0.0201441 -0.772014 0.35273 -0.0234917 -0.982181 
0.415988 -0.0244748 -0.943637 0.32371 -0.0421843 -0.864796 0.352956 -0.020488 -0.924883 
0.328543 -0.0441738 -0.413361 0.320862 -0.0341857 -0.816712 0.33337 -0.00515609 -0.426379 
0.369897 -0.0173015 -0.771112 0.388197 -0.0155203 -0.880257 0.387525 -0.0409908 -0.869281 
0.411514 -0.0359921 -0.915854 0.439279 -0.0166533 -0.81123 0.366724 -0.0390942 -0.892079 
0.422936 -0.0068691 -0.983145 0.250272 -0.0428647 -0.273037 0.357555 -0.035928 -0.570206 
0.287895 -0.0401615 -0.779124 0.370812 -0.0335287 -0.686623 0.449723 -0.0284332 -0.843432 
0.368395 -0.0213595 -0.92194 0.38632 -0.0377232 -0.704288 0.430891 -0.0294466 -0.854539 
0.331798 -0.0397085 -0.813138 0.3765 -0.0388947 -0.76009 0.28399 -0.0219058 -0.322545 
0.357113 -0.0360283 -0.785777 0.370777 -0.0436731 -0.65153 0.390397 -0.0318702 -0.816563 
0.379372 -0.0206375 -0.700638 0.404604 -0.010224 -0.696287 0.369796 -0.0376193 -0.735025 
0.344884 -0.0300418 -0.763865 0.232152 -0.0321738 -0.24316 0.222625 -0.0131701 -0.238974 
0.338725 -0.0161109 -1.0559 0.343005 -0.0123631 -0.558263 0.353252 -0.0121336 -0.675578 
0.387306 -0.0408163 -0.691267 0.38483 -0.0424408 -0.750629 0.389264 -0.00499694 -0.799737 
0.376474 -0.00550972 -0.86291 0.240022 -0.00644563 -0.257307 0.35593 -0.0418478 -0.772722 
0.365041 -0.00820863 -0.719805 0.351135 -0.0432352 -0.712048 0.347625 -0.00895013 -0.69439 
0.412782 -0.0311573 -0.846327 0.386487 -0.0267154 -0.765435 0.344131 -0.0247885 -0.427694 
0.34851 -0.0381612 -0.736453 0.338114 -0.0127697 -0.405251 0.410916 -0.0185938 -0.869713 
0.360107 -0.022676 -0.790814 0.354502 -0.0168929 -0.533481 0.366154 -0.0442019 -0.641683 
0.324491 -0.0369204 -0.379747 0.38702 -0.0328505 -0.731534 0.369324 -0.0447763 -0.70317 
0.309982 -0.0184852 -0.664289 0.335779 -0.0179235 -0.611982 0.208603 -0.0233058 -0.236284 
0.306669 -0.0162429 -0.372243 0.342488 -0.00528297 -0.412066 0.352308 -0.0426622 -0.601013 
0.285428 -0.0223427 -0.63592 0.373172 -0.0389941 -0.618843 0.214339 -0.00626077 -0.236531 
0.346024 -0.00665125 -0.599171 0.264556 -0.0131403 -0.299477 0.368308 -0.0414062 -0.692331 
0.366368 -0.0425523 -0.674459 0.390808 -0.00605988 -0.765298 0.345762 -0.0430998 -0.698567 
0.369271 -0.0283924 -0.62729 0.219843 -0.0297862 -0.237081 0.335853 -0.0374754 -0.406651 
0.286967 -0.0371204 -0.333718 0.310632 -0.0370379 -0.604885 0.339444 -0.0318293 -0.397942 
0.31537 -0.0372928 -0.374228 0.361676 -0.0312525 -0.614658 0.31774 -0.0392882 -0.509254 
0.333429 -0.0231836 -0.736255 0.316423 -0.00763972 -0.495849 0.301841 -0.0132983 -0.357171 
0.367646 -0.0419807 -0.55499 0.253692 -0.0187293 -0.270666 0.329546 -0.0195156 -0.601967 
0.273202 -0.0132658 -0.313961 0.317869 -0.0333056 -0.488923 0.23706 -0.0428011 -0.237958 
0.319724 -0.0066451 -0.685728 0.362592 -0.0319531 -0.549609 0.368997 -0.0158341 -0.680049 
0.357679 -0.0286195 -0.657062 0.376915 -0.0339719 -0.657749 
VERTICES 500 1000
1 0 
1 1 
1 2 
1 3 
1 4 
1 5 
1 6 
1 7 
1 8 
1 9 
1 10 
1 11 
1 12 
1 13 
1 14 
1 15 
1 16 
1 17 
1 18 
1 19 
1 20 
1 21 
1 22 
1 23 
1 24 
1 25 
1 26 
1 27 
1 28 
1 29 
1 30 
1 31 
1 32 
1 33 
1 34 
1 35 
1 36 
1 37 
1 38 
1 39 
1 40 
1 41 
1 42 
1 43 
1 44 
1 45 
1 46 
1 47 
1 48 
1 49 
1 50 
1 51 
1 52 
1 53 
1 54 
1 55 
1 56 
1 57 
1 58 
1 59 
1 60 
1 61 
1 62 
1 63 
1 64 
1 65 
1 66 
1 67 
1 68 
1 69 
1 70 
1 71 
1 72 
1 73 
1 74 
1 75 
1 76 
1 77 
1 78 
1 79 
1 80 
1 81 
1 82 
1 83 
1 84 
1 85 
1 86 
1 87 
1 88 
1 89 
1 90 
1 91 
1 92 
1 93 
1 94 
1 95 
1 96 
1 97 
1 98 
1 99 
1 100 
1 101 
1 102 
1 103 
1 104 
1 105 
1 106 
1 107 
1 108 
1 109 
1 110 
1 111 
1 112 
1 113 
1 114 
1 115 
1 116 
1 117 
1 118 
1 119 
1 120 
1 121 
1 122 
1 123 
1 124 
1 125 
1 126 
1 127 
1 128 
1 129 
1 130 
1 131 
1 132 
1 133 
1 134 
1 135 
1 136 
1 137 
1 138 
1 139 
1 140 
1 141 
1 142 
1 143 
1 144 
1 145 
1 146 
1 147 
1 148 
1 149 
1 150 
1 151 
1 152 
1 153 
1 154 
1 155 
1 156 
1 157 
1 158 
1 159 
1 160 
1 161 
1 162 
1 163 
1 164 
1 165 
1 166 
1 167 
1 168 
1 169 
1 170 
1 171 
1 172 
1 173 
1 174 
1 175 
1 176 
1 177 
1 178 
1 179 
1 180 
1 181 
1 182 
1 183 
1 184 
1 185 
1 186 
1 187 
1 188 
1 189 
1 190 
1 191 
1 192 
1 193 
1 194 
1 195 
1 196 
1 197 
1 198 
1 199 
1 200 
1 201 
1 202 
1 203 
1 204 
1 205 
1 206 
1 207 
1 208 
1 209 
1 210 
1 211 
1 212 
1 213 
1 214 
1 215 
1 216 
1 217 
1 218 
1 219 
1 220 
1 221 
1 222 
1 223 
1 224 
1 225 
1 226 
1 227 
1 228 
1 229 
1 230 
1 231 
1 232 
1 233 
1 234 
1 235 
1 236 
1 237 
1 238 
1 239 
1 240 
1 241 
1 242 
1 243 
1 244 
1 245 
1 246 
1 247 
1 248 
1 249 
1 250 
1 251 
1 252 
1 253 
1 254 
1 255 
1 256 
1 257 
1 258 
1 259 
1 260 
1 261 
1 262 
1 263 
1 264 
1 265 
1 266 
1 267 
1 268 
1 269 
1 270 
1 271 
1 272 
1 273 
1 274 
1 275 
1 276 
1 277 
1 278 
1 279 
1 280 
1 281 
1 282 
1 283 
1 284 
1 285 
1 286 
1 287 
1 288 
1 289 
1 290 
1 291 
1 292 
1 293 
1 294 
1 295 
1 296 
1 297 
1 298 
1 299 
1 300 
1 301 
1 302 
1 303 
1 304 
1 305 
1 306 
1 307 
1 308 
1 309 
1 310 
1 311 
1 312 
1 313 
1 314 
1 315 
1 316 
1 317 
1 318 
1 319 
1 320 
1 321 
1 322 
1 323 
1 324 
1 325 
1 326 
1 327 
1 328 
1 329 
1 330 
1 331 
1 332 
1 333 
1 334 
1 335 
1 336 
1 337 
1 338 
1 339 
1 340 
1 341 
1 342 
1 343 
1 344 
1 345 
1 346 
1 347 
1 348 
1 349 
1 350 
1 351 
1 352 
1 353 
1 354 
1 355 
1 356 
1 357 
1 358 
1 359 
1 360 
1 361 
1 362 
1 363 
1 364 
1 365 
1 366 
1 367 
1 368 
1 369 
1 370 
1 371 
1 372 
1 373 
1 374 
1 375 
1 376 
1 377 
1 378 
1 379 
1 380 
1 381 
1 382 
1 383 
1 384 
1 385 
1 386 
1 387 
1 388 
1 389 
1 390 
1 391 
1 392 
1 393 
1 394 
1 395 
1 396 
1 397 
1 398 
1 399 
1 400 
1 401 
1 402 
1 403 
1 404 
1 405 
1 406 
1 407 
1 408 
1 409 
1 410 
1 411 
1 412 
1 413 
1 414 
1 415 
1 416 
1 417 
1 418 
1 419 
1 420 
1 421 
1 422 
1 423 
1 424 
1 425 
1 426 
1 427 
1 428 
1 429 
1 430 
1 431 
1 432 
1 433 
1 434 
1 435 
1 436 
1 437 
1 438 
1 439 
1 440 
1 441 
1 442 
1 443 
1 444 
1 445 
1 446 
1 447 
1 448 
1 449 
1 450 
1 451 
1 452 
1 453 
1 454 
1 455 
1 456 
1 457 
1 458 
1 459 
1 460 
1 461 
1 462 
1 463 
1 464 
1 465 
1 466 
1 467 
1 468 
1 469 
1 470 
1 471 
1 472 
1 473 
1 474 
1 475 
1 476 
1 477 
1 478 
1 479 
1 480 
1 481 
1 482 
1 483 
1 484 
1 485 
1 486 
1 487 
1 488 
1 489 
1 490 
1 491 
1 492 
1 493 
1 494 
1 495 
1 496 
1 497 
1 498 
1 499 

POINT_DATA 500
FIELD FieldData 7
id 1 500 int
1 2 3 4 5 6 7 8 9 
10 11 12 13 14 15 16 17 18 
19 20 21 22 23 24 25 26 27 
28 29 30 31 32 33 34 35 36 
37 38 39 40 41 42 43 44 45 
46 47 48 49 50 51 52 53 54 
55 56 57 58 59 60 61 62 63 
64 65 66 67 68 69 70 71 72 
73 74 75 76 77 78 79 80 81 
82 83 84 85 86 87 88 89 90 
91 92 93 94 95 96 97 98 99 
100 101 102 103 104 105 106 107 108 
109 110 111 112 113 114 115 116 117 
118 119 120 121 122 123 124 125 126 
127 128 129 130 131 132 133 134 135 
136 137 138 139 140 141 142 143 144 
145 146 147 148 149 150 151 152 153 
154 155 156 157 158 159 160 161 162 
163 164 165 166 167 168 169 170 171 
172 173 174 175 176 177 178 179 180 
181 182 183 184 185 186 187 188 189 
190 191 192 193 194 195 196 197 198 
199 200 201 202 203 204 205 206 207 
208 209 210 211 212 213 214 215 216 
217 218 219 220 221 222 223 224 225 
226 227 228 229 230 231 232 233 234 
235 236 237 238 239 240 241 242 243 
244 245 246 247 248 249 250 251 252 
253 254 255 256 257 258 259 260 261 
262 263 264 265 266 267 268 269 270 
271 272 273 274 275 276 277 278 279 
280 281 282 283 284 285 286 287 288 
289 290 291 292 293 294 295 296 297 
298 299 300 301 302 303 304 305 306 
307 308 309 310 311 312 313 314 315 
316 317 318 319 320 321 322 323 324 
325 326 327 328 329 330 331 332 333 
334 335 336 337 338 339 340 341 342 
343 344 345 346 347 348 349 350 351 
352 353 354 355 356 357 358 359 360 
361 362 363 364 365 366 367 368 369 
370 371 372 373 374 375 376 377 378 
379 380 381 382 383 384 385 386 387 
388 389 390 391 392 393 394 395 396 
397 398 399 400 401 402 403 404 405 
406 407 408 409 410 411 412 413 414 
415 416 417 418 419 420 421 422 423 
424 425 426 427 428 429 430 431 432 
433 434 435 436 437 438 439 440 441 
442 443 444 445 446 447 448 449 450 
451 452 453 454 455 456 457 458 459 
460 461 462 463 464 465 466 467 468 
469 470 471 472 473 474 475 476 477 
478 479 480 481 482 483 484 485 486 
487 488 489 490 491 492 493 494 495 
496 497 498 499 500 
type 1 500 int
1 1 1 1 1 1 1 1 1 
1 1 1 1 1 1 1 1 1 
1 1 1 1 1 1 1 1 1 
1 1 1 1 1 1 1 1 1 
1 1 1 1 1 1 1 1 1 
1 1 1 1 1 1 1 1 1 
1 1 1 1 1 1 1 1 1 
1 1 1 1 1 1 1 1 1 
1 1 1 1 1 1 1 1 1 
1 1 1 1 1 1 1 1 1 
1 1 1 1 1 1 1 1 1 
1 1 1 1 1 1 1 1 1 
1 1 1 1 1 1 1 1 1 
1 1 1 1 1 1 1 1 1 
1 1 1 1 1 1 1 1 1 
1 1 1 1 1 1 1 1 1 
1 1 1 1 1 1 1 1 1 
1 1 1 1 1 1 1 1 1 
1 1 1 1 1 1 1 1 1 
1 1 1 1 1 1 1 1 1 
1 1 1 1 1 1 1 1 1 
1 1 1 1 1 1 1 1 1 
1 1 1 1 1 1 1 1 1 
1 1 1 1 1 1 1 1 1 
1 1 1 1 1 1 1 1 1 
1 1 1 1 1 1 1 1 1 
1 1 1 1 1 1 1 1 1 
1 1 1 1 1 1 1 1 1 
1 1 1 1 1 1 1 1 1 
1 1 1 1 1 1 1 1 1 
1 1 1 1 1 1 1 1 1 
1 1 1 1 1 1 1 1 1 
1 1 1 1 1 1 1 1 1 
1 1 1 1 1 1 1 1 1 
1 1 1 1 1 1 1 1 1 
1 1 1 1 1 1 1 1 1 
1 1 1 1 1 1 1 1 1 
1 1 1 1 1 1 1 1 1 
1 1 1 1 1 1 1 1 1 
1 1 1 1 1 1 1 1 1 
1 1 1 1 1 1 1 1 1 
1 1 1 1 1 1 1 1 1 
1 1 1 1 1 1 1 1 1 
1 1 1 1 1 1 1 1 1 
1 1 1 1 1 1 1 1 1 
1 1 1 1 1 1 1 1 1 
1 1 1 1 1 1 1 1 1 
1 1 1 1 1 1 1 1 1 
1 1 1 1 1 1 1 1 1 
1 1 1 1 1 1 1 1 1 
1 1 1 1 1 1 1 1 1 
1 1 1 1 1 1 1 1 1 
1 1 1 1 1 1 1 1 1 
1 1 1 1 1 1 1 1 1 
1 1 1 1 1 1 1 1 1 
1 1 1 1 1 
i 3 500 int
0 0 0 0 0 0 0 0 0 
0 0 0 0 0 0 0 0 0 
0 0 0 0 0 0 0 0 0 
0 0 0 0 0 0 0 0 0 
0 0 0 0 0 0 0 0 0 
0 0 0 0 0 0 0 0 0 
0 0 0 0 0 0 0 0 0 
0 0 0 0 0 0 0 0 0 
0 0 0 0 0 0 0 0 0 
0 0 0 0 0 0 0 0 0 
0 0 0 0 0 0 0 0 0 
0 0 0 0 0 0 0 0 0 
0 0 0 0 0 0 0 0 0 
0 0 0 0 0 0 0 0 0 
0 0 0 0 0 0 0 0 0 
0 0 0 0 0 0 0 0 0 
0 0 0 0 0 0 0 0 0 
0 0 0 0 0 0 0 0 0 
0 0 0 0 0 0 0 0 0 
0 0 0 0 0 0 0 0 0 
0 0 0 0 0 0 0 0 0 
0 0 0 0 0 0 0 0 0 
0 0 0 0 0 0 0 0 0 
0 0 0 0 0 0 0 0 0 
0 0 0 0 0 0 0 0 0 
0 0 0 0 0 0 0 0 0 
0 0 0 0 0 0 0 0 0 
0 0 0 0 0 0 0 0 0 
0 0 0 0 0 0 0 0 0 
0 0 0 0 0 0 0 0 0 
0 0 0 0 0 0 0 0 0 
0 0 0 0 0 0 0 0 0 
0 0 0 0 0 0 0 0 0 
0 0 0 0 0 0 0 0 0 
0 0 0 0 0 0 0 0 0 
0 0 0 0 0 0 0 0 0 
0 0 0 0 0 0 0 0 0 
0 0 0 0 0 0 0 0 0 
0 0 0 0 0 0 0 0 0 
0 0 0 0 0 0 0 0 0 
0 0 0 0 0 0 0 0 0 
0 0 0 0 0 0 0 0 0 
0 0 0 0 0 0 0 0 0 
0 0 0 0 0 0 0 0 0 
0 0 0 0 0 0 0 0 0 
0 0 0 0 0 0 0 0 0 
0 0 0 0 0 0 0 0 0 
0 0 0 0 0 0 0 0 0 
0 0 0 0 0 0 0 0 0 
0 0 0 0 0 0 0 0 0 
0 0 0 0 0 0 0 0 0 
0 0 0 0 0 0 0 0 0 
0 0 0 0 0 0 0 0 0 
0 0 0 0 0 0 0 0 0 
0 0 0 0 0 0 0 0 0 
0 0 0 0 0 0 0 0 0 
0 0 0 0 0 0 0 0 0 
0 0 0 0 0 0 0 0 0 
0 0 0 0 0 0 0 0 0 
0 0 0 0 0 0 0 0 0 
0 0 0 0 0 0 0 0 0 
0 0 0 0 0 0 0 0 0 
0 0 0 0 0 0 0 0 0 
0 0 0 0 0 0 0 0 0 
0 0 0 0 0 0 0 0 0 
0 0 0 0 0 0 0 0 0 
0 0 0 0 0 0 0 0 0 
0 0 0 0 0 0 0 0 0 
0 0 0 0 0 0 0 0 0 
0 0 0 0 0 0 0 0 0 
0 0 0 0 0 0 0 0 0 
0 0 0 0 0 0 0 0 0 
0 0 0 0 0 0 0 0 0 
0 0 0 0 0 0 0 0 0 
0 0 0 0 0 0 0 0 0 
0 0 0 0 0 0 0 0 0 
0 0 0 0 0 0 0 0 0 
0 0 0 0 0 0 0 0 0 
0 0 0 0 0 0 0 0 0 
0 0 0 0 0 0 0 0 0 
0 0 0 0 0 0 0 0 0 
0 0 0 0 0 0 0 0 0 
0 0 0 0 0 0 0 0 0 
0 0 0 0 0 0 0 0 0 
0 0 0 0 0 0 0 0 0 
0 0 0 0 0 0 0 0 0 
0 0 0 0 0 0 0 0 0 
0 0 0 0 0 0 0 0 0 
0 0 0 0 0 0 0 0 0 
0 0 0 0 0 0 0 0 0 
0 0 0 0 0 0 0 0 0 
0 0 0 0 0 0 0 0 0 
0 0 0 0 0 0 0 0 0 
0 0 0 0 0 0 0 0 0 
0 0 0 0 0 0 0 0 0 
0 0 0 0 0 0 0 0 0 
0 0 0 0 0 0 0 0 0 
0 0 0 0 0 0 0 0 0 
0 0 0 0 0 0 0 0 0 
0 0 0 0 0 0 0 0 0 
0 0 0 0 0 0 0 0 0 
0 0 0 0 0 0 0 0 0 
0 0 0 0 0 0 0 0 0 
0 0 0 0 0 0 0 0 0 
0 0 0 0 0 0 0 0 0 
0 0 0 0 0 0 0 0 0 
0 0 0 0 0 0 0 0 0 
0 0 0 0 0 0 0 0 0 
0 0 0 0 0 0 0 0 0 
0 0 0 0 0 0 0 0 0 
0 0 0 0 0 0 0 0 0 
0 0 0 0 0 0 0 0 0 
0 0 0 0 0 0 0 0 0 
0 0 0 0 0 0 0 0 0 
0 0 0 0 0 0 0 0 0 
0 0 0 0 0 0 0 0 0 
0 0 0 0 0 0 0 0 0 
0 0 0 0 0 0 0 0 0 
0 0 0 0 0 0 0 0 0 
0 0 0 0 0 0 0 0 0 
0 0 0 0 0 0 0 0 0 
0 0 0 0 0 0 0 0 0 
0 0 0 0 0 0 0 0 0 
0 0 0 0 0 0 0 0 0 
0 0 0 0 0 0 0 0 0 
0 0 0 0 0 0 0 0 0 
0 0 0 0 0 0 0 0 0 
0 0 0 0 0 0 0 0 0 
0 0 0 0 0 0 0 0 0 
0 0 0 0 0 0 0 0 0 
0 0 0 0 0 0 0 0 0 
0 0 0 0 0 0 0 0 0 
0 0 0 0 0 0 0 0 0 
0 0 0 0 0 0 0 0 0 
0 0 0 0 0 0 0 0 0 
0 0 0 0 0 0 0 0 0 
0 0 0 0 0 0 0 0 0 
0 0 0 0 0 0 0 0 0 
0 0 0 0 0 0 0 0 0 
0 0 0 0 0 0 0 0 0 
0 0 0 0 0 0 0 0 0 
0 0 0 0 0 0 0 0 0 
0 0 0 0 0 0 0 0 0 
0 0 0 0 0 0 0 0 0 
0 0 0 0 0 0 0 0 0 
0 0 0 0 0 0 0 0 0 
0 0 0 0 0 0 0 0 0 
0 0 0 0 0 0 0 0 0 
0 0 0 0 0 0 0 0 0 
0 0 0 0 0 0 0 0 0 
0 0 0 0 0 0 0 0 0 
0 0 0 0 0 0 0 0 0 
0 0 0 0 0 0 0 0 0 
0 0 0 0 0 0 0 0 0 
0 0 0 0 0 0 0 0 0 
0 0 0 0 0 0 0 0 0 
0 0 0 0 0 0 0 0 0 
0 0 0 0 0 0 0 0 0 
0 0 0 0 0 0 0 0 0 
0 0 0 0 0 0 0 0 0 
0 0 0 0 0 0 0 0 0 
0 0 0 0 0 0 0 0 0 
0 0 0 0 0 0 0 0 0 
0 0 0 0 0 0 0 0 0 
0 0 0 0 0 0 0 0 0 
0 0 0 0 0 0 0 0 0 
0 0 0 0 0 0 
v 3 500 double
0.46354 -0.0275009 -0.158696 0.882828 -0.28532 -2.94077 -0.44702 0.00946351 -0.350343 
1.44228 -0.00166702 -1.36961 -0.258342 -0.0600496 -0.191301 -0.662674 0.200666 -0.887841 
-0.976314 -0.29078 -0.39512 -0.355462 0.031393 -0.378039 -0.187731 0.0172905 -0.529146 
-0.067093 0.451408 -0.379103 -0.203239 0.0811737 -0.455736 0.0310896 -0.258845 -0.0820779 
-0.804978 0.797064 0.107062 2.40741 0.0535776 -0.882832 -0.341783 0.060187 -0.435676 
0.451909 -0.0643114 -4.14313 -0.684663 -0.0815031 -0.288542 0.171589 -0.0362492 -0.0684725 
-1.28178 0.295894 0.142555 -0.108769 0.00751489 0.0188692 -0.407684 -0.784094 0.370102 
-0.421406 0.000351846 -0.160795 -0.0321398 -0.154434 0.0160441 -0.625664 0.140428 -0.625672 
0.719355 0.00885414 -1.66842 -0.899226 -0.13844 -0.2842 -0.0285631 0.135755 0.0592748 
0.298811 -0.0355355 -0.11454 -0.0457377 0.110035 -0.15503 0.233905 0.11095 -4.29404 
-0.916193 0.36999 -0.0115061 0.122551 0.0217879 0.347541 0.551785 -0.0101105 -4.12606 
-0.0280236 0.186918 -0.152555 0.625676 -0.122682 -1.03444 -1.34233 -0.461829 0.306194 
-0.290504 0.174156 0.283019 -1.27459 0.363169 0.223367 -1.1997 0.357685 0.149557 
0.00909744 -0.0236195 0.0419264 0.0110681 0.010208 -0.000198735 0.711873 -0.24139 0.19327 
-0.482997 -0.16549 0.308607 -0.474473 0.0421455 0.158953 -0.211853 -0.0811797 0.0593584 
0.00680489 0.000178703 0.00255837 -0.858797 0.23964 -0.280263 0.758233 -0.717186 -0.127504 
0.179374 0.0124893 -0.0189753 0.149159 -0.0588992 0.13016 -0.0389627 -0.308351 -0.119624 
0.231925 -0.0995849 0.0144498 -0.964053 -0.214076 0.350972 -1.20208 -0.117638 0.132222 
1.23518 0.203478 -0.446489 -0.0453296 -0.640561 -1.47301 -0.0283925 -0.170824 -3.70999 
-0.296479 0.0707144 -0.0229369 -0.678784 0.0994551 -0.446539 -1.22851 0.107733 0.290889 
-0.393909 0.232387 -0.0814146 -0.0634697 -0.142312 0.0368118 -1.02964 -0.387454 -0.0644836 
-1.09042 -0.0959376 0.693549 -0.43644 0.238882 0.809758 -0.0226809 -0.000484949 -0.154376 
0.273807 0.0659648 -0.183425 -0.0110576 0.207828 -0.0761446 -0.108511 0.0111637 -0.0362933 
-1.16399 0.270509 0.247909 -0.0324496 -0.0403643 -0.0102746 -0.00809318 0.00438526 0.0862775 
-0.0875641 -0.400363 0.0466735 -1.2252 0.344505 0.10924 -0.695774 -0.954864 0.55218 
-1.33821 -0.21451 0.0352593 -1.01552 0.474246 0.653134 -0.0108435 -0.115907 -0.191968 
-0.364898 -0.111357 0.208123 0.423562 -0.17927 0.200856 -1.19709 -0.413048 -0.283694 
0.760598 0.0535628 -0.693026 -0.159958 0.204432 0.235827 -0.370384 0.0788722 0.762372 
0.0743962 0.00552787 -0.0105585 -0.486422 -1.03679 0.852685 -1.24633 0.590758 0.160108 
-1.83661 0.889796 -1.61534 -0.213369 -0.266538 0.320619 -0.959992 0.31843 -0.764909 
1.14491 0.27161 -0.377563 -0.278222 0.279873 -0.286967 -0.317145 0.472383 -1.31421 
-1.18384 -0.620846 0.488874 -0.772067 0.201472 0.346756 -0.966993 0.187584 0.662306 
-0.0560878 0.106706 -0.20139 0.0771677 0.875266 -2.1461 0.927491 -0.132715 -1.64645 
-1.09527 0.124541 -0.346822 -0.563643 0.305758 0.0173272 -0.00086713 0.00682659 0.00261186 
-1.19465 0.0461753 -0.182118 0.0595712 0.26539 0.0946244 0.0801315 -0.493064 -0.470904 
1.76973 0.0993917 -0.324159 -2.42584 -0.361796 0.576937 -0.954015 -0.125965 0.421943 
-0.151854 -0.234164 0.179242 -0.714957 -0.374371 -0.00373959 0.422362 0.00749891 -0.376038 
-0.570003 0.0692563 0.191186 -0.0274519 -0.0279726 0.0143257 -0.058446 0.353906 0.135162 
-0.409788 0.215188 0.144747 1.21424 -0.261916 0.265076 0.192169 -0.155471 -0.0289961 
-0.150892 -0.00247392 -0.29439 0.247809 0.0103714 0.0975968 -0.712044 1.50629 0.0582095 
0.194875 -0.399348 0.338301 -0.0245379 -0.0910322 0.117967 0.0225493 -0.0236319 0.053428 
0.207686 -0.0272036 -0.18782 -0.0666891 0.0751599 0.0566326 -1.57426 0.0159557 0.216701 
-0.0166833 0.00504474 -0.0140927 -0.215812 -0.0855398 0.147739 0.00221 0.0133913 0.105554 
-1.64789 -0.451065 0.0458535 -1.56181 1.00465 -0.641834 0.00819623 0.00946415 0.0267846 
-0.92439 0.21497 -0.25558 -0.931899 -0.219063 0.901124 -1.05012 0.573813 0.439143 
0.0979427 0.729922 0.15412 -1.32703 -0.0351903 0.24277 -0.213983 -0.193063 0.00976186 
0.0347254 0.0944613 0.135936 -0.425691 0.38818 -0.302888 0.169522 0.00396345 -0.0301892 
-0.00612254 0.0967874 -0.133157 0.057324 -0.0450772 -0.0102298 -0.167791 0.343265 -0.000911323 
0.0052589 -0.150263 -0.254636 0.467468 0.244725 0.335571 -1.33795 -0.383947 -0.492384 
-0.546292 -0.0190897 0.452069 0.018159 -0.0904956 -0.152542 -0.325282 -0.146721 0.508121 
-0.403336 0.351465 0.220903 0.282383 -0.0477546 0.192155 -1.78005 -0.264785 0.0372349 
-0.0263696 0.0244845 0.0894684 0.658326 0.137963 -1.17203 0.0221286 -0.142626 -0.0143217 
-0.883576 -0.340489 -0.676254 -0.174315 -0.0350934 -0.0103768 -2.27679 0.321781 -0.00835469 
0.0359549 -0.0389545 0.00107603 -1.34983 -0.112087 -0.822212 0.0588488 0.151346 0.321126 
-1.15053 0.0990385 0.364713 -1.54494 0.847017 0.150124 -1.56451 -0.269121 -0.0242272 
-0.150145 -0.0099562 -0.0672891 -1.91612 0.209803 0.0110491 0.915376 -0.0480011 0.580135 
-0.962999 0.369453 -0.039163 -1.93342 -0.485592 0.0421749 1.61461 -0.568041 -1.33819 
-0.919822 0.252653 0.272474 0.244172 -0.571441 -0.528635 -0.0269206 -0.106083 0.0538917 
1.55286 0.00825568 0.198811 -1.73792 -0.476674 0.00690222 0.98534 0.735195 -0.181155 
0.0130756 0.0339259 0.0782528 -1.2615 1.56752 0.782133 -1.39407 -0.226774 0.217683 
0.490539 0.568538 0.0345153 0.259151 -0.0103637 0.0228129 -0.0611644 0.118072 0.0478455 