# vtk DataFile Version 4.0
Generated by LIGGGHTS
ASCII
DATASET POLYDATA
POINTS 500 float
0.461625 -0.0443353 -1.17212 0.47903 -0.0354749 -1.15959 0.00494568 -0.0250935 -1.19501 
0.0312374 -0.0266944 -1.17536 0.00638161 -0.0390148 -1.11302 0.0343536 -0.00530444 -1.17761 
0.0352391 -0.0358388 -1.17988 0.00751069 -0.0150497 -1.1353 0.116031 -0.028657 -1.12925 
0.493252 -0.00570377 -1.16491 0.389716 -0.0197771 -1.16541 0.476824 -0.0169642 -1.18937 
0.0223698 -0.0211887 -1.16118 0.417025 -0.00515479 -1.18737 0.0319186 -0.00502437 -1.15667 
0.439763 -0.0290952 -1.18819 0.020698 -0.0448486 -1.17189 0.494745 -0.0449325 -1.17832 
0.0325502 -0.0379766 -1.19493 0.485952 -0.0148972 -1.17836 0.00559035 -0.0192058 -1.17063 
0.316021 -0.0213443 -1.18846 0.494995 -0.0449294 -1.195 0.0522541 -0.00722497 -1.18601 
0.34183 -0.0194137 -1.17463 0.433622 -0.0424835 -1.1782 0.494263 -0.0294357 -1.18596 
0.472855 -0.0449757 -1.19498 0.435142 -0.0151835 -1.16012 0.13023 -0.0181506 -1.195 
0.0298106 -0.0218411 -1.18645 0.471588 -0.0445732 -1.16819 0.451924 -0.00636502 -1.17158 
0.487897 -0.0218851 -1.17045 0.360542 -0.0350593 -0.981601 0.0276677 -0.0350264 -1.18621 
0.448566 -0.00504897 -1.195 0.0150903 -0.0449309 -1.19502 0.0367152 -0.0318837 -1.16841 
0.494803 -0.00528755 -1.18503 0.214975 -0.0239689 -0.245002 0.20855 -0.0278556 -1.19269 
0.0727926 -0.0256695 -1.09238 0.447916 -0.0357704 -1.16959 0.155732 -0.0360461 -1.07515 
0.481819 -0.0353274 -1.19493 0.00573634 -0.0374171 -1.17758 0.00495451 -0.0212463 -1.18579 
0.486773 -0.0449955 -1.18519 0.466798 -0.0259695 -1.17802 0.433493 -0.00499723 -1.19477 
0.484805 -0.0449739 -1.195 0.0152135 -0.00497702 -1.18511 0.0243791 -0.0397496 -1.16402 
0.00844542 -0.0278222 -1.1755 0.014867 -0.0360559 -1.16968 0.102766 -0.0199269 -1.195 
0.0692391 -0.0155712 -1.05821 0.0169165 -0.00521326 -1.17533 0.0298922 -0.0200879 -1.16778 
0.0219351 -0.0355811 -1.1947 0.471827 -0.0349444 -1.19501 0.013421 -0.0176846 -1.16457 
0.042371 -0.0272867 -1.17977 0.0938378 -0.0287413 -0.953493 0.459933 -0.0136524 -1.18871 
0.492204 -0.0119405 -1.15792 0.489522 -0.0338802 -1.16194 0.461238 -0.00523546 -1.19501 
0.00494868 -0.0138742 -1.17905 0.49184 -0.0349266 -1.19501 0.494925 -0.0153907 -1.18499 
0.0447339 -0.0171322 -1.19194 0.0135172 -0.0201267 -1.19502 0.0382254 -0.0447756 -1.17474 
0.0576989 -0.0325338 -1.18149 0.0260817 -0.00519746 -1.17143 0.484793 -0.00572016 -1.15774 
0.449523 -0.0330887 -1.18651 0.494826 -0.0416811 -1.16888 0.0432123 -0.0449717 -1.16542 
0.0223215 -0.0235356 -1.17875 0.477003 -0.012319 -1.17396 0.00696169 -0.00500885 -1.17494 
0.277131 -0.0389946 -0.321635 0.0444689 -0.023456 -1.16678 0.0161382 -0.034809 -1.1799 
0.414507 -0.0369765 -1.19034 0.476979 -0.0449893 -1.15683 0.00514913 -0.00597125 -1.18513 
0.044084 -0.0283104 -1.19491 0.440821 -0.00638382 -1.17062 0.00542942 -0.0106537 -1.16502 
0.00499209 -0.0312355 -1.18539 0.00505432 -0.0450079 -1.1949 0.011432 -0.0138699 -1.18753 
0.244908 -0.0451972 -1.17039 0.0860093 -0.00582108 -1.18793 0.314358 -0.0228584 -1.15758 
0.0638137 -0.0408293 -1.19454 0.0898447 -0.0172776 -1.19454 0.206171 -0.0448174 -0.245002 
0.0135252 -0.0260398 -1.18403 0.48582 -0.010718 -1.16927 0.404205 -0.0254328 -1.195 
0.450031 -0.0153968 -1.16574 0.140033 -0.0231025 -1.18333 0.17892 -0.0429286 -1.02129 
0.168048 -0.0446262 -1.19487 0.0442992 -0.03557 -1.17472 0.291316 -0.0257618 -1.16611 
0.0705377 -0.0357117 -1.18921 0.494825 -0.00509353 -1.19501 0.4409 -0.0119426 -1.19501 
0.0485226 -0.0393632 -1.15781 0.0364756 -0.0218606 -1.19501 0.357907 -0.0402617 -0.593019 
0.46633 -0.0055109 -1.18642 0.475515 -0.044282 -1.17788 0.049107 -0.0324757 -1.18677 
0.407192 -0.0163245 -1.17555 0.494529 -0.0189517 -1.16405 0.47143 -0.00506278 -1.195 
0.476317 -0.00538089 -1.1863 0.4817 -0.0053079 -1.19495 0.0332587 -0.00500096 -1.18782 
0.205002 -0.0248862 -0.245002 0.484246 -0.0340302 -1.17081 0.494995 -0.0151555 -1.19499 
0.0133537 -0.0449899 -1.17908 0.0377629 -0.0180838 -1.18154 0.494709 -0.0252567 -1.19501 
0.0582529 -0.00506887 -1.19498 0.0200608 -0.043754 -1.18641 0.0537692 -0.0140279 -1.19491 
0.452807 -0.0215701 -1.18658 0.0241257 -0.0221698 -1.14738 0.370525 -0.0164321 -1.18413 
0.482674 -0.00522001 -1.17821 0.320777 -0.0446539 -1.19311 0.466374 -0.0216647 -1.18799 
0.485262 -0.0273443 -1.17843 0.484908 -0.0150618 -1.195 0.469805 -0.0184121 -1.16997 
0.485161 -0.0449199 -1.17528 0.453845 -0.0358137 -1.19503 0.01456 -0.0163875 -1.17843 
0.0614535 -0.0203672 -1.19386 0.467817 -0.014387 -1.19491 0.258835 -0.0423812 -1.19325 
0.0783188 -0.00511308 -1.195 0.463241 -0.0410503 -1.19495 0.00517856 -0.0448769 -1.18492 
0.4771 -0.021188 -1.17935 0.364277 -0.0207538 -1.06123 0.473833 -0.0247105 -1.19499 
0.0291084 -0.0286232 -1.19498 0.492529 -0.00504107 -1.17516 0.0148943 -0.0049633 -1.19505 
0.484609 -0.0257321 -1.195 0.00497447 -0.0350518 -1.19496 0.321467 -0.0149783 -1.19462 
0.0251387 -0.0299872 -1.1644 0.0217175 -0.0153292 -1.18532 0.0343637 -0.0439748 -1.18651 
0.470329 -0.0137944 -1.18192 0.0477481 -0.037319 -1.13351 0.468443 -0.0372597 -1.16215 
0.0391119 -0.00907376 -1.19498 0.0341211 -0.0415794 -1.16101 0.419829 -0.014322 -1.195 
0.0205138 -0.0131329 -1.19496 0.481741 -0.0441259 -1.16581 0.491959 -0.035029 -1.17714 
0.309107 -0.0149215 -1.19366 0.032032 -0.0107002 -1.16579 0.0962409 -0.00905789 -1.195 
0.494199 -0.0228661 -1.17844 0.0170206 -0.0258248 -1.17027 0.0606406 -0.0313653 -1.19501 
0.379174 -0.0123189 -1.19316 0.495002 -0.0394201 -1.18666 0.485713 -0.0094186 -1.18676 
0.00496879 -0.01498 -1.19502 0.0694528 -0.0266595 -1.19499 0.176773 -0.0105353 -1.16726 
0.0207052 -0.0135765 -1.17059 0.366406 -0.031217 -1.19482 0.490499 -0.0448069 -1.16041 
0.33399 -0.0167422 -1.09749 0.025278 -0.0450005 -1.19494 0.430897 -0.0438949 -1.19479 
0.434598 -0.01276 -1.18621 0.00495603 -0.00498723 -1.19503 0.205315 -0.0239768 -1.17729 
0.179762 -0.0438499 -1.19453 0.412376 -0.0344553 -1.17087 0.477529 -0.0405191 -1.18709 
0.205861 -0.01487 -0.245002 0.494957 -0.0289239 -1.16895 0.118714 -0.0294969 -1.16355 
0.0477458 -0.0167319 -1.18216 0.467782 -0.0442001 -1.18627 0.476781 -0.0332135 -1.17887 
0.459321 -0.0358904 -1.18665 0.127055 -0.00728102 -1.19504 0.486441 -0.0208467 -1.1864 
0.486012 -0.0349886 -1.18522 0.0061855 -0.0447866 -1.17075 0.0698176 -0.0374697 -1.1781 
0.290834 -0.00912702 -1.19454 0.404515 -0.0356897 -1.19501 0.0525054 -0.0370775 -1.19499 
0.113036 -0.0281978 -1.1927 0.458588 -0.0216979 -1.19501 0.355958 -0.0307101 -1.17859 
0.445368 -0.044698 -1.19497 0.423473 -0.00499517 -1.19501 0.02873 -0.0144793 -1.17801 
0.146245 -0.0436557 -1.19492 0.463754 -0.0060672 -1.15593 0.228509 -0.0444085 -0.245002 
0.467439 -0.0378455 -1.17834 0.125324 -0.0312223 -1.1949 0.0554609 -0.00538835 -1.17581 
0.144433 -0.0148333 -1.18679 0.440691 -0.00498008 -1.18787 0.261164 -0.00512279 -1.195 
0.439756 -0.0364441 -1.19497 0.0274609 -0.0427194 -1.17939 0.0426232 -0.0382022 -1.195 
0.0465147 -0.00794281 -1.14418 0.0136104 -0.0300863 -1.195 0.0261647 -0.00494715 -1.19491 
0.0682889 -0.00504551 -1.19485 0.494935 -0.0145055 -1.17302 0.474379 -0.0315788 -1.16881 
0.0364921 -0.0306522 -1.18846 0.0210756 -0.0247641 -1.19045 0.133611 -0.0435707 -1.18809 
0.0248848 -0.00545886 -1.18226 0.326985 -0.0339692 -1.18536 0.446761 -0.0426887 -1.18378 
0.0610202 -0.0122524 -1.18562 0.463551 -0.0314677 -1.1697 0.130016 -0.00538004 -1.18567 
0.478969 -0.0276138 -1.18686 0.0121118 -0.0379145 -1.18859 0.0750049 -0.0223801 -1.18782 
0.451525 -0.0146007 -1.195 0.331995 -0.00599994 -0.420606 0.0862293 -0.0411769 -1.19479 
0.147013 -0.0084149 -1.1951 0.454919 -0.00510691 -1.18726 0.451702 -0.0212923 -1.17586 
0.431985 -0.0285207 -1.18006 0.49499 -0.0436993 -1.15134 0.16389 -0.0154674 -1.19486 
0.439354 -0.0218236 -1.19497 0.266833 -0.0245161 -0.303798 0.15375 -0.0164751 -1.195 
0.0499134 -0.0284946 -1.12356 0.0557122 -0.0448398 -1.1896 0.0921356 -0.0325741 -1.19452 
0.0304085 -0.0139772 -1.195 0.457393 -0.0290408 -1.1794 0.359339 -0.0248291 -0.661222 
0.431972 -0.0360782 -1.18672 0.486308 -0.0233743 -1.1597 0.285715 -0.0183739 -1.19301 
0.460142 -0.00499329 -1.17859 0.153426 -0.026052 -1.18727 0.114049 -0.0168261 -1.19446 
0.392866 -0.0346555 -1.19505 0.454797 -0.0449702 -1.19088 0.356652 -0.0433921 -1.19469 
0.32673 -0.0061433 -1.1949 0.00515735 -0.0272972 -1.16385 0.462613 -0.0309503 -1.195 
0.350369 -0.0097601 -1.19446 0.424848 -0.0438605 -1.18593 0.477938 -0.00516691 -1.16663 
0.185912 -0.013436 -1.18951 0.0534683 -0.0404795 -1.17585 0.313268 -0.0181866 -1.17147 
0.391069 -0.0125502 -1.18749 0.432148 -0.0297423 -1.1949 0.453925 -0.0125963 -1.18036 
0.0524622 -0.0237636 -1.19125 0.448662 -0.0259727 -1.19497 0.0249607 -0.0344084 -1.17441 
0.158027 -0.0434852 -1.19501 0.468431 -0.0314594 -1.18627 0.0458035 -0.0449916 -1.18832 
0.293481 -0.0322767 -1.19445 0.414997 -0.0280144 -1.19479 0.0730025 -0.0447713 -1.19488 
0.30149 -0.00812235 -1.19479 0.493518 -0.0301817 -1.15169 0.0725152 -0.0334175 -1.008 
0.0800557 -0.0149856 -1.19499 0.0465492 -0.00708031 -1.15741 0.424479 -0.0232563 -1.195 
0.440786 -0.0263092 -1.17482 0.159012 -0.0354312 -1.18511 0.340328 -0.0168668 -1.18557 
0.173493 -0.00864456 -1.18955 0.424156 -0.0296011 -1.1862 0.440042 -0.0204892 -1.18302 
0.419559 -0.044809 -1.19501 0.470503 -0.00503525 -1.17694 0.359708 -0.0139185 -0.683259 
0.388851 -0.00531477 -1.19425 0.464095 -0.00527386 -1.1689 0.0869756 -0.0418755 -1.18225 
0.135816 -0.0311829 -1.19351 0.275033 -0.0436018 -1.18649 0.417736 -0.0215166 -1.18743 
0.457525 -0.0447636 -1.18123 0.121985 -0.0224062 -1.19075 0.428149 -0.00514153 -1.18611 
0.0906238 -0.0401971 -1.16861 0.0422357 -0.00757222 -1.1842 0.0703949 -0.00900114 -1.1858 
0.424391 -0.0219687 -1.17921 0.292869 -0.0244987 -1.18795 0.457712 -0.0219241 -1.16529 
0.0898493 -0.0246205 -1.18783 0.429904 -0.0145054 -1.19499 0.330075 -0.0390109 -1.19491 
0.326579 -0.0328723 -1.15665 0.320946 -0.0344906 -1.19487 0.409905 -0.00536218 -1.19464 
0.0482409 -0.00499312 -1.19478 0.0447908 -0.00758478 -1.17416 0.286897 -0.0378849 -1.16787 
0.451698 -0.0307439 -1.16208 0.288759 -0.0350179 -1.18223 0.235706 -0.00748936 -1.19212 
0.252563 -0.0428995 -1.18469 0.0664181 -0.0209319 -1.18307 0.0699682 -0.0152534 -1.19498 
0.437795 -0.0448418 -1.18763 0.424148 -0.0357872 -1.19498 0.105118 -0.0215797 -1.12814 
0.221785 -0.00510065 -0.245002 0.262089 -0.0171657 -1.14754 0.418871 -0.0200574 -1.15571 
0.444373 -0.0140136 -1.17669 0.135092 -0.0433548 -1.16067 0.292017 -0.0433797 -1.11733 
0.201651 -0.0152264 -1.19473 0.0571231 -0.0197436 -1.18012 0.332574 -0.0162779 -1.19494 
0.397259 -0.0155462 -1.19469 0.267186 -0.0063204 -1.182 0.35656 -0.0426615 -0.498723 
0.431458 -0.0223088 -1.18793 0.0800905 -0.0330959 -1.18775 0.394892 -0.0444384 -1.195 
0.164647 -0.00509992 -1.18297 0.339263 -0.0436138 -1.19474 0.462131 -0.0143202 -1.17492 
0.433091 -0.0159026 -1.17625 0.146421 -0.0359447 -1.18497 0.325363 -0.0255768 -1.19431 
0.347304 -0.0246607 -1.18345 0.341677 -0.021174 -1.19478 0.360431 -0.00479855 -1.19515 
0.423057 -0.00518583 -1.17746 0.34262 -0.0381539 -1.17597 0.311334 -0.031062 -1.19435 
0.276286 -0.0259941 -1.194 0.146199 -0.0231159 -1.19489 0.409022 -0.0449786 -1.19403 
0.07793 -0.0448315 -1.18586 0.447479 -0.00497924 -1.18059 0.333165 -0.0443265 -1.18285 
0.353372 -0.0213466 -1.19063 0.258408 -0.0236909 -1.17342 0.181276 -0.0372007 -1.18583 
0.308014 -0.0400238 -1.18443 0.259102 -0.0202475 -1.18509 0.378633 -0.0443823 -1.19405 
0.0831282 -0.0259147 -1.19503 0.182601 -0.00781802 -1.18189 0.323832 -0.0127735 -1.18361 
0.298213 -0.0220771 -1.17629 0.348821 -0.00926528 -0.529459 0.386031 -0.0199772 -1.1949 
0.422294 -0.013274 -1.17167 0.278999 -0.0355293 -1.195 0.214472 -0.0405507 -1.19016 
0.228656 -0.0363234 -1.19447 0.446073 -0.0132839 -1.18652 0.398961 -0.00504628 -1.19492 
0.191808 -0.0192772 -1.19506 0.479393 -0.018641 -1.16632 0.279783 -0.0334592 -1.1742 
0.206601 -0.0347869 -0.245002 0.421894 -0.0437321 -1.17294 0.410018 -0.0167728 -1.19502 
0.439986 -0.0181639 -1.16838 0.410693 -0.0289159 -1.18579 0.0992386 -0.027211 -1.18486 
0.4213 -0.030751 -1.17548 0.0117543 -0.042192 -1.15663 0.118394 -0.0450656 -1.19461 
0.427375 -0.0371075 -1.16778 0.175022 -0.00702184 -1.05768 0.262469 -0.0388131 -1.17536 
0.274786 -0.0163037 -1.19127 0.313396 -0.00617283 -1.1906 0.367851 -0.0331057 -1.17398 
0.383428 -0.0109942 -1.18097 0.46449 -0.0450107 -1.15499 0.163659 -0.0337301 -1.19471 
0.406222 -0.0449622 -1.18346 0.354406 -0.0397655 -0.815373 0.39782 -0.00994329 -1.17789 
0.101216 -0.0393474 -1.19412 0.403445 -0.00814715 -1.18612 0.402999 -0.0390519 -1.16946 
0.241765 -0.0316916 -1.195 0.394442 -0.0250126 -1.19192 0.486483 -0.0380685 -1.15262 
0.208032 -0.0358538 -1.15331 0.368991 -0.0430328 -1.1908 0.326446 -0.0426887 -1.01494 
0.300873 -0.0310654 -1.18793 0.34853 -0.0361971 -1.19348 0.370464 -0.00520595 -1.19461 
0.422502 -0.0131902 -1.18422 0.467464 -0.0270236 -1.16006 0.353917 -0.0445694 -1.18382 
0.295383 -0.0416633 -1.19136 0.360253 -0.0384794 -0.550593 0.352098 -0.0196394 -0.461334 
0.434867 -0.00528282 -1.17863 0.386507 -0.0365143 -1.18366 0.251052 -0.0377313 -1.15316 
0.393003 -0.0443803 -1.18316 0.402489 -0.0205544 -1.18461 0.338682 -0.00839865 -1.19537 
0.341144 -0.0371899 -1.18687 0.360073 -0.0136017 -0.71526 0.150694 -0.032779 -1.195 
0.344636 -0.00663337 -1.18746 0.282315 -0.027165 -1.18559 0.248899 -0.0385768 -1.19423 
0.470558 -0.0110547 -1.16277 0.377832 -0.0343116 -1.19101 0.366851 -0.018125 -1.17459 
0.269399 -0.0442146 -1.19491 0.439842 -0.0420982 -1.17049 0.398978 -0.0210585 -1.1682 
0.308494 -0.0167252 -1.18236 0.422408 -0.0102457 -1.16183 0.400974 -0.0315449 -1.18595 
0.477269 -0.0111109 -1.15399 0.358079 -0.0360815 -1.16674 0.309868 -0.00835382 -1.16502 
0.080743 -0.015146 -1.18357 0.316343 -0.0337791 -1.12882 0.230556 -0.0340892 -0.245033 
0.341844 -0.0332658 -1.16768 0.339382 -0.022162 -1.15567 0.441125 -0.0350835 -1.18034 
0.204829 -0.00551952 -1.06551 0.429753 -0.0231728 -1.17029 0.254087 -0.0137545 -0.281247 
0.328499 -0.0109244 -1.17106 0.342781 -0.0157107 -0.947771 0.328822 -0.0219068 -1.18152 
0.356025 -0.0129249 -1.17375 0.366371 -0.00664608 -1.1838 0.145546 -0.00505266 -1.18481 
0.411913 -0.00593988 -1.17876 0.342286 -0.0323953 -0.440655 0.378831 -0.0434397 -1.18152 
0.494271 -0.042888 -1.07749 0.106649 -0.0423565 -1.16492 0.38392 -0.0265697 -1.18673 
0.345872 -0.00608239 -1.1759 0.411811 -0.0135543 -1.18545 0.260605 -0.0326762 -1.18906 
0.163122 -0.0305414 -1.17093 0.221677 -0.0222224 -1.19483 0.494935 -0.0118539 -1.14719 
0.358999 -0.0342738 -1.18738 0.441761 -0.00737326 -0.839761 0.183441 -0.0317865 -1.19455 
0.478621 -0.0323613 -0.986921 0.299084 -0.00516702 -1.17004 0.348923 -0.0410857 -0.618045 
0.195183 -0.0386486 -1.19231 0.398915 -0.0292015 -1.17578 0.360978 -0.0211066 -1.18247 
0.333197 -0.00558549 -1.18714 0.416618 -0.0384674 -1.18068 
VERTICES 500 1000
1 0 
1 1 
1 2 
1 3 
1 4 
1 5 
1 6 
1 7 
1 8 
1 9 
1 10 
1 11 
1 12 
1 13 
1 14 
1 15 
1 16 
1 17 
1 18 
1 19 
1 20 
1 21 
1 22 
1 23 
1 24 
1 25 
1 26 
1 27 
1 28 
1 29 
1 30 
1 31 
1 32 
1 33 
1 34 
1 35 
1 36 
1 37 
1 38 
1 39 
1 40 
1 41 
1 42 
1 43 
1 44 
1 45 
1 46 
1 47 
1 48 
1 49 
1 50 
1 51 
1 52 
1 53 
1 54 
1 55 
1 56 
1 57 
1 58 
1 59 
1 60 
1 61 
1 62 
1 63 
1 64 
1 65 
1 66 
1 67 
1 68 
1 69 
1 70 
1 71 
1 72 
1 73 
1 74 
1 75 
1 76 
1 77 
1 78 
1 79 
1 80 
1 81 
1 82 
1 83 
1 84 
1 85 
1 86 
1 87 
1 88 
1 89 
1 90 
1 91 
1 92 
1 93 
1 94 
1 95 
1 96 
1 97 
1 98 
1 99 
1 100 
1 101 
1 102 
1 103 
1 104 
1 105 
1 106 
1 107 
1 108 
1 109 
1 110 
1 111 
1 112 
1 113 
1 114 
1 115 
1 116 
1 117 
1 118 
1 119 
1 120 
1 121 
1 122 
1 123 
1 124 
1 125 
1 126 
1 127 
1 128 
1 129 
1 130 
1 131 
1 132 
1 133 
1 134 
1 135 
1 136 
1 137 
1 138 
1 139 
1 140 
1 141 
1 142 
1 143 
1 144 
1 145 
1 146 
1 147 
1 148 
1 149 
1 150 
1 151 
1 152 
1 153 
1 154 
1 155 
1 156 
1 157 
1 158 
1 159 
1 160 
1 161 
1 162 
1 163 
1 164 
1 165 
1 166 
1 167 
1 168 
1 169 
1 170 
1 171 
1 172 
1 173 
1 174 
1 175 
1 176 
1 177 
1 178 
1 179 
1 180 
1 181 
1 182 
1 183 
1 184 
1 185 
1 186 
1 187 
1 188 
1 189 
1 190 
1 191 
1 192 
1 193 
1 194 
1 195 
1 196 
1 197 
1 198 
1 199 
1 200 
1 201 
1 202 
1 203 
1 204 
1 205 
1 206 
1 207 
1 208 
1 209 
1 210 
1 211 
1 212 
1 213 
1 214 
1 215 
1 216 
1 217 
1 218 
1 219 
1 220 
1 221 
1 222 
1 223 
1 224 
1 225 
1 226 
1 227 
1 228 
1 229 
1 230 
1 231 
1 232 
1 233 
1 234 
1 235 
1 236 
1 237 
1 238 
1 239 
1 240 
1 241 
1 242 
1 243 
1 244 
1 245 
1 246 
1 247 
1 248 
1 249 
1 250 
1 251 
1 252 
1 253 
1 254 
1 255 
1 256 
1 257 
1 258 
1 259 
1 260 
1 261 
1 262 
1 263 
1 264 
1 265 
1 266 
1 267 
1 268 
1 269 
1 270 
1 271 
1 272 
1 273 
1 274 
1 275 
1 276 
1 277 
1 278 
1 279 
1 280 
1 281 
1 282 
1 283 
1 284 
1 285 
1 286 
1 287 
1 288 
1 289 
1 290 
1 291 
1 292 
1 293 
1 294 
1 295 
1 296 
1 297 
1 298 
1 299 
1 300 
1 301 
1 302 
1 303 
1 304 
1 305 
1 306 
1 307 
1 308 
1 309 
1 310 
1 311 
1 312 
1 313 
1 314 
1 315 
1 316 
1 317 
1 318 
1 319 
1 320 
1 321 
1 322 
1 323 
1 324 
1 325 
1 326 
1 327 
1 328 
1 329 
1 330 
1 331 
1 332 
1 333 
1 334 
1 335 
1 336 
1 337 
1 338 
1 339 
1 340 
1 341 
1 342 
1 343 
1 344 
1 345 
1 346 
1 347 
1 348 
1 349 
1 350 
1 351 
1 352 
1 353 
1 354 
1 355 
1 356 
1 357 
1 358 
1 359 
1 360 
1 361 
1 362 
1 363 
1 364 
1 365 
1 366 
1 367 
1 368 
1 369 
1 370 
1 371 
1 372 
1 373 
1 374 
1 375 
1 376 
1 377 
1 378 
1 379 
1 380 
1 381 
1 382 
1 383 
1 384 
1 385 
1 386 
1 387 
1 388 
1 389 
1 390 
1 391 
1 392 
1 393 
1 394 
1 395 
1 396 
1 397 
1 398 
1 399 
1 400 
1 401 
1 402 
1 403 
1 404 
1 405 
1 406 
1 407 
1 408 
1 409 
1 410 
1 411 
1 412 
1 413 
1 414 
1 415 
1 416 
1 417 
1 418 
1 419 
1 420 
1 421 
1 422 
1 423 
1 424 
1 425 
1 426 
1 427 
1 428 
1 429 
1 430 
1 431 
1 432 
1 433 
1 434 
1 435 
1 436 
1 437 
1 438 
1 439 
1 440 
1 441 
1 442 
1 443 
1 444 
1 445 
1 446 
1 447 
1 448 
1 449 
1 450 
1 451 
1 452 
1 453 
1 454 
1 455 
1 456 
1 457 
1 458 
1 459 
1 460 
1 461 
1 462 
1 463 
1 464 
1 465 
1 466 
1 467 
1 468 
1 469 
1 470 
1 471 
1 472 
1 473 
1 474 
1 475 
1 476 
1 477 
1 478 
1 479 
1 480 
1 481 
1 482 
1 483 
1 484 
1 485 
1 486 
1 487 
1 488 
1 489 
1 490 
1 491 
1 492 
1 493 
1 494 
1 495 
1 496 
1 497 
1 498 
1 499 

POINT_DATA 500
FIELD FieldData 7
id 1 500 int
1 2 3 4 5 6 7 8 9 
10 11 12 13 14 15 16 17 18 
19 20 21 22 23 24 25 26 27 
28 29 30 31 32 33 34 35 36 
37 38 39 40 41 42 43 44 45 
46 47 48 49 50 51 52 53 54 
55 56 57 58 59 60 61 62 63 
64 65 66 67 68 69 70 71 72 
73 74 75 76 77 78 79 80 81 
82 83 84 85 86 87 88 89 90 
91 92 93 94 95 96 97 98 99 
100 101 102 103 104 105 106 107 108 
109 110 111 112 113 114 115 116 117 
118 119 120 121 122 123 124 125 126 
127 128 129 130 131 132 133 134 135 
136 137 138 139 140 141 142 143 144 
145 146 147 148 149 150 151 152 153 
154 155 156 157 158 159 160 161 162 
163 164 165 166 167 168 169 170 171 
172 173 174 175 176 177 178 179 180 
181 182 183 184 185 186 187 188 189 
190 191 192 193 194 195 196 197 198 
199 200 201 202 203 204 205 206 207 
208 209 210 211 212 213 214 215 216 
217 218 219 220 221 222 223 224 225 
226 227 228 229 230 231 232 233 234 
235 236 237 238 239 240 241 242 243 
244 245 246 247 248 249 250 251 252 
253 254 255 256 257 258 259 260 261 
262 263 264 265 266 267 268 269 270 
271 272 273 274 275 276 277 278 279 
280 281 282 283 284 285 286 287 288 
289 290 291 292 293 294 295 296 297 
298 299 300 301 302 303 304 305 306 
307 308 309 310 311 312 313 314 315 
316 317 318 319 320 321 322 323 324 
325 326 327 328 329 330 331 332 333 
334 335 336 337 338 339 340 341 342 
343 344 345 346 347 348 349 350 351 
352 353 354 355 356 357 358 359 360 
361 362 363 364 365 366 367 368 369 
370 371 372 373 374 375 376 377 378 
379 380 381 382 383 384 385 386 387 
388 389 390 391 392 393 394 395 396 
397 398 399 400 401 402 403 404 405 
406 407 408 409 410 411 412 413 414 
415 416 417 418 419 420 421 422 423 
424 425 426 427 428 429 430 431 432 
433 434 435 436 437 438 439 440 441 
442 443 444 445 446 447 448 449 450 
451 452 453 454 455 456 457 458 459 
460 461 462 463 464 465 466 467 468 
469 470 471 472 473 474 475 476 477 
478 479 480 481 482 483 484 485 486 
487 488 489 490 491 492 493 494 495 
496 497 498 499 500 
type 1 500 int
1 1 1 1 1 1 1 1 1 
1 1 1 1 1 1 1 1 1 
1 1 1 1 1 1 1 1 1 
1 1 1 1 1 1 1 1 1 
1 1 1 1 1 1 1 1 1 
1 1 1 1 1 1 1 1 1 
1 1 1 1 1 1 1 1 1 
1 1 1 1 1 1 1 1 1 
1 1 1 1 1 1 1 1 1 
1 1 1 1 1 1 1 1 1 
1 1 1 1 1 1 1 1 1 
1 1 1 1 1 1 1 1 1 
1 1 1 1 1 1 1 1 1 
1 1 1 1 1 1 1 1 1 
1 1 1 1 1 1 1 1 1 
1 1 1 1 1 1 1 1 1 
1 1 1 1 1 1 1 1 1 
1 1 1 1 1 1 1 1 1 
1 1 1 1 1 1 1 1 1 
1 1 1 1 1 1 1 1 1 
1 1 1 1 1 1 1 1 1 
1 1 1 1 1 1 1 1 1 
1 1 1 1 1 1 1 1 1 
1 1 1 1 1 1 1 1 1 
1 1 1 1 1 1 1 1 1 
1 1 1 1 1 1 1 1 1 
1 1 1 1 1 1 1 1 1 
1 1 1 1 1 1 1 1 1 
1 1 1 1 1 1 1 1 1 
1 1 1 1 1 1 1 1 1 
1 1 1 1 1 1 1 1 1 
1 1 1 1 1 1 1 1 1 
1 1 1 1 1 1 1 1 1 
1 1 1 1 1 1 1 1 1 
1 1 1 1 1 1 1 1 1 
1 1 1 1 1 1 1 1 1 
1 1 1 1 1 1 1 1 1 
1 1 1 1 1 1 1 1 1 
1 1 1 1 1 1 1 1 1 
1 1 1 1 1 1 1 1 1 
1 1 1 1 1 1 1 1 1 
1 1 1 1 1 1 1 1 1 
1 1 1 1 1 1 1 1 1 
1 1 1 1 1 1 1 1 1 
1 1 1 1 1 1 1 1 1 
1 1 1 1 1 1 1 1 1 
1 1 1 1 1 1 1 1 1 
1 1 1 1 1 1 1 1 1 
1 1 1 1 1 1 1 1 1 
1 1 1 1 1 1 1 1 1 
1 1 1 1 1 1 1 1 1 
1 1 1 1 1 1 1 1 1 
1 1 1 1 1 1 1 1 1 
1 1 1 1 1 1 1 1 1 
1 1 1 1 1 1 1 1 1 
1 1 1 1 1 
i 3 500 int
0 0 0 0 0 0 0 0 0 
0 0 0 0 0 0 0 0 0 
0 0 0 0 0 0 0 0 0 
0 0 0 0 0 0 0 0 0 
0 0 0 0 0 0 0 0 0 
0 0 0 0 0 0 0 0 0 
0 0 0 0 0 0 0 0 0 
0 0 0 0 0 0 0 0 0 
0 0 0 0 0 0 0 0 0 
0 0 0 0 0 0 0 0 0 
0 0 0 0 0 0 0 0 0 
0 0 0 0 0 0 0 0 0 
0 0 0 0 0 0 0 0 0 
0 0 0 0 0 0 0 0 0 
0 0 0 0 0 0 0 0 0 
0 0 0 0 0 0 0 0 0 
0 0 0 0 0 0 0 0 0 
0 0 0 0 0 0 0 0 0 
0 0 0 0 0 0 0 0 0 
0 0 0 0 0 0 0 0 0 
0 0 0 0 0 0 0 0 0 
0 0 0 0 0 0 0 0 0 
0 0 0 0 0 0 0 0 0 
0 0 0 0 0 0 0 0 0 
0 0 0 0 0 0 0 0 0 
0 0 0 0 0 0 0 0 0 
0 0 0 0 0 0 0 0 0 
0 0 0 0 0 0 0 0 0 
0 0 0 0 0 0 0 0 0 
0 0 0 0 0 0 0 0 0 
0 0 0 0 0 0 0 0 0 
0 0 0 0 0 0 0 0 0 
0 0 0 0 0 0 0 0 0 
0 0 0 0 0 0 0 0 0 
0 0 0 0 0 0 0 0 0 
0 0 0 0 0 0 0 0 0 
0 0 0 0 0 0 0 0 0 
0 0 0 0 0 0 0 0 0 
0 0 0 0 0 0 0 0 0 
0 0 0 0 0 0 0 0 0 
0 0 0 0 0 0 0 0 0 
0 0 0 0 0 0 0 0 0 
0 0 0 0 0 0 0 0 0 
0 0 0 0 0 0 0 0 0 
0 0 0 0 0 0 0 0 0 
0 0 0 0 0 0 0 0 0 
0 0 0 0 0 0 0 0 0 
0 0 0 0 0 0 0 0 0 
0 0 0 0 0 0 0 0 0 
0 0 0 0 0 0 0 0 0 
0 0 0 0 0 0 0 0 0 
0 0 0 0 0 0 0 0 0 
0 0 0 0 0 0 0 0 0 
0 0 0 0 0 0 0 0 0 
0 0 0 0 0 0 0 0 0 
0 0 0 0 0 0 0 0 0 
0 0 0 0 0 0 0 0 0 
0 0 0 0 0 0 0 0 0 
0 0 0 0 0 0 0 0 0 
0 0 0 0 0 0 0 0 0 
0 0 0 0 0 0 0 0 0 
0 0 0 0 0 0 0 0 0 
0 0 0 0 0 0 0 0 0 
0 0 0 0 0 0 0 0 0 
0 0 0 0 0 0 0 0 0 
0 0 0 0 0 0 0 0 0 
0 0 0 0 0 0 0 0 0 
0 0 0 0 0 0 0 0 0 
0 0 0 0 0 0 0 0 0 
0 0 0 0 0 0 0 0 0 
0 0 0 0 0 0 0 0 0 
0 0 0 0 0 0 0 0 0 
0 0 0 0 0 0 0 0 0 
0 0 0 0 0 0 0 0 0 
0 0 0 0 0 0 0 0 0 
0 0 0 0 0 0 0 0 0 
0 0 0 0 0 0 0 0 0 
0 0 0 0 0 0 0 0 0 
0 0 0 0 0 0 0 0 0 
0 0 0 0 0 0 0 0 0 
0 0 0 0 0 0 0 0 0 
0 0 0 0 0 0 0 0 0 
0 0 0 0 0 0 0 0 0 
0 0 0 0 0 0 0 0 0 
0 0 0 0 0 0 0 0 0 
0 0 0 0 0 0 0 0 0 
0 0 0 0 0 0 0 0 0 
0 0 0 0 0 0 0 0 0 
0 0 0 0 0 0 0 0 0 
0 0 0 0 0 0 0 0 0 
0 0 0 0 0 0 0 0 0 
0 0 0 0 0 0 0 0 0 
0 0 0 0 0 0 0 0 0 
0 0 0 0 0 0 0 0 0 
0 0 0 0 0 0 0 0 0 
0 0 0 0 0 0 0 0 0 
0 0 0 0 0 0 0 0 0 
0 0 0 0 0 0 0 0 0 
0 0 0 0 0 0 0 0 0 
0 0 0 0 0 0 0 0 0 
0 0 0 0 0 0 0 0 0 
0 0 0 0 0 0 0 0 0 
0 0 0 0 0 0 0 0 0 
0 0 0 0 0 0 0 0 0 
0 0 0 0 0 0 0 0 0 
0 0 0 0 0 0 0 0 0 
0 0 0 0 0 0 0 0 0 
0 0 0 0 0 0 0 0 0 
0 0 0 0 0 0 0 0 0 
0 0 0 0 0 0 0 0 0 
0 0 0 0 0 0 0 0 0 
0 0 0 0 0 0 0 0 0 
0 0 0 0 0 0 0 0 0 
0 0 0 0 0 0 0 0 0 
0 0 0 0 0 0 0 0 0 
0 0 0 0 0 0 0 0 0 
0 0 0 0 0 0 0 0 0 
0 0 0 0 0 0 0 0 0 
0 0 0 0 0 0 0 0 0 
0 0 0 0 0 0 0 0 0 
0 0 0 0 0 0 0 0 0 
0 0 0 0 0 0 0 0 0 
0 0 0 0 0 0 0 0 0 
0 0 0 0 0 0 0 0 0 
0 0 0 0 0 0 0 0 0 
0 0 0 0 0 0 0 0 0 
0 0 0 0 0 0 0 0 0 
0 0 0 0 0 0 0 0 0 
0 0 0 0 0 0 0 0 0 
0 0 0 0 0 0 0 0 0 
0 0 0 0 0 0 0 0 0 
0 0 0 0 0 0 0 0 0 
0 0 0 0 0 0 0 0 0 
0 0 0 0 0 0 0 0 0 
0 0 0 0 0 0 0 0 0 
0 0 0 0 0 0 0 0 0 
0 0 0 0 0 0 0 0 0 
0 0 0 0 0 0 0 0 0 
0 0 0 0 0 0 0 0 0 
0 0 0 0 0 0 0 0 0 
0 0 0 0 0 0 0 0 0 
0 0 0 0 0 0 0 0 0 
0 0 0 0 0 0 0 0 0 
0 0 0 0 0 0 0 0 0 
0 0 0 0 0 0 0 0 0 
0 0 0 0 0 0 0 0 0 
0 0 0 0 0 0 0 0 0 
0 0 0 0 0 0 0 0 0 
0 0 0 0 0 0 0 0 0 
0 0 0 0 0 0 0 0 0 
0 0 0 0 0 0 0 0 0 
0 0 0 0 0 0 0 0 0 
0 0 0 0 0 0 0 0 0 
0 0 0 0 0 0 0 0 0 
0 0 0 0 0 0 0 0 0 
0 0 0 0 0 0 0 0 0 
0 0 0 0 0 0 0 0 0 
0 0 0 0 0 0 0 0 0 
0 0 0 0 0 0 0 0 0 
0 0 0 0 0 0 0 0 0 
0 0 0 0 0 0 0 0 0 
0 0 0 0 0 0 0 0 0 
0 0 0 0 0 0 0 0 0 
0 0 0 0 0 0 0 0 0 
0 0 0 0 0 0 0 0 0 
0 0 0 0 0 0 0 0 0 
0 0 0 0 0 0 
v 3 500 double
-0.0516512 -0.0192183 -0.205118 -0.0752922 0.00859715 -0.0853333 -0.00713783 -0.079682 -0.00452035 
0.0492422 -0.0303719 0.096858 0.410555 0.0509977 -2.76856 -0.102073 -0.0937049 -0.0269963 
-0.126711 -0.0692093 0.0695179 -0.355462 0.031393 -3.17389 -1.53276 0.713354 -2.23697 
-0.00383292 0.318651 -0.469814 0.290164 -0.335983 -0.494845 -0.0833099 0.101394 -0.0461905 
-0.532853 -0.378878 0.0460373 -0.0947593 0.0321573 0.191641 0.0440121 0.0655594 -0.247382 
-0.11721 -0.0180696 0.0244364 -0.126347 0.0546877 0.203318 -0.0470427 -0.0301434 0.00256655 
0.158936 0.236755 0.00787683 -0.0623268 0.0307337 0.00158375 -0.225621 -0.0146125 -0.0902394 
-0.719262 0.0980251 -0.143245 -0.00165538 0.00379081 0.00859924 0.0110256 0.113485 -0.351459 
-0.286202 -0.627017 -0.257966 -0.173736 -0.0833153 -0.0516033 -0.0548702 0.000331402 -0.0160051 
-0.0193262 -0.0212643 -0.0448546 -0.386743 0.0133344 -0.0653547 -1.18773 -0.0450117 -0.00911477 
0.0602216 -0.00118927 0.0972129 -0.0479339 -0.00135161 -0.0557359 -0.0678603 -0.232408 -0.189921 
-0.302301 -0.178137 -0.220418 0.0285689 0.0836382 -3.78377 -0.124209 -0.0946028 -0.198074 
-0.141591 -0.00748219 0.000663622 0.091003 -0.0364328 0.0495631 -0.419212 -0.482866 0.0134527 
-0.0141653 -0.00645403 0.0463159 0.00159447 -0.036899 -4.20861e-06 -0.539549 0.0562427 -0.030302 
-0.146041 0.125584 -2.63863 -0.402383 -0.146613 -0.237649 -0.211853 -0.0811797 -2.73649 
-0.0270255 0.00629421 -0.0421661 0.0649513 0.00291628 -0.00939787 -0.00890106 -0.00840881 -0.0385358 
-0.0167113 0.00434613 0.00862159 -0.0984575 -0.123455 0.0499174 -0.149109 -0.0615988 0.0338889 
0.0695992 -0.0160975 -0.000352623 0.0830929 -0.0646174 -0.0483274 -0.374494 -0.146251 0.146948 
-0.118363 -0.181488 0.0812552 0.151732 0.175121 -0.0722179 -0.9925 -0.10537 -0.00164811 
-0.296479 0.0707144 -2.81879 -0.23527 -0.251057 -0.086562 -0.289611 -0.60691 -0.225391 
0.144124 0.0258826 0.026699 -0.0278969 -0.0523355 0.00716258 -0.250031 0.170555 -0.0183297 
-0.192971 0.155554 0.0459301 -0.426467 -0.168035 -1.96772 -0.214365 -0.0370203 -0.0108462 
-0.797267 0.97078 -1.49864 0.0863195 0.167558 0.100082 -0.0549034 -0.0145905 0.0230997 
0.191896 0.0348438 -0.101913 -0.0310389 -0.0162531 0.00480064 -0.00287749 0.0151971 0.0253528 
0.0270252 0.196005 0.210279 0.0112954 -0.0644725 -0.0290038 -0.0329389 0.329657 -0.0116898 
-0.312724 -0.491097 0.0475823 -0.328844 0.131229 -0.00707143 0.0714149 0.288998 0.058055 
-0.159128 0.0462546 -0.0885757 0.00615812 -0.059726 0.00219678 -0.158319 -0.103306 0.199025 
-0.0157654 0.0610452 0.240964 -0.116815 -0.0386171 0.0191436 -0.173442 0.0082471 0.0697244 
0.606301 -0.0190621 -1.05014 0.190067 -0.53937 -0.121687 0.020449 -0.148163 -0.0713124 
-0.14513 -0.0587655 0.0779773 -0.117939 -0.0530296 0.0244228 -0.0585968 0.169333 0.00363813 
-0.0561398 -0.0516783 -0.00798393 -0.250888 -0.0332351 0.157385 -0.0503757 0.212947 -0.217125 
-0.0493223 -0.010328 -0.0531715 0.0404964 -0.127953 -0.015559 0.0185922 -0.0655786 -0.0338574 
-0.379178 0.0351036 -0.0845541 -0.716629 -0.136497 -0.17071 -0.348604 0.536588 0.403885 
-0.309465 -0.0600801 -0.0725382 -0.178305 -0.259239 -0.128776 0.00463458 0.00167853 3.04776e-12 
0.00491131 0.041189 0.124034 -0.0819829 -0.10452 0.00717059 -0.228445 -0.0472086 0.0194408 
-0.301792 -0.129769 0.119819 -1.00758 0.246757 0.29004 0.667333 0.0786392 -2.28239 
-0.988271 0.00287059 -0.0379925 -0.0192747 0.169436 0.324011 -0.446199 0.049858 0.34651 
-0.635825 -0.164814 0.117227 -0.010697 -0.00408632 0.0376958 -0.156063 0.0808689 -0.0205787 
-0.39421 -0.147296 -2.64083 0.121337 0.066213 0.0214111 0.0395284 -0.066105 -2.56408 
-0.0445359 -0.0446924 0.0614396 -0.0813075 0.0832461 0.0507568 -0.57868 -0.197215 -0.239545 
-0.165364 0.181893 -0.0947907 0.539826 -1.05195 -1.21673 -0.0414837 -0.0025473 0.0133551 
-0.0765567 -0.0277285 -0.00290079 -0.05296 -0.0299121 0.0106093 -0.0442868 -0.0973132 0.104841 
0.00263032 -0.00266675 -0.000158265 -0.14792 0.10344 0.155591 -0.00381681 -0.0209785 0.0730694 
0.00630072 0.017981 -0.0174489 -0.0936777 0.237688 0.294953 -0.0227307 -0.01437 -0.00998251 
0.0767297 0.00167426 -0.0060867 0.11903 -0.0154072 0.0471264 0.020192 -0.00424621 0.00486455 
-0.0868866 -0.0470433 -0.0317691 0.136723 -0.118198 -0.435988 -0.238911 -0.250502 0.0562535 
-0.153666 0.00713502 -0.0314387 -0.584702 -0.0685948 -0.0471222 -0.130438 -0.037632 -0.0374255 
-0.114782 -0.0019489 0.0316199 -0.0130653 0.0103704 -0.0125579 -0.125703 0.060675 0.0611816 
-0.059837 0.0220744 -0.0218184 -0.0332425 0.064139 -0.124625 0.251171 -0.483848 -0.162211 
-0.0576609 -0.14878 -0.00124139 -0.159661 0.0359325 0.0183393 -0.773719 -0.176344 -0.331945 
0.0706882 -0.127219 0.0126515 -0.00970907 0.0731902 -0.055155 -0.0352025 0.0396447 -0.0446318 
-0.00873122 0.0445656 0.0276182 0.0424551 -0.0946641 -3.95813 -0.0615153 0.0315369 0.00603012 
0.0182313 0.192674 0.033429 -0.115807 -0.00567077 -0.106093 -0.0556339 -0.0109393 -0.0596991 
-0.0166187 -0.0315206 -0.00642514 0.00648772 -0.0879761 -0.00327305 -0.256661 -0.109231 -0.0816276 
0.0676228 -0.751134 -0.178792 0.26316 -0.114487 -0.0815252 -0.36397 0.0412774 0.000598276 
-0.1147 0.0112576 -0.0336235 0.611544 0.0815427 -0.479073 -0.03204 -0.127553 0.253734 
-0.00999169 0.0716164 0.0316454 -0.0422921 -0.455794 0.0661053 -0.199333 -0.0385453 -0.000485178 
0.00318378 -0.00654429 -0.103906 -0.0390271 -0.216645 0.0448391 -0.257056 -0.0153044 0.01916 