# vtk DataFile Version 4.0
Generated by LIGGGHTS
ASCII
DATASET POLYDATA
POINTS 500 float
0.47883 -0.0261196 -1.14429 0.440584 -0.0429389 -0.877499 0.219015 -0.0452167 -1.12365 
0.066573 -0.038301 -1.02924 0.160752 -0.0261721 -0.765627 0.32636 -0.0331287 -1.12383 
0.219618 -0.0432986 -0.975987 0.162137 -0.0287057 -0.682811 0.249392 -0.0380323 -0.651275 
0.491589 -0.0237075 -0.899436 0.470856 -0.0237772 -0.708259 0.436045 -0.00682417 -1.18327 
0.224599 -0.0143502 -1.08551 0.47605 -0.0120139 -1.14141 0.114146 -0.0249491 -0.698412 
0.371238 -0.00735613 -0.604882 0.379584 -0.00712896 -1.16097 0.494181 -0.0259067 -1.19092 
0.361646 -0.00784685 -1.1727 0.465236 -0.0204561 -1.18275 0.095071 -0.0221329 -1.15387 
0.479043 -0.0247748 -1.06162 0.4886 -0.035938 -1.19467 0.242996 -0.0177616 -1.03874 
0.242109 -0.0174415 -0.252345 0.445415 -0.0425599 -1.19012 0.487047 -0.0237269 -1.18143 
0.453129 -0.0320236 -1.18446 0.491094 -0.0300815 -1.16159 0.348708 -0.0408969 -0.535592 
0.390392 -0.041444 -1.17832 0.437341 -0.0166255 -1.16519 0.365633 -0.00530487 -0.53685 
0.430966 -0.00784286 -1.15902 0.223978 -0.0245807 -0.245002 0.350209 -0.0131662 -0.786139 
0.450447 -0.00832832 -1.05448 0.308931 -0.0423056 -1.16797 0.41251 -0.0450022 -1.18436 
0.494831 -0.00501293 -1.18338 0.206001 -0.0150621 -0.244999 0.0647702 -0.0290074 -0.863094 
0.235392 -0.0136166 -0.918031 0.492296 -0.0277683 -1.09738 0.247996 -0.0109094 -0.813432 
0.481535 -0.0445454 -1.19508 0.290734 -0.0422424 -1.03397 0.263145 -0.0148652 -1.16771 
0.474639 -0.041767 -1.18383 0.429236 -0.0305759 -1.17963 0.453711 -0.016153 -0.893329 
0.471005 -0.0437975 -1.19352 0.318957 -0.0425913 -1.16856 0.248007 -0.0437727 -1.1654 
0.187089 -0.013329 -1.17362 0.0937297 -0.0198533 -1.13714 0.324748 -0.00539942 -0.405714 
0.198263 -0.0432407 -0.760336 0.249747 -0.0419282 -0.954786 0.283875 -0.0345102 -1.19335 
0.309915 -0.0426878 -1.19426 0.419817 -0.0289919 -1.19452 0.296731 -0.0219806 -1.19101 
0.345424 -0.0315959 -0.860807 0.283104 -0.00878425 -1.02433 0.470027 -0.0366673 -1.09905 
0.495042 -0.0190958 -1.16359 0.47531 -0.0292612 -1.12623 0.431248 -0.0175426 -1.19262 
0.205832 -0.0159221 -1.14064 0.479329 -0.0340656 -1.19138 0.490765 -0.0142179 -1.18132 
0.31126 -0.0256176 -1.19226 0.371885 -0.0444521 -1.19309 0.417095 -0.0165231 -1.19102 
0.441755 -0.0107765 -1.08441 0.388804 -0.0452274 -1.16861 0.491416 -0.0101165 -1.17131 
0.412938 -0.0051031 -1.19202 0.486123 -0.0442226 -1.18303 0.249748 -0.0365972 -1.01758 
0.0487826 -0.0151036 -1.10949 0.44113 -0.0443905 -1.07428 0.228184 -0.0242043 -1.17749 
0.208915 -0.0354655 -0.245002 0.337646 -0.0141594 -1.13038 0.337934 -0.0216242 -1.16672 
0.402633 -0.0353332 -0.790344 0.443355 -0.0297672 -1.16514 0.278135 -0.0410252 -1.17643 
0.170901 -0.00745064 -1.12778 0.47421 -0.0132587 -1.1184 0.1859 -0.00563364 -1.10623 
0.243668 -0.00818159 -1.18404 0.065453 -0.0395557 -1.11872 0.240231 -0.0179534 -1.17675 
0.391184 -0.0124497 -1.03374 0.465184 -0.0263188 -1.00537 0.248156 -0.00551652 -0.252863 
0.403896 -0.0191541 -1.19473 0.412878 -0.00584191 -1.16938 0.205374 -0.0450061 -0.245002 
0.299408 -0.00784255 -1.17272 0.478304 -0.0331095 -1.17616 0.387815 -0.0228978 -1.181 
0.0399505 -0.0417318 -1.04447 0.399194 -0.044407 -1.16816 0.171743 -0.0171615 -0.939211 
0.40499 -0.0410291 -1.18977 0.379494 -0.0119923 -1.113 0.365535 -0.0336003 -1.19533 
0.416868 -0.0369549 -1.18972 0.495128 -0.012422 -1.19306 0.441225 -0.0441501 -1.16468 
0.213535 -0.0179428 -1.00196 0.112184 -0.0284701 -1.15439 0.216177 -0.0179602 -0.244837 
0.456036 -0.0146761 -1.17619 0.425071 -0.0434547 -1.19194 0.345314 -0.0367027 -0.929989 
0.464712 -0.0154083 -1.04955 0.422124 -0.0244778 -1.02004 0.438395 -0.0269794 -1.19426 
0.416698 -0.00985364 -1.01985 0.461054 -0.00535497 -1.18931 0.375476 -0.0307561 -0.852979 
0.208575 -0.0249279 -0.245002 0.495086 -0.0449277 -1.19185 0.487359 -0.0183175 -1.19506 
0.330955 -0.0184467 -1.1395 0.387283 -0.0450299 -1.1879 0.47661 -0.0232619 -1.19076 
0.365634 -0.0430116 -1.16247 0.308861 -0.0156859 -1.05469 0.399295 -0.018635 -1.17857 
0.414896 -0.037489 -1.12945 0.354438 -0.0415129 -1.11398 0.41322 -0.0120434 -1.17819 
0.48559 -0.036688 -1.15369 0.415178 -0.0210099 -0.740179 0.442021 -0.00530198 -1.1658 
0.492957 -0.0293481 -1.15288 0.458669 -0.0177305 -1.19443 0.450249 -0.0242679 -1.1931 
0.478508 -0.041734 -1.15923 0.420593 -0.0276761 -1.16971 0.344379 -0.0200064 -1.17424 
0.360873 -0.00805244 -0.824608 0.440493 -0.0201446 -1.18733 0.418212 -0.0291248 -1.16039 
0.399496 -0.0455539 -1.18159 0.410066 -0.0384399 -1.11263 0.376297 -0.0123346 -1.19375 
0.425424 -0.00616823 -1.18832 0.229338 -0.0422239 -0.244916 0.489668 -0.00882201 -1.14341 
0.336467 -0.0188067 -1.10106 0.478938 -0.006323 -1.18244 0.357828 -0.00876555 -1.19502 
0.443172 -0.0339645 -1.18486 0.361083 -0.0212888 -1.17784 0.372045 -0.0288359 -1.18514 
0.379649 -0.0151832 -1.17881 0.354747 -0.0242466 -0.876819 0.396706 -0.0153621 -1.18843 
0.431464 -0.0230833 -1.07991 0.373803 -0.0234962 -1.14259 0.415649 -0.0184421 -1.11948 
0.355898 -0.0385964 -1.16342 0.358515 -0.0257845 -1.19307 0.418268 -0.0248161 -1.18349 
0.323686 -0.0188869 -1.18724 0.385122 -0.0372137 -0.607655 0.494773 -0.0258727 -1.17379 
0.320681 -0.0395162 -1.15782 0.370266 -0.0217061 -1.09851 0.388041 -0.0113233 -0.920068 
0.478399 -0.0248415 -1.16971 0.347879 -0.0269794 -1.00505 0.366261 -0.00647164 -1.1867 
0.369843 -0.0442027 -0.764248 0.433258 -0.0110736 -1.12595 0.476408 -0.0182732 -1.17742 
0.331148 -0.0340515 -1.17812 0.370554 -0.00860465 -1.15812 0.394472 -0.0323207 -1.18485 
0.277191 -0.0422563 -1.12838 0.368836 -0.0285779 -0.603944 0.465329 -0.0358213 -1.17491 
0.359572 -0.0215923 -1.12117 0.351458 -0.0300451 -1.11197 0.377243 -0.0125954 -0.720325 
0.47015 -0.0400379 -1.02691 0.348073 -0.0294751 -1.18881 0.355768 -0.00751882 -0.525503 
0.41214 -0.0316068 -1.02902 0.467911 -0.0286019 -1.18944 0.406914 -0.0408976 -1.06467 
0.20511 -0.0150341 -0.234898 0.421458 -0.00710454 -1.15668 0.366857 -0.0260925 -1.05974 
0.329457 -0.037349 -1.01368 0.423749 -0.0182889 -0.980681 0.405224 -0.0377794 -0.848678 
0.495163 -0.0397429 -1.08977 0.408133 -0.0162543 -0.952597 0.445636 -0.0162037 -1.16941 
0.446765 -0.0320895 -1.1214 0.425845 -0.0328546 -0.86654 0.341374 -0.0311428 -0.669483 
0.372949 -0.00725213 -0.784938 0.373496 -0.0211019 -1.0864 0.351529 -0.0415812 -0.955506 
0.419571 -0.0247653 -1.05929 0.424045 -0.0344815 -1.01684 0.30414 -0.0049695 -0.368241 
0.404553 -0.0423866 -0.987169 0.404399 -0.00713236 -1.06027 0.367928 -0.0410927 -1.12761 
0.386343 -0.0421531 -0.884371 0.44592 -0.0181207 -1.07207 0.205051 -0.0443485 -0.235004 
0.403619 -0.0271581 -0.988422 0.386373 -0.0249805 -0.917167 0.367642 -0.0432989 -0.900556 
0.356092 -0.0254815 -0.983312 0.357182 -0.00846178 -0.583532 0.400024 -0.00606666 -0.871979 
0.384431 -0.0352295 -0.799425 0.375019 -0.0265614 -1.02635 0.399754 -0.0414319 -1.05044 
0.352046 -0.0353193 -0.979912 0.325408 -0.0423199 -0.75784 0.35309 -0.0403184 -1.02106 
0.376204 -0.0143691 -0.760016 0.433197 -0.0270676 -0.817298 0.43348 -0.00520896 -1.10196 
0.367268 -0.042658 -1.00144 0.415495 -0.0314866 -0.877468 0.397457 -0.0293004 -1.04432 
0.371884 -0.0172835 -0.958391 0.372049 -0.0337734 -0.748226 0.429573 -0.0294941 -0.922043 
0.336643 -0.017705 -0.663157 0.428307 -0.0283041 -0.964387 0.3846 -0.0157376 -1.00226 
0.410486 -0.00687979 -0.942014 0.310055 -0.0104388 -1.02323 0.359362 -0.017098 -0.748149 
0.395577 -0.0282187 -0.885916 0.207885 -0.00499283 -0.245014 0.377592 -0.026691 -0.795201 
0.397035 -0.0443442 -0.88993 0.402949 -0.0150231 -0.776848 0.402889 -0.0248758 -0.825628 
0.390083 -0.0402203 -0.979352 0.332323 -0.0289944 -0.431716 0.410667 -0.0390236 -0.863017 
0.402111 -0.00926935 -0.825898 0.208049 -0.0247207 -0.235015 0.372136 -0.0336155 -0.759834 
0.388968 -0.0386658 -0.869779 0.353565 -0.00552781 -0.873056 0.371413 -0.0112452 -0.699864 
0.348944 -0.0410559 -0.90938 0.384787 -0.031739 -0.689346 0.219508 -0.0344267 -0.245002 
0.38862 -0.0337768 -0.771906 0.390063 -0.0324035 -0.925273 0.342815 -0.00881485 -0.497638 
0.395539 -0.00878957 -0.704861 0.33485 -0.00711471 -0.417199 0.385029 -0.0345526 -0.967143 
0.403606 -0.0301618 -0.751524 0.379032 -0.0157825 -0.819247 0.372983 -0.0213362 -0.717047 
0.391942 -0.0409901 -0.830416 0.361993 -0.0232441 -0.843363 0.397364 -0.0247481 -0.725543 
0.37605 -0.00578257 -0.645588 0.380526 -0.0413462 -0.688671 0.418622 -0.0369548 -0.813417 
0.355059 -0.011864 -0.593453 0.33665 -0.00718235 -0.658836 0.283158 -0.0203509 -0.330707 
0.369738 -0.034259 -0.619433 0.369741 -0.0404221 -0.691988 0.387114 -0.0128259 -0.731691 
0.345319 -0.00956703 -0.717035 0.388353 -0.0350068 -0.787124 0.359022 -0.0315149 -0.797723 
0.37698 -0.043528 -0.796228 0.389762 -0.039079 -0.734519 0.341273 -0.0202107 -0.719524 
0.374299 -0.025201 -0.7415 0.371271 -0.0434379 -0.721343 0.348996 -0.0448158 -0.751837 
0.413743 -0.00977783 -0.811218 0.400456 -0.00554122 -0.847784 0.320154 -0.0333232 -0.806678 
0.350799 -0.0420064 -0.61053 0.360585 -0.0106169 -0.702025 0.345495 -0.0178538 -0.503671 
0.387876 -0.0119321 -0.667556 0.36031 -0.0421548 -0.680593 0.375811 -0.00602186 -0.679716 
0.357027 -0.0164973 -0.61026 0.374431 -0.0147973 -0.663466 0.379377 -0.0154429 -0.677896 
0.372123 -0.0194614 -0.616953 0.394794 -0.0341441 -0.667026 0.219403 -0.0258869 -0.235945 
0.309641 -0.0129825 -0.37384 0.404922 -0.0330669 -0.721146 0.352757 -0.0167964 -0.714295 
0.350915 -0.00946248 -0.64166 0.347877 -0.0288056 -0.642006 0.376679 -0.00630632 -0.691551 
0.381971 -0.0118793 -0.774947 0.345043 -0.0131772 -0.582416 0.386349 -0.016845 -0.633015 
0.335531 -0.0349058 -0.573344 0.352114 -0.0280151 -0.702353 0.333603 -0.029228 -0.616274 
0.371524 -0.00571529 -0.58217 0.322769 -0.0148637 -0.394982 0.236889 -0.00716326 -0.244732 
0.355184 -0.0235224 -0.589447 0.379523 -0.0301916 -0.66779 0.352861 -0.0409739 -0.586667 
0.261883 -0.0431409 -0.269304 0.35495 -0.0266954 -0.60387 0.389488 -0.0159727 -0.698518 
0.346191 -0.0174343 -0.636117 0.360088 -0.0182916 -0.574609 0.343073 -0.0362081 -0.419501 
0.385456 -0.0114869 -0.616122 0.371624 -0.0261523 -0.64766 0.369899 -0.0412001 -0.631305 
0.350535 -0.043525 -0.561937 0.352978 -0.0377125 -0.627331 0.342076 -0.018817 -0.572008 
0.369205 -0.0317213 -0.578518 0.368402 -0.038095 -0.569038 0.350798 -0.0165773 -0.67956 
0.205084 -0.00503943 -0.235417 0.335308 -0.0415344 -0.486554 0.261546 -0.0343016 -0.294236 
0.372813 -0.0376786 -0.599826 0.319051 -0.00592061 -0.392151 0.348587 -0.0274024 -0.562843 
0.343814 -0.0443059 -0.521104 0.348964 -0.00929354 -0.558107 0.366946 -0.0187629 -0.63312 
0.364077 -0.00858225 -0.553085 0.345285 -0.0368214 -0.551267 0.216916 -0.0441092 -0.244983 
0.36828 -0.00767101 -0.567996 0.349913 -0.0305046 -0.54176 0.370437 -0.0448032 -0.614315 
0.351217 -0.0298753 -0.577903 0.339311 -0.0222997 -0.477991 0.358032 -0.035436 -0.495083 
0.32137 -0.022793 -0.407872 0.347836 -0.0415213 -0.571537 0.343394 -0.00807245 -0.482196 
0.362813 -0.0441846 -0.576767 0.332298 -0.0441319 -0.410758 0.356085 -0.0189683 -0.564211 
0.362462 -0.0226022 -0.557074 0.297882 -0.0369543 -0.357556 0.337186 -0.0303994 -0.454155 
0.352787 -0.04455 -0.472633 0.351982 -0.00723999 -0.513169 0.363163 -0.0330214 -0.530758 
0.338118 -0.0211237 -0.511765 0.36377 -0.0187426 -0.542171 0.351036 -0.0361333 -0.507214 
0.354602 -0.042992 -0.523147 0.345324 -0.0060058 -0.57196 0.337796 -0.0179795 -0.446017 
0.313602 -0.0185311 -0.385911 0.34305 -0.00608878 -0.457871 0.344173 -0.0338969 -0.476023 
0.351206 -0.017361 -0.530038 0.286535 -0.00610537 -0.315289 0.366384 -0.0437802 -0.55133 
0.350208 -0.0419236 -0.481935 0.21737 -0.0147046 -0.230056 0.353787 -0.0227019 -0.490523 
0.353107 -0.0108356 -0.473658 0.363134 -0.0416191 -0.541863 0.352397 -0.0448596 -0.456483 
0.335989 -0.0442767 -0.429836 0.35946 -0.0144114 -0.495792 0.337947 -0.0058072 -0.405015 
0.342083 -0.0444508 -0.50625 0.361089 -0.0167892 -0.519707 0.32789 -0.0425572 -0.440964 
0.206536 -0.0344152 -0.232728 0.349869 -0.0147589 -0.451713 0.325832 -0.0361017 -0.381042 
0.353447 -0.0236407 -0.505399 0.317131 -0.00495957 -0.371707 0.345273 -0.0350111 -0.461901 
0.356272 -0.0269565 -0.47795 0.338432 -0.018111 -0.433595 0.344564 -0.0449294 -0.450202 
0.240491 -0.034656 -0.248001 0.328538 -0.0408027 -0.420038 0.258426 -0.0239429 -0.253214 
0.299259 -0.0244051 -0.359811 0.341679 -0.0416343 -0.440642 0.319127 -0.0317583 -0.399712 
0.352147 -0.0138489 -0.463341 0.31747 -0.0359476 -0.388568 0.345039 -0.0237447 -0.45214 
0.351701 -0.0108794 -0.487948 0.223144 -0.0435907 -0.237185 0.267598 -0.0444973 -0.29683 
0.307877 -0.042671 -0.372425 0.288884 -0.0445236 -0.32934 0.334245 -0.0202891 -0.420418 
0.344804 -0.00638521 -0.434534 0.312751 -0.0280523 -0.332942 0.330312 -0.0130788 -0.409771 
0.32287 -0.0242472 -0.390592 0.333242 -0.0295311 -0.38116 0.228271 -0.0140659 -0.240723 
0.328186 -0.0446615 -0.39391 0.278405 -0.0360867 -0.317822 0.339374 -0.0270636 -0.399888 
0.333103 -0.00513604 -0.358567 0.285283 -0.00546193 -0.332052 0.331178 -0.0246748 -0.359925 
0.298206 -0.00796115 -0.348499 0.214576 -0.0419174 -0.23225 0.207352 -0.0168891 -0.222806 
0.336127 -0.0278294 -0.499904 0.266504 -0.0121499 -0.278651 0.298156 -0.00686427 -0.33199 
0.310078 -0.0389792 -0.335267 0.304691 -0.031895 -0.368215 0.328299 -0.00876136 -0.389237 
0.341321 -0.00645624 -0.393008 0.216075 -0.00841515 -0.239745 0.306351 -0.0187725 -0.364403 
0.322065 -0.00643682 -0.337934 0.291884 -0.0284149 -0.347288 0.291111 -0.0218683 -0.319271 
0.336671 -0.0160152 -0.389426 0.323576 -0.0221576 -0.373304 0.261285 -0.0323626 -0.24026 
0.334719 -0.0440566 -0.373407 0.25824 -0.00637529 -0.241921 0.34245 -0.0126227 -0.422207 
0.327243 -0.039915 -0.366177 0.268535 -0.0381014 -0.283773 0.274026 -0.0377402 -0.302261 
0.248035 -0.0438446 -0.238898 0.301463 -0.0217702 -0.346994 0.300662 -0.0404024 -0.326255 
0.313692 -0.00729719 -0.302435 0.287542 -0.00661773 -0.286659 0.205778 -0.0302212 -0.213953 
0.235788 -0.021479 -0.240671 0.248166 -0.00629374 -0.239694 0.264874 -0.00930292 -0.294907 
0.315579 -0.0150715 -0.291035 0.313405 -0.0428719 -0.295121 0.207187 -0.00542565 -0.225676 
0.277704 -0.0322849 -0.283798 0.211074 -0.0118728 -0.2125 0.290451 -0.0334807 -0.336699 
0.290891 -0.0445215 -0.319004 0.314507 -0.00780198 -0.362084 0.319428 -0.0116916 -0.324316 
0.290079 -0.0428041 -0.304268 0.206246 -0.0443399 -0.221406 0.254432 -0.018478 -0.242591 
0.222578 -0.0353247 -0.230504 0.302372 -0.044842 -0.282039 0.247924 -0.0093807 -0.228345 
0.240651 -0.0333475 -0.23333 0.267987 -0.0186728 -0.305914 0.276758 -0.043596 -0.255607 
0.308237 -0.0307485 -0.320444 0.273722 -0.0183631 -0.257053 0.235611 -0.0148399 -0.232991 
0.295245 -0.024026 -0.28659 0.217045 -0.0236885 -0.223328 0.294363 -0.0305669 -0.264522 
0.221224 -0.00500994 -0.230512 0.284231 -0.0229983 -0.266427 0.216348 -0.0427711 -0.222364 
0.302986 -0.0277399 -0.298855 0.272492 -0.0292847 -0.26206 0.29802 -0.0357102 -0.304294 
0.279584 -0.0140661 -0.303861 0.284001 -0.025568 -0.29966 
VERTICES 500 1000
1 0 
1 1 
1 2 
1 3 
1 4 
1 5 
1 6 
1 7 
1 8 
1 9 
1 10 
1 11 
1 12 
1 13 
1 14 
1 15 
1 16 
1 17 
1 18 
1 19 
1 20 
1 21 
1 22 
1 23 
1 24 
1 25 
1 26 
1 27 
1 28 
1 29 
1 30 
1 31 
1 32 
1 33 
1 34 
1 35 
1 36 
1 37 
1 38 
1 39 
1 40 
1 41 
1 42 
1 43 
1 44 
1 45 
1 46 
1 47 
1 48 
1 49 
1 50 
1 51 
1 52 
1 53 
1 54 
1 55 
1 56 
1 57 
1 58 
1 59 
1 60 
1 61 
1 62 
1 63 
1 64 
1 65 
1 66 
1 67 
1 68 
1 69 
1 70 
1 71 
1 72 
1 73 
1 74 
1 75 
1 76 
1 77 
1 78 
1 79 
1 80 
1 81 
1 82 
1 83 
1 84 
1 85 
1 86 
1 87 
1 88 
1 89 
1 90 
1 91 
1 92 
1 93 
1 94 
1 95 
1 96 
1 97 
1 98 
1 99 
1 100 
1 101 
1 102 
1 103 
1 104 
1 105 
1 106 
1 107 
1 108 
1 109 
1 110 
1 111 
1 112 
1 113 
1 114 
1 115 
1 116 
1 117 
1 118 
1 119 
1 120 
1 121 
1 122 
1 123 
1 124 
1 125 
1 126 
1 127 
1 128 
1 129 
1 130 
1 131 
1 132 
1 133 
1 134 
1 135 
1 136 
1 137 
1 138 
1 139 
1 140 
1 141 
1 142 
1 143 
1 144 
1 145 
1 146 
1 147 
1 148 
1 149 
1 150 
1 151 
1 152 
1 153 
1 154 
1 155 
1 156 
1 157 
1 158 
1 159 
1 160 
1 161 
1 162 
1 163 
1 164 
1 165 
1 166 
1 167 
1 168 
1 169 
1 170 
1 171 
1 172 
1 173 
1 174 
1 175 
1 176 
1 177 
1 178 
1 179 
1 180 
1 181 
1 182 
1 183 
1 184 
1 185 
1 186 
1 187 
1 188 
1 189 
1 190 
1 191 
1 192 
1 193 
1 194 
1 195 
1 196 
1 197 
1 198 
1 199 
1 200 
1 201 
1 202 
1 203 
1 204 
1 205 
1 206 
1 207 
1 208 
1 209 
1 210 
1 211 
1 212 
1 213 
1 214 
1 215 
1 216 
1 217 
1 218 
1 219 
1 220 
1 221 
1 222 
1 223 
1 224 
1 225 
1 226 
1 227 
1 228 
1 229 
1 230 
1 231 
1 232 
1 233 
1 234 
1 235 
1 236 
1 237 
1 238 
1 239 
1 240 
1 241 
1 242 
1 243 
1 244 
1 245 
1 246 
1 247 
1 248 
1 249 
1 250 
1 251 
1 252 
1 253 
1 254 
1 255 
1 256 
1 257 
1 258 
1 259 
1 260 
1 261 
1 262 
1 263 
1 264 
1 265 
1 266 
1 267 
1 268 
1 269 
1 270 
1 271 
1 272 
1 273 
1 274 
1 275 
1 276 
1 277 
1 278 
1 279 
1 280 
1 281 
1 282 
1 283 
1 284 
1 285 
1 286 
1 287 
1 288 
1 289 
1 290 
1 291 
1 292 
1 293 
1 294 
1 295 
1 296 
1 297 
1 298 
1 299 
1 300 
1 301 
1 302 
1 303 
1 304 
1 305 
1 306 
1 307 
1 308 
1 309 
1 310 
1 311 
1 312 
1 313 
1 314 
1 315 
1 316 
1 317 
1 318 
1 319 
1 320 
1 321 
1 322 
1 323 
1 324 
1 325 
1 326 
1 327 
1 328 
1 329 
1 330 
1 331 
1 332 
1 333 
1 334 
1 335 
1 336 
1 337 
1 338 
1 339 
1 340 
1 341 
1 342 
1 343 
1 344 
1 345 
1 346 
1 347 
1 348 
1 349 
1 350 
1 351 
1 352 
1 353 
1 354 
1 355 
1 356 
1 357 
1 358 
1 359 
1 360 
1 361 
1 362 
1 363 
1 364 
1 365 
1 366 
1 367 
1 368 
1 369 
1 370 
1 371 
1 372 
1 373 
1 374 
1 375 
1 376 
1 377 
1 378 
1 379 
1 380 
1 381 
1 382 
1 383 
1 384 
1 385 
1 386 
1 387 
1 388 
1 389 
1 390 
1 391 
1 392 
1 393 
1 394 
1 395 
1 396 
1 397 
1 398 
1 399 
1 400 
1 401 
1 402 
1 403 
1 404 
1 405 
1 406 
1 407 
1 408 
1 409 
1 410 
1 411 
1 412 
1 413 
1 414 
1 415 
1 416 
1 417 
1 418 
1 419 
1 420 
1 421 
1 422 
1 423 
1 424 
1 425 
1 426 
1 427 
1 428 
1 429 
1 430 
1 431 
1 432 
1 433 
1 434 
1 435 
1 436 
1 437 
1 438 
1 439 
1 440 
1 441 
1 442 
1 443 
1 444 
1 445 
1 446 
1 447 
1 448 
1 449 
1 450 
1 451 
1 452 
1 453 
1 454 
1 455 
1 456 
1 457 
1 458 
1 459 
1 460 
1 461 
1 462 
1 463 
1 464 
1 465 
1 466 
1 467 
1 468 
1 469 
1 470 
1 471 
1 472 
1 473 
1 474 
1 475 
1 476 
1 477 
1 478 
1 479 
1 480 
1 481 
1 482 
1 483 
1 484 
1 485 
1 486 
1 487 
1 488 
1 489 
1 490 
1 491 
1 492 
1 493 
1 494 
1 495 
1 496 
1 497 
1 498 
1 499 

POINT_DATA 500
FIELD FieldData 7
id 1 500 int
1 2 3 4 5 6 7 8 9 
10 11 12 13 14 15 16 17 18 
19 20 21 22 23 24 25 26 27 
28 29 30 31 32 33 34 35 36 
37 38 39 40 41 42 43 44 45 
46 47 48 49 50 51 52 53 54 
55 56 57 58 59 60 61 62 63 
64 65 66 67 68 69 70 71 72 
73 74 75 76 77 78 79 80 81 
82 83 84 85 86 87 88 89 90 
91 92 93 94 95 96 97 98 99 
100 101 102 103 104 105 106 107 108 
109 110 111 112 113 114 115 116 117 
118 119 120 121 122 123 124 125 126 
127 128 129 130 131 132 133 134 135 
136 137 138 139 140 141 142 143 144 
145 146 147 148 149 150 151 152 153 
154 155 156 157 158 159 160 161 162 
163 164 165 166 167 168 169 170 171 
172 173 174 175 176 177 178 179 180 
181 182 183 184 185 186 187 188 189 
190 191 192 193 194 195 196 197 198 
199 200 201 202 203 204 205 206 207 
208 209 210 211 212 213 214 215 216 
217 218 219 220 221 222 223 224 225 
226 227 228 229 230 231 232 233 234 
235 236 237 238 239 240 241 242 243 
244 245 246 247 248 249 250 251 252 
253 254 255 256 257 258 259 260 261 
262 263 264 265 266 267 268 269 270 
271 272 273 274 275 276 277 278 279 
280 281 282 283 284 285 286 287 288 
289 290 291 292 293 294 295 296 297 
298 299 300 301 302 303 304 305 306 
307 308 309 310 311 312 313 314 315 
316 317 318 319 320 321 322 323 324 
325 326 327 328 329 330 331 332 333 
334 335 336 337 338 339 340 341 342 
343 344 345 346 347 348 349 350 351 
352 353 354 355 356 357 358 359 360 
361 362 363 364 365 366 367 368 369 
370 371 372 373 374 375 376 377 378 
379 380 381 382 383 384 385 386 387 
388 389 390 391 392 393 394 395 396 
397 398 399 400 401 402 403 404 405 
406 407 408 409 410 411 412 413 414 
415 416 417 418 419 420 421 422 423 
424 425 426 427 428 429 430 431 432 
433 434 435 436 437 438 439 440 441 
442 443 444 445 446 447 448 449 450 
451 452 453 454 455 456 457 458 459 
460 461 462 463 464 465 466 467 468 
469 470 471 472 473 474 475 476 477 
478 479 480 481 482 483 484 485 486 
487 488 489 490 491 492 493 494 495 
496 497 498 499 500 
type 1 500 int
1 1 1 1 1 1 1 1 1 
1 1 1 1 1 1 1 1 1 
1 1 1 1 1 1 1 1 1 
1 1 1 1 1 1 1 1 1 
1 1 1 1 1 1 1 1 1 
1 1 1 1 1 1 1 1 1 
1 1 1 1 1 1 1 1 1 
1 1 1 1 1 1 1 1 1 
1 1 1 1 1 1 1 1 1 
1 1 1 1 1 1 1 1 1 
1 1 1 1 1 1 1 1 1 
1 1 1 1 1 1 1 1 1 
1 1 1 1 1 1 1 1 1 
1 1 1 1 1 1 1 1 1 
1 1 1 1 1 1 1 1 1 
1 1 1 1 1 1 1 1 1 
1 1 1 1 1 1 1 1 1 
1 1 1 1 1 1 1 1 1 
1 1 1 1 1 1 1 1 1 
1 1 1 1 1 1 1 1 1 
1 1 1 1 1 1 1 1 1 
1 1 1 1 1 1 1 1 1 
1 1 1 1 1 1 1 1 1 
1 1 1 1 1 1 1 1 1 
1 1 1 1 1 1 1 1 1 
1 1 1 1 1 1 1 1 1 
1 1 1 1 1 1 1 1 1 
1 1 1 1 1 1 1 1 1 
1 1 1 1 1 1 1 1 1 
1 1 1 1 1 1 1 1 1 
1 1 1 1 1 1 1 1 1 
1 1 1 1 1 1 1 1 1 
1 1 1 1 1 1 1 1 1 
1 1 1 1 1 1 1 1 1 
1 1 1 1 1 1 1 1 1 
1 1 1 1 1 1 1 1 1 
1 1 1 1 1 1 1 1 1 
1 1 1 1 1 1 1 1 1 
1 1 1 1 1 1 1 1 1 
1 1 1 1 1 1 1 1 1 
1 1 1 1 1 1 1 1 1 
1 1 1 1 1 1 1 1 1 
1 1 1 1 1 1 1 1 1 
1 1 1 1 1 1 1 1 1 
1 1 1 1 1 1 1 1 1 
1 1 1 1 1 1 1 1 1 
1 1 1 1 1 1 1 1 1 
1 1 1 1 1 1 1 1 1 
1 1 1 1 1 1 1 1 1 
1 1 1 1 1 1 1 1 1 
1 1 1 1 1 1 1 1 1 
1 1 1 1 1 1 1 1 1 
1 1 1 1 1 1 1 1 1 
1 1 1 1 1 1 1 1 1 
1 1 1 1 1 1 1 1 1 
1 1 1 1 1 
i 3 500 int
0 0 0 0 0 0 0 0 0 
0 0 0 0 0 0 0 0 0 
0 0 0 0 0 0 0 0 0 
0 0 0 0 0 0 0 0 0 
0 0 0 0 0 0 0 0 0 
0 0 0 0 0 0 0 0 0 
0 0 0 0 0 0 0 0 0 
0 0 0 0 0 0 0 0 0 
0 0 0 0 0 0 0 0 0 
0 0 0 0 0 0 0 0 0 
0 0 0 0 0 0 0 0 0 
0 0 0 0 0 0 0 0 0 
0 0 0 0 0 0 0 0 0 
0 0 0 0 0 0 0 0 0 
0 0 0 0 0 0 0 0 0 
0 0 0 0 0 0 0 0 0 
0 0 0 0 0 0 0 0 0 
0 0 0 0 0 0 0 0 0 
0 0 0 0 0 0 0 0 0 
0 0 0 0 0 0 0 0 0 
0 0 0 0 0 0 0 0 0 
0 0 0 0 0 0 0 0 0 
0 0 0 0 0 0 0 0 0 
0 0 0 0 0 0 0 0 0 
0 0 0 0 0 0 0 0 0 
0 0 0 0 0 0 0 0 0 
0 0 0 0 0 0 0 0 0 
0 0 0 0 0 0 0 0 0 
0 0 0 0 0 0 0 0 0 
0 0 0 0 0 0 0 0 0 
0 0 0 0 0 0 0 0 0 
0 0 0 0 0 0 0 0 0 
0 0 0 0 0 0 0 0 0 
0 0 0 0 0 0 0 0 0 
0 0 0 0 0 0 0 0 0 
0 0 0 0 0 0 0 0 0 
0 0 0 0 0 0 0 0 0 
0 0 0 0 0 0 0 0 0 
0 0 0 0 0 0 0 0 0 
0 0 0 0 0 0 0 0 0 
0 0 0 0 0 0 0 0 0 
0 0 0 0 0 0 0 0 0 
0 0 0 0 0 0 0 0 0 
0 0 0 0 0 0 0 0 0 
0 0 0 0 0 0 0 0 0 
0 0 0 0 0 0 0 0 0 
0 0 0 0 0 0 0 0 0 
0 0 0 0 0 0 0 0 0 
0 0 0 0 0 0 0 0 0 
0 0 0 0 0 0 0 0 0 
0 0 0 0 0 0 0 0 0 
0 0 0 0 0 0 0 0 0 
0 0 0 0 0 0 0 0 0 
0 0 0 0 0 0 0 0 0 
0 0 0 0 0 0 0 0 0 
0 0 0 0 0 0 0 0 0 
0 0 0 0 0 0 0 0 0 
0 0 0 0 0 0 0 0 0 
0 0 0 0 0 0 0 0 0 
0 0 0 0 0 0 0 0 0 
0 0 0 0 0 0 0 0 0 
0 0 0 0 0 0 0 0 0 
0 0 0 0 0 0 0 0 0 
0 0 0 0 0 0 0 0 0 
0 0 0 0 0 0 0 0 0 
0 0 0 0 0 0 0 0 0 
0 0 0 0 0 0 0 0 0 
0 0 0 0 0 0 0 0 0 
0 0 0 0 0 0 0 0 0 
0 0 0 0 0 0 0 0 0 
0 0 0 0 0 0 0 0 0 
0 0 0 0 0 0 0 0 0 
0 0 0 0 0 0 0 0 0 
0 0 0 0 0 0 0 0 0 
0 0 0 0 0 0 0 0 0 
0 0 0 0 0 0 0 0 0 
0 0 0 0 0 0 0 0 0 
0 0 0 0 0 0 0 0 0 
0 0 0 0 0 0 0 0 0 
0 0 0 0 0 0 0 0 0 
0 0 0 0 0 0 0 0 0 
0 0 0 0 0 0 0 0 0 
0 0 0 0 0 0 0 0 0 
0 0 0 0 0 0 0 0 0 
0 0 0 0 0 0 0 0 0 
0 0 0 0 0 0 0 0 0 
0 0 0 0 0 0 0 0 0 
0 0 0 0 0 0 0 0 0 
0 0 0 0 0 0 0 0 0 
0 0 0 0 0 0 0 0 0 
0 0 0 0 0 0 0 0 0 
0 0 0 0 0 0 0 0 0 
0 0 0 0 0 0 0 0 0 
0 0 0 0 0 0 0 0 0 
0 0 0 0 0 0 0 0 0 
0 0 0 0 0 0 0 0 0 
0 0 0 0 0 0 0 0 0 
0 0 0 0 0 0 0 0 0 
0 0 0 0 0 0 0 0 0 
0 0 0 0 0 0 0 0 0 
0 0 0 0 0 0 0 0 0 
0 0 0 0 0 0 0 0 0 
0 0 0 0 0 0 0 0 0 
0 0 0 0 0 0 0 0 0 
0 0 0 0 0 0 0 0 0 
0 0 0 0 0 0 0 0 0 
0 0 0 0 0 0 0 0 0 
0 0 0 0 0 0 0 0 0 
0 0 0 0 0 0 0 0 0 
0 0 0 0 0 0 0 0 0 
0 0 0 0 0 0 0 0 0 
0 0 0 0 0 0 0 0 0 
0 0 0 0 0 0 0 0 0 
0 0 0 0 0 0 0 0 0 
0 0 0 0 0 0 0 0 0 
0 0 0 0 0 0 0 0 0 
0 0 0 0 0 0 0 0 0 
0 0 0 0 0 0 0 0 0 
0 0 0 0 0 0 0 0 0 
0 0 0 0 0 0 0 0 0 
0 0 0 0 0 0 0 0 0 
0 0 0 0 0 0 0 0 0 
0 0 0 0 0 0 0 0 0 
0 0 0 0 0 0 0 0 0 
0 0 0 0 0 0 0 0 0 
0 0 0 0 0 0 0 0 0 
0 0 0 0 0 0 0 0 0 
0 0 0 0 0 0 0 0 0 
0 0 0 0 0 0 0 0 0 
0 0 0 0 0 0 0 0 0 
0 0 0 0 0 0 0 0 0 
0 0 0 0 0 0 0 0 0 
0 0 0 0 0 0 0 0 0 
0 0 0 0 0 0 0 0 0 
0 0 0 0 0 0 0 0 0 
0 0 0 0 0 0 0 0 0 
0 0 0 0 0 0 0 0 0 
0 0 0 0 0 0 0 0 0 
0 0 0 0 0 0 0 0 0 
0 0 0 0 0 0 0 0 0 
0 0 0 0 0 0 0 0 0 
0 0 0 0 0 0 0 0 0 
0 0 0 0 0 0 0 0 0 
0 0 0 0 0 0 0 0 0 
0 0 0 0 0 0 0 0 0 
0 0 0 0 0 0 0 0 0 
0 0 0 0 0 0 0 0 0 
0 0 0 0 0 0 0 0 0 
0 0 0 0 0 0 0 0 0 
0 0 0 0 0 0 0 0 0 
0 0 0 0 0 0 0 0 0 
0 0 0 0 0 0 0 0 0 
0 0 0 0 0 0 0 0 0 
0 0 0 0 0 0 0 0 0 
0 0 0 0 0 0 0 0 0 
0 0 0 0 0 0 0 0 0 
0 0 0 0 0 0 0 0 0 
0 0 0 0 0 0 0 0 0 
0 0 0 0 0 0 0 0 0 
0 0 0 0 0 0 0 0 0 
0 0 0 0 0 0 0 0 0 
0 0 0 0 0 0 0 0 0 
0 0 0 0 0 0 0 0 0 
0 0 0 0 0 0 0 0 0 
0 0 0 0 0 0 0 0 0 
0 0 0 0 0 0 0 0 0 
0 0 0 0 0 0 
v 3 500 double
-0.488525 -0.996802 1.31582 1.31725 0.339666 -1.47008 -0.503667 0.181766 -1.07622 
-2.05387 0.05681 0.101134 -0.258342 -0.0600496 1.2802 -0.684454 -0.285581 0.571833 
-1.01178 0.424608 1.08618 -0.355462 0.031393 1.09346 -0.187731 0.0172905 0.942354 
-0.661416 -0.170522 -0.758068 -0.203239 0.0811737 1.01576 0.361351 -0.612313 0.70012 
-0.673324 -0.421473 0.193102 -0.787929 -0.117994 0.387981 -0.341783 0.060187 1.03582 
0.451909 -0.0643114 -2.67163 -1.01517 -0.0785494 -0.860382 0.657219 0.221898 0.103717 
1.4464 -1.24164 -2.14553 1.73854 -0.617358 -1.30284 2.3391 0.149158 -0.0450705 
-0.479856 -0.220161 0.205372 0.302282 0.00573739 -0.119166 -0.816597 -0.389025 0.78962 
0.375797 0.0106854 -0.419074 -0.236015 -0.00821737 0.267491 0.106248 0.419404 -0.00568637 
-0.446596 0.729348 0.199767 -0.272443 0.110682 -2.43197 0.27316 -0.145864 -2.92542 
0.350336 1.66346 -3.26483 0.349191 0.493903 -3.36978 0.586066 -0.0183881 -2.62887 
1.34766 -0.330487 -0.315396 0.211943 0.0708259 0.0333666 -0.0208629 -0.045752 -3.37321 
-0.424203 0.476486 -0.996387 -0.535154 1.35111 0.717051 -0.0305032 0.207213 0.483588 
0.0969016 -0.333483 0.150325 -0.0144129 -0.00138123 0.0104412 1.59852 -0.0736067 0.818287 
-0.490664 0.241727 1.79961 0.0030321 1.3698 -1.72604 -0.213947 0.115414 1.54073 
0.145848 -0.0690878 0.115612 -0.858797 0.23964 1.19124 -1.23262 0.319663 0.166776 
-0.400679 0.408865 -0.221047 0.607032 -1.14541 -0.820564 1.04504 -1.13563 -1.77812 
-0.105667 0.139886 0.0383833 -0.528378 -0.766587 0.359319 -0.996885 -0.518608 0.650757 
-1.90257 -0.293261 -1.06555 -1.67855 0.237817 0.425403 0.779416 -0.371299 -1.85076 
-0.299543 -0.100675 1.45672 -0.678784 0.0994551 1.02496 -1.97024 0.574725 -0.116045 
-1.30153 0.145648 -0.366844 -0.146802 -0.554038 -0.155546 -2.00301 1.19431 -0.672555 
0.152863 0.208563 -3.5478 -0.455908 0.496827 2.35194 -0.236961 0.71284 -0.149607 
-0.32648 -0.0877762 -0.063331 -0.265361 0.601904 0.0585042 0.48836 -0.120006 -0.0469425 
-0.505049 -0.421011 -0.279579 0.669597 0.242829 -0.253721 0.020128 -0.156818 0.0352608 
-0.269463 0.226367 0.800525 0.362635 0.314001 0.642051 -0.286417 0.30797 0.0876519 
-0.351135 -1.10736 -1.20333 -0.19758 0.133947 -0.993474 0.333944 -0.0724957 -0.0548317 
0.64547 -0.292331 0.028747 -0.0622139 0.360256 0.344851 -1.31506 -0.725806 0.71678 
-1.37963 0.217715 1.43587 0.482807 -0.0491716 -4.10228 -2.81666 0.159781 -0.183755 
0.0783084 -0.0114313 -0.0010797 -2.30583 -1.51312 -2.17753 -2.06031 -1.49527 -0.215243 
0.518778 0.0932248 -3.54737 -0.461134 -0.193491 -1.12391 -1.03243 0.662336 0.716806 
-1.7258 0.686384 1.00197 -0.113832 1.29285 0.265993 -1.57975 -0.0439189 0.692556 
-0.779568 0.582275 0.550378 1.49645 -0.512105 -1.43559 -2.0926 -0.627263 0.562127 
0.305093 -0.14088 -4.23257 -0.397968 1.09072 -0.161573 0.457258 0.0547415 -0.431926 
1.06783 -0.968675 0.797692 0.0300053 -0.545026 0.943725 0.0144391 -0.0012105 -0.00523485 
-0.744845 0.00514185 1.28492 0.108758 0.363485 -0.0108692 -0.251934 -0.430715 1.2438 
-2.5424 -0.294918 1.20308 -0.272467 0.0714873 1.00256 -0.963947 0.179419 1.90531 
-0.437373 -0.443433 -0.263848 0.110574 0.320332 -2.69907 0.115387 0.733047 1.01 
1.11778 -0.731308 -1.18152 -0.113874 0.547264 -0.44637 0.254254 -0.743909 1.16741 
-0.289459 -0.163284 2.45458 -2.47631 -0.655776 0.547719 -0.0112183 -0.179712 -0.0112054 
1.12238 0.425528 -0.583424 -0.0030914 0.566955 0.260748 0.014798 0.0374121 -3.93484 
0.726162 0.282792 -0.658202 0.454036 -0.0452369 -4.03021 0.0351315 -0.131433 -0.444707 
-0.188633 0.295062 -3.91708 0.105136 -0.347037 0.237726 0.125849 -0.0370106 -3.68026 
0.0889778 0.0161719 -0.00305601 -0.0927632 0.347649 0.205545 0.359153 -1.07405 0.0283633 
-0.0909344 -0.84246 1.27241 -0.706602 0.57532 0.258761 -0.0458566 -0.0425986 0.28352 
0.0305849 -0.212799 -0.146629 -0.504032 -0.273946 0.198302 -1.10282 -0.904792 -0.635195 
0.336849 0.0882142 -4.30499 0.623425 -2.16771 -0.296018 0.024666 0.444437 -0.620404 
-1.71901 -0.11589 0.231804 0.694985 0.0549077 -3.34359 -0.096772 -0.437666 0.379401 
0.424141 0.769044 -1.36881 0.103143 0.0887562 -0.0171601 0.899121 0.678984 0.526524 
-0.224002 -0.375791 0.781853 0.862491 -0.617581 -0.309495 -1.11809 0.46209 1.02102 
0.0630029 0.198002 -3.58553 0.686226 0.773692 -0.633858 0.353999 0.566438 -3.66249 
0.518184 -0.473464 0.150301 0.31578 0.0615944 -4.24775 -0.727091 0.191916 -1.34363 
0.390295 -0.120845 0.451239 0.189368 0.13615 0.0697974 -1.52 -0.133699 -1.12511 
-0.0188235 -0.0473201 -4.2305 1.30283 0.912249 0.237321 -1.29194 -0.252398 -0.464419 
0.747022 -2.22203 -2.67218 -0.231373 -0.878308 0.0322572 -0.442964 -1.0927 1.07151 
-0.888547 0.289789 0.139747 0.146975 0.026986 -3.57904 -1.93126 0.188754 -0.809021 
0.380285 -0.00215447 -4.21056 -0.500418 -0.820301 -2.69465 0.423731 -0.0021919 -4.38594 
-1.36668 1.22485 0.964815 1.03744 -2.00907 0.813424 0.0115395 -0.124445 0.173799 
-1.60247 -0.505147 -0.554132 0.698535 -0.125813 -3.03951 -0.249003 -0.589429 0.59053 
-2.20824 0.0304094 1.73249 0.0872005 -0.395879 -0.14326 0.393649 -0.023606 -3.71247 
1.89871 0.169263 0.226468 0.103158 0.0358341 -3.9576 -0.83947 0.663881 -3.49036 
0.283426 -0.0138178 -3.43397 0.403026 0.0141986 -4.29182 0.808595 -0.0604926 -0.86458 
-1.49658 -0.2087 0.829267 -0.869579 0.0757458 0.856761 -0.0413918 -0.0159789 1.19052 