# vtk DataFile Version 4.0
Generated by LIGGGHTS
ASCII
DATASET POLYDATA
POINTS 500 float
0.410757 -0.0450015 -1.18634 0.410446 -0.0286893 -1.18795 0.00505539 -0.0250061 -1.19501 
0.0395573 -0.0205851 -1.17571 0.0169043 -0.022214 -1.17263 0.0363971 -0.00499813 -1.17657 
0.0458159 -0.0366118 -1.18625 0.0322691 -0.0450009 -1.17656 0.0909217 -0.0165391 -1.17818 
0.469269 -0.00500005 -1.18503 0.340992 -0.0450009 -1.195 0.463716 -0.0136961 -1.19501 
0.0217328 -0.0141016 -1.16933 0.32091 -0.00499851 -1.195 0.0440081 -0.0111632 -1.17456 
0.367557 -0.027522 -1.19501 0.0277289 -0.0450025 -1.18546 0.495001 -0.0450011 -1.18513 
0.0410357 -0.0360632 -1.19501 0.480937 -0.0139968 -1.18764 0.00556661 -0.0198984 -1.17185 
0.182276 -0.0300286 -1.18792 0.493462 -0.0450005 -1.195 0.0538565 -0.00499526 -1.18635 
0.169031 -0.0299475 -1.18763 0.360128 -0.0449996 -1.18525 0.485737 -0.0287457 -1.19501 
0.456034 -0.0450064 -1.195 0.314055 -0.0146684 -1.195 0.0959242 -0.0136549 -1.18635 
0.0343041 -0.0206 -1.18782 0.434435 -0.0444477 -1.18717 0.408039 -0.0132906 -1.18807 
0.457607 -0.01956 -1.1897 0.205534 -0.0340274 -1.195 0.0337151 -0.0375463 -1.18837 
0.386373 -0.0049958 -1.195 0.0148717 -0.0434692 -1.19501 0.0384542 -0.0377494 -1.17958 
0.495002 -0.0099962 -1.18634 0.229038 -0.0446132 -0.245002 0.114354 -0.0276797 -1.195 
0.0694409 -0.00848107 -1.17227 0.40497 -0.0370515 -1.18814 0.119349 -0.0363394 -1.195 
0.466067 -0.0338231 -1.195 0.0054082 -0.0369226 -1.17915 0.00499868 -0.020004 -1.18636 
0.484284 -0.0450018 -1.18734 0.42575 -0.0214517 -1.18792 0.375421 -0.00500226 -1.195 
0.477864 -0.045 -1.195 0.0219231 -0.00499673 -1.18781 0.0612698 -0.045001 -1.16951 
0.00995036 -0.0249947 -1.17925 0.0148722 -0.0336968 -1.17926 0.0859184 -0.0223983 -1.19501 
0.0694447 -0.0184766 -1.17203 0.0142941 -0.00499899 -1.18135 0.0436428 -0.0296287 -1.17692 
0.026629 -0.035183 -1.19501 0.449412 -0.0374011 -1.195 0.0148671 -0.0146657 -1.17886 
0.044783 -0.0210873 -1.1857 0.0778099 -0.0450012 -1.17827 0.425041 -0.0144273 -1.19501 
0.420288 -0.0303975 -1.18767 0.442546 -0.0281382 -1.18278 0.431743 -0.00500105 -1.195 
0.00499822 -0.0130866 -1.17914 0.485664 -0.0387427 -1.19501 0.491647 -0.0199994 -1.18703 
0.0438541 -0.0121139 -1.19009 0.0137648 -0.0197958 -1.19501 0.056224 -0.0450018 -1.17814 
0.0549208 -0.0203046 -1.1874 0.0195225 -0.004999 -1.17283 0.414031 -0.00500587 -1.18861 
0.389615 -0.0318251 -1.195 0.492446 -0.0370112 -1.17969 0.0506836 -0.0367053 -1.1775 
0.027834 -0.0282131 -1.18795 0.441348 -0.0209253 -1.18961 0.00763276 -0.00499815 -1.17389 
0.1542 -0.0346967 -1.17957 0.0615201 -0.0365228 -1.17786 0.0214827 -0.0357865 -1.18646 
0.282626 -0.0437782 -1.18518 0.421095 -0.0430556 -1.18679 0.00499632 -0.00499737 -1.18502 
0.0512336 -0.0367996 -1.195 0.40225 -0.0231152 -1.18659 0.0601151 -0.00499909 -1.17133 
0.00499758 -0.0300026 -1.18635 0.00499576 -0.0450019 -1.19501 0.0119685 -0.0119692 -1.18851 
0.127793 -0.00503353 -1.18636 0.0859201 -0.0136536 -1.18635 0.191087 -0.0450009 -1.195 
0.0669221 -0.0450001 -1.19501 0.0754691 -0.0221192 -1.195 0.20809 -0.0449875 -0.245002 
0.0143586 -0.0269168 -1.18802 0.460961 -0.0104905 -1.18595 0.294059 -0.0145005 -1.195 
0.406807 -0.0167275 -1.17878 0.109343 -0.0421155 -1.18684 0.137766 -0.0309282 -1.195 
0.104344 -0.0450007 -1.195 0.0511829 -0.0286676 -1.18341 0.178115 -0.0134911 -1.195 
0.0614947 -0.0278653 -1.18643 0.495001 -0.00499636 -1.195 0.380911 -0.0133606 -1.195 
0.10299 -0.0150087 -1.1794 0.0412343 -0.0203919 -1.19502 0.255956 -0.0108284 -1.1886 
0.43898 -0.00502259 -1.18811 0.461731 -0.0450036 -1.18598 0.0565149 -0.0365343 -1.18652 
0.274066 -0.0148845 -1.195 0.488884 -0.0260906 -1.17954 0.44622 -0.00499863 -1.195 
0.458643 -0.00499867 -1.195 0.46864 -0.00499635 -1.19501 0.0338473 -0.00499684 -1.18635 
0.205339 -0.0246481 -0.245002 0.466845 -0.036442 -1.18526 0.495006 -0.0149922 -1.195 
0.0177312 -0.0450053 -1.18556 0.0378373 -0.0131531 -1.18217 0.495003 -0.0249893 -1.19501 
0.0588402 -0.00542343 -1.19501 0.0247497 -0.0450021 -1.195 0.0522554 -0.0143957 -1.195 
0.39581 -0.0229392 -1.195 0.0226722 -0.0319633 -1.17282 0.247948 -0.0204517 -1.18789 
0.452669 -0.00499923 -1.18699 0.189654 -0.0269518 -1.195 0.432938 -0.0205584 -1.195 
0.466701 -0.0232414 -1.1948 0.485734 -0.00875015 -1.195 0.41443 -0.02039 -1.18406 
0.471945 -0.0450058 -1.18694 0.397738 -0.0376478 -1.19501 0.0194655 -0.0183907 -1.18692 
0.0612742 -0.0190799 -1.19501 0.439586 -0.0124779 -1.195 0.132823 -0.0165129 -1.18684 
0.0809266 -0.00499603 -1.18635 0.428239 -0.0450005 -1.195 0.00499786 -0.0450038 -1.18501 
0.474214 -0.0132962 -1.19501 0.231187 -0.0329023 -1.18697 0.449633 -0.0224291 -1.195 
0.0349196 -0.0281451 -1.195 0.486362 -0.00499876 -1.18576 0.0149946 -0.00499879 -1.19501 
0.476693 -0.0229834 -1.195 0.00499868 -0.0350043 -1.19501 0.188391 -0.00962865 -1.18769 
0.0290788 -0.0343157 -1.18013 0.027875 -0.0129874 -1.18703 0.0401321 -0.0450008 -1.18658 
0.452432 -0.0128326 -1.195 0.121053 -0.0123881 -1.18772 0.37796 -0.0450008 -1.195 
0.0388508 -0.00499645 -1.19501 0.0582349 -0.0132712 -1.17663 0.225289 -0.00499942 -1.18678 
0.0216104 -0.0126002 -1.195 0.448316 -0.0450008 -1.1886 0.485744 -0.0337402 -1.18635 
0.156299 -0.0362365 -1.195 0.0625856 -0.0221103 -1.17833 0.0909202 -0.0136605 -1.195 
0.482451 -0.0239354 -1.18689 0.0212038 -0.0260898 -1.18078 0.0617883 -0.0362747 -1.195 
0.236048 -0.0363369 -1.195 0.494999 -0.035117 -1.195 0.477597 -0.00499904 -1.19057 
0.00499695 -0.014994 -1.19501 0.0751965 -0.013176 -1.18684 0.14306 -0.0279317 -1.18674 
0.0310849 -0.0245623 -1.17923 0.235971 -0.0079921 -1.18688 0.461875 -0.0191775 -1.18066 
0.196086 -0.0419881 -1.18688 0.0347482 -0.0449745 -1.195 0.357936 -0.0450114 -1.195 
0.369776 -0.0140026 -1.19501 0.00499805 -0.00499778 -1.19501 0.119343 -0.042115 -1.18684 
0.0157902 -0.0389259 -1.17079 0.285927 -0.00539328 -1.18635 0.466033 -0.0447687 -1.195 
0.209521 -0.0152173 -0.245002 0.495014 -0.0300312 -1.18638 0.098015 -0.0240459 -1.17952 
0.0499943 -0.0132664 -1.18228 0.440626 -0.0450003 -1.195 0.457933 -0.0365687 -1.18982 
0.412101 -0.035644 -1.195 0.0859254 -0.00499892 -1.19501 0.485748 -0.0187489 -1.195 
0.476141 -0.0351158 -1.195 0.0116923 -0.0450014 -1.17759 0.0668568 -0.0363031 -1.18632 
0.162842 -0.00499904 -1.195 0.285976 -0.0360885 -1.195 0.0569244 -0.0450083 -1.195 
0.0857177 -0.030838 -1.18641 0.41862 -0.0226127 -1.195 0.236034 -0.0138173 -1.195 
0.390971 -0.0450033 -1.195 0.298099 -0.0172738 -1.14939 0.0246125 -0.0169795 -1.17846 
0.0924211 -0.0380837 -1.18801 0.406599 -0.00518044 -1.18192 0.0445038 -0.0123208 -1.06712 
0.434812 -0.0367361 -1.195 0.0908216 -0.0311167 -1.19501 0.0723795 -0.00499744 -1.18117 
0.108004 -0.0236534 -1.17975 0.398669 -0.00978142 -1.18639 0.132812 -0.00499505 -1.195 
0.373138 -0.0362411 -1.19501 0.0451304 -0.0450044 -1.17792 0.045514 -0.0450016 -1.19501 
0.0516214 -0.00500204 -1.17661 0.0167498 -0.0336487 -1.19501 0.0288515 -0.00499854 -1.19501 
0.0759269 -0.00507269 -1.19501 0.48781 -0.0135774 -1.18039 0.442098 -0.0371547 -1.18816 
0.0467287 -0.0282899 -1.19235 0.0237068 -0.0224551 -1.19501 0.0740803 -0.0344663 -1.17965 
0.0269358 -0.00668579 -1.17932 0.176102 -0.0394164 -1.18838 0.39836 -0.0450031 -1.18827 
0.060681 -0.0121481 -1.18784 0.421983 -0.0371988 -1.195 0.0800766 -0.0160619 -1.1786 
0.45792 -0.0280221 -1.19501 0.0112628 -0.0376859 -1.18769 0.0674034 -0.0136484 -1.18059 
0.400908 -0.014335 -1.195 0.261222 -0.0205736 -1.18758 0.0770195 -0.0450004 -1.195 
0.095924 -0.00499896 -1.195 0.40636 -0.00532685 -1.195 0.39044 -0.0194021 -1.18666 
0.332942 -0.0147895 -1.195 0.476689 -0.0368967 -1.18355 0.105922 -0.00499847 -1.195 
0.359389 -0.0217777 -1.195 0.26185 -0.0387761 -1.18722 0.100917 -0.0136612 -1.19501 
0.126636 -0.0354228 -1.18542 0.061927 -0.0450011 -1.18635 0.0806009 -0.030867 -1.195 
0.0338523 -0.0136554 -1.19501 0.403417 -0.0294229 -1.19501 0.226057 -0.0421073 -1.18684 
0.354491 -0.0310049 -1.195 0.393715 -0.0392221 -1.18156 0.152819 -0.022319 -1.195 
0.421715 -0.00499772 -1.195 0.104356 -0.0276805 -1.19501 0.0909202 -0.0223077 -1.18635 
0.156171 -0.0450016 -1.18632 0.405744 -0.0447808 -1.195 0.221062 -0.0450009 -1.195 
0.203389 -0.00499857 -1.195 0.00499955 -0.0298782 -1.17207 0.426762 -0.02842 -1.19502 
0.209543 -0.0248671 -1.195 0.330994 -0.0450022 -1.195 0.445874 -0.0123302 -1.18723 
0.114353 -0.0103688 -1.195 0.0669723 -0.0449041 -1.17772 0.183392 -0.00499852 -1.195 
0.265946 -0.00863349 -1.18714 0.349417 -0.0223857 -1.195 0.415212 -0.0126344 -1.195 
0.0563547 -0.0277858 -1.195 0.385826 -0.0225674 -1.195 0.0390376 -0.0292668 -1.18596 
0.0943412 -0.044999 -1.195 0.442892 -0.029831 -1.195 0.0512168 -0.0450051 -1.18679 
0.1478 -0.0309675 -1.19501 0.236056 -0.0421081 -1.18684 0.071784 -0.036087 -1.19501 
0.157843 -0.00788598 -1.18684 0.469075 -0.0163915 -1.18701 0.0226549 -0.0415389 -1.17757 
0.0809226 -0.0137357 -1.19501 0.1077 -0.0122871 -1.18779 0.33797 -0.0234485 -1.195 
0.380357 -0.030227 -1.1916 0.09943 -0.0450026 -1.1863 0.230972 -0.00499929 -1.195 
0.109355 -0.0190231 -1.195 0.328501 -0.0266557 -1.195 0.375853 -0.021975 -1.195 
0.282843 -0.0296406 -1.18803 0.426741 -0.00499719 -1.18635 0.231056 -0.0450007 -1.195 
0.266613 -0.0346883 -1.195 0.420299 -0.0126398 -1.18638 0.0786408 -0.0377297 -1.18793 
0.095917 -0.0223211 -1.19501 0.142738 -0.0395894 -1.195 0.305971 -0.0362745 -1.195 
0.415738 -0.0450027 -1.195 0.0848331 -0.0379903 -1.17949 0.365427 -0.00499888 -1.195 
0.0560694 -0.0287614 -1.17469 0.0439922 -0.00499693 -1.18307 0.0673781 -0.00499688 -1.18983 
0.310998 -0.0305625 -1.18851 0.161322 -0.0275755 -1.195 0.408659 -0.0206873 -1.19491 
0.0807003 -0.0221805 -1.18648 0.350887 -0.00499809 -1.195 0.173043 -0.0174661 -1.18736 
0.195819 -0.0303699 -1.18686 0.185768 -0.0361641 -1.195 0.315968 -0.0363207 -1.195 
0.0488507 -0.00499561 -1.19501 0.04947 -0.0215078 -1.17665 0.167843 -0.0136578 -1.195 
0.36293 -0.036366 -1.195 0.136112 -0.0376062 -1.18775 0.122773 -0.00499023 -1.195 
0.129341 -0.0450022 -1.18634 0.0683918 -0.0204846 -1.18813 0.0694332 -0.0132987 -1.195 
0.367961 -0.0450034 -1.195 0.344454 -0.0310588 -1.195 0.109344 -0.030573 -1.18684 
0.43574 -0.0357276 -1.18056 0.157843 -0.0136593 -1.195 0.291012 -0.0450008 -1.195 
0.380414 -0.0190116 -1.18661 0.0935323 -0.0330613 -1.17944 0.162844 -0.0198027 -1.1889 
0.114425 -0.0049946 -1.18657 0.0623811 -0.00499666 -1.18107 0.213388 -0.00499868 -1.195 
0.2794 -0.0233504 -1.195 0.152844 -0.00499846 -1.195 0.28102 -0.0447734 -1.195 
0.342941 -0.0147748 -1.195 0.0736351 -0.0290774 -1.18806 0.27103 -0.044991 -1.195 
0.0959252 -0.0078815 -1.17818 0.187681 -0.0164047 -1.195 0.432268 -0.013147 -1.18823 
0.340892 -0.00499456 -1.195 0.102513 -0.0363432 -1.18237 0.199605 -0.0259773 -1.195 
0.206075 -0.0406371 -1.18752 0.201079 -0.0450006 -1.195 0.227178 -0.0184563 -1.195 
0.330901 -0.00500055 -1.195 0.216002 -0.0358717 -1.195 0.180373 -0.0232298 -1.195 
0.142819 -0.0223013 -1.195 0.0976344 -0.0295588 -1.18786 0.301007 -0.0449565 -1.195 
0.0719609 -0.0450022 -1.18638 0.396367 -0.00506759 -1.19499 0.21718 -0.0184163 -1.195 
0.246031 -0.0136901 -1.195 0.137824 -0.00785455 -1.18684 0.119175 -0.028833 -1.18632 
0.142735 -0.0450042 -1.1866 0.132774 -0.022279 -1.195 0.241049 -0.0450015 -1.195 
0.0666216 -0.0275241 -1.19501 0.100927 -0.00499854 -1.18635 0.19339 -0.00499926 -1.195 
0.178116 -0.00760659 -1.18692 0.254872 -0.0184277 -1.195 0.256044 -0.0363402 -1.195 
0.31092 -0.00516643 -1.195 0.151129 -0.0450049 -1.195 0.133062 -0.0278741 -1.18672 
0.124341 -0.0450015 -1.195 0.390903 -0.0139159 -1.195 0.290936 -0.00499897 -1.195 
0.114359 -0.0196936 -1.18637 0.434872 -0.0285348 -1.18918 0.142824 -0.0165269 -1.18684 
0.208122 -0.0349603 -0.245002 0.272509 -0.0383764 -1.18762 0.300929 -0.0049991 -1.195 
0.365636 -0.0192802 -1.1876 0.275948 -0.00886506 -1.18725 0.0823833 -0.0269209 -1.17784 
0.335961 -0.0363263 -1.195 0.00499894 -0.0422457 -1.17069 0.0854441 -0.0396148 -1.19501 
0.34947 -0.0397027 -1.195 0.0555802 -0.0368113 -1.16878 0.147836 -0.0136524 -1.195 
0.142835 -0.00499645 -1.195 0.172841 -0.00499775 -1.195 0.250018 -0.0271685 -1.195 
0.260955 -0.0049996 -1.195 0.386947 -0.0315296 -1.18419 0.10935 -0.036342 -1.195 
0.289693 -0.0251488 -1.195 0.246046 -0.036342 -1.195 0.318324 -0.0266024 -1.195 
0.0853564 -0.0450078 -1.18659 0.280941 -0.00500097 -1.19501 0.241049 -0.0302738 -1.18882 
0.124354 -0.0276819 -1.195 0.261037 -0.045002 -1.195 0.472654 -0.0287534 -1.18791 
0.124429 -0.0208074 -1.18351 0.241151 -0.0224149 -1.195 0.161358 -0.0362353 -1.18638 
0.171109 -0.0450028 -1.195 0.21107 -0.0450011 -1.195 0.270949 -0.00500227 -1.195 
0.323477 -0.0180117 -1.195 0.396367 -0.0311465 -1.18753 0.216063 -0.0418077 -1.18695 
0.16112 -0.0449993 -1.195 0.325965 -0.0363258 -1.195 0.304058 -0.0144962 -1.195 
0.374651 -0.0107461 -1.18681 0.221194 -0.0332267 -1.18683 0.13782 -0.0136456 -1.195 
0.295972 -0.0363184 -1.195 0.28406 -0.0145034 -1.195 0.240967 -0.00499909 -1.195 
0.208387 -0.0136578 -1.195 0.203945 -0.0197801 -1.18846 0.0993513 -0.036337 -1.195 
0.222181 -0.00975946 -1.195 0.152837 -0.0165429 -1.18684 0.129348 -0.0363417 -1.195 
0.438555 -0.0164795 -1.1811 0.251044 -0.0450011 -1.195 0.19839 -0.00842544 -1.18705 
0.134338 -0.0450043 -1.195 0.428396 -0.0362416 -1.18734 0.260017 -0.0271656 -1.195 
0.149481 -0.0377321 -1.18784 0.358156 -0.011859 -1.195 0.269407 -0.0237311 -1.195 
0.368072 -0.0391522 -1.18689 0.154514 -0.029087 -1.18784 0.181097 -0.0450024 -1.195 
0.0859224 -0.00787914 -1.17818 0.195767 -0.0361648 -1.195 0.372702 -0.0262665 -1.18653 
0.166169 -0.0450004 -1.18631 0.221427 -0.0274676 -1.195 0.384468 -0.0392169 -1.19009 
0.175481 -0.0319495 -1.195 0.320353 -0.0118671 -1.18776 0.222166 -0.0215994 -1.18694 
0.193987 -0.0206834 -1.18853 0.451387 -0.0378053 -1.18236 0.166418 -0.0361754 -1.195 
0.186088 -0.0419882 -1.18688 0.226049 -0.0363342 -1.195 0.0909249 -0.00499742 -1.18635 
0.29906 -0.0197624 -1.18813 0.299602 -0.027001 -1.195 0.27646 -0.0329078 -1.195 
0.450594 -0.0299149 -1.18845 0.0732762 -0.023333 -1.17989 0.211433 -0.0311524 -1.18746 
0.250962 -0.00499685 -1.195 0.308877 -0.0232569 -1.195 0.147839 -0.0078764 -1.18684 
0.102702 -0.0209431 -1.18779 0.127781 -0.0136327 -1.195 0.474715 -0.021927 -1.18088 
0.232291 -0.0270495 -1.195 0.461851 -0.0277549 -1.18582 0.114343 -0.0450024 -1.195 
0.449572 -0.0210233 -1.18393 0.170375 -0.023331 -1.195 0.215154 -0.0117442 -1.18784 
0.119359 -0.0190226 -1.195 0.264073 -0.0145116 -1.195 0.311002 -0.045 -1.195 
0.198423 -0.0144856 -1.195 0.320998 -0.0450017 -1.195 
VERTICES 500 1000
1 0 
1 1 
1 2 
1 3 
1 4 
1 5 
1 6 
1 7 
1 8 
1 9 
1 10 
1 11 
1 12 
1 13 
1 14 
1 15 
1 16 
1 17 
1 18 
1 19 
1 20 
1 21 
1 22 
1 23 
1 24 
1 25 
1 26 
1 27 
1 28 
1 29 
1 30 
1 31 
1 32 
1 33 
1 34 
1 35 
1 36 
1 37 
1 38 
1 39 
1 40 
1 41 
1 42 
1 43 
1 44 
1 45 
1 46 
1 47 
1 48 
1 49 
1 50 
1 51 
1 52 
1 53 
1 54 
1 55 
1 56 
1 57 
1 58 
1 59 
1 60 
1 61 
1 62 
1 63 
1 64 
1 65 
1 66 
1 67 
1 68 
1 69 
1 70 
1 71 
1 72 
1 73 
1 74 
1 75 
1 76 
1 77 
1 78 
1 79 
1 80 
1 81 
1 82 
1 83 
1 84 
1 85 
1 86 
1 87 
1 88 
1 89 
1 90 
1 91 
1 92 
1 93 
1 94 
1 95 
1 96 
1 97 
1 98 
1 99 
1 100 
1 101 
1 102 
1 103 
1 104 
1 105 
1 106 
1 107 
1 108 
1 109 
1 110 
1 111 
1 112 
1 113 
1 114 
1 115 
1 116 
1 117 
1 118 
1 119 
1 120 
1 121 
1 122 
1 123 
1 124 
1 125 
1 126 
1 127 
1 128 
1 129 
1 130 
1 131 
1 132 
1 133 
1 134 
1 135 
1 136 
1 137 
1 138 
1 139 
1 140 
1 141 
1 142 
1 143 
1 144 
1 145 
1 146 
1 147 
1 148 
1 149 
1 150 
1 151 
1 152 
1 153 
1 154 
1 155 
1 156 
1 157 
1 158 
1 159 
1 160 
1 161 
1 162 
1 163 
1 164 
1 165 
1 166 
1 167 
1 168 
1 169 
1 170 
1 171 
1 172 
1 173 
1 174 
1 175 
1 176 
1 177 
1 178 
1 179 
1 180 
1 181 
1 182 
1 183 
1 184 
1 185 
1 186 
1 187 
1 188 
1 189 
1 190 
1 191 
1 192 
1 193 
1 194 
1 195 
1 196 
1 197 
1 198 
1 199 
1 200 
1 201 
1 202 
1 203 
1 204 
1 205 
1 206 
1 207 
1 208 
1 209 
1 210 
1 211 
1 212 
1 213 
1 214 
1 215 
1 216 
1 217 
1 218 
1 219 
1 220 
1 221 
1 222 
1 223 
1 224 
1 225 
1 226 
1 227 
1 228 
1 229 
1 230 
1 231 
1 232 
1 233 
1 234 
1 235 
1 236 
1 237 
1 238 
1 239 
1 240 
1 241 
1 242 
1 243 
1 244 
1 245 
1 246 
1 247 
1 248 
1 249 
1 250 
1 251 
1 252 
1 253 
1 254 
1 255 
1 256 
1 257 
1 258 
1 259 
1 260 
1 261 
1 262 
1 263 
1 264 
1 265 
1 266 
1 267 
1 268 
1 269 
1 270 
1 271 
1 272 
1 273 
1 274 
1 275 
1 276 
1 277 
1 278 
1 279 
1 280 
1 281 
1 282 
1 283 
1 284 
1 285 
1 286 
1 287 
1 288 
1 289 
1 290 
1 291 
1 292 
1 293 
1 294 
1 295 
1 296 
1 297 
1 298 
1 299 
1 300 
1 301 
1 302 
1 303 
1 304 
1 305 
1 306 
1 307 
1 308 
1 309 
1 310 
1 311 
1 312 
1 313 
1 314 
1 315 
1 316 
1 317 
1 318 
1 319 
1 320 
1 321 
1 322 
1 323 
1 324 
1 325 
1 326 
1 327 
1 328 
1 329 
1 330 
1 331 
1 332 
1 333 
1 334 
1 335 
1 336 
1 337 
1 338 
1 339 
1 340 
1 341 
1 342 
1 343 
1 344 
1 345 
1 346 
1 347 
1 348 
1 349 
1 350 
1 351 
1 352 
1 353 
1 354 
1 355 
1 356 
1 357 
1 358 
1 359 
1 360 
1 361 
1 362 
1 363 
1 364 
1 365 
1 366 
1 367 
1 368 
1 369 
1 370 
1 371 
1 372 
1 373 
1 374 
1 375 
1 376 
1 377 
1 378 
1 379 
1 380 
1 381 
1 382 
1 383 
1 384 
1 385 
1 386 
1 387 
1 388 
1 389 
1 390 
1 391 
1 392 
1 393 
1 394 
1 395 
1 396 
1 397 
1 398 
1 399 
1 400 
1 401 
1 402 
1 403 
1 404 
1 405 
1 406 
1 407 
1 408 
1 409 
1 410 
1 411 
1 412 
1 413 
1 414 
1 415 
1 416 
1 417 
1 418 
1 419 
1 420 
1 421 
1 422 
1 423 
1 424 
1 425 
1 426 
1 427 
1 428 
1 429 
1 430 
1 431 
1 432 
1 433 
1 434 
1 435 
1 436 
1 437 
1 438 
1 439 
1 440 
1 441 
1 442 
1 443 
1 444 
1 445 
1 446 
1 447 
1 448 
1 449 
1 450 
1 451 
1 452 
1 453 
1 454 
1 455 
1 456 
1 457 
1 458 
1 459 
1 460 
1 461 
1 462 
1 463 
1 464 
1 465 
1 466 
1 467 
1 468 
1 469 
1 470 
1 471 
1 472 
1 473 
1 474 
1 475 
1 476 
1 477 
1 478 
1 479 
1 480 
1 481 
1 482 
1 483 
1 484 
1 485 
1 486 
1 487 
1 488 
1 489 
1 490 
1 491 
1 492 
1 493 
1 494 
1 495 
1 496 
1 497 
1 498 
1 499 

POINT_DATA 500
FIELD FieldData 7
id 1 500 int
1 2 3 4 5 6 7 8 9 
10 11 12 13 14 15 16 17 18 
19 20 21 22 23 24 25 26 27 
28 29 30 31 32 33 34 35 36 
37 38 39 40 41 42 43 44 45 
46 47 48 49 50 51 52 53 54 
55 56 57 58 59 60 61 62 63 
64 65 66 67 68 69 70 71 72 
73 74 75 76 77 78 79 80 81 
82 83 84 85 86 87 88 89 90 
91 92 93 94 95 96 97 98 99 
100 101 102 103 104 105 106 107 108 
109 110 111 112 113 114 115 116 117 
118 119 120 121 122 123 124 125 126 
127 128 129 130 131 132 133 134 135 
136 137 138 139 140 141 142 143 144 
145 146 147 148 149 150 151 152 153 
154 155 156 157 158 159 160 161 162 
163 164 165 166 167 168 169 170 171 
172 173 174 175 176 177 178 179 180 
181 182 183 184 185 186 187 188 189 
190 191 192 193 194 195 196 197 198 
199 200 201 202 203 204 205 206 207 
208 209 210 211 212 213 214 215 216 
217 218 219 220 221 222 223 224 225 
226 227 228 229 230 231 232 233 234 
235 236 237 238 239 240 241 242 243 
244 245 246 247 248 249 250 251 252 
253 254 255 256 257 258 259 260 261 
262 263 264 265 266 267 268 269 270 
271 272 273 274 275 276 277 278 279 
280 281 282 283 284 285 286 287 288 
289 290 291 292 293 294 295 296 297 
298 299 300 301 302 303 304 305 306 
307 308 309 310 311 312 313 314 315 
316 317 318 319 320 321 322 323 324 
325 326 327 328 329 330 331 332 333 
334 335 336 337 338 339 340 341 342 
343 344 345 346 347 348 349 350 351 
352 353 354 355 356 357 358 359 360 
361 362 363 364 365 366 367 368 369 
370 371 372 373 374 375 376 377 378 
379 380 381 382 383 384 385 386 387 
388 389 390 391 392 393 394 395 396 
397 398 399 400 401 402 403 404 405 
406 407 408 409 410 411 412 413 414 
415 416 417 418 419 420 421 422 423 
424 425 426 427 428 429 430 431 432 
433 434 435 436 437 438 439 440 441 
442 443 444 445 446 447 448 449 450 
451 452 453 454 455 456 457 458 459 
460 461 462 463 464 465 466 467 468 
469 470 471 472 473 474 475 476 477 
478 479 480 481 482 483 484 485 486 
487 488 489 490 491 492 493 494 495 
496 497 498 499 500 
type 1 500 int
1 1 1 1 1 1 1 1 1 
1 1 1 1 1 1 1 1 1 
1 1 1 1 1 1 1 1 1 
1 1 1 1 1 1 1 1 1 
1 1 1 1 1 1 1 1 1 
1 1 1 1 1 1 1 1 1 
1 1 1 1 1 1 1 1 1 
1 1 1 1 1 1 1 1 1 
1 1 1 1 1 1 1 1 1 
1 1 1 1 1 1 1 1 1 
1 1 1 1 1 1 1 1 1 
1 1 1 1 1 1 1 1 1 
1 1 1 1 1 1 1 1 1 
1 1 1 1 1 1 1 1 1 
1 1 1 1 1 1 1 1 1 
1 1 1 1 1 1 1 1 1 
1 1 1 1 1 1 1 1 1 
1 1 1 1 1 1 1 1 1 
1 1 1 1 1 1 1 1 1 
1 1 1 1 1 1 1 1 1 
1 1 1 1 1 1 1 1 1 
1 1 1 1 1 1 1 1 1 
1 1 1 1 1 1 1 1 1 
1 1 1 1 1 1 1 1 1 
1 1 1 1 1 1 1 1 1 
1 1 1 1 1 1 1 1 1 
1 1 1 1 1 1 1 1 1 
1 1 1 1 1 1 1 1 1 
1 1 1 1 1 1 1 1 1 
1 1 1 1 1 1 1 1 1 
1 1 1 1 1 1 1 1 1 
1 1 1 1 1 1 1 1 1 
1 1 1 1 1 1 1 1 1 
1 1 1 1 1 1 1 1 1 
1 1 1 1 1 1 1 1 1 
1 1 1 1 1 1 1 1 1 
1 1 1 1 1 1 1 1 1 
1 1 1 1 1 1 1 1 1 
1 1 1 1 1 1 1 1 1 
1 1 1 1 1 1 1 1 1 
1 1 1 1 1 1 1 1 1 
1 1 1 1 1 1 1 1 1 
1 1 1 1 1 1 1 1 1 
1 1 1 1 1 1 1 1 1 
1 1 1 1 1 1 1 1 1 
1 1 1 1 1 1 1 1 1 
1 1 1 1 1 1 1 1 1 
1 1 1 1 1 1 1 1 1 
1 1 1 1 1 1 1 1 1 
1 1 1 1 1 1 1 1 1 
1 1 1 1 1 1 1 1 1 
1 1 1 1 1 1 1 1 1 
1 1 1 1 1 1 1 1 1 
1 1 1 1 1 1 1 1 1 
1 1 1 1 1 1 1 1 1 
1 1 1 1 1 
i 3 500 int
0 0 0 0 0 0 0 0 0 
0 0 0 0 0 0 0 0 0 
0 0 0 0 0 0 0 0 0 
0 0 0 0 0 0 0 0 0 
0 0 0 0 0 0 0 0 0 
0 0 0 0 0 0 0 0 0 
0 0 0 0 0 0 0 0 0 
0 0 0 0 0 0 0 0 0 
0 0 0 0 0 0 0 0 0 
0 0 0 0 0 0 0 0 0 
0 0 0 0 0 0 0 0 0 
0 0 0 0 0 0 0 0 0 
0 0 0 0 0 0 0 0 0 
0 0 0 0 0 0 0 0 0 
0 0 0 0 0 0 0 0 0 
0 0 0 0 0 0 0 0 0 
0 0 0 0 0 0 0 0 0 
0 0 0 0 0 0 0 0 0 
0 0 0 0 0 0 0 0 0 
0 0 0 0 0 0 0 0 0 
0 0 0 0 0 0 0 0 0 
0 0 0 0 0 0 0 0 0 
0 0 0 0 0 0 0 0 0 
0 0 0 0 0 0 0 0 0 
0 0 0 0 0 0 0 0 0 
0 0 0 0 0 0 0 0 0 
0 0 0 0 0 0 0 0 0 
0 0 0 0 0 0 0 0 0 
0 0 0 0 0 0 0 0 0 
0 0 0 0 0 0 0 0 0 
0 0 0 0 0 0 0 0 0 
0 0 0 0 0 0 0 0 0 
0 0 0 0 0 0 0 0 0 
0 0 0 0 0 0 0 0 0 
0 0 0 0 0 0 0 0 0 
0 0 0 0 0 0 0 0 0 
0 0 0 0 0 0 0 0 0 
0 0 0 0 0 0 0 0 0 
0 0 0 0 0 0 0 0 0 
0 0 0 0 0 0 0 0 0 
0 0 0 0 0 0 0 0 0 
0 0 0 0 0 0 0 0 0 
0 0 0 0 0 0 0 0 0 
0 0 0 0 0 0 0 0 0 
0 0 0 0 0 0 0 0 0 
0 0 0 0 0 0 0 0 0 
0 0 0 0 0 0 0 0 0 
0 0 0 0 0 0 0 0 0 
0 0 0 0 0 0 0 0 0 
0 0 0 0 0 0 0 0 0 
0 0 0 0 0 0 0 0 0 
0 0 0 0 0 0 0 0 0 
0 0 0 0 0 0 0 0 0 
0 0 0 0 0 0 0 0 0 
0 0 0 0 0 0 0 0 0 
0 0 0 0 0 0 0 0 0 
0 0 0 0 0 0 0 0 0 
0 0 0 0 0 0 0 0 0 
0 0 0 0 0 0 0 0 0 
0 0 0 0 0 0 0 0 0 
0 0 0 0 0 0 0 0 0 
0 0 0 0 0 0 0 0 0 
0 0 0 0 0 0 0 0 0 
0 0 0 0 0 0 0 0 0 
0 0 0 0 0 0 0 0 0 
0 0 0 0 0 0 0 0 0 
0 0 0 0 0 0 0 0 0 
0 0 0 0 0 0 0 0 0 
0 0 0 0 0 0 0 0 0 
0 0 0 0 0 0 0 0 0 
0 0 0 0 0 0 0 0 0 
0 0 0 0 0 0 0 0 0 
0 0 0 0 0 0 0 0 0 
0 0 0 0 0 0 0 0 0 
0 0 0 0 0 0 0 0 0 
0 0 0 0 0 0 0 0 0 
0 0 0 0 0 0 0 0 0 
0 0 0 0 0 0 0 0 0 
0 0 0 0 0 0 0 0 0 
0 0 0 0 0 0 0 0 0 
0 0 0 0 0 0 0 0 0 
0 0 0 0 0 0 0 0 0 
0 0 0 0 0 0 0 0 0 
0 0 0 0 0 0 0 0 0 
0 0 0 0 0 0 0 0 0 
0 0 0 0 0 0 0 0 0 
0 0 0 0 0 0 0 0 0 
0 0 0 0 0 0 0 0 0 
0 0 0 0 0 0 0 0 0 
0 0 0 0 0 0 0 0 0 
0 0 0 0 0 0 0 0 0 
0 0 0 0 0 0 0 0 0 
0 0 0 0 0 0 0 0 0 
0 0 0 0 0 0 0 0 0 
0 0 0 0 0 0 0 0 0 
0 0 0 0 0 0 0 0 0 
0 0 0 0 0 0 0 0 0 
0 0 0 0 0 0 0 0 0 
0 0 0 0 0 0 0 0 0 
0 0 0 0 0 0 0 0 0 
0 0 0 0 0 0 0 0 0 
0 0 0 0 0 0 0 0 0 
0 0 0 0 0 0 0 0 0 
0 0 0 0 0 0 0 0 0 
0 0 0 0 0 0 0 0 0 
0 0 0 0 0 0 0 0 0 
0 0 0 0 0 0 0 0 0 
0 0 0 0 0 0 0 0 0 
0 0 0 0 0 0 0 0 0 
0 0 0 0 0 0 0 0 0 
0 0 0 0 0 0 0 0 0 
0 0 0 0 0 0 0 0 0 
0 0 0 0 0 0 0 0 0 
0 0 0 0 0 0 0 0 0 
0 0 0 0 0 0 0 0 0 
0 0 0 0 0 0 0 0 0 
0 0 0 0 0 0 0 0 0 
0 0 0 0 0 0 0 0 0 
0 0 0 0 0 0 0 0 0 
0 0 0 0 0 0 0 0 0 
0 0 0 0 0 0 0 0 0 
0 0 0 0 0 0 0 0 0 
0 0 0 0 0 0 0 0 0 
0 0 0 0 0 0 0 0 0 
0 0 0 0 0 0 0 0 0 
0 0 0 0 0 0 0 0 0 
0 0 0 0 0 0 0 0 0 
0 0 0 0 0 0 0 0 0 
0 0 0 0 0 0 0 0 0 
0 0 0 0 0 0 0 0 0 
0 0 0 0 0 0 0 0 0 
0 0 0 0 0 0 0 0 0 
0 0 0 0 0 0 0 0 0 
0 0 0 0 0 0 0 0 0 
0 0 0 0 0 0 0 0 0 
0 0 0 0 0 0 0 0 0 
0 0 0 0 0 0 0 0 0 
0 0 0 0 0 0 0 0 0 
0 0 0 0 0 0 0 0 0 
0 0 0 0 0 0 0 0 0 
0 0 0 0 0 0 0 0 0 
0 0 0 0 0 0 0 0 0 
0 0 0 0 0 0 0 0 0 
0 0 0 0 0 0 0 0 0 
0 0 0 0 0 0 0 0 0 
0 0 0 0 0 0 0 0 0 
0 0 0 0 0 0 0 0 0 
0 0 0 0 0 0 0 0 0 
0 0 0 0 0 0 0 0 0 
0 0 0 0 0 0 0 0 0 
0 0 0 0 0 0 0 0 0 
0 0 0 0 0 0 0 0 0 
0 0 0 0 0 0 0 0 0 
0 0 0 0 0 0 0 0 0 
0 0 0 0 0 0 0 0 0 
0 0 0 0 0 0 0 0 0 
0 0 0 0 0 0 0 0 0 
0 0 0 0 0 0 0 0 0 
0 0 0 0 0 0 0 0 0 
0 0 0 0 0 0 0 0 0 
0 0 0 0 0 0 0 0 0 
0 0 0 0 0 0 0 0 0 
0 0 0 0 0 0 0 0 0 
0 0 0 0 0 0 0 0 0 
0 0 0 0 0 0 0 0 0 
0 0 0 0 0 0 0 0 0 
0 0 0 0 0 0 
v 3 500 double
-0.0338918 -0.00523312 -0.00171792 -0.0277117 0.00702661 -0.000158858 2.87133e-06 5.06187e-07 1.82211e-07 
1.6691e-05 -1.02865e-05 2.25494e-05 2.48396e-05 5.50696e-06 1.43447e-06 4.63449e-06 4.37835e-06 1.91635e-06 
1.77571e-05 7.93489e-06 7.76573e-06 2.00726e-05 -2.05678e-06 -3.81846e-06 -6.24517e-05 -6.53668e-06 1.234e-05 
-0.000158972 -0.000301322 -0.00141846 0.00166665 0.000632112 0.00015164 -0.00264053 -0.0045272 -0.00105592 
3.5441e-05 1.80212e-06 1.27844e-06 -0.00289666 -0.000568954 0.000178555 1.90169e-05 3.80346e-05 5.58091e-06 
-0.00858533 -0.0107343 -0.000371489 8.84276e-06 -2.19473e-06 -4.92118e-06 0.000163841 -0.000244752 0.000210689 
6.36356e-06 7.53581e-06 3.78034e-06 0.00545137 0.00511114 -0.000136124 2.4332e-05 1.95363e-07 5.73557e-06 
0.000205587 -0.000135508 0.00025336 0.00126769 -9.11846e-05 3.93983e-05 1.49865e-06 -2.69064e-07 -2.49676e-06 
0.000428336 -0.000209506 -0.00021217 -0.0395039 -0.000103617 0.00510707 0.00117179 -0.0033701 0.00558326 
0.00327182 -0.00618411 -0.00144404 -0.00247695 0.00822314 0.000116054 -3.25895e-05 -9.12072e-06 2.07437e-05 
2.63459e-05 -7.34849e-06 5.48716e-06 -0.0183297 -0.00663023 -0.00312771 0.0274054 0.0116586 0.010111 
-0.00972964 0.0141394 0.00914129 0.00398775 -0.00543464 0.000185335 1.15096e-05 -6.02161e-07 -2.40811e-06 
0.0135667 0.00305451 -0.0001383 2.88446e-06 4.597e-07 -2.80046e-07 1.99275e-05 -3.85632e-06 -7.79572e-06 
-0.000294221 0.00295662 -0.000137186 0.0182648 0.00693479 1.23855e-08 -6.96494e-08 -7.9368e-06 -7.82648e-06 
2.40742e-05 2.96994e-06 1.195e-05 -0.0251685 0.00331775 0.00841967 3.15867e-05 -1.17612e-05 -1.16311e-05 
0.0141127 0.0379675 -0.00155169 6.66152e-06 1.91789e-06 -2.02031e-06 4.11147e-06 2.57868e-07 1.12525e-06 
-0.000925738 -0.000842501 0.000429424 -0.0112127 -0.00436435 -0.0120725 -0.0132512 0.00276928 0.00244737 
0.000290531 -0.000166869 -0.00038303 5.52369e-06 -1.18513e-06 2.25184e-06 1.90985e-05 -5.5087e-06 -3.40081e-06 
1.41448e-05 -1.61266e-06 2.92117e-06 1.36073e-05 -8.48057e-07 -6.96162e-06 -9.86815e-06 -7.98517e-06 3.72594e-06 
1.7125e-05 -1.07264e-05 1.7104e-05 3.32355e-06 -1.40084e-06 4.81391e-06 2.41791e-05 -6.49639e-06 9.88354e-06 
8.27196e-06 -8.42939e-07 -2.99514e-06 -0.0177359 0.000790093 0.00245253 1.01196e-05 -9.06458e-08 -1.70151e-06 
9.01355e-06 9.60888e-06 -2.62016e-06 -4.37133e-06 -2.26083e-06 1.91703e-05 -0.0168809 -0.0145936 -0.00283038 
-0.0298783 -0.0100892 -0.0215675 -0.0021092 -0.0308864 -0.0107943 0.0155518 0.000801744 0.00123242 
5.09193e-06 -2.62637e-06 5.89553e-07 -0.0013278 -0.00293525 3.28034e-05 0.00277589 0.00524981 -0.00308721 
8.03631e-06 1.6893e-06 4.56455e-06 1.01843e-05 -1.13662e-06 -2.03817e-07 1.31351e-05 -3.27843e-06 1.58923e-06 
2.53044e-06 1.80458e-06 2.06872e-06 2.23557e-05 3.2917e-06 3.12208e-06 0.0180071 -0.00368688 -2.05378e-05 
-0.00629456 0.0195896 -0.00305066 0.0199016 0.00630787 0.000257487 2.8077e-05 -1.53167e-06 2.34459e-07 
2.47773e-05 -4.02483e-06 -1.04979e-06 -0.0102335 -0.01968 -0.00479066 3.86964e-06 -1.67203e-06 1.66168e-06 
0.000724169 -0.000413877 -1.39388e-05 8.56222e-06 -8.36744e-06 -1.5641e-06 1.08592e-05 7.40345e-07 -5.15908e-06 
0.0376163 0.0545242 -0.00237395 -0.0250517 -0.0136279 -0.00483812 2.1659e-06 -9.47045e-08 1.94381e-07 
4.07937e-06 -2.71819e-06 4.37118e-06 -0.029457 0.0365959 -0.0849908 1.09153e-05 -7.14962e-06 4.15897e-06 
7.20459e-06 9.55662e-07 -5.87894e-08 8.75142e-07 4.95894e-07 -1.11772e-07 1.11826e-05 -4.5675e-06 3.94336e-07 
4.83428e-05 -0.00108969 -2.13978e-06 -3.03893e-05 -7.24692e-06 -1.45559e-06 0.00369002 7.12704e-05 3.59631e-05 
-1.55381e-06 -1.79994e-06 1.35889e-06 -4.9769e-06 -1.61447e-05 -2.2863e-06 0.00178269 4.01561e-05 1.67066e-13 
1.40332e-05 -2.45555e-07 1.95682e-06 -0.00275924 0.0127084 -0.00741231 -0.00212464 0.00246718 0.00107787 
0.102067 -0.0610958 -0.0126795 3.91124e-05 -1.97331e-05 -1.37591e-05 0.000479999 -0.000523933 -4.22721e-05 
2.36192e-05 1.22643e-06 6.26367e-06 1.70194e-05 4.87124e-06 8.97543e-06 0.000267957 -0.000262015 2.78869e-05 
1.59368e-05 -1.46828e-05 3.71807e-06 -0.000606886 0.0014994 -0.000763796 -0.000431935 0.0115644 0.000442808 
-6.45905e-05 -6.66507e-05 3.91626e-05 1.27877e-05 2.34295e-06 -3.67062e-06 -0.00726548 0.00524038 0.00127312 
-0.00126358 -0.00306099 0.0180849 -0.0151936 -0.00322568 -0.0130356 6.87869e-06 -8.47132e-07 1.2927e-06 
-0.000846337 -0.00588776 -0.000806093 0.00206275 0.0104104 0.00295937 -0.0172189 0.00321693 0.000410655 
-0.00187762 0.000933953 0.000809096 -0.00248346 -0.00270699 -0.00065292 6.57228e-06 -1.39762e-06 2.4392e-06 
0.000464821 0.000976332 1.89968e-12 -0.0125689 -0.00408535 0.019159 -0.00275428 0.00273967 0.000189996 
5.8418e-06 1.34039e-06 -2.01091e-06 1.3415e-05 -3.06429e-06 1.03025e-05 -0.000609066 0.00456699 -0.00165822 
3.90362e-06 -1.16934e-07 -1.29763e-06 3.04694e-06 -1.78717e-06 -8.3891e-07 2.35243e-06 8.04366e-07 1.52076e-06 
-0.0238884 0.0166673 -0.00298894 3.51868e-05 -1.12452e-05 -4.29079e-06 -0.00586311 -0.00199356 0.00148987 
-0.0120132 -0.00114747 -0.00439951 0.00187148 0.000982069 -0.000230785 -0.016084 -0.00743004 -9.17406e-05 
-0.00395188 0.0090514 0.0579078 0.00123445 -0.00402601 -0.000333237 0.0258279 -0.00801333 -0.0316413 
-0.00406871 -0.002036 -0.00328091 -0.0194503 -0.00143074 0.00053494 1.74114e-05 -7.83972e-07 8.58525e-07 
7.26146e-07 -1.42235e-06 -5.81463e-06 -0.0111322 0.00254376 -0.00207335 8.28878e-06 -1.47588e-05 -5.97438e-05 
-1.45289e-05 3.53995e-06 -9.67565e-06 -0.02491 0.000783472 0.000544985 2.60595e-06 1.61714e-06 -6.56591e-07 
-0.000469757 -0.00281289 0.000890553 0.0042504 -0.00126787 0.000533747 -0.00319164 0.00744807 0.000439751 
1.54926e-05 -8.95585e-06 -2.37525e-06 -0.000901411 0.000478654 -0.00254087 -5.46368e-07 -3.78688e-07 1.98211e-06 