# vtk DataFile Version 4.0
Generated by LIGGGHTS
ASCII
DATASET POLYDATA
POINTS 500 float
0.422753 -0.0450023 -1.18121 0.427923 -0.0298044 -1.18607 0.0050694 -0.0250006 -1.19501 
0.0390591 -0.0202371 -1.17454 0.0168586 -0.0223964 -1.17245 0.0357495 -0.00499854 -1.1751 
0.0446404 -0.0365035 -1.18621 0.0319408 -0.045001 -1.1757 0.0889423 -0.0137749 -1.17769 
0.469218 -0.00500177 -1.18501 0.373731 -0.0396228 -1.19278 0.463786 -0.0131269 -1.19501 
0.0214276 -0.0141955 -1.16901 0.327451 -0.00551939 -1.195 0.0434336 -0.0112723 -1.17385 
0.393087 -0.0292441 -1.19502 0.0276627 -0.0450052 -1.18474 0.495001 -0.045001 -1.18513 
0.0399258 -0.036219 -1.19501 0.482426 -0.0137095 -1.18699 0.00531927 -0.019904 -1.17184 
0.180496 -0.0307829 -1.18867 0.493442 -0.0450011 -1.195 0.053115 -0.00499588 -1.18637 
0.171618 -0.0267909 -1.18626 0.39115 -0.0449963 -1.18291 0.485715 -0.0286975 -1.19501 
0.457569 -0.0450026 -1.195 0.322003 -0.0151189 -1.19457 0.0939901 -0.0136319 -1.18632 
0.0340838 -0.0204585 -1.18779 0.442436 -0.0449644 -1.18635 0.413509 -0.0160414 -1.18547 
0.460746 -0.0202929 -1.18874 0.206352 -0.0336667 -1.195 0.0331491 -0.0372161 -1.18774 
0.404947 -0.00499943 -1.195 0.0148663 -0.0434431 -1.19501 0.03787 -0.0376292 -1.17894 
0.495002 -0.00999977 -1.18635 0.222987 -0.0382939 -0.245002 0.112354 -0.0276885 -1.19501 
0.0687416 -0.00898942 -1.17137 0.422259 -0.0377878 -1.18811 0.117349 -0.0363472 -1.195 
0.467106 -0.035021 -1.19501 0.00534451 -0.0369194 -1.17915 0.00499833 -0.0199971 -1.18636 
0.484826 -0.0450038 -1.1873 0.431062 -0.0202356 -1.18791 0.389604 -0.0051769 -1.19495 
0.477922 -0.0450004 -1.195 0.02155 -0.00499906 -1.18746 0.0599106 -0.0450007 -1.16913 
0.00993347 -0.0249369 -1.1792 0.0148386 -0.0336476 -1.17927 0.0839108 -0.0223867 -1.195 
0.0679901 -0.0189741 -1.17151 0.0140724 -0.00499923 -1.18083 0.0427316 -0.0294395 -1.17588 
0.0265963 -0.0351821 -1.19501 0.450181 -0.0354001 -1.19501 0.0148433 -0.0146931 -1.1785 
0.0436352 -0.0207424 -1.18486 0.0757512 -0.0450005 -1.17816 0.430488 -0.0130832 -1.195 
0.437465 -0.0313126 -1.17843 0.445918 -0.0263985 -1.18096 0.437259 -0.00499973 -1.195 
0.00499762 -0.0130825 -1.17914 0.485683 -0.0386954 -1.19501 0.492026 -0.0199945 -1.18688 
0.0424629 -0.0117594 -1.1891 0.01369 -0.0199344 -1.19501 0.0548997 -0.0450037 -1.17778 
0.0533083 -0.0202621 -1.18733 0.0194126 -0.004999 -1.17238 0.421185 -0.00499996 -1.18305 
0.407581 -0.0304928 -1.19502 0.492333 -0.0370192 -1.17973 0.0497416 -0.0364834 -1.17696 
0.0276756 -0.0281217 -1.18802 0.445725 -0.0195385 -1.18823 0.00710984 -0.00499785 -1.17365 
0.209596 -0.0362802 -1.15543 0.0599269 -0.0363597 -1.17769 0.021443 -0.0357815 -1.18647 
0.311572 -0.0345043 -1.18591 0.434555 -0.0449376 -1.18019 0.00499639 -0.00499738 -1.18502 
0.0499201 -0.0364205 -1.195 0.396277 -0.0238115 -1.18005 0.0596228 -0.00499952 -1.17039 
0.00499456 -0.0299951 -1.18635 0.00499525 -0.0450006 -1.19501 0.0117244 -0.0117264 -1.18837 
0.125781 -0.0050355 -1.18634 0.083941 -0.0136503 -1.18635 0.191184 -0.0450026 -1.195 
0.0650294 -0.044996 -1.19501 0.0735313 -0.0221354 -1.19501 0.207502 -0.044999 -0.245002 
0.0143848 -0.0269637 -1.18793 0.462316 -0.0120371 -1.18332 0.290856 -0.0149198 -1.19488 
0.367402 -0.0102116 -1.18645 0.107353 -0.042121 -1.18684 0.135759 -0.0309609 -1.195 
0.102349 -0.0450019 -1.195 0.0497319 -0.0285239 -1.183 0.175758 -0.0136611 -1.19501 
0.0598774 -0.0277171 -1.18624 0.495001 -0.00499771 -1.195 0.396373 -0.0124854 -1.19502 
0.10101 -0.0145347 -1.17926 0.0410543 -0.0196891 -1.19501 0.254178 -0.0101057 -1.18747 
0.444514 -0.00499699 -1.18812 0.462606 -0.0450059 -1.18636 0.0549198 -0.0363909 -1.18635 
0.273438 -0.0161037 -1.19167 0.48903 -0.0259834 -1.17945 0.45177 -0.00499555 -1.195 
0.460535 -0.00499553 -1.19019 0.469609 -0.00499886 -1.195 0.0336423 -0.00499485 -1.18606 
0.205186 -0.0249703 -0.245002 0.467694 -0.0364891 -1.18514 0.495003 -0.0149955 -1.19501 
0.0177031 -0.0450076 -1.18556 0.0364668 -0.0132858 -1.18124 0.495002 -0.0249946 -1.195 
0.0580581 -0.00604879 -1.195 0.0247392 -0.0450029 -1.19485 0.0499248 -0.0148276 -1.195 
0.414241 -0.0227807 -1.19495 0.0218301 -0.0316127 -1.17242 0.247079 -0.0235356 -1.1849 
0.453383 -0.00499776 -1.18296 0.187392 -0.0272607 -1.195 0.438084 -0.0196368 -1.195 
0.468564 -0.0263271 -1.1903 0.485712 -0.00869893 -1.195 0.416101 -0.0164726 -1.17536 
0.472779 -0.0450008 -1.18643 0.41495 -0.0375427 -1.19501 0.0191405 -0.0182467 -1.1868 
0.0595309 -0.0188621 -1.19501 0.444881 -0.0122387 -1.19501 0.130773 -0.0165374 -1.18684 
0.0789517 -0.00499254 -1.18635 0.437436 -0.0449945 -1.195 0.00499846 -0.0450042 -1.18501 
0.476474 -0.013318 -1.19501 0.231682 -0.0298698 -1.18609 0.452972 -0.0208045 -1.19501 
0.0348257 -0.0275144 -1.195 0.486572 -0.00499588 -1.18439 0.0149944 -0.004999 -1.19501 
0.476852 -0.0233147 -1.195 0.00499763 -0.0349992 -1.19501 0.185737 -0.00912355 -1.18739 
0.0284305 -0.0340072 -1.17954 0.0275967 -0.0129266 -1.18671 0.0393397 -0.0449932 -1.18614 
0.454187 -0.0127633 -1.1892 0.119104 -0.0123619 -1.18768 0.400002 -0.045005 -1.18884 
0.038098 -0.0049913 -1.19501 0.0570569 -0.0133307 -1.17565 0.235568 -0.00756419 -1.17492 
0.0215507 -0.0125557 -1.195 0.452501 -0.0449944 -1.18638 0.485611 -0.0336949 -1.18635 
0.154176 -0.036345 -1.195 0.0611118 -0.0221537 -1.17803 0.0889371 -0.0136656 -1.195 
0.482739 -0.0236996 -1.18688 0.0212134 -0.0260287 -1.18069 0.0599149 -0.0362356 -1.195 
0.236301 -0.0342183 -1.19501 0.495002 -0.0350776 -1.195 0.478085 -0.00499882 -1.1897 
0.00499775 -0.0149941 -1.19501 0.0732369 -0.0131774 -1.18682 0.137814 -0.0263787 -1.18636 
0.0311836 -0.024408 -1.17908 0.235533 -0.0061673 -1.18605 0.465773 -0.0208643 -1.18011 
0.195863 -0.0427492 -1.18643 0.0347351 -0.0449942 -1.19501 0.382031 -0.0448516 -1.195 
0.388072 -0.0135757 -1.18922 0.00499784 -0.00499737 -1.19501 0.117345 -0.042892 -1.18661 
0.0147844 -0.0385785 -1.17057 0.284528 -0.0129562 -1.18711 0.467639 -0.0450028 -1.195 
0.208091 -0.0153079 -0.245002 0.495001 -0.0300345 -1.18637 0.096406 -0.0242572 -1.1794 
0.0492066 -0.0129967 -1.18183 0.447435 -0.0450061 -1.195 0.458672 -0.0365073 -1.18985 
0.429694 -0.0371013 -1.195 0.0839496 -0.00499946 -1.19501 0.485719 -0.018698 -1.195 
0.477018 -0.0337123 -1.19501 0.0116841 -0.0450009 -1.17758 0.0649825 -0.0363129 -1.18632 
0.160759 -0.00499868 -1.195 0.28504 -0.0309438 -1.19499 0.0550311 -0.0450052 -1.195 
0.0837726 -0.0308031 -1.18641 0.42407 -0.0207463 -1.19503 0.234925 -0.0136879 -1.195 
0.407897 -0.0449887 -1.19499 0.369142 -0.00512689 -1.195 0.0245684 -0.0169768 -1.17809 
0.0904392 -0.038082 -1.188 0.405535 -0.00589178 -1.18218 0.35405 -0.0397603 -1.19452 
0.439522 -0.0352084 -1.19501 0.0888539 -0.0310779 -1.19501 0.0710389 -0.00499718 -1.18025 
0.106404 -0.0238256 -1.17952 0.397363 -0.00499348 -1.18849 0.130775 -0.00499438 -1.195 
0.400103 -0.0371412 -1.195 0.0445583 -0.0450036 -1.17761 0.0447343 -0.0449958 -1.195 
0.051576 -0.00499642 -1.17633 0.0167207 -0.0336196 -1.19501 0.0280996 -0.00499348 -1.19501 
0.0739528 -0.00504595 -1.19501 0.488986 -0.0140286 -1.17945 0.444843 -0.0352118 -1.18655 
0.0450903 -0.028263 -1.19185 0.0233896 -0.0223848 -1.195 0.072142 -0.0344021 -1.1796 
0.0267002 -0.00657428 -1.17904 0.174085 -0.0418128 -1.18685 0.414796 -0.0449793 -1.18775 
0.05963 -0.0125212 -1.18729 0.434912 -0.0369518 -1.18631 0.0781192 -0.0160508 -1.17858 
0.459882 -0.028031 -1.19501 0.0112527 -0.0376755 -1.18769 0.0661445 -0.0137013 -1.1798 
0.413177 -0.0128206 -1.19502 0.271895 -0.0240554 -1.18583 0.0750577 -0.0450014 -1.195 
0.093945 -0.00499776 -1.195 0.420827 -0.005008 -1.195 0.405606 -0.0221791 -1.18517 
0.35226 -0.0153074 -1.19272 0.479216 -0.0394105 -1.1812 0.10394 -0.00499723 -1.195 
0.386502 -0.021723 -1.19479 0.288792 -0.0332301 -1.1861 0.0989309 -0.0136616 -1.19501 
0.124105 -0.0355889 -1.18558 0.0600372 -0.0450017 -1.18635 0.0786067 -0.0308636 -1.195 
0.0330979 -0.013642 -1.19502 0.422114 -0.0305517 -1.195 0.233995 -0.0406557 -1.18599 
0.383963 -0.0349726 -1.195 0.41533 -0.0376462 -1.1809 0.15076 -0.0223116 -1.19501 
0.429042 -0.0049977 -1.18931 0.102359 -0.0276841 -1.19501 0.0889831 -0.0222793 -1.18631 
0.146623 -0.0432 -1.17839 0.421674 -0.0450019 -1.195 0.221337 -0.0449882 -1.195 
0.200728 -0.00499891 -1.195 0.00500422 -0.0298943 -1.17205 0.431625 -0.0272829 -1.19501 
0.206739 -0.0236391 -1.195 0.365037 -0.0444623 -1.19495 0.446595 -0.0121947 -1.1815 
0.112362 -0.0103757 -1.195 0.0650497 -0.0449896 -1.1777 0.180745 -0.0049974 -1.195 
0.264489 -0.00503336 -1.18528 0.376781 -0.0255861 -1.19499 0.422441 -0.012891 -1.18906 
0.0546032 -0.0275814 -1.195 0.404176 -0.0211089 -1.19502 0.0381131 -0.0290776 -1.18474 
0.0922716 -0.0449974 -1.195 0.445009 -0.0268496 -1.19501 0.0498715 -0.0450113 -1.18643 
0.145755 -0.030966 -1.19501 0.26883 -0.0372079 -1.17521 0.0699076 -0.0360281 -1.19501 
0.155772 -0.00789863 -1.18683 0.470078 -0.0166897 -1.18811 0.0217441 -0.0410945 -1.1773 
0.0789408 -0.013712 -1.19501 0.105706 -0.0122794 -1.18779 0.360234 -0.0217226 -1.18868 
0.400091 -0.0300532 -1.18792 0.0974469 -0.0450021 -1.18629 0.229972 -0.00499811 -1.195 
0.107359 -0.0190292 -1.19501 0.343005 -0.0211946 -1.195 0.395639 -0.0210047 -1.18991 
0.329191 -0.0361848 -1.16866 0.436781 -0.00499651 -1.18146 0.231471 -0.0449875 -1.195 
0.26713 -0.0337651 -1.195 0.429644 -0.0119869 -1.18217 0.0766939 -0.0376995 -1.18787 
0.0939091 -0.0223407 -1.19501 0.140748 -0.0396154 -1.195 0.315078 -0.0322473 -1.195 
0.429554 -0.0450009 -1.18885 0.0827362 -0.037978 -1.17952 0.379467 -0.00507006 -1.1943 
0.0550065 -0.0286922 -1.17357 0.0431909 -0.00499779 -1.18177 0.0659845 -0.0049955 -1.18898 
0.32182 -0.0338431 -1.1821 0.15918 -0.0276901 -1.19501 0.42133 -0.022269 -1.18555 
0.0787211 -0.0221746 -1.18646 0.377856 -0.0149395 -1.195 0.171572 -0.0164585 -1.18637 
0.1905 -0.033647 -1.1866 0.185178 -0.0370119 -1.195 0.323037 -0.0256384 -1.195 
0.0480926 -0.00499858 -1.19501 0.0488681 -0.0212499 -1.1762 0.165761 -0.0136579 -1.195 
0.391834 -0.0369086 -1.18875 0.133896 -0.0373046 -1.1875 0.12078 -0.00499447 -1.195 
0.127377 -0.045003 -1.18633 0.0665297 -0.0204821 -1.18806 0.0675023 -0.0128269 -1.195 
0.392028 -0.0447454 -1.19501 0.366497 -0.0298322 -1.19418 0.107354 -0.0305702 -1.18684 
0.359545 -0.00523284 -0.658668 0.155766 -0.013661 -1.195 0.292253 -0.044976 -1.195 
0.396148 -0.0134851 -1.18336 0.0915315 -0.0330542 -1.17943 0.16084 -0.019913 -1.18895 
0.11244 -0.00499467 -1.18658 0.0610426 -0.00511464 -1.18029 0.21072 -0.0049974 -1.195 
0.274898 -0.0267354 -1.195 0.150766 -0.00499716 -1.195 0.282066 -0.0450145 -1.19501 
0.364292 -0.0147114 -1.19487 0.0716542 -0.0290676 -1.18805 0.272108 -0.044989 -1.19221 
0.0939455 -0.0050727 -1.17769 0.185567 -0.0155917 -1.19501 0.437676 -0.0124272 -1.18809 
0.35684 -0.00644413 -1.19393 0.100536 -0.036346 -1.18235 0.196741 -0.0237169 -1.195 
0.206373 -0.0399051 -1.18719 0.200998 -0.043127 -1.195 0.225284 -0.0163536 -1.195 
0.341712 -0.00810542 -1.195 0.216064 -0.0364886 -1.195 0.178187 -0.0233611 -1.195 
0.140765 -0.0223084 -1.195 0.0956564 -0.0295614 -1.18784 0.302237 -0.0434951 -1.19499 
0.070037 -0.0450014 -1.18636 0.412924 -0.0049868 -1.18884 0.21528 -0.0165312 -1.195 
0.244882 -0.0142378 -1.19429 0.135772 -0.00787022 -1.18683 0.117342 -0.0282721 -1.18636 
0.140219 -0.045001 -1.1866 0.13077 -0.0223049 -1.19501 0.241582 -0.0443471 -1.195 
0.0646684 -0.0274384 -1.19501 0.0990202 -0.00499592 -1.1863 0.190737 -0.00500013 -1.195 
0.175746 -0.00624023 -1.18643 0.254529 -0.0166819 -1.195 0.25713 -0.0365441 -1.195 
0.308912 -0.0133188 -1.19067 0.14916 -0.0450055 -1.195 0.127809 -0.0263355 -1.18635 
0.122345 -0.0450051 -1.195 0.404469 -0.0130612 -1.18911 0.289329 -0.00495822 -1.195 
0.112349 -0.0196128 -1.18637 0.438331 -0.0274273 -1.1876 0.140774 -0.0165477 -1.18683 
0.207917 -0.0350059 -0.245002 0.295706 -0.0443998 -1.18559 0.299839 -0.00572902 -1.19501 
0.389033 -0.0273361 -1.18586 0.285066 -0.0236161 -1.18579 0.0805319 -0.0268537 -1.17781 
0.352045 -0.0274294 -1.19502 0.00499894 -0.0422283 -1.17068 0.0834695 -0.0395995 -1.19501 
0.38114 -0.0449319 -1.18505 0.0541111 -0.0369365 -1.16798 0.145768 -0.0136537 -1.195 
0.140771 -0.0049953 -1.195 0.170752 -0.00499687 -1.195 0.245842 -0.0250379 -1.195 
0.259928 -0.00499771 -1.195 0.407739 -0.0309323 -1.1808 0.107352 -0.0363455 -1.195 
0.293358 -0.0248233 -1.195 0.247021 -0.0351556 -1.19502 0.333907 -0.0257275 -1.19306 
0.0833809 -0.0450116 -1.1866 0.279807 -0.00886184 -1.19495 0.242151 -0.0327238 -1.18657 
0.122351 -0.0276917 -1.195 0.262505 -0.0449715 -1.195 0.476009 -0.0309513 -1.18546 
0.121271 -0.0202248 -1.18189 0.235947 -0.0236354 -1.195 0.162443 -0.0311886 -1.18623 
0.16916 -0.0449952 -1.19497 0.210816 -0.0450009 -1.195 0.270547 -0.00518169 -1.195 
0.333999 -0.0145894 -1.195 0.414682 -0.0303932 -1.18799 0.216068 -0.0437369 -1.18659 
0.159159 -0.0450057 -1.195 0.328429 -0.0341109 -1.19422 0.300652 -0.0173438 -1.19499 
0.388275 -0.00536594 -1.18306 0.221202 -0.031633 -1.18791 0.135773 -0.0136509 -1.195 
0.295037 -0.0354155 -1.19429 0.28225 -0.0199882 -1.19477 0.239955 -0.0050029 -1.19501 
0.205662 -0.0136955 -1.195 0.20101 -0.0185287 -1.1876 0.0973553 -0.03634 -1.195 
0.220348 -0.00766077 -1.195 0.150775 -0.0165595 -1.18683 0.127345 -0.03635 -1.195 
0.438522 -0.0196744 -1.18125 0.251644 -0.0449104 -1.19501 0.19573 -0.00798838 -1.18687 
0.132339 -0.0450077 -1.195 0.385086 -0.0252422 -1.16891 0.255697 -0.0266544 -1.19479 
0.147461 -0.037848 -1.18721 0.377981 -0.029836 -1.18601 0.265308 -0.0239398 -1.195 
0.399755 -0.0379004 -1.18171 0.152522 -0.0286291 -1.18747 0.179158 -0.0449977 -1.195 
0.0839461 -0.00505647 -1.17769 0.195864 -0.0345091 -1.195 0.381557 -0.0316797 -1.17544 
0.163764 -0.041736 -1.18675 0.216323 -0.0264931 -1.195 0.407507 -0.0377436 -1.18812 
0.174506 -0.0356808 -1.195 0.342763 -0.00782538 -1.18153 0.225435 -0.0221247 -1.17904 
0.190329 -0.0207689 -1.1879 0.453424 -0.0353684 -1.18142 0.164518 -0.0361398 -1.19501 
0.185185 -0.0442341 -1.18704 0.226423 -0.036357 -1.19501 0.0889493 -0.0049976 -1.18635 
0.295932 -0.0154288 -1.18557 0.305461 -0.0267559 -1.19411 0.276739 -0.0365573 -1.19493 
0.452372 -0.0282544 -1.18837 0.0713586 -0.0234081 -1.17981 0.210364 -0.0288011 -1.18725 
0.249938 -0.00508197 -1.195 0.313974 -0.0213407 -1.19488 0.145771 -0.00786477 -1.18683 
0.100692 -0.020927 -1.1878 0.125777 -0.0136504 -1.195 0.475932 -0.0198547 -1.18065 
0.226322 -0.0263447 -1.195 0.461238 -0.0289724 -1.1838 0.112348 -0.045004 -1.19501 
0.453469 -0.0196906 -1.18191 0.168189 -0.023356 -1.195 0.214401 -0.0102171 -1.1873 
0.117356 -0.0190336 -1.195 0.264161 -0.0140374 -1.19498 0.312111 -0.0421486 -1.195 
0.195525 -0.013796 -1.195 0.3223 -0.0431708 -1.19502 
VERTICES 500 1000
1 0 
1 1 
1 2 
1 3 
1 4 
1 5 
1 6 
1 7 
1 8 
1 9 
1 10 
1 11 
1 12 
1 13 
1 14 
1 15 
1 16 
1 17 
1 18 
1 19 
1 20 
1 21 
1 22 
1 23 
1 24 
1 25 
1 26 
1 27 
1 28 
1 29 
1 30 
1 31 
1 32 
1 33 
1 34 
1 35 
1 36 
1 37 
1 38 
1 39 
1 40 
1 41 
1 42 
1 43 
1 44 
1 45 
1 46 
1 47 
1 48 
1 49 
1 50 
1 51 
1 52 
1 53 
1 54 
1 55 
1 56 
1 57 
1 58 
1 59 
1 60 
1 61 
1 62 
1 63 
1 64 
1 65 
1 66 
1 67 
1 68 
1 69 
1 70 
1 71 
1 72 
1 73 
1 74 
1 75 
1 76 
1 77 
1 78 
1 79 
1 80 
1 81 
1 82 
1 83 
1 84 
1 85 
1 86 
1 87 
1 88 
1 89 
1 90 
1 91 
1 92 
1 93 
1 94 
1 95 
1 96 
1 97 
1 98 
1 99 
1 100 
1 101 
1 102 
1 103 
1 104 
1 105 
1 106 
1 107 
1 108 
1 109 
1 110 
1 111 
1 112 
1 113 
1 114 
1 115 
1 116 
1 117 
1 118 
1 119 
1 120 
1 121 
1 122 
1 123 
1 124 
1 125 
1 126 
1 127 
1 128 
1 129 
1 130 
1 131 
1 132 
1 133 
1 134 
1 135 
1 136 
1 137 
1 138 
1 139 
1 140 
1 141 
1 142 
1 143 
1 144 
1 145 
1 146 
1 147 
1 148 
1 149 
1 150 
1 151 
1 152 
1 153 
1 154 
1 155 
1 156 
1 157 
1 158 
1 159 
1 160 
1 161 
1 162 
1 163 
1 164 
1 165 
1 166 
1 167 
1 168 
1 169 
1 170 
1 171 
1 172 
1 173 
1 174 
1 175 
1 176 
1 177 
1 178 
1 179 
1 180 
1 181 
1 182 
1 183 
1 184 
1 185 
1 186 
1 187 
1 188 
1 189 
1 190 
1 191 
1 192 
1 193 
1 194 
1 195 
1 196 
1 197 
1 198 
1 199 
1 200 
1 201 
1 202 
1 203 
1 204 
1 205 
1 206 
1 207 
1 208 
1 209 
1 210 
1 211 
1 212 
1 213 
1 214 
1 215 
1 216 
1 217 
1 218 
1 219 
1 220 
1 221 
1 222 
1 223 
1 224 
1 225 
1 226 
1 227 
1 228 
1 229 
1 230 
1 231 
1 232 
1 233 
1 234 
1 235 
1 236 
1 237 
1 238 
1 239 
1 240 
1 241 
1 242 
1 243 
1 244 
1 245 
1 246 
1 247 
1 248 
1 249 
1 250 
1 251 
1 252 
1 253 
1 254 
1 255 
1 256 
1 257 
1 258 
1 259 
1 260 
1 261 
1 262 
1 263 
1 264 
1 265 
1 266 
1 267 
1 268 
1 269 
1 270 
1 271 
1 272 
1 273 
1 274 
1 275 
1 276 
1 277 
1 278 
1 279 
1 280 
1 281 
1 282 
1 283 
1 284 
1 285 
1 286 
1 287 
1 288 
1 289 
1 290 
1 291 
1 292 
1 293 
1 294 
1 295 
1 296 
1 297 
1 298 
1 299 
1 300 
1 301 
1 302 
1 303 
1 304 
1 305 
1 306 
1 307 
1 308 
1 309 
1 310 
1 311 
1 312 
1 313 
1 314 
1 315 
1 316 
1 317 
1 318 
1 319 
1 320 
1 321 
1 322 
1 323 
1 324 
1 325 
1 326 
1 327 
1 328 
1 329 
1 330 
1 331 
1 332 
1 333 
1 334 
1 335 
1 336 
1 337 
1 338 
1 339 
1 340 
1 341 
1 342 
1 343 
1 344 
1 345 
1 346 
1 347 
1 348 
1 349 
1 350 
1 351 
1 352 
1 353 
1 354 
1 355 
1 356 
1 357 
1 358 
1 359 
1 360 
1 361 
1 362 
1 363 
1 364 
1 365 
1 366 
1 367 
1 368 
1 369 
1 370 
1 371 
1 372 
1 373 
1 374 
1 375 
1 376 
1 377 
1 378 
1 379 
1 380 
1 381 
1 382 
1 383 
1 384 
1 385 
1 386 
1 387 
1 388 
1 389 
1 390 
1 391 
1 392 
1 393 
1 394 
1 395 
1 396 
1 397 
1 398 
1 399 
1 400 
1 401 
1 402 
1 403 
1 404 
1 405 
1 406 
1 407 
1 408 
1 409 
1 410 
1 411 
1 412 
1 413 
1 414 
1 415 
1 416 
1 417 
1 418 
1 419 
1 420 
1 421 
1 422 
1 423 
1 424 
1 425 
1 426 
1 427 
1 428 
1 429 
1 430 
1 431 
1 432 
1 433 
1 434 
1 435 
1 436 
1 437 
1 438 
1 439 
1 440 
1 441 
1 442 
1 443 
1 444 
1 445 
1 446 
1 447 
1 448 
1 449 
1 450 
1 451 
1 452 
1 453 
1 454 
1 455 
1 456 
1 457 
1 458 
1 459 
1 460 
1 461 
1 462 
1 463 
1 464 
1 465 
1 466 
1 467 
1 468 
1 469 
1 470 
1 471 
1 472 
1 473 
1 474 
1 475 
1 476 
1 477 
1 478 
1 479 
1 480 
1 481 
1 482 
1 483 
1 484 
1 485 
1 486 
1 487 
1 488 
1 489 
1 490 
1 491 
1 492 
1 493 
1 494 
1 495 
1 496 
1 497 
1 498 
1 499 

POINT_DATA 500
FIELD FieldData 7
id 1 500 int
1 2 3 4 5 6 7 8 9 
10 11 12 13 14 15 16 17 18 
19 20 21 22 23 24 25 26 27 
28 29 30 31 32 33 34 35 36 
37 38 39 40 41 42 43 44 45 
46 47 48 49 50 51 52 53 54 
55 56 57 58 59 60 61 62 63 
64 65 66 67 68 69 70 71 72 
73 74 75 76 77 78 79 80 81 
82 83 84 85 86 87 88 89 90 
91 92 93 94 95 96 97 98 99 
100 101 102 103 104 105 106 107 108 
109 110 111 112 113 114 115 116 117 
118 119 120 121 122 123 124 125 126 
127 128 129 130 131 132 133 134 135 
136 137 138 139 140 141 142 143 144 
145 146 147 148 149 150 151 152 153 
154 155 156 157 158 159 160 161 162 
163 164 165 166 167 168 169 170 171 
172 173 174 175 176 177 178 179 180 
181 182 183 184 185 186 187 188 189 
190 191 192 193 194 195 196 197 198 
199 200 201 202 203 204 205 206 207 
208 209 210 211 212 213 214 215 216 
217 218 219 220 221 222 223 224 225 
226 227 228 229 230 231 232 233 234 
235 236 237 238 239 240 241 242 243 
244 245 246 247 248 249 250 251 252 
253 254 255 256 257 258 259 260 261 
262 263 264 265 266 267 268 269 270 
271 272 273 274 275 276 277 278 279 
280 281 282 283 284 285 286 287 288 
289 290 291 292 293 294 295 296 297 
298 299 300 301 302 303 304 305 306 
307 308 309 310 311 312 313 314 315 
316 317 318 319 320 321 322 323 324 
325 326 327 328 329 330 331 332 333 
334 335 336 337 338 339 340 341 342 
343 344 345 346 347 348 349 350 351 
352 353 354 355 356 357 358 359 360 
361 362 363 364 365 366 367 368 369 
370 371 372 373 374 375 376 377 378 
379 380 381 382 383 384 385 386 387 
388 389 390 391 392 393 394 395 396 
397 398 399 400 401 402 403 404 405 
406 407 408 409 410 411 412 413 414 
415 416 417 418 419 420 421 422 423 
424 425 426 427 428 429 430 431 432 
433 434 435 436 437 438 439 440 441 
442 443 444 445 446 447 448 449 450 
451 452 453 454 455 456 457 458 459 
460 461 462 463 464 465 466 467 468 
469 470 471 472 473 474 475 476 477 
478 479 480 481 482 483 484 485 486 
487 488 489 490 491 492 493 494 495 
496 497 498 499 500 
type 1 500 int
1 1 1 1 1 1 1 1 1 
1 1 1 1 1 1 1 1 1 
1 1 1 1 1 1 1 1 1 
1 1 1 1 1 1 1 1 1 
1 1 1 1 1 1 1 1 1 
1 1 1 1 1 1 1 1 1 
1 1 1 1 1 1 1 1 1 
1 1 1 1 1 1 1 1 1 
1 1 1 1 1 1 1 1 1 
1 1 1 1 1 1 1 1 1 
1 1 1 1 1 1 1 1 1 
1 1 1 1 1 1 1 1 1 
1 1 1 1 1 1 1 1 1 
1 1 1 1 1 1 1 1 1 
1 1 1 1 1 1 1 1 1 
1 1 1 1 1 1 1 1 1 
1 1 1 1 1 1 1 1 1 
1 1 1 1 1 1 1 1 1 
1 1 1 1 1 1 1 1 1 
1 1 1 1 1 1 1 1 1 
1 1 1 1 1 1 1 1 1 
1 1 1 1 1 1 1 1 1 
1 1 1 1 1 1 1 1 1 
1 1 1 1 1 1 1 1 1 
1 1 1 1 1 1 1 1 1 
1 1 1 1 1 1 1 1 1 
1 1 1 1 1 1 1 1 1 
1 1 1 1 1 1 1 1 1 
1 1 1 1 1 1 1 1 1 
1 1 1 1 1 1 1 1 1 
1 1 1 1 1 1 1 1 1 
1 1 1 1 1 1 1 1 1 
1 1 1 1 1 1 1 1 1 
1 1 1 1 1 1 1 1 1 
1 1 1 1 1 1 1 1 1 
1 1 1 1 1 1 1 1 1 
1 1 1 1 1 1 1 1 1 
1 1 1 1 1 1 1 1 1 
1 1 1 1 1 1 1 1 1 
1 1 1 1 1 1 1 1 1 
1 1 1 1 1 1 1 1 1 
1 1 1 1 1 1 1 1 1 
1 1 1 1 1 1 1 1 1 
1 1 1 1 1 1 1 1 1 
1 1 1 1 1 1 1 1 1 
1 1 1 1 1 1 1 1 1 
1 1 1 1 1 1 1 1 1 
1 1 1 1 1 1 1 1 1 
1 1 1 1 1 1 1 1 1 
1 1 1 1 1 1 1 1 1 
1 1 1 1 1 1 1 1 1 
1 1 1 1 1 1 1 1 1 
1 1 1 1 1 1 1 1 1 
1 1 1 1 1 1 1 1 1 
1 1 1 1 1 1 1 1 1 
1 1 1 1 1 
i 3 500 int
0 0 0 0 0 0 0 0 0 
0 0 0 0 0 0 0 0 0 
0 0 0 0 0 0 0 0 0 
0 0 0 0 0 0 0 0 0 
0 0 0 0 0 0 0 0 0 
0 0 0 0 0 0 0 0 0 
0 0 0 0 0 0 0 0 0 
0 0 0 0 0 0 0 0 0 
0 0 0 0 0 0 0 0 0 
0 0 0 0 0 0 0 0 0 
0 0 0 0 0 0 0 0 0 
0 0 0 0 0 0 0 0 0 
0 0 0 0 0 0 0 0 0 
0 0 0 0 0 0 0 0 0 
0 0 0 0 0 0 0 0 0 
0 0 0 0 0 0 0 0 0 
0 0 0 0 0 0 0 0 0 
0 0 0 0 0 0 0 0 0 
0 0 0 0 0 0 0 0 0 
0 0 0 0 0 0 0 0 0 
0 0 0 0 0 0 0 0 0 
0 0 0 0 0 0 0 0 0 
0 0 0 0 0 0 0 0 0 
0 0 0 0 0 0 0 0 0 
0 0 0 0 0 0 0 0 0 
0 0 0 0 0 0 0 0 0 
0 0 0 0 0 0 0 0 0 
0 0 0 0 0 0 0 0 0 
0 0 0 0 0 0 0 0 0 
0 0 0 0 0 0 0 0 0 
0 0 0 0 0 0 0 0 0 
0 0 0 0 0 0 0 0 0 
0 0 0 0 0 0 0 0 0 
0 0 0 0 0 0 0 0 0 
0 0 0 0 0 0 0 0 0 
0 0 0 0 0 0 0 0 0 
0 0 0 0 0 0 0 0 0 
0 0 0 0 0 0 0 0 0 
0 0 0 0 0 0 0 0 0 
0 0 0 0 0 0 0 0 0 
0 0 0 0 0 0 0 0 0 
0 0 0 0 0 0 0 0 0 
0 0 0 0 0 0 0 0 0 
0 0 0 0 0 0 0 0 0 
0 0 0 0 0 0 0 0 0 
0 0 0 0 0 0 0 0 0 
0 0 0 0 0 0 0 0 0 
0 0 0 0 0 0 0 0 0 
0 0 0 0 0 0 0 0 0 
0 0 0 0 0 0 0 0 0 
0 0 0 0 0 0 0 0 0 
0 0 0 0 0 0 0 0 0 
0 0 0 0 0 0 0 0 0 
0 0 0 0 0 0 0 0 0 
0 0 0 0 0 0 0 0 0 
0 0 0 0 0 0 0 0 0 
0 0 0 0 0 0 0 0 0 
0 0 0 0 0 0 0 0 0 
0 0 0 0 0 0 0 0 0 
0 0 0 0 0 0 0 0 0 
0 0 0 0 0 0 0 0 0 
0 0 0 0 0 0 0 0 0 
0 0 0 0 0 0 0 0 0 
0 0 0 0 0 0 0 0 0 
0 0 0 0 0 0 0 0 0 
0 0 0 0 0 0 0 0 0 
0 0 0 0 0 0 0 0 0 
0 0 0 0 0 0 0 0 0 
0 0 0 0 0 0 0 0 0 
0 0 0 0 0 0 0 0 0 
0 0 0 0 0 0 0 0 0 
0 0 0 0 0 0 0 0 0 
0 0 0 0 0 0 0 0 0 
0 0 0 0 0 0 0 0 0 
0 0 0 0 0 0 0 0 0 
0 0 0 0 0 0 0 0 0 
0 0 0 0 0 0 0 0 0 
0 0 0 0 0 0 0 0 0 
0 0 0 0 0 0 0 0 0 
0 0 0 0 0 0 0 0 0 
0 0 0 0 0 0 0 0 0 
0 0 0 0 0 0 0 0 0 
0 0 0 0 0 0 0 0 0 
0 0 0 0 0 0 0 0 0 
0 0 0 0 0 0 0 0 0 
0 0 0 0 0 0 0 0 0 
0 0 0 0 0 0 0 0 0 
0 0 0 0 0 0 0 0 0 
0 0 0 0 0 0 0 0 0 
0 0 0 0 0 0 0 0 0 
0 0 0 0 0 0 0 0 0 
0 0 0 0 0 0 0 0 0 
0 0 0 0 0 0 0 0 0 
0 0 0 0 0 0 0 0 0 
0 0 0 0 0 0 0 0 0 
0 0 0 0 0 0 0 0 0 
0 0 0 0 0 0 0 0 0 
0 0 0 0 0 0 0 0 0 
0 0 0 0 0 0 0 0 0 
0 0 0 0 0 0 0 0 0 
0 0 0 0 0 0 0 0 0 
0 0 0 0 0 0 0 0 0 
0 0 0 0 0 0 0 0 0 
0 0 0 0 0 0 0 0 0 
0 0 0 0 0 0 0 0 0 
0 0 0 0 0 0 0 0 0 
0 0 0 0 0 0 0 0 0 
0 0 0 0 0 0 0 0 0 
0 0 0 0 0 0 0 0 0 
0 0 0 0 0 0 0 0 0 
0 0 0 0 0 0 0 0 0 
0 0 0 0 0 0 0 0 0 
0 0 0 0 0 0 0 0 0 
0 0 0 0 0 0 0 0 0 
0 0 0 0 0 0 0 0 0 
0 0 0 0 0 0 0 0 0 
0 0 0 0 0 0 0 0 0 
0 0 0 0 0 0 0 0 0 
0 0 0 0 0 0 0 0 0 
0 0 0 0 0 0 0 0 0 
0 0 0 0 0 0 0 0 0 
0 0 0 0 0 0 0 0 0 
0 0 0 0 0 0 0 0 0 
0 0 0 0 0 0 0 0 0 
0 0 0 0 0 0 0 0 0 
0 0 0 0 0 0 0 0 0 
0 0 0 0 0 0 0 0 0 
0 0 0 0 0 0 0 0 0 
0 0 0 0 0 0 0 0 0 
0 0 0 0 0 0 0 0 0 
0 0 0 0 0 0 0 0 0 
0 0 0 0 0 0 0 0 0 
0 0 0 0 0 0 0 0 0 
0 0 0 0 0 0 0 0 0 
0 0 0 0 0 0 0 0 0 
0 0 0 0 0 0 0 0 0 
0 0 0 0 0 0 0 0 0 
0 0 0 0 0 0 0 0 0 
0 0 0 0 0 0 0 0 0 
0 0 0 0 0 0 0 0 0 
0 0 0 0 0 0 0 0 0 
0 0 0 0 0 0 0 0 0 
0 0 0 0 0 0 0 0 0 
0 0 0 0 0 0 0 0 0 
0 0 0 0 0 0 0 0 0 
0 0 0 0 0 0 0 0 0 
0 0 0 0 0 0 0 0 0 
0 0 0 0 0 0 0 0 0 
0 0 0 0 0 0 0 0 0 
0 0 0 0 0 0 0 0 0 
0 0 0 0 0 0 0 0 0 
0 0 0 0 0 0 0 0 0 
0 0 0 0 0 0 0 0 0 
0 0 0 0 0 0 0 0 0 
0 0 0 0 0 0 0 0 0 
0 0 0 0 0 0 0 0 0 
0 0 0 0 0 0 0 0 0 
0 0 0 0 0 0 0 0 0 
0 0 0 0 0 0 0 0 0 
0 0 0 0 0 0 0 0 0 
0 0 0 0 0 0 0 0 0 
0 0 0 0 0 0 0 0 0 
0 0 0 0 0 0 0 0 0 
0 0 0 0 0 0 0 0 0 
0 0 0 0 0 0 0 0 0 
0 0 0 0 0 0 0 0 0 
0 0 0 0 0 0 
v 3 500 double
-0.0174184 0.00226468 0.00608031 0.00161644 -0.0209053 0.00709581 -0.00123411 -0.000427086 -0.000166341 
-0.00570223 0.00102693 0.00519129 -0.00030052 3.27713e-05 -0.000645005 0.00485734 0.000106263 -0.0104748 
0.00805656 0.00168208 -0.00112012 0.0181032 -0.00030893 -0.0225162 0.0131905 -0.00387309 0.000795391 
-0.0014545 0.00154414 4.55766e-05 -0.212149 -0.292606 0.376877 -0.0102753 -0.00112278 -0.00111965 
0.0042902 -0.000744764 -0.00439594 -0.278591 0.00642941 1.81674e-05 0.00169788 -0.00217479 -0.00192964 
-0.041795 0.00922221 0.0221093 0.00238208 6.95963e-06 -0.0151721 -2.86316e-05 0.000123082 -0.000117887 
0.0068081 0.00474827 -0.000298298 -0.0108148 0.0003944 -0.00475292 0.00202765 -0.000710546 -0.000699673 
0.00262761 0.0180992 -0.0175355 0.000552782 -0.000206476 -0.00024983 -0.00221382 0.000164976 -5.3872e-05 
-0.00575481 0.00648648 0.00180643 -0.112964 0.0271753 0.0579485 8.52229e-05 -0.000810521 0.000683887 
-0.00186095 -0.000152628 -0.000421439 -0.283392 -0.0188656 0.0108339 0.014292 -0.000476792 0.00148258 
0.000685867 0.000678708 0.00119372 -0.0106103 0.000223381 -0.000813719 -0.0379159 -0.00341695 0.0109758 
-0.00865471 0.000747194 0.00122079 -0.0124298 -0.00216389 0.00754752 0.00563836 0.00333894 -0.00145705 
-0.0531024 0.00604045 -0.00309254 0.000919608 -0.00123484 0.000131632 0.00560238 0.0193357 -0.000534606 
0.000126951 -0.000521955 4.10839e-05 0.0183497 -0.0234269 -4.19323e-11 0.0116572 -0.00113075 2.67374e-05 
0.0135841 -0.00108624 -0.00905888 -0.0241718 0.00185065 0.00017602 0.00835253 -0.000895519 9.35353e-05 
-0.00288738 0.000735774 0.000935985 0.0106182 -0.000218354 -0.00095291 8.70635e-05 -0.000787855 -9.8748e-06 
0.0138508 -0.000601678 0.00196211 -0.0193357 0.00389421 -0.00325407 -0.0541593 -0.0130703 -0.00775974 
-0.00176238 0.000340751 0.000363126 -0.00121069 -5.46368e-05 0.000372745 0.00872424 5.22416e-05 -0.000900357 
7.19537e-05 -0.00178042 -0.00058789 0.00232019 -0.000478966 -0.00179121 0.013011 -0.000444469 -0.000243235 
0.0170594 0.00850386 -0.00317466 -0.00026286 -2.68522e-05 0.000606757 0.0202327 0.0137822 -0.00894299 
0.00362178 0.00180959 8.78258e-07 -0.0056383 0.000922167 0.000659934 0.00102992 -0.00021653 -0.0010542 
0.00475373 0.00530031 -0.0109468 0.0217577 -0.00048897 -0.00504598 -0.00848928 0.0108727 -0.00294024 
-0.0470346 0.0140681 -0.00824071 -0.0278932 -0.0193717 -0.011048 -0.0106945 -0.000525941 0.00268694 
0.000406303 -0.000445795 -0.000533254 -0.000290355 -0.000798042 0.000813652 0.00186074 0.000176714 0.000214029 
0.000774519 0.000519371 -0.00301433 -0.000682242 -0.00144417 -0.000164157 0.00819202 8.09977e-05 -0.00069896 
0.00759966 0.000610712 -0.00171065 0.000523617 6.31187e-06 -5.0513e-05 -0.0332611 -0.0040452 -0.0194684 
-0.0679329 -0.0643019 0.038691 0.00814864 0.000473169 0.00334837 0.00457285 -0.00168156 -0.00441009 
8.26082e-05 0.00148265 0.000978269 -0.0162835 -0.00267307 0.00136365 -0.00105475 -7.80876e-05 -0.000407533 
-0.725183 0.0495746 -0.860876 0.00578441 0.00153807 -0.000855077 0.00385025 -0.00165274 -9.96667e-05 
-0.234982 0.00393636 0.0257749 -0.0198306 0.00147918 -0.0138604 -5.26069e-05 -3.15232e-05 2.96525e-05 
0.00677925 -0.000220428 3.90532e-06 0.359985 0.0515157 0.203399 0.0128243 -0.00164336 -0.00909821 
0.00018517 -0.000659558 -0.000420019 0.000220451 -4.03144e-05 -0.000201987 0.00038484 -0.000410376 4.32117e-06 
0.0116675 0.00289331 -4.48506e-05 0.0135068 -0.0014333 0.000515302 -0.022812 -0.00555119 -0.000531194 
0.00993749 -5.45602e-05 0.000707978 0.0102008 0.000138247 -0.000141789 0.00177963 -5.70716e-05 -2.82802e-08 
0.000664136 -0.00172573 -0.000711394 0.00068981 -0.000208405 -0.000436453 0.0514684 -0.00126664 0.0451173 
0.0452473 0.0789085 0.1512 0.00994371 0.00216697 0.000748657 0.00412446 0.00663979 0.00200285 
0.0101456 0.000235509 0.000776262 0.00609843 0.0023926 0.000374723 0.011572 0.00137433 3.93075e-05 
0.00890245 0.00182385 -0.00116317 2.09759e-05 3.40452e-06 2.49285e-05 -0.0510026 0.0497031 -0.0279638 
0.013385 -0.00587033 0.0024071 -0.000904488 -0.00119545 -4.32667e-06 -0.0175749 0.00766767 -0.00573459 
-0.00916129 -0.00196018 -0.000585049 -0.00316826 0.00118153 0.00132577 0.00624458 0.00246714 -0.000499981 
-0.0214527 0.0506812 0.0288001 0.00221402 -9.2184e-05 9.67806e-05 -0.00941153 -0.00209545 0.000216638 
-0.00636498 -0.000299887 -0.000396053 -0.0112013 -0.000255251 2.95859e-06 0.00138819 1.62249e-06 0.00217953 
0.000464821 0.000976336 1.93879e-12 -0.00122446 0.00127386 0.00132237 8.14134e-05 5.17206e-05 -0.000134543 
0.000789914 -1.74593e-05 0.000450762 0.00431054 5.00752e-05 0.0001028 6.37737e-05 -6.35163e-05 -0.00013447 
-0.00151565 -0.0125931 -0.00019736 0.00284794 0.000286022 -0.079159 0.0031931 0.000731104 0.000153718 
-0.025196 -0.00343153 -0.0234299 0.00242725 -0.00879938 0.000648498 0.0446117 0.0757693 -0.0487938 
-0.0028472 -0.000895906 -0.00144711 0.0189879 0.000545053 0.00158499 -0.0113663 -0.00194651 -0.000568739 
-0.00574464 0.00578179 -0.00449609 0.000457737 -0.000495548 -0.000351884 0.158889 -0.0470101 -0.233917 
-0.00501017 -1.77094e-05 -0.000985581 -0.0266471 -0.00440835 -0.00816485 0.000327288 -0.0012348 -0.000992475 
0.0110581 -0.00104437 0.000395043 -0.00866813 -0.00329238 -0.00253356 0.00847655 0.00754758 -0.00142768 
0.0135144 -0.000832555 -0.000931034 -0.0113304 0.000299541 0.000412628 0.000328242 5.97094e-05 -0.000285223 
-0.0163903 -0.00278928 -0.000305779 0.00353923 -0.0284074 -0.0608966 -0.00994701 -0.00208717 0.00178521 
-0.000131273 -0.000680193 -4.50349e-05 -0.00311098 0.000140413 -0.0167697 -8.93981e-05 -0.000116604 -7.96025e-05 
0.00203474 -0.00562787 8.99899e-05 -6.44311e-05 -0.00053515 -0.000293888 0.0143659 0.0210437 0.0161647 