# vtk DataFile Version 4.0
Generated by LIGGGHTS
ASCII
DATASET POLYDATA
POINTS 500 float
0.411852 -0.0449523 -1.18633 0.411696 -0.0288831 -1.18792 0.00505539 -0.0250061 -1.19501 
0.0395575 -0.0205852 -1.17571 0.0169044 -0.0222141 -1.17263 0.0363974 -0.00499814 -1.17657 
0.045816 -0.0366117 -1.18625 0.0322695 -0.045001 -1.17656 0.0909152 -0.0165381 -1.17818 
0.469215 -0.00500034 -1.18502 0.340864 -0.0450014 -1.195 0.46366 -0.0136607 -1.19501 
0.0217327 -0.0141017 -1.16933 0.32114 -0.00500429 -1.195 0.0440081 -0.0111637 -1.17456 
0.367853 -0.0275459 -1.195 0.0277291 -0.0450024 -1.18546 0.495001 -0.0450009 -1.18514 
0.0410361 -0.0360625 -1.19501 0.48119 -0.0138257 -1.18752 0.00556756 -0.0198982 -1.17185 
0.182268 -0.0300108 -1.18792 0.493401 -0.045 -1.195 0.0538562 -0.00499523 -1.18635 
0.169034 -0.0299403 -1.18762 0.361041 -0.0449906 -1.18543 0.485706 -0.0286804 -1.19501 
0.456197 -0.0449976 -1.195 0.314105 -0.014951 -1.195 0.0959181 -0.0136545 -1.18635 
0.0343047 -0.0205999 -1.18782 0.435052 -0.0444999 -1.18689 0.407783 -0.0128994 -1.18755 
0.457886 -0.0200019 -1.18987 0.205475 -0.0339539 -1.195 0.0337155 -0.0375461 -1.18837 
0.386395 -0.00499176 -1.19489 0.0148718 -0.0434692 -1.19501 0.0384544 -0.0377494 -1.17958 
0.495001 -0.0099963 -1.18635 0.22849 -0.0448336 -0.245002 0.114344 -0.02768 -1.195 
0.0694399 -0.00848369 -1.17227 0.405676 -0.037219 -1.18815 0.119338 -0.0363393 -1.195 
0.465951 -0.034721 -1.195 0.00540833 -0.0369225 -1.17915 0.00499867 -0.0200041 -1.18636 
0.484382 -0.045002 -1.18737 0.426416 -0.0209202 -1.1877 0.376103 -0.00498877 -1.195 
0.477913 -0.0450013 -1.195 0.0219231 -0.00499679 -1.18781 0.0612694 -0.0450011 -1.16951 
0.00995033 -0.0249947 -1.17925 0.0148724 -0.0336967 -1.17926 0.0859117 -0.0223969 -1.19501 
0.0694422 -0.0184792 -1.17203 0.0142941 -0.00499899 -1.18135 0.0436432 -0.0296289 -1.17692 
0.0266293 -0.035183 -1.19501 0.449592 -0.0374321 -1.19501 0.0148671 -0.0146656 -1.17886 
0.0447833 -0.0210871 -1.1857 0.0778056 -0.0450014 -1.17827 0.425202 -0.0141925 -1.195 
0.421555 -0.0299747 -1.18665 0.442403 -0.0287169 -1.18284 0.431448 -0.00501914 -1.195 
0.00499822 -0.0130865 -1.17914 0.485655 -0.0386764 -1.19501 0.492005 -0.0199997 -1.18688 
0.043854 -0.0121131 -1.19008 0.0137647 -0.0197962 -1.19501 0.0562237 -0.0450019 -1.17814 
0.0549197 -0.020305 -1.1874 0.0195229 -0.00499903 -1.17283 0.41386 -0.00499803 -1.18829 
0.390328 -0.0316154 -1.195 0.49236 -0.0370235 -1.17972 0.0506835 -0.0367056 -1.1775 
0.0278341 -0.0282129 -1.18795 0.441558 -0.0209242 -1.18953 0.00763261 -0.00499812 -1.17389 
0.154192 -0.0346917 -1.17958 0.0615197 -0.036522 -1.17786 0.021483 -0.0357865 -1.18646 
0.282103 -0.0445074 -1.18482 0.422318 -0.0435283 -1.18676 0.00499631 -0.00499739 -1.18502 
0.0512332 -0.0367993 -1.195 0.402211 -0.0215963 -1.187 0.0601151 -0.00499906 -1.17133 
0.00499768 -0.0300026 -1.18635 0.00499577 -0.0450019 -1.19501 0.0119684 -0.0119691 -1.18851 
0.12778 -0.00501053 -1.18635 0.0859135 -0.0136526 -1.18635 0.191047 -0.0449997 -1.195 
0.0669205 -0.0450002 -1.19501 0.0754686 -0.0221208 -1.195 0.208036 -0.0449887 -0.245002 
0.0143591 -0.0269171 -1.18802 0.461042 -0.0107042 -1.18582 0.294114 -0.0146238 -1.195 
0.402561 -0.0155555 -1.17926 0.109329 -0.0421143 -1.18684 0.137752 -0.0309281 -1.195 
0.104332 -0.0450005 -1.195 0.0511829 -0.0286676 -1.18341 0.178119 -0.0134778 -1.195 
0.0614944 -0.0278659 -1.18643 0.495001 -0.00499771 -1.195 0.381248 -0.0135495 -1.19501 
0.102984 -0.0150092 -1.1794 0.0412353 -0.0203909 -1.19502 0.256209 -0.0108796 -1.18865 
0.439152 -0.00500699 -1.18863 0.462176 -0.0450045 -1.18555 0.0565143 -0.0365347 -1.18652 
0.274115 -0.0147628 -1.195 0.488985 -0.0260327 -1.17949 0.446858 -0.00501251 -1.195 
0.458648 -0.00500683 -1.195 0.468647 -0.00499775 -1.19501 0.0338473 -0.00499686 -1.18635 
0.205325 -0.0246774 -0.245002 0.46746 -0.0362909 -1.18524 0.494999 -0.0149965 -1.195 
0.0177312 -0.0450052 -1.18556 0.037837 -0.0131529 -1.18217 0.495001 -0.0249949 -1.19501 
0.0588401 -0.00542474 -1.19501 0.0247497 -0.0450021 -1.195 0.0522543 -0.0143962 -1.195 
0.39646 -0.0231284 -1.19501 0.0226725 -0.0319633 -1.17282 0.248093 -0.0204103 -1.18789 
0.452896 -0.00499758 -1.18683 0.189648 -0.026961 -1.195 0.433217 -0.0202048 -1.19501 
0.466896 -0.0242683 -1.19508 0.485709 -0.00868674 -1.195 0.413551 -0.0200529 -1.18361 
0.472083 -0.0450039 -1.18689 0.398406 -0.0375092 -1.195 0.0194654 -0.0183907 -1.18692 
0.0612728 -0.0190798 -1.19501 0.440103 -0.0126706 -1.195 0.132805 -0.0165179 -1.18683 
0.0809203 -0.0049955 -1.18635 0.429251 -0.0449972 -1.19501 0.00499788 -0.0450038 -1.18501 
0.474563 -0.0134077 -1.195 0.231117 -0.0328238 -1.187 0.449736 -0.022668 -1.19501 
0.0349196 -0.0281431 -1.195 0.48636 -0.00499955 -1.18573 0.0149947 -0.00499881 -1.19501 
0.476831 -0.0232913 -1.195 0.0049987 -0.0350043 -1.19501 0.18842 -0.00962298 -1.18768 
0.0290791 -0.0343157 -1.18013 0.0278751 -0.0129875 -1.18703 0.040132 -0.0450009 -1.18658 
0.452718 -0.0131185 -1.19499 0.121043 -0.0123878 -1.18772 0.378144 -0.0450022 -1.195 
0.0388508 -0.00499644 -1.19501 0.0582326 -0.0132714 -1.17662 0.225484 -0.00499908 -1.18678 
0.0216045 -0.0125938 -1.195 0.44854 -0.0450041 -1.18857 0.485666 -0.0336761 -1.18635 
0.156283 -0.03623 -1.195 0.062583 -0.0221101 -1.17833 0.0909137 -0.0136596 -1.195 
0.48268 -0.0236925 -1.18689 0.0212042 -0.0260897 -1.18078 0.0617867 -0.036275 -1.195 
0.23597 -0.0363324 -1.195 0.495001 -0.0351262 -1.195 0.477575 -0.00499688 -1.19051 
0.00499699 -0.0149941 -1.19501 0.0751923 -0.0131768 -1.18683 0.14305 -0.027925 -1.18674 
0.0310852 -0.0245623 -1.17923 0.236165 -0.00788318 -1.18684 0.462002 -0.0192905 -1.18078 
0.196048 -0.0419837 -1.18688 0.0347482 -0.0449745 -1.195 0.358148 -0.0450094 -1.195 
0.37114 -0.0136643 -1.195 0.00499808 -0.00499776 -1.19501 0.119329 -0.042115 -1.18684 
0.0157903 -0.0389258 -1.17079 0.286179 -0.00513211 -1.18633 0.466198 -0.044848 -1.195 
0.209391 -0.0152255 -0.245002 0.495001 -0.030056 -1.18639 0.0980079 -0.0240441 -1.17952 
0.0499945 -0.0132662 -1.18228 0.440882 -0.0449885 -1.195 0.457882 -0.0368652 -1.18945 
0.412848 -0.0358453 -1.195 0.0859191 -0.00499859 -1.19501 0.485704 -0.0186841 -1.195 
0.476199 -0.0350988 -1.195 0.0116923 -0.0450013 -1.17759 0.0668563 -0.0363039 -1.18631 
0.162825 -0.00499959 -1.195 0.285831 -0.035879 -1.19499 0.0569229 -0.0450085 -1.195 
0.0857114 -0.0308364 -1.18641 0.418618 -0.0217154 -1.195 0.236174 -0.01366 -1.195 
0.39179 -0.045003 -1.195 0.307751 -0.0151849 -1.13498 0.024613 -0.0169795 -1.17846 
0.0924148 -0.0380822 -1.18801 0.408984 -0.00676831 -1.17974 0.0716786 -0.00613081 -1.03455 
0.43473 -0.0363201 -1.195 0.0908132 -0.0311136 -1.195 0.0723761 -0.00499718 -1.18117 
0.107997 -0.0236545 -1.17975 0.39824 -0.0073046 -1.18537 0.132792 -0.0049941 -1.195 
0.374074 -0.0357737 -1.19501 0.0451309 -0.0450044 -1.17792 0.0455139 -0.0450016 -1.19501 
0.051623 -0.00500082 -1.17661 0.01675 -0.0336488 -1.19501 0.0288516 -0.00499853 -1.19501 
0.0759211 -0.00507127 -1.19501 0.488019 -0.0136981 -1.18022 0.442144 -0.0371653 -1.18834 
0.0467292 -0.0282894 -1.19235 0.0237065 -0.0224551 -1.19501 0.0740789 -0.0344654 -1.17965 
0.0269362 -0.00668548 -1.17932 0.176072 -0.0394089 -1.18839 0.399318 -0.0449959 -1.18842 
0.0606799 -0.0121488 -1.18784 0.422783 -0.0369754 -1.19467 0.0800724 -0.0160623 -1.1786 
0.457892 -0.0285724 -1.19502 0.0112629 -0.0376858 -1.18769 0.0674007 -0.0136481 -1.18059 
0.401223 -0.0139324 -1.19501 0.261256 -0.0206223 -1.18756 0.0770176 -0.0450006 -1.195 
0.0959172 -0.00499866 -1.195 0.406447 -0.00509857 -1.195 0.391635 -0.0196801 -1.18696 
0.333059 -0.0149842 -1.195 0.477114 -0.037411 -1.18276 0.105915 -0.00499814 -1.195 
0.359268 -0.0224338 -1.195 0.261322 -0.0390146 -1.187 0.100911 -0.0136604 -1.19501 
0.126622 -0.0354224 -1.18542 0.0619254 -0.0450012 -1.18635 0.0805978 -0.0308671 -1.195 
0.0338523 -0.0136554 -1.19501 0.404692 -0.0297359 -1.195 0.225996 -0.0420999 -1.18684 
0.354471 -0.0312729 -1.195 0.396091 -0.0380717 -1.18197 0.152802 -0.022318 -1.195 
0.421265 -0.00500003 -1.19501 0.104348 -0.027679 -1.19501 0.0909132 -0.0223064 -1.18635 
0.156147 -0.0450021 -1.18632 0.406851 -0.0448806 -1.195 0.221003 -0.045001 -1.195 
0.20342 -0.00499952 -1.195 0.00499957 -0.029878 -1.17207 0.426599 -0.0277362 -1.19501 
0.209568 -0.0247204 -1.195 0.330869 -0.0450023 -1.195 0.446177 -0.0123964 -1.18707 
0.114346 -0.0103677 -1.195 0.0669709 -0.044904 -1.17772 0.18342 -0.00499915 -1.195 
0.26621 -0.00871349 -1.18718 0.349281 -0.0226128 -1.195 0.414439 -0.012385 -1.195 
0.0563553 -0.0277866 -1.195 0.386329 -0.0224499 -1.195 0.039038 -0.0292666 -1.18597 
0.0943319 -0.0449965 -1.195 0.442567 -0.029642 -1.19501 0.0512162 -0.0450052 -1.18679 
0.147782 -0.0309656 -1.19501 0.235995 -0.0421029 -1.18684 0.0717821 -0.036087 -1.19501 
0.157825 -0.00788543 -1.18684 0.469178 -0.0164816 -1.18716 0.0226551 -0.0415388 -1.17757 
0.0809162 -0.0137343 -1.19501 0.107693 -0.0122874 -1.18779 0.338215 -0.0235572 -1.195 
0.3808 -0.029912 -1.19049 0.0994222 -0.0450028 -1.1863 0.231165 -0.00500096 -1.195 
0.109348 -0.0190221 -1.195 0.328726 -0.0267146 -1.195 0.376304 -0.0222225 -1.19501 
0.282959 -0.0293815 -1.18796 0.426349 -0.00501178 -1.1864 0.230991 -0.0450016 -1.195 
0.26634 -0.0349289 -1.19501 0.419883 -0.0129125 -1.18663 0.0786377 -0.0377297 -1.18793 
0.0959096 -0.0223198 -1.19501 0.14272 -0.0395889 -1.195 0.305805 -0.0362799 -1.195 
0.416844 -0.0450088 -1.195 0.0848281 -0.0379904 -1.17949 0.366104 -0.00500436 -1.195 
0.0560684 -0.0287615 -1.17469 0.0439932 -0.00499688 -1.18307 0.0673756 -0.00499672 -1.18982 
0.310799 -0.0306789 -1.1884 0.161317 -0.0275603 -1.195 0.40869 -0.0205743 -1.19499 
0.0806965 -0.0221808 -1.18648 0.350918 -0.00713674 -1.195 0.173042 -0.0174557 -1.18736 
0.195899 -0.0303587 -1.18686 0.185724 -0.0361574 -1.195 0.315792 -0.0362878 -1.195 
0.0488507 -0.00499563 -1.19501 0.0494701 -0.0215076 -1.17665 0.167828 -0.0136581 -1.195 
0.363128 -0.0363492 -1.195 0.136099 -0.0376015 -1.18775 0.122766 -0.00499018 -1.195 
0.129325 -0.0450023 -1.18634 0.0683916 -0.0204846 -1.18813 0.0694304 -0.0132969 -1.195 
0.368146 -0.0449985 -1.195 0.344465 -0.0313642 -1.195 0.10933 -0.0305742 -1.18684 
0.434119 -0.0320656 -1.17835 0.157825 -0.0136591 -1.195 0.290901 -0.0449983 -1.195 
0.381398 -0.0193492 -1.18687 0.0935222 -0.0330533 -1.17944 0.162828 -0.0197922 -1.18889 
0.114416 -0.0049941 -1.18657 0.0623777 -0.00499677 -1.18107 0.213419 -0.00499768 -1.195 
0.279285 -0.0233207 -1.19501 0.152826 -0.00499832 -1.195 0.280921 -0.0445948 -1.195 
0.343053 -0.0148045 -1.195 0.0736319 -0.0290778 -1.18806 0.270941 -0.0450018 -1.195 
0.0959194 -0.007881 -1.17818 0.187684 -0.0163926 -1.195 0.432562 -0.0125796 -1.18843 
0.341142 -0.00499595 -1.195 0.102501 -0.036343 -1.18236 0.199588 -0.0258717 -1.195 
0.206025 -0.0405921 -1.18755 0.201033 -0.0450018 -1.195 0.227316 -0.0182968 -1.195 
0.331142 -0.00509092 -1.195 0.215914 -0.0358612 -1.195 0.180376 -0.0232175 -1.195 
0.142801 -0.0222994 -1.195 0.097627 -0.0295574 -1.18786 0.300893 -0.0449992 -1.195 
0.0719586 -0.0450024 -1.18638 0.39639 -0.00504102 -1.195 0.217262 -0.0183334 -1.195 
0.246178 -0.0136492 -1.195 0.137803 -0.00785762 -1.18684 0.11916 -0.0288325 -1.18632 
0.142719 -0.0450039 -1.1866 0.132759 -0.0222824 -1.195 0.24098 -0.045003 -1.195 
0.0666194 -0.0275243 -1.19501 0.100921 -0.0049984 -1.18635 0.19342 -0.00499933 -1.195 
0.178122 -0.00758298 -1.18693 0.254923 -0.0184963 -1.195 0.255967 -0.0363218 -1.195 
0.311146 -0.00538792 -1.195 0.151107 -0.0450056 -1.195 0.133051 -0.0278762 -1.18672 
0.124327 -0.0450021 -1.195 0.391237 -0.0137386 -1.195 0.291169 -0.00503619 -1.195 
0.11435 -0.0196931 -1.18637 0.434625 -0.028122 -1.18907 0.142805 -0.0165249 -1.18684 
0.208104 -0.0349645 -0.245002 0.272405 -0.0381825 -1.18738 0.301154 -0.00500018 -1.195 
0.365899 -0.0189944 -1.18836 0.276216 -0.00884041 -1.18723 0.0823817 -0.0269172 -1.17784 
0.335774 -0.0362932 -1.195 0.00499896 -0.0422457 -1.17069 0.0854414 -0.0396145 -1.19501 
0.349511 -0.0399889 -1.195 0.0555796 -0.0368117 -1.16878 0.147817 -0.0136511 -1.195 
0.142812 -0.00499656 -1.195 0.172824 -0.00499751 -1.195 0.249971 -0.0271806 -1.195 
0.261211 -0.00499894 -1.195 0.388384 -0.0321757 -1.18439 0.10934 -0.0363411 -1.195 
0.28927 -0.0258143 -1.195 0.245968 -0.0363405 -1.195 0.318211 -0.0265849 -1.195 
0.0853516 -0.0450082 -1.18659 0.281186 -0.00499919 -1.195 0.240971 -0.0302156 -1.18888 
0.124343 -0.0276819 -1.195 0.260956 -0.0449997 -1.195 0.474077 -0.028994 -1.18723 
0.124411 -0.0208065 -1.18351 0.241185 -0.0223135 -1.195 0.161354 -0.0362251 -1.18638 
0.17108 -0.0450019 -1.195 0.211018 -0.0450007 -1.195 0.271203 -0.00499986 -1.195 
0.323577 -0.0181474 -1.195 0.397467 -0.0303125 -1.18812 0.216003 -0.0417999 -1.18695 
0.161094 -0.0450003 -1.195 0.325781 -0.0362694 -1.195 0.304114 -0.0145839 -1.195 
0.375546 -0.010033 -1.18635 0.221127 -0.0332143 -1.18683 0.137798 -0.013646 -1.195 
0.295817 -0.0362811 -1.195 0.284114 -0.0145634 -1.195 0.241166 -0.00499771 -1.195 
0.208423 -0.0136579 -1.195 0.203934 -0.0197123 -1.18843 0.0993413 -0.0363354 -1.195 
0.222258 -0.00967152 -1.195 0.152819 -0.016542 -1.18684 0.129338 -0.0363405 -1.195 
0.43722 -0.0175687 -1.18108 0.250969 -0.0449992 -1.195 0.19842 -0.0084452 -1.18706 
0.134323 -0.0450051 -1.195 0.429398 -0.0362475 -1.18651 0.259973 -0.0271655 -1.19501 
0.149462 -0.0377291 -1.18784 0.359402 -0.0124352 -1.195 0.269289 -0.0235322 -1.195 
0.368753 -0.038859 -1.18713 0.154504 -0.0290895 -1.18785 0.181063 -0.0450028 -1.195 
0.0859158 -0.00787836 -1.17818 0.195723 -0.036162 -1.195 0.37245 -0.0262516 -1.18622 
0.166146 -0.0450007 -1.18631 0.221348 -0.027459 -1.195 0.384968 -0.038986 -1.19086 
0.175481 -0.0319359 -1.195 0.320388 -0.011938 -1.18783 0.222299 -0.0215555 -1.18699 
0.193983 -0.0206881 -1.18853 0.450837 -0.0378035 -1.18202 0.166418 -0.0361588 -1.195 
0.186049 -0.0419819 -1.18688 0.225972 -0.0363244 -1.195 0.0909186 -0.00499716 -1.18635 
0.299133 -0.0197411 -1.18803 0.299301 -0.0269064 -1.195 0.276246 -0.0328542 -1.19496 
0.450643 -0.0300565 -1.18833 0.0732727 -0.0233351 -1.17988 0.211387 -0.0310519 -1.18748 
0.251199 -0.00499989 -1.195 0.308692 -0.0234744 -1.195 0.147819 -0.00787362 -1.18684 
0.102695 -0.0209428 -1.18779 0.12777 -0.013635 -1.195 0.475094 -0.0214193 -1.18079 
0.232322 -0.0269524 -1.195 0.461416 -0.0283332 -1.18562 0.11433 -0.0450025 -1.195 
0.449911 -0.021118 -1.18392 0.170376 -0.0233278 -1.195 0.215307 -0.0116758 -1.18781 
0.119348 -0.019023 -1.195 0.26412 -0.0145776 -1.195 0.310884 -0.0450006 -1.195 
0.19846 -0.0145167 -1.195 0.320876 -0.0449864 -1.195 
VERTICES 500 1000
1 0 
1 1 
1 2 
1 3 
1 4 
1 5 
1 6 
1 7 
1 8 
1 9 
1 10 
1 11 
1 12 
1 13 
1 14 
1 15 
1 16 
1 17 
1 18 
1 19 
1 20 
1 21 
1 22 
1 23 
1 24 
1 25 
1 26 
1 27 
1 28 
1 29 
1 30 
1 31 
1 32 
1 33 
1 34 
1 35 
1 36 
1 37 
1 38 
1 39 
1 40 
1 41 
1 42 
1 43 
1 44 
1 45 
1 46 
1 47 
1 48 
1 49 
1 50 
1 51 
1 52 
1 53 
1 54 
1 55 
1 56 
1 57 
1 58 
1 59 
1 60 
1 61 
1 62 
1 63 
1 64 
1 65 
1 66 
1 67 
1 68 
1 69 
1 70 
1 71 
1 72 
1 73 
1 74 
1 75 
1 76 
1 77 
1 78 
1 79 
1 80 
1 81 
1 82 
1 83 
1 84 
1 85 
1 86 
1 87 
1 88 
1 89 
1 90 
1 91 
1 92 
1 93 
1 94 
1 95 
1 96 
1 97 
1 98 
1 99 
1 100 
1 101 
1 102 
1 103 
1 104 
1 105 
1 106 
1 107 
1 108 
1 109 
1 110 
1 111 
1 112 
1 113 
1 114 
1 115 
1 116 
1 117 
1 118 
1 119 
1 120 
1 121 
1 122 
1 123 
1 124 
1 125 
1 126 
1 127 
1 128 
1 129 
1 130 
1 131 
1 132 
1 133 
1 134 
1 135 
1 136 
1 137 
1 138 
1 139 
1 140 
1 141 
1 142 
1 143 
1 144 
1 145 
1 146 
1 147 
1 148 
1 149 
1 150 
1 151 
1 152 
1 153 
1 154 
1 155 
1 156 
1 157 
1 158 
1 159 
1 160 
1 161 
1 162 
1 163 
1 164 
1 165 
1 166 
1 167 
1 168 
1 169 
1 170 
1 171 
1 172 
1 173 
1 174 
1 175 
1 176 
1 177 
1 178 
1 179 
1 180 
1 181 
1 182 
1 183 
1 184 
1 185 
1 186 
1 187 
1 188 
1 189 
1 190 
1 191 
1 192 
1 193 
1 194 
1 195 
1 196 
1 197 
1 198 
1 199 
1 200 
1 201 
1 202 
1 203 
1 204 
1 205 
1 206 
1 207 
1 208 
1 209 
1 210 
1 211 
1 212 
1 213 
1 214 
1 215 
1 216 
1 217 
1 218 
1 219 
1 220 
1 221 
1 222 
1 223 
1 224 
1 225 
1 226 
1 227 
1 228 
1 229 
1 230 
1 231 
1 232 
1 233 
1 234 
1 235 
1 236 
1 237 
1 238 
1 239 
1 240 
1 241 
1 242 
1 243 
1 244 
1 245 
1 246 
1 247 
1 248 
1 249 
1 250 
1 251 
1 252 
1 253 
1 254 
1 255 
1 256 
1 257 
1 258 
1 259 
1 260 
1 261 
1 262 
1 263 
1 264 
1 265 
1 266 
1 267 
1 268 
1 269 
1 270 
1 271 
1 272 
1 273 
1 274 
1 275 
1 276 
1 277 
1 278 
1 279 
1 280 
1 281 
1 282 
1 283 
1 284 
1 285 
1 286 
1 287 
1 288 
1 289 
1 290 
1 291 
1 292 
1 293 
1 294 
1 295 
1 296 
1 297 
1 298 
1 299 
1 300 
1 301 
1 302 
1 303 
1 304 
1 305 
1 306 
1 307 
1 308 
1 309 
1 310 
1 311 
1 312 
1 313 
1 314 
1 315 
1 316 
1 317 
1 318 
1 319 
1 320 
1 321 
1 322 
1 323 
1 324 
1 325 
1 326 
1 327 
1 328 
1 329 
1 330 
1 331 
1 332 
1 333 
1 334 
1 335 
1 336 
1 337 
1 338 
1 339 
1 340 
1 341 
1 342 
1 343 
1 344 
1 345 
1 346 
1 347 
1 348 
1 349 
1 350 
1 351 
1 352 
1 353 
1 354 
1 355 
1 356 
1 357 
1 358 
1 359 
1 360 
1 361 
1 362 
1 363 
1 364 
1 365 
1 366 
1 367 
1 368 
1 369 
1 370 
1 371 
1 372 
1 373 
1 374 
1 375 
1 376 
1 377 
1 378 
1 379 
1 380 
1 381 
1 382 
1 383 
1 384 
1 385 
1 386 
1 387 
1 388 
1 389 
1 390 
1 391 
1 392 
1 393 
1 394 
1 395 
1 396 
1 397 
1 398 
1 399 
1 400 
1 401 
1 402 
1 403 
1 404 
1 405 
1 406 
1 407 
1 408 
1 409 
1 410 
1 411 
1 412 
1 413 
1 414 
1 415 
1 416 
1 417 
1 418 
1 419 
1 420 
1 421 
1 422 
1 423 
1 424 
1 425 
1 426 
1 427 
1 428 
1 429 
1 430 
1 431 
1 432 
1 433 
1 434 
1 435 
1 436 
1 437 
1 438 
1 439 
1 440 
1 441 
1 442 
1 443 
1 444 
1 445 
1 446 
1 447 
1 448 
1 449 
1 450 
1 451 
1 452 
1 453 
1 454 
1 455 
1 456 
1 457 
1 458 
1 459 
1 460 
1 461 
1 462 
1 463 
1 464 
1 465 
1 466 
1 467 
1 468 
1 469 
1 470 
1 471 
1 472 
1 473 
1 474 
1 475 
1 476 
1 477 
1 478 
1 479 
1 480 
1 481 
1 482 
1 483 
1 484 
1 485 
1 486 
1 487 
1 488 
1 489 
1 490 
1 491 
1 492 
1 493 
1 494 
1 495 
1 496 
1 497 
1 498 
1 499 

POINT_DATA 500
FIELD FieldData 7
id 1 500 int
1 2 3 4 5 6 7 8 9 
10 11 12 13 14 15 16 17 18 
19 20 21 22 23 24 25 26 27 
28 29 30 31 32 33 34 35 36 
37 38 39 40 41 42 43 44 45 
46 47 48 49 50 51 52 53 54 
55 56 57 58 59 60 61 62 63 
64 65 66 67 68 69 70 71 72 
73 74 75 76 77 78 79 80 81 
82 83 84 85 86 87 88 89 90 
91 92 93 94 95 96 97 98 99 
100 101 102 103 104 105 106 107 108 
109 110 111 112 113 114 115 116 117 
118 119 120 121 122 123 124 125 126 
127 128 129 130 131 132 133 134 135 
136 137 138 139 140 141 142 143 144 
145 146 147 148 149 150 151 152 153 
154 155 156 157 158 159 160 161 162 
163 164 165 166 167 168 169 170 171 
172 173 174 175 176 177 178 179 180 
181 182 183 184 185 186 187 188 189 
190 191 192 193 194 195 196 197 198 
199 200 201 202 203 204 205 206 207 
208 209 210 211 212 213 214 215 216 
217 218 219 220 221 222 223 224 225 
226 227 228 229 230 231 232 233 234 
235 236 237 238 239 240 241 242 243 
244 245 246 247 248 249 250 251 252 
253 254 255 256 257 258 259 260 261 
262 263 264 265 266 267 268 269 270 
271 272 273 274 275 276 277 278 279 
280 281 282 283 284 285 286 287 288 
289 290 291 292 293 294 295 296 297 
298 299 300 301 302 303 304 305 306 
307 308 309 310 311 312 313 314 315 
316 317 318 319 320 321 322 323 324 
325 326 327 328 329 330 331 332 333 
334 335 336 337 338 339 340 341 342 
343 344 345 346 347 348 349 350 351 
352 353 354 355 356 357 358 359 360 
361 362 363 364 365 366 367 368 369 
370 371 372 373 374 375 376 377 378 
379 380 381 382 383 384 385 386 387 
388 389 390 391 392 393 394 395 396 
397 398 399 400 401 402 403 404 405 
406 407 408 409 410 411 412 413 414 
415 416 417 418 419 420 421 422 423 
424 425 426 427 428 429 430 431 432 
433 434 435 436 437 438 439 440 441 
442 443 444 445 446 447 448 449 450 
451 452 453 454 455 456 457 458 459 
460 461 462 463 464 465 466 467 468 
469 470 471 472 473 474 475 476 477 
478 479 480 481 482 483 484 485 486 
487 488 489 490 491 492 493 494 495 
496 497 498 499 500 
type 1 500 int
1 1 1 1 1 1 1 1 1 
1 1 1 1 1 1 1 1 1 
1 1 1 1 1 1 1 1 1 
1 1 1 1 1 1 1 1 1 
1 1 1 1 1 1 1 1 1 
1 1 1 1 1 1 1 1 1 
1 1 1 1 1 1 1 1 1 
1 1 1 1 1 1 1 1 1 
1 1 1 1 1 1 1 1 1 
1 1 1 1 1 1 1 1 1 
1 1 1 1 1 1 1 1 1 
1 1 1 1 1 1 1 1 1 
1 1 1 1 1 1 1 1 1 
1 1 1 1 1 1 1 1 1 
1 1 1 1 1 1 1 1 1 
1 1 1 1 1 1 1 1 1 
1 1 1 1 1 1 1 1 1 
1 1 1 1 1 1 1 1 1 
1 1 1 1 1 1 1 1 1 
1 1 1 1 1 1 1 1 1 
1 1 1 1 1 1 1 1 1 
1 1 1 1 1 1 1 1 1 
1 1 1 1 1 1 1 1 1 
1 1 1 1 1 1 1 1 1 
1 1 1 1 1 1 1 1 1 
1 1 1 1 1 1 1 1 1 
1 1 1 1 1 1 1 1 1 
1 1 1 1 1 1 1 1 1 
1 1 1 1 1 1 1 1 1 
1 1 1 1 1 1 1 1 1 
1 1 1 1 1 1 1 1 1 
1 1 1 1 1 1 1 1 1 
1 1 1 1 1 1 1 1 1 
1 1 1 1 1 1 1 1 1 
1 1 1 1 1 1 1 1 1 
1 1 1 1 1 1 1 1 1 
1 1 1 1 1 1 1 1 1 
1 1 1 1 1 1 1 1 1 
1 1 1 1 1 1 1 1 1 
1 1 1 1 1 1 1 1 1 
1 1 1 1 1 1 1 1 1 
1 1 1 1 1 1 1 1 1 
1 1 1 1 1 1 1 1 1 
1 1 1 1 1 1 1 1 1 
1 1 1 1 1 1 1 1 1 
1 1 1 1 1 1 1 1 1 
1 1 1 1 1 1 1 1 1 
1 1 1 1 1 1 1 1 1 
1 1 1 1 1 1 1 1 1 
1 1 1 1 1 1 1 1 1 
1 1 1 1 1 1 1 1 1 
1 1 1 1 1 1 1 1 1 
1 1 1 1 1 1 1 1 1 
1 1 1 1 1 1 1 1 1 
1 1 1 1 1 1 1 1 1 
1 1 1 1 1 
i 3 500 int
0 0 0 0 0 0 0 0 0 
0 0 0 0 0 0 0 0 0 
0 0 0 0 0 0 0 0 0 
0 0 0 0 0 0 0 0 0 
0 0 0 0 0 0 0 0 0 
0 0 0 0 0 0 0 0 0 
0 0 0 0 0 0 0 0 0 
0 0 0 0 0 0 0 0 0 
0 0 0 0 0 0 0 0 0 
0 0 0 0 0 0 0 0 0 
0 0 0 0 0 0 0 0 0 
0 0 0 0 0 0 0 0 0 
0 0 0 0 0 0 0 0 0 
0 0 0 0 0 0 0 0 0 
0 0 0 0 0 0 0 0 0 
0 0 0 0 0 0 0 0 0 
0 0 0 0 0 0 0 0 0 
0 0 0 0 0 0 0 0 0 
0 0 0 0 0 0 0 0 0 
0 0 0 0 0 0 0 0 0 
0 0 0 0 0 0 0 0 0 
0 0 0 0 0 0 0 0 0 
0 0 0 0 0 0 0 0 0 
0 0 0 0 0 0 0 0 0 
0 0 0 0 0 0 0 0 0 
0 0 0 0 0 0 0 0 0 
0 0 0 0 0 0 0 0 0 
0 0 0 0 0 0 0 0 0 
0 0 0 0 0 0 0 0 0 
0 0 0 0 0 0 0 0 0 
0 0 0 0 0 0 0 0 0 
0 0 0 0 0 0 0 0 0 
0 0 0 0 0 0 0 0 0 
0 0 0 0 0 0 0 0 0 
0 0 0 0 0 0 0 0 0 
0 0 0 0 0 0 0 0 0 
0 0 0 0 0 0 0 0 0 
0 0 0 0 0 0 0 0 0 
0 0 0 0 0 0 0 0 0 
0 0 0 0 0 0 0 0 0 
0 0 0 0 0 0 0 0 0 
0 0 0 0 0 0 0 0 0 
0 0 0 0 0 0 0 0 0 
0 0 0 0 0 0 0 0 0 
0 0 0 0 0 0 0 0 0 
0 0 0 0 0 0 0 0 0 
0 0 0 0 0 0 0 0 0 
0 0 0 0 0 0 0 0 0 
0 0 0 0 0 0 0 0 0 
0 0 0 0 0 0 0 0 0 
0 0 0 0 0 0 0 0 0 
0 0 0 0 0 0 0 0 0 
0 0 0 0 0 0 0 0 0 
0 0 0 0 0 0 0 0 0 
0 0 0 0 0 0 0 0 0 
0 0 0 0 0 0 0 0 0 
0 0 0 0 0 0 0 0 0 
0 0 0 0 0 0 0 0 0 
0 0 0 0 0 0 0 0 0 
0 0 0 0 0 0 0 0 0 
0 0 0 0 0 0 0 0 0 
0 0 0 0 0 0 0 0 0 
0 0 0 0 0 0 0 0 0 
0 0 0 0 0 0 0 0 0 
0 0 0 0 0 0 0 0 0 
0 0 0 0 0 0 0 0 0 
0 0 0 0 0 0 0 0 0 
0 0 0 0 0 0 0 0 0 
0 0 0 0 0 0 0 0 0 
0 0 0 0 0 0 0 0 0 
0 0 0 0 0 0 0 0 0 
0 0 0 0 0 0 0 0 0 
0 0 0 0 0 0 0 0 0 
0 0 0 0 0 0 0 0 0 
0 0 0 0 0 0 0 0 0 
0 0 0 0 0 0 0 0 0 
0 0 0 0 0 0 0 0 0 
0 0 0 0 0 0 0 0 0 
0 0 0 0 0 0 0 0 0 
0 0 0 0 0 0 0 0 0 
0 0 0 0 0 0 0 0 0 
0 0 0 0 0 0 0 0 0 
0 0 0 0 0 0 0 0 0 
0 0 0 0 0 0 0 0 0 
0 0 0 0 0 0 0 0 0 
0 0 0 0 0 0 0 0 0 
0 0 0 0 0 0 0 0 0 
0 0 0 0 0 0 0 0 0 
0 0 0 0 0 0 0 0 0 
0 0 0 0 0 0 0 0 0 
0 0 0 0 0 0 0 0 0 
0 0 0 0 0 0 0 0 0 
0 0 0 0 0 0 0 0 0 
0 0 0 0 0 0 0 0 0 
0 0 0 0 0 0 0 0 0 
0 0 0 0 0 0 0 0 0 
0 0 0 0 0 0 0 0 0 
0 0 0 0 0 0 0 0 0 
0 0 0 0 0 0 0 0 0 
0 0 0 0 0 0 0 0 0 
0 0 0 0 0 0 0 0 0 
0 0 0 0 0 0 0 0 0 
0 0 0 0 0 0 0 0 0 
0 0 0 0 0 0 0 0 0 
0 0 0 0 0 0 0 0 0 
0 0 0 0 0 0 0 0 0 
0 0 0 0 0 0 0 0 0 
0 0 0 0 0 0 0 0 0 
0 0 0 0 0 0 0 0 0 
0 0 0 0 0 0 0 0 0 
0 0 0 0 0 0 0 0 0 
0 0 0 0 0 0 0 0 0 
0 0 0 0 0 0 0 0 0 
0 0 0 0 0 0 0 0 0 
0 0 0 0 0 0 0 0 0 
0 0 0 0 0 0 0 0 0 
0 0 0 0 0 0 0 0 0 
0 0 0 0 0 0 0 0 0 
0 0 0 0 0 0 0 0 0 
0 0 0 0 0 0 0 0 0 
0 0 0 0 0 0 0 0 0 
0 0 0 0 0 0 0 0 0 
0 0 0 0 0 0 0 0 0 
0 0 0 0 0 0 0 0 0 
0 0 0 0 0 0 0 0 0 
0 0 0 0 0 0 0 0 0 
0 0 0 0 0 0 0 0 0 
0 0 0 0 0 0 0 0 0 
0 0 0 0 0 0 0 0 0 
0 0 0 0 0 0 0 0 0 
0 0 0 0 0 0 0 0 0 
0 0 0 0 0 0 0 0 0 
0 0 0 0 0 0 0 0 0 
0 0 0 0 0 0 0 0 0 
0 0 0 0 0 0 0 0 0 
0 0 0 0 0 0 0 0 0 
0 0 0 0 0 0 0 0 0 
0 0 0 0 0 0 0 0 0 
0 0 0 0 0 0 0 0 0 
0 0 0 0 0 0 0 0 0 
0 0 0 0 0 0 0 0 0 
0 0 0 0 0 0 0 0 0 
0 0 0 0 0 0 0 0 0 
0 0 0 0 0 0 0 0 0 
0 0 0 0 0 0 0 0 0 
0 0 0 0 0 0 0 0 0 
0 0 0 0 0 0 0 0 0 
0 0 0 0 0 0 0 0 0 
0 0 0 0 0 0 0 0 0 
0 0 0 0 0 0 0 0 0 
0 0 0 0 0 0 0 0 0 
0 0 0 0 0 0 0 0 0 
0 0 0 0 0 0 0 0 0 
0 0 0 0 0 0 0 0 0 
0 0 0 0 0 0 0 0 0 
0 0 0 0 0 0 0 0 0 
0 0 0 0 0 0 0 0 0 
0 0 0 0 0 0 0 0 0 
0 0 0 0 0 0 0 0 0 
0 0 0 0 0 0 0 0 0 
0 0 0 0 0 0 0 0 0 
0 0 0 0 0 0 0 0 0 
0 0 0 0 0 0 0 0 0 
0 0 0 0 0 0 0 0 0 
0 0 0 0 0 0 0 0 0 
0 0 0 0 0 0 0 0 0 
0 0 0 0 0 0 
v 3 500 double
-0.0396155 0.00537204 -0.00140224 -0.0335795 -0.00450437 -0.00448884 -2.31364e-05 1.90467e-05 -1.52125e-05 
0.000184316 1.56944e-05 -0.000118197 3.83194e-05 -5.4702e-05 -7.92343e-05 -6.35648e-05 1.04875e-06 -0.000404554 
3.68484e-05 -0.000177845 -2.90041e-05 4.00612e-05 -4.7889e-06 4.05237e-05 0.000295308 -8.37061e-05 -3.51444e-06 
0.00104524 0.00200851 8.39688e-05 0.0112088 -0.00207927 0.000259897 0.000381016 -0.000301196 -0.00115029 
0.000144941 -4.72719e-05 -0.000307139 -0.0432732 -0.00304801 -0.00268236 2.54273e-06 0.000148074 -0.000187519 
-0.0033796 -0.00832172 -0.000758325 -5.29979e-05 -9.12168e-06 7.94429e-05 0.000238493 -0.000186223 7.13942e-05 
2.10124e-05 -0.00019023 -1.21676e-05 -0.00305485 -0.00199437 -0.00331868 0.000219662 -3.02908e-06 -5.35117e-05 
0.00193221 -0.000847141 5.57849e-05 0.000137603 -0.000291998 7.69897e-05 8.73624e-05 -1.82396e-05 2.66569e-05 
0.00464778 0.00167574 0.00228897 -0.0446826 0.000608323 0.00628417 0.000900064 -0.00207995 -0.00189906 
-0.00794304 -0.00864916 -0.00515229 0.00634597 0.00716177 0.00202958 0.000301683 -5.80777e-05 7.55496e-06 
-0.000130687 -4.5544e-05 -4.16922e-05 -0.0253064 0.0166488 -0.00253036 0.0100754 -0.01771 -0.0170349 
-0.0148622 0.0116199 -0.00255071 0.0026994 0.00057144 -8.41174e-05 -2.81726e-05 -0.000124673 -6.43286e-05 
-0.0211702 0.00475269 -0.00822258 -4.28174e-06 -1.19861e-05 -5.0537e-06 -4.5307e-06 -1.2789e-05 -6.92648e-05 
-0.000879263 -0.000692816 -0.00035437 0.0182531 0.0104118 2.87617e-05 0.00083177 -0.000285182 -1.89291e-05 
-0.000815271 0.000223607 -0.000276783 -0.0228929 0.00674711 -0.0101946 0.00153866 -0.000215963 0.000142012 
-0.0175953 0.0124623 0.000264145 -2.08721e-05 -7.19875e-06 -5.88875e-05 -1.22737e-05 1.93509e-05 -1.23352e-05 
-0.00226277 -5.68151e-07 0.000523552 -0.0472021 -0.0399065 -0.0116407 -0.0198407 -0.000975246 -0.000289412 
0.000706254 -0.000679752 -0.000793393 -1.88997e-05 1.4547e-05 -1.38312e-05 4.83806e-06 2.3012e-05 -1.97336e-05 
4.19731e-05 1.14768e-06 -9.54811e-05 -2.00995e-05 6.85961e-06 -2.26785e-06 0.000326626 -0.000207592 3.86322e-05 
0.000371586 0.00022496 -0.000217903 -4.81455e-06 1.01284e-05 5.15401e-06 7.75327e-05 -4.11999e-05 -5.01082e-05 
-7.13608e-05 -1.46743e-06 -1.68969e-05 0.00473685 0.00742287 0.00418824 -5.33028e-05 -5.38196e-05 -9.97972e-05 
-3.70651e-06 -0.000154261 -3.17488e-05 0.000512177 1.54809e-05 2.82505e-05 -0.0102869 -0.0140129 0.00416881 
-0.0356958 -0.0454865 -0.0243731 -0.0149642 0.0959342 0.000415756 -0.00728415 -0.00252037 0.00825219 
-4.94149e-06 2.76041e-05 2.78841e-06 0.000182874 -0.00131746 -0.000274408 -0.0276263 -0.00253347 -0.00951131 
6.08993e-05 -0.000238985 -0.000339698 0.000135045 0.00032338 -5.49006e-05 0.000142957 6.24062e-06 -8.92367e-05 
0.000124335 -0.000131806 -2.38099e-05 -5.52411e-05 1.54909e-05 6.70922e-06 -0.0113812 -0.00253734 -0.0252425 
-0.034761 -0.0219128 -0.000514966 -0.0035517 -0.00146192 -5.81643e-05 4.52965e-05 -6.02191e-05 0.00019511 
-4.54906e-05 -4.34888e-05 1.24555e-05 -0.0334875 0.0067899 -0.00307762 7.68609e-06 1.60553e-05 -3.3059e-07 
0.000536829 0.00873764 0.00107451 0.000258188 1.43473e-05 -5.46732e-05 -7.51814e-05 1.07808e-05 -3.44242e-05 
0.00163544 -0.0860924 0.0108342 -0.0358846 0.086442 -0.00983988 -1.39881e-06 5.17965e-06 -8.6367e-06 
0.000282465 -6.28438e-05 -3.53646e-06 -0.0329928 -0.0775038 -0.131463 -0.000857693 1.66159e-05 -0.000195068 
-8.01533e-06 1.38248e-05 -3.43909e-05 -3.31713e-06 -1.21139e-06 -4.88126e-06 9.49586e-05 -7.06607e-05 -7.51208e-05 
0.00098609 -0.000544373 -0.000331685 0.000295043 -0.000122857 1.30358e-05 0.00253734 0.000546271 -0.000183525 
0.00043369 2.09158e-05 2.09725e-05 0.00026678 -0.000209753 5.01203e-05 0.00178269 4.01565e-05 2.74489e-13 
-0.000138556 0.000166274 -0.000240876 -0.00508618 0.0103442 -0.00804447 0.00267377 0.0113364 0.000127057 
0.2204 -0.296603 -0.559627 0.00208603 0.00034301 3.51662e-05 0.000933542 3.91642e-05 -5.10951e-05 
0.000670207 -4.10193e-05 -0.000274132 0.000117885 -0.000206564 -3.91295e-05 0.00218509 6.03848e-05 -2.62345e-06 
0.000171587 0.000105376 -0.000122761 -0.000642237 -0.000848575 -0.00027505 -0.0113601 -0.000397407 0.00146667 
0.00030553 0.000166588 8.61441e-07 -0.000171225 -0.000365539 4.75935e-06 0.0024135 0.00280415 0.000403654 
-0.0328072 -0.000922394 0.00853178 0.00190714 -0.00157371 -0.00679078 0.00035573 -1.98568e-05 -5.71478e-05 
0.00298248 -0.00449061 -0.000567006 -0.00877567 -0.00795141 -0.00486232 -0.0336117 0.0221963 -0.00207546 
-0.00201875 0.00137619 0.000230929 -0.00128085 0.00201479 -0.000204957 8.94172e-06 -6.80817e-06 4.8489e-05 
0.000464821 0.000976332 1.88429e-12 -0.0171095 -0.0050766 -0.00195292 -0.00258622 -0.00157988 0.000180028 
-3.85523e-05 1.21982e-06 -2.45313e-05 0.000143677 -7.81332e-05 -0.000222461 0.000115831 -0.00161515 -0.000101468 
8.41462e-05 -2.36119e-05 2.46885e-05 7.78416e-06 -2.63062e-05 2.76702e-05 0.000338978 4.92288e-05 5.50173e-06 
-0.0987636 -0.00568649 -0.00545617 -0.000163398 7.09564e-06 -0.000158126 -0.00319777 -0.00236926 0.000907306 
-0.0121473 0.00298716 -0.00542551 0.00226179 0.000325255 -1.13027e-05 -0.0351625 0.000299677 0.00147428 
-0.001753 0.0722242 -0.0436168 -0.000511679 -0.00337167 0.000124042 0.0212504 -0.0117958 -0.0191267 
-0.000960308 0.000634462 -0.000335939 -0.0303289 0.00373129 -0.00155461 0.000102855 -4.03062e-06 -5.72459e-05 
0.00027022 -6.62606e-05 1.97925e-05 -0.0235949 0.00778759 0.00114113 0.00178957 6.58867e-05 3.77552e-05 
0.000286315 -5.73311e-05 3.66366e-05 -0.0548851 -0.00263779 0.0106416 -1.72932e-05 -7.14765e-06 -1.26041e-05 
-0.0131625 0.00235399 0.00203927 0.00531749 0.000409732 0.0002515 -0.0213304 0.0216216 0.00775834 
-2.11649e-05 -0.000505364 5.4629e-06 -0.000894988 -8.81779e-05 -0.00190263 -3.15145e-05 2.12605e-05 5.38166e-06 