# vtk DataFile Version 4.0
Generated by LIGGGHTS
ASCII
DATASET POLYDATA
POINTS 500 float
0.430674 -0.0450036 -1.17866 0.431466 -0.0383046 -1.17128 0.00498473 -0.0250437 -1.19501 
0.0345158 -0.0206706 -1.17495 0.00979873 -0.023731 -1.16663 0.0291742 -0.00499748 -1.16881 
0.0393278 -0.0371337 -1.18341 0.0219984 -0.036115 -1.16057 0.0741794 -0.016714 -1.17861 
0.474155 -0.0164591 -1.17802 0.388969 -0.0431937 -1.16808 0.465946 -0.0119652 -1.19501 
0.0231199 -0.0138929 -1.16716 0.391583 -0.00504077 -1.1863 0.0332901 -0.014048 -1.1676 
0.410419 -0.030879 -1.188 0.027138 -0.044967 -1.17918 0.495009 -0.0449859 -1.18173 
0.036594 -0.035417 -1.19501 0.4831 -0.014538 -1.18645 0.00495839 -0.0155184 -1.16952 
0.225027 -0.0288322 -1.19498 0.494743 -0.0449885 -1.195 0.0513931 -0.00501814 -1.18636 
0.292545 -0.0325081 -1.17873 0.406771 -0.0443877 -1.17946 0.485555 -0.0286411 -1.19171 
0.460857 -0.0446021 -1.195 0.392941 -0.0230666 -1.16884 0.0896732 -0.0138394 -1.18523 
0.0327478 -0.0205751 -1.18746 0.448373 -0.0449677 -1.18524 0.425539 -0.0114433 -1.17834 
0.464465 -0.0201327 -1.18944 0.286759 -0.0327205 -1.19393 0.0301427 -0.0338017 -1.18755 
0.418237 -0.00502146 -1.195 0.0150211 -0.0450036 -1.195 0.0315816 -0.0403542 -1.17146 
0.493607 -0.00991122 -1.18643 0.216381 -0.0298602 -0.245002 0.119688 -0.0243776 -1.19291 
0.0629784 -0.0073417 -1.17019 0.427808 -0.0363433 -1.18275 0.118885 -0.0345951 -1.19455 
0.469 -0.0356233 -1.19503 0.00499988 -0.0369027 -1.17911 0.00499988 -0.0200239 -1.18638 
0.487387 -0.0450319 -1.18819 0.438392 -0.0234897 -1.18686 0.406666 -0.00500785 -1.19501 
0.48003 -0.0448555 -1.19501 0.0205758 -0.00498619 -1.18675 0.0560903 -0.0424513 -1.17082 
0.00609325 -0.0239845 -1.17726 0.0149362 -0.0364225 -1.17587 0.0811283 -0.0275096 -1.19488 
0.0658601 -0.0181329 -1.1728 0.0134167 -0.00771492 -1.18034 0.0332918 -0.0304919 -1.16926 
0.0235831 -0.0361876 -1.19483 0.452545 -0.0351464 -1.195 0.0145545 -0.0165438 -1.17297 
0.0414025 -0.019966 -1.18255 0.0733407 -0.0449837 -1.17221 0.435711 -0.0117489 -1.19501 
0.440613 -0.0308923 -1.17244 0.456113 -0.0346647 -1.16619 0.443166 -0.00506191 -1.195 
0.00509479 -0.0131023 -1.17918 0.487435 -0.0378202 -1.19505 0.492114 -0.0203357 -1.18708 
0.0396381 -0.0127335 -1.18952 0.01389 -0.020552 -1.195 0.0485428 -0.0437851 -1.17733 
0.054171 -0.0216651 -1.18232 0.0178531 -0.00501476 -1.1718 0.428826 -0.0114008 -1.16889 
0.420351 -0.0311151 -1.18691 0.494641 -0.0375262 -1.17508 0.0414825 -0.0353843 -1.17383 
0.0252209 -0.025685 -1.18251 0.44971 -0.0191683 -1.1873 0.00548464 -0.00499788 -1.17333 
0.359973 -0.0423831 -0.657302 0.0541798 -0.0354491 -1.1778 0.020515 -0.0349623 -1.18514 
0.381744 -0.0368509 -1.19449 0.443666 -0.0419688 -1.17667 0.00500126 -0.0049953 -1.18501 
0.0459006 -0.0317514 -1.195 0.407211 -0.00600089 -1.1679 0.037913 -0.0100451 -1.15922 
0.00498918 -0.0300235 -1.18635 0.00500676 -0.0450112 -1.195 0.0126602 -0.0126498 -1.189 
0.125818 -0.0108968 -1.18667 0.0792791 -0.0136533 -1.18661 0.261126 -0.0413155 -1.19218 
0.0581943 -0.0449918 -1.19497 0.0720684 -0.0230522 -1.195 0.206862 -0.0449712 -0.245002 
0.0141553 -0.0260765 -1.18667 0.464979 -0.0130301 -1.18194 0.374298 -0.0272472 -1.195 
0.404431 -0.0200362 -1.16707 0.105815 -0.0377137 -1.18702 0.157132 -0.0339185 -1.19458 
0.104276 -0.0442296 -1.19499 0.0461101 -0.0286877 -1.1812 0.213489 -0.0150039 -1.18927 
0.0578942 -0.0300712 -1.18625 0.49498 -0.00498763 -1.195 0.412428 -0.0131743 -1.195 
0.0780836 -0.0160103 -1.16944 0.039478 -0.0210594 -1.19502 0.355287 -0.0433045 -1.1742 
0.450962 -0.00498897 -1.18864 0.461604 -0.0450014 -1.18461 0.0498709 -0.0360356 -1.18681 
0.376112 -0.0102806 -1.17657 0.486764 -0.0296218 -1.17573 0.458684 -0.00498844 -1.195 
0.466171 -0.00500644 -1.18782 0.473123 -0.00500509 -1.195 0.031339 -0.00500675 -1.18633 
0.205019 -0.0253217 -0.245002 0.469513 -0.0381866 -1.18479 0.49499 -0.0149787 -1.195 
0.0142173 -0.0449716 -1.18109 0.0348035 -0.012548 -1.18078 0.495014 -0.0286508 -1.19501 
0.0564585 -0.00522245 -1.195 0.0217773 -0.0449842 -1.18763 0.0477492 -0.0149541 -1.195 
0.422705 -0.0214402 -1.18882 0.0186118 -0.0285123 -1.1666 0.336481 -0.00652126 -1.18566 
0.459891 -0.00557554 -1.17441 0.227108 -0.0408589 -1.195 0.442326 -0.0192412 -1.195 
0.469459 -0.0286481 -1.18795 0.485957 -0.00927655 -1.19501 0.419078 -0.0127993 -1.17076 
0.477825 -0.0444969 -1.18529 0.423926 -0.0358204 -1.195 0.0178863 -0.0179086 -1.18229 
0.0558146 -0.021676 -1.195 0.449792 -0.0125955 -1.195 0.134078 -0.0178956 -1.18899 
0.0738806 -0.00499014 -1.18667 0.440176 -0.0439138 -1.19501 0.00499948 -0.0450016 -1.18497 
0.477232 -0.0141392 -1.195 0.356453 -0.0221256 -1.18249 0.456094 -0.0203791 -1.19501 
0.0312835 -0.0269619 -1.195 0.483204 -0.00736337 -1.17869 0.0149787 -0.00500188 -1.19501 
0.476331 -0.0261438 -1.195 0.0050063 -0.035028 -1.195 0.235299 -0.0192106 -1.195 
0.0253952 -0.0340188 -1.17645 0.0258251 -0.0134589 -1.18642 0.0339178 -0.0449112 -1.18661 
0.457708 -0.0127335 -1.18877 0.116984 -0.0196732 -1.18336 0.415842 -0.0449975 -1.17381 
0.0363132 -0.00505099 -1.195 0.0538055 -0.0151114 -1.17293 0.390826 -0.0146416 -1.19495 
0.0206738 -0.0132192 -1.19501 0.454591 -0.0450589 -1.17713 0.48628 -0.0361294 -1.1838 
0.191016 -0.0337957 -1.19499 0.0579725 -0.0267706 -1.17462 0.0829849 -0.017678 -1.195 
0.482472 -0.0243964 -1.18321 0.0167523 -0.0266242 -1.17702 0.0557131 -0.0344573 -1.19499 
0.327186 -0.0252116 -1.19221 0.495005 -0.0373468 -1.18856 0.480266 -0.00500606 -1.18799 
0.00500112 -0.0149848 -1.195 0.0685928 -0.0134778 -1.18636 0.163114 -0.041291 -1.18371 
0.0254623 -0.0244165 -1.17261 0.323516 -0.0095927 -1.18622 0.462023 -0.023157 -1.18022 
0.296006 -0.0115864 -1.18861 0.0285115 -0.0449874 -1.19501 0.405028 -0.0449896 -1.195 
0.40677 -0.0135616 -1.18646 0.004992 -0.00499221 -1.19501 0.114561 -0.0409479 -1.18122 
0.0346888 -0.0442949 -1.15011 0.384591 -0.0242473 -1.17902 0.470446 -0.0450188 -1.19204 
0.206531 -0.0154067 -0.245002 0.495002 -0.0290142 -1.18304 0.0809038 -0.0392179 -1.16918 
0.0487361 -0.0132875 -1.18141 0.450809 -0.0449921 -1.19495 0.460681 -0.0362204 -1.1893 
0.434068 -0.0373398 -1.1906 0.0793409 -0.00499057 -1.19502 0.485819 -0.0192493 -1.19502 
0.478358 -0.0356387 -1.19148 0.00738496 -0.045013 -1.17379 0.0639392 -0.0336679 -1.17915 
0.186185 -0.00930717 -1.19497 0.367013 -0.0368778 -1.19493 0.048763 -0.0416459 -1.19501 
0.0816655 -0.0349691 -1.18757 0.430519 -0.0205984 -1.195 0.311285 -0.0140675 -1.18152 
0.419314 -0.0449921 -1.19501 0.396492 -0.00503196 -1.195 0.0260323 -0.0152557 -1.17661 
0.088168 -0.0434576 -1.18667 0.417763 -0.0051155 -1.1782 0.264239 -0.0444267 -0.299305 
0.443983 -0.0368457 -1.18906 0.088412 -0.0343725 -1.19504 0.0679778 -0.00669764 -1.1788 
0.0981516 -0.0246389 -1.17924 0.411931 -0.00499585 -1.18651 0.129645 -0.00676138 -1.195 
0.412493 -0.0376824 -1.195 0.0384243 -0.0449907 -1.17705 0.0393476 -0.0450105 -1.195 
0.040875 -0.00717086 -1.17387 0.0146966 -0.0315594 -1.19501 0.0263159 -0.00499006 -1.195 
0.0677752 -0.00505263 -1.19498 0.490442 -0.0203192 -1.17722 0.452301 -0.0358344 -1.18357 
0.0389746 -0.0284129 -1.18828 0.0231296 -0.0222816 -1.19164 0.0723846 -0.0268368 -1.15816 
0.0256086 -0.00500478 -1.17813 0.248889 -0.0447218 -1.18959 0.424273 -0.044986 -1.18633 
0.0556548 -0.0136594 -1.18902 0.437038 -0.0323566 -1.18244 0.0730325 -0.00645834 -1.16998 
0.462366 -0.0281623 -1.19501 0.0116721 -0.0383597 -1.18833 0.0606151 -0.0141618 -1.18034 
0.423328 -0.0136223 -1.19502 0.363669 -0.00669658 -0.892637 0.0723535 -0.0450113 -1.19502 
0.0893331 -0.00498843 -1.19496 0.428356 -0.00498667 -1.19501 0.41994 -0.0196904 -1.17935 
0.404535 -0.0315836 -1.17996 0.485598 -0.0446813 -1.17838 0.0994095 -0.00540703 -1.19499 
0.407692 -0.0219552 -1.19499 0.358584 -0.0226979 -0.609114 0.0924898 -0.0144792 -1.19496 
0.126087 -0.0355078 -1.18636 0.0546424 -0.0447567 -1.18554 0.0749688 -0.0353789 -1.19503 
0.0307746 -0.0143269 -1.19502 0.429829 -0.0284456 -1.18857 0.351935 -0.0133234 -1.18377 
0.404224 -0.0386955 -1.18728 0.420556 -0.0362173 -1.17248 0.180297 -0.0180347 -1.19502 
0.435431 -0.00501261 -1.18762 0.100677 -0.0265878 -1.19498 0.0868378 -0.0247101 -1.18571 
0.342913 -0.0204457 -1.18573 0.429367 -0.0449813 -1.195 0.306767 -0.0410322 -1.19492 
0.243638 -0.00506244 -1.19402 0.0050048 -0.0314686 -1.17072 0.437429 -0.0290542 -1.19503 
0.278078 -0.0243676 -1.19498 0.396414 -0.0449631 -1.18699 0.44701 -0.0153137 -1.17843 
0.109072 -0.00787989 -1.19412 0.0620172 -0.0448258 -1.17851 0.219361 -0.00899937 -1.19494 
0.347865 -0.00629829 -1.18977 0.40319 -0.0308749 -1.19495 0.429626 -0.0133846 -1.18726 
0.0475703 -0.0234233 -1.18963 0.41665 -0.0264602 -1.195 0.0340483 -0.0296858 -1.17928 
0.0934208 -0.0450471 -1.195 0.44679 -0.0275991 -1.19182 0.0446816 -0.0449979 -1.18651 
0.180845 -0.0336328 -1.195 0.390665 -0.0306719 -1.195 0.0652825 -0.0379421 -1.19501 
0.196078 -0.00550357 -1.195 0.474263 -0.0198956 -1.18739 0.0195384 -0.0449181 -1.17263 
0.0735988 -0.0131699 -1.19501 0.107098 -0.0166483 -1.18268 0.39694 -0.0225712 -1.195 
0.414396 -0.028764 -1.17903 0.0989453 -0.0448961 -1.18657 0.273895 -0.00867906 -1.19108 
0.102496 -0.0154188 -1.19501 0.397068 -0.0310984 -1.18695 0.413002 -0.0213829 -1.18632 
0.388579 -0.0449197 -1.195 0.448656 -0.00547181 -1.17891 0.321855 -0.0213837 -1.18198 
0.359765 -0.00938067 -1.19424 0.437949 -0.0101699 -1.17923 0.070898 -0.0406378 -1.18088 
0.090684 -0.0244318 -1.195 0.166644 -0.0431915 -1.19442 0.383844 -0.022536 -1.19467 
0.438221 -0.0449543 -1.18521 0.0828735 -0.0431687 -1.17818 0.401591 -0.00500273 -1.18639 
0.0496803 -0.0311509 -1.16998 0.0418084 -0.00499545 -1.18358 0.0621049 -0.00527655 -1.18675 
0.390572 -0.0231725 -1.18731 0.189033 -0.0241855 -1.19291 0.430291 -0.021455 -1.18141 
0.0768043 -0.0244343 -1.18629 0.401555 -0.0136592 -1.19499 0.235771 -0.00510291 -1.18625 
0.250221 -0.0351874 -1.19437 0.215419 -0.0429639 -1.19471 0.38637 -0.00518945 -1.19499 
0.046315 -0.0050214 -1.19499 0.0452753 -0.0221932 -1.17361 0.205309 -0.0171137 -1.19477 
0.409987 -0.0349022 -1.17204 0.176326 -0.0386888 -1.18765 0.11856 -0.00497904 -1.19497 
0.144724 -0.0450377 -1.19333 0.0626098 -0.0213687 -1.18767 0.0636367 -0.0142935 -1.19501 
0.412175 -0.0450037 -1.188 0.396781 -0.038888 -1.19499 0.0932895 -0.0382351 -1.16915 
0.229847 -0.0051849 -0.245002 0.194656 -0.0153838 -1.19499 0.381521 -0.0370147 -1.18092 
0.412205 -0.0134867 -1.17802 0.0885173 -0.0318514 -1.17761 0.223494 -0.0281692 -1.18151 
0.113645 -0.00692544 -1.18427 0.0571043 -0.00508256 -1.1781 0.257745 -0.0148212 -1.19503 
0.370611 -0.0142637 -1.18962 0.176459 -0.00523089 -1.19499 0.36586 -0.0413554 -1.04636 
0.402394 -0.0226029 -1.1865 0.0695447 -0.0314901 -1.1876 0.348438 -0.0444327 -1.19508 
0.0905648 -0.00537882 -1.17651 0.236478 -0.026644 -1.18317 0.442676 -0.0120681 -1.18786 
0.401751 -0.0136339 -1.17781 0.0935514 -0.0425382 -1.17829 0.241837 -0.0268263 -1.19471 
0.333271 -0.0152043 -1.17953 0.270785 -0.0439511 -1.19503 0.287856 -0.0191982 -1.19465 
0.396665 -0.00500447 -1.17768 0.295064 -0.0400098 -1.19486 0.21222 -0.0242977 -1.19486 
0.168787 -0.0276537 -1.19464 0.0934582 -0.0323967 -1.1867 0.375195 -0.0450458 -1.19476 
0.0653119 -0.045002 -1.18794 0.424295 -0.00499535 -1.18589 0.263723 -0.0220268 -1.19093 
0.319586 -0.00594083 -1.19491 0.140905 -0.00756957 -1.19307 0.106868 -0.028477 -1.18334 
0.194489 -0.0444032 -1.18646 0.138313 -0.0290638 -1.19418 0.321232 -0.0411224 -1.19468 
0.0634572 -0.028116 -1.195 0.0954528 -0.00506732 -1.18582 0.231131 -0.00610999 -1.19504 
0.221112 -0.00512379 -1.18589 0.335503 -0.0119241 -1.09717 0.339108 -0.0174681 -1.19489 
0.386084 -0.0134203 -1.18619 0.178819 -0.0449946 -1.195 0.137514 -0.0333758 -1.18427 
0.124149 -0.0439978 -1.19495 0.418143 -0.0128221 -1.18652 0.374592 -0.00495548 -1.195 
0.1098 -0.0229917 -1.19246 0.445934 -0.0278206 -1.18184 0.174051 -0.0262594 -1.18537 
0.207693 -0.0349677 -0.245002 0.382086 -0.0448235 -1.18741 0.380132 -0.0132762 -1.195 
0.407068 -0.0220854 -1.17761 0.382499 -0.029396 -1.18734 0.0758514 -0.0320119 -1.17964 
0.391238 -0.0337095 -1.17826 0.00513623 -0.0399622 -1.16546 0.0826974 -0.0425791 -1.19501 
0.39905 -0.0405748 -1.17215 0.0650275 -0.034293 -1.16802 0.169639 -0.0163341 -1.1946 
0.16258 -0.00909272 -1.19499 0.206028 -0.00509851 -1.195 0.327651 -0.0152153 -1.19424 
0.329691 -0.00533548 -1.19327 0.407307 -0.0447021 -1.16851 0.109083 -0.0326147 -1.19496 
0.373827 -0.0382273 -1.1875 0.330029 -0.0429127 -1.18606 0.36842 -0.0309466 -1.16284 
0.0778021 -0.0450129 -1.18664 0.367235 -0.00505005 -1.18581 0.371812 -0.0442014 -1.17837 
0.128109 -0.0301792 -1.19486 0.354425 -0.0338146 -1.19488 0.472736 -0.0275031 -1.17863 
0.123688 -0.0108449 -1.17671 0.318428 -0.0204639 -1.1934 0.28056 -0.0376605 -1.18682 
0.199808 -0.0447744 -1.19492 0.282302 -0.043431 -1.19481 0.33961 -0.00496931 -1.19503 
0.396174 -0.0140056 -1.18649 0.424368 -0.0285123 -1.17756 0.29897 -0.041772 -1.18551 
0.189266 -0.0440856 -1.195 0.375681 -0.0267039 -1.13776 0.343983 -0.035004 -0.974046 
0.406856 -0.00504019 -1.17787 0.343726 -0.0433176 -1.18651 0.150583 -0.017978 -1.19109 
0.359505 -0.0442172 -1.19447 0.378332 -0.0197491 -1.18637 0.285693 -0.00650488 -1.19493 
0.251441 -0.0235022 -1.19508 0.304583 -0.0335261 -1.18169 0.0982054 -0.0363101 -1.19463 
0.262083 -0.00582183 -1.19371 0.187533 -0.0157372 -1.18741 0.134701 -0.0405069 -1.195 
0.439336 -0.0216238 -1.17702 0.338387 -0.0425119 -1.19508 0.34003 -0.034307 -1.17543 
0.156593 -0.0439707 -1.195 0.389547 -0.0440014 -1.17974 0.373039 -0.0231327 -1.17364 
0.197111 -0.0341076 -1.187 0.391226 -0.013747 -1.17449 0.355982 -0.0450369 -1.18507 
0.401473 -0.0290028 -1.17083 0.227225 -0.0346723 -1.14371 0.205888 -0.0443946 -1.18678 
0.0790333 -0.00518665 -1.17789 0.272162 -0.0342239 -1.19385 0.29706 -0.0370384 -0.356153 
0.254212 -0.0343708 -1.18063 0.286876 -0.0241608 -1.18406 0.417483 -0.039227 -1.18181 
0.218756 -0.0342668 -1.18914 0.396847 -0.0234263 -1.17817 0.357614 -0.0178154 -0.540427 
0.260193 -0.0311285 -1.19435 0.412211 -0.030964 -1.1334 0.208758 -0.0349327 -1.19474 
0.288058 -0.0447076 -1.18527 0.296079 -0.0259162 -1.19274 0.0845502 -0.00511842 -1.18621 
0.38532 -0.00507423 -1.1768 0.359924 -0.0367916 -0.935266 0.364195 -0.0373559 -1.18326 
0.455808 -0.0273476 -1.18752 0.0684745 -0.0247488 -1.18029 0.342342 -0.0219814 -1.17394 
0.310135 -0.00745626 -1.19092 0.378736 -0.00624636 -1.18582 0.186813 -0.032674 -1.15537 
0.0970589 -0.0201988 -1.18815 0.12583 -0.0165437 -1.19492 0.478878 -0.0240346 -1.17157 
0.306433 -0.01865 -1.19417 0.460365 -0.0354244 -1.1768 0.114134 -0.0442563 -1.19479 
0.454134 -0.0276014 -1.1759 0.201034 -0.0276934 -1.19453 0.316276 -0.0298648 -1.18439 
0.115881 -0.0153816 -1.19497 0.370422 -0.0280775 -1.18226 0.3773 -0.037976 -1.17112 
0.244753 -0.0152382 -1.19445 0.38946 -0.0377969 -1.18779 
VERTICES 500 1000
1 0 
1 1 
1 2 
1 3 
1 4 
1 5 
1 6 
1 7 
1 8 
1 9 
1 10 
1 11 
1 12 
1 13 
1 14 
1 15 
1 16 
1 17 
1 18 
1 19 
1 20 
1 21 
1 22 
1 23 
1 24 
1 25 
1 26 
1 27 
1 28 
1 29 
1 30 
1 31 
1 32 
1 33 
1 34 
1 35 
1 36 
1 37 
1 38 
1 39 
1 40 
1 41 
1 42 
1 43 
1 44 
1 45 
1 46 
1 47 
1 48 
1 49 
1 50 
1 51 
1 52 
1 53 
1 54 
1 55 
1 56 
1 57 
1 58 
1 59 
1 60 
1 61 
1 62 
1 63 
1 64 
1 65 
1 66 
1 67 
1 68 
1 69 
1 70 
1 71 
1 72 
1 73 
1 74 
1 75 
1 76 
1 77 
1 78 
1 79 
1 80 
1 81 
1 82 
1 83 
1 84 
1 85 
1 86 
1 87 
1 88 
1 89 
1 90 
1 91 
1 92 
1 93 
1 94 
1 95 
1 96 
1 97 
1 98 
1 99 
1 100 
1 101 
1 102 
1 103 
1 104 
1 105 
1 106 
1 107 
1 108 
1 109 
1 110 
1 111 
1 112 
1 113 
1 114 
1 115 
1 116 
1 117 
1 118 
1 119 
1 120 
1 121 
1 122 
1 123 
1 124 
1 125 
1 126 
1 127 
1 128 
1 129 
1 130 
1 131 
1 132 
1 133 
1 134 
1 135 
1 136 
1 137 
1 138 
1 139 
1 140 
1 141 
1 142 
1 143 
1 144 
1 145 
1 146 
1 147 
1 148 
1 149 
1 150 
1 151 
1 152 
1 153 
1 154 
1 155 
1 156 
1 157 
1 158 
1 159 
1 160 
1 161 
1 162 
1 163 
1 164 
1 165 
1 166 
1 167 
1 168 
1 169 
1 170 
1 171 
1 172 
1 173 
1 174 
1 175 
1 176 
1 177 
1 178 
1 179 
1 180 
1 181 
1 182 
1 183 
1 184 
1 185 
1 186 
1 187 
1 188 
1 189 
1 190 
1 191 
1 192 
1 193 
1 194 
1 195 
1 196 
1 197 
1 198 
1 199 
1 200 
1 201 
1 202 
1 203 
1 204 
1 205 
1 206 
1 207 
1 208 
1 209 
1 210 
1 211 
1 212 
1 213 
1 214 
1 215 
1 216 
1 217 
1 218 
1 219 
1 220 
1 221 
1 222 
1 223 
1 224 
1 225 
1 226 
1 227 
1 228 
1 229 
1 230 
1 231 
1 232 
1 233 
1 234 
1 235 
1 236 
1 237 
1 238 
1 239 
1 240 
1 241 
1 242 
1 243 
1 244 
1 245 
1 246 
1 247 
1 248 
1 249 
1 250 
1 251 
1 252 
1 253 
1 254 
1 255 
1 256 
1 257 
1 258 
1 259 
1 260 
1 261 
1 262 
1 263 
1 264 
1 265 
1 266 
1 267 
1 268 
1 269 
1 270 
1 271 
1 272 
1 273 
1 274 
1 275 
1 276 
1 277 
1 278 
1 279 
1 280 
1 281 
1 282 
1 283 
1 284 
1 285 
1 286 
1 287 
1 288 
1 289 
1 290 
1 291 
1 292 
1 293 
1 294 
1 295 
1 296 
1 297 
1 298 
1 299 
1 300 
1 301 
1 302 
1 303 
1 304 
1 305 
1 306 
1 307 
1 308 
1 309 
1 310 
1 311 
1 312 
1 313 
1 314 
1 315 
1 316 
1 317 
1 318 
1 319 
1 320 
1 321 
1 322 
1 323 
1 324 
1 325 
1 326 
1 327 
1 328 
1 329 
1 330 
1 331 
1 332 
1 333 
1 334 
1 335 
1 336 
1 337 
1 338 
1 339 
1 340 
1 341 
1 342 
1 343 
1 344 
1 345 
1 346 
1 347 
1 348 
1 349 
1 350 
1 351 
1 352 
1 353 
1 354 
1 355 
1 356 
1 357 
1 358 
1 359 
1 360 
1 361 
1 362 
1 363 
1 364 
1 365 
1 366 
1 367 
1 368 
1 369 
1 370 
1 371 
1 372 
1 373 
1 374 
1 375 
1 376 
1 377 
1 378 
1 379 
1 380 
1 381 
1 382 
1 383 
1 384 
1 385 
1 386 
1 387 
1 388 
1 389 
1 390 
1 391 
1 392 
1 393 
1 394 
1 395 
1 396 
1 397 
1 398 
1 399 
1 400 
1 401 
1 402 
1 403 
1 404 
1 405 
1 406 
1 407 
1 408 
1 409 
1 410 
1 411 
1 412 
1 413 
1 414 
1 415 
1 416 
1 417 
1 418 
1 419 
1 420 
1 421 
1 422 
1 423 
1 424 
1 425 
1 426 
1 427 
1 428 
1 429 
1 430 
1 431 
1 432 
1 433 
1 434 
1 435 
1 436 
1 437 
1 438 
1 439 
1 440 
1 441 
1 442 
1 443 
1 444 
1 445 
1 446 
1 447 
1 448 
1 449 
1 450 
1 451 
1 452 
1 453 
1 454 
1 455 
1 456 
1 457 
1 458 
1 459 
1 460 
1 461 
1 462 
1 463 
1 464 
1 465 
1 466 
1 467 
1 468 
1 469 
1 470 
1 471 
1 472 
1 473 
1 474 
1 475 
1 476 
1 477 
1 478 
1 479 
1 480 
1 481 
1 482 
1 483 
1 484 
1 485 
1 486 
1 487 
1 488 
1 489 
1 490 
1 491 
1 492 
1 493 
1 494 
1 495 
1 496 
1 497 
1 498 
1 499 

POINT_DATA 500
FIELD FieldData 7
id 1 500 int
1 2 3 4 5 6 7 8 9 
10 11 12 13 14 15 16 17 18 
19 20 21 22 23 24 25 26 27 
28 29 30 31 32 33 34 35 36 
37 38 39 40 41 42 43 44 45 
46 47 48 49 50 51 52 53 54 
55 56 57 58 59 60 61 62 63 
64 65 66 67 68 69 70 71 72 
73 74 75 76 77 78 79 80 81 
82 83 84 85 86 87 88 89 90 
91 92 93 94 95 96 97 98 99 
100 101 102 103 104 105 106 107 108 
109 110 111 112 113 114 115 116 117 
118 119 120 121 122 123 124 125 126 
127 128 129 130 131 132 133 134 135 
136 137 138 139 140 141 142 143 144 
145 146 147 148 149 150 151 152 153 
154 155 156 157 158 159 160 161 162 
163 164 165 166 167 168 169 170 171 
172 173 174 175 176 177 178 179 180 
181 182 183 184 185 186 187 188 189 
190 191 192 193 194 195 196 197 198 
199 200 201 202 203 204 205 206 207 
208 209 210 211 212 213 214 215 216 
217 218 219 220 221 222 223 224 225 
226 227 228 229 230 231 232 233 234 
235 236 237 238 239 240 241 242 243 
244 245 246 247 248 249 250 251 252 
253 254 255 256 257 258 259 260 261 
262 263 264 265 266 267 268 269 270 
271 272 273 274 275 276 277 278 279 
280 281 282 283 284 285 286 287 288 
289 290 291 292 293 294 295 296 297 
298 299 300 301 302 303 304 305 306 
307 308 309 310 311 312 313 314 315 
316 317 318 319 320 321 322 323 324 
325 326 327 328 329 330 331 332 333 
334 335 336 337 338 339 340 341 342 
343 344 345 346 347 348 349 350 351 
352 353 354 355 356 357 358 359 360 
361 362 363 364 365 366 367 368 369 
370 371 372 373 374 375 376 377 378 
379 380 381 382 383 384 385 386 387 
388 389 390 391 392 393 394 395 396 
397 398 399 400 401 402 403 404 405 
406 407 408 409 410 411 412 413 414 
415 416 417 418 419 420 421 422 423 
424 425 426 427 428 429 430 431 432 
433 434 435 436 437 438 439 440 441 
442 443 444 445 446 447 448 449 450 
451 452 453 454 455 456 457 458 459 
460 461 462 463 464 465 466 467 468 
469 470 471 472 473 474 475 476 477 
478 479 480 481 482 483 484 485 486 
487 488 489 490 491 492 493 494 495 
496 497 498 499 500 
type 1 500 int
1 1 1 1 1 1 1 1 1 
1 1 1 1 1 1 1 1 1 
1 1 1 1 1 1 1 1 1 
1 1 1 1 1 1 1 1 1 
1 1 1 1 1 1 1 1 1 
1 1 1 1 1 1 1 1 1 
1 1 1 1 1 1 1 1 1 
1 1 1 1 1 1 1 1 1 
1 1 1 1 1 1 1 1 1 
1 1 1 1 1 1 1 1 1 
1 1 1 1 1 1 1 1 1 
1 1 1 1 1 1 1 1 1 
1 1 1 1 1 1 1 1 1 
1 1 1 1 1 1 1 1 1 
1 1 1 1 1 1 1 1 1 
1 1 1 1 1 1 1 1 1 
1 1 1 1 1 1 1 1 1 
1 1 1 1 1 1 1 1 1 
1 1 1 1 1 1 1 1 1 
1 1 1 1 1 1 1 1 1 
1 1 1 1 1 1 1 1 1 
1 1 1 1 1 1 1 1 1 
1 1 1 1 1 1 1 1 1 
1 1 1 1 1 1 1 1 1 
1 1 1 1 1 1 1 1 1 
1 1 1 1 1 1 1 1 1 
1 1 1 1 1 1 1 1 1 
1 1 1 1 1 1 1 1 1 
1 1 1 1 1 1 1 1 1 
1 1 1 1 1 1 1 1 1 
1 1 1 1 1 1 1 1 1 
1 1 1 1 1 1 1 1 1 
1 1 1 1 1 1 1 1 1 
1 1 1 1 1 1 1 1 1 
1 1 1 1 1 1 1 1 1 
1 1 1 1 1 1 1 1 1 
1 1 1 1 1 1 1 1 1 
1 1 1 1 1 1 1 1 1 
1 1 1 1 1 1 1 1 1 
1 1 1 1 1 1 1 1 1 
1 1 1 1 1 1 1 1 1 
1 1 1 1 1 1 1 1 1 
1 1 1 1 1 1 1 1 1 
1 1 1 1 1 1 1 1 1 
1 1 1 1 1 1 1 1 1 
1 1 1 1 1 1 1 1 1 
1 1 1 1 1 1 1 1 1 
1 1 1 1 1 1 1 1 1 
1 1 1 1 1 1 1 1 1 
1 1 1 1 1 1 1 1 1 
1 1 1 1 1 1 1 1 1 
1 1 1 1 1 1 1 1 1 
1 1 1 1 1 1 1 1 1 
1 1 1 1 1 1 1 1 1 
1 1 1 1 1 1 1 1 1 
1 1 1 1 1 
i 3 500 int
0 0 0 0 0 0 0 0 0 
0 0 0 0 0 0 0 0 0 
0 0 0 0 0 0 0 0 0 
0 0 0 0 0 0 0 0 0 
0 0 0 0 0 0 0 0 0 
0 0 0 0 0 0 0 0 0 
0 0 0 0 0 0 0 0 0 
0 0 0 0 0 0 0 0 0 
0 0 0 0 0 0 0 0 0 
0 0 0 0 0 0 0 0 0 
0 0 0 0 0 0 0 0 0 
0 0 0 0 0 0 0 0 0 
0 0 0 0 0 0 0 0 0 
0 0 0 0 0 0 0 0 0 
0 0 0 0 0 0 0 0 0 
0 0 0 0 0 0 0 0 0 
0 0 0 0 0 0 0 0 0 
0 0 0 0 0 0 0 0 0 
0 0 0 0 0 0 0 0 0 
0 0 0 0 0 0 0 0 0 
0 0 0 0 0 0 0 0 0 
0 0 0 0 0 0 0 0 0 
0 0 0 0 0 0 0 0 0 
0 0 0 0 0 0 0 0 0 
0 0 0 0 0 0 0 0 0 
0 0 0 0 0 0 0 0 0 
0 0 0 0 0 0 0 0 0 
0 0 0 0 0 0 0 0 0 
0 0 0 0 0 0 0 0 0 
0 0 0 0 0 0 0 0 0 
0 0 0 0 0 0 0 0 0 
0 0 0 0 0 0 0 0 0 
0 0 0 0 0 0 0 0 0 
0 0 0 0 0 0 0 0 0 
0 0 0 0 0 0 0 0 0 
0 0 0 0 0 0 0 0 0 
0 0 0 0 0 0 0 0 0 
0 0 0 0 0 0 0 0 0 
0 0 0 0 0 0 0 0 0 
0 0 0 0 0 0 0 0 0 
0 0 0 0 0 0 0 0 0 
0 0 0 0 0 0 0 0 0 
0 0 0 0 0 0 0 0 0 
0 0 0 0 0 0 0 0 0 
0 0 0 0 0 0 0 0 0 
0 0 0 0 0 0 0 0 0 
0 0 0 0 0 0 0 0 0 
0 0 0 0 0 0 0 0 0 
0 0 0 0 0 0 0 0 0 
0 0 0 0 0 0 0 0 0 
0 0 0 0 0 0 0 0 0 
0 0 0 0 0 0 0 0 0 
0 0 0 0 0 0 0 0 0 
0 0 0 0 0 0 0 0 0 
0 0 0 0 0 0 0 0 0 
0 0 0 0 0 0 0 0 0 
0 0 0 0 0 0 0 0 0 
0 0 0 0 0 0 0 0 0 
0 0 0 0 0 0 0 0 0 
0 0 0 0 0 0 0 0 0 
0 0 0 0 0 0 0 0 0 
0 0 0 0 0 0 0 0 0 
0 0 0 0 0 0 0 0 0 
0 0 0 0 0 0 0 0 0 
0 0 0 0 0 0 0 0 0 
0 0 0 0 0 0 0 0 0 
0 0 0 0 0 0 0 0 0 
0 0 0 0 0 0 0 0 0 
0 0 0 0 0 0 0 0 0 
0 0 0 0 0 0 0 0 0 
0 0 0 0 0 0 0 0 0 
0 0 0 0 0 0 0 0 0 
0 0 0 0 0 0 0 0 0 
0 0 0 0 0 0 0 0 0 
0 0 0 0 0 0 0 0 0 
0 0 0 0 0 0 0 0 0 
0 0 0 0 0 0 0 0 0 
0 0 0 0 0 0 0 0 0 
0 0 0 0 0 0 0 0 0 
0 0 0 0 0 0 0 0 0 
0 0 0 0 0 0 0 0 0 
0 0 0 0 0 0 0 0 0 
0 0 0 0 0 0 0 0 0 
0 0 0 0 0 0 0 0 0 
0 0 0 0 0 0 0 0 0 
0 0 0 0 0 0 0 0 0 
0 0 0 0 0 0 0 0 0 
0 0 0 0 0 0 0 0 0 
0 0 0 0 0 0 0 0 0 
0 0 0 0 0 0 0 0 0 
0 0 0 0 0 0 0 0 0 
0 0 0 0 0 0 0 0 0 
0 0 0 0 0 0 0 0 0 
0 0 0 0 0 0 0 0 0 
0 0 0 0 0 0 0 0 0 
0 0 0 0 0 0 0 0 0 
0 0 0 0 0 0 0 0 0 
0 0 0 0 0 0 0 0 0 
0 0 0 0 0 0 0 0 0 
0 0 0 0 0 0 0 0 0 
0 0 0 0 0 0 0 0 0 
0 0 0 0 0 0 0 0 0 
0 0 0 0 0 0 0 0 0 
0 0 0 0 0 0 0 0 0 
0 0 0 0 0 0 0 0 0 
0 0 0 0 0 0 0 0 0 
0 0 0 0 0 0 0 0 0 
0 0 0 0 0 0 0 0 0 
0 0 0 0 0 0 0 0 0 
0 0 0 0 0 0 0 0 0 
0 0 0 0 0 0 0 0 0 
0 0 0 0 0 0 0 0 0 
0 0 0 0 0 0 0 0 0 
0 0 0 0 0 0 0 0 0 
0 0 0 0 0 0 0 0 0 
0 0 0 0 0 0 0 0 0 
0 0 0 0 0 0 0 0 0 
0 0 0 0 0 0 0 0 0 
0 0 0 0 0 0 0 0 0 
0 0 0 0 0 0 0 0 0 
0 0 0 0 0 0 0 0 0 
0 0 0 0 0 0 0 0 0 
0 0 0 0 0 0 0 0 0 
0 0 0 0 0 0 0 0 0 
0 0 0 0 0 0 0 0 0 
0 0 0 0 0 0 0 0 0 
0 0 0 0 0 0 0 0 0 
0 0 0 0 0 0 0 0 0 
0 0 0 0 0 0 0 0 0 
0 0 0 0 0 0 0 0 0 
0 0 0 0 0 0 0 0 0 
0 0 0 0 0 0 0 0 0 
0 0 0 0 0 0 0 0 0 
0 0 0 0 0 0 0 0 0 
0 0 0 0 0 0 0 0 0 
0 0 0 0 0 0 0 0 0 
0 0 0 0 0 0 0 0 0 
0 0 0 0 0 0 0 0 0 
0 0 0 0 0 0 0 0 0 
0 0 0 0 0 0 0 0 0 
0 0 0 0 0 0 0 0 0 
0 0 0 0 0 0 0 0 0 
0 0 0 0 0 0 0 0 0 
0 0 0 0 0 0 0 0 0 
0 0 0 0 0 0 0 0 0 
0 0 0 0 0 0 0 0 0 
0 0 0 0 0 0 0 0 0 
0 0 0 0 0 0 0 0 0 
0 0 0 0 0 0 0 0 0 
0 0 0 0 0 0 0 0 0 
0 0 0 0 0 0 0 0 0 
0 0 0 0 0 0 0 0 0 
0 0 0 0 0 0 0 0 0 
0 0 0 0 0 0 0 0 0 
0 0 0 0 0 0 0 0 0 
0 0 0 0 0 0 0 0 0 
0 0 0 0 0 0 0 0 0 
0 0 0 0 0 0 0 0 0 
0 0 0 0 0 0 0 0 0 
0 0 0 0 0 0 0 0 0 
0 0 0 0 0 0 0 0 0 
0 0 0 0 0 0 0 0 0 
0 0 0 0 0 0 0 0 0 
0 0 0 0 0 0 0 0 0 
0 0 0 0 0 0 0 0 0 
0 0 0 0 0 0 0 0 0 
0 0 0 0 0 0 
v 3 500 double
-0.15295 0.0159005 0.0430314 -0.142257 0.0682918 -0.0126448 -0.00166323 -0.00281799 0.00149658 
0.251329 -0.031093 -0.0646658 -0.0643281 0.031371 -0.0615393 -0.0281725 -0.0449836 -0.0074062 
0.0346589 -0.0189899 -0.00123604 0.22028 -0.191184 -0.495012 0.131235 0.034586 -0.0582956 
0.0626809 0.077866 -0.0866178 0.200366 0.471596 0.205138 0.00148075 -0.0314422 0.00389023 
-0.0223482 0.00542989 -0.0626675 -0.129659 -0.00925893 -0.00237167 0.123778 -0.108047 -0.00557942 
-0.0726318 -0.000670631 -0.0180028 0.0279176 -0.0231453 -0.0330593 -0.00933708 -0.00766798 -0.0238613 
0.094045 -0.0034908 0.0108821 -0.0080284 0.0154282 -0.0101515 -0.0643167 0.203222 -0.00167378 
-0.459039 -0.0618856 -0.0167512 0.0769643 0.019103 -0.0150296 0.00772151 -0.00416798 0.0197159 
-0.439542 -0.171223 0.127787 -0.151309 -0.127055 -0.0872883 -0.0517112 0.00654025 -0.0806375 
-0.102602 0.0108511 0.00206947 -0.242417 -0.0727406 0.0553435 0.131541 -0.00422732 0.030277 
-0.0564689 -0.0587437 -0.00132549 -0.183718 0.00219719 -0.00664971 -0.102991 -0.0592131 -0.020636 
-0.0767719 -0.00423431 0.0230722 -0.677663 -0.0712451 0.330779 0.0421658 -0.0313421 -0.00812151 
-0.023029 -0.00282846 0.000263916 -0.0275567 -0.00655502 0.0144316 0.0629156 0.0384513 -0.0340218 
-0.0332458 -0.027032 -0.064058 0.0183497 -0.0234269 -1.29781e-11 -0.0215163 0.103834 0.031468 
-0.0189063 -0.0765825 0.053139 -0.0492096 0.022949 -0.0627815 -0.139676 0.0503867 -0.0134412 
-0.0440416 -0.000354034 -0.0267596 -0.00901085 -0.0132277 -0.0199836 -0.0013585 -0.00982866 -0.00111636 
-0.00185657 0.00263803 -0.0375733 -0.0936647 0.00626188 -0.01918 -0.101451 0.0169491 0.00954825 
-0.0477432 -0.00481877 -0.0235332 -0.040897 -0.00144088 0.0100396 0.123148 -0.021094 0.0159779 
0.038399 -0.00613901 -0.000160231 0.0281306 -0.000522038 -0.112257 0.0779328 -0.00206297 -0.0925818 
0.110357 -0.039296 -0.0753258 -0.00692011 -0.0251409 0.0203791 0.0163864 0.0126135 0.033268 
-0.0279523 -0.0435661 0.0179637 -0.0332351 -0.0205884 0.00544342 -0.0368735 0.00377763 -0.0902552 
-0.0137342 -0.0444168 -0.0238026 0.179257 -0.00690935 -0.0698139 -0.0268144 0.0234943 -0.00448576 
0.0140279 0.0065175 -0.0513693 -0.295704 0.37797 -0.368217 -0.0338712 -0.00154948 0.000585411 
-0.024833 0.00754941 -0.0376814 -0.00868232 0.0150444 0.000604205 -0.0443842 0.0144912 -0.00638988 
0.0453732 0.000863538 -0.06277 0.00646174 -0.00833238 0.00101944 0.0770766 -0.0184537 0.0221919 
0.0354082 0.0124893 -0.0225103 -0.00753877 0.0116209 0.00308511 -0.145977 -0.0385358 0.0108022 
-0.0606725 0.00315921 -0.0172827 5.08298e-05 0.103523 -0.207715 0.0482347 -0.0327599 -0.0318033 
0.039712 -0.0882536 -0.127655 -0.128146 0.0257589 -0.0551444 0.00354331 -0.0075484 0.0162663 
0.0524946 -0.0185243 -2.78556 0.0416634 -0.0350828 -0.0138491 0.0106388 0.0585457 -0.067871 
-0.212567 -0.142623 0.0736682 -0.165788 0.112535 0.0368243 0.00370157 0.00437119 -0.00904657 
0.0717341 -0.000824232 -0.010132 -0.149806 -0.0220838 0.00354803 0.32857 0.164088 -0.25323 
-0.0171076 -0.00535413 0.00327107 0.00212343 0.00219763 -9.5211e-05 0.00801264 -0.0117952 0.00315373 
-0.000990647 -0.0830698 0.0235192 0.0520132 0.0138414 0.0213168 -0.465256 -0.101876 0.00191709 
0.101017 -0.00375582 0.00456298 0.106945 -0.0796601 0.00708468 0.00177682 -7.62425e-05 1.91087e-09 
-0.00634799 -0.0149665 0.00609074 0.0463945 -0.0241119 -0.013336 -0.116211 0.0464829 -0.000991254 
-0.117063 -0.0620156 -0.0131877 0.0465691 0.0340934 0.165718 -0.438061 0.142997 -0.00615993 
-0.0568525 -0.0277679 0.00670594 0.013835 -0.0587998 0.0141172 -0.462877 0.142603 -0.0464606 
0.00148336 0.00685563 0.0100829 -0.00195138 0.0187955 -0.00890701 -0.0672565 0.0414969 0.00128549 
0.18908 -0.0306749 -0.092414 0.0418972 -0.0363364 -0.00535907 -0.164243 0.486926 -0.521515 
-0.00986326 -0.0219749 0.0149402 -0.016996 0.00471402 0.00328812 0.0370162 -0.0692118 0.0136205 
-0.149092 0.00445151 -0.0383015 0.00453569 -0.0310517 -0.0810562 -0.00604987 -0.0124862 0.0110295 
0.015033 -0.00443684 -0.0487611 -0.0227556 -0.00245524 -0.00109964 -0.000463446 0.0165654 -0.0157628 
0.000464815 0.000976359 1.64328e-06 -0.00957187 -0.0176874 -0.0162048 0.00424797 0.00769219 0.00247308 
0.0231791 0.00491708 -0.0699189 0.0856473 0.0405169 -0.0231768 0.013466 -0.0193407 0.00969495 
0.0153956 0.000146378 0.00893134 0.0468296 -0.00116917 -0.0475925 0.0758339 0.0189036 -0.00242499 
-0.093481 0.0122225 -0.0264042 -0.0333909 -0.116947 -0.28473 -0.531626 0.0132142 -0.0504007 
-0.118533 0.0128783 -0.397023 -0.531986 0.0272609 -7.25462e-05 -0.0361414 0.0235612 0.0103439 
-0.0886011 0.00800995 -0.0852429 0.0237518 0.0564894 -0.00422361 -0.0640466 0.0472972 0.0215035 
-0.00657326 0.0115504 -0.0583139 -0.111168 -0.0295951 0.00032517 0.0649299 -0.0215119 -0.0475913 
0.0368101 0.000730118 0.00454985 -0.0087266 -0.0302333 0.0330965 -0.219514 0.229525 0.135334 
0.00119905 0.0168048 0.0448347 -0.107139 -0.0519577 -0.00212268 0.00604411 0.00161948 -0.0340678 
0.0181419 0.00924398 -0.00352251 -0.346898 0.177868 -0.249074 -0.0287696 0.0460277 0.0352101 
0.0205576 -0.0651623 -0.000570713 0.0178322 0.108268 0.0160345 -0.0123205 -0.00350081 0.00325921 
-0.0830759 0.0648246 -0.000242081 0.00144433 0.00109888 0.0017078 -0.43591 -0.0295011 6.91402e-06 
-0.0158511 -0.0663025 -0.0255636 0.0321187 0.0268524 -0.0347099 0.0961193 0.0220232 -0.00204658 
-0.0608349 0.0114573 0.0346533 0.0918108 -0.00506179 0.0233352 -0.110338 0.00210348 -0.0251079 
0.0155699 -0.0143177 -0.00162845 0.2065 0.102284 -0.149898 -0.118199 -0.0448427 0.0149564 