# vtk DataFile Version 4.0
Generated by LIGGGHTS
ASCII
DATASET POLYDATA
POINTS 400 float
0.334001 -0.0194185 -0.430303 0.454049 -0.0374992 -0.905173 0.341663 -0.0432336 -0.893988 
0.357094 -0.0287156 -0.737516 0.25389 -0.0051951 -0.825659 0.348732 -0.0189579 -0.516222 
0.339966 -0.0212661 -0.583668 0.267892 -0.0397928 -0.954583 0.305097 -0.0434256 -1.03984 
0.322552 -0.0225127 -1.05461 0.426927 -0.0431377 -0.94052 0.372186 -0.01057 -0.774533 
0.34602 -0.0115797 -0.976192 0.388657 -0.0180552 -0.908415 0.225127 -0.0441786 -0.956449 
0.216666 -0.00511225 -0.244964 0.404097 -0.0350909 -0.775965 0.348992 -0.0298756 -0.703271 
0.282999 -0.0162315 -0.329798 0.356203 -0.0172691 -0.715881 0.32296 -0.0342267 -0.627792 
0.393103 -0.00604166 -0.643519 0.375594 -0.0420591 -0.725933 0.353729 -0.00898917 -0.750735 
0.205105 -0.0250661 -0.244878 0.362689 -0.0393584 -0.796457 0.368011 -0.0363021 -0.694545 
0.392022 -0.0148171 -0.698069 0.393158 -0.0405195 -0.781543 0.216455 -0.0445623 -0.244965 
0.355605 -0.0294058 -0.828132 0.413148 -0.0304782 -0.8033 0.216034 -0.0145073 -0.241554 
0.333036 -0.00535686 -0.783141 0.211805 -0.0323531 -0.245073 0.22572 -0.0097809 -0.244565 
0.348724 -0.041511 -0.603176 0.299122 -0.00849166 -0.910323 0.351843 -0.0111429 -0.681462 
0.374294 -0.0217359 -0.869924 0.204949 -0.0151593 -0.245016 0.308801 -0.034424 -0.753288 
0.327691 -0.032959 -0.598727 0.375138 -0.0366811 -0.660628 0.317861 -0.0370752 -0.727918 
0.337613 -0.0447188 -0.460386 0.322723 -0.0186886 -0.514381 0.340564 -0.0242192 -0.705546 
0.381087 -0.0427106 -0.623885 0.360863 -0.0443392 -0.611955 0.396573 -0.0221214 -0.651574 
0.347982 -0.0340914 -0.620202 0.367305 -0.035658 -0.652615 0.355808 -0.032368 -0.511068 
0.342369 -0.0283733 -0.718574 0.352714 -0.0211876 -0.662123 0.206899 -0.00534261 -0.241961 
0.287763 -0.0151848 -0.781679 0.334582 -0.0101939 -0.667607 0.323117 -0.0201609 -0.400982 
0.360562 -0.0357478 -0.6014 0.339164 -0.00885766 -0.52496 0.363503 -0.0144789 -0.565305 
0.237077 -0.00552502 -0.24644 0.342625 -0.00801098 -0.437591 0.367244 -0.0430503 -0.575865 
0.342772 -0.0149178 -0.606948 0.361076 -0.0359887 -0.588455 0.364038 -0.0158251 -0.67874 
0.338406 -0.0111373 -0.557226 0.357693 -0.017481 -0.487881 0.33403 -0.0184645 -0.635851 
0.321828 -0.00751411 -0.402797 0.359251 -0.0392108 -0.54799 0.350278 -0.0281592 -0.480188 
0.354012 -0.0404155 -0.658462 0.277148 -0.0410675 -0.317931 0.379543 -0.0279993 -0.597351 
0.354105 -0.0123459 -0.629058 0.366299 -0.0375086 -0.556496 0.344667 -0.0331432 -0.575304 
0.298674 -0.0277724 -0.500276 0.270869 -0.0430853 -0.31022 0.333055 -0.0326794 -0.51657 
0.204972 -0.0367899 -0.239323 0.337558 -0.0434581 -0.444291 0.337864 -0.0400092 -0.53527 
0.2222 -0.0258421 -0.244951 0.361337 -0.0188607 -0.537056 0.326664 -0.0316426 -0.480901 
0.353193 -0.0213612 -0.465302 0.333538 -0.00905987 -0.417005 0.35463 -0.0170289 -0.600182 
0.337723 -0.0447943 -0.518935 0.323736 -0.0334691 -0.580675 0.324477 -0.00539037 -0.426146 
0.247885 -0.0362047 -0.268879 0.369785 -0.0289616 -0.575068 0.205882 -0.00852805 -0.232156 
0.365973 -0.0303349 -0.531789 0.340965 -0.0322445 -0.438296 0.205003 -0.0450387 -0.24498 
0.333968 -0.0362069 -0.491338 0.34174 -0.0178277 -0.411387 0.315883 -0.00843176 -0.392448 
0.319301 -0.0244082 -0.5025 0.350569 -0.0397368 -0.48928 0.339345 -0.0218864 -0.546375 
0.325247 -0.0163715 -0.41476 0.274056 -0.00746486 -0.316309 0.300335 -0.0122461 -0.359364 
0.348287 -0.00834756 -0.509401 0.353452 -0.0117423 -0.523917 0.317598 -0.021389 -0.388638 
0.302988 -0.0172521 -0.455738 0.348719 -0.0430354 -0.516347 0.205489 -0.0179392 -0.235436 
0.338219 -0.0228705 -0.455141 0.348968 -0.0439669 -0.440482 0.239678 -0.0446885 -0.251527 
0.335112 -0.0116893 -0.370823 0.259696 -0.0203342 -0.286084 0.347614 -0.0172389 -0.476982 
0.300666 -0.0376336 -0.283249 0.332743 -0.0202768 -0.362856 0.229011 -0.0192433 -0.241491 
0.205158 -0.027923 -0.234694 0.336928 -0.0355274 -0.409214 0.333506 -0.0240125 -0.413116 
0.316534 -0.0379981 -0.379796 0.354329 -0.0317876 -0.470326 0.323936 -0.0374337 -0.420892 
0.326291 -0.0438075 -0.376059 0.328273 -0.0119223 -0.379444 0.287208 -0.0434906 -0.338766 
0.273408 -0.0307944 -0.312945 0.336958 -0.0291508 -0.421555 0.334114 -0.0104323 -0.399932 
0.347677 -0.0293649 -0.4503 0.227636 -0.00618251 -0.233083 0.330665 -0.0173108 -0.389741 
0.299746 -0.0133126 -0.343616 0.32787 -0.0444572 -0.408141 0.341013 -0.0446434 -0.406876 
0.309245 -0.0322976 -0.3724 0.329274 -0.0378023 -0.35889 0.317013 -0.00925148 -0.38109 
0.226808 -0.042979 -0.244748 0.336895 -0.0220038 -0.381403 0.264985 -0.0433625 -0.295723 
0.294481 -0.00776276 -0.350864 0.268975 -0.019934 -0.292074 0.336797 -0.0330486 -0.377236 
0.300317 -0.0428466 -0.350075 0.210752 -0.0450592 -0.236726 0.335082 -0.0399083 -0.385625 
0.269389 -0.00944841 -0.304622 0.325863 -0.00693915 -0.391666 0.347772 -0.021791 -0.434394 
0.329912 -0.0295059 -0.405167 0.301897 -0.0383002 -0.337832 0.313283 -0.0263334 -0.380939 
0.320576 -0.0311735 -0.33184 0.236065 -0.0237624 -0.247877 0.3102 -0.0443029 -0.347829 
0.28633 -0.0384228 -0.28557 0.320986 -0.033179 -0.366503 0.259116 -0.0081773 -0.289988 
0.325361 -0.0116786 -0.36388 0.297658 -0.0279083 -0.355425 0.331217 -0.0250533 -0.343091 
0.278327 -0.0288461 -0.321359 0.212834 -0.0356248 -0.233324 0.330001 -0.0229761 -0.374138 
0.31997 -0.00521419 -0.352334 0.267595 -0.019547 -0.301899 0.241162 -0.0138406 -0.259361 
0.326908 -0.0283792 -0.394632 0.247961 -0.0265795 -0.265086 0.340292 -0.0189617 -0.39872 
0.221331 -0.0347315 -0.241039 0.283338 -0.00894904 -0.3053 0.305143 -0.00619036 -0.303765 
0.324206 -0.0447049 -0.32995 0.290484 -0.00884208 -0.330759 0.313925 -0.0159427 -0.367297 
0.316575 -0.0367172 -0.295407 0.216149 -0.00570081 -0.231318 0.293378 -0.03163 -0.323836 
0.280252 -0.0343734 -0.296157 0.257248 -0.00792984 -0.258088 0.213731 -0.0239822 -0.239909 
0.25063 -0.0442308 -0.248796 0.292785 -0.0323309 -0.345862 0.208354 -0.03257 -0.224771 
0.284818 -0.0208109 -0.271493 0.312421 -0.0294963 -0.34861 0.276013 -0.0327471 -0.282015 
0.206025 -0.0215031 -0.225969 0.286488 -0.0231499 -0.322865 0.275104 -0.0231726 -0.277327 
0.262004 -0.0448147 -0.259252 0.276759 -0.0286443 -0.26738 0.236619 -0.0391123 -0.243642 
0.308812 -0.0132623 -0.273382 0.271306 -0.0283457 -0.256587 0.291839 -0.0280707 -0.290934 
0.298592 -0.0305639 -0.312913 0.250403 -0.00556448 -0.238877 0.222119 -0.0451441 -0.236117 
0.214768 -0.0163654 -0.231796 0.260972 -0.0318648 -0.28343 0.229832 -0.0297263 -0.239906 
0.262355 -0.0355212 -0.265878 0.300726 -0.0368775 -0.270264 0.208906 -0.00671732 -0.222112 
0.283807 -0.0326201 -0.255696 0.293912 -0.00952312 -0.294717 0.253664 -0.0226538 -0.278085 
0.222415 -0.0368651 -0.231182 0.272374 -0.0175896 -0.268766 0.208705 -0.0442721 -0.226963 
0.266375 -0.0225094 -0.247301 0.241376 -0.0233662 -0.237578 0.246708 -0.0370981 -0.241303 
0.257917 -0.0150662 -0.245888 0.214857 -0.0263237 -0.230276 0.23954 -0.0066454 -0.232529 
0.22695 -0.0449088 -0.226995 0.238609 -0.0155165 -0.24331 0.250351 -0.0450064 -0.275464 
0.245597 -0.0219422 -0.250255 0.225852 -0.0170799 -0.231457 0.264089 -0.0190402 -0.260269 
0.219734 -0.0155302 -0.222724 0.235932 -0.0446826 -0.235246 0.278828 -0.0100793 -0.258014 
0.265723 -0.0436957 -0.242944 0.260601 -0.0117458 -0.23673 0.264401 -0.00677125 -0.272081 
0.24289 -0.0174976 -0.230328 0.221281 -0.0166737 -0.212613 0.232697 -0.0238163 -0.2206 
0.217105 -0.0442545 -0.220757 0.233926 -0.026953 -0.231392 0.240282 -0.0315863 -0.224422 
0.249523 -0.0161811 -0.239179 0.25743 -0.0336757 -0.242026 0.216764 -0.0268316 -0.217148 
0.231403 -0.0139983 -0.221821 0.206558 -0.0156296 -0.214446 0.222377 -0.0356771 -0.221774 
0.2469 -0.0437304 -0.2333 0.241497 -0.0414438 -0.224393 0.224332 -0.0265522 -0.227262 
0.253106 -0.0248393 -0.244155 0.215241 -0.00474032 -0.213993 0.24394 -0.00680499 -0.219063 
0.228982 -0.0416754 -0.21638 0.208781 -0.0353438 -0.215228 0.220555 -0.015536 -0.188048 
0.23155 -0.0168682 -0.212333 0.243019 -0.00911795 -0.182402 0.229451 -0.00951585 -0.179032 
0.246106 -0.0168942 -0.205143 0.219139 -0.0315403 -0.199729 0.209916 -0.0449987 -0.213109 
0.249252 -0.0248752 -0.193058 0.249517 -0.036276 -0.204646 0.212917 -0.0345885 -0.180861 
0.225822 -0.00522314 -0.206006 0.211607 -0.00769405 -0.185257 0.236053 -0.0319911 -0.199071 
0.226825 -0.0410672 -0.198343 0.241844 -0.00652481 -0.204411 0.216934 -0.0105379 -0.206236 
0.243175 -0.0434765 -0.188262 0.235774 -0.0218941 -0.187656 0.223848 -0.0326805 -0.180755 
0.212023 -0.0188911 -0.200447 0.232494 -0.0388328 -0.163672 0.243816 -0.0232015 -0.168128 
0.213514 -0.0242577 -0.177296 0.219498 -0.00535671 -0.149226 0.212796 -0.0121182 -0.15644 
0.211848 -0.0275037 -0.155386 0.219221 -0.037359 -0.142594 0.245034 -0.0312594 -0.149776 
0.231481 -0.015344 -0.155759 0.245019 -0.00556751 -0.143517 0.233391 -0.0281452 -0.154054 
0.244749 -0.0449806 -0.160385 0.231333 -0.0447181 -0.141137 0.221406 -0.025629 -0.15072 
0.222958 -0.0146693 -0.145846 0.219037 -0.0430729 -0.162205 0.248139 -0.00742275 -0.161241 
0.24486 -0.0334175 -0.168696 0.234968 -0.0315079 -0.177908 0.232212 -0.00522222 -0.146671 
0.219591 -0.0397459 -0.108504 0.234653 -0.0261522 -0.116119 0.217253 -0.0244055 -0.106483 
0.247936 -0.0217615 -0.136386 0.23957 -0.0448304 -0.127368 0.225617 -0.013971 -0.12508 
0.212302 -0.00879119 -0.124474 0.229816 -0.00560949 -0.11762 0.238161 -0.0234197 -0.131982 
0.224122 -0.0245011 -0.118939 0.249315 -0.0382876 -0.124566 0.21072 -0.0255212 -0.137036 
0.212185 -0.043082 -0.132876 0.245393 -0.0308043 -0.11038 0.246779 -0.0192433 -0.110299 
0.235037 -0.0384427 -0.105761 0.227486 -0.0432281 -0.118923 0.241056 -0.00998004 -0.114412 
0.231251 -0.0351322 -0.127692 0.214946 -0.0149503 -0.111747 0.246097 -0.00697483 -0.085689 
0.21879 -0.0391247 -0.0783833 0.245426 -0.0391927 -0.0899494 0.233544 -0.0364364 -0.0867454 
0.223166 -0.00921418 -0.102733 0.215415 -0.0177014 -0.0848642 0.215619 -0.00697456 -0.0822365 
0.229882 -0.00587143 -0.0768447 0.233851 -0.0218029 -0.0759051 0.222918 -0.0259384 -0.0920618 
0.214022 -0.0273586 -0.0772271 0.227247 -0.0297107 -0.0791688 0.248363 -0.0307084 -0.0779199 
0.239548 -0.0294975 -0.0944599 0.22913 -0.0140515 -0.0877467 0.211009 -0.0439958 -0.0939372 
0.243968 -0.0176767 -0.0784669 0.248872 -0.00604561 -0.104725 0.238676 -0.0438023 -0.0779198 
0.212739 -0.0333224 -0.100502 0.249772 -0.0365465 -0.052187 0.228915 -0.0180516 -0.0545299 
0.238036 -0.044866 -0.0527041 0.232198 -0.0348609 -0.0520732 0.236009 -0.03518 -0.0713295 
0.211079 -0.00875542 -0.0582424 0.221777 -0.0412358 -0.0547221 0.214698 -0.0328941 -0.0593167 
0.227723 -0.0441729 -0.0719441 0.219415 -0.00963432 -0.0488626 0.244297 -0.0220927 -0.0511907 
0.220993 -0.0260716 -0.0486525 0.223175 -0.00626009 -0.0649133 0.241215 -0.0202928 -0.0638162 
0.233371 -0.00841637 -0.0510352 0.21658 -0.0229966 -0.0629266 0.211369 -0.0432938 -0.0689812 
0.241975 -0.00635772 -0.0579299 0.226147 -0.0268858 -0.065125 0.244429 -0.0322123 -0.0642508 
0.241845 -0.0276316 -0.0363781 0.222932 -0.0138397 -0.0286521 0.239363 -0.0133639 -0.0330525 
0.212223 -0.0396908 -0.0254185 0.245269 -0.042708 -0.0304822 0.211679 -0.0181319 -0.0444092 
0.231412 -0.0439375 -0.0429579 0.223579 -0.0402721 -0.0324639 0.247653 -0.0118652 -0.0438598 
0.231694 -0.0344254 -0.0297813 0.210714 -0.042794 -0.0474904 0.212792 -0.0139673 -0.0295011 
0.23437 -0.0434379 -0.0259321 0.241085 -0.0319293 -0.0251826 0.228403 -0.0230717 -0.033177 
0.215683 -0.0286081 -0.0305099 0.231258 -0.00656251 -0.0251164 0.249728 -0.0209895 -0.0323034 
0.240207 -0.0375411 -0.0386723 0.246906 -0.0097555 -0.0256548 0.218758 -0.0192461 -0.0204407 
0.22347 -0.0239132 -0.0116932 0.227285 -0.0125341 -0.0171904 0.234705 -0.0277703 -0.00981165 
0.240215 -0.0209493 -0.0147739 0.212641 -0.0106498 -0.0112828 0.246657 -0.0390692 -0.0203081 
0.246488 -0.0281392 -0.00979705 0.215531 -0.0348766 -0.0119924 0.238564 -0.0129266 -0.00564514 
0.248659 -0.0263109 -0.0206991 0.241399 -0.0419343 -0.01187 0.226813 -0.037614 -0.0160125 
0.211136 -0.043427 -0.01577 0.24613 -0.00888427 -0.0109487 0.222426 -0.00895607 -0.0057244 
0.224795 -0.0280399 -0.0226166 0.23273 -0.0216566 -0.0216889 0.231219 -0.0409913 -0.00683105 
0.210703 -0.0244908 -0.0160339 
VERTICES 400 800
1 0 
1 1 
1 2 
1 3 
1 4 
1 5 
1 6 
1 7 
1 8 
1 9 
1 10 
1 11 
1 12 
1 13 
1 14 
1 15 
1 16 
1 17 
1 18 
1 19 
1 20 
1 21 
1 22 
1 23 
1 24 
1 25 
1 26 
1 27 
1 28 
1 29 
1 30 
1 31 
1 32 
1 33 
1 34 
1 35 
1 36 
1 37 
1 38 
1 39 
1 40 
1 41 
1 42 
1 43 
1 44 
1 45 
1 46 
1 47 
1 48 
1 49 
1 50 
1 51 
1 52 
1 53 
1 54 
1 55 
1 56 
1 57 
1 58 
1 59 
1 60 
1 61 
1 62 
1 63 
1 64 
1 65 
1 66 
1 67 
1 68 
1 69 
1 70 
1 71 
1 72 
1 73 
1 74 
1 75 
1 76 
1 77 
1 78 
1 79 
1 80 
1 81 
1 82 
1 83 
1 84 
1 85 
1 86 
1 87 
1 88 
1 89 
1 90 
1 91 
1 92 
1 93 
1 94 
1 95 
1 96 
1 97 
1 98 
1 99 
1 100 
1 101 
1 102 
1 103 
1 104 
1 105 
1 106 
1 107 
1 108 
1 109 
1 110 
1 111 
1 112 
1 113 
1 114 
1 115 
1 116 
1 117 
1 118 
1 119 
1 120 
1 121 
1 122 
1 123 
1 124 
1 125 
1 126 
1 127 
1 128 
1 129 
1 130 
1 131 
1 132 
1 133 
1 134 
1 135 
1 136 
1 137 
1 138 
1 139 
1 140 
1 141 
1 142 
1 143 
1 144 
1 145 
1 146 
1 147 
1 148 
1 149 
1 150 
1 151 
1 152 
1 153 
1 154 
1 155 
1 156 
1 157 
1 158 
1 159 
1 160 
1 161 
1 162 
1 163 
1 164 
1 165 
1 166 
1 167 
1 168 
1 169 
1 170 
1 171 
1 172 
1 173 
1 174 
1 175 
1 176 
1 177 
1 178 
1 179 
1 180 
1 181 
1 182 
1 183 
1 184 
1 185 
1 186 
1 187 
1 188 
1 189 
1 190 
1 191 
1 192 
1 193 
1 194 
1 195 
1 196 
1 197 
1 198 
1 199 
1 200 
1 201 
1 202 
1 203 
1 204 
1 205 
1 206 
1 207 
1 208 
1 209 
1 210 
1 211 
1 212 
1 213 
1 214 
1 215 
1 216 
1 217 
1 218 
1 219 
1 220 
1 221 
1 222 
1 223 
1 224 
1 225 
1 226 
1 227 
1 228 
1 229 
1 230 
1 231 
1 232 
1 233 
1 234 
1 235 
1 236 
1 237 
1 238 
1 239 
1 240 
1 241 
1 242 
1 243 
1 244 
1 245 
1 246 
1 247 
1 248 
1 249 
1 250 
1 251 
1 252 
1 253 
1 254 
1 255 
1 256 
1 257 
1 258 
1 259 
1 260 
1 261 
1 262 
1 263 
1 264 
1 265 
1 266 
1 267 
1 268 
1 269 
1 270 
1 271 
1 272 
1 273 
1 274 
1 275 
1 276 
1 277 
1 278 
1 279 
1 280 
1 281 
1 282 
1 283 
1 284 
1 285 
1 286 
1 287 
1 288 
1 289 
1 290 
1 291 
1 292 
1 293 
1 294 
1 295 
1 296 
1 297 
1 298 
1 299 
1 300 
1 301 
1 302 
1 303 
1 304 
1 305 
1 306 
1 307 
1 308 
1 309 
1 310 
1 311 
1 312 
1 313 
1 314 
1 315 
1 316 
1 317 
1 318 
1 319 
1 320 
1 321 
1 322 
1 323 
1 324 
1 325 
1 326 
1 327 
1 328 
1 329 
1 330 
1 331 
1 332 
1 333 
1 334 
1 335 
1 336 
1 337 
1 338 
1 339 
1 340 
1 341 
1 342 
1 343 
1 344 
1 345 
1 346 
1 347 
1 348 
1 349 
1 350 
1 351 
1 352 
1 353 
1 354 
1 355 
1 356 
1 357 
1 358 
1 359 
1 360 
1 361 
1 362 
1 363 
1 364 
1 365 
1 366 
1 367 
1 368 
1 369 
1 370 
1 371 
1 372 
1 373 
1 374 
1 375 
1 376 
1 377 
1 378 
1 379 
1 380 
1 381 
1 382 
1 383 
1 384 
1 385 
1 386 
1 387 
1 388 
1 389 
1 390 
1 391 
1 392 
1 393 
1 394 
1 395 
1 396 
1 397 
1 398 
1 399 

POINT_DATA 400
FIELD FieldData 7
id 1 400 int
1 2 3 4 5 6 7 8 9 
10 11 12 13 14 15 16 17 18 
19 20 21 22 23 24 25 26 27 
28 29 30 31 32 33 34 35 36 
37 38 39 40 41 42 43 44 45 
46 47 48 49 50 51 52 53 54 
55 56 57 58 59 60 61 62 63 
64 65 66 67 68 69 70 71 72 
73 74 75 76 77 78 79 80 81 
82 83 84 85 86 87 88 89 90 
91 92 93 94 95 96 97 98 99 
100 101 102 103 104 105 106 107 108 
109 110 111 112 113 114 115 116 117 
118 119 120 121 122 123 124 125 126 
127 128 129 130 131 132 133 134 135 
136 137 138 139 140 141 142 143 144 
145 146 147 148 149 150 151 152 153 
154 155 156 157 158 159 160 161 162 
163 164 165 166 167 168 169 170 171 
172 173 174 175 176 177 178 179 180 
181 182 183 184 185 186 187 188 189 
190 191 192 193 194 195 196 197 198 
199 200 201 202 203 204 205 206 207 
208 209 210 211 212 213 214 215 216 
217 218 219 220 221 222 223 224 225 
226 227 228 229 230 231 232 233 234 
235 236 237 238 239 240 241 242 243 
244 245 246 247 248 249 250 251 252 
253 254 255 256 257 258 259 260 261 
262 263 264 265 266 267 268 269 270 
271 272 273 274 275 276 277 278 279 
280 281 282 283 284 285 286 287 288 
289 290 291 292 293 294 295 296 297 
298 299 300 301 302 303 304 305 306 
307 308 309 310 311 312 313 314 315 
316 317 318 319 320 321 322 323 324 
325 326 327 328 329 330 331 332 333 
334 335 336 337 338 339 340 341 342 
343 344 345 346 347 348 349 350 351 
352 353 354 355 356 357 358 359 360 
361 362 363 364 365 366 367 368 369 
370 371 372 373 374 375 376 377 378 
379 380 381 382 383 384 385 386 387 
388 389 390 391 392 393 394 395 396 
397 398 399 400 
type 1 400 int
1 1 1 1 1 1 1 1 1 
1 1 1 1 1 1 1 1 1 
1 1 1 1 1 1 1 1 1 
1 1 1 1 1 1 1 1 1 
1 1 1 1 1 1 1 1 1 
1 1 1 1 1 1 1 1 1 
1 1 1 1 1 1 1 1 1 
1 1 1 1 1 1 1 1 1 
1 1 1 1 1 1 1 1 1 
1 1 1 1 1 1 1 1 1 
1 1 1 1 1 1 1 1 1 
1 1 1 1 1 1 1 1 1 
1 1 1 1 1 1 1 1 1 
1 1 1 1 1 1 1 1 1 
1 1 1 1 1 1 1 1 1 
1 1 1 1 1 1 1 1 1 
1 1 1 1 1 1 1 1 1 
1 1 1 1 1 1 1 1 1 
1 1 1 1 1 1 1 1 1 
1 1 1 1 1 1 1 1 1 
1 1 1 1 1 1 1 1 1 
1 1 1 1 1 1 1 1 1 
1 1 1 1 1 1 1 1 1 
1 1 1 1 1 1 1 1 1 
1 1 1 1 1 1 1 1 1 
1 1 1 1 1 1 1 1 1 
1 1 1 1 1 1 1 1 1 
1 1 1 1 1 1 1 1 1 
1 1 1 1 1 1 1 1 1 
1 1 1 1 1 1 1 1 1 
1 1 1 1 1 1 1 1 1 
1 1 1 1 1 1 1 1 1 
1 1 1 1 1 1 1 1 1 
1 1 1 1 1 1 1 1 1 
1 1 1 1 1 1 1 1 1 
1 1 1 1 1 1 1 1 1 
1 1 1 1 1 1 1 1 1 
1 1 1 1 1 1 1 1 1 
1 1 1 1 1 1 1 1 1 
1 1 1 1 1 1 1 1 1 
1 1 1 1 1 1 1 1 1 
1 1 1 1 1 1 1 1 1 
1 1 1 1 1 1 1 1 1 
1 1 1 1 1 1 1 1 1 
1 1 1 1 
i 3 400 int
0 0 0 0 0 0 0 0 0 
0 0 0 0 0 0 0 0 0 
0 0 0 0 0 0 0 0 0 
0 0 0 0 0 0 0 0 0 
0 0 0 0 0 0 0 0 0 
0 0 0 0 0 0 0 0 0 
0 0 0 0 0 0 0 0 0 
0 0 0 0 0 0 0 0 0 
0 0 0 0 0 0 0 0 0 
0 0 0 0 0 0 0 0 0 
0 0 0 0 0 0 0 0 0 
0 0 0 0 0 0 0 0 0 
0 0 0 0 0 0 0 0 0 
0 0 0 0 0 0 0 0 0 
0 0 0 0 0 0 0 0 0 
0 0 0 0 0 0 0 0 0 
0 0 0 0 0 0 0 0 0 
0 0 0 0 0 0 0 0 0 
0 0 0 0 0 0 0 0 0 
0 0 0 0 0 0 0 0 0 
0 0 0 0 0 0 0 0 0 
0 0 0 0 0 0 0 0 0 
0 0 0 0 0 0 0 0 0 
0 0 0 0 0 0 0 0 0 
0 0 0 0 0 0 0 0 0 
0 0 0 0 0 0 0 0 0 
0 0 0 0 0 0 0 0 0 
0 0 0 0 0 0 0 0 0 
0 0 0 0 0 0 0 0 0 
0 0 0 0 0 0 0 0 0 
0 0 0 0 0 0 0 0 0 
0 0 0 0 0 0 0 0 0 
0 0 0 0 0 0 0 0 0 
0 0 0 0 0 0 0 0 0 
0 0 0 0 0 0 0 0 0 
0 0 0 0 0 0 0 0 0 
0 0 0 0 0 0 0 0 0 
0 0 0 0 0 0 0 0 0 
0 0 0 0 0 0 0 0 0 
0 0 0 0 0 0 0 0 0 
0 0 0 0 0 0 0 0 0 
0 0 0 0 0 0 0 0 0 
0 0 0 0 0 0 0 0 0 
0 0 0 0 0 0 0 0 0 
0 0 0 0 0 0 0 0 0 
0 0 0 0 0 0 0 0 0 
0 0 0 0 0 0 0 0 0 
0 0 0 0 0 0 0 0 0 
0 0 0 0 0 0 0 0 0 
0 0 0 0 0 0 0 0 0 
0 0 0 0 0 0 0 0 0 
0 0 0 0 0 0 0 0 0 
0 0 0 0 0 0 0 0 0 
0 0 0 0 0 0 0 0 0 
0 0 0 0 0 0 0 0 0 
0 0 0 0 0 0 0 0 0 
0 0 0 0 0 0 0 0 0 
0 0 0 0 0 0 0 0 0 
0 0 0 0 0 0 0 0 0 
0 0 0 0 0 0 0 0 0 
0 0 0 0 0 0 0 0 0 
0 0 0 0 0 0 0 0 0 
0 0 0 0 0 0 0 0 0 
0 0 0 0 0 0 0 0 0 
0 0 0 0 0 0 0 0 0 
0 0 0 0 0 0 0 0 0 
0 0 0 0 0 0 0 0 0 
0 0 0 0 0 0 0 0 0 
0 0 0 0 0 0 0 0 0 
0 0 0 0 0 0 0 0 0 
0 0 0 0 0 0 0 0 0 
0 0 0 0 0 0 0 0 0 
0 0 0 0 0 0 0 0 0 
0 0 0 0 0 0 0 0 0 
0 0 0 0 0 0 0 0 0 
0 0 0 0 0 0 0 0 0 
0 0 0 0 0 0 0 0 0 
0 0 0 0 0 0 0 0 0 
0 0 0 0 0 0 0 0 0 
0 0 0 0 0 0 0 0 0 
0 0 0 0 0 0 0 0 0 
0 0 0 0 0 0 0 0 0 
0 0 0 0 0 0 0 0 0 
0 0 0 0 0 0 0 0 0 
0 0 0 0 0 0 0 0 0 
0 0 0 0 0 0 0 0 0 
0 0 0 0 0 0 0 0 0 
0 0 0 0 0 0 0 0 0 
0 0 0 0 0 0 0 0 0 
0 0 0 0 0 0 0 0 0 
0 0 0 0 0 0 0 0 0 
0 0 0 0 0 0 0 0 0 
0 0 0 0 0 0 0 0 0 
0 0 0 0 0 0 0 0 0 
0 0 0 0 0 0 0 0 0 
0 0 0 0 0 0 0 0 0 
0 0 0 0 0 0 0 0 0 
0 0 0 0 0 0 0 0 0 
0 0 0 0 0 0 0 0 0 
0 0 0 0 0 0 0 0 0 
0 0 0 0 0 0 0 0 0 
0 0 0 0 0 0 0 0 0 
0 0 0 0 0 0 0 0 0 
0 0 0 0 0 0 0 0 0 
0 0 0 0 0 0 0 0 0 
0 0 0 0 0 0 0 0 0 
0 0 0 0 0 0 0 0 0 
0 0 0 0 0 0 0 0 0 
0 0 0 0 0 0 0 0 0 
0 0 0 0 0 0 0 0 0 
0 0 0 0 0 0 0 0 0 
0 0 0 0 0 0 0 0 0 
0 0 0 0 0 0 0 0 0 
0 0 0 0 0 0 0 0 0 
0 0 0 0 0 0 0 0 0 
0 0 0 0 0 0 0 0 0 
0 0 0 0 0 0 0 0 0 
0 0 0 0 0 0 0 0 0 
0 0 0 0 0 0 0 0 0 
0 0 0 0 0 0 0 0 0 
0 0 0 0 0 0 0 0 0 
0 0 0 0 0 0 0 0 0 
0 0 0 0 0 0 0 0 0 
0 0 0 0 0 0 0 0 0 
0 0 0 0 0 0 0 0 0 
0 0 0 0 0 0 0 0 0 
0 0 0 0 0 0 0 0 0 
0 0 0 0 0 0 0 0 0 
0 0 0 0 0 0 0 0 0 
0 0 0 0 0 0 0 0 0 
0 0 0 0 0 0 0 0 0 
0 0 0 0 0 0 0 0 0 
0 0 0 0 0 0 0 0 0 
0 0 0 
v 3 400 double
1.03087 0.265233 -2.33272 0.885953 -0.122164 -4.24324 0.0269997 -0.0394617 -4.16549 
0.0311685 0.0103129 -3.61483 -0.472737 -0.102496 -3.62388 0.334813 0.0678082 -3.03715 
0.159154 -0.266675 -3.00025 -0.439286 0.071754 -4.25151 -0.254676 0.0314548 -4.51438 
-0.184026 0.101425 -4.67957 0.633797 -0.104901 -4.23819 0.239626 0.204377 -3.45586 
0.0936267 0.338417 -4.28423 0.295662 0.19408 -3.9673 -0.591704 0.098414 -4.15447 
0.198931 -0.0946294 0.0265032 0.544108 0.104902 -3.59729 0.0580593 0.0628661 -3.55417 
0.667199 0.0325219 -1.7565 0.0182236 -0.160684 -3.34663 -0.128484 -0.279817 -2.60842 
0.629681 -0.125922 -2.97018 0.280483 0.122764 -3.65457 0.0244025 -0.223647 -3.47438 
0.0319781 -0.0908886 0.141028 0.210034 0.0259608 -3.46317 0.257869 0.0613439 -3.4909 
0.444193 -0.00202785 -3.08584 0.455508 0.0704324 -3.44777 0.203948 0.0482406 0.103537 
0.00255299 -0.134429 -3.88563 0.556639 -0.0505894 -3.51202 0.338361 0.0595316 -0.279735 
-0.152811 0.182814 -3.60031 -0.100724 -0.333116 -0.0460822 0.319363 0.34665 0.0658772 
0.164131 0.0724173 -2.89107 -0.319874 -0.0230939 -4.19156 0.0894149 -0.225758 -3.38305 
0.232552 0.13039 -3.94075 -0.0617224 0.0208882 -0.0245184 -0.128089 0.155398 -3.58996 
-0.100028 -0.156256 -2.78862 0.377847 -0.0106309 -3.23476 -0.287782 0.0595503 -3.28132 
0.284249 0.192088 -2.46737 -0.128294 0.102045 -2.59324 0.100409 0.0457749 -3.4286 
0.475728 0.0551841 -2.69486 0.174321 -0.0914642 -3.00922 0.72984 0.0507029 -3.15362 
0.11051 -0.151658 -3.18 0.349466 -0.304777 -3.19012 0.0295198 -0.00804628 -2.6962 
0.0142564 0.197241 -3.3382 0.20939 0.110352 -3.43326 0.0718063 -0.0956245 -0.191838 
-0.341209 -0.0942536 -3.66757 0.0536095 -0.147767 -2.86278 1.16324 -0.0384222 -2.05484 
0.0867685 0.0554622 -2.94119 0.41006 -0.00759949 -2.57812 0.302324 0.0289082 -2.9703 
0.337148 -0.147076 -0.720331 -0.106281 -0.151717 -2.38349 0.437343 -0.335091 -2.81619 
0.0268485 0.148644 -2.9149 0.309958 -0.210424 -3.07563 0.390869 0.196015 -3.48885 
-0.0992584 -0.126742 -2.70855 0.385903 0.0941588 -2.26373 0.135339 -0.0787443 -3.16337 
0.694052 -0.0741046 -2.18182 0.210281 0.30397 -2.76476 0.711798 0.197526 -2.75345 
0.178566 -0.254898 -3.30328 0.729085 -0.112998 -1.33413 0.615182 0.254778 -3.10689 
0.176207 -0.0477469 -3.00728 0.309094 0.195729 -2.81035 0.0307859 -0.041499 -3.03985 
-0.242193 -0.149766 -2.67838 1.10834 -0.0524332 -1.77815 -0.0628408 0.0643416 -2.32575 
-0.0402643 -0.0482013 0.210394 0.290539 -0.00972513 -2.12708 -0.0611159 0.136711 -2.77027 
0.0907103 -0.134381 0.0487998 0.460504 0.00071318 -2.63091 0.227597 -0.523904 -2.58794 
0.149924 0.115156 -2.44233 0.701943 0.244405 -2.07567 0.22964 -0.22296 -3.07777 
-0.123772 0.107474 -2.6497 -0.236887 0.19668 -2.6491 0.291772 -0.0242495 -2.51415 
0.788391 0.0133508 -1.03701 0.410105 -0.100074 -2.9948 0.110411 -0.0558644 -0.0748864 
0.582346 -0.0576323 -2.44384 0.705107 -0.34418 -2.49641 0.0222295 -0.0611362 0.0037006 
0.109187 0.141508 -2.55197 0.962462 -0.0307434 -2.06129 0.681208 -0.12542 -1.8701 
-0.193913 0.177174 -2.6926 0.281929 0.123658 -2.51118 -0.155029 -0.310356 -2.65105 
0.644769 -0.126984 -2.09183 0.802985 -0.0348147 -1.39167 0.992308 0.014781 -1.6667 
0.00205415 -0.095003 -2.3818 0.182776 -0.237038 -2.4549 1.11091 -0.0596974 -2.03837 
-0.326072 -0.414021 -2.41879 0.044912 0.0474999 -2.95414 0.136965 0.280086 0.098155 
0.78376 -0.175741 -2.35365 0.306468 -0.146217 -2.4106 0.516643 -0.249332 -0.888734 
0.171414 0.0997608 -1.51958 0.810115 0.502709 -1.33133 0.564948 -0.389987 -2.51966 
1.18998 0.0286366 -1.17843 -0.0230638 -0.186738 -2.2083 0.229743 -0.0384786 -0.611641 
-0.00661198 0.0243801 0.117116 0.623157 0.437547 -2.33313 0.845148 -0.0816368 -2.26089 
1.16524 0.360488 -1.96663 0.772668 0.124315 -2.43687 0.677321 -0.0472825 -2.18562 
1.12593 0.0368037 -2.12371 0.276556 0.142597 -1.9623 0.905046 0.0159249 -1.46382 
0.778673 0.0558139 -1.56978 0.325324 0.226765 -1.87027 0.590191 -0.154016 -2.61098 
0.851331 -0.0961853 -2.31076 0.367795 0.146398 0.507884 1.22339 0.251255 -2.05089 
0.815845 -0.119121 -1.86891 0.949321 0.0558 -2.32925 0.279834 0.293216 -2.1207 
1.14319 0.143998 -1.82755 1.24065 0.0892531 -1.97201 0.989997 0.0143884 -1.95601 
0.359739 -0.594849 0.288449 0.449642 0.150605 -1.93198 1.00243 0.00487689 -1.38357 
0.953392 0.15695 -1.77109 0.857291 -0.225159 -1.44765 0.04365 0.0750429 -1.77763 
0.896912 -0.100137 -1.7414 -0.121167 -0.0308748 0.177668 0.101494 0.277339 -2.17499 
0.809332 -0.0262499 -1.41688 0.578873 -0.0549963 -1.83116 0.0277844 0.150087 -2.56041 
1.05406 -0.147734 -1.92607 0.986498 -0.400659 -1.89079 0.824998 -0.0793581 -2.06203 
-0.526678 -0.0533346 -2.0018 0.538195 -0.160334 -0.61344 1.04879 -0.398071 -1.95338 
1.0739 0.187894 -1.4151 0.99399 -0.0888764 -2.11907 0.75151 -0.11422 -1.29188 
0.392759 0.25395 -1.98363 1.16946 -0.0369546 -1.75324 0.643858 -0.359664 -1.24201 
0.97391 0.0538865 -1.51498 0.0750248 0.134458 -0.248922 0.99561 -0.515312 -2.00896 
1.05399 -0.0756763 -1.93416 0.941367 0.0881313 -1.46385 0.658041 0.300158 -0.900974 
1.22939 -0.080355 -2.00631 0.687466 0.173208 -1.13694 1.12416 0.146765 -2.20304 
0.41132 -0.156328 -0.470369 0.810749 -0.10917 -1.54285 1.30866 -0.401899 -1.74327 
1.32671 0.044454 -2.06532 0.861436 -0.144077 -1.78828 0.836201 0.00772816 -2.28699 
1.20975 -0.237134 -1.47774 0.0881321 0.0164733 -0.125567 0.96193 0.103814 -1.82997 
1.17643 0.144085 -1.45893 0.821813 0.0660061 -1.0785 0.0909891 0.0250701 0.129818 
0.953001 0.0969989 -1.1756 1.16423 0.121236 -1.52771 -0.319636 0.354072 -0.622351 
1.21113 0.0745129 -1.24694 1.01745 -0.0783388 -2.15138 1.07272 -0.288044 -1.61998 
0.133364 -0.347126 0.00300282 0.896159 -0.0308284 -1.63724 1.10126 -0.299172 -1.25576 
0.904068 -0.152224 -1.5611 1.10114 -0.0503617 -1.31625 0.428372 0.121325 -0.759734 
0.58993 -0.0326467 -1.72398 1.32333 -0.0251782 -0.739693 1.11047 0.00422336 -1.64307 
1.09622 -0.40142 -1.68294 1.21676 0.0171214 -0.597576 0.182124 -0.25776 0.0870047 
0.199053 0.342529 -0.0261762 1.17438 0.0176753 -1.09523 0.618903 -0.1695 -1.34811 
1.08906 0.177597 -1.55163 1.22224 0.0480044 -1.05364 0.0994311 0.26525 -0.0678519 
1.10116 0.229308 -0.742776 1.44011 -0.121038 -1.90803 0.541073 -0.361892 -1.66996 
0.172695 0.206711 -1.02124 0.915499 -0.336038 -1.8205 0.0939332 0.120599 0.535423 
1.39526 0.209267 -1.18005 0.790854 -0.240905 -0.844157 0.499307 -0.357118 -0.827551 
1.12445 0.312746 -1.0687 -0.162498 0.248458 -0.0616572 0.305163 0.125379 -0.821467 
0.180324 -0.024773 -0.225803 0.83715 -0.135612 -0.93577 0.47565 -0.0500465 -1.59499 
0.467083 0.390497 -1.44003 0.379192 0.383694 -0.555571 1.04278 -0.145623 -1.51871 
0.339328 0.263387 -0.0889719 0.307473 0.141893 -0.468814 1.22041 -0.00131812 -1.66003 
0.885531 -0.263035 -1.00673 0.915475 -0.394153 -0.853355 0.813167 -0.0256651 -1.53927 
0.830885 0.516453 -0.982659 1.0388 -0.160888 -0.0909709 0.889203 0.188653 -0.956073 
0.699819 0.352219 -1.1048 0.241834 0.859808 -0.830785 0.770873 -0.367964 -1.18549 
1.24939 0.383168 -0.798116 0.930763 -0.198319 -1.59302 0.230986 -0.278813 -1.46664 
0.452915 0.309131 -0.521347 0.0756889 0.097286 0.157314 0.052125 -0.611103 -0.603531 
0.547307 0.14489 -0.512805 0.43497 0.325684 -0.482821 0.465244 0.44588 -1.05217 
0.688178 0.0756514 -1.20079 -0.173555 0.441063 -1.28145 0.611883 0.0334323 -0.326971 
0.190527 0.195713 -0.582796 -0.337813 0.225917 -0.447624 0 0 -2.07297 
0.0020549 -0.0110226 -2.14195 0 0 -2.04599 0 0 -2.0298 
0 0 -2.15243 0 0 -2.12741 -0.401493 0.611439 -0.992082 
0 0 -2.09651 0 0 -2.14998 0 0 -2.03863 
0 0 -2.15635 0 0 -2.05973 0 0 -2.12447 
0 0 -2.12104 0 0 -2.149 0.158247 -0.613841 -0.940508 
0 0 -2.07395 0 0 -2.07101 0 0 -2.03814 
0 0 -2.13085 0 0 -1.95427 0 0 -1.97634 
0 0 -2.02147 0 0 -1.8802 0 0 -1.91748 
0 0 -1.91208 0 0 -1.84538 0 0 -1.88315 
0 0 -1.91405 0 0 -1.85028 0 0 -1.90522 
0 0 -1.93759 0 0 -1.83753 0 0 -1.88805 
0 0 -1.86254 0 0 -1.94691 0 0 -1.94201 
0 0 -1.97928 0 0 -2.02441 0 0 -1.86696 
0 0 -1.65408 0 0 -1.69872 0 0 -1.64231 
0 0 -1.81202 0 0 -1.76248 0 0 -1.74973 
0 0 -1.7463 0 0 -1.70755 0 0 -1.78799 
0 0 -1.7149 0 0 -1.74679 0 0 -1.81546 
0 0 -1.79289 0 0 -1.66536 0 0 -1.66487 
0 0 -1.6379 0 0 -1.7149 0 0 -1.68891 
0 0 -1.76444 0 0 -1.67321 0 0 -1.51282 
0 0 -1.46475 0 0 -1.54029 0 0 -1.51968 
0 0 -1.61975 0 0 -1.50742 0 0 -1.49025 
0 0 -1.45445 0 0 -1.44807 0 0 -1.55353 
0 0 -1.4569 0 0 -1.47014 0 0 -1.46181 
0 0 -1.56873 0 0 -1.52606 0 0 -1.5653 
0 0 -1.46524 0 0 -1.63152 0 0 -1.46181 
0 0 -1.60601 0 0 -1.27738 0 0 -1.29504 
0 0 -1.2813 0 0 -1.2764 0 0 -1.41668 
0 0 -1.32299 0 0 -1.29651 0 0 -1.33084 
0 0 -1.42109 0 0 -1.25138 0 0 -1.26953 
0 0 -1.24991 0 0 -1.37155 0 0 -1.36371 
0 0 -1.26855 0 0 -1.35733 0 0 -1.40049 
0 0 -1.32054 0 0 -1.37303 0 0 -1.36665 
0 0 -1.14936 0 0 -1.08167 0 0 -1.12091 
0 0 -1.05175 0 0 -1.09785 0 0 -1.21607 
0 0 -1.20429 0 0 -1.11551 0 0 -1.21165 
0 0 -1.09197 0 0 -1.24059 0 0 -1.08903 
0 0 -1.05665 0 0 -1.04979 0 0 -1.12189 
0 0 -1.09835 0 0 -1.0488 0 0 -1.11404 
0 0 -1.16898 0 0 -1.0542 0 0 -1.00417 
-0 -0 -1 -0 -0 -1 -0 -0 -1 
-0 -0 -1 -0 -0 -1 0 0 -1.00319 
-0 -0 -1 -0 -0 -1 -0 -0 -1 
0 0 -1.00662 -0 -0 -1 -0 -0 -1 
-0 -0 -1 -0 -0 -1 -0 -0 -1 
0 0 -1.02526 0 0 -1.01643 -0 -0 -1 
-0 -0 -1 
f 3 400 double
0 0 -0.0128413 0 0 -0.0128413 0 0 -0.0128413 
0 0 -0.0128413 0 0 -0.0128413 0 0 -0.0128413 
0 0 -0.0128413 0 0 -0.0128413 0 0 -0.0128413 
0 0 -0.0128413 0 0 -0.0128413 0 0 -0.0128413 
0 0 -0.0128413 0 0 -0.0128413 0 0 -0.0128413 
0 0 -0.0128413 0 0 -0.0128413 0 0 -0.0128413 
0 0 -0.0128413 0 0 -0.0128413 0 0 -0.0128413 
0 0 -0.0128413 0 0 -0.0128413 0 0 -0.0128413 
-0.313939 -0.0786791 -0.00865761 0 0 -0.0128413 0 0 -0.0128413 
0 0 -0.0128413 0 0 -0.0128413 0 0 -0.0128413 
0 0 -0.0128413 0 0 -0.0128413 0.106784 0.44124 -0.0662729 
0 0 -0.0128413 0.409153 -0.208851 0.45244 0 0 -0.0128413 
0 0 -0.0128413 0 0 -0.0128413 0 0 -0.0128413 
0 0 -0.0128413 0.421991 0.371547 0.0827051 0 0 -0.0128413 
0 0 -0.0128413 0 0 -0.0128413 0 0 -0.0128413 
0 0 -0.0128413 0 0 -0.0128413 0 0 -0.0128413 
0 0 -0.0128413 0 0 -0.0128413 0 0 -0.0128413 