# vtk DataFile Version 4.0
Generated by LIGGGHTS
ASCII
DATASET POLYDATA
POINTS 500 float
0.466148 -0.0425747 -1.15076 0.463008 -0.00775164 -0.892898 0.25883 -0.0133761 -1.06733 
0.220613 -0.0425617 -1.06442 0.180128 -0.0216684 -0.889232 0.360247 -0.0409505 -1.12093 
0.297918 -0.00683257 -1.08805 0.188796 -0.0310601 -0.792411 0.263472 -0.0393291 -0.749543 
0.430488 -0.0110704 -0.864562 0.486099 -0.0298652 -0.812032 0.456698 -0.0271014 -1.19314 
0.276706 -0.0358354 -1.12979 0.49514 -0.0227836 -1.16013 0.13978 -0.0294631 -0.80369 
0.337124 -0.00771364 -0.431295 0.416844 -0.0440487 -0.973941 0.457716 -0.00519328 -1.18116 
0.353853 -0.00538329 -0.880806 0.446581 -0.00949146 -1.19406 0.122045 -0.038985 -1.17428 
0.480333 -0.0072994 -1.10062 0.46666 -0.00939059 -1.16986 0.304862 -0.0276299 -1.12743 
0.222151 -0.0171856 -0.245044 0.419991 -0.0399068 -1.16345 0.463779 -0.00810993 -1.18865 
0.455188 -0.0149434 -1.10787 0.472109 -0.0147128 -1.17651 0.303256 -0.0380984 -0.363019 
0.365937 -0.00476037 -1.17677 0.446904 -0.0220872 -1.03459 0.304897 -0.00546256 -0.369735 
0.419849 -0.00889917 -1.16758 0.214895 -0.0260777 -0.244875 0.351774 -0.00973484 -0.560739 
0.387526 -0.0227688 -1.05648 0.325357 -0.0321253 -1.15361 0.398108 -0.0150089 -1.16626 
0.426456 -0.026132 -1.12705 0.205201 -0.0149995 -0.245079 0.0896093 -0.0232283 -0.959499 
0.272192 -0.0317462 -1.08059 0.489873 -0.0383588 -1.16012 0.264042 -0.0195655 -0.956578 
0.463878 -0.0373191 -1.14046 0.321405 -0.0215781 -1.15995 0.349274 -0.00597249 -1.14316 
0.452977 -0.0386611 -1.19119 0.429968 -0.0130279 -1.17069 0.464664 -0.0114026 -1.00542 
0.447148 -0.0446867 -1.14584 0.385435 -0.033146 -1.16636 0.326965 -0.00774331 -1.14787 
0.288567 -0.0275891 -1.11963 0.219702 -0.0377314 -1.19491 0.253453 -0.0129811 -0.279382 
0.220729 -0.0356901 -0.897181 0.301097 -0.0389548 -1.05955 0.35529 -0.0197071 -1.08713 
0.380873 -0.039646 -1.17824 0.423344 -0.0163729 -1.19206 0.360151 -0.00612349 -1.12991 
0.33395 -0.0422188 -0.622057 0.319758 -0.0407814 -1.15424 0.494682 -0.0222745 -1.12961 
0.439438 -0.0063812 -1.17024 0.450994 -0.0361141 -1.17893 0.406717 -0.0102716 -1.17902 
0.246123 -0.0343316 -1.14816 0.450248 -0.0291297 -1.13695 0.402472 -0.0268131 -1.17646 
0.374518 -0.0138373 -1.10838 0.399831 -0.0350281 -1.18327 0.449468 -0.0130708 -1.12951 
0.477793 -0.00700179 -1.06805 0.369962 -0.0442128 -0.870562 0.455869 -0.00638678 -1.17041 
0.403169 -0.0252366 -1.11897 0.430198 -0.00520513 -1.15907 0.350988 -0.0360693 -1.09984 
0.157818 -0.0318893 -1.13453 0.40492 -0.0407026 -0.794199 0.345878 -0.0191219 -1.19212 
0.20492 -0.0350874 -0.244992 0.398567 -0.0446666 -1.10725 0.388101 -0.00554528 -1.06666 
0.363725 -0.042325 -0.551883 0.45152 -0.00768741 -1.08903 0.341198 -0.0100819 -1.16913 
0.313103 -0.0256111 -1.14689 0.493521 -0.0333286 -1.07938 0.304656 -0.00869912 -1.18594 
0.290846 -0.00700775 -1.1642 0.0782598 -0.0115577 -1.03208 0.378617 -0.00891596 -1.16133 
0.368262 -0.00915969 -0.743519 0.468292 -0.00983771 -1.06715 0.218963 -0.00606817 -0.244967 
0.400628 -0.0104191 -1.18944 0.398506 -0.0117781 -1.1238 0.205858 -0.0450335 -0.244936 
0.376714 -0.0311253 -1.18467 0.438629 -0.0146565 -1.04991 0.373932 -0.0130171 -1.02279 
0.23063 -0.019613 -1.16229 0.390334 -0.0226245 -1.19573 0.244039 -0.0306179 -1.1097 
0.425938 -0.0164459 -1.09993 0.367784 -0.014145 -0.844106 0.380413 -0.0362983 -0.953226 
0.369042 -0.0255061 -1.09786 0.48879 -0.0445003 -1.1784 0.415582 -0.00869308 -1.05328 
0.235372 -0.0055465 -1.17486 0.296162 -0.0404475 -1.16735 0.213779 -0.0157276 -0.239873 
0.415635 -0.0123307 -1.10318 0.448843 -0.0399797 -1.13367 0.344204 -0.0395087 -0.662466 
0.421852 -0.0255904 -0.965072 0.388071 -0.021085 -0.745366 0.430544 -0.0283528 -1.19175 
0.40592 -0.0236041 -0.752573 0.414943 -0.0171563 -0.997338 0.366037 -0.0279803 -0.60455 
0.204987 -0.0250302 -0.244718 0.439129 -0.0238501 -1.11758 0.413181 -0.043069 -1.0908 
0.367402 -0.0389596 -1.08225 0.406964 -0.0444705 -1.17119 0.443579 -0.0443683 -1.11723 
0.401724 -0.0446257 -1.01418 0.335902 -0.00777663 -0.971765 0.395031 -0.00565182 -0.905937 
0.389633 -0.044105 -0.834167 0.395644 -0.0214611 -1.1578 0.407958 -0.0182409 -1.10866 
0.43742 -0.0057593 -1.09652 0.363054 -0.0251279 -0.517 0.424378 -0.0115999 -1.06885 
0.445992 -0.0406062 -0.868884 0.433931 -0.0434598 -1.12015 0.426155 -0.0240145 -1.06426 
0.463999 -0.0319996 -0.993069 0.369414 -0.0386495 -1.03182 0.368996 -0.0207574 -0.989552 
0.356148 -0.0229026 -0.583284 0.392208 -0.00500249 -1.03492 0.388794 -0.0426382 -0.868063 
0.379177 -0.0120215 -0.93677 0.386382 -0.0430595 -0.821639 0.393959 -0.0328721 -1.01491 
0.409318 -0.0395114 -0.986549 0.223003 -0.0446489 -0.24508 0.360351 -0.0412363 -1.10036 
0.337878 -0.0152577 -0.811366 0.423919 -0.00942114 -1.00779 0.401163 -0.0453134 -1.15943 
0.415827 -0.0317258 -1.02076 0.343942 -0.0100343 -0.958342 0.359028 -0.0316856 -1.06953 
0.380616 -0.0109398 -0.916387 0.342196 -0.030468 -0.639013 0.389868 -0.00967424 -0.978779 
0.4012 -0.0256249 -0.793421 0.415106 -0.0043003 -0.973422 0.38387 -0.0182777 -0.818128 
0.347662 -0.0393081 -0.958458 0.343187 -0.0162154 -0.938769 0.394643 -0.0397112 -0.921326 
0.341166 -0.0165018 -0.909753 0.328437 -0.0292411 -0.412047 0.424987 -0.0301622 -1.01104 
0.377831 -0.00862896 -0.973917 0.386211 -0.0293139 -0.870487 0.358517 -0.0095529 -0.669223 
0.412201 -0.00769645 -1.04182 0.339 -0.0297862 -0.734177 0.407429 -0.00683399 -1.0714 
0.348586 -0.0431663 -0.534291 0.403031 -0.0121385 -0.83165 0.431987 -0.00739068 -0.962499 
0.368509 -0.032068 -1.01229 0.370192 -0.00973766 -0.885073 0.37668 -0.020424 -1.01564 
0.314767 -0.0427332 -0.893113 0.341926 -0.0138468 -0.417393 0.404692 -0.0363028 -0.902707 
0.352573 -0.022255 -0.826404 0.341572 -0.0415848 -0.803223 0.346666 -0.00681338 -0.502535 
0.416244 -0.0434066 -0.742114 0.300772 -0.0117129 -1.01098 0.30353 -0.00910235 -0.350415 
0.38578 -0.0248631 -0.754909 0.436644 -0.0134336 -1.00299 0.387076 -0.0411123 -0.779895 
0.205127 -0.0138099 -0.235182 0.395122 -0.00524467 -0.853759 0.355762 -0.0339597 -0.780123 
0.335962 -0.04153 -0.735447 0.391819 -0.019775 -0.714026 0.366436 -0.0380602 -0.608774 
0.430078 -0.0420657 -0.819496 0.379145 -0.0336254 -0.687012 0.411617 -0.0195781 -0.875218 
0.40831 -0.0395687 -0.827742 0.393693 -0.00744221 -0.650705 0.330745 -0.0414846 -0.468705 
0.343723 -0.00948059 -0.535715 0.360617 -0.0238993 -0.796055 0.343031 -0.0424631 -0.680543 
0.387931 -0.032778 -0.773901 0.394166 -0.0385629 -0.744053 0.24534 -0.00870212 -0.252866 
0.380889 -0.039752 -0.718177 0.384723 -0.00741716 -0.787397 0.349773 -0.0407169 -0.82243 
0.359731 -0.0343863 -0.63167 0.404158 -0.0117294 -0.787502 0.204927 -0.0428537 -0.233019 
0.379286 -0.0203077 -0.726765 0.369861 -0.025351 -0.661535 0.353687 -0.0426746 -0.636276 
0.354371 -0.0221056 -0.707604 0.324064 -0.004963 -0.402955 0.37105 -0.0058061 -0.620076 
0.35729 -0.0321093 -0.571305 0.355306 -0.0201748 -0.738871 0.371948 -0.0435994 -0.767948 
0.346306 -0.039638 -0.705737 0.334755 -0.0414995 -0.538571 0.346935 -0.0258238 -0.743588 
0.357332 -0.00984447 -0.524752 0.381064 -0.0362828 -0.583288 0.399746 -0.0128506 -0.806677 
0.359632 -0.043665 -0.718467 0.387489 -0.0424342 -0.652763 0.369171 -0.021707 -0.767611 
0.363672 -0.00878829 -0.692122 0.351098 -0.0354563 -0.519452 0.385926 -0.0429472 -0.670285 
0.325628 -0.0293349 -0.464299 0.387169 -0.0153732 -0.687531 0.363631 -0.0239071 -0.718379 
0.380376 -0.0104326 -0.673922 0.32137 -0.0109782 -0.74693 0.345109 -0.0203677 -0.531289 
0.371655 -0.023293 -0.629933 0.208193 -0.00513438 -0.244609 0.35936 -0.0213033 -0.559306 
0.371849 -0.0429207 -0.634535 0.368998 -0.0309268 -0.55108 0.36783 -0.0226602 -0.592929 
0.373245 -0.0441617 -0.706073 0.272591 -0.0134132 -0.311134 0.371103 -0.043199 -0.617237 
0.371481 -0.0102699 -0.584624 0.205047 -0.0257758 -0.234879 0.361219 -0.0327784 -0.530943 
0.355133 -0.02693 -0.616718 0.350187 -0.0207902 -0.627038 0.357487 -0.0102748 -0.499468 
0.348334 -0.0302902 -0.650612 0.348294 -0.0306261 -0.486933 0.2204 -0.0350435 -0.244291 
0.360876 -0.0411179 -0.53881 0.36551 -0.0436015 -0.657948 0.290855 -0.00916065 -0.345168 
0.357666 -0.0219567 -0.495035 0.262355 -0.00651424 -0.278698 0.370682 -0.0271685 -0.695665 
0.363439 -0.0415122 -0.520569 0.3602 -0.00940271 -0.584317 0.346099 -0.0217735 -0.495956 
0.361927 -0.0441346 -0.585202 0.353689 -0.0131245 -0.595737 0.353057 -0.0274529 -0.506287 
0.350928 -0.006034 -0.449581 0.355272 -0.0441468 -0.48718 0.3748 -0.0353627 -0.575062 
0.332819 -0.0209331 -0.416564 0.335169 -0.0107337 -0.47127 0.230054 -0.0139443 -0.239667 
0.344558 -0.0243123 -0.424238 0.342899 -0.0436134 -0.491057 0.357015 -0.00878184 -0.51166 
0.339405 -0.00659896 -0.493307 0.358933 -0.0198556 -0.549302 0.351733 -0.0352137 -0.556747 
0.35534 -0.0448178 -0.562687 0.358544 -0.0413577 -0.510296 0.333503 -0.0194144 -0.491793 
0.34965 -0.013354 -0.518111 0.337201 -0.0442374 -0.504033 0.341369 -0.0288219 -0.541286 
0.369368 -0.0106167 -0.572888 0.370539 -0.00700457 -0.602723 0.327146 -0.0157633 -0.556002 
0.32766 -0.0428448 -0.4128 0.350972 -0.0154087 -0.488301 0.285387 -0.0240283 -0.33603 
0.353643 -0.0280171 -0.468729 0.339805 -0.0409383 -0.453486 0.351214 -0.0110302 -0.465113 
0.333517 -0.00784596 -0.419117 0.338624 -0.00652015 -0.452631 0.353342 -0.0391932 -0.47489 
0.332336 -0.0161329 -0.427155 0.348984 -0.0448315 -0.463573 0.211938 -0.0330951 -0.238262 
0.24475 -0.0314203 -0.253569 0.356075 -0.0377412 -0.500886 0.341434 -0.0201509 -0.484716 
0.332761 -0.010753 -0.459943 0.334418 -0.0412026 -0.427948 0.352165 -0.00891505 -0.47981 
0.357745 -0.017579 -0.538699 0.316839 -0.0192314 -0.395391 0.346383 -0.0312951 -0.441424 
0.315855 -0.0383888 -0.386775 0.340457 -0.0287417 -0.479072 0.322776 -0.0322869 -0.432797 
0.33206 -0.0107345 -0.4068 0.254111 -0.0233242 -0.280865 0.21391 -0.00524125 -0.236475 
0.338729 -0.0192751 -0.40858 0.345672 -0.0359798 -0.460441 0.326688 -0.0351421 -0.404079 
0.221076 -0.0341082 -0.23417 0.325211 -0.0289466 -0.422033 0.355319 -0.0243493 -0.478781 
0.33547 -0.0125878 -0.443021 0.327407 -0.0237884 -0.392147 0.27335 -0.0444157 -0.28749 
0.348165 -0.00710191 -0.439249 0.348477 -0.0177442 -0.44424 0.350685 -0.0427605 -0.452287 
0.320071 -0.0357941 -0.37733 0.335403 -0.0374579 -0.418568 0.31819 -0.0152672 -0.385775 
0.33992 -0.032016 -0.398105 0.337456 -0.0401419 -0.384771 0.34394 -0.0174202 -0.470094 
0.206438 -0.00527461 -0.229656 0.285324 -0.044104 -0.334434 0.226348 -0.026574 -0.24478 
0.342492 -0.0422032 -0.41058 0.250876 -0.00502679 -0.273777 0.322339 -0.0277889 -0.384398 
0.296777 -0.0442449 -0.351347 0.320524 -0.00696454 -0.392599 0.333184 -0.0247901 -0.433256 
0.338028 -0.0108672 -0.375905 0.313229 -0.0304228 -0.371981 0.214054 -0.0427342 -0.239843 
0.34248 -0.011236 -0.401285 0.321705 -0.0264868 -0.363796 0.346965 -0.0424121 -0.424229 
0.319695 -0.0304737 -0.395662 0.281136 -0.0171985 -0.325449 0.324947 -0.0278621 -0.350387 
0.254085 -0.0352678 -0.281667 0.324568 -0.0443085 -0.383104 0.28657 -0.0056451 -0.329703 
0.329294 -0.0430692 -0.397587 0.266229 -0.0361801 -0.286722 0.335199 -0.0223008 -0.381121 
0.333801 -0.0309856 -0.371438 0.239174 -0.0442185 -0.254357 0.272456 -0.0239041 -0.311031 
0.301008 -0.0443468 -0.329836 0.319323 -0.0169542 -0.339652 0.31278 -0.031373 -0.351709 
0.293213 -0.0370999 -0.345342 0.32304 -0.0180195 -0.369628 0.304304 -0.0272097 -0.36646 
0.321033 -0.0414079 -0.347158 0.319015 -0.00505796 -0.382958 0.287848 -0.00972629 -0.308945 
0.250416 -0.021396 -0.27142 0.282483 -0.00528123 -0.319491 0.285804 -0.0368549 -0.326465 
0.316253 -0.0157041 -0.34919 0.223787 -0.0178822 -0.229699 0.3235 -0.0419176 -0.370237 
0.312734 -0.0421015 -0.340969 0.213531 -0.0276379 -0.229651 0.309256 -0.0224053 -0.32525 
0.326021 -0.00916271 -0.320855 0.32217 -0.0381615 -0.356576 0.281424 -0.044126 -0.320877 
0.283268 -0.0410167 -0.293936 0.298586 -0.010464 -0.331826 0.278871 -0.00826258 -0.283953 
0.297969 -0.0447277 -0.339433 0.306948 -0.018308 -0.343104 0.279673 -0.0448166 -0.304902 
0.204996 -0.0334714 -0.228579 0.304778 -0.00658596 -0.30289 0.251588 -0.0234104 -0.259123 
0.299231 -0.0323652 -0.33351 0.253993 -0.00999704 -0.262212 0.276531 -0.0351519 -0.316217 
0.301728 -0.0289342 -0.318973 0.266004 -0.0101574 -0.301157 0.305806 -0.0444749 -0.310413 
0.210339 -0.0319128 -0.219565 0.302241 -0.0375662 -0.292469 0.220746 -0.0239706 -0.236985 
0.241976 -0.0346936 -0.243931 0.29982 -0.0163056 -0.292593 0.256043 -0.0343102 -0.267732 
0.300939 -0.0187812 -0.31116 0.256822 -0.0442468 -0.273004 0.282815 -0.0267516 -0.294262 
0.297731 -0.0194869 -0.325018 0.215924 -0.0451772 -0.230361 0.228792 -0.0447818 -0.237063 
0.250203 -0.0443306 -0.25395 0.23645 -0.0370942 -0.23373 0.265152 -0.024246 -0.282343 
0.269232 -0.0148576 -0.283501 0.231413 -0.0292964 -0.226601 0.2601 -0.0172575 -0.268826 
0.260114 -0.0170334 -0.25568 0.281134 -0.0355362 -0.267806 0.211404 -0.0134421 -0.226764 
0.268433 -0.034279 -0.270076 0.233284 -0.0253978 -0.23742 0.267373 -0.0254867 -0.262813 
0.278414 -0.00780132 -0.257524 0.226964 -0.00529063 -0.234127 0.255104 -0.033186 -0.253489 
0.232609 -0.00509725 -0.245833 0.209132 -0.0412906 -0.224175 0.205802 -0.0228471 -0.225544 
0.294061 -0.0291307 -0.31258 0.22075 -0.0309286 -0.223219 0.237503 -0.0129216 -0.231989 
0.242661 -0.0449111 -0.244952 0.254039 -0.0418876 -0.24492 0.251907 -0.00884873 -0.237401 
0.262234 -0.00623933 -0.267081 0.217096 -0.00582741 -0.217568 0.244577 -0.0179769 -0.242267 
0.252786 -0.0290573 -0.233911 0.238252 -0.0237871 -0.249315 0.231469 -0.0195648 -0.221716 
0.266491 -0.00892377 -0.252713 0.254371 -0.0190327 -0.24759 0.217518 -0.0289987 -0.210243 
0.271449 -0.0448772 -0.257331 0.218772 -0.00492809 -0.227815 0.281439 -0.0248454 -0.27417 
0.244502 -0.0375951 -0.226728 0.225557 -0.0414013 -0.228128 0.228416 -0.0308679 -0.215656 
0.21789 -0.0440972 -0.220049 0.242246 -0.0197894 -0.226218 0.244548 -0.0379417 -0.212887 
0.234661 -0.00816826 -0.212448 0.229919 -0.0193797 -0.203571 0.211536 -0.0338126 -0.201951 
0.213446 -0.0217989 -0.217008 0.221157 -0.0143995 -0.201104 0.229124 -0.00523944 -0.224566 
0.243328 -0.0197809 -0.205148 0.239428 -0.0248746 -0.214472 0.21101 -0.00622327 -0.208025 
0.226395 -0.0333629 -0.206762 0.213564 -0.0209664 -0.201074 0.243003 -0.0254923 -0.235851 
0.229271 -0.0430729 -0.219157 0.247871 -0.00905992 -0.226483 0.248431 -0.00814176 -0.215277 
0.234241 -0.0426811 -0.200969 0.205769 -0.0446829 -0.213696 0.222732 -0.013974 -0.214855 
0.212966 -0.0382415 -0.174584 0.24559 -0.0433386 -0.177994 0.217606 -0.00828278 -0.170079 
0.229662 -0.0245021 -0.166954 0.229672 -0.0146289 -0.183197 0.22835 -0.0399226 -0.184768 
0.246693 -0.0258093 -0.18909 0.237046 -0.0110775 -0.168755 0.218363 -0.0200291 -0.168508 
0.249723 -0.0158387 -0.169704 0.212163 -0.0246003 -0.181751 0.236173 -0.0417103 -0.166826 
0.213241 -0.00718381 -0.197251 0.220645 -0.0296722 -0.176183 0.21038 -0.0441861 -0.198976 
0.24883 -0.0313142 -0.16787 0.226361 -0.0407292 -0.165078 0.236713 -0.0314384 -0.17681 
0.242008 -0.0103202 -0.186498 0.240793 -0.02137 -0.173704 
VERTICES 500 1000
1 0 
1 1 
1 2 
1 3 
1 4 
1 5 
1 6 
1 7 
1 8 
1 9 
1 10 
1 11 
1 12 
1 13 
1 14 
1 15 
1 16 
1 17 
1 18 
1 19 
1 20 
1 21 
1 22 
1 23 
1 24 
1 25 
1 26 
1 27 
1 28 
1 29 
1 30 
1 31 
1 32 
1 33 
1 34 
1 35 
1 36 
1 37 
1 38 
1 39 
1 40 
1 41 
1 42 
1 43 
1 44 
1 45 
1 46 
1 47 
1 48 
1 49 
1 50 
1 51 
1 52 
1 53 
1 54 
1 55 
1 56 
1 57 
1 58 
1 59 
1 60 
1 61 
1 62 
1 63 
1 64 
1 65 
1 66 
1 67 
1 68 
1 69 
1 70 
1 71 
1 72 
1 73 
1 74 
1 75 
1 76 
1 77 
1 78 
1 79 
1 80 
1 81 
1 82 
1 83 
1 84 
1 85 
1 86 
1 87 
1 88 
1 89 
1 90 
1 91 
1 92 
1 93 
1 94 
1 95 
1 96 
1 97 
1 98 
1 99 
1 100 
1 101 
1 102 
1 103 
1 104 
1 105 
1 106 
1 107 
1 108 
1 109 
1 110 
1 111 
1 112 
1 113 
1 114 
1 115 
1 116 
1 117 
1 118 
1 119 
1 120 
1 121 
1 122 
1 123 
1 124 
1 125 
1 126 
1 127 
1 128 
1 129 
1 130 
1 131 
1 132 
1 133 
1 134 
1 135 
1 136 
1 137 
1 138 
1 139 
1 140 
1 141 
1 142 
1 143 
1 144 
1 145 
1 146 
1 147 
1 148 
1 149 
1 150 
1 151 
1 152 
1 153 
1 154 
1 155 
1 156 
1 157 
1 158 
1 159 
1 160 
1 161 
1 162 
1 163 
1 164 
1 165 
1 166 
1 167 
1 168 
1 169 
1 170 
1 171 
1 172 
1 173 
1 174 
1 175 
1 176 
1 177 
1 178 
1 179 
1 180 
1 181 
1 182 
1 183 
1 184 
1 185 
1 186 
1 187 
1 188 
1 189 
1 190 
1 191 
1 192 
1 193 
1 194 
1 195 
1 196 
1 197 
1 198 
1 199 
1 200 
1 201 
1 202 
1 203 
1 204 
1 205 
1 206 
1 207 
1 208 
1 209 
1 210 
1 211 
1 212 
1 213 
1 214 
1 215 
1 216 
1 217 
1 218 
1 219 
1 220 
1 221 
1 222 
1 223 
1 224 
1 225 
1 226 
1 227 
1 228 
1 229 
1 230 
1 231 
1 232 
1 233 
1 234 
1 235 
1 236 
1 237 
1 238 
1 239 
1 240 
1 241 
1 242 
1 243 
1 244 
1 245 
1 246 
1 247 
1 248 
1 249 
1 250 
1 251 
1 252 
1 253 
1 254 
1 255 
1 256 
1 257 
1 258 
1 259 
1 260 
1 261 
1 262 
1 263 
1 264 
1 265 
1 266 
1 267 
1 268 
1 269 
1 270 
1 271 
1 272 
1 273 
1 274 
1 275 
1 276 
1 277 
1 278 
1 279 
1 280 
1 281 
1 282 
1 283 
1 284 
1 285 
1 286 
1 287 
1 288 
1 289 
1 290 
1 291 
1 292 
1 293 
1 294 
1 295 
1 296 
1 297 
1 298 
1 299 
1 300 
1 301 
1 302 
1 303 
1 304 
1 305 
1 306 
1 307 
1 308 
1 309 
1 310 
1 311 
1 312 
1 313 
1 314 
1 315 
1 316 
1 317 
1 318 
1 319 
1 320 
1 321 
1 322 
1 323 
1 324 
1 325 
1 326 
1 327 
1 328 
1 329 
1 330 
1 331 
1 332 
1 333 
1 334 
1 335 
1 336 
1 337 
1 338 
1 339 
1 340 
1 341 
1 342 
1 343 
1 344 
1 345 
1 346 
1 347 
1 348 
1 349 
1 350 
1 351 
1 352 
1 353 
1 354 
1 355 
1 356 
1 357 
1 358 
1 359 
1 360 
1 361 
1 362 
1 363 
1 364 
1 365 
1 366 
1 367 
1 368 
1 369 
1 370 
1 371 
1 372 
1 373 
1 374 
1 375 
1 376 
1 377 
1 378 
1 379 
1 380 
1 381 
1 382 
1 383 
1 384 
1 385 
1 386 
1 387 
1 388 
1 389 
1 390 
1 391 
1 392 
1 393 
1 394 
1 395 
1 396 
1 397 
1 398 
1 399 
1 400 
1 401 
1 402 
1 403 
1 404 
1 405 
1 406 
1 407 
1 408 
1 409 
1 410 
1 411 
1 412 
1 413 
1 414 
1 415 
1 416 
1 417 
1 418 
1 419 
1 420 
1 421 
1 422 
1 423 
1 424 
1 425 
1 426 
1 427 
1 428 
1 429 
1 430 
1 431 
1 432 
1 433 
1 434 
1 435 
1 436 
1 437 
1 438 
1 439 
1 440 
1 441 
1 442 
1 443 
1 444 
1 445 
1 446 
1 447 
1 448 
1 449 
1 450 
1 451 
1 452 
1 453 
1 454 
1 455 
1 456 
1 457 
1 458 
1 459 
1 460 
1 461 
1 462 
1 463 
1 464 
1 465 
1 466 
1 467 
1 468 
1 469 
1 470 
1 471 
1 472 
1 473 
1 474 
1 475 
1 476 
1 477 
1 478 
1 479 
1 480 
1 481 
1 482 
1 483 
1 484 
1 485 
1 486 
1 487 
1 488 
1 489 
1 490 
1 491 
1 492 
1 493 
1 494 
1 495 
1 496 
1 497 
1 498 
1 499 

POINT_DATA 500
FIELD FieldData 7
id 1 500 int
1 2 3 4 5 6 7 8 9 
10 11 12 13 14 15 16 17 18 
19 20 21 22 23 24 25 26 27 
28 29 30 31 32 33 34 35 36 
37 38 39 40 41 42 43 44 45 
46 47 48 49 50 51 52 53 54 
55 56 57 58 59 60 61 62 63 
64 65 66 67 68 69 70 71 72 
73 74 75 76 77 78 79 80 81 
82 83 84 85 86 87 88 89 90 
91 92 93 94 95 96 97 98 99 
100 101 102 103 104 105 106 107 108 
109 110 111 112 113 114 115 116 117 
118 119 120 121 122 123 124 125 126 
127 128 129 130 131 132 133 134 135 
136 137 138 139 140 141 142 143 144 
145 146 147 148 149 150 151 152 153 
154 155 156 157 158 159 160 161 162 
163 164 165 166 167 168 169 170 171 
172 173 174 175 176 177 178 179 180 
181 182 183 184 185 186 187 188 189 
190 191 192 193 194 195 196 197 198 
199 200 201 202 203 204 205 206 207 
208 209 210 211 212 213 214 215 216 
217 218 219 220 221 222 223 224 225 
226 227 228 229 230 231 232 233 234 
235 236 237 238 239 240 241 242 243 
244 245 246 247 248 249 250 251 252 
253 254 255 256 257 258 259 260 261 
262 263 264 265 266 267 268 269 270 
271 272 273 274 275 276 277 278 279 
280 281 282 283 284 285 286 287 288 
289 290 291 292 293 294 295 296 297 
298 299 300 301 302 303 304 305 306 
307 308 309 310 311 312 313 314 315 
316 317 318 319 320 321 322 323 324 
325 326 327 328 329 330 331 332 333 
334 335 336 337 338 339 340 341 342 
343 344 345 346 347 348 349 350 351 
352 353 354 355 356 357 358 359 360 
361 362 363 364 365 366 367 368 369 
370 371 372 373 374 375 376 377 378 
379 380 381 382 383 384 385 386 387 
388 389 390 391 392 393 394 395 396 
397 398 399 400 401 402 403 404 405 
406 407 408 409 410 411 412 413 414 
415 416 417 418 419 420 421 422 423 
424 425 426 427 428 429 430 431 432 
433 434 435 436 437 438 439 440 441 
442 443 444 445 446 447 448 449 450 
451 452 453 454 455 456 457 458 459 
460 461 462 463 464 465 466 467 468 
469 470 471 472 473 474 475 476 477 
478 479 480 481 482 483 484 485 486 
487 488 489 490 491 492 493 494 495 
496 497 498 499 500 
type 1 500 int
1 1 1 1 1 1 1 1 1 
1 1 1 1 1 1 1 1 1 
1 1 1 1 1 1 1 1 1 
1 1 1 1 1 1 1 1 1 
1 1 1 1 1 1 1 1 1 
1 1 1 1 1 1 1 1 1 
1 1 1 1 1 1 1 1 1 
1 1 1 1 1 1 1 1 1 
1 1 1 1 1 1 1 1 1 
1 1 1 1 1 1 1 1 1 
1 1 1 1 1 1 1 1 1 
1 1 1 1 1 1 1 1 1 
1 1 1 1 1 1 1 1 1 
1 1 1 1 1 1 1 1 1 
1 1 1 1 1 1 1 1 1 
1 1 1 1 1 1 1 1 1 
1 1 1 1 1 1 1 1 1 
1 1 1 1 1 1 1 1 1 
1 1 1 1 1 1 1 1 1 
1 1 1 1 1 1 1 1 1 
1 1 1 1 1 1 1 1 1 
1 1 1 1 1 1 1 1 1 
1 1 1 1 1 1 1 1 1 
1 1 1 1 1 1 1 1 1 
1 1 1 1 1 1 1 1 1 
1 1 1 1 1 1 1 1 1 
1 1 1 1 1 1 1 1 1 
1 1 1 1 1 1 1 1 1 
1 1 1 1 1 1 1 1 1 
1 1 1 1 1 1 1 1 1 
1 1 1 1 1 1 1 1 1 
1 1 1 1 1 1 1 1 1 
1 1 1 1 1 1 1 1 1 
1 1 1 1 1 1 1 1 1 
1 1 1 1 1 1 1 1 1 
1 1 1 1 1 1 1 1 1 
1 1 1 1 1 1 1 1 1 
1 1 1 1 1 1 1 1 1 
1 1 1 1 1 1 1 1 1 
1 1 1 1 1 1 1 1 1 
1 1 1 1 1 1 1 1 1 
1 1 1 1 1 1 1 1 1 
1 1 1 1 1 1 1 1 1 
1 1 1 1 1 1 1 1 1 
1 1 1 1 1 1 1 1 1 
1 1 1 1 1 1 1 1 1 
1 1 1 1 1 1 1 1 1 
1 1 1 1 1 1 1 1 1 
1 1 1 1 1 1 1 1 1 
1 1 1 1 1 1 1 1 1 
1 1 1 1 1 1 1 1 1 
1 1 1 1 1 1 1 1 1 
1 1 1 1 1 1 1 1 1 
1 1 1 1 1 1 1 1 1 
1 1 1 1 1 1 1 1 1 
1 1 1 1 1 
i 3 500 int
0 0 0 0 0 0 0 0 0 
0 0 0 0 0 0 0 0 0 
0 0 0 0 0 0 0 0 0 
0 0 0 0 0 0 0 0 0 
0 0 0 0 0 0 0 0 0 
0 0 0 0 0 0 0 0 0 
0 0 0 0 0 0 0 0 0 
0 0 0 0 0 0 0 0 0 
0 0 0 0 0 0 0 0 0 
0 0 0 0 0 0 0 0 0 
0 0 0 0 0 0 0 0 0 
0 0 0 0 0 0 0 0 0 
0 0 0 0 0 0 0 0 0 
0 0 0 0 0 0 0 0 0 
0 0 0 0 0 0 0 0 0 
0 0 0 0 0 0 0 0 0 
0 0 0 0 0 0 0 0 0 
0 0 0 0 0 0 0 0 0 
0 0 0 0 0 0 0 0 0 
0 0 0 0 0 0 0 0 0 
0 0 0 0 0 0 0 0 0 
0 0 0 0 0 0 0 0 0 
0 0 0 0 0 0 0 0 0 
0 0 0 0 0 0 0 0 0 
0 0 0 0 0 0 0 0 0 
0 0 0 0 0 0 0 0 0 
0 0 0 0 0 0 0 0 0 
0 0 0 0 0 0 0 0 0 
0 0 0 0 0 0 0 0 0 
0 0 0 0 0 0 0 0 0 
0 0 0 0 0 0 0 0 0 
0 0 0 0 0 0 0 0 0 
0 0 0 0 0 0 0 0 0 
0 0 0 0 0 0 0 0 0 
0 0 0 0 0 0 0 0 0 
0 0 0 0 0 0 0 0 0 
0 0 0 0 0 0 0 0 0 
0 0 0 0 0 0 0 0 0 
0 0 0 0 0 0 0 0 0 
0 0 0 0 0 0 0 0 0 
0 0 0 0 0 0 0 0 0 
0 0 0 0 0 0 0 0 0 
0 0 0 0 0 0 0 0 0 
0 0 0 0 0 0 0 0 0 
0 0 0 0 0 0 0 0 0 
0 0 0 0 0 0 0 0 0 
0 0 0 0 0 0 0 0 0 
0 0 0 0 0 0 0 0 0 
0 0 0 0 0 0 0 0 0 
0 0 0 0 0 0 0 0 0 
0 0 0 0 0 0 0 0 0 
0 0 0 0 0 0 0 0 0 
0 0 0 0 0 0 0 0 0 
0 0 0 0 0 0 0 0 0 
0 0 0 0 0 0 0 0 0 
0 0 0 0 0 0 0 0 0 
0 0 0 0 0 0 0 0 0 
0 0 0 0 0 0 0 0 0 
0 0 0 0 0 0 0 0 0 
0 0 0 0 0 0 0 0 0 
0 0 0 0 0 0 0 0 0 
0 0 0 0 0 0 0 0 0 
0 0 0 0 0 0 0 0 0 
0 0 0 0 0 0 0 0 0 
0 0 0 0 0 0 0 0 0 
0 0 0 0 0 0 0 0 0 
0 0 0 0 0 0 0 0 0 
0 0 0 0 0 0 0 0 0 
0 0 0 0 0 0 0 0 0 
0 0 0 0 0 0 0 0 0 
0 0 0 0 0 0 0 0 0 
0 0 0 0 0 0 0 0 0 
0 0 0 0 0 0 0 0 0 
0 0 0 0 0 0 0 0 0 
0 0 0 0 0 0 0 0 0 
0 0 0 0 0 0 0 0 0 
0 0 0 0 0 0 0 0 0 
0 0 0 0 0 0 0 0 0 
0 0 0 0 0 0 0 0 0 
0 0 0 0 0 0 0 0 0 
0 0 0 0 0 0 0 0 0 
0 0 0 0 0 0 0 0 0 
0 0 0 0 0 0 0 0 0 
0 0 0 0 0 0 0 0 0 
0 0 0 0 0 0 0 0 0 
0 0 0 0 0 0 0 0 0 
0 0 0 0 0 0 0 0 0 
0 0 0 0 0 0 0 0 0 
0 0 0 0 0 0 0 0 0 
0 0 0 0 0 0 0 0 0 
0 0 0 0 0 0 0 0 0 
0 0 0 0 0 0 0 0 0 
0 0 0 0 0 0 0 0 0 
0 0 0 0 0 0 0 0 0 
0 0 0 0 0 0 0 0 0 
0 0 0 0 0 0 0 0 0 
0 0 0 0 0 0 0 0 0 
0 0 0 0 0 0 0 0 0 
0 0 0 0 0 0 0 0 0 
0 0 0 0 0 0 0 0 0 
0 0 0 0 0 0 0 0 0 
0 0 0 0 0 0 0 0 0 
0 0 0 0 0 0 0 0 0 
0 0 0 0 0 0 0 0 0 
0 0 0 0 0 0 0 0 0 
0 0 0 0 0 0 0 0 0 
0 0 0 0 0 0 0 0 0 
0 0 0 0 0 0 0 0 0 
0 0 0 0 0 0 0 0 0 
0 0 0 0 0 0 0 0 0 
0 0 0 0 0 0 0 0 0 
0 0 0 0 0 0 0 0 0 
0 0 0 0 0 0 0 0 0 
0 0 0 0 0 0 0 0 0 
0 0 0 0 0 0 0 0 0 
0 0 0 0 0 0 0 0 0 
0 0 0 0 0 0 0 0 0 
0 0 0 0 0 0 0 0 0 
0 0 0 0 0 0 0 0 0 
0 0 0 0 0 0 0 0 0 
0 0 0 0 0 0 0 0 0 
0 0 0 0 0 0 0 0 0 
0 0 0 0 0 0 0 0 0 
0 0 0 0 0 0 0 0 0 
0 0 0 0 0 0 0 0 0 
0 0 0 0 0 0 0 0 0 
0 0 0 0 0 0 0 0 0 
0 0 0 0 0 0 0 0 0 
0 0 0 0 0 0 0 0 0 
0 0 0 0 0 0 0 0 0 
0 0 0 0 0 0 0 0 0 
0 0 0 0 0 0 0 0 0 
0 0 0 0 0 0 0 0 0 
0 0 0 0 0 0 0 0 0 
0 0 0 0 0 0 0 0 0 
0 0 0 0 0 0 0 0 0 
0 0 0 0 0 0 0 0 0 
0 0 0 0 0 0 0 0 0 
0 0 0 0 0 0 0 0 0 
0 0 0 0 0 0 0 0 0 
0 0 0 0 0 0 0 0 0 
0 0 0 0 0 0 0 0 0 
0 0 0 0 0 0 0 0 0 
0 0 0 0 0 0 0 0 0 
0 0 0 0 0 0 0 0 0 
0 0 0 0 0 0 0 0 0 
0 0 0 0 0 0 0 0 0 
0 0 0 0 0 0 0 0 0 
0 0 0 0 0 0 0 0 0 
0 0 0 0 0 0 0 0 0 
0 0 0 0 0 0 0 0 0 
0 0 0 0 0 0 0 0 0 
0 0 0 0 0 0 0 0 0 
0 0 0 0 0 0 0 0 0 
0 0 0 0 0 0 0 0 0 
0 0 0 0 0 0 0 0 0 
0 0 0 0 0 0 0 0 0 
0 0 0 0 0 0 0 0 0 
0 0 0 0 0 0 0 0 0 
0 0 0 0 0 0 0 0 0 
0 0 0 0 0 0 0 0 0 
0 0 0 0 0 0 0 0 0 
0 0 0 0 0 0 0 0 0 
0 0 0 0 0 0 0 0 0 
0 0 0 0 0 0 0 0 0 
0 0 0 0 0 0 0 0 0 
0 0 0 0 0 0 
v 3 500 double
0.86202 -0.0679724 -4.67741 -0.844252 -0.479984 0.762848 -0.575894 0.895596 -0.434286 
-2.05387 0.05681 0.836884 -0.258342 -0.0600496 2.01595 0.0711635 0.103785 2.90458 
-1.084 0.86114 1.92559 -0.355462 0.031393 1.82921 -0.187731 0.0172905 1.6781 
0.942031 -0.168319 -0.103553 -0.203239 0.0811737 1.75151 -0.0890172 0.781019 0.0418938 
-0.704201 0.59928 0.971154 -0.782347 1.96632 -0.959726 -0.341783 0.060187 1.77157 
0.546194 0.0757234 -2.06823 -0.278626 -1.00288 -2.62036 0.899539 -0.952923 -2.29286 
-0.0061531 -0.0439992 -3.68961 -0.108581 0.728644 -1.25822 -3.33158 0.308778 0.583558 
-0.771688 -0.129077 0.419404 0.1439 0.991578 -0.193736 -0.831608 0.55418 1.57069 
-0.00303668 0.00512747 0.0840088 1.2352 0.872444 -1.36769 -1.49914 -0.848675 -1.30659 
0.0109599 0.811107 0.885719 -0.821184 0.60445 -1.03315 1.00997 0.0823173 -1.65013 
1.53234 0.205641 -0.941828 -0.996102 -0.922053 -0.131489 0.941104 -0.011395 -1.64803 
-0.349918 0.804185 -1.64145 0.129283 0.0275769 0.174797 -0.0208629 -0.045752 -2.63746 
1.30413 2.00447 1.30009 0.109309 -0.293447 -2.34639 2.04315 -0.855902 -1.96765 
1.70467 -0.10825 -3.8367 3.87201e-06 -0.0158043 0.0458469 -2.3342 -0.0806298 1.75618 
-0.490664 0.241727 2.53536 0.721413 -0.290934 0.528551 -0.213947 0.115414 2.27648 
3.0579 -0.480589 -1.444 1.33716 -0.481797 2.43992 -0.238611 1.66143 -1.80776 
0.636637 0.725829 2.44391 -0.565366 0.446689 0.255309 -0.403782 0.051658 2.48783 
1.36002 1.0371 -1.25381 -0.540702 1.72542 -0.670485 -1.15115 0.835252 -1.10705 
-0.565483 0.536262 -0.374797 -1.80552 0.303417 -1.63072 0.796869 0.213121 -1.29028 
-0.299543 -0.100675 2.19247 -0.688967 -0.141399 1.76773 0.0847484 0.0053118 -4.32703 
0.161884 -0.330164 -0.218284 0.706748 -0.222593 0.971886 -1.0038 0.283024 1.92019 
0.153816 -0.296832 -2.83778 -0.704306 -1.1424 -4.24508 1.09428 -0.619262 1.9849 
-0.344314 -0.644256 -0.745919 1.79407 -0.16978 -0.285464 -0.547732 -0.000741396 -1.98073 
-0.555019 0.614968 0.47476 0.693636 -1.41316 -0.281913 0.660386 0.0882239 -3.7751 
0.189571 -0.0267251 -4.42775 -0.118233 0.854102 -0.364652 -1.89404 -0.202813 -1.22464 
1.98915 -0.840904 0.985282 0.256658 -0.0121267 -3.64646 1.04345 -0.179543 -0.0810731 
0.711668 -1.00694 -1.17744 1.33573 0.823546 -0.163022 -1.40014 1.03204 1.48238 
-1.61682 0.237204 -2.53041 0.482807 -0.0491716 -3.36653 0.147839 0.0900979 -2.62784 
-0.0519034 -0.0474075 -0.114955 0.290455 0.00665646 -4.18634 -0.0739084 0.631765 -0.800919 
0.518778 0.0932248 -2.81162 1.44954 -0.000151459 -2.89488 -0.261515 0.0124944 -2.99884 
-2.78178 -0.936464 -2.50581 -0.554709 -0.137245 -4.0973 -1.58434 0.0624735 1.43122 
0.0555172 0.355885 1.55335 -2.24723 0.792653 -0.919559 -1.51897 0.375066 -2.28314 
0.307 0.200377 -3.51418 1.02829 0.740737 1.34789 0.33854 -0.0352097 -0.110871 
0.0733937 -0.373631 2.12338 -0.242962 -0.343759 -4.08867 -0.283484 -0.033865 -0.368968 
-0.0480087 -0.63077 2.93727 0.454586 -0.345457 -1.85144 0.201213 -0.00849927 -4.04976 
-2.5424 -0.294918 1.93883 1.81901 0.683005 0.0481012 -0.963947 0.179419 2.64106 
1.631 0.925685 -0.771008 0.170349 -0.0607713 -3.60192 0.218366 -0.180511 -3.92268 
0.195854 -0.58175 -0.86624 0.797929 1.53959 -1.89995 0.383753 -0.0681699 -4.17993 
-0.319382 -0.198979 -4.41825 -1.86707 0.823132 -0.820618 -0.00774218 -0.148213 -0.118877 
-0.259012 -0.107903 1.76592 0.48001 0.0381606 -4.30434 0.014798 0.0374121 -3.19909 
0.631642 1.43541 -1.92934 0.454036 -0.0452369 -3.29446 -0.493065 0.291334 -2.74957 
0.516979 0.0579169 -3.21243 0.470903 0.000378274 -4.12077 0.125849 -0.0370106 -2.94451 
0.0286699 0.0487547 0.088872 0.450577 -0.191848 -4.37375 0.354376 0.0669789 -4.28744 
-0.965686 1.29265 -2.88819 -0.646031 -2.12231 -1.51206 0.267273 1.05966 -3.16747 
0.267494 -0.0143162 -4.08109 -0.084694 -0.0180083 -3.84809 0.35627 0.219133 -3.78075 
0.336849 0.0882142 -3.56924 -0.667315 1.01506 -0.580141 -0.179362 -0.473035 -3.94773 
-1.03785 -0.92487 -2.54039 0.694985 0.0549077 -2.60784 0.433038 -0.0635897 -4.25205 
0.714804 0.144247 -3.43701 -0.138145 0.139999 -4.52184 0.452928 0.140538 -4.17438 
0.708392 -0.0267968 -4.03255 0.0952093 0.0906207 -4.25138 0.178812 -0.0696372 -3.8845 
0.0630029 0.198002 -2.84978 -0.152179 -0.269713 -3.74994 0.402873 0.0159656 -3.88716 
0.187915 -0.0658437 -3.83914 0.31578 0.0615944 -3.512 0.298202 0.0137151 -4.04383 
0.422161 0.0529961 -4.05035 -0.179344 -0.107818 0.327518 0.896528 -0.696996 -3.80526 
-0.0188235 -0.0473201 -3.49475 0.475504 -0.0218533 -3.99108 -1.55389 0.22232 -1.85183 
0.390754 0.00235296 -4.01149 0.124821 0.196518 -3.99681 0.162414 -0.222999 -4.31562 
0.323658 -0.156566 -3.79323 0.205159 0.186769 -2.72789 0.196413 0.116101 -4.0157 
0.441155 0.0923086 -3.41506 -0.276479 2.0437 -1.77826 0.423731 -0.0021919 -3.65019 
0.0989703 -0.187145 -3.85452 0.011099 0.0875899 -3.82812 0.280996 0.0584577 -3.96503 
0.00534141 0.0785755 -3.95952 1.05441 0.0118001 -1.98598 0.430853 -0.101015 -4.09418 
0.207038 -0.0442145 -3.97117 0.329141 -0.0662873 -3.84506 0.393649 -0.023606 -2.97672 
0.908299 0.589917 -3.93195 0.174944 0.0433403 -3.32504 0.313215 0.0700824 -4.22174 
0.283426 -0.0138178 -2.69822 0.403026 0.0141986 -3.55607 0.543759 -0.173595 -3.90016 
0.117841 0.041935 -4.36447 0.108111 0.0285406 -3.58386 0.190974 -0.0183583 -4.07138 