# vtk DataFile Version 4.0
Generated by LIGGGHTS
ASCII
DATASET POLYDATA
POINTS 500 float
0.418388 -0.0449953 -1.18463 0.419274 -0.0290573 -1.18742 0.00505451 -0.0250071 -1.19501 
0.0391606 -0.0204248 -1.17517 0.0168736 -0.0222915 -1.17257 0.0362448 -0.00499743 -1.17626 
0.0454007 -0.0364982 -1.18624 0.0322804 -0.045001 -1.17656 0.0904156 -0.0166434 -1.17812 
0.469184 -0.00499959 -1.18501 0.341075 -0.0447969 -1.19493 0.463612 -0.0135137 -1.19501 
0.021559 -0.0141493 -1.16915 0.32029 -0.00568755 -1.19501 0.0437809 -0.0112785 -1.17433 
0.375898 -0.0308364 -1.19495 0.027742 -0.0450035 -1.18547 0.495001 -0.045001 -1.18514 
0.0406347 -0.036057 -1.19501 0.481823 -0.0137036 -1.18723 0.00549529 -0.0199133 -1.17186 
0.180088 -0.0293599 -1.18686 0.493387 -0.0450004 -1.195 0.0534809 -0.00499441 -1.18636 
0.168582 -0.0300986 -1.18767 0.369636 -0.0449132 -1.18864 0.485695 -0.0286536 -1.195 
0.457315 -0.0450032 -1.19501 0.314893 -0.0142379 -1.195 0.0952668 -0.0136782 -1.18635 
0.0342321 -0.0205297 -1.18781 0.438138 -0.0449963 -1.18635 0.411075 -0.0121809 -1.18591 
0.460158 -0.0204498 -1.1887 0.204749 -0.0331709 -1.195 0.0335411 -0.0372986 -1.18809 
0.393065 -0.00508116 -1.19501 0.0148724 -0.0434859 -1.19501 0.038278 -0.0374826 -1.17929 
0.495003 -0.010003 -1.18635 0.226014 -0.0421593 -0.245002 0.113691 -0.0276938 -1.195 
0.0695716 -0.00876489 -1.17205 0.413412 -0.0372945 -1.18862 0.118687 -0.0363497 -1.195 
0.4671 -0.0350028 -1.195 0.00542333 -0.0369241 -1.17915 0.00499852 -0.020005 -1.18636 
0.484593 -0.0450018 -1.18736 0.429348 -0.0214018 -1.18857 0.383147 -0.00515623 -1.19372 
0.477936 -0.0450006 -1.195 0.021735 -0.00499908 -1.18762 0.0607517 -0.045001 -1.16943 
0.00993128 -0.024997 -1.17924 0.0148817 -0.0336826 -1.17928 0.0852525 -0.0224172 -1.19501 
0.068743 -0.0187281 -1.17189 0.0141823 -0.00499901 -1.18108 0.0433406 -0.0294523 -1.17616 
0.0266531 -0.0351886 -1.19501 0.450317 -0.0377662 -1.195 0.0148577 -0.014703 -1.17876 
0.0443331 -0.0209094 -1.18557 0.0771432 -0.0450016 -1.17835 0.427339 -0.0140417 -1.19501 
0.428382 -0.0298633 -1.18328 0.444845 -0.028687 -1.18142 0.4331 -0.00503148 -1.195 
0.00499846 -0.0130867 -1.17914 0.485661 -0.0386529 -1.195 0.492155 -0.0199955 -1.18683 
0.0434634 -0.0118739 -1.18976 0.0136901 -0.0199322 -1.19501 0.0556255 -0.045003 -1.17801 
0.0543976 -0.0203263 -1.1874 0.0194713 -0.00499891 -1.17259 0.418022 -0.00499839 -1.18636 
0.398097 -0.0312921 -1.195 0.492341 -0.0370239 -1.17973 0.0501519 -0.0366586 -1.17745 
0.0277956 -0.0281724 -1.18799 0.44448 -0.0215178 -1.18839 0.00736039 -0.00499809 -1.17377 
0.158253 -0.041386 -1.17743 0.0608725 -0.0364929 -1.17784 0.0215066 -0.0357903 -1.18646 
0.298426 -0.0361318 -1.18416 0.428381 -0.0450032 -1.18318 0.0049966 -0.00499744 -1.18502 
0.0506271 -0.0366717 -1.19501 0.409731 -0.0248116 -1.18087 0.0603645 -0.00500317 -1.17101 
0.00499524 -0.0300041 -1.18635 0.0049955 -0.0450023 -1.19501 0.0118923 -0.0118933 -1.18846 
0.127095 -0.00500447 -1.18634 0.0852672 -0.0136689 -1.18635 0.19073 -0.0450007 -1.195 
0.0661366 -0.0450002 -1.19501 0.0748329 -0.0221578 -1.195 0.207796 -0.0449941 -0.245002 
0.0143864 -0.0269951 -1.18797 0.461501 -0.0113916 -1.18468 0.294129 -0.0140804 -1.19498 
0.367632 -0.0188729 -1.17764 0.108687 -0.0421192 -1.18684 0.137113 -0.0309815 -1.195 
0.103688 -0.0450036 -1.195 0.0504377 -0.0284439 -1.18313 0.17702 -0.0137426 -1.195 
0.0608946 -0.0278609 -1.18642 0.495002 -0.00499803 -1.195 0.388225 -0.0139226 -1.19489 
0.102335 -0.0150008 -1.1794 0.0411475 -0.0200495 -1.19501 0.255569 -0.0100615 -1.18755 
0.44143 -0.0049942 -1.18948 0.462644 -0.0450067 -1.18596 0.0558598 -0.0364956 -1.18649 
0.274461 -0.0167245 -1.19501 0.489119 -0.0259576 -1.1794 0.449755 -0.00499852 -1.19501 
0.459303 -0.00499507 -1.19205 0.468851 -0.00499878 -1.19501 0.033743 -0.00499554 -1.1862 
0.205263 -0.0248092 -0.245002 0.467687 -0.036416 -1.18513 0.495003 -0.0149968 -1.19501 
0.0177456 -0.0450055 -1.18556 0.0374847 -0.0131853 -1.18186 0.495001 -0.0249961 -1.195 
0.0584315 -0.00576872 -1.19501 0.0247525 -0.0450028 -1.195 0.0515605 -0.0145004 -1.19501 
0.404788 -0.0236021 -1.19501 0.0223612 -0.0317295 -1.17261 0.249202 -0.019288 -1.18717 
0.451337 -0.00503058 -1.18513 0.188998 -0.02683 -1.195 0.437003 -0.0219948 -1.19501 
0.468464 -0.0261683 -1.19052 0.485698 -0.00865724 -1.195 0.419329 -0.0208706 -1.18168 
0.472626 -0.0450006 -1.18653 0.405726 -0.0377557 -1.195 0.0193418 -0.0183786 -1.18691 
0.0607175 -0.0189248 -1.19501 0.444681 -0.0140113 -1.195 0.132107 -0.0165435 -1.18684 
0.0803037 -0.00499545 -1.18635 0.433144 -0.0450059 -1.19501 0.00499748 -0.0450041 -1.18502 
0.47554 -0.0135597 -1.19501 0.231543 -0.0320209 -1.1871 0.451957 -0.0219396 -1.19501 
0.0349085 -0.027861 -1.195 0.486398 -0.0049982 -1.18543 0.0149964 -0.00499901 -1.19501 
0.477039 -0.0236477 -1.195 0.00499886 -0.0350051 -1.195 0.186973 -0.0089233 -1.18725 
0.0288164 -0.0342882 -1.17981 0.0277377 -0.0129584 -1.18686 0.0399232 -0.0449253 -1.18645 
0.453636 -0.0131092 -1.19063 0.120401 -0.0123734 -1.18771 0.38786 -0.0449169 -1.195 
0.0384685 -0.00499348 -1.19501 0.0578674 -0.0131202 -1.17629 0.225845 -0.00594416 -1.18621 
0.0215779 -0.0125649 -1.195 0.45023 -0.0449857 -1.18795 0.485647 -0.0336503 -1.18635 
0.155605 -0.036384 -1.19501 0.0618676 -0.0220485 -1.17835 0.0902647 -0.0136774 -1.19501 
0.482846 -0.0236468 -1.18683 0.021238 -0.0260317 -1.18075 0.0610905 -0.0361802 -1.195 
0.236206 -0.036011 -1.195 0.495002 -0.0350905 -1.195 0.477671 -0.00499826 -1.1903 
0.00499735 -0.0149947 -1.19501 0.0746126 -0.0132046 -1.18679 0.142439 -0.027945 -1.18674 
0.0310108 -0.0245502 -1.17924 0.235832 -0.00799959 -1.18678 0.464713 -0.0205654 -1.1798 
0.19577 -0.0418043 -1.18697 0.0347504 -0.0449167 -1.195 0.360908 -0.0447937 -1.19494 
0.378326 -0.0148706 -1.19415 0.00499841 -0.0049978 -1.19501 0.118686 -0.0421191 -1.18684 
0.015591 -0.0388465 -1.17075 0.283843 -0.00507255 -1.18568 0.467315 -0.0450003 -1.195 
0.208806 -0.0152626 -0.245002 0.495001 -0.0300413 -1.18637 0.0973561 -0.0240442 -1.17952 
0.0497451 -0.0132331 -1.18211 0.443144 -0.0448606 -1.195 0.458749 -0.036624 -1.18975 
0.421044 -0.0353302 -1.195 0.0852994 -0.004999 -1.19501 0.485701 -0.018655 -1.19501 
0.477007 -0.0336473 -1.195 0.0117022 -0.0450013 -1.1776 0.0661628 -0.0363579 -1.18632 
0.162018 -0.0049953 -1.195 0.285254 -0.0329171 -1.19493 0.0561392 -0.0450049 -1.19501 
0.0850425 -0.0308578 -1.18643 0.421805 -0.0230043 -1.195 0.235604 -0.0137047 -1.195 
0.398753 -0.0449756 -1.195 0.351184 -0.00578506 -1.1794 0.0245881 -0.0169498 -1.17825 
0.0917674 -0.0380881 -1.188 0.401184 -0.00529352 -1.18107 0.195922 -0.0426081 -0.994604 
0.437865 -0.0361941 -1.19501 0.0901672 -0.0311246 -1.195 0.0718544 -0.00499664 -1.18102 
0.107344 -0.0236488 -1.17976 0.388572 -0.00501098 -1.18244 0.132091 -0.00499576 -1.195 
0.385569 -0.0350122 -1.19501 0.0446539 -0.045004 -1.17764 0.0450987 -0.0450025 -1.195 
0.0519885 -0.00501455 -1.17647 0.0167716 -0.0336703 -1.19501 0.0284703 -0.00499635 -1.19501 
0.0753003 -0.00507208 -1.195 0.488513 -0.0138823 -1.1798 0.444089 -0.0369558 -1.18722 
0.0461387 -0.028216 -1.19215 0.023567 -0.022444 -1.195 0.0733931 -0.0345218 -1.17966 
0.0268213 -0.00662969 -1.17917 0.175695 -0.0396392 -1.1882 0.405974 -0.0449986 -1.18809 
0.0602622 -0.0122334 -1.1876 0.429244 -0.0374853 -1.18971 0.0794947 -0.0161112 -1.17856 
0.459761 -0.0281884 -1.19501 0.0112685 -0.0376936 -1.1877 0.066983 -0.0136986 -1.18035 
0.407278 -0.0139146 -1.195 0.26627 -0.0183689 -1.1862 0.0763923 -0.045001 -1.195 
0.0952946 -0.00499967 -1.195 0.412929 -0.00500053 -1.195 0.399489 -0.0226889 -1.18658 
0.336825 -0.0141317 -1.195 0.478992 -0.0392409 -1.18141 0.105288 -0.00499639 -1.195 
0.364626 -0.0275047 -1.19496 0.262824 -0.0371532 -1.18622 0.10026 -0.0136787 -1.19501 
0.125985 -0.035425 -1.18542 0.0611381 -0.0450012 -1.18635 0.0799031 -0.0308653 -1.195 
0.0334707 -0.0136497 -1.19501 0.412785 -0.029625 -1.195 0.22591 -0.042297 -1.18679 
0.357819 -0.0351488 -1.195 0.406822 -0.0379484 -1.18104 0.152111 -0.0223478 -1.195 
0.423088 -0.00499747 -1.19502 0.103696 -0.027688 -1.19501 0.0902527 -0.0223289 -1.18635 
0.15561 -0.0449523 -1.18639 0.413304 -0.0449892 -1.195 0.220791 -0.0450087 -1.195 
0.201875 -0.00499247 -1.195 0.00499979 -0.029897 -1.17205 0.429905 -0.0290364 -1.195 
0.208714 -0.0235532 -1.195 0.330962 -0.0446216 -1.195 0.444861 -0.0125734 -1.18393 
0.113699 -0.0103851 -1.195 0.0662641 -0.044999 -1.17777 0.181939 -0.00499891 -1.195 
0.265547 -0.0062085 -1.18617 0.354612 -0.0253922 -1.195 0.41734 -0.0139735 -1.195 
0.0557085 -0.0276711 -1.195 0.39413 -0.0220017 -1.195 0.0386749 -0.0291523 -1.1854 
0.093565 -0.0450003 -1.195 0.444835 -0.029021 -1.195 0.0506219 -0.0450069 -1.18667 
0.147146 -0.0310145 -1.195 0.242683 -0.0401705 -1.18622 0.0710884 -0.0360191 -1.19501 
0.157082 -0.00791502 -1.18682 0.469562 -0.0166631 -1.18762 0.0226654 -0.0418143 -1.17746 
0.0802683 -0.0137496 -1.19501 0.107041 -0.0122934 -1.1878 0.344254 -0.0268927 -1.19321 
0.390208 -0.0288023 -1.1887 0.0987794 -0.0450035 -1.18629 0.2307 -0.00499403 -1.195 
0.108698 -0.0190353 -1.195 0.334736 -0.0244642 -1.19501 0.384043 -0.0234081 -1.1949 
0.28234 -0.0282862 -1.18653 0.430045 -0.00499968 -1.18548 0.230963 -0.0450097 -1.195 
0.266114 -0.0337118 -1.19501 0.424018 -0.0129764 -1.18564 0.0779567 -0.0377404 -1.18795 
0.0952496 -0.0223439 -1.195 0.142109 -0.0396416 -1.195 0.305802 -0.0360574 -1.19452 
0.423224 -0.0449999 -1.1937 0.084189 -0.0380025 -1.17949 0.370006 -0.00563842 -1.19353 
0.0555039 -0.028738 -1.17452 0.0440327 -0.00499761 -1.18253 0.0668463 -0.00499824 -1.18967 
0.308299 -0.0294859 -1.18727 0.160595 -0.0277203 -1.195 0.413174 -0.0212507 -1.18955 
0.0800477 -0.0221964 -1.18648 0.356735 -0.015609 -1.195 0.172152 -0.0176857 -1.18721 
0.194953 -0.0297966 -1.18709 0.184506 -0.035761 -1.195 0.314947 -0.0314793 -1.195 
0.0484659 -0.00499468 -1.19501 0.0490776 -0.021265 -1.1762 0.16704 -0.0137116 -1.195 
0.367702 -0.0370938 -1.19485 0.135448 -0.0376555 -1.18775 0.122104 -0.00499536 -1.195 
0.128686 -0.0450034 -1.18634 0.0678021 -0.0204049 -1.18812 0.0689163 -0.0132007 -1.195 
0.37759 -0.0448529 -1.195 0.347387 -0.0361629 -1.19497 0.108686 -0.0305751 -1.18684 
0.377061 -0.00712284 -1.17333 0.157062 -0.0136716 -1.195 0.290907 -0.0449175 -1.195 
0.388249 -0.019263 -1.18441 0.0928777 -0.0330565 -1.17943 0.16206 -0.0199057 -1.18894 
0.113757 -0.00499376 -1.18658 0.061857 -0.0049976 -1.1809 0.211861 -0.00499845 -1.195 
0.277294 -0.0263273 -1.195 0.152049 -0.00499527 -1.195 0.280919 -0.0449628 -1.195 
0.346729 -0.0156812 -1.195 0.0729572 -0.0290824 -1.18804 0.270908 -0.0449991 -1.195 
0.0952979 -0.00790561 -1.17819 0.18689 -0.0152424 -1.195 0.436 -0.0133605 -1.19007 
0.343244 -0.00575168 -1.1946 0.101861 -0.0363452 -1.18236 0.198843 -0.0250972 -1.19501 
0.205856 -0.0400672 -1.18785 0.200794 -0.0450011 -1.195 0.22619 -0.0170293 -1.195 
0.330627 -0.00617008 -1.195 0.215796 -0.0363435 -1.195 0.179604 -0.0234035 -1.195 
0.142112 -0.0223318 -1.195 0.0969801 -0.0295657 -1.18785 0.300886 -0.0447406 -1.195 
0.0712576 -0.0450013 -1.18643 0.403112 -0.00500302 -1.1931 0.216203 -0.0169313 -1.195 
0.245594 -0.0137672 -1.195 0.137082 -0.00786882 -1.18683 0.118517 -0.0288445 -1.18633 
0.142122 -0.0450038 -1.18657 0.132114 -0.0223198 -1.195 0.240957 -0.0449972 -1.19487 
0.0659869 -0.0274201 -1.19501 0.100297 -0.00499984 -1.18634 0.191902 -0.00499514 -1.195 
0.17697 -0.00796175 -1.18685 0.255146 -0.01671 -1.195 0.256188 -0.036226 -1.195 
0.310224 -0.00531165 -1.195 0.150542 -0.0450045 -1.19501 0.13244 -0.0279007 -1.18672 
0.123684 -0.0450058 -1.195 0.397996 -0.0135117 -1.1913 0.289919 -0.00499039 -1.19499 
0.113699 -0.0196715 -1.18637 0.437313 -0.0291012 -1.18798 0.142106 -0.0165722 -1.18683 
0.20802 -0.0349831 -0.245002 0.289462 -0.0431786 -1.18488 0.299953 -0.00505101 -1.195 
0.372407 -0.0225679 -1.1905 0.277782 -0.0131289 -1.1863 0.0817334 -0.0269498 -1.17784 
0.336678 -0.0358792 -1.195 0.00499872 -0.0422641 -1.17071 0.084796 -0.0395852 -1.19501 
0.35101 -0.0448903 -1.19185 0.0549972 -0.0368569 -1.1687 0.147081 -0.013665 -1.195 
0.142074 -0.00499473 -1.195 0.171979 -0.00501075 -1.195 0.247651 -0.0253389 -1.195 
0.260688 -0.00499298 -1.195 0.397394 -0.032396 -1.18276 0.108689 -0.0363482 -1.195 
0.29112 -0.0245957 -1.195 0.246203 -0.0360282 -1.195 0.324673 -0.0259906 -1.195 
0.0846891 -0.0450055 -1.18661 0.280308 -0.00780044 -1.195 0.241338 -0.0301956 -1.18851 
0.123689 -0.0276961 -1.195 0.260914 -0.0450165 -1.195 0.475866 -0.0306824 -1.18553 
0.123711 -0.0207969 -1.18346 0.237831 -0.0234574 -1.19501 0.160703 -0.0362495 -1.18641 
0.170693 -0.0450009 -1.195 0.210795 -0.0450021 -1.195 0.270697 -0.00502848 -1.195 
0.325649 -0.0149741 -1.195 0.405747 -0.0306326 -1.18797 0.215777 -0.0420966 -1.18681 
0.160674 -0.0450011 -1.19501 0.325914 -0.0359025 -1.195 0.304205 -0.0141651 -1.195 
0.375809 -0.0108291 -1.18415 0.221424 -0.0320953 -1.1871 0.137098 -0.0136594 -1.195 
0.294978 -0.0355437 -1.195 0.284543 -0.0170311 -1.195 0.240696 -0.00502258 -1.195 
0.206751 -0.0137124 -1.195 0.202682 -0.0193271 -1.1878 0.0986922 -0.0363443 -1.195 
0.221281 -0.0083248 -1.195 0.152106 -0.0165911 -1.18683 0.128685 -0.0363515 -1.195 
0.436851 -0.0195212 -1.18224 0.250941 -0.04494 -1.195 0.196945 -0.00798706 -1.18681 
0.133681 -0.0450068 -1.195 0.429925 -0.0326133 -1.17375 0.257741 -0.0263611 -1.195 
0.148839 -0.0376974 -1.18776 0.366745 -0.015354 -1.19458 0.267411 -0.0237899 -1.195 
0.377739 -0.0377776 -1.18794 0.153824 -0.0290296 -1.18776 0.180694 -0.0450021 -1.195 
0.085297 -0.00789681 -1.17819 0.194891 -0.0359077 -1.195 0.380248 -0.0281883 -1.18629 
0.165664 -0.0449504 -1.18635 0.218401 -0.0266896 -1.195 0.393389 -0.0383857 -1.18971 
0.175063 -0.0323214 -1.195 0.319138 -0.0107479 -1.18646 0.221292 -0.0211099 -1.18721 
0.192695 -0.0201696 -1.18853 0.452561 -0.0373298 -1.18193 0.165815 -0.0362773 -1.19502 
0.185712 -0.0438166 -1.18643 0.225874 -0.0364149 -1.195 0.0902994 -0.00499974 -1.18635 
0.298898 -0.0193311 -1.18793 0.300805 -0.0272414 -1.195 0.275811 -0.0362468 -1.195 
0.452165 -0.0292615 -1.18821 0.0726331 -0.0233332 -1.17987 0.211606 -0.0302995 -1.18822 
0.250692 -0.00509291 -1.195 0.309763 -0.0228102 -1.195 0.147083 -0.00789978 -1.18683 
0.102038 -0.0209459 -1.1878 0.12711 -0.0136604 -1.19501 0.474953 -0.021828 -1.18097 
0.228401 -0.0267636 -1.195 0.461092 -0.0290417 -1.18367 0.113686 -0.045005 -1.195 
0.452315 -0.0191139 -1.18264 0.169605 -0.0233895 -1.19501 0.215694 -0.00902605 -1.18663 
0.118694 -0.0190416 -1.195 0.264793 -0.0140817 -1.19505 0.310889 -0.0449537 -1.195 
0.196763 -0.0137271 -1.195 0.320912 -0.0445602 -1.195 
VERTICES 500 1000
1 0 
1 1 
1 2 
1 3 
1 4 
1 5 
1 6 
1 7 
1 8 
1 9 
1 10 
1 11 
1 12 
1 13 
1 14 
1 15 
1 16 
1 17 
1 18 
1 19 
1 20 
1 21 
1 22 
1 23 
1 24 
1 25 
1 26 
1 27 
1 28 
1 29 
1 30 
1 31 
1 32 
1 33 
1 34 
1 35 
1 36 
1 37 
1 38 
1 39 
1 40 
1 41 
1 42 
1 43 
1 44 
1 45 
1 46 
1 47 
1 48 
1 49 
1 50 
1 51 
1 52 
1 53 
1 54 
1 55 
1 56 
1 57 
1 58 
1 59 
1 60 
1 61 
1 62 
1 63 
1 64 
1 65 
1 66 
1 67 
1 68 
1 69 
1 70 
1 71 
1 72 
1 73 
1 74 
1 75 
1 76 
1 77 
1 78 
1 79 
1 80 
1 81 
1 82 
1 83 
1 84 
1 85 
1 86 
1 87 
1 88 
1 89 
1 90 
1 91 
1 92 
1 93 
1 94 
1 95 
1 96 
1 97 
1 98 
1 99 
1 100 
1 101 
1 102 
1 103 
1 104 
1 105 
1 106 
1 107 
1 108 
1 109 
1 110 
1 111 
1 112 
1 113 
1 114 
1 115 
1 116 
1 117 
1 118 
1 119 
1 120 
1 121 
1 122 
1 123 
1 124 
1 125 
1 126 
1 127 
1 128 
1 129 
1 130 
1 131 
1 132 
1 133 
1 134 
1 135 
1 136 
1 137 
1 138 
1 139 
1 140 
1 141 
1 142 
1 143 
1 144 
1 145 
1 146 
1 147 
1 148 
1 149 
1 150 
1 151 
1 152 
1 153 
1 154 
1 155 
1 156 
1 157 
1 158 
1 159 
1 160 
1 161 
1 162 
1 163 
1 164 
1 165 
1 166 
1 167 
1 168 
1 169 
1 170 
1 171 
1 172 
1 173 
1 174 
1 175 
1 176 
1 177 
1 178 
1 179 
1 180 
1 181 
1 182 
1 183 
1 184 
1 185 
1 186 
1 187 
1 188 
1 189 
1 190 
1 191 
1 192 
1 193 
1 194 
1 195 
1 196 
1 197 
1 198 
1 199 
1 200 
1 201 
1 202 
1 203 
1 204 
1 205 
1 206 
1 207 
1 208 
1 209 
1 210 
1 211 
1 212 
1 213 
1 214 
1 215 
1 216 
1 217 
1 218 
1 219 
1 220 
1 221 
1 222 
1 223 
1 224 
1 225 
1 226 
1 227 
1 228 
1 229 
1 230 
1 231 
1 232 
1 233 
1 234 
1 235 
1 236 
1 237 
1 238 
1 239 
1 240 
1 241 
1 242 
1 243 
1 244 
1 245 
1 246 
1 247 
1 248 
1 249 
1 250 
1 251 
1 252 
1 253 
1 254 
1 255 
1 256 
1 257 
1 258 
1 259 
1 260 
1 261 
1 262 
1 263 
1 264 
1 265 
1 266 
1 267 
1 268 
1 269 
1 270 
1 271 
1 272 
1 273 
1 274 
1 275 
1 276 
1 277 
1 278 
1 279 
1 280 
1 281 
1 282 
1 283 
1 284 
1 285 
1 286 
1 287 
1 288 
1 289 
1 290 
1 291 
1 292 
1 293 
1 294 
1 295 
1 296 
1 297 
1 298 
1 299 
1 300 
1 301 
1 302 
1 303 
1 304 
1 305 
1 306 
1 307 
1 308 
1 309 
1 310 
1 311 
1 312 
1 313 
1 314 
1 315 
1 316 
1 317 
1 318 
1 319 
1 320 
1 321 
1 322 
1 323 
1 324 
1 325 
1 326 
1 327 
1 328 
1 329 
1 330 
1 331 
1 332 
1 333 
1 334 
1 335 
1 336 
1 337 
1 338 
1 339 
1 340 
1 341 
1 342 
1 343 
1 344 
1 345 
1 346 
1 347 
1 348 
1 349 
1 350 
1 351 
1 352 
1 353 
1 354 
1 355 
1 356 
1 357 
1 358 
1 359 
1 360 
1 361 
1 362 
1 363 
1 364 
1 365 
1 366 
1 367 
1 368 
1 369 
1 370 
1 371 
1 372 
1 373 
1 374 
1 375 
1 376 
1 377 
1 378 
1 379 
1 380 
1 381 
1 382 
1 383 
1 384 
1 385 
1 386 
1 387 
1 388 
1 389 
1 390 
1 391 
1 392 
1 393 
1 394 
1 395 
1 396 
1 397 
1 398 
1 399 
1 400 
1 401 
1 402 
1 403 
1 404 
1 405 
1 406 
1 407 
1 408 
1 409 
1 410 
1 411 
1 412 
1 413 
1 414 
1 415 
1 416 
1 417 
1 418 
1 419 
1 420 
1 421 
1 422 
1 423 
1 424 
1 425 
1 426 
1 427 
1 428 
1 429 
1 430 
1 431 
1 432 
1 433 
1 434 
1 435 
1 436 
1 437 
1 438 
1 439 
1 440 
1 441 
1 442 
1 443 
1 444 
1 445 
1 446 
1 447 
1 448 
1 449 
1 450 
1 451 
1 452 
1 453 
1 454 
1 455 
1 456 
1 457 
1 458 
1 459 
1 460 
1 461 
1 462 
1 463 
1 464 
1 465 
1 466 
1 467 
1 468 
1 469 
1 470 
1 471 
1 472 
1 473 
1 474 
1 475 
1 476 
1 477 
1 478 
1 479 
1 480 
1 481 
1 482 
1 483 
1 484 
1 485 
1 486 
1 487 
1 488 
1 489 
1 490 
1 491 
1 492 
1 493 
1 494 
1 495 
1 496 
1 497 
1 498 
1 499 

POINT_DATA 500
FIELD FieldData 7
id 1 500 int
1 2 3 4 5 6 7 8 9 
10 11 12 13 14 15 16 17 18 
19 20 21 22 23 24 25 26 27 
28 29 30 31 32 33 34 35 36 
37 38 39 40 41 42 43 44 45 
46 47 48 49 50 51 52 53 54 
55 56 57 58 59 60 61 62 63 
64 65 66 67 68 69 70 71 72 
73 74 75 76 77 78 79 80 81 
82 83 84 85 86 87 88 89 90 
91 92 93 94 95 96 97 98 99 
100 101 102 103 104 105 106 107 108 
109 110 111 112 113 114 115 116 117 
118 119 120 121 122 123 124 125 126 
127 128 129 130 131 132 133 134 135 
136 137 138 139 140 141 142 143 144 
145 146 147 148 149 150 151 152 153 
154 155 156 157 158 159 160 161 162 
163 164 165 166 167 168 169 170 171 
172 173 174 175 176 177 178 179 180 
181 182 183 184 185 186 187 188 189 
190 191 192 193 194 195 196 197 198 
199 200 201 202 203 204 205 206 207 
208 209 210 211 212 213 214 215 216 
217 218 219 220 221 222 223 224 225 
226 227 228 229 230 231 232 233 234 
235 236 237 238 239 240 241 242 243 
244 245 246 247 248 249 250 251 252 
253 254 255 256 257 258 259 260 261 
262 263 264 265 266 267 268 269 270 
271 272 273 274 275 276 277 278 279 
280 281 282 283 284 285 286 287 288 
289 290 291 292 293 294 295 296 297 
298 299 300 301 302 303 304 305 306 
307 308 309 310 311 312 313 314 315 
316 317 318 319 320 321 322 323 324 
325 326 327 328 329 330 331 332 333 
334 335 336 337 338 339 340 341 342 
343 344 345 346 347 348 349 350 351 
352 353 354 355 356 357 358 359 360 
361 362 363 364 365 366 367 368 369 
370 371 372 373 374 375 376 377 378 
379 380 381 382 383 384 385 386 387 
388 389 390 391 392 393 394 395 396 
397 398 399 400 401 402 403 404 405 
406 407 408 409 410 411 412 413 414 
415 416 417 418 419 420 421 422 423 
424 425 426 427 428 429 430 431 432 
433 434 435 436 437 438 439 440 441 
442 443 444 445 446 447 448 449 450 
451 452 453 454 455 456 457 458 459 
460 461 462 463 464 465 466 467 468 
469 470 471 472 473 474 475 476 477 
478 479 480 481 482 483 484 485 486 
487 488 489 490 491 492 493 494 495 
496 497 498 499 500 
type 1 500 int
1 1 1 1 1 1 1 1 1 
1 1 1 1 1 1 1 1 1 
1 1 1 1 1 1 1 1 1 
1 1 1 1 1 1 1 1 1 
1 1 1 1 1 1 1 1 1 
1 1 1 1 1 1 1 1 1 
1 1 1 1 1 1 1 1 1 
1 1 1 1 1 1 1 1 1 
1 1 1 1 1 1 1 1 1 
1 1 1 1 1 1 1 1 1 
1 1 1 1 1 1 1 1 1 
1 1 1 1 1 1 1 1 1 
1 1 1 1 1 1 1 1 1 
1 1 1 1 1 1 1 1 1 
1 1 1 1 1 1 1 1 1 
1 1 1 1 1 1 1 1 1 
1 1 1 1 1 1 1 1 1 
1 1 1 1 1 1 1 1 1 
1 1 1 1 1 1 1 1 1 
1 1 1 1 1 1 1 1 1 
1 1 1 1 1 1 1 1 1 
1 1 1 1 1 1 1 1 1 
1 1 1 1 1 1 1 1 1 
1 1 1 1 1 1 1 1 1 
1 1 1 1 1 1 1 1 1 
1 1 1 1 1 1 1 1 1 
1 1 1 1 1 1 1 1 1 
1 1 1 1 1 1 1 1 1 
1 1 1 1 1 1 1 1 1 
1 1 1 1 1 1 1 1 1 
1 1 1 1 1 1 1 1 1 
1 1 1 1 1 1 1 1 1 
1 1 1 1 1 1 1 1 1 
1 1 1 1 1 1 1 1 1 
1 1 1 1 1 1 1 1 1 
1 1 1 1 1 1 1 1 1 
1 1 1 1 1 1 1 1 1 
1 1 1 1 1 1 1 1 1 
1 1 1 1 1 1 1 1 1 
1 1 1 1 1 1 1 1 1 
1 1 1 1 1 1 1 1 1 
1 1 1 1 1 1 1 1 1 
1 1 1 1 1 1 1 1 1 
1 1 1 1 1 1 1 1 1 
1 1 1 1 1 1 1 1 1 
1 1 1 1 1 1 1 1 1 
1 1 1 1 1 1 1 1 1 
1 1 1 1 1 1 1 1 1 
1 1 1 1 1 1 1 1 1 
1 1 1 1 1 1 1 1 1 
1 1 1 1 1 1 1 1 1 
1 1 1 1 1 1 1 1 1 
1 1 1 1 1 1 1 1 1 
1 1 1 1 1 1 1 1 1 
1 1 1 1 1 1 1 1 1 
1 1 1 1 1 
i 3 500 int
0 0 0 0 0 0 0 0 0 
0 0 0 0 0 0 0 0 0 
0 0 0 0 0 0 0 0 0 
0 0 0 0 0 0 0 0 0 
0 0 0 0 0 0 0 0 0 
0 0 0 0 0 0 0 0 0 
0 0 0 0 0 0 0 0 0 
0 0 0 0 0 0 0 0 0 
0 0 0 0 0 0 0 0 0 
0 0 0 0 0 0 0 0 0 
0 0 0 0 0 0 0 0 0 
0 0 0 0 0 0 0 0 0 
0 0 0 0 0 0 0 0 0 
0 0 0 0 0 0 0 0 0 
0 0 0 0 0 0 0 0 0 
0 0 0 0 0 0 0 0 0 
0 0 0 0 0 0 0 0 0 
0 0 0 0 0 0 0 0 0 
0 0 0 0 0 0 0 0 0 
0 0 0 0 0 0 0 0 0 
0 0 0 0 0 0 0 0 0 
0 0 0 0 0 0 0 0 0 
0 0 0 0 0 0 0 0 0 
0 0 0 0 0 0 0 0 0 
0 0 0 0 0 0 0 0 0 
0 0 0 0 0 0 0 0 0 
0 0 0 0 0 0 0 0 0 
0 0 0 0 0 0 0 0 0 
0 0 0 0 0 0 0 0 0 
0 0 0 0 0 0 0 0 0 
0 0 0 0 0 0 0 0 0 
0 0 0 0 0 0 0 0 0 
0 0 0 0 0 0 0 0 0 
0 0 0 0 0 0 0 0 0 
0 0 0 0 0 0 0 0 0 
0 0 0 0 0 0 0 0 0 
0 0 0 0 0 0 0 0 0 
0 0 0 0 0 0 0 0 0 
0 0 0 0 0 0 0 0 0 
0 0 0 0 0 0 0 0 0 
0 0 0 0 0 0 0 0 0 
0 0 0 0 0 0 0 0 0 
0 0 0 0 0 0 0 0 0 
0 0 0 0 0 0 0 0 0 
0 0 0 0 0 0 0 0 0 
0 0 0 0 0 0 0 0 0 
0 0 0 0 0 0 0 0 0 
0 0 0 0 0 0 0 0 0 
0 0 0 0 0 0 0 0 0 
0 0 0 0 0 0 0 0 0 
0 0 0 0 0 0 0 0 0 
0 0 0 0 0 0 0 0 0 
0 0 0 0 0 0 0 0 0 
0 0 0 0 0 0 0 0 0 
0 0 0 0 0 0 0 0 0 
0 0 0 0 0 0 0 0 0 
0 0 0 0 0 0 0 0 0 
0 0 0 0 0 0 0 0 0 
0 0 0 0 0 0 0 0 0 
0 0 0 0 0 0 0 0 0 
0 0 0 0 0 0 0 0 0 
0 0 0 0 0 0 0 0 0 
0 0 0 0 0 0 0 0 0 
0 0 0 0 0 0 0 0 0 
0 0 0 0 0 0 0 0 0 
0 0 0 0 0 0 0 0 0 
0 0 0 0 0 0 0 0 0 
0 0 0 0 0 0 0 0 0 
0 0 0 0 0 0 0 0 0 
0 0 0 0 0 0 0 0 0 
0 0 0 0 0 0 0 0 0 
0 0 0 0 0 0 0 0 0 
0 0 0 0 0 0 0 0 0 
0 0 0 0 0 0 0 0 0 
0 0 0 0 0 0 0 0 0 
0 0 0 0 0 0 0 0 0 
0 0 0 0 0 0 0 0 0 
0 0 0 0 0 0 0 0 0 
0 0 0 0 0 0 0 0 0 
0 0 0 0 0 0 0 0 0 
0 0 0 0 0 0 0 0 0 
0 0 0 0 0 0 0 0 0 
0 0 0 0 0 0 0 0 0 
0 0 0 0 0 0 0 0 0 
0 0 0 0 0 0 0 0 0 
0 0 0 0 0 0 0 0 0 
0 0 0 0 0 0 0 0 0 
0 0 0 0 0 0 0 0 0 
0 0 0 0 0 0 0 0 0 
0 0 0 0 0 0 0 0 0 
0 0 0 0 0 0 0 0 0 
0 0 0 0 0 0 0 0 0 
0 0 0 0 0 0 0 0 0 
0 0 0 0 0 0 0 0 0 
0 0 0 0 0 0 0 0 0 
0 0 0 0 0 0 0 0 0 
0 0 0 0 0 0 0 0 0 
0 0 0 0 0 0 0 0 0 
0 0 0 0 0 0 0 0 0 
0 0 0 0 0 0 0 0 0 
0 0 0 0 0 0 0 0 0 
0 0 0 0 0 0 0 0 0 
0 0 0 0 0 0 0 0 0 
0 0 0 0 0 0 0 0 0 
0 0 0 0 0 0 0 0 0 
0 0 0 0 0 0 0 0 0 
0 0 0 0 0 0 0 0 0 
0 0 0 0 0 0 0 0 0 
0 0 0 0 0 0 0 0 0 
0 0 0 0 0 0 0 0 0 
0 0 0 0 0 0 0 0 0 
0 0 0 0 0 0 0 0 0 
0 0 0 0 0 0 0 0 0 
0 0 0 0 0 0 0 0 0 
0 0 0 0 0 0 0 0 0 
0 0 0 0 0 0 0 0 0 
0 0 0 0 0 0 0 0 0 
0 0 0 0 0 0 0 0 0 
0 0 0 0 0 0 0 0 0 
0 0 0 0 0 0 0 0 0 
0 0 0 0 0 0 0 0 0 
0 0 0 0 0 0 0 0 0 
0 0 0 0 0 0 0 0 0 
0 0 0 0 0 0 0 0 0 
0 0 0 0 0 0 0 0 0 
0 0 0 0 0 0 0 0 0 
0 0 0 0 0 0 0 0 0 
0 0 0 0 0 0 0 0 0 
0 0 0 0 0 0 0 0 0 
0 0 0 0 0 0 0 0 0 
0 0 0 0 0 0 0 0 0 
0 0 0 0 0 0 0 0 0 
0 0 0 0 0 0 0 0 0 
0 0 0 0 0 0 0 0 0 
0 0 0 0 0 0 0 0 0 
0 0 0 0 0 0 0 0 0 
0 0 0 0 0 0 0 0 0 
0 0 0 0 0 0 0 0 0 
0 0 0 0 0 0 0 0 0 
0 0 0 0 0 0 0 0 0 
0 0 0 0 0 0 0 0 0 
0 0 0 0 0 0 0 0 0 
0 0 0 0 0 0 0 0 0 
0 0 0 0 0 0 0 0 0 
0 0 0 0 0 0 0 0 0 
0 0 0 0 0 0 0 0 0 
0 0 0 0 0 0 0 0 0 
0 0 0 0 0 0 0 0 0 
0 0 0 0 0 0 0 0 0 
0 0 0 0 0 0 0 0 0 
0 0 0 0 0 0 0 0 0 
0 0 0 0 0 0 0 0 0 
0 0 0 0 0 0 0 0 0 
0 0 0 0 0 0 0 0 0 
0 0 0 0 0 0 0 0 0 
0 0 0 0 0 0 0 0 0 
0 0 0 0 0 0 0 0 0 
0 0 0 0 0 0 0 0 0 
0 0 0 0 0 0 0 0 0 
0 0 0 0 0 0 0 0 0 
0 0 0 0 0 0 0 0 0 
0 0 0 0 0 0 0 0 0 
0 0 0 0 0 0 0 0 0 
0 0 0 0 0 0 0 0 0 
0 0 0 0 0 0 0 0 0 
0 0 0 0 0 0 0 0 0 
0 0 0 0 0 0 
v 3 500 double
-0.0121875 0.00253221 -0.0988864 -0.0782837 0.0230695 -0.00971684 2.88677e-05 3.41692e-05 -6.54072e-05 
0.00534053 -0.00155632 -0.00709916 0.000615155 0.00165045 -0.00128002 0.000759312 9.76892e-05 -0.00309103 
0.00950367 0.00052889 -0.000966342 0.00293549 6.14868e-05 -0.00162743 -0.00695419 0.01039 -0.00753911 
-0.00312281 -0.000459022 -0.000471184 -0.0888958 -0.27725 0.0368562 0.0014777 -0.00146398 -0.000228782 
0.00278259 0.000842661 -0.00274866 0.0494529 -0.0333975 0.0147121 0.000580469 0.00193782 0.00192648 
-0.125014 0.0747353 0.00232864 -4.12219e-05 3.99057e-05 -5.83199e-05 0.000254802 0.000100936 -0.000315963 
0.00821228 0.00133012 -4.98279e-06 -0.00264015 0.000162334 -0.00140983 0.000709446 -1.05555e-05 -0.000121944 
0.113485 -0.0627889 -0.036357 -0.000965699 -9.49813e-05 -5.72801e-05 -0.000256336 8.99425e-05 0.00262641 
-0.00900986 0.00217352 0.00509607 -0.0139301 0.0284695 0.142982 0.000399524 0.000455624 5.95186e-05 
-0.00285849 -0.000468671 -0.000645951 0.048134 -0.0286409 -0.0145975 0.00874325 -0.000476033 -0.00154204 
0.00247984 -0.00059295 0.000846324 -0.0390506 -0.00529502 -0.00403807 -0.0434868 0.0142738 0.0154576 
-0.00536751 0.000828302 -9.09921e-05 0.00605107 0.00910831 0.00185415 0.00425678 -0.00467051 -0.00504434 
0.125904 -0.0158971 0.00243738 0.000198931 0.000183656 0.00014782 0.00529953 -0.00311984 -0.00555694 
-0.000156549 0.000233603 -9.26701e-05 0.0183497 -0.0234269 -4.19132e-11 0.00343921 -0.00242771 -0.00107463 
-0.00795103 0.00571517 -0.00908664 -0.0829912 0.00202314 -0.0057308 0.00423499 -0.000936479 -0.000645655 
-0.00118447 5.26834e-05 0.000301004 -0.00025109 3.40842e-05 -0.000125399 -3.20996e-05 -5.80616e-05 -2.21236e-05 
-0.000582576 -0.000122021 -0.000781618 -0.0240134 0.00186708 0.0127374 -0.0601234 -0.0119488 0.0456787 
-0.000184066 0.000176556 0.000126332 0.00326653 4.64814e-05 -0.00391641 0.00849615 -1.93405e-05 -0.00242824 
0.000324367 -7.86099e-05 -0.000273063 -0.000120515 -0.000279624 0.000168795 0.0085623 0.00146328 8.03572e-05 
-0.00222831 0.00502799 -0.00862808 0.00229087 8.84036e-05 -0.0051077 0.00465113 -0.00191086 -0.00728383 
0.000130172 0.000122817 0.000161427 -0.00277194 -0.0250787 -0.000767321 -7.14386e-05 0.000642498 -0.00216982 
0.00525491 -0.00319125 -0.000449989 0.00944366 -0.000490038 0.00128526 -0.013852 0.00060469 -0.00560884 
-0.072484 -0.00289044 -0.0449046 -0.0224405 -0.0242036 -0.0197136 -0.0219843 -0.00015142 -0.000933427 
-0.000134019 -8.63021e-05 1.77594e-05 -0.000149934 0.00049317 1.39271e-05 -0.00177522 -0.000135195 -0.000927365 
0.00643875 -0.00444367 -0.00456732 0.000666704 0.0014066 1.1343e-05 0.00903158 0.000363529 -0.00270089 
0.00749296 0.00382659 0.00352772 0.000837955 -9.08217e-05 -0.00424994 -0.0139252 -0.00674735 -0.0216954 
-0.090268 -0.00603237 -0.00539907 0.000926855 -0.000134407 1.18103e-05 0.00846643 0.000138064 -0.000751938 
0.00141604 -0.000349666 0.000587486 -0.0144563 -0.0103111 -0.00550201 0.00515285 -4.66737e-05 -0.00237496 
-0.0475873 0.116323 -0.0268657 0.00950248 0.000237501 -0.000110095 0.000270939 0.000285461 0.000301324 
-0.27938 0.0594663 0.283076 -0.0228062 0.00516435 -0.0236088 1.06521e-05 -3.91127e-05 4.93443e-06 
0.00915625 -0.00251462 1.37725e-05 -0.0246751 -0.00723841 -0.0288725 -0.00368891 0.0134232 -0.00337099 
9.52106e-05 -2.27959e-05 -0.000122371 3.73367e-05 -4.78488e-06 5.40301e-05 0.00119991 -0.00112125 -0.000839598 
-0.00601844 -0.000974933 -0.00117897 0.00933535 -0.000397821 0.000638885 0.0163098 -0.000249669 -0.000261704 
0.0123319 -0.000104899 -0.000217595 0.0120182 -0.000383558 -0.000289199 0.00178269 4.01582e-05 1.39544e-13 
-0.000121546 0.000844564 -0.000608511 -0.00892323 0.00589573 -0.0147903 0.0282066 0.000358292 0.0062718 
0.296206 -0.794586 0.678415 0.00265498 -0.00199289 -0.000331793 0.0057044 -0.00317481 -0.00116829 
0.00282897 -0.0011943 -1.35132e-06 0.010251 6.91561e-05 -0.000963533 -0.00789224 -0.00717218 0.00149235 
0.00611365 0.00105744 -0.00347815 -0.000403541 -2.76573e-05 -0.00010222 -0.0358701 -0.00743784 -0.0454032 
0.00258915 -0.00633486 0.00302087 0.00245016 -0.00601688 0.000139427 -0.0502178 -0.0433306 -0.0378837 
-0.0211849 0.00180179 -0.0010693 -0.00337615 0.000760764 -0.00155708 0.00978022 -0.000747335 -0.000308857 
-0.0265059 0.0275186 -0.00339394 -0.00212222 -0.000364074 -0.00150583 -0.0168155 0.00094022 0.00462532 
-0.00874728 0.0005311 -0.0189157 -0.00255561 0.000265455 -7.0246e-05 0.000816302 -0.000201704 -0.00333952 
0.000464821 0.000976334 1.85398e-12 -0.00281467 0.000376506 0.00071781 7.91477e-05 5.8685e-05 -8.69842e-05 
-0.000200271 0.000194021 0.000528239 0.00737902 0.00178953 -0.00402666 0.000104428 0.000105588 -0.000124519 
0.00486526 0.0196257 0.000969057 0.000240071 6.51254e-05 -8.53113e-06 0.0113756 0.00209838 0.000204713 
-0.0965316 0.0121238 -0.00213989 0.00691718 -0.0025191 -0.00384697 -0.0839732 -0.0441939 0.0029393 
-0.0116296 -0.0048086 0.00878318 0.0102665 -0.00498317 0.00565936 -0.0233539 -0.00566362 0.000950326 
-0.00116096 0.00205539 -0.00348174 -0.0014504 0.0014837 -0.000224484 -0.101477 0.0229505 -0.00933601 
-0.00297077 -2.42499e-05 -0.00100127 -0.0826984 -0.00934824 -0.0118685 0.00180354 -0.000326247 -0.000437234 
0.00415459 -0.00400285 -0.000467305 -0.00822769 -0.00183082 -0.0011121 -0.00134479 -0.000655841 0.00198035 
0.00995471 0.000258508 0.00374137 -0.0305981 0.00028311 -0.0075812 6.71134e-06 -7.43205e-06 -2.02792e-06 
-0.00466289 0.000318526 -0.000131956 -0.00755445 -0.0465918 0.0190863 -0.00679759 -0.00412031 0.000504406 
0.000467288 -0.00430941 -7.16913e-05 -0.00116692 -7.92332e-05 -0.00389237 -0.000127178 2.01926e-05 -0.000255312 
0.000368793 -0.000299204 -0.000287457 1.32611e-05 3.66477e-05 -4.311e-05 -0.0167939 -0.0211125 -0.024595 