# vtk DataFile Version 4.0
Generated by LIGGGHTS
ASCII
DATASET POLYDATA
POINTS 500 float
0.423764 -0.0449586 -1.18106 0.428401 -0.031797 -1.18214 0.00511289 -0.0249851 -1.19501 
0.0390134 -0.0202476 -1.17456 0.0167687 -0.0224121 -1.17241 0.0356384 -0.00499904 -1.17483 
0.0443218 -0.0364684 -1.18559 0.0315704 -0.0449611 -1.17452 0.088397 -0.0136847 -1.17769 
0.469691 -0.00499863 -1.18428 0.378995 -0.0372477 -1.19507 0.464163 -0.0131312 -1.195 
0.021034 -0.0141531 -1.16873 0.343408 -0.00517088 -1.195 0.0433226 -0.0112743 -1.17359 
0.396662 -0.0291512 -1.19499 0.0278879 -0.045003 -1.18381 0.495001 -0.0450012 -1.18513 
0.0394225 -0.0363219 -1.195 0.482613 -0.0136565 -1.18691 0.00542393 -0.0199071 -1.17185 
0.180489 -0.0316801 -1.18938 0.493429 -0.045001 -1.195 0.0530584 -0.00499626 -1.18629 
0.172518 -0.0262571 -1.1867 0.395377 -0.0437855 -1.18035 0.485712 -0.0286581 -1.19501 
0.457978 -0.0447117 -1.19501 0.333437 -0.0127209 -1.19462 0.0934372 -0.0136356 -1.18632 
0.0340294 -0.0205139 -1.18783 0.442893 -0.0449885 -1.18635 0.415138 -0.0141044 -1.18307 
0.461172 -0.0203646 -1.18878 0.207521 -0.0337471 -1.195 0.0328709 -0.0371642 -1.1875 
0.406652 -0.00500998 -1.195 0.0148538 -0.0434272 -1.195 0.0373298 -0.037869 -1.17858 
0.495002 -0.0100009 -1.18635 0.222161 -0.0372397 -0.245002 0.1118 -0.0276871 -1.195 
0.0683125 -0.00902129 -1.17108 0.42301 -0.0378443 -1.18811 0.116793 -0.0363465 -1.195 
0.467146 -0.0350393 -1.19501 0.00506887 -0.0369108 -1.17915 0.00499763 -0.019981 -1.18635 
0.484503 -0.0450055 -1.18738 0.431097 -0.0202219 -1.18799 0.391999 -0.00502276 -1.195 
0.477971 -0.045002 -1.195 0.0215781 -0.00499609 -1.18749 0.0594327 -0.0449982 -1.16908 
0.00990267 -0.024966 -1.17922 0.0148244 -0.0336662 -1.17924 0.0833421 -0.0223669 -1.195 
0.0674849 -0.0191612 -1.17138 0.0140918 -0.00499939 -1.18087 0.0421063 -0.0297288 -1.17527 
0.0265551 -0.0352292 -1.19501 0.450669 -0.0354029 -1.19501 0.0148378 -0.0146766 -1.17847 
0.0433802 -0.0207564 -1.18432 0.0753114 -0.0450009 -1.17823 0.431066 -0.0130993 -1.19501 
0.439007 -0.0327381 -1.17821 0.446259 -0.0263513 -1.18078 0.438088 -0.00500129 -1.195 
0.00499537 -0.013075 -1.17913 0.485698 -0.0386571 -1.195 0.491939 -0.0199937 -1.18691 
0.0422671 -0.011869 -1.18904 0.0137128 -0.019882 -1.19501 0.0544154 -0.0450031 -1.17773 
0.0529389 -0.0202063 -1.18718 0.0194247 -0.00499957 -1.17242 0.422346 -0.00500349 -1.18266 
0.409748 -0.0291208 -1.19501 0.492086 -0.037023 -1.17986 0.0494084 -0.0364185 -1.17664 
0.0275892 -0.0281491 -1.18802 0.445849 -0.019549 -1.18809 0.00717084 -0.00499821 -1.17366 
0.242229 -0.038511 -1.12662 0.0594517 -0.0363673 -1.17769 0.0213845 -0.035819 -1.18647 
0.324276 -0.0387826 -1.18832 0.434955 -0.0449802 -1.18027 0.00499645 -0.00499698 -1.18502 
0.0494199 -0.0363845 -1.195 0.392361 -0.0205907 -1.18117 0.0592118 -0.00501507 -1.17003 
0.00499451 -0.0299771 -1.18635 0.00499177 -0.0450008 -1.19501 0.0117044 -0.0117058 -1.18836 
0.125229 -0.00505323 -1.18634 0.0833963 -0.0136428 -1.18635 0.193002 -0.0450052 -1.195 
0.0644772 -0.0449917 -1.19501 0.0730208 -0.0221548 -1.19501 0.207422 -0.0449973 -0.245002 
0.0143779 -0.026924 -1.18794 0.462972 -0.0123118 -1.18313 0.291766 -0.0160422 -1.195 
0.371385 -0.005607 -1.18349 0.106791 -0.0421397 -1.18683 0.135233 -0.030989 -1.195 
0.10179 -0.0450004 -1.195 0.0495466 -0.0284557 -1.18268 0.175563 -0.0140421 -1.19495 
0.0594185 -0.0277439 -1.1862 0.495004 -0.00499658 -1.195 0.399223 -0.0123191 -1.195 
0.100464 -0.0146055 -1.17928 0.0410545 -0.0197792 -1.19501 0.255359 -0.00922548 -1.18698 
0.445463 -0.00499539 -1.18824 0.462965 -0.0450065 -1.18635 0.0544178 -0.0363817 -1.18634 
0.273398 -0.0152242 -1.19032 0.488923 -0.0260018 -1.17949 0.452825 -0.00499847 -1.19501 
0.461404 -0.00500021 -1.18988 0.469986 -0.00500032 -1.195 0.0336563 -0.0049936 -1.1861 
0.205165 -0.0250142 -0.245002 0.467929 -0.0364151 -1.18514 0.495003 -0.0149936 -1.19501 
0.0176324 -0.0450152 -1.18546 0.0362077 -0.0133373 -1.18122 0.495006 -0.0249898 -1.195 
0.0581457 -0.00561891 -1.195 0.0245545 -0.0450015 -1.19324 0.0497604 -0.0148645 -1.19501 
0.415019 -0.0213704 -1.19056 0.0215809 -0.031256 -1.17228 0.248624 -0.0203946 -1.18638 
0.453854 -0.00499716 -1.18252 0.188029 -0.0282819 -1.195 0.438616 -0.0196545 -1.195 
0.468893 -0.0266123 -1.18992 0.485704 -0.00865782 -1.195 0.408951 -0.0143571 -1.17477 
0.472972 -0.0450003 -1.18634 0.415444 -0.0374615 -1.195 0.0191325 -0.018209 -1.18678 
0.0589949 -0.0188483 -1.19501 0.44603 -0.0123328 -1.19501 0.130216 -0.0165713 -1.18683 
0.0784155 -0.00498398 -1.18634 0.437874 -0.0450058 -1.195 0.00499863 -0.0450035 -1.18501 
0.476768 -0.0131389 -1.19501 0.236252 -0.0300888 -1.18472 0.453358 -0.0204104 -1.19501 
0.0347099 -0.0275047 -1.195 0.486674 -0.00499835 -1.18399 0.0149908 -0.00499887 -1.19501 
0.47677 -0.0231384 -1.195 0.00499753 -0.0349828 -1.195 0.185148 -0.010829 -1.18859 
0.0281439 -0.0336134 -1.17944 0.0276136 -0.0129264 -1.18674 0.0391535 -0.0450017 -1.18623 
0.454798 -0.0126503 -1.18888 0.118533 -0.0123766 -1.18772 0.40266 -0.0449789 -1.18714 
0.038173 -0.00498965 -1.19501 0.0567341 -0.0132698 -1.17541 0.250969 -0.0142231 -1.17808 
0.0215818 -0.0125186 -1.195 0.452935 -0.045 -1.18638 0.485277 -0.0336528 -1.18636 
0.153675 -0.0363419 -1.195 0.0606341 -0.0220889 -1.17805 0.0883916 -0.0136635 -1.195 
0.482639 -0.0236602 -1.18691 0.0211814 -0.0258711 -1.18069 0.0594127 -0.0362547 -1.195 
0.237044 -0.0337317 -1.195 0.495002 -0.035001 -1.195 0.478272 -0.00499667 -1.18941 
0.00499678 -0.0149878 -1.19501 0.0725951 -0.013074 -1.18689 0.13656 -0.0259759 -1.18645 
0.0308893 -0.0240126 -1.17901 0.234271 -0.00651654 -1.18548 0.466662 -0.0210351 -1.17993 
0.197667 -0.0396989 -1.18671 0.0343834 -0.0449738 -1.19501 0.385472 -0.0449086 -1.195 
0.391336 -0.013472 -1.18898 0.00499632 -0.00499524 -1.19501 0.116788 -0.0423956 -1.18675 
0.014594 -0.0385171 -1.1705 0.283258 -0.0133344 -1.18652 0.467973 -0.0450019 -1.195 
0.207896 -0.0153202 -0.245002 0.495001 -0.0299939 -1.18635 0.0925303 -0.0232596 -1.17724 
0.0489643 -0.0128725 -1.18169 0.447884 -0.0450022 -1.19501 0.458929 -0.0364181 -1.18949 
0.430307 -0.0370894 -1.19501 0.083401 -0.00499913 -1.19501 0.485705 -0.0186565 -1.195 
0.477046 -0.0336427 -1.195 0.011589 -0.0450007 -1.1775 0.0644914 -0.0363522 -1.18632 
0.160191 -0.00499909 -1.195 0.286165 -0.0309839 -1.195 0.0544792 -0.0450033 -1.195 
0.0832207 -0.0308027 -1.1864 0.423977 -0.0206597 -1.195 0.234612 -0.0138888 -1.195 
0.408869 -0.0449962 -1.195 0.373086 -0.00508674 -1.195 0.0246806 -0.0162768 -1.17779 
0.0898939 -0.0380745 -1.18799 0.406813 -0.00504875 -1.18129 0.36447 -0.0434481 -1.02943 
0.440636 -0.0354051 -1.195 0.0883074 -0.0310461 -1.19501 0.0707714 -0.00499868 -1.1799 
0.105422 -0.0236287 -1.17977 0.39933 -0.00500549 -1.18819 0.130223 -0.00499881 -1.195 
0.403157 -0.0367637 -1.19501 0.0443992 -0.0450026 -1.17771 0.0443739 -0.0450067 -1.19501 
0.0511452 -0.00499604 -1.17594 0.0166897 -0.0335999 -1.19501 0.0281673 -0.00499373 -1.19501 
0.0734053 -0.00500417 -1.195 0.489137 -0.0140753 -1.17935 0.445683 -0.0353767 -1.18635 
0.0446804 -0.028357 -1.19141 0.0234026 -0.0223502 -1.195 0.0716106 -0.034382 -1.17958 
0.0267209 -0.0065727 -1.17907 0.178012 -0.0415959 -1.18562 0.415574 -0.0449821 -1.18736 
0.0594526 -0.0126233 -1.18721 0.435626 -0.0371393 -1.18653 0.0774558 -0.0159553 -1.17864 
0.459954 -0.0280917 -1.195 0.0112429 -0.0376624 -1.18768 0.0658149 -0.0136749 -1.17957 
0.414449 -0.0124352 -1.19501 0.277039 -0.0234067 -1.18562 0.0745156 -0.0450003 -1.195 
0.0933955 -0.00499718 -1.195 0.421631 -0.0050107 -1.195 0.406864 -0.0211747 -1.18351 
0.36282 -0.0210981 -1.18888 0.479279 -0.0394841 -1.18089 0.103391 -0.00499712 -1.195 
0.390065 -0.0214388 -1.19491 0.305181 -0.0429652 -1.15538 0.0983859 -0.0136574 -1.19501 
0.123879 -0.0354626 -1.18548 0.0594802 -0.0450029 -1.18635 0.0780642 -0.0308676 -1.195 
0.0331717 -0.0136387 -1.19501 0.422707 -0.0305883 -1.195 0.237604 -0.0403526 -1.18751 
0.38886 -0.0354394 -1.19501 0.416639 -0.0379689 -1.18035 0.150233 -0.0223406 -1.19501 
0.429896 -0.0049964 -1.18927 0.101803 -0.0276797 -1.19501 0.0884224 -0.022278 -1.18631 
0.156419 -0.0393315 -1.17601 0.422011 -0.0450035 -1.19501 0.222326 -0.0449276 -1.195 
0.200146 -0.00500607 -1.195 0.00499994 -0.0298945 -1.17203 0.432138 -0.0272659 -1.195 
0.206845 -0.0236339 -1.195 0.371933 -0.0449862 -1.19423 0.44697 -0.0121694 -1.18144 
0.111813 -0.0103753 -1.195 0.0644972 -0.0450003 -1.1777 0.180163 -0.00499997 -1.195 
0.268479 -0.00529034 -1.18432 0.381778 -0.0272505 -1.195 0.423152 -0.0127841 -1.1889 
0.0539722 -0.0274877 -1.195 0.406231 -0.0195966 -1.195 0.0377467 -0.0290673 -1.18425 
0.0915445 -0.0450015 -1.195 0.445645 -0.0267616 -1.19501 0.049416 -0.0450192 -1.18638 
0.145231 -0.0309913 -1.195 0.277489 -0.0415684 -1.18585 0.0694028 -0.0360147 -1.19501 
0.155238 -0.00793359 -1.18683 0.470529 -0.0169036 -1.18817 0.0215733 -0.0408323 -1.17728 
0.0783947 -0.0136777 -1.19501 0.105162 -0.0122752 -1.18779 0.365792 -0.0291586 -1.18188 
0.402329 -0.03003 -1.18656 0.0968982 -0.0450024 -1.18629 0.22992 -0.00502918 -1.19496 
0.10681 -0.0190282 -1.19501 0.354971 -0.0247867 -1.19495 0.398304 -0.0212303 -1.18915 
0.346573 -0.042195 -1.18667 0.437643 -0.00499792 -1.18149 0.232328 -0.0448941 -1.195 
0.267109 -0.0360917 -1.195 0.430604 -0.0120799 -1.18221 0.076149 -0.0377058 -1.18785 
0.0933421 -0.0223517 -1.19501 0.140234 -0.0396461 -1.195 0.32795 -0.0279322 -1.19485 
0.429942 -0.0450065 -1.18892 0.0823074 -0.0379712 -1.17949 0.382585 -0.00520817 -1.19036 
0.0547955 -0.0286793 -1.17331 0.0428099 -0.0049957 -1.1818 0.0657682 -0.00499555 -1.18856 
0.332847 -0.0442655 -1.18435 0.158682 -0.0276759 -1.195 0.423205 -0.0203744 -1.18185 
0.0781807 -0.0221684 -1.18644 0.382936 -0.0143101 -1.19469 0.168413 -0.0167967 -1.18537 
0.188273 -0.0327571 -1.18321 0.185837 -0.0380363 -1.195 0.337004 -0.0234599 -1.195 
0.0481682 -0.0049969 -1.195 0.0488788 -0.0210719 -1.17597 0.165214 -0.0136627 -1.195 
0.395877 -0.0374925 -1.18819 0.133572 -0.0377594 -1.18779 0.120232 -0.00499616 -1.195 
0.126787 -0.0449952 -1.18635 0.0660058 -0.0204772 -1.18808 0.0667758 -0.0125704 -1.195 
0.395808 -0.0449402 -1.195 0.372337 -0.0306085 -1.19111 0.1068 -0.0305664 -1.18684 
0.357479 -0.00517613 -0.543057 0.155221 -0.0136773 -1.19501 0.292657 -0.0447856 -1.19457 
0.398633 -0.0128482 -1.18098 0.090976 -0.0329903 -1.1794 0.159528 -0.0200388 -1.18861 
0.111898 -0.00499288 -1.18658 0.0607574 -0.00503835 -1.17991 0.210142 -0.0049986 -1.195 
0.275282 -0.0264266 -1.195 0.150202 -0.00499827 -1.195 0.282434 -0.0449724 -1.19429 
0.371868 -0.0150364 -1.19073 0.0711221 -0.029067 -1.18804 0.272417 -0.0449739 -1.195 
0.0934111 -0.00500292 -1.17768 0.18605 -0.0184238 -1.19503 0.438663 -0.0123236 -1.18821 
0.364014 -0.00967718 -1.19385 0.099985 -0.0363452 -1.18235 0.196853 -0.0235876 -1.195 
0.208087 -0.041495 -1.18665 0.202667 -0.0424896 -1.195 0.224741 -0.0159391 -1.195 
0.354924 -0.00528745 -1.19499 0.21732 -0.0362407 -1.195 0.177685 -0.02389 -1.19499 
0.140233 -0.0223314 -1.195 0.0951078 -0.0295513 -1.18783 0.307857 -0.0440567 -1.19487 
0.0694894 -0.0450066 -1.18636 0.414118 -0.00499518 -1.18834 0.214736 -0.0158392 -1.195 
0.244712 -0.014458 -1.19419 0.135224 -0.00790321 -1.18684 0.116801 -0.0283116 -1.18637 
0.141234 -0.0450017 -1.18662 0.130234 -0.0223306 -1.195 0.242324 -0.0449929 -1.19501 
0.0641441 -0.0274454 -1.19501 0.0984661 -0.00499745 -1.18631 0.190152 -0.00499862 -1.195 
0.17516 -0.0058015 -1.18638 0.254634 -0.015457 -1.195 0.257083 -0.0359335 -1.195 
0.31226 -0.0179043 -1.18939 0.148675 -0.0450018 -1.195 0.126561 -0.0258749 -1.18641 
0.121788 -0.0450038 -1.195 0.406652 -0.012314 -1.18816 0.288912 -0.00509537 -1.195 
0.111795 -0.0196359 -1.18636 0.438934 -0.0277724 -1.18767 0.140227 -0.0165639 -1.18684 
0.207889 -0.0350065 -0.245002 0.300218 -0.0450096 -1.18803 0.298953 -0.00491682 -1.19469 
0.389185 -0.0284996 -1.18783 0.294802 -0.0302277 -1.18388 0.0799583 -0.0268785 -1.17781 
0.36059 -0.0330702 -1.19499 0.00499916 -0.0420568 -1.17058 0.0829327 -0.039602 -1.195 
0.38659 -0.0447695 -1.18507 0.0537836 -0.0368693 -1.16767 0.145229 -0.0136725 -1.195 
0.140212 -0.00499901 -1.195 0.170178 -0.00499364 -1.195 0.246055 -0.026254 -1.19443 
0.260155 -0.00501611 -1.195 0.410972 -0.0297347 -1.18036 0.106795 -0.036343 -1.195 
0.295354 -0.0261574 -1.19498 0.247109 -0.0361024 -1.195 0.34655 -0.0306489 -1.19198 
0.0828422 -0.0450103 -1.18658 0.279641 -0.00891325 -1.195 0.243798 -0.0363181 -1.18012 
0.121797 -0.0276923 -1.19501 0.262362 -0.0449855 -1.195 0.476009 -0.0306147 -1.18415 
0.120429 -0.0198267 -1.18133 0.236391 -0.0237186 -1.1946 0.163276 -0.0308018 -1.18669 
0.168673 -0.045002 -1.195 0.212322 -0.0450018 -1.19501 0.270362 -0.00505181 -1.19498 
0.343516 -0.0155556 -1.195 0.419448 -0.0288433 -1.18561 0.217783 -0.0439733 -1.18615 
0.158674 -0.0450019 -1.195 0.3368 -0.033196 -1.19305 0.302924 -0.0170467 -1.19425 
0.389954 -0.00524937 -1.18272 0.221322 -0.0306398 -1.18752 0.135235 -0.0136712 -1.195 
0.299878 -0.0360957 -1.19424 0.281663 -0.0187185 -1.195 0.239993 -0.00501265 -1.195 
0.204932 -0.0137858 -1.195 0.200451 -0.0186912 -1.18686 0.0967973 -0.036335 -1.195 
0.220013 -0.00658461 -1.195 0.150225 -0.0165878 -1.18684 0.126793 -0.0363486 -1.195 
0.438517 -0.0198012 -1.1813 0.252311 -0.0449292 -1.19465 0.195069 -0.00802628 -1.18684 
0.131794 -0.0450033 -1.195 0.382392 -0.024999 -1.17965 0.25594 -0.0256447 -1.19309 
0.149998 -0.0399924 -1.18645 0.382098 -0.0350917 -1.18463 0.265601 -0.0239474 -1.195 
0.400498 -0.0351792 -1.17815 0.152008 -0.0295489 -1.18779 0.178669 -0.0449996 -1.195 
0.0834094 -0.00501655 -1.17768 0.197203 -0.0335791 -1.19492 0.36697 -0.0394624 -1.18295 
0.160378 -0.0436852 -1.18524 0.216611 -0.0257382 -1.195 0.40928 -0.0371999 -1.18711 
0.173667 -0.0363415 -1.19501 0.35368 -0.0151278 -1.19259 0.238162 -0.026918 -1.17368 
0.190558 -0.0225423 -1.18715 0.453996 -0.0359437 -1.1808 0.163671 -0.0363429 -1.195 
0.187982 -0.0430023 -1.18659 0.227338 -0.0361735 -1.195 0.0884121 -0.00499529 -1.18634 
0.301246 -0.0101396 -1.18638 0.310253 -0.0337363 -1.19232 0.277351 -0.0362057 -1.195 
0.452704 -0.0284451 -1.18813 0.0708021 -0.0233941 -1.17981 0.210903 -0.0284653 -1.1872 
0.25019 -0.00562727 -1.19489 0.322949 -0.0170495 -1.19501 0.145224 -0.0078896 -1.18683 
0.100132 -0.0209118 -1.18781 0.125242 -0.0136669 -1.19501 0.476678 -0.0188073 -1.18052 
0.226643 -0.0260552 -1.19498 0.46156 -0.0288524 -1.18351 0.111789 -0.0450034 -1.195 
0.453799 -0.0199012 -1.18204 0.167702 -0.0233456 -1.195 0.213443 -0.00899183 -1.18645 
0.116808 -0.0190326 -1.195 0.26459 -0.0139904 -1.19498 0.317875 -0.0435232 -1.19501 
0.194917 -0.0137849 -1.19501 0.334394 -0.0443448 -1.19433 
VERTICES 500 1000
1 0 
1 1 
1 2 
1 3 
1 4 
1 5 
1 6 
1 7 
1 8 
1 9 
1 10 
1 11 
1 12 
1 13 
1 14 
1 15 
1 16 
1 17 
1 18 
1 19 
1 20 
1 21 
1 22 
1 23 
1 24 
1 25 
1 26 
1 27 
1 28 
1 29 
1 30 
1 31 
1 32 
1 33 
1 34 
1 35 
1 36 
1 37 
1 38 
1 39 
1 40 
1 41 
1 42 
1 43 
1 44 
1 45 
1 46 
1 47 
1 48 
1 49 
1 50 
1 51 
1 52 
1 53 
1 54 
1 55 
1 56 
1 57 
1 58 
1 59 
1 60 
1 61 
1 62 
1 63 
1 64 
1 65 
1 66 
1 67 
1 68 
1 69 
1 70 
1 71 
1 72 
1 73 
1 74 
1 75 
1 76 
1 77 
1 78 
1 79 
1 80 
1 81 
1 82 
1 83 
1 84 
1 85 
1 86 
1 87 
1 88 
1 89 
1 90 
1 91 
1 92 
1 93 
1 94 
1 95 
1 96 
1 97 
1 98 
1 99 
1 100 
1 101 
1 102 
1 103 
1 104 
1 105 
1 106 
1 107 
1 108 
1 109 
1 110 
1 111 
1 112 
1 113 
1 114 
1 115 
1 116 
1 117 
1 118 
1 119 
1 120 
1 121 
1 122 
1 123 
1 124 
1 125 
1 126 
1 127 
1 128 
1 129 
1 130 
1 131 
1 132 
1 133 
1 134 
1 135 
1 136 
1 137 
1 138 
1 139 
1 140 
1 141 
1 142 
1 143 
1 144 
1 145 
1 146 
1 147 
1 148 
1 149 
1 150 
1 151 
1 152 
1 153 
1 154 
1 155 
1 156 
1 157 
1 158 
1 159 
1 160 
1 161 
1 162 
1 163 
1 164 
1 165 
1 166 
1 167 
1 168 
1 169 
1 170 
1 171 
1 172 
1 173 
1 174 
1 175 
1 176 
1 177 
1 178 
1 179 
1 180 
1 181 
1 182 
1 183 
1 184 
1 185 
1 186 
1 187 
1 188 
1 189 
1 190 
1 191 
1 192 
1 193 
1 194 
1 195 
1 196 
1 197 
1 198 
1 199 
1 200 
1 201 
1 202 
1 203 
1 204 
1 205 
1 206 
1 207 
1 208 
1 209 
1 210 
1 211 
1 212 
1 213 
1 214 
1 215 
1 216 
1 217 
1 218 
1 219 
1 220 
1 221 
1 222 
1 223 
1 224 
1 225 
1 226 
1 227 
1 228 
1 229 
1 230 
1 231 
1 232 
1 233 
1 234 
1 235 
1 236 
1 237 
1 238 
1 239 
1 240 
1 241 
1 242 
1 243 
1 244 
1 245 
1 246 
1 247 
1 248 
1 249 
1 250 
1 251 
1 252 
1 253 
1 254 
1 255 
1 256 
1 257 
1 258 
1 259 
1 260 
1 261 
1 262 
1 263 
1 264 
1 265 
1 266 
1 267 
1 268 
1 269 
1 270 
1 271 
1 272 
1 273 
1 274 
1 275 
1 276 
1 277 
1 278 
1 279 
1 280 
1 281 
1 282 
1 283 
1 284 
1 285 
1 286 
1 287 
1 288 
1 289 
1 290 
1 291 
1 292 
1 293 
1 294 
1 295 
1 296 
1 297 
1 298 
1 299 
1 300 
1 301 
1 302 
1 303 
1 304 
1 305 
1 306 
1 307 
1 308 
1 309 
1 310 
1 311 
1 312 
1 313 
1 314 
1 315 
1 316 
1 317 
1 318 
1 319 
1 320 
1 321 
1 322 
1 323 
1 324 
1 325 
1 326 
1 327 
1 328 
1 329 
1 330 
1 331 
1 332 
1 333 
1 334 
1 335 
1 336 
1 337 
1 338 
1 339 
1 340 
1 341 
1 342 
1 343 
1 344 
1 345 
1 346 
1 347 
1 348 
1 349 
1 350 
1 351 
1 352 
1 353 
1 354 
1 355 
1 356 
1 357 
1 358 
1 359 
1 360 
1 361 
1 362 
1 363 
1 364 
1 365 
1 366 
1 367 
1 368 
1 369 
1 370 
1 371 
1 372 
1 373 
1 374 
1 375 
1 376 
1 377 
1 378 
1 379 
1 380 
1 381 
1 382 
1 383 
1 384 
1 385 
1 386 
1 387 
1 388 
1 389 
1 390 
1 391 
1 392 
1 393 
1 394 
1 395 
1 396 
1 397 
1 398 
1 399 
1 400 
1 401 
1 402 
1 403 
1 404 
1 405 
1 406 
1 407 
1 408 
1 409 
1 410 
1 411 
1 412 
1 413 
1 414 
1 415 
1 416 
1 417 
1 418 
1 419 
1 420 
1 421 
1 422 
1 423 
1 424 
1 425 
1 426 
1 427 
1 428 
1 429 
1 430 
1 431 
1 432 
1 433 
1 434 
1 435 
1 436 
1 437 
1 438 
1 439 
1 440 
1 441 
1 442 
1 443 
1 444 
1 445 
1 446 
1 447 
1 448 
1 449 
1 450 
1 451 
1 452 
1 453 
1 454 
1 455 
1 456 
1 457 
1 458 
1 459 
1 460 
1 461 
1 462 
1 463 
1 464 
1 465 
1 466 
1 467 
1 468 
1 469 
1 470 
1 471 
1 472 
1 473 
1 474 
1 475 
1 476 
1 477 
1 478 
1 479 
1 480 
1 481 
1 482 
1 483 
1 484 
1 485 
1 486 
1 487 
1 488 
1 489 
1 490 
1 491 
1 492 
1 493 
1 494 
1 495 
1 496 
1 497 
1 498 
1 499 

POINT_DATA 500
FIELD FieldData 7
id 1 500 int
1 2 3 4 5 6 7 8 9 
10 11 12 13 14 15 16 17 18 
19 20 21 22 23 24 25 26 27 
28 29 30 31 32 33 34 35 36 
37 38 39 40 41 42 43 44 45 
46 47 48 49 50 51 52 53 54 
55 56 57 58 59 60 61 62 63 
64 65 66 67 68 69 70 71 72 
73 74 75 76 77 78 79 80 81 
82 83 84 85 86 87 88 89 90 
91 92 93 94 95 96 97 98 99 
100 101 102 103 104 105 106 107 108 
109 110 111 112 113 114 115 116 117 
118 119 120 121 122 123 124 125 126 
127 128 129 130 131 132 133 134 135 
136 137 138 139 140 141 142 143 144 
145 146 147 148 149 150 151 152 153 
154 155 156 157 158 159 160 161 162 
163 164 165 166 167 168 169 170 171 
172 173 174 175 176 177 178 179 180 
181 182 183 184 185 186 187 188 189 
190 191 192 193 194 195 196 197 198 
199 200 201 202 203 204 205 206 207 
208 209 210 211 212 213 214 215 216 
217 218 219 220 221 222 223 224 225 
226 227 228 229 230 231 232 233 234 
235 236 237 238 239 240 241 242 243 
244 245 246 247 248 249 250 251 252 
253 254 255 256 257 258 259 260 261 
262 263 264 265 266 267 268 269 270 
271 272 273 274 275 276 277 278 279 
280 281 282 283 284 285 286 287 288 
289 290 291 292 293 294 295 296 297 
298 299 300 301 302 303 304 305 306 
307 308 309 310 311 312 313 314 315 
316 317 318 319 320 321 322 323 324 
325 326 327 328 329 330 331 332 333 
334 335 336 337 338 339 340 341 342 
343 344 345 346 347 348 349 350 351 
352 353 354 355 356 357 358 359 360 
361 362 363 364 365 366 367 368 369 
370 371 372 373 374 375 376 377 378 
379 380 381 382 383 384 385 386 387 
388 389 390 391 392 393 394 395 396 
397 398 399 400 401 402 403 404 405 
406 407 408 409 410 411 412 413 414 
415 416 417 418 419 420 421 422 423 
424 425 426 427 428 429 430 431 432 
433 434 435 436 437 438 439 440 441 
442 443 444 445 446 447 448 449 450 
451 452 453 454 455 456 457 458 459 
460 461 462 463 464 465 466 467 468 
469 470 471 472 473 474 475 476 477 
478 479 480 481 482 483 484 485 486 
487 488 489 490 491 492 493 494 495 
496 497 498 499 500 
type 1 500 int
1 1 1 1 1 1 1 1 1 
1 1 1 1 1 1 1 1 1 
1 1 1 1 1 1 1 1 1 
1 1 1 1 1 1 1 1 1 
1 1 1 1 1 1 1 1 1 
1 1 1 1 1 1 1 1 1 
1 1 1 1 1 1 1 1 1 
1 1 1 1 1 1 1 1 1 
1 1 1 1 1 1 1 1 1 
1 1 1 1 1 1 1 1 1 
1 1 1 1 1 1 1 1 1 
1 1 1 1 1 1 1 1 1 
1 1 1 1 1 1 1 1 1 
1 1 1 1 1 1 1 1 1 
1 1 1 1 1 1 1 1 1 
1 1 1 1 1 1 1 1 1 
1 1 1 1 1 1 1 1 1 
1 1 1 1 1 1 1 1 1 
1 1 1 1 1 1 1 1 1 
1 1 1 1 1 1 1 1 1 
1 1 1 1 1 1 1 1 1 
1 1 1 1 1 1 1 1 1 
1 1 1 1 1 1 1 1 1 
1 1 1 1 1 1 1 1 1 
1 1 1 1 1 1 1 1 1 
1 1 1 1 1 1 1 1 1 
1 1 1 1 1 1 1 1 1 
1 1 1 1 1 1 1 1 1 
1 1 1 1 1 1 1 1 1 
1 1 1 1 1 1 1 1 1 
1 1 1 1 1 1 1 1 1 
1 1 1 1 1 1 1 1 1 
1 1 1 1 1 1 1 1 1 
1 1 1 1 1 1 1 1 1 
1 1 1 1 1 1 1 1 1 
1 1 1 1 1 1 1 1 1 
1 1 1 1 1 1 1 1 1 
1 1 1 1 1 1 1 1 1 
1 1 1 1 1 1 1 1 1 
1 1 1 1 1 1 1 1 1 
1 1 1 1 1 1 1 1 1 
1 1 1 1 1 1 1 1 1 
1 1 1 1 1 1 1 1 1 
1 1 1 1 1 1 1 1 1 
1 1 1 1 1 1 1 1 1 
1 1 1 1 1 1 1 1 1 
1 1 1 1 1 1 1 1 1 
1 1 1 1 1 1 1 1 1 
1 1 1 1 1 1 1 1 1 
1 1 1 1 1 1 1 1 1 
1 1 1 1 1 1 1 1 1 
1 1 1 1 1 1 1 1 1 
1 1 1 1 1 1 1 1 1 
1 1 1 1 1 1 1 1 1 
1 1 1 1 1 1 1 1 1 
1 1 1 1 1 
i 3 500 int
0 0 0 0 0 0 0 0 0 
0 0 0 0 0 0 0 0 0 
0 0 0 0 0 0 0 0 0 
0 0 0 0 0 0 0 0 0 
0 0 0 0 0 0 0 0 0 
0 0 0 0 0 0 0 0 0 
0 0 0 0 0 0 0 0 0 
0 0 0 0 0 0 0 0 0 
0 0 0 0 0 0 0 0 0 
0 0 0 0 0 0 0 0 0 
0 0 0 0 0 0 0 0 0 
0 0 0 0 0 0 0 0 0 
0 0 0 0 0 0 0 0 0 
0 0 0 0 0 0 0 0 0 
0 0 0 0 0 0 0 0 0 
0 0 0 0 0 0 0 0 0 
0 0 0 0 0 0 0 0 0 
0 0 0 0 0 0 0 0 0 
0 0 0 0 0 0 0 0 0 
0 0 0 0 0 0 0 0 0 
0 0 0 0 0 0 0 0 0 
0 0 0 0 0 0 0 0 0 
0 0 0 0 0 0 0 0 0 
0 0 0 0 0 0 0 0 0 
0 0 0 0 0 0 0 0 0 
0 0 0 0 0 0 0 0 0 
0 0 0 0 0 0 0 0 0 
0 0 0 0 0 0 0 0 0 
0 0 0 0 0 0 0 0 0 
0 0 0 0 0 0 0 0 0 
0 0 0 0 0 0 0 0 0 
0 0 0 0 0 0 0 0 0 
0 0 0 0 0 0 0 0 0 
0 0 0 0 0 0 0 0 0 
0 0 0 0 0 0 0 0 0 
0 0 0 0 0 0 0 0 0 
0 0 0 0 0 0 0 0 0 
0 0 0 0 0 0 0 0 0 
0 0 0 0 0 0 0 0 0 
0 0 0 0 0 0 0 0 0 
0 0 0 0 0 0 0 0 0 
0 0 0 0 0 0 0 0 0 
0 0 0 0 0 0 0 0 0 
0 0 0 0 0 0 0 0 0 
0 0 0 0 0 0 0 0 0 
0 0 0 0 0 0 0 0 0 
0 0 0 0 0 0 0 0 0 
0 0 0 0 0 0 0 0 0 
0 0 0 0 0 0 0 0 0 
0 0 0 0 0 0 0 0 0 
0 0 0 0 0 0 0 0 0 
0 0 0 0 0 0 0 0 0 
0 0 0 0 0 0 0 0 0 
0 0 0 0 0 0 0 0 0 
0 0 0 0 0 0 0 0 0 
0 0 0 0 0 0 0 0 0 
0 0 0 0 0 0 0 0 0 
0 0 0 0 0 0 0 0 0 
0 0 0 0 0 0 0 0 0 
0 0 0 0 0 0 0 0 0 
0 0 0 0 0 0 0 0 0 
0 0 0 0 0 0 0 0 0 
0 0 0 0 0 0 0 0 0 
0 0 0 0 0 0 0 0 0 
0 0 0 0 0 0 0 0 0 
0 0 0 0 0 0 0 0 0 
0 0 0 0 0 0 0 0 0 
0 0 0 0 0 0 0 0 0 
0 0 0 0 0 0 0 0 0 
0 0 0 0 0 0 0 0 0 
0 0 0 0 0 0 0 0 0 
0 0 0 0 0 0 0 0 0 
0 0 0 0 0 0 0 0 0 
0 0 0 0 0 0 0 0 0 
0 0 0 0 0 0 0 0 0 
0 0 0 0 0 0 0 0 0 
0 0 0 0 0 0 0 0 0 
0 0 0 0 0 0 0 0 0 
0 0 0 0 0 0 0 0 0 
0 0 0 0 0 0 0 0 0 
0 0 0 0 0 0 0 0 0 
0 0 0 0 0 0 0 0 0 
0 0 0 0 0 0 0 0 0 
0 0 0 0 0 0 0 0 0 
0 0 0 0 0 0 0 0 0 
0 0 0 0 0 0 0 0 0 
0 0 0 0 0 0 0 0 0 
0 0 0 0 0 0 0 0 0 
0 0 0 0 0 0 0 0 0 
0 0 0 0 0 0 0 0 0 
0 0 0 0 0 0 0 0 0 
0 0 0 0 0 0 0 0 0 
0 0 0 0 0 0 0 0 0 
0 0 0 0 0 0 0 0 0 
0 0 0 0 0 0 0 0 0 
0 0 0 0 0 0 0 0 0 
0 0 0 0 0 0 0 0 0 
0 0 0 0 0 0 0 0 0 
0 0 0 0 0 0 0 0 0 
0 0 0 0 0 0 0 0 0 
0 0 0 0 0 0 0 0 0 
0 0 0 0 0 0 0 0 0 
0 0 0 0 0 0 0 0 0 
0 0 0 0 0 0 0 0 0 
0 0 0 0 0 0 0 0 0 
0 0 0 0 0 0 0 0 0 
0 0 0 0 0 0 0 0 0 
0 0 0 0 0 0 0 0 0 
0 0 0 0 0 0 0 0 0 
0 0 0 0 0 0 0 0 0 
0 0 0 0 0 0 0 0 0 
0 0 0 0 0 0 0 0 0 
0 0 0 0 0 0 0 0 0 
0 0 0 0 0 0 0 0 0 
0 0 0 0 0 0 0 0 0 
0 0 0 0 0 0 0 0 0 
0 0 0 0 0 0 0 0 0 
0 0 0 0 0 0 0 0 0 
0 0 0 0 0 0 0 0 0 
0 0 0 0 0 0 0 0 0 
0 0 0 0 0 0 0 0 0 
0 0 0 0 0 0 0 0 0 
0 0 0 0 0 0 0 0 0 
0 0 0 0 0 0 0 0 0 
0 0 0 0 0 0 0 0 0 
0 0 0 0 0 0 0 0 0 
0 0 0 0 0 0 0 0 0 
0 0 0 0 0 0 0 0 0 
0 0 0 0 0 0 0 0 0 
0 0 0 0 0 0 0 0 0 
0 0 0 0 0 0 0 0 0 
0 0 0 0 0 0 0 0 0 
0 0 0 0 0 0 0 0 0 
0 0 0 0 0 0 0 0 0 
0 0 0 0 0 0 0 0 0 
0 0 0 0 0 0 0 0 0 
0 0 0 0 0 0 0 0 0 
0 0 0 0 0 0 0 0 0 
0 0 0 0 0 0 0 0 0 
0 0 0 0 0 0 0 0 0 
0 0 0 0 0 0 0 0 0 
0 0 0 0 0 0 0 0 0 
0 0 0 0 0 0 0 0 0 
0 0 0 0 0 0 0 0 0 
0 0 0 0 0 0 0 0 0 
0 0 0 0 0 0 0 0 0 
0 0 0 0 0 0 0 0 0 
0 0 0 0 0 0 0 0 0 
0 0 0 0 0 0 0 0 0 
0 0 0 0 0 0 0 0 0 
0 0 0 0 0 0 0 0 0 
0 0 0 0 0 0 0 0 0 
0 0 0 0 0 0 0 0 0 
0 0 0 0 0 0 0 0 0 
0 0 0 0 0 0 0 0 0 
0 0 0 0 0 0 0 0 0 
0 0 0 0 0 0 0 0 0 
0 0 0 0 0 0 0 0 0 
0 0 0 0 0 0 0 0 0 
0 0 0 0 0 0 0 0 0 
0 0 0 0 0 0 0 0 0 
0 0 0 0 0 0 0 0 0 
0 0 0 0 0 0 0 0 0 
0 0 0 0 0 0 0 0 0 
0 0 0 0 0 0 0 0 0 
0 0 0 0 0 0 0 0 0 
0 0 0 0 0 0 
v 3 500 double
0.00663342 -0.00406316 0.0187391 -0.0146587 0.078184 -0.086192 -8.93462e-05 0.000576224 -0.000320134 
0.00308122 -0.00160588 0.000721383 -0.00256796 -0.00118546 -0.00188882 0.00140969 -0.000234881 0.000704878 
0.00638822 3.38084e-05 -0.00833562 0.0140423 -0.024871 -0.0471745 0.00931478 -0.00192956 -0.00207476 
-0.0130581 -0.000788441 -0.022953 -0.105713 0.042677 -0.0544414 0.00955957 -0.00806758 -2.92857e-05 
-0.00439387 -0.00128601 -0.00038711 -0.499419 -0.0277096 -0.00112741 0.00178197 -9.28226e-05 -0.00222993 
-0.00364868 0.00937845 0.00644263 -0.0396639 0.000780396 -0.0273613 0.000281807 -0.000523789 0.00163491 
0.00704869 0.00100488 -0.000127445 0.000884431 -0.00128469 -0.000404501 0.00287916 0.0032817 0.00311437 
-0.0265235 -0.0144299 0.0450917 0.00913163 0.00502428 1.14303e-05 -0.000305641 -0.000505534 -0.00164577 
-0.0436349 -0.0181658 0.00626048 -0.0568114 -0.0511692 -0.0596939 -0.0113062 0.0107091 0.00498983 
-0.00753479 -0.0126253 0.00212087 -0.192696 0.0189491 -0.177852 0.0119702 -0.000209579 4.28958e-05 
0.0099234 0.00556166 -0.00712485 -0.00648932 0.000361093 -0.0015469 -0.026151 -0.0234448 -0.0147958 
-0.0145963 0.00515898 0.00377973 -0.0362659 -0.0223471 0.000561875 0.00453517 -0.0134551 -0.00369614 
-0.0250109 -0.00640839 0.00216803 -0.0022992 0.00188471 -0.000421088 0.0107504 0.00125961 -0.0050629 
0.000724682 0.001301 0.00142897 0.0183497 -0.0234269 -4.19691e-11 0.0117644 0.00218644 0.00146438 
0.0134195 0.00200839 -0.00556837 -0.0040644 -0.000163224 0.00460939 0.0111766 0.00120921 0.000233357 
0.00406917 0.00199334 0.00200219 0.00337957 0.000583462 -0.000161945 -0.000198412 0.00124844 -0.000656122 
0.00450518 0.00317002 0.00362146 -0.00408039 -0.00484425 -0.00611417 -0.0627326 -0.00105765 -0.000395907 
-0.00244011 0.00393143 -8.45312e-05 -0.000798461 0.000122397 0.000261313 0.0114706 3.5991e-05 0.00247134 
-0.0050995 -0.00157652 0.00024843 -0.00508124 -0.00158002 0.000152755 0.010721 -0.00152799 0.00013338 
0.0114163 0.000116021 -0.000344637 1.65478e-05 0.000151306 0.00114232 0.00787185 0.00135992 -0.0162968 
0.00180722 0.00690592 0.00130405 -0.0178802 0.00419916 0.00531313 1.49806e-06 -0.000153521 0.000294375 
0.0048808 0.000459213 -0.000587014 0.00664856 -0.000302061 -0.000113659 -0.0213386 -0.00225704 -0.00274556 
-0.023013 0.0133868 0.00287323 -0.00963356 -0.00914025 -0.00968741 -0.0263217 -0.000600137 -0.000249874 
-0.000120473 -0.000114522 0.000305319 0.00154163 0.0049666 0.00113812 0.0104227 0.00151135 0.00441967 
0.00433525 0.00395441 0.00307211 -0.000567597 0.000131723 0.000239198 0.0104986 0.000136781 0.00307909 
0.00445683 -0.00168834 -0.000655647 0.00143307 -4.65207e-05 0.000630382 -0.0268982 -0.00159195 -0.00665324 
-0.0449636 -0.0160686 0.046433 0.011309 -0.000810736 0.0074684 0.00959204 -0.000544905 0.000842037 
0.00509196 0.00785593 -0.0019564 -0.0117704 0.00132982 -0.00051249 -0.000281502 -3.11289e-05 0.000604712 
-0.725183 0.0495746 -0.419426 0.00562619 0.00289498 0.000137022 -0.000790557 0.0100551 0.000244545 
-0.108624 -0.00585083 0.0583759 -0.00629673 0.000386803 -0.00200066 -1.56633e-06 -5.22202e-05 0.000379687 
0.00699814 0.00169475 7.08221e-06 0.139351 -0.0679521 0.111895 0.0119981 0.00379078 -0.00943469 
5.58291e-05 0.00107179 -0.000263763 -0.000721445 -0.000199152 4.41066e-05 -0.00152779 0.000801641 -5.12842e-05 
0.0133026 -0.00571313 -0.00283933 0.00810874 2.87851e-05 -0.000773849 -0.034124 -0.000966143 0.0124933 
0.00466351 0.00102199 -3.95192e-05 0.00659449 0.00130507 4.47517e-06 0.00177698 -0.000170582 -5.33147e-10 
0.000895214 0.00104207 0.00179399 -0.0218481 0.00950061 0.000193165 -0.160368 0.288153 -0.00762705 
-0.0974342 -0.0367468 -0.0243225 0.0127485 0.00909311 -0.00410815 0.00499237 0.00130169 0.00170636 
0.0120713 -1.44498e-05 -0.000853605 0.00260456 -0.000715261 0.000939722 0.0211983 0.0043773 0.0202918 
0.00724945 0.00157991 0.00328562 3.10376e-05 0.000198842 0.000247228 -0.0283778 -0.013673 -0.000118404 
0.0157255 -0.00824963 -0.00427024 0.00167309 0.00430229 0.000953353 0.00036247 -0.0273371 0.00607484 
-0.02598 0.000142795 -0.00072118 -0.00387531 0.00120575 0.00275747 0.00649403 0.00169478 -3.07404e-05 
0.0272831 -0.0100452 0.046981 0.00820261 -0.000789143 0.00725971 -0.0253495 -0.000683054 -6.98605e-05 
-0.0126283 -0.000583734 -0.0226704 0.000390284 -0.000287054 -0.000265093 0.00241958 6.05777e-05 0.0013343 
0.000464821 0.000976337 1.96278e-12 -0.0100642 0.0108501 0.00729883 0.00097138 0.0011105 0.00086978 
0.0102849 0.000676536 -0.0360145 0.00458378 0.000777179 0.00233697 -0.00270155 0.00142447 -0.000676479 
-0.00253147 -0.00666516 -0.00102757 0.00360707 -0.000265119 -0.0431213 0.00503612 0.00072133 0.000205557 
-0.00578916 -0.0262141 -0.0724813 0.00573753 -0.00867267 -0.00837604 -0.0638909 -0.121214 0.178258 
-0.0156155 -0.000221635 0.00645478 -0.0799929 0.00945513 0.00995151 -0.0113308 0.00778898 0.00265445 
-0.00899042 0.0140116 -0.0114643 0.000584756 -0.00259448 -0.000225285 0.158889 -0.0470101 0.207533 
-0.00355563 0.000365636 -1.9773e-05 -0.00960917 -0.00136336 -0.0056074 0.000177528 0.00213868 -0.00103991 
0.00621417 0.00396111 0.000886724 -0.0268976 0.000930795 -0.000371374 0.00194764 0.00499288 0.00775433 
0.00876238 0.000649128 -0.00280808 -0.00180909 -0.000818535 -0.000349776 -7.76776e-05 0.000197397 0.000113767 
-0.000431797 -0.00263943 0.000925303 -0.0943227 -0.0619066 -0.0320444 -0.0122607 -0.00262564 0.00131332 
0.00490366 0.00050055 -0.000975349 -8.85172e-05 0.000471942 0.000681767 -0.000250398 9.38754e-05 -6.08587e-05 
0.00637764 -0.00419654 -0.00285286 -0.000270975 0.000434399 -0.000196252 0.0103542 0.0203582 0.0246801 