# vtk DataFile Version 4.0
Generated by LIGGGHTS
ASCII
DATASET POLYDATA
POINTS 500 float
0.417254 -0.044994 -1.18636 0.417172 -0.0290242 -1.18766 0.00505504 -0.0250065 -1.19501 
0.0392526 -0.0204697 -1.17531 0.0168663 -0.0222704 -1.17257 0.0362701 -0.00499784 -1.17632 
0.0455358 -0.0365206 -1.18625 0.0323279 -0.0450011 -1.17659 0.090394 -0.0165426 -1.17818 
0.4692 -0.00499932 -1.18502 0.341376 -0.043919 -1.19499 0.463508 -0.013581 -1.19501 
0.021588 -0.0141387 -1.16917 0.320988 -0.00534569 -1.195 0.0438029 -0.0112707 -1.17435 
0.373904 -0.029382 -1.19501 0.0277278 -0.045004 -1.18546 0.495001 -0.0450009 -1.18514 
0.0407614 -0.0360546 -1.19501 0.481707 -0.0137111 -1.18728 0.00550605 -0.01991 -1.17186 
0.182798 -0.0297028 -1.18777 0.493367 -0.0450005 -1.195 0.0535409 -0.00499657 -1.18636 
0.168736 -0.0299894 -1.18761 0.367604 -0.0444246 -1.18776 0.485691 -0.0286458 -1.19501 
0.457123 -0.0450016 -1.195 0.315675 -0.0142385 -1.195 0.095394 -0.0136606 -1.18635 
0.0342267 -0.0205382 -1.1878 0.437262 -0.0450568 -1.18632 0.410389 -0.0122822 -1.18585 
0.459799 -0.02041 -1.18872 0.204909 -0.0332274 -1.195 0.0335995 -0.0373872 -1.18818 
0.391313 -0.0050201 -1.195 0.0148721 -0.0434837 -1.19501 0.0383438 -0.0375195 -1.17938 
0.495 -0.00999844 -1.18635 0.226565 -0.0428621 -0.245002 0.113812 -0.0276847 -1.195 
0.0694844 -0.00869664 -1.17208 0.41114 -0.0373785 -1.1885 0.118803 -0.0363447 -1.195 
0.46701 -0.0350011 -1.195 0.00541533 -0.0369235 -1.17915 0.00499837 -0.0200045 -1.18636 
0.484553 -0.0450016 -1.18737 0.428421 -0.021264 -1.1885 0.381286 -0.00500895 -1.19456 
0.477935 -0.0450013 -1.195 0.021768 -0.00499852 -1.18765 0.0608779 -0.0450011 -1.16943 
0.00993325 -0.0249956 -1.17924 0.0148753 -0.0336863 -1.17927 0.0853797 -0.0223924 -1.195 
0.0689017 -0.0186768 -1.17191 0.0142023 -0.00499922 -1.18112 0.0434273 -0.0295066 -1.17623 
0.0266466 -0.0351858 -1.19501 0.4502 -0.0376687 -1.195 0.0148578 -0.0146985 -1.17879 
0.0444126 -0.020947 -1.1856 0.077283 -0.0450016 -1.17831 0.426963 -0.0138223 -1.19501 
0.426462 -0.030033 -1.18412 0.444045 -0.0291247 -1.18194 0.432262 -0.00506321 -1.195 
0.00499781 -0.0130865 -1.17914 0.485649 -0.0386429 -1.195 0.492104 -0.0199973 -1.18685 
0.0435264 -0.0119453 -1.18986 0.0136949 -0.0199231 -1.19501 0.05579 -0.0450029 -1.17804 
0.0544769 -0.02031 -1.18738 0.0194811 -0.00499888 -1.17263 0.41722 -0.00499973 -1.18637 
0.39564 -0.0316693 -1.195 0.492352 -0.0370262 -1.17972 0.0502868 -0.0366789 -1.17745 
0.0277925 -0.0281825 -1.18797 0.443883 -0.0217935 -1.18874 0.00740827 -0.00499807 -1.17379 
0.155707 -0.0390238 -1.1783 0.0610182 -0.0364818 -1.17783 0.0214927 -0.0357936 -1.18646 
0.290045 -0.0343478 -1.18008 0.42734 -0.0450264 -1.18379 0.00499671 -0.00499724 -1.18502 
0.0507878 -0.0366966 -1.19501 0.4081 -0.0244604 -1.18186 0.060247 -0.00499894 -1.17109 
0.00499576 -0.0300035 -1.18635 0.00499531 -0.0450021 -1.19501 0.0119039 -0.0119046 -1.18847 
0.127247 -0.00504029 -1.18635 0.0853919 -0.0136543 -1.18635 0.190534 -0.0450032 -1.195 
0.0663384 -0.0450003 -1.19501 0.0749471 -0.0221273 -1.195 0.207849 -0.0449929 -0.245002 
0.0143853 -0.0269886 -1.18797 0.461313 -0.0111366 -1.1853 0.294586 -0.0140977 -1.19501 
0.376518 -0.0427105 -1.1617 0.108798 -0.042118 -1.18684 0.137213 -0.0309362 -1.195 
0.103799 -0.0450012 -1.195 0.0505758 -0.0284695 -1.18315 0.177377 -0.0136262 -1.195 
0.0610012 -0.0278247 -1.18642 0.495002 -0.00499791 -1.195 0.386475 -0.0139873 -1.195 
0.102462 -0.0150138 -1.17941 0.0411378 -0.020159 -1.19501 0.255664 -0.0101926 -1.18797 
0.440695 -0.0049933 -1.18964 0.462559 -0.0450067 -1.18599 0.0560068 -0.0364839 -1.18648 
0.274399 -0.0162467 -1.195 0.48908 -0.025981 -1.17943 0.449124 -0.00499703 -1.19501 
0.458879 -0.00499712 -1.19282 0.468637 -0.00499894 -1.195 0.0337522 -0.00499537 -1.18623 
0.205277 -0.0247799 -0.245002 0.46761 -0.0364214 -1.18513 0.495001 -0.0149972 -1.195 
0.0177319 -0.0450068 -1.18555 0.0375642 -0.0131725 -1.18193 0.495001 -0.0249971 -1.195 
0.0585032 -0.00568331 -1.19501 0.024752 -0.0450021 -1.195 0.051716 -0.0144699 -1.19501 
0.402623 -0.023322 -1.195 0.0225104 -0.031753 -1.17265 0.247576 -0.0201113 -1.18755 
0.451437 -0.00513209 -1.18528 0.189173 -0.0269854 -1.195 0.436101 -0.0220891 -1.19501 
0.46837 -0.0261037 -1.19065 0.4857 -0.00865579 -1.195 0.417422 -0.0208384 -1.18193 
0.472537 -0.0450008 -1.18659 0.403555 -0.0377766 -1.19501 0.0193601 -0.0183823 -1.18692 
0.0607929 -0.0189771 -1.19501 0.444218 -0.0140001 -1.195 0.132251 -0.0165168 -1.18684 
0.080405 -0.00499457 -1.18635 0.432369 -0.0450044 -1.19501 0.00499779 -0.045004 -1.18501 
0.475365 -0.0136495 -1.19501 0.230897 -0.0326844 -1.18674 0.451662 -0.0221246 -1.19501 
0.0348897 -0.0279627 -1.195 0.486361 -0.00499891 -1.18572 0.0149963 -0.00499893 -1.19501 
0.477019 -0.0236223 -1.195 0.00499835 -0.0350044 -1.19501 0.18744 -0.00957064 -1.18766 
0.0288957 -0.0342928 -1.17991 0.0277587 -0.0129664 -1.1869 0.0399835 -0.0448968 -1.18649 
0.453341 -0.0131232 -1.191 0.120517 -0.0123978 -1.18771 0.384731 -0.0449704 -1.195 
0.0385332 -0.0049929 -1.19501 0.0579135 -0.0131567 -1.17638 0.225616 -0.00565811 -1.18646 
0.0215838 -0.0125714 -1.195 0.449732 -0.0450028 -1.18823 0.485669 -0.0336409 -1.18635 
0.15575 -0.0362321 -1.195 0.0620143 -0.0220685 -1.17831 0.0903903 -0.0136611 -1.195 
0.482796 -0.0236469 -1.18684 0.0212285 -0.0260263 -1.18075 0.0612287 -0.0361871 -1.195 
0.235342 -0.0361344 -1.195 0.495002 -0.0351095 -1.195 0.477563 -0.00499817 -1.1905 
0.00499731 -0.0149944 -1.19501 0.0747022 -0.0131935 -1.18681 0.142521 -0.0279259 -1.18674 
0.0310074 -0.0245455 -1.17923 0.235804 -0.0078936 -1.18684 0.464331 -0.0204196 -1.17981 
0.195507 -0.0420523 -1.18685 0.0347491 -0.0448773 -1.195 0.360707 -0.04498 -1.195 
0.376408 -0.0137389 -1.19497 0.00499846 -0.00499773 -1.19501 0.118798 -0.0421184 -1.18684 
0.0157819 -0.0389124 -1.1708 0.285393 -0.00504525 -1.18643 0.467128 -0.0450002 -1.195 
0.208936 -0.0152544 -0.245002 0.495001 -0.0300503 -1.18638 0.0974825 -0.0240408 -1.17952 
0.0497488 -0.0132283 -1.18214 0.442387 -0.0446493 -1.195 0.458649 -0.0366255 -1.18976 
0.418567 -0.0356504 -1.19501 0.0854026 -0.00499785 -1.19501 0.485695 -0.0186507 -1.195 
0.476931 -0.0337466 -1.195 0.0116926 -0.0450015 -1.17759 0.0662853 -0.0363117 -1.18633 
0.162321 -0.00499986 -1.195 0.284988 -0.0350055 -1.195 0.0563414 -0.0450039 -1.19501 
0.0851761 -0.0308409 -1.18642 0.420551 -0.0231076 -1.195 0.235731 -0.0136822 -1.195 
0.396638 -0.0450009 -1.195 0.341533 -0.00787391 -1.15408 0.0245899 -0.0169365 -1.17829 
0.0918885 -0.0380829 -1.188 0.409279 -0.00544812 -1.17864 0.168291 -0.0338046 -0.98806 
0.43665 -0.0359688 -1.195 0.0902863 -0.031105 -1.195 0.0719416 -0.0049972 -1.18104 
0.107472 -0.0236613 -1.17974 0.390891 -0.00512491 -1.17774 0.132254 -0.00499437 -1.195 
0.382166 -0.0352373 -1.19501 0.0447592 -0.0450034 -1.17771 0.0452226 -0.0450023 -1.195 
0.0518424 -0.00503166 -1.17651 0.0167646 -0.0336669 -1.19501 0.028537 -0.00499938 -1.19501 
0.0754065 -0.00505523 -1.19501 0.488422 -0.0138487 -1.17987 0.443371 -0.0372633 -1.18771 
0.0463021 -0.0282289 -1.19218 0.0236037 -0.0224454 -1.195 0.0735208 -0.0344994 -1.17967 
0.0268394 -0.0066518 -1.1792 0.175563 -0.0395203 -1.18829 0.404188 -0.0450025 -1.18813 
0.0603335 -0.0122166 -1.18766 0.427277 -0.0376626 -1.19053 0.0795858 -0.0160798 -1.17858 
0.459617 -0.028178 -1.19501 0.0112645 -0.0376889 -1.18769 0.067048 -0.013691 -1.1804 
0.406658 -0.0138271 -1.19501 0.26318 -0.0195991 -1.18673 0.0765182 -0.0450007 -1.195 
0.0953994 -0.00499835 -1.195 0.412102 -0.00499778 -1.195 0.39739 -0.021466 -1.18664 
0.33572 -0.0169186 -1.195 0.478896 -0.0391873 -1.18152 0.105397 -0.00499807 -1.195 
0.364297 -0.0262862 -1.195 0.260574 -0.0391835 -1.18689 0.100386 -0.0136632 -1.19501 
0.126096 -0.0354232 -1.18542 0.0613407 -0.0450012 -1.18635 0.0800548 -0.0308575 -1.195 
0.0335456 -0.0136537 -1.19501 0.410413 -0.0298168 -1.195 0.225389 -0.0419523 -1.18683 
0.357041 -0.0343374 -1.195 0.404939 -0.038218 -1.1807 0.152267 -0.0223086 -1.195 
0.422263 -0.0049989 -1.195 0.103817 -0.0276797 -1.19501 0.0903832 -0.022312 -1.18635 
0.155588 -0.0450017 -1.18633 0.411464 -0.0449945 -1.195 0.220506 -0.0449998 -1.195 
0.202448 -0.00499938 -1.195 0.00499967 -0.0298933 -1.17205 0.428737 -0.0288498 -1.195 
0.208946 -0.0240705 -1.195 0.330882 -0.044417 -1.195 0.444537 -0.0127201 -1.1846 
0.113824 -0.0103718 -1.195 0.0664281 -0.044979 -1.17774 0.182429 -0.00499827 -1.195 
0.265908 -0.00791762 -1.1868 0.352604 -0.0248738 -1.195 0.416968 -0.0137324 -1.195 
0.0558791 -0.0276934 -1.195 0.39197 -0.0223441 -1.195 0.0387585 -0.0291933 -1.18569 
0.0937882 -0.0449934 -1.195 0.444335 -0.0295716 -1.195 0.050788 -0.0450073 -1.18669 
0.147254 -0.0309619 -1.19501 0.2399 -0.0401079 -1.1863 0.0712267 -0.036033 -1.19501 
0.157309 -0.00788388 -1.18684 0.469417 -0.0166528 -1.18755 0.0226536 -0.0417199 -1.1775 
0.0803935 -0.0137252 -1.19501 0.107168 -0.0122843 -1.18779 0.341619 -0.0256388 -1.19375 
0.387975 -0.0292919 -1.18903 0.0988983 -0.045003 -1.18629 0.230783 -0.00499758 -1.195 
0.108821 -0.0190247 -1.195 0.330315 -0.0270114 -1.195 0.38187 -0.0233345 -1.195 
0.282965 -0.029341 -1.187 0.428386 -0.00512164 -1.18579 0.230501 -0.0449875 -1.195 
0.265181 -0.0341747 -1.195 0.422692 -0.0133634 -1.18598 0.0780968 -0.0377271 -1.18795 
0.0953774 -0.0223255 -1.19501 0.142195 -0.0395886 -1.195 0.305004 -0.0358797 -1.19501 
0.422169 -0.0449757 -1.19502 0.0843173 -0.0379978 -1.17949 0.369707 -0.00534285 -1.1944 
0.0556171 -0.0287466 -1.17452 0.0439815 -0.00499774 -1.18268 0.0669415 -0.00499728 -1.18969 
0.30857 -0.0299103 -1.18784 0.160766 -0.0275786 -1.195 0.411867 -0.021034 -1.19046 
0.0801666 -0.022179 -1.18648 0.355641 -0.0149253 -1.195 0.172426 -0.0175683 -1.18726 
0.195733 -0.0302387 -1.18704 0.185377 -0.0362303 -1.195 0.315118 -0.0357341 -1.195 
0.0485298 -0.00499487 -1.19501 0.0491661 -0.0213188 -1.1763 0.16734 -0.0136684 -1.195 
0.366984 -0.0365969 -1.19497 0.135568 -0.0376227 -1.18775 0.122242 -0.00499021 -1.195 
0.128798 -0.0450025 -1.18634 0.0678998 -0.020404 -1.18813 0.0689712 -0.0132243 -1.195 
0.374657 -0.0449945 -1.195 0.346914 -0.0343531 -1.195 0.1088 -0.0305742 -1.18684 
0.39247 -0.0122899 -1.16376 0.157293 -0.0136629 -1.195 0.290446 -0.0448763 -1.195 
0.389148 -0.0200449 -1.17955 0.0930024 -0.0330462 -1.17943 0.162312 -0.0198004 -1.18891 
0.113898 -0.00499506 -1.18657 0.0619447 -0.00499751 -1.18094 0.212443 -0.0049962 -1.19501 
0.278481 -0.0253757 -1.195 0.1523 -0.0049991 -1.195 0.280463 -0.0445278 -1.19487 
0.345774 -0.0166499 -1.195 0.0730943 -0.0290717 -1.18805 0.27048 -0.0449076 -1.195 
0.0954023 -0.00788754 -1.17818 0.187011 -0.016331 -1.195 0.435522 -0.0135403 -1.18986 
0.341475 -0.00500628 -1.19492 0.101976 -0.0363428 -1.18236 0.199008 -0.0251563 -1.19501 
0.205418 -0.0401025 -1.18776 0.200522 -0.0449969 -1.195 0.226584 -0.0177075 -1.195 
0.331404 -0.00526818 -1.195 0.215172 -0.0361102 -1.195 0.179868 -0.0233175 -1.195 
0.14226 -0.0223026 -1.195 0.0971017 -0.0295586 -1.18785 0.300443 -0.0447685 -1.195 
0.0714189 -0.045002 -1.1864 0.401994 -0.00500427 -1.19447 0.21659 -0.0176289 -1.19501 
0.245725 -0.0137008 -1.195 0.137258 -0.00786247 -1.18684 0.118631 -0.0288367 -1.18632 
0.142212 -0.0450033 -1.1866 0.132225 -0.0222885 -1.195 0.240496 -0.0449994 -1.195 
0.0660991 -0.0274495 -1.19501 0.100402 -0.00499956 -1.18635 0.192451 -0.00499923 -1.195 
0.177379 -0.0078317 -1.18685 0.255059 -0.017278 -1.195 0.255407 -0.0362976 -1.19501 
0.310655 -0.00509592 -1.195 0.150584 -0.0450056 -1.195 0.132523 -0.0278755 -1.18672 
0.123798 -0.045003 -1.195 0.39667 -0.0134848 -1.19505 0.290455 -0.00499906 -1.19503 
0.113819 -0.0196994 -1.18637 0.435912 -0.0290466 -1.18783 0.142261 -0.0165258 -1.18684 
0.208038 -0.034979 -0.245002 0.281616 -0.0437421 -1.18401 0.300483 -0.00513038 -1.195 
0.371427 -0.0210814 -1.19001 0.276964 -0.012118 -1.18627 0.0818448 -0.0269289 -1.17784 
0.335676 -0.0355886 -1.195 0.00499874 -0.0422471 -1.17069 0.0849262 -0.0395903 -1.19501 
0.351058 -0.0442427 -1.19244 0.0551149 -0.0368637 -1.1687 0.14727 -0.0136483 -1.195 
0.14226 -0.00499595 -1.195 0.172321 -0.00499892 -1.195 0.248412 -0.0267282 -1.195 
0.260813 -0.00499895 -1.195 0.395731 -0.0341389 -1.18253 0.108804 -0.0363443 -1.195 
0.289594 -0.0250958 -1.195 0.245409 -0.036291 -1.195 0.320487 -0.0251409 -1.195 
0.084814 -0.0450059 -1.18661 0.280632 -0.00711125 -1.195 0.24085 -0.0303691 -1.18837 
0.12381 -0.0276891 -1.195 0.260486 -0.045024 -1.19499 0.475735 -0.030614 -1.18559 
0.123872 -0.0208127 -1.18348 0.239057 -0.0231108 -1.195 0.160856 -0.03606 -1.18641 
0.170563 -0.0450022 -1.195 0.210513 -0.0449946 -1.195 0.270833 -0.004997 -1.195 
0.325559 -0.0161126 -1.195 0.403209 -0.0305434 -1.18811 0.21538 -0.0418857 -1.18684 
0.160574 -0.0450014 -1.195 0.325117 -0.0357754 -1.195 0.304551 -0.0152096 -1.195 
0.376976 -0.012445 -1.1828 0.220902 -0.0326561 -1.18675 0.137255 -0.0136491 -1.195 
0.294993 -0.0359745 -1.195 0.28472 -0.0162611 -1.195 0.2408 -0.00499829 -1.195 
0.207395 -0.0136949 -1.195 0.203167 -0.0193977 -1.18796 0.0988054 -0.0363384 -1.195 
0.221612 -0.00898172 -1.195 0.152277 -0.0165314 -1.18684 0.128803 -0.0363465 -1.195 
0.436294 -0.0201902 -1.18243 0.25049 -0.0450005 -1.195 0.197452 -0.00825692 -1.18698 
0.133796 -0.0450051 -1.195 0.433603 -0.0378914 -1.18052 0.258434 -0.0266909 -1.195 
0.148927 -0.0376948 -1.18781 0.365631 -0.0145396 -1.19489 0.268137 -0.0240801 -1.195 
0.374625 -0.0371426 -1.18854 0.153883 -0.0290107 -1.18776 0.180549 -0.0450011 -1.19501 
0.0854 -0.00787986 -1.17818 0.195386 -0.0362673 -1.19501 0.378472 -0.0282324 -1.18611 
0.165587 -0.0449437 -1.18634 0.219717 -0.0271564 -1.19501 0.390703 -0.0388769 -1.18979 
0.175148 -0.0321219 -1.195 0.319739 -0.0107063 -1.18657 0.221783 -0.0214687 -1.18705 
0.193126 -0.020589 -1.18834 0.452132 -0.037423 -1.18217 0.165962 -0.0361261 -1.195 
0.185496 -0.042302 -1.18675 0.225306 -0.0361695 -1.195 0.0904024 -0.00499817 -1.18635 
0.297977 -0.0183446 -1.18663 0.30038 -0.0246252 -1.195 0.275024 -0.0359704 -1.195 
0.451753 -0.0295362 -1.1883 0.0727427 -0.0233251 -1.17988 0.211185 -0.0305262 -1.18771 
0.250815 -0.00500111 -1.195 0.310606 -0.0231814 -1.19499 0.147279 -0.00786626 -1.18685 
0.102164 -0.0209384 -1.1878 0.127239 -0.0136394 -1.195 0.474922 -0.0217814 -1.18097 
0.229901 -0.0271395 -1.195 0.461049 -0.0289994 -1.18376 0.113799 -0.045003 -1.195 
0.451697 -0.0194994 -1.18294 0.169845 -0.0233489 -1.195 0.214601 -0.0112824 -1.18754 
0.118819 -0.0190297 -1.195 0.264607 -0.0142377 -1.19503 0.310444 -0.0449125 -1.195 
0.197208 -0.014219 -1.195 0.320597 -0.0447601 -1.195 
VERTICES 500 1000
1 0 
1 1 
1 2 
1 3 
1 4 
1 5 
1 6 
1 7 
1 8 
1 9 
1 10 
1 11 
1 12 
1 13 
1 14 
1 15 
1 16 
1 17 
1 18 
1 19 
1 20 
1 21 
1 22 
1 23 
1 24 
1 25 
1 26 
1 27 
1 28 
1 29 
1 30 
1 31 
1 32 
1 33 
1 34 
1 35 
1 36 
1 37 
1 38 
1 39 
1 40 
1 41 
1 42 
1 43 
1 44 
1 45 
1 46 
1 47 
1 48 
1 49 
1 50 
1 51 
1 52 
1 53 
1 54 
1 55 
1 56 
1 57 
1 58 
1 59 
1 60 
1 61 
1 62 
1 63 
1 64 
1 65 
1 66 
1 67 
1 68 
1 69 
1 70 
1 71 
1 72 
1 73 
1 74 
1 75 
1 76 
1 77 
1 78 
1 79 
1 80 
1 81 
1 82 
1 83 
1 84 
1 85 
1 86 
1 87 
1 88 
1 89 
1 90 
1 91 
1 92 
1 93 
1 94 
1 95 
1 96 
1 97 
1 98 
1 99 
1 100 
1 101 
1 102 
1 103 
1 104 
1 105 
1 106 
1 107 
1 108 
1 109 
1 110 
1 111 
1 112 
1 113 
1 114 
1 115 
1 116 
1 117 
1 118 
1 119 
1 120 
1 121 
1 122 
1 123 
1 124 
1 125 
1 126 
1 127 
1 128 
1 129 
1 130 
1 131 
1 132 
1 133 
1 134 
1 135 
1 136 
1 137 
1 138 
1 139 
1 140 
1 141 
1 142 
1 143 
1 144 
1 145 
1 146 
1 147 
1 148 
1 149 
1 150 
1 151 
1 152 
1 153 
1 154 
1 155 
1 156 
1 157 
1 158 
1 159 
1 160 
1 161 
1 162 
1 163 
1 164 
1 165 
1 166 
1 167 
1 168 
1 169 
1 170 
1 171 
1 172 
1 173 
1 174 
1 175 
1 176 
1 177 
1 178 
1 179 
1 180 
1 181 
1 182 
1 183 
1 184 
1 185 
1 186 
1 187 
1 188 
1 189 
1 190 
1 191 
1 192 
1 193 
1 194 
1 195 
1 196 
1 197 
1 198 
1 199 
1 200 
1 201 
1 202 
1 203 
1 204 
1 205 
1 206 
1 207 
1 208 
1 209 
1 210 
1 211 
1 212 
1 213 
1 214 
1 215 
1 216 
1 217 
1 218 
1 219 
1 220 
1 221 
1 222 
1 223 
1 224 
1 225 
1 226 
1 227 
1 228 
1 229 
1 230 
1 231 
1 232 
1 233 
1 234 
1 235 
1 236 
1 237 
1 238 
1 239 
1 240 
1 241 
1 242 
1 243 
1 244 
1 245 
1 246 
1 247 
1 248 
1 249 
1 250 
1 251 
1 252 
1 253 
1 254 
1 255 
1 256 
1 257 
1 258 
1 259 
1 260 
1 261 
1 262 
1 263 
1 264 
1 265 
1 266 
1 267 
1 268 
1 269 
1 270 
1 271 
1 272 
1 273 
1 274 
1 275 
1 276 
1 277 
1 278 
1 279 
1 280 
1 281 
1 282 
1 283 
1 284 
1 285 
1 286 
1 287 
1 288 
1 289 
1 290 
1 291 
1 292 
1 293 
1 294 
1 295 
1 296 
1 297 
1 298 
1 299 
1 300 
1 301 
1 302 
1 303 
1 304 
1 305 
1 306 
1 307 
1 308 
1 309 
1 310 
1 311 
1 312 
1 313 
1 314 
1 315 
1 316 
1 317 
1 318 
1 319 
1 320 
1 321 
1 322 
1 323 
1 324 
1 325 
1 326 
1 327 
1 328 
1 329 
1 330 
1 331 
1 332 
1 333 
1 334 
1 335 
1 336 
1 337 
1 338 
1 339 
1 340 
1 341 
1 342 
1 343 
1 344 
1 345 
1 346 
1 347 
1 348 
1 349 
1 350 
1 351 
1 352 
1 353 
1 354 
1 355 
1 356 
1 357 
1 358 
1 359 
1 360 
1 361 
1 362 
1 363 
1 364 
1 365 
1 366 
1 367 
1 368 
1 369 
1 370 
1 371 
1 372 
1 373 
1 374 
1 375 
1 376 
1 377 
1 378 
1 379 
1 380 
1 381 
1 382 
1 383 
1 384 
1 385 
1 386 
1 387 
1 388 
1 389 
1 390 
1 391 
1 392 
1 393 
1 394 
1 395 
1 396 
1 397 
1 398 
1 399 
1 400 
1 401 
1 402 
1 403 
1 404 
1 405 
1 406 
1 407 
1 408 
1 409 
1 410 
1 411 
1 412 
1 413 
1 414 
1 415 
1 416 
1 417 
1 418 
1 419 
1 420 
1 421 
1 422 
1 423 
1 424 
1 425 
1 426 
1 427 
1 428 
1 429 
1 430 
1 431 
1 432 
1 433 
1 434 
1 435 
1 436 
1 437 
1 438 
1 439 
1 440 
1 441 
1 442 
1 443 
1 444 
1 445 
1 446 
1 447 
1 448 
1 449 
1 450 
1 451 
1 452 
1 453 
1 454 
1 455 
1 456 
1 457 
1 458 
1 459 
1 460 
1 461 
1 462 
1 463 
1 464 
1 465 
1 466 
1 467 
1 468 
1 469 
1 470 
1 471 
1 472 
1 473 
1 474 
1 475 
1 476 
1 477 
1 478 
1 479 
1 480 
1 481 
1 482 
1 483 
1 484 
1 485 
1 486 
1 487 
1 488 
1 489 
1 490 
1 491 
1 492 
1 493 
1 494 
1 495 
1 496 
1 497 
1 498 
1 499 

POINT_DATA 500
FIELD FieldData 7
id 1 500 int
1 2 3 4 5 6 7 8 9 
10 11 12 13 14 15 16 17 18 
19 20 21 22 23 24 25 26 27 
28 29 30 31 32 33 34 35 36 
37 38 39 40 41 42 43 44 45 
46 47 48 49 50 51 52 53 54 
55 56 57 58 59 60 61 62 63 
64 65 66 67 68 69 70 71 72 
73 74 75 76 77 78 79 80 81 
82 83 84 85 86 87 88 89 90 
91 92 93 94 95 96 97 98 99 
100 101 102 103 104 105 106 107 108 
109 110 111 112 113 114 115 116 117 
118 119 120 121 122 123 124 125 126 
127 128 129 130 131 132 133 134 135 
136 137 138 139 140 141 142 143 144 
145 146 147 148 149 150 151 152 153 
154 155 156 157 158 159 160 161 162 
163 164 165 166 167 168 169 170 171 
172 173 174 175 176 177 178 179 180 
181 182 183 184 185 186 187 188 189 
190 191 192 193 194 195 196 197 198 
199 200 201 202 203 204 205 206 207 
208 209 210 211 212 213 214 215 216 
217 218 219 220 221 222 223 224 225 
226 227 228 229 230 231 232 233 234 
235 236 237 238 239 240 241 242 243 
244 245 246 247 248 249 250 251 252 
253 254 255 256 257 258 259 260 261 
262 263 264 265 266 267 268 269 270 
271 272 273 274 275 276 277 278 279 
280 281 282 283 284 285 286 287 288 
289 290 291 292 293 294 295 296 297 
298 299 300 301 302 303 304 305 306 
307 308 309 310 311 312 313 314 315 
316 317 318 319 320 321 322 323 324 
325 326 327 328 329 330 331 332 333 
334 335 336 337 338 339 340 341 342 
343 344 345 346 347 348 349 350 351 
352 353 354 355 356 357 358 359 360 
361 362 363 364 365 366 367 368 369 
370 371 372 373 374 375 376 377 378 
379 380 381 382 383 384 385 386 387 
388 389 390 391 392 393 394 395 396 
397 398 399 400 401 402 403 404 405 
406 407 408 409 410 411 412 413 414 
415 416 417 418 419 420 421 422 423 
424 425 426 427 428 429 430 431 432 
433 434 435 436 437 438 439 440 441 
442 443 444 445 446 447 448 449 450 
451 452 453 454 455 456 457 458 459 
460 461 462 463 464 465 466 467 468 
469 470 471 472 473 474 475 476 477 
478 479 480 481 482 483 484 485 486 
487 488 489 490 491 492 493 494 495 
496 497 498 499 500 
type 1 500 int
1 1 1 1 1 1 1 1 1 
1 1 1 1 1 1 1 1 1 
1 1 1 1 1 1 1 1 1 
1 1 1 1 1 1 1 1 1 
1 1 1 1 1 1 1 1 1 
1 1 1 1 1 1 1 1 1 
1 1 1 1 1 1 1 1 1 
1 1 1 1 1 1 1 1 1 
1 1 1 1 1 1 1 1 1 
1 1 1 1 1 1 1 1 1 
1 1 1 1 1 1 1 1 1 
1 1 1 1 1 1 1 1 1 
1 1 1 1 1 1 1 1 1 
1 1 1 1 1 1 1 1 1 
1 1 1 1 1 1 1 1 1 
1 1 1 1 1 1 1 1 1 
1 1 1 1 1 1 1 1 1 
1 1 1 1 1 1 1 1 1 
1 1 1 1 1 1 1 1 1 
1 1 1 1 1 1 1 1 1 
1 1 1 1 1 1 1 1 1 
1 1 1 1 1 1 1 1 1 
1 1 1 1 1 1 1 1 1 
1 1 1 1 1 1 1 1 1 
1 1 1 1 1 1 1 1 1 
1 1 1 1 1 1 1 1 1 
1 1 1 1 1 1 1 1 1 
1 1 1 1 1 1 1 1 1 
1 1 1 1 1 1 1 1 1 
1 1 1 1 1 1 1 1 1 
1 1 1 1 1 1 1 1 1 
1 1 1 1 1 1 1 1 1 
1 1 1 1 1 1 1 1 1 
1 1 1 1 1 1 1 1 1 
1 1 1 1 1 1 1 1 1 
1 1 1 1 1 1 1 1 1 
1 1 1 1 1 1 1 1 1 
1 1 1 1 1 1 1 1 1 
1 1 1 1 1 1 1 1 1 
1 1 1 1 1 1 1 1 1 
1 1 1 1 1 1 1 1 1 
1 1 1 1 1 1 1 1 1 
1 1 1 1 1 1 1 1 1 
1 1 1 1 1 1 1 1 1 
1 1 1 1 1 1 1 1 1 
1 1 1 1 1 1 1 1 1 
1 1 1 1 1 1 1 1 1 
1 1 1 1 1 1 1 1 1 
1 1 1 1 1 1 1 1 1 
1 1 1 1 1 1 1 1 1 
1 1 1 1 1 1 1 1 1 
1 1 1 1 1 1 1 1 1 
1 1 1 1 1 1 1 1 1 
1 1 1 1 1 1 1 1 1 
1 1 1 1 1 1 1 1 1 
1 1 1 1 1 
i 3 500 int
0 0 0 0 0 0 0 0 0 
0 0 0 0 0 0 0 0 0 
0 0 0 0 0 0 0 0 0 
0 0 0 0 0 0 0 0 0 
0 0 0 0 0 0 0 0 0 
0 0 0 0 0 0 0 0 0 
0 0 0 0 0 0 0 0 0 
0 0 0 0 0 0 0 0 0 
0 0 0 0 0 0 0 0 0 
0 0 0 0 0 0 0 0 0 
0 0 0 0 0 0 0 0 0 
0 0 0 0 0 0 0 0 0 
0 0 0 0 0 0 0 0 0 
0 0 0 0 0 0 0 0 0 
0 0 0 0 0 0 0 0 0 
0 0 0 0 0 0 0 0 0 
0 0 0 0 0 0 0 0 0 
0 0 0 0 0 0 0 0 0 
0 0 0 0 0 0 0 0 0 
0 0 0 0 0 0 0 0 0 
0 0 0 0 0 0 0 0 0 
0 0 0 0 0 0 0 0 0 
0 0 0 0 0 0 0 0 0 
0 0 0 0 0 0 0 0 0 
0 0 0 0 0 0 0 0 0 
0 0 0 0 0 0 0 0 0 
0 0 0 0 0 0 0 0 0 
0 0 0 0 0 0 0 0 0 
0 0 0 0 0 0 0 0 0 
0 0 0 0 0 0 0 0 0 
0 0 0 0 0 0 0 0 0 
0 0 0 0 0 0 0 0 0 
0 0 0 0 0 0 0 0 0 
0 0 0 0 0 0 0 0 0 
0 0 0 0 0 0 0 0 0 
0 0 0 0 0 0 0 0 0 
0 0 0 0 0 0 0 0 0 
0 0 0 0 0 0 0 0 0 
0 0 0 0 0 0 0 0 0 
0 0 0 0 0 0 0 0 0 
0 0 0 0 0 0 0 0 0 
0 0 0 0 0 0 0 0 0 
0 0 0 0 0 0 0 0 0 
0 0 0 0 0 0 0 0 0 
0 0 0 0 0 0 0 0 0 
0 0 0 0 0 0 0 0 0 
0 0 0 0 0 0 0 0 0 
0 0 0 0 0 0 0 0 0 
0 0 0 0 0 0 0 0 0 
0 0 0 0 0 0 0 0 0 
0 0 0 0 0 0 0 0 0 
0 0 0 0 0 0 0 0 0 
0 0 0 0 0 0 0 0 0 
0 0 0 0 0 0 0 0 0 
0 0 0 0 0 0 0 0 0 
0 0 0 0 0 0 0 0 0 
0 0 0 0 0 0 0 0 0 
0 0 0 0 0 0 0 0 0 
0 0 0 0 0 0 0 0 0 
0 0 0 0 0 0 0 0 0 
0 0 0 0 0 0 0 0 0 
0 0 0 0 0 0 0 0 0 
0 0 0 0 0 0 0 0 0 
0 0 0 0 0 0 0 0 0 
0 0 0 0 0 0 0 0 0 
0 0 0 0 0 0 0 0 0 
0 0 0 0 0 0 0 0 0 
0 0 0 0 0 0 0 0 0 
0 0 0 0 0 0 0 0 0 
0 0 0 0 0 0 0 0 0 
0 0 0 0 0 0 0 0 0 
0 0 0 0 0 0 0 0 0 
0 0 0 0 0 0 0 0 0 
0 0 0 0 0 0 0 0 0 
0 0 0 0 0 0 0 0 0 
0 0 0 0 0 0 0 0 0 
0 0 0 0 0 0 0 0 0 
0 0 0 0 0 0 0 0 0 
0 0 0 0 0 0 0 0 0 
0 0 0 0 0 0 0 0 0 
0 0 0 0 0 0 0 0 0 
0 0 0 0 0 0 0 0 0 
0 0 0 0 0 0 0 0 0 
0 0 0 0 0 0 0 0 0 
0 0 0 0 0 0 0 0 0 
0 0 0 0 0 0 0 0 0 
0 0 0 0 0 0 0 0 0 
0 0 0 0 0 0 0 0 0 
0 0 0 0 0 0 0 0 0 
0 0 0 0 0 0 0 0 0 
0 0 0 0 0 0 0 0 0 
0 0 0 0 0 0 0 0 0 
0 0 0 0 0 0 0 0 0 
0 0 0 0 0 0 0 0 0 
0 0 0 0 0 0 0 0 0 
0 0 0 0 0 0 0 0 0 
0 0 0 0 0 0 0 0 0 
0 0 0 0 0 0 0 0 0 
0 0 0 0 0 0 0 0 0 
0 0 0 0 0 0 0 0 0 
0 0 0 0 0 0 0 0 0 
0 0 0 0 0 0 0 0 0 
0 0 0 0 0 0 0 0 0 
0 0 0 0 0 0 0 0 0 
0 0 0 0 0 0 0 0 0 
0 0 0 0 0 0 0 0 0 
0 0 0 0 0 0 0 0 0 
0 0 0 0 0 0 0 0 0 
0 0 0 0 0 0 0 0 0 
0 0 0 0 0 0 0 0 0 
0 0 0 0 0 0 0 0 0 
0 0 0 0 0 0 0 0 0 
0 0 0 0 0 0 0 0 0 
0 0 0 0 0 0 0 0 0 
0 0 0 0 0 0 0 0 0 
0 0 0 0 0 0 0 0 0 
0 0 0 0 0 0 0 0 0 
0 0 0 0 0 0 0 0 0 
0 0 0 0 0 0 0 0 0 
0 0 0 0 0 0 0 0 0 
0 0 0 0 0 0 0 0 0 
0 0 0 0 0 0 0 0 0 
0 0 0 0 0 0 0 0 0 
0 0 0 0 0 0 0 0 0 
0 0 0 0 0 0 0 0 0 
0 0 0 0 0 0 0 0 0 
0 0 0 0 0 0 0 0 0 
0 0 0 0 0 0 0 0 0 
0 0 0 0 0 0 0 0 0 
0 0 0 0 0 0 0 0 0 
0 0 0 0 0 0 0 0 0 
0 0 0 0 0 0 0 0 0 
0 0 0 0 0 0 0 0 0 
0 0 0 0 0 0 0 0 0 
0 0 0 0 0 0 0 0 0 
0 0 0 0 0 0 0 0 0 
0 0 0 0 0 0 0 0 0 
0 0 0 0 0 0 0 0 0 
0 0 0 0 0 0 0 0 0 
0 0 0 0 0 0 0 0 0 
0 0 0 0 0 0 0 0 0 
0 0 0 0 0 0 0 0 0 
0 0 0 0 0 0 0 0 0 
0 0 0 0 0 0 0 0 0 
0 0 0 0 0 0 0 0 0 
0 0 0 0 0 0 0 0 0 
0 0 0 0 0 0 0 0 0 
0 0 0 0 0 0 0 0 0 
0 0 0 0 0 0 0 0 0 
0 0 0 0 0 0 0 0 0 
0 0 0 0 0 0 0 0 0 
0 0 0 0 0 0 0 0 0 
0 0 0 0 0 0 0 0 0 
0 0 0 0 0 0 0 0 0 
0 0 0 0 0 0 0 0 0 
0 0 0 0 0 0 0 0 0 
0 0 0 0 0 0 0 0 0 
0 0 0 0 0 0 0 0 0 
0 0 0 0 0 0 0 0 0 
0 0 0 0 0 0 0 0 0 
0 0 0 0 0 0 0 0 0 
0 0 0 0 0 0 0 0 0 
0 0 0 0 0 0 0 0 0 
0 0 0 0 0 0 0 0 0 
0 0 0 0 0 0 0 0 0 
0 0 0 0 0 0 0 0 0 
0 0 0 0 0 0 
v 3 500 double
-0.0360613 0.00824083 -0.0226812 -0.0613392 -0.0175539 0.00676845 7.10865e-05 -1.32133e-05 6.84135e-05 
0.00228216 -0.000972614 -0.00398909 0.000521679 0.000792525 -0.000291208 0.00103497 3.45799e-05 -0.00268214 
0.00115296 -0.00118473 -0.000190583 -0.00022297 -6.80401e-05 0.000272036 0.00120996 0.000392326 -0.000386069 
0.0002814 0.000709157 0.000736702 -0.0292511 -0.0264536 -0.0244403 -0.00655549 -0.00303269 3.12715e-06 
0.00110388 0.000591396 -0.000665438 0.0355031 0.0279599 9.83127e-05 0.00160776 0.000887643 -0.00220785 
-0.0565769 0.0290295 -0.0120713 -0.000430649 3.94526e-05 0.000332249 7.65635e-05 -5.02672e-05 -9.7092e-05 
0.000951492 -0.000846454 -1.44012e-05 -0.0042621 0.00046565 -0.00338541 -0.000137275 -0.000116408 0.000110504 
0.0141238 -0.00941353 0.0300376 0.000108399 -3.46286e-05 -3.2812e-05 0.0020824 1.37441e-05 0.000263951 
0.00736391 0.00616097 0.00482122 -0.0221495 -0.0101699 0.0210751 1.31797e-05 -0.000563547 -0.000157795 
-0.0106747 1.72544e-05 -0.000301269 -0.0249321 0.0047093 -0.0016207 0.00209074 1.51481e-05 -4.62975e-05 
0.000266495 -0.000602759 -0.000141606 0.102212 -0.0744554 -0.146212 -0.0217555 -0.028572 0.00110771 
-0.0175209 0.00213761 -0.000702165 0.0207558 -0.00148021 0.00725888 0.00028312 -0.000915767 -0.000849705 
-0.0432551 -0.0085403 -0.000109591 -0.000106705 7.26668e-06 3.60357e-05 0.000485219 -0.00122465 -0.00095099 
-0.000404547 0.00422364 0.000969122 0.0183497 -0.0234269 -4.1908e-11 0.00358132 -0.000529546 0.000109148 
-0.00179974 0.00272905 0.00186464 -0.0844778 -0.0164207 0.0269826 0.00499531 -0.000106264 -5.46235e-05 
-0.0066945 0.000600831 0.000259742 -6.11419e-05 -8.1074e-05 4.04625e-05 4.80384e-05 -8.84746e-06 0.000123013 
-0.00378168 -1.85653e-05 -0.000500168 -0.037628 0.00649482 0.00368179 -0.0493859 0.0109835 0.0308141 
-0.000139079 3.16464e-05 0.000135659 0.00127762 9.67022e-05 -0.00133672 0.00289533 -0.00024021 -0.000770415 
0.000171499 -6.54844e-06 0.000219934 -8.26734e-05 -0.000149417 0.000126605 0.00245833 -0.000368941 0.000115034 
0.00245489 0.00229367 -0.00136229 0.000843011 1.67755e-05 -0.00205278 0.00195993 -0.00116459 -0.00330857 
-8.74641e-05 -0.000155917 -1.82502e-05 -0.00971436 0.0125995 0.000336017 -4.46215e-05 0.000357201 -0.000520316 
0.00245303 -0.00138764 -0.00110267 0.00223441 -0.000365642 0.000878072 -0.0143433 0.0162436 0.00654801 
-0.0664029 -0.00247561 -0.0251964 -0.0304158 -0.00215375 -0.0197669 -0.0327745 0.000180546 0.000372613 
-0.000101694 7.06469e-06 0.000214936 5.26354e-05 -0.000182825 1.29349e-05 -0.000517331 -7.18585e-05 0.000148658 
0.00300471 -0.00178266 -0.00231431 0.000125595 4.43476e-05 3.59813e-05 0.00333138 -6.35902e-05 -0.00102887 
0.00272116 -0.000848824 -0.000513527 -4.58171e-05 -3.3204e-06 -0.00156438 -0.0357557 -0.0035214 0.000924317 
-0.0839577 0.00278849 0.00225475 -9.45767e-05 -0.000177814 -0.000109954 0.0027783 -0.000665465 -0.00104722 
0.000100366 -0.000334693 4.04624e-06 -0.0247017 0.00224758 -0.0150858 0.00233054 1.28537e-05 -0.000872666 
-0.118171 0.072215 -0.053953 0.00414161 -0.00051031 -0.000447096 -0.00011394 -0.000111668 3.4316e-05 
-0.27938 0.0594663 -0.0112235 -0.100789 0.0334866 -0.0555012 -2.6457e-05 -2.20634e-05 6.5414e-05 
0.00320356 -0.0011002 5.67532e-05 -0.0721655 0.0375688 -0.0579888 -0.00315782 -8.3772e-05 -0.000176896 
1.75321e-06 -6.76825e-06 0.000116225 -1.19971e-05 9.41151e-06 -1.40086e-05 0.000332165 -0.000269505 -0.000231571 
0.00513432 -0.00134 -0.000763216 0.00170802 -0.000178731 0.000212556 0.00702821 0.0020355 2.12412e-05 
0.00444551 1.55296e-05 -2.33011e-05 0.00561794 0.00170762 -0.000168846 0.00178269 4.01578e-05 2.87896e-13 
-5.66081e-05 -1.65604e-05 0.000149273 -0.00538817 0.0123864 -0.0354358 0.00957108 -0.0186576 -0.0136267 
0.296206 -0.794586 0.384115 0.00541701 -0.00132825 -0.000188791 0.00580013 3.8074e-05 -0.0010787 
0.00546766 0.000150802 -0.000521584 0.00298619 -0.00164161 -0.00219607 0.0129553 0.00152707 0.00127998 
0.00346067 -0.000288921 -0.000939775 0.000286152 0.00074873 -0.000518404 -0.067647 0.00991814 0.00275243 
0.00090336 0.000131688 0.000697552 0.000207131 -0.00207384 -0.000246195 0.0460095 0.00764586 -0.0240467 
-0.028062 0.00200997 -0.00244121 -0.00643417 0.000498315 0.000956357 0.00427753 -0.000867879 -0.000509904 
-0.00387522 0.00950152 -0.000369626 -0.000313476 -0.000640083 -2.36012e-05 -0.0270151 0.000550629 -0.000255081 
-0.0183664 0.00026287 -0.0379054 -0.0100292 -0.000477116 0.000278069 -0.00020642 -0.000101488 -0.00165655 
0.000464821 0.000976334 1.90979e-12 0.00148184 -0.00357998 -0.00068914 0.000212748 0.000965993 0.00106952 
-0.000229724 -2.58007e-05 1.65335e-05 0.00213028 0.000362845 -0.00259858 -8.71722e-05 0.000514677 0.0001243 
0.00266008 0.00145744 0.000366167 -4.14912e-05 -2.20395e-05 0.000109857 0.00522267 0.000826147 -7.15246e-05 
-0.0552262 0.0455323 0.00518041 0.000770135 -0.000984955 -0.000656579 -0.028447 -0.00805781 -0.00175635 
0.0208739 0.00153194 -0.0110142 0.00324 0.00273488 0.000294618 -0.0386943 -0.0015835 0.000909093 
-0.00487005 0.00417808 -0.0065721 0.00154188 4.63371e-05 0.00324397 -0.0414855 -0.0218052 -0.0157871 
-0.00590882 0.00018605 -0.00273914 -0.0672705 0.0162632 0.00146849 0.000282199 -0.000212055 -6.54915e-05 
0.00341233 -0.00101487 0.000248967 -0.0239682 0.0164331 0.000657696 0.00449951 -0.000991805 0.00132649 
0.00204069 0.000132256 0.000405119 -0.0431032 0.00264517 -0.024331 -4.63164e-05 2.98217e-05 2.0227e-06 
-0.00928455 -0.00395332 0.000338763 -0.003396 -0.0201299 -0.00462533 -0.0134324 -0.00744618 -0.000324586 
-8.28003e-05 -0.001738 -3.82906e-05 -0.00393031 -0.00108894 0.00839624 -2.65121e-05 2.39998e-05 -9.56273e-06 
-0.000821388 0.00189525 0.000167957 1.54307e-05 -2.37617e-05 8.94374e-06 0.0143723 -0.0134168 -0.0028463 