# vtk DataFile Version 4.0
Generated by LIGGGHTS
ASCII
DATASET POLYDATA
POINTS 500 float
0.448508 -0.0449317 -1.17746 0.452003 -0.0384128 -1.16982 0.00490538 -0.0251419 -1.19501 
0.0306082 -0.0237509 -1.17421 0.00745882 -0.0244164 -1.16316 0.034593 -0.00508615 -1.17423 
0.0329577 -0.0366924 -1.18164 0.00963273 -0.0339384 -1.12775 0.0689375 -0.017841 -1.1756 
0.48163 -0.0128292 -1.1729 0.401988 -0.0365346 -1.16952 0.471266 -0.0134949 -1.19499 
0.0229296 -0.00492919 -1.15695 0.407314 -0.00501105 -1.1867 0.0286506 -0.00730305 -1.16612 
0.426747 -0.0300565 -1.18837 0.0220165 -0.0440778 -1.17243 0.494983 -0.0439972 -1.17818 
0.0317659 -0.0355134 -1.195 0.485195 -0.0141621 -1.18233 0.00521972 -0.0180916 -1.17055 
0.275024 -0.0264369 -1.19502 0.4949 -0.044713 -1.19502 0.0492365 -0.00533691 -1.18565 
0.317786 -0.0144711 -1.15179 0.423902 -0.0415783 -1.17928 0.489636 -0.0281112 -1.1868 
0.471157 -0.0449489 -1.19502 0.415818 -0.0157801 -1.1685 0.0860482 -0.0161291 -1.19062 
0.0306846 -0.0193424 -1.18666 0.46002 -0.0449044 -1.17637 0.44416 -0.010787 -1.17614 
0.46936 -0.0264962 -1.18208 0.352025 -0.0153034 -1.19486 0.0244298 -0.0307954 -1.18604 
0.435518 -0.00534658 -1.19501 0.0149477 -0.0449862 -1.195 0.0309782 -0.0379601 -1.16926 
0.494989 -0.00504666 -1.18501 0.215221 -0.0267205 -0.245002 0.167141 -0.0259902 -1.19484 
0.0632399 -0.00674868 -1.15605 0.441629 -0.0376393 -1.17794 0.144391 -0.044767 -1.19124 
0.475691 -0.0359131 -1.19495 0.00520017 -0.0374019 -1.17828 0.00501174 -0.0201035 -1.18637 
0.488218 -0.0449589 -1.18561 0.456311 -0.0255811 -1.18163 0.422888 -0.00502762 -1.195 
0.484574 -0.0444702 -1.19497 0.0175398 -0.00500139 -1.1847 0.0438725 -0.0440178 -1.163 
0.00532129 -0.0251095 -1.17769 0.0130439 -0.037847 -1.17179 0.0815343 -0.0260902 -1.19489 
0.060054 -0.0115676 -1.16689 0.0125754 -0.0074458 -1.17587 0.0306482 -0.028587 -1.16546 
0.0218018 -0.0356018 -1.19498 0.464509 -0.0362313 -1.19502 0.0149701 -0.015718 -1.16604 
0.0389032 -0.0226911 -1.17994 0.0618528 -0.0413439 -1.12866 0.448464 -0.0145637 -1.19448 
0.463177 -0.0181622 -1.16487 0.483037 -0.00687785 -1.14887 0.451532 -0.0050065 -1.19501 
0.00501415 -0.0131012 -1.17921 0.491607 -0.0346743 -1.195 0.494654 -0.0159252 -1.18478 
0.0385066 -0.013314 -1.18872 0.0134289 -0.0201471 -1.19501 0.0421288 -0.0415898 -1.17726 
0.0483627 -0.024535 -1.17717 0.0187094 -0.00565432 -1.16807 0.459787 -0.00776919 -1.15486 
0.438788 -0.0326124 -1.1861 0.494941 -0.0414523 -1.16807 0.0398362 -0.0344198 -1.16526 
0.0219817 -0.0235404 -1.17925 0.462066 -0.0151362 -1.17769 0.00797559 -0.0063811 -1.16616 
0.332461 -0.0404229 -0.421618 0.0524343 -0.0322692 -1.16554 0.0169664 -0.0346241 -1.18048 
0.398691 -0.0380297 -1.19501 0.461697 -0.0447116 -1.16542 0.00499818 -0.00498803 -1.18503 
0.0405595 -0.030797 -1.195 0.427083 -0.00865773 -1.16908 0.0174441 -0.00625524 -1.13219 
0.00503855 -0.030892 -1.18594 0.00497702 -0.045039 -1.19501 0.0122394 -0.0125159 -1.18863 
0.188464 -0.0154213 -1.18293 0.0777021 -0.0139852 -1.18225 0.290108 -0.0202048 -1.15507 
0.0526131 -0.0450222 -1.19493 0.0711061 -0.0253383 -1.19485 0.20652 -0.0449184 -0.245002 
0.0132463 -0.0254241 -1.18441 0.471693 -0.0138187 -1.17465 0.3937 -0.0234207 -1.195 
0.430912 -0.0203445 -1.16788 0.104226 -0.0274615 -1.17487 0.215994 -0.0438698 -1.18476 
0.108115 -0.0449587 -1.195 0.0402558 -0.0317885 -1.17579 0.257851 -0.0220225 -1.16771 
0.0516983 -0.0342489 -1.18416 0.494848 -0.00505296 -1.195 0.42903 -0.0129541 -1.195 
0.0674809 -0.0249304 -1.16829 0.037422 -0.0212903 -1.19496 0.360872 -0.044909 -0.8129 
0.458299 -0.00522922 -1.18756 0.469305 -0.0449573 -1.18155 0.0419942 -0.0351814 -1.18609 
0.392033 -0.0122851 -1.1783 0.493184 -0.0260047 -1.16697 0.465285 -0.00508059 -1.195 
0.471021 -0.00566615 -1.18672 0.476571 -0.00501407 -1.19501 0.0301638 -0.00673819 -1.1863 
0.205016 -0.0251451 -0.245002 0.474768 -0.0357285 -1.17786 0.494689 -0.0150691 -1.19487 
0.012939 -0.0448344 -1.17896 0.0344734 -0.0137544 -1.17924 0.494802 -0.0250827 -1.19501 
0.0555043 -0.00498973 -1.19501 0.0197632 -0.0441769 -1.18623 0.046113 -0.0149881 -1.19501 
0.437922 -0.0227844 -1.18766 0.0200254 -0.0294806 -1.1576 0.36149 -0.014844 -1.1816 
0.476617 -0.00502047 -1.17842 0.280035 -0.0445146 -1.195 0.454884 -0.0212928 -1.19078 
0.478724 -0.0271739 -1.18635 0.485565 -0.0104132 -1.19492 0.441763 -0.0158481 -1.16768 
0.479507 -0.044495 -1.17752 0.440555 -0.0367005 -1.19502 0.0144708 -0.0165307 -1.17967 
0.0518697 -0.0231677 -1.19499 0.458268 -0.0124031 -1.19494 0.208538 -0.0443173 -1.19456 
0.0692747 -0.00543975 -1.18447 0.455376 -0.0403841 -1.19501 0.00499378 -0.0448467 -1.18503 
0.476407 -0.016164 -1.18685 0.381058 -0.0300515 -1.17315 0.464085 -0.0205418 -1.19501 
0.0281842 -0.0259463 -1.195 0.487645 -0.00519664 -1.17821 0.0152298 -0.00519702 -1.195 
0.483766 -0.0283684 -1.19501 0.00495749 -0.0351005 -1.19501 0.281268 -0.0156461 -1.19452 
0.0206371 -0.0327797 -1.16742 0.0231575 -0.0133992 -1.18378 0.0298272 -0.0450009 -1.18627 
0.46479 -0.0136139 -1.18736 0.0966641 -0.0355692 -1.15593 0.43934 -0.0448396 -1.17079 
0.0355437 -0.00501752 -1.195 0.0410967 -0.0287085 -1.15535 0.407191 -0.0133788 -1.19501 
0.0208188 -0.013618 -1.19501 0.469774 -0.0441884 -1.17131 0.487174 -0.0371562 -1.1793 
0.255881 -0.0248141 -1.1947 0.0564787 -0.0213581 -1.16613 0.0771194 -0.0171301 -1.19501 
0.489776 -0.0221643 -1.17764 0.0143789 -0.0275447 -1.17367 0.0502915 -0.0330099 -1.19501 
0.364865 -0.0240386 -1.19483 0.494968 -0.0374247 -1.18598 0.482403 -0.00538705 -1.18689 
0.00495125 -0.0149617 -1.19501 0.064636 -0.0144718 -1.18531 0.143316 -0.0101208 -1.18124 
0.0226635 -0.0224764 -1.16822 0.347885 -0.0285889 -1.19477 0.478734 -0.0380437 -1.1686 
0.32369 -0.00730993 -1.12424 0.0249158 -0.0450419 -1.19499 0.418918 -0.0449999 -1.19501 
0.423761 -0.0132259 -1.18629 0.00506859 -0.00498671 -1.19501 0.151801 -0.0371558 -1.1834 
0.101925 -0.0432424 -1.1711 0.403137 -0.0261169 -1.17517 0.47744 -0.0437755 -1.18727 
0.206125 -0.0151816 -0.245002 0.494755 -0.0319758 -1.17527 0.0760744 -0.0447433 -1.17586 
0.0448054 -0.0137832 -1.181 0.462596 -0.0449341 -1.18969 0.469563 -0.035706 -1.18641 
0.448576 -0.0360487 -1.18906 0.0753765 -0.00732061 -1.19497 0.486004 -0.0196556 -1.19074 
0.483794 -0.0360831 -1.18862 0.00514888 -0.044957 -1.17173 0.0573185 -0.0358196 -1.17567 
0.245592 -0.00624807 -1.195 0.390154 -0.0328298 -1.19477 0.0437223 -0.0404966 -1.195 
0.0783807 -0.0352279 -1.192 0.444602 -0.0250103 -1.19494 0.334984 -0.0405466 -1.17209 
0.435006 -0.0450088 -1.195 0.412887 -0.00500016 -1.195 0.025467 -0.0145203 -1.17391 
0.0901086 -0.0426073 -1.1862 0.445701 -0.00744821 -1.16273 0.233314 -0.0447881 -0.246256 
0.458103 -0.036811 -1.18586 0.088556 -0.0332583 -1.1923 0.0594654 -0.00655778 -1.17569 
0.0874112 -0.013409 -1.1804 0.429308 -0.00499059 -1.18719 0.207535 -0.00546766 -1.19499 
0.428573 -0.0373257 -1.19499 0.031206 -0.0449902 -1.17637 0.034863 -0.0450152 -1.19501 
0.0508988 -0.012776 -1.1635 0.013551 -0.0300945 -1.19501 0.0255861 -0.00494669 -1.19501 
0.0656114 -0.00513126 -1.195 0.494823 -0.00898523 -1.17133 0.461629 -0.0346746 -1.17668 
0.0342235 -0.0286741 -1.18752 0.0212892 -0.0217755 -1.1891 0.0869174 -0.0404866 -1.17269 
0.0247661 -0.00524786 -1.17777 0.277269 -0.0423662 -1.18395 0.441384 -0.044847 -1.18638 
0.0537913 -0.0150394 -1.1852 0.450896 -0.0340096 -1.17943 0.0811649 -0.0125166 -1.17179 
0.47172 -0.0268419 -1.19371 0.0117412 -0.0381744 -1.18835 0.0587605 -0.0180838 -1.17667 
0.438569 -0.015983 -1.195 0.358278 -0.00628102 -0.577041 0.0658219 -0.0449936 -1.19499 
0.0869252 -0.00537872 -1.19485 0.443527 -0.00514326 -1.18903 0.436599 -0.0212428 -1.17758 
0.41975 -0.0307129 -1.18116 0.491143 -0.044899 -1.15935 0.105065 -0.0127864 -1.19499 
0.426424 -0.0225971 -1.19501 0.318164 -0.0237414 -0.393317 0.094998 -0.0137712 -1.19497 
0.131525 -0.0206255 -1.17481 0.0495456 -0.0440633 -1.18401 0.0688463 -0.0352352 -1.19502 
0.0307772 -0.0138425 -1.195 0.446835 -0.0267354 -1.18533 0.362786 -0.0194764 -0.90003 
0.420057 -0.0374814 -1.18854 0.452293 -0.0344006 -1.15904 0.24296 -0.0182957 -1.19434 
0.450218 -0.00500015 -1.1816 0.104626 -0.0260481 -1.19506 0.0821997 -0.0265049 -1.18372 
0.377165 -0.0319311 -1.19496 0.446398 -0.0449952 -1.19501 0.347257 -0.0444303 -1.19472 
0.288121 -0.00625096 -1.19456 0.00533814 -0.0315319 -1.17002 0.454388 -0.030361 -1.19498 
0.321529 -0.0131225 -1.19492 0.412599 -0.0449158 -1.18721 0.465085 -0.00785644 -1.16945 
0.123268 -0.0103858 -1.19478 0.0524444 -0.0448827 -1.17431 0.270326 -0.0133218 -1.19043 
0.378726 -0.0136572 -1.18847 0.419171 -0.0295607 -1.19501 0.444356 -0.014832 -1.18538 
0.0444723 -0.0245506 -1.18825 0.434473 -0.0285918 -1.19502 0.0257617 -0.0322973 -1.17623 
0.0972526 -0.0445491 -1.19438 0.462459 -0.0283964 -1.18904 0.0398891 -0.0450013 -1.18638 
0.247098 -0.0305486 -1.19502 0.404599 -0.0297723 -1.19494 0.0591649 -0.0375233 -1.19499 
0.255691 -0.00520538 -1.19447 0.478731 -0.0206314 -1.17823 0.0325027 -0.0413206 -1.11791 
0.0672315 -0.0158068 -1.19492 0.0836974 -0.00603784 -1.16158 0.41234 -0.0220016 -1.195 
0.431359 -0.0310289 -1.17952 0.0996314 -0.0400728 -1.18503 0.311172 -0.0127989 -1.18681 
0.11484 -0.016249 -1.19324 0.411945 -0.0297612 -1.1881 0.428729 -0.021468 -1.18371 
0.405977 -0.0449811 -1.195 0.464203 -0.00541902 -1.17942 0.362995 -0.018962 -0.926573 
0.381087 -0.00520293 -1.19454 0.456003 -0.00579223 -1.17348 0.0675242 -0.0448999 -1.18204 
0.0915255 -0.0236318 -1.19481 0.233737 -0.0441911 -1.18676 0.402471 -0.0210174 -1.19054 
0.452337 -0.0449976 -1.18669 0.0809678 -0.0386805 -1.18286 0.418097 -0.004987 -1.18618 
0.0686385 -0.0365357 -1.16855 0.0395959 -0.00498583 -1.18295 0.0592947 -0.00540748 -1.18572 
0.408866 -0.0216927 -1.18283 0.243133 -0.0249782 -1.1864 0.4473 -0.0209873 -1.17714 
0.0724405 -0.0228264 -1.18399 0.419008 -0.014369 -1.195 0.28667 -0.0234745 -1.18041 
0.297339 -0.0318764 -1.19013 0.272099 -0.0376533 -1.195 0.401708 -0.00500866 -1.19499 
0.0455172 -0.00499653 -1.19497 0.0392229 -0.0231571 -1.16683 0.253871 -0.0153363 -1.19179 
0.434914 -0.0340048 -1.17044 0.241917 -0.0370079 -1.18762 0.158488 -0.00701806 -1.19425 
0.189767 -0.0448324 -1.19314 0.0563361 -0.0251282 -1.18549 0.0573025 -0.0148049 -1.195 
0.426781 -0.0450133 -1.18885 0.412425 -0.0370323 -1.19499 0.0887088 -0.0285739 -1.17016 
0.225144 -0.00513575 -0.245002 0.244271 -0.0146362 -1.18506 0.39788 -0.0289433 -1.15917 
0.429543 -0.013684 -1.17743 0.0774656 -0.0225481 -1.16999 0.274625 -0.030679 -1.16712 
0.148561 -0.00797921 -1.19165 0.0507482 -0.0109091 -1.1735 0.29719 -0.0120682 -1.19491 
0.386305 -0.0140321 -1.195 0.233019 -0.00593101 -1.19469 0.360435 -0.0421173 -0.688279 
0.419334 -0.0220424 -1.18786 0.0616875 -0.0343554 -1.18568 0.372399 -0.0408608 -1.19477 
0.0928494 -0.00654696 -1.18548 0.304465 -0.0448361 -1.18548 0.454248 -0.0139813 -1.18397 
0.417943 -0.0147314 -1.17828 0.0913101 -0.0339798 -1.18129 0.285234 -0.0252567 -1.195 
0.34425 -0.0186214 -1.18471 0.308018 -0.0241724 -1.19373 0.332714 -0.0103998 -1.19491 
0.412776 -0.00502849 -1.17757 0.334715 -0.0439081 -1.18635 0.263287 -0.0322763 -1.1942 
0.23292 -0.0358076 -1.19468 0.0984197 -0.0243595 -1.18712 0.391223 -0.0446827 -1.19491 
0.0589755 -0.0448315 -1.18719 0.437442 -0.00510856 -1.18109 0.285397 -0.0405021 -1.17186 
0.347124 -0.00533161 -1.19503 0.211673 -0.00930222 -1.18461 0.114416 -0.0264264 -1.19221 
0.255312 -0.0393663 -1.18638 0.213093 -0.014518 -1.19369 0.361074 -0.0440005 -1.19495 
0.0611599 -0.0269573 -1.19502 0.104346 -0.00487948 -1.18823 0.278095 -0.00624044 -1.18922 
0.269004 -0.00534863 -1.18242 0.343272 -0.0103731 -0.727376 0.373656 -0.0193492 -1.19504 
0.401779 -0.0163946 -1.17804 0.241768 -0.0439878 -1.19478 0.159044 -0.0450224 -1.18452 
0.168623 -0.0435586 -1.19258 0.434435 -0.0135063 -1.18614 0.391706 -0.00534351 -1.195 
0.133274 -0.0173467 -1.19501 0.462316 -0.0249735 -1.17369 0.228091 -0.0344656 -1.18549 
0.207255 -0.0349206 -0.245002 0.402355 -0.0415986 -1.17896 0.396891 -0.0139073 -1.19499 
0.425086 -0.0248467 -1.17469 0.399552 -0.0296302 -1.18585 0.071524 -0.0363798 -1.17874 
0.409502 -0.0340637 -1.17932 0.0129256 -0.0357128 -1.16161 0.0853132 -0.0442907 -1.19499 
0.413734 -0.0326935 -1.1704 0.125791 -0.0169897 -1.09667 0.223533 -0.0291329 -1.19249 
0.223098 -0.0121019 -1.19481 0.266173 -0.00559161 -1.19496 0.357274 -0.0249267 -1.18494 
0.367755 -0.00544627 -1.18375 0.421668 -0.0443758 -1.16622 0.109771 -0.0350765 -1.19499 
0.393299 -0.0379796 -1.18659 0.354459 -0.0389065 -1.09055 0.380634 -0.0079217 -1.18051 
0.0755702 -0.0448026 -1.19276 0.390871 -0.00499741 -1.18505 0.391044 -0.0448807 -1.17962 
0.187846 -0.0293521 -1.195 0.383706 -0.0236898 -1.19501 0.483156 -0.0291366 -1.17485 
0.159626 -0.0311265 -1.18622 0.353599 -0.0362691 -1.19055 0.322894 -0.0435281 -1.17875 
0.265331 -0.0449238 -1.19198 0.333139 -0.0248848 -1.19488 0.371031 -0.0093634 -1.19364 
0.413095 -0.0136032 -1.18695 0.439995 -0.0262591 -1.16602 0.349148 -0.0441769 -1.18288 
0.252672 -0.0450945 -1.19442 0.366682 -0.0335729 -0.756618 0.348717 -0.0260413 -0.636337 
0.424565 -0.00504446 -1.17833 0.375767 -0.0364921 -1.18106 0.214586 -0.0231666 -1.16376 
0.384614 -0.0446627 -1.18743 0.391515 -0.0171247 -1.18705 0.312758 -0.00720415 -1.19508 
0.294802 -0.0222012 -1.19502 0.363293 -0.0154684 -0.966842 0.0981134 -0.0346075 -1.19508 
0.303328 -0.00599369 -1.1899 0.233182 -0.0176203 -1.18682 0.179484 -0.0435192 -1.19495 
0.455177 -0.0183811 -1.1712 0.364221 -0.0322807 -1.18861 0.34729 -0.0261104 -1.17813 
0.226754 -0.0444418 -1.19498 0.413491 -0.0435853 -1.17695 0.392591 -0.0231738 -1.17569 
0.258911 -0.0287557 -1.18147 0.406755 -0.0104272 -1.17137 0.383608 -0.0346859 -1.18739 
0.440771 -0.0177459 -1.14181 0.310715 -0.0354572 -1.15008 0.269195 -0.038249 -1.17413 
0.0707955 -0.00771085 -1.17365 0.302165 -0.0210471 -1.16445 0.243246 -0.0352468 -0.262944 
0.314531 -0.0270519 -1.18095 0.312023 -0.00742873 -1.13505 0.433229 -0.0402407 -1.1829 
0.247951 -0.0376055 -1.12866 0.415095 -0.0239643 -1.17526 0.296795 -0.0154602 -0.355694 
0.301481 -0.0195955 -1.18263 0.357863 -0.00561244 -1.17824 0.276175 -0.0296278 -1.17709 
0.322127 -0.0356962 -1.19466 0.326839 -0.0322569 -1.1788 0.0808716 -0.00505362 -1.18669 
0.399784 -0.00505425 -1.17757 0.356796 -0.0342132 -0.60723 0.374982 -0.0433738 -1.1726 
0.472818 -0.027181 -1.17274 0.0626383 -0.0273731 -1.1777 0.379509 -0.0234002 -1.18548 
0.335394 -0.00920317 -1.16243 0.399088 -0.0106612 -1.1858 0.222573 -0.0176106 -1.18064 
0.100346 -0.0136178 -1.18374 0.17582 -0.0167479 -1.19464 0.48074 -0.010806 -1.16245 
0.338621 -0.0322014 -1.18954 0.493765 -0.0105338 -1.11998 0.125535 -0.0324799 -1.19073 
0.477293 -0.0209507 -1.1603 0.259819 -0.014695 -1.18194 0.34544 -0.0395111 -0.84385 
0.140643 -0.0239069 -1.195 0.389769 -0.0268609 -1.18509 0.364337 -0.0402971 -1.18074 
0.289252 -0.0134677 -1.18772 0.405506 -0.0377921 -1.18771 
VERTICES 500 1000
1 0 
1 1 
1 2 
1 3 
1 4 
1 5 
1 6 
1 7 
1 8 
1 9 
1 10 
1 11 
1 12 
1 13 
1 14 
1 15 
1 16 
1 17 
1 18 
1 19 
1 20 
1 21 
1 22 
1 23 
1 24 
1 25 
1 26 
1 27 
1 28 
1 29 
1 30 
1 31 
1 32 
1 33 
1 34 
1 35 
1 36 
1 37 
1 38 
1 39 
1 40 
1 41 
1 42 
1 43 
1 44 
1 45 
1 46 
1 47 
1 48 
1 49 
1 50 
1 51 
1 52 
1 53 
1 54 
1 55 
1 56 
1 57 
1 58 
1 59 
1 60 
1 61 
1 62 
1 63 
1 64 
1 65 
1 66 
1 67 
1 68 
1 69 
1 70 
1 71 
1 72 
1 73 
1 74 
1 75 
1 76 
1 77 
1 78 
1 79 
1 80 
1 81 
1 82 
1 83 
1 84 
1 85 
1 86 
1 87 
1 88 
1 89 
1 90 
1 91 
1 92 
1 93 
1 94 
1 95 
1 96 
1 97 
1 98 
1 99 
1 100 
1 101 
1 102 
1 103 
1 104 
1 105 
1 106 
1 107 
1 108 
1 109 
1 110 
1 111 
1 112 
1 113 
1 114 
1 115 
1 116 
1 117 
1 118 
1 119 
1 120 
1 121 
1 122 
1 123 
1 124 
1 125 
1 126 
1 127 
1 128 
1 129 
1 130 
1 131 
1 132 
1 133 
1 134 
1 135 
1 136 
1 137 
1 138 
1 139 
1 140 
1 141 
1 142 
1 143 
1 144 
1 145 
1 146 
1 147 
1 148 
1 149 
1 150 
1 151 
1 152 
1 153 
1 154 
1 155 
1 156 
1 157 
1 158 
1 159 
1 160 
1 161 
1 162 
1 163 
1 164 
1 165 
1 166 
1 167 
1 168 
1 169 
1 170 
1 171 
1 172 
1 173 
1 174 
1 175 
1 176 
1 177 
1 178 
1 179 
1 180 
1 181 
1 182 
1 183 
1 184 
1 185 
1 186 
1 187 
1 188 
1 189 
1 190 
1 191 
1 192 
1 193 
1 194 
1 195 
1 196 
1 197 
1 198 
1 199 
1 200 
1 201 
1 202 
1 203 
1 204 
1 205 
1 206 
1 207 
1 208 
1 209 
1 210 
1 211 
1 212 
1 213 
1 214 
1 215 
1 216 
1 217 
1 218 
1 219 
1 220 
1 221 
1 222 
1 223 
1 224 
1 225 
1 226 
1 227 
1 228 
1 229 
1 230 
1 231 
1 232 
1 233 
1 234 
1 235 
1 236 
1 237 
1 238 
1 239 
1 240 
1 241 
1 242 
1 243 
1 244 
1 245 
1 246 
1 247 
1 248 
1 249 
1 250 
1 251 
1 252 
1 253 
1 254 
1 255 
1 256 
1 257 
1 258 
1 259 
1 260 
1 261 
1 262 
1 263 
1 264 
1 265 
1 266 
1 267 
1 268 
1 269 
1 270 
1 271 
1 272 
1 273 
1 274 
1 275 
1 276 
1 277 
1 278 
1 279 
1 280 
1 281 
1 282 
1 283 
1 284 
1 285 
1 286 
1 287 
1 288 
1 289 
1 290 
1 291 
1 292 
1 293 
1 294 
1 295 
1 296 
1 297 
1 298 
1 299 
1 300 
1 301 
1 302 
1 303 
1 304 
1 305 
1 306 
1 307 
1 308 
1 309 
1 310 
1 311 
1 312 
1 313 
1 314 
1 315 
1 316 
1 317 
1 318 
1 319 
1 320 
1 321 
1 322 
1 323 
1 324 
1 325 
1 326 
1 327 
1 328 
1 329 
1 330 
1 331 
1 332 
1 333 
1 334 
1 335 
1 336 
1 337 
1 338 
1 339 
1 340 
1 341 
1 342 
1 343 
1 344 
1 345 
1 346 
1 347 
1 348 
1 349 
1 350 
1 351 
1 352 
1 353 
1 354 
1 355 
1 356 
1 357 
1 358 
1 359 
1 360 
1 361 
1 362 
1 363 
1 364 
1 365 
1 366 
1 367 
1 368 
1 369 
1 370 
1 371 
1 372 
1 373 
1 374 
1 375 
1 376 
1 377 
1 378 
1 379 
1 380 
1 381 
1 382 
1 383 
1 384 
1 385 
1 386 
1 387 
1 388 
1 389 
1 390 
1 391 
1 392 
1 393 
1 394 
1 395 
1 396 
1 397 
1 398 
1 399 
1 400 
1 401 
1 402 
1 403 
1 404 
1 405 
1 406 
1 407 
1 408 
1 409 
1 410 
1 411 
1 412 
1 413 
1 414 
1 415 
1 416 
1 417 
1 418 
1 419 
1 420 
1 421 
1 422 
1 423 
1 424 
1 425 
1 426 
1 427 
1 428 
1 429 
1 430 
1 431 
1 432 
1 433 
1 434 
1 435 
1 436 
1 437 
1 438 
1 439 
1 440 
1 441 
1 442 
1 443 
1 444 
1 445 
1 446 
1 447 
1 448 
1 449 
1 450 
1 451 
1 452 
1 453 
1 454 
1 455 
1 456 
1 457 
1 458 
1 459 
1 460 
1 461 
1 462 
1 463 
1 464 
1 465 
1 466 
1 467 
1 468 
1 469 
1 470 
1 471 
1 472 
1 473 
1 474 
1 475 
1 476 
1 477 
1 478 
1 479 
1 480 
1 481 
1 482 
1 483 
1 484 
1 485 
1 486 
1 487 
1 488 
1 489 
1 490 
1 491 
1 492 
1 493 
1 494 
1 495 
1 496 
1 497 
1 498 
1 499 

POINT_DATA 500
FIELD FieldData 7
id 1 500 int
1 2 3 4 5 6 7 8 9 
10 11 12 13 14 15 16 17 18 
19 20 21 22 23 24 25 26 27 
28 29 30 31 32 33 34 35 36 
37 38 39 40 41 42 43 44 45 
46 47 48 49 50 51 52 53 54 
55 56 57 58 59 60 61 62 63 
64 65 66 67 68 69 70 71 72 
73 74 75 76 77 78 79 80 81 
82 83 84 85 86 87 88 89 90 
91 92 93 94 95 96 97 98 99 
100 101 102 103 104 105 106 107 108 
109 110 111 112 113 114 115 116 117 
118 119 120 121 122 123 124 125 126 
127 128 129 130 131 132 133 134 135 
136 137 138 139 140 141 142 143 144 
145 146 147 148 149 150 151 152 153 
154 155 156 157 158 159 160 161 162 
163 164 165 166 167 168 169 170 171 
172 173 174 175 176 177 178 179 180 
181 182 183 184 185 186 187 188 189 
190 191 192 193 194 195 196 197 198 
199 200 201 202 203 204 205 206 207 
208 209 210 211 212 213 214 215 216 
217 218 219 220 221 222 223 224 225 
226 227 228 229 230 231 232 233 234 
235 236 237 238 239 240 241 242 243 
244 245 246 247 248 249 250 251 252 
253 254 255 256 257 258 259 260 261 
262 263 264 265 266 267 268 269 270 
271 272 273 274 275 276 277 278 279 
280 281 282 283 284 285 286 287 288 
289 290 291 292 293 294 295 296 297 
298 299 300 301 302 303 304 305 306 
307 308 309 310 311 312 313 314 315 
316 317 318 319 320 321 322 323 324 
325 326 327 328 329 330 331 332 333 
334 335 336 337 338 339 340 341 342 
343 344 345 346 347 348 349 350 351 
352 353 354 355 356 357 358 359 360 
361 362 363 364 365 366 367 368 369 
370 371 372 373 374 375 376 377 378 
379 380 381 382 383 384 385 386 387 
388 389 390 391 392 393 394 395 396 
397 398 399 400 401 402 403 404 405 
406 407 408 409 410 411 412 413 414 
415 416 417 418 419 420 421 422 423 
424 425 426 427 428 429 430 431 432 
433 434 435 436 437 438 439 440 441 
442 443 444 445 446 447 448 449 450 
451 452 453 454 455 456 457 458 459 
460 461 462 463 464 465 466 467 468 
469 470 471 472 473 474 475 476 477 
478 479 480 481 482 483 484 485 486 
487 488 489 490 491 492 493 494 495 
496 497 498 499 500 
type 1 500 int
1 1 1 1 1 1 1 1 1 
1 1 1 1 1 1 1 1 1 
1 1 1 1 1 1 1 1 1 
1 1 1 1 1 1 1 1 1 
1 1 1 1 1 1 1 1 1 
1 1 1 1 1 1 1 1 1 
1 1 1 1 1 1 1 1 1 
1 1 1 1 1 1 1 1 1 
1 1 1 1 1 1 1 1 1 
1 1 1 1 1 1 1 1 1 
1 1 1 1 1 1 1 1 1 
1 1 1 1 1 1 1 1 1 
1 1 1 1 1 1 1 1 1 
1 1 1 1 1 1 1 1 1 
1 1 1 1 1 1 1 1 1 
1 1 1 1 1 1 1 1 1 
1 1 1 1 1 1 1 1 1 
1 1 1 1 1 1 1 1 1 
1 1 1 1 1 1 1 1 1 
1 1 1 1 1 1 1 1 1 
1 1 1 1 1 1 1 1 1 
1 1 1 1 1 1 1 1 1 
1 1 1 1 1 1 1 1 1 
1 1 1 1 1 1 1 1 1 
1 1 1 1 1 1 1 1 1 
1 1 1 1 1 1 1 1 1 
1 1 1 1 1 1 1 1 1 
1 1 1 1 1 1 1 1 1 
1 1 1 1 1 1 1 1 1 
1 1 1 1 1 1 1 1 1 
1 1 1 1 1 1 1 1 1 
1 1 1 1 1 1 1 1 1 
1 1 1 1 1 1 1 1 1 
1 1 1 1 1 1 1 1 1 
1 1 1 1 1 1 1 1 1 
1 1 1 1 1 1 1 1 1 
1 1 1 1 1 1 1 1 1 
1 1 1 1 1 1 1 1 1 
1 1 1 1 1 1 1 1 1 
1 1 1 1 1 1 1 1 1 
1 1 1 1 1 1 1 1 1 
1 1 1 1 1 1 1 1 1 
1 1 1 1 1 1 1 1 1 
1 1 1 1 1 1 1 1 1 
1 1 1 1 1 1 1 1 1 
1 1 1 1 1 1 1 1 1 
1 1 1 1 1 1 1 1 1 
1 1 1 1 1 1 1 1 1 
1 1 1 1 1 1 1 1 1 
1 1 1 1 1 1 1 1 1 
1 1 1 1 1 1 1 1 1 
1 1 1 1 1 1 1 1 1 
1 1 1 1 1 1 1 1 1 
1 1 1 1 1 1 1 1 1 
1 1 1 1 1 1 1 1 1 
1 1 1 1 1 
i 3 500 int
0 0 0 0 0 0 0 0 0 
0 0 0 0 0 0 0 0 0 
0 0 0 0 0 0 0 0 0 
0 0 0 0 0 0 0 0 0 
0 0 0 0 0 0 0 0 0 
0 0 0 0 0 0 0 0 0 
0 0 0 0 0 0 0 0 0 
0 0 0 0 0 0 0 0 0 
0 0 0 0 0 0 0 0 0 
0 0 0 0 0 0 0 0 0 
0 0 0 0 0 0 0 0 0 
0 0 0 0 0 0 0 0 0 
0 0 0 0 0 0 0 0 0 
0 0 0 0 0 0 0 0 0 
0 0 0 0 0 0 0 0 0 
0 0 0 0 0 0 0 0 0 
0 0 0 0 0 0 0 0 0 
0 0 0 0 0 0 0 0 0 
0 0 0 0 0 0 0 0 0 
0 0 0 0 0 0 0 0 0 
0 0 0 0 0 0 0 0 0 
0 0 0 0 0 0 0 0 0 
0 0 0 0 0 0 0 0 0 
0 0 0 0 0 0 0 0 0 
0 0 0 0 0 0 0 0 0 
0 0 0 0 0 0 0 0 0 
0 0 0 0 0 0 0 0 0 
0 0 0 0 0 0 0 0 0 
0 0 0 0 0 0 0 0 0 
0 0 0 0 0 0 0 0 0 
0 0 0 0 0 0 0 0 0 
0 0 0 0 0 0 0 0 0 
0 0 0 0 0 0 0 0 0 
0 0 0 0 0 0 0 0 0 
0 0 0 0 0 0 0 0 0 
0 0 0 0 0 0 0 0 0 
0 0 0 0 0 0 0 0 0 
0 0 0 0 0 0 0 0 0 
0 0 0 0 0 0 0 0 0 
0 0 0 0 0 0 0 0 0 
0 0 0 0 0 0 0 0 0 
0 0 0 0 0 0 0 0 0 
0 0 0 0 0 0 0 0 0 
0 0 0 0 0 0 0 0 0 
0 0 0 0 0 0 0 0 0 
0 0 0 0 0 0 0 0 0 
0 0 0 0 0 0 0 0 0 
0 0 0 0 0 0 0 0 0 
0 0 0 0 0 0 0 0 0 
0 0 0 0 0 0 0 0 0 
0 0 0 0 0 0 0 0 0 
0 0 0 0 0 0 0 0 0 
0 0 0 0 0 0 0 0 0 
0 0 0 0 0 0 0 0 0 
0 0 0 0 0 0 0 0 0 
0 0 0 0 0 0 0 0 0 
0 0 0 0 0 0 0 0 0 
0 0 0 0 0 0 0 0 0 
0 0 0 0 0 0 0 0 0 
0 0 0 0 0 0 0 0 0 
0 0 0 0 0 0 0 0 0 
0 0 0 0 0 0 0 0 0 
0 0 0 0 0 0 0 0 0 
0 0 0 0 0 0 0 0 0 
0 0 0 0 0 0 0 0 0 
0 0 0 0 0 0 0 0 0 
0 0 0 0 0 0 0 0 0 
0 0 0 0 0 0 0 0 0 
0 0 0 0 0 0 0 0 0 
0 0 0 0 0 0 0 0 0 
0 0 0 0 0 0 0 0 0 
0 0 0 0 0 0 0 0 0 
0 0 0 0 0 0 0 0 0 
0 0 0 0 0 0 0 0 0 
0 0 0 0 0 0 0 0 0 
0 0 0 0 0 0 0 0 0 
0 0 0 0 0 0 0 0 0 
0 0 0 0 0 0 0 0 0 
0 0 0 0 0 0 0 0 0 
0 0 0 0 0 0 0 0 0 
0 0 0 0 0 0 0 0 0 
0 0 0 0 0 0 0 0 0 
0 0 0 0 0 0 0 0 0 
0 0 0 0 0 0 0 0 0 
0 0 0 0 0 0 0 0 0 
0 0 0 0 0 0 0 0 0 
0 0 0 0 0 0 0 0 0 
0 0 0 0 0 0 0 0 0 
0 0 0 0 0 0 0 0 0 
0 0 0 0 0 0 0 0 0 
0 0 0 0 0 0 0 0 0 
0 0 0 0 0 0 0 0 0 
0 0 0 0 0 0 0 0 0 
0 0 0 0 0 0 0 0 0 
0 0 0 0 0 0 0 0 0 
0 0 0 0 0 0 0 0 0 
0 0 0 0 0 0 0 0 0 
0 0 0 0 0 0 0 0 0 
0 0 0 0 0 0 0 0 0 
0 0 0 0 0 0 0 0 0 
0 0 0 0 0 0 0 0 0 
0 0 0 0 0 0 0 0 0 
0 0 0 0 0 0 0 0 0 
0 0 0 0 0 0 0 0 0 
0 0 0 0 0 0 0 0 0 
0 0 0 0 0 0 0 0 0 
0 0 0 0 0 0 0 0 0 
0 0 0 0 0 0 0 0 0 
0 0 0 0 0 0 0 0 0 
0 0 0 0 0 0 0 0 0 
0 0 0 0 0 0 0 0 0 
0 0 0 0 0 0 0 0 0 
0 0 0 0 0 0 0 0 0 
0 0 0 0 0 0 0 0 0 
0 0 0 0 0 0 0 0 0 
0 0 0 0 0 0 0 0 0 
0 0 0 0 0 0 0 0 0 
0 0 0 0 0 0 0 0 0 
0 0 0 0 0 0 0 0 0 
0 0 0 0 0 0 0 0 0 
0 0 0 0 0 0 0 0 0 
0 0 0 0 0 0 0 0 0 
0 0 0 0 0 0 0 0 0 
0 0 0 0 0 0 0 0 0 
0 0 0 0 0 0 0 0 0 
0 0 0 0 0 0 0 0 0 
0 0 0 0 0 0 0 0 0 
0 0 0 0 0 0 0 0 0 
0 0 0 0 0 0 0 0 0 
0 0 0 0 0 0 0 0 0 
0 0 0 0 0 0 0 0 0 
0 0 0 0 0 0 0 0 0 
0 0 0 0 0 0 0 0 0 
0 0 0 0 0 0 0 0 0 
0 0 0 0 0 0 0 0 0 
0 0 0 0 0 0 0 0 0 
0 0 0 0 0 0 0 0 0 
0 0 0 0 0 0 0 0 0 
0 0 0 0 0 0 0 0 0 
0 0 0 0 0 0 0 0 0 
0 0 0 0 0 0 0 0 0 
0 0 0 0 0 0 0 0 0 
0 0 0 0 0 0 0 0 0 
0 0 0 0 0 0 0 0 0 
0 0 0 0 0 0 0 0 0 
0 0 0 0 0 0 0 0 0 
0 0 0 0 0 0 0 0 0 
0 0 0 0 0 0 0 0 0 
0 0 0 0 0 0 0 0 0 
0 0 0 0 0 0 0 0 0 
0 0 0 0 0 0 0 0 0 
0 0 0 0 0 0 0 0 0 
0 0 0 0 0 0 0 0 0 
0 0 0 0 0 0 0 0 0 
0 0 0 0 0 0 0 0 0 
0 0 0 0 0 0 0 0 0 
0 0 0 0 0 0 0 0 0 
0 0 0 0 0 0 0 0 0 
0 0 0 0 0 0 0 0 0 
0 0 0 0 0 0 0 0 0 
0 0 0 0 0 0 0 0 0 
0 0 0 0 0 0 0 0 0 
0 0 0 0 0 0 0 0 0 
0 0 0 0 0 0 0 0 0 
0 0 0 0 0 0 0 0 0 
0 0 0 0 0 0 0 0 0 
0 0 0 0 0 0 
v 3 500 double
-0.174355 -0.058816 0.0414889 -0.37654 -0.169418 -0.0820396 0.0115567 -0.0209282 0.00425444 
-0.0848192 0.0278396 0.133487 -0.0148894 0.118802 -0.120946 -0.0121269 -0.01584 0.124666 
-0.00860897 -0.00116753 -0.0454172 0.1131 -0.241927 0.182484 0.00849749 -0.0176329 0.0648673 
-0.125922 -0.0382226 -0.0836607 0.324484 -0.153285 0.137306 -0.0931334 0.0986053 0.0313928 
0.206481 0.244761 -0.0464287 -0.173928 -0.0268752 0.00427542 -0.0460746 -0.0835893 0.14927 
-0.144514 -0.0256657 -0.00566874 -0.0830929 -0.0459625 -0.140705 -0.0428741 0.0440853 0.0276485 
0.0578397 -0.00384955 0.00144207 -0.0147615 0.118931 -0.118578 0.0145089 -0.00465796 0.00811187 
-0.525576 -0.0961411 0.0546376 0.0918641 -0.0996794 0.0147036 0.0189867 0.0776417 0.0118843 
-0.227124 -0.179399 0.089663 -0.101717 -0.0265961 0.0473893 -0.0972153 -7.4031e-05 -0.038935 
-0.0646395 -0.00465899 -0.0450525 -0.267824 0.00057156 -0.0317638 -0.0663489 -0.128887 0.288137 
-0.00199426 0.0227586 0.0747082 -0.160018 0.126454 -0.283422 -0.017338 -0.103767 -0.0926354 
-0.0802936 0.0195915 -0.0764244 -0.572801 -0.607009 -0.692308 -0.0724532 0.0332027 0.0020163 
-0.199957 0.00745214 -0.0111713 0.0596887 0.00736645 -0.00745817 -0.0775331 -0.0524843 0.167642 
0.0086163 -0.0852547 -0.00353699 0.0034099 -0.0366717 -6.58246e-11 -0.601312 -0.0409691 0.00788999 
-0.0728413 -0.0716561 -0.210275 -0.149432 0.116772 -0.0912714 -0.582038 -0.228709 0.0544477 
-0.0862686 -0.0131613 -0.0455985 0.0332038 0.0787414 -0.101663 -0.0162624 -0.00993995 0.00202345 
0.0876889 0.0134092 -0.000245255 -0.111592 0.0443243 -0.0768533 -0.167332 -0.0105613 -0.00726698 
0.0161824 0.0322755 0.00565562 0.0190583 0.00157473 -0.0350823 0.125692 0.0335875 -0.115981 
0.0620084 -0.0231407 0.00268727 -0.0900372 0.0338831 -0.00165034 0.0613942 0.0281771 -0.0776536 
-0.218874 -0.0503393 -0.152452 0.0512511 0.14089 -0.25071 -0.130257 0.0108545 0.0902203 
0.0455512 -0.000492842 -0.00569383 -0.185158 -0.0772995 0.016194 0.0781816 0.265823 -0.0936569 
-0.0317047 0.0359847 0.126868 -0.426467 -0.168035 -2.70347 -0.109928 -0.0574233 -0.152795 
-0.197057 -0.0529229 0.0720911 -0.183417 -0.336832 0.0268889 -0.122056 -0.025453 0.0177361 
0.01678 -0.0149157 0.0247324 0.0028889 -0.0477103 -0.0149012 0.0725253 -0.0721401 0.0357129 
-0.00832227 0.194942 0.144924 0.0131009 0.00817871 -0.00378085 0.117466 0.00554367 0.0260349 
0.00421511 0.0727694 0.00726509 -0.0601358 -0.0962119 -0.0823373 -0.289655 -0.0920185 0.0396151 
-0.209669 0.0710904 0.0118351 -0.00662075 0.122253 -0.00694589 -0.151811 0.0725442 0.0612933 
0.0420017 -0.0164468 -0.0513718 -0.277896 -0.10448 -0.103614 0.0329217 -0.0135315 -0.146664 
0.79571 -0.0190356 -1.66353 -0.0558668 -0.0639279 -0.0645486 0.00556459 -0.0368232 -0.00683686 
-0.221635 -0.0224134 0.00987012 -0.29768 0.00958809 -0.210039 0.000459783 -0.0190746 0.00850316 
0.0393083 0.0445508 -0.00942584 -0.131202 -0.00308351 0.0573506 0.183993 -0.0524007 0.215116 
-0.0355778 0.0868989 -0.0651344 0.0270812 -0.00485663 -0.0144934 -0.0142946 -0.0229349 0.0629568 
-0.972682 0.391814 -0.360356 -0.264287 -0.250718 -0.00597646 -0.302534 -0.376753 -0.336418 
0.0256869 -0.0313175 0.00403124 -0.105362 0.0390674 0.0249355 0.00464461 -0.00169836 -1.5792e-12 
0.0137501 0.0551766 0.0557337 -0.236789 -0.045179 -0.159184 -0.228714 -0.0141425 -0.023911 
-0.168255 0.125196 -0.0401508 -0.0630565 -0.301048 -0.0904834 -0.103262 0.447915 -0.0883385 
-0.3629 0.07731 0.0169621 0.0393163 -0.0275424 0.0512459 -0.446199 0.049858 -0.38924 
-0.0699276 0.0609614 -0.0626744 -0.00494907 -0.00551232 -0.00402233 -0.175272 -0.00918389 0.000410425 
0.247421 0.0631256 -0.00511626 0.107442 0.0262355 0.0617525 0.0395309 0.0464237 -3.29412 
-0.0306668 0.102703 -0.0809081 -0.0609321 0.00568264 -0.112837 -0.114822 0.0213484 -0.0147102 
-0.206382 0.00549756 -0.0113985 -0.0447019 -0.104072 0.0235609 -0.0397227 -0.00331234 -0.0404836 
-0.00362132 -0.0264306 -0.0204292 0.0623928 0.0410643 0.0113102 0.0803281 0.0646423 -0.0433784 
0.000380099 -0.00357507 7.9884e-11 0.0127104 0.0516379 -0.112696 -0.0274251 -0.0122453 0.0284787 
-0.0259014 -0.00286821 0.0479879 -0.112303 0.0235951 0.121825 -0.0230911 -0.000121192 -0.0183933 
0.00963752 -0.0342223 -0.0176816 0.00249671 -0.0631038 0.0568067 -0.10076 0.0727311 0.0279817 
-0.147279 0.078789 -0.00324674 -0.267936 -0.0999323 -0.00471616 -0.0884729 0.819841 0.120198 
-0.0548448 -0.0109653 -0.0170203 -0.508809 0.016397 0.0381091 -0.0838829 0.0182451 -0.0329676 
0.00341886 -0.0378257 -0.0127413 -0.0204893 0.0722638 0.00884562 -0.415128 0.016741 -0.144425 
-0.00478156 0.00721202 -0.0536863 -0.178313 0.00210514 0.0261159 0.0115024 0.0950016 0.0044006 
-0.0812742 0.0689319 -0.00792134 -0.0821203 0.00204124 0.0138624 -0.919656 0.335537 0.334299 
0.0223262 -0.139279 0.178604 -0.21471 -0.0218393 0.0139185 0.00919544 0.00277568 -0.00135555 
0.055975 0.1143 -0.0312099 0.134634 0.180046 0.0637115 -0.0653354 0.0312345 0.0129021 
0.0344494 0.03577 0.0056087 0.0176294 0.0276406 0.0231108 0.0143163 -0.0190765 -0.0127511 
-0.00879159 -0.0696511 -0.0370436 0.0131339 -0.00786222 -0.00430098 -0.693191 0.0294658 -0.0176863 
0.0397436 -0.195774 0.0418614 0.109247 0.0243512 -0.0132876 0.0432664 -0.0102156 0.0117004 
-0.111109 0.119272 0.0989818 0.681201 -0.0180451 -0.277538 -0.473587 0.00630866 -0.0306588 
0.0249146 -0.0124227 -0.00797908 0.121761 0.253875 -0.278198 -0.172616 0.0159322 -0.0146202 
-0.0319285 0.0611704 0.00247498 -0.175271 0.0306213 -0.0708194 -0.00434933 0.0704043 -0.0586017 