# vtk DataFile Version 4.0
Generated by LIGGGHTS
ASCII
DATASET POLYDATA
POINTS 480 float
0.392415 -0.0181332 -0.681142 0.474927 -0.0437173 -1.11697 0.346854 -0.0422735 -1.12589 
0.362974 -0.0334496 -1.09851 0.211344 -0.0144198 -1.19154 0.354839 -0.0341469 -0.80536 
0.349423 -0.0369477 -0.899127 0.231452 -0.0348273 -1.08255 0.286 -0.0414039 -1.02155 
0.308224 -0.0145733 -1.00462 0.472775 -0.0395499 -1.09479 0.393686 -0.0138237 -1.12418 
0.358287 -0.00412431 -1.08999 0.41414 -0.00784462 -1.12656 0.180794 -0.0366856 -1.08691 
0.238622 -0.00731394 -0.254073 0.453067 -0.0256498 -1.13945 0.351051 -0.0356342 -1.05422 
0.354592 -0.011887 -0.508087 0.364734 -0.0225995 -1.06491 0.311469 -0.0351315 -0.901036 
0.449774 -0.0173747 -0.950566 0.400838 -0.0310103 -1.09458 0.349405 -0.0398488 -1.0869 
0.216998 -0.0172231 -0.245007 0.381592 -0.0370219 -1.14787 0.391219 -0.0307811 -1.04846 
0.432 -0.0149996 -1.01553 0.434154 -0.0341805 -1.13157 0.224292 -0.0446166 -0.244484 
0.356189 -0.0413815 -1.18409 0.463245 -0.0350312 -1.15911 0.227378 -0.00548515 -0.243158 
0.319371 -0.0161469 -1.1455 0.215244 -0.0329643 -0.244764 0.282159 -0.00609772 -0.323998 
0.361006 -0.0387862 -0.905208 0.272876 -0.0104146 -1.11239 0.359891 -0.0314612 -1.02567 
0.392601 -0.0107814 -1.15234 0.205231 -0.015212 -0.244929 0.297273 -0.0204382 -1.11612 
0.318698 -0.0437279 -0.889265 0.409144 -0.0376379 -0.991487 0.291961 -0.0317157 -1.06297 
0.363195 -0.0274309 -0.72218 0.312263 -0.00920533 -0.788771 0.34567 -0.0176072 -1.04965 
0.423903 -0.037744 -0.906153 0.376498 -0.0397693 -0.921866 0.462259 -0.0175581 -0.975131 
0.357915 -0.0432204 -0.945904 0.398577 -0.0325691 -0.977899 0.362678 -0.0408592 -0.786761 
0.343859 -0.0108284 -1.06349 0.371559 -0.0112559 -1.01085 0.216171 -0.00538013 -0.244188 
0.257054 -0.0236677 -1.15149 0.338582 -0.0231073 -0.966098 0.34512 -0.0203445 -0.638514 
0.374975 -0.0382708 -0.90265 0.37607 -0.00954161 -0.796721 0.390712 -0.0118772 -0.872363 
0.293598 -0.0132802 -0.35024 0.333059 -0.0216655 -0.691836 0.404498 -0.0345081 -0.862096 
0.345187 -0.0072887 -0.908728 0.388894 -0.0382283 -0.904147 0.399139 -0.00959994 -1.03189 
0.329473 -0.0225441 -0.840726 0.395126 -0.00689219 -0.732091 0.347034 -0.0259373 -0.959174 
0.351769 -0.0106303 -0.64768 0.378177 -0.0118535 -0.836549 0.421878 -0.0313047 -0.777564 
0.369988 -0.0323583 -0.993923 0.339163 -0.0427576 -0.503619 0.43491 -0.00506929 -0.916701 
0.369963 -0.0166431 -0.939444 0.394117 -0.019893 -0.849158 0.349681 -0.0440579 -0.880649 
0.276877 -0.0412514 -0.781062 0.349475 -0.0419012 -0.468952 0.327399 -0.0268886 -0.765617 
0.204895 -0.0351366 -0.242175 0.363706 -0.0443334 -0.675459 0.333887 -0.0393274 -0.810068 
0.263993 -0.0368878 -0.295962 0.402783 -0.0187965 -0.813568 0.346793 -0.0223539 -0.750664 
0.366686 -0.0109971 -0.724842 0.403429 -0.0165433 -0.650368 0.373807 -0.0269272 -0.920259 
0.326584 -0.0351217 -0.797139 0.302416 -0.0157679 -0.858824 0.350736 -0.00757282 -0.69215 
0.322113 -0.0318286 -0.401216 0.408326 -0.0289591 -0.888902 0.205075 -0.00523249 -0.245061 
0.418384 -0.0355218 -0.791466 0.377755 -0.0210287 -0.685425 0.205098 -0.044968 -0.244982 
0.343183 -0.0243311 -0.760332 0.380959 -0.00904712 -0.643998 0.349787 -0.0119972 -0.607449 
0.300761 -0.00876177 -0.783296 0.375943 -0.0286076 -0.755016 0.323869 -0.0381962 -0.838957 
0.354644 -0.01998 -0.657114 0.342823 -0.00624243 -0.481248 0.354209 -0.014637 -0.553137 
0.349084 -0.0160379 -0.763908 0.389705 -0.00558218 -0.815139 0.369042 -0.0123652 -0.621482 
0.273777 -0.0387116 -0.712367 0.352761 -0.0387604 -0.82195 0.209065 -0.0185437 -0.236175 
0.385333 -0.0223764 -0.730267 0.391242 -0.044559 -0.687786 0.306953 -0.044689 -0.372795 
0.367394 -0.00543178 -0.573475 0.334724 -0.0230766 -0.434215 0.382983 -0.0176874 -0.743042 
0.345722 -0.0330428 -0.43507 0.358435 -0.0172017 -0.573478 0.293684 -0.0227381 -0.347281 
0.205006 -0.0252815 -0.243829 0.384966 -0.0105701 -0.662878 0.370577 -0.0364444 -0.646193 
0.350852 -0.0383056 -0.628634 0.379855 -0.0406262 -0.728283 0.380675 -0.0346957 -0.669405 
0.369026 -0.0438011 -0.59676 0.346065 -0.00561564 -0.580626 0.351414 -0.0322605 -0.522723 
0.348954 -0.0296457 -0.47846 0.36592 -0.0281756 -0.686619 0.366499 -0.00704449 -0.657119 
0.400646 -0.0419994 -0.713131 0.265745 -0.0130982 -0.28779 0.373149 -0.00527219 -0.630725 
0.360811 -0.0265749 -0.525679 0.375882 -0.0444383 -0.659485 0.372971 -0.0410384 -0.635023 
0.378992 -0.028784 -0.579795 0.355348 -0.0422566 -0.590223 0.346913 -0.0118868 -0.593443 
0.295023 -0.0318048 -0.332819 0.368062 -0.011687 -0.61147 0.34045 -0.044554 -0.472236 
0.356629 -0.00612323 -0.546602 0.337751 -0.0372848 -0.462491 0.360822 -0.0310018 -0.60179 
0.358641 -0.0438629 -0.571038 0.21415 -0.0435248 -0.240914 0.352513 -0.0266936 -0.648779 
0.339969 -0.00940231 -0.462973 0.366858 -0.00679874 -0.599491 0.383768 -0.0162078 -0.715721 
0.368936 -0.0320081 -0.610008 0.328964 -0.0336165 -0.549357 0.339538 -0.0049269 -0.622283 
0.341578 -0.0229618 -0.53026 0.309441 -0.0357588 -0.377647 0.359937 -0.0280313 -0.566144 
0.349744 -0.025629 -0.446353 0.370726 -0.0383343 -0.585689 0.333022 -0.0180147 -0.450737 
0.335785 -0.0168506 -0.566548 0.341856 -0.0267262 -0.550026 0.360919 -0.0444874 -0.518325 
0.340525 -0.0259308 -0.505242 0.231744 -0.0343806 -0.245314 0.373284 -0.0180404 -0.590375 
0.352977 -0.00729976 -0.567806 0.346129 -0.0197802 -0.480185 0.311279 -0.00672018 -0.382648 
0.366796 -0.0394102 -0.624307 0.315881 -0.011924 -0.40485 0.369843 -0.0152439 -0.635427 
0.258363 -0.043228 -0.288987 0.354622 -0.0139137 -0.475325 0.364589 -0.0357267 -0.5501 
0.354368 -0.0371002 -0.559189 0.357218 -0.0131625 -0.525642 0.354389 -0.0187351 -0.598303 
0.338263 -0.0442522 -0.484436 0.240093 -0.00515163 -0.237901 0.359433 -0.0343207 -0.50938 
0.341374 -0.0233154 -0.469559 0.317608 -0.00968753 -0.416062 0.251616 -0.0238058 -0.277395 
0.32501 -0.0444522 -0.39613 0.315634 -0.0205561 -0.57724 0.222403 -0.0253453 -0.241909 
0.3473 -0.011951 -0.432702 0.368386 -0.0163854 -0.571041 0.350122 -0.0433445 -0.452992 
0.205145 -0.0151714 -0.227718 0.357415 -0.0110674 -0.484882 0.337981 -0.0429455 -0.447324 
0.334293 -0.0411955 -0.412296 0.343403 -0.0189895 -0.405048 0.291958 -0.0396593 -0.343113 
0.350538 -0.0181787 -0.46263 0.332771 -0.0317921 -0.380521 0.357773 -0.0256308 -0.488738 
0.355857 -0.0388964 -0.476168 0.330439 -0.00746116 -0.34621 0.246908 -0.0445509 -0.268855 
0.264882 -0.00832625 -0.300409 0.339492 -0.028492 -0.446332 0.30444 -0.033985 -0.366552 
0.337786 -0.0368166 -0.427669 0.344828 -0.0449738 -0.422555 0.209141 -0.00532853 -0.235971 
0.33154 -0.025529 -0.400378 0.353242 -0.00787284 -0.465576 0.320726 -0.0401157 -0.448923 
0.301806 -0.0292782 -0.351688 0.341694 -0.0196926 -0.441269 0.205104 -0.0448252 -0.234455 
0.33979 -0.00698509 -0.395042 0.31714 -0.0374161 -0.371544 0.301896 -0.0402179 -0.355094 
0.326481 -0.0171242 -0.384649 0.231277 -0.0210297 -0.244269 0.291034 -0.00508287 -0.34477 
0.279292 -0.0412408 -0.319938 0.320513 -0.012241 -0.392145 0.327427 -0.0421129 -0.430482 
0.317278 -0.0386308 -0.388698 0.275594 -0.0264944 -0.312038 0.343799 -0.00905851 -0.423663 
0.273111 -0.0177381 -0.293645 0.292914 -0.0384916 -0.321299 0.343624 -0.0136922 -0.454251 
0.330051 -0.0419155 -0.383198 0.329601 -0.0445316 -0.372265 0.330932 -0.00586779 -0.442046 
0.324006 -0.00582059 -0.383967 0.275176 -0.015004 -0.28177 0.310026 -0.0176779 -0.37783 
0.242858 -0.0418388 -0.256888 0.311107 -0.00535367 -0.36647 0.315943 -0.023943 -0.386224 
0.333307 -0.0215474 -0.359932 0.339318 -0.032895 -0.417143 0.266543 -0.024111 -0.297649 
0.325544 -0.0170903 -0.345456 0.204857 -0.00539339 -0.226462 0.286662 -0.0228895 -0.303732 
0.328762 -0.0306942 -0.347759 0.322321 -0.0426626 -0.304273 0.280962 -0.0286644 -0.327291 
0.332376 -0.0269347 -0.38987 0.217049 -0.0122405 -0.236311 0.328845 -0.0261376 -0.32365 
0.325972 -0.0219877 -0.313526 0.205144 -0.0278164 -0.233745 0.266395 -0.0296939 -0.289182 
0.293114 -0.00865178 -0.324099 0.306073 -0.0190815 -0.322292 0.300563 -0.0143798 -0.268608 
0.325475 -0.0050802 -0.365744 0.246433 -0.0307095 -0.264461 0.212459 -0.0345083 -0.234908 
0.312574 -0.0330319 -0.279965 0.313532 -0.0276711 -0.353964 0.222323 -0.0343831 -0.237722 
0.276817 -0.0170274 -0.270621 0.222279 -0.00534563 -0.231484 0.312202 -0.0157308 -0.365441 
0.275254 -0.0388693 -0.287933 0.289209 -0.0141092 -0.313221 0.260801 -0.0192993 -0.278036 
0.293044 -0.043581 -0.311148 0.324256 -0.00983929 -0.314897 0.25672 -0.0342972 -0.278851 
0.243948 -0.0169707 -0.25358 0.304392 -0.0433707 -0.273066 0.28754 -0.0298872 -0.313572 
0.232994 -0.0127631 -0.239371 0.261103 -0.00590858 -0.268863 0.205278 -0.0187619 -0.217064 
0.239319 -0.0283611 -0.238782 0.255793 -0.0362866 -0.268631 0.294808 -0.0277595 -0.275768 
0.300223 -0.00635534 -0.262175 0.288348 -0.00891922 -0.303629 0.280165 -0.0264742 -0.293329 
0.273705 -0.0450056 -0.307158 0.28572 -0.0428559 -0.276951 0.25329 -0.0213919 -0.262497 
0.256997 -0.00645409 -0.279188 0.2595 -0.0440042 -0.27803 0.275614 -0.00911418 -0.312768 
0.304874 -0.0316036 -0.307053 0.287784 -0.0163113 -0.3403 0.290643 -0.00565349 -0.273721 
0.231423 -0.0383931 -0.235776 0.261936 -0.0221855 -0.268541 0.215849 -0.0251188 -0.232409 
0.293296 -0.0312432 -0.248665 0.272306 -0.0441727 -0.249542 0.253281 -0.00577431 -0.260423 
0.231322 -0.00811379 -0.229348 0.249509 -0.0065335 -0.244113 0.28408 -0.027682 -0.268731 
0.242446 -0.0168259 -0.242716 0.292862 -0.0335461 -0.267787 0.206565 -0.0340492 -0.225753 
0.221239 -0.0438162 -0.233684 0.272078 -0.0416796 -0.264054 0.264035 -0.0120422 -0.258115 
0.253008 -0.0422115 -0.256907 0.23513 -0.0436308 -0.24464 0.256244 -0.0208589 -0.245545 
0.280815 -0.0304776 -0.278616 0.2202 -0.0175052 -0.227523 0.264977 -0.00988116 -0.238974 
0.227868 -0.0393654 -0.221674 0.254543 -0.0432137 -0.246148 0.246148 -0.0372478 -0.248998 
0.239115 -0.018366 -0.233343 0.214833 -0.0248807 -0.22072 0.21589 -0.00596961 -0.22425 
0.238967 -0.00529153 -0.223262 0.248737 -0.0278851 -0.235082 0.227272 -0.021745 -0.233902 
0.20592 -0.0302848 -0.216166 0.233832 -0.0300451 -0.230557 0.264266 -0.0252708 -0.239513 
0.24755 -0.026228 -0.252287 0.231854 -0.0174807 -0.225647 0.213133 -0.0421399 -0.227925 
0.256052 -0.0154921 -0.233639 0.259924 -0.00675544 -0.249953 0.24468 -0.0450316 -0.2408 
0.220537 -0.0334233 -0.226471 0.249772 -0.0365465 -0.206882 0.229679 -0.0179163 -0.210076 
0.238036 -0.044866 -0.207752 0.232198 -0.0348609 -0.206679 0.243517 -0.0382966 -0.233325 
0.210819 -0.00888299 -0.216558 0.221777 -0.0412358 -0.211138 0.217233 -0.0334764 -0.216642 
0.233919 -0.0445589 -0.228136 0.219415 -0.00963432 -0.201217 0.244297 -0.0220927 -0.205179 
0.220993 -0.0260716 -0.200875 0.229364 -0.00523998 -0.219985 0.242208 -0.0207687 -0.2242 
0.233371 -0.00841637 -0.204935 0.222126 -0.0182752 -0.217134 0.210137 -0.0409239 -0.218482 
0.243431 -0.00658193 -0.213588 0.226533 -0.0267161 -0.222178 0.244666 -0.0333136 -0.224406 
0.241845 -0.0276316 -0.179551 0.222932 -0.0138397 -0.165733 0.239363 -0.0133639 -0.173665 
0.212223 -0.0396908 -0.159806 0.245269 -0.042708 -0.16902 0.211679 -0.0181319 -0.193586 
0.231412 -0.0439375 -0.191075 0.223579 -0.0402721 -0.172591 0.247653 -0.0118652 -0.192639 
0.231694 -0.0344254 -0.167789 0.210714 -0.042794 -0.198874 0.212792 -0.0139673 -0.167244 
0.23437 -0.0434379 -0.160761 0.241085 -0.0319293 -0.159394 0.228403 -0.0230717 -0.173878 
0.215683 -0.0286081 -0.169091 0.231258 -0.00656251 -0.159239 0.249728 -0.0209895 -0.172298 
0.240207 -0.0375411 -0.183611 0.246906 -0.0097555 -0.160263 0.218758 -0.0192461 -0.150546 
0.22347 -0.0239132 -0.134413 0.227285 -0.0125341 -0.144466 0.234705 -0.0277703 -0.131066 
0.240215 -0.0209493 -0.140025 0.212641 -0.0106498 -0.133683 0.246657 -0.0390692 -0.150326 
0.246488 -0.0281392 -0.131013 0.215531 -0.0348766 -0.134953 0.238564 -0.0129266 -0.123698 
0.248659 -0.0263109 -0.151026 0.241399 -0.0419343 -0.134751 0.226813 -0.037614 -0.142311 
0.211136 -0.043427 -0.141858 0.24613 -0.00888427 -0.133071 0.222426 -0.00895607 -0.123851 
0.224795 -0.0280399 -0.154621 0.23273 -0.0216566 -0.152898 0.231219 -0.0409913 -0.125781 
0.210703 -0.0244908 -0.142332 0.243872 -0.00589956 -0.113807 0.219393 -0.0235227 -0.0962005 
0.249506 -0.0199437 -0.122385 0.216759 -0.0157405 -0.107167 0.239835 -0.0355729 -0.0977911 
0.243835 -0.026201 -0.106027 0.232569 -0.0112477 -0.0993149 0.248592 -0.0364903 -0.116367 
0.211945 -0.0299311 -0.0920497 0.248477 -0.0431073 -0.0921339 0.214551 -0.0234653 -0.117879 
0.213803 -0.0400907 -0.0952548 0.249062 -0.00566822 -0.0908938 0.224238 -0.0329328 -0.111649 
0.248878 -0.0179202 -0.0914022 0.233195 -0.0442137 -0.0906352 0.230274 -0.0268622 -0.0973921 
0.233856 -0.0207803 -0.11509 0.211322 -0.0354951 -0.112824 0.218758 -0.0449267 -0.107147 
0.234444 -0.0382428 -0.0751675 0.220893 -0.0395294 -0.0671745 0.238571 -0.0192514 -0.07541 
0.228711 -0.0118739 -0.0812835 0.213602 -0.0205095 -0.0736522 0.248131 -0.0166671 -0.0613911 
0.223109 -0.0181207 -0.0661647 0.246147 -0.0379518 -0.0769248 0.213334 -0.00714674 -0.063361 
0.237354 -0.0310019 -0.0843924 0.226477 -0.0278401 -0.0621287 0.226227 -0.0324903 -0.0800874 
0.239523 -0.00864715 -0.0731563 0.220429 -0.0101749 -0.0895932 0.236707 -0.0278034 -0.0640202 
0.223423 -0.00527069 -0.0726723 0.210716 -0.0363875 -0.069492 0.210077 -0.0114541 -0.0838034 
0.249318 -0.0286102 -0.0834026 0.210352 -0.0273632 -0.0619711 0.225589 -0.00807897 -0.046959 
0.232435 -0.0418219 -0.0534328 0.243503 -0.0351157 -0.0483044 0.230396 -0.0176543 -0.0373181 
0.238971 -0.0055175 -0.0582329 0.215233 -0.00806608 -0.0367787 0.23046 -0.0167272 -0.0568145 
0.249582 -0.0350093 -0.0372255 0.233368 -0.0247631 -0.049414 0.218724 -0.0231419 -0.0441482 
0.247613 -0.00921427 -0.0506485 0.246377 -0.0167903 -0.041015 0.21287 -0.0393291 -0.0419886 
0.247777 -0.0447024 -0.0584869 0.213608 -0.0068407 -0.0497472 0.248204 -0.0271035 -0.0599831 
0.239176 -0.0418961 -0.036349 0.223697 -0.0431208 -0.0472881 0.227848 -0.0332376 -0.0374145 
0.212346 -0.044974 -0.0587302 0.241305 -0.0177234 -0.0294699 0.244548 -0.0379417 -0.0210482 
0.234661 -0.00816826 -0.020845 0.229919 -0.0193797 -0.0167422 0.211536 -0.0338126 -0.0159779 
0.214349 -0.0200955 -0.0313789 0.221157 -0.0143995 -0.0155854 0.231213 -0.005288 -0.0349844 
0.243328 -0.0197809 -0.0174569 0.233298 -0.0298872 -0.0262085 0.212884 -0.00707634 -0.0256532 
0.226422 -0.0333351 -0.0182865 0.213564 -0.0209664 -0.0155552 0.241571 -0.0288258 -0.0347303 
0.227267 -0.0434518 -0.0271918 0.240382 -0.00722492 -0.0299735 0.248431 -0.00814176 -0.0221435 
0.234241 -0.0426811 -0.0155068 0.210085 -0.0426107 -0.0298413 0.223465 -0.0166149 -0.0261386 

VERTICES 480 960
1 0 
1 1 
1 2 
1 3 
1 4 
1 5 
1 6 
1 7 
1 8 
1 9 
1 10 
1 11 
1 12 
1 13 
1 14 
1 15 
1 16 
1 17 
1 18 
1 19 
1 20 
1 21 
1 22 
1 23 
1 24 
1 25 
1 26 
1 27 
1 28 
1 29 
1 30 
1 31 
1 32 
1 33 
1 34 
1 35 
1 36 
1 37 
1 38 
1 39 
1 40 
1 41 
1 42 
1 43 
1 44 
1 45 
1 46 
1 47 
1 48 
1 49 
1 50 
1 51 
1 52 
1 53 
1 54 
1 55 
1 56 
1 57 
1 58 
1 59 
1 60 
1 61 
1 62 
1 63 
1 64 
1 65 
1 66 
1 67 
1 68 
1 69 
1 70 
1 71 
1 72 
1 73 
1 74 
1 75 
1 76 
1 77 
1 78 
1 79 
1 80 
1 81 
1 82 
1 83 
1 84 
1 85 
1 86 
1 87 
1 88 
1 89 
1 90 
1 91 
1 92 
1 93 
1 94 
1 95 
1 96 
1 97 
1 98 
1 99 
1 100 
1 101 
1 102 
1 103 
1 104 
1 105 
1 106 
1 107 
1 108 
1 109 
1 110 
1 111 
1 112 
1 113 
1 114 
1 115 
1 116 
1 117 
1 118 
1 119 
1 120 
1 121 
1 122 
1 123 
1 124 
1 125 
1 126 
1 127 
1 128 
1 129 
1 130 
1 131 
1 132 
1 133 
1 134 
1 135 
1 136 
1 137 
1 138 
1 139 
1 140 
1 141 
1 142 
1 143 
1 144 
1 145 
1 146 
1 147 
1 148 
1 149 
1 150 
1 151 
1 152 
1 153 
1 154 
1 155 
1 156 
1 157 
1 158 
1 159 
1 160 
1 161 
1 162 
1 163 
1 164 
1 165 
1 166 
1 167 
1 168 
1 169 
1 170 
1 171 
1 172 
1 173 
1 174 
1 175 
1 176 
1 177 
1 178 
1 179 
1 180 
1 181 
1 182 
1 183 
1 184 
1 185 
1 186 
1 187 
1 188 
1 189 
1 190 
1 191 
1 192 
1 193 
1 194 
1 195 
1 196 
1 197 
1 198 
1 199 
1 200 
1 201 
1 202 
1 203 
1 204 
1 205 
1 206 
1 207 
1 208 
1 209 
1 210 
1 211 
1 212 
1 213 
1 214 
1 215 
1 216 
1 217 
1 218 
1 219 
1 220 
1 221 
1 222 
1 223 
1 224 
1 225 
1 226 
1 227 
1 228 
1 229 
1 230 
1 231 
1 232 
1 233 
1 234 
1 235 
1 236 
1 237 
1 238 
1 239 
1 240 
1 241 
1 242 
1 243 
1 244 
1 245 
1 246 
1 247 
1 248 
1 249 
1 250 
1 251 
1 252 
1 253 
1 254 
1 255 
1 256 
1 257 
1 258 
1 259 
1 260 
1 261 
1 262 
1 263 
1 264 
1 265 
1 266 
1 267 
1 268 
1 269 
1 270 
1 271 
1 272 
1 273 
1 274 
1 275 
1 276 
1 277 
1 278 
1 279 
1 280 
1 281 
1 282 
1 283 
1 284 
1 285 
1 286 
1 287 
1 288 
1 289 
1 290 
1 291 
1 292 
1 293 
1 294 
1 295 
1 296 
1 297 
1 298 
1 299 
1 300 
1 301 
1 302 
1 303 
1 304 
1 305 
1 306 
1 307 
1 308 
1 309 
1 310 
1 311 
1 312 
1 313 
1 314 
1 315 
1 316 
1 317 
1 318 
1 319 
1 320 
1 321 
1 322 
1 323 
1 324 
1 325 
1 326 
1 327 
1 328 
1 329 
1 330 
1 331 
1 332 
1 333 
1 334 
1 335 
1 336 
1 337 
1 338 
1 339 
1 340 
1 341 
1 342 
1 343 
1 344 
1 345 
1 346 
1 347 
1 348 
1 349 
1 350 
1 351 
1 352 
1 353 
1 354 
1 355 
1 356 
1 357 
1 358 
1 359 
1 360 
1 361 
1 362 
1 363 
1 364 
1 365 
1 366 
1 367 
1 368 
1 369 
1 370 
1 371 
1 372 
1 373 
1 374 
1 375 
1 376 
1 377 
1 378 
1 379 
1 380 
1 381 
1 382 
1 383 
1 384 
1 385 
1 386 
1 387 
1 388 
1 389 
1 390 
1 391 
1 392 
1 393 
1 394 
1 395 
1 396 
1 397 
1 398 
1 399 
1 400 
1 401 
1 402 
1 403 
1 404 
1 405 
1 406 
1 407 
1 408 
1 409 
1 410 
1 411 
1 412 
1 413 
1 414 
1 415 
1 416 
1 417 
1 418 
1 419 
1 420 
1 421 
1 422 
1 423 
1 424 
1 425 
1 426 
1 427 
1 428 
1 429 
1 430 
1 431 
1 432 
1 433 
1 434 
1 435 
1 436 
1 437 
1 438 
1 439 
1 440 
1 441 
1 442 
1 443 
1 444 
1 445 
1 446 
1 447 
1 448 
1 449 
1 450 
1 451 
1 452 
1 453 
1 454 
1 455 
1 456 
1 457 
1 458 
1 459 
1 460 
1 461 
1 462 
1 463 
1 464 
1 465 
1 466 
1 467 
1 468 
1 469 
1 470 
1 471 
1 472 
1 473 
1 474 
1 475 
1 476 
1 477 
1 478 
1 479 

POINT_DATA 480
FIELD FieldData 7
id 1 480 int
1 2 3 4 5 6 7 8 9 
10 11 12 13 14 15 16 17 18 
19 20 21 22 23 24 25 26 27 
28 29 30 31 32 33 34 35 36 
37 38 39 40 41 42 43 44 45 
46 47 48 49 50 51 52 53 54 
55 56 57 58 59 60 61 62 63 
64 65 66 67 68 69 70 71 72 
73 74 75 76 77 78 79 80 81 
82 83 84 85 86 87 88 89 90 
91 92 93 94 95 96 97 98 99 
100 101 102 103 104 105 106 107 108 
109 110 111 112 113 114 115 116 117 
118 119 120 121 122 123 124 125 126 
127 128 129 130 131 132 133 134 135 
136 137 138 139 140 141 142 143 144 
145 146 147 148 149 150 151 152 153 
154 155 156 157 158 159 160 161 162 
163 164 165 166 167 168 169 170 171 
172 173 174 175 176 177 178 179 180 
181 182 183 184 185 186 187 188 189 
190 191 192 193 194 195 196 197 198 
199 200 201 202 203 204 205 206 207 
208 209 210 211 212 213 214 215 216 
217 218 219 220 221 222 223 224 225 
226 227 228 229 230 231 232 233 234 
235 236 237 238 239 240 241 242 243 
244 245 246 247 248 249 250 251 252 
253 254 255 256 257 258 259 260 261 
262 263 264 265 266 267 268 269 270 
271 272 273 274 275 276 277 278 279 
280 281 282 283 284 285 286 287 288 
289 290 291 292 293 294 295 296 297 
298 299 300 301 302 303 304 305 306 
307 308 309 310 311 312 313 314 315 
316 317 318 319 320 321 322 323 324 
325 326 327 328 329 330 331 332 333 
334 335 336 337 338 339 340 341 342 
343 344 345 346 347 348 349 350 351 
352 353 354 355 356 357 358 359 360 
361 362 363 364 365 366 367 368 369 
370 371 372 373 374 375 376 377 378 
379 380 381 382 383 384 385 386 387 
388 389 390 391 392 393 394 395 396 
397 398 399 400 401 402 403 404 405 
406 407 408 409 410 411 412 413 414 
415 416 417 418 419 420 421 422 423 
424 425 426 427 428 429 430 431 432 
433 434 435 436 437 438 439 440 441 
442 443 444 445 446 447 448 449 450 
451 452 453 454 455 456 457 458 459 
460 461 462 463 464 465 466 467 468 
469 470 471 472 473 474 475 476 477 
478 479 480 
type 1 480 int
1 1 1 1 1 1 1 1 1 
1 1 1 1 1 1 1 1 1 
1 1 1 1 1 1 1 1 1 
1 1 1 1 1 1 1 1 1 
1 1 1 1 1 1 1 1 1 
1 1 1 1 1 1 1 1 1 
1 1 1 1 1 1 1 1 1 
1 1 1 1 1 1 1 1 1 
1 1 1 1 1 1 1 1 1 
1 1 1 1 1 1 1 1 1 
1 1 1 1 1 1 1 1 1 
1 1 1 1 1 1 1 1 1 
1 1 1 1 1 1 1 1 1 
1 1 1 1 1 1 1 1 1 
1 1 1 1 1 1 1 1 1 
1 1 1 1 1 1 1 1 1 
1 1 1 1 1 1 1 1 1 
1 1 1 1 1 1 1 1 1 
1 1 1 1 1 1 1 1 1 
1 1 1 1 1 1 1 1 1 
1 1 1 1 1 1 1 1 1 
1 1 1 1 1 1 1 1 1 
1 1 1 1 1 1 1 1 1 
1 1 1 1 1 1 1 1 1 
1 1 1 1 1 1 1 1 1 
1 1 1 1 1 1 1 1 1 
1 1 1 1 1 1 1 1 1 
1 1 1 1 1 1 1 1 1 
1 1 1 1 1 1 1 1 1 
1 1 1 1 1 1 1 1 1 
1 1 1 1 1 1 1 1 1 
1 1 1 1 1 1 1 1 1 
1 1 1 1 1 1 1 1 1 
1 1 1 1 1 1 1 1 1 
1 1 1 1 1 1 1 1 1 
1 1 1 1 1 1 1 1 1 
1 1 1 1 1 1 1 1 1 
1 1 1 1 1 1 1 1 1 
1 1 1 1 1 1 1 1 1 
1 1 1 1 1 1 1 1 1 
1 1 1 1 1 1 1 1 1 
1 1 1 1 1 1 1 1 1 
1 1 1 1 1 1 1 1 1 
1 1 1 1 1 1 1 1 1 
1 1 1 1 1 1 1 1 1 
1 1 1 1 1 1 1 1 1 
1 1 1 1 1 1 1 1 1 
1 1 1 1 1 1 1 1 1 
1 1 1 1 1 1 1 1 1 
1 1 1 1 1 1 1 1 1 
1 1 1 1 1 1 1 1 1 
1 1 1 1 1 1 1 1 1 
1 1 1 1 1 1 1 1 1 
1 1 1 
i 3 480 int
0 0 0 0 0 0 0 0 0 
0 0 0 0 0 0 0 0 0 
0 0 0 0 0 0 0 0 0 
0 0 0 0 0 0 0 0 0 
0 0 0 0 0 0 0 0 0 
0 0 0 0 0 0 0 0 0 
0 0 0 0 0 0 0 0 0 
0 0 0 0 0 0 0 0 0 
0 0 0 0 0 0 0 0 0 
0 0 0 0 0 0 0 0 0 
0 0 0 0 0 0 0 0 0 
0 0 0 0 0 0 0 0 0 
0 0 0 0 0 0 0 0 0 
0 0 0 0 0 0 0 0 0 
0 0 0 0 0 0 0 0 0 
0 0 0 0 0 0 0 0 0 
0 0 0 0 0 0 0 0 0 
0 0 0 0 0 0 0 0 0 
0 0 0 0 0 0 0 0 0 
0 0 0 0 0 0 0 0 0 
0 0 0 0 0 0 0 0 0 
0 0 0 0 0 0 0 0 0 
0 0 0 0 0 0 0 0 0 
0 0 0 0 0 0 0 0 0 
0 0 0 0 0 0 0 0 0 
0 0 0 0 0 0 0 0 0 
0 0 0 0 0 0 0 0 0 
0 0 0 0 0 0 0 0 0 
0 0 0 0 0 0 0 0 0 
0 0 0 0 0 0 0 0 0 
0 0 0 0 0 0 0 0 0 
0 0 0 0 0 0 0 0 0 
0 0 0 0 0 0 0 0 0 
0 0 0 0 0 0 0 0 0 
0 0 0 0 0 0 0 0 0 
0 0 0 0 0 0 0 0 0 
0 0 0 0 0 0 0 0 0 
0 0 0 0 0 0 0 0 0 
0 0 0 0 0 0 0 0 0 
0 0 0 0 0 0 0 0 0 
0 0 0 0 0 0 0 0 0 
0 0 0 0 0 0 0 0 0 
0 0 0 0 0 0 0 0 0 
0 0 0 0 0 0 0 0 0 
0 0 0 0 0 0 0 0 0 
0 0 0 0 0 0 0 0 0 
0 0 0 0 0 0 0 0 0 
0 0 0 0 0 0 0 0 0 
0 0 0 0 0 0 0 0 0 
0 0 0 0 0 0 0 0 0 
0 0 0 0 0 0 0 0 0 
0 0 0 0 0 0 0 0 0 
0 0 0 0 0 0 0 0 0 
0 0 0 0 0 0 0 0 0 
0 0 0 0 0 0 0 0 0 
0 0 0 0 0 0 0 0 0 
0 0 0 0 0 0 0 0 0 
0 0 0 0 0 0 0 0 0 
0 0 0 0 0 0 0 0 0 
0 0 0 0 0 0 0 0 0 
0 0 0 0 0 0 0 0 0 
0 0 0 0 0 0 0 0 0 
0 0 0 0 0 0 0 0 0 
0 0 0 0 0 0 0 0 0 
0 0 0 0 0 0 0 0 0 
0 0 0 0 0 0 0 0 0 
0 0 0 0 0 0 0 0 0 
0 0 0 0 0 0 0 0 0 
0 0 0 0 0 0 0 0 0 
0 0 0 0 0 0 0 0 0 
0 0 0 0 0 0 0 0 0 
0 0 0 0 0 0 0 0 0 
0 0 0 0 0 0 0 0 0 
0 0 0 0 0 0 0 0 0 
0 0 0 0 0 0 0 0 0 
0 0 0 0 0 0 0 0 0 
0 0 0 0 0 0 0 0 0 
0 0 0 0 0 0 0 0 0 
0 0 0 0 0 0 0 0 0 
0 0 0 0 0 0 0 0 0 
0 0 0 0 0 0 0 0 0 
0 0 0 0 0 0 0 0 0 
0 0 0 0 0 0 0 0 0 
0 0 0 0 0 0 0 0 0 
0 0 0 0 0 0 0 0 0 
0 0 0 0 0 0 0 0 0 
0 0 0 0 0 0 0 0 0 
0 0 0 0 0 0 0 0 0 
0 0 0 0 0 0 0 0 0 
0 0 0 0 0 0 0 0 0 
0 0 0 0 0 0 0 0 0 
0 0 0 0 0 0 0 0 0 
0 0 0 0 0 0 0 0 0 
0 0 0 0 0 0 0 0 0 
0 0 0 0 0 0 0 0 0 
0 0 0 0 0 0 0 0 0 
0 0 0 0 0 0 0 0 0 
0 0 0 0 0 0 0 0 0 
0 0 0 0 0 0 0 0 0 
0 0 0 0 0 0 0 0 0 
0 0 0 0 0 0 0 0 0 
0 0 0 0 0 0 0 0 0 
0 0 0 0 0 0 0 0 0 
0 0 0 0 0 0 0 0 0 
0 0 0 0 0 0 0 0 0 
0 0 0 0 0 0 0 0 0 
0 0 0 0 0 0 0 0 0 
0 0 0 0 0 0 0 0 0 
0 0 0 0 0 0 0 0 0 
0 0 0 0 0 0 0 0 0 
0 0 0 0 0 0 0 0 0 
0 0 0 0 0 0 0 0 0 
0 0 0 0 0 0 0 0 0 
0 0 0 0 0 0 0 0 0 
0 0 0 0 0 0 0 0 0 
0 0 0 0 0 0 0 0 0 
0 0 0 0 0 0 0 0 0 
0 0 0 0 0 0 0 0 0 
0 0 0 0 0 0 0 0 0 
0 0 0 0 0 0 0 0 0 
0 0 0 0 0 0 0 0 0 
0 0 0 0 0 0 0 0 0 
0 0 0 0 0 0 0 0 0 
0 0 0 0 0 0 0 0 0 
0 0 0 0 0 0 0 0 0 
0 0 0 0 0 0 0 0 0 
0 0 0 0 0 0 0 0 0 
0 0 0 0 0 0 0 0 0 
0 0 0 0 0 0 0 0 0 
0 0 0 0 0 0 0 0 0 
0 0 0 0 0 0 0 0 0 
0 0 0 0 0 0 0 0 0 
0 0 0 0 0 0 0 0 0 
0 0 0 0 0 0 0 0 0 
0 0 0 0 0 0 0 0 0 
0 0 0 0 0 0 0 0 0 
0 0 0 0 0 0 0 0 0 
0 0 0 0 0 0 0 0 0 
0 0 0 0 0 0 0 0 0 
0 0 0 0 0 0 0 0 0 
0 0 0 0 0 0 0 0 0 
0 0 0 0 0 0 0 0 0 
0 0 0 0 0 0 0 0 0 
0 0 0 0 0 0 0 0 0 
0 0 0 0 0 0 0 0 0 
0 0 0 0 0 0 0 0 0 
0 0 0 0 0 0 0 0 0 
0 0 0 0 0 0 0 0 0 
0 0 0 0 0 0 0 0 0 
0 0 0 0 0 0 0 0 0 
0 0 0 0 0 0 0 0 0 
0 0 0 0 0 0 0 0 0 
0 0 0 0 0 0 0 0 0 
0 0 0 0 0 0 0 0 0 
0 0 0 0 0 0 0 0 0 
0 0 0 0 0 0 0 0 0 
0 0 0 0 0 0 0 0 0 
0 0 0 0 0 0 0 0 0 
0 0 0 0 0 0 0 0 0 
0 0 0 0 0 0 0 0 0 

v 3 480 double
0.611477 -0.26032 -3.3253 -0.37731 0.0458426 3.03269 0.146594 0.0931717 3.08707 
0.1158 -0.145506 -4.38575 -0.472737 -0.102496 -4.50678 0.0377151 -0.137888 -3.67863 
-0.0176441 -0.0953633 -3.88144 -0.355462 0.031393 3.00641 -0.187731 0.0172905 2.8553 
-0.147561 0.0820167 2.90631 0.29695 0.080429 2.95446 0.238564 -0.143743 -4.32093 
0.525271 -0.926362 -0.576107 0.247508 -0.13397 3.01686 -0.341783 0.060187 2.94877 
0.463496 -0.0926285 -0.882689 0.544108 0.104902 -4.48019 -0.0166252 -0.122534 -4.29025 
-0.00615436 0.0626503 -2.51782 0.137489 -0.00264212 -4.36978 -0.127049 0.196829 -3.46687 
0.629681 -0.125922 -3.85308 0.280483 0.122764 -4.53747 -0.658803 -2.91232 -0.971526 
-0.0596656 0.146908 0.0220464 0.210034 0.0259608 -4.34607 0.257869 0.0613439 -4.3738 
0.444193 -0.00202785 -3.96874 0.455508 0.0704324 -4.33067 0.274553 0.0292235 -0.0837835 
0.0717043 -0.110449 3.19811 0.556639 -0.0505894 -4.39492 0.397093 -0.534946 0.165578 
-0.1518 -0.128588 -4.46725 0.29877 0.0463464 0.0420737 0.791053 0.015936 -1.45359 
0.207079 -0.0412376 -3.894 -0.225774 -0.0173358 3.12784 0.0894149 -0.225758 -4.26595 
0.051053 0.0763562 3.16043 0.0157458 -0.0431942 -0.108469 -0.128089 0.155398 -4.47286 
-0.0993104 0.10986 -3.65792 0.377847 -0.0106309 -4.11766 -0.287782 0.0595503 -4.16422 
0.284249 0.192088 -3.35027 -0.103295 0.108927 -3.5053 0.0522474 0.0767093 -4.23593 
0.475728 0.0551841 -3.57776 0.173658 0.0642482 -3.88422 0.72984 0.0507029 -4.03652 
0.10979 0.1065 -4.04982 0.346417 0.214375 -4.04653 0.0990213 -0.136146 -3.46866 
0.0178371 0.193664 -4.30324 0.20939 0.110352 -4.31616 0.234881 -0.0808525 0.030651 
-0.341209 -0.0942536 -4.55047 -0.0400674 -0.10393 -3.87185 0.0847484 0.0053118 -3.14983 
0.213127 -0.0748996 -3.76726 0.41006 -0.00759949 -3.46102 0.302324 0.0289082 -3.8532 
0.959693 -0.00335481 -1.74835 -0.106281 -0.151717 -3.26639 0.405538 0.0912874 -3.59739 
0.0267792 -0.104427 -3.78492 0.308298 0.147808 -3.94039 0.388624 -0.137671 -4.35495 
-0.0992584 -0.126742 -3.59145 0.437274 0.134368 -3.16078 0.229016 -0.122581 -3.9201 
0.189571 -0.0267251 -3.25055 0.210281 0.30397 -3.64766 0.800107 -0.0475841 -3.75157 
0.177237 0.178926 -4.16427 0.256658 -0.0121267 -2.46926 0.615182 0.254778 -3.98979 
0.176207 -0.0477469 -3.89018 0.309094 0.195729 -3.69325 0.0649674 -0.150874 -3.80131 
-0.242193 -0.149766 -3.56128 0.444485 -0.177348 -2.02395 -0.0628408 0.0643416 -3.20865 
0.16383 0.258784 -0.352252 0.290539 -0.00972513 -3.00998 -0.0367516 -0.0491474 -3.42518 
1.05762 -0.338093 -1.37849 0.460504 0.00071318 -3.51381 0.222051 0.358649 -3.42575 
0.149924 0.115156 -3.32523 0.789598 -0.139956 -2.98846 0.20295 -0.0408803 -4.02062 
-0.123772 0.107474 -3.5326 -0.236887 0.19668 -3.532 0.291772 -0.0242495 -3.39705 
0.981577 0.226528 -1.88844 0.436219 0.0441015 -3.95087 -0.0144566 -0.0443051 0.106937 
0.582346 -0.0576323 -3.32674 0.349827 0.187445 -3.13455 0.0295392 0.0486211 -0.000333328 
-0.0274054 -0.0511138 -3.34243 0.484739 0.00351487 -3.15165 0.201213 -0.00849927 -2.87256 
-0.218912 0.170292 -3.54633 0.281929 0.123658 -3.39408 -0.179394 -0.124498 -3.76195 
0.304914 0.101055 -3.38224 0.378466 -0.0888227 -2.4828 0.218366 -0.180511 -2.74548 
0.138646 0.0976188 -3.35714 0.409284 -0.0661793 -3.68131 0.425116 0.196104 -3.04205 
-0.320059 0.290887 -3.26629 0.044912 0.0474999 -3.83704 0.0868754 0.109953 0.00416069 
0.463996 0.082422 -3.56545 0.48001 0.0381606 -3.12714 1.0327 0.0447735 -1.63787 
0.346117 -0.156005 -2.75267 0.682769 -0.144132 -1.99135 0.350219 0.0419535 -3.41849 
0.127144 0.235424 -2.07097 0.470903 0.000378274 -2.94357 1.02345 -0.0400991 -1.6792 
0.037751 0.516168 0.228112 0.45505 0.273267 -3.21968 0.355244 -0.0952644 -3.1185 
0.207833 -0.0841428 -3.28484 0.291264 -0.226068 -3.33331 0.612234 0.0479536 -3.24062 
0.310348 0.0496433 -2.78336 -0.084694 -0.0180083 -2.67089 0.549359 0.289049 -2.63847 
0.46914 -0.150011 -2.35529 0.276271 0.0258928 -3.46133 0.346822 -0.0917385 -3.22367 
0.612797 -0.10599 -3.44371 0.51572 -0.214666 -1.29885 0.367879 -0.00464704 -2.94043 
0.524747 -0.275322 -2.24237 0.488098 0.00721483 -3.24964 0.365962 0.152407 -2.9182 
0.708392 -0.0267968 -2.85535 0.200776 0.0114864 -3.1458 0.242015 -0.121553 -2.7679 
1.079 -0.0188336 -1.47055 0.269307 0.124853 -3.08715 0.401998 0.0157118 -2.71065 
0.187803 0.0936003 -2.67013 0.517421 -0.0936434 -2.47693 0.192515 -0.126673 -2.80624 
0.423249 -0.0754407 -2.87959 0.0808892 -0.165941 0.0122579 0.171711 -0.0334195 -3.21823 
0.0942783 -0.167168 -2.08356 0.475504 -0.0218533 -2.81388 0.434135 0.0875323 -3.49567 
0.390754 0.00235296 -2.83429 0.124821 0.196518 -2.81961 0.162482 -0.193117 -3.1404 
0.326103 0.222573 -2.63536 0.741888 -0.0455313 -1.96377 0.329177 0.208461 -2.86736 
0.172501 -0.232879 -2.09 0.402126 -0.0570823 -2.96152 0.423731 -0.0021919 -2.47299 
0.0989703 -0.187145 -2.67732 0.011099 0.0875899 -2.65092 0.281418 -0.0820101 -2.6793 
0.00534141 0.0785755 -2.78232 0.482668 0.273594 -0.193719 0.430853 -0.101015 -2.91698 
0.20729 0.0628995 -2.79944 0.446247 -0.389877 -2.57796 0.393649 -0.023606 -1.79952 
0.276999 0.0674184 -3.22181 0.239692 0.396899 -2.17118 0.313215 0.0700824 -3.04454 
0.652152 -0.0361007 -1.20471 0.41218 0.0283312 -2.42402 0.597047 0.377314 -3.08918 
0.117841 0.041935 -3.18727 0.108111 0.0285406 -2.40666 0.127771 0.0335574 -2.83359 
-0.196034 -0.0335 -2.81938 0.751328 0.0816425 -0.417564 0.377836 -0.134204 -2.79179 
0.093324 0.00883673 -2.3851 0.318849 -0.203167 -2.67847 0.470995 0.113431 -1.58038 
0.915566 -0.148624 -1.93346 -0.123857 0.0736937 -3.02588 0.189593 0.0436687 -0.783766 
0.265237 0.420071 -2.01278 0.533728 -0.0655092 -2.77241 0.565848 -0.196814 -2.18635 
-0.0568068 0.372569 -0.00334364 0.134999 0.0579529 -2.39454 0.150099 -0.153445 -2.19635 
0.348124 0.158153 -1.83586 0.185911 0.223183 -1.77484 0.799485 0.113976 -1.40978 
0.490709 -0.081633 -2.18519 0.412827 -0.265925 -2.16053 0.448705 0.0504399 -2.63207 
0.58266 0.208105 -2.32163 -0.098797 -0.165653 -1.95904 0.538616 0.0307227 -0.943296 
0.709625 0.167689 -1.23185 0.306275 0.0676626 -2.31235 1.33037 -0.0561246 -1.88517 