# vtk DataFile Version 4.0
Generated by LIGGGHTS
ASCII
DATASET POLYDATA
POINTS 500 float
0.465705 -0.0447838 -1.16923 0.481164 -0.0353417 -1.16085 0.013508 -0.0211929 -1.19498 
0.128322 -0.0332249 -1.1949 0.0909997 -0.0423855 -0.777548 0.0814119 -0.0118962 -1.1904 
0.0403079 -0.0383106 -1.03734 0.066162 -0.0202295 -0.745151 0.198705 -0.0333639 -0.754414 
0.489563 -0.00587172 -1.16492 0.415997 -0.00712813 -0.791309 0.479357 -0.0169513 -1.18639 
0.0379826 -0.0307403 -1.14606 0.429347 -0.0135072 -1.18135 0.0218647 -0.00869863 -0.776314 
0.454213 -0.0304276 -1.18611 0.0902554 -0.032282 -1.15196 0.494884 -0.0449735 -1.17738 
0.066945 -0.0447895 -1.18795 0.486749 -0.0163845 -1.17527 0.047057 -0.0387036 -1.189 
0.404779 -0.0265093 -1.17143 0.49498 -0.0450103 -1.19495 0.133727 -0.00713437 -1.1242 
0.343336 -0.0219716 -0.688564 0.438562 -0.0442444 -1.17173 0.494966 -0.0295343 -1.18607 
0.474462 -0.0450231 -1.19501 0.475875 -0.00884152 -1.14813 0.308724 -0.014087 -1.18822 
0.127499 -0.0181509 -1.19486 0.475998 -0.0450015 -1.17041 0.455198 -0.0264573 -1.16607 
0.486339 -0.023984 -1.1684 0.355823 -0.0396638 -0.490353 0.121229 -0.0408684 -1.1688 
0.453899 -0.00498074 -1.19502 0.025712 -0.0360828 -1.19473 0.180025 -0.0193118 -1.17761 
0.49498 -0.00502412 -1.18392 0.215206 -0.0177942 -0.245002 0.313601 -0.0225427 -0.928394 
0.104705 -0.0435579 -0.79427 0.463477 -0.0350841 -1.16829 0.190687 -0.0226514 -0.757163 
0.48447 -0.0349989 -1.195 0.061235 -0.024077 -1.07006 0.00730009 -0.0256306 -1.18347 
0.486145 -0.0449771 -1.18509 0.471085 -0.028695 -1.17638 0.443895 -0.00499243 -1.19489 
0.484863 -0.04504 -1.195 0.064334 -0.00630352 -1.18925 0.00680599 -0.040141 -1.17922 
0.0539382 -0.0110957 -1.17697 0.0695354 -0.0117291 -1.15759 0.279517 -0.0436299 -1.1911 
0.118158 -0.0272391 -0.726651 0.0664753 -0.0150753 -1.03562 0.030796 -0.0175129 -1.17099 
0.0476126 -0.026442 -1.19497 0.471803 -0.0354075 -1.19503 0.0152885 -0.0385156 -1.17031 
0.170988 -0.033963 -1.14213 0.164434 -0.0103393 -0.761936 0.467468 -0.0139449 -1.18775 
0.477758 -0.0435144 -1.14621 0.491293 -0.0357735 -1.16025 0.464972 -0.00501842 -1.19256 
0.0100612 -0.0301851 -1.16619 0.494695 -0.0350309 -1.195 0.495018 -0.0154502 -1.18087 
0.203366 -0.0277587 -1.18951 0.0549132 -0.0148849 -1.19499 0.0985781 -0.0447804 -1.19144 
0.241038 -0.0137686 -1.17738 0.116776 -0.0051405 -1.14003 0.494419 -0.0114315 -1.15493 
0.453588 -0.0375468 -1.17802 0.494439 -0.0442126 -1.16737 0.0468912 -0.018741 -1.09809 
0.10096 -0.0354898 -1.1856 0.47863 -0.0153518 -1.16912 0.0153375 -0.0253677 -1.14402 
0.228781 -0.0358397 -0.245002 0.00885271 -0.0233839 -1.07328 0.0747157 -0.0381281 -1.18396 
0.434171 -0.0412717 -1.15971 0.475417 -0.0445025 -1.16037 0.0306982 -0.0127141 -1.18138 
0.184098 -0.0131124 -1.18841 0.436493 -0.00885866 -1.16834 0.0381971 -0.0186371 -1.15272 
0.0246215 -0.0263821 -1.18443 0.00676548 -0.0438992 -1.19364 0.0225861 -0.0144531 -1.19206 
0.34055 -0.00600703 -1.18919 0.259982 -0.00645967 -1.18052 0.343104 -0.0298305 -0.700413 
0.185501 -0.0450062 -1.19398 0.234937 -0.00832567 -1.19482 0.205405 -0.0448915 -0.245002 
0.0760574 -0.0194751 -1.18161 0.486716 -0.0157109 -1.16194 0.415317 -0.024355 -1.19388 
0.472455 -0.0140827 -1.10909 0.0634298 -0.0378363 -1.14857 0.0683944 -0.029237 -0.776922 
0.32346 -0.0293428 -1.19404 0.16182 -0.0362453 -1.19479 0.376179 -0.0223981 -1.1949 
0.224561 -0.033338 -1.19516 0.494851 -0.00503518 -1.19495 0.450234 -0.0151136 -1.19479 
0.113567 -0.0150594 -0.855615 0.122844 -0.0232033 -1.1618 0.270493 -0.0291241 -0.310138 
0.470186 -0.0049775 -1.18405 0.476737 -0.0450243 -1.18046 0.261539 -0.00800049 -1.16149 
0.453867 -0.0377841 -1.15207 0.49409 -0.0232254 -1.16106 0.47473 -0.00504999 -1.195 
0.479967 -0.00498594 -1.18619 0.484725 -0.00500526 -1.195 0.155317 -0.00852786 -1.19399 
0.205036 -0.0238238 -0.245002 0.487037 -0.0358453 -1.17137 0.494715 -0.0150336 -1.19485 
0.0576997 -0.0443988 -1.1837 0.19456 -0.00842344 -1.17369 0.495032 -0.0250461 -1.195 
0.195949 -0.00802413 -1.19505 0.0486775 -0.0441759 -1.12483 0.196239 -0.0144537 -1.18661 
0.461779 -0.0239076 -1.18643 0.0284423 -0.0229108 -1.0723 0.398102 -0.0052283 -1.17082 
0.485253 -0.00535556 -1.17728 0.396251 -0.0450899 -1.19289 0.471595 -0.023036 -1.18474 
0.48555 -0.02808 -1.17759 0.484395 -0.014996 -1.19498 0.475535 -0.024792 -1.16837 
0.485113 -0.0449275 -1.17507 0.454038 -0.0349794 -1.19501 0.0370966 -0.00475484 -1.19139 
0.213882 -0.0307069 -1.1946 0.474456 -0.0152183 -1.19495 0.367314 -0.0165477 -1.19454 
0.223339 -0.00736119 -1.19438 0.464342 -0.0438634 -1.19505 0.020184 -0.0365196 -1.186 
0.478273 -0.0212565 -1.17743 0.357272 -0.00513427 -0.541678 0.47515 -0.0259916 -1.195 
0.0876176 -0.0289981 -1.19356 0.494649 -0.00529008 -1.17363 0.0240643 -0.00499041 -1.19498 
0.485075 -0.0249726 -1.19498 0.0132401 -0.0363762 -1.19385 0.389557 -0.0123354 -1.19443 
0.153868 -0.0330489 -1.18967 0.0730653 -0.00499543 -1.19466 0.129301 -0.0425853 -1.18112 
0.472808 -0.0130254 -1.17879 0.0895314 -0.0435118 -1.18405 0.465287 -0.0417027 -1.15462 
0.0885075 -0.0159752 -1.14537 0.088532 -0.0242035 -1.17225 0.428167 -0.0165498 -1.19484 
0.0702818 -0.0169802 -1.19428 0.484361 -0.0443467 -1.16457 0.49491 -0.0349916 -1.17765 
0.200168 -0.0341212 -1.05552 0.0732974 -0.0314799 -1.17707 0.286419 -0.0111919 -1.19499 
0.495008 -0.0249314 -1.17699 0.104223 -0.0187705 -1.14167 0.173953 -0.0405725 -1.19114 
0.421581 -0.00477301 -1.18311 0.495033 -0.0402016 -1.18619 0.487635 -0.0113986 -1.1862 
0.00565287 -0.0148366 -1.19447 0.189106 -0.0339412 -1.19238 0.313892 -0.0229736 -1.18716 
0.0624254 -0.0216041 -1.15526 0.418469 -0.044932 -1.18582 0.494018 -0.0447592 -1.15689 
0.333658 -0.0437805 -1.08956 0.0561802 -0.0332164 -1.19386 0.444285 -0.0448444 -1.19486 
0.445724 -0.0154178 -1.18579 0.00862773 -0.00507046 -1.19495 0.372237 -0.0055281 -1.17147 
0.314551 -0.0393439 -1.1927 0.45733 -0.0431578 -1.16104 0.478163 -0.0387956 -1.18814 
0.205469 -0.0130117 -0.244154 0.494883 -0.0304147 -1.16797 0.276003 -0.00669696 -1.11725 
0.158921 -0.0343622 -1.16519 0.468534 -0.0450194 -1.18613 0.478927 -0.0355012 -1.17846 
0.461007 -0.037554 -1.1879 0.305907 -0.00521729 -1.1943 0.488499 -0.0217978 -1.18556 
0.486704 -0.0349857 -1.18472 0.0632665 -0.0243374 -1.18559 0.2227 -0.018506 -1.17194 
0.380648 -0.00499165 -1.19487 0.430186 -0.0391513 -1.18608 0.200321 -0.0370978 -1.18589 
0.295012 -0.00586485 -1.19295 0.466443 -0.0211232 -1.19493 0.360106 -0.0178137 -1.17027 
0.454325 -0.0449679 -1.19491 0.433215 -0.00504657 -1.19492 0.142808 -0.0139472 -1.18739 
0.296161 -0.0331031 -1.18773 0.494641 -0.0047276 -1.13573 0.220134 -0.0444398 -0.244804 
0.469347 -0.0385627 -1.17653 0.301099 -0.0165557 -1.15732 0.254413 -0.00919676 -1.1715 
0.304955 -0.00683712 -1.16724 0.446435 -0.00516751 -1.18404 0.365539 -0.00526567 -1.19252 
0.446988 -0.0378203 -1.18592 0.111237 -0.032284 -1.17779 0.18922 -0.019115 -1.19459 
0.164916 -0.0363206 -1.07281 0.0402207 -0.0167579 -1.19447 0.0926308 -0.00876406 -1.19074 
0.212011 -0.0176952 -1.19341 0.494963 -0.0157957 -1.16955 0.47495 -0.0346977 -1.16908 
0.167151 -0.0169211 -1.19354 0.06742 -0.0335545 -1.19506 0.303807 -0.0332722 -1.17774 
0.136869 -0.00942303 -1.19499 0.371211 -0.0212045 -1.18496 0.454369 -0.0448748 -1.17128 
0.207499 -0.0216972 -1.18056 0.469788 -0.030512 -1.16093 0.30631 -0.00572456 -1.17958 
0.480357 -0.0275147 -1.18655 0.0334093 -0.026073 -1.1931 0.232021 -0.0418144 -1.18513 
0.460085 -0.0133997 -1.19502 0.23889 -0.00535357 -0.254791 0.24788 -0.0343378 -1.19355 
0.317138 -0.00533853 -1.19253 0.454635 -0.0105868 -1.1868 0.46457 -0.0240789 -1.16846 
0.445456 -0.0419345 -1.16193 0.490464 -0.0418077 -1.14303 0.32712 -0.00963597 -1.19395 
0.446987 -0.0254018 -1.195 0.225052 -0.0258247 -0.245002 0.328498 -0.0204271 -1.19455 
0.312948 -0.0449968 -1.17378 0.185508 -0.0245208 -1.0903 0.253084 -0.00644477 -1.19487 
0.161509 -0.0153759 -1.18524 0.462001 -0.0318833 -1.17919 0.286098 -0.0366565 -0.337166 
0.44124 -0.0355423 -1.17767 0.480746 -0.0247117 -1.15963 0.373704 -0.00766103 -1.18755 
0.460696 -0.00506757 -1.18093 0.331202 -0.0221738 -1.1849 0.26891 -0.00647671 -1.19258 
0.41822 -0.0336178 -1.19145 0.453958 -0.044884 -1.18488 0.407331 -0.0439988 -1.19468 
0.402076 -0.0184705 -1.19422 0.0763374 -0.0411797 -1.12682 0.463094 -0.0305786 -1.195 
0.411544 -0.0149963 -1.19471 0.438617 -0.0443398 -1.1845 0.475682 -0.00803123 -1.16272 
0.326486 -0.0297476 -1.17182 0.20774 -0.0348047 -1.16802 0.346898 -0.00509833 -1.04921 
0.468844 -0.0181013 -1.13219 0.44359 -0.0348316 -1.19494 0.463135 -0.0156931 -1.17808 
0.222172 -0.0432767 -1.17887 0.456638 -0.0228684 -1.19487 0.173097 -0.0221366 -1.18612 
0.299384 -0.0427127 -1.19258 0.469806 -0.0329426 -1.18541 0.190326 -0.0219436 -1.18325 
0.384873 -0.0307815 -1.19017 0.425818 -0.0261985 -1.19408 0.210105 -0.0432497 -1.19244 
0.393126 -0.00488671 -1.18687 0.48085 -0.0106393 -1.13489 0.161849 -0.0177355 -0.958746 
0.234907 -0.0148163 -1.18717 0.13767 -0.0182303 -1.14283 0.437 -0.025937 -1.1943 
0.442959 -0.0248126 -1.1702 0.321277 -0.0209232 -1.1802 0.408029 -0.0333182 -1.19499 
0.340647 -0.00553336 -1.17892 0.437289 -0.032047 -1.18598 0.453035 -0.0274179 -1.17599 
0.431379 -0.0451383 -1.19498 0.475588 -0.00502909 -1.17327 0.292827 -0.00797819 -0.348833 
0.41799 -0.03205 -1.18042 0.458995 -0.00819485 -1.16866 0.282737 -0.0078023 -1.1835 
0.318908 -0.0157412 -1.19441 0.360686 -0.0449549 -1.18148 0.435268 -0.0195544 -1.18683 
0.461675 -0.0449455 -1.17845 0.305722 -0.0225454 -1.16988 0.437208 -0.00944291 -1.18668 
0.238208 -0.0317111 -1.195 0.207361 -0.00727785 -1.19272 0.225323 -0.0120528 -1.18566 
0.434403 -0.0253263 -1.17867 0.3884 -0.0264738 -1.17645 0.388452 -0.0126782 -0.630839 
0.275283 -0.0142161 -1.16831 0.438854 -0.0147953 -1.19497 0.394132 -0.0331278 -1.19415 
0.387255 -0.0113006 -0.868038 0.392956 -0.0223678 -1.19127 0.423243 -0.00680696 -1.19422 
0.205969 -0.0114496 -1.15885 0.223833 -0.0175692 -1.14864 0.350316 -0.0437075 -1.17664 
0.487953 -0.0252329 -1.12912 0.381064 -0.0421217 -1.19497 0.350195 -0.00929422 -1.19048 
0.334306 -0.0210553 -1.16907 0.246483 -0.011089 -1.18781 0.225419 -0.0221204 -1.19453 
0.446428 -0.044863 -1.17833 0.433291 -0.0352556 -1.19479 0.280282 -0.0229574 -1.16856 
0.214395 -0.00502341 -0.245002 0.292243 -0.0110842 -1.18076 0.369863 -0.00710185 -0.955306 
0.454195 -0.0171788 -1.1715 0.334201 -0.0440074 -1.18906 0.331697 -0.0136471 -1.17556 
0.347813 -0.022846 -1.17836 0.213021 -0.0312225 -1.18275 0.399682 -0.0122705 -1.18494 
0.414931 -0.0123326 -1.18415 0.359748 -0.00677714 -1.16998 0.251962 -0.0438235 -0.278031 
0.445441 -0.0267838 -1.18284 0.254693 -0.0201979 -1.18969 0.421735 -0.0431633 -1.19492 
0.329633 -0.00543777 -1.18285 0.399838 -0.0439802 -1.17942 0.468348 -0.0140564 -1.16842 
0.443797 -0.0144181 -1.16212 0.291253 -0.0189076 -1.16447 0.397443 -0.019755 -1.17768 
0.409711 -0.0372472 -1.18299 0.399319 -0.0328572 -1.18556 0.390312 -0.0358004 -1.18073 
0.434606 -0.0053093 -1.17783 0.401838 -0.0303259 -1.16265 0.373377 -0.0335761 -1.18603 
0.355194 -0.0200638 -1.19505 0.319562 -0.0122235 -1.17548 0.43001 -0.0448821 -1.17678 
0.246862 -0.0275821 -1.14844 0.451644 -0.00579504 -1.1751 0.384129 -0.0446726 -1.18471 
0.40764 -0.0262437 -1.1855 0.362165 -0.00881046 -1.13932 0.327983 -0.0326613 -1.18172 
0.378432 -0.0366752 -1.17541 0.349936 -0.0114512 -1.17823 0.420302 -0.041616 -1.17556 
0.284323 -0.0228517 -1.18985 0.318007 -0.0113066 -1.14471 0.40788 -0.0448204 -1.1736 
0.320794 -0.0426934 -1.15201 0.259112 -0.00674943 -0.28995 0.380328 -0.0445089 -1.16109 
0.434977 -0.0260588 -1.1639 0.365411 -0.0414388 -1.1938 0.381799 -0.0279001 -1.14849 
0.353904 -0.037371 -1.1929 0.454223 -0.0188778 -1.18123 0.412339 -0.00510319 -1.19144 
0.336122 -0.0146595 -1.19166 0.48486 -0.0295347 -1.15137 0.358162 -0.012713 -1.18531 
0.205287 -0.0343052 -0.245002 0.458896 -0.0246104 -1.156 0.421652 -0.0201752 -1.18434 
0.45699 -0.0157373 -1.14966 0.44301 -0.0322102 -1.15471 0.287407 -0.0443964 -1.1774 
0.450831 -0.0352895 -1.16798 0.251313 -0.00929954 -1.14951 0.297855 -0.0165872 -1.18847 
0.390457 -0.0384899 -0.732643 0.28566 -0.0330863 -1.16686 0.329186 -0.0150663 -0.730534 
0.364193 -0.00599672 -1.18107 0.388737 -0.0147561 -1.18213 0.450219 -0.0262414 -1.14932 
0.398403 -0.0396564 -1.15905 0.470894 -0.0225328 -1.14217 0.357334 -0.031535 -1.1769 
0.421148 -0.0411275 -1.16451 0.326517 -0.0415949 -0.407661 0.386005 -0.0349628 -0.967798 
0.286575 -0.0283744 -1.17866 0.410966 -0.0250129 -1.14657 0.44775 -0.00544102 -1.15395 
0.346084 -0.0175269 -1.1868 0.432636 -0.0433973 -1.15159 0.485173 -0.0409039 -1.15308 
0.314974 -0.0300212 -1.17876 0.416992 -0.0333997 -1.17088 0.344667 -0.0308275 -0.514487 
0.373149 -0.0448072 -1.18415 0.420503 -0.0421971 -1.08873 0.407389 -0.0187128 -1.17699 
0.422411 -0.0301079 -1.13243 0.489129 -0.0106249 -1.11298 0.37242 -0.024405 -1.1768 
0.370065 -0.044533 -1.16993 0.26401 -0.0389203 -0.296392 0.250421 -0.00497441 -0.264271 
0.44139 -0.0171367 -1.17656 0.379567 -0.0305863 -0.949499 0.355668 -0.0251991 -1.11102 
0.441806 -0.0409562 -1.14803 0.426118 -0.0292065 -1.17465 0.412758 -0.00487845 -1.17829 
0.381201 -0.0245538 -1.18299 0.300647 -0.00952453 -0.362366 0.35018 -0.0305004 -1.18509 
0.404617 -0.00439932 -1.16174 0.366917 -0.0318829 -1.17591 0.356117 -0.0289321 -1.15135 
0.463559 -0.0104628 -1.15641 0.416783 -0.020983 -1.17452 0.360204 -0.00722969 -0.741698 
0.350247 -0.0361672 -1.17017 0.389443 -0.0259523 -0.670311 0.423845 -0.0050126 -1.17345 
0.373074 -0.0144122 -1.17487 0.403947 -0.0153163 -0.879032 0.408394 -0.0394643 -1.07324 
0.392663 -0.0316557 -0.657438 0.422561 -0.0188301 -1.16321 0.388987 -0.0448931 -1.15124 
0.261183 -0.0409172 -1.0159 0.343335 -0.0279872 -1.05294 0.215088 -0.0296245 -0.244071 
0.349575 -0.0236222 -0.60731 0.353314 -0.0180452 -0.716586 0.435959 -0.00992388 -0.934022 
0.250503 -0.0281584 -1.07209 0.424697 -0.0194938 -1.02705 0.225603 -0.00973803 -0.242761 
0.347801 -0.0181173 -1.01533 0.351941 -0.00611903 -0.472833 0.399983 -0.0392031 -1.14587 
0.395973 -0.0383222 -1.12444 0.413858 -0.0104369 -1.167 0.344099 -0.034282 -1.1418 
0.400833 -0.00527845 -1.02706 0.242009 -0.0283113 -0.258659 0.359907 -0.0355913 -0.690126 
0.375431 -0.0395481 -0.549825 0.291941 -0.0308701 -1.02522 0.361356 -0.0296003 -0.670614 
0.34875 -0.0246944 -0.617661 0.394641 -0.0123814 -1.01799 0.300753 -0.0355158 -0.877278 
0.317033 -0.0236896 -1.16606 0.29696 -0.0171675 -0.851564 0.383862 -0.0128483 -0.594737 
0.40285 -0.0371931 -0.896369 0.3272 -0.0114374 -0.416984 0.330697 -0.0391035 -1.02213 
0.359694 -0.021306 -0.500194 0.318009 -0.0252111 -0.802465 0.279935 -0.044393 -0.320213 
0.30467 -0.02392 -1.15259 0.417754 -0.0215342 -0.934724 0.404511 -0.0120565 -1.13623 
0.382229 -0.0230293 -1.1102 0.428689 -0.0327427 -1.09717 
VERTICES 500 1000
1 0 
1 1 
1 2 
1 3 
1 4 
1 5 
1 6 
1 7 
1 8 
1 9 
1 10 
1 11 
1 12 
1 13 
1 14 
1 15 
1 16 
1 17 
1 18 
1 19 
1 20 
1 21 
1 22 
1 23 
1 24 
1 25 
1 26 
1 27 
1 28 
1 29 
1 30 
1 31 
1 32 
1 33 
1 34 
1 35 
1 36 
1 37 
1 38 
1 39 
1 40 
1 41 
1 42 
1 43 
1 44 
1 45 
1 46 
1 47 
1 48 
1 49 
1 50 
1 51 
1 52 
1 53 
1 54 
1 55 
1 56 
1 57 
1 58 
1 59 
1 60 
1 61 
1 62 
1 63 
1 64 
1 65 
1 66 
1 67 
1 68 
1 69 
1 70 
1 71 
1 72 
1 73 
1 74 
1 75 
1 76 
1 77 
1 78 
1 79 
1 80 
1 81 
1 82 
1 83 
1 84 
1 85 
1 86 
1 87 
1 88 
1 89 
1 90 
1 91 
1 92 
1 93 
1 94 
1 95 
1 96 
1 97 
1 98 
1 99 
1 100 
1 101 
1 102 
1 103 
1 104 
1 105 
1 106 
1 107 
1 108 
1 109 
1 110 
1 111 
1 112 
1 113 
1 114 
1 115 
1 116 
1 117 
1 118 
1 119 
1 120 
1 121 
1 122 
1 123 
1 124 
1 125 
1 126 
1 127 
1 128 
1 129 
1 130 
1 131 
1 132 
1 133 
1 134 
1 135 
1 136 
1 137 
1 138 
1 139 
1 140 
1 141 
1 142 
1 143 
1 144 
1 145 
1 146 
1 147 
1 148 
1 149 
1 150 
1 151 
1 152 
1 153 
1 154 
1 155 
1 156 
1 157 
1 158 
1 159 
1 160 
1 161 
1 162 
1 163 
1 164 
1 165 
1 166 
1 167 
1 168 
1 169 
1 170 
1 171 
1 172 
1 173 
1 174 
1 175 
1 176 
1 177 
1 178 
1 179 
1 180 
1 181 
1 182 
1 183 
1 184 
1 185 
1 186 
1 187 
1 188 
1 189 
1 190 
1 191 
1 192 
1 193 
1 194 
1 195 
1 196 
1 197 
1 198 
1 199 
1 200 
1 201 
1 202 
1 203 
1 204 
1 205 
1 206 
1 207 
1 208 
1 209 
1 210 
1 211 
1 212 
1 213 
1 214 
1 215 
1 216 
1 217 
1 218 
1 219 
1 220 
1 221 
1 222 
1 223 
1 224 
1 225 
1 226 
1 227 
1 228 
1 229 
1 230 
1 231 
1 232 
1 233 
1 234 
1 235 
1 236 
1 237 
1 238 
1 239 
1 240 
1 241 
1 242 
1 243 
1 244 
1 245 
1 246 
1 247 
1 248 
1 249 
1 250 
1 251 
1 252 
1 253 
1 254 
1 255 
1 256 
1 257 
1 258 
1 259 
1 260 
1 261 
1 262 
1 263 
1 264 
1 265 
1 266 
1 267 
1 268 
1 269 
1 270 
1 271 
1 272 
1 273 
1 274 
1 275 
1 276 
1 277 
1 278 
1 279 
1 280 
1 281 
1 282 
1 283 
1 284 
1 285 
1 286 
1 287 
1 288 
1 289 
1 290 
1 291 
1 292 
1 293 
1 294 
1 295 
1 296 
1 297 
1 298 
1 299 
1 300 
1 301 
1 302 
1 303 
1 304 
1 305 
1 306 
1 307 
1 308 
1 309 
1 310 
1 311 
1 312 
1 313 
1 314 
1 315 
1 316 
1 317 
1 318 
1 319 
1 320 
1 321 
1 322 
1 323 
1 324 
1 325 
1 326 
1 327 
1 328 
1 329 
1 330 
1 331 
1 332 
1 333 
1 334 
1 335 
1 336 
1 337 
1 338 
1 339 
1 340 
1 341 
1 342 
1 343 
1 344 
1 345 
1 346 
1 347 
1 348 
1 349 
1 350 
1 351 
1 352 
1 353 
1 354 
1 355 
1 356 
1 357 
1 358 
1 359 
1 360 
1 361 
1 362 
1 363 
1 364 
1 365 
1 366 
1 367 
1 368 
1 369 
1 370 
1 371 
1 372 
1 373 
1 374 
1 375 
1 376 
1 377 
1 378 
1 379 
1 380 
1 381 
1 382 
1 383 
1 384 
1 385 
1 386 
1 387 
1 388 
1 389 
1 390 
1 391 
1 392 
1 393 
1 394 
1 395 
1 396 
1 397 
1 398 
1 399 
1 400 
1 401 
1 402 
1 403 
1 404 
1 405 
1 406 
1 407 
1 408 
1 409 
1 410 
1 411 
1 412 
1 413 
1 414 
1 415 
1 416 
1 417 
1 418 
1 419 
1 420 
1 421 
1 422 
1 423 
1 424 
1 425 
1 426 
1 427 
1 428 
1 429 
1 430 
1 431 
1 432 
1 433 
1 434 
1 435 
1 436 
1 437 
1 438 
1 439 
1 440 
1 441 
1 442 
1 443 
1 444 
1 445 
1 446 
1 447 
1 448 
1 449 
1 450 
1 451 
1 452 
1 453 
1 454 
1 455 
1 456 
1 457 
1 458 
1 459 
1 460 
1 461 
1 462 
1 463 
1 464 
1 465 
1 466 
1 467 
1 468 
1 469 
1 470 
1 471 
1 472 
1 473 
1 474 
1 475 
1 476 
1 477 
1 478 
1 479 
1 480 
1 481 
1 482 
1 483 
1 484 
1 485 
1 486 
1 487 
1 488 
1 489 
1 490 
1 491 
1 492 
1 493 
1 494 
1 495 
1 496 
1 497 
1 498 
1 499 

POINT_DATA 500
FIELD FieldData 7
id 1 500 int
1 2 3 4 5 6 7 8 9 
10 11 12 13 14 15 16 17 18 
19 20 21 22 23 24 25 26 27 
28 29 30 31 32 33 34 35 36 
37 38 39 40 41 42 43 44 45 
46 47 48 49 50 51 52 53 54 
55 56 57 58 59 60 61 62 63 
64 65 66 67 68 69 70 71 72 
73 74 75 76 77 78 79 80 81 
82 83 84 85 86 87 88 89 90 
91 92 93 94 95 96 97 98 99 
100 101 102 103 104 105 106 107 108 
109 110 111 112 113 114 115 116 117 
118 119 120 121 122 123 124 125 126 
127 128 129 130 131 132 133 134 135 
136 137 138 139 140 141 142 143 144 
145 146 147 148 149 150 151 152 153 
154 155 156 157 158 159 160 161 162 
163 164 165 166 167 168 169 170 171 
172 173 174 175 176 177 178 179 180 
181 182 183 184 185 186 187 188 189 
190 191 192 193 194 195 196 197 198 
199 200 201 202 203 204 205 206 207 
208 209 210 211 212 213 214 215 216 
217 218 219 220 221 222 223 224 225 
226 227 228 229 230 231 232 233 234 
235 236 237 238 239 240 241 242 243 
244 245 246 247 248 249 250 251 252 
253 254 255 256 257 258 259 260 261 
262 263 264 265 266 267 268 269 270 
271 272 273 274 275 276 277 278 279 
280 281 282 283 284 285 286 287 288 
289 290 291 292 293 294 295 296 297 
298 299 300 301 302 303 304 305 306 
307 308 309 310 311 312 313 314 315 
316 317 318 319 320 321 322 323 324 
325 326 327 328 329 330 331 332 333 
334 335 336 337 338 339 340 341 342 
343 344 345 346 347 348 349 350 351 
352 353 354 355 356 357 358 359 360 
361 362 363 364 365 366 367 368 369 
370 371 372 373 374 375 376 377 378 
379 380 381 382 383 384 385 386 387 
388 389 390 391 392 393 394 395 396 
397 398 399 400 401 402 403 404 405 
406 407 408 409 410 411 412 413 414 
415 416 417 418 419 420 421 422 423 
424 425 426 427 428 429 430 431 432 
433 434 435 436 437 438 439 440 441 
442 443 444 445 446 447 448 449 450 
451 452 453 454 455 456 457 458 459 
460 461 462 463 464 465 466 467 468 
469 470 471 472 473 474 475 476 477 
478 479 480 481 482 483 484 485 486 
487 488 489 490 491 492 493 494 495 
496 497 498 499 500 
type 1 500 int
1 1 1 1 1 1 1 1 1 
1 1 1 1 1 1 1 1 1 
1 1 1 1 1 1 1 1 1 
1 1 1 1 1 1 1 1 1 
1 1 1 1 1 1 1 1 1 
1 1 1 1 1 1 1 1 1 
1 1 1 1 1 1 1 1 1 
1 1 1 1 1 1 1 1 1 
1 1 1 1 1 1 1 1 1 
1 1 1 1 1 1 1 1 1 
1 1 1 1 1 1 1 1 1 
1 1 1 1 1 1 1 1 1 
1 1 1 1 1 1 1 1 1 
1 1 1 1 1 1 1 1 1 
1 1 1 1 1 1 1 1 1 
1 1 1 1 1 1 1 1 1 
1 1 1 1 1 1 1 1 1 
1 1 1 1 1 1 1 1 1 
1 1 1 1 1 1 1 1 1 
1 1 1 1 1 1 1 1 1 
1 1 1 1 1 1 1 1 1 
1 1 1 1 1 1 1 1 1 
1 1 1 1 1 1 1 1 1 
1 1 1 1 1 1 1 1 1 
1 1 1 1 1 1 1 1 1 
1 1 1 1 1 1 1 1 1 
1 1 1 1 1 1 1 1 1 
1 1 1 1 1 1 1 1 1 
1 1 1 1 1 1 1 1 1 
1 1 1 1 1 1 1 1 1 
1 1 1 1 1 1 1 1 1 
1 1 1 1 1 1 1 1 1 
1 1 1 1 1 1 1 1 1 
1 1 1 1 1 1 1 1 1 
1 1 1 1 1 1 1 1 1 
1 1 1 1 1 1 1 1 1 
1 1 1 1 1 1 1 1 1 
1 1 1 1 1 1 1 1 1 
1 1 1 1 1 1 1 1 1 
1 1 1 1 1 1 1 1 1 
1 1 1 1 1 1 1 1 1 
1 1 1 1 1 1 1 1 1 
1 1 1 1 1 1 1 1 1 
1 1 1 1 1 1 1 1 1 
1 1 1 1 1 1 1 1 1 
1 1 1 1 1 1 1 1 1 
1 1 1 1 1 1 1 1 1 
1 1 1 1 1 1 1 1 1 
1 1 1 1 1 1 1 1 1 
1 1 1 1 1 1 1 1 1 
1 1 1 1 1 1 1 1 1 
1 1 1 1 1 1 1 1 1 
1 1 1 1 1 1 1 1 1 
1 1 1 1 1 1 1 1 1 
1 1 1 1 1 1 1 1 1 
1 1 1 1 1 
i 3 500 int
0 0 0 0 0 0 0 0 0 
0 0 0 0 0 0 0 0 0 
0 0 0 0 0 0 0 0 0 
0 0 0 0 0 0 0 0 0 
0 0 0 0 0 0 0 0 0 
0 0 0 0 0 0 0 0 0 
0 0 0 0 0 0 0 0 0 
0 0 0 0 0 0 0 0 0 
0 0 0 0 0 0 0 0 0 
0 0 0 0 0 0 0 0 0 
0 0 0 0 0 0 0 0 0 
0 0 0 0 0 0 0 0 0 
0 0 0 0 0 0 0 0 0 
0 0 0 0 0 0 0 0 0 
0 0 0 0 0 0 0 0 0 
0 0 0 0 0 0 0 0 0 
0 0 0 0 0 0 0 0 0 
0 0 0 0 0 0 0 0 0 
0 0 0 0 0 0 0 0 0 
0 0 0 0 0 0 0 0 0 
0 0 0 0 0 0 0 0 0 
0 0 0 0 0 0 0 0 0 
0 0 0 0 0 0 0 0 0 
0 0 0 0 0 0 0 0 0 
0 0 0 0 0 0 0 0 0 
0 0 0 0 0 0 0 0 0 
0 0 0 0 0 0 0 0 0 
0 0 0 0 0 0 0 0 0 
0 0 0 0 0 0 0 0 0 
0 0 0 0 0 0 0 0 0 
0 0 0 0 0 0 0 0 0 
0 0 0 0 0 0 0 0 0 
0 0 0 0 0 0 0 0 0 
0 0 0 0 0 0 0 0 0 
0 0 0 0 0 0 0 0 0 
0 0 0 0 0 0 0 0 0 
0 0 0 0 0 0 0 0 0 
0 0 0 0 0 0 0 0 0 
0 0 0 0 0 0 0 0 0 
0 0 0 0 0 0 0 0 0 
0 0 0 0 0 0 0 0 0 
0 0 0 0 0 0 0 0 0 
0 0 0 0 0 0 0 0 0 
0 0 0 0 0 0 0 0 0 
0 0 0 0 0 0 0 0 0 
0 0 0 0 0 0 0 0 0 
0 0 0 0 0 0 0 0 0 
0 0 0 0 0 0 0 0 0 
0 0 0 0 0 0 0 0 0 
0 0 0 0 0 0 0 0 0 
0 0 0 0 0 0 0 0 0 
0 0 0 0 0 0 0 0 0 
0 0 0 0 0 0 0 0 0 
0 0 0 0 0 0 0 0 0 
0 0 0 0 0 0 0 0 0 
0 0 0 0 0 0 0 0 0 
0 0 0 0 0 0 0 0 0 
0 0 0 0 0 0 0 0 0 
0 0 0 0 0 0 0 0 0 
0 0 0 0 0 0 0 0 0 
0 0 0 0 0 0 0 0 0 
0 0 0 0 0 0 0 0 0 
0 0 0 0 0 0 0 0 0 
0 0 0 0 0 0 0 0 0 
0 0 0 0 0 0 0 0 0 
0 0 0 0 0 0 0 0 0 
0 0 0 0 0 0 0 0 0 
0 0 0 0 0 0 0 0 0 
0 0 0 0 0 0 0 0 0 
0 0 0 0 0 0 0 0 0 
0 0 0 0 0 0 0 0 0 
0 0 0 0 0 0 0 0 0 
0 0 0 0 0 0 0 0 0 
0 0 0 0 0 0 0 0 0 
0 0 0 0 0 0 0 0 0 
0 0 0 0 0 0 0 0 0 
0 0 0 0 0 0 0 0 0 
0 0 0 0 0 0 0 0 0 
0 0 0 0 0 0 0 0 0 
0 0 0 0 0 0 0 0 0 
0 0 0 0 0 0 0 0 0 
0 0 0 0 0 0 0 0 0 
0 0 0 0 0 0 0 0 0 
0 0 0 0 0 0 0 0 0 
0 0 0 0 0 0 0 0 0 
0 0 0 0 0 0 0 0 0 
0 0 0 0 0 0 0 0 0 
0 0 0 0 0 0 0 0 0 
0 0 0 0 0 0 0 0 0 
0 0 0 0 0 0 0 0 0 
0 0 0 0 0 0 0 0 0 
0 0 0 0 0 0 0 0 0 
0 0 0 0 0 0 0 0 0 
0 0 0 0 0 0 0 0 0 
0 0 0 0 0 0 0 0 0 
0 0 0 0 0 0 0 0 0 
0 0 0 0 0 0 0 0 0 
0 0 0 0 0 0 0 0 0 
0 0 0 0 0 0 0 0 0 
0 0 0 0 0 0 0 0 0 
0 0 0 0 0 0 0 0 0 
0 0 0 0 0 0 0 0 0 
0 0 0 0 0 0 0 0 0 
0 0 0 0 0 0 0 0 0 
0 0 0 0 0 0 0 0 0 
0 0 0 0 0 0 0 0 0 
0 0 0 0 0 0 0 0 0 
0 0 0 0 0 0 0 0 0 
0 0 0 0 0 0 0 0 0 
0 0 0 0 0 0 0 0 0 
0 0 0 0 0 0 0 0 0 
0 0 0 0 0 0 0 0 0 
0 0 0 0 0 0 0 0 0 
0 0 0 0 0 0 0 0 0 
0 0 0 0 0 0 0 0 0 
0 0 0 0 0 0 0 0 0 
0 0 0 0 0 0 0 0 0 
0 0 0 0 0 0 0 0 0 
0 0 0 0 0 0 0 0 0 
0 0 0 0 0 0 0 0 0 
0 0 0 0 0 0 0 0 0 
0 0 0 0 0 0 0 0 0 
0 0 0 0 0 0 0 0 0 
0 0 0 0 0 0 0 0 0 
0 0 0 0 0 0 0 0 0 
0 0 0 0 0 0 0 0 0 
0 0 0 0 0 0 0 0 0 
0 0 0 0 0 0 0 0 0 
0 0 0 0 0 0 0 0 0 
0 0 0 0 0 0 0 0 0 
0 0 0 0 0 0 0 0 0 
0 0 0 0 0 0 0 0 0 
0 0 0 0 0 0 0 0 0 
0 0 0 0 0 0 0 0 0 
0 0 0 0 0 0 0 0 0 
0 0 0 0 0 0 0 0 0 
0 0 0 0 0 0 0 0 0 
0 0 0 0 0 0 0 0 0 
0 0 0 0 0 0 0 0 0 
0 0 0 0 0 0 0 0 0 
0 0 0 0 0 0 0 0 0 
0 0 0 0 0 0 0 0 0 
0 0 0 0 0 0 0 0 0 
0 0 0 0 0 0 0 0 0 
0 0 0 0 0 0 0 0 0 
0 0 0 0 0 0 0 0 0 
0 0 0 0 0 0 0 0 0 
0 0 0 0 0 0 0 0 0 
0 0 0 0 0 0 0 0 0 
0 0 0 0 0 0 0 0 0 
0 0 0 0 0 0 0 0 0 
0 0 0 0 0 0 0 0 0 
0 0 0 0 0 0 0 0 0 
0 0 0 0 0 0 0 0 0 
0 0 0 0 0 0 0 0 0 
0 0 0 0 0 0 0 0 0 
0 0 0 0 0 0 0 0 0 
0 0 0 0 0 0 0 0 0 
0 0 0 0 0 0 0 0 0 
0 0 0 0 0 0 0 0 0 
0 0 0 0 0 0 0 0 0 
0 0 0 0 0 0 0 0 0 
0 0 0 0 0 0 0 0 0 
0 0 0 0 0 0 0 0 0 
0 0 0 0 0 0 0 0 0 
0 0 0 0 0 0 0 0 0 
0 0 0 0 0 0 
v 3 500 double
0.0864984 0.00171841 -0.0449959 -0.156567 -0.155306 -0.0265456 0.247869 -0.101329 -0.285492 
-1.26582 0.262679 0.0146398 -0.258342 -0.0600496 -1.3685 -1.46509 0.309131 -0.577918 
0.674663 0.177496 -1.47805 -0.355462 0.031393 -1.55524 -0.187731 0.0172905 -1.70635 
0.19495 0.0234967 0.053658 -0.202847 -0.0570282 -1.62591 -0.00775211 -0.0433731 -0.010119 
-0.620402 0.315358 -0.535725 -0.0839937 0.594302 -0.151365 -0.341783 0.060187 -1.61288 
-0.0979613 -0.0109452 0.0667891 -1.87464 0.309669 0.173122 0.055434 -0.00778487 0.0562073 
-0.413078 -0.233828 0.338966 0.00691742 0.0553423 0.0313134 -0.202808 -0.111171 1.12405 
-0.0785633 0.727213 -1.00801 -0.00747615 0.0153541 0.0165532 0.0742467 0.440804 -0.541681 
0.0629484 0.0302345 -2.90441 -0.0261676 0.227321 0.0955356 0.0404409 -0.0112801 -0.0617009 
-0.00921272 0.0141156 -0.00950977 -0.521379 0.0723087 0.114779 -1.05633 -0.371936 -0.17975 
-1.53785 -0.153718 -0.293007 0.105541 -0.0451796 0.0683035 -0.100987 0.242002 0.0853431 
-0.0622243 0.0416234 0.0667918 0.0286781 -0.119151 -2.17537 -1.58308 0.135423 -0.0944721 
-0.124081 0.0214648 -0.0294535 -1.40827 -0.28725 0.0189406 -1.20711 0.00119226 0.176297 
0.0343896 0.0244655 -0.115032 -0.00164804 -0.0374652 4.00619e-10 -0.540277 0.42814 -2.48203 
-0.482997 -0.16549 -0.868593 -0.205452 -0.023434 -0.139632 -0.211853 -0.0811797 -1.11784 
-0.0418608 -0.0750637 -0.00308369 -0.837951 -0.168482 -1.45879 -0.506835 0.436631 0.160597 
-0.06615 0.0164039 0.0120287 0.12862 0.136545 -0.076816 -0.138473 -0.0434339 -0.0943302 
0.0626265 -0.0186035 -0.00718436 -1.02455 -0.0417158 0.254605 0.153107 -0.0218781 0.681913 
-0.667677 -0.550487 -0.478007 -0.694161 -0.383225 0.145361 -1.09696 0.11159 0.0651387 
-0.296479 0.0707144 -1.20014 -0.678784 0.0994551 -1.62374 0.389594 0.342325 -0.365272 
-1.1817 -0.133501 0.00295292 -0.168135 -0.0362738 -0.0147888 0.434031 -0.101294 0.316412 
-0.716536 0.160534 -0.136334 -0.43644 0.238882 -0.367442 0.0149331 0.0105261 0.0138094 
0.403877 -0.641032 0.0996634 -0.118006 0.0877622 -0.0107599 0.0176643 -0.0418121 -0.0948564 
-0.200237 0.197739 -0.103667 -0.0178808 0.0315202 -0.00193601 -0.0133751 -0.0114947 0.0467421 
-0.931837 0.403602 0.226413 -0.974661 0.102755 0.0178315 -0.734874 0.281889 0.170693 
-1.52756 -0.12335 0.313814 -1.11686 -0.276889 -1.05032 -0.10819 -0.184173 0.268751 
-0.181074 -0.10471 0.0479701 0.0900381 0.0577018 0.0822595 0.0128642 0.76067 -0.359628 
-1.32269 0.555048 -0.415846 -0.0348611 0.00963849 -0.0591706 0.26026 0.0593547 -0.440373 
0.105143 -0.0188257 -5.27436e-11 0.269874 -0.481985 -0.361128 -0.825426 -0.500016 0.0177842 
0.425079 0.0341568 -2.2389 0.16044 -0.0026557 0.112653 -0.913103 -0.111089 0.101094 
-0.419482 -0.352069 -0.28 0.606994 0.584273 0.201855 0.103809 -0.37473 0.321727 
-0.383429 -0.0671027 0.229417 -0.411236 0.0808137 0.0533758 -0.344585 -0.523127 -0.189878 
-0.608818 0.237958 -0.466607 -1.2898 -0.238912 0.218513 -0.065154 -0.131441 -2.98664 
-1.14643 -0.00299794 0.408298 -1.61526 0.340972 -0.129479 0.00359745 0.0304073 -0.000841038 
-1.11845 -0.179816 -0.286637 0.0333436 -0.0665718 0.137885 0.142038 -0.0649668 -0.109918 
2.20588 0.2364 -1.96893 0.81773 0.0030461 0.355944 0.670346 -0.114808 -0.673221 
-0.79292 -0.192866 -0.452405 -1.17042 0.179368 -0.205578 -0.275986 0.365253 -0.423291 
-0.690092 0.440198 0.0627262 0.0558669 -0.00381289 -0.00993816 -0.0527833 -0.0217181 0.0814273 
-0.39421 -0.147296 -1.02218 -1.04363 0.309014 -0.716175 0.576485 -0.0684019 -0.999734 
0.00641234 -0.0118217 -0.0427195 0.185786 0.049796 -0.0637374 -1.68682 -0.0515876 0.317287 
-0.188195 0.237524 -0.209142 0.107027 0.0595487 -0.00402339 0.151471 -0.0171739 0.0282099 
0.0185146 -0.0274253 -0.0234956 0.00723199 0.000690261 -0.00398451 -1.43827 0.174002 -0.201131 
0.00081673 -0.0270963 -1.18426e-09 0.0221715 0.00455209 -0.0722485 0.0393169 0.043887 0.19402 
-1.08178 0.0184372 0.0544783 -1.47041 0.127085 -0.131161 -0.00871593 0.0354896 -0.00905552 
-1.18186 -0.135401 -0.044552 -0.135181 -0.400097 -1.41791 -1.286 -0.232417 0.486579 
-0.0854508 0.0325837 0.0209916 -1.32703 -0.0351903 -0.93443 -1.12868 0.0516558 -0.0249563 
0.0823122 0.00152274 -0.287053 -0.0896321 -0.171906 0.380031 -0.0776608 -0.00811504 -0.00870136 
0.0120751 -0.0745653 0.031142 0.0669384 -0.00820157 0.00934694 0.0676622 -0.0359129 0.0736354 
0.174329 -0.108326 0.0863423 -0.00567713 -0.0212528 0.0512633 -0.080852 -0.0747156 0.388459 
-0.398315 0.0887637 0.169646 0.069789 0.0207165 0.00808149 -0.780737 0.0116117 -0.257883 
-1.20949 -0.205556 0.0508008 -0.170169 -0.0221761 0.0818707 -0.646614 -0.238102 0.0235049 
0.0083539 -0.0156641 0.0519933 0.0424551 -0.0946641 -2.33948 -0.0134967 -0.0513319 0.00364423 
-1.23939 -0.153302 -0.412306 -0.116912 -0.0175002 0.0857119 -0.358192 -0.264908 0.186202 
-0.0310063 -0.00838444 -0.0227938 -0.459168 0.196543 -0.16071 -0.396326 0.184173 -0.00573017 
-0.728549 0.00452595 -1.09189 -1.1243 0.207165 0.136656 0.0664499 0.0976953 -0.264434 
-0.0268283 0.016923 0.107708 -1.40767 0.228325 0.817823 0.163799 -0.486148 -0.454091 
-0.04794 0.242952 -0.215036 0.411327 -0.171771 -1.9442 -0.248283 0.168122 0.145759 
-1.01407 -0.20752 -0.251546 0.281111 0.062349 0.00606891 0.00523823 -0.015934 -0.023059 
1.55286 0.00825568 -0.978389 -0.525259 0.504785 0.37494 -0.838364 -0.109639 0.101815 
-0.0026806 0.0724172 -0.0603136 -1.39689 -0.532485 -0.723127 -1.16637 -0.0410831 -0.208112 
-0.354163 -0.328152 -0.0275434 0.0390939 -0.07937 0.00427258 0.0194239 0.0141436 0.0252024 