# vtk DataFile Version 4.0
Generated by LIGGGHTS
ASCII
DATASET POLYDATA
POINTS 320 float
0.258698 -0.0328595 -0.284746 0.387603 -0.0283369 -0.61452 0.339638 -0.040274 -0.609167 
0.354756 -0.029489 -0.493995 0.289508 -0.0154743 -0.580564 0.288868 -0.027622 -0.338192 
0.324359 -0.00868357 -0.386212 0.300841 -0.0448909 -0.663296 0.324204 -0.043943 -0.728758 
0.336354 -0.0301195 -0.731233 0.379392 -0.0352701 -0.650247 0.354214 -0.0258982 -0.542934 
0.338998 -0.0369609 -0.682466 0.366482 -0.0326111 -0.638457 0.269629 -0.0356069 -0.671641 
0.206999 -0.00497063 -0.244819 0.363289 -0.0429586 -0.533759 0.343564 -0.0333309 -0.465202 
0.230294 -0.0199299 -0.245069 0.354836 -0.00521775 -0.492474 0.332596 -0.0132404 -0.459752 
0.351149 -0.0142896 -0.44866 0.35452 -0.0363123 -0.478674 0.351939 -0.0227423 -0.51618 
0.205012 -0.0250808 -0.244626 0.346936 -0.0413054 -0.56431 0.349745 -0.0421625 -0.459415 
0.358708 -0.014665 -0.494222 0.358981 -0.0439949 -0.550461 0.20797 -0.0450795 -0.245017 
0.355414 -0.0193236 -0.5643 0.3714 -0.026684 -0.567489 0.211603 -0.0221231 -0.237416 
0.344497 -0.0190679 -0.540708 0.207956 -0.035141 -0.244985 0.215014 -0.0151563 -0.244633 
0.336474 -0.0434027 -0.421989 0.323113 -0.00675962 -0.623546 0.344039 -0.0206704 -0.455039 
0.356853 -0.0315151 -0.601959 0.205121 -0.0149635 -0.243338 0.318412 -0.0437647 -0.511514 
0.335193 -0.0212399 -0.417171 0.349572 -0.0312232 -0.449455 0.339445 -0.0415415 -0.509409 
0.278478 -0.0316537 -0.309778 0.332624 -0.0234254 -0.348957 0.333033 -0.0276523 -0.475992 
0.347183 -0.0446559 -0.448182 0.345125 -0.0432683 -0.427499 0.34304 -0.025298 -0.44225 
0.345112 -0.033612 -0.417428 0.336975 -0.0149073 -0.439242 0.294624 -0.0358235 -0.343021 
0.3413 -0.0431663 -0.4958 0.328807 -0.00990945 -0.434279 0.204926 -0.00839136 -0.235748 
0.313354 -0.00811582 -0.534203 0.330552 -0.0133195 -0.479755 0.248153 -0.0187992 -0.271331 
0.327 -0.0330921 -0.407444 0.304636 -0.00782179 -0.35879 0.336609 -0.0154138 -0.365338 
0.218195 -0.00515852 -0.242628 0.276635 -0.0167048 -0.295046 0.323543 -0.0359684 -0.383945 
0.335453 -0.00913359 -0.408731 0.324704 -0.0165798 -0.402134 0.333517 -0.0311523 -0.44506 
0.337572 -0.0136218 -0.385929 0.328644 -0.0219805 -0.328516 0.323579 -0.0127171 -0.425735 
0.268741 -0.00486284 -0.28628 0.318414 -0.0308774 -0.365538 0.285121 -0.033254 -0.324236 
0.3337 -0.0375809 -0.436574 0.227627 -0.0360634 -0.244785 0.340646 -0.039133 -0.390175 
0.34412 -0.00729071 -0.428274 0.317038 -0.0449486 -0.388281 0.337333 -0.0312472 -0.375657 
0.298277 -0.0142704 -0.32579 0.223551 -0.0450623 -0.244789 0.304733 -0.0281106 -0.36451 
0.204988 -0.031229 -0.236202 0.287706 -0.0446948 -0.306728 0.317922 -0.0449601 -0.357265 
0.216625 -0.0278632 -0.24394 0.317293 -0.0164166 -0.368821 0.277003 -0.00770127 -0.320459 
0.294848 -0.0301438 -0.315544 0.271842 -0.0162937 -0.285918 0.34193 -0.00615763 -0.395508 
0.313456 -0.0339325 -0.351021 0.338995 -0.0435865 -0.399057 0.261984 -0.00914188 -0.293717 
0.216854 -0.0384254 -0.242001 0.335678 -0.0232424 -0.385867 0.205628 -0.00488283 -0.22645 
0.309884 -0.0294255 -0.374914 0.269162 -0.0351152 -0.30423 0.205191 -0.0409831 -0.236391 
0.303315 -0.0445521 -0.326433 0.285033 -0.0142018 -0.274678 0.25029 -0.0087429 -0.270247 
0.325304 -0.0376973 -0.329207 0.325375 -0.0353662 -0.315873 0.313608 -0.00670086 -0.371419 
0.2573 -0.0214436 -0.283554 0.230183 -0.00563367 -0.244923 0.239257 -0.0130259 -0.25293 
0.31721 -0.0106171 -0.36047 0.327196 -0.0147029 -0.361449 0.24298 -0.0217961 -0.262678 
0.318176 -0.0277097 -0.300044 0.303051 -0.0442232 -0.343776 0.208313 -0.0159141 -0.230163 
0.276763 -0.0137362 -0.307251 0.316068 -0.0398468 -0.296435 0.220824 -0.0450503 -0.234765 
0.283555 -0.0102907 -0.258777 0.224125 -0.0132516 -0.241033 0.310231 -0.0131249 -0.310446 
0.230303 -0.0361761 -0.234326 0.268219 -0.0119243 -0.256998 0.215922 -0.0115018 -0.222115 
0.20932 -0.0269034 -0.228445 0.260465 -0.0357179 -0.269197 0.266026 -0.0205654 -0.2778 
0.254066 -0.0449131 -0.272815 0.296809 -0.0450719 -0.312556 0.274013 -0.0436981 -0.281168 
0.249408 -0.0434592 -0.249019 0.271421 -0.00889083 -0.273378 0.2357 -0.0448482 -0.246985 
0.226609 -0.0275727 -0.240013 0.286005 -0.0304049 -0.294144 0.281224 -0.00508413 -0.275983 
0.285129 -0.0160329 -0.301613 0.214506 -0.00767567 -0.232348 0.245598 -0.0246346 -0.25275 
0.235582 -0.0071288 -0.232211 0.260232 -0.0448688 -0.26467 0.274578 -0.0331129 -0.270884 
0.24063 -0.0199865 -0.245719 0.238436 -0.0446495 -0.237519 0.243893 -0.00555204 -0.261222 
0.213004 -0.0360322 -0.232524 0.278821 -0.0175414 -0.267113 0.225563 -0.0450289 -0.215521 
0.242192 -0.00613616 -0.24631 0.224617 -0.0150195 -0.231126 0.267968 -0.0377605 -0.255892 
0.239516 -0.0358129 -0.253457 0.209852 -0.0444592 -0.228399 0.275895 -0.0437422 -0.265819 
0.225653 -0.00492284 -0.235945 0.249837 -0.0137395 -0.261003 0.275056 -0.029359 -0.281694 
0.254383 -0.0276564 -0.271929 0.234445 -0.0157397 -0.223953 0.245659 -0.0312202 -0.243974 
0.234025 -0.0306942 -0.221837 0.215993 -0.0192768 -0.214569 0.240986 -0.0362631 -0.229067 
0.221713 -0.0401305 -0.226246 0.249303 -0.0354008 -0.235994 0.222283 -0.00494923 -0.226416 
0.254684 -0.0122147 -0.251788 0.240988 -0.0251372 -0.235751 0.259591 -0.0106487 -0.236732 
0.231398 -0.022853 -0.231893 0.207752 -0.0307695 -0.21963 0.246417 -0.0135181 -0.24019 
0.250898 -0.0124107 -0.231567 0.223971 -0.026743 -0.221302 0.216822 -0.0210904 -0.2248 
0.254541 -0.0329006 -0.249278 0.220312 -0.0270125 -0.232327 0.257009 -0.0273607 -0.257889 
0.218921 -0.0383132 -0.195458 0.238912 -0.00586085 -0.194228 0.230607 -0.036787 -0.213293 
0.235115 -0.0417269 -0.195773 0.238245 -0.0107108 -0.216752 0.244963 -0.0190205 -0.21849 
0.242747 -0.0225576 -0.194313 0.216013 -0.00820078 -0.198603 0.24087 -0.042941 -0.221804 
0.225756 -0.0309219 -0.192547 0.218499 -0.0139494 -0.205905 0.21578 -0.0291084 -0.211752 
0.213509 -0.0411404 -0.219683 0.244727 -0.033015 -0.202459 0.210641 -0.0223727 -0.191267 
0.231909 -0.0162391 -0.191784 0.248289 -0.00917261 -0.204075 0.228097 -0.0175635 -0.211874 
0.211425 -0.00670675 -0.213404 0.235936 -0.025064 -0.209384 0.230058 -0.0111372 -0.172698 
0.227477 -0.0427021 -0.174094 0.243123 -0.0280873 -0.15175 0.210492 -0.0376107 -0.173077 
0.247465 -0.0103712 -0.160382 0.231723 -0.0210398 -0.151481 0.232659 -0.0315577 -0.169602 
0.2485 -0.00869207 -0.181392 0.219279 -0.00578042 -0.158657 0.214861 -0.0431369 -0.152022 
0.2145 -0.0192411 -0.150989 0.236707 -0.0395899 -0.158552 0.221842 -0.0261192 -0.153659 
0.222227 -0.0336561 -0.173574 0.249115 -0.0359666 -0.170414 0.210005 -0.00679914 -0.165849 
0.247875 -0.0417575 -0.151392 0.237753 -0.00607273 -0.164881 0.22232 -0.0170259 -0.164648 
0.225595 -0.0411789 -0.154116 0.244028 -0.00841657 -0.136037 0.213159 -0.0446361 -0.133789 
0.24382 -0.026021 -0.128335 0.231147 -0.0254342 -0.118829 0.236612 -0.0352895 -0.122793 
0.228804 -0.00795562 -0.131148 0.211318 -0.028032 -0.129217 0.213179 -0.00728669 -0.129931 
0.218946 -0.0406193 -0.120641 0.226552 -0.0179137 -0.135132 0.245692 -0.0446594 -0.133683 
0.226505 -0.0302342 -0.132156 0.222321 -0.0212668 -0.11408 0.239151 -0.0173562 -0.133572 
0.213192 -0.0170754 -0.123001 0.226315 -0.043435 -0.1324 0.248629 -0.00835056 -0.117534 
0.248646 -0.0345768 -0.115432 0.237553 -0.00742038 -0.121777 0.228583 -0.00513071 -0.148833 
0.234708 -0.0165351 -0.0918312 0.211478 -0.0159401 -0.0892074 0.228027 -0.0252557 -0.086364 
0.211509 -0.0356212 -0.111076 0.226513 -0.0378663 -0.104618 0.239236 -0.0310562 -0.0850976 
0.241505 -0.0131187 -0.107989 0.249791 -0.0383789 -0.100085 0.21523 -0.0247671 -0.0824565 
0.225191 -0.0148775 -0.0964209 0.21047 -0.025545 -0.110639 0.221585 -0.0335657 -0.0830259 
0.243122 -0.0435431 -0.113507 0.23636 -0.0448731 -0.09864 0.21994 -0.0270663 -0.0973814 
0.248537 -0.0275163 -0.101635 0.221005 -0.00979482 -0.10906 0.239297 -0.00704086 -0.0904937 
0.227412 -0.0432709 -0.0880158 0.210174 -0.0336483 -0.0849968 0.220555 -0.015536 -0.0601664 
0.23155 -0.0168679 -0.076065 0.243019 -0.00911795 -0.0565431 0.229451 -0.00951585 -0.0543873 
0.246106 -0.0168942 -0.0713018 0.219139 -0.0315403 -0.0677631 0.210415 -0.0446145 -0.0777308 
0.249252 -0.0248752 -0.0634102 0.249517 -0.036276 -0.0709888 0.212917 -0.0345885 -0.055554 
0.225822 -0.00522314 -0.0718698 0.211607 -0.00769405 -0.0583686 0.236053 -0.0319911 -0.0673261 
0.226825 -0.0410672 -0.0668558 0.241844 -0.00652481 -0.0708265 0.21683 -0.0101783 -0.0724512 
0.243175 -0.0434765 -0.0603066 0.235774 -0.0218941 -0.0599213 0.223848 -0.0326805 -0.055485 
0.212023 -0.0188911 -0.0682237 0.232494 -0.0388328 -0.0446926 0.243816 -0.0232015 -0.0474926 
0.213514 -0.0242577 -0.0532762 0.219498 -0.00535671 -0.0358015 0.212796 -0.0121182 -0.0402195 
0.211848 -0.0275037 -0.0395704 0.219221 -0.037359 -0.0317814 0.245034 -0.0312594 -0.0361305 
0.231481 -0.015344 -0.0397961 0.245019 -0.00556751 -0.0323367 0.233391 -0.0281452 -0.0387529 
0.244749 -0.0449806 -0.0426559 0.231333 -0.0447181 -0.0309128 0.221406 -0.025629 -0.036707 
0.222958 -0.0146693 -0.0337461 0.219037 -0.0430729 -0.0437771 0.248139 -0.00742275 -0.0431816 
0.24486 -0.0334175 -0.0478403 0.234968 -0.0315079 -0.0536681 0.232212 -0.00522222 -0.0342397 
0.219591 -0.0397459 -0.0116985 0.234653 -0.0261522 -0.0162362 0.217253 -0.0244055 -0.0104556 
0.247936 -0.0217615 -0.0280749 0.23957 -0.0448304 -0.0227723 0.225617 -0.013971 -0.0214411 
0.212302 -0.00879119 -0.0210926 0.229816 -0.00560949 -0.0171039 0.238161 -0.0234197 -0.0254733 
0.224122 -0.0245011 -0.0178901 0.249315 -0.0382876 -0.0211479 0.21072 -0.0255212 -0.0284678 
0.212185 -0.043082 -0.0259998 0.245393 -0.0308043 -0.0128158 0.246779 -0.0192433 -0.0127681 
0.235037 -0.0384427 -0.0100214 0.227486 -0.0432281 -0.0178736 0.241056 -0.00998004 -0.015223 
0.231251 -0.0351322 -0.0229491 0.214946 -0.0149503 -0.0136471 
VERTICES 320 640
1 0 
1 1 
1 2 
1 3 
1 4 
1 5 
1 6 
1 7 
1 8 
1 9 
1 10 
1 11 
1 12 
1 13 
1 14 
1 15 
1 16 
1 17 
1 18 
1 19 
1 20 
1 21 
1 22 
1 23 
1 24 
1 25 
1 26 
1 27 
1 28 
1 29 
1 30 
1 31 
1 32 
1 33 
1 34 
1 35 
1 36 
1 37 
1 38 
1 39 
1 40 
1 41 
1 42 
1 43 
1 44 
1 45 
1 46 
1 47 
1 48 
1 49 
1 50 
1 51 
1 52 
1 53 
1 54 
1 55 
1 56 
1 57 
1 58 
1 59 
1 60 
1 61 
1 62 
1 63 
1 64 
1 65 
1 66 
1 67 
1 68 
1 69 
1 70 
1 71 
1 72 
1 73 
1 74 
1 75 
1 76 
1 77 
1 78 
1 79 
1 80 
1 81 
1 82 
1 83 
1 84 
1 85 
1 86 
1 87 
1 88 
1 89 
1 90 
1 91 
1 92 
1 93 
1 94 
1 95 
1 96 
1 97 
1 98 
1 99 
1 100 
1 101 
1 102 
1 103 
1 104 
1 105 
1 106 
1 107 
1 108 
1 109 
1 110 
1 111 
1 112 
1 113 
1 114 
1 115 
1 116 
1 117 
1 118 
1 119 
1 120 
1 121 
1 122 
1 123 
1 124 
1 125 
1 126 
1 127 
1 128 
1 129 
1 130 
1 131 
1 132 
1 133 
1 134 
1 135 
1 136 
1 137 
1 138 
1 139 
1 140 
1 141 
1 142 
1 143 
1 144 
1 145 
1 146 
1 147 
1 148 
1 149 
1 150 
1 151 
1 152 
1 153 
1 154 
1 155 
1 156 
1 157 
1 158 
1 159 
1 160 
1 161 
1 162 
1 163 
1 164 
1 165 
1 166 
1 167 
1 168 
1 169 
1 170 
1 171 
1 172 
1 173 
1 174 
1 175 
1 176 
1 177 
1 178 
1 179 
1 180 
1 181 
1 182 
1 183 
1 184 
1 185 
1 186 
1 187 
1 188 
1 189 
1 190 
1 191 
1 192 
1 193 
1 194 
1 195 
1 196 
1 197 
1 198 
1 199 
1 200 
1 201 
1 202 
1 203 
1 204 
1 205 
1 206 
1 207 
1 208 
1 209 
1 210 
1 211 
1 212 
1 213 
1 214 
1 215 
1 216 
1 217 
1 218 
1 219 
1 220 
1 221 
1 222 
1 223 
1 224 
1 225 
1 226 
1 227 
1 228 
1 229 
1 230 
1 231 
1 232 
1 233 
1 234 
1 235 
1 236 
1 237 
1 238 
1 239 
1 240 
1 241 
1 242 
1 243 
1 244 
1 245 
1 246 
1 247 
1 248 
1 249 
1 250 
1 251 
1 252 
1 253 
1 254 
1 255 
1 256 
1 257 
1 258 
1 259 
1 260 
1 261 
1 262 
1 263 
1 264 
1 265 
1 266 
1 267 
1 268 
1 269 
1 270 
1 271 
1 272 
1 273 
1 274 
1 275 
1 276 
1 277 
1 278 
1 279 
1 280 
1 281 
1 282 
1 283 
1 284 
1 285 
1 286 
1 287 
1 288 
1 289 
1 290 
1 291 
1 292 
1 293 
1 294 
1 295 
1 296 
1 297 
1 298 
1 299 
1 300 
1 301 
1 302 
1 303 
1 304 
1 305 
1 306 
1 307 
1 308 
1 309 
1 310 
1 311 
1 312 
1 313 
1 314 
1 315 
1 316 
1 317 
1 318 
1 319 

POINT_DATA 320
FIELD FieldData 7
id 1 320 int
1 2 3 4 5 6 7 8 9 
10 11 12 13 14 15 16 17 18 
19 20 21 22 23 24 25 26 27 
28 29 30 31 32 33 34 35 36 
37 38 39 40 41 42 43 44 45 
46 47 48 49 50 51 52 53 54 
55 56 57 58 59 60 61 62 63 
64 65 66 67 68 69 70 71 72 
73 74 75 76 77 78 79 80 81 
82 83 84 85 86 87 88 89 90 
91 92 93 94 95 96 97 98 99 
100 101 102 103 104 105 106 107 108 
109 110 111 112 113 114 115 116 117 
118 119 120 121 122 123 124 125 126 
127 128 129 130 131 132 133 134 135 
136 137 138 139 140 141 142 143 144 
145 146 147 148 149 150 151 152 153 
154 155 156 157 158 159 160 161 162 
163 164 165 166 167 168 169 170 171 
172 173 174 175 176 177 178 179 180 
181 182 183 184 185 186 187 188 189 
190 191 192 193 194 195 196 197 198 
199 200 201 202 203 204 205 206 207 
208 209 210 211 212 213 214 215 216 
217 218 219 220 221 222 223 224 225 
226 227 228 229 230 231 232 233 234 
235 236 237 238 239 240 241 242 243 
244 245 246 247 248 249 250 251 252 
253 254 255 256 257 258 259 260 261 
262 263 264 265 266 267 268 269 270 
271 272 273 274 275 276 277 278 279 
280 281 282 283 284 285 286 287 288 
289 290 291 292 293 294 295 296 297 
298 299 300 301 302 303 304 305 306 
307 308 309 310 311 312 313 314 315 
316 317 318 319 320 
type 1 320 int
1 1 1 1 1 1 1 1 1 
1 1 1 1 1 1 1 1 1 
1 1 1 1 1 1 1 1 1 
1 1 1 1 1 1 1 1 1 
1 1 1 1 1 1 1 1 1 
1 1 1 1 1 1 1 1 1 
1 1 1 1 1 1 1 1 1 
1 1 1 1 1 1 1 1 1 
1 1 1 1 1 1 1 1 1 
1 1 1 1 1 1 1 1 1 
1 1 1 1 1 1 1 1 1 
1 1 1 1 1 1 1 1 1 
1 1 1 1 1 1 1 1 1 
1 1 1 1 1 1 1 1 1 
1 1 1 1 1 1 1 1 1 
1 1 1 1 1 1 1 1 1 
1 1 1 1 1 1 1 1 1 
1 1 1 1 1 1 1 1 1 
1 1 1 1 1 1 1 1 1 
1 1 1 1 1 1 1 1 1 
1 1 1 1 1 1 1 1 1 
1 1 1 1 1 1 1 1 1 
1 1 1 1 1 1 1 1 1 
1 1 1 1 1 1 1 1 1 
1 1 1 1 1 1 1 1 1 
1 1 1 1 1 1 1 1 1 
1 1 1 1 1 1 1 1 1 
1 1 1 1 1 1 1 1 1 
1 1 1 1 1 1 1 1 1 
1 1 1 1 1 1 1 1 1 
1 1 1 1 1 1 1 1 1 
1 1 1 1 1 1 1 1 1 
1 1 1 1 1 1 1 1 1 
1 1 1 1 1 1 1 1 1 
1 1 1 1 1 1 1 1 1 
1 1 1 1 1 
i 3 320 int
0 0 0 0 0 0 0 0 0 
0 0 0 0 0 0 0 0 0 
0 0 0 0 0 0 0 0 0 
0 0 0 0 0 0 0 0 0 
0 0 0 0 0 0 0 0 0 
0 0 0 0 0 0 0 0 0 
0 0 0 0 0 0 0 0 0 
0 0 0 0 0 0 0 0 0 
0 0 0 0 0 0 0 0 0 
0 0 0 0 0 0 0 0 0 
0 0 0 0 0 0 0 0 0 
0 0 0 0 0 0 0 0 0 
0 0 0 0 0 0 0 0 0 
0 0 0 0 0 0 0 0 0 
0 0 0 0 0 0 0 0 0 
0 0 0 0 0 0 0 0 0 
0 0 0 0 0 0 0 0 0 
0 0 0 0 0 0 0 0 0 
0 0 0 0 0 0 0 0 0 
0 0 0 0 0 0 0 0 0 
0 0 0 0 0 0 0 0 0 
0 0 0 0 0 0 0 0 0 
0 0 0 0 0 0 0 0 0 
0 0 0 0 0 0 0 0 0 
0 0 0 0 0 0 0 0 0 
0 0 0 0 0 0 0 0 0 
0 0 0 0 0 0 0 0 0 
0 0 0 0 0 0 0 0 0 
0 0 0 0 0 0 0 0 0 
0 0 0 0 0 0 0 0 0 
0 0 0 0 0 0 0 0 0 
0 0 0 0 0 0 0 0 0 
0 0 0 0 0 0 0 0 0 
0 0 0 0 0 0 0 0 0 
0 0 0 0 0 0 0 0 0 
0 0 0 0 0 0 0 0 0 
0 0 0 0 0 0 0 0 0 
0 0 0 0 0 0 0 0 0 
0 0 0 0 0 0 0 0 0 
0 0 0 0 0 0 0 0 0 
0 0 0 0 0 0 0 0 0 
0 0 0 0 0 0 0 0 0 
0 0 0 0 0 0 0 0 0 
0 0 0 0 0 0 0 0 0 
0 0 0 0 0 0 0 0 0 
0 0 0 0 0 0 0 0 0 
0 0 0 0 0 0 0 0 0 
0 0 0 0 0 0 0 0 0 
0 0 0 0 0 0 0 0 0 
0 0 0 0 0 0 0 0 0 
0 0 0 0 0 0 0 0 0 
0 0 0 0 0 0 0 0 0 
0 0 0 0 0 0 0 0 0 
0 0 0 0 0 0 0 0 0 
0 0 0 0 0 0 0 0 0 
0 0 0 0 0 0 0 0 0 
0 0 0 0 0 0 0 0 0 
0 0 0 0 0 0 0 0 0 
0 0 0 0 0 0 0 0 0 
0 0 0 0 0 0 0 0 0 
0 0 0 0 0 0 0 0 0 
0 0 0 0 0 0 0 0 0 
0 0 0 0 0 0 0 0 0 
0 0 0 0 0 0 0 0 0 
0 0 0 0 0 0 0 0 0 
0 0 0 0 0 0 0 0 0 
0 0 0 0 0 0 0 0 0 
0 0 0 0 0 0 0 0 0 
0 0 0 0 0 0 0 0 0 
0 0 0 0 0 0 0 0 0 
0 0 0 0 0 0 0 0 0 
0 0 0 0 0 0 0 0 0 
0 0 0 0 0 0 0 0 0 
0 0 0 0 0 0 0 0 0 
0 0 0 0 0 0 0 0 0 
0 0 0 0 0 0 0 0 0 
0 0 0 0 0 0 0 0 0 
0 0 0 0 0 0 0 0 0 
0 0 0 0 0 0 0 0 0 
0 0 0 0 0 0 0 0 0 
0 0 0 0 0 0 0 0 0 
0 0 0 0 0 0 0 0 0 
0 0 0 0 0 0 0 0 0 
0 0 0 0 0 0 0 0 0 
0 0 0 0 0 0 0 0 0 
0 0 0 0 0 0 0 0 0 
0 0 0 0 0 0 0 0 0 
0 0 0 0 0 0 0 0 0 
0 0 0 0 0 0 0 0 0 
0 0 0 0 0 0 0 0 0 
0 0 0 0 0 0 0 0 0 
0 0 0 0 0 0 0 0 0 
0 0 0 0 0 0 0 0 0 
0 0 0 0 0 0 0 0 0 
0 0 0 0 0 0 0 0 0 
0 0 0 0 0 0 0 0 0 
0 0 0 0 0 0 0 0 0 
0 0 0 0 0 0 0 0 0 
0 0 0 0 0 0 0 0 0 
0 0 0 0 0 0 0 0 0 
0 0 0 0 0 0 0 0 0 
0 0 0 0 0 0 0 0 0 
0 0 0 0 0 0 0 0 0 
0 0 0 0 0 0 0 0 0 
0 0 0 0 0 0 0 0 0 
0 0 0 0 0 0 0 0 0 
0 0 0 0 0 0 
v 3 320 double
0.897455 0.192816 -1.39005 0.885953 -0.122164 -3.50749 0.0269997 -0.0394617 -3.42974 
0.0311685 0.0103129 -2.87908 -0.474991 0.146013 -2.9005 1.023 0.11794 -1.8971 
1.11321 0.0656704 -2.1895 -0.440679 -0.102112 -3.52451 -0.254941 -0.0448135 -3.78248 
-0.184026 0.101425 -3.94382 0.633797 -0.104901 -3.50244 0.239626 0.204377 -2.72011 
0.0936267 0.338417 -3.54848 0.295662 0.19408 -3.23155 -0.593589 -0.143862 -3.43106 
0.15109 0.0596059 0.0366128 0.544108 0.104902 -2.86154 0.164792 -0.0623698 -2.72858 
0.862717 0.116731 0.0355465 0.0182236 -0.160684 -2.61088 -0.128484 -0.279817 -1.87267 
1.00949 -0.163933 -2.26778 0.281251 -0.174863 -2.93388 0.0236755 0.317952 -2.76643 
0.144969 -0.0275089 0.110289 0.210034 0.0259608 -2.72742 0.151136 0.18658 -2.84499 
0.444193 -0.00202785 -2.35009 0.456884 -0.100267 -2.72059 0.303226 0.18686 -0.0273997 
0.00255299 -0.134429 -3.14988 0.556639 -0.0505894 -2.77627 -0.0148181 -0.155799 0.0833017 
-0.152811 0.182814 -2.86456 0.207054 0.394394 0.121924 0.187099 0.0402012 -0.01577 
0.286913 -0.252777 -1.82741 -0.319874 -0.0230939 -3.45581 0.409664 0.546177 -2.36796 
0.232552 0.13039 -3.205 0.10063 -0.0366113 -0.0155929 -0.128856 -0.221325 -2.87329 
-0.100028 -0.156256 -2.05287 0.280473 -0.408475 -2.25926 -0.287782 0.0595503 -2.54557 
0.658645 -0.178313 -1.35232 -0.136819 0.0130572 -1.81236 0.100409 0.0457749 -2.69285 
0.926966 -0.118726 -2.01421 0.119327 -0.313369 -1.87086 0.37751 -0.132506 -2.53291 
1.13155 -0.158185 -2.07811 0.543449 -0.105468 -2.50485 0.997605 0.142884 -1.84967 
0.0142564 0.197241 -2.60245 0.446365 -0.41587 -2.20742 0.196681 0.276591 0.00972661 
-0.341209 -0.0942536 -2.93182 0.0538349 0.216151 -2.14582 0.760454 0.0626543 -1.34046 
0.982764 -0.229063 -2.17586 0.904902 -0.0687345 -1.89506 0.13458 -0.185099 -2.08797 
0.0590073 -0.0141179 0.151973 1.0968 0.212102 -1.41751 1.11321 0.111259 -1.92613 
0.160118 -0.276715 -2.35977 0.781014 0.105913 -2.00145 0.743199 0.379223 -2.63806 
-0.0637302 0.447826 -1.87063 -0.410917 0.12895 -1.86787 0.393642 0.058685 -2.81978 
0.793724 0.0578462 -1.28069 1.02873 -0.146998 -1.80791 0.879064 0.059421 -1.69138 
0.664121 -0.0568844 -2.66359 0.610267 -0.138882 0.0304243 0.34979 -0.655074 -2.36305 
-0.0761202 -0.162849 -2.49232 0.986863 -0.148806 -1.81816 1.22428 0.240235 -2.02231 
0.967502 -0.297681 -2.02147 0.22788 0.017131 -0.0622363 1.31528 -0.259213 -1.81745 
-0.222703 0.61541 0.198195 1.09196 0.00686215 -1.35839 1.20828 0.0271861 -1.90091 
0.0956153 -0.0125543 -0.0965918 0.902192 -0.0210425 -1.90044 0.885809 -0.114877 -1.82751 
0.8115 0.117206 -1.62474 1.03065 0.285234 -1.61215 0.0481225 0.283626 -2.43146 
1.09068 -0.156371 -1.77592 -0.0983392 -0.0100569 -2.39093 0.736925 -0.0576314 -1.2029 
0.182919 0.217172 -0.0265831 0.535922 0.181583 -1.96146 0.313705 -0.169705 -0.121568 
1.20508 0.186873 -1.7896 1.02858 0.241213 -1.63647 0.00667885 0.292923 -0.128726 
1.0083 0.0782278 -1.84217 1.24624 -0.0830801 -1.19619 0.779135 0.219358 -1.44846 
1.11217 0.177326 -1.79436 0.608631 -0.321819 -2.17059 1.52207 -0.0541397 -1.51997 
0.844414 0.295436 -1.34353 0.416484 -0.0298604 0.228711 0.31507 -0.177928 -1.2516 
0.761419 0.167824 -2.14367 1.16002 0.19513 -2.3018 0.943641 0.535129 -1.42572 
1.31109 0.517214 -1.54907 1.0351 -0.0147642 -1.55017 -0.275406 -0.107418 0.0973825 
0.852609 -0.0715832 -1.59104 0.591034 -0.0583208 -1.53525 0.00950647 -0.112319 -0.164454 
1.25709 -0.0696151 -1.075 0.406577 -0.0397725 -0.328098 1.3444 0.14749 -1.80081 
0.861643 0.0402568 0.0532174 0.995882 -0.055426 -0.940517 0.0904919 -0.0816532 -0.132629 
0.137099 0.238359 -0.0338625 1.05897 0.157202 -1.42849 0.839662 -0.184848 -1.50002 
0.467461 -0.0762543 -1.0979 1.06414 -0.0866779 -1.61635 0.692749 0.233511 -1.42272 
0.999809 0.240918 -1.04872 0.915809 0.232327 -1.06772 0.371797 -0.0684871 -0.346769 
0.325321 0.0489285 -0.177252 0.88818 -0.107139 -1.44674 1.10413 -0.097593 -1.11599 
0.697868 -0.28232 -1.55662 0.2532 0.054781 -0.0286999 1.0177 0.0227854 -1.65177 
0.496771 -0.0456781 -0.74807 0.781968 0.146146 -1.41521 0.856337 -0.193533 -1.54179 
0.50025 -0.164114 -1.6796 0.701995 0.149856 -1.40372 1.32353 -0.0659621 -0.863492 
0.459585 -0.0789471 -0.32767 1.04844 -0.0808957 -1.25642 -0.253961 -0.676585 -0.0734031 
0.116965 0.734746 -0.991305 -0.0310486 -0.197685 -0.132337 1.14856 0.0339553 -1.38216 
0.243351 -0.0111513 -1.28308 0.467653 0.276331 0.0274839 1.00302 -0.0744867 -1.1264 
0.622208 -0.073291 -0.219251 0.519012 -0.229146 -1.2105 1.3789 0.184911 -1.54015 
0.828532 -0.0781302 -1.79668 0.431818 -0.953639 -1.07602 0.617543 -0.0790929 -2.06717 
0.953413 0.178639 -1.57377 0.159638 0.512145 -0.649443 0.593557 0.411597 -1.44824 
0.67711 0.365011 -0.206633 0.66712 -0.0692572 -2.17948 0.181614 -0.262994 0.191147 
0.870653 0.41258 -1.40277 0.0788091 0.00438985 -0.914829 0.875781 -0.184562 -1.20166 
0.287279 0.02883 -0.454899 -0.550557 -0.19004 0.293454 1.12514 0.168603 -1.5465 
0.390708 0.0239032 -1.48271 0.520277 0.0748359 -0.592624 0.364034 0.110801 -0.557685 
0.464991 -0.777998 -1.78269 -0.242086 -0.239434 -0.138948 0.821327 0.0713553 -1.53081 
0 0 -2.10779 0 0 -2.10191 0.290012 0.181099 -1.04706 
0 0 -2.10927 0.34149 0.368438 -1.55289 0 0 -2.21227 
0 0 -2.1024 -0.134653 0.365308 -1.61252 0.00450196 -0.0984291 -2.10762 
0 0 -2.09406 0.309084 -0.00826378 -1.28944 0.00101786 -0.682624 -1.83218 
0.413887 -0.213706 -0.489061 0 0 -2.14017 0 0 -2.08817 
0 0 -2.09063 0 0 -2.14752 0.164768 -0.0331551 -2.17975 
-0.0253506 -0.471739 -0.60684 0 0 -2.17156 0 0 -1.9989 
0 0 -2.00577 0 0 -1.89345 0 0 -2.00087 
0 0 -1.93759 0 0 -1.89197 0 0 -1.9837 
0 0 -2.04109 0 0 -1.92876 0 0 -1.89492 
0 0 -1.88952 0 0 -1.92827 0 0 -1.90326 
0 0 -2.00332 0 0 -1.98762 0 0 -1.96506 
0 0 -1.89148 0 0 -1.96015 0 0 -1.95917 
0 0 -1.90571 0 0 -1.81006 0 0 -1.7978 
0 0 -1.76788 0 0 -1.71441 0 0 -1.73698 
0 0 -1.78357 0 0 -1.77278 0 0 -1.77671 
0 0 -1.72471 0 0 -1.80516 0 0 -1.79731 
0 0 -1.78897 0 0 -1.68695 0 0 -1.79682 
0 0 -1.73796 0 0 -1.79044 0 0 -1.70706 
0 0 -1.69479 0 0 -1.73109 0 0 -1.87824 
0 0 -1.55206 0 0 -1.53538 0 0 -1.51723 
0 0 -1.66929 0 0 -1.63103 0 0 -1.50889 
0 0 -1.65114 0 0 -1.60356 0 0 -1.49173 
0 0 -1.581 0 0 -1.66683 0 0 -1.49565 
0 0 -1.68351 0 0 -1.59473 0 0 -1.58688 
0 0 -1.61288 0 0 -1.65752 0 0 -1.54372 
0 0 -1.52802 0 0 -1.5084 0 0 -1.33722 
0 0 -1.44905 0 0 -1.31024 0 0 -1.29405 
0 0 -1.41668 0 0 -1.39166 0 0 -1.46033 
0 0 -1.36076 0 0 -1.41423 0 0 -1.30288 
0 0 -1.4206 0 0 -1.32398 0 0 -1.38872 
0 0 -1.38529 0 0 -1.41325 0 0 -1.42453 
0 0 -1.3382 0 0 -1.33526 0 0 -1.30239 
0 0 -1.3951 0 0 -1.21852 0 0 -1.24059 
0 0 -1.28572 0 0 -1.14445 0 0 -1.18173 
0 0 -1.17633 0 0 -1.10963 0 0 -1.1474 
0 0 -1.1783 0 0 -1.11453 0 0 -1.16947 
0 0 -1.20184 0 0 -1.10178 0 0 -1.1523 
0 0 -1.12679 0 0 -1.21116 0 0 -1.20626 
0 0 -1.24353 0 0 -1.28866 0 0 -1.13121 
-0 -0 -1 -0 -0 -1 -0 -0 -1 
0 0 -1.07627 0 0 -1.02673 0 0 -1.01398 
0 0 -1.01055 -0 -0 -1 0 0 -1.05224 
-0 -0 -1 0 0 -1.01104 0 0 -1.07971 
0 0 -1.05714 -0 -0 -1 -0 -0 -1 
-0 -0 -1 -0 -0 -1 -0 -0 -1 
0 0 -1.02869 -0 -0 -1 
f 3 320 double
0 0 -0.0128413 0 0 -0.0128413 0 0 -0.0128413 
0 0 -0.0128413 0 0 -0.0128413 0 0 -0.0128413 
0 0 -0.0128413 0 0 -0.0128413 0 0 -0.0128413 
0 0 -0.0128413 0 0 -0.0128413 0 0 -0.0128413 
0 0 -0.0128413 0 0 -0.0128413 0 0 -0.0128413 
0.0831713 -0.0724118 -0.414108 0 0 -0.0128413 0 0 -0.0128413 
0.307118 0.237811 -0.027898 0 0 -0.0128413 0 0 -0.0128413 
-0.79931 0.000587054 -0.112937 0 0 -0.0128413 0 0 -0.0128413 
0 0 -0.0128413 0 0 -0.0128413 0 0 -0.0128413 
0 0 -0.0128413 0 0 -0.0128413 0.0198521 0.132791 -0.0864547 
0 0 -0.0128413 0 0 -0.0128413 0 0 -0.0128413 
0 0 -0.0128413 -0.228984 0.276112 -0.0964795 0.00558597 -0.0152684 -0.0424701 
0 0 -0.0128413 0 0 -0.0128413 0 0 -0.0128413 
0 0 -0.0128413 -0.0616178 0.00126566 -0.00788848 0 0 -0.0128413 
0 0 -0.0128413 0 0 -0.0128413 0 0 -0.0128413 
0 0 -0.0128413 0 0 -0.0128413 0 0 -0.0128413 
0 0 -0.0128413 0 0 -0.0128413 0 0 -0.0128413 
0 0 -0.0128413 0 0 -0.0128413 0 0 -0.0128413 
0 0 -0.0128413 0 0 -0.0128413 0.227635 -0.227811 0.0838127 
0 0 -0.0128413 0 0 -0.0128413 0 0 -0.0128413 
0 0 -0.0128413 0 0 -0.0128413 -1.28089 0.00685089 -0.173605 
0 0 -0.0128413 0 0 -0.0128413 0 0 -0.0128413 
0 0 -0.0128413 0 0 -0.0128413 0 0 -0.0128413 
0.204947 0.825463 -0.0265641 0 0 -0.0128413 0 0 -0.0128413 
-0.0297575 -1.00752 0.0278062 0 0 -0.0128413 0 0 -0.0128413 
0 0 -0.0128413 0.269753 -0.274833 -0.507138 0 0 -0.0128413 
0 0 -0.0128413 0 0 -0.0128413 0 0 -0.0128413 
0 0 -0.0128413 0.288773 -0.551505 -0.185455 0 0 -0.0128413 
0.0171684 0.696948 -0.509691 0 0 -0.0128413 0 0 -0.0128413 
0 0 -0.0128413 0 0 -0.0128413 0 0 -0.0128413 
0 0 -0.0128413 0 0 -0.0128413 -1.18755 -0.00916008 -0.16226 
0 0 -0.0128413 0 0 -0.0128413 0 0 -0.0128413 
-0.269976 0.379458 0.272593 -0.204947 -0.825463 0.000881534 -0.000341549 -0.600795 0.213974 
0 0 -0.0128413 0 0 -0.0128413 -0.253696 -0.758945 -0.139514 
0 0 -0.0128413 0.0572631 -0.127666 -0.000421176 0 0 -0.0128413 
0 0 -0.0128413 0 0 -0.0128413 0 0 -0.0128413 
0 0 -0.0128413 0 0 -0.0128413 0.0709558 0.19671 0.162647 
0 0 -0.0128413 0 0 -0.0128413 0.520035 -0.0125483 0.319928 
0 0 -0.0128413 0 0 -0.0128413 0.0377241 -0.0719402 0.0415573 
0 0 -0.0128413 0 0 -0.0128413 -0.00797262 0.212363 -0.409619 
0 0 -0.0128413 -0.138057 -0.289767 -0.154215 0 0 -0.0128413 
0 0 -0.0128413 0 0 -0.0128413 -0.00108932 0.0226846 -0.00708343 
0.34777 0.650083 -0.36893 0 0 -0.0128413 0 0 -0.0128413 
0 0 -0.0128413 -0.0167973 0.567169 0.0100072 0 0 -0.0128413 
0 0 -0.0128413 0 0 -0.0128413 -0.239007 -0.0237618 -1.0269 
-0.188472 0.382777 0.686223 0 0 -0.0128413 -0.0572631 0.127666 -0.0252613 
0 0 -0.0128413 0 0 -0.0128413 0.441236 -0.470842 -0.708717 
0 0 -0.0128413 0 0 -0.0128413 0 0 -0.0128413 
-0.441236 0.470842 0.683035 0.239007 0.0237618 1.00121 0 0 -0.0128413 
0.154812 0.456588 -0.25732 0 0 -0.0128413 -0.0127197 0.604737 -0.0534749 
-0.0709558 -0.19671 -0.18833 0 0 -0.0128413 0 0 -0.0128413 
0 0 -0.0128413 0.0178742 -0.599737 0.56773 0 0 -0.0128413 
0.0357 -0.0269814 0.261609 0 0 -0.0128413 0 0 -0.0128413 
0 0 -0.0128413 -0.772162 -0.909734 -1.4736 -0.485495 0.526102 -1.15496 
0 0 -0.0128413 0 0 -0.0128413 -0.0125903 0.434359 -0.524558 
0.0255229 0.217194 0.396318 0.485495 -0.526102 1.12928 -0.00774303 -0.176648 -0.0170906 
0 0 -0.0128413 0 0 -0.0128413 0 0 -0.0128413 
0 0 -0.0128413 -0.103613 -0.365105 0.833632 -0.572003 -0.134736 -0.990752 
0.572003 0.134736 0.965069 0.798649 -0.570169 0.387106 -0.79756 0.547485 -0.418546 
0 0 -0.0128413 -0.0431676 0.00719282 0.0418457 0 0 -0.0128413 
0 0 -0.0128413 0 0 -0.0128413 0.0404721 0.0655098 0.00900726 
0 0 -0.0128413 0.772162 0.909734 1.44792 0 0 -0.0128413 
0 0 -0.0128413 -0.384078 1.00274 1.3512 0.0125903 -0.434359 0.498876 
0 0 -0.0128413 0.384078 -1.00274 -1.37688 0 0 -0.0128413 
0 0 -0.0128413 0 0 -0.0128413 0 0 -0.0128413 
0 0 -0.0128413 0 0 -0.0128413 0 0 -0.0128413 
0 0 -0.0128413 0 0 -0.0128413 0 0 -0.0128413 
0 0 -0.0128413 0 0 -0.0128413 0 0 -0.0128413 
0 0 -0.0128413 0 0 -0.0128413 0 0 -0.0128413 
0 0 -0.0128413 0 0 -0.0128413 0 0 -0.0128413 
0 0 -0.0128413 0 0 -0.0128413 0 0 -0.0128413 
0 0 -0.0128413 0 0 -0.0128413 0 0 -0.0128413 
0 0 -0.0128413 0 0 -0.0128413 0 0 -0.0128413 
0 0 -0.0128413 0 0 -0.0128413 0 0 -0.0128413 
0 0 -0.0128413 0 0 -0.0128413 0 0 -0.0128413 
0 0 -0.0128413 0 0 -0.0128413 0 0 -0.0128413 
0 0 -0.0128413 0 0 -0.0128413 0 0 -0.0128413 
0 0 -0.0128413 0 0 -0.0128413 0 0 -0.0128413 
0 0 -0.0128413 0 0 -0.0128413 0 0 -0.0128413 
0 0 -0.0128413 0 0 -0.0128413 0 0 -0.0128413 
0 0 -0.0128413 0 0 -0.0128413 0 0 -0.0128413 
0 0 -0.0128413 0 0 -0.0128413 0 0 -0.0128413 
0 0 -0.0128413 0 0 -0.0128413 0 0 -0.0128413 
0 0 -0.0128413 0 0 -0.0128413 0 0 -0.0128413 
0 0 -0.0128413 0 0 -0.0128413 0 0 -0.0128413 
0 0 -0.0128413 0 0 -0.0128413 0 0 -0.0128413 
0 0 -0.0128413 0 0 -0.0128413 0 0 -0.0128413 
0 0 -0.0128413 0 0 -0.0128413 0 0 -0.0128413 
0 0 -0.0128413 0 0 -0.0128413 0 0 -0.0128413 
0 0 -0.0128413 0 0 -0.0128413 0 0 -0.0128413 
0 0 -0.0128413 0 0 -0.0128413 0 0 -0.0128413 
0 0 -0.0128413 0 0 -0.0128413 0 0 -0.0128413 
0 0 -0.0128413 0 0 -0.0128413 0 0 -0.0128413 
0 0 -0.0128413 0 0 -0.0128413 0 0 -0.0128413 
0 0 -0.0128413 0 0 -0.0128413 0 0 -0.0128413 
0 0 -0.0128413 0 0 -0.0128413 0 0 -0.0128413 
0 0 -0.0128413 0 0 -0.0128413 0 0 -0.0128413 
0 0 -0.0128413 0 0 -0.0128413 0 0 -0.0128413 
0 0 -0.0128413 0 0 -0.0128413 0 0 -0.0128413 
0 0 -0.0128413 0 0 -0.0128413 0 0 -0.0128413 
0 0 0 0 0 0 0 0 0 
0 0 -0.0128413 0 0 -0.0128413 0 0 -0.0128413 
0 0 -0.0128413 0 0 0 0 0 -0.0128413 
0 0 0 0 0 -0.0128413 0 0 -0.0128413 
0 0 -0.0128413 0 0 0 0 0 0 
0 0 0 0 0 0 0 0 0 
0 0 -0.0128413 0 0 0 
radius 1 320 double
0.005 0.005 0.005 0.005 0.005 0.005 0.005 0.005 0.005 
0.005 0.005 0.005 0.005 0.005 0.005 0.005 0.005 0.005 
0.005 0.005 0.005 0.005 0.005 0.005 0.005 0.005 0.005 
0.005 0.005 0.005 0.005 0.005 0.005 0.005 0.005 0.005 
0.005 0.005 0.005 0.005 0.005 0.005 0.005 0.005 0.005 
0.005 0.005 0.005 0.005 0.005 0.005 0.005 0.005 0.005 
0.005 0.005 0.005 0.005 0.005 0.005 0.005 0.005 0.005 
0.005 0.005 0.005 0.005 0.005 0.005 0.005 0.005 0.005 
0.005 0.005 0.005 0.005 0.005 0.005 0.005 0.005 0.005 
0.005 0.005 0.005 0.005 0.005 0.005 0.005 0.005 0.005 
0.005 0.005 0.005 0.005 0.005 0.005 0.005 0.005 0.005 
0.005 0.005 0.005 0.005 0.005 0.005 0.005 0.005 0.005 
0.005 0.005 0.005 0.005 0.005 0.005 0.005 0.005 0.005 
0.005 0.005 0.005 0.005 0.005 0.005 0.005 0.005 0.005 
0.005 0.005 0.005 0.005 0.005 0.005 0.005 0.005 0.005 
0.005 0.005 0.005 0.005 0.005 0.005 0.005 0.005 0.005 
0.005 0.005 0.005 0.005 0.005 0.005 0.005 0.005 0.005 
0.005 0.005 0.005 0.005 0.005 0.005 0.005 0.005 0.005 
0.005 0.005 0.005 0.005 0.005 0.005 0.005 0.005 0.005 
0.005 0.005 0.005 0.005 0.005 0.005 0.005 0.005 0.005 
0.005 0.005 0.005 0.005 0.005 0.005 0.005 0.005 0.005 
0.005 0.005 0.005 0.005 0.005 0.005 0.005 0.005 0.005 
0.005 0.005 0.005 0.005 0.005 0.005 0.005 0.005 0.005 
0.005 0.005 0.005 0.005 0.005 0.005 0.005 0.005 0.005 