# vtk DataFile Version 4.0
Generated by LIGGGHTS
ASCII
DATASET POLYDATA
POINTS 500 float
0.432903 -0.0450044 -1.17884 0.433633 -0.038532 -1.17126 0.00498753 -0.0249983 -1.19501 
0.0333045 -0.0205784 -1.17447 0.00910061 -0.0241127 -1.16519 0.0285893 -0.00614627 -1.16866 
0.0383804 -0.0370596 -1.18385 0.0199724 -0.0377064 -1.15015 0.0731036 -0.0166077 -1.17804 
0.473125 -0.0172766 -1.17697 0.387713 -0.0432209 -1.16958 0.46632 -0.0116387 -1.195 
0.0225375 -0.0141864 -1.16566 0.393251 -0.00498955 -1.18622 0.0325328 -0.0151389 -1.16612 
0.411648 -0.030899 -1.18835 0.0267155 -0.0449785 -1.17874 0.494999 -0.0449753 -1.18074 
0.0352956 -0.0354729 -1.19502 0.483431 -0.014628 -1.18689 0.00499465 -0.0161116 -1.16958 
0.232135 -0.0277333 -1.19487 0.494117 -0.0450097 -1.195 0.0506633 -0.00500809 -1.18588 
0.297721 -0.0302606 -1.18 0.409328 -0.0428686 -1.17851 0.486178 -0.0284387 -1.19025 
0.462599 -0.0447576 -1.19501 0.395959 -0.0216373 -1.16954 0.0879436 -0.0149055 -1.18586 
0.0322925 -0.0203372 -1.18737 0.450562 -0.0449873 -1.18522 0.427489 -0.0107201 -1.17785 
0.464883 -0.01991 -1.18948 0.294341 -0.0322373 -1.1912 0.0292452 -0.0331156 -1.18743 
0.419574 -0.00501161 -1.19499 0.0150052 -0.0449997 -1.195 0.0299098 -0.0405331 -1.17033 
0.494065 -0.00967961 -1.18623 0.216105 -0.0295088 -0.245002 0.121069 -0.0244943 -1.19422 
0.0619923 -0.00640245 -1.16941 0.429352 -0.0360828 -1.18163 0.120123 -0.0359278 -1.19495 
0.470047 -0.0358933 -1.195 0.00509724 -0.0368091 -1.17907 0.00501541 -0.0199696 -1.18636 
0.487191 -0.044952 -1.187 0.440014 -0.0228435 -1.18566 0.408244 -0.00499736 -1.19502 
0.481202 -0.0448098 -1.195 0.020641 -0.00499674 -1.18676 0.0546922 -0.0423024 -1.17053 
0.00567514 -0.023895 -1.17719 0.0144982 -0.0364423 -1.17496 0.080519 -0.0274041 -1.19489 
0.0644333 -0.0174819 -1.17194 0.0134637 -0.00758515 -1.18029 0.0330179 -0.0299555 -1.16967 
0.0232655 -0.0360485 -1.195 0.453231 -0.0350061 -1.19501 0.0148345 -0.0164508 -1.17164 
0.0407803 -0.0199033 -1.1821 0.0705073 -0.0449597 -1.17162 0.436528 -0.0121988 -1.195 
0.440545 -0.0309069 -1.17199 0.460374 -0.0406112 -1.16091 0.443528 -0.00501025 -1.195 
0.00516356 -0.0130804 -1.17911 0.48788 -0.0370663 -1.19502 0.491948 -0.0206985 -1.18715 
0.0391574 -0.012721 -1.1891 0.0138546 -0.0204204 -1.19501 0.0475477 -0.0433147 -1.17746 
0.0536924 -0.0223096 -1.18234 0.0180549 -0.00499538 -1.17179 0.431548 -0.0108989 -1.16869 
0.422154 -0.0312307 -1.1866 0.494621 -0.0388801 -1.17283 0.0405396 -0.0351537 -1.17428 
0.0251806 -0.0249953 -1.18156 0.450624 -0.0192458 -1.18571 0.00539603 -0.00501346 -1.17321 
0.359185 -0.0421052 -0.616623 0.0534774 -0.035233 -1.17783 0.020251 -0.0356555 -1.18394 
0.384119 -0.0357147 -1.19499 0.445372 -0.0432533 -1.17665 0.00501977 -0.0050014 -1.185 
0.0451795 -0.0314976 -1.19501 0.409476 -0.00576306 -1.16811 0.0340035 -0.0109713 -1.15256 
0.00499772 -0.0299644 -1.18634 0.0050026 -0.0449921 -1.19498 0.0126162 -0.0125836 -1.18892 
0.124866 -0.0106562 -1.18703 0.0779652 -0.014062 -1.18636 0.266698 -0.0430841 -1.192 
0.0567381 -0.0449979 -1.19501 0.0714478 -0.0230761 -1.195 0.206835 -0.0449701 -0.245002 
0.0142223 -0.026051 -1.18657 0.465095 -0.0131171 -1.1816 0.376093 -0.0279639 -1.19498 
0.406393 -0.0184107 -1.16773 0.105915 -0.0376509 -1.18772 0.163973 -0.0353126 -1.19455 
0.102748 -0.0444431 -1.19498 0.0458218 -0.0284723 -1.18085 0.221371 -0.0162582 -1.18842 
0.0583869 -0.0306444 -1.18638 0.494997 -0.00499851 -1.195 0.413897 -0.0132484 -1.195 
0.0756466 -0.0154591 -1.16823 0.0387049 -0.0207073 -1.19504 0.36443 -0.0407308 -1.1491 
0.450809 -0.00515017 -1.18816 0.462158 -0.0449894 -1.18445 0.0491937 -0.0357264 -1.18684 
0.37756 -0.0111377 -1.17625 0.486995 -0.0295709 -1.17507 0.458192 -0.00506407 -1.19498 
0.465937 -0.00502888 -1.18742 0.47395 -0.00500423 -1.19502 0.0314781 -0.00499949 -1.1864 
0.205009 -0.0253279 -0.245002 0.469801 -0.0381155 -1.18427 0.494865 -0.0150967 -1.19502 
0.0140183 -0.0447333 -1.1806 0.034034 -0.0126741 -1.18053 0.494994 -0.0283326 -1.195 
0.0565615 -0.00519664 -1.195 0.0214117 -0.0450023 -1.18731 0.0471265 -0.0149894 -1.195 
0.42436 -0.0217403 -1.18891 0.018939 -0.0267378 -1.16372 0.34257 -0.00651922 -1.18411 
0.461669 -0.00576871 -1.16956 0.235142 -0.0412779 -1.195 0.442445 -0.0202638 -1.19501 
0.47063 -0.0288158 -1.18791 0.485972 -0.00936904 -1.195 0.420758 -0.0134402 -1.17087 
0.477468 -0.044452 -1.18302 0.425681 -0.0354848 -1.195 0.0165593 -0.0178381 -1.18139 
0.0550058 -0.0218216 -1.195 0.450002 -0.0126973 -1.195 0.138243 -0.0213333 -1.19102 
0.0734816 -0.00501381 -1.18668 0.441853 -0.0432337 -1.195 0.00501916 -0.04499 -1.18495 
0.477318 -0.0145228 -1.19501 0.363276 -0.0271446 -1.17954 0.456167 -0.0205859 -1.195 
0.0306313 -0.0266035 -1.195 0.48341 -0.00948514 -1.17842 0.0149938 -0.00500066 -1.19501 
0.477459 -0.0271099 -1.19501 0.00501239 -0.0349949 -1.195 0.241887 -0.018743 -1.195 
0.0256768 -0.0331906 -1.17589 0.0248831 -0.0139369 -1.18536 0.0329783 -0.0450129 -1.18653 
0.457864 -0.0127963 -1.18862 0.118149 -0.0204188 -1.18527 0.417722 -0.0450207 -1.17358 
0.0365679 -0.0050438 -1.195 0.0518188 -0.0174505 -1.16897 0.392724 -0.0139311 -1.19501 
0.020819 -0.0132674 -1.195 0.455933 -0.0437145 -1.17642 0.486497 -0.0356057 -1.18329 
0.199883 -0.0342759 -1.19499 0.0575176 -0.0268288 -1.17428 0.082179 -0.0170432 -1.19496 
0.483396 -0.0233977 -1.18207 0.0161764 -0.0267341 -1.17678 0.0547848 -0.0342276 -1.195 
0.338049 -0.0254251 -1.19296 0.494995 -0.0378735 -1.18805 0.4807 -0.00499233 -1.18766 
0.00500608 -0.0149796 -1.19501 0.0679053 -0.0132928 -1.18626 0.165555 -0.0408137 -1.18328 
0.0243086 -0.0238958 -1.17165 0.328081 -0.0102662 -1.18738 0.462868 -0.0229263 -1.18015 
0.305667 -0.0134058 -1.19049 0.0277487 -0.0449953 -1.19502 0.406742 -0.0449951 -1.19501 
0.408569 -0.0134562 -1.18655 0.00499681 -0.00499027 -1.195 0.114157 -0.0401589 -1.18201 
0.0438868 -0.0440666 -1.1468 0.386571 -0.025171 -1.17711 0.471894 -0.0450207 -1.19135 
0.206466 -0.0154108 -0.245002 0.494872 -0.029341 -1.18283 0.0809562 -0.0411991 -1.16865 
0.0492221 -0.0134916 -1.18079 0.452606 -0.0449903 -1.195 0.461585 -0.0363543 -1.18969 
0.435233 -0.0376849 -1.18955 0.0790802 -0.00501204 -1.19497 0.485895 -0.019686 -1.19504 
0.478937 -0.0361406 -1.19043 0.00642803 -0.045005 -1.17351 0.0633668 -0.0338665 -1.17833 
0.193831 -0.0100711 -1.19495 0.370246 -0.0365252 -1.19495 0.047501 -0.0412167 -1.19501 
0.0809244 -0.035884 -1.18791 0.4324 -0.0214812 -1.19499 0.316726 -0.0172962 -1.17758 
0.421184 -0.0450059 -1.195 0.398048 -0.00513581 -1.195 0.0246707 -0.0145821 -1.17537 
0.0873605 -0.0440549 -1.18647 0.419109 -0.00525025 -1.17821 0.257068 -0.0444747 -0.286884 
0.445625 -0.0367932 -1.18837 0.087831 -0.0342564 -1.19499 0.0676397 -0.00628078 -1.17845 
0.096267 -0.02279 -1.17778 0.413904 -0.00500305 -1.18676 0.135195 -0.00811907 -1.1949 
0.414158 -0.0378952 -1.19501 0.0373721 -0.0447998 -1.17756 0.0382776 -0.0450106 -1.195 
0.0408046 -0.00687582 -1.17326 0.0143786 -0.031413 -1.195 0.0263943 -0.00498885 -1.195 
0.0667023 -0.00504654 -1.195 0.492187 -0.0210123 -1.17717 0.454206 -0.0359765 -1.18276 
0.0381636 -0.0283248 -1.18865 0.0227538 -0.0221191 -1.19079 0.0730087 -0.0264709 -1.15775 
0.025773 -0.00500072 -1.17818 0.255895 -0.0449026 -1.1881 0.426214 -0.0449706 -1.1863 
0.0550288 -0.0134835 -1.18907 0.438809 -0.032364 -1.18186 0.0720912 -0.00500603 -1.16916 
0.463631 -0.0281392 -1.19501 0.0116865 -0.0383477 -1.18832 0.0598154 -0.0146575 -1.18037 
0.424858 -0.0138209 -1.195 0.362899 -0.00663721 -0.84093 0.0712008 -0.0449926 -1.19497 
0.08913 -0.00499327 -1.19501 0.429582 -0.00500471 -1.19501 0.421564 -0.0199307 -1.1793 
0.406149 -0.0323445 -1.17959 0.485448 -0.0431353 -1.1768 0.099008 -0.00595845 -1.19482 
0.40984 -0.0223859 -1.19501 0.357915 -0.0228397 -0.57103 0.0919674 -0.0146894 -1.19501 
0.127737 -0.034642 -1.1877 0.0537067 -0.0447178 -1.18547 0.0737215 -0.0351905 -1.19501 
0.031121 -0.0138545 -1.195 0.431692 -0.0284855 -1.18787 0.35756 -0.018091 -1.18603 
0.405591 -0.0387752 -1.18723 0.421973 -0.0362792 -1.17141 0.187935 -0.0182337 -1.19486 
0.436551 -0.0051173 -1.18784 0.102192 -0.0263694 -1.19475 0.0863334 -0.0248864 -1.18556 
0.347346 -0.0284322 -1.19081 0.431197 -0.0450103 -1.19501 0.310788 -0.0390586 -1.19403 
0.247394 -0.00503493 -1.195 0.00499774 -0.0314191 -1.17065 0.439227 -0.0303001 -1.19499 
0.283074 -0.0220437 -1.195 0.39774 -0.0449785 -1.18706 0.448411 -0.0157074 -1.17662 
0.108983 -0.00765759 -1.1948 0.060572 -0.0449461 -1.17823 0.225944 -0.00958599 -1.19502 
0.353459 -0.00673121 -1.18739 0.404073 -0.0305492 -1.19499 0.430737 -0.0134511 -1.18693 
0.0467788 -0.0233185 -1.18948 0.418603 -0.0271946 -1.19501 0.0340647 -0.0291284 -1.17958 
0.0924993 -0.0447152 -1.19501 0.448053 -0.0274567 -1.19094 0.0437747 -0.0450106 -1.18656 
0.189835 -0.0339647 -1.19499 0.392855 -0.0308208 -1.19499 0.0640148 -0.0380456 -1.195 
0.202726 -0.00537896 -1.195 0.474554 -0.0196234 -1.18686 0.0192797 -0.0448508 -1.17206 
0.0729737 -0.0129176 -1.195 0.105117 -0.0174023 -1.18028 0.398276 -0.0223707 -1.19499 
0.415867 -0.0287973 -1.17919 0.0982166 -0.0439839 -1.18609 0.278803 -0.0101868 -1.19246 
0.102179 -0.0154639 -1.19501 0.398806 -0.0313524 -1.18652 0.414376 -0.0215712 -1.18612 
0.390343 -0.0449786 -1.19494 0.449873 -0.00577352 -1.1782 0.33318 -0.0250695 -1.18228 
0.36444 -0.00815684 -1.19433 0.439175 -0.00919374 -1.17893 0.0697233 -0.0411438 -1.18088 
0.0906281 -0.0245999 -1.19489 0.176522 -0.0433251 -1.19292 0.386189 -0.0228506 -1.19501 
0.440578 -0.0449712 -1.18524 0.0819623 -0.0444095 -1.17807 0.403255 -0.00499449 -1.18636 
0.0495523 -0.0325619 -1.16901 0.0410175 -0.00499179 -1.18307 0.0616519 -0.00540407 -1.1864 
0.392517 -0.0233849 -1.18636 0.196054 -0.0248663 -1.19505 0.431361 -0.0213883 -1.18085 
0.0747948 -0.0238114 -1.18555 0.403245 -0.0136777 -1.19501 0.243212 -0.0069846 -1.18463 
0.256183 -0.0355308 -1.19495 0.221431 -0.0443435 -1.19365 0.388009 -0.00501409 -1.19489 
0.0465652 -0.00500563 -1.195 0.0441086 -0.0224744 -1.17303 0.212304 -0.0159544 -1.195 
0.411896 -0.0343167 -1.17157 0.186979 -0.0392715 -1.18699 0.122436 -0.00498562 -1.195 
0.149758 -0.042618 -1.19415 0.0619684 -0.021219 -1.18784 0.0630186 -0.0143453 -1.19501 
0.413827 -0.0450078 -1.18796 0.398722 -0.0389861 -1.195 0.09078 -0.0380065 -1.16581 
0.229175 -0.00517788 -0.245002 0.201976 -0.016513 -1.19492 0.382886 -0.0366598 -1.17842 
0.413781 -0.0138075 -1.17803 0.0877078 -0.0326893 -1.17504 0.232287 -0.026283 -1.18138 
0.113252 -0.00984973 -1.186 0.056271 -0.00551995 -1.17761 0.262146 -0.0151664 -1.19489 
0.373731 -0.0152887 -1.19001 0.183615 -0.00706294 -1.19498 0.365085 -0.0414642 -0.988584 
0.404123 -0.0229026 -1.18683 0.0682863 -0.0320759 -1.18698 0.353883 -0.0436732 -1.19166 
0.0893726 -0.00708082 -1.17626 0.244091 -0.0275747 -1.18118 0.443226 -0.0125655 -1.18756 
0.402836 -0.0140309 -1.1774 0.0924961 -0.0435182 -1.1779 0.24766 -0.027482 -1.19262 
0.334415 -0.0126324 -1.17959 0.278155 -0.0417091 -1.19397 0.296612 -0.0167602 -1.19477 
0.398369 -0.0049942 -1.17759 0.300289 -0.0404644 -1.195 0.221021 -0.0254804 -1.19494 
0.177775 -0.0269884 -1.19499 0.0917075 -0.0335031 -1.18421 0.379577 -0.0446108 -1.19498 
0.0636753 -0.0450068 -1.18782 0.425455 -0.00499076 -1.18592 0.27336 -0.0241385 -1.18794 
0.321323 -0.00643329 -1.19469 0.147936 -0.00556246 -1.19302 0.108064 -0.026858 -1.18532 
0.203555 -0.0449501 -1.18609 0.144931 -0.0279072 -1.19501 0.331008 -0.040586 -1.19436 
0.0628103 -0.0281224 -1.19501 0.0943286 -0.00500996 -1.18553 0.237311 -0.00594238 -1.19501 
0.22861 -0.00538365 -1.18594 0.336613 -0.0117026 -1.03772 0.347472 -0.0160204 -1.19238 
0.387772 -0.0134192 -1.18589 0.188802 -0.0449787 -1.195 0.142413 -0.034245 -1.18733 
0.126851 -0.0440174 -1.19487 0.41971 -0.0131412 -1.18646 0.376751 -0.00500133 -1.195 
0.110774 -0.0205821 -1.19376 0.447827 -0.0280897 -1.18093 0.18165 -0.0274475 -1.18244 
0.207686 -0.0349744 -0.245002 0.384112 -0.0450134 -1.18551 0.382571 -0.0134189 -1.19499 
0.408344 -0.0223935 -1.17767 0.38443 -0.0303704 -1.18616 0.0754748 -0.0330304 -1.17994 
0.392427 -0.0337382 -1.17887 0.00520515 -0.0397401 -1.1651 0.0821107 -0.0432122 -1.195 
0.397789 -0.0406335 -1.17123 0.0705989 -0.031688 -1.17025 0.176996 -0.0162645 -1.19415 
0.170293 -0.00881251 -1.19501 0.214566 -0.00512224 -1.195 0.335727 -0.0155189 -1.19479 
0.334989 -0.00563671 -1.19363 0.409205 -0.0441931 -1.16843 0.111238 -0.0306259 -1.19495 
0.377433 -0.03745 -1.18704 0.334593 -0.0447396 -1.18606 0.367363 -0.0236091 -1.17116 
0.0768507 -0.0450034 -1.1867 0.370836 -0.00597628 -1.18649 0.373187 -0.0450181 -1.17498 
0.131677 -0.0284533 -1.19451 0.362644 -0.0312356 -1.19015 0.473555 -0.0272911 -1.17842 
0.126483 -0.00617513 -1.17667 0.324323 -0.0178516 -1.19488 0.28413 -0.034965 -1.1857 
0.208825 -0.0447642 -1.1946 0.288991 -0.0403371 -1.19494 0.345958 -0.00585062 -1.19476 
0.398018 -0.0147789 -1.18654 0.425907 -0.0283447 -1.17612 0.30864 -0.0447798 -1.18576 
0.1988 -0.0448834 -1.19497 0.374396 -0.0276852 -1.07669 0.34466 -0.0337236 -0.91918 
0.40887 -0.00508987 -1.17808 0.346696 -0.0422057 -1.18263 0.161485 -0.0178907 -1.1917 
0.364592 -0.0448852 -1.19388 0.381173 -0.0209205 -1.18641 0.29006 -0.00660428 -1.19402 
0.25754 -0.0250361 -1.1929 0.316887 -0.0337209 -1.18307 0.0977082 -0.0353319 -1.19338 
0.265761 -0.00610624 -1.19279 0.195264 -0.0159633 -1.18573 0.137798 -0.0412782 -1.195 
0.43998 -0.0213061 -1.17577 0.340547 -0.0351815 -1.19379 0.348776 -0.0443563 -1.17291 
0.160131 -0.0447225 -1.195 0.392124 -0.0445997 -1.17859 0.376484 -0.0227875 -1.17563 
0.204715 -0.0346326 -1.18587 0.392648 -0.0132058 -1.17564 0.359435 -0.044075 -1.17949 
0.403767 -0.0281577 -1.17004 0.239728 -0.0347818 -1.14054 0.214426 -0.0446678 -1.18577 
0.0786679 -0.00552994 -1.17783 0.27627 -0.0311965 -1.19446 0.286588 -0.0367775 -0.338015 
0.26272 -0.035275 -1.18189 0.282523 -0.0252742 -1.18122 0.419244 -0.0394121 -1.18171 
0.227374 -0.0333828 -1.18799 0.398766 -0.0250203 -1.17868 0.356815 -0.0174813 -0.506482 
0.265466 -0.0311478 -1.19405 0.404501 -0.0270543 -1.13321 0.216876 -0.0345113 -1.18862 
0.29416 -0.0420916 -1.18662 0.308632 -0.0299276 -1.18759 0.0841082 -0.00498428 -1.18637 
0.386197 -0.00509991 -1.17447 0.359477 -0.0364233 -0.881782 0.368597 -0.0350308 -1.17293 
0.457344 -0.0274298 -1.18727 0.0664177 -0.0244187 -1.17949 0.350813 -0.0235767 -1.17933 
0.315315 -0.0109888 -1.18727 0.381074 -0.00520237 -1.18545 0.191316 -0.0395164 -1.15187 
0.0969697 -0.0206088 -1.18823 0.129816 -0.0173723 -1.195 0.477963 -0.0215992 -1.16773 
0.31176 -0.0204503 -1.19461 0.462496 -0.0342962 -1.17022 0.11276 -0.0438519 -1.1943 
0.454762 -0.0273188 -1.17368 0.209608 -0.0270742 -1.19475 0.338062 -0.0345796 -1.18312 
0.118883 -0.0147793 -1.195 0.372913 -0.0290633 -1.18327 0.369048 -0.0390533 -1.16237 
0.25056 -0.0142618 -1.19263 0.390903 -0.0377457 -1.18796 
VERTICES 500 1000
1 0 
1 1 
1 2 
1 3 
1 4 
1 5 
1 6 
1 7 
1 8 
1 9 
1 10 
1 11 
1 12 
1 13 
1 14 
1 15 
1 16 
1 17 
1 18 
1 19 
1 20 
1 21 
1 22 
1 23 
1 24 
1 25 
1 26 
1 27 
1 28 
1 29 
1 30 
1 31 
1 32 
1 33 
1 34 
1 35 
1 36 
1 37 
1 38 
1 39 
1 40 
1 41 
1 42 
1 43 
1 44 
1 45 
1 46 
1 47 
1 48 
1 49 
1 50 
1 51 
1 52 
1 53 
1 54 
1 55 
1 56 
1 57 
1 58 
1 59 
1 60 
1 61 
1 62 
1 63 
1 64 
1 65 
1 66 
1 67 
1 68 
1 69 
1 70 
1 71 
1 72 
1 73 
1 74 
1 75 
1 76 
1 77 
1 78 
1 79 
1 80 
1 81 
1 82 
1 83 
1 84 
1 85 
1 86 
1 87 
1 88 
1 89 
1 90 
1 91 
1 92 
1 93 
1 94 
1 95 
1 96 
1 97 
1 98 
1 99 
1 100 
1 101 
1 102 
1 103 
1 104 
1 105 
1 106 
1 107 
1 108 
1 109 
1 110 
1 111 
1 112 
1 113 
1 114 
1 115 
1 116 
1 117 
1 118 
1 119 
1 120 
1 121 
1 122 
1 123 
1 124 
1 125 
1 126 
1 127 
1 128 
1 129 
1 130 
1 131 
1 132 
1 133 
1 134 
1 135 
1 136 
1 137 
1 138 
1 139 
1 140 
1 141 
1 142 
1 143 
1 144 
1 145 
1 146 
1 147 
1 148 
1 149 
1 150 
1 151 
1 152 
1 153 
1 154 
1 155 
1 156 
1 157 
1 158 
1 159 
1 160 
1 161 
1 162 
1 163 
1 164 
1 165 
1 166 
1 167 
1 168 
1 169 
1 170 
1 171 
1 172 
1 173 
1 174 
1 175 
1 176 
1 177 
1 178 
1 179 
1 180 
1 181 
1 182 
1 183 
1 184 
1 185 
1 186 
1 187 
1 188 
1 189 
1 190 
1 191 
1 192 
1 193 
1 194 
1 195 
1 196 
1 197 
1 198 
1 199 
1 200 
1 201 
1 202 
1 203 
1 204 
1 205 
1 206 
1 207 
1 208 
1 209 
1 210 
1 211 
1 212 
1 213 
1 214 
1 215 
1 216 
1 217 
1 218 
1 219 
1 220 
1 221 
1 222 
1 223 
1 224 
1 225 
1 226 
1 227 
1 228 
1 229 
1 230 
1 231 
1 232 
1 233 
1 234 
1 235 
1 236 
1 237 
1 238 
1 239 
1 240 
1 241 
1 242 
1 243 
1 244 
1 245 
1 246 
1 247 
1 248 
1 249 
1 250 
1 251 
1 252 
1 253 
1 254 
1 255 
1 256 
1 257 
1 258 
1 259 
1 260 
1 261 
1 262 
1 263 
1 264 
1 265 
1 266 
1 267 
1 268 
1 269 
1 270 
1 271 
1 272 
1 273 
1 274 
1 275 
1 276 
1 277 
1 278 
1 279 
1 280 
1 281 
1 282 
1 283 
1 284 
1 285 
1 286 
1 287 
1 288 
1 289 
1 290 
1 291 
1 292 
1 293 
1 294 
1 295 
1 296 
1 297 
1 298 
1 299 
1 300 
1 301 
1 302 
1 303 
1 304 
1 305 
1 306 
1 307 
1 308 
1 309 
1 310 
1 311 
1 312 
1 313 
1 314 
1 315 
1 316 
1 317 
1 318 
1 319 
1 320 
1 321 
1 322 
1 323 
1 324 
1 325 
1 326 
1 327 
1 328 
1 329 
1 330 
1 331 
1 332 
1 333 
1 334 
1 335 
1 336 
1 337 
1 338 
1 339 
1 340 
1 341 
1 342 
1 343 
1 344 
1 345 
1 346 
1 347 
1 348 
1 349 
1 350 
1 351 
1 352 
1 353 
1 354 
1 355 
1 356 
1 357 
1 358 
1 359 
1 360 
1 361 
1 362 
1 363 
1 364 
1 365 
1 366 
1 367 
1 368 
1 369 
1 370 
1 371 
1 372 
1 373 
1 374 
1 375 
1 376 
1 377 
1 378 
1 379 
1 380 
1 381 
1 382 
1 383 
1 384 
1 385 
1 386 
1 387 
1 388 
1 389 
1 390 
1 391 
1 392 
1 393 
1 394 
1 395 
1 396 
1 397 
1 398 
1 399 
1 400 
1 401 
1 402 
1 403 
1 404 
1 405 
1 406 
1 407 
1 408 
1 409 
1 410 
1 411 
1 412 
1 413 
1 414 
1 415 
1 416 
1 417 
1 418 
1 419 
1 420 
1 421 
1 422 
1 423 
1 424 
1 425 
1 426 
1 427 
1 428 
1 429 
1 430 
1 431 
1 432 
1 433 
1 434 
1 435 
1 436 
1 437 
1 438 
1 439 
1 440 
1 441 
1 442 
1 443 
1 444 
1 445 
1 446 
1 447 
1 448 
1 449 
1 450 
1 451 
1 452 
1 453 
1 454 
1 455 
1 456 
1 457 
1 458 
1 459 
1 460 
1 461 
1 462 
1 463 
1 464 
1 465 
1 466 
1 467 
1 468 
1 469 
1 470 
1 471 
1 472 
1 473 
1 474 
1 475 
1 476 
1 477 
1 478 
1 479 
1 480 
1 481 
1 482 
1 483 
1 484 
1 485 
1 486 
1 487 
1 488 
1 489 
1 490 
1 491 
1 492 
1 493 
1 494 
1 495 
1 496 
1 497 
1 498 
1 499 

POINT_DATA 500
FIELD FieldData 7
id 1 500 int
1 2 3 4 5 6 7 8 9 
10 11 12 13 14 15 16 17 18 
19 20 21 22 23 24 25 26 27 
28 29 30 31 32 33 34 35 36 
37 38 39 40 41 42 43 44 45 
46 47 48 49 50 51 52 53 54 
55 56 57 58 59 60 61 62 63 
64 65 66 67 68 69 70 71 72 
73 74 75 76 77 78 79 80 81 
82 83 84 85 86 87 88 89 90 
91 92 93 94 95 96 97 98 99 
100 101 102 103 104 105 106 107 108 
109 110 111 112 113 114 115 116 117 
118 119 120 121 122 123 124 125 126 
127 128 129 130 131 132 133 134 135 
136 137 138 139 140 141 142 143 144 
145 146 147 148 149 150 151 152 153 
154 155 156 157 158 159 160 161 162 
163 164 165 166 167 168 169 170 171 
172 173 174 175 176 177 178 179 180 
181 182 183 184 185 186 187 188 189 
190 191 192 193 194 195 196 197 198 
199 200 201 202 203 204 205 206 207 
208 209 210 211 212 213 214 215 216 
217 218 219 220 221 222 223 224 225 
226 227 228 229 230 231 232 233 234 
235 236 237 238 239 240 241 242 243 
244 245 246 247 248 249 250 251 252 
253 254 255 256 257 258 259 260 261 
262 263 264 265 266 267 268 269 270 
271 272 273 274 275 276 277 278 279 
280 281 282 283 284 285 286 287 288 
289 290 291 292 293 294 295 296 297 
298 299 300 301 302 303 304 305 306 
307 308 309 310 311 312 313 314 315 
316 317 318 319 320 321 322 323 324 
325 326 327 328 329 330 331 332 333 
334 335 336 337 338 339 340 341 342 
343 344 345 346 347 348 349 350 351 
352 353 354 355 356 357 358 359 360 
361 362 363 364 365 366 367 368 369 
370 371 372 373 374 375 376 377 378 
379 380 381 382 383 384 385 386 387 
388 389 390 391 392 393 394 395 396 
397 398 399 400 401 402 403 404 405 
406 407 408 409 410 411 412 413 414 
415 416 417 418 419 420 421 422 423 
424 425 426 427 428 429 430 431 432 
433 434 435 436 437 438 439 440 441 
442 443 444 445 446 447 448 449 450 
451 452 453 454 455 456 457 458 459 
460 461 462 463 464 465 466 467 468 
469 470 471 472 473 474 475 476 477 
478 479 480 481 482 483 484 485 486 
487 488 489 490 491 492 493 494 495 
496 497 498 499 500 
type 1 500 int
1 1 1 1 1 1 1 1 1 
1 1 1 1 1 1 1 1 1 
1 1 1 1 1 1 1 1 1 
1 1 1 1 1 1 1 1 1 
1 1 1 1 1 1 1 1 1 
1 1 1 1 1 1 1 1 1 
1 1 1 1 1 1 1 1 1 
1 1 1 1 1 1 1 1 1 
1 1 1 1 1 1 1 1 1 
1 1 1 1 1 1 1 1 1 
1 1 1 1 1 1 1 1 1 
1 1 1 1 1 1 1 1 1 
1 1 1 1 1 1 1 1 1 
1 1 1 1 1 1 1 1 1 
1 1 1 1 1 1 1 1 1 
1 1 1 1 1 1 1 1 1 
1 1 1 1 1 1 1 1 1 
1 1 1 1 1 1 1 1 1 
1 1 1 1 1 1 1 1 1 
1 1 1 1 1 1 1 1 1 
1 1 1 1 1 1 1 1 1 
1 1 1 1 1 1 1 1 1 
1 1 1 1 1 1 1 1 1 
1 1 1 1 1 1 1 1 1 
1 1 1 1 1 1 1 1 1 
1 1 1 1 1 1 1 1 1 
1 1 1 1 1 1 1 1 1 
1 1 1 1 1 1 1 1 1 
1 1 1 1 1 1 1 1 1 
1 1 1 1 1 1 1 1 1 
1 1 1 1 1 1 1 1 1 
1 1 1 1 1 1 1 1 1 
1 1 1 1 1 1 1 1 1 
1 1 1 1 1 1 1 1 1 
1 1 1 1 1 1 1 1 1 
1 1 1 1 1 1 1 1 1 
1 1 1 1 1 1 1 1 1 
1 1 1 1 1 1 1 1 1 
1 1 1 1 1 1 1 1 1 
1 1 1 1 1 1 1 1 1 
1 1 1 1 1 1 1 1 1 
1 1 1 1 1 1 1 1 1 
1 1 1 1 1 1 1 1 1 
1 1 1 1 1 1 1 1 1 
1 1 1 1 1 1 1 1 1 
1 1 1 1 1 1 1 1 1 
1 1 1 1 1 1 1 1 1 
1 1 1 1 1 1 1 1 1 
1 1 1 1 1 1 1 1 1 
1 1 1 1 1 1 1 1 1 
1 1 1 1 1 1 1 1 1 
1 1 1 1 1 1 1 1 1 
1 1 1 1 1 1 1 1 1 
1 1 1 1 1 1 1 1 1 
1 1 1 1 1 1 1 1 1 
1 1 1 1 1 
i 3 500 int
0 0 0 0 0 0 0 0 0 
0 0 0 0 0 0 0 0 0 
0 0 0 0 0 0 0 0 0 
0 0 0 0 0 0 0 0 0 
0 0 0 0 0 0 0 0 0 
0 0 0 0 0 0 0 0 0 
0 0 0 0 0 0 0 0 0 
0 0 0 0 0 0 0 0 0 
0 0 0 0 0 0 0 0 0 
0 0 0 0 0 0 0 0 0 
0 0 0 0 0 0 0 0 0 
0 0 0 0 0 0 0 0 0 
0 0 0 0 0 0 0 0 0 
0 0 0 0 0 0 0 0 0 
0 0 0 0 0 0 0 0 0 
0 0 0 0 0 0 0 0 0 
0 0 0 0 0 0 0 0 0 
0 0 0 0 0 0 0 0 0 
0 0 0 0 0 0 0 0 0 
0 0 0 0 0 0 0 0 0 
0 0 0 0 0 0 0 0 0 
0 0 0 0 0 0 0 0 0 
0 0 0 0 0 0 0 0 0 
0 0 0 0 0 0 0 0 0 
0 0 0 0 0 0 0 0 0 
0 0 0 0 0 0 0 0 0 
0 0 0 0 0 0 0 0 0 
0 0 0 0 0 0 0 0 0 
0 0 0 0 0 0 0 0 0 
0 0 0 0 0 0 0 0 0 
0 0 0 0 0 0 0 0 0 
0 0 0 0 0 0 0 0 0 
0 0 0 0 0 0 0 0 0 
0 0 0 0 0 0 0 0 0 
0 0 0 0 0 0 0 0 0 
0 0 0 0 0 0 0 0 0 
0 0 0 0 0 0 0 0 0 
0 0 0 0 0 0 0 0 0 
0 0 0 0 0 0 0 0 0 
0 0 0 0 0 0 0 0 0 
0 0 0 0 0 0 0 0 0 
0 0 0 0 0 0 0 0 0 
0 0 0 0 0 0 0 0 0 
0 0 0 0 0 0 0 0 0 
0 0 0 0 0 0 0 0 0 
0 0 0 0 0 0 0 0 0 
0 0 0 0 0 0 0 0 0 
0 0 0 0 0 0 0 0 0 
0 0 0 0 0 0 0 0 0 
0 0 0 0 0 0 0 0 0 
0 0 0 0 0 0 0 0 0 
0 0 0 0 0 0 0 0 0 
0 0 0 0 0 0 0 0 0 
0 0 0 0 0 0 0 0 0 
0 0 0 0 0 0 0 0 0 
0 0 0 0 0 0 0 0 0 
0 0 0 0 0 0 0 0 0 
0 0 0 0 0 0 0 0 0 
0 0 0 0 0 0 0 0 0 
0 0 0 0 0 0 0 0 0 
0 0 0 0 0 0 0 0 0 
0 0 0 0 0 0 0 0 0 
0 0 0 0 0 0 0 0 0 
0 0 0 0 0 0 0 0 0 
0 0 0 0 0 0 0 0 0 
0 0 0 0 0 0 0 0 0 
0 0 0 0 0 0 0 0 0 
0 0 0 0 0 0 0 0 0 
0 0 0 0 0 0 0 0 0 
0 0 0 0 0 0 0 0 0 
0 0 0 0 0 0 0 0 0 
0 0 0 0 0 0 0 0 0 
0 0 0 0 0 0 0 0 0 
0 0 0 0 0 0 0 0 0 
0 0 0 0 0 0 0 0 0 
0 0 0 0 0 0 0 0 0 
0 0 0 0 0 0 0 0 0 
0 0 0 0 0 0 0 0 0 
0 0 0 0 0 0 0 0 0 
0 0 0 0 0 0 0 0 0 
0 0 0 0 0 0 0 0 0 
0 0 0 0 0 0 0 0 0 
0 0 0 0 0 0 0 0 0 
0 0 0 0 0 0 0 0 0 
0 0 0 0 0 0 0 0 0 
0 0 0 0 0 0 0 0 0 
0 0 0 0 0 0 0 0 0 
0 0 0 0 0 0 0 0 0 
0 0 0 0 0 0 0 0 0 
0 0 0 0 0 0 0 0 0 
0 0 0 0 0 0 0 0 0 
0 0 0 0 0 0 0 0 0 
0 0 0 0 0 0 0 0 0 
0 0 0 0 0 0 0 0 0 
0 0 0 0 0 0 0 0 0 
0 0 0 0 0 0 0 0 0 
0 0 0 0 0 0 0 0 0 
0 0 0 0 0 0 0 0 0 
0 0 0 0 0 0 0 0 0 
0 0 0 0 0 0 0 0 0 
0 0 0 0 0 0 0 0 0 
0 0 0 0 0 0 0 0 0 
0 0 0 0 0 0 0 0 0 
0 0 0 0 0 0 0 0 0 
0 0 0 0 0 0 0 0 0 
0 0 0 0 0 0 0 0 0 
0 0 0 0 0 0 0 0 0 
0 0 0 0 0 0 0 0 0 
0 0 0 0 0 0 0 0 0 
0 0 0 0 0 0 0 0 0 
0 0 0 0 0 0 0 0 0 
0 0 0 0 0 0 0 0 0 
0 0 0 0 0 0 0 0 0 
0 0 0 0 0 0 0 0 0 
0 0 0 0 0 0 0 0 0 
0 0 0 0 0 0 0 0 0 
0 0 0 0 0 0 0 0 0 
0 0 0 0 0 0 0 0 0 
0 0 0 0 0 0 0 0 0 
0 0 0 0 0 0 0 0 0 
0 0 0 0 0 0 0 0 0 
0 0 0 0 0 0 0 0 0 
0 0 0 0 0 0 0 0 0 
0 0 0 0 0 0 0 0 0 
0 0 0 0 0 0 0 0 0 
0 0 0 0 0 0 0 0 0 
0 0 0 0 0 0 0 0 0 
0 0 0 0 0 0 0 0 0 
0 0 0 0 0 0 0 0 0 
0 0 0 0 0 0 0 0 0 
0 0 0 0 0 0 0 0 0 
0 0 0 0 0 0 0 0 0 
0 0 0 0 0 0 0 0 0 
0 0 0 0 0 0 0 0 0 
0 0 0 0 0 0 0 0 0 
0 0 0 0 0 0 0 0 0 
0 0 0 0 0 0 0 0 0 
0 0 0 0 0 0 0 0 0 
0 0 0 0 0 0 0 0 0 
0 0 0 0 0 0 0 0 0 
0 0 0 0 0 0 0 0 0 
0 0 0 0 0 0 0 0 0 
0 0 0 0 0 0 0 0 0 
0 0 0 0 0 0 0 0 0 
0 0 0 0 0 0 0 0 0 
0 0 0 0 0 0 0 0 0 
0 0 0 0 0 0 0 0 0 
0 0 0 0 0 0 0 0 0 
0 0 0 0 0 0 0 0 0 
0 0 0 0 0 0 0 0 0 
0 0 0 0 0 0 0 0 0 
0 0 0 0 0 0 0 0 0 
0 0 0 0 0 0 0 0 0 
0 0 0 0 0 0 0 0 0 
0 0 0 0 0 0 0 0 0 
0 0 0 0 0 0 0 0 0 
0 0 0 0 0 0 0 0 0 
0 0 0 0 0 0 0 0 0 
0 0 0 0 0 0 0 0 0 
0 0 0 0 0 0 0 0 0 
0 0 0 0 0 0 0 0 0 
0 0 0 0 0 0 0 0 0 
0 0 0 0 0 0 0 0 0 
0 0 0 0 0 0 0 0 0 
0 0 0 0 0 0 0 0 0 
0 0 0 0 0 0 0 0 0 
0 0 0 0 0 0 
v 3 500 double
-0.0937576 0.00687885 0.0186806 -0.145314 -0.0134102 0.0398009 0.00367713 0.003599 -0.00987466 
0.0769917 -0.00986508 -0.00530666 0.0465805 0.0259701 -0.0433556 -0.00529158 0.0271685 0.0324077 
0.0905128 -0.00583078 0.0554957 0.116776 0.169952 -0.679784 0.0602313 0.0256591 -0.0468998 
0.0843258 -0.037679 -0.096961 -0.252516 0.0051148 0.0189362 -0.0472809 -0.0643088 -0.0037183 
0.143867 0.0784033 -0.161795 -0.0856335 0.103856 -0.0295264 0.0871674 0.0254725 -0.0366956 
-0.120603 -0.00764171 0.0293505 0.0861348 0.00405694 -0.010623 -0.00258687 0.0162509 -0.0481261 
0.149031 0.0129853 0.0288396 -0.0370225 -0.0816694 -0.157948 0.00862293 0.0410448 0.0105942 
-0.522034 -0.113405 -0.110413 0.0101519 -0.0231755 0.0139085 0.0593824 0.00456134 -0.0405607 
-0.149271 -0.105707 -0.0831208 -0.169856 -0.075216 -0.0413349 -0.0465303 -0.0675062 -0.0376831 
-0.118374 0.0227293 -0.00109755 -0.100582 -0.184309 0.0515992 0.0875474 0.169741 0.0470375 
0.0525865 -0.0159642 0.000579701 -0.109313 0.0436709 -0.00968614 -0.124127 -0.0463167 -0.0214748 
0.036514 -0.00320062 -0.0644534 -0.313375 0.00960075 -0.263714 0.122104 -0.0628276 0.0255743 
-0.160207 -0.0144677 -0.00482877 0.00512348 -0.00401559 -8.44896e-05 0.0868893 0.0377078 -0.0787766 
-0.0227626 0.0501078 -0.0565679 0.0183497 -0.0234269 -4.34662e-09 -0.273633 0.0764866 0.144716 
0.0623481 -0.0412232 -0.103542 -0.132076 -0.0181093 -0.0267232 0.0075564 0.193596 0.0170398 
-0.086121 -0.00259928 0.012104 -0.0113373 0.0153637 0.00674216 -0.00212888 0.0191133 -0.00857102 
-0.00655677 0.00890974 -0.0508493 -0.0999678 -0.0632707 -0.0315418 -0.0955163 -0.00662816 -7.48935e-05 
-0.0736769 -0.00110604 0.00210432 0.0142152 0.00296631 0.00559955 0.0543781 -0.00283065 0.00238907 
0.018318 -0.0144589 -0.0243882 0.0261157 -0.024755 -0.0143895 -0.00783226 -0.0750772 -0.106982 
0.0900065 -0.0659353 -0.0438743 0.00111763 0.011301 0.00802387 0.0425857 -0.0741177 -0.0167374 
0.0636861 0.0197673 -0.000923254 -0.0536701 0.00709599 -0.0171534 -0.0103008 -0.0124316 -0.0573998 
0.0812307 0.0292056 -0.0282571 0.184618 -0.022465 -0.0131177 -0.085191 0.0561184 -0.000478167 
-0.0456721 -0.0338465 -0.267451 -0.267009 0.423571 -0.361373 -0.0066374 -0.00500968 0.00311961 
-0.0100293 0.0176517 -0.00046375 -0.0384226 -0.0161421 -0.00670801 -0.00162265 0.0163655 0.00871094 
0.0067389 0.0444985 -0.0587359 0.0120089 -0.00450084 0.00143451 0.0796906 -0.00810324 0.0181244 
0.0113595 0.0304174 -0.0285015 -0.00411351 0.00818505 0.012125 -0.202623 -0.0301371 0.00586254 
-0.0873123 0.0352229 -0.0627201 0.00307016 0.0724147 -0.0999597 0.0337587 -0.0104608 0.078721 
-0.0395029 -0.0205617 -0.0469068 -0.0695295 -0.0482803 -0.093025 0.00644428 -0.0100342 0.0290491 
0.0524946 -0.0185243 -2.63841 0.0365084 -0.0156826 -0.00793698 0.0208949 0.0321785 -0.108343 
-0.12129 -0.0201414 -0.0372105 -0.114039 0.0624055 -0.0195054 0.00399675 0.000209699 -0.00243178 
0.0403109 -0.0427986 0.00224803 -0.155186 -0.00914288 -0.0284122 0.183993 -0.0524007 -0.667784 
-0.00322118 0.00696433 -0.0178625 0.0010355 0.000231587 0.0126186 0.0265487 -0.00184734 0.0012113 
0.0374495 0.113702 -0.0627907 0.0998152 0.00164223 -0.0498884 -0.321332 0.149884 0.0381238 
0.0657463 -0.0241042 -0.0106384 0.011206 0.0737725 0.000195645 0.00177682 -7.62423e-05 -8.0687e-08 
0.0207878 -0.0274096 -0.00150064 -0.0144643 0.029638 0.0236495 -0.124246 0.0494814 -0.0235937 
-0.139529 -0.138001 0.107585 -0.0593304 -0.153781 0.196567 -0.53998 -0.0773369 -0.111016 
0.0765678 0.0225669 -0.0012749 0.0490486 -0.0158551 -0.0309473 -0.619186 -0.00192107 -0.108162 
0.0465186 0.0190011 -0.0250923 -0.00288533 0.00493673 -0.00981213 -0.126704 -0.0359665 -0.00757495 
0.147993 -0.0401418 -0.0425231 0.0419735 -0.0300064 0.00840471 0.0395309 0.0464237 -4.17702 
0.00837468 -0.0063171 -0.0119479 -0.0544221 0.0221878 -0.0165994 0.0550232 -0.0331373 0.000369716 
-0.0635626 0.0881831 0.0228687 -0.0316017 0.0193056 -0.00149918 0.0419809 -0.0188676 -0.00797398 
0.0198625 -0.0135638 -0.0380198 -0.0631028 0.008903 0.00392116 -0.00870148 -0.00538067 0.0188794 
0.00100212 -0.000641882 -1.09717e-05 -0.0150263 0.00678631 -0.0413242 -0.0141239 -0.0109609 -0.00492979 
0.0169973 -0.0733245 0.0080581 0.0445208 -0.0141072 -0.0192439 -0.00138189 -0.0213025 -0.000245447 
-0.0299015 -0.000687506 0.00328678 0.015535 -0.00731085 0.0144892 0.0480366 0.000978745 -0.00265708 
-0.141827 0.0171742 0.0337053 0.0073685 -0.149277 -0.102064 -0.45364 -0.150321 0.0421758 
-0.118533 0.0128783 -0.249873 -0.539033 0.0285754 0.00371364 -0.0913409 0.0608396 -0.0028031 
-0.0980918 0.00612201 -0.0169768 -0.0204077 -0.00284719 -0.00911026 -0.131474 0.0439126 0.0249994 
0.0047098 -0.00787937 -0.131947 -0.156559 0.0263442 -6.20027e-08 0.0950157 -0.0180844 -0.0467964 
0.0655357 -0.0437287 0.0045239 -0.00657379 -0.0187591 -0.00034988 -0.36522 0.174582 -0.000350121 
0.0141336 0.0161572 0.0332069 -0.117977 -0.0459151 -0.0144558 -0.00112461 0.00608608 0.0401446 
-0.0642085 0.0126513 -0.00240878 -0.307278 0.0606284 -0.00250385 -0.0156993 -0.0194362 0.00201041 
0.0205956 -0.0403601 0.00198179 -0.024381 0.104727 -0.0811597 0.0182168 -0.000144391 -0.00310766 
-0.0806502 0.0639328 0.014806 0.00480093 0.000565818 -0.00738555 -0.442476 -0.0328516 -0.000274746 
-0.0169956 -0.0603557 -0.0148085 0.037295 0.00290756 -0.0891567 0.0509924 0.0283226 -0.00149245 
-0.00485967 -0.0340356 -0.0186752 -0.113293 0.0612284 0.207077 -0.18317 -0.0297715 0.0109417 
-0.0282077 -0.00471832 0.00511334 0.104677 0.176061 -0.261206 -0.142772 -0.0378739 0.0248277 