# vtk DataFile Version 4.0
Generated by LIGGGHTS
ASCII
DATASET POLYDATA
POINTS 500 float
0.422356 -0.0450003 -1.18134 0.426958 -0.0299642 -1.1863 0.00505583 -0.025004 -1.19501 
0.0388465 -0.0202796 -1.17454 0.0168435 -0.022409 -1.1725 0.0358605 -0.00499864 -1.17536 
0.0448458 -0.0364404 -1.1862 0.0321052 -0.0450005 -1.1761 0.0892235 -0.0139558 -1.17769 
0.469197 -0.00500606 -1.18501 0.364916 -0.0436589 -1.18774 0.463586 -0.0132473 -1.195 
0.0214136 -0.0142118 -1.16905 0.319313 -0.00530334 -1.195 0.0434296 -0.0114044 -1.17408 
0.391254 -0.0289961 -1.195 0.0276879 -0.0450054 -1.18507 0.495001 -0.0450011 -1.18513 
0.0401316 -0.0360903 -1.19501 0.482146 -0.0137291 -1.18709 0.00547344 -0.0199125 -1.17185 
0.18028 -0.0301766 -1.18763 0.493414 -0.045001 -1.195 0.0532387 -0.00499384 -1.18644 
0.170668 -0.0274393 -1.1861 0.388972 -0.0450003 -1.18337 0.485714 -0.0286952 -1.19501 
0.457467 -0.0450023 -1.195 0.316926 -0.0151365 -1.1949 0.0942301 -0.013654 -1.18634 
0.034166 -0.0204897 -1.1878 0.441963 -0.0449587 -1.18637 0.412943 -0.0157035 -1.18534 
0.46053 -0.020371 -1.18869 0.206836 -0.0336488 -1.19495 0.0332706 -0.0371958 -1.18783 
0.403671 -0.0049977 -1.19501 0.0148695 -0.0434658 -1.19501 0.0379567 -0.0374321 -1.17901 
0.495003 -0.0100048 -1.18635 0.223537 -0.0389967 -0.245002 0.112615 -0.0276955 -1.19501 
0.0689843 -0.00895569 -1.17148 0.420963 -0.0377648 -1.1881 0.117601 -0.0363524 -1.195 
0.46702 -0.0350115 -1.195 0.00541319 -0.0369205 -1.17915 0.00499804 -0.0200009 -1.18636 
0.485092 -0.0450016 -1.18727 0.430512 -0.0203144 -1.18793 0.387428 -0.00521529 -1.195 
0.477897 -0.045 -1.195 0.0215499 -0.00499924 -1.18746 0.0600343 -0.0450009 -1.1692 
0.009919 -0.0249896 -1.17923 0.0148704 -0.0336748 -1.17927 0.0842063 -0.02239 -1.195 
0.0682655 -0.0189313 -1.17154 0.0140723 -0.00499933 -1.18083 0.0428926 -0.029323 -1.17589 
0.0266212 -0.0351817 -1.19501 0.450131 -0.035516 -1.19501 0.0148458 -0.0147041 -1.17855 
0.0438328 -0.0208291 -1.1852 0.0761318 -0.0450014 -1.17828 0.42994 -0.0132981 -1.19501 
0.436156 -0.0310385 -1.17859 0.445498 -0.026805 -1.18117 0.436729 -0.00500155 -1.195 
0.00499792 -0.0130862 -1.17914 0.485657 -0.0386926 -1.195 0.492035 -0.0199944 -1.18687 
0.042597 -0.0117603 -1.18921 0.0136814 -0.0199457 -1.19501 0.0549966 -0.0450023 -1.17784 
0.0535705 -0.0202888 -1.1874 0.0194169 -0.00499889 -1.17238 0.420402 -0.00499679 -1.18332 
0.406096 -0.0312635 -1.19501 0.492377 -0.0370232 -1.17971 0.049647 -0.0365851 -1.17716 
0.0277007 -0.0281091 -1.18804 0.445459 -0.0197258 -1.18822 0.0071042 -0.0049982 -1.17366 
0.190261 -0.0358936 -1.17669 0.0601295 -0.0364217 -1.1777 0.0214706 -0.0357922 -1.18647 
0.305234 -0.0349563 -1.18665 0.433962 -0.0449574 -1.18037 0.00499662 -0.00499756 -1.18501 
0.0501216 -0.0364142 -1.19501 0.401966 -0.0232898 -1.17489 0.0598488 -0.00500058 -1.17052 
0.00499435 -0.0299992 -1.18635 0.00499544 -0.0450014 -1.19501 0.011758 -0.0117588 -1.18839 
0.126032 -0.00500101 -1.18634 0.0842223 -0.0136509 -1.18635 0.190954 -0.0450009 -1.195 
0.0652295 -0.0450006 -1.19501 0.0737845 -0.0221327 -1.195 0.207555 -0.0449996 -0.245002 
0.0143872 -0.0269872 -1.18795 0.462117 -0.012017 -1.18343 0.291897 -0.0147024 -1.195 
0.368861 -0.00802467 -1.1858 0.107629 -0.04214 -1.18683 0.135995 -0.0309431 -1.195 
0.102603 -0.0450056 -1.19501 0.0499041 -0.0284526 -1.18296 0.176017 -0.0137307 -1.195 
0.0601114 -0.0277621 -1.18627 0.495001 -0.00499833 -1.195 0.394708 -0.0122157 -1.19501 
0.101282 -0.0150681 -1.1794 0.0410476 -0.0197471 -1.19501 0.254881 -0.00982826 -1.18764 
0.444149 -0.00499816 -1.18831 0.462569 -0.0450056 -1.18629 0.0551113 -0.0364172 -1.18635 
0.274027 -0.0158358 -1.19293 0.48905 -0.0259979 -1.17945 0.451574 -0.00498725 -1.19501 
0.460404 -0.00499676 -1.19034 0.469239 -0.00499958 -1.19501 0.0336504 -0.00499476 -1.18606 
0.2052 -0.024941 -0.245002 0.467633 -0.0364641 -1.18513 0.495002 -0.0149968 -1.19501 
0.0177064 -0.045007 -1.18555 0.0366366 -0.0132791 -1.18133 0.495002 -0.024995 -1.19501 
0.0582204 -0.00631028 -1.19501 0.0247475 -0.045002 -1.195 0.050162 -0.01478 -1.19501 
0.41371 -0.0231522 -1.19499 0.0219665 -0.0316565 -1.17245 0.249001 -0.0204714 -1.1865 
0.453391 -0.00499741 -1.1831 0.187761 -0.0270671 -1.195 0.437815 -0.0199194 -1.195 
0.468449 -0.0262097 -1.19048 0.485712 -0.00869809 -1.195 0.422728 -0.0179222 -1.17797 
0.472675 -0.045001 -1.18647 0.413681 -0.0377866 -1.195 0.0191704 -0.0182841 -1.18682 
0.0598721 -0.0188428 -1.19501 0.444921 -0.0124333 -1.19501 0.131 -0.0165442 -1.18681 
0.0792336 -0.0049932 -1.18635 0.43692 -0.044969 -1.195 0.00499819 -0.0450026 -1.18501 
0.47605 -0.013453 -1.19501 0.231718 -0.0302829 -1.18719 0.452744 -0.0209197 -1.19501 
0.0348543 -0.0275975 -1.195 0.486478 -0.00499575 -1.18489 0.0149958 -0.00499883 -1.19501 
0.476937 -0.0234846 -1.195 0.00499748 -0.0350021 -1.19501 0.185957 -0.00864929 -1.18709 
0.0285206 -0.0341792 -1.17957 0.0276025 -0.0129244 -1.18671 0.0396833 -0.0450014 -1.18631 
0.45401 -0.0128173 -1.18929 0.119383 -0.0123543 -1.18765 0.397957 -0.0450012 -1.18944 
0.0380954 -0.00499033 -1.19501 0.057243 -0.0134095 -1.17583 0.229513 -0.0134375 -1.17625 
0.0215469 -0.0125536 -1.195 0.452232 -0.0449222 -1.18649 0.485685 -0.0336876 -1.18635 
0.154419 -0.0363258 -1.195 0.0614279 -0.0222146 -1.17806 0.089217 -0.013658 -1.19501 
0.48275 -0.0237047 -1.18687 0.0212178 -0.0260668 -1.18071 0.0601178 -0.036213 -1.195 
0.23666 -0.0341621 -1.19499 0.495 -0.0351287 -1.195 0.477888 -0.00499835 -1.19 
0.00499728 -0.0149936 -1.19501 0.0735796 -0.0132248 -1.18678 0.138995 -0.0269048 -1.18636 
0.0310757 -0.0245222 -1.17919 0.235177 -0.00791415 -1.18681 0.465385 -0.0208037 -1.17996 
0.195828 -0.0435622 -1.18639 0.0347453 -0.0449937 -1.195 0.379331 -0.0447761 -1.195 
0.385155 -0.0147358 -1.19277 0.00499834 -0.0049977 -1.19501 0.117598 -0.0430405 -1.18656 
0.0151012 -0.0386907 -1.17062 0.285274 -0.00748603 -1.18589 0.467466 -0.0450007 -1.19501 
0.208221 -0.0152996 -0.245002 0.495002 -0.0300583 -1.18639 0.096305 -0.024072 -1.17949 
0.049358 -0.0130373 -1.18196 0.446997 -0.0450045 -1.195 0.45861 -0.0365353 -1.18982 
0.428753 -0.0370555 -1.19501 0.0842311 -0.0049966 -1.19501 0.485714 -0.0186967 -1.195 
0.476944 -0.0337866 -1.195 0.011681 -0.0450014 -1.17758 0.0652334 -0.036347 -1.18629 
0.161026 -0.00499865 -1.195 0.284555 -0.0308405 -1.19484 0.0552315 -0.0450033 -1.19501 
0.084011 -0.0308278 -1.18642 0.423468 -0.0209151 -1.19501 0.235147 -0.0136758 -1.195 
0.40645 -0.045002 -1.195 0.36578 -0.00515601 -1.19495 0.0245649 -0.0170104 -1.17811 
0.0907055 -0.0380812 -1.188 0.4042 -0.00570145 -1.18254 0.324574 -0.0219216 -1.13754 
0.438917 -0.0350965 -1.19501 0.0891133 -0.0310977 -1.19501 0.0712163 -0.00499626 -1.18038 
0.106331 -0.0236912 -1.17974 0.394854 -0.005005 -1.18808 0.131026 -0.00498664 -1.195 
0.397694 -0.036706 -1.19501 0.0442785 -0.045008 -1.17743 0.0447448 -0.0449715 -1.195 
0.0518605 -0.00500237 -1.17654 0.0167424 -0.033647 -1.19501 0.0280999 -0.00500023 -1.19501 
0.074239 -0.00504982 -1.19501 0.488767 -0.0139554 -1.1796 0.444522 -0.0352957 -1.18673 
0.0453909 -0.0281848 -1.19188 0.0233793 -0.0223836 -1.195 0.0724301 -0.0344362 -1.17962 
0.026703 -0.00657912 -1.17904 0.175134 -0.0410618 -1.18646 0.413663 -0.0449976 -1.18808 
0.0598087 -0.0124808 -1.1873 0.434183 -0.0369537 -1.1864 0.0784678 -0.0161071 -1.17855 
0.459733 -0.0280714 -1.19501 0.0112568 -0.0376767 -1.18769 0.0663799 -0.0137268 -1.17987 
0.412343 -0.0132303 -1.195 0.269956 -0.024011 -1.18593 0.0753155 -0.0450011 -1.195 
0.0942234 -0.00499612 -1.195 0.419775 -0.00500114 -1.19501 0.405721 -0.0226245 -1.18524 
0.34499 -0.0134099 -1.1931 0.479142 -0.0393573 -1.18135 0.104217 -0.00499585 -1.195 
0.382329 -0.0241209 -1.195 0.276631 -0.0342611 -1.18366 0.0992081 -0.0136579 -1.19501 
0.124269 -0.0356197 -1.1856 0.0602335 -0.0450033 -1.18635 0.0788925 -0.0308613 -1.195 
0.0331185 -0.0136561 -1.19501 0.420738 -0.0305307 -1.195 0.232115 -0.0413277 -1.18572 
0.380258 -0.034589 -1.195 0.413483 -0.0377667 -1.18115 0.150994 -0.0223003 -1.195 
0.428249 -0.00500358 -1.1897 0.102624 -0.0276927 -1.19501 0.0892225 -0.022303 -1.18634 
0.144434 -0.0435531 -1.17776 0.420876 -0.0450007 -1.195 0.22145 -0.0450021 -1.195 
0.200995 -0.00504912 -1.195 0.00499925 -0.0298988 -1.17204 0.43112 -0.0273466 -1.195 
0.207147 -0.0236513 -1.195 0.354456 -0.0384328 -1.19503 0.446526 -0.0121666 -1.18176 
0.112626 -0.0103876 -1.195 0.0652706 -0.0450003 -1.17772 0.181018 -0.00502649 -1.195 
0.265265 -0.0050157 -1.1861 0.372495 -0.0258159 -1.19484 0.421729 -0.0129331 -1.18925 
0.0549539 -0.0276467 -1.195 0.403788 -0.0215473 -1.195 0.0382285 -0.0290927 -1.18473 
0.09254 -0.0449957 -1.195 0.444837 -0.0270392 -1.195 0.049992 -0.0450039 -1.18649 
0.145992 -0.0309536 -1.19497 0.263645 -0.0339797 -1.17764 0.0701144 -0.036018 -1.19501 
0.156022 -0.00788439 -1.18684 0.469769 -0.0166347 -1.18792 0.0221696 -0.04156 -1.1773 
0.0792231 -0.0137247 -1.19501 0.105961 -0.0122639 -1.18778 0.354548 -0.0225098 -1.19073 
0.399167 -0.0297805 -1.18795 0.0977125 -0.0450025 -1.18629 0.230157 -0.00499561 -1.195 
0.107623 -0.019039 -1.195 0.337747 -0.0200717 -1.195 0.394935 -0.0210082 -1.19025 
0.318846 -0.0321428 -1.16722 0.43649 -0.00500206 -1.18178 0.231558 -0.0450175 -1.195 
0.26639 -0.0342937 -1.195 0.429309 -0.0119373 -1.18257 0.07694 -0.037728 -1.18792 
0.0942021 -0.0223196 -1.195 0.140981 -0.039603 -1.19501 0.31101 -0.0331422 -1.19498 
0.428843 -0.045008 -1.18896 0.0831485 -0.037984 -1.17949 0.377121 -0.00512407 -1.19379 
0.054934 -0.028683 -1.17408 0.0434191 -0.00499536 -1.1819 0.0661811 -0.00499632 -1.1891 
0.313423 -0.0289901 -1.18565 0.159421 -0.0276637 -1.195 0.419656 -0.0231357 -1.18605 
0.079001 -0.0221758 -1.18648 0.374703 -0.014848 -1.195 0.170927 -0.0174116 -1.18714 
0.190348 -0.0316889 -1.18629 0.185342 -0.0367413 -1.19414 0.318713 -0.0251296 -1.19403 
0.048091 -0.004999 -1.19501 0.0486802 -0.0211793 -1.17621 0.166021 -0.0136596 -1.195 
0.389261 -0.0368387 -1.18914 0.134015 -0.037096 -1.18738 0.121028 -0.0049871 -1.195 
0.127623 -0.0450043 -1.18632 0.0668213 -0.020487 -1.18802 0.0679018 -0.0128842 -1.195 
0.389608 -0.0449503 -1.195 0.362848 -0.0285996 -1.19428 0.107694 -0.0306216 -1.18681 
0.360922 -0.00527065 -0.746778 0.156024 -0.0136602 -1.195 0.291283 -0.0449838 -1.195 
0.394355 -0.0138838 -1.18325 0.0918494 -0.0330609 -1.1794 0.160895 -0.0198679 -1.18886 
0.112711 -0.00499226 -1.18658 0.0612196 -0.00511781 -1.18043 0.210985 -0.00499764 -1.195 
0.275602 -0.0262225 -1.195 0.151027 -0.00499631 -1.195 0.281253 -0.045004 -1.195 
0.361232 -0.014877 -1.19499 0.0719382 -0.0290754 -1.18805 0.271533 -0.0448672 -1.19262 
0.0942283 -0.0052008 -1.17769 0.18596 -0.014778 -1.195 0.437451 -0.012447 -1.18837 
0.35289 -0.00499054 -1.19451 0.100816 -0.0363482 -1.18236 0.19715 -0.0236301 -1.19499 
0.206288 -0.0401611 -1.18731 0.200891 -0.0438241 -1.195 0.225549 -0.0164841 -1.195 
0.335941 -0.00791648 -1.195 0.216474 -0.0363346 -1.195 0.178448 -0.023428 -1.19497 
0.141002 -0.0222937 -1.195 0.095926 -0.0295617 -1.18784 0.301384 -0.0447089 -1.195 
0.0702611 -0.0450022 -1.18638 0.411725 -0.00518468 -1.18909 0.215567 -0.0164495 -1.19457 
0.245144 -0.013678 -1.19475 0.136009 -0.00787306 -1.18683 0.117483 -0.0283169 -1.1863 
0.140093 -0.0450021 -1.18665 0.131008 -0.0222861 -1.19501 0.241481 -0.0438579 -1.195 
0.0649512 -0.0274555 -1.19501 0.0992311 -0.00499815 -1.18634 0.191008 -0.00500204 -1.195 
0.176006 -0.00760456 -1.18672 0.254703 -0.0165856 -1.195 0.256629 -0.0364651 -1.195 
0.3092 -0.00730318 -1.1942 0.149397 -0.0450023 -1.195 0.128987 -0.0268395 -1.18634 
0.122594 -0.0450079 -1.195 0.403441 -0.0132723 -1.1894 0.289363 -0.00500422 -1.1949 
0.112609 -0.0195922 -1.18636 0.437983 -0.0274465 -1.18774 0.141005 -0.0165364 -1.18683 
0.207936 -0.0350018 -0.245002 0.294117 -0.0449617 -1.1854 0.29935 -0.00502789 -1.195 
0.387083 -0.0272937 -1.18602 0.280105 -0.0191344 -1.18439 0.0808884 -0.0268044 -1.17781 
0.346103 -0.0277764 -1.195 0.00499877 -0.0422232 -1.17068 0.0837361 -0.0396096 -1.195 
0.377992 -0.0443685 -1.18508 0.0543225 -0.0368411 -1.16833 0.146017 -0.0136428 -1.195 
0.141025 -0.00498986 -1.195 0.171024 -0.00500112 -1.195 0.246236 -0.0249633 -1.195 
0.260129 -0.00501731 -1.195 0.40561 -0.0313767 -1.1804 0.107609 -0.0363525 -1.195 
0.292461 -0.0247213 -1.195 0.246702 -0.0352621 -1.195 0.328448 -0.0231936 -1.19222 
0.0836499 -0.0450099 -1.18659 0.279738 -0.00770009 -1.19497 0.242225 -0.0311213 -1.18707 
0.122608 -0.0276991 -1.195 0.26182 -0.0450048 -1.195 0.475901 -0.0308569 -1.1855 
0.122333 -0.0204232 -1.18254 0.236344 -0.0236015 -1.195 0.161903 -0.0322497 -1.18617 
0.169393 -0.0450004 -1.195 0.210839 -0.0449695 -1.195 0.270117 -0.00499766 -1.195 
0.327168 -0.0127577 -1.195 0.413285 -0.0305653 -1.18809 0.216056 -0.0425708 -1.1868 
0.159396 -0.0449963 -1.195 0.327535 -0.0338345 -1.19497 0.301965 -0.0146619 -1.195 
0.386156 -0.00806119 -1.18301 0.221516 -0.0318024 -1.18766 0.136019 -0.013638 -1.195 
0.29493 -0.0357618 -1.19141 0.283157 -0.0195774 -1.19501 0.240148 -0.00500501 -1.19499 
0.205953 -0.013727 -1.195 0.201382 -0.0188553 -1.18729 0.0976155 -0.0363451 -1.19501 
0.220573 -0.00780508 -1.195 0.151006 -0.016536 -1.18683 0.127595 -0.0363552 -1.195 
0.438103 -0.0196328 -1.18145 0.251414 -0.0449962 -1.195 0.195932 -0.00796119 -1.18682 
0.132587 -0.0450102 -1.195 0.39547 -0.0119002 -1.15998 0.256106 -0.0264827 -1.195 
0.147743 -0.0382232 -1.18779 0.379937 -0.0158696 -1.18243 0.265806 -0.0240597 -1.19503 
0.396782 -0.0378545 -1.18253 0.152458 -0.0292846 -1.18753 0.179417 -0.0448502 -1.19499 
0.0842283 -0.00512831 -1.17769 0.196748 -0.0343602 -1.19407 0.392066 -0.0319303 -1.17525 
0.164436 -0.0419289 -1.18686 0.216771 -0.0263512 -1.195 0.405849 -0.0381413 -1.18776 
0.174834 -0.035668 -1.19499 0.335925 -0.00618101 -1.18463 0.220785 -0.0218121 -1.18615 
0.190634 -0.0204103 -1.18812 0.453064 -0.0356453 -1.18154 0.164833 -0.0360697 -1.19501 
0.185192 -0.0440999 -1.18688 0.226539 -0.036393 -1.19499 0.0892308 -0.00499733 -1.18635 
0.296955 -0.0183562 -1.18698 0.30155 -0.0288653 -1.19471 0.2762 -0.0363159 -1.195 
0.452276 -0.0283672 -1.18835 0.0716745 -0.0234413 -1.17979 0.211166 -0.0289671 -1.18699 
0.250139 -0.00501758 -1.19501 0.309002 -0.0218692 -1.195 0.146014 -0.00787477 -1.18683 
0.100973 -0.0209301 -1.18778 0.126024 -0.0136351 -1.19501 0.47559 -0.0204133 -1.18072 
0.226762 -0.0264101 -1.195 0.461107 -0.0290223 -1.18371 0.112601 -0.0450084 -1.19501 
0.453214 -0.0195966 -1.18192 0.168448 -0.0233621 -1.19498 0.214237 -0.00934114 -1.18626 
0.11762 -0.0190421 -1.195 0.264393 -0.01413 -1.195 0.311587 -0.0448893 -1.195 
0.195938 -0.0137001 -1.195 0.321736 -0.0433 -1.195 
VERTICES 500 1000
1 0 
1 1 
1 2 
1 3 
1 4 
1 5 
1 6 
1 7 
1 8 
1 9 
1 10 
1 11 
1 12 
1 13 
1 14 
1 15 
1 16 
1 17 
1 18 
1 19 
1 20 
1 21 
1 22 
1 23 
1 24 
1 25 
1 26 
1 27 
1 28 
1 29 
1 30 
1 31 
1 32 
1 33 
1 34 
1 35 
1 36 
1 37 
1 38 
1 39 
1 40 
1 41 
1 42 
1 43 
1 44 
1 45 
1 46 
1 47 
1 48 
1 49 
1 50 
1 51 
1 52 
1 53 
1 54 
1 55 
1 56 
1 57 
1 58 
1 59 
1 60 
1 61 
1 62 
1 63 
1 64 
1 65 
1 66 
1 67 
1 68 
1 69 
1 70 
1 71 
1 72 
1 73 
1 74 
1 75 
1 76 
1 77 
1 78 
1 79 
1 80 
1 81 
1 82 
1 83 
1 84 
1 85 
1 86 
1 87 
1 88 
1 89 
1 90 
1 91 
1 92 
1 93 
1 94 
1 95 
1 96 
1 97 
1 98 
1 99 
1 100 
1 101 
1 102 
1 103 
1 104 
1 105 
1 106 
1 107 
1 108 
1 109 
1 110 
1 111 
1 112 
1 113 
1 114 
1 115 
1 116 
1 117 
1 118 
1 119 
1 120 
1 121 
1 122 
1 123 
1 124 
1 125 
1 126 
1 127 
1 128 
1 129 
1 130 
1 131 
1 132 
1 133 
1 134 
1 135 
1 136 
1 137 
1 138 
1 139 
1 140 
1 141 
1 142 
1 143 
1 144 
1 145 
1 146 
1 147 
1 148 
1 149 
1 150 
1 151 
1 152 
1 153 
1 154 
1 155 
1 156 
1 157 
1 158 
1 159 
1 160 
1 161 
1 162 
1 163 
1 164 
1 165 
1 166 
1 167 
1 168 
1 169 
1 170 
1 171 
1 172 
1 173 
1 174 
1 175 
1 176 
1 177 
1 178 
1 179 
1 180 
1 181 
1 182 
1 183 
1 184 
1 185 
1 186 
1 187 
1 188 
1 189 
1 190 
1 191 
1 192 
1 193 
1 194 
1 195 
1 196 
1 197 
1 198 
1 199 
1 200 
1 201 
1 202 
1 203 
1 204 
1 205 
1 206 
1 207 
1 208 
1 209 
1 210 
1 211 
1 212 
1 213 
1 214 
1 215 
1 216 
1 217 
1 218 
1 219 
1 220 
1 221 
1 222 
1 223 
1 224 
1 225 
1 226 
1 227 
1 228 
1 229 
1 230 
1 231 
1 232 
1 233 
1 234 
1 235 
1 236 
1 237 
1 238 
1 239 
1 240 
1 241 
1 242 
1 243 
1 244 
1 245 
1 246 
1 247 
1 248 
1 249 
1 250 
1 251 
1 252 
1 253 
1 254 
1 255 
1 256 
1 257 
1 258 
1 259 
1 260 
1 261 
1 262 
1 263 
1 264 
1 265 
1 266 
1 267 
1 268 
1 269 
1 270 
1 271 
1 272 
1 273 
1 274 
1 275 
1 276 
1 277 
1 278 
1 279 
1 280 
1 281 
1 282 
1 283 
1 284 
1 285 
1 286 
1 287 
1 288 
1 289 
1 290 
1 291 
1 292 
1 293 
1 294 
1 295 
1 296 
1 297 
1 298 
1 299 
1 300 
1 301 
1 302 
1 303 
1 304 
1 305 
1 306 
1 307 
1 308 
1 309 
1 310 
1 311 
1 312 
1 313 
1 314 
1 315 
1 316 
1 317 
1 318 
1 319 
1 320 
1 321 
1 322 
1 323 
1 324 
1 325 
1 326 
1 327 
1 328 
1 329 
1 330 
1 331 
1 332 
1 333 
1 334 
1 335 
1 336 
1 337 
1 338 
1 339 
1 340 
1 341 
1 342 
1 343 
1 344 
1 345 
1 346 
1 347 
1 348 
1 349 
1 350 
1 351 
1 352 
1 353 
1 354 
1 355 
1 356 
1 357 
1 358 
1 359 
1 360 
1 361 
1 362 
1 363 
1 364 
1 365 
1 366 
1 367 
1 368 
1 369 
1 370 
1 371 
1 372 
1 373 
1 374 
1 375 
1 376 
1 377 
1 378 
1 379 
1 380 
1 381 
1 382 
1 383 
1 384 
1 385 
1 386 
1 387 
1 388 
1 389 
1 390 
1 391 
1 392 
1 393 
1 394 
1 395 
1 396 
1 397 
1 398 
1 399 
1 400 
1 401 
1 402 
1 403 
1 404 
1 405 
1 406 
1 407 
1 408 
1 409 
1 410 
1 411 
1 412 
1 413 
1 414 
1 415 
1 416 
1 417 
1 418 
1 419 
1 420 
1 421 
1 422 
1 423 
1 424 
1 425 
1 426 
1 427 
1 428 
1 429 
1 430 
1 431 
1 432 
1 433 
1 434 
1 435 
1 436 
1 437 
1 438 
1 439 
1 440 
1 441 
1 442 
1 443 
1 444 
1 445 
1 446 
1 447 
1 448 
1 449 
1 450 
1 451 
1 452 
1 453 
1 454 
1 455 
1 456 
1 457 
1 458 
1 459 
1 460 
1 461 
1 462 
1 463 
1 464 
1 465 
1 466 
1 467 
1 468 
1 469 
1 470 
1 471 
1 472 
1 473 
1 474 
1 475 
1 476 
1 477 
1 478 
1 479 
1 480 
1 481 
1 482 
1 483 
1 484 
1 485 
1 486 
1 487 
1 488 
1 489 
1 490 
1 491 
1 492 
1 493 
1 494 
1 495 
1 496 
1 497 
1 498 
1 499 

POINT_DATA 500
FIELD FieldData 7
id 1 500 int
1 2 3 4 5 6 7 8 9 
10 11 12 13 14 15 16 17 18 
19 20 21 22 23 24 25 26 27 
28 29 30 31 32 33 34 35 36 
37 38 39 40 41 42 43 44 45 
46 47 48 49 50 51 52 53 54 
55 56 57 58 59 60 61 62 63 
64 65 66 67 68 69 70 71 72 
73 74 75 76 77 78 79 80 81 
82 83 84 85 86 87 88 89 90 
91 92 93 94 95 96 97 98 99 
100 101 102 103 104 105 106 107 108 
109 110 111 112 113 114 115 116 117 
118 119 120 121 122 123 124 125 126 
127 128 129 130 131 132 133 134 135 
136 137 138 139 140 141 142 143 144 
145 146 147 148 149 150 151 152 153 
154 155 156 157 158 159 160 161 162 
163 164 165 166 167 168 169 170 171 
172 173 174 175 176 177 178 179 180 
181 182 183 184 185 186 187 188 189 
190 191 192 193 194 195 196 197 198 
199 200 201 202 203 204 205 206 207 
208 209 210 211 212 213 214 215 216 
217 218 219 220 221 222 223 224 225 
226 227 228 229 230 231 232 233 234 
235 236 237 238 239 240 241 242 243 
244 245 246 247 248 249 250 251 252 
253 254 255 256 257 258 259 260 261 
262 263 264 265 266 267 268 269 270 
271 272 273 274 275 276 277 278 279 
280 281 282 283 284 285 286 287 288 
289 290 291 292 293 294 295 296 297 
298 299 300 301 302 303 304 305 306 
307 308 309 310 311 312 313 314 315 
316 317 318 319 320 321 322 323 324 
325 326 327 328 329 330 331 332 333 
334 335 336 337 338 339 340 341 342 
343 344 345 346 347 348 349 350 351 
352 353 354 355 356 357 358 359 360 
361 362 363 364 365 366 367 368 369 
370 371 372 373 374 375 376 377 378 
379 380 381 382 383 384 385 386 387 
388 389 390 391 392 393 394 395 396 
397 398 399 400 401 402 403 404 405 
406 407 408 409 410 411 412 413 414 
415 416 417 418 419 420 421 422 423 
424 425 426 427 428 429 430 431 432 
433 434 435 436 437 438 439 440 441 
442 443 444 445 446 447 448 449 450 
451 452 453 454 455 456 457 458 459 
460 461 462 463 464 465 466 467 468 
469 470 471 472 473 474 475 476 477 
478 479 480 481 482 483 484 485 486 
487 488 489 490 491 492 493 494 495 
496 497 498 499 500 
type 1 500 int
1 1 1 1 1 1 1 1 1 
1 1 1 1 1 1 1 1 1 
1 1 1 1 1 1 1 1 1 
1 1 1 1 1 1 1 1 1 
1 1 1 1 1 1 1 1 1 
1 1 1 1 1 1 1 1 1 
1 1 1 1 1 1 1 1 1 
1 1 1 1 1 1 1 1 1 
1 1 1 1 1 1 1 1 1 
1 1 1 1 1 1 1 1 1 
1 1 1 1 1 1 1 1 1 
1 1 1 1 1 1 1 1 1 
1 1 1 1 1 1 1 1 1 
1 1 1 1 1 1 1 1 1 
1 1 1 1 1 1 1 1 1 
1 1 1 1 1 1 1 1 1 
1 1 1 1 1 1 1 1 1 
1 1 1 1 1 1 1 1 1 
1 1 1 1 1 1 1 1 1 
1 1 1 1 1 1 1 1 1 
1 1 1 1 1 1 1 1 1 
1 1 1 1 1 1 1 1 1 
1 1 1 1 1 1 1 1 1 
1 1 1 1 1 1 1 1 1 
1 1 1 1 1 1 1 1 1 
1 1 1 1 1 1 1 1 1 
1 1 1 1 1 1 1 1 1 
1 1 1 1 1 1 1 1 1 
1 1 1 1 1 1 1 1 1 
1 1 1 1 1 1 1 1 1 
1 1 1 1 1 1 1 1 1 
1 1 1 1 1 1 1 1 1 
1 1 1 1 1 1 1 1 1 
1 1 1 1 1 1 1 1 1 
1 1 1 1 1 1 1 1 1 
1 1 1 1 1 1 1 1 1 
1 1 1 1 1 1 1 1 1 
1 1 1 1 1 1 1 1 1 
1 1 1 1 1 1 1 1 1 
1 1 1 1 1 1 1 1 1 
1 1 1 1 1 1 1 1 1 
1 1 1 1 1 1 1 1 1 
1 1 1 1 1 1 1 1 1 
1 1 1 1 1 1 1 1 1 
1 1 1 1 1 1 1 1 1 
1 1 1 1 1 1 1 1 1 
1 1 1 1 1 1 1 1 1 
1 1 1 1 1 1 1 1 1 
1 1 1 1 1 1 1 1 1 
1 1 1 1 1 1 1 1 1 
1 1 1 1 1 1 1 1 1 
1 1 1 1 1 1 1 1 1 
1 1 1 1 1 1 1 1 1 
1 1 1 1 1 1 1 1 1 
1 1 1 1 1 1 1 1 1 
1 1 1 1 1 
i 3 500 int
0 0 0 0 0 0 0 0 0 
0 0 0 0 0 0 0 0 0 
0 0 0 0 0 0 0 0 0 
0 0 0 0 0 0 0 0 0 
0 0 0 0 0 0 0 0 0 
0 0 0 0 0 0 0 0 0 
0 0 0 0 0 0 0 0 0 
0 0 0 0 0 0 0 0 0 
0 0 0 0 0 0 0 0 0 
0 0 0 0 0 0 0 0 0 
0 0 0 0 0 0 0 0 0 
0 0 0 0 0 0 0 0 0 
0 0 0 0 0 0 0 0 0 
0 0 0 0 0 0 0 0 0 
0 0 0 0 0 0 0 0 0 
0 0 0 0 0 0 0 0 0 
0 0 0 0 0 0 0 0 0 
0 0 0 0 0 0 0 0 0 
0 0 0 0 0 0 0 0 0 
0 0 0 0 0 0 0 0 0 
0 0 0 0 0 0 0 0 0 
0 0 0 0 0 0 0 0 0 
0 0 0 0 0 0 0 0 0 
0 0 0 0 0 0 0 0 0 
0 0 0 0 0 0 0 0 0 
0 0 0 0 0 0 0 0 0 
0 0 0 0 0 0 0 0 0 
0 0 0 0 0 0 0 0 0 
0 0 0 0 0 0 0 0 0 
0 0 0 0 0 0 0 0 0 
0 0 0 0 0 0 0 0 0 
0 0 0 0 0 0 0 0 0 
0 0 0 0 0 0 0 0 0 
0 0 0 0 0 0 0 0 0 
0 0 0 0 0 0 0 0 0 
0 0 0 0 0 0 0 0 0 
0 0 0 0 0 0 0 0 0 
0 0 0 0 0 0 0 0 0 
0 0 0 0 0 0 0 0 0 
0 0 0 0 0 0 0 0 0 
0 0 0 0 0 0 0 0 0 
0 0 0 0 0 0 0 0 0 
0 0 0 0 0 0 0 0 0 
0 0 0 0 0 0 0 0 0 
0 0 0 0 0 0 0 0 0 
0 0 0 0 0 0 0 0 0 
0 0 0 0 0 0 0 0 0 
0 0 0 0 0 0 0 0 0 
0 0 0 0 0 0 0 0 0 
0 0 0 0 0 0 0 0 0 
0 0 0 0 0 0 0 0 0 
0 0 0 0 0 0 0 0 0 
0 0 0 0 0 0 0 0 0 
0 0 0 0 0 0 0 0 0 
0 0 0 0 0 0 0 0 0 
0 0 0 0 0 0 0 0 0 
0 0 0 0 0 0 0 0 0 
0 0 0 0 0 0 0 0 0 
0 0 0 0 0 0 0 0 0 
0 0 0 0 0 0 0 0 0 
0 0 0 0 0 0 0 0 0 
0 0 0 0 0 0 0 0 0 
0 0 0 0 0 0 0 0 0 
0 0 0 0 0 0 0 0 0 
0 0 0 0 0 0 0 0 0 
0 0 0 0 0 0 0 0 0 
0 0 0 0 0 0 0 0 0 
0 0 0 0 0 0 0 0 0 
0 0 0 0 0 0 0 0 0 
0 0 0 0 0 0 0 0 0 
0 0 0 0 0 0 0 0 0 
0 0 0 0 0 0 0 0 0 
0 0 0 0 0 0 0 0 0 
0 0 0 0 0 0 0 0 0 
0 0 0 0 0 0 0 0 0 
0 0 0 0 0 0 0 0 0 
0 0 0 0 0 0 0 0 0 
0 0 0 0 0 0 0 0 0 
0 0 0 0 0 0 0 0 0 
0 0 0 0 0 0 0 0 0 
0 0 0 0 0 0 0 0 0 
0 0 0 0 0 0 0 0 0 
0 0 0 0 0 0 0 0 0 
0 0 0 0 0 0 0 0 0 
0 0 0 0 0 0 0 0 0 
0 0 0 0 0 0 0 0 0 
0 0 0 0 0 0 0 0 0 
0 0 0 0 0 0 0 0 0 
0 0 0 0 0 0 0 0 0 
0 0 0 0 0 0 0 0 0 
0 0 0 0 0 0 0 0 0 
0 0 0 0 0 0 0 0 0 
0 0 0 0 0 0 0 0 0 
0 0 0 0 0 0 0 0 0 
0 0 0 0 0 0 0 0 0 
0 0 0 0 0 0 0 0 0 
0 0 0 0 0 0 0 0 0 
0 0 0 0 0 0 0 0 0 
0 0 0 0 0 0 0 0 0 
0 0 0 0 0 0 0 0 0 
0 0 0 0 0 0 0 0 0 
0 0 0 0 0 0 0 0 0 
0 0 0 0 0 0 0 0 0 
0 0 0 0 0 0 0 0 0 
0 0 0 0 0 0 0 0 0 
0 0 0 0 0 0 0 0 0 
0 0 0 0 0 0 0 0 0 
0 0 0 0 0 0 0 0 0 
0 0 0 0 0 0 0 0 0 
0 0 0 0 0 0 0 0 0 
0 0 0 0 0 0 0 0 0 
0 0 0 0 0 0 0 0 0 
0 0 0 0 0 0 0 0 0 
0 0 0 0 0 0 0 0 0 
0 0 0 0 0 0 0 0 0 
0 0 0 0 0 0 0 0 0 
0 0 0 0 0 0 0 0 0 
0 0 0 0 0 0 0 0 0 
0 0 0 0 0 0 0 0 0 
0 0 0 0 0 0 0 0 0 
0 0 0 0 0 0 0 0 0 
0 0 0 0 0 0 0 0 0 
0 0 0 0 0 0 0 0 0 
0 0 0 0 0 0 0 0 0 
0 0 0 0 0 0 0 0 0 
0 0 0 0 0 0 0 0 0 
0 0 0 0 0 0 0 0 0 
0 0 0 0 0 0 0 0 0 
0 0 0 0 0 0 0 0 0 
0 0 0 0 0 0 0 0 0 
0 0 0 0 0 0 0 0 0 
0 0 0 0 0 0 0 0 0 
0 0 0 0 0 0 0 0 0 
0 0 0 0 0 0 0 0 0 
0 0 0 0 0 0 0 0 0 
0 0 0 0 0 0 0 0 0 
0 0 0 0 0 0 0 0 0 
0 0 0 0 0 0 0 0 0 
0 0 0 0 0 0 0 0 0 
0 0 0 0 0 0 0 0 0 
0 0 0 0 0 0 0 0 0 
0 0 0 0 0 0 0 0 0 
0 0 0 0 0 0 0 0 0 
0 0 0 0 0 0 0 0 0 
0 0 0 0 0 0 0 0 0 
0 0 0 0 0 0 0 0 0 
0 0 0 0 0 0 0 0 0 
0 0 0 0 0 0 0 0 0 
0 0 0 0 0 0 0 0 0 
0 0 0 0 0 0 0 0 0 
0 0 0 0 0 0 0 0 0 
0 0 0 0 0 0 0 0 0 
0 0 0 0 0 0 0 0 0 
0 0 0 0 0 0 0 0 0 
0 0 0 0 0 0 0 0 0 
0 0 0 0 0 0 0 0 0 
0 0 0 0 0 0 0 0 0 
0 0 0 0 0 0 0 0 0 
0 0 0 0 0 0 0 0 0 
0 0 0 0 0 0 0 0 0 
0 0 0 0 0 0 0 0 0 
0 0 0 0 0 0 0 0 0 
0 0 0 0 0 0 0 0 0 
0 0 0 0 0 0 0 0 0 
0 0 0 0 0 0 0 0 0 
0 0 0 0 0 0 0 0 0 
0 0 0 0 0 0 
v 3 500 double
-0.0259184 0.000890806 -0.00718017 -0.0573005 -0.00319408 -0.0163702 0.000184943 -7.89817e-06 5.81632e-05 
-0.0022462 -0.0023195 -0.00260971 0.000104113 0.000759104 1.99866e-05 0.00314494 6.62757e-05 -0.0071271 
0.00518489 0.00214948 6.81241e-05 0.00493697 -0.000335253 -0.0111014 0.00421687 -0.00835036 -0.000122823 
-0.00120574 -0.00045721 -0.00051895 -0.311255 0.165661 -0.00405642 -0.00559305 0.000392404 0.000436216 
0.00146158 0.000114153 -5.47543e-05 -0.263958 0.00797375 7.2529e-09 0.000206896 -0.00295255 -0.00620619 
-0.0580189 0.0257857 0.0066868 0.000793767 0.000128184 -0.00928096 4.49048e-05 1.49699e-06 -3.07813e-05 
0.00552007 0.00352549 -6.09658e-05 -0.00448936 0.000622085 -0.0040814 -0.00226793 -0.000632335 -0.00054412 
-0.0618407 0.0698984 0.171134 0.000222661 -6.07431e-05 -1.79059e-05 0.00507994 1.76454e-05 -0.00232299 
-0.129887 0.0340872 0.0489289 -0.0546581 -0.00967179 -0.0231469 3.35938e-05 -7.26809e-05 3.11184e-05 
-0.00426935 0.000175138 0.000414914 -0.065696 -0.0405658 -0.0130626 0.00485179 0.000168248 5.31788e-06 
0.00152251 -0.000642777 -0.000139924 -0.0244856 -0.000588104 -0.00267178 -0.0088274 0.00234422 0.00779178 
-0.00534274 -0.00112642 8.54949e-05 0.0929735 0.0223519 -0.00184675 0.00305617 0.00116811 -0.00299914 
-0.080351 -0.000205418 -0.00888853 8.45138e-05 -0.000207064 0.000701791 0.00454931 0.00220049 -0.00402053 
-0.000314868 -9.62177e-05 0.000225111 0.0183497 -0.0234269 -4.18972e-11 -0.000243593 -0.000527119 -0.000273144 
0.00951212 0.00204012 0.000318173 -0.0528654 -0.00209763 -0.00010999 -0.000277154 0.00130673 0.000689796 
-0.00185809 0.00169735 0.000298268 -0.00104616 -0.000297594 -0.000123729 0.000103233 5.76665e-06 9.88116e-05 
0.00611408 0.000119988 0.00102337 -0.0144203 -0.0152192 0.0109783 -0.0767757 0.0293976 0.00349921 
0.000340834 -0.000398289 -4.07761e-05 0.000417824 8.94953e-05 -2.96861e-05 0.00611543 3.48794e-05 -0.00167291 
5.59086e-05 -0.00014949 0.000336116 -0.000746765 -0.000747463 0.0010553 -0.000615237 0.00370699 -0.000410091 
0.0041241 5.86511e-05 0.000553889 9.89365e-05 -1.92458e-05 -0.000221515 0.00486002 0.00017478 -0.000435518 
-0.000752368 0.000265297 0.000291269 0.00226032 -0.00895382 -0.000198627 0.000227017 -0.000140138 -0.00105257 
0.00528254 -0.00335416 -0.0164858 0.00379693 -0.000409209 -0.0013254 0.00358249 -0.0184288 0.00494666 
-0.0450393 0.00787806 -0.011009 -0.00971195 -0.0127881 -0.00239726 -0.0181341 -0.00754976 0.0151783 
1.9866e-05 4.12923e-05 -6.24529e-05 0.000283559 -0.000163354 0.000166148 0.00158808 0.0002348 7.78919e-05 
0.00605483 0.00214825 -0.00399342 0.000116838 0.000350187 0.000103317 0.00404879 -0.000443276 -0.000817425 
0.00814505 0.000306469 -0.00117951 0.000320892 -0.000125791 -0.000368696 -0.0394523 0.000703694 -0.0201251 
-0.0494928 -0.0132057 0.00666269 -9.55695e-05 -9.60979e-05 0.000119737 0.00156257 -0.00180725 -0.00544786 
0.000437452 0.000289765 6.72587e-05 0.00249557 -0.0257212 0.00846896 0.000172032 2.6564e-05 -0.000213601 
-0.363455 -0.117335 0.194414 0.00572877 -0.00175177 0.000432171 -0.000807366 0.000807386 0.000316421 
-0.168017 -0.0788038 -0.03709 -0.0330064 0.00419738 -0.0142287 -2.00673e-05 -1.44458e-05 -6.86639e-05 
0.00533894 0.000789773 0.000417623 0.166118 0.0126084 0.0402679 0.00729097 -0.000366168 -0.00159739 
-1.11564e-05 -2.70454e-05 6.55221e-05 -3.4903e-05 -1.01308e-05 2.05024e-05 0.000901451 -0.00105098 -0.000423039 
0.00534678 0.000868089 -0.00300546 0.00458225 0.00119237 0.000103082 -0.00572538 2.60201e-05 -3.39555e-05 
0.00381795 -0.00010069 -0.000432294 0.00642752 0.00187555 0.00052435 0.00178269 4.016e-05 -1.28759e-07 
-0.00010312 0.000388331 -1.64162e-05 -0.0106324 -0.000638699 0.00172363 0.0141881 0.00039889 0.000114257 
0.0678702 0.0389253 -0.0261928 -0.00316194 -0.00749599 0.00946349 0.00919647 -0.000486856 -0.00284106 
-0.00792697 0.00252606 0.000981788 0.00548794 0.00208361 0.00018779 0.0169885 -0.0176641 -0.000265433 
0.0061248 -0.00131777 -0.000166389 -0.000116911 -2.42882e-05 4.96387e-05 -0.0657239 0.0337919 -0.000261501 
0.00500797 -0.00443284 -0.0014583 0.0010637 6.54719e-05 9.395e-05 0.0616771 0.0172592 -0.00874366 
0.0118963 0.00243419 0.00288487 0.00249627 -0.000505611 0.00412978 0.00440275 -0.000431844 0.00104588 
0.00958661 -0.0717965 -0.0780185 0.000892398 0.00150935 0.00048722 0.00197578 -0.00173286 -0.000302445 
0.00351723 0.00132849 0.00352811 -0.001959 -0.000410524 -0.000672266 0.00152204 0.000185069 0.000521347 
0.000464821 0.000976336 1.94672e-12 0.000310954 0.00113995 0.000172211 -7.23358e-05 -1.10137e-05 -0.00014273 
-0.00013331 0.000252678 0.000729344 0.00691362 7.27995e-05 -0.00343556 -4.72605e-05 -1.77021e-05 -0.00014464 
0.0077004 0.00168687 -0.000135461 0.000744735 -2.32339e-05 0.0010432 0.00929235 0.0020193 6.47704e-05 
-0.016086 0.00652803 0.0135712 0.00351062 -0.000694875 -0.00174271 0.0852809 0.133799 -0.0927581 
0.000176799 0.00066067 -0.0102477 0.0218818 -0.0110538 -0.00428513 -0.00450753 -0.00164419 0.00855159 
-0.00201058 0.00403999 -0.00243067 -0.000196583 0.000122911 -0.000151809 0.0672279 -0.125701 0.0100178 
-0.00207687 -3.40569e-05 -0.00149316 -0.0576062 0.0201128 -0.00157039 0.00153827 -0.000310971 -0.000451352 
0.00929542 0.00206991 -2.5948e-05 0.0166832 -0.0221633 0.0178858 -0.00256697 0.00455804 0.000876392 
0.00483468 0.000455344 0.000772212 -0.0291895 0.000920905 -1.55228e-05 6.8047e-05 -0.000111016 -0.00015753 
-0.00944455 0.000234039 -4.74082e-05 0.0169798 -0.0165711 -0.00455057 -0.00596004 -0.0061465 -9.74238e-06 
0.000428386 0.000245596 4.68827e-06 -0.00145073 -2.52947e-05 -0.00683827 -7.5775e-05 6.75548e-05 0.000174585 
0.00164319 -0.00247891 3.49374e-05 4.98464e-06 -9.66876e-05 1.94048e-05 0.0149441 -0.0131632 -0.00763453 