# vtk DataFile Version 4.0
Generated by LIGGGHTS
ASCII
DATASET POLYDATA
POINTS 500 float
0.424356 -0.0448571 -1.17932 0.427993 -0.0357737 -1.17719 0.00532206 -0.0249841 -1.195 
0.0365492 -0.021339 -1.17575 0.0150489 -0.0231561 -1.16994 0.0341228 -0.00508136 -1.17216 
0.0418688 -0.0367994 -1.18351 0.0280052 -0.0378553 -1.16922 0.0808353 -0.0184003 -1.17771 
0.472872 -0.00734818 -1.18083 0.387339 -0.0250708 -1.16872 0.462703 -0.0124352 -1.195 
0.0218564 -0.0156391 -1.17023 0.38179 -0.00502234 -1.19397 0.039901 -0.013126 -1.17062 
0.40512 -0.0293665 -1.18902 0.028377 -0.0450027 -1.18102 0.495002 -0.0450028 -1.18461 
0.0369139 -0.0363428 -1.195 0.482461 -0.0133247 -1.18655 0.00620988 -0.0183634 -1.17074 
0.191564 -0.0291647 -1.195 0.494031 -0.044988 -1.195 0.0529744 -0.00499791 -1.18617 
0.224002 -0.03734 -1.18365 0.39838 -0.0449811 -1.18148 0.485008 -0.0277636 -1.19501 
0.457367 -0.0448591 -1.195 0.382043 -0.0135472 -1.16725 0.0913337 -0.0135972 -1.18625 
0.0340922 -0.0209538 -1.18776 0.441666 -0.0449937 -1.18634 0.422656 -0.0116859 -1.17908 
0.461749 -0.0201591 -1.18866 0.243377 -0.0325887 -1.19464 0.0308557 -0.0370187 -1.18651 
0.416007 -0.00498872 -1.195 0.0149788 -0.0446837 -1.19501 0.0345105 -0.0382718 -1.1769 
0.491464 -0.00880185 -1.18646 0.218032 -0.0319686 -0.245002 0.111989 -0.0258644 -1.19497 
0.0663375 -0.00887686 -1.16974 0.423456 -0.0374755 -1.18668 0.118674 -0.0360633 -1.195 
0.467535 -0.0350167 -1.19502 0.00500003 -0.0365896 -1.17883 0.00499843 -0.0199668 -1.18634 
0.48565 -0.0450021 -1.18815 0.434844 -0.0196998 -1.18738 0.403072 -0.00499047 -1.195 
0.478379 -0.0448935 -1.19501 0.0216447 -0.00499837 -1.18755 0.0599979 -0.0436358 -1.17172 
0.00879933 -0.0249697 -1.17857 0.014989 -0.0360382 -1.17863 0.0828695 -0.0247431 -1.195 
0.0681027 -0.0185697 -1.17178 0.0141331 -0.00503298 -1.18095 0.0397955 -0.0305147 -1.17345 
0.025606 -0.0367964 -1.19501 0.451578 -0.0363085 -1.19501 0.0147472 -0.014252 -1.17713 
0.0431678 -0.0204066 -1.18362 0.0781687 -0.0449993 -1.17656 0.434225 -0.0120904 -1.19501 
0.438021 -0.0312155 -1.17786 0.448602 -0.0278513 -1.1792 0.441281 -0.00500196 -1.195 
0.00500162 -0.0130556 -1.17912 0.486566 -0.0377876 -1.19501 0.490866 -0.0187785 -1.18672 
0.0421997 -0.0122933 -1.1894 0.0140127 -0.0193131 -1.195 0.0522537 -0.0449958 -1.17791 
0.0527162 -0.0210928 -1.18647 0.0193132 -0.00506631 -1.17239 0.42954 -0.0150269 -1.17169 
0.415527 -0.0291348 -1.1886 0.493201 -0.0363167 -1.18 0.0471781 -0.0372058 -1.17424 
0.0254962 -0.0256314 -1.18575 0.447572 -0.0198338 -1.18724 0.00746555 -0.00503382 -1.17349 
0.364697 -0.0440503 -0.947733 0.0566161 -0.0360146 -1.17732 0.0205702 -0.0342714 -1.18675 
0.368922 -0.0349325 -1.1946 0.434936 -0.0426394 -1.17934 0.00499936 -0.00499412 -1.18502 
0.0469079 -0.0362955 -1.195 0.395604 -0.00534817 -1.17381 0.056379 -0.00734273 -1.16926 
0.00499938 -0.0299925 -1.18635 0.00499327 -0.0449768 -1.195 0.0117868 -0.0117896 -1.1884 
0.124143 -0.00739337 -1.18588 0.0812669 -0.0136129 -1.18647 0.222032 -0.0419832 -1.19468 
0.0619285 -0.0450055 -1.195 0.0729549 -0.0231408 -1.195 0.207022 -0.0449781 -0.245002 
0.0140342 -0.0258524 -1.18744 0.46459 -0.0129383 -1.18216 0.357793 -0.024939 -1.19499 
0.393598 -0.0153268 -1.17125 0.109669 -0.044585 -1.18599 0.138408 -0.0324437 -1.195 
0.103991 -0.0449671 -1.195 0.0480862 -0.0290177 -1.18239 0.180869 -0.0142279 -1.19475 
0.0588322 -0.029043 -1.18682 0.495003 -0.0049993 -1.195 0.409517 -0.0126138 -1.195 
0.0919121 -0.0181921 -1.17717 0.0419221 -0.0205567 -1.195 0.334906 -0.00560824 -1.17675 
0.448355 -0.00500073 -1.18794 0.462278 -0.045045 -1.18632 0.0526759 -0.0369007 -1.18647 
0.345221 -0.00997447 -1.177 0.487147 -0.0246847 -1.17955 0.455432 -0.00499971 -1.195 
0.462437 -0.00500787 -1.18786 0.469456 -0.00505102 -1.195 0.0339577 -0.00500088 -1.18599 
0.20506 -0.0252339 -0.245002 0.468729 -0.0374567 -1.1854 0.495003 -0.0150173 -1.19501 
0.0161383 -0.0450073 -1.1829 0.0374793 -0.012612 -1.18055 0.495003 -0.0278622 -1.19501 
0.0582826 -0.00503412 -1.195 0.0234476 -0.0450008 -1.18972 0.0501128 -0.0148202 -1.195 
0.421261 -0.0209751 -1.18803 0.0194342 -0.0328254 -1.17027 0.294281 -0.0204214 -1.18668 
0.455331 -0.00522324 -1.18078 0.201363 -0.0351603 -1.195 0.441292 -0.0191697 -1.195 
0.468324 -0.0276829 -1.18826 0.485394 -0.00776596 -1.195 0.416739 -0.0121051 -1.17103 
0.475373 -0.0449813 -1.18547 0.4181 -0.0363473 -1.19502 0.019317 -0.017624 -1.18536 
0.057982 -0.0209826 -1.19499 0.448358 -0.0120756 -1.195 0.126217 -0.0142753 -1.17886 
0.0762206 -0.00498803 -1.18632 0.436669 -0.0450003 -1.195 0.00499885 -0.0450011 -1.18483 
0.476476 -0.0131317 -1.195 0.300203 -0.0421696 -1.16969 0.453837 -0.0204422 -1.19501 
0.0320985 -0.027559 -1.195 0.483802 -0.00499221 -1.18121 0.0149914 -0.00499783 -1.195 
0.474841 -0.0244622 -1.19504 0.00499626 -0.0349767 -1.19501 0.194971 -0.0148257 -1.195 
0.0255688 -0.0339572 -1.1781 0.027863 -0.0128221 -1.18732 0.0368627 -0.0450038 -1.18631 
0.455527 -0.012322 -1.18804 0.117831 -0.017615 -1.18534 0.408572 -0.044922 -1.179 
0.038287 -0.00499627 -1.195 0.0556666 -0.0162941 -1.17413 0.377845 -0.0143268 -1.19498 
0.0214612 -0.0126204 -1.195 0.451875 -0.044996 -1.18648 0.486426 -0.0326478 -1.18641 
0.157433 -0.0360431 -1.19494 0.0607809 -0.0236197 -1.17865 0.0861845 -0.0152219 -1.19502 
0.480863 -0.0231668 -1.18717 0.0186386 -0.0267293 -1.17856 0.0577666 -0.035913 -1.19501 
0.278673 -0.0324987 -1.1949 0.495006 -0.0364755 -1.18983 0.477661 -0.00499419 -1.18929 
0.00499678 -0.0149917 -1.19501 0.0712057 -0.0136302 -1.18632 0.135618 -0.025134 -1.18583 
0.0273933 -0.0249981 -1.17405 0.279148 -0.0086946 -1.18964 0.46791 -0.0222601 -1.17962 
0.242134 -0.0158303 -1.18464 0.0319252 -0.0450015 -1.19501 0.397842 -0.0449734 -1.19501 
0.403375 -0.0136109 -1.18719 0.00499632 -0.0049968 -1.19501 0.120885 -0.0444984 -1.18516 
0.015194 -0.0421985 -1.16648 0.356447 -0.0317534 -1.17397 0.468381 -0.0449822 -1.195 
0.206921 -0.015382 -0.245002 0.495001 -0.0277169 -1.18501 0.0860859 -0.024955 -1.17229 
0.0494644 -0.012993 -1.1813 0.446659 -0.0450019 -1.19501 0.459591 -0.0357068 -1.18915 
0.42986 -0.0376411 -1.195 0.0811664 -0.00500919 -1.19501 0.485369 -0.0177718 -1.19501 
0.47738 -0.034086 -1.19369 0.0093211 -0.0449996 -1.17557 0.0655798 -0.0351017 -1.18172 
0.162008 -0.00527283 -1.19494 0.345743 -0.0297155 -1.19199 0.0519213 -0.0449684 -1.195 
0.0835157 -0.0321252 -1.18689 0.42838 -0.0202163 -1.19501 0.259537 -0.0107322 -1.19499 
0.413074 -0.0449844 -1.195 0.392011 -0.00527557 -1.195 0.028404 -0.0157786 -1.17779 
0.0911039 -0.0388983 -1.18764 0.415236 -0.00498246 -1.17901 0.325865 -0.0441506 -0.40817 
0.440782 -0.0358829 -1.195 0.0893252 -0.0323919 -1.19501 0.0696881 -0.0058801 -1.17867 
0.102502 -0.0254012 -1.17923 0.409597 -0.00500007 -1.18733 0.130477 -0.00508124 -1.195 
0.406255 -0.0372964 -1.195 0.0418675 -0.0450014 -1.17766 0.0419216 -0.0450018 -1.19501 
0.0473715 -0.00618713 -1.17344 0.0153169 -0.0322465 -1.19501 0.0282933 -0.00530404 -1.195 
0.0707716 -0.00503936 -1.195 0.488597 -0.013761 -1.17812 0.446178 -0.0360718 -1.18659 
0.0410226 -0.0289566 -1.18966 0.0235253 -0.022404 -1.195 0.0719772 -0.0364086 -1.1739 
0.0268211 -0.00503344 -1.17899 0.207121 -0.0447217 -1.19365 0.416608 -0.0449973 -1.18565 
0.0582649 -0.0130063 -1.18897 0.433641 -0.0343595 -1.18635 0.0754835 -0.0115368 -1.17276 
0.460608 -0.0277902 -1.19501 0.0112529 -0.0377639 -1.18774 0.0632028 -0.0140691 -1.18034 
0.420555 -0.0138714 -1.19501 0.354377 -0.0150607 -1.17853 0.0754665 -0.0450009 -1.19501 
0.0911712 -0.00499717 -1.195 0.427143 -0.00500235 -1.19501 0.417435 -0.0205058 -1.1787 
0.396925 -0.0290114 -1.18328 0.483641 -0.0397052 -1.17991 0.10118 -0.00498448 -1.19502 
0.403919 -0.0213277 -1.195 0.362597 -0.0218471 -0.883971 0.0961872 -0.0136331 -1.195 
0.126082 -0.035723 -1.18543 0.0587054 -0.0449687 -1.18554 0.0779441 -0.0338856 -1.195 
0.0341198 -0.0140807 -1.19501 0.425308 -0.0292213 -1.19199 0.305528 -0.0143337 -1.18023 
0.398654 -0.0375223 -1.18841 0.417964 -0.0370426 -1.17832 0.151567 -0.0218896 -1.19499 
0.434207 -0.00500858 -1.18794 0.102032 -0.0267419 -1.19501 0.0882126 -0.0231141 -1.18607 
0.304757 -0.0183905 -1.16639 0.423095 -0.0450099 -1.195 0.254795 -0.0425373 -1.19475 
0.211695 -0.00533255 -1.19501 0.005 -0.0282688 -1.16994 0.435141 -0.0276252 -1.195 
0.238253 -0.0237648 -1.195 0.390379 -0.0450072 -1.18835 0.447483 -0.0128158 -1.18008 
0.110812 -0.0076491 -1.195 0.0680402 -0.0447326 -1.17769 0.188672 -0.00704902 -1.19497 
0.333635 -0.00503923 -1.19259 0.397095 -0.0291989 -1.195 0.427386 -0.0130631 -1.18778 
0.0498448 -0.0267601 -1.19444 0.41405 -0.0215094 -1.195 0.0346161 -0.0290087 -1.18187 
0.0939949 -0.0450142 -1.195 0.446531 -0.0276833 -1.19501 0.0468567 -0.045009 -1.18632 
0.148475 -0.0315335 -1.19467 0.376772 -0.0249964 -1.19482 0.0686762 -0.0376308 -1.195 
0.168228 -0.00808246 -1.1871 0.471564 -0.0182066 -1.18796 0.0211147 -0.0428041 -1.17451 
0.0761173 -0.0136511 -1.19502 0.104629 -0.0106142 -1.18752 0.387472 -0.0199435 -1.19501 
0.410223 -0.0287687 -1.17921 0.098999 -0.0450019 -1.18633 0.241078 -0.00505858 -1.19497 
0.105536 -0.0173209 -1.195 0.388425 -0.0285755 -1.19006 0.410027 -0.0212657 -1.18583 
0.38284 -0.0442713 -1.19498 0.441286 -0.00499885 -1.18087 0.272918 -0.0445736 -1.19329 
0.334314 -0.0163926 -1.195 0.434419 -0.0122633 -1.18067 0.0749863 -0.0383075 -1.18326 
0.092717 -0.0229997 -1.195 0.143511 -0.0410503 -1.195 0.367334 -0.0214787 -1.19469 
0.429912 -0.0450177 -1.18765 0.0854255 -0.0386725 -1.17943 0.397612 -0.00499887 -1.18662 
0.0529546 -0.027421 -1.17372 0.0435996 -0.00500277 -1.1827 0.0645174 -0.00500672 -1.18718 
0.3808 -0.0235065 -1.1844 0.160975 -0.0264957 -1.195 0.427924 -0.0201182 -1.18017 
0.0782185 -0.023119 -1.18629 0.397203 -0.0138101 -1.195 0.202852 -0.00994367 -1.18665 
0.213067 -0.0366411 -1.195 0.193974 -0.0441601 -1.195 0.371187 -0.00503106 -1.19496 
0.048284 -0.00499522 -1.195 0.0463278 -0.0199399 -1.17414 0.170248 -0.0143596 -1.195 
0.402795 -0.0357517 -1.17848 0.138055 -0.0360141 -1.1844 0.12046 -0.00504059 -1.19492 
0.129947 -0.0437541 -1.17912 0.0651744 -0.0214117 -1.18804 0.0661547 -0.0142818 -1.195 
0.405459 -0.0449939 -1.18853 0.390962 -0.0375817 -1.19501 0.105741 -0.0320897 -1.18608 
0.239607 -0.00511013 -0.256642 0.159789 -0.0156815 -1.19496 0.348617 -0.0373591 -1.18054 
0.409392 -0.0143559 -1.17852 0.0923522 -0.0311847 -1.17821 0.179875 -0.0252175 -1.18273 
0.113506 -0.0050614 -1.18567 0.0594139 -0.00500303 -1.17852 0.2225 -0.0108146 -1.195 
0.346809 -0.0199869 -1.19479 0.150809 -0.00501567 -1.19498 0.333483 -0.042613 -1.18131 
0.394619 -0.0205279 -1.18805 0.0715608 -0.030325 -1.18818 0.313607 -0.0437006 -1.19499 
0.0915101 -0.00781039 -1.178 0.200511 -0.0238569 -1.19491 0.441289 -0.0120751 -1.18793 
0.394776 -0.012869 -1.18113 0.0973078 -0.0401704 -1.17772 0.210402 -0.0267758 -1.195 
0.257578 -0.032067 -1.17976 0.233489 -0.0449129 -1.19498 0.246559 -0.014194 -1.19497 
0.388434 -0.00507662 -1.18166 0.253352 -0.0320056 -1.195 0.181431 -0.0246 -1.19382 
0.141614 -0.0229528 -1.19503 0.0957353 -0.0296332 -1.18785 0.356248 -0.0449849 -1.195 
0.0687141 -0.0447906 -1.18766 0.421599 -0.00499083 -1.18671 0.235811 -0.013982 -1.19441 
0.284513 -0.0152536 -1.19496 0.136045 -0.00779546 -1.18641 0.116733 -0.0309947 -1.18553 
0.153806 -0.0443645 -1.1832 0.131589 -0.0238014 -1.195 0.287502 -0.0446281 -1.195 
0.0645165 -0.0285395 -1.19502 0.0964267 -0.00499026 -1.18623 0.200013 -0.00504665 -1.19499 
0.186143 -0.00517523 -1.18513 0.303424 -0.0136324 -1.1903 0.299875 -0.0266616 -1.19268 
0.363704 -0.0156242 -1.18633 0.15277 -0.0449275 -1.19496 0.124842 -0.0251049 -1.1856 
0.124066 -0.0445336 -1.195 0.415564 -0.0129521 -1.1863 0.347135 -0.00616309 -1.18905 
0.108799 -0.0217621 -1.18645 0.441091 -0.0274682 -1.18663 0.141835 -0.0172619 -1.18546 
0.207749 -0.0349794 -0.245002 0.370611 -0.0449336 -1.19484 0.356582 -0.0116913 -1.19477 
0.40171 -0.020629 -1.18028 0.362916 -0.027512 -1.18508 0.0788657 -0.0297577 -1.17837 
0.38942 -0.0361407 -1.18359 0.0062211 -0.0381619 -1.16894 0.0847339 -0.0412585 -1.19502 
0.392815 -0.039829 -1.17472 0.0560248 -0.0342701 -1.16708 0.145667 -0.0137333 -1.19494 
0.140651 -0.00509588 -1.19497 0.175963 -0.0055627 -1.1934 0.288975 -0.0242599 -1.19486 
0.291992 -0.00663546 -1.19499 0.410688 -0.0366512 -1.17144 0.108655 -0.0361181 -1.19494 
0.357946 -0.0350617 -1.19373 0.290377 -0.0342096 -1.195 0.381496 -0.030956 -1.17806 
0.0817308 -0.0450189 -1.18628 0.344613 -0.0183204 -1.18402 0.335379 -0.0248901 -1.17711 
0.121961 -0.0265568 -1.19501 0.309795 -0.0330267 -1.19054 0.476785 -0.0317154 -1.18397 
0.112116 -0.0234706 -1.17662 0.276092 -0.0221013 -1.19501 0.207603 -0.0215277 -1.18218 
0.17388 -0.0449233 -1.195 0.244559 -0.0438585 -1.195 0.310488 -0.00530031 -1.19359 
0.388085 -0.0123275 -1.18854 0.422726 -0.028561 -1.18169 0.261583 -0.0418265 -1.18667 
0.162915 -0.0448617 -1.195 0.373538 -0.0308842 -1.18622 0.328959 -0.0170457 -1.16334 
0.405397 -0.00514614 -1.17703 0.284822 -0.0392115 -1.18536 0.13558 -0.0138011 -1.19499 
0.345686 -0.0427895 -1.19443 0.353952 -0.0207586 -1.18674 0.25103 -0.00526769 -1.195 
0.217363 -0.0194987 -1.195 0.258309 -0.0195924 -1.17994 0.0986157 -0.0361532 -1.195 
0.230837 -0.00499922 -1.195 0.153033 -0.0158946 -1.18665 0.128502 -0.0341417 -1.195 
0.440319 -0.0208573 -1.17909 0.301579 -0.0439464 -1.19453 0.252082 -0.0100711 -1.17741 
0.134067 -0.0444387 -1.195 0.379611 -0.0407267 -1.18615 0.326442 -0.00637555 -1.18538 
0.165182 -0.0368551 -1.18854 0.382636 -0.0153026 -1.17746 0.325707 -0.0393365 -1.19455 
0.397734 -0.027685 -1.17164 0.168489 -0.0286077 -1.18254 0.183773 -0.0449871 -1.19292 
0.08132 -0.0050125 -1.17761 0.233303 -0.0326549 -1.195 0.356732 -0.0385963 -0.507449 
0.201633 -0.0288618 -1.18583 0.254734 -0.0190999 -1.18995 0.410474 -0.0370337 -1.18512 
0.182929 -0.0350007 -1.19499 0.390513 -0.0225207 -1.17906 0.362407 -0.0198195 -0.790455 
0.222719 -0.0303548 -1.195 0.457285 -0.0391419 -1.18027 0.172589 -0.034579 -1.195 
0.249647 -0.0363567 -1.18631 0.268449 -0.0354159 -1.19493 0.0862713 -0.00498212 -1.18629 
0.375127 -0.00880995 -1.18648 0.359813 -0.0325944 -1.15515 0.336594 -0.0336724 -1.18558 
0.453543 -0.027841 -1.1879 0.070712 -0.0240531 -1.17976 0.274568 -0.0397824 -1.17994 
0.269553 -0.0052203 -1.19505 0.356502 -0.00529584 -1.1839 0.150755 -0.00686098 -1.18157 
0.0990485 -0.0200119 -1.18785 0.125484 -0.015563 -1.195 0.476564 -0.0170151 -1.17929 
0.26237 -0.0241783 -1.19493 0.462167 -0.0303444 -1.18087 0.113993 -0.0449718 -1.195 
0.455709 -0.0203101 -1.18067 0.17125 -0.0242944 -1.195 0.269886 -0.027302 -1.18912 
0.11552 -0.0164724 -1.195 0.321858 -0.00690298 -1.19477 0.369832 -0.0424171 -1.18509 
0.206825 -0.0157857 -1.19432 0.380369 -0.0344733 -1.19481 
VERTICES 500 1000
1 0 
1 1 
1 2 
1 3 
1 4 
1 5 
1 6 
1 7 
1 8 
1 9 
1 10 
1 11 
1 12 
1 13 
1 14 
1 15 
1 16 
1 17 
1 18 
1 19 
1 20 
1 21 
1 22 
1 23 
1 24 
1 25 
1 26 
1 27 
1 28 
1 29 
1 30 
1 31 
1 32 
1 33 
1 34 
1 35 
1 36 
1 37 
1 38 
1 39 
1 40 
1 41 
1 42 
1 43 
1 44 
1 45 
1 46 
1 47 
1 48 
1 49 
1 50 
1 51 
1 52 
1 53 
1 54 
1 55 
1 56 
1 57 
1 58 
1 59 
1 60 
1 61 
1 62 
1 63 
1 64 
1 65 
1 66 
1 67 
1 68 
1 69 
1 70 
1 71 
1 72 
1 73 
1 74 
1 75 
1 76 
1 77 
1 78 
1 79 
1 80 
1 81 
1 82 
1 83 
1 84 
1 85 
1 86 
1 87 
1 88 
1 89 
1 90 
1 91 
1 92 
1 93 
1 94 
1 95 
1 96 
1 97 
1 98 
1 99 
1 100 
1 101 
1 102 
1 103 
1 104 
1 105 
1 106 
1 107 
1 108 
1 109 
1 110 
1 111 
1 112 
1 113 
1 114 
1 115 
1 116 
1 117 
1 118 
1 119 
1 120 
1 121 
1 122 
1 123 
1 124 
1 125 
1 126 
1 127 
1 128 
1 129 
1 130 
1 131 
1 132 
1 133 
1 134 
1 135 
1 136 
1 137 
1 138 
1 139 
1 140 
1 141 
1 142 
1 143 
1 144 
1 145 
1 146 
1 147 
1 148 
1 149 
1 150 
1 151 
1 152 
1 153 
1 154 
1 155 
1 156 
1 157 
1 158 
1 159 
1 160 
1 161 
1 162 
1 163 
1 164 
1 165 
1 166 
1 167 
1 168 
1 169 
1 170 
1 171 
1 172 
1 173 
1 174 
1 175 
1 176 
1 177 
1 178 
1 179 
1 180 
1 181 
1 182 
1 183 
1 184 
1 185 
1 186 
1 187 
1 188 
1 189 
1 190 
1 191 
1 192 
1 193 
1 194 
1 195 
1 196 
1 197 
1 198 
1 199 
1 200 
1 201 
1 202 
1 203 
1 204 
1 205 
1 206 
1 207 
1 208 
1 209 
1 210 
1 211 
1 212 
1 213 
1 214 
1 215 
1 216 
1 217 
1 218 
1 219 
1 220 
1 221 
1 222 
1 223 
1 224 
1 225 
1 226 
1 227 
1 228 
1 229 
1 230 
1 231 
1 232 
1 233 
1 234 
1 235 
1 236 
1 237 
1 238 
1 239 
1 240 
1 241 
1 242 
1 243 
1 244 
1 245 
1 246 
1 247 
1 248 
1 249 
1 250 
1 251 
1 252 
1 253 
1 254 
1 255 
1 256 
1 257 
1 258 
1 259 
1 260 
1 261 
1 262 
1 263 
1 264 
1 265 
1 266 
1 267 
1 268 
1 269 
1 270 
1 271 
1 272 
1 273 
1 274 
1 275 
1 276 
1 277 
1 278 
1 279 
1 280 
1 281 
1 282 
1 283 
1 284 
1 285 
1 286 
1 287 
1 288 
1 289 
1 290 
1 291 
1 292 
1 293 
1 294 
1 295 
1 296 
1 297 
1 298 
1 299 
1 300 
1 301 
1 302 
1 303 
1 304 
1 305 
1 306 
1 307 
1 308 
1 309 
1 310 
1 311 
1 312 
1 313 
1 314 
1 315 
1 316 
1 317 
1 318 
1 319 
1 320 
1 321 
1 322 
1 323 
1 324 
1 325 
1 326 
1 327 
1 328 
1 329 
1 330 
1 331 
1 332 
1 333 
1 334 
1 335 
1 336 
1 337 
1 338 
1 339 
1 340 
1 341 
1 342 
1 343 
1 344 
1 345 
1 346 
1 347 
1 348 
1 349 
1 350 
1 351 
1 352 
1 353 
1 354 
1 355 
1 356 
1 357 
1 358 
1 359 
1 360 
1 361 
1 362 
1 363 
1 364 
1 365 
1 366 
1 367 
1 368 
1 369 
1 370 
1 371 
1 372 
1 373 
1 374 
1 375 
1 376 
1 377 
1 378 
1 379 
1 380 
1 381 
1 382 
1 383 
1 384 
1 385 
1 386 
1 387 
1 388 
1 389 
1 390 
1 391 
1 392 
1 393 
1 394 
1 395 
1 396 
1 397 
1 398 
1 399 
1 400 
1 401 
1 402 
1 403 
1 404 
1 405 
1 406 
1 407 
1 408 
1 409 
1 410 
1 411 
1 412 
1 413 
1 414 
1 415 
1 416 
1 417 
1 418 
1 419 
1 420 
1 421 
1 422 
1 423 
1 424 
1 425 
1 426 
1 427 
1 428 
1 429 
1 430 
1 431 
1 432 
1 433 
1 434 
1 435 
1 436 
1 437 
1 438 
1 439 
1 440 
1 441 
1 442 
1 443 
1 444 
1 445 
1 446 
1 447 
1 448 
1 449 
1 450 
1 451 
1 452 
1 453 
1 454 
1 455 
1 456 
1 457 
1 458 
1 459 
1 460 
1 461 
1 462 
1 463 
1 464 
1 465 
1 466 
1 467 
1 468 
1 469 
1 470 
1 471 
1 472 
1 473 
1 474 
1 475 
1 476 
1 477 
1 478 
1 479 
1 480 
1 481 
1 482 
1 483 
1 484 
1 485 
1 486 
1 487 
1 488 
1 489 
1 490 
1 491 
1 492 
1 493 
1 494 
1 495 
1 496 
1 497 
1 498 
1 499 

POINT_DATA 500
FIELD FieldData 7
id 1 500 int
1 2 3 4 5 6 7 8 9 
10 11 12 13 14 15 16 17 18 
19 20 21 22 23 24 25 26 27 
28 29 30 31 32 33 34 35 36 
37 38 39 40 41 42 43 44 45 
46 47 48 49 50 51 52 53 54 
55 56 57 58 59 60 61 62 63 
64 65 66 67 68 69 70 71 72 
73 74 75 76 77 78 79 80 81 
82 83 84 85 86 87 88 89 90 
91 92 93 94 95 96 97 98 99 
100 101 102 103 104 105 106 107 108 
109 110 111 112 113 114 115 116 117 
118 119 120 121 122 123 124 125 126 
127 128 129 130 131 132 133 134 135 
136 137 138 139 140 141 142 143 144 
145 146 147 148 149 150 151 152 153 
154 155 156 157 158 159 160 161 162 
163 164 165 166 167 168 169 170 171 
172 173 174 175 176 177 178 179 180 
181 182 183 184 185 186 187 188 189 
190 191 192 193 194 195 196 197 198 
199 200 201 202 203 204 205 206 207 
208 209 210 211 212 213 214 215 216 
217 218 219 220 221 222 223 224 225 
226 227 228 229 230 231 232 233 234 
235 236 237 238 239 240 241 242 243 
244 245 246 247 248 249 250 251 252 
253 254 255 256 257 258 259 260 261 
262 263 264 265 266 267 268 269 270 
271 272 273 274 275 276 277 278 279 
280 281 282 283 284 285 286 287 288 
289 290 291 292 293 294 295 296 297 
298 299 300 301 302 303 304 305 306 
307 308 309 310 311 312 313 314 315 
316 317 318 319 320 321 322 323 324 
325 326 327 328 329 330 331 332 333 
334 335 336 337 338 339 340 341 342 
343 344 345 346 347 348 349 350 351 
352 353 354 355 356 357 358 359 360 
361 362 363 364 365 366 367 368 369 
370 371 372 373 374 375 376 377 378 
379 380 381 382 383 384 385 386 387 
388 389 390 391 392 393 394 395 396 
397 398 399 400 401 402 403 404 405 
406 407 408 409 410 411 412 413 414 
415 416 417 418 419 420 421 422 423 
424 425 426 427 428 429 430 431 432 
433 434 435 436 437 438 439 440 441 
442 443 444 445 446 447 448 449 450 
451 452 453 454 455 456 457 458 459 
460 461 462 463 464 465 466 467 468 
469 470 471 472 473 474 475 476 477 
478 479 480 481 482 483 484 485 486 
487 488 489 490 491 492 493 494 495 
496 497 498 499 500 
type 1 500 int
1 1 1 1 1 1 1 1 1 
1 1 1 1 1 1 1 1 1 
1 1 1 1 1 1 1 1 1 
1 1 1 1 1 1 1 1 1 
1 1 1 1 1 1 1 1 1 
1 1 1 1 1 1 1 1 1 
1 1 1 1 1 1 1 1 1 
1 1 1 1 1 1 1 1 1 
1 1 1 1 1 1 1 1 1 
1 1 1 1 1 1 1 1 1 
1 1 1 1 1 1 1 1 1 
1 1 1 1 1 1 1 1 1 
1 1 1 1 1 1 1 1 1 
1 1 1 1 1 1 1 1 1 
1 1 1 1 1 1 1 1 1 
1 1 1 1 1 1 1 1 1 
1 1 1 1 1 1 1 1 1 
1 1 1 1 1 1 1 1 1 
1 1 1 1 1 1 1 1 1 
1 1 1 1 1 1 1 1 1 
1 1 1 1 1 1 1 1 1 
1 1 1 1 1 1 1 1 1 
1 1 1 1 1 1 1 1 1 
1 1 1 1 1 1 1 1 1 
1 1 1 1 1 1 1 1 1 
1 1 1 1 1 1 1 1 1 
1 1 1 1 1 1 1 1 1 
1 1 1 1 1 1 1 1 1 
1 1 1 1 1 1 1 1 1 
1 1 1 1 1 1 1 1 1 
1 1 1 1 1 1 1 1 1 
1 1 1 1 1 1 1 1 1 
1 1 1 1 1 1 1 1 1 
1 1 1 1 1 1 1 1 1 
1 1 1 1 1 1 1 1 1 
1 1 1 1 1 1 1 1 1 
1 1 1 1 1 1 1 1 1 
1 1 1 1 1 1 1 1 1 
1 1 1 1 1 1 1 1 1 
1 1 1 1 1 1 1 1 1 
1 1 1 1 1 1 1 1 1 
1 1 1 1 1 1 1 1 1 
1 1 1 1 1 1 1 1 1 
1 1 1 1 1 1 1 1 1 
1 1 1 1 1 1 1 1 1 
1 1 1 1 1 1 1 1 1 
1 1 1 1 1 1 1 1 1 
1 1 1 1 1 1 1 1 1 
1 1 1 1 1 1 1 1 1 
1 1 1 1 1 1 1 1 1 
1 1 1 1 1 1 1 1 1 
1 1 1 1 1 1 1 1 1 
1 1 1 1 1 1 1 1 1 
1 1 1 1 1 1 1 1 1 
1 1 1 1 1 1 1 1 1 
1 1 1 1 1 
i 3 500 int
0 0 0 0 0 0 0 0 0 
0 0 0 0 0 0 0 0 0 
0 0 0 0 0 0 0 0 0 
0 0 0 0 0 0 0 0 0 
0 0 0 0 0 0 0 0 0 
0 0 0 0 0 0 0 0 0 
0 0 0 0 0 0 0 0 0 
0 0 0 0 0 0 0 0 0 
0 0 0 0 0 0 0 0 0 
0 0 0 0 0 0 0 0 0 
0 0 0 0 0 0 0 0 0 
0 0 0 0 0 0 0 0 0 
0 0 0 0 0 0 0 0 0 
0 0 0 0 0 0 0 0 0 
0 0 0 0 0 0 0 0 0 
0 0 0 0 0 0 0 0 0 
0 0 0 0 0 0 0 0 0 
0 0 0 0 0 0 0 0 0 
0 0 0 0 0 0 0 0 0 
0 0 0 0 0 0 0 0 0 
0 0 0 0 0 0 0 0 0 
0 0 0 0 0 0 0 0 0 
0 0 0 0 0 0 0 0 0 
0 0 0 0 0 0 0 0 0 
0 0 0 0 0 0 0 0 0 
0 0 0 0 0 0 0 0 0 
0 0 0 0 0 0 0 0 0 
0 0 0 0 0 0 0 0 0 
0 0 0 0 0 0 0 0 0 
0 0 0 0 0 0 0 0 0 
0 0 0 0 0 0 0 0 0 
0 0 0 0 0 0 0 0 0 
0 0 0 0 0 0 0 0 0 
0 0 0 0 0 0 0 0 0 
0 0 0 0 0 0 0 0 0 
0 0 0 0 0 0 0 0 0 
0 0 0 0 0 0 0 0 0 
0 0 0 0 0 0 0 0 0 
0 0 0 0 0 0 0 0 0 
0 0 0 0 0 0 0 0 0 
0 0 0 0 0 0 0 0 0 
0 0 0 0 0 0 0 0 0 
0 0 0 0 0 0 0 0 0 
0 0 0 0 0 0 0 0 0 
0 0 0 0 0 0 0 0 0 
0 0 0 0 0 0 0 0 0 
0 0 0 0 0 0 0 0 0 
0 0 0 0 0 0 0 0 0 
0 0 0 0 0 0 0 0 0 
0 0 0 0 0 0 0 0 0 
0 0 0 0 0 0 0 0 0 
0 0 0 0 0 0 0 0 0 
0 0 0 0 0 0 0 0 0 
0 0 0 0 0 0 0 0 0 
0 0 0 0 0 0 0 0 0 
0 0 0 0 0 0 0 0 0 
0 0 0 0 0 0 0 0 0 
0 0 0 0 0 0 0 0 0 
0 0 0 0 0 0 0 0 0 
0 0 0 0 0 0 0 0 0 
0 0 0 0 0 0 0 0 0 
0 0 0 0 0 0 0 0 0 
0 0 0 0 0 0 0 0 0 
0 0 0 0 0 0 0 0 0 
0 0 0 0 0 0 0 0 0 
0 0 0 0 0 0 0 0 0 
0 0 0 0 0 0 0 0 0 
0 0 0 0 0 0 0 0 0 
0 0 0 0 0 0 0 0 0 
0 0 0 0 0 0 0 0 0 
0 0 0 0 0 0 0 0 0 
0 0 0 0 0 0 0 0 0 
0 0 0 0 0 0 0 0 0 
0 0 0 0 0 0 0 0 0 
0 0 0 0 0 0 0 0 0 
0 0 0 0 0 0 0 0 0 
0 0 0 0 0 0 0 0 0 
0 0 0 0 0 0 0 0 0 
0 0 0 0 0 0 0 0 0 
0 0 0 0 0 0 0 0 0 
0 0 0 0 0 0 0 0 0 
0 0 0 0 0 0 0 0 0 
0 0 0 0 0 0 0 0 0 
0 0 0 0 0 0 0 0 0 
0 0 0 0 0 0 0 0 0 
0 0 0 0 0 0 0 0 0 
0 0 0 0 0 0 0 0 0 
0 0 0 0 0 0 0 0 0 
0 0 0 0 0 0 0 0 0 
0 0 0 0 0 0 0 0 0 
0 0 0 0 0 0 0 0 0 
0 0 0 0 0 0 0 0 0 
0 0 0 0 0 0 0 0 0 
0 0 0 0 0 0 0 0 0 
0 0 0 0 0 0 0 0 0 
0 0 0 0 0 0 0 0 0 
0 0 0 0 0 0 0 0 0 
0 0 0 0 0 0 0 0 0 
0 0 0 0 0 0 0 0 0 
0 0 0 0 0 0 0 0 0 
0 0 0 0 0 0 0 0 0 
0 0 0 0 0 0 0 0 0 
0 0 0 0 0 0 0 0 0 
0 0 0 0 0 0 0 0 0 
0 0 0 0 0 0 0 0 0 
0 0 0 0 0 0 0 0 0 
0 0 0 0 0 0 0 0 0 
0 0 0 0 0 0 0 0 0 
0 0 0 0 0 0 0 0 0 
0 0 0 0 0 0 0 0 0 
0 0 0 0 0 0 0 0 0 
0 0 0 0 0 0 0 0 0 
0 0 0 0 0 0 0 0 0 
0 0 0 0 0 0 0 0 0 
0 0 0 0 0 0 0 0 0 
0 0 0 0 0 0 0 0 0 
0 0 0 0 0 0 0 0 0 
0 0 0 0 0 0 0 0 0 
0 0 0 0 0 0 0 0 0 
0 0 0 0 0 0 0 0 0 
0 0 0 0 0 0 0 0 0 
0 0 0 0 0 0 0 0 0 
0 0 0 0 0 0 0 0 0 
0 0 0 0 0 0 0 0 0 
0 0 0 0 0 0 0 0 0 
0 0 0 0 0 0 0 0 0 
0 0 0 0 0 0 0 0 0 
0 0 0 0 0 0 0 0 0 
0 0 0 0 0 0 0 0 0 
0 0 0 0 0 0 0 0 0 
0 0 0 0 0 0 0 0 0 
0 0 0 0 0 0 0 0 0 
0 0 0 0 0 0 0 0 0 
0 0 0 0 0 0 0 0 0 
0 0 0 0 0 0 0 0 0 
0 0 0 0 0 0 0 0 0 
0 0 0 0 0 0 0 0 0 
0 0 0 0 0 0 0 0 0 
0 0 0 0 0 0 0 0 0 
0 0 0 0 0 0 0 0 0 
0 0 0 0 0 0 0 0 0 
0 0 0 0 0 0 0 0 0 
0 0 0 0 0 0 0 0 0 
0 0 0 0 0 0 0 0 0 
0 0 0 0 0 0 0 0 0 
0 0 0 0 0 0 0 0 0 
0 0 0 0 0 0 0 0 0 
0 0 0 0 0 0 0 0 0 
0 0 0 0 0 0 0 0 0 
0 0 0 0 0 0 0 0 0 
0 0 0 0 0 0 0 0 0 
0 0 0 0 0 0 0 0 0 
0 0 0 0 0 0 0 0 0 
0 0 0 0 0 0 0 0 0 
0 0 0 0 0 0 0 0 0 
0 0 0 0 0 0 0 0 0 
0 0 0 0 0 0 0 0 0 
0 0 0 0 0 0 0 0 0 
0 0 0 0 0 0 0 0 0 
0 0 0 0 0 0 0 0 0 
0 0 0 0 0 0 0 0 0 
0 0 0 0 0 0 0 0 0 
0 0 0 0 0 0 0 0 0 
0 0 0 0 0 0 0 0 0 
0 0 0 0 0 0 0 0 0 
0 0 0 0 0 0 0 0 0 
0 0 0 0 0 0 
v 3 500 double
-0.0209347 -0.0138612 -0.0282399 0.0368482 -0.0424331 -0.0537412 0.00531697 -0.000457214 0.00277296 
-0.00638254 -0.00768338 -0.00239557 -0.0211817 -0.013152 -0.0177216 0.0587331 -0.022237 -0.0517634 
-0.00703912 -0.0112112 -0.0200776 -0.00690507 -0.0215898 0.00247062 0.0421334 -0.0530138 -0.0220455 
-0.0295648 0.0720789 -0.0131571 -0.0909685 -0.207584 0.0764929 -0.0245115 0.00849169 -0.016325 
-0.0167782 0.0345482 -0.0121223 -0.0359752 -0.10171 -0.262272 0.0445023 -0.0213509 0.0359093 
-0.0769624 0.0450994 -0.0220129 0.00466072 0.000310665 0.00795905 -0.00333578 0.00287029 -0.0274071 
-0.00829176 -0.00838164 0.00266171 -0.00807777 0.0215634 -0.0193306 0.00458025 -0.0447076 -0.0356536 
-0.18782 0.0361519 -0.04793 -0.00462972 0.00125954 -8.26357e-05 -0.000874272 -0.000295482 0.008465 
-0.742506 0.192776 -0.45967 -0.0541301 0.00364016 -0.0283969 0.00289168 0.00196232 0.0140051 
-0.0106036 0.00799813 -0.0181302 -0.107447 0.165405 0.299176 0.0113752 0.00628282 -0.0113936 
-0.00487662 -0.0192491 -0.0147821 0.0168466 0.00408434 0.00950193 0.0182008 -0.00593061 0.00733627 
-0.00257855 0.000638869 -0.0258948 -0.445722 -0.0275164 -0.0573647 -0.00736232 -0.000723239 0.00892881 
-0.0455699 -0.00365392 -0.0048137 0.00383806 0.00689859 0.000259207 0.0135175 0.00816817 -0.00841406 
0.0347992 0.0250279 0.0105593 0.0183497 -0.0234269 -4.18874e-11 -0.0120343 -0.029784 -0.0279801 
0.034399 0.0326979 -0.00494741 0.0254338 0.0146412 -0.0417144 0.00592122 0.00119559 0.00119962 
0.0538291 0.0180637 -0.0536054 0.00535414 -0.00179415 -0.00352382 -0.000476113 -0.0219852 -0.0139771 
-0.0216087 0.000601314 0.0129598 -0.00425317 -0.00754408 -0.00644852 -0.0586971 -0.0180089 0.00881197 
-0.0127711 0.00393171 -0.000619498 0.00388936 0.00265496 -0.00148902 0.00234791 -0.0563181 -0.0236232 
0.00385367 -0.00833686 -0.0112072 -0.000617254 0.000195928 0.00201344 -0.0131547 0.0404079 0.0121428 
-0.0654276 -0.0166985 -0.0113422 -0.000631257 0.0131652 -0.00760147 0.00760837 0.00125208 0.0247616 
0.0051672 -0.00706953 0.000920333 -0.0418193 -0.00401826 -0.0305361 -0.040462 -0.0177581 -0.0497733 
-0.017351 -0.000961596 0.00560845 0.0180332 0.00846041 -0.115831 -0.00179165 -0.00231959 0.00374629 
0.00838733 -0.0071735 -0.0118092 -0.00575204 0.0234981 0.0281618 -0.00196336 -0.00165867 0.00085541 
-0.00369527 -0.0124561 -0.0084717 -0.0152416 -0.00896427 0.00257359 0.00364724 0.0163579 0.0143442 
0.00385976 0.00564112 0.00173358 0.00171156 -0.0069691 -0.00236614 -0.000723962 -0.00755112 0.00148063 
-0.0417505 -0.00214501 -0.00800044 0.0111154 -0.00370671 -0.0076513 0.0251139 0.0269809 -0.0247781 
-0.0289259 6.16362e-05 -0.0366016 0.0178662 0.00960462 -0.0168316 0.00371468 -0.00646473 -0.00145805 
0.000453592 -0.0187771 -0.00651394 -0.0243821 -0.0030545 0.0132973 0.0188455 -0.00597497 0.0105532 
0.0524946 -0.0185243 -3.66846 0.00747944 -0.0326893 0.00443739 0.00380473 -0.0206052 0.00687717 
-0.223969 0.0917444 -0.0346582 -0.00633494 -0.0408281 0.00382884 -0.000746826 -0.000129183 -0.000885062 
0.000564264 0.000439906 -0.00179591 0.0200954 0.0179162 -0.0567093 0.0361974 0.0420859 0.0111706 
-0.0042712 0.00481439 0.00145163 0.00154125 -0.00564311 -0.000158334 -0.0161169 0.0188952 0.0123306 
0.0910575 -0.0531743 -0.0434142 0.00116225 0.0103098 -0.0021653 -0.292777 -0.0326884 0.0227132 
-0.00841109 0.0040681 -0.00134624 -0.042948 0.0230091 5.84635e-05 0.00177682 -7.62436e-05 -2.77909e-13 
-3.32092e-05 -0.00402667 0.000271341 -0.0477725 0.0179825 0.059062 -0.259761 0.0867216 0.00105518 
-0.112929 -0.0372692 -0.0491034 -0.0273549 -0.108476 0.00317484 -0.00564646 -0.00143856 -0.00039627 
0.00204865 0.00905097 -0.00088673 -0.00621228 0.000243971 0.0205467 -0.256395 0.0356463 -0.0320045 
-0.0236259 0.00969368 0.00139147 -0.0048455 0.00087488 0.00084524 -0.0163131 0.0221745 -0.01132 
0.140914 -0.0099708 -0.0232028 -0.00651516 0.011536 -0.00451689 -0.42022 0.652847 0.0464896 
0.000727328 0.00320451 -0.00368068 0.172008 -0.135338 -0.202407 -0.016225 0.00393844 0.00735775 
-0.629372 -0.137742 0.0645861 0.0099188 -0.0079251 -0.0103761 0.0018269 0.00057159 -0.000172207 
-0.00909696 -0.00461087 0.00980028 -0.0124109 0.0145858 -0.00554374 0.00958424 -0.00201445 -0.00315584 
0.000464821 0.000976339 1.93634e-12 -0.00589208 0.00945635 -0.00748936 0.00194289 0.00209558 0.00604791 
-0.00933185 0.00313945 -0.00983186 0.0103424 0.00251737 0.0067645 0.00171094 0.0108418 0.00673114 
0.00534361 0.00803612 -0.00328513 0.00250492 -0.000182314 0.00583971 -0.00881556 -0.00503641 -0.00091676 
-0.00646591 -0.0126851 -0.03005 0.122945 0.0256808 -0.0705804 -0.333998 -0.0098873 -0.0191121 
-0.0114721 -0.0121166 0.00500559 -0.0186504 0.178066 -5.97787e-06 -0.00168806 -0.0046222 0.000827236 
0.0322217 0.0721201 -0.0530678 -0.00314205 0.00769587 -0.00138448 0.0633128 -0.0223776 0.0397102 
0.0107271 0.00663335 0.00146999 -0.079101 -0.0216321 0.00181467 -0.00469377 0.00499059 -0.0418153 
-0.000266474 0.0080743 0.00200714 0.00242331 0.00115472 0.00356954 -0.0156172 -0.0876867 0.0553322 
-0.0281745 0.000806377 -0.0299125 0.0276864 0.00528204 -0.00365768 0.00127503 0.00107822 8.06369e-05 
0.0146048 -0.0147575 -0.0193339 -0.622967 -0.227373 0.152987 -0.0664348 -0.0191513 -0.0153795 
-0.0145852 -0.0165315 -0.000874479 0.025642 -0.00982164 0.03762 0.002124 -0.0017785 -0.00039497 
0.103203 0.0672851 -0.0474147 -0.00211398 -0.00114095 -0.000995125 -0.382149 0.0575792 -0.0017881 
0.00131948 -0.00391267 0.0122452 0.000399484 0.00263523 -0.00604921 -0.000980931 0.00393873 -9.23441e-05 
-0.00604464 0.0151531 0.0157251 -0.0357478 0.110621 0.0217947 0.0422335 -0.00279716 -0.0932885 