# vtk DataFile Version 4.0
Generated by LIGGGHTS
ASCII
DATASET POLYDATA
POINTS 500 float
0.424274 -0.0450009 -1.18002 0.428377 -0.0359849 -1.17865 0.00547404 -0.0249708 -1.19501 
0.0372535 -0.021524 -1.17592 0.0152668 -0.0227999 -1.17111 0.0361206 -0.00505516 -1.17532 
0.0423731 -0.0367479 -1.18379 0.028803 -0.0390153 -1.16945 0.0837236 -0.0187401 -1.17761 
0.470651 -0.00516991 -1.18243 0.38416 -0.0333221 -1.17264 0.462849 -0.0122716 -1.195 
0.0211152 -0.0146954 -1.1708 0.375648 -0.00543808 -1.195 0.041702 -0.0130305 -1.17264 
0.40235 -0.0284396 -1.19019 0.0286263 -0.0449997 -1.18149 0.495 -0.0449999 -1.18514 
0.037362 -0.0363351 -1.195 0.482944 -0.0132825 -1.18685 0.00501023 -0.0197604 -1.17169 
0.184725 -0.0323618 -1.195 0.493348 -0.0450048 -1.195 0.0533524 -0.00499842 -1.18622 
0.201081 -0.0337852 -1.18053 0.395428 -0.0448685 -1.18317 0.485339 -0.0283527 -1.19501 
0.458005 -0.0444914 -1.195 0.377208 -0.00610393 -1.16372 0.0926919 -0.0135996 -1.18635 
0.0336127 -0.0211437 -1.18794 0.442226 -0.0450048 -1.18634 0.42207 -0.0113324 -1.17931 
0.4619 -0.0200141 -1.18875 0.224003 -0.0352264 -1.19487 0.0315294 -0.0368858 -1.18657 
0.414995 -0.00499086 -1.19501 0.0149521 -0.0440992 -1.195 0.0349966 -0.0384945 -1.17728 
0.492952 -0.0090468 -1.1861 0.218858 -0.0330228 -0.245002 0.111551 -0.0269152 -1.195 
0.0671601 -0.00935174 -1.17087 0.423074 -0.0375572 -1.18743 0.118333 -0.0363715 -1.195 
0.467262 -0.0350996 -1.19501 0.00499853 -0.036622 -1.17892 0.00499876 -0.0199737 -1.18636 
0.485273 -0.0450023 -1.18761 0.434464 -0.0196199 -1.18748 0.401503 -0.00500076 -1.195 
0.478518 -0.0450092 -1.19501 0.0218221 -0.00500618 -1.1877 0.0605381 -0.044698 -1.17179 
0.00947602 -0.0249805 -1.17896 0.0149727 -0.0361364 -1.17839 0.0827944 -0.0231375 -1.195 
0.0661833 -0.0192168 -1.17213 0.0142339 -0.00500494 -1.1812 0.0401251 -0.0307517 -1.17339 
0.0261872 -0.0366029 -1.19501 0.451708 -0.0360726 -1.19501 0.0148616 -0.0146906 -1.1788 
0.0429856 -0.0207474 -1.18451 0.0786973 -0.0449577 -1.17801 0.434004 -0.0121205 -1.195 
0.439285 -0.0321038 -1.1784 0.447811 -0.0268787 -1.17969 0.441022 -0.00499918 -1.195 
0.00499898 -0.0130753 -1.17913 0.485923 -0.038317 -1.19501 0.491298 -0.0189051 -1.18658 
0.0430138 -0.012041 -1.18948 0.0138868 -0.0195693 -1.195 0.052593 -0.0449997 -1.17785 
0.0526286 -0.0205116 -1.18712 0.0192518 -0.00502563 -1.17255 0.428787 -0.0143533 -1.17255 
0.414865 -0.0287292 -1.18889 0.493329 -0.0365093 -1.18014 0.0481003 -0.0363425 -1.17564 
0.0260237 -0.0275219 -1.18672 0.447559 -0.019854 -1.18745 0.00751851 -0.0049997 -1.1738 
0.367059 -0.0448839 -1.12275 0.0578625 -0.0364793 -1.17784 0.0210048 -0.0361504 -1.18636 
0.35619 -0.0336086 -1.1948 0.43468 -0.0447336 -1.17979 0.00499639 -0.0049978 -1.18501 
0.0474076 -0.0363196 -1.195 0.393667 -0.00503424 -1.1781 0.0576261 -0.00663583 -1.16959 
0.00499417 -0.0299659 -1.18637 0.00499734 -0.0449998 -1.195 0.0120813 -0.012084 -1.18859 
0.125282 -0.0068938 -1.18639 0.0825035 -0.0135949 -1.18627 0.207405 -0.0449045 -1.19496 
0.0623069 -0.0450077 -1.19502 0.0728368 -0.0223232 -1.195 0.207102 -0.0449815 -0.245002 
0.0143179 -0.0267714 -1.18808 0.4632 -0.012811 -1.18193 0.346311 -0.0219666 -1.19501 
0.389301 -0.0140287 -1.17616 0.108436 -0.0416869 -1.18654 0.137188 -0.0318839 -1.19466 
0.103342 -0.0450133 -1.195 0.0487139 -0.028689 -1.18249 0.175343 -0.0146349 -1.195 
0.0585412 -0.0285359 -1.18743 0.495012 -0.00499595 -1.195 0.408233 -0.0124323 -1.19501 
0.0957496 -0.0189048 -1.17844 0.0426773 -0.0203566 -1.19501 0.306513 -0.00594821 -1.18068 
0.448102 -0.00499619 -1.18795 0.463267 -0.0448584 -1.18651 0.0529623 -0.0367704 -1.18656 
0.325114 -0.0164239 -1.17891 0.488176 -0.024506 -1.17892 0.455184 -0.0050019 -1.195 
0.462449 -0.00500701 -1.18814 0.469716 -0.00500425 -1.195 0.0339139 -0.00499435 -1.18618 
0.205081 -0.0251899 -0.245002 0.468809 -0.0364377 -1.18522 0.495007 -0.0149927 -1.195 
0.0163828 -0.0450067 -1.18328 0.0371033 -0.0132372 -1.18151 0.494996 -0.0257551 -1.195 
0.0585896 -0.00499847 -1.195 0.0236408 -0.0450078 -1.19015 0.0508946 -0.0146657 -1.19502 
0.420733 -0.0206811 -1.18807 0.0195786 -0.0318225 -1.1706 0.269838 -0.0165265 -1.18468 
0.455367 -0.00503377 -1.18108 0.194727 -0.0322154 -1.19499 0.441037 -0.0192204 -1.195 
0.469033 -0.0269966 -1.18943 0.485511 -0.00806035 -1.19501 0.415117 -0.0134459 -1.1724 
0.473868 -0.0450022 -1.18616 0.416645 -0.0364308 -1.19501 0.0196443 -0.0183694 -1.18677 
0.0588265 -0.0206994 -1.19501 0.4481 -0.0120694 -1.19501 0.126484 -0.0155239 -1.18046 
0.0774313 -0.00498797 -1.18649 0.437225 -0.0449737 -1.195 0.00499531 -0.0450063 -1.185 
0.476909 -0.0131457 -1.195 0.272793 -0.0401427 -1.17265 0.454105 -0.0200599 -1.195 
0.0318413 -0.0279984 -1.195 0.484718 -0.0049922 -1.18157 0.0149957 -0.0049961 -1.195 
0.476395 -0.0231619 -1.195 0.00499416 -0.0349899 -1.19501 0.185249 -0.0136984 -1.19379 
0.0259704 -0.0342479 -1.1779 0.0279761 -0.0129001 -1.18763 0.0373568 -0.0450025 -1.18635 
0.45547 -0.0123739 -1.18826 0.1177 -0.0148952 -1.18559 0.408235 -0.0449988 -1.18053 
0.0385975 -0.00499166 -1.19501 0.0562067 -0.0150616 -1.1748 0.369014 -0.0135421 -1.19501 
0.0212417 -0.0128002 -1.19501 0.452572 -0.0449183 -1.18656 0.486163 -0.033321 -1.18635 
0.156085 -0.0363284 -1.195 0.0603279 -0.0230481 -1.17927 0.0876627 -0.0136303 -1.195 
0.482315 -0.0232821 -1.18694 0.0192654 -0.0269628 -1.17938 0.0582428 -0.0358709 -1.195 
0.259507 -0.033886 -1.195 0.495011 -0.0356464 -1.19185 0.477916 -0.00499566 -1.18929 
0.00499747 -0.0149868 -1.19501 0.0723152 -0.0135671 -1.18654 0.135317 -0.0270293 -1.18587 
0.0279276 -0.0249513 -1.17479 0.259091 -0.00849858 -1.19398 0.468672 -0.0210673 -1.17888 
0.218755 -0.0230886 -1.18544 0.0323615 -0.0449977 -1.19501 0.394807 -0.0449793 -1.19501 
0.401232 -0.0122166 -1.18788 0.00499826 -0.00499466 -1.19501 0.118102 -0.0449396 -1.18622 
0.0144899 -0.0423229 -1.16769 0.340335 -0.0279514 -1.17113 0.468526 -0.0450078 -1.19501 
0.207116 -0.0153696 -0.245002 0.494998 -0.0281034 -1.18529 0.0867102 -0.025951 -1.17125 
0.0492382 -0.012887 -1.18163 0.447218 -0.0450015 -1.195 0.459467 -0.0358793 -1.18872 
0.429581 -0.0374975 -1.19502 0.0826593 -0.0049741 -1.19501 0.485606 -0.0183722 -1.19501 
0.477084 -0.0338256 -1.19364 0.00957031 -0.0450043 -1.17597 0.0642477 -0.036504 -1.18554 
0.160224 -0.00498679 -1.195 0.333943 -0.0354399 -1.19295 0.0523342 -0.0450076 -1.19501 
0.083275 -0.0312133 -1.18659 0.427908 -0.020062 -1.195 0.243593 -0.0145247 -1.19496 
0.4115 -0.0450042 -1.195 0.387081 -0.00504392 -1.195 0.0280266 -0.0154772 -1.17798 
0.0914004 -0.0380163 -1.18799 0.414143 -0.00521301 -1.17956 0.356352 -0.0440142 -0.489865 
0.440742 -0.0356009 -1.19501 0.0886966 -0.0313189 -1.195 0.070633 -0.00499414 -1.17916 
0.103162 -0.0255694 -1.1794 0.408256 -0.00500007 -1.18763 0.130282 -0.00497564 -1.195 
0.404931 -0.0368206 -1.195 0.0425817 -0.0450006 -1.17757 0.0423468 -0.0450019 -1.19501 
0.0487617 -0.00610166 -1.17417 0.0166512 -0.0335939 -1.19501 0.0286153 -0.00538675 -1.19501 
0.0722149 -0.00506458 -1.19501 0.488462 -0.0137485 -1.1785 0.446223 -0.0357878 -1.18665 
0.0423751 -0.0291217 -1.19023 0.0234401 -0.022573 -1.19501 0.0737404 -0.0360952 -1.1775 
0.026848 -0.0052573 -1.17906 0.198663 -0.0441921 -1.18928 0.416496 -0.0450063 -1.18634 
0.0589745 -0.012847 -1.18882 0.434274 -0.0347676 -1.18663 0.0749036 -0.0140365 -1.17689 
0.460559 -0.0276913 -1.19501 0.0112204 -0.0376691 -1.18768 0.0643803 -0.0140016 -1.18049 
0.420197 -0.0135179 -1.19501 0.333292 -0.0249625 -1.17971 0.0757264 -0.0450287 -1.19501 
0.0926451 -0.00497977 -1.195 0.42681 -0.00501707 -1.195 0.415528 -0.0204985 -1.17954 
0.392578 -0.028537 -1.18505 0.479996 -0.039041 -1.18092 0.102702 -0.00497254 -1.19501 
0.400913 -0.0197909 -1.195 0.364604 -0.0214218 -1.0512 0.0977014 -0.0135937 -1.195 
0.124109 -0.0359989 -1.18596 0.0588427 -0.0450005 -1.18565 0.0781017 -0.0325668 -1.19502 
0.0346087 -0.0141528 -1.19501 0.423391 -0.0290571 -1.19466 0.281853 -0.0381738 -1.18401 
0.396506 -0.0366453 -1.18962 0.417163 -0.0378553 -1.17939 0.150464 -0.0223841 -1.195 
0.433917 -0.00500804 -1.18797 0.101556 -0.0269351 -1.195 0.0875851 -0.0222034 -1.18617 
0.266185 -0.00825243 -1.15536 0.421787 -0.044999 -1.195 0.237261 -0.0443319 -1.19504 
0.200135 -0.00514684 -1.195 0.00499854 -0.0297562 -1.1714 0.433913 -0.0282574 -1.195 
0.218189 -0.0261388 -1.195 0.387061 -0.0449996 -1.18864 0.4484 -0.0122252 -1.18105 
0.111508 -0.00964598 -1.195 0.0686634 -0.0449713 -1.17763 0.180194 -0.0051032 -1.195 
0.314996 -0.00608916 -1.19039 0.393579 -0.0286672 -1.195 0.427094 -0.0128552 -1.18782 
0.0508158 -0.0266999 -1.195 0.4135 -0.0209378 -1.195 0.0361395 -0.0290612 -1.18239 
0.0933474 -0.0450162 -1.195 0.446861 -0.0273401 -1.19501 0.0473485 -0.0450187 -1.18636 
0.147164 -0.0318145 -1.195 0.368757 -0.0241022 -1.195 0.069041 -0.0376334 -1.195 
0.160768 -0.0112055 -1.18682 0.471509 -0.0174349 -1.18777 0.0214005 -0.042965 -1.17488 
0.0776186 -0.0135699 -1.19501 0.105247 -0.0115522 -1.18745 0.378121 -0.0205086 -1.19501 
0.408143 -0.0283907 -1.1815 0.0983454 -0.0450128 -1.18635 0.229786 -0.00539058 -1.1945 
0.106524 -0.0182844 -1.195 0.383091 -0.0289642 -1.19313 0.407216 -0.0202007 -1.18725 
0.379331 -0.044813 -1.195 0.441002 -0.00499451 -1.18091 0.256188 -0.0445321 -1.19493 
0.306673 -0.0245041 -1.19494 0.434107 -0.0122214 -1.18074 0.0767722 -0.0387694 -1.18729 
0.0927461 -0.0222289 -1.195 0.14226 -0.0405208 -1.19491 0.357403 -0.0235305 -1.19503 
0.429678 -0.0450053 -1.18843 0.0864145 -0.0377327 -1.17921 0.394296 -0.00501306 -1.18808 
0.0537579 -0.0282828 -1.17386 0.0431767 -0.00498823 -1.1824 0.0654082 -0.00500016 -1.18769 
0.37301 -0.0201636 -1.18638 0.159859 -0.0257357 -1.19462 0.427287 -0.020172 -1.18054 
0.0775057 -0.022247 -1.18613 0.394268 -0.0123192 -1.19502 0.192577 -0.00941145 -1.18635 
0.20402 -0.0356139 -1.1935 0.190797 -0.0419284 -1.19501 0.363175 -0.00515558 -1.19429 
0.0485839 -0.00497509 -1.19501 0.0475172 -0.020668 -1.1756 0.165336 -0.0147201 -1.195 
0.401597 -0.0365733 -1.18086 0.13673 -0.0388993 -1.18674 0.120311 -0.00498843 -1.19499 
0.128886 -0.0450101 -1.18518 0.0658571 -0.021217 -1.18792 0.0668392 -0.01353 -1.195 
0.403151 -0.0449876 -1.18951 0.388141 -0.0373978 -1.19502 0.10415 -0.0326418 -1.18662 
0.254405 -0.00503856 -0.282273 0.155358 -0.0136883 -1.195 0.329754 -0.0446329 -1.19051 
0.40767 -0.0142057 -1.17926 0.092954 -0.0300941 -1.17791 0.171238 -0.0172448 -1.18506 
0.114328 -0.00533327 -1.18643 0.0603323 -0.00498574 -1.17907 0.209976 -0.00615712 -1.19489 
0.330568 -0.0255021 -1.19498 0.150228 -0.0049991 -1.19499 0.314196 -0.0423484 -1.18901 
0.388135 -0.0202622 -1.19383 0.071668 -0.0301844 -1.18776 0.297516 -0.0432187 -1.195 
0.0928147 -0.00787906 -1.17814 0.189595 -0.0236389 -1.19491 0.441061 -0.0121249 -1.18792 
0.39028 -0.0140768 -1.18609 0.0991215 -0.0378215 -1.17945 0.199669 -0.0233907 -1.19496 
0.231653 -0.037587 -1.18105 0.217408 -0.0448933 -1.195 0.229005 -0.0155682 -1.19498 
0.384858 -0.00499879 -1.18458 0.234156 -0.0345302 -1.195 0.179624 -0.0237218 -1.19498 
0.140467 -0.0224564 -1.195 0.0950265 -0.0287167 -1.18762 0.350486 -0.0447709 -1.19477 
0.0690001 -0.0450252 -1.18762 0.420886 -0.0050046 -1.18695 0.215745 -0.015969 -1.195 
0.266487 -0.0157509 -1.19495 0.135764 -0.00663793 -1.18609 0.115812 -0.0304738 -1.18669 
0.1461 -0.0440006 -1.18524 0.130473 -0.0224466 -1.19501 0.266432 -0.0449261 -1.19501 
0.0650147 -0.0285151 -1.19502 0.0977835 -0.00499677 -1.18632 0.190186 -0.00499747 -1.195 
0.175354 -0.00643572 -1.18629 0.276651 -0.0163534 -1.19292 0.282752 -0.026958 -1.1947 
0.352174 -0.0201062 -1.18709 0.151165 -0.0450164 -1.195 0.125822 -0.0236589 -1.18625 
0.123311 -0.0450299 -1.19501 0.414208 -0.0130437 -1.18702 0.332966 -0.00768416 -1.18416 
0.109915 -0.0219994 -1.18635 0.440874 -0.0272734 -1.18701 0.138576 -0.0175907 -1.18636 
0.207777 -0.0349852 -0.245002 0.369217 -0.0449748 -1.195 0.341915 -0.0064837 -1.19497 
0.398032 -0.0203622 -1.18305 0.351785 -0.0391396 -1.18629 0.0795396 -0.0278528 -1.17795 
0.385372 -0.0355251 -1.1856 0.00499969 -0.0394651 -1.16901 0.0845223 -0.0403557 -1.19501 
0.391814 -0.0372611 -1.17776 0.0548005 -0.0372663 -1.16829 0.14534 -0.0137231 -1.19493 
0.140245 -0.00502513 -1.19498 0.170199 -0.00546945 -1.19473 0.271624 -0.0251704 -1.19502 
0.269663 -0.0050457 -1.19498 0.412197 -0.0325906 -1.17249 0.108335 -0.0363622 -1.195 
0.345899 -0.0329366 -1.195 0.269892 -0.0351588 -1.19495 0.37498 -0.0311761 -1.18186 
0.0844965 -0.0450128 -1.18617 0.324964 -0.0178619 -1.19167 0.307765 -0.0258863 -1.18508 
0.121543 -0.0269156 -1.195 0.287634 -0.0368268 -1.1937 0.476165 -0.0300661 -1.18295 
0.11661 -0.0240621 -1.17906 0.25711 -0.0231025 -1.195 0.181302 -0.0199652 -1.18538 
0.171179 -0.0450232 -1.195 0.227358 -0.0446096 -1.195 0.28045 -0.00633545 -1.19492 
0.381619 -0.0122137 -1.19068 0.422624 -0.0288131 -1.18258 0.244157 -0.0449424 -1.18785 
0.161183 -0.0449839 -1.195 0.367828 -0.0326139 -1.18955 0.328512 -0.00814592 -1.16169 
0.403653 -0.00501011 -1.17876 0.264451 -0.0388731 -1.18729 0.135341 -0.0137384 -1.195 
0.340414 -0.0441134 -1.19498 0.3388 -0.0231084 -1.18853 0.239778 -0.00512549 -1.19499 
0.205153 -0.0149365 -1.195 0.233814 -0.0163712 -1.18485 0.098332 -0.0363697 -1.195 
0.219815 -0.00504274 -1.19501 0.150203 -0.0160582 -1.18636 0.128314 -0.0363991 -1.19501 
0.440999 -0.0194223 -1.17992 0.2769 -0.0427537 -1.19481 0.213394 -0.00951731 -1.18443 
0.13336 -0.0450269 -1.19491 0.375653 -0.0406749 -1.1864 0.28901 -0.0113871 -1.18567 
0.163039 -0.039526 -1.18681 0.378871 -0.0213146 -1.17428 0.314198 -0.031382 -1.19352 
0.402329 -0.0291677 -1.17339 0.160368 -0.0212458 -1.18521 0.181233 -0.0449213 -1.19493 
0.0823444 -0.00509459 -1.17778 0.213933 -0.0355849 -1.195 0.358762 -0.0393322 -0.616203 
0.181802 -0.0337773 -1.18363 0.23219 -0.0249153 -1.1927 0.409987 -0.0370847 -1.18638 
0.17544 -0.0359938 -1.195 0.383833 -0.0219118 -1.18417 0.364803 -0.0208216 -0.945266 
0.208884 -0.0250158 -1.19125 0.455685 -0.0407774 -1.17801 0.165731 -0.0337849 -1.195 
0.222183 -0.0416543 -1.1868 0.244267 -0.0372035 -1.195 0.0876026 -0.00499627 -1.18629 
0.370003 -0.0105441 -1.18343 0.349022 -0.0161318 -1.13185 0.326742 -0.0299437 -1.18678 
0.453704 -0.0277399 -1.18773 0.070253 -0.024513 -1.17957 0.251235 -0.0388801 -1.18364 
0.249803 -0.00533407 -1.19495 0.354568 -0.00882854 -1.18891 0.142862 -0.0102889 -1.18005 
0.100155 -0.0201493 -1.18749 0.125345 -0.0136048 -1.19499 0.477262 -0.0159569 -1.17907 
0.243773 -0.0248154 -1.19497 0.462067 -0.0277718 -1.18225 0.113329 -0.045013 -1.195 
0.455357 -0.0197237 -1.18119 0.169632 -0.0237307 -1.195 0.250628 -0.025831 -1.18757 
0.116538 -0.0182684 -1.195 0.306851 -0.010181 -1.19495 0.361305 -0.0412502 -1.19015 
0.195246 -0.0140337 -1.19499 0.37574 -0.0354627 -1.195 
VERTICES 500 1000
1 0 
1 1 
1 2 
1 3 
1 4 
1 5 
1 6 
1 7 
1 8 
1 9 
1 10 
1 11 
1 12 
1 13 
1 14 
1 15 
1 16 
1 17 
1 18 
1 19 
1 20 
1 21 
1 22 
1 23 
1 24 
1 25 
1 26 
1 27 
1 28 
1 29 
1 30 
1 31 
1 32 
1 33 
1 34 
1 35 
1 36 
1 37 
1 38 
1 39 
1 40 
1 41 
1 42 
1 43 
1 44 
1 45 
1 46 
1 47 
1 48 
1 49 
1 50 
1 51 
1 52 
1 53 
1 54 
1 55 
1 56 
1 57 
1 58 
1 59 
1 60 
1 61 
1 62 
1 63 
1 64 
1 65 
1 66 
1 67 
1 68 
1 69 
1 70 
1 71 
1 72 
1 73 
1 74 
1 75 
1 76 
1 77 
1 78 
1 79 
1 80 
1 81 
1 82 
1 83 
1 84 
1 85 
1 86 
1 87 
1 88 
1 89 
1 90 
1 91 
1 92 
1 93 
1 94 
1 95 
1 96 
1 97 
1 98 
1 99 
1 100 
1 101 
1 102 
1 103 
1 104 
1 105 
1 106 
1 107 
1 108 
1 109 
1 110 
1 111 
1 112 
1 113 
1 114 
1 115 
1 116 
1 117 
1 118 
1 119 
1 120 
1 121 
1 122 
1 123 
1 124 
1 125 
1 126 
1 127 
1 128 
1 129 
1 130 
1 131 
1 132 
1 133 
1 134 
1 135 
1 136 
1 137 
1 138 
1 139 
1 140 
1 141 
1 142 
1 143 
1 144 
1 145 
1 146 
1 147 
1 148 
1 149 
1 150 
1 151 
1 152 
1 153 
1 154 
1 155 
1 156 
1 157 
1 158 
1 159 
1 160 
1 161 
1 162 
1 163 
1 164 
1 165 
1 166 
1 167 
1 168 
1 169 
1 170 
1 171 
1 172 
1 173 
1 174 
1 175 
1 176 
1 177 
1 178 
1 179 
1 180 
1 181 
1 182 
1 183 
1 184 
1 185 
1 186 
1 187 
1 188 
1 189 
1 190 
1 191 
1 192 
1 193 
1 194 
1 195 
1 196 
1 197 
1 198 
1 199 
1 200 
1 201 
1 202 
1 203 
1 204 
1 205 
1 206 
1 207 
1 208 
1 209 
1 210 
1 211 
1 212 
1 213 
1 214 
1 215 
1 216 
1 217 
1 218 
1 219 
1 220 
1 221 
1 222 
1 223 
1 224 
1 225 
1 226 
1 227 
1 228 
1 229 
1 230 
1 231 
1 232 
1 233 
1 234 
1 235 
1 236 
1 237 
1 238 
1 239 
1 240 
1 241 
1 242 
1 243 
1 244 
1 245 
1 246 
1 247 
1 248 
1 249 
1 250 
1 251 
1 252 
1 253 
1 254 
1 255 
1 256 
1 257 
1 258 
1 259 
1 260 
1 261 
1 262 
1 263 
1 264 
1 265 
1 266 
1 267 
1 268 
1 269 
1 270 
1 271 
1 272 
1 273 
1 274 
1 275 
1 276 
1 277 
1 278 
1 279 
1 280 
1 281 
1 282 
1 283 
1 284 
1 285 
1 286 
1 287 
1 288 
1 289 
1 290 
1 291 
1 292 
1 293 
1 294 
1 295 
1 296 
1 297 
1 298 
1 299 
1 300 
1 301 
1 302 
1 303 
1 304 
1 305 
1 306 
1 307 
1 308 
1 309 
1 310 
1 311 
1 312 
1 313 
1 314 
1 315 
1 316 
1 317 
1 318 
1 319 
1 320 
1 321 
1 322 
1 323 
1 324 
1 325 
1 326 
1 327 
1 328 
1 329 
1 330 
1 331 
1 332 
1 333 
1 334 
1 335 
1 336 
1 337 
1 338 
1 339 
1 340 
1 341 
1 342 
1 343 
1 344 
1 345 
1 346 
1 347 
1 348 
1 349 
1 350 
1 351 
1 352 
1 353 
1 354 
1 355 
1 356 
1 357 
1 358 
1 359 
1 360 
1 361 
1 362 
1 363 
1 364 
1 365 
1 366 
1 367 
1 368 
1 369 
1 370 
1 371 
1 372 
1 373 
1 374 
1 375 
1 376 
1 377 
1 378 
1 379 
1 380 
1 381 
1 382 
1 383 
1 384 
1 385 
1 386 
1 387 
1 388 
1 389 
1 390 
1 391 
1 392 
1 393 
1 394 
1 395 
1 396 
1 397 
1 398 
1 399 
1 400 
1 401 
1 402 
1 403 
1 404 
1 405 
1 406 
1 407 
1 408 
1 409 
1 410 
1 411 
1 412 
1 413 
1 414 
1 415 
1 416 
1 417 
1 418 
1 419 
1 420 
1 421 
1 422 
1 423 
1 424 
1 425 
1 426 
1 427 
1 428 
1 429 
1 430 
1 431 
1 432 
1 433 
1 434 
1 435 
1 436 
1 437 
1 438 
1 439 
1 440 
1 441 
1 442 
1 443 
1 444 
1 445 
1 446 
1 447 
1 448 
1 449 
1 450 
1 451 
1 452 
1 453 
1 454 
1 455 
1 456 
1 457 
1 458 
1 459 
1 460 
1 461 
1 462 
1 463 
1 464 
1 465 
1 466 
1 467 
1 468 
1 469 
1 470 
1 471 
1 472 
1 473 
1 474 
1 475 
1 476 
1 477 
1 478 
1 479 
1 480 
1 481 
1 482 
1 483 
1 484 
1 485 
1 486 
1 487 
1 488 
1 489 
1 490 
1 491 
1 492 
1 493 
1 494 
1 495 
1 496 
1 497 
1 498 
1 499 

POINT_DATA 500
FIELD FieldData 7
id 1 500 int
1 2 3 4 5 6 7 8 9 
10 11 12 13 14 15 16 17 18 
19 20 21 22 23 24 25 26 27 
28 29 30 31 32 33 34 35 36 
37 38 39 40 41 42 43 44 45 
46 47 48 49 50 51 52 53 54 
55 56 57 58 59 60 61 62 63 
64 65 66 67 68 69 70 71 72 
73 74 75 76 77 78 79 80 81 
82 83 84 85 86 87 88 89 90 
91 92 93 94 95 96 97 98 99 
100 101 102 103 104 105 106 107 108 
109 110 111 112 113 114 115 116 117 
118 119 120 121 122 123 124 125 126 
127 128 129 130 131 132 133 134 135 
136 137 138 139 140 141 142 143 144 
145 146 147 148 149 150 151 152 153 
154 155 156 157 158 159 160 161 162 
163 164 165 166 167 168 169 170 171 
172 173 174 175 176 177 178 179 180 
181 182 183 184 185 186 187 188 189 
190 191 192 193 194 195 196 197 198 
199 200 201 202 203 204 205 206 207 
208 209 210 211 212 213 214 215 216 
217 218 219 220 221 222 223 224 225 
226 227 228 229 230 231 232 233 234 
235 236 237 238 239 240 241 242 243 
244 245 246 247 248 249 250 251 252 
253 254 255 256 257 258 259 260 261 
262 263 264 265 266 267 268 269 270 
271 272 273 274 275 276 277 278 279 
280 281 282 283 284 285 286 287 288 
289 290 291 292 293 294 295 296 297 
298 299 300 301 302 303 304 305 306 
307 308 309 310 311 312 313 314 315 
316 317 318 319 320 321 322 323 324 
325 326 327 328 329 330 331 332 333 
334 335 336 337 338 339 340 341 342 
343 344 345 346 347 348 349 350 351 
352 353 354 355 356 357 358 359 360 
361 362 363 364 365 366 367 368 369 
370 371 372 373 374 375 376 377 378 
379 380 381 382 383 384 385 386 387 
388 389 390 391 392 393 394 395 396 
397 398 399 400 401 402 403 404 405 
406 407 408 409 410 411 412 413 414 
415 416 417 418 419 420 421 422 423 
424 425 426 427 428 429 430 431 432 
433 434 435 436 437 438 439 440 441 
442 443 444 445 446 447 448 449 450 
451 452 453 454 455 456 457 458 459 
460 461 462 463 464 465 466 467 468 
469 470 471 472 473 474 475 476 477 
478 479 480 481 482 483 484 485 486 
487 488 489 490 491 492 493 494 495 
496 497 498 499 500 
type 1 500 int
1 1 1 1 1 1 1 1 1 
1 1 1 1 1 1 1 1 1 
1 1 1 1 1 1 1 1 1 
1 1 1 1 1 1 1 1 1 
1 1 1 1 1 1 1 1 1 
1 1 1 1 1 1 1 1 1 
1 1 1 1 1 1 1 1 1 
1 1 1 1 1 1 1 1 1 
1 1 1 1 1 1 1 1 1 
1 1 1 1 1 1 1 1 1 
1 1 1 1 1 1 1 1 1 
1 1 1 1 1 1 1 1 1 
1 1 1 1 1 1 1 1 1 
1 1 1 1 1 1 1 1 1 
1 1 1 1 1 1 1 1 1 
1 1 1 1 1 1 1 1 1 
1 1 1 1 1 1 1 1 1 
1 1 1 1 1 1 1 1 1 
1 1 1 1 1 1 1 1 1 
1 1 1 1 1 1 1 1 1 
1 1 1 1 1 1 1 1 1 
1 1 1 1 1 1 1 1 1 
1 1 1 1 1 1 1 1 1 
1 1 1 1 1 1 1 1 1 
1 1 1 1 1 1 1 1 1 
1 1 1 1 1 1 1 1 1 
1 1 1 1 1 1 1 1 1 
1 1 1 1 1 1 1 1 1 
1 1 1 1 1 1 1 1 1 
1 1 1 1 1 1 1 1 1 
1 1 1 1 1 1 1 1 1 
1 1 1 1 1 1 1 1 1 
1 1 1 1 1 1 1 1 1 
1 1 1 1 1 1 1 1 1 
1 1 1 1 1 1 1 1 1 
1 1 1 1 1 1 1 1 1 
1 1 1 1 1 1 1 1 1 
1 1 1 1 1 1 1 1 1 
1 1 1 1 1 1 1 1 1 
1 1 1 1 1 1 1 1 1 
1 1 1 1 1 1 1 1 1 
1 1 1 1 1 1 1 1 1 
1 1 1 1 1 1 1 1 1 
1 1 1 1 1 1 1 1 1 
1 1 1 1 1 1 1 1 1 
1 1 1 1 1 1 1 1 1 
1 1 1 1 1 1 1 1 1 
1 1 1 1 1 1 1 1 1 
1 1 1 1 1 1 1 1 1 
1 1 1 1 1 1 1 1 1 
1 1 1 1 1 1 1 1 1 
1 1 1 1 1 1 1 1 1 
1 1 1 1 1 1 1 1 1 
1 1 1 1 1 1 1 1 1 
1 1 1 1 1 1 1 1 1 
1 1 1 1 1 
i 3 500 int
0 0 0 0 0 0 0 0 0 
0 0 0 0 0 0 0 0 0 
0 0 0 0 0 0 0 0 0 
0 0 0 0 0 0 0 0 0 
0 0 0 0 0 0 0 0 0 
0 0 0 0 0 0 0 0 0 
0 0 0 0 0 0 0 0 0 
0 0 0 0 0 0 0 0 0 
0 0 0 0 0 0 0 0 0 
0 0 0 0 0 0 0 0 0 
0 0 0 0 0 0 0 0 0 
0 0 0 0 0 0 0 0 0 
0 0 0 0 0 0 0 0 0 
0 0 0 0 0 0 0 0 0 
0 0 0 0 0 0 0 0 0 
0 0 0 0 0 0 0 0 0 
0 0 0 0 0 0 0 0 0 
0 0 0 0 0 0 0 0 0 
0 0 0 0 0 0 0 0 0 
0 0 0 0 0 0 0 0 0 
0 0 0 0 0 0 0 0 0 
0 0 0 0 0 0 0 0 0 
0 0 0 0 0 0 0 0 0 
0 0 0 0 0 0 0 0 0 
0 0 0 0 0 0 0 0 0 
0 0 0 0 0 0 0 0 0 
0 0 0 0 0 0 0 0 0 
0 0 0 0 0 0 0 0 0 
0 0 0 0 0 0 0 0 0 
0 0 0 0 0 0 0 0 0 
0 0 0 0 0 0 0 0 0 
0 0 0 0 0 0 0 0 0 
0 0 0 0 0 0 0 0 0 
0 0 0 0 0 0 0 0 0 
0 0 0 0 0 0 0 0 0 
0 0 0 0 0 0 0 0 0 
0 0 0 0 0 0 0 0 0 
0 0 0 0 0 0 0 0 0 
0 0 0 0 0 0 0 0 0 
0 0 0 0 0 0 0 0 0 
0 0 0 0 0 0 0 0 0 
0 0 0 0 0 0 0 0 0 
0 0 0 0 0 0 0 0 0 
0 0 0 0 0 0 0 0 0 
0 0 0 0 0 0 0 0 0 
0 0 0 0 0 0 0 0 0 
0 0 0 0 0 0 0 0 0 
0 0 0 0 0 0 0 0 0 
0 0 0 0 0 0 0 0 0 
0 0 0 0 0 0 0 0 0 
0 0 0 0 0 0 0 0 0 
0 0 0 0 0 0 0 0 0 
0 0 0 0 0 0 0 0 0 
0 0 0 0 0 0 0 0 0 
0 0 0 0 0 0 0 0 0 
0 0 0 0 0 0 0 0 0 
0 0 0 0 0 0 0 0 0 
0 0 0 0 0 0 0 0 0 
0 0 0 0 0 0 0 0 0 
0 0 0 0 0 0 0 0 0 
0 0 0 0 0 0 0 0 0 
0 0 0 0 0 0 0 0 0 
0 0 0 0 0 0 0 0 0 
0 0 0 0 0 0 0 0 0 
0 0 0 0 0 0 0 0 0 
0 0 0 0 0 0 0 0 0 
0 0 0 0 0 0 0 0 0 
0 0 0 0 0 0 0 0 0 
0 0 0 0 0 0 0 0 0 
0 0 0 0 0 0 0 0 0 
0 0 0 0 0 0 0 0 0 
0 0 0 0 0 0 0 0 0 
0 0 0 0 0 0 0 0 0 
0 0 0 0 0 0 0 0 0 
0 0 0 0 0 0 0 0 0 
0 0 0 0 0 0 0 0 0 
0 0 0 0 0 0 0 0 0 
0 0 0 0 0 0 0 0 0 
0 0 0 0 0 0 0 0 0 
0 0 0 0 0 0 0 0 0 
0 0 0 0 0 0 0 0 0 
0 0 0 0 0 0 0 0 0 
0 0 0 0 0 0 0 0 0 
0 0 0 0 0 0 0 0 0 
0 0 0 0 0 0 0 0 0 
0 0 0 0 0 0 0 0 0 
0 0 0 0 0 0 0 0 0 
0 0 0 0 0 0 0 0 0 
0 0 0 0 0 0 0 0 0 
0 0 0 0 0 0 0 0 0 
0 0 0 0 0 0 0 0 0 
0 0 0 0 0 0 0 0 0 
0 0 0 0 0 0 0 0 0 
0 0 0 0 0 0 0 0 0 
0 0 0 0 0 0 0 0 0 
0 0 0 0 0 0 0 0 0 
0 0 0 0 0 0 0 0 0 
0 0 0 0 0 0 0 0 0 
0 0 0 0 0 0 0 0 0 
0 0 0 0 0 0 0 0 0 
0 0 0 0 0 0 0 0 0 
0 0 0 0 0 0 0 0 0 
0 0 0 0 0 0 0 0 0 
0 0 0 0 0 0 0 0 0 
0 0 0 0 0 0 0 0 0 
0 0 0 0 0 0 0 0 0 
0 0 0 0 0 0 0 0 0 
0 0 0 0 0 0 0 0 0 
0 0 0 0 0 0 0 0 0 
0 0 0 0 0 0 0 0 0 
0 0 0 0 0 0 0 0 0 
0 0 0 0 0 0 0 0 0 
0 0 0 0 0 0 0 0 0 
0 0 0 0 0 0 0 0 0 
0 0 0 0 0 0 0 0 0 
0 0 0 0 0 0 0 0 0 
0 0 0 0 0 0 0 0 0 
0 0 0 0 0 0 0 0 0 
0 0 0 0 0 0 0 0 0 
0 0 0 0 0 0 0 0 0 
0 0 0 0 0 0 0 0 0 
0 0 0 0 0 0 0 0 0 
0 0 0 0 0 0 0 0 0 
0 0 0 0 0 0 0 0 0 
0 0 0 0 0 0 0 0 0 
0 0 0 0 0 0 0 0 0 
0 0 0 0 0 0 0 0 0 
0 0 0 0 0 0 0 0 0 
0 0 0 0 0 0 0 0 0 
0 0 0 0 0 0 0 0 0 
0 0 0 0 0 0 0 0 0 
0 0 0 0 0 0 0 0 0 
0 0 0 0 0 0 0 0 0 
0 0 0 0 0 0 0 0 0 
0 0 0 0 0 0 0 0 0 
0 0 0 0 0 0 0 0 0 
0 0 0 0 0 0 0 0 0 
0 0 0 0 0 0 0 0 0 
0 0 0 0 0 0 0 0 0 
0 0 0 0 0 0 0 0 0 
0 0 0 0 0 0 0 0 0 
0 0 0 0 0 0 0 0 0 
0 0 0 0 0 0 0 0 0 
0 0 0 0 0 0 0 0 0 
0 0 0 0 0 0 0 0 0 
0 0 0 0 0 0 0 0 0 
0 0 0 0 0 0 0 0 0 
0 0 0 0 0 0 0 0 0 
0 0 0 0 0 0 0 0 0 
0 0 0 0 0 0 0 0 0 
0 0 0 0 0 0 0 0 0 
0 0 0 0 0 0 0 0 0 
0 0 0 0 0 0 0 0 0 
0 0 0 0 0 0 0 0 0 
0 0 0 0 0 0 0 0 0 
0 0 0 0 0 0 0 0 0 
0 0 0 0 0 0 0 0 0 
0 0 0 0 0 0 0 0 0 
0 0 0 0 0 0 0 0 0 
0 0 0 0 0 0 0 0 0 
0 0 0 0 0 0 0 0 0 
0 0 0 0 0 0 0 0 0 
0 0 0 0 0 0 0 0 0 
0 0 0 0 0 0 0 0 0 
0 0 0 0 0 0 0 0 0 
0 0 0 0 0 0 0 0 0 
0 0 0 0 0 0 
v 3 500 double
0.0196074 0.00624802 -0.00659848 0.0209229 0.0126558 -0.0108216 -0.0141717 -0.0010677 0.00252527 
0.0437164 0.00138778 -0.0195886 0.0144391 -0.00535045 0.00665152 -0.0186547 -0.00678053 0.0402828 
-0.0212705 -0.00658255 -0.0399532 0.0239925 -0.0305202 -0.00803978 0.08659 0.0535287 0.0246617 
0.00166069 0.028695 0.00405428 -0.185795 -0.0714409 -0.163201 0.0142244 0.0133909 -0.00430385 
0.00766325 0.00675132 0.034695 -0.180909 -0.00183362 0.0106615 0.0246848 -0.0105446 -0.054217 
-0.0960996 0.0269555 -0.0319641 -0.00337632 0.00058493 -0.0253734 3.33431e-05 -0.00196575 0.000994942 
0.0123402 0.000637892 0.00132021 -5.66267e-06 -0.0124729 0.00826197 -0.0395149 -0.0390524 -0.0342169 
-0.11239 -0.0263018 -0.000934889 0.00477747 0.00284603 0.000129835 0.00381849 0.00098609 -0.00409174 
-0.424173 0.0650196 0.0460287 -0.0788141 0.0423682 -0.0525395 0.0139511 -0.00851374 -0.0044265 
0.0306092 0.0124642 0.000294029 -0.107447 0.165405 -0.142274 0.015012 -0.0227665 0.0270369 
0.000213564 0.00123713 -0.0106323 -0.00691445 -0.00192689 0.00525306 -0.0349091 -0.0235813 0.00922276 
0.00521495 0.00504243 -0.00981849 -0.0481309 0.0190943 0.020645 0.0137296 -0.00814048 -0.0066055 
-0.0150599 -0.00799147 0.0146573 -0.00677054 0.0300216 -0.00123966 0.00563865 -0.0236907 -0.0141664 
0.0128895 -0.0156256 -0.00810946 0.0183497 -0.0234269 -4.19984e-11 0.0220055 -0.0203624 0.00608244 
0.0117099 -0.0224071 0.00030886 0.00790465 0.0131132 0.00479709 -0.0556285 0.0233382 0.00193189 
-0.00651996 0.00473128 0.000945827 0.000130357 -0.00118244 0.00805672 0.000681363 0.000586555 0.00507333 
-0.00187668 -0.00233501 0.0051066 -0.0046498 0.00194923 0.0120038 -0.062271 -0.00104545 0.00227001 
-0.0138238 -0.0026165 0.0045584 0.000221806 0.00135019 0.00555416 -0.0124084 -0.0445852 0.0466789 
0.0235994 -0.000642915 -0.00621657 0.000360341 0.00539534 -0.0107421 -0.0104884 -0.0237353 0.00173159 
0.00220754 -0.0234198 0.0221327 0.00319632 0.00513709 0.0087869 -0.0111779 0.00441373 -0.0175224 
-0.00671324 0.00782812 0.00552992 -0.0238496 0.00601527 0.00175053 0.00403993 -0.000397751 -0.0047441 
-0.0018874 0.00849506 -0.00989943 0.00451459 -0.00802929 0.0269561 -0.0226189 0.00782644 0.00336908 
0.0459685 -0.0316153 0.00131199 0.00480768 0.0652849 0.00696723 -0.0105466 -0.000937627 0.00164376 
0.0015808 0.0018184 0.00409069 -0.0121105 -0.0116927 -0.00134305 0.0152291 -0.00946302 -0.00613493 
-0.00339034 0.00153654 0.00159691 -0.00834621 -0.0101252 0.00222931 0.0133308 0.00455543 0.0139946 
0.00744863 0.0357304 0.026959 -0.00678193 -0.0127061 0.01724 -0.0201273 0.00999324 -0.00831751 
-0.00411458 0.00984357 -0.0122628 0.00778132 -0.00858272 0.0119969 0.0167905 0.0281625 -0.0504761 
0.0236539 -0.0213376 -0.00910098 -0.00197094 0.0118814 -0.00423857 -0.000921124 0.00157161 0.00383839 
0.0524946 -0.0185243 -4.10991 0.0282276 -0.00180122 -0.0123417 0.00154551 -0.00740559 -0.00900171 
-0.281563 0.0284148 -0.0491748 -0.0297473 -0.0255751 -0.0208424 0.00184974 0.00177862 0.0044242 
0.0230632 0.00289308 -0.00395447 -0.130653 0.0384091 -0.0760536 0.0341655 0.0416791 -0.0127989 
0.00160375 -0.000657318 0.00577394 -0.00161827 0.000693346 -0.000937452 0.0147379 -0.0103746 -0.00330841 
-0.0678783 0.101935 0.00485654 0.0250726 -0.0131575 0.0291732 -0.154181 -0.118514 0.0179748 
0.00544468 -0.00105583 0.00289918 -0.00909197 0.00787139 0.00694361 0.00177682 -7.62442e-05 -2.60127e-13 
-0.00115876 -0.00339602 0.00915307 0.0107531 0.00443453 -0.0107847 -0.217476 0.0414647 -0.0080341 
-0.156999 -0.0169052 -0.0121274 -0.0267383 0.011206 0.0088491 -0.0411895 0.0164028 0.00303271 
-0.0368708 0.00522492 -0.000320759 0.0507418 0.0418108 -0.0166354 -0.0432414 0.0462419 -0.00472625 
-0.0186535 0.0154121 -0.00938137 0.0030258 3.90436e-05 -0.000341673 -0.0312129 0.022152 0.0040725 
0.0375327 -0.0207385 0.0226632 -0.00445294 -0.000765852 0.000234254 -0.69027 0.148425 -0.205158 
-0.00822454 -0.000737555 0.000968192 0.00680703 0.0123099 0.011478 -4.23859e-06 0.00533716 0.000478016 
-0.442541 -0.128919 -0.243168 0.0234319 0.00411528 0.00168777 -0.00978546 -0.0034562 0.00185496 
0.0127785 -0.00190091 -0.0146148 0.0255435 0.00613419 0.000835633 -0.0226103 0.00179379 -0.0104926 
0.000464821 0.000976339 1.92116e-12 -0.0280518 0.0197537 0.0102209 0.000542932 0.000840553 0.00054138 
0.0163319 -0.000415181 -0.0150796 -0.0358756 -0.0117516 -0.0265005 0.00032886 0.0637868 0.00370081 
0.00171532 0.000753147 -0.000757164 0.000656851 -0.000416998 -0.0259399 -0.00884934 -0.00260443 0.000270439 
-0.006783 0.0111963 0.00986241 0.0207794 -0.0135565 -0.00312122 -0.514822 0.0601248 0.00845917 
0.00818022 0.00624474 -0.0183165 -0.105012 0.118171 0.0159294 -0.0164415 0.0116245 0.00262787 
0.00785719 0.0101566 -0.0135498 0.0142218 -0.0217519 0.00455439 -0.119098 -0.00826408 -0.0859436 
-0.0591027 -0.00240624 -0.018708 -0.00946234 -0.00491012 0.00739577 0.00322807 -0.0204146 0.00585718 
0.0136372 0.0280505 0.00488131 0.00106439 0.00266775 0.00111421 0.0282871 0.00460483 -0.0394574 
0.0284408 0.0077584 0.014489 0.0207711 -0.00980121 0.00154241 0.000288196 -0.00043817 -0.00399153 
-0.00138151 0.00750387 0.00640025 -0.603468 0.155729 -0.285673 -0.00184141 0.00512342 -0.00576405 
0.00725646 -0.00455251 -0.000576109 0.0130023 0.00705042 -0.0340175 0.00361163 0.000201664 0.00119305 
0.0238967 0.00258482 0.00143629 -0.00012911 0.000709389 0.00201764 -0.0467498 0.0483594 0.0644193 
0.00874232 -0.0109215 -0.011821 -0.00161179 -0.00868242 -0.00630195 0.00759395 -0.016036 -0.00106262 
0.00884998 0.0116336 -0.00797447 0.0349326 -0.0172918 -0.0291 -0.0303785 -0.00137069 -0.022159 