# vtk DataFile Version 4.0
Generated by LIGGGHTS
ASCII
DATASET POLYDATA
POINTS 500 float
0.414759 -0.0450008 -1.18674 0.414402 -0.0292984 -1.18792 0.00505509 -0.0250065 -1.19501 
0.039369 -0.0205066 -1.17549 0.016874 -0.0222533 -1.17259 0.0363049 -0.00499732 -1.17641 
0.0456314 -0.0365632 -1.18625 0.0323036 -0.045001 -1.17657 0.0906068 -0.01654 -1.17818 
0.469184 -0.00502238 -1.18503 0.340749 -0.0450014 -1.195 0.463534 -0.0136631 -1.19501 
0.0216263 -0.0141241 -1.16922 0.321972 -0.00504435 -1.19501 0.0438732 -0.0112325 -1.17445 
0.370953 -0.0283329 -1.195 0.0277279 -0.0450038 -1.18546 0.495001 -0.045001 -1.18514 
0.0408546 -0.0360588 -1.19501 0.481444 -0.0136615 -1.18746 0.00550795 -0.0199098 -1.17186 
0.182383 -0.0299089 -1.18789 0.493372 -0.0450011 -1.195 0.053674 -0.00499632 -1.18636 
0.16892 -0.0300165 -1.18762 0.36455 -0.044507 -1.18626 0.485698 -0.0286607 -1.19501 
0.45676 -0.0450043 -1.195 0.314455 -0.0146199 -1.195 0.0956085 -0.0136556 -1.18635 
0.0342592 -0.0205652 -1.18782 0.436147 -0.0450016 -1.18663 0.409222 -0.0129185 -1.18631 
0.459359 -0.0203234 -1.18883 0.205252 -0.0336985 -1.195 0.0336414 -0.0374425 -1.18824 
0.389305 -0.0050005 -1.19492 0.014872 -0.0434834 -1.19501 0.0383814 -0.0375984 -1.17944 
0.495001 -0.0099958 -1.18635 0.227391 -0.0439163 -0.245002 0.114043 -0.0276787 -1.195 
0.0694766 -0.00861632 -1.17215 0.40824 -0.0375748 -1.18826 0.119035 -0.0363419 -1.195 
0.466628 -0.0349907 -1.195 0.00541665 -0.0369233 -1.17915 0.00499845 -0.0200044 -1.18636 
0.484383 -0.0450014 -1.18738 0.427372 -0.0207042 -1.18792 0.379289 -0.00504062 -1.19498 
0.477909 -0.0449999 -1.195 0.0218316 -0.00499821 -1.18771 0.061024 -0.0450009 -1.16947 
0.00993434 -0.0249958 -1.17924 0.0148768 -0.033686 -1.17927 0.0856021 -0.0223927 -1.195 
0.0691299 -0.0186068 -1.17195 0.0142398 -0.00499901 -1.18121 0.0435126 -0.0295521 -1.17647 
0.0266457 -0.0351867 -1.19501 0.449758 -0.037432 -1.195 0.0148613 -0.0146816 -1.1788 
0.0445743 -0.0210075 -1.18564 0.0774895 -0.0450011 -1.17828 0.425927 -0.0137998 -1.19501 
0.424034 -0.0297451 -1.18526 0.443173 -0.0293094 -1.18217 0.43117 -0.00503795 -1.195 
0.00499782 -0.0130864 -1.17914 0.485642 -0.0386588 -1.195 0.492064 -0.0199957 -1.18686 
0.0436575 -0.0120066 -1.18994 0.0137015 -0.019912 -1.19501 0.0559606 -0.0450031 -1.17809 
0.0546566 -0.0203176 -1.18739 0.0194978 -0.00499897 -1.17271 0.415287 -0.00499564 -1.18693 
0.392456 -0.0318262 -1.195 0.492355 -0.0370275 -1.17972 0.0504358 -0.0366952 -1.17748 
0.0278012 -0.028188 -1.18797 0.442761 -0.0213448 -1.18925 0.00749828 -0.00499802 -1.17383 
0.154055 -0.0355845 -1.17937 0.0612179 -0.0365014 -1.17784 0.0214943 -0.0357936 -1.18646 
0.284532 -0.037395 -1.18152 0.424799 -0.0449978 -1.18608 0.00499667 -0.00499727 -1.18502 
0.0509625 -0.0367467 -1.195 0.404406 -0.0222774 -1.18391 0.0602049 -0.0049985 -1.17118 
0.00499602 -0.0300033 -1.18635 0.00499528 -0.045002 -1.19501 0.0119114 -0.011912 -1.18848 
0.127491 -0.00512526 -1.18635 0.0856053 -0.0136546 -1.18635 0.190864 -0.0450005 -1.195 
0.0665846 -0.0450003 -1.19501 0.0751757 -0.0221278 -1.19501 0.207929 -0.0449911 -0.245002 
0.0143835 -0.026983 -1.18797 0.461125 -0.0109434 -1.18569 0.294457 -0.0144175 -1.195 
0.388334 -0.0222613 -1.15599 0.109032 -0.0421141 -1.18684 0.137494 -0.0309499 -1.195 
0.104033 -0.0450007 -1.195 0.0507886 -0.0285434 -1.18325 0.177854 -0.0135337 -1.195 
0.0611849 -0.0278299 -1.18642 0.495003 -0.00499687 -1.195 0.38433 -0.0136724 -1.195 
0.10268 -0.0150081 -1.17941 0.0411835 -0.020243 -1.19501 0.256031 -0.0105564 -1.18847 
0.439681 -0.00500376 -1.18975 0.462309 -0.0450027 -1.18605 0.0562047 -0.0364985 -1.1865 
0.274631 -0.0146899 -1.195 0.489056 -0.0260005 -1.17945 0.448188 -0.00500063 -1.19501 
0.458532 -0.00499855 -1.19495 0.46853 -0.00500059 -1.195 0.0337466 -0.00499551 -1.18631 
0.205297 -0.0247359 -0.245002 0.467402 -0.0364431 -1.18514 0.495003 -0.0149951 -1.195 
0.0177316 -0.0450064 -1.18555 0.0376438 -0.0131494 -1.18203 0.495001 -0.0249943 -1.19501 
0.0586413 -0.00559103 -1.19501 0.0247517 -0.0450023 -1.195 0.0519239 -0.0144463 -1.195 
0.400544 -0.0229139 -1.195 0.0225683 -0.0318201 -1.17271 0.246994 -0.020571 -1.18782 
0.453053 -0.0050694 -1.18628 0.189355 -0.0269187 -1.195 0.434649 -0.0203377 -1.195 
0.467994 -0.0258182 -1.19125 0.485707 -0.00866772 -1.19501 0.414656 -0.0206145 -1.18297 
0.47233 -0.0450022 -1.18671 0.40063 -0.0375814 -1.19501 0.0193714 -0.0183846 -1.18692 
0.060989 -0.019024 -1.19501 0.441997 -0.0131937 -1.195 0.132553 -0.0165429 -1.18683 
0.0806114 -0.00499642 -1.18635 0.430681 -0.0450006 -1.195 0.00499775 -0.0450039 -1.18501 
0.474883 -0.0135983 -1.19501 0.230778 -0.0331268 -1.18693 0.450858 -0.0224352 -1.19501 
0.0349042 -0.0280234 -1.195 0.486362 -0.00499908 -1.18573 0.0149961 -0.00499885 -1.19501 
0.476969 -0.0235258 -1.195 0.0049983 -0.0350044 -1.19501 0.188059 -0.00969612 -1.18773 
0.0289605 -0.0342937 -1.17999 0.0277861 -0.0129928 -1.18696 0.0400344 -0.0449388 -1.18652 
0.453352 -0.0131347 -1.19233 0.12075 -0.0123819 -1.18773 0.379673 -0.044991 -1.195 
0.0386629 -0.00499443 -1.19501 0.0580457 -0.0132074 -1.17646 0.225249 -0.00499582 -1.18673 
0.0215927 -0.012581 -1.195 0.449164 -0.0450031 -1.1885 0.48567 -0.0336551 -1.18635 
0.155985 -0.036285 -1.195 0.0622472 -0.0220906 -1.17831 0.0906051 -0.0136617 -1.195 
0.482762 -0.023663 -1.18686 0.0212304 -0.0260354 -1.18075 0.0614504 -0.036247 -1.195 
0.235758 -0.0362803 -1.19501 0.495 -0.0351359 -1.195 0.477512 -0.00499862 -1.19061 
0.00499738 -0.0149944 -1.19501 0.0748987 -0.0131893 -1.18682 0.142774 -0.0279234 -1.18674 
0.0310204 -0.0245398 -1.17923 0.23587 -0.00791631 -1.18685 0.463682 -0.0201869 -1.17982 
0.195868 -0.0419862 -1.18688 0.0347495 -0.0449153 -1.195 0.359688 -0.045004 -1.195 
0.373851 -0.0139584 -1.19486 0.00499845 -0.00499775 -1.19501 0.119031 -0.0421272 -1.18684 
0.0157829 -0.0389115 -1.1708 0.286062 -0.00500306 -1.18637 0.466759 -0.0450001 -1.19501 
0.209131 -0.015242 -0.245002 0.495002 -0.0300623 -1.18639 0.0977052 -0.0240417 -1.17953 
0.0498595 -0.0132473 -1.1822 0.441585 -0.0445427 -1.19501 0.458266 -0.0366404 -1.18975 
0.41556 -0.0362437 -1.19501 0.0856115 -0.00499914 -1.19501 0.485704 -0.0186638 -1.195 
0.47661 -0.0343672 -1.195 0.0116924 -0.0450014 -1.17759 0.0665032 -0.0362954 -1.18633 
0.162647 -0.00499915 -1.195 0.285661 -0.0361916 -1.195 0.0565878 -0.0450044 -1.19501 
0.0853984 -0.0308399 -1.18642 0.41972 -0.0220308 -1.195 0.23584 -0.0136918 -1.195 
0.393915 -0.0449933 -1.195 0.327055 -0.0110072 -1.13265 0.0245932 -0.016932 -1.17835 
0.0921061 -0.0380828 -1.18801 0.411695 -0.00669849 -1.17776 0.126845 -0.0205993 -0.994797 
0.435027 -0.0359937 -1.195 0.0905087 -0.0311162 -1.19501 0.0721154 -0.00499773 -1.18109 
0.107694 -0.023652 -1.17975 0.394532 -0.00536167 -1.18636 0.132497 -0.0049986 -1.195 
0.378337 -0.0350851 -1.195 0.0448873 -0.045004 -1.17778 0.0453224 -0.0450023 -1.195 
0.051764 -0.0050984 -1.17654 0.0167641 -0.0336663 -1.19501 0.0286654 -0.00499806 -1.19501 
0.0756123 -0.00506541 -1.19501 0.488181 -0.0137592 -1.18008 0.442348 -0.0371704 -1.1883 
0.0464675 -0.0282582 -1.19226 0.0236122 -0.0224505 -1.195 0.0737335 -0.0344837 -1.17966 
0.0268706 -0.00669652 -1.17925 0.175876 -0.0395116 -1.18831 0.401554 -0.0450077 -1.18839 
0.0604746 -0.0121965 -1.18773 0.425534 -0.0369712 -1.19201 0.0797825 -0.0160729 -1.17859 
0.45904 -0.0281779 -1.19501 0.0112642 -0.0376885 -1.18769 0.0671915 -0.013677 -1.18048 
0.404353 -0.0136819 -1.19501 0.261167 -0.0204161 -1.18758 0.0767194 -0.0450005 -1.195 
0.0956116 -0.00499971 -1.195 0.409418 -0.00499248 -1.19501 0.395146 -0.0197858 -1.18705 
0.334108 -0.0167034 -1.195 0.478492 -0.0388824 -1.18176 0.105611 -0.00499929 -1.195 
0.360479 -0.0245443 -1.19501 0.261285 -0.0389382 -1.18701 0.100603 -0.0136644 -1.19501 
0.126316 -0.0354252 -1.18543 0.0615877 -0.0450012 -1.18635 0.0802715 -0.0308526 -1.195 
0.033668 -0.0136533 -1.19501 0.407415 -0.0302417 -1.19501 0.225847 -0.0420093 -1.18688 
0.355346 -0.033123 -1.195 0.400163 -0.0378872 -1.18151 0.152517 -0.0223322 -1.195 
0.421173 -0.005003 -1.19501 0.104046 -0.0276758 -1.19501 0.0906046 -0.02231 -1.18635 
0.155887 -0.0449999 -1.18634 0.409065 -0.0449762 -1.195 0.220851 -0.0449969 -1.195 
0.203064 -0.00499974 -1.195 0.00499973 -0.0298928 -1.17205 0.427929 -0.0277405 -1.195 
0.209206 -0.024512 -1.195 0.330767 -0.0446963 -1.195 0.445837 -0.0121418 -1.18581 
0.114049 -0.0103625 -1.195 0.0666508 -0.0449513 -1.17773 0.18306 -0.00499801 -1.195 
0.266078 -0.00854914 -1.18702 0.350501 -0.0243529 -1.195 0.415277 -0.0130788 -1.195 
0.0560651 -0.0277272 -1.19501 0.389369 -0.0223122 -1.195 0.0388384 -0.0292364 -1.18587 
0.0939125 -0.0450005 -1.195 0.44302 -0.0297813 -1.19501 0.0509579 -0.0450048 -1.18674 
0.147493 -0.0309789 -1.195 0.236742 -0.0415364 -1.18656 0.0714481 -0.0360654 -1.19501 
0.157647 -0.0078881 -1.18684 0.469224 -0.0166876 -1.18737 0.0226547 -0.0416523 -1.17753 
0.0806069 -0.0137302 -1.19501 0.107391 -0.0122856 -1.1878 0.339013 -0.025433 -1.19466 
0.384404 -0.0291922 -1.18968 0.0991151 -0.0450027 -1.1863 0.230873 -0.0049999 -1.195 
0.109048 -0.0190183 -1.195 0.328992 -0.0259049 -1.195 0.379357 -0.0223656 -1.19499 
0.282968 -0.0297766 -1.18781 0.426169 -0.00505623 -1.18634 0.230849 -0.0449991 -1.195 
0.265946 -0.0350413 -1.19496 0.420621 -0.0134417 -1.18654 0.0783144 -0.0377241 -1.18794 
0.095601 -0.0223233 -1.19501 0.142462 -0.0396227 -1.195 0.305676 -0.0362111 -1.195 
0.420381 -0.0450007 -1.19502 0.0845188 -0.0379956 -1.17949 0.369284 -0.00499221 -1.19499 
0.0557891 -0.0287583 -1.1746 0.0439787 -0.00499787 -1.18282 0.0671152 -0.00499769 -1.18974 
0.310328 -0.0303907 -1.18804 0.160997 -0.0276333 -1.195 0.410238 -0.0211547 -1.19195 
0.0803907 -0.0221852 -1.18648 0.35339 -0.012788 -1.195 0.172801 -0.0175399 -1.18736 
0.195922 -0.0303512 -1.18688 0.185564 -0.0361713 -1.195 0.315638 -0.0352536 -1.195 
0.0486612 -0.00499596 -1.19501 0.0492853 -0.0213888 -1.17643 0.167648 -0.0136583 -1.195 
0.364833 -0.0362585 -1.195 0.135793 -0.0376089 -1.18774 0.122482 -0.00499576 -1.195 
0.129034 -0.0450018 -1.18634 0.0681074 -0.0204449 -1.18814 0.0691534 -0.0132513 -1.195 
0.369683 -0.0450034 -1.195 0.345349 -0.0332149 -1.195 0.109029 -0.0305744 -1.18684 
0.415584 -0.0200405 -1.16596 0.157646 -0.0136608 -1.195 0.290823 -0.0449631 -1.195 
0.385498 -0.0209536 -1.18355 0.0932082 -0.0330494 -1.17944 0.162648 -0.0198499 -1.18895 
0.114116 -0.0049944 -1.18657 0.0621166 -0.00499714 -1.181 0.213064 -0.00499954 -1.195 
0.278934 -0.0241221 -1.19501 0.152648 -0.00499951 -1.195 0.280829 -0.0449411 -1.195 
0.344093 -0.0164556 -1.195 0.0733043 -0.0290728 -1.18806 0.270831 -0.0449021 -1.19494 
0.0956101 -0.00788209 -1.17818 0.187402 -0.0165253 -1.195 0.433502 -0.0127765 -1.18856 
0.342513 -0.00573813 -1.195 0.102198 -0.0363441 -1.18237 0.199263 -0.0255762 -1.19501 
0.205856 -0.0404376 -1.18764 0.200858 -0.0450003 -1.195 0.226975 -0.0183142 -1.195 
0.332377 -0.00637522 -1.195 0.215092 -0.0358224 -1.195 0.180039 -0.0232877 -1.195 
0.142517 -0.0223047 -1.195 0.0973227 -0.029558 -1.18786 0.300804 -0.0450018 -1.195 
0.0716412 -0.0450023 -1.18639 0.399433 -0.00499016 -1.19504 0.216971 -0.0182118 -1.195 
0.245842 -0.013702 -1.195 0.137519 -0.00786362 -1.18685 0.118859 -0.0288294 -1.18632 
0.142419 -0.0450034 -1.18658 0.132492 -0.0222972 -1.195 0.240845 -0.0450008 -1.195 
0.066293 -0.027498 -1.19501 0.100614 -0.0049993 -1.18635 0.193061 -0.00499917 -1.195 
0.177853 -0.00767883 -1.1869 0.254887 -0.0180379 -1.195 0.255823 -0.0362001 -1.195 
0.311243 -0.005106 -1.195 0.150888 -0.0450012 -1.195 0.132775 -0.0279051 -1.18673 
0.124033 -0.0450015 -1.195 0.394347 -0.0136415 -1.195 0.291105 -0.00499609 -1.195 
0.11405 -0.0196845 -1.18637 0.435545 -0.028248 -1.18855 0.142552 -0.0165121 -1.18685 
0.208066 -0.0349728 -0.245002 0.274475 -0.041349 -1.18617 0.301104 -0.00500274 -1.195 
0.367911 -0.0203225 -1.18983 0.276065 -0.00902029 -1.18684 0.0820559 -0.0269423 -1.17784 
0.33572 -0.0360009 -1.195 0.0049988 -0.0422464 -1.17069 0.0851294 -0.0395921 -1.19501 
0.350214 -0.0419308 -1.19418 0.055284 -0.0368465 -1.16874 0.147578 -0.0136353 -1.195 
0.142539 -0.00499826 -1.195 0.172646 -0.00499856 -1.195 0.249541 -0.0270496 -1.195 
0.26122 -0.00500534 -1.19501 0.391353 -0.0336927 -1.18407 0.109035 -0.0363419 -1.195 
0.288834 -0.0259847 -1.195 0.245826 -0.0363325 -1.195 0.318805 -0.0257653 -1.195 
0.0850322 -0.0450054 -1.1866 0.281201 -0.0063801 -1.195 0.240823 -0.0303822 -1.18872 
0.124047 -0.0276786 -1.195 0.260835 -0.0449896 -1.195 0.475235 -0.0302741 -1.18599 
0.124131 -0.0208063 -1.18354 0.240341 -0.0226204 -1.195 0.161121 -0.0361958 -1.18641 
0.17088 -0.0450031 -1.195 0.210853 -0.0450004 -1.195 0.271293 -0.00500401 -1.195 
0.32413 -0.0171096 -1.195 0.399762 -0.0302605 -1.18825 0.215844 -0.0420152 -1.18687 
0.160884 -0.0450002 -1.195 0.325633 -0.0358113 -1.195 0.304459 -0.0144165 -1.195 
0.378878 -0.0130295 -1.18607 0.220696 -0.0332728 -1.18689 0.137519 -0.0136452 -1.195 
0.295671 -0.0362147 -1.195 0.284562 -0.0158579 -1.195 0.240879 -0.00502075 -1.195 
0.208065 -0.0136658 -1.195 0.203651 -0.019619 -1.18828 0.0990361 -0.0363388 -1.195 
0.221968 -0.00955117 -1.195 0.152604 -0.0165298 -1.18686 0.129035 -0.0363429 -1.195 
0.435638 -0.0203323 -1.18231 0.25084 -0.0449906 -1.195 0.19806 -0.0086102 -1.18713 
0.134034 -0.0450016 -1.195 0.433306 -0.0361776 -1.18289 0.259538 -0.0269163 -1.195 
0.149173 -0.0377399 -1.18783 0.363381 -0.0130527 -1.195 0.268944 -0.0235334 -1.195 
0.371769 -0.0377849 -1.18796 0.154191 -0.0290906 -1.18783 0.180872 -0.0450015 -1.195 
0.0856075 -0.00788007 -1.17818 0.195563 -0.0361696 -1.195 0.375503 -0.0258794 -1.18644 
0.165888 -0.044996 -1.18634 0.220836 -0.0274338 -1.195 0.386796 -0.0391139 -1.19114 
0.175339 -0.0321073 -1.195 0.32039 -0.011542 -1.18757 0.221944 -0.0215469 -1.18699 
0.193565 -0.0207468 -1.18836 0.451801 -0.0377166 -1.18219 0.166204 -0.0361691 -1.19501 
0.185867 -0.0419925 -1.18688 0.225745 -0.0361918 -1.19501 0.09061 -0.00499768 -1.18635 
0.299222 -0.0183289 -1.18713 0.298738 -0.0244843 -1.195 0.275894 -0.0340433 -1.19436 
0.450928 -0.0299733 -1.18845 0.07296 -0.0233267 -1.17988 0.211036 -0.0307444 -1.1874 
0.250879 -0.00500181 -1.195 0.309001 -0.0233384 -1.195 0.147593 -0.00783822 -1.18686 
0.10239 -0.0209411 -1.1878 0.127484 -0.0136496 -1.195 0.474988 -0.0216735 -1.18089 
0.231445 -0.0272596 -1.195 0.460916 -0.028923 -1.18397 0.114032 -0.0450015 -1.195 
0.450904 -0.0206034 -1.1835 0.170039 -0.0233673 -1.195 0.215041 -0.0115994 -1.18776 
0.119048 -0.0190212 -1.195 0.264623 -0.0144768 -1.195 0.31079 -0.0449893 -1.195 
0.198051 -0.014776 -1.195 0.320782 -0.0449888 -1.195 
VERTICES 500 1000
1 0 
1 1 
1 2 
1 3 
1 4 
1 5 
1 6 
1 7 
1 8 
1 9 
1 10 
1 11 
1 12 
1 13 
1 14 
1 15 
1 16 
1 17 
1 18 
1 19 
1 20 
1 21 
1 22 
1 23 
1 24 
1 25 
1 26 
1 27 
1 28 
1 29 
1 30 
1 31 
1 32 
1 33 
1 34 
1 35 
1 36 
1 37 
1 38 
1 39 
1 40 
1 41 
1 42 
1 43 
1 44 
1 45 
1 46 
1 47 
1 48 
1 49 
1 50 
1 51 
1 52 
1 53 
1 54 
1 55 
1 56 
1 57 
1 58 
1 59 
1 60 
1 61 
1 62 
1 63 
1 64 
1 65 
1 66 
1 67 
1 68 
1 69 
1 70 
1 71 
1 72 
1 73 
1 74 
1 75 
1 76 
1 77 
1 78 
1 79 
1 80 
1 81 
1 82 
1 83 
1 84 
1 85 
1 86 
1 87 
1 88 
1 89 
1 90 
1 91 
1 92 
1 93 
1 94 
1 95 
1 96 
1 97 
1 98 
1 99 
1 100 
1 101 
1 102 
1 103 
1 104 
1 105 
1 106 
1 107 
1 108 
1 109 
1 110 
1 111 
1 112 
1 113 
1 114 
1 115 
1 116 
1 117 
1 118 
1 119 
1 120 
1 121 
1 122 
1 123 
1 124 
1 125 
1 126 
1 127 
1 128 
1 129 
1 130 
1 131 
1 132 
1 133 
1 134 
1 135 
1 136 
1 137 
1 138 
1 139 
1 140 
1 141 
1 142 
1 143 
1 144 
1 145 
1 146 
1 147 
1 148 
1 149 
1 150 
1 151 
1 152 
1 153 
1 154 
1 155 
1 156 
1 157 
1 158 
1 159 
1 160 
1 161 
1 162 
1 163 
1 164 
1 165 
1 166 
1 167 
1 168 
1 169 
1 170 
1 171 
1 172 
1 173 
1 174 
1 175 
1 176 
1 177 
1 178 
1 179 
1 180 
1 181 
1 182 
1 183 
1 184 
1 185 
1 186 
1 187 
1 188 
1 189 
1 190 
1 191 
1 192 
1 193 
1 194 
1 195 
1 196 
1 197 
1 198 
1 199 
1 200 
1 201 
1 202 
1 203 
1 204 
1 205 
1 206 
1 207 
1 208 
1 209 
1 210 
1 211 
1 212 
1 213 
1 214 
1 215 
1 216 
1 217 
1 218 
1 219 
1 220 
1 221 
1 222 
1 223 
1 224 
1 225 
1 226 
1 227 
1 228 
1 229 
1 230 
1 231 
1 232 
1 233 
1 234 
1 235 
1 236 
1 237 
1 238 
1 239 
1 240 
1 241 
1 242 
1 243 
1 244 
1 245 
1 246 
1 247 
1 248 
1 249 
1 250 
1 251 
1 252 
1 253 
1 254 
1 255 
1 256 
1 257 
1 258 
1 259 
1 260 
1 261 
1 262 
1 263 
1 264 
1 265 
1 266 
1 267 
1 268 
1 269 
1 270 
1 271 
1 272 
1 273 
1 274 
1 275 
1 276 
1 277 
1 278 
1 279 
1 280 
1 281 
1 282 
1 283 
1 284 
1 285 
1 286 
1 287 
1 288 
1 289 
1 290 
1 291 
1 292 
1 293 
1 294 
1 295 
1 296 
1 297 
1 298 
1 299 
1 300 
1 301 
1 302 
1 303 
1 304 
1 305 
1 306 
1 307 
1 308 
1 309 
1 310 
1 311 
1 312 
1 313 
1 314 
1 315 
1 316 
1 317 
1 318 
1 319 
1 320 
1 321 
1 322 
1 323 
1 324 
1 325 
1 326 
1 327 
1 328 
1 329 
1 330 
1 331 
1 332 
1 333 
1 334 
1 335 
1 336 
1 337 
1 338 
1 339 
1 340 
1 341 
1 342 
1 343 
1 344 
1 345 
1 346 
1 347 
1 348 
1 349 
1 350 
1 351 
1 352 
1 353 
1 354 
1 355 
1 356 
1 357 
1 358 
1 359 
1 360 
1 361 
1 362 
1 363 
1 364 
1 365 
1 366 
1 367 
1 368 
1 369 
1 370 
1 371 
1 372 
1 373 
1 374 
1 375 
1 376 
1 377 
1 378 
1 379 
1 380 
1 381 
1 382 
1 383 
1 384 
1 385 
1 386 
1 387 
1 388 
1 389 
1 390 
1 391 
1 392 
1 393 
1 394 
1 395 
1 396 
1 397 
1 398 
1 399 
1 400 
1 401 
1 402 
1 403 
1 404 
1 405 
1 406 
1 407 
1 408 
1 409 
1 410 
1 411 
1 412 
1 413 
1 414 
1 415 
1 416 
1 417 
1 418 
1 419 
1 420 
1 421 
1 422 
1 423 
1 424 
1 425 
1 426 
1 427 
1 428 
1 429 
1 430 
1 431 
1 432 
1 433 
1 434 
1 435 
1 436 
1 437 
1 438 
1 439 
1 440 
1 441 
1 442 
1 443 
1 444 
1 445 
1 446 
1 447 
1 448 
1 449 
1 450 
1 451 
1 452 
1 453 
1 454 
1 455 
1 456 
1 457 
1 458 
1 459 
1 460 
1 461 
1 462 
1 463 
1 464 
1 465 
1 466 
1 467 
1 468 
1 469 
1 470 
1 471 
1 472 
1 473 
1 474 
1 475 
1 476 
1 477 
1 478 
1 479 
1 480 
1 481 
1 482 
1 483 
1 484 
1 485 
1 486 
1 487 
1 488 
1 489 
1 490 
1 491 
1 492 
1 493 
1 494 
1 495 
1 496 
1 497 
1 498 
1 499 

POINT_DATA 500
FIELD FieldData 7
id 1 500 int
1 2 3 4 5 6 7 8 9 
10 11 12 13 14 15 16 17 18 
19 20 21 22 23 24 25 26 27 
28 29 30 31 32 33 34 35 36 
37 38 39 40 41 42 43 44 45 
46 47 48 49 50 51 52 53 54 
55 56 57 58 59 60 61 62 63 
64 65 66 67 68 69 70 71 72 
73 74 75 76 77 78 79 80 81 
82 83 84 85 86 87 88 89 90 
91 92 93 94 95 96 97 98 99 
100 101 102 103 104 105 106 107 108 
109 110 111 112 113 114 115 116 117 
118 119 120 121 122 123 124 125 126 
127 128 129 130 131 132 133 134 135 
136 137 138 139 140 141 142 143 144 
145 146 147 148 149 150 151 152 153 
154 155 156 157 158 159 160 161 162 
163 164 165 166 167 168 169 170 171 
172 173 174 175 176 177 178 179 180 
181 182 183 184 185 186 187 188 189 
190 191 192 193 194 195 196 197 198 
199 200 201 202 203 204 205 206 207 
208 209 210 211 212 213 214 215 216 
217 218 219 220 221 222 223 224 225 
226 227 228 229 230 231 232 233 234 
235 236 237 238 239 240 241 242 243 
244 245 246 247 248 249 250 251 252 
253 254 255 256 257 258 259 260 261 
262 263 264 265 266 267 268 269 270 
271 272 273 274 275 276 277 278 279 
280 281 282 283 284 285 286 287 288 
289 290 291 292 293 294 295 296 297 
298 299 300 301 302 303 304 305 306 
307 308 309 310 311 312 313 314 315 
316 317 318 319 320 321 322 323 324 
325 326 327 328 329 330 331 332 333 
334 335 336 337 338 339 340 341 342 
343 344 345 346 347 348 349 350 351 
352 353 354 355 356 357 358 359 360 
361 362 363 364 365 366 367 368 369 
370 371 372 373 374 375 376 377 378 
379 380 381 382 383 384 385 386 387 
388 389 390 391 392 393 394 395 396 
397 398 399 400 401 402 403 404 405 
406 407 408 409 410 411 412 413 414 
415 416 417 418 419 420 421 422 423 
424 425 426 427 428 429 430 431 432 
433 434 435 436 437 438 439 440 441 
442 443 444 445 446 447 448 449 450 
451 452 453 454 455 456 457 458 459 
460 461 462 463 464 465 466 467 468 
469 470 471 472 473 474 475 476 477 
478 479 480 481 482 483 484 485 486 
487 488 489 490 491 492 493 494 495 
496 497 498 499 500 
type 1 500 int
1 1 1 1 1 1 1 1 1 
1 1 1 1 1 1 1 1 1 
1 1 1 1 1 1 1 1 1 
1 1 1 1 1 1 1 1 1 
1 1 1 1 1 1 1 1 1 
1 1 1 1 1 1 1 1 1 
1 1 1 1 1 1 1 1 1 
1 1 1 1 1 1 1 1 1 
1 1 1 1 1 1 1 1 1 
1 1 1 1 1 1 1 1 1 
1 1 1 1 1 1 1 1 1 
1 1 1 1 1 1 1 1 1 
1 1 1 1 1 1 1 1 1 
1 1 1 1 1 1 1 1 1 
1 1 1 1 1 1 1 1 1 
1 1 1 1 1 1 1 1 1 
1 1 1 1 1 1 1 1 1 
1 1 1 1 1 1 1 1 1 
1 1 1 1 1 1 1 1 1 
1 1 1 1 1 1 1 1 1 
1 1 1 1 1 1 1 1 1 
1 1 1 1 1 1 1 1 1 
1 1 1 1 1 1 1 1 1 
1 1 1 1 1 1 1 1 1 
1 1 1 1 1 1 1 1 1 
1 1 1 1 1 1 1 1 1 
1 1 1 1 1 1 1 1 1 
1 1 1 1 1 1 1 1 1 
1 1 1 1 1 1 1 1 1 
1 1 1 1 1 1 1 1 1 
1 1 1 1 1 1 1 1 1 
1 1 1 1 1 1 1 1 1 
1 1 1 1 1 1 1 1 1 
1 1 1 1 1 1 1 1 1 
1 1 1 1 1 1 1 1 1 
1 1 1 1 1 1 1 1 1 
1 1 1 1 1 1 1 1 1 
1 1 1 1 1 1 1 1 1 
1 1 1 1 1 1 1 1 1 
1 1 1 1 1 1 1 1 1 
1 1 1 1 1 1 1 1 1 
1 1 1 1 1 1 1 1 1 
1 1 1 1 1 1 1 1 1 
1 1 1 1 1 1 1 1 1 
1 1 1 1 1 1 1 1 1 
1 1 1 1 1 1 1 1 1 
1 1 1 1 1 1 1 1 1 
1 1 1 1 1 1 1 1 1 
1 1 1 1 1 1 1 1 1 
1 1 1 1 1 1 1 1 1 
1 1 1 1 1 1 1 1 1 
1 1 1 1 1 1 1 1 1 
1 1 1 1 1 1 1 1 1 
1 1 1 1 1 1 1 1 1 
1 1 1 1 1 1 1 1 1 
1 1 1 1 1 
i 3 500 int
0 0 0 0 0 0 0 0 0 
0 0 0 0 0 0 0 0 0 
0 0 0 0 0 0 0 0 0 
0 0 0 0 0 0 0 0 0 
0 0 0 0 0 0 0 0 0 
0 0 0 0 0 0 0 0 0 
0 0 0 0 0 0 0 0 0 
0 0 0 0 0 0 0 0 0 
0 0 0 0 0 0 0 0 0 
0 0 0 0 0 0 0 0 0 
0 0 0 0 0 0 0 0 0 
0 0 0 0 0 0 0 0 0 
0 0 0 0 0 0 0 0 0 
0 0 0 0 0 0 0 0 0 
0 0 0 0 0 0 0 0 0 
0 0 0 0 0 0 0 0 0 
0 0 0 0 0 0 0 0 0 
0 0 0 0 0 0 0 0 0 
0 0 0 0 0 0 0 0 0 
0 0 0 0 0 0 0 0 0 
0 0 0 0 0 0 0 0 0 
0 0 0 0 0 0 0 0 0 
0 0 0 0 0 0 0 0 0 
0 0 0 0 0 0 0 0 0 
0 0 0 0 0 0 0 0 0 
0 0 0 0 0 0 0 0 0 
0 0 0 0 0 0 0 0 0 
0 0 0 0 0 0 0 0 0 
0 0 0 0 0 0 0 0 0 
0 0 0 0 0 0 0 0 0 
0 0 0 0 0 0 0 0 0 
0 0 0 0 0 0 0 0 0 
0 0 0 0 0 0 0 0 0 
0 0 0 0 0 0 0 0 0 
0 0 0 0 0 0 0 0 0 
0 0 0 0 0 0 0 0 0 
0 0 0 0 0 0 0 0 0 
0 0 0 0 0 0 0 0 0 
0 0 0 0 0 0 0 0 0 
0 0 0 0 0 0 0 0 0 
0 0 0 0 0 0 0 0 0 
0 0 0 0 0 0 0 0 0 
0 0 0 0 0 0 0 0 0 
0 0 0 0 0 0 0 0 0 
0 0 0 0 0 0 0 0 0 
0 0 0 0 0 0 0 0 0 
0 0 0 0 0 0 0 0 0 
0 0 0 0 0 0 0 0 0 
0 0 0 0 0 0 0 0 0 
0 0 0 0 0 0 0 0 0 
0 0 0 0 0 0 0 0 0 
0 0 0 0 0 0 0 0 0 
0 0 0 0 0 0 0 0 0 
0 0 0 0 0 0 0 0 0 
0 0 0 0 0 0 0 0 0 
0 0 0 0 0 0 0 0 0 
0 0 0 0 0 0 0 0 0 
0 0 0 0 0 0 0 0 0 
0 0 0 0 0 0 0 0 0 
0 0 0 0 0 0 0 0 0 
0 0 0 0 0 0 0 0 0 
0 0 0 0 0 0 0 0 0 
0 0 0 0 0 0 0 0 0 
0 0 0 0 0 0 0 0 0 
0 0 0 0 0 0 0 0 0 
0 0 0 0 0 0 0 0 0 
0 0 0 0 0 0 0 0 0 
0 0 0 0 0 0 0 0 0 
0 0 0 0 0 0 0 0 0 
0 0 0 0 0 0 0 0 0 
0 0 0 0 0 0 0 0 0 
0 0 0 0 0 0 0 0 0 
0 0 0 0 0 0 0 0 0 
0 0 0 0 0 0 0 0 0 
0 0 0 0 0 0 0 0 0 
0 0 0 0 0 0 0 0 0 
0 0 0 0 0 0 0 0 0 
0 0 0 0 0 0 0 0 0 
0 0 0 0 0 0 0 0 0 
0 0 0 0 0 0 0 0 0 
0 0 0 0 0 0 0 0 0 
0 0 0 0 0 0 0 0 0 
0 0 0 0 0 0 0 0 0 
0 0 0 0 0 0 0 0 0 
0 0 0 0 0 0 0 0 0 
0 0 0 0 0 0 0 0 0 
0 0 0 0 0 0 0 0 0 
0 0 0 0 0 0 0 0 0 
0 0 0 0 0 0 0 0 0 
0 0 0 0 0 0 0 0 0 
0 0 0 0 0 0 0 0 0 
0 0 0 0 0 0 0 0 0 
0 0 0 0 0 0 0 0 0 
0 0 0 0 0 0 0 0 0 
0 0 0 0 0 0 0 0 0 
0 0 0 0 0 0 0 0 0 
0 0 0 0 0 0 0 0 0 
0 0 0 0 0 0 0 0 0 
0 0 0 0 0 0 0 0 0 
0 0 0 0 0 0 0 0 0 
0 0 0 0 0 0 0 0 0 
0 0 0 0 0 0 0 0 0 
0 0 0 0 0 0 0 0 0 
0 0 0 0 0 0 0 0 0 
0 0 0 0 0 0 0 0 0 
0 0 0 0 0 0 0 0 0 
0 0 0 0 0 0 0 0 0 
0 0 0 0 0 0 0 0 0 
0 0 0 0 0 0 0 0 0 
0 0 0 0 0 0 0 0 0 
0 0 0 0 0 0 0 0 0 
0 0 0 0 0 0 0 0 0 
0 0 0 0 0 0 0 0 0 
0 0 0 0 0 0 0 0 0 
0 0 0 0 0 0 0 0 0 
0 0 0 0 0 0 0 0 0 
0 0 0 0 0 0 0 0 0 
0 0 0 0 0 0 0 0 0 
0 0 0 0 0 0 0 0 0 
0 0 0 0 0 0 0 0 0 
0 0 0 0 0 0 0 0 0 
0 0 0 0 0 0 0 0 0 
0 0 0 0 0 0 0 0 0 
0 0 0 0 0 0 0 0 0 
0 0 0 0 0 0 0 0 0 
0 0 0 0 0 0 0 0 0 
0 0 0 0 0 0 0 0 0 
0 0 0 0 0 0 0 0 0 
0 0 0 0 0 0 0 0 0 
0 0 0 0 0 0 0 0 0 
0 0 0 0 0 0 0 0 0 
0 0 0 0 0 0 0 0 0 
0 0 0 0 0 0 0 0 0 
0 0 0 0 0 0 0 0 0 
0 0 0 0 0 0 0 0 0 
0 0 0 0 0 0 0 0 0 
0 0 0 0 0 0 0 0 0 
0 0 0 0 0 0 0 0 0 
0 0 0 0 0 0 0 0 0 
0 0 0 0 0 0 0 0 0 
0 0 0 0 0 0 0 0 0 
0 0 0 0 0 0 0 0 0 
0 0 0 0 0 0 0 0 0 
0 0 0 0 0 0 0 0 0 
0 0 0 0 0 0 0 0 0 
0 0 0 0 0 0 0 0 0 
0 0 0 0 0 0 0 0 0 
0 0 0 0 0 0 0 0 0 
0 0 0 0 0 0 0 0 0 
0 0 0 0 0 0 0 0 0 
0 0 0 0 0 0 0 0 0 
0 0 0 0 0 0 0 0 0 
0 0 0 0 0 0 0 0 0 
0 0 0 0 0 0 0 0 0 
0 0 0 0 0 0 0 0 0 
0 0 0 0 0 0 0 0 0 
0 0 0 0 0 0 0 0 0 
0 0 0 0 0 0 0 0 0 
0 0 0 0 0 0 0 0 0 
0 0 0 0 0 0 0 0 0 
0 0 0 0 0 0 0 0 0 
0 0 0 0 0 0 0 0 0 
0 0 0 0 0 0 0 0 0 
0 0 0 0 0 0 0 0 0 
0 0 0 0 0 0 0 0 0 
0 0 0 0 0 0 0 0 0 
0 0 0 0 0 0 
v 3 500 double
-0.0544951 -0.000275307 -0.0124732 -0.0310293 0.00719577 -0.012689 7.48369e-06 -3.25679e-06 3.5223e-06 
0.00376277 -0.00104323 -0.00599695 0.000183036 0.000545524 -0.000372608 0.000953618 1.78342e-05 -0.00248465 
0.00290424 -0.00143116 0.000386475 -0.00090109 6.98203e-06 0.000464106 0.00647284 -6.69159e-05 1.65737e-06 
0.00780868 0.00178737 0.00402163 -0.0260958 -0.0375715 0.000988625 -0.00128455 0.00230827 0.000373546 
0.00112689 0.000498617 -0.00159463 0.0254566 0.00524878 0.00213753 0.00214835 0.00124581 -0.00322195 
-0.0610286 0.0313019 0.00576363 3.0503e-06 2.68418e-05 -3.99941e-06 8.69847e-05 0.000154158 1.46177e-05 
0.00342286 8.4092e-05 9.98372e-05 -0.00670804 0.000368194 -0.0052882 -3.36462e-05 6.87668e-06 -1.73797e-05 
-0.0106683 -0.003289 -0.000656046 -0.000128797 -3.34148e-05 1.51276e-05 0.00414449 2.40606e-05 -1.25742e-05 
0.00407668 -0.00143756 -0.000346015 -0.0744126 -0.0188575 -0.0144612 0.000805197 -0.00015825 0.00010751 
-0.0113945 0.000627992 -0.000857939 -0.026001 0.00817116 -0.00667641 0.00615019 -3.03987e-05 -4.68319e-05 
0.00108293 -0.00080239 -0.000380213 -0.0268952 -0.00173621 -0.00744948 -0.0346545 -0.00382401 -0.00672516 
-0.00935655 0.000100148 -0.00774628 0.00616921 -0.0096216 0.000427089 0.00147695 -0.00181672 -0.00217161 
-0.044455 -0.00495797 0.149282 -1.07768e-05 5.895e-06 -5.08425e-06 0.000885792 -0.00234203 -0.00185898 
0.000179201 4.4268e-05 -5.22048e-05 0.0183497 -0.0234269 -4.19984e-11 0.00756598 0.00110065 7.83465e-05 
-0.00163799 0.00174447 -0.00258097 -0.0614008 -0.00191726 -0.00892668 0.00728344 0.000655636 -0.000103163 
-0.0175287 0.00383878 -4.95694e-05 9.29005e-06 -7.06866e-06 4.38385e-06 2.12168e-06 -5.71158e-08 1.8362e-06 
0.00013175 7.33594e-06 7.64397e-05 -0.0395518 0.0108443 0.0118442 -0.0855093 0.00220444 -0.0150022 
0.000525408 -0.000359813 -0.000419231 0.00196936 1.32358e-05 -0.00180668 0.0036502 2.83039e-05 -0.000529484 
1.75353e-05 -7.35791e-06 2.36309e-06 4.06892e-06 1.20565e-06 -2.63731e-05 0.00602825 0.000206816 6.60375e-05 
0.00715938 0.0014827 -0.000108559 0.00109373 -1.26013e-05 -0.00275738 0.00269537 -0.0013163 -0.00793867 
-5.10941e-05 1.50912e-05 -2.28252e-05 0.00178569 -5.64677e-05 0.000689971 9.77317e-05 0.000531164 -0.000349994 
0.00508951 -0.00188984 -0.0012745 0.00635242 8.15627e-06 0.000480868 -0.0133227 0.00179654 -0.00231707 
-0.0294414 -0.0038814 -0.0383983 -0.0181529 -0.0119712 -0.00875384 -0.0182946 0.000201807 -0.000935436 
1.13792e-05 4.22094e-06 -3.54887e-05 0.000361899 -9.71546e-05 0.000198125 -1.41578e-05 0.000420178 0.000182974 
0.00396034 -0.00200558 -0.00276096 0.000131118 0.000160348 1.17695e-05 0.00530769 -2.04343e-05 -0.00146066 
0.00524607 -0.000266204 -0.000326554 0.000534117 2.01225e-05 -0.00242813 -0.0161347 -0.00576261 0.00122982 
-0.0376549 0.0118295 0.00117523 0.000103509 0.000308975 0.000124829 0.00440316 -0.000705946 -0.00042107 
0.000258689 -0.000106776 5.04275e-05 -0.0260464 0.0407134 -0.0137026 0.00259547 3.41967e-07 -0.00126747 
-0.00347233 0.0887361 -0.0146232 0.00589131 -0.000473667 2.60923e-05 -5.34113e-05 4.48794e-05 -7.04699e-05 
-0.0833634 -0.133278 -0.162305 -0.0241796 0.00136707 -0.0415615 -1.03997e-05 -1.65602e-06 -9.12716e-06 
0.00574227 -0.00141599 2.43434e-05 -0.0321499 0.0142564 -0.0401092 -0.00235711 3.16276e-05 -0.00312426 
2.95769e-06 -4.48248e-06 7.2873e-06 -8.56682e-07 -2.00144e-06 -3.41569e-06 0.000182376 -0.000187061 -0.00010049 
0.00898258 0.00153132 -0.000324883 0.00617153 -0.000119562 6.8154e-05 0.00637994 0.000557677 0.00186403 
0.00751921 -1.45706e-05 -2.34259e-05 0.00590921 0.00022847 7.66065e-05 0.00178269 4.01573e-05 1.90546e-13 
-3.21964e-05 7.299e-05 -4.51071e-05 0.0152039 -0.0209294 0.0134319 -0.0226521 -0.00933177 0.000463799 
0.259891 0.557903 -0.096746 0.00745169 0.000653772 -7.17739e-05 0.00754413 -0.000649725 -6.89409e-05 
0.00776804 0.000105881 -7.60691e-05 0.00736808 -0.00280471 -0.00317875 0.00505124 0.00214657 -0.000289282 
0.00578806 0.000224495 0.000380091 0.000649155 0.00013176 -7.37821e-05 -0.0725344 0.0180499 0.0013926 
0.00627292 0.00186423 0.000181141 0.00139713 -0.00294023 -3.44484e-05 -0.00575644 -0.0189569 -0.0148463 
-0.013498 -0.00141607 -0.0138373 0.00388964 0.000887192 0.00919002 0.00547351 0.000242844 0.000217456 
-0.0387396 0.0225796 0.000268645 0.000782829 -8.14676e-05 0.000176959 -0.00873686 0.000143612 -0.00221605 
0.00616838 0.00305567 -0.0115033 0.00630971 -0.00165712 0.00220003 -0.000468641 5.76852e-06 -0.00251928 
0.000464821 0.000976333 1.93784e-12 0.00121601 0.00355189 -0.00160909 0.000626537 0.000191773 7.39496e-05 
-8.84996e-06 1.87746e-05 -1.28617e-05 0.00247448 0.000930045 -0.00342312 0.000308686 0.000215362 0.000180046 
0.00422228 0.00240921 -4.1072e-05 -3.64907e-06 5.22599e-06 5.09988e-06 0.00644097 0.000765119 2.58214e-06 
-0.0554098 0.00957416 0.0122154 0.00181584 -0.00223179 -0.00181929 0.019148 0.00263712 -0.00700916 
0.0275769 -0.00618808 -0.0232211 0.00401899 -0.00140535 0.000630187 -0.0313672 0.0563636 -0.00100529 
-0.00870648 0.00973678 -0.015279 0.00102404 -0.00044654 -0.000245215 -0.0340709 0.00800519 -0.0141291 
-0.00450021 8.13155e-05 -0.00432335 -0.0407842 -0.010394 -0.00237108 0.000235636 -9.72996e-05 8.48141e-06 
0.00562174 -0.00110231 -0.000128588 -0.0840402 0.0524064 -0.00693523 0.0076678 0.00175461 -0.00106642 
0.00618055 -6.9358e-05 0.000104164 -0.035926 -0.000263108 -0.00160128 -4.1288e-06 4.26848e-07 -1.04224e-06 
-0.0128131 0.00865523 4.84977e-05 0.0087329 0.00192704 0.000842762 -0.0118768 -0.000488484 0.000626538 
0.000372256 -0.00214533 3.1394e-05 0.000334602 1.18474e-05 -0.000168126 2.20173e-06 3.19003e-06 8.98723e-06 
-0.00049602 0.00199347 0.000175741 3.11082e-06 -2.37601e-06 -3.07765e-06 0.0101883 0.000971252 0.001571 