# vtk DataFile Version 4.0
Generated by LIGGGHTS
ASCII
DATASET POLYDATA
POINTS 500 float
0.424655 -0.0449912 -1.18059 0.429244 -0.0342375 -1.18028 0.0051171 -0.0249893 -1.19501 
0.0386638 -0.0211123 -1.1758 0.0158526 -0.0232217 -1.17138 0.0357129 -0.00499897 -1.17479 
0.0436907 -0.0366676 -1.18489 0.030204 -0.0400209 -1.17055 0.0878473 -0.0152962 -1.17745 
0.470655 -0.00571622 -1.18297 0.382665 -0.0365365 -1.17263 0.463412 -0.0125519 -1.195 
0.0202733 -0.0144844 -1.16936 0.367073 -0.00510562 -1.19481 0.0426004 -0.0121632 -1.1737 
0.401302 -0.0280176 -1.1918 0.0289389 -0.0450029 -1.18262 0.495001 -0.0450008 -1.18512 
0.0384277 -0.0363447 -1.19501 0.482606 -0.01365 -1.18691 0.00511957 -0.0199545 -1.17188 
0.182023 -0.0323728 -1.19145 0.493533 -0.0449983 -1.195 0.0527869 -0.0049955 -1.18611 
0.178846 -0.0274285 -1.18219 0.399715 -0.0446715 -1.17846 0.485686 -0.0286455 -1.19501 
0.457992 -0.0438069 -1.195 0.361711 -0.00969536 -1.18698 0.0934807 -0.013633 -1.18609 
0.0336542 -0.0209095 -1.18797 0.442965 -0.045001 -1.18635 0.418387 -0.0122944 -1.18111 
0.461894 -0.0204571 -1.18907 0.211525 -0.0340043 -1.19489 0.0324502 -0.0367388 -1.18701 
0.411253 -0.00499489 -1.195 0.0148858 -0.0435495 -1.195 0.036588 -0.0383274 -1.17805 
0.495002 -0.0100083 -1.18635 0.220234 -0.0347798 -0.245002 0.111371 -0.0277196 -1.19501 
0.0679036 -0.0090096 -1.17087 0.423269 -0.0375382 -1.18812 0.116353 -0.0363693 -1.195 
0.467123 -0.0350425 -1.195 0.00499989 -0.036916 -1.17915 0.00499898 -0.0199895 -1.18635 
0.484562 -0.0450011 -1.18737 0.433167 -0.0200516 -1.18771 0.396623 -0.0050567 -1.19496 
0.477959 -0.0450017 -1.19501 0.021631 -0.00499705 -1.18754 0.0599395 -0.0450013 -1.16982 
0.0100148 -0.0249921 -1.1793 0.0150349 -0.0350856 -1.17881 0.0829294 -0.0223479 -1.195 
0.0668712 -0.0190523 -1.1712 0.0141237 -0.00499966 -1.18095 0.0414669 -0.0305539 -1.17409 
0.0265163 -0.0359789 -1.19501 0.451506 -0.0356526 -1.19501 0.0148427 -0.0146095 -1.17828 
0.0431151 -0.0209078 -1.18475 0.0771077 -0.0450062 -1.17837 0.433042 -0.0122208 -1.195 
0.440483 -0.0332578 -1.17874 0.447477 -0.0261632 -1.1796 0.440219 -0.00499913 -1.19501 
0.00499869 -0.0130781 -1.17913 0.485673 -0.0386439 -1.195 0.491932 -0.0200087 -1.18691 
0.0423286 -0.0119808 -1.18917 0.0137882 -0.0197455 -1.19501 0.0540281 -0.0450052 -1.17789 
0.0528035 -0.0201887 -1.18707 0.0192056 -0.00499862 -1.17234 0.425908 -0.0102109 -1.17469 
0.413512 -0.0277685 -1.19096 0.4921 -0.0370564 -1.17978 0.0492291 -0.0363404 -1.17657 
0.0265846 -0.0279451 -1.18729 0.446901 -0.020037 -1.18783 0.0072429 -0.00499833 -1.17369 
0.318374 -0.0437164 -1.13666 0.0592407 -0.0364727 -1.17779 0.0212908 -0.0363838 -1.1865 
0.336673 -0.0321907 -1.19493 0.434737 -0.0450026 -1.1804 0.00499602 -0.00499723 -1.18502 
0.0488982 -0.0366496 -1.195 0.388509 -0.0110147 -1.17858 0.058554 -0.00523232 -1.1699 
0.00499236 -0.0299867 -1.18635 0.00499662 -0.045001 -1.19501 0.0116637 -0.0116646 -1.18834 
0.124718 -0.00522642 -1.18634 0.0833168 -0.0135425 -1.18619 0.196211 -0.0449671 -1.19464 
0.0643665 -0.0450013 -1.19501 0.0729169 -0.0222381 -1.195 0.207235 -0.0449872 -0.245002 
0.0143495 -0.0269463 -1.1881 0.463805 -0.0129953 -1.1827 0.32288 -0.0185705 -1.19507 
0.377606 -0.0132431 -1.17758 0.106515 -0.0420949 -1.18676 0.134706 -0.030925 -1.19501 
0.101351 -0.0450129 -1.195 0.0493249 -0.0285211 -1.1828 0.17492 -0.0139914 -1.195 
0.0591673 -0.0278634 -1.18655 0.495003 -0.00499861 -1.195 0.403837 -0.0120123 -1.19499 
0.0973698 -0.0182828 -1.17814 0.0413764 -0.0200314 -1.19501 0.272288 -0.0141521 -1.1879 
0.447491 -0.00499926 -1.18815 0.46298 -0.0450023 -1.18633 0.0541281 -0.0364879 -1.18646 
0.292926 -0.0265908 -1.1879 0.488748 -0.0263364 -1.17949 0.454765 -0.00499787 -1.19501 
0.462373 -0.00499824 -1.18852 0.469981 -0.0050083 -1.19501 0.0333986 -0.00499465 -1.18628 
0.205116 -0.0251167 -0.245002 0.468639 -0.0360729 -1.18518 0.495003 -0.0150082 -1.195 
0.0169246 -0.0450098 -1.18398 0.03592 -0.0134877 -1.18165 0.495001 -0.0250137 -1.195 
0.0582788 -0.00522372 -1.195 0.0240801 -0.0450004 -1.19136 0.0499238 -0.0148455 -1.19501 
0.418366 -0.019447 -1.18826 0.0213673 -0.0315606 -1.17127 0.252326 -0.0214366 -1.1867 
0.4551 -0.00511946 -1.18166 0.191734 -0.0320722 -1.195 0.439973 -0.0194322 -1.19501 
0.46941 -0.0270413 -1.18946 0.485699 -0.00865138 -1.195 0.41354 -0.0143326 -1.17251 
0.472979 -0.0450024 -1.18634 0.416095 -0.0365353 -1.19501 0.0190049 -0.0182297 -1.18662 
0.0588192 -0.019403 -1.19502 0.447739 -0.0122816 -1.195 0.130255 -0.016363 -1.1865 
0.0781798 -0.00498297 -1.18626 0.437969 -0.0449964 -1.19501 0.00499769 -0.0450064 -1.18502 
0.476765 -0.0131425 -1.19501 0.241089 -0.0324981 -1.17986 0.453856 -0.0201925 -1.19501 
0.0329484 -0.027982 -1.195 0.486676 -0.00499644 -1.18401 0.0149898 -0.00499681 -1.19501 
0.476764 -0.0231466 -1.195 0.00499631 -0.0349883 -1.19501 0.183103 -0.015487 -1.18942 
0.0273038 -0.0346055 -1.17871 0.0275348 -0.0130492 -1.18708 0.0383614 -0.0450015 -1.18633 
0.455631 -0.0126727 -1.18866 0.118355 -0.013016 -1.18731 0.406043 -0.0449157 -1.18619 
0.0382521 -0.00498768 -1.19501 0.0565014 -0.0136626 -1.17532 0.338794 -0.0210683 -1.18032 
0.0214468 -0.0126283 -1.195 0.452969 -0.0449409 -1.18635 0.485384 -0.0336384 -1.18635 
0.153077 -0.0363627 -1.195 0.0606867 -0.022215 -1.17845 0.0880148 -0.0136497 -1.19501 
0.482617 -0.0236459 -1.18691 0.0200244 -0.026489 -1.17988 0.0593225 -0.036219 -1.195 
0.241418 -0.0329367 -1.195 0.495003 -0.0350563 -1.195 0.478265 -0.00499633 -1.18941 
0.0049964 -0.0149909 -1.19501 0.0721077 -0.0128743 -1.18701 0.136472 -0.0271119 -1.18594 
0.0297715 -0.0249218 -1.17831 0.244158 -0.0127839 -1.18716 0.468038 -0.0213586 -1.17922 
0.207123 -0.0324148 -1.18216 0.0333882 -0.0449968 -1.19501 0.39011 -0.0447753 -1.19495 
0.396545 -0.0124223 -1.18752 0.00499624 -0.0049965 -1.19501 0.116524 -0.0426253 -1.18658 
0.0149691 -0.039109 -1.16966 0.311475 -0.00802846 -1.18627 0.467961 -0.045003 -1.195 
0.207441 -0.0153491 -0.245002 0.495 -0.0300367 -1.18636 0.088021 -0.0241596 -1.17283 
0.0487293 -0.0129199 -1.18156 0.447966 -0.0450018 -1.19501 0.459328 -0.0360326 -1.1888 
0.430555 -0.0368799 -1.195 0.0830253 -0.00499251 -1.195 0.485692 -0.0186481 -1.195 
0.477021 -0.0336338 -1.195 0.0102684 -0.0449992 -1.17652 0.0643716 -0.0363845 -1.18637 
0.159782 -0.00501602 -1.195 0.311 -0.0329964 -1.19497 0.054372 -0.0450057 -1.19501 
0.082935 -0.0305873 -1.18635 0.42634 -0.0197657 -1.19501 0.232223 -0.0149019 -1.195 
0.410735 -0.0450236 -1.195 0.38187 -0.00520682 -1.19492 0.0257227 -0.0158047 -1.17764 
0.0896576 -0.0378529 -1.18775 0.411305 -0.00502378 -1.18072 0.359734 -0.0437783 -0.676055 
0.441507 -0.0356335 -1.19501 0.0879332 -0.0309947 -1.195 0.0707391 -0.0049985 -1.17958 
0.105325 -0.0242446 -1.1792 0.403478 -0.00502573 -1.18756 0.129725 -0.00498178 -1.195 
0.405847 -0.0363101 -1.19502 0.0440281 -0.0450021 -1.17792 0.0434136 -0.045006 -1.195 
0.0503933 -0.00499618 -1.17571 0.0167765 -0.0337314 -1.19501 0.0282653 -0.00531522 -1.19501 
0.0730317 -0.00499366 -1.19501 0.489128 -0.014067 -1.17935 0.446511 -0.0356527 -1.18635 
0.043888 -0.0289004 -1.19117 0.0234209 -0.0224284 -1.195 0.071343 -0.0355568 -1.17925 
0.0266583 -0.00585147 -1.17894 0.182695 -0.044476 -1.18581 0.416222 -0.0449488 -1.18661 
0.0591558 -0.012513 -1.18779 0.436174 -0.0374193 -1.18675 0.077006 -0.0153381 -1.17865 
0.459817 -0.0282184 -1.19501 0.0112428 -0.037673 -1.18769 0.0655973 -0.0135709 -1.17946 
0.418456 -0.0120585 -1.195 0.304684 -0.0277771 -1.18616 0.074493 -0.0450041 -1.195 
0.0930175 -0.00499271 -1.19501 0.425825 -0.00499691 -1.19501 0.411297 -0.019373 -1.18112 
0.384135 -0.0288452 -1.18459 0.479262 -0.0394009 -1.18094 0.103008 -0.00499257 -1.19501 
0.396632 -0.0198042 -1.19503 0.346546 -0.00965404 -1.14953 0.0980025 -0.0136489 -1.195 
0.12487 -0.0352275 -1.18514 0.0593475 -0.0450123 -1.18635 0.0778948 -0.030992 -1.195 
0.0335561 -0.01381 -1.19501 0.423534 -0.0297585 -1.195 0.25411 -0.039211 -1.1861 
0.395499 -0.0364356 -1.19244 0.418332 -0.0372694 -1.17933 0.14969 -0.0222709 -1.19481 
0.433022 -0.00499761 -1.18807 0.101373 -0.0277109 -1.19501 0.0883205 -0.0221841 -1.18613 
0.202886 -0.0130175 -1.17817 0.421649 -0.0449702 -1.19501 0.225918 -0.0446809 -1.195 
0.199978 -0.00502735 -1.19499 0.00507562 -0.0299511 -1.17198 0.433315 -0.027167 -1.195 
0.206884 -0.0235792 -1.195 0.38376 -0.0441389 -1.18717 0.448242 -0.0124194 -1.18149 
0.111376 -0.0104309 -1.195 0.0672684 -0.0448253 -1.17662 0.179981 -0.0051873 -1.195 
0.282922 -0.00547412 -1.19415 0.389581 -0.0285779 -1.19446 0.425764 -0.0122601 -1.18814 
0.0530334 -0.0275517 -1.195 0.411012 -0.0189778 -1.19501 0.0374939 -0.0290156 -1.18317 
0.091356 -0.045014 -1.195 0.446522 -0.0269856 -1.19501 0.0489081 -0.0450072 -1.18665 
0.144701 -0.0309277 -1.195 0.339217 -0.0315091 -1.17015 0.0693788 -0.0363523 -1.19501 
0.15461 -0.00606543 -1.18618 0.471314 -0.0173706 -1.18778 0.0220738 -0.0426321 -1.17575 
0.0780237 -0.013646 -1.19501 0.105256 -0.0122656 -1.18731 0.366436 -0.0282003 -1.18744 
0.406471 -0.0281398 -1.18229 0.096489 -0.0450004 -1.18626 0.230045 -0.00501621 -1.195 
0.10638 -0.0190714 -1.19501 0.377009 -0.0291403 -1.1942 0.403876 -0.0191785 -1.18795 
0.372226 -0.0448924 -1.19474 0.440307 -0.00500362 -1.18119 0.236092 -0.0449988 -1.195 
0.272197 -0.0326403 -1.19492 0.4331 -0.0123552 -1.1813 0.0761062 -0.0377333 -1.18776 
0.0929423 -0.0223428 -1.195 0.139699 -0.0395753 -1.195 0.340584 -0.0191465 -1.195 
0.429827 -0.0450019 -1.18921 0.0839582 -0.0378267 -1.17954 0.389596 -0.00502308 -1.18773 
0.0548778 -0.0286103 -1.17342 0.0426194 -0.00499836 -1.18202 0.0657093 -0.0049924 -1.18822 
0.360881 -0.0349048 -1.16724 0.158045 -0.0277084 -1.195 0.425663 -0.0192696 -1.18101 
0.0779214 -0.0219392 -1.18635 0.389205 -0.0120844 -1.19498 0.177388 -0.0102415 -1.1768 
0.189503 -0.0327314 -1.18469 0.187093 -0.0409047 -1.195 0.351115 -0.0149944 -1.195 
0.0482462 -0.00499491 -1.19501 0.0486586 -0.0212204 -1.17599 0.164913 -0.0136058 -1.195 
0.401164 -0.0364021 -1.18418 0.134357 -0.038572 -1.18655 0.119733 -0.00498098 -1.19501 
0.126478 -0.0450133 -1.18626 0.0658577 -0.0205914 -1.18803 0.0661076 -0.0125261 -1.195 
0.400235 -0.0449575 -1.19497 0.382517 -0.03789 -1.195 0.106405 -0.0305897 -1.18684 
0.297628 -0.00505845 -0.357137 0.154919 -0.0137535 -1.19499 0.296828 -0.044751 -1.1944 
0.403142 -0.0133275 -1.17971 0.0917236 -0.0316501 -1.17832 0.161428 -0.0151587 -1.18575 
0.11238 -0.00499737 -1.18668 0.060468 -0.00499685 -1.17971 0.209993 -0.00502813 -1.195 
0.299742 -0.0297139 -1.195 0.149771 -0.00499828 -1.19493 0.285798 -0.0450241 -1.19282 
0.383417 -0.0202732 -1.195 0.0710837 -0.0290989 -1.18764 0.276039 -0.0442548 -1.19497 
0.0935715 -0.007101 -1.17765 0.186929 -0.0232886 -1.195 0.440496 -0.012226 -1.1881 
0.381717 -0.0123993 -1.18745 0.099705 -0.0364515 -1.1821 0.196905 -0.0235293 -1.195 
0.214508 -0.0389735 -1.18668 0.206026 -0.0431791 -1.195 0.222246 -0.0160809 -1.19454 
0.373448 -0.00623986 -1.18722 0.221466 -0.0357366 -1.195 0.176971 -0.0237886 -1.19501 
0.139708 -0.0222759 -1.195 0.0950391 -0.029448 -1.18749 0.318018 -0.044971 -1.195 
0.0694094 -0.0450118 -1.18638 0.41859 -0.00499695 -1.18794 0.212301 -0.0147373 -1.19469 
0.246213 -0.022245 -1.19475 0.134725 -0.00716293 -1.1866 0.116387 -0.0301821 -1.1867 
0.142143 -0.0450011 -1.18689 0.12972 -0.0222713 -1.195 0.246242 -0.0449053 -1.19497 
0.0644957 -0.0276303 -1.19501 0.0985008 -0.0049949 -1.18609 0.189973 -0.00499314 -1.195 
0.173577 -0.00879299 -1.18649 0.252517 -0.0145256 -1.19485 0.262062 -0.0339836 -1.195 
0.330752 -0.0222264 -1.19039 0.148074 -0.0450106 -1.19499 0.125968 -0.0253743 -1.18628 
0.121344 -0.0450186 -1.195 0.410895 -0.0119875 -1.18787 0.307895 -0.0130813 -1.19418 
0.111356 -0.0215433 -1.1867 0.439936 -0.0281794 -1.18758 0.14046 -0.0173796 -1.18627 
0.207824 -0.0349949 -0.245002 0.341524 -0.0441407 -1.16592 0.320396 -0.00856342 -1.19278 
0.394677 -0.0221368 -1.18482 0.32632 -0.031717 -1.18646 0.0796861 -0.0267774 -1.1777 
0.376838 -0.0370338 -1.18482 0.00500406 -0.039998 -1.16964 0.0829282 -0.039645 -1.195 
0.389908 -0.0401214 -1.1803 0.0542806 -0.0369704 -1.16797 0.144714 -0.0136224 -1.195 
0.13972 -0.00498107 -1.195 0.169982 -0.00499565 -1.195 0.255166 -0.0266772 -1.19498 
0.259836 -0.00559472 -1.195 0.415873 -0.027727 -1.17755 0.106357 -0.0363645 -1.195 
0.32101 -0.0309287 -1.19484 0.250926 -0.0360079 -1.195 0.360136 -0.0400139 -1.18212 
0.0828224 -0.0450217 -1.18658 0.295299 -0.0116237 -1.19497 0.267718 -0.04412 -1.18361 
0.121363 -0.0277261 -1.19501 0.266018 -0.0437183 -1.19487 0.476205 -0.0300381 -1.18268 
0.118885 -0.0219016 -1.18014 0.236414 -0.0239769 -1.19501 0.169131 -0.0304065 -1.18748 
0.168037 -0.0450056 -1.195 0.21587 -0.0449219 -1.195 0.269844 -0.00538307 -1.19493 
0.368316 -0.0156903 -1.19503 0.423014 -0.0279795 -1.1852 0.224097 -0.0442007 -1.18517 
0.158061 -0.0450107 -1.195 0.346993 -0.0274349 -1.19436 0.329417 -0.0129899 -1.1831 
0.396813 -0.00502448 -1.17958 0.233315 -0.0371657 -1.18501 0.134721 -0.0136258 -1.19501 
0.307728 -0.042589 -1.19499 0.313186 -0.0220115 -1.19414 0.239701 -0.00763897 -1.1946 
0.20217 -0.0147783 -1.195 0.208274 -0.0188937 -1.18632 0.0963616 -0.0363604 -1.19501 
0.220027 -0.00512084 -1.195 0.150634 -0.0157735 -1.18611 0.126344 -0.0363761 -1.195 
0.4402 -0.0193405 -1.18044 0.256142 -0.044789 -1.19495 0.195294 -0.00918335 -1.18708 
0.131336 -0.0450197 -1.195 0.373232 -0.0438771 -1.16781 0.264325 -0.0224066 -1.19251 
0.154207 -0.0409647 -1.18585 0.38795 -0.0281274 -1.17506 0.284304 -0.0291195 -1.195 
0.399269 -0.0353275 -1.1739 0.15337 -0.0283361 -1.18589 0.178007 -0.0450078 -1.19481 
0.0832121 -0.00583669 -1.17765 0.201528 -0.0341373 -1.195 0.362145 -0.0405586 -0.841603 
0.163913 -0.0384174 -1.18423 0.216661 -0.0253852 -1.19438 0.411131 -0.0363026 -1.18622 
0.17325 -0.0356893 -1.19498 0.37334 -0.0186221 -1.18635 0.343187 -0.0345953 -1.1836 
0.20033 -0.024988 -1.18572 0.456567 -0.0385578 -1.17953 0.163249 -0.0362373 -1.195 
0.194683 -0.0416473 -1.18532 0.231521 -0.0350829 -1.19496 0.088466 -0.00498792 -1.18611 
0.351181 -0.0107774 -1.1828 0.332313 -0.0161014 -1.13771 0.291496 -0.0359432 -1.19261 
0.453112 -0.0282468 -1.18759 0.0706181 -0.0230135 -1.17958 0.222969 -0.0300591 -1.18493 
0.249502 -0.00497636 -1.19499 0.336419 -0.0079824 -1.19494 0.144305 -0.00820359 -1.18361 
0.100222 -0.0209045 -1.18735 0.124727 -0.0136255 -1.195 0.47654 -0.0160956 -1.17935 
0.226609 -0.0257471 -1.19476 0.461956 -0.0283723 -1.18294 0.11135 -0.0450147 -1.195 
0.454994 -0.0199637 -1.18185 0.167016 -0.0233709 -1.195 0.223847 -0.0157101 -1.18406 
0.116371 -0.0190778 -1.195 0.278329 -0.0198265 -1.195 0.332037 -0.0431565 -1.19416 
0.192132 -0.0147492 -1.195 0.363368 -0.0357104 -1.19407 
VERTICES 500 1000
1 0 
1 1 
1 2 
1 3 
1 4 
1 5 
1 6 
1 7 
1 8 
1 9 
1 10 
1 11 
1 12 
1 13 
1 14 
1 15 
1 16 
1 17 
1 18 
1 19 
1 20 
1 21 
1 22 
1 23 
1 24 
1 25 
1 26 
1 27 
1 28 
1 29 
1 30 
1 31 
1 32 
1 33 
1 34 
1 35 
1 36 
1 37 
1 38 
1 39 
1 40 
1 41 
1 42 
1 43 
1 44 
1 45 
1 46 
1 47 
1 48 
1 49 
1 50 
1 51 
1 52 
1 53 
1 54 
1 55 
1 56 
1 57 
1 58 
1 59 
1 60 
1 61 
1 62 
1 63 
1 64 
1 65 
1 66 
1 67 
1 68 
1 69 
1 70 
1 71 
1 72 
1 73 
1 74 
1 75 
1 76 
1 77 
1 78 
1 79 
1 80 
1 81 
1 82 
1 83 
1 84 
1 85 
1 86 
1 87 
1 88 
1 89 
1 90 
1 91 
1 92 
1 93 
1 94 
1 95 
1 96 
1 97 
1 98 
1 99 
1 100 
1 101 
1 102 
1 103 
1 104 
1 105 
1 106 
1 107 
1 108 
1 109 
1 110 
1 111 
1 112 
1 113 
1 114 
1 115 
1 116 
1 117 
1 118 
1 119 
1 120 
1 121 
1 122 
1 123 
1 124 
1 125 
1 126 
1 127 
1 128 
1 129 
1 130 
1 131 
1 132 
1 133 
1 134 
1 135 
1 136 
1 137 
1 138 
1 139 
1 140 
1 141 
1 142 
1 143 
1 144 
1 145 
1 146 
1 147 
1 148 
1 149 
1 150 
1 151 
1 152 
1 153 
1 154 
1 155 
1 156 
1 157 
1 158 
1 159 
1 160 
1 161 
1 162 
1 163 
1 164 
1 165 
1 166 
1 167 
1 168 
1 169 
1 170 
1 171 
1 172 
1 173 
1 174 
1 175 
1 176 
1 177 
1 178 
1 179 
1 180 
1 181 
1 182 
1 183 
1 184 
1 185 
1 186 
1 187 
1 188 
1 189 
1 190 
1 191 
1 192 
1 193 
1 194 
1 195 
1 196 
1 197 
1 198 
1 199 
1 200 
1 201 
1 202 
1 203 
1 204 
1 205 
1 206 
1 207 
1 208 
1 209 
1 210 
1 211 
1 212 
1 213 
1 214 
1 215 
1 216 
1 217 
1 218 
1 219 
1 220 
1 221 
1 222 
1 223 
1 224 
1 225 
1 226 
1 227 
1 228 
1 229 
1 230 
1 231 
1 232 
1 233 
1 234 
1 235 
1 236 
1 237 
1 238 
1 239 
1 240 
1 241 
1 242 
1 243 
1 244 
1 245 
1 246 
1 247 
1 248 
1 249 
1 250 
1 251 
1 252 
1 253 
1 254 
1 255 
1 256 
1 257 
1 258 
1 259 
1 260 
1 261 
1 262 
1 263 
1 264 
1 265 
1 266 
1 267 
1 268 
1 269 
1 270 
1 271 
1 272 
1 273 
1 274 
1 275 
1 276 
1 277 
1 278 
1 279 
1 280 
1 281 
1 282 
1 283 
1 284 
1 285 
1 286 
1 287 
1 288 
1 289 
1 290 
1 291 
1 292 
1 293 
1 294 
1 295 
1 296 
1 297 
1 298 
1 299 
1 300 
1 301 
1 302 
1 303 
1 304 
1 305 
1 306 
1 307 
1 308 
1 309 
1 310 
1 311 
1 312 
1 313 
1 314 
1 315 
1 316 
1 317 
1 318 
1 319 
1 320 
1 321 
1 322 
1 323 
1 324 
1 325 
1 326 
1 327 
1 328 
1 329 
1 330 
1 331 
1 332 
1 333 
1 334 
1 335 
1 336 
1 337 
1 338 
1 339 
1 340 
1 341 
1 342 
1 343 
1 344 
1 345 
1 346 
1 347 
1 348 
1 349 
1 350 
1 351 
1 352 
1 353 
1 354 
1 355 
1 356 
1 357 
1 358 
1 359 
1 360 
1 361 
1 362 
1 363 
1 364 
1 365 
1 366 
1 367 
1 368 
1 369 
1 370 
1 371 
1 372 
1 373 
1 374 
1 375 
1 376 
1 377 
1 378 
1 379 
1 380 
1 381 
1 382 
1 383 
1 384 
1 385 
1 386 
1 387 
1 388 
1 389 
1 390 
1 391 
1 392 
1 393 
1 394 
1 395 
1 396 
1 397 
1 398 
1 399 
1 400 
1 401 
1 402 
1 403 
1 404 
1 405 
1 406 
1 407 
1 408 
1 409 
1 410 
1 411 
1 412 
1 413 
1 414 
1 415 
1 416 
1 417 
1 418 
1 419 
1 420 
1 421 
1 422 
1 423 
1 424 
1 425 
1 426 
1 427 
1 428 
1 429 
1 430 
1 431 
1 432 
1 433 
1 434 
1 435 
1 436 
1 437 
1 438 
1 439 
1 440 
1 441 
1 442 
1 443 
1 444 
1 445 
1 446 
1 447 
1 448 
1 449 
1 450 
1 451 
1 452 
1 453 
1 454 
1 455 
1 456 
1 457 
1 458 
1 459 
1 460 
1 461 
1 462 
1 463 
1 464 
1 465 
1 466 
1 467 
1 468 
1 469 
1 470 
1 471 
1 472 
1 473 
1 474 
1 475 
1 476 
1 477 
1 478 
1 479 
1 480 
1 481 
1 482 
1 483 
1 484 
1 485 
1 486 
1 487 
1 488 
1 489 
1 490 
1 491 
1 492 
1 493 
1 494 
1 495 
1 496 
1 497 
1 498 
1 499 

POINT_DATA 500
FIELD FieldData 7
id 1 500 int
1 2 3 4 5 6 7 8 9 
10 11 12 13 14 15 16 17 18 
19 20 21 22 23 24 25 26 27 
28 29 30 31 32 33 34 35 36 
37 38 39 40 41 42 43 44 45 
46 47 48 49 50 51 52 53 54 
55 56 57 58 59 60 61 62 63 
64 65 66 67 68 69 70 71 72 
73 74 75 76 77 78 79 80 81 
82 83 84 85 86 87 88 89 90 
91 92 93 94 95 96 97 98 99 
100 101 102 103 104 105 106 107 108 
109 110 111 112 113 114 115 116 117 
118 119 120 121 122 123 124 125 126 
127 128 129 130 131 132 133 134 135 
136 137 138 139 140 141 142 143 144 
145 146 147 148 149 150 151 152 153 
154 155 156 157 158 159 160 161 162 
163 164 165 166 167 168 169 170 171 
172 173 174 175 176 177 178 179 180 
181 182 183 184 185 186 187 188 189 
190 191 192 193 194 195 196 197 198 
199 200 201 202 203 204 205 206 207 
208 209 210 211 212 213 214 215 216 
217 218 219 220 221 222 223 224 225 
226 227 228 229 230 231 232 233 234 
235 236 237 238 239 240 241 242 243 
244 245 246 247 248 249 250 251 252 
253 254 255 256 257 258 259 260 261 
262 263 264 265 266 267 268 269 270 
271 272 273 274 275 276 277 278 279 
280 281 282 283 284 285 286 287 288 
289 290 291 292 293 294 295 296 297 
298 299 300 301 302 303 304 305 306 
307 308 309 310 311 312 313 314 315 
316 317 318 319 320 321 322 323 324 
325 326 327 328 329 330 331 332 333 
334 335 336 337 338 339 340 341 342 
343 344 345 346 347 348 349 350 351 
352 353 354 355 356 357 358 359 360 
361 362 363 364 365 366 367 368 369 
370 371 372 373 374 375 376 377 378 
379 380 381 382 383 384 385 386 387 
388 389 390 391 392 393 394 395 396 
397 398 399 400 401 402 403 404 405 
406 407 408 409 410 411 412 413 414 
415 416 417 418 419 420 421 422 423 
424 425 426 427 428 429 430 431 432 
433 434 435 436 437 438 439 440 441 
442 443 444 445 446 447 448 449 450 
451 452 453 454 455 456 457 458 459 
460 461 462 463 464 465 466 467 468 
469 470 471 472 473 474 475 476 477 
478 479 480 481 482 483 484 485 486 
487 488 489 490 491 492 493 494 495 
496 497 498 499 500 
type 1 500 int
1 1 1 1 1 1 1 1 1 
1 1 1 1 1 1 1 1 1 
1 1 1 1 1 1 1 1 1 
1 1 1 1 1 1 1 1 1 
1 1 1 1 1 1 1 1 1 
1 1 1 1 1 1 1 1 1 
1 1 1 1 1 1 1 1 1 
1 1 1 1 1 1 1 1 1 
1 1 1 1 1 1 1 1 1 
1 1 1 1 1 1 1 1 1 
1 1 1 1 1 1 1 1 1 
1 1 1 1 1 1 1 1 1 
1 1 1 1 1 1 1 1 1 
1 1 1 1 1 1 1 1 1 
1 1 1 1 1 1 1 1 1 
1 1 1 1 1 1 1 1 1 
1 1 1 1 1 1 1 1 1 
1 1 1 1 1 1 1 1 1 
1 1 1 1 1 1 1 1 1 
1 1 1 1 1 1 1 1 1 
1 1 1 1 1 1 1 1 1 
1 1 1 1 1 1 1 1 1 
1 1 1 1 1 1 1 1 1 
1 1 1 1 1 1 1 1 1 
1 1 1 1 1 1 1 1 1 
1 1 1 1 1 1 1 1 1 
1 1 1 1 1 1 1 1 1 
1 1 1 1 1 1 1 1 1 
1 1 1 1 1 1 1 1 1 
1 1 1 1 1 1 1 1 1 
1 1 1 1 1 1 1 1 1 
1 1 1 1 1 1 1 1 1 
1 1 1 1 1 1 1 1 1 
1 1 1 1 1 1 1 1 1 
1 1 1 1 1 1 1 1 1 
1 1 1 1 1 1 1 1 1 
1 1 1 1 1 1 1 1 1 
1 1 1 1 1 1 1 1 1 
1 1 1 1 1 1 1 1 1 
1 1 1 1 1 1 1 1 1 
1 1 1 1 1 1 1 1 1 
1 1 1 1 1 1 1 1 1 
1 1 1 1 1 1 1 1 1 
1 1 1 1 1 1 1 1 1 
1 1 1 1 1 1 1 1 1 
1 1 1 1 1 1 1 1 1 
1 1 1 1 1 1 1 1 1 
1 1 1 1 1 1 1 1 1 
1 1 1 1 1 1 1 1 1 
1 1 1 1 1 1 1 1 1 
1 1 1 1 1 1 1 1 1 
1 1 1 1 1 1 1 1 1 
1 1 1 1 1 1 1 1 1 
1 1 1 1 1 1 1 1 1 
1 1 1 1 1 1 1 1 1 
1 1 1 1 1 
i 3 500 int
0 0 0 0 0 0 0 0 0 
0 0 0 0 0 0 0 0 0 
0 0 0 0 0 0 0 0 0 
0 0 0 0 0 0 0 0 0 
0 0 0 0 0 0 0 0 0 
0 0 0 0 0 0 0 0 0 
0 0 0 0 0 0 0 0 0 
0 0 0 0 0 0 0 0 0 
0 0 0 0 0 0 0 0 0 
0 0 0 0 0 0 0 0 0 
0 0 0 0 0 0 0 0 0 
0 0 0 0 0 0 0 0 0 
0 0 0 0 0 0 0 0 0 
0 0 0 0 0 0 0 0 0 
0 0 0 0 0 0 0 0 0 
0 0 0 0 0 0 0 0 0 
0 0 0 0 0 0 0 0 0 
0 0 0 0 0 0 0 0 0 
0 0 0 0 0 0 0 0 0 
0 0 0 0 0 0 0 0 0 
0 0 0 0 0 0 0 0 0 
0 0 0 0 0 0 0 0 0 
0 0 0 0 0 0 0 0 0 
0 0 0 0 0 0 0 0 0 
0 0 0 0 0 0 0 0 0 
0 0 0 0 0 0 0 0 0 
0 0 0 0 0 0 0 0 0 
0 0 0 0 0 0 0 0 0 
0 0 0 0 0 0 0 0 0 
0 0 0 0 0 0 0 0 0 
0 0 0 0 0 0 0 0 0 
0 0 0 0 0 0 0 0 0 
0 0 0 0 0 0 0 0 0 
0 0 0 0 0 0 0 0 0 
0 0 0 0 0 0 0 0 0 
0 0 0 0 0 0 0 0 0 
0 0 0 0 0 0 0 0 0 
0 0 0 0 0 0 0 0 0 
0 0 0 0 0 0 0 0 0 
0 0 0 0 0 0 0 0 0 
0 0 0 0 0 0 0 0 0 
0 0 0 0 0 0 0 0 0 
0 0 0 0 0 0 0 0 0 
0 0 0 0 0 0 0 0 0 
0 0 0 0 0 0 0 0 0 
0 0 0 0 0 0 0 0 0 
0 0 0 0 0 0 0 0 0 
0 0 0 0 0 0 0 0 0 
0 0 0 0 0 0 0 0 0 
0 0 0 0 0 0 0 0 0 
0 0 0 0 0 0 0 0 0 
0 0 0 0 0 0 0 0 0 
0 0 0 0 0 0 0 0 0 
0 0 0 0 0 0 0 0 0 
0 0 0 0 0 0 0 0 0 
0 0 0 0 0 0 0 0 0 
0 0 0 0 0 0 0 0 0 
0 0 0 0 0 0 0 0 0 
0 0 0 0 0 0 0 0 0 
0 0 0 0 0 0 0 0 0 
0 0 0 0 0 0 0 0 0 
0 0 0 0 0 0 0 0 0 
0 0 0 0 0 0 0 0 0 
0 0 0 0 0 0 0 0 0 
0 0 0 0 0 0 0 0 0 
0 0 0 0 0 0 0 0 0 
0 0 0 0 0 0 0 0 0 
0 0 0 0 0 0 0 0 0 
0 0 0 0 0 0 0 0 0 
0 0 0 0 0 0 0 0 0 
0 0 0 0 0 0 0 0 0 
0 0 0 0 0 0 0 0 0 
0 0 0 0 0 0 0 0 0 
0 0 0 0 0 0 0 0 0 
0 0 0 0 0 0 0 0 0 
0 0 0 0 0 0 0 0 0 
0 0 0 0 0 0 0 0 0 
0 0 0 0 0 0 0 0 0 
0 0 0 0 0 0 0 0 0 
0 0 0 0 0 0 0 0 0 
0 0 0 0 0 0 0 0 0 
0 0 0 0 0 0 0 0 0 
0 0 0 0 0 0 0 0 0 
0 0 0 0 0 0 0 0 0 
0 0 0 0 0 0 0 0 0 
0 0 0 0 0 0 0 0 0 
0 0 0 0 0 0 0 0 0 
0 0 0 0 0 0 0 0 0 
0 0 0 0 0 0 0 0 0 
0 0 0 0 0 0 0 0 0 
0 0 0 0 0 0 0 0 0 
0 0 0 0 0 0 0 0 0 
0 0 0 0 0 0 0 0 0 
0 0 0 0 0 0 0 0 0 
0 0 0 0 0 0 0 0 0 
0 0 0 0 0 0 0 0 0 
0 0 0 0 0 0 0 0 0 
0 0 0 0 0 0 0 0 0 
0 0 0 0 0 0 0 0 0 
0 0 0 0 0 0 0 0 0 
0 0 0 0 0 0 0 0 0 
0 0 0 0 0 0 0 0 0 
0 0 0 0 0 0 0 0 0 
0 0 0 0 0 0 0 0 0 
0 0 0 0 0 0 0 0 0 
0 0 0 0 0 0 0 0 0 
0 0 0 0 0 0 0 0 0 
0 0 0 0 0 0 0 0 0 
0 0 0 0 0 0 0 0 0 
0 0 0 0 0 0 0 0 0 
0 0 0 0 0 0 0 0 0 
0 0 0 0 0 0 0 0 0 
0 0 0 0 0 0 0 0 0 
0 0 0 0 0 0 0 0 0 
0 0 0 0 0 0 0 0 0 
0 0 0 0 0 0 0 0 0 
0 0 0 0 0 0 0 0 0 
0 0 0 0 0 0 0 0 0 
0 0 0 0 0 0 0 0 0 
0 0 0 0 0 0 0 0 0 
0 0 0 0 0 0 0 0 0 
0 0 0 0 0 0 0 0 0 
0 0 0 0 0 0 0 0 0 
0 0 0 0 0 0 0 0 0 
0 0 0 0 0 0 0 0 0 
0 0 0 0 0 0 0 0 0 
0 0 0 0 0 0 0 0 0 
0 0 0 0 0 0 0 0 0 
0 0 0 0 0 0 0 0 0 
0 0 0 0 0 0 0 0 0 
0 0 0 0 0 0 0 0 0 
0 0 0 0 0 0 0 0 0 
0 0 0 0 0 0 0 0 0 
0 0 0 0 0 0 0 0 0 
0 0 0 0 0 0 0 0 0 
0 0 0 0 0 0 0 0 0 
0 0 0 0 0 0 0 0 0 
0 0 0 0 0 0 0 0 0 
0 0 0 0 0 0 0 0 0 
0 0 0 0 0 0 0 0 0 
0 0 0 0 0 0 0 0 0 
0 0 0 0 0 0 0 0 0 
0 0 0 0 0 0 0 0 0 
0 0 0 0 0 0 0 0 0 
0 0 0 0 0 0 0 0 0 
0 0 0 0 0 0 0 0 0 
0 0 0 0 0 0 0 0 0 
0 0 0 0 0 0 0 0 0 
0 0 0 0 0 0 0 0 0 
0 0 0 0 0 0 0 0 0 
0 0 0 0 0 0 0 0 0 
0 0 0 0 0 0 0 0 0 
0 0 0 0 0 0 0 0 0 
0 0 0 0 0 0 0 0 0 
0 0 0 0 0 0 0 0 0 
0 0 0 0 0 0 0 0 0 
0 0 0 0 0 0 0 0 0 
0 0 0 0 0 0 0 0 0 
0 0 0 0 0 0 0 0 0 
0 0 0 0 0 0 0 0 0 
0 0 0 0 0 0 0 0 0 
0 0 0 0 0 0 0 0 0 
0 0 0 0 0 0 0 0 0 
0 0 0 0 0 0 0 0 0 
0 0 0 0 0 0 0 0 0 
0 0 0 0 0 0 0 0 0 
0 0 0 0 0 0 
v 3 500 double
0.0194912 0.00762627 -0.013412 -0.013538 0.0146783 -0.0121757 -0.000529651 -0.000406271 7.50241e-05 
0.00550146 0.00876229 0.0122515 -0.00154154 0.00141459 0.000512894 0.000992239 -0.00136164 -0.00763746 
0.00792654 0.00258242 -0.00759181 0.0127742 -0.0148347 -0.00916306 0.0198481 0.023044 -0.0109349 
-0.00388579 0.00372758 -0.00457785 0.0751233 -0.0972201 -0.160152 0.00632976 -0.00103058 -0.00104699 
-0.00464534 0.00158354 0.00842755 -0.0283009 -0.0136411 -0.00827605 0.00789683 0.00691019 0.00855545 
0.0667058 0.028524 -0.0400598 -0.00574447 -0.000955619 -0.00602162 7.82168e-05 -0.000124981 -0.000338945 
0.00848987 -0.00142777 -0.000704365 0.0020545 0.000261564 0.0014382 0.00274753 -0.00105647 -0.000876256 
0.00259957 -0.034275 0.0688051 -0.00271468 -0.000958842 4.74441e-05 -0.00243477 -0.000238531 -0.00038711 
-0.0959555 0.0871227 -0.0716252 0.145466 0.0432041 0.0581414 -0.00166694 0.00129464 -0.00119253 
-0.00394702 -0.00278995 -3.84189e-05 -0.405071 0.0235235 -0.0494099 0.00339342 0.000840742 0.0177708 
-0.00361603 0.00571972 0.00238751 0.0278111 -0.00150734 -0.00581885 0.000208919 0.020354 -0.00523807 
0.00306162 -0.000537893 -0.000322147 0.0227097 0.0184462 0.0475779 0.00626295 -0.00638939 -0.0041575 
-0.05659 -0.0177327 0.00756754 0.000785436 -0.000334833 -9.40938e-05 0.0115981 0.00462557 -0.00515666 
0.000794337 -0.00046724 0.000333911 0.0183497 -0.0234269 -4.19722e-11 -0.0279757 -0.00077809 0.00151673 
-0.00156157 -0.00373124 0.017378 0.00351647 -0.0079503 0.0272146 -0.0194138 0.00380175 0.00111939 
-0.000715974 0.00123634 0.000319355 0.000116099 -0.00109347 9.28015e-05 5.65249e-05 -0.00136164 0.000444098 
-0.0182621 0.000185778 -0.00186707 -0.035908 -0.0262372 -0.0124431 -0.00456199 -0.0157851 0.0313223 
0.00208914 -0.000219503 -7.5774e-06 -0.00293369 0.000116197 0.000516461 -0.0278942 -0.000258664 0.0242379 
0.00217274 -0.0030667 -0.00133241 -0.0018259 0.0445024 -0.0140151 -0.00373928 0.000288386 -0.00268745 
0.00382381 -0.000677595 0.00860262 -0.000902284 0.000234586 0.00174088 0.00585742 0.00661953 -0.000433858 
0.00242621 0.00275362 -0.000121001 -0.00206641 0.00909469 0.00183184 -2.70638e-05 0.00115584 0.00377199 
-0.00578323 0.00793082 0.00859303 -0.0627592 0.0019764 -0.0166424 -0.0284702 -0.0129043 -0.00273108 
-0.00767185 0.00523952 -0.00962616 -0.0219633 0.0168937 -0.0175124 -0.0150062 -0.0014524 0.000968765 
0.000166844 -0.000482929 -0.000291344 0.0012959 0.0002072 -0.000183988 -0.00228109 0.000336098 0.000303454 
-0.00724867 0.0031067 0.00322102 0.001076 0.00313365 -0.000751463 0.00170868 -0.00162739 0.00169049 
-0.00917205 -0.00499643 -0.00143918 0.000239987 -0.000100825 0.00107821 0.00101301 0.104293 -0.0357494 
-0.0285616 0.0119129 0.0201443 0.00548545 0.0125292 -0.0164026 -0.00460591 -0.00669881 0.000665099 
0.0076145 -0.00336939 -0.00328549 -0.00669762 0.0155157 -0.0100346 -0.00291302 3.19969e-05 -0.000485045 
-0.725183 0.0495746 0.610624 0.00512038 -0.00500038 0.010453 0.00343676 0.000404525 -0.00075762 
-0.222706 -0.0239469 -0.0159207 0.0326256 0.000723452 0.000169916 -0.000769205 0.000283844 -0.000193125 
0.00581646 -0.000231706 0.000953502 0.196242 -0.11488 0.20729 -0.0163116 -0.0128452 0.0129906 
-0.000165872 -0.00133685 -0.000335687 0.000308034 -0.000130441 0.000132922 -0.00184776 0.00203027 0.000152652 
-0.00871579 -0.0450121 -0.00381136 -0.0157138 0.00632254 0.00420763 0.00837007 -0.0133741 -0.0578438 
0.00634449 2.86629e-05 0.000240209 -0.0159324 -0.000878771 -0.00115793 0.00177682 -7.62451e-05 -1.91728e-13 
-0.00128908 0.00150578 -0.00306003 -0.00120393 0.0015791 -0.00150651 -0.764574 0.187416 -0.104955 
-0.0598332 0.162885 0.250873 -0.0151363 -0.000729673 0.0200851 0.0104765 -0.0131283 -0.00195136 
-0.018697 -0.00263067 0.00145765 -0.00421677 -0.00553903 0.00233556 -0.0190308 -0.0390499 0.00297653 
-0.0061915 -0.0011883 0.00839736 0.000199938 -0.000166509 0.000327793 -0.0476212 0.0342173 -0.00872049 
0.0125719 0.0147401 0.0184525 -0.0125268 0.00176959 0.00174565 -0.237325 -0.159824 0.018344 
-0.00909288 -0.00090221 -0.00180497 -0.000622346 -0.00191006 -0.00270656 -0.000457774 -0.00258064 -0.00304308 
-0.536225 -0.0365904 -0.0945141 -0.00147041 -0.0100192 -0.00750375 -0.00817504 0.000228718 0.000177368 
-0.00263102 -0.000638339 -0.00577456 0.00209223 -0.000750664 0.000703323 -0.000852891 -0.000283489 -0.00130852 
0.000464821 0.000976338 1.94112e-12 0.00434562 -0.000328473 0.000554924 -0.000376873 0.0015787 0.000242607 
0.0040953 -0.000241792 -0.00499658 -0.00451232 0.00197461 0.00569695 -0.000694074 0.00134484 -0.000425119 
-0.000425276 -0.00268561 0.000132992 0.00640716 -6.19704e-05 -0.0129707 -0.0115532 -0.00227841 0.000726092 
-0.0684119 0.0218123 0.0211941 -0.00431427 -0.00180946 -0.0119306 -0.0852489 0.0925326 -0.0212743 
-0.0032549 0.016832 -0.0075278 0.00360897 0.00328792 -0.000192332 -0.0227116 -0.00921789 0.00177495 
0.00350911 -0.000955851 0.000101793 -0.000224089 0.00177626 5.19183e-05 -0.0143514 0.0736414 0.035589 
-0.000216212 -0.000748574 -0.000378773 0.0130103 0.0250096 0.0115144 -0.00367436 0.00158176 0.00221958 
-0.00633404 0.010257 0.00156285 -0.0153881 -0.00817565 -0.00140165 0.0494571 -0.0378227 0.0142098 
-0.0256972 0.00193533 -0.00254288 0.0128417 0.00110825 0.001555 0.000317586 -0.000303099 0.000183597 
0.000267235 0.00226438 0.00123496 -0.213153 0.117734 -0.011538 0.00175503 0.00500479 -0.000751404 
0.0144726 0.00271087 0.00126684 0.00240981 -0.000378144 0.00404405 -0.00136259 0.000521559 -0.000275363 
-0.000553864 0.00291172 -0.000928053 -6.71735e-05 -0.000555836 -0.000518506 -4.25265e-06 0.0196738 -0.041147 