# vtk DataFile Version 4.0
Generated by LIGGGHTS
ASCII
DATASET POLYDATA
POINTS 500 float
0.46584 -0.0430854 -1.16754 0.481031 -0.0348277 -1.15684 0.00638869 -0.0251721 -1.1948 
0.072285 -0.0333054 -1.19363 0.0723714 -0.0448656 -0.84557 0.0379831 -0.0125585 -1.18744 
0.0706677 -0.0303233 -1.11378 0.0501662 -0.0188169 -0.825069 0.190257 -0.0325858 -0.841132 
0.493798 -0.00499805 -1.16413 0.406869 -0.0096944 -0.874408 0.479227 -0.0171421 -1.18639 
0.00883306 -0.0321377 -1.15216 0.426866 -0.00629337 -1.18718 0.00648447 -0.00599022 -0.858826 
0.453769 -0.0297164 -1.18647 0.040396 -0.0352907 -1.15871 0.495 -0.0449816 -1.17789 
0.040081 -0.0443832 -1.1915 0.487039 -0.0151876 -1.17457 0.0201291 -0.0221641 -1.17312 
0.370591 -0.0136792 -1.17676 0.495002 -0.0449956 -1.195 0.135799 -0.0166978 -1.15768 
0.346169 -0.0206111 -0.829195 0.443495 -0.0420915 -1.17041 0.494982 -0.029353 -1.18615 
0.47451 -0.0449946 -1.19503 0.462857 -0.00788596 -1.14486 0.2587 -0.0170233 -1.19328 
0.0629432 -0.0230699 -1.19136 0.476112 -0.0441237 -1.16867 0.459487 -0.0144291 -1.15795 
0.48561 -0.0245826 -1.16962 0.357113 -0.0450231 -0.598177 0.0540961 -0.0344651 -1.18168 
0.454476 -0.00499713 -1.19491 0.0177699 -0.0449996 -1.19313 0.127615 -0.0197823 -1.17352 
0.494999 -0.00500122 -1.18495 0.215132 -0.0194802 -0.245002 0.289309 -0.00580136 -1.04989 
0.0903176 -0.0407397 -0.846376 0.463088 -0.0330587 -1.16936 0.181154 -0.0263045 -0.817399 
0.482725 -0.0352685 -1.195 0.0235272 -0.0316587 -1.14564 0.00934824 -0.0194719 -1.18611 
0.486447 -0.0449977 -1.18511 0.472404 -0.0272064 -1.17408 0.444011 -0.00497744 -1.19476 
0.485005 -0.0450004 -1.195 0.0250646 -0.00529264 -1.18113 0.0133912 -0.0420403 -1.15915 
0.0194974 -0.0275566 -1.18361 0.0404846 -0.0247847 -1.16034 0.23346 -0.0401869 -1.19505 
0.104817 -0.0240569 -0.79059 0.03593 -0.0105998 -1.11862 0.0431639 -0.00658711 -1.17025 
0.0239298 -0.0368616 -1.19507 0.472739 -0.0351505 -1.195 0.0291963 -0.0383485 -1.16953 
0.138744 -0.026739 -1.1582 0.145014 -0.00857705 -0.787999 0.466717 -0.0142291 -1.1882 
0.483722 -0.0346331 -1.14201 0.494488 -0.0336972 -1.15851 0.464504 -0.0050481 -1.195 
0.00627162 -0.0211252 -1.17631 0.49431 -0.0340781 -1.19495 0.494983 -0.0149168 -1.1809 
0.14268 -0.0188702 -1.1899 0.0222312 -0.018537 -1.19493 0.0694295 -0.0411339 -1.18799 
0.194938 -0.0197229 -1.16671 0.0685159 -0.013817 -1.19029 0.4893 -0.0104102 -1.15508 
0.457675 -0.0372059 -1.1771 0.4938 -0.0411496 -1.16872 0.0476552 -0.0186731 -1.12247 
0.0508323 -0.0237827 -1.19066 0.477699 -0.0129506 -1.17164 0.012505 -0.0129923 -1.1689 
0.234067 -0.0366985 -0.247065 0.0135239 -0.0385378 -1.08856 0.0432875 -0.0355973 -1.18776 
0.43059 -0.0369612 -1.18157 0.473891 -0.0426883 -1.15877 0.0118391 -0.0076718 -1.1799 
0.132695 -0.0177609 -1.19114 0.448034 -0.00513916 -1.16359 0.0179017 -0.00840799 -1.1492 
0.00639609 -0.0312756 -1.18191 0.00683655 -0.0448076 -1.1947 0.0141536 -0.0132647 -1.19216 
0.31037 -0.00943544 -1.19435 0.208361 -0.00982805 -1.1799 0.340172 -0.0357454 -0.844744 
0.142455 -0.0447826 -1.18097 0.196195 -0.00682544 -1.19476 0.205613 -0.0449188 -0.245002 
0.0340894 -0.0261798 -1.18532 0.481967 -0.0131983 -1.1624 0.4142 -0.0236669 -1.1947 
0.460104 -0.0248333 -1.15556 0.100079 -0.0382192 -1.14216 0.09856 -0.0344034 -0.81715 
0.290763 -0.0450152 -1.19201 0.128385 -0.0400527 -1.19373 0.355638 -0.0150232 -1.19183 
0.169959 -0.0253754 -1.19184 0.494968 -0.00499275 -1.195 0.449253 -0.0135581 -1.1949 
0.0958277 -0.0216877 -0.911545 0.0839617 -0.0201649 -1.19453 0.300635 -0.0321952 -0.362346 
0.469399 -0.00499465 -1.18546 0.47697 -0.0450034 -1.17859 0.185632 -0.0103219 -1.15714 
0.438426 -0.0266281 -1.16453 0.491747 -0.0215053 -1.16216 0.474495 -0.00497886 -1.195 
0.479428 -0.00501775 -1.1863 0.484887 -0.00525755 -1.195 0.0980136 -0.00641395 -1.1947 
0.205055 -0.0244346 -0.245002 0.486454 -0.035022 -1.17145 0.495001 -0.0145009 -1.19192 
0.0267188 -0.036744 -1.18149 0.128841 -0.00615174 -1.1895 0.494999 -0.0240078 -1.195 
0.148916 -0.00787358 -1.19327 0.0372422 -0.0432108 -1.18194 0.146304 -0.0174492 -1.17503 
0.461119 -0.0229299 -1.1863 0.00971761 -0.0135531 -1.13358 0.37223 -0.00685223 -1.15907 
0.485428 -0.00514948 -1.17831 0.376592 -0.0416028 -1.19506 0.471048 -0.0227564 -1.18521 
0.487988 -0.0273856 -1.17908 0.485521 -0.015575 -1.19497 0.47681 -0.021417 -1.16642 
0.485818 -0.0447424 -1.17394 0.454224 -0.0349488 -1.19497 0.0192178 -0.0158398 -1.18146 
0.154147 -0.0199161 -1.19454 0.474424 -0.0149874 -1.19498 0.337773 -0.0172733 -1.19443 
0.186012 -0.00638413 -1.18982 0.463785 -0.0413732 -1.19497 0.0131151 -0.0443775 -1.18225 
0.48 -0.0216168 -1.17745 0.359182 -0.00939415 -0.656887 0.475131 -0.0254307 -1.195 
0.0417061 -0.028447 -1.19493 0.494967 -0.00501289 -1.17492 0.0184351 -0.00488844 -1.19509 
0.485123 -0.0255663 -1.195 0.00526175 -0.0349506 -1.19288 0.367382 -0.0155991 -1.18706 
0.0977569 -0.0233694 -1.18127 0.0272279 -0.0102227 -1.19263 0.106993 -0.0450491 -1.19512 
0.472095 -0.0144295 -1.17978 0.0475897 -0.0431505 -1.14595 0.464443 -0.0363456 -1.15727 
0.0863502 -0.00504233 -1.16497 0.0776398 -0.00588983 -1.17631 0.429317 -0.0161199 -1.19464 
0.0325834 -0.0188034 -1.19503 0.484491 -0.0419829 -1.16293 0.494356 -0.0350036 -1.1777 
0.270047 -0.0337497 -1.10948 0.0559439 -0.0101367 -1.16594 0.248061 -0.0140703 -1.19471 
0.494978 -0.0222723 -1.17407 0.0538784 -0.0336927 -1.16797 0.139294 -0.042491 -1.19084 
0.413333 -0.00533386 -1.18542 0.494996 -0.0397925 -1.18645 0.487266 -0.0112244 -1.18612 
0.00490441 -0.0153132 -1.19507 0.151949 -0.0366482 -1.19465 0.263889 -0.0346216 -1.19151 
0.0341951 -0.0305948 -1.17303 0.406963 -0.0442816 -1.19331 0.494172 -0.0446327 -1.1593 
0.350771 -0.0412364 -1.1691 0.0292861 -0.0449873 -1.19284 0.441646 -0.0436422 -1.195 
0.443868 -0.0135525 -1.18619 0.00762156 -0.00538808 -1.195 0.310762 -0.00999969 -1.17138 
0.281281 -0.0410591 -1.19456 0.450498 -0.0425182 -1.16063 0.47794 -0.0399111 -1.18714 
0.205536 -0.013582 -0.244823 0.494991 -0.0306839 -1.16862 0.234849 -0.00647069 -1.11527 
0.142313 -0.0336438 -1.18459 0.46861 -0.0448778 -1.18698 0.47952 -0.0335992 -1.17851 
0.462066 -0.0356113 -1.18618 0.252875 -0.00626754 -1.19037 0.489178 -0.0210683 -1.18706 
0.486393 -0.0347461 -1.18569 0.0148455 -0.0387559 -1.17192 0.186438 -0.0177526 -1.17241 
0.35913 -0.00529868 -1.19047 0.424753 -0.0355452 -1.1904 0.140884 -0.0258498 -1.17586 
0.253865 -0.0162632 -1.18247 0.465937 -0.0215102 -1.195 0.378235 -0.0384297 -1.16375 
0.454283 -0.044977 -1.19494 0.433372 -0.00590939 -1.19501 0.091892 -0.0178214 -1.18869 
0.255517 -0.0411753 -1.19492 0.468768 -0.00796029 -1.15849 0.222439 -0.0442115 -0.245002 
0.470199 -0.0372024 -1.17556 0.244007 -0.0217084 -1.18803 0.196967 -0.00953597 -1.17008 
0.265889 -0.00743485 -1.16797 0.449388 -0.00498659 -1.18633 0.350287 -0.00661519 -1.19493 
0.448125 -0.0403038 -1.18812 0.0481631 -0.0440815 -1.18352 0.134805 -0.030944 -1.19501 
0.130168 -0.0435753 -1.08174 0.0166411 -0.0273631 -1.19468 0.0515753 -0.00570007 -1.19399 
0.170366 -0.0146394 -1.18643 0.494927 -0.0140694 -1.16821 0.476811 -0.0338478 -1.1681 
0.123106 -0.0220865 -1.19315 0.0291529 -0.028363 -1.19505 0.256337 -0.0368961 -1.183 
0.0787977 -0.00545933 -1.19277 0.358844 -0.022091 -1.18509 0.456313 -0.0447011 -1.17007 
0.160061 -0.0135889 -1.18243 0.47025 -0.0292533 -1.16129 0.271345 -0.00911094 -1.17835 
0.479961 -0.0271309 -1.18636 0.0145902 -0.0357897 -1.18987 0.179241 -0.0406859 -1.1882 
0.459358 -0.0137116 -1.19494 0.253404 -0.00555853 -0.280561 0.197242 -0.0360188 -1.19235 
0.266368 -0.00817667 -1.19485 0.459448 -0.00734185 -1.18647 0.463816 -0.0222224 -1.17142 
0.450413 -0.0336502 -1.17091 0.494568 -0.0450462 -1.14672 0.289576 -0.00536852 -1.19501 
0.446347 -0.0231354 -1.19494 0.231216 -0.0255859 -0.245151 0.284868 -0.0152848 -1.19346 
0.200979 -0.0225087 -1.13157 0.144719 -0.0381797 -1.1112 0.207411 -0.0109216 -1.19392 
0.122282 -0.0136488 -1.18749 0.463301 -0.0291179 -1.17864 0.320672 -0.0334136 -0.398006 
0.44661 -0.0338905 -1.18037 0.480111 -0.0226296 -1.15696 0.352004 -0.00485954 -1.18296 
0.463251 -0.00502313 -1.17752 0.301254 -0.0127109 -1.17289 0.216542 -0.00806942 -1.18619 
0.415061 -0.0332281 -1.19188 0.458672 -0.0450137 -1.18597 0.396869 -0.0446626 -1.19154 
0.378347 -0.0116189 -1.19511 0.013787 -0.0287569 -1.16567 0.463567 -0.031218 -1.19502 
0.402487 -0.0147512 -1.19486 0.438623 -0.0449377 -1.18443 0.472924 -0.00499406 -1.16743 
0.293752 -0.0424117 -1.16077 0.1564 -0.0443355 -1.18199 0.345784 -0.015038 -1.16545 
0.437404 -0.0112867 -1.1338 0.444317 -0.0332448 -1.19487 0.462224 -0.01588 -1.17905 
0.14604 -0.0278299 -1.19515 0.456243 -0.0244491 -1.19496 0.118222 -0.0232394 -1.1822 
0.270309 -0.0424987 -1.1935 0.471534 -0.0327195 -1.18442 0.12717 -0.030313 -1.18698 
0.359432 -0.0273151 -1.19357 0.426856 -0.0262109 -1.19484 0.17168 -0.0419635 -1.19491 
0.370223 -0.00582001 -1.1932 0.49413 -0.0268961 -1.1486 0.136892 -0.00601178 -0.946257 
0.189497 -0.0160886 -1.19105 0.0649067 -0.0195103 -1.13626 0.436871 -0.0262202 -1.19458 
0.453529 -0.0244047 -1.16898 0.279517 -0.0307746 -1.19153 0.392633 -0.0227163 -1.19454 
0.307556 -0.00930419 -1.18179 0.43655 -0.0290908 -1.18346 0.454544 -0.0226896 -1.17877 
0.430105 -0.0449922 -1.19492 0.475123 -0.00511297 -1.17729 0.327802 -0.00584621 -0.412033 
0.404842 -0.0231838 -1.19011 0.461127 -0.00506499 -1.16548 0.231438 -0.0170835 -1.18837 
0.27205 -0.0231612 -1.195 0.34618 -0.043049 -1.19495 0.435111 -0.0199275 -1.18706 
0.46397 -0.0448953 -1.1775 0.254071 -0.00940315 -1.16833 0.438346 -0.00506025 -1.18632 
0.196128 -0.0257313 -1.1943 0.153587 -0.00571701 -1.18395 0.179513 -0.00890643 -1.18265 
0.440544 -0.02017 -1.17717 0.360597 -0.00634821 -1.17687 0.412496 -0.0160863 -0.764206 
0.211801 -0.0125144 -1.16876 0.439382 -0.0151818 -1.19499 0.379129 -0.0290273 -1.18944 
0.396688 -0.0183229 -1.03343 0.369428 -0.0281427 -1.19416 0.419091 -0.00551644 -1.19461 
0.143602 -0.00621367 -1.17815 0.161493 -0.0116733 -1.14378 0.323561 -0.0424324 -1.18574 
0.47769 -0.0399065 -1.12106 0.365806 -0.0417816 -1.19375 0.338773 -0.00579359 -1.19437 
0.312602 -0.034539 -1.16772 0.194083 -0.0055223 -1.18294 0.180574 -0.0178107 -1.19499 
0.450546 -0.0450058 -1.17954 0.434761 -0.0361001 -1.19409 0.230343 -0.00690059 -1.13116 
0.216411 -0.00504448 -0.245002 0.26282 -0.0328049 -1.17274 0.364468 -0.0158141 -1.12597 
0.457176 -0.0125844 -1.17101 0.307269 -0.035111 -1.17809 0.321156 -0.00752014 -1.14989 
0.312523 -0.0183073 -1.18931 0.160199 -0.0253694 -1.18578 0.38901 -0.00802348 -1.19489 
0.412372 -0.0131145 -1.19465 0.324932 -0.0155051 -1.17758 0.274385 -0.043492 -0.31688 
0.446269 -0.0231975 -1.18482 0.210159 -0.0250739 -1.18777 0.419609 -0.0429227 -1.19488 
0.282348 -0.00489971 -1.18703 0.385495 -0.044343 -1.1897 0.46713 -0.0124561 -1.17064 
0.447202 -0.0136725 -1.17056 0.25089 -0.0344448 -1.16289 0.37763 -0.0190877 -1.18883 
0.402184 -0.0343211 -1.19349 0.388455 -0.0320308 -1.19469 0.37879 -0.0372817 -1.18078 
0.432478 -0.00552383 -1.17686 0.376672 -0.0453812 -1.14228 0.355406 -0.0373903 -1.19495 
0.326463 -0.00738984 -1.19357 0.278558 -0.0140143 -1.18579 0.423542 -0.0443932 -1.1841 
0.19354 -0.0433032 -1.1545 0.453022 -0.0054021 -1.17694 0.373588 -0.0449286 -1.18454 
0.388915 -0.0171368 -1.18623 0.359065 -0.0172126 -1.13799 0.296079 -0.0358309 -1.17295 
0.369522 -0.0351496 -1.18508 0.324693 -0.00560332 -1.17853 0.413312 -0.0417094 -1.18455 
0.200268 -0.0191492 -1.18682 0.289375 -0.0131247 -1.18493 0.393045 -0.0288839 -1.18444 
0.302459 -0.0291901 -1.15889 0.286883 -0.00744535 -0.331917 0.394219 -0.0408395 -1.16718 
0.438004 -0.00592773 -1.16461 0.340062 -0.0335213 -1.1947 0.33625 -0.0194015 -1.18289 
0.304527 -0.0448396 -1.19127 0.453812 -0.0158643 -1.18622 0.40614 -0.00525021 -1.19498 
0.298718 -0.0125513 -1.19299 0.481271 -0.0251436 -1.14684 0.316363 -0.0242011 -1.17362 
0.205644 -0.034795 -0.245002 0.443132 -0.0294472 -1.15265 0.418898 -0.0135086 -1.18678 
0.450725 -0.0123408 -1.14943 0.427425 -0.0293166 -1.17525 0.245523 -0.0369904 -1.17311 
0.455771 -0.0331336 -1.16125 0.182722 -0.0205642 -1.12615 0.248734 -0.0341946 -1.1902 
0.413158 -0.036022 -0.889642 0.255418 -0.024571 -1.11057 0.327616 -0.0189251 -0.881004 
0.333839 -0.00962444 -1.18564 0.368607 -0.00509989 -1.18239 0.423793 -0.0382994 -1.1524 
0.389449 -0.0204507 -1.17608 0.477206 -0.0430372 -1.14913 0.304818 -0.031204 -1.19195 
0.433488 -0.0436632 -1.17149 0.354323 -0.0411399 -0.489862 0.396673 -0.0346008 -1.15331 
0.245804 -0.0437535 -1.19294 0.408213 -0.0144632 -1.18567 0.429945 -0.0120777 -1.15492 
0.317911 -0.00503783 -1.18818 0.407807 -0.0313917 -1.18534 0.490089 -0.0364501 -1.14959 
0.285225 -0.0358461 -1.16595 0.414175 -0.0248221 -1.17979 0.339697 -0.0340624 -0.624487 
0.359729 -0.0438091 -1.18418 0.418733 -0.0435466 -1.16086 0.388585 -0.00584303 -1.17435 
0.428692 -0.0142386 -1.18006 0.46787 -0.016762 -1.15245 0.361661 -0.0301759 -1.17472 
0.334392 -0.0445342 -1.19351 0.289753 -0.0431743 -0.342629 0.266645 -0.00898034 -0.299501 
0.442843 -0.00562795 -1.17677 0.39124 -0.0408871 -1.12924 0.327105 -0.0364553 -1.19496 
0.434035 -0.0431831 -1.16076 0.423728 -0.023535 -1.18523 0.397913 -0.00789329 -1.18935 
0.370368 -0.0242418 -1.18267 0.336347 -0.0106256 -0.429806 0.292461 -0.0281652 -1.19438 
0.37771 -0.00851292 -1.18576 0.349214 -0.0231145 -1.18966 0.32317 -0.0180069 -1.19438 
0.467464 -0.0188254 -1.16242 0.424282 -0.019421 -1.16938 0.36617 -0.0133453 -0.895229 
0.314613 -0.0403651 -1.1819 0.40924 -0.0314992 -0.805147 0.426065 -0.00958468 -1.16801 
0.351847 -0.0136438 -1.1786 0.422424 -0.0223194 -1.04465 0.420021 -0.034093 -1.18026 
0.418342 -0.029686 -0.798092 0.411339 -0.0227957 -1.15802 0.373641 -0.0260315 -1.17061 
0.207191 -0.0405663 -1.08272 0.339334 -0.0316003 -1.18533 0.219309 -0.0310865 -0.244675 
0.3475 -0.0264218 -0.734028 0.356487 -0.0237202 -0.868068 0.488269 -0.027342 -1.06924 
0.244833 -0.0231333 -1.16423 0.445354 -0.0206424 -1.15983 0.229638 -0.010877 -0.244662 
0.362549 -0.0146057 -1.16936 0.349443 -0.00873496 -0.575874 0.385752 -0.0299409 -1.17762 
0.378759 -0.0191402 -1.17567 0.403461 -0.00517155 -1.18163 0.30612 -0.0225946 -1.17906 
0.419571 -0.00608667 -1.17613 0.25924 -0.0295237 -0.288344 0.371327 -0.0381987 -0.832595 
0.408605 -0.0404585 -0.667284 0.261697 -0.0252331 -1.1824 0.369859 -0.0283053 -0.808605 
0.347993 -0.0200032 -0.7469 0.412696 -0.0145024 -1.17561 0.294383 -0.0341011 -1.05171 
0.277707 -0.0147907 -1.16965 0.289662 -0.0207404 -1.02138 0.41462 -0.0126795 -0.720244 
0.416052 -0.0353977 -1.06081 0.358466 -0.00873821 -0.505878 0.318665 -0.0306685 -1.18718 
0.392129 -0.0243211 -0.606451 0.318068 -0.0145875 -0.956075 0.310122 -0.0435108 -0.377036 
0.297247 -0.0365282 -1.1828 0.438439 -0.0176271 -1.11556 0.400839 -0.0250743 -1.17837 
0.378559 -0.00646032 -1.16735 0.438862 -0.0339337 -1.17403 
VERTICES 500 1000
1 0 
1 1 
1 2 
1 3 
1 4 
1 5 
1 6 
1 7 
1 8 
1 9 
1 10 
1 11 
1 12 
1 13 
1 14 
1 15 
1 16 
1 17 
1 18 
1 19 
1 20 
1 21 
1 22 
1 23 
1 24 
1 25 
1 26 
1 27 
1 28 
1 29 
1 30 
1 31 
1 32 
1 33 
1 34 
1 35 
1 36 
1 37 
1 38 
1 39 
1 40 
1 41 
1 42 
1 43 
1 44 
1 45 
1 46 
1 47 
1 48 
1 49 
1 50 
1 51 
1 52 
1 53 
1 54 
1 55 
1 56 
1 57 
1 58 
1 59 
1 60 
1 61 
1 62 
1 63 
1 64 
1 65 
1 66 
1 67 
1 68 
1 69 
1 70 
1 71 
1 72 
1 73 
1 74 
1 75 
1 76 
1 77 
1 78 
1 79 
1 80 
1 81 
1 82 
1 83 
1 84 
1 85 
1 86 
1 87 
1 88 
1 89 
1 90 
1 91 
1 92 
1 93 
1 94 
1 95 
1 96 
1 97 
1 98 
1 99 
1 100 
1 101 
1 102 
1 103 
1 104 
1 105 
1 106 
1 107 
1 108 
1 109 
1 110 
1 111 
1 112 
1 113 
1 114 
1 115 
1 116 
1 117 
1 118 
1 119 
1 120 
1 121 
1 122 
1 123 
1 124 
1 125 
1 126 
1 127 
1 128 
1 129 
1 130 
1 131 
1 132 
1 133 
1 134 
1 135 
1 136 
1 137 
1 138 
1 139 
1 140 
1 141 
1 142 
1 143 
1 144 
1 145 
1 146 
1 147 
1 148 
1 149 
1 150 
1 151 
1 152 
1 153 
1 154 
1 155 
1 156 
1 157 
1 158 
1 159 
1 160 
1 161 
1 162 
1 163 
1 164 
1 165 
1 166 
1 167 
1 168 
1 169 
1 170 
1 171 
1 172 
1 173 
1 174 
1 175 
1 176 
1 177 
1 178 
1 179 
1 180 
1 181 
1 182 
1 183 
1 184 
1 185 
1 186 
1 187 
1 188 
1 189 
1 190 
1 191 
1 192 
1 193 
1 194 
1 195 
1 196 
1 197 
1 198 
1 199 
1 200 
1 201 
1 202 
1 203 
1 204 
1 205 
1 206 
1 207 
1 208 
1 209 
1 210 
1 211 
1 212 
1 213 
1 214 
1 215 
1 216 
1 217 
1 218 
1 219 
1 220 
1 221 
1 222 
1 223 
1 224 
1 225 
1 226 
1 227 
1 228 
1 229 
1 230 
1 231 
1 232 
1 233 
1 234 
1 235 
1 236 
1 237 
1 238 
1 239 
1 240 
1 241 
1 242 
1 243 
1 244 
1 245 
1 246 
1 247 
1 248 
1 249 
1 250 
1 251 
1 252 
1 253 
1 254 
1 255 
1 256 
1 257 
1 258 
1 259 
1 260 
1 261 
1 262 
1 263 
1 264 
1 265 
1 266 
1 267 
1 268 
1 269 
1 270 
1 271 
1 272 
1 273 
1 274 
1 275 
1 276 
1 277 
1 278 
1 279 
1 280 
1 281 
1 282 
1 283 
1 284 
1 285 
1 286 
1 287 
1 288 
1 289 
1 290 
1 291 
1 292 
1 293 
1 294 
1 295 
1 296 
1 297 
1 298 
1 299 
1 300 
1 301 
1 302 
1 303 
1 304 
1 305 
1 306 
1 307 
1 308 
1 309 
1 310 
1 311 
1 312 
1 313 
1 314 
1 315 
1 316 
1 317 
1 318 
1 319 
1 320 
1 321 
1 322 
1 323 
1 324 
1 325 
1 326 
1 327 
1 328 
1 329 
1 330 
1 331 
1 332 
1 333 
1 334 
1 335 
1 336 
1 337 
1 338 
1 339 
1 340 
1 341 
1 342 
1 343 
1 344 
1 345 
1 346 
1 347 
1 348 
1 349 
1 350 
1 351 
1 352 
1 353 
1 354 
1 355 
1 356 
1 357 
1 358 
1 359 
1 360 
1 361 
1 362 
1 363 
1 364 
1 365 
1 366 
1 367 
1 368 
1 369 
1 370 
1 371 
1 372 
1 373 
1 374 
1 375 
1 376 
1 377 
1 378 
1 379 
1 380 
1 381 
1 382 
1 383 
1 384 
1 385 
1 386 
1 387 
1 388 
1 389 
1 390 
1 391 
1 392 
1 393 
1 394 
1 395 
1 396 
1 397 
1 398 
1 399 
1 400 
1 401 
1 402 
1 403 
1 404 
1 405 
1 406 
1 407 
1 408 
1 409 
1 410 
1 411 
1 412 
1 413 
1 414 
1 415 
1 416 
1 417 
1 418 
1 419 
1 420 
1 421 
1 422 
1 423 
1 424 
1 425 
1 426 
1 427 
1 428 
1 429 
1 430 
1 431 
1 432 
1 433 
1 434 
1 435 
1 436 
1 437 
1 438 
1 439 
1 440 
1 441 
1 442 
1 443 
1 444 
1 445 
1 446 
1 447 
1 448 
1 449 
1 450 
1 451 
1 452 
1 453 
1 454 
1 455 
1 456 
1 457 
1 458 
1 459 
1 460 
1 461 
1 462 
1 463 
1 464 
1 465 
1 466 
1 467 
1 468 
1 469 
1 470 
1 471 
1 472 
1 473 
1 474 
1 475 
1 476 
1 477 
1 478 
1 479 
1 480 
1 481 
1 482 
1 483 
1 484 
1 485 
1 486 
1 487 
1 488 
1 489 
1 490 
1 491 
1 492 
1 493 
1 494 
1 495 
1 496 
1 497 
1 498 
1 499 

POINT_DATA 500
FIELD FieldData 7
id 1 500 int
1 2 3 4 5 6 7 8 9 
10 11 12 13 14 15 16 17 18 
19 20 21 22 23 24 25 26 27 
28 29 30 31 32 33 34 35 36 
37 38 39 40 41 42 43 44 45 
46 47 48 49 50 51 52 53 54 
55 56 57 58 59 60 61 62 63 
64 65 66 67 68 69 70 71 72 
73 74 75 76 77 78 79 80 81 
82 83 84 85 86 87 88 89 90 
91 92 93 94 95 96 97 98 99 
100 101 102 103 104 105 106 107 108 
109 110 111 112 113 114 115 116 117 
118 119 120 121 122 123 124 125 126 
127 128 129 130 131 132 133 134 135 
136 137 138 139 140 141 142 143 144 
145 146 147 148 149 150 151 152 153 
154 155 156 157 158 159 160 161 162 
163 164 165 166 167 168 169 170 171 
172 173 174 175 176 177 178 179 180 
181 182 183 184 185 186 187 188 189 
190 191 192 193 194 195 196 197 198 
199 200 201 202 203 204 205 206 207 
208 209 210 211 212 213 214 215 216 
217 218 219 220 221 222 223 224 225 
226 227 228 229 230 231 232 233 234 
235 236 237 238 239 240 241 242 243 
244 245 246 247 248 249 250 251 252 
253 254 255 256 257 258 259 260 261 
262 263 264 265 266 267 268 269 270 
271 272 273 274 275 276 277 278 279 
280 281 282 283 284 285 286 287 288 
289 290 291 292 293 294 295 296 297 
298 299 300 301 302 303 304 305 306 
307 308 309 310 311 312 313 314 315 
316 317 318 319 320 321 322 323 324 
325 326 327 328 329 330 331 332 333 
334 335 336 337 338 339 340 341 342 
343 344 345 346 347 348 349 350 351 
352 353 354 355 356 357 358 359 360 
361 362 363 364 365 366 367 368 369 
370 371 372 373 374 375 376 377 378 
379 380 381 382 383 384 385 386 387 
388 389 390 391 392 393 394 395 396 
397 398 399 400 401 402 403 404 405 
406 407 408 409 410 411 412 413 414 
415 416 417 418 419 420 421 422 423 
424 425 426 427 428 429 430 431 432 
433 434 435 436 437 438 439 440 441 
442 443 444 445 446 447 448 449 450 
451 452 453 454 455 456 457 458 459 
460 461 462 463 464 465 466 467 468 
469 470 471 472 473 474 475 476 477 
478 479 480 481 482 483 484 485 486 
487 488 489 490 491 492 493 494 495 
496 497 498 499 500 
type 1 500 int
1 1 1 1 1 1 1 1 1 
1 1 1 1 1 1 1 1 1 
1 1 1 1 1 1 1 1 1 
1 1 1 1 1 1 1 1 1 
1 1 1 1 1 1 1 1 1 
1 1 1 1 1 1 1 1 1 
1 1 1 1 1 1 1 1 1 
1 1 1 1 1 1 1 1 1 
1 1 1 1 1 1 1 1 1 
1 1 1 1 1 1 1 1 1 
1 1 1 1 1 1 1 1 1 
1 1 1 1 1 1 1 1 1 
1 1 1 1 1 1 1 1 1 
1 1 1 1 1 1 1 1 1 
1 1 1 1 1 1 1 1 1 
1 1 1 1 1 1 1 1 1 
1 1 1 1 1 1 1 1 1 
1 1 1 1 1 1 1 1 1 
1 1 1 1 1 1 1 1 1 
1 1 1 1 1 1 1 1 1 
1 1 1 1 1 1 1 1 1 
1 1 1 1 1 1 1 1 1 
1 1 1 1 1 1 1 1 1 
1 1 1 1 1 1 1 1 1 
1 1 1 1 1 1 1 1 1 
1 1 1 1 1 1 1 1 1 
1 1 1 1 1 1 1 1 1 
1 1 1 1 1 1 1 1 1 
1 1 1 1 1 1 1 1 1 
1 1 1 1 1 1 1 1 1 
1 1 1 1 1 1 1 1 1 
1 1 1 1 1 1 1 1 1 
1 1 1 1 1 1 1 1 1 
1 1 1 1 1 1 1 1 1 
1 1 1 1 1 1 1 1 1 
1 1 1 1 1 1 1 1 1 
1 1 1 1 1 1 1 1 1 
1 1 1 1 1 1 1 1 1 
1 1 1 1 1 1 1 1 1 
1 1 1 1 1 1 1 1 1 
1 1 1 1 1 1 1 1 1 
1 1 1 1 1 1 1 1 1 
1 1 1 1 1 1 1 1 1 
1 1 1 1 1 1 1 1 1 
1 1 1 1 1 1 1 1 1 
1 1 1 1 1 1 1 1 1 
1 1 1 1 1 1 1 1 1 
1 1 1 1 1 1 1 1 1 
1 1 1 1 1 1 1 1 1 
1 1 1 1 1 1 1 1 1 
1 1 1 1 1 1 1 1 1 
1 1 1 1 1 1 1 1 1 
1 1 1 1 1 1 1 1 1 
1 1 1 1 1 1 1 1 1 
1 1 1 1 1 1 1 1 1 
1 1 1 1 1 
i 3 500 int
0 0 0 0 0 0 0 0 0 
0 0 0 0 0 0 0 0 0 
0 0 0 0 0 0 0 0 0 
0 0 0 0 0 0 0 0 0 
0 0 0 0 0 0 0 0 0 
0 0 0 0 0 0 0 0 0 
0 0 0 0 0 0 0 0 0 
0 0 0 0 0 0 0 0 0 
0 0 0 0 0 0 0 0 0 
0 0 0 0 0 0 0 0 0 
0 0 0 0 0 0 0 0 0 
0 0 0 0 0 0 0 0 0 
0 0 0 0 0 0 0 0 0 
0 0 0 0 0 0 0 0 0 
0 0 0 0 0 0 0 0 0 
0 0 0 0 0 0 0 0 0 
0 0 0 0 0 0 0 0 0 
0 0 0 0 0 0 0 0 0 
0 0 0 0 0 0 0 0 0 
0 0 0 0 0 0 0 0 0 
0 0 0 0 0 0 0 0 0 
0 0 0 0 0 0 0 0 0 
0 0 0 0 0 0 0 0 0 
0 0 0 0 0 0 0 0 0 
0 0 0 0 0 0 0 0 0 
0 0 0 0 0 0 0 0 0 
0 0 0 0 0 0 0 0 0 
0 0 0 0 0 0 0 0 0 
0 0 0 0 0 0 0 0 0 
0 0 0 0 0 0 0 0 0 
0 0 0 0 0 0 0 0 0 
0 0 0 0 0 0 0 0 0 
0 0 0 0 0 0 0 0 0 
0 0 0 0 0 0 0 0 0 
0 0 0 0 0 0 0 0 0 
0 0 0 0 0 0 0 0 0 
0 0 0 0 0 0 0 0 0 
0 0 0 0 0 0 0 0 0 
0 0 0 0 0 0 0 0 0 
0 0 0 0 0 0 0 0 0 
0 0 0 0 0 0 0 0 0 
0 0 0 0 0 0 0 0 0 
0 0 0 0 0 0 0 0 0 
0 0 0 0 0 0 0 0 0 
0 0 0 0 0 0 0 0 0 
0 0 0 0 0 0 0 0 0 
0 0 0 0 0 0 0 0 0 
0 0 0 0 0 0 0 0 0 
0 0 0 0 0 0 0 0 0 
0 0 0 0 0 0 0 0 0 
0 0 0 0 0 0 0 0 0 
0 0 0 0 0 0 0 0 0 
0 0 0 0 0 0 0 0 0 
0 0 0 0 0 0 0 0 0 
0 0 0 0 0 0 0 0 0 
0 0 0 0 0 0 0 0 0 
0 0 0 0 0 0 0 0 0 
0 0 0 0 0 0 0 0 0 
0 0 0 0 0 0 0 0 0 
0 0 0 0 0 0 0 0 0 
0 0 0 0 0 0 0 0 0 
0 0 0 0 0 0 0 0 0 
0 0 0 0 0 0 0 0 0 
0 0 0 0 0 0 0 0 0 
0 0 0 0 0 0 0 0 0 
0 0 0 0 0 0 0 0 0 
0 0 0 0 0 0 0 0 0 
0 0 0 0 0 0 0 0 0 
0 0 0 0 0 0 0 0 0 
0 0 0 0 0 0 0 0 0 
0 0 0 0 0 0 0 0 0 
0 0 0 0 0 0 0 0 0 
0 0 0 0 0 0 0 0 0 
0 0 0 0 0 0 0 0 0 
0 0 0 0 0 0 0 0 0 
0 0 0 0 0 0 0 0 0 
0 0 0 0 0 0 0 0 0 
0 0 0 0 0 0 0 0 0 
0 0 0 0 0 0 0 0 0 
0 0 0 0 0 0 0 0 0 
0 0 0 0 0 0 0 0 0 
0 0 0 0 0 0 0 0 0 
0 0 0 0 0 0 0 0 0 
0 0 0 0 0 0 0 0 0 
0 0 0 0 0 0 0 0 0 
0 0 0 0 0 0 0 0 0 
0 0 0 0 0 0 0 0 0 
0 0 0 0 0 0 0 0 0 
0 0 0 0 0 0 0 0 0 
0 0 0 0 0 0 0 0 0 
0 0 0 0 0 0 0 0 0 
0 0 0 0 0 0 0 0 0 
0 0 0 0 0 0 0 0 0 
0 0 0 0 0 0 0 0 0 
0 0 0 0 0 0 0 0 0 
0 0 0 0 0 0 0 0 0 
0 0 0 0 0 0 0 0 0 
0 0 0 0 0 0 0 0 0 
0 0 0 0 0 0 0 0 0 
0 0 0 0 0 0 0 0 0 
0 0 0 0 0 0 0 0 0 
0 0 0 0 0 0 0 0 0 
0 0 0 0 0 0 0 0 0 
0 0 0 0 0 0 0 0 0 
0 0 0 0 0 0 0 0 0 
0 0 0 0 0 0 0 0 0 
0 0 0 0 0 0 0 0 0 
0 0 0 0 0 0 0 0 0 
0 0 0 0 0 0 0 0 0 
0 0 0 0 0 0 0 0 0 
0 0 0 0 0 0 0 0 0 
0 0 0 0 0 0 0 0 0 
0 0 0 0 0 0 0 0 0 
0 0 0 0 0 0 0 0 0 
0 0 0 0 0 0 0 0 0 
0 0 0 0 0 0 0 0 0 
0 0 0 0 0 0 0 0 0 
0 0 0 0 0 0 0 0 0 
0 0 0 0 0 0 0 0 0 
0 0 0 0 0 0 0 0 0 
0 0 0 0 0 0 0 0 0 
0 0 0 0 0 0 0 0 0 
0 0 0 0 0 0 0 0 0 
0 0 0 0 0 0 0 0 0 
0 0 0 0 0 0 0 0 0 
0 0 0 0 0 0 0 0 0 
0 0 0 0 0 0 0 0 0 
0 0 0 0 0 0 0 0 0 
0 0 0 0 0 0 0 0 0 
0 0 0 0 0 0 0 0 0 
0 0 0 0 0 0 0 0 0 
0 0 0 0 0 0 0 0 0 
0 0 0 0 0 0 0 0 0 
0 0 0 0 0 0 0 0 0 
0 0 0 0 0 0 0 0 0 
0 0 0 0 0 0 0 0 0 
0 0 0 0 0 0 0 0 0 
0 0 0 0 0 0 0 0 0 
0 0 0 0 0 0 0 0 0 
0 0 0 0 0 0 0 0 0 
0 0 0 0 0 0 0 0 0 
0 0 0 0 0 0 0 0 0 
0 0 0 0 0 0 0 0 0 
0 0 0 0 0 0 0 0 0 
0 0 0 0 0 0 0 0 0 
0 0 0 0 0 0 0 0 0 
0 0 0 0 0 0 0 0 0 
0 0 0 0 0 0 0 0 0 
0 0 0 0 0 0 0 0 0 
0 0 0 0 0 0 0 0 0 
0 0 0 0 0 0 0 0 0 
0 0 0 0 0 0 0 0 0 
0 0 0 0 0 0 0 0 0 
0 0 0 0 0 0 0 0 0 
0 0 0 0 0 0 0 0 0 
0 0 0 0 0 0 0 0 0 
0 0 0 0 0 0 0 0 0 
0 0 0 0 0 0 0 0 0 
0 0 0 0 0 0 0 0 0 
0 0 0 0 0 0 0 0 0 
0 0 0 0 0 0 0 0 0 
0 0 0 0 0 0 0 0 0 
0 0 0 0 0 0 0 0 0 
0 0 0 0 0 0 0 0 0 
0 0 0 0 0 0 0 0 0 
0 0 0 0 0 0 0 0 0 
0 0 0 0 0 0 
v 3 500 double
-0.0190901 -0.0609972 -0.0600234 -0.0636573 -0.0399015 -0.0712743 -0.196839 0.0705994 0.0135795 
-1.1052 -0.0858902 -0.213623 -0.584448 0.048677 -1.64192 -0.553149 0.273452 0.321238 
0.674663 0.177496 -1.9195 -0.355462 0.031393 -1.99669 -0.187731 0.0172905 -2.1478 
0.00742075 0.00248237 -0.0148613 -0.202847 -0.0570282 -2.06736 -0.033191 0.0256157 -0.0278198 
-0.713123 0.105764 0.338608 -0.0396378 0.254104 0.150191 -0.341783 0.060187 -2.05433 
0.0461139 -0.06429 0.0430963 -0.393762 -0.391108 -0.465529 -0.00266184 0.00253011 0.0275655 
-0.429075 0.0699177 0.452785 -0.00341563 -0.0514794 -0.0483071 -0.405842 0.201385 0.336917 
-0.225901 0.7359 -1.22391 -0.00376132 0.0074724 0.00250528 0.0421901 -0.301516 -0.962227 
0.0629484 0.0302345 -3.34586 0.194069 0.0812156 0.242463 -0.00337868 -0.0224384 0.0152226 
-0.0151938 0.0201475 -0.0336438 -0.314965 -0.148082 0.0244494 -0.745656 0.305039 -0.303277 
-1.22517 -0.364296 0.687806 -0.0784435 -0.117065 0.0241191 0.276821 0.205647 0.0344342 
0.306556 -0.0980606 -0.0547091 0.0286638 -0.0923621 -2.61549 -1.34664 0.153248 -0.461049 
-0.0498561 -0.00721641 -0.0193232 0.0524228 0.0227354 0.00387472 -1.06817 -0.0523315 0.0125679 
-0.0163794 -0.0134677 0.00595456 -0.00164804 -0.0374652 -6.74489e-11 -0.534499 -0.300742 -2.88687 
-0.146041 0.125584 -1.46143 -0.0514209 0.0245143 -0.00588179 -0.211853 -0.0811797 -1.55929 
-0.00912576 0.0106424 4.13684e-05 -0.837951 -0.168482 -1.90024 0.0810572 0.0861027 0.181454 
0.0178484 -0.00911809 -0.0588069 0.10342 -0.0555572 -0.103691 -0.0937218 0.00961935 0.0701589 
-0.00883754 0.00371075 -0.00438874 -0.137408 -0.14845 0.0104547 0.115721 -0.134357 0.156687 
-0.499079 0.376579 0.181091 -0.632271 -0.264627 -0.277922 -0.850478 0.589169 -0.0762395 
-0.296479 0.0707144 -1.64159 -0.678784 0.0994551 -2.06519 -0.261618 -0.433186 -0.0272361 
-0.167743 0.0637596 -0.141469 -0.00486083 0.0259538 -0.0109046 -0.478542 0.198217 0.195326 
-0.716536 0.160534 -0.577784 -0.426467 -0.168035 -0.790519 -0.178519 0.00463177 0.0191267 
0.0327382 0.141244 0.0187294 -0.128762 0.0368004 -0.115306 -0.0284086 -0.0161467 -0.000238526 
-0.0327177 0.243894 -0.0110541 -0.0255746 -0.0353783 -0.0159219 -0.0183868 -0.0923385 -0.00739511 
-1.37619 0.0871977 0.236732 -0.168751 -0.23983 0.144708 -0.861063 -0.420745 0.546382 
-1.22373 -0.243848 0.25485 -0.8618 0.205764 -0.606835 -0.000909086 0.195087 0.00656248 
0.0812458 -0.0200239 -0.172489 -0.0705406 0.0333621 0.00681156 0.0198854 -0.534642 -0.735295 
-1.32645 -0.243362 0.0252771 0.00488947 -0.0313034 -0.101063 -0.230975 0.387209 -0.717368 
0.138328 -0.0192526 -0.175393 0.345064 0.516733 -0.470781 -0.521564 0.435699 0.225669 
0.0568362 0.0986938 -0.0901096 -0.107049 0.0789165 -0.0229695 -0.601755 -0.377871 -0.0246748 
-1.50401 -0.0528644 -0.194677 0.0985821 0.0263975 0.00133118 -1.0056 -0.630618 -0.108162 
-0.595209 -0.1185 -0.133447 -0.242109 0.0746341 -0.139454 -0.0992761 0.111593 0.295964 
-0.873424 -0.0220455 -0.0352951 -0.82259 0.146247 -0.198869 -0.065154 -0.131441 -3.42809 
-0.757677 0.0439036 0.163696 -1.04262 -0.204188 -0.00178431 0.00487383 -0.00864497 -1.0394e-07 
-0.583554 0.19451 0.566718 -0.0747958 0.0808803 -0.0989805 0.266608 -0.119085 -0.207455 
-0.143163 0.169784 0.0647241 0.813569 -0.0115286 -0.0762608 0.670346 -0.114808 -1.11467 
-1.63317 -0.247556 0.693335 -0.948902 -0.304616 -0.0968521 -0.688092 -0.207868 0.140978 
-1.21616 0.0320432 -0.158715 -0.00439313 -0.00252294 -0.0276277 -0.0923945 -0.012756 -0.00462385 
-0.39421 -0.147296 -1.46363 -0.487405 -0.128515 -0.39013 0.762641 -0.0681086 -1.32093 
-0.0573838 -0.00818577 -0.0708727 -0.0599916 0.00754677 0.00485707 -1.68682 -0.0515876 -0.124163 
-0.508294 0.360415 -0.227959 -0.108651 -0.0128743 -0.0893728 -0.0652171 -0.0402569 0.00485837 
-0.00259795 -0.00335619 -0.0358883 -0.0109255 -0.01037 -0.000393431 -1.16424 -0.0416163 0.0904249 
6.46789e-05 -0.00231068 4.38252e-06 -0.127478 0.0249775 -0.023372 -0.010219 -0.000916939 -0.0180819 
-0.220588 -0.140916 0.0246066 -1.22426 0.193779 -0.622164 -0.00467585 -0.0052562 0.000977477 
-1.18171 -0.0307246 0.0884014 -0.20796 -0.325465 -0.88054 -1.14228 -0.194451 0.0223947 
-0.0202185 0.000477517 -0.119882 0.398021 0.240168 -1.59206 0.243211 -0.310574 0.782889 
0.0823597 -0.0159525 -0.0411278 -0.5002 0.184009 -0.136576 -0.0209589 0.0128537 -0.0356425 
0.0234614 0.0151044 -0.044933 -0.0360804 0.0304358 -0.0017619 0.239712 -0.0363479 -0.114069 
-0.0375195 -0.031834 -0.039136 -0.0329081 0.013946 -0.00254265 -0.381572 0.354063 -0.0996192 
-1.23811 0.250318 -0.0378173 -0.161138 0.012494 0.00143318 -0.623608 -0.0290846 -0.580343 
-1.13138 0.0362255 -0.267225 0.0189152 -0.0247939 -0.0581568 -0.125423 -0.12548 0.147982 
0.0611505 -0.0151863 -0.0210242 0.0424551 -0.0946641 -2.78093 -0.0247995 0.00103749 -0.0173179 
-0.741991 0.710191 0.123263 -0.00661993 -0.0396691 0.0178373 -0.0788203 -0.17589 0.0704616 
-0.0129324 0.01856 0.00998548 -0.283526 0.110569 0.105889 -0.415365 -0.340294 0.100734 
-1.14256 0.0814855 0.316883 -0.171728 -0.499499 0.0771048 -1.03569 0.135078 -0.0812351 
-0.0280566 -0.00773373 -0.0196368 -0.877692 -0.0965944 0.686882 0.208508 0.0771687 0.0833931 
-0.04794 0.242952 -0.656486 -0.621574 -0.12296 0.504471 -0.0158792 0.0522899 -0.0342056 
-0.16653 0.391328 -0.275052 -0.0519135 0.0205441 -0.110191 0.0533848 -0.0457641 -0.0356558 
1.55286 0.00825568 -1.41984 0.213904 0.169114 0.169491 -1.52382 0.312246 -0.157953 
-0.0719302 -0.0548678 0.0205697 -0.346332 0.0277161 -0.0211488 -0.566252 0.145998 0.25779 