# vtk DataFile Version 4.0
Generated by LIGGGHTS
ASCII
DATASET POLYDATA
POINTS 20 float
0.211997 -0.0418897 -0.0222365 0.233797 -0.00537323 -0.0219103 0.225405 -0.0207625 -0.0174332 
0.212484 -0.0412472 -0.0119374 0.244178 -0.0141328 -0.0121273 0.220219 -0.0259835 -0.0261561 
0.217071 -0.0141746 -0.0297731 0.237935 -0.0260741 -0.0112183 0.233197 -0.036791 -0.0258315 
0.235137 -0.0439829 -0.0145849 0.247444 -0.0109642 -0.0256607 0.22456 -0.0317286 -0.013693 
0.235339 -0.0159352 -0.0184089 0.234243 -0.0266562 -0.0249447 0.245072 -0.0224928 -0.027004 
0.215353 -0.0105762 -0.0180658 0.246062 -0.0372628 -0.0184076 0.222987 -0.0414691 -0.0217547 
0.213628 -0.0267565 -0.0115009 0.22784 -0.00989582 -0.0144907 
VERTICES 20 40
1 0 
1 1 
1 2 
1 3 
1 4 
1 5 
1 6 
1 7 
1 8 
1 9 
1 10 
1 11 
1 12 
1 13 
1 14 
1 15 
1 16 
1 17 
1 18 
1 19 

POINT_DATA 20
FIELD FieldData 7
id 1 20 int
1 2 3 4 5 6 7 8 9 
10 11 12 13 14 15 16 17 18 
19 20 
type 1 20 int
1 1 1 1 1 1 1 1 1 
1 1 1 1 1 1 1 1 1 
1 1 
i 3 20 int
0 0 0 0 0 0 0 0 0 
0 0 0 0 0 0 0 0 0 
0 0 0 0 0 0 0 0 0 
0 0 0 0 0 0 0 0 0 
0 0 0 0 0 0 0 0 0 
0 0 0 0 0 0 0 0 0 
0 0 0 0 0 0 
v 3 20 double
0 0 -1.02183 0 0 -1.01839 -0 -0 -1 
-0 -0 -1 -0 -0 -1 0 0 -1.05861 
0 0 -1.09148 -0 -0 -1 0 0 -1.05567 
-0 -0 -1 0 0 -1.0542 -0 -0 -1 
-0 -0 -1 0 0 -1.04733 0 0 -1.06646 
-0 -0 -1 -0 -0 -1 0 0 -1.01692 
-0 -0 -1 -0 -0 -1 
f 3 20 double
0 0 -0.0128413 0 0 -0.0128413 0 0 0 
0 0 0 0 0 0 0 0 -0.0128413 
0 0 -0.0128413 0 0 0 0 0 -0.0128413 
0 0 0 0 0 -0.0128413 0 0 0 
0 0 0 0 0 -0.0128413 0 0 -0.0128413 
0 0 0 0 0 0 0 0 -0.0128413 
0 0 0 0 0 0 
radius 1 20 double
0.005 0.005 0.005 0.005 0.005 0.005 0.005 0.005 0.005 
0.005 0.005 0.005 0.005 0.005 0.005 0.005 0.005 0.005 
0.005 0.005 
omega 3 20 double
0 0 0 0 0 0 0 0 0 
0 0 0 0 0 0 0 0 0 
0 0 0 0 0 0 0 0 0 
0 0 0 0 0 0 0 0 0 
0 0 0 0 0 0 0 0 0 
0 0 0 0 0 0 0 0 0 
0 0 0 0 0 0 
