# vtk DataFile Version 4.0
Generated by LIGGGHTS
ASCII
DATASET POLYDATA
POINTS 500 float
0.434891 -0.0450054 -1.17877 0.435378 -0.0378602 -1.17177 0.00498787 -0.0249769 -1.19502 
0.032512 -0.0203931 -1.17414 0.00856754 -0.0244682 -1.16466 0.0288918 -0.00585209 -1.1688 
0.0379328 -0.037059 -1.18333 0.0182208 -0.0402556 -1.14106 0.0721293 -0.0164917 -1.17787 
0.47289 -0.0172807 -1.17583 0.390718 -0.0432871 -1.16989 0.466461 -0.0115382 -1.19503 
0.0221357 -0.014946 -1.16151 0.394529 -0.00495394 -1.18615 0.031399 -0.0158111 -1.16527 
0.413708 -0.0307181 -1.18864 0.0258295 -0.0449861 -1.1783 0.494999 -0.0450214 -1.18002 
0.0342847 -0.0355099 -1.195 0.483704 -0.0149417 -1.18691 0.00502877 -0.0166314 -1.16976 
0.240038 -0.0259231 -1.19442 0.493908 -0.0449977 -1.195 0.04965 -0.00505975 -1.18536 
0.300752 -0.027926 -1.17265 0.411214 -0.0416405 -1.1791 0.486691 -0.0286961 -1.18932 
0.464447 -0.0448856 -1.195 0.397661 -0.01923 -1.17065 0.0880567 -0.0158383 -1.18561 
0.0320705 -0.0198336 -1.18725 0.452478 -0.0449966 -1.18516 0.429518 -0.00960921 -1.17746 
0.464975 -0.0198436 -1.1897 0.303002 -0.0273044 -1.19159 0.027388 -0.0318786 -1.18691 
0.421743 -0.00499256 -1.19495 0.0149893 -0.0449924 -1.19501 0.0289305 -0.0413518 -1.1695 
0.494381 -0.0104393 -1.18615 0.21583 -0.0291574 -0.245002 0.125201 -0.0265791 -1.19483 
0.0610925 -0.00580251 -1.16847 0.43179 -0.0357316 -1.18085 0.120515 -0.0390867 -1.19497 
0.470894 -0.036511 -1.195 0.00499446 -0.0368829 -1.1792 0.00501856 -0.0199562 -1.18637 
0.487319 -0.0449849 -1.1864 0.441947 -0.0223262 -1.18531 0.410053 -0.00499756 -1.19501 
0.482229 -0.0449477 -1.19501 0.0207916 -0.00500101 -1.18687 0.053793 -0.0422619 -1.17073 
0.0054658 -0.0237449 -1.17712 0.0138298 -0.0362177 -1.17416 0.0804813 -0.0265396 -1.19416 
0.0634749 -0.0167217 -1.17167 0.0135467 -0.0072484 -1.18037 0.0323678 -0.0288652 -1.16882 
0.023109 -0.0358916 -1.195 0.454325 -0.0346872 -1.19501 0.0150995 -0.0161311 -1.1699 
0.0404112 -0.0196161 -1.18172 0.0677508 -0.0447689 -1.17097 0.43785 -0.0131189 -1.19501 
0.441984 -0.029743 -1.16884 0.464557 -0.0430234 -1.15651 0.443688 -0.00500855 -1.19503 
0.00508414 -0.0130719 -1.17911 0.488176 -0.0367815 -1.195 0.493412 -0.0205297 -1.18679 
0.0393132 -0.0122467 -1.18849 0.0138007 -0.0202934 -1.19501 0.046323 -0.0433216 -1.1773 
0.0529819 -0.0230265 -1.1818 0.018337 -0.00502275 -1.17188 0.435007 -0.0105308 -1.16911 
0.424569 -0.031515 -1.18632 0.494515 -0.0394641 -1.17166 0.0404627 -0.035159 -1.17384 
0.0253477 -0.0238915 -1.18094 0.451561 -0.0185608 -1.18347 0.00520327 -0.0050241 -1.17315 
0.358398 -0.0418274 -0.57815 0.0528689 -0.0351251 -1.17804 0.0194587 -0.0360665 -1.18245 
0.38479 -0.0351563 -1.19499 0.447321 -0.0440165 -1.17661 0.00499391 -0.0050004 -1.18502 
0.0441184 -0.0309652 -1.19501 0.411899 -0.00565606 -1.16825 0.0312436 -0.0101853 -1.14364 
0.00499998 -0.029947 -1.18637 0.00499557 -0.0449994 -1.19501 0.0125615 -0.0125047 -1.18887 
0.127223 -0.01223 -1.18745 0.0774672 -0.0144884 -1.18608 0.271581 -0.0448153 -1.19371 
0.0556494 -0.0449221 -1.195 0.0708947 -0.0236514 -1.195 0.206809 -0.0449689 -0.245002 
0.0139941 -0.0255263 -1.18649 0.465707 -0.0134391 -1.18205 0.379478 -0.0266459 -1.19488 
0.409014 -0.0166854 -1.16929 0.107546 -0.0358062 -1.18917 0.172587 -0.0327078 -1.19473 
0.10181 -0.0449268 -1.19489 0.0445337 -0.0285953 -1.18024 0.23014 -0.0172046 -1.18663 
0.0575676 -0.0306871 -1.18632 0.494921 -0.00500651 -1.19498 0.415918 -0.0131126 -1.195 
0.0743283 -0.0175207 -1.16778 0.0383455 -0.0210477 -1.195 0.363837 -0.0414272 -1.08755 
0.450887 -0.00506485 -1.18811 0.462983 -0.0450175 -1.18488 0.0481316 -0.035172 -1.18684 
0.378513 -0.0124604 -1.1777 0.488659 -0.0301178 -1.17266 0.458215 -0.00499527 -1.19501 
0.465588 -0.00503329 -1.18747 0.474211 -0.00511289 -1.19501 0.0317139 -0.00498964 -1.18651 
0.205012 -0.025318 -0.245002 0.470403 -0.0383362 -1.18354 0.494985 -0.0150672 -1.195 
0.0138247 -0.0445543 -1.18027 0.0335619 -0.0124963 -1.1802 0.494878 -0.0278945 -1.19501 
0.0569987 -0.0052515 -1.19505 0.0211117 -0.0448345 -1.18711 0.0464127 -0.0149624 -1.19498 
0.425793 -0.0219037 -1.18883 0.0188707 -0.0247635 -1.16226 0.34927 -0.00570989 -1.18548 
0.463447 -0.00596188 -1.16692 0.243287 -0.0417176 -1.19497 0.443877 -0.0210495 -1.19502 
0.471792 -0.0293257 -1.18763 0.485971 -0.00949649 -1.19502 0.422928 -0.0142678 -1.17138 
0.478139 -0.0447114 -1.18155 0.42803 -0.03588 -1.195 0.0156919 -0.017428 -1.18075 
0.0541602 -0.0213829 -1.19501 0.450195 -0.0126525 -1.195 0.145552 -0.02272 -1.19118 
0.0724396 -0.0049932 -1.18652 0.443674 -0.0427578 -1.19501 0.00501353 -0.045003 -1.18502 
0.477524 -0.0154997 -1.19495 0.366649 -0.0317284 -1.18145 0.456485 -0.0204222 -1.195 
0.0299247 -0.0265106 -1.19501 0.483666 -0.00868818 -1.1739 0.0149907 -0.00499763 -1.19501 
0.478465 -0.0279149 -1.195 0.0049979 -0.0349945 -1.195 0.248574 -0.018225 -1.195 
0.0254856 -0.0331946 -1.17497 0.0244936 -0.0139577 -1.1844 0.0323422 -0.0450281 -1.1864 
0.457984 -0.012759 -1.18872 0.118294 -0.0225918 -1.18405 0.419264 -0.0447354 -1.17345 
0.0370184 -0.00501422 -1.195 0.0503906 -0.020046 -1.16604 0.393945 -0.0135636 -1.195 
0.0207789 -0.0131514 -1.195 0.45739 -0.0443403 -1.17651 0.486353 -0.0358659 -1.18225 
0.209172 -0.0333487 -1.19482 0.0573244 -0.02557 -1.17317 0.0819308 -0.0160633 -1.19491 
0.484586 -0.0234107 -1.18112 0.0158165 -0.026722 -1.17672 0.0537434 -0.0338341 -1.19501 
0.34747 -0.0269152 -1.19336 0.494958 -0.0383494 -1.18759 0.481129 -0.00527101 -1.18737 
0.00507019 -0.0149772 -1.19502 0.0672392 -0.013526 -1.18629 0.167799 -0.0302471 -1.1843 
0.0234295 -0.023488 -1.17108 0.331841 -0.00811761 -1.18817 0.464789 -0.0234713 -1.17726 
0.316715 -0.0141745 -1.19423 0.027249 -0.0449889 -1.195 0.407825 -0.0450278 -1.19501 
0.410277 -0.013388 -1.18666 0.00499596 -0.00499106 -1.19501 0.115279 -0.0397212 -1.18401 
0.0530848 -0.0438383 -1.14569 0.389156 -0.0263994 -1.17642 0.473389 -0.0450081 -1.19036 
0.206401 -0.0154159 -0.245002 0.494873 -0.029602 -1.18277 0.0806537 -0.0419503 -1.16625 
0.0486393 -0.0140017 -1.18098 0.454456 -0.0446659 -1.195 0.46253 -0.0361937 -1.18951 
0.436772 -0.0373972 -1.18943 0.0776612 -0.00497087 -1.19502 0.486406 -0.0202399 -1.19495 
0.479586 -0.0365473 -1.18993 0.00612235 -0.0450088 -1.17351 0.0628345 -0.0345985 -1.17766 
0.201022 -0.00948185 -1.19495 0.37294 -0.0352224 -1.19467 0.0464637 -0.0406865 -1.19501 
0.0805247 -0.0358932 -1.18926 0.433648 -0.0222565 -1.19502 0.319558 -0.021075 -1.17139 
0.422799 -0.0450042 -1.195 0.399439 -0.00507474 -1.195 0.0237775 -0.0139418 -1.17441 
0.0867701 -0.0447038 -1.1861 0.420598 -0.00509737 -1.17785 0.250825 -0.0445234 -0.276071 
0.447396 -0.036595 -1.18807 0.0886059 -0.0345457 -1.19501 0.0670532 -0.00630632 -1.17822 
0.0915203 -0.0224836 -1.17737 0.41574 -0.00499792 -1.18679 0.148165 -0.011012 -1.19451 
0.415434 -0.0381866 -1.19503 0.0364069 -0.044999 -1.17717 0.0374201 -0.045003 -1.195 
0.0406779 -0.00702377 -1.17176 0.0144467 -0.0308104 -1.195 0.0265346 -0.00499066 -1.19503 
0.0670034 -0.00500097 -1.195 0.493879 -0.0215998 -1.17696 0.455724 -0.035999 -1.18221 
0.0371253 -0.0284063 -1.18835 0.0224798 -0.0218036 -1.19029 0.0736328 -0.0261051 -1.15955 
0.0259764 -0.00500353 -1.17833 0.262872 -0.0449068 -1.1888 0.428151 -0.0448525 -1.18656 
0.0542823 -0.0130773 -1.18914 0.441211 -0.0323907 -1.18144 0.0713226 -0.00513135 -1.16921 
0.465138 -0.0282958 -1.19501 0.0116907 -0.0382965 -1.18835 0.0588685 -0.0147821 -1.1804 
0.4267 -0.0140614 -1.19502 0.362129 -0.00657785 -0.79143 0.0699761 -0.0450073 -1.195 
0.0881357 -0.00505275 -1.19494 0.431707 -0.00507865 -1.19499 0.423444 -0.0208758 -1.17895 
0.407969 -0.0319249 -1.18003 0.484751 -0.0428485 -1.17409 0.0992876 -0.00543406 -1.19497 
0.412591 -0.0225363 -1.19499 0.357246 -0.0229815 -0.535153 0.0922046 -0.0141977 -1.19483 
0.131405 -0.0340245 -1.18823 0.0530794 -0.0437829 -1.18541 0.0724058 -0.0348681 -1.195 
0.0317599 -0.0135229 -1.195 0.433964 -0.0281311 -1.18695 0.369536 -0.0185027 -1.18441 
0.407296 -0.0383267 -1.18765 0.426294 -0.0358358 -1.16777 0.1966 -0.0190709 -1.19496 
0.437746 -0.00501169 -1.18699 0.101484 -0.0255729 -1.1949 0.0835787 -0.0268946 -1.18407 
0.357848 -0.0310921 -1.19252 0.433467 -0.0450038 -1.19501 0.316805 -0.0371412 -1.19483 
0.253574 -0.0050021 -1.195 0.00499515 -0.0315281 -1.17076 0.441857 -0.0308535 -1.19501 
0.286908 -0.0211564 -1.19498 0.399828 -0.0449876 -1.18747 0.449347 -0.015403 -1.17418 
0.110947 -0.00717732 -1.19496 0.0598632 -0.0449542 -1.17818 0.232871 -0.00982439 -1.19478 
0.362859 -0.00949945 -1.18641 0.405891 -0.0299784 -1.19501 0.432266 -0.0135085 -1.18674 
0.0461994 -0.0231196 -1.18915 0.420963 -0.0280917 -1.19501 0.0336798 -0.0290583 -1.17899 
0.0917465 -0.0449905 -1.19496 0.450394 -0.0268582 -1.19025 0.0430286 -0.044992 -1.18667 
0.198851 -0.0338193 -1.19497 0.394163 -0.0304959 -1.195 0.0628683 -0.0379503 -1.19501 
0.210179 -0.00501171 -1.195 0.474241 -0.0191441 -1.18596 0.0174499 -0.0450007 -1.16895 
0.0722293 -0.0135746 -1.19502 0.104297 -0.018005 -1.18005 0.399442 -0.0220047 -1.19502 
0.417597 -0.0292931 -1.17951 0.0969696 -0.043174 -1.18603 0.283568 -0.011001 -1.19415 
0.102113 -0.0151572 -1.19501 0.40057 -0.0310031 -1.18661 0.416023 -0.0214946 -1.1856 
0.39232 -0.0448169 -1.195 0.451098 -0.00554767 -1.17804 0.349828 -0.0230561 -1.17784 
0.367965 -0.00719494 -1.19496 0.439889 -0.00804721 -1.17767 0.0690986 -0.0418929 -1.18044 
0.0903898 -0.0246699 -1.195 0.186501 -0.0434506 -1.19162 0.388429 -0.0224197 -1.19337 
0.442428 -0.0449956 -1.18535 0.0806725 -0.0435905 -1.17815 0.404808 -0.00503281 -1.18648 
0.0498258 -0.0333427 -1.16803 0.0403705 -0.00505733 -1.18153 0.0605676 -0.00516136 -1.18573 
0.395222 -0.0225822 -1.186 0.203097 -0.0255384 -1.19091 0.433375 -0.0208888 -1.18008 
0.0731708 -0.0235887 -1.18523 0.404837 -0.0135145 -1.19503 0.248611 -0.00984133 -1.18112 
0.261605 -0.036105 -1.1937 0.229327 -0.0434591 -1.19487 0.388808 -0.00498992 -1.19499 
0.0470117 -0.00499745 -1.195 0.0428732 -0.0220989 -1.17234 0.219131 -0.0148292 -1.19499 
0.413312 -0.0346161 -1.1721 0.197095 -0.0394854 -1.18666 0.120758 -0.00492602 -1.19493 
0.153904 -0.0413393 -1.19411 0.0610176 -0.0212226 -1.18774 0.0622341 -0.0143973 -1.19502 
0.414755 -0.0450227 -1.1878 0.40035 -0.0383534 -1.19497 0.0887702 -0.0375982 -1.16167 
0.228503 -0.00517086 -0.245002 0.209714 -0.0184338 -1.19493 0.384428 -0.0372996 -1.17948 
0.415702 -0.0138977 -1.17834 0.0862512 -0.0327215 -1.1753 0.241079 -0.0243967 -1.18346 
0.114252 -0.0129895 -1.18391 0.0554109 -0.00581129 -1.17719 0.265787 -0.0160541 -1.19474 
0.372735 -0.0158003 -1.19482 0.191093 -0.00774272 -1.19467 0.36431 -0.041573 -0.933015 
0.40599 -0.0225696 -1.18748 0.0673795 -0.03256 -1.18668 0.35912 -0.0428572 -1.18961 
0.0876307 -0.00899814 -1.17721 0.251705 -0.0285053 -1.18139 0.444238 -0.012666 -1.18695 
0.404159 -0.0140662 -1.17767 0.0919852 -0.0449496 -1.17634 0.25255 -0.0283783 -1.19161 
0.334308 -0.0116811 -1.17812 0.28132 -0.0425646 -1.19501 0.30217 -0.0144554 -1.195 
0.399902 -0.00499907 -1.17734 0.306421 -0.0410957 -1.19362 0.230002 -0.0279578 -1.19438 
0.186112 -0.0290371 -1.19499 0.0906253 -0.0351633 -1.18435 0.382013 -0.0449527 -1.19498 
0.0627433 -0.0449443 -1.18784 0.427114 -0.00497162 -1.18613 0.272988 -0.0163147 -1.18712 
0.323926 -0.00507312 -1.19496 0.157743 -0.00689062 -1.19465 0.108128 -0.025406 -1.18731 
0.21219 -0.0445939 -1.18588 0.156257 -0.0248494 -1.19486 0.337483 -0.0409314 -1.195 
0.0618967 -0.0280063 -1.19501 0.0938004 -0.00506542 -1.18632 0.243106 -0.00577126 -1.19496 
0.236541 -0.00504235 -1.18685 0.337722 -0.011481 -0.980475 0.354081 -0.017914 -1.19314 
0.387684 -0.0156538 -1.18568 0.198213 -0.0449596 -1.19501 0.142303 -0.0371798 -1.18458 
0.129541 -0.0445528 -1.19476 0.421471 -0.0131849 -1.18655 0.378748 -0.00500261 -1.19485 
0.11168 -0.0182421 -1.195 0.450175 -0.0279437 -1.1802 0.190423 -0.0286459 -1.17842 
0.207685 -0.0349972 -0.245002 0.386643 -0.045021 -1.18596 0.383408 -0.0138633 -1.195 
0.409904 -0.0222983 -1.17775 0.387596 -0.0292192 -1.18609 0.0751495 -0.0330388 -1.18035 
0.395066 -0.0343685 -1.17879 0.00508654 -0.0385875 -1.16367 0.0817919 -0.0440106 -1.195 
0.400921 -0.0388022 -1.17197 0.0776202 -0.0279544 -1.16913 0.182709 -0.0157161 -1.19393 
0.176884 -0.00705584 -1.19481 0.223242 -0.00541141 -1.195 0.344609 -0.0153893 -1.19393 
0.340508 -0.00581563 -1.19447 0.409375 -0.0441322 -1.1696 0.114764 -0.0299392 -1.19497 
0.37841 -0.0394672 -1.1874 0.339952 -0.0424603 -1.18534 0.367234 -0.00856347 -1.17712 
0.0760109 -0.0450082 -1.18691 0.374412 -0.00559922 -1.18463 0.377604 -0.044551 -1.17265 
0.13615 -0.028072 -1.19491 0.368038 -0.0263408 -1.19497 0.475082 -0.0278631 -1.1783 
0.129794 -0.00921229 -1.17746 0.326237 -0.0160443 -1.19224 0.28796 -0.0364606 -1.18722 
0.219285 -0.0448145 -1.1944 0.297657 -0.0351751 -1.195 0.353581 -0.00640341 -1.19489 
0.399497 -0.0135722 -1.1866 0.428986 -0.0282465 -1.17489 0.313755 -0.0432468 -1.18727 
0.208219 -0.0446917 -1.19504 0.37311 -0.0286665 -1.01782 0.345336 -0.0324432 -0.866521 
0.410579 -0.00502794 -1.17815 0.355331 -0.0393819 -1.18088 0.172388 -0.0178035 -1.19452 
0.368674 -0.0449704 -1.19314 0.378574 -0.0192687 -1.18713 0.294447 -0.00669122 -1.19486 
0.262049 -0.0250294 -1.19242 0.334595 -0.0269049 -1.18243 0.0988874 -0.0352469 -1.19454 
0.270117 -0.00502633 -1.19379 0.202974 -0.0159281 -1.18574 0.139242 -0.0410372 -1.195 
0.440883 -0.0207574 -1.17349 0.343916 -0.0333872 -1.18652 0.350677 -0.0426009 -1.17202 
0.17101 -0.044267 -1.19498 0.394507 -0.0448094 -1.17903 0.379767 -0.0227257 -1.17745 
0.213084 -0.0339241 -1.18548 0.393777 -0.0130467 -1.1781 0.367176 -0.0417999 -1.18141 
0.406331 -0.027765 -1.16951 0.252231 -0.0348913 -1.13957 0.222204 -0.0448458 -1.18483 
0.0778448 -0.00596925 -1.17792 0.281976 -0.0296842 -1.19444 0.277044 -0.0365179 -0.321484 
0.271224 -0.0361963 -1.18527 0.286142 -0.0221728 -1.16939 0.420863 -0.0397086 -1.18195 
0.23671 -0.0331581 -1.18791 0.400422 -0.0256016 -1.17803 0.355812 -0.0171473 -0.474767 
0.271712 -0.0338053 -1.19492 0.396792 -0.0231446 -1.13524 0.224741 -0.0350474 -1.18429 
0.298397 -0.0407798 -1.1848 0.322419 -0.0300191 -1.18381 0.0833364 -0.0063835 -1.18626 
0.387394 -0.00507634 -1.1743 0.35903 -0.0360549 -0.830505 0.373461 -0.0336613 -1.17212 
0.459468 -0.0273063 -1.18601 0.0651039 -0.0250106 -1.17944 0.358925 -0.0249083 -1.18452 
0.319428 -0.0109916 -1.17956 0.38433 -0.00621998 -1.18614 0.195918 -0.0439499 -1.15065 
0.0968298 -0.0203249 -1.18661 0.131318 -0.0182271 -1.19499 0.477162 -0.0190945 -1.16594 
0.315997 -0.0249858 -1.19498 0.467361 -0.0315866 -1.1656 0.111797 -0.0445166 -1.19462 
0.455384 -0.0260875 -1.17169 0.217014 -0.025044 -1.19308 0.341957 -0.0379366 -1.12484 
0.121621 -0.0165315 -1.19459 0.375547 -0.029351 -1.18608 0.368039 -0.0391365 -1.15993 
0.256582 -0.0136775 -1.19105 0.393024 -0.037609 -1.18803 
VERTICES 500 1000
1 0 
1 1 
1 2 
1 3 
1 4 
1 5 
1 6 
1 7 
1 8 
1 9 
1 10 
1 11 
1 12 
1 13 
1 14 
1 15 
1 16 
1 17 
1 18 
1 19 
1 20 
1 21 
1 22 
1 23 
1 24 
1 25 
1 26 
1 27 
1 28 
1 29 
1 30 
1 31 
1 32 
1 33 
1 34 
1 35 
1 36 
1 37 
1 38 
1 39 
1 40 
1 41 
1 42 
1 43 
1 44 
1 45 
1 46 
1 47 
1 48 
1 49 
1 50 
1 51 
1 52 
1 53 
1 54 
1 55 
1 56 
1 57 
1 58 
1 59 
1 60 
1 61 
1 62 
1 63 
1 64 
1 65 
1 66 
1 67 
1 68 
1 69 
1 70 
1 71 
1 72 
1 73 
1 74 
1 75 
1 76 
1 77 
1 78 
1 79 
1 80 
1 81 
1 82 
1 83 
1 84 
1 85 
1 86 
1 87 
1 88 
1 89 
1 90 
1 91 
1 92 
1 93 
1 94 
1 95 
1 96 
1 97 
1 98 
1 99 
1 100 
1 101 
1 102 
1 103 
1 104 
1 105 
1 106 
1 107 
1 108 
1 109 
1 110 
1 111 
1 112 
1 113 
1 114 
1 115 
1 116 
1 117 
1 118 
1 119 
1 120 
1 121 
1 122 
1 123 
1 124 
1 125 
1 126 
1 127 
1 128 
1 129 
1 130 
1 131 
1 132 
1 133 
1 134 
1 135 
1 136 
1 137 
1 138 
1 139 
1 140 
1 141 
1 142 
1 143 
1 144 
1 145 
1 146 
1 147 
1 148 
1 149 
1 150 
1 151 
1 152 
1 153 
1 154 
1 155 
1 156 
1 157 
1 158 
1 159 
1 160 
1 161 
1 162 
1 163 
1 164 
1 165 
1 166 
1 167 
1 168 
1 169 
1 170 
1 171 
1 172 
1 173 
1 174 
1 175 
1 176 
1 177 
1 178 
1 179 
1 180 
1 181 
1 182 
1 183 
1 184 
1 185 
1 186 
1 187 
1 188 
1 189 
1 190 
1 191 
1 192 
1 193 
1 194 
1 195 
1 196 
1 197 
1 198 
1 199 
1 200 
1 201 
1 202 
1 203 
1 204 
1 205 
1 206 
1 207 
1 208 
1 209 
1 210 
1 211 
1 212 
1 213 
1 214 
1 215 
1 216 
1 217 
1 218 
1 219 
1 220 
1 221 
1 222 
1 223 
1 224 
1 225 
1 226 
1 227 
1 228 
1 229 
1 230 
1 231 
1 232 
1 233 
1 234 
1 235 
1 236 
1 237 
1 238 
1 239 
1 240 
1 241 
1 242 
1 243 
1 244 
1 245 
1 246 
1 247 
1 248 
1 249 
1 250 
1 251 
1 252 
1 253 
1 254 
1 255 
1 256 
1 257 
1 258 
1 259 
1 260 
1 261 
1 262 
1 263 
1 264 
1 265 
1 266 
1 267 
1 268 
1 269 
1 270 
1 271 
1 272 
1 273 
1 274 
1 275 
1 276 
1 277 
1 278 
1 279 
1 280 
1 281 
1 282 
1 283 
1 284 
1 285 
1 286 
1 287 
1 288 
1 289 
1 290 
1 291 
1 292 
1 293 
1 294 
1 295 
1 296 
1 297 
1 298 
1 299 
1 300 
1 301 
1 302 
1 303 
1 304 
1 305 
1 306 
1 307 
1 308 
1 309 
1 310 
1 311 
1 312 
1 313 
1 314 
1 315 
1 316 
1 317 
1 318 
1 319 
1 320 
1 321 
1 322 
1 323 
1 324 
1 325 
1 326 
1 327 
1 328 
1 329 
1 330 
1 331 
1 332 
1 333 
1 334 
1 335 
1 336 
1 337 
1 338 
1 339 
1 340 
1 341 
1 342 
1 343 
1 344 
1 345 
1 346 
1 347 
1 348 
1 349 
1 350 
1 351 
1 352 
1 353 
1 354 
1 355 
1 356 
1 357 
1 358 
1 359 
1 360 
1 361 
1 362 
1 363 
1 364 
1 365 
1 366 
1 367 
1 368 
1 369 
1 370 
1 371 
1 372 
1 373 
1 374 
1 375 
1 376 
1 377 
1 378 
1 379 
1 380 
1 381 
1 382 
1 383 
1 384 
1 385 
1 386 
1 387 
1 388 
1 389 
1 390 
1 391 
1 392 
1 393 
1 394 
1 395 
1 396 
1 397 
1 398 
1 399 
1 400 
1 401 
1 402 
1 403 
1 404 
1 405 
1 406 
1 407 
1 408 
1 409 
1 410 
1 411 
1 412 
1 413 
1 414 
1 415 
1 416 
1 417 
1 418 
1 419 
1 420 
1 421 
1 422 
1 423 
1 424 
1 425 
1 426 
1 427 
1 428 
1 429 
1 430 
1 431 
1 432 
1 433 
1 434 
1 435 
1 436 
1 437 
1 438 
1 439 
1 440 
1 441 
1 442 
1 443 
1 444 
1 445 
1 446 
1 447 
1 448 
1 449 
1 450 
1 451 
1 452 
1 453 
1 454 
1 455 
1 456 
1 457 
1 458 
1 459 
1 460 
1 461 
1 462 
1 463 
1 464 
1 465 
1 466 
1 467 
1 468 
1 469 
1 470 
1 471 
1 472 
1 473 
1 474 
1 475 
1 476 
1 477 
1 478 
1 479 
1 480 
1 481 
1 482 
1 483 
1 484 
1 485 
1 486 
1 487 
1 488 
1 489 
1 490 
1 491 
1 492 
1 493 
1 494 
1 495 
1 496 
1 497 
1 498 
1 499 

POINT_DATA 500
FIELD FieldData 7
id 1 500 int
1 2 3 4 5 6 7 8 9 
10 11 12 13 14 15 16 17 18 
19 20 21 22 23 24 25 26 27 
28 29 30 31 32 33 34 35 36 
37 38 39 40 41 42 43 44 45 
46 47 48 49 50 51 52 53 54 
55 56 57 58 59 60 61 62 63 
64 65 66 67 68 69 70 71 72 
73 74 75 76 77 78 79 80 81 
82 83 84 85 86 87 88 89 90 
91 92 93 94 95 96 97 98 99 
100 101 102 103 104 105 106 107 108 
109 110 111 112 113 114 115 116 117 
118 119 120 121 122 123 124 125 126 
127 128 129 130 131 132 133 134 135 
136 137 138 139 140 141 142 143 144 
145 146 147 148 149 150 151 152 153 
154 155 156 157 158 159 160 161 162 
163 164 165 166 167 168 169 170 171 
172 173 174 175 176 177 178 179 180 
181 182 183 184 185 186 187 188 189 
190 191 192 193 194 195 196 197 198 
199 200 201 202 203 204 205 206 207 
208 209 210 211 212 213 214 215 216 
217 218 219 220 221 222 223 224 225 
226 227 228 229 230 231 232 233 234 
235 236 237 238 239 240 241 242 243 
244 245 246 247 248 249 250 251 252 
253 254 255 256 257 258 259 260 261 
262 263 264 265 266 267 268 269 270 
271 272 273 274 275 276 277 278 279 
280 281 282 283 284 285 286 287 288 
289 290 291 292 293 294 295 296 297 
298 299 300 301 302 303 304 305 306 
307 308 309 310 311 312 313 314 315 
316 317 318 319 320 321 322 323 324 
325 326 327 328 329 330 331 332 333 
334 335 336 337 338 339 340 341 342 
343 344 345 346 347 348 349 350 351 
352 353 354 355 356 357 358 359 360 
361 362 363 364 365 366 367 368 369 
370 371 372 373 374 375 376 377 378 
379 380 381 382 383 384 385 386 387 
388 389 390 391 392 393 394 395 396 
397 398 399 400 401 402 403 404 405 
406 407 408 409 410 411 412 413 414 
415 416 417 418 419 420 421 422 423 
424 425 426 427 428 429 430 431 432 
433 434 435 436 437 438 439 440 441 
442 443 444 445 446 447 448 449 450 
451 452 453 454 455 456 457 458 459 
460 461 462 463 464 465 466 467 468 
469 470 471 472 473 474 475 476 477 
478 479 480 481 482 483 484 485 486 
487 488 489 490 491 492 493 494 495 
496 497 498 499 500 
type 1 500 int
1 1 1 1 1 1 1 1 1 
1 1 1 1 1 1 1 1 1 
1 1 1 1 1 1 1 1 1 
1 1 1 1 1 1 1 1 1 
1 1 1 1 1 1 1 1 1 
1 1 1 1 1 1 1 1 1 
1 1 1 1 1 1 1 1 1 
1 1 1 1 1 1 1 1 1 
1 1 1 1 1 1 1 1 1 
1 1 1 1 1 1 1 1 1 
1 1 1 1 1 1 1 1 1 
1 1 1 1 1 1 1 1 1 
1 1 1 1 1 1 1 1 1 
1 1 1 1 1 1 1 1 1 
1 1 1 1 1 1 1 1 1 
1 1 1 1 1 1 1 1 1 
1 1 1 1 1 1 1 1 1 
1 1 1 1 1 1 1 1 1 
1 1 1 1 1 1 1 1 1 
1 1 1 1 1 1 1 1 1 
1 1 1 1 1 1 1 1 1 
1 1 1 1 1 1 1 1 1 
1 1 1 1 1 1 1 1 1 
1 1 1 1 1 1 1 1 1 
1 1 1 1 1 1 1 1 1 
1 1 1 1 1 1 1 1 1 
1 1 1 1 1 1 1 1 1 
1 1 1 1 1 1 1 1 1 
1 1 1 1 1 1 1 1 1 
1 1 1 1 1 1 1 1 1 
1 1 1 1 1 1 1 1 1 
1 1 1 1 1 1 1 1 1 
1 1 1 1 1 1 1 1 1 
1 1 1 1 1 1 1 1 1 
1 1 1 1 1 1 1 1 1 
1 1 1 1 1 1 1 1 1 
1 1 1 1 1 1 1 1 1 
1 1 1 1 1 1 1 1 1 
1 1 1 1 1 1 1 1 1 
1 1 1 1 1 1 1 1 1 
1 1 1 1 1 1 1 1 1 
1 1 1 1 1 1 1 1 1 
1 1 1 1 1 1 1 1 1 
1 1 1 1 1 1 1 1 1 
1 1 1 1 1 1 1 1 1 
1 1 1 1 1 1 1 1 1 
1 1 1 1 1 1 1 1 1 
1 1 1 1 1 1 1 1 1 
1 1 1 1 1 1 1 1 1 
1 1 1 1 1 1 1 1 1 
1 1 1 1 1 1 1 1 1 
1 1 1 1 1 1 1 1 1 
1 1 1 1 1 1 1 1 1 
1 1 1 1 1 1 1 1 1 
1 1 1 1 1 1 1 1 1 
1 1 1 1 1 
i 3 500 int
0 0 0 0 0 0 0 0 0 
0 0 0 0 0 0 0 0 0 
0 0 0 0 0 0 0 0 0 
0 0 0 0 0 0 0 0 0 
0 0 0 0 0 0 0 0 0 
0 0 0 0 0 0 0 0 0 
0 0 0 0 0 0 0 0 0 
0 0 0 0 0 0 0 0 0 
0 0 0 0 0 0 0 0 0 
0 0 0 0 0 0 0 0 0 
0 0 0 0 0 0 0 0 0 
0 0 0 0 0 0 0 0 0 
0 0 0 0 0 0 0 0 0 
0 0 0 0 0 0 0 0 0 
0 0 0 0 0 0 0 0 0 
0 0 0 0 0 0 0 0 0 
0 0 0 0 0 0 0 0 0 
0 0 0 0 0 0 0 0 0 
0 0 0 0 0 0 0 0 0 
0 0 0 0 0 0 0 0 0 
0 0 0 0 0 0 0 0 0 
0 0 0 0 0 0 0 0 0 
0 0 0 0 0 0 0 0 0 
0 0 0 0 0 0 0 0 0 
0 0 0 0 0 0 0 0 0 
0 0 0 0 0 0 0 0 0 
0 0 0 0 0 0 0 0 0 
0 0 0 0 0 0 0 0 0 
0 0 0 0 0 0 0 0 0 
0 0 0 0 0 0 0 0 0 
0 0 0 0 0 0 0 0 0 
0 0 0 0 0 0 0 0 0 
0 0 0 0 0 0 0 0 0 
0 0 0 0 0 0 0 0 0 
0 0 0 0 0 0 0 0 0 
0 0 0 0 0 0 0 0 0 
0 0 0 0 0 0 0 0 0 
0 0 0 0 0 0 0 0 0 
0 0 0 0 0 0 0 0 0 
0 0 0 0 0 0 0 0 0 
0 0 0 0 0 0 0 0 0 
0 0 0 0 0 0 0 0 0 
0 0 0 0 0 0 0 0 0 
0 0 0 0 0 0 0 0 0 
0 0 0 0 0 0 0 0 0 
0 0 0 0 0 0 0 0 0 
0 0 0 0 0 0 0 0 0 
0 0 0 0 0 0 0 0 0 
0 0 0 0 0 0 0 0 0 
0 0 0 0 0 0 0 0 0 
0 0 0 0 0 0 0 0 0 
0 0 0 0 0 0 0 0 0 
0 0 0 0 0 0 0 0 0 
0 0 0 0 0 0 0 0 0 
0 0 0 0 0 0 0 0 0 
0 0 0 0 0 0 0 0 0 
0 0 0 0 0 0 0 0 0 
0 0 0 0 0 0 0 0 0 
0 0 0 0 0 0 0 0 0 
0 0 0 0 0 0 0 0 0 
0 0 0 0 0 0 0 0 0 
0 0 0 0 0 0 0 0 0 
0 0 0 0 0 0 0 0 0 
0 0 0 0 0 0 0 0 0 
0 0 0 0 0 0 0 0 0 
0 0 0 0 0 0 0 0 0 
0 0 0 0 0 0 0 0 0 
0 0 0 0 0 0 0 0 0 
0 0 0 0 0 0 0 0 0 
0 0 0 0 0 0 0 0 0 
0 0 0 0 0 0 0 0 0 
0 0 0 0 0 0 0 0 0 
0 0 0 0 0 0 0 0 0 
0 0 0 0 0 0 0 0 0 
0 0 0 0 0 0 0 0 0 
0 0 0 0 0 0 0 0 0 
0 0 0 0 0 0 0 0 0 
0 0 0 0 0 0 0 0 0 
0 0 0 0 0 0 0 0 0 
0 0 0 0 0 0 0 0 0 
0 0 0 0 0 0 0 0 0 
0 0 0 0 0 0 0 0 0 
0 0 0 0 0 0 0 0 0 
0 0 0 0 0 0 0 0 0 
0 0 0 0 0 0 0 0 0 
0 0 0 0 0 0 0 0 0 
0 0 0 0 0 0 0 0 0 
0 0 0 0 0 0 0 0 0 
0 0 0 0 0 0 0 0 0 
0 0 0 0 0 0 0 0 0 
0 0 0 0 0 0 0 0 0 
0 0 0 0 0 0 0 0 0 
0 0 0 0 0 0 0 0 0 
0 0 0 0 0 0 0 0 0 
0 0 0 0 0 0 0 0 0 
0 0 0 0 0 0 0 0 0 
0 0 0 0 0 0 0 0 0 
0 0 0 0 0 0 0 0 0 
0 0 0 0 0 0 0 0 0 
0 0 0 0 0 0 0 0 0 
0 0 0 0 0 0 0 0 0 
0 0 0 0 0 0 0 0 0 
0 0 0 0 0 0 0 0 0 
0 0 0 0 0 0 0 0 0 
0 0 0 0 0 0 0 0 0 
0 0 0 0 0 0 0 0 0 
0 0 0 0 0 0 0 0 0 
0 0 0 0 0 0 0 0 0 
0 0 0 0 0 0 0 0 0 
0 0 0 0 0 0 0 0 0 
0 0 0 0 0 0 0 0 0 
0 0 0 0 0 0 0 0 0 
0 0 0 0 0 0 0 0 0 
0 0 0 0 0 0 0 0 0 
0 0 0 0 0 0 0 0 0 
0 0 0 0 0 0 0 0 0 
0 0 0 0 0 0 0 0 0 
0 0 0 0 0 0 0 0 0 
0 0 0 0 0 0 0 0 0 
0 0 0 0 0 0 0 0 0 
0 0 0 0 0 0 0 0 0 
0 0 0 0 0 0 0 0 0 
0 0 0 0 0 0 0 0 0 
0 0 0 0 0 0 0 0 0 
0 0 0 0 0 0 0 0 0 
0 0 0 0 0 0 0 0 0 
0 0 0 0 0 0 0 0 0 
0 0 0 0 0 0 0 0 0 
0 0 0 0 0 0 0 0 0 
0 0 0 0 0 0 0 0 0 
0 0 0 0 0 0 0 0 0 
0 0 0 0 0 0 0 0 0 
0 0 0 0 0 0 0 0 0 
0 0 0 0 0 0 0 0 0 
0 0 0 0 0 0 0 0 0 
0 0 0 0 0 0 0 0 0 
0 0 0 0 0 0 0 0 0 
0 0 0 0 0 0 0 0 0 
0 0 0 0 0 0 0 0 0 
0 0 0 0 0 0 0 0 0 
0 0 0 0 0 0 0 0 0 
0 0 0 0 0 0 0 0 0 
0 0 0 0 0 0 0 0 0 
0 0 0 0 0 0 0 0 0 
0 0 0 0 0 0 0 0 0 
0 0 0 0 0 0 0 0 0 
0 0 0 0 0 0 0 0 0 
0 0 0 0 0 0 0 0 0 
0 0 0 0 0 0 0 0 0 
0 0 0 0 0 0 0 0 0 
0 0 0 0 0 0 0 0 0 
0 0 0 0 0 0 0 0 0 
0 0 0 0 0 0 0 0 0 
0 0 0 0 0 0 0 0 0 
0 0 0 0 0 0 0 0 0 
0 0 0 0 0 0 0 0 0 
0 0 0 0 0 0 0 0 0 
0 0 0 0 0 0 0 0 0 
0 0 0 0 0 0 0 0 0 
0 0 0 0 0 0 0 0 0 
0 0 0 0 0 0 0 0 0 
0 0 0 0 0 0 0 0 0 
0 0 0 0 0 0 0 0 0 
0 0 0 0 0 0 0 0 0 
0 0 0 0 0 0 0 0 0 
0 0 0 0 0 0 0 0 0 
0 0 0 0 0 0 
v 3 500 double
-0.107068 0.0129662 -0.010251 -0.219704 -0.214741 -0.0497808 0.00115774 0.00547376 0.00177839 
0.0674601 0.000958441 -0.0362291 0.0870421 0.0167702 -0.0419854 -0.0321131 -0.040852 0.021404 
0.0495935 -0.0254721 -0.0319269 0.116776 0.169952 -0.532634 0.0317001 -0.0774204 0.0368156 
-0.0250353 0.0232091 -0.0346134 -0.139345 0.00470608 0.0120014 -0.0515568 0.018313 -0.0315921 
-0.0402321 0.0370587 -0.278438 0.0181304 -0.0557817 -0.031202 0.0733488 0.0437378 -0.0467707 
-0.155572 -0.0276026 0.00234168 0.0484147 0.00153342 -0.036462 -0.00465745 -0.0278258 -0.083517 
0.0525914 -0.000816467 0.000600729 -0.0655622 0.0210007 -0.045963 -0.00453114 0.0144019 0.0069524 
-0.529443 -0.124669 0.0476811 0.0136768 -0.0502876 0.000607286 0.103975 -0.0210618 -0.0314612 
-0.227124 -0.179399 -0.646087 -0.137978 -0.0764249 0.0188395 -0.0270351 -0.00530466 -0.0450416 
-0.141589 -0.0352398 0.00974018 -0.155813 -0.0823472 -0.0306464 -0.159856 0.101029 -0.080807 
0.00279015 -0.0267966 -0.0105284 -0.105338 0.00713562 -0.082285 -0.132967 -0.0155454 0.0382055 
-0.0121309 0.0311216 -0.0126751 -0.595201 -0.357462 0.293826 0.0889786 -0.0626096 -0.0425686 
-0.0750765 -0.0131233 0.0173735 -0.00163249 0.00189727 0.00433872 0.0388661 0.0591135 -0.0475418 
-0.0150738 0.0148002 -0.0082917 0.0183498 -0.0234269 3.68822e-07 -0.684351 0.119084 0.0346763 
0.0980446 -0.033494 -0.0691559 -0.172289 -0.0519625 -0.0783729 -0.115666 0.192715 0.0464331 
-0.0404707 0.10119 0.0110056 0.00179312 0.00754441 0.00787119 -0.0047918 -0.00334721 0.00272197 
-0.017425 -0.00333996 -0.0372351 -0.163136 -0.0190809 -0.0222189 -0.108327 0.030195 0.00288486 
-0.056494 -0.0557693 0.00105591 -0.00721689 0.000785828 0.0137089 0.060005 -0.00513292 -0.0264298 
0.00667337 -0.0171283 -0.0051484 -0.0314262 -0.00463247 -0.1248 0.0465551 0.0671725 0.00379562 
0.025453 -0.0292517 -0.0141274 0.00281296 -0.0143811 0.00920434 0.0314157 -0.0465835 -0.0852741 
-0.0130723 -0.0146335 -0.000245204 -0.110645 -0.0291481 0.0090582 0.00799334 -0.0282841 -0.127754 
0.0606227 0.0500947 -0.0837048 0.185928 -0.0257785 0.0100057 -0.123625 0.085754 0.00144598 
-0.137187 -0.00227929 -0.191147 -0.313265 -0.603114 -0.238277 -0.011601 -0.0135741 0.00798778 
0.00650214 -0.0120468 -0.00680347 -0.0225824 -0.0398251 -0.00680512 -0.0677867 0.0386464 -0.12604 
-0.00391915 -0.0664319 -0.0716435 0.0124083 -0.0133103 0.00248225 0.0960542 -0.00444043 -0.0148343 
0.0561544 0.049549 -0.05759 -0.002063 -0.0042266 0.00931977 -0.42859 0.0246671 -0.203101 
-0.174056 0.0455663 0.0144078 0.0158563 -0.0214337 -0.0981663 0.164816 0.0675116 -0.0755801 
-0.00129758 -0.0471025 -0.0309972 -0.0995589 -0.0806321 -0.23689 0.0177747 0.00880535 -0.00226545 
0.0524946 -0.0185243 -2.49126 0.0186184 -0.0259832 0.0275265 0.0230567 0.0183019 -0.0678049 
-0.164906 0.0534588 -0.0209804 -0.127084 0.036148 -0.0180675 0.0025422 -0.00358455 0.00277292 
0.0778594 -0.0315033 0.0001658 -0.167011 -0.00538412 0.0526839 0.183993 -0.0524007 -0.520634 
0.00266965 0.00546777 0.0038463 -0.000619204 0.000963959 0.00260358 -0.00364305 -0.00440689 -0.00935955 
-0.314782 0.184239 0.383424 0.052334 0.148486 -0.00550046 -0.422131 -0.217946 0.238608 
0.072867 0.0126813 -0.00567071 0.0369464 0.0231123 0.013636 0.00177683 -7.59303e-05 3.20345e-06 
0.0307569 -0.0503728 -0.0224426 -0.0717893 0.0398246 -0.0171991 -0.259131 -0.0239663 0.00505887 
-0.234338 -0.0769969 0.0485293 0.0110231 -0.0797397 -0.0498387 -0.61388 -0.262956 0.164376 
0.0953685 0.0431965 -0.0369008 0.105438 0.0890194 -0.0803103 -0.544884 0.137805 -0.142101 
0.0681541 0.0099685 0.0277972 0.0265112 -0.010093 0.00490164 -0.109558 -0.000753693 -0.00104687 
0.0571218 0.232366 0.0152857 0.0369604 0.0250438 -0.0122671 0.0395309 0.0464237 -4.02987 
-0.0594096 -0.00862898 0.0072174 -0.0323471 0.0133113 0.0234728 0.0463266 -0.0216352 0.00540001 
-0.0635626 0.0881831 0.170019 -0.165079 -0.0355788 -0.275759 -0.036847 0.000996502 0.00887302 
0.0500564 -0.0594596 0.00322066 0.0111567 0.0107585 0.0247947 0.00781567 0.0111783 0.00755134 
-0.00255881 -0.00132163 2.94392e-08 -0.106405 0.0344904 -0.0520902 0.0708185 0.00330946 -0.0100478 
0.00609767 0.026854 -0.0253551 0.00161144 -0.0084321 -0.00964458 0.018324 -0.0399736 0.0083318 
-0.0047057 0.00228083 -0.0458031 0.0299647 -0.00862861 -0.0187953 0.0349204 0.0276724 -0.00245929 
-0.0705064 0.0499858 -0.00797039 -0.093827 -0.10935 -0.0988625 -0.372663 0.188579 -0.0203732 
-0.118533 0.0128783 -0.102723 -0.54702 0.0300643 -0.0101622 -0.139905 0.089031 0.0175888 
-0.0760399 0.0364586 -0.0418127 0.0131973 0.00700004 -0.00770163 -0.159431 0.0644417 0.0598327 
-0.0709813 0.0178451 -0.0657051 -0.156579 0.0263819 2.72609e-06 0.0214696 -0.017274 -0.0220142 
0.0180902 0.0425054 0.0169125 -0.0185576 0.0351873 -0.00933584 -0.743816 -0.0684685 -0.0454665 
0.0889876 -9.12816e-05 0.0335058 -0.148671 -0.0465441 0.00390824 0.00223795 0.00342708 0.00478209 
0.0743633 0.137161 0.00214756 -0.245877 0.572989 0.0131141 -0.0418719 0.0168738 0.0201766 
0.0569649 0.00138032 -0.00563886 -0.0168287 -0.0581269 -0.236756 0.0051374 -0.000429067 0.00228186 
-0.0466218 0.0432157 -0.007204 -0.00476963 0.00185493 0.00208207 -0.448331 -0.035836 0.0163462 
0.0460952 -0.00417781 -0.0628425 -0.00463732 -0.0172534 -0.0339245 0.0567161 0.0112132 -0.0186402 
-0.0607255 -0.000268076 0.0184997 0.0730756 0.303559 -0.380774 -0.0804454 0.0119695 0.0246286 
-0.0244446 -0.00223778 0.000255399 0.0727163 0.165853 -0.140076 -0.124518 -0.0451375 -0.00148365 