# vtk DataFile Version 4.0
Generated by LIGGGHTS
ASCII
DATASET POLYDATA
POINTS 500 float
0.466314 -0.0416103 -1.1683 0.479861 -0.0314139 -1.15946 0.0562095 -0.0249243 -1.19461 
0.185754 -0.0450256 -1.19466 0.102625 -0.0396833 -0.725898 0.140903 -0.0139159 -1.19095 
0.00987615 -0.0434983 -0.980634 0.0821578 -0.0216422 -0.685098 0.207153 -0.0341419 -0.687561 
0.482439 -0.00488801 -1.16463 0.425128 -0.00551315 -0.728027 0.47856 -0.0154878 -1.18566 
0.0659007 -0.0449314 -1.13188 0.429684 -0.0126196 -1.17569 0.0372449 -0.011407 -0.713668 
0.449468 -0.024283 -1.1852 0.174726 -0.0438678 -1.16973 0.494846 -0.0439478 -1.17701 
0.105404 -0.0447896 -1.18119 0.485877 -0.0146761 -1.17763 0.0677518 -0.0293317 -1.15746 
0.448088 -0.00684255 -1.14031 0.494937 -0.0447677 -1.19499 0.130986 -0.0335276 -1.08697 
0.340392 -0.0233085 -0.567591 0.442331 -0.0425131 -1.17259 0.495039 -0.0281588 -1.18617 
0.474875 -0.0450179 -1.19503 0.494798 -0.00934291 -1.14861 0.345043 -0.0333511 -1.18612 
0.190089 -0.0157745 -1.19261 0.475855 -0.0450861 -1.16973 0.463289 -0.0237559 -1.1591 
0.489734 -0.0235916 -1.16894 0.324887 -0.0342228 -0.406075 0.192694 -0.0424679 -1.17451 
0.453477 -0.005022 -1.19499 0.0893881 -0.0230089 -1.19376 0.234921 -0.0212664 -1.17605 
0.495111 -0.00489247 -1.18503 0.21528 -0.0161083 -0.245002 0.337914 -0.041809 -0.826636 
0.12644 -0.0361109 -0.765116 0.463099 -0.0309652 -1.1711 0.200221 -0.0189983 -0.716793 
0.484712 -0.035173 -1.195 0.0989428 -0.0164953 -1.01435 0.0297568 -0.0291031 -1.18215 
0.487385 -0.0449757 -1.18362 0.473383 -0.0291959 -1.17615 0.444118 -0.00514308 -1.19128 
0.484914 -0.0450695 -1.19494 0.106745 -0.00565712 -1.18266 0.0110886 -0.0260057 -1.18902 
0.0716971 -0.0208362 -1.16381 0.0950379 -0.0162018 -1.16876 0.321844 -0.0402328 -1.15463 
0.1315 -0.0304212 -0.682578 0.0970205 -0.0195508 -0.972486 0.0263804 -0.0257678 -1.16686 
0.0968337 -0.0312109 -1.19426 0.473262 -0.0349201 -1.19507 0.0147958 -0.0373289 -1.18623 
0.206701 -0.0403044 -1.14261 0.184073 -0.021089 -0.755334 0.467804 -0.0130521 -1.18875 
0.494842 -0.0180878 -1.13168 0.493717 -0.0358232 -1.15813 0.464787 -0.00493962 -1.19435 
0.00825076 -0.037091 -1.16182 0.494717 -0.0335599 -1.19502 0.495025 -0.014123 -1.18141 
0.234237 -0.0337955 -1.18009 0.105164 -0.00899803 -1.19481 0.178737 -0.0326649 -1.19344 
0.294912 -0.0103695 -1.17558 0.178809 -0.0134063 -1.11451 0.493935 -0.00779113 -1.16319 
0.455494 -0.0325879 -1.18012 0.494064 -0.0437602 -1.16501 0.0257346 -0.0384811 -1.06208 
0.118483 -0.0331495 -1.12322 0.476275 -0.0145604 -1.16745 0.0064514 -0.0281264 -1.13425 
0.224036 -0.0349698 -0.245002 0.016375 -0.00996231 -1.06693 0.124508 -0.029649 -1.17041 
0.435466 -0.027429 -1.16299 0.472549 -0.041575 -1.1576 0.0658354 -0.0201568 -1.17903 
0.147212 -0.00740299 -1.14145 0.44189 -0.0277374 -1.13833 0.0334177 -0.00896604 -1.17748 
0.064418 -0.031922 -1.18989 0.0424127 -0.0419761 -1.18143 0.0131784 -0.00873869 -1.17748 
0.374636 -0.00693083 -1.19462 0.31222 -0.00518996 -1.17703 0.346147 -0.0239394 -0.576154 
0.241129 -0.0449472 -1.19282 0.267121 -0.00946463 -1.16241 0.20519 -0.0435337 -0.245002 
0.127857 -0.0203313 -1.13883 0.486411 -0.0134563 -1.16717 0.419165 -0.0236022 -1.19246 
0.376416 -0.0237088 -1.03387 0.00869809 -0.0436361 -1.15427 0.0382289 -0.0240706 -0.75656 
0.353007 -0.0435564 -1.18272 0.214824 -0.044431 -1.19454 0.39295 -0.0161279 -1.18891 
0.28381 -0.0405746 -1.18894 0.494786 -0.00500584 -1.19502 0.449551 -0.0142159 -1.19504 
0.131307 -0.00843102 -0.819549 0.168407 -0.037639 -1.13896 0.248773 -0.0260368 -0.272353 
0.469486 -0.00499729 -1.18305 0.478331 -0.0450453 -1.17932 0.31131 -0.0189506 -1.16532 
0.451935 -0.0397867 -1.15244 0.494856 -0.0248427 -1.16045 0.474706 -0.0050227 -1.19505 
0.478975 -0.00499866 -1.18606 0.484709 -0.00502561 -1.195 0.20478 -0.0150599 -1.17951 
0.204999 -0.0226047 -0.245003 0.485203 -0.0334609 -1.16799 0.495065 -0.0142915 -1.19136 
0.0425214 -0.0373019 -1.16384 0.261247 -0.0123905 -1.17488 0.494993 -0.0235613 -1.19501 
0.234783 -0.0143841 -1.19085 0.0753383 -0.0406616 -1.10072 0.253648 -0.014845 -1.18208 
0.46037 -0.020884 -1.18535 0.0881586 -0.0213272 -1.04019 0.41585 -0.00643802 -1.18333 
0.480919 -0.00519137 -1.17573 0.403017 -0.0435341 -1.19261 0.470679 -0.0223002 -1.18622 
0.485821 -0.0270823 -1.17762 0.485497 -0.015321 -1.19508 0.479969 -0.0237342 -1.16674 
0.485561 -0.0449674 -1.17227 0.453408 -0.0321454 -1.19503 0.0851729 -0.0139232 -1.18837 
0.267068 -0.0347165 -1.18798 0.475272 -0.0150212 -1.19507 0.397872 -0.00855323 -1.19512 
0.282889 -0.00726662 -1.19185 0.464889 -0.0449965 -1.19485 0.0590675 -0.0396244 -1.17989 
0.478224 -0.0206372 -1.17608 0.344228 -0.0107205 -0.447213 0.474979 -0.025009 -1.19499 
0.146942 -0.0295398 -1.18492 0.492365 -0.00554497 -1.17538 0.0584188 -0.0127758 -1.19464 
0.48504 -0.0252537 -1.19501 0.0498581 -0.0368255 -1.19311 0.400573 -0.0203665 -1.194 
0.186374 -0.0331454 -1.15028 0.131572 -0.00880043 -1.19397 0.169895 -0.0363681 -1.18891 
0.472271 -0.0130796 -1.17799 0.158474 -0.039078 -1.18873 0.456901 -0.0308595 -1.15619 
0.120115 -0.0103887 -1.1126 0.040572 -0.0329931 -1.12772 0.429437 -0.0146464 -1.1945 
0.121284 -0.0100121 -1.18751 0.484947 -0.041233 -1.16133 0.494607 -0.0340303 -1.17813 
0.130289 -0.0344927 -1.02143 0.100434 -0.0288598 -1.16385 0.320543 -0.0184797 -1.19496 
0.495054 -0.0233531 -1.17727 0.156642 -0.0189328 -1.12636 0.22644 -0.0387238 -1.19171 
0.426692 -0.0199461 -1.18198 0.494976 -0.0391844 -1.1867 0.487184 -0.0105732 -1.18655 
0.0310208 -0.0288806 -1.19481 0.183181 -0.0443205 -1.14153 0.33758 -0.0317395 -1.19479 
0.0796836 -0.0088392 -1.15405 0.419428 -0.0450257 -1.18461 0.491826 -0.0446471 -1.15099 
0.305387 -0.0284359 -0.989109 0.1068 -0.0361331 -1.19266 0.445974 -0.0450087 -1.1951 
0.444314 -0.0143579 -1.18647 0.039355 -0.00934394 -1.19225 0.385674 -0.0153382 -1.17548 
0.363636 -0.0353746 -1.19422 0.458232 -0.0438302 -1.14538 0.479628 -0.0400605 -1.18783 
0.20502 -0.0124368 -0.244147 0.494995 -0.032147 -1.16836 0.31733 -0.0106068 -1.13916 
0.178052 -0.0323629 -1.14284 0.469989 -0.0449206 -1.18554 0.481283 -0.0359201 -1.17668 
0.464368 -0.0363352 -1.18712 0.341907 -0.00500614 -1.19512 0.488767 -0.0204003 -1.18595 
0.486677 -0.0335023 -1.18525 0.115813 -0.0196963 -1.17637 0.244526 -0.0293881 -1.16877 
0.405141 -0.00543692 -1.18957 0.42388 -0.0355133 -1.18363 0.236146 -0.0437514 -1.18167 
0.329286 -0.0142295 -1.19293 0.465937 -0.0206612 -1.19499 0.358186 -0.0161417 -1.00539 
0.455411 -0.0419336 -1.19409 0.434208 -0.00511225 -1.19489 0.180135 -0.0112738 -1.17774 
0.335064 -0.0387198 -1.18625 0.483987 -0.0288631 -1.11856 0.217831 -0.0446737 -0.244179 
0.470679 -0.0386797 -1.17759 0.356968 -0.00688057 -1.17103 0.312267 -0.0238638 -1.18769 
0.354697 -0.00837712 -1.18105 0.440509 -0.00638489 -1.17987 0.387161 -0.0085731 -1.19363 
0.449343 -0.0363318 -1.18698 0.184722 -0.0184521 -1.16296 0.258051 -0.00840739 -1.18952 
0.199832 -0.0252213 -1.08385 0.0991669 -0.0164275 -1.19046 0.156878 -0.0214236 -1.19323 
0.248296 -0.0323211 -1.1943 0.495091 -0.0146599 -1.17148 0.475117 -0.0353265 -1.16861 
0.218655 -0.0103869 -1.19111 0.111685 -0.0348256 -1.1839 0.358089 -0.043351 -1.19189 
0.204034 -0.00619879 -1.19498 0.382885 -0.0138338 -1.18542 0.457182 -0.0359846 -1.16512 
0.255202 -0.0330389 -1.18738 0.477492 -0.0216403 -1.14047 0.334977 -0.00716936 -1.18354 
0.480161 -0.0253918 -1.18629 0.0933539 -0.0283557 -1.18461 0.304508 -0.0375177 -1.18312 
0.45938 -0.0131808 -1.19511 0.230297 -0.00511667 -0.245008 0.315369 -0.0445445 -1.19492 
0.362395 -0.00647405 -1.19256 0.454386 -0.0129985 -1.18648 0.467606 -0.0217794 -1.1722 
0.453793 -0.0449863 -1.16778 0.48437 -0.0382986 -1.149 0.363361 -0.0245905 -1.19363 
0.445415 -0.0249183 -1.1945 0.218613 -0.0259914 -0.245002 0.347693 -0.0278906 -1.19415 
0.370323 -0.0448758 -1.19577 0.226298 -0.010862 -1.08928 0.310275 -0.0155331 -1.19377 
0.198683 -0.0218254 -1.17341 0.464619 -0.0286521 -1.1808 0.259488 -0.0399486 -0.291049 
0.440913 -0.0316073 -1.18141 0.487234 -0.0179864 -1.15782 0.390768 -0.00649127 -1.18115 
0.459733 -0.0051689 -1.18106 0.372085 -0.0352457 -1.18241 0.318248 -0.00615069 -1.19489 
0.423401 -0.0328147 -1.19313 0.459926 -0.0450476 -1.18545 0.413223 -0.0448986 -1.19501 
0.412361 -0.0153256 -1.19505 0.143088 -0.0383267 -1.10047 0.463548 -0.0303416 -1.19502 
0.420828 -0.013401 -1.18893 0.441603 -0.0438663 -1.18558 0.47221 -0.00508998 -1.1617 
0.357394 -0.0304117 -1.18752 0.254052 -0.0447464 -1.1565 0.342081 -0.0153191 -0.882289 
0.452532 -0.0410514 -1.13714 0.443111 -0.0353045 -1.19496 0.462076 -0.0143923 -1.17785 
0.276071 -0.0333655 -1.15681 0.455374 -0.0223337 -1.19487 0.23138 -0.0268185 -1.18658 
0.342114 -0.0450028 -1.19478 0.473436 -0.0326778 -1.18545 0.244668 -0.00608636 -1.18517 
0.388114 -0.0334479 -1.19411 0.429353 -0.0246237 -1.19511 0.253356 -0.0441372 -1.19495 
0.414284 -0.00556036 -1.19444 0.459185 -0.0127563 -1.15276 0.186912 -0.0323522 -0.990998 
0.298308 -0.0293922 -1.18792 0.210434 -0.0169503 -1.16927 0.437657 -0.0228679 -1.1888 
0.452286 -0.0220064 -1.1609 0.351904 -0.0220184 -1.17589 0.412801 -0.0314615 -1.19273 
0.365456 -0.0108731 -1.17378 0.431517 -0.0288317 -1.18358 0.452628 -0.0284872 -1.17028 
0.434488 -0.0445653 -1.19467 0.471535 -0.00497281 -1.17232 0.265282 -0.0123019 -0.300555 
0.410469 -0.0257842 -1.06032 0.455814 -0.00633388 -1.16911 0.317646 -0.00870816 -1.18489 
0.348998 -0.0158071 -1.19448 0.355777 -0.0329607 -1.15693 0.438666 -0.0185602 -1.17984 
0.459983 -0.0406683 -1.17636 0.335123 -0.0288305 -1.17947 0.429769 -0.00800549 -1.18502 
0.286527 -0.0265844 -1.19487 0.274137 -0.0122497 -1.19332 0.274387 -0.0277528 -1.18319 
0.434634 -0.0266693 -1.17294 0.431958 -0.0193987 -1.11746 0.364409 -0.00927008 -0.517339 
0.326584 -0.0163678 -1.18325 0.439332 -0.0139451 -1.19509 0.409183 -0.0227631 -1.18906 
0.377816 -0.00572455 -0.722435 0.393857 -0.0268708 -1.18675 0.42423 -0.00535376 -1.19501 
0.268571 -0.0217821 -1.15909 0.286172 -0.0234651 -1.17337 0.339241 -0.0422585 -1.09912 
0.494082 -0.0313806 -1.14207 0.387901 -0.044308 -1.19491 0.383002 -0.0245059 -1.19449 
0.359988 -0.0214678 -1.16446 0.301595 -0.014099 -1.18838 0.281117 -0.0175125 -1.18873 
0.45092 -0.0444332 -1.18096 0.433202 -0.0339323 -1.19267 0.327432 -0.0305398 -1.13997 
0.21238 -0.00500235 -0.245002 0.326157 -0.0346272 -1.17876 0.371737 -0.0105317 -0.800016 
0.458171 -0.0172806 -1.16734 0.357556 -0.0172469 -1.08402 0.366683 -0.0270161 -1.1836 
0.358292 -0.0340382 -1.17829 0.277482 -0.0449377 -1.17723 0.406909 -0.0127897 -1.18262 
0.421605 -0.017874 -1.17267 0.379197 -0.00579514 -1.17212 0.238166 -0.0441841 -0.253464 
0.44314 -0.0213489 -1.17089 0.319006 -0.0313723 -1.19107 0.4244 -0.0433643 -1.19362 
0.36889 -0.00684641 -1.18299 0.399842 -0.0333066 -1.19274 0.466475 -0.011774 -1.16715 
0.442039 -0.0121969 -1.12551 0.328987 -0.0189645 -1.17216 0.410077 -0.0212268 -1.17778 
0.413856 -0.030034 -1.18288 0.388878 -0.0440968 -1.07806 0.406594 -0.0297626 -1.17372 
0.445908 -0.0076489 -1.16839 0.397532 -0.0427337 -0.994295 0.390922 -0.0401322 -1.18615 
0.38283 -0.0329264 -1.18547 0.357278 -0.018478 -1.18495 0.433361 -0.0432228 -1.1786 
0.300422 -0.00712999 -1.16228 0.450574 -0.00878357 -1.17783 0.39981 -0.0448424 -1.18268 
0.418389 -0.0347742 -1.17262 0.365076 -0.0111774 -1.16103 0.379657 -0.0159625 -1.16406 
0.382505 -0.0129666 -1.14853 0.400021 -0.0253751 -1.16444 0.421985 -0.044314 -1.16993 
0.329284 -0.0248747 -1.19384 0.324563 -0.0130268 -0.95514 0.410896 -0.0443545 -1.17781 
0.373562 -0.0270905 -1.16943 0.247977 -0.00603566 -0.257071 0.397768 -0.0352142 -1.17782 
0.428964 -0.0191057 -1.15757 0.378384 -0.0376956 -1.19546 0.405493 -0.0364061 -1.16606 
0.366293 -0.0276104 -1.10507 0.452621 -0.0191432 -1.17658 0.422702 -0.00546913 -1.17231 
0.371691 -0.0171952 -1.18654 0.487403 -0.0296958 -1.15372 0.374071 -0.016374 -1.1733 
0.20531 -0.0328785 -0.244914 0.469833 -0.0142028 -1.15764 0.421542 -0.0347611 -1.07218 
0.471479 -0.00828284 -1.14796 0.429491 -0.0281873 -1.05242 0.339812 -0.0416937 -1.17718 
0.44771 -0.0373785 -1.16285 0.31374 -0.03074 -1.16362 0.336903 -0.0208872 -1.18595 
0.367757 -0.0409577 -0.59551 0.308258 -0.0284358 -1.10309 0.330755 -0.0112076 -0.599929 
0.382678 -0.0125758 -1.05938 0.408846 -0.00490104 -1.17156 0.425268 -0.0305472 -1.14442 
0.417688 -0.0391904 -1.16181 0.493717 -0.00503031 -1.10568 0.373205 -0.0436644 -1.18708 
0.433121 -0.0389251 -1.16813 0.290776 -0.0420361 -0.345252 0.375336 -0.0353247 -0.802147 
0.273442 -0.0364311 -1.0659 0.395908 -0.0282063 -0.957535 0.479391 -0.0169059 -1.12923 
0.377184 -0.0250133 -1.18065 0.415354 -0.0438882 -0.967886 0.47633 -0.0329333 -1.15036 
0.326565 -0.0427802 -1.10519 0.397066 -0.028704 -1.03715 0.343678 -0.0275722 -0.425091 
0.367596 -0.0432038 -1.06686 0.401734 -0.042758 -0.907951 0.413354 -0.0208002 -1.10965 
0.406271 -0.0265565 -0.953951 0.462679 -0.00938974 -0.962515 0.381564 -0.0261193 -1.00582 
0.353303 -0.03996 -1.06066 0.245821 -0.0346241 -0.265132 0.239431 -0.0105703 -0.244935 
0.422984 -0.0230712 -1.16464 0.367894 -0.0202854 -0.789627 0.354762 -0.0202996 -0.931174 
0.421369 -0.0409037 -0.960187 0.40987 -0.0325581 -1.02574 0.414771 -0.00668406 -1.09231 
0.400579 -0.0135645 -1.17174 0.270943 -0.00840397 -0.310918 0.365965 -0.0406334 -1.04989 
0.389747 -0.00797405 -0.991969 0.361549 -0.039618 -0.988219 0.352932 -0.0214389 -0.963436 
0.452485 -0.0179109 -1.14377 0.412281 -0.0267102 -1.0407 0.354194 -0.0102712 -0.607571 
0.34909 -0.0322468 -0.998574 0.369646 -0.0204054 -0.55534 0.436022 -0.0106941 -1.16492 
0.381027 -0.0213116 -1.08142 0.38547 -0.0083132 -0.733281 0.392676 -0.0412335 -0.895126 
0.366983 -0.0336255 -0.536649 0.421175 -0.0372811 -1.01322 0.382005 -0.0447236 -0.971944 
0.3017 -0.0310863 -0.929798 0.340502 -0.0242133 -0.871025 0.211005 -0.0275132 -0.238693 
0.351651 -0.0208227 -0.500457 0.350142 -0.0123703 -0.584969 0.368106 -0.0255991 -0.820088 
0.2636 -0.0259776 -0.891971 0.405375 -0.0268064 -0.857419 0.221319 -0.00858245 -0.242237 
0.347139 -0.0127013 -0.842773 0.319833 -0.00699405 -0.393791 0.388105 -0.0400293 -0.959236 
0.384871 -0.0399085 -0.93914 0.418946 -0.0091317 -1.05257 0.344725 -0.0388543 -0.959097 
0.388054 -0.0111572 -0.859392 0.234299 -0.0269296 -0.242708 0.348487 -0.0329839 -0.567523 
0.342257 -0.0386377 -0.45223 0.29895 -0.0331831 -0.85104 0.352854 -0.0308953 -0.552489 
0.349508 -0.0293856 -0.508288 0.383248 -0.017522 -0.851629 0.307123 -0.0369304 -0.722714 
0.331347 -0.0226735 -1.02837 0.304259 -0.0135946 -0.701616 0.353104 -0.013017 -0.489095 
0.389649 -0.0389885 -0.751798 0.295935 -0.0141366 -0.347956 0.330263 -0.0409353 -0.848482 
0.32726 -0.0182909 -0.413802 0.31795 -0.0358346 -0.66872 0.25499 -0.0446411 -0.279822 
0.310182 -0.017092 -0.96132 0.397068 -0.0254413 -0.773752 0.391212 -0.00648927 -0.948963 
0.373023 -0.0251256 -0.923722 0.409274 -0.0332037 -0.915836 
VERTICES 500 1000
1 0 
1 1 
1 2 
1 3 
1 4 
1 5 
1 6 
1 7 
1 8 
1 9 
1 10 
1 11 
1 12 
1 13 
1 14 
1 15 
1 16 
1 17 
1 18 
1 19 
1 20 
1 21 
1 22 
1 23 
1 24 
1 25 
1 26 
1 27 
1 28 
1 29 
1 30 
1 31 
1 32 
1 33 
1 34 
1 35 
1 36 
1 37 
1 38 
1 39 
1 40 
1 41 
1 42 
1 43 
1 44 
1 45 
1 46 
1 47 
1 48 
1 49 
1 50 
1 51 
1 52 
1 53 
1 54 
1 55 
1 56 
1 57 
1 58 
1 59 
1 60 
1 61 
1 62 
1 63 
1 64 
1 65 
1 66 
1 67 
1 68 
1 69 
1 70 
1 71 
1 72 
1 73 
1 74 
1 75 
1 76 
1 77 
1 78 
1 79 
1 80 
1 81 
1 82 
1 83 
1 84 
1 85 
1 86 
1 87 
1 88 
1 89 
1 90 
1 91 
1 92 
1 93 
1 94 
1 95 
1 96 
1 97 
1 98 
1 99 
1 100 
1 101 
1 102 
1 103 
1 104 
1 105 
1 106 
1 107 
1 108 
1 109 
1 110 
1 111 
1 112 
1 113 
1 114 
1 115 
1 116 
1 117 
1 118 
1 119 
1 120 
1 121 
1 122 
1 123 
1 124 
1 125 
1 126 
1 127 
1 128 
1 129 
1 130 
1 131 
1 132 
1 133 
1 134 
1 135 
1 136 
1 137 
1 138 
1 139 
1 140 
1 141 
1 142 
1 143 
1 144 
1 145 
1 146 
1 147 
1 148 
1 149 
1 150 
1 151 
1 152 
1 153 
1 154 
1 155 
1 156 
1 157 
1 158 
1 159 
1 160 
1 161 
1 162 
1 163 
1 164 
1 165 
1 166 
1 167 
1 168 
1 169 
1 170 
1 171 
1 172 
1 173 
1 174 
1 175 
1 176 
1 177 
1 178 
1 179 
1 180 
1 181 
1 182 
1 183 
1 184 
1 185 
1 186 
1 187 
1 188 
1 189 
1 190 
1 191 
1 192 
1 193 
1 194 
1 195 
1 196 
1 197 
1 198 
1 199 
1 200 
1 201 
1 202 
1 203 
1 204 
1 205 
1 206 
1 207 
1 208 
1 209 
1 210 
1 211 
1 212 
1 213 
1 214 
1 215 
1 216 
1 217 
1 218 
1 219 
1 220 
1 221 
1 222 
1 223 
1 224 
1 225 
1 226 
1 227 
1 228 
1 229 
1 230 
1 231 
1 232 
1 233 
1 234 
1 235 
1 236 
1 237 
1 238 
1 239 
1 240 
1 241 
1 242 
1 243 
1 244 
1 245 
1 246 
1 247 
1 248 
1 249 
1 250 
1 251 
1 252 
1 253 
1 254 
1 255 
1 256 
1 257 
1 258 
1 259 
1 260 
1 261 
1 262 
1 263 
1 264 
1 265 
1 266 
1 267 
1 268 
1 269 
1 270 
1 271 
1 272 
1 273 
1 274 
1 275 
1 276 
1 277 
1 278 
1 279 
1 280 
1 281 
1 282 
1 283 
1 284 
1 285 
1 286 
1 287 
1 288 
1 289 
1 290 
1 291 
1 292 
1 293 
1 294 
1 295 
1 296 
1 297 
1 298 
1 299 
1 300 
1 301 
1 302 
1 303 
1 304 
1 305 
1 306 
1 307 
1 308 
1 309 
1 310 
1 311 
1 312 
1 313 
1 314 
1 315 
1 316 
1 317 
1 318 
1 319 
1 320 
1 321 
1 322 
1 323 
1 324 
1 325 
1 326 
1 327 
1 328 
1 329 
1 330 
1 331 
1 332 
1 333 
1 334 
1 335 
1 336 
1 337 
1 338 
1 339 
1 340 
1 341 
1 342 
1 343 
1 344 
1 345 
1 346 
1 347 
1 348 
1 349 
1 350 
1 351 
1 352 
1 353 
1 354 
1 355 
1 356 
1 357 
1 358 
1 359 
1 360 
1 361 
1 362 
1 363 
1 364 
1 365 
1 366 
1 367 
1 368 
1 369 
1 370 
1 371 
1 372 
1 373 
1 374 
1 375 
1 376 
1 377 
1 378 
1 379 
1 380 
1 381 
1 382 
1 383 
1 384 
1 385 
1 386 
1 387 
1 388 
1 389 
1 390 
1 391 
1 392 
1 393 
1 394 
1 395 
1 396 
1 397 
1 398 
1 399 
1 400 
1 401 
1 402 
1 403 
1 404 
1 405 
1 406 
1 407 
1 408 
1 409 
1 410 
1 411 
1 412 
1 413 
1 414 
1 415 
1 416 
1 417 
1 418 
1 419 
1 420 
1 421 
1 422 
1 423 
1 424 
1 425 
1 426 
1 427 
1 428 
1 429 
1 430 
1 431 
1 432 
1 433 
1 434 
1 435 
1 436 
1 437 
1 438 
1 439 
1 440 
1 441 
1 442 
1 443 
1 444 
1 445 
1 446 
1 447 
1 448 
1 449 
1 450 
1 451 
1 452 
1 453 
1 454 
1 455 
1 456 
1 457 
1 458 
1 459 
1 460 
1 461 
1 462 
1 463 
1 464 
1 465 
1 466 
1 467 
1 468 
1 469 
1 470 
1 471 
1 472 
1 473 
1 474 
1 475 
1 476 
1 477 
1 478 
1 479 
1 480 
1 481 
1 482 
1 483 
1 484 
1 485 
1 486 
1 487 
1 488 
1 489 
1 490 
1 491 
1 492 
1 493 
1 494 
1 495 
1 496 
1 497 
1 498 
1 499 

POINT_DATA 500
FIELD FieldData 7
id 1 500 int
1 2 3 4 5 6 7 8 9 
10 11 12 13 14 15 16 17 18 
19 20 21 22 23 24 25 26 27 
28 29 30 31 32 33 34 35 36 
37 38 39 40 41 42 43 44 45 
46 47 48 49 50 51 52 53 54 
55 56 57 58 59 60 61 62 63 
64 65 66 67 68 69 70 71 72 
73 74 75 76 77 78 79 80 81 
82 83 84 85 86 87 88 89 90 
91 92 93 94 95 96 97 98 99 
100 101 102 103 104 105 106 107 108 
109 110 111 112 113 114 115 116 117 
118 119 120 121 122 123 124 125 126 
127 128 129 130 131 132 133 134 135 
136 137 138 139 140 141 142 143 144 
145 146 147 148 149 150 151 152 153 
154 155 156 157 158 159 160 161 162 
163 164 165 166 167 168 169 170 171 
172 173 174 175 176 177 178 179 180 
181 182 183 184 185 186 187 188 189 
190 191 192 193 194 195 196 197 198 
199 200 201 202 203 204 205 206 207 
208 209 210 211 212 213 214 215 216 
217 218 219 220 221 222 223 224 225 
226 227 228 229 230 231 232 233 234 
235 236 237 238 239 240 241 242 243 
244 245 246 247 248 249 250 251 252 
253 254 255 256 257 258 259 260 261 
262 263 264 265 266 267 268 269 270 
271 272 273 274 275 276 277 278 279 
280 281 282 283 284 285 286 287 288 
289 290 291 292 293 294 295 296 297 
298 299 300 301 302 303 304 305 306 
307 308 309 310 311 312 313 314 315 
316 317 318 319 320 321 322 323 324 
325 326 327 328 329 330 331 332 333 
334 335 336 337 338 339 340 341 342 
343 344 345 346 347 348 349 350 351 
352 353 354 355 356 357 358 359 360 
361 362 363 364 365 366 367 368 369 
370 371 372 373 374 375 376 377 378 
379 380 381 382 383 384 385 386 387 
388 389 390 391 392 393 394 395 396 
397 398 399 400 401 402 403 404 405 
406 407 408 409 410 411 412 413 414 
415 416 417 418 419 420 421 422 423 
424 425 426 427 428 429 430 431 432 
433 434 435 436 437 438 439 440 441 
442 443 444 445 446 447 448 449 450 
451 452 453 454 455 456 457 458 459 
460 461 462 463 464 465 466 467 468 
469 470 471 472 473 474 475 476 477 
478 479 480 481 482 483 484 485 486 
487 488 489 490 491 492 493 494 495 
496 497 498 499 500 
type 1 500 int
1 1 1 1 1 1 1 1 1 
1 1 1 1 1 1 1 1 1 
1 1 1 1 1 1 1 1 1 
1 1 1 1 1 1 1 1 1 
1 1 1 1 1 1 1 1 1 
1 1 1 1 1 1 1 1 1 
1 1 1 1 1 1 1 1 1 
1 1 1 1 1 1 1 1 1 
1 1 1 1 1 1 1 1 1 
1 1 1 1 1 1 1 1 1 
1 1 1 1 1 1 1 1 1 
1 1 1 1 1 1 1 1 1 
1 1 1 1 1 1 1 1 1 
1 1 1 1 1 1 1 1 1 
1 1 1 1 1 1 1 1 1 
1 1 1 1 1 1 1 1 1 
1 1 1 1 1 1 1 1 1 
1 1 1 1 1 1 1 1 1 
1 1 1 1 1 1 1 1 1 
1 1 1 1 1 1 1 1 1 
1 1 1 1 1 1 1 1 1 
1 1 1 1 1 1 1 1 1 
1 1 1 1 1 1 1 1 1 
1 1 1 1 1 1 1 1 1 
1 1 1 1 1 1 1 1 1 
1 1 1 1 1 1 1 1 1 
1 1 1 1 1 1 1 1 1 
1 1 1 1 1 1 1 1 1 
1 1 1 1 1 1 1 1 1 
1 1 1 1 1 1 1 1 1 
1 1 1 1 1 1 1 1 1 
1 1 1 1 1 1 1 1 1 
1 1 1 1 1 1 1 1 1 
1 1 1 1 1 1 1 1 1 
1 1 1 1 1 1 1 1 1 
1 1 1 1 1 1 1 1 1 
1 1 1 1 1 1 1 1 1 
1 1 1 1 1 1 1 1 1 
1 1 1 1 1 1 1 1 1 
1 1 1 1 1 1 1 1 1 
1 1 1 1 1 1 1 1 1 
1 1 1 1 1 1 1 1 1 
1 1 1 1 1 1 1 1 1 
1 1 1 1 1 1 1 1 1 
1 1 1 1 1 1 1 1 1 
1 1 1 1 1 1 1 1 1 
1 1 1 1 1 1 1 1 1 
1 1 1 1 1 1 1 1 1 
1 1 1 1 1 1 1 1 1 
1 1 1 1 1 1 1 1 1 
1 1 1 1 1 1 1 1 1 
1 1 1 1 1 1 1 1 1 
1 1 1 1 1 1 1 1 1 
1 1 1 1 1 1 1 1 1 
1 1 1 1 1 1 1 1 1 
1 1 1 1 1 
i 3 500 int
0 0 0 0 0 0 0 0 0 
0 0 0 0 0 0 0 0 0 
0 0 0 0 0 0 0 0 0 
0 0 0 0 0 0 0 0 0 
0 0 0 0 0 0 0 0 0 
0 0 0 0 0 0 0 0 0 
0 0 0 0 0 0 0 0 0 
0 0 0 0 0 0 0 0 0 
0 0 0 0 0 0 0 0 0 
0 0 0 0 0 0 0 0 0 
0 0 0 0 0 0 0 0 0 
0 0 0 0 0 0 0 0 0 
0 0 0 0 0 0 0 0 0 
0 0 0 0 0 0 0 0 0 
0 0 0 0 0 0 0 0 0 
0 0 0 0 0 0 0 0 0 
0 0 0 0 0 0 0 0 0 
0 0 0 0 0 0 0 0 0 
0 0 0 0 0 0 0 0 0 
0 0 0 0 0 0 0 0 0 
0 0 0 0 0 0 0 0 0 
0 0 0 0 0 0 0 0 0 
0 0 0 0 0 0 0 0 0 
0 0 0 0 0 0 0 0 0 
0 0 0 0 0 0 0 0 0 
0 0 0 0 0 0 0 0 0 
0 0 0 0 0 0 0 0 0 
0 0 0 0 0 0 0 0 0 
0 0 0 0 0 0 0 0 0 
0 0 0 0 0 0 0 0 0 
0 0 0 0 0 0 0 0 0 
0 0 0 0 0 0 0 0 0 
0 0 0 0 0 0 0 0 0 
0 0 0 0 0 0 0 0 0 
0 0 0 0 0 0 0 0 0 
0 0 0 0 0 0 0 0 0 
0 0 0 0 0 0 0 0 0 
0 0 0 0 0 0 0 0 0 
0 0 0 0 0 0 0 0 0 
0 0 0 0 0 0 0 0 0 
0 0 0 0 0 0 0 0 0 
0 0 0 0 0 0 0 0 0 
0 0 0 0 0 0 0 0 0 
0 0 0 0 0 0 0 0 0 
0 0 0 0 0 0 0 0 0 
0 0 0 0 0 0 0 0 0 
0 0 0 0 0 0 0 0 0 
0 0 0 0 0 0 0 0 0 
0 0 0 0 0 0 0 0 0 
0 0 0 0 0 0 0 0 0 
0 0 0 0 0 0 0 0 0 
0 0 0 0 0 0 0 0 0 
0 0 0 0 0 0 0 0 0 
0 0 0 0 0 0 0 0 0 
0 0 0 0 0 0 0 0 0 
0 0 0 0 0 0 0 0 0 
0 0 0 0 0 0 0 0 0 
0 0 0 0 0 0 0 0 0 
0 0 0 0 0 0 0 0 0 
0 0 0 0 0 0 0 0 0 
0 0 0 0 0 0 0 0 0 
0 0 0 0 0 0 0 0 0 
0 0 0 0 0 0 0 0 0 
0 0 0 0 0 0 0 0 0 
0 0 0 0 0 0 0 0 0 
0 0 0 0 0 0 0 0 0 
0 0 0 0 0 0 0 0 0 
0 0 0 0 0 0 0 0 0 
0 0 0 0 0 0 0 0 0 
0 0 0 0 0 0 0 0 0 
0 0 0 0 0 0 0 0 0 
0 0 0 0 0 0 0 0 0 
0 0 0 0 0 0 0 0 0 
0 0 0 0 0 0 0 0 0 
0 0 0 0 0 0 0 0 0 
0 0 0 0 0 0 0 0 0 
0 0 0 0 0 0 0 0 0 
0 0 0 0 0 0 0 0 0 
0 0 0 0 0 0 0 0 0 
0 0 0 0 0 0 0 0 0 
0 0 0 0 0 0 0 0 0 
0 0 0 0 0 0 0 0 0 
0 0 0 0 0 0 0 0 0 
0 0 0 0 0 0 0 0 0 
0 0 0 0 0 0 0 0 0 
0 0 0 0 0 0 0 0 0 
0 0 0 0 0 0 0 0 0 
0 0 0 0 0 0 0 0 0 
0 0 0 0 0 0 0 0 0 
0 0 0 0 0 0 0 0 0 
0 0 0 0 0 0 0 0 0 
0 0 0 0 0 0 0 0 0 
0 0 0 0 0 0 0 0 0 
0 0 0 0 0 0 0 0 0 
0 0 0 0 0 0 0 0 0 
0 0 0 0 0 0 0 0 0 
0 0 0 0 0 0 0 0 0 
0 0 0 0 0 0 0 0 0 
0 0 0 0 0 0 0 0 0 
0 0 0 0 0 0 0 0 0 
0 0 0 0 0 0 0 0 0 
0 0 0 0 0 0 0 0 0 
0 0 0 0 0 0 0 0 0 
0 0 0 0 0 0 0 0 0 
0 0 0 0 0 0 0 0 0 
0 0 0 0 0 0 0 0 0 
0 0 0 0 0 0 0 0 0 
0 0 0 0 0 0 0 0 0 
0 0 0 0 0 0 0 0 0 
0 0 0 0 0 0 0 0 0 
0 0 0 0 0 0 0 0 0 
0 0 0 0 0 0 0 0 0 
0 0 0 0 0 0 0 0 0 
0 0 0 0 0 0 0 0 0 
0 0 0 0 0 0 0 0 0 
0 0 0 0 0 0 0 0 0 
0 0 0 0 0 0 0 0 0 
0 0 0 0 0 0 0 0 0 
0 0 0 0 0 0 0 0 0 
0 0 0 0 0 0 0 0 0 
0 0 0 0 0 0 0 0 0 
0 0 0 0 0 0 0 0 0 
0 0 0 0 0 0 0 0 0 
0 0 0 0 0 0 0 0 0 
0 0 0 0 0 0 0 0 0 
0 0 0 0 0 0 0 0 0 
0 0 0 0 0 0 0 0 0 
0 0 0 0 0 0 0 0 0 
0 0 0 0 0 0 0 0 0 
0 0 0 0 0 0 0 0 0 
0 0 0 0 0 0 0 0 0 
0 0 0 0 0 0 0 0 0 
0 0 0 0 0 0 0 0 0 
0 0 0 0 0 0 0 0 0 
0 0 0 0 0 0 0 0 0 
0 0 0 0 0 0 0 0 0 
0 0 0 0 0 0 0 0 0 
0 0 0 0 0 0 0 0 0 
0 0 0 0 0 0 0 0 0 
0 0 0 0 0 0 0 0 0 
0 0 0 0 0 0 0 0 0 
0 0 0 0 0 0 0 0 0 
0 0 0 0 0 0 0 0 0 
0 0 0 0 0 0 0 0 0 
0 0 0 0 0 0 0 0 0 
0 0 0 0 0 0 0 0 0 
0 0 0 0 0 0 0 0 0 
0 0 0 0 0 0 0 0 0 
0 0 0 0 0 0 0 0 0 
0 0 0 0 0 0 0 0 0 
0 0 0 0 0 0 0 0 0 
0 0 0 0 0 0 0 0 0 
0 0 0 0 0 0 0 0 0 
0 0 0 0 0 0 0 0 0 
0 0 0 0 0 0 0 0 0 
0 0 0 0 0 0 0 0 0 
0 0 0 0 0 0 0 0 0 
0 0 0 0 0 0 0 0 0 
0 0 0 0 0 0 0 0 0 
0 0 0 0 0 0 0 0 0 
0 0 0 0 0 0 0 0 0 
0 0 0 0 0 0 0 0 0 
0 0 0 0 0 0 0 0 0 
0 0 0 0 0 0 0 0 0 
0 0 0 0 0 0 0 0 0 
0 0 0 0 0 0 0 0 0 
0 0 0 0 0 0 
v 3 500 double
-0.166416 -0.338842 0.246482 0.588678 -0.221538 0.185922 -1.07818 0.582092 0.136553 
-1.32175 -0.377854 -0.135921 -0.258342 -0.0600496 -0.927051 -1.55602 0.00703309 0.148882 
0.685672 -0.252335 -1.05574 -0.355462 0.031393 -1.11379 -0.187731 0.0172905 -1.2649 
-0.356191 0.330567 0.175567 -0.203239 0.0811737 -1.19149 -0.0416656 0.000366067 0.0578998 
-0.620402 0.315358 -0.0942753 0.0873432 -0.280329 -0.531415 -0.341783 0.060187 -1.17143 
0.0517557 -0.0779345 0.272375 -1.91004 -0.440707 0.629062 0.0141484 -0.0881805 -0.052716 
-1.11866 -0.0672378 -0.0619213 0.452912 0.201339 0.112594 -0.454747 0.404092 -0.876983 
-0.343967 -0.013033 0.277364 -0.0292993 -0.0582968 -0.00213684 0.113989 0.36284 -1.10741 
0.0828213 0.0260083 -2.49986 -0.176174 0.151168 -0.0575026 -0.031769 -0.0805494 -0.0386461 
-0.0801558 -0.0542969 -0.000239263 -0.242025 0.0157586 -0.00769254 -0.960408 0.559028 0.247453 
-1.32742 -0.00207902 -0.536007 -0.0173901 0.375565 -0.112892 -1.19535 0.84722 -1.57933 
0.221202 0.0020772 0.00787834 0.836959 -0.121309 -1.63354 -1.59963 -0.192855 0.348732 
-0.00699261 0.00104431 -0.0973571 -1.38107 -0.317108 -0.0209258 -1.04903 0.083175 -0.00406272 
-0.0385943 -0.00154076 -0.00839708 -0.00164811 -0.0374653 -6.5293e-05 -0.540277 0.42814 -2.04058 
-0.482997 -0.16549 -0.427143 0.268396 0.357829 -0.292539 -0.211853 -0.0811797 -0.676392 
-0.0119201 -0.0406133 -0.0105338 -0.837951 -0.168482 -1.01734 -0.550046 -0.480916 -0.155868 
-0.0364924 0.00122761 -0.000553472 -0.0934001 0.155161 -0.399666 -0.0520597 -0.0881481 0.0638683 
0.00570076 -0.00640953 -0.00262125 -0.864075 0.0469894 -0.327846 -0.211511 -0.453682 -0.48806 
-0.222509 -0.581438 0.437649 0.0459564 0.203524 -0.0355889 -0.0283925 -0.170824 -4.44574 
-0.296479 0.0707144 -0.758687 -0.678784 0.0994551 -1.18229 -0.251854 -0.00730869 0.192467 
-1.17756 0.244998 0.00826003 -0.0429171 -0.185428 -0.424995 -1.11519 -0.623081 0.128642 
-1.08238 0.067479 -0.0445725 -0.43644 0.238882 0.0740079 -0.0381308 -0.0774341 -0.0404857 
1.51795 -0.298907 -1.1255 -0.0068731 -0.0157332 -0.112429 0.035382 0.0739186 0.00148279 
-0.761335 0.350942 -0.00508118 0.0309807 -0.0375742 0.0287681 0.0908111 -0.00373372 -0.157236 
-0.782418 0.130176 -0.599508 -1.17369 -0.222123 0.0800578 -1.89113 -0.280805 -0.358697 
-1.10149 -0.0775367 0.124743 -1.51976 0.124488 -0.260607 -0.038852 -0.0744009 0.0239765 
-0.345701 -0.030224 0.259706 0.249603 0.13752 -0.235057 0.794476 0.210691 -1.04846 
0.0301699 -0.498986 -1.5771 -0.396173 0.183042 -1.11458 -0.370384 0.0788722 0.0266218 
0.107809 -0.0231906 3.8606e-06 -0.397687 0.727667 0.125882 -1.19477 -0.415435 -0.574372 
0.186694 -0.65768 0.295685 -0.0480604 -0.175499 0.237053 -0.692558 0.349813 -0.0808177 
1.14491 0.27161 -1.11331 -0.280117 0.107862 0.318541 0.117613 0.547273 0.808557 
-1.24572 0.395428 -0.583354 -1.69044 -0.176758 -0.388314 0.303126 -0.18672 -0.144295 
-0.448422 0.0405068 0.0723882 -1.01916 -0.122994 0.125715 -0.0850268 -0.127215 -2.50829 
-1.28348 0.0152285 -0.341177 -0.563643 0.305758 -0.718423 0.0031386 0.00853859 2.42913e-10 
-1.19465 0.0461753 -0.917868 -0.475031 0.0483044 0.580554 -0.407532 -0.0943869 -0.0173958 
1.76973 0.0993917 -1.05991 1.67926 0.27504 -0.174317 0.670346 -0.114808 -0.231771 
-0.373087 0.258531 -0.281812 -1.20308 0.185037 -0.285333 -0.593865 0.0414731 -0.354746 
-1.60325 -0.386961 0.154362 -0.0388483 0.021128 -0.0166575 0.146652 -0.198595 0.0826119 
-0.39421 -0.147296 -0.580731 -0.54094 0.499968 -0.470152 0.40379 -0.0688036 -0.669968 
-0.0605766 0.0292872 -0.106099 0.016156 -0.0266578 -0.161892 -0.914504 0.842935 -0.281855 
-0.828004 -0.655952 0.359343 -0.00486384 -0.00141361 0.121906 0.0131568 0.0586754 -0.0145513 
0.0830643 0.217596 -0.0492405 -0.0085988 -0.0102679 -0.0113744 -1.24747 0.213205 -0.129096 
2.97288e-06 -0.0268295 0.000187727 0.184805 -0.11072 -0.642136 -0.0964801 -0.0379436 -0.23048 
1.15873 -0.336297 -0.60326 -1.5155 -0.025184 0.0631683 -0.00567879 -0.110238 -0.00702776 
-1.10173 0.319997 0.191486 -0.916793 0.149882 0.153831 -0.948619 -0.348064 -0.0851744 
-0.0995042 0.08241 -0.28865 -1.32703 -0.0351903 -0.49298 -0.647284 0.357603 -0.842987 
0.261718 0.097164 -0.0804457 -0.130066 0.303291 0.038142 -0.0373821 -0.0624935 -0.0598954 
0.0289351 -0.162074 0.0266422 -0.0661895 -0.118443 0.00536059 0.112096 0.240723 0.151276 
0.151335 -0.0817362 -0.061629 -0.0886803 -0.0419004 0.0743426 -1.34668 0.368083 -0.319236 
-1.50814 0.000157899 -0.525899 -0.0536459 -0.0285597 0.000725034 -0.874006 -0.484356 -0.134038 
-1.38477 -0.0740053 0.0327351 -0.074181 0.0268576 -0.0159959 -1.16142 0.0220896 -0.322926 
0.140875 0.0216871 -0.446695 0.800818 0.13691 -1.81566 -0.0511618 -0.0322175 -0.0213076 
-1.40045 0.184029 0.0281824 0.0551118 0.0409612 0.0334773 -1.90797 -0.167202 -0.253744 
-0.0473373 -0.101118 -0.0428712 -0.976998 -0.802718 -0.115153 -0.317437 0.0627911 -0.0328618 
-0.722365 0.00214499 -0.654626 -1.70075 -0.0864871 -0.0475433 -2.19019 -0.48901 0.430594 
-0.236083 0.00192719 -0.293084 -1.14344 -0.113377 0.194843 0.627587 -0.461473 -1.17747 
-0.932566 -0.25312 -0.765054 1.29595 0.3243 -0.51128 0.0686316 -0.0240649 -0.282866 
-0.759871 -0.10529 -0.341732 0.26978 -0.191384 -0.467426 -0.0393895 -0.0541979 0.0198675 
1.55286 0.00825568 -0.536939 -1.22676 0.326618 -0.0722067 -1.25077 0.413651 0.027133 
-0.0345216 0.0780366 -0.123364 -1.04878 0.775078 -0.0358986 -1.16637 -0.0410831 0.233338 
0.181054 0.0525184 0.287378 0.0284641 -0.000228057 -0.0168259 -0.0565346 -0.0443762 0.000246372 