# vtk DataFile Version 4.0
Generated by LIGGGHTS
ASCII
DATASET POLYDATA
POINTS 500 float
0.412343 -0.0449845 -1.18651 0.412374 -0.0289852 -1.18795 0.00505528 -0.0250062 -1.19501 
0.0395347 -0.0205805 -1.1757 0.0168985 -0.0222183 -1.17262 0.0363853 -0.0049978 -1.17655 
0.0457934 -0.0366095 -1.18625 0.0322599 -0.0450007 -1.17655 0.0908854 -0.0165389 -1.17818 
0.469188 -0.00501168 -1.18502 0.340775 -0.0450029 -1.195 0.463644 -0.0136556 -1.19501 
0.0217195 -0.0141045 -1.16932 0.321834 -0.00499736 -1.195 0.0439895 -0.0111741 -1.17455 
0.368207 -0.0275268 -1.19501 0.027727 -0.0450027 -1.18546 0.495001 -0.0450011 -1.18514 
0.0410205 -0.0360607 -1.19501 0.4813 -0.013773 -1.18749 0.00554283 -0.0199032 -1.17185 
0.182203 -0.0300151 -1.18791 0.493398 -0.0449979 -1.195 0.0538402 -0.00499558 -1.18635 
0.168976 -0.0299489 -1.18763 0.361616 -0.0450008 -1.18549 0.485701 -0.0286747 -1.19501 
0.456229 -0.0450038 -1.195 0.314102 -0.015023 -1.195 0.0958873 -0.0136546 -1.18635 
0.0342999 -0.0205974 -1.18783 0.435494 -0.0448927 -1.18661 0.407844 -0.0128021 -1.18718 
0.458269 -0.02021 -1.18971 0.205431 -0.0339376 -1.195 0.0337089 -0.0375401 -1.18836 
0.386882 -0.00499631 -1.19466 0.0148715 -0.0434701 -1.19501 0.0384408 -0.0377412 -1.17956 
0.495002 -0.00999403 -1.18635 0.228216 -0.0449705 -0.245002 0.114315 -0.0276783 -1.195 
0.0694503 -0.00849769 -1.17225 0.406139 -0.0373372 -1.18823 0.119309 -0.0363385 -1.195 
0.466144 -0.0348775 -1.195 0.00541022 -0.0369231 -1.17915 0.00499855 -0.0200042 -1.18636 
0.484379 -0.045002 -1.18737 0.426864 -0.0206693 -1.18763 0.376502 -0.00499218 -1.19502 
0.477906 -0.0449992 -1.195 0.0219141 -0.00499676 -1.1878 0.0612458 -0.045001 -1.1695 
0.00994443 -0.0249953 -1.17925 0.0148728 -0.0336936 -1.17926 0.0858814 -0.0223913 -1.19501 
0.0694112 -0.0184932 -1.17202 0.0142885 -0.00499904 -1.18134 0.0436252 -0.0296243 -1.17689 
0.0266299 -0.0351821 -1.19501 0.449558 -0.0374125 -1.195 0.0148653 -0.0146678 -1.17885 
0.0447614 -0.0210777 -1.18569 0.0777743 -0.0450014 -1.17827 0.425426 -0.014068 -1.19501 
0.422265 -0.0295493 -1.18653 0.442532 -0.0294502 -1.1824 0.431332 -0.00500995 -1.195 
0.00499786 -0.0130862 -1.17914 0.485653 -0.0386728 -1.195 0.492233 -0.0199937 -1.1868 
0.043833 -0.012101 -1.19007 0.0137554 -0.0198144 -1.19501 0.0561983 -0.0450022 -1.17813 
0.0548898 -0.0203071 -1.18739 0.0195218 -0.00499907 -1.17282 0.414027 -0.00499215 -1.188 
0.390934 -0.0313512 -1.195 0.492364 -0.0370258 -1.17971 0.0506588 -0.0367061 -1.17749 
0.0278296 -0.0282103 -1.18795 0.441914 -0.0210842 -1.18959 0.00761828 -0.00499807 -1.17389 
0.154018 -0.0346022 -1.17952 0.0614866 -0.0365198 -1.17786 0.0214829 -0.0357877 -1.18646 
0.282267 -0.0430891 -1.1847 0.423444 -0.0447517 -1.18679 0.00499646 -0.00499727 -1.18502 
0.0512055 -0.036794 -1.195 0.40269 -0.0214074 -1.1864 0.0601304 -0.00499889 -1.17132 
0.00499684 -0.030003 -1.18635 0.00499568 -0.0450019 -1.19501 0.0119628 -0.0119635 -1.18851 
0.127753 -0.00500507 -1.18635 0.0858836 -0.0136534 -1.18635 0.191024 -0.0449989 -1.195 
0.0668873 -0.0450002 -1.19501 0.075444 -0.0221197 -1.195 0.20801 -0.0449893 -0.245002 
0.0143615 -0.0269271 -1.18801 0.461034 -0.0107465 -1.18581 0.294115 -0.0146707 -1.195 
0.399382 -0.00984376 -1.17019 0.109302 -0.0421164 -1.18684 0.13773 -0.0309322 -1.195 
0.104302 -0.0450008 -1.195 0.0511502 -0.0286626 -1.1834 0.178088 -0.0134788 -1.195 
0.0614619 -0.0278584 -1.18643 0.495001 -0.00499666 -1.195 0.381687 -0.013535 -1.195 
0.102954 -0.0150062 -1.1794 0.0412311 -0.0203751 -1.19502 0.256148 -0.0108729 -1.18864 
0.439434 -0.00499774 -1.18874 0.462221 -0.0450034 -1.18546 0.0564802 -0.0365271 -1.18651 
0.27412 -0.0146684 -1.195 0.489164 -0.0259461 -1.17938 0.447211 -0.00500129 -1.19501 
0.458639 -0.00499993 -1.195 0.468643 -0.00499822 -1.195 0.03383 -0.00499659 -1.18635 
0.205318 -0.024692 -0.245002 0.467579 -0.0362476 -1.18521 0.495002 -0.0149939 -1.195 
0.0177299 -0.0450055 -1.18556 0.0378113 -0.0131506 -1.18216 0.495001 -0.0249992 -1.195 
0.0588207 -0.00544534 -1.19501 0.0247498 -0.0450017 -1.195 0.0522184 -0.0144022 -1.195 
0.3978 -0.023023 -1.19501 0.0226657 -0.0319536 -1.17281 0.248141 -0.020386 -1.18789 
0.452905 -0.00501402 -1.1868 0.189605 -0.0269423 -1.195 0.433608 -0.0198165 -1.19501 
0.467185 -0.0249957 -1.19271 0.485707 -0.00868155 -1.195 0.413602 -0.0201076 -1.18352 
0.472118 -0.0450015 -1.18685 0.398784 -0.0375444 -1.195 0.0194536 -0.0183925 -1.18692 
0.0612405 -0.0190777 -1.19501 0.440712 -0.0127661 -1.195 0.132777 -0.0165202 -1.18683 
0.0808903 -0.00499576 -1.18635 0.429722 -0.0449854 -1.195 0.00499775 -0.0450039 -1.18501 
0.474716 -0.0134572 -1.19501 0.231033 -0.0328462 -1.18702 0.450144 -0.0227696 -1.19501 
0.0349162 -0.0281283 -1.195 0.486363 -0.00499887 -1.18573 0.0149951 -0.00499894 -1.19501 
0.476892 -0.0236984 -1.19499 0.00499847 -0.0350043 -1.19501 0.188393 -0.00964021 -1.18769 
0.0290691 -0.0343023 -1.18012 0.0278632 -0.0129907 -1.18703 0.0401216 -0.0450003 -1.18657 
0.452925 -0.0131858 -1.19442 0.121016 -0.0123817 -1.18772 0.378548 -0.0450006 -1.195 
0.0388322 -0.00499576 -1.19501 0.0582141 -0.0132643 -1.17661 0.225402 -0.00499917 -1.18678 
0.0216015 -0.0125906 -1.195 0.448612 -0.0450004 -1.18853 0.485679 -0.0336697 -1.18635 
0.15624 -0.0362481 -1.195 0.0625489 -0.0221087 -1.17833 0.0908833 -0.0136603 -1.195 
0.48288 -0.0236753 -1.18682 0.0212078 -0.0260847 -1.18077 0.0617465 -0.0362706 -1.195 
0.235953 -0.0363129 -1.195 0.495 -0.0351189 -1.195 0.477573 -0.00499802 -1.19051 
0.00499721 -0.0149942 -1.19501 0.0751597 -0.0131747 -1.18684 0.14303 -0.0279198 -1.18674 
0.0310625 -0.0245455 -1.17923 0.236101 -0.00793606 -1.18687 0.462411 -0.0196625 -1.18063 
0.196025 -0.0419733 -1.18688 0.0347481 -0.0449734 -1.195 0.35855 -0.0450069 -1.195 
0.371416 -0.013613 -1.195 0.00499819 -0.00499772 -1.19501 0.119301 -0.0421126 -1.18684 
0.0157867 -0.0389226 -1.17079 0.286284 -0.00504801 -1.18643 0.466322 -0.044915 -1.195 
0.209326 -0.0152296 -0.245002 0.495002 -0.0300556 -1.18638 0.0979784 -0.0240452 -1.17952 
0.0499803 -0.013263 -1.18227 0.440965 -0.0449989 -1.195 0.457844 -0.0369189 -1.18936 
0.413354 -0.0359936 -1.19501 0.0858887 -0.00499883 -1.19501 0.485707 -0.0186784 -1.195 
0.476262 -0.0351349 -1.195 0.0116917 -0.0450014 -1.17759 0.0668168 -0.0363006 -1.18631 
0.162795 -0.00499922 -1.195 0.285756 -0.0358647 -1.195 0.0568897 -0.0450079 -1.19501 
0.0856832 -0.0308391 -1.18641 0.418879 -0.0217204 -1.195 0.236114 -0.0137465 -1.195 
0.392145 -0.0450078 -1.195 0.312577 -0.0141405 -1.13109 0.0245891 -0.0169644 -1.17846 
0.0923866 -0.0380853 -1.18801 0.409919 -0.00721057 -1.17915 0.0853988 -0.00739401 -1.0214 
0.434634 -0.0360627 -1.19494 0.0907845 -0.0311148 -1.19501 0.0723507 -0.00499756 -1.18116 
0.107967 -0.023651 -1.17975 0.397409 -0.00654698 -1.18494 0.132764 -0.00499385 -1.195 
0.37463 -0.03565 -1.195 0.0451048 -0.045005 -1.17791 0.0454942 -0.0450016 -1.195 
0.0516416 -0.00507256 -1.1766 0.01675 -0.0336496 -1.19501 0.0288328 -0.00499859 -1.19501 
0.0758899 -0.00506637 -1.19501 0.488105 -0.0137579 -1.18017 0.44203 -0.0374812 -1.18832 
0.0467044 -0.0282848 -1.19234 0.0236935 -0.0224578 -1.19501 0.0740443 -0.0344677 -1.17965 
0.0269288 -0.00669618 -1.17932 0.17605 -0.0394132 -1.18838 0.399603 -0.0449795 -1.18833 
0.0606597 -0.0121565 -1.18783 0.423324 -0.0366477 -1.195 0.0800393 -0.0160608 -1.1786 
0.458187 -0.0286891 -1.19501 0.0112625 -0.0376858 -1.18769 0.0673801 -0.013652 -1.18058 
0.401691 -0.013775 -1.195 0.261256 -0.0205776 -1.18756 0.0769924 -0.0450005 -1.195 
0.0958875 -0.00499888 -1.195 0.40688 -0.00501437 -1.195 0.392257 -0.0198839 -1.18713 
0.33306 -0.0150006 -1.195 0.477613 -0.0379867 -1.18232 0.105886 -0.00499853 -1.195 
0.359336 -0.022945 -1.19501 0.26121 -0.0389416 -1.18693 0.10088 -0.0136615 -1.19501 
0.126598 -0.0354225 -1.18542 0.0618918 -0.0450013 -1.18635 0.0805668 -0.0308612 -1.195 
0.0338352 -0.0136546 -1.19501 0.405358 -0.0300193 -1.195 0.225954 -0.0421139 -1.18683 
0.354559 -0.0317214 -1.195 0.396736 -0.0379343 -1.18183 0.152768 -0.0223148 -1.195 
0.421215 -0.00499878 -1.195 0.104318 -0.0276795 -1.19501 0.0908836 -0.0223075 -1.18635 
0.156105 -0.0450021 -1.18633 0.40705 -0.0449171 -1.195 0.220966 -0.0450017 -1.195 
0.203392 -0.00499912 -1.195 0.00499972 -0.0298841 -1.17206 0.427119 -0.0274141 -1.195 
0.209511 -0.0247337 -1.195 0.330782 -0.0450024 -1.195 0.446054 -0.0123037 -1.18656 
0.114318 -0.0103674 -1.195 0.0669396 -0.0449074 -1.17772 0.183392 -0.00499959 -1.195 
0.266142 -0.00867573 -1.18716 0.349348 -0.0227585 -1.195 0.414059 -0.0121148 -1.19501 
0.0563273 -0.0277874 -1.19501 0.386604 -0.022347 -1.195 0.03902 -0.02926 -1.18596 
0.0942261 -0.0449986 -1.195 0.442753 -0.029669 -1.195 0.0511915 -0.0450047 -1.18679 
0.147751 -0.0309647 -1.19501 0.235953 -0.042059 -1.18682 0.0717424 -0.0360898 -1.19501 
0.157795 -0.00788878 -1.18684 0.469229 -0.0164854 -1.18722 0.0226519 -0.0415342 -1.17758 
0.0808858 -0.0137292 -1.19501 0.107665 -0.0122898 -1.18779 0.33823 -0.0236997 -1.19498 
0.381277 -0.0296403 -1.19032 0.099397 -0.0450025 -1.18629 0.231086 -0.00499985 -1.195 
0.109318 -0.0190218 -1.195 0.328702 -0.0267763 -1.195 0.376612 -0.0221477 -1.19501 
0.282714 -0.0288059 -1.18744 0.426251 -0.0050021 -1.18637 0.230947 -0.0449975 -1.195 
0.266449 -0.0348485 -1.195 0.419856 -0.0130213 -1.18678 0.0786047 -0.0377273 -1.18793 
0.0958792 -0.0223211 -1.19501 0.142695 -0.0395954 -1.195 0.305749 -0.0363108 -1.195 
0.417726 -0.0449947 -1.195 0.0848001 -0.0379937 -1.17949 0.366364 -0.00499321 -1.195 
0.0560387 -0.0287606 -1.17468 0.0439923 -0.00499725 -1.18304 0.0673486 -0.00499681 -1.18981 
0.310777 -0.0307309 -1.1884 0.161267 -0.0275802 -1.195 0.40892 -0.0206846 -1.19486 
0.0806692 -0.0221838 -1.18648 0.3515 -0.00843291 -1.195 0.173011 -0.017467 -1.18737 
0.195889 -0.0303508 -1.18686 0.185681 -0.0361421 -1.195 0.315771 -0.0363346 -1.195 
0.0488321 -0.00499561 -1.19501 0.0494478 -0.0214997 -1.17663 0.167796 -0.0136579 -1.195 
0.363447 -0.0363011 -1.195 0.136071 -0.0376098 -1.18775 0.12274 -0.00499132 -1.195 
0.129298 -0.0450026 -1.18634 0.068363 -0.0204819 -1.18814 0.0693958 -0.0132914 -1.195 
0.368548 -0.0449714 -1.195 0.344502 -0.0314868 -1.195 0.109305 -0.0305722 -1.18684 
0.431567 -0.0308056 -1.17844 0.157787 -0.0136628 -1.195 0.290828 -0.0450039 -1.195 
0.381617 -0.0196127 -1.18675 0.093496 -0.0330596 -1.17944 0.162795 -0.0198057 -1.18891 
0.114384 -0.00499375 -1.18657 0.0623523 -0.00499664 -1.18107 0.213394 -0.00499824 -1.195 
0.27924 -0.0232616 -1.195 0.152796 -0.00499805 -1.195 0.280854 -0.0446373 -1.195 
0.343101 -0.014967 -1.195 0.0735993 -0.0290752 -1.18806 0.270878 -0.0449859 -1.195 
0.0958888 -0.0078812 -1.17818 0.187644 -0.01642 -1.195 0.43272 -0.0123871 -1.18838 
0.342056 -0.00502914 -1.195 0.102477 -0.0363415 -1.18236 0.199555 -0.0258469 -1.195 
0.205995 -0.040582 -1.18755 0.201006 -0.0450016 -1.195 0.227239 -0.0183523 -1.195 
0.331923 -0.00503674 -1.195 0.215933 -0.0359669 -1.195 0.180318 -0.0232258 -1.195 
0.14277 -0.022299 -1.195 0.0975975 -0.0295592 -1.18785 0.300813 -0.045003 -1.195 
0.0719285 -0.0450022 -1.18638 0.39688 -0.00500429 -1.195 0.217218 -0.0183624 -1.195 
0.246132 -0.0136494 -1.195 0.137774 -0.00785958 -1.18684 0.119135 -0.0288355 -1.18633 
0.142696 -0.045005 -1.1866 0.132734 -0.022286 -1.195 0.240929 -0.0450018 -1.195 
0.0665855 -0.0275234 -1.19501 0.100891 -0.00499852 -1.18635 0.193392 -0.00499921 -1.195 
0.178093 -0.00758382 -1.18693 0.254917 -0.0184828 -1.195 0.255958 -0.036304 -1.195 
0.311541 -0.00518868 -1.195 0.151088 -0.0450047 -1.195 0.133031 -0.0278796 -1.18672 
0.124298 -0.0450017 -1.195 0.391696 -0.013747 -1.195 0.29142 -0.00500572 -1.195 
0.114321 -0.0196852 -1.18637 0.434847 -0.0281481 -1.18871 0.142776 -0.0165249 -1.18684 
0.208094 -0.0349666 -0.245002 0.271579 -0.0387693 -1.1872 0.30142 -0.00499922 -1.195 
0.366009 -0.0191014 -1.18863 0.276147 -0.00875744 -1.1872 0.0823422 -0.02693 -1.17784 
0.335768 -0.0363381 -1.195 0.00499882 -0.0422453 -1.17069 0.0854122 -0.0396075 -1.19501 
0.349662 -0.0404334 -1.195 0.055553 -0.0368139 -1.16877 0.147785 -0.0136493 -1.195 
0.142781 -0.0049957 -1.195 0.172794 -0.00499785 -1.195 0.249973 -0.027172 -1.195 
0.261145 -0.00499891 -1.195 0.388991 -0.0321916 -1.18448 0.10931 -0.036342 -1.195 
0.288828 -0.0260922 -1.195 0.24595 -0.0363235 -1.195 0.318244 -0.0266468 -1.195 
0.085318 -0.0450077 -1.18659 0.281145 -0.0049981 -1.195 0.240956 -0.0302221 -1.18884 
0.124315 -0.0276812 -1.195 0.260895 -0.0450009 -1.195 0.474559 -0.0292964 -1.18702 
0.124378 -0.0208036 -1.18351 0.241208 -0.0223509 -1.195 0.161299 -0.036232 -1.18638 
0.171059 -0.0450023 -1.195 0.210986 -0.0450007 -1.195 0.271144 -0.0049998 -1.195 
0.323584 -0.0181916 -1.195 0.398108 -0.0302698 -1.18812 0.215957 -0.0418704 -1.18691 
0.161074 -0.0450012 -1.195 0.325769 -0.0363355 -1.195 0.304112 -0.0146288 -1.195 
0.376726 -0.00970797 -1.18622 0.221046 -0.0332626 -1.18685 0.137769 -0.0136458 -1.195 
0.295752 -0.0363059 -1.195 0.28412 -0.014541 -1.195 0.241115 -0.0049997 -1.195 
0.208395 -0.0136571 -1.195 0.203906 -0.0197006 -1.18843 0.0993121 -0.036336 -1.195 
0.222218 -0.00970347 -1.195 0.152782 -0.0165414 -1.18684 0.129307 -0.0363414 -1.195 
0.436553 -0.0184546 -1.18129 0.250912 -0.0450018 -1.195 0.198392 -0.0084472 -1.18706 
0.134294 -0.0450048 -1.195 0.429648 -0.0367429 -1.18628 0.259971 -0.027146 -1.195 
0.149426 -0.0377193 -1.18784 0.36039 -0.0130069 -1.195 0.26924 -0.0233965 -1.195 
0.369198 -0.0387063 -1.18718 0.154459 -0.0290782 -1.18784 0.181041 -0.0450014 -1.195 
0.0858864 -0.00787882 -1.17818 0.19568 -0.0361512 -1.195 0.372714 -0.0263612 -1.18616 
0.166104 -0.0450005 -1.18632 0.221313 -0.0274816 -1.195 0.385351 -0.0387279 -1.19121 
0.175426 -0.0319465 -1.195 0.320422 -0.0118983 -1.18791 0.222232 -0.02159 -1.18698 
0.193955 -0.0206827 -1.18853 0.450887 -0.0378622 -1.18191 0.166365 -0.0361778 -1.195 
0.186027 -0.0419694 -1.18689 0.225954 -0.0363356 -1.195 0.0908885 -0.00499722 -1.18635 
0.299126 -0.0197116 -1.18797 0.299035 -0.0268257 -1.195 0.276236 -0.0327969 -1.19499 
0.450618 -0.0301141 -1.18824 0.0732407 -0.0233297 -1.17989 0.211316 -0.0310437 -1.18746 
0.251145 -0.00499901 -1.195 0.308682 -0.0235225 -1.195 0.147789 -0.00787305 -1.18684 
0.102664 -0.0209436 -1.18779 0.127746 -0.0136367 -1.195 0.475169 -0.0214196 -1.18087 
0.232334 -0.0269607 -1.195 0.461208 -0.0285493 -1.18505 0.114301 -0.0450026 -1.195 
0.450157 -0.0210893 -1.18394 0.170319 -0.0233339 -1.195 0.215344 -0.0116705 -1.18782 
0.119321 -0.0190218 -1.195 0.264121 -0.0145459 -1.195 0.310801 -0.0450048 -1.195 
0.198433 -0.0145203 -1.195 0.320791 -0.0450019 -1.195 
VERTICES 500 1000
1 0 
1 1 
1 2 
1 3 
1 4 
1 5 
1 6 
1 7 
1 8 
1 9 
1 10 
1 11 
1 12 
1 13 
1 14 
1 15 
1 16 
1 17 
1 18 
1 19 
1 20 
1 21 
1 22 
1 23 
1 24 
1 25 
1 26 
1 27 
1 28 
1 29 
1 30 
1 31 
1 32 
1 33 
1 34 
1 35 
1 36 
1 37 
1 38 
1 39 
1 40 
1 41 
1 42 
1 43 
1 44 
1 45 
1 46 
1 47 
1 48 
1 49 
1 50 
1 51 
1 52 
1 53 
1 54 
1 55 
1 56 
1 57 
1 58 
1 59 
1 60 
1 61 
1 62 
1 63 
1 64 
1 65 
1 66 
1 67 
1 68 
1 69 
1 70 
1 71 
1 72 
1 73 
1 74 
1 75 
1 76 
1 77 
1 78 
1 79 
1 80 
1 81 
1 82 
1 83 
1 84 
1 85 
1 86 
1 87 
1 88 
1 89 
1 90 
1 91 
1 92 
1 93 
1 94 
1 95 
1 96 
1 97 
1 98 
1 99 
1 100 
1 101 
1 102 
1 103 
1 104 
1 105 
1 106 
1 107 
1 108 
1 109 
1 110 
1 111 
1 112 
1 113 
1 114 
1 115 
1 116 
1 117 
1 118 
1 119 
1 120 
1 121 
1 122 
1 123 
1 124 
1 125 
1 126 
1 127 
1 128 
1 129 
1 130 
1 131 
1 132 
1 133 
1 134 
1 135 
1 136 
1 137 
1 138 
1 139 
1 140 
1 141 
1 142 
1 143 
1 144 
1 145 
1 146 
1 147 
1 148 
1 149 
1 150 
1 151 
1 152 
1 153 
1 154 
1 155 
1 156 
1 157 
1 158 
1 159 
1 160 
1 161 
1 162 
1 163 
1 164 
1 165 
1 166 
1 167 
1 168 
1 169 
1 170 
1 171 
1 172 
1 173 
1 174 
1 175 
1 176 
1 177 
1 178 
1 179 
1 180 
1 181 
1 182 
1 183 
1 184 
1 185 
1 186 
1 187 
1 188 
1 189 
1 190 
1 191 
1 192 
1 193 
1 194 
1 195 
1 196 
1 197 
1 198 
1 199 
1 200 
1 201 
1 202 
1 203 
1 204 
1 205 
1 206 
1 207 
1 208 
1 209 
1 210 
1 211 
1 212 
1 213 
1 214 
1 215 
1 216 
1 217 
1 218 
1 219 
1 220 
1 221 
1 222 
1 223 
1 224 
1 225 
1 226 
1 227 
1 228 
1 229 
1 230 
1 231 
1 232 
1 233 
1 234 
1 235 
1 236 
1 237 
1 238 
1 239 
1 240 
1 241 
1 242 
1 243 
1 244 
1 245 
1 246 
1 247 
1 248 
1 249 
1 250 
1 251 
1 252 
1 253 
1 254 
1 255 
1 256 
1 257 
1 258 
1 259 
1 260 
1 261 
1 262 
1 263 
1 264 
1 265 
1 266 
1 267 
1 268 
1 269 
1 270 
1 271 
1 272 
1 273 
1 274 
1 275 
1 276 
1 277 
1 278 
1 279 
1 280 
1 281 
1 282 
1 283 
1 284 
1 285 
1 286 
1 287 
1 288 
1 289 
1 290 
1 291 
1 292 
1 293 
1 294 
1 295 
1 296 
1 297 
1 298 
1 299 
1 300 
1 301 
1 302 
1 303 
1 304 
1 305 
1 306 
1 307 
1 308 
1 309 
1 310 
1 311 
1 312 
1 313 
1 314 
1 315 
1 316 
1 317 
1 318 
1 319 
1 320 
1 321 
1 322 
1 323 
1 324 
1 325 
1 326 
1 327 
1 328 
1 329 
1 330 
1 331 
1 332 
1 333 
1 334 
1 335 
1 336 
1 337 
1 338 
1 339 
1 340 
1 341 
1 342 
1 343 
1 344 
1 345 
1 346 
1 347 
1 348 
1 349 
1 350 
1 351 
1 352 
1 353 
1 354 
1 355 
1 356 
1 357 
1 358 
1 359 
1 360 
1 361 
1 362 
1 363 
1 364 
1 365 
1 366 
1 367 
1 368 
1 369 
1 370 
1 371 
1 372 
1 373 
1 374 
1 375 
1 376 
1 377 
1 378 
1 379 
1 380 
1 381 
1 382 
1 383 
1 384 
1 385 
1 386 
1 387 
1 388 
1 389 
1 390 
1 391 
1 392 
1 393 
1 394 
1 395 
1 396 
1 397 
1 398 
1 399 
1 400 
1 401 
1 402 
1 403 
1 404 
1 405 
1 406 
1 407 
1 408 
1 409 
1 410 
1 411 
1 412 
1 413 
1 414 
1 415 
1 416 
1 417 
1 418 
1 419 
1 420 
1 421 
1 422 
1 423 
1 424 
1 425 
1 426 
1 427 
1 428 
1 429 
1 430 
1 431 
1 432 
1 433 
1 434 
1 435 
1 436 
1 437 
1 438 
1 439 
1 440 
1 441 
1 442 
1 443 
1 444 
1 445 
1 446 
1 447 
1 448 
1 449 
1 450 
1 451 
1 452 
1 453 
1 454 
1 455 
1 456 
1 457 
1 458 
1 459 
1 460 
1 461 
1 462 
1 463 
1 464 
1 465 
1 466 
1 467 
1 468 
1 469 
1 470 
1 471 
1 472 
1 473 
1 474 
1 475 
1 476 
1 477 
1 478 
1 479 
1 480 
1 481 
1 482 
1 483 
1 484 
1 485 
1 486 
1 487 
1 488 
1 489 
1 490 
1 491 
1 492 
1 493 
1 494 
1 495 
1 496 
1 497 
1 498 
1 499 

POINT_DATA 500
FIELD FieldData 7
id 1 500 int
1 2 3 4 5 6 7 8 9 
10 11 12 13 14 15 16 17 18 
19 20 21 22 23 24 25 26 27 
28 29 30 31 32 33 34 35 36 
37 38 39 40 41 42 43 44 45 
46 47 48 49 50 51 52 53 54 
55 56 57 58 59 60 61 62 63 
64 65 66 67 68 69 70 71 72 
73 74 75 76 77 78 79 80 81 
82 83 84 85 86 87 88 89 90 
91 92 93 94 95 96 97 98 99 
100 101 102 103 104 105 106 107 108 
109 110 111 112 113 114 115 116 117 
118 119 120 121 122 123 124 125 126 
127 128 129 130 131 132 133 134 135 
136 137 138 139 140 141 142 143 144 
145 146 147 148 149 150 151 152 153 
154 155 156 157 158 159 160 161 162 
163 164 165 166 167 168 169 170 171 
172 173 174 175 176 177 178 179 180 
181 182 183 184 185 186 187 188 189 
190 191 192 193 194 195 196 197 198 
199 200 201 202 203 204 205 206 207 
208 209 210 211 212 213 214 215 216 
217 218 219 220 221 222 223 224 225 
226 227 228 229 230 231 232 233 234 
235 236 237 238 239 240 241 242 243 
244 245 246 247 248 249 250 251 252 
253 254 255 256 257 258 259 260 261 
262 263 264 265 266 267 268 269 270 
271 272 273 274 275 276 277 278 279 
280 281 282 283 284 285 286 287 288 
289 290 291 292 293 294 295 296 297 
298 299 300 301 302 303 304 305 306 
307 308 309 310 311 312 313 314 315 
316 317 318 319 320 321 322 323 324 
325 326 327 328 329 330 331 332 333 
334 335 336 337 338 339 340 341 342 
343 344 345 346 347 348 349 350 351 
352 353 354 355 356 357 358 359 360 
361 362 363 364 365 366 367 368 369 
370 371 372 373 374 375 376 377 378 
379 380 381 382 383 384 385 386 387 
388 389 390 391 392 393 394 395 396 
397 398 399 400 401 402 403 404 405 
406 407 408 409 410 411 412 413 414 
415 416 417 418 419 420 421 422 423 
424 425 426 427 428 429 430 431 432 
433 434 435 436 437 438 439 440 441 
442 443 444 445 446 447 448 449 450 
451 452 453 454 455 456 457 458 459 
460 461 462 463 464 465 466 467 468 
469 470 471 472 473 474 475 476 477 
478 479 480 481 482 483 484 485 486 
487 488 489 490 491 492 493 494 495 
496 497 498 499 500 
type 1 500 int
1 1 1 1 1 1 1 1 1 
1 1 1 1 1 1 1 1 1 
1 1 1 1 1 1 1 1 1 
1 1 1 1 1 1 1 1 1 
1 1 1 1 1 1 1 1 1 
1 1 1 1 1 1 1 1 1 
1 1 1 1 1 1 1 1 1 
1 1 1 1 1 1 1 1 1 
1 1 1 1 1 1 1 1 1 
1 1 1 1 1 1 1 1 1 
1 1 1 1 1 1 1 1 1 
1 1 1 1 1 1 1 1 1 
1 1 1 1 1 1 1 1 1 
1 1 1 1 1 1 1 1 1 
1 1 1 1 1 1 1 1 1 
1 1 1 1 1 1 1 1 1 
1 1 1 1 1 1 1 1 1 
1 1 1 1 1 1 1 1 1 
1 1 1 1 1 1 1 1 1 
1 1 1 1 1 1 1 1 1 
1 1 1 1 1 1 1 1 1 
1 1 1 1 1 1 1 1 1 
1 1 1 1 1 1 1 1 1 
1 1 1 1 1 1 1 1 1 
1 1 1 1 1 1 1 1 1 
1 1 1 1 1 1 1 1 1 
1 1 1 1 1 1 1 1 1 
1 1 1 1 1 1 1 1 1 
1 1 1 1 1 1 1 1 1 
1 1 1 1 1 1 1 1 1 
1 1 1 1 1 1 1 1 1 
1 1 1 1 1 1 1 1 1 
1 1 1 1 1 1 1 1 1 
1 1 1 1 1 1 1 1 1 
1 1 1 1 1 1 1 1 1 
1 1 1 1 1 1 1 1 1 
1 1 1 1 1 1 1 1 1 
1 1 1 1 1 1 1 1 1 
1 1 1 1 1 1 1 1 1 
1 1 1 1 1 1 1 1 1 
1 1 1 1 1 1 1 1 1 
1 1 1 1 1 1 1 1 1 
1 1 1 1 1 1 1 1 1 
1 1 1 1 1 1 1 1 1 
1 1 1 1 1 1 1 1 1 
1 1 1 1 1 1 1 1 1 
1 1 1 1 1 1 1 1 1 
1 1 1 1 1 1 1 1 1 
1 1 1 1 1 1 1 1 1 
1 1 1 1 1 1 1 1 1 
1 1 1 1 1 1 1 1 1 
1 1 1 1 1 1 1 1 1 
1 1 1 1 1 1 1 1 1 
1 1 1 1 1 1 1 1 1 
1 1 1 1 1 1 1 1 1 
1 1 1 1 1 
i 3 500 int
0 0 0 0 0 0 0 0 0 
0 0 0 0 0 0 0 0 0 
0 0 0 0 0 0 0 0 0 
0 0 0 0 0 0 0 0 0 
0 0 0 0 0 0 0 0 0 
0 0 0 0 0 0 0 0 0 
0 0 0 0 0 0 0 0 0 
0 0 0 0 0 0 0 0 0 
0 0 0 0 0 0 0 0 0 
0 0 0 0 0 0 0 0 0 
0 0 0 0 0 0 0 0 0 
0 0 0 0 0 0 0 0 0 
0 0 0 0 0 0 0 0 0 
0 0 0 0 0 0 0 0 0 
0 0 0 0 0 0 0 0 0 
0 0 0 0 0 0 0 0 0 
0 0 0 0 0 0 0 0 0 
0 0 0 0 0 0 0 0 0 
0 0 0 0 0 0 0 0 0 
0 0 0 0 0 0 0 0 0 
0 0 0 0 0 0 0 0 0 
0 0 0 0 0 0 0 0 0 
0 0 0 0 0 0 0 0 0 
0 0 0 0 0 0 0 0 0 
0 0 0 0 0 0 0 0 0 
0 0 0 0 0 0 0 0 0 
0 0 0 0 0 0 0 0 0 
0 0 0 0 0 0 0 0 0 
0 0 0 0 0 0 0 0 0 
0 0 0 0 0 0 0 0 0 
0 0 0 0 0 0 0 0 0 
0 0 0 0 0 0 0 0 0 
0 0 0 0 0 0 0 0 0 
0 0 0 0 0 0 0 0 0 
0 0 0 0 0 0 0 0 0 
0 0 0 0 0 0 0 0 0 
0 0 0 0 0 0 0 0 0 
0 0 0 0 0 0 0 0 0 
0 0 0 0 0 0 0 0 0 
0 0 0 0 0 0 0 0 0 
0 0 0 0 0 0 0 0 0 
0 0 0 0 0 0 0 0 0 
0 0 0 0 0 0 0 0 0 
0 0 0 0 0 0 0 0 0 
0 0 0 0 0 0 0 0 0 
0 0 0 0 0 0 0 0 0 
0 0 0 0 0 0 0 0 0 
0 0 0 0 0 0 0 0 0 
0 0 0 0 0 0 0 0 0 
0 0 0 0 0 0 0 0 0 
0 0 0 0 0 0 0 0 0 
0 0 0 0 0 0 0 0 0 
0 0 0 0 0 0 0 0 0 
0 0 0 0 0 0 0 0 0 
0 0 0 0 0 0 0 0 0 
0 0 0 0 0 0 0 0 0 
0 0 0 0 0 0 0 0 0 
0 0 0 0 0 0 0 0 0 
0 0 0 0 0 0 0 0 0 
0 0 0 0 0 0 0 0 0 
0 0 0 0 0 0 0 0 0 
0 0 0 0 0 0 0 0 0 
0 0 0 0 0 0 0 0 0 
0 0 0 0 0 0 0 0 0 
0 0 0 0 0 0 0 0 0 
0 0 0 0 0 0 0 0 0 
0 0 0 0 0 0 0 0 0 
0 0 0 0 0 0 0 0 0 
0 0 0 0 0 0 0 0 0 
0 0 0 0 0 0 0 0 0 
0 0 0 0 0 0 0 0 0 
0 0 0 0 0 0 0 0 0 
0 0 0 0 0 0 0 0 0 
0 0 0 0 0 0 0 0 0 
0 0 0 0 0 0 0 0 0 
0 0 0 0 0 0 0 0 0 
0 0 0 0 0 0 0 0 0 
0 0 0 0 0 0 0 0 0 
0 0 0 0 0 0 0 0 0 
0 0 0 0 0 0 0 0 0 
0 0 0 0 0 0 0 0 0 
0 0 0 0 0 0 0 0 0 
0 0 0 0 0 0 0 0 0 
0 0 0 0 0 0 0 0 0 
0 0 0 0 0 0 0 0 0 
0 0 0 0 0 0 0 0 0 
0 0 0 0 0 0 0 0 0 
0 0 0 0 0 0 0 0 0 
0 0 0 0 0 0 0 0 0 
0 0 0 0 0 0 0 0 0 
0 0 0 0 0 0 0 0 0 
0 0 0 0 0 0 0 0 0 
0 0 0 0 0 0 0 0 0 
0 0 0 0 0 0 0 0 0 
0 0 0 0 0 0 0 0 0 
0 0 0 0 0 0 0 0 0 
0 0 0 0 0 0 0 0 0 
0 0 0 0 0 0 0 0 0 
0 0 0 0 0 0 0 0 0 
0 0 0 0 0 0 0 0 0 
0 0 0 0 0 0 0 0 0 
0 0 0 0 0 0 0 0 0 
0 0 0 0 0 0 0 0 0 
0 0 0 0 0 0 0 0 0 
0 0 0 0 0 0 0 0 0 
0 0 0 0 0 0 0 0 0 
0 0 0 0 0 0 0 0 0 
0 0 0 0 0 0 0 0 0 
0 0 0 0 0 0 0 0 0 
0 0 0 0 0 0 0 0 0 
0 0 0 0 0 0 0 0 0 
0 0 0 0 0 0 0 0 0 
0 0 0 0 0 0 0 0 0 
0 0 0 0 0 0 0 0 0 
0 0 0 0 0 0 0 0 0 
0 0 0 0 0 0 0 0 0 
0 0 0 0 0 0 0 0 0 
0 0 0 0 0 0 0 0 0 
0 0 0 0 0 0 0 0 0 
0 0 0 0 0 0 0 0 0 
0 0 0 0 0 0 0 0 0 
0 0 0 0 0 0 0 0 0 
0 0 0 0 0 0 0 0 0 
0 0 0 0 0 0 0 0 0 
0 0 0 0 0 0 0 0 0 
0 0 0 0 0 0 0 0 0 
0 0 0 0 0 0 0 0 0 
0 0 0 0 0 0 0 0 0 
0 0 0 0 0 0 0 0 0 
0 0 0 0 0 0 0 0 0 
0 0 0 0 0 0 0 0 0 
0 0 0 0 0 0 0 0 0 
0 0 0 0 0 0 0 0 0 
0 0 0 0 0 0 0 0 0 
0 0 0 0 0 0 0 0 0 
0 0 0 0 0 0 0 0 0 
0 0 0 0 0 0 0 0 0 
0 0 0 0 0 0 0 0 0 
0 0 0 0 0 0 0 0 0 
0 0 0 0 0 0 0 0 0 
0 0 0 0 0 0 0 0 0 
0 0 0 0 0 0 0 0 0 
0 0 0 0 0 0 0 0 0 
0 0 0 0 0 0 0 0 0 
0 0 0 0 0 0 0 0 0 
0 0 0 0 0 0 0 0 0 
0 0 0 0 0 0 0 0 0 
0 0 0 0 0 0 0 0 0 
0 0 0 0 0 0 0 0 0 
0 0 0 0 0 0 0 0 0 
0 0 0 0 0 0 0 0 0 
0 0 0 0 0 0 0 0 0 
0 0 0 0 0 0 0 0 0 
0 0 0 0 0 0 0 0 0 
0 0 0 0 0 0 0 0 0 
0 0 0 0 0 0 0 0 0 
0 0 0 0 0 0 0 0 0 
0 0 0 0 0 0 0 0 0 
0 0 0 0 0 0 0 0 0 
0 0 0 0 0 0 0 0 0 
0 0 0 0 0 0 0 0 0 
0 0 0 0 0 0 0 0 0 
0 0 0 0 0 0 0 0 0 
0 0 0 0 0 0 0 0 0 
0 0 0 0 0 0 0 0 0 
0 0 0 0 0 0 0 0 0 
0 0 0 0 0 0 
v 3 500 double
-0.0606393 -0.00554946 0.0322889 -0.0567055 0.0196451 0.0225132 2.04197e-05 -4.11298e-05 1.89607e-05 
0.00157876 -0.00119011 -0.00105774 0.00104632 0.000682588 -0.00119077 0.00156996 -1.37547e-05 -0.00196791 
0.00301231 -0.00019405 -0.000125638 -0.000151738 0.000251374 0.000122295 0.00411362 0.000217131 8.44125e-05 
0.00133015 -0.001866 0.000208158 0.0110937 -0.000670248 -0.000186827 -0.00213135 0.000529664 -0.00211264 
0.00285733 0.00036189 -0.00204608 -0.072858 0.000386596 0.00191649 0.00230254 0.00129659 -0.00098697 
-0.040029 -0.000142727 -0.00749924 6.02929e-05 -3.40478e-05 2.64025e-05 -3.41608e-05 -0.000233247 -0.000958134 
0.0023035 -2.42862e-05 0.000178437 -0.00612527 -0.00380779 -0.0020524 0.00197255 0.000280128 0.000129249 
0.000725889 -0.00156475 -0.000729331 -0.00288395 -0.00155462 -0.000262088 0.00205525 -4.20032e-05 0.00011951 
-0.00146686 0.000780661 -0.000138576 -0.0473829 -0.00103404 0.0110822 0.000589029 -0.000569637 -0.000264998 
0.0143347 0.00128016 0.00430401 0.00201328 -0.0104045 0.000195955 0.00408826 3.34013e-05 7.34549e-05 
0.00069788 -0.000559311 7.62308e-05 0.0039769 0.0573858 0.01069 -0.0286962 0.00339714 -0.0355939 
-0.0566472 0.0142561 -0.0416535 0.00232785 -0.00113052 0.00048891 0.000889476 -0.00100369 -0.00136129 
-0.039488 -0.00193019 -0.0144262 1.00365e-05 0.00037017 4.03711e-05 0.00161199 -0.00188165 -0.00166683 
-0.000706904 -0.000460945 -0.00198954 0.0183497 -0.0234269 -4.19221e-11 0.00389844 0.000777062 -9.21944e-05 
-0.000571671 0.00149409 -0.00241735 -0.0645513 -5.36812e-06 0.0228724 0.00330119 0.000533863 7.6331e-05 
-0.00692416 0.00837751 -0.00233954 -0.000825764 3.27747e-05 7.84872e-05 4.92962e-05 -5.38118e-05 2.51209e-05 
-0.00374459 -0.000220247 -2.3351e-05 -0.000837217 -0.00908494 -0.0119424 -0.0482598 -0.00147218 0.0152004 
-0.00390995 0.00102851 -0.00221882 0.00127048 -1.92942e-05 -0.00125219 0.00282191 -8.6012e-05 2.3839e-05 
0.000541187 -0.000339491 -0.00031285 -0.000383596 -0.0009576 0.000526115 0.00411715 -0.000511494 -9.22387e-05 
0.00410277 0.00153837 -0.00115383 0.00081733 3.66199e-05 -0.00195437 0.00148351 -0.000841166 -0.0053938 
-0.000325098 -0.000109717 3.18799e-05 0.0215178 -0.0102723 0.000635047 0.000411933 6.5478e-05 -0.00152125 
0.00198043 -0.00107641 -0.000310244 0.00394812 -6.22414e-05 -6.59477e-05 -0.00421907 -0.00645429 -0.00265266 
-0.0517893 -0.00886318 -0.0084724 -0.0132468 0.0360408 -0.0062429 0.00434095 0.0084336 -0.00173552 
6.11477e-05 2.38375e-07 2.9751e-06 -0.00184058 -0.000138221 0.000123939 -0.00308581 0.00112963 0.000468791 
0.00254947 -0.00118377 -0.00169718 0.00156705 0.00321162 -0.000304541 0.00310262 0.000109281 -0.000222912 
0.00394156 0.000418507 2.84039e-05 0.000510173 9.14799e-06 -0.00170129 -0.00859997 0.000170844 -0.00414266 
-0.040761 -0.0165327 -0.00140046 0.00175873 0.000230548 -0.00135602 0.00320114 0.000440146 -0.000382153 
0.000337755 -0.00034691 3.18781e-05 -0.00676329 0.0109794 -0.00378225 0.0018904 1.1271e-05 -0.000946595 
0.0308567 -0.0154542 -0.00879247 0.00375497 -0.000287965 -0.000507109 -0.000141014 9.74636e-06 0.000261594 
-0.0255468 -0.104599 -0.0388975 -0.108712 0.0797374 0.023823 -1.08385e-06 4.03655e-06 3.59691e-05 
0.00343985 -0.000321993 -0.000104437 -0.0150224 -0.0144226 -0.0505292 -0.000997096 -3.37055e-05 -0.00161784 
-2.35087e-05 -6.59858e-05 -4.61552e-07 1.56946e-05 1.1371e-06 -7.18036e-06 0.00179991 -0.00182495 -0.00123863 
0.00370135 -0.000437849 -0.000302297 0.00403827 0.00020987 9.57941e-05 -0.00135073 -0.000658652 -8.49073e-05 
0.00368133 1.18677e-05 1.44248e-05 0.00312786 0.000221351 -7.45508e-05 0.00178269 4.01567e-05 1.24034e-13 
-0.00102689 0.00153201 -0.00154703 0.00119124 0.00569814 -0.00673041 0.00220588 -7.48822e-05 -0.00071316 
0.211864 -0.381424 -0.531601 0.00262698 -0.000539257 -7.03763e-05 0.00219535 0.000782514 -2.39834e-05 
0.00243011 -1.14772e-05 -3.79991e-05 0.00443209 -0.000433169 -0.00162604 0.0016277 -0.00061911 3.72507e-05 
0.00429049 -0.00113501 5.72462e-05 -1.84568e-05 -0.000328027 -0.000908163 -0.0629599 0.00424233 0.000897279 
0.00401575 0.000425569 0.000256657 0.000967815 -0.00158963 9.36503e-06 0.00828955 0.00319201 0.00479497 
-0.00871091 0.00193914 -0.0132531 0.00141383 0.00182225 -0.00235813 0.00412732 -0.000939458 -0.000584074 
-0.0034869 -0.0047588 0.00014261 -0.00959145 -0.00440289 -0.0058874 -0.00714953 -0.00189601 -0.00274327 
-0.00909979 -0.000430401 -0.000200779 -0.00165836 0.000963913 0.000358512 0.00279155 -0.000164108 6.39551e-05 
0.000464821 0.000976332 1.91277e-12 -0.0189061 -0.0085128 -0.00384086 0.000308107 -0.000463591 -0.000649743 
-2.91291e-05 5.80687e-06 3.97372e-05 0.00320108 -0.000732506 -0.0010378 -0.000366347 0.00283075 0.000154456 
0.00242595 0.00261423 2.86511e-05 -1.95185e-05 -1.25858e-05 7.17345e-05 0.00425604 0.000713556 0.0001018 
-0.0797722 -0.0221401 0.0038413 0.000790027 -0.00219523 -0.0010865 0.00762979 -0.00268567 -0.00143609 
-0.000216585 -0.00265946 -0.00487341 0.0044217 -0.0020401 -4.22895e-05 -0.0101945 -0.033932 0.0036507 
-0.0226145 0.0354453 -0.105356 0.000400687 0.000188862 7.27479e-05 -0.0283595 0.0306956 0.0190687 
-0.00637003 0.00244848 -0.0111685 -0.0357906 0.00309122 0.00077134 0.00181413 -0.000725265 -0.000998184 
0.0039054 -0.000360621 -5.23193e-05 -0.0581525 0.0235684 0.00181202 0.00382156 0.000925889 -2.1229e-05 
0.00426155 0.000127637 -3.56327e-05 -0.0325703 -0.000505708 -0.0063857 -4.07109e-06 2.15183e-06 6.31447e-06 
-0.00454849 0.000601823 -0.000915642 0.00384852 0.0160826 0.00724176 -0.0189739 -0.00705963 -0.00288434 
0.00035973 -0.00107291 6.80874e-05 5.58958e-05 0.000393738 0.00111794 -1.44024e-05 1.60471e-05 -5.5401e-06 
0.016304 0.0377105 0.00382043 2.49089e-06 -1.30692e-05 -1.65224e-05 0.00288263 0.000970334 0.000677061 