# vtk DataFile Version 4.0
Generated by LIGGGHTS
ASCII
DATASET POLYDATA
POINTS 500 float
0.401587 -0.022038 -0.732125 0.469267 -0.0430296 -1.07258 0.341442 -0.0436929 -1.0908 
0.364711 -0.0356322 -1.1654 0.207253 -0.0153632 -1.15498 0.355405 -0.0362152 -0.861643 
0.349158 -0.0383782 -0.958453 0.22612 -0.0343564 -1.03856 0.283184 -0.0411446 -0.979821 
0.30601 -0.013343 -0.96213 0.477229 -0.0383435 -1.05157 0.401323 -0.0290779 -1.16434 
0.356084 -0.0163756 -1.10538 0.417852 -0.00985416 -1.08241 0.175667 -0.0357828 -1.04378 
0.246254 -0.00749726 -0.267207 0.460414 -0.0241277 -1.19048 0.366929 -0.0298603 -1.09959 
0.3545 -0.0109472 -0.546958 0.376101 -0.0382503 -1.12599 0.309563 -0.032179 -0.954143 
0.459219 -0.0192635 -1.00947 0.413473 -0.0443301 -1.13735 0.332322 -0.020599 -1.10975 
0.215356 -0.0197201 -0.245113 0.384383 -0.036564 -1.18589 0.395087 -0.0298609 -1.11517 
0.438663 -0.01503 -1.07616 0.44093 -0.0331251 -1.19664 0.229868 -0.0448774 -0.243517 
0.357264 -0.0430383 -1.13722 0.469396 -0.0354958 -1.17818 0.231886 -0.00761379 -0.24423 
0.317203 -0.0179636 -1.18661 0.215018 -0.0296618 -0.24457 0.294025 -0.00585868 -0.346906 
0.364112 -0.0394048 -0.964722 0.269489 -0.0106747 -1.06657 0.361232 -0.0348476 -1.09076 
0.382296 -0.0192796 -1.15687 0.205083 -0.0149108 -0.24485 0.295351 -0.0181072 -1.18431 
0.317208 -0.04208 -0.945238 0.414812 -0.0377973 -1.05436 0.287644 -0.0308224 -1.12653 
0.367459 -0.0245495 -0.773537 0.310714 -0.00757143 -0.842454 0.346453 -0.0164565 -1.11429 
0.431039 -0.0369162 -0.960923 0.379102 -0.0388055 -0.981233 0.473207 -0.0167976 -1.03678 
0.359562 -0.0416229 -1.00775 0.403774 -0.0293535 -1.0397 0.364164 -0.0429014 -0.839895 
0.344127 -0.00792345 -1.12915 0.3747 -0.00960061 -1.07669 0.215197 -0.00518821 -0.24422 
0.252181 -0.0251192 -1.18147 0.337981 -0.0246662 -1.02528 0.346391 -0.0202648 -0.686865 
0.378172 -0.0393943 -0.960263 0.382221 -0.0096556 -0.84974 0.395247 -0.0114436 -0.931264 
0.310122 -0.0132812 -0.377433 0.331465 -0.0239413 -0.741936 0.410581 -0.0331387 -0.917161 
0.345589 -0.0088551 -0.966605 0.393519 -0.0360112 -0.964356 0.404968 -0.011665 -1.09832 
0.327984 -0.0244452 -0.895701 0.401685 -0.0049611 -0.780603 0.350469 -0.027776 -1.01908 
0.354613 -0.0110312 -0.697542 0.381331 -0.00729395 -0.892367 0.433879 -0.0320185 -0.834941 
0.372646 -0.0296744 -1.05749 0.343013 -0.0429395 -0.541761 0.444078 -0.00739251 -0.977345 
0.372606 -0.0173593 -0.9989 0.398754 -0.0169571 -0.90566 0.350654 -0.0442365 -0.938666 
0.273244 -0.0434979 -0.835584 0.35613 -0.0445651 -0.500425 0.326456 -0.0259235 -0.814851 
0.205207 -0.0349305 -0.244918 0.368064 -0.0444793 -0.721712 0.333336 -0.0400646 -0.862549 
0.281019 -0.0411239 -0.319155 0.40969 -0.0187858 -0.867379 0.350124 -0.0169741 -0.803154 
0.368935 -0.00926974 -0.775824 0.415273 -0.0186426 -0.696298 0.376851 -0.0275404 -0.981672 
0.324727 -0.0335096 -0.851231 0.298863 -0.0128177 -0.912908 0.355113 -0.00793656 -0.744209 
0.334041 -0.0297551 -0.4307 0.414869 -0.0282976 -0.949269 0.205299 -0.00496002 -0.244281 
0.42712 -0.0363863 -0.842471 0.383003 -0.018217 -0.733547 0.205025 -0.044903 -0.244538 
0.342772 -0.0250978 -0.811572 0.38823 -0.00899439 -0.692377 0.352805 -0.0121247 -0.651641 
0.297478 -0.00620739 -0.837595 0.380171 -0.0267527 -0.807031 0.321178 -0.0400636 -0.89649 
0.359218 -0.0184641 -0.708951 0.3485 -0.00757477 -0.519594 0.357484 -0.0173446 -0.595423 
0.351163 -0.0145736 -0.815368 0.395844 -0.00657487 -0.871462 0.375231 -0.00979739 -0.66805 
0.268976 -0.0343483 -0.762465 0.353435 -0.0380479 -0.880609 0.209656 -0.0184454 -0.23671 
0.392293 -0.02114 -0.784853 0.398442 -0.0439866 -0.735797 0.322064 -0.0440679 -0.398211 
0.372586 -0.00777186 -0.615869 0.343253 -0.0238265 -0.464638 0.388236 -0.0170581 -0.795423 
0.351637 -0.0296854 -0.469346 0.365498 -0.017196 -0.618735 0.309106 -0.0244327 -0.373242 
0.205052 -0.0249125 -0.244942 0.391792 -0.00647107 -0.712277 0.375906 -0.0378734 -0.694074 
0.353969 -0.0395677 -0.67901 0.384224 -0.0440172 -0.779386 0.389858 -0.0339764 -0.719117 
0.373637 -0.0431226 -0.639739 0.344795 -0.00588577 -0.621793 0.357623 -0.0286608 -0.563036 
0.354606 -0.0319428 -0.514893 0.370064 -0.0277872 -0.739643 0.371701 -0.00842057 -0.706578 
0.409838 -0.0435892 -0.765891 0.273699 -0.0156831 -0.309691 0.378909 -0.00498694 -0.676455 
0.370714 -0.0299687 -0.560786 0.383203 -0.04433 -0.709333 0.378598 -0.038771 -0.680025 
0.389618 -0.029186 -0.623729 0.358359 -0.0420843 -0.638513 0.350221 -0.0134454 -0.635757 
0.311208 -0.0320873 -0.355981 0.372047 -0.00979637 -0.658528 0.346492 -0.0443146 -0.513989 
0.359446 -0.00510787 -0.587738 0.345512 -0.0386895 -0.500748 0.363709 -0.0329018 -0.644987 
0.36499 -0.0449945 -0.615336 0.21535 -0.044922 -0.242997 0.355089 -0.0271949 -0.698156 
0.339855 -0.0102891 -0.498495 0.373991 -0.00712654 -0.642803 0.39028 -0.0148948 -0.76926 
0.374798 -0.0319728 -0.653626 0.330836 -0.0306687 -0.592755 0.341975 -0.00827066 -0.670463 
0.34647 -0.0196232 -0.570894 0.320152 -0.03795 -0.406079 0.364875 -0.0249044 -0.610258 
0.354271 -0.0285401 -0.479842 0.376802 -0.0391244 -0.631091 0.339378 -0.0180476 -0.488935 
0.33727 -0.0196578 -0.607811 0.342022 -0.0254124 -0.590894 0.365135 -0.0445738 -0.559559 
0.340605 -0.0247522 -0.548081 0.243401 -0.0311607 -0.251822 0.379747 -0.0195556 -0.635233 
0.356086 -0.00635627 -0.610901 0.351651 -0.0223537 -0.520834 0.317184 -0.00707427 -0.410745 
0.370814 -0.0383802 -0.673613 0.319477 -0.00597049 -0.438521 0.374541 -0.0141926 -0.682199 
0.273653 -0.0437607 -0.310465 0.360713 -0.0136293 -0.512339 0.373544 -0.0300669 -0.597541 
0.356135 -0.0364712 -0.608101 0.35884 -0.0127344 -0.562845 0.356628 -0.0184964 -0.642219 
0.335322 -0.0447547 -0.52783 0.252335 -0.00528552 -0.251351 0.365101 -0.0363337 -0.55236 
0.342774 -0.0231829 -0.506439 0.32239 -0.012735 -0.457342 0.264848 -0.0230777 -0.296868 
0.337787 -0.0444833 -0.428351 0.313777 -0.0194507 -0.623731 0.224946 -0.0236694 -0.245144 
0.351879 -0.00614365 -0.465349 0.376392 -0.017368 -0.613731 0.357427 -0.0442779 -0.486934 
0.20517 -0.0154603 -0.228253 0.359531 -0.0100575 -0.522353 0.34023 -0.0449738 -0.48136 
0.339515 -0.0388232 -0.440938 0.346442 -0.0159325 -0.43295 0.303951 -0.0379497 -0.365363 
0.359666 -0.0206092 -0.498567 0.339859 -0.0315883 -0.412434 0.364503 -0.0248742 -0.529322 
0.361637 -0.0390034 -0.511905 0.328957 -0.00994595 -0.3767 0.256392 -0.0443957 -0.285343 
0.276004 -0.00581803 -0.319683 0.342586 -0.0278157 -0.482275 0.320821 -0.034132 -0.394929 
0.344707 -0.034463 -0.461954 0.35158 -0.0442765 -0.45495 0.209418 -0.00508969 -0.235089 
0.347571 -0.030143 -0.432019 0.357177 -0.00781588 -0.498078 0.324357 -0.0401908 -0.487886 
0.317045 -0.0299799 -0.382499 0.349515 -0.0166226 -0.476927 0.205005 -0.0437648 -0.234615 
0.340571 -0.0086525 -0.429362 0.333706 -0.0347732 -0.396289 0.31126 -0.0398015 -0.381962 
0.335316 -0.0167607 -0.415027 0.237568 -0.0209834 -0.252624 0.306046 -0.00506725 -0.371427 
0.293239 -0.0396774 -0.341941 0.330331 -0.0115039 -0.427872 0.332995 -0.04273 -0.464961 
0.331825 -0.0437206 -0.417621 0.288569 -0.0297858 -0.332471 0.344258 -0.00491496 -0.456364 
0.286543 -0.0176589 -0.314129 0.306537 -0.0410494 -0.348507 0.35149 -0.0155772 -0.490934 
0.341863 -0.0434248 -0.41733 0.329458 -0.0426042 -0.405 0.333924 -0.00878734 -0.474406 
0.337842 -0.00691197 -0.417731 0.287414 -0.0216913 -0.30263 0.324077 -0.0209208 -0.408681 
0.253578 -0.044957 -0.274113 0.32396 -0.00513392 -0.396936 0.327374 -0.0331372 -0.414301 
0.336379 -0.0226745 -0.38921 0.337265 -0.0305459 -0.451861 0.278453 -0.0242343 -0.321263 
0.3342 -0.0196465 -0.372719 0.205031 -0.00492176 -0.225974 0.301461 -0.0183629 -0.32863 
0.337065 -0.0325911 -0.377225 0.329967 -0.0424697 -0.328405 0.298316 -0.0271363 -0.350557 
0.343796 -0.0301526 -0.421636 0.21884 -0.0125733 -0.238183 0.330425 -0.0302407 -0.352018 
0.327644 -0.018428 -0.342953 0.205117 -0.0277084 -0.235294 0.281118 -0.0315573 -0.311236 
0.306691 -0.00801142 -0.34792 0.32113 -0.0191419 -0.350881 0.315589 -0.019674 -0.290011 
0.331629 -0.00935803 -0.388833 0.25823 -0.0315488 -0.28797 0.211926 -0.0360741 -0.237587 
0.321623 -0.0346158 -0.299822 0.328789 -0.0265263 -0.384471 0.228835 -0.0345457 -0.245077 
0.292998 -0.0199488 -0.291339 0.223954 -0.00544782 -0.23314 0.327888 -0.0191807 -0.398843 
0.288653 -0.0384796 -0.30916 0.300977 -0.0168236 -0.33901 0.274864 -0.0187962 -0.298705 
0.303602 -0.0426847 -0.336326 0.321001 -0.00702909 -0.343912 0.267878 -0.0327712 -0.300414 
0.25565 -0.0105852 -0.269735 0.318505 -0.0417254 -0.293066 0.300501 -0.0282035 -0.340102 
0.244423 -0.0119258 -0.255108 0.270165 -0.00596478 -0.290464 0.207851 -0.0245402 -0.222319 
0.254991 -0.0282119 -0.252865 0.26563 -0.0388596 -0.286299 0.310509 -0.0270261 -0.294823 
0.304215 -0.00501225 -0.285193 0.302669 -0.00844572 -0.32636 0.294731 -0.0235784 -0.32034 
0.2828 -0.0429249 -0.330656 0.301963 -0.0420934 -0.297564 0.266008 -0.0215819 -0.284471 
0.274172 -0.00552268 -0.300839 0.271858 -0.0441267 -0.299095 0.290847 -0.010003 -0.335579 
0.320124 -0.0302871 -0.329834 0.305511 -0.0129558 -0.36532 0.311014 -0.00630093 -0.296978 
0.239286 -0.0408734 -0.248913 0.277324 -0.0208145 -0.289138 0.218864 -0.0243204 -0.236963 
0.299508 -0.0337917 -0.265253 0.283168 -0.0423907 -0.264951 0.262227 -0.0108489 -0.279418 
0.242541 -0.0062272 -0.247109 0.261025 -0.00602196 -0.260666 0.298421 -0.029668 -0.289194 
0.252971 -0.01716 -0.25797 0.312278 -0.03412 -0.286495 0.205575 -0.0355674 -0.228939 
0.222384 -0.0417025 -0.23671 0.286386 -0.0450664 -0.287211 0.275033 -0.0124597 -0.27699 
0.262686 -0.0370125 -0.276148 0.244287 -0.0449341 -0.26194 0.265757 -0.0152778 -0.268681 
0.297935 -0.0282975 -0.303109 0.228335 -0.0170659 -0.23713 0.28084 -0.0156312 -0.256774 
0.236147 -0.0444758 -0.235477 0.267438 -0.0383252 -0.266085 0.254495 -0.0351259 -0.267019 
0.246167 -0.018536 -0.247163 0.214716 -0.0211202 -0.228417 0.215503 -0.00971363 -0.228151 
0.253362 -0.007688 -0.237579 0.268049 -0.0304947 -0.259458 0.235737 -0.0234735 -0.24298 
0.210656 -0.033888 -0.220333 0.239908 -0.0318253 -0.239349 0.284684 -0.0252781 -0.261897 
0.256467 -0.0215112 -0.272268 0.237799 -0.0142979 -0.23909 0.214184 -0.0423543 -0.229248 
0.266312 -0.0108515 -0.253892 0.269162 -0.00521366 -0.266895 0.255218 -0.0450199 -0.264188 
0.230108 -0.0337594 -0.235371 0.251821 -0.036546 -0.234934 0.23666 -0.0188118 -0.225822 
0.245188 -0.043691 -0.231171 0.23777 -0.0364329 -0.229749 0.258949 -0.0379896 -0.257116 
0.209378 -0.0117602 -0.22003 0.223059 -0.042727 -0.223179 0.215957 -0.0316993 -0.229402 
0.246498 -0.0448589 -0.242503 0.219804 -0.00479311 -0.220311 0.249069 -0.0238057 -0.229379 
0.223709 -0.0257466 -0.219599 0.238537 -0.00598501 -0.233593 0.255729 -0.0286378 -0.242159 
0.236778 -0.00702876 -0.221454 0.227732 -0.0141642 -0.225943 0.20596 -0.0448428 -0.224249 
0.257071 -0.00601941 -0.228161 0.229841 -0.0249857 -0.230797 0.25006 -0.0375228 -0.24822 
0.241845 -0.0276316 -0.211138 0.222932 -0.0138397 -0.196305 0.239363 -0.0133639 -0.204825 
0.212223 -0.0396908 -0.18993 0.245269 -0.042708 -0.199835 0.219045 -0.016746 -0.216946 
0.234738 -0.0440716 -0.221081 0.223579 -0.0402721 -0.20367 0.246267 -0.0143084 -0.220157 
0.231694 -0.0344254 -0.198516 0.21491 -0.0439938 -0.2178 0.212792 -0.0139673 -0.197926 
0.23437 -0.0434379 -0.190958 0.241085 -0.0319293 -0.189488 0.228403 -0.0230717 -0.205053 
0.215683 -0.0286081 -0.199914 0.231258 -0.00656251 -0.189318 0.249728 -0.0209895 -0.203355 
0.240207 -0.0375411 -0.215493 0.246906 -0.0097555 -0.190423 0.218758 -0.0192461 -0.179956 
0.22347 -0.0239132 -0.162536 0.227285 -0.0125341 -0.173397 0.234705 -0.0277703 -0.158916 
0.240215 -0.0209493 -0.168603 0.212641 -0.0106498 -0.161747 0.246657 -0.0390692 -0.17972 
0.246488 -0.0281392 -0.158855 0.215531 -0.0348766 -0.16312 0.238564 -0.0129266 -0.150929 
0.248659 -0.0263109 -0.180472 0.241399 -0.0419343 -0.162902 0.226813 -0.037614 -0.171073 
0.211136 -0.043427 -0.170583 0.24613 -0.00888427 -0.161083 0.222426 -0.00895607 -0.151098 
0.224795 -0.0280399 -0.184347 0.23273 -0.0216566 -0.182492 0.231219 -0.0409913 -0.153189 
0.210703 -0.0244908 -0.171095 0.243872 -0.00589956 -0.140193 0.219393 -0.0235227 -0.120997 
0.249506 -0.0199437 -0.149507 0.216759 -0.0157405 -0.132964 0.239835 -0.0355729 -0.122735 
0.243835 -0.026201 -0.131721 0.232569 -0.0112477 -0.124398 0.248592 -0.0364903 -0.142973 
0.211945 -0.0299311 -0.116456 0.248477 -0.0431073 -0.116548 0.214551 -0.0234653 -0.144618 
0.213803 -0.0400907 -0.119963 0.249062 -0.00566822 -0.11519 0.224238 -0.0329328 -0.137843 
0.248878 -0.0179202 -0.11575 0.233195 -0.0442137 -0.114909 0.230274 -0.0268622 -0.122299 
0.233856 -0.0207803 -0.141586 0.211322 -0.0354951 -0.139122 0.218758 -0.0449267 -0.132944 
0.234444 -0.0382428 -0.0979186 0.220893 -0.0395294 -0.0890943 0.238571 -0.0192514 -0.0981832 
0.228711 -0.0118739 -0.104645 0.213602 -0.0205095 -0.0962488 0.248131 -0.0166671 -0.0826854 
0.223109 -0.0181207 -0.0879741 0.246147 -0.0379518 -0.0998525 0.213334 -0.00714674 -0.0848687 
0.237354 -0.0310019 -0.108063 0.226477 -0.0278401 -0.083504 0.226227 -0.0324903 -0.103332 
0.239523 -0.00864715 -0.0957014 0.220429 -0.0101749 -0.113764 0.236707 -0.0278034 -0.0856015 
0.223423 -0.00527069 -0.0951659 0.210716 -0.0363875 -0.0916545 0.210077 -0.0114541 -0.107415 
0.249318 -0.0286102 -0.106978 0.210352 -0.0273632 -0.0833317 0.225589 -0.00807897 -0.0666126 
0.232435 -0.0418219 -0.0738369 0.243503 -0.0351157 -0.0681125 0.230396 -0.0176543 -0.0557871 
0.238971 -0.0055175 -0.0791814 0.215233 -0.00806608 -0.0551742 0.23046 -0.0167272 -0.0776012 
0.249582 -0.0350093 -0.0556798 0.233368 -0.0247631 -0.0693546 0.218724 -0.0231419 -0.0634634 
0.247613 -0.00921427 -0.0707362 0.246377 -0.0167903 -0.0599476 0.21287 -0.0393291 -0.0610389 
0.247777 -0.0447024 -0.0794649 0.213608 -0.0068407 -0.0697245 0.248204 -0.0271035 -0.081123 
0.239176 -0.0418961 -0.0546929 0.223697 -0.0431208 -0.0669785 0.227848 -0.0332376 -0.0558909 
0.212346 -0.044974 -0.0797302 0.241305 -0.0177234 -0.0469089 0.244548 -0.0379417 -0.0373027 
0.234661 -0.00816826 -0.0370701 0.229919 -0.0193797 -0.0324165 0.211536 -0.0338126 -0.0315687 
0.214349 -0.0200955 -0.0490754 0.221157 -0.0143995 -0.0311339 0.231213 -0.005288 -0.0531518 
0.243328 -0.0197809 -0.0332203 0.233298 -0.0298872 -0.0431987 0.212884 -0.00707634 -0.0425698 
0.226422 -0.0333351 -0.0341509 0.213564 -0.0209664 -0.0311037 0.241571 -0.0288258 -0.052861 
0.227267 -0.0434518 -0.0443218 0.240382 -0.00722492 -0.0474787 0.248431 -0.00814176 -0.0385599 
0.234241 -0.0426811 -0.0310501 0.210085 -0.0426107 -0.0473318 0.223465 -0.0166149 -0.0431214 
0.212966 -0.0382415 -0.0177739 0.24559 -0.0433386 -0.0194559 0.217606 -0.00828278 -0.0155122 
0.229662 -0.0245021 -0.0129042 0.229672 -0.0146289 -0.0220337 0.22835 -0.0399226 -0.0228323 
0.246693 -0.0258093 -0.0249905 0.237046 -0.0110775 -0.0147049 0.218363 -0.0200291 -0.014458 
0.249723 -0.0158387 -0.0153342 0.212163 -0.0246003 -0.0213086 0.236173 -0.0417103 -0.0127755 
0.213241 -0.00718381 -0.0291346 0.220645 -0.0296722 -0.0185631 0.21038 -0.0441861 -0.0300357 
0.24883 -0.0313142 -0.0138202 0.226361 -0.0407292 -0.0110283 0.236713 -0.0314384 -0.018885 
0.242008 -0.0103202 -0.0236867 0.240793 -0.02137 -0.0173464 
VERTICES 500 1000
1 0 
1 1 
1 2 
1 3 
1 4 
1 5 
1 6 
1 7 
1 8 
1 9 
1 10 
1 11 
1 12 
1 13 
1 14 
1 15 
1 16 
1 17 
1 18 
1 19 
1 20 
1 21 
1 22 
1 23 
1 24 
1 25 
1 26 
1 27 
1 28 
1 29 
1 30 
1 31 
1 32 
1 33 
1 34 
1 35 
1 36 
1 37 
1 38 
1 39 
1 40 
1 41 
1 42 
1 43 
1 44 
1 45 
1 46 
1 47 
1 48 
1 49 
1 50 
1 51 
1 52 
1 53 
1 54 
1 55 
1 56 
1 57 
1 58 
1 59 
1 60 
1 61 
1 62 
1 63 
1 64 
1 65 
1 66 
1 67 
1 68 
1 69 
1 70 
1 71 
1 72 
1 73 
1 74 
1 75 
1 76 
1 77 
1 78 
1 79 
1 80 
1 81 
1 82 
1 83 
1 84 
1 85 
1 86 
1 87 
1 88 
1 89 
1 90 
1 91 
1 92 
1 93 
1 94 
1 95 
1 96 
1 97 
1 98 
1 99 
1 100 
1 101 
1 102 
1 103 
1 104 
1 105 
1 106 
1 107 
1 108 
1 109 
1 110 
1 111 
1 112 
1 113 
1 114 
1 115 
1 116 
1 117 
1 118 
1 119 
1 120 
1 121 
1 122 
1 123 
1 124 
1 125 
1 126 
1 127 
1 128 
1 129 
1 130 
1 131 
1 132 
1 133 
1 134 
1 135 
1 136 
1 137 
1 138 
1 139 
1 140 
1 141 
1 142 
1 143 
1 144 
1 145 
1 146 
1 147 
1 148 
1 149 
1 150 
1 151 
1 152 
1 153 
1 154 
1 155 
1 156 
1 157 
1 158 
1 159 
1 160 
1 161 
1 162 
1 163 
1 164 
1 165 
1 166 
1 167 
1 168 
1 169 
1 170 
1 171 
1 172 
1 173 
1 174 
1 175 
1 176 
1 177 
1 178 
1 179 
1 180 
1 181 
1 182 
1 183 
1 184 
1 185 
1 186 
1 187 
1 188 
1 189 
1 190 
1 191 
1 192 
1 193 
1 194 
1 195 
1 196 
1 197 
1 198 
1 199 
1 200 
1 201 
1 202 
1 203 
1 204 
1 205 
1 206 
1 207 
1 208 
1 209 
1 210 
1 211 
1 212 
1 213 
1 214 
1 215 
1 216 
1 217 
1 218 
1 219 
1 220 
1 221 
1 222 
1 223 
1 224 
1 225 
1 226 
1 227 
1 228 
1 229 
1 230 
1 231 
1 232 
1 233 
1 234 
1 235 
1 236 
1 237 
1 238 
1 239 
1 240 
1 241 
1 242 
1 243 
1 244 
1 245 
1 246 
1 247 
1 248 
1 249 
1 250 
1 251 
1 252 
1 253 
1 254 
1 255 
1 256 
1 257 
1 258 
1 259 
1 260 
1 261 
1 262 
1 263 
1 264 
1 265 
1 266 
1 267 
1 268 
1 269 
1 270 
1 271 
1 272 
1 273 
1 274 
1 275 
1 276 
1 277 
1 278 
1 279 
1 280 
1 281 
1 282 
1 283 
1 284 
1 285 
1 286 
1 287 
1 288 
1 289 
1 290 
1 291 
1 292 
1 293 
1 294 
1 295 
1 296 
1 297 
1 298 
1 299 
1 300 
1 301 
1 302 
1 303 
1 304 
1 305 
1 306 
1 307 
1 308 
1 309 
1 310 
1 311 
1 312 
1 313 
1 314 
1 315 
1 316 
1 317 
1 318 
1 319 
1 320 
1 321 
1 322 
1 323 
1 324 
1 325 
1 326 
1 327 
1 328 
1 329 
1 330 
1 331 
1 332 
1 333 
1 334 
1 335 
1 336 
1 337 
1 338 
1 339 
1 340 
1 341 
1 342 
1 343 
1 344 
1 345 
1 346 
1 347 
1 348 
1 349 
1 350 
1 351 
1 352 
1 353 
1 354 
1 355 
1 356 
1 357 
1 358 
1 359 
1 360 
1 361 
1 362 
1 363 
1 364 
1 365 
1 366 
1 367 
1 368 
1 369 
1 370 
1 371 
1 372 
1 373 
1 374 
1 375 
1 376 
1 377 
1 378 
1 379 
1 380 
1 381 
1 382 
1 383 
1 384 
1 385 
1 386 
1 387 
1 388 
1 389 
1 390 
1 391 
1 392 
1 393 
1 394 
1 395 
1 396 
1 397 
1 398 
1 399 
1 400 
1 401 
1 402 
1 403 
1 404 
1 405 
1 406 
1 407 
1 408 
1 409 
1 410 
1 411 
1 412 
1 413 
1 414 
1 415 
1 416 
1 417 
1 418 
1 419 
1 420 
1 421 
1 422 
1 423 
1 424 
1 425 
1 426 
1 427 
1 428 
1 429 
1 430 
1 431 
1 432 
1 433 
1 434 
1 435 
1 436 
1 437 
1 438 
1 439 
1 440 
1 441 
1 442 
1 443 
1 444 
1 445 
1 446 
1 447 
1 448 
1 449 
1 450 
1 451 
1 452 
1 453 
1 454 
1 455 
1 456 
1 457 
1 458 
1 459 
1 460 
1 461 
1 462 
1 463 
1 464 
1 465 
1 466 
1 467 
1 468 
1 469 
1 470 
1 471 
1 472 
1 473 
1 474 
1 475 
1 476 
1 477 
1 478 
1 479 
1 480 
1 481 
1 482 
1 483 
1 484 
1 485 
1 486 
1 487 
1 488 
1 489 
1 490 
1 491 
1 492 
1 493 
1 494 
1 495 
1 496 
1 497 
1 498 
1 499 

POINT_DATA 500
FIELD FieldData 7
id 1 500 int
1 2 3 4 5 6 7 8 9 
10 11 12 13 14 15 16 17 18 
19 20 21 22 23 24 25 26 27 
28 29 30 31 32 33 34 35 36 
37 38 39 40 41 42 43 44 45 
46 47 48 49 50 51 52 53 54 
55 56 57 58 59 60 61 62 63 
64 65 66 67 68 69 70 71 72 
73 74 75 76 77 78 79 80 81 
82 83 84 85 86 87 88 89 90 
91 92 93 94 95 96 97 98 99 
100 101 102 103 104 105 106 107 108 
109 110 111 112 113 114 115 116 117 
118 119 120 121 122 123 124 125 126 
127 128 129 130 131 132 133 134 135 
136 137 138 139 140 141 142 143 144 
145 146 147 148 149 150 151 152 153 
154 155 156 157 158 159 160 161 162 
163 164 165 166 167 168 169 170 171 
172 173 174 175 176 177 178 179 180 
181 182 183 184 185 186 187 188 189 
190 191 192 193 194 195 196 197 198 
199 200 201 202 203 204 205 206 207 
208 209 210 211 212 213 214 215 216 
217 218 219 220 221 222 223 224 225 
226 227 228 229 230 231 232 233 234 
235 236 237 238 239 240 241 242 243 
244 245 246 247 248 249 250 251 252 
253 254 255 256 257 258 259 260 261 
262 263 264 265 266 267 268 269 270 
271 272 273 274 275 276 277 278 279 
280 281 282 283 284 285 286 287 288 
289 290 291 292 293 294 295 296 297 
298 299 300 301 302 303 304 305 306 
307 308 309 310 311 312 313 314 315 
316 317 318 319 320 321 322 323 324 
325 326 327 328 329 330 331 332 333 
334 335 336 337 338 339 340 341 342 
343 344 345 346 347 348 349 350 351 
352 353 354 355 356 357 358 359 360 
361 362 363 364 365 366 367 368 369 
370 371 372 373 374 375 376 377 378 
379 380 381 382 383 384 385 386 387 
388 389 390 391 392 393 394 395 396 
397 398 399 400 401 402 403 404 405 
406 407 408 409 410 411 412 413 414 
415 416 417 418 419 420 421 422 423 
424 425 426 427 428 429 430 431 432 
433 434 435 436 437 438 439 440 441 
442 443 444 445 446 447 448 449 450 
451 452 453 454 455 456 457 458 459 
460 461 462 463 464 465 466 467 468 
469 470 471 472 473 474 475 476 477 
478 479 480 481 482 483 484 485 486 
487 488 489 490 491 492 493 494 495 
496 497 498 499 500 
type 1 500 int
1 1 1 1 1 1 1 1 1 
1 1 1 1 1 1 1 1 1 
1 1 1 1 1 1 1 1 1 
1 1 1 1 1 1 1 1 1 
1 1 1 1 1 1 1 1 1 
1 1 1 1 1 1 1 1 1 
1 1 1 1 1 1 1 1 1 
1 1 1 1 1 1 1 1 1 
1 1 1 1 1 1 1 1 1 
1 1 1 1 1 1 1 1 1 
1 1 1 1 1 1 1 1 1 
1 1 1 1 1 1 1 1 1 
1 1 1 1 1 1 1 1 1 
1 1 1 1 1 1 1 1 1 
1 1 1 1 1 1 1 1 1 
1 1 1 1 1 1 1 1 1 
1 1 1 1 1 1 1 1 1 
1 1 1 1 1 1 1 1 1 
1 1 1 1 1 1 1 1 1 
1 1 1 1 1 1 1 1 1 
1 1 1 1 1 1 1 1 1 
1 1 1 1 1 1 1 1 1 
1 1 1 1 1 1 1 1 1 
1 1 1 1 1 1 1 1 1 
1 1 1 1 1 1 1 1 1 
1 1 1 1 1 1 1 1 1 
1 1 1 1 1 1 1 1 1 
1 1 1 1 1 1 1 1 1 
1 1 1 1 1 1 1 1 1 
1 1 1 1 1 1 1 1 1 
1 1 1 1 1 1 1 1 1 
1 1 1 1 1 1 1 1 1 
1 1 1 1 1 1 1 1 1 
1 1 1 1 1 1 1 1 1 
1 1 1 1 1 1 1 1 1 
1 1 1 1 1 1 1 1 1 
1 1 1 1 1 1 1 1 1 
1 1 1 1 1 1 1 1 1 
1 1 1 1 1 1 1 1 1 
1 1 1 1 1 1 1 1 1 
1 1 1 1 1 1 1 1 1 
1 1 1 1 1 1 1 1 1 
1 1 1 1 1 1 1 1 1 
1 1 1 1 1 1 1 1 1 
1 1 1 1 1 1 1 1 1 
1 1 1 1 1 1 1 1 1 
1 1 1 1 1 1 1 1 1 
1 1 1 1 1 1 1 1 1 
1 1 1 1 1 1 1 1 1 
1 1 1 1 1 1 1 1 1 
1 1 1 1 1 1 1 1 1 
1 1 1 1 1 1 1 1 1 
1 1 1 1 1 1 1 1 1 
1 1 1 1 1 1 1 1 1 
1 1 1 1 1 1 1 1 1 
1 1 1 1 1 
i 3 500 int
0 0 0 0 0 0 0 0 0 
0 0 0 0 0 0 0 0 0 
0 0 0 0 0 0 0 0 0 
0 0 0 0 0 0 0 0 0 
0 0 0 0 0 0 0 0 0 
0 0 0 0 0 0 0 0 0 
0 0 0 0 0 0 0 0 0 
0 0 0 0 0 0 0 0 0 
0 0 0 0 0 0 0 0 0 
0 0 0 0 0 0 0 0 0 
0 0 0 0 0 0 0 0 0 
0 0 0 0 0 0 0 0 0 
0 0 0 0 0 0 0 0 0 
0 0 0 0 0 0 0 0 0 
0 0 0 0 0 0 0 0 0 
0 0 0 0 0 0 0 0 0 
0 0 0 0 0 0 0 0 0 
0 0 0 0 0 0 0 0 0 
0 0 0 0 0 0 0 0 0 
0 0 0 0 0 0 0 0 0 
0 0 0 0 0 0 0 0 0 
0 0 0 0 0 0 0 0 0 
0 0 0 0 0 0 0 0 0 
0 0 0 0 0 0 0 0 0 
0 0 0 0 0 0 0 0 0 
0 0 0 0 0 0 0 0 0 
0 0 0 0 0 0 0 0 0 
0 0 0 0 0 0 0 0 0 
0 0 0 0 0 0 0 0 0 
0 0 0 0 0 0 0 0 0 
0 0 0 0 0 0 0 0 0 
0 0 0 0 0 0 0 0 0 
0 0 0 0 0 0 0 0 0 
0 0 0 0 0 0 0 0 0 
0 0 0 0 0 0 0 0 0 
0 0 0 0 0 0 0 0 0 
0 0 0 0 0 0 0 0 0 
0 0 0 0 0 0 0 0 0 
0 0 0 0 0 0 0 0 0 
0 0 0 0 0 0 0 0 0 
0 0 0 0 0 0 0 0 0 
0 0 0 0 0 0 0 0 0 
0 0 0 0 0 0 0 0 0 
0 0 0 0 0 0 0 0 0 
0 0 0 0 0 0 0 0 0 
0 0 0 0 0 0 0 0 0 
0 0 0 0 0 0 0 0 0 
0 0 0 0 0 0 0 0 0 
0 0 0 0 0 0 0 0 0 
0 0 0 0 0 0 0 0 0 
0 0 0 0 0 0 0 0 0 
0 0 0 0 0 0 0 0 0 
0 0 0 0 0 0 0 0 0 
0 0 0 0 0 0 0 0 0 
0 0 0 0 0 0 0 0 0 
0 0 0 0 0 0 0 0 0 
0 0 0 0 0 0 0 0 0 
0 0 0 0 0 0 0 0 0 
0 0 0 0 0 0 0 0 0 
0 0 0 0 0 0 0 0 0 
0 0 0 0 0 0 0 0 0 
0 0 0 0 0 0 0 0 0 
0 0 0 0 0 0 0 0 0 
0 0 0 0 0 0 0 0 0 
0 0 0 0 0 0 0 0 0 
0 0 0 0 0 0 0 0 0 
0 0 0 0 0 0 0 0 0 
0 0 0 0 0 0 0 0 0 
0 0 0 0 0 0 0 0 0 
0 0 0 0 0 0 0 0 0 
0 0 0 0 0 0 0 0 0 
0 0 0 0 0 0 0 0 0 
0 0 0 0 0 0 0 0 0 
0 0 0 0 0 0 0 0 0 
0 0 0 0 0 0 0 0 0 
0 0 0 0 0 0 0 0 0 
0 0 0 0 0 0 0 0 0 
0 0 0 0 0 0 0 0 0 
0 0 0 0 0 0 0 0 0 
0 0 0 0 0 0 0 0 0 
0 0 0 0 0 0 0 0 0 
0 0 0 0 0 0 0 0 0 
0 0 0 0 0 0 0 0 0 
0 0 0 0 0 0 0 0 0 
0 0 0 0 0 0 0 0 0 
0 0 0 0 0 0 0 0 0 
0 0 0 0 0 0 0 0 0 
0 0 0 0 0 0 0 0 0 
0 0 0 0 0 0 0 0 0 
0 0 0 0 0 0 0 0 0 
0 0 0 0 0 0 0 0 0 
0 0 0 0 0 0 0 0 0 
0 0 0 0 0 0 0 0 0 
0 0 0 0 0 0 0 0 0 
0 0 0 0 0 0 0 0 0 
0 0 0 0 0 0 0 0 0 
0 0 0 0 0 0 0 0 0 
0 0 0 0 0 0 0 0 0 
0 0 0 0 0 0 0 0 0 
0 0 0 0 0 0 0 0 0 
0 0 0 0 0 0 0 0 0 
0 0 0 0 0 0 0 0 0 
0 0 0 0 0 0 0 0 0 
0 0 0 0 0 0 0 0 0 
0 0 0 0 0 0 0 0 0 
0 0 0 0 0 0 0 0 0 
0 0 0 0 0 0 0 0 0 
0 0 0 0 0 0 0 0 0 
0 0 0 0 0 0 0 0 0 
0 0 0 0 0 0 0 0 0 
0 0 0 0 0 0 0 0 0 
0 0 0 0 0 0 0 0 0 
0 0 0 0 0 0 0 0 0 
0 0 0 0 0 0 0 0 0 
0 0 0 0 0 0 0 0 0 
0 0 0 0 0 0 0 0 0 
0 0 0 0 0 0 0 0 0 
0 0 0 0 0 0 0 0 0 
0 0 0 0 0 0 0 0 0 
0 0 0 0 0 0 0 0 0 
0 0 0 0 0 0 0 0 0 
0 0 0 0 0 0 0 0 0 
0 0 0 0 0 0 0 0 0 
0 0 0 0 0 0 0 0 0 
0 0 0 0 0 0 0 0 0 
0 0 0 0 0 0 0 0 0 
0 0 0 0 0 0 0 0 0 
0 0 0 0 0 0 0 0 0 
0 0 0 0 0 0 0 0 0 
0 0 0 0 0 0 0 0 0 
0 0 0 0 0 0 0 0 0 
0 0 0 0 0 0 0 0 0 
0 0 0 0 0 0 0 0 0 
0 0 0 0 0 0 0 0 0 
0 0 0 0 0 0 0 0 0 
0 0 0 0 0 0 0 0 0 
0 0 0 0 0 0 0 0 0 
0 0 0 0 0 0 0 0 0 
0 0 0 0 0 0 0 0 0 
0 0 0 0 0 0 0 0 0 
0 0 0 0 0 0 0 0 0 
0 0 0 0 0 0 0 0 0 
0 0 0 0 0 0 0 0 0 
0 0 0 0 0 0 0 0 0 
0 0 0 0 0 0 0 0 0 
0 0 0 0 0 0 0 0 0 
0 0 0 0 0 0 0 0 0 
0 0 0 0 0 0 0 0 0 
0 0 0 0 0 0 0 0 0 
0 0 0 0 0 0 0 0 0 
0 0 0 0 0 0 0 0 0 
0 0 0 0 0 0 0 0 0 
0 0 0 0 0 0 0 0 0 
0 0 0 0 0 0 0 0 0 
0 0 0 0 0 0 0 0 0 
0 0 0 0 0 0 0 0 0 
0 0 0 0 0 0 0 0 0 
0 0 0 0 0 0 0 0 0 
0 0 0 0 0 0 0 0 0 
0 0 0 0 0 0 0 0 0 
0 0 0 0 0 0 0 0 0 
0 0 0 0 0 0 0 0 0 
0 0 0 0 0 0 0 0 0 
0 0 0 0 0 0 0 0 0 
0 0 0 0 0 0 0 0 0 
0 0 0 0 0 0 0 0 0 
0 0 0 0 0 0 
v 3 500 double
0.611477 -0.26032 -3.47245 -0.37731 0.0458426 2.88554 -1.16007 0.895829 1.10993 
0.1158 -0.145506 -4.5329 -0.258342 -0.0600496 3.046 0.0377151 -0.137888 -3.82578 
-0.0176441 -0.0953633 -4.02859 -0.355462 0.031393 2.85926 -0.187731 0.0172905 2.70815 
-0.147561 0.0820167 2.75916 0.29695 0.080429 2.80731 0.0782381 -0.347036 -3.88819 
-0.570745 -0.116656 -1.34875 0.247508 -0.13397 2.86971 -0.341783 0.060187 2.80162 
0.471376 0.0706739 -0.865404 0.181803 0.0822368 3.21517 2.47543 1.22932 -1.34085 
-0.00615436 0.0626503 -2.66497 1.18108 -1.75185 -3.89641 -0.127049 0.196829 -3.61402 
0.629681 -0.125922 -4.00023 1.484 -2.03442 -0.927111 -1.67906 2.06346 -2.23058 
0.00098007 0.195944 0.252422 0.131106 0.0409762 3.09991 0.257869 0.0613439 -4.52095 
0.444193 -0.00202785 -4.11589 0.240147 0.0651292 -0.380681 0.511222 0.0610792 0.175563 
0.0717043 -0.110449 3.05096 0.213266 -0.00461749 3.00685 0.494716 -0.208704 0.0584101 
-0.127796 -0.10379 3.10711 -0.00623767 -0.00824359 -0.0589484 0.791053 0.015936 -1.60074 
0.207079 -0.0412376 -4.04115 -0.225774 -0.0173358 2.98069 0.0894149 -0.225758 -4.4131 
-0.836797 -1.71364 -1.17871 -0.00910515 -0.121887 0.0371635 -0.128089 0.155398 -4.62001 
-0.0993104 0.10986 -3.80507 0.377847 -0.0106309 -4.26481 -0.287782 0.0595503 -4.31137 
0.284249 0.192088 -3.49742 -0.103295 0.108927 -3.65245 0.0522474 0.0767093 -4.38308 
0.475728 0.0551841 -3.72491 0.173658 0.0642482 -4.03137 0.72984 0.0507029 -4.18367 
0.10979 0.1065 -4.19697 0.346417 0.214375 -4.19368 0.0990213 -0.136146 -3.61581 
0.0178371 0.193664 -4.45039 0.20939 0.110352 -4.46331 0.0407222 -0.147877 0.109777 
-0.299543 -0.100675 3.22252 -0.0400674 -0.10393 -4.019 0.0847484 0.0053118 -3.29698 
0.213127 -0.0748996 -3.91441 0.41006 -0.00759949 -3.60817 0.302324 0.0289082 -4.00035 
1.11069 -0.019008 -1.89899 -0.106281 -0.151717 -3.41354 0.405538 0.0912874 -3.74454 
0.0267792 -0.104427 -3.93207 0.308298 0.147808 -4.08754 0.388624 -0.137671 -4.5021 
-0.0992584 -0.126742 -3.7386 0.43598 -0.0648541 -3.29805 0.229016 -0.122581 -4.06725 
0.189571 -0.0267251 -3.3977 0.210281 0.30397 -3.79481 0.800107 -0.0475841 -3.89872 
0.177237 0.178926 -4.31142 0.256658 -0.0121267 -2.61641 0.610995 -0.17899 -4.11526 
0.176207 -0.0477469 -4.03733 0.309094 0.195729 -3.8404 0.0647756 0.103249 -3.93537 
-0.242193 -0.149766 -3.70843 0.44361 -0.177602 -2.1718 -0.0628408 0.0643416 -3.3558 
-0.0623947 -0.14262 -0.131191 0.290539 -0.00972513 -3.15713 -0.0367516 -0.0491474 -3.57233 
1.20018 -0.23557 -1.69894 0.460504 0.00071318 -3.66096 0.222051 0.358649 -3.5729 
0.149924 0.115156 -3.47238 0.789598 -0.139956 -3.13561 0.20295 -0.0408803 -4.16777 
-0.123772 0.107474 -3.67975 -0.236887 0.19668 -3.67915 0.291772 -0.0242495 -3.5442 
0.72798 0.106437 -2.04044 0.436219 0.0441015 -4.09802 -0.173474 -0.0629284 0.195317 
0.582346 -0.0576323 -3.47389 0.349827 0.187445 -3.2817 0.0326114 0.0644399 0.230284 
-0.0274054 -0.0511138 -3.48958 0.484739 0.00351487 -3.2988 0.201213 -0.00849927 -3.01971 
-0.218912 0.170292 -3.69348 0.281929 0.123658 -3.54123 -0.179394 -0.124498 -3.9091 
0.304914 0.101055 -3.52939 0.378466 -0.0888227 -2.62995 0.218366 -0.180511 -2.89263 
0.138646 0.0976188 -3.50429 0.409284 -0.0661793 -3.82846 0.384898 0.0969875 -3.15823 
-0.320059 0.290887 -3.41344 0.044912 0.0474999 -3.98419 0.0430149 0.269043 -0.0413068 
0.463996 0.082422 -3.7126 0.48001 0.0381606 -3.27429 0.653815 -0.00622082 -1.52727 
0.346117 -0.156005 -2.89982 0.399293 0.0894973 -2.04715 0.350219 0.0419535 -3.56564 
0.516979 0.0579169 -2.18238 0.470903 0.000378274 -3.09072 1.02821 -0.113721 -1.8041 
-0.00911259 -0.12619 0.0447937 0.45505 0.273267 -3.36683 0.355244 -0.0952644 -3.26565 
0.207833 -0.0841428 -3.43199 0.291264 -0.226068 -3.48046 0.612234 0.0479536 -3.38777 
0.267494 -0.0143162 -3.05104 -0.084694 -0.0180083 -2.81804 0.35627 0.219133 -2.7507 
0.329201 -0.14917 -2.50053 0.276271 0.0258928 -3.60848 0.346822 -0.0917385 -3.37082 
0.612797 -0.10599 -3.59086 0.550108 -0.11445 -1.65351 0.434026 0.0793693 -3.2293 
0.717836 -0.205406 -2.42445 0.488098 0.00721483 -3.39679 0.452928 0.140538 -3.14433 
0.708392 -0.0267968 -3.0025 0.200776 0.0114864 -3.29295 0.178812 -0.0696372 -2.85445 
1.079 -0.0188336 -1.6177 0.243287 0.126496 -3.12287 0.402873 0.0159656 -2.85711 
0.187915 -0.0658437 -2.80909 0.517421 -0.0936434 -2.62408 0.192515 -0.126673 -2.95339 
0.423249 -0.0754407 -3.02674 0.261807 -0.0130963 -0.32165 0.171711 -0.0334195 -3.36538 
-0.0188235 -0.0473201 -2.4647 0.475504 -0.0218533 -2.96103 0.434135 0.0875323 -3.64282 
0.390754 0.00235296 -2.98144 0.124821 0.196518 -2.96676 0.162414 -0.222999 -3.28557 
0.326103 0.222573 -2.78251 0.489646 -0.387588 -1.70852 0.329177 0.208461 -3.01451 
0.444343 -0.126573 -2.5951 0.44498 0.00687711 -2.98815 0.423731 -0.0021919 -2.62014 
0.0989703 -0.187145 -2.82447 0.011099 0.0875899 -2.79807 0.280746 0.0576885 -2.8193 
0.00534141 0.0785755 -2.92947 0.343779 0.385686 -0.870728 0.430853 -0.101015 -3.06413 
0.20729 0.0628995 -2.94659 0.329141 -0.0662873 -2.81501 0.393649 -0.023606 -1.94667 
0.190033 0.0792874 -3.28999 0.239692 0.396899 -2.31833 0.313215 0.0700824 -3.19169 