# vtk DataFile Version 4.0
Generated by LIGGGHTS
ASCII
DATASET POLYDATA
POINTS 500 float
0.420553 -0.0450016 -1.18161 0.424545 -0.0295719 -1.18735 0.005054 -0.0250073 -1.19501 
0.0389093 -0.0203513 -1.1747 0.0168923 -0.0223811 -1.17256 0.0359718 -0.00499934 -1.17562 
0.0450937 -0.0364457 -1.18621 0.032187 -0.045001 -1.17651 0.0895971 -0.0151897 -1.17783 
0.469175 -0.00505148 -1.18501 0.352078 -0.0382322 -1.19269 0.463505 -0.0133108 -1.19501 
0.0214733 -0.0142008 -1.16908 0.319578 -0.00508087 -1.19444 0.0435348 -0.0113861 -1.1742 
0.385313 -0.0287571 -1.195 0.0277452 -0.0450035 -1.18547 0.495001 -0.0450008 -1.18514 
0.0403726 -0.0360455 -1.19501 0.481963 -0.0137011 -1.18718 0.00548391 -0.0199158 -1.17186 
0.177397 -0.0282205 -1.18618 0.493403 -0.0450005 -1.195 0.0533392 -0.00499439 -1.18646 
0.166738 -0.0289548 -1.18703 0.382426 -0.0449005 -1.18513 0.485703 -0.0286776 -1.195 
0.457236 -0.0450018 -1.195 0.314291 -0.0139976 -1.195 0.0946013 -0.013656 -1.18635 
0.034304 -0.0205302 -1.18779 0.440156 -0.0449993 -1.18635 0.411267 -0.0130127 -1.18502 
0.46034 -0.0204203 -1.18874 0.205729 -0.0336654 -1.195 0.0334179 -0.0371508 -1.18792 
0.399189 -0.00499967 -1.195 0.0148726 -0.0434826 -1.19501 0.03812 -0.0373834 -1.17911 
0.495003 -0.0100026 -1.18635 0.224638 -0.0404023 -0.245002 0.113021 -0.027684 -1.19501 
0.0692877 -0.00891336 -1.17164 0.418684 -0.0376373 -1.1881 0.118013 -0.0363448 -1.195 
0.467004 -0.0350096 -1.195 0.00542468 -0.0369239 -1.17915 0.00499845 -0.0200051 -1.18636 
0.485082 -0.0450015 -1.18728 0.43032 -0.0209059 -1.18813 0.384921 -0.00504424 -1.195 
0.477914 -0.045001 -1.195 0.0215791 -0.004999 -1.18748 0.0602928 -0.0450007 -1.16927 
0.00992814 -0.0249979 -1.17924 0.0148829 -0.0336815 -1.17928 0.0845909 -0.0224069 -1.195 
0.0685286 -0.0188915 -1.17161 0.0140893 -0.00499915 -1.18087 0.0431192 -0.0293366 -1.17592 
0.0266546 -0.0351903 -1.19501 0.450065 -0.0362854 -1.195 0.0148493 -0.0147188 -1.17865 
0.044047 -0.0208401 -1.18539 0.0764638 -0.045001 -1.17827 0.42914 -0.0137532 -1.19501 
0.431977 -0.0296545 -1.17987 0.445335 -0.0275876 -1.18134 0.435341 -0.00505099 -1.195 
0.00499817 -0.0130865 -1.17914 0.485657 -0.0386769 -1.195 0.492112 -0.0199975 -1.18684 
0.0428555 -0.011737 -1.18934 0.0136799 -0.01995 -1.19501 0.0552399 -0.0450033 -1.1779 
0.0538754 -0.0202911 -1.18743 0.0194419 -0.00499905 -1.17242 0.417514 -0.00502104 -1.18504 
0.403813 -0.0314582 -1.195 0.492367 -0.0370249 -1.17971 0.0498212 -0.0366251 -1.17731 
0.0277848 -0.0281008 -1.18806 0.444982 -0.0204366 -1.18832 0.00714273 -0.00499812 -1.17368 
0.169323 -0.0428108 -1.17723 0.0604128 -0.0364485 -1.17772 0.0215103 -0.0357839 -1.18646 
0.302724 -0.0374953 -1.18795 0.431921 -0.044391 -1.18072 0.00499652 -0.00499745 -1.18501 
0.0503623 -0.0364816 -1.195 0.411639 -0.0205071 -1.17832 0.060135 -0.005 -1.17069 
0.00499552 -0.0300042 -1.18635 0.00499571 -0.0450023 -1.19501 0.0118224 -0.0118234 -1.18842 
0.126453 -0.00503884 -1.18634 0.0845953 -0.013653 -1.18635 0.191164 -0.0449974 -1.195 
0.0655775 -0.0450002 -1.19501 0.0741204 -0.0221039 -1.195 0.207662 -0.0449971 -0.245002 
0.0143907 -0.027002 -1.18796 0.461782 -0.0119248 -1.18367 0.293725 -0.014272 -1.195 
0.366905 -0.00551173 -1.18892 0.108019 -0.0421176 -1.18684 0.136431 -0.0309527 -1.19501 
0.103015 -0.0450019 -1.195 0.0501161 -0.028421 -1.18301 0.176444 -0.0136858 -1.195 
0.0603909 -0.0277895 -1.18631 0.495001 -0.00499854 -1.195 0.391631 -0.0124812 -1.195 
0.101667 -0.0150097 -1.1794 0.0411799 -0.0197926 -1.19501 0.255535 -0.00917448 -1.18739 
0.443195 -0.00499864 -1.18882 0.462589 -0.045003 -1.18614 0.0553979 -0.0364491 -1.18637 
0.27477 -0.0163893 -1.195 0.489103 -0.025983 -1.17942 0.451046 -0.00499822 -1.19501 
0.460051 -0.00499696 -1.19066 0.469057 -0.0049978 -1.19501 0.0336911 -0.00499357 -1.18607 
0.205228 -0.0248824 -0.245002 0.467637 -0.0364287 -1.18513 0.495002 -0.0149978 -1.195 
0.0177487 -0.0450029 -1.18556 0.0369056 -0.0132551 -1.18145 0.495001 -0.0249968 -1.195 
0.0583684 -0.0062272 -1.19501 0.0247512 -0.0450034 -1.19501 0.0505371 -0.0147053 -1.19501 
0.410741 -0.0236177 -1.19501 0.0220976 -0.031649 -1.17254 0.24916 -0.0183507 -1.18696 
0.452745 -0.00499816 -1.18384 0.188266 -0.0269482 -1.19502 0.437574 -0.0207805 -1.19501 
0.468437 -0.0261656 -1.19057 0.485706 -0.00868133 -1.195 0.424216 -0.0224174 -1.18036 
0.472579 -0.0450023 -1.18655 0.411462 -0.0378936 -1.19501 0.0192482 -0.0183352 -1.18686 
0.060207 -0.0187815 -1.19501 0.445028 -0.0129871 -1.195 0.131456 -0.0165263 -1.18683 
0.0796015 -0.00499607 -1.18635 0.435143 -0.0449989 -1.195 0.00499814 -0.0450041 -1.18502 
0.475747 -0.0134874 -1.19501 0.231971 -0.0304484 -1.18707 0.452343 -0.0214176 -1.19501 
0.0349696 -0.0276305 -1.195 0.486437 -0.00499798 -1.18513 0.0149963 -0.00499925 -1.19501 
0.477041 -0.0236673 -1.195 0.00499892 -0.0350052 -1.19501 0.186421 -0.00841341 -1.18704 
0.0286473 -0.0342283 -1.17964 0.0276438 -0.0129177 -1.18678 0.0398142 -0.0449938 -1.18639 
0.453648 -0.0130538 -1.18969 0.119722 -0.012387 -1.18772 0.394295 -0.0449404 -1.19435 
0.0381525 -0.00499127 -1.19501 0.0574954 -0.0133998 -1.176 0.226525 -0.0110599 -1.18533 
0.0215631 -0.0125489 -1.195 0.451199 -0.045001 -1.18703 0.48568 -0.0336745 -1.18635 
0.154891 -0.0362774 -1.19501 0.0616954 -0.0222279 -1.1781 0.0895987 -0.0136592 -1.195 
0.482815 -0.0236783 -1.18684 0.0212693 -0.026036 -1.18077 0.0604274 -0.0361461 -1.195 
0.236616 -0.0343812 -1.195 0.495002 -0.035129 -1.195 0.477787 -0.00499777 -1.19014 
0.00499727 -0.0149948 -1.19501 0.0739835 -0.0132576 -1.18676 0.141465 -0.0280295 -1.18674 
0.0310359 -0.0245287 -1.17923 0.236112 -0.00750874 -1.1863 0.464979 -0.0206575 -1.17988 
0.196153 -0.0430039 -1.18657 0.0347493 -0.0449792 -1.195 0.373944 -0.0448347 -1.195 
0.382279 -0.0159927 -1.19397 0.00499849 -0.00499777 -1.19501 0.118003 -0.0426537 -1.18667 
0.0153179 -0.038759 -1.17068 0.285844 -0.00588238 -1.18578 0.467236 -0.0450028 -1.195 
0.208481 -0.0152832 -0.245002 0.495002 -0.0300599 -1.18639 0.0966903 -0.0240526 -1.17952 
0.0495252 -0.013093 -1.18202 0.445163 -0.0450003 -1.195 0.458567 -0.0365991 -1.18975 
0.425863 -0.0368291 -1.19501 0.0846034 -0.00499875 -1.19501 0.485707 -0.0186796 -1.195 
0.476929 -0.0338026 -1.195 0.0117035 -0.0450013 -1.1776 0.065574 -0.0363395 -1.18628 
0.161443 -0.0049995 -1.195 0.28488 -0.0316324 -1.195 0.0555798 -0.045004 -1.19501 
0.0843739 -0.0308312 -1.18642 0.42311 -0.0217329 -1.195 0.235508 -0.0136616 -1.195 
0.404427 -0.0450017 -1.195 0.358968 -0.00565883 -1.19501 0.0245806 -0.0169672 -1.17817 
0.091087 -0.0380934 -1.18801 0.401157 -0.00636086 -1.18289 0.26672 -0.017619 -1.05123 
0.437757 -0.0353221 -1.195 0.0894856 -0.0311269 -1.19501 0.0714353 -0.00499747 -1.18059 
0.106678 -0.0236555 -1.17975 0.39206 -0.00500251 -1.18799 0.131449 -0.00499148 -1.195 
0.393275 -0.0349692 -1.19501 0.0443817 -0.045006 -1.17749 0.0448863 -0.0449685 -1.195 
0.0520364 -0.00499995 -1.17655 0.0167724 -0.0336679 -1.19501 0.0281572 -0.00502041 -1.19501 
0.0746071 -0.00507792 -1.19501 0.488614 -0.013911 -1.17972 0.443911 -0.0357643 -1.18714 
0.0457257 -0.0281614 -1.19199 0.0234143 -0.0223823 -1.195 0.0727995 -0.0344219 -1.17964 
0.0267318 -0.00661661 -1.17907 0.175154 -0.0398165 -1.18795 0.411544 -0.0450053 -1.18798 
0.0600051 -0.0123973 -1.18732 0.431872 -0.0366317 -1.18703 0.0788782 -0.0161382 -1.17853 
0.459709 -0.0281757 -1.19501 0.0112688 -0.0376924 -1.1877 0.0666575 -0.0137572 -1.17998 
0.409679 -0.0136497 -1.19499 0.271911 -0.0230784 -1.18666 0.0756921 -0.0450004 -1.195 
0.0946014 -0.00499856 -1.195 0.416742 -0.00499833 -1.19501 0.405366 -0.0216813 -1.18679 
0.341394 -0.0115169 -1.1949 0.479018 -0.0392997 -1.18146 0.104599 -0.00499822 -1.195 
0.373149 -0.0233221 -1.195 0.265214 -0.0396634 -1.18422 0.0995959 -0.0136593 -1.19501 
0.124928 -0.0355304 -1.18553 0.0605812 -0.0450012 -1.18635 0.079245 -0.0308577 -1.195 
0.0332511 -0.013701 -1.19501 0.418171 -0.0304245 -1.19501 0.229187 -0.0405309 -1.18632 
0.369653 -0.0340963 -1.19501 0.41166 -0.0378632 -1.18099 0.151436 -0.0223114 -1.195 
0.42604 -0.00499429 -1.19133 0.103026 -0.0276806 -1.19501 0.0895921 -0.0223077 -1.18635 
0.149332 -0.0443371 -1.18027 0.418663 -0.044998 -1.195 0.221378 -0.0450019 -1.195 
0.201414 -0.00500024 -1.195 0.00499974 -0.0299002 -1.17205 0.430803 -0.0281372 -1.19501 
0.207719 -0.0236506 -1.195 0.339624 -0.0367136 -1.19496 0.446026 -0.0122997 -1.1826 
0.113029 -0.0103692 -1.195 0.0656345 -0.0449981 -1.17772 0.18143 -0.00499917 -1.195 
0.2655 -0.00513411 -1.18634 0.363509 -0.0261707 -1.195 0.420144 -0.013281 -1.19056 
0.0552669 -0.0275551 -1.195 0.399719 -0.0223206 -1.19501 0.0384573 -0.0291084 -1.18478 
0.092954 -0.0450001 -1.195 0.444674 -0.0278638 -1.195 0.0502354 -0.0450067 -1.18656 
0.146429 -0.0309611 -1.195 0.253468 -0.0374151 -1.18545 0.0704257 -0.0360042 -1.19501 
0.156454 -0.00788182 -1.18684 0.46958 -0.0166275 -1.18779 0.0226716 -0.0419317 -1.17742 
0.079602 -0.0137406 -1.19501 0.106381 -0.0122974 -1.18779 0.345192 -0.020773 -1.19408 
0.39693 -0.0288688 -1.18799 0.0981046 -0.0450025 -1.1863 0.230522 -0.00499694 -1.195 
0.108029 -0.0190244 -1.195 0.333532 -0.0177166 -1.195 0.390713 -0.0215195 -1.1907 
0.297141 -0.0254376 -1.17836 0.434979 -0.00499945 -1.18311 0.231539 -0.0450027 -1.195 
0.266236 -0.0338493 -1.19487 0.427906 -0.0119492 -1.1844 0.0772877 -0.0377145 -1.18794 
0.0945879 -0.0223231 -1.195 0.14143 -0.0396125 -1.19501 0.309517 -0.0352345 -1.19499 
0.426902 -0.0449993 -1.18934 0.0834813 -0.0379863 -1.1795 0.374976 -0.0061177 -1.19501 
0.0551092 -0.0287021 -1.17428 0.0436583 -0.00499642 -1.18201 0.0664431 -0.00499734 -1.18925 
0.308219 -0.0290215 -1.18726 0.159903 -0.0276231 -1.195 0.416832 -0.0221253 -1.18722 
0.0793599 -0.0221713 -1.18649 0.365695 -0.0158975 -1.19484 0.171422 -0.0175397 -1.18725 
0.192181 -0.0291139 -1.18552 0.185595 -0.0365843 -1.19499 0.317102 -0.0286886 -1.195 
0.0481489 -0.0049978 -1.195 0.048839 -0.0211414 -1.17614 0.166442 -0.01366 -1.195 
0.379203 -0.0364101 -1.19297 0.13473 -0.03756 -1.1877 0.12145 -0.00499139 -1.195 
0.12801 -0.0450036 -1.18635 0.0671577 -0.0204559 -1.18802 0.0683315 -0.0129531 -1.195 
0.384021 -0.0449676 -1.195 0.353356 -0.026458 -1.19481 0.108024 -0.0305709 -1.18684 
0.363676 -0.00534626 -0.949484 0.156444 -0.0136596 -1.195 0.291187 -0.0449969 -1.195 
0.389472 -0.0139268 -1.1843 0.0921804 -0.0330569 -1.17945 0.161442 -0.0198279 -1.18893 
0.113094 -0.00499412 -1.18657 0.0614348 -0.00513145 -1.1806 0.211404 -0.00499774 -1.195 
0.276462 -0.0262409 -1.195 0.151448 -0.00499721 -1.195 0.281188 -0.0447638 -1.195 
0.355339 -0.0158711 -1.19501 0.0722824 -0.0290585 -1.18806 0.271192 -0.0449967 -1.19479 
0.0946005 -0.0060809 -1.17776 0.186415 -0.01446 -1.195 0.437025 -0.0128669 -1.18893 
0.348973 -0.00499809 -1.195 0.10119 -0.0363403 -1.18237 0.19772 -0.0236968 -1.195 
0.206168 -0.0404224 -1.18765 0.201162 -0.0449873 -1.195 0.225949 -0.0165562 -1.19468 
0.329631 -0.0050523 -1.195 0.216265 -0.0364101 -1.195 0.178932 -0.0233733 -1.195 
0.141438 -0.022302 -1.195 0.0962993 -0.0295634 -1.18786 0.301218 -0.0449367 -1.19487 
0.0706256 -0.0450018 -1.18638 0.407968 -0.00501621 -1.19022 0.215957 -0.0165607 -1.195 
0.245502 -0.0136647 -1.195 0.13645 -0.00786433 -1.18684 0.117801 -0.0285603 -1.18627 
0.141319 -0.0450021 -1.18659 0.131437 -0.0222967 -1.195 0.24137 -0.0431777 -1.195 
0.0652905 -0.0273926 -1.19501 0.0996036 -0.004999 -1.18635 0.191423 -0.00500973 -1.195 
0.176406 -0.00791673 -1.18683 0.255275 -0.0157642 -1.195 0.256508 -0.0361609 -1.195 
0.309584 -0.00511502 -1.19443 0.149864 -0.0449993 -1.195 0.131455 -0.0280576 -1.18678 
0.123011 -0.0450028 -1.195 0.400378 -0.0136348 -1.1901 0.289611 -0.0049953 -1.195 
0.11303 -0.0196918 -1.18637 0.437725 -0.0277222 -1.18782 0.141455 -0.0165326 -1.18683 
0.207973 -0.0349935 -0.245002 0.294423 -0.0426523 -1.18584 0.299606 -0.00501124 -1.195 
0.379733 -0.024863 -1.18763 0.2791 -0.0137196 -1.1864 0.0812253 -0.0268056 -1.17783 
0.33495 -0.0276351 -1.19501 0.00499889 -0.0422658 -1.17071 0.0841048 -0.0395963 -1.19501 
0.367442 -0.0412508 -1.1883 0.0545526 -0.0368498 -1.16851 0.146446 -0.0136505 -1.195 
0.141449 -0.00499353 -1.195 0.171437 -0.0049996 -1.195 0.246971 -0.023876 -1.195 
0.260493 -0.00499964 -1.195 0.403711 -0.031758 -1.18123 0.108016 -0.0363438 -1.195 
0.29243 -0.0250324 -1.195 0.24663 -0.0346113 -1.195 0.32576 -0.0238656 -1.19362 
0.0839998 -0.0450031 -1.1866 0.280048 -0.00789903 -1.195 0.241812 -0.0290833 -1.18821 
0.123018 -0.0276877 -1.195 0.261196 -0.0449969 -1.195 0.475851 -0.0307415 -1.18555 
0.123099 -0.0206518 -1.18322 0.236972 -0.0235646 -1.195 0.159063 -0.0352757 -1.18599 
0.170066 -0.0449755 -1.195 0.211159 -0.0450037 -1.195 0.270485 -0.00500015 -1.195 
0.3243 -0.0138804 -1.19498 0.41103 -0.0307462 -1.18801 0.216266 -0.0428114 -1.18669 
0.159861 -0.044956 -1.19484 0.324837 -0.0351175 -1.195 0.304236 -0.013877 -1.19499 
0.380163 -0.00749684 -1.18647 0.221361 -0.0340312 -1.18674 0.136447 -0.0136454 -1.195 
0.294006 -0.0354944 -1.19368 0.284407 -0.0190571 -1.195 0.240513 -0.00499914 -1.195 
0.206388 -0.0136738 -1.195 0.202394 -0.0189778 -1.18753 0.0980182 -0.0363417 -1.195 
0.220965 -0.00790037 -1.19501 0.151454 -0.0165408 -1.18683 0.128012 -0.0363452 -1.195 
0.437701 -0.0196839 -1.1815 0.251199 -0.0450001 -1.195 0.196428 -0.00792208 -1.18684 
0.133011 -0.0450023 -1.195 0.41458 -0.0184793 -1.16895 0.256721 -0.0256093 -1.1936 
0.148129 -0.037771 -1.18779 0.373257 -0.0147601 -1.18747 0.266455 -0.0237966 -1.195 
0.390151 -0.0380666 -1.18603 0.151822 -0.0282997 -1.18699 0.180157 -0.0449851 -1.195 
0.0845992 -0.00568559 -1.17772 0.195674 -0.0340711 -1.19385 0.393659 -0.0276652 -1.17853 
0.164913 -0.0434629 -1.18626 0.217313 -0.0264678 -1.195 0.400428 -0.0384153 -1.18863 
0.174962 -0.0326415 -1.195 0.323841 -0.00884509 -1.18535 0.22232 -0.0235394 -1.18685 
0.19178 -0.01903 -1.18791 0.452389 -0.0365091 -1.18189 0.165139 -0.0362734 -1.195 
0.185802 -0.0446081 -1.18657 0.226463 -0.036391 -1.195 0.0896012 -0.00499794 -1.18635 
0.300105 -0.0210292 -1.18923 0.301567 -0.0290939 -1.195 0.275986 -0.0362262 -1.195 
0.452175 -0.0289994 -1.18849 0.0720275 -0.0234185 -1.17981 0.210252 -0.0298595 -1.18694 
0.250503 -0.00500508 -1.195 0.309171 -0.0225994 -1.195 0.146449 -0.00786943 -1.18684 
0.101377 -0.0209515 -1.18779 0.126449 -0.0136429 -1.195 0.474845 -0.0218481 -1.18109 
0.227396 -0.0264397 -1.195 0.461059 -0.029033 -1.18371 0.113013 -0.0450034 -1.19501 
0.452833 -0.0196126 -1.18218 0.168936 -0.0233431 -1.195 0.216151 -0.00705073 -1.1863 
0.118027 -0.0190273 -1.195 0.265092 -0.01388 -1.195 0.311579 -0.04501 -1.195 
0.19639 -0.0137016 -1.195 0.321876 -0.0446213 -1.195 
VERTICES 500 1000
1 0 
1 1 
1 2 
1 3 
1 4 
1 5 
1 6 
1 7 
1 8 
1 9 
1 10 
1 11 
1 12 
1 13 
1 14 
1 15 
1 16 
1 17 
1 18 
1 19 
1 20 
1 21 
1 22 
1 23 
1 24 
1 25 
1 26 
1 27 
1 28 
1 29 
1 30 
1 31 
1 32 
1 33 
1 34 
1 35 
1 36 
1 37 
1 38 
1 39 
1 40 
1 41 
1 42 
1 43 
1 44 
1 45 
1 46 
1 47 
1 48 
1 49 
1 50 
1 51 
1 52 
1 53 
1 54 
1 55 
1 56 
1 57 
1 58 
1 59 
1 60 
1 61 
1 62 
1 63 
1 64 
1 65 
1 66 
1 67 
1 68 
1 69 
1 70 
1 71 
1 72 
1 73 
1 74 
1 75 
1 76 
1 77 
1 78 
1 79 
1 80 
1 81 
1 82 
1 83 
1 84 
1 85 
1 86 
1 87 
1 88 
1 89 
1 90 
1 91 
1 92 
1 93 
1 94 
1 95 
1 96 
1 97 
1 98 
1 99 
1 100 
1 101 
1 102 
1 103 
1 104 
1 105 
1 106 
1 107 
1 108 
1 109 
1 110 
1 111 
1 112 
1 113 
1 114 
1 115 
1 116 
1 117 
1 118 
1 119 
1 120 
1 121 
1 122 
1 123 
1 124 
1 125 
1 126 
1 127 
1 128 
1 129 
1 130 
1 131 
1 132 
1 133 
1 134 
1 135 
1 136 
1 137 
1 138 
1 139 
1 140 
1 141 
1 142 
1 143 
1 144 
1 145 
1 146 
1 147 
1 148 
1 149 
1 150 
1 151 
1 152 
1 153 
1 154 
1 155 
1 156 
1 157 
1 158 
1 159 
1 160 
1 161 
1 162 
1 163 
1 164 
1 165 
1 166 
1 167 
1 168 
1 169 
1 170 
1 171 
1 172 
1 173 
1 174 
1 175 
1 176 
1 177 
1 178 
1 179 
1 180 
1 181 
1 182 
1 183 
1 184 
1 185 
1 186 
1 187 
1 188 
1 189 
1 190 
1 191 
1 192 
1 193 
1 194 
1 195 
1 196 
1 197 
1 198 
1 199 
1 200 
1 201 
1 202 
1 203 
1 204 
1 205 
1 206 
1 207 
1 208 
1 209 
1 210 
1 211 
1 212 
1 213 
1 214 
1 215 
1 216 
1 217 
1 218 
1 219 
1 220 
1 221 
1 222 
1 223 
1 224 
1 225 
1 226 
1 227 
1 228 
1 229 
1 230 
1 231 
1 232 
1 233 
1 234 
1 235 
1 236 
1 237 
1 238 
1 239 
1 240 
1 241 
1 242 
1 243 
1 244 
1 245 
1 246 
1 247 
1 248 
1 249 
1 250 
1 251 
1 252 
1 253 
1 254 
1 255 
1 256 
1 257 
1 258 
1 259 
1 260 
1 261 
1 262 
1 263 
1 264 
1 265 
1 266 
1 267 
1 268 
1 269 
1 270 
1 271 
1 272 
1 273 
1 274 
1 275 
1 276 
1 277 
1 278 
1 279 
1 280 
1 281 
1 282 
1 283 
1 284 
1 285 
1 286 
1 287 
1 288 
1 289 
1 290 
1 291 
1 292 
1 293 
1 294 
1 295 
1 296 
1 297 
1 298 
1 299 
1 300 
1 301 
1 302 
1 303 
1 304 
1 305 
1 306 
1 307 
1 308 
1 309 
1 310 
1 311 
1 312 
1 313 
1 314 
1 315 
1 316 
1 317 
1 318 
1 319 
1 320 
1 321 
1 322 
1 323 
1 324 
1 325 
1 326 
1 327 
1 328 
1 329 
1 330 
1 331 
1 332 
1 333 
1 334 
1 335 
1 336 
1 337 
1 338 
1 339 
1 340 
1 341 
1 342 
1 343 
1 344 
1 345 
1 346 
1 347 
1 348 
1 349 
1 350 
1 351 
1 352 
1 353 
1 354 
1 355 
1 356 
1 357 
1 358 
1 359 
1 360 
1 361 
1 362 
1 363 
1 364 
1 365 
1 366 
1 367 
1 368 
1 369 
1 370 
1 371 
1 372 
1 373 
1 374 
1 375 
1 376 
1 377 
1 378 
1 379 
1 380 
1 381 
1 382 
1 383 
1 384 
1 385 
1 386 
1 387 
1 388 
1 389 
1 390 
1 391 
1 392 
1 393 
1 394 
1 395 
1 396 
1 397 
1 398 
1 399 
1 400 
1 401 
1 402 
1 403 
1 404 
1 405 
1 406 
1 407 
1 408 
1 409 
1 410 
1 411 
1 412 
1 413 
1 414 
1 415 
1 416 
1 417 
1 418 
1 419 
1 420 
1 421 
1 422 
1 423 
1 424 
1 425 
1 426 
1 427 
1 428 
1 429 
1 430 
1 431 
1 432 
1 433 
1 434 
1 435 
1 436 
1 437 
1 438 
1 439 
1 440 
1 441 
1 442 
1 443 
1 444 
1 445 
1 446 
1 447 
1 448 
1 449 
1 450 
1 451 
1 452 
1 453 
1 454 
1 455 
1 456 
1 457 
1 458 
1 459 
1 460 
1 461 
1 462 
1 463 
1 464 
1 465 
1 466 
1 467 
1 468 
1 469 
1 470 
1 471 
1 472 
1 473 
1 474 
1 475 
1 476 
1 477 
1 478 
1 479 
1 480 
1 481 
1 482 
1 483 
1 484 
1 485 
1 486 
1 487 
1 488 
1 489 
1 490 
1 491 
1 492 
1 493 
1 494 
1 495 
1 496 
1 497 
1 498 
1 499 

POINT_DATA 500
FIELD FieldData 7
id 1 500 int
1 2 3 4 5 6 7 8 9 
10 11 12 13 14 15 16 17 18 
19 20 21 22 23 24 25 26 27 
28 29 30 31 32 33 34 35 36 
37 38 39 40 41 42 43 44 45 
46 47 48 49 50 51 52 53 54 
55 56 57 58 59 60 61 62 63 
64 65 66 67 68 69 70 71 72 
73 74 75 76 77 78 79 80 81 
82 83 84 85 86 87 88 89 90 
91 92 93 94 95 96 97 98 99 
100 101 102 103 104 105 106 107 108 
109 110 111 112 113 114 115 116 117 
118 119 120 121 122 123 124 125 126 
127 128 129 130 131 132 133 134 135 
136 137 138 139 140 141 142 143 144 
145 146 147 148 149 150 151 152 153 
154 155 156 157 158 159 160 161 162 
163 164 165 166 167 168 169 170 171 
172 173 174 175 176 177 178 179 180 
181 182 183 184 185 186 187 188 189 
190 191 192 193 194 195 196 197 198 
199 200 201 202 203 204 205 206 207 
208 209 210 211 212 213 214 215 216 
217 218 219 220 221 222 223 224 225 
226 227 228 229 230 231 232 233 234 
235 236 237 238 239 240 241 242 243 
244 245 246 247 248 249 250 251 252 
253 254 255 256 257 258 259 260 261 
262 263 264 265 266 267 268 269 270 
271 272 273 274 275 276 277 278 279 
280 281 282 283 284 285 286 287 288 
289 290 291 292 293 294 295 296 297 
298 299 300 301 302 303 304 305 306 
307 308 309 310 311 312 313 314 315 
316 317 318 319 320 321 322 323 324 
325 326 327 328 329 330 331 332 333 
334 335 336 337 338 339 340 341 342 
343 344 345 346 347 348 349 350 351 
352 353 354 355 356 357 358 359 360 
361 362 363 364 365 366 367 368 369 
370 371 372 373 374 375 376 377 378 
379 380 381 382 383 384 385 386 387 
388 389 390 391 392 393 394 395 396 
397 398 399 400 401 402 403 404 405 
406 407 408 409 410 411 412 413 414 
415 416 417 418 419 420 421 422 423 
424 425 426 427 428 429 430 431 432 
433 434 435 436 437 438 439 440 441 
442 443 444 445 446 447 448 449 450 
451 452 453 454 455 456 457 458 459 
460 461 462 463 464 465 466 467 468 
469 470 471 472 473 474 475 476 477 
478 479 480 481 482 483 484 485 486 
487 488 489 490 491 492 493 494 495 
496 497 498 499 500 
type 1 500 int
1 1 1 1 1 1 1 1 1 
1 1 1 1 1 1 1 1 1 
1 1 1 1 1 1 1 1 1 
1 1 1 1 1 1 1 1 1 
1 1 1 1 1 1 1 1 1 
1 1 1 1 1 1 1 1 1 
1 1 1 1 1 1 1 1 1 
1 1 1 1 1 1 1 1 1 
1 1 1 1 1 1 1 1 1 
1 1 1 1 1 1 1 1 1 
1 1 1 1 1 1 1 1 1 
1 1 1 1 1 1 1 1 1 
1 1 1 1 1 1 1 1 1 
1 1 1 1 1 1 1 1 1 
1 1 1 1 1 1 1 1 1 
1 1 1 1 1 1 1 1 1 
1 1 1 1 1 1 1 1 1 
1 1 1 1 1 1 1 1 1 
1 1 1 1 1 1 1 1 1 
1 1 1 1 1 1 1 1 1 
1 1 1 1 1 1 1 1 1 
1 1 1 1 1 1 1 1 1 
1 1 1 1 1 1 1 1 1 
1 1 1 1 1 1 1 1 1 
1 1 1 1 1 1 1 1 1 
1 1 1 1 1 1 1 1 1 
1 1 1 1 1 1 1 1 1 
1 1 1 1 1 1 1 1 1 
1 1 1 1 1 1 1 1 1 
1 1 1 1 1 1 1 1 1 
1 1 1 1 1 1 1 1 1 
1 1 1 1 1 1 1 1 1 
1 1 1 1 1 1 1 1 1 
1 1 1 1 1 1 1 1 1 
1 1 1 1 1 1 1 1 1 
1 1 1 1 1 1 1 1 1 
1 1 1 1 1 1 1 1 1 
1 1 1 1 1 1 1 1 1 
1 1 1 1 1 1 1 1 1 
1 1 1 1 1 1 1 1 1 
1 1 1 1 1 1 1 1 1 
1 1 1 1 1 1 1 1 1 
1 1 1 1 1 1 1 1 1 
1 1 1 1 1 1 1 1 1 
1 1 1 1 1 1 1 1 1 
1 1 1 1 1 1 1 1 1 
1 1 1 1 1 1 1 1 1 
1 1 1 1 1 1 1 1 1 
1 1 1 1 1 1 1 1 1 
1 1 1 1 1 1 1 1 1 
1 1 1 1 1 1 1 1 1 
1 1 1 1 1 1 1 1 1 
1 1 1 1 1 1 1 1 1 
1 1 1 1 1 1 1 1 1 
1 1 1 1 1 1 1 1 1 
1 1 1 1 1 
i 3 500 int
0 0 0 0 0 0 0 0 0 
0 0 0 0 0 0 0 0 0 
0 0 0 0 0 0 0 0 0 
0 0 0 0 0 0 0 0 0 
0 0 0 0 0 0 0 0 0 
0 0 0 0 0 0 0 0 0 
0 0 0 0 0 0 0 0 0 
0 0 0 0 0 0 0 0 0 
0 0 0 0 0 0 0 0 0 
0 0 0 0 0 0 0 0 0 
0 0 0 0 0 0 0 0 0 
0 0 0 0 0 0 0 0 0 
0 0 0 0 0 0 0 0 0 
0 0 0 0 0 0 0 0 0 
0 0 0 0 0 0 0 0 0 
0 0 0 0 0 0 0 0 0 
0 0 0 0 0 0 0 0 0 
0 0 0 0 0 0 0 0 0 
0 0 0 0 0 0 0 0 0 
0 0 0 0 0 0 0 0 0 
0 0 0 0 0 0 0 0 0 
0 0 0 0 0 0 0 0 0 
0 0 0 0 0 0 0 0 0 
0 0 0 0 0 0 0 0 0 
0 0 0 0 0 0 0 0 0 
0 0 0 0 0 0 0 0 0 
0 0 0 0 0 0 0 0 0 
0 0 0 0 0 0 0 0 0 
0 0 0 0 0 0 0 0 0 
0 0 0 0 0 0 0 0 0 
0 0 0 0 0 0 0 0 0 
0 0 0 0 0 0 0 0 0 
0 0 0 0 0 0 0 0 0 
0 0 0 0 0 0 0 0 0 
0 0 0 0 0 0 0 0 0 
0 0 0 0 0 0 0 0 0 
0 0 0 0 0 0 0 0 0 
0 0 0 0 0 0 0 0 0 
0 0 0 0 0 0 0 0 0 
0 0 0 0 0 0 0 0 0 
0 0 0 0 0 0 0 0 0 
0 0 0 0 0 0 0 0 0 
0 0 0 0 0 0 0 0 0 
0 0 0 0 0 0 0 0 0 
0 0 0 0 0 0 0 0 0 
0 0 0 0 0 0 0 0 0 
0 0 0 0 0 0 0 0 0 
0 0 0 0 0 0 0 0 0 
0 0 0 0 0 0 0 0 0 
0 0 0 0 0 0 0 0 0 
0 0 0 0 0 0 0 0 0 
0 0 0 0 0 0 0 0 0 
0 0 0 0 0 0 0 0 0 
0 0 0 0 0 0 0 0 0 
0 0 0 0 0 0 0 0 0 
0 0 0 0 0 0 0 0 0 
0 0 0 0 0 0 0 0 0 
0 0 0 0 0 0 0 0 0 
0 0 0 0 0 0 0 0 0 
0 0 0 0 0 0 0 0 0 
0 0 0 0 0 0 0 0 0 
0 0 0 0 0 0 0 0 0 
0 0 0 0 0 0 0 0 0 
0 0 0 0 0 0 0 0 0 
0 0 0 0 0 0 0 0 0 
0 0 0 0 0 0 0 0 0 
0 0 0 0 0 0 0 0 0 
0 0 0 0 0 0 0 0 0 
0 0 0 0 0 0 0 0 0 
0 0 0 0 0 0 0 0 0 
0 0 0 0 0 0 0 0 0 
0 0 0 0 0 0 0 0 0 
0 0 0 0 0 0 0 0 0 
0 0 0 0 0 0 0 0 0 
0 0 0 0 0 0 0 0 0 
0 0 0 0 0 0 0 0 0 
0 0 0 0 0 0 0 0 0 
0 0 0 0 0 0 0 0 0 
0 0 0 0 0 0 0 0 0 
0 0 0 0 0 0 0 0 0 
0 0 0 0 0 0 0 0 0 
0 0 0 0 0 0 0 0 0 
0 0 0 0 0 0 0 0 0 
0 0 0 0 0 0 0 0 0 
0 0 0 0 0 0 0 0 0 
0 0 0 0 0 0 0 0 0 
0 0 0 0 0 0 0 0 0 
0 0 0 0 0 0 0 0 0 
0 0 0 0 0 0 0 0 0 
0 0 0 0 0 0 0 0 0 
0 0 0 0 0 0 0 0 0 
0 0 0 0 0 0 0 0 0 
0 0 0 0 0 0 0 0 0 
0 0 0 0 0 0 0 0 0 
0 0 0 0 0 0 0 0 0 
0 0 0 0 0 0 0 0 0 
0 0 0 0 0 0 0 0 0 
0 0 0 0 0 0 0 0 0 
0 0 0 0 0 0 0 0 0 
0 0 0 0 0 0 0 0 0 
0 0 0 0 0 0 0 0 0 
0 0 0 0 0 0 0 0 0 
0 0 0 0 0 0 0 0 0 
0 0 0 0 0 0 0 0 0 
0 0 0 0 0 0 0 0 0 
0 0 0 0 0 0 0 0 0 
0 0 0 0 0 0 0 0 0 
0 0 0 0 0 0 0 0 0 
0 0 0 0 0 0 0 0 0 
0 0 0 0 0 0 0 0 0 
0 0 0 0 0 0 0 0 0 
0 0 0 0 0 0 0 0 0 
0 0 0 0 0 0 0 0 0 
0 0 0 0 0 0 0 0 0 
0 0 0 0 0 0 0 0 0 
0 0 0 0 0 0 0 0 0 
0 0 0 0 0 0 0 0 0 
0 0 0 0 0 0 0 0 0 
0 0 0 0 0 0 0 0 0 
0 0 0 0 0 0 0 0 0 
0 0 0 0 0 0 0 0 0 
0 0 0 0 0 0 0 0 0 
0 0 0 0 0 0 0 0 0 
0 0 0 0 0 0 0 0 0 
0 0 0 0 0 0 0 0 0 
0 0 0 0 0 0 0 0 0 
0 0 0 0 0 0 0 0 0 
0 0 0 0 0 0 0 0 0 
0 0 0 0 0 0 0 0 0 
0 0 0 0 0 0 0 0 0 
0 0 0 0 0 0 0 0 0 
0 0 0 0 0 0 0 0 0 
0 0 0 0 0 0 0 0 0 
0 0 0 0 0 0 0 0 0 
0 0 0 0 0 0 0 0 0 
0 0 0 0 0 0 0 0 0 
0 0 0 0 0 0 0 0 0 
0 0 0 0 0 0 0 0 0 
0 0 0 0 0 0 0 0 0 
0 0 0 0 0 0 0 0 0 
0 0 0 0 0 0 0 0 0 
0 0 0 0 0 0 0 0 0 
0 0 0 0 0 0 0 0 0 
0 0 0 0 0 0 0 0 0 
0 0 0 0 0 0 0 0 0 
0 0 0 0 0 0 0 0 0 
0 0 0 0 0 0 0 0 0 
0 0 0 0 0 0 0 0 0 
0 0 0 0 0 0 0 0 0 
0 0 0 0 0 0 0 0 0 
0 0 0 0 0 0 0 0 0 
0 0 0 0 0 0 0 0 0 
0 0 0 0 0 0 0 0 0 
0 0 0 0 0 0 0 0 0 
0 0 0 0 0 0 0 0 0 
0 0 0 0 0 0 0 0 0 
0 0 0 0 0 0 0 0 0 
0 0 0 0 0 0 0 0 0 
0 0 0 0 0 0 0 0 0 
0 0 0 0 0 0 0 0 0 
0 0 0 0 0 0 0 0 0 
0 0 0 0 0 0 0 0 0 
0 0 0 0 0 0 0 0 0 
0 0 0 0 0 0 0 0 0 
0 0 0 0 0 0 0 0 0 
0 0 0 0 0 0 0 0 0 
0 0 0 0 0 0 
v 3 500 double
-0.0243086 -0.0017093 0.00113367 -0.020981 -0.0249648 -0.00256732 6.75007e-06 -4.42996e-06 9.72787e-06 
0.00326327 -0.00122078 -0.00310226 0.000831495 -0.00011037 -0.000749584 0.00195788 9.31879e-05 -0.00602243 
0.00344326 -0.00114801 -2.74495e-05 0.00130069 -6.05729e-05 -0.000384819 0.00707509 -0.0420024 -0.00740876 
-0.00153815 -0.00151415 0.000247287 -0.119875 -0.00966023 0.0361315 -0.00467392 -0.00135721 -0.000475735 
0.000301472 3.25566e-05 -0.000493311 -0.00414806 -0.0214356 -0.0111824 0.00368711 0.00333207 -0.00134075 
-0.122281 -0.0287165 0.00286793 0.000690437 6.25118e-05 -7.37856e-05 0.000111602 8.20694e-05 -0.000440921 
0.00346502 -0.00110867 2.2582e-07 -0.00352296 -0.000428256 -0.00111803 0.00114729 0.000134937 0.000169072 
-0.0149475 0.0425823 -0.0310328 -2.21925e-06 -0.000108242 -0.000250851 0.000261814 1.33659e-05 0.000239841 
0.00292259 -0.0648085 -0.047479 -0.163392 -0.00522387 7.66954e-05 -0.000108911 5.37554e-05 -0.000357103 
-0.00181254 0.000111572 0.000357625 0.0150033 0.00671732 -0.000115943 0.00704294 0.000138972 0.000351542 
0.00164753 -1.80745e-05 0.000527673 -0.0292328 0.000809877 -0.0011632 -0.0598384 0.0447353 0.0120041 
-0.00428757 4.19103e-06 0.00139382 -0.0556706 -0.00777742 0.000304098 0.00175106 -0.0010202 -0.00164325 
-0.0768664 -0.00048003 -0.00132992 -4.19045e-06 -0.000272305 -6.17114e-05 0.00179003 -0.000986666 -0.00170181 
0.000166824 -0.000685402 7.03932e-05 0.0183497 -0.0234269 -4.19182e-11 0.00562801 0.00031057 8.71452e-05 
0.00621494 0.000113171 -0.003916 -0.0439867 -0.00781483 -0.00213314 0.00729621 0.000667039 -6.68212e-05 
0.000741555 4.50952e-06 -4.30503e-05 0.000269793 -3.16214e-05 7.99547e-07 2.15669e-05 -3.40246e-05 1.56894e-05 
-0.00651314 5.51253e-05 -0.000819629 -0.0167042 -0.0199198 0.00422618 -0.0669603 -0.00494923 0.0102078 
0.000612855 -0.000163591 5.82812e-05 0.000567994 -0.000112596 -0.000506892 0.00514604 -3.70209e-05 -0.00187552 
0.000311012 -5.29623e-05 -0.000163059 0.000296349 -8.15718e-05 -0.000194405 0.0064684 -8.68226e-05 1.78783e-05 
0.00393989 0.00033736 -0.00249464 0.000413477 -3.79888e-05 -0.000669382 0.00313233 -0.00140459 -0.00268017 
0.00039482 -4.62063e-05 7.4549e-07 -0.00566715 -0.0154859 0.000313767 0.000182583 -0.000111481 -0.000686627 
0.00286543 -0.000772744 -0.00310628 0.00978305 3.12417e-06 -0.00201437 -0.0209344 -0.0174538 0.00726946 
-0.114486 0.0511559 -0.0625106 -0.00772189 -0.0276154 -0.00384904 -0.035387 -0.000971713 0.00175556 
4.0892e-05 -5.49352e-05 3.9787e-05 -0.000121364 0.00023991 -2.1843e-05 -0.000530621 -0.00062869 -0.000534947 
0.00399269 -0.000247552 -0.0025045 7.13604e-06 2.27818e-05 1.2669e-05 0.00493247 -2.13548e-05 -0.00174135 
0.00577722 -0.000365083 -0.0006138 0.000248339 -2.46425e-05 -0.000586728 0.0196264 -0.0325184 -0.00986612 
-0.0548145 0.0157268 0.00593801 0.000184113 0.000156551 -0.000435967 0.00393622 -0.0006083 -0.00261217 
0.00170576 2.3659e-05 -0.000196161 -0.00268058 -0.0207709 0.00493746 0.000915225 -1.09926e-05 -0.000312428 
-0.178913 -0.0879428 0.179305 0.00577673 -0.000619054 -0.000875034 0.000474119 5.94398e-05 -4.33309e-06 
-0.0157239 0.0384863 0.0209683 -0.0338901 0.00699845 -0.0091254 5.31348e-05 -1.67297e-05 -4.98473e-05 
0.00353713 -0.00229261 9.92329e-05 0.169466 -0.0445888 -0.0491758 0.00625453 0.00023058 -0.00436802 
1.1937e-05 -2.00884e-06 2.83305e-05 -1.59536e-05 -2.76196e-06 -3.3157e-06 0.000641006 -0.000684918 -0.000390767 
-0.000380741 -0.000978165 -0.00144576 0.006728 0.000410033 0.000346195 -0.0111852 0.000714184 0.000178837 
0.00741573 -1.10432e-05 -0.000142631 0.0080187 -0.000723692 -0.000104911 0.00178269 4.01591e-05 2.39679e-13 
2.43933e-05 -0.000224986 -0.000235584 -0.00656193 0.00415501 -0.00254859 0.033506 0.0119895 -7.49021e-07 
-0.0604619 0.0209267 0.0106233 0.00297396 0.00012695 -0.000902669 0.00931081 -0.0140469 -0.00199696 
0.00248288 0.000867933 -0.000126361 0.00337276 -0.000221905 -0.00227493 0.00950616 -0.0047575 -0.000746799 
0.0059714 -0.000467654 -0.00143537 -1.32791e-05 -4.96056e-05 0.000167357 -0.0486836 0.000504318 0.00240133 
0.00731574 0.00330502 0.00138568 0.00123587 -0.00151804 3.65097e-05 0.00200841 -0.0501828 -0.0273244 
-0.0264437 -0.00100954 -0.0130466 -0.000726053 0.000411003 -0.00304422 0.00599053 -0.000588981 -0.00114421 
-0.00479901 -0.0148059 -0.0140857 0.00034673 0.00165878 -0.000876393 -0.0139431 0.000192929 0.0006142 
-0.00970171 -0.000345105 -0.0074508 -0.00607524 -6.42524e-05 0.000182483 0.000274633 -8.42429e-05 -0.000199778 
0.000464821 0.000976335 1.88193e-12 0.000913556 0.00062911 0.000199357 -0.000143724 -8.88209e-05 -9.387e-05 
0.000644387 1.27605e-05 -0.000326307 0.00477365 0.000732176 -0.00164845 -1.93827e-05 -0.000216167 -0.000421683 
0.000732779 0.00303334 1.13852e-05 5.73072e-05 1.33237e-05 7.42884e-05 0.00654119 0.00118333 6.69533e-05 
-0.0743146 -0.00241564 -0.00241267 0.00219629 -0.000412685 -0.00168009 0.0566085 0.000596809 -0.0285629 
-0.0193785 0.000114666 -0.0177859 0.00894306 -0.00311525 -0.00115389 -0.00456329 -0.0216702 0.00733885 
-0.00015582 -0.000123144 -0.00016057 -9.36411e-05 -0.000130649 0.000218508 -0.0341768 -0.00888788 -0.0100554 
-0.000738223 -0.000437732 -0.00103376 -0.0558951 0.00969929 0.00327708 0.000630628 -0.000609766 -0.000212397 
0.00656307 0.00113295 9.85638e-05 0.0089681 -0.0172906 0.000106789 0.0043862 0.00623962 0.000146466 
0.00709236 0.000212997 4.4304e-05 -0.0287191 0.00088872 -0.000951652 -1.83576e-05 -4.79355e-06 -2.97929e-05 
-0.00612081 -0.0020294 8.86899e-05 -0.00822948 -0.00360335 0.000467659 -0.00763395 -0.00937615 -0.00018393 
0.00219638 -0.00234309 3.09243e-05 -0.000212729 -6.32604e-06 -0.00897486 -2.09053e-05 1.75364e-05 1.52147e-05 