# vtk DataFile Version 4.0
Generated by LIGGGHTS
ASCII
DATASET POLYDATA
POINTS 500 float
0.456616 -0.0449209 -1.08435 0.475988 -0.0103962 -0.905839 0.267469 -0.02681 -1.06192 
0.251421 -0.0434139 -1.07808 0.184003 -0.0207676 -0.920575 0.359179 -0.0425072 -1.1656 
0.314178 -0.0197497 -1.11804 0.194128 -0.031531 -0.820953 0.266288 -0.0395884 -0.775818 
0.416358 -0.00854566 -0.864112 0.489148 -0.0310829 -0.839408 0.458033 -0.0388166 -1.19487 
0.287269 -0.0448246 -1.14546 0.48818 -0.0357632 -1.11755 0.144906 -0.0303659 -0.831367 
0.32688 -0.00617499 -0.40222 0.423699 -0.0423567 -0.962975 0.461422 -0.0178657 -1.17981 
0.353946 -0.0053087 -0.826536 0.444646 -0.0238788 -1.18225 0.172019 -0.0436166 -1.18413 
0.491909 -0.00536325 -1.10801 0.46385 -0.0238278 -1.16754 0.316299 -0.0357797 -1.15118 
0.220642 -0.0184067 -0.245057 0.410891 -0.0368249 -1.16072 0.486739 -0.01705 -1.16916 
0.455024 -0.02711 -1.12226 0.485077 -0.0242169 -1.16263 0.288106 -0.0393331 -0.33937 
0.344036 -0.0125247 -1.16474 0.461846 -0.00825645 -1.03372 0.291161 -0.0052908 -0.345872 
0.409281 -0.0125228 -1.17203 0.214809 -0.0268375 -0.245161 0.352087 -0.00904856 -0.52228 
0.377759 -0.0377693 -1.08827 0.326893 -0.0154406 -1.11944 0.387489 -0.00659333 -1.16312 
0.401034 -0.0382957 -1.10054 0.204942 -0.0138327 -0.245046 0.124622 -0.0220188 -0.986945 
0.279552 -0.0353721 -1.11973 0.468128 -0.0418053 -1.15958 0.267251 -0.0212967 -0.991829 
0.417849 -0.0227237 -1.11017 0.301267 -0.0143173 -1.19603 0.352853 -0.030894 -1.11715 
0.440901 -0.0367527 -1.15216 0.434946 -0.0191267 -1.17311 0.470721 -0.0121775 -1.04384 
0.422226 -0.0293149 -1.13401 0.394328 -0.0283799 -1.15605 0.343756 -0.0234154 -1.13146 
0.297049 -0.035633 -1.11511 0.246785 -0.0422827 -1.17155 0.242385 -0.0152342 -0.260421 
0.225222 -0.03418 -0.931171 0.311432 -0.0368338 -1.08717 0.354019 -0.0197868 -1.02332 
0.378444 -0.0346935 -1.17607 0.412925 -0.0133394 -1.18685 0.375208 -0.0103689 -1.15981 
0.331643 -0.0377663 -0.580594 0.3219 -0.0375958 -1.08888 0.478268 -0.0129856 -1.16049 
0.437071 -0.0137014 -1.16464 0.437788 -0.0429294 -1.1808 0.414307 -0.00630189 -1.14861 
0.254448 -0.0435561 -1.15638 0.440904 -0.0134488 -1.11701 0.403292 -0.0393667 -1.16699 
0.371674 -0.0134364 -1.04306 0.401623 -0.0426143 -1.17863 0.477878 -0.0100286 -1.11224 
0.456286 -0.0183621 -1.08453 0.366113 -0.0440309 -0.816969 0.4384 -0.0086223 -1.14592 
0.392494 -0.0101324 -1.10241 0.429445 -0.00526461 -1.13887 0.35819 -0.0447092 -1.13033 
0.18207 -0.0354474 -1.09768 0.397678 -0.039965 -0.744805 0.34226 -0.0230328 -1.15263 
0.205049 -0.0344758 -0.244956 0.39421 -0.0447664 -1.04555 0.389209 -0.0150218 -1.05575 
0.355943 -0.0437234 -0.510812 0.433486 -0.00749027 -1.03637 0.350845 -0.00545858 -1.12902 
0.35483 -0.0115642 -1.11041 0.486336 -0.0312387 -1.01823 0.329944 -0.00971449 -1.17904 
0.290013 -0.012346 -1.1886 0.111968 -0.0234475 -1.01939 0.381372 -0.010119 -1.10292 
0.363657 -0.0121653 -0.69191 0.449982 -0.0229297 -1.09426 0.215077 -0.0056681 -0.245021 
0.399631 -0.0067747 -1.16162 0.402151 -0.00662173 -1.06358 0.208536 -0.0448154 -0.244857 
0.349433 -0.0289643 -1.1608 0.431811 -0.00947463 -1.02325 0.370914 -0.0128896 -0.963145 
0.268766 -0.0151892 -1.19248 0.385991 -0.0236909 -1.14992 0.258499 -0.0333092 -1.15042 
0.401298 -0.0165596 -1.06 0.365229 -0.0132334 -0.791181 0.377137 -0.0335906 -0.895489 
0.366105 -0.0167799 -1.08597 0.465188 -0.0259639 -1.18656 0.409826 -0.00767054 -0.991688 
0.24017 -0.0081684 -1.10941 0.326074 -0.0356712 -1.15688 0.212837 -0.0154433 -0.239518 
0.427244 -0.00516307 -1.13103 0.441643 -0.0405521 -1.07021 0.343982 -0.0400698 -0.615584 
0.412839 -0.0256379 -0.917463 0.381261 -0.0204065 -0.697052 0.422954 -0.0217048 -1.14699 
0.398165 -0.0244728 -0.70549 0.40788 -0.0171619 -0.93663 0.36403 -0.0285654 -0.563826 
0.205196 -0.0238399 -0.244774 0.43237 -0.0209724 -1.05308 0.407865 -0.0440737 -1.02759 
0.372674 -0.0435756 -1.02744 0.41026 -0.0319489 -1.1307 0.444959 -0.0296606 -1.06375 
0.397712 -0.044411 -0.954064 0.337172 -0.00750651 -0.915147 0.389687 -0.00893882 -0.850329 
0.384576 -0.0445496 -0.781686 0.394928 -0.0254569 -1.10414 0.402915 -0.016677 -1.04968 
0.44669 -0.0196637 -1.06621 0.35263 -0.0259516 -0.478986 0.417883 -0.0106461 -1.00617 
0.43527 -0.0427699 -0.818433 0.427132 -0.0436807 -1.05477 0.419361 -0.0261226 -1.00275 
0.453373 -0.0315977 -0.933685 0.367986 -0.0400088 -0.969153 0.366314 -0.0197128 -0.932388 
0.355203 -0.0258726 -0.541641 0.393915 -0.00950881 -0.978752 0.382751 -0.0428777 -0.810859 
0.376359 -0.0110338 -0.880286 0.381645 -0.0439834 -0.770063 0.389486 -0.0330778 -0.955351 
0.402985 -0.0403064 -0.926897 0.221538 -0.0449628 -0.244734 0.360704 -0.037622 -1.03724 
0.338161 -0.0145479 -0.760048 0.416786 -0.00909334 -0.949026 0.415078 -0.0278236 -1.12092 
0.409966 -0.0317611 -0.961687 0.34207 -0.0129821 -0.899494 0.356592 -0.0283406 -1.00589 
0.375761 -0.0085913 -0.860592 0.339118 -0.0332695 -0.599198 0.386922 -0.0114158 -0.919647 
0.394583 -0.0270096 -0.743298 0.416851 -0.0385055 -0.939755 0.377514 -0.0182449 -0.764479 
0.346177 -0.0365009 -0.901744 0.343021 -0.0175293 -0.88245 0.390428 -0.0405881 -0.862954 
0.341086 -0.0176804 -0.851464 0.312991 -0.0286712 -0.382713 0.418524 -0.028647 -0.950735 
0.374725 -0.00796574 -0.915453 0.381273 -0.0283196 -0.813915 0.352612 -0.00919881 -0.625676 
0.399191 -0.0172714 -0.984496 0.336531 -0.0283777 -0.685294 0.402731 -0.00788523 -1.00918 
0.344335 -0.0429591 -0.494922 0.396986 -0.0123514 -0.779412 0.423829 -0.00496862 -0.90509 
0.366741 -0.032697 -0.94793 0.36857 -0.0101658 -0.832418 0.373815 -0.0201486 -0.955669 
0.317703 -0.0430862 -0.834311 0.339603 -0.0115926 -0.389823 0.399037 -0.0364028 -0.846119 
0.351173 -0.0223876 -0.774073 0.339454 -0.0371365 -0.747402 0.339449 -0.00960866 -0.464838 
0.405036 -0.0435604 -0.690669 0.302629 -0.0128183 -0.949035 0.286922 -0.00728651 -0.325298 
0.380508 -0.0235144 -0.706709 0.427877 -0.0144053 -0.939672 0.382885 -0.0423329 -0.731731 
0.205088 -0.012989 -0.233554 0.389838 -0.00590518 -0.799738 0.353544 -0.0355331 -0.730821 
0.337121 -0.0406654 -0.68634 0.385433 -0.0200722 -0.667317 0.358187 -0.0376633 -0.566563 
0.420019 -0.0390005 -0.767028 0.373347 -0.0370996 -0.640517 0.404887 -0.0203347 -0.819183 
0.400619 -0.0410645 -0.775631 0.383212 -0.00647962 -0.604545 0.328619 -0.043553 -0.435171 
0.337878 -0.00992628 -0.492493 0.358041 -0.0244588 -0.744608 0.341324 -0.0409548 -0.632086 
0.381824 -0.0311776 -0.72117 0.38819 -0.0393792 -0.696118 0.233465 -0.00620108 -0.245675 
0.376154 -0.0379248 -0.670934 0.380788 -0.00747412 -0.739444 0.346142 -0.0406418 -0.768016 
0.354106 -0.0331248 -0.588882 0.39637 -0.00957488 -0.736656 0.204919 -0.0414331 -0.236308 
0.374419 -0.0189376 -0.681055 0.366559 -0.0254251 -0.61703 0.350842 -0.0426923 -0.59006 
0.354026 -0.0214305 -0.659084 0.309362 -0.00727787 -0.376551 0.365252 -0.00627925 -0.57629 
0.352255 -0.031257 -0.533026 0.351363 -0.0188974 -0.687997 0.366386 -0.0440329 -0.718071 
0.345158 -0.0405018 -0.657524 0.336628 -0.040009 -0.501272 0.346553 -0.0228362 -0.695934 
0.355092 -0.0076122 -0.485047 0.371051 -0.0381569 -0.543589 0.392998 -0.0145103 -0.754235 
0.358105 -0.0438664 -0.668494 0.379382 -0.0428966 -0.611877 0.363514 -0.0201883 -0.71889 
0.36203 -0.00708925 -0.64549 0.346908 -0.0357929 -0.480319 0.377184 -0.0444248 -0.626493 
0.323425 -0.0316609 -0.431149 0.378941 -0.012787 -0.638782 0.359438 -0.025541 -0.668224 
0.374348 -0.0120845 -0.626878 0.323641 -0.0137736 -0.698156 0.342259 -0.0210217 -0.494538 
0.366941 -0.0205516 -0.584958 0.205318 -0.00499456 -0.240385 0.355724 -0.0196409 -0.518686 
0.367324 -0.044195 -0.590731 0.362208 -0.0341076 -0.512548 0.363059 -0.0232186 -0.552188 
0.370124 -0.0443253 -0.658658 0.261014 -0.00943598 -0.292757 0.363682 -0.0444872 -0.575554 
0.365355 -0.01047 -0.542991 0.205103 -0.0232781 -0.233743 0.358795 -0.0326108 -0.491816 
0.348138 -0.0239759 -0.571305 0.350079 -0.022618 -0.583314 0.353414 -0.00997475 -0.465321 
0.348212 -0.0281371 -0.60548 0.340691 -0.0311031 -0.453312 0.219658 -0.035433 -0.241844 
0.355327 -0.0425861 -0.498812 0.360587 -0.044092 -0.611017 0.277576 -0.0102046 -0.321666 
0.351519 -0.0251375 -0.460154 0.250797 -0.00562134 -0.262439 0.367562 -0.0250503 -0.647306 
0.355888 -0.0439609 -0.482067 0.354312 -0.00598498 -0.542437 0.340316 -0.0219145 -0.459296 
0.355924 -0.0447635 -0.542781 0.352028 -0.0111005 -0.552834 0.344196 -0.0279939 -0.469058 
0.338366 -0.00671834 -0.422737 0.350206 -0.042885 -0.453411 0.365623 -0.0350132 -0.533532 
0.317311 -0.0191005 -0.387702 0.33226 -0.0109525 -0.442883 0.222577 -0.0133188 -0.236765 
0.335053 -0.0223056 -0.400739 0.33752 -0.0420038 -0.457378 0.352962 -0.0117214 -0.475763 
0.338022 -0.00583345 -0.454532 0.353047 -0.0166917 -0.509086 0.349138 -0.0334912 -0.513924 
0.351804 -0.0430307 -0.523246 0.351935 -0.0418903 -0.471657 0.331807 -0.0192588 -0.453035 
0.342105 -0.0122801 -0.478589 0.330387 -0.0443973 -0.467193 0.339844 -0.0256231 -0.505798 
0.360473 -0.0131814 -0.531722 0.364554 -0.00756994 -0.560319 0.328544 -0.0122514 -0.512489 
0.312637 -0.0419269 -0.383358 0.349069 -0.0182255 -0.452207 0.271749 -0.0260517 -0.307883 
0.348105 -0.0316848 -0.433423 0.332123 -0.0399968 -0.415605 0.345076 -0.00972677 -0.432491 
0.31814 -0.00903268 -0.391203 0.325952 -0.0060181 -0.417018 0.348076 -0.0445393 -0.440845 
0.322179 -0.0158742 -0.398028 0.342364 -0.0448158 -0.432427 0.211086 -0.0321207 -0.237071 
0.230869 -0.035515 -0.244761 0.34619 -0.0384207 -0.462805 0.338631 -0.0187695 -0.445814 
0.325517 -0.0144153 -0.430405 0.320259 -0.0433679 -0.398366 0.346407 -0.00725235 -0.444144 
0.353102 -0.0190144 -0.49818 0.303207 -0.0194038 -0.366779 0.340137 -0.0346274 -0.410285 
0.301042 -0.0399928 -0.362909 0.337735 -0.0307221 -0.439915 0.320211 -0.0340012 -0.404224 
0.317936 -0.0125963 -0.378184 0.244886 -0.0252382 -0.265376 0.213731 -0.00528799 -0.235137 
0.326931 -0.0187784 -0.379989 0.334938 -0.0320335 -0.422463 0.311928 -0.0345641 -0.374457 
0.221216 -0.0356534 -0.232005 0.316038 -0.0302819 -0.39356 0.345646 -0.0259109 -0.445194 
0.325799 -0.0151876 -0.413287 0.320791 -0.0214931 -0.363154 0.258925 -0.0438772 -0.267726 
0.341265 -0.00737513 -0.40112 0.343633 -0.0191498 -0.406759 0.34126 -0.0417719 -0.422947 
0.304369 -0.0344806 -0.348607 0.322184 -0.0376475 -0.3865 0.30506 -0.0142135 -0.357975 
0.335704 -0.0305498 -0.362819 0.328982 -0.0380465 -0.35195 0.341778 -0.0221459 -0.436659 
0.206855 -0.00565009 -0.226486 0.272227 -0.0449399 -0.312783 0.225271 -0.0272755 -0.244998 
0.325539 -0.043717 -0.379288 0.243672 -0.00703776 -0.254241 0.310461 -0.0311311 -0.356 
0.282466 -0.0439558 -0.326034 0.303992 -0.00758034 -0.366185 0.324426 -0.025602 -0.399208 
0.322618 -0.0119974 -0.347508 0.299777 -0.0258423 -0.341169 0.214802 -0.043606 -0.236983 
0.333613 -0.0171432 -0.366713 0.307411 -0.0252991 -0.334616 0.330493 -0.0417276 -0.392949 
0.304756 -0.0300791 -0.369261 0.269767 -0.0173711 -0.301763 0.324321 -0.0259695 -0.326463 
0.246207 -0.0363151 -0.261502 0.311071 -0.0424491 -0.352251 0.273325 -0.00543829 -0.310078 
0.314531 -0.0428179 -0.368325 0.255765 -0.0346881 -0.271278 0.329817 -0.0247119 -0.350804 
0.314591 -0.0313494 -0.340137 0.23181 -0.0450637 -0.242165 0.261401 -0.0192352 -0.290657 
0.28824 -0.0432836 -0.304898 0.305499 -0.016523 -0.309388 0.297778 -0.0296597 -0.32295 
0.275525 -0.0358658 -0.318036 0.308309 -0.0155159 -0.337999 0.290862 -0.0274453 -0.345465 
0.323846 -0.0400001 -0.319595 0.306454 -0.00498717 -0.350439 0.271637 -0.0150038 -0.282497 
0.237794 -0.0222976 -0.253333 0.272555 -0.00552566 -0.29414 0.272091 -0.033045 -0.30086 
0.302884 -0.0156401 -0.321484 0.219996 -0.0151529 -0.226857 0.313987 -0.0436779 -0.340485 
0.298061 -0.0401702 -0.313719 0.215725 -0.0283767 -0.227723 0.295597 -0.0207403 -0.300399 
0.313087 -0.0107898 -0.299715 0.309615 -0.0393298 -0.330535 0.268263 -0.0432432 -0.297686 
0.267813 -0.0390468 -0.269695 0.283255 -0.00941647 -0.303365 0.265152 -0.00871071 -0.266403 
0.28389 -0.044455 -0.314861 0.295106 -0.0188366 -0.314285 0.267659 -0.0448848 -0.286049 
0.205135 -0.0343129 -0.229303 0.289393 -0.00723732 -0.281414 0.238097 -0.0250833 -0.243114 
0.286169 -0.0330387 -0.30337 0.242466 -0.0134775 -0.243019 0.263119 -0.033399 -0.290412 
0.285182 -0.0301197 -0.292278 0.254611 -0.0146658 -0.27189 0.291548 -0.0429037 -0.289519 
0.206284 -0.0292436 -0.220617 0.284977 -0.0410075 -0.271988 0.21794 -0.023452 -0.236338 
0.231546 -0.0346432 -0.23471 0.282859 -0.0116872 -0.272258 0.245047 -0.035029 -0.247576 
0.282226 -0.016991 -0.285087 0.249212 -0.0447586 -0.254711 0.2659 -0.0272964 -0.269699 
0.282414 -0.0190638 -0.296511 0.215252 -0.0444236 -0.226899 0.226128 -0.044278 -0.232452 
0.241438 -0.0432838 -0.236018 0.228847 -0.0337606 -0.225433 0.256583 -0.0258378 -0.25688 
0.253836 -0.015121 -0.260722 0.224172 -0.0244018 -0.221137 0.252349 -0.0165571 -0.247863 
0.245368 -0.0176071 -0.234398 0.266847 -0.0392839 -0.251641 0.213373 -0.0145562 -0.217891 
0.256971 -0.0351822 -0.252347 0.226298 -0.0258747 -0.231247 0.250091 -0.0261152 -0.241953 
0.259113 -0.00686898 -0.244843 0.222704 -0.00527887 -0.227426 0.244466 -0.0339542 -0.237795 
0.228305 -0.00518119 -0.23581 0.205833 -0.039334 -0.220262 0.205922 -0.0192595 -0.222844 
0.276947 -0.029302 -0.282881 0.215872 -0.0307819 -0.217993 0.228867 -0.00784201 -0.217518 
0.235562 -0.0449887 -0.224709 0.245977 -0.0375739 -0.225847 0.23439 -0.0163086 -0.210508 
0.248208 -0.00500104 -0.244543 0.214727 -0.00955301 -0.20573 0.236568 -0.0144898 -0.222619 
0.249582 -0.0350093 -0.212758 0.236585 -0.0241144 -0.233459 0.221039 -0.0195915 -0.212445 
0.251377 -0.00499143 -0.234952 0.246377 -0.0167903 -0.219895 0.213993 -0.0352447 -0.209254 
0.257175 -0.0449628 -0.240935 0.217088 -0.0051597 -0.218644 0.26395 -0.0264868 -0.248644 
0.239176 -0.0418961 -0.211109 0.223662 -0.0415557 -0.219628 0.227848 -0.0332376 -0.213102 
0.213047 -0.0448289 -0.215539 0.241305 -0.0177234 -0.197895 0.244548 -0.0379417 -0.181182 
0.234661 -0.00816826 -0.180772 0.229919 -0.0193797 -0.172499 0.211536 -0.0338126 -0.170989 
0.214349 -0.0200955 -0.201607 0.221157 -0.0143995 -0.170201 0.231218 -0.00528333 -0.208488 
0.243328 -0.0197809 -0.173965 0.233298 -0.0298872 -0.191492 0.212884 -0.00707634 -0.190422 
0.226422 -0.0333351 -0.175602 0.213564 -0.0209664 -0.170171 0.241571 -0.0288258 -0.207997 
0.227267 -0.0434518 -0.193454 0.240382 -0.00722492 -0.198862 0.248431 -0.00814176 -0.18341 
0.234241 -0.0426811 -0.170073 0.210085 -0.0426107 -0.198627 0.223465 -0.0166149 -0.191371 
0.212966 -0.0382415 -0.145564 0.24559 -0.0433386 -0.148724 0.217606 -0.00828278 -0.14139 
0.229662 -0.0245021 -0.138343 0.229672 -0.0146289 -0.153552 0.22835 -0.0399226 -0.155013 
0.246693 -0.0258093 -0.159025 0.237046 -0.0110775 -0.140143 0.218363 -0.0200291 -0.139897 
0.249723 -0.0158387 -0.141044 0.212163 -0.0246003 -0.152209 0.236173 -0.0417103 -0.138214 
0.213241 -0.00718381 -0.166613 0.220645 -0.0296722 -0.147045 0.21038 -0.0441861 -0.16822 
0.24883 -0.0313142 -0.139259 0.226361 -0.0407292 -0.136467 0.236713 -0.0314384 -0.147628 
0.242008 -0.0103202 -0.156618 0.240793 -0.02137 -0.14475 
VERTICES 500 1000
1 0 
1 1 
1 2 
1 3 
1 4 
1 5 
1 6 
1 7 
1 8 
1 9 
1 10 
1 11 
1 12 
1 13 
1 14 
1 15 
1 16 
1 17 
1 18 
1 19 
1 20 
1 21 
1 22 
1 23 
1 24 
1 25 
1 26 
1 27 
1 28 
1 29 
1 30 
1 31 
1 32 
1 33 
1 34 
1 35 
1 36 
1 37 
1 38 
1 39 
1 40 
1 41 
1 42 
1 43 
1 44 
1 45 
1 46 
1 47 
1 48 
1 49 
1 50 
1 51 
1 52 
1 53 
1 54 
1 55 
1 56 
1 57 
1 58 
1 59 
1 60 
1 61 
1 62 
1 63 
1 64 
1 65 
1 66 
1 67 
1 68 
1 69 
1 70 
1 71 
1 72 
1 73 
1 74 
1 75 
1 76 
1 77 
1 78 
1 79 
1 80 
1 81 
1 82 
1 83 
1 84 
1 85 
1 86 
1 87 
1 88 
1 89 
1 90 
1 91 
1 92 
1 93 
1 94 
1 95 
1 96 
1 97 
1 98 
1 99 
1 100 
1 101 
1 102 
1 103 
1 104 
1 105 
1 106 
1 107 
1 108 
1 109 
1 110 
1 111 
1 112 
1 113 
1 114 
1 115 
1 116 
1 117 
1 118 
1 119 
1 120 
1 121 
1 122 
1 123 
1 124 
1 125 
1 126 
1 127 
1 128 
1 129 
1 130 
1 131 
1 132 
1 133 
1 134 
1 135 
1 136 
1 137 
1 138 
1 139 
1 140 
1 141 
1 142 
1 143 
1 144 
1 145 
1 146 
1 147 
1 148 
1 149 
1 150 
1 151 
1 152 
1 153 
1 154 
1 155 
1 156 
1 157 
1 158 
1 159 
1 160 
1 161 
1 162 
1 163 
1 164 
1 165 
1 166 
1 167 
1 168 
1 169 
1 170 
1 171 
1 172 
1 173 
1 174 
1 175 
1 176 
1 177 
1 178 
1 179 
1 180 
1 181 
1 182 
1 183 
1 184 
1 185 
1 186 
1 187 
1 188 
1 189 
1 190 
1 191 
1 192 
1 193 
1 194 
1 195 
1 196 
1 197 
1 198 
1 199 
1 200 
1 201 
1 202 
1 203 
1 204 
1 205 
1 206 
1 207 
1 208 
1 209 
1 210 
1 211 
1 212 
1 213 
1 214 
1 215 
1 216 
1 217 
1 218 
1 219 
1 220 
1 221 
1 222 
1 223 
1 224 
1 225 
1 226 
1 227 
1 228 
1 229 
1 230 
1 231 
1 232 
1 233 
1 234 
1 235 
1 236 
1 237 
1 238 
1 239 
1 240 
1 241 
1 242 
1 243 
1 244 
1 245 
1 246 
1 247 
1 248 
1 249 
1 250 
1 251 
1 252 
1 253 
1 254 
1 255 
1 256 
1 257 
1 258 
1 259 
1 260 
1 261 
1 262 
1 263 
1 264 
1 265 
1 266 
1 267 
1 268 
1 269 
1 270 
1 271 
1 272 
1 273 
1 274 
1 275 
1 276 
1 277 
1 278 
1 279 
1 280 
1 281 
1 282 
1 283 
1 284 
1 285 
1 286 
1 287 
1 288 
1 289 
1 290 
1 291 
1 292 
1 293 
1 294 
1 295 
1 296 
1 297 
1 298 
1 299 
1 300 
1 301 
1 302 
1 303 
1 304 
1 305 
1 306 
1 307 
1 308 
1 309 
1 310 
1 311 
1 312 
1 313 
1 314 
1 315 
1 316 
1 317 
1 318 
1 319 
1 320 
1 321 
1 322 
1 323 
1 324 
1 325 
1 326 
1 327 
1 328 
1 329 
1 330 
1 331 
1 332 
1 333 
1 334 
1 335 
1 336 
1 337 
1 338 
1 339 
1 340 
1 341 
1 342 
1 343 
1 344 
1 345 
1 346 
1 347 
1 348 
1 349 
1 350 
1 351 
1 352 
1 353 
1 354 
1 355 
1 356 
1 357 
1 358 
1 359 
1 360 
1 361 
1 362 
1 363 
1 364 
1 365 
1 366 
1 367 
1 368 
1 369 
1 370 
1 371 
1 372 
1 373 
1 374 
1 375 
1 376 
1 377 
1 378 
1 379 
1 380 
1 381 
1 382 
1 383 
1 384 
1 385 
1 386 
1 387 
1 388 
1 389 
1 390 
1 391 
1 392 
1 393 
1 394 
1 395 
1 396 
1 397 
1 398 
1 399 
1 400 
1 401 
1 402 
1 403 
1 404 
1 405 
1 406 
1 407 
1 408 
1 409 
1 410 
1 411 
1 412 
1 413 
1 414 
1 415 
1 416 
1 417 
1 418 
1 419 
1 420 
1 421 
1 422 
1 423 
1 424 
1 425 
1 426 
1 427 
1 428 
1 429 
1 430 
1 431 
1 432 
1 433 
1 434 
1 435 
1 436 
1 437 
1 438 
1 439 
1 440 
1 441 
1 442 
1 443 
1 444 
1 445 
1 446 
1 447 
1 448 
1 449 
1 450 
1 451 
1 452 
1 453 
1 454 
1 455 
1 456 
1 457 
1 458 
1 459 
1 460 
1 461 
1 462 
1 463 
1 464 
1 465 
1 466 
1 467 
1 468 
1 469 
1 470 
1 471 
1 472 
1 473 
1 474 
1 475 
1 476 
1 477 
1 478 
1 479 
1 480 
1 481 
1 482 
1 483 
1 484 
1 485 
1 486 
1 487 
1 488 
1 489 
1 490 
1 491 
1 492 
1 493 
1 494 
1 495 
1 496 
1 497 
1 498 
1 499 

POINT_DATA 500
FIELD FieldData 7
id 1 500 int
1 2 3 4 5 6 7 8 9 
10 11 12 13 14 15 16 17 18 
19 20 21 22 23 24 25 26 27 
28 29 30 31 32 33 34 35 36 
37 38 39 40 41 42 43 44 45 
46 47 48 49 50 51 52 53 54 
55 56 57 58 59 60 61 62 63 
64 65 66 67 68 69 70 71 72 
73 74 75 76 77 78 79 80 81 
82 83 84 85 86 87 88 89 90 
91 92 93 94 95 96 97 98 99 
100 101 102 103 104 105 106 107 108 
109 110 111 112 113 114 115 116 117 
118 119 120 121 122 123 124 125 126 
127 128 129 130 131 132 133 134 135 
136 137 138 139 140 141 142 143 144 
145 146 147 148 149 150 151 152 153 
154 155 156 157 158 159 160 161 162 
163 164 165 166 167 168 169 170 171 
172 173 174 175 176 177 178 179 180 
181 182 183 184 185 186 187 188 189 
190 191 192 193 194 195 196 197 198 
199 200 201 202 203 204 205 206 207 
208 209 210 211 212 213 214 215 216 
217 218 219 220 221 222 223 224 225 
226 227 228 229 230 231 232 233 234 
235 236 237 238 239 240 241 242 243 
244 245 246 247 248 249 250 251 252 
253 254 255 256 257 258 259 260 261 
262 263 264 265 266 267 268 269 270 
271 272 273 274 275 276 277 278 279 
280 281 282 283 284 285 286 287 288 
289 290 291 292 293 294 295 296 297 
298 299 300 301 302 303 304 305 306 
307 308 309 310 311 312 313 314 315 
316 317 318 319 320 321 322 323 324 
325 326 327 328 329 330 331 332 333 
334 335 336 337 338 339 340 341 342 
343 344 345 346 347 348 349 350 351 
352 353 354 355 356 357 358 359 360 
361 362 363 364 365 366 367 368 369 
370 371 372 373 374 375 376 377 378 
379 380 381 382 383 384 385 386 387 
388 389 390 391 392 393 394 395 396 
397 398 399 400 401 402 403 404 405 
406 407 408 409 410 411 412 413 414 
415 416 417 418 419 420 421 422 423 
424 425 426 427 428 429 430 431 432 
433 434 435 436 437 438 439 440 441 
442 443 444 445 446 447 448 449 450 
451 452 453 454 455 456 457 458 459 
460 461 462 463 464 465 466 467 468 
469 470 471 472 473 474 475 476 477 
478 479 480 481 482 483 484 485 486 
487 488 489 490 491 492 493 494 495 
496 497 498 499 500 
type 1 500 int
1 1 1 1 1 1 1 1 1 
1 1 1 1 1 1 1 1 1 
1 1 1 1 1 1 1 1 1 
1 1 1 1 1 1 1 1 1 
1 1 1 1 1 1 1 1 1 
1 1 1 1 1 1 1 1 1 
1 1 1 1 1 1 1 1 1 
1 1 1 1 1 1 1 1 1 
1 1 1 1 1 1 1 1 1 
1 1 1 1 1 1 1 1 1 
1 1 1 1 1 1 1 1 1 
1 1 1 1 1 1 1 1 1 
1 1 1 1 1 1 1 1 1 
1 1 1 1 1 1 1 1 1 
1 1 1 1 1 1 1 1 1 
1 1 1 1 1 1 1 1 1 
1 1 1 1 1 1 1 1 1 
1 1 1 1 1 1 1 1 1 
1 1 1 1 1 1 1 1 1 
1 1 1 1 1 1 1 1 1 
1 1 1 1 1 1 1 1 1 
1 1 1 1 1 1 1 1 1 
1 1 1 1 1 1 1 1 1 
1 1 1 1 1 1 1 1 1 
1 1 1 1 1 1 1 1 1 
1 1 1 1 1 1 1 1 1 
1 1 1 1 1 1 1 1 1 
1 1 1 1 1 1 1 1 1 
1 1 1 1 1 1 1 1 1 
1 1 1 1 1 1 1 1 1 
1 1 1 1 1 1 1 1 1 
1 1 1 1 1 1 1 1 1 
1 1 1 1 1 1 1 1 1 
1 1 1 1 1 1 1 1 1 
1 1 1 1 1 1 1 1 1 
1 1 1 1 1 1 1 1 1 
1 1 1 1 1 1 1 1 1 
1 1 1 1 1 1 1 1 1 
1 1 1 1 1 1 1 1 1 
1 1 1 1 1 1 1 1 1 
1 1 1 1 1 1 1 1 1 
1 1 1 1 1 1 1 1 1 
1 1 1 1 1 1 1 1 1 
1 1 1 1 1 1 1 1 1 
1 1 1 1 1 1 1 1 1 
1 1 1 1 1 1 1 1 1 
1 1 1 1 1 1 1 1 1 
1 1 1 1 1 1 1 1 1 
1 1 1 1 1 1 1 1 1 
1 1 1 1 1 1 1 1 1 
1 1 1 1 1 1 1 1 1 
1 1 1 1 1 1 1 1 1 
1 1 1 1 1 1 1 1 1 
1 1 1 1 1 1 1 1 1 
1 1 1 1 1 1 1 1 1 
1 1 1 1 1 
i 3 500 int
0 0 0 0 0 0 0 0 0 
0 0 0 0 0 0 0 0 0 
0 0 0 0 0 0 0 0 0 
0 0 0 0 0 0 0 0 0 
0 0 0 0 0 0 0 0 0 
0 0 0 0 0 0 0 0 0 
0 0 0 0 0 0 0 0 0 
0 0 0 0 0 0 0 0 0 
0 0 0 0 0 0 0 0 0 
0 0 0 0 0 0 0 0 0 
0 0 0 0 0 0 0 0 0 
0 0 0 0 0 0 0 0 0 
0 0 0 0 0 0 0 0 0 
0 0 0 0 0 0 0 0 0 
0 0 0 0 0 0 0 0 0 
0 0 0 0 0 0 0 0 0 
0 0 0 0 0 0 0 0 0 
0 0 0 0 0 0 0 0 0 
0 0 0 0 0 0 0 0 0 
0 0 0 0 0 0 0 0 0 
0 0 0 0 0 0 0 0 0 
0 0 0 0 0 0 0 0 0 
0 0 0 0 0 0 0 0 0 
0 0 0 0 0 0 0 0 0 
0 0 0 0 0 0 0 0 0 
0 0 0 0 0 0 0 0 0 
0 0 0 0 0 0 0 0 0 
0 0 0 0 0 0 0 0 0 
0 0 0 0 0 0 0 0 0 
0 0 0 0 0 0 0 0 0 
0 0 0 0 0 0 0 0 0 
0 0 0 0 0 0 0 0 0 
0 0 0 0 0 0 0 0 0 
0 0 0 0 0 0 0 0 0 
0 0 0 0 0 0 0 0 0 
0 0 0 0 0 0 0 0 0 
0 0 0 0 0 0 0 0 0 
0 0 0 0 0 0 0 0 0 
0 0 0 0 0 0 0 0 0 
0 0 0 0 0 0 0 0 0 
0 0 0 0 0 0 0 0 0 
0 0 0 0 0 0 0 0 0 
0 0 0 0 0 0 0 0 0 
0 0 0 0 0 0 0 0 0 
0 0 0 0 0 0 0 0 0 
0 0 0 0 0 0 0 0 0 
0 0 0 0 0 0 0 0 0 
0 0 0 0 0 0 0 0 0 
0 0 0 0 0 0 0 0 0 
0 0 0 0 0 0 0 0 0 
0 0 0 0 0 0 0 0 0 
0 0 0 0 0 0 0 0 0 
0 0 0 0 0 0 0 0 0 
0 0 0 0 0 0 0 0 0 
0 0 0 0 0 0 0 0 0 
0 0 0 0 0 0 0 0 0 
0 0 0 0 0 0 0 0 0 
0 0 0 0 0 0 0 0 0 
0 0 0 0 0 0 0 0 0 
0 0 0 0 0 0 0 0 0 
0 0 0 0 0 0 0 0 0 
0 0 0 0 0 0 0 0 0 
0 0 0 0 0 0 0 0 0 
0 0 0 0 0 0 0 0 0 
0 0 0 0 0 0 0 0 0 
0 0 0 0 0 0 0 0 0 
0 0 0 0 0 0 0 0 0 
0 0 0 0 0 0 0 0 0 
0 0 0 0 0 0 0 0 0 
0 0 0 0 0 0 0 0 0 
0 0 0 0 0 0 0 0 0 
0 0 0 0 0 0 0 0 0 
0 0 0 0 0 0 0 0 0 
0 0 0 0 0 0 0 0 0 
0 0 0 0 0 0 0 0 0 
0 0 0 0 0 0 0 0 0 
0 0 0 0 0 0 0 0 0 
0 0 0 0 0 0 0 0 0 
0 0 0 0 0 0 0 0 0 
0 0 0 0 0 0 0 0 0 
0 0 0 0 0 0 0 0 0 
0 0 0 0 0 0 0 0 0 
0 0 0 0 0 0 0 0 0 
0 0 0 0 0 0 0 0 0 
0 0 0 0 0 0 0 0 0 
0 0 0 0 0 0 0 0 0 
0 0 0 0 0 0 0 0 0 
0 0 0 0 0 0 0 0 0 
0 0 0 0 0 0 0 0 0 
0 0 0 0 0 0 0 0 0 
0 0 0 0 0 0 0 0 0 
0 0 0 0 0 0 0 0 0 
0 0 0 0 0 0 0 0 0 
0 0 0 0 0 0 0 0 0 
0 0 0 0 0 0 0 0 0 
0 0 0 0 0 0 0 0 0 
0 0 0 0 0 0 0 0 0 
0 0 0 0 0 0 0 0 0 
0 0 0 0 0 0 0 0 0 
0 0 0 0 0 0 0 0 0 
0 0 0 0 0 0 0 0 0 
0 0 0 0 0 0 0 0 0 
0 0 0 0 0 0 0 0 0 
0 0 0 0 0 0 0 0 0 
0 0 0 0 0 0 0 0 0 
0 0 0 0 0 0 0 0 0 
0 0 0 0 0 0 0 0 0 
0 0 0 0 0 0 0 0 0 
0 0 0 0 0 0 0 0 0 
0 0 0 0 0 0 0 0 0 
0 0 0 0 0 0 0 0 0 
0 0 0 0 0 0 0 0 0 
0 0 0 0 0 0 0 0 0 
0 0 0 0 0 0 0 0 0 
0 0 0 0 0 0 0 0 0 
0 0 0 0 0 0 0 0 0 
0 0 0 0 0 0 0 0 0 
0 0 0 0 0 0 0 0 0 
0 0 0 0 0 0 0 0 0 
0 0 0 0 0 0 0 0 0 
0 0 0 0 0 0 0 0 0 
0 0 0 0 0 0 0 0 0 
0 0 0 0 0 0 0 0 0 
0 0 0 0 0 0 0 0 0 
0 0 0 0 0 0 0 0 0 
0 0 0 0 0 0 0 0 0 
0 0 0 0 0 0 0 0 0 
0 0 0 0 0 0 0 0 0 
0 0 0 0 0 0 0 0 0 
0 0 0 0 0 0 0 0 0 
0 0 0 0 0 0 0 0 0 
0 0 0 0 0 0 0 0 0 
0 0 0 0 0 0 0 0 0 
0 0 0 0 0 0 0 0 0 
0 0 0 0 0 0 0 0 0 
0 0 0 0 0 0 0 0 0 
0 0 0 0 0 0 0 0 0 
0 0 0 0 0 0 0 0 0 
0 0 0 0 0 0 0 0 0 
0 0 0 0 0 0 0 0 0 
0 0 0 0 0 0 0 0 0 
0 0 0 0 0 0 0 0 0 
0 0 0 0 0 0 0 0 0 
0 0 0 0 0 0 0 0 0 
0 0 0 0 0 0 0 0 0 
0 0 0 0 0 0 0 0 0 
0 0 0 0 0 0 0 0 0 
0 0 0 0 0 0 0 0 0 
0 0 0 0 0 0 0 0 0 
0 0 0 0 0 0 0 0 0 
0 0 0 0 0 0 0 0 0 
0 0 0 0 0 0 0 0 0 
0 0 0 0 0 0 0 0 0 
0 0 0 0 0 0 0 0 0 
0 0 0 0 0 0 0 0 0 
0 0 0 0 0 0 0 0 0 
0 0 0 0 0 0 0 0 0 
0 0 0 0 0 0 0 0 0 
0 0 0 0 0 0 0 0 0 
0 0 0 0 0 0 0 0 0 
0 0 0 0 0 0 0 0 0 
0 0 0 0 0 0 0 0 0 
0 0 0 0 0 0 0 0 0 
0 0 0 0 0 0 0 0 0 
0 0 0 0 0 0 0 0 0 
0 0 0 0 0 0 0 0 0 
0 0 0 0 0 0 
v 3 500 double
0.608475 0.183052 -4.33283 -0.881538 0.682553 0.956492 -0.575894 0.895596 -0.287136 
-2.05387 0.05681 0.984034 -0.258342 -0.0600496 2.1631 0.0711635 0.103785 3.05173 
-1.084 0.86114 2.07274 -0.355462 0.031393 1.97636 -0.187731 0.0172905 1.82525 
0.942031 -0.168319 0.0435968 -0.203239 0.0811737 1.89866 -0.0890172 0.781019 0.189044 
-0.704201 0.59928 1.1183 1.43882 0.323315 -3.73673 -0.341783 0.060187 1.91872 
1.18488 -0.156262 -1.89216 -1.15215 -1.27226 1.74567 -0.882859 0.793544 -0.0354986 
-0.00615436 0.0626503 -3.54787 -0.512122 1.55606 0.702584 -3.33158 0.308778 0.730708 
-0.771688 -0.129077 0.566554 0.190881 0.960101 -0.0835866 0.237362 0.396987 0.792514 
-0.199165 0.443708 0.0351056 0.291778 -0.42268 0.901006 -1.55239 1.18181 -1.22903 
0.0109599 0.811107 1.03287 -0.859692 0.662313 -0.873929 1.00997 0.0823173 -1.50298 
1.19922 0.044994 -0.50698 -0.996102 -0.922053 0.0156609 0.89808 -0.0114904 -1.52871 
1.40119 -1.02038 -2.00867 -0.0739828 -0.164267 -0.262634 -0.0208629 -0.045752 -2.49031 
0.0696595 0.106006 2.86597 0.583624 -0.94646 -2.58478 0.232417 -0.456586 0.470608 
1.68753 1.51741 -0.167141 -0.04055 -0.152315 -0.0660928 -2.3342 -0.0806298 1.90333 
-0.490664 0.241727 2.68251 1.84339 0.522169 -0.0793947 -0.213947 0.115414 2.42363 
2.90218 -1.24103 -2.39309 1.56137 -0.575418 -2.14009 -0.238611 1.66143 -1.66061 
0.761356 -1.48184 -3.57617 1.15166 0.693025 0.12393 -0.403782 0.051658 2.63498 
1.86163 -0.968142 -0.295281 -0.64733 -2.45549 -0.707882 -1.2886 1.28509 -0.989685 
-0.565483 0.536262 -0.227647 -1.80552 0.303417 -1.48357 0.685607 -0.242921 -1.41383 
-0.299543 -0.100675 2.33962 -0.688967 -0.141399 1.91488 0.0847484 0.0053118 -4.17988 
0.161884 -0.330164 -0.0711345 -0.185313 -0.282654 2.99327 -1.0038 0.283024 2.06734 
0.153816 -0.296832 -2.69063 -0.106281 -0.151717 -4.29644 1.09428 -0.619262 2.13205 
0.117409 0.0659115 -1.21143 0.338198 0.79675 0.435836 -0.442709 -0.665774 -2.13771 
-0.555019 0.614968 0.62191 0.435769 -0.0943403 -4.17934 -0.2832 1.07739 0.430442 
0.189571 -0.0267251 -4.2806 -0.125514 -1.21511 -0.32298 -1.89404 -0.202813 -1.07749 
1.2141 1.03221 1.16359 0.256658 -0.0121267 -3.49931 0.0709348 -0.241586 1.44004 
0.711668 -1.00694 -1.03029 0.583102 -0.10464 -0.79511 -0.431703 0.552163 2.13241 
-1.61682 0.237204 -2.38326 0.482807 -0.0491716 -3.21938 0.502258 0.739813 -2.7804 
-0.00990084 -0.111753 0.012525 0.290455 0.00665646 -4.03919 -0.0739084 0.631765 -0.653769 
0.518778 0.0932248 -2.66447 1.10744 -0.0187163 -3.70501 -1.1964 -0.775019 -2.23786 
-2.78178 -0.936464 -2.35866 0.789598 -0.139956 -4.01851 -1.77426 0.072236 -2.10906 
0.0555172 0.355885 1.7005 -2.24723 0.792653 -0.772409 0.291772 -0.0242495 -4.4271 
0.307 0.200377 -3.36703 0.313923 0.0852429 2.94491 0.203248 -0.0232558 -0.00291855 
0.0641837 0.755066 -3.0193 -0.242962 -0.343759 -3.94152 -0.478474 -0.0864661 0.0179291 
2.8206 0.112035 -3.1113 0.454586 -0.345457 -1.70429 0.201213 -0.00849927 -3.90261 
-2.5424 -0.294918 2.08598 -0.61464 -0.246595 -3.71072 -0.963947 0.179419 2.78821 
1.67396 -0.68669 -3.72194 0.170349 -0.0607713 -3.45477 0.218366 -0.180511 -3.77553 
0.195854 -0.58175 -0.71909 1.85737 -1.24953 1.61359 0.383753 -0.0681699 -4.03278 
-0.320059 0.290887 -4.29634 -3.03604 -1.01347 0.231153 0.183178 0.128615 -0.065472 
-0.511676 -0.532313 0.714049 0.48001 0.0381606 -4.15719 0.014798 0.0374121 -3.05194 
0.586788 -0.708345 -3.75772 0.454036 -0.0452369 -3.14731 1.15124 -0.918876 -3.11311 
0.516979 0.0579169 -3.06528 0.470903 0.000378274 -3.97362 0.144812 0.145494 -2.42281 
0.0380782 -0.171138 0.0119116 0.450577 -0.191848 -4.2266 0.354376 0.0669789 -4.14029 
0.207836 0.0591565 -4.30755 0.289175 0.154834 -4.34388 0.612234 0.0479536 -4.27067 
0.267494 -0.0143162 -3.93394 -0.084694 -0.0180083 -3.70094 0.35627 0.219133 -3.6336 
0.337674 -0.128933 -3.43325 0.276271 0.0258928 -4.49138 0.346822 -0.0917385 -4.25372 
-0.119593 0.866482 -1.97939 0.694985 0.0549077 -2.46069 0.433038 -0.0635897 -4.1049 
0.714804 0.144247 -3.28986 0.488098 0.00721483 -4.27969 0.452928 0.140538 -4.02723 
0.708392 -0.0267968 -3.8854 0.0952093 0.0906207 -4.10423 0.178812 -0.0696372 -3.73735 
0.0630029 0.198002 -2.70263 0.242753 -0.0888934 -3.9948 0.402873 0.0159656 -3.74001 
0.187915 -0.0658437 -3.69199 0.31578 0.0615944 -3.36485 0.298202 0.0137151 -3.89668 
0.422161 0.0529961 -3.9032 0.0409486 -0.00546621 0.0429644 -0.0719119 -0.217117 -4.16099 
-0.0188235 -0.0473201 -3.3476 0.475504 -0.0218533 -3.84393 -0.646998 -1.31515 -2.81512 
0.390754 0.00235296 -3.86434 0.124821 0.196518 -3.84966 0.162414 -0.222999 -4.16847 
0.323658 -0.156566 -3.64608 0.205159 0.186769 -2.58074 0.196413 0.116101 -3.86855 
0.441155 0.0923086 -3.26791 0.44498 0.00687711 -3.87105 0.423731 -0.0021919 -3.50304 
0.0989703 -0.187145 -3.70737 0.011099 0.0875899 -3.68097 0.280996 0.0584577 -3.81788 
0.00534141 0.0785755 -3.81237 1.02061 -0.0592998 -1.89329 0.430853 -0.101015 -3.94703 
0.207038 -0.0442145 -3.82402 0.329141 -0.0662873 -3.69791 0.393649 -0.023606 -2.82957 
0.510667 1.0629 -3.42585 0.151361 -0.270889 -3.19481 0.313215 0.0700824 -4.07459 
0.283426 -0.0138178 -2.55107 0.403026 0.0141986 -3.40892 0.546153 0.219785 -3.77296 
0.117841 0.041935 -4.21732 0.108111 0.0285406 -3.43671 0.190974 -0.0183583 -3.92423 