# vtk DataFile Version 4.0
Generated by LIGGGHTS
ASCII
DATASET POLYDATA
POINTS 500 float
0.459466 -0.0370288 -1.17255 0.46615 -0.0152579 -1.05583 0.175639 -0.0175336 -1.17656 
0.132872 -0.0367517 -1.08768 0.129751 -0.0333781 -0.682635 0.245921 -0.0295347 -1.12492 
0.0992409 -0.0132701 -0.916564 0.119481 -0.0249385 -0.622228 0.226864 -0.0359574 -0.608825 
0.483141 -0.00554098 -1.14816 0.446468 -0.0140364 -0.656999 0.477283 -0.0120457 -1.18543 
0.14393 -0.0303543 -1.12874 0.39415 -0.020064 -1.16656 0.0731321 -0.0177267 -0.644745 
0.425467 -0.0150735 -0.996109 0.29487 -0.0292151 -1.16355 0.494857 -0.0450847 -1.1828 
0.221947 -0.0382333 -1.19476 0.486116 -0.0167732 -1.17695 0.128671 -0.017218 -1.15613 
0.481155 -0.00574576 -1.16366 0.495021 -0.0441161 -1.19496 0.146526 -0.0317076 -1.01393 
0.303578 -0.0162465 -0.362678 0.474894 -0.0439393 -1.12467 0.495041 -0.0266034 -1.18578 
0.471631 -0.0450011 -1.19504 0.4949 -0.00982447 -1.1479 0.381099 -0.0356553 -0.955341 
0.286743 -0.0182803 -1.19252 0.478415 -0.0446221 -1.17375 0.433648 -0.00529119 -0.92477 
0.494823 -0.0260153 -1.16581 0.252425 -0.0214993 -0.278812 0.341272 -0.0265411 -1.18959 
0.451261 -0.00506325 -1.19083 0.220005 -0.0310879 -1.18792 0.34237 -0.00472806 -1.18659 
0.495008 -0.00497996 -1.1866 0.213633 -0.0145464 -0.245001 0.260805 -0.0397467 -0.802019 
0.177155 -0.0187344 -0.774344 0.468561 -0.0113512 -1.16435 0.222465 -0.0104745 -0.69985 
0.485215 -0.0353838 -1.19495 0.187678 -0.0134856 -0.961653 0.0990255 -0.00638449 -1.18967 
0.485249 -0.0448112 -1.1857 0.466111 -0.0248461 -1.17733 0.448276 -0.00712876 -1.17975 
0.482296 -0.0449572 -1.19508 0.199798 -0.00905639 -1.18989 0.100956 -0.00805197 -1.17362 
0.0279756 -0.0439081 -1.15925 0.0818876 -0.0109306 -1.14849 0.324826 -0.0222963 -0.741907 
0.16263 -0.0378463 -0.656993 0.168293 -0.0299936 -0.902423 0.054573 -0.031003 -1.195 
0.182855 -0.0385743 -1.1862 0.463361 -0.0310236 -1.19315 0.119364 -0.0166317 -1.17237 
0.322455 -0.0414682 -1.19187 0.229923 -0.0437629 -0.817305 0.466397 -0.0111043 -1.18814 
0.490649 -0.00585454 -1.15578 0.494231 -0.043427 -1.16268 0.459901 -0.00778854 -1.19502 
0.103777 -0.0304521 -1.18914 0.495012 -0.0331359 -1.19504 0.494688 -0.0109823 -1.17849 
0.239532 -0.0373615 -1.15289 0.236095 -0.0194827 -1.19103 0.37218 -0.00619897 -1.19106 
0.40333 -0.00900356 -1.1442 0.317163 -0.0414543 -1.17381 0.494037 -0.00517231 -1.16934 
0.447005 -0.0165312 -1.19475 0.49208 -0.0450024 -1.17238 0.0978571 -0.0147585 -1.00625 
0.0882705 -0.0144149 -1.0185 0.465461 -0.0246591 -1.16628 0.043383 -0.0382116 -1.1878 
0.214872 -0.0359554 -0.24467 0.104276 -0.0054721 -1.11563 0.236158 -0.0221064 -1.14397 
0.471162 -0.0393184 -1.09147 0.479259 -0.0411855 -1.16422 0.157089 -0.0341014 -1.16347 
0.0269967 -0.035922 -1.07863 0.472032 -0.0449634 -1.14566 0.00958234 -0.0111994 -1.09329 
0.208122 -0.0126867 -1.17721 0.13242 -0.0415813 -1.1945 0.0113004 -0.0118726 -1.17859 
0.393846 -0.00735651 -1.18945 0.378431 -0.00507445 -1.16802 0.307708 -0.0103245 -0.372759 
0.365501 -0.0435155 -1.17081 0.326303 -0.0415693 -1.14105 0.205 -0.0443689 -0.245003 
0.232715 -0.0180378 -1.0943 0.481042 -0.018268 -1.16771 0.422969 -0.0261921 -1.19192 
0.190594 -0.034145 -0.976658 0.250989 -0.00931031 -1.19164 0.0565827 -0.0114061 -0.781819 
0.383172 -0.0419878 -1.1867 0.319096 -0.0117604 -1.19388 0.391606 -0.0371769 -1.16438 
0.373575 -0.0364342 -1.19368 0.489409 -0.00530359 -1.19488 0.439414 -0.0134123 -1.18009 
0.173959 -0.0222894 -0.811819 0.0503774 -0.0142436 -1.14361 0.225332 -0.0140863 -0.245002 
0.462317 -0.00759796 -1.17887 0.475229 -0.0448278 -1.18585 0.339512 -0.032025 -1.14792 
0.468846 -0.03191 -1.15175 0.493208 -0.0225045 -1.15505 0.469503 -0.00486259 -1.19509 
0.471471 -0.0050118 -1.1817 0.479406 -0.00548927 -1.19439 0.365453 -0.0217176 -1.18376 
0.205297 -0.0206771 -0.244951 0.486466 -0.0325452 -1.16185 0.494541 -0.0133671 -1.19201 
0.12371 -0.020167 -1.14802 0.360674 -0.0444052 -1.18963 0.494957 -0.0229237 -1.19499 
0.335117 -0.03017 -1.17057 0.172739 -0.0286375 -1.17182 0.359884 -0.00775423 -1.19423 
0.460313 -0.0187605 -1.18503 0.227497 -0.0176323 -1.0425 0.429288 -0.00673503 -1.19422 
0.477976 -0.00991862 -1.17348 0.435032 -0.0452245 -1.1621 0.470621 -0.0199959 -1.18662 
0.486942 -0.0294233 -1.18069 0.484912 -0.0142954 -1.19494 0.481967 -0.0278702 -1.17204 
0.485828 -0.0380547 -1.17584 0.435621 -0.0328512 -1.19468 0.221354 -0.0196339 -1.16735 
0.367751 -0.0347218 -1.18184 0.474444 -0.0144587 -1.19488 0.39891 -0.00496611 -1.17745 
0.374272 -0.0154274 -1.19392 0.461749 -0.0449793 -1.1938 0.237085 -0.0282485 -1.16548 
0.476169 -0.0191936 -1.1774 0.268034 -0.0251563 -0.305543 0.475269 -0.0247009 -1.19454 
0.270232 -0.0332069 -1.16923 0.485938 -0.00513353 -1.17712 0.272284 -0.0171577 -1.1941 
0.485169 -0.0253966 -1.19501 0.143433 -0.0359398 -1.13885 0.398124 -0.0256631 -1.17535 
0.305792 -0.0432298 -1.16448 0.301323 -0.0429154 -1.19222 0.332322 -0.00811568 -1.18163 
0.468479 -0.0147261 -1.17365 0.340479 -0.044252 -1.19538 0.444011 -0.0227443 -1.18181 
0.220558 -0.0354243 -1.08553 0.151982 -0.0124382 -1.11429 0.423912 -0.0114037 -1.18708 
0.209958 -0.0118766 -1.1923 0.468851 -0.0399887 -1.04241 0.49497 -0.0345258 -1.1713 
0.0556924 -0.0358671 -1.02055 0.246991 -0.0236447 -1.17812 0.376282 -0.0128221 -1.18493 
0.494603 -0.0248281 -1.17616 0.285689 -0.040904 -1.19065 0.341859 -0.010839 -1.19429 
0.397053 -0.0395013 -1.18296 0.491392 -0.0363805 -1.18635 0.487191 -0.0110193 -1.1852 
0.141036 -0.00483439 -1.19366 0.273007 -0.0144565 -1.09231 0.386199 -0.0319978 -1.19499 
0.145984 -0.00541046 -1.17787 0.399998 -0.0361836 -1.03036 0.494562 -0.0437798 -1.14317 
0.322938 -0.0293815 -1.06665 0.236622 -0.0447894 -1.19295 0.420672 -0.0192895 -1.1716 
0.462745 -0.00530741 -1.15947 0.159753 -0.0415473 -1.19498 0.374726 -0.0111752 -0.93582 
0.413148 -0.0296768 -1.19482 0.480082 -0.0395611 -1.15177 0.472952 -0.0348418 -1.19499 
0.205004 -0.0130239 -0.238503 0.481858 -0.0196451 -1.15677 0.390504 -0.0112039 -1.17308 
0.224744 -0.00629995 -1.15891 0.4605 -0.040465 -1.18497 0.470024 -0.0322065 -1.18448 
0.455972 -0.0454148 -1.17822 0.383833 -0.00539841 -1.18218 0.48646 -0.0209621 -1.18598 
0.481028 -0.0358359 -1.18557 0.297348 -0.0267806 -1.19123 0.358539 -0.015058 -1.10574 
0.417024 -0.00453113 -1.18038 0.400508 -0.0102743 -1.16483 0.308467 -0.0358153 -1.1859 
0.379887 -0.0250268 -1.19149 0.465244 -0.0196201 -1.19499 0.35622 -0.00948712 -0.644462 
0.451956 -0.0438493 -1.19525 0.441118 -0.00623283 -1.19485 0.315641 -0.0245312 -1.19226 
0.390783 -0.040763 -1.19339 0.458704 -0.0133335 -1.17105 0.210995 -0.0442198 -0.237002 
0.468187 -0.0448468 -1.17888 0.387663 -0.0165224 -1.195 0.377204 -0.0320511 -1.18482 
0.386379 -0.0187774 -1.18287 0.41361 -0.0145138 -0.985543 0.414241 -0.0058371 -1.19137 
0.432113 -0.041341 -1.19145 0.362401 -0.0102196 -1.18526 0.362594 -0.0295013 -1.19086 
0.287237 -0.0279744 -1.12499 0.278045 -0.0451101 -1.18338 0.311221 -0.0435171 -1.19209 
0.337158 -0.042229 -1.17861 0.492237 -0.0162132 -1.16886 0.472352 -0.0324304 -1.17393 
0.321813 -0.0257405 -1.18108 0.262353 -0.0105931 -1.17754 0.418099 -0.0446015 -1.19597 
0.350488 -0.017965 -1.19349 0.404123 -0.0214376 -1.18308 0.487577 -0.0316872 -1.15151 
0.35499 -0.00640669 -1.10116 0.47676 -0.0285992 -1.15778 0.377338 -0.0193705 -1.17391 
0.478136 -0.0262902 -1.18402 0.254156 -0.0443628 -1.19442 0.377453 -0.0389071 -1.16603 
0.451124 -0.0255485 -1.19334 0.217507 -0.00528348 -0.245007 0.370303 -0.0240905 -1.19409 
0.397587 -0.022865 -1.19086 0.449103 -0.015107 -1.18525 0.453934 -0.0237767 -1.17652 
0.44539 -0.0424677 -1.17373 0.411314 -0.0329548 -0.784972 0.399824 -0.034978 -1.19291 
0.433514 -0.0232533 -1.19509 0.215891 -0.0250918 -0.244994 0.386312 -0.0292402 -1.17359 
0.404895 -0.0449336 -1.18792 0.324058 -0.0414414 -1.16597 0.393696 -0.0127976 -1.13527 
0.289103 -0.0066181 -1.18978 0.443993 -0.0373746 -1.13196 0.229837 -0.0414312 -0.244757 
0.43217 -0.0193608 -1.18584 0.472086 -0.0202003 -1.16031 0.383499 -0.00974848 -0.867992 
0.461211 -0.00626082 -1.14465 0.366231 -0.0373701 -0.761675 0.382589 -0.00545983 -1.19217 
0.430674 -0.0215361 -1.1691 0.435972 -0.0435216 -1.18289 0.405988 -0.0420978 -1.15303 
0.40955 -0.0186933 -1.19471 0.306276 -0.040877 -1.14808 0.45133 -0.0292595 -1.15673 
0.415545 -0.0101133 -1.07485 0.420803 -0.0353042 -1.12637 0.492971 -0.0217292 -1.14332 
0.376196 -0.0111736 -0.997248 0.336597 -0.0100747 -1.07051 0.330837 -0.0404943 -0.569985 
0.407325 -0.0178184 -1.03795 0.411191 -0.0309856 -1.12857 0.449691 -0.021442 -1.1635 
0.357606 -0.0166916 -1.18055 0.44665 -0.0433754 -1.18692 0.345361 -0.0344496 -1.19389 
0.391833 -0.0381307 -1.17492 0.447656 -0.0321525 -1.18648 0.353253 -0.0268895 -1.18822 
0.423441 -0.041049 -1.18724 0.427534 -0.0418824 -1.17577 0.349894 -0.042034 -1.18938 
0.433984 -0.0049424 -1.17828 0.407302 -0.00693375 -1.17235 0.26657 -0.0222668 -1.1483 
0.372611 -0.0358524 -1.05045 0.375814 -0.0316774 -1.15731 0.404956 -0.0182166 -0.889983 
0.449963 -0.0149601 -1.09942 0.391802 -0.0442737 -1.15855 0.407094 -0.0255097 -1.14204 
0.386485 -0.034732 -1.03599 0.421672 -0.0258724 -1.10842 0.427846 -0.0227351 -1.1178 
0.435492 -0.0235342 -1.03758 0.46811 -0.0171116 -1.10735 0.231698 -0.0224657 -0.245282 
0.372968 -0.0112462 -0.675181 0.475228 -0.0352693 -1.13391 0.373786 -0.00711545 -1.17513 
0.380298 -0.0157903 -1.05218 0.364872 -0.00833985 -1.10088 0.417781 -0.0147677 -1.13654 
0.43852 -0.0301264 -1.18358 0.375602 -0.0207518 -1.00983 0.454094 -0.00942422 -1.05388 
0.340518 -0.0333061 -0.984544 0.367337 -0.0252475 -1.17215 0.350927 -0.0243337 -1.02461 
0.426122 -0.012364 -0.966651 0.381937 -0.0192838 -0.720252 0.29474 -0.0095989 -0.331312 
0.374111 -0.0229496 -1.02103 0.43314 -0.0356086 -1.1246 0.386263 -0.0441291 -0.989803 
0.348505 -0.0290612 -0.458988 0.397596 -0.0252793 -1.01088 0.438777 -0.0144197 -1.16676 
0.354514 -0.0350008 -1.05466 0.380869 -0.0115959 -0.977372 0.340638 -0.0420029 -0.722263 
0.452437 -0.0261195 -1.01307 0.405941 -0.0375985 -1.06702 0.401759 -0.0413784 -1.05718 
0.375032 -0.0314746 -0.97283 0.366177 -0.0392889 -1.07951 0.349438 -0.0263992 -0.993813 
0.418668 -0.024944 -0.981781 0.410056 -0.0353321 -0.971464 0.362131 -0.0170045 -1.13015 
0.206909 -0.00566667 -0.244941 0.344268 -0.04479 -0.859703 0.355387 -0.0272434 -0.495466 
0.429311 -0.0283446 -1.00524 0.348821 -0.0127224 -0.692005 0.386212 -0.0390168 -0.964338 
0.367081 -0.0448924 -0.902379 0.340702 -0.0275781 -0.934932 0.412739 -0.00724822 -1.06398 
0.38891 -0.013313 -0.96794 0.380183 -0.0100563 -0.960654 0.219782 -0.0449865 -0.244637 
0.424648 -0.00920651 -0.953366 0.360378 -0.03958 -0.920368 0.410312 -0.0366511 -1.04113 
0.36494 -0.0308095 -0.983997 0.380566 -0.0335926 -0.867225 0.421558 -0.0253948 -0.88112 
0.391142 -0.0266011 -0.731872 0.351979 -0.035546 -0.987196 0.391601 -0.0172073 -0.838401 
0.400326 -0.0402364 -0.983905 0.361296 -0.0425943 -0.704055 0.38603 -0.0239408 -0.97548 
0.408024 -0.0168616 -0.962938 0.361383 -0.0392963 -0.631986 0.372642 -0.0357686 -0.844058 
0.374789 -0.0403987 -0.825248 0.372949 -0.0118465 -0.903585 0.406597 -0.031022 -0.931935 
0.339456 -0.0132971 -0.891867 0.416102 -0.0139743 -0.92455 0.386792 -0.0448893 -0.878454 
0.398481 -0.0387946 -0.927465 0.374733 -0.00551157 -0.985134 0.36328 -0.0142234 -0.765039 
0.361515 -0.0135318 -0.722614 0.378587 -0.00856222 -0.818673 0.39112 -0.0330484 -0.828468 
0.360526 -0.0304898 -0.944375 0.339861 -0.0170407 -0.590052 0.41921 -0.0445998 -0.961756 
0.38127 -0.0296589 -0.850811 0.224123 -0.00720241 -0.237694 0.398732 -0.0324638 -0.856185 
0.388255 -0.0115344 -0.822464 0.4006 -0.0446102 -0.951608 0.383979 -0.0417454 -0.81481 
0.308894 -0.03066 -0.728122 0.405441 -0.0180598 -0.87449 0.385244 -0.00503546 -0.766223 
0.377671 -0.0271558 -0.890115 0.45759 -0.00898851 -0.931355 0.359065 -0.0227696 -0.770897 
0.20502 -0.0323078 -0.244204 0.412745 -0.00861817 -0.778397 0.380392 -0.0409842 -0.682024 
0.421439 -0.0178384 -0.904575 0.386068 -0.0169269 -0.675301 0.351099 -0.0293637 -0.860454 
0.40363 -0.0174337 -0.833329 0.327695 -0.0427857 -0.760515 0.350742 -0.0252021 -0.81135 
0.305809 -0.0422982 -0.365948 0.325904 -0.0364856 -0.717612 0.334402 -0.00891358 -0.372092 
0.364784 -0.0191918 -0.671256 0.378685 -0.0210509 -0.7743 0.376343 -0.0448658 -0.757709 
0.399304 -0.0311035 -0.80763 0.415814 -0.0213006 -0.708816 0.362354 -0.0360097 -0.78647 
0.40846 -0.00654556 -0.867292 0.241325 -0.0432575 -0.254906 0.349432 -0.0388409 -0.492303 
0.293676 -0.0416536 -0.679864 0.360993 -0.0349528 -0.593231 0.424329 -0.0330592 -0.742302 
0.365849 -0.0176818 -0.808797 0.374706 -0.0352572 -0.6143 0.413405 -0.0289979 -0.746495 
0.333891 -0.0384798 -0.711769 0.368274 -0.042971 -0.664717 0.271354 -0.019628 -0.289709 
0.353363 -0.0337364 -0.691241 0.359501 -0.0439721 -0.566893 0.381214 -0.0362982 -0.714778 
0.368613 -0.0182698 -0.614763 0.381373 -0.0105577 -0.605246 0.365089 -0.0422192 -0.64216 
0.341517 -0.0260746 -0.660597 0.226343 -0.0316306 -0.241891 0.219138 -0.0158716 -0.236731 
0.338706 -0.0201273 -0.928531 0.332164 -0.0106996 -0.479694 0.352648 -0.00886725 -0.58879 
0.373681 -0.0407813 -0.59915 0.374796 -0.0432719 -0.655878 0.379051 -0.00592129 -0.698079 
0.369385 -0.00541931 -0.75204 0.234224 -0.00560333 -0.247065 0.3516 -0.036688 -0.674543 
0.355148 -0.0112393 -0.62624 0.347034 -0.0449635 -0.617455 0.345494 -0.00616496 -0.602109 
0.395714 -0.0343828 -0.737448 0.37617 -0.0267175 -0.670781 0.33374 -0.0306053 -0.371986 
0.348278 -0.0405269 -0.647056 0.33182 -0.0114545 -0.353721 0.397637 -0.0193946 -0.763848 
0.352121 -0.022917 -0.689813 0.342085 -0.0237085 -0.46884 0.354432 -0.0444172 -0.553223 
0.3092 -0.0383053 -0.333919 0.373358 -0.0310782 -0.634312 0.364252 -0.0447974 -0.611111 
0.313295 -0.0134448 -0.573535 0.335956 -0.0155382 -0.52656 0.207453 -0.0241536 -0.235289 
0.285361 -0.0149073 -0.334058 0.315671 -0.00644883 -0.366207 0.352966 -0.0367512 -0.519711 
0.294159 -0.0208888 -0.54895 0.360291 -0.0438691 -0.538863 0.210439 -0.00525509 -0.234813 
0.345551 -0.0117842 -0.516794 0.252225 -0.0154753 -0.270717 0.360171 -0.0426618 -0.601498 
0.358967 -0.0436099 -0.584037 0.37953 -0.00888509 -0.665633 0.346103 -0.0384845 -0.609072 
0.361758 -0.0352865 -0.5499 0.214873 -0.0319024 -0.234095 0.333808 -0.0337817 -0.354411 
0.26595 -0.0365086 -0.301053 0.315304 -0.0385799 -0.521874 0.326432 -0.0273449 -0.345709 
0.289138 -0.04042 -0.33592 0.353047 -0.0367447 -0.53532 0.321986 -0.0402313 -0.439321 
0.334261 -0.0233876 -0.63486 0.321288 -0.00525778 -0.428993 0.281335 -0.0134108 -0.319852 
0.358561 -0.0431781 -0.491753 0.244415 -0.0206389 -0.250268 0.327195 -0.010817 -0.516068 
0.26026 -0.0111724 -0.283856 0.317844 -0.0232287 -0.431993 0.230307 -0.0421492 -0.234461 
0.323561 -0.00833784 -0.590644 0.348802 -0.0345578 -0.475402 0.360107 -0.0211104 -0.587855 
0.351541 -0.030017 -0.565849 0.363971 -0.0342792 -0.569966 
VERTICES 500 1000
1 0 
1 1 
1 2 
1 3 
1 4 
1 5 
1 6 
1 7 
1 8 
1 9 
1 10 
1 11 
1 12 
1 13 
1 14 
1 15 
1 16 
1 17 
1 18 
1 19 
1 20 
1 21 
1 22 
1 23 
1 24 
1 25 
1 26 
1 27 
1 28 
1 29 
1 30 
1 31 
1 32 
1 33 
1 34 
1 35 
1 36 
1 37 
1 38 
1 39 
1 40 
1 41 
1 42 
1 43 
1 44 
1 45 
1 46 
1 47 
1 48 
1 49 
1 50 
1 51 
1 52 
1 53 
1 54 
1 55 
1 56 
1 57 
1 58 
1 59 
1 60 
1 61 
1 62 
1 63 
1 64 
1 65 
1 66 
1 67 
1 68 
1 69 
1 70 
1 71 
1 72 
1 73 
1 74 
1 75 
1 76 
1 77 
1 78 
1 79 
1 80 
1 81 
1 82 
1 83 
1 84 
1 85 
1 86 
1 87 
1 88 
1 89 
1 90 
1 91 
1 92 
1 93 
1 94 
1 95 
1 96 
1 97 
1 98 
1 99 
1 100 
1 101 
1 102 
1 103 
1 104 
1 105 
1 106 
1 107 
1 108 
1 109 
1 110 
1 111 
1 112 
1 113 
1 114 
1 115 
1 116 
1 117 
1 118 
1 119 
1 120 
1 121 
1 122 
1 123 
1 124 
1 125 
1 126 
1 127 
1 128 
1 129 
1 130 
1 131 
1 132 
1 133 
1 134 
1 135 
1 136 
1 137 
1 138 
1 139 
1 140 
1 141 
1 142 
1 143 
1 144 
1 145 
1 146 
1 147 
1 148 
1 149 
1 150 
1 151 
1 152 
1 153 
1 154 
1 155 
1 156 
1 157 
1 158 
1 159 
1 160 
1 161 
1 162 
1 163 
1 164 
1 165 
1 166 
1 167 
1 168 
1 169 
1 170 
1 171 
1 172 
1 173 
1 174 
1 175 
1 176 
1 177 
1 178 
1 179 
1 180 
1 181 
1 182 
1 183 
1 184 
1 185 
1 186 
1 187 
1 188 
1 189 
1 190 
1 191 
1 192 
1 193 
1 194 
1 195 
1 196 
1 197 
1 198 
1 199 
1 200 
1 201 
1 202 
1 203 
1 204 
1 205 
1 206 
1 207 
1 208 
1 209 
1 210 
1 211 
1 212 
1 213 
1 214 
1 215 
1 216 
1 217 
1 218 
1 219 
1 220 
1 221 
1 222 
1 223 
1 224 
1 225 
1 226 
1 227 
1 228 
1 229 
1 230 
1 231 
1 232 
1 233 
1 234 
1 235 
1 236 
1 237 
1 238 
1 239 
1 240 
1 241 
1 242 
1 243 
1 244 
1 245 
1 246 
1 247 
1 248 
1 249 
1 250 
1 251 
1 252 
1 253 
1 254 
1 255 
1 256 
1 257 
1 258 
1 259 
1 260 
1 261 
1 262 
1 263 
1 264 
1 265 
1 266 
1 267 
1 268 
1 269 
1 270 
1 271 
1 272 
1 273 
1 274 
1 275 
1 276 
1 277 
1 278 
1 279 
1 280 
1 281 
1 282 
1 283 
1 284 
1 285 
1 286 
1 287 
1 288 
1 289 
1 290 
1 291 
1 292 
1 293 
1 294 
1 295 
1 296 
1 297 
1 298 
1 299 
1 300 
1 301 
1 302 
1 303 
1 304 
1 305 
1 306 
1 307 
1 308 
1 309 
1 310 
1 311 
1 312 
1 313 
1 314 
1 315 
1 316 
1 317 
1 318 
1 319 
1 320 
1 321 
1 322 
1 323 
1 324 
1 325 
1 326 
1 327 
1 328 
1 329 
1 330 
1 331 
1 332 
1 333 
1 334 
1 335 
1 336 
1 337 
1 338 
1 339 
1 340 
1 341 
1 342 
1 343 
1 344 
1 345 
1 346 
1 347 
1 348 
1 349 
1 350 
1 351 
1 352 
1 353 
1 354 
1 355 
1 356 
1 357 
1 358 
1 359 
1 360 
1 361 
1 362 
1 363 
1 364 
1 365 
1 366 
1 367 
1 368 
1 369 
1 370 
1 371 
1 372 
1 373 
1 374 
1 375 
1 376 
1 377 
1 378 
1 379 
1 380 
1 381 
1 382 
1 383 
1 384 
1 385 
1 386 
1 387 
1 388 
1 389 
1 390 
1 391 
1 392 
1 393 
1 394 
1 395 
1 396 
1 397 
1 398 
1 399 
1 400 
1 401 
1 402 
1 403 
1 404 
1 405 
1 406 
1 407 
1 408 
1 409 
1 410 
1 411 
1 412 
1 413 
1 414 
1 415 
1 416 
1 417 
1 418 
1 419 
1 420 
1 421 
1 422 
1 423 
1 424 
1 425 
1 426 
1 427 
1 428 
1 429 
1 430 
1 431 
1 432 
1 433 
1 434 
1 435 
1 436 
1 437 
1 438 
1 439 
1 440 
1 441 
1 442 
1 443 
1 444 
1 445 
1 446 
1 447 
1 448 
1 449 
1 450 
1 451 
1 452 
1 453 
1 454 
1 455 
1 456 
1 457 
1 458 
1 459 
1 460 
1 461 
1 462 
1 463 
1 464 
1 465 
1 466 
1 467 
1 468 
1 469 
1 470 
1 471 
1 472 
1 473 
1 474 
1 475 
1 476 
1 477 
1 478 
1 479 
1 480 
1 481 
1 482 
1 483 
1 484 
1 485 
1 486 
1 487 
1 488 
1 489 
1 490 
1 491 
1 492 
1 493 
1 494 
1 495 
1 496 
1 497 
1 498 
1 499 

POINT_DATA 500
FIELD FieldData 7
id 1 500 int
1 2 3 4 5 6 7 8 9 
10 11 12 13 14 15 16 17 18 
19 20 21 22 23 24 25 26 27 
28 29 30 31 32 33 34 35 36 
37 38 39 40 41 42 43 44 45 
46 47 48 49 50 51 52 53 54 
55 56 57 58 59 60 61 62 63 
64 65 66 67 68 69 70 71 72 
73 74 75 76 77 78 79 80 81 
82 83 84 85 86 87 88 89 90 
91 92 93 94 95 96 97 98 99 
100 101 102 103 104 105 106 107 108 
109 110 111 112 113 114 115 116 117 
118 119 120 121 122 123 124 125 126 
127 128 129 130 131 132 133 134 135 
136 137 138 139 140 141 142 143 144 
145 146 147 148 149 150 151 152 153 
154 155 156 157 158 159 160 161 162 
163 164 165 166 167 168 169 170 171 
172 173 174 175 176 177 178 179 180 
181 182 183 184 185 186 187 188 189 
190 191 192 193 194 195 196 197 198 
199 200 201 202 203 204 205 206 207 
208 209 210 211 212 213 214 215 216 
217 218 219 220 221 222 223 224 225 
226 227 228 229 230 231 232 233 234 
235 236 237 238 239 240 241 242 243 
244 245 246 247 248 249 250 251 252 
253 254 255 256 257 258 259 260 261 
262 263 264 265 266 267 268 269 270 
271 272 273 274 275 276 277 278 279 
280 281 282 283 284 285 286 287 288 
289 290 291 292 293 294 295 296 297 
298 299 300 301 302 303 304 305 306 
307 308 309 310 311 312 313 314 315 
316 317 318 319 320 321 322 323 324 
325 326 327 328 329 330 331 332 333 
334 335 336 337 338 339 340 341 342 
343 344 345 346 347 348 349 350 351 
352 353 354 355 356 357 358 359 360 
361 362 363 364 365 366 367 368 369 
370 371 372 373 374 375 376 377 378 
379 380 381 382 383 384 385 386 387 
388 389 390 391 392 393 394 395 396 
397 398 399 400 401 402 403 404 405 
406 407 408 409 410 411 412 413 414 
415 416 417 418 419 420 421 422 423 
424 425 426 427 428 429 430 431 432 
433 434 435 436 437 438 439 440 441 
442 443 444 445 446 447 448 449 450 
451 452 453 454 455 456 457 458 459 
460 461 462 463 464 465 466 467 468 
469 470 471 472 473 474 475 476 477 
478 479 480 481 482 483 484 485 486 
487 488 489 490 491 492 493 494 495 
496 497 498 499 500 
type 1 500 int
1 1 1 1 1 1 1 1 1 
1 1 1 1 1 1 1 1 1 
1 1 1 1 1 1 1 1 1 
1 1 1 1 1 1 1 1 1 
1 1 1 1 1 1 1 1 1 
1 1 1 1 1 1 1 1 1 
1 1 1 1 1 1 1 1 1 
1 1 1 1 1 1 1 1 1 
1 1 1 1 1 1 1 1 1 
1 1 1 1 1 1 1 1 1 
1 1 1 1 1 1 1 1 1 
1 1 1 1 1 1 1 1 1 
1 1 1 1 1 1 1 1 1 
1 1 1 1 1 1 1 1 1 
1 1 1 1 1 1 1 1 1 
1 1 1 1 1 1 1 1 1 
1 1 1 1 1 1 1 1 1 
1 1 1 1 1 1 1 1 1 
1 1 1 1 1 1 1 1 1 
1 1 1 1 1 1 1 1 1 
1 1 1 1 1 1 1 1 1 
1 1 1 1 1 1 1 1 1 
1 1 1 1 1 1 1 1 1 
1 1 1 1 1 1 1 1 1 
1 1 1 1 1 1 1 1 1 
1 1 1 1 1 1 1 1 1 
1 1 1 1 1 1 1 1 1 
1 1 1 1 1 1 1 1 1 
1 1 1 1 1 1 1 1 1 
1 1 1 1 1 1 1 1 1 
1 1 1 1 1 1 1 1 1 
1 1 1 1 1 1 1 1 1 
1 1 1 1 1 1 1 1 1 
1 1 1 1 1 1 1 1 1 
1 1 1 1 1 1 1 1 1 
1 1 1 1 1 1 1 1 1 
1 1 1 1 1 1 1 1 1 
1 1 1 1 1 1 1 1 1 
1 1 1 1 1 1 1 1 1 
1 1 1 1 1 1 1 1 1 
1 1 1 1 1 1 1 1 1 
1 1 1 1 1 1 1 1 1 
1 1 1 1 1 1 1 1 1 
1 1 1 1 1 1 1 1 1 
1 1 1 1 1 1 1 1 1 
1 1 1 1 1 1 1 1 1 
1 1 1 1 1 1 1 1 1 
1 1 1 1 1 1 1 1 1 
1 1 1 1 1 1 1 1 1 
1 1 1 1 1 1 1 1 1 
1 1 1 1 1 1 1 1 1 
1 1 1 1 1 1 1 1 1 
1 1 1 1 1 1 1 1 1 
1 1 1 1 1 1 1 1 1 
1 1 1 1 1 1 1 1 1 
1 1 1 1 1 
i 3 500 int
0 0 0 0 0 0 0 0 0 
0 0 0 0 0 0 0 0 0 
0 0 0 0 0 0 0 0 0 
0 0 0 0 0 0 0 0 0 
0 0 0 0 0 0 0 0 0 
0 0 0 0 0 0 0 0 0 
0 0 0 0 0 0 0 0 0 
0 0 0 0 0 0 0 0 0 
0 0 0 0 0 0 0 0 0 
0 0 0 0 0 0 0 0 0 
0 0 0 0 0 0 0 0 0 
0 0 0 0 0 0 0 0 0 
0 0 0 0 0 0 0 0 0 
0 0 0 0 0 0 0 0 0 
0 0 0 0 0 0 0 0 0 
0 0 0 0 0 0 0 0 0 
0 0 0 0 0 0 0 0 0 
0 0 0 0 0 0 0 0 0 
0 0 0 0 0 0 0 0 0 
0 0 0 0 0 0 0 0 0 
0 0 0 0 0 0 0 0 0 
0 0 0 0 0 0 0 0 0 
0 0 0 0 0 0 0 0 0 
0 0 0 0 0 0 0 0 0 
0 0 0 0 0 0 0 0 0 
0 0 0 0 0 0 0 0 0 
0 0 0 0 0 0 0 0 0 
0 0 0 0 0 0 0 0 0 
0 0 0 0 0 0 0 0 0 
0 0 0 0 0 0 0 0 0 
0 0 0 0 0 0 0 0 0 
0 0 0 0 0 0 0 0 0 
0 0 0 0 0 0 0 0 0 
0 0 0 0 0 0 0 0 0 
0 0 0 0 0 0 0 0 0 
0 0 0 0 0 0 0 0 0 
0 0 0 0 0 0 0 0 0 
0 0 0 0 0 0 0 0 0 
0 0 0 0 0 0 0 0 0 
0 0 0 0 0 0 0 0 0 
0 0 0 0 0 0 0 0 0 
0 0 0 0 0 0 0 0 0 
0 0 0 0 0 0 0 0 0 
0 0 0 0 0 0 0 0 0 
0 0 0 0 0 0 0 0 0 
0 0 0 0 0 0 0 0 0 
0 0 0 0 0 0 0 0 0 
0 0 0 0 0 0 0 0 0 
0 0 0 0 0 0 0 0 0 
0 0 0 0 0 0 0 0 0 
0 0 0 0 0 0 0 0 0 
0 0 0 0 0 0 0 0 0 
0 0 0 0 0 0 0 0 0 
0 0 0 0 0 0 0 0 0 
0 0 0 0 0 0 0 0 0 
0 0 0 0 0 0 0 0 0 
0 0 0 0 0 0 0 0 0 
0 0 0 0 0 0 0 0 0 
0 0 0 0 0 0 0 0 0 
0 0 0 0 0 0 0 0 0 
0 0 0 0 0 0 0 0 0 
0 0 0 0 0 0 0 0 0 
0 0 0 0 0 0 0 0 0 
0 0 0 0 0 0 0 0 0 
0 0 0 0 0 0 0 0 0 
0 0 0 0 0 0 0 0 0 
0 0 0 0 0 0 0 0 0 
0 0 0 0 0 0 0 0 0 
0 0 0 0 0 0 0 0 0 
0 0 0 0 0 0 0 0 0 
0 0 0 0 0 0 0 0 0 
0 0 0 0 0 0 0 0 0 
0 0 0 0 0 0 0 0 0 
0 0 0 0 0 0 0 0 0 
0 0 0 0 0 0 0 0 0 
0 0 0 0 0 0 0 0 0 
0 0 0 0 0 0 0 0 0 
0 0 0 0 0 0 0 0 0 
0 0 0 0 0 0 0 0 0 
0 0 0 0 0 0 0 0 0 
0 0 0 0 0 0 0 0 0 
0 0 0 0 0 0 0 0 0 
0 0 0 0 0 0 0 0 0 
0 0 0 0 0 0 0 0 0 
0 0 0 0 0 0 0 0 0 
0 0 0 0 0 0 0 0 0 
0 0 0 0 0 0 0 0 0 
0 0 0 0 0 0 0 0 0 
0 0 0 0 0 0 0 0 0 
0 0 0 0 0 0 0 0 0 
0 0 0 0 0 0 0 0 0 
0 0 0 0 0 0 0 0 0 
0 0 0 0 0 0 0 0 0 
0 0 0 0 0 0 0 0 0 
0 0 0 0 0 0 0 0 0 
0 0 0 0 0 0 0 0 0 
0 0 0 0 0 0 0 0 0 
0 0 0 0 0 0 0 0 0 
0 0 0 0 0 0 0 0 0 
0 0 0 0 0 0 0 0 0 
0 0 0 0 0 0 0 0 0 
0 0 0 0 0 0 0 0 0 
0 0 0 0 0 0 0 0 0 
0 0 0 0 0 0 0 0 0 
0 0 0 0 0 0 0 0 0 
0 0 0 0 0 0 0 0 0 
0 0 0 0 0 0 0 0 0 
0 0 0 0 0 0 0 0 0 
0 0 0 0 0 0 0 0 0 
0 0 0 0 0 0 0 0 0 
0 0 0 0 0 0 0 0 0 
0 0 0 0 0 0 0 0 0 
0 0 0 0 0 0 0 0 0 
0 0 0 0 0 0 0 0 0 
0 0 0 0 0 0 0 0 0 
0 0 0 0 0 0 0 0 0 
0 0 0 0 0 0 0 0 0 
0 0 0 0 0 0 0 0 0 
0 0 0 0 0 0 0 0 0 
0 0 0 0 0 0 0 0 0 
0 0 0 0 0 0 0 0 0 
0 0 0 0 0 0 0 0 0 
0 0 0 0 0 0 0 0 0 
0 0 0 0 0 0 0 0 0 
0 0 0 0 0 0 0 0 0 
0 0 0 0 0 0 0 0 0 
0 0 0 0 0 0 0 0 0 
0 0 0 0 0 0 0 0 0 
0 0 0 0 0 0 0 0 0 
0 0 0 0 0 0 0 0 0 
0 0 0 0 0 0 0 0 0 
0 0 0 0 0 0 0 0 0 
0 0 0 0 0 0 0 0 0 
0 0 0 0 0 0 0 0 0 
0 0 0 0 0 0 0 0 0 
0 0 0 0 0 0 0 0 0 
0 0 0 0 0 0 0 0 0 
0 0 0 0 0 0 0 0 0 
0 0 0 0 0 0 0 0 0 
0 0 0 0 0 0 0 0 0 
0 0 0 0 0 0 0 0 0 
0 0 0 0 0 0 0 0 0 
0 0 0 0 0 0 0 0 0 
0 0 0 0 0 0 0 0 0 
0 0 0 0 0 0 0 0 0 
0 0 0 0 0 0 0 0 0 
0 0 0 0 0 0 0 0 0 
0 0 0 0 0 0 0 0 0 
0 0 0 0 0 0 0 0 0 
0 0 0 0 0 0 0 0 0 
0 0 0 0 0 0 0 0 0 
0 0 0 0 0 0 0 0 0 
0 0 0 0 0 0 0 0 0 
0 0 0 0 0 0 0 0 0 
0 0 0 0 0 0 0 0 0 
0 0 0 0 0 0 0 0 0 
0 0 0 0 0 0 0 0 0 
0 0 0 0 0 0 0 0 0 
0 0 0 0 0 0 0 0 0 
0 0 0 0 0 0 0 0 0 
0 0 0 0 0 0 0 0 0 
0 0 0 0 0 0 0 0 0 
0 0 0 0 0 0 0 0 0 
0 0 0 0 0 0 0 0 0 
0 0 0 0 0 0 0 0 0 
0 0 0 0 0 0 0 0 0 
0 0 0 0 0 0 
v 3 500 double
0.93807 -0.828446 -0.863342 0.882828 -0.28532 -2.64647 -0.44702 0.00946351 -0.0560429 
1.44228 -0.00166702 -1.07531 -0.258342 -0.0600496 0.102999 -0.662674 0.200666 -0.593541 
-0.976314 -0.29078 -0.10082 -0.355462 0.031393 -0.0837389 -0.187731 0.0172905 -0.234846 
0.415247 0.313377 -0.899727 -0.203239 0.0811737 -0.161436 0.147292 -0.195384 0.0597327 
-0.806971 0.847593 0.402915 0.277155 -0.925525 -0.92505 -0.341783 0.060187 -0.141376 
0.451909 -0.0643114 -3.84883 -0.684663 -0.0815031 0.00575764 -0.342021 -0.0183711 0.223166 
-1.3713 -0.43322 -0.61457 0.142731 0.102226 -0.0403573 -1.73418 0.592853 0.256515 
-0.244416 0.216106 0.0916284 0.106987 0.0764747 0.00170592 -0.785803 0.273385 -0.373667 
0.719355 0.00885414 -1.37412 -0.555197 0.222938 0.0189907 0.0634684 -0.261926 -0.321151 
-0.0650063 -0.00822515 -0.0725791 -0.291016 0.121579 -0.515034 0.233905 0.11095 -3.99974 
-2.69072 0.476255 0.0316417 0.129195 0.0889725 0.0588056 0.551919 0.014396 -3.83299 
0.0300178 -0.0541109 -0.0163033 0.394943 0.00635308 -0.717732 -1.87418 -0.160495 -0.193384 
0.169407 0.0624051 -0.0943356 -1.0861 0.373122 -0.272337 -1.42968 -1.68842 -0.768518 
-0.0124291 -0.03873 0.169306 0.0465723 0.00965547 -6.45712e-05 1.6826 0.317832 0.463987 
-0.482997 -0.16549 0.602907 0.0518916 0.0914837 -0.293057 -0.211853 -0.0811797 0.353658 
-0.0427777 0.0115264 0.0246096 -0.858797 0.23964 0.0140373 -1.5293 -0.104015 -0.854238 
-0.35696 -0.0235212 -0.0704122 0.0258484 0.144698 -0.0330751 -0.384857 1.61775 -0.743859 
0.0791544 0.0454376 -0.322279 -1.04399 0.358569 -0.76537 -1.42343 0.0787174 -0.344992 
1.23518 0.203478 -0.152189 1.16617 -0.114048 -0.628404 -0.0283925 -0.170824 -3.41569 
-0.296479 0.0707144 0.271363 -0.678784 0.0994551 -0.152239 -1.85999 -0.387921 0.000370056 
-0.407107 -0.313964 -0.154651 -0.243331 -0.0554754 -0.0262102 -1.0777 0.551049 0.230139 
-2.4069 -0.287148 0.835394 -0.442233 -0.349146 1.1338 0.272749 -0.150111 0.108811 
0.0821608 0.264342 -0.0929977 -0.000596122 -0.0923165 -0.0337155 0.159279 -0.0772997 -0.0287506 
-1.21182 0.293757 -0.499953 -0.0113294 0.0707683 -0.0346506 0.0896393 -0.0662434 0.0233624 
0.346909 0.317235 -0.10442 -1.42095 -0.289683 -0.139195 -0.689383 0.175939 0.232526 
-1.51613 0.511612 -1.97358 -1.01552 0.474246 0.947434 -0.143201 -0.0268309 0.07761 
-0.563019 -0.743611 0.565853 -0.033011 0.0612369 0.0104145 -1.23225 -0.358384 -0.480668 
0.955894 -0.134058 0.134843 0.262177 -0.237203 -0.201316 0.185826 0.588782 0.120776 
0.0661506 0.0135789 -0.058155 -1.95805 0.657256 0.553938 -0.704552 0.510637 -0.443599 
-0.824125 0.137728 -2.6879 0.0426578 -0.0981282 0.0343845 -0.988662 -0.452957 -0.497718 
1.14491 0.27161 -0.0832633 0.156151 0.621132 0.241811 1.11048 -0.102562 -0.390539 
-1.10578 -0.460273 -1.07376 -0.857603 -0.339339 -0.902038 1.4309 0.410072 -0.436488 
0.458247 0.968234 -0.312431 -0.566957 -0.724246 -1.1785 0.927491 -0.132715 -1.35215 
-1.0526 0.0746354 -0.273571 -0.563643 0.305758 0.311627 2.57193e-05 0.00690417 7.47755e-05 
-0.399914 -0.229566 0.0259808 0.142722 0.0323953 -0.00302903 0.184641 0.625266 -0.686753 
1.76973 0.0993917 -0.0298591 -2.42584 -0.361796 0.871237 -0.954015 -0.125965 0.716243 
-0.813901 -0.15239 -0.161812 -0.880699 -0.80207 0.0414027 0.239969 1.67807 -1.59682 
0.0350113 -0.255135 0.297092 0.268236 -0.0661096 0.0304494 0.555905 -0.207636 -1.17712 
-0.409788 0.215188 0.439047 1.21424 -0.261916 0.559376 0.104977 -0.00997164 -0.0179702 
-0.0867282 0.772317 -0.130214 -0.685093 -0.0339008 0.213001 0.92559 -0.0167282 0.763366 
0.174608 -0.670206 -0.314096 -1.178 0.905946 -0.279546 0.229674 0.0211231 -0.125806 
0.468922 -0.0909751 0.434679 0.205367 -0.0600986 0.0621217 0.0402077 -0.524986 -2.7906 
-0.0155645 0.0390458 -0.00675882 0.389734 0.0102038 -0.935967 0.175863 -0.00233236 -0.0011805 
-1.65424 0.669639 0.257801 0.525953 -0.224402 0.240536 -0.0853339 -0.0645209 -0.0577368 
0.085046 0.11877 -0.736534 -0.931899 -0.219063 1.19542 -0.823035 -0.0296126 -1.55443 
0.306455 -0.25067 -0.533806 -1.32703 -0.0351903 0.53707 0.522295 0.608689 0.969453 
-0.131453 0.00232534 -0.00520879 -2.03078 0.269882 -0.124612 -0.229246 -0.0797524 0.0321779 
-0.06073 0.0670989 -0.145284 0.196168 -0.0283187 0.0469591 -0.0555985 0.122557 -0.00550783 
0.0979467 -0.278053 -0.10215 0.317289 -0.182201 -0.647697 -1.33795 -0.383947 -0.198084 
-0.509915 0.670569 0.583816 0.0777369 0.00901418 0.0634331 -0.354361 -0.414629 -0.184323 
0.315563 1.01798 -0.271832 0.0649456 0.0141654 -0.28404 -1.78005 -0.264785 0.331535 
0.636507 -0.240933 -0.495901 0.517265 0.1393 -0.968951 -0.10778 0.0571924 0.0143919 
-1.78201 0.449439 0.461649 0.0417497 0.0601654 -0.161824 -0.530734 0.217872 -0.0203293 
-0.0161446 0.0378056 -0.00364444 -1.34983 -0.112087 -0.527912 0.752962 0.36338 0.176549 
-1.15053 0.0990385 0.659013 -0.74043 0.763372 0.0411335 -1.00575 -0.280646 -0.0475763 
-0.497894 -0.445979 -1.64476 -0.182141 0.0317105 0.748242 -0.611782 -0.573321 -0.199048 
-0.962999 0.369453 0.255137 -1.93342 -0.485592 0.336475 -0.0566796 -0.307227 0.220437 
-1.09647 0.0570825 -0.0837111 0.696875 0.0883033 -4.20601 -0.287853 -0.135753 0.236325 
-2.20824 0.0304094 0.555294 -1.52736 -0.322682 0.222974 0.360332 -0.750555 -0.91393 
0.348342 0.279564 -0.26221 -1.69597 0.849922 1.52183 -0.88242 -1.11919 -1.42652 
0.154397 0.340594 0.00984841 -0.175654 -0.0889601 -0.107582 0.0454076 -0.117272 0.0343224 
-1.69606 0.167169 0.0960826 -0.790106 -0.120196 -0.0108857 0.0316243 0.145922 0.104708 