# vtk DataFile Version 4.0
Generated by LIGGGHTS
ASCII
DATASET POLYDATA
POINTS 500 float
0.419164 -0.0449951 -1.18265 0.421887 -0.029612 -1.18752 0.00505408 -0.0250073 -1.19501 
0.0390627 -0.0203875 -1.17491 0.0168985 -0.0223669 -1.17257 0.0361152 -0.00499929 -1.17601 
0.04523 -0.0364828 -1.18622 0.0322007 -0.0450009 -1.17652 0.0898553 -0.0165868 -1.17814 
0.469194 -0.00512497 -1.18501 0.344993 -0.0407812 -1.19384 0.463538 -0.0134282 -1.19501 
0.0214876 -0.0141904 -1.1691 0.319939 -0.00503157 -1.19497 0.0437325 -0.0112449 -1.17429 
0.379534 -0.0304 -1.195 0.0277537 -0.0450032 -1.18547 0.495001 -0.0450009 -1.18514 
0.0405059 -0.0360607 -1.19501 0.481908 -0.0137247 -1.18719 0.00549025 -0.0199141 -1.17186 
0.177483 -0.0277474 -1.18624 0.4934 -0.0450003 -1.195 0.0533668 -0.00499516 -1.18643 
0.16765 -0.0296164 -1.18738 0.372806 -0.0448747 -1.18751 0.485701 -0.0286662 -1.19501 
0.457333 -0.0450029 -1.195 0.31484 -0.0138236 -1.195 0.0949748 -0.0136663 -1.18635 
0.0343041 -0.020517 -1.18778 0.439054 -0.0450017 -1.18636 0.41113 -0.0122552 -1.18573 
0.46036 -0.0204749 -1.18867 0.204588 -0.0333366 -1.195 0.033481 -0.0372135 -1.188 
0.395627 -0.004998 -1.195 0.0148733 -0.043485 -1.19501 0.0381834 -0.0374478 -1.17919 
0.495003 -0.0100141 -1.18634 0.225464 -0.0414565 -0.245002 0.113406 -0.0276855 -1.195 
0.0696128 -0.00888385 -1.17186 0.415812 -0.0375087 -1.18837 0.118401 -0.0363463 -1.195 
0.467114 -0.0350019 -1.195 0.00542542 -0.0369237 -1.17915 0.00499831 -0.0200052 -1.18636 
0.484621 -0.0450026 -1.18735 0.430078 -0.0216179 -1.18842 0.381465 -0.00501119 -1.195 
0.47793 -0.0450008 -1.195 0.0216141 -0.0049984 -1.18752 0.0605413 -0.0450008 -1.16937 
0.00992907 -0.0249972 -1.17924 0.0148835 -0.0336809 -1.17928 0.0849543 -0.0224148 -1.195 
0.0686664 -0.0188374 -1.17174 0.0141112 -0.00499913 -1.18091 0.0432174 -0.0294122 -1.17603 
0.026656 -0.0351893 -1.19501 0.450263 -0.0371229 -1.195 0.0148518 -0.014715 -1.17867 
0.0441509 -0.020854 -1.18552 0.0768502 -0.0450015 -1.17833 0.427953 -0.0144134 -1.19501 
0.429988 -0.0290075 -1.18169 0.445204 -0.0283844 -1.18127 0.434021 -0.00500892 -1.19501 
0.0049984 -0.0130871 -1.17914 0.485664 -0.0386645 -1.19501 0.492169 -0.0199955 -1.18682 
0.0431428 -0.0117533 -1.18953 0.0136805 -0.0199496 -1.19501 0.0554325 -0.0450032 -1.17796 
0.0541617 -0.0203366 -1.18745 0.0194517 -0.00499885 -1.17246 0.418527 -0.00540108 -1.18609 
0.400717 -0.0313126 -1.195 0.49235 -0.0370232 -1.17972 0.049985 -0.0366399 -1.17742 
0.0278074 -0.0281086 -1.18805 0.444906 -0.0211894 -1.1882 0.00719079 -0.00499793 -1.1737 
0.160992 -0.0439278 -1.17715 0.0606658 -0.0364851 -1.17779 0.0215123 -0.0357817 -1.18646 
0.301894 -0.0367961 -1.18838 0.430001 -0.0444242 -1.18212 0.00499683 -0.00499752 -1.18502 
0.0504909 -0.0365794 -1.19501 0.409966 -0.0245987 -1.18035 0.0604456 -0.00500414 -1.17091 
0.00499516 -0.0300041 -1.18635 0.00499575 -0.0450024 -1.19501 0.0118377 -0.0118384 -1.18843 
0.126843 -0.0050825 -1.18634 0.0849737 -0.0136499 -1.18636 0.190794 -0.0449958 -1.195 
0.0658706 -0.0449998 -1.19501 0.0744939 -0.0221385 -1.195 0.207742 -0.0449953 -0.245002 
0.0143901 -0.0270037 -1.18796 0.461651 -0.0116367 -1.18418 0.294772 -0.0138581 -1.195 
0.364477 -0.00556704 -1.18768 0.108396 -0.0421144 -1.18684 0.13685 -0.030981 -1.19501 
0.103396 -0.0450008 -1.195 0.0502283 -0.0284121 -1.18309 0.176817 -0.0136512 -1.195 
0.0606761 -0.0278436 -1.18639 0.495002 -0.00499826 -1.195 0.389669 -0.0131537 -1.195 
0.102046 -0.0149879 -1.1794 0.0411763 -0.0198744 -1.19501 0.25593 -0.0095187 -1.18761 
0.442155 -0.00500053 -1.1892 0.462647 -0.045006 -1.18597 0.0556458 -0.0364801 -1.18644 
0.275078 -0.0165525 -1.195 0.489146 -0.0259527 -1.17938 0.450296 -0.00499872 -1.195 
0.459607 -0.00499299 -1.19136 0.468917 -0.00499906 -1.19501 0.033701 -0.00499459 -1.1861 
0.205249 -0.0248385 -0.245002 0.467694 -0.036419 -1.18512 0.495003 -0.0149967 -1.19501 
0.0177564 -0.0450029 -1.18556 0.0372164 -0.0132064 -1.18161 0.495001 -0.0249953 -1.19501 
0.0583744 -0.00607656 -1.19501 0.0247529 -0.045003 -1.195 0.0510102 -0.0146001 -1.19501 
0.407171 -0.0236764 -1.19501 0.0222071 -0.0316766 -1.17259 0.249845 -0.0185985 -1.18721 
0.452004 -0.00499891 -1.1846 0.188686 -0.0268862 -1.195 0.437603 -0.0217289 -1.19501 
0.468481 -0.0261607 -1.19048 0.485703 -0.00867015 -1.195 0.422147 -0.0214473 -1.18175 
0.472631 -0.045001 -1.18653 0.408371 -0.0378635 -1.19503 0.0192669 -0.0183466 -1.18687 
0.0605282 -0.0188588 -1.19501 0.44504 -0.0136855 -1.195 0.131842 -0.0165479 -1.18684 
0.0799882 -0.00499288 -1.18635 0.434031 -0.0450024 -1.195 0.004998 -0.0450041 -1.18502 
0.475687 -0.0135589 -1.19501 0.231697 -0.0311747 -1.18706 0.452209 -0.0216836 -1.19501 
0.034985 -0.0277245 -1.195 0.486417 -0.00499613 -1.18534 0.0149958 -0.00499898 -1.19501 
0.477033 -0.0236426 -1.195 0.00499901 -0.0350053 -1.195 0.186814 -0.00871849 -1.18718 
0.0287324 -0.0342299 -1.17972 0.0276627 -0.0129274 -1.18681 0.0398675 -0.0449751 -1.18642 
0.45381 -0.0130558 -1.19023 0.120117 -0.0123833 -1.18773 0.390893 -0.0450121 -1.19501 
0.0382296 -0.00499263 -1.19501 0.0577166 -0.0133068 -1.17618 0.22617 -0.00556145 -1.18624 
0.0215719 -0.0125585 -1.195 0.450704 -0.0449402 -1.18752 0.485655 -0.0336626 -1.18635 
0.155302 -0.0363211 -1.19501 0.0618489 -0.0221756 -1.17824 0.0899792 -0.0136643 -1.19501 
0.482869 -0.023669 -1.18682 0.0212773 -0.026018 -1.18078 0.0608006 -0.0361132 -1.195 
0.236525 -0.0348659 -1.195 0.495003 -0.035102 -1.195 0.47771 -0.00499844 -1.19025 
0.00499734 -0.0149948 -1.19501 0.0743594 -0.0132468 -1.18676 0.142164 -0.0279223 -1.18673 
0.0310393 -0.0245155 -1.17922 0.236396 -0.00826467 -1.18657 0.464953 -0.020597 -1.17979 
0.195812 -0.0417587 -1.18698 0.0347514 -0.0449597 -1.195 0.365875 -0.0449598 -1.19471 
0.379288 -0.0157418 -1.195 0.00499838 -0.00499775 -1.19501 0.118397 -0.042122 -1.18684 
0.0154493 -0.0388015 -1.17071 0.284649 -0.00506158 -1.18642 0.467332 -0.045 -1.195 
0.208676 -0.0152708 -0.245002 0.495001 -0.0300467 -1.18638 0.097061 -0.0240333 -1.17953 
0.0496601 -0.0132007 -1.1821 0.444073 -0.0449842 -1.195 0.458758 -0.0366162 -1.18976 
0.423166 -0.0361129 -1.195 0.0849883 -0.00499964 -1.19501 0.485704 -0.0186678 -1.195 
0.47702 -0.033642 -1.195 0.0117075 -0.0450014 -1.1776 0.0659066 -0.0363643 -1.18631 
0.161825 -0.004997 -1.195 0.285108 -0.0321534 -1.195 0.0558719 -0.0450026 -1.19501 
0.0847531 -0.0308516 -1.18642 0.422681 -0.0230288 -1.195 0.235963 -0.0136659 -1.195 
0.401393 -0.0450029 -1.195 0.357666 -0.00536875 -1.195 0.0245871 -0.0169464 -1.17819 
0.0914776 -0.0380823 -1.188 0.397745 -0.00536706 -1.18398 0.224101 -0.0364338 -1.0105 
0.438181 -0.0359091 -1.19501 0.0898709 -0.0311232 -1.195 0.0716493 -0.00499648 -1.18085 
0.107049 -0.0236405 -1.17976 0.388553 -0.00519296 -1.18795 0.131839 -0.0049985 -1.195 
0.388287 -0.0352549 -1.195 0.0445202 -0.0450059 -1.17757 0.0449852 -0.0450004 -1.195 
0.0521583 -0.00500042 -1.17651 0.0167742 -0.0336703 -1.19501 0.0282334 -0.00503985 -1.195 
0.0749881 -0.00507222 -1.19501 0.488582 -0.0139148 -1.17974 0.444225 -0.0364733 -1.18706 
0.0459244 -0.0281748 -1.19211 0.0234543 -0.0223871 -1.195 0.0731395 -0.0345087 -1.17965 
0.0267501 -0.00663215 -1.1791 0.175274 -0.0394181 -1.18838 0.408644 -0.0450184 -1.1881 
0.0601746 -0.01235 -1.18744 0.430722 -0.0366354 -1.18839 0.0792562 -0.0161188 -1.17853 
0.459801 -0.0281824 -1.19501 0.0112699 -0.0376937 -1.1877 0.0668781 -0.0137526 -1.18016 
0.407699 -0.0136963 -1.19501 0.271201 -0.0211781 -1.18573 0.0760947 -0.0450003 -1.195 
0.0949875 -0.00499943 -1.195 0.413987 -0.00499884 -1.195 0.40233 -0.0218194 -1.18646 
0.33882 -0.00968055 -1.195 0.479006 -0.0392539 -1.1814 0.104986 -0.00499935 -1.195 
0.36751 -0.0255313 -1.19499 0.264426 -0.0373991 -1.18554 0.0999755 -0.0136655 -1.19501 
0.125688 -0.0354284 -1.18543 0.0608734 -0.0450024 -1.18635 0.0796253 -0.0308773 -1.195 
0.0333159 -0.0136953 -1.19501 0.415219 -0.0300418 -1.195 0.227239 -0.0413886 -1.18649 
0.361745 -0.0344789 -1.195 0.408913 -0.0379073 -1.18109 0.151851 -0.0223232 -1.195 
0.424056 -0.00519443 -1.1944 0.103409 -0.0276754 -1.19501 0.089954 -0.0223149 -1.18635 
0.155152 -0.0450077 -1.18631 0.415884 -0.0449975 -1.195 0.221032 -0.0449924 -1.195 
0.201809 -0.00499611 -1.195 0.00499966 -0.0298983 -1.17205 0.430679 -0.0291226 -1.195 
0.208382 -0.0235158 -1.195 0.334534 -0.0423841 -1.195 0.445406 -0.0124483 -1.18338 
0.113418 -0.0103707 -1.195 0.0659829 -0.0449988 -1.17776 0.181818 -0.0049968 -1.195 
0.265934 -0.00550919 -1.18636 0.357471 -0.0252815 -1.195 0.417861 -0.0142648 -1.19483 
0.0555355 -0.0275322 -1.195 0.397148 -0.0219562 -1.19501 0.0385612 -0.0291315 -1.18503 
0.0932994 -0.0449973 -1.195 0.444928 -0.0285346 -1.195 0.0504302 -0.0450061 -1.18662 
0.146851 -0.0309752 -1.19501 0.246738 -0.0389216 -1.1856 0.070805 -0.0360097 -1.19501 
0.15683 -0.00788486 -1.18684 0.469579 -0.0166094 -1.18771 0.0226804 -0.0418569 -1.17745 
0.079981 -0.0137352 -1.19501 0.106761 -0.0122885 -1.1878 0.342981 -0.0226639 -1.19376 
0.393089 -0.0288518 -1.18901 0.0984879 -0.0450018 -1.18629 0.23095 -0.00500022 -1.19501 
0.108415 -0.0190232 -1.195 0.333991 -0.0184341 -1.195 0.38676 -0.0226754 -1.19382 
0.281849 -0.024964 -1.1862 0.431785 -0.00508343 -1.18523 0.231036 -0.0450004 -1.195 
0.266286 -0.0338982 -1.19492 0.425352 -0.0127569 -1.1855 0.0776741 -0.037742 -1.18796 
0.0949526 -0.0223405 -1.195 0.141854 -0.0396365 -1.19501 0.309233 -0.0353347 -1.195 
0.424958 -0.045004 -1.1908 0.0838887 -0.037997 -1.17948 0.371471 -0.00501724 -1.195 
0.0553211 -0.0287256 -1.17445 0.0439491 -0.00499587 -1.18222 0.0666443 -0.00499899 -1.1895 
0.308294 -0.028867 -1.18742 0.16033 -0.0276607 -1.19501 0.414861 -0.0219199 -1.18887 
0.0797297 -0.0221609 -1.18649 0.359237 -0.0152899 -1.195 0.171861 -0.0173645 -1.18715 
0.194107 -0.0298614 -1.18704 0.184635 -0.0360214 -1.195 0.317461 -0.0296491 -1.195 
0.0482263 -0.00499829 -1.195 0.0489464 -0.0212217 -1.17618 0.166822 -0.0136549 -1.195 
0.371585 -0.0364616 -1.19485 0.135166 -0.0376156 -1.18773 0.121843 -0.00499735 -1.195 
0.128419 -0.0450015 -1.18635 0.0675222 -0.0204308 -1.18804 0.0686964 -0.0130916 -1.195 
0.380791 -0.0448631 -1.195 0.348645 -0.0308452 -1.195 0.108397 -0.0305687 -1.18684 
0.365742 -0.00540297 -1.12469 0.156831 -0.0136578 -1.195 0.291002 -0.0450004 -1.195 
0.384639 -0.0141351 -1.18587 0.0925665 -0.0330322 -1.17944 0.16183 -0.0198571 -1.18894 
0.113485 -0.00499511 -1.18657 0.0616519 -0.00499655 -1.18084 0.211808 -0.00499455 -1.19501 
0.276955 -0.0263729 -1.195 0.151831 -0.00499858 -1.195 0.281002 -0.0449863 -1.195 
0.349254 -0.0148382 -1.195 0.0726814 -0.029081 -1.18804 0.271 -0.0449944 -1.195 
0.0950308 -0.0079719 -1.17804 0.18673 -0.0149404 -1.195 0.436465 -0.0132301 -1.18987 
0.347632 -0.00498901 -1.195 0.101565 -0.0363369 -1.18237 0.198532 -0.0251918 -1.195 
0.205953 -0.0401727 -1.18783 0.200924 -0.0449978 -1.195 0.226388 -0.0165385 -1.195 
0.329938 -0.00509949 -1.195 0.215806 -0.0362514 -1.195 0.179349 -0.0233193 -1.195 
0.141848 -0.0223227 -1.195 0.0966844 -0.0295532 -1.18786 0.301126 -0.0447922 -1.195 
0.0709751 -0.0450012 -1.18642 0.404809 -0.00499459 -1.19104 0.216391 -0.016562 -1.195 
0.245964 -0.0136754 -1.195 0.136832 -0.0078828 -1.18684 0.118229 -0.0288385 -1.18633 
0.141799 -0.0450032 -1.18657 0.131846 -0.0223222 -1.195 0.24098 -0.0439512 -1.195 
0.0657164 -0.0274036 -1.19501 0.0999878 -0.00499979 -1.18634 0.191814 -0.00500084 -1.195 
0.176818 -0.00787466 -1.18684 0.25565 -0.0162433 -1.195 0.256498 -0.0360685 -1.195 
0.309938 -0.00507299 -1.195 0.150289 -0.0449993 -1.195 0.132163 -0.0279198 -1.18672 
0.123406 -0.0450023 -1.195 0.398845 -0.0132563 -1.19038 0.289934 -0.00500426 -1.195 
0.113415 -0.019677 -1.18637 0.437786 -0.0288212 -1.18797 0.141839 -0.0165523 -1.18684 
0.208001 -0.0349873 -0.245002 0.293761 -0.0420307 -1.18587 0.299936 -0.00500799 -1.195 
0.375508 -0.0231225 -1.18945 0.279071 -0.0138677 -1.18569 0.0815555 -0.0268405 -1.17784 
0.335357 -0.0304383 -1.195 0.00499897 -0.0422728 -1.17071 0.0845112 -0.0396022 -1.19501 
0.35591 -0.0435729 -1.193 0.0547848 -0.0368567 -1.16865 0.146837 -0.0136597 -1.195 
0.141835 -0.00499874 -1.195 0.171819 -0.00499544 -1.195 0.247447 -0.0244053 -1.195 
0.260936 -0.00500006 -1.195 0.399885 -0.0324274 -1.18258 0.108401 -0.0363404 -1.195 
0.292338 -0.0252458 -1.1949 0.246519 -0.0355146 -1.195 0.326016 -0.0244656 -1.19486 
0.0844051 -0.0450053 -1.1866 0.280436 -0.00810623 -1.19497 0.241922 -0.0296037 -1.1884 
0.123411 -0.0276925 -1.195 0.261 -0.0449951 -1.19487 0.475881 -0.0306972 -1.18552 
0.123442 -0.0207995 -1.18348 0.237488 -0.023547 -1.195 0.160288 -0.0363575 -1.18636 
0.17028 -0.0450024 -1.195 0.210974 -0.0450018 -1.195 0.270934 -0.00499972 -1.195 
0.324843 -0.0143464 -1.19494 0.408093 -0.0307537 -1.18802 0.216013 -0.0420682 -1.18687 
0.160286 -0.0449977 -1.195 0.32622 -0.0345316 -1.195 0.304835 -0.0137355 -1.195 
0.376359 -0.00857203 -1.18701 0.221488 -0.0318205 -1.18734 0.136842 -0.0136611 -1.195 
0.294489 -0.0356214 -1.195 0.285198 -0.0169167 -1.19493 0.240944 -0.00499764 -1.195 
0.206812 -0.0136474 -1.19501 0.20259 -0.0193546 -1.18797 0.0984023 -0.0363376 -1.195 
0.221378 -0.00788448 -1.195 0.151838 -0.0165513 -1.18684 0.128414 -0.0363488 -1.195 
0.437354 -0.0193654 -1.18191 0.250975 -0.0445643 -1.19498 0.196811 -0.00810995 -1.18692 
0.133421 -0.045003 -1.195 0.42642 -0.0275774 -1.17235 0.257299 -0.0261027 -1.19486 
0.148494 -0.0376824 -1.18779 0.369283 -0.0150717 -1.19445 0.267052 -0.0238939 -1.19478 
0.383093 -0.0389308 -1.18729 0.153547 -0.029053 -1.1878 0.180268 -0.0450066 -1.19501 
0.0849841 -0.00736394 -1.17802 0.19489 -0.0358362 -1.19501 0.385416 -0.0248197 -1.18394 
0.165302 -0.0450034 -1.18634 0.217922 -0.0264836 -1.19501 0.396123 -0.0384033 -1.18965 
0.174321 -0.0319979 -1.19501 0.320332 -0.0105867 -1.18664 0.221971 -0.0213629 -1.18743 
0.192281 -0.0201381 -1.18852 0.452713 -0.0369649 -1.1818 0.165307 -0.036331 -1.195 
0.185522 -0.0444242 -1.18653 0.226123 -0.0362694 -1.195 0.0899881 -0.00499894 -1.18635 
0.300019 -0.0205507 -1.18949 0.301715 -0.0287162 -1.195 0.276003 -0.0363262 -1.195 
0.452327 -0.029099 -1.1883 0.0723795 -0.0233954 -1.17982 0.211374 -0.0302958 -1.1883 
0.250938 -0.00499911 -1.195 0.309962 -0.0225562 -1.195 0.146832 -0.00788804 -1.18684 
0.101745 -0.0209341 -1.1878 0.126846 -0.0136614 -1.19501 0.474924 -0.0218068 -1.18105 
0.227916 -0.0264248 -1.195 0.461132 -0.0290384 -1.18357 0.113395 -0.0450018 -1.195 
0.452997 -0.0188367 -1.18211 0.169338 -0.0233295 -1.195 0.216163 -0.00708792 -1.18626 
0.118414 -0.019032 -1.195 0.265401 -0.0140077 -1.195 0.311832 -0.0449921 -1.195 
0.196779 -0.0139941 -1.195 0.321928 -0.0447341 -1.195 
VERTICES 500 1000
1 0 
1 1 
1 2 
1 3 
1 4 
1 5 
1 6 
1 7 
1 8 
1 9 
1 10 
1 11 
1 12 
1 13 
1 14 
1 15 
1 16 
1 17 
1 18 
1 19 
1 20 
1 21 
1 22 
1 23 
1 24 
1 25 
1 26 
1 27 
1 28 
1 29 
1 30 
1 31 
1 32 
1 33 
1 34 
1 35 
1 36 
1 37 
1 38 
1 39 
1 40 
1 41 
1 42 
1 43 
1 44 
1 45 
1 46 
1 47 
1 48 
1 49 
1 50 
1 51 
1 52 
1 53 
1 54 
1 55 
1 56 
1 57 
1 58 
1 59 
1 60 
1 61 
1 62 
1 63 
1 64 
1 65 
1 66 
1 67 
1 68 
1 69 
1 70 
1 71 
1 72 
1 73 
1 74 
1 75 
1 76 
1 77 
1 78 
1 79 
1 80 
1 81 
1 82 
1 83 
1 84 
1 85 
1 86 
1 87 
1 88 
1 89 
1 90 
1 91 
1 92 
1 93 
1 94 
1 95 
1 96 
1 97 
1 98 
1 99 
1 100 
1 101 
1 102 
1 103 
1 104 
1 105 
1 106 
1 107 
1 108 
1 109 
1 110 
1 111 
1 112 
1 113 
1 114 
1 115 
1 116 
1 117 
1 118 
1 119 
1 120 
1 121 
1 122 
1 123 
1 124 
1 125 
1 126 
1 127 
1 128 
1 129 
1 130 
1 131 
1 132 
1 133 
1 134 
1 135 
1 136 
1 137 
1 138 
1 139 
1 140 
1 141 
1 142 
1 143 
1 144 
1 145 
1 146 
1 147 
1 148 
1 149 
1 150 
1 151 
1 152 
1 153 
1 154 
1 155 
1 156 
1 157 
1 158 
1 159 
1 160 
1 161 
1 162 
1 163 
1 164 
1 165 
1 166 
1 167 
1 168 
1 169 
1 170 
1 171 
1 172 
1 173 
1 174 
1 175 
1 176 
1 177 
1 178 
1 179 
1 180 
1 181 
1 182 
1 183 
1 184 
1 185 
1 186 
1 187 
1 188 
1 189 
1 190 
1 191 
1 192 
1 193 
1 194 
1 195 
1 196 
1 197 
1 198 
1 199 
1 200 
1 201 
1 202 
1 203 
1 204 
1 205 
1 206 
1 207 
1 208 
1 209 
1 210 
1 211 
1 212 
1 213 
1 214 
1 215 
1 216 
1 217 
1 218 
1 219 
1 220 
1 221 
1 222 
1 223 
1 224 
1 225 
1 226 
1 227 
1 228 
1 229 
1 230 
1 231 
1 232 
1 233 
1 234 
1 235 
1 236 
1 237 
1 238 
1 239 
1 240 
1 241 
1 242 
1 243 
1 244 
1 245 
1 246 
1 247 
1 248 
1 249 
1 250 
1 251 
1 252 
1 253 
1 254 
1 255 
1 256 
1 257 
1 258 
1 259 
1 260 
1 261 
1 262 
1 263 
1 264 
1 265 
1 266 
1 267 
1 268 
1 269 
1 270 
1 271 
1 272 
1 273 
1 274 
1 275 
1 276 
1 277 
1 278 
1 279 
1 280 
1 281 
1 282 
1 283 
1 284 
1 285 
1 286 
1 287 
1 288 
1 289 
1 290 
1 291 
1 292 
1 293 
1 294 
1 295 
1 296 
1 297 
1 298 
1 299 
1 300 
1 301 
1 302 
1 303 
1 304 
1 305 
1 306 
1 307 
1 308 
1 309 
1 310 
1 311 
1 312 
1 313 
1 314 
1 315 
1 316 
1 317 
1 318 
1 319 
1 320 
1 321 
1 322 
1 323 
1 324 
1 325 
1 326 
1 327 
1 328 
1 329 
1 330 
1 331 
1 332 
1 333 
1 334 
1 335 
1 336 
1 337 
1 338 
1 339 
1 340 
1 341 
1 342 
1 343 
1 344 
1 345 
1 346 
1 347 
1 348 
1 349 
1 350 
1 351 
1 352 
1 353 
1 354 
1 355 
1 356 
1 357 
1 358 
1 359 
1 360 
1 361 
1 362 
1 363 
1 364 
1 365 
1 366 
1 367 
1 368 
1 369 
1 370 
1 371 
1 372 
1 373 
1 374 
1 375 
1 376 
1 377 
1 378 
1 379 
1 380 
1 381 
1 382 
1 383 
1 384 
1 385 
1 386 
1 387 
1 388 
1 389 
1 390 
1 391 
1 392 
1 393 
1 394 
1 395 
1 396 
1 397 
1 398 
1 399 
1 400 
1 401 
1 402 
1 403 
1 404 
1 405 
1 406 
1 407 
1 408 
1 409 
1 410 
1 411 
1 412 
1 413 
1 414 
1 415 
1 416 
1 417 
1 418 
1 419 
1 420 
1 421 
1 422 
1 423 
1 424 
1 425 
1 426 
1 427 
1 428 
1 429 
1 430 
1 431 
1 432 
1 433 
1 434 
1 435 
1 436 
1 437 
1 438 
1 439 
1 440 
1 441 
1 442 
1 443 
1 444 
1 445 
1 446 
1 447 
1 448 
1 449 
1 450 
1 451 
1 452 
1 453 
1 454 
1 455 
1 456 
1 457 
1 458 
1 459 
1 460 
1 461 
1 462 
1 463 
1 464 
1 465 
1 466 
1 467 
1 468 
1 469 
1 470 
1 471 
1 472 
1 473 
1 474 
1 475 
1 476 
1 477 
1 478 
1 479 
1 480 
1 481 
1 482 
1 483 
1 484 
1 485 
1 486 
1 487 
1 488 
1 489 
1 490 
1 491 
1 492 
1 493 
1 494 
1 495 
1 496 
1 497 
1 498 
1 499 

POINT_DATA 500
FIELD FieldData 7
id 1 500 int
1 2 3 4 5 6 7 8 9 
10 11 12 13 14 15 16 17 18 
19 20 21 22 23 24 25 26 27 
28 29 30 31 32 33 34 35 36 
37 38 39 40 41 42 43 44 45 
46 47 48 49 50 51 52 53 54 
55 56 57 58 59 60 61 62 63 
64 65 66 67 68 69 70 71 72 
73 74 75 76 77 78 79 80 81 
82 83 84 85 86 87 88 89 90 
91 92 93 94 95 96 97 98 99 
100 101 102 103 104 105 106 107 108 
109 110 111 112 113 114 115 116 117 
118 119 120 121 122 123 124 125 126 
127 128 129 130 131 132 133 134 135 
136 137 138 139 140 141 142 143 144 
145 146 147 148 149 150 151 152 153 
154 155 156 157 158 159 160 161 162 
163 164 165 166 167 168 169 170 171 
172 173 174 175 176 177 178 179 180 
181 182 183 184 185 186 187 188 189 
190 191 192 193 194 195 196 197 198 
199 200 201 202 203 204 205 206 207 
208 209 210 211 212 213 214 215 216 
217 218 219 220 221 222 223 224 225 
226 227 228 229 230 231 232 233 234 
235 236 237 238 239 240 241 242 243 
244 245 246 247 248 249 250 251 252 
253 254 255 256 257 258 259 260 261 
262 263 264 265 266 267 268 269 270 
271 272 273 274 275 276 277 278 279 
280 281 282 283 284 285 286 287 288 
289 290 291 292 293 294 295 296 297 
298 299 300 301 302 303 304 305 306 
307 308 309 310 311 312 313 314 315 
316 317 318 319 320 321 322 323 324 
325 326 327 328 329 330 331 332 333 
334 335 336 337 338 339 340 341 342 
343 344 345 346 347 348 349 350 351 
352 353 354 355 356 357 358 359 360 
361 362 363 364 365 366 367 368 369 
370 371 372 373 374 375 376 377 378 
379 380 381 382 383 384 385 386 387 
388 389 390 391 392 393 394 395 396 
397 398 399 400 401 402 403 404 405 
406 407 408 409 410 411 412 413 414 
415 416 417 418 419 420 421 422 423 
424 425 426 427 428 429 430 431 432 
433 434 435 436 437 438 439 440 441 
442 443 444 445 446 447 448 449 450 
451 452 453 454 455 456 457 458 459 
460 461 462 463 464 465 466 467 468 
469 470 471 472 473 474 475 476 477 
478 479 480 481 482 483 484 485 486 
487 488 489 490 491 492 493 494 495 
496 497 498 499 500 
type 1 500 int
1 1 1 1 1 1 1 1 1 
1 1 1 1 1 1 1 1 1 
1 1 1 1 1 1 1 1 1 
1 1 1 1 1 1 1 1 1 
1 1 1 1 1 1 1 1 1 
1 1 1 1 1 1 1 1 1 
1 1 1 1 1 1 1 1 1 
1 1 1 1 1 1 1 1 1 
1 1 1 1 1 1 1 1 1 
1 1 1 1 1 1 1 1 1 
1 1 1 1 1 1 1 1 1 
1 1 1 1 1 1 1 1 1 
1 1 1 1 1 1 1 1 1 
1 1 1 1 1 1 1 1 1 
1 1 1 1 1 1 1 1 1 
1 1 1 1 1 1 1 1 1 
1 1 1 1 1 1 1 1 1 
1 1 1 1 1 1 1 1 1 
1 1 1 1 1 1 1 1 1 
1 1 1 1 1 1 1 1 1 
1 1 1 1 1 1 1 1 1 
1 1 1 1 1 1 1 1 1 
1 1 1 1 1 1 1 1 1 
1 1 1 1 1 1 1 1 1 
1 1 1 1 1 1 1 1 1 
1 1 1 1 1 1 1 1 1 
1 1 1 1 1 1 1 1 1 
1 1 1 1 1 1 1 1 1 
1 1 1 1 1 1 1 1 1 
1 1 1 1 1 1 1 1 1 
1 1 1 1 1 1 1 1 1 
1 1 1 1 1 1 1 1 1 
1 1 1 1 1 1 1 1 1 
1 1 1 1 1 1 1 1 1 
1 1 1 1 1 1 1 1 1 
1 1 1 1 1 1 1 1 1 
1 1 1 1 1 1 1 1 1 
1 1 1 1 1 1 1 1 1 
1 1 1 1 1 1 1 1 1 
1 1 1 1 1 1 1 1 1 
1 1 1 1 1 1 1 1 1 
1 1 1 1 1 1 1 1 1 
1 1 1 1 1 1 1 1 1 
1 1 1 1 1 1 1 1 1 
1 1 1 1 1 1 1 1 1 
1 1 1 1 1 1 1 1 1 
1 1 1 1 1 1 1 1 1 
1 1 1 1 1 1 1 1 1 
1 1 1 1 1 1 1 1 1 
1 1 1 1 1 1 1 1 1 
1 1 1 1 1 1 1 1 1 
1 1 1 1 1 1 1 1 1 
1 1 1 1 1 1 1 1 1 
1 1 1 1 1 1 1 1 1 
1 1 1 1 1 1 1 1 1 
1 1 1 1 1 
i 3 500 int
0 0 0 0 0 0 0 0 0 
0 0 0 0 0 0 0 0 0 
0 0 0 0 0 0 0 0 0 
0 0 0 0 0 0 0 0 0 
0 0 0 0 0 0 0 0 0 
0 0 0 0 0 0 0 0 0 
0 0 0 0 0 0 0 0 0 
0 0 0 0 0 0 0 0 0 
0 0 0 0 0 0 0 0 0 
0 0 0 0 0 0 0 0 0 
0 0 0 0 0 0 0 0 0 
0 0 0 0 0 0 0 0 0 
0 0 0 0 0 0 0 0 0 
0 0 0 0 0 0 0 0 0 
0 0 0 0 0 0 0 0 0 
0 0 0 0 0 0 0 0 0 
0 0 0 0 0 0 0 0 0 
0 0 0 0 0 0 0 0 0 
0 0 0 0 0 0 0 0 0 
0 0 0 0 0 0 0 0 0 
0 0 0 0 0 0 0 0 0 
0 0 0 0 0 0 0 0 0 
0 0 0 0 0 0 0 0 0 
0 0 0 0 0 0 0 0 0 
0 0 0 0 0 0 0 0 0 
0 0 0 0 0 0 0 0 0 
0 0 0 0 0 0 0 0 0 
0 0 0 0 0 0 0 0 0 
0 0 0 0 0 0 0 0 0 
0 0 0 0 0 0 0 0 0 
0 0 0 0 0 0 0 0 0 
0 0 0 0 0 0 0 0 0 
0 0 0 0 0 0 0 0 0 
0 0 0 0 0 0 0 0 0 
0 0 0 0 0 0 0 0 0 
0 0 0 0 0 0 0 0 0 
0 0 0 0 0 0 0 0 0 
0 0 0 0 0 0 0 0 0 
0 0 0 0 0 0 0 0 0 
0 0 0 0 0 0 0 0 0 
0 0 0 0 0 0 0 0 0 
0 0 0 0 0 0 0 0 0 
0 0 0 0 0 0 0 0 0 
0 0 0 0 0 0 0 0 0 
0 0 0 0 0 0 0 0 0 
0 0 0 0 0 0 0 0 0 
0 0 0 0 0 0 0 0 0 
0 0 0 0 0 0 0 0 0 
0 0 0 0 0 0 0 0 0 
0 0 0 0 0 0 0 0 0 
0 0 0 0 0 0 0 0 0 
0 0 0 0 0 0 0 0 0 
0 0 0 0 0 0 0 0 0 
0 0 0 0 0 0 0 0 0 
0 0 0 0 0 0 0 0 0 
0 0 0 0 0 0 0 0 0 
0 0 0 0 0 0 0 0 0 
0 0 0 0 0 0 0 0 0 
0 0 0 0 0 0 0 0 0 
0 0 0 0 0 0 0 0 0 
0 0 0 0 0 0 0 0 0 
0 0 0 0 0 0 0 0 0 
0 0 0 0 0 0 0 0 0 
0 0 0 0 0 0 0 0 0 
0 0 0 0 0 0 0 0 0 
0 0 0 0 0 0 0 0 0 
0 0 0 0 0 0 0 0 0 
0 0 0 0 0 0 0 0 0 
0 0 0 0 0 0 0 0 0 
0 0 0 0 0 0 0 0 0 
0 0 0 0 0 0 0 0 0 
0 0 0 0 0 0 0 0 0 
0 0 0 0 0 0 0 0 0 
0 0 0 0 0 0 0 0 0 
0 0 0 0 0 0 0 0 0 
0 0 0 0 0 0 0 0 0 
0 0 0 0 0 0 0 0 0 
0 0 0 0 0 0 0 0 0 
0 0 0 0 0 0 0 0 0 
0 0 0 0 0 0 0 0 0 
0 0 0 0 0 0 0 0 0 
0 0 0 0 0 0 0 0 0 
0 0 0 0 0 0 0 0 0 
0 0 0 0 0 0 0 0 0 
0 0 0 0 0 0 0 0 0 
0 0 0 0 0 0 0 0 0 
0 0 0 0 0 0 0 0 0 
0 0 0 0 0 0 0 0 0 
0 0 0 0 0 0 0 0 0 
0 0 0 0 0 0 0 0 0 
0 0 0 0 0 0 0 0 0 
0 0 0 0 0 0 0 0 0 
0 0 0 0 0 0 0 0 0 
0 0 0 0 0 0 0 0 0 
0 0 0 0 0 0 0 0 0 
0 0 0 0 0 0 0 0 0 
0 0 0 0 0 0 0 0 0 
0 0 0 0 0 0 0 0 0 
0 0 0 0 0 0 0 0 0 
0 0 0 0 0 0 0 0 0 
0 0 0 0 0 0 0 0 0 
0 0 0 0 0 0 0 0 0 
0 0 0 0 0 0 0 0 0 
0 0 0 0 0 0 0 0 0 
0 0 0 0 0 0 0 0 0 
0 0 0 0 0 0 0 0 0 
0 0 0 0 0 0 0 0 0 
0 0 0 0 0 0 0 0 0 
0 0 0 0 0 0 0 0 0 
0 0 0 0 0 0 0 0 0 
0 0 0 0 0 0 0 0 0 
0 0 0 0 0 0 0 0 0 
0 0 0 0 0 0 0 0 0 
0 0 0 0 0 0 0 0 0 
0 0 0 0 0 0 0 0 0 
0 0 0 0 0 0 0 0 0 
0 0 0 0 0 0 0 0 0 
0 0 0 0 0 0 0 0 0 
0 0 0 0 0 0 0 0 0 
0 0 0 0 0 0 0 0 0 
0 0 0 0 0 0 0 0 0 
0 0 0 0 0 0 0 0 0 
0 0 0 0 0 0 0 0 0 
0 0 0 0 0 0 0 0 0 
0 0 0 0 0 0 0 0 0 
0 0 0 0 0 0 0 0 0 
0 0 0 0 0 0 0 0 0 
0 0 0 0 0 0 0 0 0 
0 0 0 0 0 0 0 0 0 
0 0 0 0 0 0 0 0 0 
0 0 0 0 0 0 0 0 0 
0 0 0 0 0 0 0 0 0 
0 0 0 0 0 0 0 0 0 
0 0 0 0 0 0 0 0 0 
0 0 0 0 0 0 0 0 0 
0 0 0 0 0 0 0 0 0 
0 0 0 0 0 0 0 0 0 
0 0 0 0 0 0 0 0 0 
0 0 0 0 0 0 0 0 0 
0 0 0 0 0 0 0 0 0 
0 0 0 0 0 0 0 0 0 
0 0 0 0 0 0 0 0 0 
0 0 0 0 0 0 0 0 0 
0 0 0 0 0 0 0 0 0 
0 0 0 0 0 0 0 0 0 
0 0 0 0 0 0 0 0 0 
0 0 0 0 0 0 0 0 0 
0 0 0 0 0 0 0 0 0 
0 0 0 0 0 0 0 0 0 
0 0 0 0 0 0 0 0 0 
0 0 0 0 0 0 0 0 0 
0 0 0 0 0 0 0 0 0 
0 0 0 0 0 0 0 0 0 
0 0 0 0 0 0 0 0 0 
0 0 0 0 0 0 0 0 0 
0 0 0 0 0 0 0 0 0 
0 0 0 0 0 0 0 0 0 
0 0 0 0 0 0 0 0 0 
0 0 0 0 0 0 0 0 0 
0 0 0 0 0 0 0 0 0 
0 0 0 0 0 0 0 0 0 
0 0 0 0 0 0 0 0 0 
0 0 0 0 0 0 0 0 0 
0 0 0 0 0 0 0 0 0 
0 0 0 0 0 0 0 0 0 
0 0 0 0 0 0 0 0 0 
0 0 0 0 0 0 
v 3 500 double
-0.0299875 0.0101625 -0.0520464 -0.0762661 0.00935823 0.00653573 1.3132e-05 7.61622e-07 -6.42079e-06 
0.00354661 0.000327179 -0.00765173 -0.000429174 0.00157915 -9.86176e-05 0.00587449 0.000100871 -0.01493 
0.004427 -0.000938414 -0.000795048 0.00237999 -5.308e-05 -0.00104719 0.0106337 0.010242 0.00785804 
-0.00216843 0.00919871 -0.00243686 -0.280582 -0.10526 -0.017451 0.00353006 -0.00476647 -0.00168188 
0.00129216 0.00106457 -0.00111083 0.00227029 -0.020229 0.0105316 0.00536424 0.00266277 -0.00378494 
-0.145243 -0.0403588 -0.00181769 0.000237945 -8.88247e-05 8.14974e-06 -7.52438e-05 5.62143e-05 0.000172773 
0.00316769 -0.000324835 -6.72269e-05 -0.00170792 -8.08613e-05 -0.0009414 -0.000160039 -2.0948e-05 -1.1568e-05 
0.0958854 -0.011375 0.0226426 -5.425e-05 6.58549e-05 0.000105462 0.00237311 2.85785e-05 0.00136555 
0.0689262 0.0148924 0.042945 -0.137029 0.0108132 -0.0403224 -0.00035635 -0.00041339 0.000195735 
0.0011967 -0.000766659 0.000286446 0.0358824 0.00840776 -0.000109971 0.00362662 -0.00482654 -0.00231473 
-0.00181107 9.3179e-06 -0.00091915 -0.0253446 -0.00360471 -0.000275112 0.0390948 0.0264769 -0.0240828 
-0.012732 0.000344284 -0.00239008 -0.0121584 0.0285933 0.00111612 0.00152669 -0.00189551 -0.00210815 
-0.0689417 -0.00309131 -0.00505017 6.44311e-05 -3.20631e-05 -2.33692e-08 0.00248893 -0.000835138 -0.0026534 
-0.000111736 0.000236049 -0.00066634 0.0183497 -0.0234269 -4.19754e-11 0.00917074 -0.00109507 -0.000534227 
0.00948329 -0.000247714 -0.00440062 -0.0744151 0.0132858 -0.0225498 0.00877978 -0.00195704 0.000243208 
-0.000542633 0.000689232 0.000320871 9.69401e-05 -4.11194e-05 -1.63377e-05 1.25069e-05 -1.74008e-06 -4.4868e-06 
-0.00518829 0.000133743 1.22976e-05 -0.021578 0.00601709 0.00793582 -0.0919856 -0.00336536 0.00156728 
-0.000540694 8.9168e-05 9.112e-05 0.00317176 3.36487e-05 -0.00289946 0.0105365 7.62596e-05 -0.00434426 
-1.55365e-05 -2.89731e-06 3.11801e-05 0.000102964 1.33721e-05 -5.91025e-06 0.0104488 -0.00178141 0.00102744 
0.00417854 0.000560071 -0.00238721 0.00192784 1.47055e-07 -0.00445653 0.00211038 -0.000997821 -0.00199636 
7.88061e-05 9.94978e-06 -5.45438e-05 0.00120237 -0.0188202 -0.000903617 0.000133647 0.000529173 -0.00160607 
0.00414235 0.000115414 -0.00119718 0.0109342 -0.0004126 -0.00193422 -0.0331668 -0.00568758 0.00495848 
-0.0418084 -0.042188 -0.0556903 -0.0180426 -0.0132566 -0.00900283 -0.0349534 -0.00655976 -0.00738071 
-9.91723e-06 3.25065e-05 9.31118e-06 -0.000199125 -0.000168228 0.000276709 0.000969552 0.000188366 2.72539e-05 
0.0124983 -0.001737 -0.00760575 3.64512e-05 2.91388e-05 1.04665e-05 0.00506582 0.000303206 -0.0012381 
0.00858517 -0.00220605 0.00034107 0.000323373 -4.3724e-06 -0.00345817 -0.0498937 0.0651139 0.0649963 
-0.0800546 0.00864413 -0.00146917 -0.000953356 0.000215172 -0.000257033 0.00373929 -0.000173758 -0.000578162 
-0.000290554 -0.00134987 0.00127514 -0.0119857 -0.0108552 -0.00847561 0.00482215 -1.87959e-05 -0.00177334 
-0.206377 0.0555836 -0.101803 0.00786283 -0.00123467 -0.00330857 0.000224697 0.000132703 4.80138e-05 
0.00329403 -0.00512858 -0.00741023 -0.0517385 -0.0377028 -0.0664588 -2.4423e-05 1.11208e-06 -9.6284e-08 
0.00302251 -0.00257312 -4.50088e-05 0.0412826 0.0120667 -0.0237602 0.00910447 -0.000511746 -0.00603257 
3.15802e-05 1.16033e-06 -4.55294e-06 8.57394e-06 -5.56169e-06 9.4727e-07 0.000762901 -0.000725668 -0.000364396 
0.00502857 0.00413803 0.000252329 0.0107695 -9.47694e-05 -0.00182222 -0.0124775 0.0083163 0.00591542 
0.00791174 -0.00026693 7.46061e-05 0.0128783 -0.00311433 -9.91555e-05 0.00178269 4.01586e-05 1.79594e-13 
8.21522e-05 9.60536e-05 7.07842e-05 -0.00263741 0.00686901 -0.0185281 0.0187539 -0.00831995 -4.77188e-05 
-0.0644592 -0.0280614 0.0465561 0.0113683 0.00047616 -0.00038413 0.00887429 0.000541235 -0.00262424 
0.0121122 0.000682795 -0.000340304 0.00343876 -0.000204677 -0.000599271 0.00980261 -0.00598522 -0.00129178 
0.00843644 -0.00254765 -0.00105798 4.70787e-05 -0.000192254 0.000140407 -0.01957 -0.0520384 -0.00295865 
0.00526189 -0.00562142 -0.00190451 -0.000573058 -0.00382553 -2.96421e-05 0.00712178 0.00323866 0.00368557 
-0.0386816 -0.00553332 -0.0301954 0.000232468 4.66021e-05 0.0021129 0.00660747 -0.00106231 -0.00253791 
0.00987277 0.000444678 0.000225123 0.00161361 0.00170824 0.0012561 -0.0162863 0.011178 0.00200186 
-0.00800969 -0.000945775 -0.0248761 -0.000395031 -0.00114796 -0.00149269 0.000650165 -1.84683e-05 -0.00294137 
0.000464821 0.000976334 1.95342e-12 0.00174247 -0.000594249 0.000398992 2.10688e-05 -0.000344698 -0.00028214 
0.000358966 -1.72102e-06 -0.000118584 0.0107691 0.00138071 -0.0083954 -1.92555e-05 -0.000360602 -8.1788e-06 
0.00218 0.00378805 0.000316481 0.00011462 2.69502e-05 -6.26411e-06 0.0196828 0.00382455 -8.74902e-06 
-0.0634037 0.000429402 0.0032681 0.00385122 -0.00146167 -0.000599341 0.0088488 -0.012812 -0.00353554 
-0.017281 0.00166325 -0.0283312 0.00206953 0.00865641 -0.000943995 -0.0292331 -0.0147946 0.00186609 
-0.00177055 -0.00713229 -0.00105994 0.00064095 -0.0018469 0.000587545 -0.0686381 0.0098303 0.00331951 
0.000948724 -0.000624142 0.000990369 -0.0665879 -0.0331946 0.0307431 0.00118415 -0.000462187 -0.000630667 
0.0081039 -0.00487033 2.48171e-05 -0.0177803 -0.0153089 0.000417755 0.00820565 -0.00377589 -0.000458491 
0.00990047 0.0010983 -7.56259e-05 -0.024115 0.000919222 -0.000519946 -2.24586e-06 -1.79707e-05 -3.84646e-05 
-0.00250096 -0.000319287 -0.000168059 -0.0168567 -0.0248799 -0.00227784 -0.00692084 -0.00833974 -0.000889486 
-0.00137705 -0.0033241 1.67697e-05 -0.000423295 -0.000241535 -0.00152463 -3.18586e-05 -1.6205e-06 -2.48817e-05 
-0.00145116 0.00100059 0.000546107 1.73533e-05 2.31302e-06 3.62719e-06 0.0118182 -0.000299176 -0.0029338 