# vtk DataFile Version 4.0
Generated by LIGGGHTS
ASCII
DATASET POLYDATA
POINTS 500 float
0.422519 -0.0449988 -1.18119 0.427633 -0.0299775 -1.18611 0.0050579 -0.0250037 -1.19501 
0.038932 -0.0202392 -1.17451 0.0168648 -0.0224107 -1.17249 0.0358139 -0.00499908 -1.17525 
0.0447632 -0.0364741 -1.18622 0.03211 -0.0450023 -1.17597 0.0890912 -0.0138455 -1.17769 
0.469234 -0.00500012 -1.18501 0.36971 -0.0436578 -1.18881 0.463646 -0.0131734 -1.19501 
0.0214283 -0.0142087 -1.16904 0.323327 -0.00541716 -1.195 0.0434404 -0.0113318 -1.17395 
0.39227 -0.0291888 -1.19496 0.0276809 -0.0450068 -1.18493 0.495001 -0.0450008 -1.18513 
0.0400308 -0.0361515 -1.19501 0.48226 -0.0137164 -1.18705 0.00538336 -0.0199094 -1.17185 
0.180771 -0.0306135 -1.18856 0.49342 -0.0450005 -1.195 0.0531335 -0.00499514 -1.18639 
0.171649 -0.0270987 -1.18633 0.389608 -0.0449951 -1.18274 0.485714 -0.0286963 -1.19501 
0.457537 -0.0450024 -1.195 0.318551 -0.0148513 -1.19488 0.094128 -0.0136409 -1.18633 
0.0341509 -0.0204844 -1.18781 0.442269 -0.0449672 -1.18635 0.413253 -0.0158426 -1.18542 
0.460615 -0.0203256 -1.18871 0.206119 -0.0336282 -1.19501 0.03322 -0.0372016 -1.18779 
0.404402 -0.00500255 -1.195 0.0148675 -0.0434563 -1.19501 0.0379413 -0.0374612 -1.17898 
0.495002 -0.0100001 -1.18635 0.223262 -0.0386453 -0.245002 0.112512 -0.0276832 -1.195 
0.0689016 -0.00894199 -1.17144 0.42172 -0.0377985 -1.18808 0.117504 -0.0363425 -1.195 
0.467063 -0.0350135 -1.195 0.00541226 -0.0369219 -1.17915 0.00499817 -0.0200013 -1.18636 
0.484982 -0.0450014 -1.18728 0.43073 -0.0202444 -1.18793 0.388597 -0.00519805 -1.195 
0.477898 -0.0449992 -1.195 0.0215465 -0.00499953 -1.18746 0.0599672 -0.0450005 -1.16916 
0.00992686 -0.0249709 -1.17922 0.014865 -0.0336643 -1.17927 0.0840652 -0.0223807 -1.195 
0.068172 -0.018914 -1.17153 0.01407 -0.00499927 -1.18083 0.0428647 -0.029327 -1.17589 
0.02662 -0.0351863 -1.19501 0.450147 -0.0354345 -1.19501 0.0148453 -0.0146999 -1.17853 
0.043744 -0.0207819 -1.185 0.076004 -0.0450012 -1.17825 0.430158 -0.0132013 -1.19501 
0.436823 -0.0311046 -1.17851 0.445613 -0.0267072 -1.18111 0.436984 -0.00500286 -1.195 
0.00499809 -0.0130854 -1.17914 0.485659 -0.0386945 -1.195 0.492016 -0.0199955 -1.18688 
0.0425086 -0.0117686 -1.18915 0.0136834 -0.0199456 -1.19501 0.0549525 -0.0450023 -1.17781 
0.0534429 -0.0202772 -1.18737 0.0194129 -0.00499917 -1.17238 0.420885 -0.00499611 -1.18314 
0.406761 -0.0310241 -1.195 0.49238 -0.0370213 -1.17971 0.0497008 -0.0365327 -1.17704 
0.0277031 -0.0281149 -1.18804 0.445561 -0.0196137 -1.18822 0.00710082 -0.00499809 -1.17366 
0.198718 -0.0355366 -1.16945 0.0600293 -0.0363859 -1.17769 0.021473 -0.0357882 -1.18647 
0.307824 -0.0345772 -1.18614 0.43433 -0.0450011 -1.18027 0.00499633 -0.00499744 -1.18501 
0.0500214 -0.0364267 -1.195 0.399474 -0.0234789 -1.1766 0.0597622 -0.00500097 -1.17048 
0.00499484 -0.0299992 -1.18635 0.00499529 -0.0450011 -1.19501 0.0117436 -0.0117447 -1.18838 
0.125948 -0.00500478 -1.18634 0.0840907 -0.0136519 -1.18635 0.191002 -0.0449999 -1.195 
0.0651506 -0.0450005 -1.19501 0.0736613 -0.0221373 -1.195 0.207528 -0.0449999 -0.245002 
0.0143877 -0.0269812 -1.18794 0.462318 -0.0120391 -1.18338 0.291574 -0.0147722 -1.19501 
0.368081 -0.00902793 -1.18529 0.107505 -0.0421184 -1.18684 0.135932 -0.0309681 -1.19501 
0.102498 -0.0450002 -1.195 0.0498631 -0.0285093 -1.18299 0.175932 -0.0136601 -1.195 
0.0600077 -0.0277323 -1.18625 0.495001 -0.00499786 -1.195 0.395546 -0.0124403 -1.19499 
0.101177 -0.0147878 -1.17933 0.0410411 -0.0197284 -1.19501 0.254263 -0.0100756 -1.18753 
0.444326 -0.00499785 -1.18821 0.462567 -0.0450065 -1.18633 0.05502 -0.036394 -1.18635 
0.273654 -0.01559 -1.19207 0.489027 -0.0260061 -1.17947 0.451668 -0.00499659 -1.195 
0.460451 -0.00499603 -1.19023 0.469405 -0.00499921 -1.195 0.033642 -0.00499421 -1.18606 
0.205193 -0.0249556 -0.245002 0.467648 -0.0364833 -1.18513 0.495002 -0.0149956 -1.195 
0.0177084 -0.0450059 -1.18556 0.0365231 -0.0132898 -1.18128 0.495002 -0.0249943 -1.19501 
0.058056 -0.00623907 -1.195 0.0247425 -0.0450035 -1.19497 0.050019 -0.0148092 -1.19501 
0.413986 -0.0232346 -1.195 0.0218911 -0.0316666 -1.17244 0.247901 -0.0222034 -1.18546 
0.453365 -0.00499748 -1.183 0.187628 -0.0271642 -1.195 0.437916 -0.0197758 -1.195 
0.46849 -0.0262539 -1.1904 0.485711 -0.00869751 -1.195 0.419438 -0.0173582 -1.17687 
0.472717 -0.0450009 -1.18645 0.414281 -0.0378872 -1.19502 0.0191557 -0.0182699 -1.18681 
0.0597155 -0.0188445 -1.19501 0.444855 -0.0123128 -1.19501 0.130943 -0.0165396 -1.18684 
0.0791056 -0.00499315 -1.18635 0.43726 -0.0449826 -1.195 0.00499846 -0.0450033 -1.18502 
0.476223 -0.0133817 -1.19501 0.23144 -0.0300446 -1.18701 0.452857 -0.0208487 -1.19501 
0.0348616 -0.0275947 -1.195 0.486515 -0.00499637 -1.18465 0.0149949 -0.00499887 -1.19501 
0.476896 -0.0234066 -1.195 0.00499728 -0.0350019 -1.19501 0.185908 -0.00876912 -1.18721 
0.0284894 -0.0341009 -1.17955 0.0275973 -0.0129258 -1.18671 0.0395403 -0.0450006 -1.18624 
0.454068 -0.0127882 -1.18922 0.119258 -0.0123511 -1.1877 0.398945 -0.0450125 -1.18919 
0.0380906 -0.00499146 -1.19501 0.0571358 -0.013424 -1.17574 0.23254 -0.0105009 -1.17448 
0.0215443 -0.0125546 -1.195 0.452399 -0.0449697 -1.18642 0.485688 -0.0336903 -1.18635 
0.15438 -0.0363307 -1.19498 0.0613188 -0.0222162 -1.17802 0.0890869 -0.0136692 -1.195 
0.482728 -0.0237002 -1.18688 0.0212254 -0.0260825 -1.1807 0.060016 -0.0362157 -1.195 
0.236468 -0.0338763 -1.19499 0.495001 -0.0351272 -1.195 0.477978 -0.00499761 -1.18986 
0.00499787 -0.0149944 -1.19501 0.0734218 -0.0132055 -1.18679 0.13836 -0.0266038 -1.18635 
0.0311479 -0.0244722 -1.17915 0.235749 -0.00690462 -1.18615 0.465613 -0.0208578 -1.18001 
0.195764 -0.0432332 -1.18639 0.0347389 -0.0449927 -1.19501 0.380664 -0.0449307 -1.195 
0.386586 -0.0143176 -1.19004 0.00499798 -0.00499768 -1.19501 0.117488 -0.0428455 -1.18662 
0.0149704 -0.0386447 -1.1706 0.28479 -0.00993244 -1.18638 0.467538 -0.045001 -1.195 
0.208156 -0.0153038 -0.245002 0.495002 -0.0300557 -1.18639 0.0962085 -0.0240485 -1.17952 
0.0492651 -0.0130375 -1.18189 0.447268 -0.0450042 -1.19501 0.458635 -0.0365155 -1.18984 
0.429359 -0.037086 -1.195 0.0841052 -0.00499939 -1.19501 0.485716 -0.0186968 -1.195 
0.47698 -0.0337298 -1.195 0.0116823 -0.0450016 -1.17758 0.0651168 -0.0363259 -1.1863 
0.160932 -0.00499797 -1.195 0.284576 -0.0299035 -1.1946 0.0551525 -0.045003 -1.19501 
0.0839 -0.0308135 -1.18641 0.423687 -0.0208255 -1.19501 0.234993 -0.0136494 -1.195 
0.407137 -0.0450007 -1.195 0.367445 -0.00512916 -1.195 0.0245616 -0.0170213 -1.17811 
0.0905833 -0.0380788 -1.18801 0.404808 -0.00502223 -1.18232 0.339312 -0.0308409 -1.16493 
0.439257 -0.0351671 -1.19501 0.0889913 -0.0310968 -1.19501 0.0711126 -0.0049973 -1.18036 
0.106195 -0.0236463 -1.17975 0.396236 -0.00498865 -1.1882 0.130944 -0.00499559 -1.195 
0.398642 -0.0369091 -1.19501 0.0444165 -0.0450028 -1.17752 0.0447385 -0.0449841 -1.195 
0.0517701 -0.00500207 -1.17649 0.0167425 -0.0336381 -1.19501 0.028094 -0.00499777 -1.19501 
0.0741073 -0.00503789 -1.19501 0.488854 -0.0139832 -1.17954 0.444702 -0.0352375 -1.18662 
0.0452504 -0.0282274 -1.19186 0.0233825 -0.0223839 -1.195 0.0723035 -0.0344231 -1.17961 
0.0266985 -0.00657609 -1.17904 0.174991 -0.0417286 -1.18663 0.414253 -0.0449905 -1.18799 
0.059696 -0.0124813 -1.1873 0.434729 -0.0370256 -1.18629 0.0783135 -0.0160833 -1.17856 
0.4598 -0.0280448 -1.19501 0.0112573 -0.0376769 -1.18769 0.0662451 -0.0137136 -1.17985 
0.412787 -0.0130455 -1.195 0.270354 -0.0240338 -1.18606 0.0751889 -0.0450005 -1.195 
0.0941021 -0.0049985 -1.195 0.420245 -0.00499708 -1.19502 0.405666 -0.0223929 -1.18506 
0.348149 -0.0147187 -1.192 0.479192 -0.0393796 -1.18131 0.104099 -0.00499753 -1.195 
0.384449 -0.0229707 -1.195 0.282656 -0.0335925 -1.18379 0.0990822 -0.0136671 -1.19501 
0.124268 -0.0355731 -1.18556 0.0601503 -0.0450018 -1.18635 0.0787583 -0.030855 -1.195 
0.0331025 -0.0136492 -1.19501 0.421566 -0.0305937 -1.195 0.23291 -0.0413654 -1.18571 
0.382056 -0.03479 -1.195 0.414396 -0.0378496 -1.18097 0.150935 -0.0223138 -1.19501 
0.4286 -0.00499589 -1.18951 0.102517 -0.0276781 -1.19501 0.0891138 -0.0222891 -1.18632 
0.144968 -0.0434943 -1.17791 0.421371 -0.0450006 -1.19501 0.22119 -0.0450048 -1.19501 
0.200886 -0.00499791 -1.195 0.00499937 -0.0298979 -1.17205 0.431315 -0.0272856 -1.19501 
0.206991 -0.0235944 -1.195 0.35974 -0.0414441 -1.19404 0.44654 -0.0121726 -1.18161 
0.112525 -0.0103705 -1.195 0.0651668 -0.0449967 -1.1777 0.180914 -0.00499588 -1.195 
0.264985 -0.00500571 -1.18604 0.374701 -0.0253907 -1.19468 0.422043 -0.0128897 -1.18916 
0.054819 -0.027653 -1.195 0.404177 -0.0213039 -1.195 0.0381927 -0.0290905 -1.18473 
0.0924043 -0.0449948 -1.195 0.444912 -0.0269201 -1.19501 0.049952 -0.0450079 -1.18647 
0.145931 -0.0309802 -1.195 0.266238 -0.0355938 -1.17532 0.0700102 -0.0360193 -1.19501 
0.155938 -0.00788325 -1.18684 0.469885 -0.0166463 -1.18801 0.0219289 -0.0412991 -1.17729 
0.0790893 -0.0137078 -1.19501 0.105864 -0.0122831 -1.1878 0.35779 -0.0224057 -1.18884 
0.399739 -0.0299482 -1.18793 0.0975895 -0.0450014 -1.1863 0.230012 -0.00499212 -1.195 
0.10752 -0.019023 -1.19501 0.340349 -0.0207495 -1.195 0.395461 -0.0211335 -1.18996 
0.324019 -0.0341638 -1.16683 0.436648 -0.0049962 -1.18161 0.231588 -0.0450002 -1.195 
0.266624 -0.0342718 -1.195 0.429376 -0.0119934 -1.18242 0.0768261 -0.0377127 -1.1879 
0.0940625 -0.0223426 -1.195 0.140923 -0.0396301 -1.195 0.311949 -0.032072 -1.19499 
0.429296 -0.0450038 -1.18891 0.0830144 -0.0379846 -1.1795 0.378278 -0.00505633 -1.19372 
0.0549688 -0.0286785 -1.17379 0.0433282 -0.00499527 -1.18185 0.066078 -0.00499548 -1.18906 
0.317695 -0.0304818 -1.18589 0.159378 -0.0276673 -1.195 0.420398 -0.0230532 -1.18581 
0.0788654 -0.0221746 -1.18647 0.37627 -0.0148711 -1.195 0.171281 -0.0170842 -1.18684 
0.190101 -0.0337432 -1.18678 0.185198 -0.0368568 -1.195 0.320374 -0.0258772 -1.195 
0.0480855 -0.00499897 -1.19501 0.0487381 -0.0212439 -1.17621 0.165934 -0.0136596 -1.195 
0.390563 -0.0370366 -1.18874 0.133973 -0.0371295 -1.18738 0.120948 -0.00499505 -1.195 
0.127491 -0.0450028 -1.18634 0.0666827 -0.0204849 -1.18804 0.0677298 -0.0128646 -1.195 
0.390806 -0.044876 -1.195 0.364365 -0.028846 -1.19294 0.107512 -0.0305706 -1.18684 
0.360233 -0.00525175 -0.701619 0.155937 -0.0136571 -1.195 0.2915 -0.044999 -1.19498 
0.395127 -0.013718 -1.18321 0.0916783 -0.0329955 -1.17942 0.16095 -0.0198504 -1.18894 
0.112589 -0.00499282 -1.18658 0.0611174 -0.0051087 -1.18038 0.210874 -0.00499723 -1.195 
0.275221 -0.0261474 -1.195 0.150937 -0.00499711 -1.195 0.281512 -0.0448949 -1.195 
0.36273 -0.0148544 -1.19378 0.0718018 -0.0290727 -1.18805 0.271904 -0.0448911 -1.19222 
0.0941016 -0.00512364 -1.17769 0.18584 -0.0150249 -1.195 0.437488 -0.0124101 -1.18826 
0.35479 -0.00565761 -1.19476 0.100682 -0.0363429 -1.18236 0.197006 -0.0237268 -1.19501 
0.206473 -0.0400705 -1.18737 0.200849 -0.0432493 -1.195 0.225428 -0.0165396 -1.195 
0.338715 -0.00804099 -1.195 0.215949 -0.0364936 -1.195 0.178392 -0.0233491 -1.195 
0.140938 -0.0223136 -1.195 0.095803 -0.0295584 -1.18785 0.301472 -0.0443726 -1.195 
0.0701617 -0.0450018 -1.18636 0.412532 -0.00513745 -1.18867 0.215434 -0.0165684 -1.195 
0.244973 -0.014016 -1.19468 0.13594 -0.00787705 -1.18684 0.11746 -0.0282986 -1.18634 
0.140079 -0.045005 -1.18661 0.13094 -0.02231 -1.195 0.241542 -0.0440489 -1.195 
0.0648167 -0.0274439 -1.19501 0.0991567 -0.00499921 -1.18632 0.190901 -0.00499859 -1.195 
0.175917 -0.00675591 -1.18652 0.254591 -0.0167192 -1.195 0.256885 -0.0365829 -1.195 
0.30933 -0.010458 -1.19308 0.149361 -0.0449922 -1.195 0.128352 -0.0264764 -1.18629 
0.122493 -0.0450033 -1.195 0.403961 -0.0131325 -1.18919 0.289225 -0.005052 -1.195 
0.112514 -0.0196111 -1.18636 0.438117 -0.0273751 -1.18769 0.140943 -0.0165418 -1.18684 
0.207927 -0.0350038 -0.245002 0.294755 -0.0441676 -1.18556 0.300207 -0.00513734 -1.195 
0.388737 -0.0277407 -1.1855 0.282638 -0.0215269 -1.18399 0.0807153 -0.0268258 -1.17781 
0.348657 -0.0273409 -1.195 0.00499874 -0.0422263 -1.17068 0.0836043 -0.0396009 -1.19501 
0.379726 -0.0448434 -1.18487 0.0542219 -0.0368827 -1.16813 0.145939 -0.0136544 -1.195 
0.140941 -0.00499585 -1.195 0.170923 -0.00499734 -1.195 0.245976 -0.0249788 -1.19499 
0.259992 -0.00498761 -1.19487 0.40642 -0.0313116 -1.18044 0.107506 -0.0363421 -1.195 
0.293512 -0.0246354 -1.19501 0.246918 -0.0353187 -1.195 0.330318 -0.0240788 -1.19408 
0.0835251 -0.0450094 -1.1866 0.279592 -0.00792432 -1.19498 0.242158 -0.0321959 -1.18674 
0.12251 -0.0276862 -1.195 0.26229 -0.0449986 -1.195 0.475919 -0.0308826 -1.18548 
0.121699 -0.0202851 -1.18212 0.23609 -0.0235803 -1.195 0.162577 -0.0315487 -1.18637 
0.169384 -0.0449946 -1.195 0.210696 -0.0450009 -1.195 0.269982 -0.00515165 -1.195 
0.328838 -0.0141816 -1.195 0.414214 -0.0305712 -1.18821 0.21599 -0.0432177 -1.18666 
0.159377 -0.0449906 -1.195 0.327728 -0.0342531 -1.1949 0.301416 -0.0165789 -1.19496 
0.387438 -0.00691427 -1.18195 0.221525 -0.031377 -1.18784 0.135943 -0.0136538 -1.195 
0.296926 -0.035389 -1.19127 0.282764 -0.0193839 -1.19477 0.240009 -0.00500051 -1.195 
0.20587 -0.0136614 -1.195 0.20134 -0.0186099 -1.18758 0.097509 -0.036334 -1.195 
0.220444 -0.00786999 -1.195 0.150943 -0.0165465 -1.18684 0.127502 -0.0363433 -1.195 
0.438267 -0.0196194 -1.18138 0.251487 -0.0449996 -1.195 0.195901 -0.00797923 -1.18687 
0.132493 -0.0450028 -1.195 0.390278 -0.0185714 -1.16334 0.255829 -0.026642 -1.19499 
0.147708 -0.0382959 -1.18775 0.378959 -0.0228528 -1.18312 0.265464 -0.0239625 -1.19489 
0.398381 -0.0380045 -1.18208 0.152617 -0.028976 -1.18774 0.179394 -0.0449946 -1.195 
0.0840996 -0.00508282 -1.17769 0.195987 -0.0344872 -1.195 0.387538 -0.0313014 -1.17558 
0.164504 -0.042086 -1.18678 0.21654 -0.0265101 -1.195 0.406767 -0.0380223 -1.18785 
0.174892 -0.0355704 -1.195 0.339306 -0.00546568 -1.18204 0.221192 -0.0205269 -1.18524 
0.19054 -0.0205113 -1.1881 0.453266 -0.0354794 -1.18147 0.164884 -0.0360399 -1.195 
0.185202 -0.0442321 -1.18687 0.226379 -0.0364646 -1.195 0.0891031 -0.00499833 -1.18635 
0.296074 -0.0166607 -1.18625 0.30293 -0.0278374 -1.19434 0.276426 -0.0362518 -1.195 
0.45232 -0.0282939 -1.18836 0.0715228 -0.0234277 -1.1798 0.210664 -0.0291136 -1.18733 
0.250003 -0.00499644 -1.19501 0.310426 -0.0212802 -1.19499 0.145939 -0.00787984 -1.18684 
0.100854 -0.0209323 -1.1878 0.125947 -0.0136525 -1.19501 0.475749 -0.0201059 -1.18069 
0.226532 -0.026474 -1.19498 0.461171 -0.0289918 -1.18376 0.112496 -0.0450036 -1.19501 
0.453323 -0.0195799 -1.18192 0.168395 -0.0233503 -1.195 0.214456 -0.0103071 -1.18728 
0.117518 -0.0190283 -1.195 0.264224 -0.0140377 -1.195 0.311568 -0.0434655 -1.195 
0.195836 -0.0137899 -1.195 0.321715 -0.0428731 -1.19501 
VERTICES 500 1000
1 0 
1 1 
1 2 
1 3 
1 4 
1 5 
1 6 
1 7 
1 8 
1 9 
1 10 
1 11 
1 12 
1 13 
1 14 
1 15 
1 16 
1 17 
1 18 
1 19 
1 20 
1 21 
1 22 
1 23 
1 24 
1 25 
1 26 
1 27 
1 28 
1 29 
1 30 
1 31 
1 32 
1 33 
1 34 
1 35 
1 36 
1 37 
1 38 
1 39 
1 40 
1 41 
1 42 
1 43 
1 44 
1 45 
1 46 
1 47 
1 48 
1 49 
1 50 
1 51 
1 52 
1 53 
1 54 
1 55 
1 56 
1 57 
1 58 
1 59 
1 60 
1 61 
1 62 
1 63 
1 64 
1 65 
1 66 
1 67 
1 68 
1 69 
1 70 
1 71 
1 72 
1 73 
1 74 
1 75 
1 76 
1 77 
1 78 
1 79 
1 80 
1 81 
1 82 
1 83 
1 84 
1 85 
1 86 
1 87 
1 88 
1 89 
1 90 
1 91 
1 92 
1 93 
1 94 
1 95 
1 96 
1 97 
1 98 
1 99 
1 100 
1 101 
1 102 
1 103 
1 104 
1 105 
1 106 
1 107 
1 108 
1 109 
1 110 
1 111 
1 112 
1 113 
1 114 
1 115 
1 116 
1 117 
1 118 
1 119 
1 120 
1 121 
1 122 
1 123 
1 124 
1 125 
1 126 
1 127 
1 128 
1 129 
1 130 
1 131 
1 132 
1 133 
1 134 
1 135 
1 136 
1 137 
1 138 
1 139 
1 140 
1 141 
1 142 
1 143 
1 144 
1 145 
1 146 
1 147 
1 148 
1 149 
1 150 
1 151 
1 152 
1 153 
1 154 
1 155 
1 156 
1 157 
1 158 
1 159 
1 160 
1 161 
1 162 
1 163 
1 164 
1 165 
1 166 
1 167 
1 168 
1 169 
1 170 
1 171 
1 172 
1 173 
1 174 
1 175 
1 176 
1 177 
1 178 
1 179 
1 180 
1 181 
1 182 
1 183 
1 184 
1 185 
1 186 
1 187 
1 188 
1 189 
1 190 
1 191 
1 192 
1 193 
1 194 
1 195 
1 196 
1 197 
1 198 
1 199 
1 200 
1 201 
1 202 
1 203 
1 204 
1 205 
1 206 
1 207 
1 208 
1 209 
1 210 
1 211 
1 212 
1 213 
1 214 
1 215 
1 216 
1 217 
1 218 
1 219 
1 220 
1 221 
1 222 
1 223 
1 224 
1 225 
1 226 
1 227 
1 228 
1 229 
1 230 
1 231 
1 232 
1 233 
1 234 
1 235 
1 236 
1 237 
1 238 
1 239 
1 240 
1 241 
1 242 
1 243 
1 244 
1 245 
1 246 
1 247 
1 248 
1 249 
1 250 
1 251 
1 252 
1 253 
1 254 
1 255 
1 256 
1 257 
1 258 
1 259 
1 260 
1 261 
1 262 
1 263 
1 264 
1 265 
1 266 
1 267 
1 268 
1 269 
1 270 
1 271 
1 272 
1 273 
1 274 
1 275 
1 276 
1 277 
1 278 
1 279 
1 280 
1 281 
1 282 
1 283 
1 284 
1 285 
1 286 
1 287 
1 288 
1 289 
1 290 
1 291 
1 292 
1 293 
1 294 
1 295 
1 296 
1 297 
1 298 
1 299 
1 300 
1 301 
1 302 
1 303 
1 304 
1 305 
1 306 
1 307 
1 308 
1 309 
1 310 
1 311 
1 312 
1 313 
1 314 
1 315 
1 316 
1 317 
1 318 
1 319 
1 320 
1 321 
1 322 
1 323 
1 324 
1 325 
1 326 
1 327 
1 328 
1 329 
1 330 
1 331 
1 332 
1 333 
1 334 
1 335 
1 336 
1 337 
1 338 
1 339 
1 340 
1 341 
1 342 
1 343 
1 344 
1 345 
1 346 
1 347 
1 348 
1 349 
1 350 
1 351 
1 352 
1 353 
1 354 
1 355 
1 356 
1 357 
1 358 
1 359 
1 360 
1 361 
1 362 
1 363 
1 364 
1 365 
1 366 
1 367 
1 368 
1 369 
1 370 
1 371 
1 372 
1 373 
1 374 
1 375 
1 376 
1 377 
1 378 
1 379 
1 380 
1 381 
1 382 
1 383 
1 384 
1 385 
1 386 
1 387 
1 388 
1 389 
1 390 
1 391 
1 392 
1 393 
1 394 
1 395 
1 396 
1 397 
1 398 
1 399 
1 400 
1 401 
1 402 
1 403 
1 404 
1 405 
1 406 
1 407 
1 408 
1 409 
1 410 
1 411 
1 412 
1 413 
1 414 
1 415 
1 416 
1 417 
1 418 
1 419 
1 420 
1 421 
1 422 
1 423 
1 424 
1 425 
1 426 
1 427 
1 428 
1 429 
1 430 
1 431 
1 432 
1 433 
1 434 
1 435 
1 436 
1 437 
1 438 
1 439 
1 440 
1 441 
1 442 
1 443 
1 444 
1 445 
1 446 
1 447 
1 448 
1 449 
1 450 
1 451 
1 452 
1 453 
1 454 
1 455 
1 456 
1 457 
1 458 
1 459 
1 460 
1 461 
1 462 
1 463 
1 464 
1 465 
1 466 
1 467 
1 468 
1 469 
1 470 
1 471 
1 472 
1 473 
1 474 
1 475 
1 476 
1 477 
1 478 
1 479 
1 480 
1 481 
1 482 
1 483 
1 484 
1 485 
1 486 
1 487 
1 488 
1 489 
1 490 
1 491 
1 492 
1 493 
1 494 
1 495 
1 496 
1 497 
1 498 
1 499 

POINT_DATA 500
FIELD FieldData 7
id 1 500 int
1 2 3 4 5 6 7 8 9 
10 11 12 13 14 15 16 17 18 
19 20 21 22 23 24 25 26 27 
28 29 30 31 32 33 34 35 36 
37 38 39 40 41 42 43 44 45 
46 47 48 49 50 51 52 53 54 
55 56 57 58 59 60 61 62 63 
64 65 66 67 68 69 70 71 72 
73 74 75 76 77 78 79 80 81 
82 83 84 85 86 87 88 89 90 
91 92 93 94 95 96 97 98 99 
100 101 102 103 104 105 106 107 108 
109 110 111 112 113 114 115 116 117 
118 119 120 121 122 123 124 125 126 
127 128 129 130 131 132 133 134 135 
136 137 138 139 140 141 142 143 144 
145 146 147 148 149 150 151 152 153 
154 155 156 157 158 159 160 161 162 
163 164 165 166 167 168 169 170 171 
172 173 174 175 176 177 178 179 180 
181 182 183 184 185 186 187 188 189 
190 191 192 193 194 195 196 197 198 
199 200 201 202 203 204 205 206 207 
208 209 210 211 212 213 214 215 216 
217 218 219 220 221 222 223 224 225 
226 227 228 229 230 231 232 233 234 
235 236 237 238 239 240 241 242 243 
244 245 246 247 248 249 250 251 252 
253 254 255 256 257 258 259 260 261 
262 263 264 265 266 267 268 269 270 
271 272 273 274 275 276 277 278 279 
280 281 282 283 284 285 286 287 288 
289 290 291 292 293 294 295 296 297 
298 299 300 301 302 303 304 305 306 
307 308 309 310 311 312 313 314 315 
316 317 318 319 320 321 322 323 324 
325 326 327 328 329 330 331 332 333 
334 335 336 337 338 339 340 341 342 
343 344 345 346 347 348 349 350 351 
352 353 354 355 356 357 358 359 360 
361 362 363 364 365 366 367 368 369 
370 371 372 373 374 375 376 377 378 
379 380 381 382 383 384 385 386 387 
388 389 390 391 392 393 394 395 396 
397 398 399 400 401 402 403 404 405 
406 407 408 409 410 411 412 413 414 
415 416 417 418 419 420 421 422 423 
424 425 426 427 428 429 430 431 432 
433 434 435 436 437 438 439 440 441 
442 443 444 445 446 447 448 449 450 
451 452 453 454 455 456 457 458 459 
460 461 462 463 464 465 466 467 468 
469 470 471 472 473 474 475 476 477 
478 479 480 481 482 483 484 485 486 
487 488 489 490 491 492 493 494 495 
496 497 498 499 500 
type 1 500 int
1 1 1 1 1 1 1 1 1 
1 1 1 1 1 1 1 1 1 
1 1 1 1 1 1 1 1 1 
1 1 1 1 1 1 1 1 1 
1 1 1 1 1 1 1 1 1 
1 1 1 1 1 1 1 1 1 
1 1 1 1 1 1 1 1 1 
1 1 1 1 1 1 1 1 1 
1 1 1 1 1 1 1 1 1 
1 1 1 1 1 1 1 1 1 
1 1 1 1 1 1 1 1 1 
1 1 1 1 1 1 1 1 1 
1 1 1 1 1 1 1 1 1 
1 1 1 1 1 1 1 1 1 
1 1 1 1 1 1 1 1 1 
1 1 1 1 1 1 1 1 1 
1 1 1 1 1 1 1 1 1 
1 1 1 1 1 1 1 1 1 
1 1 1 1 1 1 1 1 1 
1 1 1 1 1 1 1 1 1 
1 1 1 1 1 1 1 1 1 
1 1 1 1 1 1 1 1 1 
1 1 1 1 1 1 1 1 1 
1 1 1 1 1 1 1 1 1 
1 1 1 1 1 1 1 1 1 
1 1 1 1 1 1 1 1 1 
1 1 1 1 1 1 1 1 1 
1 1 1 1 1 1 1 1 1 
1 1 1 1 1 1 1 1 1 
1 1 1 1 1 1 1 1 1 
1 1 1 1 1 1 1 1 1 
1 1 1 1 1 1 1 1 1 
1 1 1 1 1 1 1 1 1 
1 1 1 1 1 1 1 1 1 
1 1 1 1 1 1 1 1 1 
1 1 1 1 1 1 1 1 1 
1 1 1 1 1 1 1 1 1 
1 1 1 1 1 1 1 1 1 
1 1 1 1 1 1 1 1 1 
1 1 1 1 1 1 1 1 1 
1 1 1 1 1 1 1 1 1 
1 1 1 1 1 1 1 1 1 
1 1 1 1 1 1 1 1 1 
1 1 1 1 1 1 1 1 1 
1 1 1 1 1 1 1 1 1 
1 1 1 1 1 1 1 1 1 
1 1 1 1 1 1 1 1 1 
1 1 1 1 1 1 1 1 1 
1 1 1 1 1 1 1 1 1 
1 1 1 1 1 1 1 1 1 
1 1 1 1 1 1 1 1 1 
1 1 1 1 1 1 1 1 1 
1 1 1 1 1 1 1 1 1 
1 1 1 1 1 1 1 1 1 
1 1 1 1 1 1 1 1 1 
1 1 1 1 1 
i 3 500 int
0 0 0 0 0 0 0 0 0 
0 0 0 0 0 0 0 0 0 
0 0 0 0 0 0 0 0 0 
0 0 0 0 0 0 0 0 0 
0 0 0 0 0 0 0 0 0 
0 0 0 0 0 0 0 0 0 
0 0 0 0 0 0 0 0 0 
0 0 0 0 0 0 0 0 0 
0 0 0 0 0 0 0 0 0 
0 0 0 0 0 0 0 0 0 
0 0 0 0 0 0 0 0 0 
0 0 0 0 0 0 0 0 0 
0 0 0 0 0 0 0 0 0 
0 0 0 0 0 0 0 0 0 
0 0 0 0 0 0 0 0 0 
0 0 0 0 0 0 0 0 0 
0 0 0 0 0 0 0 0 0 
0 0 0 0 0 0 0 0 0 
0 0 0 0 0 0 0 0 0 
0 0 0 0 0 0 0 0 0 
0 0 0 0 0 0 0 0 0 
0 0 0 0 0 0 0 0 0 
0 0 0 0 0 0 0 0 0 
0 0 0 0 0 0 0 0 0 
0 0 0 0 0 0 0 0 0 
0 0 0 0 0 0 0 0 0 
0 0 0 0 0 0 0 0 0 
0 0 0 0 0 0 0 0 0 
0 0 0 0 0 0 0 0 0 
0 0 0 0 0 0 0 0 0 
0 0 0 0 0 0 0 0 0 
0 0 0 0 0 0 0 0 0 
0 0 0 0 0 0 0 0 0 
0 0 0 0 0 0 0 0 0 
0 0 0 0 0 0 0 0 0 
0 0 0 0 0 0 0 0 0 
0 0 0 0 0 0 0 0 0 
0 0 0 0 0 0 0 0 0 
0 0 0 0 0 0 0 0 0 
0 0 0 0 0 0 0 0 0 
0 0 0 0 0 0 0 0 0 
0 0 0 0 0 0 0 0 0 
0 0 0 0 0 0 0 0 0 
0 0 0 0 0 0 0 0 0 
0 0 0 0 0 0 0 0 0 
0 0 0 0 0 0 0 0 0 
0 0 0 0 0 0 0 0 0 
0 0 0 0 0 0 0 0 0 
0 0 0 0 0 0 0 0 0 
0 0 0 0 0 0 0 0 0 
0 0 0 0 0 0 0 0 0 
0 0 0 0 0 0 0 0 0 
0 0 0 0 0 0 0 0 0 
0 0 0 0 0 0 0 0 0 
0 0 0 0 0 0 0 0 0 
0 0 0 0 0 0 0 0 0 
0 0 0 0 0 0 0 0 0 
0 0 0 0 0 0 0 0 0 
0 0 0 0 0 0 0 0 0 
0 0 0 0 0 0 0 0 0 
0 0 0 0 0 0 0 0 0 
0 0 0 0 0 0 0 0 0 
0 0 0 0 0 0 0 0 0 
0 0 0 0 0 0 0 0 0 
0 0 0 0 0 0 0 0 0 
0 0 0 0 0 0 0 0 0 
0 0 0 0 0 0 0 0 0 
0 0 0 0 0 0 0 0 0 
0 0 0 0 0 0 0 0 0 
0 0 0 0 0 0 0 0 0 
0 0 0 0 0 0 0 0 0 
0 0 0 0 0 0 0 0 0 
0 0 0 0 0 0 0 0 0 
0 0 0 0 0 0 0 0 0 
0 0 0 0 0 0 0 0 0 
0 0 0 0 0 0 0 0 0 
0 0 0 0 0 0 0 0 0 
0 0 0 0 0 0 0 0 0 
0 0 0 0 0 0 0 0 0 
0 0 0 0 0 0 0 0 0 
0 0 0 0 0 0 0 0 0 
0 0 0 0 0 0 0 0 0 
0 0 0 0 0 0 0 0 0 
0 0 0 0 0 0 0 0 0 
0 0 0 0 0 0 0 0 0 
0 0 0 0 0 0 0 0 0 
0 0 0 0 0 0 0 0 0 
0 0 0 0 0 0 0 0 0 
0 0 0 0 0 0 0 0 0 
0 0 0 0 0 0 0 0 0 
0 0 0 0 0 0 0 0 0 
0 0 0 0 0 0 0 0 0 
0 0 0 0 0 0 0 0 0 
0 0 0 0 0 0 0 0 0 
0 0 0 0 0 0 0 0 0 
0 0 0 0 0 0 0 0 0 
0 0 0 0 0 0 0 0 0 
0 0 0 0 0 0 0 0 0 
0 0 0 0 0 0 0 0 0 
0 0 0 0 0 0 0 0 0 
0 0 0 0 0 0 0 0 0 
0 0 0 0 0 0 0 0 0 
0 0 0 0 0 0 0 0 0 
0 0 0 0 0 0 0 0 0 
0 0 0 0 0 0 0 0 0 
0 0 0 0 0 0 0 0 0 
0 0 0 0 0 0 0 0 0 
0 0 0 0 0 0 0 0 0 
0 0 0 0 0 0 0 0 0 
0 0 0 0 0 0 0 0 0 
0 0 0 0 0 0 0 0 0 
0 0 0 0 0 0 0 0 0 
0 0 0 0 0 0 0 0 0 
0 0 0 0 0 0 0 0 0 
0 0 0 0 0 0 0 0 0 
0 0 0 0 0 0 0 0 0 
0 0 0 0 0 0 0 0 0 
0 0 0 0 0 0 0 0 0 
0 0 0 0 0 0 0 0 0 
0 0 0 0 0 0 0 0 0 
0 0 0 0 0 0 0 0 0 
0 0 0 0 0 0 0 0 0 
0 0 0 0 0 0 0 0 0 
0 0 0 0 0 0 0 0 0 
0 0 0 0 0 0 0 0 0 
0 0 0 0 0 0 0 0 0 
0 0 0 0 0 0 0 0 0 
0 0 0 0 0 0 0 0 0 
0 0 0 0 0 0 0 0 0 
0 0 0 0 0 0 0 0 0 
0 0 0 0 0 0 0 0 0 
0 0 0 0 0 0 0 0 0 
0 0 0 0 0 0 0 0 0 
0 0 0 0 0 0 0 0 0 
0 0 0 0 0 0 0 0 0 
0 0 0 0 0 0 0 0 0 
0 0 0 0 0 0 0 0 0 
0 0 0 0 0 0 0 0 0 
0 0 0 0 0 0 0 0 0 
0 0 0 0 0 0 0 0 0 
0 0 0 0 0 0 0 0 0 
0 0 0 0 0 0 0 0 0 
0 0 0 0 0 0 0 0 0 
0 0 0 0 0 0 0 0 0 
0 0 0 0 0 0 0 0 0 
0 0 0 0 0 0 0 0 0 
0 0 0 0 0 0 0 0 0 
0 0 0 0 0 0 0 0 0 
0 0 0 0 0 0 0 0 0 
0 0 0 0 0 0 0 0 0 
0 0 0 0 0 0 0 0 0 
0 0 0 0 0 0 0 0 0 
0 0 0 0 0 0 0 0 0 
0 0 0 0 0 0 0 0 0 
0 0 0 0 0 0 0 0 0 
0 0 0 0 0 0 0 0 0 
0 0 0 0 0 0 0 0 0 
0 0 0 0 0 0 0 0 0 
0 0 0 0 0 0 0 0 0 
0 0 0 0 0 0 0 0 0 
0 0 0 0 0 0 0 0 0 
0 0 0 0 0 0 0 0 0 
0 0 0 0 0 0 0 0 0 
0 0 0 0 0 0 0 0 0 
0 0 0 0 0 0 0 0 0 
0 0 0 0 0 0 0 0 0 
0 0 0 0 0 0 
v 3 500 double
-0.0143939 9.0295e-05 -0.00778334 -0.039311 -0.00445121 -0.0118811 -1.72061e-05 -0.000211216 0.000129398 
-0.00513512 -0.00471957 -0.00307219 -0.000146412 -0.000406518 -0.00124179 0.00353359 -0.0003471 -0.00745647 
0.00665488 0.00245654 0.000839265 0.00121156 -0.00102283 -0.0101476 0.0104721 -0.00577396 0.00028327 
0.00161988 0.000897025 0.00100033 -0.331744 -0.242136 0.147764 -0.00541132 -0.0060859 0.000331362 
-0.00186544 -0.000186547 0.000578704 -0.271275 0.00720153 -3.63611e-07 -0.00139898 -0.00702813 -0.00848983 
-0.0695271 0.0111669 -0.0450121 0.00107118 -0.000338104 -0.0106776 -0.000209625 -4.36871e-05 -0.000119907 
0.00863429 0.00277419 0.000702712 -0.00992341 -0.00121406 -0.00291666 0.00812698 -0.00169141 -0.00222127 
0.00929796 0.00245045 0.0124529 -0.00165786 -0.000602471 -7.83915e-06 0.00492643 0.000843626 -0.00380939 
-0.00611057 -0.0472452 -0.00798001 -0.0366107 0.0190251 -0.00847611 -0.000162719 -1.122e-05 8.56789e-05 
-0.00570603 -3.63901e-05 -0.000481821 -0.216789 0.0193207 0.0386798 0.00775673 -0.00182294 -0.000955933 
0.00252706 -0.000571292 0.00135872 -0.0141055 -0.000100313 -0.00141108 -0.0350293 0.0065661 -0.010461 
-0.00783581 -0.00253131 0.00214017 -0.0233102 0.008921 0.00180714 0.003813 -0.000316083 -0.00365912 
-0.0335057 -0.00432564 0.000408238 -0.000197192 -0.000297993 -2.29222e-05 0.00339687 0.000167049 -0.00307321 
0.000253352 -0.000455227 -6.03849e-05 0.0183497 -0.0234269 -4.20117e-11 0.0109206 0.00311993 -0.000358548 
0.00438772 0.000295666 -0.00532591 -0.0464657 -0.00231235 -0.00137607 0.0109395 0.000766121 -0.000101269 
-0.00369879 -0.000398392 0.000345682 0.00259485 -0.000689529 -5.24905e-05 8.43906e-05 -0.000223285 0.000236784 
0.00792307 5.3594e-05 0.000770627 -0.0323403 -0.00576334 -0.00336491 -0.0664418 -0.00664903 0.00083254 
-0.000581826 -5.72511e-05 7.28108e-05 0.000335614 -0.000134792 7.94471e-05 0.00641489 0.000380658 -0.00100047 
-0.000233232 -0.0026295 -0.000521204 0.00268387 -0.00134558 -0.000283646 0.0107253 0.000103676 4.43426e-05 
0.00872121 0.00054143 -0.00161351 0.000380734 6.20267e-06 0.000193145 0.0029968 -0.00122488 0.00134904 
0.00117133 3.78464e-05 -0.000566308 -0.00108747 -0.00462682 -0.00014019 -0.000168691 -0.00019046 -0.000959695 
0.00533231 -0.00199287 -0.00820403 0.0113014 -7.87726e-05 -0.00423163 -0.019674 -0.00574535 0.000654056 
-0.0444442 0.00240935 -0.00420545 -0.00251136 -0.00924584 0.000869708 -0.0273817 7.51813e-05 -0.000856884 
5.04829e-05 4.62581e-05 0.000152414 -0.00137535 3.49637e-05 -0.000290836 -0.00143294 0.000568859 -6.50845e-05 
0.00473296 4.56821e-05 -0.00456301 -8.76773e-05 5.66173e-05 0.000124238 0.0057909 -9.064e-05 -0.000906803 
0.00776144 -0.000788601 -0.0014795 2.96791e-05 4.37035e-05 0.000443455 -0.0265837 -9.45592e-05 -0.0057993 
-0.0584411 -0.0352538 0.00378669 -0.00944771 -0.00151546 -0.00217226 -0.00647307 -0.00735498 -0.00806964 
0.000758267 0.000637016 -0.000859689 -0.00872434 -0.00779923 0.00177489 0.00012452 5.74381e-05 8.15587e-05 
-0.725183 0.0495746 -1.00803 0.00572842 -0.00325724 0.000434234 0.00192018 -0.0010573 -0.000672991 
-0.278351 -0.0205812 -0.0298058 -0.0158332 0.000487219 -0.00534896 0.000105332 4.84972e-05 8.23228e-05 
0.00729261 -0.000170252 0.000119355 0.166118 0.0126084 0.187418 0.00436758 0.000142382 -0.00481635 
-4.07997e-05 -0.000351968 0.000305445 -0.000111568 -0.000150701 -0.000162429 0.000888873 -0.000685311 -0.000400561 
0.0114497 -0.00118946 -0.000183266 0.00884367 0.000827486 0.000194203 -0.00896625 0.00159139 0.00552564 
0.00655868 0.000391242 -0.000282305 0.00679089 -0.00128024 -0.000151781 0.00177963 -5.70718e-05 4.84287e-10 
-0.00022248 -0.00066985 -0.000588015 -0.00493047 0.00358217 -0.00240382 -0.0931758 0.0765033 -0.0287783 
0.0452473 0.0789085 0.00404979 0.00949289 0.00119601 0.00040912 0.00808822 -0.00104728 0.000916526 
0.00733856 -0.000146265 6.30552e-05 0.00562731 0.00167754 0.00325423 0.0118515 0.00354703 0.00186082 
0.00742962 -0.000432523 -0.000998406 5.77909e-05 -9.1472e-05 2.68986e-05 -0.0438594 -0.0144485 -0.0117779 
0.0117518 -0.0286437 -0.00897959 0.00201624 -0.00127434 -7.28997e-05 0.0216092 0.019121 -0.00213702 
-0.0179054 0.00127188 -0.0126511 0.000637498 -0.000545372 0.00288729 0.00536262 0.00118961 0.000692141 
0.0359358 -0.0135718 -0.0598151 0.00084005 -0.00257886 -0.00155145 -0.00622753 -0.000275162 0.000200926 
-0.00199557 -1.82336e-05 -0.00701955 -0.0150272 -0.000133293 7.92323e-05 0.000464368 -0.000276789 0.000556668 
0.000464821 0.000976336 1.90946e-12 -0.00140464 0.000673371 0.00101264 1.99661e-05 -0.000256635 -7.10567e-05 
0.000541325 -0.000117249 -0.000432942 0.00808306 0.000353108 -0.00195702 -6.85738e-05 -0.000209173 0.000267503 
0.00629579 -0.0131641 -0.000922533 1.41173e-05 2.99283e-05 -0.040613 0.0105215 0.00305776 0.000375435 
-0.0194365 -0.0157994 0.00892006 0.00548041 0.00160585 -0.000996092 0.0615858 0.0975888 -0.0534439 
0.00115923 3.03701e-05 -0.0027632 0.00590532 0.00233284 -0.00244162 -0.00640196 -0.00850718 -0.00099563 
-0.00494084 0.00394656 -0.0093264 0.000211047 0.000130809 -0.000161052 0.246748 -0.0635653 -0.0983911 
-0.00393336 -0.000368441 -0.00203939 -0.0133398 -0.00447944 0.00173733 0.000737231 -0.000967189 -0.000180358 
0.011754 0.000981926 0.000676586 0.00241987 -0.00817169 -0.000827556 0.00821929 -0.00344555 0.000494895 
0.00998468 -0.000112842 2.1776e-05 -0.0173932 0.000812857 2.90723e-05 4.17202e-05 -8.62286e-05 -0.000361467 
-0.013314 -0.00578613 -0.000593397 0.0125329 -0.011133 0.0337508 -0.00774433 -0.00304933 0.000157763 
-0.00103579 0.0031972 -0.000354539 -0.00303884 0.000139944 -0.0200941 -0.000135748 0.000211086 2.0329e-05 