# vtk DataFile Version 4.0
Generated by LIGGGHTS
ASCII
DATASET POLYDATA
POINTS 500 float
0.411331 -0.0449677 -1.18632 0.410979 -0.0287273 -1.18788 0.00505539 -0.0250061 -1.19501 
0.0395572 -0.0205851 -1.17571 0.0169043 -0.022214 -1.17263 0.0363971 -0.00499813 -1.17657 
0.0458157 -0.0366118 -1.18625 0.032269 -0.0450009 -1.17656 0.09092 -0.0165389 -1.17818 
0.469244 -0.00500317 -1.18502 0.340871 -0.045001 -1.195 0.463723 -0.0136878 -1.195 
0.0217328 -0.0141016 -1.16933 0.320962 -0.00499904 -1.195 0.0440081 -0.0111632 -1.17456 
0.36772 -0.0275999 -1.195 0.0277289 -0.0450025 -1.18546 0.495001 -0.0450011 -1.18513 
0.0410357 -0.0360632 -1.19501 0.481024 -0.0139235 -1.1876 0.00556662 -0.0198984 -1.17185 
0.182297 -0.0300196 -1.18793 0.493435 -0.0450013 -1.195 0.0538564 -0.00499522 -1.18635 
0.169047 -0.029939 -1.18763 0.360546 -0.0449833 -1.18536 0.485719 -0.0287165 -1.19501 
0.456107 -0.0449141 -1.195 0.314064 -0.0148835 -1.195 0.0959227 -0.0136548 -1.18635 
0.0343041 -0.0206 -1.18782 0.434694 -0.0443255 -1.18705 0.408009 -0.0131845 -1.18788 
0.457752 -0.0197674 -1.18977 0.205507 -0.0339273 -1.195 0.0337151 -0.0375463 -1.18837 
0.3863 -0.0049891 -1.195 0.0148717 -0.0434692 -1.19501 0.0384541 -0.0377494 -1.17958 
0.495004 -0.0100054 -1.18635 0.228764 -0.0447172 -0.245002 0.114353 -0.0276797 -1.195 
0.06944 -0.00848165 -1.17227 0.405338 -0.0372026 -1.18822 0.119348 -0.0363392 -1.195 
0.465958 -0.0343678 -1.195 0.00540818 -0.0369227 -1.17915 0.00499867 -0.020004 -1.18636 
0.484322 -0.0450018 -1.18735 0.42587 -0.0212337 -1.1878 0.375719 -0.00501476 -1.195 
0.477884 -0.045 -1.195 0.0219231 -0.00499673 -1.18781 0.0612696 -0.045001 -1.16951 
0.00995036 -0.0249947 -1.17925 0.0148722 -0.0336968 -1.17926 0.085917 -0.0223981 -1.19501 
0.0694441 -0.0184772 -1.17203 0.014294 -0.00499899 -1.18135 0.0436427 -0.0296288 -1.17692 
0.026629 -0.035183 -1.19501 0.449473 -0.0373774 -1.195 0.0148671 -0.0146657 -1.17886 
0.0447828 -0.0210873 -1.1857 0.077809 -0.0450012 -1.17827 0.425112 -0.0143134 -1.19501 
0.420835 -0.0303044 -1.18723 0.442697 -0.0278974 -1.18244 0.431462 -0.00501872 -1.195 
0.00499822 -0.0130866 -1.17914 0.485661 -0.0387136 -1.19501 0.491705 -0.0199967 -1.187 
0.043854 -0.0121139 -1.19009 0.0137648 -0.0197958 -1.19501 0.0562237 -0.0450018 -1.17814 
0.0549204 -0.0203048 -1.1874 0.0195225 -0.00499901 -1.17283 0.413867 -0.00503959 -1.18849 
0.389752 -0.0319546 -1.19498 0.492394 -0.0370221 -1.1797 0.0506833 -0.0367054 -1.1775 
0.0278339 -0.0282131 -1.18795 0.441453 -0.020848 -1.18959 0.00763278 -0.00499816 -1.17389 
0.154211 -0.0347 -1.17958 0.06152 -0.0365224 -1.17786 0.0214827 -0.0357866 -1.18646 
0.282228 -0.0445652 -1.18501 0.421626 -0.0429714 -1.18683 0.00499632 -0.00499737 -1.18502 
0.0512335 -0.0367995 -1.195 0.402666 -0.0230432 -1.1863 0.0601143 -0.0049991 -1.17133 
0.00499757 -0.0300026 -1.18635 0.00499576 -0.0450019 -1.19501 0.0119685 -0.0119692 -1.18851 
0.127792 -0.00502037 -1.18636 0.0859184 -0.0136537 -1.18635 0.19107 -0.0450007 -1.195 
0.0669217 -0.0450001 -1.19501 0.0754697 -0.0221201 -1.195 0.208063 -0.0449881 -0.245002 
0.0143586 -0.0269168 -1.18802 0.461022 -0.0106333 -1.18588 0.294077 -0.0145413 -1.195 
0.404897 -0.0159423 -1.17878 0.109342 -0.0421151 -1.18684 0.137765 -0.0309267 -1.195 
0.104343 -0.0450007 -1.195 0.0511828 -0.0286677 -1.18341 0.178128 -0.013482 -1.195 
0.0614944 -0.0278654 -1.18643 0.495001 -0.00499878 -1.195 0.381033 -0.0134847 -1.19499 
0.102989 -0.0150091 -1.1794 0.0412343 -0.0203919 -1.19502 0.255993 -0.010849 -1.18862 
0.439036 -0.00501107 -1.18848 0.461958 -0.0450088 -1.18591 0.0565147 -0.0365344 -1.18652 
0.274087 -0.0148218 -1.195 0.488841 -0.0260908 -1.17958 0.44661 -0.00499573 -1.195 
0.458669 -0.00500211 -1.195 0.468666 -0.00499919 -1.19501 0.0338472 -0.00499684 -1.18635 
0.205332 -0.0246627 -0.245002 0.467057 -0.0364382 -1.18528 0.495001 -0.014998 -1.19501 
0.0177312 -0.0450053 -1.18556 0.0378372 -0.0131531 -1.18217 0.495001 -0.0249977 -1.19501 
0.0588402 -0.00542422 -1.19501 0.0247497 -0.0450021 -1.195 0.0522551 -0.0143958 -1.195 
0.396047 -0.0234987 -1.19495 0.0226721 -0.0319633 -1.17282 0.248043 -0.0204522 -1.18788 
0.452823 -0.00499799 -1.1869 0.189656 -0.0269627 -1.195 0.433062 -0.020372 -1.195 
0.46648 -0.0232424 -1.19414 0.485723 -0.00872212 -1.195 0.413958 -0.0201068 -1.18379 
0.471987 -0.0450012 -1.18693 0.398021 -0.0375449 -1.19501 0.0194654 -0.0183907 -1.18692 
0.0612737 -0.0190798 -1.19501 0.439834 -0.0126042 -1.19501 0.132822 -0.0165128 -1.18684 
0.0809246 -0.0049961 -1.18635 0.428633 -0.0449739 -1.195 0.00499786 -0.0450038 -1.18501 
0.474312 -0.0133063 -1.195 0.231174 -0.032873 -1.18697 0.449687 -0.0225255 -1.19501 
0.0349196 -0.0281451 -1.195 0.486375 -0.00499831 -1.18574 0.0149946 -0.0049988 -1.19501 
0.47661 -0.0230363 -1.19501 0.00499868 -0.0350043 -1.19501 0.188414 -0.00962011 -1.18768 
0.0290788 -0.0343157 -1.18013 0.027875 -0.0129874 -1.18703 0.040132 -0.0450009 -1.18658 
0.452628 -0.0129708 -1.19501 0.121052 -0.0123882 -1.18772 0.377902 -0.0450021 -1.195 
0.0388508 -0.00499645 -1.19501 0.0582342 -0.0132714 -1.17662 0.225319 -0.00499806 -1.18678 
0.0216074 -0.012597 -1.195 0.448408 -0.0450017 -1.18862 0.485699 -0.0337142 -1.18635 
0.156304 -0.0362314 -1.195 0.0625848 -0.0221104 -1.17833 0.0909187 -0.0136604 -1.195 
0.482458 -0.0238004 -1.18693 0.0212038 -0.0260898 -1.18078 0.0617878 -0.0362747 -1.195 
0.236014 -0.0363393 -1.19501 0.495 -0.035126 -1.195 0.477598 -0.00499678 -1.19052 
0.00499695 -0.014994 -1.19501 0.0751952 -0.0131766 -1.18683 0.14306 -0.0279328 -1.18674 
0.0310848 -0.0245623 -1.17923 0.236001 -0.00797652 -1.18687 0.461916 -0.0192101 -1.1807 
0.196072 -0.0419895 -1.18688 0.0347482 -0.0449745 -1.195 0.357911 -0.0450079 -1.195 
0.370474 -0.0138916 -1.195 0.00499805 -0.00499778 -1.19501 0.119341 -0.0421145 -1.18684 
0.0157901 -0.0389259 -1.17079 0.28597 -0.00524954 -1.18634 0.466105 -0.0447969 -1.19501 
0.209456 -0.0152214 -0.245002 0.495003 -0.0300588 -1.18638 0.0980138 -0.0240458 -1.17952 
0.0499942 -0.0132664 -1.18228 0.440712 -0.0449993 -1.195 0.457852 -0.0366783 -1.1896 
0.412525 -0.0356519 -1.195 0.0859234 -0.00499899 -1.19501 0.485721 -0.0187206 -1.195 
0.476173 -0.0351342 -1.195 0.0116923 -0.0450014 -1.17759 0.0668566 -0.0363032 -1.18631 
0.162844 -0.00499924 -1.195 0.285823 -0.035992 -1.195 0.056924 -0.0450084 -1.195 
0.0857167 -0.0308379 -1.18641 0.418687 -0.0221053 -1.195 0.236107 -0.0137849 -1.195 
0.391378 -0.0450087 -1.195 0.302925 -0.0162293 -1.14108 0.0246125 -0.0169795 -1.17846 
0.0924202 -0.0380835 -1.18801 0.407581 -0.00613754 -1.18079 0.0580912 -0.00922579 -1.04973 
0.434743 -0.0364808 -1.19501 0.0908206 -0.0311165 -1.19501 0.0723784 -0.00499741 -1.18117 
0.108002 -0.0236536 -1.17975 0.399432 -0.00842051 -1.18613 0.132811 -0.00499509 -1.195 
0.373585 -0.0359817 -1.195 0.0451303 -0.0450044 -1.17792 0.0455141 -0.0450016 -1.19501 
0.0516213 -0.00500195 -1.17661 0.0167498 -0.0336487 -1.19501 0.0288515 -0.00499853 -1.19501 
0.0759249 -0.00507217 -1.19501 0.48788 -0.0136098 -1.18033 0.442086 -0.0372639 -1.18827 
0.0467286 -0.0282899 -1.19235 0.0237067 -0.0224551 -1.19501 0.0740798 -0.0344665 -1.17965 
0.0269358 -0.00668579 -1.17932 0.176091 -0.0394083 -1.18839 0.398834 -0.0449772 -1.18833 
0.0606806 -0.0121485 -1.18784 0.422421 -0.0371331 -1.19494 0.0800753 -0.0160624 -1.1786 
0.457885 -0.0282801 -1.19501 0.0112628 -0.0376859 -1.18769 0.0674026 -0.0136484 -1.18059 
0.401061 -0.0140919 -1.19501 0.261317 -0.0205908 -1.18758 0.0770191 -0.0450005 -1.195 
0.0959221 -0.004999 -1.195 0.406291 -0.00519263 -1.195 0.390886 -0.0191057 -1.18654 
0.333024 -0.0147769 -1.195 0.476818 -0.0370712 -1.18322 0.10592 -0.00499844 -1.195 
0.359386 -0.0220798 -1.195 0.261706 -0.038834 -1.18717 0.100916 -0.0136609 -1.19501 
0.126636 -0.0354225 -1.18542 0.0619266 -0.0450011 -1.18635 0.0806 -0.0308672 -1.195 
0.0338523 -0.0136554 -1.19501 0.404011 -0.0295429 -1.195 0.226023 -0.0421144 -1.18684 
0.354385 -0.0311244 -1.195 0.395141 -0.0389281 -1.1812 0.152822 -0.0223187 -1.195 
0.421454 -0.005003 -1.195 0.104355 -0.0276803 -1.19501 0.0909191 -0.0223076 -1.18635 
0.15617 -0.0450019 -1.18631 0.406267 -0.0448371 -1.19501 0.221028 -0.0450029 -1.195 
0.203414 -0.0049998 -1.195 0.00499956 -0.0298782 -1.17207 0.426732 -0.0281118 -1.195 
0.209528 -0.0247762 -1.195 0.330879 -0.0449961 -1.195 0.445976 -0.0122778 -1.18713 
0.114352 -0.0103686 -1.195 0.0669718 -0.044904 -1.17772 0.183416 -0.00499772 -1.195 
0.265988 -0.00862205 -1.18714 0.349395 -0.0224682 -1.195 0.415009 -0.0127754 -1.195 
0.0563546 -0.027786 -1.195 0.386097 -0.0224926 -1.195 0.0390374 -0.0292668 -1.18596 
0.0943428 -0.0449925 -1.195 0.442849 -0.0298435 -1.195 0.0512166 -0.0450052 -1.18679 
0.147802 -0.0309666 -1.19501 0.236022 -0.0421032 -1.18684 0.0717835 -0.0360869 -1.19501 
0.157844 -0.00788601 -1.18684 0.469126 -0.0164607 -1.18706 0.0226549 -0.0415389 -1.17757 
0.0809209 -0.0137356 -1.19501 0.107699 -0.0122869 -1.18779 0.338012 -0.0234389 -1.195 
0.380714 -0.0301359 -1.19111 0.099429 -0.0450026 -1.1863 0.231007 -0.00499897 -1.195 
0.109353 -0.0190229 -1.195 0.328545 -0.0266692 -1.195 0.376104 -0.0221782 -1.19501 
0.282818 -0.0295423 -1.18798 0.426557 -0.00499519 -1.18629 0.231019 -0.045002 -1.195 
0.266537 -0.0349 -1.195 0.420428 -0.0129114 -1.1863 0.0786403 -0.0377298 -1.18793 
0.0959157 -0.0223209 -1.19501 0.142735 -0.0395873 -1.195 0.305816 -0.0362308 -1.195 
0.416261 -0.0450029 -1.19501 0.0848323 -0.0379904 -1.17949 0.365677 -0.00502331 -1.195 
0.0560688 -0.0287615 -1.17469 0.0439921 -0.00499692 -1.18307 0.0673771 -0.00499676 -1.18982 
0.310842 -0.0306114 -1.18843 0.161336 -0.0275602 -1.195 0.408637 -0.0206555 -1.19473 
0.0806999 -0.0221814 -1.18648 0.350954 -0.00554912 -1.195 0.173054 -0.0174563 -1.18736 
0.195914 -0.0303625 -1.18687 0.185768 -0.0361719 -1.195 0.315816 -0.0362767 -1.195 
0.0488507 -0.00499564 -1.19501 0.0494698 -0.0215078 -1.17665 0.167845 -0.0136576 -1.195 
0.362904 -0.0363507 -1.195 0.136112 -0.0376058 -1.18775 0.122772 -0.00499011 -1.195 
0.12934 -0.0450021 -1.18634 0.0683921 -0.0204844 -1.18813 0.0694321 -0.0132976 -1.195 
0.367907 -0.0450034 -1.195 0.344387 -0.0311359 -1.195 0.109342 -0.030573 -1.18684 
0.435207 -0.0338195 -1.17945 0.157844 -0.0136594 -1.195 0.290928 -0.0450029 -1.195 
0.380635 -0.0190539 -1.18668 0.0935309 -0.0330603 -1.17944 0.162846 -0.0197921 -1.18889 
0.114424 -0.00499456 -1.18657 0.06238 -0.00499672 -1.18107 0.213412 -0.00499728 -1.195 
0.279367 -0.0233166 -1.195 0.152846 -0.00499865 -1.195 0.280947 -0.0447205 -1.195 
0.34302 -0.0147745 -1.195 0.0736342 -0.0290778 -1.18806 0.270965 -0.0449882 -1.19501 
0.0959233 -0.00788121 -1.17818 0.187696 -0.01639 -1.195 0.432408 -0.0129357 -1.18832 
0.340959 -0.00499579 -1.195 0.102512 -0.0363431 -1.18237 0.199591 -0.02586 -1.195 
0.206048 -0.0405729 -1.18756 0.201056 -0.0450006 -1.195 0.227236 -0.0183998 -1.195 
0.330959 -0.00499725 -1.195 0.215965 -0.0358555 -1.195 0.18039 -0.0232173 -1.195 
0.14282 -0.0223007 -1.195 0.0976336 -0.0295587 -1.18786 0.300915 -0.0449466 -1.195 
0.0719603 -0.0450022 -1.18638 0.396298 -0.00500433 -1.195 0.217221 -0.0184001 -1.195 
0.246106 -0.0137136 -1.195 0.137824 -0.00785457 -1.18684 0.119174 -0.0288329 -1.18632 
0.142736 -0.045004 -1.1866 0.132773 -0.0222785 -1.195 0.241008 -0.045001 -1.195 
0.0666209 -0.0275241 -1.19501 0.100925 -0.00499846 -1.18635 0.193415 -0.00499945 -1.195 
0.178129 -0.00759458 -1.18692 0.254919 -0.0184686 -1.195 0.256012 -0.036326 -1.195 
0.310971 -0.00537472 -1.195 0.151124 -0.045005 -1.195 0.133061 -0.0278735 -1.18672 
0.12434 -0.0450014 -1.195 0.391073 -0.0137656 -1.19499 0.290982 -0.00503284 -1.195 
0.114358 -0.0196937 -1.18637 0.434856 -0.0283512 -1.18918 0.142824 -0.0165257 -1.18684 
0.208113 -0.0349624 -0.245002 0.27262 -0.0384025 -1.18757 0.30098 -0.00499982 -1.195 
0.36568 -0.0190319 -1.18785 0.275989 -0.0088199 -1.18723 0.0823822 -0.0269216 -1.17784 
0.335815 -0.0362842 -1.195 0.00499894 -0.0422457 -1.17069 0.0854437 -0.0396147 -1.19501 
0.349394 -0.0397858 -1.195 0.0555797 -0.0368116 -1.16878 0.147837 -0.0136523 -1.195 
0.142835 -0.00499668 -1.195 0.172843 -0.00499731 -1.195 0.250015 -0.0271809 -1.195 
0.260992 -0.00499665 -1.195 0.387519 -0.0320956 -1.18401 0.109349 -0.0363417 -1.195 
0.289551 -0.0254798 -1.195 0.246011 -0.0363397 -1.195 0.318272 -0.026565 -1.195 
0.0853556 -0.0450079 -1.18659 0.280985 -0.00499568 -1.19501 0.241009 -0.0302682 -1.18883 
0.124353 -0.0276816 -1.195 0.26098 -0.0450029 -1.19501 0.473096 -0.0288366 -1.18766 
0.124428 -0.0208073 -1.18351 0.241169 -0.022407 -1.195 0.161373 -0.036228 -1.18638 
0.171099 -0.0450023 -1.195 0.211041 -0.0450009 -1.195 0.270988 -0.00500344 -1.195 
0.323563 -0.017999 -1.195 0.396876 -0.0311233 -1.18744 0.21603 -0.0417943 -1.18696 
0.161112 -0.0450002 -1.195 0.325815 -0.036293 -1.195 0.304075 -0.0145081 -1.195 
0.374804 -0.0107035 -1.18657 0.221182 -0.0332251 -1.18683 0.137819 -0.0136456 -1.195 
0.295817 -0.0362843 -1.195 0.284079 -0.0144964 -1.195 0.241002 -0.00499966 -1.195 
0.208417 -0.0136585 -1.195 0.20394 -0.0197142 -1.18843 0.0993503 -0.0363368 -1.195 
0.222209 -0.00974389 -1.19501 0.152839 -0.0165428 -1.18684 0.129348 -0.036341 -1.195 
0.437903 -0.0170543 -1.18105 0.250995 -0.0450031 -1.195 0.198414 -0.00844487 -1.18706 
0.134337 -0.0450042 -1.195 0.428936 -0.0361571 -1.18688 0.260014 -0.0271619 -1.195 
0.149482 -0.0377324 -1.18785 0.358566 -0.0121088 -1.195 0.269372 -0.0236399 -1.195 
0.368346 -0.0389542 -1.18702 0.154524 -0.0290914 -1.18785 0.181084 -0.0450028 -1.195 
0.0859204 -0.00787921 -1.17818 0.195766 -0.0361735 -1.195 0.372765 -0.026135 -1.18646 
0.166169 -0.0450008 -1.18631 0.221423 -0.0274687 -1.195 0.384642 -0.0392925 -1.19033 
0.175496 -0.0319347 -1.195 0.320301 -0.0118872 -1.18779 0.222228 -0.0215856 -1.18696 
0.193988 -0.0206918 -1.18853 0.451124 -0.0378143 -1.18223 0.166434 -0.0361607 -1.195 
0.186073 -0.0419925 -1.18688 0.22602 -0.0363434 -1.195 0.0909229 -0.00499744 -1.18635 
0.299093 -0.0197493 -1.1881 0.299443 -0.0269688 -1.195 0.276319 -0.0328471 -1.195 
0.450549 -0.0299589 -1.18838 0.0732753 -0.0233334 -1.17989 0.211438 -0.0310759 -1.18748 
0.250998 -0.00499661 -1.195 0.308768 -0.0233639 -1.195 0.14784 -0.00787552 -1.18684 
0.102701 -0.020943 -1.18779 0.127779 -0.0136326 -1.195 0.474897 -0.0216546 -1.18075 
0.232299 -0.0270229 -1.195 0.461652 -0.0280436 -1.18575 0.114342 -0.0450023 -1.195 
0.449743 -0.0209635 -1.18391 0.170393 -0.0233264 -1.195 0.215253 -0.0117181 -1.18783 
0.119358 -0.0190224 -1.195 0.264095 -0.0144988 -1.195 0.310902 -0.0449858 -1.195 
0.198454 -0.0145161 -1.195 0.320889 -0.0449981 -1.195 
VERTICES 500 1000
1 0 
1 1 
1 2 
1 3 
1 4 
1 5 
1 6 
1 7 
1 8 
1 9 
1 10 
1 11 
1 12 
1 13 
1 14 
1 15 
1 16 
1 17 
1 18 
1 19 
1 20 
1 21 
1 22 
1 23 
1 24 
1 25 
1 26 
1 27 
1 28 
1 29 
1 30 
1 31 
1 32 
1 33 
1 34 
1 35 
1 36 
1 37 
1 38 
1 39 
1 40 
1 41 
1 42 
1 43 
1 44 
1 45 
1 46 
1 47 
1 48 
1 49 
1 50 
1 51 
1 52 
1 53 
1 54 
1 55 
1 56 
1 57 
1 58 
1 59 
1 60 
1 61 
1 62 
1 63 
1 64 
1 65 
1 66 
1 67 
1 68 
1 69 
1 70 
1 71 
1 72 
1 73 
1 74 
1 75 
1 76 
1 77 
1 78 
1 79 
1 80 
1 81 
1 82 
1 83 
1 84 
1 85 
1 86 
1 87 
1 88 
1 89 
1 90 
1 91 
1 92 
1 93 
1 94 
1 95 
1 96 
1 97 
1 98 
1 99 
1 100 
1 101 
1 102 
1 103 
1 104 
1 105 
1 106 
1 107 
1 108 
1 109 
1 110 
1 111 
1 112 
1 113 
1 114 
1 115 
1 116 
1 117 
1 118 
1 119 
1 120 
1 121 
1 122 
1 123 
1 124 
1 125 
1 126 
1 127 
1 128 
1 129 
1 130 
1 131 
1 132 
1 133 
1 134 
1 135 
1 136 
1 137 
1 138 
1 139 
1 140 
1 141 
1 142 
1 143 
1 144 
1 145 
1 146 
1 147 
1 148 
1 149 
1 150 
1 151 
1 152 
1 153 
1 154 
1 155 
1 156 
1 157 
1 158 
1 159 
1 160 
1 161 
1 162 
1 163 
1 164 
1 165 
1 166 
1 167 
1 168 
1 169 
1 170 
1 171 
1 172 
1 173 
1 174 
1 175 
1 176 
1 177 
1 178 
1 179 
1 180 
1 181 
1 182 
1 183 
1 184 
1 185 
1 186 
1 187 
1 188 
1 189 
1 190 
1 191 
1 192 
1 193 
1 194 
1 195 
1 196 
1 197 
1 198 
1 199 
1 200 
1 201 
1 202 
1 203 
1 204 
1 205 
1 206 
1 207 
1 208 
1 209 
1 210 
1 211 
1 212 
1 213 
1 214 
1 215 
1 216 
1 217 
1 218 
1 219 
1 220 
1 221 
1 222 
1 223 
1 224 
1 225 
1 226 
1 227 
1 228 
1 229 
1 230 
1 231 
1 232 
1 233 
1 234 
1 235 
1 236 
1 237 
1 238 
1 239 
1 240 
1 241 
1 242 
1 243 
1 244 
1 245 
1 246 
1 247 
1 248 
1 249 
1 250 
1 251 
1 252 
1 253 
1 254 
1 255 
1 256 
1 257 
1 258 
1 259 
1 260 
1 261 
1 262 
1 263 
1 264 
1 265 
1 266 
1 267 
1 268 
1 269 
1 270 
1 271 
1 272 
1 273 
1 274 
1 275 
1 276 
1 277 
1 278 
1 279 
1 280 
1 281 
1 282 
1 283 
1 284 
1 285 
1 286 
1 287 
1 288 
1 289 
1 290 
1 291 
1 292 
1 293 
1 294 
1 295 
1 296 
1 297 
1 298 
1 299 
1 300 
1 301 
1 302 
1 303 
1 304 
1 305 
1 306 
1 307 
1 308 
1 309 
1 310 
1 311 
1 312 
1 313 
1 314 
1 315 
1 316 
1 317 
1 318 
1 319 
1 320 
1 321 
1 322 
1 323 
1 324 
1 325 
1 326 
1 327 
1 328 
1 329 
1 330 
1 331 
1 332 
1 333 
1 334 
1 335 
1 336 
1 337 
1 338 
1 339 
1 340 
1 341 
1 342 
1 343 
1 344 
1 345 
1 346 
1 347 
1 348 
1 349 
1 350 
1 351 
1 352 
1 353 
1 354 
1 355 
1 356 
1 357 
1 358 
1 359 
1 360 
1 361 
1 362 
1 363 
1 364 
1 365 
1 366 
1 367 
1 368 
1 369 
1 370 
1 371 
1 372 
1 373 
1 374 
1 375 
1 376 
1 377 
1 378 
1 379 
1 380 
1 381 
1 382 
1 383 
1 384 
1 385 
1 386 
1 387 
1 388 
1 389 
1 390 
1 391 
1 392 
1 393 
1 394 
1 395 
1 396 
1 397 
1 398 
1 399 
1 400 
1 401 
1 402 
1 403 
1 404 
1 405 
1 406 
1 407 
1 408 
1 409 
1 410 
1 411 
1 412 
1 413 
1 414 
1 415 
1 416 
1 417 
1 418 
1 419 
1 420 
1 421 
1 422 
1 423 
1 424 
1 425 
1 426 
1 427 
1 428 
1 429 
1 430 
1 431 
1 432 
1 433 
1 434 
1 435 
1 436 
1 437 
1 438 
1 439 
1 440 
1 441 
1 442 
1 443 
1 444 
1 445 
1 446 
1 447 
1 448 
1 449 
1 450 
1 451 
1 452 
1 453 
1 454 
1 455 
1 456 
1 457 
1 458 
1 459 
1 460 
1 461 
1 462 
1 463 
1 464 
1 465 
1 466 
1 467 
1 468 
1 469 
1 470 
1 471 
1 472 
1 473 
1 474 
1 475 
1 476 
1 477 
1 478 
1 479 
1 480 
1 481 
1 482 
1 483 
1 484 
1 485 
1 486 
1 487 
1 488 
1 489 
1 490 
1 491 
1 492 
1 493 
1 494 
1 495 
1 496 
1 497 
1 498 
1 499 

POINT_DATA 500
FIELD FieldData 7
id 1 500 int
1 2 3 4 5 6 7 8 9 
10 11 12 13 14 15 16 17 18 
19 20 21 22 23 24 25 26 27 
28 29 30 31 32 33 34 35 36 
37 38 39 40 41 42 43 44 45 
46 47 48 49 50 51 52 53 54 
55 56 57 58 59 60 61 62 63 
64 65 66 67 68 69 70 71 72 
73 74 75 76 77 78 79 80 81 
82 83 84 85 86 87 88 89 90 
91 92 93 94 95 96 97 98 99 
100 101 102 103 104 105 106 107 108 
109 110 111 112 113 114 115 116 117 
118 119 120 121 122 123 124 125 126 
127 128 129 130 131 132 133 134 135 
136 137 138 139 140 141 142 143 144 
145 146 147 148 149 150 151 152 153 
154 155 156 157 158 159 160 161 162 
163 164 165 166 167 168 169 170 171 
172 173 174 175 176 177 178 179 180 
181 182 183 184 185 186 187 188 189 
190 191 192 193 194 195 196 197 198 
199 200 201 202 203 204 205 206 207 
208 209 210 211 212 213 214 215 216 
217 218 219 220 221 222 223 224 225 
226 227 228 229 230 231 232 233 234 
235 236 237 238 239 240 241 242 243 
244 245 246 247 248 249 250 251 252 
253 254 255 256 257 258 259 260 261 
262 263 264 265 266 267 268 269 270 
271 272 273 274 275 276 277 278 279 
280 281 282 283 284 285 286 287 288 
289 290 291 292 293 294 295 296 297 
298 299 300 301 302 303 304 305 306 
307 308 309 310 311 312 313 314 315 
316 317 318 319 320 321 322 323 324 
325 326 327 328 329 330 331 332 333 
334 335 336 337 338 339 340 341 342 
343 344 345 346 347 348 349 350 351 
352 353 354 355 356 357 358 359 360 
361 362 363 364 365 366 367 368 369 
370 371 372 373 374 375 376 377 378 
379 380 381 382 383 384 385 386 387 
388 389 390 391 392 393 394 395 396 
397 398 399 400 401 402 403 404 405 
406 407 408 409 410 411 412 413 414 
415 416 417 418 419 420 421 422 423 
424 425 426 427 428 429 430 431 432 
433 434 435 436 437 438 439 440 441 
442 443 444 445 446 447 448 449 450 
451 452 453 454 455 456 457 458 459 
460 461 462 463 464 465 466 467 468 
469 470 471 472 473 474 475 476 477 
478 479 480 481 482 483 484 485 486 
487 488 489 490 491 492 493 494 495 
496 497 498 499 500 
type 1 500 int
1 1 1 1 1 1 1 1 1 
1 1 1 1 1 1 1 1 1 
1 1 1 1 1 1 1 1 1 
1 1 1 1 1 1 1 1 1 
1 1 1 1 1 1 1 1 1 
1 1 1 1 1 1 1 1 1 
1 1 1 1 1 1 1 1 1 
1 1 1 1 1 1 1 1 1 
1 1 1 1 1 1 1 1 1 
1 1 1 1 1 1 1 1 1 
1 1 1 1 1 1 1 1 1 
1 1 1 1 1 1 1 1 1 
1 1 1 1 1 1 1 1 1 
1 1 1 1 1 1 1 1 1 
1 1 1 1 1 1 1 1 1 
1 1 1 1 1 1 1 1 1 
1 1 1 1 1 1 1 1 1 
1 1 1 1 1 1 1 1 1 
1 1 1 1 1 1 1 1 1 
1 1 1 1 1 1 1 1 1 
1 1 1 1 1 1 1 1 1 
1 1 1 1 1 1 1 1 1 
1 1 1 1 1 1 1 1 1 
1 1 1 1 1 1 1 1 1 
1 1 1 1 1 1 1 1 1 
1 1 1 1 1 1 1 1 1 
1 1 1 1 1 1 1 1 1 
1 1 1 1 1 1 1 1 1 
1 1 1 1 1 1 1 1 1 
1 1 1 1 1 1 1 1 1 
1 1 1 1 1 1 1 1 1 
1 1 1 1 1 1 1 1 1 
1 1 1 1 1 1 1 1 1 
1 1 1 1 1 1 1 1 1 
1 1 1 1 1 1 1 1 1 
1 1 1 1 1 1 1 1 1 
1 1 1 1 1 1 1 1 1 
1 1 1 1 1 1 1 1 1 
1 1 1 1 1 1 1 1 1 
1 1 1 1 1 1 1 1 1 
1 1 1 1 1 1 1 1 1 
1 1 1 1 1 1 1 1 1 
1 1 1 1 1 1 1 1 1 
1 1 1 1 1 1 1 1 1 
1 1 1 1 1 1 1 1 1 
1 1 1 1 1 1 1 1 1 
1 1 1 1 1 1 1 1 1 
1 1 1 1 1 1 1 1 1 
1 1 1 1 1 1 1 1 1 
1 1 1 1 1 1 1 1 1 
1 1 1 1 1 1 1 1 1 
1 1 1 1 1 1 1 1 1 
1 1 1 1 1 1 1 1 1 
1 1 1 1 1 1 1 1 1 
1 1 1 1 1 1 1 1 1 
1 1 1 1 1 
i 3 500 int
0 0 0 0 0 0 0 0 0 
0 0 0 0 0 0 0 0 0 
0 0 0 0 0 0 0 0 0 
0 0 0 0 0 0 0 0 0 
0 0 0 0 0 0 0 0 0 
0 0 0 0 0 0 0 0 0 
0 0 0 0 0 0 0 0 0 
0 0 0 0 0 0 0 0 0 
0 0 0 0 0 0 0 0 0 
0 0 0 0 0 0 0 0 0 
0 0 0 0 0 0 0 0 0 
0 0 0 0 0 0 0 0 0 
0 0 0 0 0 0 0 0 0 
0 0 0 0 0 0 0 0 0 
0 0 0 0 0 0 0 0 0 
0 0 0 0 0 0 0 0 0 
0 0 0 0 0 0 0 0 0 
0 0 0 0 0 0 0 0 0 
0 0 0 0 0 0 0 0 0 
0 0 0 0 0 0 0 0 0 
0 0 0 0 0 0 0 0 0 
0 0 0 0 0 0 0 0 0 
0 0 0 0 0 0 0 0 0 
0 0 0 0 0 0 0 0 0 
0 0 0 0 0 0 0 0 0 
0 0 0 0 0 0 0 0 0 
0 0 0 0 0 0 0 0 0 
0 0 0 0 0 0 0 0 0 
0 0 0 0 0 0 0 0 0 
0 0 0 0 0 0 0 0 0 
0 0 0 0 0 0 0 0 0 
0 0 0 0 0 0 0 0 0 
0 0 0 0 0 0 0 0 0 
0 0 0 0 0 0 0 0 0 
0 0 0 0 0 0 0 0 0 
0 0 0 0 0 0 0 0 0 
0 0 0 0 0 0 0 0 0 
0 0 0 0 0 0 0 0 0 
0 0 0 0 0 0 0 0 0 
0 0 0 0 0 0 0 0 0 
0 0 0 0 0 0 0 0 0 
0 0 0 0 0 0 0 0 0 
0 0 0 0 0 0 0 0 0 
0 0 0 0 0 0 0 0 0 
0 0 0 0 0 0 0 0 0 
0 0 0 0 0 0 0 0 0 
0 0 0 0 0 0 0 0 0 
0 0 0 0 0 0 0 0 0 
0 0 0 0 0 0 0 0 0 
0 0 0 0 0 0 0 0 0 
0 0 0 0 0 0 0 0 0 
0 0 0 0 0 0 0 0 0 
0 0 0 0 0 0 0 0 0 
0 0 0 0 0 0 0 0 0 
0 0 0 0 0 0 0 0 0 
0 0 0 0 0 0 0 0 0 
0 0 0 0 0 0 0 0 0 
0 0 0 0 0 0 0 0 0 
0 0 0 0 0 0 0 0 0 
0 0 0 0 0 0 0 0 0 
0 0 0 0 0 0 0 0 0 
0 0 0 0 0 0 0 0 0 
0 0 0 0 0 0 0 0 0 
0 0 0 0 0 0 0 0 0 
0 0 0 0 0 0 0 0 0 
0 0 0 0 0 0 0 0 0 
0 0 0 0 0 0 0 0 0 
0 0 0 0 0 0 0 0 0 
0 0 0 0 0 0 0 0 0 
0 0 0 0 0 0 0 0 0 
0 0 0 0 0 0 0 0 0 
0 0 0 0 0 0 0 0 0 
0 0 0 0 0 0 0 0 0 
0 0 0 0 0 0 0 0 0 
0 0 0 0 0 0 0 0 0 
0 0 0 0 0 0 0 0 0 
0 0 0 0 0 0 0 0 0 
0 0 0 0 0 0 0 0 0 
0 0 0 0 0 0 0 0 0 
0 0 0 0 0 0 0 0 0 
0 0 0 0 0 0 0 0 0 
0 0 0 0 0 0 0 0 0 
0 0 0 0 0 0 0 0 0 
0 0 0 0 0 0 0 0 0 
0 0 0 0 0 0 0 0 0 
0 0 0 0 0 0 0 0 0 
0 0 0 0 0 0 0 0 0 
0 0 0 0 0 0 0 0 0 
0 0 0 0 0 0 0 0 0 
0 0 0 0 0 0 0 0 0 
0 0 0 0 0 0 0 0 0 
0 0 0 0 0 0 0 0 0 
0 0 0 0 0 0 0 0 0 
0 0 0 0 0 0 0 0 0 
0 0 0 0 0 0 0 0 0 
0 0 0 0 0 0 0 0 0 
0 0 0 0 0 0 0 0 0 
0 0 0 0 0 0 0 0 0 
0 0 0 0 0 0 0 0 0 
0 0 0 0 0 0 0 0 0 
0 0 0 0 0 0 0 0 0 
0 0 0 0 0 0 0 0 0 
0 0 0 0 0 0 0 0 0 
0 0 0 0 0 0 0 0 0 
0 0 0 0 0 0 0 0 0 
0 0 0 0 0 0 0 0 0 
0 0 0 0 0 0 0 0 0 
0 0 0 0 0 0 0 0 0 
0 0 0 0 0 0 0 0 0 
0 0 0 0 0 0 0 0 0 
0 0 0 0 0 0 0 0 0 
0 0 0 0 0 0 0 0 0 
0 0 0 0 0 0 0 0 0 
0 0 0 0 0 0 0 0 0 
0 0 0 0 0 0 0 0 0 
0 0 0 0 0 0 0 0 0 
0 0 0 0 0 0 0 0 0 
0 0 0 0 0 0 0 0 0 
0 0 0 0 0 0 0 0 0 
0 0 0 0 0 0 0 0 0 
0 0 0 0 0 0 0 0 0 
0 0 0 0 0 0 0 0 0 
0 0 0 0 0 0 0 0 0 
0 0 0 0 0 0 0 0 0 
0 0 0 0 0 0 0 0 0 
0 0 0 0 0 0 0 0 0 
0 0 0 0 0 0 0 0 0 
0 0 0 0 0 0 0 0 0 
0 0 0 0 0 0 0 0 0 
0 0 0 0 0 0 0 0 0 
0 0 0 0 0 0 0 0 0 
0 0 0 0 0 0 0 0 0 
0 0 0 0 0 0 0 0 0 
0 0 0 0 0 0 0 0 0 
0 0 0 0 0 0 0 0 0 
0 0 0 0 0 0 0 0 0 
0 0 0 0 0 0 0 0 0 
0 0 0 0 0 0 0 0 0 
0 0 0 0 0 0 0 0 0 
0 0 0 0 0 0 0 0 0 
0 0 0 0 0 0 0 0 0 
0 0 0 0 0 0 0 0 0 
0 0 0 0 0 0 0 0 0 
0 0 0 0 0 0 0 0 0 
0 0 0 0 0 0 0 0 0 
0 0 0 0 0 0 0 0 0 
0 0 0 0 0 0 0 0 0 
0 0 0 0 0 0 0 0 0 
0 0 0 0 0 0 0 0 0 
0 0 0 0 0 0 0 0 0 
0 0 0 0 0 0 0 0 0 
0 0 0 0 0 0 0 0 0 
0 0 0 0 0 0 0 0 0 
0 0 0 0 0 0 0 0 0 
0 0 0 0 0 0 0 0 0 
0 0 0 0 0 0 0 0 0 
0 0 0 0 0 0 0 0 0 
0 0 0 0 0 0 0 0 0 
0 0 0 0 0 0 0 0 0 
0 0 0 0 0 0 0 0 0 
0 0 0 0 0 0 0 0 0 
0 0 0 0 0 0 0 0 0 
0 0 0 0 0 0 0 0 0 
0 0 0 0 0 0 0 0 0 
0 0 0 0 0 0 0 0 0 
0 0 0 0 0 0 0 0 0 
0 0 0 0 0 0 
v 3 500 double
-0.0350101 -0.0177384 -0.00598494 -0.0484447 0.00976611 0.0115305 2.73091e-06 1.21166e-06 3.83672e-06 
3.08442e-05 2.14164e-05 -2.4703e-05 4.21019e-05 5.60256e-06 -8.9394e-06 1.02977e-05 -9.62625e-06 -5.71985e-06 
1.0764e-05 2.02948e-07 -6.25571e-06 -2.77751e-06 2.35952e-06 -6.34809e-09 0.000318048 -5.41609e-05 -2.6504e-05 
0.000542549 -0.00133871 0.000346165 0.00694317 0.00052102 -0.000139728 0.0130069 0.000185313 -0.00277493 
4.59628e-05 9.1283e-06 -3.35958e-05 -0.00137212 -0.0012848 0.00100746 1.11551e-05 -4.62514e-05 -7.06737e-06 
-0.0170095 0.00564906 -0.00236728 -2.22887e-06 2.13625e-06 3.94891e-06 9.59218e-05 0.000173204 0.000505448 
-1.51091e-05 -1.41391e-05 2.59022e-06 -0.0227816 -0.0139032 -0.00600889 -1.37378e-05 8.12412e-06 7.57051e-06 
0.000794932 -4.12489e-05 -0.00186103 0.00280905 -3.35283e-05 0.00010271 1.1918e-05 3.24096e-06 -9.65452e-06 
-0.00108388 -0.000378322 -0.000599657 -0.036087 -0.015 0.00776468 0.00117976 -0.00368341 0.000777036 
-0.00342122 0.00517511 0.00259574 -0.004279 0.0134927 0.00139268 0.00030521 -4.73509e-05 -3.71774e-05 
2.98447e-05 -2.57322e-06 -5.35125e-06 -0.0282142 0.00786162 -0.0126786 0.0484195 -0.0325277 -0.042773 
-0.00810184 0.0219732 0.0207759 -0.000911005 -0.00653255 -0.00187628 -5.3795e-06 -6.00061e-06 -7.16768e-06 
-0.00146694 0.00236798 0.0016789 4.33177e-07 -1.4488e-06 2.41683e-06 2.24401e-06 -5.5617e-08 4.24858e-06 
-5.31616e-05 -0.00239021 -0.00119757 0.0182648 0.00693477 -5.99461e-07 0.000411696 -3.96635e-05 -2.4295e-05 
0.00013231 7.36376e-05 -0.00023721 -0.0154606 0.00923531 0.00887161 0.000346782 -0.000113005 2.24634e-05 
0.00722547 0.0314179 -0.000415954 -4.29747e-06 1.7982e-06 -4.01181e-06 3.5497e-06 5.17952e-06 4.83336e-06 
-0.00532444 0.000446587 0.00225098 -0.00674288 -0.0193433 0.00970501 -0.0270372 0.00416761 -0.0006285 
-0.00146288 -0.000418146 -0.000547868 1.13213e-06 -2.35865e-06 -7.63463e-06 -1.02529e-06 1.3902e-05 -9.32787e-06 
5.7342e-06 2.36958e-06 1.42465e-05 -7.42804e-06 3.26368e-06 8.1212e-06 0.000358388 -8.60276e-05 -1.61226e-05 
0.000100217 8.53563e-05 -0.000138244 2.93686e-06 9.33493e-07 -4.2335e-06 1.06534e-05 1.51174e-05 -2.07548e-05 
-2.90789e-06 4.168e-06 1.67505e-06 -0.0141344 0.00325272 -0.00289758 1.12779e-05 -4.63842e-07 -1.7442e-05 
3.43739e-05 -4.00637e-06 -2.15258e-05 0.000166667 1.31288e-06 -3.83793e-05 -0.021088 -0.0148085 0.00581314 
-0.0477143 -0.0103267 -0.0337724 -0.00472102 0.00296423 -0.00565511 0.0183026 0.00100831 -0.000976727 
2.69608e-06 3.85293e-06 5.38659e-06 0.000685264 -0.00331982 -0.000195924 -0.0160809 0.000324981 -0.00473997 
1.86603e-05 -1.34313e-06 -8.15173e-06 2.16845e-06 -1.13227e-05 -5.50302e-06 7.34804e-06 8.40267e-06 -2.87381e-05 
4.18999e-05 6.66262e-06 -7.57648e-06 1.48617e-05 1.8285e-06 -1.14762e-05 0.00904988 -0.00238327 -0.00362237 
-0.0421028 -0.00189559 0.00654786 0.0044694 0.000793577 0.00175926 -7.19964e-07 1.10476e-05 -4.59301e-05 
3.03127e-05 3.12572e-06 -3.86851e-06 -0.00379038 0.0109637 -0.0112542 1.16314e-06 4.0431e-06 5.96009e-06 
-0.00022932 -0.000984872 0.00024137 -9.55924e-07 -2.63458e-05 -1.5718e-05 1.50628e-06 1.66736e-05 3.35099e-06 
0.0183633 0.0523739 -0.000622765 -0.0501613 0.000331894 0.00811353 -5.80984e-08 1.52875e-06 4.37491e-06 
-1.64364e-05 -2.19273e-05 1.59158e-06 0.0232176 -0.0668256 0.0360138 0.000109587 -9.71695e-06 -0.000103911 
-1.4457e-06 4.07668e-06 7.42141e-06 5.7643e-07 8.74383e-07 5.33501e-07 1.60376e-05 -1.66694e-05 -1.04899e-05 
0.000547969 -0.000708647 -3.96153e-05 0.000359966 -3.80037e-05 -3.51189e-05 -0.00072756 -0.000839443 -0.000180016 
5.16353e-05 5.50055e-06 5.43106e-06 -7.83011e-05 0.000126174 5.43093e-08 0.00178269 4.01563e-05 2.01474e-13 
-6.12726e-06 -1.04038e-05 2.56629e-06 -0.00210018 0.005107 -0.0148 -0.00848852 0.00043546 -0.000359338 
0.149739 -0.0218711 -0.0170177 0.000625854 -5.2385e-05 3.95932e-05 0.00061875 6.1594e-06 -1.20785e-05 
0.000668555 1.62757e-05 -1.2935e-05 3.62745e-06 3.55118e-06 -4.32319e-05 -0.00301063 -0.000567333 -0.000142468 
1.52292e-05 3.29082e-05 -3.68269e-05 -0.000609917 -0.000227187 -0.000148542 -0.0168498 0.00250027 0.00282069 
0.000282184 0.000103971 -5.82596e-07 1.36059e-05 -3.02971e-06 -1.36423e-05 -0.00110046 0.00272436 0.000529345 
-0.00563442 -0.00156292 0.0163524 -0.0306716 0.00584577 -0.00557329 8.65369e-06 2.05755e-05 -2.81433e-05 
-0.00784809 -0.00075845 -0.000637833 -0.00377201 -0.00628397 -0.00156033 -0.0208387 -0.000476218 -0.000193616 
0.000233509 -0.000606337 -0.00179558 0.000198287 0.000145772 0.000269462 6.29239e-06 -5.2198e-06 -6.35669e-06 
0.000464821 0.000976332 1.93827e-12 -0.0150917 -0.000335063 -0.00581768 -0.000372383 -0.000943611 -0.000361057 
1.90693e-06 2.40241e-06 5.61486e-06 1.94737e-05 3.7181e-06 -1.95616e-05 -0.000176764 -0.000528586 0.00122178 
4.7166e-06 6.29473e-05 -9.76485e-06 -3.63937e-06 2.73469e-06 2.3199e-06 3.14267e-05 5.40894e-06 -2.83662e-06 
0.00519581 0.0248634 -0.00354846 2.43667e-05 1.1302e-05 -1.03907e-05 -0.00490995 -0.000383818 -0.00065621 
-0.00530505 0.000496716 -0.0075782 -0.00143685 -0.000911778 -0.000352344 -0.0127662 -0.0169468 -0.00118206 
-0.0385065 0.0118919 -0.0419878 2.64098e-05 -0.0042798 0.000117155 0.0123864 -0.00333769 -0.00999597 
-0.00555337 -0.000473512 -0.00251045 -0.00805813 -0.021929 0.00901217 2.80166e-06 -1.7865e-05 -1.96539e-05 
5.5262e-05 -1.05511e-05 9.98421e-08 -0.0217852 0.00826921 -0.00359106 0.000440798 0.000288866 -0.000164614 
0.000340022 -2.63896e-05 -5.33025e-06 -0.0282929 -0.00240461 -0.00142187 -4.95836e-07 5.56977e-06 2.03462e-06 
-0.0260878 0.00881213 0.001627 0.0028525 -0.00431081 0.00226784 0.00699925 0.0139794 -0.00023466 
2.41807e-05 -5.89924e-06 -6.90795e-06 0.00112063 -0.000501688 6.32727e-05 2.67443e-06 3.97242e-07 -1.46863e-06 