# vtk DataFile Version 4.0
Generated by LIGGGHTS
ASCII
DATASET POLYDATA
POINTS 500 float
0.4499 -0.0446733 -1.10806 0.492963 -0.037543 -0.958416 0.189941 -0.0190096 -1.18979 
0.0463354 -0.0366517 -1.04081 0.145251 -0.0297751 -0.706473 0.285681 -0.0415747 -1.10697 
0.158911 -0.0178221 -0.928474 0.140809 -0.0268221 -0.634861 0.238128 -0.0369949 -0.612392 
0.472168 -0.00774877 -0.986036 0.458662 -0.0189068 -0.664971 0.465006 -0.00764033 -1.18455 
0.1842 -0.0396386 -1.09159 0.428774 -0.0190935 -1.13579 0.0936391 -0.0213379 -0.653921 
0.398352 -0.0112148 -0.782838 0.331909 -0.00868139 -1.17812 0.491381 -0.0391173 -1.18757 
0.314567 -0.0432936 -1.19442 0.476482 -0.011241 -1.18181 0.199037 -0.0269544 -1.18461 
0.471156 -0.0134374 -1.16174 0.495023 -0.0444238 -1.19506 0.194 -0.0411031 -1.00902 
0.264657 -0.0168004 -0.295147 0.481657 -0.0360334 -1.15101 0.494346 -0.0249633 -1.18233 
0.455622 -0.0427496 -1.19145 0.481807 -0.0311936 -1.1388 0.36508 -0.041875 -0.728381 
0.373874 -0.016555 -1.19434 0.466704 -0.04511 -1.18303 0.400533 -0.00615494 -0.712449 
0.479255 -0.0284387 -1.16937 0.235641 -0.0218583 -0.248929 0.348957 -0.0159114 -1.00619 
0.437968 -0.00650842 -1.13213 0.271428 -0.0195545 -1.15231 0.389395 -0.0184885 -1.19046 
0.49474 -0.00503415 -1.18882 0.208596 -0.0151461 -0.245002 0.160681 -0.0334238 -0.831654 
0.206134 -0.00880503 -0.828176 0.488868 -0.0140423 -1.15098 0.235177 -0.00560369 -0.738727 
0.48421 -0.0385307 -1.19469 0.239206 -0.027864 -0.980153 0.189937 -0.0112422 -1.17509 
0.476268 -0.0450785 -1.18383 0.436024 -0.0230152 -1.19037 0.481933 -0.0193197 -1.01318 
0.476132 -0.0448764 -1.19487 0.262437 -0.0305705 -1.16162 0.186555 -0.0246932 -1.14772 
0.077325 -0.0301648 -1.16866 0.0118177 -0.00607852 -1.12846 0.326529 -0.0120468 -0.554624 
0.180419 -0.0420891 -0.690933 0.20902 -0.0359609 -0.910947 0.167071 -0.00758138 -1.19467 
0.220136 -0.0327291 -1.19045 0.426353 -0.0272706 -1.19072 0.183305 -0.0407829 -1.18408 
0.354596 -0.0190821 -1.09133 0.256458 -0.0228141 -0.902991 0.448419 -0.00636265 -1.15155 
0.488508 -0.00866134 -1.15992 0.490585 -0.0251114 -1.14595 0.454077 -0.00496192 -1.19437 
0.175529 -0.0411828 -1.17507 0.492922 -0.0320256 -1.19452 0.495022 -0.0115821 -1.18089 
0.21746 -0.0294051 -1.16485 0.326974 -0.018986 -1.18968 0.3995 -0.00578777 -1.19417 
0.406288 -0.00619616 -1.18541 0.367948 -0.0364421 -1.18404 0.491609 -0.00620454 -1.17029 
0.42725 -0.00631799 -1.19467 0.48587 -0.0445511 -1.17809 0.173 -0.0210107 -0.99432 
0.0309169 -0.0063714 -1.04424 0.444896 -0.0440131 -1.1609 0.059977 -0.0148888 -1.18987 
0.210748 -0.0363149 -0.244752 0.221759 -0.0449075 -1.16653 0.279343 -0.0349759 -1.13501 
0.460033 -0.0414432 -0.944477 0.456971 -0.0432736 -1.18173 0.216409 -0.00692403 -1.15127 
0.0704259 -0.031557 -1.08659 0.451673 -0.0449609 -1.15359 0.0911155 -0.00826878 -1.08234 
0.202912 -0.0255683 -1.166 0.154684 -0.0307844 -1.15349 0.115557 -0.0381592 -1.16059 
0.39477 -0.0328781 -1.19442 0.442578 -0.0301794 -1.03387 0.27542 -0.00689068 -0.296276 
0.402295 -0.0396803 -1.17465 0.361366 -0.0294136 -1.1791 0.205021 -0.0447457 -0.244972 
0.256712 -0.0056189 -1.11359 0.483207 -0.0156181 -1.16486 0.38983 -0.036234 -1.16933 
0.0844107 -0.0401085 -0.992524 0.367074 -0.0276164 -1.15784 0.113907 -0.00639636 -0.842551 
0.378576 -0.044173 -1.18661 0.358993 -0.0179095 -1.19025 0.378772 -0.0324137 -1.17406 
0.388477 -0.0418517 -1.193 0.486477 -0.00670418 -1.19503 0.429974 -0.0331724 -1.15678 
0.196167 -0.0277398 -0.87234 0.0132384 -0.00511449 -1.19327 0.218517 -0.0162955 -0.245018 
0.466007 -0.00491127 -1.15922 0.465342 -0.0445776 -1.19311 0.343567 -0.0310271 -1.17838 
0.486666 -0.00908393 -1.10533 0.461588 -0.0258742 -1.17436 0.464304 -0.0105118 -1.19457 
0.441827 -0.00679148 -1.19539 0.473161 -0.00545778 -1.19428 0.383027 -0.0329767 -1.09145 
0.205682 -0.0255621 -0.24495 0.495133 -0.0441346 -1.17467 0.493087 -0.0161292 -1.1949 
0.222562 -0.0231491 -1.18029 0.369315 -0.0449734 -1.19503 0.484677 -0.0258705 -1.19448 
0.373726 -0.0409585 -1.17597 0.243704 -0.00985478 -1.12558 0.388767 -0.00885947 -1.19479 
0.443159 -0.0441819 -1.19465 0.307118 -0.0155208 -1.09238 0.416367 -0.00543849 -1.19456 
0.466608 -0.017234 -1.17065 0.456877 -0.0177154 -0.958452 0.470159 -0.018757 -1.1828 
0.493405 -0.0269809 -1.17159 0.482019 -0.0162556 -1.1951 0.476702 -0.0177837 -1.17232 
0.478762 -0.037228 -1.17597 0.422317 -0.03286 -1.18229 0.320625 -0.0277898 -1.17663 
0.364608 -0.0110145 -1.05664 0.472127 -0.0168615 -1.19279 0.394839 -0.0151504 -1.16147 
0.400995 -0.0166747 -1.19386 0.429752 -0.0397099 -1.19297 0.34623 -0.0222517 -1.18963 
0.448294 -0.00594658 -1.1793 0.242969 -0.0335956 -0.26121 0.462534 -0.0298955 -1.19422 
0.343406 -0.0448352 -1.19498 0.484845 -0.00517426 -1.17802 0.303342 -0.021759 -1.19074 
0.47459 -0.0265359 -1.1945 0.263502 -0.0439227 -1.18856 0.385204 -0.0448111 -1.17855 
0.354668 -0.0444131 -1.19216 0.364215 -0.0236599 -1.10962 0.377987 -0.00524672 -1.19123 
0.454618 -0.0121341 -1.16784 0.372506 -0.0311639 -1.19077 0.427123 -0.0172532 -1.19461 
0.279824 -0.0277946 -1.11881 0.270363 -0.0349416 -1.15327 0.41124 -0.0324335 -1.17949 
0.276538 -0.0153392 -1.18933 0.427034 -0.0447625 -0.807684 0.492456 -0.0349789 -1.17815 
0.188187 -0.0376917 -1.07152 0.333844 -0.00884002 -1.1926 0.41166 -0.0127397 -1.16047 
0.490224 -0.0169047 -1.17234 0.360912 -0.0288471 -1.1902 0.351674 -0.00810731 -1.17144 
0.386849 -0.0449909 -0.987942 0.47247 -0.028311 -1.18129 0.487086 -0.0130768 -1.18717 
0.244883 -0.0349846 -1.19364 0.320413 -0.00724475 -1.10931 0.397936 -0.0409669 -1.18943 
0.199427 -0.0244636 -1.14318 0.382496 -0.0315269 -0.800307 0.472484 -0.0410645 -1.15817 
0.333065 -0.0207658 -1.16326 0.306191 -0.00602206 -1.18928 0.402605 -0.0139458 -0.935165 
0.473415 -0.0309192 -1.11216 0.253625 -0.0414225 -1.19396 0.365247 -0.00934699 -0.713003 
0.41665 -0.0233271 -1.18775 0.492137 -0.0444458 -1.15967 0.448166 -0.0157038 -1.19251 
0.205287 -0.015012 -0.235558 0.465186 -0.0236869 -1.15551 0.383537 -0.0188577 -1.16672 
0.31666 -0.0165718 -1.18187 0.423486 -0.0169381 -1.18257 0.435957 -0.0372794 -1.07981 
0.46652 -0.0133363 -1.10926 0.414592 -0.00624902 -1.17718 0.482563 -0.0228339 -1.18369 
0.472377 -0.0360233 -1.18852 0.368028 -0.0142855 -1.00905 0.349878 -0.0228694 -0.869836 
0.39633 -0.00546936 -1.02405 0.394397 -0.00975825 -1.18098 0.353367 -0.0221097 -1.18038 
0.389704 -0.0303338 -1.15776 0.443886 -0.0150177 -1.18339 0.355096 -0.00568448 -0.486778 
0.420068 -0.039348 -1.19054 0.425319 -0.00493347 -1.18477 0.371024 -0.00917976 -1.17533 
0.405288 -0.0420391 -1.12895 0.462634 -0.0092662 -1.14602 0.206569 -0.0445507 -0.235097 
0.438998 -0.0452288 -1.18382 0.399583 -0.0246842 -1.1614 0.378807 -0.0437983 -1.15171 
0.360539 -0.00546924 -1.18867 0.385112 -0.0119701 -0.766614 0.423197 -0.00739767 -1.11317 
0.408315 -0.0353845 -1.02525 0.40079 -0.0286873 -1.17803 0.383032 -0.0316819 -1.19427 
0.345624 -0.00460341 -1.19036 0.317945 -0.0381334 -0.972741 0.348729 -0.0392452 -1.18469 
0.376585 -0.0286709 -0.97194 0.475052 -0.0197066 -1.04441 0.454474 -0.0178663 -1.18135 
0.328487 -0.0332727 -1.18175 0.357163 -0.0140031 -1.0349 0.4137 -0.0148483 -1.1913 
0.376124 -0.0145015 -1.18396 0.390763 -0.0377303 -0.968483 0.460072 -0.00791792 -1.1173 
0.345855 -0.0119295 -0.864375 0.461105 -0.0444352 -1.17124 0.391931 -0.00518405 -1.17004 
0.436467 -0.0170093 -1.17653 0.328297 -0.037932 -1.19096 0.370764 -0.0144822 -0.961368 
0.414989 -0.0253029 -1.12887 0.211184 -0.00531476 -0.245003 0.390854 -0.0279714 -1.01934 
0.419883 -0.0372476 -1.13613 0.430087 -0.00669448 -0.996969 0.434034 -0.0297745 -1.05373 
0.424165 -0.04363 -1.1786 0.3719 -0.0301577 -0.587397 0.442617 -0.0359586 -1.09989 
0.426614 -0.00846892 -1.05865 0.213282 -0.022474 -0.238702 0.38087 -0.0342852 -0.982677 
0.415305 -0.0443152 -1.10739 0.356852 -0.0163672 -1.10538 0.382555 -0.0120214 -0.89991 
0.349429 -0.0418584 -1.15573 0.413217 -0.0343886 -0.891614 0.223651 -0.0367983 -0.245003 
0.410815 -0.0279039 -0.998113 0.413158 -0.0241942 -1.17273 0.364319 -0.00587708 -0.664673 
0.42899 -0.00557005 -0.91264 0.359782 -0.0212345 -0.570185 0.410054 -0.0146012 -1.17814 
0.43574 -0.0210815 -0.976019 0.397882 -0.0321616 -1.02907 0.39281 -0.0271248 -0.932065 
0.415954 -0.0384745 -1.06632 0.368635 -0.0313399 -1.08119 0.432809 -0.0225842 -0.940679 
0.39559 -0.00800059 -0.841955 0.400719 -0.0378935 -0.889533 0.455881 -0.0422261 -1.04146 
0.365339 -0.00658698 -0.777904 0.336664 -0.00898588 -0.84726 0.324396 -0.0310458 -0.438858 
0.388523 -0.0269596 -0.812352 0.391205 -0.0358983 -0.892363 0.41279 -0.0213414 -0.94876 
0.350049 -0.0119415 -0.935747 0.411874 -0.0436979 -1.01694 0.364368 -0.0275098 -1.0297 
0.392866 -0.0391574 -1.02094 0.414772 -0.0373347 -0.953828 0.347489 -0.0208477 -0.94144 
0.394085 -0.0348131 -0.958484 0.398527 -0.0427983 -0.934922 0.355054 -0.0363399 -0.958922 
0.449179 -0.0168059 -1.04122 0.424376 -0.0071288 -1.08343 0.314564 -0.0435581 -1.04676 
0.361705 -0.0389294 -0.812833 0.368199 -0.0211471 -0.912012 0.375231 -0.0180394 -0.67917 
0.418971 -0.00745925 -0.866133 0.37605 -0.0429984 -0.90218 0.391452 -0.0157658 -0.89322 
0.373804 -0.0267107 -0.804513 0.398514 -0.0202209 -0.869117 0.403149 -0.0192029 -0.879357 
0.403808 -0.0214978 -0.809611 0.431452 -0.0256279 -0.869531 0.222406 -0.0258193 -0.245055 
0.351521 -0.00766629 -0.503423 0.443965 -0.0292488 -0.936885 0.360972 -0.0136733 -0.936835 
0.365607 -0.0126264 -0.829263 0.356374 -0.0185727 -0.853786 0.394701 -0.00824988 -0.900376 
0.399349 -0.0123034 -0.980668 0.36072 -0.0160932 -0.778297 0.422228 -0.00627314 -0.827262 
0.339011 -0.0344855 -0.761357 0.361399 -0.0276554 -0.920554 0.342265 -0.0267809 -0.802786 
0.39883 -0.00838567 -0.756785 0.353353 -0.0192182 -0.541836 0.263411 -0.00990681 -0.270305 
0.364648 -0.023236 -0.787582 0.406711 -0.0333055 -0.880507 0.369567 -0.0436376 -0.770632 
0.306495 -0.0387302 -0.349247 0.376273 -0.0259874 -0.789716 0.41555 -0.0134427 -0.915314 
0.350353 -0.0262175 -0.827731 0.370198 -0.0140959 -0.759122 0.34144 -0.0380087 -0.555277 
0.418946 -0.0188032 -0.796938 0.388783 -0.0318754 -0.83968 0.385847 -0.0448198 -0.825491 
0.361885 -0.0365968 -0.751649 0.359577 -0.0385007 -0.835763 0.345757 -0.0226081 -0.765253 
0.393936 -0.0283326 -0.762491 0.389229 -0.0367136 -0.752593 0.356465 -0.0167909 -0.887196 
0.205012 -0.00513144 -0.23709 0.339788 -0.0434382 -0.655484 0.311227 -0.029385 -0.380765 
0.400935 -0.0327694 -0.785018 0.338902 -0.0135509 -0.517687 0.368272 -0.0308821 -0.746044 
0.355945 -0.0446889 -0.694192 0.344833 -0.0184358 -0.728862 0.39005 -0.0129529 -0.831498 
0.376134 -0.0128309 -0.745391 0.362906 -0.0231962 -0.73762 0.216088 -0.0448017 -0.245005 
0.39522 -0.00687454 -0.742209 0.354974 -0.0352849 -0.714088 0.390374 -0.0407272 -0.810064 
0.358953 -0.0312337 -0.761447 0.360363 -0.0285336 -0.654537 0.388448 -0.0309111 -0.671654 
0.356695 -0.0253529 -0.550489 0.348944 -0.0381658 -0.761559 0.368417 -0.0175777 -0.640703 
0.38157 -0.0422105 -0.762678 0.346724 -0.0426162 -0.539606 0.371636 -0.0210774 -0.750081 
0.385243 -0.0197319 -0.742348 0.34069 -0.0341624 -0.47337 0.355442 -0.0332859 -0.631846 
0.364483 -0.0425181 -0.629538 0.362471 -0.00760927 -0.690819 0.385486 -0.0294806 -0.714297 
0.338832 -0.00683167 -0.684692 0.389329 -0.0188996 -0.715094 0.369515 -0.0406955 -0.673982 
0.376045 -0.0409415 -0.707546 0.360507 -0.00619622 -0.760617 0.35032 -0.0166916 -0.588118 
0.349521 -0.0138547 -0.527791 0.363014 -0.00845998 -0.619171 0.36768 -0.0284235 -0.637021 
0.355866 -0.0239254 -0.719548 0.346811 -0.014518 -0.430589 0.3928 -0.0446852 -0.73891 
0.36552 -0.0353418 -0.648328 0.21788 -0.0126955 -0.23572 0.37655 -0.0271381 -0.655968 
0.368822 -0.01079 -0.62721 0.381869 -0.0436167 -0.729103 0.367647 -0.0432461 -0.619507 
0.322338 -0.0373806 -0.560809 0.381709 -0.0148161 -0.666265 0.360834 -0.00554822 -0.566426 
0.360631 -0.0368413 -0.680596 0.408447 -0.0120319 -0.708576 0.347999 -0.0325142 -0.589852 
0.205713 -0.0321146 -0.237246 0.380378 -0.00630841 -0.599049 0.359962 -0.0408527 -0.51213 
0.387438 -0.0207354 -0.687328 0.361255 -0.0104923 -0.508362 0.347839 -0.0411076 -0.643486 
0.378892 -0.00689029 -0.63902 0.335653 -0.0297425 -0.577721 0.346314 -0.0346304 -0.610771 
0.264498 -0.0385243 -0.294918 0.333289 -0.0404435 -0.548229 0.300377 -0.0164283 -0.294501 
0.347649 -0.0186441 -0.493127 0.359663 -0.032112 -0.588874 0.355989 -0.0363669 -0.557439 
0.374885 -0.0213261 -0.617671 0.368885 -0.0305953 -0.530475 0.353615 -0.0298407 -0.60174 
0.379437 -0.00535463 -0.661832 0.230674 -0.0449513 -0.240696 0.307124 -0.0397576 -0.371738 
0.305239 -0.0446379 -0.507831 0.336891 -0.0360215 -0.438678 0.379048 -0.0422626 -0.56541 
0.360025 -0.0109251 -0.607115 0.352446 -0.031033 -0.458913 0.372861 -0.0231377 -0.557768 
0.338609 -0.0353735 -0.533225 0.351444 -0.0370073 -0.500472 0.246083 -0.0150724 -0.250523 
0.347808 -0.0402262 -0.528011 0.333192 -0.0440743 -0.418531 0.362849 -0.0450558 -0.537689 
0.347094 -0.0135346 -0.469501 0.33858 -0.0078039 -0.453342 0.355665 -0.0361701 -0.482133 
0.334781 -0.01814 -0.480546 0.217847 -0.0315751 -0.237983 0.209159 -0.0194371 -0.227459 
0.337417 -0.0239783 -0.696559 0.309104 -0.00787541 -0.350587 0.348259 -0.00858838 -0.441777 
0.348809 -0.0398088 -0.441056 0.354973 -0.0315694 -0.491451 0.358625 -0.00784249 -0.521247 
0.356855 -0.00602381 -0.555047 0.223704 -0.00559917 -0.244951 0.343094 -0.0265674 -0.504248 
0.337 -0.0144254 -0.466745 0.339541 -0.0358156 -0.458762 0.3375 -0.0238029 -0.439338 
0.366826 -0.0379719 -0.550568 0.35855 -0.0208133 -0.507734 0.29779 -0.0422624 -0.288945 
0.347814 -0.044785 -0.494724 0.29503 -0.00891492 -0.280163 0.371079 -0.0209961 -0.578604 
0.339233 -0.0222894 -0.513008 0.313841 -0.0286703 -0.364498 0.330963 -0.0407556 -0.402582 
0.278617 -0.0410749 -0.268751 0.345088 -0.0267912 -0.468231 0.349327 -0.0448284 -0.454072 
0.319935 -0.00700389 -0.418332 0.338842 -0.0109288 -0.385572 0.205032 -0.0284854 -0.227977 
0.252373 -0.0172606 -0.275431 0.279819 -0.0058105 -0.287249 0.317126 -0.0248631 -0.388192 
0.311621 -0.017981 -0.401498 0.339024 -0.0398162 -0.408781 0.210184 -0.00875684 -0.229271 
0.330822 -0.0220436 -0.380244 0.22702 -0.0125159 -0.230049 0.339186 -0.042093 -0.44814 
0.347544 -0.0418721 -0.430249 0.357703 -0.0141496 -0.492696 0.346054 -0.0260656 -0.451753 
0.343728 -0.0415957 -0.420971 0.208632 -0.0395093 -0.226712 0.29412 -0.0261299 -0.280843 
0.241511 -0.0352071 -0.250826 0.32465 -0.0416637 -0.382339 0.287178 -0.0183628 -0.269369 
0.260889 -0.0425802 -0.269888 0.321099 -0.033132 -0.397516 0.328849 -0.0421067 -0.326142 
0.33429 -0.0266709 -0.457409 0.326072 -0.0114273 -0.321824 0.251063 -0.0136062 -0.26475 
0.332991 -0.0377106 -0.393002 0.225949 -0.0244255 -0.235725 0.319925 -0.0210755 -0.365975 
0.236827 -0.00696239 -0.248546 0.319166 -0.00658512 -0.34287 0.21901 -0.0430673 -0.232137 
0.331263 -0.0202386 -0.426533 0.328485 -0.0450111 -0.352673 0.345467 -0.0297142 -0.429849 
0.331327 -0.0267297 -0.412154 0.336105 -0.0343579 -0.420631 
VERTICES 500 1000
1 0 
1 1 
1 2 
1 3 
1 4 
1 5 
1 6 
1 7 
1 8 
1 9 
1 10 
1 11 
1 12 
1 13 
1 14 
1 15 
1 16 
1 17 
1 18 
1 19 
1 20 
1 21 
1 22 
1 23 
1 24 
1 25 
1 26 
1 27 
1 28 
1 29 
1 30 
1 31 
1 32 
1 33 
1 34 
1 35 
1 36 
1 37 
1 38 
1 39 
1 40 
1 41 
1 42 
1 43 
1 44 
1 45 
1 46 
1 47 
1 48 
1 49 
1 50 
1 51 
1 52 
1 53 
1 54 
1 55 
1 56 
1 57 
1 58 
1 59 
1 60 
1 61 
1 62 
1 63 
1 64 
1 65 
1 66 
1 67 
1 68 
1 69 
1 70 
1 71 
1 72 
1 73 
1 74 
1 75 
1 76 
1 77 
1 78 
1 79 
1 80 
1 81 
1 82 
1 83 
1 84 
1 85 
1 86 
1 87 
1 88 
1 89 
1 90 
1 91 
1 92 
1 93 
1 94 
1 95 
1 96 
1 97 
1 98 
1 99 
1 100 
1 101 
1 102 
1 103 
1 104 
1 105 
1 106 
1 107 
1 108 
1 109 
1 110 
1 111 
1 112 
1 113 
1 114 
1 115 
1 116 
1 117 
1 118 
1 119 
1 120 
1 121 
1 122 
1 123 
1 124 
1 125 
1 126 
1 127 
1 128 
1 129 
1 130 
1 131 
1 132 
1 133 
1 134 
1 135 
1 136 
1 137 
1 138 
1 139 
1 140 
1 141 
1 142 
1 143 
1 144 
1 145 
1 146 
1 147 
1 148 
1 149 
1 150 
1 151 
1 152 
1 153 
1 154 
1 155 
1 156 
1 157 
1 158 
1 159 
1 160 
1 161 
1 162 
1 163 
1 164 
1 165 
1 166 
1 167 
1 168 
1 169 
1 170 
1 171 
1 172 
1 173 
1 174 
1 175 
1 176 
1 177 
1 178 
1 179 
1 180 
1 181 
1 182 
1 183 
1 184 
1 185 
1 186 
1 187 
1 188 
1 189 
1 190 
1 191 
1 192 
1 193 
1 194 
1 195 
1 196 
1 197 
1 198 
1 199 
1 200 
1 201 
1 202 
1 203 
1 204 
1 205 
1 206 
1 207 
1 208 
1 209 
1 210 
1 211 
1 212 
1 213 
1 214 
1 215 
1 216 
1 217 
1 218 
1 219 
1 220 
1 221 
1 222 
1 223 
1 224 
1 225 
1 226 
1 227 
1 228 
1 229 
1 230 
1 231 
1 232 
1 233 
1 234 
1 235 
1 236 
1 237 
1 238 
1 239 
1 240 
1 241 
1 242 
1 243 
1 244 
1 245 
1 246 
1 247 
1 248 
1 249 
1 250 
1 251 
1 252 
1 253 
1 254 
1 255 
1 256 
1 257 
1 258 
1 259 
1 260 
1 261 
1 262 
1 263 
1 264 
1 265 
1 266 
1 267 
1 268 
1 269 
1 270 
1 271 
1 272 
1 273 
1 274 
1 275 
1 276 
1 277 
1 278 
1 279 
1 280 
1 281 
1 282 
1 283 
1 284 
1 285 
1 286 
1 287 
1 288 
1 289 
1 290 
1 291 
1 292 
1 293 
1 294 
1 295 
1 296 
1 297 
1 298 
1 299 
1 300 
1 301 
1 302 
1 303 
1 304 
1 305 
1 306 
1 307 
1 308 
1 309 
1 310 
1 311 
1 312 
1 313 
1 314 
1 315 
1 316 
1 317 
1 318 
1 319 
1 320 
1 321 
1 322 
1 323 
1 324 
1 325 
1 326 
1 327 
1 328 
1 329 
1 330 
1 331 
1 332 
1 333 
1 334 
1 335 
1 336 
1 337 
1 338 
1 339 
1 340 
1 341 
1 342 
1 343 
1 344 
1 345 
1 346 
1 347 
1 348 
1 349 
1 350 
1 351 
1 352 
1 353 
1 354 
1 355 
1 356 
1 357 
1 358 
1 359 
1 360 
1 361 
1 362 
1 363 
1 364 
1 365 
1 366 
1 367 
1 368 
1 369 
1 370 
1 371 
1 372 
1 373 
1 374 
1 375 
1 376 
1 377 
1 378 
1 379 
1 380 
1 381 
1 382 
1 383 
1 384 
1 385 
1 386 
1 387 
1 388 
1 389 
1 390 
1 391 
1 392 
1 393 
1 394 
1 395 
1 396 
1 397 
1 398 
1 399 
1 400 
1 401 
1 402 
1 403 
1 404 
1 405 
1 406 
1 407 
1 408 
1 409 
1 410 
1 411 
1 412 
1 413 
1 414 
1 415 
1 416 
1 417 
1 418 
1 419 
1 420 
1 421 
1 422 
1 423 
1 424 
1 425 
1 426 
1 427 
1 428 
1 429 
1 430 
1 431 
1 432 
1 433 
1 434 
1 435 
1 436 
1 437 
1 438 
1 439 
1 440 
1 441 
1 442 
1 443 
1 444 
1 445 
1 446 
1 447 
1 448 
1 449 
1 450 
1 451 
1 452 
1 453 
1 454 
1 455 
1 456 
1 457 
1 458 
1 459 
1 460 
1 461 
1 462 
1 463 
1 464 
1 465 
1 466 
1 467 
1 468 
1 469 
1 470 
1 471 
1 472 
1 473 
1 474 
1 475 
1 476 
1 477 
1 478 
1 479 
1 480 
1 481 
1 482 
1 483 
1 484 
1 485 
1 486 
1 487 
1 488 
1 489 
1 490 
1 491 
1 492 
1 493 
1 494 
1 495 
1 496 
1 497 
1 498 
1 499 

POINT_DATA 500
FIELD FieldData 7
id 1 500 int
1 2 3 4 5 6 7 8 9 
10 11 12 13 14 15 16 17 18 
19 20 21 22 23 24 25 26 27 
28 29 30 31 32 33 34 35 36 
37 38 39 40 41 42 43 44 45 
46 47 48 49 50 51 52 53 54 
55 56 57 58 59 60 61 62 63 
64 65 66 67 68 69 70 71 72 
73 74 75 76 77 78 79 80 81 
82 83 84 85 86 87 88 89 90 
91 92 93 94 95 96 97 98 99 
100 101 102 103 104 105 106 107 108 
109 110 111 112 113 114 115 116 117 
118 119 120 121 122 123 124 125 126 
127 128 129 130 131 132 133 134 135 
136 137 138 139 140 141 142 143 144 
145 146 147 148 149 150 151 152 153 
154 155 156 157 158 159 160 161 162 
163 164 165 166 167 168 169 170 171 
172 173 174 175 176 177 178 179 180 
181 182 183 184 185 186 187 188 189 
190 191 192 193 194 195 196 197 198 
199 200 201 202 203 204 205 206 207 
208 209 210 211 212 213 214 215 216 
217 218 219 220 221 222 223 224 225 
226 227 228 229 230 231 232 233 234 
235 236 237 238 239 240 241 242 243 
244 245 246 247 248 249 250 251 252 
253 254 255 256 257 258 259 260 261 
262 263 264 265 266 267 268 269 270 
271 272 273 274 275 276 277 278 279 
280 281 282 283 284 285 286 287 288 
289 290 291 292 293 294 295 296 297 
298 299 300 301 302 303 304 305 306 
307 308 309 310 311 312 313 314 315 
316 317 318 319 320 321 322 323 324 
325 326 327 328 329 330 331 332 333 
334 335 336 337 338 339 340 341 342 
343 344 345 346 347 348 349 350 351 
352 353 354 355 356 357 358 359 360 
361 362 363 364 365 366 367 368 369 
370 371 372 373 374 375 376 377 378 
379 380 381 382 383 384 385 386 387 
388 389 390 391 392 393 394 395 396 
397 398 399 400 401 402 403 404 405 
406 407 408 409 410 411 412 413 414 
415 416 417 418 419 420 421 422 423 
424 425 426 427 428 429 430 431 432 
433 434 435 436 437 438 439 440 441 
442 443 444 445 446 447 448 449 450 
451 452 453 454 455 456 457 458 459 
460 461 462 463 464 465 466 467 468 
469 470 471 472 473 474 475 476 477 
478 479 480 481 482 483 484 485 486 
487 488 489 490 491 492 493 494 495 
496 497 498 499 500 
type 1 500 int
1 1 1 1 1 1 1 1 1 
1 1 1 1 1 1 1 1 1 
1 1 1 1 1 1 1 1 1 
1 1 1 1 1 1 1 1 1 
1 1 1 1 1 1 1 1 1 
1 1 1 1 1 1 1 1 1 
1 1 1 1 1 1 1 1 1 
1 1 1 1 1 1 1 1 1 
1 1 1 1 1 1 1 1 1 
1 1 1 1 1 1 1 1 1 
1 1 1 1 1 1 1 1 1 
1 1 1 1 1 1 1 1 1 
1 1 1 1 1 1 1 1 1 
1 1 1 1 1 1 1 1 1 
1 1 1 1 1 1 1 1 1 
1 1 1 1 1 1 1 1 1 
1 1 1 1 1 1 1 1 1 
1 1 1 1 1 1 1 1 1 
1 1 1 1 1 1 1 1 1 
1 1 1 1 1 1 1 1 1 
1 1 1 1 1 1 1 1 1 
1 1 1 1 1 1 1 1 1 
1 1 1 1 1 1 1 1 1 
1 1 1 1 1 1 1 1 1 
1 1 1 1 1 1 1 1 1 
1 1 1 1 1 1 1 1 1 
1 1 1 1 1 1 1 1 1 
1 1 1 1 1 1 1 1 1 
1 1 1 1 1 1 1 1 1 
1 1 1 1 1 1 1 1 1 
1 1 1 1 1 1 1 1 1 
1 1 1 1 1 1 1 1 1 
1 1 1 1 1 1 1 1 1 
1 1 1 1 1 1 1 1 1 
1 1 1 1 1 1 1 1 1 
1 1 1 1 1 1 1 1 1 
1 1 1 1 1 1 1 1 1 
1 1 1 1 1 1 1 1 1 
1 1 1 1 1 1 1 1 1 
1 1 1 1 1 1 1 1 1 
1 1 1 1 1 1 1 1 1 
1 1 1 1 1 1 1 1 1 
1 1 1 1 1 1 1 1 1 
1 1 1 1 1 1 1 1 1 
1 1 1 1 1 1 1 1 1 
1 1 1 1 1 1 1 1 1 
1 1 1 1 1 1 1 1 1 
1 1 1 1 1 1 1 1 1 
1 1 1 1 1 1 1 1 1 
1 1 1 1 1 1 1 1 1 
1 1 1 1 1 1 1 1 1 
1 1 1 1 1 1 1 1 1 
1 1 1 1 1 1 1 1 1 
1 1 1 1 1 1 1 1 1 
1 1 1 1 1 1 1 1 1 
1 1 1 1 1 
i 3 500 int
0 0 0 0 0 0 0 0 0 
0 0 0 0 0 0 0 0 0 
0 0 0 0 0 0 0 0 0 
0 0 0 0 0 0 0 0 0 
0 0 0 0 0 0 0 0 0 
0 0 0 0 0 0 0 0 0 
0 0 0 0 0 0 0 0 0 
0 0 0 0 0 0 0 0 0 
0 0 0 0 0 0 0 0 0 
0 0 0 0 0 0 0 0 0 
0 0 0 0 0 0 0 0 0 
0 0 0 0 0 0 0 0 0 
0 0 0 0 0 0 0 0 0 
0 0 0 0 0 0 0 0 0 
0 0 0 0 0 0 0 0 0 
0 0 0 0 0 0 0 0 0 
0 0 0 0 0 0 0 0 0 
0 0 0 0 0 0 0 0 0 
0 0 0 0 0 0 0 0 0 
0 0 0 0 0 0 0 0 0 
0 0 0 0 0 0 0 0 0 
0 0 0 0 0 0 0 0 0 
0 0 0 0 0 0 0 0 0 
0 0 0 0 0 0 0 0 0 
0 0 0 0 0 0 0 0 0 
0 0 0 0 0 0 0 0 0 
0 0 0 0 0 0 0 0 0 
0 0 0 0 0 0 0 0 0 
0 0 0 0 0 0 0 0 0 
0 0 0 0 0 0 0 0 0 
0 0 0 0 0 0 0 0 0 
0 0 0 0 0 0 0 0 0 
0 0 0 0 0 0 0 0 0 
0 0 0 0 0 0 0 0 0 
0 0 0 0 0 0 0 0 0 
0 0 0 0 0 0 0 0 0 
0 0 0 0 0 0 0 0 0 
0 0 0 0 0 0 0 0 0 
0 0 0 0 0 0 0 0 0 
0 0 0 0 0 0 0 0 0 
0 0 0 0 0 0 0 0 0 
0 0 0 0 0 0 0 0 0 
0 0 0 0 0 0 0 0 0 
0 0 0 0 0 0 0 0 0 
0 0 0 0 0 0 0 0 0 
0 0 0 0 0 0 0 0 0 
0 0 0 0 0 0 0 0 0 
0 0 0 0 0 0 0 0 0 
0 0 0 0 0 0 0 0 0 
0 0 0 0 0 0 0 0 0 
0 0 0 0 0 0 0 0 0 
0 0 0 0 0 0 0 0 0 
0 0 0 0 0 0 0 0 0 
0 0 0 0 0 0 0 0 0 
0 0 0 0 0 0 0 0 0 
0 0 0 0 0 0 0 0 0 
0 0 0 0 0 0 0 0 0 
0 0 0 0 0 0 0 0 0 
0 0 0 0 0 0 0 0 0 
0 0 0 0 0 0 0 0 0 
0 0 0 0 0 0 0 0 0 
0 0 0 0 0 0 0 0 0 
0 0 0 0 0 0 0 0 0 
0 0 0 0 0 0 0 0 0 
0 0 0 0 0 0 0 0 0 
0 0 0 0 0 0 0 0 0 
0 0 0 0 0 0 0 0 0 
0 0 0 0 0 0 0 0 0 
0 0 0 0 0 0 0 0 0 
0 0 0 0 0 0 0 0 0 
0 0 0 0 0 0 0 0 0 
0 0 0 0 0 0 0 0 0 
0 0 0 0 0 0 0 0 0 
0 0 0 0 0 0 0 0 0 
0 0 0 0 0 0 0 0 0 
0 0 0 0 0 0 0 0 0 
0 0 0 0 0 0 0 0 0 
0 0 0 0 0 0 0 0 0 
0 0 0 0 0 0 0 0 0 
0 0 0 0 0 0 0 0 0 
0 0 0 0 0 0 0 0 0 
0 0 0 0 0 0 0 0 0 
0 0 0 0 0 0 0 0 0 
0 0 0 0 0 0 0 0 0 
0 0 0 0 0 0 0 0 0 
0 0 0 0 0 0 0 0 0 
0 0 0 0 0 0 0 0 0 
0 0 0 0 0 0 0 0 0 
0 0 0 0 0 0 0 0 0 
0 0 0 0 0 0 0 0 0 
0 0 0 0 0 0 0 0 0 
0 0 0 0 0 0 0 0 0 
0 0 0 0 0 0 0 0 0 
0 0 0 0 0 0 0 0 0 
0 0 0 0 0 0 0 0 0 
0 0 0 0 0 0 0 0 0 
0 0 0 0 0 0 0 0 0 
0 0 0 0 0 0 0 0 0 
0 0 0 0 0 0 0 0 0 
0 0 0 0 0 0 0 0 0 
0 0 0 0 0 0 0 0 0 
0 0 0 0 0 0 0 0 0 
0 0 0 0 0 0 0 0 0 
0 0 0 0 0 0 0 0 0 
0 0 0 0 0 0 0 0 0 
0 0 0 0 0 0 0 0 0 
0 0 0 0 0 0 0 0 0 
0 0 0 0 0 0 0 0 0 
0 0 0 0 0 0 0 0 0 
0 0 0 0 0 0 0 0 0 
0 0 0 0 0 0 0 0 0 
0 0 0 0 0 0 0 0 0 
0 0 0 0 0 0 0 0 0 
0 0 0 0 0 0 0 0 0 
0 0 0 0 0 0 0 0 0 
0 0 0 0 0 0 0 0 0 
0 0 0 0 0 0 0 0 0 
0 0 0 0 0 0 0 0 0 
0 0 0 0 0 0 0 0 0 
0 0 0 0 0 0 0 0 0 
0 0 0 0 0 0 0 0 0 
0 0 0 0 0 0 0 0 0 
0 0 0 0 0 0 0 0 0 
0 0 0 0 0 0 0 0 0 
0 0 0 0 0 0 0 0 0 
0 0 0 0 0 0 0 0 0 
0 0 0 0 0 0 0 0 0 
0 0 0 0 0 0 0 0 0 
0 0 0 0 0 0 0 0 0 
0 0 0 0 0 0 0 0 0 
0 0 0 0 0 0 0 0 0 
0 0 0 0 0 0 0 0 0 
0 0 0 0 0 0 0 0 0 
0 0 0 0 0 0 0 0 0 
0 0 0 0 0 0 0 0 0 
0 0 0 0 0 0 0 0 0 
0 0 0 0 0 0 0 0 0 
0 0 0 0 0 0 0 0 0 
0 0 0 0 0 0 0 0 0 
0 0 0 0 0 0 0 0 0 
0 0 0 0 0 0 0 0 0 
0 0 0 0 0 0 0 0 0 
0 0 0 0 0 0 0 0 0 
0 0 0 0 0 0 0 0 0 
0 0 0 0 0 0 0 0 0 
0 0 0 0 0 0 0 0 0 
0 0 0 0 0 0 0 0 0 
0 0 0 0 0 0 0 0 0 
0 0 0 0 0 0 0 0 0 
0 0 0 0 0 0 0 0 0 
0 0 0 0 0 0 0 0 0 
0 0 0 0 0 0 0 0 0 
0 0 0 0 0 0 0 0 0 
0 0 0 0 0 0 0 0 0 
0 0 0 0 0 0 0 0 0 
0 0 0 0 0 0 0 0 0 
0 0 0 0 0 0 0 0 0 
0 0 0 0 0 0 0 0 0 
0 0 0 0 0 0 0 0 0 
0 0 0 0 0 0 0 0 0 
0 0 0 0 0 0 0 0 0 
0 0 0 0 0 0 0 0 0 
0 0 0 0 0 0 0 0 0 
0 0 0 0 0 0 0 0 0 
0 0 0 0 0 0 0 0 0 
0 0 0 0 0 0 0 0 0 
0 0 0 0 0 0 
v 3 500 double
-0.593995 0.748369 -0.633788 -0.511773 0.403728 -1.29332 -0.369981 0.386066 1.04063 
1.44228 -0.00166702 -0.486708 -0.258342 -0.0600496 0.691599 -0.662674 0.200666 -0.00494079 
-1.01178 0.424608 0.497578 -0.355462 0.031393 0.504861 -0.187731 0.0172905 0.353754 
-0.0875929 -0.529105 -1.9429 -0.203239 0.0811737 0.427164 -0.0417046 0.313304 0.195841 
-0.673324 -0.421473 -0.395498 -0.787929 -0.117994 -0.200619 -0.341783 0.060187 0.447224 
0.451909 -0.0643114 -3.26023 -0.580701 -0.453139 0.469721 0.267282 -0.125205 0.272131 
-1.05901 -0.315302 0.0382 0.274909 0.193959 0.0831744 0.329743 -0.511784 -1.43926 
-0.166967 0.469063 -0.100615 0.13956 -0.23018 0.0169239 -0.816597 -0.389025 0.20102 
0.375797 0.0106854 -1.00767 0.541448 0.379157 1.06555 0.297746 0.0550814 0.0491529 
-0.0248375 0.0443486 -0.0825346 0.0369374 1.18714 0.266314 0.272597 0.102428 -3.50144 
-0.478445 1.18627 -0.760844 0.580971 -0.142551 0.25587 0.551919 0.014396 -3.24439 
0.48105 -0.231095 0.411512 0.175853 0.00555643 -0.271031 -0.0208629 -0.045752 -3.96181 
-0.492177 -0.083091 -1.49586 -0.853939 -0.199814 -0.307483 -0.518231 1.12108 0.547988 
-0.0136425 -0.0505098 0.0494342 0.0377771 0.0172599 -6.17029e-05 1.59852 -0.0736067 0.229687 
-0.482997 -0.16549 1.19151 -0.103511 0.115537 0.0652104 -0.211853 -0.0811797 0.942258 
0.116543 0.446007 0.145243 -0.858797 0.23964 0.602637 -1.2064 -0.224721 -0.412463 
1.37886 0.120126 0.162167 -0.362944 0.89046 1.44488 -0.704095 0.753882 -2.20284 
0.484373 0.262329 0.015203 -1.04399 0.358569 -0.17677 -1.4276 0.340083 -0.257905 
-1.79532 -0.274698 0.459173 1.18002 0.162491 -0.0378835 -0.0283925 -0.170824 -2.82709 
-0.296479 0.0707144 0.859963 -0.678784 0.0994551 0.436361 -1.89266 -0.393242 -0.0638522 
-1.7066 0.148116 0.0260506 0.795544 -0.468534 0.180654 -1.86205 -0.810766 -0.0593492 
0.152863 0.208563 -4.1364 -0.442233 -0.349146 1.7224 -0.364913 -0.320043 -3.11701 
0.234905 0.0573038 -0.0921561 0.403985 -0.897274 -0.440543 0.527612 0.375862 -0.0173088 
-0.505049 -0.421011 -0.868179 0.0623722 0.0160156 0.136955 -0.155132 0.143747 0.0726451 
0.382704 -0.451237 0.500451 -1.37699 1.19581 -0.381474 -0.351567 -0.565276 0.125512 
-1.36362 -0.0995281 -1.39472 -0.0301472 -0.0767579 0.288658 -0.041336 0.0877513 0.0201901 
-0.190469 0.460948 0.00565795 -0.059948 -0.225023 -0.135159 -1.27001 0.509742 0.0845079 
0.955894 -0.134058 0.723443 -0.8336 0.449792 -0.569472 -2.76562 0.142311 0.275476 
0.0701113 0.0016104 -0.0472378 -1.95805 0.657256 1.14254 -0.767973 -0.726111 0.144688 
1.17951 -0.201197 -2.21715 0.594188 0.241408 0.492944 -0.988662 -0.452957 0.0908816 
-1.67078 -0.482254 0.39066 0.595751 0.457705 0.21221 -1.57975 -0.0439189 0.103956 
-1.50994 0.086261 0.344329 1.48616 0.295045 -0.559255 -2.03846 0.440766 -0.0207039 
-0.421677 0.950815 0.24972 -0.825182 0.134207 -1.20231 0.453824 -0.0384259 -1.0173 
-0.0696094 -0.645334 0.379744 -0.571721 0.048811 0.984079 -0.0189896 -0.0020736 0.0225358 
-0.400543 0.335376 0.643657 0.165879 -0.132525 0.0128349 0.361205 0.0479557 0.290503 
1.76973 0.0993917 0.558741 -1.03889 1.04941 -1.16159 -0.963947 0.179419 1.31671 
0.258292 0.282948 -0.0386748 -0.660801 0.564519 0.7066 0.390371 0.271045 0.733464 
-0.812368 0.541565 0.336821 -0.0236972 0.0816136 0.0271065 -0.343232 -1.21684 -0.48748 
-0.289459 -0.163284 1.86598 1.23412 -0.568979 0.793518 0.0807394 0.00239596 -0.0810354 
-0.583031 -0.390459 0.245829 0.308494 0.0486801 0.450863 -1.52339 2.04219 -1.44728 
-0.495876 -0.184208 -1.17305 0.778552 -0.449793 0.704197 0.3178 0.537797 -0.132203 
1.19644 -0.116661 -0.815003 -0.184857 -0.0342333 0.0716927 0.125849 -0.0370106 -4.26886 
-0.100099 0.0577311 -0.00405046 -0.177801 0.132619 0.31368 0.298213 0.0134929 -0.377979 
-1.68012 -0.976052 0.872276 -0.190063 0.223973 0.419966 -0.147371 -0.238139 -0.177712 
-0.474792 0.267798 -0.0066432 -1.42223 0.745186 -1.52517 0.211325 -0.16521 0.34701 
0.169697 0.284889 0.102234 -1.32703 -0.0351903 1.12567 0.243574 -0.150933 0.142469 
-0.102484 0.0752591 -0.806865 0.694985 0.0549077 -3.93219 0.261414 -0.0206484 -0.0234676 
0.348491 0.285261 -0.363997 0.284296 -0.10427 0.321839 0.0962756 -0.302819 0.0903859 
0.10931 0.252526 0.50961 -1.07627 0.645285 0.121552 -0.544707 -0.490617 -0.189726 
0.0619617 -0.139152 -4.15696 0.188003 0.347075 -0.19099 -0.40327 -0.828574 0.0771484 
-0.149744 -0.0869297 0.474181 0.0484945 0.817845 -0.0161655 -2.07548 0.304794 -0.96666 
2.01775 -0.19975 -0.849221 0.227971 0.143967 -0.566862 0.48845 0.537138 -0.84505 
0.284998 0.776663 0.573083 -0.202001 -0.0255401 0.0417274 -0.489673 -0.185666 -0.182617 
1.53453 0.09969 -0.589454 -2.80042 -0.399066 0.516552 0.590408 0.102385 0.0412035 
0.049779 -0.851215 -2.63989 0.205244 -0.0655533 -4.2033 -0.610606 -1.2027 -0.382685 
-0.211998 0.454916 0.549045 0.198385 -0.223476 0.35472 0.189607 0.0469985 1.54828 
-1.00762 -0.525834 0.853174 -1.98753 0.691158 0.950844 -0.565003 -0.422121 -0.512218 
-1.12727 0.0585463 -0.10246 0.698535 -0.125813 -3.62811 0.145605 0.279238 0.297473 
-2.20824 0.0304094 1.14389 -0.760803 -0.98406 0.667368 0.393649 -0.023606 -4.30107 
0.290884 0.0109211 0.329419 -0.394721 -0.00138465 0.538956 0.0169008 0.343885 -1.13579 
0.28337 0.00971848 -4.02136 0.715994 0.576413 -0.258413 0.306534 0.147889 0.266785 
-1.73458 0.505104 0.214004 -0.790106 -0.120196 0.577714 -0.80309 0.642533 0.817813 