# vtk DataFile Version 4.0
Generated by LIGGGHTS
ASCII
DATASET POLYDATA
POINTS 500 float
0.463672 -0.0337755 -1.17226 0.479393 -0.0195377 -1.09663 0.168933 -0.0173916 -1.1785 
0.154507 -0.0367767 -1.10491 0.125876 -0.0342788 -0.682194 0.235981 -0.0265247 -1.13493 
0.0845962 -0.0176318 -0.91918 0.114149 -0.0244676 -0.624587 0.224048 -0.0356981 -0.613451 
0.484286 -0.00784161 -1.15642 0.443419 -0.0128188 -0.660524 0.47691 -0.0135607 -1.18466 
0.131826 -0.0176404 -1.1238 0.396305 -0.0150088 -1.17421 0.0680054 -0.0168239 -0.64797 
0.432245 -0.0160382 -1.05495 0.2846 -0.0304377 -1.16457 0.494948 -0.0449521 -1.1804 
0.20212 -0.0445564 -1.19026 0.485596 -0.0173594 -1.17842 0.104872 -0.00728348 -1.15374 
0.477113 -0.00630244 -1.16397 0.494887 -0.0429948 -1.195 0.134739 -0.0276068 -1.02064 
0.314369 -0.0161137 -0.384394 0.470341 -0.0428156 -1.12912 0.49508 -0.0281039 -1.18626 
0.473243 -0.045018 -1.19465 0.493832 -0.00973256 -1.14918 0.384608 -0.0339911 -1.01644 
0.268349 -0.0124544 -1.19005 0.480402 -0.0450108 -1.17331 0.441927 -0.00507525 -0.983369 
0.494095 -0.0261898 -1.1668 0.26031 -0.0232351 -0.291834 0.31305 -0.0321528 -1.19466 
0.450542 -0.00495498 -1.19173 0.203713 -0.0254911 -1.19311 0.330472 -0.0147541 -1.1827 
0.494922 -0.0049744 -1.18536 0.214371 -0.0143997 -0.245002 0.286044 -0.0349792 -0.796163 
0.16991 -0.0212168 -0.766404 0.471905 -0.0161103 -1.16968 0.219288 -0.0116922 -0.695648 
0.485525 -0.0351127 -1.19499 0.174796 -0.00989096 -0.962546 0.0767434 -0.00781196 -1.19054 
0.485747 -0.0449858 -1.18461 0.467425 -0.0258411 -1.17718 0.443441 -0.00884565 -1.18538 
0.484341 -0.0450025 -1.19454 0.184646 -0.00536261 -1.19109 0.0796048 -0.00687121 -1.1799 
0.0465034 -0.040856 -1.16264 0.0978652 -0.0132859 -1.15969 0.3244 -0.0248586 -0.794246 
0.158183 -0.0367855 -0.654027 0.158111 -0.0285018 -0.90581 0.0338845 -0.0311296 -1.1901 
0.176748 -0.0432838 -1.18962 0.466121 -0.0314581 -1.19501 0.103198 -0.00836592 -1.17002 
0.304273 -0.0431721 -1.17837 0.223353 -0.0425884 -0.801725 0.467273 -0.011813 -1.18769 
0.492319 -0.00491502 -1.16155 0.494874 -0.0442876 -1.16018 0.460463 -0.00667499 -1.1928 
0.0857824 -0.0261343 -1.19376 0.49512 -0.0328887 -1.19501 0.494956 -0.0136249 -1.18039 
0.244736 -0.0326029 -1.15556 0.214781 -0.0238279 -1.19422 0.363026 -0.00839465 -1.19305 
0.391343 -0.0183643 -1.16203 0.30193 -0.0343406 -1.1607 0.49453 -0.00582226 -1.17155 
0.450921 -0.02483 -1.18508 0.491569 -0.0442783 -1.17077 0.0797544 -0.0207202 -1.0093 
0.102228 -0.0158399 -1.02285 0.470155 -0.0280133 -1.16683 0.0397859 -0.0352249 -1.17638 
0.215822 -0.0358349 -0.244796 0.0755078 -0.0109673 -1.10893 0.226344 -0.0159471 -1.15161 
0.455025 -0.0350321 -1.12926 0.479708 -0.0414135 -1.16266 0.142259 -0.0408958 -1.17204 
0.0441703 -0.0318479 -1.08098 0.470288 -0.0449634 -1.14757 0.0262395 -0.0127379 -1.10025 
0.19051 -0.0213809 -1.19046 0.120528 -0.0445588 -1.18753 0.0327639 -0.00572153 -1.18624 
0.394525 -0.00859683 -1.193 0.380999 -0.0106249 -1.16466 0.32162 -0.0123152 -0.394145 
0.349557 -0.0430747 -1.17543 0.317848 -0.0369829 -1.13748 0.205001 -0.044268 -0.245001 
0.226717 -0.0214813 -1.09502 0.482098 -0.0187337 -1.16901 0.424337 -0.0168094 -1.1943 
0.21714 -0.0326541 -0.978209 0.214601 -0.0147373 -1.17968 0.0422725 -0.0132956 -0.772179 
0.376696 -0.0450221 -1.18533 0.306858 -0.0221472 -1.19445 0.392621 -0.0315919 -1.16872 
0.367934 -0.0420343 -1.19505 0.492239 -0.00494818 -1.19503 0.441192 -0.0179058 -1.19296 
0.167812 -0.0190615 -0.806337 0.068591 -0.0181723 -1.13633 0.227811 -0.0144082 -0.244989 
0.460267 -0.00708583 -1.18038 0.475646 -0.0449841 -1.18361 0.353396 -0.0322759 -1.13758 
0.470032 -0.0411452 -1.1589 0.49405 -0.0166675 -1.15905 0.471699 -0.00512876 -1.19489 
0.473301 -0.00509038 -1.17931 0.482325 -0.00531949 -1.19368 0.347898 -0.0185189 -1.19365 
0.205079 -0.0202423 -0.245005 0.486084 -0.033427 -1.16415 0.495067 -0.0135716 -1.191 
0.0981978 -0.0105197 -1.14424 0.365829 -0.0449991 -1.18167 0.495003 -0.0228845 -1.19493 
0.336393 -0.0283885 -1.18272 0.15876 -0.0319234 -1.15499 0.346097 -0.00528041 -1.19367 
0.460433 -0.0215574 -1.1859 0.207591 -0.0181601 -1.03555 0.428216 -0.00548992 -1.18272 
0.479554 -0.00995279 -1.17309 0.406149 -0.0443822 -1.1719 0.470342 -0.0214982 -1.18621 
0.486808 -0.0281608 -1.18033 0.485795 -0.0149734 -1.1951 0.481589 -0.0286305 -1.17177 
0.486414 -0.0375136 -1.17671 0.439943 -0.0309904 -1.19095 0.201285 -0.0253931 -1.17143 
0.350733 -0.0349041 -1.18208 0.475724 -0.0144228 -1.19474 0.398916 -0.0049273 -1.1795 
0.369952 -0.0177183 -1.19325 0.462312 -0.0448237 -1.1945 0.210385 -0.0322203 -1.16161 
0.476037 -0.0208968 -1.17732 0.276685 -0.0230757 -0.320604 0.473758 -0.0249084 -1.19496 
0.243502 -0.0264653 -1.16341 0.486822 -0.00499409 -1.17777 0.242617 -0.0125934 -1.19349 
0.485029 -0.0251643 -1.19514 0.123186 -0.0376211 -1.14787 0.399574 -0.0227638 -1.18867 
0.288534 -0.0417442 -1.1557 0.279074 -0.0302057 -1.19287 0.310918 -0.012197 -1.17985 
0.465466 -0.0157983 -1.17732 0.310282 -0.0444121 -1.19483 0.447878 -0.0255687 -1.17324 
0.206113 -0.0298825 -1.0828 0.122981 -0.0197221 -1.11034 0.422519 -0.0132772 -1.1846 
0.194791 -0.00932194 -1.19326 0.479304 -0.0386641 -1.10661 0.494998 -0.0327417 -1.1746 
0.0225688 -0.035411 -1.01332 0.224081 -0.0284849 -1.17588 0.378414 -0.0185965 -1.18863 
0.494978 -0.0231501 -1.1773 0.260249 -0.0281551 -1.16893 0.327366 -0.0287391 -1.19378 
0.400772 -0.0336966 -1.17923 0.492081 -0.0375689 -1.18664 0.486452 -0.0103412 -1.18614 
0.11598 -0.00990868 -1.19335 0.261155 -0.0162594 -1.09357 0.388463 -0.0314967 -1.19445 
0.132908 -0.00768204 -1.19183 0.404516 -0.0374237 -1.09333 0.492128 -0.0446739 -1.14326 
0.320319 -0.0210256 -1.04854 0.216068 -0.0379364 -1.19494 0.424066 -0.0425625 -1.19279 
0.446754 -0.00492847 -1.17526 0.136408 -0.0401127 -1.195 0.377096 -0.0116322 -0.997042 
0.416163 -0.030787 -1.19277 0.478546 -0.0446346 -1.15337 0.475629 -0.0349938 -1.19377 
0.205234 -0.012941 -0.237876 0.487543 -0.0248631 -1.15991 0.386187 -0.00522913 -1.17636 
0.221717 -0.00604113 -1.14958 0.466114 -0.0421119 -1.18478 0.475063 -0.0318131 -1.17945 
0.455644 -0.0420432 -1.18192 0.379204 -0.00540798 -1.18454 0.488883 -0.0204457 -1.1874 
0.482227 -0.0353392 -1.18554 0.264125 -0.0371674 -1.19204 0.360882 -0.0136261 -1.17051 
0.412366 -0.0120854 -1.18356 0.409936 -0.0175579 -1.1637 0.295564 -0.0363586 -1.17954 
0.390651 -0.0247787 -1.18478 0.466043 -0.0186992 -1.19481 0.356501 -0.0104378 -0.689401 
0.452709 -0.04478 -1.19158 0.441621 -0.00794181 -1.195 0.298366 -0.0302747 -1.19396 
0.3794 -0.0423082 -1.19471 0.459657 -0.019079 -1.1658 0.213112 -0.0440441 -0.239158 
0.468381 -0.0434775 -1.17275 0.384212 -0.0122464 -1.19458 0.380057 -0.0349426 -1.18811 
0.392106 -0.011232 -1.18274 0.420735 -0.0151497 -1.04579 0.405152 -0.00591269 -1.18702 
0.43365 -0.0380789 -1.18755 0.342052 -0.00834681 -1.17634 0.358324 -0.0412838 -1.19336 
0.272186 -0.0162606 -1.11564 0.24684 -0.0412778 -1.18802 0.290333 -0.0438344 -1.19235 
0.326858 -0.0402451 -1.18408 0.493058 -0.0156581 -1.16962 0.475182 -0.0363779 -1.16991 
0.31861 -0.0170234 -1.18987 0.235197 -0.0192302 -1.17724 0.403729 -0.0449555 -1.18511 
0.337707 -0.0131598 -1.19446 0.401632 -0.0149106 -1.18225 0.493677 -0.0311573 -1.15267 
0.357095 -0.00522068 -1.16557 0.483134 -0.0334468 -1.14808 0.374393 -0.0202382 -1.1795 
0.479629 -0.0253334 -1.18672 0.235766 -0.0399424 -1.19437 0.37953 -0.0405386 -1.17672 
0.456248 -0.0190542 -1.19529 0.218488 -0.00506385 -0.245002 0.372437 -0.0291556 -1.19144 
0.39162 -0.0204828 -1.19511 0.452939 -0.0136833 -1.18759 0.458183 -0.0222973 -1.1749 
0.438522 -0.0418664 -1.1718 0.421167 -0.033654 -0.839884 0.398468 -0.0347999 -1.19484 
0.433499 -0.0251332 -1.19486 0.21547 -0.0258337 -0.245002 0.387078 -0.0330278 -1.17988 
0.395193 -0.0445517 -1.19196 0.310005 -0.0349592 -1.14833 0.385786 -0.0219794 -1.17654 
0.275769 -0.0169436 -1.18085 0.45544 -0.0310615 -1.17889 0.232549 -0.0429879 -0.245703 
0.431208 -0.025325 -1.18166 0.468426 -0.021655 -1.15843 0.388294 -0.0107163 -0.924339 
0.447368 -0.00499873 -1.1547 0.36731 -0.0403877 -0.815709 0.376916 -0.00547973 -1.19457 
0.420068 -0.0301466 -1.18353 0.444181 -0.0437584 -1.18617 0.410794 -0.0411443 -1.17969 
0.406481 -0.0121723 -1.19429 0.282964 -0.0405126 -1.13466 0.454661 -0.0347382 -1.18915 
0.42067 -0.0106072 -1.13898 0.42862 -0.0313823 -1.17542 0.488159 -0.0237059 -1.14574 
0.378946 -0.0122424 -1.05759 0.33658 -0.0103469 -1.13184 0.332443 -0.0368978 -0.607978 
0.412025 -0.0155331 -1.09987 0.418203 -0.036199 -1.17588 0.447439 -0.0154851 -1.17265 
0.339045 -0.0187154 -1.18127 0.447156 -0.0250103 -1.19432 0.33627 -0.0429338 -1.19098 
0.387098 -0.0422075 -1.18643 0.463608 -0.0316014 -1.18536 0.352866 -0.0287251 -1.19328 
0.426002 -0.0304063 -1.19153 0.426481 -0.0409523 -1.17829 0.347145 -0.0451777 -1.19242 
0.419524 -0.0116232 -1.17536 0.411574 -0.00643757 -1.17397 0.246158 -0.0250568 -1.11801 
0.375337 -0.0350831 -1.11537 0.365493 -0.0289764 -1.1784 0.412387 -0.0182609 -0.948204 
0.453988 -0.0213532 -1.15422 0.394682 -0.0408452 -1.17085 0.409437 -0.0218986 -1.1923 
0.389514 -0.0366614 -1.09945 0.423208 -0.0244748 -1.16475 0.446857 -0.0377275 -1.16034 
0.443413 -0.0240433 -1.1001 0.465694 -0.00880674 -1.15769 0.235066 -0.0210091 -0.247482 
0.378325 -0.0133231 -0.723578 0.469864 -0.0329717 -1.13434 0.366983 -0.00795347 -1.18414 
0.383971 -0.0165813 -1.11343 0.366996 -0.00578163 -1.16818 0.435438 -0.014222 -1.1706 
0.445413 -0.0347325 -1.18232 0.379286 -0.0219943 -1.07325 0.442192 -0.00730766 -1.10478 
0.340774 -0.0329649 -1.04585 0.361556 -0.0244742 -1.18611 0.353092 -0.0237219 -1.08559 
0.432946 -0.0133585 -1.02464 0.389083 -0.0193002 -0.770374 0.304309 -0.0084988 -0.351442 
0.376477 -0.022878 -1.08491 0.438289 -0.0270649 -1.17326 0.390434 -0.0436618 -1.05008 
0.357805 -0.0257093 -0.489365 0.402927 -0.0251023 -1.07169 0.436542 -0.016408 -1.18215 
0.355555 -0.0371966 -1.11691 0.383819 -0.0112293 -1.03729 0.340437 -0.0430015 -0.769527 
0.460809 -0.0279486 -1.07262 0.41024 -0.0390257 -1.12939 0.405727 -0.0404231 -1.1206 
0.378439 -0.0303168 -1.03339 0.367826 -0.039486 -1.14597 0.350359 -0.027347 -1.05647 
0.424851 -0.0240968 -1.04212 0.415263 -0.0349868 -1.0317 0.355304 -0.0134688 -1.18864 
0.207866 -0.00546016 -0.244979 0.345389 -0.0444556 -0.916241 0.356544 -0.0243955 -0.531498 
0.436405 -0.0272384 -1.06582 0.350513 -0.0143968 -0.741217 0.391193 -0.0411598 -1.02559 
0.369866 -0.0448104 -0.959936 0.339975 -0.0308864 -0.992876 0.418275 -0.00585635 -1.12723 
0.392104 -0.0134335 -1.0291 0.384502 -0.00677127 -1.02193 0.221388 -0.0449978 -0.245039 
0.432006 -0.0097895 -1.01167 0.36173 -0.0406538 -0.977456 0.415296 -0.0356321 -1.10441 
0.366317 -0.0305807 -1.04541 0.385616 -0.0348573 -0.925915 0.429835 -0.0240157 -0.939004 
0.398413 -0.0245433 -0.781483 0.352858 -0.0349373 -1.04913 0.397412 -0.0167994 -0.89345 
0.405015 -0.0397429 -1.04473 0.365237 -0.0428089 -0.750862 0.389629 -0.0246567 -1.03735 
0.413719 -0.0161441 -1.0236 0.36655 -0.0405884 -0.677163 0.376942 -0.0363892 -0.902629 
0.377322 -0.0398655 -0.879805 0.375568 -0.0129058 -0.962295 0.411874 -0.0314074 -0.991863 
0.339608 -0.0157398 -0.949137 0.422795 -0.012743 -0.982433 0.391106 -0.0444084 -0.935013 
0.40409 -0.0382578 -0.987963 0.378008 -0.00508197 -1.04694 0.366862 -0.0126788 -0.814398 
0.364513 -0.013451 -0.776838 0.382663 -0.0084381 -0.874537 0.396966 -0.0345199 -0.881741 
0.361691 -0.0321309 -1.0061 0.337675 -0.0164673 -0.635586 0.425812 -0.0444408 -1.02298 
0.385207 -0.0282382 -0.90695 0.227073 -0.00527807 -0.239866 0.404278 -0.0337952 -0.911758 
0.393113 -0.0117205 -0.876796 0.40528 -0.0442681 -1.01272 0.388106 -0.0413736 -0.869043 
0.305533 -0.0289798 -0.775468 0.411392 -0.0190067 -0.932125 0.391345 -0.00514318 -0.821678 
0.381931 -0.0247344 -0.948013 0.469876 -0.00822765 -0.992567 0.36149 -0.021261 -0.822065 
0.205157 -0.0324181 -0.242996 0.420832 -0.00977877 -0.828723 0.386291 -0.0436727 -0.731321 
0.429939 -0.0171141 -0.964405 0.392271 -0.0185355 -0.722554 0.351915 -0.0264277 -0.920214 
0.409809 -0.0209542 -0.887379 0.325704 -0.0444731 -0.811653 0.351849 -0.0228451 -0.867013 
0.317176 -0.043236 -0.388551 0.323383 -0.0353356 -0.766058 0.333886 -0.00703484 -0.398132 
0.36734 -0.0182467 -0.720081 0.383441 -0.0182856 -0.826175 0.381935 -0.0431387 -0.812402 
0.405409 -0.0335478 -0.860638 0.427547 -0.018977 -0.758919 0.364539 -0.0375519 -0.838171 
0.415698 -0.00670733 -0.924115 0.244279 -0.0430461 -0.26385 0.353999 -0.0360487 -0.53044 
0.290786 -0.0409076 -0.72839 0.365893 -0.0342706 -0.638843 0.437026 -0.0307462 -0.791763 
0.367122 -0.0195207 -0.864265 0.380513 -0.0364902 -0.658191 0.422148 -0.0292222 -0.799413 
0.332845 -0.0390941 -0.76135 0.372387 -0.0409329 -0.7113 0.277672 -0.0207669 -0.305024 
0.35517 -0.0341303 -0.737399 0.365139 -0.0438226 -0.608108 0.385806 -0.0340842 -0.764567 
0.373993 -0.0194536 -0.656597 0.392988 -0.0103909 -0.649663 0.367443 -0.0399192 -0.687489 
0.343201 -0.0280582 -0.711127 0.229424 -0.03196 -0.245093 0.220847 -0.0144738 -0.237316 
0.338722 -0.0181417 -0.991133 0.337584 -0.0115314 -0.517875 0.35295 -0.0105004 -0.631081 
0.380493 -0.0407988 -0.644105 0.379823 -0.0444173 -0.702229 0.384158 -0.005441 -0.747806 
0.372517 -0.00526818 -0.806807 0.237049 -0.00602531 -0.25113 0.353765 -0.0392679 -0.722529 
0.360094 -0.00972397 -0.671918 0.349052 -0.0439586 -0.663435 0.346563 -0.00645238 -0.647202 
0.404248 -0.0327701 -0.790784 0.381329 -0.0267164 -0.717004 0.342119 -0.027692 -0.39834 
0.348394 -0.0393441 -0.690651 0.337182 -0.0121038 -0.378107 0.404277 -0.0189942 -0.815677 
0.355923 -0.0229489 -0.739315 0.348293 -0.0203007 -0.500057 0.360296 -0.044829 -0.596376 
0.316846 -0.0376129 -0.355729 0.380189 -0.0319643 -0.681819 0.366788 -0.0447869 -0.656037 
0.311639 -0.015965 -0.617808 0.335234 -0.0166905 -0.567325 0.207738 -0.0233575 -0.235719 
0.296359 -0.0153146 -0.351969 0.329087 -0.00547914 -0.388051 0.352637 -0.0397067 -0.559258 
0.289793 -0.0216158 -0.591331 0.366731 -0.0414316 -0.577749 0.212307 -0.0057349 -0.235768 
0.345788 -0.00921772 -0.556879 0.258394 -0.0143664 -0.284067 0.364249 -0.0420042 -0.645791 
0.362667 -0.0430811 -0.628144 0.385169 -0.00747248 -0.714362 0.345965 -0.0409329 -0.652928 
0.365514 -0.0318394 -0.587491 0.21717 -0.0310648 -0.23526 0.335553 -0.035634 -0.379338 
0.275909 -0.0368169 -0.316638 0.312968 -0.0378089 -0.562276 0.336245 -0.0295904 -0.370312 
0.302254 -0.0388564 -0.35397 0.357361 -0.0339986 -0.573885 0.319863 -0.0397597 -0.473184 
0.333845 -0.0232856 -0.684454 0.318855 -0.00644875 -0.461318 0.291588 -0.0133545 -0.337408 
0.363246 -0.0425792 -0.52225 0.249053 -0.0196841 -0.259363 0.329004 -0.0152066 -0.558756 
0.266119 -0.0122249 -0.298201 0.317856 -0.0282672 -0.459355 0.233634 -0.042478 -0.235476 
0.321635 -0.00536264 -0.63719 0.355697 -0.0332554 -0.511402 0.364552 -0.0184722 -0.632849 
0.35461 -0.0293182 -0.610352 0.370443 -0.0341255 -0.612754 
VERTICES 500 1000
1 0 
1 1 
1 2 
1 3 
1 4 
1 5 
1 6 
1 7 
1 8 
1 9 
1 10 
1 11 
1 12 
1 13 
1 14 
1 15 
1 16 
1 17 
1 18 
1 19 
1 20 
1 21 
1 22 
1 23 
1 24 
1 25 
1 26 
1 27 
1 28 
1 29 
1 30 
1 31 
1 32 
1 33 
1 34 
1 35 
1 36 
1 37 
1 38 
1 39 
1 40 
1 41 
1 42 
1 43 
1 44 
1 45 
1 46 
1 47 
1 48 
1 49 
1 50 
1 51 
1 52 
1 53 
1 54 
1 55 
1 56 
1 57 
1 58 
1 59 
1 60 
1 61 
1 62 
1 63 
1 64 
1 65 
1 66 
1 67 
1 68 
1 69 
1 70 
1 71 
1 72 
1 73 
1 74 
1 75 
1 76 
1 77 
1 78 
1 79 
1 80 
1 81 
1 82 
1 83 
1 84 
1 85 
1 86 
1 87 
1 88 
1 89 
1 90 
1 91 
1 92 
1 93 
1 94 
1 95 
1 96 
1 97 
1 98 
1 99 
1 100 
1 101 
1 102 
1 103 
1 104 
1 105 
1 106 
1 107 
1 108 
1 109 
1 110 
1 111 
1 112 
1 113 
1 114 
1 115 
1 116 
1 117 
1 118 
1 119 
1 120 
1 121 
1 122 
1 123 
1 124 
1 125 
1 126 
1 127 
1 128 
1 129 
1 130 
1 131 
1 132 
1 133 
1 134 
1 135 
1 136 
1 137 
1 138 
1 139 
1 140 
1 141 
1 142 
1 143 
1 144 
1 145 
1 146 
1 147 
1 148 
1 149 
1 150 
1 151 
1 152 
1 153 
1 154 
1 155 
1 156 
1 157 
1 158 
1 159 
1 160 
1 161 
1 162 
1 163 
1 164 
1 165 
1 166 
1 167 
1 168 
1 169 
1 170 
1 171 
1 172 
1 173 
1 174 
1 175 
1 176 
1 177 
1 178 
1 179 
1 180 
1 181 
1 182 
1 183 
1 184 
1 185 
1 186 
1 187 
1 188 
1 189 
1 190 
1 191 
1 192 
1 193 
1 194 
1 195 
1 196 
1 197 
1 198 
1 199 
1 200 
1 201 
1 202 
1 203 
1 204 
1 205 
1 206 
1 207 
1 208 
1 209 
1 210 
1 211 
1 212 
1 213 
1 214 
1 215 
1 216 
1 217 
1 218 
1 219 
1 220 
1 221 
1 222 
1 223 
1 224 
1 225 
1 226 
1 227 
1 228 
1 229 
1 230 
1 231 
1 232 
1 233 
1 234 
1 235 
1 236 
1 237 
1 238 
1 239 
1 240 
1 241 
1 242 
1 243 
1 244 
1 245 
1 246 
1 247 
1 248 
1 249 
1 250 
1 251 
1 252 
1 253 
1 254 
1 255 
1 256 
1 257 
1 258 
1 259 
1 260 
1 261 
1 262 
1 263 
1 264 
1 265 
1 266 
1 267 
1 268 
1 269 
1 270 
1 271 
1 272 
1 273 
1 274 
1 275 
1 276 
1 277 
1 278 
1 279 
1 280 
1 281 
1 282 
1 283 
1 284 
1 285 
1 286 
1 287 
1 288 
1 289 
1 290 
1 291 
1 292 
1 293 
1 294 
1 295 
1 296 
1 297 
1 298 
1 299 
1 300 
1 301 
1 302 
1 303 
1 304 
1 305 
1 306 
1 307 
1 308 
1 309 
1 310 
1 311 
1 312 
1 313 
1 314 
1 315 
1 316 
1 317 
1 318 
1 319 
1 320 
1 321 
1 322 
1 323 
1 324 
1 325 
1 326 
1 327 
1 328 
1 329 
1 330 
1 331 
1 332 
1 333 
1 334 
1 335 
1 336 
1 337 
1 338 
1 339 
1 340 
1 341 
1 342 
1 343 
1 344 
1 345 
1 346 
1 347 
1 348 
1 349 
1 350 
1 351 
1 352 
1 353 
1 354 
1 355 
1 356 
1 357 
1 358 
1 359 
1 360 
1 361 
1 362 
1 363 
1 364 
1 365 
1 366 
1 367 
1 368 
1 369 
1 370 
1 371 
1 372 
1 373 
1 374 
1 375 
1 376 
1 377 
1 378 
1 379 
1 380 
1 381 
1 382 
1 383 
1 384 
1 385 
1 386 
1 387 
1 388 
1 389 
1 390 
1 391 
1 392 
1 393 
1 394 
1 395 
1 396 
1 397 
1 398 
1 399 
1 400 
1 401 
1 402 
1 403 
1 404 
1 405 
1 406 
1 407 
1 408 
1 409 
1 410 
1 411 
1 412 
1 413 
1 414 
1 415 
1 416 
1 417 
1 418 
1 419 
1 420 
1 421 
1 422 
1 423 
1 424 
1 425 
1 426 
1 427 
1 428 
1 429 
1 430 
1 431 
1 432 
1 433 
1 434 
1 435 
1 436 
1 437 
1 438 
1 439 
1 440 
1 441 
1 442 
1 443 
1 444 
1 445 
1 446 
1 447 
1 448 
1 449 
1 450 
1 451 
1 452 
1 453 
1 454 
1 455 
1 456 
1 457 
1 458 
1 459 
1 460 
1 461 
1 462 
1 463 
1 464 
1 465 
1 466 
1 467 
1 468 
1 469 
1 470 
1 471 
1 472 
1 473 
1 474 
1 475 
1 476 
1 477 
1 478 
1 479 
1 480 
1 481 
1 482 
1 483 
1 484 
1 485 
1 486 
1 487 
1 488 
1 489 
1 490 
1 491 
1 492 
1 493 
1 494 
1 495 
1 496 
1 497 
1 498 
1 499 

POINT_DATA 500
FIELD FieldData 7
id 1 500 int
1 2 3 4 5 6 7 8 9 
10 11 12 13 14 15 16 17 18 
19 20 21 22 23 24 25 26 27 
28 29 30 31 32 33 34 35 36 
37 38 39 40 41 42 43 44 45 
46 47 48 49 50 51 52 53 54 
55 56 57 58 59 60 61 62 63 
64 65 66 67 68 69 70 71 72 
73 74 75 76 77 78 79 80 81 
82 83 84 85 86 87 88 89 90 
91 92 93 94 95 96 97 98 99 
100 101 102 103 104 105 106 107 108 
109 110 111 112 113 114 115 116 117 
118 119 120 121 122 123 124 125 126 
127 128 129 130 131 132 133 134 135 
136 137 138 139 140 141 142 143 144 
145 146 147 148 149 150 151 152 153 
154 155 156 157 158 159 160 161 162 
163 164 165 166 167 168 169 170 171 
172 173 174 175 176 177 178 179 180 
181 182 183 184 185 186 187 188 189 
190 191 192 193 194 195 196 197 198 
199 200 201 202 203 204 205 206 207 
208 209 210 211 212 213 214 215 216 
217 218 219 220 221 222 223 224 225 
226 227 228 229 230 231 232 233 234 
235 236 237 238 239 240 241 242 243 
244 245 246 247 248 249 250 251 252 
253 254 255 256 257 258 259 260 261 
262 263 264 265 266 267 268 269 270 
271 272 273 274 275 276 277 278 279 
280 281 282 283 284 285 286 287 288 
289 290 291 292 293 294 295 296 297 
298 299 300 301 302 303 304 305 306 
307 308 309 310 311 312 313 314 315 
316 317 318 319 320 321 322 323 324 
325 326 327 328 329 330 331 332 333 
334 335 336 337 338 339 340 341 342 
343 344 345 346 347 348 349 350 351 
352 353 354 355 356 357 358 359 360 
361 362 363 364 365 366 367 368 369 
370 371 372 373 374 375 376 377 378 
379 380 381 382 383 384 385 386 387 
388 389 390 391 392 393 394 395 396 
397 398 399 400 401 402 403 404 405 
406 407 408 409 410 411 412 413 414 
415 416 417 418 419 420 421 422 423 
424 425 426 427 428 429 430 431 432 
433 434 435 436 437 438 439 440 441 
442 443 444 445 446 447 448 449 450 
451 452 453 454 455 456 457 458 459 
460 461 462 463 464 465 466 467 468 
469 470 471 472 473 474 475 476 477 
478 479 480 481 482 483 484 485 486 
487 488 489 490 491 492 493 494 495 
496 497 498 499 500 
type 1 500 int
1 1 1 1 1 1 1 1 1 
1 1 1 1 1 1 1 1 1 
1 1 1 1 1 1 1 1 1 
1 1 1 1 1 1 1 1 1 
1 1 1 1 1 1 1 1 1 
1 1 1 1 1 1 1 1 1 
1 1 1 1 1 1 1 1 1 
1 1 1 1 1 1 1 1 1 
1 1 1 1 1 1 1 1 1 
1 1 1 1 1 1 1 1 1 
1 1 1 1 1 1 1 1 1 
1 1 1 1 1 1 1 1 1 
1 1 1 1 1 1 1 1 1 
1 1 1 1 1 1 1 1 1 
1 1 1 1 1 1 1 1 1 
1 1 1 1 1 1 1 1 1 
1 1 1 1 1 1 1 1 1 
1 1 1 1 1 1 1 1 1 
1 1 1 1 1 1 1 1 1 
1 1 1 1 1 1 1 1 1 
1 1 1 1 1 1 1 1 1 
1 1 1 1 1 1 1 1 1 
1 1 1 1 1 1 1 1 1 
1 1 1 1 1 1 1 1 1 
1 1 1 1 1 1 1 1 1 
1 1 1 1 1 1 1 1 1 
1 1 1 1 1 1 1 1 1 
1 1 1 1 1 1 1 1 1 
1 1 1 1 1 1 1 1 1 
1 1 1 1 1 1 1 1 1 
1 1 1 1 1 1 1 1 1 
1 1 1 1 1 1 1 1 1 
1 1 1 1 1 1 1 1 1 
1 1 1 1 1 1 1 1 1 
1 1 1 1 1 1 1 1 1 
1 1 1 1 1 1 1 1 1 
1 1 1 1 1 1 1 1 1 
1 1 1 1 1 1 1 1 1 
1 1 1 1 1 1 1 1 1 
1 1 1 1 1 1 1 1 1 
1 1 1 1 1 1 1 1 1 
1 1 1 1 1 1 1 1 1 
1 1 1 1 1 1 1 1 1 
1 1 1 1 1 1 1 1 1 
1 1 1 1 1 1 1 1 1 
1 1 1 1 1 1 1 1 1 
1 1 1 1 1 1 1 1 1 
1 1 1 1 1 1 1 1 1 
1 1 1 1 1 1 1 1 1 
1 1 1 1 1 1 1 1 1 
1 1 1 1 1 1 1 1 1 
1 1 1 1 1 1 1 1 1 
1 1 1 1 1 1 1 1 1 
1 1 1 1 1 1 1 1 1 
1 1 1 1 1 1 1 1 1 
1 1 1 1 1 
i 3 500 int
0 0 0 0 0 0 0 0 0 
0 0 0 0 0 0 0 0 0 
0 0 0 0 0 0 0 0 0 
0 0 0 0 0 0 0 0 0 
0 0 0 0 0 0 0 0 0 
0 0 0 0 0 0 0 0 0 
0 0 0 0 0 0 0 0 0 
0 0 0 0 0 0 0 0 0 
0 0 0 0 0 0 0 0 0 
0 0 0 0 0 0 0 0 0 
0 0 0 0 0 0 0 0 0 
0 0 0 0 0 0 0 0 0 
0 0 0 0 0 0 0 0 0 
0 0 0 0 0 0 0 0 0 
0 0 0 0 0 0 0 0 0 
0 0 0 0 0 0 0 0 0 
0 0 0 0 0 0 0 0 0 
0 0 0 0 0 0 0 0 0 
0 0 0 0 0 0 0 0 0 
0 0 0 0 0 0 0 0 0 
0 0 0 0 0 0 0 0 0 
0 0 0 0 0 0 0 0 0 
0 0 0 0 0 0 0 0 0 
0 0 0 0 0 0 0 0 0 
0 0 0 0 0 0 0 0 0 
0 0 0 0 0 0 0 0 0 
0 0 0 0 0 0 0 0 0 
0 0 0 0 0 0 0 0 0 
0 0 0 0 0 0 0 0 0 
0 0 0 0 0 0 0 0 0 
0 0 0 0 0 0 0 0 0 
0 0 0 0 0 0 0 0 0 
0 0 0 0 0 0 0 0 0 
0 0 0 0 0 0 0 0 0 
0 0 0 0 0 0 0 0 0 
0 0 0 0 0 0 0 0 0 
0 0 0 0 0 0 0 0 0 
0 0 0 0 0 0 0 0 0 
0 0 0 0 0 0 0 0 0 
0 0 0 0 0 0 0 0 0 
0 0 0 0 0 0 0 0 0 
0 0 0 0 0 0 0 0 0 
0 0 0 0 0 0 0 0 0 
0 0 0 0 0 0 0 0 0 
0 0 0 0 0 0 0 0 0 
0 0 0 0 0 0 0 0 0 
0 0 0 0 0 0 0 0 0 
0 0 0 0 0 0 0 0 0 
0 0 0 0 0 0 0 0 0 
0 0 0 0 0 0 0 0 0 
0 0 0 0 0 0 0 0 0 
0 0 0 0 0 0 0 0 0 
0 0 0 0 0 0 0 0 0 
0 0 0 0 0 0 0 0 0 
0 0 0 0 0 0 0 0 0 
0 0 0 0 0 0 0 0 0 
0 0 0 0 0 0 0 0 0 
0 0 0 0 0 0 0 0 0 
0 0 0 0 0 0 0 0 0 
0 0 0 0 0 0 0 0 0 
0 0 0 0 0 0 0 0 0 
0 0 0 0 0 0 0 0 0 
0 0 0 0 0 0 0 0 0 
0 0 0 0 0 0 0 0 0 
0 0 0 0 0 0 0 0 0 
0 0 0 0 0 0 0 0 0 
0 0 0 0 0 0 0 0 0 
0 0 0 0 0 0 0 0 0 
0 0 0 0 0 0 0 0 0 
0 0 0 0 0 0 0 0 0 
0 0 0 0 0 0 0 0 0 
0 0 0 0 0 0 0 0 0 
0 0 0 0 0 0 0 0 0 
0 0 0 0 0 0 0 0 0 
0 0 0 0 0 0 0 0 0 
0 0 0 0 0 0 0 0 0 
0 0 0 0 0 0 0 0 0 
0 0 0 0 0 0 0 0 0 
0 0 0 0 0 0 0 0 0 
0 0 0 0 0 0 0 0 0 
0 0 0 0 0 0 0 0 0 
0 0 0 0 0 0 0 0 0 
0 0 0 0 0 0 0 0 0 
0 0 0 0 0 0 0 0 0 
0 0 0 0 0 0 0 0 0 
0 0 0 0 0 0 0 0 0 
0 0 0 0 0 0 0 0 0 
0 0 0 0 0 0 0 0 0 
0 0 0 0 0 0 0 0 0 
0 0 0 0 0 0 0 0 0 
0 0 0 0 0 0 0 0 0 
0 0 0 0 0 0 0 0 0 
0 0 0 0 0 0 0 0 0 
0 0 0 0 0 0 0 0 0 
0 0 0 0 0 0 0 0 0 
0 0 0 0 0 0 0 0 0 
0 0 0 0 0 0 0 0 0 
0 0 0 0 0 0 0 0 0 
0 0 0 0 0 0 0 0 0 
0 0 0 0 0 0 0 0 0 
0 0 0 0 0 0 0 0 0 
0 0 0 0 0 0 0 0 0 
0 0 0 0 0 0 0 0 0 
0 0 0 0 0 0 0 0 0 
0 0 0 0 0 0 0 0 0 
0 0 0 0 0 0 0 0 0 
0 0 0 0 0 0 0 0 0 
0 0 0 0 0 0 0 0 0 
0 0 0 0 0 0 0 0 0 
0 0 0 0 0 0 0 0 0 
0 0 0 0 0 0 0 0 0 
0 0 0 0 0 0 0 0 0 
0 0 0 0 0 0 0 0 0 
0 0 0 0 0 0 0 0 0 
0 0 0 0 0 0 0 0 0 
0 0 0 0 0 0 0 0 0 
0 0 0 0 0 0 0 0 0 
0 0 0 0 0 0 0 0 0 
0 0 0 0 0 0 0 0 0 
0 0 0 0 0 0 0 0 0 
0 0 0 0 0 0 0 0 0 
0 0 0 0 0 0 0 0 0 
0 0 0 0 0 0 0 0 0 
0 0 0 0 0 0 0 0 0 
0 0 0 0 0 0 0 0 0 
0 0 0 0 0 0 0 0 0 
0 0 0 0 0 0 0 0 0 
0 0 0 0 0 0 0 0 0 
0 0 0 0 0 0 0 0 0 
0 0 0 0 0 0 0 0 0 
0 0 0 0 0 0 0 0 0 
0 0 0 0 0 0 0 0 0 
0 0 0 0 0 0 0 0 0 
0 0 0 0 0 0 0 0 0 
0 0 0 0 0 0 0 0 0 
0 0 0 0 0 0 0 0 0 
0 0 0 0 0 0 0 0 0 
0 0 0 0 0 0 0 0 0 
0 0 0 0 0 0 0 0 0 
0 0 0 0 0 0 0 0 0 
0 0 0 0 0 0 0 0 0 
0 0 0 0 0 0 0 0 0 
0 0 0 0 0 0 0 0 0 
0 0 0 0 0 0 0 0 0 
0 0 0 0 0 0 0 0 0 
0 0 0 0 0 0 0 0 0 
0 0 0 0 0 0 0 0 0 
0 0 0 0 0 0 0 0 0 
0 0 0 0 0 0 0 0 0 
0 0 0 0 0 0 0 0 0 
0 0 0 0 0 0 0 0 0 
0 0 0 0 0 0 0 0 0 
0 0 0 0 0 0 0 0 0 
0 0 0 0 0 0 0 0 0 
0 0 0 0 0 0 0 0 0 
0 0 0 0 0 0 0 0 0 
0 0 0 0 0 0 0 0 0 
0 0 0 0 0 0 0 0 0 
0 0 0 0 0 0 0 0 0 
0 0 0 0 0 0 0 0 0 
0 0 0 0 0 0 0 0 0 
0 0 0 0 0 0 0 0 0 
0 0 0 0 0 0 0 0 0 
0 0 0 0 0 0 0 0 0 
0 0 0 0 0 0 0 0 0 
0 0 0 0 0 0 0 0 0 
0 0 0 0 0 0 
v 3 500 double
0.354541 0.244418 0.436292 0.882828 -0.28532 -2.79362 -0.44702 0.00946351 -0.203193 
1.44228 -0.00166702 -1.22246 -0.258342 -0.0600496 -0.0441512 -0.662674 0.200666 -0.740691 
-0.976314 -0.29078 -0.24797 -0.355462 0.031393 -0.230889 -0.187731 0.0172905 -0.381996 
0.0651554 -0.282816 -0.340355 -0.203239 0.0811737 -0.308586 -0.0959652 -0.124458 0.075624 
-0.806971 0.847593 0.255765 -0.167088 -0.435966 0.237604 -0.341783 0.060187 -0.288526 
0.451909 -0.0643114 -3.99598 -0.684663 -0.0815031 -0.141392 -0.0646458 0.0496059 0.197685 
-1.31841 -0.420734 0.292819 -0.341186 0.123961 -0.0946238 -0.475294 1.14631 0.590287 
-0.421406 0.000351846 -0.0136446 0.163236 0.0910064 0.00230919 -0.785803 0.273385 -0.520817 
0.719355 0.00885414 -1.52127 0.236632 -0.24249 -0.88597 -0.00529319 -0.0637487 0.0621472 
0.0399839 0.0977495 -0.00522508 -0.0457377 0.110035 -0.0078804 0.233905 0.11095 -4.14689 
-0.916193 0.36999 0.135644 -0.0278792 0.0507163 -0.101462 0.551919 0.014396 -3.98014 
0.316175 0.0369893 -0.367305 0.538795 -0.123414 -0.943452 -1.86597 -0.567071 -0.492801 
0.611336 -0.14817 0.0411988 -1.0861 0.373122 -0.419487 -0.43734 0.0131836 0.387657 
-0.0288896 0.0351653 -0.0396649 0.0499839 0.00981633 2.497e-06 1.6826 0.317832 0.316837 
-0.482997 -0.16549 0.455757 0.07481 -0.435866 -0.0910105 -0.211853 -0.0811797 0.206508 
0.0323556 0.00380232 0.0668907 -0.858797 0.23964 -0.133113 -1.45089 -0.0881812 0.549911 
-0.080404 0.0132389 -0.0387014 0.456587 0.103271 0.402292 0.0284493 0.133683 0.246274 
-0.0422453 -0.00225767 -0.0554954 -0.964053 -0.214076 0.498122 -1.42343 0.0787174 -0.492142 
1.23518 0.203478 -0.299339 -0.0453296 -0.640561 -1.32586 -0.0283925 -0.170824 -3.56284 
-0.296479 0.0707144 0.124213 -0.678784 0.0994551 -0.299389 -1.22851 0.107733 0.438039 
-0.407107 -0.313964 -0.301801 0.107482 0.0931513 -0.0160776 -1.0777 0.551049 0.0829887 
-1.09042 -0.0959376 0.840699 -0.43644 0.238882 0.956908 -0.0549989 0.0252531 -0.0865054 
0.111047 -0.26534 -0.145701 0.0518402 -0.0501367 0.151915 -0.0511964 0.164507 0.162287 
-1.16399 0.270509 0.395059 0.0898514 0.0604978 0.000433419 0.139251 -0.206476 -0.332437 
0.346909 0.317235 -0.25157 -1.42095 -0.289683 -0.286345 -0.772539 -0.261668 0.0837315 
-0.769269 -1.43028 -0.679095 -1.01552 0.474246 0.800284 0.412353 0.131177 -0.217426 
-0.2169 0.0734582 -0.0495412 -0.124302 0.1048 0.253005 -1.19709 -0.413048 -0.136544 
0.920737 -0.0793944 -0.503581 0.381408 -0.206867 0.221683 -0.370384 0.0788722 0.909522 
0.0619722 0.00544377 -0.0244376 -1.91405 -0.461848 0.370468 -0.347897 -0.19917 -0.536346 
-1.61595 0.603155 -2.07724 0.0809974 -0.24592 0.231774 -0.988662 -0.452957 -0.644868 
1.14491 0.27161 -0.230413 -0.191942 0.27911 -0.198359 1.11048 -0.102562 -0.537689 
-1.22885 -0.675136 -0.746392 -0.772067 0.201472 0.493906 1.4309 0.410072 -0.583638 
-0.372864 -0.181096 0.657131 -0.0756548 -0.330071 0.496302 0.927491 -0.132715 -1.4993 
-1.11011 -0.1772 -0.203831 -0.563643 0.305758 0.164477 0.00798609 0.00676015 0.006576 
-0.399914 -0.229566 -0.121169 -0.464856 -0.155864 -0.0913579 0.095504 0.41763 -0.0101221 
1.76973 0.0993917 -0.177009 -2.42584 -0.361796 0.724087 -0.954015 -0.125965 0.569093 
0.0720403 -0.112132 0.373595 -0.732057 -0.550723 -0.119174 0.272814 0.176371 0.427021 
-0.940777 -0.149708 0.355995 0.0844456 0.0278091 -0.0467289 1.2312 0.135867 -0.531071 
-0.409788 0.215188 0.291897 1.21424 -0.261916 0.412226 0.189388 -0.0339716 -0.00997074 
-0.317042 0.269778 0.0103817 -0.0897145 0.0245579 0.175479 0.92559 -0.0167282 0.616216 
0.0348444 -0.505488 -0.709742 0.523231 0.0340865 -0.323208 0.0685617 -0.00558753 -0.0414419 
0.0139454 0.0443288 0.0724836 0.0788208 0.105738 -0.0204143 -1.33689 0.125311 0.351866 
0.0289432 0.0233444 -0.00803772 0.0968682 -1.01903 -0.373544 -0.044277 0.0483837 0.00675939 
-1.70163 0.642695 0.180036 -0.365284 0.000753282 1.07312 0.0064533 0.0667725 -0.0406991 
0.085046 0.11877 -0.883684 -0.931899 -0.219063 1.04827 -0.778938 -0.0845348 0.278699 
0.337336 0.0275395 0.0122948 -1.32703 -0.0351903 0.38992 -0.0152217 -0.0653402 0.661249 
-0.0791952 0.193796 -0.267552 -0.342399 0.62045 -0.67277 -0.0570023 0.0861877 -0.0989174 
-0.00524752 0.1042 0.0433874 -0.070452 0.209239 -0.0260577 -0.0521384 -0.331149 0.0345566 
0.0667707 0.0308879 0.120734 0.344499 -0.799999 -0.181558 -1.33795 -0.383947 -0.345234 
-1.42864 0.0772558 -0.44732 -0.0961176 -0.0658871 0.0277471 0.180871 0.00603346 0.601784 
-1.02664 -0.114747 -0.343435 0.143298 0.0155014 -0.0279798 -1.78005 -0.264785 0.184385 
-0.160699 -0.0326077 0.179398 0.600273 0.138474 -1.06245 0.0621383 -0.0972342 -0.0952663 
-1.78201 0.449439 0.314499 0.150391 -0.00719861 -0.0719405 -2.27679 0.321781 0.138795 
-0.23236 -0.13447 -0.11275 -1.34983 -0.112087 -0.675062 0.536658 -0.0294133 -0.12056 
-1.15053 0.0990385 0.511863 -1.56089 0.860518 -0.116089 -1.56451 -0.269121 0.122923 
0.0314536 0.125056 0.241134 -2.11927 0.088218 0.0282344 1.0788 -0.0802489 0.806075 
-0.962999 0.369453 0.107987 -1.93342 -0.485592 0.189325 0.266432 -0.146292 0.491452 
-0.919822 0.252653 0.419624 0.696875 0.0883033 -4.35316 0.10141 0.229825 -0.344823 
-2.20824 0.0304094 0.408144 -1.52736 -0.322682 0.0758238 -0.757015 -0.520231 -0.18844 
-0.0181974 0.168826 -0.00881749 -1.69597 0.849922 1.37468 -1.27035 -0.429421 -0.0403936 
-0.162593 0.13454 1.36479 0.0891229 -0.113137 0.0381673 -0.0753734 -0.0263197 -0.0864219 
-1.6699 -0.348114 -0.0529278 -0.790106 -0.120196 -0.158036 0.151433 -0.101206 0.0262908 