# Probe 0 (0.05 0.05 -0.499)
# Probe 1 (0.05 0.05 1.499)
#       Probe             0             1
#        Time
        0.005       2168.07       6.12609
         0.01       2034.43   0.000759839
        0.015        2020.4   -0.00154406
         0.02       2020.08  -0.000231777
        0.025       2020.75    0.00066426
         0.03       2018.88   0.000859596
        0.035       2017.53    0.00131951
         0.04       2017.98    0.00128823
        0.045       2017.98   -0.00169007
         0.05       2017.33   -0.00223162
        0.055        2017.3   2.83726e-05
         0.06        2017.7    0.00110025
        0.065       2017.69    0.00147067
         0.07        2017.4    0.00120937
        0.075       2017.39    0.00137636
         0.08       2017.38  -0.000456724
        0.085       2017.37   -0.00189306
         0.09       2017.37  -0.000266068
        0.095       2017.37    0.00118204
          0.1       2017.36    0.00158326
        0.105       2017.35    0.00178721
         0.11       2017.35   0.000613643
        0.115       2017.35  -0.000106071
         0.12       2017.35   0.000130396
        0.125       2017.34   0.000246527
         0.13       2017.34   0.000929503
        0.135       2017.34    0.00154999
         0.14       2017.34    0.00117496
        0.145       2017.34    0.00114988
         0.15       2017.35   0.000638429
        0.155       2017.35    0.00129112
         0.16       2017.34    0.00147846
        0.165       2017.35   0.000685462
         0.17       2017.35    0.00115603
        0.175        2017.6    0.00181722
         0.18       2017.59    0.00164535
        0.185       2017.59    0.00144228
         0.19       2017.59     0.0013584
        0.195       2017.59    0.00136319
          0.2       2017.59    0.00131963
        0.205        2017.6    0.00161137
         0.21       2017.59     0.0017027
        0.215       2017.59    0.00199201
         0.22        2017.6    0.00128065
        0.225        2017.6    0.00213432
         0.23       2017.78    0.00181285
        0.235       2017.78    0.00238077
         0.24       2017.78     0.0015454
        0.245       2017.78    0.00240179
         0.25       2017.78     0.0023955
        0.255       2017.78     0.0016743
         0.26       2017.78    0.00249109
        0.265       2017.78    0.00194263
         0.27       2017.78    0.00238684
        0.275       2017.78    0.00146302
         0.28       2017.79    0.00280201
        0.285       2017.79    0.00213658
         0.29       2017.79    0.00261174
        0.295       2017.79   0.000983736
          0.3       2017.99    0.00265934
        0.305       2017.99    0.00158016
         0.31       2017.99    0.00150716
        0.315       2017.99    0.00100264
         0.32       2017.99    0.00133407
        0.325       2017.99    0.00135562
         0.33       2017.99    0.00108217
        0.335       2017.99  -0.000640045
         0.34       2017.99  -0.000509796
        0.345       2017.99  -0.000145338
         0.35       2017.99  -0.000961876
        0.355       2017.99   -0.00090785
         0.36       2017.99   -0.00148045
        0.365       2017.99   -0.00308863
         0.37          2018   -0.00200772
        0.375          2018   -0.00230137
         0.38          2018   -0.00393619
        0.385          2018   -0.00417539
         0.39          2018   -0.00474583
        0.395          2018   -0.00581069
          0.4          2018   -0.00651974
        0.405          2018   -0.00695331
         0.41          2018   -0.00777234
        0.415          2018   -0.00819671
         0.42          2018   -0.00861565
        0.425          2018   -0.00764124
         0.43          2018   -0.00811306
        0.435          2018   -0.00851737
         0.44          2018   -0.00913411
        0.445          2018   -0.00845835
         0.45          2018   -0.00908693
        0.455          2018   -0.00756818
         0.46          2018   -0.00758622
        0.465          2018   -0.00761437
         0.47          2018   -0.00761437
        0.475          2018   -0.00674472
         0.48          2018   -0.00701023
        0.485       2017.99   -0.00554064
         0.49       2017.75   -0.00678684
        0.495       2017.75   -0.00540332
          0.5       2017.75   -0.00528224
        0.505       2017.75   -0.00424902
         0.51       2017.75   -0.00426694
        0.515       2017.75   -0.00372782
         0.52       2017.75   -0.00339753
        0.525       2017.75   -0.00170825
         0.53       2017.74   -0.00275817
        0.535       2017.74   -0.00208767
         0.54       2017.74   -0.00227462
        0.545       2017.74   -0.00149477
         0.55       2017.74   -0.00168505
        0.555       2017.74   -0.00123691
         0.56       2017.74   -0.00122914
        0.565       2017.74  -0.000948036
         0.57       2017.42   -0.00129931
        0.575       2017.42   -0.00100849
         0.58       2017.42  -0.000733541
        0.585       2017.42  -0.000756523
         0.59       2017.42   -0.00063792
