# Probe 0 (0.05 0.05 -0.499)
# Probe 1 (0.05 0.05 1.499)
#       Probe             0             1
#        Time
        0.005           263           263
         0.01           263           263
        0.015           263           263
         0.02           263           263
        0.025           263           263
         0.03           263           263
        0.035           263           263
         0.04           263           263
        0.045           263           263
         0.05           263           263
        0.055           263           263
         0.06           263           263
        0.065           263           263
         0.07           263           263
        0.075           263           263
         0.08           263           263
        0.085           263           263
         0.09           263           263
        0.095           263           263
          0.1           263           263
        0.105           263           263
         0.11           263           263
        0.115           263           263
         0.12           263       263.001
        0.125           263       263.001
         0.13           263       263.001
        0.135           263       263.001
         0.14           263       263.002
        0.145           263       263.002
         0.15           263       263.003
        0.155           263       263.004
         0.16           263       263.005
        0.165           263       263.006
         0.17           263       263.007
        0.175           263       263.009
         0.18           263       263.011
        0.185           263       263.014
         0.19           263       263.017
        0.195           263       263.021
          0.2           263       263.026
        0.205           263       263.031
         0.21           263       263.037
        0.215           263       263.045
         0.22           263       263.053
        0.225           263       263.063
         0.23           263       263.075
        0.235           263       263.088
         0.24           263       263.103
        0.245           263       263.121
         0.25           263       263.141
        0.255           263       263.163
         0.26           263       263.189
        0.265           263       263.218
         0.27           263       263.251
        0.275           263       263.288
         0.28           263       263.329
        0.285           263       263.375
         0.29           263       263.426
        0.295           263       263.483
          0.3           263       263.546
        0.305           263       263.615
         0.31           263       263.691
        0.315           263       263.775
         0.32           263       263.867
        0.325           263       263.967
         0.33           263       264.076
        0.335           263       264.194
         0.34           263       264.323
        0.345           263       264.461
         0.35           263        264.61
        0.355           263        264.77
         0.36           263       264.942
        0.365           263       265.125
         0.37           263       265.321
        0.375           263       265.529
         0.38           263        265.75
        0.385           263       265.984
         0.39           263       266.232
        0.395           263       266.493
          0.4           263       266.768
        0.405           263       267.056
         0.41           263       267.359
        0.415           263       267.675
         0.42           263       268.005
        0.425           263       268.349
         0.43           263       268.706
        0.435           263       269.078
         0.44           263       269.464
        0.445           263       269.863
         0.45           263       270.277
        0.455           263       270.705
         0.46           263       271.147
        0.465           263       271.603
         0.47           263       272.073
        0.475           263       272.558
         0.48           263       273.057
        0.485           263       273.569
         0.49           263       274.096
        0.495           263       274.635
          0.5           263       275.188
        0.505           263       275.754
         0.51           263       276.333
        0.515           263       276.925
         0.52           263       277.529
        0.525           263       278.146
         0.53           263       278.776
        0.535           263       279.418
         0.54           263       280.072
        0.545           263       280.738
         0.55           263       281.417
        0.555           263       282.107
         0.56           263        282.81
        0.565           263       283.525
         0.57           263       284.251
        0.575           263        284.99
         0.58           263        285.74
        0.585           263       286.502
         0.59           263       287.275
