/*--------------------------------*- C++ -*----------------------------------*\
| =========                 |                                                 |
| \\      /  F ield         | OpenFOAM: The Open Source CFD Toolbox           |
|  \\    /   O peration     | Version:  5.x                                   |
|   \\  /    A nd           | Web:      www.OpenFOAM.org                      |
|    \\/     M anipulation  |                                                 |
\*---------------------------------------------------------------------------*/
FoamFile
{
    version     2.0;
    format      ascii;
    class       volScalarField;
    location    "0.6";
    object      alpha.water;
}
// * * * * * * * * * * * * * * * * * * * * * * * * * * * * * * * * * * * * * //

dimensions      [0 0 0 0 0 0 0];

internalField   nonuniform List<scalar> 
2268
(
1
1
1
1
1
1
1
1
1
1
1
1
1
1
1
1
1
1
0.961256
0.831543
0.996387
1
0.999769
1
1
1
1
1
1
1
1
1
1
1
1
1
1
1
1
1
1
0.994202
0.894774
0.933148
0.999997
0.997588
1
1
1
1
1
1
1
1
1
1
1
1
1
1
1
1
1
1
1
0.996582
0.911378
0.986423
0.998365
1
1
1
1
1
1
1
1
1
1
1
1
1
1
1
1
1
1
1
1
0.921721
0.975718
1
1
1
1
1
1
1
1
1
1
1
1
1
1
1
1
1
1
1
1
1
0.993186
0.999128
0.999997
1
1
1
1
1
1
1
1
1
1
1
1
1
1
1
1
1
1
1
1
1
0.99999
0.999996
1
1
1
0.999999
0.999997
0.999997
0.999999
1
1
1
1
1
1
1
1
1
1
1
1
1
1
1
0.999999
1
0.999492
0.985361
0.969938
0.967522
0.98032
0.999675
0.999988
0.999998
1
1
1
1
1
1
1
1
1
1
1
1
1
0.999948
0.163557
0.504835
0.979369
0.983463
1
0.564106
0.78144
0.946312
0.83497
0.827304
0.898228
0.935334
0.962175
0.983339
0.996597
1
1
0.937831
0.889686
0.290035
0.764907
1
1
1
0.716643
0.773674
0.602253
0.153872
0.138273
0.237277
0.301076
0.383637
0.490223
0.631544
0.796661
0.939109
1
1
0.516258
0.999998
0.999999
1
1
0.845054
0.678608
0.0821611
0.00130555
0.00130555
0.00130355
0.00131898
0.00141474
0.00185257
0.00348869
0.0910575
0.415414
0.872798
1
0.730068
0.999989
0.999984
1
0.999999
0.846059
0.432674
0.00313373
0.002325
0.00372179
0.00795322
0.00679651
0.00426836
0.00362304
0.00353946
0.00404424
0.0122681
0.52818
1
0.96928
0.997487
0.999998
0.999999
0.999998
0.78731
0.195822
0.00355437
0.00326931
0.0126263
0.0126263
0.0126263
0.0126239
0.0114488
0.00349923
0.00314537
0.00293801
0.306518
1
1
0.999911
0.999995
0.999998
0.999996
0.783757
0.351257
0.00599805
0.00955581
0.0125246
0.0124673
0.0126239
0.0126358
0.0126358
0.0125955
0.00298169
0.000400085
0.23432
1
1
0.999999
0.999998
0.999998
0.99999
0.843122
0.650875
0.0092472
0.00428375
0.00213
0.000490635
0.00610607
0.0124958
0.0126358
0.0125672
0.00215177
0.000346145
0.223498
1
1
0.999999
0.999998
0.999998
0.941989
0.820331
0.562347
0.00858458
0.000217217
8.92997e-05
0.000120702
0.000165973
0.0013384
0.00866465
0.0100237
0.00118146
0.000342994
0.274044
0.9843
0.710966
0.570585
0.455728
0.434137
0.45943
0.543148
0.678275
0.794856
0.878498
0.944813
0.991227
1
1
1
1
1
1
1
1
1
1
1
0.999948
1.62414e-26
4.6332e-11
4.22468e-06
0.00637006
0.0555175
0.102353
0.122308
0.138185
0.186781
0.274668
0.39911
0.539729
0.683026
0.855011
0.995791
1
1
1
1
1
1
1
0.999968
1.27348e-10
4.431e-08
1.0844e-11
8.61022e-12
8.86428e-12
1.95388e-11
1.24658e-10
3.02818e-10
5.87893e-10
1.03328e-09
9.52462e-09
0.00349597
0.0570236
0.157208
0.316936
0.508468
0.645951
0.812984
0.952868
0.982754
0.988929
0.995078
0.999581
3.3902e-09
4.11998e-10
8.61022e-12
8.61022e-12
8.6017e-12
8.86428e-12
1.0919e-11
3.76774e-11
5.48662e-10
5.87893e-10
1.03328e-09
9.52462e-09
1.44663e-07
2.11908e-06
2.76819e-06
0.00955283
0.0407887
0.0855721
0.192607
0.305544
0.383862
0.463258
0.56588
4.53101e-10
4.26704e-12
1.51063e-10
1.69427e-10
1.29216e-11
1.0158e-11
1.03232e-11
3.38946e-11
1.07802e-09
1.12447e-09
1.235e-09
4.44424e-07
8.77508e-06
1.05529e-05
2.5892e-06
2.54586e-06
2.5053e-06
2.54586e-06
2.58201e-06
2.63741e-06
2.87131e-06
5.94074e-06
1.69184e-05
2.44373e-12
9.94812e-14
5.86845e-12
2.06353e-11
2.52622e-11
3.29227e-11
3.5108e-11
3.42104e-11
1.46287e-08
9.8728e-08
8.43249e-08
4.37219e-08
2.84127e-06
2.41217e-05
2.37498e-05
3.98174e-06
2.48242e-06
2.5395e-06
4.13717e-06
8.76917e-06
2.3364e-05
2.29707e-05
2.44421e-05
1.20886e-14
5.29838e-15
5.87412e-14
4.59452e-12
4.21761e-11
9.73231e-11
1.18024e-10
3.50693e-11
1.57185e-08
1.67306e-07
1.67306e-07
1.2696e-07
4.94738e-08
1.65207e-08
6.69204e-10
3.6667e-12
1.0843e-06
3.22758e-06
1.1652e-05
1.34973e-05
0.000110999
0.000259526
0.00024034
2.82112e-16
1.85091e-16
2.65576e-14
2.71497e-12
3.8573e-11
1.25539e-10
1.7075e-10
7.77892e-11
1.97916e-09
7.15991e-08
1.62968e-07
8.05486e-08
1.02905e-07
2.02796e-07
5.39539e-08
1.54456e-13
3.52771e-12
1.3984e-07
3.94314e-06
2.44687e-06
4.56281e-05
0.000342278
0.000342269
5.2834e-18
1.49531e-18
4.2425e-15
9.23607e-13
2.24487e-11
1.07156e-10
1.71021e-10
1.54695e-10
5.72065e-11
3.14543e-09
1.59406e-08
2.26904e-11
1.26422e-07
4.11668e-07
1.64058e-07
-8.11817e-35
1.54677e-14
5.11899e-09
9.90957e-08
2.20782e-06
1.5827e-06
0.000234375
0.000342282
9.49243e-20
2.25296e-20
3.59639e-16
1.95916e-13
7.80668e-12
5.36331e-11
1.1284e-10
1.10663e-10
5.71818e-11
3.61372e-11
2.26904e-11
1.74401e-11
1.65109e-08
2.36696e-07
1.28639e-08
-3.80003e-13
-6.54074e-22
1.54677e-14
1.70824e-12
1.64436e-10
1.47227e-08
0.000140526
0.000342251
2.68329e-22
8.66769e-22
4.52609e-17
4.14508e-14
2.04293e-12
1.59715e-11
3.70137e-11
3.73378e-11
2.59145e-11
4.35936e-11
3.55644e-11
1.74351e-11
2.00574e-10
-9.55371e-14
-1.36538e-12
-1.23442e-12
-3.47946e-21
2.93076e-14
2.8947e-12
2.35278e-10
1.62103e-08
9.30395e-05
0.00033383
-8.79672e-21
5.12671e-23
6.36833e-18
8.57654e-15
4.67626e-13
3.6314e-12
8.17132e-12
7.97598e-12
9.3491e-12
5.6454e-11
4.11076e-11
1.59211e-11
-7.7023e-15
-3.51407e-13
-2.5944e-12
-1.53545e-12
-1.32779e-13
-1.31123e-17
4.90952e-13
2.53596e-11
9.73311e-10
2.60641e-07
0.000218861
-1.42625e-20
4.12742e-24
1.23749e-18
1.5733e-15
9.57982e-14
7.19901e-13
1.52634e-12
1.5045e-12
4.06287e-12
3.23045e-11
1.78486e-11
9.21276e-12
2.51933e-12
-2.20733e-13
-1.95948e-12
-1.37028e-12
-3.10559e-13
2.68944e-14
2.86552e-13
7.98805e-13
2.54365e-11
1.24217e-09
3.10243e-08
-1.24731e-20
2.77718e-23
6.78553e-19
2.55158e-16
1.68038e-14
1.22129e-13
2.47094e-13
2.61645e-13
7.72933e-13
3.49828e-12
3.07429e-12
3.42757e-12
2.78568e-12
-8.16445e-15
-8.30266e-13
-6.39353e-13
-1.61126e-13
1.48571e-13
7.29131e-13
1.3006e-12
5.06478e-12
1.37218e-10
3.71822e-09
-9.29806e-21
-3.69286e-39
2.73981e-19
3.58593e-17
2.32025e-15
1.64879e-14
3.5528e-14
4.62425e-14
8.85911e-14
2.48822e-13
6.75223e-13
9.87279e-13
9.28326e-13
4.54074e-14
-1.9408e-13
-1.70771e-13
-1.88254e-14
8.75149e-14
1.04925e-12
1.0841e-11
7.36076e-11
2.54381e-10
3.05873e-09
-6.79978e-21
-6.51177e-22
7.35589e-20
4.22297e-18
2.44321e-16
1.71874e-15
4.49961e-15
9.43788e-15
2.50712e-14
7.80995e-14
1.65479e-13
1.8944e-13
1.26213e-13
2.88058e-14
-1.45536e-14
-2.59071e-14
-4.05438e-15
1.46227e-14
6.4387e-13
8.51119e-12
4.27711e-11
1.05848e-10
2.28829e-10
-4.94013e-21
-2.75432e-21
1.29401e-20
3.87405e-19
1.89781e-17
1.43091e-16
5.66632e-16
2.34572e-15
7.78315e-15
1.81508e-14
2.5214e-14
2.22499e-14
1.30212e-14
8.51167e-15
3.45144e-15
2.13254e-16
9.69913e-16
3.81503e-15
1.31009e-13
5.0411e-12
6.21175e-11
2.07237e-10
2.97243e-10
-3.39578e-21
-2.24813e-21
5.90594e-22
2.67082e-20
1.02998e-18
1.01897e-17
8.7484e-17
6.21249e-16
2.19572e-15
3.92202e-15
4.3462e-15
3.52754e-15
1.87312e-15
8.47546e-16
7.13375e-16
2.34354e-16
2.2488e-16
9.08931e-16
2.82171e-14
1.23077e-12
3.17464e-11
2.34386e-10
6.2557e-10
-2.11205e-21
-1.2413e-21
-2.54059e-22
1.26147e-21
3.95998e-20
7.48831e-19
1.5316e-17
1.39757e-16
5.16616e-16
8.89615e-16
9.71097e-16
7.99121e-16
4.22441e-16
1.26422e-16
2.96547e-17
1.27957e-17
1.00478e-17
2.74854e-16
8.62022e-15
2.36806e-13
8.4061e-12
1.37868e-10
6.20034e-10
-1.15967e-21
-5.49813e-22
-4.70256e-22
1.29767e-23
1.04496e-21
6.81372e-20
2.30616e-18
2.36291e-17
9.49826e-17
1.77129e-16
2.02735e-16
1.75011e-16
9.46171e-17
2.79411e-17
4.26391e-18
9.40835e-19
1.50221e-18
8.88263e-17
3.19506e-15
6.72417e-14
1.61549e-12
4.07029e-11
3.55791e-10
-5.55572e-22
-1.92717e-22
-2.99965e-22
-3.66636e-23
2.28673e-23
5.83069e-21
2.49233e-19
2.95194e-18
1.32749e-17
2.73496e-17
3.30509e-17
3.05345e-17
1.76645e-17
5.65644e-18
9.00465e-19
1.81366e-19
3.45704e-19
2.46706e-17
1.10713e-15
2.34273e-14
3.68048e-13
8.04842e-12
1.13228e-10
-2.31095e-22
-5.13027e-23
-1.17958e-22
-2.9161e-23
4.51439e-25
3.21809e-22
1.86621e-20
2.7638e-19
1.37952e-18
3.08148e-18
3.90588e-18
3.85137e-18
2.46272e-18
8.76103e-19
1.56639e-19
3.40197e-20
7.38612e-20
5.82168e-18
3.22525e-16
7.82352e-15
1.09835e-13
1.98556e-12
3.70058e-11
-8.34245e-23
-1.00157e-23
-3.13734e-23
-1.02559e-23
2.1914e-27
9.73149e-24
1.03327e-21
1.91078e-20
1.02194e-19
2.40835e-19
3.20851e-19
3.3011e-19
2.35072e-19
9.34126e-20
1.93122e-20
5.33843e-21
1.48899e-20
1.27363e-18
8.86781e-17
2.70386e-15
3.95259e-14
5.90962e-13
1.28966e-11
-2.62189e-23
-1.44713e-24
-6.10538e-24
-2.35845e-24
-5.86236e-26
2.55775e-25
4.2544e-23
9.00434e-22
5.05189e-21
1.24405e-20
1.7487e-20
1.856e-20
1.44625e-20
6.3264e-21
1.556e-21
6.21306e-22
2.96357e-21
2.70908e-19
2.33792e-17
9.28511e-16
1.48614e-14
1.7698e-13
3.49858e-12
-7.21532e-24
-1.5704e-25
-9.16766e-25
-4.03178e-25
-2.33009e-26
5.25053e-27
9.92679e-25
2.42583e-23
1.48766e-22
3.9271e-22
5.8997e-22
6.47949e-22
5.31965e-22
2.46208e-22
7.34326e-23
4.41124e-23
5.76287e-22
5.38985e-20
5.39146e-18
2.79384e-16
5.2419e-15
5.46104e-14
7.53135e-13
-1.75161e-24
-1.3525e-26
-1.11272e-25
-5.49565e-26
-4.63357e-27
7.25076e-29
1.18429e-26
3.19286e-25
2.17191e-24
6.17341e-24
9.81894e-24
1.11261e-23
9.3886e-24
4.57969e-24
2.03811e-24
2.21157e-24
1.04277e-22
9.71324e-21
1.06201e-18
7.28828e-17
1.75685e-15
1.81576e-14
1.55754e-13
-3.78186e-25
-9.73529e-28
-1.13443e-26
-6.25513e-27
-6.53632e-28
9.08752e-31
1.17112e-28
2.98554e-27
2.09355e-26
6.24913e-26
1.05775e-25
1.25539e-25
1.12021e-25
6.6251e-26
4.80314e-26
1.93512e-25
1.73846e-23
1.63136e-21
1.89114e-19
1.69885e-17
5.48284e-16
6.10156e-15
3.63237e-14
-7.32087e-26
-6.19753e-29
-1.00104e-27
-6.14231e-28
-7.36436e-29
1.2196e-32
1.37471e-30
3.24698e-29
2.22483e-28
6.86799e-28
1.2753e-27
1.65605e-27
1.61911e-27
1.24124e-27
1.26697e-27
2.75646e-26
2.71126e-24
2.6068e-22
3.14079e-20
3.44698e-18
1.45254e-16
1.87331e-15
1.02514e-14
-1.27961e-26
-7.5929e-30
-7.82224e-29
-5.3297e-29
-7.02787e-30
1.67291e-34
1.76238e-32
4.07361e-31
2.77308e-30
8.66594e-30
1.67541e-29
2.29691e-29
2.37567e-29
2.07643e-29
5.26433e-29
4.10832e-27
3.84913e-25
3.80888e-23
4.69912e-21
5.87025e-19
3.12559e-17
5.00631e-16
3.19758e-15
-2.03132e-27
-2.15718e-30
-5.50855e-30
-4.16038e-30
-5.88054e-31
2.27579e-36
2.29149e-34
5.30707e-33
3.64977e-32
1.14843e-31
2.21646e-31
3.0494e-31
3.23606e-31
3.16379e-31
4.60608e-30
5.17248e-28
4.64277e-26
4.74274e-24
5.97391e-22
8.29604e-20
5.55835e-18
1.14461e-16
9.51223e-16
-2.9407e-28
-5.57124e-31
-3.54491e-31
-2.96167e-31
-4.41269e-32
3.06867e-38
2.9858e-36
6.95996e-35
4.85802e-34
1.54909e-33
3.00073e-33
4.14607e-33
4.53865e-33
8.35736e-33
5.27341e-31
5.08587e-29
4.46512e-27
4.70515e-25
6.0782e-23
9.45238e-21
8.25796e-19
2.18583e-17
2.30155e-16
-3.89212e-29
-1.1105e-31
-2.1093e-32
-1.94315e-32
-3.01658e-33
4.12174e-40
3.90814e-38
9.17275e-37
6.49359e-36
2.10401e-35
4.13168e-35
5.82599e-35
6.86911e-35
4.9935e-34
5.08797e-32
3.9358e-30
3.36341e-28
3.56023e-26
4.69964e-24
8.15014e-22
9.80001e-20
3.36301e-18
4.03358e-17
-4.71644e-30
-1.79835e-32
-1.17627e-33
-1.18522e-33
-1.90095e-34
5.53864e-42
5.15484e-40
1.21708e-38
8.7169e-38
2.86444e-37
5.70247e-37
8.25478e-37
1.24199e-36
3.8265e-35
3.64094e-33
2.59587e-31
2.10056e-29
2.10209e-27
2.7434e-25
5.11816e-23
8.76555e-21
4.08588e-19
5.1155e-18
-5.23662e-31
-2.49261e-33
-6.26984e-35
-6.76944e-35
-1.11482e-35
7.48038e-44
6.86734e-42
1.62738e-40
1.17585e-39
3.90587e-39
7.85953e-39
1.17097e-38
3.2501e-38
2.49017e-36
2.12672e-34
1.58903e-32
1.21647e-30
1.0954e-28
1.33117e-26
2.51214e-24
6.03269e-22
4.04261e-20
5.2367e-19
-5.3267e-32
-3.02017e-34
-3.30706e-36
-3.64455e-36
-6.13549e-37
1.01916e-45
9.25248e-44
2.19401e-42
1.59409e-41
5.33425e-41
1.08256e-40
1.68036e-40
1.16914e-39
1.2362e-37
1.10048e-35
9.11845e-34
7.00249e-32
5.87001e-30
6.48516e-28
1.18348e-25
3.70902e-23
3.521e-21
4.86751e-20
-4.96199e-33
-3.2325e-35
-1.81667e-37
-1.86132e-37
-3.19276e-38
1.40252e-47
1.25924e-45
2.97903e-44
2.17087e-43
7.29584e-43
1.49095e-42
2.47914e-42
4.19798e-41
4.80412e-39
4.87165e-37
4.60518e-35
3.85624e-33
3.33318e-31
3.63341e-29
6.63418e-27
2.46486e-24
2.89229e-22
4.22297e-21
-4.23231e-34
-3.0885e-36
-1.08738e-38
-9.07103e-39
-1.58161e-39
1.94727e-49
1.72585e-47
4.066e-46
2.96691e-45
9.994e-45
2.05472e-44
3.76112e-44
1.20111e-42
1.47796e-40
1.72911e-38
1.87667e-36
1.82697e-34
1.8255e-32
2.26295e-30
4.5483e-28
1.84816e-25
2.2236e-23
3.19857e-22
-3.30679e-35
-2.64188e-37
-7.04343e-40
-4.24039e-40
-7.50255e-41
2.71982e-51
2.37468e-49
5.56794e-48
4.06465e-47
1.37143e-46
2.83538e-46
5.70019e-46
2.60227e-44
3.56227e-42
4.69582e-40
5.74869e-38
6.74191e-36
8.5931e-34
1.35959e-31
3.24103e-29
1.3582e-26
1.46698e-24
1.89333e-23
-2.37119e-36
-2.02022e-38
-4.62731e-41
-1.90955e-41
-3.42506e-42
3.80697e-53
3.26762e-51
7.6295e-50
5.57473e-49
1.88506e-48
3.91909e-48
8.47352e-48
4.61685e-46
6.82999e-44
9.66427e-42
1.30515e-39
1.87018e-37
3.20257e-35
6.70807e-33
1.91811e-30
7.85529e-28
7.23165e-26
7.77733e-25
-1.56765e-37
-1.38599e-39
-2.92961e-42
-8.31007e-43
-1.51006e-43
5.30996e-55
4.47914e-53
1.04355e-51
7.6402e-51
2.59389e-50
5.42447e-50
1.2341e-49
7.37672e-48
1.11561e-45
1.60802e-43
2.32144e-41
3.9887e-39
9.02118e-37
2.38724e-34
7.70927e-32
2.90211e-29
2.29723e-27
2.01506e-26
-9.62585e-39
-8.58826e-41
-1.72173e-43
-3.50192e-44
-6.4428e-45
7.35921e-57
6.11201e-55
1.42346e-53
1.02794e-52
3.39648e-52
6.82469e-52
1.60178e-51
1.1009e-49
1.66443e-47
2.38884e-45
3.54477e-43
6.80913e-41
1.88245e-38
5.81918e-36
1.91753e-33
6.24575e-31
4.40693e-29
3.32407e-28
-5.54128e-40
-4.7695e-42
-8.98105e-45
-1.43049e-45
-2.66319e-46
5.08016e-59
4.17106e-57
1.04461e-55
2.3833e-54
1.80675e-53
6.61112e-53
1.51769e-52
7.68392e-52
1.16914e-49
1.66291e-47
2.4698e-45
5.00595e-43
1.64125e-40
5.8566e-38
1.88317e-35
5.14283e-33
3.33689e-31
2.4164e-30
0.999958
0.999986
1
1
0.999961
0.999986
0.999999
1
0.999949
0.999968
0.999974
0.999961
0.647741
0.682715
0.670997
0.615428
0.0456975
0.0580418
0.0321234
0.0186521
2.50868e-05
3.20668e-05
3.82215e-05
2.50437e-05
0.000100449
3.85927e-05
2.80335e-05
1.7961e-05
0.000342277
0.000323605
4.72703e-05
1.60713e-05
0.000342251
0.00018047
1.77444e-05
1.59707e-05
0.000130393
1.60159e-05
1.59649e-05
1.59707e-05
1.89703e-05
1.80421e-05
1.97804e-05
1.59707e-05
0.000372089
0.000373186
0.000371296
0.000354363
2.38864e-05
0.000225245
0.000369303
0.00036986
3.70446e-07
1.73514e-05
7.29415e-05
0.00010936
7.68334e-09
1.67998e-08
6.27739e-08
1.33935e-07
4.15628e-10
1.16993e-09
3.4871e-09
7.36524e-09
3.12242e-10
4.85306e-10
8.36303e-10
1.27275e-09
7.48453e-10
7.7572e-10
8.36047e-10
9.93829e-10
1.01755e-09
1.0309e-09
1.03014e-09
1.03255e-09
8.27636e-10
9.77135e-10
1.01796e-09
1.02411e-09
4.1667e-10
6.57177e-10
7.8336e-10
8.29278e-10
1.94767e-10
4.35416e-10
6.35971e-10
7.56513e-10
9.1333e-11
2.98463e-10
5.41186e-10
7.19268e-10
3.05877e-11
1.49581e-10
3.52473e-10
5.49058e-10
6.65149e-12
4.46423e-11
1.36465e-10
2.5633e-10
1.02084e-12
7.91938e-12
3.1658e-11
7.69771e-11
1.43971e-13
1.2537e-12
8.61658e-12
3.17358e-11
3.05604e-14
2.90459e-13
3.5629e-12
1.87675e-11
9.65027e-15
6.77501e-14
1.05928e-12
8.0803e-12
3.42211e-15
1.3669e-14
1.21949e-13
1.15996e-12
1.02223e-15
2.83049e-15
6.62053e-15
2.72392e-14
2.05206e-16
5.83612e-16
8.55125e-16
2.09875e-16
2.56306e-17
9.54507e-17
1.67094e-16
2.16511e-17
2.1955e-18
1.08501e-17
2.61973e-17
4.66791e-18
1.59585e-19
9.38971e-19
3.09059e-18
7.07937e-19
1.17085e-20
7.95307e-20
3.30106e-19
7.1651e-20
8.39884e-22
6.83227e-21
3.14304e-20
5.49046e-21
4.81939e-23
4.48833e-22
2.08104e-21
2.78074e-22
1.78511e-24
1.69084e-23
7.8352e-23
8.51419e-24
3.88332e-26
3.63833e-25
1.84559e-24
1.56532e-25
5.55319e-28
5.7006e-27
3.33937e-26
1.62488e-27
9.19774e-30
4.19794e-29
2.7525e-28
8.08285e-28
0.999999
0.999999
0.999998
0.999996
0.539805
0.647542
0.184378
0.00416124
8.82171e-05
6.89114e-05
8.96887e-05
0.000316723
0.000817495
0.000449094
0.000382516
0.00126213
0.000343052
0.325572
0.944607
0.999997
0.999994
0.999996
0.999955
0.244559
0.491512
0.000958633
0.000554913
6.86812e-05
6.11313e-05
6.68576e-05
0.000495535
0.000756464
0.00038212
0.000345775
0.000343322
0.000343052
0.335172
0.913907
0.997851
0.999871
0.999955
0.683047
0.117658
0.248262
0.000297147
6.77595e-05
6.08816e-05
5.87495e-05
5.90557e-05
0.000399653
0.00113194
0.00117083
0.000933458
0.000343797
0.000343052
0.25342
0.881939
0.552907
0.799727
0.981912
0.222128
0.00212439
0.00121716
0.000126237
5.8431e-05
5.87495e-05
5.84799e-05
5.87495e-05
5.90557e-05
0.000704217
0.00133987
0.00133987
0.000763973
0.000343797
0.218147
0.876623
0.0537711
0.39814
0.826374
0.138805
0.000462684
0.000312778
7.64448e-05
5.87851e-05
5.84799e-05
5.84799e-05
6.01275e-05
0.00022204
0.000226734
0.000761685
0.00133987
0.000762569
0.000351371
0.260511
0.935125
0.000164379
0.059258
0.451712
0.417664
0.000330057
0.000134527
6.60721e-05
5.91263e-05
5.85148e-05
5.84799e-05
0.000361239
0.000594869
0.0002354
0.000286962
0.000857211
0.000399609
0.0003654
0.369092
0.983055
2.4149e-05
0.000486159
0.249027
0.518695
0.227886
0.000102484
6.73425e-05
6.02908e-05
5.8784e-05
5.85148e-05
0.000269229
0.000594869
0.000385524
0.000358589
0.000640509
0.000451842
0.000399609
0.464611
0.995398
1.65306e-05
2.86144e-05
0.0523688
0.515016
0.531819
0.0762777
0.000101401
6.72009e-05
6.02854e-05
6.02396e-05
8.24545e-05
9.94728e-05
0.000224649
0.000575585
0.00100871
0.00075317
0.000815815
0.616095
1
1.60168e-05
1.65306e-05
0.000100543
0.121695
0.52741
0.53158
0.224277
0.000211124
8.37389e-05
6.96607e-05
9.18289e-05
0.000177149
0.00108974
0.0178584
0.126579
0.257223
0.347581
0.767393
0.999854
1.59707e-05
1.60168e-05
2.0315e-05
0.000151254
0.139685
0.474206
0.473853
0.431397
0.150666
0.00021398
0.000177781
0.0227393
0.268751
0.481721
0.728105
0.722232
0.669498
0.573808
0.789132
6.30049e-05
0.000173444
0.000302354
0.000123
0.000225641
0.087986
0.396033
0.482743
0.410328
0.186291
0.170122
0.517755
0.803149
0.808143
0.818795
0.603294
0.217271
0.219255
0.615159
0.000359399
0.000353089
7.14968e-05
0.000106957
0.000529863
0.000563273
0.0155339
0.233407
0.622235
0.706701
0.707815
0.70522
0.647064
0.823525
0.822692
0.435636
0.217271
0.217271
0.738685
0.000367788
0.000123494
3.52403e-05
4.30266e-05
9.30775e-05
0.000722179
0.134848
0.617118
0.700359
0.704087
0.648409
0.165895
0.0886279
0.597444
0.971172
0.922459
0.365862
0.37479
0.941201
7.99861e-05
1.50289e-06
1.21094e-05
7.64326e-05
0.000177742
0.0142524
0.348064
0.581709
0.575013
0.267708
0.0304462
0.000524338
0.00143276
0.168325
0.987485
0.990583
0.967467
0.881613
1
1.80689e-07
1.8735e-07
1.83472e-05
0.000109606
0.000241994
0.000409939
0.000479664
0.0149399
0.0299866
0.000649324
4.74558e-05
0.000112541
0.000478827
0.0397887
0.63431
0.991078
0.991078
0.989536
0.988281
1.14779e-08
5.49891e-08
3.32972e-06
5.98636e-06
1.28547e-06
7.05092e-05
0.000680449
0.000917144
0.000267757
3.23568e-05
7.59424e-06
6.18377e-06
6.16672e-05
0.000612192
0.180488
0.835309
0.991078
0.905406
0.705098
1.5509e-09
2.29079e-09
9.31403e-09
1.48753e-08
9.09088e-09
6.64382e-08
5.28403e-05
0.000347942
0.000470973
1.38817e-05
5.16541e-06
7.56242e-07
1.72992e-06
1.1874e-05
0.000116537
0.0851985
0.610542
0.890889
0.592399
1.04974e-09
1.04485e-09
1.24577e-09
2.08511e-09
2.41097e-09
4.8285e-09
6.03008e-08
3.95102e-06
0.000139823
0.000135804
3.60344e-06
6.93511e-07
7.449e-07
1.49837e-06
1.20031e-05
0.00012211
0.00127131
0.442425
0.905238
1.02484e-09
9.96653e-10
8.66047e-10
1.52746e-09
2.02832e-09
2.41115e-09
4.82698e-09
6.02696e-08
4.09299e-07
6.60515e-05
8.49315e-06
6.8173e-07
6.90665e-07
8.03224e-07
2.65533e-06
1.80034e-05
0.000153001
0.0527437
0.658784
1.0142e-09
9.31811e-10
8.14359e-10
7.4477e-09
2.71395e-08
7.17809e-08
7.14808e-08
7.47136e-08
1.03659e-07
3.07944e-07
3.04379e-06
6.76825e-07
1.69708e-06
1.03376e-05
5.83619e-05
8.72043e-05
0.000165767
0.0310627
0.398406
8.46478e-10
8.18497e-10
8.13935e-10
4.72379e-09
1.34828e-07
1.69523e-07
1.71031e-07
1.19737e-07
1.21487e-07
1.33748e-07
1.28754e-07
1.21106e-07
8.0413e-06
1.71693e-05
0.000143956
0.000831493
0.00264939
0.00314267
1.54494e-21
8.30414e-10
8.53312e-10
8.14014e-10
1.99161e-09
5.12786e-08
1.59913e-07
1.71386e-07
1.34003e-07
1.2219e-07
1.21412e-07
1.20472e-07
1.19964e-07
1.21106e-07
1.39144e-05
9.54077e-05
0.000768538
0.00304466
0.000319859
3.56775e-20
8.54522e-10
9.31503e-10
9.17786e-10
1.00694e-09
1.05011e-09
1.48321e-08
4.93066e-08
1.65947e-07
1.21415e-07
1.20472e-07
1.19964e-07
1.19968e-07
1.19967e-07
4.59764e-06
9.86164e-06
5.3248e-05
0.00224412
0.00272635
0
7.45245e-10
8.93041e-10
9.95726e-10
1.66577e-09
2.0585e-09
2.08215e-09
2.21572e-09
1.30304e-07
4.82696e-07
1.98679e-07
1.20036e-07
1.19968e-07
4.12714e-07
7.51719e-06
1.31281e-06
1.41863e-06
0.000641817
0.00549835
0.0047644
4.30967e-10
6.29335e-10
8.71868e-10
1.85712e-09
3.8299e-09
4.50126e-09
2.47e-09
5.1207e-08
6.81477e-07
6.9182e-07
5.77936e-07
2.75166e-07
3.10802e-07
2.14902e-06
1.24648e-06
0.00037467
0.007727
0.00500098
0.231909
1.78328e-10
3.31786e-10
5.60557e-10
1.11123e-09
5.59745e-09
2.251e-08
1.47462e-08
1.49276e-08
3.68563e-07
6.95256e-07
6.95217e-07
5.39353e-07
1.25707e-07
1.7369e-06
1.24586e-06
0.00685815
0.0139018
0.00496586
0.417642
9.40709e-11
1.85356e-10
2.7236e-10
4.39167e-10
1.03441e-08
2.5639e-08
2.5639e-08
1.78816e-08
1.29032e-08
5.30971e-07
6.95275e-07
5.68119e-07
2.05156e-08
4.04681e-06
1.24648e-06
0.010267
0.0146226
0.0148006
0.121583
6.38832e-11
1.22611e-10
1.40413e-10
5.99734e-10
6.50986e-09
9.97043e-09
1.74036e-08
1.92039e-08
1.27647e-08
5.9136e-09
6.58108e-07
4.59416e-07
6.52463e-09
5.00632e-06
1.25162e-06
0.00143066
0.012204
0.0100763
0
3.67954e-11
7.93174e-11
1.62521e-10
9.24063e-10
2.08865e-09
1.02978e-09
8.55779e-10
8.90277e-09
1.26044e-08
5.79817e-09
9.724e-08
8.70943e-08
2.80848e-09
4.99579e-06
1.23714e-06
1.06121e-06
0.000840384
5.84234e-06
3.41326e-20
1.3236e-11
4.6591e-11
2.49126e-10
9.73546e-10
1.09e-09
4.34358e-10
3.30432e-10
1.22911e-09
5.88342e-09
5.27277e-09
1.25122e-09
1.30363e-09
1.63455e-09
1.15349e-06
8.56118e-07
1.12802e-06
1.33165e-06
8.92048e-07
-2.72674e-19
2.89349e-12
2.59555e-11
2.52596e-10
7.87399e-10
6.4114e-10
2.61904e-10
2.40455e-10
2.40455e-10
4.35922e-10
1.23665e-09
1.2383e-09
1.25122e-09
4.16676e-06
1.138e-06
1.17505e-05
1.00923e-05
3.86937e-06
5.88797e-06
0.00349107
5.50424e-13
1.11436e-11
1.70483e-10
4.44973e-10
6.69742e-10
1.16285e-08
2.61904e-10
2.40455e-10
3.99914e-10
4.11231e-10
1.76324e-07
3.86393e-06
8.2379e-06
2.00605e-06
2.98381e-05
9.50946e-06
5.37955e-06
1.59706e-05
0.246735
1.02728e-13
2.6937e-12
5.20249e-11
1.39036e-10
2.02477e-11
9.12029e-08
2.48638e-07
6.7412e-08
4.11231e-10
5.09525e-10
9.003e-07
5.62807e-06
7.33443e-06
9.51386e-07
1.40547e-07
7.49069e-08
1.86432e-05
0.000110815
0.494436
1.44171e-14
3.18658e-13
6.06935e-12
2.30256e-11
1.85397e-11
1.73526e-12
6.50807e-07
1.4085e-06
1.40415e-07
3.01573e-09
2.09983e-07
7.57752e-07
2.4705e-07
1.09176e-09
1.05541e-09
1.05541e-09
0.00180485
0.0513774
0.51889
1.34131e-15
2.34967e-14
3.54632e-13
2.56727e-12
1.1184e-11
1.89264e-14
5.4775e-08
1.40918e-06
1.40918e-06
8.14649e-07
8.83362e-07
4.07881e-07
1.72249e-07
2.3011e-08
7.13389e-10
1.12457e-09
0.00532289
0.0702079
0.0984966
1.08452e-16
2.03301e-15
2.52195e-14
2.60622e-13
1.14557e-12
5.53504e-15
1.62776e-14
5.66153e-08
1.05594e-06
1.38884e-06
1.38884e-06
1.38884e-06
1.36787e-06
1.16009e-07
1.31027e-10
0.000161975
0.00754407
2.1783e-05
6.03492e-24
1.12422e-17
2.54239e-16
4.22497e-15
1.96257e-14
4.19421e-14
5.45131e-15
1.4578e-16
1.12804e-18
0
1.9123e-07
9.08653e-07
9.25072e-07
3.25886e-07
6.00109e-10
0
1.31027e-10
0.00138321
4.20532e-05
0.0138811
1.31823e-18
3.13523e-17
8.30794e-16
9.95421e-16
9.75209e-16
4.59844e-16
9.54435e-19
2.42015e-34
-2.25016e-19
-2.9661e-18
-6.51264e-18
-6.51166e-18
-7.44055e-18
-1.13e-17
-8.99694e-18
0
1.65601e-10
3.31202e-10
0.0530045
1.20945e-19
2.67617e-18
8.06117e-17
3.7806e-17
1.54583e-17
1.59177e-17
7.02328e-19
-8.32978e-23
-1.9209e-17
-9.90756e-17
-1.15213e-16
-9.78433e-17
-7.79162e-17
-5.52687e-17
-2.74004e-17
1.23228e-07
1.5536e-08
3.16356e-10
0.0123785
6.65902e-21
1.26706e-19
2.51446e-18
1.09678e-18
3.2378e-19
-8.32228e-18
-6.82862e-18
-2.06776e-18
-2.35828e-16
-3.32829e-16
-3.01067e-16
-2.27818e-16
-1.30836e-16
-5.96268e-17
-1.81684e-17
2.81463e-07
4.32635e-08
1.50755e-10
4.25758e-21
1.81606e-22
2.80809e-21
2.68832e-20
3.60458e-20
1.0709e-20
-7.25034e-18
-1.27865e-17
-2.84754e-17
-1.25277e-16
-1.14111e-16
-6.61064e-17
-3.34842e-17
-1.31531e-17
-4.60302e-18
-9.89795e-19
2.27933e-07
2.36701e-08
-3.18147e-26
0.00188191
1.5542e-24
1.95711e-23
1.15578e-22
5.90635e-22
1.26929e-22
-2.42205e-18
-1.77933e-18
-5.59652e-18
-3.24814e-17
-1.74657e-17
-5.27287e-18
-1.30922e-18
-2.48796e-19
-4.20375e-20
-5.11869e-21
-9.46394e-22
-2.28929e-22
-2.97854e-23
-4.15706e-25
)
;

boundaryField
{
    leftWall
    {
        type            zeroGradient;
    }
    rightWall
    {
        type            zeroGradient;
    }
    lowerWall
    {
        type            zeroGradient;
    }
    atmosphere
    {
        type            inletOutlet;
        inletValue      uniform 0;
        value           nonuniform List<scalar> 
46
(
-5.54128e-40
-4.7695e-42
-8.98105e-45
-1.43049e-45
-2.66319e-46
5.08016e-59
4.17106e-57
1.04461e-55
2.3833e-54
1.80675e-53
6.61112e-53
1.51769e-52
7.68392e-52
1.16914e-49
1.66291e-47
2.4698e-45
5.00595e-43
1.64125e-40
5.8566e-38
1.88317e-35
5.14283e-33
3.33689e-31
2.4164e-30
9.19774e-30
4.19794e-29
2.7525e-28
8.08285e-28
1.5542e-24
1.95711e-23
1.15578e-22
5.90635e-22
1.26929e-22
-2.42205e-18
0
0
0
0
0
0
0
0
0
0
0
0
0
)
;
    }
    defaultFaces
    {
        type            empty;
    }
}


// ************************************************************************* //
