/*--------------------------------*- C++ -*----------------------------------*\
| =========                 |                                                 |
| \\      /  F ield         | OpenFOAM: The Open Source CFD Toolbox           |
|  \\    /   O peration     | Version:  5.x                                   |
|   \\  /    A nd           | Web:      www.OpenFOAM.org                      |
|    \\/     M anipulation  |                                                 |
\*---------------------------------------------------------------------------*/
FoamFile
{
    version     2.0;
    format      ascii;
    class       volScalarField;
    location    "0.6";
    object      p;
}
// * * * * * * * * * * * * * * * * * * * * * * * * * * * * * * * * * * * * * //

dimensions      [1 -1 -2 0 0 0 0];

internalField   nonuniform List<scalar> 
2268
(
526.17
523.854
524.686
529.104
538.453
552.719
569.708
586.002
601.46
617.639
635.583
655.314
676.385
698.289
720.473
742.287
762.868
779.844
793.828
800.035
793.597
806.128
841.604
467.176
464.2
464.818
469.067
478.224
492.53
509.933
526.483
542.057
558.296
576.191
595.888
617.016
639
661.238
683.147
703.92
721.728
737.247
748.555
732.054
735.051
777.184
407.522
403.983
404.321
408.02
416.686
431.026
449.2
466.323
482.15
498.521
516.575
536.43
557.666
579.724
601.941
623.625
644.09
662.519
677.987
691.513
676.242
669.44
715.409
347.903
343.586
343.256
346.111
353.893
368.295
387.48
405.615
421.866
438.421
456.623
476.657
498.1
520.393
542.796
564.526
584.902
603.484
618.88
631.182
624.931
617.488
661.032
288.879
283.373
281.961
283.499
290.135
304.814
325.223
344.523
361.279
378.084
396.444
416.658
438.376
461.049
483.826
505.802
526.364
545.17
560.979
573.694
576.456
575.989
613.05
230.607
223.962
220.526
221.063
227.069
242.153
263.283
283.15
300.271
317.422
336.065
356.455
378.486
401.668
425.011
447.371
468.25
487.473
504.118
518.151
526.996
533.42
567.313
172.863
166.13
161.53
160.947
166.35
181.207
201.813
221.246
238.575
256.212
275.249
295.987
318.49
342.39
366.48
389.287
410.512
430.202
447.707
462.877
475.083
484.758
513.185
114.995
104.975
97.3167
98.8077
105.445
119.967
139.33
158.001
176.037
195.253
214.077
235.069
258.084
282.85
308.023
331.482
353.15
373.422
391.722
407.76
421.883
436.637
460.786
698.511
686.959
861.939
1163.21
1227.86
1165.58
1216.3
767.053
377.283
237.766
205.167
205.296
219.797
235.584
241.764
358.754
814.948
1374.17
1391.62
675.761
604.316
726.929
1037.06
1083.92
1074.91
1073.24
414.713
193.497
164.713
162.117
162.168
165.492
168.21
172.655
253.455
635.849
1249.85
1322.74
628.465
530.993
633.572
899.936
903.824
910.077
753.402
214.103
174.135
160.29
155.45
153.245
153.846
153.021
149.296
154.745
298.77
963.816
1231.44
571.315
459.243
550.616
757.616
699.548
596.849
300.231
186.59
172.431
160.337
154.339
152.46
154.123
153.367
147.459
143.673
185.611
553.805
1117.98
518.246
396.512
475.448
623.714
507.205
349.184
171.082
178.519
170.043
157.111
149.948
149.596
152.475
150.887
148.042
141.926
150.484
260.565
987.693
472.5
352.015
409.936
505.398
345.269
210.559
147.72
173.015
159.605
145.502
139.785
143.454
148.672
148.951
146.5
141.219
141.6
157.761
834.56
438.326
332.357
359.043
404.79
214.943
136.327
164.685
161.818
146.577
138.902
136.307
137.244
142.667
144.936
143.282
140.74
141.218
143.55
662.89
378.455
323.358
321.684
320.002
96.5099
67.1898
160.393
147.754
140.853
136.488
134.615
134.876
138.366
140.347
140.632
140.45
141.728
141.455
503.365
45.328
36.0063
27.8653
29.1236
37.4356
47.5332
58.1786
68.1914
80.621
96.8938
116.946
138.805
163.497
190.632
217.698
241.827
263.823
284.846
304.368
321.354
335.933
347.27
352.119
0.401869
0.394212
0.297951
0.357207
3.32239
6.26613
7.64054
8.65051
11.6214
17.125
25.0208
34.937
50.9009
71.6922
96.8287
121.7
144.43
165.976
186.633
204.954
221.659
238.763
261.475
0.143086
0.0974018
0.0254403
-0.0273251
0.0079258
-0.033925
-0.0909543
-0.118451
-0.121431
-0.135328
-0.149552
0.294228
3.23107
9.59462
19.8629
32.9937
47.1193
61.6757
76.9037
91.7844
105.011
117.474
132.174
0.00401541
-0.0374356
-0.184973
-0.256086
-0.197817
-0.237395
-0.303087
-0.325609
-0.3068
-0.283619
-0.24971
-0.176528
-0.137375
-0.106624
-0.0312044
0.512029
2.42895
5.33036
11.8967
19.1498
24.2627
29.2434
35.8494
-0.17305
-0.185604
-0.27064
-0.289596
-0.279976
-0.338874
-0.390759
-0.416027
-0.421777
-0.410314
-0.385158
-0.3561
-0.321953
-0.268685
-0.222668
-0.181785
-0.143981
-0.106372
-0.0742124
0.00362607
0.121783
0.210748
0.367986
-0.363733
-0.37545
-0.409009
-0.446859
-0.460754
-0.477925
-0.499118
-0.51021
-0.511776
-0.502874
-0.479055
-0.451876
-0.42229
-0.39541
-0.371764
-0.351369
-0.323366
-0.282132
-0.230035
-0.150113
-0.0417641
0.107266
0.276823
-0.535199
-0.544752
-0.562585
-0.585207
-0.596674
-0.6131
-0.628115
-0.638128
-0.640896
-0.633816
-0.620252
-0.601176
-0.576017
-0.543891
-0.512798
-0.480019
-0.44594
-0.408543
-0.364672
-0.308995
-0.236629
-0.11961
-0.0391481
-0.696941
-0.704157
-0.714612
-0.728395
-0.738078
-0.749268
-0.758101
-0.761722
-0.759216
-0.751284
-0.737962
-0.721618
-0.702483
-0.683007
-0.659221
-0.633834
-0.605824
-0.573015
-0.534834
-0.490551
-0.441005
-0.376036
-0.305606
-0.85505
-0.859468
-0.865742
-0.874787
-0.881942
-0.888809
-0.893965
-0.896315
-0.895279
-0.890125
-0.880362
-0.866424
-0.847754
-0.826856
-0.804601
-0.781125
-0.756265
-0.729434
-0.700977
-0.671266
-0.643941
-0.63304
-0.637887
-1.00912
-1.01187
-1.01572
-1.02146
-1.02615
-1.03041
-1.03313
-1.0336
-1.03096
-1.02488
-1.01575
-1.00375
-0.989362
-0.972344
-0.9536
-0.933756
-0.912741
-0.890888
-0.869541
-0.849985
-0.835649
-0.849265
-0.89328
-1.1607
-1.16247
-1.16477
-1.16825
-1.17107
-1.17346
-1.17453
-1.17378
-1.17074
-1.16524
-1.15719
-1.14669
-1.13392
-1.11971
-1.10411
-1.08764
-1.07048
-1.05324
-1.03751
-1.02488
-1.02025
-1.03686
-1.05981
-1.31069
-1.31183
-1.31316
-1.31521
-1.31677
-1.3179
-1.31796
-1.31661
-1.31346
-1.30836
-1.3013
-1.29239
-1.28198
-1.26987
-1.25689
-1.24331
-1.22941
-1.21596
-1.20456
-1.19768
-1.20154
-1.22335
-1.2462
-1.45971
-1.46044
-1.46119
-1.46234
-1.46309
-1.46346
-1.46295
-1.46138
-1.45835
-1.45384
-1.44782
-1.44041
-1.43175
-1.42199
-1.41144
-1.40046
-1.38945
-1.37909
-1.37075
-1.36759
-1.37641
-1.40315
-1.44231
-1.60817
-1.60861
-1.60902
-1.60967
-1.60995
-1.60992
-1.60919
-1.60761
-1.60497
-1.6012
-1.59629
-1.59032
-1.5834
-1.5757
-1.56744
-1.55892
-1.5505
-1.54269
-1.53646
-1.53461
-1.5408
-1.56175
-1.59652
-1.75633
-1.75655
-1.75684
-1.75718
-1.75726
-1.75706
-1.75635
-1.75499
-1.75287
-1.74993
-1.74617
-1.74164
-1.73645
-1.73074
-1.72472
-1.71861
-1.71273
-1.70743
-1.70313
-1.70065
-1.70514
-1.71932
-1.74297
-1.90432
-1.90444
-1.90468
-1.90488
-1.90491
-1.90474
-1.9042
-1.90322
-1.90172
-1.89966
-1.89705
-1.89396
-1.89048
-1.88676
-1.88297
-1.87934
-1.87614
-1.87371
-1.87251
-1.87334
-1.87828
-1.88974
-1.90892
-2.05221
-2.05231
-2.05254
-2.05272
-2.05283
-2.0528
-2.05255
-2.05204
-2.05121
-2.05006
-2.04861
-2.04694
-2.04514
-2.04335
-2.04178
-2.04065
-2.04024
-2.0409
-2.04319
-2.04792
-2.05623
-2.06989
-2.09184
-2.20004
-2.20017
-2.2004
-2.20066
-2.2009
-2.20111
-2.20122
-2.20122
-2.2011
-2.20086
-2.20055
-2.20025
-2.20007
-2.20017
-2.20075
-2.20207
-2.20444
-2.20826
-2.21414
-2.22295
-2.23587
-2.25446
-2.28173
-2.3478
-2.34796
-2.34825
-2.34862
-2.34905
-2.34953
-2.35004
-2.35058
-2.35116
-2.35181
-2.35259
-2.3536
-2.35495
-2.35683
-2.35946
-2.3631
-2.3681
-2.37494
-2.38423
-2.39688
-2.4141
-2.4375
-2.46959
-2.49546
-2.49566
-2.49602
-2.49652
-2.49717
-2.49795
-2.49887
-2.49995
-2.5012
-2.50269
-2.50449
-2.50671
-2.50948
-2.51299
-2.51748
-2.52323
-2.53062
-2.54013
-2.55241
-2.56831
-2.58901
-2.61596
-2.65123
-2.64298
-2.64321
-2.64365
-2.64431
-2.64517
-2.64625
-2.64757
-2.64916
-2.65105
-2.65331
-2.65604
-2.65935
-2.66339
-2.66835
-2.67448
-2.68207
-2.69151
-2.70327
-2.71797
-2.73642
-2.75967
-2.78896
-2.82591
-2.79031
-2.79057
-2.79109
-2.7919
-2.79297
-2.79434
-2.79603
-2.79809
-2.80055
-2.80351
-2.80706
-2.81133
-2.81646
-2.82267
-2.83018
-2.8393
-2.85041
-2.86396
-2.88051
-2.90079
-2.9257
-2.95628
-2.99376
-2.93739
-2.93768
-2.93828
-2.93923
-2.9405
-2.94213
-2.94416
-2.94662
-2.9496
-2.95316
-2.95741
-2.96248
-2.96853
-2.97575
-2.98439
-2.99473
-3.00711
-3.02198
-3.03982
-3.06127
-3.08707
-3.11805
-3.15516
-3.08417
-3.08448
-3.08516
-3.08623
-3.08768
-3.08954
-3.09185
-3.09468
-3.09807
-3.10213
-3.10696
-3.11268
-3.11946
-3.12748
-3.13697
-3.14821
-3.1615
-3.17724
-3.19587
-3.2179
-3.24394
-3.27466
-3.31073
-3.23061
-3.23094
-3.23168
-3.23286
-3.23445
-3.2365
-3.23906
-3.24217
-3.24591
-3.25036
-3.25564
-3.26186
-3.26918
-3.27778
-3.28787
-3.2997
-3.31355
-3.32977
-3.34872
-3.37085
-3.39663
-3.42656
-3.46109
-3.37666
-3.37701
-3.3778
-3.37907
-3.38077
-3.38297
-3.38571
-3.38904
-3.39304
-3.39778
-3.40338
-3.40995
-3.41764
-3.42661
-3.43706
-3.4492
-3.46331
-3.47965
-3.49856
-3.52037
-3.54548
-3.57429
-3.60682
-3.5223
-3.52267
-3.52348
-3.52482
-3.5266
-3.52891
-3.53178
-3.53526
-3.53943
-3.54436
-3.55016
-3.55694
-3.56483
-3.57398
-3.58456
-3.59679
-3.61086
-3.62704
-3.64557
-3.66674
-3.69083
-3.7181
-3.74879
-3.66748
-3.66792
-3.66871
-3.67009
-3.67192
-3.67429
-3.67723
-3.6808
-3.68506
-3.69008
-3.69597
-3.70282
-3.71076
-3.71991
-3.73045
-3.74253
-3.75635
-3.7721
-3.79001
-3.81027
-3.8331
-3.85873
-3.88732
-3.8122
-3.81271
-3.81343
-3.81488
-3.81671
-3.8191
-3.82206
-3.82565
-3.82992
-3.83495
-3.84082
-3.84762
-3.85547
-3.86448
-3.87479
-3.88654
-3.89991
-3.91503
-3.93211
-3.95128
-3.9727
-3.99656
-4.02293
-3.95645
-3.95704
-3.95765
-3.95917
-3.96095
-3.96333
-3.96626
-3.96981
-3.97403
-3.97898
-3.98473
-3.99138
-3.99902
-4.00775
-4.01769
-4.02896
-4.04171
-4.05604
-4.07212
-4.09005
-4.10997
-4.13197
-4.15609
-4.10021
-4.10088
-4.10137
-4.10298
-4.10466
-4.107
-4.10986
-4.11331
-4.11741
-4.1222
-4.12776
-4.13415
-4.14148
-4.14981
-4.15927
-4.16993
-4.18193
-4.19532
-4.21029
-4.22689
-4.24521
-4.26529
-4.28717
-4.2435
-4.24415
-4.24468
-4.24631
-4.24783
-4.25012
-4.25286
-4.25617
-4.26008
-4.26465
-4.26994
-4.276
-4.28292
-4.29077
-4.29965
-4.30955
-4.3207
-4.33311
-4.34687
-4.36204
-4.37869
-4.39685
-4.41651
-4.38636
-4.38698
-4.38749
-4.38915
-4.3905
-4.39272
-4.39529
-4.39842
-4.4021
-4.40639
-4.41134
-4.417
-4.42344
-4.4307
-4.43889
-4.44804
-4.45825
-4.46956
-4.48204
-4.49575
-4.5107
-4.52693
-4.54441
-4.52882
-4.52938
-4.52986
-4.53155
-4.53271
-4.53483
-4.53719
-4.54009
-4.5435
-4.54746
-4.55201
-4.55721
-4.5631
-4.56974
-4.57718
-4.58548
-4.59469
-4.60486
-4.61603
-4.62823
-4.64148
-4.65578
-4.67111
-4.67091
-4.67138
-4.67183
-4.67354
-4.67452
-4.67648
-4.67861
-4.68125
-4.68434
-4.68793
-4.69205
-4.69673
-4.70203
-4.70798
-4.71463
-4.72202
-4.73019
-4.73917
-4.749
-4.75969
-4.77124
-4.78365
-4.79688
-4.81267
-4.81306
-4.8135
-4.81507
-4.81594
-4.81771
-4.81959
-4.82194
-4.82468
-4.82786
-4.8315
-4.83563
-4.84029
-4.84552
-4.85133
-4.85777
-4.86488
-4.87266
-4.88114
-4.89032
-4.9002
-4.91076
-4.92195
-4.95414
-4.95442
-4.95485
-4.95624
-4.95702
-4.95854
-4.96017
-4.9622
-4.96456
-4.9673
-4.97043
-4.97397
-4.97797
-4.98243
-4.98739
-4.99286
-4.99889
-5.00546
-5.0126
-5.02029
-5.02853
-5.0373
-5.04654
-5.09536
-5.09556
-5.09597
-5.0971
-5.09778
-5.09906
-5.10041
-5.10211
-5.10407
-5.10634
-5.10893
-5.11187
-5.11516
-5.11884
-5.12292
-5.12741
-5.13234
-5.1377
-5.14351
-5.14975
-5.1564
-5.16346
-5.17085
-5.23642
-5.23653
-5.23691
-5.23776
-5.23832
-5.23935
-5.24041
-5.24175
-5.24329
-5.24508
-5.24711
-5.24941
-5.25199
-5.25487
-5.25805
-5.26156
-5.26539
-5.26954
-5.27403
-5.27886
-5.28397
-5.28937
-5.295
-5.37734
-5.37737
-5.37767
-5.37828
-5.37869
-5.37944
-5.38021
-5.38117
-5.38229
-5.38358
-5.38504
-5.38669
-5.38854
-5.39061
-5.39289
-5.39539
-5.39812
-5.40109
-5.40428
-5.4077
-5.41132
-5.41514
-5.41909
-5.51812
-5.51809
-5.51831
-5.51863
-5.5189
-5.51937
-5.51982
-5.52041
-5.52109
-5.52186
-5.52274
-5.52374
-5.52486
-5.5261
-5.52747
-5.52897
-5.53061
-5.53239
-5.5343
-5.53634
-5.5385
-5.54076
-5.54311
-5.65878
-5.65873
-5.65882
-5.65892
-5.65901
-5.65917
-5.65932
-5.65952
-5.65975
-5.66001
-5.6603
-5.66063
-5.66101
-5.66142
-5.66188
-5.66238
-5.66293
-5.66352
-5.66416
-5.66483
-5.66555
-5.6663
-5.66708
328.9
342.683
362.897
368.738
273.276
279.533
286.624
293.862
142.991
151.768
164.022
179.899
40.9272
41.9866
45.4351
54.2858
2.4741
3.14806
2.36058
2.83864
0.339536
0.338492
0.321567
0.396223
0.0619155
0.130815
0.059098
0.0359557
-0.258325
-0.232938
-0.205588
-0.151051
-0.655538
-0.630452
-0.57389
-0.492902
-0.917324
-0.901073
-0.860247
-0.788765
-1.05747
-1.05037
-1.02467
-0.977771
-1.23585
-1.22609
-1.20815
-1.17572
-1.46313
-1.47318
-1.46855
-1.44149
-1.63172
-1.65499
-1.66689
-1.65798
-1.76891
-1.78992
-1.81137
-1.8276
-1.93016
-1.94789
-1.97142
-2.00106
-2.11648
-2.13582
-2.16099
-2.19446
-2.31144
-2.33411
-2.36148
-2.39532
-2.5027
-2.52749
-2.5562
-2.58956
-2.6858
-2.71115
-2.7398
-2.77202
-2.8606
-2.88551
-2.91318
-2.94372
-3.02775
-3.05177
-3.07804
-3.10667
-3.18795
-3.2108
-3.23552
-3.26218
-3.34193
-3.36347
-3.38655
-3.41123
-3.49047
-3.51062
-3.53203
-3.55475
-3.63434
-3.65302
-3.67275
-3.69355
-3.77423
-3.79142
-3.80946
-3.82839
-3.9107
-3.92641
-3.94281
-3.95993
-4.04428
-4.05855
-4.07339
-4.08878
-4.17544
-4.18834
-4.20169
-4.21549
-4.30461
-4.31619
-4.32815
-4.34046
-4.4321
-4.44242
-4.45306
-4.46398
-4.55819
-4.5673
-4.57666
-4.58626
-4.68313
-4.69106
-4.69919
-4.70751
-4.80718
-4.81396
-4.82089
-4.82796
-4.93061
-4.93629
-4.94207
-4.94794
-5.05365
-5.05828
-5.06298
-5.06774
-5.17649
-5.18016
-5.18387
-5.18761
-5.29928
-5.30206
-5.30485
-5.30766
-5.42208
-5.42402
-5.42597
-5.42792
-5.54488
-5.54602
-5.54716
-5.54831
-5.66766
-5.66803
-5.66841
-5.66878
363.728
316.498
277.026
201.613
-69.9845
-73.0214
98.349
132.458
135.397
133.432
132.144
132.578
135.521
138.003
139.151
140.219
141.042
140.607
331.002
301.108
285.295
244.013
102.929
-180.189
-72.2384
89.81
125.445
129.542
128.631
128.259
129.404
133.042
136.706
138.632
139.915
140.745
140.151
225.862
209.177
239.436
234.482
120.032
-14.6607
92.8197
119.342
124.95
125.525
124.897
125.366
126.911
130.535
135.114
137.872
139.288
139.888
139.347
183.886
89.9778
143.494
196.505
146.576
114.292
124.972
128.6
126.063
124.184
123.239
123.994
125.837
128.722
133.551
136.784
138.512
139.126
138.924
176.12
6.14381
26.9859
110.025
160.873
151.289
141.119
133.072
127.885
124.832
123.725
124.355
126.138
128.82
132.633
136.097
137.88
138.584
138.697
185.645
0.703039
1.82311
20.1173
147.714
154.657
144.245
135.161
129.865
126.712
125.954
126.582
127.994
130.014
133.164
136.446
137.777
138.246
138.397
215.734
0.081668
0.00907637
0.697671
69.8503
141.6
144.4
136.463
131.524
129.59
129.661
130.493
131.157
131.578
133.669
136.711
138.126
139.02
141.045
276.572
-0.0157863
0.118782
0.71384
13.2829
110.94
148.999
137.135
132.186
132.253
133.417
134.417
133.99
132.289
132.027
134.898
138.421
144.715
170.086
353.311
-0.339471
-0.276144
-0.369724
1.78793
46.0257
142.551
123.137
133.488
135.78
137.21
138.39
137.104
132.775
126.861
120.747
119.403
136.762
206.737
365.552
-0.642657
-0.554948
-0.609424
-0.681239
4.24505
36.2675
81.2458
128.512
132.757
141.824
144.177
142.567
119.221
96.1928
53.9079
29.444
50.574
107.813
230.773
-0.889517
-0.83401
-0.837107
-0.895604
-0.79587
1.93438
18.3591
60.8761
110.753
147.213
144.247
181.686
239.203
136.577
-1.68
-56.5295
-34.0266
6.22396
89.2941
-1.12071
-1.11846
-1.13247
-1.22725
-1.46195
-1.83927
-0.93639
13.9706
90.4432
209.106
234.579
212.889
187.147
114.627
-18.2384
-61.1812
-41.0524
-5.30113
47.147
-1.39312
-1.41642
-1.43404
-1.45604
-1.83493
-4.07538
-10.2079
-11.6143
39.6276
107.015
76.7141
25.0288
39.6299
38.72
-40.0341
-60.4311
-16.2164
23.1499
65.8576
-1.63892
-1.68261
-1.74354
-1.99935
-2.43564
-1.42229
16.604
14.9899
16.0115
12.0058
0.75951
2.4351
6.19171
5.47955
-60.2388
-73.8603
5.23353
82.4522
115.638
-1.86503
-2.03553
-2.30585
-2.63678
-2.81711
-2.77747
-2.74747
-2.07931
-2.27277
-3.1308
-2.67771
-1.82972
-1.58317
-3.69716
-43.2188
-44.889
62.9876
133.559
131.227
-2.0665
-2.26667
-2.57043
-2.86984
-2.98668
-2.99707
-2.9881
-3.2138
-3.50592
-3.56086
-3.52062
-3.4314
-3.71553
-4.46582
-5.48809
22.9744
113.718
176.954
129.863
-2.263
-2.423
-2.64621
-2.8834
-2.98476
-2.98483
-3.02914
-3.20588
-3.47869
-3.86958
-4.2298
-4.48396
-4.74372
-4.96313
-5.19671
3.12675
75.4263
162.966
116.423
-2.46148
-2.59062
-2.75722
-2.93014
-3.05305
-3.13084
-3.22395
-3.38092
-3.67284
-4.13455
-4.6714
-5.05074
-5.25854
-5.27862
-5.09749
-3.94721
5.97325
57.6071
93.1039
-2.65287
-2.76678
-2.9043
-3.04794
-3.17663
-3.29253
-3.42089
-3.59792
-3.88233
-4.3442
-4.92997
-5.4021
-5.61464
-5.51184
-5.12052
-4.4266
-2.14763
4.90847
63.4258
-2.83188
-2.93514
-3.05512
-3.18211
-3.30757
-3.43456
-3.58113
-3.77683
-4.06032
-4.48331
-5.02829
-5.53441
-5.80616
-5.72538
-5.28955
-4.60855
-3.43136
-0.712408
39.854
-2.99963
-3.09351
-3.20045
-3.31521
-3.43448
-3.56151
-3.7097
-3.90153
-4.16654
-4.53518
-5.00228
-5.47416
-5.75929
-5.7442
-5.40415
-4.87083
-3.90692
-2.60373
0.511966
-3.15855
-3.24399
-3.34074
-3.44568
-3.55752
-3.6792
-3.8198
-3.9945
-4.22136
-4.52135
-4.88788
-5.26809
-5.52684
-5.56437
-5.33045
-5.00114
-4.50956
-3.50893
-2.14416
-3.31006
-3.38785
-3.47564
-3.57164
-3.67521
-3.78861
-3.91791
-4.07221
-4.26005
-4.4904
-4.75622
-5.02523
-5.2237
-5.27993
-5.16678
-4.97805
-4.71721
-3.88437
-2.61964
-3.45525
-3.52586
-3.60522
-3.69238
-3.78709
-3.89089
-4.00762
-4.14203
-4.29717
-4.47185
-4.65665
-4.82372
-4.93976
-4.97721
-4.94391
-4.90853
-4.76121
-4.0898
-0.945833
-3.59502
-3.65886
-3.73016
-3.80854
-3.89409
-3.98801
-4.09242
-4.20902
-4.3368
-4.47042
-4.5964
-4.68561
-4.72063
-4.70043
-4.65437
-4.62089
-4.78976
-5.02811
-5.26294
-3.7302
-3.78764
-3.85128
-3.92107
-3.99752
-4.08179
-4.17497
-4.27638
-4.38167
-4.48411
-4.56844
-4.60619
-4.58524
-4.51921
-4.44345
-4.29256
-3.92267
-5.95337
-6.60702
-3.86155
-3.91294
-3.96929
-4.03079
-4.09845
-4.17352
-4.25734
-4.3463
-4.4336
-4.51208
-4.56705
-4.57279
-4.52149
-4.43772
-4.37374
-4.38289
-3.64123
-5.29449
4.14398
-3.98977
-4.03546
-4.08493
-4.13845
-4.19798
-4.26443
-4.3407
-4.4196
-4.49273
-4.55338
-4.58807
-4.57273
-4.50191
-4.4112
-4.34894
-4.43461
-4.03461
-3.96844
-3.54482
-4.11551
-4.15594
-4.19901
-4.2447
-4.29441
-4.35507
-4.42522
-4.49505
-4.55636
-4.60446
-4.62528
-4.59463
-4.50587
-4.40683
-4.31319
-4.31351
-4.23058
-4.30179
-3.98889
-4.23933
-4.27503
-4.31254
-4.35172
-4.39429
-4.44689
-4.51005
-4.57003
-4.61999
-4.65862
-4.66934
-4.62766
-4.52433
-4.42297
-4.31422
-4.28482
-4.17654
-4.25328
-4.68084
-4.36166
-4.39317
-4.42595
-4.45971
-4.49543
-4.5396
-4.59371
-4.64244
-4.68115
-4.71039
-4.71168
-4.66381
-4.55552
-4.46831
-4.37433
-4.34649
-4.24514
-3.94484
-3.11825
-4.48274
-4.51048
-4.53925
-4.56866
-4.59889
-4.63377
-4.67603
-4.71201
-4.73922
-4.75537
-4.74851
-4.70124
-4.60213
-4.5281
-4.43008
-4.40361
-4.34458
-4.14054
-6.12107
-4.60272
-4.62695
-4.65209
-4.6779
-4.70386
-4.73106
-4.75823
-4.78104
-4.79855
-4.79918
-4.78783
-4.75068
-4.67626
-4.59653
-4.5006
-4.46466
-4.38706
-5.10585
-14.0223
-4.72174
-4.74257
-4.76412
-4.78621
-4.80838
-4.82901
-4.84549
-4.85492
-4.85457
-4.85496
-4.84737
-4.82849
-4.78166
-4.71199
-4.61112
-4.54118
-4.48105
-7.00304
4.07674
-4.84003
-4.85755
-4.87546
-4.89351
-4.9113
-4.92746
-4.93862
-4.9417
-4.93766
-4.93266
-4.93096
-4.92973
-4.90715
-4.86039
-4.77882
-4.67046
-4.54331
-2.20303
2.27072
-4.95793
-4.97229
-4.98673
-5.00092
-5.01434
-5.02626
-5.03492
-5.03933
-5.03394
-5.02699
-5.02747
-5.03146
-5.02562
-5.01299
-4.99511
-4.994
-5.55066
-6.21314
-4.32977
-5.0758
-5.08727
-5.09859
-5.10945
-5.11932
-5.12766
-5.13328
-5.13418
-5.13397
-5.13157
-5.13104
-5.13498
-5.13866
-5.14737
-5.17678
-5.27108
-5.45972
-6.01961
-4.35257
-5.19391
-5.20279
-5.21142
-5.21954
-5.22671
-5.23248
-5.23643
-5.23792
-5.23761
-5.23707
-5.23827
-5.24121
-5.24565
-5.2554
-5.2845
-5.35703
-5.38561
-5.67274
-4.6954
-5.31238
-5.31897
-5.32529
-5.33116
-5.33625
-5.34025
-5.34309
-5.34442
-5.34459
-5.34542
-5.34785
-5.34976
-5.35303
-5.36243
-5.38702
-5.45658
-5.43725
-5.68968
-5.12933
-5.43119
-5.43572
-5.44002
-5.44401
-5.44744
-5.45019
-5.45253
-5.45322
-5.45413
-5.45599
-5.45953
-5.4617
-5.4665
-5.47925
-5.5013
-5.57476
-5.56002
-5.75431
-5.65105
-5.55023
-5.55287
-5.55535
-5.55765
-5.55962
-5.56125
-5.56268
-5.56362
-5.56529
-5.56793
-5.57204
-5.57551
-5.58247
-5.59662
-5.61887
-5.68381
-5.6689
-5.85974
-5.60904
-5.66941
-5.67027
-5.67107
-5.67181
-5.67245
-5.67304
-5.67367
-5.6746
-5.67669
-5.67981
-5.68399
-5.6883
-5.69709
-5.71095
-5.73939
-5.7802
-5.78341
-5.93854
-5.72777
)
;

boundaryField
{
    leftWall
    {
        type            calculated;
        value           nonuniform List<scalar> 
50
(
526.17
467.176
407.522
347.903
288.879
230.607
172.863
114.995
45.328
0.401869
0.143086
0.00401541
-0.17305
-0.363733
-0.535199
-0.696941
-0.85505
-1.00912
-1.1607
-1.31069
-1.45971
-1.60817
-1.75633
-1.90432
-2.05221
-2.20004
-2.3478
-2.49546
-2.64298
-2.79031
-2.93739
-3.08417
-3.23061
-3.37666
-3.5223
-3.66748
-3.8122
-3.95645
-4.10021
-4.2435
-4.38636
-4.52882
-4.67091
-4.81267
-4.95414
-5.09536
-5.23642
-5.37734
-5.51812
-5.65878
)
;
    }
    rightWall
    {
        type            calculated;
        value           nonuniform List<scalar> 
50
(
1391.62
1322.74
1231.44
1117.98
987.693
834.56
662.89
503.365
331.002
225.862
183.886
176.12
185.645
215.734
276.572
353.311
365.552
230.773
89.2941
47.147
65.8576
115.638
131.227
129.863
116.423
93.1039
63.4258
39.854
0.511966
-2.14416
-2.61964
-0.945833
-5.26294
-6.60702
4.14398
-3.54482
-3.98889
-4.68084
-3.11825
-6.12107
-14.0223
4.07674
2.27072
-4.32977
-4.35257
-4.6954
-5.12933
-5.65105
-5.60904
-5.72777
)
;
    }
    lowerWall
    {
        type            calculated;
        value           nonuniform List<scalar> 
62
(
555.6
553.283
554.115
558.533
567.882
582.148
599.137
615.432
630.89
647.069
665.012
684.743
705.814
727.718
749.902
771.716
792.297
809.274
822.118
824.512
822.92
835.558
871.026
841.604
777.184
715.409
661.032
613.05
567.313
513.185
460.786
391.494
405.28
425.495
431.335
698.511
675.761
628.465
571.315
518.246
472.5
438.326
378.455
703.349
701.83
890.762
1192.16
1257.29
1182.19
1239.3
794.904
401.86
262.118
231.605
232.824
248.114
264.524
271.093
388.183
844.377
1401.77
1417.8
)
;
    }
    atmosphere
    {
        type            calculated;
        value           nonuniform List<scalar> 
46
(
-5.72904
-5.72904
-5.72904
-5.72904
-5.72904
-5.72904
-5.72904
-5.72904
-5.72904
-5.72904
-5.72904
-5.72904
-5.72904
-5.72904
-5.72904
-5.72904
-5.72904
-5.72904
-5.72904
-5.72904
-5.72904
-5.72904
-5.72904
-5.72904
-5.72904
-5.72904
-5.72904
-5.72904
-5.72904
-5.72904
-5.72904
-5.72904
-5.72904
-5.72914
-5.73014
-5.73252
-5.73578
-5.73996
-5.74386
-5.75423
-5.76758
-5.80431
-5.83247
-5.83565
-6.09179
-5.74222
)
;
    }
    defaultFaces
    {
        type            empty;
    }
}


// ************************************************************************* //
