/*--------------------------------*- C++ -*----------------------------------*\
| =========                 |                                                 |
| \\      /  F ield         | OpenFOAM: The Open Source CFD Toolbox           |
|  \\    /   O peration     | Version:  5.x                                   |
|   \\  /    A nd           | Web:      www.OpenFOAM.org                      |
|    \\/     M anipulation  |                                                 |
\*---------------------------------------------------------------------------*/
FoamFile
{
    version     2.0;
    format      ascii;
    class       volScalarField;
    location    "0.6";
    object      p_rgh;
}
// * * * * * * * * * * * * * * * * * * * * * * * * * * * * * * * * * * * * * //

dimensions      [1 -1 -2 0 0 0 0];

internalField   nonuniform List<scalar> 
2268
(
555.6
553.283
554.115
558.533
567.882
582.148
599.137
615.432
630.89
647.069
665.012
684.743
705.814
727.718
749.902
771.716
792.297
809.274
822.118
824.512
822.92
835.558
871.026
555.464
552.488
553.106
557.355
566.512
580.818
598.221
614.771
630.345
646.584
664.479
684.176
705.304
727.288
749.526
771.435
792.208
810.016
825.024
827.562
814.446
823.338
865.26
554.668
551.13
551.468
555.167
563.833
578.172
596.346
613.47
629.296
645.668
663.722
683.577
704.813
726.871
749.088
770.772
791.237
809.666
825.133
838.157
810.361
814.591
862.316
553.909
549.592
549.262
552.117
559.899
574.301
593.486
611.621
627.872
644.427
662.629
682.662
704.106
726.399
748.802
770.531
790.908
809.49
824.886
837.187
814.827
818.496
867.037
553.743
548.238
546.825
548.363
555
569.679
590.087
609.387
626.143
642.948
661.309
681.523
703.24
725.913
748.691
770.666
791.228
810.035
825.843
838.558
839.517
840.623
877.913
554.33
547.685
544.249
544.786
550.792
565.876
587.006
606.873
623.994
641.145
659.788
680.178
702.209
725.391
748.734
771.094
791.973
811.196
827.841
841.874
850.719
857.14
891.035
555.445
548.712
544.112
543.528
548.93
563.788
584.394
603.827
621.156
638.793
657.83
678.568
701.071
724.972
749.062
771.868
793.094
812.784
830.289
845.459
857.665
867.34
895.766
556.435
546.192
532.301
526.991
532.562
552.728
580.628
599.436
617.476
636.693
655.518
676.509
699.524
724.29
749.463
772.923
794.59
814.863
833.163
849.201
863.323
878.077
902.203
703.349
701.83
890.762
1192.16
1257.29
1182.19
1239.3
794.904
401.86
262.118
231.605
232.824
248.114
264.524
271.093
388.183
844.377
1401.77
1417.8
701.43
671.869
815.217
1125.35
1172.21
1138.21
1141.56
467.92
207.157
176.997
183.133
188.811
199.417
211.536
228.445
323.808
718.767
1338.13
1411.03
704.502
678.14
780.719
1047.08
1050.97
1034.45
853.304
226.328
174.474
160.629
155.789
153.586
154.201
153.44
149.956
168.278
359.983
1092.26
1378.58
721.769
665.246
756.618
963.622
905.554
771.174
389.481
187.441
173.116
161.309
156.182
154.065
155.208
154.319
148.394
144.711
188.342
662.711
1323.99
774.982
660.711
740.311
888.578
772.068
557.77
223.161
179.725
171.173
160.717
153.554
153.202
156.08
154.181
149.233
143.023
151.527
341.934
1252.56
796.223
675.709
733.657
829.12
668.99
464.35
261.64
175.279
163.019
149.876
144.141
147.86
153.082
153.361
150.897
142.507
142.053
233.864
1158.28
820.908
714.938
741.624
787.371
597.521
458.95
413.832
165.735
148.597
140.099
136.877
139.961
147.825
150.148
148.467
141.945
141.733
229.353
1045.47
819.896
764.798
763.124
761.442
512.368
429.396
408.829
151.981
141.391
136.969
135.109
135.391
139.398
144.609
145.494
141.412
142.32
262.749
937.882
424.759
340.624
271.271
261.023
282.815
337.528
420.188
492.33
549.335
600.95
645.738
672.272
696.964
724.099
751.165
775.294
797.29
818.313
837.835
854.821
869.4
880.737
885.558
1.06053
1.05287
0.959393
5.20739
40.5118
74.2735
88.7783
100.235
135.183
198.516
288.295
390.739
500.993
634.951
752.721
780.362
803.092
824.637
845.295
863.616
880.321
897.424
920.116
0.926943
0.881293
0.809296
0.756531
0.791782
0.749931
0.692902
0.665405
0.662425
0.648529
0.634311
3.81568
48.6685
133.484
268.831
431.945
553.729
699.084
823.852
862.135
880.198
897.476
915.702
0.913069
0.871615
0.724078
0.652965
0.711233
0.671655
0.605963
0.583442
0.602251
0.625432
0.659342
0.732531
0.771807
0.804352
0.88036
10.0964
40.3799
83.951
187.72
297.536
373.773
450.856
550.658
0.861196
0.848641
0.763605
0.744649
0.754269
0.695371
0.643487
0.618218
0.612469
0.623932
0.649088
0.678604
0.721358
0.776464
0.814252
0.855091
0.892853
0.930504
0.962701
1.0406
1.15899
1.25113
1.41971
0.795707
0.783989
0.75043
0.712581
0.698686
0.681514
0.660321
0.64923
0.647681
0.65668
0.680482
0.707614
0.740441
0.791969
0.815184
0.812683
0.838949
0.880249
0.934196
1.01948
1.14474
1.29331
1.46457
0.749435
0.739883
0.722049
0.699428
0.687961
0.671534
0.656519
0.646506
0.643758
0.651033
0.664597
0.683621
0.708681
0.740765
0.771837
0.804616
0.840086
0.880234
0.934916
0.992961
1.19045
1.49809
1.55393
0.712887
0.705672
0.695217
0.681434
0.671751
0.660561
0.651728
0.648107
0.650615
0.658646
0.672096
0.688325
0.70749
0.727107
0.750684
0.775995
0.804005
0.837011
0.880548
0.922724
1.03309
1.51586
1.58628
0.679973
0.675556
0.669281
0.660237
0.653081
0.646214
0.641058
0.638708
0.639745
0.644903
0.654685
0.6686
0.687463
0.708799
0.730674
0.753898
0.778758
0.805597
0.834198
0.867143
0.893509
1.26139
1.42202
0.651097
0.648344
0.644494
0.638753
0.634066
0.629812
0.627086
0.626614
0.629255
0.635334
0.644466
0.656472
0.670883
0.688267
0.706639
0.726462
0.747477
0.76933
0.790676
0.810233
0.824593
1.04402
1.33458
0.624715
0.622945
0.620644
0.617159
0.614347
0.611951
0.61088
0.611629
0.614672
0.620172
0.628225
0.638718
0.651493
0.665706
0.681299
0.697776
0.714931
0.732176
0.747907
0.760532
0.765188
0.914501
1.32103
0.599915
0.598774
0.597442
0.595393
0.59384
0.592702
0.592643
0.593997
0.597143
0.602245
0.609311
0.618215
0.628626
0.640733
0.653718
0.667292
0.681192
0.694642
0.706044
0.71293
0.70907
0.687752
1.08215
0.576095
0.575358
0.574608
0.573457
0.572707
0.572341
0.572848
0.574422
0.57745
0.581966
0.587979
0.595394
0.604054
0.613812
0.624361
0.635338
0.646351
0.656715
0.665052
0.668207
0.659391
0.632652
0.593558
0.552824
0.552382
0.551978
0.551322
0.551043
0.55108
0.551806
0.553387
0.556027
0.559799
0.564705
0.570678
0.577596
0.585296
0.593552
0.602076
0.610498
0.618303
0.624534
0.626385
0.6202
0.599246
0.564488
0.529863
0.529637
0.529346
0.52901
0.52893
0.529131
0.529843
0.531197
0.533317
0.53626
0.540025
0.544555
0.549745
0.555446
0.561471
0.567579
0.573457
0.578757
0.583064
0.585544
0.581049
0.56687
0.543223
0.507069
0.506947
0.506708
0.506508
0.506471
0.506649
0.507182
0.508164
0.509668
0.511729
0.514333
0.517424
0.520904
0.524629
0.528416
0.532043
0.535241
0.537673
0.538874
0.538045
0.533107
0.521647
0.50247
0.484367
0.484268
0.484044
0.483857
0.483754
0.483782
0.484025
0.484541
0.48537
0.486522
0.487967
0.48964
0.491442
0.493226
0.494797
0.495927
0.49634
0.495677
0.493392
0.488658
0.480348
0.466692
0.444743
0.461736
0.461605
0.46137
0.461115
0.460873
0.460669
0.460552
0.46055
0.460676
0.460916
0.461224
0.461524
0.461703
0.461603
0.461019
0.459701
0.457336
0.453512
0.447638
0.438822
0.4259
0.407311
0.380044
0.439171
0.439004
0.438721
0.438352
0.437922
0.437439
0.436924
0.436384
0.435808
0.43516
0.434378
0.433373
0.432016
0.430136
0.427512
0.423872
0.418865
0.412029
0.402735
0.390089
0.372864
0.349473
0.317383
0.4167
0.416503
0.416148
0.41564
0.414997
0.414214
0.413292
0.412218
0.410962
0.409473
0.407672
0.405456
0.402685
0.399173
0.394686
0.388933
0.381543
0.37203
0.359756
0.34385
0.323156
0.296204
0.260931
0.394373
0.394145
0.393708
0.393049
0.392188
0.391104
0.389785
0.388201
0.38631
0.384045
0.381316
0.378007
0.373969
0.369008
0.362882
0.355289
0.345852
0.334091
0.319388
0.300935
0.277692
0.248399
0.211444
0.372242
0.371981
0.371461
0.370653
0.369579
0.368208
0.366517
0.364466
0.361999
0.359039
0.355489
0.351224
0.346089
0.339886
0.332372
0.323247
0.312141
0.298596
0.282041
0.261757
0.236851
0.206276
0.168796
0.350358
0.350068
0.349469
0.348518
0.347249
0.345615
0.34359
0.341123
0.338151
0.334591
0.330339
0.325267
0.319216
0.311992
0.303357
0.293021
0.280633
0.26577
0.247925
0.226476
0.200679
0.169692
0.132584
0.328771
0.328458
0.327785
0.326708
0.325265
0.323402
0.321087
0.318265
0.314868
0.310808
0.305981
0.300257
0.293478
0.285457
0.275967
0.264736
0.25144
0.2357
0.217076
0.195045
0.169
0.138281
0.102213
0.307527
0.307196
0.30646
0.305274
0.303686
0.301631
0.299079
0.295968
0.292228
0.287774
0.2825
0.276277
0.268956
0.260357
0.250269
0.238441
0.224584
0.208367
0.189413
0.167289
0.14151
0.111572
0.0770469
0.286665
0.286319
0.285534
0.284262
0.28256
0.280355
0.277619
0.274288
0.270292
0.265548
0.259951
0.25338
0.245692
0.236722
0.226275
0.214126
0.200021
0.183676
0.164774
0.142962
0.117853
0.0890386
0.0565106
0.266223
0.265851
0.265042
0.263705
0.261922
0.259612
0.256748
0.253265
0.249097
0.244163
0.238365
0.231587
0.223699
0.214548
0.20396
0.191738
0.17766
0.161486
0.142954
0.121787
0.0976934
0.0704293
0.0397304
0.246236
0.245803
0.245013
0.243626
0.241798
0.239427
0.236489
0.232921
0.228662
0.223636
0.21775
0.210898
0.202962
0.193804
0.183271
0.17119
0.157373
0.141619
0.123714
0.103448
0.0806155
0.054991
0.0264015
0.226713
0.2262
0.225482
0.224039
0.222207
0.219815
0.216855
0.213266
0.208993
0.203964
0.198095
0.191291
0.183444
0.174434
0.164125
0.15237
0.139009
0.123879
0.106806
0.0876311
0.0662188
0.0423553
0.0159815
0.207663
0.207066
0.206459
0.204943
0.203157
0.200778
0.197844
0.194295
0.190079
0.18513
0.179374
0.172726
0.16509
0.15636
0.146419
0.135144
0.122401
0.108064
0.0919899
0.0740579
0.0541372
0.0321427
0.00802189
0.189095
0.188427
0.18793
0.186327
0.184646
0.182307
0.179445
0.175991
0.171897
0.167104
0.161546
0.155148
0.147826
0.139488
0.130036
0.119376
0.107374
0.093984
0.079011
0.0624119
0.0440963
0.0240112
0.00213324
0.171002
0.170351
0.169817
0.168185
0.166666
0.164381
0.161641
0.158329
0.154414
0.149844
0.144559
0.138493
0.131574
0.123725
0.11485
0.104948
0.0937929
0.0813884
0.06763
0.0524552
0.035804
0.0176452
-0.00201736
0.153329
0.152713
0.152197
0.150539
0.149192
0.146975
0.144401
0.141277
0.137593
0.133303
0.128355
0.122692
0.116253
0.108989
0.1008
0.0916509
0.0814453
0.0701318
0.057649
0.0439467
0.0289893
0.0127614
-0.00471579
0.136067
0.135508
0.135025
0.133333
0.132176
0.130058
0.127692
0.124794
0.121386
0.117427
0.112872
0.107672
0.101782
0.095145
0.0877017
0.0794048
0.0701969
0.0600305
0.0488615
0.0366594
0.0234087
0.00910302
-0.00622353
0.119175
0.118696
0.118255
0.11654
0.115564
0.113599
0.111467
0.10883
0.105739
0.102152
0.0980348
0.0933465
0.0880482
0.0821009
0.075453
0.0680633
0.0598929
0.050907
0.0410769
0.0303894
0.0188409
0.00642952
-0.00679468
0.102608
0.10222
0.101779
0.100206
0.0993327
0.0975687
0.0956824
0.0933365
0.0905944
0.087418
0.0837788
0.0796442
0.0749822
0.0697569
0.0639501
0.0575008
0.0503955
0.042611
0.0341311
0.0249516
0.0150768
0.00451555
-0.00667257
0.0863336
0.0860463
0.085618
0.0842341
0.0834541
0.081927
0.0803003
0.0782697
0.075906
0.073171
0.070043
0.0664951
0.0625033
0.0580416
0.0530847
0.0476057
0.041585
0.0350108
0.0278748
0.0201799
0.0119382
0.00316687
-0.00607215
0.0703015
0.0701063
0.0696958
0.0685636
0.0678829
0.0666028
0.0652514
0.0635591
0.0615957
0.0593259
0.0567339
0.0537996
0.0505032
0.0468274
0.0427491
0.0382515
0.0333259
0.0279615
0.0221552
0.0159141
0.00926174
0.00220903
-0.00518058
0.0544425
0.0543275
0.0539532
0.0530974
0.0525392
0.0515102
0.0504504
0.0491131
0.0475653
0.0457801
0.0437443
0.0414455
0.0388658
0.0359896
0.0328065
0.0293027
0.025474
0.0213158
0.016833
0.0119986
0.0068908
0.00148967
-0.00414443
0.0387111
0.0386837
0.0383875
0.0377718
0.0373653
0.0366092
0.0358476
0.0348799
0.0337634
0.0324777
0.0310136
0.0293619
0.0275102
0.0254479
0.0231681
0.0206647
0.01793
0.0149651
0.0117731
0.00835471
0.00473582
0.00091696
-0.0030367
0.0231284
0.023157
0.0229342
0.0226147
0.0223451
0.0218813
0.0214247
0.0208347
0.020162
0.0193867
0.0185038
0.0175075
0.0163924
0.0151522
0.0137812
0.0122782
0.0106378
0.00886077
0.00694962
0.00491055
0.00275291
0.000484344
-0.00186205
0.00766271
0.00771318
0.00762106
0.00752334
0.00743051
0.00727154
0.00712127
0.00691906
0.00669623
0.00643719
0.00614156
0.00580835
0.00543598
0.00502206
0.00456448
0.00406282
0.00351653
0.00292462
0.00228746
0.00160885
0.00089308
0.000143026
-0.000632327
862.345
876.143
896.364
902.205
931.912
938.186
945.285
952.523
926.808
935.599
947.858
963.724
630.077
662.898
655.704
614.091
50.7235
64.1518
36.5851
23.1444
1.52803
1.53507
1.52528
1.58467
1.47546
1.46498
1.37971
1.34364
1.63357
1.63266
1.27082
1.28141
1.40432
1.18132
0.988344
1.06661
0.959158
0.785708
0.82645
0.897941
0.761781
0.767226
0.796028
0.836127
1.38496
1.39682
1.41115
1.41126
0.621247
1.02072
1.31833
1.34652
0.530072
0.543463
0.651576
0.739107
0.517293
0.496307
0.474961
0.4589
0.481223
0.463502
0.439976
0.410346
0.420098
0.400762
0.375595
0.34212
0.350338
0.327663
0.300292
0.266455
0.284274
0.259479
0.230768
0.197416
0.226367
0.201018
0.172365
0.140147
0.176763
0.151845
0.124182
0.0936444
0.134799
0.110786
0.0845117
0.0558833
0.0998012
0.0769446
0.0522287
0.0255731
0.0710074
0.0494668
0.026388
0.00170996
0.0476628
0.0275188
0.00610745
-0.0166164
0.028995
0.0103068
-0.00942092
-0.0302234
0.0142942
-0.00289309
-0.0209385
-0.0398627
0.00302372
-0.0126869
-0.0290932
-0.0462081
-0.00536155
-0.019636
-0.0344714
-0.0498701
-0.0113364
-0.0242328
-0.0375837
-0.0513816
-0.0153055
-0.0268892
-0.0388444
-0.0511564
-0.0176002
-0.0279265
-0.0385597
-0.0494817
-0.0184946
-0.0276061
-0.0369701
-0.0465691
-0.0182415
-0.026171
-0.0343014
-0.0426191
-0.0171015
-0.0238823
-0.0308118
-0.0378818
-0.0153352
-0.0210123
-0.0267902
-0.0326643
-0.0131752
-0.0178119
-0.0225121
-0.027272
-0.0108249
-0.0144959
-0.0182027
-0.0219415
-0.00842308
-0.0111973
-0.0139905
-0.0167991
-0.00602819
-0.00796603
-0.00991228
-0.0118642
-0.00362708
-0.00477017
-0.00591491
-0.00706054
-0.00121449
-0.00159123
-0.0019669
-0.00234014
897.194
849.964
810.492
735.078
218.229
272.609
197.144
135.209
135.977
134.002
132.726
133.28
136.49
138.775
139.888
141.425
141.759
314.649
834.948
959.768
943.953
902.672
761.561
-18.6101
251.837
91.0995
126.469
130.246
129.33
128.961
130.389
134.198
137.616
139.518
140.799
141.629
361.354
827.874
991.35
1023.19
1018.3
655.691
78.2581
288.011
120.358
125.787
126.357
125.727
126.196
128.008
132.205
136.815
139.386
140.341
140.94
338.577
875.291
593.004
870.668
1089.13
349.209
117.13
126.986
129.624
127.025
125.146
124.201
124.956
126.8
130.271
135.677
138.91
140.115
140.347
337.941
973.127
62.7349
439.383
964.878
305.322
152.802
142.477
134.186
128.98
125.926
124.82
125.451
127.401
130.089
134.454
138.516
139.702
139.981
408.895
1152.86
2.05288
71.62
544.486
632.645
156.199
145.56
136.397
131.093
127.939
127.181
128.16
129.843
131.446
134.656
138.599
139.399
139.829
567.069
1355.55
1.39729
1.91762
321.571
736.802
435.342
145.816
137.834
132.886
130.95
131.021
132.123
133.205
133.357
135.414
138.818
139.99
140.817
738.588
1555.3
1.41732
1.56891
75.8809
740.051
861.374
257.84
138.688
133.691
133.747
134.912
135.943
135.54
134.015
134.247
137.729
140.892
147.274
1039.22
1763.14
1.22011
1.28423
1.31948
189.941
856.337
959.258
468.599
135.347
137.444
138.852
140.066
138.91
135.981
155.782
316.39
515.386
671.308
1385.06
1900.35
1.04405
1.13184
1.08449
1.22984
237.58
824.425
868.818
845.668
384.305
143.84
146.133
181.942
566.62
896.815
1263.17
1228.97
1162.64
1061.17
1541.25
1.00827
1.26076
1.48759
1.10919
1.392
160.654
726.519
923.694
844.411
481.271
449.466
1106.95
1673.51
1579.79
1460.53
1021.31
355.289
399.079
1188.29
1.47589
1.46609
0.914606
0.887503
1.46
1.14645
30.6237
461.384
1280.01
1559.89
1587.49
1560.85
1424.11
1688.4
1553.94
772.226
375.563
411.314
1458.98
1.39068
0.870539
0.673427
0.667272
0.390173
-0.570832
266.078
1245.5
1466.03
1541
1397.46
364.456
221.914
1255.82
1937.14
1817.67
729.897
787.422
1982.08
0.694757
0.481631
0.4436
0.326651
0.109068
31.5074
770.177
1272.96
1259.53
592.104
68.6489
5.72805
11.4458
371.026
2073.74
2066.81
2096
1987.87
2276.63
0.421573
0.25109
0.0222425
-0.100259
0.0217726
0.444979
0.634232
34.3282
68.4999
0.638381
-0.283136
0.713503
1.79661
89.4627
1407.77
2220.93
2328.8
2395.85
2390.65
0.344915
0.144844
-0.151024
-0.444033
-0.572197
-0.41583
1.06246
1.40696
-0.449511
-1.07153
-1.09094
-1.00512
-1.15559
-0.579683
431.713
2037.62
2503.61
2360.46
1830.84
0.273584
0.113583
-0.109605
-0.346786
-0.448159
-0.448084
-0.358659
0.212399
0.251349
-1.29782
-1.68013
-1.94547
-2.20276
-2.39647
-2.36482
221.56
1625.1
2423.05
1620.12
0.200292
0.0711575
-0.0954417
-0.268358
-0.391267
-0.46905
-0.562014
-0.708636
-0.639259
-1.11166
-2.00005
-2.38712
-2.59478
-2.61286
-2.4038
-0.96073
12.0156
1236.73
2502.89
0.134097
0.0201947
-0.11733
-0.26097
-0.389659
-0.505556
-0.63391
-0.810787
-1.09422
-1.37333
-2.11936
-2.61323
-2.82575
-2.72264
-2.32616
-1.5895
1.06533
154.544
1900.39
0.0802828
-0.0229739
-0.142952
-0.269929
-0.395327
-0.522184
-0.668756
-0.864445
-1.14786
-1.57025
-2.10728
-2.62028
-2.88906
-2.78314
-2.20759
-1.44268
-0.0369362
92.5691
1201.83
0.0377266
-0.0561495
-0.16309
-0.277839
-0.39671
-0.523638
-0.671822
-0.863811
-1.12881
-1.49741
-1.96453
-2.43643
-2.69753
-2.65475
-1.92998
0.689547
7.16954
9.96949
3.54932
0.00400824
-0.0814373
-0.178181
-0.283117
-0.394801
-0.516139
-0.656711
-0.831527
-1.05843
-1.35841
-1.72495
-2.10516
-2.36391
-2.35786
-1.86647
0.589518
8.27225
0.66418
1.0184
-0.0223062
-0.100099
-0.187893
-0.283887
-0.387461
-0.500814
-0.630002
-0.783915
-0.971901
-1.20226
-1.46807
-1.73709
-1.93556
-1.97708
-1.84664
-1.51541
5.94127
8.35798
0.668104
-0.0423016
-0.112918
-0.192273
-0.279431
-0.374138
-0.477945
-0.594676
-0.728644
-0.882587
-1.05823
-1.2433
-1.41037
-1.52541
-1.53864
-1.52649
-1.49075
0.840027
18.0699
18.7115
-0.0568822
-0.120724
-0.192026
-0.270398
-0.355944
-0.449854
-0.554275
-0.670708
-0.796254
-0.929839
-1.05622
-1.14651
-1.1814
-1.1547
-1.11183
0.241549
26.0602
16.1865
817.982
-0.0668708
-0.12431
-0.187945
-0.257733
-0.334172
-0.418377
-0.511585
-0.613
-0.716991
-0.818236
-0.902561
-0.940885
-0.921448
-0.849524
-0.775564
24.4693
50.6165
15.8834
1525.49
-0.0730262
-0.12441
-0.18076
-0.24226
-0.309882
-0.384898
-0.468723
-0.557705
-0.645026
-0.721541
-0.775895
-0.782117
-0.732892
-0.633874
-0.580494
38.2634
55.4901
54.5105
468.092
-0.076051
-0.121742
-0.171211
-0.22473
-0.284235
-0.350668
-0.426913
-0.505809
-0.578958
-0.639633
-0.671773
-0.657216
-0.588168
-0.477905
-0.430328
5.07272
47.5942
39.3418
0.368902
-0.0765937
-0.117023
-0.160096
-0.205779
-0.255489
-0.316149
-0.3863
-0.456098
-0.517394
-0.565519
-0.585969
-0.55536
-0.466947
-0.347763
-0.269281
-0.270316
3.19918
-0.239304
0.0500214
-0.075226
-0.110926
-0.148433
-0.187607
-0.230178
-0.282781
-0.345941
-0.405921
-0.455855
-0.494489
-0.505224
-0.463543
-0.360215
-0.254064
-0.146549
-0.116018
-0.00688916
-0.0854601
-0.516729
-0.0723602
-0.103863
-0.136648
-0.170401
-0.206122
-0.250298
-0.304403
-0.353141
-0.391842
-0.421083
-0.422368
-0.374498
-0.248363
-0.174133
-0.0346735
-0.01394
0.060748
0.369694
16.1303
-0.0682467
-0.0959833
-0.124747
-0.154162
-0.184392
-0.219221
-0.261532
-0.297513
-0.324724
-0.340875
-0.333236
-0.269704
-0.151302
-0.104752
0.11601
0.0528281
0.0936381
0.344386
1086.42
-0.0630296
-0.0872595
-0.112398
-0.138207
-0.164167
-0.190956
-0.217407
-0.241043
-0.258861
-0.259482
-0.244056
-0.185461
-0.103308
-0.0525253
0.0397251
0.0753751
0.237179
-0.0635898
2232.86
-0.056853
-0.0776866
-0.0992305
-0.121326
-0.143493
-0.164124
-0.177573
-0.183468
-0.189026
-0.190056
-0.181507
-0.160073
-0.115623
-0.0470984
0.053771
0.123709
8.59484
237.092
2426.88
-0.0499486
-0.0674663
-0.0853781
-0.103428
-0.121222
-0.137374
-0.148277
-0.144877
-0.140839
-0.138679
-0.136652
-0.137699
-0.116245
-0.0701954
0.0112621
0.11963
25.7184
338.552
478.396
-0.0426552
-0.057014
-0.0714574
-0.0856404
-0.0990602
-0.11098
-0.11964
-0.12378
-0.11348
-0.104891
-0.105373
-0.109361
-0.103627
-0.0971474
-0.0798352
0.716629
36.4087
-1.1909
0.585509
-0.0353325
-0.0467957
-0.0581239
-0.0689822
-0.078854
-0.0871886
-0.0928101
-0.09371
-0.0934989
-0.0901381
-0.0859952
-0.0898524
-0.0965441
-0.106899
-0.136309
-0.230609
6.54582
-0.767385
70.5853
-0.028245
-0.0371293
-0.0457573
-0.0538747
-0.0610428
-0.0668182
-0.0707645
-0.0722515
-0.0719481
-0.0714037
-0.0726033
-0.0755423
-0.0799892
-0.0897391
-0.118836
-0.191363
-0.219949
-0.507075
274
-0.021518
-0.0281158
-0.0344285
-0.0403042
-0.0453943
-0.049386
-0.0522329
-0.0535576
-0.053729
-0.0545646
-0.0569914
-0.0588997
-0.0621676
-0.0715757
-0.0961598
-0.165074
-0.146314
-0.398824
65.589
-0.0151328
-0.0196709
-0.0239706
-0.0279555
-0.031387
-0.034134
-0.0364757
-0.0371685
-0.0380762
-0.0399407
-0.0434767
-0.0456491
-0.0504432
-0.0631986
-0.0852459
-0.157179
-0.143737
-0.338255
-0.234995
-0.00897734
-0.0116206
-0.0141052
-0.016399
-0.018372
-0.0200037
-0.0214325
-0.0223731
-0.0240454
-0.0266809
-0.0307909
-0.0342639
-0.0412186
-0.0553739
-0.0776257
-0.141305
-0.127522
-0.318488
10.3499
-0.00296979
-0.00382917
-0.00462988
-0.00536531
-0.00601005
-0.00659828
-0.00722714
-0.00815689
-0.0102469
-0.0133691
-0.0175472
-0.0218621
-0.0306427
-0.0445035
-0.072946
-0.113758
-0.116964
-0.272101
-0.0613235
)
;

boundaryField
{
    leftWall
    {
        type            fixedFluxPressure;
        gradient        uniform 0;
        value           nonuniform List<scalar> 
50
(
555.6
555.464
554.668
553.909
553.743
554.33
555.445
556.435
424.759
1.06053
0.926943
0.913069
0.861196
0.795707
0.749435
0.712887
0.679973
0.651097
0.624715
0.599915
0.576095
0.552824
0.529863
0.507069
0.484367
0.461736
0.439171
0.4167
0.394373
0.372242
0.350358
0.328771
0.307527
0.286665
0.266223
0.246236
0.226713
0.207663
0.189095
0.171002
0.153329
0.136067
0.119175
0.102608
0.0863336
0.0703015
0.0544425
0.0387111
0.0231284
0.00766271
)
;
    }
    rightWall
    {
        type            fixedFluxPressure;
        gradient        uniform 0;
        value           nonuniform List<scalar> 
50
(
1417.8
1411.03
1378.58
1323.99
1252.56
1158.28
1045.47
937.882
834.948
827.874
875.291
973.127
1152.86
1355.55
1555.3
1763.14
1900.35
1541.25
1188.29
1458.98
1982.08
2276.63
2390.65
1830.84
1620.12
2502.89
1900.39
1201.83
3.54932
1.0184
0.668104
18.7115
817.982
1525.49
468.092
0.368902
0.0500214
-0.516729
16.1303
1086.42
2232.86
2426.88
478.396
0.585509
70.5853
274
65.589
-0.234995
10.3499
-0.0613235
)
;
    }
    lowerWall
    {
        type            fixedFluxPressure;
        gradient        uniform 0;
        value           nonuniform List<scalar> 
62
(
555.6
553.283
554.115
558.533
567.882
582.148
599.137
615.432
630.89
647.069
665.012
684.743
705.814
727.718
749.902
771.716
792.297
809.274
822.118
824.512
822.92
835.558
871.026
871.026
865.26
862.316
867.037
877.913
891.035
895.766
902.203
862.345
876.143
896.364
902.205
703.349
701.43
704.502
721.769
774.982
796.223
820.908
819.896
703.349
701.83
890.762
1192.16
1257.29
1182.19
1239.3
794.904
401.86
262.118
231.605
232.824
248.114
264.524
271.093
388.183
844.377
1401.77
1417.8
)
;
    }
    atmosphere
    {
        type            totalPressure;
        rho             rho;
        psi             none;
        gamma           1;
        p0              uniform 0;
        value           nonuniform List<scalar> 
46
(
0
0
0
0
0
0
0
0
0
0
0
0
0
0
0
0
0
0
0
0
0
0
0
0
0
0
0
0
0
0
0
0
0
-0.000104611
-0.00110395
-0.0034818
-0.00674122
-0.0109213
-0.0148166
-0.0251944
-0.0385362
-0.0752711
-0.103425
-0.106613
-0.362751
-0.0131816
)
;
    }
    defaultFaces
    {
        type            empty;
    }
}


// ************************************************************************* //
